/*--------------------------------*- C++ -*----------------------------------*\
  =========                 |
  \\      /  F ield         | OpenFOAM: The Open Source CFD Toolbox
   \\    /   O peration     | Website:  https://openfoam.org
    \\  /    A nd           | Version:  8
     \\/     M anipulation  |
\*---------------------------------------------------------------------------*/
FoamFile
{
    version     2.0;
    format      ascii;
    class       surfaceScalarField;
    location    "1.3";
    object      alphaPhi0.water;
}
// * * * * * * * * * * * * * * * * * * * * * * * * * * * * * * * * * * * * * //

dimensions      [0 3 -1 0 0 0 0];

internalField   nonuniform List<scalar> 
18095
(
1.58986e-07
-9.64686e-07
8.05699e-07
1.65774e-07
-1.24846e-06
1.24167e-06
1.22454e-07
-1.24245e-06
1.28577e-06
6.54496e-08
-1.26365e-06
1.32066e-06
1.02619e-12
-1.28075e-06
1.3462e-06
-6.54476e-08
-1.28075e-06
1.3462e-06
-1.22453e-07
-1.26365e-06
1.32066e-06
-1.65773e-07
-1.24245e-06
1.28577e-06
-1.58987e-07
-1.24846e-06
1.24168e-06
-9.64687e-07
8.05701e-07
1.11262e-07
-1.07595e-06
9.96854e-08
-1.23689e-06
7.30335e-08
-1.21579e-06
4.01312e-08
-1.23075e-06
1.70672e-12
-1.24062e-06
-4.01282e-08
-1.24062e-06
-7.30315e-08
-1.23075e-06
-9.96841e-08
-1.21579e-06
-1.11261e-07
-1.23689e-06
-1.07595e-06
6.74116e-08
-1.14336e-06
5.29487e-08
-1.22242e-06
4.22715e-08
-1.20512e-06
2.39351e-08
-1.21241e-06
1.55213e-12
-1.21669e-06
-2.39321e-08
-1.21669e-06
-4.22689e-08
-1.21241e-06
-5.2947e-08
-1.20512e-06
-6.74108e-08
-1.22242e-06
-1.14336e-06
3.97854e-08
-1.18314e-06
2.67194e-08
-1.20936e-06
2.20893e-08
-1.20049e-06
1.25758e-08
-1.2029e-06
4.96237e-13
-1.20411e-06
-1.25748e-08
-1.20411e-06
-2.20884e-08
-1.2029e-06
-2.67186e-08
-1.20049e-06
-3.97846e-08
-1.20936e-06
-1.18314e-06
1.68555e-08
7.49815e-09
7.0111e-09
4.11149e-09
-1.10782e-12
-4.11351e-09
-7.0127e-09
-7.49931e-09
-1.68562e-08
-1.7599e-07
-1.16287e-06
1.33886e-06
-2.20342e-07
-1.21656e-06
1.26091e-06
-1.66002e-07
-1.21311e-06
1.15877e-06
-8.74254e-08
-1.20439e-06
1.12581e-06
6.88286e-12
-1.20305e-06
1.11561e-06
8.74392e-08
-1.20305e-06
1.11561e-06
1.66016e-07
-1.20439e-06
1.12582e-06
2.20354e-07
-1.21312e-06
1.15878e-06
1.75998e-07
-1.21657e-06
1.26093e-06
-1.16288e-06
1.33888e-06
-9.27533e-08
-1.07012e-06
-9.5606e-08
-1.21371e-06
-7.93734e-08
-1.22935e-06
-4.43047e-08
-1.23946e-06
3.25266e-12
-1.24735e-06
4.4311e-08
-1.24735e-06
7.93788e-08
-1.23946e-06
9.56097e-08
-1.22935e-06
9.27549e-08
-1.21371e-06
-1.07013e-06
-5.80517e-08
-1.01207e-06
-5.51639e-08
-1.2166e-06
-4.64979e-08
-1.23801e-06
-2.71237e-08
-1.25883e-06
1.78609e-12
-1.27448e-06
2.71274e-08
-1.27448e-06
4.65011e-08
-1.25884e-06
5.51668e-08
-1.23802e-06
5.80534e-08
-1.2166e-06
-1.01207e-06
-7.50202e-08
-9.37049e-07
-6.21202e-08
-1.2295e-06
-4.85677e-08
-1.25157e-06
-2.77338e-08
-1.27967e-06
8.12615e-13
-1.30221e-06
2.77357e-08
-1.30221e-06
4.85702e-08
-1.27967e-06
6.21234e-08
-1.25157e-06
7.50234e-08
-1.2295e-06
-9.3705e-07
-1.3135e-07
-1.19173e-07
-8.49728e-08
-4.39847e-08
9.69332e-13
4.39861e-08
8.49737e-08
1.19174e-07
1.31349e-07
-3.80299e-08
-9.30686e-07
9.68716e-07
7.10591e-09
-1.34066e-06
1.29552e-06
1.03786e-08
-1.27551e-06
1.27224e-06
4.79577e-09
-1.22802e-06
1.23361e-06
2.80025e-11
-1.225e-06
1.22977e-06
-4.72475e-09
-1.225e-06
1.22975e-06
-1.03032e-08
-1.22801e-06
1.23359e-06
-6.90586e-09
-1.27547e-06
1.27208e-06
3.86034e-08
-1.34067e-06
1.29516e-06
-9.30968e-07
9.69572e-07
1.36205e-08
-9.44307e-07
1.95028e-08
-1.34654e-06
1.28179e-08
-1.26883e-06
6.85601e-09
-1.22206e-06
4.48132e-11
-1.21819e-06
-6.75819e-09
-1.21819e-06
-1.27076e-08
-1.22206e-06
-1.93308e-08
-1.26885e-06
-1.3422e-08
-1.34657e-06
-9.4439e-07
2.89949e-08
-9.73302e-07
2.03398e-08
-1.33788e-06
1.08851e-08
-1.25937e-06
6.0849e-09
-1.21726e-06
2.71944e-11
-1.21213e-06
-6.0309e-09
-1.21214e-06
-1.08256e-08
-1.21727e-06
-2.02879e-08
-1.25939e-06
-2.8948e-08
-1.33791e-06
-9.73338e-07
8.01978e-08
-1.0535e-06
5.48851e-08
-1.31257e-06
3.54063e-08
-1.23989e-06
2.12482e-08
-1.2031e-06
1.80821e-11
-1.1909e-06
-2.12125e-08
-1.19091e-06
-3.5372e-08
-1.20311e-06
-5.48558e-08
-1.2399e-06
-8.01812e-08
-1.31259e-06
-1.05352e-06
2.85365e-07
2.3371e-07
1.52591e-07
7.53014e-08
1.08724e-11
-7.52807e-08
-1.52573e-07
-2.33697e-07
-2.8536e-07
-3.80246e-07
-8.89826e-08
4.69229e-07
-2.90184e-07
-9.00619e-08
-1.99488e-07
-9.06959e-08
-1.08533e-07
-9.09548e-08
-1.7738e-08
-9.0795e-08
7.27411e-08
-9.04792e-08
1.62829e-07
-9.00879e-08
2.52192e-07
-8.93631e-08
3.40497e-07
-8.83053e-08
-8.68829e-08
4.2738e-07
-3.17548e-07
-1.6304e-07
3.91606e-07
-2.42196e-07
-1.65414e-07
-1.65929e-07
-1.66962e-07
-8.90919e-08
-1.67792e-07
-1.19256e-08
-1.67961e-07
6.51272e-08
-1.67532e-07
1.41571e-07
-1.66531e-07
2.17146e-07
-1.64939e-07
2.91576e-07
-1.62735e-07
-1.59862e-07
3.64555e-07
-2.67138e-07
-2.26444e-07
3.30541e-07
-2.0262e-07
-2.29932e-07
-1.37299e-07
-2.32283e-07
-7.14857e-08
-2.33605e-07
-5.46605e-09
-2.33981e-07
6.0465e-08
-2.33463e-07
1.26011e-07
-2.32078e-07
1.90899e-07
-2.29827e-07
2.54848e-07
-2.26684e-07
-2.22603e-07
3.17589e-07
-2.24745e-07
-2.81303e-07
2.79605e-07
-1.6897e-07
-2.85708e-07
-1.12545e-07
-2.88709e-07
-5.57164e-08
-2.90434e-07
1.27753e-09
-2.90975e-07
5.82081e-08
-2.90394e-07
1.14848e-07
-2.88718e-07
1.70966e-07
-2.85945e-07
2.26324e-07
-2.82041e-07
-2.76951e-07
2.80672e-07
-1.86832e-07
-3.28764e-07
2.34292e-07
-1.38666e-07
-3.33873e-07
-8.99943e-08
-3.37381e-07
-4.10026e-08
-3.39425e-07
8.12681e-09
-3.40104e-07
5.72134e-08
-3.3948e-07
1.06075e-07
-3.37579e-07
1.54525e-07
-3.34394e-07
2.02364e-07
-3.29883e-07
-3.23976e-07
2.49388e-07
-1.52596e-07
-3.69633e-07
1.93466e-07
-1.11207e-07
-3.75262e-07
-6.94353e-08
-3.79153e-07
-2.74137e-08
-3.81447e-07
1.47239e-08
-3.82242e-07
5.68408e-08
-3.81597e-07
9.87955e-08
-3.79534e-07
1.4044e-07
-3.76039e-07
1.81618e-07
-3.71063e-07
-3.64523e-07
2.22162e-07
-1.22294e-07
-4.04649e-07
1.5731e-07
-8.69046e-08
-4.10652e-07
-5.12271e-08
-4.14831e-07
-1.53517e-08
-4.17322e-07
2.06261e-08
-4.18219e-07
5.6605e-08
-4.17576e-07
9.24768e-08
-4.15406e-07
1.28127e-07
-4.11689e-07
1.63434e-07
-4.0637e-07
-3.99356e-07
1.98265e-07
-9.69182e-08
-4.34774e-07
1.27044e-07
-6.6571e-08
-4.40999e-07
-3.60372e-08
-4.45365e-07
-5.3652e-09
-4.47994e-07
2.53853e-08
-4.4897e-07
5.61449e-08
-4.48336e-07
8.68367e-08
-4.46098e-07
1.17377e-07
-4.42229e-07
1.47675e-07
-4.36668e-07
-4.29313e-07
1.77631e-07
-7.7427e-08
-4.61229e-07
1.03882e-07
-5.09549e-08
-4.67471e-07
-2.44389e-08
-4.7188e-07
2.12143e-09
-4.74555e-07
2.87082e-08
-4.75557e-07
5.52895e-08
-4.74917e-07
8.18241e-08
-4.72632e-07
1.08264e-07
-4.68669e-07
1.34558e-07
-4.62961e-07
-4.55404e-07
1.60651e-07
-6.39849e-08
-4.85243e-07
8.79988e-08
-4.01925e-08
-4.91263e-07
-1.65335e-08
-4.95539e-07
7.04579e-09
-4.98134e-07
3.0574e-08
-4.99085e-07
5.40633e-08
-4.98406e-07
7.75149e-08
-4.96084e-07
1.00925e-07
-4.92079e-07
1.24287e-07
-4.8632e-07
-4.78714e-07
1.47607e-07
-5.57289e-08
-5.0778e-07
7.82657e-08
-3.36264e-08
-5.13365e-07
-1.18248e-08
-5.1734e-07
9.77372e-09
-5.19732e-07
3.12418e-08
-5.20553e-07
5.26349e-08
-5.19799e-07
7.39985e-08
-5.17448e-07
9.53739e-08
-5.13454e-07
1.16808e-07
-5.0775e-07
-5.00263e-07
1.38356e-07
-5.11671e-08
-5.29432e-07
7.28197e-08
-3.00884e-08
-5.34444e-07
-9.42773e-09
-5.38001e-07
1.09415e-08
-5.40101e-07
3.11244e-08
-5.40735e-07
5.12122e-08
-5.39887e-07
7.12885e-08
-5.37524e-07
9.14351e-08
-5.336e-07
1.11742e-07
-5.28058e-07
-5.20838e-07
1.32316e-07
-4.8687e-08
-5.5043e-07
6.96851e-08
-2.83021e-08
-5.54829e-07
-8.37709e-09
-5.57926e-07
1.12231e-08
-5.59701e-07
3.06201e-08
-5.60133e-07
4.99261e-08
-5.59193e-07
6.92499e-08
-5.56848e-07
8.86992e-08
-5.53052e-07
1.08396e-07
-5.47759e-07
-5.40916e-07
1.28474e-07
-4.70651e-08
-5.70794e-07
6.74284e-08
-2.72717e-08
-5.74623e-07
-7.91501e-09
-5.77283e-07
1.1133e-08
-5.7875e-07
2.99949e-08
-5.78995e-07
4.87893e-08
-5.77987e-07
6.76339e-08
-5.75692e-07
8.66477e-08
-5.72069e-07
1.05959e-07
-5.67079e-07
-5.60667e-07
1.2571e-07
-4.54456e-08
-5.9041e-07
6.50618e-08
-2.63016e-08
-5.93767e-07
-7.52191e-09
-5.96064e-07
1.10043e-08
-5.97277e-07
2.93884e-08
-5.97379e-07
4.7742e-08
-5.96341e-07
6.61776e-08
-5.94128e-07
8.48087e-08
-5.90702e-07
1.03754e-07
-5.86008e-07
-5.80055e-07
1.2314e-07
-4.35221e-08
-6.0916e-07
6.2272e-08
-2.51272e-08
-6.12162e-07
-7.00165e-09
-6.14189e-07
1.09455e-08
-6.15224e-07
2.88089e-08
-6.15243e-07
4.66865e-08
-6.14218e-07
6.46787e-08
-6.1212e-07
8.28857e-08
-6.08909e-07
1.01417e-07
-6.04515e-07
-5.98993e-07
1.20368e-07
-4.14803e-08
-6.27037e-07
5.93577e-08
-2.3866e-08
-6.29776e-07
-6.4435e-09
-6.31612e-07
1.08627e-08
-6.3253e-07
2.81319e-08
-6.32512e-07
4.54476e-08
-6.31534e-07
6.28971e-08
-6.2957e-07
8.05708e-08
-6.2657e-07
9.85652e-08
-6.2251e-07
-6.17406e-07
1.16988e-07
-3.9416e-08
-6.44047e-07
5.64256e-08
-2.26008e-08
-6.46591e-07
-5.92348e-09
-6.48289e-07
1.06756e-08
-6.49129e-07
2.72583e-08
-6.49095e-07
4.38889e-08
-6.48165e-07
6.06352e-08
-6.46316e-07
7.75655e-08
-6.43483e-07
9.47607e-08
-6.39707e-07
-6.3495e-07
1.12308e-07
-3.72419e-08
-6.60151e-07
5.33456e-08
-2.12591e-08
-6.62574e-07
-5.3613e-09
-6.64187e-07
1.04917e-08
-6.64981e-07
2.63434e-08
-6.64946e-07
4.22401e-08
-6.64061e-07
5.82315e-08
-6.62307e-07
7.43653e-08
-6.59612e-07
9.07051e-08
-6.56049e-07
-6.51563e-07
1.0731e-07
-3.49582e-08
-6.75369e-07
5.01765e-08
-1.97985e-08
-6.77734e-07
-4.67494e-09
-6.7931e-07
1.0439e-08
-6.80095e-07
2.55741e-08
-6.80081e-07
4.07651e-08
-6.79253e-07
5.60524e-08
-6.77594e-07
7.14768e-08
-6.75046e-07
8.70989e-08
-6.71673e-07
-6.67425e-07
1.02956e-07
-3.27145e-08
-6.8982e-07
4.71656e-08
-1.8297e-08
-6.92151e-07
-3.88962e-09
-6.93717e-07
1.05313e-08
-6.94516e-07
2.49898e-08
-6.94539e-07
3.95138e-08
-6.93777e-07
5.4136e-08
-6.92217e-07
6.88916e-08
-6.89842e-07
8.3832e-08
-6.86616e-07
-6.82615e-07
9.90209e-08
-3.05956e-08
-7.03602e-07
4.43776e-08
-1.68288e-08
-7.05918e-07
-3.05253e-09
-7.07493e-07
1.07548e-08
-7.08323e-07
2.46137e-08
-7.08398e-07
3.85471e-08
-7.0771e-07
5.25835e-08
-7.06253e-07
6.67567e-08
-7.04023e-07
8.11144e-08
-7.0102e-07
-6.97237e-07
9.57353e-08
-2.86064e-08
-7.16739e-07
4.17429e-08
-1.54407e-08
-7.19083e-07
-2.23122e-09
-7.20702e-07
1.1034e-08
-7.21588e-07
2.43677e-08
-7.21732e-07
3.77865e-08
-7.21128e-07
5.13122e-08
-7.19779e-07
6.49733e-08
-7.17672e-07
7.88114e-08
-7.14853e-07
-7.11309e-07
9.28812e-08
-2.68441e-08
-7.2923e-07
3.93353e-08
-1.4258e-08
-7.31669e-07
-1.58738e-09
-7.33373e-07
1.11578e-08
-7.34334e-07
2.39705e-08
-7.34544e-07
3.68476e-08
-7.34005e-07
4.97903e-08
-7.32721e-07
6.28006e-08
-7.30655e-07
7.58863e-08
-7.27935e-07
-7.2447e-07
8.90471e-08
-2.55206e-08
-7.41141e-07
3.74322e-08
-1.34543e-08
-7.43736e-07
-1.2764e-09
-7.45552e-07
1.09708e-08
-7.46582e-07
2.32499e-08
-7.46824e-07
3.55274e-08
-7.46283e-07
4.7774e-08
-7.44968e-07
5.99584e-08
-7.42843e-07
7.20581e-08
-7.40022e-07
-7.36426e-07
8.40144e-08
-2.4768e-08
-7.52648e-07
3.62747e-08
-1.30661e-08
-7.55438e-07
-1.24587e-09
-7.57372e-07
1.06226e-08
-7.5845e-07
2.24767e-08
-7.58679e-07
3.42621e-08
-7.58068e-07
4.59315e-08
-7.56637e-07
5.74428e-08
-7.54358e-07
6.87793e-08
-7.51354e-07
-7.47588e-07
7.99407e-08
-2.4469e-08
-7.63968e-07
3.57891e-08
-1.29351e-08
-7.66972e-07
-1.29245e-09
-7.69015e-07
1.03701e-08
-7.70113e-07
2.19767e-08
-7.70285e-07
3.34629e-08
-7.69554e-07
4.47768e-08
-7.67951e-07
5.58763e-08
-7.6546e-07
6.67451e-08
-7.6223e-07
-7.58223e-07
7.73801e-08
-2.43675e-08
-7.75291e-07
3.56899e-08
-1.28407e-08
-7.78499e-07
-1.23013e-09
-7.80626e-07
1.03658e-08
-7.81709e-07
2.18647e-08
-7.81784e-07
3.31984e-08
-7.80889e-07
4.43098e-08
-7.79062e-07
5.51494e-08
-7.76304e-07
6.56875e-08
-7.72778e-07
-7.68408e-07
7.58727e-08
-2.41693e-08
-7.86702e-07
3.55808e-08
-1.25882e-08
-7.9008e-07
-9.58211e-10
-7.92255e-07
1.06246e-08
-7.93292e-07
2.20811e-08
-7.9324e-07
3.33425e-08
-7.9215e-07
4.43517e-08
-7.90072e-07
5.50565e-08
-7.87037e-07
6.54145e-08
-7.83139e-07
-7.78355e-07
7.53575e-08
-2.38452e-08
-7.98191e-07
3.53339e-08
-1.22573e-08
-8.01668e-07
-6.68787e-10
-8.03844e-07
1.0837e-08
-8.04797e-07
2.21841e-08
-8.04587e-07
3.33028e-08
-8.03269e-07
4.41283e-08
-8.00897e-07
5.46004e-08
-7.97519e-07
6.46701e-08
-7.9321e-07
-7.87927e-07
7.4241e-08
-2.38573e-08
-8.09722e-07
3.53882e-08
-1.23341e-08
-8.13191e-07
-8.74409e-10
-8.15304e-07
1.0459e-08
-8.16131e-07
2.15956e-08
-8.15724e-07
3.24578e-08
-8.14131e-07
4.29622e-08
-8.11402e-07
5.30212e-08
-8.07558e-07
6.25588e-08
-8.02746e-07
-7.96537e-07
7.11688e-08
-2.4693e-08
-8.2111e-07
3.60809e-08
-1.33708e-08
-8.24513e-07
-2.13241e-09
-8.26542e-07
8.97775e-09
-8.27241e-07
1.98941e-08
-8.2664e-07
3.05336e-08
-8.2477e-07
4.07954e-08
-8.21663e-07
5.05621e-08
-8.17327e-07
5.96995e-08
-8.11883e-07
-8.03648e-07
6.68096e-08
-2.7531e-08
-8.32361e-07
3.87828e-08
-1.63823e-08
-8.35661e-07
-5.3148e-09
-8.3761e-07
5.65013e-09
-8.38206e-07
1.64617e-08
-8.37452e-07
2.70452e-08
-8.35354e-07
3.73023e-08
-8.3192e-07
4.71037e-08
-8.2713e-07
5.62818e-08
-8.21062e-07
-8.0816e-07
6.07922e-08
-3.38351e-08
-8.43814e-07
4.52876e-08
-2.25759e-08
-8.4692e-07
-1.14496e-08
-8.48736e-07
-4.41635e-10
-8.49214e-07
1.04296e-08
-8.48323e-07
2.11145e-08
-8.46039e-07
3.15367e-08
-8.42343e-07
4.15861e-08
-8.37182e-07
5.11002e-08
-8.30579e-07
-8.0563e-07
4.85696e-08
-4.31651e-08
-8.55307e-07
5.46579e-08
-3.18408e-08
-8.58244e-07
-2.06349e-08
-8.59936e-07
-9.53357e-09
-8.60309e-07
1.45288e-09
-8.5931e-07
1.22912e-08
-8.56877e-07
2.29269e-08
-8.52978e-07
3.32874e-08
-8.47552e-07
4.32541e-08
-8.40548e-07
-8.00824e-07
3.90904e-08
-5.47475e-08
-8.66446e-07
6.58872e-08
-4.35954e-08
-8.69395e-07
-3.24411e-08
-8.71085e-07
-2.13098e-08
-8.71438e-07
-1.02364e-08
-8.70383e-07
7.33653e-10
-8.67847e-07
1.15512e-08
-8.63796e-07
2.21681e-08
-8.58171e-07
3.24766e-08
-8.50857e-07
-7.96524e-07
2.95973e-08
-6.94461e-08
-8.77517e-07
8.05169e-08
-5.82103e-08
-8.8063e-07
-4.68952e-08
-8.82401e-07
-3.55658e-08
-8.82767e-07
-2.42846e-08
-8.81664e-07
-1.31113e-08
-8.79021e-07
-2.10069e-09
-8.74807e-07
8.70459e-09
-8.68973e-07
1.90843e-08
-8.61237e-07
-7.96016e-07
1.9638e-08
-8.68338e-08
-8.88971e-07
9.82875e-08
-7.51149e-08
-8.92348e-07
-6.33082e-08
-8.94208e-07
-5.15168e-08
-8.94561e-07
-3.98184e-08
-8.93363e-07
-2.82829e-08
-8.90556e-07
-1.69749e-08
-8.86114e-07
-5.95079e-09
-8.79998e-07
4.58678e-09
-8.716e-07
-8.00606e-07
9.68523e-09
-1.04924e-07
-9.0124e-07
1.17193e-07
-9.24913e-08
-9.0478e-07
-8.00462e-08
-9.06653e-07
-6.76642e-08
-9.0695e-07
-5.54046e-08
-9.05622e-07
-4.33318e-08
-9.02629e-07
-3.15226e-08
-8.97923e-07
-2.00684e-08
-8.9145e-07
-9.06238e-09
-8.82591e-07
-8.10398e-07
8.45148e-10
-1.20764e-07
-9.13957e-07
1.33481e-07
-1.08036e-07
-9.17507e-07
-9.52927e-08
-9.19402e-07
-8.25252e-08
-9.19716e-07
-6.97645e-08
-9.18383e-07
-5.70696e-08
-9.15324e-07
-4.45341e-08
-9.10459e-07
-3.22835e-08
-9.03697e-07
-2.04901e-08
-8.9429e-07
-8.22921e-07
-7.17493e-09
-1.33607e-07
-9.26023e-07
1.45673e-07
-1.21215e-07
-9.29898e-07
-1.08624e-07
-9.3199e-07
-9.5762e-08
-9.32567e-07
-8.26279e-08
-9.31517e-07
-6.92746e-08
-9.28677e-07
-5.58003e-08
-9.23933e-07
-4.23593e-08
-9.17136e-07
-2.91873e-08
-9.0736e-07
-8.34915e-07
-1.26985e-08
-1.46153e-07
-9.36635e-07
1.56767e-07
-1.34226e-07
-9.41825e-07
-1.21849e-07
-9.4436e-07
-1.08977e-07
-9.45441e-07
-9.56173e-08
-9.44876e-07
-8.18408e-08
-9.42454e-07
-6.77628e-08
-9.38011e-07
-5.3569e-08
-9.31329e-07
-3.95508e-08
-9.21388e-07
-8.48166e-07
-1.98127e-08
-1.60321e-07
-9.4455e-07
1.68236e-07
-1.48526e-07
-9.53619e-07
-1.36096e-07
-9.56792e-07
-1.23068e-07
-9.58471e-07
-1.09501e-07
-9.58444e-07
-9.54778e-08
-9.56477e-07
-8.11079e-08
-9.52381e-07
-6.65314e-08
-9.45907e-07
-5.19437e-08
-9.35993e-07
-8.66289e-07
-2.83144e-08
-1.75402e-07
-9.45669e-07
1.76522e-07
-1.633e-07
-9.65721e-07
-1.50445e-07
-9.69648e-07
-1.36995e-07
-9.71935e-07
-1.23038e-07
-9.72401e-07
-1.08637e-07
-9.70878e-07
-9.38276e-08
-9.67191e-07
-7.86257e-08
-9.61108e-07
-6.29857e-08
-9.51628e-07
-8.9061e-07
-3.57635e-08
-1.89566e-07
-9.31159e-07
1.75063e-07
-1.76498e-07
-9.78788e-07
-1.6283e-07
-9.83327e-07
-1.48766e-07
-9.86006e-07
-1.34363e-07
-9.86804e-07
-1.19615e-07
-9.85625e-07
-1.0447e-07
-9.82336e-07
-8.88262e-08
-9.76752e-07
-7.24242e-08
-9.68027e-07
-9.18118e-07
-4.33914e-08
-1.96079e-07
-8.84975e-07
1.47613e-07
-1.82872e-07
-9.91994e-07
-1.69077e-07
-9.97122e-07
-1.54957e-07
-1.00012e-06
-1.40522e-07
-1.00124e-06
-1.25707e-07
-1.00044e-06
-1.10381e-07
-9.97662e-07
-9.43555e-08
-9.92777e-07
-7.7195e-08
-9.85186e-07
-9.47358e-07
-4.75654e-08
-1.8959e-07
-7.94037e-07
8.84368e-08
-1.7851e-07
-1.00308e-06
-1.66197e-07
-1.00943e-06
-1.53179e-07
-1.0131e-06
-1.39485e-07
-1.01493e-06
-1.25079e-07
-1.01485e-06
-1.09821e-07
-1.01292e-06
-9.34749e-08
-1.00912e-06
-7.55249e-08
-1.00314e-06
-9.76832e-07
-4.63319e-08
-1.76054e-07
-6.84271e-07
5.17785e-08
-1.67605e-07
-1.01152e-06
-1.56658e-07
-1.02038e-06
-1.44795e-07
-1.02498e-06
-1.31986e-07
-1.02774e-06
-1.18181e-07
-1.02865e-06
-1.03231e-07
-1.02787e-06
-8.68942e-08
-1.02546e-06
-6.86754e-08
-1.02136e-06
-1.00491e-06
-4.10643e-08
-1.60561e-07
-5.57304e-07
2.4296e-08
-1.54498e-07
-1.01759e-06
-1.43572e-07
-1.03131e-06
-1.32032e-07
-1.03653e-06
-1.19688e-07
-1.04008e-06
-1.06391e-07
-1.04195e-06
-9.19355e-08
-1.04232e-06
-7.60638e-08
-1.04133e-06
-5.83581e-08
-1.03906e-06
-1.03055e-06
-3.32575e-08
-1.35429e-07
-4.22102e-07
7.57327e-09
-1.36604e-07
-1.01641e-06
-1.25766e-07
-1.04215e-06
-1.1453e-07
-1.04779e-06
-1.02669e-07
-1.05194e-06
-8.99786e-08
-1.05464e-06
-7.62309e-08
-1.05607e-06
-6.11567e-08
-1.05641e-06
-4.43785e-08
-1.05584e-06
-1.0524e-06
-2.21774e-08
-9.37769e-08
-3.18958e-07
4.43208e-09
-1.12883e-07
-9.97313e-07
-1.02735e-07
-1.0523e-06
-9.21477e-08
-1.05837e-06
-8.10199e-08
-1.06307e-06
-6.91633e-08
-1.0665e-06
-5.63603e-08
-1.06887e-06
-4.23685e-08
-1.0704e-06
-2.68758e-08
-1.07133e-06
-1.07107e-06
-8.19692e-09
-5.96383e-08
-2.47281e-07
2.64359e-09
-8.41188e-08
-9.64018e-07
-7.52198e-08
-1.06118e-06
-6.55929e-08
-1.06798e-06
-5.55013e-08
-1.07316e-06
-4.48062e-08
-1.07719e-06
-3.33373e-08
-1.08034e-06
-2.09101e-08
-1.08282e-06
-7.34387e-09
-1.0849e-06
-1.08445e-06
6.03861e-09
-3.3285e-08
-2.0002e-07
2.67965e-10
-5.10566e-08
-9.35609e-07
-4.39249e-08
-1.0683e-06
-3.56046e-08
-1.07629e-06
-2.69322e-08
-1.08184e-06
-1.78312e-08
-1.08629e-06
-8.19841e-09
-1.08998e-06
2.06405e-09
-1.09309e-06
1.30052e-08
-1.09584e-06
-1.09065e-06
1.92032e-08
-1.19303e-08
-1.74674e-07
0
-1.57307e-08
-9.19065e-07
-1.01021e-08
-1.07353e-06
-3.28252e-09
-1.0831e-06
3.70754e-09
-1.08882e-06
1.09075e-08
-1.09349e-06
1.83732e-08
-1.09744e-06
2.61526e-08
-1.10087e-06
3.42627e-08
-1.10395e-06
-1.08565e-06
3.22856e-08
7.54497e-09
-1.68201e-07
-7.85841e-10
1.96248e-08
-9.17025e-07
2.49233e-08
-1.07867e-06
3.01401e-08
-1.0883e-06
3.52971e-08
-1.09398e-06
4.04206e-08
-1.09862e-06
4.5536e-08
-1.10255e-06
5.06762e-08
-1.10601e-06
5.58581e-08
-1.10913e-06
-1.0452e-06
4.237e-08
2.7276e-08
-1.8e-07
-2.57478e-09
5.56994e-08
-9.30839e-07
5.96231e-08
-1.08249e-06
6.3228e-08
-1.09189e-06
6.65334e-08
-1.09728e-06
6.9542e-08
-1.10162e-06
7.2258e-08
-1.10526e-06
7.46952e-08
-1.10844e-06
7.68406e-08
-1.11128e-06
-9.86149e-07
4.53439e-08
4.95554e-08
-2.0868e-07
-4.54564e-09
8.97419e-08
-9.55776e-07
9.23514e-08
-1.08502e-06
9.44348e-08
-1.09397e-06
9.59897e-08
-1.09884e-06
9.70003e-08
-1.10263e-06
9.74348e-08
-1.1057e-06
9.72809e-08
-1.10829e-06
9.63204e-08
-1.11032e-06
-9.10558e-07
4.33589e-08
7.36754e-08
-2.54465e-07
-8.01514e-09
1.19887e-07
-9.86313e-07
1.21402e-07
-1.08648e-06
1.22069e-07
-1.09463e-06
1.22027e-07
-1.09879e-06
1.21235e-07
-1.10184e-06
1.19626e-07
-1.10409e-06
1.17131e-07
-1.10579e-06
1.13057e-07
-1.10624e-06
-7.9055e-07
3.49715e-08
1.00523e-07
-3.14996e-07
-1.24981e-08
1.44439e-07
-1.01606e-06
1.44947e-07
-1.08693e-06
1.44182e-07
-1.09387e-06
1.42569e-07
-1.09718e-06
1.40025e-07
-1.0993e-06
1.36411e-07
-1.10048e-06
1.31571e-07
-1.10095e-06
1.23587e-07
-1.09826e-06
-6.27268e-07
2.54931e-08
1.27509e-07
-3.89145e-07
-1.51344e-08
1.62336e-07
-1.03913e-06
1.61284e-07
-1.08584e-06
1.58882e-07
-1.09146e-06
1.5554e-07
-1.09384e-06
1.51082e-07
-1.09484e-06
1.45255e-07
-1.09466e-06
1.37777e-07
-1.09348e-06
1.23475e-07
-1.08396e-06
-4.58528e-07
2.03236e-08
1.51052e-07
-4.76206e-07
-1.47273e-08
1.72079e-07
-1.0538e-06
1.69135e-07
-1.08286e-06
1.65016e-07
-1.08734e-06
1.59921e-07
-1.08874e-06
1.53543e-07
-1.08846e-06
1.45499e-07
-1.08659e-06
1.35402e-07
-1.08338e-06
1.10498e-07
-1.05906e-06
-3.15705e-07
1.81032e-08
1.66596e-07
-5.70867e-07
-1.77658e-08
1.73053e-07
-1.05674e-06
1.68394e-07
-1.07818e-06
1.62761e-07
-1.0817e-06
1.56158e-07
-1.08214e-06
1.48161e-07
-1.08046e-06
1.38316e-07
-1.07675e-06
1.26231e-07
-1.07129e-06
8.41711e-08
-1.01706e-06
-2.17007e-07
1.679e-08
1.67211e-07
-6.60116e-07
-2.40021e-08
1.66594e-07
-1.05476e-06
1.60359e-07
-1.07193e-06
1.53365e-07
-1.07471e-06
1.45394e-07
-1.07417e-06
1.35899e-07
-1.07097e-06
1.24314e-07
-1.06517e-06
1.10028e-07
-1.05701e-06
5.81019e-08
-9.36565e-07
-1.52281e-07
1.16877e-08
1.59062e-07
-7.37786e-07
-3.84846e-08
1.54586e-07
-1.05014e-06
1.46824e-07
-1.06416e-06
1.38445e-07
-1.06633e-06
1.29066e-07
-1.06479e-06
1.18057e-07
-1.05996e-06
1.04728e-07
-1.05186e-06
8.82366e-08
-1.04051e-06
3.36586e-08
-8.65258e-07
-1.09628e-07
3.6924e-09
1.45583e-07
-7.98884e-07
-5.18764e-08
1.38527e-07
-1.04299e-06
1.28948e-07
-1.05458e-06
1.18899e-07
-1.05628e-06
1.07902e-07
-1.05379e-06
9.52761e-08
-1.04733e-06
8.02587e-08
-1.03684e-06
6.17259e-08
-1.02198e-06
1.68097e-08
-8.06692e-07
-8.6289e-08
3.63681e-10
1.2633e-07
-8.44014e-07
-5.40245e-08
1.1718e-07
-1.03379e-06
1.05972e-07
-1.04337e-06
9.43788e-08
-1.04468e-06
8.19449e-08
-1.04136e-06
6.80174e-08
-1.03341e-06
5.17959e-08
-1.02062e-06
3.16323e-08
-1.00182e-06
3.22136e-09
-7.67435e-07
-7.54814e-08
-3.17669e-09
1.02996e-07
-8.74686e-07
-5.18687e-08
9.13879e-08
-1.02216e-06
7.84646e-08
-1.03045e-06
6.55391e-08
-1.03176e-06
5.22087e-08
-1.02803e-06
3.78492e-08
-1.01905e-06
2.16604e-08
-1.00444e-06
2.40759e-09
-9.82081e-07
-7.283e-09
-7.50136e-07
-7.46869e-08
-4.66406e-09
7.59393e-08
-8.91235e-07
-4.63259e-08
6.10998e-08
-1.00732e-06
4.62829e-08
-1.01563e-06
3.24814e-08
-1.01796e-06
1.91769e-08
-1.01472e-06
5.65123e-09
-1.00552e-06
-8.95213e-09
-9.89837e-07
-2.56534e-08
-9.65355e-07
-1.75592e-08
-7.61867e-07
-9.0477e-08
-5.05451e-09
3.52398e-08
-8.88712e-07
-2.89222e-08
1.9534e-08
-9.9161e-07
5.37207e-09
-1.00147e-06
-6.86023e-09
-1.00573e-06
-1.78328e-08
-1.00375e-06
-2.83771e-08
-9.94977e-07
-3.94106e-08
-9.78807e-07
-5.18663e-08
-9.52864e-07
-2.98241e-08
-7.84083e-07
-1.18125e-07
-4.13231e-09
-1.42741e-08
-8.64222e-07
-3.0358e-09
-2.95238e-08
-9.76361e-07
-4.09686e-08
-9.90022e-07
-4.939e-08
-9.97304e-07
-5.56559e-08
-9.97485e-07
-6.07126e-08
-9.89921e-07
-6.55185e-08
-9.74003e-07
-7.09181e-08
-9.47433e-07
-4.11671e-08
-8.15846e-07
-1.58873e-07
-3.69523e-09
-6.78212e-08
-8.14232e-07
2.4859e-08
-8.10154e-08
-9.63167e-07
-8.87295e-08
-9.82308e-07
-9.25498e-08
-9.93484e-07
-9.37019e-08
-9.96333e-07
-9.32272e-08
-9.90396e-07
-9.20642e-08
-9.75166e-07
-9.08004e-08
-9.48691e-07
-5.7208e-08
-8.53508e-07
-2.17679e-07
-6.77715e-09
-1.16559e-07
-7.29934e-07
4.30295e-08
-1.26094e-07
-9.53632e-07
-1.29742e-07
-9.78659e-07
-1.29785e-07
-9.93441e-07
-1.27718e-07
-9.984e-07
-1.2459e-07
-9.93524e-07
-1.21184e-07
-9.78572e-07
-1.17688e-07
-9.52199e-07
-8.72397e-08
-8.88975e-07
-3.11313e-07
-1.14731e-08
-1.20709e-07
-6.3002e-07
3.06325e-08
-1.32991e-07
-9.4135e-07
-1.38692e-07
-9.72957e-07
-1.40524e-07
-9.9161e-07
-1.40155e-07
-9.98768e-07
-1.38673e-07
-9.95007e-07
-1.36742e-07
-9.80504e-07
-1.34275e-07
-9.54678e-07
-1.18569e-07
-9.0697e-07
-4.44132e-07
-1.29491e-08
-8.31898e-08
-5.60945e-07
1.58486e-08
-1.00839e-07
-9.23701e-07
-1.12324e-07
-9.61473e-07
-1.19726e-07
-9.84208e-07
-1.24385e-07
-9.94109e-07
-1.27243e-07
-9.92148e-07
-1.28848e-07
-9.78899e-07
-1.29043e-07
-9.54489e-07
-1.2308e-07
-9.13953e-07
-5.85113e-07
-1.19502e-08
-3.50177e-08
-5.3859e-07
4.94717e-09
-5.38787e-08
-9.04841e-07
-6.81723e-08
-9.47179e-07
-7.94259e-08
-9.72954e-07
-8.81382e-08
-9.85397e-07
-9.47389e-08
-9.85548e-07
-9.94843e-08
-9.74154e-07
-1.0224e-07
-9.51734e-07
-9.94653e-08
-9.16769e-07
-6.99497e-07
-1.22571e-08
5.65133e-09
-5.7016e-07
-1.35487e-09
-8.11164e-09
-8.91379e-07
-2.15478e-08
-9.33746e-07
-3.36268e-08
-9.60875e-07
-4.39465e-08
-9.75077e-07
-5.23666e-08
-9.77127e-07
-5.88422e-08
-9.67678e-07
-6.32889e-08
-9.47288e-07
-6.40601e-08
-9.16009e-07
-7.68907e-07
-1.71088e-08
3.21424e-08
-6.28164e-07
-2.10576e-09
2.43292e-08
-8.83572e-07
1.4445e-08
-9.23868e-07
4.15521e-09
-9.50585e-07
-5.58762e-09
-9.65334e-07
-1.42683e-08
-9.68447e-07
-2.16813e-08
-9.60265e-07
-2.78156e-08
-9.41154e-07
-3.24208e-08
-9.11405e-07
-8.05812e-07
-1.3436e-08
4.15663e-08
-6.88948e-07
-5.36817e-09
3.97564e-08
-8.81766e-07
3.42597e-08
-9.18371e-07
2.70847e-08
-9.4341e-07
1.9304e-08
-9.57554e-07
1.15741e-08
-9.60717e-07
4.2364e-09
-9.52928e-07
-2.62912e-09
-9.34288e-07
-9.06185e-09
-9.04972e-07
-8.26095e-07
-6.75172e-09
3.86207e-08
-7.36442e-07
-9.91222e-09
4.09083e-08
-8.84052e-07
3.94488e-08
-9.16912e-07
3.57223e-08
-9.39684e-07
3.05951e-08
-9.52426e-07
2.46887e-08
-9.5481e-07
1.84167e-08
-9.46656e-07
1.20134e-08
-9.27885e-07
5.6007e-09
-8.98559e-07
-8.36858e-07
-1.64446e-10
3.38052e-08
-7.718e-07
-1.01346e-08
3.68912e-08
-8.87137e-07
3.74115e-08
-9.17432e-07
3.60062e-08
-9.38278e-07
3.31221e-08
-9.49542e-07
2.91715e-08
-9.50859e-07
2.44979e-08
-9.41982e-07
1.93883e-08
-9.22775e-07
1.40474e-08
-8.93218e-07
-8.44903e-07
6.58723e-09
2.9884e-08
-8.00058e-07
-1.14432e-08
3.2563e-08
-8.89816e-07
3.35192e-08
-9.18388e-07
3.31151e-08
-9.37874e-07
3.15596e-08
-9.47987e-07
2.90526e-08
-9.48352e-07
2.57889e-08
-9.38719e-07
2.19486e-08
-9.18935e-07
1.76559e-08
-8.88926e-07
-8.48002e-07
1.00452e-08
2.52127e-08
-8.19908e-07
-1.1504e-08
2.70797e-08
-8.91682e-07
2.80648e-08
-9.19373e-07
2.82763e-08
-9.38085e-07
2.77199e-08
-9.4743e-07
2.64063e-08
-9.47039e-07
2.43598e-08
-9.36672e-07
2.16215e-08
-9.16197e-07
1.82098e-08
-8.85514e-07
-8.45111e-07
1.14968e-08
2.03595e-08
-8.335e-07
-1.14376e-08
2.12533e-08
-8.92576e-07
2.22279e-08
-9.20347e-07
2.3014e-08
-9.38872e-07
2.33938e-08
-9.47809e-07
2.31932e-08
-9.46838e-07
2.22802e-08
-9.35759e-07
2.05701e-08
-9.14486e-07
1.80288e-08
-8.82973e-07
-8.41911e-07
1.48288e-08
1.73971e-08
-8.43909e-07
-1.28002e-08
1.71295e-08
-8.92308e-07
1.79575e-08
-9.21176e-07
1.91848e-08
-9.40099e-07
2.0398e-08
-9.49023e-07
2.128e-08
-9.4772e-07
2.15761e-08
-9.36055e-07
2.1103e-08
-9.14013e-07
1.97335e-08
-8.81603e-07
-8.39873e-07
1.76958e-08
1.43894e-08
-8.49965e-07
-1.39407e-08
1.39969e-08
-8.91916e-07
1.5049e-08
-9.22228e-07
1.68547e-08
-9.41905e-07
1.89384e-08
-9.51106e-07
2.09641e-08
-9.49746e-07
2.2657e-08
-9.37748e-07
2.37786e-08
-9.15135e-07
2.40591e-08
-8.81884e-07
-8.39439e-07
2.36243e-08
8.39593e-09
-8.52531e-07
-8.07754e-09
9.8091e-09
-8.93329e-07
1.19272e-08
-9.24346e-07
1.46104e-08
-9.44588e-07
1.76072e-08
-9.54103e-07
2.07149e-08
-9.52854e-07
2.377e-08
-9.40803e-07
2.65778e-08
-9.17943e-07
2.89635e-08
-8.84269e-07
-8.41207e-07
3.07314e-08
-7.54568e-09
-8.60211e-07
1.49032e-08
-1.16423e-09
-8.99711e-07
4.24672e-09
-9.29757e-07
9.17237e-09
-9.49513e-07
1.38939e-08
-9.58825e-07
1.85951e-08
-9.57555e-07
2.34372e-08
-9.45645e-07
2.85633e-08
-9.23069e-07
3.41871e-08
-8.89893e-07
-8.47088e-07
4.00689e-08
-2.73327e-08
-8.72026e-07
3.91477e-08
-1.6824e-08
-9.10219e-07
-7.79858e-09
-9.38782e-07
2.32772e-10
-9.57545e-07
7.74789e-09
-9.6634e-07
1.52239e-08
-9.65031e-07
2.31712e-08
-9.53592e-07
3.21875e-08
-9.32085e-07
4.29504e-08
-9.00656e-07
-8.59922e-07
5.57836e-08
-5.17587e-08
-8.87528e-07
6.72606e-08
-3.72919e-08
-9.24686e-07
-2.40219e-08
-9.52052e-07
-1.16617e-08
-9.69905e-07
1.64099e-10
-9.78166e-07
1.18855e-08
-9.76752e-07
2.39886e-08
-9.65695e-07
3.70422e-08
-9.45138e-07
5.1646e-08
-9.1526e-07
-8.76122e-07
6.78467e-08
-8.49362e-08
-9.08788e-07
1.06197e-07
-6.45774e-08
-9.45045e-07
-4.48329e-08
-9.71797e-07
-2.54175e-08
-9.89321e-07
-6.17251e-09
-9.97411e-07
1.30041e-08
-9.95929e-07
3.22881e-08
-9.84979e-07
5.20461e-08
-9.64896e-07
7.28319e-08
-9.36046e-07
-8.9831e-07
9.50199e-08
-1.29707e-07
-9.38565e-07
1.59484e-07
-1.00382e-07
-9.7437e-07
-7.07705e-08
-1.00141e-06
-4.04735e-08
-1.01962e-06
-9.70044e-09
-1.02818e-06
2.10064e-08
-1.02664e-06
5.11915e-08
-1.01516e-06
8.08499e-08
-9.94555e-07
1.10589e-07
-9.65785e-07
-9.28975e-07
1.41254e-07
-1.84349e-07
-9.79098e-07
2.24882e-07
-1.42888e-07
-1.01583e-06
-1.00142e-07
-1.04415e-06
-5.5715e-08
-1.06404e-06
-1.0254e-08
-1.07364e-06
3.50649e-08
-1.07195e-06
7.91645e-08
-1.05926e-06
1.21604e-07
-1.03699e-06
1.6293e-07
-1.00711e-06
-9.69701e-07
2.03655e-07
-2.29504e-07
-1.02919e-06
2.79599e-07
-1.75981e-07
-1.06935e-06
-1.213e-07
-1.09884e-06
-6.50432e-08
-1.1203e-06
-8.24463e-09
-1.13044e-06
4.85237e-08
-1.12872e-06
1.04734e-07
-1.11547e-06
1.59454e-07
-1.09171e-06
2.13126e-07
-1.06078e-06
-1.02047e-06
2.63899e-07
-2.28341e-07
-1.07539e-06
2.74535e-07
-1.72215e-07
-1.12548e-06
-1.15683e-07
-1.15537e-06
-5.92754e-08
-1.17671e-06
-5.35482e-09
-1.18436e-06
4.894e-08
-1.18302e-06
1.06287e-07
-1.17282e-06
1.64143e-07
-1.14957e-06
2.21828e-07
-1.11847e-06
-1.06933e-06
2.70687e-07
-1.76152e-07
-1.09451e-06
1.95267e-07
-1.30201e-07
-1.17143e-06
-8.29805e-08
-1.20259e-06
-3.93858e-08
-1.2203e-06
-3.24969e-09
-1.2205e-06
3.34994e-08
-1.21977e-06
7.86188e-08
-1.21794e-06
1.27813e-07
-1.19876e-06
1.7602e-07
-1.16667e-06
-1.09306e-06
1.99737e-07
-1.05537e-07
-1.06516e-06
8.92965e-08
-7.76375e-08
-1.19933e-06
-4.38231e-08
-1.2364e-06
-1.86898e-08
-1.24544e-06
-1.79089e-09
-1.2374e-06
1.55343e-08
-1.23709e-06
4.19159e-08
-1.24432e-06
7.73801e-08
-1.23423e-06
1.07316e-07
-1.19661e-06
-1.06688e-06
9.34392e-08
-4.98956e-08
-1.03365e-06
2.70334e-08
-3.76173e-08
-1.21161e-06
-1.51359e-08
-1.25888e-06
-6.5145e-09
-1.25406e-06
-8.20596e-10
-1.24309e-06
5.03237e-09
-1.24295e-06
1.43538e-08
-1.25364e-06
3.77787e-08
-1.25765e-06
5.13401e-08
-1.21017e-06
-1.03679e-06
2.93052e-08
-2.06405e-08
-1.00629e-06
1.21225e-19
-1.11228e-08
-1.22113e-06
2.41612e-09