/*--------------------------------*- C++ -*----------------------------------*\
  =========                 |
  \\      /  F ield         | OpenFOAM: The Open Source CFD Toolbox
   \\    /   O peration     | Website:  https://openfoam.org
    \\  /    A nd           | Version:  8
     \\/     M anipulation  |
\*---------------------------------------------------------------------------*/
FoamFile
{
    version     2.0;
    format      ascii;
    class       volScalarField;
    location    "1.3";
    object      p;
}
// * * * * * * * * * * * * * * * * * * * * * * * * * * * * * * * * * * * * * //

dimensions      [1 -1 -2 0 0 0 0];

internalField   nonuniform List<scalar> 
9150
(
397.69
370.767
345.196
327.973
319.63
319.63
327.974
345.197
370.767
397.689
368.83
349.346
333.625
321.81
315.799
315.8
321.811
333.627
349.348
368.832
339.565
326.055
317.441
309.691
305.558
305.559
309.692
317.443
326.058
339.568
314.835
304.892
299.346
293.999
291.014
291.015
294
299.349
304.895
314.838
293.515
284.725
280.041
275.878
273.43
273.43
275.879
280.043
284.728
293.519
31.1172
26.675
51.8743
66.1478
72.6279
72.6254
66.1407
51.8635
26.6614
31.1025
201.243
176.932
171.532
170.238
170.202
170.2
170.233
171.525
176.924
201.235
305.879
274.253
258.219
248.283
243.503
243.502
248.28
258.215
274.247
305.874
386.343
343.975
316.009
298.647
290.079
290.078
298.645
316.007
343.972
386.339
435.998
383.922
345.298
323.246
313.064
313.064
323.246
345.297
383.921
435.996
-55.4514
-17.2586
-28.17
-19.1602
-23.068
-23.0691
-19.1529
-28.1556
-17.2882
-55.6956
-46.4835
-28.5945
-47.738
-40.567
-43.4121
-43.4207
-40.5703
-47.7958
-28.6565
-46.6394
-91.119
-58.6066
-88.4451
-82.5293
-78.7879
-78.7939
-82.5474
-88.4828
-58.6599
-91.2101
-269.663
-144.613
-124.657
-106.933
-91.0971
-91.102
-106.949
-124.686
-144.651
-269.721
-408.72
-175.051
-77.4672
-47.4064
-32.1488
-32.1523
-47.4173
-77.4853
-175.076
-408.756
2239.65
2257.4
2271.2
2280.99
2286.76
2288.58
2286.54
2280.62
2270.86
2257.36
2111.78
2127.89
2140.83
2150.39
2156.42
2158.66
2157.06
2151.95
2143.54
2132.08
1972.56
1985.33
1995.76
2003.6
2008.76
2011.16
2010.8
2007.76
2002.15
1994.2
1880.43
1890.92
1899.5
1906.06
1910.51
1912.83
1913
1911.05
1907.04
1901.07
1819.73
1827.93
1834.7
1839.96
1843.63
1845.68
1846.08
1844.85
1842.06
1837.75
1782.42
1788.23
1793.11
1796.98
1799.76
1801.4
1801.89
1801.23
1799.45
1796.58
1762.93
1766.09
1768.92
1771.29
1773.11
1774.31
1774.87
1774.75
1773.99
1772.59
1755.03
1755.55
1756.39
1757.34
1758.29
1759.14
1759.85
1760.39
1760.76
1761.01
1752.58
1751.05
1750.33
1750.22
1750.57
1751.29
1752.3
1753.6
1755.2
1757.17
1750.77
1748.16
1746.62
1746
1746.15
1746.98
1748.45
1750.56
1753.35
1756.89
1746.61
1744.03
1742.48
1741.91
1742.26
1743.45
1745.46
1748.33
1752.1
1756.79
1738.94
1737.29
1736.4
1736.37
1737.21
1738.89
1741.41
1744.83
1749.17
1754.33
1728.51
1728.12
1728.21
1728.92
1730.35
1732.51
1735.42
1739.12
1743.56
1748.56
1716.15
1717.02
1718.13
1719.63
1721.64
1724.22
1727.39
1731.14
1735.35
1739.92
1702.91
1704.8
1706.78
1708.95
1711.46
1714.38
1717.73
1721.44
1725.36
1729.82
1689.53
1692.02
1694.64
1697.31
1700.2
1703.37
1706.81
1710.38
1713.99
1718.71
1675.89
1678.76
1681.88
1684.97
1688.18
1691.59
1695.15
1698.68
1702.33
1708.08
1662.35
1665.34
1668.8
1672.22
1675.74
1679.47
1683.35
1687.28
1692.04
1700.73
1649.23
1651.91
1655.4
1658.92
1662.56
1666.4
1670.36
1674.41
1679.8
1690.09
1635.62
1637.89
1641.32
1644.83
1648.44
1652.19
1655.97
1659.79
1665.28
1675.52
1621.22
1623.06
1626.47
1630.04
1633.68
1637.42
1641.16
1645.21
1651.7
1662.1
1606.32
1607.64
1610.94
1614.53
1618.17
1621.85
1625.51
1629.73
1636.94
1646.49
1590.45
1591.43
1594.64
1598.25
1601.87
1605.46
1608.97
1613.14
1620.33
1627.49
1573.7
1574.43
1577.64
1581.38
1585.14
1588.85
1592.54
1597.08
1604.6
1610.22
1555.82
1556.49
1559.85
1563.88
1567.96
1572.05
1576.27
1581.66
1590.11
1595.32
1536.27
1537.3
1540.99
1545.39
1549.79
1554.15
1558.71
1564.67
1573.33
1575.55
1515.75
1517.46
1521.5
1526.22
1530.8
1535.22
1539.8
1545.8
1553.99
1553.08
1496.02
1498.14
1502.29
1507.08
1511.65
1515.94
1520.32
1526.11
1533.51
1529
1478.52
1480.23
1484.01
1488.51
1492.77
1496.69
1500.68
1506.1
1512.55
1504.53
1463.45
1463.95
1466.86
1470.76
1474.53
1478.03
1481.7
1486.95
1493.08
1483.42
1449.76
1448.61
1450.24
1453.33
1456.53
1459.63
1463.12
1468.43
1474.74
1465.46
1437.22
1433.71
1433.47
1435.39
1437.73
1440.14
1443.01
1447.6
1452.6
1441.56
1420
1415.52
1414.25
1415.5
1417.3
1419.11
1421.32
1424.99
1427.93
1412.26
1394.29
1391.79
1391.36
1393.21
1395.42
1397.5
1399.98
1404.1
1406.8
1386.42
1370.3
1368.23
1368.14
1370.47
1373.23
1375.97
1379.39
1384.96
1388.28
1363.52
1344.58
1342.94
1343.57
1346.64
1350.21
1353.84
1358.47
1365.74
1370.07
1342.26
1311.36
1313.12
1315.81
1320.49
1325.35
1330.1
1335.86
1344.36
1349.24
1320
1279.82
1284.75
1288.56
1294.19
1299.9
1305.28
1311.48
1320.15
1324.54
1295.32
1252.34
1259.79
1263.31
1268.93
1274.78
1280.1
1286.01
1294.01
1297.32
1267.44
1235.76
1243.09
1243.26
1246.77
1251.38
1255.58
1260.06
1266.08
1265.5
1226.35
1217.6
1225.34
1223.11
1225.06
1228.83
1232.33
1235.88
1240.17
1235.3
1187.3
1187.21
1199.57
1198.67
1201.83
1207.47
1213.34
1219.81
1227.94
1227.7
1183.42
1136.52
1161.12
1166.74
1174.5
1184.69
1195.3
1206.98
1221.63
1229.18
1187.65
1072.6
1115.86
1130.71
1144.39
1159.9
1175.55
1192.2
1212.33
1225.63
1183.31
993.195
1065.7
1093.34
1114.01
1135.36
1156.46
1178.47
1204.78
1225.98
1189
957.675
1041.36
1071.98
1093.37
1115.97
1139.06
1163.6
1193.4
1219.87
1186.3
983.298
1047.36
1068.99
1083.07
1101.13
1121.8
1145.21
1174.88
1202.29
1168.16
963.793
1027.16
1049.91
1061.69
1077.73
1097.12
1119.64
1148.81
1177.4
1146.18
879.015
973.723
1013.38
1027.76
1043.95
1063.38
1085.52
1114.19
1144.37
1117.29
824.518
927.226
977.477
992.526
1006.88
1024.23
1043.83
1069.14
1095.37
1063.83
794.794
886.2
940.164
955.663
967.865
982.352
998.503
1019.03
1037.92
1001.9
777.776
852.074
904.516
920.402
930.255
941.628
954.382
970.336
983.341
947.938
771.46
829.798
875.491
889.042
895.751
903.722
913.062
924.951
933.972
903.882
766.55
812.676
849.846
859.471
862.769
867.285
873.134
881.01
886.349
861.839
762.684
798.8
826.574
831.2
830.81
831.779
834.083
837.896
839.561
821.29
757.523
784.306
802.533
802.127
798.238
795.728
794.251
793.509
791.635
782.239
749.868
768.111
776.701
771.427
764.315
758.297
752.552
746.297
740.829
742.163
739.67
749.787
749.387
739.771
729.638
720.198
709.966
697.999
690.393
703.395
730.71
730.246
720.464
707.415
695.191
683.244
669.698
654.615
652.938
684.876
730.629
710.341
689.184
673.759
660.289
646.492
630.242
614.088
626.132
682.73
725.452
682.444
652.668
636.727
622.757
607.257
588.102
570.816
598.025
674.46
704.313
645.196
611.939
596.725
582.63
565.668
543.46
526.267
569.076
658.26
674.641
602.363
568.92
555.583
542.067
524.343
500.876
489.157
556.425
653.582
638.269
551.964
521.812
512.184
500.17
482.083
457.76
453.873
545.432
647.191
601.165
506.921
479.503
472.109
460.87
442.724
418.265
421.316
532.872
639.823
551.6
461.459
438.72
433.354
423.704
407.255
385.153
396.239
525.86
642.6
509.784
417.581
397.663
393.912
385.661
370.85
350.144
361.268
491.165
617.479
494.908
388.21
363.118
357.358
348.897
335.502
316.557
321.074
427.639
554.974
411.995
319.043
304.99
306.76
305.131
299.428
289.031
291.204
362.874
472.443
292.257
229.903
233.71
247.195
254.825
256.937
252.364
246.178
272.527
344.877
137.512
128.253
161.274
191.999
212.675
225.015
228.005
218.46
210.899
249.273
-34.9407
18.6275
94.8572
153.057
193.305
221.634
239.876
245.183
243.492
282.927
33.7572
60.6984
122.004
179.508
221.964
253.824
278.024
294.23
308.56
358.362
238.342
204.906
220.322
254.489
283.617
307.371
327.902
346.44
369.779
417.263
383.887
321.834
310.526
325.927
341.521
354.825
367.252
380.121
398.932
431.697
476.094
408.501
383.716
383.473
385.955
387.851
389.14
388.849
389.761
404.046
503.001
451.563
426.417
418.355
413.617
409.111
403.84
395.624
387.255
402.243
485.586
460.838
442.083
432.388
425.508
418.933
411.423
401.213
391.359
403.141
438.651
437.908
432.691
428.182
423.668
418.319
411.363
401.738
392.238
399.498
422.718
423.107
422.418
420.469
417.277
412.673
406.198
397.095
386.904
387.899
405.526
409.344
410.176
409.562
407.531
403.788
398.012
389.485
378.187
372.487
379.953
389.421
394.201
395.72
395.251
392.811
388.234
380.832
369.709
360.869
352.738
366.284
376.419
380.669
381.866
380.746
377.381
371.297
361.334
352.078
335.241
346.693
360.236
366.51
368.527
367.874
364.748
358.654
348.097
337.173
328.084
334.706
347.186
353.55
355.431
354.335
350.416
342.7
329.37
315.236
319.137
327.136
336.105
341.186
342.779
341.339
336.853
328.462
314.763
299.054
287.925
307.562
318.852
325.447
328.313
327.677
323.543
315.668
302.886
283.615
283.2
299.621
308.422
313.806
316.283
315.88
312.643
306.724
297.915
283.118
284.908
293.257
298.12
301.67
303.384
302.964
300.421
296.018
290.412
281.037
278.654
280.893
282.712
284.987
286.206
285.792
283.757
280.693
278.108
274.41
263.789
262.258
261.339
262.82
264.029
263.829
262.255
260.466
261.097
262.199
228.11
231.835
230.887
232.618
234.4
234.587
233.248
232.152
234.136
232.18
169.711
187.243
189.814
192.545
194.648
195.075
193.879
192.228
191.079
175.31
106.97
135.91
142.335
145.489
147.015
147.515
146.995
144.92
139.685
111.477
53.9965
84.9895
94.6165
98.0911
99.6233
100.074
99.434
96.8662
88.1352
57.1265
19.2457
43.549
54.9037
58.0412
60.0991
60.4238
58.991
56.4399
45.612
20.9105
0.0688003
14.0312
25.5177
27.9374
30.1271
30.3109
28.4441
26.3528
15.1231
0.772292
-9.13538
-4.44336
5.32006
7.56559
9.37404
9.44486
7.78245
5.63736
-4.01646
-8.88917
-14.1167
-8.29307
-5.10204
-3.42348
-3.51198
-3.47844
-3.37142
-4.96857
-8.20589
-14.2037
-26.9243
0.886653
-9.96931
-9.90681
-12.6401
-12.6262
-9.88772
-9.83378
1.00437
-27.2296
2239.18
2215.94
2189.03
2158.87
2126.03
2091.16
2055
2018.31
1981.89
1946.55
1913.05
1882.08
1854.27
1830.16
1809.47
1791.95
1777.37
1765.68
1756.82
1750.57
1746.69
1744.87
1744.85
1746.33
1749.06
1752.79
1757.29
1762.35
1767.78
1773.41
1779.08
1784.64
1789.96
1794.91
1799.47
1804.25
1810.75
1812.78
1814.06
1814.98
2116.91
2097.09
2074.2
2048.81
2021.5
1992.88
1963.62
1934.43
1905.96
1878.85
1853.62
1830.64
1810.1
1792.12
1777.76
1766.32
1757.55
1751.23
1747.08
1744.84
1744.22
1745
1746.95
1749.85
1753.51
1757.76
1762.42
1767.33
1772.33
1777.26
1781.97
1786.28
1790.01
1792.96
1795.03
1796.55
1797.74
1798.93
1800.1
1803.18
1983.44
1969.08
1952.39
1933.92
1914.22
1893.8
1873.25
1853.12
1833.92
1816.1
1800
1785.86
1773.78
1763.81
1755.99
1750.09
1745.92
1743.3
1742.04
1741.98
1742.95
1744.78
1747.33
1750.45
1753.99
1757.83
1761.84
1765.88
1769.81
1773.5
1776.79
1779.52
1781.54
1782.7
1782.98
1782.59
1782.09
1783.74
1789.25
1798.04
1892.69
1881.79
1869.22
1855.34
1840.58
1825.36
1810.12
1795.26
1781.17
1768.22
1756.75
1746.99
1739.05
1732.89
1728.43
1725.51
1723.97
1723.61
1724.26
1725.77
1727.99
1730.77
1733.95
1737.42
1741.05
1744.73
1748.36
1751.83
1755.04
1757.88
1760.25
1762.06
1763.28
1763.93
1764.21
1764.6
1766.32
1771.87
1783.11
1795.73
1831.58
1823.43
1813.95
1803.4
1792.07
1780.2
1768.01
1755.7
1743.61
1732.3
1722.28
1713.89
1707.28
1702.43
1699.26
1697.55
1697.19
1698.03
1699.87
1702.49
1705.7
1709.3
1713.12
1717.04
1720.94
1724.71
1728.28
1731.55
1734.46
1736.95
1738.97
1740.52
1741.66
1742.54
1743.5
1745.15
1748.84
1757.13
1771.51
1787.65
1792.37
1786.66
1779.93
1772.32
1763.89
1754.66
1744.67
1734.18
1723.45
1712.71
1701.2
1689.14
1679.13
1673.35
1671.03
1669.79
1668.63
1668.57
1670.28
1673.57
1677.79
1682.44
1687.21
1691.93
1696.46
1700.7
1704.59
1708.07
1711.1
1713.68
1715.81
1717.56
1719.07
1720.56
1722.44
1725.34
1730.55
1740.42
1755.84
1771.76
1770.41
1767.35
1763.74
1759.6
1754.96
1750.22
1746.46
1743.33
1734.11
1709.83
1667.98
1618.89
1587.11
1584.06
1598.33
1618.11
1630.43
1633.71
1635.09
1638.97
1644.67
1651.01
1657.37
1663.45
1669.13
1674.31
1678.95
1683.04
1686.59
1689.63
1692.22
1694.46
1696.55
1698.74
1701.44
1705.22
1711.21
1721.34
1736.02
1749.54
1761.14
1761.19
1761.33
1761.77
1763.47
1768.95
1777.76
1770.38
1707.76
1594.85
1519.06
1496.76
1489.47
1489.69
1493.34
1509.18
1538.62
1565.15
1581.81
1593.35
1604.21
1614.56
1624.05
1632.57
1640.14
1646.82
1652.66
1657.74
1662.11
1665.87
1669.12
1672
1674.7
1677.49
1680.72
1684.88
1690.87
1700.15
1712.88
1724.36
1759.65
1762.79
1766.74
1772.81
1784.64
1801.61
1790.06
1688.22
1549.87
1486.8
1477.55
1475.32
1475.05
1475.04
1475.57
1476.58
1482.58
1495.96
1519.99
1543.1
1561.59
1576.96
1590.12
1601.46
1611.24
1619.66
1626.9
1633.12
1638.45
1643.03
1647.01
1650.52
1653.77
1656.99
1660.46
1664.57
1669.97
1677.73
1687.85
1697.66
1761.37
1767.07
1774.93
1789.01
1810.87
1805.92
1692.23
1531.34
1477.83
1475.5
1474.81
1474.52
1474.42
1474.43
1474.55
1474.74
1474.75
1472.11
1474.36
1496.98
1522.07
1542.39
1558.74
1572.44
1584.11
1594.08
1602.59
1609.86
1616.09
1621.44
1626.06
1630.1
1633.75
1637.19
1640.64
1644.36
1648.81
1654.67
1661.92
1669.23
1762.6
1770.37
1783.28
1805.86
1816.49
1722.45
1544.52
1477.06
1474.29
1474.25
1474.5
1474.52
1474.48
1474.47
1474.52
1474.57
1474.46
1473.59
1456.36
1463.25
1489.48
1513.4
1531.95
1547.09
1559.94
1570.92
1580.3
1588.33
1595.22
1601.12
1606.21
1610.61
1614.46
1617.91
1621.1
1624.21
1627.48
1631.32
1635.67
1640.45
1760.62
1770.33
1788.51
1808.63
1757.52
1583.43
1478.96
1474.28
1473.73
1473.95
1474.07
1474.07
1474.07
1474.11
1474.19
1474.28
1474.11
1471.84
1448.58
1446.8
1470.01
1493.31
1511.56
1526.57
1539.47
1550.64
1560.29
1568.61
1575.79
1581.96
1587.26
1591.79
1595.64
1598.91
1601.68
1604.02
1606.06
1607.93
1609.61
1612.27
1754.94
1766.71
1785.91
1778.76
1653.66
1501.92
1474.05
1472.98
1473.18
1473.38
1473.46
1473.51
1473.57
1473.64
1473.74
1473.83
1473.54
1466.98
1440.75
1440.41
1460.77
1480.58
1496.6
1510.27
1522.33
1532.97
1542.31
1550.46
1557.56
1563.69
1568.94
1573.37
1577.03
1579.95
1582.16
1583.65
1584.43
1584.42
1583.65
1583.03
1746.64
1760.39
1772.77
1713.03
1552.27
1475.65
1472.57
1472.42
1472.68
1472.8
1472.87
1472.94
1473.04
1473.16
1473.34
1473.46
1472.99
1456.98
1433.18
1438.31
1455.86
1471.66
1484.95
1496.8
1507.55
1517.21
1525.83
1533.47
1540.18
1546
1550.98
1555.12
1558.43
1560.89
1562.47
1563.12
1562.73
1561.09
1558.35
1555.82
1737.71
1751.79
1744.63
1634.9
1498.28
1473.01
1471.99
1472.09
1472.17
1472.17
1472.2
1472.28
1472.41
1472.59
1472.81
1472.9
1467.72
1443.15
1430.63
1439.86
1453.1
1464.78
1475.3
1485.14
1494.3
1502.72
1510.36
1517.22
1523.31
1528.62
1533.14
1536.85
1539.69
1541.62
1542.56
1542.41
1540.96
1537.94
1533.6
1529.85
1728.14
1738.02
1693.47
1553.27
1472.84
1470.73
1471.78
1471.99
1471.64
1471.43
1471.38
1471.45
1471.61
1471.87
1472.05
1471.34
1455.31
1432.77
1430.84
1439.99
1449.4
1457.95
1466.17
1474.14
1481.73
1488.83
1495.38
1501.35
1506.68
1511.34
1515.29
1518.46
1520.77
1522.14
1522.46
1521.57
1519.21
1515
1509.41
1504.89
1718.64
1718.17
1636.85
1505.39
1468.24
1468.29
1471.11
1471.19
1470.57
1470.26
1470.21
1470.34
1470.65
1471.08
1471.1
1464.08
1440.3
1427.31
1431.13
1438.01
1444.38
1450.61
1456.93
1463.21
1469.31
1475.12
1480.56
1485.58
1490.09
1494.03
1497.35
1499.94
1501.72
1502.58
1502.38
1500.96
1498
1493.04
1486.56
1483.72
1712.96
1692.12
1581.71
1485.07
1464.86
1464.56
1467.45
1468.41
1468.36
1468.27
1468.34
1468.56
1468.93
1469.54
1467.93
1450.28
1428.97
1425.06
1429.26
1433.72
1437.96
1442.44
1447.15
1451.94
1456.69
1461.29
1465.67
1469.73
1473.41
1476.62
1479.28
1481.31
1482.59
1483
1482.43
1480.71
1477.54
1472.39
1465.7
1463.4
1700.79
1660.18
1542.49
1478.68
1466.77
1463.05
1462.72
1464.44
1465.45
1465.79
1466.09
1466.51
1466.93
1466.45
1458.67
1435.54
1421.98
1422.46
1425.18
1427.65
1430.3
1433.35
1436.68
1440.17
1443.7
1447.19
1450.55
1453.7
1456.56
1459.05
1461.07
1462.53
1463.33
1463.34
1462.44
1460.5
1457.22
1452.04
1445.33
1442.32
1680.75
1620.52
1506.22
1468.83
1464.92
1462.64
1461.26
1461.73
1462.77
1463.35
1463.72
1464.11
1464.78
1462.77
1444.87
1423.24
1417.2
1418
1419.04
1420.05
1421.46
1423.3
1425.44
1427.79
1430.24
1432.73
1435.16
1437.45
1439.53
1441.31
1442.71
1443.63
1443.96
1443.59
1442.41
1440.28
1436.93
1431.82
1425.28
1422.49
1656.48
1576.41
1479.58
1461.78
1461.41
1461.6
1461.25
1460.99
1461.2
1461.48
1461.83
1462.11
1461.38
1453.81
1430.08
1414.26
1411.82
1411.61
1411.24
1411.13
1411.52
1412.33
1413.45
1414.8
1416.3
1417.88
1419.46
1420.96
1422.31
1423.44
1424.24
1424.64
1424.52
1423.79
1422.32
1420
1416.57
1411.59
1405.4
1402.22
1629.34
1536.39
1456.26
1449.29
1455.77
1460.71
1461.73
1460.45
1459.63
1459.52
1459.93
1460.66
1458.73
1439.66
1414.84
1406.07
1404.56
1403.29
1401.94
1401
1400.55
1400.48
1400.73
1401.22
1401.89
1402.66
1403.48
1404.27
1404.95
1405.47
1405.73
1405.64
1405.12
1404.05
1402.33
1399.84
1396.36
1391.5
1385.65
1380.73
1599.25
1502.85
1440.35
1438.75
1449.79
1459.06
1459.47
1456.97
1456.01
1456.14
1456.9
1456.9
1449.08
1421.7
1402.03
1397.6
1395.76
1393.54
1391.45
1389.84
1388.66
1387.85
1387.35
1387.1
1387.04
1387.11
1387.25
1387.4
1387.5
1387.47
1387.24
1386.73
1385.84
1384.5
1382.59
1380.02
1376.58
1371.96
1366.47
1362.11
1576.96
1490.06
1445.4
1438.83
1445.69
1450.68
1450.86
1449.73
1449.55
1450.16
1451.78
1450.67
1432.11
1403.26
1391.35
1388.35
1385.66
1382.67
1379.99
1377.78
1375.98
1374.54
1373.39
1372.49
1371.8
1371.26
1370.82
1370.41
1369.99
1369.49
1368.83
1367.96
1366.78
1365.21
1363.18
1360.59
1357.26
1352.95
1347.96
1344.11
1561.19
1485.32
1451.94
1439.37
1439.35
1439.96
1439.42
1440.46
1441.12
1441.69
1442.63
1438.91
1413.65
1389.35
1381.77
1378.27
1374.56
1370.89
1367.69
1364.95
1362.6
1360.6
1358.9
1357.46
1356.23
1355.17
1354.22
1353.34
1352.47
1351.56
1350.55
1349.36
1347.94
1346.21
1344.1
1341.54
1338.37
1334.4
1329.93
1326.53
1537.15
1468.87
1444.01
1434.45
1432.91
1431.53
1430.53
1431.96
1433.13
1433.99
1432.59
1420.61
1391.99
1375.71
1370.48
1366.43
1362.1
1358.04
1354.46
1351.3
1348.52
1346.08
1343.93
1342.03
1340.36
1338.86
1337.49
1336.2
1334.96
1333.72
1332.4
1330.97
1329.36
1327.51
1325.36
1322.85
1319.86
1316.22
1312.27
1309.26
1510.9
1447.88
1429.41
1424.88
1423.87
1423.1
1422.89
1423.93
1424.96
1426.91
1424.65
1401.69
1372.94
1362.32
1357.89
1353.33
1348.61
1344.28
1340.4
1336.93
1333.81
1331.01
1328.5
1326.24
1324.2
1322.35
1320.64
1319.03
1317.49
1315.96
1314.41
1312.79
1311.03
1309.1
1306.93
1304.49
1301.67
1298.35
1294.82
1292.18
1482.79
1425.16
1415.26
1416.32
1413.3
1413.04
1414.22
1414.95
1415.35
1416.05
1410.26
1381.01
1357.12
1349.18
1344.37
1339.25
1334.24
1329.69
1325.58
1321.86
1318.48
1315.42
1312.63
1310.1
1307.79
1305.66
1303.68
1301.82
1300.04
1298.3
1296.57
1294.8
1292.94
1290.95
1288.79
1286.42
1283.77
1280.71
1277.52
1275.26
1454.29
1399.3
1393.69
1400.74
1399.85
1403.77
1406.76
1406.9
1406.86
1406
1390.94
1357.03
1339.8
1334.05
1329.16
1323.85
1318.78
1314.17
1309.95
1306.09
1302.55
1299.31
1296.34
1293.62
1291.1
1288.78
1286.61
1284.56
1282.61
1280.72
1278.86
1276.98
1275.05
1273.04
1270.91
1268.63
1266.13
1263.33
1260.47
1258.59
1431.67
1376.83
1363.73
1376.21
1386.02
1394.4
1398.78
1398.35
1399.17
1397.98
1367.88
1332.4
1321.33
1317.32
1312.59
1307.36
1302.4
1297.82
1293.59
1289.66
1286.04
1282.71
1279.63
1276.78
1274.15
1271.69
1269.4
1267.23
1265.17
1263.18
1261.24
1259.3
1257.34
1255.33
1253.24
1251.04
1248.68
1246.1
1243.51
1241.73
1418.39
1369.66
1345.38
1354.74
1371.65
1379.11
1381.65
1381.75
1385.43
1378.76
1340.47
1312.1
1304.6
1300.54
1295.52
1290.28
1285.36
1280.8
1276.57
1272.63
1268.98
1265.61
1262.49
1259.59
1256.9
1254.38
1252.03
1249.81
1247.69
1245.66
1243.67
1241.72
1239.75
1237.76
1235.71
1233.59
1231.34
1228.93
1226.56
1224.87
1398.99
1361.52
1339.19
1341.71
1352.1
1354.76
1355.65
1356.95
1356.55
1346.19
1313.24
1294.55
1288.23
1283.23
1277.79
1272.5
1267.61
1263.09
1258.89
1254.99
1251.38
1248.03
1244.92
1242.03
1239.34
1236.83
1234.47
1232.25
1230.13
1228.1
1226.12
1224.18
1222.24
1220.28
1218.29
1216.24
1214.08
1211.81
1209.59
1207.99
1367.21
1335.68
1319.33
1318.9
1330.55
1335.75
1335.74
1337.26
1335.98
1317.12
1286.69
1274.38
1269.34
1264.24
1258.85
1253.73
1249
1244.6
1240.52
1236.73
1233.21
1229.96
1226.93
1224.12
1221.49
1219.04
1216.73
1214.55
1212.48
1210.49
1208.56
1206.66
1204.77
1202.86
1200.92
1198.94
1196.86
1194.66
1192.52
1190.97
1334.06
1302.67
1288.66
1285.21
1300.79
1315.17
1317.97
1320.54
1317.98
1288.05
1260.81
1252.89
1248.94
1244.11
1238.97
1234.11
1229.59
1225.39
1221.49
1217.87
1214.53
1211.43
1208.55
1205.87
1203.37
1201.03
1198.82
1196.74
1194.75
1192.83
1190.97
1189.14
1187.31
1185.47
1183.6
1181.67
1179.66
1177.49
1175.36
1173.87
1303.25
1270.25
1259.4
1253.8
1264.81
1286.09
1293.07
1296.16
1289.22
1258.6
1239.44
1233.32
1228.86
1223.75
1218.64
1213.91
1209.55
1205.55
1201.86
1198.47
1195.36
1192.48
1189.81
1187.34
1185.03
1182.86
1180.8
1178.85
1176.97
1175.16
1173.39
1171.64
1169.89
1168.12
1166.3
1164.43
1162.45
1160.31
1158.19
1156.72
1275.99
1242.04
1235.14
1227.48
1227.7
1241.49
1251.05
1256.75
1256.51
1237.34
1222.77
1214.93
1208.76
1202.98
1197.7
1192.99
1188.78
1185
1181.58
1178.49
1175.68
1173.1
1170.73
1168.54
1166.49
1164.55
1162.7
1160.92
1159.2
1157.52
1155.86
1154.21
1152.53
1150.82
1149.06
1147.22
1145.27
1143.13
1141
1139.55
1252.21
1219.26
1214.86
1207.88
1201.26
1196.07
1195.99
1206.48
1221.5
1214.98
1202.25
1193.07
1186.16
1180.29
1175.18
1170.74
1166.87
1163.48
1160.49
1157.83
1155.43
1153.26
1151.28
1149.45
1147.73
1146.1
1144.52
1142.97
1141.45
1139.93
1138.4
1136.85
1135.26
1133.61
1131.89
1130.08
1128.13
1125.99
1123.84
1122.36
1230.92
1200.78
1197.29
1195.46
1193.57
1180.97
1162.92
1170.97
1186.46
1183.36
1173.65
1166.03
1160.04
1154.93
1150.52
1146.76
1143.57
1140.83
1138.46
1136.39
1134.56
1132.92
1131.43
1130.05
1128.75
1127.48
1126.23
1124.97
1123.68
1122.36
1120.99
1119.56
1118.06
1116.47
1114.79
1113
1111.06
1108.9
1106.7
1105.19
1204.39
1176.86
1176.4
1179.7
1180.23
1178.57
1173.66
1173.97
1168.15
1153.49
1143.61
1137.21
1131.99
1127.6
1124.02
1121.16
1118.86
1117.01
1115.48
1114.19
1113.08
1112.1
1111.21
1110.37
1109.55
1108.72
1107.84
1106.91
1105.9
1104.8
1103.61
1102.32
1100.92
1099.4
1097.76
1095.99
1094.05
1091.86
1089.62
1088.07
1152.83
1123.44
1144.06
1161.49
1165.55
1183.49
1206.11
1199.51
1162.99
1126.67
1112.53
1106.31
1101.63
1098
1095.49
1093.82
1092.73
1092.03
1091.58
1091.28
1091.06
1090.88
1090.7
1090.49
1090.22
1089.87
1089.42
1088.85
1088.13
1087.28
1086.28
1085.13
1083.84
1082.39
1080.8
1079.05
1077.1
1074.9
1072.62
1071.01
1104.4
1071.52
1100.19
1145.61
1171.56
1194.65
1221.09
1197.78
1130.01
1078.75
1067.79
1066.62
1065.29
1064.21
1063.96
1064.34
1065.07
1065.97
1066.93
1067.87
1068.73
1069.48
1070.1
1070.58
1070.91
1071.07
1071.05
1070.85
1070.44
1069.83
1069.02
1068.02
1066.83
1065.46
1063.91
1062.19
1060.26
1058.04
1055.73
1054.09
1101.33
1066.15
1075.75
1122.62
1159.84
1181.16
1202.98
1158.71
1062.28
1005.39
1007.44
1017.53
1023.08
1026.64
1029.97
1033.26
1036.4
1039.32
1041.99
1044.37
1046.45
1048.24
1049.72
1050.92
1051.83
1052.49
1052.88
1053.02
1052.89
1052.51
1051.89
1051.02
1049.93
1048.63
1047.12
1045.43
1043.52
1041.3
1038.98
1037.33
1099.84
1065.98
1065.03
1080.69
1087.79
1095.64
1114.51
1103.48
1019.23
955.884
958.369
973.208
983.173
990.31
996.693
1002.66
1008.15
1013.11
1017.53
1021.42
1024.78
1027.62
1029.96
1031.85
1033.31
1034.4
1035.13
1035.54
1035.63
1035.43
1034.94
1034.18
1033.17
1031.92
1030.46
1028.81
1026.91
1024.71
1022.38
1020.74
1083.79
1047.55
1047.98
1052.57
1020.56
965.609
984.747
1023.39
983.493
929.925
923.886
936.057
947.277
956.631
965.333
973.571
981.189
988.088
994.23
999.6
1004.21
1008.07
1011.23
1013.75
1015.69
1017.12
1018.09
1018.66
1018.87
1018.74
1018.32
1017.6
1016.63
1015.41
1013.97
1012.33
1010.45
1008.26
1005.95
1004.32
1083.7
1042.06
1051.87
1065.83
999.735
861.223
847.625
900.302
901.15
876.979
877.446
893.513
909.15
922.492
934.523
945.572
955.617
964.611
972.543
979.408
985.222
990.026
993.895
996.922
999.207
1000.84
1001.92
1002.53
1002.73
1002.58
1002.12
1001.37
1000.37
999.131
997.683
996.037
994.161
991.982
989.687
988.068
1075.48
1027.28
1035.52
1017.8
929.168
830.017
789.103
810.117
821.115
812.243
824.891
849.799
871.926
890.09
905.84
919.897
932.463
943.597
953.328
961.653
968.573
974.143
978.487
981.769
984.154
985.785
986.787
987.268
987.322
987.02
986.412
985.545
984.446
983.136
981.637
979.958
978.063
975.88
973.593
971.988
1049.41
988.325
966.059
908.744
856.655
823.954
805.995
801.694
803.319
787.257
792.972
818.768
843.868
864.618
882.617
898.803
913.391
926.416
937.83
947.523
955.383
961.424
965.842
968.94
971.004
972.264
972.887
973.004
972.717
972.108
971.241
970.158
968.887
967.446
965.851
964.104
962.165
959.957
957.66
956.059
1023.23
944.489
887.257
830.62
812.567
808.031
802.198
794.793
794.612
779.021
774.257
795.563
822.202
844.832
864.391
882.213
898.678
913.753
927.13
938.354
947.013
953.09
956.961
959.19
960.285
960.613
960.41
959.823
958.95
957.858
956.595
955.195
953.678
952.05
950.318
948.471
946.462
944.205
941.876
940.26
988.693
887.377
831.709
800.151
792.833
792.436
790.462
787.621
783.539
776.651
765.968
778.018
805.294
830.737
851.779
870.956
889.599
907.854
924.611
938.16
946.875
951.19
952.759
952.855
952.079
950.792
949.243
947.578
945.86
944.113
942.343
940.553
938.739
936.889
934.993
933.024
930.928
928.604
926.217
924.566
928.257
822.33
797.456
789.842
786.095
783.748
781.998
780.421
779.36
778.109
766.68
763.195
785.197
814.071
838.235
860.476
881.898
904.375
929.512
953.78
967.076
965.632
958.134
951.625
946.727
942.679
939.123
935.968
933.157
930.612
928.26
926.044
923.916
921.838
919.775
917.691
915.508
913.112
910.655
908.954
878.111
797.672
787.724
788.32
780.231
776.086
775.01
774.441
773.779
772.295
770.002
762.611
765.263
775.493
794.694
818.609
835.19
845.253
866.019
914.16
966.663
982.237
969.819
953.13
941.637
934.024
928.347
923.773
919.968
916.726
913.886
911.323
908.95
906.699
904.516
902.35
900.11
897.677
895.151
893.404
848.4
794.928
785.751
780.634
770.413
768.527
768.536
768.517
768.106
767.178
765.593
763.394
758.943
756.357
758.223
762.092
765.383
768.536
775.97
791.367
843.767
908.206
941.321
938.598
927.162
918.822
913.14
908.662
904.847
901.526
898.593
895.949
893.512
891.218
889.011
886.84
884.61
882.189
879.657
877.901
827.772
790.521
781.238
771.643
763.536
763.347
763.75
763.847
763.534
762.817
761.661
760.338
759.191
757.908
756.145
754.43
754.232
755.491
757.487
760.186
765.229
801.241
867.427
906.656
907.86
900.398
895.018
891.238
887.993
885.017
882.285
879.773
877.434
875.223
873.097
871.014
868.883
866.567
864.135
862.441
805.486
780.213
772.917
764.256
759.333
759.903
760.386
760.526
760.346
759.869
759.097
758.156
757.283
756.427
755.644
755.04
754.75
754.886
755.323
755.847
756.653
759.697
793.043
853.464
882.57
881.201
875.907
872.476
869.871
867.415
865.038
862.78
860.65
858.613
856.662
854.761
852.837
850.745
848.562
847.102
784.991
770.3
764.778
758.475
756.462
757.458
757.989
758.18
758.144
757.911
757.493
756.941
756.35
755.803
755.364
755.065
754.914
754.947
755.114
755.254
755.322
755.852
760.008
796.793
845.963
859.672
856.48
853.096
850.929
848.991
847.016
845.063
843.177
841.371
839.666
838.029
836.421
834.713
832.959
831.85
768.119
762.57
758.263
754.824
754.726
755.823
756.36
756.581
756.637
756.555
756.356
756.068
755.736
755.404
755.118
754.906
754.788
754.778
754.845
754.901
754.88
754.902
755.658
766.254
806.696
834.978
837.027
833.921
831.799
830.16
828.488
826.78
825.116
823.551
822.114
820.799
819.591
818.409
817.248
816.555
749.767
753.859
755.092
754.33
754.383
755.055
755.433
755.607
755.661
755.631
755.531
755.379
755.198
755.009
754.836
754.697
754.602
754.556
754.548
754.543
754.49
754.349
754.365
756.354
778.837
809.768
817.491
815.137
812.863
811.252
809.702
808.127
806.619
805.252
804.073
803.107
802.362
801.818
801.406
801.264
728.08
744.151
754.162
755.334
755.026
754.996
755.037
755.057
755.04
754.992
754.918
754.824
754.717
754.607
754.504
754.415
754.345
754.294
754.256
754.216
754.14
753.999
753.992
754.705
765.318
788.088
797.933
796.552
794.232
792.469
790.85
789.269
787.816
786.583
785.634
785.014
784.767
784.933
785.386
785.9
715.656
731.404
748.337
755.505
755.287
754.902
754.701
754.598
754.526
754.461
754.397
754.333
754.269
754.206
754.146
754.093
754.048
754.01
753.977
753.944
753.897
753.833
753.841
754.153
759.284
772.602
779.907
778.661
776.172
774.05
772.135
770.37
768.846
767.659
766.884
766.583
766.836
767.745
769.125
770.345
717.008
725.294
738.328
753.624
754.443
754.245
754.059
753.985
753.947
753.915
753.885
753.857
753.83
753.804
753.778
753.753
753.729
753.706
753.683
753.659
753.631
753.6
753.582
753.642
756.118
761.798
764.237
761.887
758.831
756.095
753.66
751.533
749.802
748.562
747.892
747.857
748.581
750.217
752.527
754.466
707.844
714.751
731.474
752.418
753.694
753.557
753.396
753.36
753.368
753.378
753.388
753.398
753.406
753.411
753.413
753.411
753.405
753.396
753.383
753.365
753.345
753.323
753.283
753.164
753.574
752.516
749.883
745.924
742.02
738.481
735.37
732.751
730.708
729.324
728.678
728.85
729.983
732.285
735.47
738.101
678.295
696.442
731.755
751.149
752.945
752.852
752.72
752.744
752.809
752.869
752.921
752.968
753.008
753.04
753.065
753.082
753.093
753.098
753.098
753.095
753.098
753.125
753.14
752.844
750.001
742.558
735.744
730.335
725.453
721
717.132
713.947
711.519
709.921
709.23
709.528
710.985
713.854
717.803
721.026
642.194
659.346
737.081
750.001
752.145
752.107
752.058
752.164
752.295
752.406
752.499
752.578
752.644
752.696
752.737
752.767
752.787
752.798
752.803
752.803
752.802
752.839
752.959
752.481
743.946
730.791
721.499
714.857
708.857
703.425
698.772
694.99
692.135
690.271
689.47
689.821
691.489
694.796
699.351
702.972
604.008
608.951
740.449
749.567
751.404
751.42
751.492
751.683
751.866
752.019
752.141
752.241
752.323
752.387
752.437
752.473
752.494
752.503
752.501
752.485
752.456
752.396
752.273
748.977
733.216
716.892
706.78
698.969
691.809
685.438
680.043
675.681
672.391
670.231
669.267
669.585
671.369
674.966
679.964
683.958
570.375