/*--------------------------------*- C++ -*----------------------------------*\
  =========                 |
  \\      /  F ield         | OpenFOAM: The Open Source CFD Toolbox
   \\    /   O peration     | Website:  https://openfoam.org
    \\  /    A nd           | Version:  8
     \\/     M anipulation  |
\*---------------------------------------------------------------------------*/
FoamFile
{
    version     2.0;
    format      ascii;
    class       surfaceScalarField;
    location    "2";
    object      phi;
}
// * * * * * * * * * * * * * * * * * * * * * * * * * * * * * * * * * * * * * //

dimensions      [0 3 -1 0 0 0 0];

internalField   nonuniform List<scalar> 
18095
(
1.58243e-07
-9.65661e-07
8.07419e-07
1.65308e-07
-1.24816e-06
1.24109e-06
1.22188e-07
-1.24221e-06
1.28533e-06
6.53479e-08
-1.26346e-06
1.3203e-06
3.00968e-11
-1.28047e-06
1.34579e-06
-6.52934e-08
-1.28048e-06
1.3458e-06
-1.22147e-07
-1.26347e-06
1.32032e-06
-1.65282e-07
-1.24222e-06
1.28536e-06
-1.58233e-07
-1.24817e-06
1.24112e-06
-9.65693e-07
8.0746e-07
1.11047e-07
-1.07671e-06
9.93937e-08
-1.23651e-06
7.28502e-08
-1.21567e-06
4.00519e-08
-1.23066e-06
1.86818e-11
-1.24044e-06
-4.00172e-08
-1.24044e-06
-7.28225e-08
-1.23067e-06
-9.9372e-08
-1.21567e-06
-1.11035e-07
-1.23651e-06
-1.07673e-06
6.71319e-08
-1.14384e-06
5.27182e-08
-1.22209e-06
4.21163e-08
-1.20506e-06
2.3859e-08
-1.2124e-06
1.02177e-11
-1.21659e-06
-2.38398e-08
-1.21659e-06
-4.21005e-08
-1.21241e-06
-5.27052e-08
-1.20507e-06
-6.7121e-08
-1.22209e-06
-1.14385e-06
3.95836e-08
-1.18342e-06
2.6604e-08
-1.20911e-06
2.20034e-08
-1.20046e-06
1.25216e-08
-1.20292e-06
4.47278e-12
-1.20408e-06
-1.25129e-08
-1.20408e-06
-2.1996e-08
-1.20292e-06
-2.65981e-08
-1.20046e-06
-3.95769e-08
-1.20911e-06
-1.18343e-06
1.65761e-08
7.46249e-09
6.99809e-09
4.07647e-09
1.00592e-12
-4.07467e-09
-6.9969e-09
-7.46193e-09
-1.6574e-08
-1.74454e-07
-1.16399e-06
1.33845e-06
-2.18401e-07
-1.21615e-06
1.2601e-06
-1.64739e-07
-1.21263e-06
1.15897e-06
-8.68666e-08
-1.20405e-06
1.12618e-06
3.09815e-10
-1.2027e-06
1.11552e-06
8.74766e-08
-1.20275e-06
1.11558e-06
1.65285e-07
-1.20418e-06
1.12637e-06
2.18907e-07
-1.21281e-06
1.15919e-06
1.74945e-07
-1.21642e-06
1.26038e-06
-1.1643e-06
1.33925e-06
-9.31799e-08
-1.07081e-06
-9.56861e-08
-1.21365e-06
-7.91462e-08
-1.22917e-06
-4.40599e-08
-1.23914e-06
1.77746e-10
-1.24694e-06
4.44012e-08
-1.24697e-06
7.94525e-08
-1.23923e-06
9.59424e-08
-1.2293e-06
9.33273e-08
-1.2138e-06
-1.07098e-06
-5.79204e-08
-1.01289e-06
-5.51053e-08
-1.21646e-06
-4.63952e-08
-1.23788e-06
-2.69968e-08
-1.25854e-06
1.09661e-10
-1.27404e-06
2.72058e-08
-1.27407e-06
4.65756e-08
-1.2586e-06
5.52382e-08
-1.23797e-06
5.79855e-08
-1.21655e-06
-1.01299e-06
-7.45706e-08
-9.38322e-07
-6.17365e-08
-1.2293e-06
-4.84241e-08
-1.25119e-06
-2.76612e-08
-1.2793e-06
6.97893e-11
-1.30177e-06
2.77934e-08
-1.30179e-06
4.85348e-08
-1.27934e-06
6.18115e-08
-1.25124e-06
7.46052e-08
-1.22935e-06
-9.38387e-07
-1.30903e-07
-1.19105e-07
-8.49686e-08
-4.39698e-08
4.57117e-11
4.4056e-08
8.50394e-08
1.19153e-07
1.30927e-07
-3.28527e-08
-9.25099e-07
9.57952e-07
1.06543e-08
-1.34126e-06
1.29776e-06
1.39674e-08
-1.27591e-06
1.27259e-06
8.21156e-09
-1.22755e-06
1.23331e-06
2.91634e-09
-1.22468e-06
1.22998e-06
-2.32936e-09
-1.22528e-06
1.23052e-06
-8.4625e-09
-1.22756e-06
1.23369e-06
-3.82947e-09
-1.27531e-06
1.27068e-06
4.02454e-08
-1.34367e-06
1.29959e-06
-9.33677e-07
9.73923e-07
1.69693e-08
-9.42069e-07
2.35565e-08
-1.34785e-06
1.55685e-08
-1.26792e-06
8.87866e-09
-1.22086e-06
2.1267e-09
-1.21793e-06
-4.75676e-09
-1.2184e-06
-1.17697e-08
-1.22054e-06
-1.87304e-08
-1.26835e-06
-1.41371e-08
-1.34826e-06
-9.47814e-07
3.03778e-08
-9.72447e-07
2.14038e-08
-1.33888e-06
1.28896e-08
-1.25941e-06
7.79565e-09
-1.21577e-06
1.29867e-09
-1.21143e-06
-5.58435e-09
-1.21151e-06
-1.03896e-08
-1.21574e-06
-1.90675e-08
-1.25967e-06
-2.80728e-08
-1.33925e-06
-9.75887e-07
8.01318e-08
-1.05258e-06
5.33808e-08
-1.31213e-06
3.44857e-08
-1.24051e-06
2.17191e-08
-1.203e-06
7.90957e-10
-1.19051e-06
-2.01717e-08
-1.19055e-06
-3.26451e-08
-1.20326e-06
-5.14494e-08
-1.24087e-06
-7.84101e-08
-1.31229e-06
-1.0543e-06
2.85868e-07
2.33842e-07
1.523e-07
7.54807e-08
4.99178e-10
-7.44696e-08
-1.51363e-07
-2.33039e-07
-2.84953e-07
-2.99411e-09
-1.99957e-08
2.29898e-08
1.71339e-08
-2.01293e-08
3.72712e-08
-2.01374e-08
5.72935e-08
-2.00224e-08
7.70825e-08
-1.97892e-08
9.65262e-08
-1.94439e-08
1.15518e-07
-1.89915e-08
1.33953e-07
-1.84358e-08
1.51734e-07
-1.7781e-08
-1.70207e-08
1.68755e-07
8.74768e-09
-3.64644e-08
7.721e-09
2.53718e-08
-3.67536e-08
4.20303e-08
-3.67959e-08
5.86122e-08
-3.66043e-08
7.50115e-08
-3.61885e-08
9.11249e-08
-3.55573e-08
1.06852e-07
-3.47183e-08
1.22094e-07
-3.36779e-08
1.36754e-07
-3.24413e-08
-3.10094e-08
1.50743e-07
1.63178e-08
-5.03981e-08
-2.38416e-09
3.03882e-08
-5.08243e-08
4.44972e-08
-5.0905e-08
5.85465e-08
-5.06538e-08
7.2442e-08
-5.00842e-08
8.60923e-08
-4.92076e-08
9.94079e-08
-4.8034e-08
1.12302e-07
-4.65719e-08
1.2469e-07
-4.48288e-08
-4.28125e-08
1.36493e-07
2.20093e-08
-6.2338e-08
-1.00693e-08
3.40588e-08
-6.28743e-08
4.61337e-08
-6.29801e-08
5.81514e-08
-6.26716e-08
7.00313e-08
-6.19642e-08
8.16947e-08
-6.0871e-08
9.30641e-08
-5.94034e-08
1.04064e-07
-5.75715e-08
1.14619e-07
-5.53843e-08
-5.28521e-08
1.24659e-07
2.64597e-08
-7.25931e-08
-1.62048e-08
3.67935e-08
-7.32087e-08
4.71377e-08
-7.33244e-08
5.74241e-08
-7.29582e-08
6.75861e-08
-7.21261e-08
7.75568e-08
-7.08417e-08
8.72697e-08
-6.91165e-08
9.66587e-08
-6.69604e-08
1.05657e-07
-6.4383e-08
-6.13948e-08
1.142e-07
2.98841e-08
-8.13746e-08
-2.11029e-08
3.87148e-08
-8.20397e-08
4.75422e-08
-8.21519e-08
5.63128e-08
-8.17288e-08
6.49728e-08
-8.07861e-08
7.3467e-08
-7.9336e-08
8.17393e-08
-7.73888e-08
8.97318e-08
-7.49531e-08
9.73854e-08
-7.20367e-08
-6.86487e-08
1.04639e-07
3.23903e-08
-8.88296e-08
-2.49355e-08
3.98716e-08
-8.95214e-08
4.73415e-08
-8.96219e-08
5.47601e-08
-8.91475e-08
6.20854e-08
-8.81114e-08
6.9273e-08
-8.65238e-08
7.62763e-08
-8.43921e-08
8.30452e-08
-8.17222e-08
8.95271e-08
-7.85186e-08
-7.47869e-08
9.56652e-08
3.40189e-08
-9.5066e-08
-2.77826e-08
4.02687e-08
-9.57715e-08
4.65069e-08
-9.58603e-08
5.27051e-08
-9.53457e-08
5.88316e-08
-9.4238e-08
6.48518e-08
-9.2544e-08
7.07273e-08
-9.02677e-08
7.6416e-08
-8.74109e-08
8.18709e-08
-8.39737e-08
-7.99563e-08
8.70402e-08
3.47597e-08
-1.0018e-07
-2.96457e-08
3.98832e-08
-1.00895e-07
4.50015e-08
-1.00979e-07
5.00954e-08
-1.0044e-07
5.51418e-08
-9.92844e-08
6.01143e-08
-9.75165e-08
6.49822e-08
-9.51357e-08
6.97108e-08
-9.21395e-08
7.42597e-08
-8.85228e-08
-8.42793e-08
7.85829e-08
3.45889e-08
-1.04277e-07
-3.04922e-08
3.86964e-08
-1.05003e-07
4.28081e-08
-1.0509e-07
4.69117e-08
-1.04543e-07
5.09912e-08
-1.03364e-07
5.50267e-08
-1.01552e-07
5.89947e-08
-9.91037e-08
6.2867e-08
-9.6012e-08
6.66107e-08
-9.22665e-08
-8.78547e-08
7.01861e-08
3.35232e-08
-1.07475e-07
-3.03251e-08
3.67366e-08
-1.08217e-07
3.99636e-08
-1.08317e-07
4.31977e-08
-1.07777e-07
4.64275e-08
-1.06594e-07
4.96386e-08
-1.04763e-07
5.28125e-08
-1.02278e-07
5.59272e-08
-9.91268e-08
5.89559e-08
-9.52952e-08
-9.07643e-08
6.18656e-08
3.16521e-08
-1.09902e-07
-2.92252e-08
3.41029e-08
-1.10668e-07
3.65785e-08
-1.10793e-07
3.9075e-08
-1.10274e-07
4.15849e-08
-1.09104e-07
4.40972e-08
-1.07276e-07
4.65979e-08
-1.04779e-07
4.90696e-08
-1.01599e-07
5.1491e-08
-9.77166e-08
-9.31085e-08
5.38353e-08
2.91248e-08
-1.11696e-07
-2.73311e-08
3.09554e-08
-1.12498e-07
3.28243e-08
-1.12662e-07
3.47297e-08
-1.12179e-07
3.66675e-08
-1.11042e-07
3.86311e-08
-1.09239e-07
4.06129e-08
-1.0676e-07
4.26035e-08
-1.03589e-07
4.45928e-08
-9.97059e-08
-9.5085e-08
4.65693e-08
2.6138e-08
-1.12998e-07
-2.48362e-08
2.7493e-08
-1.13853e-07
2.89026e-08
-1.14072e-07
3.03671e-08
-1.13643e-07
3.18862e-08
-1.12561e-07
3.34607e-08
-1.10814e-07
3.50923e-08
-1.08392e-07
3.67864e-08
-1.05283e-07
3.85533e-08
-1.01473e-07
-9.69436e-08
4.04118e-08
2.28999e-08
-1.13949e-07
-2.19489e-08
2.39178e-08
-1.14871e-07
2.50026e-08
-1.15156e-07
2.6156e-08
-1.14797e-07
2.73813e-08
-1.13786e-07
2.8684e-08
-1.12116e-07
3.0073e-08
-1.09781e-07
3.15623e-08
-1.06773e-07
3.31725e-08
-1.03083e-07
-9.87065e-08
3.49353e-08
1.96363e-08
-1.14692e-07
-1.88934e-08
2.04474e-08
-1.15682e-07
2.1327e-08
-1.16036e-07
2.2279e-08
-1.15749e-07
2.33096e-08
-1.14817e-07
2.44286e-08
-1.13235e-07
2.56491e-08
-1.11002e-07
2.69888e-08
-1.08112e-07
2.84709e-08
-1.04565e-07
-1.00361e-07
3.01256e-08
1.66217e-08
-1.15347e-07
-1.59665e-08
1.73316e-08
-1.16391e-07
1.8099e-08
-1.16803e-07
1.89306e-08
-1.1658e-07
1.98358e-08
-1.15722e-07
2.08278e-08
-1.14228e-07
2.19236e-08
-1.12097e-07
2.31439e-08
-1.09333e-07
2.45144e-08
-1.05936e-07
-1.01912e-07
2.60652e-08
1.41552e-08
-1.15999e-07
-1.35022e-08
1.48371e-08
-1.17074e-07
1.55542e-08
-1.1752e-07
1.63147e-08
-1.17341e-07
1.713e-08
-1.16537e-07
1.80145e-08
-1.15112e-07
1.89857e-08
-1.13068e-07
2.00646e-08
-1.10412e-07
2.1276e-08
-1.07147e-07
-1.03284e-07
2.26481e-08
1.25345e-08
-1.16699e-07
-1.18353e-08
1.32323e-08
-1.17772e-07
1.39362e-08
-1.18224e-07
1.46547e-08
-1.18059e-07
1.53979e-08
-1.1728e-07
1.61778e-08
-1.15892e-07
1.70082e-08
-1.13899e-07
1.79044e-08
-1.11308e-07
1.8883e-08
-1.08126e-07
-1.04362e-07
1.99613e-08
1.20145e-08
-1.17467e-07
-1.12466e-08
1.27555e-08
-1.18513e-07
1.34759e-08
-1.18945e-07
1.41826e-08
-1.18766e-07
1.48832e-08
-1.17981e-07
1.55867e-08
-1.16595e-07
1.6303e-08
-1.14615e-07
1.7043e-08
-1.12048e-07
1.78188e-08
-1.08902e-07
-1.05186e-07
1.8643e-08
1.27517e-08
-1.18321e-07
-1.18974e-08
1.35618e-08
-1.19323e-07
1.43311e-08
-1.19714e-07
1.50634e-08
-1.19498e-07
1.57633e-08
-1.18681e-07
1.64362e-08
-1.17268e-07
1.70887e-08
-1.15267e-07
1.77286e-08
-1.12688e-07
1.83654e-08
-1.09538e-07
-1.05831e-07
1.90106e-08
1.48007e-08
-1.1929e-07
-1.38315e-08
1.57149e-08
-1.20237e-07
1.65739e-08
-1.20573e-07
1.7378e-08
-1.20302e-07
1.8128e-08
-1.19431e-07
1.88252e-08
-1.17965e-07
1.9472e-08
-1.15914e-07
2.00714e-08
-1.13287e-07
2.06279e-08
-1.10095e-07
-1.06351e-07
2.11476e-08
1.81474e-08
-1.20413e-07
-1.70249e-08
1.92091e-08
-1.21299e-07
2.02066e-08
-1.2157e-07
2.11369e-08
-1.21232e-07
2.19974e-08
-1.20291e-07
2.27854e-08
-1.18753e-07
2.34989e-08
-1.16627e-07
2.41357e-08
-1.13924e-07
2.46943e-08
-1.10653e-07
-1.0683e-07
2.5173e-08
2.27257e-08
-1.21732e-07
-2.14061e-08
2.39822e-08
-1.22555e-07
2.51697e-08
-1.22758e-07
2.62832e-08
-1.22346e-07
2.73175e-08
-1.21325e-07
2.82674e-08
-1.19703e-07
2.91276e-08
-1.17488e-07
2.98924e-08
-1.14688e-07
3.05557e-08
-1.11317e-07
-1.07384e-07
3.11104e-08
2.84337e-08
-1.23295e-07
-2.68706e-08
2.9931e-08
-1.24052e-07
3.13565e-08
-1.24183e-07
3.27046e-08
-1.23694e-07
3.39694e-08
-1.2259e-07
3.51448e-08
-1.20878e-07
3.62246e-08
-1.18567e-07
3.72019e-08
-1.15666e-07
3.80692e-08
-1.12184e-07
-1.08133e-07
3.88178e-08
3.51749e-08
-1.25133e-07
-3.33374e-08
3.69444e-08
-1.25821e-07
3.86405e-08
-1.25879e-07
4.02581e-08
-1.25311e-07
4.17921e-08
-1.24124e-07
4.32368e-08
-1.22323e-07
4.45867e-08
-1.19917e-07
4.58358e-08
-1.16915e-07
4.6978e-08
-1.13326e-07
-1.09161e-07
4.80065e-08
4.28558e-08
-1.27256e-07
-4.07328e-08
4.49095e-08
-1.27874e-07
4.6889e-08
-1.27858e-07
4.87903e-08
-1.27212e-07
5.06088e-08
-1.25942e-07
5.234e-08
-1.24054e-07
5.39795e-08
-1.21557e-07
5.55234e-08
-1.18459e-07
5.69679e-08
-1.1477e-07
-1.10503e-07
5.83097e-08
5.13875e-08
-1.29657e-07
-4.89861e-08
5.37195e-08
-1.30206e-07
5.59775e-08
-1.30116e-07
5.81569e-08
-1.29392e-07
6.02533e-08
-1.28038e-07
6.22623e-08
-1.26063e-07
6.41804e-08
-1.23475e-07
6.60049e-08
-1.20283e-07
6.77341e-08
-1.16499e-07
-1.12136e-07
6.93674e-08
6.06946e-08
-1.32315e-07
-5.80368e-08
6.32857e-08
-1.32797e-07
6.58032e-08
-1.32634e-07
6.82406e-08
-1.31829e-07
7.05915e-08
-1.30389e-07
7.28507e-08
-1.28322e-07
7.50141e-08
-1.25638e-07
7.70785e-08
-1.22347e-07
7.90426e-08
-1.18463e-07
-1.14e-07
8.09064e-08
7.06991e-08
-1.3521e-07
-6.7804e-08
7.35298e-08
-1.35628e-07
7.62851e-08
-1.35389e-07
7.89548e-08
-1.34499e-07
8.15299e-08
-1.32964e-07
8.40029e-08
-1.30795e-07
8.63678e-08
-1.28003e-07
8.86203e-08
-1.246e-07
9.07579e-08
-1.20601e-07
-1.16022e-07
9.27802e-08
8.13432e-08
-1.38331e-07
-7.82214e-08
8.43987e-08
-1.38684e-07
8.73717e-08
-1.38362e-07
9.02476e-08
-1.37375e-07
9.30142e-08
-1.35731e-07
9.56613e-08
-1.33442e-07
9.81806e-08
-1.30522e-07
1.00566e-07
-1.26985e-07
1.02815e-07
-1.22849e-07
-1.18132e-07
1.04925e-07
9.26062e-08
-1.41674e-07
-8.9264e-08
9.58737e-08
-1.41951e-07
9.90441e-08
-1.41533e-07
1.02099e-07
-1.4043e-07
1.05022e-07
-1.38654e-07
1.078e-07
-1.36221e-07
1.10425e-07
-1.33146e-07
1.12888e-07
-1.29448e-07
1.15184e-07
-1.25146e-07
-1.2026e-07
1.17313e-07
1.04501e-07
-1.45231e-07
-1.00944e-07
1.07966e-07
-1.45416e-07
1.11311e-07
-1.44877e-07
1.14511e-07
-1.4363e-07
1.17549e-07
-1.41692e-07
1.20411e-07
-1.39082e-07
1.23085e-07
-1.3582e-07
1.25564e-07
-1.31927e-07
1.27842e-07
-1.27425e-07
-1.22337e-07
1.29919e-07
1.17075e-07
-1.48997e-07
-1.13309e-07
1.20717e-07
-1.49057e-07
1.24201e-07
-1.48361e-07
1.27502e-07
-1.46931e-07
1.30601e-07
-1.44791e-07
1.33483e-07
-1.41965e-07
1.36139e-07
-1.38476e-07
1.38562e-07
-1.3435e-07
1.40747e-07
-1.2961e-07
-1.24283e-07
1.42694e-07
1.30411e-07
-1.5295e-07
-1.26458e-07
1.34187e-07
-1.52833e-07
1.37753e-07
-1.51927e-07
1.41086e-07
-1.50264e-07
1.44168e-07
-1.47874e-07
1.46989e-07
-1.44786e-07
1.49541e-07
-1.41028e-07
1.51819e-07
-1.36628e-07
1.53821e-07
-1.31613e-07
-1.2601e-07
1.55548e-07
1.44627e-07
-1.57022e-07
-1.40554e-07
1.48449e-07
-1.56654e-07
1.51995e-07
-1.55473e-07
1.55251e-07
-1.53519e-07
1.58206e-07
-1.50828e-07
1.60854e-07
-1.47434e-07
1.63191e-07
-1.43366e-07
1.65217e-07
-1.38654e-07
1.66931e-07
-1.33327e-07
-1.27414e-07
1.68334e-07
1.59818e-07
-1.61048e-07
-1.55791e-07
1.63516e-07
-1.60353e-07
1.66879e-07
-1.58836e-07
1.69901e-07
-1.56541e-07
1.7258e-07
-1.53508e-07
1.74916e-07
-1.49769e-07
1.76908e-07
-1.45357e-07
1.78557e-07
-1.40303e-07
1.79864e-07
-1.34634e-07
-1.28382e-07
1.80833e-07
1.75873e-07
-1.64743e-07
-1.72179e-07
1.79202e-07
-1.63682e-07
1.82167e-07
-1.61801e-07
1.84769e-07
-1.59143e-07
1.87008e-07
-1.55746e-07
1.88882e-07
-1.51643e-07
1.90391e-07
-1.46867e-07
1.91537e-07
-1.41448e-07
1.92318e-07
-1.35416e-07
-1.28802e-07
1.92738e-07
1.92167e-07
-1.67833e-07
-1.89077e-07
1.9491e-07
-1.66425e-07
1.97301e-07
-1.64191e-07
1.99332e-07
-1.61174e-07
2.00998e-07
-1.57411e-07
2.02291e-07
-1.52936e-07
2.03206e-07
-1.47783e-07
2.03741e-07
-1.41983e-07
2.03893e-07
-1.35568e-07
-1.2857e-07
2.03662e-07
2.07392e-07
-1.70357e-07
-2.04867e-07
2.09564e-07
-1.68597e-07
2.11376e-07
-1.66003e-07
2.12817e-07
-1.62615e-07
2.13875e-07
-1.5847e-07
2.14541e-07
-1.53603e-07
2.14807e-07
-1.48049e-07
2.14666e-07
-1.41843e-07
2.14116e-07
-1.35018e-07
-1.27609e-07
2.13155e-07
2.20475e-07
-1.72506e-07
-2.18326e-07
2.22224e-07
-1.70346e-07
2.23566e-07
-1.67346e-07
2.24489e-07
-1.63539e-07
2.24982e-07
-1.58963e-07
2.25035e-07
-1.53655e-07
2.2464e-07
-1.47654e-07
2.23795e-07
-1.40997e-07
2.22497e-07
-1.3372e-07
-1.2586e-07
2.20747e-07
2.30704e-07
-1.7451e-07
-2.28699e-07
2.32224e-07
-1.71867e-07
2.3325e-07
-1.68371e-07
2.33769e-07
-1.64058e-07
2.33774e-07
-1.58967e-07
2.33256e-07
-1.53138e-07
2.32215e-07
-1.46613e-07
2.30652e-07
-1.39434e-07
2.28573e-07
-1.3164e-07
-1.23272e-07
2.25985e-07
2.37719e-07
-1.76583e-07
-2.35646e-07
2.39192e-07
-1.73339e-07
2.40048e-07
-1.69227e-07
2.40274e-07
-1.64285e-07
2.39864e-07
-1.58557e-07
2.38817e-07
-1.5209e-07
2.37138e-07
-1.44934e-07
2.3484e-07
-1.37136e-07
2.31938e-07
-1.28739e-07
-1.19786e-07
2.28453e-07
2.41381e-07
-1.78899e-07
-2.39065e-07
2.42955e-07
-1.74914e-07
2.4376e-07
-1.70032e-07
2.43779e-07
-1.64303e-07
2.43005e-07
-1.57783e-07
2.41444e-07
-1.5053e-07
2.39113e-07
-1.42603e-07
2.36037e-07
-1.3406e-07
2.3225e-07
-1.24952e-07
-1.15324e-07
2.27787e-07
2.41633e-07
-1.81607e-07
-2.38926e-07
2.43435e-07
-1.76715e-07
2.44285e-07
-1.70883e-07
2.44158e-07
-1.64177e-07
2.43046e-07
-1.56671e-07
2.40961e-07
-1.48444e-07
2.37933e-07
-1.39575e-07
2.34006e-07
-1.30134e-07
2.29237e-07
-1.20183e-07
-1.09772e-07
2.23686e-07
2.38402e-07
-1.84852e-07
-2.35156e-07
2.40556e-07
-1.7887e-07
2.41548e-07
-1.71875e-07
2.41333e-07
-1.63961e-07
2.39898e-07
-1.55236e-07
2.37261e-07
-1.45808e-07
2.33469e-07
-1.35783e-07
2.2859e-07
-1.25255e-07
2.22708e-07
-1.14301e-07
-1.02979e-07
2.15915e-07
2.31485e-07
-1.88827e-07
-2.27511e-07
2.34164e-07
-1.81549e-07
2.35428e-07
-1.73139e-07
2.35205e-07
-1.63739e-07
2.33475e-07
-1.53505e-07
2.30264e-07
-1.42597e-07
2.25639e-07
-1.31158e-07
2.19695e-07
-1.1931e-07
2.12542e-07
-1.07148e-07
-9.47324e-08
2.04295e-07
2.20479e-07
-1.93811e-07
-2.15495e-07
2.23934e-07
-1.85004e-07
2.2566e-07
-1.74865e-07
2.25543e-07
-1.63621e-07
2.23569e-07
-1.51532e-07
2.19803e-07
-1.38831e-07
2.14355e-07
-1.2571e-07
2.07372e-07
-1.12328e-07
1.9903e-07
-9.88065e-08
-8.51563e-08
1.89454e-07
2.04672e-07
-2.0021e-07
-1.98273e-07
2.09274e-07
-1.89606e-07
2.11731e-07
-1.77322e-07
2.11904e-07
-1.63795e-07
2.09887e-07
-1.49515e-07
2.05863e-07
-1.34807e-07
2.00036e-07
-1.19883e-07
1.92669e-07
-1.04961e-07
1.84114e-07
-9.02511e-08
-7.56499e-08
1.74607e-07
1.82974e-07
-2.08641e-07
-1.74543e-07
1.89386e-07
-1.96019e-07
1.93112e-07
-1.81048e-07
1.9401e-07
-1.64693e-07
1.92386e-07
-1.47891e-07
1.8857e-07
-1.30991e-07
1.83092e-07
-1.14405e-07
1.76061e-07
-9.793e-08
1.66455e-07
-8.06446e-08
-6.51302e-08
1.55935e-07
1.53684e-07
-2.20019e-07
-1.42306e-07
1.63215e-07
-2.05549e-07
1.69469e-07
-1.87302e-07
1.71869e-07
-1.67093e-07
1.6885e-07
-1.44871e-07
1.60877e-07
-1.23018e-07
1.55439e-07
-1.08968e-07
1.46983e-07
-8.94728e-08
1.25574e-07
-5.92361e-08
-4.62232e-08
1.0667e-07
1.13111e-07
-2.34826e-07
-9.83034e-08
1.27753e-07
-2.20192e-07
1.404e-07
-1.99949e-07
1.45993e-07
-1.72685e-07
1.27331e-07
-1.26209e-07
1.16719e-07
-1.12402e-07
1.10659e-07
-1.02906e-07
1.11627e-07
-9.04406e-08
1.21366e-07
-6.89714e-08
-4.35987e-08
1.18747e-07
5.66427e-08
-2.51575e-07
-3.98944e-08
7.84432e-08
-2.41993e-07
1.09715e-07
-2.31221e-07
1.50897e-07
-2.13867e-07
1.96663e-07
-1.71976e-07
2.14675e-07
-1.30412e-07
2.14812e-07
-1.03039e-07
2.15424e-07
-9.10501e-08
2.10618e-07
-6.41636e-08
-3.46723e-08
2.01691e-07
-1.00772e-08
-2.66765e-07
2.52674e-08
1.05965e-08
-2.62666e-07
3.90412e-08
-2.59666e-07
8.05459e-08
-2.55371e-07
1.33198e-07
-2.24624e-07
1.80842e-07
-1.78053e-07
2.10529e-07
-1.32719e-07
2.22447e-07
-1.02968e-07
2.30833e-07
-7.25485e-08
-3.85083e-08
2.34668e-07
-7.49236e-08
-2.78111e-07
8.62698e-08
-6.26123e-08
-2.74978e-07
-5.04006e-08
-2.71877e-07
-3.70682e-08
-2.68703e-07
3.31532e-09
-2.65007e-07
6.84432e-08
-2.43182e-07
1.28676e-07
-1.92953e-07
1.62613e-07
-1.36905e-07
1.83586e-07
-9.35215e-08
-4.89851e-08
1.94063e-07
-1.28118e-07
-2.87349e-07
1.37356e-07
-1.18739e-07
-2.84357e-07
-1.09534e-07
-2.81081e-07
-1.00335e-07
-2.77903e-07
-9.06237e-08
-2.74717e-07
-6.29935e-08
-2.70813e-07
-2.24958e-09
-2.53697e-07
6.10594e-08
-2.00216e-07
1.03437e-07
-1.35901e-07
-7.16609e-08
1.26112e-07
-1.67225e-07
-2.97081e-07
1.76957e-07
-1.57798e-07
-2.93784e-07
-1.48987e-07
-2.89892e-07
-1.41198e-07
-2.85692e-07
-1.347e-07
-2.81215e-07
-1.29213e-07
-2.763e-07
-1.1402e-07
-2.68889e-07
-6.12296e-08
-2.53005e-07
1.47532e-08
-2.11883e-07
-1.56017e-07
9.91076e-08
-1.9395e-07
-3.09471e-07
2.06339e-07
-1.81882e-07
-3.05852e-07
-1.70575e-07
-3.01199e-07
-1.60564e-07
-2.95703e-07
-1.52243e-07
-2.89537e-07
-1.45694e-07
-2.82849e-07
-1.39274e-07
-2.75309e-07
-1.26291e-07
-2.65989e-07
-8.54739e-08
-2.527e-07
-2.27887e-07
-1.36033e-08
-2.12515e-07
-3.26098e-07
2.29142e-07
-1.95866e-07
-3.22501e-07
-1.79633e-07
-3.17431e-07
-1.64328e-07
-3.11008e-07
-1.50508e-07
-3.03357e-07
-1.38758e-07
-2.94599e-07
-1.29172e-07
-2.84895e-07
-1.20882e-07
-2.74278e-07
-1.11208e-07
-2.62374e-07
-2.47207e-07
-9.18871e-08
-2.28851e-07
-3.47609e-07
2.50363e-07
-2.06814e-07
-3.44539e-07
-1.84643e-07
-3.39601e-07
-1.62795e-07
-3.32857e-07
-1.41787e-07
-3.24365e-07
-1.222e-07
-3.14186e-07
-1.0471e-07
-3.02385e-07
-8.994e-08
-2.89048e-07
-7.80278e-08
-2.74286e-07
-2.57749e-07
-6.74863e-08
-2.48391e-07
-3.73838e-07
2.7462e-07
-2.21111e-07
-3.71819e-07
-1.93136e-07
-3.67576e-07
-1.64856e-07
-3.61137e-07
-1.36688e-07
-3.52532e-07
-1.09085e-07
-3.41789e-07
-8.25488e-08
-3.2892e-07
-5.76698e-08
-3.13927e-07
-3.51556e-08
-2.968e-07
-2.77474e-07
-1.54308e-08
-2.74861e-07
-4.04012e-07
3.05035e-07
-2.43196e-07
-4.03483e-07
-2.10401e-07
-4.00371e-07
-1.76846e-07
-3.94691e-07
-1.4291e-07
-3.86469e-07
-1.08971e-07
-3.75728e-07
-7.54074e-08
-3.62484e-07
-4.26072e-08
-3.46728e-07
-1.09872e-08
-3.2842e-07
-3.07492e-07
1.90311e-08
-3.09211e-07
-4.37136e-07
3.42335e-07
-2.74264e-07
-4.38429e-07
-2.37902e-07
-4.36733e-07
-2.00538e-07
-4.32056e-07
-1.62591e-07
-4.24416e-07
-1.24485e-07
-4.13835e-07
-8.6648e-08
-4.00322e-07
-4.95135e-08
-3.83862e-07
-1.35216e-08
-3.64413e-07
-3.4188e-07
2.08656e-08
-3.49631e-07
-4.72316e-07
3.84812e-07
-3.12322e-07
-4.75738e-07
-2.73345e-07
-4.75711e-07
-2.33153e-07
-4.72247e-07
-1.92203e-07
-4.65367e-07
-1.50949e-07
-4.55089e-07
-1.09855e-07
-4.41416e-07
-6.94008e-08
-4.24317e-07
-3.00874e-08
-4.03726e-07
-3.79525e-07
7.55896e-09
-3.92708e-07
-5.0877e-07
4.29161e-07
-3.53823e-07
-5.14622e-07
-3.13012e-07
-5.16522e-07
-2.70748e-07
-5.14511e-07
-2.27475e-07
-5.0864e-07
-1.83616e-07
-4.98948e-07
-1.39584e-07
-4.85448e-07
-9.58015e-08
-4.68099e-07
-5.2722e-08
-4.46805e-07
-4.21384e-07
-1.0864e-08
-4.34173e-07
-5.45754e-07
4.71157e-07
-3.94508e-07
-5.54287e-07
-3.5272e-07
-5.5831e-07
-3.09293e-07
-5.57939e-07
-2.64637e-07
-5.53296e-07
-2.19096e-07
-5.44488e-07
-1.7297e-07
-5.31574e-07
-1.26534e-07
-5.14535e-07
-8.00933e-08
-4.93246e-07
-4.67423e-07
-3.40537e-08
-4.69404e-07
-5.82604e-07
5.06254e-07
-4.29764e-07
-5.93929e-07
-3.87969e-07
-6.00105e-07
-3.4453e-07
-6.01377e-07
-2.99836e-07
-5.9799e-07
-2.5416e-07
-5.90164e-07
-2.07675e-07
-5.78059e-07
-1.60479e-07
-5.61732e-07
-1.12634e-07
-5.41091e-07
-5.15807e-07
-6.42505e-08
-4.93798e-07
-6.1891e-07
5.30103e-07
-4.54817e-07
-6.32909e-07
-4.13875e-07
-6.41047e-07
-3.71514e-07
-6.43738e-07
-3.28125e-07
-6.41379e-07
-2.8395e-07
-6.34339e-07
-2.39097e-07
-6.22913e-07
-1.93532e-07
-6.07297e-07
-1.47077e-07
-5.87546e-07
-5.63494e-07
-9.93908e-08
-5.02944e-07
-6.54519e-07
5.38554e-07
-4.65029e-07
-6.70825e-07
-4.25494e-07
-6.80582e-07
-3.84845e-07
-6.84387e-07
-3.43428e-07
-6.82797e-07
-3.01434e-07
-6.76332e-07
-2.589e-07
-6.65448e-07
-2.15666e-07
-6.50531e-07
-1.71326e-07
-6.31885e-07
-6.0967e-07
-1.25149e-07
-4.92925e-07
-6.88848e-07
5.27255e-07
-4.56757e-07
-7.06993e-07
-4.19279e-07
-7.1806e-07
-3.80846e-07
-7.22819e-07
-3.41674e-07
-7.21969e-07
-3.01842e-07
-7.16164e-07
-2.61258e-07
-7.06033e-07
-2.19597e-07
-6.92192e-07
-1.76234e-07
-6.75249e-07
-6.55788e-07
-1.30116e-07
-4.61452e-07
-7.20126e-07
4.9273e-07
-4.28562e-07
-7.39884e-07
-3.94435e-07
-7.52187e-07
-3.59268e-07
-7.57986e-07
-3.23172e-07
-7.58065e-07
-2.86192e-07
-7.53143e-07
-2.48253e-07
-7.43972e-07
-2.09094e-07
-7.3135e-07
-1.68199e-07
-7.16144e-07
-6.99318e-07
-1.24669e-07
-4.09624e-07
-7.4644e-07
4.35938e-07
-3.8185e-07
-7.6766e-07
-3.52599e-07
-7.81437e-07
-3.21932e-07
-7.88653e-07
-2.8996e-07
-7.90037e-07
-2.56845e-07
-7.86259e-07
-2.22734e-07
-7.78084e-07
-1.87676e-07
-7.66408e-07
-1.51563e-07
-7.52257e-07
-7.36817e-07
-1.14065e-07
-3.40925e-07
-7.66313e-07
3.60799e-07
-3.19817e-07
-7.88767e-07
-2.96642e-07
-8.04612e-07
-2.7127e-07
-8.14025e-07
-2.43948e-07
-8.17358e-07
-2.15119e-07
-8.15089e-07
-1.85312e-07
-8.0789e-07
-1.55042e-07
-7.96678e-07
-1.24733e-07
-7.82566e-07
-7.66835e-07
-9.47141e-08
-2.59745e-07
-7.77123e-07
2.70555e-07
-2.46562e-07
-8.0195e-07
-2.30009e-07
-8.21165e-07
-2.09965e-07
-8.34068e-07
-1.8698e-07
-8.40343e-07
-1.6194e-07
-8.40129e-07
-1.35867e-07
-8.33964e-07
-1.09781e-07
-8.22764e-07
-8.46241e-08
-8.07723e-07
-7.90193e-07
-6.12666e-08
-1.71428e-07
-7.74912e-07
1.69218e-07
-1.66863e-07
-8.06515e-07
-1.56586e-07
-8.31442e-07
-1.41032e-07
-8.49622e-07
-1.21291e-07
-8.60085e-07
-9.88147e-08
-8.62605e-07
-7.51531e-08
-8.57625e-07
-5.17854e-08
-8.46132e-07
-3.00477e-08
-8.2946e-07
-8.09079e-07
-1.11616e-08
-8.35549e-08
-7.5705e-07
6.56927e-08
-8.69747e-08
-8.03095e-07
-8.11701e-08
-8.37246e-07
-6.82025e-08
-8.6259e-07
-4.99113e-08
-8.78377e-07
-2.83156e-08
-8.84201e-07
-5.38166e-09
-8.80559e-07
1.71211e-08
-8.68635e-07
3.76644e-08
-8.50004e-07
-8.26319e-07
5.49038e-08
-6.84051e-09
-7.28219e-07
-2.19915e-08
-1.38798e-08
-7.96056e-07
-8.91716e-09
-8.42209e-07
4.27186e-09
-8.75779e-07
2.32078e-08
-8.97313e-07
4.55377e-08
-9.06531e-07
6.91476e-08
-9.04169e-07
9.22357e-08
-8.91723e-07
1.13301e-07
-8.71069e-07
-8.44073e-07
1.31055e-07
5.35273e-08
-6.98771e-07
-8.29741e-08
4.98165e-08
-7.92346e-07
5.76826e-08
-8.50075e-07
7.33191e-08
-8.91415e-07
9.42222e-08
-9.18217e-07
1.18107e-07
-9.30416e-07
1.43006e-07
-9.29068e-07
1.67305e-07
-9.16022e-07
1.89703e-07
-8.93467e-07
-8.63488e-07
2.09118e-07
1.037e-07
-6.79702e-07
-1.22769e-07
1.05615e-07
-7.94261e-07
1.17385e-07
-8.61845e-07
1.35956e-07
-9.09986e-07
1.58994e-07
-9.41255e-07
1.84446e-07
-9.55869e-07
2.10597e-07
-9.55219e-07
2.36081e-07
-9.41507e-07
2.59835e-07
-9.17221e-07
-8.84645e-07
2.80993e-07
1.33281e-07
-6.8032e-07
-1.32662e-07
1.46516e-07
-8.07498e-07
1.64288e-07
-8.79618e-07
1.86703e-07
-9.32401e-07
2.12409e-07
-9.66961e-07
2.39791e-07
-9.83251e-07
2.67428e-07
-9.82856e-07
2.94223e-07
-9.68302e-07
3.19355e-07
-9.42353e-07
-9.07471e-07
3.42181e-07
1.53961e-07
-7.04649e-07
-1.29632e-07
1.7474e-07
-8.28276e-07
1.9726e-07
-9.02138e-07
2.23347e-07
-9.58489e-07
2.52137e-07
-9.95751e-07
2.82083e-07
-1.0132e-06
3.1187e-07
-1.01264e-06
3.40607e-07
-9.97038e-07
3.6771e-07
-9.69456e-07
-9.32497e-07
3.92736e-07
1.62552e-07
-7.3287e-07
-1.34332e-07
1.8672e-07
-8.52444e-07
2.1331e-07
-9.28728e-07
2.43794e-07
-9.88972e-07
2.76788e-07
-1.02875e-06
3.10433e-07
-1.04684e-06
3.4346e-07
-1.04567e-06
3.75246e-07
-1.02883e-06
4.05528e-07
-9.99738e-07
-9.61066e-07
4.34097e-07
1.49929e-07
-7.62502e-07
-1.20295e-07
1.7901e-07
-8.81525e-07
2.1178e-07
-9.61498e-07
2.4823e-07
-1.02542e-06
2.8642e-07
-1.06694e-06
3.24362e-07
-1.08479e-06
3.61051e-07
-1.08236e-06
3.96329e-07
-1.0641e-06
4.30427e-07
-1.03384e-06
-9.94203e-07
4.63565e-07
1.26723e-07
-8.04548e-07
-8.46764e-08
1.63126e-07
-9.17927e-07
2.01652e-07
-1.00002e-06
2.42559e-07
-1.06633e-06
2.84153e-07
-1.10853e-06
3.24606e-07
-1.12524e-06
3.63257e-07
-1.12101e-06
4.00366e-07
-1.10121e-06
4.36533e-07
-1.07e-06
-1.02992e-06
4.72254e-07
1.14999e-07
-8.44453e-07
-7.50934e-08
1.51911e-07
-9.54838e-07
1.90389e-07
-1.0385e-06
2.30972e-07
-1.10691e-06
2.72114e-07
-1.14967e-06
3.1188e-07
-1.165e-06
3.49771e-07
-1.1589e-06
3.8625e-07
-1.13769e-06
4.21952e-07
-1.10571e-06
-1.06523e-06
4.57257e-07
9.95187e-08
-8.86688e-07
-5.72833e-08
1.36462e-07
-9.9178e-07
1.73273e-07
-1.07531e-06
2.11361e-07
-1.145e-06
2.49634e-07
-1.18795e-06
2.86313e-07
-1.20168e-06
3.21343e-07
-1.19393e-06
3.55497e-07
-1.17184e-06
3.89391e-07
-1.1396e-06
-1.09904e-06
4.23205e-07
8.26322e-08
-9.26952e-07
-4.23685e-08
1.17823e-07
-1.02697e-06
1.51523e-07
-1.10901e-06
1.85297e-07
-1.17877e-06
2.18571e-07
-1.22122e-06
2.49989e-07
-1.2331e-06
2.80201e-07
-1.22414e-06
3.10379e-07
-1.20202e-06
3.41199e-07
-1.17042e-06
-1.13045e-06
3.72612e-07
6.37055e-08
-9.63978e-07
-2.66786e-08
9.61614e-08
-1.05943e-06
1.26229e-07
-1.13908e-06
1.54875e-07
-1.20742e-06
1.81878e-07
-1.24823e-06
2.06693e-07
-1.25792e-06
2.30896e-07
-1.24835e-06
2.56126e-07
-1.22725e-06
2.83341e-07
-1.19764e-06
-1.16017e-06
3.13052e-07
4.28978e-08
-9.97199e-07
-9.67736e-09
7.25534e-08
-1.08908e-06
9.92546e-08
-1.16578e-06
1.22773e-07
-1.23094e-06
1.42872e-07
-1.26833e-06
1.60329e-07
-1.27537e-06
1.77603e-07
-1.26562e-06
1.96708e-07
-1.24636e-06
2.18924e-07
-1.21985e-06
-1.18616e-06
2.44916e-07
2.2782e-08
-1.02704e-06
7.06082e-09
5.00423e-08
-1.11634e-06
7.38689e-08
-1.18961e-06
9.27143e-08
-1.24978e-06
1.05869e-07
-1.28148e-06
1.16068e-07
-1.28557e-06
1.26127e-07
-1.27568e-06
1.37906e-07
-1.25814e-06
1.52753e-07
-1.2347e-06
-1.20484e-06
1.71433e-07
7.38858e-09
-1.05433e-06
1.99029e-08
3.2368e-08
-1.14132e-06
5.3487e-08
-1.21073e-06
6.82392e-08
-1.26454e-06
7.52797e-08
-1.28852e-06
7.99287e-08
-1.29022e-06
8.47393e-08
-1.28049e-06
9.09449e-08
-1.26434e-06
9.96858e-08
-1.24344e-06
-1.21682e-06
1.11665e-07
-1.53343e-09
-1.07976e-06
2.69572e-08
2.09775e-08
-1.16383e-06
3.91919e-08
-1.22894e-06
4.99985e-08
-1.27534e-06
5.19146e-08
-1.29044e-06
5.27431e-08
-1.29105e-06
5.45028e-08
-1.28225e-06
5.74802e-08
-1.26732e-06
6.23776e-08
-1.24834e-06
-1.2238e-06
6.93577e-08
-4.23981e-09
-1.10364e-06
2.81231e-08
1.5292e-08
-1.18336e-06
3.05045e-08
-1.24415e-06
3.73883e-08
-1.28223e-06
3.53523e-08
-1.2884e-06
3.32375e-08
-1.28894e-06
3.29774e-08
-1.28199e-06
3.35161e-08
-1.26786e-06
3.5749e-08
-1.25057e-06
-1.22855e-06
4.04983e-08
1.8049e-10
-1.12542e-06
2.16023e-08
1.59965e-08
-1.19918e-06
2.8084e-08
-1.25624e-06
3.09031e-08
-1.28505e-06
2.60788e-08
-1.28357e-06
2.14665e-08
-1.28432e-06
1.99959e-08
-1.28052e-06
1.85948e-08
-1.26646e-06
1.83163e-08
-1.25029e-06
-1.23314e-06
2.29149e-08
1.56044e-08
-1.13951e-06
-1.50982e-09
2.48305e-08
-1.20841e-06
3.22402e-08
-1.26365e-06
2.96347e-08
-1.28244e-06
2.19572e-08
-1.2759e-06
1.47534e-08
-1.27712e-06
1.24796e-08
-1.27825e-06
1.02078e-08
-1.26419e-06
6.19695e-09
-1.24628e-06
-1.23344e-06
6.49479e-09
3.21378e-08
-1.14194e-06
-2.97072e-08
3.218e-08
-1.20845e-06
3.49799e-08
-1.26645e-06
2.73492e-08
-1.27481e-06
1.77022e-08
-1.26625e-06
8.57859e-09
-1.268e-06
4.96144e-09
-1.27463e-06
3.81696e-09
-1.26304e-06
-4.46145e-09
-1.238e-06
-1.22249e-06
-1.54137e-08
2.37807e-08
-1.13951e-06
-2.62134e-08
2.54813e-08
-1.21015e-06
2.97705e-08
-1.27074e-06
2.09863e-08
-1.26602e-06
1.16683e-08
-1.25693e-06
2.06383e-09
-1.25839e-06
-3.93718e-09
-1.26863e-06
-2.26138e-09
-1.26472e-06
-1.16724e-08
-1.22859e-06
-1.19775e-06
-3.64123e-08
9.06031e-09
-1.1156e-06
-3.29751e-08
1.98966e-08
-1.22098e-06
2.60227e-08
-1.27687e-06
1.63344e-08
-1.25634e-06
6.97781e-09
-1.24758e-06
-2.95705e-09
-1.24846e-06
-1.26846e-08
-1.2589e-06
-6.63745e-09
-1.27077e-06
-7.20605e-09
-1.22802e-06