/*--------------------------------*- C++ -*----------------------------------*\
  =========                 |
  \\      /  F ield         | OpenFOAM: The Open Source CFD Toolbox
   \\    /   O peration     | Website:  https://openfoam.org
    \\  /    A nd           | Version:  8
     \\/     M anipulation  |
\*---------------------------------------------------------------------------*/
FoamFile
{
    version     2.0;
    format      ascii;
    class       volVectorField;
    location    "2";
    object      U;
}
// * * * * * * * * * * * * * * * * * * * * * * * * * * * * * * * * * * * * * //

dimensions      [0 1 -1 0 0 0 0];

internalField   nonuniform List<vector> 
9150
(
(0.0538798 -0.428668 0)
(0.0879885 -0.622217 0)
(0.0730647 -0.631438 0)
(0.0486742 -0.643711 0)
(0.0170458 -0.654437 0)
(-0.0170161 -0.654441 0)
(-0.0486503 -0.643721 0)
(-0.0730479 -0.631447 0)
(-0.0879797 -0.622226 0)
(-0.0538773 -0.428686 0)
(0.0409357 -0.522932 0)
(0.0574561 -0.625684 0)
(0.0420175 -0.613206 0)
(0.0294395 -0.622447 0)
(0.0104894 -0.628854 0)
(-0.010471 -0.628856 0)
(-0.0294239 -0.622452 0)
(-0.0420052 -0.61321 0)
(-0.057447 -0.625685 0)
(-0.0409318 -0.522944 0)
(0.0253571 -0.558055 0)
(0.0324954 -0.613773 0)
(0.022932 -0.604462 0)
(0.0172934 -0.609992 0)
(0.00624212 -0.613184 0)
(-0.00623218 -0.613185 0)
(-0.0172846 -0.609994 0)
(-0.022925 -0.604464 0)
(-0.0324889 -0.613772 0)
(-0.0253534 -0.558061 0)
(0.0154183 -0.5848 0)
(0.0174591 -0.607434 0)
(0.0116722 -0.601134 0)
(0.00889168 -0.603286 0)
(0.00324255 -0.604395 0)
(-0.00323823 -0.604395 0)
(-0.00888765 -0.603287 0)
(-0.011669 -0.601135 0)
(-0.0174557 -0.607433 0)
(-0.0154161 -0.584802 0)
(0.00628161 -0.597181 0)
(0.00555136 -0.60138 0)
(0.00356193 -0.60004 0)
(0.00268485 -0.600349 0)
(0.000994777 -0.600483 0)
(-0.000993859 -0.600483 0)
(-0.00268415 -0.600349 0)
(-0.00356156 -0.60004 0)
(-0.00555069 -0.601379 0)
(-0.00628102 -0.597181 0)
(0.469909 -1.16259 1.48908e-24)
(0.282893 -1.08587 0)
(0.163388 -1.06928 0)
(0.092393 -1.0577 0)
(0.0305046 -1.0531 0)
(-0.0301966 -1.05315 0)
(-0.0921174 -1.05783 0)
(-0.16316 -1.06948 0)
(-0.282724 -1.08613 0)
(-0.469973 -1.16297 -1.49302e-24)
(0.334224 -0.844163 4.07805e-25)
(0.287074 -0.936802 0)
(0.188282 -0.936783 0)
(0.10831 -0.936759 0)
(0.0358027 -0.939209 0)
(-0.0356264 -0.93924 0)
(-0.108158 -0.936845 0)
(-0.188164 -0.936905 0)
(-0.287032 -0.936955 0)
(-0.334275 -0.844366 -4.08463e-25)
(0.27947 -0.702625 7.07524e-26)
(0.259037 -0.804739 0)
(0.178124 -0.817537 0)
(0.104706 -0.828365 0)
(0.0348965 -0.836532 0)
(-0.0347877 -0.83655 0)
(-0.104614 -0.828416 0)
(-0.178061 -0.817608 0)
(-0.259018 -0.80482 0)
(-0.279488 -0.702713 -7.08889e-26)
(0.200415 -0.554328 2.48407e-25)
(0.216803 -0.709427 0)
(0.154291 -0.725854 0)
(0.0914418 -0.742003 0)
(0.0305801 -0.75396 0)
(-0.0305107 -0.753972 0)
(-0.0913846 -0.742034 0)
(-0.154252 -0.725893 0)
(-0.216793 -0.709468 0)
(-0.200422 -0.554378 -2.48424e-25)
(0.119079 -0.44503 -4.1338e-25)
(0.156607 -0.644168 -5.93885e-25)
(0.116691 -0.663737 -2.00678e-25)
(0.0709824 -0.681173 -1.31705e-25)
(0.0239833 -0.694206 -7.57411e-27)
(-0.0239378 -0.694213 -7.56115e-27)
(-0.0709454 -0.681191 -1.31671e-25)
(-0.116666 -0.663756 -2.0067e-25)
(-0.156598 -0.644188 -5.93918e-25)
(-0.119079 -0.445058 -4.13421e-25)
(0.0243326 -0.907382 0)
(-0.0323304 -1.3407 0)
(0.0265501 -1.27253 0)
(-0.00248343 -1.2266 0)
(0.00539055 -1.22466 0)
(-0.0034828 -1.2253 0)
(0.00614627 -1.22664 0)
(-0.0231702 -1.27133 0)
(0.0350118 -1.34247 0)
(-0.0208692 -0.919617 0)
(0.0506771 -0.902278 0)
(-0.0194179 -1.33391 0)
(0.025312 -1.27103 0)
(0.00158099 -1.22459 0)
(0.00203065 -1.2231 0)
(-0.000776111 -1.22361 0)
(0.00101596 -1.22439 0)
(-0.0237629 -1.27113 0)
(0.0217608 -1.33515 0)
(-0.0493882 -0.908859 0)
(0.0775872 -0.941121 0)
(-0.0217044 -1.3483 0)
(0.0185876 -1.27555 0)
(0.00608563 -1.23125 0)
(0.000284074 -1.22665 0)
(0.000776813 -1.22686 0)
(-0.00447832 -1.23117 0)
(-0.0176436 -1.27592 0)
(0.0236476 -1.34863 0)
(-0.0765982 -0.945803 0)
(0.143504 -1.07686 0)
(0.00248846 -1.36621 0)
(0.0162402 -1.27177 0)
(0.0220481 -1.22594 0)
(0.00604203 -1.21455 0)
(-0.00517814 -1.21462 0)
(-0.0211752 -1.22612 0)
(-0.0157725 -1.27206 0)
(-0.00108779 -1.36646 0)
(-0.142967 -1.07922 0)
(0.297655 -1.2187 0)
(0.125902 -1.32195 0)
(0.0692578 -1.21049 0)
(0.0566359 -1.16902 0)
(0.0202398 -1.15659 0)
(-0.0197102 -1.15664 0)
(-0.0562004 -1.16923 0)
(-0.0688197 -1.21078 0)
(-0.125226 -1.32219 0)
(-0.297588 -1.21972 0)
(-0.00651044 -0.0141018 0)
(0.00352759 -0.0141464 0)
(0.0136049 -0.0141059 0)
(0.0236554 -0.0139837 0)
(0.033619 -0.0137861 0)
(0.0434381 -0.0135186 0)
(0.0530577 -0.0131855 0)
(0.0624255 -0.0127901 0)
(0.0714915 -0.012337 0)
(0.0802052 -0.0118341 0)
(0.000232962 -0.029319 0)
(0.00852006 -0.0295314 0)
(0.0168532 -0.0295496 0)
(0.0251761 -0.0293824 0)
(0.033434 -0.029038 0)
(0.0415743 -0.0285242 0)
(0.0495462 -0.0278477 0)
(0.0572999 -0.0270142 0)
(0.0647867 -0.0260277 0)
(0.0719615 -0.0248905 0)
(0.00465401 -0.043892 0)
(0.0116671 -0.0442556 0)
(0.0187232 -0.0443208 0)
(0.0257741 -0.0441002 0)
(0.0327717 -0.0436054 0)
(0.0396692 -0.0428467 0)
(0.0464214 -0.0418327 0)
(0.0529842 -0.0405712 0)
(0.0593151 -0.0390683 0)
(0.0653736 -0.0373297 0)
(0.00800212 -0.0567822 0)
(0.0140094 -0.0572721 0)
(0.0200503 -0.0573694 0)
(0.0260834 -0.05709 0)
(0.0320676 -0.0564487 0)
(0.0379631 -0.0554581 0)
(0.0437306 -0.0541292 0)
(0.0493322 -0.0524714 0)
(0.0547307 -0.0504935 0)
(0.0598892 -0.0482042 0)
(0.0106533 -0.0678408 0)
(0.0158084 -0.0684248 0)
(0.0209859 -0.0685393 0)
(0.0261518 -0.0682021 0)
(0.0312722 -0.0674294 0)
(0.0363135 -0.0662348 0)
(0.0412425 -0.06463 0)
(0.0460263 -0.0626256 0)
(0.0506321 -0.060231 0)
(0.0550265 -0.057457 0)
(0.0127386 -0.0773213 0)
(0.0171474 -0.0779685 0)
(0.021568 -0.0780853 0)
(0.0259741 -0.0776902 0)
(0.0303386 -0.0767991 0)
(0.034634 -0.0754256 0)
(0.0388326 -0.0735806 0)
(0.0429061 -0.071274 0)
(0.0468258 -0.0685149 0)
(0.0505612 -0.0653133 0)
(0.0143271 -0.0854124 0)
(0.018065 -0.0860955 0)
(0.0218072 -0.086203 0)
(0.0255343 -0.0857523 0)
(0.0292257 -0.0847581 0)
(0.0328596 -0.083232 0)
(0.0364132 -0.0811832 0)
(0.0398627 -0.0786191 0)
(0.0431828 -0.0755464 0)
(0.0463459 -0.0719727 0)
(0.0154485 -0.0922357 0)
(0.0185723 -0.0929365 0)
(0.0216971 -0.0930304 0)
(0.0248099 -0.0925324 0)
(0.0278952 -0.0914548 0)
(0.0309364 -0.0898061 0)
(0.0339153 -0.0875922 0)
(0.0368119 -0.0848171 0)
(0.0396045 -0.0814835 0)
(0.0422683 -0.0775945 0)
(0.0161007 -0.0978875 0)
(0.0186609 -0.0985983 0)
(0.0212231 -0.0986823 0)
(0.0237786 -0.0981513 0)
(0.0263169 -0.0970139 0)
(0.0288251 -0.0952751 0)
(0.0312892 -0.0929369 0)
(0.0336931 -0.089999 0)
(0.0360184 -0.086459 0)
(0.0382435 -0.0823139 0)
(0.01627 -0.102466 0)
(0.0183209 -0.103186 0)
(0.0203764 -0.103269 0)
(0.0224319 -0.102722 0)
(0.02448 -0.101549 0)
(0.0265115 -0.0997523 0)
(0.0285155 -0.0973293 0)
(0.0304794 -0.0942753 0)
(0.0323884 -0.0905825 0)
(0.0342244 -0.0862414 0)
(0.0159616 -0.106083 0)
(0.0175635 -0.106816 0)
(0.0191737 -0.106907 0)
(0.0207901 -0.106359 0)
(0.0224077 -0.105174 0)
(0.02402 -0.103347 0)
(0.0256188 -0.100873 0)
(0.027194 -0.0977438 0)
(0.028734 -0.093946 0)
(0.0302238 -0.089464 0)
(0.0152178 -0.108863 0)
(0.016436 -0.109614 0)
(0.0176674 -0.109724 0)
(0.0189111 -0.10919 0)
(0.0201639 -0.108009 0)
(0.021421 -0.106174 0)
(0.0226761 -0.103676 0)
(0.0239216 -0.100503 0)
(0.0251482 -0.096636 0)
(0.0263438 -0.0920541 0)
(0.0141107 -0.110938 0)
(0.0150156 -0.111718 0)
(0.0159401 -0.111859 0)
(0.016884 -0.111353 0)
(0.0178455 -0.110194 0)
(0.0188217 -0.108372 0)
(0.019809 -0.105874 0)
(0.0208032 -0.102685 0)
(0.0217998 -0.0987851 0)
(0.0227931 -0.0941457 0)
(0.0127379 -0.112451 0)
(0.0134012 -0.113276 0)
(0.014092 -0.113463 0)
(0.0148105 -0.113003 0)
(0.0155564 -0.111887 0)
(0.0163296 -0.110106 0)
(0.0171306 -0.107646 0)
(0.0179611 -0.104493 0)
(0.0188251 -0.100629 0)
(0.0197292 -0.0960301 0)
(0.0112046 -0.113542 0)
(0.0116963 -0.114429 0)
(0.0122216 -0.114678 0)
(0.0127808 -0.114282 0)
(0.013375 -0.113232 0)
(0.014006 -0.11152 0)
(0.0146775 -0.109136 0)
(0.015395 -0.106071 0)
(0.0161673 -0.102313 0)
(0.0170063 -0.0978512 0)
(0.00962449 -0.114355 0)
(0.0100125 -0.115313 0)
(0.0104348 -0.115634 0)
(0.010892 -0.115311 0)
(0.0113867 -0.114339 0)
(0.0119227 -0.112713 0)
(0.0125055 -0.110426 0)
(0.0131431 -0.107474 0)
(0.0138457 -0.103853 0)
(0.0146258 -0.0995603 0)
(0.00814072 -0.115028 0)
(0.00848138 -0.116051 0)
(0.00885008 -0.116438 0)
(0.00924884 -0.116187 0)
(0.00968165 -0.115295 0)
(0.0101541 -0.11376 0)
(0.0106737 -0.111579 0)
(0.0112498 -0.108754 0)
(0.0118944 -0.105283 0)
(0.0126208 -0.10117 0)
(0.0069112 -0.115666 0)
(0.00724403 -0.116733 0)
(0.00759296 -0.117169 0)
(0.00796116 -0.116974 0)
(0.00835356 -0.11615 0)
(0.00877655 -0.114697 0)
(0.0092381 -0.112618 0)
(0.00974782 -0.109915 0)
(0.0103172 -0.106594 0)
(0.0109597 -0.102662 0)
(0.00609303 -0.116334 0)
(0.00644124 -0.117415 0)
(0.00679084 -0.117872 0)
(0.00714529 -0.117707 0)
(0.00750934 -0.116924 0)
(0.00788853 -0.115526 0)
(0.00828932 -0.113518 0)
(0.00871892 -0.110905 0)
(0.00918545 -0.107696 0)
(0.00969763 -0.103897 0)
(0.00581893 -0.117064 0)
(0.00619523 -0.118129 0)
(0.00655995 -0.118577 0)
(0.00691583 -0.118412 0)
(0.00726664 -0.117637 0)
(0.00761653 -0.116258 0)
(0.0079702 -0.11428 0)
(0.00833279 -0.111711 0)
(0.00871004 -0.108557 0)
(0.00910847 -0.104828 0)
(0.0061679 -0.11787 0)
(0.00658343 -0.118897 0)
(0.00697803 -0.119313 0)
(0.00735295 -0.119121 0)
(0.0077104 -0.118325 0)
(0.00805288 -0.116933 0)
(0.00838341 -0.114951 0)
(0.00870539 -0.112386 0)
(0.00902306 -0.109248 0)
(0.00934212 -0.105547 0)
(0.00716484 -0.118773 0)
(0.00763556 -0.119749 0)
(0.00807905 -0.120115 0)
(0.00849479 -0.119876 0)
(0.00888317 -0.119036 0)
(0.00924477 -0.117603 0)
(0.00958052 -0.115584 0)
(0.00989157 -0.112989 0)
(0.0101796 -0.109828 0)
(0.0104479 -0.106115 0)
(0.0088004 -0.119808 0)
(0.00934671 -0.120725 0)
(0.00986209 -0.121031 0)
(0.0103444 -0.120729 0)
(0.0107924 -0.119825 0)
(0.0112048 -0.118328 0)
(0.0115806 -0.116244 0)
(0.0119183 -0.113585 0)
(0.0122171 -0.110361 0)
(0.0124766 -0.106587 0)
(0.0110404 -0.121017 0)
(0.011685 -0.121872 0)
(0.0122969 -0.12211 0)
(0.0128728 -0.121736 0)
(0.0134103 -0.120757 0)
(0.013907 -0.119179 0)
(0.0143603 -0.117011 0)
(0.0147672 -0.114263 0)
(0.0151248 -0.110945 0)
(0.0154303 -0.107072 0)
(0.0138339 -0.122448 0)
(0.0145996 -0.123238 0)
(0.0153312 -0.123406 0)
(0.0160253 -0.122956 0)
(0.0166792 -0.121894 0)
(0.01729 -0.120228 0)
(0.0178547 -0.117965 0)
(0.0183698 -0.115115 0)
(0.0188317 -0.111688 0)
(0.019237 -0.107697 0)
(0.0171362 -0.124143 0)
(0.0180385 -0.124866 0)
(0.0189057 -0.124961 0)
(0.0197348 -0.124432 0)
(0.0205233 -0.123286 0)
(0.0212686 -0.12153 0)
(0.0219681 -0.11917 0)
(0.0226185 -0.116217 0)
(0.0232169 -0.11268 0)
(0.0237607 -0.10857 0)
(0.0209055 -0.126123 0)
(0.02195 -0.126777 0)
(0.0229591 -0.126798 0)
(0.0239299 -0.126191 0)
(0.0248604 -0.124961 0)
(0.0257483 -0.123117 0)
(0.0265916 -0.120664 0)
(0.0273879 -0.117613 0)
(0.0281352 -0.113973 0)
(0.0288324 -0.109754 0)
(0.0251017 -0.128389 0)
(0.0262854 -0.128973 0)
(0.0274337 -0.12892 0)
(0.0285437 -0.128235 0)
(0.0296132 -0.126923 0)
(0.03064 -0.124992 0)
(0.0316222 -0.122449 0)
(0.0325581 -0.119305 0)
(0.0334465 -0.115569 0)
(0.0342874 -0.111253 0)
(0.0296906 -0.130924 0)
(0.0310036 -0.131439 0)
(0.0322818 -0.131313 0)
(0.0335214 -0.130549 0)
(0.0347192 -0.129154 0)
(0.0358723 -0.127135 0)
(0.0369784 -0.1245 0)
(0.0380356 -0.121261 0)
(0.0390427 -0.11743 0)
(0.0399997 -0.113019 0)
(0.0346329 -0.133704 0)
(0.0360657 -0.134155 0)
(0.0374638 -0.133955 0)
(0.0388213 -0.133109 0)
(0.0401335 -0.131625 0)
(0.0413964 -0.12951 0)
(0.0426065 -0.126776 0)
(0.0437612 -0.123433 0)
(0.0448588 -0.119497 0)
(0.0458989 -0.114981 0)
(0.0398982 -0.136715 0)
(0.0414446 -0.137101 0)
(0.0429539 -0.136824 0)
(0.0444178 -0.135889 0)
(0.0458298 -0.134304 0)
(0.0471844 -0.13208 0)
(0.0484769 -0.12923 0)
(0.0497037 -0.125766 0)
(0.0508625 -0.121705 0)
(0.0519523 -0.117064 0)
(0.0454752 -0.139949 0)
(0.0471305 -0.140266 0)
(0.0487428 -0.139901 0)
(0.0503012 -0.138861 0)
(0.0517974 -0.137158 0)
(0.0532242 -0.134804 0)
(0.0545761 -0.131814 0)
(0.0558486 -0.128205 0)
(0.0570388 -0.123994 0)
(0.0581454 -0.1192 0)
(0.0513706 -0.1434 0)
(0.0531301 -0.143636 0)
(0.0548359 -0.143165 0)
(0.0564746 -0.141998 0)
(0.0580363 -0.14015 0)
(0.0595128 -0.137638 0)
(0.0608979 -0.134478 0)
(0.0621868 -0.130692 0)
(0.0633765 -0.126299 0)
(0.0644655 -0.121321 0)
(0.0576087 -0.147064 0)
(0.0594654 -0.147196 0)
(0.0612506 -0.14659 0)
(0.0629496 -0.145263 0)
(0.0645517 -0.143235 0)
(0.0660487 -0.140527 0)
(0.0674344 -0.137162 0)
(0.0687048 -0.133162 0)
(0.069857 -0.128551 0)
(0.07089 -0.123353 0)
(0.064236 -0.150933 0)
(0.0661734 -0.150919 0)
(0.0680127 -0.150133 0)
(0.06974 -0.148601 0)
(0.0713454 -0.146348 0)
(0.0728225 -0.143403 0)
(0.0741665 -0.13979 0)
(0.0753743 -0.135537 0)
(0.0764445 -0.130669 0)
(0.0773765 -0.125213 0)
(0.0713232 -0.154971 0)
(0.0733015 -0.154748 0)
(0.0751461 -0.153721 0)
(0.0768484 -0.151927 0)
(0.0784019 -0.149399 0)
(0.0798033 -0.146168 0)
(0.08105 -0.142265 0)
(0.0821408 -0.137718 0)
(0.0830755 -0.132555 0)
(0.0838546 -0.126805 0)
(0.0789401 -0.159076 0)
(0.080874 -0.158561 0)
(0.0826404 -0.157224 0)
(0.0842374 -0.15511 0)
(0.0856629 -0.152257 0)
(0.0869168 -0.148697 0)
(0.0879987 -0.144464 0)
(0.0889087 -0.139588 0)
(0.0896475 -0.134097 0)
(0.0902161 -0.12802 0)
(0.0870564 -0.163017 0)
(0.0888133 -0.162141 0)
(0.0903873 -0.160443 0)
(0.0917794 -0.157969 0)
(0.0929894 -0.154756 0)
(0.0940177 -0.150838 0)
(0.0948637 -0.146248 0)
(0.0955274 -0.141015 0)
(0.0960089 -0.13517 0)
(0.0963088 -0.128742 0)
(0.0953531 -0.166443 0)
(0.0968126 -0.165206 0)
(0.0980973 -0.163146 0)
(0.0992038 -0.160309 0)
(0.100129 -0.15673 0)
(0.100869 -0.152444 0)
(0.101422 -0.147483 0)
(0.101785 -0.141878 0)
(0.101957 -0.13566 0)
(0.101936 -0.128859 0)
(0.103108 -0.169216 0)
(0.104283 -0.167638 0)
(0.105281 -0.165231 0)
(0.106096 -0.162036 0)
(0.106722 -0.158089 0)
(0.107154 -0.153426 0)
(0.107388 -0.148081 0)
(0.107419 -0.142086 0)
(0.107247 -0.135475 0)
(0.106869 -0.12828 0)
(0.10975 -0.171498 0)
(0.110725 -0.169554 0)
(0.111499 -0.166774 0)
(0.112067 -0.163193 0)
(0.112422 -0.158849 0)
(0.11256 -0.153777 0)
(0.112475 -0.148015 0)
(0.112165 -0.141597 0)
(0.11163 -0.13456 0)
(0.110867 -0.126938 0)
(0.114911 -0.173518 0)
(0.115793 -0.171141 0)
(0.116431 -0.167919 0)
(0.116819 -0.163885 0)
(0.116951 -0.159077 0)
(0.116823 -0.153533 0)
(0.116433 -0.147293 0)
(0.115782 -0.140396 0)
(0.114871 -0.132879 0)
(0.113702 -0.124782 0)
(0.118415 -0.175508 0)
(0.119304 -0.172596 0)
(0.119888 -0.168826 0)
(0.12016 -0.164233 0)
(0.120115 -0.158858 0)
(0.11975 -0.152743 0)
(0.119067 -0.145933 0)
(0.118071 -0.138472 0)
(0.116769 -0.130401 0)
(0.11517 -0.121762 0)
(0.120202 -0.177663 0)
(0.121179 -0.174086 0)
(0.121776 -0.169631 0)
(0.121984 -0.164338 0)
(0.121795 -0.158256 0)
(0.12121 -0.151438 0)
(0.120234 -0.143936 0)
(0.118879 -0.135799 0)
(0.117159 -0.127077 0)
(0.115092 -0.117811 0)
(0.12025 -0.18014 0)
(0.121383 -0.175745 0)
(0.12205 -0.170436 0)
(0.122234 -0.16427 0)
(0.121924 -0.157309 0)
(0.121122 -0.14962 0)
(0.119839 -0.141269 0)
(0.118094 -0.132319 0)
(0.115913 -0.122825 0)
(0.113326 -0.112833 0)
(0.11852 -0.183078 0)
(0.119881 -0.177688 0)
(0.120674 -0.171331 0)
(0.120872 -0.164082 0)
(0.120459 -0.156029 0)
(0.119437 -0.147264 0)
(0.117823 -0.137874 0)
(0.115646 -0.127942 0)
(0.112946 -0.117536 0)
(0.109765 -0.106712 0)
(0.114902 -0.186632 0)
(0.116582 -0.180055 0)
(0.117579 -0.172419 0)
(0.117845 -0.163838 0)
(0.117356 -0.154438 0)
(0.116115 -0.14435 0)
(0.114146 -0.133696 0)
(0.111491 -0.122583 0)
(0.108203 -0.111098 0)
(0.104337 -0.0992994 0)
(0.10917 -0.191032 0)
(0.111307 -0.183051 0)
(0.11262 -0.173868 0)
(0.113029 -0.163651 0)
(0.112504 -0.152591 0)
(0.111058 -0.140868 0)
(0.108738 -0.128635 0)
(0.105611 -0.116022 0)
(0.101762 -0.103121 0)
(0.0972732 -0.0899692 0)
(0.100935 -0.196615 0)
(0.10373 -0.186985 0)
(0.105523 -0.175891 0)
(0.106186 -0.163596 0)
(0.105714 -0.1504 0)
(0.104179 -0.136577 0)
(0.101685 -0.122373 0)
(0.0983591 -0.108001 0)
(0.0943551 -0.0936668 0)
(0.0898401 -0.079522 0)
(0.0895849 -0.203863 0)
(0.093385 -0.192278 0)
(0.0959895 -0.178694 0)
(0.0971492 -0.163678 0)
(0.0968993 -0.14806 0)
(0.0954565 -0.132545 0)
(0.0930977 -0.117392 0)
(0.0899487 -0.102581 0)
(0.0857926 -0.0882881 0)
(0.0807359 -0.0740299 0)
(0.0742001 -0.21352 0)
(0.0796546 -0.199723 0)
(0.0836267 -0.183071 0)
(0.0856674 -0.165625 0)
(0.0854416 -0.148643 0)
(0.0828312 -0.131695 0)
(0.0792495 -0.114556 0)
(0.0756964 -0.0977143 0)
(0.0698018 -0.081389 0)
(0.057137 -0.0672898 0)
(0.0531669 -0.226587 0)
(0.0603795 -0.211384 0)
(0.0663782 -0.191729 0)
(0.0707019 -0.170368 0)
(0.0713908 -0.147733 0)
(0.0602594 -0.123208 0)
(0.0558982 -0.10893 0)
(0.0538234 -0.0880074 0)
(0.0622902 -0.0486498 0)
(0.0617081 -0.0272959 0)
(0.0244908 -0.242769 0)
(0.0321804 -0.229528 0)
(0.0401935 -0.211499 0)
(0.0534668 -0.18159 0)
(0.1035 -0.11989 0)
(0.107167 -0.0995154 0)
(0.106624 -0.0912205 0)
(0.108503 -0.0855674 0)
(0.108639 -0.0647045 0)
(0.107699 -0.0380821 0)
(-0.00858596 -0.26003 0)
(-0.000807395 -0.25395 0)
(0.00695185 -0.249709 0)
(0.0166872 -0.244043 0)
(0.0637557 -0.199934 0)
(0.0824365 -0.14966 0)
(0.10369 -0.111071 0)
(0.109308 -0.0912706 0)
(0.112229 -0.0669959 0)
(0.117348 -0.0382259 0)
(-0.0401687 -0.273561 0)
(-0.0340086 -0.270513 0)
(-0.0288548 -0.266822 0)
(-0.0250802 -0.261824 0)
(-0.019864 -0.255085 0)
(0.0204964 -0.216331 0)
(0.0594499 -0.156903 0)
(0.0746598 -0.115359 0)
(0.0861619 -0.0792543 0)
(0.094238 -0.0399055 0)
(-0.0663728 -0.282935 0)
(-0.0614901 -0.280108 0)
(-0.0567311 -0.277172 0)
(-0.0529109 -0.273946 0)
(-0.0497303 -0.270123 0)
(-0.0451253 -0.265209 0)
(-0.0152821 -0.233942 0)
(0.0190402 -0.158168 0)
(0.0425025 -0.104259 0)
(0.0548298 -0.0557945 0)
(-0.0860405 -0.291803 0)
(-0.0811794 -0.288734 0)
(-0.0764731 -0.285411 0)
(-0.0722981 -0.282089 0)
(-0.0690604 -0.278362 0)
(-0.0664252 -0.273674 0)
(-0.0624634 -0.265653 0)
(-0.0492907 -0.241188 0)
(-0.011398 -0.168487 0)
(0.0209331 -0.0853174 0)
(-0.100058 -0.302372 0)
(-0.0938912 -0.298858 0)
(-0.0879816 -0.294548 0)
(-0.0825916 -0.289735 0)
(-0.078004 -0.284622 0)
(-0.0744247 -0.279301 0)
(-0.0712225 -0.273108 0)
(-0.0668429 -0.264393 0)
(-0.0584834 -0.250024 0)
(-0.0327853 -0.216986 0)
(-0.110438 -0.316593 0)
(-0.102069 -0.312866 0)
(-0.0937865 -0.307872 0)
(-0.0858316 -0.301767 0)
(-0.0785038 -0.294709 0)
(-0.0721478 -0.286889 0)
(-0.0668762 -0.278605 0)
(-0.0624743 -0.270193 0)
(-0.0579991 -0.260901 0)
(-0.0512932 -0.247288 0)
(-0.119888 -0.335606 0)
(-0.108954 -0.332136 0)
(-0.0978485 -0.326983 0)
(-0.0867814 -0.32023 0)
(-0.0759926 -0.311958 0)
(-0.0657728 -0.302235 0)
(-0.0564879 -0.29111 0)
(-0.0485226 -0.278772 0)
(-0.0419999 -0.265854 0)
(-0.0363786 -0.252535 0)
(-0.1309 -0.359606 0)
(-0.117479 -0.356937 0)
(-0.103619 -0.352216 0)
(-0.0895048 -0.345481 0)
(-0.0753358 -0.33677 0)
(-0.0613269 -0.326115 0)
(-0.0477138 -0.313523 0)
(-0.034809 -0.298943 0)
(-0.0230462 -0.282311 0)
(-0.0126816 -0.263697 0)
(-0.145175 -0.38805 0)
(-0.129671 -0.386683 0)
(-0.113512 -0.38292 0)
(-0.0968771 -0.37678 0)
(-0.0799556 -0.36829 0)
(-0.0629373 -0.357472 0)
(-0.0460095 -0.344339 0)
(-0.0293553 -0.328876 0)
(-0.0131796 -0.310998 0)
(0.0022574 -0.290491 0)
(-0.163131 -0.41994 0)
(-0.146064 -0.420246 0)
(-0.128188 -0.417781 0)
(-0.109704 -0.412555 0)
(-0.0908236 -0.40459 0)
(-0.0717571 -0.393911 0)
(-0.0527184 -0.380534 0)
(-0.0339192 -0.364456 0)
(-0.0155676 -0.345644 0)
(0.00212025 -0.323997 0)
(-0.183897 -0.454293 0)
(-0.165718 -0.456573 0)
(-0.146592 -0.455645 0)
(-0.126743 -0.451516 0)
(-0.106401 -0.444201 0)
(-0.0857929 -0.433716 0)
(-0.0651484 -0.420066 0)
(-0.0447024 -0.403233 0)
(-0.0246959 -0.383166 0)
(-0.00537875 -0.359777 0)
(-0.205794 -0.4903 0)
(-0.186897 -0.494862 0)
(-0.166915 -0.495735 0)
(-0.146089 -0.492935 0)
(-0.12465 -0.486489 0)
(-0.102815 -0.476419 0)
(-0.0807912 -0.462724 0)
(-0.0587845 -0.445367 0)
(-0.0370081 -0.424269 0)
(-0.0156973 -0.399295 0)
(-0.226695 -0.52721 0)
(-0.207461 -0.53435 0)
(-0.187037 -0.537275 0)
(-0.165677 -0.536051 0)
(-0.143608 -0.530752 0)
(-0.121019 -0.52144 0)
(-0.0980669 -0.508138 0)
(-0.0748902 -0.490807 0)
(-0.0516228 -0.469332 0)
(-0.0284284 -0.443493 0)
(-0.244298 -0.564277 0)
(-0.22509 -0.5742 0)
(-0.204665 -0.579318 0)
(-0.1833 -0.579796 0)
(-0.161226 -0.575807 0)
(-0.138604 -0.567505 0)
(-0.115547 -0.554985 0)
(-0.092114 -0.538251 0)
(-0.0683414 -0.517175 0)
(-0.0442627 -0.491434 0)
(-0.256348 -0.600908 0)
(-0.237433 -0.613631 0)
(-0.217379 -0.620862 0)
(-0.196497 -0.622918 0)
(-0.175022 -0.620115 0)
(-0.153109 -0.612742 0)
(-0.130845 -0.601016 0)
(-0.108255 -0.585046 0)
(-0.0853162 -0.564774 0)
(-0.061866 -0.539865 0)
(-0.260681 -0.636951 0)
(-0.242227 -0.6522 0)
(-0.222799 -0.661231 0)
(-0.202704 -0.664539 0)
(-0.182156 -0.662601 0)
(-0.161289 -0.655857 0)
(-0.140162 -0.644677 0)
(-0.118782 -0.629338 0)
(-0.0970602 -0.609992 0)
(-0.0744906 -0.586563 0)
(-0.255274 -0.672241 0)
(-0.237582 -0.689555 0)
(-0.219146 -0.700003 0)
(-0.200142 -0.704287 0)
(-0.180723 -0.703039 0)
(-0.160969 -0.696853 0)
(-0.140889 -0.686276 0)
(-0.12044 -0.671809 0)
(-0.0994134 -0.653908 0)
(-0.0768955 -0.632945 0)
(-0.238962 -0.705469 0)
(-0.222632 -0.724531 0)
(-0.205863 -0.736207 0)
(-0.188552 -0.741428 0)
(-0.170729 -0.740974 0)
(-0.152458 -0.735555 0)
(-0.133749 -0.725882 0)
(-0.114579 -0.712684 0)
(-0.0947439 -0.696725 0)
(-0.0733611 -0.678838 0)
(-0.212217 -0.734708 0)
(-0.198162 -0.755254 0)
(-0.183757 -0.76824 0)
(-0.168789 -0.774625 0)
(-0.15313 -0.775243 0)
(-0.136837 -0.770829 0)
(-0.120019 -0.762172 0)
(-0.102773 -0.750145 0)
(-0.0850594 -0.735717 0)
(-0.0663757 -0.720013 0)
(-0.175775 -0.758396 0)
(-0.165766 -0.780059 0)
(-0.154422 -0.794664 0)
(-0.142216 -0.802747 0)
(-0.129018 -0.804912 0)
(-0.114923 -0.801782 0)
(-0.100201 -0.7941 0)
(-0.0851437 -0.78279 0)
(-0.0699772 -0.768936 0)
(-0.0547015 -0.753803 0)
(-0.131799 -0.774568 0)
(-0.127182 -0.797614 0)
(-0.119696 -0.814619 0)
(-0.110403 -0.825369 0)
(-0.0995408 -0.829879 0)
(-0.0874204 -0.828475 0)
(-0.0745168 -0.821763 0)
(-0.0613599 -0.810655 0)
(-0.0484438 -0.796295 0)
(-0.036172 -0.779989 0)
(-0.0846722 -0.779444 0)
(-0.0849174 -0.80646 0)
(-0.0816063 -0.827805 0)
(-0.0750399 -0.842823 0)
(-0.0660116 -0.850856 0)
(-0.0552632 -0.85183 0)
(-0.0435409 -0.846205 0)
(-0.0316097 -0.834906 0)
(-0.0201783 -0.81917 0)
(-0.00986082 -0.800386 0)
(-0.0379896 -0.769378 0)
(-0.0432043 -0.806355 0)
(-0.0428664 -0.83508 0)
(-0.0381585 -0.856431 0)
(-0.0300712 -0.869329 0)
(-0.0198322 -0.873398 0)
(-0.00846539 -0.869062 0)
(0.00309485 -0.857372 0)
(0.0140308 -0.83976 0)
(0.0236589 -0.817773 0)
(0.00317967 -0.745219 0)
(-0.00637661 -0.799936 0)
(-0.00664156 -0.839505 0)
(-0.00203737 -0.868822 0)
(0.0062984 -0.887471 0)
(0.0169126 -0.895025 0)
(0.0286437 -0.892058 0)
(0.0405176 -0.879886 0)
(0.0517239 -0.860227 0)
(0.0616024 -0.834835 0)
(0.0341694 -0.713429 0)
(0.0241401 -0.792941 0)
(0.025919 -0.845157 0)
(0.0319526 -0.882833 0)
(0.0413725 -0.907183 0)
(0.0528481 -0.918028 0)
(0.0652721 -0.91625 0)
(0.0777486 -0.903519 0)
(0.0895637 -0.881869 0)
(0.100158 -0.853277 0)
(0.0543181 -0.683208 0)
(0.0495544 -0.790601 0)
(0.0549133 -0.854468 0)
(0.062735 -0.899706 0)
(0.0733348 -0.929048 0)
(0.0856785 -0.942654 0)
(0.0987766 -0.94177 0)
(0.111835 -0.928433 0)
(0.124254 -0.904988 0)
(0.135588 -0.873624 0)
(0.0615313 -0.672863 0)
(0.0681109 -0.798046 0)
(0.0770981 -0.869118 0)
(0.0873268 -0.920116 0)
(0.0994939 -0.953314 0)
(0.112937 -0.968952 0)
(0.126854 -0.968555 0)
(0.140584 -0.954487 0)
(0.153648 -0.929377 0)
(0.165706 -0.895604 0)
(0.0681765 -0.690169 0)
(0.0818978 -0.81664 0)
(0.0924102 -0.889762 0)
(0.104766 -0.94436 0)
(0.118662 -0.980348 0)
(0.133501 -0.997343 0)
(0.148572 -0.996982 0)
(0.163301 -0.981958 0)
(0.177317 -0.955175 0)
(0.190368 -0.919183 0)
(0.0733839 -0.717022 0)
(0.087296 -0.838983 0)
(0.0991636 -0.913888 0)
(0.113877 -0.97219 0)
(0.130009 -1.01087 0)
(0.146816 -1.02885 0)
(0.163593 -1.02815 0)
(0.179858 -1.01197 0)
(0.195383 -0.983576 0)
(0.210045 -0.945609 0)
(0.066158 -0.747423 0)
(0.0822273 -0.865787 0)
(0.0967875 -0.943629 0)
(0.114709 -1.00583 0)
(0.133661 -1.0467 0)
(0.152802 -1.0649 0)
(0.171518 -1.06326 0)
(0.189509 -1.04576 0)
(0.206766 -1.01603 0)
(0.223487 -0.976738 0)
(0.053145 -0.783168 0)
(0.0724852 -0.899003 0)
(0.0903899 -0.980305 0)
(0.110929 -1.04555 0)
(0.131803 -1.08749 0)
(0.152367 -1.10487 0)
(0.172158 -1.1016 0)
(0.191028 -1.08258 0)
(0.209178 -1.05181 0)
(0.227233 -1.01187 0)
(0.0473323 -0.82363 0)
(0.0663903 -0.936277 0)
(0.0849259 -1.01962 0)
(0.105331 -1.08713 0)
(0.125944 -1.12965 0)
(0.146182 -1.14571 0)
(0.165571 -1.14052 0)
(0.184034 -1.11993 0)
(0.201973 -1.08824 0)
(0.220354 -1.04781 0)
(0.0396754 -0.865909 0)
(0.0583097 -0.973644 0)
(0.0769598 -1.05764 0)
(0.0963109 -1.12695 0)
(0.115494 -1.16993 0)
(0.13415 -1.18451 0)
(0.151972 -1.1775 0)
(0.169127 -1.15569 0)
(0.18635 -1.12342 0)
(0.204522 -1.0829 0)
(0.0316289 -0.907424 0)
(0.0492583 -1.01005 0)
(0.0670473 -1.09314 0)
(0.0845381 -1.16321 0)
(0.101312 -1.20612 0)
(0.117251 -1.21899 0)
(0.132453 -1.21047 0)
(0.147498 -1.18807 0)
(0.163404 -1.15574 0)
(0.179932 -1.11503 0)
(0.0228188 -0.946319 0)
(0.0390204 -1.04393 0)
(0.0554769 -1.12499 0)
(0.0708207 -1.19449 0)
(0.0846714 -1.2365 0)
(0.0971792 -1.2474 0)
(0.109151 -1.23798 0)
(0.121644 -1.21611 0)
(0.135817 -1.18522 0)
(0.148994 -1.14647 0)
(0.0133547 -0.981573 0)
(0.0279044 -1.07494 0)
(0.0429765 -1.15324 0)
(0.0562989 -1.22048 0)
(0.0670788 -1.26011 0)
(0.0757856 -1.26861 0)
(0.0841713 -1.2589 0)
(0.0935009 -1.23864 0)
(0.104769 -1.21045 0)
(0.11409 -1.17456 0)
(0.00427403 -1.01309 0)
(0.0173562 -1.10338 0)
(0.0311498 -1.17841 0)
(0.0426828 -1.24145 0)
(0.0504824 -1.27655 0)
(0.0554357 -1.28208 0)
(0.060255 -1.27222 0)
(0.0659444 -1.25387 0)
(0.0732542 -1.22891 0)
(0.0788714 -1.19691 0)
(-0.00290042 -1.0411 0)
(0.00924174 -1.12937 0)
(0.0218259 -1.20079 0)
(0.0316529 -1.25803 0)
(0.03677 -1.28632 0)
(0.0386668 -1.28896 0)
(0.040917 -1.27903 0)
(0.0438434 -1.2623 0)
(0.0478679 -1.24041 0)
(0.051281 -1.21253 0)
(-0.00678203 -1.06684 0)
(0.00432692 -1.15295 0)
(0.0156304 -1.22039 0)
(0.0236032 -1.27076 0)
(0.0263527 -1.29054 0)
(0.0258654 -1.29138 0)
(0.0265834 -1.28192 0)
(0.0278046 -1.26644 0)
(0.0298451 -1.24658 0)
(0.0325698 -1.22115 0)
(-0.00729542 -1.09221 0)
(0.00211663 -1.17448 0)
(0.0122077 -1.23751 0)
(0.018194 -1.28001 0)
(0.0191665 -1.29039 0)
(0.016592 -1.29068 0)
(0.016335 -1.28246 0)
(0.0163677 -1.268 0)
(0.0171602 -1.24973 0)
(0.0192975 -1.22581 0)
(-0.00285511 -1.11758 0)
(0.00347098 -1.1936 0)
(0.0119031 -1.25184 0)
(0.0155263 -1.28523 0)
(0.0155332 -1.28681 0)
(0.0109236 -1.28727 0)
(0.0101756 -1.28143 0)
(0.00954865 -1.26754 0)
(0.00919948 -1.25113 0)
(0.00942302 -1.23117 0)
(0.0073077 -1.13585 0)
(0.00983776 -1.20577 0)
(0.0154631 -1.26083 0)
(0.0152953 -1.2847 0)
(0.0146354 -1.28003 0)
(0.00768383 -1.28115 0)
(0.00670189 -1.27952 0)
(0.00591427 -1.26549 0)
(0.00406553 -1.24976 0)
(0.00121623 -1.23624 0)
(0.0164164 -1.13692 0)
(0.0147851 -1.20786 0)
(0.018964 -1.26439 0)
(0.0141846 -1.27887 0)
(0.0137844 -1.27107 0)
(0.00453412 -1.27283 0)
(0.00347211 -1.27693 0)
(0.00250249 -1.26303 0)
(-0.00023046 -1.24306 0)
(-0.00491232 -1.23072 0)
(0.0120022 -1.14756 0)
(0.009742 -1.20908 0)
(0.0179268 -1.26855 0)
(0.00989502 -1.27105 0)
(0.0117859 -1.26179 0)
(0.000734943 -1.26348 0)
(0.000314764 -1.27279 0)
(-0.00208659 -1.26298 0)
(-0.00290281 -1.2331 0)
(-0.00794118 -1.21371 0)
(0.00462383 -1.13427 0)
(0.00347366 -1.21428 0)
(0.0189797 -1.27485 0)
(0.00603811 -1.26198 0)
(0.0103343 -1.25237 0)
(-0.00277664 -1.25344 0)
(-0.00124199 -1.26486 0)
(-0.00849434 -1.26721 0)
(-0.00189518 -1.22522 0)
(-0.00501738 -1.1817 0)
(0.00102734 -1.09408 0)
(-0.00254249 -1.22811 0)
(0.0243213 -1.27818 0)
(0.00382509 -1.25013 0)
(0.00968424 -1.24217 0)
(-0.00502584 -1.24278 0)
(-0.000640629 -1.25192 0)
(-0.0172421 -1.27286 0)
(0.00374942 -1.22998 0)
(-0.000757641 -1.12806 0)
(0.0113002 -1.02593 0)
(-0.0132923 -1.26296 0)
(0.028411 -1.27643 0)
(0.000615156 -1.23682 0)
(0.00832787 -1.23219 0)
(-0.0051154 -1.23276 0)
(0.00325902 -1.23729 0)
(-0.0235645 -1.27439 0)
(0.0160517 -1.26626 0)
(-0.00784864 -1.04415 0)
(0.089003 -0.0112482 0)
(0.0977422 -0.0105365 0)
(0.105834 -0.00973262 0)
(0.113221 -0.00885361 0)
(0.119848 -0.00791281 0)
(0.125664 -0.00691886 0)
(0.130627 -0.00587887 0)
(0.134704 -0.00479906 0)
(0.137868 -0.00368334 0)
(0.140098 -0.00252956 0)
(0.141388 -0.00132428 0)
(0.141754 -6.41732e-05 0)
(0.141047 0.00116945 0)
(0.139389 0.00233772 0)
(0.136882 0.00341413 0)
(0.133598 0.00437816 0)
(0.129609 0.00522283 0)
(0.124994 0.00595137 0)
(0.119832 0.00657202 0)
(0.114196 0.00709491 0)
(0.108154 0.00753002 0)
(0.101768 0.00788686 0)
(0.0950956 0.00817329 0)
(0.0881913 0.00839555 0)
(0.0811061 0.00855707 0)
(0.0738914 0.00865731 0)
(0.0666016 0.00869084 0)
(0.0592984 0.00864525 0)
(0.0520564 0.0084981 0)
(0.0449708 0.00821217 0)
(0.0381671 0.00772829 0)
(0.0318146 0.00695636 0)
(0.0261393 0.00577157 0)
(0.0214228 0.00403108 0)
(0.0179739 0.00161335 0)
(0.0161012 -0.00143475 0)
(0.0160185 -0.00356328 0)
(0.0151433 0.00253107 0)
(0.0104411 0.00671657 0)
(0.00398919 0.00649564 0)
(0.0792099 -0.0235248 0)
(0.0863987 -0.0218992 0)
(0.0930239 -0.0201054 0)
(0.0990359 -0.0181617 0)
(0.104394 -0.0160861 0)
(0.109062 -0.0138981 0)
(0.113012 -0.0116187 0)
(0.116225 -0.00927042 0)
(0.118693 -0.00687592 0)
(0.120423 -0.0044569 0)
(0.12143 -0.00203362 0)
(0.121746 0.000372675 0)
(0.121469 0.00271435 0)
(0.120604 0.00493517 0)
(0.119149 0.00700174 0)
(0.117122 0.00889674 0)
(0.114559 0.0106124 0)
(0.111497 0.0121474 0)
(0.107977 0.0135056 0)
(0.104039 0.0146947 0)
(0.0997258 0.0157241 0)
(0.0950773 0.0166037 0)
(0.0901336 0.017342 0)
(0.0849335 0.0179452 0)
(0.0795154 0.018415 0)
(0.0739181 0.0187466 0)
(0.0681822 0.0189268 0)
(0.0623509 0.0189305 0)
(0.056472 0.0187179 0)