/*--------------------------------*- C++ -*----------------------------------*\
  =========                 |
  \\      /  F ield         | OpenFOAM: The Open Source CFD Toolbox
   \\    /   O peration     | Website:  https://openfoam.org
    \\  /    A nd           | Version:  8
     \\/     M anipulation  |
\*---------------------------------------------------------------------------*/
FoamFile
{
    version     2.0;
    format      ascii;
    class       volScalarField;
    location    "3.3";
    object      alpha.water;
}
// * * * * * * * * * * * * * * * * * * * * * * * * * * * * * * * * * * * * * //

dimensions      [0 0 0 0 0 0 0];

internalField   nonuniform List<scalar> 
9150
(
1
1
1
1
1
1
1
1
1
1
1
1
1
1
1
1
1
1
1
1
1
1
1
1
1
1
1
1
1
1
1
1
1
1
1
1
1
1
1
1
1
1
1
1
1
1
1
1
1
1
1
1
1
1
1
1
1
1
1
1
1
1
1
1
1
1
1
1
1
1
1
1
1
1
1
1
1
1
1
1
1
1
1
1
1
1
1
1
1
1
1
1
1
1
1
1
1
1
1
1
1
1
1
1
1
1
1
1
1
1
1
1
1
1
1
1
1
1
1
1
1
1
1
1
1
1
1
1
1
1
1
1
1
1
1
1
1
1
1
1
1
1
1
1
1
1
1
1
1
1
0.971259
0.970556
0.970555
0.970704
0.971297
0.971296
0.968354
0.937185
0.943899
0.943884
0.971274
0.971284
0.970833
0.971298
0.971297
0.971291
0.883845
0.743871
0.743808
0.744481
0.914549
0.971297
0.971298
0.971298
0.971298
0.971275
0.854138
0.743845
0.743891
0.745344
0.879583
0.938772
0.971298
0.9713
0.970987
0.965788
0.968922
0.965385
0.965296
0.965261
0.879626
0.938967
0.971296
0.971302
0.971301
0.971301
0.971301
0.971282
0.965059
0.965058
0.918672
0.971295
0.971302
0.971302
0.971302
0.971301
0.968491
0.970671
0.970387
0.967103
0.97125
0.971302
0.971302
0.971302
0.952887
0.834896
0.799096
0.942936
0.969642
0.968641
0.971302
0.971302
0.971302
0.971302
0.854451
0.798058
0.797943
0.797829
0.899383
0.967006
0.971302
0.971302
0.971302
0.971302
0.971302
0.889893
0.797829
0.797829
0.797829
0.830401
0.971302
0.971172
0.971116
0.971292
0.971302
0.971302
0.971169
0.832714
0.798572
0.824619
0.971304
0.971302
0.971302
0.971302
0.971302
0.971302
0.971301
0.929241
0.895373
0.950839
0.971304
0.971304
0.971302
0.971302
0.971302
0.971301
0.971292
0.971056
0.970865
0.970644
0.408602
0.546927
0.890686
0.968561
0.971296
0.971299
0.971278
0.970784
0.970631
0.970433
0.272053
0.556946
0.656319
0.72827
0.923256
0.908324
0.839826
0.824959
0.861041
0.85427
0.399106
0.70415
0.71346
0.722069
0.721175
0.582491
0.429001
0.429012
0.428993
0.430593
0.629467
0.507216
0.709335
0.675235
0.518812
0.670302
0.600651
0.527468
0.73856
0.942933
0.492392
0.38418
0.369103
0.323593
0.305508
0.646032
0.932128
0.943075
0.944945
0.945239
0.252928
0.250676
0.257689
0.284801
0.305508
0.348124
0.606132
0.852049
0.943095
0.944965
0.251301
0.334087
0.683297
0.551207
0.359344
0.365241
0.42567
0.487636
0.720242
0.547855
0.256698
0.625033
0.867744
0.875483
0.654374
0.443177
0.426925
0.450331
0.475992
0.494308
0.280055
0.639361
0.875483
0.885764
0.493296
0.439985
0.513673
0.813309
0.90024
0.918398
0.651403
0.465925
0.82688
0.904118
0.497333
0.463361
0.884674
0.966694
0.966741
0.96674
0.92206
0.465925
0.503403
0.920433
0.825655
0.760523
0.957977
0.966619
0.966694
0.966768
0.946869
0.474216
0.46934
0.914453
0.956298
0.956784
0.957506
0.96604
0.965922
0.96667
0.938935
0.482924
0.46934
0.905183
0.956259
0.956361
0.956745
0.924293
0.872899
0.965467
0.874431
0.485416
0.61002
0.942993
0.955502
0.956259
0.95308
0.511157
0.364718
0.858549
0.845454
0.483915
0.754352
0.954846
0.954846
0.955502
0.664864
0.22091
0.211236
0.595097
0.79057
0.386919
0.765028
0.954624
0.954846
0.869805
0.275059
0.209544
0.209513
0.314514
0.672722
0.37081
0.764411
0.951582
0.9546
0.675047
0.209501
0.209509
0.209503
0.209514
0.423865
0.369265
0.845976
0.948722
0.929528
0.588612
0.209975
0.209503
0.209503
0.209498
0.343257
0.366604
0.874555
0.948135
0.847882
0.597232
0.438516
0.209509
0.209498
0.209492
0.343163
0.343314
0.695236
0.946032
0.805005
0.665204
0.670344
0.362991
0.209492
0.209492
0.343314
0.342494
0.447504
0.93862
0.862369
0.677545
0.678629
0.68193
0.209543
0.209492
0.342494
0.335167
0.336352
0.839984
0.887045
0.663859
0.661074
0.774138
0.465394
0.209543
0.522666
0.314487
0.30621
0.689892
0.890264
0.688393
0.658872
0.777654
0.75976
0.209665
0.948179
0.615144
0.287809
0.577857
0.890469
0.857739
0.658877
0.781011
0.877414
0.287586
0.962857
0.79675
0.285689
0.497602
0.890264
0.886392
0.658872
0.833831
0.959949
0.651069
0.96228
0.656567
0.28515
0.383839
0.89488
0.897778
0.660914
0.940159
0.962673
0.885484
0.947823
0.444059
0.28515
0.306787
0.887608
0.924879
0.779706
0.962653
0.963168
0.963788
0.961829
0.570879
0.283013
0.272582
0.695201
0.930112
0.956639
0.939629
0.963447
0.964764
0.961977
0.813881
0.374615
0.257773
0.621306
0.80271
0.958171
0.95963
0.964764
0.964764
0.83814
0.938748
0.538679
0.2457
0.688769
0.735663
0.952803
0.908804
0.793918
0.964764
0.144311
0.85712
0.536506
0.237646
0.725993
0.732499
0.942386
0.872221
0.673395
0.838705
0.0126562
0.229944
0.446187
0.178716
0.723395
0.722135
0.645007
0.781009
0.674445
0.504478
0.00480514
0.0570536
0.354775
0.103284
0.722954
0.723306
0.721562
0.704629
0.426881
0.331383
0.00359853
0.00517365
0.20746
0.078641
0.72568
0.72568
0.495987
0.29691
0.00659204
0.0669495
0.0108089
0.0177983
0.015898
0.0331789
0.72568
0.723849
0.0631248
0.00185038
0.000813295
0.000529152
0.00987403
0.00836703
0.00101836
0.00661021
0.724372
0.729503
0.00614252
0.000890144
0.000767812
0.000590246
0.000462032
0.000351583
0.000260142
0.0135541
0.726747
0.731007
0.0195036
0.000967981
0.00246973
0.00252206
0.000327542
0.000262377
0.000143943
0.0218991
0.728145
0.732262
0.0256808
2.68015e-05
2.47399e-05
0.000194361
0.000749665
0.000950656
5.1115e-05
0.025238
0.729812
0.732741
0.0305643
2.43051e-05
2.2262e-05
2.00678e-05
0.00135068
0.0013507
2.98481e-05
0.0266096
0.730724
0.732741
0.0319547
2.25438e-05
6.2576e-05
0.000103473
0.00135073
0.00135068
2.27466e-05
0.028239
0.734004
0.732957
0.0295645
1.10957e-05
9.72329e-05
0.000242043
0.00135038
0.00134968
1.5297e-05
0.0284091
0.737604
0.728634
0.0258487
1.05594e-05
5.88041e-05
0.000242043
0.00134565
0.00105944
1.36239e-05
0.0240174
0.738443
0.731705
0.0145749
1.05406e-05
2.07963e-05
0.000198178
0.000462691
0.00045064
1.19596e-05
0.0118207
0.742099
0.737818
0.0088256
1.0268e-05
2.51455e-05
3.87559e-05
1.00166e-05
0.000156452
1.19596e-05
0.00657533
0.745712
0.748493
0.00822319
9.68878e-06
0.000124677
2.4155e-05
1.02545e-05
2.79907e-05
1.19196e-05
0.00793903
0.756098
0.7547
0.00639474
8.90665e-06
0.000126279
2.40825e-05
1.20489e-05
1.20825e-05
1.19693e-05
0.00986658
0.76305
0.762615
0.00870898
8.34304e-06
0.000126071
8.38069e-05
3.87124e-05
5.50826e-05
1.20825e-05
0.0122303
0.769455
0.770986
0.012382
8.29338e-06
2.69706e-05
0.000143372
3.45284e-05
0.000525274
1.26513e-05
0.0170459
0.779718
0.77918
0.0161846
8.29707e-06
8.29334e-06
0.000120126
5.93417e-05
0.000576905
1.44944e-05
0.0223074
0.789816
0.790256
0.0222355
8.29335e-06
8.47619e-06
1.4056e-05
0.000182711
0.000576824
1.62124e-05
0.0289297
0.800803
0.800167
0.0282319
8.48361e-06
1.03416e-05
9.49585e-06
0.000576785
0.000577112
1.76027e-05
0.0350294
0.810263
0.810891
0.0356215
9.84168e-06
0.000498571
0.000254944
0.000698144
0.000548357
2.09102e-05
0.0417443
0.819769
0.819167
0.0416892
1.56907e-05
0.000948951
0.00113722
0.000652881
0.000259576
2.43688e-05
0.048255
0.828124
0.827491
0.0481676
8.81932e-06
0.000982774
0.00128328
0.000505419
0.000135017
2.59819e-05
0.054244
0.835387
0.835273
0.0549118
7.91898e-06
0.000962172
0.00128961
0.000733381
0.000253933
2.74937e-05
0.0605191
0.842503
0.841807
0.060952
5.43573e-06
0.000756571
0.0012919
0.00118902
0.000731387
3.08431e-05
0.0667283
0.849182
0.848177
0.0670592
2.63677e-06
0.000523933
0.00129674
0.00118989
0.000888873
3.92807e-05
0.0727082
0.855529
0.854794
0.0736034
2.34709e-06
0.000125962
0.00119519
0.00119166
0.000623562
4.62368e-05
0.0796471
0.862454
0.861698
0.0804398
2.12772e-06
6.66172e-05
0.00101487
0.000787596
0.000302316
4.61928e-05
0.0875335
0.870009
0.869036
0.0879802
2.13637e-06
6.97155e-06
9.62476e-05
0.000294098
0.000135866
4.57662e-05
0.0957684
0.87769
0.877113
0.0964736
2.12768e-06
9.7786e-06
5.06584e-05
0.000281844
0.000250229
4.49547e-05
0.106244
0.886735
0.886103
0.106663
2.14567e-06
1.84311e-05
1.46096e-05
0.00017317
0.000383543
4.33778e-05
0.118107
0.896092
0.895486
0.118153
2.22644e-06
1.44029e-05
1.44858e-05
0.000375521
0.000381072
3.95872e-05
0.132168
0.906181
0.906156
0.132818
2.19329e-06
1.45915e-05
9.78599e-05
0.000739826
0.000481177
3.63442e-05
0.150549
0.917529
0.917408
0.151004
2.05895e-06
2.869e-05
0.000271127
0.000742036
0.000546369
3.39991e-05
0.173254
0.929376
0.928831
0.173498
2.04538e-06
3.9349e-06
0.000160952
0.000743162
0.000441253
3.2029e-05
0.201086
0.941146
0.939604
0.199684
2.03286e-06
1.94799e-06
2.68221e-05
0.000736921
0.000104769
3.16213e-05
0.231236
0.951205
0.949108
0.227929
1.95876e-06
1.81656e-06
1.7699e-06
0.000328349
9.07648e-05
3.11919e-05
0.258251
0.958473
0.957018
0.256356
2.10577e-06
4.89573e-05
1.26144e-06
0.000166029
0.000164926
3.00792e-05
0.280451
0.963658
0.962632
0.280314
2.71276e-06
0.000189078
2.73779e-06
0.00031841
0.000257445
2.72104e-05
0.297704
0.96746
0.966482
0.298132
1.48212e-06
0.000204947
0.000230583
0.000538271
0.00039273
2.26116e-05
0.31191
0.970711
0.969701
0.312389
5.26755e-07
0.000127323
0.000230625
0.000538321
0.000422436
1.8237e-05
0.327275
0.974354
0.973434
0.328502
3.69562e-07
2.32502e-05
0.000157007
0.000538271
0.000413647
1.41422e-05
0.35117
0.979057
0.978169
0.351814
3.35561e-07
3.69435e-07
2.94043e-07
0.00053832
0.000356385
1.0642e-05
0.393676
0.984795
0.984219
0.394086
2.94044e-07
2.94051e-07
2.94039e-07
0.000285515
0.00022865
9.3294e-06
0.456826
0.989663
0.990134
0.458803
2.94175e-07
2.94039e-07
2.94051e-07
2.92871e-05
3.85756e-05
8.2559e-06
0.53453
0.993001
0.993396
0.536726
2.98207e-07
2.94175e-07
3.03896e-07
6.66396e-06
6.29596e-06
6.66396e-06
0.608461
0.996884
0.99402
0.60913
3.73396e-07
2.98207e-07
1.35733e-05
5.10121e-05
5.78421e-06
3.6626e-06
0.704146
0.997572
0.996592
0.642036
5.36143e-07
4.24445e-07
2.26606e-05
8.82732e-05
6.18562e-07
7.03376e-07
0.734206
0.997757
0.998225
0.735311
7.07887e-07
5.36143e-07
1.98078e-05
6.63703e-05
6.21803e-07
6.21803e-07
0.715679
0.998136
0.999072
0.880526
0.0750952
3.16991e-07
2.81091e-06
1.85709e-05
6.18401e-07
0.0338981
0.82831
0.999056
0.999737
0.929403
0.176362
7.47608e-10
7.08123e-10
1.20257e-05
6.94649e-07
0.126723
0.892997
0.999734
0.999842
0.976032
0.319267
4.30812e-09
5.17908e-10
9.30083e-07
1.59261e-06
0.300623
0.970199
0.99984
0.999957
0.994358
0.501874
2.38831e-07
1.54898e-10
9.30083e-07
9.30083e-07
0.52517
0.997167
0.999956
0.999993
0.999962
0.783581
9.80009e-06
3.05277e-11
9.30083e-07
0.0257354
0.794488
0.999884
0.999996
0.999996
0.999994
0.947315
0.232014
-6.80023e-11
2.86143e-06
0.517612
0.998838
0.999996
1
1
0.999996
0.999835
0.638369
-6.21786e-09
0.28537
0.955165
1
1
1
1
1
1
0.979176
0.374115
0.819689
0.743087
0.743087
0.743087
0.745286
0.949151
0.966296
0.966553
0.966553
0.966553
0.966553
0.966553
0.966553
0.963969
0.963471
0.963471
0.965789
0.967271
0.967243
0.941498
0.935501
0.939819
0.970938
0.970975
0.970888
0.916067
0.728991
0.728989
0.728991
0.729013
0.729191
0.730507
0.887505
0.951014
0.951656
0.952267
0.952458
0.952582
0.952589
0.952589
0.743282
0.743267
0.743087
0.843366
0.960865
0.964767
0.957937
0.87274
0.95134
0.966553
0.966553
0.966553
0.966389
0.963481
0.963471
0.964109
0.96731
0.967297
0.967271
0.946238
0.935501
0.94846
0.970975
0.970888
0.89544
0.766722
0.815047
0.924677
0.888301
0.729191
0.730343
0.731907
0.734957
0.824623
0.822046
0.832498
0.932243
0.944644
0.952588
0.952589
0.891764
0.950046
0.961897
0.965149
0.959686
0.964719
0.94765
0.821325
0.821383
0.827676
0.85073
0.851505
0.883739
0.967293
0.9673
0.967316
0.96733
0.96731
0.967294
0.961515
0.935721
0.955488
0.970847
0.970635
0.868912
0.766722
0.775631
0.92513
0.925222
0.92107
0.925297
0.936334
0.936942
0.93755
0.843679
0.76655
0.76658
0.76654
0.947801
0.952588
0.964964
0.96515
0.96515
0.96515
0.965143
0.965112
0.89621
0.821383
0.821272
0.829742
0.947498
0.94792
0.947983
0.967304
0.967316
0.967334
0.967357
0.966707
0.965439
0.965357
0.968458
0.970716
0.970702
0.970716
0.968899
0.882135
0.747179
0.692716
0.688554
0.687903
0.69065
0.906175
0.917748
0.93755
0.93755
0.863269
0.766522
0.773185
0.951923
0.952567
0.965107
0.96515
0.96515
0.96515
0.965149
0.965147
0.965099
0.953649
0.934312
0.900939
0.905219
0.897055
0.934165
0.967304
0.967334
0.967357
0.967401
0.965951
0.965962
0.968568
0.96857
0.958651
0.941967
0.965647
0.969638
0.969638
0.934733
0.845436
0.769289
0.895644
0.686161
0.556138
0.556138
0.93694
0.936529
0.906886
0.766783
0.913308
0.951415
0.95229
0.965107
0.96515
0.96515
0.965149
0.959693
0.954334
0.945259
0.95305
0.906107
0.733125
0.726211
0.778084
0.888122
0.922891
0.938516
0.967275
0.967441
0.968469
0.968568
0.96857
0.96857
0.941824
0.935108
0.934861
0.959263
0.968996
0.968701
0.968823
0.960002
0.967831
0.968217
0.854951
0.558331
0.737288
0.929864
0.861229
0.924026
0.940126
0.939043
0.840935
0.968219
0.931633
0.965143
0.936701
0.743642
0.611508
0.686901
0.700085
0.662191
0.671708
0.752502
0.861934
0.879774
0.839703
0.837583
0.837755
0.946977
0.968567
0.968569
0.96857
0.968571
0.968571
0.937453
0.934861
0.934861
0.957109
0.968824
0.968823
0.968825
0.968731
0.968564
0.968217
0.759972
0.60861
0.885376
0.861253
0.875192
0.889556
0.781383
0.744606
0.968067
0.917815
0.880465
0.788062
0.464539
0.438974
0.438555
0.43847
0.516368
0.769267
0.886339
0.871469
0.921058
0.950716
0.911512
0.690084
0.675651
0.888822
0.968558
0.968569
0.96857
0.968566
0.968566
0.93816
0.934979
0.936378
0.968816
0.968824
0.929704
0.944877
0.968217
0.967833
0.905741
0.464083
0.675744
0.881293
0.939377
0.851518
0.744609
0.744591
0.931307
0.933494
0.881941
0.492408
0.438974
0.438555
0.43847
0.43847
0.43847
0.555391
0.908122
0.945467
0.950716
0.953079
0.953523
0.751208
0.651986
0.651838
0.673337
0.942025
0.968569
0.968562
0.968433
0.963694
0.962206
0.968316
0.968262
0.904793
0.853092
0.948951
0.967831
0.967836
0.834944
0.439952
0.502387
0.889709
0.967071
0.957404
0.822248
0.744609
0.960696
0.962679
0.962255
0.605302
0.439662
0.438703
0.438555
0.43847
0.438476
0.440774
0.583008
0.703578
0.792674
0.917713
0.956588
0.957288
0.957232
0.955124
0.697749
0.772026
0.939133
0.968408
0.968383
0.968198
0.968151
0.968203
0.942062
0.83589
0.851802
0.96376
0.967836
0.967863
0.683715
0.429482
0.42584
0.816119
0.969722
0.96988
0.96988
0.745767
0.964085
0.962654
0.962629
0.962226
0.930481
0.520728
0.438911
0.660463
0.788692
0.573297
0.463417
0.462419
0.462565
0.498239
0.889356
0.956588
0.957301
0.95642
0.878448
0.772234
0.830235
0.967221
0.968149
0.968039
0.968127
0.968154
0.909173
0.828661
0.872178
0.967679
0.967863
0.967874
0.680364
0.424825
0.42436
0.644258
0.968347
0.96988
0.969881
0.833207
0.970385
0.774142
0.742287
0.742436
0.742392
0.803223
0.831659
0.827178
0.816612
0.484744
0.465421
0.463417
0.462275
0.474285
0.817054
0.952213
0.956326
0.956581
0.955966
0.942057
0.757659
0.887781
0.967196
0.967858
0.968039
0.968127
0.826322
0.825251
0.951902
0.967831
0.967874
0.967875
0.777795
0.42436
0.424104
0.60823
0.964276
0.969881
0.96988
0.958229
0.967954
0.946669
0.754359
0.8389
0.953254
0.94389
0.850343
0.525157
0.496782
0.485303
0.471513
0.485299
0.758262
0.964425
0.946167
0.847356
0.865446
0.951878
0.954432
0.952489
0.792
0.573167
0.887717
0.967154
0.967858
0.930224
0.797701
0.86674
0.967689
0.967866
0.967876
0.967874
0.775944
0.424104
0.423969
0.588197
0.960973
0.969878
0.969881
0.969878
0.568308
0.58075
0.92612
0.961382
0.961111
0.82683
0.562499
0.535541
0.555181
0.761086
0.971331
0.972534
0.971716
0.970949
0.899296
0.485008
0.067095
0.233458
0.863699
0.951298
0.621686
0.56454
0.824068
0.966208
0.967154
0.860654
0.795387
0.857196
0.967716
0.967856
0.967866
0.965549
0.537167
0.423969
0.424104
0.686226
0.969529
0.969904
0.969878
0.95558
0.437086
0.668456
0.958913
0.961111
0.961411
0.959711
0.934441
0.969459
0.972502
0.972531
0.972534
0.972534
0.972534
0.800305
0.140033
0.0499435
0.0502772
0.0518121
0.452159
0.673182
0.499872
0.564978
0.907268
0.965853
0.96625
0.848542
0.792223
0.822965
0.96659
0.96785
0.967856
0.608767
0.426105
0.425465
0.480396
0.919366
0.9699
0.969938
0.96978
0.935158
0.945239
0.945274
0.927742
0.921486
0.941881
0.962514
0.971791
0.97243
0.972521
0.972533
0.972534
0.972534
0.945767
0.227315
0.049854
0.0496946
0.0499435
0.0502772
0.156003
0.3723
0.495625
0.769008
0.965322
0.965908
0.965853
0.882966
0.788789
0.787803
0.943641
0.96763
0.963188
0.566414
0.43039
0.522908
0.873726
0.969847
0.969938
0.969941
0.969941
0.966964
0.945274
0.945251
0.755438
0.457693
0.529176
0.676812
0.874455
0.971885
0.972473
0.972529
0.972534
0.972536
0.816935
0.107286
0.0496756
0.0496826
0.0496946
0.0499937
0.2934
0.634557
0.733002
0.831045
0.91268
0.96245
0.965908
0.965787
0.812823
0.786431
0.798142
0.966287
0.964911
0.852975
0.829661
0.91319
0.969794
0.969933
0.969941
0.969941
0.969941
0.969941
0.945239
0.699656
0.447284
0.446429
0.446429
0.446429
0.565044
0.951642
0.972338
0.97252
0.972535
0.972539
0.898297
0.128268
0.0497081
0.0496758
0.0612961
0.283364
0.721874
0.947433
0.96254
0.890337
0.886889
0.952213
0.965787
0.965447
0.871441
0.784437
0.783772
0.818525
0.94444
0.967594
0.969671
0.969878
0.969932
0.96994
0.969941
0.969941
0.969941
0.890918
0.458167
0.4539
0.451019
0.448364
0.446429
0.446544
0.62204
0.957527
0.972293
0.972517
0.972539
0.972544
0.972545
0.429416
0.0497081
0.0870419
0.493741
0.823273
0.966806
0.971359
0.971252
0.969439
0.955369
0.965251
0.965447
0.965251
0.817237
0.783772
0.783703
0.783772
0.854477
0.969671
0.969877
0.969929
0.969934
0.969933
0.926796
0.924061
0.747436
0.64302
0.487886
0.531654
0.627235
0.862091
0.886606
0.882132
0.938273
0.972479
0.972541
0.972538
0.972544
0.972546
0.972548
0.714868
0.0683002
0.494032
0.946797
0.971431
0.971675
0.97153
0.971352
0.970633
0.968163
0.965924
0.940066
0.820748
0.783778
0.783703
0.783699
0.783703
0.866519
0.969844
0.969929
0.969933
0.969932
0.921728
0.83523
0.924447
0.712045
0.556958
0.945026
0.963356
0.961505
0.960335
0.963185
0.970152
0.972583
0.972605
0.972533
0.972534
0.972538
0.972546
0.972549
0.848356
0.130911
0.955395
0.97165
0.971737
0.971721
0.971675
0.951325
0.847637
0.845193
0.83778
0.78868
0.783822
0.783705
0.783702
0.783703
0.811229
0.957067
0.969913
0.969929
0.96993
0.969932
0.888626
0.83523
0.923965
0.865468
0.55038
0.966766
0.96674
0.956954
0.871349
0.674809
0.726397
0.946259
0.972499
0.972534
0.972533
0.972535
0.972525
0.949043
0.81964
0.223024
0.97165
0.971748
0.971752
0.971746
0.971721
0.954041
0.808196
0.788762
0.787016
0.786619
0.786123
0.853317
0.791709
0.783699
0.853609
0.96986
0.969924
0.969927
0.962997
0.945888
0.901906
0.918721
0.923678
0.761884
0.516514
0.96674
0.889829
0.603323
0.391052
0.392721
0.519404
0.952307
0.972468
0.972493
0.972529
0.972436
0.70646
0.522599
0.647113
0.792435
0.971748
0.97175
0.971748
0.97175
0.971747
0.971434
0.946089
0.924007
0.889208
0.898738
0.907175
0.907442
0.789825
0.783813
0.889312
0.969905
0.969924
0.969924
0.829484
0.539114
0.652265
0.779674
0.829718
0.745971
0.802431
0.95962
0.555232
0.391052
0.391052
0.391052
0.602485
0.972375
0.972438
0.972469
0.972172
0.80713
0.26452
0.0989279
0.559972
0.838169
0.860623
0.822571
0.78525
0.79528
0.955676
0.971165
0.971492
0.97109
0.970164
0.89173
0.814875
0.848927
0.918132
0.906712
0.963134
0.969276
0.875186
0.608276
0.501829
0.501829
0.501829
0.784443
0.943158
0.862642
0.97168
0.931839
0.539967
0.391972
0.391052
0.392854
0.470459
0.961673
0.972375
0.923839
0.778954
0.672369
0.133688
0.0834407
0.208561
0.400167
0.180814
0.151568
0.128113
0.141091
0.474485
0.968204
0.971492
0.971492
0.928001
0.802898
0.804636
0.87683
0.956085
0.955109
0.940581
0.577879
0.508498
0.507325
0.504652
0.523246
0.88636
0.953824
0.97102
0.97168
0.97168
0.949114
0.893081
0.644449
0.435021
0.394757
0.397654
0.652847
0.865261
0.626508
0.542032
0.761767
0.174213
0.0807926
0.0809854
0.080093
0.079002
0.0787013
0.0784278
0.0783553
0.12362
0.863739
0.971492
0.956662
0.799597
0.801248
0.833731
0.959256
0.957569
0.954805
0.725371
0.577756
0.571042
0.789272
0.837402
0.935914
0.964316
0.964621
0.964911
0.97168
0.97168
0.952881
0.953044
0.953323
0.914434
0.547409
0.405293
0.406841
0.410022
0.41048
0.528405
0.926332
0.55191
0.0809854
0.0799426
0.0790021
0.0787013
0.0784278
0.0783667
0.0784278
0.353489
0.940671
0.971298
0.854723
0.799597
0.800621
0.959776
0.959565
0.959256
0.853634
0.573455
0.881098
0.950467
0.952634
0.953095
0.953095
0.950321
0.79217
0.801225
0.97155
0.97168
0.879175
0.953323
0.953323
0.953323
0.952852
0.822875
0.593508
0.436337
0.755951
0.928868
0.972051
0.946599
0.520237
0.279349
0.215256
0.157984
0.166913
0.34111
0.54357
0.895715
0.951762
0.890972
0.801203
0.799597
0.916543
0.959876
0.959776
0.959565
0.778361
0.31898
0.948572
0.952172
0.951989
0.952634
0.953095
0.878992
0.767311
0.767311
0.904846
0.97168
0.408168
0.952493
0.953323
0.952852
0.924737
0.863453
0.63796
0.452498
0.809611
0.972257
0.972247
0.972051
0.964641
0.913363
0.875153
0.826096
0.83182
0.880406
0.918335
0.922636
0.8696
0.804207
0.803159
0.860024
0.959876
0.959876
0.959876
0.928748
0.574469
0.225073
0.545814
0.540665
0.449692
0.744144
0.951649
0.827298
0.767311
0.777269
0.957509
0.97168
0.209656
0.696609
0.951817
0.799049
0.45615
0.420606
0.420758
0.454589
0.894331
0.972262
0.972266
0.971529
0.971511
0.970996
0.969343
0.966035
0.960983
0.937792
0.855188
0.813799
0.8077
0.806627
0.828291
0.958966
0.959424
0.959876
0.691079
0.38882
0.228873
0.221796
0.223426
0.223219
0.23615
0.594819
0.858613
0.880704
0.923241
0.935485
0.971679
0.971679
0.209512
0.287834
0.673471
0.524757
0.42111
0.420416
0.422914
0.793868
0.972358
0.972326
0.931891
0.899399
0.911927
0.969869
0.969778
0.968962
0.879097
0.809742
0.809469
0.809469
0.808585
0.900897
0.940371
0.95718
0.958966
0.624321
0.223254
0.222413
0.221696
0.221419
0.221551
0.222495
0.496452
0.700212
0.819151
0.963787
0.971676
0.971685
0.971678
0.971679
0.209492
0.209768
0.38242
0.653592
0.420418
0.421211
0.680418
0.972359
0.97236
0.972358
0.972326
0.971879
0.907434
0.755542
0.879403
0.96315
0.874009
0.810213
0.809742
0.833624
0.956013
0.95753
0.950089
0.83936
0.831538
0.389299
0.222413
0.221696
0.221544
0.221551
0.221474
0.333498
0.55927
0.813208
0.959329
0.969636
0.971642
0.971676
0.971676
0.971673
0.209543
0.21054
0.579779
0.81789
0.508806
0.432449
0.812003
0.97236
0.97236
0.97236
0.972348
0.9722
0.958722
0.638889
0.467561
0.809938
0.927346
0.929908
0.917948
0.957511
0.958192
0.95801
0.957531
0.795773
0.609865
0.405587
0.240499
0.227429
0.300688
0.441504
0.668968
0.85618
0.666685
0.660592
0.659471
0.781355
0.956166
0.971652
0.971672
0.96793
0.209665
0.229394
0.705717
0.827574
0.443216
0.442691
0.562594
0.97236
0.97236
0.97236
0.972344
0.972112
0.901672
0.515887
0.457545
0.47628
0.828432
0.957108
0.958069
0.958192
0.958205
0.958192
0.95801
0.886786
0.622803
0.524398
0.752341
0.797041
0.85918
0.921514
0.946706
0.947095
0.915004
0.66498
0.619079
0.619261
0.708963
0.956996
0.971619
0.952279
0.210574
0.220986
0.689075
0.858659
0.442897
0.443216
0.445573
0.678572
0.97236
0.972355
0.97229
0.959284
0.624174
0.443641
0.450977
0.457545
0.469979
0.662364
0.84476
0.947605
0.958192
0.958205
0.958179
0.957796
0.879247
0.800406
0.825668
0.941362
0.945117
0.946706
0.947095
0.947092
0.947092
0.901324
0.620654
0.618953
0.619125
0.830796
0.97136
0.952195
0.209946
0.216217
0.719042
0.948504
0.941017
0.594339
0.466733
0.879367
0.972355
0.97229
0.972138
0.960139
0.626742
0.433395
0.441756
0.551225
0.510615
0.530829
0.580181
0.874559
0.958198
0.958188
0.957953
0.889179
0.810713
0.802582
0.804903
0.80573
0.808697
0.895456
0.947026
0.947096
0.9086
0.62951
0.619509
0.619245
0.619125
0.769782
0.967197
0.962333
0.209945
0.209171
0.272422
0.814088
0.970529
0.971116
0.958993
0.929605
0.959494
0.972142
0.972004
0.970855
0.71802
0.414848
0.649796
0.90111
0.692091
0.545833
0.748107
0.958177
0.958188
0.95818
0.958094
0.943448
0.83935
0.827069
0.847695
0.801721
0.801721
0.812556
0.946145
0.947026
0.94672
0.920632
0.850762
0.619509
0.679996
0.878854
0.965508
0.964416
0.291829
0.208925
0.208346
0.241641
0.720826
0.971339
0.972187
0.972203
0.972206
0.972203
0.972127
0.971175
0.718442
0.400359
0.759863
0.899613
0.901444
0.892975
0.957561
0.95785
0.958177
0.952107
0.903108
0.904391
0.922764
0.922764
0.922764
0.92228
0.92045
0.920545
0.92104
0.892931
0.864682
0.845904
0.847175
0.842258
0.682572
0.820632
0.964416
0.964416
0.658041
0.208346
0.208225
0.208205
0.209517
0.294863
0.749874
0.972205
0.972205
0.972206
0.972175
0.971672
0.732112
0.400858
0.408773
0.743705
0.899929
0.876703
0.798563
0.751037
0.638805
0.45701
0.377067
0.393587
0.787469
0.922764
0.878656
0.745472
0.75591
0.672312
0.436025
0.173789
0.0603734
0.0823919
0.236607
0.586949
0.658798
0.842653
0.938773
0.934646
0.961493
0.515022
0.208205
0.208096
0.207988
0.207968
0.207929
0.208104
0.420685
0.949678
0.971995
0.971882
0.938325
0.542371
0.3977
0.392533
0.448728
0.411231
0.358131
0.351987
0.353326
0.354869
0.355124
0.35608
0.523969
0.403654
0.213332
0.0242906
9.63019e-05
6.28348e-05
6.02909e-05
6.79458e-05
8.22129e-05
0.00019088
0.0077717
0.240419
0.406126
0.349095
0.362207
0.299816
0.964764
0.964625
0.70022
0.215382
0.207968
0.207926
0.207925
0.207928
0.207961
0.208022
0.336816
0.858536
0.952689
0.910409
0.724609
0.389742
0.352902
0.351938
0.351938
0.351938
0.351987
0.353702
0.463698
0.550207
0.422846
0.029734
0.000478313
9.63019e-05
6.28348e-05
6.02909e-05
6.0236e-05
0.00020439
0.000751816
0.000674638
0.000991155
0.00729993
0.026506
0.00171685
0.00119862
0.00112554
0.964696
0.964628
0.964557
0.957855
0.544372
0.207926
0.207926
0.207926
0.207928
0.207961
0.208022
0.20852
0.404567
0.817001
0.936212
0.809582
0.522435
0.352902
0.351938
0.40845
0.713482
0.707769
0.698898
0.560075
0.0729
0.000530845
0.000302182
0.000246484
9.28463e-05
6.02177e-05
6.02909e-05
0.00236721
0.00281489
0.00250647
0.00034309
0.00054707
0.000631424
0.000645742
0.000988393
0.00107156
0.964628
0.964557
0.963394
0.962067
0.961442
0.920642
0.765487
0.441875
0.207961
0.207974
0.207998
0.556528
0.926027
0.936212
0.936212
0.936212
0.89835
0.877765
0.872791
0.836831
0.772086
0.417557
0.0138948
0.000658575
0.000614799
0.000594298
0.000572242
0.00199679
0.00167982
0.000131289
6.02112e-05
0.00178838
0.00281555
0.0019931
0.000190434
0.000223186
0.000496105
0.000626362
0.00233612
0.00202757
0.610756
0.813693
0.869464
0.88644
0.892025
0.873089
0.851435
0.831276
0.720347
0.740933
0.754301
0.805815
0.811652
0.78224
0.766101
0.673839
0.702165
0.643961
0.382695
0.102982
0.000538332
0.000619312
0.000658225
0.000630389
0.000625334
0.000609816
0.000594298
0.00204871
0.00212597
0.00168709
6.45347e-05
0.000935754
0.00280694
0.00101376
0.000172052
0.000181866
0.000476074
0.00299237
0.00452303
0.00481871
0.409952
0.140144
0.189944
0.155387
0.112343
0.0933874
0.0945101
0.135342
0.147912
0.233041
0.217879
0.176461
0.17564
0.219968
0.215838
0.191181
0.127347
0.00422991
0.000157616
0.000333141
0.000482563
0.000607574
0.000647425
0.000674977
0.000641489
0.000625336
0.00067794
0.0021348
0.00213577
0.00213582
0.000894603
0.00150707
0.00174204
0.000178529
0.000170313
0.000172052
0.000241639
0.0040281
0.00558528
0.00558522
0.0823993
0.101681
0.0802586
0.0293075
0.00111127
0.000389752
0.00042067
0.000407942
0.000404518
0.000349836
0.000237114
0.000130206
8.06975e-05
7.26688e-05
7.15493e-05
7.14424e-05
7.15493e-05
7.1442e-05
0.00010405
0.00033928
0.0014745
0.00176245
0.000900992
0.00158355
0.00209922
0.00212947
0.0021348
0.00213577
0.00213586
0.00213577
0.00166936
0.0015134
0.000186495
0.000170323
0.000171186
0.000170624
0.00281647
0.0055818
0.00558515
0.00558532
0.000377736
0.000378619
0.0039698
0.00871995
0.0042928
0.000257178
0.000423099
0.00044658
0.000415895
0.00306898
0.00548745
0.00536395
0.00488114
0.000576725
7.26688e-05
7.15493e-05
7.14588e-05
0.000174136
0.00186505
0.00186505
0.00186505
0.00181156
0.00137452
0.000313848
0.000171576
0.000304178
0.000228787
0.000279816
0.00171614
0.00194445
0.00135954
0.00105165
0.000198434
0.000174679
0.000597735
0.00149347
0.00394864
0.00555822
0.00536612
0.00558515
0.000563833
0.000366571
6.06134e-05
4.43792e-05
4.25331e-05
4.27932e-05
0.00255057
0.00551783
0.00552009
0.00552009
0.00552009
0.00399892
0.000302725
0.00010429
7.88762e-05
7.17501e-05
7.20201e-05
0.000830053
0.00182187
0.00161191
0.000429465
4.62299e-05
4.5518e-05
4.54432e-05
4.53638e-05
4.53663e-05
4.64662e-05
0.000360979
0.000265214
0.000239168
0.000303248
0.000138206
0.00019953
0.00131524
0.00226333
0.00225554
0.000459175
0.000331027
0.000164895
0.00494248
0.00251069
0.00250036
0.000779984
3.4717e-05
3.10697e-05
3.29391e-05
0.00347986
0.00546456
0.00551354
0.00276135
0.000170173
0.000636802
0.000680658
0.000877066
0.000760609
9.31359e-05
7.1844e-05
0.000590627
0.00146457
5.08949e-05
4.64051e-05
4.55819e-05
4.55477e-05
4.55157e-05
4.79637e-05
0.000240628
0.000290255
0.000339762
4.15944e-05
4.34437e-05
4.47031e-05
4.39008e-05
0.000168869
0.00155352
0.00226333
0.00102907
0.000671427
6.79981e-05
6.70302e-05
0.000628971
0.000747876
0.000478004
0.000497931
0.000123268
2.92487e-05
3.23399e-05
3.29391e-05
4.0796e-05
5.74395e-05
6.9014e-05
0.000102957
0.000802915
0.000882739
0.000881213
0.000455879
9.67949e-05
0.000242767
0.000588078
0.000156062
0.000116902
8.74374e-05
4.58868e-05
4.55819e-05
4.5617e-05
0.000107287
0.000282589
0.000285236
5.57293e-05
3.96974e-05
4.00179e-05
4.02389e-05
4.02138e-05
8.29437e-05
0.00053536
0.00057954
0.000124473
8.02846e-05
7.03924e-05
6.69994e-05
6.70302e-05
1.92702e-05
1.91928e-05
1.92296e-05
2.12315e-05
2.70038e-05
6.8407e-05
0.000818274
0.00103484
0.000204704
6.85154e-05
9.58469e-05
0.000644425
0.000882344
0.00073927
0.000184917
0.00066416
0.000667073
0.00047103
0.000181181
0.00113721
0.0020189
0.000390311
4.58868e-05
4.42793e-05
4.50816e-05
7.15384e-05
7.7121e-05
3.95353e-05
3.94966e-05
3.95275e-05
3.95949e-05
3.96504e-05
4.00312e-05
4.40266e-05
8.34467e-05
0.000124509
6.69981e-05
6.69982e-05
6.69982e-05
6.69994e-05
5.99129e-05
2.41931e-05
1.91928e-05
4.65744e-05
3.83677e-05
5.91841e-05
0.00138209
0.00138292
0.00122695
0.00011303
9.66033e-05
0.000106144