/*--------------------------------*- C++ -*----------------------------------*\
  =========                 |
  \\      /  F ield         | OpenFOAM: The Open Source CFD Toolbox
   \\    /   O peration     | Website:  https://openfoam.org
    \\  /    A nd           | Version:  8
     \\/     M anipulation  |
\*---------------------------------------------------------------------------*/
FoamFile
{
    version     2.0;
    format      ascii;
    class       surfaceScalarField;
    location    "3.3";
    object      alphaPhi0.water;
}
// * * * * * * * * * * * * * * * * * * * * * * * * * * * * * * * * * * * * * //

dimensions      [0 3 -1 0 0 0 0];

internalField   nonuniform List<scalar> 
18095
(
1.97933e-08
-1.71988e-07
1.52195e-07
2.32314e-08
-1.97917e-07
1.94478e-07
2.004e-08
-2.06031e-07
2.09222e-07
1.12244e-08
-2.10769e-07
2.19585e-07
2.18269e-10
-2.13497e-07
2.24503e-07
-1.10212e-08
-2.13215e-07
2.24454e-07
-2.00514e-08
-2.1062e-07
2.1965e-07
-2.32518e-08
-2.05973e-07
2.09174e-07
-1.978e-08
-1.97978e-07
1.94507e-07
-1.72012e-07
1.52232e-07
1.55594e-08
-1.87547e-07
1.58838e-08
-1.98241e-07
1.19223e-08
-2.02069e-07
6.23304e-09
-2.0508e-07
-4.1409e-10
-2.0685e-07
-6.58922e-09
-2.07039e-07
-1.20116e-08
-2.05198e-07
-1.58552e-08
-2.0213e-07
-1.55537e-08
-1.9828e-07
-1.87566e-07
6.8328e-09
-1.9438e-07
8.36378e-09
-1.99772e-07
7.27539e-09
-2.00981e-07
4.38925e-09
-2.02194e-07
3.3262e-10
-2.02793e-07
-3.91323e-09
-2.02794e-07
-7.21395e-09
-2.01897e-07
-8.34635e-09
-2.00997e-07
-6.82836e-09
-1.99798e-07
-1.94394e-07
4.54126e-09
-1.98921e-07
4.70709e-09
-1.99938e-07
3.6203e-09
-1.99894e-07
1.87148e-09
-2.00445e-07
-1.70468e-10
-2.00752e-07
-2.13065e-09
-2.00833e-07
-3.6504e-09
-2.00377e-07
-4.69703e-09
-1.99951e-07
-4.5311e-09
-1.99964e-07
-1.98925e-07
1.07851e-09
1.14076e-09
1.24663e-09
8.01485e-10
4.9975e-11
-7.83479e-10
-1.16063e-09
-1.11119e-09
-1.07499e-09
-2.72322e-08
-1.96277e-07
2.23509e-07
-2.96769e-08
-1.98826e-07
2.01271e-07
-2.44514e-08
-2.00782e-07
1.95556e-07
-1.36276e-08
-2.00609e-07
1.89786e-07
1.91599e-10
-2.01635e-07
1.87815e-07
1.40416e-08
-2.02042e-07
1.88192e-07
2.52382e-08
-2.01888e-07
1.90691e-07
3.03543e-08
-2.0178e-07
1.96664e-07
2.79221e-08
-1.99407e-07
2.01839e-07
-1.96754e-07
2.24676e-07
-9.5328e-09
-1.86744e-07
-1.49723e-08
-1.93386e-07
-1.24655e-08
-2.03289e-07
-3.94233e-09
-2.09133e-07
3.08941e-09
-2.08666e-07
9.44331e-09
-2.08396e-07
1.54188e-08
-2.07863e-07
1.59618e-08
-2.02323e-07
9.84826e-09
-1.93294e-07
-1.86906e-07
-1.05777e-08
-1.76166e-07
-8.52648e-09
-1.95438e-07
-6.72861e-09
-2.05086e-07
-5.19245e-09
-2.10669e-07
-7.40269e-10
-2.13118e-07
3.5841e-09
-2.1272e-07
5.6057e-09
-2.09885e-07
8.33718e-09
-2.05055e-07
1.06262e-08
-1.95583e-07
-1.7628e-07
-6.51738e-09
-1.69649e-07
-8.57071e-09
-1.93384e-07
-8.3611e-09
-2.05296e-07
-4.42511e-09
-2.14605e-07
-1.06895e-09
-2.16475e-07
2.99725e-09
-2.16786e-07
8.38066e-09
-2.15269e-07
8.71609e-09
-2.0539e-07
6.56165e-09
-1.93428e-07
-1.69718e-07
-1.7454e-08
-1.636e-08
-1.24338e-08
-7.45363e-09
5.75094e-10
8.24276e-09
1.26244e-08
1.64078e-08
1.74863e-08
3.87841e-08
-1.55157e-07
1.16373e-07
4.49185e-08
-1.96769e-07
1.90635e-07
3.82291e-08
-2.09516e-07
2.16205e-07
2.79909e-08
-2.15247e-07
2.25485e-07
1.29687e-08
-2.16773e-07
2.31795e-07
-4.35245e-09
-2.17662e-07
2.34983e-07
-2.11376e-08
-2.15673e-07
2.32458e-07
-3.13302e-08
-2.11793e-07
2.21986e-07
-2.87899e-08
-2.00691e-07
1.98151e-07
-1.60719e-07
1.31929e-07
1.7969e-08
-1.73126e-07
2.09134e-08
-1.99713e-07
1.74982e-08
-2.06101e-07
1.06068e-08
-2.08355e-07
1.69225e-09
-2.07858e-07
-7.60546e-09
-2.08364e-07
-1.42148e-08
-2.09063e-07
-1.75587e-08
-2.0845e-07
-1.51621e-08
-2.03088e-07
-1.75881e-07
9.92987e-09
-1.83056e-07
1.04149e-08
-2.00198e-07
9.22982e-09
-2.04916e-07
5.12485e-09
-2.0425e-07
1.69687e-09
-2.0443e-07
-1.75468e-09
-2.04912e-07
-6.03436e-09
-2.04784e-07
-7.87389e-09
-2.0661e-07
-9.10512e-09
-2.01856e-07
-1.84986e-07
7.51348e-09
-1.90569e-07
6.50337e-09
-1.99188e-07
7.14471e-09
-2.05557e-07
2.28473e-09
-1.9939e-07
4.71781e-10
-2.02617e-07
-1.09911e-09
-2.03341e-07
-5.572e-09
-2.00311e-07
-4.89828e-09
-2.07284e-07
-6.70803e-09
-2.00047e-07
-1.91695e-07
3.29393e-08
3.50216e-08
2.5021e-08
1.5416e-08
6.14218e-10
-1.45353e-08
-2.41547e-08
-3.47744e-08
-3.29817e-08
-1.43742e-07
2.26683e-09
1.41475e-07
-1.32621e-07
-1.11318e-08
-1.06544e-07
-2.60887e-08
-6.91699e-08
-3.74426e-08
-2.56699e-08
-4.35015e-08
1.80137e-08
-4.36877e-08
4.80594e-08
-2.98862e-08
5.23494e-08
-4.07005e-09
4.88663e-08
3.72124e-09
-3.92473e-10
4.9486e-08
-9.65953e-08
2.17481e-08
7.71147e-08
-9.3301e-08
-1.44254e-08
-8.23346e-08
-3.70902e-08
-6.5544e-08
-5.42327e-08
-5.03477e-08
-5.86967e-08
-3.85401e-08
-5.54945e-08
-2.39258e-08
-3.42461e-08
-2.23824e-08
-5.86885e-09
-1.95976e-08
7.11629e-10
6.68946e-09
-2.65343e-08
-3.59085e-09
3.68706e-08
-1.35398e-08
-1.46606e-08
-3.35483e-09
-2.49616e-08
-2.67887e-08
-3.85202e-08
-4.06737e-08
-5.7696e-08
-3.95203e-08
-8.71923e-08
-2.59953e-08
-8.31108e-08
-2.21578e-08
-7.61018e-08
-1.30749e-08
-5.84108e-08
-1.71409e-08
-3.00235e-09
-4.95728e-08
3.94677e-08
4.20435e-08
-4.4751e-08
3.1559e-08
7.46315e-09
2.62377e-08
-2.1467e-08
1.59773e-08
-3.0413e-08
2.47312e-09
-2.60253e-08
-2.36376e-08
-6.372e-12
-6.264e-08
1.62269e-08
-8.80535e-08
1.19627e-08
-1.10018e-07
4.58683e-09
3.29056e-10
-1.13466e-07
6.02857e-08
3.93619e-08
-5.77063e-08
7.17623e-08
2.31496e-09
7.75485e-08
-2.7252e-08
7.74424e-08
-3.0307e-08
7.44094e-08
-2.29922e-08
5.67785e-08
1.76244e-08
-3.1922e-09
7.61961e-08
-3.87175e-08
4.73864e-08
-6.67659e-08
3.26331e-08
2.47938e-08
-9.12329e-08
8.92155e-08
2.85472e-08
-6.89449e-08
1.04944e-07
-1.34113e-08
1.10708e-07
-3.30155e-08
1.11052e-07
-3.06518e-08
9.43238e-08
-6.26394e-09
3.84814e-08
7.34654e-08
-3.51474e-08
1.35183e-07
-5.84704e-08
6.92043e-08
-4.99275e-08
2.31026e-08
2.79189e-08
-5.24009e-08
1.02017e-07
1.11579e-08
-8.44929e-08
1.04487e-07
-1.58824e-08
1.04702e-07
-3.323e-08
1.09022e-07
-3.49719e-08
8.8708e-08
1.23459e-09
6.56025e-08
7.7705e-08
4.88081e-08
1.48668e-07
8.40962e-09
1.06502e-07
9.80793e-10
2.96166e-08
2.48826e-08
3.18878e-09
9.88964e-08
1.49014e-08
-1.0264e-07
8.44155e-08
-1.4014e-09
6.9965e-08
-1.87795e-08
6.33615e-08
-2.83685e-08
6.28223e-08
-1.13189e-08
1.02942e-07
3.64262e-08
1.36027e-07
1.14488e-07
1.31506e-07
1.09991e-07
1.10941e-07
6.34247e-08
3.14349e-08
1.00161e-07
1.49372e-07
1.95098e-08
-1.5398e-07
1.40932e-07
7.03842e-09
1.25018e-07
-2.86498e-09
1.0685e-07
-1.02009e-08
1.04103e-07
-8.57197e-09
1.08176e-07
1.892e-08
1.56688e-07
6.49448e-08
2.01109e-07
6.45384e-08
2.05499e-07
5.80025e-08
3.77727e-08
2.30243e-07
2.18813e-07
1.71445e-08
-2.16448e-07
2.1626e-07
9.56472e-09
2.12551e-07
8.31162e-10
2.06172e-07
-3.82356e-09
1.99936e-07
-2.33576e-09
2.04305e-07
1.45511e-08
2.34044e-07
3.51245e-08
2.46428e-07
3.11633e-08
2.80124e-07
2.33641e-08
3.06241e-08
3.36633e-07
2.53062e-07
2.80845e-08
-2.64002e-07
2.40463e-07
2.21629e-08
2.33894e-07
7.39815e-09
2.39493e-07
-9.42274e-09
2.5207e-07
-1.49136e-08
2.78905e-07
-1.22839e-08
3.17673e-07
-3.645e-09
3.19843e-07
4.70302e-10
3.65139e-07
-1.81027e-09
2.19733e-09
4.13507e-07
2.38109e-07
4.45207e-08
-2.54546e-07
2.09019e-07
5.12521e-08
2.06333e-07
1.00816e-08
2.11159e-07
-1.42502e-08
2.29053e-07
-3.28084e-08
2.56469e-07
-3.97013e-08
2.8967e-07
-3.68394e-08
3.23798e-07
-3.49754e-08
3.56338e-07
-3.55373e-08
-3.73567e-08
3.94641e-07
2.50048e-08
8.28051e-10
1.93405e-09
9.03884e-08
-8.19916e-09
1.57748e-07
-2.81602e-08
1.86034e-07
-3.83022e-08
2.39705e-07
-8.64748e-08
2.89368e-07
-8.93597e-08
3.27842e-07
-7.54496e-08
3.56028e-07
-6.40731e-08
3.82365e-07
-6.30732e-08
-7.15936e-08
4.15524e-07
-1.09648e-07
-2.97038e-08
1.37438e-07
-9.81474e-08
-1.00937e-07
-7.0588e-08
-1.22676e-07
-8.63166e-09
-1.51266e-07
1.53347e-07
-2.5333e-07
2.49114e-07
-1.55313e-07
2.82425e-07
-6.88584e-08
2.97114e-07
-3.1082e-08
2.88568e-07
-2.99352e-08
-4.83024e-08
2.7104e-07
-3.0852e-07
-1.01906e-07
1.52253e-07
-3.21959e-07
-2.10806e-07
-2.23008e-07
-2.36371e-07
-1.3972e-07
-2.56549e-07
-1.98453e-08
-3.62677e-07
6.86291e-08
-2.96741e-07
1.49627e-07
-1.76388e-07
1.8648e-07
-9.45116e-08
2.23885e-07
-9.38411e-08
-7.50736e-08
2.26925e-07
-2.91999e-07
-2.46e-07
3.53382e-07
-1.75145e-07
-2.97895e-07
-1.15661e-07
-2.96016e-07
-5.17667e-08
-2.41399e-07
2.83946e-08
-2.73998e-07
1.87183e-07
-3.96679e-07
2.81912e-07
-4.10776e-07
4.49289e-07
-2.63439e-07
5.77636e-07
-1.12912e-07
-4.56481e-08
5.50983e-07
-8.76144e-08
-1.46579e-07
2.45928e-07
1.34289e-08
-1.94077e-07
6.15935e-08
-2.71635e-07
1.49776e-07
-2.03587e-07
1.98717e-07
-1.87908e-07
4.03722e-07
-2.97938e-07
4.96007e-07
-4.88248e-07
6.13954e-07
-3.7891e-07
6.43243e-07
-1.41539e-07
-2.85237e-08
6.26291e-07
-6.74396e-08
-2.11574e-07
1.10608e-07
-1.86648e-09
-2.79981e-07
1.07882e-07
-4.13081e-07
1.85797e-07
-3.3269e-07
1.85823e-07
-2.46353e-07
3.72997e-07
-2.78538e-07
4.97326e-07
-3.28488e-07
4.86486e-07
-2.58628e-07
5.03736e-07
-1.56393e-07
-1.56084e-08
4.91403e-07
-1.11415e-07
-2.72034e-07
1.52536e-07
-6.90775e-08
-5.48516e-07
3.41714e-08
-9.95094e-07
6.24956e-08
-7.57942e-07
9.9137e-08
-4.29457e-07
1.54005e-07
-2.20786e-07
8.39381e-08
-2.14392e-07
2.02293e-08
-1.46567e-07
8.96244e-09
-1.06713e-07
-4.07929e-08
2.29298e-08
-1.39543e-07
-2.78444e-07
1.18542e-07
-2.42518e-07
-7.27856e-07
-1.78374e-07
-1.04462e-06
-1.34269e-07
-7.9514e-07
-1.57893e-07
-3.66923e-07
-1.64263e-07
-2.00799e-07
-1.65942e-07
-1.65324e-07
-1.56407e-07
-1.5908e-07
-1.37987e-07
-1.56736e-07
-1.63736e-07
-6.21649e-08
-1.31061e-07
-3.48529e-07
1.53287e-07
-2.97193e-07
-6.53186e-07
-3.0672e-07
-1.02818e-06
-2.4095e-07
-8.472e-07
-2.03465e-07
-3.32803e-07
-1.38985e-07
-2.50106e-07
-1.63295e-07
-2.90344e-07
-1.699e-07
-3.65603e-07
-6.90814e-08
-3.6753e-07
-3.78454e-07
6.26902e-08
-1.87071e-07
-7.23875e-07
1.00873e-07
-2.37008e-07
-5.45091e-07
-2.99925e-07
-8.01427e-07
-2.17844e-07
-9.41339e-07
-1.48868e-07
-4.63374e-07
-1.2245e-07
-3.15583e-07
-9.92596e-08
-4.74146e-07
-8.30239e-10
-4.6377e-07
1.09969e-07
-4.78108e-07
-4.60008e-07
1.91739e-07
5.92544e-09
-6.99936e-07
-1.36405e-07
-9.57661e-08
-4.77527e-07
-1.65072e-07
-5.93419e-07
-6.34467e-08
-1.02612e-06
-3.17892e-08
-7.21351e-07
-2.66964e-08
-6.24583e-07
3.41552e-08
-5.49635e-07
9.85549e-08
-5.27829e-07
1.25009e-07
-5.04299e-07
-4.89021e-07
1.54226e-07
1.63926e-07
-6.44767e-07
-2.4962e-07
5.32973e-08
-4.25574e-07
2.08198e-08
-5.94651e-07
7.39101e-08
-1.04379e-06
1.19258e-07
-7.68871e-07
1.03406e-07
-6.10058e-07
1.10337e-07
-5.62021e-07
1.20234e-07
-5.36866e-07
9.50481e-08
-4.78302e-07
-4.69598e-07
7.58572e-08
1.53198e-07
-5.59492e-07
-2.60219e-07
9.10304e-08
-4.25868e-07
1.02483e-07
-6.39814e-07
1.39553e-07
-1.05602e-06
1.64512e-07
-7.93116e-07
1.45097e-07
-5.90323e-07
1.38298e-07
-5.56397e-07
1.08198e-07
-4.389e-07
7.34733e-09
-2.71002e-07
-3.98485e-07
-6.24959e-08
1.53878e-07
-5.14495e-07
-2.3823e-07
1.51374e-07
-4.72555e-07
2.08333e-07
-7.89568e-07
1.85097e-07
-1.04092e-06
1.53631e-07
-7.59835e-07
1.32487e-07
-5.68465e-07
1.08613e-07
-5.21277e-07
2.49524e-08
-1.59401e-07
-7.59284e-08
-5.52597e-08
-2.88322e-07
-1.68825e-07
1.0857e-07
-4.95011e-07
-1.93883e-07
1.74192e-07
-5.58322e-07
2.10477e-07
-8.47392e-07
1.5914e-07
-9.87851e-07
7.45494e-08
-6.73121e-07
4.33038e-08
-5.35405e-07
4.35566e-09
-2.41086e-07
-2.79554e-08
-7.0842e-08
-6.11871e-08
-2.11386e-08
-1.58712e-07
-1.95568e-07
6.8466e-08
-5.09736e-07
-8.92205e-08
1.09909e-07
-3.83986e-07
1.39293e-07
-8.45996e-07
7.76972e-08
-9.24564e-07
1.2316e-09
-5.94927e-07
-1.6734e-08
-4.20734e-07
-1.85589e-08
-1.07834e-07
-2.85985e-08
-6.09845e-08
-2.50831e-08
-2.46231e-08
-5.82425e-08
-1.12389e-07
7.76446e-08
-4.15643e-07
-3.69311e-08
4.9987e-08
-3.5525e-07
9.15008e-08
-8.87991e-07
2.51983e-08
-8.55226e-07
-2.57867e-08
-5.42236e-07
-1.29819e-08
-3.22425e-07
-1.77517e-08
-1.03079e-07
-1.50832e-08
-6.37009e-08
-6.57914e-09
-3.31516e-08
-3.17313e-08
-3.3487e-08
6.17575e-09
-2.62386e-07
2.82099e-08
1.786e-08
-3.67922e-07
1.36853e-08
-9.21217e-07
-1.17567e-08
-8.26224e-07
-4.58348e-08
-4.77168e-07
-3.44108e-08
-2.92555e-07
-1.82673e-08
-1.19109e-07
-1.49227e-08
-6.707e-08
-1.21399e-08
-3.59567e-08
-2.79037e-08
-1.60277e-08
-5.10192e-08
-2.76575e-07
5.96329e-08
-6.29097e-08
-3.61212e-07
-1.02879e-07
-8.84467e-07
-9.22458e-08
-8.33828e-07
-1.08795e-07
-4.21759e-07
-1.17595e-07
-2.86459e-07
-4.98959e-08
-2.49362e-07
-2.26618e-08
-9.45554e-08
-1.91097e-08
-3.95691e-08
-2.73283e-08
-1.97856e-08
-1.34072e-07
-2.86791e-07
1.38797e-07
-1.26694e-07
-3.73889e-07
-2.42271e-07
-6.84053e-07
-1.77731e-07
-8.94627e-07
-1.5537e-07
-4.42067e-07
-1.87787e-07
-2.77609e-07
-1.7216e-07
-2.78758e-07
-4.50732e-08
-1.95265e-07
-3.18758e-08
-5.2867e-08
-2.5966e-08
-3.33387e-08
-1.90539e-07
-2.63175e-07
1.61622e-07
-2.07158e-07
-3.62283e-07
-3.55612e-07
-5.05856e-07
-2.64326e-07
-9.81846e-07
-1.90185e-07
-5.60191e-07
-2.1104e-07
-2.73103e-07
-1.96836e-07
-2.7338e-07
-9.48431e-08
-2.72401e-07
-4.53226e-08
-1.02522e-07
-1.74922e-08
-5.38968e-08
-1.85407e-07
-2.27662e-07
1.44883e-07
-2.068e-07
-3.46637e-07
-2.8178e-07
-4.33948e-07
-3.34705e-07
-9.52427e-07
-1.42547e-07
-7.54386e-07
-1.80552e-07
-2.55341e-07
-2.27459e-07
-2.44462e-07
-2.16697e-07
-2.74241e-07
-5.53186e-08
-1.80673e-07
-1.539e-08
-5.75557e-08
-1.09112e-07
-3.04938e-07
3.60501e-08
-9.15049e-08
-3.70389e-07
-1.35753e-07
-4.01661e-07
-2.76844e-07
-8.47137e-07
-1.21159e-07
-9.09023e-07
-1.01205e-07
-3.17043e-07
-1.18475e-07
-2.44021e-07
-1.36923e-07
-2.60881e-07
-5.0237e-08
-2.26896e-07
-2.54077e-08
-4.0389e-08
2.36703e-08
-2.69287e-07
-1.14769e-07
-9.1176e-08
-3.77523e-07
-1.42876e-07
-3.65096e-07
-2.26513e-07
-7.64219e-07
-1.25134e-07
-1.00668e-06
-7.06967e-08
-3.88711e-07
-1.06428e-07
-2.25911e-07
-1.92945e-07
-2.21278e-07
-1.43299e-07
-2.31217e-07
-7.56173e-08
-3.39243e-08
1.00318e-07
-2.16775e-07
-1.51659e-07
-1.11238e-08
-2.77529e-07
-7.61376e-08
-3.18352e-07
-1.73435e-07
-6.19936e-07
-1.30193e-07
-1.04492e-06
-9.5638e-08
-4.23269e-07
-1.36745e-07
-2.02406e-07
-1.68399e-07
-2.43662e-07
-1.91421e-07
-2.06463e-07
-1.5921e-07
-4.24957e-08
-2.35339e-09
-1.66474e-07
-4.388e-08
-1.92883e-08
-1.4892e-07
-8.19205e-08
-2.75449e-07
-1.82257e-07
-4.57825e-07
-1.65104e-07
-1.04491e-06
-1.48429e-07
-4.50154e-07
-1.90479e-07
-1.78933e-07
-2.19934e-07
-2.53842e-07
-2.1175e-07
-2.13949e-07
-1.88224e-07
-1.44663e-07
-1.0284e-07
-1.20477e-07
7.63477e-08
-6.32513e-08
-9.91444e-08
-1.061e-07
-2.52329e-07
-1.84411e-07
-3.84101e-07
-2.07543e-07
-9.85747e-07
-1.30203e-07
-5.30228e-07
-2.13021e-07
-1.85927e-07
-2.57692e-07
-2.11675e-07
-2.60859e-07
-2.1033e-07
-1.96046e-07
-2.51912e-07
-9.17118e-08
-1.14863e-07
9.02138e-08
-4.5921e-08
-1.14396e-07
-8.53045e-08
-2.47275e-07
-1.54514e-07
-3.64534e-07
-2.03639e-07
-8.61789e-07
-9.90725e-08
-6.41538e-07
-1.7321e-07
-1.21484e-07
-2.57814e-07
-1.46661e-07
-2.94047e-07
-1.74703e-07
-1.78839e-07
-3.10419e-07
-1.35027e-07
-1.26712e-07
1.47125e-07
-1.30546e-07
-1.15571e-07
-1.50982e-07
-2.19367e-07
-2.07534e-07
-3.50654e-07
-1.67691e-07
-9.2406e-07
-1.27152e-07
-7.09129e-07
-1.85835e-07
-7.22254e-08
-2.44563e-07
-9.02301e-08
-3.23244e-07
-9.54221e-08
-1.43554e-07
-3.57693e-07
-7.14885e-10
-8.80448e-08
5.49361e-08
2.65949e-08
-1.27179e-07
-9.12978e-08
-1.13432e-07
-1.32651e-07
-3.40751e-07
-1.32643e-07
-1.01127e-06
-1.16901e-07
-7.81273e-07
-1.71861e-07
-2.92382e-08
-1.92428e-07
-5.3922e-08
-3.01907e-07
-5.08334e-09
-6.98608e-08
-3.74764e-07
9.68479e-08
-3.18992e-09
-3.51675e-08
9.24637e-08
-2.55806e-08
-2.20421e-08
-2.3272e-08
-1.41969e-07
-2.45266e-07
-1.34974e-07
-1.04495e-06
-5.63867e-08
-9.05808e-07
-8.77139e-08
-5.36796e-09
-5.51503e-08
-7.49583e-08
-6.13788e-08
1.20709e-08
4.97117e-08
-2.39288e-07
2.70271e-08
1.72233e-09
-3.89695e-08
9.90045e-08
3.52445e-09
-3.9218e-10
3.15226e-08
-6.73359e-08
-1.25945e-07
-7.09637e-08
-1.05236e-06
-3.98868e-08
-9.50925e-07
-5.40289e-08
-4.23854e-10
-5.70358e-08
-8.16075e-08
6.87629e-09
-4.21705e-08
2.57535e-08
-2.8164e-08
1.39917e-08
4.30774e-09
-1.72532e-08
3.87316e-08
5.37363e-09
0
5.25266e-08
-2.96458e-08
-9.43601e-08
-5.02768e-08
-1.04039e-06
-4.50573e-08
-9.62314e-07
-1.0374e-07
4.70488e-08
-8.34048e-08
-6.30415e-08
-3.36649e-08
-1.43547e-08
1.00704e-08
-2.04803e-08
4.2201e-09
2.38093e-09
-1.55851e-09
1.27265e-08
3.94167e-09
0
2.59335e-08
-6.40705e-08
-6.14447e-08
-5.77864e-08
-1.04531e-06
-3.63379e-08
-9.84635e-07
-5.77322e-08
2.99171e-08
-1.10451e-08
-9.66976e-09
-1.06724e-08
-4.10846e-10
4.60247e-10
-4.9317e-09
-6.12574e-10
4.41616e-09
4.7474e-11
-7.45608e-09
1.0478e-08
0
3.42318e-09
-6.37568e-08
-1.13822e-08
-6.25836e-08
-1.04292e-06
-4.32331e-08
-1.00462e-06
1.06235e-09
-8.65544e-09
1.79774e-09
-1.50347e-09
1.39165e-09
-1.63072e-10
3.26053e-11
2.15735e-09
-4.68261e-09
1.12909e-09
1.9428e-09
-3.03122e-09
7.44197e-10
-5.29183e-11
3.6129e-10
2.20959e-09
-1.86097e-08
-1.27043e-08
-1.01781e-06
-3.54272e-10
-1.01792e-06
1.04142e-09
-2.05148e-08
0
-6.01315e-10
2.5594e-10
-4.96551e-10
8.158e-14
2.64824e-10
-7.30139e-10
2.45185e-10
1.06267e-09
-1.18854e-10
7.17608e-11
6.93802e-10
-8.35047e-12
1.25273e-08
-2.75665e-08
2.59081e-08
-1.00681e-06
1.42192e-08
-1.01626e-06
0
-3.18112e-08
0
-2.92836e-11
-6.67237e-11
-9.73192e-12
-1.23878e-10
4.20813e-10
-3.33503e-10
4.76171e-11
4.60907e-10
-1.32797e-11
-5.97012e-11
6.76043e-10
-5.36659e-11
1.29232e-08
-3.44682e-08
2.99582e-08
-1.00092e-06
1.09583e-08
-1.00716e-06
3.21986e-11
-4.03847e-08
1.97035e-11
-2.57186e-11
1.43948e-11
-7.66869e-12
-9.41542e-12
1.92129e-10
-1.92822e-10
-1.84236e-10
7.27844e-11
0
-3.39849e-10
5.0111e-10
-1.53663e-11
1.18338e-08
-3.68836e-08
2.32844e-08
-9.92852e-07
1.17928e-08
-1.00059e-06
2.07357e-12
-4.29605e-08
2.76573e-12
-2.79632e-11
5.37336e-12
-1.14538e-11
-1.15832e-11
7.00167e-12
2.85832e-11
-3.87477e-10
1.75023e-10
6.52716e-11
-3.76225e-10
5.18795e-11
-1.44398e-11
1.32046e-08
-3.80353e-08
2.24744e-08
-9.85113e-07
1.34579e-08
-9.91174e-07
4.11192e-12
-4.14932e-08
0
-1.32421e-11
7.64483e-13
-2.82335e-11
-4.60121e-11
1.37192e-12
-1.28332e-11
-5.23503e-10
1.4959e-10
8.76099e-12
-3.98087e-10
2.75907e-11
-5.16385e-11
6.21018e-09
-3.80832e-08
6.46645e-09
-9.81134e-07
-1.10367e-10
-9.79836e-07
-4.63285e-11
-3.87956e-08
-3.58357e-12
-8.26416e-12
-1.74242e-11
-2.43134e-11
-4.32927e-11
-1.81982e-11
-1.32209e-12
-5.91372e-10
7.01001e-11
0
-4.03794e-10
-4.49405e-11
-8.02576e-12
-1.17399e-08
-3.64759e-08
-2.43434e-08
-9.79733e-07
-1.24041e-08
-9.68564e-07
-4.7475e-12
-2.65931e-08
-3.02553e-12
-7.59199e-12
-1.45927e-11
-7.04922e-12
-4.06373e-11
-1.49567e-11
2.65715e-11
-5.91718e-10
-2.12952e-11
0
-2.2255e-10
6.68757e-12
-2.13897e-11
4.2984e-09
-2.21111e-08
-3.18747e-09
-9.69154e-07
-3.08956e-09
-9.65631e-07
-6.56448e-13
-1.46487e-08
-1.16355e-12
-7.43349e-12
-3.40497e-12
-4.70909e-12
-1.44729e-11
-1.17212e-11
1.67286e-11
-1.05677e-11
-1.05065e-12
0
-8.66788e-11
-1.47596e-11
-6.82524e-12
-1.35865e-08
-9.55259e-09
-2.98019e-08
-9.65856e-07
-1.60505e-08
-9.58646e-07
-2.45776e-12
-1.18546e-08
-2.15766e-12
-7.77575e-12
0
-1.42704e-11
-2.35906e-12
-7.99777e-12
-5.9347e-12
-3.68946e-12
-9.7229e-13
0
-2.5475e-11
5.36903e-13
-7.5803e-12
5.6852e-09
-9.93294e-09
-1.03014e-09
-9.58528e-07
-3.23461e-09
-9.5908e-07
-7.27837e-12
-9.20734e-09
-8.16887e-12
-7.10422e-12
0
-3.73213e-11
-1.89684e-12
-7.65451e-12
-9.26084e-13
-1.81916e-12
-9.43718e-13
9.22628e-13
-6.6371e-12
1.15976e-12
-7.85707e-12
5.01261e-09
-1.15057e-08
8.87881e-10
-9.55278e-07
-3.86702e-09
-9.55617e-07
-7.31051e-12
-1.03919e-08
-8.29408e-12
-6.61654e-12
-1.00032e-13
-3.60383e-11
-7.43744e-12
-1.64341e-12
6.54629e-14
-4.34173e-12
-2.63953e-14
1.00502e-12
-9.2381e-12
1.18753e-12
-8.13371e-12
-4.14349e-10
-1.39768e-08
-9.92288e-09
-9.53387e-07
-8.36695e-09
-9.51185e-07
-7.76646e-12
-1.38218e-08
-8.72783e-12
-5.88427e-12
-1.17808e-11
-2.27112e-11
-2.02621e-11
-3.65828e-13
2.29916e-12
-4.26432e-12
-1.84839e-12
5.49279e-12
-4.70948e-11
6.63093e-12
-9.5712e-12
5.83899e-09
-1.85515e-08
1.87241e-09
-9.48976e-07
-2.86221e-09
-9.50217e-07
-6.29393e-13
-1.7835e-08
-1.05813e-12
-5.74325e-12
-3.44699e-12
-2.89595e-12
-2.20919e-11
3.08572e-12
1.33135e-11
-3.90274e-12
-1.03827e-12
1.94937e-11
-1.41364e-10
1.97065e-11
-1.00295e-11
3.36157e-09
-2.42001e-08
-2.43763e-09
-9.48735e-07
-5.98432e-09
-9.48242e-07
-2.99722e-13
-2.40589e-08
-1.60819e-13
-6.17309e-12
8.81893e-13
-4.22658e-12
-1.25728e-11
1.30216e-11
9.10328e-13
-6.57504e-12
-5.88168e-14
9.42349e-12
-1.45387e-10
1.19181e-11
-1.16672e-11
5.17565e-09
-3.13112e-08
4.50331e-10
-9.48641e-07
-4.18877e-09
-9.47956e-07
-1.83039e-12
-3.06687e-08
-2.74806e-13
-8.01659e-12
1.32211e-12
-6.17433e-12
0
3.37861e-12
1.77164e-12
-3.98387e-11
0
6.91258e-12
-1.45787e-10
1.21777e-11
-1.49686e-11
3.31911e-09
-3.82745e-08
-3.40173e-09
-9.48173e-07
-6.82987e-09
-9.46783e-07
-1.19285e-11
-3.87068e-08
-4.90036e-12
-1.5417e-11
-1.10243e-13
-1.38832e-11
-8.21485e-13
7.32676e-13
1.03583e-11
-1.02145e-10
-1.44425e-11
2.90266e-11
-1.60688e-10
3.24445e-11
-1.63816e-11
5.03008e-09
-4.55906e-08
-6.52417e-10
-9.46166e-07
-5.03412e-09
-9.45226e-07
-6.59587e-11
-4.55943e-08
-5.57409e-11
-2.65992e-11
-3.94862e-11
-2.62999e-10
-1.57896e-10
-4.85674e-12
2.68225e-11
-1.28469e-10
7.70885e-12
2.12753e-11
-1.10099e-10
2.39332e-11
-1.70899e-11
5.82297e-09
-5.25433e-08
6.65342e-10
-9.43082e-07
-5.03066e-09
-9.41778e-07
-1.37239e-10
-5.24763e-08
-1.49805e-10
-1.66996e-11
-1.671e-10
-3.27414e-10
-3.24699e-10
-7.2967e-11
2.30705e-13
-1.17927e-10
3.31725e-11
5.161e-12
-4.5649e-11
8.76958e-12
-1.87045e-11
4.16537e-09
-5.89057e-08
-3.09241e-09
-9.38676e-07
-7.12838e-09
-9.37258e-07
-1.05549e-10
-5.9397e-08
-1.17422e-10
-5.19936e-12
-1.65925e-10
-2.89523e-10
-3.56637e-10
-1.33417e-10
0
-8.72422e-11
-6.1957e-11
6.41397e-12
-3.22595e-11
1.0931e-11
-2.13639e-11
5.79483e-09
-6.51255e-08
-2.48021e-10
-9.32962e-07
-5.9736e-09
-9.3146e-07
-9.71325e-12
-6.56189e-08
-1.17251e-11
-4.40124e-12
-9.08624e-11
-2.05138e-10
-3.232e-10
-1.23838e-10
1.62931e-12
-1.66829e-10
-8.33582e-11
1.34244e-11
-1.30312e-10
2.30325e-11
-2.85442e-11
6.50459e-09
-7.10573e-08
5.81264e-11
-9.25894e-07
-5.96828e-09
-9.24751e-07
-1.08355e-11
-7.14709e-08
-1.09594e-11
-5.40563e-12
-9.17706e-11
-1.21941e-10
-2.51979e-10
-1.6376e-10
1.78658e-10
-1.20965e-10
-2.2303e-10
6.12453e-11
-1.52241e-10
6.63803e-11
-3.0505e-11
5.65134e-09
-7.64968e-08
-1.64036e-09
-9.18483e-07
-7.42792e-09
-9.16815e-07
-2.7009e-11
-7.72271e-08
-3.15797e-11
-1.50486e-12
-1.57624e-10
-3.85502e-12
-1.9081e-10
-2.14242e-10
1.80495e-10
-8.47028e-11
-2.15556e-10
6.44406e-11
-7.48078e-11
6.5523e-11
-2.80994e-11
6.46663e-09
-8.21874e-08
-1.43588e-09
-9.0982e-07
-7.56117e-09
-9.09003e-07
-1.49501e-12
-8.31544e-08
-1.74968e-12
-1.48565e-12
-5.2702e-11
6.6939e-12
-3.8743e-11
-3.06311e-10
7.42463e-11
-6.65124e-11
-9.19367e-11
1.58057e-11
-1.61779e-11
1.66772e-11
-2.72992e-11
7.80205e-09
-8.86892e-08
2.19401e-10
-9.01136e-07
-7.24483e-09
-9.00692e-07
-1.79744e-12
-8.94317e-08
-2.08376e-12
-1.25453e-12
-2.71791e-11
7.20253e-12
8.2984e-11
-3.54645e-10
3.29318e-13
-2.20795e-11
-3.56588e-11
4.44379e-12
-7.8771e-12
5.0159e-12
-2.77056e-11
7.06778e-09
-9.52371e-08
-1.22233e-09
-8.92712e-07
-8.38393e-09
-8.92344e-07
-1.11113e-13
-9.61851e-08
0
-1.42315e-12
1.01405e-11
3.59545e-13
1.77708e-12
6.19539e-11
-2.67133e-11
2.69415e-12
8.30564e-12
1.64551e-12
-1.7501e-11
3.67164e-12
-2.94796e-11
8.1406e-09
-1.03244e-07
-7.40154e-10
-8.8407e-07
-9.03356e-09
-8.8364e-07
-2.23225e-13
-1.04045e-07
-1.37375e-13
-1.56414e-12
4.14099e-12
-9.90425e-13
2.82223e-12
8.39433e-12
0
1.03626e-11
-1.84519e-12
1.59341e-11
-4.05934e-11
1.50282e-11
-2.82059e-11
9.03068e-09
-1.12193e-07
-1.91664e-10
-8.75277e-07
-8.68132e-09
-8.75669e-07
-1.01235e-12
-1.12652e-07
-1.02205e-12
-1.60538e-12
-2.85067e-14
-1.19936e-12
2.13892e-12
5.49945e-13
1.77173e-11
1.30901e-11
-7.75712e-12
1.33544e-11
-2.9412e-11
1.3758e-11
-2.84602e-11
8.59049e-09
-1.22289e-07
-1.71592e-09
-8.66603e-07
-1.06102e-08
-8.67191e-07
-8.93849e-13
-1.23081e-07
-9.49281e-13
-1.59412e-12
-3.35098e-13
-1.28007e-12
2.59722e-12
-2.58411e-13
4.12805e-11
4.25608e-11
-6.76172e-12
3.77174e-11
-2.16643e-11
3.50355e-11
-2.5868e-11
9.9004e-09
-1.34974e-07
-7.82383e-10
-8.5807e-07
-1.07936e-08
-8.5895e-07
-6.14489e-13
-1.35841e-07
-6.88347e-13
-1.59375e-12
0
-2.69356e-12
1.13056e-11
-2.85931e-12
4.08174e-11
5.30922e-11
-5.12574e-11
3.44947e-11
1.76119e-12
3.08492e-11
-2.22216e-11
1.13663e-08
-1.50753e-07
4.03068e-10
-8.49584e-07
-1.06518e-08
-8.50965e-07
-1.17127e-12
-1.51583e-07
-1.43773e-12
-1.3932e-12
-6.36015e-12
-5.62861e-13
5.07506e-12
-6.33658e-12
3.8857e-11
5.49919e-11
-4.29132e-11
1.73349e-11
1.82806e-11
1.73533e-11
-2.19841e-11
1.25453e-08
-1.70432e-07
1.61527e-09
-8.41721e-07
-1.10737e-08
-8.4159e-07
-1.72996e-13
-1.70294e-07
-1.77342e-13
-1.40582e-12
-2.14949e-13
-2.39995e-13
4.24445e-13
2.12352e-12
6.14716e-11
5.90513e-11
-6.87307e-11
1.9182e-11
2.52029e-11
1.80216e-11
-2.01894e-11
1.34997e-08
-1.92738e-07
9.18944e-10
-8.3226e-07
-1.14264e-08
-8.31861e-07
-2.14396e-13
-1.9095e-07
-1.01948e-13
-1.48593e-12
-6.74368e-14
-2.82826e-13
0
-1.6822e-13
7.19465e-12
5.60517e-11
-3.45683e-11
4.02945e-12
5.8665e-12
4.23505e-12
-1.97767e-11
9.41738e-09
-2.13414e-07
-4.41572e-09
-8.21881e-07
-1.67198e-08
-8.19425e-07
-1.00416e-12
-2.12043e-07
-3.41272e-13
-2.23467e-12
-9.02677e-14
-5.84057e-13
1.90703e-14
-1.03246e-13
-1.33878e-11
2.95678e-11
-3.15392e-12
2.59584e-12
1.42538e-12
3.32775e-12
-2.00602e-11
8.55921e-09
-2.29892e-07
-6.8136e-09
-8.08301e-07
-1.89996e-08
-8.05587e-07
-6.54324e-12
-2.29617e-07
-5.28658e-12
-3.52281e-12
-1.18308e-13
-8.04715e-12
1.408e-15
-9.41655e-14
4.64001e-16
3.79787e-11
-2.23216e-12
1.13457e-11
-3.33922e-12
1.11362e-11
-1.94902e-11
1.23988e-08
-2.40695e-07
-3.04681e-09
-7.92079e-07
-1.69343e-08
-7.8972e-07
-1.57273e-11
-2.4103e-07
-1.60743e-11
-3.24899e-12
-4.42443e-12
-2.36739e-11
-4.1267e-12
-5.84618e-14
7.70271e-12
6.64675e-11
-1.59872e-11
2.28365e-11
-1.11111e-11
2.17868e-11
-1.80026e-11
1.5016e-08
-2.46485e-07
-1.27372e-09
-7.73811e-07
-1.66413e-08
-7.71847e-07
-1.97993e-11
-2.46909e-07
-2.14424e-11
-1.43669e-12
-1.73574e-11
-3.03796e-11
-1.48258e-11
-3.83793e-12
2.98343e-11
4.69925e-11
-1.00046e-11
3.93811e-11
-1.58035e-11
3.63958e-11
-1.45922e-11
1.62768e-08
-2.50018e-07
-1.75081e-09
-7.53695e-07
-1.89295e-08
-7.52019e-07
-7.53885e-12
-2.5083e-07
-8.48066e-12
-4.22706e-13
-1.35141e-11
-9.90164e-12
-1.96715e-11
-5.75618e-12
3.79747e-11
2.72229e-11
-1.78306e-11
4.07071e-11
-1.74983e-11
3.77434e-11
-1.12259e-11
1.86268e-08
-2.55118e-07
-5.11158e-10
-7.32826e-07
-1.9528e-08
-7.31173e-07
-1.25781e-12
-2.55777e-07
-1.41618e-12
-2.2602e-13
-3.45973e-12
-9.13769e-13
-3.49859e-14
-2.12596e-12
4.12057e-11
1.62436e-11
-2.98717e-11
3.4136e-11
-1.1247e-11
3.22817e-11
-8.92475e-12
2.20653e-08
-2.67939e-07
8.24976e-10
-7.10855e-07
-2.10866e-08
-7.08691e-07
-1.80674e-13
-2.68241e-07
-6.53167e-14
-3.18096e-13
-1.75335e-14
-4.48647e-14
-2.45951e-14
-2.80207e-14
5.35295e-11
1.15681e-11
-4.84839e-11
3.06302e-11
4.60095e-12
2.81441e-11
-6.31556e-12
2.14467e-08
-2.92639e-07
-2.34316e-09
-6.87596e-07
-2.67736e-08
-6.84657e-07
-9.4439e-13
-2.93653e-07
-2.41603e-14
-1.23843e-12
-3.0006e-14
-3.91059e-14
-1.72458e-14
-3.74643e-14
2.03517e-11
1.30949e-12
-1.86747e-11
1.68078e-11
3.24543e-12
1.53716e-11
-4.99478e-12
2.88417e-08
-3.2945e-07
-3.54591e-09
-6.55402e-07
-2.57027e-08
-6.63667e-07
-7.31282e-12
-3.30107e-07
-2.89803e-14
-8.52232e-12
-3.10367e-14
-3.71586e-14
-1.71797e-14
-3.11896e-14
2.57776e-12
2.72021e-12
-2.2589e-12
4.00657e-12
7.80096e-13
6.21297e-12
-7.24756e-12
2.06391e-08
-3.58795e-07
-1.28027e-10
-6.34533e-07
-3.02316e-08
-6.34275e-07
-5.97534e-11
-3.74587e-07
-7.94629e-14
-6.81955e-11
-5.55531e-14
-6.11205e-14
-6.31919e-14
-2.29264e-14
6.93446e-13
2.66761e-12
-6.92782e-13
1.0653e-12
1.9868e-13
2.8929e-11
-3.51632e-11
5.05497e-08
-4.14106e-07
2.98197e-08
-6.14238e-07
1.2518e-09
-6.06164e-07
-4.82447e-10
-3.77392e-07
-8.65907e-13
-5.4977e-10
-8.33079e-13
-9.32686e-14
-9.75191e-13
-2.79144e-13
3.18902e-12
9.79071e-12
-2.24299e-12
2.49463e-12
5.65977e-13
2.47174e-10
-2.79976e-10
1.2797e-08
-4.35257e-07
-2.51256e-08
-5.76312e-07
-3.29806e-08
-5.9861e-07
-3.53468e-09
-3.92679e-07
-1.14899e-12
-4.08329e-09
-1.09524e-12
-1.33266e-13
-1.13328e-12
-6.79897e-13
2.85672e-13
1.97493e-11
-2.16366e-12
7.73729e-13
5.08222e-14
5.34923e-10
-8.14214e-10
-3.7374e-08
-3.97207e-07
-5.73912e-08
-5.56302e-07
-9.95427e-08
-5.56471e-07
-2.41068e-08
-4.67737e-07
-1.12307e-12
-2.81889e-08
-1.10582e-12
-1.37058e-13
-6.33645e-13
-8.34586e-13
-1.29667e-14
8.88255e-12
5.91204e-12
2.02078e-14
-8.22587e-15
1.04642e-08
-1.12784e-08
1.91774e-08
-4.03817e-07
-8.6422e-09
-5.28511e-07
-3.81664e-08
-5.26945e-07
-3.06982e-08
-4.74769e-07
-1.29013e-12
-5.72466e-08
-2.15099e-13
-1.20082e-12
-1.01852e-16
-4.41343e-13
2.69645e-13
2.242e-12
-2.67075e-13
6.57293e-13
-4.22729e-13
2.00552e-08
-3.10441e-08
3.03695e-08
-4.13127e-07
-7.78372e-09
-4.90356e-07
-4.60795e-08
-4.88661e-07
-4.84375e-08
-4.72024e-07
-1.94658e-11
-1.05319e-07
-3.24229e-16
-2.06663e-11
-4.17596e-16
-6.91752e-17
1.31962e-12
1.71824e-12
-8.49233e-12
1.90358e-11
-1.81876e-11
5.05848e-08
-7.85656e-08
5.55897e-08
-4.16589e-07
1.76406e-08
-4.52419e-07
-1.61729e-08
-4.54849e-07
-4.33903e-08
-4.45671e-07
-3.0851e-10
-1.53008e-07
-2.84301e-14
-3.29146e-10
-2.83475e-14
-4.67651e-16
3.8634e-12
3.34063e-13
-2.74668e-12
5.05393e-10
-5.20225e-10
6.73272e-08
-1.3794e-07
5.14092e-08
-3.99713e-07
8.65276e-09
-4.09663e-07
-3.70682e-08
-4.09138e-07
-8.20821e-08
-4.012e-07
-4.42107e-09
-2.40074e-07
-1.87552e-12
-4.74824e-09
-1.90302e-12
-8.30419e-16
9.09817e-14
4.70416e-14
-7.14162e-14
8.8787e-09
-9.3991e-09
9.34088e-08
-2.09662e-07
4.82523e-08
-3.53513e-07
2.74857e-09
-3.6417e-07
-4.12607e-08
-3.65127e-07
-8.12618e-08
-3.61208e-07
-2.78268e-08
-3.07121e-07
-6.3919e-11
-3.25089e-08
-6.58217e-11
-3.86079e-16
4.49552e-10
-4.49892e-10
1.1927e-13
5.16111e-08
-6.30906e-08
1.24126e-07
-2.88043e-07
8.95619e-08
-3.18959e-07
4.47748e-08
-3.19383e-07
-7.42584e-09
-3.12926e-07
-6.30491e-08
-3.05583e-07
-7.54964e-08
-2.93428e-07
-2.41894e-09
-1.02866e-07
-2.48476e-09
-3.83186e-22
2.67589e-08