/*--------------------------------*- C++ -*----------------------------------*\
  =========                 |
  \\      /  F ield         | OpenFOAM: The Open Source CFD Toolbox
   \\    /   O peration     | Website:  https://openfoam.org
    \\  /    A nd           | Version:  8
     \\/     M anipulation  |
\*---------------------------------------------------------------------------*/
FoamFile
{
    version     2.0;
    format      ascii;
    class       volScalarField;
    location    "3.3";
    object      p;
}
// * * * * * * * * * * * * * * * * * * * * * * * * * * * * * * * * * * * * * //

dimensions      [1 -1 -2 0 0 0 0];

internalField   nonuniform List<scalar> 
9150
(
-204.597
-205.593
-206.219
-206.69
-206.932
-206.935
-206.699
-206.226
-205.595
-204.599
-224.651
-225.161
-225.584
-225.909
-226.085
-226.08
-225.914
-225.587
-225.163
-224.653
-244.542
-244.822
-245.075
-245.295
-245.413
-245.409
-245.296
-245.078
-244.825
-244.544
-264.28
-264.454
-264.622
-264.778
-264.86
-264.866
-264.78
-264.624
-264.456
-264.282
-283.901
-284.081
-284.218
-284.345
-284.404
-284.411
-284.344
-284.219
-284.082
-283.902
-118.601
-119.41
-119.144
-118.728
-118.553
-118.55
-118.72
-119.159
-119.431
-118.624
-134.102
-134.825
-135.025
-135.073
-134.978
-134.968
-135.058
-135.002
-134.809
-134.101
-150.584
-151.331
-151.655
-152.002
-152.064
-152.07
-152.01
-151.671
-151.344
-150.592
-167.451
-168.582
-169.05
-169.676
-169.839
-169.845
-169.661
-169.039
-168.58
-167.45
-184.467
-186.51
-187.273
-187.97
-188.238
-188.232
-187.966
-187.275
-186.511
-184.468
-24.3889
-26.0922
-28.2083
-29.3658
-29.9576
-29.9564
-29.3963
-28.3398
-26.581
-25.441
-44.9991
-45.2696
-46.2844
-46.734
-47.2149
-47.3264
-46.9504
-46.6716
-45.7785
-45.603
-65.1098
-65.039
-66.0527
-65.7966
-66.2348
-66.3456
-65.8438
-66.3268
-65.3232
-65.4663
-88.0286
-85.2707
-86.2196
-84.7737
-84.9277
-85.0158
-84.823
-86.4385
-85.4254
-88.2302
-113.812
-104.246
-103.774
-102.408
-102.024
-102.059
-102.422
-103.903
-104.347
-114
680.108
679.537
679.355
679.252
678.833
677.628
675.865
674.47
674.145
674.598
658.772
658.262
658.249
658.292
658.058
657.101
655.765
658.957
658.119
656.667
640.342
639.55
639.834
640.476
640.869
640.517
641.173
645.075
644.042
642.679
623.452
622.316
622.38
622.99
623.593
624.462
623.454
622.025
620.53
619.352
606.228
605
604.923
605.503
606.139
606.712
606.486
605.462
603.492
602.124
588.022
587.047
587.158
587.437
587.741
588.111
586.513
584.476
583.549
582.46
568.667
569.076
569.367
569.234
569.054
572.665
573.348
563.677
562.833
563.095
550.118
551.115
552.056
552.739
553.757
555.532
553.744
549.719
547.139
547.476
532.276
534.388
536.551
538.703
540.539
542.464
542.445
539.954
537.499
535.084
515.278
518.469
521.763
524.842
527.954
530.38
531.25
529.04
529.124
523.662
499.069
503.716
508.124
512.051
514.988
516.124
515.884
515.084
514.022
509.381
483.948
491.06
497.951
502.765
505.544
506.127
504.962
502.574
500.207
497.4
479.019
484.208
489.302
499.092
503.465
501.15
496.61
491.648
486.983
481.848
476.716
479.896
488.482
495.81
503.89
497.329
488.936
480.073
473.58
465.826
460.926
468.08
476.863
481.763
483.536
485.662
491.613
484.458
472.524
464.31
434.802
443.675
451.147
437.162
433.918
445.724
451.676
452.743
435.266
425.595
409.156
415.418
414.624
404.247
395.453
386.932
386.81
378.791
366.623
363.234
381.153
386.738
378.592
355.699
333.283
312.598
288.529
272.034
280.319
293.81
327.704
328.231
328.535
295.891
278.147
263.21
246.727
234.38
250.172
275.592
273.639
268.715
273.549
265.606
249.303
250.611
259.648
265.378
275.472
289.002
237.752
223.715
246.665
259.463
262.923
269.732
266.529
270.461
276.389
281.492
201.436
223.788
231.127
263.855
274.103
280.879
264.442
262.142
263.724
255.602
196.85
209.14
226.398
252.211
260.822
260.977
251.533
243.779
234.429
225.339
201.697
206.773
221.645
214.123
229.313
229.77
225.874
220.02
213.064
205.686
196.361
208.234
215.162
201.123
209.569
203.876
197.074
191.298
188.393
192.376
194.928
216.237
202.677
192.711
186.2
182.013
175.416
180.956
191.926
169.287
199.602
219.985
198.429
183.869
172.781
171.507
168.696
176.667
179.289
161.021
202.582
227.688
196.655
180.059
170.656
163.614
161.93
166.647
165.105
161.023
206.964
226.551
185.847
174.457
166.389
158.079
158.496
158.247
156.984
154.817
217.823
219.646
186.844
159.616
155.082
149.844
151.386
150.056
148.979
148.013
217.064
204.003
181.225
157.389
143.329
143.702
143.122
142.14
141.236
141.447
190.597
179.431
157.037
153.746
137.258
137.491
136.257
135.784
135.869
136.288
145.438
146.525
139.53
140.006
142.88
129.903
130.519
131.466
131.753
131.263
92.7899
95.5743
103.546
117.384
142.941
124.8
124.997
124.761
126.19
124.72
62.0658
78.4312
89.5964
97.6468
126.115
113.288
117.714
119.611
117.781
116.125
77.2113
70.3004
105.933
96.7771
110.083
108.586
110.504
106.283
107.868
105.034
98.7768
93.1106
126.937
111.513
106.52
104.319
108.642
96.6511
106.386
91.1826
102.96
110.577
129.139
114.387
106.732
104.218
106.505
88.504
88.8796
80.8109
95.3105
102.7
114.756
108.156
103.953
103.257
96.5954
84.8279
80.3915
74.7062
73.5609
78.3523
96.687
93.7479
86.9072
89.0739
83.638
80.0291
74.3035
68.0178
48.8675
54.6163
55.1342
71.6733
59.7107
74.0579
72.2947
71.1663
65.297
59.2879
7.35763
36.7747
20.5525
51.8652
37.1254
61.9591
64.9573
60.3763
56.3649
44.4113
5.58674
34.667
18.7655
32.7039
16.7918
47.5458
49.1841
40.3772
44.8154
27.4196
10.9352
1.5409
15.6583
24.6493
19.6907
32.8217
26.2436
23.7362
14.9268
12.9592
5.25555
2.92049
8.64128
26.6461
11.166
14.6559
6.9347
1.27654
-3.97565
-0.588757
0.158161
0.285096
0.764372
13.4163
6.75411
15.2122
-0.948354
-2.90574
-0.0400498
-2.01212
-0.354671
-0.049499
0.0722228
0.995244
4.08621
35.8752
-1.09313
-1.12072
-1.03387
-1.18288
0.0596377
-0.0758215
0.327067
-0.277775
6.41614
40.8961
-0.821863
-1.4437
-1.51469
-1.45958
0.220367
0.436855
0.634297
0.498374
3.55728
44.3245
-1.98091
-1.77455
-1.77761
-1.5932
0.321904
0.499853
0.664588
0.819184
4.84901
43.7166
-1.90059
-1.75302
-1.70952
-1.67313
0.182161
0.314613
0.482266
0.626327
4.32013
43.5305
-1.92871
-1.78499
-1.72646
-1.6745
0.0311824
0.0891731
0.273652
0.409892
4.97786
42.5565
-1.87008
-1.71873
-1.67032
-1.62229
-0.228844
-0.209131
-0.0692782
-0.0221171
21.0226
26.8898
-1.59124
-1.54333
-1.53367
-1.52181
-0.474999
-0.510299
-0.453276
-0.59392
45.0055
3.4837
-1.21463
-1.34835
-1.38784
-1.41747
-0.609274
-0.669977
-0.628434
-0.73954
43.8259
3.32101
-1.18824
-1.29469
-1.3302
-1.36481
-0.688627
-0.707174
-0.716528
-0.811227
36.7213
12.0866
-1.22136
-1.30368
-1.33325
-1.35462
-0.721239
-0.728848
-0.727803
-0.697369
18.3294
31.1342
-1.39671
-1.35983
-1.36516
-1.35998
-0.749767
-0.759627
-0.772908
-0.797964
29.8423
20.2612
-1.32505
-1.34606
-1.35821
-1.36106
-0.777502
-0.783865
-0.794187
-0.814537
28.1586
22.4578
-1.3196
-1.34519
-1.35802
-1.36421
-0.803345
-0.802891
-0.800527
-0.788478
23.2228
27.577
-1.38347
-1.36886
-1.37001
-1.37494
-0.838698
-0.839988
-0.838436
-0.85679
27.4222
23.6495
-1.37707
-1.38725
-1.38981
-1.40092
-0.872176
-0.869294
-0.871008
-0.874305
25.5754
25.8343
-1.43056
-1.42708
-1.4288
-1.43426
-0.90729
-0.910706
-0.906132
-0.923337
27.4987
24.1703
-1.44115
-1.45275
-1.45533
-1.46072
-0.928121
-0.934412
-0.907316
-0.900873
24.7566
27.2051
-1.45496
-1.44922
-1.46334
-1.47372
-0.963439
-0.969422
-0.933933
-0.941311
27.1329
25.0539
-1.37159
-1.38353
-1.43381
-1.43623
-1.00442
-0.976482
-0.963057
-0.971576
27.2468
25.1062
-1.32376
-1.33333
-1.41077
-1.4182
-1.02755
-0.994084
-0.988403
-0.984179
25.529
26.8331
-1.36606
-1.35153
-1.43234
-1.43619
-1.06683
-1.03149
-1.02025
-1.02463
26.7448
25.5944
-1.36788
-1.3625
-1.42137
-1.43945
-1.07942
-1.0656
-1.01768
-1.0273
27.3554
25.0382
-1.33944
-1.34093
-1.38865
-1.44705
-1.08836
-1.07406
-1.00784
-1.01437
26.1003
26.26
-1.36759
-1.36341
-1.37949
-1.45281
-1.12079
-1.09369
-1.04613
-1.0539
26.252
26.0153
-1.40388
-1.40019
-1.40408
-1.46544
-1.1599
-1.12783
-1.11109
-1.11739
26.8432
25.2832
-1.47729
-1.47643
-1.483
-1.50855
-1.20008
-1.17915
-1.17532
-1.17935
25.9908
25.9539
-1.53492
-1.53119
-1.53236
-1.53968
-1.24801
-1.24121
-1.22906
-1.23793
26.2272
25.5365
-1.55896
-1.55544
-1.55716
-1.55939
-1.27828
-1.27859
-1.27404
-1.28826
26.3187
25.1964
-1.57209
-1.56807
-1.56986
-1.57095
-1.29605
-1.29266
-1.27657
-1.28479
25.1961
25.9912
-1.58887
-1.57672
-1.57837
-1.5841
-1.29897
-1.30397
-1.27759
-1.2915
25.1985
25.4808
-1.59474
-1.58174
-1.58391
-1.59728
-1.35025
-1.35931
-1.32106
-1.33922
25.3504
24.5187
-1.61207
-1.59935
-1.59938
-1.61091
-1.39654
-1.3956
-1.36413
-1.38095
26.7758
22.0583
-1.61617
-1.6164
-1.61939
-1.62645
-1.44222
-1.40726
-1.41077
-1.42171
27.9628
19.6585
-1.60322
-1.62505
-1.63119
-1.63664
-1.47753
-1.45914
-1.46647
-1.46302
26.5744
19.9649
-1.60664
-1.63911
-1.64434
-1.64821
-1.50912
-1.5084
-1.50548
-1.49229
24.2471
20.9878
-1.62328
-1.65547
-1.65879
-1.66213
-1.53323
-1.53497
-1.52627
-1.51823
23.0274
21.0237
-1.64493
-1.66364
-1.67579
-1.67616
-1.54686
-1.55213
-1.53252
-1.5489
22.3555
20.6286
-1.69368
-1.68523
-1.69423
-1.69927
-1.56968
-1.56583
-1.54039
-1.59381
20.6638
21.2044
-1.77337
-1.71785
-1.71821
-1.72614
-1.59135
-1.58666
-1.55989
-1.66534
20.4387
19.8415
-1.84752
-1.74349
-1.74286
-1.74549
-1.6077
-1.60523
-1.58063
-1.7048
18.96
18.6092
-1.88705
-1.76155
-1.76053
-1.76077
-1.63311
-1.62903
-1.61665
-1.68877
14.2971
18.8489
-1.86202
-1.78244
-1.77791
-1.77676
-1.66252
-1.65839
-1.65598
-1.6888
11.302
17.1749
-1.69964
-1.79922
-1.79247
-1.79205
-1.68865
-1.68703
-1.69188
-1.60219
14.9804
10.3551
-1.71267
-1.80869
-1.8064
-1.80565
-1.71271
-1.70579
-1.70876
-1.21366
12.9458
5.7389
-2.36972
-1.81606
-1.82533
-1.82153
-1.7388
-1.73249
-1.73473
-1.76937
5.33633
7.65739
-2.80292
-1.83301
-1.83726
-1.83819
-1.775
-1.77155
-1.77194
-2.67653
2.35849
4.44728
-1.82091
-1.88173
-1.85114
-1.85327
-1.80514
-1.80361
-1.83019
-2.41359
0.350924
2.24721
-2.04539
-1.94538
-1.87036
-1.8698
-1.82925
-1.82975
-1.93825
-1.92968
-0.547688
0.683125
-1.40774
-2.08174
-1.88565
-1.88516
-1.84823
-1.84797
-2.05222
-1.07459
-0.320929
-0.183805
-1.83989
-2.73065
-1.91423
-1.90316
-1.86993
-1.87365
-3.461
-2.00525
-0.846795
-0.93765
-1.64828
-3.21438
-1.89081
-1.91383
-1.89529
-2.03705
-4.9334
-3.50357
-1.74679
-0.894182
-1.27813
-3.29669
-2.92911
-1.93626
-1.94201
-3.60316
-4.64621
-5.08737
-5.76118
-6.10509
-6.22245
-6.17429
-4.8048
-1.93919
-2.69036
-9.51757
-12.944
-14.8379
-15.7569
-16.0083
-15.2995
-13.3452
-10.0477
-2.85088
670.232
671.054
671.218
671.628
671.654
668.338
669.663
670.538
671.812
673.854
675.619
677.198
678.972
680.891
682.842
684.452
685.617
686.478
686.931
687.17
687.512
686.756
686.246
686.179
684.937
680.28
677.348
671.593
667.116
664.845
664.47
666.068
668.82
674.636
679.137
684.028
690.904
703.193
719.398
727.195
655.446
654.516
653.921
651.559
651.096
650.003
649.229
652.818
651.552
653.97
655.583
657.304
659.611
662.064
664.291
666.22
667.642
668.597
669.23
669.441
669.856
667.662
665.893
661.794
658.796
663.676
656.043
655.936
647.508
644.259
645.301
647.682
651.644
651.711
654.255
656.177
659.638
665.281
674.57
681.993
638.077
637.225
635.405
633.322
631.396
630.333
629.024
632.798
634.375
635.88
637.572
639.883
641.87
644.288
647.263
649.218
650.662
651.87
652.893
653.574
654.809
652.61
651.433
647.359
642.358
642.775
632.753
625.702
618.419
615.635
618.498
622.411
627.335
632.176
634.981
640.736
643.273
644.878
644.313
648.974
618.339
616.931
614.595
611.838
609.8
608.815
608.724
612.288
613.93
614.599
617.537
620.321
623.082
626.82
630.423
633.082
634.984
636.121
637.284
638.411
639.159
638.608
634.838
628.965
622.333
615.384
606.106
598.525
588.297
585.042
584.441
582.532
586.712
597.91
607.186
612.34
621.952
623.106
621.365
622.37
600.385
597.943
595.297
592.505
589.309
587.423
588.052
588.433
588.659
589.435
593.755
599.254
603.353
608.779
613.164
616.748
619.045
620.63
621.637
622.426
622.797
621.687
618.772
612.617
606.086
597.543
586.123
575.173
566.483
562.71
562.683
574.477
576.543
577.417
585.372
589.394
600.096
595.477
596.654
597.523
580.532
577.054
573.403
569.448
564.784
560.6
559.55
560.784
562.199
568.205
575.118
578.384
583.825
590.954
597.41
602.385
604.581
606.073
606.784
606.671
605.899
604.542
601.464
596.142
589.905
583.052
574.916
566.417
559.769
556.684
556.505
554.707
572.802
561.174
565.761
568.147
571.497
574.085
573.441
575.694
562.754
557.112
550.48
545.162
539.611
535.43
527.733
525.248
528.373
536.309
544.134
553.937
564.821
574.585
585.929
590.955
591.787
592.715
593.24
592.311
590.413
587.682
584.101
579.75
574.582
568.732
563.508
558.581
553.415
549.49
548.322
549.588
549.612
557.491
545.265
548.521
549.887
552.418
556.314
558.997
546.225
540.349
533.563
527.388
523.797
515.257
505.863
497.87
491.565
500.587
517.504
530.346
545.287
559.373
568.979
584.772
586.662
576.248
576.612
576.52
574.813
571.451
567.316
563.059
558.389
553.006
549.012
544.797
540.675
538.043
538.205
536.646
533.5
554.292
535.608
534.709
538.472
538.66
542.329
543.956
531.559
526.852
516.614
514.947
510.852
502.579
492.931
484.233
479.224
480.551
496.781
511.499
522.332
533.061
546.188
558.823
569.92
574.112
572.625
568.826
564.115
558.097
552.067
546.567
541.305
536.675
531.853
529.394
531.403
524.882
525.048
522.384
518.66
535.962
529.983
524.695
528.596
528.942
530.789
534.114
518.347
515.445
509.651
504.57
502.062
496.08
488.586
480.588
474.221
472.003
475.021
484.183
490.581
497.437
510.924
524.997
533.952
538.17
557.791
554.87
550.296
541.191
534.306
528.619
523.924
519.631
515.105
517.58
515.095
512.459
511.79
509.593
508.132
521.467
521.086
516.719
517.048
517.931
519.382
526.647
506.615
503.533
500.605
496.675
490.472
487.851
487.488
476.323
478.994
461.167
463.38
465.766
468.794
471.505
471.276
482.932
490.435
493.164
503.412
518.393
512.701
513.123
513.168
508.871
504.678
501.457
498.835
501.686
498.482
498.351
499.179
499.799
501.968
505.953
509.572
499.03
501.583
503.649
504.818
510.124
494.38
490.632
489.061
484.256
478.663
474.262
470.497
468.352
462.124
452.043
450.274
448.129
445.068
441.087
428.813
432.916
441.906
449.008
451.915
458.809
472.897
470.201
476.443
481.398
480.852
479.995
482.834
483.896
480.791
482.614
484.944
486.803
488.599
490.685
493.409
483.5
485.052
487.955
489.653
491.152
477.536
473.368
475.682
467.013
464.964
459.966
450.911
450.516
446.202
440.772
433.545
425.133
409.073
395.121
373.644
352.815
352.637
366.997
383.536
397.516
414.807
439.082
435.994
449.877
457.085
455.592
464.088
461.981
463.908
465.719
468.098
470.753
472.441
474.794
476.89
468.778
469.99
473.331
475.832
477.892
464.933
460.806
447.165
445.477
441.07
434.909
438.491
435.859
426.832
412.907
404.248
389.838
371.169
345.744
320.265
302.2
321.729
319.901
327.107
352.16
360.107
392.658
402.271
422.467
432.245
432.296
441.212
441.146
444.395
446.711
449.333
451.978
452.37
460.57
460.36
458.869
459.014
461.097
462.974
465.284
457.398
438.737
428.238
420.266
413.537
407.361
401.586
395.541
390.717
381.734
369.19
353.569
333.713
309.775
303.55
300.419
301.884
305.576
307.904
313.043
335.7
357.679
375.975
397.103
406.469
411.968
420.437
422.02
425.716
428.639
431.672
437.381
443.849
446.494
445.352
444.767
445.985
447.412
448.695
451.478
414.537
404.324
392.517
380.492
372.346
369.528
368.08
364.401
359.876
352.317
341.518
327.987
309.424
304.757
303.307
301.747
303.181
304.803
305.495
305.308
318.658
339.273
361.988
377.514
385.585
390.234
399.485
402.661
406.288
410.879
413.601
422.535
433.643
428.555
426.141
426.529
427.711
430.023
432.6
435.928
362.5
359.659
352.792
356.154
347.664
339.521
335.48
334.626
333.651
330.467
324.39
314.886
303.567
306.752
306.005
305.153
305.162
305.71
305.104
310.719
324.467
338.306
350.813
360.279
366.774
371.774
376.225
381.548
384.288
389.652
392.555
393.379
397.431
400.643
402.535
404.452
407.032
410.215
413.438
417.984
311.708
321.84
328.438
329.079
326.645
323.493
319.242
316.473
316.51
314.691
311.38
306.795
302.671
306.501
308.231
306.967
306.184
305.238
305.965
317.02
327.244
331.787
339.077
342.127
348
352.833
356.502
360.535
364.865
366.681
368.752
373.338
376.355
379.398
382.24
384.232
386.208
386.901
386.215
390.754
296.731
309.62
315.933
316.914
314.483
311.842
302.612
295.107
296.275
297.68
295.766
293.346
291.571
291.829
308.472
304.824
300.671
301.934
305.029
308.891
313.296
317.395
321.227
325.157
328.773
332.936
336.122
340.796
344.922
348.101
350.21
353.751
357.565
361.248
364.721
367.987
370.587
369.586
369.936
375.561
301.047
305.334
301.951
299.211
291.022
282.573
276.177
271.263
271.007
273.202
272.671
270.973
270.527
270.101
309.078
285.552
286.066
285.936
287.425
290.121
293.196
296.774
300.937
305.59
309.525
313.083
317.68
321.835
325.743
329.31
332.402
335.491
339.435
343.31
346.945
351.276
355.804
355.779
356.042
364.176
282.662
279.182
273.255
263.381
252.768
244.253
239.154
236.756
237.661
240.093
239.508
238.706
240.975
245.149
292.324
254.603
258.254
262.488
265.828
268.886
272.389
279.457
284.218
287.793
291.686
295.687
300.073
304.457
308.417
311.277
314.447
317.754
321.294
324.726
328.369
331.599
338.625
341.504
339.234
351.303
246.81
236.534
224.628
210.442
205.779
202.899
197.76
199.292
202.364
202.78
196.953
189.216
183.754
203.93
249.067
221.244
231.37
237.952
244.052
248.752
254.262
262.795
268.838
272.033
274.761
277.378
284.879
287.426
292.043
292.012
296.34
299.217
301.269
303.381
306.863
312.521
319.392
323.975
326.822
339.739
214.188
201.589
194.313
191.849
189.299
182.469
177.02
179.378
180.931
174.585
156.872
142.363
146.04
158.951
175.717
194.143
204.849
210.226
216.857
223.884
230.585
237.96
243.139
247.626
252.355
259.975
264.181
270.03
275.592
273.534
277.299
279.461
281.137
282.522
297.658
300.224
301.204
309.063
313.229
313.192
193.341
185.826
183.081
178.396
176.552
174.554
175.021
174.162
172.465
164.894
148.868
150.315
165.577
148.668
172.181
177.173
177.297
176.984
180.37
188.388
201.457
211.36
218.999
224.743
228.329
237.922
242.926
248.017
251.039
256.115
256.649
255.002
263.407
274.793
283.154
290.751
291.033
298.103
297.497
299.322
179.715
176.842
175.009
170.788
169.103
167.247
171.028
171.596
167
161.392
155.003
160.561
164.817
159.099
169.718
167.166
169.728
171.404
172.142
167.861
175.009
189.483
199.568
206.581
212.779
219.886
221.901
228.082
230.197
230.479
240.004
248.141
254.255
260.555
265.556
268.078
273.81
282.434
285.505
283.426
170.913
165.421
163.538
162.024
162.067
160.415
158.376
167.983
161.276
160.994
160.23
167.466
167.348
166.958
167.21
168.22
168.937
169.17
168.774
167.029
162.704
182.265
188.786
193.91
198.078
201.067
206.721
212.091
212.982
211.893
219.561
221.027
220.734
228.78
236.237
240.682
245.257
251.232
255.14
255.346
162.453
161.632
160.453
157.751
154.955
156.054
156.678
157.761
157.604
154.902
177.129
167.379
168.494
168.032
167.216
167.658
167.733
167.978
168.193
163.604
163.911
173.576
173.216
179.673
181.851
184.648
189.593
193.417
185.867
193.782
181.741
183.459
188.501
197.684
203.689
206.268
211.207
213.09
213.467
216.145
160.837
158.058
155.159
152.374
151.752
146.645
142.52
156.164
141.008
147.776
154.731
155.804
159.969
162.573
162.301
163.882
164.578
160.713
158.346
156.321
160.89
158.127
163.315
163.081
162.952
162.911
163.336
163.479
152.548
163.102
127.467
127.3
133.952
148.974
160.629
167.123
178.515
178.185
179.515
183.57
153.405
151.92
149.738
144.928
143.062
141.331
135.16
146.412
129.795
138.322
143.16
145.852
147.468
148.272
147.451
145.996
146.103
147.798
150.581
149.692
146.983
149.356
149.179
145.23
142.554
138.092
132.685
126.363
113.385
119.993
99.9843
93.3588
101.791
100.097
125.736
137.156
151.089
154.716
152.926
155.35
146.801
146.42
154.974
140.715
140.829
139.806
139.33
138.338
135.508
134.033
132.901
131.139
130.675
129.886
129.85
130.928
133.763
135.319
134.801
135.832
136.958
136.422
134.249
131.127
124.89
116.741
109.995
107.279
104.969
102.936
95.4996
96.6442
98.413
94.1489
102.781
114.702
124.081
129.952
129.849
131.993
141.13
139.924
145.007
136.19
134.875
134.249
133.728
131.047
128.512
125.816
121.418
122.128
117.958
116.965
116.958
117.821
117.92
121.837
123.808
124.96
125.356
124.101
122.137
120.06
113.812
107.466
110.03
110.055
110.327
108.57
101.609
100.288
94.9147
94.5494
96.1335
101.055
104.969
108.317
109.934
110.716
136.9
137.314
134.358
139.441
133.562
131.001
124.548
123.579
120.799
118.347
115.738
113.036
110.319
114.315
108.102
111.806
109.062
112.182
113.771
113.838
114.381
114.544
112.51
110.414
109.862
109.334
112.774
113.33
113.966
113.025
108.551
101.396
90.5633
83.3885
83.6594
83.7077
85.661
88.5357
90.5364
91.7024
131.717
131.358
130.193
145.512
122.815
128.551
110.498
112.832
112.305
111.257
110.074
108.83
107.286
108.426
116.693
99.9139
101.518
102.029
101.126
101.654
102.517
102.926
102.955
103.539
105.869
109.723
113.587
113.017
111.665
107.74
101.281
91.7272
76.524
69.5349
63.4895
63.8866
65.2966
70.2569
74.4964
76.3727
124.853
123.105
124.337
133.868
112.889
114.888
107.378
105.778
103.919
102.528
101.771
101.036
99.4265
97.7221
99.5528
95.6171
93.4556
93.9959
93.5098
92.74
92.6632
92.799
93.4705
94.5347
100.759
106.598
99.8057
99.0609
95.208
88.5513
80.8286
72.646
64.9957
57.6995
56.1756
55.5548
57.1658
61.2453
67.9191
70.3675
115.484
114.029
114.894
122.492
106.877
107.3
105.518
98.5358
94.2108
91.6849
89.3424
86.6759
86.6068
88.1891
87.505
86.5518
85.2151
82.3921
80.3496
80.2296
81.8542
83.066
84.7206
87.087
88.6936
92.432
94.2515
94.5294
90.0144
80.4805
71.0911
60.0107
51.478
48.6124
50.9123
53.0537
56.766
61.4612
68.3356
72.0848
105.273
102.159
100.037
108.658
99.0555
95.1447
104.543
85.3079
84.2417
82.3792
79.7058
76.2688
75.5426
80.0444
79.8841
77.8966
79.8209
78.5034
75.5374
70.6983
70.5508
71.6431
74.5332
79.2828
84.9134
88.8365
90.617
88.6871
82.8401
73.6324
65.6026
55.605
44.0087
43.961
47.9909
53.1317
58.0009
63.6948
71.642
76.538
91.2495
89.9352
84.074
85.3327
87.1381
86.0371
82.4401
82.3803
79.9992
77.9051
76.2049
74.1483
71.5239
84.2496
71.0853
81.7028
66.0922
71.329
58.7592
55.2274
52.6635
52.527
55.9929
63.1617
72.8106
80.5048
82.3092
80.5438
75.046
65.9949
59.5023
52.6536
46.9726
43.9206
43.1561
51.4481
53.9676
58.8011
68.8261
74.837
80.5355
78.3233
76.3612
72.1848
72.0191
75.244
73.5676
73.2483
73.6474
74.592
74.7186
74.3603
71.5532
88.591
60.4582
59.2867
54.7152
48.8803
44.0776
35.3227
25.8117
19.293
16.6173
19.3402
31.9918
52.361
60.6796
59.0124
52.5136
43.3524
30.753
18.911
10.9602
14.7247
27.9869
38.7113
46.191
49.9572
58.8099
58.1557
69.9321
69.4129
66.8568
64.3824
62.0946
58.9177
57.6827
61.9246
61.855
63.2873
65.4104
66.8217
65.6711
73.9899
60.6638
37.2673
35.5054
30.2558
22.8364
14.3966
3.73387
-2.88531
-0.143338
-0.93967
-1.18127
18.6361
18.5347
8.17438
7.15943
11.7046
5.25878
0.23336
-0.887772
-1.43632
3.13113
15.7424
20.8687
23.6343
26.3361
24.9036
61.8109
60.0669
58.9634
57.4819
55.4729
53.8661
53.4065
53.2155
49.5875
53.0239
54.8499
57.0702
58.0846
54.6247
49.7194
39.3127
24.559
17.8583
15.7096
11.4605
6.53609
1.64449
-0.905155
-2.57119
-2.6875
-4.6385
-2.11138
-0.396612
-0.334708
-0.434222
-0.353265
-0.265344
-0.30458
-0.1332
0.117863
2.26471
9.53077
4.6551
2.73942
1.73817
54.052
50.3915
47.2783
50.1987
50.2887
48.4595
47.255
46.6707
45.5819
45.0968
42.6451
42.2658
50.99
46.7563
38.3915
34.4676
29.1046
23.4246
18.7554
14.1784
9.02173
3.93703
1.71107
5.6615
-5.48585
-1.08592
-0.532479
-0.478126
-0.47439
-0.479022
-0.471697
-0.446178
-0.43827
-0.377378
-0.501715
-0.617688
-0.263805
-0.543862
-0.46001
-0.431386
42.2195
41.9223
41.9991
42.6518
37.2943
41.639
42.0446
41.0655
40.6243
40.8207
40.0102
40.077
32.8946
33.0606
38.3793
28.1664
24.7148
25.4864
22.203
15.7131
19.2447
15.0293
8.1805
4.39883
-0.530698
-0.600277
-0.614526
-0.589484
-0.571631
-0.564918
-0.561002
-0.524628
-0.508082
-0.568116
-0.58951
-0.592763
-0.589929
-0.579059
-0.575272
-0.554526
28.1833
32.5689
34.7659
35.2379
38.3527
40.8683
37.2431
32.3344
34.1172
34.026
32.4137
27.7154
29.7988
30.0179
29.0553
28.9231
25.9067
24.6414
23.0672
16.4437
5.99522
0.916658
-0.300255
-0.888093
-0.899978
-0.77056
-0.743943
-0.659149
-0.65231
-0.641141
-0.646025
-0.724939
-0.656722
-0.779718
-0.751164
-0.690012
-0.699285
-0.691052
-0.643131
-0.636445
13.2693
15.686
17.6496
16.8532
14.9426
17.727
23.4641
31.2754
30.516
19.7315
29.3176
26.6291
20.0595
15.7986
13.1058
10.9487
9.91926
7.76055
1.19399
-0.642516
-0.521996
-1.06241
-0.885309
-0.885961
-0.903816
-0.886193
-0.853604
-0.823722
-0.793645
-0.805093
-0.722627
-0.803749
-0.739135
-0.900486
-0.861402
-0.824314
-0.825686
-0.805623
-0.755791
-0.728122
3.70291
6.04003
5.02631
1.68491
-1.37324
-2.11127
-0.527717
0.277415
0.543783
2.56347
1.88838
0.368419
0.471476
1.54343
2.03669
1.82041
0.187875
-0.965932
-1.06689
-0.993828
-0.965147
-1.01469
-1.02132
-1.00422
-0.985745
-0.965429
-0.949763
-0.941022
-0.924096
-0.917299
-0.887698
-0.906792
-0.941609
-0.981297
-0.955843
-0.942339
-0.936761
-0.946866
-0.875751
-0.841337
-1.61892
0.705829
-0.158815
-0.988932
-0.844665
-0.990774
-0.983505
-0.966421
-0.977572
-1.00307
-1.02463
-1.03753
-1.04419
-1.05743
-1.06543
-1.05851
-1.05032
-1.02897
-1.0256
-1.05592
-1.07875
-1.06405
-1.0999
-1.10616
-1.07713
-1.07118
-1.07693
-1.08922
-1.06711
-1.05895
-1.06171
-1.04687
-1.06403
-1.03705
-1.02242
-1.03304
-1.04721
-0.996321
-0.952824
-0.920461
-1.35883
-1.34864
-1.32504
-1.14659
-1.17789
-1.13866
-1.10198
-1.04418
-1.00414
-1.15482
-1.18554
-1.17816
-1.23954
-1.15239
-1.12365
-1.1106
-1.10519
-1.09378
-1.09314
-1.11324
-1.14211
-1.16201
-1.20302
-1.22572
-1.24182
-1.25863
-1.25159
-1.22414
-1.19065
-1.14702
-1.15044
-1.15643
-1.12519
-1.06692
-1.04493
-1.05679
-1.09133
-1.03063
-1.0388
-0.983459
-1.40352
-1.39369
-1.40234
-1.41211
-1.38904
-1.33413
-1.29899
-1.15621
-1.14059
-1.14121
-1.11394
-1.17653
-1.23892
-1.20038
-1.15812
-1.13089
-1.11941
-1.11475
-1.08413
-1.17182
-1.21714
-1.22937
-1.25051
-1.26896
-1.28612
-1.29526
-1.2938
-1.27901
-1.27065
-1.24947
-1.22864
-1.21616
-1.20772
-1.17184
-1.03141
-1.02294
-1.07265
-1.0913
-1.09435
-0.994868
-1.45712
-1.41704
-1.45048
-1.43286
-1.41426
-1.377
-1.30157
-1.1886
-1.19938
-1.30219
-1.23466
-1.21725
-1.22153
-1.19034
-1.16315
-1.142
-1.11874
-1.13833
-1.12471
-1.20929
-1.22439
-1.25081
-1.27361
-1.29814
-1.31721
-1.32098
-1.31435
-1.30201
-1.28083
-1.26107
-1.24688
-1.24994
-1.28394
-1.28831
-1.18328
-1.20536
-1.19663
-1.16207
-1.1575
-1.16288
-1.60755
-1.55251
-1.50885
-1.48922
-1.45073
-1.41052
-1.38583
-1.38541
-1.37405
-1.34534
-1.30683
-1.29242
-1.24695
-1.21631
-1.20041
-1.16485
-1.17041
-1.16603
-1.20355
-1.21415
-1.23566
-1.26194
-1.28595
-1.30975
-1.32908
-1.33208
-1.32833
-1.31866
-1.29483
-1.27825
-1.26941
-1.27039
-1.28289
-1.29988
-1.2959
-1.25102
-1.2267
-1.21234
-1.20728
-1.20951
-1.62279
-1.57127
-1.52958
-1.49689
-1.46818
-1.4464
-1.42642
-1.40999
-1.37231
-1.3374
-1.31937
-1.2998
-1.26522
-1.25116
-1.21899
-1.21426
-1.19958
-1.2098
-1.20338
-1.22945
-1.20148
-1.27526
-1.28566
-1.29687
-1.3107
-1.31897
-1.31826
-1.3097
-1.2921
-1.27464
-1.26347
-1.25659
-1.2552
-1.25947
-1.25837
-1.24357
-1.22667
-1.21568
-1.21306
-1.21048
-1.58365
-1.54681
-1.51549
-1.48959
-1.46714
-1.44868
-1.41969
-1.38056
-1.35783
-1.33253
-1.31455
-1.30208
-1.29685
-1.28034
-1.26178
-1.25313
-1.2356
-1.22272
-1.23531
-1.22422
-1.22674
-1.26456
-1.2663
-1.2716
-1.2753
-1.27599
-1.27453
-1.26792
-1.25521
-1.24146
-1.23281
-1.22709
-1.2245
-1.22551
-1.22429
-1.21972
-1.21744
-1.21765
-1.22019
-1.2151
-1.50698
-1.49895
-1.48357
-1.46809
-1.45289
-1.43007
-1.41386
-1.39599
-1.37437
-1.34914
-1.32203
-1.31232
-1.309
-1.29593
-1.28387
-1.26937
-1.2592
-1.26085
-1.25574
-1.25001
-1.25334
-1.26248
-1.26878
-1.26375
-1.25769
-1.25371
-1.24912
-1.23661
-1.22995
-1.22156
-1.2172
-1.21665
-1.21593
-1.21774
-1.22005
-1.22121
-1.22401
-1.22082
-1.21964
-1.21888
-1.4299
-1.44466
-1.44093
-1.43236
-1.41799
-1.40763
-1.41095
-1.39722
-1.38412
-1.37071
-1.35924
-1.3432
-1.31444
-1.32056
-1.31053
-1.30115
-1.29802
-1.30526
-1.28784
-1.27993
-1.27548
-1.26728
-1.25826
-1.24393
-1.24473
-1.26371
-1.25318
-1.24026
-1.22636
-1.22986
-1.22395
-1.22647
-1.22615
-1.22981
-1.23281
-1.23019
-1.22606
-1.22638
-1.22795
-1.22688
-1.38339
-1.4056
-1.41256
-1.41322
-1.40944
-1.408
-1.41447
-1.404
-1.39893
-1.39329
-1.37907
-1.3698
-1.35811
-1.35111
-1.33573
-1.33311
-1.33312
-1.33782
-1.33171
-1.31836
-1.30298
-1.28152
-1.26022
-1.23777
-1.22627
-1.25277
-1.26568
-1.25589
-1.25192
-1.24558
-1.23958
-1.23773
-1.23978
-1.24254
-1.24624
-1.24787
-1.24366
-1.24777
-1.24891
-1.24729
-1.36103
-1.38553
-1.39536
-1.40455
-1.40851
-1.40341
-1.40864
-1.42489
-1.42692
-1.42464
-1.41502
-1.38511
-1.38191
-1.37281
-1.36292
-1.35346
-1.34975
-1.34769
-1.34576
-1.33939
-1.31969
-1.29577
-1.2979
-1.29978
-1.27941
-1.27856
-1.27583
-1.27038
-1.26329
-1.25392
-1.25039
-1.24787
-1.24758
-1.24826
-1.24997
-1.25153
-1.25281
-1.25239
-1.2509
-1.25213
-1.36846
-1.37629
-1.3843
-1.39851
-1.39687
-1.39231
-1.39582
-1.40916
-1.40756
-1.40624
-1.40518
-1.4007
-1.38601
-1.37628
-1.36447
-1.35778
-1.35646
-1.35217
-1.34846
-1.34533
-1.34362
-1.26505
-1.3197
-1.31916
-1.31136
-1.3035
-1.29383
-1.28292
-1.27432
-1.25782
-1.24765
-1.25656
-1.25727
-1.25442
-1.25647
-1.25925
-1.25942
-1.25987
-1.2623
-1.2474
-1.37108
-1.37087
-1.38903
-1.388
-1.40678
-1.36174
-1.39073
-1.39607
-1.395
-1.39124
-1.38712
-1.38239
-1.38219
-1.37527
-1.37223
-1.37029
-1.36434
-1.35881
-1.3533
-1.34816
-1.34696
-1.33985
-1.34259
-1.3386
-1.33069
-1.32518
-1.31605
-1.30702
-1.30008
-1.29231
-1.2818
-1.27976
-1.27813
-1.27467
-1.27338
-1.27381
-1.27569
-1.25954
-1.28051
-1.26705
-1.36616
-1.38241
-1.38206
-1.39358
-1.39942
-1.39614
-1.38788
-1.3895
-1.37916
-1.38464
-1.37654
-1.37873
-1.36849
-1.38339
-1.37518
-1.37302
-1.37112
-1.36748
-1.36315
-1.35922
-1.35875
-1.34476
-1.33731
-1.3507
-1.34908
-1.3574
-1.33963
-1.33396
-1.32804
-1.32542
-1.32584
-1.31765
-1.30872
-1.30404
-1.29486
-1.28974
-1.29221
-1.29899
-1.2957
-1.29123
-1.38298
-1.39003
-1.39727
-1.40031
-1.40224
-1.39925
-1.40125
-1.39394
-1.38849
-1.37921
-1.37798
-1.38027
-1.38343
-1.39047
-1.383
-1.3844