/*--------------------------------*- C++ -*----------------------------------*\
  =========                 |
  \\      /  F ield         | OpenFOAM: The Open Source CFD Toolbox
   \\    /   O peration     | Website:  https://openfoam.org
    \\  /    A nd           | Version:  8
     \\/     M anipulation  |
\*---------------------------------------------------------------------------*/
FoamFile
{
    version     2.0;
    format      ascii;
    class       volScalarField;
    location    "3.3";
    object      p_rgh;
}
// * * * * * * * * * * * * * * * * * * * * * * * * * * * * * * * * * * * * * //

dimensions      [1 -1 -2 0 0 0 0];

internalField   nonuniform List<scalar> 
9150
(
1963.41
1962.42
1961.79
1961.32
1961.08
1961.07
1961.31
1961.78
1962.41
1963.41
1962.98
1962.47
1962.05
1961.72
1961.54
1961.55
1961.72
1962.04
1962.47
1962.98
1962.71
1962.43
1962.18
1961.96
1961.84
1961.84
1961.95
1962.17
1962.43
1962.71
1962.59
1962.42
1962.25
1962.09
1962.01
1962
1962.09
1962.25
1962.41
1962.59
1962.59
1962.41
1962.27
1962.15
1962.09
1962.08
1962.15
1962.27
1962.41
1962.59
1951.61
1950.8
1951.06
1951.48
1951.65
1951.66
1951.49
1951.05
1950.78
1951.58
1955.68
1954.96
1954.76
1954.71
1954.8
1954.81
1954.72
1954.78
1954.97
1955.68
1958.78
1958.04
1957.71
1957.37
1957.3
1957.3
1957.36
1957.7
1958.02
1958.78
1961.51
1960.38
1959.91
1959.29
1959.12
1959.12
1959.3
1959.92
1960.38
1961.51
1964.09
1962.05
1961.29
1960.59
1960.32
1960.33
1960.6
1961.29
1962.05
1964.09
1947.42
1945.72
1943.6
1942.44
1941.85
1941.85
1942.41
1943.47
1945.23
1946.37
1946.43
1946.16
1945.15
1944.7
1944.22
1944.1
1944.48
1944.76
1945.65
1945.83
1945.94
1946.01
1945
1945.25
1944.82
1944.7
1945.21
1944.72
1945.73
1945.58
1942.64
1945.4
1944.45
1945.9
1945.74
1945.65
1945.85
1944.23
1945.24
1942.44
1936.48
1946.04
1946.52
1947.88
1948.27
1948.23
1947.87
1946.39
1945.94
1936.29
689.636
689.058
688.876
688.775
688.361
687.156
685.365
683.664
683.405
683.859
687.357
686.848
686.821
686.878
686.644
685.687
681.78
680.856
680.017
678.585
685.205
687.193
687.478
688.119
688.513
688.159
683.076
681.573
680.542
679.25
683.861
686.785
689.081
689.691
690.273
690.785
689.992
688.32
686.819
685.639
683.901
687.907
690.681
691.262
691.898
692.471
692.244
691.219
688.7
687.332
687.165
691.862
691.974
692.254
692.557
692.927
691.026
689.224
688.267
686.823
692.535
692.95
693.241
693.108
690.581
679.16
675.283
683.937
686.495
686.63
693.049
694.046
694.987
695.671
679.511
672.996
671.191
667.15
679.498
689.776
694.264
696.377
698.54
700.692
702.528
690.889
675.533
673.042
670.586
673.598
696.324
699.491
702.775
705.887
709.001
711.426
712.272
684.28
678.008
677.396
699.173
703.819
708.228
712.154
715.092
716.228
715.987
706.532
698.499
705.274
703.11
710.221
717.112
721.926
724.705
725.288
724.121
721.68
719.27
716.413
579.374
618.453
707.77
736.639
741.682
739.368
734.823
729.74
725.037
719.854
548.967
627.532
662.412
688.779
748.453
737.941
711.423
698.626
701.68
692.135
574.638
668.488
679.917
687.264
688.782
651.493
613.822
606.67
594.73
586.972
626.342
598.074
666.952
642.607
591.841
649.669
634.462
613.295
659.95
712.368
568.723
539.988
534.318
509.223
494.579
596.187
688.59
684.111
672.548
669.255
468.253
473.065
467.325
453.731
438.417
432.351
496.78
564.636
604.151
618.283
419.19
449.736
576.666
496.125
408.811
396.012
401.441
411.563
511.7
474.611
372.133
507.989
605.59
600.604
499.792
420.379
423.205
437.88
457.782
478.313
350.683
481.018
598.843
615.772
461.536
446.923
473.329
597.657
638.515
650.914
476.364
420.554
580.003
645.279
484.105
476.565
637.672
669.936
671.539
663.416
603.928
415.058
448.844
658.571
625.385
596.816
674.451
670.508
661.19
652.133
638.295
425.662
438.288
635.789
670.254
670.934
667.371
665.448
658.437
651.403
647.727
440.62
441.024
636.281
669.254
663.61
656.992
635.633
608.048
656.483
632.478
459.353
508.071
664.528
664.27
660.461
652.275
436.937
374.717
598.898
639.26
471.855
590.767
680.345
669.257
668.324
514.552
291.93
289.527
470.64
629.247
436.781
609.552
695.151
685.867
632.988
310.729
280.133
278.575
331.089
583.313
434.248
613.414
706.58
700.198
535.726
276.084
275.84
274.574
272.413
463.485
433.739
676.575
708.757
693.124
490.765
273.375
271.772
270.695
269.725
422.865
423.762
704.642
724.793
650.801
501.333
405.871
267.985
267.075
267.282
403.088
392.015
586.902
738.455
634.896
548.814
550.753
360.517
265.83
266.249
364.771
365.336
425.233
738.556
692.857
562.145
563.452
566.501
265.872
265.35
318.333
316.307
325.057
669.586
726.044
561.356
559.724
633.727
432.431
262.965
416.176
291.769
297.336
564.838
728.8
579.465
563.929
646.148
632.217
258.58
737.664
499.022
306.89
499.554
730.379
706.109
569.656
650.417
719.082
305.837
788.334
663.833
332.039
468.22
744.143
739.172
580.724
693.902
793.864
557.683
810.986
593.899
339.464
397.25
765.217
764.834
593.022
780.27
797.194
732.39
811.307
438.549
330.69
340.417
774.51
801.94
685.729
812.015
807.967
802.75
818.998
521.11
316.575
305.56
625.917
809.956
825.058
808.279
820.994
815.728
813.294
701.482
353.304
277.092
553.707
712.056
833.7
833.73
831.937
825.927
689.928
801.181
459.537
252.535
598.195
661.173
840.796
800.426
702.965
829.98
126.634
749.495
466.517
231.501
622.389
658.563
835.041
767.785
606.598
726.908
22.5795
198.448
396.938
177.879
637.322
649.38
577.041
690.491
590.823
443.939
10.3198
53.5567
318.955
117.605
642.612
646.409
637.167
616.739
369.231
289.322
4.2601
5.79176
186.674
84.4425
654.82
663.278
442.275
262.777
6.73155
58.5873
10.4091
17.0845
15.4743
32.1474
666.396
696.517
57.3523
1.47809
0.61971
0.211733
10.1845
8.64599
2.20713
6.8084
681.752
721.009
5.82888
0.316994
0.132104
0.0219002
1.61115
1.72265
1.83316
14.3347
695.368
740.185
17.5112
0.0972015
1.52172
1.75589
1.61088
1.72561
1.77543
23.0373
712.28
755.143
23.9865
-0.755822
-0.714327
-0.513366
1.915
2.2464
1.52367
26.5982
727.693
769.803
29.3153
-0.770127
-0.713616
-0.663822
2.40502
2.46302
1.31421
28.2806
743.595
783.211
31.396
-0.685547
-0.596723
-0.507412
2.19113
2.2108
0.984179
30.0664
777.357
782.147
29.8613
-0.501858
-0.403562
-0.242688
1.99071
1.95467
0.612435
30.2461
819.522
768.594
26.9405
-0.287603
-0.276512
-0.113987
1.89747
1.53102
0.455409
25.9856
833.716
786.013
15.4503
-0.214145
-0.238699
-0.0838197
0.903608
0.871951
0.385392
13.1365
845.081
815.79
9.46822
-0.203599
-0.216983
-0.223554
0.398383
0.55294
0.393971
7.69282
845.255
861.14
8.81835
-0.240568
-0.118563
-0.224695
0.38994
0.400069
0.368675
9.27764
883.109
871.953
7.01012
-0.20787
-0.0877379
-0.205768
0.384084
0.377759
0.367307
11.6465
904.236
898.037
9.81408
-0.187852
-0.0656896
-0.120347
0.409192
0.428738
0.380954
14.6422
921.746
927.886
14.2241
-0.191802
-0.171165
-0.0403442
0.389257
0.969905
0.363577
20.5436
953.217
948.806
19.002
-0.190398
-0.19297
-0.0714665
0.405986
1.03275
0.353094
27.2221
978.845
979.633
26.5793
-0.210455
-0.211957
-0.210687
0.542786
1.02217
0.339978
35.7425
1009.73
1005.62
34.3698
-0.216103
-0.216407
-0.222837
1.03563
1.02975
0.360462
43.9434
1034.48
1037.7
44.1263
-0.191099
0.403064
0.0894577
1.18466
0.989314
0.357993
53.0984
1064.77
1061.93
52.5984
-0.0981999
1.03136
1.26696
1.11887
0.641878
0.353338
62.2645
1091.7
1088.75
61.8001
-0.0368926
1.13605
1.51441
0.935958
0.48663
0.350193
71.0236
1115.7
1116.85
71.5121
-0.0364823
1.12651
1.54946
1.2278
0.628817
0.340471
80.368
1142.72
1140.65
80.5976
-0.0309565
0.903948
1.59411
1.86096
1.26035
0.367699
89.9079
1168.83
1165.17
90.0399
0.00658281
0.658769
1.63796
1.89612
1.50038
0.409256
99.3943
1192.89
1192.05
100.261
0.00337477
0.155693
1.5389
1.9091
1.15118
0.400975
110.388
1219.4
1218.12
111.133
-0.0140394
0.0711802
1.32015
1.34669
0.698676
0.35648
122.957
1247.5
1244.58
123.223
-0.0706042
-0.0704037
0.0291664
0.640294
0.436374
0.312167
136.333
1274.64
1273.78
136.979
-0.105715
-0.0960178
-0.0452392
0.600091
0.561352
0.277775
153.263
1305.12
1303.52
153.545
-0.110275
-0.0885377
-0.0962748
0.436281
0.74316
0.250987
172.637
1336.28
1334.27
172.42
-0.10313
-0.0871417
-0.0881088
0.740966
0.752576
0.263325
195.783
1367.67
1368.43
196.44
-0.0921641
-0.0754658
0.042025
1.31128
0.918454
0.277833
225.947
1402.47
1402.57
226.326
-0.0777271
-0.0399617
0.310187
1.29748
0.991195
0.251134
263.359
1438.62
1436.96
263.457
-0.0756896
-0.0728544
0.154132
1.28708
0.823497
0.225324
309.556
1476.39
1469.3
307.163
-0.0731064
-0.0762217
-0.0450151
1.26586
0.31578
0.198289
360.458
1511.72
1500.15
355.122
-0.0622099
-0.0685707
-0.0740935
0.619957
0.263478
0.162154
407.592
1540.46
1531.56
404.46
-0.0563807
0.012316
-0.066811
0.355125
0.354093
0.141598
448.107
1565.22
1560.33
447.758
-0.0521063
0.242277
-0.058725
0.600302
0.499979
0.136383
481.498
1589.06
1585.47
482.062
-0.0425887
0.274263
0.315351
0.972365
0.728896
0.14276
510.571
1612.69
1609.31
511.21
-0.0460972
0.152424
0.316446
0.979791
0.791712
0.147705
542.107
1636.08
1635.1
543.959
-0.059345
-0.0218164
0.191789
0.988212
0.784055
0.141318
588.514
1662.85
1660.77
589.412
-0.0654163
-0.0647286
-0.0674883
1.00211
0.696126
0.134545
667.443
1690.31
1688.98
667.957
-0.0639203
-0.0629003
-0.0631399
0.57331
0.47986
0.116103
783.5
1713.32
1718.68
786.718
-0.0651844
-0.060658
-0.0595098
0.124651
0.144899
0.0947115
927.262
1735.53
1742.09
931.059
-0.0623317
-0.0555856
-0.055156
0.0790276
0.0800091
0.0757984
1067.54
1765.5
1755.85
1068.6
-0.0520484
-0.0498824
-0.0258504
0.153386
0.0800754
0.0733445
1249.6
1784.25
1775.3
1138.27
-0.0395001
-0.048972
-0.00572758
0.214747
0.0638455
0.0617576
1316.78
1796.54
1799.7
1317.73
-0.0365098
-0.0410637
-0.00743506
0.160186
0.0444252
0.0440343
1296.69
1813.83
1817.61
1596.42
136.083
-0.0357157
-0.0333208
0.0633666
0.0319899
62.1272
1517.41
1833.09
1836.24
1703.05
323.096
-0.0358896
-0.035325
0.0471111
0.0256285
234.637
1653.97
1853.05
1854.48
1808.29
591.131
-0.0315512
-0.0310703
0.027219
0.0287211
562.538
1816.85
1873.09
1873.45
1861.31
938.569
-0.0400759
-0.0294485
0.0251563
0.0214352
991.759
1885.97
1892.4
1892.38
1891.61
1480.77
0.0210586
-0.0205019
0.0194372
49.0573
1515.28
1909.22
1911.2
1912.05
1911.66
1808.97
442.371
-0.0233088
-0.00391614
997.65
1925.68
1927.48
1926.81
1926.46
1926.34
1926.08
1229.59
-0.00662881
555.801
1855.23
1939.25
1937.35
1936.43
1936.18
1936.89
1938.84
1901.53
728.715
678.275
678.346
678.51
678.92
678.968
677.65
679.143
680.02
681.295
683.336
685.102
686.68
688.454
690.348
692.294
693.904
695.092
695.967
696.42
696.406
696.69
695.976
695.772
695.704
694.462
689.267
684.502
678.747
674.27
671.999
671.626
673.237
677.527
683.966
688.473
693.37
700.248
712.539
728.744
736.541
677.329
676.398
675.798
676.384
679.375
678.397
677.422
678.507
679.551
682.417
684.029
685.75
688.053
690.42
692.648
694.595
696.11
697.066
697.698
697.291
697.39
695.577
694.47
690.368
685.152
686.247
680.036
683.152
673.654
665.727
666.803
669.23
673.282
675.985
678.453
680.682
687.076
693.083
702.606
710.029
681.823
683.827
682.588
680.664
678.47
677.654
675.509
673.092
674.672
676.486
679.307
681.657
685.223
691.735
694.71
696.666
698.111
699.318
700.34
700.738
700.709
699.479
699.054
694.97
684.985
680.394
670.809
671.083
663.805
660.817
663.888
668.341
673.295
678.166
676.371
678.347
680.885
682.488
690.805
695.7
684.606
683.21
680.874
678.117
676.079
675.092
670.274
668.704
670.339
671.589
682.606
685.418
688.183
693.247
696.851
699.511
701.414
702.507
703.583
704.704
705.665
705.269
701.498
695.626
688.869
675.968
657.432
646.114
635.602
632.302
631.89
644.765
649.739
662.296
671.572
671.63
674.605
676.216
686.737
687.786
685.598
683.159
680.513
677.722
674.525
672.639
673.263
672.635
671.155
668.987
673.685
678.464
685.836
694.185
698.573
702.159
704.46
705.917
706.924
707.944
708.315
706.33
701.943
697.877
691.698
683.155
668.656
649.83
634.424
641.795
623.292
623.618
625.684
660.145
668.063
669.472
667.816
676.121
680.659
681.605
684.68
681.207
677.556
673.601
668.348
663.587
661.559
663.632
659.987
647.345
653.513
662.371
679.674
690.551
698.692
706.767
708.982
710.584
711.306
711.193
710.421
706.181
702.378
697.03
693.424
687.62
679.452
670.966
663.368
661.126
660.989
646.98
633.099
640.763
666.11
661.097
671.217
675.54
674.78
666.456
686.235
675.931
673.57
664.628
634.48
613.465
615.374
614.568
612.866
622.014
640.132
663.877
677.034
681.693
692.767
697.814
712.562
716.24
716.766
715.836
713.939
711.208
703.662
698.981
693.814
690.797
687.066
682.139
676.974
673.037
671.847
673.069
646.562
635.157
658.192
658.374
661.516
665.877
655.992
653.989
688.681
675.418
663.141
643.383
592.233
579.934
570.479
562.473
567.62
613.818
647.945
658.602
680.833
699.278
703.121
686.363
686.132
707.054
719.14
719.049
717.343
713.98
709.846
701.118
695.981
690.803
691.578
687.364
677.491
677.09
680.682
679.067
666.794
622.661
635.092
664.409
676.71
663.983
651.936
653.56
686.884
682.542
663.715
597.15
584.153
575.81
566.148
557.45
552.441
573.248
648.244
669.184
680.891
692.014
705.214
684.144
678.71
682.877
684.972
725.937
725.648
719.629
713.578
707.289
701.779
698.167
693.335
680.302
673.698
683.147
686.458
683.796
657.931
609.426
613.849
673.09
689.88
688.616
667.945
658.335
697.418
694.886
689.013
617.465
584.115
577.955
570.433
562.419
556.053
554.263
583.765
615.378
638.366
668.505
689.23
703.434
712.379
716.204
687.901
698.811
725.352
721.698
714.809
709.088
704.383
700.1
690.707
673.412
673.89
692.101
692.191
689.999
635.628
601.624
600.566
668.87
697.8
698.713
700.164
665.697
705.234
701.857
698.924
694.911
682.174
595.225
578.024
612.455
641.516
579.36
558.959
561.139
564.198
574.251
654.515
680.008
687.658
690.205
684.406
677.528
683.773
712.387
712.623
708.303
704.129
700.913
686.152
672.434
678.186
697.709
698.575
699.198
642.196
593.589
597.113
631.827
701.079
703.46
704.629
681.807
713.334
665.352
656.602
651.83
646.227
655.538
658.182
655.027
646.418
561.532
555.407
552.811
549.493
548.219
613.206
647.775
657.692
664.851
667.619
671.378
643.902
670.536
694.679
699.783
699.278
698.441
669.316
670.137
695.58
700.993
703.332
705.192
664.143
586.564
589.23
620.823
702.63
706.796
708.494
707.366
714.934
705.552
660.749
672.793
698.761
691.469
659.494
579.427
568.162
559.919
549.313
544.278
595.096
631.655
605.705
560.667
564.921
600.457
617.622
631.126
609.096
579.756
653.735
687.08
694.461
683.746
659.774
674.582
701.242
703.096
705.477
708.132
662.796
578.947
581.01
613.134
705.679
711.201
713.703
715.762
615.575
614.741
692.486
700.129
695.65
653.957
587.596
577.831
574
614.559
661.532
647.44
628.555
602.927
558.488
430.801
339.748
381.941
555.911
604.143
524.873
542.303
620.588
678.396
688.424
660.294
651.94
668.229
700.723
703.076
705.7
707.732
594.772
573.019
572.845
640.713
715.821
718.004
719.874
718.401
581.905
629
701.051
693.703
687.06
680.401
667.444
671.351
667.392
658.417
645.874
630.253
610.397
537.511
343.633
314.898
316.458
320.586
436.695
504.65
478.051
518.533
634.11
671.888
681.367
653.413
645.876
656.196
700.711
703.991
707.026
610.68
565.235
567.697
582.168
706.341
721.921
723.358
724.596
717.539
702.011
691.808
674.675
660.749
658.799
662.25
663.62
660.135
655.638
648.082
637.284
623.752
597.058
374.121
318.757
317.149
318.658
320.382
353.194
418.719
469.535
573.206
655.563
671.266
679.321
658.788
639.428
642.304
693.276
705.155
706.528
594.919
564.702
587.722
691.888
721.479
722.688
725.001
727.578
730.001
668.531
665.683
597.429
504.499
519.127
558.729
618.608
649.264
648.479
645.313
639.237
629.733
568.093
341.773
322.394
321.544
321.558
322.202
400.316
516.262
561.849
607.395
646.303
671.865
679.478
684.439
639.421
636.209
642.736
702.479
704.937
669.56
666.072
696.298
716.496
718.459
721.041
724.224
727.447
731.993
636.275
562.17
482.203
482.551
480.117
476.965
513.4
643.236
650.372
648.616
645.31
640.726
611.137
350.841
325.625
324.349
327.552
402.777
553.916
642.339
657.745
637.522
643.629
669.086
679.614
684.332
655.756
629.945
634.048
647.783
693.045
705.573
709.302
712.416
715.276
717.271
719.248
719.94
719.255
696.689
463.228
474.57
479.839
479.857
476.724
474.125
528.531
642.676
649.198
650.684
648.778
646.361
644.586
447.901
326.859
336.749
480.068
600.821
655.963
661.476
665.842
669.283
668.014
675.527
679.214
683.306
632.821
625.36
629.461
632.665
660.412
705.723
709.612
713.314
716.788
720.054
707.013
705.02
641.324
609.087
487.903
508.918
542.068
629.091
630.272
620.113
635.174
643.335
643.102
645.296
644.767
643.07
642.624
543.711
335.566
474.757
648.321
657.607
659.189
661.829
664.836
668.14
671.358
675.155
669.208
627.162
617.628
621.754
625.661
629.23
663.975
706.555
710.531
714.408
718.043
703.95
675.418
709.492
628.573
577.432
662.784
666.669
659.998
649.653
640.186
634.469
630.347
627.958
628.834
631.267
630.684
629.885
632.154
586.427
345.328
638.891
649.073
653.342
656.675
659.715
655.041
620.446
624.226
624.822
608.986
611.035
615.373
619.757
623.717
637.638
699.407
707.875
711.421
714.853
718.498
689.058
674.629
713.163
687.388
572.852
654.635
644.348
628.318
578.058
490.571
509.43
596.943
609.532
612.62
613.035
607.209
599.467
584.11
549.755
343.472
631.127
641.295
647.878
653.976
658.666
656.724
603.798
601.65
604.11
606.67
609.078
644.896
621.48
622.722
652.151
705.469
708.373
710.426
709.617
705.89
693.013
706.97
713.642
648.308
557.824
640.97
594.453
460.825
364.748
362.934
411.972
597.438
608.687
610.251
603.92
586.166
454.359
376.952
444.775
525.629
623.134
633.841
639.217
645.849
652.874
659.437
655.635
651.075
640.216
649.147
660.489
664.812
618.792
621.701
666.169
705.477
707.647
709.323
648.773
535.854
588.32
645.489
675.417
642.65
667.513
635.812
442.032
363.664
358.979
357.135
452.525
623.366
622.537
620.854
613.146
521.1
272.617
211.605
407.057
558.71
574.045
556.641
539.138
547.144
629.041
649.245
659.299
666.753
672.07
639.529
613.722
634.411
671.378
669.14
700.204
703.567
658.581
544.046
506.402
514.762
522.36
652.816
732.991
695.299
747.348
627.674
436.62
363.718
359.056
358.236
393.646
633.312
639.02
611.117
535.934
478.361
225.24
205.367
259.732
362.362
254.476
242.993
233.406
240.376
396.193
640.43
656.484
666.568
652.697
598.819
606.76
643.444
687.683
689.33
682.636
517.988
492.807
498.358
503.375
517.304
694.197
732.326
749.208
752.595
750.516
645.79
612.292
486.14
379.952
359.871
359.667
485.176
600.949
474.912
432.407
541.469
255.04
208.229
207.936
207.741
208.206
208.773
208.869
208.437
229.315
594.909
668.326
667.436
594.056
599.05
618.274
686.667
691.193
690.703
574.941
508.829
506.94
615.72
647.822
704.516
723.156
727.884
734.004
741.296
741.501
657.909
657.173
656.138
633.237
439.805
367.087
368.515
371.25
371.331
429.881
658.795
454.567
211.079
210.075
208.77
209.057
208.989
209.202
209.449
347.73
653.025
678.598
617.688
595.512
598.221
683.686
688.521
692.184
629.773
492.16
639.912
677.661
683.829
693.251
699.256
700.394
623.188
629.775
718.619
721.365
635.26
672.449
669.549
666.764
665.889
590.723
462.967
391.894
549.014
648.985
679.216
666.57
440.922
313.685
278.865
249.577
255.086
345.114
451.875
639.66
674.439
638.909
595.711
594.611
657.518
680.834
681.205
681.234
572.632
335.575
639.297
641.071
647.624
662.993
674.897
641.449
592.643
592.313
667.776
707.855
381.971
684.552
682.833
677.761
660.189
624.225
492.091
399.742
582.612
681.994
686.827
689.409
686.886
659.045
636.88
608.021
611.326
640.161
664.132
665.646
633.31
599.154
598.392
626.208
679.31
674.849
669.441
645.731
434.849
246.28
405.441
395.939
353.553
516.343
657.896
599.853
580.276
589.466
688.36
698.7
268.606
549.786
705.905
603.313
405.159
383.584
383.196
401.765
653.199
696.785
695.654
693.466
692.992
691.906
690.914
690.078
689.993
678.14
629.858
606.959
604.558
603.402
613.755
686.19
680.218
672.331
510.164
332.678
237.885
231.76
225.266
226.291
235.536
438.659
599.82
624.513
658.488
671.439
692.264
694.408
266.977
312.593
548.215
450.494
387.218
386.177
387.149
606.229
710.397
707.682
679.112
660.397
663.717
697.362
697.301
697.676
644.052
606.508
608.317
609.469
609.336
663.265
684.9
692.872
687.691
481.29
244.092
243.614
243.458
241.535
234.654
233.897
392.298
513.743
586.43
677.816
686.446
689.8
691.413
692.195
266.861
267.446
371.087
543.595
393.751
391.68
545.264
724.543
721.764
719.311
716.682
713.704
671.198
581.414
651.674
707.085
649.303
613.035
614.333
629.145
705.253
706.353
699.724
629.263
623.881
350.309
250.713
250.826
251.368
250.431
245.91
307.92
436.481
586.091
676.579
682.991
686.183
689.078
691.079
692.243
265.835
266.112
500.157
667.156
447.568
404.664
628.392
732.876
732.348
731.3
730.109
728.771
718.642
516.044
415.173
616.492
692.887
695.029
686.507
712.238
713.534
713.827
713.552
611.094
494.998
368.724
267.426
258.529
303.845
389.621
528.06
637.762
501.849
490.978
484.219
562.257
675.024
689.849
694.101
693.594
263.179
274.385
588.378
677.921
404.567
406.222
477.441
744.899
743.04
741.649
740.881
739.994
692.133
437.117
400.64
409.006
638.072
723.103
723.247
722.558
722.49
722.617
723.169
677.467
510.357
451.582
594.46
623.065
660.014
694.286
703.105
695.178
666.456
494.991
463.328
462.827
523.337
690.278
706.554
696.303
258.554
264.14
581.532
703.805
407.047
407.685
407.498
558.072
752.41
749.881
747.494
736.033
509.358
388.862
393.138
396.627
403.698
530.968
652.264
721.689
730.473
731.694
733.331
735.438
683.928
634.354
653.256
731.767
729.792
721.332
712.206
701.124
692.591
658.776
471.283
472.275
476.104
623.933
725.859
716.648
252.053
253.302
601.052
769.337
754.524
509.39
429.998
697.88
761.516
759.608
756.829
745.043
512.335
382.303
387.96
462.143
435.81
448.558
479.932
679.925
737.974
739.06
741.786
698.682
649.715
647.981
651.376
650.021
646.239
697.399
725.252
715.303
676.922
482.679
479.75
484.707
489.493
600.016
745.327
746.839
242.163
240.295
279.685
668.459
782.184
781.503
769.233
748.148
767.151
774.105
772.306
769.428
585.922
381.754
536.675
727.085
561.94
462.542
594.681
741.437
738.881
738.738
742.142
738.834
674.009
672.917
689.478
654.822
649.324
648.025
737.104
730.885
724.986
703.27
652.519
495.369
541.162
688.261
760.28
765.51
295.77
232.622
230.234
250.53
602.572
789.928
788.875
788.567
788.968
789.911
789.982
788.923
600.354
383.596
619.704
721.251
718.025
705.966
748.635
740.092
730.822
719.841
681.15
684.816
710.972
731.342
739.66
737.637
729.793
720.702
708.466
675.964
647.25
637.212
651.408
658.519
548.627
653.869
768.405
767.751
567.254
227.389
224.742
222.252
220.954
282.181
624.304
796.32
796.251
797.684
799.783
800.815
618.888
377.239
369.885
599.233
715.36
692.584
626.199
581.896
486.54
342.737
285.153
296.822
593.809
715.723
682.337
571.474
578.336
519.796
335.045
132.133
45.4262
61.4932
182.434
459.418
518.762
660.268
735.503
730.956
806.988
459.58
220.934
219.368
217.275
215.653
215.163
215.108
376.063
789.054
808.158
810.291
785.325
475.311
358.399
343.992
372.746
337.014
293.755
284.749
280.861
277.165
274.812
273.886
403.752
308.651
163.828
19.1845
0.51484
0.389416
0.468404
0.562251
0.53406
0.789572
6.90982
189.176
324.735
275.705
283.941
234.635
820.692
816.921
603.918
221.966
216.171
214.309
213.104
212.522
211.459
211.022
310.809
724.58
808.044
770.247
614.392
344.645
310.038
303.593
298.924
294.347
289.229
285.506
370.597
443.219
330.971
23.312
0.641823
0.39293
0.370099
0.363448
0.370729
0.51068
0.953143
0.95277
1.07969
5.97172
21.5716
1.61361
1.28608
1.2567
827.733
827.38
827.399
822.6
480.909
211.584
211.989
211.01
210.571
210.793
210.032
210.505
362.79
698.436
800.723
687.507
450.486
313.356
309.289
348.767
600.416
591.554
577.489
460.787
59.5815
0.645751
0.445503
0.42524
0.318121
0.298294
0.302269
2.21513
2.59582
2.28492
0.503795
0.666462
0.737911
0.760427
1.04293
1.13133
832.568
836.894
838.123
837.489
840.083
808.612
675.74
401.257
208.186
208.106
206.514
492.146
802.028
810.731
809.769
809.636
775.081
756.667
750.95
714.371
649.989
349.582
12.1082
0.49436
0.44601
0.558349
0.566594
1.83806
1.58085
0.302076
0.237982
1.59866
2.52252
1.71441
0.241321
0.329755
0.547828
0.664568
2.13674
1.8864
534.863
710.307
759.823
773.5
776.351
762.991
750.266
740.889
645.549
652.316
673.301
714.534
712.941
683.603
667.15
586.328
609.45
557.666
328.34
88.0149
0.790464
0.319094
0.529375
0.504989
0.482824
0.487216
0.506574
1.77651
1.87246
1.48682
0.185866
0.84756
2.50758
0.817333
0.138762
0.184218
0.433692
2.59919
3.95409
4.23386
362.143
129.149
171.572
138.089
97.4869
80.2159
82.7787
119.198
130.428
206.699
192.799
155.154
154.54
194.276
191.167
169.445
112.135
3.59656
-0.0563226
0.169833
0.328842
0.388337
0.416469
0.457599
0.446862
0.45309
0.514638
1.79408
1.81185
1.81869
0.765681
1.28079
1.45091
0.0475088
0.0657973
0.0808173
0.147091
3.4396
4.86892
4.90327
72.7589
92.2792
72.3099
26.0407
1.03909
0.249524
0.284365
0.290099
0.275895
0.201634
0.0795445
-0.0286992
-0.0795134
-0.0999175
-0.108912
-0.102091
-0.0937961
-0.0725485
-0.0400939
0.139366
1.12894
1.40044
0.59633
1.19879
1.68769
1.72063
1.71963
1.70821
1.73039
1.73848
1.31976
1.19551
-0.004998
0.00755861
0.0229562
0.0118338
2.35728
4.87434
4.92082
4.95333
-0.102225
-0.0912291
3.20544
7.71326
3.64697
0.00807055
0.195973
0.275176
0.287246
2.55464
4.72814
4.62298
4.12155
0.285579
-0.145091
-0.133063
-0.127736
-0.0227442
1.51903
1.49893
1.47006
1.40141
0.962067
-0.0273457
-0.173116
-0.0690687
-0.130741
-0.0567848
1.28581
1.53751
1.001
0.714394
-0.032006
0.00461909
0.412182
1.21671
3.41986
4.94756
4.7643
5.01928
0.0533644
-0.120457
-0.41396
-0.438843
-0.417495
-0.362337
2.00759
4.91294
4.93067
4.93005
4.95732
3.47848
-0.0251299
-0.17133
-0.152736
-0.132138
-0.120403
0.589999
1.54401
1.26085
0.114647
-0.254382
-0.276181
-0.294704
-0.311934
-0.321068
-0.318585
-0.010986
-0.0917759
-0.0948481
-0.0143648
-0.155537
-0.0900086
0.984625
2.00774
2.00896
0.286799
0.148846
-0.0088756
4.53862
1.88116
1.91142
0.242558
-0.44829
-0.43315
-0.394116
2.95803
4.95769
4.99345
2.27437
-0.121324
0.339676
0.377084
0.594986
0.511464
-0.101889
-0.098873
0.374702
1.21911
-0.209336
-0.228706
-0.255909
-0.278746
-0.303306
-0.320049
-0.140668
-0.0868579
-0.0274605
-0.289723
-0.268205
-0.252814
-0.256637
-0.171844
1.14007
1.91985
0.724462
0.393206
-0.14586
-0.142208
0.386604
0.0892397
-0.117555
-0.0545561
-0.398433
-0.451167
-0.407952
-0.382681
-0.374644
-0.347134
-0.307189
-0.235747
0.457776
0.580691
0.609852
0.213084
-0.0997479
0.0363196
0.375728
-0.0809439
-0.129538
-0.179634
-0.246234
-0.270532
-0.294302
-0.253799
-0.0867135
-0.0804006
-0.293405
-0.285129
-0.268237
-0.259177
-0.260184
-0.23123
0.190728
0.237567
-0.159069
-0.177615
-0.172855
-0.171086
-0.173283
-0.612909
-0.561466
-0.519732
-0.485066
-0.450639
-0.387879
0.374336
0.605119
-0.178879
-0.278771
-0.233685
0.328877
0.59895
0.47139
-0.0451466
0.433947
0.451511
0.247249
-0.0332313
0.886986
1.78767
0.101892
-0.249427
-0.262236
-0.275266
-0.257353
-0.251117
-0.279758
-0.262191
-0.244707
-0.23347
-0.226536
-0.224764
-0.225078
-0.18496
-0.129518
-0.169549
-0.158552
-0.155934
-0.153355
-0.512739
-0.511963
-0.485688
-0.43215
-0.41798
-0.378505
0.985843
1.02582
0.891106
-0.208004
-0.206604
-0.184505
-0.0913178
-0.00755331
-0.152072
0.0185095
-0.0690865
-0.0587957
0.410388
2.40871
2.40606
2.09547
-0.202827
-0.219931
-0.224554
-0.225398
-0.224194
-0.21761
-0.204878
-0.191166
-0.182481
-0.176696
-0.174052
-0.150053
-0.106071
-0.141488
-0.139295
-0.139587
0.0713079
0.423857
-0.227685
-0.389749
-0.397947
-0.387979
-0.144778
0.687389
1.03925
1.05718
1.07879
0.947609
-0.102497
-0.16074
0.014007
-0.00417633
-0.177717
-0.216705
-0.197178
-0.0672466
2.08656
2.45365
2.45082
2.44146
2.41824
0.204948
-0.16799
-0.182619
-0.154508
-0.0700305
-0.146426
-0.150848
-0.146489
-0.10875
-0.0573827
-0.0497351
-0.0653675
-0.0958227
0.240378
0.650113
0.753555
0.754309
-0.12697
-0.336121
-0.323055
-0.334882
-0.336773
-0.274309
0.816905
1.10266
1.11578
1.12917
1.07347
1.09438
1.15038
0.260866
-0.215111
-0.229597
-0.226466
-0.0394361
2.26757
2.49479
2.49924
2.50744
2.51624
2.53117
1.8647
-0.170713
-0.106409
0.0842126
0.0994455
-0.0573557
-0.132317
-0.09521
-0.0358774
-0.0396508
-0.0844269
0.4624
0.783734
0.784386
0.782826
0.783899
-0.0776543
-0.324529
-0.331492
-0.332155
-0.327856
-0.0990448
0.454162
1.14234
1.14768
1.15302
1.16725
1.17605
1.18587
0.1761
-0.244097
-0.242024
-0.243256
-0.220302
0.82694
2.52639
2.54229
2.56352
2.58337
2.60048
2.58043
1.69351
-0.0613936
-0.160072
-0.0795277
-0.09428
-0.126709
-0.124728
-0.111419
-0.100741
-0.120215
0.247643
0.470758
0.397477
0.437308
0.363965
-0.0331116
-0.273465
-0.294477
-0.303347
0.0375399
1.10514
1.10057
1.02916
0.757448
0.709145
0.552044
1.20555
0.824223
0.0272781
0.0131688
-0.0609356
-0.240212
-0.237834
-0.228647
0.417987
2.54003
2.61835
2.61024
1.32308
-0.177007
-0.176147
-0.173298
-0.167201
-0.075718
-0.0160374
-0.116887
-0.112957
-0.109025
-0.108032
-0.107679
-0.1004
-0.0907351
-0.0721908
-0.0732036
-0.0237599
-0.0810097
-0.0357544
-0.263259
-0.163553
1.09414
1.16212
1.15794
0.277115
-0.0743761
-0.0749235
-0.0730893
0.0376281
0.0381928
0.263755
0.275569
0.26676
-0.22697
-0.222634
-0.218584
-0.21279
0.151029
2.27843
0.896988
-0.196897
-0.189119
-0.181232
-0.171319
-0.158617
-0.02313
0.531516
0.641584
0.377501
0.020644
-0.0915528
-0.0926978
-0.0947916
-0.0934556
-0.0911163
-0.0769475
0.778643
-0.0992282
0.0487817
-0.116103
-0.227607
-0.0241497
1.16523
0.686372
-0.0389883
-0.0397631
-0.0363639
-0.032239
-0.0267254
0.0442528
0.288729
0.228664
-0.107603
-0.214861
-0.209328
-0.203778
-0.198289
-0.0679865
0.267939
0.018685
-0.196484
-0.188557
-0.177663
-0.0768715
0.0403776
0.327045
0.68657
0.68504
0.634861
0.493891
0.379831
0.354516
0.471363
0.28403
-0.0686964
0.624125
1.01744
-0.197205
-0.0136907
0.0815725
-0.0781729
0.0203823
0.0711932
-0.0357039
0.421487
0.565804
0.529024
0.104146
0.150473
0.672229
0.242785
-0.197689
-0.203549
-0.20165
-0.198011
-0.193666
-0.189529
-0.132603
0.565078
0.565031
-0.188558
-0.185752
0.0272579
0.760807
0.76632
0.771604
0.729321
0.213514
0.220458
0.223502
0.225568
0.839486
0.933018
0.938374
0.880992
1.02853
1.033
-0.106727
-0.14542
-0.15259
-0.12076
-0.172048
-0.213259
-0.0421073
0.282071
0.330176
0.682673
0.700769
0.698315
0.695176
0.630899
-0.133387
-0.0964246
-0.195166
-0.193621
-0.191991
-0.190016
-0.15764
0.854059
1.21677
-0.182424
-0.154417