/*--------------------------------*- C++ -*----------------------------------*\
  =========                 |
  \\      /  F ield         | OpenFOAM: The Open Source CFD Toolbox
   \\    /   O peration     | Website:  https://openfoam.org
    \\  /    A nd           | Version:  8
     \\/     M anipulation  |
\*---------------------------------------------------------------------------*/
FoamFile
{
    version     2.0;
    format      ascii;
    class       volScalarField;
    location    "6.8";
    object      alpha.water;
}
// * * * * * * * * * * * * * * * * * * * * * * * * * * * * * * * * * * * * * //

dimensions      [0 0 0 0 0 0 0];

internalField   nonuniform List<scalar> 
9150
(
1
1
1
1
1
1
1
1
1
1
1
1
1
1
1
1
1
1
1
1
1
1
1
1
1
1
1
1
1
1
1
1
1
1
1
1
1
1
1
1
1
1
1
1
1
1
1
1
1
1
1
1
1
1
1
1
1
1
1
1
1
1
1
1
1
1
1
1
1
1
1
1
1
1
1
1
1
1
1
1
1
1
1
1
1
1
1
1
1
1
1
1
1
1
1
1
1
1
1
1
1
1
1
1
1
1
1
1
1
1
1
1
1
1
1
1
1
1
1
1
1
1
1
1
1
1
1
1
1
1
1
1
1
1
1
1
1
1
1
1
1
1
1
1
1
1
1
1
1
1
0.962353
0.962298
0.96228
0.962276
0.962276
0.962276
0.981452
0.997634
0.982001
0.955942
0.96615
0.993
0.997662
0.997664
0.997421
0.997118
0.997429
0.997657
0.997657
0.99759
0.997663
0.997665
0.997665
0.997665
0.997664
0.997625
0.997657
0.997657
0.997657
0.994395
0.997656
0.997278
0.997665
0.997616
0.923261
0.907441
0.942966
0.997268
0.995662
0.980541
0.997484
0.926316
0.813192
0.813179
0.844075
0.970839
0.995635
0.997433
0.996896
0.991444
0.813456
0.813107
0.813066
0.813148
0.913195
0.997138
0.997295
0.997295
0.997295
0.997297
0.813107
0.813066
0.813066
0.813066
0.962749
0.994466
0.99099
0.968133
0.967258
0.969462
0.951338
0.813092
0.813066
0.813092
0.960599
0.969153
0.951919
0.95215
0.952412
0.962799
0.997705
0.997524
0.869794
0.852231
0.972638
0.981782
0.951864
0.952481
0.975778
0.991505
0.997707
0.997705
0.992938
0.870947
0.977992
0.992227
0.990616
0.992575
0.997296
0.997301
0.997707
0.997668
0.946873
0.863607
0.898899
0.957672
0.983595
0.997296
0.997301
0.997296
0.997707
0.99747
0.919795
0.863697
0.863564
0.864121
0.867619
0.901439
0.929132
0.91769
0.997689
0.997656
0.975535
0.881158
0.863958
0.877275
0.872365
0.870146
0.870139
0.87084
0.997304
0.993662
0.990598
0.979775
0.971666
0.980425
0.975509
0.927704
0.900993
0.911861
0.804527
0.804453
0.804449
0.886118
0.963644
0.983486
0.983525
0.983486
0.976783
0.957405
0.804461
0.804457
0.804449
0.804457
0.804464
0.810182
0.89894
0.855016
0.804749
0.804792
0.842846
0.80446
0.804457
0.80446
0.804464
0.804468
0.804484
0.804579
0.804707
0.804745
0.997288
0.997134
0.996572
0.905536
0.804468
0.804484
0.866534
0.878623
0.841302
0.891247
0.997288
0.997288
0.997288
0.996817
0.994903
0.994335
0.994457
0.99538
0.995154
0.996276
0.997286
0.997288
0.997288
0.997285
0.997274
0.997267
0.997267
0.997257
0.997263
0.997264
0.997288
0.997288
0.996955
0.993323
0.994339
0.997244
0.997267
0.997263
0.997264
0.997264
0.997288
0.997288
0.997006
0.976296
0.97015
0.983547
0.992841
0.995617
0.993271
0.994489
0.997288
0.997287
0.997117
0.977736
0.970067
0.970067
0.970067
0.971032
0.970347
0.970343
0.997287
0.997286
0.997285
0.997285
0.981076
0.970067
0.970071
0.970177
0.970303
0.981234
0.997285
0.997286
0.997285
0.997285
0.997285
0.996901
0.995725
0.990148
0.987303
0.993151
0.994962
0.997286
0.997285
0.997285
0.997283
0.997279
0.997275
0.997272
0.991592
0.9838
0.917656
0.996561
0.997284
0.997283
0.997279
0.997275
0.997272
0.997269
0.997265
0.996414
0.850377
0.95894
0.997274
0.997278
0.997275
0.997272
0.997269
0.996769
0.996484
0.996912
0.850378
0.876932
0.976912
0.993723
0.997015
0.997269
0.996608
0.993556
0.996628
0.996919
0.850431
0.850916
0.885806
0.937425
0.993034
0.997266
0.997253
0.988766
0.981944
0.989374
0.884239
0.875582
0.870846
0.889092
0.985467
0.997253
0.99725
0.99623
0.954826
0.944534
0.994947
0.994947
0.954642
0.952836
0.982482
0.99723
0.997247
0.99723
0.984065
0.950085
0.994947
0.994947
0.994928
0.994897
0.992355
0.996475
0.99665
0.997046
0.995932
0.994133
0.994932
0.994373
0.993714
0.994885
0.992916
0.981564
0.98299
0.992565
0.995913
0.995785
0.985484
0.97448
0.973191
0.973347
0.974377
0.977236
0.98734
0.992452
0.991644
0.981949
0.973365
0.973638
0.973294
0.975893
0.990579
0.989414
0.974243
0.934342
0.922486
0.956747
0.995125
0.995125
0.995125
0.995099
0.994787
0.940318
0.73532
0.731931
0.731881
0.925371
0.995094
0.995125
0.995099
0.994965
0.981492
0.779904
0.732968
0.746721
0.954057
0.956295
0.915597
0.98149
0.994965
0.994971
0.994797
0.959884
0.759866
0.723074
0.723061
0.723074
0.712565
0.890878
0.994972
0.99491
0.977069
0.792292
0.72531
0.723056
0.723074
0.723389
0.987287
0.994725
0.99491
0.994639
0.929909
0.846538
0.91412
0.947558
0.894957
0.894417
0.994354
0.994635
0.994442
0.989632
0.992334
0.993451
0.993339
0.993263
0.993214
0.993152
0.994328
0.994507
0.994359
0.994163
0.993859
0.993595
0.99345
0.993333
0.993241
0.993184
0.944147
0.920234
0.948417
0.984148
0.993157
0.993455
0.993329
0.993229
0.993151
0.992932
0.663454
0.629937
0.630202
0.666259
0.94448
0.989853
0.993196
0.993088
0.992792
0.992425
0.632583
0.629937
0.629937
0.630202
0.63267
0.710023
0.97046
0.992299
0.992419
0.99239
0.908286
0.908034
0.908181
0.905003
0.719073
0.693708
0.727096
0.937045
0.99198
0.991551
0.908352
0.908286
0.908087
0.905533
0.901817
0.876509
0.874772
0.892676
0.881334
0.785095
0.890879
0.77349
0.687072
0.745969
0.729293
0.624959
0.591904
0.637286
0.596929
0.541246
0.851141
0.75207
0.651868
0.650447
0.652409
0.65741
0.559724
0.508859
0.496358
0.487678
0.992747
0.992757
0.992757
0.974762
0.992754
0.992753
0.975402
0.897791
0.841015
0.771124
0.992757
0.992757
0.992757
0.992757
0.992756
0.992754
0.992753
0.99269
0.992325
0.991411
0.992757
0.992757
0.992757
0.992756
0.992754
0.992753
0.992744
0.99238
0.991411
0.990216
0.98913
0.992757
0.992755
0.992737
0.992742
0.992744
0.990512
0.930516
0.837848
0.840899
0.991053
0.992756
0.992731
0.99256
0.99262
0.992639
0.792879
0.464974
0.301889
0.357928
0.99226
0.992702
0.992536
0.98957
0.990108
0.961469
0.428001
0.271753
0.271772
0.271791
0.990877
0.992267
0.989907
0.706304
0.618529
0.645743
0.275339
0.270529
0.271753
0.276014
0.922041
0.934507
0.688512
0.282288
0.238029
0.271829
0.267535
0.27011
0.286519
0.71625
0.810363
0.653078
0.251937
0.238029
0.238029
0.238029
0.278926
0.393925
0.799126
0.988644
0.85102
0.556147
0.239008
0.238211
0.238029
0.410913
0.749954
0.762437
0.949035
0.989843
0.854973
0.688094
0.329161
0.239008
0.238211
0.77318
0.803807
0.771354
0.747847
0.951606
0.97282
0.90904
0.625083
0.243768
0.476833
0.805954
0.807217
0.67417
0.672311
0.884607
0.988852
0.988789
0.902634
0.280134
0.517998
0.811644
0.816418
0.672311
0.67175
0.864009
0.988789
0.988442
0.985892
0.425188
0.418087
0.806245
0.835753
0.689403
0.672311
0.900121
0.980879
0.93367
0.735449
0.394341
0.492478
0.859248
0.845629
0.677456
0.74612
0.967448
0.657032
0.657138
0.705888
0.612063
0.874797
0.887772
0.613697
0.67251
0.946005
0.990216
0.65603
0.750826
0.756254
0.535689
0.902682
0.89344
0.607047
0.848424
0.990232
0.990237
0.787901
0.787433
0.778907
0.484003
0.90586
0.825194
0.605775
0.984344
0.990235
0.990232
0.787433
0.743893
0.408019
0.621506
0.916781
0.790835
0.610997
0.990194
0.990232
0.990194
0.785985
0.468522
0.279087
0.60032
0.916798
0.808578
0.480612
0.989995
0.990194
0.989825
0.661514
0.279087
0.278988
0.299272
0.916815
0.8214
0.263232
0.843239
0.988509
0.920362
0.568772
0.295207
0.278993
0.315313
0.916815
0.823471
0.262891
0.478903
0.94219
0.858611
0.230489
0.644878
0.344719
0.319548
0.916815
0.811412
0.262891
0.371655
0.856224
0.782592
0.457949
0.928984
0.506718
0.292553
0.916824
0.80876
0.262891
0.289049
0.786249
0.873202
0.945083
0.94736
0.586201
0.243538
0.917256
0.860982
0.262933
0.279034
0.730356
0.88108
0.963693
0.727607
0.299509
0.227825
0.917561
0.88228
0.27011
0.253711
0.518378
0.567418
0.549801
0.173747
0.174972
0.222532
0.920142
0.890939
0.248518
0.248637
0.356784
0.203041
0.145333
0.147343
0.197063
0.210063
0.919745
0.894876
0.231764
0.33925
0.349663
0.14556
0.115684
0.163176
0.200104
0.208269
0.930309
0.904084
0.231255
0.33396
0.201646
0.00992161
0.0397782
0.144285
0.0927001
0.21554
0.939776
0.922796
0.225158
0.228402
0.0484052
0.00320709
0.0083235
0.0332763
1.20772e-05
0.22985
0.944764
0.939773
0.223035
0.0525024
0.0127371
0.000780145
0.00141076
1.20772e-05
2.72498e-06
0.256369
0.952975
0.949385
0.245973
0.000148015
0.0104867
0.000577994
7.93553e-05
2.72498e-06
2.66466e-06
0.277571
0.958485
0.957365
0.267912
0.000142827
0.00923141
6.85902e-05
3.59026e-05
2.7363e-06
2.53338e-06
0.30641
0.96468
0.96576
0.305553
0.000134525
0.00499204
6.02504e-05
4.59847e-05
3.98679e-06
2.51324e-06
0.337206
0.971508
0.972606
0.34381
0.000130652
0.000135492
0.000624235
2.58159e-06
2.43877e-06
2.48701e-06
0.374552
0.97744
0.977984
0.38296
0.000130751
0.000134953
0.0011373
2.43722e-06
2.43722e-06
2.43722e-06
0.426953
0.983313
0.982789
0.419958
0.000130652
0.000130751
0.000724062
2.45983e-06
2.43722e-06
2.57707e-06
0.472888
0.987303
0.987375
0.473759
0.000130751
0.000287655
0.00053774
3.13804e-05
0.000136259
3.61207e-06
0.533756
0.990828
0.990629
0.535287
0.000133407
0.000944885
0.000398976
0.000475691
0.00042992
1.07235e-05
0.597443
0.993683
0.993189
0.595824
0.000143665
0.000945072
0.000215497
0.000223759
3.38355e-06
4.39459e-06
0.672801
0.995337
0.995274
0.669814
0.000112222
0.000386792
2.79396e-05
3.36448e-06
3.36238e-06
3.36824e-06
0.747853
0.997062
0.997071
0.747895
3.75351e-06
2.49743e-06
0.00039994
3.36448e-06
3.36824e-06
0.0223656
0.822869
0.998091
0.998088
0.823037
0.0236047
2.49876e-06
0.000252249
1.60683e-05
3.55414e-06
0.103381
0.883656
0.999225
0.999057
0.88322
0.104489
1.25975e-06
4.60705e-06
0.000821137
5.09188e-06
0.211938
0.946026
0.999425
0.999698
0.946388
0.217984
1.75844e-08
8.11774e-10
0.00117968
3.00882e-05
0.373086
0.97866
0.999885
0.999868
0.987673
0.411356
9.5e-08
8.58604e-12
0.00057365
0.000222647
0.652996
0.999899
0.999932
0.999953
0.999894
0.648979
5.59708e-06
6.22735e-12
0.00030126
0.0690239
0.859096
0.999949
0.999997
0.999997
0.999954
0.873991
0.0849309
4.14075e-12
4.93251e-05
0.551327
0.998902
0.999995
1
1
0.999995
0.99927
0.566504
-6.47799e-10
0.300318
0.960421
1
1
1
1
1
1
0.964121
0.30988
0.955938
0.960477
0.955483
0.955483
0.955483
0.993356
0.998339
0.998343
0.998343
0.998343
0.996141
0.990251
0.990251
0.99217
0.988927
0.98568
0.987883
0.997276
0.997276
0.997276
0.997276
0.997276
0.997275
0.997273
0.99727
0.99727
0.99727
0.997094
0.943913
0.912615
0.912615
0.912643
0.975903
0.991908
0.991916
0.989445
0.983415
0.983405
0.983419
0.983442
0.973743
0.960036
0.955493
0.955483
0.955493
0.993371
0.998332
0.998339
0.996903
0.998343
0.998212
0.995849
0.992793
0.992215
0.991963
0.98561
0.983962
0.989103
0.997276
0.997276
0.997276
0.997272
0.992998
0.994433
0.99727
0.99727
0.993448
0.927292
0.912615
0.912615
0.912615
0.91313
0.960694
0.968728
0.972131
0.993861
0.993863
0.993791
0.99452
0.99191
0.970008
0.979861
0.961538
0.955493
0.957991
0.994918
0.998335
0.998339
0.979312
0.981304
0.998195
0.99813
0.998087
0.996501
0.992069
0.983962
0.983962
0.983962
0.995027
0.997276
0.997276
0.997273
0.989461
0.983588
0.997268
0.997235
0.984516
0.940836
0.958786
0.983741
0.984001
0.992597
0.992597
0.992597
0.989326
0.993257
0.990269
0.983123
0.995675
0.995675
0.969435
0.989595
0.974168
0.955755
0.956454
0.991245
0.998339
0.998345
0.97101
0.970976
0.972445
0.974072
0.993037
0.996445
0.996209
0.991183
0.985953
0.983973
0.98403
0.995144
0.997274
0.997273
0.99119
0.975136
0.975076
0.986609
0.981289
0.962675
0.968302
0.977895
0.990288
0.992597
0.992597
0.992594
0.978746
0.9667
0.9667
0.983887
0.995675
0.995675
0.99138
0.990904
0.959059
0.956297
0.957215
0.994474
0.998345
0.998349
0.979725
0.974772
0.972308
0.966204
0.966195
0.971781
0.993221
0.996982
0.996996
0.991616
0.98397
0.984252
0.996169
0.997268
0.997208
0.994023
0.99728
0.955626
0.901873
0.901873
0.907777
0.937959
0.965928
0.972875
0.97824
0.990983
0.967082
0.966899
0.989266
0.995675
0.995675
0.995675
0.981238
0.95851
0.957512
0.964221
0.993754
0.998334
0.998349
0.99835
0.99756
0.997555
0.996227
0.983709
0.983644
0.966319
0.966335
0.98715
0.997281
0.997299
0.992246
0.984269
0.984364
0.993684
0.997277
0.997282
0.997282
0.991763
0.994527
0.968611
0.870533
0.870491
0.877735
0.944821
0.965032
0.966724
0.995396
0.995675
0.995675
0.995675
0.995675
0.995675
0.959616
0.958817
0.974437
0.982236
0.995175
0.998344
0.99835
0.998349
0.998372
0.9984
0.998411
0.998402
0.998397
0.995149
0.966328
0.975406
0.996279
0.997316
0.997328
0.993672
0.984037
0.983995
0.990737
0.997282
0.997282
0.997282
0.99717
0.990144
0.873569
0.870449
0.870449
0.88477
0.965932
0.96407
0.973822
0.995675
0.995675
0.995675
0.995675
0.995052
0.988664
0.982238
0.970738
0.942121
0.865337
0.87946
0.939945
0.986384
0.9984
0.998411
0.99842
0.998411
0.998402
0.998397
0.99638
0.943891
0.964693
0.997274
0.997337
0.997347
0.990078
0.98395
0.983932
0.994189
0.997282
0.997282
0.941888
0.885413
0.87045
0.870449
0.870449
0.870449
0.963222
0.96809
0.985457
0.995671
0.995675
0.995675
0.995673
0.963202
0.997038
0.95866
0.863735
0.853636
0.853553
0.853569
0.853676
0.914636
0.997655
0.99842
0.998427
0.997176
0.99726
0.998371
0.998333
0.946073
0.92806
0.989776
0.997347
0.997349
0.997351
0.984875
0.98393
0.988016
0.997271
0.997238
0.977435
0.892622
0.870451
0.870449
0.870449
0.951318
0.98979
0.986996
0.991532
0.995622
0.995671
0.99567
0.984356
0.94188
0.99729
0.968027
0.865676
0.853555
0.853569
0.85356
0.853569
0.946613
0.998382
0.998429
0.998428
0.99098
0.991188
0.998312
0.998307
0.964497
0.879928
0.963565
0.997344
0.997351
0.997351
0.987352
0.983908
0.986175
0.997268
0.997268
0.98225
0.989471
0.985043
0.976654
0.986805
0.98431
0.991744
0.991748
0.990344
0.989155
0.968116
0.957207
0.922756
0.92271
0.9973
0.99729
0.966372
0.944523
0.920534
0.92008
0.95688
0.995418
0.998433
0.998433
0.998429
0.98686
0.987407
0.998184
0.998294
0.956283
0.878348
0.937744
0.997338
0.997351
0.997351
0.987653
0.983871
0.98992
0.997268
0.997268
0.992243
0.995866
0.997305
0.996938
0.987978
0.989767
0.987552
0.963799
0.919045
0.906729
0.89393
0.893933
0.924401
0.972796
0.928047
0.938952
0.983599
0.996711
0.998267
0.998328
0.998425
0.998437
0.998439
0.998433
0.991679
0.986022
0.987668
0.998222
0.998285
0.939373
0.877413
0.931672
0.997321
0.997351
0.997351
0.987202
0.983838
0.995084
0.99719
0.996857
0.996242
0.997305
0.997305
0.997305
0.994861
0.978078
0.910481
0.893887
0.893887
0.893887
0.893907
0.934379
0.997311
0.996791
0.871897
0.872989
0.942294
0.998369
0.998427
0.998438
0.998439
0.998439
0.998439
0.995495
0.98603
0.986038
0.99287
0.998267
0.998274
0.895628
0.877194
0.903303
0.994467
0.997351
0.997351
0.986126
0.983819
0.993588
0.99721
0.997128
0.997305
0.997305
0.997305
0.997305
0.992712
0.906602
0.89389
0.893887
0.893887
0.906361
0.979436
0.997321
0.997321
0.996774
0.889123
0.917398
0.98444
0.998429
0.998439
0.998439
0.998439
0.998439
0.998439
0.993537
0.98615
0.991105
0.997254
0.998163
0.927784
0.877194
0.877174
0.87719
0.947575
0.997344
0.997351
0.984651
0.983813
0.990032
0.997303
0.997305
0.997305
0.997305
0.993133
0.98359
0.985717
0.935384
0.917538
0.89389
0.935605
0.997321
0.997321
0.997321
0.997321
0.99732
0.990613
0.998108
0.998429
0.998439
0.998439
0.998439
0.998439
0.998439
0.998439
0.997736
0.995817
0.997135
0.994038
0.922649
0.877196
0.877174
0.877173
0.877173
0.892069
0.989915
0.995151
0.983818
0.983813
0.989559
0.997304
0.997305
0.997305
0.986231
0.951721
0.949345
0.950712
0.996197
0.984616
0.984561
0.992416
0.997321
0.997321
0.997321
0.997243
0.996511
0.848547
0.887429
0.898442
0.940495
0.966742
0.971816
0.993617
0.998439
0.998439
0.998438
0.996169
0.997188
0.996507
0.93884
0.877174
0.877173
0.877173
0.877173
0.919299
0.991227
0.988652
0.983813
0.983813
0.991458
0.997304
0.997305
0.997305
0.983952
0.9493
0.949289
0.97214
0.99622
0.983509
0.972882
0.978047
0.995623
0.997321
0.997319
0.995511
0.995511
0.804792
0.805128
0.878372
0.919369
0.915679
0.915358
0.915651
0.935419
0.95932
0.965062
0.964589
0.997186
0.997198
0.995481
0.965885
0.903794
0.884923
0.929546
0.991291
0.994817
0.983853
0.983837
0.984802
0.996758
0.997305
0.997305
0.997305
0.996162
0.962183
0.949902
0.992457
0.996232
0.973156
0.972854
0.972885
0.994326
0.997321
0.997321
0.995953
0.995511
0.94087
0.969269
0.985704
0.989256
0.966051
0.936013
0.916866
0.918107
0.918918
0.919387
0.920201
0.985322
0.997241
0.997255
0.997252
0.992006
0.989903
0.995971
0.997241
0.997243
0.9923
0.988367
0.995648
0.997304
0.997305
0.997305
0.997305
0.997305
0.992641
0.988624
0.996575
0.996926
0.991952
0.988942
0.973229
0.994691
0.997321
0.997321
0.997321
0.995511
0.997263
0.997264
0.997264
0.997264
0.997261
0.995827
0.990566
0.978514
0.972817
0.95081
0.964469
0.994614
0.997255
0.997257
0.997256
0.997252
0.997217
0.997241
0.997243
0.997243
0.997258
0.997288
0.997304
0.997305
0.997305
0.997305
0.997305
0.997305
0.993849
0.997256
0.997296
0.997208
0.997178
0.98776
0.994822
0.994618
0.997321
0.997321
0.997321
0.99552
0.997264
0.997264
0.997264
0.997264
0.997264
0.997264
0.997263
0.997261
0.997258
0.997214
0.997256
0.997213
0.997257
0.997257
0.997257
0.997256
0.983173
0.976593
0.991418
0.997243
0.997225
0.997093
0.996409
0.997269
0.997305
0.997305
0.997305
0.997038
0.994339
0.997299
0.997299
0.997296
0.960926
0.950373
0.994834
0.997321
0.997321
0.997321
0.997308
0.99552
0.997264
0.997264
0.997264
0.997264
0.997264
0.997264
0.997264
0.997263
0.997261
0.997259
0.997258
0.997257
0.997257
0.997257
0.995509
0.977402
0.975849
0.975849
0.977294
0.995914
0.990539
0.981298
0.987651
0.997295
0.997304
0.997305
0.997305
0.997305
0.997303
0.997303
0.9973
0.997298
0.882161
0.906183
0.992928
0.99732
0.997321
0.997321
0.997169
0.995521
0.996554
0.996889
0.997264
0.997264
0.995975
0.993677
0.996331
0.997248
0.997258
0.997258
0.997258
0.997258
0.997257
0.995689
0.976562
0.97565
0.978075
0.986045
0.985968
0.951365
0.919252
0.981235
0.997293
0.997304
0.997305
0.997305
0.997305
0.997305
0.997305
0.997303
0.995499
0.902483
0.877338
0.904629
0.994139
0.99732
0.997321
0.997321
0.997321
0.995533
0.97037
0.980691
0.985332
0.986364
0.983924
0.983901
0.98389
0.983898
0.994408
0.997258
0.997258
0.997257
0.997257
0.989182
0.975191
0.981189
0.987323
0.984848
0.900301
0.880674
0.880676
0.951513
0.992025
0.97701
0.997305
0.997305
0.997305
0.997305
0.984434
0.947887
0.88873
0.877332
0.877466
0.944325
0.997304
0.997321
0.997321
0.997321
0.997321
0.996367
0.993173
0.993174
0.993173
0.987546
0.985416
0.985348
0.9889
0.995858
0.997257
0.997257
0.997257
0.997257
0.995816
0.975718
0.975187
0.977517
0.987294
0.939765
0.880674
0.880664
0.880667
0.880676
0.947517
0.974574
0.897813
0.891509
0.889951
0.882212
0.878466
0.87746
0.877332
0.87746
0.922229
0.9961
0.997322
0.997322
0.997322
0.997321
0.997321
0.997321
0.993172
0.993173
0.990693
0.983906
0.993251
0.993274
0.993269
0.99644
0.997256
0.997257
0.997199
0.997257
0.985131
0.975187
0.975188
0.975188
0.987432
0.978533
0.88518
0.880667
0.880666
0.880667
0.954166
0.986983
0.9336
0.943955
0.941341
0.92803
0.918154
0.904776
0.908508
0.950127
0.995594
0.997323
0.997323
0.997323
0.997322
0.997322
0.996462
0.99678
0.983656
0.98363
0.983626
0.983626
0.983626
0.986376
0.997238
0.997242
0.997245
0.997095
0.997241
0.997257
0.997243
0.986375
0.982817
0.988965
0.996683
0.997267
0.973948
0.91486
0.91112
0.930058
0.988164
0.99732
0.996705
0.997322
0.997294
0.996819
0.995612
0.993143
0.994509
0.997306
0.997325
0.997325
0.997324
0.997323
0.997323
0.985408
0.986422
0.996766
0.995174
0.9967
0.987538
0.983626
0.983626
0.983626
0.995663
0.997238
0.997242
0.995975
0.993712
0.994011
0.997236
0.996819
0.976447
0.990036
0.997282
0.997288
0.997295
0.994779
0.995135
0.996124
0.997321
0.997326
0.99733
0.997331
0.997322
0.997307
0.997289
0.997295
0.997324
0.997329
0.997327
0.997325
0.997325
0.992219
0.98207
0.974512
0.97731
0.996469
0.99692
0.99692
0.99692
0.996915
0.985268
0.9886
0.996558
0.997219
0.997235
0.997205
0.989472
0.983036
0.99102
0.972088
0.950264
0.954886
0.990714
0.997295
0.997305
0.997318
0.997321
0.997323
0.997325
0.997324
0.997331
0.997333
0.99723
0.995721
0.995136
0.995209
0.996802
0.997332
0.996811
0.984305
0.977112
0.974512
0.974512
0.974511
0.980156
0.996453
0.99692
0.99692
0.99692
0.992316
0.989787
0.996387
0.997227
0.997229
0.997231
0.997229
0.997227
0.98512
0.980668
0.976474
0.950285
0.950264
0.95402
0.975928
0.997318
0.997321
0.997323
0.997326
0.997326
0.997293
0.997329
0.997335
0.997035
0.994833
0.994831
0.994833
0.997238
0.997337
0.994561
0.974526
0.974512
0.974512
0.974511
0.974512
0.992035
0.996447
0.996483
0.99692
0.99692
0.994423
0.990141
0.99351
0.997223
0.997227
0.997229
0.997227
0.997225
0.997222
0.997219
0.981787
0.981773
0.98153
0.954209
0.954336
0.966094
0.990373
0.997325
0.997327
0.997329
0.997325
0.997299
0.997339
0.997301
0.995101
0.994831
0.994833
0.997343
0.99734
0.997269
0.990342
0.985113
0.984755
0.98567
0.991049
0.997331
0.99637
0.950954
0.980665
0.993878
0.993398
0.99693
0.997221
0.997224
0.997225
0.997227
0.997225
0.996749
0.996948
0.997219
0.935666
0.911316
0.964967
0.975191
0.969123
0.953298
0.952681
0.965398
0.996853
0.997333
0.997337
0.997339
0.997345
0.997345
0.997273
0.994831
0.994979
0.997345
0.997343
0.99709
0.997334
0.997335
0.997336
0.997338
0.997339
0.997335
0.996288
0.928074
0.928074
0.932691
0.977229
0.997174
0.99722
0.997221
0.985337
0.967523
0.982118
0.945495
0.911709
0.911478
0.911218
0.911218
0.911218
0.964748
0.982584
0.977633
0.95244
0.952103
0.951908
0.980315
0.997339
0.997345
0.997345
0.997345
0.997345
0.996148
0.997318
0.997346
0.997293
0.997024
0.997335
0.997336
0.997338
0.997339
0.99734
0.997329
0.996361
0.977871
0.933953
0.927331
0.927331
0.927331
0.941246
0.93493
0.915569
0.913476
0.91304
0.91182
0.911838
0.949764
0.960514
0.95632
0.945657
0.952725
0.983017
0.988852
0.989101
0.953902
0.951668
0.951569
0.966746
0.997339
0.997346
0.997347
0.997345
0.997347
0.997347
0.997346
0.997347
0.997023
0.996984
0.996983
0.996981
0.997192
0.997341
0.997342
0.997348
0.994322
0.994286
0.989378
0.98395
0.96607
0.924317
0.924317
0.941231
0.961507
0.961375
0.96285
0.981007
0.995137
0.994868
0.994753
0.994678
0.981005
0.977765
0.977765
0.995874
0.995948
0.953494
0.951491
0.951412
0.966773
0.996884
0.997348
0.997347
0.997346
0.997346
0.997347
0.997347
0.997347
0.997307
0.996981
0.996981
0.996981
0.997095
0.997348
0.997348
0.985302
0.99411
0.981881
0.967336
0.960301
0.958281
0.978429
0.994843
0.995305
0.995306
0.995306
0.995306
0.995283
0.994425
0.993253
0.994557
0.994536
0.986465
0.991332
0.996805
0.996806
0.988912
0.951412
0.951412
0.951412
0.984534
0.997342
0.997346
0.997346
0.997347
0.997347
0.997347
0.997347
0.997348
0.997327
0.996981
0.996981
0.997072
0.997348
0.997348
0.987009
0.992771
0.980384
0.971795
0.960714
0.89066
0.886037
0.983802
0.995306
0.995306
0.995306
0.995306
0.995301
0.982366
0.970081
0.970076
0.97892
0.996725
0.99675
0.996806
0.996806
0.996806
0.984563
0.951412
0.958555
0.993293
0.997342
0.997346
0.997346
0.997347
0.997347
0.997347
0.997348
0.997348
0.997348
0.996986
0.997228
0.997349
0.997348
0.997348
0.989485
0.991766
0.95237
0.880089
0.880089
0.880087
0.880128
0.880278
0.951392
0.995306
0.995306
0.995303
0.995149
0.975105
0.970107
0.970233
0.971013
0.975074
0.974789
0.980938
0.996806
0.996801
0.996796
0.992631
0.993183
0.997147
0.997344
0.997345
0.997346
0.959943
0.935811
0.97593
0.997348
0.997348
0.997348
0.99732
0.997353
0.997349
0.997349
0.997349
0.959344
0.983009
0.982158
0.961061
0.880089
0.880128
0.880278
0.880499
0.900771
0.983531
0.995085
0.987233
0.993686
0.994536
0.994554
0.994565
0.994568
0.994599
0.990084
0.985653
0.996801
0.996796
0.996795
0.996793
0.996746
0.990063
0.984458
0.963052
0.932151
0.921145
0.921124
0.930655
0.993262
0.997349
0.997349
0.997349
0.997349
0.99735
0.997348
0.9968
0.723389
0.933406
0.979929
0.992023
0.964104
0.917591
0.905526
0.952746
0.978253
0.979163
0.978039
0.958235
0.956011
0.982922
0.988944
0.990622
0.99258
0.99463
0.99463
0.992052
0.97455
0.968269
0.962806
0.971782
0.990051
0.972892
0.923603
0.921372
0.921145
0.921124
0.921145
0.95545
0.997223
0.997349
0.997349
0.997349
0.997349
0.997349
0.989971
0.979925
0.741397
0.83693
0.958068
0.992054
0.992023
0.991992
0.991911
0.986101
0.985626
0.985944
0.985953
0.985944
0.949419
0.931426
0.952516
0.971307
0.8928
0.944825
0.994631
0.994319
0.955729
0.955591
0.955511
0.955591
0.989588
0.981209
0.931507
0.921983
0.928879
0.941579
0.967709
0.995739
0.997348
0.997349
0.997349
0.997349
0.997349
0.997348
0.98042
0.957139
0.989899
0.992564
0.99205
0.992095
0.992054
0.991941
0.991703
0.989065
0.985232
0.968119
0.956709
0.954885
0.951678
0.928559
0.934711
0.947252
0.856759
0.857864
0.994144
0.994834
0.991326
0.968186
0.955541
0.956846
0.990189
0.996338
0.987392
0.973399
0.991347
0.994506
0.994981
0.995047
0.997182
0.997349
0.997349
0.997349
0.997349
0.997348
0.985431
0.907965
0.992994
0.9928
0.992561
0.991628
0.983618
0.942412
0.896125
0.872331
0.807274
0.671327
0.671787
0.671733
0.682644
0.865718
0.92781
0.907501
0.857059
0.952359
0.994529
0.994847
0.994847
0.994413
0.985365
0.974943
0.993372
0.996346
0.996356
0.996257
0.983631
0.920167
0.965547
0.997346
0.997349
0.997349
0.997349
0.997349
0.997349
0.997349
0.994448
0.879009
0.993052
0.992788
0.992058
0.980575
0.800299
0.670312
0.670325
0.670272
0.670372
0.670701
0.671327
0.837236
0.994313
0.994338
0.994339
0.994338
0.985938
0.994818
0.994847
0.994847
0.994847
0.994847
0.9948
0.987404
0.996288
0.996356
0.994304
0.908159
0.873173
0.873194
0.888944
0.997349
0.997349
0.997349
0.997349
0.997349
0.997349
0.997349
0.930139
0.874562
0.992752
0.992423
0.991425
0.936014
0.700295
0.670325
0.670272
0.677474
0.710531
0.741505
0.852043
0.964655
0.992216
0.994313
0.994338
0.994339
0.99431
0.991966
0.990657
0.994847
0.994847
0.994847
0.994845
0.99481
0.991418
0.994039
0.982597
0.921647
0.873194
0.873176
0.873194
0.874452
0.933827
0.949465
0.929046
0.929659
0.919435
0.99294
0.875044
0.89372
0.992526
0.992326
0.991954
0.991472
0.980941
0.81941
0.772313
0.976873
0.985789
0.98572
0.966425
0.898724
0.858831
0.950033
0.994274
0.99431
0.973317
0.837894
0.72227
0.839646
0.994847
0.994846
0.994834
0.99467
0.912268
0.794627
0.980135
0.991589
0.990237
0.959415
0.924952
0.909954
0.878561
0.876774
0.876402
0.876064
0.875544
0.875023
0.875145
0.93271
0.992291
0.991795
0.990712
0.986231
0.986405
0.98589
0.98589
0.985916
0.986027
0.982971
0.852619
0.836845
0.836817
0.836845
0.915753
0.993732
0.883581
0.703364
0.703403
0.703882
0.802925
0.981384
0.99467
0.965853
0.786918
0.784622
0.786197
0.932835
0.996863
0.996924
0.996907
0.995446
0.989114
0.978223
0.954833
0.911288
0.885391
0.921998
0.919993
0.944106
0.991438
0.987301
0.892854
0.843919
0.97459
0.985816
0.985916
0.986027
0.9861
0.985558
0.889289
0.836817
0.836817
0.836817
0.836888
0.945459
0.877135
0.703349
0.703351
0.703403
0.703882
0.759949
0.920199
0.910139
0.784622
0.784622
0.784622
0.784723
0.842789
0.997027
0.997072
0.997072
0.997072
0.997072
0.997072
0.995171
0.991592
0.996154
0.994865
0.939261
0.771832
0.80485
0.73241
0.745526
0.861158
0.963153
0.985819
0.986101
0.9861
0.9861
0.98597
0.879395
0.836817
0.836888
0.845817
0.932141
0.864289
0.703347
0.703342
0.703351
0.703504
0.802279
0.937842
0.938529
0.853369
0.789263
0.784674
0.815631
0.943801
0.980571
0.989059
0.997072
0.997072
0.997072
0.997072
0.997072
0.997071
0.997063
0.995046
0.939261
0.485719
0.485334
0.666143
0.824136
0.808075
0.753526
0.884909
0.92862
0.9861
0.986066
0.985361
0.969227
0.883774
0.875838
0.979239
0.960991
0.728011
0.703343
0.703343
0.703343
0.703367
0.738118
0.881701
0.938214
0.938531
0.93682
0.923747
0.96727
0.978946
0.978971
0.891036
0.873103
0.949366
0.988823
0.98781
0.997071
0.997071
0.997071
0.995841
0.986252
0.485023
0.486061
0.693876
0.914551
0.914451
0.711585
0.670603
0.882916
0.986066
0.966556
0.843992
0.895215
0.979346
0.979346
0.979338
0.979241
0.954711
0.886618
0.860511
0.800433
0.746649
0.684439
0.645173
0.714667
0.806218
0.923174
0.978723
0.978768
0.978819
0.87929
0.849859
0.849836
0.849896
0.862619
0.921442
0.883315
0.950708
0.980658
0.995828
0.995807
0.564997
0.486062
0.513285
0.880277
0.914561
0.798833
0.477851
0.853956
0.985686
0.921746
0.758849
0.907057
0.979346
0.979346
0.979346
0.979336
0.979249
0.977635
0.814605
0.700059
0.698296
0.691391
0.645256
0.645173
0.645256
0.652773
0.715791
0.905128
0.977544
0.9666
0.956478
0.95688
0.945521
0.931697
0.951774
0.859213
0.858042
0.857728
0.893709
0.981698
0.984574
0.595163
0.518921
0.649969
0.912926
0.871585
0.476743
0.442048
0.880998
0.922607
0.756838
0.948685
0.979346
0.979346
0.979343
0.979308
0.979307
0.959651
0.904862
0.978134
0.984343
0.984408
0.974388
0.858592
0.810326
0.658346
0.620061
0.650214
0.665266
0.761662
0.956808
0.916214
0.777834
0.778336
0.944306
0.990989
0.957609
0.856898
0.856898
0.942524
0.985382
0.831755
0.527761
0.537201
0.866304
0.919135
0.746371
0.428142
0.411097
0.408048
0.50014
0.864603
0.9697
0.979343
0.979308
0.96411
0.980353
0.982468
0.983795
0.984333
0.984408
0.984408
0.984408
0.984319
0.924236
0.674592
0.611863
0.668265
0.671229
0.594441
0.703769
0.843214
0.964035
0.990508
0.990992
0.990998
0.990996
0.973876
0.926909
0.966804
0.959301
0.881389
0.556433
0.544636
0.617994
0.897674
0.91676
0.913149
0.468933
0.405432
0.40543
0.40543
0.585938
0.589215
0.375992
0.511475
0.746129
0.84282
0.902339
0.957254
0.984333
0.984408
0.984319
0.983858
0.861037
0.44791
0.443715
0.443696
0.443721
0.443706
0.44388
0.464213
0.64732
0.788201
0.95643
0.990992
0.990997
0.99099
0.99097
0.990648
0.774445
0.954319
0.892951
0.617298
0.581304
0.583054
0.76899
0.956115
0.982035
0.983253
0.965068
0.717098
0.297942
0.258109
0.246431
0.235533
0.22817
0.223581
0.222872
0.378932
0.837397
0.966961
0.983857
0.980617
0.959803
0.669787
0.444137
0.443715
0.44369
0.44374
0.44379
0.44393
0.444326
0.444544
0.444544
0.678422
0.950399
0.99097
0.990843
0.986194
0.686089
0.988285
0.989427
0.990453
0.788393
0.588149
0.603638
0.694597
0.963245
0.985404
0.985963
0.986035
0.961591
0.527102
0.235527
0.226366
0.223266
0.222879
0.2226
0.22223
0.222113
0.427993
0.852269
0.898733
0.962899
0.964538
0.709877
0.453415
0.44378
0.44379
0.444076
0.444093
0.444077
0.444321