/*--------------------------------*- C++ -*----------------------------------*\
  =========                 |
  \\      /  F ield         | OpenFOAM: The Open Source CFD Toolbox
   \\    /   O peration     | Website:  https://openfoam.org
    \\  /    A nd           | Version:  8
     \\/     M anipulation  |
\*---------------------------------------------------------------------------*/
FoamFile
{
    version     2.0;
    format      ascii;
    class       surfaceScalarField;
    location    "6.8";
    object      alphaPhi0.water;
}
// * * * * * * * * * * * * * * * * * * * * * * * * * * * * * * * * * * * * * //

dimensions      [0 3 -1 0 0 0 0];

internalField   nonuniform List<scalar> 
18095
(
1.99798e-08
-1.72082e-07
1.52102e-07
2.31382e-08
-1.97418e-07
1.9426e-07
2.02131e-08
-2.06194e-07
2.09119e-07
1.18703e-08
-2.11473e-07
2.19816e-07
2.79763e-10
-2.13514e-07
2.25104e-07
-1.16634e-08
-2.12846e-07
2.24789e-07
-2.04339e-08
-2.1054e-07
2.19311e-07
-2.3238e-08
-2.06286e-07
2.0909e-07
-1.99708e-08
-1.97536e-07
1.94269e-07
-1.72111e-07
1.52141e-07
1.55337e-08
-1.87615e-07
1.62153e-08
-1.981e-07
1.18302e-08
-2.01809e-07
5.49213e-09
-2.05135e-07
-1.36017e-09
-2.06661e-07
-6.91738e-09
-2.07289e-07
-1.19722e-08
-2.05485e-07
-1.61473e-08
-2.02111e-07
-1.55345e-08
-1.98149e-07
-1.87646e-07
6.79537e-09
-1.94411e-07
8.43434e-09
-1.99739e-07
7.55831e-09
-2.00933e-07
4.88121e-09
-2.02458e-07
9.28406e-10
-2.02708e-07
-3.63434e-09
-2.02726e-07
-7.173e-09
-2.01947e-07
-8.39282e-09
-2.00891e-07
-6.79314e-09
-1.99749e-07
-1.94439e-07
4.51652e-09
-1.98927e-07
4.72536e-09
-1.99948e-07
3.65639e-09
-1.99864e-07
1.67284e-09
-2.00474e-07
-2.22197e-10
-2.00813e-07
-2.11893e-09
-2.00829e-07
-3.74866e-09
-2.00317e-07
-4.72683e-09
-1.99913e-07
-4.49667e-09
-1.99979e-07
-1.98936e-07
1.07265e-09
1.12496e-09
1.26107e-09
7.86721e-10
-2.66629e-11
-8.561e-10
-1.17303e-09
-1.08571e-09
-1.06435e-09
-2.8669e-08
-1.95912e-07
2.24581e-07
-3.1227e-08
-1.99112e-07
2.0167e-07
-2.59711e-08
-2.01054e-07
1.95798e-07
-1.50713e-08
-2.01668e-07
1.90768e-07
-7.89787e-10
-2.01968e-07
1.87687e-07
1.39331e-08
-2.02074e-07
1.87351e-07
2.54612e-08
-2.02014e-07
1.90486e-07
3.09217e-08
-2.0117e-07
1.95709e-07
2.85829e-08
-1.9911e-07
2.01449e-07
-1.95918e-07
2.24501e-07
-9.52889e-09
-1.86383e-07
-1.51238e-08
-1.93517e-07
-1.20502e-08
-2.04128e-07
-4.98319e-09
-2.08734e-07
1.09737e-09
-2.08049e-07
6.81711e-09
-2.07794e-07
1.25272e-08
-2.07724e-07
1.49697e-08
-2.03612e-07
9.36808e-09
-1.93509e-07
-1.8655e-07
-9.91663e-09
-1.76466e-07
-8.49393e-09
-1.9494e-07
-8.31978e-09
-2.04302e-07
-7.44286e-09
-2.09611e-07
-2.24405e-09
-2.13248e-07
3.30441e-09
-2.13342e-07
6.11633e-09
-2.10536e-07
7.55416e-09
-2.0505e-07
9.65418e-09
-1.95609e-07
-1.76896e-07
-6.20438e-09
-1.70262e-07
-7.64155e-09
-1.93503e-07
-6.72322e-09
-2.0522e-07
-2.2459e-09
-2.14089e-07
5.8519e-10
-2.16079e-07
4.00772e-09
-2.16765e-07
8.54039e-09
-2.15069e-07
8.62383e-09
-2.05134e-07
6.52924e-09
-1.93514e-07
-1.70367e-07
-1.81597e-08
-1.74024e-08
-1.35036e-08
-7.7764e-09
1.24886e-09
9.27328e-09
1.35152e-08
1.74715e-08
1.82264e-08
3.67998e-08
-1.58074e-07
1.21274e-07
4.04565e-08
-1.98814e-07
1.95157e-07
3.08687e-08
-2.10711e-07
2.20299e-07
1.64851e-08
-2.14304e-07
2.28687e-07
6.15218e-10
-2.17173e-07
2.33043e-07
-1.51757e-08
-2.17227e-07
2.33018e-07
-2.97378e-08
-2.14399e-07
2.28961e-07
-3.89593e-08
-2.1117e-07
2.20391e-07
-3.51721e-08
-1.99456e-07
1.95669e-07
-1.58672e-07
1.235e-07
1.70818e-08
-1.75156e-07
1.96621e-08
-2.01394e-07
1.62555e-08
-2.07304e-07
1.02255e-08
-2.08274e-07
7.09852e-10
-2.07658e-07
-8.81683e-09
-2.077e-07
-1.50957e-08
-2.0812e-07
-1.88134e-08
-2.07452e-07
-1.66795e-08
-2.0159e-07
-1.75352e-07
7.74298e-09
-1.82899e-07
8.45698e-09
-2.02108e-07
7.474e-09
-2.06322e-07
3.28365e-09
-2.04083e-07
3.49416e-10
-2.04724e-07
-2.67627e-09
-2.04675e-07
-6.91078e-09
-2.03885e-07
-7.98255e-09
-2.0638e-07
-7.45687e-09
-2.02115e-07
-1.82809e-07
7.89177e-09
-1.90791e-07
5.37803e-09
-1.99594e-07
6.35208e-09
-2.07296e-07
1.82775e-09
-1.99559e-07
2.65241e-10
-2.03161e-07
-1.25765e-09
-2.03152e-07
-5.84743e-09
-1.99295e-07
-4.97587e-09
-2.07252e-07
-7.83039e-09
-1.99261e-07
-1.90639e-07
3.37897e-08
3.58655e-08
2.43681e-08
1.55769e-08
1.02536e-10
-1.56981e-08
-2.45075e-08
-3.60504e-08
-3.38624e-08
5.91342e-07
-5.79769e-09
-5.85575e-07
5.93753e-07
-2.41545e-09
5.9587e-07
-2.11976e-09
5.9588e-07
-1.16668e-11
5.92864e-07
3.01491e-09
5.84292e-07
8.57017e-09
5.85163e-07
1.61707e-08
5.62804e-07
2.23891e-08
5.21027e-07
2.60779e-08
3.61359e-08
4.8356e-07
5.43506e-07
-1.404e-08
-5.26412e-07
5.5759e-07
-9.63485e-09
5.64035e-07
-8.56062e-09
5.69079e-07
-5.09437e-09
5.69427e-07
2.58757e-09
5.63257e-07
1.49786e-08
5.51691e-07
2.80435e-08
5.29654e-07
4.44311e-08
5.00347e-07
5.53901e-08
7.16721e-08
4.62868e-07
5.31187e-07
-2.25112e-08
-5.22711e-07
5.4044e-07
-1.88834e-08
5.50224e-07
-1.83404e-08
5.61701e-07
-1.65663e-08
5.55201e-07
9.08194e-09
5.33566e-07
3.66367e-08
5.11223e-07
5.03927e-08
4.90612e-07
6.50472e-08
4.63398e-07
8.26085e-08
1.04248e-07
4.24339e-07
5.18543e-07
-3.90838e-08
-5.01962e-07
5.22469e-07
-2.3024e-08
4.95798e-07
8.33591e-09
4.48769e-07
2.62706e-08
3.85542e-07
3.65038e-08
3.61762e-07
5.06925e-08
3.83469e-07
6.09866e-08
3.7166e-07
7.82058e-08
3.48587e-07
9.88495e-08
1.23363e-07
3.22515e-07
3.52349e-07
-9.58589e-09
-3.8174e-07
2.56908e-07
1.58675e-08
2.15669e-07
4.94211e-08
1.84445e-07
5.73679e-08
2.07407e-07
4.2938e-08
2.34612e-07
3.77772e-08
2.55742e-07
4.18277e-08
2.71307e-07
6.28337e-08
2.74879e-07
9.39935e-08
1.22544e-07
2.75264e-07
1.51875e-07
1.23111e-08
-1.73875e-07
1.35247e-07
3.24131e-08
1.39581e-07
4.50167e-08
1.53511e-07
4.33336e-08
2.07166e-07
2.88029e-08
2.22396e-07
2.27125e-08
2.2736e-07
3.69461e-08
2.22204e-07
6.80614e-08
2.1439e-07
1.01894e-07
1.29584e-07
2.07411e-07
9.4409e-08
1.72159e-08
-9.93953e-08
9.47819e-08
3.19679e-08
1.08979e-07
3.08006e-08
1.25049e-07
3.05616e-08
1.51792e-07
2.44525e-08
1.47197e-07
2.90205e-08
1.20938e-07
5.88122e-08
9.51181e-08
8.93648e-08
8.75274e-08
1.06945e-07
1.20492e-07
8.99639e-08
7.08428e-08
3.98103e-08
-1.03147e-07
6.25089e-08
4.023e-08
6.89587e-08
2.42898e-08
7.45327e-08
2.49158e-08
7.25193e-08
4.26403e-08
2.82474e-08
7.0077e-08
1.19343e-08
7.4629e-08
8.0184e-09
9.27214e-08
1.20106e-08
1.02241e-07
1.13114e-07
2.19722e-08
1.0249e-07
2.54556e-08
-8.81355e-08
1.12413e-07
3.04657e-08
8.62557e-08
4.07652e-08
7.39604e-08
5.16332e-08
3.82331e-08
8.30464e-08
7.26698e-09
1.00895e-07
-6.82979e-09
8.84127e-08
-1.13653e-08
9.94656e-08
-1.48407e-08
1.09515e-07
1.1632e-07
-1.58966e-08
8.41686e-08
5.7895e-09
-6.45023e-08
9.57221e-08
1.8912e-08
8.56518e-08
4.65828e-08
3.43798e-08
9.84505e-08
-5.17294e-09
1.21375e-07
-1.32699e-08
1.10254e-07
-4.93729e-09
8.27322e-08
4.28525e-09
9.20036e-08
-7.23429e-09
1.21078e-07
1.39053e-07
-2.99232e-08
-7.30516e-09
-9.11703e-09
2.22117e-08
-1.17658e-10
1.17232e-08
-9.75664e-09
5.34551e-08
-1.75021e-08
1.05524e-07
-1.59334e-08
1.1104e-07
-6.03471e-09
9.04786e-08
-8.99124e-10
7.24929e-08
1.53935e-08
7.57551e-08
1.44688e-08
1.22047e-07
1.67078e-07
-1.3512e-08
-7.87226e-08
-2.16592e-08
9.12649e-08
-6.63377e-08
-3.25799e-10
-5.30837e-08
4.84771e-08
-3.67987e-08
8.86899e-08
-1.19548e-08
8.56648e-08
9.12022e-09
6.87506e-08
1.64242e-08
6.16796e-08
1.56761e-08
6.99187e-08
9.65827e-09
1.16696e-07
1.50215e-07
1.0197e-08
-1.58513e-07
-2.07686e-08
1.57628e-07
-1.4906e-07
-9.76156e-09
-1.11237e-07
1.82843e-08
-5.60429e-08
4.66678e-08
-1.51492e-08
4.423e-08
-2.96978e-09
5.86247e-08
-4.43785e-09
6.88727e-08
-2.48862e-09
6.55102e-08
1.12895e-08
1.00475e-07
1.3093e-07
2.80204e-08
-2.27097e-07
-9.6768e-09
2.16833e-07
-2.24987e-07
-9.40897e-09
-1.97118e-07
-7.36338e-09
-1.41287e-07
-4.37574e-09
-1.05681e-07
1.37442e-08
-7.60843e-08
2.95485e-08
-4.93919e-08
4.56142e-08
-2.70296e-08
5.12087e-08
3.49276e-09
7.50035e-08
8.71557e-08
4.6931e-08
-1.44295e-07
-1.12563e-08
1.45952e-07
-1.46235e-07
-7.45421e-09
-1.50643e-07
-2.93983e-09
-1.68708e-07
-7.3005e-10
-1.81197e-07
7.97703e-09
-1.59552e-07
8.20036e-09
-1.17459e-07
3.80668e-09
-7.67327e-08
1.07787e-08
-4.42583e-08
4.5991e-08
6.78297e-08
-2.17071e-08
-1.49183e-07
-2.78393e-08
1.65785e-07
-1.51259e-07
-5.3595e-09
-1.6183e-07
7.64712e-09
-1.72838e-07
1.02974e-08
-1.73485e-07
8.63267e-09
-1.76396e-07
5.1627e-09
-1.96939e-07
5.84629e-09
-1.86972e-07
1.29125e-08
-1.69937e-07
2.8946e-08
3.24363e-08
-1.34551e-07
-2.07071e-07
-4.2661e-08
2.48159e-07
-1.91243e-07
-2.11704e-08
-1.8582e-07
2.2427e-09
-1.8759e-07
1.20844e-08
-1.87557e-07
8.60862e-09
-1.90175e-07
7.7842e-09
-1.94842e-07
1.05123e-08
-1.95381e-07
1.34691e-08
-1.81257e-07
1.48389e-08
1.83593e-08
-1.67178e-07
-2.48832e-07
-4.96227e-08
2.55793e-07
-2.34824e-07
-3.515e-08
-2.13646e-07
-1.75894e-08
-1.72686e-07
-5.22299e-09
-1.50038e-07
-2.11686e-09
-1.40345e-07
-1.9084e-09
-1.44007e-07
1.14519e-08
-1.43192e-07
1.48412e-08
-1.26828e-07
5.85707e-09
9.39617e-09
-1.24647e-07
-2.21733e-07
-6.33449e-08
2.35456e-07
-2.06505e-07
-5.03759e-08
-1.86533e-07
-3.75611e-08
-1.66703e-07
-2.49007e-08
-1.52857e-07
-1.59544e-08
-1.42978e-07
-1.18716e-08
-1.27002e-07
-4.32214e-09
-1.12068e-07
1.16861e-10
-1.0608e-07
9.83057e-11
4.96745e-09
-1.01668e-07
-1.78069e-07
-7.78427e-08
1.92565e-07
-1.63734e-07
-6.47092e-08
-1.51224e-07
-5.00695e-08
-1.43831e-07
-3.22956e-08
-1.37422e-07
-2.23654e-08
-1.30587e-07
-1.87054e-08
-1.18954e-07
-1.59537e-08
-1.06148e-07
-1.2681e-08
-9.86179e-08
-7.43142e-09
-6.43729e-10
-9.30067e-08
-1.28528e-07
-9.07178e-08
1.41403e-07
-1.12501e-07
-8.07348e-08
-9.7107e-08
-6.53119e-08
-8.83883e-08
-4.0296e-08
-8.9348e-08
-2.11736e-08
-8.86941e-08
-1.9439e-08
-8.39444e-08
-2.07022e-08
-7.64886e-08
-2.01329e-08
-7.07924e-08
-1.31277e-08
-4.77823e-09
-6.66585e-08
-1.08892e-07
-9.82877e-08
1.16465e-07
-9.87589e-08
-9.08708e-08
-8.22529e-08
-8.15592e-08
-6.0204e-08
-6.04545e-08
-4.69741e-08
-3.44217e-08
-3.97597e-08
-2.62821e-08
-3.43593e-08
-2.59146e-08
-2.64342e-08
-2.78569e-08
-2.1688e-08
-1.74864e-08
-5.97815e-09
-2.03832e-08
-9.40241e-08
-1.06698e-07
1.02433e-07
-8.71116e-08
-9.7788e-08
-8.12479e-08
-8.73123e-08
-6.8804e-08
-7.23502e-08
-4.91592e-08
-5.40807e-08
-3.67807e-08
-3.86748e-08
-3.47855e-08
-2.79238e-08
-3.68218e-08
-2.5486e-08
-3.49426e-08
-1.93826e-08
-1.06933e-08
-3.02433e-08
-7.02862e-08
-1.15059e-07
7.86428e-08
-6.43584e-08
-1.03718e-07
-6.1396e-08
-9.02745e-08
-5.81982e-08
-7.5839e-08
-5.03979e-08
-6.25191e-08
-4.3874e-08
-4.52128e-08
-4.36517e-08
-2.81587e-08
-4.28402e-08
-2.63124e-08
-3.88298e-08
-2.34127e-08
-1.32989e-08
-3.73916e-08
-8.17969e-09
-1.07523e-07
6.45742e-10
-1.23272e-08
-9.95715e-08
-1.46665e-08
-8.79361e-08
-1.78047e-08
-7.27029e-08
-2.31077e-08
-5.72293e-08
-2.85016e-08
-4.0482e-08
-3.41087e-08
-2.28717e-08
-4.33807e-08
-1.70899e-08
-5.36047e-08
-1.33464e-08
-1.09595e-08
-5.59418e-08
2.16684e-08
-8.94739e-08
-3.77767e-08
1.11014e-08
-8.90059e-08
5.33508e-09
-8.2172e-08
2.97604e-09
-7.03557e-08
-3.92881e-10
-5.38833e-08
-5.5144e-09
-3.53801e-08
-7.49069e-09
-2.0909e-08
-1.16039e-08
-1.29894e-08
-1.64861e-08
-8.6696e-09
-7.84651e-09
-1.96482e-08
1.97523e-08
-6.40306e-08
-3.09694e-08
1.21263e-08
-8.08026e-08
8.67409e-09
-7.87308e-08
9.983e-09
-7.16873e-08
1.73914e-08
-6.13111e-08
3.16477e-08
-4.96505e-08
4.65096e-08
-3.57837e-08
5.45029e-08
-2.09941e-08
5.37789e-08
-7.9576e-09
1.07344e-09
4.47478e-08
2.11114e-09
-5.89059e-08
-7.2379e-09
-1.49433e-09
-7.17382e-08
8.15929e-10
-8.10625e-08
5.63438e-09
-7.65245e-08
1.75644e-08
-7.3256e-08
3.76472e-08
-6.97463e-08
6.05916e-08
-5.87388e-08
7.73096e-08
-3.78462e-08
8.50417e-08
-1.55422e-08
1.50875e-09
8.44553e-08
-9.48187e-09
-6.92825e-08
1.98562e-08
-6.35894e-09
-6.97447e-08
-4.88789e-09
-7.74777e-08
5.69832e-10
-8.07121e-08
1.55965e-08
-8.81583e-08
3.4177e-08
-8.83382e-08
5.57965e-08
-8.06269e-08
7.63946e-08
-5.78552e-08
9.00687e-08
-2.90892e-08
-1.05557e-08
1.02134e-07
-1.8917e-08
-8.42623e-08
3.38774e-08
-4.91972e-09
-8.3976e-08
1.06373e-09
-7.84751e-08
7.49984e-09
-8.03657e-08
2.1192e-08
-1.00968e-07
3.36765e-08
-1.00834e-07
4.69099e-08
-9.38703e-08
5.97301e-08
-7.20855e-08
6.53156e-08
-3.29899e-08
-1.5412e-08
7.16239e-08
-1.42146e-09
-1.09541e-07
1.24625e-08
1.63804e-08
-1.18097e-07
4.05908e-08
-1.12692e-07
6.22905e-08
-9.59052e-08
6.08444e-08
-9.69819e-08
5.43864e-08
-9.43863e-08
5.01293e-08
-8.96234e-08
5.33422e-08
-7.6938e-08
6.36479e-08
-4.43967e-08
-2.95956e-08
7.69182e-08
8.82374e-08
-1.28603e-07
-6.91699e-08
9.67956e-08
-1.2665e-07
9.6009e-08
-1.20814e-07
1.03829e-07
-1.10427e-07
1.02462e-07
-9.43014e-08
9.05511e-08
-8.248e-08
7.33079e-08
-7.23893e-08
5.85026e-08
-6.21371e-08
5.85619e-08
-4.86577e-08
-4.3105e-08
6.91203e-08
1.20666e-07
-1.34691e-07
-1.14573e-07
1.24894e-07
-1.30873e-07
1.25199e-07
-1.21114e-07
1.20083e-07
-1.05284e-07
1.13676e-07
-8.80944e-08
1.02954e-07
-7.1578e-08
8.23298e-08
-5.15066e-08
6.29057e-08
-4.27523e-08
5.44402e-08
-4.04122e-08
-3.90076e-08
4.91379e-08
1.18603e-07
-1.29095e-07
-1.24183e-07
1.10636e-07
-1.22258e-07
1.01132e-07
-1.09892e-07
9.56108e-08
-9.97162e-08
7.94316e-08
-7.20353e-08
5.90926e-08
-5.0844e-08
4.54315e-08
-3.72268e-08
4.10208e-08
-3.8435e-08
3.65747e-08
-3.61951e-08
-3.37117e-08
3.09471e-08
1.96255e-08
-8.88471e-08
-5.85203e-08
-1.40887e-08
-8.65491e-08
-3.77846e-08
-8.62862e-08
-5.146e-08
-8.3944e-08
-4.90206e-08
-7.37473e-08
-4.01942e-08
-6.09683e-08
-2.96464e-08
-4.9094e-08
-3.19288e-08
-3.61993e-08
-4.37853e-08
-2.40313e-08
-2.20379e-08
-5.49013e-08
-1.9885e-07
-5.65322e-08
1.66146e-07
-2.16367e-07
-7.00467e-08
-2.20839e-07
-8.20724e-08
-2.2406e-07
-8.60088e-08
-2.19209e-07
-8.07412e-08
-2.17941e-07
-6.2193e-08
-2.22122e-07
-3.10883e-08
-2.39605e-07
-7.71259e-09
-2.54622e-07
-2.53157e-09
-2.19624e-08
-2.63819e-07
-3.12436e-07
-4.33076e-08
2.99243e-07
-3.19886e-07
-6.25636e-08
-3.30323e-07
-7.16037e-08
-3.43288e-07
-7.29879e-08
-3.60562e-07
-6.31665e-08
-3.40276e-07
-2.78818e-08
-3.02978e-07
-1.0209e-08
-3.09012e-07
-9.59498e-09
-2.90204e-07
-2.91876e-08
-5.50972e-08
-3.41855e-07
-3.66428e-07
-2.85214e-08
3.51402e-07
-3.73843e-07
-5.51155e-08
-3.76959e-07
-6.84325e-08
-3.79531e-07
-7.02583e-08
-3.61682e-07
-5.85894e-08
-2.86838e-07
-2.93825e-08
-2.96009e-07
-1.05784e-08
-3.38191e-07
-9.79913e-09
-3.478e-07
-3.1512e-08
-6.61726e-08
-3.28814e-07
-3.47119e-07
-1.91575e-08
3.28773e-07
-3.58919e-07
-5.80111e-08
-3.4014e-07
-8.7053e-08
-3.191e-07
-9.1165e-08
-2.9761e-07
-7.9879e-08
-2.50426e-07
-4.64306e-08
-1.78946e-07
-2.96957e-08
-1.58197e-07
-3.0823e-08
-1.40856e-07
-4.91239e-08
-7.17009e-08
-1.35603e-07
-1.69759e-07
-3.13472e-08
1.80204e-07
-2.52517e-07
-5.85679e-08
-2.66446e-07
-7.2995e-08
-2.72187e-07
-8.52939e-08
-2.51634e-07
-8.33472e-08
-1.89482e-07
-6.96675e-08
-1.5037e-07
-6.92529e-08
-1.19579e-07
-6.18826e-08
-9.41566e-08
-7.4821e-08
-9.74327e-08
-6.87179e-08
-2.54436e-07
-2.12404e-08
2.1399e-07
-2.82287e-07
-3.09659e-08
-3.08814e-07
-4.6338e-08
-3.26825e-07
-6.77281e-08
-3.06083e-07
-8.75523e-08
-2.66673e-07
-1.04483e-07
-2.61685e-07
-1.11033e-07
-2.19374e-07
-1.1453e-07
-1.69578e-07
-1.39008e-07
-1.56939e-07
-1.47877e-07
-4.30015e-07
2.04782e-08
3.87819e-07
-4.78948e-07
1.73188e-08
-5.21482e-07
-3.9075e-09
-5.49365e-07
-3.80451e-08
-5.54942e-07
-8.40661e-08
-5.3823e-07
-1.217e-07
-5.03917e-07
-1.45718e-07
-4.50651e-07
-1.6815e-07
-4.07057e-07
-1.83028e-07
-1.88776e-07
-3.75848e-07
-6.57408e-07
6.61254e-08
6.1113e-07
-7.02904e-07
6.20877e-08
-7.3347e-07
2.63713e-08
-7.28657e-07
-4.38791e-08
-7.03871e-07
-1.09577e-07
-6.79924e-07
-1.46244e-07
-6.57839e-07
-1.68305e-07
-6.37458e-07
-1.88942e-07
-6.16988e-07
-2.04038e-07
-2.1523e-07
-5.91452e-07
-6.47582e-07
6.06352e-08
6.6812e-07
-6.66128e-07
8.05399e-08
-7.29735e-07
5.37995e-08
-7.55432e-07
-2.90117e-08
-7.43402e-07
-1.24053e-07
-7.28854e-07
-1.61302e-07
-7.13788e-07
-1.8377e-07
-6.97766e-07
-2.05464e-07
-6.80399e-07
-2.23296e-07
-2.35384e-07
-6.61683e-07
-4.52499e-07
4.01946e-08
5.75951e-07
-4.22564e-07
4.96529e-08
-4.00951e-07
3.1052e-08
-4.96517e-07
-1.27496e-08
-6.55228e-07
-6.88935e-08
-6.93088e-07
-1.19307e-07
-6.92612e-07
-1.84804e-07
-6.83353e-07
-2.15938e-07
-6.72983e-07
-2.35467e-07
-2.51291e-07
-6.57543e-07
-3.82179e-07
1.144e-08
4.21157e-07
-3.44404e-07
1.09395e-08
-3.14695e-07
3.47263e-10
-2.85505e-07
-4.30741e-08
-2.80904e-07
-7.60196e-08
-3.76954e-07
-9.97517e-08
-4.69068e-07
-1.29301e-07
-4.95492e-07
-1.90304e-07
-5.04657e-07
-2.27102e-07
-2.46326e-07
-5.1009e-07
-4.58554e-07
-5.32603e-08
5.2844e-07
-3.94373e-07
-4.74906e-08
-3.3311e-07
-5.57829e-08
-2.76803e-07
-9.06787e-08
-1.84153e-07
-1.36457e-07
-1.51928e-07
-1.75737e-07
-1.20377e-07
-2.00287e-07
-1.41966e-07
-2.04274e-07
-1.6394e-07
-2.0529e-07
-1.99051e-07
-2.10281e-07
-3.20771e-07
-1.17577e-07
3.90603e-07
-2.63788e-07
-9.92886e-08
-2.2784e-07
-8.72396e-08
-2.0167e-07
-1.12032e-07
-1.54408e-07
-1.78174e-07
-1.02413e-07
-1.91395e-07
-6.71251e-08
-2.10156e-07
-1.90191e-08
-2.38936e-07
-9.95187e-09
-1.84163e-07
-1.29169e-07
-3.82035e-08
-2.94644e-07
-1.68071e-07
2.83093e-07
-2.00827e-07
-1.46357e-07
-1.2594e-07
-1.08272e-07
-9.89944e-08
-1.16459e-07
-7.77752e-08
-1.54178e-07
-4.32482e-08
-1.62165e-07
-2.29245e-08
-1.41241e-07
-1.48849e-08
-1.81644e-07
-3.22304e-09
-1.38814e-07
-9.33308e-08
1.08626e-09
-3.11523e-07
-2.13448e-07
2.47807e-07
-2.15864e-07
-2.3995e-07
-1.35902e-07
-2.73086e-07
-5.40352e-08
-2.97312e-07
-2.42724e-08
-2.90109e-07
-1.09418e-08
-3.02519e-07
4.98148e-09
-2.4151e-07
1.07777e-08
-2.04302e-07
1.82846e-08
-1.59219e-07
-1.28441e-07
4.66093e-08
-2.10486e-07
-2.63548e-07
2.60586e-07
-1.69995e-07
-2.8044e-07
-1.24832e-07
-3.18247e-07
-8.78173e-08
-3.42032e-07
-4.1909e-08
-3.36016e-07
-1.25218e-08
-3.31904e-07
9.90005e-09
-3.25165e-07
2.89977e-08
-3.12573e-07
6.45675e-08
-3.00514e-07
-3.10516e-07
1.01422e-07
-1.30668e-07
-2.80849e-07
1.47971e-07
-8.62678e-08
-3.24839e-07
-5.2391e-08
-3.52122e-07
-2.46165e-08
-3.69805e-07
4.09722e-09
-3.64728e-07
1.0209e-08
-3.38014e-07
1.78355e-08
-3.3279e-07
4.40366e-08
-3.38746e-07
9.68446e-08
-3.5302e-07
-3.79744e-07
1.67053e-07
-8.6295e-08
-3.12035e-07
1.17483e-07
-4.49339e-08
-3.66198e-07
-2.18018e-09
-3.94874e-07
2.28611e-08
-3.94845e-07
2.64004e-08
-3.68266e-07
5.12931e-09
-3.16741e-07
-7.75217e-09
-3.19908e-07
-8.89781e-09
-3.37326e-07
1.73817e-08
-3.78319e-07
-4.48398e-07
8.80764e-08
4.32596e-09
-3.07251e-07
-9.70387e-09
2.39334e-08
-3.85804e-07
4.84511e-08
-4.19391e-07
6.29049e-08
-4.0929e-07
5.40484e-08
-3.59402e-07
2.22309e-09
-2.64915e-07
-2.34173e-08
-2.88656e-07
-3.83585e-08
-2.44788e-07
-4.84693e-08
-2.19802e-07
-3.28923e-07
4.20651e-09
1.42399e-07
-2.73708e-07
-1.76696e-07
1.32206e-07
-3.75569e-07
1.35904e-07
-4.23081e-07
1.3852e-07
-4.11819e-07
1.08681e-07
-3.29507e-07
4.97696e-08
-2.06015e-07
2.68879e-09
-1.59671e-07
-1.68771e-08
-7.93805e-08
-1.05614e-08
-9.71855e-08
-1.69383e-07
-6.1329e-10
2.2197e-07
-2.57036e-07
-2.38525e-07
2.16085e-07
-3.69727e-07
2.21939e-07
-4.28811e-07
2.15881e-07
-4.01327e-07
1.52834e-07
-2.61826e-07
8.41755e-08
-1.47182e-07
2.40229e-08
-6.88009e-08
1.96543e-08
-8.13179e-08
5.55031e-08
-1.37283e-07
-2.02306e-07
8.48076e-08
2.61442e-07
-2.55941e-07
-2.59997e-07
2.58182e-07
-3.66345e-07
2.35079e-07
-4.02839e-07
1.40749e-07
-2.00343e-07
8.01975e-08
-5.00946e-08
6.43484e-08
-8.22897e-08
5.55576e-08
-6.46694e-08
1.01442e-07
-1.34843e-07
1.53174e-07
-1.95321e-07
-3.29161e-07
2.73216e-07
2.71954e-07
-2.16683e-07
-2.7454e-07
2.20558e-07
-2.76306e-07
8.07253e-08
-1.66722e-07
5.96388e-08
-9.2214e-08
3.6527e-08
-2.53934e-08
5.97411e-08
-6.14453e-08
1.00092e-07
-1.274e-07
1.8611e-07
-2.32625e-07
3.20606e-07
-3.64769e-07
-6.1052e-07
5.52804e-07
1.69834e-07
-1.92742e-07
-2.62043e-07
7.83268e-08
-1.68493e-07
3.26986e-08
-8.5789e-08
1.00994e-08
-6.97157e-08
4.83288e-09
-2.02278e-08
6.01936e-08
-1.16927e-07
2.11799e-07
-3.24961e-07
3.62731e-07
-4.6046e-07
5.15833e-07
-6.4452e-07
-6.1957e-07
5.2427e-07
1.68898e-07
-1.59878e-07
-3.41016e-07
7.09304e-08
-1.1968e-07
3.2127e-08
-4.74582e-08
1.33913e-08
-5.11e-08
2.35525e-08
-3.049e-08
1.90137e-07
-3.28136e-07
3.39697e-07
-6.07732e-07
3.87242e-07
-5.08326e-07
4.08476e-07
-6.00719e-07
-5.57802e-07
3.4741e-07
1.98782e-07
-1.52555e-07
-3.40435e-07
9.72733e-08
-1.3053e-07
6.60544e-08
-4.92227e-08
6.58512e-08
-5.13693e-08
1.03479e-07
-6.82375e-08
2.20835e-07
-4.22821e-07
2.47282e-07
-6.30595e-07
2.83963e-07
-5.63912e-07
2.66813e-07
-4.64253e-07
-5.08477e-07
2.83309e-07
3.79781e-07
-1.1902e-07
-4.60949e-07
2.48708e-07
-1.13129e-07
1.25147e-07
-6.89277e-08
1.03575e-07
-3.25555e-08
1.64024e-07
-8.39318e-08
2.14316e-07
-4.31595e-07
2.18535e-07
-6.31077e-07
2.10399e-07
-5.66049e-07
2.08804e-07
-4.70597e-07
-4.79263e-07
2.93827e-07
5.09937e-07
-1.04217e-07
-5.24801e-07
4.82087e-07
-8.54782e-08
2.66573e-07
-5.44284e-08
2.1421e-07
-3.38357e-08
3.14296e-07
-6.26503e-08
3.57929e-07
-4.1079e-07
2.66647e-07
-6.59641e-07
2.59979e-07
-5.68211e-07
2.56694e-07
-4.73311e-07
-4.43745e-07
3.17666e-07
5.29431e-07
-9.08007e-08
-5.42987e-07
4.93135e-07
-5.67306e-08
3.67662e-07
-1.85819e-08
1.95788e-07
-1.53533e-08
1.70498e-07
-6.48706e-08
3.77278e-07
-4.77717e-07
3.94314e-07
-6.47373e-07
3.41439e-07
-5.47555e-07
2.9133e-07
-4.31142e-07
-4.1342e-07
3.01338e-07
4.55288e-07
-1.29665e-08
-5.43755e-07
2.7222e-07
4.76085e-08
1.96419e-07
4.97141e-08
4.55159e-08
4.0495e-08
2.40749e-07
-2.27547e-07
4.52541e-07
-6.70915e-07
3.96512e-07
-5.63053e-07
3.24279e-07
-4.82247e-07
2.65067e-07
-4.05182e-07
-3.60649e-07
2.11596e-07
2.32287e-07
4.50118e-08
-2.99447e-07
1.4986e-07
1.18638e-07
8.62484e-08
1.48091e-07
-4.46266e-09
1.27132e-07
2.75284e-07
-5.46662e-07
3.96286e-07
-7.93343e-07
3.15969e-07
-4.93128e-07
2.061e-07
-3.69958e-07
8.48111e-08
-3.27424e-07
-3.09028e-07
3.32066e-08
1.70434e-07
1.20125e-07
-2.54939e-07
1.15529e-07
1.83427e-07
8.02366e-08
1.76791e-07
2.97064e-08
1.6915e-07
2.34929e-07
-7.50998e-07
2.51529e-07
-8.08633e-07
6.81788e-08
-3.83825e-07
-7.7843e-08
-3.18582e-07
-1.29528e-07
-2.75714e-07
-3.09708e-07
-1.2881e-07
5.93245e-08
1.62883e-07
-9.36866e-08
4.45296e-08
2.06425e-07
-4.51065e-09
1.91245e-07
-1.67139e-08
1.54481e-07
8.60761e-08
-8.57441e-07
4.22095e-08
-7.4273e-07
-1.70171e-07
-2.42315e-07
-2.37367e-07
-2.78571e-07
-2.331e-07
-2.79947e-07
-3.10499e-07
-2.32285e-07
-2.04773e-07
1.87168e-07
1.88692e-07
-1.85283e-07
1.71778e-07
-7.55891e-08
9.45645e-08
2.87241e-08
5.57838e-09
1.89235e-08
-8.49271e-07
-6.55825e-09
-7.109e-07
-1.88064e-07
-1.32017e-07
-2.36064e-07
-2.30512e-07
-2.66156e-07
-2.49829e-07
-2.62129e-07
-3.14466e-07
-4.12755e-07
1.59837e-07
4.46909e-07
-2.38305e-07
1.18581e-07
-2.1286e-07
5.58445e-08
2.58795e-09
-1.75295e-07
-4.34685e-10
-8.44543e-07
-6.26518e-09
-7.17552e-07
-1.46107e-07
-1.58975e-08
-2.31049e-07
-1.45454e-07
-2.94221e-07
-1.86598e-07
-1.88386e-07
-3.67525e-07
-1.9717e-07
1.0819e-07
3.95538e-07
-1.49898e-07
5.80344e-08
-9.026e-08
-1.76691e-08
-3.56973e-08
-2.51897e-07
-3.1617e-08
-8.45825e-07
-1.09801e-08
-7.36146e-07
-1.83201e-08
-7.40649e-09
-1.33889e-07
-3.01866e-08
-2.4722e-07
-7.03662e-08
-8.75016e-08
-3.33593e-07
-1.33844e-07
1.02001e-07
9.36337e-08
-5.71215e-08
9.60745e-08
-5.42029e-08
-3.44679e-08
-5.7318e-08
-2.73716e-07
-2.35975e-08
-8.76746e-07
3.58667e-09
-7.57205e-07
4.21249e-08
-4.59739e-08
-4.45038e-08
5.50744e-08
-1.68917e-07
6.86094e-08
4.58994e-08
-3.02617e-07
1.0528e-07
8.12264e-08
-7.36153e-08
9.09805e-08
2.38856e-07
3.7838e-09
3.11121e-08
-1.41944e-08
-2.66998e-07
-1.85593e-08
-8.69583e-07
-7.43583e-10
-7.66432e-07
4.32108e-08
-8.99574e-08
2.95921e-08
8.60028e-08
-4.67595e-08
1.53064e-07
1.33301e-07
-1.43231e-07
7.82266e-08
2.31839e-07
-8.59895e-08
5.62701e-08
2.63143e-07
-1.34505e-08
9.63041e-08
-7.2642e-08
-2.1592e-07
-5.47519e-08
-8.84973e-07
-1.66606e-08
-7.96271e-07
3.06214e-08
-1.37269e-07
2.8099e-08
9.56378e-08
2.56667e-08
1.56328e-07
1.31786e-07
2.92473e-08
1.08149e-07
2.40272e-07
-7.528e-08
1.47002e-07
2.5056e-07
2.64072e-09
1.62381e-07
-2.93939e-08
-1.76644e-07
-4.29253e-08
-8.70404e-07
-2.56689e-08
-8.07961e-07
1.14387e-09
-1.64086e-07
-2.36036e-08
1.16064e-07
2.00833e-08
7.9457e-08
5.86889e-08
8.72382e-08
3.58625e-08
2.05938e-07
-3.3318e-08
1.18297e-08
1.14594e-07
-5.29108e-09
9.98076e-08
2.96803e-09
-1.78278e-07
-2.27613e-08
-8.44267e-07
-2.13931e-08
-8.10319e-07
4.05669e-09
-1.85968e-07
4.68349e-08
1.06473e-07
8.23251e-08
2.89869e-08
8.7593e-09
1.05249e-07
-7.29595e-08
7.12073e-08
9.3948e-08
-5.48329e-08
6.27148e-08
-1.17501e-08
2.12005e-08
-1.39134e-08
-1.7677e-07
-5.86393e-09
-8.53909e-07
2.6247e-12
-8.20453e-07
1.77862e-08
-1.89081e-07
7.42215e-08
6.35283e-08
8.26788e-08
1.69376e-08
9.04447e-10
8.62352e-08
-4.0515e-08
1.42787e-08
7.702e-08
-3.05954e-08
3.61388e-08
-1.42996e-09
6.70735e-09
2.56527e-09
-1.83462e-07
-3.42458e-09
-8.49912e-07
-5.95103e-09
-8.16638e-07
2.96734e-10
-1.92255e-07
3.3004e-08
1.99406e-08
6.08216e-08
-3.40022e-08
-5.72822e-09
4.21809e-09
-1.72669e-09
1.27599e-08
9.45928e-09
1.67006e-08
2.07839e-08
6.82337e-09
8.33602e-09
6.2855e-09
-1.83245e-07
-1.56532e-08
-8.32115e-07
-1.69871e-08
-8.1245e-07
-1.64916e-08
-1.88956e-07
2.88917e-08
-3.66375e-08
8.82276e-09
-2.62424e-08
2.48928e-10
1.01958e-11
1.91156e-08
4.41141e-10
3.2403e-10
2.07608e-08
1.21904e-08
0
4.61353e-09
4.26677e-09
-1.93497e-07
-1.20844e-08
-8.17236e-07
-1.31509e-08
-8.11119e-07
-4.45107e-09
-1.90923e-07
5.83192e-09
-2.57771e-08
0
-6.55401e-09
4.7029e-10
-1.05241e-09
2.33502e-09
6.99237e-14
-6.30819e-11
0
1.03486e-09
4.52515e-09
7.19164e-11
1.64954e-08
-2.08843e-07
-2.91039e-09
-7.97449e-07
-1.6664e-08
-7.98171e-07
-4.08362e-09
-2.00515e-07
0
-3.4632e-11
-1.84441e-10
-3.0004e-09
2.52059e-10
-1.4311e-10
-9.76662e-10
0
2.31558e-10
-5.03655e-13
4.22412e-11
7.23921e-11
-1.11236e-12
6.72485e-09
-2.18859e-07
-9.96578e-09
-7.83968e-07
-2.4218e-08
-7.80207e-07
-1.77658e-11
-2.14491e-07
0
-5.56011e-11
4.00239e-12
-1.26193e-09
2.49323e-10
1.07058e-12
-4.11824e-11
7.34399e-12
2.46843e-11
-9.90164e-15
9.35693e-13
4.59597e-13
-1.66507e-12
-6.15175e-10
-2.32644e-07
-2.24846e-08
-7.67747e-07
-3.40704e-08
-7.62607e-07
-3.26931e-11
-2.32874e-07
0
-8.74965e-11
-2.27955e-10
1.83946e-10
4.16389e-11
-2.3586e-11
-1.39722e-13
1.42478e-11
-3.45223e-13
1.82351e-12
4.46314e-13
1.56648e-12
-1.43528e-12
3.80095e-09
-2.50397e-07
-1.87163e-08
-7.48947e-07
-3.4025e-08
-7.44301e-07
-3.39775e-10
-2.5275e-07
-3.61766e-10
-6.6618e-11
-8.4202e-11
7.9303e-11
2.03718e-11
-2.07059e-11
-3.32253e-13
1.69255e-11
-1.90988e-14
3.60825e-13
8.75749e-13
2.944e-13
-1.41142e-12
1.45927e-08
-2.66062e-07
-4.88162e-09
-7.29734e-07
-2.28153e-08
-7.27056e-07
-5.79706e-11
-2.72101e-07
-6.48129e-11
-6.17593e-11
-1.88039e-11
2.88365e-11
2.22115e-10
-2.22165e-11
-2.64073e-13
2.04977e-12
1.50997e-11
2.57087e-13
3.58014e-13
3.74622e-13
-1.56774e-12
3.87916e-08
-2.92686e-07
1.60827e-08
-7.04545e-07
-4.92446e-09
-7.09234e-07
-4.97048e-12
-2.88929e-07
-5.45667e-12
-6.29927e-11
-5.34867e-11
7.64858e-11
2.67528e-10
-4.6595e-11
-7.13669e-14
7.17734e-13
1.36551e-12
1.72202e-13
7.65467e-14
1.14785e-12
-2.58129e-12
3.20616e-08
-3.1251e-07
1.57505e-08
-6.85965e-07
-7.52357e-09
-6.87983e-07
-5.76643e-12
-3.10587e-07
-3.43461e-12
-6.72979e-11
3.56913e-11
3.56405e-11
6.04592e-11
2.65631e-10
6.44983e-14
4.56484e-13
1.67884e-13
7.1516e-13
-6.12013e-13
7.345e-12
-9.26517e-12
3.46037e-08
-3.37467e-07
9.72946e-09
-6.60252e-07
-1.69559e-08
-6.62723e-07
-3.35786e-11
-3.37715e-07
-3.1697e-11
-7.0899e-11
9.9279e-11
8.04614e-12
3.8739e-11
7.2932e-11
3.93821e-12
3.91163e-12
-1.0049e-13
1.71462e-11
-2.04762e-11
5.31995e-11
-4.55015e-11
3.04588e-08
-3.61962e-07
8.387e-09
-6.37502e-07
-1.77844e-08
-6.37792e-07
-8.91848e-11
-3.60976e-07
-5.4532e-11
-1.05137e-10
9.54603e-12
-1.94353e-11
2.63528e-11
0
9.25159e-11
6.26843e-12
-3.88473e-11
7.81907e-11
5.56963e-12
2.88988e-10
-2.57318e-10
3.29807e-08
-3.89893e-07
2.64341e-09
-6.07637e-07
-2.4018e-08
-6.10947e-07
-3.03306e-10
-3.88171e-07
-8.91717e-11
-3.15463e-10
-6.24996e-11
-1.0192e-11
9.56027e-12
-1.09351e-11
-3.01498e-14
-4.39131e-14
1.96576e-11
5.77179e-12
-1.00245e-13
1.70604e-09
-1.95702e-09
2.15176e-08
-4.12747e-07
-2.02775e-09
-5.84546e-07
-2.97799e-08
-5.83032e-07
-1.79958e-09
-4.12819e-07
-4.84377e-11
-2.06205e-09
-1.45044e-11
3.62559e-12
2.10081e-12
-2.26747e-12
-3.06453e-13
2.50901e-14
2.2911e-13
1.214e-13
-5.39361e-13
8.93542e-09
-1.08923e-08
3.04492e-08
-4.37459e-07
-3.13087e-09
-5.50927e-07
-3.52238e-08
-5.51105e-07
-9.52591e-09
-4.37046e-07
-1.12034e-11
-1.15768e-08
-7.58957e-12
-4.83929e-14
3.21471e-11
-2.66015e-12
1.13495e-12
4.79911e-13
-1.59811e-12
1.48474e-12
-9.03716e-13
1.90394e-08
-3.01884e-08
2.56303e-08
-4.43197e-07
2.33685e-09
-5.27689e-07
-2.55256e-08
-5.23276e-07
-1.81543e-08
-4.45059e-07
-1.99666e-13
-3.04852e-08
0
-2.95384e-13
4.63816e-12
1.65088e-11
2.47476e-12
-9.9254e-12
0
1.08027e-11
-9.29553e-12
3.52028e-08
-6.59234e-08
4.47897e-08
-4.53066e-07
1.47741e-10
-4.83063e-07
-3.54066e-08
-4.87736e-07
-3.42007e-08
-4.46505e-07
-4.84484e-12
-6.51407e-08
-6.95569e-13
-4.49438e-12
1.00814e-13
1.45675e-13
1.44077e-10
3.44562e-12
-2.33981e-10
1.81964e-10
-4.75419e-11
3.82415e-08
-1.04578e-07
1.38193e-08
-4.28568e-07
-1.376e-08
-4.55485e-07
-4.78734e-08
-4.53633e-07
-5.42615e-08
-4.39963e-07
-8.53018e-11
-1.1921e-07
-1.08059e-13
-8.97071e-11
-6.17362e-15
-1.43021e-15
1.62664e-10
4.21626e-11
-2.19574e-10
1.2931e-09
-1.18011e-09
8.2574e-08
-1.86281e-07
6.10713e-08
-4.06929e-07
1.36332e-08
-4.0805e-07
-3.4713e-08
-4.05287e-07
-7.0531e-08
-4.04092e-07
-1.58398e-09
-1.87119e-07
-6.6294e-13
-1.673e-09
-6.691e-13
-1.59728e-17
1.73447e-10
2.19053e-11
-6.30972e-11
1.42593e-08
-1.52769e-08
7.71858e-08
-2.49417e-07
2.89053e-08
-3.58648e-07
-1.06532e-08
-3.6849e-07
-4.58502e-08
-3.70093e-07
-8.86328e-08
-3.6131e-07
-1.65531e-08
-2.57714e-07
-3.48976e-11
-1.81908e-08
-3.55667e-11
-3.55646e-18
7.24108e-10
-7.35385e-10
-4.8244e-11
5.78646e-08
-7.19023e-08
1.05209e-07
-2.95205e-07
6.32832e-08
-3.16723e-07
6.57429e-09
-3.11781e-07
-5.111e-08
-3.12409e-07
-9.59963e-08
-3.16427e-07
-5.90314e-08
-2.96104e-07
-1.33228e-09
-7.64197e-08
-1.36785e-09
-6.77669e-18
2.84139e-08
-2.90223e-08
-1.24505e-10
1.43071e-07
-1.86373e-07
1.02438e-07
-2.54589e-07
4.56997e-08
-2.59984e-07
-1.1925e-09