/*--------------------------------*- C++ -*----------------------------------*\
  =========                 |
  \\      /  F ield         | OpenFOAM: The Open Source CFD Toolbox
   \\    /   O peration     | Website:  https://openfoam.org
    \\  /    A nd           | Version:  8
     \\/     M anipulation  |
\*---------------------------------------------------------------------------*/
FoamFile
{
    version     2.0;
    format      ascii;
    class       volScalarField;
    location    "6.8";
    object      p;
}
// * * * * * * * * * * * * * * * * * * * * * * * * * * * * * * * * * * * * * //

dimensions      [1 -1 -2 0 0 0 0];

internalField   nonuniform List<scalar> 
9150
(
-204.357
-205.386
-206.004
-206.465
-206.706
-206.712
-206.473
-206.014
-205.386
-204.356
-224.415
-224.94
-225.362
-225.673
-225.851
-225.853
-225.687
-225.365
-224.941
-224.416
-244.309
-244.596
-244.85
-245.076
-245.185
-245.178
-245.075
-244.856
-244.599
-244.311
-264.049
-264.227
-264.396
-264.555
-264.634
-264.646
-264.556
-264.397
-264.228
-264.05
-283.673
-283.854
-283.993
-284.124
-284.18
-284.188
-284.118
-283.989
-283.854
-283.673
-118.405
-119.153
-118.819
-118.461
-118.274
-118.274
-118.463
-118.82
-119.153
-118.407
-133.872
-134.58
-134.691
-134.764
-134.67
-134.669
-134.775
-134.707
-134.6
-133.896
-150.311
-151.068
-151.34
-151.718
-151.779
-151.795
-151.729
-151.359
-151.085
-150.319
-167.169
-168.353
-168.801
-169.433
-169.589
-169.584
-169.407
-168.774
-168.329
-167.15
-184.205
-186.297
-187.044
-187.744
-188.031
-188.01
-187.732
-187.04
-186.292
-184.201
-24.4569
-26.112
-28.1734
-29.1939
-29.8678
-29.8517
-29.2306
-28.2342
-26.2052
-24.6185
-45.0067
-45.3539
-46.4057
-46.8123
-47.2481
-47.2586
-46.8336
-46.4285
-45.4057
-45.0862
-65.2807
-65.0736
-66.1708
-65.7046
-66.2887
-66.3093
-65.7122
-66.1987
-65.1106
-65.3153
-88.077
-85.1622
-86.204
-84.6604
-84.7924
-84.811
-84.6379
-86.2237
-85.1653
-88.0919
-113.555
-104.06
-103.599
-102.223
-101.781
-101.786
-102.218
-103.619
-104.082
-113.567
1300.42
1300.55
1301.18
1302.21
1303.68
1305.64
1307.53
1311.76
1314.46
1318.8
1279.97
1279.79
1280.3
1281.13
1282.43
1284.05
1286.41
1289.62
1293.11
1297.01
1257.45
1257.28
1257.46
1257.78
1258.8
1260.09
1262.72
1265.57
1268.61
1271.88
1233.67
1232.71
1231.98
1232.86
1235.67
1240.73
1239.82
1241.56
1244.48
1247.33
1213.27
1211.47
1215
1217.06
1215.94
1215.41
1217.42
1219.43
1221.66
1224.61
1194.59
1194.12
1195.41
1197.27
1197.39
1198.38
1198.95
1199.11
1200.31
1202.73
1177.63
1178.06
1178.86
1179.52
1179.6
1180.12
1179.28
1179.48
1181.08
1183.05
1160.26
1161.66
1162.53
1163.06
1162.45
1162.62
1162.27
1163.16
1164.6
1165.84
1141.34
1142.54
1144.85
1147.59
1143.97
1146.19
1146.58
1147.92
1148.38
1150.2
1121.43
1121.9
1121.99
1129.36
1126.27
1128.16
1129.57
1131.28
1132.85
1134.49
1102.41
1102.42
1102.32
1108.48
1107.79
1109.43
1111.35
1113.97
1115.53
1117.14
1086.34
1086.66
1088.2
1091.46
1093.49
1095.02
1095.92
1096.27
1097.47
1099.21
1071.11
1071.97
1073.78
1076.46
1078.96
1079.25
1080.47
1081.71
1083.38
1084.5
1056.98
1057.82
1059.53
1061.18
1062.8
1065.12
1066.13
1065.73
1066.32
1068.69
1043.7
1044.09
1044.68
1044.2
1046.4
1047.99
1048.92
1049.37
1049.82
1051.4
1029.39
1029.63
1029.95
1030.4
1031.03
1031.42
1033.8
1032.36
1034.47
1036.52
1014.25
1015.8
1016.15
1016.7
1017.23
1017.63
1018.21
1019.35
1020.63
1021.69
998.659
1000.1
1001.43
1000.63
1003.72
1004.16
1002.79
1003.37
1004.26
1003.27
981.685
982.789
983.598
983.817
983.928
984.413
985.16
985.549
985.749
985.991
963.821
964.818
965.491
965.873
966.132
966.47
966.954
967.268
967.435
967.709
944.865
945.91
946.762
947.396
947.616
947.922
948.357
948.8
949.135
949.388
925.774
926.757
927.605
928.719
929.562
929.125
929.534
929.937
930.115
930.355
906.634
907.782
908.789
909.793
910.582
910.965
911.278
911.516
911.869
912.223
887.602
888.92
890.078
891.047
891.818
892.567
892.883
893.215
893.475
893.307
868.523
869.964
871.158
872.202
873.128
873.779
874.07
874.259
874.52
874.424
848.771
850.466
851.8
852.982
853.989
854.841
855.417
855.761
855.958
856.02
829.997
831.392
832.731
833.868
834.945
835.934
836.612
836.99
837.174
837.216
812.223
813.312
814.547
815.484
816.517
817.366
817.954
818.26
818.468
818.74
795.443
795.894
796.913
797.559
798.263
798.778
799.09
799.394
799.232
799.307
780.178
780.895
780.591
780.347
780.099
780.574
780.658
780.727
780.845
780.456
763.571
764.433
765.822
764.851
763.16
763.15
763.056
762.698
762.997
763.521
746.53
746.365
746.08
746.191
744.73
744.529
744.472
744.365
744.127
744.342
728.802
728.096
727.18
726.257
725.664
725.336
725.225
725.366
725.426
725.469
712.307
710.593
708.93
707.39
705.947
705.786
705.944
705.878
706.383
706.723
697.724
695.486
692.802
690.026
687.759
686.098
685.585
685.634
686.655
688.323
682.924
680.189
677.158
673.985
671.68
669.24
667.995
667.86
670.622
671.584
666.175
664.024
661.558
659.393
657.148
655.311
658.247
659.372
659.349
657.629
645.151
644.678
644.283
644.006
643.334
643.276
645.736
643.049
642.733
641.078
623.434
622.642
624.731
626.51
627.947
628.345
627.664
627.821
626.551
626.463
612.919
610.156
610.814
612.277
612.5
614.686
617.136
616.608
616.547
615.438
594.904
595.846
596.611
597.173
598.077
602.843
599.011
599.761
597.271
594.234
574.55
577.357
580.142
581.04
579.815
578.443
578.381
578.12
575.784
572.449
546.31
546.631
547.813
549.271
549.517
549.919
550.448
550.2
549.41
548.239
512.605
511.554
509.413
509.23
511.211
514.534
517.568
520.396
522.971
525.196
489.953
490.8
487.373
483.359
481.245
483.984
487.336
491.237
495.265
499.648
473.109
471.501
467.335
464.901
463.691
462.952
461.596
464.995
470.494
475.529
453.63
452.956
450.706
447.273
446.821
451.404
448.744
450.482
453.861
457.551
430.671
433.107
433.355
433.099
434.697
434.091
437.033
441.778
442.662
443.18
409.558
411.59
420.515
418.391
420.088
426.129
430.373
430.501
433.227
436.785
386.899
391.746
402.851
408.134
409.527
412.537
418.175
423.784
427.198
429.953
359.125
365.81
372.04
378.252
385.211
391.456
396.909
400.92
407.068
413.033
330.972
339.167
347.067
354.998
362.85
368.65
374.548
381.467
390.116
397.958
305.479
314.623
323.42
331.571
339.752
345.495
350.549
357.128
363.728
371.962
285.843
293.423
302.671
310.841
318.325
321.616
322.098
322.959
325.748
334.161
271.616
277.703
286.623
294.977
302.505
303.445
300.589
304.623
313.109
312.734
262.121
265.153
272.109
280.046
288.406
289.99
283.681
284.665
285.962
290.812
253.635
256.266
257.828
262.791
267.611
276.308
270.412
271.971
273.849
277.361
248.504
252.041
252.436
256.848
260.691
264.352
267.865
266.603
264.313
261.654
238.616
243.602
249.179
249.571
249.489
255.583
256.394
251.696
244.872
238.295
231.822
235.583
241.491
241.08
239.046
237.195
235.26
230.06
224.184
212.133
225.113
226.652
228.273
233.791
231.004
226.153
220.71
211.552
206.765
197.107
216.99
217.363
213.647
236.034
216.245
205.778
202.44
202.831
201.486
190.364
212.261
212.968
208.075
239.668
219.532
206.852
199.099
201.139
198.362
187.81
213.213
221.831
232.509
241.306
249.123
222.078
205.552
192.435
188.238
179.963
207.848
216.416
224.059
250.788
252.38
228.124
202.657
186.121
170.97
164.664
192.394
202.082
210.911
215.737
239.601
203.098
180.537
159.996
152.721
147.803
174.087
183.223
194.231
208.067
201.238
177.764
154.119
131.182
132.277
135.716
145.307
155.201
173.388
196.197
177.323
174.351
149.343
131.752
134.109
132.57
125.07
135.093
171.921
185.015
178.158
173.048
167.245
143.419
137.795
131.768
121.416
115.203
148.684
160.025
171.459
159.406
164.32
136.976
134.564
129.638
92.7866
82.4673
86.599
90.5979
135.38
129.157
169.776
127.017
132.255
125.264
63.7487
48.4283
46.4901
50.1196
98.4983
95.1745
141.355
119.104
119.523
108.696
45.449
48.8787
42.3761
50.4726
82.6041
67.7147
106.708
93.0407
89.1697
78.3642
45.2344
74.0405
43.2194
56.1247
60.2303
55.5449
77.762
69.9405
57.819
56.189
40.1847
41.0812
32.7425
58.0196
52.7165
55.9122
56.1002
48.9773
29.6947
35.1025
20.6775
16.2978
31.2148
41.8866
44.3962
55.4321
35.4223
33.0768
15.855
15.5187
6.52723
12.2768
19.5578
15.4318
45.6929
38.902
18.3425
17.4433
10.3047
7.56038
2.09726
3.14519
1.22538
1.91166
32.7401
28.7818
3.47267
7.76179
2.87895
-1.52965
-0.407594
-2.27709
-3.80935
-1.73101
26.1375
23.0119
2.16754
4.8189
-0.37954
-1.61493
-1.49116
-0.961353
-1.81004
-3.39177
26.4674
20.1072
0.940243
-0.969751
-1.22863
-1.51723
-1.68957
-2.3104
-0.780277
-3.79369
28.146
16.1476
-1.24398
-1.17145
-1.30184
-1.33313
-1.71615
-1.58206
-1.43479
-2.05708
30.5586
13.0781
-2.44061
-1.30843
-1.31725
-1.37611
-1.67202
-1.70174
-1.69746
-1.75575
29.9943
14.5962
-1.72839
-1.4362
-1.51576
-1.46509
-1.69948
-1.70857
-1.72328
-1.74717
22.1092
21.7799
-1.44162
-1.41231
-1.48933
-1.43091
-1.72291
-1.71712
-1.71745
-1.73728
14.6081
26.0088
-1.38604
-1.35004
-1.35078
-1.40636
-1.74428
-1.73716
-1.7356
-1.75217
13.0123
24.9537
-1.47491
-1.4195
-1.41485
-1.48807
-1.76755
-1.76751
-1.77748
-1.83546
22.2442
13.7486
-1.51306
-1.48357
-1.46408
-1.53189
-1.78026
-1.77864
-1.78237
-1.82378
16.0629
17.1658
-1.61704
-1.54898
-1.53833
-1.56623
-1.79365
-1.79435
-1.79155
-1.84362
13.4033
15.9501
-1.66763
-1.62519
-1.61439
-1.62276
-1.78977
-1.80119
-1.77643
-1.82667
14.4551
10.3619
-1.69962
-1.65745
-1.64846
-1.66092
-1.7963
-1.78546
-1.78977
-1.88604
12.6462
7.35655
-1.76184
-1.67561
-1.68878
-1.68538
-1.81806
-1.81519
-1.81408
-2.04434
7.34443
7.07496
-1.9548
-1.68294
-1.68769
-1.69402
-1.80263
-1.806
-1.81046
-2.13645
4.70198
4.95513
-2.05848
-1.75269
-1.73416
-1.74983
-1.82703
-1.82942
-1.88865
-2.10121
3.15601
2.61668
-1.85588
-1.85962
-1.78374
-1.78351
-1.88449
-1.83404
-2.00042
-1.42863
1.04758
1.47272
-1.70569
-1.96006
-1.81578
-1.81319
-1.93821
-1.85344
-2.23221
-1.41985
-0.0368437
0.446318
-1.13061
-2.19586
-1.84327
-1.84159
-1.89672
-1.85869
-3.13132
-1.15929
-0.452677
-0.554386
-1.58471
-3.34505
-1.85884
-1.86668
-1.94785
-2.35756
-4.78177
-2.73641
-1.16943
-1.02907
-2.30593
-4.44462
-2.33867
-1.89022
-1.99654
-3.9208
-5.42722
-5.6677
-5.87629
-5.9037
-5.74606
-5.49795
-3.95492
-1.91544
-2.78355
-9.6099
-13.0216
-14.9574
-15.4812
-15.4936
-14.9315
-12.9818
-9.61641
-2.75863
1322.64
1326.2
1329.16
1331.73
1333.38
1334.35
1334.8
1334.71
1334.35
1333.9
1333.41
1332.9
1332.12
1331.37
1330.68
1330.33
1329.77
1329.59
1329.35
1329.13
1328.94
1328.79
1328.63
1328.41
1328.17
1327.9
1327.68
1327.73
1327.1
1327.71
1327.89
1328.16
1328.14
1328.89
1329.2
1329.32
1329.81
1330.34
1330.8
1330.86
1300.75
1304.86
1308.03
1310.69
1312.69
1313.84
1314.36
1314.43
1314.09
1313.72
1313.23
1312.48
1311.82
1311.22
1310.75
1310.42
1310.19
1309.71
1309.55
1309.41
1309.25
1309.06
1309.05
1308.69
1308.33
1307.73
1307.27
1307.96
1309.04
1309.29
1309.59
1309.96
1309
1309.18
1309.25
1309.71
1309.93
1310.31
1310.66
1310.77
1276.21
1280.56
1284.34
1287.9
1290.32
1291.83
1292.75
1292.85
1293.11
1292.56
1291.99
1291.47
1291.05
1290.62
1290.26
1290.16
1290.01
1289.85
1289.72
1289.7
1289.62
1289.52
1289.52
1289.54
1289.03
1288.9
1288.22
1289.59
1289.07
1289.94
1290.23
1290.18
1289.9
1289.7
1289.81
1290.28
1290.56
1291.21
1290.98
1291.09
1252.01
1256.73
1259.55
1264.14
1267.03
1268.56
1270.12
1270.65
1270.97
1270.77
1270.27
1269.75
1269.38
1269.53
1269.56
1269.53
1269.67
1269.86
1269.92
1269.92
1270.01
1269.94
1269.83
1270.25
1270.09
1268.99
1268.01
1268.26
1268.83
1269.48
1270.24
1270.36
1270.22
1270.09
1270.23
1271.5
1271.94
1271.36
1271.48
1271.57
1228.3
1232.3
1236.09
1239.85
1242.54
1244.49
1246.65
1247.5
1248.09
1247.93
1247.97
1248.16
1248.37
1248.06
1248.36
1249.15
1249.5
1249.61
1250.3
1250.27
1250.2
1250.2
1250.11
1249.92
1249.77
1250.67
1251.34
1252.08
1250.06
1248.67
1249.12
1249.57
1250.22
1251.41
1251.9
1252.19
1251.63
1251.84
1252.01
1252.09
1205.48
1209.48
1213.11
1215.48
1218.81
1221.55
1223.77
1224.92
1225.61
1225.87
1225.94
1225.95
1226.03
1228.03
1228.72
1228.66
1229.49
1230.02
1230.17
1230.87
1230.92
1231.06
1231.25
1231.44
1231.7
1231.95
1231.59
1230.37
1230.94
1231.1
1230.14
1229.8
1230.81
1231.59
1232.16
1232.18
1232.04
1232.34
1232.83
1232.91
1186.05
1188.72
1190.92
1193.88
1196.56
1199.35
1201.92
1203.16
1204.09
1204.87
1205.47
1206.04
1206.64
1207.32
1209.33
1209.61
1210.24
1210.66
1211.05
1211.38
1211.91
1212.18
1212.1
1212.32
1212.53
1212.78
1212.7
1212.66
1212.04
1212.07
1211.62
1212.18
1212.21
1212.9
1212.87
1212.93
1212.95
1213.27
1213.62
1213.75
1168
1169.35
1170.11
1172.59
1178.79
1181.37
1181.67
1182.73
1184.16
1185.34
1186.32
1187.16
1187.91
1188.69
1189.42
1192.69
1191.55
1191.35
1191.9
1192.31
1192.64
1193.23
1193.39
1193.48
1193.8
1193.8
1193.89
1194.99
1195.63
1195.79
1195.73
1195.52
1194.42
1194.65
1194.54
1194.3
1194.29
1194.26
1194.07
1194.96
1152.09
1152.26
1155.85
1158.56
1161.61
1164.02
1165.64
1165.34
1165.58
1166.71
1167.68
1168.58
1169.35
1170.32
1171.18
1172.8
1174.22
1172.13
1172.94
1173.46
1173.9
1174.23
1174.54
1174.45
1175.18
1175.3
1175.62
1177.87
1178.8
1178.84
1178.88
1177.44
1176.89
1176.56
1176.32
1176.15
1175.92
1175.78
1174.89
1176.17
1135.95
1137.1
1141.31
1144.36
1146.85
1148.96
1149.91
1148.11
1148.09
1148.75
1149.42
1150.37
1150.98
1151.95
1152.65
1153.29
1158.74
1153.89
1154.46
1154.88
1155.21
1155.49
1155.87
1155.81
1156.56
1156.71
1157.52
1157.63
1157.82
1158.03
1158.14
1158.2
1157.91
1157.68
1157.28
1157.14
1157.16
1157.4
1157.38
1158.08
1118.39
1119.91
1121.75
1124.81
1129.13
1130.79
1130.71
1130.13
1130.32
1130.7
1131.07
1132.01
1132.59
1133.38
1133.76
1133.96
1139.65
1135.71
1136.22
1136.46
1136.7
1136.97
1137.47
1137.39
1137.78
1138.15
1138.42
1138.71
1138.9
1139.22
1138.91
1138.84
1138.59
1138.42
1138.64
1138.81
1139.93
1140.45
1139.21
1140.41
1100.47
1100.32
1102.76
1106.09
1108.58
1110.13
1110.95
1111.32
1111.65
1112.25
1112.89
1113.65
1113.95
1114.83
1115.1
1115.32
1118.98
1117.13
1117.72
1117.91
1118.12
1118.41
1118.91
1118.65
1119.01
1119.34
1119.61
1119.81
1119.96
1120.27
1120.21
1120.03
1120.7
1120.94
1121.02
1121.21
1121.45
1120.92
1120.86
1121.14
1085.84
1086.28
1085.82
1087.62
1089.35
1090.72
1091.62
1092.49
1093.44
1094.18
1094.88
1095.58
1095.69
1096.16
1096.37
1096.63
1099.16
1097.86
1098.56
1099.08
1099.41
1099.68
1100.13
1099.9
1100.24
1100.53
1100.8
1101.1
1101.46
1101.75
1101.68
1102.1
1102.55
1102.66
1102.55
1102.4
1102.22
1102.23
1102.12
1102.27
1069.67
1069.73
1069.57
1070.17
1070.79
1071.6
1072.83
1074.15
1075.29
1076.35
1077.72
1077.85
1078.12
1077.92
1078.06
1078.55
1079.45
1079.74
1079.79
1080.3
1081.02
1080.77
1081.25
1081.2
1081.48
1081.74
1081.89
1081.88
1081.86
1082.12
1082.38
1082.5
1083.27
1084.67
1083.23
1083.26
1083.1
1082.92
1082.94
1082.94
1053.39
1053.74
1052.18
1051.99
1052.44
1053.26
1054.64
1055.97
1057.14
1058.17
1059.14
1059.86
1059.99
1060.64
1061.73
1062.24
1062.68
1062.68
1062.28
1061.79
1062.62
1062.32
1062.7
1062.65
1062.93
1063.13
1063.26
1063.2
1063.54
1064.15
1063.57
1063.87
1063.49
1063.29
1063.47
1063.41
1063.59
1063.52
1063.59
1063.56
1035.58
1035.03
1035.17
1034.41
1034.68
1035.17
1036.43
1037.6
1038.5
1038.99
1039.73
1040.8
1041.76
1043.27
1045.34
1045.86
1045.95
1045.69
1044.85
1043.94
1043.87
1044.05
1044.23
1044.28
1044.43
1044.49
1044.54
1044.46
1045.07
1045.31
1043.73
1045.01
1044.01
1044.28
1044.14
1044.12
1044.29
1044.23
1044.27
1044.25
1022.62
1023.34
1020.77
1019.93
1020.16
1020.91
1021.31
1021.06
1021.1
1020.61
1020.57
1021.02
1022.74
1024.39
1025.95
1027.48
1028.62
1026.76
1026.17
1025.95
1025.45
1025.5
1025.55
1025.5
1025.55
1025.6
1025.43
1025.08
1025.67
1026.23
1024.2
1024.33
1023.45
1023.83
1024.2
1024.23
1024.48
1024.67
1024.74
1024.82
1003.31
1003.87
1004.34
1004.81
1004.91
1005.81
1007.19
1007.29
1007.24
1005.91
1004.47
1003.79
1004.97
1005.97
1006.63
1006.83
1006.75
1006.77
1006.75
1006.49
1006.31
1006.5
1006.39
1006.48
1006.49
1006.36
1006.03
1005.52
1005.06
1004.3
1002.9
1002.45
1002.1
1002.73
1004.32
1003.89
1004.58
1005.08
1005.4
1005.6
986.269
986.64
987.072
987.526
987.936
988.425
988.925
989.255
989.044
989.155
987.971
986.883
987.066
987.359
987.609
987.67
987.496
987.256
987.022
986.94
986.995
987.095
987.103
987.086
986.899
986.74
986.467
986.009
985.556
984.659
983.955
983.782
983.71
983.73
984.475
985.1
985.8
986.282
986.661
986.867
968.004
968.365
968.764
969.164
969.552
969.924
970.287
970.584
970.529
970.117
969.396
968.904
968.684
968.536
968.481
968.358
968.235
968.33
967.148
966.99
966.941
967.171
967.368
967.281
967.11
967.06
966.987
966.912
966.961
966.661
966.528
966.28
966.84
967.489
966.652
967.229
967.77
968.228
968.577
968.8
949.677
950.028
950.347
950.632
950.787
950.967
951.172
951.324
951.32
951.08
950.62
950.189
949.85
949.658
949.582
949.518
949.458
949.16
948.251
948.155
947.594
947.991
947.488
947.054
946.893
947.009
947.226
947.711
948.238
948.607
948.765
948.677
953.033
951.86
949.467
949.853
950.253
950.598
950.86
951.04
930.653
930.952
931.26
931.537
931.696
931.88
931.919
932.05
932.058
931.922
931.665
931.387
931.086
930.925
931.039
931.184
931.031
930.753
929.266
928.445
930.406
927.827
927.132
926.432
926.389
927.126
928.029
928.931
929.685
930.371
930.875
930.923
933.655
932.336
931.813
932.269
932.7
933.035
933.266
933.458
912.511
912.292
912.394
912.582
912.884
913.076
913.207
913.251
913.035
912.943
912.754
912.594
912.388
912.214
912.947
912.668
913.095
911.975
911.222
911.956
912.34
910.556
909.535
908.22
908.253
908.798
909.755
910.815
911.476
911.848
912.637
914.106
914.573
914.587
914.345
914.763
915.109
915.379
915.581
915.682
893.558
893.73
893.862
893.847
894.153
894.365
894.412
894.306
894.128
893.931
893.848
893.911
893.898
894.182
894.35
894.367
894.971
894.605
894.271
894.959
895.127
894.58
893.11
894.104
893.342
895.04
895.436
896.202
896.729
897.118
897.443
897.803
897.706
897.179
897.052
897.116
897.239
897.405
897.52
897.56
874.677
874.888
874.883
875.244
875.065
875.19
875.267
875.291
875.271
875.194
875.275
875.575
875.688
876.088
876.1
875.976
876.567
876.561
877.702
878.063
878.169
877.776
876.066
876.825
876.194
876.296
876.92
877.594
878.334
879.235
879.671
879.59
879.494
879.017
878.735
878.601
878.591
878.708
878.855
878.886
856.207
856.377
856.408
856.352
856.328
856.245
856.181
856.154
856.178
856.306
856.587
856.913
857.177
857.045
856.785
856.854
857.802
858.245
858.707
859.677
859.906
858.951
857.759
857.814
857.641
858.054
858.526
858.891
859.292
859.63
860.084
860.319
860.166
859.861
859.615
859.442
859.376
859.698
859.792
859.75
837.263
837.464
837.552
837.541
837.564
837.407
837.064
836.876
836.783
836.769
837.01
836.879
836.979
836.222
836.129
837.139
838.255
838.764
839.123
839.372
839.352
839.216
838.948
838.914
838.936
839.187
839.474
839.748
840.05
840.341
840.621
840.706
840.581
840.397
840.358
840.25
840.1
840.653
840.58
840.825
818.857
818.972
819.011
818.855
818.985
818.448
817.862
817.51
817.247
817.199
817.543
817.79
817.836
816.756
817.61
819.071
819.1
819.696
820.061
820.234
820.304
820.271
820.085
820.081
820.123
820.256
820.421
820.614
820.824
820.988
821.148
821.217
821.034
821.107
821.271
821.35
821.405
821.529
821.391
821.759
799.498
799.601
799.708
799.732
799.824
799.274
798.777
798.283
797.923
798.148
799.227
800.464
801.453
800.886
801.848
802.089
801.457
801.458
801.455
801.413
801.412
801.389
801.263
801.22
801.241
801.296
801.372
801.481
801.596
801.685
801.817
801.821
801.792
802.209
802.355
802.415
802.469
802.57
802.316
802.433
780.706
780.852
780.871
780.711
780.724
780.372
780.226
780.289
780.561
781.069
781.853
782.63
783.45
784.112
785.08
784.23
784.114
784.028
782.816
782.667
782.608
782.509
782.38
782.313
782.274
782.233
782.203
782.192
782.222
782.216
782.2
782.21
782.258
782.485
782.709
782.854
782.972
782.985
782.886
782.939
762.427
761.51
761.382
761.29
761.514
761.863
762.128
762.272
762.643
763.173
763.559
763.869
764.131
764.438
766.091
763.83
764.812
764.421
764.792
764.651
763.7
763.587
763.478
763.337
763.218
763.071
762.918
762.787
762.765
762.683
762.551
762.501
762.499
762.643
762.886
763.122
763.316
763.445
763.461
763.514
744.65
744.136
742.807
741.471
742.277
742.62
742.828
743.147
744.314
745.531
745.489
746.009
746.12
746.837
747.227
746.913
745.842
746.783
746.142
745.935
745.445
744.875
744.413
744.292
744.107
743.846
743.53
743.308
743.212
743.029
742.932
742.887
742.929
743.019
743.254
743.566
743.818
744.019
744.107
744.188
725.207
725.424
724.88
724.569
724.4
724.728
725.005
726.27
727.554
728.243
729.233
729.463
728.326
728.475
727.832
727.725
727.452
726.813
727.116
726.639
726.205
725.789
725.35
725.037
724.732
724.473
724.187
723.891
723.653
723.535
723.453
723.445
723.505
723.625
723.871
724.233
724.483
724.792
724.914
724.977
706.757
706.453
705.656
705.333
705.175
706.659
707.711
707.547
708.376
708.764
708.639
708.341
708.635
708.834
708.297
707.621
706.959
706.749
706.126
706.571
706.281
705.802
705.816
705.618
705.344
704.961
704.747
704.483
704.243
704.001
703.893
703.954
704.099
704.287
704.586
704.981
705.325
705.673
705.881
705.955
689.129
688.932
686.786
685.167
685.143
686.566
688.115
690.562
691.415
692.085
691.869
691.638
691.244
689.864
688.569
687.637
687.144
686.552
686.101
686.355
686.334
686.282
686.322
686.355
686.223
685.532
685.267
684.995
684.742
684.524
684.211
684.171
684.499
684.901
685.336
685.839
686.29
686.696
686.991
687.115
671.694
671.58
669.335
667.51
666.862
670.504
672.523
672.243
672.729
672.226
671.575
671.54
671.455
670.908
670.575
669.816
668.771
668.238
667.743
667.213
666.853
666.7
666.706
667.928
667.219
665.93
665.721
665.56
665.292
664.91
664.577
664.69
665.169
665.71
666.266
666.881
667.402
667.871
668.227
668.354
658.265
657.957
655.345
656.753
656.528
656.774
657.187
656.784
654.923
653.916
653.419
652.986
652.418
651.833
651.575
651.183
650.707
649.988
649.617
648.685
648.045
647.652
647.303
646.932
646.622
646.183
645.954
646.261
646.629
646.735
647.706
646.045
646.344
646.963
647.548
648.146
648.647
649.065
649.37
649.524
640.07
640.42
641.292
641.694
643.083
642.386
641.522
640.347
638.074
635.597
634.765
634.083
633.564
633.268
632.989
632.452
631.729
631.142
630.037
629.319
628.317
628.19
627.897
627.732
627.265
626.52
626.726
627.262
628.073
629.066
629.545
628.976
628.483
628.825
629.282
629.769
630.116
630.191
630.409
630.546
627.8
622.366
622.942
624.263
622.473
622.34
621.648
619.023
617.532
616.033
614.875
615.419
615.247
614.176
613.71
612.545
611.374
610.412
609.285
607.764
607.608
608.716
608.742
608.394
608.814
607.974
609.577
610.523
610.805
611.181
611.497
610.967
610.493
610.738
611.156
611.543
611.708
611.609
611.416
611.603
612.565
607.268
604.082
603.521
602.566
601.664
600.809
599.142
597.206
595.785
595.081
594.537
593.515
594.005
593.508
594.559
594.246
589.771
590.159
591.303
590.334
590.68
590.566
590.501
591.184
590.383
592.205
592.968
592.654
592.293
592.568
592.377
592.222
592.237
592.326
592.853
592.99
592.615
592.533
593.173
589.986
587.056
584.422
583.057
582.282
581.708
580.442
578.132
574.377
570.264
570.39
573.302
575.576
576.645
575.213
572.381
575.498
572.873
573.166
574.496
573.594
573.084
573.432
573.276
572.61
572.841
572.611
572.846
573.12
573.46
573.015
572.564
572.557
572.834
573.109
573.583
573.556
573.174
573.099
575.716
568.553
565.202
563.257
562.515
562.496
563.073
563.042
561.679
561.046
562.408
562.179
563.15
563.965
561.247
561.441
560.474
561.521
553.564
552.781
553.215
553.205
552.932
553.535
554.706
554.417
553.997
553.043
552.155
549.169
551.118
551.956
553.35
553.739
553.678
553.68
553.955
554.305
554.342
553.797
557.58
546.738
545.831
546.057
547.003
550.686
555.178
555.01
554.801
554.05
552.822
550.919
545.869
546.042
544.503
543.166
540.755
537.817
531.627
528.586
528.123
528.62
530.326
532.264
534.249
535.025
534.632
532.496
531.079
531.588
533.105
533.523
534.475
535.214
535.514
535.728
535.821
536.361
536.77
535.272
538.478
527.285
529.306
531.439
533.979
540.79
544.24
544.506
542.811
540.493
537.598
533.102
530.631
529.041
525.852
521.823
516.538
511.213
502.003
497.84
498.777
502.008
505.573
508.947
511.175
512.202
512.802
511.583
510.525
513.665
515.397
516.713
517.076
516.598
517.359
517.504
517.435
516.994
519.98
516.759
516.842
504.034
508.484
512.969
517.195
519.85
524.581
528.335
526.273
526.177
524.341
519.515
513.886
511.753
505.243
502.101
497.161
488.408
482.683
486.015
481.025
481.789
484.69
487.165
487.533
488.749
494.708
487.92
491.603
494.189
495.753
497.74
498.811
500.32
501.009
501.006
501.23
500.149
501.218
500.035
501.112
480.454
486.248
492.012
497.453
502.18
505.242
506.751
507.73
507.741
505.38
501.087
497.898
493.829
489.425
484.807
485.132
473.286
470.642
469.993
469.392
468.5
468.065
469.343
468.175
468.737
468.472
467.51
468.511
471.412
474.395
476.905
478.528
479.139
479.435
480.065
480.946
481.947
480.98
481.507
482.101
462.091
467.961
473.949
482.235
484.285
490.169
492.79
492.739
490.849
487.409
484.07
481.052
477.326
473.479
469.166
468.637
460.881
458.547
457.905
457.318
456.573
454.354
453.216
451.944
449.184
449.016
448.944
450.266
450.406
452.359
455.914
457.848
458.9
459.741
460.563
461.22
461.946
462.848
463.371
464.085
445.006
450.289
460.199
467.914
471.55
479.372
482.605
480.975
478.124
474.522
469.873
464.276
461.192
457.46
453.081
452.772
447.357
447.122
445.563
444.774
443.583
441.064
439.873
438.886
432.549
433.953
434.479
433.663
431.457
433.509
435.611
437.016
438.639
439.736
440.702
441.525
442.437
443.284
443.879
445.905
439.751
442.276
444.902
454.189
461.174
469.194
469.546
469.494
466.796
462.663
457.068
450.111
445.383
440.348
438.22
433.841
433.102
432.392
431.065
429.974
428.425
425.367
422.572
421.623
420.054
417.814
416.306
415.649
415.232
414.294
418.067
420.586
418.775
419.964
421.508
421.876
422.542
423.484
424.172
424.665
430.869
431.063
432.224
446.698
453.274
457.503
463.433
455.818
457.62
449.963
447.014
436.845
428.934
422.48
416.799
412.437
411.161
412.228
413.259
411.246
409.29
409.337
409.386
404.26
399.631
400.192
401.487
401.819
401.361
398.602
400.507
401.355
401.589
402.027
402.654
403.98
403.457
404.097
404.454
405.458
416.628
422.701
422.1
429.39
441.936
442.803
473.145
444.325
444.706
435.721
436.274
419.301
409.893
401.967
395.345
391.146
388.84
389.039
390.152
392.857
389.893
388.575
390.364
390.771
387.369
381.493
378.047
377.595
378.237
377.874
377.568
379.404
377.893
379.697
382.683
387.183
388.313
388.243
387.512
388.818
404.357
404.693
412.493
408.343
426.969
428.612
442.358
443.311
424.593
419.522
409.23
390.835
384.615
378.33
370.111
363.206
358.728
357.246
359.886
360.118
363.351
367.892
372.157
370.548
366.007
360.351
358.626
357.349
355.893
352.688
360.962
363.106
366.107
366.017
366.683
372.561
371.157
374.888
375.32
372.874
380.516
382.687
399.776
401.682
405.1
415.845
413.083
420.235
419.94
411.8
394.918
370.587
358.148
346.935
326.736
312.485
317.646
321.664
322.682
323.772
327.618
333.132
338.439
341.142
336.835
332.75
336.469
341.08
340.055
340.291
340.004
341.858
342.279
345.991
349.218
351.876
352.742
353.331
355.589
355.267
353.645
366.872
380.627
386.676
386.047
389.484
398.088
402.571
400.139
389.328
373.154
349.033
326.445
317.705
306.288
287.136
285.167
279.44
270.998
277.463
289.57
300.156
308.098
313.577
314.188
319.519
323.457
324.769
323.467
324.134
327.119
328.7
328.554
329.992
333.41
336.004
338.512
339.79
339.984
341.078
316.364
347.353
360.641
366.348
370.792
369.148
362.785
367.234
367.389
358.257
337.801
314.543
306.049
295.956
282.058
269.254
266.441
269.399
272.023
270.51
270.553
279.145
286
293.185
299.509
308.637
314.393
314.704
314.305
315.52
318.766
322.596
324.19
323.318
323.366
320.51
322.186
324.313
324.623
325.895
297.242
320.743
335.262
339.732
339.345
342.097
340.348
326.916
319.214
311.386
300.463
288.098
272.482
259.083
258.457
259.493
259.371
259.099
259.417
260.306
262.856
263.977
266.144
275.621
285.604
293.005
298.628
305.525
309.241
311.999
313.27
314.717
314.821
312.844
312.487
314.451
312.066
309.72
308.998
310.739
277.493
285.206
293.008
295.115
295.949
295.069
296.746
282.611
271.16
261.387
254.768
251.326
244.223
235.878
236.696
240.436
243.313
246.637
248.335
249.463
251.126
253.028
256.216
257.143
266.723
276.807
284.047
292.802
299.953
309.288
309.141
306.916
307.118
305.375
304.732
306.881
308.43
307.042
304.004
303.772
254.829
251.566
251.381
249.974
246.829
241.693
233.593
222.513
210.11
199.62
192.772
191.89
196.386
200.2
206.117
214.806
222.585
230.085
234.353
237.58
240.032
242.596
245.176
246.777
248.886
256.092
268.472
282.408
295.013
297.25
298.048
298.75
297.305
295.76
293.024
290.658
288.795
290.697
290.874
290.104
230.384
222.274
216.103
210.134
200.308
187.759
171.756
150.708
130.78
117.931
115.545
120.88
132.471
143.826
157.54
175.081
191.185
204.717
215.305
221.836
227.39
230.932
234.625
237.933
240.442
244.79
255.833
269.568
279.582
282.829
292.967
291.376
288.291
288.162
275.836
275.97
273.572
274.685
277.4
277.342
204.034
198.478
188.776
174.842
159.242
140.502
114.391
88.6836
75.1481
75.155
76.8594
75.7717
73.6784
80.2507
99.5663
125.667
146.708
165.054
182.902
199.071
210.608
217.958
222.53
226.881
230.536
232.458
242.313
257.431
265.906
269.326
279.693
275.237
270.067
266.532
263.475
261.478
259.892
259.477
258.951
261.094
188.894
178.939
166.25
150.379
131.386
107.643
79.158
71.9086
67.7738
65.8556
65.8858
65.6228
65.3628
68.257
71.7227
83.2676
106.506
128.94
149.18
168.091
186.736
201.768
209.667
215.071
218.233
219.299
230.499
244.271
252.576
256.229
263.518
250
250.573
237.669
251.446
235.002
240.735
242.663
243.509
244.413
179.049
167.188
153.706
136.581
115.508
90.8808
66.7739
65.7102
64.5526
63.9049
63.7223
62.0893
61.1845
64.3042
70.4212
75.905
81.4538
96.8782
117.181
136.34
154.168
172.448
186.475
209.211
209.435
201.543
213.591
225.174
232.721
235.437
244.038
229.482
230.383
211.598
221.811
217.883
220.096
225.946
229.09
230.963
173.99
159.559
144.531
127.45
106.927
85.7171
65.2738
63.051
62.9498
62.0096
62.0333
61.9299
62.4893
64.6591
69.6489
73.8443
81.9361
83.9916
92.5121
105.942
120.608
135.737
150.809
165.732
174.726
182.256
192.437
203.297
210.609
210.992
219.241
210.927
205.07
203.598
196.141
194.556
201.949
209.571
213.03
217.365
167.582
153.423
137.974