/*--------------------------------*- C++ -*----------------------------------*\
  =========                 |
  \\      /  F ield         | OpenFOAM: The Open Source CFD Toolbox
   \\    /   O peration     | Website:  https://openfoam.org
    \\  /    A nd           | Version:  8
     \\/     M anipulation  |
\*---------------------------------------------------------------------------*/
FoamFile
{
    version     2.0;
    format      ascii;
    class       volScalarField;
    location    "6.8";
    object      p_rgh;
}
// * * * * * * * * * * * * * * * * * * * * * * * * * * * * * * * * * * * * * //

dimensions      [1 -1 -2 0 0 0 0];

internalField   nonuniform List<scalar> 
9150
(
1963.65
1962.62
1962.01
1961.55
1961.3
1961.3
1961.54
1962
1962.62
1963.65
1963.22
1962.69
1962.27
1961.96
1961.78
1961.78
1961.94
1962.27
1962.69
1963.21
1962.94
1962.65
1962.4
1962.17
1962.07
1962.07
1962.18
1962.39
1962.65
1962.94
1962.82
1962.64
1962.47
1962.32
1962.24
1962.22
1962.31
1962.47
1962.64
1962.82
1962.82
1962.64
1962.5
1962.37
1962.31
1962.3
1962.37
1962.5
1962.64
1962.82
1951.8
1951.05
1951.39
1951.75
1951.93
1951.93
1951.74
1951.39
1951.05
1951.8
1955.91
1955.2
1955.09
1955.02
1955.11
1955.11
1955.01
1955.07
1955.18
1955.89
1959.06
1958.3
1958.03
1957.65
1957.59
1957.57
1957.64
1958.01
1958.28
1959.05
1961.79
1960.61
1960.16
1959.53
1959.37
1959.38
1959.56
1960.19
1960.63
1961.81
1964.36
1962.27
1961.52
1960.82
1960.53
1960.55
1960.83
1961.52
1962.27
1964.36
1947.35
1945.7
1943.64
1942.62
1941.94
1941.96
1942.58
1943.58
1945.61
1947.19
1946.42
1946.08
1945.02
1944.62
1944.18
1944.17
1944.6
1945
1946.02
1946.34
1945.77
1945.98
1944.88
1945.35
1944.76
1944.74
1945.34
1944.85
1945.94
1945.73
1942.59
1945.51
1944.47
1946.01
1945.88
1945.86
1946.03
1944.45
1945.5
1942.58
1936.74
1946.23
1946.69
1948.07
1948.51
1948.5
1948.07
1946.67
1946.21
1936.72
1309.86
1309.99
1310.62
1311.65
1313.12
1315.08
1317.16
1321.54
1324.1
1328.18
1308.41
1309.02
1309.66
1310.49
1311.78
1313.39
1315.77
1318.98
1322.47
1326.37
1306.38
1306.22
1306.4
1306.71
1307.74
1309.03
1311.65
1314.5
1317.54
1320.65
1302.18
1301.19
1300.49
1301.37
1299.07
1303.05
1304.58
1310.04
1312.86
1314.67
1301.34
1293.27
1286.81
1288.88
1290.48
1301.13
1305.32
1307.5
1309.68
1312.15
1282.39
1281.89
1283.17
1285.04
1295.94
1305.98
1306.57
1306.73
1307.93
1310.35
1281.34
1281.77
1282.57
1283.23
1302.39
1306.94
1305.67
1302.95
1304.44
1306.69
1300.26
1281.33
1282.2
1282.74
1303.81
1305.23
1302.36
1303.28
1304.76
1307.53
1307.73
1308.9
1289.93
1289.74
1306.18
1309.93
1305.33
1306.77
1311.12
1315.55
1307.39
1307.86
1307.06
1291.72
1308.56
1313.1
1314.21
1316.29
1318.74
1320.37
1307.95
1307.95
1297.39
1286.42
1292.99
1306.73
1313.98
1319.42
1320.99
1322.59
1311.45
1311.72
1295.75
1286.37
1288.37
1290.02
1291.71
1299.68
1307.13
1306.29
1315.79
1316.65
1313.03
1292.59
1290.88
1294.43
1294.45
1295.15
1296.81
1298.1
1321.13
1321.01
1321.91
1320.7
1320.17
1324.81
1324.52
1311.47
1304.99
1310.24
1272.64
1273
1273.59
1296.33
1320.56
1327.79
1328.72
1329.17
1327.71
1323.78
1274.09
1274.33
1274.65
1275.1
1275.74
1277.86
1307.2
1292.43
1279.26
1281.33
1287.15
1276.29
1276.64
1277.19
1277.72
1278.12
1278.71
1279.87
1281.2
1282.28
1341.08
1342.46
1343.61
1311.58
1280
1280.45
1300.36
1305.08
1293.18
1309.32
1343.67
1344.78
1345.58
1345.63
1345.05
1345.33
1346.12
1346.84
1346.96
1347.61
1345.37
1346.37
1347.04
1347.43
1347.68
1348.02
1348.5
1348.81
1348.98
1349.25
1345.99
1347.03
1347.75
1346.92
1347.55
1349.02
1349.47
1349.91
1350.25
1350.5
1346.46
1347.44
1348.17
1340.56
1338.81
1344.02
1348.35
1349.92
1349.11
1349.86
1346.89
1348.04
1348.97
1341.42
1338.83
1339.21
1339.53
1340.19
1340.24
1340.59
1347.42
1348.74
1349.9
1350.87
1344.17
1339.85
1340.17
1340.55
1340.87
1345.73
1347.91
1349.35
1350.54
1351.59
1352.51
1352.98
1352.71
1350.22
1349.11
1351.83
1346.56
1349.42
1350.75
1351.94
1352.94
1353.79
1354.36
1354.71
1352.07
1348.23
1307.16
1349.54
1351.25
1352.39
1353.46
1354.45
1355.13
1355.5
1355.68
1355.28
1271.12
1330.73
1352.63
1353.57
1354.6
1355.45
1356.03
1356.07
1356.12
1356.62
1271.03
1286.32
1343.19
1353.22
1355.77
1356.42
1356.36
1354.96
1356.52
1356.76
1272.49
1273.48
1293.35
1322.96
1354.86
1357.78
1357.86
1353.02
1349.19
1353.1
1292.78
1288.46
1287.02
1296.96
1352.88
1359.92
1359.82
1358.85
1334.4
1328.77
1361.44
1361.28
1336.11
1335.1
1351.94
1360.85
1360.8
1360.68
1352.32
1331.55
1363.23
1362.53
1361.6
1360.66
1358.44
1360.74
1360.74
1361.13
1360.48
1359.38
1366.25
1364.17
1362.07
1361.3
1358.57
1350.95
1352.04
1358.27
1360.97
1361.22
1364.8
1355.12
1351.56
1348.89
1347.32
1347.6
1353.91
1357.42
1357.89
1353.01
1360.9
1358.36
1355.09
1353.72
1361.64
1358.38
1346.58
1318.68
1313.2
1338
1378.82
1376.67
1374.2
1372.02
1369.55
1328.74
1185.02
1183.72
1183.66
1320.37
1377.3
1376.84
1376.43
1376.06
1365.48
1217.25
1185.21
1192.64
1344.71
1344.7
1315.11
1364.04
1376.3
1378.09
1379.39
1353.44
1201.82
1174.22
1172.94
1172.86
1165.37
1300.66
1381.91
1383.33
1369.74
1228.87
1179.46
1177.18
1177.14
1176.27
1379.42
1386.27
1387.18
1387.53
1337.05
1275.63
1325.45
1352.74
1308.5
1305.03
1384.19
1387.22
1389.85
1386.84
1387.81
1387.35
1387.19
1386.87
1384.49
1381.11
1375.43
1375.91
1376.96
1378.26
1378.25
1378.43
1378.84
1378.5
1377.63
1376.41
1318.45
1297.01
1318.9
1349.18
1358.85
1362.42
1365.35
1368.09
1370.6
1372.64
1069.5
1041.11
1037.92
1065.35
1305.91
1348.22
1354.49
1358.3
1362.07
1366.13
1038.15
1034.18
1030.02
1027.82
1028.81
1097.05
1327.96
1350.84
1356.44
1361.45
1282.37
1281.47
1279.35
1273.02
1103.11
1084.57
1112.34
1305.43
1358.88
1362.18
1277.3
1279.67
1279.73
1277.1
1275.24
1251.07
1252.39
1273.81
1264.13
1175.05
1257.4
1147.84
1074.61
1128.47
1114.32
1021.18
994
1037.27
1001.63
952.255
1213.66
1122.39
1036.28
1040.18
1043.48
1051.34
962.201
918.459
909.745
904.079
1342.76
1349.45
1355.68
1344.08
1368.85
1375.09
1363.37
1290.56
1240.51
1177.3
1334.09
1342.29
1350.19
1358.12
1365.97
1371.77
1377.66
1384.52
1392.8
1399.72
1328.08
1337.22
1346.02
1354.17
1362.35
1368.09
1373.13
1379.34
1384.94
1391.94
1324.11
1335.5
1344.74
1352.89
1360.38
1363.68
1361.82
1299.77
1205.38
1216.99
1331.35
1339.25
1348.15
1356.32
1363.91
1364.87
1148.63
802.386
636.662
696.149
1342.61
1346.12
1352.9
1357.61
1366.55
1336.99
750.359
581.373
582.69
587.561
1352.06
1356.23
1355.18
1046.08
953.692
992.526
576.436
572.669
575.903
584.133
1288.79
1306.38
1029.53
576.12
530.083
571.838
570.511
572.151
588.354
1070.01
1168.94
993.584
539.204
523.648
523.565
529.659
577.364
704.527
1162.31
1373.04
1225.47
885.341
521.395
520.055
517.808
717.579
1111.04
1120.4
1332.14
1367.68
1240.15
1043.8
619.786
518.4
514.667
1144.19
1175.07
1127.43
1094.77
1326.73
1390.86
1314.35
968.343
531.084
792.238
1178.5
1176.68
1016.7
1013.11
1257.9
1424.85
1425.48
1315.05
584.065
855.318
1202.36
1200.46
1025.96
1022.5
1247.47
1445.13
1453.32
1460.82
771.751
770.731
1226.8
1247
1051.73
1026.26
1301.52
1449.16
1398.05
1155.1
750.589
876.248
1315.67
1272.99
1043.84
1115.5
1389
1037.19
1047.02
1118.43
1002.8
1363.97
1344.13
969.702
1024.67
1368.51
1420.35
1030.48
1163.17
1181.26
907.602
1379.12
1343.6
946.664
1238.34
1424.28
1427.72
1189.05
1198.32
1205.23
837.87
1377.12
1267.43
952.123
1435.39
1445.54
1444
1183.64
1135.21
721.083
1020.81
1410.4
1236.19
988.929
1474.22
1468.65
1462.57
1193.47
754.8
530.228
979.16
1421.71
1262.24
820.386
1486.94
1484.8
1479.37
1008.27
469.501
473.495
505.523
1403.64
1265.57
534.9
1293.61
1499.59
1398.43
862.243
463.542
438.882
493.411
1384.75
1250.61
511.18
791.654
1441.34
1313.38
374.403
966.691
533.654
505.981
1386.85
1222.18
481.705
622.596
1307.31
1191.87
706.41
1413.8
774.653
479.027
1382.47
1222.11
457.932
487.794
1191.95
1315.59
1421.68
1425.9
890.191
415.103
1393.58
1314.6
441.504
457.892
1097.64
1323.14
1448.26
1094.51
475.918
380.51
1403.71
1362.54
436.62
410.008
784.447
856.681
832.416
274.299
283.416
350.603
1426.88
1376.3
392.478
391.758
546.779
313.507
224.382
228.484
302.091
322.524
1431.38
1389.65
357.05
524.614
535.547
221.101
179.128
250.331
305.617
320.257
1459.08
1415.6
359.524
520.199
311.419
15.1909
62.0522
225.428
144.198
334.03
1492.41
1459.59
353.348
356.493
75.7576
5.03995
13.0229
51.7734
0.818188
360.45
1520.4
1500.53
352.246
83.2478
20.3745
1.47721
2.13647
0.0362656
0.168595
409.074
1554.47
1531.25
392.083
0.527041
17.0336
1.14622
0.0749519
-0.0786831
-0.0745
448.705
1581.51
1564.3
433.112
0.41341
15.0304
0.264468
-0.00244944
-0.0658191
-0.080862
501.371
1602.57
1604.01
500.274
0.446129
8.31907
0.305966
0.01114
-0.0526312
-0.0553929
558.412
1625.31
1638.53
569.701
0.524242
0.531511
1.28541
-0.0624459
-0.0555672
-0.0539203
627.612
1652.72
1665.57
641.979
0.477129
0.488819
2.09536
-0.0662882
-0.0662447
-0.0762133
723.731
1691.08
1681.7
712.195
0.435075
0.454728
1.39284
-0.0592885
-0.0577136
-0.0612025
810.912
1711.04
1712.26
812.611
0.392013
0.671764
1.07277
-0.00284637
0.178385
-0.0489182
925.763
1733.86
1736.07
928.595
0.342592
1.76101
0.805689
0.800691
0.708977
-0.00162803
1047.98
1759.36
1754.4
1045.27
0.350557
1.76541
0.473101
0.376226
-0.00385238
-0.00636195
1193.33
1779.99
1774.58
1188.15
0.299065
0.772936
0.139794
-0.0167991
-0.0139294
-0.012814
1340.98
1797.31
1797.05
1341.14
0.119021
0.112016
0.818479
0.018324
0.0149523
40.554
1491.57
1816.09
1816.34
1491.95
42.8583
0.0852175
0.522357
0.0368839
0.0115613
189.406
1619.15
1836.21
1835.36
1618.6
191.466
0.053036
0.0594051
1.49054
0.0294847
392.413
1752.69
1854.07
1855
1753.08
403.651
0.0383432
0.0409031
2.14366
0.0765916
697.998
1832.34
1873.46
1873.91
1849.51
769.669
0.0306132
0.0321153
1.08164
0.455761
1233.86
1891.98
1892.75
1892.69
1891.55
1226.05
0.0450767
0.0266456
0.540819
131.463
1638.9
1910.12
1911.77
1911.91
1910.56
1667.7
161.88
0.0227265
0.0312605
1062.42
1925.02
1926.89
1926.69
1926.67
1926.81
1925.66
1091.69
0.0171291
584.86
1865.39
1939.17
1937.23
1936.71
1936.7
1937.26
1939.21
1872.6
603.533
1332.01
1335.63
1338.54
1341.1
1342.76
1344.1
1344.59
1344.51
1344.14
1343.69
1343.18
1342.61
1341.84
1341.11
1340.38
1340
1339.46
1339.37
1339.13
1338.92
1338.72
1338.57
1338.41
1338.19
1337.96
1337.68
1337.46
1337.51
1336.36
1336.66
1336.85
1337.12
1337.72
1338.62
1338.93
1339.03
1339.46
1339.99
1340.45
1340.5
1329.41
1333.11
1336.16
1338.81
1340.82
1343.08
1343.74
1343.81
1343.43
1343.11
1342.61
1341.78
1341.04
1340.42
1339.95
1339.43
1339.15
1338.82
1338.9
1338.76
1338.6
1338.41
1338.28
1337.96
1337.68
1337.08
1336.51
1335.26
1335.91
1336.15
1336.45
1336.84
1337.28
1337.69
1337.86
1338.96
1339.18
1339.56
1339.93
1339.96
1323.79
1328.63
1331.51
1334.77
1337.31
1340.63
1341.72
1341.82
1341.14
1340.7
1340.95
1340.42
1340.01
1339.5
1338.92
1338.42
1338.28
1338.12
1338.53
1338.61
1338.54
1338.43
1338.05
1337.78
1337.95
1337.81
1336.51
1335.74
1336.1
1338.19
1338.5
1338.87
1338.58
1338.38
1338.34
1339
1339.14
1339.43
1339.82
1339.93
1318.58
1324.69
1326.45
1329.78
1332.72
1336.63
1338.68
1339.21
1337.65
1337.45
1337.05
1336.64
1337.58
1337.96
1337.97
1337.59
1337.37
1337.43
1337.49
1338.26
1338.49
1338.42
1337.9
1337.22
1337.05
1336.74
1335.39
1334.37
1335.33
1336.63
1338.25
1338.52
1338.38
1338.26
1337.44
1337.89
1338.32
1338.92
1339.85
1339.94
1315.83
1319.79
1320.77
1324.28
1327.06
1332.29
1334.79
1335.64
1334.59
1333.99
1333.81
1333.47
1333.68
1333.87
1336.05
1337.17
1337.52
1337.16
1337.18
1337.17
1338.15
1338.25
1338.15
1337.68
1337.82
1335.04
1330.98
1331.71
1330.21
1331.49
1334.4
1335.47
1336.59
1338.9
1337.29
1337.56
1338.98
1339.75
1339.92
1340
1311.37
1312.92
1316.44
1319.53
1326.04
1329.28
1331.5
1332.65
1333.26
1333.52
1333.44
1332.1
1332.18
1332.31
1333
1335.19
1337.11
1337.64
1337.24
1337.09
1337.15
1338.29
1338.87
1339.05
1339.31
1338.97
1338.91
1334.89
1324.89
1325.05
1324.87
1331.76
1334.95
1335.91
1339.57
1339.62
1339.48
1339.78
1340.27
1340.35
1308.43
1311
1315.19
1319.14
1323.48
1326.67
1329.24
1330.48
1331.41
1332.2
1332.8
1333.37
1333.96
1334.23
1332.57
1334.01
1337.29
1337.85
1338.24
1338.1
1337.41
1337.67
1338.45
1339.5
1339.71
1339.96
1339.87
1338.94
1323.47
1323.1
1322.64
1325.03
1335.4
1335.86
1337.07
1339.91
1339.93
1340.25
1340.6
1340.65
1313.48
1313.89
1312.95
1311.23
1306.15
1310.8
1319.99
1327.88
1331.08
1332.26
1333.24
1334.08
1334.82
1335.6
1336.04
1331.59
1333.51
1338.1
1338.66
1339.07
1338.33
1338.02
1338.18
1339.77
1340.55
1340.55
1332.5
1325.3
1323.74
1323.9
1323.83
1323.63
1336.17
1337.11
1339.55
1340.82
1340.81
1340.78
1340.58
1336.7
1318.37
1312.14
1299.92
1300.95
1303.98
1306.39
1308.03
1317.88
1331.96
1333.22
1334.18
1334.88
1335.66
1336.82
1337.68
1330.58
1329.01
1337.2
1339.27
1339.78
1340.23
1338.48
1338.64
1339.22
1341.49
1341.61
1338.63
1326.75
1323.99
1324.03
1324.07
1336.1
1341.96
1341.16
1341.68
1342.19
1341.97
1341.83
1339.06
1333.26
1321.83
1317.54
1302.69
1303.49
1305.98
1308.08
1309.03
1324.56
1334.18
1334.85
1335.52
1335.08
1335.73
1338.02
1338.72
1333.07
1322.77
1333.5
1340.36
1340.78
1341.1
1339.52
1339.26
1339.62
1342.44
1342.6
1340.6
1342.06
1341.43
1340.08
1342.08
1341.67
1342.77
1342.53
1341.88
1341.51
1337.62
1335.83
1329.39
1330.08
1323.84
1325.36
1320.84
1319.41
1318.79
1320.35
1327.85
1335.2
1336
1336.38
1336.75
1335.31
1336.01
1339.02
1339.42
1330.98
1320.62
1328.91
1341.68
1341.92
1342.16
1340.44
1340.16
1341.32
1343.23
1343.6
1342.84
1343.87
1344.35
1344.6
1342.45
1342.75
1342.03
1336.98
1327.99
1325.63
1324.11
1324.63
1329.66
1340.82
1309.88
1312.19
1324.69
1330.98
1333.82
1335.38
1336.22
1336.6
1336.92
1337.53
1336.64
1336.13
1336.8
1340.06
1340.34
1327.29
1316.98
1327.36
1342.75
1342.94
1343.16
1341.15
1340.9
1343.17
1344.01
1344.26
1344.39
1344.83
1344.98
1345.3
1344.68
1340.72
1326.16
1322.65
1322.73
1322.93
1323.17
1331.76
1345.89
1346.05
1299.71
1300.42
1316.93
1332.47
1334.21
1335.59
1336.49
1337.36
1338.31
1338.33
1336.7
1337.41
1339.19
1340.99
1341.2
1316.31
1314.32
1319.42
1342.46
1343.68
1344.01
1341.53
1341.41
1343.58
1344.8
1345.07
1345.39
1345.69
1346.05
1346.34
1345.14
1324.46
1321.8
1321.91
1321.8
1324.7
1342.43
1346.82
1346.72
1346.73
1305.2
1312.74
1330.33
1334.62
1335.25
1336.06
1337.29
1338.61
1339.75
1339.51
1338.93
1340.36
1342.26
1342.3
1323.82
1310.92
1311.82
1312.12
1330.78
1344.47
1345.19
1341.57
1341.84
1343.43
1345.64
1345.89
1346.05
1346.04
1344.91
1342.65
1343.47
1330.27
1326.32
1321.46
1331.06
1347.42
1347.26
1347.09
1347.1
1347.1
1335.21
1337.7
1336.22
1336.03
1336.49
1337.3
1338.69
1340.01
1341.19
1342.02
1342.44
1343.53
1342.79
1323.15
1311.31
1311.82
1312.26
1312.26
1316.1
1343.42
1345.73
1342.22
1342.59
1344.17
1346.65
1346.86
1346.98
1343.78
1334.31
1334.25
1334.06
1347.28
1343.6
1343.39
1345.81
1347.14
1347.32
1347.24
1347.29
1347.06
1293.67
1304.94
1308.43
1320.45
1328.69
1330.72
1338.6
1341.23
1342.13
1342.63
1342.68
1344.06
1344.81
1328.8
1312.13
1312.65
1312.74
1312.48
1324.44
1345.38
1344.53
1343.24
1343.42
1345.8
1347.72
1347.79
1347.83
1343.69
1333.78
1334.02
1339.38
1347.97
1343.11
1340.15
1341.58
1346.9
1347.59
1347.52
1347.02
1346.99
1283.21
1284.05
1305.16
1317.58
1316.62
1317.27
1317.76
1323.9
1331.67
1333.04
1332.85
1343.84
1345.56
1346.66
1338.64
1320.09
1315.14
1327.71
1347.08
1348
1343.96
1344
1344.36
1348.18
1348.41
1348.45
1348.29
1347.56
1337.17
1333.76
1345.49
1346.84
1338.5
1338.78
1339.16
1346.12
1347.35
1347.54
1347.16
1347.1
1326.38
1336.68
1342.79
1344.48
1336.62
1327.21
1322.03
1322.55
1322.78
1321.61
1320.45
1342.11
1347.38
1348.38
1349.04
1347.43
1346.64
1348.74
1349.15
1348.9
1347.02
1345.86
1348.25
1348.91
1348.92
1348.78
1348.46
1347.94
1345.88
1343.74
1345.08
1344.74
1342.69
1342.28
1338.49
1345.42
1347.01
1347.51
1347.83
1347.41
1348.25
1348.62
1349.05
1349.5
1349.91
1349.88
1348.47
1344.43
1342.16
1334.29
1338.06
1347.9
1349.04
1349.33
1349.58
1349.64
1349.46
1349.23
1348.99
1348.91
1348.97
1349.08
1349.1
1349.08
1348.89
1348.73
1348.46
1348
1346.3
1346.63
1345.94
1345.74
1345.66
1342.26
1345.57
1346.12
1347.8
1348.28
1348.66
1348.21
1349.55
1349.91
1350.31
1350.71
1351.1
1351.47
1351.83
1352.13
1352.07
1351.64
1350.94
1350.43
1350.23
1350.08
1350.02
1349.9
1344.39
1341.97
1346.46
1348.53
1348.47
1348.65
1348.59
1348.83
1348.67
1348.62
1348.55
1348.37
1347.39
1348.22
1348.09
1347.84
1334.5
1331.11
1347.27
1348.79
1349.34
1349.79
1350.14
1349.68
1350.79
1351.14
1351.46
1351.74
1351.9
1352.08
1352.28
1352.43
1352.43
1352.19
1351.73
1351.3
1350.96
1350.77
1349.99
1342.65
1341.96
1341.67
1341.34
1348.72
1346
1342.69
1344.74
1348.18
1348.02
1348.14
1348.35
1348.84
1349.36
1349.73
1349.89
1349.8
1307.89
1316.37
1348.84
1350.99
1351.39
1351.73
1351.93
1351.45
1351.03
1351.47
1351.94
1352.21
1351.83
1351.05
1352.2
1352.72
1352.73
1352.6
1352.34
1352.06
1351.76
1350.94
1342.99
1342.75
1343.62
1346.7
1345.18
1329.78
1318.21
1341.75
1347.82
1347.13
1347.08
1347.82
1348.72
1349.62
1350.38
1351.06
1350.81
1311.66
1303.79
1313.98
1351.17
1352.97
1353.4
1353.74
1353.97
1353.41
1340.89
1345.23
1347.38
1348.02
1347.24
1347.43
1347.55
1347.6
1352.02
1353.18
1352.99
1352.83
1352.63
1348.89
1343.46
1345.82
1348.95
1346.74
1308.7
1300.78
1301.17
1330.62
1347.47
1339.53
1348.51
1349.06
1350.02
1351.08
1346.06
1330.32
1305.02
1301.46
1301.98
1331.48
1354.61
1355.03
1355.38
1355.65
1355.85
1355.53
1351.48
1351.66
1351.79
1349.18
1348.51
1348.69
1350.37
1353.47
1353.93
1353.74
1353.65
1353.72
1353.04
1344.07
1343.99
1345.08
1350.19
1327.93
1300.38
1301.06
1301.23
1300.69
1330.01
1343.46
1307.34
1306.14
1305.82
1303.02
1301.82
1301.75
1302.01
1302.43
1322.95
1356.45
1356.89
1356.95
1357.07
1357.24
1357.36
1357.4
1352.09
1352.3
1351.1
1348.21
1352.51
1352.65
1352.72
1354.27
1354.64
1354.57
1354.62
1354.95
1349.24
1344.86
1344.88
1344.75
1351.22
1346.94
1303.25
1301.45
1301.55
1301.16
1334.75
1351.26
1325
1330.07
1329.44
1323.72
1319.72
1314.2
1316.43
1336.33
1358.07
1358.42
1358.14
1358
1358
1358.11
1357.85
1358.03
1348.35
1348.5
1348.53
1348.48
1348.45
1349.75
1355.11
1355.09
1355.11
1355.16
1355.52
1355.85
1356.11
1350.54
1348.51
1351.65
1356.45
1357.19
1346
1317.43
1315.79
1324.3
1352.15
1356.78
1356.3
1357.03
1357.48
1357.61
1357.41
1356.51
1357.65
1359.28
1359.14
1358.83
1358.59
1358.41
1358.35
1352.71
1353.32
1358.44
1354.69
1355.68
1351.01
1348.97
1348.99
1348.83
1354.74
1355.37
1355.28
1354.61
1353.67
1353.7
1355.47
1354.5
1343.83
1351.89
1356.77
1357.29
1357.65
1356.59
1356.75
1357.13
1357.49
1357.46
1357.48
1357.73
1358.01
1358.28
1358.57
1358.87
1359.16
1359.25
1359.12
1358.94
1358.9
1356.14
1350.72
1347.34
1348.72
1358.92
1356.75
1356.86
1356.9
1356.74
1350.59
1351.85
1355.56
1355.56
1355.31
1355.24
1351.42
1348.2
1352.55
1341.26
1330.35
1334.3
1353.64
1357.79
1358.16
1358.34
1358.41
1358.38
1358.19
1358.19
1358.23
1358.37
1358.48
1357.86
1357.75
1357.96
1358.97
1359.33
1358.87
1352.2
1348.48
1347.16
1347.22
1347.34
1350.24
1359.4
1356.95
1357.05
1357.16
1354.61
1353.29
1356.43
1356.4
1355.9
1355.55
1355.77
1356.85
1351.32
1349.82
1346.91
1333.25
1333.48
1334.94
1347.18
1359.13
1359.09
1359.09
1359.06
1358.94
1358.88
1358.92
1358.98
1358.89
1357.77
1357.88
1357.97
1359.44
1359.5
1357.92
1347.15
1347.29
1347.35
1347.4
1347.5
1357.04
1359.62
1357.46
1357.86
1357.88
1356.28
1353.81
1355.41
1357.41
1357.48
1357.75
1358.26
1359.04
1359.81
1360.63
1352.37
1353.33
1352.34
1336.43
1336.41
1342
1355.89
1359.85
1359.75
1359.63
1359.56
1359.5
1359.48
1359.43
1358.15
1358.02
1358.02
1359.45
1359.46
1359.47
1355.69
1352.89
1352.83
1353.48
1356.6
1360.13
1359.63
1331.52
1348.36
1356.13
1355.75
1358.09
1358.61
1358.88
1359.02
1359.4
1359.92
1360.03
1360.45
1360.88
1324.39
1311.48
1341.3
1348.39
1344.37
1335.28
1334.77
1341.42
1360.12
1360.29
1360.15
1360.04
1359.89
1359.74
1359.57
1358.09
1358.09
1359.37
1359.32
1359.17
1359.46
1359.7
1359.94
1360.13
1360.26
1360.28
1359.7
1318.27
1317.76
1319.28
1345.44
1358.56
1358.93
1359.14
1352.12
1342.29
1352.52
1329.87
1309.53
1309.5
1310.05
1310.44
1310.13
1342.11
1354.06
1350.36
1334.6
1333.9
1333.21
1350.29
1360.68
1360.5
1360.24
1359.92
1359.7
1358.86
1359.4
1359.32
1359.25
1359.12
1359.4
1359.64
1359.95
1360.21
1360.41
1360.49
1359.97
1348.76
1321
1316.24
1315.93
1315.76
1324.95
1321.2
1310.14
1310.09
1310.5
1310.71
1310.95
1333.97
1340.97
1337.66
1330.76
1334.99
1353.64
1357.66
1357.35
1334.49
1332.65
1332.15
1341.5
1360.69
1360.43
1360.15
1359.85
1359.61
1359.5
1359.41
1359.4
1359.26
1359.35
1359.6
1359.96
1360.34
1360.75
1360.87
1360.94
1360.3
1359.97
1355.95
1352.06
1340.17
1314.24
1315.29
1326.23
1340.37
1340.67
1341.52
1353.14
1362.71
1362.73
1362.12
1361.4
1351.76
1349.42
1348.8
1361.13
1360.89
1332.54
1331.23
1330.98
1340.8
1360.18
1360.28
1360.01
1359.77
1359.53
1359.42
1359.48
1359.63
1359.79
1359.87
1360.27
1360.61
1361.04
1361.41
1361.48
1356.08
1361.84
1351.42
1339.97
1335.19
1335.25
1350.42
1363.97
1365.13
1365.8
1365.58
1365.35
1364.94
1362.98
1360.9
1360.85
1360.34
1354.29
1357.13
1361.08
1361.06
1355.67
1330.36
1330.39
1330.26
1351.96
1360.36
1360.09
1359.84
1359.62
1359.31
1359.27
1359.6
1360
1360.42
1360.69
1361.14
1361.61
1362.09
1362.21
1359.17
1363.06
1352.2
1344.39
1336.04
1290.93
1289.74
1357.48
1365.97
1365.47
1364.82
1364.78
1364.7
1355.15
1346.27
1345.5
1350.61
1362.47
1361.99
1361.5
1361.14
1360.99
1352.48
1330.63
1334.89
1357.77
1360.38
1360.22
1359.96
1359.57
1359.24
1359.35
1359.83
1360.37
1360.93
1361.29
1361.98
1362.54
1362.89
1363.02
1366.87
1368.2
1337.4
1287.1
1286.87
1287.12
1287.56
1287.26
1336.28
1366.69
1366.19
1365.76
1365.08
1350.15
1346.32
1346.02
1346.1
1348.29
1347.71
1351.18
1361.89
1361.49
1361.14
1357.79
1357.88
1360.27
1360.18
1360.49
1360.86
1334.21
1317.91
1344.95
1360.58
1361.2
1361.78
1362.36
1362.88
1363.3
1363.6
1363.76
1345.94
1363.68
1363.93
1348.82
1290.7
1290.03
1289.27
1288.26
1300.89
1359.24
1366.9
1360.45
1364.67
1365
1364.74
1364.21
1363.49
1362.92
1358.5
1354.52
1361.72
1361.59
1361.29
1361.12
1360.62
1354.97
1351.05
1335.85
1313.95
1306.86
1307.32
1313.76
1359.28
1362.63
1363.08
1363.57
1363.92
1363.99
1364.21
1363.94
1174.44
1327.48
1363.17
1373.61
1350.76
1315.52
1305.73
1338.73
1356.49
1355.68
1353.67
1339.27
1337.42
1356.66
1360.74
1360.84
1361.14
1361.73
1360.6
1357.14
1343.77
1340.14
1336.05
1342.47
1356.68
1342.89
1307.3
1306.56
1306.67
1307.03
1307.36
1332.72
1363.77
1364.11
1364.53
1364.91
1365.08
1364.98
1359.22
1351.82
1187.34
1256.01
1346.61
1372.36
1371.38
1370.45
1369.54
1363.37
1361.07
1359.89
1359.19
1358.64
1329.34
1315.9
1331.74
1347.33
1286.24
1322.04
1360.99
1361.89
1331.05
1331.29
1331.11
1331.11
1358.11
1350.83
1314.17
1307.56
1312.58
1322.05
1342.56
1364.07
1365.16
1365.17
1365.26
1365.79
1365.93
1365.55
1352.36
1334.98
1376.58
1375.76
1372.72
1371.39
1370.58
1369.92
1368.47
1364.06
1357.26
1339.57
1330.63
1332.1
1331.83
1314.54
1318
1325.12
1256.4
1254.65
1363.13
1365
1361.32
1342.44
1332.75
1333.63
1359.43
1364.54
1357.21
1346.34
1360.86
1363.71
1363.64
1363.24
1364.93
1365.34
1365.61
1366.09
1366.06
1365.68
1356.14
1297.27
1377.08
1373.57
1371.44
1369.93
1363.4
1330.46
1292.78
1272.06
1218.51
1109.29
1109.44
1110.36
1120.05
1266.25
1316.95
1299.46
1259.48
1329.04
1362.56
1363.25
1363.24
1362.62
1355.86
1348.55
1363.26
1365.25
1364.31
1363.34
1350.08
1300.41
1338.16
1365.42
1365.81
1365.75
1365.75
1366.03
1366.38
1366.42
1363.51
1273.39
1374.8
1373.67
1373.29
1364.67
1218.18
1114.39
1114.24
1113.98
1113.31
1112.36
1110.98
1244.13
1375.15
1373.64
1372.3
1369.89
1359.95
1361.16
1358.14
1357.68
1358.18
1359.88
1361.78
1357.61
1365.78
1365.45
1361.6
1288.42
1259.79
1261.32
1274.86
1366.12
1366.86
1367.16
1367.37
1367.46
1368
1368.41
1310.93
1267.84
1374.58
1376.32
1377.6
1332.89
1138.73
1116.62
1116.84
1121.29
1147.16
1170.67
1260.42
1353.96
1375.87
1374.47
1370.47
1365.18
1359.83
1348.62
1343.34
1347.85
1351.09
1354.65
1358.02
1360.22
1358.35
1361.19
1350.21
1297.19
1259.02
1260.74
1262.07
1263.5
1313.65
1327.74
1310.48
1310.93
1301.77
1367.43
1263.69
1279.7
1370.6
1374.88
1379.04
1382.85
1376.32
1240.16
1202.83
1379.19
1386.87
1384.98
1363.32
1298.64
1261.71
1334.75
1370.2
1365.29
1338.22
1214.38
1116.86
1214.25
1350.38
1353.29
1355.75
1355.97
1285.32
1188.67
1343.68
1357.36
1358.76
1333.44
1305.37
1293.36
1267.49
1266.62
1266.29
1266.22
1264.69
1265.3
1264.22
1315.51
1366.29
1371.64
1376.44
1377.88
1382.77
1385.37
1386.88
1387.88
1387.99
1382.9
1262.36
1245.1
1241.01
1236.63
1302.38
1372.25
1262.17
1098.81
1098.19
1098.02
1185.46
1344.17
1357.3
1330.43
1171.42
1169.1
1169.55
1301.32
1361.32
1364.36
1366.86
1367.18
1362.14
1352.72
1332.49
1294.54
1272.45
1304.13
1302.86
1324.96
1366.62
1368.72
1288.62
1252.31
1373.46
1389.57
1392.28
1392.33
1390.51
1386.58
1295.5
1244.65
1240.93
1237.08
1232.83
1331.26
1261.23
1100.5
1099.86
1099.32
1099.02
1147.9
1292.81
1282.37
1165.21
1165.05
1164.97
1166.39
1219.45
1361.98
1365.58
1367.51
1368.56
1369.4
1370.22
1369.15
1366.61
1371.67
1371.02
1321.06
1164.53
1200.55
1143.02
1162.94
1274.24
1377.02
1401.35
1399.98
1397.13
1393.53
1388.76
1283.94
1241.22
1237.55
1241.48
1321.54
1252.96
1102.88
1101.32
1100.54
1099.49
1188.93
1313.95
1313.61
1227.98
1169.7
1165.96
1193.96
1311.09
1347.37
1357.38
1366.24
1367.86
1368.96
1369.93
1370.75
1371.66
1372.5
1371.22
1321.31
902.437
904.595
1079.1
1238.58
1230.3
1186.46
1311.71
1353.21
1405.15
1400.99
1394.72
1372.43
1286.47
1273.89
1370.05
1348.33
1126.11
1101.95
1100.63
1099.54
1098.01
1127.99
1261.68
1314.46
1313.19
1309.32
1295.39
1336.11
1346.79
1345.87
1266.05
1251.53
1322.21
1360.91
1361.49
1370.66
1371.33
1372.27
1371.79
1363.17
902.418
903.62
1106.41
1334.98
1341.46
1148.87
1115.04
1313.41
1415.29
1388.7
1266.84
1306.37
1380.08
1373.63
1367.94
1363.49
1338.41
1273.41
1249.11
1188.81
1134.67
1074.36
1036.32
1098.61
1182.81
1296.84
1352.03
1352.41
1352
1252.68
1226.03
1226.85
1227.15
1239.93
1297.63
1261.96
1326.82
1356.52
1371.6
1372.58
976.864
904.806
931.151
1301.7
1348.18
1234.49
947.122
1290.58
1421.35
1349.07
1188.39
1318.11
1380.26
1372.33
1365.71
1361.5
1359.11
1357.71
1197.45
1086.78
1082.07
1073.92
1030.04
1030.37
1027.05
1028.61
1087.54
1274.5
1346.82
1335.62
1325.3
1327.53
1314.78
1302.9
1325.76
1238.64
1238.61
1238.23
1273.11
1361.51
1399.22
1006.47
937.312
1065.45
1349.5
1309.42
924.602
890.533
1314.9
1351.83
1174.21
1349.47
1374.2
1367.91
1359.69
1352.75
1348.27
1326.95
1274.28
1348.48
1357.98
1362.58
1356.73
1238.24
1184.98
1025.91
985.538
1014.7
1028.44
1122.53
1327.79
1288.96
1152.28
1152.69
1320.89
1373.89
1338.8
1240.87
1241.3
1325.29
1395.52
1239.61
943.883
955.503
1297.57
1362.68
1182.14
861.832
843.998
832.719
910.602
1261.31
1357.02
1355.73
1335.49
1305.6
1327.48
1333.67
1336.06
1337.7
1341.62
1347.14
1352.44
1355.06
1288.92
1027.95
967.119
1029.77
1031.79
953.013
1065.23
1210.57
1335.32
1366.27
1370
1372.66
1373.53
1356.5
1310.43
1351.16
1360.64
1292.16
965.163
958.842
1035.14
1331.85
1360.47
1361.17
892.921
815.522
799.346
775.225
941.921
936.618
701.61
824.529
1068.62
1164.29
1218.26
1282.31
1322.81
1333.48
1341.32
1346.32
1218.14
790.256
789.796
791.087
789.811
790.463
793.63
816.533
1008.4
1157.57
1337.39
1376.23
1378.74
1380.01
1380.19
1380.94
1144.71
1367.85
1315.58
1026.83
992.822
993.048
1185.31
1389.65
1417.49
1409.66
1369.78
1081.63
625.386
572.743
546.37
521.924
511.247
509.302
511.168
676.361
1166.15
1313.14
1338.05
1341.77
1325.86
1025.19
789.898
789.759
789.333
790.601
793.901
797.881
799.897
799.258
799.307
1046.28
1338.49
1383.96
1384.13
1380.44
1044.67
1396.91
1412.67
1418.26
1198.06
982.986
998.086
1083.6
1368.14
1384.42
1374.1
1361.82
1319.61
833.565
515.757
506.828
503.334
502.64
502.655
503.141
505.564
730.646
1194.35
1254.37
1334.15
1343.34
1071.94
799.848
793.083
795.852
797.434
798.899
798.987
797.274
797.149
799.124
904.034
1197.53
1235.31
1338.65
1167.71
1382.03
1390.98
1393.17
1394.02
1317.22
1104.2
1249.2
1366.59
1355.21
1347.86
1344.39
1312.89
1274.11
1079.88
522.116
493.061
494.265
495.546
496.544
498.18
500.11
503.721
978.147
1335.36
1346.86
1355.8
1371.48
1035.48
853.537
1126.8
1056.08
838.283
899.283
872.748
802.593
804.706
843.68
912.504
1244.38
1370.17
1368.95
1368.88
1367.47
1364.33
1359.19
1351.09
1339.93
1326.62
1314.36
1305.95
1304.35
1295.03
1280.95
1202.93
1108.14
974.255
490.819
486.235
489.014
491.487
494.04
496.761
498.472
931.473
1337.82
1348
1385.73
1405.65
1193.6
1126.83
1290.67
1289.17
1287.71
1261.59
1115.53
1147.73
1295.73
1324.68
1294.58
1367.2
1359.2
1353.03
1347.06
1337.24
1324.7
1308.69
1286.72
1256.84
1202.37
1172.49
1186.79
1214.78
1205.76
1197.55
1227.1
1250.46
1205.9
1078.54
522.494
483.217
486.892
490.892
494.345
516.752
1115.38
1348.93
1399.11
1412.22
1221.25
1019.64
1029.85
1297.47
1297.28
1140.98
1117.25
1127.61
1239.06
1387.47
1388.59
1360.35
1354.86
1345.14
1331.2
1315.61
1296.87
1270.73
1063.9
733.833
413.973
360.356
429.191
571.927
765.321
1113.18
1203.05
1226.75
1248.84
1267.61
1232.69
710.568
478.901
483.323
488.019
492.058
847.061
1353.55
1409.37
1420.42
1201.55
1017.89
1057.87
1296.43
1292.91
1229.44
1147
1182.34
1242.01
1292.37
1391.4
1364.53
1354.72
1342.08
1326.16
1307.15
1283.42
1148.92
316.867
192.171
190.169
190.233
189.979
189.686
193.688
377.164
1081.05
1208.51
1231.88
1252.56
1271.9
1279.43
1018.77
476.658
480.994
486.555
910.866
1390.25
1418.18
1426.67
1127.6
1014.13
1200.03
1294.14
1116.42
819.793
1310.09
1386.73
1388.64
1380.83
1393.72
1373.93
1362.39
1348.93
1331.97
1310.38
1285.92
856.682
193.234
190.834
190.28
189.938
188.312
187.526
190.752
198.044
323.641
704.468
1217.54
1239.24
1258.4
1276.22
1292.29
1059.16
503.743
579.285
1168.4
1405.37
1418.68
1426.3
1191.69
1007.05
1157.44
1286.87
963.429
772.795
884.865
1285.22
1392.11
1396.92
1399.27
1388.02
1373.85
1359.13
1302.73
1293.06
1292.63
822.576
192.931
191.336
190.302
190.308
190.219
190.778
193.047
263.119
455.776
465.565
677.76
993.129
1246.24
1258.65
1249.15
1202.91
1113.26
1192.78
1355.78
1404.95
1416.29
1423.52
1385.23
1044.89
1266.67
1273.98
751.268
749.729
994.835
946.88
1309.7
1308.24
1381.73
1400.9
1386.74
1370.59
1255.87
1238
1257.93
890.06
191.269
191.324
190.847
190.815
190.834
191.297
254.59
905.184
1146.54
988.172
898.197
928.035
977.072
1009.06
1029.18
1138.12
1355.92
1381.68
1397.26
1408.46
1416.27
1390.04
1381.13