/*--------------------------------*- C++ -*----------------------------------*\
  =========                 |
  \\      /  F ield         | OpenFOAM: The Open Source CFD Toolbox
   \\    /   O peration     | Website:  https://openfoam.org
    \\  /    A nd           | Version:  8
     \\/     M anipulation  |
\*---------------------------------------------------------------------------*/
FoamFile
{
    version     2.0;
    format      ascii;
    class       volScalarField;
    location    "3";
    object      p;
}
// * * * * * * * * * * * * * * * * * * * * * * * * * * * * * * * * * * * * * //

dimensions      [1 -1 -2 0 0 0 0];

internalField   nonuniform List<scalar> 
9150
(
393.341
366.325
340.841
323.64
315.33
315.319
323.608
340.796
366.275
393.299
364.482
344.909
329.272
317.463
311.481
311.473
317.44
329.238
344.869
364.442
335.202
321.612
313.093
305.327
301.22
301.214
305.309
313.066
321.58
335.166
310.499
300.447
295.004
289.632
286.663
286.658
289.617
294.982
300.419
310.466
289.219
280.25
275.7
271.519
269.073
269.068
271.506
275.679
280.225
289.187
26.6444
22.7635
47.7479
61.8606
68.4065
68.2504
61.4109
47.0825
21.8168
25.2861
196.532
172.518
167.102
165.835
165.921
165.837
165.597
166.737
172.035
196.044
300.81
269.648
253.774
243.877
239.211
239.165
243.746
253.579
269.416
300.6
381.372
339.376
311.655
294.301
285.796
285.769
294.226
311.549
339.259
381.281
432.525
379.585
340.98
318.932
308.786
308.769
318.884
340.915
379.519
432.482
-52.3485
-18.7929
-31.7626
-24.6209
-27.9761
-29.7637
-24.7609
-34.3841
-24.6172
-65.1109
-45.6267
-30.9581
-49.4522
-44.2355
-47.6444
-48.9871
-44.1824
-54.643
-35.3167
-54.8951
-89.2959
-60.2263
-91.7354
-85.6634
-82.8622
-83.3189
-86.0605
-95.9374
-63.7212
-95.6333
-268.55
-145.518
-129.062
-110.976
-95.1547
-95.4094
-112.224
-132.091
-147.326
-274.274
-416.797
-177.513
-81.8467
-51.9332
-36.3599
-36.599
-52.7882
-83.1976
-178.939
-421.034
1838.94
1839.23
1839.54
1839.86
1840.19
1840.53
1840.89
1841.25
1841.62
1842
1819.43
1819.71
1819.99
1820.29
1820.59
1820.91
1821.23
1821.57
1821.91
1822.27
1799.9
1800.16
1800.43
1800.71
1801
1801.3
1801.61
1801.92
1802.25
1802.58
1780.28
1780.53
1780.79
1781.05
1781.33
1781.61
1781.91
1782.21
1782.52
1782.84
1760.58
1760.82
1761.08
1761.34
1761.61
1761.88
1762.17
1762.46
1762.76
1763.07
1740.81
1741.06
1741.31
1741.57
1741.83
1742.1
1742.39
1742.68
1742.97
1743.28
1720.98
1721.22
1721.48
1721.74
1722.01
1722.28
1722.56
1722.85
1723.15
1723.45
1701.08
1701.34
1701.59
1701.86
1702.13
1702.41
1702.7
1702.99
1703.29
1703.6
1681.13
1681.39
1681.66
1681.93
1682.21
1682.49
1682.79
1683.09
1683.4
1683.71
1661.12
1661.39
1661.66
1661.94
1662.23
1662.53
1662.84
1663.15
1663.47
1663.79
1641.04
1641.32
1641.61
1641.91
1642.21
1642.52
1642.84
1643.16
1643.49
1643.83
1620.9
1621.19
1621.5
1621.81
1622.13
1622.45
1622.79
1623.13
1623.47
1623.82
1600.69
1601
1601.32
1601.65
1601.98
1602.33
1602.68
1603.04
1603.4
1603.77
1580.4
1580.73
1581.07
1581.42
1581.77
1582.14
1582.51
1582.89
1583.27
1583.67
1560.02
1560.38
1560.74
1561.1
1561.48
1561.87
1562.26
1562.67
1563.08
1563.5
1539.56
1539.93
1540.31
1540.71
1541.11
1541.52
1541.94
1542.37
1542.81
1543.25
1518.99
1519.38
1519.79
1520.21
1520.64
1521.07
1521.52
1521.98
1522.45
1522.92
1498.31
1498.73
1499.16
1499.6
1500.06
1500.52
1501
1501.48
1501.98
1502.48
1477.49
1477.95
1478.4
1478.88
1479.36
1479.85
1480.36
1480.88
1481.45
1482.06
1456.57
1457.03
1457.51
1458.01
1458.51
1459.03
1459.57
1460.16
1460.75
1461.28
1435.52
1435.98
1436.47
1436.98
1437.5
1438.06
1438.63
1439.21
1439.8
1440.37
1414.26
1414.73
1415.24
1415.76
1416.31
1416.9
1417.46
1418.04
1418.61
1419.23
1392.75
1393.24
1393.76
1394.3
1394.86
1395.49
1396.05
1396.61
1397.21
1397.91
1370.99
1371.49
1372.01
1372.56
1373.12
1373.7
1374.26
1374.86
1375.53
1376.24
1348.93
1349.42
1349.93
1350.47
1351.02
1351.58
1352.14
1352.8
1353.91
1354.94
1326.51
1326.97
1327.47
1328
1328.57
1329.17
1329.87
1331.13
1332.04
1332.82
1303.63
1304.05
1304.5
1305.01
1305.58
1306.23
1307.01
1307.99
1309.6
1310.36
1280.23
1280.55
1280.91
1281.3
1281.76
1282.32
1283.02
1283.84
1284.68
1285.32
1256.46
1256.46
1256.66
1256.89
1257.14
1257.48
1258.05
1258.91
1259.92
1260.85
1231.69
1231.68
1231.65
1231.55
1231.33
1231.15
1231.62
1233.1
1235.32
1236.02
1207.63
1207.01
1206.59
1206.29
1206.6
1206.39
1214.04
1215.3
1209.38
1209.79
1182.3
1181.59
1181.55
1181.79
1185.63
1188.12
1188.68
1184.98
1182.92
1183.47
1157.67
1155.77
1158.58
1160.23
1161.18
1161.22
1158.06
1156.66
1156.29
1156.85
1131.29
1134.14
1135
1134.92
1133.24
1131.97
1130.27
1129.36
1129.22
1129.49
1108.1
1110.79
1110.96
1106.59
1104.57
1102.67
1101.7
1101.1
1100.81
1100.89
1086.39
1083.79
1084.84
1075.72
1074.3
1073.33
1072.52
1071.84
1071.41
1071.31
1057.45
1053.77
1051.39
1048.46
1046.86
1045.37
1043.99
1042.79
1041.87
1041.3
1029.42
1027.22
1024.79
1022.36
1020.12
1017.98
1015.94
1014.05
1012.39
1011.06
1006.88
1003.62
1000.51
997.522
994.63
991.795
988.997
986.235
983.51
980.884
982.8
979.729
976.649
973.515
970.287
966.91
963.302
959.326
954.739
949.263
960.88
957.777
954.674
951.496
948.158
944.539
940.442
935.585
929.801
924.276
939.436
936.84
934.186
931.44
928.517
925.271
921.774
918.825
917.526
918.628
919.397
917.112
914.766
912.262
909.447
906.521
905.177
907.405
911.999
915.064
900.234
898.13
895.883
893.444
891.476
892.173
897.792
904.942
908.309
909.759
881.311
879.207
877.041
876.11
879.491
887.163
894.344
898.175
900.7
902.335
861.931
859.759
859.246
863.859
872.334
879.382
882.879
884.567
885.139
883.097
842.244
841.809
845.752
852.695
857.817
860.553
860.637
859.625
857.553
854.28
822.3
825.481
830.938
835.616
837.613
837.177
834.745
829.928
825.377
823.044
802.154
808.563
816.332
811.919
812.215
808.417
802.871
798.275
795.434
794.363
775.283
795.867
795.473
786.801
783.574
777.989
772.724
767.808
763.404
761.987
759.35
770.233
758.324
758.297
754.533
749.64
743.796
736.474
728.434
730.514
752.692
741.299
745.083
742.119
736.734
731.064
724.681
717.208
711.96
724.738
721.712
718.175
724.345
725.484
721.422
716.325
711.171
706.584
706.117
713.003
705.08
704.715
706.124
707.458
705.881
701.485
696.757
693.32
693.482
697.06
698.686
698.125
698.419
694.581
690.834
686.583
681.761
678.486
677.82
680.629
693.991
692.997
691.62
683.339
675.905
670.156
664.278
660.581
659.308
664.008
686.137
681.439
674.722
665.743
658.328
651.559
644.643
639.492
640.013
647.649
663.249
658.007
651.834
645.702
639.598
632.896
626.064
622.312
624.975
630.343
642.654
638.756
634.415
629.315
623.078
615.117
606.274
603.308
605.193
608.157
628.302
625.527
622.079
617.154
608.982
596.901
589.76
588.833
589.106
590.391
615.097
614.1
611.755
604.213
594.556
590.463
585.008
582.295
580.24
578.826
602.733
604.828
605.292
597.798
598.564
588.425
579.996
573.158
567.944
564.426
585.66
586.788
586.789
590.381
581.482
577.484
581.385
565.04
552.34
547.886
569.79
570.778
571.517
570.838
569.803
572.142
576.365
569.308
552.724
547.81
557.374
560.076
561.633
562.163
562.159
562.752
562.863
557.19
551.987
550.029
535.737
546.994
556.683
560.263
557.427
555.497
555.07
553.512
552.712
551.415
528.316
533.006
537.387
563.983
555.431
549.78
551.918
553.15
552.749
551.421
523.625
524.22
526.542
532.34
539.037
543.771
546.701
547.884
546.788
543.368
520.057
520.7
524.155
526.09
530.77
535.297
537.876
537.316
533.981
526.461
514.063
514.903
515.177
516.017
519.557
523.002
523.098
518.228
510.12
500.018
507.165
504.737
500.27
495.824
498.354
497.313
497.148
490.425
481.162
471.835
476.776
479.419
475.307
462.188
467.339
452.218
459.932
459.105
452.474
441.522
427.622
419.387
405.489
435.569
434.959
448.137
449.783
440.788
427.633
411.688
398.319
390.574
394.172
433.746
428.148
445.134
439.194
420.017
400.249
379.85
380.937
382.316
394.909
407.402
402.871
416.319
410.263
389.429
367.552
345.11
369.704
374.256
378.232
382.259
388.393
390.322
377.403
356.074
333.914
310.799
358.524
361.968
364.307
363.892
364.854
359.199
343.34
323.561
302.553
280.174
340.927
351.005
353.504
351.521
342.414
329.959
313.691
295.306
275.548
254.667
332.204
337.012
335.685
332.177
320.57
304.87
288.044
270.263
251.534
232.086
319.919
325.124
314.765
304.003
293.549
280.082
264.289
247.102
229.086
210.721
317.384
314.024
307.918
291.804
276.145
260.724
244.045
226.205
207.542
188.229
308.514
298.101
282.8
270.059
256.492
241.306
224.761
207.258
189.08
170.429
292.799
287.336
267.364
252.228
238.707
223.77
207.534
190.546
173.158
155.738
275.886
263.268
248.355
234.602
220.719
205.99
190.491
174.601
158.754
143.49
255.215
237.705
224.101
211.979
199.165
185.423
170.973
156.385
142.489
130.164
215.696
209.273
198.014
186.336
174.613
162.009
148.29
133.969
119.648
105.16
171.327
173.356
167.167
158.202
148.824
138.268
126.097
112.675
98.2171
82.1251
136.745
140.714
138.193
132.227
125.491
117.474
107.849
97.0483
85.6253
74.073
112.649
115.489
114.547
110.591
105.726
99.6916
92.4752
84.9242
78.434
73.4627
101.502
100.132
97.5832
93.6125
88.913
83.2879
76.857
70.7248
66.0706
59.8996
93.1045
88.5085
83.9053
79.1085
73.6051
67.4797
60.695
54.1506
47.6256
34.5905
82.046
76.5653
70.5231
64.8706
58.6196
52.227
45.3094
38.4838
30.7524
16.3663
63.1246
59.792
54.5587
49.1351
43.1937
37.3314
30.807
23.98
15.9134
4.73368
37.9423
39.0933
36.3307
32.0964
27.7265
23.3541
18.0054
12.0957
5.32302
-0.718912
12.3023
16.9698
17.5601
15.3259
13.4195
11.2061
7.51902
3.1187
-1.82488
-3.52235
-15.7096
-4.21176
2.21426
2.47901
2.44472
1.87394
-0.466946
-3.34252
-7.22368
-5.35862
-12.9913
-8.88638
-4.12832
-4.415
-4.88427
-5.37661
-7.53639
-9.44168
-13.0974
-7.7276
-13.558
-12.7826
-9.93747
-9.55596
-10.4391
-11.3031
-13.5863
-14.4747
-19.8773
-12.5637
-8.48042
-10.4489
-13.4679
-13.0024
-14.7549
-15.8079
-16.1758
-14.0631
-16.6083
-22.3316
-19.041
-3.1508
-16.9754
-16.7127
-19.8174
-21.1418
-18.0972
-14.1235
-2.63572
-37.7202
1842.41
1842.87
1843.34
1843.82
1844.32
1844.83
1845.35
1845.87
1846.4
1846.93
1847.45
1847.97
1848.48
1848.98
1849.45
1849.91
1850.34
1850.73
1851.09
1851.4
1851.67
1851.9
1852.08
1852.21
1852.31
1852.38
1852.44
1852.5
1852.56
1852.63
1852.7
1852.77
1852.84
1852.91
1852.96
1853
1853.03
1853.05
1853.05
1853.1
1822.67
1823.1
1823.55
1824
1824.46
1824.93
1825.41
1825.89
1826.38
1826.86
1827.34
1827.82
1828.29
1828.74
1829.19
1829.61
1830
1830.37
1830.71
1831.02
1831.29
1831.53
1831.73
1831.9
1832.04
1832.17
1832.29
1832.42
1832.55
1832.69
1832.83
1832.96
1833.08
1833.19
1833.28
1833.36
1833.41
1833.45
1833.46
1833.49
1802.95
1803.34
1803.75
1804.17
1804.6
1805.03
1805.47
1805.92
1806.36
1806.81
1807.26
1807.7
1808.13
1808.56
1808.97
1809.37
1809.75
1810.11
1810.45
1810.76
1811.04
1811.3
1811.53
1811.73
1811.92
1812.09
1812.25
1812.42
1812.6
1812.8
1813.03
1813.24
1813.43
1813.59
1813.73
1813.84
1813.91
1813.94
1813.93
1813.91
1783.18
1783.56
1783.95
1784.34
1784.75
1785.16
1785.57
1785.99
1786.42
1786.84
1787.27
1787.69
1788.11
1788.52
1788.92
1789.32
1789.7
1790.06
1790.41
1790.74
1791.05
1791.33
1791.59
1791.82
1792.03
1792.21
1792.36
1792.49
1792.66
1792.92
1793.25
1793.58
1793.86
1794.09
1794.27
1794.41
1794.49
1794.52
1794.48
1794.39
1763.41
1763.77
1764.14
1764.52
1764.91
1765.31
1765.71
1766.12
1766.53
1766.94
1767.36
1767.77
1768.18
1768.59
1769
1769.4
1769.79
1770.17
1770.54
1770.9
1771.24
1771.57
1771.86
1772.13
1772.35
1772.54
1772.64
1772.68
1772.81
1773.02
1773.49
1774.04
1774.4
1774.67
1774.9
1775.06
1775.15
1775.16
1775.08
1774.86
1743.61
1743.96
1744.33
1744.7
1745.08
1745.47
1745.86
1746.27
1746.67
1747.08
1747.49
1747.9
1748.32
1748.73
1749.14
1749.56
1749.96
1750.37
1750.77
1751.17
1751.56
1751.95
1752.32
1752.67
1752.99
1753.29
1753.53
1753.79
1756.47
1756.81
1755.25
1755.1
1755.21
1755.44
1755.62
1755.77
1755.87
1755.76
1755.61
1755.4
1723.78
1724.14
1724.5
1724.87
1725.25
1725.63
1726.03
1726.42
1726.83
1727.23
1727.64
1728.06
1728.47
1728.89
1729.32
1729.74
1730.17
1730.6
1731.04
1731.48
1731.93
1732.39
1732.86
1733.34
1733.84
1734.35
1734.87
1735.75
1738.19
1738.45
1738.43
1738.67
1738.83
1737.67
1737.02
1736.85
1736.85
1736.55
1736.41
1736.13
1703.93
1704.29
1704.65
1705.02
1705.4
1705.79
1706.18
1706.58
1706.98
1707.39
1707.8
1708.22
1708.63
1709.06
1709.48
1709.91
1710.35
1710.8
1711.26
1711.74
1712.24
1712.77
1713.32
1713.91
1714.53
1715.2
1715.97
1716.88
1717.82
1718.29
1719.71
1720.34
1720.63
1720.27
1719.29
1718.76
1718.8
1719
1718.89
1718.39
1684.05
1684.41
1684.78
1685.16
1685.54
1685.93
1686.33
1686.73
1687.13
1687.54
1687.95
1688.36
1688.78
1689.2
1689.62
1690.05
1690.49
1690.94
1691.4
1691.89
1692.41
1692.96
1693.56
1694.19
1694.85
1695.56
1696.29
1697.04
1697.77
1698.41
1698.93
1699.3
1699.38
1699.31
1699.32
1699.4
1699.25
1698.84
1698.66
1698.79
1664.14
1664.51
1664.88
1665.27
1665.66
1666.05
1666.46
1666.86
1667.27
1667.68
1668.09
1668.5
1668.91
1669.32
1669.73
1670.15
1670.57
1670.99
1671.43
1671.89
1672.39
1672.95
1673.58
1674.26
1674.95
1675.66
1676.37
1677.06
1677.72
1678.32
1678.83
1679.15
1679.33
1679.39
1679.48
1679.49
1679.44
1679.21
1678.88
1678.34
1644.19
1644.57
1644.96
1645.35
1645.75
1646.16
1646.57
1646.98
1647.39
1647.8
1648.21
1648.62
1649.02
1649.42
1649.82
1650.2
1650.59
1650.97
1651.34
1651.71
1652.13
1652.68
1653.36
1654.09
1654.81
1655.51
1656.2
1656.85
1657.47
1658.03
1658.5
1659
1659.38
1659.6
1659.69
1659.55
1659.38
1659.23
1658.75
1658.32
1624.2
1624.6
1625
1625.41
1625.83
1626.24
1626.66
1627.08
1627.5
1627.92
1628.33
1628.74
1629.13
1629.52
1629.9
1630.25
1630.59
1630.91
1631.19
1631.4
1631.62
1632.08
1632.82
1633.74
1634.53
1635.24
1635.9
1636.51
1637.09
1637.6
1638.05
1638.42
1638.76
1639.11
1639.08
1639.14
1639.05
1638.84
1638.53
1638.23
1604.17
1604.58
1605.01
1605.44
1605.87
1606.3
1606.74
1607.17
1607.61
1608.03
1608.45
1608.86
1609.26
1609.65
1610.03
1610.39
1610.72
1611.05
1611.37
1611.69
1613.23
1616.2
1612.78
1613.59
1614.35
1614.99
1615.58
1616.14
1616.65
1617.11
1617.53
1617.87
1618.16
1618.37
1618.51
1618.56
1618.5
1618.31
1617.99
1617.59
1584.08
1584.53
1584.97
1585.42
1585.88
1586.34
1586.79
1587.25
1587.7
1588.14
1588.57
1589
1589.41
1589.82
1590.21
1590.59
1590.94
1591.28
1591.72
1592.58
1593.91
1594.78
1594.51
1593.98
1594.48
1594.92
1595.37
1595.81
1596.23
1596.63
1596.98
1597.28
1597.53
1597.72
1597.85
1597.9
1597.86
1597.68
1597.38
1596.99
1563.94
1564.41
1564.89
1565.37
1565.85
1566.33
1566.82
1567.29
1567.77
1568.23
1568.69
1569.13
1569.56
1569.99
1570.4
1570.8
1571.15
1571.49
1572.52
1573.31
1574.12
1574.79
1574.88
1574.31
1574.58
1574.86
1575.18
1575.51
1575.84
1576.15
1576.44
1576.69
1576.89
1577.04
1577.14
1577.19
1577.17
1577.02
1576.72
1576.33
1543.73
1544.23
1544.74
1545.25
1545.77
1546.29
1546.8
1547.31
1547.81
1548.31
1548.79
1549.26
1549.73
1550.19
1550.65
1551.12
1551.52
1551.93
1552.92
1553.59
1554.21
1554.68
1554.71
1554.62
1554.66
1554.8
1555
1555.23
1555.47
1555.71
1555.94
1556.12
1556.26
1556.34
1556.4
1556.46
1556.48
1556.37
1556.08
1555.68
1523.43
1523.97
1524.52
1525.07
1525.62
1526.18
1526.73
1527.28
1527.82
1528.34
1528.86
1529.37
1529.86
1530.35
1530.85
1531.37
1531.77
1531.9
1533.42
1533.92
1534.37
1534.7
1534.6
1534.51
1534.52
1534.61
1534.75
1534.92
1535.11
1535.3
1535.49
1535.65
1535.7
1535.69
1535.79
1535.93
1535.78
1535.78
1535.54
1535.17
1503.03
1503.61
1504.2
1504.79
1505.39
1505.99
1506.59
1507.18
1507.76
1508.33
1508.89
1509.44
1509.95
1510.45
1511
1511.6
1511.81
1512.4
1513.43
1513.85
1514.38
1514.45
1514.36
1514.27
1514.25
1514.32
1514.46
1514.62
1514.82
1515.08
1515.19
1515.46
1515.54
1515.7
1516.85
1516.77
1515.7
1515.45
1515.19
1514.88
1482.51
1483.13
1483.76
1484.4
1485.05
1485.7
1486.35
1487
1487.63
1488.26
1488.87
1489.46
1489.99
1490.4
1491.06
1492.19
1492.83
1493.42
1494.02
1494.36
1494.47
1494.31
1494.08
1493.88
1493.81
1493.9
1494.09
1494.31
1494.54
1494.88
1495.02
1495.41
1495.56
1495.86
1496.32
1496.12
1495.72
1495.3
1494.94
1494.77
1461.85
1462.49
1463.16
1463.85
1464.56
1465.27
1465.98
1466.7
1467.42
1468.15
1468.88
1469.65
1470.38
1471.13
1473.09
1473.58
1474.01
1474.37
1474.63
1474.65
1474.47
1474.11
1473.69
1473.2
1473.04
1473.23
1473.62
1473.97
1474.21
1474.52
1474.77
1475.01
1475.43
1475.71
1476.21
1476.05
1475.7
1475.27
1474.74
1475.04
1440.98
1441.63
1442.32
1443.08
1443.85
1444.64
1445.42
1446.21
1447.01
1447.84
1448.69
1449.6
1450.55
1451.47
1453.6
1454.82
1455.29
1454.77
1454.72
1454.64
1454.42
1454.07
1453.38
1453.1
1453.27
1452.65
1453.26
1453.78
1454.03
1454.28
1454.55
1454.83
1455.28
1455.62
1455.83
1455.83
1455.73
1455.47
1454.74
1455.72
1419.85
1420.45
1421.13
1422.02
1422.93
1423.77
1424.61
1425.47
1426.34
1427.23
1428.16
1429.12
1430.16
1431.25
1432.16
1433.75
1435.95
1433.5
1434.13
1434.49
1434.72
1434.82
1434.58
1435.7
1437.36
1436.18
1434.12
1433.95
1434
1434.05
1434.25
1434.62
1435.01
1435.37
1435.63
1435.74
1435.39
1436.38
1435.7
1435.97
1398.61
1399.25
1401.19
1401.69
1401.72
1402.64
1403.53
1404.44
1405.37
1406.33
1407.3
1408.28
1409.29
1410.28
1411.19
1411.96
1412.59
1413.25
1414
1414.64
1415.23
1415.78
1416.13
1417.26
1417.83
1417.04
1416.11
1415.5
1414.84
1414.43
1414.29
1414.53
1414.91
1415.26
1415.55
1415.71
1415.7
1415.81
1417.4
1415.83
1377.5
1378.68
1379.79
1379.95
1380.45
1381.3
1382.2
1383.16
1384.15
1385.18
1386.22
1387.28
1388.32
1389.35
1390.33
1391.24
1392.11
1393
1393.87
1394.69
1395.51
1396.35
1397.18
1397.91
1398.5
1398.28
1398
1397.67
1397.29
1396.76
1396.32
1395.57
1395.21
1395.41
1395.72
1395.94
1395.99
1395.82
1396.3
1396.11
1355.94
1356.94
1357.61
1357.92
1358.66
1359.53
1360.46
1361.48
1362.59
1363.75
1364.9
1366.05
1367.2
1368.33
1369.43
1370.5
1371.54
1372.56
1373.57
1374.56
1375.54
1376.53
1377.58
1378.67
1379.46
1379.44
1379.93
1379.81
1379.5
1379.11
1378.66
1378.18
1377.56
1376.78
1376.5
1376.64
1376.86
1376.94
1376.98
1377.01
1333.59
1334.24
1334.99
1335.64
1336.45
1337.35
1338.37
1339.58
1340.8
1342.03
1343.34
1344.61
1345.87
1347.12
1348.36
1349.57
1350.76
1351.93
1353.07
1354.19
1355.29
1356.37
1357.43
1358.43
1359.1
1359.53
1360.59
1360.98
1361.18
1361.18
1360.88
1360.45
1359.99
1359.31
1358.52
1357.94
1358.02
1358.19
1358.26
1358.7
1310.73
1310.98
1311.81
1312.77
1313.78
1314.93
1316.33
1317.82
1319.16
1320.17
1321.57
1322.95
1324.33
1325.71
1327.1
1328.46
1329.8
1331.12
1332.41
1333.67
1334.9
1336.11
1337.28
1338.35
1339.76
1340.78
1341.31
1342.4
1342.72
1342.4
1342.04
1342.03
1341.8
1341.34
1340.81
1340.22
1339.62
1339.81
1340.13
1340.21
1286.1
1287.04
1288.19
1289.4
1290.64
1292.27
1293.72
1295.16
1296.61
1297.92
1299.37
1300.93
1302.48
1304.04
1305.6
1307.14
1308.65
1310.13
1311.57
1312.97
1314.31
1315.61
1316.85
1317.96
1319.22
1320.86
1321.5
1322.27
1322.17
1322.81
1323.35
1324.1
1324.58
1323.55
1323.1
1323.39
1321.53
1321.62
1322.3
1322.28
1261.76
1262.86
1264.11
1265.5
1266.97
1268.74
1270.44
1272.02
1273.43
1274.97
1276.71
1278.49
1280.28
1282.07
1283.84
1285.59
1287.31
1288.97
1290.59
1292.15
1293.65
1295.08
1296.43
1297.7
1298.9
1300.08
1301.24
1302.02
1302.58
1303.1
1303.32
1303.63
1304.94
1304.75
1303.19
1307.09
1305.49
1304.34
1304.25
1304.51
1236.69
1237.89
1239.25
1240.78
1242.46
1244.17
1245.97
1248.02
1249.47
1251.49
1253.56
1255.64
1257.72
1259.78
1261.81
1263.81
1265.76
1267.64
1269.47
1271.22
1272.89
1274.48
1275.98
1277.4
1278.73
1279.98
1281.15
1282.16
1283.03
1283.87
1286.47
1286.45
1285.34
1286.67
1286.7
1287.03
1289.73
1285.68
1285.74
1286.32
1210.8
1212.16
1213.67
1215.33
1217.14
1219.08
1221.09
1223.16
1225.35
1227.67
1230.05
1232.44
1234.82
1237.19
1239.51
1241.79
1244.01
1246.15
1248.21
1250.18
1252.05
1253.83
1255.51
1257.09
1258.56
1259.94
1261.21
1262.38
1263.46
1264.39
1265.46
1268.86
1267.07
1267.72
1268.65
1268.91
1272.47
1273.09
1267.22
1268.68
1184.58
1185.95
1187.5
1189.26
1191.23
1193.38
1195.69
1198.13
1200.69
1203.35
1206.07
1208.81
1211.55
1214.27
1216.93
1219.53
1222.06
1224.49
1226.81
1229.04
1231.15
1233.14
1235.02
1236.78
1238.43
1239.95
1241.37
1242.67
1243.86
1244.94
1245.95
1246.93
1248.03
1248.93
1249.96
1251
1253.78
1256.93
1250.37
1252.07
1157.78
1159.05
1160.61
1162.48
1164.62
1167.02
1169.64
1172.44
1175.39
1178.45
1181.58
1184.74
1187.89
1191.01
1194.06
1197.03
1199.91
1202.67
1205.3
1207.81
1210.18
1212.42
1214.53
1216.5
1218.34
1220.05
1221.63
1223.09
1224.44
1225.66
1226.79
1227.86
1228.87
1229.79
1230.63
1231.41
1232.06
1240.84
1233.94
1236.34
1130.15
1131.29
1132.85
1134.82
1137.16
1139.84
1142.8
1146.01
1149.4
1152.93
1156.53
1160.17
1163.8
1167.39
1170.89
1174.29
1177.56
1180.7
1183.68
1186.51
1189.18
1191.7
1194.06
1196.26
1198.32
1200.24
1202.01
1203.66
1205.17
1206.56
1207.83
1208.99
1210.04
1210.95
1211.72
1212.29
1212.64
1223.82
1217.39
1220.45
1101.4
1102.47
1104.06
1106.15
1108.71
1111.72
1115.09
1118.77
1122.68
1126.75
1130.91
1135.1
1139.28
1143.4
1147.41
1151.29
1155.03
1158.58
1161.96
1165.15
1168.16
1170.98
1173.62
1176.09
1178.4
1180.54
1182.54
1184.39
1186.1
1187.68
1189.13
1190.47
1191.69
1192.79
1193.77
1194.62
1195.4
1204.29
1200.91
1203.52
1071.65
1072.61
1074.18
1076.38
1079.19
1082.57
1086.44
1090.69
1095.21
1099.91
1104.7
1109.53
1114.32
1119.04
1123.62
1128.05
1132.29
1136.33
1140.15
1143.75
1147.13
1150.3
1153.25
1156.01
1158.59
1160.99
1163.23
1165.31
1167.25
1169.05
1170.73
1172.31
1173.79
1175.2
1176.58
1177.96
1179.52
1182.02
1185.31
1185.82
1041.21
1041.84
1043.26
1045.5
1048.54
1052.35
1056.82
1061.77
1067.03
1072.46
1077.98
1083.51
1088.99
1094.35
1099.56
1104.58
1109.39
1113.95
1118.26
1122.31
1126.11
1129.66
1132.96
1136.04
1138.92
1141.6
1144.1
1146.44
1148.62
1150.66
1152.58
1154.39
1156.12
1157.81
1159.48
1161.22
1163.16
1165.14
1169.63
1169.22
1010.22
1010.29
1011.44
1013.64
1016.94
1021.34
1026.56
1032.29
1038.36
1044.61
1050.93
1057.21
1063.4
1069.45
1075.32
1080.96
1086.36
1091.48
1096.32
1100.87
1105.12
1109.08
1112.77
1116.21
1119.41
1122.39
1125.18
1127.79
1130.23
1132.52
1134.67
1136.71
1138.67
1140.57
1142.46
1144.41
1146.51
1148.79
1153.83
1153.53
978.596
977.556
978.224
980.133
983.727
989.674
996.703
1003.57
1010.27
1017.07
1024.01
1030.97
1037.84
1044.55
1051.06
1057.32
1063.31
1069.01
1074.39
1079.45
1084.19
1088.61
1092.72
1096.54
1100.1
1103.41
1106.5
1109.4
1112.1
1114.64
1117.03
1119.3
1121.47
1123.58
1125.66
1127.79
1130.07
1132.64
1138.53
1138.43
943.409
940.464
942.755
945.624
947.212
953
963.832
975.078
984.001
991.099
998.049
1005.28
1012.61
1019.86
1026.94
1033.79
1040.35
1046.61
1052.54
1058.13
1063.38
1068.28
1072.84
1077.08
1081.02
1084.69
1088.11
1091.31
1094.29
1097.09
1099.72
1102.2
1104.58
1106.88
1109.16
1111.48
1113.98
1116.79
1123.69
1123.87
923.888
929.534
929.739
930.467
933.324
935.207
935.519
942.827
955.231
965.875
973.491
980.563
987.971
995.561
1003.1
1010.46
1017.57
1024.38
1030.85
1036.98
1042.74
1048.14
1053.18
1057.87
1062.23
1066.29
1070.06
1073.57
1076.84
1079.9
1082.76
1085.46
1088.03
1090.53
1093.01
1095.55
1098.32
1101.53
1108.62
1109.83
921.15
922.235
922.182
922.31
922.501
922.161
922.406
924.423
927.376
937.448
948.64
957.009
964.371
971.929
979.703
987.461
995.048
1002.38
1009.39
1016.05
1022.34
1028.26
1033.8
1038.97
1043.78
1048.25
1052.39
1056.23
1059.8
1063.12
1066.21
1069.11
1071.85
1074.5
1077.15
1079.87
1082.85
1086.35
1094.6
1096.02
916.388
916.849
917.112
917.276
917.166
916.219
914.87
913.294
912.621
913.978
921.424
932.352
941.552
949.276
956.967
964.901
972.862
980.664
988.202
995.408
1002.25
1008.71
1014.78
1020.45
1025.74
1030.64
1035.18
1039.38
1043.26
1046.85
1050.15
1053.22
1056.08
1058.84
1061.61
1064.5
1067.69
1071.52
1080.69
1082.43
910.962
912.196
912.952
912.831
912.035
910.513
908.315
905.656
902.973
901.067
899.893
905.474
915.819
926.057
934.573
942.688
950.955
959.221
967.3
975.082
982.503
989.536
996.164
1002.38
1008.17
1013.54
1018.51
1023.1
1027.31
1031.18
1034.69
1037.87
1040.78
1043.55
1046.39
1049.43
1052.87
1057.05
1066.29
1068.78
902.922
902.779
902.43
902.389
902.102
901.307
899.498
896.032
891.626
888.849
886.666
885.361
890.704
900.518
911.301
920.623
929.321
938.056
946.708
955.11
963.162
970.811
978.035
984.818
991.152
997.036
1002.48
1007.49
1012.09
1016.28
1020.05
1023.32
1026.06
1028.63
1031.46
1034.68
1038.39
1042.95
1052.07
1055.22
883.296
882.236
880.714
880.049
880.479
882.199
884.573
885.769
883.399
877.807
873.088
873.072
873.878
878.522
887.043
897.944
907.878
917.251
926.518
935.577
944.298
952.604
960.461
967.856
974.777
981.225
987.209
992.743
997.853
1002.6
1007
1010.57
1012.47
1013.66
1016.37
1020.09
1024.29
1029.24
1038.38
1041.9
851.428
849.76
849.678
850.772
852.73
855.447
858.804
862.607
866.613
869.279
866.462
861.265
863.484
863.804
867.425
875.662
886.693
897.026
906.925
916.613
925.998
934.975
943.489
951.522
959.071
966.14
972.751
978.938
984.782
990.518
996.315
1001.38
1002.34
998.411
1000.22
1005.29
1010.54
1016.06
1025.44
1029.03
822.647
823.551
825.222
827.433
830.107
833.206
836.678
840.487
844.658
849.168
853.194
854.342
852.096
852.449
853.3
856.843
866.005
877.217
887.928
898.248
908.27
917.902
927.064
935.727
943.884
951.547
958.742
965.517
971.969
978.388
985.243
991.789
1014.53
993.649
987.723
991.729
997.7
1003.74
1013.22
1016.77
795.223
797.816
800.905
804.119
807.562
811.308
815.359
819.709
824.39
829.498
835.111
840.429
841.946
841.137
841.536
842.038
847.3
858.241
869.633
880.55
891.125
901.34
911.092
920.321
929.006
937.142
944.74
951.814
958.358
964.426
970.55
977.542
998.606
992.054
978.833
979.64
985.68
992.791
1000.64
1004.84
766.254
773.681
778.975
782.562
786.264
790.381
794.836
799.606
804.704
810.171
816.097
822.34
826.912
826.396
830.788
830.327
832.215
840.794
852.173
863.482
874.481
885.181
895.453
905.195
914.364
922.955
930.996
938.54
945.613
952.302
959.694
971.208
983.905
992.625
963.931
965.287
972.213
980.586
988.879
994.02
739.613
752.722
761.339
764.4
767.118
770.9
775.349
780.25
785.593
791.403
797.766
804.812
811.886
815.753
816.842
817.908
814.293
821.841
834.002
846.195
857.827
869.075
879.865
890.077
899.653
908.584
916.898
924.654
931.881
938.611
945.699
956.563
968.719
981.837
957.866
955.534
960.834
969.293
977.806
983.898
744.278
734.856
743.375
747.458
749.263
752.296
756.436
761.251
766.62
772.517
778.94
785.955
793.389
799.184
799.797
804.608
802.589
807.132
817.878
829.869
841.615
853.128
864.262
874.811
884.661
893.774
902.158
909.862
916.913
923.262
929.421
938.532
951.336
969.716
951.819
945.985
949.514
957.775
967.014
973.984
720.76
712.564
720.921
727.722
730.255
733.152
737.214
742.042
747.446
753.377
759.79
766.676
773.903
779.753
779.914
792.421
790.111
791.63
800.782
812.773
824.839
836.736
848.256
859.128
869.196
878.398
886.729
894.23
900.913
906.663
911.723
919.044
931.787
956.189
943.832
934.904
936.785
944.845
954.989
963.409
701.828
695.251
700.453
707.426
710.621
713.711
717.841
722.748
728.265
734.381
741.125
748.597
756.979
765.655
771.259
774.987
776.89
765.032
778.042
792.824
806.439
819.311
831.481
842.765
853.048
862.291
870.503
877.73
883.989
889.13
893.209
898.905
910.821
940.501
933.061
922.028
920.312
929.275
939.089
949.08
685.361
675.56
679.773
686.609
690.469
694.051
698.37
703.329
708.862
715.015
721.857
729.507
738.161
747.513
754.696
756.665
760.788
747.498
759.655
774.735
788.687
801.908
814.37
825.827
836.148
845.306
853.324
860.264
866.16
870.848
874.228
878.665
889.911
921.245
918.279
902.612
898.559
907.894
920.169
932.164
668.562
654.451
661.087
667.881
671.762
675.344
679.441
684.075
689.268
695.093
701.63
709.004
717.437
726.779
734.533
737.017
744.926
728.639
742.059
757.155
771.083
784.302
796.712
808.035
818.153
827.061
834.828
841.582
847.475
852.52
856.792
862.803
878.474
897.01
904.244
871.73
869.426
880.577
896.347
909.917
648.092
648.45
651.298
653.658
655.385
657.862
661.129
665.028
669.54
674.701
680.569
687.266
695.023
703.737
711.25
716.545
727.154
709.943
724.877
739.535
753.009
765.851
777.827
788.66
798.249
806.61
813.833
820.081
825.534
830.246
834.236
839.583
854.072
871.515
880.141
848.383
842.51
852.579
869.598
883.577
624.073
628.835
634.505
636.858
638.365
640.427
643.046
646.166
649.84
654.114
659.022
664.624
670.95
677.177
680.212
698.829
697.104
696.924
709.268
721.744
733.905
745.76
756.83
766.777
775.489
782.981
789.356
794.787
799.467
803.449
806.679
810.939
824.272
841.721
850.773
819.705
811.646
820.592
838.079
853.137
611.715
618.442
621.72
622.2
622.758
623.974
625.659
627.797
630.481
633.787
637.785
642.583
648.148
653.163
654.738
678.507
670.22
677.914
689.251
700.472
711.668
722.511
732.479
741.282
748.844
755.204
760.489
764.892
768.623
771.75
774.229
777.898
791.091
808.129
815.993
784.011
774.947
783.569
800.713
816.109
596.434
606.226
608.467
608.006
607.868
608.215
608.868
609.892
611.441
613.656
616.69
620.727
625.469
629.437
633.576
651.798
643.733
654.566
665.167
675.479
685.677
695.273
703.848
711.212
717.331
722.278
726.208
729.334
731.888
733.971
735.718
739.514
753.352
770.158
774.335
741.475
732.989
742.644
759.068
773.654
583.421
595.35
597.825
596.224
594.726
593.695
592.917
592.484
592.579
593.393
595.117
597.752
600.169
602.297
611.354
614.056
620.95
629.589
638.24
646.999
655.564
663.409
670.201
675.794
680.174
683.424
685.701
687.211
688.158
688.655
689.263
693.806
707.257
726.392
729.071
694.794
687.733
698.364
712.406
726.838
566.215
580.387
588.76
587.444
583.575
580.329
577.645
575.368
573.66
572.754
572.663
572.844
572.565
580.888
586.633
587.938
594.284
600.421
606.988
613.846
620.391
626.159
630.889
634.469
636.903
638.271
638.713
638.395
637.406
635.641
634.14
639.398
648.501
675.477
672.054
653.62
643.559
651.965
662.892
675.27
547.986
558.4
574.889
579.769
574.277
567.778
562.633
558.251
554.538
551.574
548.82
546.075
550.741
553.366
554.04
557.948
561.595
565.623
570.248
574.961
579.24
582.737
585.242
586.673
587.062
586.497
585.124
583.145
580.612
577.597
576.345
585.941
602.493
617.849
608.009
593.099
591.125
598.836
610.459
619.58
546.606
551.06
563.214
572.861
566.951
556.107
547.544
540.508
534.283
528.541
524.827
523.069
520.719
521.068
521.448
522.032
523.286
525.283
527.666
529.993
531.933
533.249
533.741
533.29
531.93
529.613
526.326
522.422
517.653
511.866
509.667
515.095
551.342
558.852
549.249