/*--------------------------------*- C++ -*----------------------------------*\
  =========                 |
  \\      /  F ield         | OpenFOAM: The Open Source CFD Toolbox
   \\    /   O peration     | Website:  https://openfoam.org
    \\  /    A nd           | Version:  8
     \\/     M anipulation  |
\*---------------------------------------------------------------------------*/
FoamFile
{
    version     2.0;
    format      ascii;
    class       volVectorField;
    location    "3";
    object      U;
}
// * * * * * * * * * * * * * * * * * * * * * * * * * * * * * * * * * * * * * //

dimensions      [0 1 -1 0 0 0 0];

internalField   nonuniform List<vector> 
9150
(
(0.0538172 -0.428772 0)
(0.0879425 -0.622225 0)
(0.0730948 -0.631419 0)
(0.0486843 -0.643697 0)
(0.0170858 -0.654415 0)
(-0.016975 -0.654429 0)
(-0.0485941 -0.643734 0)
(-0.0730303 -0.63145 0)
(-0.0879049 -0.622257 0)
(-0.0538031 -0.42885 0)
(0.0408272 -0.522916 0)
(0.0574009 -0.625667 0)
(0.0420506 -0.6132 0)
(0.0294358 -0.622443 0)
(0.0105158 -0.628846 0)
(-0.0104467 -0.628853 0)
(-0.0293776 -0.622461 0)
(-0.0420058 -0.613216 0)
(-0.0573662 -0.625671 0)
(-0.04081 -0.522966 0)
(0.0252846 -0.558039 0)
(0.0324744 -0.613792 0)
(0.0229649 -0.604466 0)
(0.0172878 -0.609987 0)
(0.00625854 -0.613181 0)
(-0.00621837 -0.613184 0)
(-0.0172533 -0.609995 0)
(-0.0229391 -0.604475 0)
(-0.0324506 -0.613791 0)
(-0.0252704 -0.558063 0)
(0.0153859 -0.584775 0)
(0.0174529 -0.607452 0)
(0.01169 -0.601136 0)
(0.00888791 -0.603283 0)
(0.00324987 -0.604394 0)
(-0.00322884 -0.604394 0)
(-0.00886954 -0.603285 0)
(-0.0116763 -0.601139 0)
(-0.0174394 -0.60745 0)
(-0.0153776 -0.584784 0)
(0.0062755 -0.597174 0)
(0.00555087 -0.601388 0)
(0.00356585 -0.600039 0)
(0.00268348 -0.600348 0)
(0.000996282 -0.600482 0)
(-0.000989338 -0.600482 0)
(-0.00267738 -0.600348 0)
(-0.00356123 -0.60004 0)
(-0.00554634 -0.601388 0)
(-0.00627278 -0.597175 0)
(0.469718 -1.16187 1.51044e-24)
(0.28322 -1.08546 0)
(0.163743 -1.06895 0)
(0.0928254 -1.05741 0)
(0.0310151 -1.05288 0)
(-0.0297188 -1.05307 0)
(-0.091668 -1.05795 0)
(-0.162782 -1.06977 0)
(-0.282526 -1.08655 0)
(-0.469978 -1.16345 -1.52759e-24)
(0.334151 -0.843979 4.1526e-25)
(0.28727 -0.93657 0)
(0.188507 -0.936596 0)
(0.108558 -0.936562 0)
(0.0360948 -0.93902 0)
(-0.0353583 -0.93915 0)
(-0.107922 -0.936915 0)
(-0.188013 -0.937083 0)
(-0.28709 -0.937183 0)
(-0.334348 -0.844798 -4.18436e-25)
(0.279281 -0.702542 7.03626e-26)
(0.259125 -0.804604 0)
(0.178233 -0.817403 0)
(0.104832 -0.82824 0)
(0.0350617 -0.836398 0)
(-0.0346161 -0.836474 0)
(-0.104455 -0.828446 0)
(-0.177976 -0.817683 0)
(-0.259049 -0.804917 0)
(-0.279353 -0.702896 -7.11842e-26)
(0.200164 -0.55435 2.56999e-25)
(0.216795 -0.70937 0)
(0.154346 -0.72578 0)
(0.0915003 -0.741933 0)
(0.0306745 -0.753876 0)
(-0.0303995 -0.753922 0)
(-0.0912731 -0.742054 0)
(-0.154194 -0.725927 0)
(-0.216755 -0.709522 0)
(-0.200196 -0.554553 -2.56905e-25)
(0.118877 -0.445215 -4.23348e-25)
(0.156513 -0.644174 -6.07511e-25)
(0.116717 -0.6637 -2.0537e-25)
(0.0710086 -0.681142 -1.34741e-25)
(0.0240424 -0.69416 -7.7815e-27)
(-0.0238676 -0.694186 -7.64485e-27)
(-0.070866 -0.68121 -1.34399e-25)
(-0.116621 -0.663771 -2.0524e-25)
(-0.156477 -0.644246 -6.07508e-25)
(-0.118876 -0.44533 -4.23475e-25)
(0.0284702 -0.885413 0)
(-0.0264565 -1.33803 0)
(0.0301537 -1.27551 0)
(0.00313383 -1.22723 0)
(0.00754757 -1.22433 0)
(0.000129696 -1.2258 0)
(0.00996457 -1.22671 0)
(-0.0201767 -1.26935 0)
(0.0425898 -1.342 0)
(-0.0164539 -0.943976 0)
(0.0535953 -0.890462 0)
(-0.0150291 -1.33302 0)
(0.0274406 -1.27171 0)
(0.00598436 -1.225 0)
(0.00406933 -1.22266 0)
(0.00187162 -1.2239 0)
(0.00420255 -1.22472 0)
(-0.0211512 -1.27048 0)
(0.0268901 -1.33641 0)
(-0.0471384 -0.919511 0)
(0.0795791 -0.933464 0)
(-0.0184927 -1.34784 0)
(0.0195807 -1.2753 0)
(0.00912122 -1.23135 0)
(0.00225058 -1.22647 0)
(0.00247852 -1.22709 0)
(-0.00260717 -1.23161 0)
(-0.0158333 -1.27634 0)
(0.0268041 -1.34973 0)
(-0.0752801 -0.95264 0)
(0.144918 -1.07305 0)
(0.00523714 -1.36607 0)
(0.016685 -1.27123 0)
(0.0235287 -1.22565 0)
(0.00758098 -1.21445 0)
(-0.00387818 -1.21475 0)
(-0.0199172 -1.22649 0)
(-0.01462 -1.27249 0)
(0.00050865 -1.36715 0)
(-0.142735 -1.08283 0)
(0.29826 -1.21684 0)
(0.127575 -1.3216 0)
(0.0698793 -1.20999 0)
(0.0573427 -1.16858 0)
(0.0211598 -1.15636 0)
(-0.0189257 -1.15661 0)
(-0.0554936 -1.16949 0)
(-0.0680485 -1.21121 0)
(-0.124829 -1.32269 0)
(-0.297955 -1.22102 0)
(-0.0988819 0.00209229 0)
(-0.100484 0.00200265 0)
(-0.10198 0.00189492 0)
(-0.103355 0.0017641 0)
(-0.104594 0.00160502 0)
(-0.105682 0.00141128 0)
(-0.106597 0.00117912 0)
(-0.107319 0.000905772 0)
(-0.107831 0.000593213 0)
(-0.108118 0.00025384 0)
(-0.104334 0.00466542 0)
(-0.105548 0.00432182 0)
(-0.106623 0.00394365 0)
(-0.10755 0.00352926 0)
(-0.108325 0.00307694 0)
(-0.108943 0.00258494 0)
(-0.109402 0.00205328 0)
(-0.109704 0.00148249 0)
(-0.109855 0.000875909 0)
(-0.109865 0.000241489 0)
(-0.103023 0.0070928 0)
(-0.104194 0.00649131 0)
(-0.105245 0.00584309 0)
(-0.106171 0.00514916 0)
(-0.106969 0.0044107 0)
(-0.107636 0.00362979 0)
(-0.108169 0.00280949 0)
(-0.108567 0.00195387 0)
(-0.108827 0.00106845 0)
(-0.10895 0.000159114 0)
(-0.101758 0.00953444 0)
(-0.102924 0.00871687 0)
(-0.103983 0.00784408 0)
(-0.104931 0.00691784 0)
(-0.105766 0.00594008 0)
(-0.106484 0.00491316 0)
(-0.107081 0.00383997 0)
(-0.107554 0.00272398 0)
(-0.107899 0.00156908 0)
(-0.108114 0.000379336 0)
(-0.100766 0.0119641 0)
(-0.10194 0.0109483 0)
(-0.103018 0.00986967 0)
(-0.103996 0.00873018 0)
(-0.104871 0.00753203 0)
(-0.105639 0.00627773 0)
(-0.106297 0.00497022 0)
(-0.10684 0.00361283 0)
(-0.107266 0.00220919 0)
(-0.107571 0.000763251 0)
(-0.100061 0.0144172 0)
(-0.101257 0.0132215 0)
(-0.102365 0.0119559 0)
(-0.103381 0.0106226 0)
(-0.104302 0.00922355 0)
(-0.105125 0.00776141 0)
(-0.105847 0.00623913 0)
(-0.106463 0.00466005 0)
(-0.106971 0.00302791 0)
(-0.107368 0.001347 0)
(-0.0996487 0.0169178 0)
(-0.100877 0.0155565 0)
(-0.102025 0.0141188 0)
(-0.103087 0.0126067 0)
(-0.104061 0.0110223 0)
(-0.104944 0.00936804 0)
(-0.105733 0.00764711 0)
(-0.106423 0.00586302 0)
(-0.107013 0.00401982 0)
(-0.107499 0.00212229 0)
(-0.0995278 0.0194878 0)
(-0.100799 0.0179727 0)
(-0.101993 0.016375 0)
(-0.103108 0.0146964 0)
(-0.104141 0.0129387 0)
(-0.105087 0.0111048 0)
(-0.105944 0.0091978 0)
(-0.106709 0.00722148 0)
(-0.107377 0.00518028 0)
(-0.107948 0.00307958 0)
(-0.0996922 0.022146 0)
(-0.101013 0.0204866 0)
(-0.102262 0.0187381 0)
(-0.103436 0.0169019 0)
(-0.10453 0.0149801 0)
(-0.105542 0.0129752 0)
(-0.106468 0.0108906 0)
(-0.107304 0.00873027 0)
(-0.108048 0.00649915 0)
(-0.108696 0.00420316 0)
(-0.100135 0.0249089 0)
(-0.101514 0.0231123 0)
(-0.102824 0.0212196 0)
(-0.10406 0.019232 0)
(-0.10522 0.0171515 0)
(-0.106299 0.0149805 0)
(-0.107293 0.0127226 0)
(-0.108199 0.010382 0)
(-0.109012 0.00796379 0)
(-0.109729 0.00547464 0)
(-0.100849 0.0277919 0)
(-0.102293 0.0258629 0)
(-0.103669 0.02383 0)
(-0.104973 0.0216942 0)
(-0.106201 0.0194573 0)
(-0.107349 0.0171215 0)
(-0.108411 0.0146905 0)
(-0.109383 0.0121686 0)
(-0.110261 0.00956128 0)
(-0.111041 0.00687557 0)
(-0.101829 0.03081 0)
(-0.103345 0.0287512 0)
(-0.104794 0.0265797 0)
(-0.10617 0.0242963 0)
(-0.10747 0.0219021 0)
(-0.108688 0.0193994 0)
(-0.109818 0.0167917 0)
(-0.110855 0.0140834 0)
(-0.111794 0.0112801 0)
(-0.11263 0.00838933 0)
(-0.10307 0.0339786 0)
(-0.104666 0.0317909 0)
(-0.106194 0.0294803 0)
(-0.107649 0.027047 0)
(-0.109024 0.0244919 0)
(-0.110315 0.021817 0)
(-0.111514 0.0190255 0)
(-0.112615 0.0161218 0)
(-0.113613 0.0131115 0)
(-0.1145 0.0100025 0)
(-0.104571 0.0373149 0)
(-0.106255 0.0349971 0)
(-0.10787 0.0325445 0)
(-0.109409 0.0299567 0)
(-0.110866 0.0272344 0)
(-0.112233 0.0243791 0)
(-0.113504 0.0213937 0)
(-0.11467 0.0182822 0)
(-0.115725 0.0150502 0)
(-0.116661 0.0117056 0)
(-0.106334 0.0408378 0)
(-0.108116 0.0383869 0)
(-0.109827 0.0357871 0)
(-0.111457 0.033038 0)
(-0.113001 0.0301396 0)
(-0.11445 0.0270932 0)
(-0.115796 0.023901 0)
(-0.117031 0.0205662 0)
(-0.118144 0.0170942 0)
(-0.119128 0.0134928 0)
(-0.108365 0.0445692 0)
(-0.110256 0.0419797 0)
(-0.112072 0.0392258 0)
(-0.113804 0.0363062 0)
(-0.115443 0.0332201 0)
(-0.11698 0.0299692 0)
(-0.118406 0.0265546 0)
(-0.119712 0.0229788 0)
(-0.120886 0.0192459 0)
(-0.12192 0.0153624 0)
(-0.110674 0.0485353 0)
(-0.112689 0.0457989 0)
(-0.114622 0.0428812 0)
(-0.116465 0.0397793 0)
(-0.118207 0.0364918 0)
(-0.119841 0.0330202 0)
(-0.121354 0.0293649 0)
(-0.122737 0.0255287 0)
(-0.123978 0.0215121 0)
(-0.125065 0.0173179 0)
(-0.113282 0.0527675 0)
(-0.115435 0.0498714 0)
(-0.117499 0.046776 0)
(-0.119464 0.0434766 0)
(-0.121322 0.0399717 0)
(-0.123061 0.0362607 0)
(-0.12467 0.0323444 0)
(-0.126137 0.0282261 0)
(-0.12745 0.0239061 0)
(-0.128596 0.0193727 0)
(-0.116211 0.0573017 0)
(-0.118518 0.0542292 0)
(-0.12073 0.0509401 0)
(-0.122837 0.047427 0)
(-0.124827 0.043688 0)
(-0.12669 0.0397189 0)
(-0.12841 0.0355195 0)
(-0.129974 0.0310969 0)
(-0.131365 0.0264414 0)
(-0.132558 0.0215095 0)
(-0.119479 0.0621679 0)
(-0.121957 0.0589075 0)
(-0.124337 0.055412 0)
(-0.126604 0.0516697 0)
(-0.128743 0.0476764 0)
(-0.13074 0.0434273 0)
(-0.132578 0.0389152 0)
(-0.134236 0.034134 0)
(-0.135681 0.0290662 0)
(-0.136893 0.0236819 0)
(-0.123118 0.0674026 0)
(-0.1258 0.063948 0)
(-0.128376 0.0602311 0)
(-0.130825 0.0562378 0)
(-0.133128 0.0519624 0)
(-0.135268 0.0473928 0)
(-0.137221 0.0425097 0)
(-0.138956 0.0373066 0)
(-0.14045 0.0317674 0)
(-0.141691 0.025891 0)
(-0.127149 0.0730933 0)
(-0.130079 0.069431 0)
(-0.132889 0.0654617 0)
(-0.135549 0.0611757 0)
(-0.138034 0.0565651 0)
(-0.140322 0.0516093 0)
(-0.142387 0.0462872 0)
(-0.144202 0.0405975 0)
(-0.145747 0.034528 0)
(-0.147002 0.028093 0)
(-0.131692 0.0793124 0)
(-0.134895 0.0754203 0)
(-0.137962 0.0711596 0)
(-0.140854 0.0665249 0)
(-0.143539 0.0615114 0)
(-0.145993 0.0560994 0)
(-0.14819 0.0502731 0)
(-0.150115 0.0440372 0)
(-0.151748 0.0373669 0)
(-0.153058 0.0303105 0)
(-0.136706 0.0861299 0)
(-0.140226 0.0819754 0)
(-0.143587 0.077379 0)
(-0.146742 0.0723368 0)
(-0.149657 0.0668501 0)
(-0.152307 0.0609197 0)
(-0.154672 0.0545329 0)
(-0.156732 0.0476961 0)
(-0.158437 0.0404205 0)
(-0.159788 0.0327431 0)
(-0.142144 0.0936428 0)
(-0.146023 0.0891804 0)
(-0.149713 0.0841889 0)
(-0.153164 0.0786664 0)
(-0.156332 0.0726235 0)
(-0.159181 0.0660833 0)
(-0.161689 0.0590737 0)
(-0.163812 0.0516309 0)
(-0.165554 0.0435761 0)
(-0.166766 0.0348086 0)
(-0.147905 0.101936 0)
(-0.152174 0.0971165 0)
(-0.156224 0.0916681 0)
(-0.160003 0.0855901 0)
(-0.16346 0.0789002 0)
(-0.166539 0.0716416 0)
(-0.169167 0.0638658 0)
(-0.171302 0.0554366 0)
(-0.172831 0.0461666 0)
(-0.173659 0.0361433 0)
(-0.153794 0.11104 0)
(-0.15843 0.105809 0)
(-0.162816 0.0998466 0)
(-0.166901 0.0931404 0)
(-0.17063 0.085696 0)
(-0.173928 0.077523 0)
(-0.176687 0.0686464 0)
(-0.178813 0.059029 0)
(-0.180207 0.0483883 0)
(-0.180824 0.0367668 0)
(-0.159557 0.120875 0)
(-0.16449 0.115143 0)
(-0.169111 0.108584 0)
(-0.173392 0.101183 0)
(-0.177293 0.0929187 0)
(-0.180746 0.0837373 0)
(-0.183626 0.073575 0)
(-0.185789 0.0623996 0)
(-0.187166 0.0502283 0)
(-0.187765 0.0371964 0)
(-0.165101 0.1313 0)
(-0.170208 0.124917 0)
(-0.174936 0.117665 0)
(-0.179292 0.109525 0)
(-0.183274 0.100445 0)
(-0.186867 0.0902912 0)
(-0.189948 0.0788446 0)
(-0.192296 0.066033 0)
(-0.193697 0.0521035 0)
(-0.194169 0.0375352 0)
(-0.170435 0.141917 0)
(-0.175507 0.134732 0)
(-0.180249 0.126673 0)
(-0.184595 0.117701 0)
(-0.188587 0.107754 0)
(-0.192272 0.0967975 0)
(-0.19548 0.0844081 0)
(-0.198041 0.0703111 0)
(-0.1996 0.0543494 0)
(-0.19993 0.0376314 0)
(-0.174829 0.152995 0)
(-0.180271 0.144867 0)
(-0.185443 0.13592 0)
(-0.190254 0.126174 0)
(-0.194671 0.115877 0)
(-0.198884 0.105349 0)
(-0.202387 0.0911421 0)
(-0.204251 0.0734576 0)
(-0.204597 0.0546846 0)
(-0.204238 0.0367148 0)
(-0.179015 0.164361 0)
(-0.184744 0.155675 0)
(-0.190257 0.146464 0)
(-0.195566 0.136732 0)
(-0.200491 0.125219 0)
(-0.203815 0.111889 0)
(-0.205533 0.0942102 0)
(-0.206183 0.0743145 0)
(-0.206414 0.054771 0)
(-0.206479 0.0361196 0)
(-0.18114 0.176314 0)
(-0.187096 0.167755 0)
(-0.193114 0.158149 0)
(-0.198372 0.146402 0)
(-0.201861 0.132305 0)
(-0.203888 0.114894 0)
(-0.204829 0.0953775 0)
(-0.205557 0.0756168 0)
(-0.20621 0.0557892 0)
(-0.20668 0.0359909 0)
(-0.181802 0.189152 0)
(-0.187687 0.179807 0)
(-0.192742 0.168259 0)
(-0.196024 0.153962 0)
(-0.1984 0.136231 0)
(-0.19986 0.117212 0)
(-0.201043 0.0979363 0)
(-0.202342 0.0777302 0)
(-0.203557 0.0573197 0)
(-0.204457 0.0367313 0)
(-0.181488 0.201219 0)
(-0.186081 0.189441 0)
(-0.188999 0.174447 0)
(-0.190895 0.157904 0)
(-0.19231 0.139448 0)
(-0.19358 0.120525 0)
(-0.195131 0.100803 0)
(-0.196676 0.080518 0)
(-0.198173 0.0597884 0)
(-0.199522 0.0386083 0)
(-0.178423 0.209551 0)
(-0.180789 0.194016 0)
(-0.181909 0.176736 0)
(-0.182551 0.159758 0)
(-0.18313 0.14181 0)
(-0.184196 0.123066 0)
(-0.185523 0.103675 0)
(-0.187082 0.0836481 0)
(-0.188836 0.0629611 0)
(-0.190685 0.0415618 0)
(-0.162676 0.21444 0)
(-0.164323 0.196598 0)
(-0.165654 0.179015 0)
(-0.166611 0.161461 0)
(-0.167524 0.143653 0)
(-0.168594 0.125423 0)
(-0.169959 0.106664 0)
(-0.171704 0.0872544 0)
(-0.173848 0.0670597 0)
(-0.176341 0.0459212 0)
(-0.14637 0.216179 0)
(-0.146385 0.19832 0)
(-0.146448 0.180592 0)
(-0.146623 0.162954 0)
(-0.147002 0.145413 0)
(-0.14765 0.127764 0)
(-0.148716 0.10982 0)
(-0.150331 0.0913772 0)
(-0.152601 0.0721878 0)
(-0.155574 0.0519351 0)
(-0.126218 0.215414 0)
(-0.125428 0.197537 0)
(-0.124552 0.179987 0)
(-0.123758 0.162726 0)
(-0.123153 0.145726 0)
(-0.122855 0.128882 0)
(-0.123011 0.112058 0)
(-0.123799 0.0950622 0)
(-0.125437 0.0776027 0)
(-0.12817 0.0591999 0)
(-0.106867 0.212323 0)
(-0.104639 0.194392 0)
(-0.102504 0.176975 0)
(-0.1005 0.160025 0)
(-0.0986689 0.143504 0)
(-0.0970689 0.127372 0)
(-0.0957879 0.111572 0)
(-0.0949718 0.0959998 0)
(-0.0948962 0.0804258 0)
(-0.0960553 0.0643356 0)
(-0.0875963 0.206776 0)
(-0.0848441 0.189064 0)
(-0.082213 0.171871 0)
(-0.0797279 0.155168 0)
(-0.0774107 0.138944 0)
(-0.075297 0.123198 0)
(-0.0734477 0.107927 0)
(-0.0719909 0.0931592 0)
(-0.0712077 0.0791062 0)
(-0.0711311 0.0662355 0)
(-0.0715566 0.200834 0)
(-0.0689225 0.183522 0)
(-0.0666404 0.166755 0)
(-0.0647367 0.150537 0)
(-0.0632784 0.134876 0)
(-0.0624068 0.119774 0)
(-0.0623087 0.10524 0)
(-0.0629455 0.0915592 0)
(-0.0640267 0.0798351 0)
(-0.0655996 0.0694388 0)
(-0.0592485 0.195648 0)
(-0.0576009 0.179285 0)
(-0.0565697 0.163524 0)
(-0.0562278 0.148405 0)
(-0.0567292 0.133966 0)
(-0.0582889 0.120327 0)
(-0.0606979 0.108219 0)
(-0.0639773 0.0977193 0)
(-0.0685634 0.0873355 0)
(-0.0753981 0.0745034 0)
(-0.0507592 0.1931 0)
(-0.0510103 0.178219 0)
(-0.0522387 0.16403 0)
(-0.0546226 0.150575 0)
(-0.0582069 0.138102 0)
(-0.062437 0.127883 0)
(-0.0680827 0.120047 0)
(-0.0784819 0.111081 0)
(-0.0903851 0.098699 0)
(-0.0947931 0.0818854 0)
(-0.0453962 0.194961 0)
(-0.0482943 0.182194 0)
(-0.0526523 0.170321 0)
(-0.0584096 0.159715 0)
(-0.0653254 0.1514 0)
(-0.0754222 0.14638 0)
(-0.0939475 0.14371 0)
(-0.108306 0.137414 0)
(-0.113348 0.119621 0)
(-0.115805 0.0908587 0)
(-0.0412968 0.202073 0)
(-0.0469526 0.191996 0)
(-0.0536611 0.183646 0)
(-0.0618613 0.178362 0)
(-0.075696 0.17814 0)
(-0.098197 0.183688 0)
(-0.108441 0.174328 0)
(-0.110748 0.148624 0)
(-0.104488 0.109569 0)
(-0.0958856 0.0714877 0)
(-0.0362357 0.214091 0)
(-0.0435205 0.206879 0)
(-0.0517271 0.202995 0)
(-0.0649847 0.207333 0)
(-0.0829302 0.217467 0)
(-0.0877063 0.202245 0)
(-0.0825891 0.16633 0)
(-0.0761861 0.129885 0)
(-0.0709652 0.0950019 0)
(-0.0659906 0.0612223 0)
(-0.0271175 0.229679 0)
(-0.0349915 0.22535 0)
(-0.0461503 0.227452 0)
(-0.0588031 0.235563 0)
(-0.0582967 0.219982 0)
(-0.0527831 0.187465 0)
(-0.0483364 0.155379 0)
(-0.0448119 0.123562 0)
(-0.0420757 0.0900639 0)
(-0.0395179 0.0545764 0)
(-0.0125455 0.246865 0)
(-0.0208819 0.244761 0)
(-0.0297366 0.247281 0)
(-0.0295184 0.233522 0)
(-0.0249054 0.207227 0)
(-0.0206454 0.179701 0)
(-0.0175884 0.151049 0)
(-0.0158802 0.120024 0)
(-0.0152412 0.0865051 0)
(-0.0148659 0.0502181 0)
(0.0100246 0.261093 0)
(0.00509015 0.260326 0)
(0.000536651 0.249569 0)
(0.00352981 0.225163 0)
(0.00790362 0.200228 0)
(0.0117058 0.174647 0)
(0.0143673 0.147602 0)
(0.0154755 0.118827 0)
(0.0145706 0.0874055 0)
(0.0121791 0.0514198 0)
(0.0239065 0.270947 0)
(0.0193801 0.263961 0)
(0.0239746 0.240021 0)
(0.0311016 0.214861 0)
(0.0372424 0.190903 0)
(0.0426802 0.166622 0)
(0.0469309 0.142109 0)
(0.0492178 0.117087 0)
(0.0485749 0.0905703 0)
(0.0439011 0.0590151 0)
(0.0549955 0.283485 0)
(0.0527651 0.260849 0)
(0.0551507 0.229571 0)
(0.0600292 0.20353 0)
(0.0651929 0.179505 0)
(0.0697149 0.15683 0)
(0.0728153 0.135423 0)
(0.0734113 0.115536 0)
(0.071392 0.0977976 0)
(0.0656562 0.0815654 0)
(0.0641815 0.284346 0)
(0.0730746 0.252792 0)
(0.0779748 0.22019 0)
(0.0816647 0.194363 0)
(0.0859123 0.171437 0)
(0.0887669 0.151193 0)
(0.0892772 0.133537 0)
(0.087119 0.118772 0)
(0.0831319 0.10778 0)
(0.0756814 0.10187 0)
(0.0774613 0.263449 0)
(0.088305 0.23968 0)
(0.0968473 0.21005 0)
(0.10013 0.185516 0)
(0.102984 0.165772 0)
(0.104658 0.149792 0)
(0.103595 0.136811 0)
(0.100229 0.126786 0)
(0.0954976 0.120308 0)
(0.0893431 0.115717 0)
(0.0934654 0.238196 0)
(0.102851 0.221158 0)
(0.112021 0.198836 0)
(0.117091 0.177163 0)
(0.118973 0.161665 0)
(0.119303 0.150697 0)
(0.117219 0.142233 0)
(0.113322 0.136048 0)
(0.108086 0.132343 0)
(0.100951 0.124288 0)
(0.111195 0.220449 0)
(0.120044 0.204147 0)
(0.128254 0.185067 0)
(0.131364 0.169919 0)
(0.132025 0.160345 0)
(0.131172 0.153474 0)
(0.128413 0.148255 0)
(0.124717 0.14466 0)
(0.120858 0.143459 0)
(0.113972 0.126783 0)
(0.120706 0.198123 0)
(0.129815 0.186214 0)
(0.134617 0.175965 0)
(0.136972 0.167855 0)
(0.137611 0.162055 0)
(0.136428 0.157876 0)
(0.133555 0.155053 0)
(0.129529 0.153568 0)
(0.126504 0.154109 0)
(0.128127 0.10505 0)
(0.116831 0.179841 0)
(0.124647 0.173878 0)
(0.13087 0.168518 0)
(0.135317 0.164056 0)
(0.137914 0.161239 0)
(0.138615 0.160296 0)
(0.137298 0.160807 0)
(0.133986 0.163277 0)
(0.125646 0.160617 0)
(0.148054 0.0291931 0)
(0.112259 0.164868 0)
(0.120257 0.159759 0)
(0.127689 0.156141 0)
(0.134091 0.154574 0)
(0.138964 0.155429 0)
(0.141581 0.158212 0)
(0.142508 0.162868 0)
(0.143112 0.172156 0)
(0.149155 0.133989 0)
(0.196654 -0.0508605 0)
(0.110604 0.148622 0)
(0.119169 0.143437 0)
(0.128387 0.140961 0)
(0.137549 0.142215 0)
(0.14458 0.146133 0)
(0.149493 0.149312 0)
(0.154912 0.151677 0)
(0.174548 0.147627 0)
(0.19699 0.0708945 0)
(0.232981 -0.109864 0)
(0.111039 0.131785 0)
(0.120974 0.123915 0)
(0.133408 0.11916 0)
(0.147338 0.119809 0)
(0.1627 0.125864 0)
(0.185114 0.13146 0)
(0.2366 0.130132 0)
(0.262728 0.109617 0)
(0.274528 0.0348003 0)
(0.274781 -0.127855 0)
(0.114027 0.11476 0)
(0.123662 0.101466 0)
(0.135782 0.0883995 0)
(0.150364 0.0735091 0)
(0.174515 0.0513482 0)
(0.228583 0.0100751 0)
(0.258686 0.0137934 0)
(0.29352 0.0353491 0)
(0.317942 0.0241814 0)
(0.307704 -0.0991835 0)
(0.127129 0.0990106 0)
(0.136116 0.0802002 0)
(0.147553 0.0590156 0)
(0.160924 0.0323101 0)
(0.17317 0.00537391 0)
(0.183411 -0.00891121 0)
(0.192951 -0.0119305 0)
(0.2056 -0.0127929 0)
(0.233701 -0.0162638 0)
(0.277988 -0.0999928 0)
(0.144734 0.0852053 0)
(0.151804 0.0621394 0)
(0.160773 0.0384254 0)
(0.170226 0.014687 0)
(0.178917 -0.00660267 0)
(0.187259 -0.024272 0)
(0.197167 -0.0395522 0)
(0.207942 -0.0563177 0)
(0.222425 -0.0821223 0)
(0.261778 -0.168916 0)
(0.164124 0.0772913 0)
(0.168478 0.0492865 0)
(0.17557 0.0215815 0)
(0.184215 -0.00360631 0)
(0.193023 -0.0248185 0)
(0.201516 -0.0428814 0)
(0.210183 -0.0598123 0)
(0.221613 -0.0825305 0)
(0.242996 -0.135082 0)
(0.292393 -0.258834 0)
(0.177686 0.0695638 0)
(0.180692 0.0393907 0)
(0.186146 0.00892856 0)
(0.194873 -0.0207152 0)
(0.204191 -0.0409711 0)
(0.211732 -0.0565428 0)
(0.220594 -0.0786075 0)
(0.24023 -0.122457 0)
(0.287637 -0.232766 0)
(0.335795 -0.345111 0)
(0.168878 0.0698828 0)
(0.176848 0.0288707 0)
(0.183882 -0.0134172 0)
(0.190369 -0.0397618 0)
(0.196806 -0.0524095 0)
(0.206718 -0.067419 0)
(0.231098 -0.119445 0)
(0.269084 -0.216063 0)
(0.320612 -0.32606 0)
(0.377534 -0.449718 0)
(0.136835 0.0445744 0)
(0.145657 0.0158634 0)
(0.152629 -0.0203799 0)
(0.154 -0.048517 0)
(0.154901 -0.0720981 0)
(0.171553 -0.120978 0)
(0.215069 -0.205861 0)
(0.277296 -0.315638 0)
(0.348744 -0.45887 0)
(0.411861 -0.571426 0)
(0.103746 0.0235322 0)
(0.106856 0.00233524 0)
(0.108114 -0.0205974 0)
(0.108849 -0.0473257 0)
(0.123024 -0.103327 0)
(0.162575 -0.196508 0)
(0.226703 -0.328105 0)
(0.312297 -0.486665 0)
(0.37691 -0.592422 0)
(0.413877 -0.641225 0)
(0.0615199 0.0179377 0)
(0.0710397 -0.000325947 0)
(0.0799793 -0.0235496 0)
(0.0929381 -0.0662599 0)
(0.123988 -0.165121 0)
(0.185992 -0.324302 0)
(0.268569 -0.510582 0)
(0.330171 -0.611505 0)
(0.370432 -0.665304 0)
(0.405464 -0.703194 0)
(0.0277688 -0.00420455 0)
(0.0419781 -0.0278469 0)
(0.0493184 -0.0592479 0)
(0.0714819 -0.126137 0)
(0.136233 -0.304786 0)
(0.218381 -0.510748 0)
(0.276313 -0.621961 0)
(0.319522 -0.687903 0)
(0.362185 -0.739185 0)
(0.405944 -0.78505 0)
(0.0280392 -0.0309905 0)
(0.0419483 -0.0642732 0)
(0.0568381 -0.113469 0)
(0.0860999 -0.212818 0)
(0.15716 -0.462446 0)
(0.218066 -0.624053 0)
(0.26801 -0.71377 0)
(0.318376 -0.781124 0)
(0.368868 -0.836762 0)
(0.417619 -0.881974 0)
(0.0612975 -0.0525318 0)
(0.0769595 -0.0981792 0)
(0.0925627 -0.165548 0)
(0.125485 -0.293322 0)
(0.183402 -0.555969 0)
(0.239966 -0.722993 0)
(0.290305 -0.819013 0)
(0.34167 -0.886086 0)
(0.389466 -0.936237 0)
(0.432973 -0.973798 0)
(0.0824334 -0.0825111 0)
(0.0875115 -0.122924 0)
(0.0906634 -0.186528 0)
(0.124127 -0.381086 0)
(0.214733 -0.695229 0)
(0.268766 -0.841989 0)
(0.317143 -0.922588 0)
(0.363092 -0.978307 0)
(0.402349 -1.01896 0)
(0.436458 -1.04742 0)
(0.0809523 -0.0946184 0)
(0.0811499 -0.118096 0)
(0.0664942 -0.175726 0)
(0.142707 -0.576559 0)
(0.241244 -0.840539 0)
(0.28881 -0.950979 0)
(0.329002 -1.00967 0)
(0.366728 -1.05224 0)
(0.397361 -1.08311 0)
(0.422822 -1.10248 0)
(0.0657525 -0.0912878 0)
(0.060709 -0.102099 0)
(0.0647778 -0.310656 0)
(0.210536 -0.766248 0)
(0.264685 -0.962036 0)
(0.298839 -1.03594 0)
(0.329073 -1.07746 0)
(0.356765 -1.10892 0)
(0.37891 -1.13072 0)
(0.396706 -1.14146 0)
(0.0549413 -0.0823648 0)
(0.0526711 -0.127121 0)
(0.136988 -0.472533 0)
(0.244528 -0.920911 0)
(0.278046 -1.04246 0)
(0.299273 -1.09126 0)
(0.319951 -1.12357 0)
(0.338118 -1.14787 0)
(0.352659 -1.16263 0)
(0.363867 -1.16593 0)
(0.0589196 -0.0884052 0)
(0.0766489 -0.220117 0)
(0.212156 -0.738489 0)
(0.254511 -0.994587 0)
(0.277264 -1.08223 0)
(0.290547 -1.12314 0)
(0.303076 -1.15205 0)
(0.314056 -1.17225 0)
(0.32287 -1.18181 0)
(0.329015 -1.17875 0)
(0.0439352 -0.105982 0)
(0.106481 -0.406863 0)
(0.226397 -0.907823 0)
(0.252537 -1.05159 0)
(0.26451 -1.10762 0)
(0.273156 -1.14292 0)
(0.280948 -1.16981 0)
(0.287741 -1.18719 0)
(0.292996 -1.19259 0)
(0.295924 -1.18394 0)
(0.0350932 -0.169217 0)
(0.156378 -0.671601 0)
(0.215045 -0.986019 0)
(0.238498 -1.08007 0)
(0.24505 -1.12266 0)
(0.250736 -1.15574 0)
(0.256444 -1.18152 0)
(0.261392 -1.19664 0)
(0.264816 -1.19839 0)
(0.265996 -1.18479 0)
(0.0844393 -0.227791 0)
(0.201756 -0.865995 0)
(0.215497 -1.02807 0)
(0.222068 -1.08917 0)
(0.224629 -1.1298 0)
(0.228037 -1.16438 0)
(0.232545 -1.19032 0)
(0.236787 -1.2037 0)
(0.239688 -1.20226 0)
(0.240781 -1.18487 0)
(0.0747625 -0.512596 0)
(0.170338 -0.943851 0)
(0.192439 -1.04726 0)
(0.194773 -1.09423 0)
(0.197611 -1.13629 0)
(0.202577 -1.17345 0)
(0.208253 -1.19968 0)
(0.213094 -1.21099 0)
(0.216166 -1.20617 0)
(0.217083 -1.18554 0)
(0.132245 -0.822705 0)
(0.155346 -0.981449 0)
(0.166545 -1.04802 0)
(0.168493 -1.09781 0)
(0.172411 -1.14535 0)
(0.178882 -1.18525 0)
(0.185719 -1.21093 0)
(0.191266 -1.21927 0)
(0.194719 -1.21034 0)
(0.195717 -1.18583 0)
(0.126373 -0.873322 0)
(0.132449 -0.992538 0)
(0.136221 -1.05098 0)
(0.140253 -1.10607 0)
(0.147299 -1.15853 0)
(0.155894 -1.20012 0)
(0.163995 -1.22414 0)
(0.170341 -1.22873 0)
(0.174445 -1.21514 0)
(0.176093 -1.18591 0)
(0.0773687 -0.869345 0)
(0.096782 -0.993518 0)
(0.103626 -1.05976 0)
(0.112203 -1.12173 0)
(0.122867 -1.1778 0)
(0.133743 -1.21922 0)
(0.143102 -1.24015 0)
(0.15031 -1.24042 0)
(0.155428 -1.22222 0)
(0.158412 -1.18797 0)
(0.0481222 -0.920079 0)
(0.0652713 -1.01471 0)
(0.0767926 -1.08143 0)
(0.0892435 -1.14562 0)
(0.101927 -1.20212 0)
(0.113665 -1.24118 0)
(0.123299 -1.25802 0)
(0.130922 -1.25439 0)
(0.137254 -1.23323 0)
(0.142243 -1.19668 0)
(0.0339628 -0.954679 0)
(0.0448286 -1.04073 0)
(0.0576187 -1.10751 0)
(0.0715023 -1.17208 0)
(0.0845497 -1.22737 0)
(0.0955705 -1.26253 0)
(0.103929 -1.27464 0)
(0.110391 -1.26773 0)
(0.115946 -1.24514 0)
(0.120218 -1.2082 0)
(0.0301997 -0.979711 0)
(0.0366306 -1.0649 0)
(0.0475639 -1.13279 0)
(0.0602922 -1.19719 0)
(0.0719618 -1.25012 0)
(0.0807695 -1.27998 0)
(0.0865818 -1.2869 0)
(0.0907343 -1.27709 0)
(0.094346 -1.25338 0)
(0.0973538 -1.21568 0)
(0.0292645 -0.986286 0)
(0.0345277 -1.08324 0)
(0.0433322 -1.15427 0)
(0.0540478 -1.21844 0)
(0.063573 -1.26818 0)
(0.0695525 -1.292 0)
(0.0727035 -1.29427 0)
(0.0749273 -1.28267 0)
(0.0777382 -1.25852 0)
(0.0809935 -1.21977 0)
(0.0276911 -0.995449 0)
(0.0337457 -1.09835 0)
(0.0409961 -1.1718 0)
(0.0498608 -1.23556 0)
(0.057191 -1.28121 0)
(0.0604443 -1.299 0)
(0.0617078 -1.29835 0)
(0.063296 -1.28729 0)
(0.0671113 -1.26549 0)
(0.0708797 -1.2292 0)
(0.0199795 -1.00393 0)
(0.0284728 -1.11081 0)
(0.035982 -1.18694 0)
(0.0443608 -1.25002 0)
(0.0499204 -1.28966 0)
(0.0507891 -1.30186 0)
(0.0507753 -1.30013 0)
(0.051846 -1.2916 0)
(0.0556462 -1.27552 0)
(0.0576314 -1.24744 0)
(0.0078258 -1.0186 0)
(0.0186245 -1.12572 0)
(0.0280018 -1.20324 0)
(0.0368879 -1.26387 0)
(0.0408702 -1.29409 0)
(0.0397541 -1.30142 0)
(0.0388207 -1.29942 0)
(0.0385493 -1.29318 0)
(0.0397108 -1.28305 0)
(0.0380605 -1.266 0)
(-0.0049008 -1.04144 0)
(0.00753665 -1.14601 0)
(0.0194244 -1.22267 0)
(0.0286525 -1.27738 0)
(0.0311019 -1.2949 0)
(0.0285099 -1.29881 0)
(0.0272034 -1.29667 0)
(0.0256218 -1.29101 0)
(0.0238213 -1.284 0)
(0.0202248 -1.27479 0)
(-0.0117657 -1.07148 0)
(0.000706055 -1.17104 0)
(0.0140314 -1.24437 0)
(0.0217397 -1.28849 0)
(0.022615 -1.29259 0)
(0.0185838 -1.2948 0)
(0.0170129 -1.2926 0)
(0.0143549 -1.28574 0)
(0.0100803 -1.27881 0)
(0.00555482 -1.27272 0)
(-0.00724607 -1.10764 0)
(0.00099723 -1.19655 0)
(0.0134104 -1.26504 0)
(0.0173326 -1.29416 0)
(0.0172294 -1.28767 0)
(0.0114628 -1.28918 0)
(0.00953987 -1.28751 0)
(0.00647993 -1.27815 0)
(0.000728373 -1.26873 0)
(-0.00442939 -1.26282 0)
(0.00574264 -1.14787 0)
(0.00703916 -1.21583 0)
(0.017482 -1.28024 0)
(0.0158769 -1.2921 0)
(0.0156213 -1.27991 0)
(0.00757335 -1.28119 0)
(0.00499785 -1.28163 0)
(0.00208336 -1.26976 0)
(-0.00406232 -1.25555 0)
(-0.00963534 -1.24782 0)
(0.0255381 -1.15708 0)
(0.0181897 -1.21971 0)
(0.0257729 -1.28662 0)
(0.0160233 -1.28226 0)
(0.0159688 -1.26916 0)
(0.00551459 -1.27064 0)
(0.00250225 -1.27523 0)
(-0.000399464 -1.2631 0)
(-0.00500332 -1.2413 0)
(-0.0100549 -1.22832 0)
(0.0233547 -1.12806 0)
(0.0158992 -1.21919 0)
(0.0300158 -1.28835 0)
(0.0135657 -1.26816 0)
(0.0151754 -1.25674 0)
(0.00301866 -1.25836 0)
(0.000840549 -1.26731 0)
(-0.00349465 -1.26092 0)
(-0.00248007 -1.22903 0)
(-0.00556502 -1.20222 0)
(0.0111218 -1.06697 0)
(0.00596954 -1.23267 0)
(0.033429 -1.28753 0)
(0.0103829 -1.25283 0)
(0.0135064 -1.24411 0)
(0.00021771 -1.24548 0)
(0.000756901 -1.25491 0)
(-0.0101962 -1.26376 0)
(0.00328699 -1.22487 0)
(0.000490592 -1.16211 0)
(0.0180846 -0.990273 0)
(-0.00827742 -1.26758 0)
(0.0343711 -1.28214 0)
(0.0064993 -1.23797 0)
(0.0110419 -1.2326 0)
(-0.000909681 -1.23392 0)
(0.00503034 -1.2387 0)
(-0.0184481 -1.26897 0)
(0.0161221 -1.2526 0)
(-0.00404167 -1.08671 0)
(-0.108135 -0.000108894 0)
(-0.107837 -0.000467619 0)
(-0.107263 -0.000797597 0)
(-0.1064 -0.00111612 0)
(-0.105249 -0.00143127 0)
(-0.10381 -0.00174681 0)
(-0.10208 -0.00206474 0)
(-0.100057 -0.00238595 0)
(-0.0977375 -0.00271067 0)
(-0.0951202 -0.00303865 0)
(-0.0922035 -0.00336927 0)
(-0.0889872 -0.00370143 0)
(-0.0854722 -0.0040335 0)
(-0.0816616 -0.00436317 0)
(-0.0775607 -0.00468722 0)
(-0.0731786 -0.00500126 0)
(-0.0685285 -0.00529931 0)
(-0.0636301 -0.00557337 0)
(-0.0585112 -0.00581304 0)
(-0.0532097 -0.00600516 0)
(-0.0477764 -0.0061337 0)
(-0.0422775 -0.00618014 0)
(-0.0367955 -0.00612463 0)
(-0.03143 -0.00594843 0)
(-0.0262935 -0.00563795 0)
(-0.0215045 -0.00519072 0)
(-0.0171725 -0.00462309 0)
(-0.0133771 -0.0039777 0)
(-0.0101419 -0.00332516 0)
(-0.00741837 -0.00274488 0)
(-0.00509968 -0.00228104 0)
(-0.00306433 -0.00190867 0)
(-0.00124079 -0.00155585 0)
(0.000375113 -0.00113422 0)
(0.00170633 -0.000583217 0)
(0.00262843 0.00011321 0)
(0.00314489 0.000912246 0)
(0.00272252 0.0017115 0)
(0.00192579 0.00191755 0)
(0.00111271 0.00182322 0)
(-0.109727 -0.000447223 0)
(-0.109398 -0.00117939 0)
(-0.108848 -0.00191313 0)
(-0.108069 -0.00265269 0)
(-0.107052 -0.00340002 0)
(-0.105788 -0.0041561 0)
(-0.104274 -0.00492093 0)
(-0.102505 -0.00569374 0)
(-0.100478 -0.00647319 0)
(-0.0981919 -0.00725734 0)
(-0.0956458 -0.00804364 0)
(-0.0928405 -0.0088287 0)
(-0.0897777 -0.00960807 0)
(-0.0864608 -0.010376 0)
(-0.082895 -0.0111246 0)
(-0.0790881 -0.0118437 0)
(-0.0750509 -0.0125194 0)
(-0.0707987 -0.0131335 0)
(-0.0663526 -0.0136624 0)
(-0.0617409 -0.0140762 0)
(-0.0570017 -0.0143392 0)
(-0.0521846 -0.0144096 0)
(-0.0473532 -0.0142434 0)
(-0.0425867 -0.0137996 0)
(-0.0379793 -0.0130499 0)
(-0.0336368 -0.0119939 0)
(-0.0296663 -0.0106806 0)
(-0.0261525 -0.00923114 0)
(-0.0231149 -0.0078404 0)
(-0.0204674 -0.00671049 0)
(-0.0180387 -0.00592629 0)
(-0.0156692 -0.00539765 0)
(-0.0132811 -0.00495039 0)
(-0.0108662 -0.00441618 0)
(-0.00845769 -0.00367955 0)
(-0.00611284 -0.00268155 0)
(-0.00390404 -0.00141677 0)
(-0.00194653 1.67527e-05 0)
(-0.000387944 0.00149701 0)
(0.000213491 0.00334058 0)
(-0.108926 -0.000828575 0)
(-0.108712 -0.00189983 0)
(-0.108298 -0.00299776 0)
(-0.107676 -0.00412016 0)