/*--------------------------------*- C++ -*----------------------------------*\
  =========                 |
  \\      /  F ield         | OpenFOAM: The Open Source CFD Toolbox
   \\    /   O peration     | Website:  https://openfoam.org
    \\  /    A nd           | Version:  8
     \\/     M anipulation  |
\*---------------------------------------------------------------------------*/
FoamFile
{
    version     2.0;
    format      ascii;
    class       volVectorField;
    location    "1.85";
    object      U;
}
// * * * * * * * * * * * * * * * * * * * * * * * * * * * * * * * * * * * * * //

dimensions      [0 1 -1 0 0 0 0];

internalField   nonuniform List<vector> 
9150
(
(0.00497973 -0.077871 0)
(0.0130099 -0.0974277 0)
(0.0108246 -0.104173 0)
(0.00831485 -0.10799 0)
(0.00193041 -0.109457 0)
(-0.00282564 -0.109108 0)
(-0.0088107 -0.107619 0)
(-0.0108733 -0.104085 0)
(-0.0130421 -0.0973786 0)
(-0.00497186 -0.0778112 0)
(0.00602249 -0.0920742 0)
(0.00864559 -0.10054 0)
(0.00728981 -0.102249 0)
(0.00458462 -0.104123 0)
(0.00233496 -0.105179 0)
(-0.0017795 -0.10552 0)
(-0.00430145 -0.104503 0)
(-0.00729839 -0.10223 0)
(-0.00867239 -0.10051 0)
(-0.00602789 -0.0920435 0)
(0.00181476 -0.0954715 0)
(0.004605 -0.0990119 0)
(0.00373604 -0.100937 0)
(0.00309572 -0.101985 0)
(0.000607247 -0.10253 0)
(-0.00087503 -0.102359 0)
(-0.00335024 -0.101625 0)
(-0.00375245 -0.100904 0)
(-0.00462989 -0.0989879 0)
(-0.00181523 -0.0954517 0)
(0.00178538 -0.0984491 0)
(0.00250051 -0.100421 0)
(0.00220358 -0.100256 0)
(0.001346 -0.10066 0)
(0.000710088 -0.100838 0)
(-0.000691049 -0.100834 0)
(-0.0012777 -0.100865 0)
(-0.00218879 -0.100283 0)
(-0.00251657 -0.100411 0)
(-0.00179098 -0.0984415 0)
(0.0001999 -0.0995016 0)
(0.000740811 -0.099569 0)
(0.000445675 -0.0999998 0)
(0.000629968 -0.0998914 0)
(0.000120752 -0.100112 0)
(-0.000115471 -0.100119 0)
(-0.00067366 -0.0998683 0)
(-0.000474671 -0.0999677 0)
(-0.000745648 -0.0995623 0)
(-0.000201748 -0.0995022 0)
(0.0772438 -0.195454 1.40128e-26)
(0.0496561 -0.185741 0)
(0.0319291 -0.177593 0)
(0.0166576 -0.175469 0)
(0.00471964 -0.176298 0)
(-0.00455833 -0.175897 0)
(-0.016549 -0.174148 0)
(-0.0318315 -0.177014 0)
(-0.0496612 -0.185389 0)
(-0.077134 -0.195179 -1.39483e-26)
(0.0584949 -0.146379 3.9427e-27)
(0.0482691 -0.146598 0)
(0.0283735 -0.15664 0)
(0.0208909 -0.156875 0)
(0.00527101 -0.155809 0)
(-0.00350287 -0.155795 0)
(-0.0197126 -0.15718 0)
(-0.0277358 -0.155954 0)
(-0.0480747 -0.146322 0)
(-0.0584039 -0.146189 -3.93383e-27)
(0.0478023 -0.121782 2.06019e-27)
(0.0418896 -0.13158 0)
(0.0294071 -0.134482 0)
(0.0173599 -0.138739 0)
(0.00495483 -0.140688 0)
(-0.00690393 -0.140262 0)
(-0.0186465 -0.136525 0)
(-0.030068 -0.13404 0)
(-0.0420381 -0.131482 0)
(-0.0478686 -0.121662 -1.85811e-27)
(0.0375259 -0.0996833 2.75407e-27)
(0.0387926 -0.110385 0)
(0.022292 -0.120068 0)
(0.0172426 -0.12469 0)
(0.00360235 -0.125062 0)
(-0.00479994 -0.125347 0)
(-0.0175299 -0.125542 0)
(-0.0221752 -0.120245 0)
(-0.0387499 -0.110352 0)
(-0.0374887 -0.0996436 -2.72262e-27)
(0.0252781 -0.081297 -1.02095e-26)
(0.0283429 -0.101006 -1.19776e-26)
(0.0202695 -0.108236 -3.00027e-27)
(0.0115418 -0.113643 -2.64877e-27)
(0.00527936 -0.116583 -8.87476e-29)
(-0.00393117 -0.116766 -8.96949e-29)
(-0.0109853 -0.113774 -2.70271e-27)
(-0.0202055 -0.108084 -3.015e-27)
(-0.0283081 -0.100935 -1.19628e-26)
(-0.0252494 -0.081246 -1.02032e-26)
(0.0176487 -0.14334 0)
(0.00926187 -0.205154 0)
(0.0190502 -0.217471 0)
(0.00351721 -0.225123 0)
(0.00252448 -0.22621 0)
(-0.0131288 -0.225397 0)
(-0.0140018 -0.220998 0)
(-0.02519 -0.213257 0)
(-0.0142345 -0.202345 0)
(-0.0186813 -0.144094 0)
(0.0152878 -0.168347 0)
(0.00143481 -0.200169 0)
(0.0146951 -0.208494 0)
(0.00195881 -0.212837 0)
(0.00625847 -0.214118 0)
(-0.0060863 -0.214157 0)
(-0.00185654 -0.213802 0)
(-0.015445 -0.208534 0)
(-0.00217839 -0.198164 0)
(-0.0163572 -0.164846 0)
(0.0148684 -0.172344 0)
(-0.00371832 -0.203346 0)
(0.0104716 -0.208104 0)
(-0.0025218 -0.210005 0)
(0.00350268 -0.209558 0)
(-0.00539095 -0.209477 0)
(0.000506434 -0.208853 0)
(-0.0121198 -0.207185 0)
(0.00307756 -0.20222 0)
(-0.0155019 -0.171239 0)
(0.0167312 -0.193245 0)
(-0.00650986 -0.203776 0)
(0.00967115 -0.209716 0)
(-0.00178249 -0.206015 0)
(0.00153563 -0.207189 0)
(-0.0029758 -0.207198 0)
(0.000779899 -0.206922 0)
(-0.0104334 -0.209548 0)
(0.00632735 -0.203228 0)
(-0.0169834 -0.192945 0)
(0.0332784 -0.218001 0)
(0.00811446 -0.204113 0)
(0.0168048 -0.204349 0)
(0.010883 -0.196331 0)
(0.00276829 -0.193812 0)
(-0.00157372 -0.194274 0)
(-0.0103752 -0.197568 0)
(-0.0167933 -0.204517 0)
(-0.00805467 -0.204128 0)
(-0.0331884 -0.21757 0)
(-0.502387 -0.0474887 0)
(-0.40614 -0.121862 0)
(-0.285263 -0.186376 0)
(-0.131591 -0.186173 0)
(0.00977075 -0.176743 0)
(0.141228 -0.190916 0)
(0.280018 -0.144952 0)
(0.367782 -0.126357 0)
(0.464319 -0.0654978 0)
(0.516512 -0.011219 0)
(-0.486997 -0.299113 0)
(-0.418067 -0.355651 0)
(-0.333803 -0.442521 0)
(-0.242422 -0.494918 0)
(-0.141958 -0.485587 0)
(-0.0458057 -0.42236 0)
(0.0583789 -0.336363 0)
(0.0996279 -0.300053 0)
(0.200856 -0.222097 0)
(0.296672 -0.11904 0)
(-0.368311 -0.372311 0)
(-0.355597 -0.411098 0)
(-0.33288 -0.51602 0)
(-0.29509 -0.594852 0)
(-0.253513 -0.600175 0)
(-0.19441 -0.534024 0)
(-0.136982 -0.446351 0)
(-0.119627 -0.377245 0)
(-0.087959 -0.360048 0)
(-0.0257616 -0.271491 0)
(-0.217807 -0.345012 0)
(-0.232426 -0.360825 0)
(-0.31466 -0.526691 0)
(-0.310593 -0.627111 0)
(-0.30354 -0.652595 0)
(-0.278108 -0.617263 0)
(-0.233424 -0.471813 0)
(-0.20029 -0.387982 0)
(-0.18899 -0.406529 0)
(-0.140897 -0.404428 0)
(-0.14438 -0.341489 0)
(-0.0898644 -0.262235 0)
(-0.227697 -0.395475 0)
(-0.318059 -0.620204 0)
(-0.310695 -0.68067 0)
(-0.304447 -0.686538 0)
(-0.2724 -0.599324 0)
(-0.206993 -0.418312 0)
(-0.196083 -0.473165 0)
(-0.176691 -0.535676 0)
(-0.178765 -0.52834 0)
(-0.0985982 -0.369465 0)
(0.0152256 0.0999467 0)
(-0.251209 -0.485373 0)
(-0.318631 -0.663504 0)
(-0.334889 -0.697195 0)
(-0.335856 -0.673788 0)
(-0.298647 -0.505859 0)
(-0.248688 -0.473525 0)
(-0.260271 -0.536681 0)
(-0.176904 -0.608304 0)
(-0.15297 -0.547941 0)
(0.0119772 -0.0692293 0)
(-0.108386 0.0150098 0)
(-0.326366 -0.574333 0)
(-0.356129 -0.676822 0)
(-0.368795 -0.668518 0)
(-0.364593 -0.573045 0)
(-0.359677 -0.491402 0)
(-0.341389 -0.47319 0)
(-0.149701 -0.649719 0)
(-0.136209 -0.622795 0)
(-0.0754172 -0.542188 0)
(0.198818 0.513241 0)
(-0.211299 -0.406976 0)
(-0.297161 -0.629498 0)
(-0.312459 -0.643971 0)
(-0.328124 -0.619732 0)
(-0.317651 -0.550052 0)
(-0.299342 -0.450503 0)
(-0.158407 -0.673219 0)
(-0.165679 -0.644103 0)
(-0.127825 -0.584364 0)
(-0.0785857 0.608087 0)
(0.137603 0.46504 0)
(-0.0224288 -0.440152 0)
(-0.147024 -0.591581 0)
(-0.216784 -0.609614 0)
(-0.237558 -0.630286 0)
(-0.218226 -0.547729 0)
(-0.147555 -0.675445 0)
(-0.157373 -0.642235 0)
(-0.124646 -0.603565 0)
(-0.154348 -0.423795 0)
(0.238123 -0.22592 0)
(0.223149 -0.0810095 0)
(0.0159558 -0.213286 0)
(0.0159502 -0.4435 0)
(-0.060937 -0.564213 0)
(-0.0915523 -0.620958 0)
(-0.114951 -0.640411 0)
(-0.124283 -0.610175 0)
(-0.130178 -0.56754 0)
(-0.144171 -0.498102 0)
(-0.144308 -0.0930326 0)
(-0.0585403 -0.0837637 0)
(-0.0652298 -0.176516 0)
(-0.0157625 -0.397086 0)
(0.0392221 -0.440325 0)
(0.10805 -0.438873 0)
(-0.0683161 -0.601838 0)
(-0.0814828 -0.567936 0)
(-0.105679 -0.519762 0)
(-0.0942178 -0.441312 0)
(-0.160472 -0.249563 0)
(-0.0350259 -0.350434 0)
(0.0599999 -0.316829 0)
(0.124247 -0.57392 0)
(0.21845 -0.701387 0)
(0.300766 -0.678974 0)
(0.00331513 -0.57691 0)
(-0.00876348 -0.552592 0)
(-0.024852 -0.504882 0)
(-0.0267116 -0.421275 0)
(-0.0112868 -0.363042 0)
(0.0130109 -0.419949 0)
(0.0621311 -0.615764 0)
(0.146277 -0.78804 0)
(0.254944 -0.858282 0)
(0.363501 -0.845487 0)
(0.071581 -0.538452 0)
(0.0507705 -0.533322 0)
(0.0445671 -0.503039 0)
(0.0449101 -0.451689 0)
(0.0659157 -0.398345 0)
(0.0573975 -0.417714 0)
(0.0888096 -0.712349 0)
(0.191232 -1.03222 0)
(0.308085 -1.11932 0)
(0.392211 -1.05737 0)
(0.118681 -0.50187 0)
(0.0990318 -0.502782 0)
(0.0947635 -0.491301 0)
(0.0952015 -0.450762 0)
(0.102352 -0.421925 0)
(0.10258 -0.459233 0)
(0.190037 -0.825856 0)
(0.270449 -1.27384 0)
(0.365994 -1.29542 0)
(0.423534 -1.19707 0)
(0.14802 -0.472352 0)
(0.130955 -0.478226 0)
(0.129784 -0.47666 0)
(0.125789 -0.453857 0)
(0.118194 -0.441295 0)
(0.134169 -0.522661 0)
(0.206115 -1.0058 0)
(0.21055 -1.37917 0)
(0.227731 -1.36193 0)
(0.186951 -1.23605 0)
(0.165733 -0.455637 0)
(0.155283 -0.463593 0)
(0.150714 -0.462536 0)
(0.141084 -0.440353 0)
(0.117303 -0.438493 0)
(0.126494 -0.546779 0)
(0.136734 -1.05788 0)
(0.0443766 -1.3452 0)
(0.0405118 -1.20256 0)
(0.0690365 -1.02079 0)
(0.190679 -0.441894 0)
(0.181791 -0.446139 0)
(0.174008 -0.441413 0)
(0.156482 -0.409525 0)
(0.116286 -0.39339 0)
(0.106013 -0.479724 0)
(0.0403455 -1.00956 0)
(-0.00894103 -1.24361 0)
(-0.0180425 -1.17419 0)
(-0.0100686 -1.06991 0)
(0.212094 -0.432801 0)
(0.214531 -0.422594 0)
(0.211575 -0.409199 0)
(0.187453 -0.360685 0)
(0.137536 -0.299677 0)
(0.101621 -0.38958 0)
(0.042218 -0.948513 0)
(-0.0150555 -1.209 0)
(-0.0258443 -1.1811 0)
(-0.000876328 -1.11039 0)
(0.235386 -0.445197 0)
(0.240266 -0.426998 0)
(0.255136 -0.397211 0)
(0.230037 -0.32864 0)
(0.201781 -0.221771 0)
(0.21725 -0.31817 0)
(0.199389 -0.800692 0)
(0.106212 -1.11723 0)
(0.0565019 -1.22849 0)
(0.0734693 -1.15682 0)
(0.230424 -0.4705 0)
(0.237106 -0.451229 0)
(0.255368 -0.414004 0)
(0.216314 -0.268988 0)
(0.192911 -0.220512 0)
(0.251612 -0.337347 0)
(0.299868 -0.707918 0)
(0.320172 -0.936013 0)
(0.267117 -1.15971 0)
(0.232051 -1.18269 0)
(0.229896 -0.474141 0)
(0.23802 -0.455099 0)
(0.206679 -0.404424 0)
(0.168861 -0.209364 0)
(0.165717 -0.231229 0)
(0.247781 -0.513276 0)
(0.36079 -0.804245 0)
(0.401888 -0.917504 0)
(0.457695 -1.02949 0)
(0.437791 -1.09162 0)
(0.125069 -0.435252 0)
(0.127062 -0.404291 0)
(0.0583641 -0.256209 0)
(0.0523102 -0.192981 0)
(0.10002 -0.368136 0)
(0.215381 -0.922921 0)
(0.330113 -1.02611 0)
(0.404123 -1.03008 0)
(0.541877 -1.09867 0)
(0.562631 -1.0683 0)
(0.120698 -0.284773 0)
(0.0466696 -0.25716 0)
(0.0289027 -0.196729 0)
(-0.00348203 -0.235857 0)
(0.0863968 -0.48256 0)
(0.156575 -1.08386 0)
(0.273706 -1.18171 0)
(0.387659 -1.26735 0)
(0.595739 -1.29497 0)
(0.634881 -1.22108 0)
(0.156077 -0.0432828 0)
(0.0123286 -0.177416 0)
(0.0322142 -0.224555 0)
(-0.0216252 -0.250899 0)
(0.0432559 -0.763611 0)
(0.0936741 -1.42939 0)
(0.179963 -1.56263 0)
(0.327706 -1.60552 0)
(0.437703 -1.63197 0)
(0.411578 -1.40123 0)
(0.367032 0.139405 0)
(0.177481 0.0380081 0)
(0.121494 -0.205893 0)
(0.0516462 -0.27608 0)
(0.113662 -0.855838 0)
(0.0646323 -1.49349 0)
(0.116306 -1.63212 0)
(0.0864349 -1.63903 0)
(0.0273912 -1.51653 0)
(0.153065 -0.901819 0)
(0.334999 0.288011 0)
(0.36673 0.313125 0)
(0.34244 -0.022838 0)
(0.246406 -0.225861 0)
(0.282206 -0.633423 0)
(0.167275 -1.41604 0)
(0.157656 -1.60678 0)
(0.171689 -1.59739 0)
(0.0422707 -1.52921 0)
(0.0199761 -1.2188 0)
(0.306495 0.161121 0)
(0.368827 0.150392 0)
(0.51223 -0.0384112 0)
(0.401942 -0.194845 0)
(0.486727 -0.370595 0)
(0.343456 -1.19047 0)
(0.368183 -1.53076 0)
(0.375375 -1.56722 0)
(0.299189 -1.23995 0)
(-0.00677335 -0.98877 0)
(0.229842 0.0224963 0)
(0.321116 -0.0908413 0)
(0.331713 -0.216522 0)
(0.330558 -0.329907 0)
(0.434478 -0.442916 0)
(0.354685 -1.1653 0)
(0.424969 -1.51629 0)
(0.445499 -1.51714 0)
(0.386433 -1.07805 0)
(0.0336967 -0.256308 0)
(0.343489 -0.0201185 0)
(0.353496 -0.0910245 0)
(0.346677 -0.123501 0)
(0.283902 -0.215059 0)
(0.340076 -0.405209 0)
(0.333766 -1.23 0)
(0.421595 -1.50326 0)
(0.466629 -1.5074 0)
(0.485043 -1.07043 0)
(0.117924 -0.0381096 0)
(0.36542 0.00949338 0)
(0.311309 -0.0584629 0)
(0.286551 -0.0792737 0)
(0.130524 -0.133269 0)
(0.196351 -0.796946 0)
(0.248967 -1.45396 0)
(0.312111 -1.53381 0)
(0.353342 -1.5059 0)
(0.418734 -0.784821 0)
(0.151345 0.09676 0)
(0.482207 0.0723402 0)
(0.352099 0.0665768 0)
(0.283634 0.0906273 0)
(0.0112776 0.283397 0)
(0.128181 -1.31928 0)
(0.123016 -1.51088 0)
(0.165202 -1.57368 0)
(0.153084 -1.43875 0)
(0.0824484 -0.276294 0)
(-0.00466581 0.197382 0)
(0.448528 0.257603 0)
(0.258903 0.251181 0)
(0.168907 0.352521 0)
(-0.130299 0.190292 0)
(0.0800714 -1.4682 0)
(0.0489451 -1.52588 0)
(0.106077 -1.54653 0)
(0.0775421 -1.0495 0)
(-0.0993206 -0.251553 0)
(-0.0291909 -0.0408238 0)
(0.100262 0.825265 0)
(0.0346039 0.5725 0)
(-0.108289 0.759961 0)
(-0.085613 0.373185 0)
(0.0632042 -1.52066 0)
(0.021807 -1.56442 0)
(0.062871 -1.57002 0)
(0.0294478 -0.833624 0)
(-0.0594091 -0.259105 0)
(-0.0616974 -0.136631 0)
(-0.469654 0.823464 0)
(-0.375182 0.817994 0)
(-0.416931 0.952606 0)
(0.0228225 -0.47574 0)
(0.0334089 -1.53558 0)
(0.0163311 -1.5741 0)
(0.0410137 -1.5511 0)
(0.0196846 -0.646243 0)
(-0.0633781 -0.182624 0)
(-0.0676145 -0.256485 0)
(-0.650624 0.597652 0)
(-0.525031 0.609517 0)
(-0.138478 0.151938 0)
(-0.0124446 -0.739782 0)
(0.0194801 -1.54024 0)
(-0.00781878 -1.56818 0)
(0.0105666 -1.5425 0)
(-0.00426018 -0.690819 0)
(0.0181125 -0.124143 0)
(0.0124776 -0.274027 0)
(-0.251409 0.186702 0)
(-0.120136 0.141649 0)
(0.100706 -0.370101 0)
(-0.00486276 -0.663365 0)
(0.0175512 -1.54416 0)
(-0.0115963 -1.55008 0)
(0.00729513 -1.5282 0)
(-0.0205739 -0.643813 0)
(0.0120269 -0.195218 0)
(0.0805136 -0.18448 0)
(-0.0742731 0.00616689 0)
(0.0605555 -0.0831301 0)
(0.0560493 -0.154316 0)
(-0.0438486 -0.653825 0)
(0.0211472 -1.54624 0)
(-0.00794191 -1.5428 0)
(0.00684304 -1.52401 0)
(-0.0103781 -0.641773 0)
(-0.00918586 -0.369588 0)
(0.0673207 -0.203434 0)
(-0.00493272 -0.116827 0)
(0.0542142 -0.219612 0)
(-0.0373101 -0.011187 0)
(-0.0364398 -0.690298 0)
(0.0228859 -1.54283 0)
(-0.000318753 -1.54141 0)
(0.0142537 -1.51967 0)
(-0.018126 -0.629411 0)
(-0.0402727 -0.367327 0)
(-0.0283831 -0.305828 0)
(0.0128663 -0.124199 0)
(-0.152388 -0.0296344 0)
(-0.30262 0.241421 0)
(-0.0417554 -1.30631 0)
(0.0100661 -1.53976 0)
(-0.000210487 -1.53917 0)
(0.00368797 -1.48621 0)
(-0.0438774 -0.551345 0)
(-0.0471766 -0.341049 0)
(-0.0347365 -0.436594 0)
(-0.313719 0.276779 0)
(-0.272051 0.28129 0)
(-0.191745 0.302805 0)
(0.0636298 -1.46759 0)
(0.0074048 -1.52161 0)
(-0.00512721 -1.52228 0)
(-0.0154091 -1.40156 0)
(-0.0274246 -0.575475 0)
(-0.0145385 -0.333637 0)
(-0.00481571 -0.530475 0)
(-0.35445 -0.0868975 0)
(-0.304706 -0.387945 0)
(0.0482842 -0.475472 0)
(0.0197241 -1.43293 0)
(0.00791584 -1.50433 0)
(-0.00580967 -1.50398 0)
(-0.00663096 -1.40367 0)
(-0.0118225 -0.608842 0)
(0.0164195 -0.329766 0)
(0.0157865 -0.539816 0)
(-0.180582 -0.255327 0)
(-0.139037 -0.403658 0)
(-0.0223549 -0.73305 0)
(0.00744932 -1.41286 0)
(0.00604602 -1.49148 0)
(-0.00621036 -1.49006 0)
(-0.00820262 -1.38975 0)
(-0.0160977 -0.659811 0)
(0.0325878 -0.38885 0)
(0.0427983 -0.489676 0)
(-0.00156795 -0.184973 0)
(-0.0117948 -0.391966 0)
(0.00510549 -0.776067 0)
(0.0124514 -1.42339 0)
(0.0098891 -1.46664 0)
(-0.00559411 -1.46616 0)
(-0.00164021 -1.38632 0)
(-0.0157644 -0.693595 0)
(0.0138315 -0.444354 0)
(0.0104781 -0.415961 0)
(0.0426943 -0.230896 0)
(0.0260315 -0.393506 0)
(0.0326587 -0.777534 0)
(0.0148596 -1.4282 0)
(0.00685537 -1.45134 0)
(-0.00556581 -1.45185 0)
(-0.00232999 -1.37381 0)
(-0.0337583 -0.667277 0)
(-0.0415607 -0.451301 0)
(-0.0403991 -0.393249 0)
(0.0437586 -0.207931 0)
(0.0297371 -0.377647 0)
(0.0355526 -0.761245 0)
(0.00801537 -1.39838 0)
(0.00849992 -1.43196 0)
(-0.00751442 -1.4316 0)
(-0.00977544 -1.32496 0)
(-0.0498053 -0.590761 0)
(-0.0576638 -0.443248 0)
(-0.0584426 -0.397165 0)
(0.0191688 -0.221244 0)
(0.0194568 -0.386299 0)
(0.0286073 -0.753965 0)
(0.0107379 -1.38139 0)
(0.00821788 -1.41475 0)
(-0.00556185 -1.41546 0)
(-0.00478816 -1.30963 0)
(-0.0252609 -0.562603 0)
(-0.033765 -0.416867 0)
(-0.0495183 -0.381963 0)
(0.0163239 -0.22838 0)
(0.0143851 -0.388938 0)
(0.0265211 -0.745116 0)
(0.00589545 -1.3571 0)
(0.00750022 -1.40002 0)
(-0.00688284 -1.40063 0)
(-0.000628804 -1.29702 0)
(-0.0124625 -0.554047 0)
(-0.0191611 -0.408993 0)
(-0.0302423 -0.342549 0)
(-0.00292379 -0.250977 0)
(0.00530188 -0.412409 0)
(0.0161161 -0.74529 0)
(0.0037026 -1.35105 0)
(0.0072089 -1.38739 0)
(-0.00652709 -1.3894 0)
(0.00184635 -1.2926 0)
(-0.00855007 -0.524151 0)
(-0.0224662 -0.401312 0)
(-0.0307382 -0.305379 0)
(-0.0118337 -0.264889 0)
(0.000710407 -0.422719 0)
(0.00652382 -0.740701 0)
(-0.00676901 -1.35816 0)
(0.00274729 -1.37276 0)
(-0.010345 -1.37829 0)
(-0.0137371 -1.32362 0)
(0.0129024 -0.475339 0)
(-0.0379773 -0.366737 0)
(-0.0542086 -0.279467 0)
(-0.0160273 -0.275056 0)
(-0.003524 -0.438646 0)
(-0.0249239 -0.728474 0)
(-0.0304852 -1.34878 0)
(-0.00731516 -1.3651 0)
(-0.0195338 -1.36418 0)
(-0.0403785 -1.34097 0)
(-0.0244796 -0.457341 0)
(-0.0361663 -0.302279 0)
(-0.0507254 -0.261257 0)
(0.00406958 -0.324687 0)
(0.0228509 -0.441369 0)
(0.00195492 -0.706942 0)
(0.00242461 -1.34013 0)
(0.00547641 -1.36185 0)
(-0.00742459 -1.3506 0)
(-0.0110284 -1.33361 0)
(-0.0142988 -0.495165 0)
(-0.00600184 -0.268669 0)
(-0.0380701 -0.240189 0)
(0.0313375 -0.401799 0)
(0.0409491 -0.432348 0)
(0.0426219 -0.686336 0)
(0.027357 -1.33119 0)
(0.0159345 -1.34577 0)
(0.00257153 -1.34177 0)
(0.014111 -1.32411 0)
(0.00339835 -0.501184 0)
(-0.01331 -0.236117 0)
(-0.0538003 -0.194845 0)
(0.059653 -0.428913 0)
(0.0433804 -0.395775 0)
(0.0385102 -0.681379 0)
(0.0234576 -1.31937 0)
(0.0130994 -1.32632 0)
(0.00161773 -1.33206 0)
(0.0126382 -1.30561 0)
(0.00241707 -0.421552 0)
(-0.0255046 -0.190826 0)
(-0.0577095 -0.145076 0)
(0.0870982 -0.405355 0)
(0.0377084 -0.312545 0)
(0.0103693 -0.658747 0)
(0.000906562 -1.31115 0)
(0.00253769 -1.31635 0)
(-0.0118448 -1.32026 0)
(-0.0138419 -1.29754 0)
(-0.0278604 -0.392963 0)
(-0.033792 -0.132018 0)
(-0.0761856 -0.0824543 0)
(0.0535198 -0.340196 0)
(-0.0148391 -0.232539 0)
(0.0142226 -0.673883 0)
(0.00453362 -1.29745 0)
(0.00558846 -1.30174 0)
(-0.00792881 -1.30057 0)
(-0.0108321 -1.28465 0)
(-0.0154373 -0.426356 0)
(0.0116681 -0.117567 0)
(-0.027064 -0.0181203 0)
(-0.0020233 -0.25386 0)
(-0.0336111 -0.231411 0)
(0.0138729 -0.713053 0)
(0.00214502 -1.28971 0)
(0.00481652 -1.28722 0)
(-0.00887863 -1.28541 0)
(-0.0104492 -1.27803 0)
(-0.0247567 -0.438586 0)
(-0.0105387 -0.0781382 0)
(-0.0562583 0.0418294 0)
(0.0533053 -0.173132 0)
(0.00488549 -0.220902 0)
(0.0252557 -0.714437 0)
(0.00738899 -1.27458 0)
(0.00711799 -1.27049 0)
(-0.00692917 -1.2695 0)
(-0.00797368 -1.26199 0)
(-0.019028 -0.440835 0)
(-0.00942289 -0.0407024 0)
(-0.0605164 0.109951 0)
(0.015609 -0.101606 0)
(0.00452305 -0.213326 0)
(0.0240615 -0.723359 0)
(0.00884575 -1.25628 0)
(0.00741349 -1.25498 0)
(-0.00755181 -1.25433 0)
(-0.00694662 -1.24187 0)
(-0.0245143 -0.382832 0)
(-0.0618285 0.0451216 0)
(-0.0885552 0.190129 0)
(0.0117228 -0.0670905 0)
(0.00895987 -0.224013 0)
(0.0194794 -0.72564 0)
(0.0075803 -1.24217 0)
(0.00684003 -1.23758 0)
(-0.00765871 -1.23743 0)
(-0.0110419 -1.22973 0)
(-0.00664232 -0.402521 0)
(-0.031988 0.120641 0)
(-0.0883173 0.178569 0)
(0.0155746 -0.0216953 0)
(0.00948541 -0.222884 0)
(0.0195377 -0.727749 0)
(0.00804731 -1.22952 0)
(0.00774632 -1.22194 0)
(-0.00808838 -1.2209 0)
(-0.00948323 -1.22069 0)
(-0.00798509 -0.446064 0)
(0.0268595 0.219423 0)
(-0.0292452 0.174653 0)
(0.000586407 -0.000916603 0)
(0.000857394 -0.245563 0)
(0.0199136 -0.732222 0)
(0.0100448 -1.21533 0)
(0.00719207 -1.20399 0)
(-0.00764501 -1.20365 0)
(-0.00986121 -1.20743 0)
(-0.025809 -0.490023 0)
(0.0432015 0.220062 0)
(0.0628933 0.221599 0)
(0.0127296 0.0347765 0)
(0.0114452 -0.244408 0)
(0.0187307 -0.730864 0)
(0.00903862 -1.20165 0)
(0.00782007 -1.18783 0)
(-0.00758243 -1.18714 0)
(-0.00988101 -1.19565 0)
(-0.0188651 -0.527926 0)
(0.0187525 0.0228166 0)
(0.0620903 0.224428 0)
(0.00334181 0.0443251 0)
(0.0214438 -0.248848 0)
(0.018951 -0.73022 0)
(0.0102762 -1.18615 0)
(0.00748895 -1.16993 0)
(-0.0075552 -1.16941 0)
(-0.00987557 -1.18047 0)
(-0.0165123 -0.537152 0)
(-0.0121928 0.0127013 0)
(-0.00168689 0.23617 0)
(-0.0162308 -0.00986359 0)
(0.00082745 -0.284382 0)
(0.0152386 -0.757154 0)
(0.0101172 -1.17268 0)
(0.00728252 -1.15408 0)
(-0.00775498 -1.15361 0)
(-0.0105901 -1.16674 0)
(-0.0172661 -0.528683 0)
(-0.0271983 -0.000507985 0)
(-0.0147872 0.21448 0)
(-0.0121967 -0.0372134 0)
(0.00159563 -0.297764 0)
(0.0149301 -0.770118 0)
(0.0107802 -1.15713 0)
(0.00783927 -1.13477 0)
(-0.00733028 -1.1343 0)
(-0.0105513 -1.15165 0)
(-0.0179824 -0.514028 0)
(-0.041985 0.0399447 0)
(-0.0358064 0.153481 0)
(0.00412295 -0.0620842 0)
(0.0168773 -0.300578 0)
(0.0168094 -0.774843 0)
(0.0108918 -1.14168 0)
(0.00718477 -1.11922 0)
(-0.00731853 -1.11879 0)
(-0.0104092 -1.13599 0)
(-0.0164457 -0.547941 0)
(0.00839858 0.0777873 0)
(-0.0183658 0.153864 0)
(0.0261645 -0.119914 0)
(0.0257789 -0.285434 0)
(0.0196906 -0.769314 0)
(0.0109889 -1.12457 0)
(0.00757485 -1.09948 0)
(-0.00716067 -1.09959 0)
(-0.0110236 -1.12103 0)
(-0.0264241 -0.565921 0)
(0.0297459 0.0436296 0)
(0.0740498 0.190496 0)
(0.0121298 -0.197705 0)
(0.0151897 -0.276932 0)
(0.0197931 -0.77717 0)
(0.0103412 -1.10791 0)
(0.00674024 -1.08455 0)
(-0.00703508 -1.08442 0)
(-0.0102235 -1.10432 0)
(-0.0173636 -0.606847 0)
(0.00851882 -0.171333 0)
(0.0958347 0.124962 0)
(-0.0124031 -0.234549 0)
(-0.00850037 -0.307705 0)
(0.0212259 -0.807088 0)
(0.0106769 -1.08991 0)
(0.00706558 -1.06646 0)
(-0.00706946 -1.06663 0)
(-0.0110844 -1.08746 0)
(-0.0132003 -0.619328 0)
(-0.0134471 -0.197081 0)
(0.0017655 0.0596239 0)
(-0.0107436 -0.240262 0)
(-0.000998502 -0.344103 0)
(0.0205601 -0.816702 0)
(0.00975778 -1.0713 0)
(0.0067295 -1.0509 0)
(-0.00693865 -1.05122 0)
(-0.00993599 -1.06871 0)
(-0.0147508 -0.616606 0)
(-0.0228492 -0.155202 0)
(-0.0281979 -0.00632371 0)
(0.0250436 -0.22158 0)
(0.0193467 -0.348898 0)
(0.0212652 -0.816658 0)
(0.0103695 -1.0521 0)
(0.00681166 -1.0347 0)
(-0.00667428 -1.03441 0)
(-0.010904 -1.04996 0)
(-0.0302525 -0.58623 0)
(-0.041044 -0.13976 0)
(-0.0330546 -0.0763888 0)
(0.0352377 -0.210461 0)
(0.0313586 -0.334346 0)
(0.0251287 -0.805372 0)
(0.0119589 -1.03298 0)
(0.00823594 -1.01998 0)
(-0.00558829 -1.01887 0)
(-0.00809013 -1.03157 0)
(-0.0172707 -0.626562 0)
(-0.000470725 -0.175441 0)
(0.0189523 -0.119761 0)
(0.0315368 -0.207057 0)
(0.0324398 -0.330526 0)
(0.0332667 -0.796605 0)
(0.0159172 -1.01409 0)
(0.0110177 -1.00148 0)
(-0.00306185 -1.00143 0)
(-0.00371761 -1.01256 0)
(-0.012469 -0.588908 0)
(-0.0177293 -0.194418 0)
(-0.0369168 -0.14207 0)
(0.0272719 -0.210261 0)
(0.03201 -0.331397 0)
(0.0303695 -0.786905 0)
(0.0148314 -0.995815 0)
(0.0102449 -0.982859 0)
(-0.00497297 -0.984011 0)
(-0.00711961 -0.994461 0)
(-0.0127628 -0.549293 0)
(-0.0523586 -0.105801 0)
(-0.107289 -0.0781411 0)
(0.0253873 -0.214321 0)
(0.0312461 -0.330836 0)
(0.0254623 -0.774206 0)
(0.0143299 -0.977712 0)
(0.00946536 -0.96178 0)
(-0.00760755 -0.962837 0)
(-0.0126978 -0.976224 0)
(-0.00832456 -0.543381 0)
(-0.0475036 -0.0200058 0)
(-0.124009 -0.0566878 0)
(0.023623 -0.221232 0)
(0.0296397 -0.330981 0)
(0.0224876 -0.762549 0)
(0.0137323 -0.960334 0)
(0.0087622 -0.941346 0)
(-0.00889167 -0.941132 0)
(-0.0146915 -0.959164 0)
(-0.0190797 -0.599684 0)
(0.0227374 0.166642 0)
(-0.00134749 0.0904168 0)
(0.0235517 -0.228359 0)
(0.028808 -0.33061 0)
(0.0236298 -0.754303 0)
(0.0150158 -0.941693 0)
(0.00962292 -0.917794 0)
(-0.00921747 -0.917151 0)
(-0.0148095 -0.940439 0)
(-0.0237919 -0.612256 0)
(0.0101315 -0.0424611 0)
(0.0965339 0.0777213 0)
(0.0255194 -0.232431 0)
(0.0290961 -0.328352 0)
(0.0236557 -0.750815 0)
(0.0142748 -0.921981 0)
(0.00898832 -0.895741 0)
(-0.00895956 -0.895152 0)
(-0.01371 -0.920754 0)
(-0.0229614 -0.616762 0)
(-0.0292176 -0.085344 0)
(-0.0021449 0.045672 0)
(0.0303601 -0.23235 0)
(0.0318264 -0.320564 0)
(0.0250711 -0.743071 0)
(0.014773 -0.900101 0)
(0.00884793 -0.87316 0)
(-0.00901475 -0.872995 0)
(-0.0146078 -0.898765 0)
(-0.0231957 -0.617568 0)
(-0.0289914 -0.0838058 0)
(-0.0298017 -0.021619 0)
(0.0358793 -0.226493 0)
(0.03534 -0.311497 0)
(0.0253824 -0.735376 0)
(0.0142181 -0.877105 0)
(0.0085429 -0.851613 0)
(-0.00881129 -0.851624 0)
(-0.0138583 -0.87618 0)
(-0.0252944 -0.618356 0)
(-0.0281102 -0.0561422 0)
(-0.0296801 -0.040466 0)
(0.0441948 -0.213957 0)
(0.0400642 -0.298805 0)
(0.025411 -0.721437 0)
(0.015456 -0.853819 0)
(0.00803047 -0.82932 0)
(-0.00861814 -0.830192 0)
(-0.0151655 -0.853127 0)
(-0.0249271 -0.626561 0)
(-0.0149537 -0.065519 0)
(-0.00951008 -0.0337271 0)
(0.0584155 -0.180188 0)
(0.0471454 -0.269688 0)
(0.025693 -0.700075 0)
(0.0153267 -0.830216 0)
(0.00814431 -0.806952 0)
(-0.00905819 -0.808405 0)
(-0.0156305 -0.830586 0)
(-0.0251392 -0.624748 0)
(-0.0262826 -0.0743732 0)
(-0.0287333 0.00599295 0)
(0.0764782 -0.134127 0)
(0.0602732 -0.216151 0)
(0.0260917 -0.665798 0)
(0.0158051 -0.806004 0)
(0.00799388 -0.783113 0)
(-0.00872171 -0.784021 0)
(-0.0169084 -0.80726 0)
(-0.0261161 -0.612458 0)
(-0.0390163 -0.0502292 0)
(-0.0462201 0.0362194 0)
(0.0787312 -0.09074 0)
(0.0581705 -0.165054 0)
(0.0254817 -0.638808 0)
(0.0156369 -0.780147 0)
(0.00828626 -0.760229 0)
(-0.00788046 -0.761734 0)
(-0.016731 -0.783093 0)
(-0.0268132 -0.608085 0)
(-0.0352238 -0.0423308 0)
(-0.0341493 0.0484998 0)
(0.072293 -0.0455574 0)
(0.0545804 -0.113041 0)
(0.024744 -0.611116 0)
(0.0172069 -0.75408 0)
(0.00799592 -0.736396 0)
(-0.00742777 -0.737963 0)
(-0.0169119 -0.758323 0)
(-0.0283315 -0.596375 0)
(-0.0365318 -0.0406004 0)
(-0.0259101 0.0603721 0)
(0.0655694 -0.00706751 0)
(0.0526974 -0.0689678 0)
(0.0263207 -0.584942 0)
(0.0183975 -0.729007 0)
(0.00695411 -0.713613 0)
(-0.00849545 -0.715348 0)
(-0.0179337 -0.733785 0)
(-0.0278067 -0.580906 0)
(-0.0428956 -0.0449141 0)
(-0.0271542 0.0569233 0)
(0.0638101 0.0267735 0)
(0.054274 -0.0285041 0)
(0.0304618 -0.557416 0)
(0.0188944 -0.705622 0)
(0.00715997 -0.687485 0)
(-0.00929997 -0.686548 0)
(-0.0209178 -0.708872 0)
(-0.0286539 -0.558261 0)
(-0.0477998 -0.0475065 0)
(-0.0319849 0.0472313 0)
(0.0531177 0.0516779 0)
(0.0503918 0.00550624 0)
(0.0316644 -0.537199 0)
(0.0203107 -0.679195 0)
(0.00825946 -0.657011 0)
(-0.0106237 -0.656562 0)
(-0.0264307 -0.680372 0)
(-0.0370587 -0.534783 0)
(-0.0486887 -0.0541153 0)
(-0.0326736 0.0369969 0)
(0.0400599 0.0688231 0)
(0.0405443 0.0135573 0)
(0.0341921 -0.523975 0)
(0.0251753 -0.643345 0)
(0.00838323 -0.625111 0)
(-0.00920779 -0.623141 0)
(-0.0248503 -0.643953 0)
(-0.042522 -0.521365 0)
(-0.0500222 -0.0588299 0)
(-0.0313889 0.0319211 0)
(-0.00110913 0.100666 0)
(0.0122226 0.00735112 0)
(0.0432349 -0.518189 0)
(0.0234243 -0.60603 0)
(0.00679662 -0.595539 0)
(-0.000447365 -0.595513 0)
(-0.0174449 -0.606974 0)
(-0.0368031 -0.516998 0)
(-0.0206979 -0.0762453 0)
(-0.0251854 0.0259484 0)
(-0.0267267 0.0951409 0)
(-0.0241822 -0.101754 0)
(0.0469978 -0.539691 0)
(0.0194947 -0.578384 0)
(0.00661294 -0.570872 0)
(-0.00221893 -0.571344 0)
(-0.0227042 -0.577476 0)
(-0.0450309 -0.538719 0)
(0.0597635 -0.112787 0)
(-0.0182986 0.0459654 0)
(-0.00501365 0.10981 0)
(0.0403062 -0.144487 0)
(0.0431422 -0.540626 0)
(0.0220735 -0.547169 0)
(0.00593631 -0.540529 0)
(-0.0108809 -0.53997 0)
(-0.0280262 -0.544022 0)
(-0.0585546 -0.538425 0)
(-0.0231863 -0.115584 0)
(-0.0292971 0.0841911 0)
(0.016894 0.0918641 0)
(0.056764 -0.206217 0)
(0.0251613 -0.498744 0)
(0.0054997 -0.508236 0)
(-0.0142199 -0.512475 0)
(-0.0304153 -0.50908 0)
(-0.0431763 -0.502512 0)
(-0.0749243 -0.496575 0)
(-0.0754459 -0.174222 0)
(-0.0486652 0.0745432 0)
(0.0388882 0.0658152 0)
(0.0509836 -0.208649 0)
(0.0624384 -0.446747 0)
(0.0424015 -0.47124 0)
(0.0193141 -0.47413 0)
(-0.0022792 -0.473796 0)
(-0.018923 -0.47315 0)
(-0.0492392 -0.453748 0)
(-0.0592435 -0.222445 0)
(-0.0557289 0.0598633 0)
(0.0283492 -0.0148767 0)
(0.0685957 -0.250675 0)
(0.0628661 -0.39995 0)
(0.021876 -0.416382 0)
(-0.000186515 -0.426094 0)
(-0.0241425 -0.429967 0)
(-0.0453325 -0.426553 0)
(-0.0728407 -0.404954 0)
(-0.0742852 -0.195358 0)
(-0.0706473 0.0417003 0)
(0.0275987 -0.0849578 0)
(0.0760804 -0.293834 0)
(0.0698775 -0.357426 0)
(0.0446928 -0.375394 0)
(0.0209085 -0.377234 0)
(-0.00427086 -0.383816 0)
(-0.0231687 -0.383625 0)
(-0.0534655 -0.364677 0)
(-0.0695115 -0.267006 0)
(0.0268915 -0.0024224 0)
(0.093167 -0.173176 0)
(0.0703404 -0.294429 0)
(0.0617024 -0.307502 0)
(0.0314478 -0.330872 0)
(0.0156781 -0.338698 0)
(-0.00997381 -0.335247 0)
(-0.0363744 -0.329554 0)
(-0.0724591 -0.317313 0)
(-0.0746191 -0.284743 0)
(-0.083482 -0.0443527 0)
(0.0909824 -0.223412 0)
(0.0687309 -0.225909 0)
(0.0659005 -0.257812 0)
(0.0319084 -0.276757 0)
(0.00492829 -0.281338 0)
(-0.0236382 -0.283899 0)
(-0.0428835 -0.279028 0)
(-0.0696496 -0.260217 0)
(-0.0767976 -0.221866 0)
(-0.0989462 -0.163751 0)
(0.0514462 -0.144201 0)
(0.0522573 -0.19386 0)
(0.0421372 -0.233211 0)
(0.0250196 -0.243365 0)
(0.0176368 -0.248844 0)
(-0.00402905 -0.24944 0)
(-0.0161039 -0.244501 0)
(-0.0423906 -0.232107 0)
(-0.0513905 -0.19288 0)
(-0.0595294 -0.115775 0)
(0.523694 -0.00128372 0)
(0.533992 -0.0105206 0)
(0.55797 -0.0342848 0)
(0.563113 -0.0464839 0)
(0.560843 -0.0482934 0)
(0.556623 -0.0391793 0)
(0.538163 -0.00582956 0)
(0.50953 0.010752 0)
(0.490229 0.000541404 0)
(0.479595 -0.00771314 0)
(0.47531 -0.00339278 0)
(0.462665 0.0204968 0)
(0.410881 0.0508157 0)
(0.359771 0.0411509 0)
(0.344936 -0.00655055 0)
(0.370645 -0.0513002 0)
(0.446044 -0.0979891 0)
(0.521669 -0.0987859 0)
(0.603909 -0.0855347 0)
(0.677035 -0.0777408 0)
(0.739842 -0.0688422 0)
(0.788505 -0.0491293 0)
(0.824433 -0.0319693 0)
(0.833423 -0.0165662 0)
(0.828266 -0.0127694 0)
(0.823561 -0.0133801 0)
(0.827017 -0.0199859 0)
(0.845538 -0.0234622 0)
(0.856668 -0.00581507 0)
(0.852476 -0.00152139 0)
(0.828054 -0.00118488 0)
(0.780184 0.0393581 0)
(0.645356 0.154602 0)
(0.459332 0.166783 0)
(0.359552 0.142932 0)
(0.266741 0.133026 0)
(0.186896 0.105278 0)
(0.127825 0.062964 0)
(0.0762818 0.0423538 0)
(0.044357 0.061119 0)
(0.359894 -0.0545636 0)
(0.418594 -0.0296551 0)
(0.451057 -0.0243361 0)
(0.462515 -0.00453181 0)
(0.43634 0.060927 0)
(0.417513 0.0766843 0)
(0.412512 0.0776933 0)
(0.411108 0.0694664 0)
(0.397199 0.0447615 0)
(0.380397 0.0343592 0)
(0.380005 0.037778 0)
(0.388655 0.0601042 0)
(0.416693 0.0930464 0)
(0.442192 0.0873732 0)
(0.482881 -0.018471 0)
(0.545469 -0.139251 0)
(0.600334 -0.214632 0)
(0.639168 -0.232957 0)