/*--------------------------------*- C++ -*----------------------------------*\
  =========                 |
  \\      /  F ield         | OpenFOAM: The Open Source CFD Toolbox
   \\    /   O peration     | Website:  https://openfoam.org
    \\  /    A nd           | Version:  8
     \\/     M anipulation  |
\*---------------------------------------------------------------------------*/
FoamFile
{
    version     2.0;
    format      ascii;
    class       volScalarField;
    location    "8.2";
    object      alpha.water;
}
// * * * * * * * * * * * * * * * * * * * * * * * * * * * * * * * * * * * * * //

dimensions      [0 0 0 0 0 0 0];

internalField   nonuniform List<scalar> 
9150
(
1
1
1
1
1
1
1
1
1
1
1
1
1
1
1
1
1
1
1
1
1
1
1
1
1
1
1
1
1
1
1
1
1
1
1
1
1
1
1
1
1
1
1
1
1
1
1
1
1
1
1
1
1
1
1
1
1
1
1
1
1
1
1
1
1
1
1
1
1
1
1
1
1
1
1
1
1
1
1
1
1
1
1
1
1
1
1
1
1
1
1
1
1
1
1
1
1
1
1
1
1
1
1
1
0.999999
1
1
1
1
1
1
1
1
1
0.999999
1
1
1
1
1
1
1
1
1
1
1
1
1
1
1
1
1
1
1
1
1
1
1
1
1
1
1
1
1
1
1
1
1
1
1
0.995636
0.995742
0.99145
0.992975
0.998275
0.998662
0.998662
0.998662
0.998662
0.998153
0.99575
0.995747
0.991544
0.990818
0.990814
0.990811
0.992251
0.99857
0.998662
0.998011
0.993323
0.993323
0.996643
0.998673
0.99151
0.99081
0.99081
0.997286
0.998655
0.998012
0.993435
0.993323
0.997773
0.998678
0.998674
0.991638
0.994455
0.998658
0.998597
0.998612
0.993798
0.997886
0.998682
0.998679
0.997809
0.991662
0.997561
0.998679
0.99862
0.998682
0.995139
0.998682
0.998682
0.998462
0.994192
0.992763
0.998033
0.998682
0.998682
0.998682
0.995347
0.998682
0.998682
0.998682
0.994773
0.994861
0.998633
0.998682
0.998682
0.998682
0.998197
0.998682
0.998682
0.998682
0.998248
0.998585
0.998682
0.998682
0.998682
0.998682
0.998682
0.998682
0.998682
0.998682
0.998682
0.998682
0.998682
0.998682
0.998682
0.998224
0.998682
0.998682
0.998682
0.998682
0.998682
0.998682
0.998682
0.998682
0.992726
0.991934
0.998682
0.998682
0.998682
0.998682
0.998682
0.998682
0.997835
0.995918
0.993505
0.99643
0.99853
0.998297
0.998682
0.998682
0.993832
0.980081
0.969983
0.975622
0.997025
0.998676
0.998645
0.997861
0.998682
0.991306
0.969401
0.969207
0.969254
0.974049
0.997319
0.998676
0.998645
0.998201
0.987358
0.969177
0.969177
0.969177
0.993674
0.998659
0.998659
0.998667
0.998645
0.989513
0.969182
0.969179
0.970143
0.997391
0.998632
0.998646
0.998659
0.936106
0.99747
0.972935
0.969267
0.977905
0.998635
0.998635
0.998633
0.978973
0.890784
0.882245
0.984487
0.971587
0.976513
0.998629
0.998635
0.998633
0.960797
0.879963
0.880427
0.880854
0.973811
0.971587
0.994424
0.99863
0.998626
0.982024
0.882635
0.879929
0.879963
0.901353
0.970888
0.993903
0.998622
0.998623
0.998605
0.962386
0.879929
0.879913
0.879929
0.942036
0.967916
0.99077
0.998622
0.998622
0.998615
0.977213
0.886987
0.879916
0.879914
0.940013
0.967877
0.976207
0.998622
0.998622
0.998617
0.977636
0.943746
0.889067
0.88054
0.912697
0.967939
0.968029
0.989888
0.998617
0.99791
0.987336
0.988833
0.965789
0.885638
0.886151
0.98333
0.96816
0.9706
0.99827
0.998628
0.998629
0.998623
0.997999
0.942644
0.889461
0.993851
0.971318
0.968874
0.982559
0.998629
0.998632
0.998632
0.998374
0.990025
0.962759
0.997557
0.984225
0.968874
0.968874
0.995148
0.998632
0.998633
0.998484
0.998638
0.998629
0.998023
0.995625
0.969482
0.96891
0.976041
0.998273
0.998634
0.998636
0.998638
0.998638
0.998023
0.998023
0.991892
0.968947
0.977027
0.994696
0.997945
0.998637
0.998637
0.998638
0.998023
0.997987
0.998058
0.995245
0.996067
0.996233
0.99742
0.998638
0.998637
0.998638
0.858239
0.94356
0.998445
0.998528
0.99858
0.998621
0.998638
0.998639
0.998638
0.998637
0.818317
0.818278
0.834072
0.909758
0.998548
0.998636
0.998639
0.998638
0.998639
0.998639
0.818282
0.818163
0.818019
0.81794
0.824528
0.905807
0.998639
0.998639
0.998638
0.998638
0.860895
0.818054
0.817985
0.817945
0.817904
0.817974
0.835906
0.959627
0.998638
0.998639
0.983311
0.881321
0.817927
0.817914
0.817936
0.817927
0.81793
0.817997
0.964817
0.998623
0.985598
0.988778
0.889245
0.817922
0.817927
0.817919
0.817912
0.817915
0.821618
0.949334
0.953746
0.995767
0.993549
0.912964
0.817924
0.817912
0.817912
0.817912
0.817915
0.82047
0.955634
0.996072
0.996123
0.995699
0.948417
0.868102
0.817912
0.817915
0.817921
0.832096
0.958004
0.996123
0.996123
0.996123
0.9961
0.990455
0.943048
0.859245
0.870501
0.953682
0.920689
0.964186
0.995452
0.9961
0.996081
0.989587
0.961689
0.978474
0.992074
0.998586
0.940318
0.94037
0.943146
0.95939
0.954619
0.952378
0.952624
0.962138
0.997914
0.998686
0.94037
0.940417
0.940417
0.940898
0.979498
0.966389
0.96218
0.977617
0.983922
0.964802
0.986952
0.982145
0.991171
0.993826
0.996838
0.996458
0.985984
0.952814
0.952659
0.952678
0.977265
0.942056
0.989608
0.996949
0.996964
0.996477
0.96382
0.952995
0.963737
0.996791
0.911137
0.908917
0.956558
0.996965
0.997001
0.996861
0.98748
0.98549
0.996108
0.997042
0.926512
0.908738
0.908905
0.960774
0.997021
0.997042
0.997042
0.997042
0.997043
0.997042
0.93473
0.908732
0.908738
0.908905
0.946439
0.997042
0.997043
0.997043
0.997043
0.997043
0.935261
0.908738
0.908727
0.908739
0.908926
0.958381
0.997044
0.997044
0.997043
0.997043
0.987046
0.926741
0.908739
0.919962
0.995913
0.996594
0.997044
0.997044
0.997044
0.997043
0.989121
0.989168
0.988629
0.991113
0.992563
0.975154
0.819082
0.78359
0.809439
0.903054
0.660366
0.681175
0.944252
0.99051
0.988367
0.986513
0.953511
0.765259
0.716227
0.715218
0.725854
0.620763
0.6195
0.626632
0.69916
0.755731
0.593165
0.592475
0.723133
0.813423
0.91273
0.914501
0.663764
0.593972
0.593888
0.593639
0.592475
0.59237
0.592364
0.592364
0.803063
0.954285
0.959569
0.956961
0.973469
0.977941
0.823547
0.595079
0.59237
0.592364
0.77759
0.902572
0.995134
0.995856
0.995873
0.995873
0.995873
0.995854
0.98118
0.989478
0.77759
0.77759
0.777925
0.822707
0.978189
0.992244
0.987332
0.991733
0.996292
0.997367
0.77759
0.777925
0.778225
0.778243
0.779518
0.779218
0.779228
0.859848
0.991854
0.997328
0.934325
0.940684
0.944505
0.949352
0.81534
0.779228
0.779202
0.779664
0.892844
0.996559
0.758113
0.758543
0.783819
0.956887
0.991186
0.888804
0.78001
0.859227
0.992988
0.997807
0.758113
0.758111
0.758543
0.88005
0.997313
0.997614
0.99778
0.997804
0.997808
0.997807
0.758132
0.822299
0.986859
0.998061
0.997623
0.997668
0.997741
0.997784
0.997804
0.997807
0.998089
0.99808
0.998067
0.998065
0.996376
0.989676
0.996604
0.997099
0.997636
0.997714
0.998089
0.998089
0.99808
0.998064
0.996165
0.989401
0.99361
0.962549
0.897212
0.755005
0.998089
0.99808
0.994796
0.983751
0.984413
0.986845
0.984935
0.788763
0.296488
0.279916
0.998064
0.971292
0.86312
0.750548
0.803128
0.869303
0.822484
0.707261
0.551033
0.303237
0.941201
0.751114
0.726827
0.726827
0.726827
0.781486
0.993433
0.994295
0.994327
0.887354
0.777524
0.732834
0.727153
0.759443
0.902445
0.993988
0.994252
0.994327
0.99434
0.99434
0.972142
0.929614
0.967573
0.993583
0.993698
0.993719
0.993861
0.991011
0.994023
0.99434
0.991179
0.990508
0.976095
0.970899
0.993158
0.993681
0.990854
0.989906
0.989908
0.994033
0.99051
0.949274
0.917916
0.917916
0.951291
0.992224
0.992954
0.992976
0.992988
0.984761
0.98664
0.935491
0.918086
0.918466
0.919025
0.939655
0.979272
0.992963
0.992988
0.885762
0.855862
0.951256
0.969414
0.930054
0.919535
0.920379
0.920535
0.961171
0.988261
0.83871
0.629004
0.878868
0.971691
0.972281
0.965511
0.926383
0.920357
0.92053
0.940666
0.935414
0.807348
0.871253
0.937641
0.97283
0.972918
0.972944
0.948606
0.925328
0.92313
0.937197
0.976055
0.976059
0.974897
0.9655
0.973055
0.972918
0.972296
0.971186
0.944985
0.938326
0.976062
0.976055
0.975939
0.975557
0.974476
0.972603
0.97088
0.966509
0.950489
0.786357
0.975978
0.975939
0.975645
0.974476
0.95205
0.870653
0.772617
0.714577
0.697612
0.651845
0.975167
0.97481
0.971317
0.864058
0.680912
0.609857
0.609854
0.609872
0.609893
0.614989
0.892757
0.896454
0.788925
0.610018
0.609857
0.609854
0.609854
0.609854
0.609872
0.644937
0.679337
0.664123
0.625995
0.615593
0.609947
0.609857
0.609854
0.609891
0.611631
0.853359
0.808571
0.6713
0.78488
0.917762
0.61339
0.609947
0.610056
0.611185
0.774108
0.977652
0.934933
0.727441
0.922413
0.980997
0.891518
0.610929
0.611795
0.798526
0.994052
0.987907
0.953133
0.96009
0.94309
0.980997
0.980027
0.905379
0.919743
0.994323
0.995481
0.993662
0.959027
0.966611
0.969514
0.976351
0.99385
0.996299
0.996509
0.993737
0.996006
0.994764
0.926798
0.958724
0.923674
0.907784
0.913856
0.996509
0.99653
0.996541
0.996539
0.995327
0.646615
0.859949
0.927358
0.929028
0.88924
0.891204
0.99654
0.99654
0.996541
0.996539
0.605828
0.601834
0.889795
0.983585
0.893741
0.731771
0.970688
0.996541
0.99654
0.996525
0.884605
0.601834
0.631254
0.9869
0.987852
0.725853
0.661565
0.99654
0.996541
0.996537
0.980371
0.621945
0.62206
0.983478
0.995146
0.918603
0.596048
0.736778
0.996432
0.996533
0.882769
0.521272
0.641329
0.965414
0.995847
0.959053
0.596048
0.704472
0.996522
0.996533
0.404797
0.405149
0.419367
0.860851
0.996258
0.986672
0.691075
0.585225
0.728894
0.866178
0.192769
0.225823
0.106317
0.715524
0.996437
0.994677
0.74342
0.555916
0.571997
0.567671
0.0653719
0.129257
0.0491464
0.576021
0.996576
0.995156
0.744943
0.546725
0.527465
0.220365
3.52017e-06
0.0517797
0.0146571
0.604804
0.996771
0.997733
0.740895
0.0774002
1.97221e-06
1.22552e-06
2.98761e-06
0.0439534
0.0138816
0.711316
0.997577
0.99946
0.853218
0.0443357
1.22614e-06
4.41694e-07
2.97943e-06
0.0120187
0.0125658
0.763333
0.99946
0.99955
0.952727
0.207413
2.01029e-06
3.28343e-05
1.30372e-05
2.09058e-05
0.0975218
0.882376
0.999557
0.999879
0.973442
0.314193
6.11765e-06
2.03364e-05
0.00024298
0.000122976
0.267461
0.962561
0.999877
0.999949
0.99705
0.528176
3.02194e-05
3.14904e-05
0.00293724
0.000216002
0.531677
0.997423
0.999949
0.999987
0.999953
0.767958
6.78543e-05
3.60188e-05
0.00160056
0.0301401
0.822949
0.999911
0.999994
0.999996
0.999988
0.929535
0.199646
3.60163e-15
0.00112188
0.501497
0.99635
0.999994
1
1
0.999996
0.999826
0.642629
2.779e-16
0.272868
0.947477
1
1
1
1
1
1
0.984086
0.387373
0.997521
0.9977
0.99868
0.99868
0.99868
0.99868
0.99868
0.99868
0.99868
0.998472
0.995025
0.995025
0.995025
0.995026
0.995441
0.998645
0.998635
0.998599
0.998514
0.998511
0.998508
0.998502
0.991058
0.982747
0.982721
0.987168
0.995154
0.995189
0.995341
0.997117
0.997119
0.997119
0.997261
0.997262
0.997262
0.997261
0.997253
0.997238
0.99626
0.996033
0.998204
0.99868
0.998679
0.99868
0.993515
0.963702
0.985243
0.99868
0.99868
0.99868
0.998676
0.996568
0.995026
0.99766
0.998663
0.998661
0.996632
0.988178
0.995708
0.998508
0.998504
0.998499
0.996859
0.98341
0.982774
0.988392
0.990283
0.9781
0.976417
0.976342
0.976319
0.976334
0.988211
0.991169
0.985875
0.984879
0.987788
0.993897
0.997423
0.997423
0.998682
0.998681
0.99868
0.986538
0.946866
0.946728
0.947069
0.986301
0.99868
0.99868
0.99868
0.998643
0.998465
0.998663
0.998663
0.998663
0.998657
0.9846
0.967935
0.997404
0.998499
0.998477
0.998456
0.998409
0.998406
0.998422
0.998422
0.998422
0.998422
0.996665
0.998142
0.997707
0.990736
0.943635
0.935899
0.935898
0.935897
0.942719
0.984747
0.996813
0.998682
0.998682
0.998681
0.991366
0.946728
0.946728
0.946728
0.946911
0.985549
0.99868
0.99868
0.998492
0.997997
0.99854
0.998663
0.998663
0.998649
0.992331
0.963774
0.960771
0.989735
0.994301
0.98366
0.976986
0.988975
0.998421
0.998422
0.998422
0.99842
0.998418
0.998417
0.982037
0.936954
0.935899
0.935898
0.935897
0.935897
0.935897
0.960151
0.995305
0.998682
0.998682
0.998682
0.998679
0.992219
0.958647
0.946742
0.946734
0.947687
0.993992
0.998678
0.998678
0.998675
0.981399
0.962217
0.987841
0.99842
0.989672
0.963504
0.960728
0.960721
0.960722
0.96072
0.960723
0.964234
0.993244
0.99842
0.998418
0.998418
0.998417
0.998411
0.996003
0.991182
0.988745
0.984566
0.966512
0.935897
0.973021
0.998421
0.996901
0.998681
0.998666
0.998682
0.998682
0.99868
0.99677
0.983307
0.96882
0.961161
0.978045
0.996606
0.998675
0.994663
0.962832
0.962148
0.962117
0.962117
0.962116
0.963717
0.977844
0.963266
0.96072
0.960723
0.976787
0.994802
0.992652
0.99223
0.964604
0.968771
0.996521
0.99839
0.998245
0.99819
0.998164
0.998126
0.998029
0.998008
0.998411
0.998421
0.998011
0.998682
0.998682
0.998682
0.998682
0.998413
0.993716
0.99505
0.995183
0.995367
0.994193
0.995122
0.998183
0.993454
0.987804
0.969772
0.962122
0.962115
0.964176
0.993976
0.997117
0.969991
0.960728
0.987083
0.998896
0.998895
0.995142
0.948848
0.929152
0.929135
0.941418
0.981054
0.979056
0.996231
0.994753
0.982489
0.980057
0.983068
0.994009
0.998421
0.998416
0.998682
0.998682
0.998682
0.998682
0.994197
0.986023
0.985987
0.991406
0.997067
0.997981
0.998007
0.998038
0.997709
0.996767
0.993217
0.972682
0.984662
0.997427
0.997428
0.997417
0.988848
0.985006
0.998904
0.998904
0.998889
0.973843
0.929158
0.929131
0.929153
0.929174
0.929433
0.941915
0.984972
0.981171
0.968098
0.968065
0.968067
0.969402
0.988423
0.989464
0.998214
0.998282
0.997072
0.992802
0.985971
0.985964
0.985946
0.988323
0.99712
0.997952
0.997981
0.996704
0.997821
0.997789
0.994537
0.99334
0.996504
0.994551
0.972597
0.972558
0.982886
0.998904
0.998904
0.998904
0.998903
0.998875
0.979469
0.936068
0.931556
0.972496
0.987619
0.991759
0.984303
0.986104
0.982073
0.98151
0.970565
0.96867
0.982593
0.982919
0.991925
0.991921
0.991923
0.993712
0.996269
0.994211
0.985916
0.991348
0.996978
0.984697
0.968356
0.991325
0.997881
0.997254
0.997246
0.997206
0.996742
0.978044
0.972558
0.985771
0.998904
0.998904
0.998904
0.998903
0.998868
0.998845
0.998841
0.998841
0.998838
0.998564
0.998762
0.998832
0.998827
0.998833
0.998819
0.998818
0.998815
0.98187
0.977724
0.982882
0.998148
0.998077
0.997971
0.997969
0.997103
0.986821
0.985912
0.989923
0.974376
0.968073
0.968251
0.996862
0.998102
0.997127
0.997206
0.997174
0.991985
0.97816
0.988202
0.998866
0.998869
0.997484
0.995243
0.991715
0.997161
0.998841
0.998841
0.998838
0.996326
0.990892
0.990963
0.997318
0.998833
0.998142
0.990148
0.991287
0.998487
0.998451
0.980527
0.977133
0.998676
0.998676
0.998676
0.954343
0.961034
0.986138
0.986112
0.967743
0.967827
0.967911
0.991301
0.998103
0.998101
0.998103
0.977548
0.968025
0.975255
0.998659
0.998908
0.998888
0.998866
0.982769
0.891501
0.878334
0.957238
0.988212
0.998396
0.998708
0.991721
0.989967
0.989967
0.99396
0.998806
0.984538
0.93894
0.93894
0.984613
0.998411
0.982833
0.977133
0.998676
0.986698
0.939174
0.939124
0.978144
0.986121
0.970248
0.967743
0.968861
0.996448
0.998031
0.998091
0.99472
0.968731
0.967355
0.967547
0.98554
0.998911
0.99891
0.998908
0.99889
0.945616
0.878334
0.878317
0.878319
0.878371
0.962302
0.998736
0.998218
0.990291
0.992088
0.998715
0.998734
0.971047
0.939107
0.938926
0.95917
0.998411
0.993271
0.977133
0.997399
0.94845
0.939124
0.962301
0.983107
0.976742
0.970434
0.974961
0.998061
0.99806
0.998034
0.992369
0.967184
0.967201
0.967233
0.974968
0.998911
0.998911
0.998911
0.99891
0.998908
0.993684
0.923786
0.878318
0.878317
0.878319
0.908514
0.998747
0.998464
0.998382
0.997129
0.998722
0.99873
0.995431
0.949617
0.939107
0.939909
0.996222
0.993988
0.993502
0.886135
0.940456
0.997091
0.995815
0.975733
0.973487
0.976424
0.998062
0.998062
0.998062
0.99806
0.985048
0.967185
0.967181
0.968718
0.998906
0.998911
0.998911
0.998911
0.998911
0.998904
0.982731
0.891046
0.878317
0.878319
0.88443
0.978436
0.998777
0.994753
0.98493
0.996726
0.99873
0.998732
0.998743
0.998752
0.972773
0.939488
0.939254
0.944578
0.96966
0.884396
0.986542
0.997549
0.993129
0.973457
0.973457
0.994192
0.998057
0.998062
0.997514
0.995709
0.993445
0.981665
0.975648
0.992252
0.99891
0.998911
0.998911
0.998911
0.981966
0.880504
0.880801
0.898755
0.9702
0.950866
0.98009
0.998777
0.998784
0.994853
0.980421
0.977144
0.997534
0.998743
0.998752
0.998753
0.998754
0.998754
0.951309
0.926718
0.926718
0.945085
0.998076
0.997888
0.985145
0.973456
0.98487
0.998172
0.997939
0.993045
0.993412
0.998313
0.998617
0.998593
0.998625
0.998909
0.99891
0.99891
0.99891
0.988815
0.874932
0.869735
0.908685
0.996277
0.996779
0.997781
0.998689
0.998784
0.998787
0.998787
0.997564
0.97415
0.953814
0.996372
0.998744
0.998754
0.998754
0.998754
0.998754
0.984893
0.955901
0.99822
0.998138
0.997136
0.97865
0.975082
0.998265
0.998258
0.993893
0.99305
0.996116
0.99882
0.998884
0.998893
0.998901
0.998904
0.998909
0.998909
0.95616
0.873541
0.869723
0.869722
0.869735
0.910974
0.92409
0.918684
0.958444
0.994229
0.998787
0.998788
0.998789
0.998788
0.9465
0.905098
0.978992
0.998716
0.998754
0.998754
0.998403
0.995719
0.995621
0.99824
0.99822
0.993285
0.97899
0.991276
0.998269
0.998265
0.998258
0.996901
0.939796
0.872911
0.870959
0.877491
0.899473
0.951699
0.964707
0.893462
0.869784
0.869723
0.869723
0.869723
0.869723
0.869805
0.869854
0.869858
0.869857
0.955793
0.99876
0.998789
0.99879
0.998789
0.998325
0.845467
0.808882
0.93026
0.997884
0.998751
0.997873
0.988692
0.987919
0.998241
0.99824
0.996953
0.994669
0.998269
0.998269
0.998269
0.998255
0.976623
0.870768
0.870741
0.870729
0.870737
0.870817
0.871119
0.871857
0.909981
0.933946
0.894719
0.893114
0.910307
0.927452
0.896662
0.869871
0.869854
0.869858
0.934348
0.998765
0.99879
0.998791
0.974977
0.893897
0.7505
0.750457
0.764523
0.959044
0.998712
0.998703
0.989068
0.967316
0.99824
0.998241
0.998252
0.998267
0.998269
0.998269
0.998269
0.998268
0.996877
0.95864
0.881455
0.870737
0.870733
0.870737
0.903496
0.96847
0.984209
0.983808
0.981517
0.982644
0.993154
0.996559
0.996736
0.957193
0.869943
0.882244
0.983182
0.998783
0.998791
0.998791
0.860566
0.7505
0.750457
0.750451
0.750457
0.900186
0.998703
0.998703
0.99415
0.967314
0.923328
0.989876
0.994915
0.996262
0.99546
0.996019
0.997469
0.997377
0.995791
0.997437
0.991455
0.970124
0.955637
0.961837
0.982278
0.99231
0.990563
0.974782
0.974765
0.974765
0.975257
0.991391
0.99697
0.997142
0.960588
0.984862
0.998779
0.998791
0.998791
0.998791
0.853273
0.750468
0.750451
0.750451
0.750451
0.895452
0.998697
0.998703
0.994106
0.967316
0.889776
0.892617
0.932631
0.938769
0.939914
0.957162
0.980682
0.99043
0.997437
0.997437
0.997498
0.997564
0.99757
0.99757
0.996065
0.992078
0.99653
0.998788
0.99879
0.993432
0.97702
0.976705
0.985464
0.99743
0.998771
0.998754
0.9984
0.998446
0.998791
0.998791
0.99451
0.826441
0.750468
0.750451
0.807117
0.989824
0.998668
0.998697
0.993332
0.967332
0.938971
0.945448
0.960677
0.97979
0.988225
0.989615
0.979313
0.979627
0.983933
0.993388
0.997563
0.99757
0.997571
0.99757
0.99578
0.997634
0.998788
0.99879
0.99879
0.99879
0.9944
0.976705
0.98687
0.998777
0.998779
0.998765
0.997794
0.997795
0.998655
0.998792
0.998792
0.99843
0.917326
0.931888
0.996965
0.998518
0.998556
0.99759
0.994796
0.970697
0.998391
0.997715
0.998363
0.998626
0.998535
0.991343
0.958342
0.908217
0.907673
0.921142
0.973857
0.94126
0.867199
0.886581
0.977557
0.998762
0.998789
0.998791
0.99879
0.99879
0.998669
0.994783
0.996534
0.998792
0.998785
0.997819
0.997794
0.998201
0.998792
0.998792
0.998792
0.998792
0.998792
0.915652
0.961612
0.998312
0.991467
0.939501
0.948949
0.97556
0.998637
0.998637
0.998637
0.998628
0.978549
0.976847
0.995455
0.996569
0.923536
0.866929
0.866902
0.866864
0.866864
0.866864
0.902967
0.995964
0.998791
0.998792
0.998791
0.998785
0.998098
0.998393
0.998792
0.998792
0.998494
0.997828
0.998314
0.998792
0.998792
0.998792
0.998792
0.998792
0.968144
0.912598
0.912598
0.93741
0.923506
0.906343
0.906342
0.969092
0.998637
0.998637
0.998637
0.992775
0.952705
0.954545
0.993402
0.99658
0.979433
0.900862
0.895119
0.919026
0.947909
0.981603
0.998505
0.998791
0.998792
0.998792
0.998785
0.998763
0.998785
0.998792
0.998792
0.998792
0.998792
0.998792
0.998792
0.998792
0.998792
0.998792
0.998792
0.998792
0.998792
0.975757
0.921395
0.90654
0.906349
0.906341
0.906343
0.93116
0.998637
0.998637
0.992782
0.954782
0.952628
0.966701
0.998364
0.981692
0.964495
0.959869
0.971565
0.981003
0.984195
0.987693
0.988742
0.993122
0.998792
0.998792
0.998792
0.998778
0.998793
0.998793
0.998792
0.998792
0.998792
0.998792
0.998792
0.998792
0.998792
0.998792
0.998792
0.998792
0.998792
0.998792
0.998767
0.998555
0.947221
0.906349
0.906341
0.923036
0.998638
0.998638
0.971473
0.952628
0.952628
0.972216
0.998505
0.996955
0.993975
0.979261
0.981298
0.989847
0.990245
0.984919
0.983517
0.987356
0.998392
0.998792
0.998792
0.998792
0.998793
0.998792
0.998792
0.998792
0.998792
0.998792
0.998791
0.998778
0.99821
0.998098
0.998792
0.998792
0.998792
0.988918
0.983777
0.99187
0.996586
0.972833
0.906351
0.945625
0.998638
0.998638
0.978064
0.952628
0.952628
0.971364
0.998679
0.998735
0.998735
0.998735
0.998585
0.998735
0.998462
0.99116
0.928081
0.979161
0.998792
0.998792
0.998792
0.998792
0.998792
0.998792
0.998792
0.998791
0.998764
0.997607
0.991736
0.968503
0.971161
0.995301
0.998776
0.998787
0.99878
0.924038
0.845017
0.886359
0.992963
0.997136
0.964979
0.946181
0.998639
0.998638
0.996694
0.953024
0.952628
0.976206
0.998735
0.998735
0.998735
0.998735
0.998735
0.998735
0.998735
0.984514
0.914155
0.936959
0.998791
0.998792
0.998792
0.998792
0.998588
0.998606
0.994274
0.98054
0.970555
0.952977
0.940933
0.940933
0.943869
0.993239
0.998663
0.980557
0.854851
0.844973
0.844964
0.844967
0.908721
0.996976
0.965398
0.946313
0.996766
0.99842
0.998398
0.965986
0.954293
0.99109
0.998735
0.998735
0.998735
0.998735
0.998735
0.998735
0.998735
0.997117
0.922732
0.919849
0.996245
0.998791
0.998792
0.998789
0.986377
0.97604
0.956559
0.943518
0.943167
0.942478
0.941651
0.942565
0.983546
0.992481
0.944485
0.845021
0.844966
0.844964
0.844963
0.844963
0.878383
0.993724
0.992693
0.950206
0.99669
0.998318
0.996338
0.984997
0.988953
0.998383
0.998735
0.998735
0.998735
0.998735
0.998735
0.998735
0.998735
0.998714
0.998043
0.919966
0.932939
0.99407
0.998389
0.997949
0.977478
0.958796
0.95846
0.961465
0.956776
0.97126
0.985159
0.985036
0.98498
0.897073
0.845019
0.844966
0.844964
0.844963
0.844963
0.844963
0.925114
0.998635
0.998766
0.961216
0.997474
0.998298
0.994544
0.995417
0.998021
0.998735
0.998735
0.998735
0.998735
0.998735
0.998735
0.994764
0.995976
0.998722
0.998722
0.998722
0.896971
0.958064
0.988991
0.991192
0.989665
0.991577
0.995123
0.994821
0.993939
0.99072
0.98529
0.96509
0.882047
0.875926
0.876382
0.844982
0.844966
0.868244
0.932724
0.936746
0.976607
0.998766
0.998788
0.976909
0.976331
0.998242
0.997521
0.997816
0.998731
0.998732
0.993254
0.974781
0.957961
0.959628
0.952059
0.956897
0.992418
0.99872
0.998722
0.988533
0.86345
0.886276
0.980665
0.982818
0.995224
0.995224
0.995223
0.988061
0.941336
0.917922
0.919265
0.938024
0.99884
0.989118
0.998738
0.996304
0.986256
0.986332
0.985988
0.963829
0.975605
0.99786
0.998801
0.998004
0.982393
0.998126
0.998534
0.998267
0.99873
0.99873
0.994734
0.953454
0.951483
0.951478
0.951599
0.954212
0.99445
0.998663
0.99872
0.938824
0.86345
0.86345
0.98736
0.995224
0.995224
0.995224
0.991996
0.9201
0.900544
0.900446
0.944329
0.99884
0.99884
0.99884
0.998837
0.985892
0.975512
0.975514
0.975879
0.985
0.989879
0.998801
0.998802
0.998801
0.996421
0.998264
0.998722
0.998728
0.998729
0.99873
0.998729
0.986511
0.951299
0.951388
0.978945
0.99865
0.998652
0.998643
0.977322
0.864834
0.86345
0.928282
0.992794
0.994524
0.995224
0.995211
0.981583
0.901137
0.900383
0.944572
0.99884
0.99884
0.99884
0.99884
0.998823
0.990794
0.986797
0.995974
0.99764
0.998797
0.998801
0.998802
0.998802
0.998802
0.998487
0.998714
0.998721
0.998725
0.998728
0.998729
0.981589
0.927816
0.947977
0.994499
0.99865
0.998652
0.99865
0.932317
0.863412
0.862553
0.88194
0.988432
0.990286
0.980409
0.995211
0.995299
0.993207
0.931103
0.906032
0.998681
0.99884
0.99884
0.99884
0.99884
0.99884
0.998837
0.998818
0.998799
0.998797
0.998799
0.998802
0.998802
0.998802
0.998802
0.998702
0.99871
0.998715
0.992898
0.972138
0.944054
0.927798
0.927859
0.945467
0.993916
0.985893
0.883759
0.862976
0.86802
0.862553
0.862577
0.954368
0.990406
0.990411
0.977803
0.965503
0.99545
0.996037
0.990797
0.984631
0.99884
0.99884
0.99884
0.99884
0.99884
0.998837
0.995651
0.991275
0.992268
0.997769
0.998794
0.988319
0.972323
0.970078
0.9691
0.940962
0.937951
0.935679
0.931998
0.931744
0.931759
0.942678
0.959317
0.938697
0.920842
0.877086
0.862918
0.862918
0.86314
0.872985
0.933933
0.98512
0.99041
0.990407
0.962641
0.901571
0.945323
0.997152
0.998299
0.998327
0.998347
0.99884
0.99884
0.99884
0.998837
0.998802
0.988784
0.790844
0.715986
0.715362
0.714994
0.714217
0.714403
0.715525
0.714812
0.954804
0.980417
0.957849
0.955316
0.974602
0.978031
0.979763
0.979818
0.926364
0.863178
0.863127
0.863026
0.870568
0.877133
0.867325
0.880115
0.897572
0.887637
0.918142
0.871616
0.868589
0.868596
0.950974
0.994482
0.998359
0.998377
0.99884
0.99884
0.99884
0.998838
0.998778
0.969201
0.753286
0.716149
0.76244
0.834208
0.728723
0.714224
0.714539
0.714094
0.996785
0.997015
0.996864
0.996984
0.996927
0.981582
0.964598
0.964517
0.969142
0.977797
0.977729
0.961427
0.875755
0.8673
0.867305
0.867268
0.867305
0.867475
0.867706
0.890637
0.868596
0.868589
0.901315
0.989778
0.993633
0.996002
0.998186
0.99884
0.998839
0.996649
0.946508
0.933762
0.976689
0.995868
0.995869
0.995847
0.990346
0.906593
0.879916
0.864241
0.99704
0.997026
0.997015
0.997004
0.996984
0.996927
0.991287
0.966798
0.968556
0.977797
0.977757
0.977598
0.976931
0.976543
0.974335
0.920601
0.886082
0.928326
0.928403
0.928223
0.91493
0.900464
0.946619
0.990342
0.990543
0.993931
0.998364
0.998839
0.998701
0.99517
0.902629
0.948103
0.995867
0.995869
0.995867
0.992625
0.990108
0.99541
0.995362
0.995283
0.997041
0.99704
0.997026
0.991098
0.940729
0.940457
0.991911
0.990209
0.987138
0.944485
0.849516
0.806294
0.803024
0.800792
0.799173
0.774836
0.822556
0.87353
0.846844
0.827925
0.804511
0.859661
0.84652
0.881358
0.967207
0.998496
0.998831
0.998835
0.998831
0.95672
0.783175
0.779124
0.956873
0.995867
0.994528
0.987929
0.98794
0.995477
0.995405
0.962117
0.99704
0.99704
0.990984
0.891017
0.871463
0.871463
0.871938
0.888919
0.893531
0.71033
0.53357
0.533429
0.533398
0.533398
0.533388
0.533398
0.586477
0.79342
0.695342
0.582858
0.556422
0.550572
0.64366
0.708167
0.80176
0.946411
0.99879
0.998831
0.99883
0.995208
0.782745
0.772589
0.772144
0.909945
0.995489
0.995652
0.989384
0.995559
0.994457
0.952272
0.997043
0.997035
0.996975
0.972854
0.93526
0.924905
0.885667
0.835689
0.781276
0.664251
0.60227
0.53589
0.533429
0.533385
0.533398
0.533648
0.824014
0.978742
0.979473
0.979621
0.887699
0.532061
0.498571
0.498571
0.523404
0.783966
0.988285
0.998789
0.998826
0.998785
0.964681
0.772768
0.772144
0.772144
0.928787
0.995978
0.996055
0.996064
0.996062
0.952509
0.997043
0.997038
0.989764
0.984121
0.976545
0.923521
0.831041
0.776656
0.776656
0.836523
0.919258
0.884136
0.648675
0.534143
0.575556
0.885876
0.978297
0.979048
0.979621
0.97995
0.979997
0.97995
0.904334
0.510739
0.501769
0.501617
0.742759
0.995509
0.998761
0.998706
0.998598
0.998007
0.813825
0.773305
0.866836
0.994995
0.995978
0.996055
0.996063
0.956764
0.919498
0.835157
0.819929
0.818988
0.818803
0.792828
0.789763
0.786075
0.831371
0.974837
0.992126
0.990799
0.988787
0.919373
0.961362
0.977841
0.977837
0.978297
0.955836
0.960387
0.97995
0.98
0.979873
0.828443
0.501617
0.499352
0.497862
0.781248
0.997515
0.998587
0.998347
0.998163
0.981432
0.910262
0.909059
0.973983
0.980924
0.980074
0.995679
0.958428
0.737395
0.890131
0.936345
0.936161
0.966833
0.980205
0.992179
0.994415
0.994187
0.99401
0.993518
0.992126
0.988428
0.983557
0.966476
0.97529
0.977842
0.936971
0.916699
0.916752
0.953697
0.979822
0.979872
0.929638
0.517713
0.497862
0.497862
0.531856
0.926722
0.997796
0.998163
0.998199
0.998245
0.998212
0.996788
0.91658
0.892136
0.892093
0.979056
0.962544
0.813401
0.778977
0.876477
0.991841
0.994953
0.994934
0.994953
0.994861
0.991252
0.988522
0.962219
0.903966
0.871931
0.818533
0.823074
0.912613
0.977487
0.941173
0.916752
0.916752
0.969008
0.978064
0.979698
0.67493
0.529281
0.582166
0.500432
0.597912
0.853192
0.997382
0.998199
0.998245
0.998262
0.998263
0.996265
0.897236
0.892084
0.892089
0.961895
0.965658
0.592364
0.592365
0.622006
0.951656
0.995268
0.994953
0.991737
0.974448
0.918569
0.851769
0.772712
0.772793
0.772847
0.773579
0.82261
0.951234
0.974091
0.970034
0.95501
0.934405
0.774479
0.770329
0.876483
0.797312
0.741977
0.755136
0.755244
0.615397
0.70402
0.948041
0.998141
0.998262
0.998266
0.998262
0.951352
0.892125
0.892059
0.892084
0.97633
0.96425
0.592365
0.592386
0.655375
0.954608
0.997195
0.993622
0.90692
0.826852
0.865475
0.772712
0.772712
0.772712
0.786607
0.926309
0.996323
0.994419
0.96408
0.776811
0.577686
0.490188
0.359585
0.411324
0.800361
0.811013
0.810679
0.744633
0.6647
0.661279
0.784614
0.980761
0.998252
0.998265
0.998262
0.96604
0.892197
0.892059
0.892057
0.90934
0.9943
0.963973
0.877041
0.802962
0.949048
0.997353
0.997333
0.972749
0.818181
0.817979
0.861115
0.830217
0.772712
0.774773
0.983949
0.996384
0.996352
0.980832
0.520605
0.359417
0.359544
0.35962
0.359628
0.401824
0.522667
0.712245
0.772014
0.74633
0.786119
0.866237
0.971493
0.997808
0.998302
0.997642
0.949004
0.892416
0.892062
0.892054
0.892059
0.967949
0.99852
0.965814
0.997425
0.997464
0.997425
0.997376
0.997353
0.986267
0.842729
0.817979
0.85674
0.856806
0.810785
0.884746
0.995247
0.996384
0.996384
0.780262
0.359392
0.359417
0.359396
0.359549
0.408412
0.845698
0.916617
0.916431
0.941901
0.96133
0.985878
0.998294
0.998408
0.998393
0.998333
0.95069
0.892196
0.892067
0.892062
0.892062
0.942929
0.998288
0.998538
0.995317
0.997464
0.997536
0.997464
0.997199
0.997333
0.99728
0.945172
0.849445
0.749362
0.748361
0.853881
0.900606
0.975944
0.996384
0.996495
0.762773
0.359551
0.3594
0.359551
0.3886
0.869961
0.998368
0.998398
0.998415
0.998427
0.99843
0.998433
0.998431
0.998431
0.99841
0.9981
0.929538
0.89221
0.892196
0.906871
0.959565
0.997695
0.998537
0.998534
0.998538
0.997582
0.997663
0.995369
0.993975
0.994783
0.996851
0.996817
0.996802
0.787303
0.631088
0.621617
0.729383
0.956135
0.996495
0.996652
0.962719
0.529753
0.359551
0.360723
0.452918
0.974905
0.998398
0.998415
0.998427
0.998433
0.998433
0.998433
0.998433
0.998433
0.998431
0.997754
0.966965
0.948321
0.977134
0.989572
0.998456
0.998522
0.998516
0.997765
0.972966
0.997799
0.997777
0.977392
0.899585
0.953164
0.996709
0.996803
0.996801
0.995667
0.677291
0.54131
0.536789
0.851766
0.996653
0.99688
0.997129
0.932498
0.401836