/*--------------------------------*- C++ -*----------------------------------*\
  =========                 |
  \\      /  F ield         | OpenFOAM: The Open Source CFD Toolbox
   \\    /   O peration     | Website:  https://openfoam.org
    \\  /    A nd           | Version:  8
     \\/     M anipulation  |
\*---------------------------------------------------------------------------*/
FoamFile
{
    version     2.0;
    format      ascii;
    class       surfaceScalarField;
    location    "8.2";
    object      alphaPhi0.water;
}
// * * * * * * * * * * * * * * * * * * * * * * * * * * * * * * * * * * * * * //

dimensions      [0 3 -1 0 0 0 0];

internalField   nonuniform List<scalar> 
18095
(
1.98348e-08
-1.7188e-07
1.52046e-07
2.33332e-08
-1.97579e-07
1.9408e-07
2.08935e-08
-2.06154e-07
2.08594e-07
1.29179e-08
-2.11631e-07
2.19607e-07
1.72719e-09
-2.13381e-07
2.24572e-07
-1.0305e-08
-2.13095e-07
2.25127e-07
-1.98269e-08
-2.10572e-07
2.20094e-07
-2.3157e-08
-2.05958e-07
2.09288e-07
-1.97989e-08
-1.97712e-07
1.94353e-07
-1.72039e-07
1.5224e-07
1.56415e-08
-1.87522e-07
1.62087e-08
-1.98146e-07
1.19408e-08
-2.01886e-07
5.76191e-09
-2.05452e-07
-6.02828e-10
-2.07016e-07
-6.68444e-09
-2.07013e-07
-1.21918e-08
-2.05064e-07
-1.61052e-08
-2.02044e-07
-1.55583e-08
-1.98259e-07
-1.87597e-07
6.84812e-09
-1.9437e-07
8.45648e-09
-1.99754e-07
7.50609e-09
-2.00936e-07
4.35807e-09
-2.02304e-07
-1.22517e-10
-2.02536e-07
-4.46239e-09
-2.02673e-07
-7.20283e-09
-2.02324e-07
-8.32094e-09
-2.00926e-07
-6.8093e-09
-1.9977e-07
-1.94407e-07
4.55222e-09
-1.98922e-07
4.75344e-09
-1.99956e-07
3.70594e-09
-1.99888e-07
1.90235e-09
-2.00501e-07
2.44541e-10
-2.00878e-07
-1.65642e-09
-2.00772e-07
-3.63933e-09
-2.00341e-07
-4.70237e-09
-1.99863e-07
-4.52036e-09
-1.99952e-07
-1.98927e-07
1.07776e-09
1.12226e-09
1.23391e-09
7.33115e-10
-1.44527e-10
-9.16672e-10
-1.25753e-09
-1.12077e-09
-1.07294e-09
-2.74619e-08
-1.96104e-07
2.23565e-07
-2.98173e-08
-1.98884e-07
2.01239e-07
-2.46844e-08
-2.00927e-07
1.95794e-07
-1.40581e-08
-2.01079e-07
1.90452e-07
-1.24978e-10
-2.01972e-07
1.88039e-07
1.38242e-08
-2.02052e-07
1.88103e-07
2.50665e-08
-2.01823e-07
1.9058e-07
3.04981e-08
-2.01632e-07
1.962e-07
2.8139e-08
-1.99128e-07
2.01487e-07
-1.964e-07
2.24539e-07
-9.50947e-09
-1.86594e-07
-1.49261e-08
-1.93467e-07
-1.20425e-08
-2.03811e-07
-5.29e-09
-2.07831e-07
9.06577e-10
-2.08169e-07
7.16107e-09
-2.08307e-07
1.35977e-08
-2.08259e-07
1.54473e-08
-2.03481e-07
9.69969e-09
-1.9338e-07
-1.86701e-07
-9.9649e-09
-1.76629e-07
-8.10553e-09
-1.95327e-07
-7.2872e-09
-2.04629e-07
-5.41831e-09
-2.097e-07
-4.12942e-10
-2.13174e-07
4.55704e-09
-2.13277e-07
6.80454e-09
-2.10507e-07
8.22514e-09
-2.04902e-07
1.01173e-08
-1.95273e-07
-1.76583e-07
-6.77755e-09
-1.69852e-07
-8.65044e-09
-1.93454e-07
-7.69663e-09
-2.05583e-07
-2.09855e-09
-2.15298e-07
1.32259e-09
-2.16595e-07
4.12727e-09
-2.16081e-07
8.15808e-09
-2.14537e-07
8.5186e-09
-2.05262e-07
6.64471e-09
-1.93399e-07
-1.69938e-07
-1.78061e-08
-1.71795e-08
-1.41686e-08
-9.86e-09
-1.88365e-09
7.16177e-09
1.27178e-08
1.67434e-08
1.76982e-08
3.97679e-08
-1.54739e-07
1.14971e-07
4.4491e-08
-1.9616e-07
1.91437e-07
3.59156e-08
-2.0904e-07
2.17615e-07
2.49893e-08
-2.14836e-07
2.25762e-07
9.94951e-09
-2.16771e-07
2.31811e-07
-7.2915e-09
-2.17076e-07
2.34317e-07
-2.24554e-08
-2.15584e-07
2.30748e-07
-3.14771e-08
-2.11613e-07
2.20635e-07
-2.66382e-08
-2.01794e-07
1.96955e-07
-1.62389e-07
1.3575e-07
1.83107e-08
-1.73049e-07
2.15931e-08
-1.99442e-07
1.80879e-08
-2.05535e-07
1.04841e-08
-2.07232e-07
1.09045e-09
-2.07377e-07
-7.47342e-09
-2.08512e-07
-1.32329e-08
-2.09824e-07
-1.59972e-08
-2.08849e-07
-1.41343e-08
-2.03656e-07
-1.76523e-07
9.72397e-09
-1.82773e-07
1.07333e-08
-2.00452e-07
1.03096e-08
-2.05111e-07
7.52526e-09
-2.04448e-07
4.41792e-09
-2.0427e-07
7.1913e-10
-2.04813e-07
-4.95236e-09
-2.04153e-07
-7.08738e-09
-2.06714e-07
-8.1446e-09
-2.02599e-07
-1.84668e-07
7.9682e-09
-1.90742e-07
6.42777e-09
-1.98911e-07
7.17333e-09
-2.05857e-07
2.04636e-09
-1.99321e-07
2.3442e-10
-2.02458e-07
-1.16493e-09
-2.03414e-07
-5.23299e-09
-2.00085e-07
-4.42872e-09
-2.07518e-07
-7.23986e-09
-1.99788e-07
-1.91907e-07
3.28238e-08
3.51522e-08
2.50901e-08
1.62215e-08
1.80247e-09
-1.35084e-08
-2.30128e-08
-3.43309e-08
-3.26318e-08
2.99679e-09
-4.00221e-09
9.89955e-10
1.10833e-08
-8.07586e-09
1.51827e-08
-4.14755e-09
1.76952e-08
-2.38505e-09
1.4249e-08
3.4467e-09
1.07164e-08
3.53274e-09
7.81265e-09
2.90381e-09
9.10892e-09
-1.29619e-09
1.39482e-08
-4.83924e-09
-4.11489e-09
1.80568e-08
2.83146e-08
3.36325e-09
-3.56689e-08
1.98169e-08
4.32842e-10
1.24864e-08
3.11855e-09
8.69837e-09
1.39492e-09
9.98179e-09
2.15518e-09
1.13519e-08
2.15458e-09
1.00232e-08
4.26544e-09
7.56173e-09
1.1739e-09
4.01882e-09
-1.29626e-09
4.51928e-09
-4.61875e-09
4.3655e-08
9.94733e-09
-5.02424e-08
3.62787e-08
7.80602e-09
3.02532e-08
9.30145e-09
2.39738e-08
7.67473e-09
2.07372e-08
5.27411e-09
2.01233e-08
2.76076e-09
1.74029e-08
6.97795e-09
9.08838e-09
9.62559e-09
-7.08303e-09
1.48786e-08
2.39373e-08
-2.65045e-08
4.36626e-08
1.9713e-08
-5.36435e-08
3.75199e-08
1.39455e-08
3.75361e-08
9.46807e-09
3.70361e-08
8.17391e-09
3.39004e-08
8.41016e-09
2.44784e-08
1.2115e-08
1.576e-08
1.58166e-08
3.665e-09
2.17292e-08
-1.66483e-08
3.51859e-08
4.47878e-08
-3.75014e-08
4.58584e-08
2.8764e-08
-5.46343e-08
3.9417e-08
2.05255e-08
3.66484e-08
1.22371e-08
3.43849e-08
1.04354e-08
3.1332e-08
1.13067e-08
2.53579e-08
1.8095e-08
1.85412e-08
2.27576e-08
8.71116e-09
3.15599e-08
-5.04578e-09
4.89339e-08
6.40979e-08
-2.43559e-08
4.43166e-08
3.37083e-08
-4.92234e-08
4.2293e-08
2.25494e-08
4.02626e-08
1.42678e-08
3.82687e-08
1.22693e-08
3.59786e-08
1.32929e-08
3.45788e-08
1.99274e-08
2.97454e-08
2.76411e-08
2.33967e-08
3.7909e-08
1.9389e-08
5.29416e-08
7.02544e-08
1.32326e-08
3.86064e-08
2.93015e-08
-3.40285e-08
4.37815e-08
1.73745e-08
4.49311e-08
1.31183e-08
4.40835e-08
1.31169e-08
4.17518e-08
1.55083e-08
3.89057e-08
2.29479e-08
3.40607e-08
3.25207e-08
3.0411e-08
4.15588e-08
3.14596e-08
5.1893e-08
6.46453e-08
3.70687e-08
3.77636e-08
1.83461e-08
-2.66887e-08
4.38577e-08
1.12805e-08
4.57438e-08
1.12324e-08
4.38758e-08
1.4985e-08
3.73162e-08
2.2071e-08
3.02594e-08
3.00182e-08
2.59446e-08
3.68356e-08
2.58714e-08
4.1632e-08
3.01959e-08
4.75686e-08
5.54481e-08
3.93931e-08
3.43058e-08
7.73484e-09
-2.36944e-08
3.85582e-08
7.02806e-09
3.64558e-08
1.33347e-08
2.90933e-08
2.23476e-08
1.96072e-08
3.15571e-08
1.32772e-08
3.63481e-08
1.1963e-08
3.81498e-08
1.18918e-08
4.17032e-08
1.19311e-08
4.75293e-08
4.75004e-08
1.98212e-08
2.35295e-08
4.67458e-09
-2.04694e-08
1.93747e-08
1.11828e-08
1.10342e-08
2.16751e-08
4.16043e-09
2.92214e-08
9.76562e-10
3.47409e-08
-3.96252e-09
4.12872e-08
-1.05451e-08
4.47324e-08
-1.32818e-08
4.44398e-08
-9.83903e-09
4.38126e-08
2.67129e-08
1.0682e-08
7.52631e-09
1.11904e-08
-1.4042e-08
1.14577e-09
1.75633e-08
-3.63172e-09
2.64526e-08
-2.65195e-09
2.82415e-08
-2.83054e-10
3.2372e-08
-5.25535e-09
4.62596e-08
-1.69212e-08
5.54336e-08
-1.18393e-08
3.88331e-08
1.58158e-08
1.63153e-08
-3.98118e-09
4.67452e-08
5.06861e-09
2.47551e-08
-1.86046e-08
4.569e-10
2.21649e-08
-2.42821e-09
2.93378e-08
-3.77304e-09
2.95866e-08
-3.62898e-09
3.16101e-08
-2.80654e-09
4.43319e-08
7.57479e-09
4.45652e-08
3.40009e-08
1.25967e-08
6.50554e-08
-1.44729e-08
-2.21094e-08
8.31844e-08
7.60513e-10
3.3285e-08
-9.28668e-09
-4.77768e-09
2.76629e-08
-9.9757e-09
3.45359e-08
-1.54462e-08
3.45224e-08
-1.38483e-08
2.98659e-08
6.65859e-09
2.38165e-08
4.37545e-08
7.4596e-09
7.58888e-08
-1.83554e-08
8.46677e-08
-2.28148e-08
-4.91951e-09
6.74788e-08
-1.60122e-08
3.22843e-08
1.70166e-08
-1.93225e-08
3.08954e-08
-2.06979e-08
3.55635e-08
-1.8088e-08
3.19003e-08
-3.20255e-09
1.49682e-08
2.87415e-08
-8.13981e-09
5.65281e-08
-1.95631e-08
5.55887e-08
-1.74119e-08
2.23865e-08
1.03917e-08
5.92257e-08
-4.17561e-08
-3.83394e-08
2.93037e-08
4.13234e-08
-3.86327e-08
3.13535e-08
-3.14243e-08
2.8345e-08
-1.30155e-08
1.34803e-08
7.33934e-09
-5.41422e-09
1.72934e-08
-1.80516e-08
5.85798e-09
-8.12555e-09
-3.32193e-08
2.16686e-08
-9.3206e-08
7.03825e-08
1.05595e-07
-1.39895e-07
-5.88036e-08
2.80984e-08
6.03276e-08
-5.57659e-08
2.92382e-08
-4.74571e-08
2.00259e-08
-3.24652e-08
-2.27128e-09
-2.646e-08
-1.14154e-08
-4.03219e-08
-4.18562e-09
-7.59483e-08
2.75049e-08
-1.26613e-07
7.43698e-08
-1.5916e-07
1.03717e-07
1.06936e-07
-1.61115e-07
-8.16726e-08
3.04293e-08
8.0815e-08
-8.42789e-08
3.13667e-08
-7.65326e-08
1.08481e-08
-7.56123e-08
-3.18701e-09
-8.52901e-08
-1.73369e-09
-1.06344e-07
1.68726e-08
-1.3151e-07
5.80492e-08
-1.54819e-07
9.75059e-08
-1.60164e-07
1.08687e-07
1.10059e-07
-1.63755e-07
-1.06932e-07
3.21264e-08
1.05275e-07
-1.00946e-07
2.49028e-08
-9.65525e-08
5.27766e-09
-1.02713e-07
2.97787e-09
-1.1694e-07
1.24994e-08
-1.29346e-07
3.5026e-08
-1.36543e-07
7.33536e-08
-1.4427e-07
1.05067e-07
-1.47454e-07
1.11699e-07
1.13051e-07
-1.60696e-07
-8.6769e-08
3.17057e-08
8.55947e-08
-8.67325e-08
2.30535e-08
-9.20967e-08
1.06427e-08
-1.01982e-07
1.28698e-08
-1.19426e-07
2.99581e-08
-1.21204e-07
5.19175e-08
-1.23616e-07
7.56e-08
-1.22141e-07
1.0343e-07
-1.20002e-07
1.09394e-07
1.12085e-07
-1.32713e-07
-5.3881e-08
3.27147e-08
5.27481e-08
-6.32108e-08
3.01386e-08
-7.49886e-08
2.24214e-08
-8.66426e-08
2.45247e-08
-9.82054e-08
4.15234e-08
-1.04715e-07
6.34809e-08
-9.28039e-08
7.60059e-08
-8.73798e-08
9.7842e-08
-8.76586e-08
1.0951e-07
1.14243e-07
-1.03296e-07
-3.20547e-08
3.95899e-08
2.51325e-08
-4.48704e-08
4.11171e-08
-6.13709e-08
3.89228e-08
-7.51461e-08
3.83008e-08
-8.09509e-08
4.73291e-08
-8.22626e-08
6.4881e-08
-8.18102e-08
8.36272e-08
-6.77572e-08
9.56004e-08
-6.7993e-08
1.09486e-07
1.18731e-07
-8.42538e-08
-1.26641e-08
5.26514e-08
-1.84539e-10
-3.15297e-08
6.01723e-08
-5.26275e-08
5.76356e-08
-7.17273e-08
5.74016e-08
-8.30501e-08
5.89701e-08
-8.79891e-08
7.07283e-08
-9.26947e-08
8.88663e-08
-8.29753e-08
9.67822e-08
-7.00377e-08
1.02899e-07
1.13909e-07
-5.88062e-08
1.90471e-08
6.6629e-08
-3.20669e-08
-6.00277e-09
8.55056e-08
-3.53522e-08
8.59453e-08
-6.02444e-08
8.14364e-08
-7.81253e-08
7.685e-08
-8.6627e-08
7.92289e-08
-8.65899e-08
8.88283e-08
-8.21677e-08
9.29627e-08
-6.37002e-08
9.46639e-08
1.01201e-07
-4.80263e-08
2.5321e-09
8.50486e-08
-2.06075e-08
-7.40553e-09
9.64514e-08
-2.27931e-08
1.01307e-07
-4.00433e-08
9.5419e-08
-5.94644e-08
9.62701e-08
-7.05372e-08
9.03005e-08
-7.2644e-08
9.09339e-08
-6.84108e-08
8.86151e-08
-5.88048e-08
8.69941e-08
8.97484e-08
-3.90969e-08
-1.41137e-08
1.01322e-07
-2.16007e-09
-1.73057e-08
1.01345e-07
-2.3935e-08
1.0791e-07
-3.1123e-08
1.02581e-07
-3.92971e-08
1.02542e-07
-4.55138e-08
9.6516e-08
-4.71914e-08
9.26104e-08
-4.58961e-08
8.73152e-08
-3.99353e-08
8.10254e-08
7.47217e-08
-2.48994e-08
-3.1153e-09
1.11952e-07
-7.50391e-09
-9.41741e-09
1.08072e-07
-1.2777e-08
1.12509e-07
-1.62514e-08
1.06016e-07
-1.86503e-08
1.03639e-07
-2.15421e-08
9.90652e-08
-2.02738e-08
9.13401e-08
-1.58474e-08
8.28874e-08
-7.05383e-09
7.22306e-08
5.70615e-08
1.06033e-08
2.04895e-08
1.11069e-07
-1.95956e-08
1.88337e-08
1.09739e-07
2.24639e-08
1.10671e-07
1.74683e-08
1.11547e-07
1.38026e-08
1.08679e-07
1.01618e-08
1.02463e-07
6.81858e-09
9.45692e-08
6.80305e-09
8.29019e-08
1.0465e-08
6.85677e-08
4.60249e-08
2.14973e-08
6.33974e-08
1.18878e-07
-7.11954e-08
5.46406e-08
1.18513e-07
4.81468e-08
1.1717e-07
4.74903e-08
1.1421e-07
4.75895e-08
1.09954e-07
4.55539e-08
1.04897e-07
4.31493e-08
9.69812e-08
3.87093e-08
8.73385e-08
3.3311e-08
7.39657e-08
5.03284e-08
2.90057e-08
1.13957e-07
1.08828e-07
-1.1299e-07
1.06399e-07
1.11657e-07
9.72452e-08
1.26365e-07
8.30665e-08
1.28415e-07
7.2657e-08
1.20369e-07
6.86148e-08
1.08938e-07
6.72974e-08
9.8296e-08
6.65354e-08
8.80947e-08
6.30157e-08
7.74824e-08
6.28317e-08
5.05119e-08
1.29118e-07
9.4946e-08
-1.15325e-07
1.39741e-07
1.00955e-07
1.44664e-07
1.12673e-07
1.34467e-07
1.25604e-07
1.12661e-07
1.35379e-07
9.18675e-08
1.29726e-07
8.06884e-08
1.09472e-07
7.92166e-08
8.95698e-08
7.64374e-08
8.02559e-08
7.36395e-08
6.56244e-08
1.25632e-07
6.12921e-08
-9.20559e-08
1.3878e-07
8.77552e-08
1.41954e-07
1.09497e-07
1.43163e-07
1.24421e-07
1.43345e-07
1.29034e-07
1.25695e-07
1.33307e-07
1.02639e-07
1.30448e-07
9.0802e-08
1.01413e-07
8.47708e-08
8.6285e-08
8.83005e-08
7.01079e-08
9.09736e-08
4.43053e-08
-7.34699e-08
1.13085e-07
6.56356e-08
1.26383e-07
9.62144e-08
1.31273e-07
1.19531e-07
1.30484e-07
1.29851e-07
1.33579e-07
1.30122e-07
1.28152e-07
1.27513e-07
1.14284e-07
1.10157e-07
9.33713e-08
1.07192e-07
1.14766e-07
6.68978e-08
7.25716e-08
5.09286e-08
-7.95016e-08
6.99807e-08
6.98096e-08
8.79741e-08
7.82299e-08
1.06722e-07
1.00801e-07
1.16834e-07
1.19709e-07
1.19917e-07
1.27046e-07
1.21682e-07
1.25747e-07
1.13541e-07
1.18288e-07
8.63722e-08
1.30712e-07
1.4578e-07
5.52984e-08
5.15151e-08
8.0225e-08
-8.02114e-08
4.11255e-08
8.1645e-08
4.72686e-08
7.82974e-08
6.36084e-08
8.44488e-08
7.71091e-08
1.06216e-07
8.77211e-08
1.16439e-07
9.25185e-08
1.20966e-07
8.46736e-08
1.26138e-07
7.32419e-08
1.40132e-07
1.43343e-07
6.22784e-08
5.48277e-08
8.43377e-08
-5.5692e-08
4.72293e-08
8.9351e-08
3.93377e-08
8.74026e-08
4.38464e-08
9.00627e-08
5.16089e-08
9.83913e-08
5.83698e-08
1.09691e-07
6.73429e-08
1.11986e-07
7.46541e-08
1.18828e-07
7.92633e-08
1.35499e-07
1.31201e-07
9.44137e-08
4.92059e-08
9.60787e-08
-5.41773e-08
4.1013e-08
9.75829e-08
3.73066e-08
9.11343e-08
3.73388e-08
9.05747e-08
4.43381e-08
1.02748e-07
5.21772e-08
1.17878e-07
5.67174e-08
1.07425e-07
7.55967e-08
9.99232e-08
9.31269e-08
1.17912e-07
1.25033e-07
1.22915e-07
4.05522e-08
1.01779e-07
-4.19968e-08
3.82315e-08
9.99288e-08
4.31464e-08
8.62448e-08
5.22311e-08
8.15153e-08
6.72976e-08
8.77133e-08
7.97199e-08
1.08471e-07
7.95761e-08
1.16039e-07
8.17043e-08
1.18951e-07
1.04237e-07
1.21719e-07
1.19915e-07
1.31002e-07
4.39948e-08
7.7415e-08
-2.06505e-08
5.53597e-08
8.57539e-08
6.07587e-08
7.86086e-08
6.87382e-08
7.35679e-08
7.24669e-08
8.39939e-08
7.27215e-08
1.04325e-07
7.47072e-08
1.16639e-07
8.66707e-08
1.12123e-07
1.05561e-07
1.08272e-07
9.92179e-08
1.26191e-07
-1.66078e-10
4.71121e-08
3.52247e-08
2.37116e-08
6.20062e-08
3.58074e-08
6.49257e-08
3.41937e-08
7.08257e-08
3.35349e-08
8.21796e-08
4.33005e-08
9.25116e-08
5.91236e-08
9.8724e-08
6.81547e-08
1.00016e-07
8.67562e-08
8.93897e-08
7.88754e-08
1.07025e-07
-1.1748e-07
1.68516e-08
1.47871e-07
-9.2253e-08
3.67445e-08
-7.48542e-08
4.74816e-08
-6.57458e-08
6.28949e-08
-5.33369e-08
6.98114e-08
-3.49905e-08
7.65776e-08
-1.23721e-08
7.72036e-08
8.00194e-09
8.06946e-08
1.80003e-08
7.80304e-08
7.53331e-08
1.81684e-08
-2.23786e-07
1.28825e-08
2.29611e-07
-2.16414e-07
3.03738e-08
-2.07499e-07
3.93385e-08
-1.90958e-07
4.71071e-08
-1.73078e-07
5.19778e-08
-1.55069e-07
5.87214e-08
-1.3554e-07
6.40681e-08
-1.21793e-07
6.56935e-08
-1.13154e-07
6.81184e-08
7.50379e-08
-1.14132e-07
-3.03759e-07
2.73931e-08
2.98989e-07
-3.19283e-07
4.62168e-08
-3.39426e-07
4.54777e-08
-3.32884e-07
4.05596e-08
-3.22332e-07
4.14271e-08
-3.11121e-07
4.84347e-08
-2.92647e-07
5.57082e-08
-2.87343e-07
5.91965e-08
-2.91545e-07
6.81805e-08
8.03202e-08
-2.96758e-07
-2.86728e-07
2.59632e-08
2.9217e-07
-2.96648e-07
5.59823e-08
-3.34057e-07
5.69002e-08
-3.46171e-07
5.2671e-08
-3.53649e-07
4.88996e-08
-3.57081e-07
5.2332e-08
-3.55927e-07
5.91423e-08
-3.59963e-07
6.43594e-08
-3.61578e-07
6.84594e-08
7.4864e-08
-3.56125e-07
-2.49345e-07
2.43996e-08
2.67404e-07
-2.56462e-07
6.30476e-08
-2.69991e-07
7.02522e-08
-3.17029e-07
6.88865e-08
-3.36386e-07
6.81856e-08
-3.48427e-07
6.42996e-08
-3.52312e-07
6.3028e-08
-3.51926e-07
6.39751e-08
-3.48593e-07
6.51294e-08
6.89134e-08
-3.42643e-07
-2.60027e-07
3.86074e-08
2.66888e-07
-2.64031e-07
6.70038e-08
-2.68445e-07
7.46139e-08
-2.74866e-07
7.51313e-08
-3.12131e-07
7.23158e-08
-3.19275e-07
7.14436e-08
-3.21808e-07
6.55611e-08
-3.23814e-07
6.59818e-08
-3.2726e-07
6.85769e-08
7.50562e-08
-3.33403e-07
-3.11551e-07
4.45893e-08
3.31835e-07
-3.03956e-07
5.9358e-08
-2.95178e-07
6.5791e-08
-2.80971e-07
6.08727e-08
-2.59116e-07
5.02977e-08
-2.62903e-07
4.78549e-08
-2.59089e-07
6.17476e-08
-2.72228e-07
7.91205e-08
-2.93302e-07
8.96505e-08
9.72462e-08
-3.15491e-07
-4.7054e-07
3.28179e-08
4.87634e-07
-4.04804e-07
2.53951e-08
-3.62129e-07
2.30649e-08
-3.31675e-07
1.73538e-08
-2.91959e-07
1.9235e-09
-2.45297e-07
1.66747e-09
-2.27377e-07
4.38268e-08
-2.44129e-07
9.58721e-08
-2.58784e-07
1.04305e-07
9.64875e-08
-2.58026e-07
-4.56551e-07
7.30263e-08
4.17056e-07
-4.7311e-07
4.2651e-08
-4.76511e-07
2.7337e-08
-4.50537e-07
-9.07684e-09
-4.10206e-07
-4.08707e-08
-3.47417e-07
-3.84304e-08
-3.10327e-07
8.70072e-09
-2.24525e-07
4.1765e-08
-2.28402e-07
6.48441e-08
7.73236e-08
-2.45579e-07
-1.53371e-07
5.18774e-08
1.64019e-07
-2.3134e-07
6.17744e-08
-3.64406e-07
8.10923e-08
-4.04075e-07
3.23729e-08
-4.05854e-07
-3.65823e-08
-3.84208e-07
-5.70292e-08
-3.46538e-07
-2.35025e-10
-2.55445e-07
2.71798e-08
-2.26722e-07
2.36924e-08
1.51734e-08
-1.77511e-07
-9.61269e-08
5.70043e-08
1.46079e-07
-8.1643e-08
3.57318e-08
-5.35414e-08
4.17054e-08
-5.69341e-08
2.56749e-08
-1.00766e-07
-3.72472e-09
-1.09341e-07
-1.25424e-08
-1.0853e-07
-1.29168e-09
-8.14815e-08
9.21368e-11
-6.63865e-08
-8.11936e-09
-8.48201e-09
-3.55799e-08
1.20043e-07
5.56727e-08
-1.16283e-07
1.13491e-07
4.4663e-08
9.91186e-08
4.17166e-08
1.15988e-07
8.19584e-09
1.05753e-07
5.97937e-09
1.02192e-07
-9.69027e-09
1.14149e-07
-1.32875e-08
1.28586e-07
-1.43508e-08
1.21513e-07
-1.04924e-09
5.64463e-09
1.07384e-07
2.11827e-07
6.20476e-08
-1.97265e-07
2.05644e-07
5.97804e-08
2.10201e-07
4.02321e-08
2.17193e-07
5.30427e-09
2.42593e-07
-1.46341e-08
2.51807e-07
-4.02113e-08
1.72032e-07
-5.22867e-08
1.96945e-07
-4.49779e-08
1.88858e-07
7.03254e-09
2.26484e-08
1.71851e-07
2.5177e-07
7.00702e-08
-2.59983e-07
3.07248e-07
6.60038e-08
3.13663e-07
3.44292e-08
3.03781e-07
1.53449e-08
2.93049e-07
-3.75147e-09
2.74189e-07
-2.12011e-08
2.56402e-07
-3.43491e-08
2.4846e-07
-3.68631e-08
2.739e-07
-1.91316e-08
-8.51393e-09
3.12001e-07
3.12629e-07
5.92199e-08
-3.01968e-07
3.24786e-07
5.3657e-08
3.24648e-07
3.44444e-08
3.70729e-07
1.89821e-08
3.84936e-07
5.16781e-09
3.6656e-07
-4.76044e-09
3.52252e-07
-1.69356e-08
3.44466e-07
-2.56341e-08
3.56719e-07
-3.0775e-08
-3.41946e-08
3.82259e-07
3.027e-07
4.77354e-08
-2.91406e-07
3.17052e-07
3.91832e-08
3.35767e-07
1.58043e-08
3.52792e-07
1.96581e-09
3.62434e-07
-5.15079e-09
3.68896e-07
-1.13207e-08
3.67515e-07
-1.56899e-08
4.62719e-07
-2.27499e-08
4.79681e-07
-3.46462e-08
-4.30349e-08
4.88514e-07
3.9754e-07
3.29436e-08
-3.73075e-07
4.31252e-07
-2.60609e-09
4.56087e-07
-1.28961e-08
4.59652e-07
-1.68964e-08
4.12835e-07
-2.55002e-08
4.39125e-07
-3.77456e-08
4.62428e-07
-3.90722e-08
4.79665e-07
-4.03151e-08
6.15272e-07
-4.79534e-08
-5.06681e-08
6.24491e-07
3.64813e-07
1.2526e-08
-3.44533e-07
3.83621e-07
-2.09699e-08
4.87807e-07
-3.44418e-08
5.34941e-07
-4.05473e-08
5.6095e-07
-4.89785e-08
4.91112e-07
-6.54922e-08
5.28796e-07
-7.72486e-08
6.43573e-07
-7.61592e-08
6.80606e-07
-7.11865e-08
-6.81116e-08
6.98068e-07
3.90357e-07
-8.21507e-09
-3.69749e-07
4.10345e-07
-4.1084e-08
4.42617e-07
-6.62703e-08
5.9118e-07
-8.0036e-08
6.27568e-07
-8.50535e-08
6.52526e-07
-9.02627e-08
6.70484e-07
-9.51589e-08
6.85831e-07
-9.1482e-08
6.99812e-07
-8.5157e-08
-8.18046e-08
7.13524e-07
4.36974e-07
-4.7949e-08
-3.97302e-07
5.45295e-07
-6.6865e-08
5.86543e-07
-8.38304e-08
6.04147e-07
-9.76206e-08
6.19918e-07
-1.00864e-07
6.34595e-07
-1.04796e-07
6.45753e-07
-1.06278e-07
6.53819e-07
-9.95116e-08
6.60563e-07
-9.18764e-08
-9.54764e-08
6.74253e-07
4.88994e-07
-7.29601e-08
-4.63972e-07
5.07365e-07
-8.52293e-08
5.2171e-07
-9.81648e-08
5.32498e-07
-1.08391e-07
5.37386e-07
-1.10963e-07
5.54736e-07
-1.19478e-07
5.74873e-07
-1.25046e-07
5.91065e-07
-1.16889e-07
6.11607e-07
-1.13661e-07
-1.18989e-07
6.33476e-07
4.13802e-07
-9.57369e-08
-3.91015e-07
4.29009e-07
-1.00426e-07
4.35607e-07
-1.04755e-07
4.41838e-07
-1.1461e-07
4.58429e-07
-1.31608e-07
4.84715e-07
-1.49924e-07
5.0982e-07
-1.53288e-07
4.89054e-07
-1.19802e-07
4.13273e-07
-6.03494e-08
-4.55638e-08
2.50662e-07
3.46566e-07
-1.0879e-07
-3.33502e-07
3.50049e-07
-1.03902e-07
3.45986e-07
-1.01142e-07
3.41897e-07
-1.02268e-07
3.656e-07
-1.47101e-07
3.96834e-07
-1.83819e-07
3.90129e-07
-1.6125e-07
2.01599e-07
-1.47508e-07
1.64853e-07
-6.21006e-08
-4.07504e-08
1.59169e-07
2.82582e-07
-1.19716e-07
-2.71646e-07
2.63096e-07
-9.7401e-08
2.14398e-07
-8.17026e-08
2.42928e-07
-8.2831e-08
2.82121e-07
-1.23364e-07
2.48326e-07
-1.63044e-07
2.15713e-07
-1.94873e-07
1.52849e-07
-1.94904e-07
9.63708e-08
-1.81147e-07
-8.26799e-08
9.10408e-08
1.53704e-07
-1.16429e-07
-1.65781e-07
1.63854e-07
-1.03603e-07
1.85497e-07
-1.09753e-07
2.17367e-07
-1.21109e-07
2.42462e-07
-1.54866e-07
2.74744e-07
-1.79571e-07
2.61305e-07
-1.79193e-07
2.39028e-07
-1.72601e-07
2.16986e-07
-1.59086e-07
-1.2668e-07
1.2994e-07
7.70518e-08
-1.68334e-07
-5.8916e-08
1.38004e-07
-1.70849e-07
1.99987e-07
-1.77827e-07
2.48311e-07
-1.79376e-07
2.71242e-07
-1.82233e-07
2.71889e-07
-1.80173e-07
2.64043e-07
-1.71301e-07
2.47121e-07
-1.5566e-07
2.27312e-07
-1.39267e-07
-1.12212e-07
2.12853e-07
4.25838e-08
-2.54587e-07
2.5872e-08
8.83111e-08
-2.50179e-07
1.30711e-07
-2.31938e-07
1.73716e-07
-2.22299e-07
2.01944e-07
-2.10402e-07
2.16671e-07
-1.94876e-07
2.23264e-07
-1.7812e-07
2.32523e-07
-1.6348e-07
2.46481e-07
-1.52886e-07
-1.33766e-07
2.68046e-07
-1.81525e-07
-3.191e-07
2.45408e-07
-1.11153e-07
-3.1869e-07
-4.24017e-08
-2.87248e-07
4.57878e-09
-2.57664e-07
3.62532e-08
-2.40935e-07
5.87372e-08
-2.1728e-07
9.18989e-08
-2.13065e-07
1.38558e-07
-2.1079e-07
1.92884e-07
-2.07865e-07
-1.87917e-07
2.47036e-07
-4.38956e-07
-3.6197e-07
4.83683e-07
-3.5762e-07
-3.66666e-07
-2.92025e-07
-3.54934e-07
-2.2241e-07
-3.29421e-07
-1.53326e-07
-2.9824e-07
-9.20334e-08
-2.76992e-07
-3.28016e-08
-2.71945e-07
2.72791e-08
-2.70388e-07
9.41402e-08
-2.74211e-07
-2.31015e-07
1.43744e-07
-5.36871e-07
-3.6987e-07
5.49927e-07
-4.93556e-07
-4.03376e-07
-4.38276e-07
-4.12907e-07
-3.61925e-07
-4.0911e-07
-2.73512e-07
-3.91044e-07
-1.73697e-07
-3.6072e-07
-1.05888e-07
-3.25635e-07
-6.11533e-08
-3.1466e-07
-4.56357e-08
-2.89211e-07
-2.11017e-07
-3.19276e-08
-4.49935e-07
-2.61102e-07
3.36218e-07
-4.7986e-07
-3.89959e-07
-4.40827e-07
-4.54424e-07
-3.97499e-07
-4.68124e-07
-3.24387e-07
-4.68065e-07
-2.4032e-07
-4.47923e-07
-1.62676e-07
-4.07513e-07
-1.16922e-07
-3.44606e-07
-1.1111e-07
-2.88767e-07
-2.14348e-07
-6.64635e-08
-1.51357e-07
-2.44679e-07
1.29938e-07
-2.271e-07
-3.60129e-07
-2.43485e-07
-4.38758e-07
-2.44491e-07
-4.66896e-07
-2.44739e-07
-4.83578e-07
-2.06033e-07
-4.95929e-07
-1.56286e-07
-4.6288e-07
-1.15912e-07
-3.90692e-07
-1.08065e-07
-2.88607e-07
-1.88127e-07
-1.16909e-07
-3.46503e-09
-3.61889e-07
9.81919e-09
4.76858e-09
-4.13833e-07
2.47447e-08
-4.69633e-07
3.14327e-08
-4.73147e-07
2.17114e-08
-4.73359e-07
-1.01016e-08
-4.63543e-07
-3.92789e-08
-4.46051e-07
-4.30581e-08
-4.00909e-07
-3.37499e-08
-3.06859e-07
-1.4106e-07
-7.03833e-08
7.71617e-08
-3.64667e-07
-7.42723e-08
9.94382e-08
-4.36049e-07
1.37601e-07
-5.13035e-07
1.89532e-07
-5.35218e-07
2.33037e-07
-5.16419e-07
2.3957e-07
-4.69788e-07
2.07137e-07
-4.13035e-07
1.37621e-07
-3.30106e-07
8.26151e-08
-2.66701e-07
-1.00561e-07
3.91287e-08
1.51824e-07
-3.93723e-07
-1.22796e-07
2.14782e-07
-4.98814e-07
2.77271e-07
-5.75211e-07
3.23253e-07
-5.80783e-07
3.54372e-07
-5.47213e-07
3.52157e-07
-4.66807e-07
3.23971e-07
-3.82425e-07
2.69024e-07
-2.74352e-07
1.82976e-07
-1.74484e-07
-2.04182e-08
1.07342e-07
2.16673e-07
-4.69637e-07
-1.40671e-07
3.19669e-07
-6.01497e-07
3.77636e-07
-6.32688e-07
3.97538e-07
-6.0025e-07
3.68507e-07
-4.82708e-07
2.93648e-07
-3.02255e-07
2.32788e-07
-2.21318e-07
1.89098e-07
-1.44114e-07
1.56254e-07
-6.07721e-08
3.63534e-08
9.41987e-08
2.76713e-07
-5.7884e-07
-1.66531e-07
3.50975e-07
-6.74499e-07
3.61011e-07
-6.3281e-07
2.64194e-07
-4.13318e-07
2.45128e-07
-3.27365e-07
1.97634e-07
-2.54809e-07
1.55582e-07
-1.79364e-07
1.02909e-07
-9.15041e-08
5.34231e-08
-1.13323e-08
9.34973e-08
7.43016e-09
2.2055e-07
-5.74731e-07
-1.48748e-07
2.13829e-07
-5.87912e-07
1.6584e-07
-4.59697e-07
8.89943e-08
-3.36384e-07
4.67584e-08
-2.85178e-07
2.18592e-08
-2.30008e-07
-1.01148e-08
-1.47488e-07
-5.72858e-08
-4.44308e-08
-1.10761e-07
4.20806e-08
1.42541e-07
-1.96135e-07
3.41156e-08
-4.53563e-07
-4.17969e-08
-2.961e-08
-4.60501e-07
-1.2649e-07
-3.29764e-07
-1.63845e-07
-3.11286e-07
-1.9106e-07
-2.57989e-07
-2.09489e-07
-2.11627e-07
-2.43348e-07
-1.13726e-07
-2.8907e-07
1.15527e-09
-3.15127e-07
6.40161e-08
1.32786e-07
-4.06268e-07
-1.13798e-07
-5.03258e-07
6.9919e-08
-1.5826e-07
-3.52641e-07
-2.86301e-07
-3.48589e-07
-3.16033e-07
-3.43729e-07
-2.81209e-07
-2.73212e-07
-2.97215e-07
-1.95647e-07
-3.25793e-07
-8.53561e-08
-3.31226e-07
6.38294e-09
-4.75946e-07
5.79857e-08
1.31508e-07
-4.7939e-07
-2.45327e-07
-4.87138e-07
2.16852e-07
-2.57468e-07
-4.22718e-07
-3.62314e-07
-3.37796e-07
-3.90549e-07
-3.0999e-07
-3.68579e-07
-2.80325e-07
-3.60595e-07
-2.03835e-07
-3.39279e-07
-1.07837e-07
-5.09465e-07
6.85189e-09
-5.16898e-07
6.49287e-08
1.09367e-07
-5.05522e-07
-3.93999e-07
-4.86166e-07
3.63965e-07
-4.04507e-07
-4.49843e-07
-4.28488e-07
-3.51654e-07
-4.33193e-07
-2.99781e-07
-4.43111e-07
-2.6613e-07
-4.76179e-07
-2.14442e-07
-5.45254e-07
-1.12612e-07
-5.34806e-07
-3.57026e-09
-5.10466e-07
4.08763e-08
8.016e-08
-4.81436e-07
-5.19488e-07
-4.93694e-07
4.98329e-07
-4.91499e-07
-4.99609e-07
-4.46139e-07
-4.15279e-07
-4.5201e-07
-2.86736e-07
-4.88733e-07
-2.30732e-07
-5.15988e-07
-1.87339e-07
-5.06613e-07
-1.22107e-07
-4.68261e-07
-4.47089e-08
-4.4885e-07
2.10165e-08
5.98305e-08
-4.2785e-07
-5.75732e-07
-4.00396e-07
4.88073e-07
-5.7205e-07
-5.28741e-07
-4.48371e-07
-5.25668e-07
-3.63085e-07
-3.82312e-07
-3.73558e-07
-2.24476e-07
-3.97366e-07
-1.63602e-07
-3.95287e-07
-1.24228e-07
-3.69318e-07
-7.06878e-08
-3.38554e-07
-9.97723e-09
3.67565e-08
-3.162e-07
-4.19388e-07
-2.48268e-07
3.28129e-07
-5.18777e-07
-3.78213e-07
-4.71724e-07
-5.6902e-07
-3.50173e-07
-5.45613e-07
-2.29135e-07
-3.44795e-07
-2.51719e-07
-1.37926e-07
-2.82359e-07
-9.35855e-08
-2.76853e-07
-7.61902e-08
-2.45748e-07
-4.10791e-08
-7.64155e-09
-2.01347e-07
-1.69208e-07
-1.62409e-07
4.49152e-08
-3.54136e-07
-2.36754e-07
-4.46488e-07
-4.23271e-07
-3.7881e-07
-6.17722e-07
-1.96011e-07
-5.24243e-07
-1.33218e-07
-2.07143e-07
-1.78502e-07
-4.87869e-08
-2.03918e-07
-5.07708e-08
-1.96428e-07
-4.85669e-08
-3.50538e-08
-1.69013e-07
1.05597e-07
-5.61832e-08
-2.43233e-07
-1.08915e-07
-6.57104e-08
-2.51198e-07
-3.2981e-07
-2.80572e-07
-5.90793e-07
-2.38525e-07
-5.66444e-07
-6.39836e-08
-3.90797e-07
-7.58868e-08
-4.03808e-08
-1.31372e-07
4.7176e-09
-1.55769e-07
-2.41677e-08
-2.32642e-08
-1.6755e-07
8.08573e-08
-3.40692e-08
-1.03069e-07
-6.32114e-08
4.88566e-08
-1.73382e-07
-2.62825e-07
-1.87136e-07
-6.06908e-07
-1.48484e-07
-6.05078e-07
-2.97793e-08
-5.25779e-07
4.85614e-08
-1.20372e-07
5.64692e-09
5.2291e-08
-3.48071e-08
1.65863e-08
5.47392e-09
-6.35308e-08
-2.41981e-08
-2.90775e-08
3.12839e-08
-5.87616e-08
5.76169e-08
-1.16581e-07
-2.539e-07
-1.48197e-07
-5.7907e-07
-1.22206e-07
-6.31027e-07
-5.30874e-08
-5.98491e-07
5.11123e-08
-2.26221e-07
9.66827e-09
8.31519e-08
-3.28202e-08
5.90476e-08
-6.23494e-10
-2.67084e-08
-5.60797e-08
-4.21269e-09
4.89183e-08
-3.76534e-08
2.28868e-08
-8.26153e-08
-1.05793e-07
-1.45896e-07
-5.12031e-07
-1.44142e-07
-6.32838e-07
-1.25362e-07
-6.16172e-07
9.53777e-10
-3.48721e-07
1.49143e-08
5.15963e-08
1.69122e-08
2.8998e-08
-4.8061e-08
6.72089e-08
-3.30206e-08
-9.69219e-09
1.81897e-08
-4.97822e-10
1.78772e-09
-4.5837e-08
-2.94601e-08
-1.47635e-07
-3.86113e-07
-1.44785e-07
-6.35818e-07
-1.41625e-07
-6.18271e-07
-5.82733e-08
-4.12998e-07
1.58317e-08
1.17848e-09
7.23667e-08
-2.67882e-08
-8.30115e-08
1.15075e-07
1.3696e-08
-1.12099e-09
1.33839e-09
3.96307e-08
-3.36688e-09
1.10222e-08
-2.54074e-09
-5.02705e-09
-3.46225e-07
-4.14372e-08
-5.99503e-07
-7.2636e-08
-5.87164e-07
-3.94069e-08
-4.28317e-07
5.63202e-08
-4.32443e-08
7.01454e-08
-8.46711e-09
-2.13276e-09
2.94287e-08
-9.0975e-10
-1.18803e-12
-2.09733e-10
0
1.00704e-11
1.14681e-09
-3.74051e-09
6.29505e-09
-3.70915e-07
-3.12807e-08
-5.61888e-07
-5.856e-08
-5.60279e-07
-1.95798e-08
-4.63933e-07
1.06928e-08
-3.15836e-08
2.22652e-09
-5.67554e-13
-9.68826e-12
1.03854e-10
7.4361e-12
-1.41227e-14
-8.61816e-12
0
2.47203e-09
3.60782e-09
-7.23646e-09
9.23391e-09
-3.67231e-07
-2.56239e-08
-5.27386e-07
-5.80696e-08
-5.27745e-07
-3.83103e-08
-5.00487e-07
-3.07627e-12
-7.35184e-08
-6.05355e-14
-3.48113e-12
-9.80784e-12
-3.22985e-14
4.966e-13
2.45695e-13
-7.35306e-13
1.01267e-09
1.61857e-09
1.81885e-08
-2.41462e-08
4.99522e-08
-3.94419e-07
2.17507e-08
-4.99096e-07
-7.5504e-09
-4.98376e-07
-3.69684e-08
-4.6782e-07
-3.55401e-11
-1.06178e-07
-9.89563e-12
-2.8827e-11
-1.11857e-12
-4.28441e-13
0
1.80636e-11
4.72417e-13
1.58544e-09
5.2368e-11
3.68366e-08
-6.24187e-08
5.03241e-08
-4.17142e-07
1.95488e-09
-4.5066e-07
-4.46367e-08
-4.51798e-07
-6.60592e-08
-4.42924e-07
-3.50438e-10
-1.6281e-07
-4.58794e-12
-3.73853e-10
-4.7212e-12
-4.12514e-12
0
2.00408e-10
-7.46952e-15
3.71724e-10
-3.04388e-10
6.894e-08
-1.30112e-07
5.08391e-08
-3.98819e-07
1.40052e-08
-4.1384e-07
-2.78783e-08
-4.09919e-07
-7.22801e-08
-3.99026e-07
-4.31921e-09
-2.40809e-07
-8.71275e-11
-4.57627e-09
-6.47372e-12
-3.84088e-11
2.55401e-10
5.48875e-10
-2.92389e-10
9.17036e-09
-9.2099e-09
9.93492e-08
-2.17641e-07
5.4733e-08
-3.53878e-07
2.34161e-09
-3.61453e-07
-4.06535e-08
-3.66922e-07
-7.50473e-08
-3.64636e-07
-2.63396e-08
-2.94604e-07
-1.20617e-10
-3.07385e-08
-5.23967e-11
-1.59373e-11
6.5416e-10
1.23488e-10
5.57318e-14
4.82671e-08
-5.78546e-08
1.14451e-07
-2.87496e-07
7.66777e-08
-3.1611e-07
3.16006e-08
-3.16376e-07
-2.17616e-08
-3.1356e-07
-7.62862e-08
-3.1011e-07
-7.73123e-08
-2.9201e-07
-3.1657e-09
-1.03058e-07
-3.21809e-09
-2.571e-20
2.5336e-08
-2.53969e-08
9.59751e-16
1.39935e-07
-1.73234e-07
1.01869e-07
-2.49695e-07
4.46126e-08
-2.58854e-07
-8.91246e-09
-2.62851e-07
-6.00428e-08
-2.6243e-07
-1.06178e-07
-2.63975e-07
-1.39531e-07
-2.58655e-07
-3.79e-08
-2.03746e-07
-4.11181e-08
-2.38519e-21
9.02332e-08
-2.78954e-10
1.08988e-07
7.69092e-08
4.3818e-08