/*--------------------------------*- C++ -*----------------------------------*\
  =========                 |
  \\      /  F ield         | OpenFOAM: The Open Source CFD Toolbox
   \\    /   O peration     | Website:  https://openfoam.org
    \\  /    A nd           | Version:  8
     \\/     M anipulation  |
\*---------------------------------------------------------------------------*/
FoamFile
{
    version     2.0;
    format      ascii;
    class       volScalarField;
    location    "8.2";
    object      p_rgh;
}
// * * * * * * * * * * * * * * * * * * * * * * * * * * * * * * * * * * * * * //

dimensions      [1 -1 -2 0 0 0 0];

internalField   nonuniform List<scalar> 
9150
(
1963.31
1962.31
1961.67
1961.2
1960.97
1960.98
1961.21
1961.67
1962.29
1963.3
1962.87
1962.36
1961.94
1961.62
1961.44
1961.42
1961.6
1961.93
1962.35
1962.87
1962.6
1962.32
1962.06
1961.84
1961.73
1961.73
1961.85
1962.06
1962.31
1962.6
1962.48
1962.3
1962.14
1961.97
1961.9
1961.9
1961.98
1962.14
1962.3
1962.48
1962.48
1962.3
1962.16
1962.03
1961.97
1961.97
1962.03
1962.16
1962.3
1962.48
1951.5
1950.71
1951.01
1951.41
1951.59
1951.57
1951.36
1950.93
1950.65
1951.45
1955.6
1954.88
1954.73
1954.64
1954.73
1954.73
1954.63
1954.7
1954.86
1955.58
1958.7
1957.95
1957.65
1957.27
1957.21
1957.22
1957.28
1957.64
1957.94
1958.69
1961.44
1960.29
1959.81
1959.21
1959.01
1959.03
1959.2
1959.81
1960.28
1961.42
1963.99
1961.96
1961.19
1960.5
1960.21
1960.23
1960.48
1961.17
1961.94
1963.98
1947.51
1945.76
1943.67
1942.42
1941.69
1941.62
1942.09
1943.06
1944.81
1945.6
1946.4
1946.04
1944.99
1944.56
1944.02
1943.89
1944.26
1944.51
1945.36
1945.52
1945.76
1945.89
1944.82
1945.09
1944.68
1944.56
1945.07
1944.52
1945.48
1945.26
1942.49
1945.28
1944.37
1945.76
1945.65
1945.51
1945.71
1944.07
1945.09
1942.22
1936.47
1945.92
1946.45
1947.74
1948.16
1948.14
1947.76
1946.33
1945.82
1936.29
1602.66
1602.79
1603.05
1603
1603.21
1603.33
1603.39
1603.46
1603.51
1603.52
1602.78
1602.92
1602.85
1602.92
1603.05
1603.15
1603.25
1603.41
1603.48
1603.45
1602.73
1602.86
1603.1
1603.48
1603.06
1603.2
1603.31
1603.67
1603.86
1603.84
1602.7
1602.81
1603.01
1603.24
1603.33
1603.28
1603.43
1603.81
1603.94
1603.93
1602.61
1602.85
1603.06
1603.17
1603.19
1603.18
1603.43
1603.68
1603.82
1603.8
1602.42
1602.84
1602.89
1602.93
1602.61
1602.71
1603.08
1603.28
1603.39
1603.37
1602.15
1602.59
1602.59
1602.6
1602.3
1602.32
1602.67
1602.7
1602.7
1602.64
1602.35
1602.36
1602.3
1602.25
1602.14
1602.16
1602.18
1602.16
1602.11
1602.07
1602.14
1602.04
1601.93
1601.85
1601.81
1601.78
1601.76
1601.74
1601.79
1601.83
1601.81
1601.7
1601.62
1601.57
1601.53
1601.52
1601.48
1601.52
1600.55
1600.67
1601.66
1601.55
1601.46
1601.37
1601.27
1601.25
1600.85
1600.41
1600.13
1600.67
1601.56
1601.49
1601.51
1601.39
1600.12
1596.92
1595.14
1595.69
1599.91
1600.18
1601.62
1601.41
1601.62
1599.84
1594.52
1594.65
1594.62
1595.03
1599.85
1599.91
1601.79
1601.71
1598.92
1594.2
1594.14
1593.98
1600.07
1600.86
1600.05
1600.16
1602.23
1599.79
1594.19
1594.26
1594.2
1601.38
1601.03
1600.25
1599.53
1581.6
1602.52
1595.43
1594.88
1596.81
1602.8
1602.02
1601.28
1594.63
1568.11
1566.89
1598.96
1596.01
1597.29
1604.13
1603.62
1602.89
1590.12
1564.29
1564.68
1565.14
1596.74
1596.6
1603.42
1605.26
1605.1
1599.07
1565.25
1564.32
1563.94
1570.81
1597.05
1605.16
1607.09
1607.27
1607.22
1593.95
1564.47
1563.92
1563.16
1585.06
1597.4
1605.91
1608.99
1609.08
1609.01
1600.74
1566.55
1563.4
1562.38
1584.25
1598.87
1601.5
1610.44
1610.35
1610.18
1601.6
1587.99
1565.9
1562.16
1572.46
1599.88
1599.5
1607.69
1611.61
1610.91
1606.41
1606.89
1597
1562.59
1562.67
1605.65
1599.46
1600.13
1611.9
1611.79
1611.64
1611.57
1611.27
1586.95
1563.5
1609.47
1599.15
1598.43
1604.01
1611.41
1611.32
1611.25
1611.08
1607.31
1594.91
1609.83
1603.2
1596.88
1596.84
1609.23
1610.9
1610.86
1610.71
1610.82
1610.91
1609.89
1608.82
1596.1
1596.11
1599.15
1610.15
1610.41
1610.54
1610.72
1610.96
1610.01
1609.99
1606.66
1595.66
1599.27
1607.9
1609.67
1610.2
1610.5
1610.94
1609.79
1609.68
1609.85
1608.22
1608.6
1608.71
1609.39
1610.18
1610.39
1610.77
1531.47
1578.76
1610.08
1609.98
1610.04
1610.21
1610.38
1610.6
1610.91
1611.29
1507.75
1507.14
1515.52
1558.32
1610.41
1610.49
1610.7
1611.13
1611.62
1612.14
1505.94
1505.09
1504.24
1503.67
1507.17
1554.94
1611.05
1611.55
1612.25
1612.95
1529.43
1502.17
1501.66
1501.48
1501.28
1501.08
1511.86
1588.04
1613.06
1613.84
1606.75
1540.32
1499.45
1499.35
1499.4
1499.41
1499.32
1499.28
1593.05
1614.83
1609.68
1611.74
1544.54
1497.58
1497.45
1497.58
1497.8
1497.77
1499.74
1582.82
1585.01
1616.45
1614.95
1560.03
1496.35
1496.34
1496.23
1496.01
1495.72
1496.98
1587.1
1616.18
1616.77
1616.84
1584.37
1528.78
1494.62
1495.17
1495.24
1504.21
1588.98
1616.72
1617.1
1617.67
1618.36
1614.68
1580.45
1523.2
1531.02
1588.32
1561.39
1592.85
1616.33
1617.14
1617.46
1612.35
1592.88
1605.31
1616.12
1621.22
1575.21
1574.78
1576.41
1588.24
1584.86
1584.16
1585.02
1592.42
1621.2
1622.02
1573.76
1573.27
1573.25
1573.66
1603.64
1593.58
1591.22
1604.21
1609.95
1594.88
1608.36
1604.34
1611.58
1614.06
1617.07
1617.28
1609.07
1583.72
1584.08
1584.5
1601.05
1574.01
1610.79
1617.02
1617.12
1617
1591.02
1583.59
1591.64
1619.1
1550.11
1548.23
1584.9
1618.49
1618.5
1618.08
1610.36
1608.67
1617.53
1618.79
1560.26
1545.47
1544.93
1588.53
1618.88
1618.53
1618.27
1618.07
1617.97
1617.96
1566.97
1543.4
1543.15
1542.9
1574.88
1617.97
1617.56
1617.38
1617.41
1617.44
1565.47
1541.61
1541.61
1541.49
1541.43
1583.86
1617.8
1617.18
1617.19
1617.26
1613.45
1556.23
1541.07
1550.8
1618.78
1617.26
1614.8
1614.17
1614.57
1615.48
1613.92
1612.74
1611.25
1614.09
1614.27
1595.37
1449.71
1418.93
1441.19
1528.8
1306.56
1320.61
1564.61
1608.12
1608.29
1610.65
1578.92
1397.4
1352.25
1351.36
1360.68
1259.04
1254.56
1255.27
1325.42
1384.87
1230.2
1230.16
1351.01
1439.3
1546.4
1544.63
1296.51
1229.5
1227.94
1228.56
1229
1228.33
1226.51
1223.95
1433.87
1588.41
1592.29
1587.78
1604.68
1610.47
1452.1
1224.47
1221.56
1220.5
1408.83
1534.8
1631.65
1630.95
1630.12
1630.1
1630.29
1629.64
1613.78
1622.98
1410.61
1408.2
1406.21
1450.21
1612.85
1627.44
1621.41
1626.17
1630.83
1631.61
1412.25
1410.76
1408.69
1407.13
1406.69
1405.3
1404.68
1487.43
1626.27
1631.62
1584.32
1589.52
1593.44
1594.97
1446.6
1406.75
1405.19
1403.65
1523.05
1633.62
1389.03
1389.12
1414.67
1605.61
1645.23
1524.67
1408.66
1489.82
1633.03
1635.9
1392.02
1390.06
1389.24
1521.25
1652.02
1648.92
1645.12
1641.9
1638.66
1635.72
1395.38
1464.16
1649.58
1658.99
1654.64
1650.65
1646.33
1641.81
1637.54
1633.8
1674.23
1670.21
1666.24
1661.94
1655.27
1643.07
1645.77
1640.14
1634.76
1628.75
1676.27
1672.33
1668.3
1663.72
1656.5
1643.48
1642.32
1598.35
1514.57
1339.83
1677.89
1674.14
1666.03
1648.44
1645.17
1643.88
1633.79
1389.8
802.68
779.818
1680.76
1644.47
1508.61
1371.71
1429.26
1505.65
1442.62
1299.06
1106.41
804.617
1615.45
1379.31
1347.68
1344.42
1340.77
1402.49
1664.08
1662.53
1660.58
1524.3
1417.36
1360.12
1348.66
1383.47
1558.54
1670.06
1667.49
1665.9
1665.11
1665.18
1665.02
1603.72
1646.68
1675.83
1671.73
1668.13
1665.72
1660.68
1663.42
1663.2
1686.58
1677.95
1652.13
1640.86
1667.7
1665.93
1659.81
1656.22
1652.99
1654.63
1671.78
1612.48
1568.74
1566.33
1609.49
1663.74
1662.61
1659.09
1652.82
1632.68
1641.81
1574.49
1555.72
1560.1
1563.87
1592.7
1645.71
1662.1
1656.97
1505.63
1440.06
1575.39
1611.2
1563.81
1556.98
1563.77
1566.21
1622.71
1660.25
1453.1
1121.47
1468.06
1605.87
1617.58
1617.44
1571.98
1571.07
1575.63
1606.35
1597.83
1369.1
1457.03
1554.95
1613.91
1623.92
1635.16
1616.16
1592.36
1593.94
1613.53
1609.12
1609.55
1611.35
1605.33
1623.61
1632.37
1640.64
1648.94
1618.52
1611.64
1610.77
1608.74
1607.14
1609.72
1612.65
1612.18
1611.45
1609.07
1591.84
1365.63
1606.65
1600
1593.25
1585.72
1546.35
1423.96
1281.36
1199.41
1180.62
1123.03
1602.7
1587.93
1566.77
1394.48
1116.13
1007.15
1005.95
1008.58
1014.33
1028.78
1482.05
1472.02
1289.7
1010.25
997.407
986.241
978.546
980.237
988.693
1052.53
1172.69
1132.77
1057.38
1029.5
1011.07
1001.44
994.69
993.942
1001.19
1378.47
1376.43
1163.66
1323.22
1528.36
1041.98
1032.31
1030.62
1033.19
1285.66
1614.21
1590.66
1266.12
1554.69
1646.3
1497.85
1065.51
1066.62
1351.84
1664.95
1662.55
1631.45
1634.94
1606.67
1668.15
1665.23
1547.99
1571
1689.18
1696.25
1697.6
1653.47
1664.66
1672.01
1686.8
1717.4
1723.57
1725.84
1722.89
1727.7
1726.09
1598.54
1655.99
1605.11
1591.41
1606.37
1744.24
1747.63
1749.19
1749.68
1747.79
1124.82
1481.26
1605.94
1628.75
1577.81
1585.23
1758.1
1758.31
1758.29
1757.98
1061.84
1062.97
1554.23
1734.71
1595.03
1344.39
1720.5
1761.94
1759.93
1757.49
1529.35
1079.64
1138.73
1744.78
1762.18
1324.41
1218.32
1762.4
1759.91
1757.84
1706.01
1112.54
1119.83
1726.98
1757.88
1625.91
1104.29
1324.53
1761.55
1758.26
1533.43
921.962
1129.37
1686.11
1744.49
1678.59
1081.12
1251.18
1756.3
1754.06
701.222
703.175
729.617
1497.5
1743.73
1728.31
1215.69
1034.9
1281.6
1519.83
338.943
394.206
181.948
1249.32
1753.55
1759.53
1306.79
982.481
1008.45
998.313
116.202
229.14
87.6623
1020.6
1772.22
1776.23
1320.92
977.688
934.835
390.91
-0.0862
92.1928
26.919
1083.29
1791.8
1796.66
1320.39
137.574
0.328702
-0.0137444
0.0719726
79.4496
25.0977
1288.98
1810.95
1816.49
1542.41
79.5064
0.000662535
-0.0133028
0.0618965
21.9438
22.8712
1397.78
1832.99
1834.94
1746.29
380.024
0.0223477
0.0766582
0.0745543
0.100606
180.159
1633.7
1852.62
1854.23
1803.26
581.816
0.0298537
0.0559049
0.477813
0.273813
500.334
1802.22
1872.8
1873.09
1866.64
988.055
0.0739355
0.077619
5.56286
0.416179
1004.3
1886.66
1892.77
1892.72
1891.75
1451.12
0.169032
0.08655
3.11131
57.4278
1570.11
1909.77
1910.98
1911.55
1910.92
1774.25
380.558
-0.00663234
2.17217
966.474
1920.35
1927.18
1926.93
1926.43
1926.1
1925.82
1237.87
-0.00150161
531.269
1840.04
1938.99
1937.15
1936.35
1936.31
1937.17
1939.13
1911.2
754.559
1603.57
1603.57
1603.59
1603.74
1603.98
1604.02
1603.82
1603.62
1603.5
1603.4
1603.35
1603.27
1603.18
1603.1
1603.09
1603.15
1603.2
1603.24
1603.38
1603.57
1603.8
1604.07
1604.29
1604.54
1604.93
1605.11
1605.74
1605.89
1605.73
1605.46
1605.09
1604.75
1604.52
1604.28
1603.99
1603.91
1603.91
1604.03
1604.07
1604.16
1603.39
1603.29
1603.17
1603.05
1602.87
1603.23
1602.96
1603.18
1603.15
1603.11
1603.12
1603.04
1603.03
1602.97
1603.03
1603.08
1603.01
1603.21
1602.98
1603.27
1603.6
1603.95
1604.15
1604.16
1604.65
1605.08
1605.5
1605.53
1605.55
1605.35
1605.08
1604.72
1604.71
1604.48
1603.38
1602.95
1602.76
1602.9
1603.34
1603.74
1603.75
1603.49
1603.16
1602.35
1601.09
1601.21
1600.94
1602.61
1603.07
1602.84
1602.74
1602.71
1602.67
1602.67
1602.79
1603
1603.22
1602.78
1602.88
1603.05
1603.49
1603.85
1603.97
1604.14
1604.46
1604.9
1605.14
1605.2
1605.1
1604.87
1604.76
1604.37
1603.41
1602.01
1601.6
1601.3
1601.39
1601.28
1602.9
1603.99
1603.81
1603.51
1603.19
1602.51
1600.14
1600.02
1599.81
1599.57
1601.73
1602.5
1602.54
1602.62
1602.72
1602.77
1602.71
1602.98
1603.23
1602.86
1601.81
1601.64
1602.94
1603.53
1602.39
1601.89
1602.46
1603.72
1604.35
1604.65
1604.78
1604.85
1604.81
1603.3
1601.25
1601.75
1601.39
1601.25
1601.17
1601.07
1602.1
1605.32
1603.59
1603.31
1603.12
1602.98
1602.42
1599.45
1598.55
1598.59
1598.48
1601.81
1602.3
1602.37
1602.42
1601.2
1600.62
1601.98
1603.77
1602.92
1600.97
1601.17
1601.27
1601.36
1601.4
1601.28
1600.99
1603.27
1604.15
1604.2
1604.45
1604.81
1605
1604.83
1604.88
1604.83
1604.44
1602.66
1601.23
1602.95
1605.12
1605.14
1603.2
1602.92
1602.57
1602.3
1602.21
1601.91
1600.26
1598.68
1598.49
1599.6
1601.62
1602.42
1602.19
1599.58
1599.74
1599.61
1600
1600.49
1600.85
1603.26
1601.52
1601.55
1601.49
1602.74
1604.11
1603.24
1602.64
1600.45
1601.4
1604.31
1604.82
1605.12
1605.47
1605.58
1605.53
1605.33
1605.17
1605.15
1605.18
1605.31
1602.48
1602.21
1601.91
1601.71
1601.55
1600.67
1600.5
1600.43
1600.38
1600.43
1600.92
1602.11
1602.12
1602.31
1600.51
1600.23
1600.62
1601.17
1605.74
1606.72
1602.59
1602.17
1604.32
1605.53
1604.85
1603.41
1597.43
1595.81
1596.51
1598.05
1602.86
1602.71
1605.2
1604.94
1602.9
1602.44
1602.49
1604.01
1604.58
1604.59
1601.98
1601.8
1601.58
1601.22
1600.23
1599.05
1598.84
1599.35
1600.41
1600.92
1601.51
1602.46
1603.44
1604.13
1603.96
1601.99
1603.45
1605.64
1606.07
1606.38
1605.38
1605.2
1606.52
1605.91
1605.12
1600.85
1595.29
1596.27
1597.08
1597.45
1597.58
1598.65
1604.13
1603.31
1601.19
1600.91
1600.42
1600.31
1602.66
1602.84
1601.82
1601.7
1601.22
1600.15
1598.86
1598.65
1598.5
1598.82
1600.71
1601.31
1601.98
1602.83
1604.04
1604.86
1604.97
1605.13
1606.02
1605.87
1602.54
1602.98
1604.65
1607.6
1606.95
1605.97
1605.19
1604.95
1602.39
1597.13
1597.22
1602.89
1605.44
1605.92
1604.25
1604.03
1602.99
1602.25
1600.28
1599.71
1601.07
1600.95
1600.85
1600.77
1600.28
1599.92
1600.09
1599.14
1597.71
1598.5
1600.06
1597.83
1597.08
1601.27
1603.61
1604.51
1605.22
1605.62
1605.81
1602.37
1601.66
1602.96
1605.18
1604.65
1603.97
1603.35
1602.99
1603.25
1604.17
1605.22
1605.87
1606.27
1606.51
1606.34
1605.64
1604.63
1603.67
1602.85
1602.61
1599.29
1598.86
1599.72
1601.07
1600.78
1600.18
1599.43
1598.44
1595.74
1595.16
1595.6
1592.88
1593.44
1594.95
1601.45
1602.51
1602.91
1603.46
1603.82
1602.77
1600.2
1600.9
1602.28
1601.46
1599.88
1597.74
1595.97
1597.33
1598.87
1600.28
1601.58
1602.07
1601.7
1602.08
1602.97
1602.39
1600.69
1596.86
1596.37
1598.54
1599.37
1596.45
1596.65
1599.79
1598.99
1598.4
1589.18
1590.51
1594.84
1594.16
1589.74
1590.45
1591.55
1597.75
1600.21
1600.92
1601.42
1597.24
1595.81
1596.7
1601.18
1600.35
1599.34
1598.03
1592.77
1572.5
1567.26
1581.51
1590.06
1594.6
1596.68
1596.62
1597.54
1598.11
1598.92
1599.26
1593.84
1582.59
1581.94
1591.59
1597.29
1594.75
1594.61
1599.67
1596.7
1585.93
1585.87
1593
1595.06
1590.04
1589.93
1590.72
1598.08
1599.13
1599.55
1599.12
1593.14
1593.11
1593.13
1596.88
1599.51
1598.53
1597.61
1596.47
1582.3
1564.89
1562.53
1561.07
1562.04
1583.1
1594.52
1596.76
1596.11
1597.55
1599.7
1598.96
1590.75
1581.96
1582.2
1587.2
1598.95
1599.52
1596.06
1599.68
1586.61
1585.34
1589.5
1595.07
1592.53
1591.06
1592.2
1598.64
1598.96
1599.24
1597.87
1591.66
1591.74
1591.62
1593.25
1599.06
1598.44
1597.74
1597.14
1596.68
1594.77
1575.27
1563.04
1562.67
1562.85
1570.39
1595.41
1597.53
1598.9
1599.34
1600.1
1600.13
1599.55
1588.33
1587.18
1588.34
1604.29
1604.63
1604.91
1571.57
1583.94
1600.35
1600.03
1593.22
1592.55
1593.1
1599.34
1599.31
1599.36
1599.45
1595.85
1591.21
1591.14
1591.14
1599.08
1598.41
1597.71
1597.01
1596.53
1596.25
1590.8
1565.12
1562.84
1563.34
1565.07
1590.71
1597.05
1597.16
1596.08
1600.02
1601.34
1601.68
1602.57
1603.91
1598.12
1590.38
1591.58
1592.38
1599.58
1568.07
1597.69
1601.59
1599.46
1593.49
1593.18
1598.83
1599.89
1599.67
1599.34
1598.75
1598.05
1594.68
1593
1597.33
1598.84
1598.1
1597.28
1596.47
1590.49
1559.95
1560.01
1564.54
1588.2
1581.38
1590.36
1596.83
1597.99
1598.18
1595.88
1596.33
1602.43
1602.99
1603.63
1604.85
1606.48
1608.02
1594.29
1587.74
1587.77
1585.62
1602.55
1602.43
1597.46
1594.16
1596.79
1600.72
1600.38
1598.59
1598.44
1599.91
1599.9
1599.77
1599.67
1599.51
1599.15
1598.45
1597.74
1593.72
1556.22
1554.49
1564.47
1594.2
1594.85
1595.33
1595.77
1596.99
1598.59
1600.48
1602.08
1596.34
1591.64
1602.71
1603.35
1603.87
1604.91
1606.23
1607.08
1602.99
1594.3
1604
1603.67
1602.82
1596.46
1595.02
1601.69
1601.33
1599.38
1598.85
1599.38
1599.82
1599.31
1599.08
1599.23
1599.59
1599.25
1598.38
1583.05
1554.65
1552.61
1550.79
1548.77
1562.91
1567.87
1566.73
1580.8
1594.61
1598.26
1600.26
1602.06
1603.63
1587.18
1573.43
1593.83
1601.04
1602.42
1604.14
1605.45
1605.45
1605.66
1605.1
1604.66
1602.06
1597.18
1600.2
1602.05
1601.51
1601.1
1600.1
1579.35
1556
1554.71
1556.59
1564.18
1583.5
1588.61
1561.54
1553.82
1553.83
1553.05
1551.56
1550.57
1550.27
1550.45
1550.9
1551.57
1582.62
1599.34
1600.3
1600.91
1600.92
1600.51
1546.29
1534.36
1574.2
1600.42
1602.96
1604.34
1602.44
1602.63
1606
1605.31
1604.06
1602.52
1603.11
1602.5
1602.01
1601.68
1593.31
1554.34
1554.18
1553.88
1553.99
1553.95
1554.14
1554.51
1568.38
1578.46
1563.44
1563.09
1568.81
1574.86
1562.24
1552.27
1552.77
1553.08
1576.82
1601.48
1601.59
1601.23
1591.61
1560.24
1507.39
1509
1512.94
1587.4
1604.29
1605.89
1602.83
1595.7
1606.57
1605.85
1605.28
1604.6
1603.83
1603.2
1602.75
1602.39
1601.73
1587
1556.95
1552.61
1552.31
1551.94
1563.9
1589.51
1596.65
1597.21
1596.31
1597.46
1602.12
1603.92
1604.05
1587.73
1555.92
1560.23
1598.19
1604.49
1604.36
1603.62
1548.38
1505.6
1507.49
1508.32
1508.35
1567.22
1607.42
1608.26
1606.68
1596.95
1574.91
1602.94
1604.53
1604.42
1603.39
1602.99
1603.19
1602.94
1602.18
1602.95
1600.45
1590.95
1584.51
1586.67
1594.85
1599.49
1599.14
1592.84
1593.44
1594.41
1595.21
1602.62
1605.64
1605.51
1591.52
1601.58
1607.57
1607.77
1607.76
1607.42
1547.23
1506.41
1507.88
1508.21
1508.17
1567.83
1611.32
1611.54
1609.08
1598.57
1563.44
1563.66
1579.52
1582.06
1582.27
1588.56
1598.09
1601.99
1604.95
1605.02
1605.38
1605.34
1604.82
1604.41
1603.46
1602
1604.35
1605.92
1606.42
1604.56
1597.84
1598.62
1602.27
1608.25
1609.48
1609.92
1610.15
1610.28
1610.44
1610.51
1609.49
1538.07
1507.63
1508.06
1531.36
1610.44
1614.3
1613.88
1610.43
1599.81
1583.73
1586.24
1592.28
1600.54
1604.59
1605.04
1599.64
1599.3
1600.81
1605.04
1606.73
1606.56
1606.15
1606.36
1605.87
1607.13
1608.05
1608.44
1608.81
1609.26
1607.77
1600.84
1605.31
1611.01
1611.41
1611.76
1611.51
1611.58
1612.05
1612.33
1612.62
1612.83
1576.95
1583.11
1613.14
1614.38
1614.3
1613
1611.23
1600.56
1610.74
1610.25
1610.14
1610.27
1610.65
1606.93
1591.12
1568.72
1567.82
1572.36
1598.35
1581.16
1549.41
1558.57
1600.02
1610.51
1610.58
1610.68
1610.87
1611.17
1611.58
1610.18
1611.1
1612.33
1612.6
1612.26
1612.33
1612.63
1613.1
1613.31
1613.46
1613.6
1613.45
1575.35
1595.55
1614.33
1610.17
1585.08
1588.58
1602.28
1611.27
1611.22
1610.98
1610.89
1601.33
1600.81
1610.79
1611.77
1574.54
1547.49
1546.92
1546.89
1548.65
1550.04
1566.86
1612.16
1613.23
1612.95
1612.85
1612.86
1612.62
1612.88
1613.18
1613.28
1613.2
1612.94
1613.13
1613.46
1613.69
1614.02
1614.43
1614.92
1599.92
1572.97
1572.87
1584.14
1576.83
1568.92
1569
1602.12
1611.46
1611.75
1611.8
1608.81
1589.56
1590.92
1610.63
1612.83
1602.9
1563.53
1560.23
1572.39
1588.29
1606.99
1616
1615.62
1615.05
1614.63
1614.38
1614.27
1614.23
1614.21
1614.23
1614.21
1614.17
1614.07
1613.98
1614.02
1614.36
1614.87
1615.44
1616.14
1616.79
1605.26
1577.41
1570.26
1569.82
1569.93
1570.26
1584.09
1611.33
1611.77
1608.89
1589.18
1588.87
1596.38
1615.29
1605.23
1596.54
1593.71
1599.58
1605.15
1607.5
1610.01
1610.69
1613.28
1616.11
1615.87
1615.66
1615.52
1615.45
1615.37
1615.32
1615.23
1615.09
1614.87
1614.63
1614.53
1614.74
1615.35
1616.17
1617.24
1618.84
1619.49
1619.19
1618.99
1590.43
1569.51
1570.32
1579.58
1611.75
1612.2
1597.44
1588.15
1588.46
1599.42
1614.58
1613.83
1612.2
1604.31
1605.49
1610.35
1610.78
1608.25
1607.7
1610.14
1616.12
1616.22
1616.28
1616.48
1616.68
1616.83
1616.85
1616.63
1616.26
1615.75
1615.17
1614.77
1614.35
1614.66
1615.86
1616.73
1617.42
1612.74
1609.87
1614.7
1618.42
1604.88
1569.8
1591.19
1612.65
1613.17
1601.87
1587.93
1588.44
1598.57
1614.74
1615.07
1615.21
1615.3
1615.28
1615.53
1615.49
1611.41
1578.87
1605.89
1617.28
1616.69
1617.1
1617.49
1617.91
1618.35
1618.46
1618.19
1617.52
1615.91
1611.56
1597.74
1598.91
1612.38
1615.03
1615.48
1615.53
1572.53
1531.05
1553.6
1615.55
1619.43
1599.99
1590.04
1613.48
1614.04
1613.45
1588.18
1588.49
1601.38
1615.09
1615.32
1615.46
1615.52
1615.56
1615.69
1616.02
1607.5
1570.87
1582.08
1618.27
1618.11
1618.53
1619.01
1619.36
1619.68
1617.04
1608.23
1601.24
1589.72
1581.9
1581.19
1581.88
1611.25
1614.68
1603.29
1528.99
1523.96
1525.4
1526.44
1564.73
1620.1
1599.81
1589.08
1613.12
1614.53
1614.92
1595.94
1589.75
1610.73
1615.55
1615.67
1615.71
1615.68
1615.67
1615.89
1616.39
1615.9
1574.19
1572.88
1616.96
1618.6
1619
1619.46
1612.28
1606.11
1594.19
1585.71
1584.04
1582.16
1580.13
1579.22
1604.23
1609.4
1577.98
1517.71
1518.98
1520.35
1521.76
1523.14
1544.66
1616.78
1617.77
1591.04
1613.51
1614.84
1613.83
1607.28
1609.76
1615.69
1616
1615.99
1615.89
1615.7
1615.63
1615.79
1616.46
1617.19
1617.62
1570.8
1577.78
1616.79
1619.69
1619.28
1606.32
1595.11
1593.91
1594.11
1589.39
1596.63
1604.35
1602.68
1600.56
1544.43
1512.32
1512.79
1514.4
1515.99
1517.68
1519.27
1570.61
1619.06
1621.76
1598.19
1613.87
1614.91
1613.01
1613.97
1615.95
1616.55
1616.61
1616.5
1616.34
1616.22
1616.1
1613.76
1615.18
1617.79
1618.61
1619.47
1556.88
1593.09
1613.11
1614.81
1613.85
1614.98
1616.12
1614.43
1611.59
1607.26
1601.89
1586.97
1533.22
1528.7
1528.71
1509.33
1510.46
1526.06
1569
1573.11
1600.43
1617.43
1619.79
1606.89
1600.27
1615.39
1615.55
1616.27
1617.31
1617.5
1613.87
1601.55
1590.4
1591.36
1586.39
1589.53
1613.38
1618.87
1619.72
1613.3
1533.67
1547.98
1609.48
1611.1
1619.28
1618.65
1616.6
1609.28
1575.21
1558.48
1558.54
1568.79
1608.81
1599.65
1605.36
1603.27
1596.71
1597.3
1597.84
1584.72
1594.18
1611.81
1616.1
1617.15
1606.19
1617.16
1617.9
1618.13
1618.77
1618.99
1616.36
1587.84
1586.68
1586.77
1586.83
1588.66
1616.68
1620.73
1621.24
1579.1
1531.8
1532.32
1616.77
1622.34
1621.93
1620.64
1616.19
1564.34
1549.55
1547.95
1576.27
1612.12
1609.62
1606.85
1604.26
1592.88
1584.03
1583.67
1585.45
1594.94
1601.71
1611.31
1615.08
1617.09
1618.19
1619.36
1619.85
1620.1
1620.35
1620.56
1620.65
1611.85
1587.14
1587.55
1606.44
1621.63
1622.11
1622.93
1608.78
1528.46
1529.12
1574.34
1621.05
1622.72
1623.1
1622.08
1611.06
1553.52
1552.22
1579.73
1617.38
1615.55
1613.38
1611.16
1608.89
1601.27
1597.31
1604.12
1607
1610.48
1614.2
1618.54
1622.03
1624.03
1621.22
1621.35
1621.51
1621.71
1621.76
1621.81
1608.89
1571.48
1585.04
1619.68
1623.2
1623.35
1623.78
1575
1525.26
1525.29
1538.89
1617.7
1619.64
1612.68
1623.3
1623.12
1620.9
1576.42
1558.72
1622.24
1621.55
1620.41
1618.9
1617.14
1615.4
1614.13
1613.84
1614.56
1616.42
1619.69
1624.26
1628.59
1631.53
1633.05
1621.83
1622.04
1622.73
1618.85
1603.45
1582.9
1571.93
1571.57
1583.12
1621.26
1613.69
1536.52
1521.85
1525.91
1522.8
1523.12
1592.78
1620.64
1621.01
1610.84
1601.43
1623.39
1624.5
1620.68
1616.08
1626.28
1626.04
1625.35
1624.4
1623.29
1622.06
1618.73
1615.04
1616.44
1622.25
1625.65
1621.53
1613.38
1614.53
1615.06
1578.39
1577.63
1576.97
1575.18
1575.63
1575.84
1584.1
1597.92
1580.21
1564.66
1530.41
1519.91
1520.5
1521.16
1529.08
1577.35
1618.6
1622.75
1622.99
1600.17
1554.34
1586.22
1627.49
1629.66
1630.18
1630.28
1630.7
1630.41
1629.79
1628.69
1627.54
1618.74
1468.55
1414.67
1414.87
1415.79
1416.9
1418.69
1421.16
1421
1587.17
1609.48
1592.94
1592.42
1608.61
1612.81
1615.23
1614.86
1570.07
1520.37
1519.04
1518.76
1524.95
1530.92
1524.07
1534.41
1548.19
1540.73
1566.92
1529.54
1527.67
1528.13
1593.81
1629.84
1633.9
1634.19
1634.97
1635.18
1634.85
1633.96
1631.8
1605.64
1439.12
1413.64
1448.4
1508.23
1426.32
1418.13
1420.06
1420.05
1620.13
1621.56
1622.55
1623.95
1625.49
1613.66
1600.62
1600.97
1603.74
1609.65
1609.53
1596.68
1527
1521.9
1523.14
1524.29
1525.59
1527.51
1528.51
1547.78
1529.54
1529.5
1554.89
1628.34
1632.36
1634.6
1636.63
1637.79
1638.48
1635.92
1592.6
1579.73
1611.81
1625.93
1626.52
1629.19
1627.06
1561.1
1541.69
1530.09
1619.32
1619.91
1620.59
1621.41
1622.02
1622.72
1618.39
1597.52
1599.23
1607.1
1607.53
1609.1
1611.3
1613.51
1613.22
1567.91
1543.05
1579.98
1581.52
1580.15
1566.99
1553.8
1591.84
1629.16
1629.58
1632.76
1636.97
1638.07
1637.99
1635.59
1555.31
1583.15
1617.29
1614.01
1613.06
1612.55
1614.14
1622.88
1626.38
1628.43
1617.99
1617.86
1617.43
1611.82
1569.29
1566.94
1609.33
1608.74
1607.11
1572.54
1493.88
1458.01
1457.16
1456.41
1455.77
1436.14
1480.56
1529.26
1507.82
1491.22
1470.78
1517.64
1506.5
1535.72
1608.2
1635.41
1636.05
1635.49
1635.05
1597.48
1452.24
1440.51
1580.49
1609.81
1605.31
1601.65
1606.36
1617.93
1622.46
1596.41
1617.19
1616.42
1609.9
1522.71
1505.24
1503.19
1501.27
1517.09
1525.5
1370.59
1225.1
1225.61
1225.7
1225.31
1225.87
1227.77
1274.29
1461.43
1376.71
1286.47
1268.87
1261.65
1335.2
1385.71
1465.05
1589.97
1636.07
1636.72
1636.22
1631.62
1445.46
1431.25
1425.09
1540.72
1613.01
1613.55
1611.22
1621.3
1624.28
1591.04
1616.99
1616.05
1614.97
1592.82
1558.05
1548.07
1512.6
1469.33
1423.73
1327.76
1278.8
1223.76
1223.37
1224.52
1224.66
1225.25
1482.72
1625.09
1626.08
1627.41
1544.46
1231.94
1202.45
1200.8
1219.14
1446.54
1627.59
1636.63
1636.82
1637.08
1605.69
1433.12
1430.35
1428.2
1563.75
1623.54
1626.37
1630.34
1633.39
1597.68
1616.6
1616.01
1607.42
1600.07
1591.32
1542.8
1462.9
1420.89
1422.52
1479.87
1561.47
1530.89
1317.82
1221.23
1255.79
1532.78
1616.57
1617.28
1617.64
1618.8
1620.31
1621.84
1552.49
1192.06
1181.22
1179.03
1397.84
1628.88
1634.11
1636.37
1637.38
1636.6
1468.54
1435.43
1514.74
1632.29
1636.54
1640.22
1643.27
1609.74
1546.4
1467.68
1455.9
1454.08
1454.11
1432.78
1431.34
1430.08
1473.52
1609.52
1629.36
1627.95
1623.68
1557.62
1595.81
1609.89
1607.54
1606.4
1584.56
1587.78
1606.79
1608.99
1610.37
1468.93
1164.01
1162.03
1159.88
1424.4
1628.48
1633.26
1635.37
1636.53
1621.95
1558.19
1560.03
1622.4
1632.64
1635.28
1652.52
1618.95
1370.75
1515.84
1563.3
1564.5
1593.55
1606.37
1619.32
1623.39
1625.14
1627.41
1627.4
1624.95
1618.85
1611.7
1592.15
1598.69
1598.43
1556.13
1535.43
1533.65
1566.99
1594.03
1595.57
1549.93
1162.04
1147.4
1149.24
1182.31
1559.92
1630.66
1634.38
1637.36
1640.79
1644.85
1647.64
1574.92
1557
1559.85
1642
1626.98
1437.13
1400.54
1495.02
1611.64
1617.42
1619.22
1620.4
1621.32
1619.15
1615.95
1588.54
1529.8
1496
1443.58
1446.84
1527.02
1588.15
1545.93
1517.97
1513.99
1563.43
1572.59
1578.42
1287.45
1157.59
1211.65
1141.08
1237.58
1487.25
1630.99
1634.89
1638.3
1642.4
1646.76
1649.42
1557.21
1556.65
1559.65
1628.28
1632.82
1221.99
1220.71
1247.89
1571.92
1618.57
1620.38
1616.97
1599.07
1543.55
1477.22
1398.85
1396.97
1395.41
1393.96
1436.65
1554.02
1568.2
1554.58
1531.41
1504.8
1345.09
1343.03
1458.67
1388.35
1345.2
1367.83
1376.01
1249.94
1337.66
1582.72
1635.13
1638.43
1642.34
1646.57
1604.62
1550.65
1554.79
1557.73
1642.16
1630.49
1219.28
1219.51
1280.01
1576.87
1622.66
1620.48
1533.41
1451.25
1490.48
1396.69
1394.39
1391.38
1402.64
1538.06
1600.64
1585.34
1537.7
1336.58
1129.36
1039.26
915.267
971.159
1363.89
1388.03
1397.58
1340.58
1277.28
1286.73
1415.14
1614.5
1635.34
1638.19
1641.54
1613.63
1543.35
1547.2
1550.56
1570.56
1658.04
1627.92
1505.54
1428.63
1574.23
1624.13
1625.23
1600.69
1443.71
1442.12
1484.93
1451.54
1393.13
1390.99
1603.04
1609.54
1598
1563.73
1077.56
905.663
900.202
898.105
899.974
950.324
1080.08
1280.66
1355.2
1342.95
1394.68
1486.48
1601.53
1632.72
1635.98
1638.09
1591.5
1536.97
1540.18
1543.58
1546.44
1626.34
1660.35
1626.96
1629.33
1626.73
1625.91
1627.07
1628.19
1617.07
1468.37
1441.29
1478.77
1478.03
1428.64
1503.12
1618.18
1614.68
1605.58
1362
916.187
911.097
907.991
905.931
956.724
1419.98
1499.75
1507.34
1544.36
1574.85
1608.95
1628.15
1632.31
1635.02
1637.74
1590.9
1533.47
1536.15
1538.96
1541.41
1596.4
1655.77
1657.37
1654.82
1630.57
1629.12
1628.41
1628.55
1629.99
1630.59
1575.4
1470.67
1365.63
1362.52
1472.87
1522.57
1602.2
1621.97
1616.04
1359.35
929.771
927.881
926.968
956.172
1473.89
1613.96
1615.84
1618.84
1622.91
1627.11
1630.75
1633.1
1635.37
1637.85
1640.45
1570.86
1535.11
1536.72
1553.42
1610.81
1653.01
1654.87
1655.58
1657.45
1633.34
1631.91
1627.88
1626.12
1628.12
1631.89
1632.33
1632.79
1403.68
1238.18
1226.6
1340.2
1585.9
1630.03
1629.79
1591.11
1123.76
941.002
941.716
1035.18
1606.78
1631.82
1632.12
1632.9
1634.58
1635.53
1636.22
1637.41
1639.1
1641.55
1643.58
1612.68
1594.27
1626.11
1640.82
1651.83
1652.47
1652.9
1651.39
1627.05
1633.62
1631.84
1608.06
1524.29
1580.8
1630.95
1633.18
1634.45
1634.2
1279.91
1136.2
1126.45
1471.74
1634.3
1637.58
1641.72
1574.52
992.505
951.314
947.329
1394.51
1645.12
1620.74
1600.26
1642.64
1643.58
1643.97
1644.46
1645.17
1646.33
1647.56
1648.37
1648.66
1647.09
1645.67
1611.91
1601.6
1535.27
1497.24
1473.03
1632.85
1630.44
1534.94
1473.67
1475.03
1603.71
1628.49
1631.98
1632.94
1633.2
1209.1
987.248
1092.09
1549.1
1639.4
1647.47
1654.09
1591.51
1039.67
948.225
947.852
1472.66
1630.62
1604.69
1617.17
1653.96
1654.01
1653.31
1652.09
1652.55
1652.4
1642.28
1644.6
1649
1589.72
1433.59
1394.73
1520.89
1524.2
1479.22
1630.4
1627.43
1623.58
1499.2
1428
1507.34
1569.65
1619.47
1630.1
1631.31
1544.19
979.159
853.79
1179.39
1615.87
1649.26
1657.35
1662.65
1622.19
1018.19
946.376
945.483
1258.11
1658.02
1657.87
1658.58
1661.99
1658.44
1654.02
1656.24
1654.71
1653.24
1490.31
1232.01
1172.96
1159.2
1314.92
1518.04
1518.06
1505.95
1576
1399.4
1295.41
1368.6
1156.83
797.044
1075.72
1589.88
1626.69
1628.04
1623.21
995.837
831.619
903.074
1502.89
1651.22
1660.38
1665.77
1669.08
1669.92
1036.4
945.397
944.859
1038.51
1502.27
1664.98
1664.95
1663.93
1658.57
1645.48
1643.28
1635.16
1456.99
1300.5
1296.34
1151.03
1048.17
1052.09
1006.62
1401.18
805.748
775.128
772.378
770.753
772.853
778.872
1123.88
1618.74
1632.22
1633.88
1574.11
904.665
811.857
818.168
1405.59
1651.99
1660.77
1665.96
1669.32
1671.49
1662.38
1262.47
940.627
949.424
951.083
1144.83
1609.64
1664.64
1663.18
1657.75
1644.33
1602.35
1519.99
1635.35
1652.67
1544.71
1042.39
1009.54
1009.36
1420.19
775.816
773.267
770.418
768.261
767.946
769.755
1284.63
1641.37
1643.9
1598.51
1037.51
797.551
800.38
804.741
1408.65
1653.28
1660.89
1664.75
1666.45
1668.1
1669.79
1669.73
1505.17
1094.55
955.007
964.123
984.345
1230.46
1632.01
1658.73
1655.07
1624.15
1639.93
1658.61
1662.73
1663.5
1309.67
1071.54
1648.65
1671.47
772.763
770.251
768.147
766.58
766.628
766.826
861.245
1108.85
1105.71
898.979
789.223
792.925
795.375
991.243
1572.15
1654.02
1657.86
1659.32
1659.55
1660.56
1661.82
1662.67
1663.08
1631.81
1454.5
1110.5
984.394
994.884
1027.9
1320.73
1641.63
1653.49
1656.57
1659.78
1663.5
1653.89
1352.02
1286.7
1669.72
1671.48
1012.17
770.4
768.843
767.755
767.65
767.918
768.289
770.114
772.427
779.226
787.337
788.926
1166.97
1619.64
1603.94
1629.37
1650.73
1649.24
1648.37
1648.52
1649.46
1650.96
1652.28
1653.48
1655.18
1629.78
1438.97
1141.56
1025.42
1033.29
1419.82
1657.19
1662.01
1663.97
1664.79
1658.36
1355.27
1420.9
1668.86
1669.75
1666.52
1624.97
1356.42
1042.22
786.346
767.408