/*--------------------------------*- C++ -*----------------------------------*\
  =========                 |
  \\      /  F ield         | OpenFOAM: The Open Source CFD Toolbox
   \\    /   O peration     | Website:  https://openfoam.org
    \\  /    A nd           | Version:  8
     \\/     M anipulation  |
\*---------------------------------------------------------------------------*/
FoamFile
{
    version     2.0;
    format      ascii;
    class       volScalarField;
    location    "2.25";
    object      alpha.water;
}
// * * * * * * * * * * * * * * * * * * * * * * * * * * * * * * * * * * * * * //

dimensions      [0 0 0 0 0 0 0];

internalField   nonuniform List<scalar> 
9150
(
1
1
1
1
1
1
1
1
1
1
1
1
1
1
1
1
1
1
1
1
1
1
1
1
1
1
1
1
1
1
1
1
1
1
1
1
1
1
1
1
1
1
1
1
1
1
1
1
1
1
1
1
1
1
1
1
1
1
1
1
1
1
1
1
1
1
1
1
1
1
1
1
1
1
1
1
1
1
1
1
1
1
1
1
1
1
1
1
1
1
1
1
1
1
1
1
1
1
1
1
1
1
1
1
1
1
1
1
1
1
1
1
1
1
1
1
1
1
1
1
1
1
1
1
1
1
1
1
1
1
1
1
1
1
1
1
1
1
1
1
1
1
1
1
1
1
1
1
1
1
1
0.999999
0.999999
1
1
1
1
0.999999
0.999998
0.999998
0.999998
1
1
1
1
1
1
1
0.999999
0.999998
0.999999
0.999999
0.999999
0.999999
1
1
1
1
1
1
0.999999
0.999999
0.999999
1
1
0.999999
0.999999
0.999999
0.999999
0.999999
1
1
1
1
1
0.999998
0.999998
0.999998
0.999998
0.999999
1
1
1
1
1
0.999999
0.999998
0.999999
1
1
1
1
1
1
0.999999
0.999999
1
1
1
1
1
1
1
0.999999
0.999999
0.999999
1
1
1
1
1
0.999999
0.999999
0.999999
1
1
0.999999
1
1
1
0.999999
0.999999
0.999999
1
1
1
0.999999
1
1
1
0.999999
1
1
1
1
0.999999
0.999999
1
1
1
0.999998
1
1
1
1
1
1
0.999999
1
1
0.999998
0.999999
1
1
0.999999
0.999999
0.999999
0.999999
0.999999
0.999999
0.999998
0.999999
1
1
0.999999
0.999998
0.999998
0.999999
0.999999
0.999999
0.999998
1
1
1
1
0.999996
0.999995
0.999996
0.999999
1
1
1
1
1
1
0.999996
0.999995
0.999995
0.999996
0.999999
1
1
1
1
1
0.999999
0.999995
0.999995
0.999995
0.999996
1
1
1
1
1
1
0.999999
0.999995
0.999995
0.999995
1
1
1
1
1
0.999999
0.999999
0.999999
0.999995
0.999995
1
1
1
1
1
0.999999
0.999998
0.999999
0.999999
0.999997
1
1
1
1
1
0.999999
0.999998
0.999998
0.999999
1
1
1
1
1
1
1
0.999998
0.999998
0.999998
0.999999
1
1
1
1
1
1
1
0.999999
0.999998
0.999998
1
1
1
1
1
1
1
1
1
0.999999
1
0.999999
1
1
1
1
1
1
1
1
1
0.999987
0.999985
0.999995
0.999999
1
0.999998
1
1
1
0.999999
0.995572
0.955751
0.98922
0.999985
0.999939
0.999992
1
1
1
0.997953
0.731405
0.462406
0.640639
0.919719
0.99853
1
1
1
1
0.741858
0.343818
0.303542
0.303542
0.624757
0.986447
1
0.999999
1
1
0.324251
0.303543
0.303541
0.303543
0.489807
0.971885
0.99995
1
1
1
0.303547
0.303541
0.303543
0.322249
0.701695
0.983797
1
1
1
1
0.303553
0.304036
0.405057
0.763906
0.985095
1
1
1
1
1
0.451318
0.689865
0.930537
1
1
1
1
1
1
1
0.985302
1
1
1
1
1
1
1
1
1
1
1
1
1
1
1
1
1
1
1
1
1
1
1
1
1
1
1
1
0.999999
1
1
0.999999
1
1
1
1
0.999981
0.99941
0.998869
1
0.999992
0.999997
0.999999
1
1
0.999819
0.998747
0.997122
0.997185
0.999994
0.999992
0.999997
0.999997
0.999895
0.999139
0.997742
0.997119
0.997118
0.997371
0.999981
0.999995
0.999995
0.999965
0.998571
0.997121
0.99712
0.997119
0.997655
0.999716
0.999976
0.999933
0.999978
0.999809
0.997637
0.997121
0.997411
0.999343
0.999992
0.999993
0.999279
0.999615
0.999978
0.999795
0.998929
0.999089
0.999981
0.999981
0.999982
0.999958
0.986926
0.999978
0.999978
0.999978
0.999979
0.99998
0.99998
0.99998
0.999974
0.995966
0.985029
0.999978
0.999977
0.999963
0.999978
0.999979
0.999979
0.999958
0.996329
0.853719
0.999959
0.999977
0.999451
0.998855
0.999218
0.999607
0.99934
0.980192
0.724765
0.4827
0.999582
0.999939
0.965875
0.815919
0.696335
0.646254
0.550953
0.254102
0.106979
0.538241
0.998432
0.89949
0.368544
0.0350814
0.0328092
0.0327941
0.032766
0.0327942
0.0326797
0.0471095
0.972114
0.375519
0.0328361
0.0328092
0.0327941
0.032766
0.0327409
0.0327629
0.032778
0.0327688
0.998006
0.597999
0.111445
0.0697988
0.0852476
0.0451447
0.032747
0.032744
0.0326682
0.0327667
0.999653
0.999999
0.999991
0.998262
0.879731
0.43516
0.219399
0.276926
0.505471
0.55756
1
1
1
0.999861
0.997388
0.9872
0.977435
0.980137
0.995022
0.998527
1
1
1
0.999996
0.999979
0.99997
0.999994
0.999998
0.999999
0.999999
0.999703
1
1
1
1
1
1
1
1
1
0.999842
0.999844
0.999953
1
1
1
1
1
1
1
0.999998
0.999996
0.999996
0.999968
0.999958
1
0.999998
0.999987
0.99999
0.999988
0.999939
0.999998
0.999998
0.999987
0.999955
0.999965
0.9999
0.999817
0.999847
0.999987
0.997556
0.996525
0.99786
0.999681
0.999972
0.999972
0.999973
0.999981
0.999987
0.999987
0.999228
0.995107
0.977919
0.977919
0.981795
0.997239
0.99998
0.99998
0.98161
0.944044
0.997951
0.998758
0.998688
0.998536
0.999084
0.947829
0.79488
0.713443
0.60063
0.413025
0.955012
0.993364
0.99908
0.999084
0.999083
0.999083
0.583209
0.100972
0.0359498
0.0112203
0.942746
0.950252
0.996133
0.999082
0.999084
0.822841
0.146389
0.00283503
0.00248825
0.00244291
0.942744
0.977924
0.998948
0.999034
0.826575
0.157506
0.00286074
0.0024819
0.0024629
0.00246701
0.993466
0.999415
0.999327
0.801216
0.121158
0.00254687
0.00247548
0.00246203
0.00245744
0.00246173
0.999936
0.999934
0.768187
0.0827957
0.00292213
0.00247019
0.00244993
0.00245788
0.0024591
0.00245911
0.999938
0.867347
0.0879782
0.00278765
0.00272708
0.00273251
0.00398416
0.00876293
0.0098835
0.0045015
0.83176
0.100348
0.00265518
0.00265661
0.00260809
0.00273816
0.0804079
0.223942
0.333545
0.246849
0.110579
0.00261009
0.00266021
0.00266729
0.00262991
0.00318005
0.00337421
0.225846
0.502964
0.495511
0.00259812
0.00266061
0.00270199
0.00265339
0.00260379
0.00263538
0.00366112
0.344931
0.519598
0.502931
0.0026288
0.00266662
0.00268165
0.00263299
0.00259986
0.0584989
0.481398
0.592552
0.520667
0.330232
0.00262822
0.00261242
0.00261896
0.00265267
0.230592
0.78595
0.781562
0.607762
0.291944
0.240583
0.00262596
0.00262067
0.00260714
0.395063
0.910987
0.899564
0.586351
0.304225
0.274436
0.26076
0.002628
0.00262125
0.232254
0.890479
0.930037
0.747493
0.332661
0.307138
0.292787
0.371233
0.00264916
0.0138972
0.709551
0.946453
0.936573
0.615178
0.328497
0.319111
0.326904
0.782285
0.00270723
0.488995
0.95298
0.952385
0.92332
0.49132
0.345517
0.33994
0.761623
0.997266
0.372804
0.951835
0.964319
0.952153
0.597751
0.40503
0.396088
0.792061
0.997997
0.999661
0.970079
0.977262
0.971036
0.59643
0.455611
0.456863
0.840603
0.998265
0.999729
0.999913
0.987262
0.985191
0.618254
0.428375
0.468969
0.834686
0.998317
0.999781
0.999954
0.999988
0.995487
0.758082
0.35963
0.413922
0.7865
0.998432
0.999819
0.999972
0.999993
0.999998
0.813635
0.318232
0.323938
0.737822
0.998428
0.999807
0.999965
0.999994
0.999999
0.999999
0.256663
0.26396
0.590692
0.993612
0.999788
0.99996
0.999993
0.999999
1
1
0.116339
0.27932
0.943627
0.999424
0.999958
0.999992
0.999999
1
1
1
0.110235
0.742134
0.999353
0.99988
0.999991
0.999999
1
1
1
1
0.120927
0.906301
0.999664
0.999968
0.999997
1
1
1
1
1
0.412011
0.984579
0.99991
0.999994
1
1
1
1
1
1
0.534679
0.996501
0.999969
0.999998
1
1
1
1
1
1
0.620099
0.999626
0.999984
0.999999
1
1
1
1
1
1
0.679844
0.999778
0.999992
1
1
1
1
1
1
1
0.715001
0.999864
0.999996
1
1
1
1
1
1
1
0.73872
0.999917
0.999998
1
1
1
1
1
1
1
0.75581
0.999943
0.999999
1
1
1
1
1
1
0.993223
0.769559
0.999875
0.999999
1
1
1
1
1
1
0.877792
0.779103
0.999514
1
1
1
1
1
1
1
0.79388
0.78228
0.99937
1
1
1
1
1
1
1
0.745748
0.776352
0.999514
0.999999
1
1
1
1
1
1
0.729704
0.773105
0.999869
0.999999
1
1
1
1
1
0.999883
0.750556
0.796437
0.999985
1
1
1
1
1
1
0.999995
0.78798
0.848766
0.999995
1
1
1
1
1
1
1
0.821299
0.887094
1
1
1
1
1
1
1
1
0.862426
0.908471
1
1
1
1
1
1
1
1
0.906109
0.953815
1
1
1
1
1
1
1
1
0.950704
0.999999
1
1
1
1
1
0.999999
0.999996
0.999996
0.999997
0.999997
0.999997
0.999997
0.999999
1
1
1
1
1
1
1
1
1
1
1
1
1
1
1
1
1
1
1
1
1
1
1
1
1
0.992292
0.999998
0.999999
0.999999
1
0.999999
0.999997
0.999996
0.999996
0.999998
0.999999
0.999999
0.999999
0.999999
0.999999
0.999999
0.999999
0.999999
0.999999
1
1
1
1
1
1
0.999999
0.999999
1
1
0.999996
0.999996
0.999996
0.999998
0.999999
1
1
0.999999
0.999998
0.999998
1
0.997597
1
1
1
0.999999
0.999998
0.999997
0.999998
1
1
1
1
1
1
1
1
1
1
1
1
1
1
1
1
1
1
1
1
1
0.999997
0.999997
1
1
1
1
1
1
0.999998
0.999999
1
1
0.999999
1
0.999999
0.999999
0.999999
1
1
1
1
1
1
1
1
1
1
1
1
1
1
1
1
1
1
1
1
1
0.999999
0.999998
0.999999
1
1
1
1
1
0.999999
0.999999
0.999999
1
1
1
1
1
1
1
1
1
1
1
1
1
1
1
1
1
1
1
1
1
1
1
1
1
1
1
1
1
0.999999
0.999999
1
1
1
1
1
1
0.999999
0.999999
0.999999
0.990706
0.901149
0.914489
1
1
1
1
1
1
1
1
1
1
1
1
1
1
1
1
1
1
1
1
1
1
1
0.999999
0.999999
1
1
1
1
1
1
1
1
1
1
0.999999
0.999318
0.900399
0.810432
0.810439
1
1
1
0.999999
0.999999
0.999999
1
1
1
1
1
1
1
1
1
1
1
1
1
1
1
1
0.999999
0.999999
0.999999
1
1
1
1
1
1
1
1
1
1
0.999999
0.995653
0.861717
0.810429
0.810429
1
1
1
0.999999
0.999999
1
1
1
1
1
1
1
1
1
0.999999
1
1
1
1
1
1
0.999999
0.999999
1
1
1
1
1
1
1
1
1
1
0.999999
0.999998
0.999997
0.999909
0.917149
0.810429
0.810429
1
1
1
1
1
1
1
1
1
0.999999
0.999995
0.999998
1
1
0.999999
0.999999
1
1
1
1
0.999999
0.999999
1
1
1
1
1
1
1
1
1
1
0.999998
0.999996
0.999997
0.999998
0.999993
0.997975
0.915879
0.829272
1
1
1
1
1
1
1
1
1
0.999953
0.999878
0.999878
0.999945
1
1
1
1
1
1
0.999999
0.999999
1
1
1
0.999998
0.999999
1
1
1
1
1
0.999999
0.999996
0.999996
0.999997
1
0.999999
0.999998
0.998538
0.98549
1
1
1
1
1
0.999998
0.999957
0.99998
0.999847
0.999836
0.999855
0.999979
0.999994
1
0.999964
0.999951
0.999951
0.999987
1
0.999999
1
1
0.999996
0.999995
0.999996
1
1
1
1
1
1
0.999996
0.999996
0.999997
1
1
0.999999
0.999997
0.999996
0.999999
1
1
1
1
1
1
0.999535
0.995777
0.999097
0.999983
0.999983
0.999983
0.999929
0.999419
0.998976
0.999591
0.999996
0.99999
1
1
1
0.999997
0.999995
0.999995
0.999996
1
1
1
1
1
0.999997
0.999996
0.999996
0.999999
0.999999
0.999999
0.999999
0.999999
0.999999
0.999999
0.999999
1
1
1
1
1
0.999578
0.943891
0.914539
0.994868
0.999983
0.99896
0.992307
0.995999
1
0.999821
0.999996
0.999996
1
0.999999
1
1
0.999996
0.999995
0.999996
1
1
1
0.999999
0.999998
0.999998
0.999999
1
0.999999
0.999999
0.999999
0.999999
0.999999
0.999999
0.999999
0.999999
1
1
1
1
1
0.999998
0.892384
0.55634
0.927862
0.97807
0.979603
0.995481
0.999323
1
0.999994
0.99999
0.999997
1
0.999999
1
1
1
0.999999
0.999998
0.999998
1
0.999999
0.999998
0.999998
1
1
0.999999
0.999994
0.999992
0.999999
1
1
1
1
1
0.999999
0.999999
0.999999
1
0.999999
0.999964
0.854661
0.162148
0.608416
0.94914
0.960856
0.998229
1
1
1
1
0.999999
1
1
0.999985
0.99993
0.999939
1
1
0.999999
0.999999
0.999999
0.999999
0.999999
0.999999
0.999999
0.999993
0.999991
0.999992
0.999999
1
1
1
1
1
0.999999
0.999999
0.999999
0.999999
0.999999
0.999998
0.82657
0.132187
0.153989
0.840255
0.975641
0.993217
1
0.99999
0.99999
0.999981
1
1
1
0.999983
0.999691
0.999601
0.999899
1
0.999999
0.999999
0.999999
0.999999
0.999999
0.999999
0.999992
0.999991
0.999992
0.999999
1
1
1
0.999999
0.999998
1
1
1
0.999999
0.999999
0.999998
0.999998
0.983257
0.399175
0.129841
0.261528
0.836333
0.999973
0.999973
0.999962
0.999869
0.999795
0.999994
1
1
0.999995
0.999725
0.999601
0.999617
0.999985
1
1
0.999995
0.999984
0.999992
0.999999
0.999993
0.999991
0.999999
1
1
1
0.999998
0.999997
0.999998
0.999997
1
1
1
0.999999
0.999998
0.999999
0.999998
0.82266
0.129728
0.129569
0.288809
0.92753
0.999973
0.999962
0.99989
0.999787
0.999812
0.999973
0.999985
0.999993
0.99997
0.999817
0.999718
0.999937
1
1
0.999999
0.999979
0.999971
0.999989
0.999999
0.999998
0.999999
0.999997
0.999994
0.999995
0.999997
0.999998
1
0.999995
1
1
1
1
0.999999
1
1
0.999997
0.648047
0.129616
0.129569
0.461501
0.985914
0.999962
0.99992
0.999795
0.999792
0.999928
0.999908
0.999888
0.999984
0.999984
0.999984
0.999979
1
0.999999
0.999999
0.999994
0.999971
0.999979
0.999999
0.999999
0.999997
0.99999
0.99999
0.999992
1
1
1
0.999997
1
1
1
1
1
1
1
1
0.999969
0.607844
0.129836
0.129836
0.457791
0.974345
0.99992
0.999829
0.999826
0.999929
0.999936
0.999931
0.999938
0.998361
0.998656
1
1
1
0.999968
0.999892
0.999977
0.999989
0.999999
0.999998
0.999993
0.99999
0.999993
1
1
1
1
1
1
1
1
1
1
1
1
1
1
1
0.697822
0.164696
0.164513
0.324163
0.890092
0.999934
0.999936
0.999936
0.999936
0.999937
0.999938
0.996538
0.996392
0.996785
0.999259
1
0.999937
0.999697
0.99994
0.999998
0.999999
0.999997
0.999991
0.999991
1
1
1
0.999999
1
1
1
1
1
1
1
1
1
1
1
1
1
0.855199
0.230808
0.228652
0.245039
0.738546
0.999934
0.999936
0.999936
0.999937
0.999937
0.998181
0.99639
0.99639
0.99639
0.997301
0.999591
0.999697
0.999972
1
1
0.999997
0.999991
0.999997
1
1
1
0.999999
1
0.999998
0.999999
1
1
1
1
1
1
1
1
1
1
1
0.96768
0.37087
0.24627
0.24877
0.598091
0.997633
0.999936
0.999936
0.999936
0.999803
0.999127
0.99859
0.996483
0.996485
0.996719
0.999062
0.999996
1
1
1
0.999993
1
1
1
1
1
1
0.999998
0.999998
1
1
1
1
0.999998
0.999999
1
1
1
1
1
1
1
0.572814
0.252678
0.25395
0.521432
0.985481
0.999936
0.999936
0.999912
0.999153
0.999093
0.999083
0.997678
0.99672
0.99737
0.999805
1
1
1
1
1
1
1
1
0.999998
0.999999
0.999999
0.999998
0.999999
1
1
1
0.999997
0.999997
0.999998
0.999999
1
1
1
1
1
1
0.728252
0.267614
0.268197
0.485346
0.974492
0.999935
0.99984
0.997313
0.999091
0.999083
0.999079
0.996807
0.997604
0.99986
1
1
1
1
1
1
1
1
0.999988
0.999998
1
0.999999
0.999999
1
1
1
1
0.999997
0.999997
0.999997
1
1
1
1
1
1
1
0.795652
0.279161
0.279307
0.466057
0.963933
0.999838
0.999815
0.977696
0.980462
0.997523
0.99936
0.999306
0.99986
1
1
1
1
1
1
1
0.999999
0.999988
0.999998
1
1
1
1
1
1
1
1
0.999997
0.999997
0.999999
1
1
1
1
1
1
1
0.799027
0.285697
0.285889
0.48907
0.973536
0.999793
0.955349
0.856196
0.951223
0.99997
0.999971
0.999971
0.999997
1
1
1
1
1
1
0.999999
0.99999
0.999997
1
1
1
1
1
1
1
1
1
0.999998
1
1
1
1
1
1
1
1
1
0.740379
0.286927
0.287957
0.570231
0.989177
0.958988
0.855564
0.855398
0.980138
1
1
1
1
1
1
1
1
1
1
0.999991
0.999464
1
1
1
1
1
1
1
1
1
1
1
1
1
1
1
1
1
1
1
0.999999
0.601164
0.289135
0.292388
0.7343
0.958035
0.870025
0.753993
0.92616
0.999999
1
1
1
1
1
1
1
1
0.999999
0.999969
0.997704
1
1
1
1
1
1
1
1
1
1
0.999999
1
1
1
1
1
1
1
1
1
0.999999
0.433363
0.294035
0.357344
0.880503
0.888092
0.753848
0.753621
0.968337
1
1
1
1
1
1
1
1
0.999999
0.999937
0.9977
1
1
1
1
1
1
1
1
1
1
1
1
1
1
1
1
1
1
1
1
1
0.902429
0.341657
0.236869
0.665352
0.888092
0.784225
0.66085
0.77887
0.992783
1
1
1
0.999999
1
1
1
1
0.999928
0.9977
1
1
1
1
1
1
1
1
1
1
1
1
1
1
1
1
1
1
1
1
1
1
0.720576
0.234774
0.229754
0.747337
0.783655
0.660371
0.659972
0.881763
1
1
1
0.999999
1
1
1
1
0.999926
0.9977
1
1
1
1
0.999999
0.999999
1
1
1
1
1
1
1
1
1
1
1
1
1
1
1
1
0.999999
0.415742
0.195657
0.307753
0.710822
0.703086
0.659972
0.663997
0.964508
1
1
0.999999
1
1
1
0.999999
0.999958
0.997701
1
1
1
0.999999
0.999999
0.999999
1
1
1
1
1
1
1
1
1
1
1
1
1
1
1
1
1
0.721727
0.195114
0.16564
0.639545
0.702957
0.682639
0.660194
0.748228
0.980305
1
1
1
1
1
1
0.999983
0.999094
1
0.999999
1
1
0.999999
1
1
1
1
1
1
1
0.999999
1
1
1
1
1
1
1
1
1
1
0.997773
0.29429
0.164955
0.372325
0.702701
0.702417
0.667634
0.643501
0.819998
0.994503
1
0.999999
0.999999
1
1
0.999997
0.999753
0.999973
0.999993
0.999999
1
1
1
1
1
1
1
1
1
0.999999
1
1
1
1
1
1
1
1
1
1
1
0.561018
0.164319
0.141951
0.620929
0.701911
0.701207
0.643501
0.689818
0.992003
1
0.999999
1
1
1
0.999999
0.999838
0.999556
1
1
1
1
1
1
1
1
1
1
1
1
1
1
1
1
1
1
1
1
1
1
0.999998
0.822009
0.190353
0.129197
0.259219
0.654159
0.700327
0.649226
0.781022
0.993341
1
1
1
1
1
1
0.999632
0.999369
1
1
1
1
1
1
1
1
1
1
1
1
1
1
1
1
0.999999
1
1
1
1
1
0.999991
0.951691
0.237152
0.129178
0.129136
0.283941
0.444031
0.680422
0.946923
0.996708
0.999734
0.999994
1
1
1
1
0.998689
0.999854
1
1
1
1
1
1
1
1
1
1
1
1
1
1
1
0.999999
0.999999
1
1
1
1
0.999999
0.999977
0.914203
0.248026
0.129134
0.129103
0.129022
0.142633
0.589943
0.993462
0.99924
0.999603
0.999933
0.999998
1
1
1
0.997217
1
1
1
0.999996
0.999989
0.999999
1
1
1
1
1
1
1
1
1
0.999999
0.999999
1
1
1
1
1
0.999998
0.999937
0.89171
0.25965
0.128988
0.129059
0.128951
0.129055
0.452709
0.979516
0.999895
0.999917
0.999942
0.999992
0.999999
0.999999
1
0.996956
0.999994
0.999992
0.999934
0.999809
0.999993
1
1
1
1
1
1
1
1
1
0.999999
0.999999
1
1
1
1
0.999999
0.999999
0.999997
0.999926
0.922238
0.308487
0.128934
0.129088
0.129059
0.129138
0.491787
0.987309
0.999988
0.999998
0.999997
0.999997
0.999995
0.999998
1
0.996959
0.999776
0.998993
0.99746
0.999725
1
1
1
1
1
1
1
1
1
1
1
1
1
1
0.999999
0.999999
1
1
0.999998
0.999956
0.96967
0.412668
0.128864
0.128934
0.12897
0.18676
0.793226
0.999213
0.999992
0.999998
0.999997
0.999994
0.999992
0.999998
1
0.996993
0.967587
0.950408
0.994865
1
1
1
1
1
1
1
1
1
1
1
1
1
1
0.999999
0.999999
0.999999
1
1
0.999999
0.999988
0.999659
0.725417
0.153517
0.129052
0.180271
0.731708
0.99551
0.999895
0.999998
0.999998
0.999983
0.999964
0.99999
1
1
0.996535
0.706719
0.913372
1
1
1
0.999999
1
1
0.999999
0.999999
0.999993
0.999981
0.999998
1
1
1
1
1
1
1
1
1
1
0.999998
0.999966
0.968164
0.545247
0.338314
0.836807
0.999998
0.999998
0.999997
0.999998
0.999998
0.999964
0.999961
0.999989
1
1
0.995429
0.704379
0.996047
1
1
1
0.999987
0.999973
0.999977
0.999964
0.999879
0.999665
0.999971
0.999999
0.999999
1
1
1
1
1
1
1
1
1
0.999999
0.999985
0.984411
0.888101
0.880606
0.990805
0.999998
0.999998
0.999998
0.999997
0.999985
0.999961
0.999961
0.999996
1
0.999715
0.995088
0.997763
0.999995
1
1
0.999999
0.999993
0.999731
0.998779
0.99566
0.992101
0.999566
0.999994
0.999994
0.999998
1
1
1
1
1
1
1
1
1
0.999996
0.999902
0.971813
0.763314
0.76109
0.999998
0.999998
0.999998
0.999997
0.999986
0.999961
0.999961
0.999975
1
1
0.999112
0.995088
0.515742
0.971805
0.999995
0.999999
0.999999
0.999966
0.998503
0.970947
0.930136
0.983715
0.999992
0.999995
0.999996
0.999998
1
1
1
1
1
1
1
1
1
0.99999
0.999571
0.880217
0.656235
0.728239
0.999998
0.999998
0.999995
0.999987
0.999961
0.999961
0.999961
0.999997
1
1
0.998873
0.995088
0.0328107
0.12819
0.730841
0.988098
0.998056
0.982499
0.879321
0.814146
0.917425
0.999872
0.999988
0.999992
0.999996
0.999997
0.999999
0.999999
1
1
1
1
1
1
0.999999
0.999995
0.997554
0.792636
0.656235
0.683676
0.994833
0.999998
0.999995
0.99998
0.999961
0.999961
0.999972
1
1
1
0.998973
0.995088
0.0327779
0.0328584
0.0514356
0.459863
0.735611
0.649958
0.443489
0.582227
0.983076
0.99619
0.984244
0.974835
0.996987
0.999915
0.999963
0.99998
0.999991
0.999997
0.999999
1
1
1
0.999997
0.999996
0.999973
0.899868
0.656235
0.657954
0.938425
0.999998
0.999997
0.999992
0.999961
0.999961
0.999986
1
1
0.999999
0.999369
0.995088
0.493362
0.450842
0.442734
0.431037
0.431023
0.431425
0.436932
0.530413
0.844889
0.918678
0.814485
0.810295
0.869172
0.910814
0.935665
0.965568
0.985948
0.996866
0.999968
0.999987
0.999996
0.999998
0.999996
0.999984
0.999981
0.99347
0.762721
0.657575
0.784348
0.999997
0.999998
0.999998
0.999986
0.999968
0.999996
1
1
1
0.99979
0.995088
0.99835
0.999581
0.974335
0.817899
0.731713
0.882554
0.957013
0.949162
0.83526
0.811212
0.8103
0.809489
0.808789
0.808478
0.808478
0.808478
0.859558
0.895145
0.936167
0.982013
0.995014
0.999898
0.999985
0.999981
0.999968
0.999968
0.974256
0.657803
0.67425
0.934447
0.999982
0.999999
0.999999
1
0.999999
1
1
0.999999
0.999991
0.997354
1
1
1
1
1
1
1
0.999999
0.999997
0.993348
0.959343
0.938611
0.922403
0.899988
0.87366
0.849172
0.838869
0.838209
0.838249
0.842044
0.877639
0.924164
0.981799
0.998721
0.999967
0.999972
0.999972
0.848883
0.674754
0.758838
0.986086
0.999996
1
1
1
1
1
1
1
1
1
1
1
0.999999
0.999999
0.999998
0.999997
0.999996
0.999997
0.999999
0.999999
0.999999
1
1
1
0.995079
0.963493
0.929575
0.882399
0.828443
0.819153
0.819153
0.829595
0.896754
0.977104
0.999658
0.999972
0.999961
0.767799
0.703247
0.859911
0.99966
0.999997
1
1
1
1
1
1
1
1
0.999999
0.999995
0.999981
0.999959
0.999954
0.999989
0.999993
0.999986
0.999961
0.99999
0.999995
1
1
1
1
1
1
1
1
0.956894
0.870846
0.799083
0.798561
0.798084
0.914175
0.992385
0.999951
0.993925
0.716708
0.740078
0.947464
0.999933
0.999997
0.999997
0.999999
1
1
1
0.999999
0.999971
0.999956
0.999939
0.999668
0.998908
0.998675
0.999753
0.998532
0.999951
0.999789
0.999619
0.999953
0.999992
0.999997
1
1
1
1
1
1
1
1
0.998392
0.887446
0.787917
0.783928
0.819239
0.976475
0.991759
0.938705
0.745757
0.809626
0.97764
0.999967
0.999998
0.999999
1
1
0.999999
0.999998
0.999986
0.999986
0.999985
0.999978
0.987148
0.8823
0.822968
0.960691
0.999939
0.999762
0.999508
0.99989
0.999985
0.999995
1
1
1
1
1
1
1
1
1
1
1
0.863587
0.766439
0.767714
0.932767
0.971462
0.87811
0.780671
0.879592
0.998516
0.999992
0.999999
1
1
0.999999
0.999998
0.999987
0.999986
0.964544
0.8682
0.564259
0.245919
0.475333
0.913626
0.982534
0.999758
0.99955
0.999918
0.99999
0.999999
1
1
1
1
1
1
1
1
1
1
1
1
1
0.768472
0.724298
0.791611
0.874668
0.774689
0.827134
0.972591
0.999944
0.999998
1
1
0.999999
0.999998
0.854581
0.688554
0.488297
0.246505
0.0565216
0.019816
0.409264
0.835463
0.972867
0.997672
0.99987
0.999978
0.999994
0.999998
0.999999
0.999999
1
1
1
1
1
1
1
1
1
1
1
1
0.882161
0.798093
0.85233
0.772477
0.772337
0.912702
0.999904
0.999991
0.999999
1
1
1
0.224626
0.08718
0.0185496
0.00380115
0.00363078
0.00949846
0.215087
0.748992
0.992332
0.999265
0.999874
0.999972
0.999991
0.999996
0.999998
0.999999
1
1
1
1
1
1
1
1
1
1
1
1
1
0.993903
0.874268
0.772337
0.772337
0.786981
0.978938
0.999967
0.999998
1
1
0.999998
0.00334778
0.00258726
0.00248209
0.00248804
0.00322078
0.00452976
0.0945469
0.725359
0.998162
0.999552
0.999913
0.999979
0.999993
0.999995
0.999998
1
1
1
1
1
1
1
1
1
1
1
1
1
1
1
0.99999
0.852419
0.772337
0.773868
0.881472
0.999229
0.999992
1
1
0.999979
0.00244671
0.00246067
0.00245338
0.00245871
0.00267335
0.00273837
0.413594
0.937763
0.998884
0.9998
0.99996
0.999991
0.999996
0.999998
0.999999
1
1
1
1
1
1
1
1
1
1
1
1
1
1
1
1
0.999989
0.797065
0.773999
0.774699
0.969671
0.99996
0.999995
0.999997
0.999975
0.00245816
0.00244659
0.0024716
0.00246972
0.0024715
0.145991
0.826086
0.998645
0.99948
0.999892
0.999976
0.999993
0.999997
0.999999
0.999999
0.999999
0.999999
1
1
1
1
1
1
1
1
1
1
1
1
1
1
1
0.924709
0.774699
0.775953
0.903364
0.999869
0.999979
0.999984
0.999975
0.00246638
0.00246197
0.0024677
0.00245172
0.0025666
0.586798
0.996366
0.999162
0.999773
0.999943
0.999985
0.999994
0.999997
0.999999
0.999996
0.999993
0.999998
1
1
1
1
1
1
1
1
1
1
1
1
1
1
1
0.999999
0.823382
0.776507
0.836095
0.993432
0.999975
0.999982
0.999982
0.0024553
0.00246727
0.00245042
0.00244557
0.23263
0.91659
0.998005
0.999504
0.999871
0.999965
0.999988
0.999995
0.999997
0.999995
0.99999
0.999991
0.999999
1
1
1
1
1
1
1
1
1
0.999997
0.999995
0.999999
1
1
1
1
0.895649
0.778108
0.786588
0.976876
0.999964
0.999982
0.999982
0.00244618
0.0024569
0.00243569
0.00287326
0.649428
0.99529
0.99896
0.999722
0.99992
0.999974
0.999988
0.999993
0.999995
0.999989
0.999989
0.999996
1
1
1
1
1
1
1
1
0.999989
0.999979
0.999981
0.999991
1
1
1
1
1
0.974874
0.782067
0.781279
0.941198
0.999943
0.999982
0.999982
0.0516777
0.00249002
0.00285096
0.383875
0.960751
0.99792
0.999535
0.999854
0.999947
0.999975
0.999987
0.999991
0.999992
0.999989
0.999994
0.999999
0.999999
0.999999
1
1
1
1
0.999998
0.999968
0.999967
0.999976
0.999997
1
1
1
1
1
1
1
0.812172
0.781277
0.905323
0.999918
0.999982
0.999982
0.247043
0.00393224
0.139882
0.833696
0.99648
0.999171
0.999757
0.999903
0.999953
0.999972
0.99998
0.999986
0.999989
0.999992
0.999994
0.999996
0.999996
0.999997
0.999999
1
1
0.999978
0.999954
0.999956
0.999992
0.999999
0.999999
0.999999
0.999898
0.999922
0.999998
1
1
1
0.84719
0.780374
0.875377
0.999219
0.999981
0.999982
0.208084
0.124035
0.636953
0.993978
0.99844
0.99957
0.999824
0.999908
0.999941
0.999959
0.999973
0.999985
0.999988
0.999987
0.999989
0.999985
0.999979
0.99999
0.999999
0.999998
0.999992
0.998153
0.998962
0.999958
0.999767
0.999998
0.999999
0.991914
0.997837
0.999968
0.999998
1
1
0.999999
0.875639
0.77706
0.857672
0.997556
0.999979
0.999981
0.214498
0.394627
0.928239
0.996969
0.999219
0.999692
0.999831
0.999889
0.999917
0.999949
0.999969
0.999979
0.999972
0.999965
0.999962
0.99997
0.999962
0.999985
0.999998
0.999697
0.996997
0.997627
0.999867
0.999912
0.999868
0.672958
0.708174
0.963986
0.999378
0.999939
0.999992
0.999998
0.999999
0.999999
0.890962
0.773208
0.839949
0.994518
0.999978
0.99998
0.224975
0.723229
0.994305
0.998463
0.999479
0.999706
0.999804
0.999853
0.999905
0.999938
0.999956
0.999948
0.999916
0.999871
0.999843
0.999795
0.999718
0.999797
0.999822
0.999578
0.999426
0.999045
0.948037
0.781851
0.493964
0.374887
0.408101
0.869151
0.999077
0.999883
0.999985
0.999996
0.999998
0.999999
0.907278
0.769809
0.811643
0.987744
0.999944
0.999979
0.554771
0.970006
0.997483
0.999191
0.999477
0.999673
0.999764
0.999827
0.999885
0.999908
0.999894
0.999829
0.999649
0.99942
0.999231
0.998854
0.998243
0.990747
0.980006
0.979726
0.796267
0.452663
0.372891
0.377643
0.370913
0.372008
0.373962
0.686831
0.996556
0.999792
0.999977
0.999996
0.999999
1
0.933837
0.767292
0.805847
0.985688
0.999653
0.999687
0.861862
0.996398
0.998921
0.999494
0.999516
0.999604
0.999703
0.999796
0.999831
0.999768
0.999563
0.998968
0.998253
0.987513
0.9109
0.780919
0.815599
0.771541
0.449135
0.375778
0.375286
0.372907
0.372375
0.372237
0.37219
0.372017
0.373039
0.668395
0.995425
0.999763
0.999977
0.999997
0.999999
1
0.967216
0.764236
0.815574
0.987312
0.999494
0.998803
0.996987
0.999004
0.999648
0.999748
0.999632
0.999502
0.999542
0.999725
0.9996
0.99938
0.998894
0.935329
0.806843
0.648525
0.382431
0.380706
0.379676
0.378501
0.377934
0.373516
0.372468
0.372364
0.371904
0.37199
0.371694
0.372247
0.406163
0.808587
0.995423
0.999601
0.999965
0.999997
1
1
0.988711
0.762496
0.839768
0.991514
0.999576
0.998786
0.999283
0.999785
0.999856
0.99979
0.999715
0.999616
0.999465
0.999484
0.998968
0.955705
0.879222
0.48536
0.385616
0.385151
0.382543
0.380401
0.379258
0.378865
0.377874
0.374668
0.371894
0.66166
0.591858
0.370824
0.372395
0.509545
0.789908
0.962088
0.995836
0.999582
0.999959
0.999996
1
1
0.98923
0.757636
0.867472
0.995886
0.999735
0.998785
0.999874
0.999934
0.999894
0.999838
0.999789
0.999677
0.999208
0.998225
0.927021
0.583619
0.384459
0.386811
0.3884
0.387028
0.383118
0.380555
0.483676
0.754325
0.75945
0.695308
0.742406
0.771545
0.771125
0.410673
0.480213
0.811038
0.990051
0.997769
0.997847
0.999674
0.999966
0.999997
1
1
0.982416
0.713854
0.892871
0.997604
0.999857
0.998784
0.999974
0.999961
0.999923
0.999893
0.999826
0.99921
0.985066
0.864237
0.428298
0.393397
0.388595
0.388584
0.389378
0.388844
0.457686
0.762943
0.769308
0.769341
0.76957
0.770552
0.771545
0.771781
0.771545
0.444466
0.452773
0.820229
0.997486
0.99961
0.999809
0.999866
0.999982
0.999999
1
1
0.885469
0.692024
0.918057
0.998089
0.999913
0.998784
0.999991
0.999973
0.999961
0.999934
0.999592
0.991679
0.663759
0.40533
0.403752
0.399705
0.395209
0.39386
0.39097
0.6212
0.761625
0.764351
0.767441
0.719022
0.715595
0.764266
0.771671
0.771664
0.601826
0.39921
0.415303
0.849735
0.996554
0.999682
0.999979
0.999994
0.999997
1
1
1
0.696909
0.689479
0.947917
0.998478
0.999922
0.998891
0.999995
0.999992
0.999983
0.999819
0.994288
0.627004
0.39091
0.398849
0.40533
0.405629
0.592606
0.597077
0.604514
0.60817
0.513357
0.234305
0.1446
0.154818
0.189561
0.282849
0.408689
0.414908
0.39836
0.39836
0.590796
0.934613
0.997345
0.999811
0.999995
0.999999
0.999999
1
1
0.963805
0.683754
0.688127
0.983755
0.9991
0.999922
0.999885
0.999999
0.999999
0.999955
0.998853
0.618019
0.373385
0.382148
0.39091
0.523532
0.60972
0.599749
0.595482
0.512657
0.158121
0.0291405
0.0290162
0.0294939
0.0344389
0.0397711
0.0471588
0.207885
0.390089
0.515414
0.688323
0.937005
0.994457
0.999612
0.999978
0.999997
0.999998
0.999999
1
0.999971
0.724756
0.683754
0.760472
0.999825
0.999709
0.999919
0.999394
1
1.00003
0.999725
0.780201
0.352192
0.360641
0.376257
0.606645
0.626178
0.617327
0.551639
0.198941
0.0207413
0.0227121
0.0248226
0.0262
0.0273615
0.0400309
0.199899
0.418199
0.643629
0.821133
0.940683
0.988514
0.999416
0.999955
0.999992
0.999995
0.999996
0.999998
0.999998
0.999973
0.827015
0.684266
0.683754
0.932436
0.999973
0.999954
0.999876
0.997617
1
0.999996
0.943901
0.384267
0.334401
0.359161
0.649675
0.647607
0.627325
0.385947
0.0203785
0.01782
0.0199278
0.0207413
0.0221816
0.112913
0.371259
0.655434
0.861739
0.964368
0.993387
0.998432
0.99915
0.999639
0.999918
0.999985
0.999991
0.999993
0.999996
0.999996
0.999958
0.834961
0.684778
0.684778
0.692929
0.999968
0.999987
0.999963
0.999769
0.997514
1
1.00013
0.44952
0.30757
0.319692
0.689184
0.681567
0.592576
0.162371
0.0156427
0.0167529
0.0171878
0.0177595
0.238777
0.566868
0.834552
0.961055
0.998
0.998678
0.999029
0.999287
0.999512
0.999717
0.999891
0.999962
0.999981
0.999989
0.999992
0.999992
0.963857
0.768645
0.678784
0.681789
0.684778
0.86718
0.999987
0.99999
0.999966
0.999631
0.997512
1.00002
0.870865
0.295282
0.292124
0.629597
0.738607
0.60892
0.0730414
0.0145853
0.015114
0.0156427
0.111516
0.657443
0.938089
0.994072
0.998967
0.99931
0.999435
0.999429
0.99935
0.999525
0.999721
0.999819
0.99991
0.999926
0.999974
0.999984
0.972129
0.800918
0.682541
0.668715
0.674483
0.678784
0.791963
0.999676
0.999991
0.999991
0.999978
0.999369
0.997512
1.00001
0.391427
0.244091
0.361245
0.766146
0.749447
0.113878
0.0125104
0.0139275
0.0145853
0.135599
0.785284
0.999171
0.999616
0.999645
0.99964
0.999615
0.999575
0.999537
0.999435
0.999566
0.999704
0.999791
0.999879
0.999772
0.88046
0.748616
0.663457
0.662519
0.666993
0.667118
0.68444
0.835314
0.984244
0.99999
0.999997
0.999992
0.999989
0.998849
0.997512
1
0.213194
0.225457
0.733283
0.766146
0.512818
0.0191814
0.0119403
0.0131025
0.0398817
0.612176
0.999326
0.999693
0.999709
0.999709
0.999692
0.999663
0.999624
0.999612
0.999586
0.99955
0.999637
0.88297
0.745273
0.62916
0.592838
0.603062
0.615499
0.663116
0.744624
0.822815
0.925036
0.991765
0.999896
0.999995
0.999998
0.999992
0.999987
0.998727
0.997512
0.827261
0.0787708
0.468744
0.771225
0.768686
0.278339
0.00859779
0.0105391
0.0122742
0.245841
0.963884
0.999705
0.999717
0.999717
0.999714
0.999702
0.999693
0.999678
0.999632
0.999549
0.78384
0.62263
0.570448
0.571906
0.578014
0.584313
0.640919
0.833769
0.935044
0.975649
0.993863
0.999127
0.999726
0.999978
0.999998
0.999999
0.999994
0.999954
0.999151
0.998567
0.60554
0.0285869
0.713537
0.771225
0.745053
0.0860786
0.00810966
0.00796908
0.0161269
0.501719
0.999702
0.999719
0.999718