/*--------------------------------*- C++ -*----------------------------------*\
  =========                 |
  \\      /  F ield         | OpenFOAM: The Open Source CFD Toolbox
   \\    /   O peration     | Website:  https://openfoam.org
    \\  /    A nd           | Version:  8
     \\/     M anipulation  |
\*---------------------------------------------------------------------------*/
FoamFile
{
    version     2.0;
    format      ascii;
    class       volScalarField;
    location    "2.25";
    object      k;
}
// * * * * * * * * * * * * * * * * * * * * * * * * * * * * * * * * * * * * * //

dimensions      [0 2 -2 0 0 0 0];

internalField   nonuniform List<scalar> 
9150
(
0.0018276
0.000941459
0.000478258
0.00030827
0.000205459
0.00020547
0.000308293
0.000478282
0.000941476
0.00182761
0.00178497
0.000747087
0.000401642
0.000263047
0.000172432
0.00017244
0.000263064
0.000401663
0.000747098
0.00178498
0.00171349
0.000651815
0.000368746
0.000242801
0.000159284
0.000159292
0.000242816
0.000368767
0.000651825
0.0017135
0.00163493
0.000601784
0.00035568
0.000234728
0.000154339
0.000154348
0.000234745
0.000355703
0.000601797
0.00163494
0.00155147
0.00058025
0.000350933
0.000231913
0.000152825
0.000152835
0.000231931
0.000350957
0.000580268
0.00155148
0.00285142
0.00257652
0.00188766
0.00167582
0.00141986
0.00142027
0.00167679
0.00188907
0.00257861
0.00285169
0.00230482
0.00150722
0.00129986
0.00124958
0.00104131
0.00104151
0.00125002
0.00130042
0.00150763
0.00230483
0.00204961
0.00125363
0.000898046
0.000831905
0.000668731
0.000668826
0.000832078
0.000898246
0.00125377
0.00204961
0.00186783
0.00111123
0.000655431
0.000544851
0.000412856
0.000412898
0.00054492
0.000655515
0.00111129
0.00186784
0.00178743
0.00102177
0.000527899
0.000381054
0.000270104
0.000270125
0.000381089
0.000527942
0.0010218
0.00178744
0.0119238
0.00499444
0.00262593
0.0019594
0.00163166
0.00162922
0.00195749
0.00265405
0.00534709
0.0130009
0.00492255
0.0038136
0.00254737
0.00195704
0.00164027
0.00163906
0.00195646
0.00254615
0.0037934
0.00493307
0.00441308
0.00344791
0.00252718
0.00195632
0.00164938
0.00164923
0.00195751
0.00252908
0.003441
0.00441528
0.00392231
0.00316689
0.00250778
0.00195317
0.00165811
0.00165853
0.00195475
0.00250989
0.00316804
0.00392327
0.00336286
0.00311072
0.00239998
0.00190589
0.00163154
0.00163216
0.00190743
0.002402
0.00311415
0.00336332
0.013729
0.0137576
0.0137646
0.0137504
0.0137154
0.01366
0.0135847
0.0134902
0.0133777
0.0132483
0.0286482
0.0287247
0.0287646
0.0287676
0.0287341
0.0286643
0.0285588
0.0284184
0.0282441
0.0280372
0.0357716
0.0358577
0.0359024
0.0359058
0.0358678
0.0357888
0.0356692
0.03551
0.035312
0.0350766
0.0406341
0.0407213
0.0407656
0.0407669
0.0407253
0.0406411
0.0405146
0.0403465
0.0401378
0.0398894
0.0444891
0.0445731
0.0446141
0.0446119
0.0445666
0.0444783
0.0443475
0.0441746
0.0439604
0.0437056
0.0477757
0.0478535
0.0478888
0.0478816
0.047832
0.04774
0.0476059
0.0474301
0.047213
0.0469553
0.0506983
0.0507673
0.050795
0.0507814
0.0507265
0.0506306
0.0504938
0.0503162
0.050098
0.0498395
0.0533679
0.0534257
0.0534438
0.0534223
0.0533613
0.0532611
0.0531217
0.052943
0.0527251
0.0524679
0.05585
0.0558942
0.0559007
0.0558697
0.0558016
0.0556966
0.0555546
0.0553755
0.0551591
0.054905
0.0581848
0.058213
0.0582058
0.0581637
0.0580873
0.0579766
0.0578319
0.0576528
0.0574391
0.05719
0.0603978
0.0604074
0.0603841
0.0603289
0.0602425
0.0601252
0.0599772
0.0597982
0.0595879
0.0593455
0.0625052
0.0624931
0.062451
0.0623804
0.0622819
0.0621563
0.0620038
0.0618243
0.0616176
0.0613828
0.0645175
0.0644801
0.064416
0.0643269
0.0642137
0.0640774
0.0639185
0.063737
0.0635327
0.0633051
0.0664415
0.0663746
0.0662847
0.0661736
0.0660425
0.0658926
0.0657243
0.0655381
0.065334
0.0651116
0.0682815
0.0681804
0.0680604
0.0679234
0.0677709
0.0676039
0.0674231
0.0672289
0.0670214
0.0668006
0.0700384
0.0698982
0.069744
0.0695776
0.0694004
0.0692132
0.0690167
0.0688112
0.0685968
0.0683733
0.0717096
0.0715265
0.0713349
0.0711363
0.0709319
0.0707223
0.070508
0.070289
0.0700651
0.0698359
0.0732899
0.0730616
0.0728307
0.0725986
0.0723658
0.0721329
0.0718998
0.0716664
0.0714323
0.0711965
0.0747736
0.0744995
0.074229
0.073963
0.0737019
0.0734456
0.0731939
0.0729463
0.072702
0.07246
0.0761564
0.0758369
0.0755275
0.0752284
0.0749395
0.0746603
0.0743903
0.0741286
0.0738742
0.073626
0.0774349
0.0770716
0.0767247
0.0763938
0.0760781
0.0757767
0.0754885
0.0752126
0.0749477
0.0746922
0.0786064
0.078202
0.0778201
0.0774593
0.0771181
0.0767951
0.0764889
0.0761984
0.0759219
0.0756578
0.0796681
0.0792273
0.0788143
0.0784265
0.0780615
0.0777178
0.0773938
0.0770881
0.076799
0.0765246
0.0806187
0.0801485
0.0797099
0.0792989
0.0789128
0.0785496
0.078208
0.0778867
0.077584
0.0772978
0.0814579
0.0809684
0.080512
0.0800831
0.0796788
0.0792976
0.0789388
0.0786017
0.0782846
0.0779855
0.0821864
0.0816909
0.0812275
0.0807875
0.080368
0.0799698
0.0795941
0.079241
0.0789092
0.0785964
0.0828026
0.0823175
0.0818623
0.0814188
0.0809864
0.0805719
0.0801797
0.079811
0.0794647
0.0791382
0.0833009
0.0828376
0.0824046
0.0819717
0.0815306
0.0811022
0.080696
0.0803144
0.0799558
0.0796175
0.0836826
0.0832324
0.0828154
0.0824217
0.0819927
0.0815578
0.0811438
0.080755
0.0803891
0.0800426
0.0839658
0.0835402
0.0831557
0.0827817
0.0823693
0.0819413
0.0815317
0.0811451
0.0807789
0.0804298
0.0841861
0.0838102
0.0834555
0.083082
0.0826769
0.082271
0.0818806
0.0815072
0.0811489
0.0808028
0.0844068
0.0840655
0.0837131
0.0833425
0.0829661
0.0825937
0.0822298
0.0818755
0.0815298
0.0811908
0.0846287
0.0843021
0.0839697
0.0836326
0.083293
0.0829536
0.0826166
0.082283
0.0819522
0.0816228
0.0848748
0.084584
0.0842884
0.0839876
0.0836825
0.0833747
0.0830653
0.0827543
0.0824409
0.0821239
0.0851888
0.0849379
0.0846806
0.0844171
0.0841483
0.0838745
0.0835955
0.0833105
0.0830184
0.0827175
0.0855894
0.0853801
0.0851643
0.084942
0.0847129
0.0844765
0.0842317
0.0839769
0.0837102
0.0834294
0.0861064
0.0859416
0.0857704
0.0855921
0.0854059
0.0852105
0.0850038
0.0847835
0.0845466
0.0842904
0.0867682
0.0866513
0.0865279
0.0863974
0.0862582
0.0861082
0.0859445
0.0857637
0.0855618
0.0853349
0.0875983
0.0875343
0.0874641
0.0873867
0.0873003
0.0872021
0.0870881
0.0869538
0.0867936
0.0866023
0.0886179
0.0886138
0.0886041
0.0885877
0.0885627
0.0885254
0.088471
0.0883932
0.0882846
0.0881374
0.0898461
0.0899111
0.0899717
0.0900274
0.0900759
0.0901131
0.0901327
0.0901263
0.0900834
0.0899927
0.0912998
0.0914454
0.0915899
0.0917334
0.0918732
0.0920041
0.0921183
0.0922046
0.0922478
0.0922305
0.0929924
0.0932346
0.093483
0.0937372
0.093993
0.0942442
0.0944821
0.0946919
0.0948499
0.0949275
0.0949389
0.0953013
0.0956806
0.0960744
0.0964766
0.0968807
0.0972804
0.0976568
0.0979676
0.0981579
0.0971589
0.097664
0.0981998
0.0987621
0.0993419
0.0999364
0.100553
0.101165
0.101664
0.101912
0.0996666
0.100325
0.101034
0.101796
0.10259
0.10341
0.10431
0.105303
0.105968
0.106098
0.10247
0.103285
0.104161
0.105117
0.106148
0.107225
0.108298
0.109239
0.109989
0.110847
0.105603
0.106579
0.107599
0.108619
0.109634
0.110684
0.111702
0.112789
0.114017
0.11535
0.109128
0.110276
0.111426
0.112532
0.113604
0.114729
0.115908
0.117181
0.118583
0.120131
0.113155
0.114517
0.115812
0.117061
0.118311
0.119619
0.121024
0.122517
0.124127
0.125867
0.117673
0.119368
0.120987
0.122536
0.124066
0.125649
0.127334
0.129129
0.131053
0.133129
0.122672
0.124825
0.126913
0.128941
0.130949
0.132993
0.135122
0.137368
0.139762
0.142333
0.128231
0.130997
0.133728
0.136432
0.139133
0.141871
0.144691
0.147635
0.150746
0.154057
0.134483
0.138049
0.141646
0.145271
0.148938
0.152675
0.156517
0.160507
0.164686
0.169087
0.141668
0.146286
0.151031
0.155897
0.160887
0.166018
0.171318
0.176819
0.18256
0.18857
0.150256
0.15626
0.162533
0.169065
0.175855
0.18291
0.190246
0.197893
0.205887
0.21426
0.161097
0.168966
0.177304
0.186101
0.195351
0.205055
0.215216
0.225865
0.237067
0.248897
0.175602
0.186061
0.197265
0.209198
0.221851
0.235219
0.249296
0.264125
0.279844
0.296647
0.196015
0.210145
0.225352
0.241617
0.258927
0.277295
0.296728
0.317367
0.339541
0.36353
0.225721
0.245268
0.266177
0.28842
0.311938
0.336769
0.363128
0.39143
0.422281
0.456029
0.269553
0.297224
0.326606
0.35726
0.388926
0.421416
0.455095
0.490968
0.526393
0.557754
0.333733
0.374021
0.416545
0.459998
0.502756
0.543089
0.580247
0.606053
0.614728
0.625758
0.425105
0.485997
0.551385
0.618498
0.682041
0.733668
0.7456
0.727024
0.720438
0.723378
0.546513
0.640346
0.747148
0.864846
0.982936
0.990745
0.927353
0.90839
0.905056
0.89774
0.686076
0.822041
0.988958
1.19146
1.22073
1.12465
1.08652
1.0309
0.990167
0.967257
0.813714
0.976097
1.17074
1.25642
1.20178
1.16652
1.07002
0.981487
0.912157
0.862363
0.929562
1.10317
1.21481
1.21739
1.23236
1.22947
1.10997
0.967562
0.860738
0.780624
1.06212
1.18724
1.20707
1.25491
1.3065
1.22037
1.04529
0.899023
0.786686
0.699269
1.10669
1.1567
1.21294
1.28897
1.19967
1.02932
0.887199
0.771972
0.679982
0.605883
1.08855
1.15158
1.24065
1.14356
0.974696
0.837684
0.727394
0.639604
0.569801
0.511116
1.05272
1.18592
1.1029
0.920614
0.779864
0.671478
0.588203
0.523881
0.471484
0.423066
0.994187
1.00081
0.839279
0.708645
0.607663
0.531446
0.474399
0.429335
0.388728
0.348231
0.861747
0.753504
0.632822
0.541792
0.474257
0.425152
0.388475
0.35615
0.321999
0.287922
0.699034
0.576861
0.48828
0.425356
0.381596
0.351261
0.326462
0.298218
0.267699
0.240924
0.501642
0.431477
0.37937
0.342965
0.318455
0.299365
0.276383
0.249239
0.224595
0.2055
0.368436
0.332305
0.306332
0.289075
0.275299
0.256528
0.232437
0.20965
0.191912
0.180346
0.289355
0.273053
0.263202
0.255023
0.239879
0.217866
0.196279
0.179355
0.16867
0.164771
0.244959
0.242425
0.240995
0.22957
0.207948
0.185849
0.168488
0.157726
0.15433
0.158385
0.226205
0.234749
0.229011
0.206203
0.181451
0.161481
0.148687
0.144218
0.148358
0.16051
0.230655
0.238763
0.216306
0.186815
0.16149
0.143735
0.135484
0.137621
0.149629
0.16997
0.252524
0.241927
0.205005
0.171287
0.145443
0.129927
0.126866
0.136397
0.156766
0.185376
0.276065
0.235528
0.192206
0.156409
0.130579
0.118201
0.121533
0.139374
0.168494
0.205329
0.291173
0.229978
0.180299
0.142129
0.11644
0.108059
0.118808
0.145549
0.183526
0.228414
0.273875
0.215578
0.166565
0.127739
0.102737
0.0991232
0.117932
0.153774
0.200505
0.253257
0.269323
0.207278
0.155798
0.114817
0.0897652
0.0909289
0.117877
0.162691
0.218081
0.278825
0.267883
0.201558
0.146809
0.103017
0.0771858
0.0827445
0.117466
0.170883
0.234936
0.304167
0.267472
0.197192
0.138952
0.0920865
0.0647523
0.0738468
0.115464
0.176888
0.24986
0.328935
0.267959
0.193668
0.131872
0.0819649
0.0525546
0.0637846
0.11072
0.179017
0.260899
0.351265
0.269738
0.190692
0.125146
0.0724787
0.040928
0.0525544
0.102581
0.175982
0.266141
0.368842
0.272482
0.187723
0.118232
0.0633439
0.0304005
0.0407252
0.0911384
0.167248
0.264142
0.379196
0.275489
0.184069
0.110564
0.0542553
0.0214946
0.0293067
0.0771213
0.15298
0.253951
0.38006
0.277668
0.178909
0.101652
0.0450591
0.0145149
0.019408
0.0616464
0.133859
0.234822
0.367623
0.277459
0.171394
0.0911901
0.0358878
0.00946264
0.0118523
0.0460765
0.111182
0.207061
0.33938
0.273003
0.160726
0.0790795
0.0271254
0.00608275
0.00688269
0.0319814
0.0871748
0.173347
0.298463
0.261734
0.146093
0.0654208
0.0192491
0.00398234
0.00409559
0.0207381
0.0644721
0.137223
0.24743
0.243101
0.127154
0.0505869
0.0126387
0.00275114
0.00272872
0.0129083
0.045432
0.103386
0.193389
0.21438
0.102921
0.0352433
0.00757211
0.00208037
0.00209909
0.00802561
0.0311875
0.075485
0.143377
0.172647
0.0748069
0.0215684
0.0043793
0.00177621
0.00180862
0.0050952
0.0211442
0.0557529
0.104628
0.125642
0.0490218
0.0118526
0.00280224
0.00166536
0.00167999
0.00326046
0.0135883
0.0424605
0.0810521
0.075631
0.0267357
0.00567164
0.00213587
0.00163258
0.00163265
0.00224668
0.00699616
0.0290193
0.0690722
0.0130961
0.0129216
0.0127391
0.012544
0.0123342
0.0121101
0.0118735
0.0116262
0.0113701
0.0111071
0.0108389
0.010567
0.0102934
0.0100252
0.00976672
0.00951032
0.00925482
0.00900048
0.00874768
0.0084967
0.00824758
0.00800019
0.00775418
0.00750914
0.00726628
0.00702872
0.00679209
0.00655236
0.0063054
0.00604633
0.0057692
0.00546656
0.00512911
0.00474608
0.00431431
0.00385402
0.00333884
0.00274054
0.00200144
0.0013933
0.027785
0.027481
0.0271425
0.0267712
0.0263714
0.0259461
0.0254981
0.0250304
0.0245459
0.0240474
0.0235374
0.0230181
0.0224915
0.0219587
0.0214235
0.0208885
0.0203541
0.0198209
0.0192891
0.0187588
0.0182297
0.0177012
0.0171726
0.0166429
0.0161106
0.0155705
0.0150199
0.0144549
0.0138703
0.0132601
0.0126168
0.0119315
0.0111942
0.0103934
0.00951413
0.0085453
0.00746903
0.00624439
0.00473849
0.00225276
0.0347886
0.0344403
0.0340512
0.033624
0.0331618
0.0326676
0.0321457
0.0315993
0.0310316
0.0304455
0.0298439
0.0292293
0.0286041
0.0279699
0.0273285
0.0266825
0.0260327
0.0253797
0.0247239
0.0240652
0.0234034
0.0227378
0.0220675
0.0213912
0.0207056
0.0200079
0.0192948
0.0185621
0.0178047
0.0170167
0.0161911
0.0153205
0.0143966
0.0134101
0.0123492
0.0111969
0.00993178
0.00848413
0.00662077
0.00323961
0.0395852
0.0392166
0.038804
0.0383501
0.0378577
0.0373302
0.0367708
0.0361829
0.0355698
0.0349352
0.0342819
0.0336123
0.032929
0.0322338
0.0315283
0.0308144
0.0300929
0.0293645
0.0286294
0.0278875
0.0271386
0.0263817
0.0256158
0.024839
0.0240486
0.0232419
0.0224155
0.0215653
0.0206864
0.0197734
0.01882
0.0178194
0.0167642
0.0156463
0.0144546
0.0131706
0.0117689
0.0101628
0.00804191
0.00399278
0.0433933
0.0430144
0.0425894
0.0421206
0.0416109
0.041063
0.0404803
0.039866
0.0392235
0.038556
0.0378667
0.0371583
0.0364333
0.0356937
0.0349412
0.034177
0.0334022
0.0326172
0.0318223
0.0310172
0.0302016
0.0293743
0.0285341
0.0276788
0.0268063
0.0259134
0.0249969
0.0240527
0.0230758
0.0220609
0.0210019
0.0198916
0.018722
0.0174832
0.0161628
0.0147412
0.0131801
0.0113934
0.00901922
0.00441088
0.0466393
0.0462555
0.045824
0.0453469
0.0448264
0.0442652
0.0436663
0.0430327
0.0423679
0.0416751
0.0409577
0.0402184
0.0394599
0.0386844
0.0378936
0.0370884
0.0362698
0.0354383
0.0345941
0.0337367
0.0328657
0.0319797
0.0310773
0.0301564
0.0292145
0.0282489
0.0272558
0.0262311
0.0251699
0.0240664
0.0229139
0.021704
0.0204265
0.0190683
0.0176115
0.0160296
0.0142763
0.01224
0.0094937
0.00442673
0.0495228
0.0491378
0.0487041
0.0482231
0.0476965
0.0471265
0.0465158
0.0458673
0.0451843
0.0444703
0.0437287
0.0429628
0.0421752
0.0413684
0.0405441
0.039703
0.0388462
0.0379741
0.0370869
0.0361841
0.0352649
0.034328
0.0333716
0.0323938
0.0313919
0.0303629
0.0293032
0.0282083
0.0270732
0.0258916
0.024656
0.0233568
0.0219818
0.0205143
0.0189308
0.0171956
0.0152483
0.0129483
0.00982574
0.00449321
0.0521531
0.0517702
0.051338
0.0508571
0.0503285
0.0497537
0.0491348
0.0484744
0.047776
0.0470431
0.0462797
0.0454892
0.0446749
0.0438393
0.0429838
0.0421097
0.0412181
0.0403094
0.0393836
0.0384402
0.0374782
0.0364963
0.0354925
0.0344647
0.0334104
0.0323263
0.0312087
0.0300533
0.0288546
0.0276062
0.0263002
0.0249265
0.0234715
0.0219165
0.020234
0.01838
0.0162767
0.0137494
0.0102983
0.0046365
0.0545948
0.0542176
0.0537911
0.0533148
0.0527888
0.0522135
0.0515901
0.0509209
0.0502091
0.0494587
0.0486743
0.0478601
0.0470199
0.0461562
0.0452709
0.0443657
0.0434416
0.0424991
0.0415381
0.0405579
0.0395576
0.0385355
0.0374899
0.0364184
0.0353185
0.0341869
0.03302
0.0318131
0.0305612
0.0292576
0.0278946
0.0264617
0.0249455
0.0233267
0.0215767
0.0196493
0.0174606
0.0148345
0.0112881
0.00508001
0.0568872
0.0565197
0.0561036
0.0556375
0.0551199
0.0545498
0.0539269
0.0532525
0.0525293
0.0517619
0.0509563
0.0501181
0.0492514
0.0483594
0.0474449
0.0465098
0.0455551
0.0445811
0.0435877
0.0425742
0.0415393
0.0404817
0.0393992
0.0382895
0.0371502
0.035978
0.034769
0.0335191
0.0322228
0.0308738
0.0294642
0.0279837
0.0264184
0.0247486
0.0229443
0.0209563
0.0186944
0.0159685
0.0122576
0.00552263
0.0590529
0.0586991
0.0582991
0.0578499
0.0573485
0.0567917
0.0561767
0.0555023
0.0547698
0.0539852
0.053157
0.0522925
0.0513975
0.0504768
0.0495336
0.0485696
0.0475859
0.0465827
0.0455595
0.0445156
0.0434498
0.0423603
0.0412453
0.0401024
0.0389289
0.0377216
0.0364768
0.03519
0.0338561
0.0324685
0.031019
0.0294971
0.0278881
0.0261711
0.024314
0.022264
0.0199243
0.0170888
0.0131859
0.00594038
0.0611023
0.0607662
0.0603879
0.0599635
0.0594881
0.058956
0.0583606
0.0576951
0.0569564
0.0561522
0.0552968
0.0544025
0.0534779
0.0525283
0.0515568
0.0505652
0.0495541
0.0485236
0.047473
0.0464015
0.0453077
0.0441899
0.043046
0.0418736
0.0406701
0.039432
0.0381557
0.0368366
0.0354693
0.034047
0.0325611
0.0310004
0.0293492
0.0275849
0.025673
0.0235569
0.0211335
0.018184
0.0140975
0.00638672
0.0630375
0.0627213
0.0623691
0.0619766
0.0615378
0.0610449
0.0604869
0.0598472
0.0591072
0.058276
0.0573874
0.0564608
0.055506
0.0545279
0.0535293
0.0525112
0.0514742
0.0504181
0.0493422
0.0482453
0.047126
0.0459825
0.0448125
0.0436138
0.0423832
0.0411176
0.0398128
0.0384641
0.0370659
0.035611
0.0340902
0.0324914
0.0307977
0.0289847
0.0270156
0.0248297
0.0223174
0.0192465
0.0149674
0.00682067
0.0648553
0.0645582
0.0642331
0.0638762
0.0634821
0.0630423
0.0625433
0.0619583
0.0612271
0.0603592
0.0594349
0.0584766
0.0574924
0.0564866
0.0554613
0.0544175
0.0533555
0.052275
0.0511752
0.0500548
0.0489121
0.0477452
0.0465516
0.0453288
0.0440735
0.0427824
0.0414511
0.0400748
0.0386472
0.0371607
0.0356056
0.0339687
0.032232
0.0303693
0.0283413
0.0260836
0.02348
0.0202851
0.0158115
0.00724063
0.0665514
0.066269
0.0659667
0.0656419
0.0652913
0.0649085
0.0644825
0.0639869
0.0632756
0.0623838
0.0614335
0.0604503
0.0594401
0.0584075
0.0573557
0.0562863
0.0552
0.0540963
0.0529743
0.0518324
0.0506686
0.0494804
0.0482654
0.0470205
0.0457426
0.0444277
0.0430716
0.0416687
0.0402128
0.0386955
0.0371065
0.0354317
0.0336519
0.0317394
0.0296522
0.0273224
0.0246275
0.021309
0.0166422
0.00765323
0.0681258
0.067851
0.0675621
0.0672577
0.0669358
0.0665928
0.066223
0.0658128
0.06521
0.0643147
0.0633567
0.0623586
0.0613295
0.0602749
0.0592
0.058108
0.0570004
0.0558767
0.0547358
0.0535755
0.0523934
0.0511869
0.0499529
0.0486883
0.0473895
0.0460526
0.0446729
0.0432449
0.0417615
0.0402142
0.0385919
0.0368797
0.0350573
0.0330954
0.0309498
0.028549
0.0257645
0.0223245
0.0174673
0.00806288
0.0695861
0.069313
0.0690296
0.0687342
0.0684246
0.0680981
0.0677509
0.0673771
0.0669217
0.0661383
0.0651757
0.0641771
0.0631359
0.0620669
0.0609763
0.0598686
0.0587459
0.057608
0.0564532
0.0552791
0.0540828
0.0528613
0.0516114
0.0503295
0.049012
0.0476548
0.0462531
0.044801
0.0432913
0.0417149
0.0400601
0.0383113
0.0364471
0.0344369
0.0322342
0.0297642
0.0268923
0.0233338
0.0182898
0.00847093
0.0709435
0.0706708
0.0703911
0.0701019
0.0698
0.0694818
0.0691425
0.0687763
0.0683678
0.0678485
0.0669583
0.0659211
0.0648669
0.0637846
0.0626822
0.0615644
0.0604328
0.0592866
0.0581235
0.0569404
0.055734
0.0545009
0.0532379
0.0519412
0.050607
0.0492313
0.047809
0.0463342
0.0447992
0.0431948
0.0415085
0.0397241
0.0378193
0.0357619
0.0335036
0.0309663
0.0280093
0.0243354
0.0191086
0.00887623
0.0722042
0.0719326
0.0716575
0.0713757
0.0710829
0.070774
0.0704422
0.0700791
0.069674
0.0692066
0.06859
0.0676231
0.066538
0.0654401
0.0643266
0.0632016
0.0620652
0.0609151
0.0597476
0.0585589
0.0573453
0.0561034
0.0548295
0.0535201
0.0521711
0.0507784
0.0493371
0.0478409
0.0462819
0.0446505
0.0429337
0.0411148
0.0391703
0.0370669
0.0347544
0.0321513
0.0291115
0.0253251
0.0199193
0.00927595
0.0733671
0.0730961
0.0728249
0.0725493
0.0722641
0.0719627
0.071637
0.0712771
0.0708719
0.0704105
0.069877
0.0691955
0.0681766
0.0670487
0.0659201
0.0647875
0.0636479
0.0624959
0.0613259
0.0601331
0.0589139
0.0576646
0.0563816
0.0550611
0.0536992
0.0522914
0.0508327
0.0493166
0.0477349
0.0460776
0.0443315
0.0424789
0.0404956
0.0383471
0.0359813
0.0333138
0.0301928
0.0262962
0.0207154
0.00966622
0.074429
0.0741568
0.0738872
0.0736153
0.0733351
0.0730392
0.072719
0.0723645
0.0719646
0.0715081
0.0709851
0.0703812
0.0696358
0.0686005
0.0674514
0.0663098
0.0651679
0.0640161
0.0628453
0.06165
0.0604266
0.0591718
0.0578821
0.0565537
0.0551824
0.0537629
0.0522893
0.0507554
0.0491526
0.0474709
0.0456965
0.043811
0.0417897
0.0395967
0.0371781
0.0344468
0.0312456
0.0272409
0.0214891
0.0100426
0.0753881
0.075112
0.0748407
0.0745688
0.0742897
0.0739957
0.0736778
0.0733262
0.0729301
0.0724784
0.0719592
0.0713621
0.0706779
0.0698766
0.0688675
0.0677345
0.066592
0.0654446
0.0642773
0.0630838
0.0618606
0.0606048
0.059313
0.0579813
0.056605
0.0551784
0.0536949
0.052147
0.0505268
0.0488234
0.0470224
0.0451049
0.043046
0.0408087
0.0383376
0.0355427
0.0322619
0.0281504
0.0222316
0.0104006
0.0762462
0.075963
0.0756864
0.0754104
0.0751279
0.074831
0.0745107
0.0741573
0.0737607
0.0733102
0.0727955
0.0722068
0.0715372
0.070786
0.0699471
0.0689759
0.0678731
0.0667385
0.0655829
0.0643997
0.063186
0.0619382
0.0606528
0.0593257
0.0579517
0.0565245
0.0550369
0.0534806
0.0518463
0.0501239
0.0482989
0.0463521
0.044257
0.0419759
0.0394519
0.0365932
0.033233
0.029016
0.0229343
0.0107359
0.0770086
0.0767156
0.0764302
0.0761462
0.0758561
0.0755519
0.0752248
0.0748657
0.0744648
0.0740128
0.0735011
0.072922
0.0722697
0.071543
0.0707467
0.0698849
0.0689427
0.0678602
0.0667298
0.0655739
0.064383
0.0631549
0.0618864
0.0605736
0.0592109
0.057791
0.0563059
0.0547467
0.0531036
0.0513652
0.0495181
0.0475428
0.0454124
0.0430886
0.040513
0.0375903
0.0341506
0.0298291
0.0235892
0.0110451
0.0776838
0.0773786
0.0770817
0.0767865
0.0764857
0.0761714
0.0758353
0.0754689
0.0750637
0.074612
0.0741066
0.0735421
0.0729153
0.0722265
0.0714795
0.0706792
0.0698218
0.0688652
0.0677695
0.0666343
0.0654698
0.0642658
0.0630194
0.0617265
0.0603816
0.0589759
0.0574989
0.0559412
0.0542929
0.0525422
0.0506747
0.0486719
0.0465066
0.0441398
0.0415121
0.0385264
0.0350073
0.0305829
0.0241901
0.0113255
0.0782809
0.0779619
0.0776516
0.0773434
0.0770301
0.0767044
0.0763587
0.0759858
0.0755787
0.0751308
0.0746368
0.0740928
0.0734969
0.072849
0.0721502
0.0713993
0.0705892
0.0697044
0.0687126
0.0676085
0.0664691
0.0652911
0.0640675
0.0627963
0.0614718
0.0600844
0.0586194
0.0570661
0.0554147
0.0536534
0.0517672
0.0497372
0.0475369
0.0451267
0.0424462
0.0393965
0.0357991
0.0312738
0.024734
0.0115768
0.0788088
0.0784752
0.0781505
0.0778282
0.0775016
0.077164
0.0768091
0.0764307
0.0760229
0.0755806
0.0750998
0.0745773
0.0740113
0.0734007
0.072744
0.0720374
0.0712722
0.0704368
0.0695195
0.0684992
0.0673856
0.0662367
0.0650403
0.0637935
0.0624909
0.0611234
0.0596746
0.0581284
0.0564749
0.054703
0.052798
0.0507403
0.0485042
0.0460498
0.0433157
0.0402015
0.0365272
0.0319038
0.0252236
0.0118013
0.0792753
0.0789279
0.0785891
0.0782528
0.0779129
0.0775635
0.0771993
0.0768149
0.0764058
0.075968
0.075498
0.0749933
0.0744519
0.073872
0.0732509
0.0725844
0.0718654
0.0710839
0.0702308
0.0692938
0.0682415
0.0671102
0.0659465
0.0647344
0.0634599
0.0621125
0.0606807
0.0591414
0.0574835
0.0556984
0.0537723
0.0516859
0.0494124
0.0469125
0.0441239
0.0409472
0.0371976
0.0324791
0.0256659
0.0120038
0.0796908
0.0793319
0.0789806
0.0786314
0.0782788
0.0779177
0.0775435
0.0771519
0.0767393
0.0763023
0.0758381
0.0753444
0.074819
0.0742598
0.0736637
0.0730266
0.0723428
0.0716046
0.0708037
0.0699325
0.068973
0.067898
0.0667806
0.0656189
0.0643791
0.0630558
0.0616416
0.06011
0.0584459
0.0566456
0.0546964
0.0525794
0.0502672
0.0477206
0.0448794
0.0416411
0.037818
0.0330074
0.0260659
0.0121878
0.0800726
0.0797055
0.0793441
0.0789834
0.0786186
0.0782456
0.0778605
0.0774598
0.0770406
0.0766001
0.0761361
0.0756462
0.0751283
0.0745799
0.073998
0.0733784
0.0727158
0.0720037
0.0712348
0.0704029
0.0695023
0.0685206
0.067453
0.066337
0.0651337
0.0638398
0.0624613
0.060977
0.0593374
0.0575353
0.0555692
0.0534241
0.0510744
0.0484832
0.0455902
0.0422918
0.0383974
0.0334988
0.0264364
0.0123607
0.0804448
0.0800728
0.0797034
0.0793324
0.0789559
0.0785705
0.0781732
0.0777612
0.0773323
0.0768843
0.0764154
0.0759237
0.0754075
0.0748646
0.0742924
0.0736875
0.073046
0.0723629
0.0716331
0.0708516
0.070013
0.0691073
0.0681053
0.0669888
0.0658013
0.0645432
0.0632038
0.0617659
0.0601699
0.058379
0.0564007
0.0542291
0.0518431
0.0492077
0.046263
0.0429052
0.0389419
0.0339595
0.0267837
0.0125263
0.0808353
0.0804612
0.0800856
0.0797052
0.079317
0.0789184
0.0785071
0.0780813
0.0776391
0.0771793
0.0767006
0.0762018
0.0756817
0.0751387
0.0745712
0.0739767
0.0733526
0.0726953
0.0720008
0.071264
0.0704789
0.0696356
0.068712
0.0676484
0.0664975
0.0652733
0.0639529
0.0625356
0.0609795
0.0592083
0.0572143
0.0550088
0.0525815
0.0498976
0.0468987
0.0434812
0.0394511
0.0343895
0.027108
0.0126843
0.0812724
0.0808982
0.0805178
0.0801288
0.0797288
0.0793158
0.0788886
0.0784458
0.0779866
0.0775103
0.0770165
0.0765045
0.0759739
0.0754238
0.0748534
0.0742612
0.0736452
0.0730025
0.0723293
0.0716207
0.0708699
0.0700677
0.0692011
0.068238
0.0671348
0.0659706
0.0646647
0.0632467
0.0617065
0.0599637
0.0579655
0.0557312
0.0532633
0.0505317
0.0474807
0.0440076
0.0399169
0.0347846
0.0274081
0.0128359
0.0817814
0.0814096
0.0810263
0.0806295
0.0802174
0.079789
0.0793436
0.0788808
0.0784006
0.077903
0.0773883
0.0768569
0.0763089
0.0757445
0.0751636
0.0745659
0.0739504
0.0733156
0.0726591
0.071977
0.0712644
0.0705137
0.069714
0.0688399
0.0678017
0.0665974
0.0652881
0.0638619
0.0623125
0.060587
0.0586105
0.0563618
0.0538587
0.0510855
0.0479905
0.0444724
0.0403347
0.035149
0.0276986
0.0129918
0.0823865
0.0820202
0.0816362
0.0812328
0.080809
0.0803643
0.0798988
0.0794129
0.0789075
0.0783836
0.0778423
0.0772847
0.0767122
0.0761257
0.0755265
0.0749153
0.0742928
0.0736592
0.0730143
0.0723569
0.0716841
0.0709907
0.0702657
0.0694874
0.0685715
0.0673355
0.0660139
0.0645534
0.0629608
0.0612089
0.0592244
0.0569527
0.0544019
0.0515785
0.0484409
0.0448867
0.0407176
0.0354999
0.0280024
0.0131646
0.083114
0.082757
0.082375
0.0819666
0.0815313
0.0810694
0.0805818
0.0800698
0.0795353
0.0789802
0.0784064
0.0778161
0.0772115
0.0765946
0.0759676
0.0753326
0.0746917
0.0740467
0.0733992
0.0727498
0.0720976
0.0714387
0.0707627
0.0700512
0.0692426
0.06811
0.0667896
0.0653192
0.0636699
0.0618609
0.0598332
0.057516
0.0549022
0.052022
0.0488436
0.0452625
0.0410775
0.0358503
0.0283334
0.0133589
0.0839947
0.0836506
0.083273
0.082861
0.0824144
0.0819344
0.0814228
0.080882
0.0803146
0.0797236
0.079112
0.0784826
0.0778385
0.0771826
0.0765181
0.0758479
0.0751753
0.0745033
0.0738349
0.0731723
0.0725165
0.0718659
0.0712147
0.0705507
0.0698393
0.0689098
0.0674996
0.0660671
0.0644154
0.0625647
0.0604784
0.0580769
0.0553817
0.0524396
0.0492192
0.045616
0.041426
0.0362057
0.0286928
0.0135749
0.0850635
0.0847359
0.0843653
0.0839508
0.0834931
0.0829941
0.0824568
0.0818845
0.0812811
0.0806503
0.0799959
0.0793217
0.0786313
0.0779284
0.0772167
0.0764999
0.0757822
0.0750675
0.0743601
0.0736641
0.0729827
0.0723181
0.0716695
0.0710293
0.0703795
0.0696157
0.0682882
0.0667997
0.0652585
0.0633937
0.0611935
0.0586461
0.055845
0.0528288
0.0495602
0.0459337
0.0417402
0.03653
0.0290239
0.0138307
0.0863607
0.0860538
0.0856927
0.0852769
0.084808
0.0842893
0.0837249
0.0831196
0.082478
0.0818048
0.0811044
0.080381
0.0796387
0.0788817
0.0781139
0.0773396
0.0765634
0.0757902
0.0750251
0.0742736
0.0735413
0.0728331
0.0721512
0.0714922
0.0708446
0.070139
0.0689986
0.0674856
0.0660444
0.0642881
0.0619035
0.0591535
0.0562298
0.0531401
0.049828
0.0461798
0.041982
0.0367796
0.0292809
0.014019
0.0879329
0.0876517
0.0873027
0.0868866
0.0864068
0.0858684
0.0852773
0.0846393
0.0839599
0.0832442
0.082497
0.0817225
0.080925
0.0801086
0.0792774
0.0784358
0.0775887
0.0767413
0.0758995
0.0750702
0.0742607
0.073479
0.072732
0.0720241
0.0713547
0.0706769
0.0696817
0.0682516
0.0667951
0.0649953
0.0624257
0.0595026
0.0564711
0.0533171
0.0499656
0.0462939
0.0420848
0.0368814
0.0293874
0.0140877
0.0898349
0.0895851
0.0892503
0.0888345
0.0883447
0.0877889
0.0871745
0.0865082
0.0857958
0.0850423
0.0842519
0.0834286
0.0825762
0.0816983
0.0807988
0.0798821
0.0789528
0.0780164
0.077079
0.076148
0.0752321
0.0743418
0.073489
0.0726858
0.0719462
0.0712507
0.0703612
0.0690399
0.0675046
0.0654579
0.0626412
0.0596027
0.0565094
0.0533151
0.0499316
0.0462317
0.0419989
0.0367805
0.0292883
0.0140043
0.0921315
0.0919175
0.0915961
0.0911802
0.0906833
0.0901165
0.0894883
0.0888051
0.088072
0.0872925
0.0864695
0.0856058
0.0847039
0.0837669
0.0827981
0.0818013
0.0807808
0.0797419
0.0786903
0.0776332
0.0765791
0.0755385
0.0745253
0.0735573
0.0726609
0.0718566
0.0710207
0.0698031
0.0679867
0.0654728
0.062488
0.0594462
0.0563522
0.0531412
0.0497265
0.0459863
0.0417109
0.0364581
0.0289604
0.0137529
0.0948967
0.0947128
0.0943971
0.0939814
0.0934867
0.0929244
0.0923024
0.091625
0.0908943
0.0901108
0.0892747
0.0883866
0.0874474
0.086459
0.0854239
0.0843453
0.083227
0.0820736
0.0808904
0.0796832
0.0784585
0.0772236
0.0759869
0.0747589
0.0735571
0.0724061
0.0713025
0.0699223
0.0676922
0.0649815
0.062118
0.0591627
0.0560951
0.0528672
0.049409
0.0456102
0.0412708
0.0359619
0.0284453
0.013361
0.098184
0.0980092
0.0976919
0.0972898
0.0968215
0.0962955
0.0957158
0.095082
0.0943908
0.0936376
0.0928183
0.0919301
0.0909724
0.0899453
0.0888503
0.08769
0.0864677
0.0851873
0.0838532
0.0824699
0.0810412
0.0795696
0.0780554
0.076495
0.074881
0.0732068
0.0714477
0.069482
0.0671982
0.0646443
0.0618996
0.05899
0.0559138
0.0526428
0.0491185
0.045242
0.0408202
0.0354347
0.0278774
0.0129215
0.101962
0.101791
0.101507
0.101163
0.100771
0.100334
0.0998523
0.0993174
0.0987182
0.0980421
0.0972788
0.0964223
0.0954698
0.0944203
0.093274
0.0920325
0.0906983
0.0892748
0.0877656
0.0861741
0.0845025
0.0827508
0.0809156
0.0789885
0.0769569
0.0748116
0.072552
0.0701784
0.0676789
0.0650233
0.0622051
0.0592231
0.0560676
0.0527097
0.0490926
0.0451155
0.0405886
0.035101
0.0274674
0.0126221
0.106116
0.106039
0.105892
0.105695
0.105459
0.105186
0.104875
0.104511
0.10407
0.103527
0.102865
0.102075
0.101156
0.100103
0.0989162
0.0975952
0.0961419
0.0945591
0.0928509
0.0910213
0.0890738
0.0870106
0.0848313
0.0825324
0.0801083
0.0775594
0.0748985
0.0721519
0.0693276
0.0664062
0.0633689
0.0601988
0.0568743
0.0533588
0.0495913
0.0454677
0.0407965