/*--------------------------------*- C++ -*----------------------------------*\
  =========                 |
  \\      /  F ield         | OpenFOAM: The Open Source CFD Toolbox
   \\    /   O peration     | Website:  https://openfoam.org
    \\  /    A nd           | Version:  8
     \\/     M anipulation  |
\*---------------------------------------------------------------------------*/
FoamFile
{
    version     2.0;
    format      ascii;
    class       volScalarField;
    location    "2.25";
    object      p_rgh;
}
// * * * * * * * * * * * * * * * * * * * * * * * * * * * * * * * * * * * * * //

dimensions      [1 -1 -2 0 0 0 0];

internalField   nonuniform List<scalar> 
9150
(
2566.38
2538.21
2513
2495.93
2487.65
2487.64
2495.92
2512.99
2538.19
2566.36
2557.48
2536.49
2521.07
2509.31
2503.36
2503.35
2509.3
2521.06
2536.47
2557.46
2547.72
2532.82
2524.58
2516.77
2512.69
2512.68
2516.77
2524.58
2532.81
2547.71
2542.56
2531.29
2526.19
2520.71
2517.74
2517.74
2520.71
2526.18
2531.28
2542.55
2540.93
2530.63
2526.53
2522.24
2519.76
2519.76
2522.24
2526.53
2530.63
2540.92
2102.07
2098.71
2122.78
2135.51
2141.71
2141.66
2135.36
2122.56
2098.42
2101.7
2290.51
2266.8
2261.72
2259.94
2259.75
2259.72
2259.86
2261.6
2266.65
2290.36
2415.06
2383.19
2367.82
2357.73
2352.93
2352.91
2357.68
2367.75
2383.1
2414.98
2516.32
2472.38
2445.12
2427.74
2419.17
2419.16
2427.71
2445.09
2472.34
2516.28
2590.92
2532.65
2493.96
2471.93
2461.75
2461.74
2471.91
2493.94
2532.62
2590.89
1916.78
1959.44
1939.04
1952.73
1946.27
1945.19
1952.6
1937.36
1957.4
1909.99
1944.82
1966.41
1940.3
1952.65
1945.93
1945.08
1953.25
1937.59
1965.03
1939.93
1923.88
1959.9
1914.92
1929.49
1931.05
1930.77
1929.47
1913.4
1958.6
1921.43
1764.37
1896.85
1897.38
1919.03
1936.66
1936.55
1918.63
1896.33
1896.11
1762.8
1612.61
1879.57
1969.12
1998.11
2014.78
2014.7
1997.84
1968.67
1879.09
1611.53
1819.03
1819.4
1819.75
1820.07
1820.37
1820.64
1820.87
1821.08
1821.27
1821.43
1817.48
1817.8
1818.12
1818.43
1818.72
1818.99
1819.26
1819.5
1819.74
1819.96
1816.22
1816.5
1816.78
1817.07
1817.35
1817.63
1817.91
1818.19
1818.47
1818.74
1815.42
1815.67
1815.93
1816.2
1816.48
1816.76
1817.05
1817.35
1817.65
1817.95
1814.95
1815.18
1815.42
1815.68
1815.95
1816.24
1816.53
1816.83
1817.14
1817.46
1814.71
1814.93
1815.17
1815.42
1815.69
1815.96
1816.25
1816.56
1816.87
1817.19
1814.67
1814.88
1815.11
1815.36
1815.62
1815.89
1816.18
1816.47
1816.78
1817.1
1814.78
1814.99
1815.22
1815.46
1815.72
1815.99
1816.26
1816.55
1816.84
1817.15
1815.03
1815.24
1815.47
1815.71
1815.97
1816.22
1816.49
1816.76
1817.04
1817.32
1815.4
1815.63
1815.86
1816.1
1816.35
1816.6
1816.86
1817.12
1817.37
1817.63
1815.9
1816.14
1816.38
1816.63
1816.88
1817.13
1817.37
1817.61
1817.85
1818.08
1816.53
1816.78
1817.03
1817.29
1817.55
1817.8
1818.04
1818.28
1818.5
1818.7
1817.28
1817.55
1817.82
1818.09
1818.36
1818.63
1818.88
1819.12
1819.34
1819.53
1818.14
1818.43
1818.73
1819.04
1819.33
1819.63
1819.91
1820.17
1820.42
1820.63
1819.1
1819.42
1819.76
1820.1
1820.44
1820.78
1821.11
1821.43
1821.73
1822.01
1820.12
1820.49
1820.87
1821.27
1821.67
1822.08
1822.49
1822.89
1823.28
1823.65
1821.15
1821.58
1822.04
1822.51
1822.99
1823.48
1823.98
1824.5
1825.01
1825.54
1822.19
1822.69
1823.22
1823.77
1824.34
1824.93
1825.53
1826.16
1826.82
1827.5
1823.22
1823.8
1824.4
1825.03
1825.68
1826.35
1827.05
1827.79
1828.55
1829.35
1824.24
1824.89
1825.56
1826.26
1826.98
1827.73
1828.51
1829.33
1830.18
1831.07
1825.27
1825.96
1826.69
1827.44
1828.22
1829.04
1829.89
1830.77
1831.69
1832.64
1826.29
1827
1827.76
1828.56
1829.39
1830.27
1831.18
1832.12
1833.08
1834.08
1827.26
1827.97
1828.73
1829.57
1830.46
1831.4
1832.37
1833.37
1834.39
1835.43
1828.13
1828.77
1829.53
1830.4
1831.37
1832.41
1833.47
1834.56
1835.65
1836.74
1828.77
1829.26
1829.97
1830.92
1832.05
1833.26
1834.49
1835.7
1836.9
1838.06
1829.08
1829.22
1829.87
1831.05
1832.53
1834.04
1835.5
1836.9
1838.22
1839.48
1828.48
1824.59
1804.16
1823.98
1832.73
1834.98
1836.75
1838.32
1839.78
1841.12
1827.55
1684.56
1551.54
1641.29
1790.57
1835.69
1838.56
1840.25
1841.76
1843.11
1691.52
1472.12
1454.93
1455.32
1631.05
1833.09
1842.31
1843.55
1844.7
1845.78
1452.32
1442.93
1444.76
1445.97
1551.53
1828.54
1846.06
1846.98
1847.8
1848.61
1435.2
1437.01
1438.42
1449.97
1672.84
1839.67
1849.93
1850.43
1850.93
1851.48
1430.14
1431.45
1492.78
1711.5
1845.39
1853.59
1853.5
1853.62
1853.84
1854.16
1515.01
1664.97
1816.75
1858.76
1857.19
1856.51
1856.21
1856.12
1856.19
1856.38
1853.88
1861.5
1859.82
1858.92
1858.36
1857.98
1857.77
1857.72
1857.83
1858.04
1859.83
1859.53
1859.22
1858.94
1858.71
1858.58
1858.57
1858.68
1858.89
1859.2
1858.66
1858.64
1858.6
1858.56
1858.58
1858.68
1858.86
1859.13
1859.49
1859.93
1857.45
1857.57
1857.7
1857.87
1858.09
1858.38
1858.73
1859.15
1859.27
1859.5
1856.13
1856.35
1856.62
1856.94
1857.31
1857.75
1858.14
1857.95
1857.51
1858.32
1854.63
1854.93
1855.31
1855.73
1856.15
1856.16
1855.77
1856.08
1856.93
1858.01
1852.87
1853.25
1853.71
1854.2
1853.74
1853.33
1854.1
1854.97
1856.35
1859.01
1850.77
1851.2
1851.78
1852.25
1851.24
1851.64
1852.68
1855.14
1856.75
1858.01
1847.7
1848.62
1849.56
1850.05
1850.11
1851.02
1852.6
1853.55
1854.65
1856.05
1834.74
1846.37
1847.03
1847.69
1848.42
1849.2
1849.93
1850.61
1851.44
1849.65
1832.03
1844.79
1845.02
1845.48
1846.25
1847.11
1847.68
1847.92
1845.67
1728.05
1844.25
1843.47
1842.49
1841.72
1842.78
1844.94
1844.88
1825.93
1603.6
1416.62
1841.86
1839.55
1805.77
1668.52
1562.39
1522.93
1436.46
1170.92
1048.84
1425.51
1838.12
1745.16
1264.42
966.809
964.656
964.095
964.053
964.735
965.129
976.822
1819.24
1270.58
961.153
961.847
961.88
961.775
961.818
961.974
961.812
961.324
1847.43
1475.13
1031.67
995.357
1010.93
973.32
962.335
962.39
961.852
960.845
1858.02
1862.82
1871.89
1884.26
1775.83
1343.24
1138.79
1193.53
1416.57
1466.84
1858.96
1862.44
1866.73
1871.12
1872.32
1864.87
1857.15
1863.74
1882.13
1886.57
1856.08
1858.26
1860.6
1862.84
1864.73
1866.31
1867.79
1869.15
1870.17
1870.73
1851.56
1853.02
1854.17
1855.2
1856.02
1856.61
1857.03
1857.33
1857.48
1857.48
1846.74
1847.05
1847.35
1847.43
1847.28
1846.93
1846.42
1845.79
1845.09
1844.39
1841.57
1841.1
1840.45
1839.56
1838.49
1837.24
1835.73
1834.06
1832.32
1830.59
1836.11
1834.96
1833.5
1831.78
1829.77
1827.5
1824.84
1821.9
1818.94
1816.08
1828.4
1825.47
1824.63
1823.93
1821.47
1818.32
1814.68
1810.71
1806.56
1801.96
1825.54
1818.56
1797.1
1794.52
1795.35
1809.16
1806.72
1799.44
1770.55
1718.44
1819.53
1817.51
1814.28
1810.63
1807.61
1743.79
1561.24
1451.48
1303.48
1078.72
1767.75
1807.95
1810.63
1806.1
1800.51
1791.04
1289.55
717.781
634.13
603.843
1752.23
1756.76
1806.83
1806.14
1799.77
1579.27
765.185
593.174
592.766
592.651
1751.59
1788.46
1810.56
1805.23
1590.19
778.533
591.505
591.32
591.456
591.672
1812
1815.49
1810.89
1564.8
731.713
588.994
589.896
590.326
590.646
590.824
1822.29
1818.62
1528.89
680.025
584.728
586.652
588.128
589.077
589.805
590.28
1828
1660.03
676.815
572.082
574.914
578.134
582.525
591.197
595.742
590.526
1618.72
680.78
555.581
557.193
558.568
561.029
670.723
863.524
1010.27
897.936
689.38
548.578
549.679
550.954
551.595
552.444
555.45
868.117
1253.42
1226.52
543.758
544.966
546.23
547.635
548.957
549.495
552.541
1022.04
1269.21
1222.27
540.422
541.034
542.074
543.226
544.798
623.986
1190.66
1346.76
1237.37
975.933
535.53
536.313
537.454
538.847
852.522
1608.43
1599.71
1347.9
914.848
847.911
528.5
530.092
531.75
1078.09
1796.16
1773.69
1315.29
924.965
885.938
869.071
519.691
522.282
846.266
1774.14
1829.83
1550.57
962.108
925.965
906.322
1014.98
511.219
526.056
1516.6
1865.76
1839.59
1366.63
952.738
936.847
947.776
1593.09
502.635
1199.66
1864.44
1862.12
1813.03
1181.57
973.373
960.581
1563.11
1896.76
1021.76
1853.24
1869.91
1852.1
1333.48
1061.35
1042.99
1612.64
1904.22
1894.56
1867.71
1878.87
1874.64
1326.37
1132.04
1132.39
1694.82
1916.25
1903.98
1887.7
1887.45
1893.03
1352.66
1090.24
1150.84
1696.55
1930.64
1916.82
1898.39
1877.45
1908.79
1560.59
989.429
1068.84
1630.81
1942.2
1928.14
1908.67
1886.4
1861.99
1645.75
909.433
931.902
1548.6
1943.78
1932.52
1915.12
1893.89
1869.58
1843.14
794.725
825.455
1316.76
1939.23
1937.22
1921.54
1901.67
1878.16
1851.93
1824.18
588.621
835.928
1874.23
1947.62
1931.07
1911.23
1888.32
1862.54
1834.87
1806.46
561.26
1551.41
1951.37
1936.79
1919.27
1898.5
1874.38
1847.75
1819.82
1791.73
549.686
1813.96
1949.13
1929.98
1909.43
1886.97
1862.06
1835.48
1808.52
1782.41
987.327
1917.3
1929.55
1913.03
1894.37
1873.28
1849.74
1824.78
1799.64
1775.29
1155.26
1919.04
1913.49
1898.11
1880.97
1861.47
1839.69
1816.88
1794.42
1773.23
1273.22
1908.59
1899.3
1885.72
1870.51
1852.99
1833.11
1811.86
1790.07
1767.54
1357.12
1898.04
1889.74
1878.19
1865.34
1850.68
1834.22
1816.92
1799.89
1784.23
1407.95
1893.2
1884.95
1874.88
1864.15
1852.41
1839.67
1826.9
1815.86
1808.62
1442.1
1890.6
1882.46
1873.55
1864.5
1855.12
1845.38
1836.32
1830.03
1826.45
1465.06
1888.29
1880.51
1872.5
1864.48
1856.51
1848.56
1841.81
1837.88
1819.54
1481.81
1885.61
1878.63
1871.34
1863.85
1856.33
1848.76
1842.09
1836.06
1603.89
1491.23
1882.74
1877.31
1870.73
1863.73
1856.41
1848.7
1840.95
1831.46
1441.84
1489.29
1880.76
1876.83
1871.11
1865.03
1858.42
1851.03
1842.82
1832.17
1355.27
1470.54
1879.32
1877.3
1873.13
1868.75
1863.52
1857.03
1849.44
1839.65
1334.73
1456.4
1880.15
1881.52
1879.31
1876.59
1872.67
1867.18
1861.07
1852.5
1385.53
1512.3
1893.27
1893.93
1890.84
1887.98
1884.5
1879.81
1875.75
1868.07
1469.96
1629.68
1909.52
1907.05
1902.58
1899.36
1896.18
1892.1
1890.65
1882.66
1547.76
1703.85
1916.53
1915.39
1912.99
1910.61
1908.27
1905.21
1902.9
1896.43
1640.97
1749.36
1929.99
1926.8
1925.88
1923.34
1921.82
1920.98
1919.7
1918.53
1737.02
1838.46
1955.76
1938.86
1940.32
1936.19
1935.22
1938.26
1938.07
1954.5
1825.81
1821.57
1821.7
1821.81
1821.91
1821.99
1822.07
1822.15
1822.23
1822.32
1822.41
1822.52
1822.63
1822.75
1822.88
1823.02
1823.16
1823.3
1823.44
1823.58
1823.72
1823.84
1823.96
1824.06
1824.15
1824.22
1824.26
1824.28
1824.27
1824.24
1824.18
1824.1
1824
1823.91
1823.84
1823.81
1823.84
1823.95
1824.12
1824.26
1824.8
1820.19
1820.41
1820.62
1820.83
1821.03
1821.23
1821.43
1821.62
1821.82
1822.02
1822.22
1822.42
1822.63
1822.82
1823.02
1823.21
1823.38
1823.55
1823.71
1823.85
1823.97
1824.08
1824.16
1824.22
1824.25
1824.25
1824.23
1824.19
1824.11
1824.01
1823.9
1823.79
1823.69
1823.62
1823.61
1823.7
1823.88
1824.16
1824.53
1825.12
1819.03
1819.33
1819.63
1819.93
1820.23
1820.52
1820.82
1821.11
1821.4
1821.69
1821.97
1822.24
1822.51
1822.76
1823
1823.23
1823.44
1823.63
1823.8
1823.95
1824.08
1824.18
1824.26
1824.31
1824.33
1824.33
1824.3
1824.24
1824.16
1824.06
1823.95
1823.83
1823.73
1823.64
1823.6
1823.59
1823.64
1823.78
1824.14
1824.88
1818.28
1818.62
1818.97
1819.32
1819.67
1820.03
1820.38
1820.73
1821.08
1821.42
1821.76
1822.08
1822.39
1822.69
1822.97
1823.23
1823.46
1823.68
1823.88
1824.05
1824.19
1824.32
1824.41
1824.48
1824.52
1824.53
1824.52
1824.49
1824.43
1824.35
1824.25
1824.13
1824
1823.85
1823.68
1823.48
1823.23
1823.01
1823.08
1823.96
1817.81
1818.17
1818.55
1818.93
1819.31
1819.7
1820.08
1820.47
1820.85
1821.23
1821.6
1821.96
1822.31
1822.64
1822.95
1823.24
1823.51
1823.76
1823.99
1824.19
1824.37
1824.52
1824.65
1824.75
1824.83
1824.88
1824.91
1824.92
1824.91
1824.88
1824.82
1824.73
1824.61
1824.44
1824.18
1823.79
1823.24
1821.74
1815.34
1816.57
1817.54
1817.91
1818.29
1818.68
1819.08
1819.48
1819.88
1820.28
1820.69
1821.09
1821.49
1821.87
1822.25
1822.61
1822.95
1823.28
1823.59
1823.87
1824.14
1824.38
1824.59
1824.79
1824.96
1825.11
1825.24
1825.35
1825.45
1825.52
1825.59
1825.64
1825.69
1825.72
1825.74
1825.74
1825.71
1825.63
1825.38
1815.12
1807.21
1807.3
1817.44
1817.8
1818.17
1818.55
1818.94
1819.34
1819.74
1820.15
1820.56
1820.97
1821.39
1821.8
1822.2
1822.6
1822.98
1823.34
1823.69
1824.01
1824.32
1824.61
1824.87
1825.11
1825.34
1825.54
1825.73
1825.91
1826.07
1826.23
1826.38
1826.54
1826.7
1826.87
1827.07
1827.28
1827.53
1827.81
1827.57
1811.7
1806.01
1805.73
1817.47
1817.81
1818.16
1818.52
1818.88
1819.25
1819.64
1820.03
1820.43
1820.85
1821.27
1821.71
1822.14
1822.58
1823
1823.41
1823.8
1824.18
1824.53
1824.87
1825.18
1825.48
1825.76
1826.02
1826.27
1826.51
1826.75
1826.98
1827.21
1827.46
1827.72
1828.02
1828.35
1828.74
1829.21
1829.78
1830.44
1819.42
1804.89
1804.5
1817.62
1817.93
1818.24
1818.55
1818.87
1819.2
1819.53
1819.88
1820.26
1820.67
1821.1
1821.57
1822.04
1822.52
1823
1823.46
1823.91
1824.34
1824.76
1825.15
1825.52
1825.87
1826.21
1826.53
1826.83
1827.13
1827.42
1827.71
1828
1828.3
1828.61
1828.95
1829.32
1829.73
1830.19
1830.7
1831.25
1831.43
1818.4
1805.84
1817.89
1818.15
1818.41
1818.66
1818.91
1819.15
1819.4
1819.66
1819.97
1820.34
1820.79
1821.3
1821.85
1822.41
1822.96
1823.5
1824.02
1824.52
1824.99
1825.45
1825.88
1826.28
1826.67
1827.04
1827.4
1827.74
1828.07
1828.4
1828.72
1829.04
1829.37
1829.7
1830.04
1830.38
1830.72
1831.03
1831.26
1831.3
1830.74
1827.72
1818.3
1818.51
1818.69
1818.86
1819
1819.11
1819.2
1819.3
1819.41
1819.73
1820.25
1820.89
1821.55
1822.21
1822.85
1823.49
1824.1
1824.68
1825.24
1825.75
1826.24
1826.71
1827.15
1827.56
1827.96
1828.34
1828.71
1829.06
1829.4
1829.73
1830.05
1830.35
1830.65
1830.91
1831.14
1831.31
1831.37
1831.23
1830.83
1830.21
1818.89
1819.04
1819.14
1819.2
1819.21
1819.16
1818.93
1817.85
1818.29
1818.56
1819.3
1820.19
1821.03
1821.78
1822.54
1823.4
1824.2
1824.87
1825.5
1826.09
1826.64
1827.15
1827.64
1828.09
1828.53
1828.94
1829.33
1829.69
1830.04
1830.37
1830.68
1830.96
1831.2
1831.41
1831.55
1831.61
1831.56
1831.33
1830.89
1830.32
1819.7
1819.81
1819.85
1819.81
1819.68
1819.48
1819.02
1806.18
1797.89
1814.86
1817.62
1818.89
1818.88
1820.65
1822.6
1823.48
1824.35
1825.12
1825.82
1826.47
1827.07
1827.63
1828.15
1828.64
1829.1
1829.54
1829.94
1830.32
1830.68
1831
1831.29
1831.55
1831.76
1831.92
1832.01
1832.01
1831.9
1831.61
1831.16
1830.63
1820.81
1820.93
1820.98
1820.92
1820.74
1820.53
1820.34
1792.24
1715.28
1794.9
1809.61
1812.58
1818.66
1821.21
1822.63
1823.69
1824.63
1825.47
1826.23
1826.92
1827.56
1828.16
1828.71
1829.23
1829.71
1830.16
1830.57
1830.96
1831.32
1831.64
1831.92
1832.16
1832.35
1832.48
1832.54
1832.51
1832.37
1832.07
1831.63
1831.13
1822.25
1822.43
1822.53
1822.51
1822.36
1822.12
1821.59
1778.91
1622.73
1711.31
1803.44
1808.09
1820.34
1822.2
1823.32
1824.32
1825.22
1826.04
1826.8
1827.5
1828.15
1828.74
1829.31
1829.85
1830.34
1830.8
1831.23
1831.62
1831.98
1832.3
1832.58
1832.81
1832.99
1833.1
1833.15
1833.11
1832.96
1832.67
1832.25
1831.78
1824.01
1824.34
1824.59
1824.75
1824.8
1824.68
1823.78
1768.6
1588.21
1586.25
1776.74
1815.88
1821.18
1823.83
1824.54
1825.29
1826.04
1826.79
1827.51
1828.19
1828.83
1829.35
1829.9
1830.5
1831.03
1831.49
1831.92
1832.31
1832.67
1832.99
1833.27
1833.5
1833.67
1833.79
1833.84
1833.8
1833.66
1833.39
1833
1832.57
1826.09
1826.67
1827.26
1827.85
1828.48
1829.15
1829.72
1824.44
1638.28
1565.15
1591.75
1772.17
1824.28
1824.51
1825.23
1825.99
1826.75
1827.56
1828.27
1828.95
1829.59
1830.1
1830.63
1831.15
1831.76
1832.22
1832.65
1833.05
1833.4
1833.73
1834.01
1834.24
1834.42
1834.55
1834.61
1834.58
1834.47
1834.23
1833.88
1833.49
1828.26
1829.11
1830.05
1831.12
1832.39
1833.97
1836.04
1838.77
1781.49
1547.59
1545.53
1584.72
1799.69
1824.56
1825.53
1826.6
1827.5
1828.32
1829.11
1829.8
1830.43
1831
1831.5
1831.98
1832.54
1833.01
1833.44
1833.83
1834.19
1834.52
1834.81
1835.06
1835.25
1835.39
1835.46
1835.46
1835.38
1835.18
1834.88
1834.55
1830.24
1831.24
1832.32
1833.53
1834.89
1836.46
1838.31
1840.52
1843.25
1719.54
1535.32
1532.66
1627.26
1818.42
1825.32
1827.04
1828.29
1829.26
1830.08
1830.75
1831.34
1831.93
1832.45
1832.94
1833.41
1833.87
1834.29
1834.69
1835.05
1835.38
1835.68
1835.95
1836.16
1836.32
1836.41
1836.45
1836.4
1836.26
1836.02
1835.75
1832.04
1833.13
1834.29
1835.56
1836.94
1838.46
1840.14
1841.92
1843.92
1846.93
1701.45
1520.07
1518.03
1618.69
1817.92
1829.13
1830.07
1830.81
1831.47
1832.01
1832.5
1832.96
1832.86
1833.4
1834.35
1834.79
1835.21
1835.6
1835.95
1836.33
1836.65
1836.93
1837.17
1837.35
1837.48
1837.55
1837.56
1837.46
1837.28
1837.08
1833.67
1834.79
1835.97
1837.22
1838.54
1839.94
1841.43
1842.95
1844.43
1846.06
1848.95
1731.32
1516.66
1514.58
1564.9
1790.68
1833.85
1833.32
1833.29
1833.51
1833.81
1834.15
1833.23
1833.58
1834.1
1835.49
1836.21
1836.59
1836.9
1837.35
1837.72
1838.03
1838.3
1838.51
1838.68
1838.8
1838.84
1838.81
1838.69
1838.55
1835.14
1836.28
1837.45
1838.66
1839.89
1841.16
1842.45
1843.73
1844.96
1846.04
1847.15
1849.27
1790.28
1527.01
1524.11
1526.83
1729.72
1836.5
1835.03
1834.82
1834.99
1835.25
1834.86
1834.53
1834.94
1835.34
1836.13
1837.52
1838
1838.52
1838.91
1839.25
1839.56
1839.82
1840.03
1840.19
1840.28
1840.3
1840.24
1840.15
1836.52
1837.67
1838.83
1839.99
1841.15
1842.29
1843.42
1844.5
1845.5
1846.36
1847
1847.43
1848.06
1834.07
1569.16
1521.41
1517.37
1662.42
1835.03
1835.53
1835.75
1836.12
1836.47
1836.6
1836.8
1836.37
1836.87
1837.44
1838.93
1839.8
1840.23
1840.63
1840.98
1841.28
1841.54
1841.74
1841.88
1841.94
1841.94
1841.89
1837.87
1839.04
1840.19
1841.31
1842.42
1843.48
1844.5
1845.46
1846.35
1847.12
1847.75
1848.16
1848.25
1848.11
1848.38
1650.99
1512.5
1512.2
1615.76
1828.16
1835.57
1836.49
1837.24
1837.5
1838.04
1838.6
1838.47
1838.68
1839.49
1841.12
1841.7
1842.16
1842.57
1842.92
1843.23
1843.47
1843.64
1843.75
1843.78
1843.77
1839.25
1840.44
1841.59
1842.7
1843.77
1844.79
1845.75
1846.65
1847.48
1848.24
1848.91
1849.48
1849.9
1850.1
1850.31
1852.03
1724.41
1505.48
1504.31
1590.78
1824.63
1837.56
1838.4
1837.85
1839.13
1839.77
1840.43
1840.06
1841.05
1842.7
1843.35
1843.88
1844.35
1844.76
1845.1
1845.38
1845.6
1845.73
1845.77
1845.77
1840.73
1841.95
1843.11
1844.2
1845.24
1846.22
1847.15
1848.01
1848.81
1849.55
1850.23
1850.87
1851.47
1852.01
1852.51
1853.29
1855.36
1756.02
1498.34
1496.4
1574.02
1821.32
1840.13
1841.02
1830.06
1831.7
1840.8
1842.69
1843.46
1844.45
1845.18
1845.79
1846.32
1846.79
1847.18
1847.5
1847.73
1847.87
1847.92
1847.91
1842.41
1843.65
1844.79
1845.86
1846.86
1847.8
1848.68
1849.51
1850.28
1851
1851.68
1852.32
1852.94
1853.56
1854.19
1854.84
1855.66
1857.24
1755.27
1489.37
1487.81
1577.59
1828.28
1844.37
1820.04
1775.06
1819.09
1844.83
1845.66
1846.47
1847.23
1847.91
1848.5
1849.02
1849.45
1849.8
1850.05
1850.2
1850.23
1850.18
1844.39
1845.59
1846.68
1847.69
1848.64
1849.52
1850.35
1851.13
1851.86
1852.55
1853.19
1853.8
1854.38
1854.95
1855.53
1856.11
1856.67
1857.32
1858.64
1720.77
1477.21
1477.81
1615.43
1842.04
1826.11
1770.07
1770.53
1835.99
1847.63
1848.57
1849.44
1850.21
1850.88
1851.45
1851.93
1852.3
1852.56
1852.69
1852.69
1852.33
1846.84
1847.86
1848.82
1849.72
1850.58
1851.39
1852.15
1852.87
1853.55
1854.19
1854.78
1855.32
1855.8
1856.21
1856.54
1856.73
1856.7
1856.3
1855.42
1854.08
1628.47
1470.64
1465.37
1705.25
1834.71
1779.76
1721.37
1808.11
1850.29
1851.08
1851.94
1852.75
1853.47
1854.08
1854.6
1854.99
1855.26
1855.38
1855.33
1854.02
1849.45
1850.28
1851.08
1851.86
1852.61
1853.34
1854.05
1854.72
1855.36
1855.97
1856.54
1857.07
1857.54
1857.96
1858.3
1858.57
1858.72
1858.72
1858.45
1857.92
1857.98
1531.37
1458.39
1486.96
1785.26
1790.82
1711.79
1711.15
1834.05
1853.47
1854.48
1855.39
1856.19
1856.88
1857.44
1857.87
1858.14
1858.25
1858.14
1856.74
1852.08
1852.71
1853.36
1854.02
1854.69
1855.35
1856
1856.64
1857.26
1857.86
1858.43
1858.97
1859.47
1859.92
1860.33
1860.69
1861
1861.29
1861.57
1861.86
1862.53
1806.12
1473.65
1418.01
1648.33
1791.72
1724.95
1658.7
1722.57
1851.42
1857.04
1858.12
1859.06
1859.84
1860.47
1860.93
1861.23
1861.32
1861.17
1859.66
1854.55
1855.02
1855.55
1856.12
1856.72
1857.33
1857.96
1858.59
1859.21
1859.83
1860.42
1860.99
1861.52
1862.02
1862.47
1862.86
1863.18
1863.41
1863.54
1863.49
1863.23
1862.88
1689.61
1402.65
1394.35
1701.65
1725.54
1650.36
1649.25
1785.98
1860.43
1861.44
1862.35
1863.14
1863.79
1864.27
1864.56
1864.63
1864.43
1862.84
1856.67
1857.06
1857.52
1858.05
1858.63
1859.25
1859.88
1860.54
1861.19
1861.85
1862.5
1863.14
1863.75
1864.34
1864.89
1865.41
1865.88
1866.29
1866.65
1866.92
1867.04
1867.06
1867.55
1495.26
1365.88
1425.24
1674.99
1670.51
1644.78
1647.53
1840.14
1864.53
1865.73
1866.63
1867.34
1867.86
1868.16
1868.21
1867.99
1866.31
1858.34
1858.74
1859.22
1859.77
1860.38
1861.04
1861.73
1862.44
1863.17
1863.91
1864.65
1865.38
1866.11
1866.82
1867.51
1868.19
1868.85
1869.52
1870.21
1870.97
1871.83
1872.92
1874.77
1695.36
1352.9
1334.97
1619.36
1666.41
1654.21
1641.87
1699.24
1854.35
1869.16
1870.3
1871.11
1871.68
1872
1872.05
1871.83
1870.93
1859.59
1860.06
1860.62
1861.25
1861.94
1862.68
1863.46
1864.27
1865.11
1865.96
1866.81
1867.67
1868.53
1869.37
1870.2
1871.01
1871.8
1872.57
1873.32
1874.06
1874.78
1875.51
1876.43
1876.47
1401.45
1320.28
1444.18
1667.19
1667.9
1644.47
1630.04
1750.26
1869.5
1874.45
1875.25
1875.8
1876.11
1876.16
1875.97
1875.53
1860.42
1861.04
1861.72
1862.48
1863.3
1864.16
1865.07
1866.02
1866.99
1867.99
1869
1870.01
1871.02
1872.03
1873.02
1873.99
1874.92
1875.8
1876.61
1877.31
1877.86
1878.16
1877.94
1876.36
1568.82
1304.22
1284.51
1607.96
1666.82
1668.63
1630.3
1661.45
1871.41
1878.47
1879.45
1880.06
1880.41
1880.51
1880.43
1880.2
1860.63
1861.71
1862.55
1863.47
1864.45
1865.48
1866.56
1867.67
1868.82
1869.99
1871.18
1872.38
1873.58
1874.79
1875.99
1877.18
1878.35
1879.48
1880.57
1881.6
1882.56
1883.45
1884.22
1884.51
1756.93
1302.49
1259.42
1343.15
1630.02
1666.57
1632.93
1726.69
1877.87
1883.6
1884.32
1884.77
1885.04
1885.19
1885.28
1885.16
1860.67
1862.08
1863.12
1864.23
1865.4
1866.63
1867.9
1869.22
1870.56
1871.94
1873.34
1874.75
1876.18
1877.62
1879.06
1880.51
1881.94
1883.36
1884.75
1886.09
1887.37
1888.62
1889.9
1890.71
1853.26
1321.65
1244.21
1241.23
1353.9
1475.33
1652.51
1850.81
1886.99
1889.28
1889.68
1889.87
1890.04
1890.26
1890.59
1890.12
1860.88
1862.15
1863.41
1864.75
1866.15
1867.61
1869.11
1870.65
1872.22
1873.83
1875.46
1877.11
1878.79
1880.48
1882.19
1883.92
1885.66
1887.42
1889.18
1890.96
1892.74
1894.62
1896.72
1898.39
1832.03
1325.13
1233.96
1232.99
1233.09
1245.75
1583.75
1891.74
1895.91
1895.52
1895.42
1895.36
1895.43
1895.73
1896.28
1895.04
1860.47
1861.9
1863.43
1865.04
1866.69
1868.41
1870.17
1871.96
1873.78
1875.63
1877.51
1879.42
1881.36
1883.32
1885.3
1887.32
1889.37
1891.47
1893.61
1895.81
1898.07
1900.5
1903.25
1905.68
1821.43
1329.83
1227.17
1226.76
1226.75
1227.88
1478.43
1887.42
1903.17
1902.1
1901.41
1901.13
1901.12
1901.47
1902.19
1900.9
1859.51
1861.29
1863.11
1864.94
1867.05
1869.05
1871.08
1873.14
1875.23
1877.35
1879.49
1881.66
1883.85
1886.08
1888.33
1890.63
1892.98
1895.38
1897.87
1900.46
1903.17
1906.11
1909.51
1912.99
1852.54
1364.69
1221.09
1220.8
1221.14
1222.12
1508.39
1900.58
1909.8
1908.45
1907.56
1907.11
1907.03
1907.37
1908.14
1906.84
1857.84
1859.49
1860.69
1864.72
1867.23
1869.54
1871.87
1874.21
1876.58
1878.97
1881.38
1883.81
1886.26
1888.74
1891.24
1893.78
1896.37
1899.03
1901.77
1904.64
1907.67
1910.97
1914.84
1919.3
1897.95
1445.88
1215.15
1214.77
1215.31
1262.26
1751.46
1916.83
1915.83
1914.52
1913.67
1913.2
1913.07
1913.34
1914.01
1912.54
1828.98
1819.61
1857.72
1864.62
1867.26
1869.91
1872.53
1875.16
1877.81
1880.48
1883.17
1885.87
1888.57
1891.28
1894.01
1896.75
1899.52
1902.32
1905.18
1908.12
1911.18
1914.43
1918.1
1922.46
1926.55
1700.58
1227.39
1208.6
1248.51
1704.44
1920.58
1922.28
1921.12
1920.26
1919.66
1919.29
1919.18
1919.34
1919.76
1917.56
1618.61
1785.38
1861.15
1864.15
1867.27
1870.24
1873.11
1875.99
1878.92
1881.89
1884.87
1887.83
1890.8
1893.74
1896.67
1899.57
1902.45
1905.31
1908.12
1910.89
1913.59
1916.18
1918.68
1921.07
1922.78
1895.04
1539.42
1372.43
1783.46
1924.35
1925.03
1925.4
1925.54
1925.51
1925.38
1925.28
1925.25
1925.29
1925.41
1921.83
1600.15
1854.59
1860.6
1864.24
1867.61
1870.63
1873.55
1876.59
1879.81
1883.06
1886.22
1889.74
1892.99
1896.18
1899.31
1902.39
1905.41
1908.34
1911.17
1913.86
1916.38
1918.66
1920.66
1922.27
1923.09
1908.62
1823.75
1817.81
1916.04
1927.31
1929.16
1930.17
1930.75
1931.06
1931.2
1931.25
1931.25
1931.16
1930.74
1926.64
1847.94
1856.79
1861.36
1865.06
1868.2
1870.93
1873.42
1875.74
1876.65
1877.6
1887.72
1891.68
1895.17
1898.62
1901.99
1905.28
1908.47
1911.54
1914.47
1917.21
1919.74
1922.02
1924.02
1925.7
1926.66
1901.18
1719.24
1718.04
1930.95
1933.33
1934.69
1935.58
1936.22
1936.65
1936.94
1937.09
1937.1
1936.91
1935.75
1931.81
1407.49
1834.68
1866.73
1869.48
1870.85
1871.78
1872.19
1850.67
1820.74
1871.13
1889.92
1893.63
1897.36
1901.08
1904.71
1908.24
1911.66
1914.93
1918.01
1920.89
1923.52
1925.89
1928.02
1929.88
1930.54
1821.29
1629.75
1690.37
1938.31
1939.66
1940.46
1941.11
1941.67
1942.15
1942.5
1942.74
1942.78
1942.57
1941.08
1937.15
961.62
1048.84
1608.68
1856.5
1871.34
1855.58
1759.3
1708.31
1807.3
1888.24
1891.76
1895.34
1899.34
1903.39
1907.32
1911.16
1914.89
1918.45
1921.79
1924.88
1927.71
1930.27
1932.63
1934.74
1933.71
1743.98
1626.72
1649.8
1940.14
1945.51
1945.96
1946.44
1946.94
1947.43
1947.85
1948.18
1948.3
1948.18
1946.8
1942.72
959.469
958.193
972.452
1351.47
1621.69
1542.27
1364.63
1490.19
1870.57
1888.43
1878.63
1873.13
1898.72
1906.03
1910.08
1914.07
1918.09
1921.99
1925.62
1928.99
1932.04
1934.77
1937.19
1939.3
1940.71
1846.15
1626.83
1627.42
1891.28
1950.31
1950.8
1951.34
1951.89
1952.46
1953.01
1953.46
1953.75
1953.8
1952.95
1948.61
1394.73
1344.45
1334.49
1325.14
1330.62
1335.56
1343.67
1432.85
1735.47
1815.73
1718.9
1720.22
1779.4
1823.97
1852.02
1884.98
1908.97
1923.47
1930.01
1933.44
1936.68
1939.68
1942.45
1944.97
1947.24
1943.1
1722.55
1628.48
1744.06
1953.71
1954.71
1955.68
1956.52
1957.28
1958.02
1958.67
1959.19
1959.52
1959.38
1954.89
1884.23
1882.86
1854.92
1697.61
1614.47
1763.63
1842.65
1836.75
1727.14
1710.82
1715.31
1719.85
1724.5
1729.63
1734.82
1739.29
1791.45
1829.84
1873.54
1921.92
1937.46
1944.76
1947.48
1950.14
1952.69
1955.31
1933.01
1627.39
1645.04
1892.56
1958.91
1960.12
1961.22
1962.19
1963.1
1963.96
1964.77
1965.47
1965.95
1963.74
1870.94
1871.06
1871.34
1871.59
1872.19
1874.51
1878.63
1883.4
1888.39
1886.74
1858.55
1844.08
1834.26
1818.05
1797.76
1779.31
1775.03
1779.53
1783.43
1790.03
1827.13
1875.61
1935.7
1954.22
1957.11
1958.99
1960.89
1810.82
1646.88
1724.38
1951.96
1965.86
1966.59
1967.49
1968.46
1969.49
1970.6
1971.75
1972.79
1973.63
1857.43
1857.62
1858.31
1859.7
1862.08
1865.85
1871.02
1877.06
1883.53
1890.34
1897.39
1904.59
1911.81
1918.97
1926.03
1927.6
1900.69
1871.26
1828.38
1779.24
1775
1777.62
1788.79
1857.46
1940.38
1964.32
1966.21
1969.07
1734.86
1675.43
1826.2
1969.76
1970.95
1972.25
1973.58
1974.99
1976.55
1978.28
1980.03
1981.55
1843.77
1843.53
1843.98
1845.48
1848.53
1853.77
1861.19
1869.73
1878.41
1887.05
1895.68
1904.12
1912.27
1920.02
1927.25
1933.85
1939.88
1945.57
1951.18
1956.66
1915.63
1830.17
1762.2
1764.98
1764.42
1882.08
1964.04
1973.46
1970.09
1687.27
1712.58
1920.83
1976.11
1977.31
1978.88
1980.64
1982.66
1985.06
1987.64
1989.95
1828.93
1827.67
1827.15
1827.32
1828.9
1835.75
1849.5
1861.47
1874.08
1884.29
1894.28
1904.45
1913.79
1922.46
1930.39
1937.54
1943.91
1949.55
1954.5
1958.74
1962.59
1966.77
1969.5
1854.93
1754.84
1754.21
1788.7
1954.38
1971.31
1913.49
1719.51
1782.08
1959.46
1982.93
1984.31
1986.3
1988.79
1991.92
1995.45
1998.65
1813
1809.95
1806.59
1801.97
1785.48
1685.46
1651.64
1817.74
1873.28
1884.31
1895.01
1906.09
1916.26
1925.54
1933.94
1941.46
1948.11
1953.94
1958.97
1963.24
1966.8
1969.73
1972.12
1974.92
1978.74
1833.59
1738.8
1737.87
1912.52
1957.36
1852.87
1754.14
1856.14
1985.33
1988.46
1991.09
1994.36
1998.44
2003.11
2007.34
1796.02
1788.29
1738.96
1618.76
1278.63
970.901
1251.24
1757.89
1853.9
1886.19
1897.65
1909.24
1919.81
1929.36
1937.91
1945.49
1952.12
1957.88
1962.81
1966.99
1970.47
1973.33
1975.58
1977.28
1978.56
1980.42
1983.92
1734.49
1692.72
1758.26
1853.45
1745.58
1800.77
1961.16
1992.41
1995.31
1999.28
2004.38
2010.34
2015.73
1604.18
1402.3
1166.13
888.199
681.78
672.063
1129.2
1655.43
1844.26
1888.27
1902.53
1913.77
1924.23
1933.65
1941.99
1949.31
1955.69
1961.17
1965.82
1969.71
1972.93
1975.55
1977.64
1979.22
1980.28
1980.8
1981.16
1983.33
1854.76
1765.29
1826.96
1741.96
1741.53
1897.67
1995.75
1998.42
2003.05
2009.25
2016.61
2023.3
856.74
696.119
617.803
603.47
606.688
619.88
878.444
1557.28
1882.55
1904.42
1911.83
1920.53
1929.69
1938.14
1945.7
1952.4
1958.25
1963.28
1967.53
1971.06
1973.97
1976.32
1978.21
1979.73
1980.93
1981.86
1982.56
1983.47
1985.62
1982.21
1848.54
1736.75
1739.46
1754.88
1973.86
1999.79
2005.01
2012.46
2021.33
2029.34
595.157
595.444
596.237
596.869
598.464
603.017
725.109
1529.17
1902.8
1915.63
1919.07
1925.67
1933.52
1940.96
1947.69
1953.71
1958.98
1963.5
1967.3
1970.44
1972.99
1975.05
1976.69
1978.01
1979.1
1980.05
1980.95
1981.86
1982.8
1983.81
1986.47
1819.82
1734.93
1737.37
1861.34
1999.21
2005.06
2013.61
2023.95
2033.21
592.817
593.295
593.97
594.611
595.535
596.961
1117.65
1806.24
1909.74
1915.78
1920.07
1926.87
1934.14
1940.91
1947.04
1952.5
1957.24
1961.26
1964.61
1967.34
1969.54
1971.27
1972.65
1973.76
1974.68
1975.52
1976.36
1977.28
1978.26
1979.2
1980.65
1985.41
1751.84
1730.74
1731.91
1962.06
2002.33
2011.88
2023.74
2034.22
591.894
592.108
592.311
592.502
594.269
777.004
1642.01
1891.93
1905.78
1911.34
1917.8
1924.98
1931.83
1938.07
1943.67
1948.58
1952.78
1956.29
1959.16
1961.45
1963.24
1964.63
1965.72
1966.58
1967.32
1968
1968.73
1969.58
1970.61
1971.76
1973.15
1976.25
1892.34
1720.94
1726.5
1875.78
1996.81
2007.08
2020.28
2031.92
590.877
590.821
590.907
591.194
591.359
1330.41
1873.95
1895.05
1901.61
1907.72
1914.55
1921.2
1927.32
1932.85
1937.76
1941.99
1945.54
1948.44
1950.74
1952.52
1953.87
1954.87
1955.63
1956.23
1956.75
1957.29
1957.92
1958.73
1959.79
1961.13
1962.68
1964.97
1970.76
1762.92
1714.68
1785.99
1981.96
1999.66
2013.58
2026.03
590.181
589.483
589.243
590.753
884.069
1761.48
1883.56
1892.24
1897.63
1903.68
1909.77
1915.46
1920.65
1925.28
1929.29
1932.67
1935.43
1937.58
1939.21
1940.39
1941.22
1941.78
1942.17
1942.47
1942.77
1943.12
1943.62
1944.35
1945.42
1946.84
1948.53
1950.6
1954.78
1832.53
1699.83
1712.49
1950.83
1988.58
2002.94
2015.99
587.726