/*--------------------------------*- C++ -*----------------------------------*\
  =========                 |
  \\      /  F ield         | OpenFOAM: The Open Source CFD Toolbox
   \\    /   O peration     | Website:  https://openfoam.org
    \\  /    A nd           | Version:  8
     \\/     M anipulation  |
\*---------------------------------------------------------------------------*/
FoamFile
{
    version     2.0;
    format      ascii;
    class       surfaceScalarField;
    location    "2.25";
    object      phi;
}
// * * * * * * * * * * * * * * * * * * * * * * * * * * * * * * * * * * * * * //

dimensions      [0 3 -1 0 0 0 0];

internalField   nonuniform List<scalar> 
18095
(
1.57965e-07
-9.65458e-07
8.07493e-07
1.65161e-07
-1.24831e-06
1.24111e-06
1.22112e-07
-1.24229e-06
1.28533e-06
6.53123e-08
-1.26344e-06
1.32024e-06
3.60149e-11
-1.28045e-06
1.34573e-06
-6.52466e-08
-1.28046e-06
1.34574e-06
-1.22062e-07
-1.26346e-06
1.32028e-06
-1.65134e-07
-1.24231e-06
1.28538e-06
-1.57958e-07
-1.24834e-06
1.24116e-06
-9.65491e-07
8.07533e-07
1.1098e-07
-1.07644e-06
9.93396e-08
-1.23667e-06
7.28189e-08
-1.21576e-06
4.00349e-08
-1.23066e-06
2.73665e-11
-1.24044e-06
-3.99842e-08
-1.24045e-06
-7.27785e-08
-1.23067e-06
-9.93125e-08
-1.21578e-06
-1.1097e-07
-1.23668e-06
-1.07646e-06
6.71915e-08
-1.14363e-06
5.27485e-08
-1.22222e-06
4.2115e-08
-1.20513e-06
2.38615e-08
-1.2124e-06
1.81067e-11
-1.2166e-06
-2.38276e-08
-1.2166e-06
-4.20875e-08
-1.21241e-06
-5.27284e-08
-1.20514e-06
-6.71805e-08
-1.22223e-06
-1.14364e-06
3.973e-08
-1.18336e-06
2.66507e-08
-1.20915e-06
2.20104e-08
-1.20049e-06
1.25322e-08
-1.20293e-06
9.66442e-12
-1.20408e-06
-1.2514e-08
-1.20408e-06
-2.19956e-08
-1.20293e-06
-2.66397e-08
-1.20049e-06
-3.97217e-08
-1.20914e-06
-1.18336e-06
1.66405e-08
7.49528e-09
7.00413e-09
4.07892e-09
3.2657e-12
-4.07276e-09
-6.99924e-09
-7.49193e-09
-1.66368e-08
-1.73801e-07
-1.16441e-06
1.33821e-06
-2.17192e-07
-1.21571e-06
1.2591e-06
-1.63912e-07
-1.21248e-06
1.1592e-06
-8.65633e-08
-1.20412e-06
1.12677e-06
2.97006e-10
-1.20281e-06
1.11595e-06
8.71455e-08
-1.20286e-06
1.11601e-06
1.6444e-07
-1.20426e-06
1.12696e-06
2.17663e-07
-1.21269e-06
1.15946e-06
1.74205e-07
-1.21597e-06
1.25943e-06
-1.16469e-06
1.3389e-06
-9.31679e-08
-1.07124e-06
-9.53534e-08
-1.21353e-06
-7.88047e-08
-1.22903e-06
-4.38863e-08
-1.23904e-06
1.65114e-10
-1.24686e-06
4.42037e-08
-1.2469e-06
7.9086e-08
-1.23914e-06
9.55785e-08
-1.22918e-06
9.32998e-08
-1.21369e-06
-1.0714e-06
-5.78332e-08
-1.01341e-06
-5.50816e-08
-1.21628e-06
-4.63614e-08
-1.23775e-06
-2.6976e-08
-1.25842e-06
9.92651e-11
-1.27394e-06
2.71649e-08
-1.27396e-06
4.65218e-08
-1.25849e-06
5.51976e-08
-1.23786e-06
5.78918e-08
-1.21639e-06
-1.0135e-06
-7.4796e-08
-9.38611e-07
-6.19995e-08
-1.22907e-06
-4.85414e-08
-1.25121e-06
-2.77015e-08
-1.27926e-06
6.40285e-11
-1.3017e-06
2.78225e-08
-1.30172e-06
4.8641e-08
-1.27931e-06
6.2066e-08
-1.25128e-06
7.48281e-08
-1.22915e-06
-9.38675e-07
-1.31119e-07
-1.19082e-07
-8.49563e-08
-4.39764e-08
4.63645e-11
4.40636e-08
8.50281e-08
1.1913e-07
1.31142e-07
-3.12589e-08
-9.25038e-07
9.56297e-07
1.07556e-08
-1.34079e-06
1.29878e-06
1.44034e-08
-1.27588e-06
1.27223e-06
8.41776e-09
-1.22766e-06
1.23365e-06
3.14805e-09
-1.22483e-06
1.2301e-06
-2.0856e-09
-1.2253e-06
1.23053e-06
-9.0561e-09
-1.22781e-06
1.23478e-06
-3.65602e-09
-1.27539e-06
1.26999e-06
4.4565e-08
-1.34283e-06
1.29461e-06
-9.3447e-07
9.79035e-07
1.63636e-08
-9.41401e-07
2.40225e-08
-1.34845e-06
1.58455e-08
-1.2677e-06
9.03921e-09
-1.22086e-06
2.3486e-09
-1.21814e-06
-4.35279e-09
-1.2186e-06
-1.15517e-08
-1.22061e-06
-1.82912e-08
-1.26865e-06
-1.17733e-08
-1.34935e-06
-9.46243e-07
3.00547e-08
-9.71456e-07
2.11045e-08
-1.3395e-06
1.36298e-08
-1.26022e-06
8.1632e-09
-1.21539e-06
1.36468e-09
-1.21134e-06
-5.79121e-09
-1.21144e-06
-1.09314e-08
-1.21547e-06
-1.88489e-08
-1.26073e-06
-2.79008e-08
-1.34029e-06
-9.74144e-07
8.10508e-08
-1.05251e-06
5.25879e-08
-1.31104e-06
3.38159e-08
-1.24145e-06
2.16316e-08
-1.20321e-06
8.13993e-10
-1.19052e-06
-2.00376e-08
-1.19059e-06
-3.20094e-08
-1.2035e-06
-5.08495e-08
-1.24189e-06
-7.97155e-08
-1.31143e-06
-1.05386e-06
2.85702e-07
2.33764e-07
1.51515e-07
7.50754e-08
5.04164e-10
-7.40727e-08
-1.50614e-07
-2.3304e-07
-2.85039e-07
-7.68385e-08
-7.16286e-09
8.40013e-08
-6.94652e-08
-7.3737e-09
-6.19463e-08
-7.5189e-09
-5.43458e-08
-7.60048e-09
-4.6728e-08
-7.61779e-09
-3.91564e-08
-7.57163e-09
-3.16931e-08
-7.46326e-09
-2.43987e-08
-7.29445e-09
-1.73305e-08
-7.06817e-09
-6.78413e-09
-1.05464e-08
-7.1625e-08
-1.28299e-08
7.72919e-08
-6.57644e-08
-1.32345e-08
-5.97626e-08
-1.35207e-08
-5.36751e-08
-1.36879e-08
-4.75566e-08
-1.37362e-08
-4.14614e-08
-1.36669e-08
-3.54423e-08
-1.34824e-08
-2.95506e-08
-1.31861e-08
-2.38361e-08
-1.27827e-08
-1.22771e-08
-1.83431e-08
-6.69472e-08
-1.75087e-08
7.16259e-08
-6.20917e-08
-1.80901e-08
-5.71045e-08
-1.85079e-08
-5.20327e-08
-1.87597e-08
-4.69233e-08
-1.88457e-08
-4.18228e-08
-1.87674e-08
-3.67771e-08
-1.85282e-08
-3.18302e-08
-1.8133e-08
-2.70246e-08
-1.75883e-08
-1.6903e-08
-2.23987e-08
-6.29916e-08
-2.14585e-08
6.69414e-08
-5.88765e-08
-2.22052e-08
-5.46365e-08
-2.27479e-08
-5.03129e-08
-2.30834e-08
-4.59472e-08
-2.32114e-08
-4.15808e-08
-2.31338e-08
-3.72544e-08
-2.28545e-08
-3.30078e-08
-2.23795e-08
-2.88791e-08
-2.1717e-08
-2.08782e-08
-2.49039e-08
-5.95934e-08
-2.48477e-08
6.29827e-08
-5.6047e-08
-2.57518e-08
-5.23797e-08
-2.64152e-08
-4.8629e-08
-2.68341e-08
-4.48328e-08
-2.70077e-08
-4.10291e-08
-2.69376e-08
-3.72555e-08
-2.6628e-08
-3.35493e-08
-2.60856e-08
-2.99466e-08
-2.53197e-08
-2.43432e-08
-2.64817e-08
-5.66874e-08
-2.78054e-08
5.9645e-08
-5.35777e-08
-2.88616e-08
-5.03495e-08
-2.96435e-08
-4.70372e-08
-3.01464e-08
-4.36761e-08
-3.03688e-08
-4.03019e-08
-3.03118e-08
-3.69505e-08
-2.99794e-08
-3.3658e-08
-2.93781e-08
-3.04597e-08
-2.85179e-08
-2.74127e-08
-2.73902e-08
-5.42339e-08
-3.04346e-08
5.6863e-08
-5.14556e-08
-3.16401e-08
-4.8559e-08
-3.25402e-08
-4.55764e-08
-3.31291e-08
-4.25407e-08
-3.34045e-08
-3.9486e-08
-3.33665e-08
-3.64473e-08
-3.30182e-08
-3.34599e-08
-3.23655e-08
-3.056e-08
-3.14179e-08
-3.01894e-08
-2.77834e-08
-5.22001e-08
-3.2817e-08
5.45825e-08
-4.96694e-08
-3.41709e-08
-4.70188e-08
-3.51908e-08
-4.42781e-08
-3.58699e-08
-4.14781e-08
-3.62045e-08
-3.86512e-08
-3.61934e-08
-3.58313e-08
-3.5838e-08
-3.3054e-08
-3.51429e-08
-3.03561e-08
-3.41159e-08
-3.27696e-08
-2.77759e-08
-5.05524e-08
-3.50141e-08
5.27494e-08
-4.82066e-08
-3.65168e-08
-4.57373e-08
-3.76601e-08
-4.31713e-08
-3.8436e-08
-4.05366e-08
-3.88392e-08
-3.78636e-08
-3.88665e-08
-3.51845e-08
-3.85172e-08
-3.25343e-08
-3.77931e-08
-2.99509e-08
-3.66993e-08
-3.52457e-08
-2.74749e-08
-4.92511e-08
-3.70646e-08
5.13016e-08
-4.70502e-08
-3.87177e-08
-4.47205e-08
-3.99899e-08
-4.22846e-08
-4.08719e-08
-3.9767e-08
-4.13568e-08
-3.71944e-08
-4.14391e-08
-3.45965e-08
-4.1115e-08
-3.20065e-08
-4.03831e-08
-2.94618e-08
-3.9244e-08
-3.7703e-08
-2.70045e-08
-4.8247e-08
-3.89821e-08
5.01645e-08
-4.61769e-08
-4.07878e-08
-4.39706e-08
-4.21961e-08
-4.16461e-08
-4.31964e-08
-3.92229e-08
-4.378e-08
-3.67231e-08
-4.39389e-08
-3.41716e-08
-4.36664e-08
-3.15979e-08
-4.29568e-08
-2.90362e-08
-4.18057e-08
-4.02118e-08
-2.65274e-08
-4.74819e-08
-4.07528e-08
4.92526e-08
-4.5555e-08
-4.27149e-08
-4.34832e-08
-4.42679e-08
-4.12793e-08
-4.54003e-08
-3.89574e-08
-4.61018e-08
-3.65335e-08
-4.63628e-08
-3.40263e-08
-4.61735e-08
-3.14586e-08
-4.55245e-08
-2.88582e-08
-4.44061e-08
-4.281e-08
-2.626e-08
-4.68919e-08
-4.23393e-08
4.84784e-08
-4.51436e-08
-4.44633e-08
-4.32414e-08
-4.61701e-08
-4.11937e-08
-4.7448e-08
-3.90093e-08
-4.82863e-08
-3.6698e-08
-4.86741e-08
-3.42714e-08
-4.86002e-08
-3.17434e-08
-4.80524e-08
-2.91321e-08
-4.70174e-08
-4.54808e-08
-2.64614e-08
-4.64151e-08
-4.36939e-08
4.77697e-08
-4.48923e-08
-4.59861e-08
-4.32084e-08
-4.7854e-08
-4.13697e-08
-4.92868e-08
-3.93816e-08
-5.02744e-08
-3.72489e-08
-5.08068e-08
-3.49764e-08
-5.08727e-08
-3.25693e-08
-5.04596e-08
-3.00344e-08
-4.95523e-08
-4.81337e-08
-2.73815e-08
-4.59917e-08
-4.47807e-08
4.70784e-08
-4.47334e-08
-4.72444e-08
-4.3313e-08
-4.92745e-08
-4.17373e-08
-5.08625e-08
-4.00108e-08
-5.20009e-08
-3.81358e-08
-5.26818e-08
-3.61125e-08
-5.28961e-08
-3.39391e-08
-5.26331e-08
-3.16123e-08
-5.18792e-08
-5.06185e-08
-2.91275e-08
-4.5556e-08
-4.56012e-08
4.63765e-08
-4.45721e-08
-4.82283e-08
-4.34377e-08
-5.0409e-08
-4.21616e-08
-5.21385e-08
-4.07497e-08
-5.34129e-08
-3.92041e-08
-5.42273e-08
-3.75245e-08
-5.45759e-08
-3.57069e-08
-5.44507e-08
-3.37444e-08
-5.38418e-08
-5.27371e-08
-3.16259e-08
-4.49995e-08
-4.62029e-08
4.56012e-08
-4.42623e-08
-4.89656e-08
-4.34032e-08
-5.12681e-08
-4.2432e-08
-5.31097e-08
-4.13555e-08
-5.44895e-08
-4.01775e-08
-5.54053e-08
-3.88999e-08
-5.58534e-08
-3.75227e-08
-5.5828e-08
-3.60436e-08
-5.53208e-08
-5.43223e-08
-3.44585e-08
-4.41225e-08
-4.66499e-08
4.45694e-08
-4.35852e-08
-4.9503e-08
-4.29672e-08
-5.18861e-08
-4.22754e-08
-5.38015e-08
-4.15143e-08
-5.52504e-08
-4.06877e-08
-5.6232e-08
-3.97985e-08
-5.67426e-08
-3.88502e-08
-5.67763e-08
-3.78465e-08
-5.63245e-08
-5.53765e-08
-3.67923e-08
-4.26649e-08
-4.69867e-08
4.30016e-08
-4.22897e-08
-4.98782e-08
-4.18769e-08
-5.22988e-08
-4.14256e-08
-5.42527e-08
-4.09336e-08
-5.57424e-08
-4.03988e-08
-5.67667e-08
-3.982e-08
-5.73213e-08
-3.91976e-08
-5.73987e-08
-3.85335e-08
-5.69886e-08
-5.60793e-08
-3.78307e-08
-4.03804e-08
-4.72145e-08
4.06082e-08
-4.01626e-08
-5.0096e-08
-3.99434e-08
-5.25179e-08
-3.97094e-08
-5.44867e-08
-3.9447e-08
-5.60048e-08
-3.91442e-08
-5.70696e-08
-3.87912e-08
-5.76742e-08
-3.83813e-08
-5.78086e-08
-3.79097e-08
-5.74602e-08
-5.66158e-08
-3.73732e-08
-3.71043e-08
-4.72874e-08
3.71772e-08
-3.70822e-08
-5.0118e-08
-3.7083e-08
-5.25171e-08
-3.70761e-08
-5.44936e-08
-3.70323e-08
-5.60487e-08
-3.69259e-08
-5.7176e-08
-3.67366e-08
-5.78636e-08
-3.64491e-08
-5.80962e-08
-3.60521e-08
-5.78573e-08
-5.71314e-08
-3.55366e-08
-3.27908e-08
-4.712e-08
3.26234e-08
-3.30462e-08
-4.98625e-08
-3.33376e-08
-5.22257e-08
-3.36096e-08
-5.42217e-08
-3.38111e-08
-5.58473e-08
-3.39003e-08
-5.70869e-08
-3.38463e-08
-5.79176e-08
-3.3628e-08
-5.83146e-08
-3.32311e-08
-5.82542e-08
-5.7717e-08
-3.26457e-08
-2.7498e-08
-4.65869e-08
2.69649e-08
-2.81612e-08
-4.91992e-08
-2.88651e-08
-5.15219e-08
-2.95138e-08
-5.3573e-08
-3.00248e-08
-5.53365e-08
-3.03381e-08
-5.67736e-08
-3.04164e-08
-5.78393e-08
-3.024e-08
-5.84911e-08
-2.98003e-08
-5.8694e-08
-5.84226e-08
-2.90947e-08
-2.13757e-08
-4.55277e-08
2.03165e-08
-2.26313e-08
-4.79437e-08
-2.39302e-08
-5.0223e-08
-2.51012e-08
-5.24021e-08
-2.60111e-08
-5.44266e-08
-2.65839e-08
-5.62009e-08
-2.67895e-08
-5.76337e-08
-2.66259e-08
-5.86547e-08
-2.61054e-08
-5.92145e-08
-5.92829e-08
-2.52451e-08
-1.46456e-08
-4.37656e-08
1.28835e-08
-1.67392e-08
-4.58502e-08
-1.88915e-08
-4.80707e-08
-2.07779e-08
-5.05156e-08
-2.2174e-08
-5.30305e-08
-2.30033e-08
-5.53717e-08
-2.32825e-08
-5.73546e-08
-2.30613e-08
-5.88759e-08
-2.23956e-08
-5.98803e-08
-6.0342e-08
-2.13365e-08
-7.58227e-09
-4.12061e-08
5.02273e-09
-1.08147e-08
-4.26178e-08
-1.41961e-08
-4.46893e-08
-1.70284e-08
-4.76834e-08
-1.89102e-08
-5.11487e-08
-1.98661e-08
-5.44159e-08
-2.00561e-08
-5.71646e-08
-1.9633e-08
-5.92991e-08
-1.87186e-08
-6.07948e-08
-6.16555e-08
-1.74051e-08
-2.96401e-10
-3.82849e-08
-2.62479e-09
-4.7813e-09
-3.81329e-08
-1.06683e-08
-3.88023e-08
-1.46002e-08
-4.37515e-08
-1.6536e-08
-4.9213e-08
-1.71742e-08
-5.37778e-08
-1.69391e-08
-5.73998e-08
-1.61004e-08
-6.01378e-08
-1.48314e-08
-6.20638e-08
-6.32447e-08
-1.32421e-08
4.42776e-09
-3.54728e-08
-7.23984e-09
-3.10189e-10
-3.33949e-08
-9.05062e-09
-3.00619e-08
-1.33711e-08
-3.94311e-08
-1.44088e-08
-4.81754e-08
-1.4028e-08
-5.41587e-08
-1.3064e-08
-5.83639e-08
-1.17374e-08
-6.14645e-08
-1.01745e-08
-6.36267e-08
-6.49752e-08
-8.44408e-09
-1.14968e-09
-3.09335e-08
-3.38963e-09
-6.09339e-09
-2.84513e-08
-6.5792e-09
-2.95763e-08
-8.57507e-09
-3.74353e-08
-8.86367e-09
-4.78869e-08
-7.9591e-09
-5.50632e-08
-6.81397e-09
-5.9509e-08
-5.5267e-09
-6.27518e-08
-4.14089e-09
-6.50125e-08
-6.64349e-08
-2.68122e-09
-8.54181e-09
-2.63334e-08
3.94174e-09
-9.74452e-09
-2.72489e-08
-7.6311e-09
-3.16897e-08
-4.60403e-09
-4.04625e-08
-2.2686e-09
-5.02223e-08
-8.22541e-10
-5.65093e-08
3.52883e-10
-6.06845e-08
1.38639e-09
-6.37853e-08
2.3496e-09
-6.59758e-08
-6.73723e-08
3.28698e-09
-1.02695e-08
-2.67012e-08
1.06373e-08
-7.11238e-09
-3.04061e-08
-1.69414e-09
-3.7108e-08
3.3298e-09
-4.54864e-08
5.79547e-09
-5.26879e-08
6.94333e-09
-5.76572e-08
7.64498e-09
-6.13862e-08
8.08198e-09
-6.42223e-08
8.36392e-09
-6.62578e-08
-6.75793e-08
8.57086e-09
-2.78147e-09
-3.12013e-08
7.28155e-09
3.53229e-09
-3.672e-08
9.1417e-09
-4.27174e-08
1.23178e-08
-4.86624e-08
1.33744e-08
-5.37443e-08
1.36502e-08
-5.7933e-08
1.3544e-08
-6.128e-08
1.31751e-08
-6.38535e-08
1.26491e-08
-6.57318e-08
-6.69781e-08
1.20477e-08
7.86458e-09
-3.66229e-08
-2.44294e-09
1.2219e-08
-4.10744e-08
1.52115e-08
-4.57098e-08
1.66345e-08
-5.00853e-08
1.7031e-08
-5.41408e-08
1.6765e-08
-5.7667e-08
1.60523e-08
-6.05673e-08
1.50492e-08
-6.28505e-08
1.38653e-08
-6.45479e-08
-6.56975e-08
1.25847e-08
9.29153e-09
-4.06309e-08
-5.28352e-09
1.23011e-08
-4.4084e-08
1.42588e-08
-4.76675e-08
1.53311e-08
-5.11576e-08
1.55715e-08
-5.43813e-08
1.51234e-08
-5.72189e-08
1.41598e-08
-5.96038e-08
1.28247e-08
-6.15154e-08
1.12342e-08
-6.29574e-08
-6.39478e-08
9.48448e-09
4.56499e-09
-4.39759e-08
-1.22003e-09
7.15658e-09
-4.66755e-08
8.9004e-09
-4.94113e-08
9.79386e-09
-5.20511e-08
9.90028e-09
-5.44877e-08
9.32593e-09
-5.66445e-08
8.19603e-09
-5.84739e-08
6.63262e-09
-5.99519e-08
4.74784e-09
-6.10725e-08
-6.18431e-08
2.64322e-09
-2.61043e-09
-4.66301e-08
5.26466e-09
-6.09071e-10
-4.86769e-08
6.56575e-10
-5.06769e-08
1.17172e-09
-5.25662e-08
9.73983e-10
-5.42899e-08
1.34175e-10
-5.58046e-08
-1.25859e-09
-5.70811e-08
-3.10685e-09
-5.81036e-08
-5.30961e-09
-5.88697e-08
-5.9387e-08
-7.7656e-09
-1.19579e-08
-4.85239e-08
1.38518e-08
-1.0661e-08
-4.99737e-08
-1.00137e-08
-5.13242e-08
-1.00314e-08
-5.25485e-08
-1.06959e-08
-5.36253e-08
-1.19614e-08
-5.45391e-08
-1.3761e-08
-5.52815e-08
-1.60133e-08
-5.58512e-08
-1.86294e-08
-5.62536e-08
-5.6513e-08
-2.15034e-08
-2.3375e-08
-4.96487e-08
2.44998e-08
-2.28167e-08
-5.05318e-08
-2.28611e-08
-5.12797e-08
-2.3523e-08
-5.18865e-08
-2.47926e-08
-5.23556e-08
-2.6636e-08
-5.26958e-08
-2.89964e-08
-5.29211e-08
-3.17971e-08
-5.30504e-08
-3.49368e-08
-5.3114e-08
-5.31393e-08
-3.83105e-08
-3.67528e-08
-4.99986e-08
3.71028e-08
-3.69538e-08
-5.03306e-08
-3.77347e-08
-5.04988e-08
-3.91122e-08
-5.0509e-08
-4.10845e-08
-5.03833e-08
-4.3624e-08
-5.01563e-08
-4.66788e-08
-4.98663e-08
-5.01606e-08
-4.95687e-08
-5.3961e-08
-4.93136e-08
-4.91393e-08
-5.79611e-08
-5.20029e-08
-4.95677e-08
5.1572e-08
-5.29625e-08
-4.9371e-08
-5.44873e-08
-4.8974e-08
-5.66078e-08
-4.83884e-08
-5.93366e-08
-4.76545e-08
-6.26549e-08
-4.68381e-08
-6.65138e-08
-4.60075e-08
-7.08305e-08
-4.52521e-08
-7.54718e-08
-4.46724e-08
-4.43452e-08
-8.0266e-08
-6.89964e-08
-4.83824e-08
6.7811e-08
-7.0658e-08
-4.77094e-08
-7.28717e-08
-4.67602e-08
-7.57114e-08
-4.55488e-08
-7.92043e-08
-4.41617e-08
-8.33588e-08
-4.26837e-08
-8.81542e-08
-4.12121e-08
-9.34873e-08
-3.9919e-08
-9.91896e-08
-3.89702e-08
-3.85311e-08
-1.05004e-07
-8.74971e-08
-4.65631e-08
8.56778e-08
-8.96523e-08
-4.55541e-08
-9.24157e-08
-4.39968e-08
-9.58985e-08
-4.20661e-08
-1.00158e-07
-3.99019e-08
-1.05216e-07
-3.76264e-08
-1.11058e-07
-3.537e-08
-1.17635e-07
-3.3342e-08
-1.24736e-07
-3.18687e-08
-3.13343e-08
-1.31933e-07
-1.06748e-07
-4.49093e-08
1.05094e-07
-1.09066e-07
-4.32365e-08
-1.12265e-07
-4.07983e-08
-1.16418e-07
-3.79128e-08
-1.21496e-07
-3.48237e-08
-1.27493e-07
-3.16296e-08
-1.34519e-07
-2.83438e-08
-1.4264e-07
-2.52212e-08
-1.51588e-07
-2.29211e-08
-2.22781e-08
-1.60644e-07
-1.23869e-07
-4.32451e-08
1.22205e-07
-1.26687e-07
-4.04181e-08
-1.30839e-07
-3.66466e-08
-1.36246e-07
-3.25056e-08
-1.42615e-07
-2.84547e-08
-1.49822e-07
-2.44229e-08
-1.58344e-07
-1.98213e-08
-1.68618e-07
-1.49471e-08
-1.80658e-07
-1.08819e-08
-9.06914e-09
-1.93867e-07
-1.3887e-07
-4.18379e-08
1.37463e-07
-1.42093e-07
-3.71951e-08
-1.4733e-07
-3.14094e-08
-1.54677e-07
-2.51591e-08
-1.63233e-07
-1.98981e-08
-1.71555e-07
-1.61009e-08
-1.81063e-07
-1.03134e-08
-1.96425e-07
4.14315e-10
-2.17632e-07
1.03255e-08
3.64537e-09
-2.30347e-07
-1.52519e-07
-4.13783e-08
1.5206e-07
-1.54673e-07
-3.50413e-08
-1.5939e-07
-2.6692e-08
-1.69565e-07
-1.49847e-08
-1.83336e-07
-6.12746e-09
-1.8976e-07
-9.67588e-09
-1.98522e-07
-1.55125e-09
-2.25059e-07
2.69512e-08
-2.65862e-07
5.11278e-08
3.3067e-09
-2.65523e-07
-1.72906e-07
-4.15818e-08
1.73109e-07
-1.73958e-07
-3.3989e-08
-1.76918e-07
-2.37321e-08
-1.86544e-07
-5.3582e-09
-1.97486e-07
4.81468e-09
-2.19001e-07
1.18391e-08
-2.41938e-07
2.13858e-08
-2.52113e-07
3.71252e-08
-2.42537e-07
4.15524e-08
1.64238e-08
-2.55655e-07
-2.10023e-07
-3.80247e-08
2.06466e-07
-2.15743e-07
-2.82691e-08
-2.23884e-07
-1.55911e-08
-2.29798e-07
5.57045e-10
-2.38531e-07
1.3548e-08
-2.48936e-07
2.22432e-08
-2.54733e-07
2.71831e-08
-2.50206e-07
3.2598e-08
-2.43387e-07
3.47344e-08
2.62061e-08
-2.5317e-07
-2.44751e-07
-3.21082e-08
2.38834e-07
-2.50631e-07
-2.23888e-08
-2.57548e-07
-8.67343e-09
-2.6735e-07
1.03581e-08
-2.78737e-07
2.49349e-08
-2.86915e-07
3.0421e-08
-2.82873e-07
2.31411e-08
-2.80927e-07
3.06524e-08
-2.83571e-07
3.73779e-08
3.3985e-08
-2.9135e-07
-2.761e-07
-2.16847e-08
2.65676e-07
-2.86429e-07
-1.20595e-08
-2.94761e-07
-3.41496e-10
-2.96235e-07
1.18321e-08
-2.92615e-07
2.1315e-08
-2.892e-07
2.70059e-08
-2.95271e-07
2.92124e-08
-2.97504e-07
3.28856e-08
-2.94621e-07
3.44948e-08
3.06255e-08
-2.91261e-07
-2.74508e-07
-1.19886e-08
2.64812e-07
-2.82888e-07
-3.67984e-09
-2.88716e-07
5.48648e-09
-2.91379e-07
1.44954e-08
-2.92227e-07
2.21631e-08
-2.93122e-07
2.79011e-08
-2.95785e-07
3.18752e-08
-2.97163e-07
3.42642e-08
-2.96925e-07
3.42562e-08
3.08591e-08
-2.97159e-07
-2.50536e-07
-4.08531e-09
2.42633e-07
-2.57455e-07
3.23893e-09
-2.62906e-07
1.09379e-08
-2.66872e-07
1.84614e-08
-2.69901e-07
2.51921e-08
-2.72672e-07
3.06716e-08
-2.75456e-07
3.46591e-08
-2.78103e-07
3.69116e-08
-2.80809e-07
3.69619e-08
3.43111e-08
-2.84261e-07
-2.1142e-07
1.99408e-09
2.05341e-07
-2.17038e-07
8.857e-09
-2.22043e-07
1.5943e-08
-2.26487e-07
2.2905e-08
-2.30638e-07
2.93433e-08
-2.34849e-07
3.48823e-08
-2.39377e-07
3.91871e-08
-2.44384e-07
4.19194e-08
-2.50109e-07
4.26866e-08
4.10867e-08
-2.56885e-07
-1.6133e-07
6.14372e-09
1.5718e-07
-1.6545e-07
1.29764e-08
-1.69561e-07
2.00543e-08
-1.73785e-07
2.71286e-08
-1.78342e-07
3.39008e-08
-1.83513e-07
4.00532e-08
-1.89572e-07
4.52466e-08
-1.96761e-07
4.91075e-08
-2.053e-07
5.12266e-08
5.11665e-08
-2.1538e-07
-1.03736e-07
8.11991e-09
1.01759e-07
-1.05983e-07
1.52238e-08
-1.08634e-07
2.27051e-08
-1.11881e-07
3.03751e-08
-1.15978e-07
3.79979e-08
-1.21231e-07
4.53068e-08
-1.27963e-07
5.19787e-08
-1.36455e-07
5.75989e-08
-1.4692e-07
6.16922e-08
6.37539e-08
-1.59508e-07
-4.21837e-08
7.64933e-09
4.26542e-08
-4.21275e-08
1.51674e-08
-4.27071e-08
2.32846e-08
-4.41799e-08
3.18479e-08
-4.68651e-08
4.06831e-08
-5.11477e-08
4.95894e-08
-5.74632e-08
5.82942e-08
-6.6114e-08
6.62498e-08
-7.72461e-08
7.28242e-08
7.74311e-08
-9.09233e-08
1.93383e-08
4.58399e-09
-1.6273e-08
2.20262e-08
1.24795e-08
2.4075e-08
2.12356e-08
2.49465e-08
3.09763e-08
2.45702e-08
4.10594e-08
2.22229e-08
5.19367e-08
1.72072e-08
6.33099e-08
9.24107e-09
7.42158e-08
-1.47641e-09
8.35417e-08
9.07403e-08
-1.47856e-08
7.63896e-08
-8.84242e-10
-7.09215e-08
8.17274e-08
7.14164e-09
8.66546e-08
1.63084e-08
9.1018e-08
2.66128e-08
9.37494e-08
3.83279e-08
9.43391e-08
5.13471e-08
9.12561e-08
6.63929e-08
8.41497e-08
8.13221e-08
7.38827e-08
9.38087e-08
1.03337e-07
6.12856e-08
1.24973e-07
-8.55324e-09
-1.17304e-07
1.32958e-07
-8.42919e-10
1.41139e-07
8.1272e-09
1.49118e-07
1.86331e-08
1.56733e-07
3.07134e-08
1.63325e-07
4.47544e-08
1.65408e-07
6.43106e-08
1.57851e-07
8.8879e-08
1.36479e-07
1.1518e-07
1.24885e-07
1.14931e-07
1.58166e-07
-1.6894e-08
-1.49825e-07
1.66936e-07
-9.61268e-09
1.76222e-07
-1.15974e-09
1.86033e-07
8.82234e-09
1.96241e-07
2.05055e-08
2.07117e-07
3.38781e-08
2.18823e-07
5.26053e-08
2.16301e-07
9.14001e-08
1.59641e-07
1.71841e-07
2.04843e-07
7.9683e-08
1.69288e-07
-2.34417e-08
-1.62741e-07
1.75511e-07
-1.58358e-08
1.81599e-07
-7.24743e-09
1.8747e-07
2.95135e-09
1.93147e-07
1.48286e-08
1.97951e-07
2.90737e-08
1.98678e-07
5.18782e-08
1.19248e-07
1.7083e-07
-5.38511e-09
2.96475e-07
3.81228e-07
-1.8177e-07
1.61022e-07
-2.60626e-08
-1.58401e-07
1.63044e-07
-1.78577e-08
1.64348e-07
-8.55191e-09
1.65203e-07
2.09712e-09
1.64259e-07
1.57721e-08
1.52174e-07
4.11583e-08
3.77859e-08
1.66266e-07
-1.17555e-07
3.26171e-07
-2.35483e-07
4.14403e-07
4.58113e-07
-3.12368e-07
1.36108e-07
-2.39848e-08
-1.38186e-07
1.33427e-07
-1.51764e-08
1.29817e-07
-4.94197e-09
1.23618e-07
8.29581e-09
9.34543e-08
4.5936e-08
-1.0277e-07
2.37382e-07
-3.15757e-07
3.79255e-07
-3.78164e-07
3.88579e-07
-3.39846e-07
3.76086e-07
3.80413e-07
-2.62145e-07
1.02091e-07
-1.79648e-08
-1.08111e-07
9.53273e-08
-8.41299e-09
8.39856e-08
6.39975e-09
2.15171e-08
7.07645e-08
-3.61335e-07
4.28788e-07
-7.68337e-07
6.44383e-07
-8.425e-07
4.53417e-07
-7.10143e-07
2.5622e-07
-4.59936e-07
1.25878e-07
8.83086e-08
-1.67831e-07
6.50396e-08
-9.21809e-09
-7.37863e-08
5.31114e-08
3.51521e-09
-1.00937e-08
6.9605e-08
-4.58225e-07
5.18897e-07
-1.00084e-06
9.714e-07
-1.03388e-06
6.77427e-07
-8.31525e-07
2.51064e-07
-5.89382e-07
1.40777e-08
-3.59224e-07
-1.0428e-07
-1.80917e-07
-8.99976e-08
3.52343e-08
5.65256e-10
-4.50177e-08
-1.02471e-09
3.97743e-08
-2.79473e-07
3.48054e-07
-5.47267e-07
7.8669e-07
-4.29488e-07
8.5362e-07
-2.51423e-07
4.9936e-07
-1.1861e-07
1.18252e-07
-5.47985e-08
-4.9734e-08
-9.35988e-09
-1.49719e-07
-2.18371e-07
2.80936e-08
-7.24567e-09
2.41074e-08
-1.62965e-08
-2.44268e-07
2.76797e-07
-5.24901e-07
6.28689e-07
-4.88876e-07
7.50668e-07
-2.31115e-07
5.95861e-07
4.34303e-08
2.24815e-07
2.31797e-07
-7.01146e-08
3.19631e-07
-1.37567e-07
3.61174e-07
-1.91262e-07
-2.47793e-07
3.90596e-07
-2.60378e-07
2.67077e-07
1.74088e-08
-5.93095e-07
6.09513e-07
-6.69317e-07
7.04908e-07
-4.82222e-07
5.63571e-07
-5.16588e-08
1.65295e-07
3.03435e-07
-1.3028e-07
4.42368e-07
-2.09048e-07
5.15673e-07
-2.10873e-07
5.61863e-07
-2.37452e-07
-2.91815e-07
6.05885e-07
-4.27357e-07
5.9498e-07
9.94536e-08
-5.48011e-07
7.30174e-07
-4.08379e-07
5.6528e-07
3.98201e-08
1.15373e-07
3.95892e-07
-1.90779e-07
4.90308e-07
-2.24695e-07
5.13922e-07
-2.32663e-07
5.52215e-07
-2.49165e-07
6.0046e-07
-2.85697e-07
-3.5646e-07
6.65105e-07
-4.07874e-07
7.35587e-07
2.67267e-07
-3.18133e-07
6.40427e-07
1.13194e-07
1.3396e-07
4.36691e-07
-2.08123e-07
4.75274e-07
-2.29361e-07
4.90147e-07
-2.39568e-07
5.13214e-07
-2.55729e-07
5.54853e-07
-2.90804e-07
6.25898e-07
-3.56742e-07
-4.55302e-07
7.2474e-07
-3.66475e-07
7.07634e-07
3.94426e-07
8.23007e-08
1.91625e-07
4.30531e-07
-2.1427e-07
4.59235e-07
-2.36826e-07
4.75942e-07
-2.46069e-07
4.96136e-07
-2.59762e-07
5.31782e-07
-2.91375e-07
5.98105e-07
-3.57127e-07
6.91744e-07
-4.50382e-07
-5.56939e-07
7.9338e-07
5.23904e-09
4.17134e-07
2.85261e-07
3.94371e-07
-1.97507e-07
4.25217e-07
-2.45116e-07
4.46424e-07
-2.58033e-07
4.71164e-07
-2.70808e-07
5.08975e-07
-2.97574e-07
5.68802e-07
-3.51201e-07
6.5756e-07
-4.45886e-07
7.61849e-07
-5.54671e-07
-6.50056e-07
8.54967e-07
3.42241e-07
-3.14962e-09
7.80421e-08
3.97911e-07
-2.53167e-07
4.22062e-07
-2.69267e-07
4.45731e-07
-2.81701e-07
4.80824e-07
-3.05902e-07
5.31789e-07
-3.48539e-07
6.16864e-07
-4.36275e-07
7.25739e-07
-5.54761e-07
8.31037e-07
-6.5997e-07
-7.28021e-07
9.09003e-07
3.61823e-07
-2.40343e-07
-1.24633e-07
3.79889e-07
-2.71233e-07
4.00263e-07
-2.8964e-07
4.33019e-07
-3.14458e-07
4.82738e-07
-3.55621e-07
5.67162e-07
-4.32963e-07
6.83344e-07
-5.52458e-07
7.97444e-07
-6.68861e-07
8.84745e-07
-7.4727e-07
-7.98432e-07
9.55156e-07
3.3231e-07
-2.58379e-07
-3.14274e-07
3.5e-07
-2.88922e-07
3.7969e-07
-3.1933e-07
4.28057e-07
-3.62825e-07
5.11663e-07
-4.39227e-07
6.33448e-07
-5.54747e-07
7.56868e-07
-6.75878e-07
8.51363e-07
-7.63356e-07
9.27201e-07
-8.23108e-07
-8.68196e-07
9.96966e-07
2.78122e-07
-2.79959e-07
-2.56542e-07
3.07283e-07
-3.18083e-07
3.53742e-07
-3.6579e-07
4.37334e-07
-4.46417e-07
5.64059e-07
-5.65951e-07
6.96679e-07
-6.87367e-07
8.00343e-07
-7.79542e-07
8.82826e-07
-8.45839e-07
9.57114e-07
-8.97396e-07
-9.35129e-07
1.02405e-06
2.38148e-07
-3.0256e-07
-2.15546e-07
2.76578e-07
-3.56513e-07
3.53159e-07
-4.42371e-07
4.7864e-07
-5.71898e-07
6.153e-07
-7.02612e-07
7.26887e-07
-7.98954e-07
8.16204e-07
-8.68859e-07
8.95312e-07
-9.24947e-07
9.65597e-07
-9.67681e-07
-9.93885e-07
1.02435e-06
2.17848e-07
-3.19065e-07
-2.01343e-07
2.72051e-07
-4.10716e-07
3.90346e-07
-5.60665e-07
5.27276e-07
-7.08827e-07
6.40688e-07
-8.16024e-07
7.31625e-07
-8.89891e-07
8.12613e-07
-9.49847e-07
8.85361e-07
-9.97695e-07
9.46676e-07
-1.029e-06
-1.04114e-06
9.93928e-07
1.97717e-07
-3.3038e-07
-1.86401e-07
2.94841e-07
-5.07841e-07
4.36817e-07
-7.02642e-07
5.53219e-07
-8.25229e-07
6.4025e-07
-9.03054e-07
7.17941e-07
-9.67582e-07
7.9003e-07
-1.02194e-06
8.52651e-07
-1.06032e-06
9.0206e-07
-1.07841e-06
-1.07577e-06
9.36697e-07
2.19418e-07
-3.81472e-07
-1.68327e-07
3.61082e-07
-6.49505e-07
4.73327e-07
-8.14887e-07
5.50463e-07
-9.02366e-07
6.196e-07
-9.72191e-07
6.86828e-07
-1.03481e-06
7.48368e-07
-1.08348e-06
7.99063e-07
-1.11101e-06
8.35993e-07
-1.11534e-06
-1.09884e-06
8.59062e-07
2.75918e-07
-5.1705e-07
-1.4034e-07
3.93156e-07
-7.66742e-07
4.60902e-07
-8.82633e-07
5.18785e-07
-9.60249e-07
5.78393e-07
-1.0318e-06
6.37001e-07
-1.09342e-06
6.88327e-07
-1.1348e-06
7.27719e-07
-1.1504e-06
7.5404e-07
-1.14166e-06
-1.11335e-06
7.6855e-07
2.57052e-07
-6.76955e-07
-9.71465e-08
3.46527e-07
-8.56217e-07
4.05919e-07
-9.42025e-07
4.6282e-07
-1.01715e-06
5.19504e-07
-1.08848e-06
5.71733e-07
-1.14565e-06
6.14052e-07
-1.17712e-06
6.44084e-07
-1.18044e-06
6.62622e-07
-1.16019e-06
-1.12259e-06
6.71859e-07
2.68443e-07
-7.63491e-07
-1.81907e-07
3.14841e-07
-9.02615e-07
3.59467e-07
-9.86651e-07
4.07579e-07
-1.06526e-06
4.56372e-07
-1.13728e-06
4.9981e-07
-1.18909e-06
5.33106e-07
-1.21042e-06
5.55532e-07
-1.20286e-06
5.68579e-07
-1.17324e-06
-1.12813e-06
5.74124e-07
1.94994e-07
-8.36814e-07
-1.2167e-07
2.45974e-07
-9.53595e-07
2.94507e-07
-1.03518e-06
3.42019e-07
-1.11277e-06
3.86395e-07
-1.18165e-06
4.23131e-07
-1.22582e-06
4.49804e-07
-1.23709e-06
4.67595e-07
-1.22065e-06
4.78502e-07
-1.18415e-06
-1.13332e-06
4.83687e-07
1.61622e-07
-8.90462e-07
-1.07974e-07
2.04599e-07
-9.96571e-07
2.46056e-07
-1.07664e-06
2.85718e-07
-1.15244e-06
3.21592e-07
-1.21753e-06
3.49971e-07
-1.2542e-06
3.69993e-07
-1.25711e-06
3.83722e-07
-1.23438e-06
3.92985e-07
-1.19341e-06
-1.13798e-06
3.97646e-07
1.33944e-07
-9.28148e-07
-9.62576e-08
1.68814e-07
-1.03144e-06
2.02528e-07
-1.11036e-06
2.33847e-07
-1.18375e-06
2.60939e-07
-1.24462e-06
2.81231e-07
-1.27449e-06
2.95348e-07
-1.27123e-06
3.0609e-07
-1.24512e-06
3.15884e-07
-1.2032e-06
-1.14841e-06
3.26313e-07
1.11598e-07
-9.57211e-07
-8.25353e-08
1.39804e-07
-1.05965e-06
1.66547e-07
-1.1371e-06
1.89961e-07
-1.20717e-06
2.08284e-07
-1.26294e-06
2.20349e-07
-1.28656e-06
2.2781e-07
-1.27869e-06
2.33046e-07
-1.25036e-06
2.37554e-07
-1.20771e-06
-1.15316e-06
2.42299e-07
9.54029e-08
-9.8128e-07
-7.13332e-08
1.17956e-07
-1.0822e-06
1.3885e-07
-1.15799e-06
1.56139e-07
-1.22446e-06
1.67774e-07
-1.27458e-06
1.74281e-07
-1.29306e-06
1.78527e-07
-1.28294e-06
1.82432e-07
-1.25427e-06
1.86383e-07
-1.21166e-06
-1.15695e-06
1.90175e-07
7.98721e-08
-1.00294e-06
-5.82135e-08
9.93433e-08
-1.10167e-06
1.1708e-07
-1.17573e-06
1.31153e-07
-1.23853e-06
1.38888e-07
-1.28231e-06
1.42723e-07
-1.2969e-06
1.47067e-07
-1.28728e-06
1.53884e-07
-1.26108e-06
1.63373e-07
-1.22115e-06
-1.16804e-06
1.74464e-07
6.46423e-08
-1.02369e-06
-4.38887e-08
8.30336e-08
-1.12006e-06
9.96517e-08
-1.19235e-06
1.12547e-07
-1.25143e-06
1.18262e-07
-1.28803e-06
1.20968e-07
-1.29961e-06
1.26344e-07
-1.29266e-06
1.36456e-07
-1.27119e-06
1.52589e-07
-1.23728e-06
-1.18893e-06
1.73483e-07
5.01637e-08
-1.04434e-06
-2.952e-08
6.84529e-08
-1.13835e-06
8.47837e-08
-1.20868e-06
9.70294e-08
-1.26367e-06
1.01225e-07
-1.29222e-06
1.02958e-07
-1.30134e-06
1.08428e-07
-1.29813e-06
1.1929e-07
-1.28206e-06
1.38992e-07
-1.25699e-06
-1.22004e-06
1.70099e-07
3.75283e-08
-1.06541e-06
-1.64595e-08
5.57811e-08
-1.1566e-06
7.15364e-08
-1.22443e-06
8.22027e-08
-1.27434e-06
8.40615e-08
-1.29408e-06
8.37167e-08
-1.30099e-06
8.70188e-08
-1.30143e-06
9.40223e-08
-1.28906e-06
1.08907e-07
-1.27187e-06
-1.25005e-06
1.38919e-07
2.86712e-08
-1.08735e-06
-6.7261e-09
4.60743e-08
-1.17401e-06
6.02488e-08
-1.23861e-06
6.78063e-08
-1.2819e-06
6.64247e-08
-1.2927e-06
6.3084e-08
-1.29765e-06
6.27949e-08
-1.30114e-06
6.33384e-08
-1.2896e-06
6.66967e-08
-1.27523e-06
-1.26305e-06
7.96908e-08
2.61043e-08
-1.10708e-06
-6.37593e-09
4.03593e-08
-1.18826e-06
5.19358e-08
-1.25018e-06
5.53094e-08
-1.28527e-06
5.0625e-08
-1.28801e-06
4.43346e-08
-1.29136e-06
4.07246e-08
-1.29753e-06
3.65027e-08
-1.28538e-06
2.93439e-08
-1.26807e-06
-1.25794e-06
2.42333e-08
2.89978e-08
-1.12579e-06
-1.02839e-08
3.94327e-08
-1.1987e-06
4.83515e-08
-1.2591e-06
4.67865e-08
-1.2837e-06
3.87738e-08
-1.28e-06
2.96279e-08
-1.28222e-06
2.30857e-08
-1.29099e-06
1.7234e-08
-1.27953e-06
3.80592e-09
-1.25464e-06
-1.24185e-06
-1.22817e-08
4.07105e-08
-1.12871e-06
-3.77893e-08
4.34386e-08
-1.20143e-06
4.82123e-08
-1.26388e-06
4.06979e-08
-1.27619e-06
2.97292e-08
-1.26903e-06
1.84793e-08
-1.27097e-06
9.42502e-09
-1.28193e-06
4.63284e-09
-1.27474e-06
-1.01386e-08
-1.23987e-06
-1.21824e-06
-3.37434e-08
3.75361e-08
-1.1172e-06
-4.90528e-08
3.81048e-08
-1.20199e-06
4.1883e-08
-1.26766e-06
3.1574e-08
-1.26588e-06
2.06513e-08
-1.25811e-06
9.72098e-09
-1.26004e-06
-3.00433e-10
-1.27191e-06
-2.70923e-09
-1.27233e-06
-1.49361e-08
-1.22764e-06
-1.18817e-06
-4.50094e-08
9.96475e-09
-1.10377e-06
-2.33963e-08
2.4767e-08
-1.2168e-06
3.21966e-08
-1.27508e-06
2.22435e-08
-1.25593e-06
1.23792e-08
-1.24825e-06
1.95679e-09