/*--------------------------------*- C++ -*----------------------------------*\
  =========                 |
  \\      /  F ield         | OpenFOAM: The Open Source CFD Toolbox
   \\    /   O peration     | Website:  https://openfoam.org
    \\  /    A nd           | Version:  8
     \\/     M anipulation  |
\*---------------------------------------------------------------------------*/
FoamFile
{
    version     2.0;
    format      ascii;
    class       volVectorField;
    location    "2.25";
    object      U;
}
// * * * * * * * * * * * * * * * * * * * * * * * * * * * * * * * * * * * * * //

dimensions      [0 1 -1 0 0 0 0];

internalField   nonuniform List<vector> 
9150
(
(0.0539998 -0.427875 0)
(0.0881267 -0.622181 0)
(0.0730767 -0.631448 0)
(0.0486182 -0.64369 0)
(0.0170515 -0.654417 0)
(-0.0170161 -0.654422 0)
(-0.048589 -0.643705 0)
(-0.0730566 -0.631466 0)
(-0.0881189 -0.622201 0)
(-0.0539991 -0.427893 0)
(0.0410283 -0.522823 0)
(0.0576321 -0.625753 0)
(0.0420533 -0.61325 0)
(0.0293983 -0.622442 0)
(0.0104994 -0.62885 0)
(-0.0104724 -0.628853 0)
(-0.0293754 -0.62245 0)
(-0.0420358 -0.613259 0)
(-0.0576231 -0.625762 0)
(-0.0410267 -0.522838 0)
(0.0255056 -0.557943 0)
(0.0326969 -0.613861 0)
(0.0229637 -0.604505 0)
(0.0172797 -0.609989 0)
(0.0062508 -0.613186 0)
(-0.0062329 -0.613187 0)
(-0.0172644 -0.609993 0)
(-0.0229517 -0.60451 0)
(-0.032689 -0.613864 0)
(-0.0255028 -0.557951 0)
(0.0156153 -0.58473 0)
(0.0176511 -0.607472 0)
(0.0116707 -0.601156 0)
(0.0089002 -0.603288 0)
(0.00324847 -0.604395 0)
(-0.00323896 -0.604396 0)
(-0.008892 -0.603289 0)
(-0.0116643 -0.601157 0)
(-0.0176461 -0.607472 0)
(-0.0156129 -0.584734 0)
(0.0065026 -0.597172 0)
(0.00571901 -0.601385 0)
(0.00352297 -0.600044 0)
(0.00270424 -0.600351 0)
(0.00100076 -0.600482 0)
(-0.000997658 -0.600482 0)
(-0.00270155 -0.600351 0)
(-0.00352093 -0.600045 0)
(-0.00571717 -0.601385 0)
(-0.00650158 -0.597173 0)
(0.470881 -1.16618 9.85248e-25)
(0.282662 -1.08581 0)
(0.163743 -1.06941 0)
(0.0927169 -1.05802 0)
(0.0306168 -1.05335 0)
(-0.0303219 -1.0534 0)
(-0.0924547 -1.05816 0)
(-0.16354 -1.06963 0)
(-0.282526 -1.08608 0)
(-0.470955 -1.16655 -9.87855e-25)
(0.333973 -0.844158 2.56613e-25)
(0.287091 -0.936585 0)
(0.188314 -0.936696 0)
(0.108386 -0.936745 0)
(0.0358679 -0.93922 0)
(-0.035705 -0.939253 0)
(-0.108247 -0.936839 0)
(-0.188219 -0.936833 0)
(-0.287059 -0.936746 0)
(-0.334017 -0.844333 -2.5718e-25)
(0.279326 -0.702802 3.52557e-26)
(0.259156 -0.804612 0)
(0.178087 -0.817465 0)
(0.104667 -0.828305 0)
(0.0349128 -0.836479 0)
(-0.0348152 -0.8365 0)
(-0.104587 -0.828363 0)
(-0.178039 -0.817549 0)
(-0.259143 -0.804701 0)
(-0.279349 -0.702886 -3.54455e-26)
(0.200648 -0.554897 1.66674e-25)
(0.217114 -0.709322 0)
(0.154256 -0.725845 0)
(0.0913696 -0.741975 0)
(0.0305806 -0.753918 0)
(-0.0305179 -0.753931 0)
(-0.0913189 -0.742011 0)
(-0.154226 -0.725897 0)
(-0.217108 -0.709375 0)
(-0.20066 -0.554944 -1.66646e-25)
(0.119673 -0.444754 -2.74816e-25)
(0.15746 -0.644041 -3.90814e-25)
(0.116734 -0.663734 -1.228e-25)
(0.0709272 -0.681152 -8.04842e-26)
(0.0239897 -0.694174 -4.66636e-27)
(-0.0239443 -0.694183 -4.63963e-27)
(-0.0708903 -0.681175 -8.04224e-26)
(-0.116711 -0.663765 -1.22781e-25)
(-0.157454 -0.644073 -3.9081e-25)
(-0.119677 -0.444782 -2.74834e-25)
(0.0224901 -0.90723 0)
(-0.0320715 -1.34029 0)
(0.0277976 -1.27226 0)
(-0.00283078 -1.22688 0)
(0.0057155 -1.22478 0)
(-0.00358116 -1.22528 0)
(0.00638073 -1.22729 0)
(-0.0244885 -1.27152 0)
(0.0366829 -1.34267 0)
(-0.0184176 -0.920712 0)
(0.0482606 -0.902505 0)
(-0.0191611 -1.33416 0)
(0.0263099 -1.27092 0)
(0.000919583 -1.22472 0)
(0.00248755 -1.22331 0)
(-0.00106772 -1.22377 0)
(0.00187462 -1.22468 0)
(-0.0241314 -1.27129 0)
(0.0217242 -1.33527 0)
(-0.0457798 -0.908099 0)
(0.0736582 -0.940034 0)
(-0.0214933 -1.34887 0)
(0.0207817 -1.27583 0)
(0.00482696 -1.23101 0)
(0.000503627 -1.22669 0)
(0.000649198 -1.22692 0)
(-0.00320534 -1.23101 0)
(-0.0196247 -1.27659 0)
(0.0230798 -1.34976 0)
(-0.0726678 -0.943742 0)
(0.136844 -1.07373 0)
(1.59047e-05 -1.36568 0)
(0.0195852 -1.27263 0)
(0.0214742 -1.22577 0)
(0.00582451 -1.21448 0)
(-0.0049445 -1.21456 0)
(-0.0205634 -1.226 0)
(-0.0190512 -1.27306 0)
(0.000963954 -1.36621 0)
(-0.136374 -1.07562 0)
(0.289703 -1.22102 0)
(0.118924 -1.32139 0)
(0.0705724 -1.21112 0)
(0.0569682 -1.16945 0)
(0.0201585 -1.15681 0)
(-0.0196359 -1.15688 0)
(-0.0565175 -1.16968 0)
(-0.070182 -1.21147 0)
(-0.118416 -1.32174 0)
(-0.289631 -1.2219 0)
(-0.0402342 -0.00495495 0)
(-0.0365935 -0.00508406 0)
(-0.0328634 -0.00517648 0)
(-0.0290768 -0.00522822 0)
(-0.0252657 -0.00523815 0)
(-0.0214621 -0.00520661 0)
(-0.0176974 -0.00513422 0)
(-0.014002 -0.00502198 0)
(-0.0104055 -0.00487232 0)
(-0.00693744 -0.00468914 0)
(-0.0372555 -0.0103536 0)
(-0.0343671 -0.0106692 0)
(-0.0313953 -0.0108912 0)
(-0.0283663 -0.0110185 0)
(-0.0253082 -0.0110509 0)
(-0.0222482 -0.0109896 0)
(-0.0192133 -0.0108363 0)
(-0.0162296 -0.0105938 0)
(-0.0133225 -0.0102657 0)
(-0.0105149 -0.0098563 0)
(-0.0346675 -0.0153536 0)
(-0.0322785 -0.0158492 0)
(-0.0298123 -0.0162026 0)
(-0.0272917 -0.016412 0)
(-0.0247406 -0.0164777 0)
(-0.0221825 -0.016401 0)
(-0.0196403 -0.016185 0)
(-0.0171368 -0.0158339 0)
(-0.0146936 -0.0153534 0)
(-0.0123308 -0.0147508 0)
(-0.032506 -0.0196302 0)
(-0.0304849 -0.0202967 0)
(-0.0283912 -0.020778 0)
(-0.0262451 -0.0210717 0)
(-0.0240676 -0.0211778 0)
(-0.0218794 -0.021098 0)
(-0.0197012 -0.020836 0)
(-0.0175531 -0.0203974 0)
(-0.0154545 -0.0197897 0)
(-0.013424 -0.0190228 0)
(-0.0306655 -0.0232708 0)
(-0.0289273 -0.0240978 0)
(-0.0271193 -0.0247015 0)
(-0.0252601 -0.0250786 0)
(-0.0233687 -0.0252287 0)
(-0.021464 -0.0251534 0)
(-0.019565 -0.0248571 0)
(-0.0176904 -0.024346 0)
(-0.0158586 -0.0236292 0)
(-0.0140873 -0.0227187 0)
(-0.0291038 -0.0264176 0)
(-0.027583 -0.0273987 0)
(-0.0259944 -0.0281216 0)
(-0.0243549 -0.0285821 0)
(-0.0226821 -0.0287793 0)
(-0.0209938 -0.0287145 0)
(-0.019308 -0.0283918 0)
(-0.0176425 -0.0278182 0)
(-0.0160152 -0.0270034 0)
(-0.0144438 -0.025961 0)
(-0.0277944 -0.0291892 0)
(-0.0264389 -0.0303205 0)
(-0.0250164 -0.0311613 0)
(-0.0235425 -0.0317065 0)
(-0.0220337 -0.0319541 0)
(-0.0205069 -0.031905 0)
(-0.0189791 -0.0315629 0)
(-0.0174681 -0.0309341 0)
(-0.0159916 -0.0300286 0)
(-0.0145678 -0.0288606 0)
(-0.0267156 -0.0316778 0)
(-0.025484 -0.0329575 0)
(-0.0241852 -0.0339168 0)
(-0.0228335 -0.0345495 0)
(-0.0214444 -0.0348526 0)
(-0.0200335 -0.0348258 0)
(-0.0186176 -0.0344714 0)
(-0.0172137 -0.0337949 0)
(-0.01584 -0.0328053 0)
(-0.0145155 -0.0315163 0)
(-0.0258453 -0.0339552 0)
(-0.0247066 -0.0353832 0)
(-0.0234997 -0.0364637 0)
(-0.0222375 -0.0371892 0)
(-0.0209337 -0.0375554 0)
(-0.0196029 -0.0375601 0)
(-0.0182606 -0.0372039 0)
(-0.0169238 -0.0364902 0)
(-0.0156103 -0.0354258 0)
(-0.01434 -0.0340225 0)
(-0.0251579 -0.0360725 0)
(-0.0240926 -0.0376499 0)
(-0.0229573 -0.0388561 0)
(-0.021763 -0.0396824 0)
(-0.0205214 -0.0401226 0)
(-0.0192454 -0.0401727 0)
(-0.0179489 -0.0398304 0)
(-0.0166475 -0.0390962 0)
(-0.0153588 -0.0379732 0)
(-0.0141024 -0.0364695 0)
(-0.0246227 -0.0380565 0)
(-0.0236238 -0.0397852 0)
(-0.0225527 -0.0411235 0)
(-0.0214177 -0.0420614 0)
(-0.0202282 -0.042591 0)
(-0.0189945 -0.0427057 0)
(-0.0177283 -0.0424001 0)
(-0.0164431 -0.0416708 0)
(-0.0151544 -0.0405161 0)
(-0.013881 -0.0389382 0)
(-0.0242036 -0.0399074 0)
(-0.0232778 -0.0417902 0)
(-0.0222767 -0.0432686 0)
(-0.0212062 -0.0443314 0)
(-0.0200729 -0.044969 0)
(-0.0188842 -0.0451725 0)
(-0.0176489 -0.0449334 0)
(-0.016377 -0.0442439 0)
(-0.015081 -0.0430969 0)
(-0.0137761 -0.0414877 0)
(-0.023863 -0.0415974 0)
(-0.0230284 -0.043639 0)
(-0.0221148 -0.0452667 0)
(-0.0211263 -0.0464688 0)
(-0.020067 -0.0472346 0)
(-0.0189418 -0.0475533 0)
(-0.0177557 -0.0474143 0)
(-0.0165151 -0.0468062 0)
(-0.0152275 -0.045717 0)
(-0.0139032 -0.0441351 0)
(-0.0235673 -0.0430798 0)
(-0.0228471 -0.0452864 0)
(-0.0220447 -0.0470725 0)
(-0.0211633 -0.0484263 0)
(-0.0202059 -0.0493372 0)
(-0.0191751 -0.0497942 0)
(-0.0180732 -0.0497857 0)
(-0.0169025 -0.0492985 0)
(-0.0156658 -0.0483178 0)
(-0.0143669 -0.0468267 0)
(-0.0232891 -0.0443061 0)
(-0.0227017 -0.0466841 0)
(-0.0220311 -0.048634 0)
(-0.0212814 -0.0501458 0)
(-0.0204554 -0.0512103 0)
(-0.0195549 -0.0518181 0)
(-0.0185804 -0.0519586 0)
(-0.0175314 -0.0516197 0)
(-0.0164066 -0.0507863 0)
(-0.0152038 -0.0494406 0)
(-0.0230038 -0.045253 0)
(-0.0225512 -0.0478027 0)
(-0.0220204 -0.049913 0)
(-0.0214169 -0.0515773 0)
(-0.0207444 -0.0527895 0)
(-0.0200049 -0.0535434 0)
(-0.0191988 -0.0538313 0)
(-0.0183251 -0.053644 0)
(-0.017381 -0.0529698 0)
(-0.0163618 -0.0517941 0)
(-0.0226674 -0.0459482 0)
(-0.0223311 -0.0486525 0)
(-0.0219307 -0.0509033 0)
(-0.0214722 -0.0526977 0)
(-0.0209596 -0.0540337 0)
(-0.0203957 -0.0549082 0)
(-0.0197817 -0.0553164 0)
(-0.0191181 -0.0552523 0)
(-0.0184042 -0.0547073 0)
(-0.0176386 -0.0536712 0)
(-0.0221844 -0.0464573 0)
(-0.0219372 -0.0492778 0)
(-0.0216476 -0.0516316 0)
(-0.0213195 -0.0535197 0)
(-0.0209559 -0.0549427 0)
(-0.0205586 -0.0558993 0)
(-0.0201293 -0.0563862 0)
(-0.0196695 -0.056398 0)
(-0.0191808 -0.0559268 0)
(-0.0186657 -0.0549628 0)
(-0.0214211 -0.0468427 0)
(-0.0212431 -0.0497278 0)
(-0.0210464 -0.0521399 0)
(-0.0208306 -0.0540822 0)
(-0.0205951 -0.0555568 0)
(-0.0203387 -0.0565631 0)
(-0.0200604 -0.0570974 0)
(-0.01976 -0.0571531 0)
(-0.0194379 -0.0567209 0)
(-0.0190957 -0.0557897 0)
(-0.0202448 -0.0471308 0)
(-0.020135 -0.0500283 0)
(-0.0200276 -0.052457 0)
(-0.019916 -0.0544224 0)
(-0.0197935 -0.0559269 0)
(-0.0196536 -0.0569692 0)
(-0.0194908 -0.0575441 0)
(-0.0193008 -0.0576431 0)
(-0.0190806 -0.0572552 0)
(-0.0188288 -0.0563679 0)
(-0.018562 -0.0472975 0)
(-0.0185418 -0.0501627 0)
(-0.0185404 -0.0525777 0)
(-0.0185427 -0.0545499 0)
(-0.0185335 -0.0560817 0)
(-0.0184988 -0.0571692 0)
(-0.0184272 -0.0578041 0)
(-0.0183096 -0.0579743 0)
(-0.0181393 -0.0576659 0)
(-0.017912 -0.0568651 0)
(-0.0163392 -0.0472759 0)
(-0.0164512 -0.0500714 0)
(-0.016595 -0.0524545 0)
(-0.0167426 -0.0544354 0)
(-0.0168668 -0.0560144 0)
(-0.016944 -0.0571821 0)
(-0.0169561 -0.057923 0)
(-0.0168901 -0.0582186 0)
(-0.0167373 -0.0580498 0)
(-0.0164925 -0.0573996 0)
(-0.0135943 -0.0469607 0)
(-0.0139039 -0.0496494 0)
(-0.0142576 -0.0519925 0)
(-0.014607 -0.0540042 0)
(-0.0149058 -0.0556778 0)
(-0.0151179 -0.0569906 0)
(-0.0152194 -0.0579122 0)
(-0.0151965 -0.0584114 0)
(-0.0150426 -0.0584602 0)
(-0.014756 -0.0580366 0)
(-0.0103913 -0.0462073 0)
(-0.0109866 -0.0487413 0)
(-0.0116457 -0.0510433 0)
(-0.0122822 -0.0531352 0)
(-0.0128156 -0.0549909 0)
(-0.0131929 -0.056555 0)
(-0.0133894 -0.0577666 0)
(-0.0133991 -0.0585722 0)
(-0.0132256 -0.05893 0)
(-0.0128778 -0.0588114 0)
(-0.00683214 -0.0448419 0)
(-0.00782131 -0.0471354 0)
(-0.00892035 -0.0493929 0)
(-0.00996471 -0.0516649 0)
(-0.0108037 -0.0538639 0)
(-0.0113638 -0.0558507 0)
(-0.0116369 -0.0575053 0)
(-0.0116446 -0.0587418 0)
(-0.0114157 -0.0595037 0)
(-0.0109782 -0.0597588 0)
(-0.00306634 -0.0426599 0)
(-0.00454536 -0.0444725 0)
(-0.00627272 -0.046607 0)
(-0.00790044 -0.0492957 0)
(-0.00910176 -0.0521937 0)
(-0.00979908 -0.0549059 0)
(-0.0100657 -0.0572156 0)
(-0.00999034 -0.0590194 0)
(-0.00964232 -0.0602646 0)
(-0.00907513 -0.0609317 0)
(0.000740154 -0.0398351 0)
(-0.00116307 -0.0406988 0)
(-0.00387389 -0.042298 0)
(-0.00645696 -0.0458861 0)
(-0.00800117 -0.0500685 0)
(-0.00858804 -0.0539396 0)
(-0.00862262 -0.0571301 0)
(-0.00832183 -0.059592 0)
(-0.00777819 -0.0613344 0)
(-0.00705286 -0.0623862 0)
(0.00305619 -0.036951 0)
(0.00133206 -0.0359086 0)
(-0.00230348 -0.0350789 0)
(-0.00592134 -0.0416826 0)
(-0.00716466 -0.0484017 0)
(-0.00726913 -0.0537245 0)
(-0.00684922 -0.0577403 0)
(-0.00623749 -0.0607288 0)
(-0.00550204 -0.0628208 0)
(-0.00467281 -0.0641197 0)
(0.000738399 -0.0333131 0)
(-0.00172834 -0.0304193 0)
(-0.00358656 -0.0281378 0)
(-0.00401631 -0.0374475 0)
(-0.0043775 -0.0476781 0)
(-0.00425866 -0.0544447 0)
(-0.00374282 -0.05889 0)
(-0.0031053 -0.0621362 0)
(-0.00242559 -0.0643924 0)
(-0.00171235 -0.0658046 0)
(-0.00319623 -0.0283009 0)
(-0.00508158 -0.0268682 0)
(-0.00470316 -0.0292854 0)
(-0.00312194 -0.0377499 0)
(-0.00153596 -0.0486812 0)
(-0.000673704 -0.0557229 0)
(-0.000122033 -0.0601287 0)
(0.000438147 -0.0633613 0)
(0.000940842 -0.0656253 0)
(0.00141239 -0.0670576 0)
(-0.00569317 -0.0251877 0)
(-0.00466168 -0.0275618 0)
(-0.00234116 -0.0335395 0)
(0.000599648 -0.0431392 0)
(0.00249906 -0.0516895 0)
(0.0033094 -0.0572723 0)
(0.00368039 -0.0612233 0)
(0.00395229 -0.0641948 0)
(0.00412596 -0.0663123 0)
(0.00424127 -0.0676746 0)
(-0.00277816 -0.0279193 0)
(0.000122359 -0.0334711 0)
(0.00348089 -0.0407393 0)
(0.00552649 -0.0476726 0)
(0.00653947 -0.0534205 0)
(0.00686 -0.0579678 0)
(0.00684939 -0.0615173 0)
(0.00670514 -0.0642265 0)
(0.00647105 -0.0661853 0)
(0.00618185 -0.0674701 0)
(0.00272541 -0.0345168 0)
(0.00517374 -0.0396959 0)
(0.00693919 -0.0446854 0)
(0.00808227 -0.0494862 0)
(0.00855219 -0.054012 0)
(0.00853288 -0.0578898 0)
(0.00825161 -0.0610262 0)
(0.00780513 -0.0634693 0)
(0.00724765 -0.0652703 0)
(0.00662286 -0.0664792 0)
(0.00366841 -0.0389627 0)
(0.00548657 -0.0426473 0)
(0.00677946 -0.0466511 0)
(0.00752644 -0.0506252 0)
(0.00782389 -0.0542891 0)
(0.00774772 -0.057476 0)
(0.00737613 -0.0601301 0)
(0.006786 -0.0622447 0)
(0.00604219 -0.0638327 0)
(0.00519676 -0.0649194 0)
(0.00153811 -0.0423073 0)
(0.00303284 -0.0454278 0)
(0.0041207 -0.0486153 0)
(0.00477522 -0.0516758 0)
(0.00501446 -0.0544921 0)
(0.00488343 -0.0569814 0)
(0.00444226 -0.0590907 0)
(0.00375461 -0.0607944 0)
(0.00288022 -0.0620874 0)
(0.0018717 -0.0629796 0)
(-0.00189411 -0.0454866 0)
(-0.000717631 -0.0478515 0)
(0.000104169 -0.0501939 0)
(0.00054791 -0.0524307 0)
(0.000621038 -0.0544899 0)
(0.000351826 -0.0563138 0)
(-0.000218138 -0.0578625 0)
(-0.00104063 -0.059114 0)
(-0.00206479 -0.060061 0)
(-0.00324091 -0.0607087 0)
(-0.00638189 -0.047769 0)
(-0.00557618 -0.0495053 0)
(-0.00508647 -0.0511646 0)
(-0.00492924 -0.0527058 0)
(-0.00510364 -0.0540936 0)
(-0.00559322 -0.0552993 0)
(-0.00636897 -0.0563037 0)
(-0.00739264 -0.0570967 0)
(-0.00862046 -0.0576784 0)
(-0.0100049 -0.0580636 0)
(-0.0118994 -0.0492754 0)
(-0.0114738 -0.0504381 0)
(-0.011343 -0.0514806 0)
(-0.0115194 -0.052389 0)
(-0.0120049 -0.0531559 0)
(-0.0127889 -0.0537784 0)
(-0.0138483 -0.054258 0)
(-0.0151488 -0.0546027 0)
(-0.0166453 -0.0548305 0)
(-0.0182871 -0.0549664 0)
(-0.0183951 -0.0500159 0)
(-0.0183549 -0.050621 0)
(-0.0185985 -0.0510757 0)
(-0.0191373 -0.0513822 0)
(-0.0199764 -0.0515533 0)
(-0.021109 -0.0516105 0)
(-0.0225163 -0.05158 0)
(-0.024162 -0.0514969 0)
(-0.0259956 -0.051397 0)
(-0.027962 -0.051312 0)
(-0.0258269 -0.0499763 0)
(-0.0261721 -0.0500369 0)
(-0.02679 -0.0499195 0)
(-0.0276986 -0.0496336 0)
(-0.0289104 -0.0492109 0)
(-0.0304262 -0.0487003 0)
(-0.0322293 -0.0481526 0)
(-0.0342867 -0.0476366 0)
(-0.0365441 -0.0472223 0)
(-0.0389244 -0.0469585 0)
(-0.0341423 -0.0491536 0)
(-0.0348484 -0.048704 0)
(-0.035809 -0.0480286 0)
(-0.0370652 -0.0471415 0)
(-0.038645 -0.0461003 0)
(-0.0405592 -0.044978 0)
(-0.0428051 -0.043857 0)
(-0.0453531 -0.042861 0)
(-0.0481374 -0.042111 0)
(-0.0510511 -0.0417159 0)
(-0.0432532 -0.047593 0)
(-0.0442252 -0.0467227 0)
(-0.0454354 -0.0454919 0)
(-0.0469847 -0.0439571 0)
(-0.0489159 -0.0422177 0)
(-0.0512438 -0.0403787 0)
(-0.0539721 -0.0385624 0)
(-0.0570958 -0.0369593 0)
(-0.060559 -0.0357983 0)
(-0.0641904 -0.0353093 0)
(-0.0529305 -0.045714 0)
(-0.0538837 -0.0444624 0)
(-0.0552225 -0.042555 0)
(-0.0570528 -0.0402168 0)
(-0.0593622 -0.037633 0)
(-0.062123 -0.0349353 0)
(-0.0653682 -0.0322393 0)
(-0.0691784 -0.0297916 0)
(-0.0735255 -0.0280335 0)
(-0.0781112 -0.0274142 0)
(-0.0614274 -0.0440109 0)
(-0.0624787 -0.0419668 0)
(-0.0642159 -0.0390076 0)
(-0.0666288 -0.0355501 0)
(-0.0695958 -0.0319533 0)
(-0.0729661 -0.0283141 0)
(-0.0768474 -0.0244307 0)
(-0.0816177 -0.0205165 0)
(-0.0872659 -0.0175176 0)
(-0.0934689 -0.0160741 0)
(-0.0688914 -0.0423412 0)
(-0.0699845 -0.0386828 0)
(-0.0720982 -0.033939 0)
(-0.0753343 -0.0288269 0)
(-0.0793663 -0.0242114 0)
(-0.0834956 -0.0201259 0)
(-0.0879605 -0.0150467 0)
(-0.0941577 -0.00847287 0)
(-0.102746 -0.00223503 0)
(-0.112741 -0.000835547 0)
(-0.0759311 -0.0413918 0)
(-0.0764581 -0.0358076 0)
(-0.0782054 -0.0291061 0)
(-0.0820906 -0.0221982 0)
(-0.0879496 -0.0166769 0)
(-0.0930323 -0.0130884 0)
(-0.0969908 -0.0062376 0)
(-0.104168 0.00718775 0)
(-0.125801 0.0178716 0)
(-0.132957 0.00355605 0)
(-0.0864956 -0.0419633 0)
(-0.0867285 -0.0349463 0)
(-0.0874532 -0.0257428 0)
(-0.0894776 -0.0129205 0)
(-0.0959105 -0.00305544 0)
(-0.103531 -0.00526337 0)
(-0.115863 0.00504165 0)
(-0.124142 0.0385337 0)
(-0.122665 0.0615566 0)
(-0.126042 0.00392016 0)
(-0.104085 -0.0405219 0)
(-0.105529 -0.0320108 0)
(-0.108638 -0.0207716 0)
(-0.114619 0.000113008 0)
(-0.117399 0.0150352 0)
(-0.122212 0.0243644 0)
(-0.126476 0.0315168 0)
(-0.126666 0.040671 0)
(-0.123511 0.0433468 0)
(-0.124341 0.0276398 0)
(-0.120974 -0.0360191 0)
(-0.123451 -0.0260471 0)
(-0.126116 -0.0114716 0)
(-0.131604 0.00875808 0)
(-0.136558 0.0236259 0)
(-0.141755 0.0297842 0)
(-0.143198 0.0236253 0)
(-0.14043 0.0305901 0)
(-0.140487 0.0373494 0)
(-0.144081 0.0341064 0)
(-0.135539 -0.0272069 0)
(-0.140967 -0.0169161 0)
(-0.145556 -0.0038661 0)
(-0.147843 0.00945583 0)
(-0.147397 0.0198588 0)
(-0.14583 0.0261018 0)
(-0.145982 0.0278384 0)
(-0.14812 0.0320103 0)
(-0.147664 0.0337368 0)
(-0.146226 0.0297466 0)
(-0.13493 -0.016519 0)
(-0.139582 -0.00762993 0)
(-0.143224 0.00262773 0)
(-0.145325 0.013021 0)
(-0.146018 0.021417 0)
(-0.146284 0.0268055 0)
(-0.147216 0.0300097 0)
(-0.148274 0.0326282 0)
(-0.148508 0.0331392 0)
(-0.148353 0.0294821 0)
(-0.123377 -0.00761101 0)
(-0.127144 7.41625e-05 0)
(-0.130271 0.00828506 0)
(-0.132601 0.0163389 0)
(-0.134274 0.0234198 0)
(-0.13565 0.0289964 0)
(-0.137029 0.0329147 0)
(-0.138396 0.0351656 0)
(-0.139687 0.0351217 0)
(-0.141136 0.0320447 0)
(-0.104233 -0.000603606 0)
(-0.107181 0.00636965 0)
(-0.109843 0.0135911 0)
(-0.112186 0.0206456 0)
(-0.114297 0.0270664 0)
(-0.116349 0.0324493 0)
(-0.118507 0.036471 0)
(-0.120867 0.0388152 0)
(-0.123517 0.0390808 0)
(-0.126609 0.0368688 0)
(-0.0796286 0.00456375 0)
(-0.0816978 0.0113209 0)
(-0.0837466 0.0182817 0)
(-0.0858094 0.0251591 0)
(-0.0879741 0.0316191 0)
(-0.0903723 0.0373198 0)
(-0.0931481 0.0419189 0)
(-0.0964316 0.0450561 0)
(-0.100339 0.046341 0)
(-0.104981 0.0453688 0)
(-0.051345 0.00770066 0)
(-0.0523882 0.0146129 0)
(-0.0535926 0.021814 0)
(-0.0550391 0.029091 0)
(-0.0568404 0.0361795 0)
(-0.0591394 0.042786 0)
(-0.0620993 0.0485779 0)
(-0.0658755 0.053167 0)
(-0.0705947 0.0561194 0)
(-0.0763511 0.0569663 0)
(-0.0211674 0.00851584 0)
(-0.021014 0.015807 0)
(-0.0211138 0.0235639 0)
(-0.0215897 0.0316383 0)
(-0.0225858 0.0397879 0)
(-0.024276 0.0477883 0)
(-0.0268823 0.055328 0)
(-0.0305977 0.0619614 0)
(-0.0355348 0.0671779 0)
(-0.0417345 0.0704592 0)
(0.00894342 0.00676276 0)
(0.0104137 0.0145191 0)
(0.0116178 0.0229758 0)
(0.0124002 0.0320602 0)
(0.0125917 0.0414307 0)
(0.0119963 0.0511931 0)
(0.0102031 0.0611388 0)
(0.00698112 0.0705925 0)
(0.00230317 0.0787625 0)
(-0.00369797 0.0849807 0)
(0.0368394 0.00243119 0)
(0.0395538 0.0104625 0)
(0.0421635 0.0195722 0)
(0.0445553 0.0298084 0)
(0.046473 0.0409788 0)
(0.0474777 0.0531424 0)
(0.0468188 0.0662212 0)
(0.0443047 0.0787086 0)
(0.0399628 0.0892914 0)
(0.0341111 0.0969766 0)
(0.0605304 -0.00428802 0)
(0.0644589 0.00367563 0)
(0.0685154 0.0128853 0)
(0.0726087 0.0234671 0)
(0.0767019 0.03554 0)
(0.0807269 0.049576 0)
(0.0830606 0.0674896 0)
(0.0809783 0.0843437 0)
(0.0743235 0.0958913 0)
(0.0636778 0.104455 0)
(0.0769841 -0.0128127 0)
(0.0812255 -0.00538619 0)
(0.0857246 0.00321807 0)
(0.0905839 0.0134568 0)
(0.0958696 0.0254409 0)
(0.100838 0.0389949 0)
(0.105073 0.0570592 0)
(0.108383 0.0827222 0)
(0.0981753 0.115281 0)
(0.0660909 0.127726 0)
(0.0830098 -0.021016 0)
(0.0862255 -0.0136681 0)
(0.0893341 -0.00528361 0)
(0.0924808 0.00463764 0)
(0.0953578 0.0162057 0)
(0.0967637 0.0294323 0)
(0.0971274 0.0475576 0)
(0.0959699 0.0892816 0)
(0.0332006 0.222081 0)
(-0.0449752 0.30391 0)
(0.0799233 -0.0258673 0)
(0.0811053 -0.0180473 0)
(0.0819772 -0.00916212 0)
(0.0824524 0.00112615 0)
(0.0820739 0.0130704 0)
(0.0802797 0.0281806 0)
(0.0717764 0.0575075 0)
(-0.0292161 0.26613 0)
(-0.0934188 0.390829 0)
(-0.140763 0.454437 0)
(0.068645 -0.0261969 0)
(0.0674478 -0.0178041 0)
(0.0657905 -0.00817615 0)
(0.0634591 0.00297656 0)
(0.059362 0.0186661 0)
(0.0412639 0.0566655 0)
(-0.137349 0.282855 0)
(-0.190533 0.396258 0)
(-0.187022 0.444246 0)
(-0.153425 0.458423 0)
(0.052498 -0.021977 0)
(0.0492779 -0.0127677 0)
(0.0455761 -0.00126439 0)
(0.0385245 0.0165336 0)
(-0.00955353 0.0934479 0)
(-0.338209 0.486697 0)
(-0.44057 0.541603 0)
(-0.410788 0.433979 0)
(-0.298095 0.340418 0)
(-0.15294 0.333444 0)
(0.0345156 -0.0136421 0)
(0.0303459 -0.00289328 0)
(0.0233698 0.0171187 0)
(-0.0336558 0.139306 0)
(-0.430694 0.809487 0)
(-0.553209 0.809905 0)
(-0.487481 0.315127 0)
(-0.349313 0.0332652 0)
(-0.230896 -0.0998256 0)
(-0.123765 -0.166848 0)
(0.0206614 -0.00460152 0)
(0.0150609 0.0105345 0)
(-0.0212535 0.10511 0)
(-0.248224 0.792388 0)
(-0.324257 0.951376 0)
(-0.128673 0.444796 0)
(-0.0777394 0.171462 0)
(-0.0439641 -0.0122592 0)
(-0.0151657 -0.130195 0)
(0.00797934 -0.206902 0)
(0.00707549 0.00690021 0)
(-0.0207082 0.0636314 0)
(-0.222812 0.580256 0)
(-0.282546 0.848015 0)
(-0.207235 0.812105 0)
(-0.0882017 0.509487 0)
(0.131135 0.0484508 0)
(0.152589 -0.0838099 0)
(0.168497 -0.163195 0)
(0.184896 -0.229826 0)
(-0.0149986 0.0389607 0)
(-0.249596 0.497887 0)
(-0.347837 0.716083 0)
(-0.312802 0.702955 0)
(-0.148952 0.451695 0)
(0.064449 -0.0164122 0)
(0.228718 -0.181661 0)
(0.247958 -0.189168 0)
(0.26703 -0.218865 0)
(0.287788 -0.266904 0)
(-0.129344 0.514363 0)
(-0.266934 0.726994 0)
(-0.274058 0.691179 0)
(-0.139874 0.410956 0)
(0.174897 -0.148491 0)
(0.236448 -0.217637 0)
(0.250699 -0.227368 0)
(0.264588 -0.235947 0)
(0.285946 -0.260831 0)
(0.312947 -0.316226 0)
(-0.218368 0.683813 0)
(-0.220142 0.745246 0)
(-0.0943032 0.45022 0)
(0.20922 -0.184668 0)
(0.232395 -0.222901 0)
(0.240491 -0.232775 0)
(0.249542 -0.242597 0)
(0.264024 -0.26399 0)
(0.29038 -0.310417 0)
(0.335734 -0.39896 0)
(-0.249704 0.784519 0)
(-0.125709 0.538606 0)
(0.208138 -0.195958 0)
(0.225111 -0.227809 0)
(0.233241 -0.23589 0)
(0.241439 -0.24587 0)
(0.254107 -0.267391 0)
(0.278724 -0.31612 0)
(0.318899 -0.40168 0)
(0.373864 -0.509011 0)
(-0.154619 0.607345 0)
(0.186112 -0.168452 0)
(0.20815 -0.23244 0)
(0.218202 -0.245551 0)
(0.228089 -0.25549 0)
(0.241773 -0.274406 0)
(0.265422 -0.31497 0)
(0.304672 -0.397669 0)
(0.353854 -0.497999 0)
(0.408059 -0.60636 0)
(0.0962786 0.227642 0)
(0.197552 -0.235584 0)
(0.205949 -0.257818 0)
(0.215897 -0.268579 0)
(0.229072 -0.286122 0)
(0.248998 -0.318914 0)
(0.282722 -0.388084 0)
(0.334645 -0.494259 0)
(0.393246 -0.61207 0)
(0.438135 -0.69248 0)
(0.171696 -0.230582 0)
(0.185596 -0.26569 0)
(0.194171 -0.279237 0)
(0.206856 -0.296604 0)
(0.225994 -0.326247 0)
(0.256389 -0.380587 0)
(0.308943 -0.484902 0)
(0.374978 -0.616048 0)
(0.424285 -0.708158 0)
(0.460671 -0.763604 0)
(0.158186 -0.254177 0)
(0.170315 -0.278811 0)
(0.181172 -0.301704 0)
(0.199248 -0.332936 0)
(0.229632 -0.385393 0)
(0.281639 -0.4841 0)
(0.351343 -0.619271 0)
(0.405829 -0.721161 0)
(0.445694 -0.785766 0)
(0.481436 -0.833311 0)
(0.133739 -0.267892 0)
(0.145668 -0.300242 0)
(0.162514 -0.337308 0)
(0.192167 -0.392597 0)
(0.246246 -0.493144 0)
(0.317997 -0.625644 0)
(0.37763 -0.732629 0)
(0.422028 -0.805002 0)
(0.460769 -0.860237 0)
(0.496364 -0.902919 0)
(0.113206 -0.29104 0)
(0.125894 -0.335504 0)
(0.151626 -0.394546 0)
(0.202764 -0.49887 0)
(0.276245 -0.637616 0)
(0.338601 -0.748634 0)
(0.387066 -0.825687 0)
(0.428773 -0.886165 0)
(0.466448 -0.934222 0)
(0.499061 -0.967121 0)
(0.10277 -0.312906 0)
(0.117569 -0.376719 0)
(0.15733 -0.484469 0)
(0.231481 -0.642592 0)
(0.295432 -0.767305 0)
(0.344364 -0.848797 0)
(0.386703 -0.911876 0)
(0.425629 -0.96388 0)
(0.459585 -1.00134 0)
(0.486955 -1.02086 0)
(0.0934923 -0.323332 0)
(0.111996 -0.437587 0)
(0.183255 -0.640274 0)
(0.251364 -0.779966 0)
(0.299537 -0.866009 0)
(0.339943 -0.931923 0)
(0.377817 -0.988657 0)
(0.412024 -1.03206 0)
(0.440379 -1.05705 0)
(0.461464 -1.06175 0)
(0.0872262 -0.337794 0)
(0.143251 -0.581185 0)
(0.211171 -0.769166 0)
(0.257341 -0.869273 0)
(0.292632 -0.940027 0)
(0.326962 -1.00327 0)
(0.359764 -1.05525 0)
(0.388335 -1.08868 0)
(0.410422 -1.09992 0)
(0.425336 -1.08994 0)
(0.0912098 -0.409342 0)
(0.169949 -0.718536 0)
(0.215152 -0.854878 0)
(0.244598 -0.933108 0)
(0.274167 -1.00324 0)
(0.304398 -1.06587 0)
(0.33253 -1.1116 0)
(0.355516 -1.13341 0)
(0.371908 -1.13091 0)
(0.381916 -1.10792 0)
(0.0871569 -0.633102 0)
(0.150292 -0.821705 0)
(0.188215 -0.914477 0)
(0.217196 -0.989811 0)
(0.245872 -1.06153 0)
(0.273689 -1.12151 0)
(0.297775 -1.15832 0)
(0.315921 -1.16762 0)
(0.327881 -1.15261 0)
(0.334561 -1.11905 0)
(0.112339 -0.723784 0)
(0.145058 -0.881928 0)
(0.167112 -0.965195 0)
(0.191408 -1.04207 0)
(0.216462 -1.11429 0)
(0.240079 -1.16928 0)
(0.259464 -1.19572 0)
(0.273282 -1.19315 0)
(0.281946 -1.16764 0)
(0.28642 -1.12579 0)
(0.0756107 -0.809408 0)
(0.110868 -0.929059 0)
(0.134575 -1.01174 0)
(0.159275 -1.09056 0)
(0.18288 -1.16145 0)
(0.203492 -1.20954 0)
(0.219281 -1.22545 0)
(0.230174 -1.21274 0)
(0.237177 -1.17899 0)
(0.241075 -1.13077 0)
(0.0695935 -0.866817 0)
(0.0907213 -0.977372 0)
(0.111914 -1.0583 0)
(0.133265 -1.13508 0)
(0.152683 -1.2021 0)
(0.168838 -1.24235 0)
(0.1807 -1.24891 0)
(0.188904 -1.22857 0)
(0.194595 -1.18897 0)
(0.197962 -1.13491 0)
(0.0601657 -0.91294 0)
(0.074605 -1.01622 0)
(0.0922341 -1.09548 0)
(0.109527 -1.17025 0)
(0.124597 -1.23342 0)
(0.136306 -1.26658 0)
(0.144558 -1.266 0)
(0.150541 -1.24119 0)
(0.155599 -1.19945 0)
(0.160332 -1.14391 0)
(0.0503164 -0.943311 0)
(0.0619747 -1.04689 0)
(0.0762769 -1.12529 0)
(0.0896757 -1.19717 0)
(0.100501 -1.25561 0)
(0.10773 -1.28208 0)
(0.112255 -1.27599 0)
(0.115238 -1.2484 0)
(0.11754 -1.20606 0)
(0.120092 -1.15135 0)
(0.0422568 -0.969668 0)
(0.0525174 -1.07177 0)
(0.0641121 -1.14845 0)
(0.0743778 -1.21672 0)
(0.0819204 -1.26977 0)
(0.0858139 -1.29046 0)
(0.0880981 -1.28073 0)
(0.0899286 -1.25157 0)
(0.091988 -1.20843 0)
(0.0954126 -1.15335 0)
(0.0341146 -0.992237 0)
(0.0440179 -1.09225 0)
(0.0541497 -1.16719 0)
(0.0627497 -1.23181 0)
(0.0684705 -1.27893 0)
(0.0704145 -1.29517 0)
(0.0719166 -1.28461 0)
(0.0745155 -1.25643 0)
(0.0793532 -1.21429 0)
(0.0862751 -1.15967 0)
(0.0261572 -1.01349 0)
(0.036184 -1.11098 0)
(0.0457969 -1.18415 0)
(0.0537987 -1.24513 0)
(0.0587072 -1.28557 0)
(0.0595605 -1.2985 0)
(0.0609431 -1.2898 0)
(0.0648561 -1.26549 0)
(0.072963 -1.22754 0)
(0.08171 -1.17577 0)
(0.0188202 -1.03401 0)
(0.0289817 -1.12923 0)
(0.0385361 -1.20064 0)
(0.046289 -1.25786 0)
(0.0506429 -1.29073 0)
(0.0505852 -1.30108 0)
(0.0519372 -1.29597 0)
(0.0565048 -1.27742 0)
(0.0655416 -1.24781 0)
(0.072487 -1.20404 0)
(0.0127752 -1.05465 0)
(0.0227032 -1.1475 0)
(0.0322161 -1.21679 0)
(0.0393752 -1.26961 0)
(0.042768 -1.294 0)
(0.0413241 -1.30206 0)
(0.0421524 -1.30086 0)
(0.045442 -1.28744 0)
(0.051282 -1.26733 0)
(0.0530716 -1.23842 0)
(0.00924656 -1.0761 0)
(0.0180893 -1.16562 0)
(0.0271262 -1.2321 0)
(0.0329656 -1.27923 0)
(0.034949 -1.29449 0)
(0.031609 -1.30033 0)
(0.0314239 -1.30237 0)
(0.0320135 -1.29109 0)
(0.0324233 -1.27679 0)
(0.0291855 -1.26138 0)
(0.0095739 -1.0986 0)
(0.0159861 -1.18271 0)
(0.0238003 -1.2457 0)
(0.0275811 -1.28524 0)
(0.0281555 -1.29148 0)
(0.0227378 -1.29535 0)
(0.0214682 -1.30012 0)
(0.0197295 -1.28828 0)
(0.0159892 -1.2736 0)
(0.00996677 -1.26376 0)
(0.0134815 -1.12039 0)
(0.0167246 -1.19594 0)
(0.0230468 -1.25578 0)
(0.0239552 -1.28577 0)
(0.0233506 -1.28449 0)
(0.015672 -1.28704 0)
(0.0134217 -1.29456 0)
(0.0103759 -1.28213 0)
(0.00502535 -1.26194 0)
(-0.00246833 -1.25175 0)
(0.0205699 -1.12895 0)
(0.0203338 -1.20007 0)
(0.0249359 -1.2609 0)
(0.0212754 -1.28024 0)
(0.0199426 -1.27434 0)
(0.0100761 -1.27646 0)
(0.0074597 -1.28658 0)
(0.00355644 -1.27611 0)
(-0.000958685 -1.2468 0)
(-0.00866728 -1.23147 0)
(0.017823 -1.12124 0)
(0.0164964 -1.19954 0)
(0.0240833 -1.2651 0)
(0.0161223 -1.27142 0)
(0.0161753 -1.26354 0)
(0.00499856 -1.26556 0)
(0.00336767 -1.27749 0)
(-0.00233506 -1.27292 0)
(-0.0030349 -1.23284 0)
(-0.00892339 -1.20484 0)
(0.00441275 -1.11875 0)
(0.00445951 -1.20807 0)
(0.0218048 -1.27242 0)
(0.00964763 -1.26163 0)
(0.0125793 -1.25327 0)
(0.000316674 -1.25488 0)
(0.001169 -1.26705 0)
(-0.00873155 -1.27346 0)
(-0.00216342 -1.22435 0)
(-0.00405014 -1.17089 0)
(0.0001521 -1.08718 0)
(-0.00372028 -1.22676 0)
(0.0253941 -1.27724 0)
(0.00529256 -1.24987 0)
(0.0103103 -1.24274 0)
(-0.00317321 -1.24379 0)
(-6.23747e-05 -1.25372 0)
(-0.01724 -1.27496 0)
(0.00279136 -1.22634 0)
(0.00126809 -1.12499 0)
(0.00946409 -1.02186 0)
(-0.0146732 -1.26449 0)
(0.0293211 -1.27588 0)
(0.000694851 -1.2369 0)
(0.00822179 -1.23243 0)
(-0.0045792 -1.23306 0)
(0.00213262 -1.23877 0)
(-0.0248481 -1.27413 0)
(0.0137867 -1.256 0)
(-0.00685601 -1.05314 0)
(-0.0034232 -0.00445849 0)
(6.43629e-05 -0.00416156 0)
(0.00329051 -0.00382114 0)
(0.00623323 -0.00345161 0)
(0.0088729 -0.00306286 0)
(0.0111965 -0.00266267 0)
(0.0131976 -0.00225797 0)
(0.0148756 -0.0018562 0)
(0.0162362 -0.00146392 0)
(0.0172905 -0.00108682 0)
(0.0180547 -0.000730415 0)
(0.01855 -0.000398624 0)
(0.0188032 -9.58891e-05 0)
(0.018835 0.000168898 0)
(0.0186758 0.000391381 0)
(0.0183723 0.000565495 0)
(0.0179618 0.000688322 0)
(0.0174812 0.000761102 0)
(0.016968 0.000786254 0)
(0.0164588 0.000766079 0)
(0.0159887 0.000702622 0)
(0.015591 0.000597785 0)
(0.0152976 0.000453619 0)
(0.015138 0.000272483 0)
(0.0151403 5.8639e-05 0)
(0.0153251 -0.000184611 0)
(0.0157119 -0.00045343 0)
(0.0163114 -0.000737384 0)
(0.0171222 -0.00102047 0)
(0.0181241 -0.00127525 0)
(0.0192685 -0.00146084 0)
(0.0204666 -0.00151519 0)
(0.0215745 -0.00134812 0)
(0.0223842 -0.000836763 0)
(0.0226126 0.000153551 0)
(0.0217866 0.00172324 0)
(0.0195156 0.00393875 0)