/*--------------------------------*- C++ -*----------------------------------*\
  =========                 |
  \\      /  F ield         | OpenFOAM: The Open Source CFD Toolbox
   \\    /   O peration     | Website:  https://openfoam.org
    \\  /    A nd           | Version:  8
     \\/     M anipulation  |
\*---------------------------------------------------------------------------*/
FoamFile
{
    version     2.0;
    format      ascii;
    class       volScalarField;
    location    "7.6";
    object      p;
}
// * * * * * * * * * * * * * * * * * * * * * * * * * * * * * * * * * * * * * //

dimensions      [1 -1 -2 0 0 0 0];

internalField   nonuniform List<scalar> 
9150
(
-204.307
-205.315
-205.959
-206.417
-206.654
-206.659
-206.423
-205.958
-205.309
-204.303
-224.369
-224.877
-225.31
-225.636
-225.8
-225.785
-225.617
-225.304
-224.873
-224.366
-244.259
-244.535
-244.793
-245.01
-245.118
-245.116
-245.014
-244.792
-244.534
-244.258
-263.996
-264.167
-264.337
-264.494
-264.583
-264.574
-264.497
-264.339
-264.168
-263.997
-283.62
-283.793
-283.929
-284.053
-284.127
-284.127
-284.066
-283.935
-283.796
-283.621
-118.531
-119.167
-118.759
-118.399
-118.202
-118.196
-118.39
-118.755
-119.179
-118.542
-133.843
-134.554
-134.666
-134.711
-134.617
-134.624
-134.725
-134.67
-134.563
-133.847
-150.243
-151.006
-151.316
-151.671
-151.75
-151.759
-151.684
-151.315
-151.007
-150.247
-167.083
-168.259
-168.752
-169.356
-169.552
-169.566
-169.363
-168.765
-168.271
-167.089
-184.251
-186.249
-187.036
-187.691
-187.967
-187.976
-187.673
-187.026
-186.241
-184.247
-24.2971
-26.0601
-28.1755
-29.2021
-29.6395
-29.5551
-28.91
-27.8037
-25.8707
-24.2278
-44.8151
-45.1863
-46.2103
-46.6719
-47.1496
-47.1574
-46.6927
-46.2901
-45.2331
-44.8138
-65.2324
-65.0281
-66.0805
-65.7388
-66.1879
-66.1708
-65.6852
-66.0771
-65.0186
-65.239
-88.0488
-85.099
-86.0147
-84.5558
-84.6255
-84.6386
-84.5954
-86.0312
-85.1206
-88.0665
-112.939
-103.95
-103.239
-102.062
-101.592
-101.62
-102.094
-103.274
-103.968
-112.961
1469.79
1470.33
1470.88
1471.24
1471.52
1471.89
1472.33
1472.94
1473.35
1473.84
1450.4
1451.81
1452.88
1452.93
1452.68
1452.94
1453.29
1453.66
1454.04
1454.53
1430.2
1430.97
1431.61
1431.85
1430.64
1431.25
1432.36
1433.64
1434.35
1435.2
1408.89
1411.08
1412.32
1412.21
1411.63
1411.17
1412.7
1414.45
1415.79
1416.43
1389.47
1391.14
1392.52
1393.03
1393.44
1394.08
1394.34
1395.93
1397.05
1397.52
1369.23
1370.11
1371.76
1374.2
1375.33
1374.9
1375.26
1376.58
1377.4
1377.81
1347.05
1348.25
1349.08
1352.05
1353.57
1353.22
1354.45
1355.61
1356.55
1357
1322.96
1323.97
1325.66
1327.6
1329.66
1331.83
1333.55
1334.46
1335.5
1336.02
1304.82
1304.63
1306.04
1307.97
1309.74
1311.67
1312.64
1314
1314.94
1315.76
1290.45
1290.36
1290.8
1291.59
1292.51
1293.49
1294.4
1295.11
1295.74
1296.3
1275.66
1275.38
1275.43
1275.61
1275.83
1276.14
1276.47
1276.72
1277.04
1277.19
1259.77
1259.16
1258.64
1258.14
1258.36
1257.96
1258.1
1258.17
1258.19
1258.1
1242.2
1241.53
1240.87
1240.42
1240.05
1239.6
1239.39
1239.38
1239.33
1239.15
1223.47
1222.93
1222.32
1221.52
1221.25
1220.83
1220.42
1220.28
1220.15
1219.92
1203.37
1203.73
1202.92
1202.14
1201.61
1201.34
1201.1
1201.05
1200.89
1200.59
1185.29
1184.3
1183
1182.16
1181.77
1181.45
1181.54
1181.68
1181.78
1181.16
1164.69
1164.57
1165.77
1164.94
1162.77
1162.24
1162.53
1162.87
1162.9
1161.8
1146.31
1145.77
1145.57
1146.6
1146.66
1145.81
1144.95
1144.38
1144.09
1143.99
1126.75
1127.1
1127.44
1127.78
1127.79
1128.24
1127.86
1127.44
1127.04
1126.58
1108.61
1108.95
1109.67
1111
1110.16
1109.72
1110.2
1109.94
1109.56
1109
1090.01
1090.86
1091.88
1092.4
1092.4
1092.31
1091.18
1090.41
1091.14
1090.19
1073.41
1073.03
1073.7
1073.32
1072.56
1072.43
1072.25
1071.83
1071.22
1070.38
1055.54
1056.52
1055.51
1054.55
1054.47
1052.33
1050.44
1051.3
1051.06
1050.78
1036.82
1036.54
1035.04
1033.49
1032.67
1033.94
1034.02
1032.9
1030.73
1031.48
1016.21
1016.26
1015.66
1014.68
1013.8
1012.56
1014.04
1015.2
1014.85
1013.84
997.022
996.756
996.744
996.874
996.977
997.133
997.233
996.139
996.44
996.929
980.584
980.273
978.856
978.472
978.542
978.835
979.05
979.08
978.883
978.932
963.387
963.198
962.58
962.224
961.939
960.791
960.712
961.314
961.738
962.101
945.828
945.291
944.317
944.921
944.66
944.462
944.896
943.66
944.218
944.476
926.343
926.594
926.263
925.828
926.352
926.018
927.947
927.672
926.118
926.672
908.2
909.091
910.841
912.214
907.654
910.532
911.47
908.94
910.649
910.689
888.996
889.862
891.119
893.392
894.528
889.357
893.399
893.468
892.142
893.564
868.8
869.631
870.353
871.434
873.296
870.544
870.993
871.529
872.207
872.943
848.691
849.696
850.742
851.686
852.47
854.21
852.778
853.043
853.575
854.121
828.937
830.019
831.135
832.194
833.063
833.77
834.328
834.475
835.091
835.684
808.788
810.396
812.049
813.521
814.742
815.534
816.165
816.677
817.153
817.648
791.013
792.35
793.842
795.195
796.339
797.295
797.96
798.518
799.038
799.561
774.653
775.793
776.598
777.469
778.233
778.993
779.62
780.246
780.879
781.531
757.298
757.926
758.511
759.296
759.955
760.872
761.452
761.936
762.516
763.326
739.846
740.479
740.931
741.17
741.211
742.924
743.252
744.314
745.526
746.905
721.944
723.002
722.582
722.759
723.356
724.717
725.565
726.837
727.694
728.204
703.121
706.123
705.788
707.471
707.227
707.646
708.41
708.997
709.412
709.526
686.369
687.659
688.706
689.815
690.186
691.339
692.043
692.41
692.55
692.22
669.243
670.781
671.99
673.093
673.891
674.213
676.694
676.203
674.77
674.157
651.931
653.825
655.12
656.031
656.679
658.017
657.418
656.694
655.625
654.323
634.866
637.233
638.114
639.123
639.65
638.937
637.949
636.619
635.158
633.676
617.723
618.954
621.179
621.554
620.53
619.524
617.942
616.216
613.824
611.409
597.866
600.198
600.916
601.015
600.469
599.157
597.089
595.383
593.53
591.139
578.479
580.699
582.025
582.433
582.121
581.006
577.949
576.297
575.55
573.827
561.007
563.62
565.674
566.587
566.325
565.29
563.468
561.157
559.094
559.285
544.203
546.918
548.951
550.277
550.469
550.075
549.033
546.988
546.964
550.754
526.986
530.114
532.962
535.142
536.249
536.371
537.678
537.449
531.049
527.967
512.5
514.996
517.61
521.793
524.696
525.679
520.557
517.612
515.513
512.579
499.484
504.775
511.992
512.291
507.57
505.205
503.688
500.516
497.434
494.147
487.211
488.188
484.743
488.266
486.694
483.994
481.129
478.163
474.995
471.454
459.033
461.889
462.265
461.664
459.677
457.524
455.446
454.199
452.745
451.606
425.751
425.776
429.59
430.838
432.115
432.178
432.105
432.509
431.816
430.314
403.455
404.277
405.507
405.322
407.374
408.946
409.787
409.844
411.706
410.545
384.929
386.797
388.162
389.515
389.69
389.855
390.771
390.879
389.853
388.916
357.375
362.162
365.984
365.375
366.462
364.191
362.57
363.586
365.372
364.469
319.65
322.661
327.548
332.744
333.441
329.718
342.985
333.135
332.948
335.454
284.923
287.986
292.697
297.72
300.818
301.271
305.452
306.306
307.188
307.195
253.07
254.502
261.529
270.105
275.205
277.016
279.556
280.678
281.888
283.577
241.407
240.746
240.576
246.225
262.234
258.661
262.838
263.899
266.044
270.064
232.552
233.514
234.704
235.839
236.461
246.899
252.283
255.574
260.301
265.055
225.822
227.088
228.849
231.293
233.127
236.941
242.83
248.306
252.877
259.018
219.886
221.964
224.342
226.585
228.29
229.296
231.831
237.553
244.699
249.265
214.351
217.211
220.175
222.872
225.324
226.871
229.285
227.405
231.111
238.665
211.668
214.751
217.335
219.491
221.3
222.972
225.126
224.926
224.794
224.948
216.895
213.644
215.189
216.355
216.969
217.29
219.701
228.171
227.255
216.533
214.093
210.84
211.688
213.318
214.084
214.084
215.286
216.819
214.135
211.962
205.96
204.386
206.702
208.367
209.489
207.551
206.758
205.804
203.89
203.146
198.42
200.837
202.015
203.313
202.539
200.351
199.463
195.963
191.539
194.327
195.503
196.829
195.447
194.855
198.059
198.581
197.112
190.43
181.421
181.44
193.692
180.273
184.027
189.02
192.598
194.676
192.195
180.201
169.237
159.212
154.665
160.35
166.534
171.617
179.617
180.564
172.376
155.473
137.912
123.692
131.415
137.162
138.664
145.103
141.37
144.188
132.124
115.559
103.285
91.587
101.127
100.684
99.0715
89.6477
81.455
84.9058
82.9935
78.6238
79.5368
77.1949
76.1582
72.6706
64.6028
50.6339
44.9785
43.84
40.37
55.6598
58.9216
62.5804
62.8569
63.5116
57.3512
46.1791
35.7024
31.1091
24.2514
50.9124
56.3929
58.2134
60.4761
64.4247
64.9386
62.0571
60.5787
54.4258
34.3615
47.2108
51.2234
51.5435
54.6263
59.336
61.9517
67.948
68.1499
64.3491
54.36
52.3425
42.726
41.3338
44.4239
60.2816
51.6523
62.3511
66.9044
50.3574
47.3479
36.1288
31.9574
32.302
40.4497
43.8084
46.6453
44.9693
43.756
40.7302
26.6717
11.6461
27.0714
12.9216
31.4801
33.4587
34.4958
45.101
33.8336
28.1248
15.6985
28.9699
20.4799
2.43139
20.7479
20.8076
16.3796
33.7381
18.2346
16.4991
-11.5519
30.9206
17.8201
29.4856
11.1866
11.3548
7.97775
23.6659
12.3615
17.2751
6.47261
20.8959
6.53996
6.79518
5.33824
6.39286
5.66515
12.4404
10.7683
6.48485
0.187382
1.91467
-2.68282
-1.65588
1.37603
2.47423
0.769579
3.13997
5.41861
1.71998
-3.08514
-1.63488
-2.53902
-1.69772
-2.89407
-4.78141
-6.96914
0.787094
7.26927
2.31222
-2.90287
-1.48397
-1.50502
-1.63572
-1.91207
-3.21576
-4.96288
-10.2208
6.05252
5.77454
-1.81935
-1.62475
-1.62022
-1.62948
-1.90306
-1.89505
-1.85419
-7.0268
8.8176
3.74544
-1.98334
-1.74298
-1.74822
-1.79031
-1.89865
-1.8961
-1.86251
-3.73138
4.323
3.80948
-2.35891
-1.76056
-1.72485
-1.84336
-1.89224
-1.89122
-1.94929
-2.03727
2.91519
1.99581
-1.79477
-1.91447
-1.80958
-1.90821
-1.88792
-1.8873
-1.99956
-1.33581
0.863264
1.47985
-1.76157
-1.9786
-1.86085
-1.86922
-1.88747
-1.88826
-2.21092
-1.13277
-0.266319
0.194463
-1.01364
-2.18554
-1.86986
-1.87081
-1.89947
-1.89194
-3.32277
-1.39685
-0.0930387
-0.218157
-1.64209
-3.32288
-1.88013
-1.8819
-1.91498
-2.283
-4.63383
-2.69496
-1.61308
-1.54969
-2.37596
-4.3813
-2.33853
-1.89664
-1.9363
-3.9145
-5.44234
-5.80003
-5.9159
-5.77845
-5.84767
-5.71966
-4.04315
-1.93893
-2.7485
-9.42811
-12.6861
-14.5357
-15.4073
-15.6615
-14.999
-13.1001
-9.60247
-2.79114
1474.26
1474.53
1474.86
1474.99
1475.15
1475.15
1475.02
1474.21
1473.35
1472.45
1471.58
1470.74
1469.86
1469.07
1468.32
1467.75
1467.55
1467.68
1467.84
1467.84
1467.94
1468.23
1468.55
1468.85
1468.98
1468.87
1468.6
1468.44
1468.56
1468.84
1469.19
1469.42
1469.51
1469.49
1469.52
1469.75
1469.89
1469.85
1469.92
1469.87
1455
1455.37
1455.59
1455.6
1455.48
1455.34
1454.91
1454.27
1453.4
1452.52
1451.67
1450.79
1449.96
1449.09
1448.22
1447.68
1447.5
1447.45
1447.42
1447.43
1447.56
1447.76
1448.01
1448.29
1448.41
1448.28
1448.02
1448.46
1450.2
1448.67
1448.94
1449
1449.25
1449.47
1449.74
1450.11
1450.33
1450.36
1450.64
1450.57
1435.82
1436.2
1436.38
1436.29
1436.03
1435.45
1434.73
1433.89
1433.05
1432.25
1431.54
1431.03
1430.19
1429.72
1428.97
1428.91
1428.65
1428.48
1428
1427.05
1426.77
1426.73
1427.05
1427.52
1428.01
1428.36
1428.64
1430.32
1430.62
1430.34
1430.35
1430.37
1429.77
1429.8
1429.93
1430.11
1430.51
1430.87
1431.09
1431.1
1416.85
1417.03
1416.96
1416.64
1416.16
1415.29
1414.29
1413.36
1412.42
1411.63
1411.01
1411.25
1410.68
1409.28
1409.31
1409.17
1409.7
1409.13
1408.13
1407.22
1406.49
1406.34
1406.72
1407.25
1407.79
1408.23
1408.9
1409.57
1409.88
1410.76
1411.27
1411.28
1411.09
1411.14
1411.36
1411.48
1410.48
1410.7
1411.05
1411.06
1397.65
1397.47
1397.08
1396.44
1395.65
1394.7
1393.53
1392.13
1390.86
1390.36
1390.2
1389.87
1389.8
1389.71
1389.83
1390.21
1390.33
1389.45
1388.32
1386.98
1387.44
1386.68
1386.64
1387.32
1388.01
1388.31
1388.2
1388.76
1389.87
1390.7
1391.16
1391.27
1391.29
1391.71
1391.88
1391.4
1390.65
1390.59
1390.84
1390.95
1377.76
1377.5
1376.7
1375.95
1375.07
1374.08
1372.94
1372.34
1371.65
1369.8
1369.62
1369.62
1369.32
1369.43
1369.72
1369.87
1370.06
1370.04
1369.65
1369.52
1369.14
1368.83
1368.51
1368.73
1368.58
1368.75
1368.82
1368.58
1368.64
1369.64
1370.43
1370.81
1371.11
1370.81
1370.65
1370.59
1370.56
1370.49
1370.59
1370.68
1357.08
1356.92
1356.31
1355.73
1355.01
1354.23
1353.42
1352.87
1352.08
1351.06
1350.38
1349.62
1349.91
1349.94
1350.18
1350.39
1350.55
1350.64
1350.62
1350.5
1350.45
1350.15
1349.91
1349.78
1349.61
1350.17
1350.33
1350.02
1349.86
1349.83
1349.35
1350.23
1350.34
1350.1
1349.73
1349.7
1350.04
1350.23
1350.32
1350.39
1336.49
1336.34
1336.12
1335.76
1335.32
1334.8
1334.27
1333.79
1333.33
1332.78
1332.14
1331.47
1330.78
1330.35
1330.41
1330.53
1330.58
1330.7
1330.92
1331.06
1331.07
1330.98
1330.81
1330.81
1330.47
1330.41
1330.04
1329.73
1330.48
1330.16
1329.04
1329.55
1329.67
1329.76
1330.18
1330.16
1330.01
1330.02
1330.18
1330.24
1316.32
1316.22
1316.22
1316.09
1315.92
1315.68
1315.41
1315.16
1314.89
1314.46
1313.9
1313.34
1312.93
1312.43
1312.18
1312.06
1311.98
1311.67
1311.73
1311.84
1311.82
1311.69
1311.41
1311.3
1310.79
1310.3
1309.68
1309
1308.59
1308.52
1308.51
1308.68
1308.99
1309.06
1309.62
1309.7
1309.86
1310.01
1310.12
1310.23
1296.5
1296.71
1296.83
1296.87
1296.84
1296.78
1296.68
1296.53
1296.37
1296.17
1295.96
1295.68
1295.3
1295.15
1294.97
1294.8
1294.57
1294.22
1293.45
1293.21
1292.87
1292.45
1291.97
1291.47
1290.68
1289.83
1288.82
1287.83
1287.05
1286.92
1286.93
1287.26
1287.69
1288.09
1288.75
1289.19
1289.58
1289.96
1289.93
1290.23
1277.23
1277.36
1277.47
1277.54
1277.57
1277.58
1277.54
1277.49
1277.45
1277.43
1277.38
1277.25
1277.24
1277.51
1277.63
1277.63
1277.39
1276.92
1276.07
1275.45
1274.55
1273.51
1272.36
1271.42
1270.03
1268.37
1266.17
1264.81
1263.75
1263.48
1263.72
1266.06
1265.61
1266.73
1267.6
1268.06
1269.42
1270.13
1269.16
1269.59
1257.96
1257.82
1257.78
1257.85
1257.91
1258
1258.05
1258.13
1258.24
1258.37
1258.5
1258.61
1258.8
1259.26
1259.79
1259.94
1259.9
1259.42
1259
1258.11
1257.01
1255.94
1254.05
1250.56
1247.24
1243.79
1240.34
1237.38
1236.01
1236.41
1238.76
1241.27
1242.07
1243.72
1245.08
1246.09
1246.85
1248.44
1248.39
1249.16
1238.82
1238.45
1238.25
1238.19
1238.13
1238.38
1238.52
1238.66
1238.84
1239.09
1239.36
1239.68
1240.04
1240.49
1241.01
1241.52
1241.91
1242.05
1241.78
1241.14
1240.63
1238.92
1234.2
1229.85
1222.97
1219.26
1217.28
1216.1
1217.08
1218.64
1217.98
1218.88
1220.37
1221.71
1223.11
1224.44
1225.47
1226.17
1227.32
1227.11
1219.59
1219.22
1218.93
1218.75
1218.64
1219.15
1219.04
1219.83
1219.71
1219.78
1220.11
1220.51
1220.97
1221.53
1222.16
1222.85
1223.53
1223.92
1223.66
1224.45
1222.78
1219.67
1217.27
1210.4
1206.49
1203.13
1200.64
1200.08
1201.5
1203.85
1201.67
1201.03
1201.21
1201.42
1202.44
1203.49
1204.37
1205.09
1205.75
1206.27
1200.22
1199.78
1199.49
1199.43
1199.41
1199.67
1199.77
1200.26
1200.58
1200.39
1200.74
1201.18
1201.65
1202.18
1202.77
1203.45
1204.08
1204.31
1204.72
1205.28
1202.57
1200.61
1196.2
1191.28
1192.02
1190.77
1189.42
1188.35
1186.86
1185.88
1185.58
1184.46
1183.75
1183.34
1183.27
1183.71
1184.17
1184.74
1185.23
1185.9
1180.7
1180.39
1180.1
1180.09
1180.13
1180.11
1180.38
1180.6
1180.82
1180.94
1181.29
1181.69
1182.09
1182.45
1182.73
1183.02
1183.3
1184.24
1184
1182.62
1181.07
1179.24
1176.18
1173.01
1172.15
1176.69
1173.84
1168.56
1167.94
1166.67
1165.57
1164.95
1164.28
1163.71
1163.57
1163.89
1164.38
1164.97
1165.55
1166
1160.85
1160.48
1160.46
1160.51
1160.64
1160.6
1162.27
1160.67
1161.1
1161.43
1161.88
1162.33
1162.81
1162.94
1162.74
1162.85
1162.91
1162.29
1161.02
1159.58
1158.25
1156.49
1154.07
1152.15
1150.67
1149.35
1148.25
1147.92
1146.84
1145.75
1148.61
1145.71
1145
1144.81
1144.64
1144.73
1145.37
1146.15
1146.57
1146.81
1143.84
1142.72
1141.47
1141.53
1142.23
1141.35
1142.4
1140.83
1141.45
1141.87
1142.33
1142.62
1142.98
1142.88
1142.24
1141.99
1141.05
1139.16
1136.92
1134.88
1133.69
1132.39
1130.64
1129.13
1127.98
1127.37
1127.11
1126.95
1126.52
1127.83
1128.79
1128.85
1128.79
1126.86
1126.05
1126.55
1127.07
1128.19
1128.5
1128.7
1125.87
1125.46
1123.7
1123.35
1123.18
1122.66
1122.76
1122.38
1122.33
1122.55
1122.66
1122.66
1122.46
1121.77
1120.57
1119.49
1117.65
1115.32
1111.71
1108.77
1107.53
1107.24
1106.5
1105.69
1105.1
1104.92
1104.66
1104.48
1104.62
1105.28
1106.07
1107.02
1107.84
1108.58
1107.48
1107.43
1108.05
1109.99
1111.26
1111.57
1108.03
1106.32
1105.26
1105.6
1105.15
1105.03
1104.77
1104.25
1103.66
1103.48
1103.12
1102.67
1101.9
1100.7
1099.18
1097.4
1095.34
1091.96
1090.05
1085.75
1083.26
1083.79
1083.91
1083.18
1082.29
1082.4
1082.09
1081.49
1081.28
1081.51
1082.54
1083.98
1084.8
1084.64
1085.24
1089.84
1091.41
1092.09
1095.25
1095.47
1088.64
1087.82
1087.16
1086.83
1086.48
1086.17
1086.47
1085.46
1084.91
1084.47
1083.81
1083.08
1081.76
1080.19
1078.72
1076.63
1074.74
1071.93
1071.65
1068.25
1063.3
1063.25
1062.9
1062.67
1060.49
1060.33
1060.13
1059.3
1058.27
1057.62
1057.61
1058.57
1060.42
1062.97
1065.91
1069.63
1076.46
1082.28
1086
1086.42
1069.7
1069.11
1068.62
1068.3
1068.01
1067.62
1067.18
1066.69
1066.27
1065.56
1064.87
1063.86
1064.12
1060.51
1058.75
1056.99
1055.11
1052.36
1050.77
1047.46
1044.52
1043.61
1043.36
1042.18
1040.78
1039.56
1038.96
1037.85
1035.59
1032.17
1028.58
1027.32
1030.33
1035.54
1041.5
1049.52
1058.39
1066.29
1071.57
1072.71
1050.51
1050.2
1049.91
1049.63
1049.3
1048.98
1048.55
1048.02
1047.69
1046.9
1046.07
1044.97
1045.16
1041.48
1040.12
1037.91
1035.67
1033.28
1031.15
1028.38
1025.8
1024.98
1024.56
1022.3
1021.62
1020.35
1019.51
1018.28
1013.88
1009.61
1006.28
1003.06
996.771
1002.31
1011.49
1022.69
1033.5
1041.64
1046.69
1050.11
1031.33
1031.21
1031.21
1031.06
1030.83
1030.58
1030.21
1029.74
1029.42
1028.59
1027.64
1026.43
1026.36
1022.65
1021.58
1018.48
1017.18
1015.06
1012.61
1009.98
1007.36
1006.63
1005.72
1004.41
1003.65
1005.82
1004.22
1003.25
997.184
991.055
990.222
985.005
983.275
983.871
985.242
993.969
1005.11
1014.05
1019.89
1023.28
1012.06
1012.55
1012.88
1012.79
1012.64
1012.49
1012.16
1011.7
1011.2
1010.52
1009.57
1008.69
1007.72
1004.32
1003.45
1000.17
999.419
997.234
994.681
991.818
988.992
987.769
987.5
985.064
985.91
987.608
987.628
985.952
983.906
980.411
977.924
975.1
973.102
973.237
973.94
975.427
983.021
991.023
995.231
998.224
997.22
996.866
995.476
994.809
994.728
994.53
994.226
993.805
993.301
992.666
991.774
990.888
989.857
986.559
985.716
983.496
982.121
980.087
977.264
974.007
970.414
968.124
965.48
966.489
966.284
966.597
968.276
967.076
966.282
966.506
966.905
966.674
966.14
966.609
966.942
966.147
966.932
976.272
980.05
980.52
980.484
981.373
981.373
979.46
977.461
977.076
976.702
976.28
975.741
975.141
974.363
973.383
972.425
970.512
967.623
967.075
965.074
963.512
960.975
957.937
954.345
949.899
946.701
945.526
946.08
949.027
951.605
952.97
954.945
957.612
958.444
958.946
958.941
959.287
959.667
960.128
958.623
964.078
966.972
968.175
962.592
963.214
966.166
964.07
960.498
960.031
959.548
959.1
958.585
958.002
957.296
956.46
955.292
953.658
952.17
950.016
948.902
947.303
945.205
944.194
941.45
935.9
932.392
931.723
933.205
936.752
940.781
943.639
946.096
950.751
951.097
951.487
951.909
951.852
951.723
952.056
952.549
957.079
955.044
955.151
944.64
944.505
943.752
944.82
943.531
942.844
942.493
942.13
941.64
941.069
940.373
939.597
938.791
937.446
935.981
934.691
932.988
932.134
929.066
927.805
924.802
922.893
922.002
922.17
924.092
927.05
930.855
934.586
938.004
943.156
944.006
943.952
944
944.074
943.996
944.047
945.87
948.644
944.867
946.403
926.831
926.933
926.915
926.909
927.044
926.382
925.897
925.553
925.055
924.398
923.498
922.854
922.112
921.701
920.406
919.234
918.346
917.604
915.921
914.899
914.645
913.016
912.581
912.793
914.259
916.789
919.919
923.139
926.74
931.318
934.433
935.277
936.132
936.662
936.899
935.446
936.358
937.792
934.497
936.532
908.535
909.123
909.313
909.518
909.41
909.203
909.149
908.857
908.396
907.677
906.929
906.689
906.369
905.739
905.259
905.106
904.101
904.856
904.092
902.547
902.945
901.971
902.877
903.066
905.261
905.469
907.546
909.833
913.072
917.202
920.262
923.453
929.305
930.044
925.772
921.27
923.028
923.396
923.26
924.991
894.024
893.868
892.482
892.11
892.177
892.266
892.316
892.198
891.883
891.313
890.609
890.525
890.152
889.685
889.089
889.179
888.863
888.292
888.097
888.358
889.259
889.946
891.087
892.195
893.019
893.047
896.108
896.264
896.346
897.21
897.881
900.327
901.604
903.249
905.558
906.036
906.938
907.394
907.429
909.796
873.088
873.894
874.324
874.941
875.89
876.272
876.545
876.434
874.961
874.923
874.226
873.971
873.575
872.507
872.301
872.035
871.713
871.491
871.814
872.625
873.764
875.272
876.798
878.059
878.877
879.403
879.968
881.185
882.057
879.795
880.898
882.326
884.67
885.862
886.817
887.167
887.551
888.75
890.09
893.426
854.557
855.211
855.701
855.946
856.366
857.252
857.859
857.955
857.849
856.844
856.699
855.998
855.32
854.877
854.354
854.128
853.686
853.666
854.361
855.27
856.428
857.668
859.863
861.77
861.003
862.087
863.432
862.539
861.759
862.902
864.969
864.453
864.522
865.292
865.808
866.701
867.968
869.655
871.258
873.846
836.3
836.893
837.295
837.584
837.867
838.547
839.098
839.305
838.924
838.594
838.221
837.561
836.531
837.787
836.737
837.298
836.942
837.084
835.72
837.197
837.957
839.634
841.466
841.522
842.614
840.982
841.413
842.9
841.295
841.011
841.714
842.567
842.476
842.176
841.917
843.71
848.515
848.494
851.906
851.461
818.184
818.686
819.214
819.548
819.567
819.502
819.914
819.637
819.806
819.885
819.774
819.415
819.105
820.223
819.861
819.236
819.305
819.626
819.095
818.553
819.284
820.249
821.212
821.412
820.574
821.184
821.175
818.832
819.867
820.415
820.622
820.153
818.905
818.369
821.183
825.163
823.047
828.066
829.263
831.507
800.139
800.692
801.71
801.81
802.482
802.22
803.682
803.486
803.276
802.291
802.041
801.901
801.41
802.068
801.925
801.519
801.377
801.314
800.487
799.55
799.566
799.798
799.925
800.023
800.897
799.165
797.383
797.757
799.079
799.844
800.066
799.605
800.681
800.313
801.171
804.186
804.939
807.592
808.636
811.105
782.273
783.091
783.752
784.437
784.892
785.373
786.432
786.345
786.138
785.581
784.548
783.984
783.587
783.128
783.52
783.479
782.439
781.287
780.643
780.09
779.624
779.438
779.477
779.488
778.971
781.709
780.799
778.218
779.241
780.871
781.184
782.209
782.662
782.918
785.43
786.206
786.914
788.669
789.134
791.688
764.502
765.582
766.537
767.276
767.913
768.506
769.159
769.754
769.503
767.964
766.497
765.28
764.341
763.48
762.751
762.383
761.303
760.712
760.261
759.822
759.552
759.538
759.64
759.6
758.896
759.855
760.676
759.578
760.616
762.962
763.251
765.798
766.681
766.981
767.563
767.377
768.093
770.425
770.15
772.333
746.714
747.556
748.962
750.064
750.924
751.728
752.621
753.058
752.852
752.531
748.485
746.989
745.733
744.468
743.267
742.103
741.132
740.332
739.711
739.28
739.002
738.821
738.824
738.658
738.559
738.962
739.326
739.734
741.206
743.698
745.56
748.143
751.793
754.002
751.67
752.317
752.017
752.087
753.029
753.907
728.125
728.655
729.816
731.052
732.104
732.783
733.319
733.606
733.306
732.551
732.067
730.847
726.994
724.562
722.827
721.335
720.089
719.243
718.628
718.152
717.849
717.626
718.31
718.858
718.93
718.399
718.126
718.3
719.874
722.819
726.66
730.949
735.154
736.462
737.649
738.521
739.881
738.926
737.69
738.687
709.863
710.215
710.428
710.421
710.34
710.511
710.65
710.268
709.431
708.24
706.494
704.589
703.952
703.058
700.991
699.104
697.907
697.269
696.854
696.627
696.786
696.99
699.252
699.617
699.479
698.626
697.579
697.101
698.469
701.724
706.95
712.617
717.406
720.257
725.115
724.373
725.988
723.963
723.697
722.235
691.831
691.211
690.135
688.869
687.441
685.76
684.039
682
679.31
676.608
674.36
673.436
674.227
674.925
675.668
675.699
675.528
675.105
674.372
673.68
674.587
675.272
676.811
680.371
680.579
677.468
676.991
676.863
678.925
683.43
689.604
695.266
700.285
703.84
713.081
708.909
709.416
707.292
708.481
708.339
672.967
671.07
668.375
665.513
662.448
658.523
654.028
648.563
641.568
635.314
632.129
634.094
640.227
644.538
645.191
646.547
648.726
650.639
651.832
652.505
652.915
654.259
654.821
655.614
659.807
657.178
657.933
659.743
663.446
668.793
674.796
679.855
684.562
686.958
695.124
692.74
693.702
693.157
692.479
694.97
652.43
649.677
647.02
643.735
639.343
633.414
625.151
613.394
600.833
592.207
601.232
603.908
608.052
613.386
616.801
621.744
625.806
627.996
629.164
630.613
632.194
634.014
635.969
637.931
639.687
641.579
644.095
647.264
651.685
656.552
661.254
664.656
667.846
669.955
671.267
678.974
673.507
675.726
673.828
675.454
631.332
628.711
625.629
622.318
617.68
611.593
603.99
594.147
584.869
583.232
583.189
587.238
590.219
592.133
593.905
600.855
605.604
607.507
608.545
609.459
611.895
615.539
618.676
621.015
622.755
625.216
627.791
632.648
637.022
641.051
644.599
647.658
650.192
651.815
652.929
656.282
664.148
654.275
655.969
655.658
608.943
606.409
603.081
600.275
596.936
592.955
588.218
582.306
575.7
573.846
576.054
577.61
579.32
580.652
582.32
584.659
585.253
585.956
585.811
587.374
595.104
599.771
603.242
603.818
603.674
605.967
613.77
618.845
619.843
623.988
626.796
629.717
631.193
632.085
632.553
634.138
641.697
633.971
635.792
635.887
588.408
586.175
590.458
584.424
578.997
577.935
575.724
572.109
569.165
567.605
568.455
568.794
569.896
570.949
572.328
573.894
575.047
574.262
576.054
584.79
590.348
593.838
592.166
592.899
595.262
592.91
593.235
596.83
601.347
604.22
607.767
610.509
611.267
611.536
611.002
612.121
615.987
616.284
616.354
617.334
572.434
572.49
572.405
570.357
565.415
564.658
563.689
562.146
560.512
559.232
559.118
562.208
562.676
562.597
562.823
563.505
564.14
564.399
564.485
564.486
570.044
574.771
574.538
577.8
576.03
572.65
574.651
578.229
581.425
584.155
588.324
589.845
591.908
591.688
591.248
593.052
595.294
596.789
597.091
599.475
561.475
560.494
559.54
557.776
552.143
550.204
549.63
548.944
548.607
548.324
548.755
550.107
551.139
552.491
552.738
553.675
553.997
553.252
552.019
552.6
555.598
555.74
555.142
554.031
554.317
555.323
557.167
559.615
562.158
565.725
568.537
570.486
572.36
572.942
573.152
575.663
577.378
578.287
578.412
582.12
548.981
546.742
546.817
542.606
536.292
533.719
532.342
531.861
531.761
532.001
532.992
534.296
536.466
538.874
539.623
542.418
543.558
542.937
538.748
537.053
537.002
537.343
537.151
536.997
537.607
538.375
539.47
541.713
544.523
547.084
549.348
551.504
553.383
555.027
556.189
558.923
560.391
561.331
561.021
566.879
526.467
525.633
523.262
520.689
517.631
514.921
513.2
512.555
512.336
512.47
513.049
514.013
515.109
515.883
516.888
519.672
522.225
519.945
519.682
519.491
519.171
518.995
519.155
519.48
519.792
520.637
522.217
524.092
526.028
528.064
530.269
532.56
535.092
537.485
539.371
541.587
542.23
547.626
546.595
550.544
509.895
506.736
503.561
500.251
497.796
495.54
493.749
492.496
491.623
491.382
492.056
493.227
494.261
494.903
495.672
496.472
497.985
499.097
499.704
499.905
500.239
500.572
500.805
501.597
502.385
503.169
504.051
505.249
506.613
508.224
510.38
513.557
517.308
520.986
523.826
525.143
526.646
528.372
530.943
531.945
489.253
485.483
484.19
482.278
478.835
476.601
474.326
471.857
469.69
469.106
470.15
472.209
474.098
475.622
476.756
477.825
479.13
480.043
480.529
480.698
481.206
481.903
482.578
483.579
484.274
483.926
484.861
485.505
486.045
486.269
487.43
490.964
495.593
499.406
502.409
504.07
505.966
507.27
509.709
509.956
469.336
466.814
464.513
462.613
460.48
457.933
455.068
451.915
449.119
448.46
451.825
453.438
454.615
456.755
458.514
460.346
461.309
462.166
462.608
461.842
462.052
462.496
463.604
464.703
465.978
464.742
465.123
465.09
465.077
464.511
463.585
464.06
466.436
469.33
471.005
472.892
476.114
478.72
481.362
482.53
450.221
447.425
445.052
443.351
441.743
440.263
437.75
434.555
432.201
432.287
435.091
439.106
441.432
438.836
439.871
440.996
441.254
441.557
441.213
441.479
442.308
443.48
444.973
445.96
447.232
446.319
446.535
446.795
446.68
445.078
442.077
439.005
434.989
429.955
441.933
435.623
441.581
446.889
450.925
453.496
430.664
429.433
425.403
424.199
423.31
422.31
420.668
418.914
418.227
419.033
420.112
421.161
424.43
426.428
425.421
421.611
418.593
418.632
418.877
420.25
421.682
423.041
424.477
426.196
427.52
427.579
428.045
428.16
427.514
424.908
420.316
413.967
406.307
403.507
405.411
409.111
412.885
418.437
422.66
425.98
407.63
406.646
404.912
404.651
404.5
403.95
402.571
401.599
401.68
402.438
403.539
405.132
406.788
407.769
408.24
405.033
403.026
401.425
399.105
400.278
400.844
403.519
403.869
404.667
405.266
407.855
408.854
408.899
407.833
405.403
400.678
393.919
389.897
387.181
388.093
392.792
394.318
398.542
402.069
404.744
388.235
384.017
383.744
382.899
385.521
385.893
382.7
382.827
383.402
384.206
385.667
388.032
389.761
390.326
389.184
385.992
384.862
383.68
383.116
381.795
382.019
384.207
385.669
391.089
386.685
389.209
390.754
391.231
391.445
389.955
386.232
380.83
379.573
379.357
381.335
385.1
384.795
387.253
390.37
391.984
363.145
361.68
359.831
359.999
360.214
362.721
361.661
363.531
364.48
366.653
368.013
368.335
369.859
370.398
369.745
368.152
366.426
365.169
361.645
362.867
367
369.122
373.365
374.481
373.727
377.526
378.642
379.463
379.908
379.858
377.575
375.067
374.875
375.229
373.753
376.316
377.902
380.643
383.509
384.826
336.434
336.016
336.022
336.144
338.007
340.089
342.33
344.943
346.861
349.556
355.53
353.663
352
351.397
350.568
348.787
345.543
341.825
343.585
348.364
353.082
356.606
360.458
362.906
363.962
363.901
365.2
366.169
366.84
367.014
363.071
360.351
372.435
364.991
367.767
368.293
370.058
373.782
377.914
380.235
310.04
312.004
313.19
314.728
316.518
319.982
323.68
327.353
330.826
334.231
337.481
337.936
337.104
336.609
335.806
333.226
328.188
325.555
328.23
333.726
338.857
343.134
346.302
349.055
352.644
356.38
358.432
358.513
353.5
357.954
352.58
352.057
359.592
353.752
356.707
357.288
359.851
365.278
370.954
373.993
287.25
291.108
293.948
296.634
299.726
303.293
307.663
311.989
316.041
319.838
323.09
324.711
325.49
324.864
324.061
323.17
318.799
315.606
317.945
322.784
327.658
331.699
335.016
338.33
341.457
345.144
347.967
348.961
344.546
346.914
343.6
344.216
349.223
344.189
345.457
347.609
351.487
357.029
363.902
367.818
275.222
279.528
281.95
285.349
288.28
290.665
294.35
299.03
303.974
308.503
312.26
315.165
316.914
317.718
314.968
321.526
314.396
309.182