/*--------------------------------*- C++ -*----------------------------------*\
  =========                 |
  \\      /  F ield         | OpenFOAM: The Open Source CFD Toolbox
   \\    /   O peration     | Website:  https://openfoam.org
    \\  /    A nd           | Version:  8
     \\/     M anipulation  |
\*---------------------------------------------------------------------------*/
FoamFile
{
    version     2.0;
    format      ascii;
    class       surfaceScalarField;
    location    "7.6";
    object      phi;
}
// * * * * * * * * * * * * * * * * * * * * * * * * * * * * * * * * * * * * * //

dimensions      [0 3 -1 0 0 0 0];

internalField   nonuniform List<scalar> 
18095
(
2.0048e-08
-1.72191e-07
1.52143e-07
2.3185e-08
-1.97451e-07
1.94314e-07
1.96263e-08
-2.06044e-07
2.09603e-07
1.02068e-08
-2.10393e-07
2.19813e-07
-1.50735e-09
-2.13212e-07
2.24926e-07
-1.27407e-08
-2.13398e-07
2.24631e-07
-2.06755e-08
-2.11823e-07
2.19758e-07
-2.32738e-08
-2.06172e-07
2.0877e-07
-2.00489e-08
-1.97262e-07
1.94037e-07
-1.72054e-07
1.52005e-07
1.55001e-08
-1.87691e-07
1.61885e-08
-1.9814e-07
1.22458e-08
-2.02102e-07
7.01498e-09
-2.05163e-07
1.2493e-09
-2.07446e-07
-5.40931e-09
-2.06739e-07
-1.19022e-08
-2.0533e-07
-1.62945e-08
-2.01779e-07
-1.55513e-08
-1.98005e-07
-1.87605e-07
6.76857e-09
-1.9446e-07
8.38019e-09
-1.99751e-07
7.20464e-09
-2.00926e-07
3.7954e-09
-2.01753e-07
-8.66971e-10
-2.02784e-07
-4.74043e-09
-2.02866e-07
-7.55536e-09
-2.02515e-07
-8.47906e-09
-2.00856e-07
-6.8014e-09
-1.99683e-07
-1.94407e-07
4.48098e-09
-1.9894e-07
4.71105e-09
-1.99981e-07
3.71637e-09
-1.99931e-07
2.30795e-09
-2.00345e-07
5.09218e-10
-2.00985e-07
-1.56019e-09
-2.00796e-07
-3.72385e-09
-2.00352e-07
-4.76211e-09
-1.99817e-07
-4.52421e-09
-1.99921e-07
-1.98931e-07
1.05952e-09
1.07826e-09
1.14688e-09
8.02054e-10
-1.82733e-10
-9.79186e-10
-1.33082e-09
-1.14831e-09
-1.06899e-09
-2.90676e-08
-1.95667e-07
2.24734e-07
-3.13994e-08
-1.99348e-07
2.0168e-07
-2.52696e-08
-2.01514e-07
1.95384e-07
-1.37372e-08
-2.0192e-07
1.90388e-07
1.31986e-09
-2.02184e-07
1.87127e-07
1.58393e-08
-2.02059e-07
1.8754e-07
2.62094e-08
-2.01296e-07
1.90926e-07
3.15531e-08
-2.00917e-07
1.95574e-07
2.90726e-08
-1.99331e-07
2.01811e-07
-1.95764e-07
2.24837e-07
-9.23974e-09
-1.86427e-07
-1.50566e-08
-1.93531e-07
-1.30296e-08
-2.03541e-07
-6.82951e-09
-2.0812e-07
-1.26564e-09
-2.07748e-07
4.50808e-09
-2.07833e-07
1.1554e-08
-2.08342e-07
1.47622e-08
-2.04125e-07
9.25097e-09
-1.93819e-07
-1.86513e-07
-9.68995e-09
-1.76737e-07
-7.837e-09
-1.95384e-07
-6.55742e-09
-2.0482e-07
-4.0618e-09
-2.10616e-07
1.41938e-09
-2.13229e-07
6.73948e-09
-2.13153e-07
8.30224e-09
-2.09905e-07
8.52965e-09
-2.04353e-07
9.80785e-09
-1.95098e-07
-1.76705e-07
-6.39918e-09
-1.70338e-07
-8.46487e-09
-1.93318e-07
-8.38553e-09
-2.04899e-07
-4.59722e-09
-2.14404e-07
-1.61351e-09
-2.16213e-07
1.68446e-09
-2.16451e-07
6.94494e-09
-2.15165e-07
7.92442e-09
-2.05332e-07
6.3366e-09
-1.9351e-07
-1.70369e-07
-1.81949e-08
-1.71989e-08
-1.24953e-08
-7.08704e-09
1.62557e-09
9.80577e-09
1.43985e-08
1.78362e-08
1.83634e-08
3.77899e-08
-1.58409e-07
1.20619e-07
4.31878e-08
-1.99225e-07
1.93827e-07
3.75531e-08
-2.11233e-07
2.16867e-07
2.48143e-08
-2.16308e-07
2.29047e-07
7.28128e-09
-2.16865e-07
2.34398e-07
-1.13238e-08
-2.17279e-07
2.35884e-07
-2.76665e-08
-2.15337e-07
2.3168e-07
-3.90988e-08
-2.09764e-07
2.21196e-07
-3.72953e-08
-1.97867e-07
1.96064e-07
-1.57713e-07
1.20418e-07
1.67204e-08
-1.75129e-07
1.84268e-08
-2.00931e-07
1.4553e-08
-2.07359e-07
6.66306e-09
-2.08419e-07
-2.53934e-09
-2.07662e-07
-1.2181e-08
-2.07637e-07
-1.85475e-08
-2.0897e-07
-2.08164e-08
-2.07495e-07
-1.7499e-08
-2.01184e-07
-1.75212e-07
7.43185e-09
-1.82561e-07
8.44566e-09
-2.01945e-07
7.38405e-09
-2.06297e-07
2.67506e-09
-2.0371e-07
-2.80161e-10
-2.04707e-07
-3.10193e-09
-2.04815e-07
-7.10951e-09
-2.04963e-07
-8.17209e-09
-2.06433e-07
-7.48796e-09
-2.01869e-07
-1.827e-07
7.59916e-09
-1.9016e-07
4.95982e-09
-1.99306e-07
6.32207e-09
-2.07659e-07
3.12027e-09
-2.00508e-07
1.60805e-09
-2.03195e-07
-2.46397e-10
-2.02961e-07
-6.01188e-09
-1.99197e-07
-4.98325e-09
-2.07461e-07
-7.47994e-09
-1.99372e-07
-1.9018e-07
3.4574e-08
3.69479e-08
2.46723e-08
1.45525e-08
-1.5153e-09
-1.69364e-08
-2.52076e-08
-3.70954e-08
-3.46563e-08
-1.98332e-08
7.9579e-09
1.18753e-08
-2.18287e-08
1.99574e-09
-1.80627e-08
-3.76599e-09
-1.05351e-08
-7.52755e-09
-7.60403e-09
-2.93103e-09
-7.71933e-09
1.15311e-10
-7.49585e-09
-2.2351e-10
-9.6124e-09
2.11651e-09
-1.95896e-08
9.97719e-09
1.40874e-08
-3.36771e-08
1.40842e-07
2.99221e-08
-1.62807e-07
9.75388e-08
4.52997e-08
3.86374e-08
5.51356e-08
-8.1007e-09
3.92106e-08
-2.36145e-08
1.25829e-08
-2.15867e-08
-1.91249e-09
-1.75625e-08
-4.24778e-09
-1.31222e-08
-2.32383e-09
-1.41646e-08
1.10195e-08
2.08803e-08
-2.09576e-08
1.73748e-07
3.97583e-08
-1.83584e-07
1.40244e-07
7.88049e-08
8.40856e-08
1.11294e-07
2.27508e-08
1.00546e-07
-2.05462e-08
5.588e-08
-3.45983e-08
1.21398e-08
-3.17333e-08
-7.11264e-09
-2.67845e-08
-7.27251e-09
-2.33968e-08
7.63197e-09
2.6972e-08
-2.94884e-08
1.62448e-07
3.17716e-08
-1.54461e-07
1.60972e-07
8.02824e-08
1.58754e-07
1.13512e-07
1.44608e-07
1.14692e-07
1.00956e-07
9.95318e-08
6.0989e-08
5.21075e-08
3.60404e-08
1.78363e-08
1.78805e-08
1.08877e-08
4.32468e-09
2.11881e-08
4.54618e-08
-1.41648e-08
1.56507e-07
3.74138e-08
-1.62149e-07
1.59293e-07
7.74966e-08
1.64226e-07
1.0858e-07
1.68856e-07
1.10062e-07
1.65594e-07
1.02794e-07
1.37205e-07
8.04963e-08
9.97388e-08
5.53034e-08
6.58912e-08
4.47358e-08
3.14777e-08
5.5602e-08
7.78192e-08
-8.793e-10
1.5638e-07
4.35127e-08
-1.62479e-07
1.51778e-07
8.20998e-08
1.52792e-07
1.07566e-07
1.6263e-07
1.00224e-07
1.64698e-07
1.00727e-07
1.49019e-07
9.61758e-08
1.20226e-07
8.4097e-08
7.90396e-08
8.59231e-08
3.44434e-08
1.00199e-07
1.13569e-07
-1.30589e-09
1.4643e-07
4.45902e-08
-1.47508e-07
1.44601e-07
8.39297e-08
1.48533e-07
1.03634e-07
1.40298e-07
1.0846e-07
1.31553e-07
1.09473e-07
1.18233e-07
1.09496e-07
8.62399e-08
1.16091e-07
4.14683e-08
1.30695e-07
2.68841e-09
1.38979e-07
1.39561e-07
-2.33028e-08
7.51549e-08
4.73776e-08
-7.79421e-08
8.2721e-08
7.63639e-08
8.42456e-08
1.0211e-07
7.39852e-08
1.18721e-07
5.29907e-08
1.30467e-07
2.31822e-08
1.39305e-07
-8.99022e-09
1.48264e-07
-3.03742e-08
1.5208e-07
-4.26366e-08
1.51242e-07
1.45465e-07
-4.85401e-08
-8.58269e-08
6.11971e-08
7.20075e-08
-9.1418e-08
8.19553e-08
-9.26418e-08
1.03334e-07
-9.47997e-08
1.20879e-07
-9.81859e-08
1.33854e-07
-9.9548e-08
1.40667e-07
-9.62669e-08
1.44983e-07
-9.16228e-08
1.47436e-07
-8.62144e-08
1.45834e-07
1.42223e-07
-8.29724e-08
-1.73379e-07
7.38246e-08
1.60751e-07
-1.78717e-07
8.72941e-08
-1.77543e-07
1.0216e-07
-1.71527e-07
1.14864e-07
-1.60584e-07
1.22911e-07
-1.45181e-07
1.25264e-07
-1.30941e-07
1.30743e-07
-1.17874e-07
1.34369e-07
-1.06542e-07
1.34502e-07
1.3472e-07
-9.90382e-08
-1.75192e-07
7.90802e-08
1.69936e-07
-1.8059e-07
9.26928e-08
-1.79847e-07
1.01417e-07
-1.74845e-07
1.09861e-07
-1.65892e-07
1.13958e-07
-1.54431e-07
1.13804e-07
-1.38482e-07
1.14794e-07
-1.23907e-07
1.19794e-07
-1.12904e-07
1.23499e-07
1.25657e-07
-1.03841e-07
-1.53329e-07
7.88503e-08
1.53559e-07
-1.52915e-07
9.22779e-08
-1.53148e-07
1.01651e-07
-1.49596e-07
1.06309e-07
-1.44016e-07
1.08377e-07
-1.33746e-07
1.03534e-07
-1.22245e-07
1.03292e-07
-1.11155e-07
1.08703e-07
-1.03376e-07
1.15719e-07
1.19515e-07
-9.72346e-08
-1.04292e-07
7.01997e-08
1.12943e-07
-1.00446e-07
8.84312e-08
-1.00201e-07
1.01405e-07
-1.01643e-07
1.07751e-07
-1.02039e-07
1.08773e-07
-1.02467e-07
1.03962e-07
-9.66031e-08
9.74273e-08
-8.54417e-08
9.75414e-08
-7.68263e-08
1.07104e-07
1.16058e-07
-7.33694e-08
-7.10173e-08
8.40314e-08
5.71854e-08
-7.46163e-08
9.20297e-08
-7.51124e-08
1.01901e-07
-7.41032e-08
1.06741e-07
-7.14925e-08
1.06162e-07
-6.88338e-08
1.01303e-07
-6.5981e-08
9.4574e-08
-6.22217e-08
9.37817e-08
-5.22298e-08
9.71114e-08
1.07334e-07
-4.35057e-08
-1.1045e-09
1.01888e-07
-1.67525e-08
-1.89456e-08
1.0987e-07
-3.37785e-08
1.16734e-07
-4.22959e-08
1.15258e-07
-4.30755e-08
1.06941e-07
-3.26991e-08
9.09262e-08
-2.60443e-08
8.7919e-08
-2.55378e-08
9.3275e-08
-2.78518e-08
9.94253e-08
1.06202e-07
-2.67206e-08
5.77339e-08
8.39539e-08
-3.97997e-08
7.10215e-08
9.6582e-08
6.56193e-08
1.22136e-07
4.10914e-08
1.39786e-07
2.53719e-08
1.22661e-07
1.3991e-08
1.02307e-07
7.38205e-09
9.45279e-08
8.73092e-09
9.19261e-08
3.27831e-09
1.04878e-07
1.22407e-07
-1.29261e-08
3.76772e-08
6.49002e-08
-1.86236e-08
6.20089e-08
7.22498e-08
8.3514e-08
1.0063e-07
1.0034e-07
1.2296e-07
9.29122e-08
1.30088e-07
6.74199e-08
1.27799e-07
4.8982e-08
1.12966e-07
3.34929e-08
1.07415e-07
1.94652e-08
1.18906e-07
1.38217e-07
3.65501e-09
-6.61125e-10
5.34078e-08
1.21534e-08
2.11053e-08
5.04831e-08
5.17474e-08
6.99883e-08
8.04927e-08
9.42145e-08
9.22469e-08
1.18334e-07
9.36821e-08
1.26364e-07
7.76983e-08
1.2895e-07
5.50477e-08
1.30066e-07
3.11745e-08
1.42779e-07
1.5199e-07
1.74022e-08
-6.2733e-09
6.02722e-08
-5.91246e-10
-2.83406e-09
4.70436e-08
1.26437e-08
5.45105e-08
3.50492e-08
7.1809e-08
5.75647e-08
9.58189e-08
7.18861e-08
1.12043e-07
7.12093e-08
1.29627e-07
6.5949e-08
1.35326e-07
6.45331e-08
1.44195e-07
1.51094e-07
6.54286e-08
2.84606e-08
4.95452e-08
-1.77338e-08
2.9449e-08
4.6055e-08
3.25644e-08
5.1395e-08
3.94394e-08
6.4934e-08
5.70765e-08
7.81818e-08
6.57829e-08
1.03336e-07
6.75534e-08
1.27856e-07
6.93213e-08
1.33559e-07
7.84076e-08
1.35109e-07
1.38182e-07
9.13198e-08
4.41389e-08
5.37544e-08
-4.83481e-08
4.88411e-08
4.13525e-08
6.13167e-08
3.89193e-08
7.30783e-08
5.31724e-08
7.63305e-08
7.49295e-08
8.65329e-08
9.31339e-08
9.9722e-08
1.14667e-07
1.04734e-07
1.28547e-07
1.07963e-07
1.3188e-07
1.25692e-07
1.20453e-07
4.65239e-08
2.43178e-08
-1.70875e-08
7.11894e-08
1.66867e-08
1.01853e-07
8.25598e-09
1.27563e-07
2.74618e-08
1.21601e-07
8.08916e-08
1.16657e-07
9.80779e-08
1.19684e-07
1.1164e-07
1.31066e-07
1.17164e-07
1.45063e-07
1.17883e-07
1.17263e-07
1.53492e-07
-4.07805e-08
-2.14154e-08
8.65136e-08
6.41526e-09
-3.05092e-08
6.34216e-08
-4.87505e-08
1.18156e-07
-2.7273e-08
1.65715e-07
3.33326e-08
1.78835e-07
8.49573e-08
1.61365e-07
1.2911e-07
1.61833e-07
1.16696e-07
1.60805e-07
1.1891e-07
1.16303e-07
1.61764e-07
-9.88395e-08
-6.16363e-08
1.3906e-07
-5.98818e-08
-6.94669e-08
-3.32863e-08
-7.5346e-08
1.20029e-08
-7.25624e-08
7.88641e-08
-3.35288e-08
1.38776e-07
2.50445e-08
1.84533e-07
8.33521e-08
1.9001e-07
1.11219e-07
1.81421e-07
1.27499e-07
1.19359e-07
1.78363e-07
-1.36114e-07
-8.04294e-08
1.54907e-07
-1.23981e-07
-8.15991e-08
-1.18215e-07
-8.11129e-08
-1.09774e-07
-8.10027e-08
-7.37251e-08
-6.95785e-08
-1.86979e-09
-4.68112e-08
8.27507e-08
-1.26887e-09
1.48344e-07
4.5625e-08
1.85152e-07
9.06902e-08
1.15551e-07
1.8896e-07
-1.2897e-07
-7.22178e-08
1.20758e-07
-1.35132e-07
-7.5436e-08
-1.40448e-07
-7.57977e-08
-1.39899e-07
-8.1551e-08
-1.32504e-07
-7.69742e-08
-1.05106e-07
-7.42092e-08
-4.34518e-08
-6.29236e-08
2.46094e-08
-2.24365e-08
9.14642e-08
2.38351e-08
7.18309e-08
1.35184e-07
-1.02495e-07
-7.81685e-08
1.08446e-07
-1.02196e-07
-7.57349e-08
-1.0684e-07
-7.11532e-08
-1.27166e-07
-6.12254e-08
-1.37393e-07
-6.67473e-08
-1.33321e-07
-7.82814e-08
-1.13611e-07
-8.26336e-08
-7.41641e-08
-6.18834e-08
-2.02381e-08
-3.0091e-08
2.20057e-08
2.95869e-08
-9.39221e-08
-8.05713e-08
9.6325e-08
-9.16778e-08
-7.79791e-08
-9.60112e-08
-6.68196e-08
-9.59054e-08
-6.1331e-08
-1.05027e-07
-5.76254e-08
-1.22181e-07
-6.1128e-08
-1.27482e-07
-7.73323e-08
-1.15883e-07
-7.34822e-08
-8.89042e-08
-5.70699e-08
-1.97608e-08
-4.71378e-08
-6.1624e-08
-6.16053e-08
4.2658e-08
-8.42168e-08
-5.53859e-08
-9.79643e-08
-5.30719e-08
-1.00893e-07
-5.84019e-08
-9.66915e-08
-6.18271e-08
-9.45537e-08
-6.32658e-08
-9.34515e-08
-7.84344e-08
-1.08844e-07
-5.80896e-08
-1.10588e-07
-5.53262e-08
-4.00018e-08
-9.03465e-08
2.34863e-08
-5.74875e-08
-2.7604e-08
8.13331e-09
-4.00324e-08
-3.34896e-08
-1.14489e-08
-4.0317e-08
-5.15743e-08
-5.28587e-08
-4.92852e-08
-6.77203e-08
-4.84041e-08
-5.93379e-08
-8.68166e-08
-6.65616e-08
-5.08658e-08
-7.54336e-08
-4.64542e-08
-2.51015e-08
-9.03339e-08
3.29124e-08
-4.04989e-08
-4.99007e-08
3.01453e-08
-3.72657e-08
2.24358e-08
-3.73945e-09
7.66139e-10
-2.99046e-08
3.31756e-09
-5.18365e-08
-8.11053e-09
-3.69759e-08
-5.28814e-08
-4.20457e-08
-6.82672e-08
-3.54798e-08
-7.01436e-08
-4.45776e-08
-1.68182e-08
-7.84268e-08
3.42134e-08
-1.67693e-08
-5.7943e-08
1.62789e-08
-1.93322e-08
2.3322e-08
-1.07828e-08
1.23862e-08
-1.89689e-08
1.6382e-08
-5.58322e-08
-3.34301e-09
-1.72506e-08
-4.43292e-08
-1.05929e-09
-7.10524e-08
-8.75636e-09
-9.42446e-08
-2.13852e-08
-1.65032e-08
-9.45593e-08
7.12868e-08
-1.0188e-08
-7.78685e-08
5.62694e-08
-4.31586e-09
4.36555e-08
1.83098e-09
2.07459e-08
3.94063e-09
-2.82169e-08
-6.86926e-09
-5.05492e-08
5.08199e-09
-5.17527e-08
1.44612e-10
-4.24891e-08
-1.80195e-08
-3.51641e-08
-2.87099e-08
-2.96234e-08
-2.20437e-08
7.07837e-08
-9.69833e-09
-7.1274e-08
6.39773e-08
2.49014e-09
5.98401e-08
5.96819e-09
5.37379e-08
1.00431e-08
3.09369e-08
1.59319e-08
2.56468e-08
1.03724e-08
2.47575e-08
1.03433e-09
1.91371e-08
-1.23986e-08
1.59551e-08
-2.55275e-08
-2.98546e-08
1.61865e-08
4.86809e-08
-1.832e-08
-4.00595e-08
5.53991e-08
-4.22792e-09
5.42722e-08
7.09521e-09
5.33781e-08
1.09373e-08
5.80254e-08
1.12848e-08
5.99453e-08
8.45283e-09
5.90282e-08
1.95166e-09
5.32162e-08
-6.58638e-09
4.8076e-08
-2.03873e-08
-2.80305e-08
4.62519e-08
1.3221e-08
-2.33965e-08
-8.14446e-09
1.31794e-08
-4.18626e-09
1.30066e-08
7.26816e-09
1.59552e-08
7.98891e-09
2.72664e-08
-2.61761e-11
4.00569e-08
-4.33755e-09
5.24045e-08
-1.03958e-08
6.32049e-08
-1.73867e-08
6.80969e-08
-2.52793e-08
-3.00626e-08
7.01289e-08
-6.25511e-08
-2.26607e-08
6.18152e-08
-6.31989e-08
-3.53877e-09
-5.15179e-08
-4.41279e-09
-2.24636e-08
-2.10653e-08
7.76629e-09
-3.0256e-08
3.27562e-08
-2.93275e-08
5.20508e-08
-2.96906e-08
6.63359e-08
-3.16719e-08
7.51386e-08
-3.4082e-08
-3.35778e-08
7.86537e-08
-8.18203e-08
-3.82077e-08
9.73673e-08
-5.77092e-08
-2.76504e-08
-2.55627e-08
-3.65594e-08
5.96747e-09
-5.25955e-08
3.00356e-08
-5.43241e-08
5.10465e-08
-5.03385e-08
6.51088e-08
-4.3753e-08
7.33935e-08
-3.99568e-08
7.89921e-08
-3.96808e-08
-3.78434e-08
8.32575e-08
-7.71676e-08
-4.76735e-08
8.66333e-08
-5.78405e-08
-4.69775e-08
-3.97003e-08
-5.46995e-08
-2.95256e-08
-6.27701e-08
-2.52387e-08
-5.86109e-08
-1.01353e-08
-6.54419e-08
4.55245e-09
-5.84408e-08
1.61047e-08
-5.15091e-08
2.48971e-08
-4.84733e-08
-4.5362e-08
3.24155e-08
-2.93463e-08
-4.85442e-08
3.0217e-08
-2.35833e-08
-5.274e-08
-3.14105e-08
-4.68721e-08
-4.06559e-08
-5.35245e-08
-3.8986e-08
-6.02807e-08
-2.93856e-08
-7.50424e-08
-1.82921e-08
-6.95346e-08
-2.06745e-09
-6.77341e-08
1.25272e-08
-6.30683e-08
-6.50978e-08
3.22627e-08
9.51304e-08
-4.18063e-08
-1.01868e-07
8.63618e-08
-4.39701e-08
8.14401e-08
-4.19502e-08
7.49487e-08
-4.70329e-08
7.82611e-08
-6.35932e-08
7.58993e-08
-7.26807e-08
8.68334e-08
-8.04689e-08
1.01544e-07
-8.24451e-08
1.21794e-07
-8.33188e-08
-9.01952e-08
1.46892e-07
1.64623e-07
-4.72947e-08
-1.59134e-07
1.6533e-07
-4.46769e-08
1.66322e-07
-4.2942e-08
1.66923e-07
-4.7634e-08
1.63531e-07
-6.02011e-08
1.63796e-07
-7.29462e-08
1.66304e-07
-8.29771e-08
1.70497e-07
-8.66381e-08
1.79691e-07
-9.25135e-08
-1.067e-07
1.96195e-07
1.96891e-07
-3.28131e-08
-2.11373e-07
1.84007e-07
-3.17925e-08
1.78191e-07
-3.71262e-08
1.76383e-07
-4.5826e-08
1.72019e-07
-5.58378e-08
1.66888e-07
-6.78146e-08
1.69752e-07
-8.58412e-08
1.7568e-07
-9.25666e-08
1.8263e-07
-9.94637e-08
-1.20137e-07
1.96068e-07
2.30802e-07
-1.00644e-08
-2.53551e-07
2.09311e-07
-1.03011e-08
1.86392e-07
-1.42076e-08
1.64079e-07
-2.35128e-08
1.46158e-07
-3.79168e-08
1.41424e-07
-6.30811e-08
1.35475e-07
-7.98917e-08
1.2973e-07
-8.68221e-08
1.34323e-07
-1.04057e-07
-1.27203e-07
1.41389e-07
2.08796e-07
1.7423e-08
-2.36283e-07
1.77484e-07
2.101e-08
1.48004e-07
1.52727e-08
1.31523e-07
-7.03236e-09
1.16622e-07
-2.30158e-08
8.97469e-08
-3.62055e-08
6.36662e-08
-5.38107e-08
5.47192e-08
-7.7875e-08
5.35429e-08
-1.0288e-07
-1.35737e-07
6.20767e-08
1.583e-07
6.49928e-08
-2.0587e-07
1.28285e-07
5.10255e-08
1.075e-07
3.60573e-08
8.0224e-08
2.02436e-08
5.11146e-08
6.09352e-09
2.81426e-08
-1.32335e-08
1.45251e-08
-4.01931e-08
1.29008e-08
-7.62504e-08
1.98209e-08
-1.09801e-07
-1.61217e-07
4.5301e-08
4.80663e-08
8.416e-08
-6.72335e-08
3.75758e-08
6.15157e-08
2.16726e-08
5.19606e-08
2.67087e-09
3.92455e-08
-7.7598e-09
1.65242e-08
-1.10833e-08
-9.90989e-09
-1.11951e-08
-4.00811e-08
8.0287e-09
-9.54738e-08
3.59135e-08
-1.37685e-07
-1.9849e-07
7.31872e-08
-7.64312e-08
7.4119e-08
8.64721e-08
-8.46008e-08
6.96838e-08
-8.42128e-08
5.15725e-08
-6.90762e-08
2.4109e-08
-4.87008e-08
-3.85106e-09
-3.36624e-08
-2.49481e-08
-1.34889e-08
-6.0254e-08
3.12361e-08
-1.40199e-07
7.49789e-08
-1.81428e-07
-2.26524e-07
1.03013e-07
-1.40902e-07
6.99221e-08
1.45099e-07
-1.23771e-07
5.25525e-08
-9.16858e-08
1.94869e-08
-6.5751e-08
-1.82572e-09
-3.21869e-08
-3.74149e-08
-2.9993e-09
-5.41356e-08
3.61374e-08
-9.93905e-08
8.17533e-08
-1.85814e-07
1.10029e-07
-2.09703e-07
-2.26555e-07
1.10059e-07
-1.72128e-07
6.13952e-08
1.80655e-07
-1.3819e-07
1.86142e-08
-9.61399e-08
-2.25632e-08
-4.3007e-08
-5.49587e-08
8.11571e-09
-8.85379e-08
6.03048e-08
-1.06325e-07
1.03698e-07
-1.42783e-07
1.22584e-07
-2.04701e-07
1.28646e-07
-2.15765e-07
-2.12301e-07
1.14393e-07
-1.76013e-07
4.1162e-08
1.96246e-07
-1.32158e-07
-2.52414e-08
-8.04893e-08
-7.42318e-08
-3.19888e-08
-1.03459e-07
3.59405e-09
-1.24121e-07
4.79936e-08
-1.50724e-07
9.16562e-08
-1.86445e-07
9.84888e-08
-2.11533e-07
9.71354e-08
-2.14411e-07
-2.03294e-07
8.81287e-08
-1.46713e-07
1.15669e-08
1.76308e-07
-1.05e-07
-6.69532e-08
-6.54387e-08
-1.13793e-07
-4.12011e-08
-1.27697e-07
-2.49297e-08
-1.40392e-07
-2.2774e-08
-1.52879e-07
-2.71243e-08
-1.82095e-07
-3.07112e-08
-2.07946e-07
-3.37009e-08
-2.11421e-07
-2.08e-07
-2.89949e-08
-1.14248e-07
-1.69034e-08
1.42718e-07
-1.00683e-07
-8.05194e-08
-1.2094e-07
-9.35357e-08
-1.55978e-07
-9.26581e-08
-1.77457e-07
-1.18914e-07
-1.78155e-07
-1.5218e-07
-1.90356e-07
-1.69894e-07
-1.99902e-07
-1.984e-07
-1.9866e-07
-2.12662e-07
-2.18517e-07
-1.88143e-07
-2.15523e-07
9.69509e-09
1.88925e-07
-2.92608e-07
-3.43601e-09
-3.54021e-07
-3.21234e-08
-3.63114e-07
-8.35653e-08
-3.52798e-07
-1.2923e-07
-3.31519e-07
-1.73459e-07
-3.10187e-07
-1.91226e-07
-2.96707e-07
-2.11879e-07
-2.87106e-07
-2.22264e-07
-2.27357e-07
-2.78265e-07
-4.66239e-07
4.0678e-08
4.35256e-07
-4.97088e-07
2.74119e-08
-4.93526e-07
-3.56849e-08
-4.65621e-07
-1.1147e-07
-4.24724e-07
-1.70125e-07
-4.03955e-07
-1.94228e-07
-3.8824e-07
-2.06939e-07
-3.81641e-07
-2.18478e-07
-3.7485e-07
-2.29056e-07
-2.38443e-07
-3.63764e-07
-6.24093e-07
5.08346e-08
6.13936e-07
-5.73785e-07
-2.2897e-08
-5.36143e-07
-7.33263e-08
-5.0753e-07
-1.40083e-07
-4.87503e-07
-1.90152e-07
-4.74295e-07
-2.07436e-07
-4.66854e-07
-2.1438e-07
-4.66489e-07
-2.18842e-07
-4.68635e-07
-2.2691e-07
-2.37221e-07
-4.69857e-07
-6.31987e-07
2.51342e-08
6.57688e-07
-6.07198e-07
-4.76859e-08
-5.68476e-07
-1.12048e-07
-5.33802e-07
-1.74756e-07
-5.13427e-07
-2.10527e-07
-5.00742e-07
-2.20121e-07
-4.94833e-07
-2.2029e-07
-4.96482e-07
-2.17192e-07
-5.05075e-07
-2.18317e-07
-2.24465e-07
-5.17831e-07
-5.69082e-07
-1.85234e-08
6.12739e-07
-5.32101e-07
-8.46688e-08
-5.03965e-07
-1.40184e-07
-4.92918e-07
-1.85803e-07
-4.87502e-07
-2.15943e-07
-4.85253e-07
-2.2237e-07
-4.86832e-07
-2.18712e-07
-4.95576e-07
-2.08448e-07
-5.11365e-07
-2.02529e-07
-2.02692e-07
-5.33138e-07
-5.58107e-07
-6.6287e-08
6.0587e-07
-5.14796e-07
-1.27978e-07
-4.71376e-07
-1.83603e-07
-4.27134e-07
-2.30045e-07
-3.87264e-07
-2.55813e-07
-3.7059e-07
-2.39044e-07
-3.81888e-07
-2.07414e-07
-4.16363e-07
-1.73974e-07
-4.59018e-07
-1.59873e-07
-1.62911e-07
-4.98799e-07
-6.00645e-07
-1.14765e-07
6.49123e-07
-5.46e-07
-1.82624e-07
-4.7201e-07
-2.57593e-07
-3.91147e-07
-3.10908e-07
-2.91297e-07
-3.55663e-07
-2.11878e-07
-3.18462e-07
-1.90899e-07
-2.28393e-07
-2.34719e-07
-1.30154e-07
-3.02803e-07
-9.17883e-08
-8.99418e-08
-3.75772e-07
-5.72158e-07
-1.50883e-07
6.08276e-07
-5.23559e-07
-2.31224e-07
-4.53499e-07
-3.27653e-07
-3.54639e-07
-4.09769e-07
-2.73089e-07
-4.37213e-07
-1.70605e-07
-4.20946e-07
-1.17055e-07
-2.81941e-07
-1.0552e-07
-1.41689e-07
-1.49204e-07
-4.81043e-08
-1.33518e-08
-2.25794e-07
-4.59115e-07
-1.55346e-07
4.63578e-07
-4.47503e-07
-2.42835e-07
-4.08256e-07
-3.66899e-07
-3.62745e-07
-4.55279e-07
-3.20594e-07
-4.79364e-07
-2.80356e-07
-4.61185e-07
-2.03522e-07
-3.58776e-07
-1.15404e-07
-2.29807e-07
-6.11676e-08
-1.02342e-07
-9.70078e-09
-6.48183e-08
-3.67146e-07
-1.28687e-07
3.40488e-07
-4.11816e-07
-1.98165e-07
-4.05635e-07
-3.73081e-07
-3.90152e-07
-4.70762e-07
-3.73536e-07
-4.9598e-07
-3.61959e-07
-4.72761e-07
-3.30441e-07
-3.90294e-07
-2.46944e-07
-3.13304e-07
-1.1929e-07
-2.29996e-07
-8.13209e-08
-4.767e-08
-3.51814e-07
-1.2431e-07
3.47436e-07
-3.769e-07
-1.73077e-07
-3.99894e-07
-3.5009e-07
-4.25077e-07
-4.4558e-07
-4.52038e-07
-4.6902e-07
-4.62077e-07
-4.62722e-07
-4.49036e-07
-4.03334e-07
-4.19154e-07
-3.43186e-07
-3.46848e-07
-3.02302e-07
-2.10814e-07
-2.17355e-07
-3.16026e-07
-1.41101e-07
3.32816e-07
-2.88241e-07
-2.00852e-07
-3.45094e-07
-2.93239e-07
-4.22126e-07
-3.68548e-07
-4.8027e-07
-4.10876e-07
-5.16775e-07
-4.26219e-07
-5.15247e-07
-4.0486e-07
-5.02906e-07
-3.55526e-07
-4.81329e-07
-3.2388e-07
-2.97054e-07
-3.95088e-07
-1.45726e-07
-1.8245e-07
1.87075e-07
-1.05528e-07
-2.41048e-07
-1.40795e-07
-2.57974e-07
-2.51642e-07
-2.57701e-07
-3.76797e-07
-2.8572e-07
-4.52083e-07
-3.50935e-07
-4.77742e-07
-3.792e-07
-4.80142e-07
-3.53126e-07
-4.83171e-07
-3.20853e-07
-3.23874e-07
-4.56348e-07
3.77444e-08
-2.34163e-07
1.39673e-08
5.84413e-08
-2.61745e-07
6.03571e-08
-2.59891e-07
4.17226e-08
-2.39066e-07
-2.92601e-08
-2.14737e-07
-1.61123e-07
-2.19071e-07
-2.73814e-07
-2.66511e-07
-3.04634e-07
-3.22304e-07
-3.23234e-07
-3.02254e-07
-2.94639e-07
-3.52467e-07
2.17661e-07
-2.53339e-07
-1.98486e-07
2.30251e-07
-2.74337e-07
2.46104e-07
-2.75743e-07
2.6863e-07
-2.61589e-07
2.79134e-07
-2.25238e-07
2.44896e-07
-1.8483e-07
1.63089e-07
-1.84706e-07
5.18222e-08
-2.11035e-07
-2.08571e-08
-2.29573e-07
-2.54951e-07
-6.05451e-08
5.57356e-07
-2.23748e-07
-5.8695e-07
5.2358e-07
-2.40557e-07
4.95549e-07
-2.47712e-07
4.75778e-07
-2.4182e-07
4.79175e-07
-2.28636e-07
4.92262e-07
-1.97915e-07
5.12204e-07
-2.04649e-07
4.93243e-07
-1.92072e-07
4.54189e-07
-1.90518e-07
-1.78265e-07
3.77501e-07
7.53889e-07
-2.04914e-07
-7.72722e-07
7.1993e-07
-2.066e-07
6.74688e-07
-2.02466e-07
6.23717e-07
-1.9085e-07
5.84771e-07
-1.8969e-07
6.01006e-07
-2.14149e-07
5.99405e-07
-2.03049e-07
6.02143e-07
-1.94811e-07
6.1081e-07
-1.99184e-07
-1.98658e-07
6.31202e-07
8.01053e-07
-1.86604e-07
-8.1936e-07
7.70312e-07
-1.75862e-07
7.12583e-07
-1.44736e-07
6.42402e-07
-1.20674e-07
5.82276e-07
-1.29563e-07
5.67403e-07
-1.99276e-07
5.80743e-07
-2.16389e-07
6.10882e-07
-2.24949e-07
6.42142e-07
-2.30444e-07
-2.26337e-07
6.69822e-07
7.50705e-07
-1.54584e-07
-7.82724e-07
6.99559e-07
-1.24716e-07
6.46832e-07
-9.20097e-08
6.10694e-07
-8.4541e-08
6.11433e-07
-1.303e-07
5.98241e-07
-1.86085e-07
5.91155e-07
-2.09302e-07
5.92432e-07
-2.26227e-07
6.0841e-07
-2.46424e-07
-2.54686e-07
6.36761e-07
5.5265e-07
-1.10616e-07
-5.96618e-07
5.25228e-07
-9.7286e-08
5.15856e-07
-8.26374e-08
5.38694e-07
-1.07381e-07
5.65052e-07
-1.56659e-07
5.64131e-07
-1.85165e-07
5.68217e-07
-2.13388e-07
5.97812e-07
-2.55822e-07
6.51818e-07
-3.00429e-07
-3.11755e-07
7.08888e-07
3.49156e-07
-1.09806e-07
-3.49968e-07
3.59376e-07
-1.075e-07
3.90791e-07
-1.14051e-07
4.22635e-07
-1.39223e-07
4.3249e-07
-1.66515e-07
4.40329e-07
-1.93004e-07
4.91483e-07
-2.64543e-07
5.96618e-07
-3.60956e-07
6.91654e-07
-3.95464e-07
-3.61988e-07
7.41885e-07
2.7239e-07
-8.94963e-08
-2.927e-07
2.60041e-07
-9.5152e-08
2.61776e-07
-1.15788e-07
2.62378e-07
-1.39826e-07
2.74612e-07
-1.7875e-07
3.35326e-07
-2.53716e-07
4.64235e-07
-3.93452e-07
5.54512e-07
-4.51232e-07
5.89833e-07
-4.30784e-07
-4.06345e-07
6.34191e-07
2.48047e-07
1.48437e-09
-3.3903e-07
1.80715e-07
-2.78184e-08
1.38137e-07
-7.32105e-08
7.75167e-08
-7.92044e-08
1.02195e-07
-2.03429e-07
2.11763e-07
-3.63285e-07
3.4536e-07
-5.27049e-07
4.48872e-07
-5.54746e-07
5.57568e-07
-5.3948e-07
-4.63207e-07
6.14431e-07
2.31654e-07
5.03092e-08
-2.80478e-07
1.62579e-07
4.12572e-08
4.6255e-08
4.31128e-08
-5.87773e-08
2.58282e-08
-9.10987e-09
-2.53097e-07
1.22436e-07
-4.9483e-07
2.24651e-07
-6.29264e-07
2.82528e-07
-6.12623e-07
2.98365e-07
-5.55317e-07
-4.5969e-07
2.94847e-07
1.91536e-07
7.9658e-08
-2.20884e-07
1.32866e-07
9.99276e-08
3.93161e-08
1.36662e-07
-3.17533e-08
9.68971e-08
-4.60033e-08
-2.38847e-07
-2.27862e-08
-5.18047e-07
5.45825e-10
-6.52596e-07
4.27088e-08
-6.54785e-07
1.27538e-07
-6.40145e-07
-5.23024e-07
1.90871e-07
1.45311e-07
1.1555e-07
-1.81203e-07
1.13122e-07
1.32117e-07
1.22496e-07
1.27287e-07
1.37052e-07
8.23404e-08
2.79075e-08
-1.29701e-07
-4.65264e-08
-4.43613e-07
-2.66583e-08
-6.72464e-07
4.26977e-08
-7.24142e-07
1.1569e-07
-7.13136e-07
-6.12768e-07
2.05433e-07
7.77099e-09
1.14848e-07
-7.0689e-09
1.14313e-07
2.55745e-08
2.14195e-07
2.7405e-08
2.88559e-07
7.97663e-09
2.6011e-07
-1.01252e-07
1.90358e-07
-3.73861e-07
1.92153e-07
-6.7426e-07
2.07676e-07
-7.39665e-07
2.31229e-07
-7.36688e-07
-6.54287e-07
2.72747e-07
1.137e-08
2.29637e-08
8.05133e-08
1.2348e-07
-8.65355e-08
2.13742e-07
-6.28562e-08
3.09539e-07
-8.78216e-08
3.78292e-07
-1.70006e-07
4.02729e-07
-3.98298e-07
3.90984e-07
-6.62515e-07
3.62639e-07
-7.1132e-07
3.24588e-07
-6.98637e-07
-6.0345e-07
2.73752e-07
-7.97672e-09
-4.92717e-08
8.02123e-08
3.98969e-08
-1.34409e-07
7.37833e-08
-9.67428e-08
1.47529e-07
-1.61569e-07
3.02312e-07
-3.24787e-07
4.07176e-07
-5.03163e-07
4.21092e-07
-6.76432e-07
4.11576e-07
-7.01804e-07
3.79517e-07
-6.66578e-07
-4.4418e-07
2.20246e-07
1.13926e-07
-1.04786e-07
-5.84109e-08
5.34377e-08
-7.39229e-08
5.81925e-08
-1.01498e-07
9.7478e-08
-2.00855e-07
2.45734e-07
-4.73042e-07
3.79778e-07
-6.37205e-07
4.1436e-07
-7.11014e-07
4.18488e-07
-7.05933e-07
3.39402e-07
-5.87493e-07
-2.24693e-07
1.19913e-07
8.9698e-08
-1.07142e-07
-8.73424e-08
1.07907e-07
-9.21325e-08
1.09124e-07
-1.02714e-07
1.52753e-07
-2.44484e-07
2.35134e-07
-5.55423e-07
2.95781e-07
-6.97853e-07
3.35499e-07
-7.50734e-07
3.51674e-07
-7.22106e-07
2.19218e-08
-2.5774e-07
-2.11048e-08
-1.81667e-07
1.57462e-08
-9.48619e-08
-2.80263e-08
2.11837e-08
-9.75706e-08
2.38439e-08
-1.05374e-07
1.21815e-07
-3.42455e-07
1.97609e-07
-6.31217e-07
2.08839e-07
-7.09083e-07
1.74936e-07
-7.16832e-07
-7.61416e-08
-4.71031e-07
-3.16606e-07
-1.72766e-08
-4.15784e-08
-2.96132e-07
7.51751e-09
-8.49496e-08
-1.74296e-08
-4.90805e-10
-8.95623e-08
3.40385e-09
-1.09268e-07
9.59716e-08
-4.35024e-07
1.23991e-07
-6.59236e-07
1.2786e-07
-7.12954e-07
1.55791e-07
-7.44759e-07
-1.41963e-07
-1.73281e-07
-2.15803e-07
5.65651e-08
-6.61346e-08
-1.91246e-07
5.45936e-10
-9.58743e-08
1.03794e-08
1.57396e-08
-1.04756e-07
4.50271e-08
-1.38555e-07
9.49038e-08
-4.84901e-07
9.60702e-08
-6.60404e-07
6.61106e-08
-6.82995e-07
2.77958e-09
-6.81428e-07
-4.68934e-08
-1.23609e-07
-2.01005e-07
2.10676e-07
-1.31368e-07
-1.35772e-07
-3.96749e-09
-1.21039e-07
2.91319e-08
4.25158e-08
-1.5124e-07
6.96459e-08
-1.65686e-07
1.18782e-07
-5.34037e-07
1.1715e-07
-6.58773e-07
1.14531e-07
-6.80376e-07
1.18849e-07
-6.85747e-07
2.06085e-07
-2.10838e-07
1.74575e-07
2.42186e-07
6.4284e-08
-2.10717e-08
4.80329e-09
-1.41751e-07
1.59093e-08
4.53528e-08
-1.91788e-07
4.02124e-08
-1.60546e-07
6.56073e-08
-5.59434e-07
6.24941e-08
-6.55658e-07
5.18697e-08
-6.69752e-07
3.15387e-08
-6.65417e-07
-1.46087e-08
-1.64694e-07
-3.13353e-07
5.40943e-07
7.57762e-08
-3.24862e-07
1.53669e-08
-2.58405e-07
1.01288e-07
4.45933e-08
-2.21017e-07
3.79888e-08
-1.53941e-07
5.84423e-08
-5.79889e-07
3.23708e-08
-6.29586e-07
-6.33449e-09
-6.31046e-07
-4.84007e-08
-6.23353e-07
8.84951e-09
-2.21935e-07
1.31661e-07
4.18135e-07
2.43856e-07
-3.6406e-08
-1.66152e-07
-2.73523e-07
1.8126e-07
-1.87388e-07
-1.99792e-07
1.8199e-08
-3.59535e-07
5.83562e-08
-6.20047e-07
2.32106e-08
-5.9444e-07
-1.02944e-08
-5.97541e-07
-4.43305e-08
-5.89318e-07
1.43087e-07
-4.09355e-07
2.6979e-07
2.91421e-07
2.30289e-07
2.83355e-07
-2.45962e-07
-2.49421e-07
2.21872e-07
-8.06111e-08
-3.65125e-07
6.51864e-08
-5.05354e-07
3.43016e-08
-5.89164e-07
-8.7412e-10
-5.59264e-07
-2.96059e-08
-5.68809e-07
-6.24624e-08
-5.56461e-07
-7.69116e-09
-4.64122e-07
1.55421e-07
1.28326e-07
1.56029e-07
2.29672e-07
6.05697e-08
-2.4084e-07
-6.92147e-08
5.70049e-08
-3.61548e-07
8.71387e-08
-5.35485e-07
2.78006e-08
-5.29826e-07
-9.56464e-09
-5.21898e-07
-5.69829e-08
-5.21391e-07
-8.00928e-08
-5.33351e-07
-3.75592e-08
-5.06657e-07
2.35442e-08
6.72229e-08
1.44207e-07
3.53628e-08
1.76491e-07
-2.08496e-07
-2.08865e-07
1.14283e-07
-2.99382e-07
7.18684e-08
-4.93096e-07
2.93227e-08
-4.8728e-07
5.74202e-10
-4.9315e-07
-3.30737e-08
-4.87743e-07
-7.48791e-08
-4.91545e-07
-1.00749e-07
-4.80788e-07
6.69745e-08
-1.00488e-07
1.93614e-07
1.75591e-08
2.08992e-07
-1.43068e-07
-2.74416e-07
1.30837e-07
-2.2117e-07
7.82225e-08
-4.40499e-07
3.89758e-08
-4.48033e-07
-5.34305e-09
-4.48831e-07
-4.674e-08
-4.46346e-07
-8.47342e-08
-4.53551e-07
-1.27483e-07
-4.3804e-07
-6.61444e-08
-1.61827e-07
1.61088e-07
-3.36253e-08
1.45621e-07
-7.65355e-08
-2.12171e-07
1.34831e-07
-2.10318e-07
8.00397e-08
-3.85723e-07
4.01933e-08
-4.08187e-07
5.13138e-09
-4.13769e-07
-2.79654e-08
-4.13249e-07
-7.77491e-08
-4.03767e-07
-1.27008e-07
-3.8878e-07
-9.2782e-08
-1.96058e-07
1.36759e-07
-6.84495e-08
7.56459e-08
-7.33097e-08
-7.88738e-08
1.29381e-07
-2.63971e-07
8.9856e-08
-3.46199e-07
4.37322e-08
-3.62063e-07
-2.96399e-09
-3.67073e-07
-5.02252e-08
-3.65988e-07
-9.31438e-08
-3.60849e-07
-1.39393e-07
-3.42531e-07
-6.88591e-08
-2.66594e-07
8.40373e-08
-1.61343e-08
1.15559e-07
-8.59721e-08
-1.02895e-07
1.38081e-07
-2.86392e-07
9.83238e-08
-3.06442e-07
5.14214e-08
-3.15161e-07
3.91705e-10
-3.16043e-07
-4.93197e-08
-3.16277e-07
-9.27032e-08
-3.17465e-07
-1.30435e-07
-3.04799e-07
-1.15459e-07
-2.8157e-07
-2.44521e-08
-6.97295e-09
2.14519e-07
-1.85157e-07
-1.15331e-07
1.53123e-07
-2.24995e-07
1.04812e-07
-2.58131e-07
5.67439e-08