/*--------------------------------*- C++ -*----------------------------------*\
  =========                 |
  \\      /  F ield         | OpenFOAM: The Open Source CFD Toolbox
   \\    /   O peration     | Website:  https://openfoam.org
    \\  /    A nd           | Version:  8
     \\/     M anipulation  |
\*---------------------------------------------------------------------------*/
FoamFile
{
    version     2.0;
    format      ascii;
    class       volVectorField;
    location    "7.6";
    object      U;
}
// * * * * * * * * * * * * * * * * * * * * * * * * * * * * * * * * * * * * * //

dimensions      [0 1 -1 0 0 0 0];

internalField   nonuniform List<vector> 
9150
(
(0.00482205 -0.0787234 0)
(0.0130759 -0.0974681 0)
(0.0109174 -0.104725 0)
(0.0083756 -0.108199 0)
(0.00169106 -0.109727 0)
(-0.00324033 -0.109206 0)
(-0.00937217 -0.107541 0)
(-0.0109405 -0.104526 0)
(-0.0131321 -0.0973173 0)
(-0.00477575 -0.0786271 0)
(0.00580418 -0.0920106 0)
(0.00849436 -0.100503 0)
(0.00744129 -0.102274 0)
(0.00446708 -0.104322 0)
(0.00241389 -0.105219 0)
(-0.00109241 -0.105535 0)
(-0.00424073 -0.104967 0)
(-0.00745195 -0.102254 0)
(-0.00853794 -0.100429 0)
(-0.00581266 -0.0919601 0)
(0.00167939 -0.0954726 0)
(0.00452158 -0.0989859 0)
(0.00369862 -0.101148 0)
(0.00321575 -0.101902 0)
(0.000570779 -0.102701 0)
(-0.00140297 -0.102357 0)
(-0.00344586 -0.101673 0)
(-0.00379188 -0.100979 0)
(-0.00454976 -0.0989306 0)
(-0.00168329 -0.0954441 0)
(0.00169685 -0.0984074 0)
(0.00242382 -0.100393 0)
(0.0021936 -0.100191 0)
(0.0013329 -0.100726 0)
(0.000873701 -0.100897 0)
(-0.00031539 -0.100935 0)
(-0.0012993 -0.100861 0)
(-0.0022166 -0.100239 0)
(-0.00245171 -0.100372 0)
(-0.00171028 -0.098396 0)
(0.00016437 -0.0994809 0)
(0.000703515 -0.0995884 0)
(0.000435559 -0.100069 0)
(0.000629846 -0.0998768 0)
(0.000126392 -0.100124 0)
(-0.000292879 -0.100106 0)
(-0.000714468 -0.0998565 0)
(-0.000506423 -0.09997 0)
(-0.000707823 -0.0995799 0)
(-0.000168487 -0.0994823 0)
(0.0744018 -0.193778 3.64463e-26)
(0.0493134 -0.184342 0)
(0.0299166 -0.175854 0)
(0.0156491 -0.173952 0)
(0.00539699 -0.175268 0)
(-0.00401461 -0.175931 0)
(-0.0150304 -0.175149 0)
(-0.0298357 -0.175722 0)
(-0.0492777 -0.18438 0)
(-0.0744467 -0.193867 -3.64988e-26)
(0.0584221 -0.146745 9.25765e-27)
(0.0488813 -0.146647 0)
(0.0285461 -0.156393 0)
(0.0205479 -0.156998 0)
(0.00448134 -0.1551 0)
(-0.00574886 -0.154508 0)
(-0.0212855 -0.155486 0)
(-0.0288895 -0.156349 0)
(-0.0488694 -0.146733 0)
(-0.0584654 -0.146823 -9.14691e-27)
(0.0473198 -0.121226 4.03715e-27)
(0.043133 -0.13113 0)
(0.0293024 -0.133091 0)
(0.0173846 -0.136821 0)
(0.00667455 -0.139993 0)
(-0.0053369 -0.140566 0)
(-0.0163827 -0.138423 0)
(-0.0287729 -0.133204 0)
(-0.0430726 -0.131168 0)
(-0.0473038 -0.121287 -4.10097e-27)
(0.0368416 -0.0991765 8.07288e-27)
(0.039289 -0.110091 0)
(0.0226627 -0.120672 0)
(0.0172247 -0.125655 0)
(0.00376124 -0.125469 0)
(-0.00548549 -0.125182 0)
(-0.0180047 -0.124024 0)
(-0.0230852 -0.120595 0)
(-0.0393429 -0.11008 0)
(-0.0368479 -0.0991859 -8.1919e-27)
(0.024073 -0.0818261 -1.92726e-26)
(0.027698 -0.101412 -2.34217e-26)
(0.0200682 -0.108583 -5.84851e-27)
(0.0111825 -0.113818 -4.97323e-27)
(0.00520982 -0.116827 -2.68162e-28)
(-0.00370115 -0.11725 -2.87767e-28)
(-0.010004 -0.114771 -5.10784e-27)
(-0.0194921 -0.108308 -5.80048e-27)
(-0.0275769 -0.101354 -2.33122e-26)
(-0.02398 -0.0818001 -1.92182e-26)
(0.019665 -0.146767 0)
(0.0141281 -0.205663 0)
(0.0248687 -0.215896 0)
(0.0148107 -0.223433 0)
(0.0105261 -0.226706 0)
(-0.00356983 -0.227679 0)
(-0.00710141 -0.225733 0)
(-0.0220402 -0.218201 0)
(-0.0137576 -0.205761 0)
(-0.0197021 -0.147698 0)
(0.0164465 -0.165928 0)
(0.00143001 -0.199629 0)
(0.0144139 -0.210315 0)
(0.00164817 -0.215075 0)
(0.00398074 -0.215098 0)
(-0.00648842 -0.215112 0)
(-0.00437485 -0.213292 0)
(-0.0159733 -0.20897 0)
(-0.00210117 -0.198965 0)
(-0.0163659 -0.165672 0)
(0.0140309 -0.172695 0)
(-0.00471512 -0.203904 0)
(0.0105292 -0.209213 0)
(-0.000859895 -0.209485 0)
(0.00246344 -0.210893 0)
(-0.00272804 -0.210711 0)
(0.00086178 -0.210984 0)
(-0.0102794 -0.209521 0)
(0.00473846 -0.203922 0)
(-0.0141398 -0.172754 0)
(0.0192355 -0.195814 0)
(-0.0073867 -0.20476 0)
(0.00907414 -0.210898 0)
(0.00018286 -0.206324 0)
(0.00158936 -0.20658 0)
(-5.51511e-08 -0.206844 0)
(0.000316488 -0.206484 0)
(-0.00915936 -0.210913 0)
(0.00744334 -0.204719 0)
(-0.0191349 -0.195766 0)
(0.0374315 -0.216493 0)
(0.0110264 -0.203481 0)
(0.0156151 -0.20152 0)
(0.0122005 -0.196007 0)
(0.00131443 -0.192085 0)
(-0.00299764 -0.191699 0)
(-0.0127047 -0.195418 0)
(-0.0157064 -0.201684 0)
(-0.0110331 -0.203644 0)
(-0.0375346 -0.216589 0)
(-0.00855575 -0.011048 0)
(-0.0113234 -0.0160939 0)
(-0.0107189 -0.0161341 0)
(-0.00718071 -0.0141415 0)
(-0.00411243 -0.00721896 0)
(-0.00349484 -0.00179619 0)
(-0.0038901 -0.000119997 0)
(-0.0037909 0.00271053 0)
(-0.00526401 0.0100881 0)
(-0.0145777 0.0117927 0)
(0.0793429 0.0286674 0)
(0.0657106 0.0216628 0)
(0.0317722 0.0112052 0)
(0.00295931 0.00280281 0)
(-0.0109195 0.00350991 0)
(-0.0116469 0.00265524 0)
(-0.00995712 0.000139251 0)
(-0.00721629 0.00197862 0)
(-0.00577086 0.0110534 0)
(-0.00808692 0.0174136 0)
(0.0931505 0.0301403 0)
(0.0841636 0.0642124 0)
(0.0526968 0.0917146 0)
(0.0257459 0.0712952 0)
(-0.00304323 0.0175161 0)
(-0.0169669 -0.0085345 0)
(-0.0159655 -0.0108474 0)
(-0.0146563 -0.0078246 0)
(-0.012043 0.00863538 0)
(-0.0113414 0.0232462 0)
(0.0796271 0.0423908 0)
(0.0826489 0.0885681 0)
(0.078915 0.120623 0)
(0.0776091 0.120275 0)
(0.0617115 0.0972957 0)
(0.0429984 0.0360139 0)
(0.0243287 -0.00221715 0)
(0.0123239 -0.00559804 0)
(0.00539623 0.00869353 0)
(-0.002192 0.0336998 0)
(0.0796259 0.027025 0)
(0.0785834 0.0761855 0)
(0.0808191 0.113887 0)
(0.0826277 0.115294 0)
(0.0842382 0.105101 0)
(0.0817397 0.0701186 0)
(0.0607213 0.0410154 0)
(0.0425814 0.0295337 0)
(0.02319 0.034947 0)
(0.00655544 0.0591351 0)
(0.0807826 0.0471422 0)
(0.0781339 0.0814529 0)
(0.0764129 0.106998 0)
(0.0779859 0.104449 0)
(0.0826894 0.100387 0)
(0.0819481 0.092802 0)
(0.0699464 0.0715168 0)
(0.0523012 0.0595925 0)
(0.0270983 0.0735622 0)
(0.00658172 0.0934631 0)
(0.0748004 0.0375559 0)
(0.0739205 0.0823227 0)
(0.073131 0.103502 0)
(0.0723318 0.101041 0)
(0.0698763 0.0993315 0)
(0.0652548 0.0932733 0)
(0.0539142 0.0891876 0)
(0.0336915 0.105385 0)
(0.0085231 0.12117 0)
(-0.006223 0.127843 0)
(0.0375645 0.0406904 0)
(0.0407293 0.071505 0)
(0.0439967 0.0937846 0)
(0.0418801 0.103754 0)
(0.0339688 0.11174 0)
(0.0208651 0.122211 0)
(0.00218651 0.138313 0)
(-0.0117693 0.149911 0)
(-0.01933 0.150654 0)
(-0.0234698 0.146276 0)
(-0.0395759 0.060288 0)
(-0.0440984 0.0886978 0)
(-0.043758 0.114689 0)
(-0.0450175 0.133638 0)
(-0.0473725 0.146753 0)
(-0.0495147 0.153726 0)
(-0.0492339 0.157671 0)
(-0.0477747 0.15613 0)
(-0.0444775 0.15356 0)
(-0.042251 0.146654 0)
(-0.082097 0.0717366 0)
(-0.0890382 0.0867695 0)
(-0.0886236 0.104521 0)
(-0.0872632 0.120536 0)
(-0.0835931 0.132435 0)
(-0.0767031 0.137482 0)
(-0.0678427 0.141202 0)
(-0.0621213 0.145104 0)
(-0.05557 0.142787 0)
(-0.0509385 0.140552 0)
(-0.0843019 0.0780586 0)
(-0.0905148 0.0903672 0)
(-0.0901204 0.101953 0)
(-0.0893346 0.112258 0)
(-0.0863094 0.117415 0)
(-0.0796492 0.117249 0)
(-0.0733696 0.121252 0)
(-0.0647562 0.127098 0)
(-0.0584885 0.129111 0)
(-0.053786 0.130951 0)
(-0.0749657 0.0827994 0)
(-0.0774811 0.0933325 0)
(-0.0766389 0.0992089 0)
(-0.0765277 0.10516 0)
(-0.0738835 0.107558 0)
(-0.0697394 0.106475 0)
(-0.0639775 0.107837 0)
(-0.057123 0.114118 0)
(-0.0530172 0.119778 0)
(-0.0500946 0.121528 0)
(-0.054977 0.0707086 0)
(-0.0503098 0.0901711 0)
(-0.0506271 0.103601 0)
(-0.0505742 0.108326 0)
(-0.0505935 0.108581 0)
(-0.0513556 0.100585 0)
(-0.0512034 0.0978867 0)
(-0.0449517 0.102138 0)
(-0.0390335 0.112956 0)
(-0.0370662 0.11916 0)
(-0.0335122 0.0719546 0)
(-0.0378968 0.0875309 0)
(-0.0378177 0.10012 0)
(-0.0374241 0.107002 0)
(-0.0370374 0.109533 0)
(-0.0342742 0.106738 0)
(-0.0327825 0.0965062 0)
(-0.0331335 0.0921632 0)
(-0.0290524 0.100706 0)
(-0.0230416 0.112877 0)
(0.0049701 0.0973252 0)
(-0.00528472 0.103388 0)
(-0.0155008 0.107623 0)
(-0.0204193 0.106502 0)
(-0.0213434 0.0993812 0)
(-0.0201353 0.0926019 0)
(-0.0135804 0.0923947 0)
(-0.0110207 0.0952713 0)
(-0.0149654 0.0928419 0)
(-0.0138367 0.104547 0)
(0.0243649 0.0957891 0)
(0.0330139 0.10515 0)
(0.0364335 0.12096 0)
(0.026041 0.129376 0)
(0.0147036 0.116539 0)
(0.011896 0.0912582 0)
(0.00353931 0.0863468 0)
(0.00436745 0.0916325 0)
(0.00605929 0.103105 0)
(-0.00394975 0.10953 0)
(0.0142034 0.0762465 0)
(0.0252823 0.0909615 0)
(0.0376395 0.118014 0)
(0.0471859 0.136651 0)
(0.0483796 0.129337 0)
(0.0433122 0.119449 0)
(0.028666 0.101642 0)
(0.0207707 0.0960276 0)
(0.0131398 0.110507 0)
(0.0052245 0.130172 0)
(-0.00421044 0.0519293 0)
(0.00334506 0.0558795 0)
(0.0169753 0.087079 0)
(0.0352222 0.115088 0)
(0.0456315 0.127811 0)
(0.0467206 0.129041 0)
(0.0444951 0.123723 0)
(0.0342731 0.119753 0)
(0.0209442 0.131429 0)
(0.0102744 0.14743 0)
(-0.00227478 0.0577669 0)
(-0.00355077 0.0466749 0)
(0.00123015 0.0571116 0)
(0.0114102 0.0780659 0)
(0.0233342 0.109626 0)
(0.0344957 0.122955 0)
(0.0364738 0.131113 0)
(0.0345615 0.135029 0)
(0.0321482 0.146282 0)
(0.0324549 0.155207 0)
(0.0114296 0.0582975 0)
(0.0154577 0.0477378 0)
(0.0157784 0.0523349 0)
(0.0166921 0.0662525 0)
(0.0238563 0.0842993 0)
(0.0306287 0.106825 0)
(0.0342381 0.130012 0)
(0.0344386 0.135612 0)
(0.0351942 0.141772 0)
(0.0430903 0.14679 0)
(0.0246352 0.0488056 0)
(0.023203 0.0438953 0)
(0.027622 0.04704 0)
(0.0328509 0.0625476 0)
(0.0373058 0.0777493 0)
(0.0408722 0.0984512 0)
(0.0454323 0.12471 0)
(0.0506244 0.134556 0)
(0.0536891 0.134801 0)
(0.0574849 0.132511 0)
(0.016555 0.0494328 0)
(0.0283914 0.0364218 0)
(0.0437003 0.0344537 0)
(0.0562418 0.0483381 0)
(0.0650257 0.0802745 0)
(0.0602001 0.0958193 0)
(0.0597734 0.109366 0)
(0.0617529 0.11788 0)
(0.0685832 0.122531 0)
(0.0740979 0.120308 0)
(-0.0294388 0.005045 0)
(-0.00921315 0.000476617 0)
(0.0162239 -0.0198839 0)
(0.042168 0.00393433 0)
(0.0733224 0.0702846 0)
(0.0898982 0.0944633 0)
(0.0850797 0.121847 0)
(0.082025 0.119382 0)
(0.0794751 0.117222 0)
(0.0805966 0.113938 0)
(-0.0584725 -0.0511956 0)
(-0.0378582 -0.0639429 0)
(-0.0243872 -0.0756005 0)
(-0.00919716 -0.0645135 0)
(0.0191437 -0.0104176 0)
(0.0637609 0.0649411 0)
(0.0827776 0.118847 0)
(0.0941916 0.11893 0)
(0.0936059 0.125916 0)
(0.0906053 0.120593 0)
(-0.0707014 -0.0765786 0)
(-0.0638211 -0.0783891 0)
(-0.0616044 -0.0782285 0)
(-0.0603376 -0.0754953 0)
(-0.0509216 -0.0521984 0)
(-0.0237052 -0.0142155 0)
(0.0233417 0.0500531 0)
(0.0622501 0.0914051 0)
(0.0857461 0.11878 0)
(0.0947694 0.119716 0)
(-0.0629601 -0.075862 0)
(-0.0653547 -0.0790017 0)
(-0.0691038 -0.0814045 0)
(-0.0709002 -0.0854176 0)
(-0.0687229 -0.0778239 0)
(-0.0624901 -0.0718342 0)
(-0.0409835 -0.0508624 0)
(-0.0059216 0.00599483 0)
(0.0306597 0.0638875 0)
(0.06217 0.103783 0)
(-0.0522747 -0.0748041 0)
(-0.0511277 -0.0751584 0)
(-0.0514523 -0.072507 0)
(-0.0581984 -0.0697273 0)
(-0.0675535 -0.0760401 0)
(-0.069287 -0.0800843 0)
(-0.061745 -0.0780546 0)
(-0.0514278 -0.0525136 0)
(-0.0258701 -0.0130577 0)
(0.00592149 0.0436457 0)
(-0.0473546 -0.0826196 0)
(-0.0469014 -0.0810088 0)
(-0.0475756 -0.0678512 0)
(-0.046686 -0.0591111 0)
(-0.0493802 -0.0603753 0)
(-0.0587135 -0.0697617 0)
(-0.0625629 -0.0814692 0)
(-0.0622662 -0.0721786 0)
(-0.0527655 -0.048987 0)
(-0.0366703 -3.17704e-05 0)
(-0.0252543 -0.0718269 0)
(-0.0356137 -0.0689459 0)
(-0.050542 -0.0638203 0)
(-0.0488799 -0.0583 0)
(-0.0498676 -0.058016 0)
(-0.0480708 -0.0585947 0)
(-0.0456744 -0.0765916 0)
(-0.0498057 -0.0672892 0)
(-0.0563876 -0.0596184 0)
(-0.054766 -0.0368801 0)
(0.00984962 -0.0567155 0)
(0.0175155 -0.0402692 0)
(-0.0121367 -0.0422648 0)
(-0.0164802 -0.0660787 0)
(-0.0258122 -0.0588464 0)
(-0.0304477 -0.0638197 0)
(-0.0316913 -0.0896027 0)
(-0.0311843 -0.0533202 0)
(-0.0356672 -0.0493241 0)
(-0.0415451 -0.0381467 0)
(0.0196529 -0.0557577 0)
(0.0134235 -0.0410496 0)
(0.0152243 0.0182532 0)
(0.00593804 -0.0305356 0)
(-0.00445526 -0.0472461 0)
(0.00611948 -0.0375553 0)
(-0.0139566 -0.0709581 0)
(-0.0352791 -0.0502658 0)
(-0.034459 -0.0514058 0)
(-0.0364718 -0.0162265 0)
(0.0222895 -0.0224876 0)
(0.00975278 -0.0304791 0)
(0.00922813 -0.02498 0)
(0.0104155 -0.0327664 0)
(0.00524127 -0.0623432 0)
(0.00776667 -0.0328717 0)
(-0.0104783 -0.00874127 0)
(-0.0325251 -0.0145466 0)
(-0.0422262 -0.0289844 0)
(-0.0503193 -0.0152205 0)
(0.0379304 -0.0128734 0)
(0.0339032 -0.0102759 0)
(0.0240319 0.00105939 0)
(0.0201787 -0.00303226 0)
(-0.00246403 -0.0352919 0)
(-0.0239745 -0.00227392 0)
(-0.02726 0.00469239 0)
(-0.0234561 -0.0074928 0)
(-0.0197033 -0.0191322 0)
(-0.0127253 -0.0208878 0)
(0.0356316 -0.00873858 0)
(0.0360513 0.0012421 0)
(0.0297739 0.00348205 0)
(0.0287877 0.010576 0)
(0.0227405 0.0175424 0)
(0.0115198 0.0115898 0)
(0.011341 -0.00348169 0)
(0.0121954 -0.023901 0)
(0.00811534 -0.0351008 0)
(0.00873782 -0.0356116 0)
(0.0221215 -0.00895413 0)
(0.0278255 0.0043357 0)
(0.028956 0.00823753 0)
(0.0267873 0.0090674 0)
(0.0273459 0.0124077 0)
(0.028763 0.00946729 0)
(0.0298937 0.004614 0)
(0.0296068 -0.00264914 0)
(0.0250335 -0.017538 0)
(0.0234844 -0.0247378 0)
(0.0074337 -0.031411 0)
(0.00778404 -0.0142211 0)
(0.00713859 0.00487065 0)
(0.00663939 0.0134216 0)
(0.00987771 0.0123043 0)
(0.015974 0.00861475 0)
(0.0235116 0.000435113 0)
(0.0291828 -0.00910726 0)
(0.0333821 -0.0212255 0)
(0.034809 -0.029922 0)
(-0.0285194 -0.0124184 0)
(-0.0317349 0.00712842 0)
(-0.0299109 0.00989953 0)
(-0.0197965 0.00157376 0)
(-0.00282237 -0.0127628 0)
(0.0101359 -0.0173955 0)
(0.0215341 -0.022152 0)
(0.0299716 -0.0268383 0)
(0.0363793 -0.0305138 0)
(0.0389762 -0.0311719 0)
(-0.0459701 -0.0299875 0)
(-0.0358477 -0.013373 0)
(-0.0195405 -0.0182134 0)
(-0.00578009 -0.0416926 0)
(0.010194 -0.0454342 0)
(0.0214536 -0.0404402 0)
(0.0302488 -0.0364585 0)
(0.0350353 -0.0353749 0)
(0.0388526 -0.0361694 0)
(0.0405408 -0.034508 0)
(-0.0415065 -0.0472695 0)
(-0.0354934 -0.0449348 0)
(-0.0217368 -0.0569033 0)
(-0.0169167 -0.0650583 0)
(-0.0140086 -0.0615823 0)
(-0.00959106 -0.0615614 0)
(-0.00111668 -0.0530173 0)
(0.00542272 -0.0461381 0)
(0.0108808 -0.0442465 0)
(0.0138222 -0.0393974 0)
(-0.0158364 -0.0500988 0)
(-0.0113832 -0.0509821 0)
(-0.0137784 -0.0510341 0)
(-0.0190052 -0.0589331 0)
(-0.0208838 -0.0572827 0)
(-0.0172704 -0.0677286 0)
(-0.0125813 -0.0592392 0)
(-0.0052148 -0.0526217 0)
(0.00292444 -0.0473896 0)
(0.0102944 -0.048333 0)
(0.0491033 -0.0440082 0)
(0.0457203 -0.0525312 0)
(0.0402556 -0.0469547 0)
(0.0374028 -0.0523387 0)
(0.0394435 -0.0675665 0)
(0.0381547 -0.0789992 0)
(0.0404857 -0.0838424 0)
(0.0473834 -0.0868473 0)
(0.0552902 -0.0859014 0)
(0.066346 -0.0881739 0)
(0.0796967 -0.0447192 0)
(0.0824621 -0.0391094 0)
(0.0831186 -0.0374856 0)
(0.0827466 -0.0413117 0)
(0.0832614 -0.0565949 0)
(0.0821003 -0.0706307 0)
(0.0817227 -0.0804758 0)
(0.0836042 -0.0825073 0)
(0.0877866 -0.0854719 0)
(0.0929835 -0.0972193 0)
(0.0999596 -0.0446367 0)
(0.0936299 -0.0450778 0)
(0.0905224 -0.0465437 0)
(0.0887864 -0.0537345 0)
(0.086932 -0.0639281 0)
(0.085173 -0.0729832 0)
(0.0843894 -0.0860128 0)
(0.0851757 -0.0905199 0)
(0.0894255 -0.0949533 0)
(0.0943043 -0.110448 0)
(0.120326 -0.0221765 0)
(0.10871 -0.0191447 0)
(0.100595 -0.024779 0)
(0.0882577 -0.0338581 0)
(0.0767691 -0.0439637 0)
(0.070623 -0.0658572 0)
(0.0704005 -0.082975 0)
(0.0656031 -0.0882216 0)
(0.0679702 -0.098508 0)
(0.0666938 -0.123181 0)
(0.11197 0.000939671 0)
(0.0946452 -0.0019834 0)
(0.0790533 -0.00282422 0)
(0.0700731 -0.0128248 0)
(0.0643007 -0.030924 0)
(0.0529842 -0.052044 0)
(0.0369137 -0.0671728 0)
(0.0294119 -0.0805815 0)
(0.0261308 -0.104228 0)
(0.0262524 -0.128686 0)
(0.0919338 0.0374001 0)
(0.0630478 0.0483552 0)
(0.0602314 0.0358802 0)
(0.0491255 0.000651325 0)
(0.034453 -0.011682 0)
(0.017277 -0.0227844 0)
(0.0100211 -0.044883 0)
(0.00420781 -0.0747348 0)
(0.00821167 -0.104186 0)
(0.013354 -0.143561 0)
(0.0218128 0.0905126 0)
(0.0230225 0.0508295 0)
(0.0170118 0.0361972 0)
(0.00535812 0.0412513 0)
(-0.00312306 0.0237224 0)
(-0.00411967 -0.00369671 0)
(-0.00829891 -0.0354589 0)
(-0.00193201 -0.0807809 0)
(0.00918403 -0.119062 0)
(0.0274843 -0.182365 0)
(-0.0392472 0.0704554 0)
(-0.0416776 0.0655672 0)
(-0.0431948 0.0596575 0)
(-0.0395667 0.0295814 0)
(-0.030358 0.00477266 0)
(-0.0192874 -0.0192285 0)
(-0.0172306 -0.0495918 0)
(0.00564252 -0.115863 0)
(0.0253099 -0.164328 0)
(0.0502006 -0.223074 0)
(-0.0712381 0.073357 0)
(-0.0714182 0.067748 0)
(-0.0512911 0.0396385 0)
(-0.0416675 0.0154926 0)
(-0.0245653 -0.0126513 0)
(-0.00708391 -0.0327087 0)
(0.00119152 -0.078937 0)
(0.0360371 -0.176037 0)
(0.0499542 -0.204214 0)
(0.0583985 -0.228514 0)
(-0.0933462 0.06985 0)
(-0.0772739 0.0399712 0)
(-0.0593549 0.00210389 0)
(-0.0359559 -0.0185518 0)
(-0.00818677 -0.0590255 0)
(0.0163249 -0.0729318 0)
(0.0410157 -0.113185 0)
(0.0604861 -0.187933 0)
(0.0638909 -0.20823 0)
(0.0637147 -0.218698 0)
(-0.0957933 0.0541297 0)
(-0.0782065 0.000747093 0)
(-0.0521028 -0.0470055 0)
(-0.0268467 -0.0905199 0)
(-0.00613768 -0.118614 0)
(0.0100263 -0.14021 0)
(0.0387084 -0.172771 0)
(0.0472875 -0.211445 0)
(0.0503496 -0.218726 0)
(0.0475566 -0.207452 0)
(-0.0857954 0.0232345 0)
(-0.060942 -0.052845 0)
(-0.0397484 -0.106097 0)
(-0.0258344 -0.121582 0)
(-0.0147866 -0.132749 0)
(-0.0115629 -0.152095 0)
(-0.00882505 -0.187932 0)
(-0.018284 -0.215357 0)
(-0.0177283 -0.21918 0)
(-0.0157169 -0.206013 0)
(-0.0639437 0.0035316 0)
(-0.0503039 -0.0780352 0)
(-0.0539348 -0.113909 0)
(-0.0651347 -0.120463 0)
(-0.0831035 -0.130906 0)
(-0.0874241 -0.151867 0)
(-0.0951321 -0.172209 0)
(-0.103277 -0.190624 0)
(-0.102949 -0.199781 0)
(-0.0979531 -0.203765 0)
(-0.0925553 -0.0299294 0)
(-0.120336 -0.0650187 0)
(-0.171443 -0.0593426 0)
(-0.177373 -0.0656213 0)
(-0.180569 -0.105188 0)
(-0.171614 -0.149744 0)
(-0.162147 -0.167003 0)
(-0.156786 -0.197526 0)
(-0.147366 -0.214295 0)
(-0.139137 -0.221583 0)
(-0.233308 0.043101 0)
(-0.246054 0.0552392 0)
(-0.249296 -0.00851197 0)
(-0.235947 -0.0925187 0)
(-0.219479 -0.150128 0)
(-0.20711 -0.18767 0)
(-0.197579 -0.207707 0)
(-0.193333 -0.222818 0)
(-0.187981 -0.229026 0)
(-0.186794 -0.2338 0)
(-0.317053 0.0381952 0)
(-0.298991 -0.00912163 0)
(-0.274087 -0.0600481 0)
(-0.258763 -0.131065 0)
(-0.248002 -0.190761 0)
(-0.239405 -0.209628 0)
(-0.233966 -0.217392 0)
(-0.233963 -0.224009 0)
(-0.233592 -0.236677 0)
(-0.234286 -0.246896 0)
(-0.322414 0.0455959 0)
(-0.313846 -0.0395085 0)
(-0.299013 -0.100116 0)
(-0.273268 -0.164849 0)
(-0.259589 -0.202545 0)
(-0.252647 -0.215182 0)
(-0.247832 -0.218243 0)
(-0.246692 -0.219247 0)
(-0.249075 -0.223445 0)
(-0.256541 -0.233037 0)
(-0.294646 0.00871601 0)
(-0.275475 -0.0588526 0)
(-0.257947 -0.122607 0)
(-0.247019 -0.181081 0)
(-0.244457 -0.214494 0)
(-0.24324 -0.223438 0)
(-0.24189 -0.223003 0)
(-0.244668 -0.217466 0)
(-0.250309 -0.216395 0)
(-0.261511 -0.218103 0)
(-0.288412 -0.0385326 0)
(-0.267202 -0.0933516 0)
(-0.245928 -0.139361 0)
(-0.224325 -0.179083 0)
(-0.203645 -0.209423 0)
(-0.187619 -0.213051 0)
(-0.181859 -0.207665 0)
(-0.198749 -0.192963 0)
(-0.219205 -0.183467 0)
(-0.240643 -0.183039 0)
(-0.311777 -0.0980844 0)
(-0.286367 -0.158976 0)
(-0.255382 -0.216867 0)
(-0.213718 -0.255875 0)
(-0.169342 -0.285453 0)
(-0.117111 -0.242472 0)
(-0.100262 -0.18513 0)
(-0.094796 -0.137006 0)
(-0.132945 -0.121777 0)
(-0.175614 -0.13364 0)
(-0.299567 -0.142284 0)
(-0.27733 -0.219681 0)
(-0.244562 -0.309184 0)
(-0.196713 -0.385497 0)
(-0.15531 -0.421431 0)
(-0.109306 -0.400671 0)
(-0.0647983 -0.26989 0)
(-0.0532338 -0.11387 0)
(-0.0545696 -0.0537565 0)
(-0.0857721 -0.037214 0)
(-0.2308 -0.160377 0)
(-0.233129 -0.249859 0)
(-0.216595 -0.361015 0)
(-0.188161 -0.447552 0)
(-0.169399 -0.472631 0)
(-0.147864 -0.457111 0)
(-0.129111 -0.337229 0)
(-0.0832759 -0.196026 0)
(-0.0325009 -0.0362684 0)
(-0.0275678 0.00811921 0)
(-0.176457 -0.145054 0)
(-0.201547 -0.228556 0)
(-0.205061 -0.37618 0)
(-0.193885 -0.468276 0)
(-0.193072 -0.493693 0)
(-0.182546 -0.474682 0)
(-0.180759 -0.381395 0)
(-0.151756 -0.292181 0)
(-0.0922079 -0.199729 0)
(-0.0360474 -0.0372309 0)
(-0.174468 -0.132924 0)
(-0.185456 -0.190392 0)
(-0.19407 -0.374413 0)
(-0.202087 -0.468768 0)
(-0.213875 -0.489927 0)
(-0.226529 -0.472042 0)
(-0.239406 -0.399126 0)
(-0.224959 -0.336367 0)
(-0.203491 -0.276067 0)
(-0.14428 -0.141546 0)
(-0.168196 -0.114679 0)
(-0.15252 -0.174513 0)
(-0.155748 -0.339964 0)
(-0.192852 -0.42295 0)
(-0.216007 -0.450119 0)
(-0.245968 -0.444313 0)
(-0.263735 -0.400579 0)
(-0.26166 -0.340058 0)
(-0.248425 -0.314072 0)
(-0.228924 -0.267954 0)
(-0.08062 -0.149801 0)
(-0.0619488 -0.204928 0)
(-0.0528215 -0.252702 0)
(-0.0902437 -0.307388 0)
(-0.162975 -0.349041 0)
(-0.200971 -0.395979 0)
(-0.236502 -0.392462 0)
(-0.243837 -0.358082 0)
(-0.243063 -0.319133 0)
(-0.239919 -0.311507 0)
(0.0126706 -0.215737 0)
(0.0284809 -0.255546 0)
(0.0311948 -0.247327 0)
(0.0355643 -0.219625 0)
(0.00892805 -0.230443 0)
(-0.0496212 -0.288398 0)
(-0.113444 -0.352379 0)
(-0.142437 -0.3543 0)
(-0.162569 -0.318655 0)
(-0.173293 -0.318271 0)
(0.102524 -0.272806 0)
(0.112223 -0.271519 0)
(0.121278 -0.262084 0)
(0.131015 -0.24146 0)
(0.133611 -0.192267 0)
(0.122356 -0.163778 0)
(0.124129 -0.182315 0)
(0.0522235 -0.261816 0)
(0.00237964 -0.284437 0)
(-0.0250875 -0.290463 0)
(0.284401 -0.234322 0)
(0.263617 -0.268676 0)
(0.253468 -0.283313 0)
(0.240354 -0.280061 0)
(0.23136 -0.257341 0)
(0.24041 -0.199732 0)
(0.25465 -0.198624 0)
(0.254787 -0.184176 0)
(0.242431 -0.181373 0)
(0.21631 -0.191855 0)
(0.383305 -0.193196 0)
(0.36395 -0.205706 0)
(0.344917 -0.215878 0)
(0.326669 -0.216113 0)
(0.296595 -0.21694 0)
(0.292637 -0.215072 0)
(0.299939 -0.198672 0)
(0.301539 -0.186657 0)
(0.303622 -0.189493 0)
(0.30846 -0.182698 0)
(0.404531 -0.186471 0)
(0.391619 -0.186626 0)
(0.373102 -0.170063 0)
(0.334593 -0.144747 0)
(0.301123 -0.148598 0)
(0.283771 -0.20501 0)
(0.284727 -0.213086 0)
(0.293974 -0.209739 0)
(0.314698 -0.210734 0)
(0.328398 -0.207708 0)
(0.383063 -0.185382 0)
(0.365601 -0.173074 0)
(0.333094 -0.127407 0)
(0.307516 -0.105636 0)
(0.306545 -0.120419 0)
(0.301143 -0.189914 0)
(0.296186 -0.212749 0)
(0.293775 -0.225843 0)
(0.30019 -0.234621 0)
(0.310042 -0.236018 0)
(0.271263 -0.13205 0)
(0.263856 -0.0850359 0)
(0.260969 -0.0671046 0)
(0.257593 -0.0760716 0)
(0.280664 -0.140416 0)
(0.285422 -0.185337 0)
(0.280617 -0.21088 0)
(0.284291 -0.234196 0)
(0.312518 -0.270996 0)
(0.345199 -0.276927 0)
(0.162764 -0.109888 0)
(0.17066 -0.102008 0)
(0.186257 -0.0947277 0)
(0.211872 -0.12673 0)
(0.214493 -0.164078 0)
(0.221489 -0.186279 0)
(0.227107 -0.223631 0)
(0.25988 -0.297939 0)
(0.327139 -0.345824 0)
(0.358578 -0.337604 0)
(0.130771 -0.124447 0)
(0.136048 -0.12028 0)
(0.133186 -0.127221 0)
(0.134654 -0.147335 0)
(0.1344 -0.170769 0)
(0.149211 -0.207977 0)
(0.186907 -0.301766 0)
(0.246953 -0.379023 0)
(0.298737 -0.390743 0)
(0.305125 -0.373474 0)
(0.157215 -0.0199925 0)
(0.105432 -0.0605712 0)
(0.076121 -0.103047 0)
(0.0580545 -0.114731 0)
(0.0363493 -0.15961 0)
(0.0708479 -0.258252 0)
(0.136443 -0.44256 0)
(0.187303 -0.505174 0)
(0.252012 -0.505446 0)
(0.296131 -0.454432 0)
(0.135557 0.020408 0)
(0.102434 0.0171833 0)
(0.0638306 -0.0228734 0)
(-0.0223748 -0.0224048 0)
(-0.0330343 -0.230597 0)
(0.0295549 -0.470026 0)
(0.0779601 -0.623243 0)
(0.122805 -0.624346 0)
(0.153127 -0.580763 0)
(0.150198 -0.485066 0)
(0.109833 0.0671256 0)
(0.0889971 0.0513112 0)
(0.0536962 0.0957463 0)
(-0.0219309 0.0611154 0)
(-0.00943599 -0.297325 0)
(-0.020116 -0.532813 0)
(-0.00825531 -0.653598 0)
(0.00590163 -0.625437 0)
(0.0455715 -0.568699 0)
(0.0883414 -0.462855 0)
(0.0977488 0.0912121 0)
(0.0509879 0.140581 0)
(0.0639202 0.14777 0)
(0.0506951 0.107946 0)
(0.0611941 -0.21821 0)
(-0.0302645 -0.52682 0)
(-0.0168437 -0.666876 0)
(0.00203165 -0.685302 0)
(0.03892 -0.6806 0)
(0.0839563 -0.55375 0)
(-0.00689398 0.127997 0)
(0.0180889 0.112474 0)
(0.092449 0.101589 0)
(0.10771 0.0514554 0)
(0.14516 -0.08169 0)
(0.106825 -0.401132 0)
(0.107623 -0.689014 0)
(0.100669 -0.752199 0)
(0.100592 -0.739941 0)
(0.129942 -0.655099 0)
(-0.0311212 0.109173 0)
(0.0480147 -0.048794 0)
(0.0714822 -0.0291862 0)
(0.134672 -0.0193618 0)
(0.164507 -0.0749609 0)
(0.19483 -0.307144 0)
(0.210626 -0.645112 0)
(0.19451 -0.713319 0)
(0.175102 -0.714484 0)
(0.145853 -0.651194 0)
(-0.0206718 -0.0539138 0)
(0.0128272 -0.135154 0)
(0.0230853 -0.0894607 0)
(0.057803 -0.144927 0)
(0.0975967 -0.244649 0)
(0.181795 -0.434544 0)
(0.214942 -0.650244 0)
(0.208432 -0.696274 0)
(0.211925 -0.672823 0)
(0.161606 -0.550913 0)
(0.0667112 -0.0684618 0)
(0.0398392 -0.0997875 0)
(0.0175865 -0.118928 0)
(0.0516415 -0.206495 0)
(0.0592487 -0.416189 0)
(0.162515 -0.602812 0)
(0.196523 -0.697948 0)
(0.208291 -0.704202 0)
(0.214609 -0.649881 0)
(0.117444 -0.3649 0)
(0.0493786 -0.114583 0)
(0.0501384 -0.0728388 0)
(0.0555663 -0.0826927 0)
(0.0636835 -0.182967 0)
(0.0898206 -0.495578 0)
(0.141035 -0.68106 0)
(0.141953 -0.756111 0)
(0.175326 -0.744331 0)
(0.118879 -0.533392 0)
(-0.0675009 -0.0448672 0)
(0.0115649 -0.0971216 0)
(0.00815309 -0.0972257 0)
(0.0101024 -0.108736 0)
(0.0239021 -0.272748 0)
(0.0871122 -0.611439 0)
(0.108277 -0.713734 0)
(0.0771768 -0.742325 0)
(0.0623608 -0.651872 0)
(-0.13566 -0.0375473 0)
(-0.146766 -0.0136463 0)
(0.00269827 -0.0932581 0)
(0.00835638 -0.0971754 0)
(-0.0122481 -0.109807 0)
(0.0202259 -0.433961 0)
(0.0660047 -0.657215 0)
(0.0644764 -0.709556 0)
(0.0446115 -0.723079 0)
(0.0526926 -0.28423 0)
(-0.114323 0.026189 0)
(-0.0979703 -0.0446237 0)
(-0.00850861 -0.0850368 0)
(0.0108517 -0.089607 0)
(0.000948617 -0.119502 0)
(0.0436557 -0.466134 0)
(0.0504252 -0.660764 0)
(0.0472963 -0.696779 0)
(0.0231094 -0.70894 0)
(0.0116258 -0.00809428 0)
(-0.106261 0.0938932 0)
(-0.0610839 -0.0988744 0)
(-0.0169403 -0.108967 0)
(0.0149185 -0.123036 0)
(0.0232551 -0.151682 0)
(0.0530784 -0.494141 0)
(0.0594926 -0.659184 0)
(0.0600245 -0.686807 0)
(0.0408139 -0.68774 0)
(0.12766 -0.336766 0)
(0.0111671 0.254452 0)
(0.0864948 0.0434342 0)
(-0.00986908 -0.125576 0)
(0.0173815 -0.174963 0)
(0.019719 -0.168301 0)
(0.0284232 -0.554402 0)
(0.0315486 -0.661971 0)
(0.026781 -0.67966 0)
(0.00970288 -0.680187 0)
(0.0178426 -0.137784 0)
(-0.029082 0.283981 0)
(-0.195312 -0.108259 0)
(-0.00966634 -0.13056 0)
(0.0213325 -0.186998 0)
(0.014118 -0.148956 0)
(0.0339514 -0.571118 0)
(0.0241461 -0.647077 0)
(0.00445559 -0.651344 0)
(-0.0173113 -0.646061 0)
(-0.0112216 -0.0816428 0)
(0.0241305 0.578938 0)
(0.0610593 0.258519 0)
(-0.0926482 -0.308556 0)
(-0.141815 -0.218622 0)
(-0.0155045 -0.137206 0)
(0.0325547 -0.611649 0)
(0.0203067 -0.608418 0)
(0.00465568 -0.611724 0)
(-0.0168747 -0.609296 0)
(-0.0078404 -0.414104 0)
(0.113833 0.421936 0)
(0.176304 0.252188 0)
(-0.145958 -0.314797 0)
(-0.124382 -0.274289 0)
(0.0511254 -0.545245 0)
(0.0290546 -0.61635 0)
(0.00543226 -0.575963 0)
(-0.00723208 -0.576705 0)
(-0.0314054 -0.572275 0)
(-0.0464168 -0.446161 0)
(0.0451193 0.117572 0)
(0.135065 0.176158 0)
(0.0427216 -0.220715 0)
(-0.00378509 -0.340808 0)
(0.0686443 -0.526118 0)
(0.0284797 -0.541385 0)
(0.00426991 -0.542034 0)
(-0.0170212 -0.544264 0)
(-0.0353463 -0.546181 0)
(-0.0579665 -0.494968 0)
(0.0295326 0.158842 0)
(-0.00130222 0.144223 0)
(0.103961 -0.234853 0)
(0.0588223 -0.339025 0)
(0.0560553 -0.498914 0)
(0.0270692 -0.50845 0)
(0.00623894 -0.507831 0)
(-0.00613008 -0.51091 0)
(-0.0244195 -0.509025 0)
(-0.0614276 -0.497121 0)
(0.00268252 -0.0448725 0)
(0.025635 0.151831 0)
(0.129314 -0.18134 0)
(0.0671134 -0.255325 0)
(0.0594928 -0.452116 0)
(0.030756 -0.465993 0)
(0.0110479 -0.467103 0)
(-0.0154494 -0.468055 0)
(-0.0357699 -0.467113 0)
(-0.0587732 -0.439515 0)
(-0.0543356 -0.140668 0)
(-0.018671 0.190376 0)
(0.0795326 -0.0923157 0)
(0.065569 -0.189918 0)
(0.0601174 -0.400399 0)
(0.0305168 -0.424952 0)
(0.00891345 -0.435477 0)
(-0.00271537 -0.430595 0)
(-0.0265367 -0.423828 0)
(-0.0625021 -0.406954 0)
(-0.0595076 -0.161709 0)
(-0.033616 0.159013 0)
(0.0107962 -0.0702611 0)
(0.065359 -0.253556 0)
(0.0667729 -0.35884 0)
(0.0335499 -0.382401 0)
(0.0135492 -0.38267 0)
(-0.0168003 -0.383266 0)
(-0.0369808 -0.37904 0)
(-0.0657525 -0.356659 0)
(-0.0713753 -0.253581 0)
(0.00410918 0.129347 0)
(0.0656254 -0.0753382 0)
(0.0714162 -0.273949 0)
(0.0686963 -0.319241 0)
(0.0397858 -0.32944 0)
(0.0131536 -0.334851 0)
(-0.0128094 -0.332447 0)
(-0.0371835 -0.331549 0)
(-0.065555 -0.314467 0)
(-0.0702974 -0.2753 0)
(-0.0174683 0.0551942 0)
(0.102598 -0.16373 0)
(0.0764653 -0.222661 0)
(0.0695852 -0.262786 0)
(0.0389883 -0.28459 0)
(0.0182816 -0.28487 0)
(-0.00993661 -0.283404 0)
(-0.037781 -0.281938 0)
(-0.0731269 -0.263777 0)
(-0.0755496 -0.221685 0)
(-0.102263 -0.158489 0)
(0.0591583 -0.11969 0)
(0.048555 -0.196112 0)
(0.0414596 -0.236444 0)
(0.0163695 -0.246816 0)
(0.0022056 -0.250754 0)
(-0.0178156 -0.249993 0)
(-0.0262168 -0.24378 0)
(-0.044318 -0.235929 0)
(-0.049124 -0.196639 0)
(-0.0595376 -0.117893 0)
(-0.019914 -1.01089e-05 0)
(-0.019436 -0.0029946 0)
(-0.0209332 -0.0016585 0)
(-0.0242236 -0.00127415 0)
(-0.0310253 -0.00194439 0)
(-0.0399155 0.00512252 0)
(-0.0580902 0.0183341 0)
(-0.0744666 0.0139421 0)
(-0.0842708 0.00519174 0)
(-0.090745 0.00367664 0)
(-0.0935988 0.00308639 0)
(-0.0940787 -0.000202758 0)
(-0.091604 -0.004027 0)
(-0.0876547 -0.00460164 0)
(-0.0844592 -0.00368484 0)
(-0.0842867 -0.000705748 0)
(-0.0886635 0.00294549 0)
(-0.0976747 0.0071612 0)
(-0.109363 0.00965849 0)
(-0.121038 0.0108206 0)
(-0.127537 0.0107967 0)
(-0.129198 0.00811284 0)
(-0.125296 0.00104662 0)
(-0.113842 -0.00834046 0)
(-0.09839 -0.0142226 0)
(-0.0831807 -0.0137669 0)
(-0.070511 -0.010975 0)
(-0.0625029 -0.00794783 0)
(-0.0588357 -0.00686052 0)
(-0.0563966 -0.00773053 0)
(-0.0518502 -0.00861954 0)
(-0.0440964 -0.0107197 0)
(-0.0342169 -0.0133281 0)
(-0.0234879 -0.0127583 0)
(-0.0130073 -0.00798149 0)
(-0.00675291 -0.00341678 0)
(-0.00201617 -0.00485774 0)
(0.00464854 -0.00363873 0)
(0.00699065 0.000711189 0)
(0.003772 0.0106491 0)
(-0.0130753 0.0105606 0)
(-0.0223714 0.00529273 0)