/*--------------------------------*- C++ -*----------------------------------*\
  =========                 |
  \\      /  F ield         | OpenFOAM: The Open Source CFD Toolbox
   \\    /   O peration     | Website:  https://openfoam.org
    \\  /    A nd           | Version:  8
     \\/     M anipulation  |
\*---------------------------------------------------------------------------*/
FoamFile
{
    version     2.0;
    format      ascii;
    class       volScalarField;
    location    "3.6";
    object      p_rgh;
}
// * * * * * * * * * * * * * * * * * * * * * * * * * * * * * * * * * * * * * //

dimensions      [1 -1 -2 0 0 0 0];

internalField   nonuniform List<scalar> 
9150
(
1963.48
1962.49
1961.89
1961.41
1961.18
1961.17
1961.41
1961.89
1962.5
1963.49
1963.06
1962.55
1962.14
1961.8
1961.62
1961.64
1961.81
1962.14
1962.55
1963.07
1962.79
1962.51
1962.26
1962.04
1961.92
1961.93
1962.04
1962.25
1962.51
1962.79
1962.67
1962.5
1962.33
1962.17
1962.09
1962.08
1962.17
1962.33
1962.5
1962.67
1962.68
1962.49
1962.35
1962.22
1962.17
1962.16
1962.23
1962.35
1962.49
1962.68
1951.9
1950.89
1951.02
1951.53
1951.68
1951.69
1951.55
1951.06
1950.91
1951.89
1955.84
1955.11
1954.88
1954.81
1954.89
1954.88
1954.78
1954.84
1955.08
1955.81
1958.86
1958.12
1957.82
1957.45
1957.4
1957.39
1957.45
1957.81
1958.12
1958.86
1961.54
1960.44
1960
1959.37
1959.21
1959.22
1959.38
1960.03
1960.46
1961.57
1964.25
1962.17
1961.41
1960.68
1960.43
1960.43
1960.68
1961.42
1962.17
1964.25
1947.13
1945.6
1943.77
1942.73
1942.08
1941.99
1942.44
1943.5
1945.54
1947.2
1946.16
1945.95
1944.97
1944.63
1944.22
1944.24
1944.7
1945.07
1946.01
1946.23
1945.91
1945.96
1945.01
1945.38
1944.93
1944.9
1945.3
1944.99
1945.98
1945.94
1942.7
1945.39
1944.42
1945.9
1945.72
1945.7
1945.98
1944.44
1945.43
1942.73
1935.94
1945.96
1946.35
1947.89
1948.2
1948.17
1947.87
1946.31
1945.95
1935.94
751.975
745.21
738.392
731.894
725.425
719.588
714.524
710.86
709.161
709.884
737.005
731.997
726.784
721.162
716.176
710.637
704.623
700.659
699.465
700.631
704.005
702.711
701.374
697.589
692.616
686.99
682.686
680.067
678.106
681.791
683.788
686.965
688.081
689.11
686.719
682.508
676.344
669.995
667.394
670.843
675.037
685.761
725.777
722.504
719.123
712.271
704.082
701.549
701.952
705.842
664.801
700.15
723.47
723.621
716.176
714.755
718.498
719.122
721.434
724.496
656.809
658.836
663.17
689.36
667.832
667.466
692.252
703.683
715.807
721.902
653.625
650.566
653.949
657.162
658.739
659.172
658.676
658.241
665.342
713.476
708.958
715.794
696.687
688.461
680.872
663.294
656.263
658.014
658.811
659.386
697.424
705.913
714.392
722.993
731.327
738.209
719.657
669.297
661.728
663.403
690.132
700.318
710.19
719.031
726.749
733.368
740.353
745.996
717.162
684.089
682.311
693.27
703.531
713.517
723.383
732.648
740.02
741.727
746.908
749.305
675.216
686.402
697.029
707.476
718.002
729.174
740.702
747.915
756.948
753.34
668.207
679.115
689.399
700.214
711.625
724.316
738.428
752.68
770.564
777.802
661.581
671.578
680.244
673.744
656.609
645.095
643.593
669.759
753.427
779.08
659.142
663.393
610.52
516.408
479.993
485.147
499.619
558.658
716.771
742.413
660.286
590.666
447.022
422.115
430.109
443.901
481.223
582.221
681.654
691.08
656.721
495.213
403.4
398.951
401.353
475.776
628.449
667.588
668.078
667.914
662.751
473.802
391.717
389.073
399.483
633.924
662.37
656.677
651.377
622.917
676.777
528.915
384.491
382.477
429.793
654.191
664.637
664.371
613.045
478.633
685.83
655.158
408.516
376.48
411.848
620.776
681.221
680.317
521.506
438.22
694.759
691.719
533.031
381.63
388.69
549.214
702.823
696.527
511.689
442.26
716.724
718.794
680.555
417.2
404.8
487.988
705.628
718.493
579.971
451.239
740.945
743.896
736.981
464.72
415.078
478.369
718.635
734.313
633.688
463.274
766.151
769.04
749.018
479.117
431.841
539.116
744.018
748.141
655.058
456.725
792.573
793.986
653.612
467.815
449.222
705.332
774.954
768.261
685.143
442.012
825.608
803.524
559.548
496.245
646.74
793.878
786.339
779.271
632.158
427.668
859.588
623.509
580.115
604.812
802.212
810.434
798.195
781.782
515.466
424.675
737.727
641.74
638.649
850.514
837.505
822.186
812.036
654.9
426.12
421.085
653.978
743.25
885.164
863.573
850.514
838.019
818.556
575.825
426.1
417.91
704.059
911.025
894.179
878.948
864.338
848.332
826.785
586.085
438.618
518.624
871.364
889.087
850.741
880.302
863.182
847.587
836.872
717.912
523.902
788.325
822.528
739.177
555.862
773.986
825.308
824.533
796.557
767.049
734.659
802.252
713.386
651.11
386.32
390.25
690.353
760.172
676.388
692.512
766.901
817.041
539.727
391.096
253.533
171.648
292.868
566.811
695.355
684.626
707.794
813.755
90.1272
86.8074
110.401
141.956
166.213
397.157
649.908
727.086
724.152
551.3
130.316
136.318
144.703
155.461
164.425
424.829
669.688
710.051
700.408
318.575
174.264
171.777
212.218
265.023
332.595
699.064
694.072
663.138
307.346
176.236
408.02
493.932
491.825
398.124
627.61
793.771
660.466
206.701
98.1055
99.0795
479.233
473.26
471.726
674.466
843.429
791.716
255.595
81.1482
73.5251
75.1684
680.608
787.276
861.546
856.517
860.409
679.136
188.622
95.1409
91.6557
93.3857
816.047
818.265
838.155
853.948
787.039
630.806
351.022
127.887
128.216
127.699
307.265
250.642
388.815
801.788
710.079
633.455
528.95
211.306
146.026
145.49
27.7951
27.7526
27.9587
339.688
472.831
654.796
596.367
324.406
191.339
169.91
28.5211
28.8458
28.7899
124.164
484.54
671.931
579.992
155.543
130.749
357.62
28.1749
28.3163
28.4196
113.529
550.78
682.945
432.689
69.6234
73.0951
171.161
27.4157
27.4631
47.991
118.78
594.616
699.612
350.583
41.5066
69.6422
169.136
27.0174
27.2041
83.527
136.348
630.985
717.534
300.733
28.535
70.4679
39.2386
26.8757
27.1945
94.9291
141.768
669.472
737.215
213.143
24.8737
45.3122
10.4293
26.5948
49.0488
128.29
157.749
713.736
755.82
125.465
6.26829
1.66733
0.275507
202.089
202.624
153.917
109.982
775.002
754.652
54.4591
0.234861
0.137806
0.117254
198.946
179.45
66.2495
46.8158
779.348
771.259
15.6808
-0.00433159
0.0517646
0.0638407
67.4566
18.5474
5.18318
17.092
810.991
760
4.50044
0.117924
0.110807
0.112725
0.147605
0.313006
0.581633
2.6085
815.206
788.67
1.43291
0.168592
0.158817
0.15501
0.113273
0.242244
0.364032
1.21926
825.033
818.553
0.928874
0.205391
0.196575
0.188114
0.0957925
0.174138
0.189159
2.91361
839.361
846.078
3.43933
0.208676
0.2494
0.197489
0.30514
-0.0161129
-0.00554418
6.93056
867.42
864.639
7.03467
0.200677
0.290378
0.188397
-0.00384281
-0.136654
-0.116017
11.0897
889.915
891.88
11.8122
0.181515
0.316764
0.16826
-0.149043
-0.137953
-0.130981
16.695
916.541
916.412
17.1812
0.172116
0.328684
0.435432
-0.0637289
-0.058808
-0.0502885
22.6406
941.577
942.268
23.1168
0.164433
0.353663
0.539856
0.0310563
0.0383183
0.0450611
29.1059
967.322
967.863
29.4224
0.157907
0.315531
0.535048
0.339986
0.104514
0.104213
36.0883
993.227
993.725
36.3091
0.152878
0.183801
0.535376
1.18371
0.202224
0.142516
43.6755
1019.25
1019.54
43.848
0.140631
0.14226
0.329027
1.70629
0.287094
0.159226
50.7103
1043.6
1043.75
50.8176
0.124491
0.126132
0.122386
0.331248
0.131187
0.109314
58.2705
1068.07
1068.25
58.3798
0.113873
0.161741
0.114979
0.126779
0.130665
0.0769577
65.7181
1092.5
1092.43
65.9308
0.113517
0.261129
0.117022
0.136831
0.13007
0.0707724
73.6259
1116.83
1116.68
73.8861
0.116743
0.588395
0.116791
0.258441
0.140071
0.0777365
82.0218
1141.29
1141.31
82.2467
0.121818
0.967319
0.123185
0.131434
0.0897344
0.0864963
90.877
1166.18
1166.39
91.1167
0.138027
1.25552
0.132361
0.162216
0.100761
0.0987499
101.643
1192.81
1192.91
102.179
0.191856
1.40967
2.12891
0.478771
0.186989
0.121212
113.456
1219.75
1219.94
113.997
0.169268
1.86122
2.11473
0.796581
0.330672
0.149062
126.907
1247.58
1248.14
127.29
0.0993438
0.587917
1.36495
0.815034
0.310967
0.160311
142.932
1277.12
1277.34
143.279
0.0595001
0.559055
0.441275
0.758831
0.210829
0.153737
160.296
1306.22
1307.32
160.842
0.0402468
0.367422
0.368645
0.378559
0.147679
0.126911
180.402
1336.61
1337.78
181.046
0.0167929
0.473748
0.476022
0.232114
0.21154
0.104484
202.131
1367.78
1366.36
201.946
-0.00878106
0.486024
0.246814
0.228251
0.233882
0.0984434
226.683
1398.38
1397.07
226.268
-0.0181169
0.226522
0.00428198
0.303614
0.240896
0.103741
252.635
1426.88
1429.01
253.386
-0.0168333
-0.0124663
-0.0149174
0.315537
0.247616
0.107542
283.186
1457.16
1460.81
284.741
-0.017222
-0.0142882
-0.0125072
0.321987
0.200099
0.103082
317.243
1489.75
1489.24
317.358
-0.0115287
-0.0103077
0.0154014
0.234553
0.132597
0.0935564
358.995
1524.8
1517.32
355.039
-0.00595403
-0.00979425
-0.00776648
0.105612
0.319535
0.0955082
399.297
1552.66
1550.76
397.542
-0.0166475
-0.0184883
-0.0128452
0.119363
0.558555
0.126231
444.526
1576.02
1590
452.794
-0.0362475
-0.0302494
0.0210933
0.859841
0.593799
0.163148
498.079
1606.14
1620.17
507.47
-0.045395
-0.0118672
0.115726
0.985422
0.556327
0.154686
560.719
1637.5
1646.87
566.807
-0.0459454
0.00198065
0.113249
0.701908
0.172112
0.124402
631.575
1667.02
1672.08
634.848
-0.0412717
-0.0121913
0.11581
0.155816
0.0884328
0.0866909
714.426
1694.5
1695.6
714.835
-0.035727
-0.022208
0.0568731
0.0641445
0.0682873
0.0677262
809.924
1717.54
1719.27
810.619
-0.0328024
-0.00147359
-0.00976574
0.0571304
0.0592556
0.0585098
921.146
1738.82
1740.51
921.855
-0.0242967
0.0247305
-0.00351747
0.055884
0.0552742
0.0531084
1047.35
1760.51
1759.73
1047.15
-0.00538231
0.0285771
0.109255
0.0524221
0.0528604
0.0495677
1187.52
1780.95
1778.57
1186.06
0.0151005
0.0230055
0.147767
0.0480913
0.0480406
0.054985
1340.29
1798.32
1798.97
1340.86
0.0318428
0.024362
0.193114
0.0374193
0.0390261
47.8943
1478.68
1817.71
1817.4
1478.38
43.73
0.0283499
0.211683
0.0325851
0.0309639
190.473
1617.98
1836.32
1836.3
1617.7
186.296
0.0327964
0.189992
0.114929
0.0421812
381.8
1745.53
1854.8
1855.14
1745.28
393.479
0.0145412
0.0847111
0.408855
0.0569566
687.242
1836.78
1873.62
1873.72
1845.93
776.53
-0.00784629
-0.00756506
0.396658
0.237482
1154.6
1891.35
1892.46
1892.54
1891.65
1296.35
0.00157805
-0.00519266
0.232783
146.371
1618.58
1909.69
1910.94
1911.31
1910.68
1709.47
195.44
-0.00975111
0.0430385
1124.85
1927.58
1927.45
1927.05
1926.81
1926.64
1925.25
1083.85
-0.0222011
638.847
1873.4
1939.3
1937.55
1936.92
1937.01
1937.85
1939.76
1884.17
653.015
712.275
716.768
721.005
723.558
725.085
725.915
726.175
726.836
727.406
728.029
729.105
729.429
729.725
729.84
729.953
729.39
727.85
727.956
723.111
720.827
715.194
708.077
702.798
699.342
696.891
696.297
698.5
703.39
710.049
717.019
723.794
729.866
735.127
739.857
742.422
740.227
741.813
739.268
745.879
750.121
704.135
711.564
718.123
722.116
723.935
725.187
725.423
725.706
726.323
726.748
728.075
728.313
729
729.214
729.851
729.107
726.445
725.011
721.04
718.421
711.329
701.022
695.604
693.675
691.396
689.878
691.196
695.994
703.257
711.25
718.846
725.918
732.094
737.334
740.449
739.313
736.259
730.91
732.419
739.216
692.124
704.686
712.543
716.287
719.807
721.695
723.666
724.016
724.618
725.096
726.131
726.487
725.515
725.343
725.363
724.38
720.638
717.986
713.382
712.613
705.41
694.126
684.926
689.482
680.995
677.542
677.159
682.639
689.873
699.419
708.47
716.432
723.227
728.955
732.612
732.554
726.955
726.831
725.036
731.077
684.827
702.806
710.674
714.523
717.234
719.456
721.447
722.103
723.026
723.634
724.843
724.779
723.653
723.071
723.006
721.263
715.809
711.581
706.716
711.184
703.417
685.415
672.795
667.901
666.253
664.24
660.569
662.563
679.247
688.593
697.873
706.06
712.671
718.273
722.555
721.59
720.91
716.733
719.746
717.712
712.039
714.992
716.702
717.228
718.689
719.988
721.634
721.796
722.368
723.606
723.907
723.121
722.331
721.529
721.921
720.245
713.898
709.095
705.878
711.659
703.085
677.896
671.447
665.438
661.963
659.156
656.88
655.159
669.409
683.977
692.875
701.255
707.074
713.122
717.823
710.883
715.043
716.383
698.648
694.717
726.381
725.226
721.232
718.209
719.416
721.216
722.606
723.267
723.737
723.956
723.72
723.127
721.89
720.972
721.554
720.104
712.935
708.51
706.16
712.373
697.902
676.642
671.459
665.122
659.887
657.294
655.846
655.384
677.126
687.514
695.723
704.287
703.362
705.757
725.615
706.796
698.436
725.585
682.158
686.79
722.053
715.798
700.78
699.56
713.579
722.184
725.007
725.498
725.195
724.852
724.523
724.157
722.95
721.34
721.182
720.984
714.382
707.756
704.9
709.384
700.003
677.315
673.133
668.52
664.343
662.431
661.953
662.248
680.796
697.759
704.929
713.111
708.765
711.468
723.6
721.499
697.919
696.895
692.983
729.52
724.915
712.533
676.951
677.719
697.634
725.128
725.86
724.678
726.986
726.256
725.678
725.365
725.088
722.284
721.653
721.489
721.054
708.457
706.318
704.022
707.133
693.849
677.159
673.516
669.739
667.929
668.137
671.234
700.068
707.823
713.984
720.914
723.533
713.798
717.119
738.822
743.871
705.636
702.703
754.197
714.961
730.578
678.768
681.806
684.272
692.684
718.283
706.325
710.142
725.005
726.318
724.656
722.13
724.328
724.97
723.521
724.356
722.788
711.649
709.372
715.645
720.437
713.688
706.035
694.878
691.184
696.437
710.645
715.094
719.586
724.628
729.914
734.383
716.109
717.238
733.609
741.681
715.578
730.157
753.025
699.176
737.027
732.956
687.097
681.154
680.915
679.259
676.447
675.804
686.841
706.893
710.681
720.983
727.564
727.723
727.127
726.981
726.445
725.178
721.843
724.781
725.011
724.699
724.626
723.972
722.974
722.841
724.206
726.461
729.426
734.184
737.891
739.305
715.201
716.91
734.699
738.996
699.132
730.446
751.665
709.442
736.196
735.606
733.576
711.572
673.95
671.692
670.087
673.78
704.22
719.495
720.231
729.699
730.396
730.608
730.505
730.079
729.25
728.313
727.117
725.999
722.443
719.371
719.247
724.934
726.545
727.094
730.074
734.008
737.916
740.577
741.528
728.712
713.62
716.979
738.684
734.206
689.137
687.568
750.858
741.01
710.586
709.557
700.77
710.75
712.168
699.702
679.415
723.622
726.352
726.987
730.386
733.448
734.154
734.976
734.576
733.84
733.111
732.439
724.66
693.127
675.067
675.626
675.5
671.172
704.754
730.819
735.4
735.677
737.954
733.02
731.289
710.983
708.884
713.888
735.513
757.227
701.024
698.556
754.101
719.821
678.182
615.38
599.755
674.881
698.963
706.68
715.772
717.949
709.657
701.205
705.232
712.467
720.852
738.338
734.017
711.019
705.033
703.971
702.223
698.997
732.183
738.128
728.559
644.486
638.795
643.93
687.591
661.344
641.456
642.688
645.261
653.337
708.678
728.662
757.781
759.528
716.798
758.276
761.076
714.123
588.327
565.04
548.068
541.221
576.732
619.556
664.974
668.897
676.88
701.165
716.275
714.713
726.844
703.621
704.952
705.148
705.874
741.386
744.538
744.139
742.644
740.437
737.483
696.652
633.695
634.409
635.695
637.079
639.221
640.717
655.592
714.455
715.277
725.356
742.814
760.787
754.395
760.372
760.742
781.639
725.211
554.302
508.594
498.316
489.316
488.425
499.66
539.201
590.875
657.255
707.177
731.564
742.226
747.788
747.97
748.092
749.229
748.339
747.421
746.293
744.987
743.622
741.859
740.164
728.388
715.607
714.282
709.234
662.59
657.037
706.189
732.919
714.142
717.528
741.635
758.209
759.923
760.214
759.852
745.439
740.332
729.321
660.916
478.629
451.175
448.131
447.745
445.388
504.329
581.633
624.183
657.188
689.156
725.758
748.978
747.866
749.288
750.142
750.659
750.068
748.8
747.328
745.924
744.664
743.972
743.575
734.404
725.604
735.11
741.504
743.152
730.809
718.88
733.676
751.581
754.594
755.679
751.585
754.822
690.25
688.34
682.627
676.474
651.756
464.184
422.613
422.698
423.964
427.742
494.558
592.823
622.189
683.254
711.144
669.685
674.313
689.672
752.047
755.547
754.599
753.257
751.449
749.43
747.48
745.562
743.56
741.466
739.321
737.406
736.12
736.353
737.956
740.468
743.717
747.144
748.916
748.462
731.326
746.931
666.786
664.079
659.359
658.056
607.727
412.715
398.785
407.597
413.472
414.362
427.254
595.134
664.523
636.987
662.523
697.869
701.41
658.131
672.55
752.342
757.492
756.625
754.82
752.674
750.016
746.595
742.518
737.448
731.685
723.691
723.01
719.218
670.676
684.064
731.417
742.123
744.715
744.665
677.39
721.963
602.472
629.399
661.238
670.825
634.653
457.455
395.68
400.216
403.909
406.974
468.63
648.973
664.739
636.308
605.566
672.95
747.312
646.252
646.806
664.697
755.793
762.799
751.164
749.204
753.797
749.917
744.051
735.655
723.841
620.56
555.361
549.197
539.333
549.157
640.935
735.636
748.918
708.583
660.425
706.283
442.881
476.377
585.575
658.988
658.224
622.043
504.942
416.251
454.311
601.662
621.158
624.321
637.161
621.663
578.507
644.73
757.061
657.909
641.568
645.723
709.891
750.579
717.61
726.438
760.608
757.629
751.474
744.671
711.291
543.333
531.682
533.196
536.143
540.088
543.478
640.043
733.188
672.297
703.587
749.569
437.57
434.863
519.854
506.734
474.871
506.948
524.952
525.526
515.268
440.816
425.285
452.332
591.307
494.94
538.603
675.028
746.657
662.909
633.583
639.595
733.44
728.597
718.833
738.335
766.438
764.419
761.243
756.966
751.522
689.89
541.93
535.581
538.127
541.952
546.291
551.133
667.009
671.698
704.045
712.102
437.63
538.034
662.16
469.703
443.622
434.564
426.134
432.023
404.91
402.323
409.242
419.934
433.357
449.6
568.411
708.018
733.339
644.987
623.891
637.274
755.892
757.676
717.801
757.013
768.528
766.605
762.804
738.719
632.6
601.105
632.513
598.327
538.798
540.832
544.121
603.56
740.921
747.457
729.495
721.713
578.013
697.685
690.375
631.928
442.296
428.806
420.56
407.967
403.751
407.044
412.734
421.305
431.772
505.883
675.692
708.763
725.319
651.02
620.046
676.766
766.598
762.993
719.494
769.251
770.663
769.502
767.039
647.12
545.956
543.952
584.332
536.03
537.037
536.47
648.251
762.809
770.188
771.682
768.047
754.931
665.426
712.462
706.31
694.958
581.737
566.053
624.913
502.939
418.245
419.487
473.073
515.877
556.949
672.046
699.475
712.271
725.07
716.431
630.71
744.31
770.15
769.09
755.996
735.428
771.057
771.305
771.363
728.096
563.019
539.999
539.311
536.057
580.261
691.888
761.462
766.102
767.08
768.661
765.144
738.834
540.684
718.138
728.691
724.346
715.781
706.122
698.724
691.675
681.759
659.06
670.507
688.028
696.234
701.313
706.756
716.212
726.27
737.416
744.693
765.576
738.54
770.872
755.438
723.954
750.988
771.841
772.995
773.756
728.976
617.346
584.393
670.284
732.374
763.012
760.365
750.573
752.441
769.8
761.657
738.665
432.451
572.037
729.392
746.696
741.098
732.377
723.999
716.206
710.136
667.26
483.373
374.153
419.254
531.72
642.724
695.381
715.269
728.841
750.81
762.781
707.877
764.052
749.358
718.713
718.333
759.155
772.054
772.26
772.245
766.781
759.239
763.794
772.299
760.94
752.376
752.206
753.292
770.649
769.261
740.367
426.966
431.238
657.283
763.001
757.184
746.735
742.096
733.658
664.659
379.26
347.968
343.545
338.938
335.62
358.948
485.081
661.616
711.391
645.589
615.828
698.9
760.601
762.108
716.9
751.284
756.938
771.473
772.234
770.859
771.449
769.285
763.014
767.514
767.714
761.273
768.628
769.074
769.805
770.31
771.049
422.257
421.019
581.588
759.017
729.896
645.98
704.518
750.849
742.83
584.401
352.628
350.064
347.266
344.608
344.152
346.337
381.727
436.831
441.425
443.954
651.488
759.557
763.967
766.653
715.923
754.703
771.193
771.234
769.785
769.079
749.16
749.272
761.189
762.657
764.486
766.286
767.743
769.455
770.945
771.679
416.92
416.301
592.272
760.779
620.658
615.822
648.516
764.14
761.958
760.662
744.365
661.569
520.278
388.741
360.579
364.409
372.072
380.799
450.568
556.437
757.613
769.542
772.94
773.848
713.623
712.436
772.68
771.676
769.318
766.892
661.605
633.633
722.519
757.73
761.934
765.718
768.718
771.041
772.27
773.685
428.525
555.594
724.404
712.372
625.612
623.805
621.23
701.198
774.585
772.795
772.517
773.062
768.381
731.199
677.692
651.959
646.898
657.193
700.875
721.435
713.533
677.192
684.018
757.419
765.297
722.024
701.409
723.56
724.607
714.59
611.015
612.306
732.14
766.404
763.757
759.354
760.703
767.553
770.073
770.633
735.325
810.386
803.526
680.642
635.141
631.838
656.83
786.222
782.127
778.94
776.513
775.249
775.408
776.763
778.596
778.955
780.574
782.439
694.672
677.963
680.565
680.849
744.336
791.258
791.431
774.126
676.146
631.306
622.59
556.447
592.511
716.572
764.711
761.213
659.137
593.645
609.708
720.068
762.423
752.239
836.724
833.899
827.622
757.671
655.8
788.486
805.08
798.121
791.609
785.774
781.864
779.952
779.126
778.783
779.02
780.765
742.571
665.904
670.952
673.802
741.14
795.81
796.415
795.858
794.62
791.166
785.997
774.502
645.525
510.451
471.027
594.052
634.125
473.665
431.231
430.64
430.517
450.17
483.111
483.689
877.166
870.21
859.172
845.396
838.477
828.486
818.525
808.246
794.083
786.914
785.444
782.224
780.666
780.537
783.175
782.199
701.621
662.551
690.224
783.099
783.877
784.843
786.098
787.005
786.905
787.178
787.109
723.928
460.469
431.459
435.036
434.281
432.155
431.352
431.116
431.172
440.646
454.631
471.328
507.023
830.407
908.961
892.499
875.889
859.866
845.133
830.065
811.508
710.127
458.17
357.21
371.076
404.878
487.351
717.51
776.74
771.25
764.422
770.588
767.43
764.983
765.779
770.135
774.059
774.249
783.027
787.316
790.839
794.155
591.803
436.292
436.639
436.469
448.845
540.346
649.414
713.512
734.543
779.792
797.137
798.864
798.555
911.469
893.382
875.16
856.682
837.773
735.255
383.728
338.747
331.391
325.801
322.19
320.106
332.35
558.786
761.536
766.258
756.123
746.493
740.458
743.794
753.182
752.756
739.758
748.621
784.907
790.614
796.092
800.875
803.826
800.844
796.257
798.132
798.885
797.462
796.207
794.882
793.434
793.038
747.138
667.212
660.496
891.391
887.296
871.972
855.629
840.893
827.156
793.726
471.982
317.895
318.156
316.786
314.035
311.84
332.107
421.604
563.874
693.32
733.949
740.601
750.907
754.332
735.032
741.519
746.921
786.175
789.881
791.926
792.541
789.109
792.017
791.946
791.598
791.117
765.256
727.05
769.237
789.237
577.447
762.681
667.392
712.092
811.787
857.281
844.573
833.241
822.668
816.033
812.222
790.663
713.677
534.847
383.024
341.854
342.412
397.915
523.72
652.015
735.044
751.947
758.001
764.796
770.66
751.87
745.953
771.26
784.246
785.165
779.357
772.335
772.577
778.742
786.356
786.1
708.534
686.789
713.059
769.574
219.024
643.605
820.091
675.691
678.263
761.26
827.636
815.455
811.445
794.624
802.164
803.53
806.829
806.348
779.189
751.049
737.734
738.549
751.59
760.47
764.73
765.41
768.965
772.746
775.632
777.659
761.469
778.099
778.44
778.668
778.494
778.571
768.058
776.945
781.89
777.372
686.913
682.491
735.069
746.418
111.912
411.085
781.208
792.188
717.127
738.729
812.427
804.18
798.6
772.038
671.759
659.164
780.013
787.855
793.786
796.365
795.871
792.677
787.553
773.114
775.923
775.661
777.553
773.295
778.798
771.75
778.115
774.995
774.163
773.179
771.659
771.018
772.223
774.915
777.593
754.743
680.657
748.391
750.677
739.217
84.8157
426.623
786.735
798.969
798.367
781.185
793.658
800.442
799.504
749.99
368.758
249.391
488.838
768.445
780.478
787.854
792.688
793.453
788.453
783.816
777.543
727.589
633.441
544.614
556.05
680.332
752.423
732.809
684.509
620.675
573.705
622.807
701.973
745.693
749.041
725.349
716.767
731.757
746.039
735.168
118.893
628.622
799.099
794.588
598.659
524.867
400.608
412.305
528.023
404.064
238.26
231.822
223.541
346.072
731.275
779.26
788.971
793.085
790.216
691.329
469.306
211.413
374.871
409.117
279.293
285.286
219.503
196.672
129.262
65.1723
35.812
39.0547
108.646
200.805
249.76
307.96
320.673
337.345
353.937
359.261
327.494
787.614
812.152
801.734
473.249
270.201
269.87
274.618
262.796
250.039
242.129
237.225
231.99
227.74
233.079
499.661
767.311
804.047
596.051
98.6304
1.78261
2.24249
29.4029
110.124
27.6172
0.515376
0.47717
0.457607
1.84289
0.343055
0.319499
0.318383
0.31019
0.317161
0.331855
0.344333
0.355806
0.369181
0.399464
0.378636
416.11
785.314
832.065
822.862
617.873
367.071
285.417
313.654
558.106
585.243
287.702
241.326
238.777
236.552
233.804
229.794
476.915
489.499
93.7418
0.690121
0.699794
0.658595
0.730244
0.941243
3.88995
2.27766
0.417276
0.414867
0.77962
0.28312
0.278752
0.269777
0.266148
0.282324
0.425817
0.510574
0.426953
0.384695
0.393358
0.393445
395.691
749.836
856.422
850.296
670.985
686.77
676.831
704.242
702.202
695.46
689.349
416.599
242.066
244.332
244.122
288.936
499.994
277.415
4.83196
0.765865
0.76192
0.734772
0.638795
0.519142
0.447482
1.04548
0.73961
0.289842
0.289927
0.314683
0.267457
0.254722
0.260865
0.274569
0.406557
0.859284
1.13988
0.684407
0.431487
0.411268
529.439
821.439
860.932
856.058
620.03
423.292
500.003
594.314
603.077
622.615
606.044
604.241
339.209
288.786
414.568
423.173
416.699
127.692
0.953135
1.20292
1.23266
0.876765
0.646086
0.536174
0.443416
0.370134
0.405134
0.331605
0.30149
0.297289
0.301399
0.290577
0.285232
0.295045
0.314234
0.336748
1.12325
1.36984
1.1423
0.52267
507.571
828.976
871.33
867.543
524.615
167.739
93.993
99.0545
105.618
149.375
134.391
222.124
229.473
231.296
178.81
52.4121
0.398033
0.304014
0.642335
1.45331
1.57074
1.60843
1.63949
1.45075
0.520419
0.325467
0.311986
0.311685
0.313578
0.314286
0.315575
0.321242
0.325996
0.33718
0.351349
0.364788
0.377104
1.28078
1.43443
0.924052
174.371
513.654
667.796
533.475
115.741
5.80972
1.5824
2.39628
2.07963
0.426084
0.446171
0.476222
14.6798
13.0901
0.175879
0.171986
0.215896
0.231048
0.245502
0.227179
0.459877
1.49024
1.56331
1.55383
1.2263
0.306093
0.284473
0.380285
1.16645
1.24969
0.518283
0.338982
0.343687
0.365754
0.369718
0.384013
0.401522
0.771994
1.48417
1.17262
1.68408
0.240928
12.2423
0.182888
0.111451
0.243588
1.08895
1.23321
2.6166
2.47704
0.773552
0.413102
0.425477
0.474387
0.490501
0.434021
0.429531
0.35501
0.243147
0.219376
0.208503
0.316471
0.607566
0.552522
0.412414
0.236333
0.242523
0.786739
1.29029
1.31507
1.33812
1.3532
0.852235
0.35994
0.372605
0.391736
0.409611
0.712898
1.50784
1.13824
3.02608
0.261323
0.168644
0.199228
0.227805
0.266884
1.14379
0.674539
0.347177
0.352117
0.360649
0.393478
0.415706
0.41564
0.961984
0.937738
0.927467
0.412637
0.244043
0.209124
0.180529
0.178549
0.181535
0.18679
0.188439
0.197924
0.208986
0.217613
1.05748
1.30617
1.32795
1.34912
1.37144
1.04918
0.37334
0.380814
0.39666
0.858229
1.52011
1.03616
1.67504
2.05457
1.55508
0.313937
0.338704
0.82551
1.07178
0.38555
0.34769
0.348553
0.372531
1.07026
1.05649
1.0367
0.98016
0.505197
0.239634
0.239783
0.268944
0.293299
0.292972
0.291114
0.162512
0.156308
0.163903
0.175457
0.189066
0.202073
0.242058
0.321848
1.2743
1.3376
1.35645
1.30356
0.392172
0.359084
0.372314
1.06021
1.49866
0.881223
0.12032
1.43453
1.61564
0.713512
0.684215
0.43578
0.343083
0.343345
0.339285
1.06331
1.1638
1.14114
0.985523
0.319607
0.154218
0.15731
0.228206
0.25315
0.264528
0.267824
0.267614
0.267003
0.157351
0.12756
0.137552
0.151603
0.166969
0.182564
0.197367
0.209446
0.629973
1.34
1.35025
0.706989
0.314796
0.330349
0.719614
1.47336
1.41848
0.598543
0.0983987
0.201503
0.413836
1.00035
0.648601
0.350434
0.347293
0.358505
1.19197
1.18519
1.16866
0.332602
0.150902
0.147931
0.146521
0.26597
0.96558
0.718669
0.122583
0.106589
0.103721
0.102605
0.105892
0.109971
0.118064
0.129332
0.142957
0.159057
0.176104
0.191002
0.340954
0.843992
0.500713
0.281076
0.281697
0.801743
1.44251
1.44877
0.987742
0.457882
0.123311
0.137463
0.276264
1.01695
0.848278
0.373088
0.540138
1.22667
1.21097
1.18556
0.235821
0.145454
0.145332
0.144534
0.174354
0.964208
0.959626
0.851197
0.176764
0.094091
0.0912205
0.0906862
0.0925448
0.0972119
0.104834
0.115496
0.129124
0.145151
0.162065
0.17895
0.193049
0.206377
0.234944
0.267056
0.977943
1.41847
1.42492
1.41141
0.69786
0.39403
0.156623
0.16289
0.469949
0.85088
0.615958
0.699994
1.2596
1.23942
1.20839
0.232956
0.140034
0.139186
0.150918
0.138538
0.668209
0.974131
0.964841
0.953626
0.670573
0.0893493
0.0793761
0.0788353
0.0807261
0.0856292
0.0933261
0.103943
0.117963
0.135108
0.152547
0.169233
0.18338
0.196566
0.456849
0.734127
1.0524
0.83837
0.600669
0.444723
0.41188
0.372128
0.184576
0.23458
0.496739
0.46042
0.847189
1.29536
1.27464
1.24714
0.420151
0.138063
0.129699
0.130101
0.145177
0.155387
0.846051
0.982809
0.973027
0.96198
0.949702
0.10284
0.0724846
0.0718234
0.0743962
0.0793177
0.0867667
0.0973254
0.111204
0.127252
0.144066
0.159288
0.173402
0.92547
1.0333
0.632228
0.381115
0.344558
0.350642
0.354782
0.359075
0.365404
0.191937
0.206264
0.354052
0.948288
1.32219
1.30969
1.28964
1.15722
0.544491
0.433376
0.143177
0.120073
0.121814
0.129996
0.395943
0.991542
0.983733
0.972684
0.779561
0.0708016
0.0712147
0.0721931
0.0755433
0.0814118
0.0890574
0.0989621
0.110926
0.124086
0.137925
0.159606
1.08423
1.18844
0.840294
0.317413
0.327787
0.336993
0.55854
0.830554
0.59376
0.523725
0.1844
0.188515
0.40102
1.33194
1.3269
1.31653
1.30222
1.28194
1.26243
0.63923
0.113976
0.11644
0.118106
0.11801
0.133537
0.723836
1.00433
0.990159
0.446357
0.0767037
0.076879
0.0786282
0.0826049
0.0885951
0.0957014
0.10443
0.114018
0.122676
0.148792
1.15159
1.33992
1.18724
0.313355
0.320911
0.342779
0.971071
1.05348
1.05036
1.04524
1.03664
0.177123
0.168503
0.362723
1.3155
1.3156
1.30873
1.28654
1.28815
1.15476
0.270521
0.114437
0.116666
0.117935
0.117942
0.116935
0.208036
1.02374
1.01379
0.356603
0.0848345
0.0866547
0.0879693
0.091385
0.0966357
0.103029
0.110392
0.117481
0.121463
0.821763
1.35194
1.3613
0.375973
0.328031
0.626802
1.042
1.05041
1.0529
0.983388
0.747317
0.638813
0.155674
0.149488
0.162358
0.524968
1.27166
0.916105
0.232332
0.351843
0.292854
0.115663
0.118237
0.120186
0.121206
0.13894
0.145129
0.147041
0.489687
1.03056
0.39057
0.0970718
0.0974086
0.0967487
0.0991432
0.10389
0.10611
0.212788
0.659046
1.12095
1.35102
1.35734
0.957919
0.382534
0.569431
0.732629
0.741689
0.388584
0.409148
0.280309
0.275759
0.284729
0.147906
0.211537
0.191771
0.133591
0.117162
0.119672
0.119779
0.117792
0.119522
0.122079
0.123653
0.124757
0.47863
0.895337
0.465373
0.147694
0.331448
1.02322
0.809496
0.142581
0.114887
0.594022
0.916863
0.472241
0.848875
1.34377
1.34935
1.34323
1.34756
1.04017
0.237384
0.520497
0.614761
0.569202
0.20954
0.22371
0.236897
0.24623
0.264245
0.434365
0.453808
0.527428
0.522129
0.183454
0.12869
0.126538
0.125866
0.125933
0.127379
0.127501
0.128742
0.35827
1.08266
1.09408
0.596564
0.150104
0.201553
0.89692
0.921158
0.894094
0.714267
1.00294
0.999233
0.912436
0.193725
0.837573
1.35727
1.35423
0.583754
0.143847
0.135426
0.529722
0.586859
0.166434
0.179722
0.208609
0.674856
0.879461