/*--------------------------------*- C++ -*----------------------------------*\
  =========                 |
  \\      /  F ield         | OpenFOAM: The Open Source CFD Toolbox
   \\    /   O peration     | Website:  https://openfoam.org
    \\  /    A nd           | Version:  8
     \\/     M anipulation  |
\*---------------------------------------------------------------------------*/
FoamFile
{
    version     2.0;
    format      ascii;
    class       volVectorField;
    location    "3.6";
    object      U;
}
// * * * * * * * * * * * * * * * * * * * * * * * * * * * * * * * * * * * * * //

dimensions      [0 1 -1 0 0 0 0];

internalField   nonuniform List<vector> 
9150
(
(0.00494333 -0.0778192 0)
(0.0130271 -0.0973589 0)
(0.010814 -0.10419 0)
(0.00861668 -0.107855 0)
(0.00171739 -0.109496 0)
(-0.00306416 -0.109027 0)
(-0.00885898 -0.107676 0)
(-0.0108249 -0.104207 0)
(-0.0130681 -0.0973327 0)
(-0.00493408 -0.0778073 0)
(0.00600789 -0.0920274 0)
(0.00865892 -0.100556 0)
(0.00740336 -0.102139 0)
(0.0044608 -0.104306 0)
(0.00191692 -0.105407 0)
(-0.0018617 -0.105471 0)
(-0.0041934 -0.104785 0)
(-0.0073419 -0.102278 0)
(-0.00867714 -0.100547 0)
(-0.00601124 -0.0920236 0)
(0.00180033 -0.0954286 0)
(0.00462024 -0.0989977 0)
(0.00371867 -0.100998 0)
(0.00330472 -0.101668 0)
(0.0012098 -0.102331 0)
(-0.000596078 -0.102487 0)
(-0.00334179 -0.10165 0)
(-0.00374239 -0.100958 0)
(-0.00462389 -0.0990026 0)
(-0.00180526 -0.0954337 0)
(0.00178941 -0.0984242 0)
(0.00250379 -0.100407 0)
(0.00217977 -0.100245 0)
(0.0012764 -0.100861 0)
(0.000372512 -0.100906 0)
(-0.000787655 -0.10087 0)
(-0.00134573 -0.100758 0)
(-0.00218624 -0.10027 0)
(-0.00250198 -0.100421 0)
(-0.0017857 -0.0984259 0)
(0.000203059 -0.0995022 0)
(0.000740415 -0.0995659 0)
(0.000491508 -0.099984 0)
(0.000699992 -0.0998607 0)
(0.000240724 -0.100094 0)
(-0.000103307 -0.100126 0)
(-0.000626897 -0.0998854 0)
(-0.000445997 -0.100026 0)
(-0.000740251 -0.0995712 0)
(-0.000201083 -0.0995008 0)
(0.0769523 -0.195227 1.45592e-26)
(0.0498153 -0.185514 0)
(0.0319524 -0.177757 0)
(0.016714 -0.174356 0)
(0.00521467 -0.17627 0)
(-0.00424995 -0.176466 0)
(-0.0160904 -0.175707 0)
(-0.0317396 -0.177219 0)
(-0.0497615 -0.185425 0)
(-0.0769621 -0.195366 -1.47578e-26)
(0.0582492 -0.146114 3.98918e-27)
(0.0482109 -0.146221 0)
(0.0281185 -0.156283 0)
(0.020287 -0.157564 0)
(0.00423508 -0.155795 0)
(-0.00493139 -0.155435 0)
(-0.0207446 -0.155614 0)
(-0.0284938 -0.156136 0)
(-0.048357 -0.146485 0)
(-0.0583796 -0.146305 -3.939e-27)
(0.0477178 -0.121706 2.05897e-27)
(0.0421331 -0.131271 0)
(0.0292374 -0.13356 0)
(0.0170358 -0.137119 0)
(0.00482071 -0.140356 0)
(-0.0070565 -0.140649 0)
(-0.0180711 -0.138143 0)
(-0.029559 -0.134226 0)
(-0.0422337 -0.131566 0)
(-0.047771 -0.121792 -2.15495e-27)
(0.0374974 -0.0997688 2.87342e-27)
(0.0390391 -0.110369 0)
(0.0228469 -0.120566 0)
(0.0184083 -0.124769 0)
(0.00550818 -0.125052 0)
(-0.00320908 -0.125481 0)
(-0.0169355 -0.125446 0)
(-0.0220162 -0.120324 0)
(-0.038689 -0.110328 0)
(-0.0373903 -0.0997352 -2.89935e-27)
(0.0251857 -0.0813849 -1.04952e-26)
(0.0281725 -0.101069 -1.23968e-26)
(0.0198168 -0.108067 -3.15956e-27)
(0.0108107 -0.114207 -2.77598e-27)
(0.00482529 -0.11687 -1.0192e-28)
(-0.00422277 -0.116611 -9.40902e-29)
(-0.011343 -0.113612 -2.82996e-27)
(-0.0200817 -0.108225 -3.16956e-27)
(-0.0282846 -0.101003 -1.24073e-26)
(-0.025165 -0.0813199 -1.05018e-26)
(0.0180159 -0.145886 0)
(0.0132849 -0.204454 0)
(0.0218916 -0.216339 0)
(0.00718812 -0.223675 0)
(0.00501726 -0.226482 0)
(-0.0101853 -0.225907 0)
(-0.011364 -0.222543 0)
(-0.0229562 -0.215735 0)
(-0.0136134 -0.20456 0)
(-0.0181696 -0.145527 0)
(0.0160579 -0.165905 0)
(0.00232572 -0.198938 0)
(0.0155058 -0.208102 0)
(0.00337281 -0.212465 0)
(0.00758006 -0.214472 0)
(-0.0042836 -0.214728 0)
(-0.000883699 -0.214742 0)
(-0.0146787 -0.209248 0)
(-0.00208001 -0.19954 0)
(-0.0159833 -0.166154 0)
(0.0148057 -0.17212 0)
(-0.00327187 -0.202989 0)
(0.0111724 -0.207746 0)
(-0.0013889 -0.209698 0)
(0.00360588 -0.209655 0)
(-0.00498491 -0.209512 0)
(0.000710124 -0.208892 0)
(-0.0113809 -0.207826 0)
(0.00316658 -0.203132 0)
(-0.014862 -0.172211 0)
(0.0173825 -0.193576 0)
(-0.00643388 -0.203542 0)
(0.0101144 -0.20945 0)
(-0.000819569 -0.205533 0)
(0.00294547 -0.206734 0)
(-0.00141323 -0.206844 0)
(0.00178103 -0.206878 0)
(-0.00976504 -0.209739 0)
(0.00643328 -0.203615 0)
(-0.0171964 -0.193608 0)
(0.0326867 -0.217543 0)
(0.00823817 -0.203825 0)
(0.0163227 -0.204093 0)
(0.0102795 -0.197686 0)
(0.0017072 -0.194164 0)
(-0.00278048 -0.193683 0)
(-0.0107603 -0.196015 0)
(-0.0164883 -0.204026 0)
(-0.00824153 -0.20381 0)
(-0.0328434 -0.217754 0)
(-0.0052973 -0.036938 0)
(0.0364252 -0.0351927 0)
(0.0735779 -0.0304622 0)
(0.107584 -0.0338823 0)
(0.139839 -0.0244575 0)
(0.166356 -0.0242269 0)
(0.18805 -0.0147134 0)
(0.198704 -0.0107147 0)
(0.210993 -0.000983557 0)
(0.213057 0.0224287 0)
(0.00728013 -0.135058 0)
(0.0387496 -0.129557 0)
(0.0713769 -0.110848 0)
(0.0961818 -0.111723 0)
(0.126855 -0.0885286 0)
(0.151092 -0.0844382 0)
(0.178396 -0.0536126 0)
(0.188941 -0.0341988 0)
(0.193355 -0.0202281 0)
(0.204726 0.0160686 0)
(-0.0374773 -0.197443 0)
(-0.0295805 -0.184393 0)
(-0.0163062 -0.171802 0)
(0.00248809 -0.16083 0)
(0.023268 -0.160992 0)
(0.0486484 -0.150416 0)
(0.0824681 -0.0906266 0)
(0.0999605 -0.051183 0)
(0.104328 -0.0343425 0)
(0.118233 0.0225577 0)
(-0.313077 -0.154212 0)
(-0.309982 -0.148125 0)
(-0.294464 -0.168046 0)
(-0.273781 -0.186941 0)
(-0.241834 -0.181714 0)
(-0.204692 -0.176025 0)
(-0.170597 -0.174918 0)
(-0.122646 -0.119026 0)
(-0.0785497 -0.0618396 0)
(-0.0573526 0.0297066 0)
(-0.415297 -0.15881 0)
(-0.388514 -0.196153 0)
(-0.362745 -0.243953 0)
(-0.338936 -0.257093 0)
(-0.312814 -0.243954 0)
(-0.302214 -0.23876 0)
(-0.299652 -0.227011 0)
(-0.286117 -0.171653 0)
(-0.24385 -0.106639 0)
(-0.177753 -0.0387046 0)
(-0.42287 -0.210192 0)
(-0.401687 -0.247044 0)
(-0.384487 -0.279213 0)
(-0.368594 -0.28566 0)
(-0.350826 -0.258983 0)
(-0.343976 -0.242573 0)
(-0.336999 -0.244349 0)
(-0.324348 -0.247962 0)
(-0.284029 -0.229803 0)
(-0.227973 -0.198608 0)
(-0.414565 -0.256092 0)
(-0.38297 -0.279891 0)
(-0.362546 -0.307951 0)
(-0.360889 -0.315587 0)
(-0.352424 -0.301764 0)
(-0.339476 -0.284811 0)
(-0.324098 -0.290171 0)
(-0.302268 -0.298808 0)
(-0.276074 -0.300496 0)
(-0.241344 -0.307882 0)
(-0.387709 -0.330167 0)
(-0.380488 -0.333772 0)
(-0.366697 -0.344378 0)
(-0.347816 -0.337151 0)
(-0.324188 -0.336376 0)
(-0.307666 -0.325386 0)
(-0.28666 -0.335664 0)
(-0.274364 -0.334425 0)
(-0.263161 -0.329349 0)
(-0.251713 -0.335743 0)
(-0.32707 -0.365665 0)
(-0.314819 -0.368178 0)
(-0.300642 -0.376105 0)
(-0.298056 -0.378549 0)
(-0.293039 -0.368517 0)
(-0.289149 -0.360934 0)
(-0.286821 -0.35092 0)
(-0.27495 -0.344607 0)
(-0.270829 -0.340672 0)
(-0.269905 -0.336625 0)
(-0.195666 -0.359953 0)
(-0.192558 -0.359256 0)
(-0.194212 -0.36139 0)
(-0.200523 -0.356879 0)
(-0.211008 -0.349675 0)
(-0.219425 -0.350696 0)
(-0.234263 -0.342254 0)
(-0.244168 -0.332006 0)
(-0.25933 -0.33527 0)
(-0.269736 -0.321692 0)
(-0.147391 -0.385015 0)
(-0.13669 -0.370799 0)
(-0.128559 -0.357056 0)
(-0.119782 -0.346015 0)
(-0.113089 -0.332848 0)
(-0.111187 -0.317635 0)
(-0.127435 -0.303992 0)
(-0.15014 -0.303649 0)
(-0.163313 -0.299299 0)
(-0.192917 -0.276409 0)
(-0.132181 -0.413796 0)
(-0.118004 -0.408302 0)
(-0.103552 -0.396524 0)
(-0.0936374 -0.3729 0)
(-0.0806392 -0.356182 0)
(-0.0723751 -0.319527 0)
(-0.0528499 -0.282337 0)
(-0.0479643 -0.26103 0)
(-0.0566953 -0.267422 0)
(-0.0772747 -0.244189 0)
(-0.108911 -0.421478 0)
(-0.0939848 -0.417113 0)
(-0.0867951 -0.410539 0)
(-0.0822144 -0.395559 0)
(-0.0751594 -0.385155 0)
(-0.0601109 -0.376543 0)
(-0.0271912 -0.335556 0)
(0.000844909 -0.282687 0)
(0.0308337 -0.25398 0)
(0.0560551 -0.205796 0)
(-0.0932466 -0.466366 0)
(-0.0847482 -0.450249 0)
(-0.0788225 -0.419356 0)
(-0.0798304 -0.397052 0)
(-0.0782429 -0.390875 0)
(-0.0775132 -0.403227 0)
(-0.053128 -0.401814 0)
(-0.00423217 -0.366278 0)
(0.0762807 -0.346488 0)
(0.148906 -0.298094 0)
(-0.0797481 -0.483752 0)
(-0.07857 -0.457765 0)
(-0.0815337 -0.420738 0)
(-0.0955432 -0.395027 0)
(-0.116252 -0.392884 0)
(-0.120434 -0.418443 0)
(-0.0929169 -0.453291 0)
(-0.0231712 -0.501804 0)
(0.0899872 -0.52956 0)
(0.177096 -0.480644 0)
(-0.0728605 -0.494556 0)
(-0.0728838 -0.452512 0)
(-0.0950331 -0.382873 0)
(-0.164541 -0.323569 0)
(-0.191946 -0.340782 0)
(-0.142517 -0.447016 0)
(-0.061033 -0.61455 0)
(0.0933757 -0.786525 0)
(0.156516 -0.780357 0)
(0.206399 -0.694955 0)
(-0.0514904 -0.487012 0)
(-0.0626415 -0.410352 0)
(-0.126937 -0.23635 0)
(-0.205912 -0.198255 0)
(-0.143439 -0.463037 0)
(0.0427259 -0.792579 0)
(0.159494 -0.904001 0)
(0.217801 -0.876255 0)
(0.222505 -0.826288 0)
(0.237107 -0.737386 0)
(-0.00968479 -0.455149 0)
(-0.0348588 -0.330716 0)
(-0.0713214 -0.15581 0)
(-0.0978301 -0.233778 0)
(0.0766491 -0.836146 0)
(0.145447 -1.01216 0)
(0.19094 -0.991537 0)
(0.212073 -0.91082 0)
(0.203319 -0.831349 0)
(0.202064 -0.743537 0)
(0.0249678 -0.423537 0)
(0.00958745 -0.299957 0)
(0.00639393 -0.179374 0)
(0.0842417 -0.357881 0)
(0.122089 -0.93329 0)
(0.147051 -1.06579 0)
(0.161282 -1.02398 0)
(0.142033 -0.890475 0)
(0.123657 -0.788077 0)
(0.126049 -0.723231 0)
(0.0680819 -0.404109 0)
(0.0645118 -0.315335 0)
(0.0750067 -0.278395 0)
(0.119921 -0.413698 0)
(0.114474 -0.976114 0)
(0.11177 -1.08198 0)
(0.106375 -1.00056 0)
(0.0953269 -0.850134 0)
(0.0993034 -0.785712 0)
(0.101876 -0.733191 0)
(0.1323 -0.400128 0)
(0.13615 -0.351131 0)
(0.152396 -0.304825 0)
(0.173471 -0.398844 0)
(0.129348 -0.95457 0)
(0.0992411 -1.07158 0)
(0.102209 -0.982195 0)
(0.0929658 -0.849237 0)
(0.0979612 -0.79601 0)
(0.0927007 -0.769795 0)
(0.197604 -0.399292 0)
(0.185231 -0.360502 0)
(0.200398 -0.331214 0)
(0.223818 -0.382551 0)
(0.172291 -0.804714 0)
(0.117541 -1.04678 0)
(0.120404 -0.976209 0)
(0.105551 -0.854571 0)
(0.120627 -0.796402 0)
(0.10341 -0.774845 0)
(0.221205 -0.381588 0)
(0.20951 -0.340749 0)
(0.211511 -0.336373 0)
(0.21053 -0.369859 0)
(0.198625 -0.68087 0)
(0.140779 -1.00447 0)
(0.141403 -0.967312 0)
(0.109757 -0.852117 0)
(0.131178 -0.76273 0)
(0.0890752 -0.730758 0)
(0.233284 -0.373024 0)
(0.219194 -0.333837 0)
(0.216637 -0.330574 0)
(0.213509 -0.365636 0)
(0.234498 -0.636802 0)
(0.203001 -0.944438 0)
(0.189408 -0.932108 0)
(0.132023 -0.822037 0)
(0.137338 -0.682594 0)
(0.0334775 -0.561771 0)
(0.221072 -0.331691 0)
(0.20523 -0.307851 0)
(0.203977 -0.316266 0)
(0.208516 -0.390216 0)
(0.270783 -0.669317 0)
(0.253028 -0.885692 0)
(0.237488 -0.86565 0)
(0.156183 -0.761514 0)
(0.143494 -0.618099 0)
(0.0932839 -0.418874 0)
(0.214276 -0.316611 0)
(0.197864 -0.301655 0)
(0.196613 -0.333014 0)
(0.250394 -0.459153 0)
(0.293472 -0.720545 0)
(0.264637 -0.817681 0)
(0.241352 -0.76349 0)
(0.143265 -0.6519 0)
(0.140564 -0.5724 0)
(0.12474 -0.382212 0)
(0.158313 -0.267966 0)
(0.153622 -0.27867 0)
(0.15494 -0.371042 0)
(0.229106 -0.630888 0)
(0.240593 -0.769401 0)
(0.220928 -0.756663 0)
(0.173168 -0.646992 0)
(0.0995732 -0.567419 0)
(0.0948947 -0.52006 0)
(0.0984751 -0.366552 0)
(0.131182 -0.245459 0)
(0.121337 -0.310655 0)
(0.211072 -0.456042 0)
(0.240601 -0.665833 0)
(0.207029 -0.691954 0)
(0.160983 -0.632708 0)
(0.0923513 -0.536768 0)
(0.0663461 -0.535222 0)
(0.0681714 -0.512725 0)
(0.0933579 -0.404302 0)
(0.0915044 -0.221717 0)
(0.102963 -0.384302 0)
(0.176898 -0.598397 0)
(0.113073 -0.676451 0)
(0.069527 -0.610516 0)
(0.0199906 -0.501196 0)
(0.00851087 -0.512816 0)
(0.0106695 -0.534437 0)
(0.0368715 -0.533801 0)
(0.0469162 -0.475403 0)
(-0.00679319 -0.341074 0)
(0.0595329 -0.482759 0)
(0.0434172 -0.603258 0)
(0.0064251 -0.538538 0)
(-0.0437144 -0.471092 0)
(-0.0411076 -0.483105 0)
(-0.0396147 -0.536692 0)
(-0.0416008 -0.555436 0)
(0.00194848 -0.602617 0)
(-0.0197167 -0.518285 0)
(-0.0571903 -0.379242 0)
(-0.0807276 -0.457638 0)
(-0.125358 -0.474306 0)
(-0.161111 -0.443194 0)
(-0.122487 -0.472645 0)
(-0.110691 -0.518808 0)
(-0.102067 -0.543271 0)
(-0.102774 -0.564929 0)
(-0.0953888 -0.601587 0)
(-0.160321 -0.393116 0)
(-0.145202 -0.265669 0)
(-0.244844 -0.323799 0)
(-0.293852 -0.340657 0)
(-0.314511 -0.468822 0)
(-0.266552 -0.545363 0)
(-0.23297 -0.555394 0)
(-0.202497 -0.537737 0)
(-0.202175 -0.515127 0)
(-0.230571 -0.501341 0)
(-0.244564 -0.322916 0)
(-0.324392 -0.166549 0)
(-0.387668 -0.219535 0)
(-0.372423 -0.311419 0)
(-0.432087 -0.511908 0)
(-0.421195 -0.651902 0)
(-0.397268 -0.69439 0)
(-0.301257 -0.613721 0)
(-0.254825 -0.50585 0)
(-0.244628 -0.471937 0)
(-0.259272 -0.332424 0)
(-0.36281 -0.113558 0)
(-0.408223 -0.194375 0)
(-0.338382 -0.251909 0)
(-0.419106 -0.462773 0)
(-0.442762 -0.697741 0)
(-0.430312 -0.795203 0)
(-0.399012 -0.823827 0)
(-0.281555 -0.639944 0)
(-0.17406 -0.471771 0)
(-0.14584 -0.345911 0)
(-0.336957 -0.27 0)
(-0.344322 -0.362999 0)
(-0.235409 -0.405347 0)
(-0.140001 -0.397901 0)
(-0.163721 -0.564727 0)
(-0.199833 -0.81921 0)
(-0.204512 -0.954782 0)
(-0.19407 -0.984292 0)
(-0.058354 -0.730939 0)
(0.00900928 -0.333738 0)
(0.176433 0.090999 0)
(0.135883 -0.226003 0)
(0.190935 -0.43551 0)
(0.197671 -0.489891 0)
(0.175217 -0.476578 0)
(0.10011 -0.518586 0)
(0.0946635 -0.845238 0)
(0.112634 -1.01779 0)
(0.0778891 -0.959607 0)
(0.178053 -0.443441 0)
(0.480053 -0.0483995 0)
(0.469586 -0.284785 0)
(0.412316 -0.50836 0)
(0.276855 -0.516644 0)
(0.196803 -0.447952 0)
(0.126969 -0.506167 0)
(0.201483 -0.853684 0)
(0.312153 -0.993231 0)
(0.339401 -0.948695 0)
(0.315498 -0.676797 0)
(0.584334 -0.106931 0)
(0.499287 -0.214043 0)
(0.394678 -0.115951 0)
(0.250307 -0.150779 0)
(0.175282 -0.20493 0)
(0.139279 -0.511956 0)
(0.346071 -1.06507 0)
(0.443729 -1.1597 0)
(0.423691 -1.03212 0)
(0.435661 -0.610592 0)
(0.236921 0.122795 0)
(0.188513 0.145188 0)
(0.114962 0.0868084 0)
(0.0627596 -0.13047 0)
(0.118719 -0.291557 0)
(0.190845 -1.02295 0)
(0.376531 -1.33309 0)
(0.425976 -1.28736 0)
(0.411419 -1.02623 0)
(0.289241 -0.305404 0)
(0.0167728 0.157018 0)
(-0.0163145 0.105078 0)
(0.0909331 0.011182 0)
(0.0149 -0.0770424 0)
(0.128359 -0.47553 0)
(0.159845 -1.2855 0)
(0.291027 -1.47699 0)
(0.344365 -1.31292 0)
(0.158039 -0.739365 0)
(-0.0145942 0.10364 0)
(-0.0757633 0.151924 0)
(-0.0560485 -0.0139519 0)
(0.0427013 -0.0483329 0)
(-0.00744097 -0.0692161 0)
(0.0963979 -0.718968 0)
(0.0675782 -1.3746 0)
(0.118587 -1.46901 0)
(0.0726594 -0.905159 0)
(-0.172616 -0.120149 0)
(-0.239826 0.379485 0)
(-0.0646557 0.0476115 0)
(-0.0678751 -0.0771113 0)
(-0.0160527 -0.114724 0)
(0.0149664 -0.101402 0)
(0.0471808 -0.754921 0)
(0.0115027 -1.37181 0)
(0.0194981 -1.38948 0)
(-0.0674721 -0.470337 0)
(-0.242513 -0.10096 0)
(-0.1418 0.17926 0)
(-0.0930934 -0.0244946 0)
(-0.136125 -0.133835 0)
(-0.0935339 -0.259944 0)
(0.000458584 -0.232057 0)
(0.0180349 -0.741763 0)
(0.00154199 -1.33944 0)
(0.00720969 -1.3628 0)
(-0.0107517 -0.338772 0)
(-0.116182 -0.248414 0)
(-0.0263905 -0.00830787 0)
(0.00820486 0.0725317 0)
(-0.0221584 0.0804767 0)
(0.046841 -0.424658 0)
(0.0349617 -0.28247 0)
(0.0441289 -0.68744 0)
(0.0640837 -1.30686 0)
(0.0717065 -1.33864 0)
(0.00808624 -0.175307 0)
(0.0727204 -0.0378288 0)
(-0.0556569 -0.0311879 0)
(0.152749 0.0386716 0)
(0.137833 -0.0706793 0)
(0.0716886 -0.301055 0)
(-0.00514233 -0.252391 0)
(0.0697125 -0.824922 0)
(0.0959788 -1.32334 0)
(0.122295 -1.36532 0)
(0.167734 -0.634466 0)
(0.169231 0.107764 0)
(0.0820987 -0.0329771 0)
(0.0891631 0.141263 0)
(0.0647521 0.0222221 0)
(0.0759405 -0.211549 0)
(0.00818394 -0.239516 0)
(0.0858064 -0.991813 0)
(0.0973364 -1.3537 0)
(0.124956 -1.39205 0)
(0.110992 -0.709218 0)
(0.1584 0.309534 0)
(0.0718948 0.0506543 0)
(0.0430927 0.107913 0)
(0.0465887 -0.0378582 0)
(0.109026 -0.227342 0)
(0.0401047 -0.23267 0)
(0.0926609 -1.03939 0)
(0.0938467 -1.3651 0)
(0.118855 -1.40211 0)
(0.0326812 -0.45968 0)
(-0.0477332 0.469034 0)
(-0.0661533 -0.0119706 0)
(0.0937857 0.157533 0)
(0.107461 -0.037574 0)
(0.127121 -0.156344 0)
(0.0480391 -0.168834 0)
(0.092498 -1.09456 0)
(0.0971415 -1.3734 0)
(0.118707 -1.40524 0)
(0.0570292 -0.34205 0)
(-0.0191649 0.473872 0)
(0.0338146 0.164666 0)
(0.113938 0.106146 0)
(0.100786 -0.0714827 0)
(0.136737 -0.133984 0)
(0.048183 -0.131954 0)
(0.0860635 -1.18937 0)
(0.0826156 -1.38415 0)
(0.101409 -1.40608 0)
(0.100962 0.0522639 0)
(0.0365044 0.440215 0)
(0.0955162 0.267571 0)
(0.19972 0.189286 0)
(0.220553 0.0206045 0)
(0.202408 -0.0390966 0)
(0.0910567 -0.0254021 0)
(0.0764965 -1.26249 0)
(0.0695717 -1.37899 0)
(0.0932969 -1.39036 0)
(0.131594 -0.380081 0)
(0.286875 0.417759 0)
(0.400437 0.258915 0)
(0.352221 0.0352643 0)
(0.371869 0.000399389 0)
(0.346745 0.0537275 0)
(0.124766 0.207497 0)
(0.0729911 -1.30993 0)
(0.0546505 -1.36853 0)
(0.0927562 -1.36693 0)
(0.10686 -0.885536 0)
(0.23827 0.117942 0)
(0.325932 0.284418 0)
(0.357179 -0.0197251 0)
(0.294577 0.0309319 0)
(0.0869656 0.395226 0)
(-0.114818 0.573762 0)
(0.0345576 -1.33282 0)
(0.0155597 -1.36419 0)
(0.0191683 -1.3554 0)
(0.0155625 -0.55388 0)
(-0.0483399 -0.0905658 0)
(0.111624 0.241955 0)
(0.0738552 0.151843 0)
(-0.195212 0.490221 0)
(-0.550236 1.09498 0)
(-0.030752 -0.532628 0)
(0.0231907 -1.33991 0)
(0.00862053 -1.34774 0)
(0.0309736 -1.33069 0)
(0.00245842 -0.559334 0)
(-0.0505633 -0.138599 0)
(-0.0262544 0.133816 0)
(-0.608598 0.793312 0)
(-0.677505 1.10479 0)
(-0.55362 1.26133 0)
(0.0190901 -1.03888 0)
(0.00953227 -1.32569 0)
(-0.00384418 -1.33597 0)
(-0.000955523 -1.2952 0)
(-0.0219345 -0.473548 0)
(-0.0636742 -0.0874718 0)
(-0.0691018 0.137253 0)
(-0.774915 0.657926 0)
(-0.606462 0.547296 0)
(-0.0205975 -0.520575 0)
(0.0120511 -1.24149 0)
(0.00377587 -1.31503 0)
(-0.00869406 -1.31522 0)
(-0.0141786 -1.27079 0)
(-0.024319 -0.436586 0)
(-0.0544507 -0.0402995 0)
(-0.0754368 0.150445 0)
(-0.383111 0.0133213 0)
(-0.116108 -0.363185 0)
(-0.016358 -0.576589 0)
(0.00487548 -1.26238 0)
(0.00649412 -1.29981 0)
(-0.00775631 -1.29783 0)
(-0.00989113 -1.27267 0)
(-0.0143543 -0.416681 0)
(-0.0279308 0.00747673 0)
(-0.0679515 0.177531 0)
(-0.158044 -0.316489 0)
(-0.105747 -0.356712 0)
(-0.00814951 -0.746924 0)
(0.00925666 -1.27574 0)
(0.0068467 -1.2834 0)
(-0.0067443 -1.28333 0)
(-0.00778731 -1.26563 0)
(-0.00884146 -0.412288 0)
(-0.00475304 0.0638392 0)
(-0.0414421 0.222833 0)
(-0.109605 -0.458144 0)
(-0.0436155 -0.518401 0)
(0.0038135 -0.816181 0)
(0.00680501 -1.27544 0)
(0.00585694 -1.26772 0)
(-0.00724805 -1.26708 0)
(-0.0109276 -1.25724 0)
(-0.00946496 -0.430536 0)
(0.00324319 0.085493 0)
(-0.0214308 0.261806 0)
(0.0314894 -0.476018 0)
(0.00836509 -0.555413 0)
(0.0137474 -0.843337 0)
(0.00732861 -1.26321 0)
(0.00707969 -1.25151 0)
(-0.00763356 -1.25139 0)
(-0.0085538 -1.24853 0)
(-0.0134884 -0.44852 0)
(-0.00569418 0.11466 0)
(-0.0290204 0.272442 0)
(0.14255 -0.3716 0)
(0.0655383 -0.479289 0)
(0.0167121 -0.788489 0)
(0.00765174 -1.24711 0)
(0.0057696 -1.23605 0)
(-0.00683194 -1.23583 0)
(-0.0094577 -1.23636 0)
(-0.0141213 -0.473112 0)
(0.00679447 0.132147 0)
(-0.0196313 0.268982 0)
(0.214817 -0.254535 0)
(0.0999859 -0.315548 0)
(0.0214217 -0.709348 0)
(0.00746969 -1.23001 0)
(0.00717012 -1.2213 0)
(-0.00771026 -1.22113 0)
(-0.00874472 -1.22273 0)
(-0.016735 -0.482301 0)
(0.00279981 0.146434 0)
(-0.0128624 0.254972 0)
(0.145097 -0.0815765 0)
(0.0419524 -0.198019 0)
(0.0159725 -0.681442 0)
(0.00940842 -1.21585 0)
(0.0062232 -1.20377 0)
(-0.00690406 -1.20348 0)
(-0.00997653 -1.21004 0)
(-0.0223139 -0.506127 0)
(0.00367219 0.14056 0)
(0.00378966 0.225788 0)
(0.096759 0.0321312 0)
(0.02617 -0.0889192 0)
(0.0147375 -0.649569 0)
(0.0079202 -1.20084 0)
(0.00652573 -1.18994 0)
(-0.00727271 -1.18991 0)
(-0.00901295 -1.19651 0)
(-0.0225558 -0.531702 0)
(0.015617 0.0912561 0)
(0.0398059 0.19168 0)
(0.0680531 0.0675743 0)
(0.0281178 0.043975 0)
(0.0201256 -0.629607 0)
(0.0096981 -1.18504 0)
(0.00650558 -1.17257 0)
(-0.00698747 -1.17252 0)
(-0.010688 -1.18161 0)
(-0.021763 -0.54209 0)
(0.00447328 -0.00870226 0)
(0.0441329 0.179163 0)
(-0.0693141 0.120667 0)
(-0.0649793 -0.00514215 0)
(0.0128493 -0.710864 0)
(0.0092104 -1.17096 0)
(0.00652548 -1.15813 0)
(-0.00716327 -1.15784 0)
(-0.0100832 -1.16667 0)
(-0.0194587 -0.548197 0)
(-0.0099098 -0.0672501 0)
(0.0188021 0.170631 0)
(-0.0788935 0.113798 0)
(-0.018287 -0.138413 0)
(0.0157413 -0.734785 0)
(0.0101587 -1.15618 0)
(0.00661551 -1.14052 0)
(-0.00703566 -1.14037 0)
(-0.0111041 -1.1518 0)
(-0.0224018 -0.535353 0)
(-0.0246786 -0.0676738 0)
(-0.0061118 0.154794 0)
(-0.0242686 0.0396738 0)
(0.0181906 -0.191415 0)
(0.0192575 -0.74652 0)
(0.0101796 -1.14062 0)
(0.00656036 -1.12459 0)
(-0.00703697 -1.12463 0)
(-0.0112656 -1.13624 0)
(-0.021372 -0.531652 0)
(-0.0286011 -0.112206 0)
(-0.00442877 0.117876 0)
(0.0216856 -0.0463986 0)
(0.0196846 -0.208928 0)
(0.0198099 -0.750237 0)
(0.0103389 -1.12423 0)
(0.00670817 -1.10742 0)
(-0.00711972 -1.10691 0)
(-0.0114809 -1.1203 0)
(-0.0164116 -0.528408 0)
(-0.0324918 -0.111728 0)
(-0.0435666 0.080403 0)
(0.0341674 -0.00700684 0)
(0.0183776 -0.196474 0)
(0.0205722 -0.746348 0)
(0.0114647 -1.1076 0)
(0.0067464 -1.08975 0)
(-0.00722717 -1.08998 0)
(-0.0125219 -1.10413 0)
(-0.0131742 -0.498484 0)
(-0.0256955 -0.0287929 0)
(-0.0607646 0.0956357 0)
(0.0347183 0.0117834 0)
(0.0291113 -0.196109 0)
(0.0214569 -0.734418 0)
(0.0107917 -1.09085 0)
(0.00671562 -1.07184 0)
(-0.00726674 -1.07136 0)
(-0.0121221 -1.08696 0)
(-0.0193182 -0.455305 0)
(-0.0659235 0.0215116 0)
(-0.0777871 0.0842783 0)
(0.0544012 0.0431669 0)
(0.043346 -0.168086 0)
(0.0202723 -0.706007 0)
(0.0115964 -1.0733 0)
(0.00688532 -1.05373 0)
(-0.00730484 -1.05375 0)
(-0.0129529 -1.07123 0)
(-0.00072853 -0.534642 0)
(-0.0112036 0.130201 0)
(-0.0594438 0.0146319 0)
(0.0732852 0.053224 0)
(0.05346 -0.0994653 0)
(0.0213012 -0.671261 0)
(0.0121486 -1.05535 0)
(0.0068889 -1.0348 0)
(-0.00737641 -1.03472 0)
(-0.012412 -1.05377 0)
(-0.0202827 -0.557152 0)
(0.0478636 0.17187 0)
(0.06493 0.0597033 0)
(0.0606409 0.0609042 0)
(0.0299126 -0.0535049 0)
(0.020806 -0.660687 0)
(0.0118373 -1.03748 0)
(0.00706634 -1.01626 0)
(-0.00740813 -1.01611 0)
(-0.0127583 -1.03696 0)
(-0.0202776 -0.586195 0)
(0.00756339 -0.00479618 0)
(0.0176151 0.0427194 0)
(0.0382706 0.0928993 0)
(0.0158012 -0.00716383 0)
(0.0218841 -0.656931 0)
(0.0125545 -1.01908 0)
(0.006854 -0.996673 0)
(-0.00749408 -0.996719 0)
(-0.0134176 -1.01896 0)
(-0.0198654 -0.595558 0)
(-0.0159671 0.0618835 0)
(-0.04677 0.121434 0)
(-0.010681 0.128627 0)
(-0.00265962 -0.0320423 0)
(0.0216268 -0.675377 0)
(0.0126969 -1.00041 0)
(0.00754411 -0.977651 0)
(-0.00710508 -0.977473 0)
(-0.0123934 -1.00015 0)
(-0.0190456 -0.638207 0)
(-0.00216132 0.0730609 0)
(-0.0370097 0.121957 0)
(0.00171127 0.146632 0)
(0.014267 -0.0629317 0)
(0.0223351 -0.681382 0)
(0.0144995 -0.981476 0)
(0.00751977 -0.957192 0)
(-0.00683394 -0.957637 0)
(-0.013208 -0.981923 0)
(-0.020001 -0.655946 0)
(0.00739996 0.0961836 0)
(-0.0158804 0.148181 0)
(0.00802435 0.145195 0)
(0.022269 -0.0716409 0)
(0.0211162 -0.683634 0)
(0.0127456 -0.961635 0)
(0.00689143 -0.937585 0)
(-0.00795791 -0.938398 0)
(-0.0137152 -0.961701 0)
(-0.0286208 -0.661484 0)
(-0.000124388 0.0775158 0)
(0.0130781 0.144513 0)
(0.019229 0.134783 0)
(0.0313285 -0.0681648 0)
(0.0224877 -0.673209 0)
(0.0135249 -0.941509 0)
(0.00639117 -0.916433 0)
(-0.00786637 -0.916626 0)
(-0.0160447 -0.942194 0)
(-0.0293332 -0.67037 0)
(-0.0148457 0.00400862 0)
(0.0139911 0.1308 0)
(0.0182302 0.0949262 0)
(0.0272476 -0.079993 0)
(0.024005 -0.66801 0)
(0.0136285 -0.920975 0)
(0.00716813 -0.897101 0)
(-0.00722941 -0.89642 0)
(-0.0136613 -0.921204 0)
(-0.0245185 -0.662595 0)
(-0.0284569 -0.0276059 0)
(-0.000280878 0.108604 0)
(0.0227659 0.0772949 0)
(0.0323583 -0.072003 0)
(0.0292646 -0.658615 0)
(0.0171018 -0.899708 0)
(0.00870005 -0.874066 0)
(-0.00559319 -0.874717 0)
(-0.0133938 -0.900313 0)
(-0.0218834 -0.648098 0)
(-0.0357254 -0.0295504 0)
(-0.0238423 0.0695659 0)
(0.0158183 0.0486582 0)
(0.0286803 -0.106144 0)
(0.0282756 -0.658945 0)
(0.0148789 -0.87808 0)
(0.00722014 -0.852166 0)
(-0.00615384 -0.854113 0)
(-0.0127845 -0.878217 0)
(-0.0218909 -0.637569 0)
(-0.033238 -0.0134136 0)
(-0.0363164 0.0774962 0)
(0.0415723 0.063045 0)
(0.0374145 -0.0980442 0)
(0.0175344 -0.640829 0)
(0.0114526 -0.855658 0)
(0.00383542 -0.829774 0)
(-0.0105576 -0.831627 0)
(-0.0199174 -0.855878 0)
(-0.0312557 -0.629208 0)
(-0.0362175 0.00645444 0)
(-0.0445821 0.0973705 0)
(0.0666665 0.070439 0)
(0.0485478 -0.0412624 0)
(0.0160955 -0.604427 0)
(0.012204 -0.832099 0)
(0.0037055 -0.807938 0)
(-0.00976382 -0.806767 0)
(-0.0189983 -0.832269 0)
(-0.033043 -0.623795 0)
(-0.0385152 0.0349744 0)
(-0.0486537 0.136302 0)
(0.0846301 0.0891429 0)
(0.0641611 0.0183159 0)
(0.0256122 -0.576147 0)
(0.0170944 -0.808105 0)
(0.00748866 -0.785362 0)
(-0.00644511 -0.784371 0)
(-0.015901 -0.808435 0)
(-0.0272902 -0.615033 0)
(-0.0378961 0.0587018 0)
(-0.04552 0.171348 0)
(0.0487257 0.101832 0)
(0.0348065 0.0839487 0)
(0.0247057 -0.570882 0)
(0.0181519 -0.783228 0)
(0.00782788 -0.76012 0)
(-0.00568105 -0.760178 0)
(-0.0163026 -0.783369 0)
(-0.0258761 -0.605611 0)
(-0.032371 0.0723554 0)
(-0.0332728 0.185482 0)
(0.00269009 0.106329 0)
(0.0165107 0.0897959 0)
(0.0280727 -0.577075 0)
(0.018249 -0.757947 0)
(0.00711068 -0.735697 0)
(-0.00697162 -0.736554 0)
(-0.0184062 -0.75791 0)
(-0.0283641 -0.596745 0)
(-0.0318965 0.0719877 0)
(-0.0213365 0.190651 0)
(-0.016986 0.115952 0)
(0.0130645 0.0316419 0)
(0.0286124 -0.58109 0)
(0.0196962 -0.731416 0)
(0.00727075 -0.710275 0)
(-0.00718294 -0.710077 0)
(-0.019835 -0.731214 0)
(-0.0284253 -0.591351 0)
(-0.0298528 0.0461948 0)
(-0.00345821 0.18502 0)
(-0.00115495 0.112295 0)
(0.0387296 -0.0129494 0)
(0.028604 -0.573626 0)
(0.0214083 -0.703682 0)
(0.00792482 -0.683971 0)
(-0.00741077 -0.684525 0)
(-0.0209772 -0.703376 0)
(-0.0283772 -0.579298 0)
(-0.0406924 0.00960359 0)
(-0.00267129 0.168951 0)
(0.0231395 0.082817 0)
(0.0515351 -0.0385115 0)
(0.0295054 -0.555609 0)
(0.0227817 -0.674705 0)
(0.00775144 -0.657077 0)
(-0.00758785 -0.65656 0)
(-0.0228314 -0.674231 0)
(-0.0293178 -0.557816 0)
(-0.0515562 -0.0120741 0)
(-0.0130539 0.136811 0)
(0.0423644 0.0613759 0)
(0.0512074 -0.0396756 0)
(0.0346407 -0.524582 0)
(0.0239147 -0.644371 0)
(0.00824086 -0.630628 0)
(-0.00584497 -0.631111 0)
(-0.0222337 -0.643955 0)
(-0.0312372 -0.528139 0)
(-0.050764 -0.0282503 0)
(-0.0330245 0.088579 0)
(0.0326029 0.0664236 0)
(0.021547 -0.0347429 0)
(0.0416394 -0.510437 0)
(0.0245525 -0.612868 0)
(0.00770295 -0.600976 0)
(-0.00737896 -0.601375 0)
(-0.0245577 -0.612471 0)
(-0.0400453 -0.513832 0)
(-0.0222773 -0.0295694 0)
(-0.0241514 0.0656588 0)
(0.000676343 0.0798267 0)
(-0.0264193 -0.0815169 0)
(0.0480187 -0.534177 0)
(0.0242973 -0.580261 0)
(0.00621484 -0.572071 0)
(-0.00690399 -0.573061 0)
(-0.025062 -0.58032 0)
(-0.0485205 -0.536933 0)
(0.0200283 -0.0658885 0)
(-0.0263033 0.0679615 0)
(0.00103488 0.109207 0)
(0.0210618 -0.139117 0)
(0.0508299 -0.539094 0)
(0.0267149 -0.545456 0)
(0.00815017 -0.540239 0)
(-0.00852994 -0.541026 0)
(-0.0260357 -0.546033 0)
(-0.0501305 -0.541345 0)
(-0.017154 -0.0629431 0)
(-0.0291384 0.0838622 0)
(0.0174318 0.0798625 0)
(0.0588505 -0.20448 0)
(0.0549179 -0.493307 0)
(0.0278632 -0.506579 0)
(0.00879927 -0.506758 0)
(-0.00785633 -0.507077 0)
(-0.026263 -0.508152 0)
(-0.0551413 -0.49762 0)
(-0.0506012 -0.107848 0)
(-0.0401943 0.110827 0)
(0.0769646 0.0751311 0)
(0.0591449 -0.206514 0)
(0.0546942 -0.453854 0)
(0.0245257 -0.467101 0)
(0.00686826 -0.469925 0)
(-0.0138019 -0.470744 0)
(-0.0346554 -0.468477 0)
(-0.0574456 -0.455731 0)
(-0.057042 -0.175904 0)
(-0.0369285 0.141294 0)
(0.0693752 0.0777049 0)
(0.0637886 -0.168624 0)
(0.0628702 -0.40331 0)
(0.0338762 -0.422786 0)
(0.0135331 -0.428883 0)
(-0.0088216 -0.429268 0)
(-0.0310778 -0.424539 0)
(-0.0673145 -0.402324 0)
(-0.0683749 -0.198987 0)
(-0.0368653 0.14589 0)
(-0.0165075 0.103315 0)
(0.0733561 -0.256339 0)
(0.0651073 -0.364427 0)
(0.0311095 -0.382631 0)
(0.00864716 -0.384205 0)
(-0.0166016 -0.382222 0)
(-0.0353314 -0.379364 0)
(-0.0597721 -0.359817 0)
(-0.071206 -0.275465 0)
(0.0162584 0.111324 0)
(0.0462754 0.0321241 0)
(0.0745696 -0.280219 0)
(0.0693128 -0.314306 0)
(0.0471955 -0.332339 0)
(0.0246249 -0.332707 0)
(-0.00368012 -0.330407 0)
(-0.025839 -0.326319 0)
(-0.0632459 -0.316655 0)
(-0.0703995 -0.286889 0)
(-0.0684459 -0.0442709 0)
(0.0965278 -0.168285 0)
(0.0715704 -0.220747 0)
(0.0654548 -0.261285 0)
(0.0257384 -0.282362 0)
(0.00160669 -0.28465 0)
(-0.0253338 -0.287082 0)
(-0.045066 -0.283809 0)
(-0.0709706 -0.264218 0)
(-0.0754969 -0.22484 0)
(-0.0992145 -0.171964 0)
(0.0594962 -0.119586 0)
(0.0509726 -0.194665 0)
(0.0460558 -0.233006 0)
(0.0269457 -0.241773 0)
(0.0183265 -0.249055 0)
(-0.00224753 -0.249937 0)
(-0.0149994 -0.24542 0)
(-0.0423817 -0.234712 0)
(-0.0489118 -0.196205 0)
(-0.0599416 -0.120254 0)
(0.193635 0.0384444 0)
(0.150017 0.0311303 0)
(0.115584 0.0201947 0)
(0.0899142 0.0236768 0)
(0.0662522 0.0205244 0)
(0.0494763 0.0141344 0)
(0.0380202 0.0132129 0)
(0.022403 0.0168479 0)
(0.00692778 0.0143431 0)
(-0.00510305 0.0146977 0)
(-0.0220003 0.0206258 0)
(-0.0419598 0.020292 0)
(-0.0556341 0.0185738 0)
(-0.0731989 0.0290388 0)
(-0.0965202 0.0356952 0)
(-0.121778 0.0323171 0)
(-0.143515 0.0234929 0)
(-0.172301 0.0333362 0)
(-0.2022 0.0393214 0)
(-0.226976 0.0462507 0)
(-0.276461 0.0463461 0)
(-0.322679 0.0138806 0)
(-0.332167 -0.00320537 0)
(-0.336751 -0.00722773 0)
(-0.341212 -0.00687463 0)
(-0.345793 -0.0057513 0)
(-0.347863 -0.0094198 0)
(-0.333395 -0.023248 0)
(-0.303687 -0.0329941 0)
(-0.275578 -0.0305186 0)
(-0.245064 -0.0308483 0)
(-0.213594 -0.0325567 0)
(-0.180791 -0.0291631 0)
(-0.138372 -0.0241525 0)
(-0.105146 -0.0109904 0)
(-0.0969849 -0.00237282 0)
(-0.111987 0.00559163 0)
(-0.130447 -0.0195546 0)
(-0.0839433 -0.0736005 0)
(-0.0487597 -0.0887318 0)
(0.198069 0.0797013 0)
(0.164264 0.0946951 0)
(0.116208 0.0819604 0)
(0.0730816 0.0656901 0)
(0.0406538 0.0525466 0)
(0.0200693 0.0382824 0)
(0.0112837 0.0332775 0)
(0.00339866 0.0381039 0)
(-0.00732796 0.0316434 0)
(-0.0178964 0.0354944 0)
(-0.0254261 0.0421254 0)
(-0.0352186 0.0383859 0)
(-0.0505499 0.0429732 0)
(-0.0655465 0.0503192 0)
(-0.083027 0.0546653 0)
(-0.103746 0.0581808 0)
(-0.128298 0.0625703 0)
(-0.164344 0.07447 0)