/*--------------------------------*- C++ -*----------------------------------*\
  =========                 |
  \\      /  F ield         | OpenFOAM: The Open Source CFD Toolbox
   \\    /   O peration     | Website:  https://openfoam.org
    \\  /    A nd           | Version:  8
     \\/     M anipulation  |
\*---------------------------------------------------------------------------*/
FoamFile
{
    version     2.0;
    format      ascii;
    class       surfaceScalarField;
    location    "4.6";
    object      alphaPhi0.water;
}
// * * * * * * * * * * * * * * * * * * * * * * * * * * * * * * * * * * * * * //

dimensions      [0 3 -1 0 0 0 0];

internalField   nonuniform List<scalar> 
18095
(
1.58566e-07
-9.65441e-07
8.06875e-07
1.65436e-07
-1.24823e-06
1.24136e-06
1.22252e-07
-1.24224e-06
1.28542e-06
6.53912e-08
-1.26348e-06
1.32034e-06
9.27842e-11
-1.28048e-06
1.34578e-06
-6.52223e-08
-1.2805e-06
1.34582e-06
-1.22124e-07
-1.26353e-06
1.32043e-06
-1.65355e-07
-1.24229e-06
1.28552e-06
-1.58534e-07
-1.24828e-06
1.24146e-06
-9.65542e-07
8.07008e-07
1.11042e-07
-1.07648e-06
9.94437e-08
-1.23663e-06
7.28969e-08
-1.21569e-06
4.00839e-08
-1.23067e-06
6.28635e-11
-1.24046e-06
-3.99676e-08
-1.24047e-06
-7.28046e-08
-1.23069e-06
-9.93751e-08
-1.21572e-06
-1.11005e-07
-1.23665e-06
-1.07655e-06
6.7177e-08
-1.14366e-06
5.27794e-08
-1.22223e-06
4.21718e-08
-1.20508e-06
2.38945e-08
-1.21239e-06
4.04441e-11
-1.21661e-06
-2.38189e-08
-1.21661e-06
-4.21106e-08
-1.2124e-06
-5.27329e-08
-1.20509e-06
-6.71445e-08
-1.22223e-06
-1.14369e-06
3.96349e-08
-1.18329e-06
2.66373e-08
-1.20923e-06
2.20318e-08
-1.20048e-06
1.25464e-08
-1.2029e-06
2.28749e-11
-1.20408e-06
-1.25033e-08
-1.20408e-06
-2.19963e-08
-1.20291e-06
-2.66108e-08
-1.20048e-06
-3.96128e-08
-1.20923e-06
-1.1833e-06
1.67053e-08
7.47199e-09
6.99634e-09
4.09162e-09
7.60823e-12
-4.07721e-09
-6.98458e-09
-7.46393e-09
-1.6696e-08
-1.74575e-07
-1.16345e-06
1.33802e-06
-2.18688e-07
-1.21616e-06
1.26027e-06
-1.64559e-07
-1.21265e-06
1.15852e-06
-8.62674e-08
-1.20386e-06
1.12557e-06
9.93686e-10
-1.20242e-06
1.11516e-06
8.82102e-08
-1.20257e-06
1.11535e-06
1.66312e-07
-1.20427e-06
1.12617e-06
2.20288e-07
-1.21325e-06
1.15927e-06
1.76016e-07
-1.21699e-06
1.26126e-06
-1.1644e-06
1.34041e-06
-9.27135e-08
-1.07073e-06
-9.52697e-08
-1.2136e-06
-7.88383e-08
-1.22908e-06
-4.37168e-08
-1.23898e-06
5.60927e-10
-1.24669e-06
4.4793e-08
-1.2468e-06
7.97991e-08
-1.23928e-06
9.60519e-08
-1.2295e-06
9.31568e-08
-1.21409e-06
-1.07124e-06
-5.78652e-08
-1.01287e-06
-5.4983e-08
-1.21648e-06
-4.6276e-08
-1.23779e-06
-2.68367e-08
-1.25842e-06
3.38399e-10
-1.27387e-06
2.7481e-08
-1.27394e-06
4.68278e-08
-1.25862e-06
5.53845e-08
-1.23806e-06
5.8061e-08
-1.21677e-06
-1.01318e-06
-7.47759e-08
-9.38092e-07
-6.19099e-08
-1.22935e-06
-4.84659e-08
-1.25123e-06
-2.76063e-08
-1.27928e-06
2.11199e-10
-1.30169e-06
2.80053e-08
-1.30174e-06
4.87973e-08
-1.27942e-06
6.21337e-08
-1.2514e-06
7.48807e-08
-1.22952e-06
-9.38299e-07
-1.31217e-07
-1.19208e-07
-8.50182e-08
-4.39555e-08
1.38144e-10
4.42149e-08
8.52306e-08
1.19352e-07
1.31291e-07
-2.48734e-08
-9.16719e-07
9.41593e-07
1.64577e-08
-1.33904e-06
1.29771e-06
1.86372e-08
-1.27616e-06
1.27398e-06
1.33536e-08
-1.22722e-06
1.2325e-06
8.05701e-09
-1.22379e-06
1.22908e-06
3.0067e-09
-1.22479e-06
1.22984e-06
-2.98082e-09
-1.22692e-06
1.23291e-06
5.99609e-09
-1.27341e-06
1.26443e-06
6.07126e-08
-1.34295e-06
1.28823e-06
-9.49015e-07
1.00973e-06
1.99828e-08
-9.36702e-07
2.75331e-08
-1.34659e-06
1.92623e-08
-1.26788e-06
1.29704e-08
-1.22093e-06
6.34518e-09
-1.21716e-06
-4.62003e-10
-1.21799e-06
-6.49162e-09
-1.22089e-06
-1.12486e-08
-1.26865e-06
-5.14527e-09
-1.34905e-06
-9.5416e-07
3.224e-08
-9.68942e-07
2.3596e-08
-1.33794e-06
1.46507e-08
-1.25894e-06
9.83647e-09
-1.21611e-06
4.01656e-09
-1.21134e-06
-2.40585e-09
-1.21156e-06
-6.76847e-09
-1.21653e-06
-1.55426e-08
-1.25988e-06
-2.47304e-08
-1.33986e-06
-9.7889e-07
8.21473e-08
-1.05109e-06
5.63838e-08
-1.31218e-06
3.71661e-08
-1.23972e-06
2.36342e-08
-1.20258e-06
2.6105e-09
-1.19032e-06
-1.8422e-08
-1.19053e-06
-3.14435e-08
-1.20351e-06
-5.04098e-08
-1.24091e-06
-7.72001e-08
-1.31307e-06
-1.05609e-06
2.86933e-07
2.35022e-07
1.53819e-07
7.68057e-08
1.64209e-09
-7.35341e-08
-1.50876e-07
-2.32511e-07
-2.84322e-07
3.55138e-08
3.27097e-09
-3.87848e-08
3.2254e-08
3.25908e-09
2.90172e-08
3.23647e-09
2.58106e-08
3.20646e-09
2.2649e-08
3.16144e-09
1.95389e-08
3.10995e-09
1.64891e-08
3.04988e-09
1.35101e-08
2.97895e-09
1.06104e-08
2.89945e-09
2.8123e-09
7.79798e-09
3.28123e-08
6.68988e-09
-3.62315e-08
2.93858e-08
6.68535e-09
2.5969e-08
6.65312e-09
2.25799e-08
6.59529e-09
1.92286e-08
6.51239e-09
1.59303e-08
6.40804e-09
1.27004e-08
6.27952e-09
9.55038e-09
6.12871e-09
6.49153e-09
5.95801e-09
5.7698e-09
3.53378e-09
2.42076e-08
1.00382e-08
-2.75559e-08
2.08668e-08
1.00258e-08
1.75475e-08
9.97229e-09
1.42637e-08
9.87897e-09
1.10266e-08
9.7491e-09
7.85185e-09
9.58257e-09
4.75003e-09
9.38108e-09
1.73231e-09
9.14618e-09
-1.19158e-09
8.88167e-09
8.58973e-09
-4.01172e-09
1.49494e-08
1.3351e-08
-1.82622e-08
1.16584e-08
1.33166e-08
8.40099e-09
1.32296e-08
5.18869e-09
1.30909e-08
2.03509e-09
1.29025e-08
-1.04845e-09
1.26659e-08
-4.05226e-09
1.23847e-08
-6.96664e-09
1.20604e-08
-9.78181e-09
1.16966e-08
1.12968e-08
-1.24891e-08
5.20656e-09
1.66594e-08
-8.51507e-09
1.93109e-09
1.65919e-08
-1.29945e-09
1.646e-08
-4.47373e-09
1.62651e-08
-7.58148e-09
1.60103e-08
-1.06123e-08
1.56967e-08
-1.35553e-08
1.53277e-08
-1.64017e-08
1.49067e-08
-1.91429e-08
1.44377e-08
1.39247e-08
-2.17708e-08
-5.08657e-09
1.99892e-08
1.75666e-09
-8.37361e-09
1.98791e-08
-1.16074e-08
1.9694e-08
-1.47772e-08
1.9435e-08
-1.78715e-08
1.91045e-08
-2.08803e-08
1.87055e-08
-2.37938e-08
1.82412e-08
-2.66031e-08
1.7716e-08
-2.92999e-08
1.71346e-08
1.6502e-08
-3.18771e-08
-1.59861e-08
2.33684e-08
1.26073e-08
-1.93152e-08
2.32087e-08
-2.25834e-08
2.29623e-08
-2.57793e-08
2.26309e-08
-2.88918e-08
2.22171e-08
-3.19102e-08
2.1724e-08
-3.48246e-08
2.11557e-08
-3.76257e-08
2.05174e-08
-4.0306e-08
1.98151e-08
1.90552e-08
-4.28591e-08
-2.75523e-08
2.68293e-08
2.40915e-08
-3.09572e-08
2.66139e-08
-3.42948e-08
2.62999e-08
-3.75527e-08
2.58891e-08
-4.07192e-08
2.53838e-08
-4.37824e-08
2.47875e-08
-4.67316e-08
2.41052e-08
-4.95574e-08
2.33435e-08
-5.22524e-08
2.25103e-08
2.16138e-08
-5.48107e-08
-3.98595e-08
3.04125e-08
3.62765e-08
-4.33827e-08
3.01374e-08
-4.68331e-08
2.97505e-08
-5.01976e-08
2.92538e-08
-5.34631e-08
2.86496e-08
-5.66161e-08
2.79409e-08
-5.96438e-08
2.71331e-08
-6.2536e-08
2.62359e-08
-6.52855e-08
2.52601e-08
2.42159e-08
-6.78875e-08
-5.301e-08
3.41698e-08
4.92528e-08
-5.67053e-08
3.38329e-08
-6.03236e-08
3.3369e-08
-6.38518e-08
3.27822e-08
-6.72764e-08
3.20744e-08
-7.05799e-08
3.12446e-08
-7.37448e-08
3.02982e-08
-7.67593e-08
2.92504e-08
-7.96178e-08
2.81188e-08
2.69155e-08
-8.23173e-08
-6.71372e-08
3.81683e-08
6.31387e-08
-7.10734e-08
3.77693e-08
-7.49289e-08
3.72245e-08
-7.86917e-08
3.65449e-08
-8.23535e-08
3.57361e-08
-8.58907e-08
3.47819e-08
-8.92708e-08
3.36783e-08
-9.24757e-08
3.24601e-08
-9.55136e-08
3.11542e-08
2.97766e-08
-9.83773e-08
-8.24045e-08
4.24983e-08
7.80746e-08
-8.66749e-08
4.20397e-08
-9.08531e-08
4.14029e-08
-9.4929e-08
4.06208e-08
-9.88264e-08
3.96944e-08
-1.02655e-07
3.86087e-08
-1.06465e-07
3.73326e-08
-1.0996e-07
3.59552e-08
-1.13275e-07
3.44742e-08
3.291e-08
-1.16411e-07
-9.89564e-08
4.72603e-08
9.41944e-08
-1.03726e-07
4.68098e-08
-1.08302e-07
4.59788e-08
-1.12622e-07
4.50894e-08
-1.17018e-07
4.40192e-08
-1.21233e-07
4.27538e-08
-1.25479e-07
4.13918e-08
-1.29405e-07
3.98817e-08
-1.33146e-07
3.82167e-08
3.64571e-08
-1.36691e-07
-1.16397e-07
5.23108e-08
1.11477e-07
-1.21396e-07
5.17109e-08
-1.26958e-07
5.09995e-08
-1.32145e-07
5.01545e-08
-1.37003e-07
4.90028e-08
-1.4177e-07
4.75978e-08
-1.4662e-07
4.61004e-08
-1.51136e-07
4.43976e-08
-1.55457e-07
4.25385e-08
4.05602e-08
-1.5956e-07
-1.35207e-07
5.79122e-08
1.29522e-07
-1.41026e-07
5.74474e-08
-1.47338e-07
5.67892e-08
-1.53046e-07
5.58687e-08
-1.58705e-07
5.46696e-08
-1.64352e-07
5.32579e-08
-1.69859e-07
5.16e-08
-1.75192e-07
4.9726e-08
-1.80275e-07
4.76413e-08
4.5345e-08
-1.85076e-07
-1.55495e-07
6.43503e-08
1.48974e-07
-1.62357e-07
6.38519e-08
-1.68987e-07
6.34272e-08
-1.75576e-07
6.24622e-08
-1.82086e-07
6.12489e-08
-1.88639e-07
5.98009e-08
-1.9513e-07
5.80788e-08
-2.01515e-07
5.60446e-08
-2.07748e-07
5.37064e-08
5.10666e-08
-2.13468e-07
-1.76838e-07
7.15569e-08
1.7023e-07
-1.83444e-07
7.11319e-08
-1.92376e-07
7.05322e-08
-1.99807e-07
6.99031e-08
-2.07236e-07
6.88299e-08
-2.14893e-07
6.74482e-08
-2.22574e-07
6.57519e-08
-2.30336e-07
6.36298e-08
-2.37605e-07
6.09766e-08
5.78673e-08
-2.44406e-07
-1.97579e-07
7.95375e-08
1.91374e-07
-2.06616e-07
7.89364e-08
-2.15343e-07
7.85622e-08
-2.24619e-07
7.82751e-08
-2.33294e-07
7.75088e-08
-2.42187e-07
7.64937e-08
-2.51422e-07
7.50162e-08
-2.60702e-07
7.28045e-08
-2.69455e-07
6.97297e-08
6.59365e-08
-2.77524e-07
-2.19748e-07
8.75209e-08
2.11624e-07
-2.29991e-07
8.76508e-08
-2.40418e-07
8.79537e-08
-2.49735e-07
8.75876e-08
-2.59486e-07
8.72639e-08
-2.69956e-07
8.6965e-08
-2.81142e-07
8.61961e-08
-2.92271e-07
8.39316e-08
-3.02262e-07
7.97206e-08
7.53261e-08
-3.11674e-07
-2.4386e-07
9.68528e-08
2.33915e-07
-2.55362e-07
9.75677e-08
-2.64945e-07
9.75034e-08
-2.74899e-07
9.75152e-08
-2.85452e-07
9.78204e-08
-2.96901e-07
9.84176e-08
-3.08794e-07
9.80831e-08
-3.17743e-07
9.27843e-08
-3.22458e-07
8.4134e-08
7.9965e-08
-3.38366e-07
-2.69599e-07
1.07331e-07
2.57462e-07
-2.7957e-07
1.07417e-07
-2.8986e-07
1.07664e-07
-3.00545e-07
1.08159e-07
-3.08853e-07
1.06132e-07
-3.03291e-07
1.04215e-07
-2.84191e-07
9.37416e-08
-2.81834e-07
8.17747e-08
-3.53219e-07
8.9182e-08
8.93462e-08
-3.62606e-07
-2.91899e-07
1.16767e-07
2.8228e-07
-3.01637e-07
1.16955e-07
-3.1054e-07
1.16445e-07
-3.0986e-07
1.10534e-07
-2.74515e-07
1.01483e-07
-2.69604e-07
9.44431e-08
-2.73262e-07
9.30077e-08
-2.89857e-07
9.33203e-08
-3.60528e-07
9.70543e-08
9.50092e-08
-3.66189e-07
-3.11129e-07
1.25046e-07
3.02647e-07
-3.187e-07
1.24326e-07
-2.94104e-07
1.1172e-07
-2.63469e-07
1.00916e-07
-2.63488e-07
9.8325e-08
-2.69962e-07
9.7087e-08
-2.79104e-07
9.76837e-08
-3.44793e-07
1.02267e-07
-3.53493e-07
1.05755e-07
9.96507e-08
-3.58132e-07
-3.27644e-07
1.31551e-07
3.21018e-07
-3.12612e-07
1.26248e-07
-2.60673e-07
1.06493e-07
-2.62141e-07
9.92202e-08
-2.64707e-07
9.77353e-08
-2.70482e-07
9.96856e-08
-3.27945e-07
1.06264e-07
-3.3891e-07
1.13194e-07
-3.40825e-07
1.07671e-07
1.0274e-07
-3.43913e-07
-3.41315e-07
1.36539e-07
3.22667e-07
-3.40508e-07
1.34317e-07
-2.66089e-07
1.23675e-07
-2.66697e-07
9.75001e-08
-2.70248e-07
9.81103e-08
-3.18686e-07
1.13093e-07
-3.28344e-07
1.15873e-07
-3.26722e-07
1.11572e-07
-3.25961e-07
1.06911e-07
1.03037e-07
-3.26246e-07
-3.41764e-07
1.40998e-07
3.37325e-07
-3.4144e-07
1.34285e-07
-3.21417e-07
1.28075e-07
-3.03855e-07
1.22745e-07
-3.11944e-07
1.17747e-07
-3.23849e-07
1.13838e-07
-3.18203e-07
1.10225e-07
-3.12935e-07
1.06305e-07
-3.08705e-07
1.02691e-07
9.97324e-08
-3.05361e-07
-3.34592e-07
1.38664e-07
3.36929e-07
-3.30365e-07
1.30286e-07
-3.24984e-07
1.23139e-07
-3.19265e-07
1.16988e-07
-3.13164e-07
1.11665e-07
-3.06427e-07
1.07096e-07
-2.99192e-07
1.02989e-07
-2.92207e-07
9.93202e-08
-2.85701e-07
9.61961e-08
9.37562e-08
-2.79663e-07
-3.15987e-07
1.33372e-07
3.21279e-07
-3.10077e-07
1.24391e-07
-3.03671e-07
1.16744e-07
-2.96842e-07
1.10158e-07
-2.89617e-07
1.04441e-07
-2.81985e-07
9.94643e-08
-2.74129e-07
9.51332e-08
-2.66232e-07
9.14232e-08
-2.58407e-07
8.83722e-08
8.60512e-08
-2.50679e-07
-2.89037e-07
1.27478e-07
2.94931e-07
-2.82898e-07
1.18251e-07
-2.76415e-07
1.10262e-07
-2.69537e-07
1.0328e-07
-2.62249e-07
9.71523e-08
-2.54563e-07
9.17791e-08
-2.46537e-07
8.71073e-08
-2.38238e-07
8.31239e-08
-2.29716e-07
7.9851e-08
7.73332e-08
-2.20998e-07
-2.614e-07
1.21428e-07
2.6745e-07
-2.55332e-07
1.12183e-07
-2.49032e-07
1.03962e-07
-2.42373e-07
9.66211e-08
-2.35288e-07
9.00667e-08
-2.2775e-07
8.42412e-08
-2.19762e-07
7.91195e-08
-2.11341e-07
7.47035e-08
-2.02508e-07
7.10177e-08
6.81005e-08
-1.93275e-07
-2.3714e-07
1.15307e-07
2.43261e-07
-2.31133e-07
1.06175e-07
-2.24975e-07
9.78042e-08
-2.18499e-07
9.01449e-08
-2.11601e-07
8.31684e-08
-2.04223e-07
7.68631e-08
-1.96338e-07
7.12346e-08
-1.87939e-07
6.63045e-08
-1.79029e-07
6.21076e-08
5.86868e-08
-1.69616e-07
-2.18157e-07
1.09286e-07
2.24179e-07
-2.12204e-07
1.00223e-07
-2.06102e-07
9.17014e-08
-1.99698e-07
8.37411e-08
-1.92894e-07
7.63636e-08
-1.85625e-07
6.95938e-08
-1.77853e-07
6.34635e-08
-1.69562e-07
5.80128e-08
-1.60744e-07
5.32899e-08
4.93478e-08
-1.51405e-07
-2.05553e-07
1.03062e-07
2.11777e-07
-1.99374e-07
9.40436e-08
-1.93086e-07
8.54134e-08
-1.86574e-07
7.72291e-08
-1.79752e-07
6.95416e-08
-1.72557e-07
6.23979e-08
-1.64941e-07
5.58476e-08
-1.56874e-07
4.9946e-08
-1.4834e-07
4.47558e-08
4.03458e-08
-1.39338e-07
-1.98534e-07
9.61038e-08
2.05492e-07
-1.91794e-07
8.73055e-08
-1.85139e-07
7.87579e-08
-1.78455e-07
7.05445e-08
-1.71648e-07
6.27349e-08
-1.64642e-07
5.53915e-08
-1.5737e-07
4.85759e-08
-1.4978e-07
4.23561e-08
-1.41837e-07
3.68124e-08
3.20381e-08
-1.33529e-07
-1.93632e-07
8.88539e-08
2.00882e-07
-1.86732e-07
8.04055e-08
-1.8008e-07
7.21068e-08
-1.73588e-07
6.4052e-08
-1.67173e-07
5.63195e-08
-1.60757e-07
4.89753e-08
-1.54261e-07
4.20803e-08
-1.47611e-07
3.57061e-08
-1.40749e-07
2.99502e-08
2.49494e-08
-1.3366e-07
-1.88474e-07
8.21453e-08
1.95183e-07
-1.82119e-07
7.40497e-08
-1.76084e-07
6.60724e-08
-1.70339e-07
5.83069e-08
-1.6485e-07
5.08297e-08
-1.59567e-07
4.36917e-08
-1.54412e-07
3.69258e-08
-1.49281e-07
3.05749e-08
-1.44071e-07
2.47399e-08
1.96445e-08
-1.38766e-07
-1.82379e-07
7.65119e-08
1.88004e-07
-1.77059e-07
6.87297e-08
-1.72086e-07
6.10995e-08
-1.67497e-07
5.37177e-08
-1.63337e-07
4.66699e-08
-1.59622e-07
3.99769e-08
-1.56302e-07
3.36052e-08
-1.5321e-07
2.74828e-08
-1.50088e-07
2.16183e-08
1.64354e-08
-1.46879e-07
-1.75387e-07
7.21576e-08
1.7974e-07
-1.71309e-07
6.46578e-08
-1.67575e-07
5.7372e-08
-1.64308e-07
5.04222e-08
-1.61583e-07
4.39276e-08
-1.59582e-07
3.79761e-08
-1.58282e-07
3.23049e-08
-1.57726e-07
2.69262e-08
-1.57407e-07
2.13002e-08
1.50221e-08
-1.55991e-07
-1.67653e-07
6.91067e-08
1.70704e-07
-1.64909e-07
6.19155e-08
-1.62546e-07
5.50127e-08
-1.60623e-07
4.85009e-08
-1.5864e-07
4.22616e-08
-1.47737e-07
3.50477e-08
-1.44742e-07
2.8973e-08
-1.42637e-07
2.4477e-08
-1.43025e-07
2.13535e-08
1.55869e-08
-1.44762e-07
-1.58775e-07
6.72053e-08
1.60677e-07
-1.57271e-07
6.04119e-08
-1.56225e-07
5.39693e-08
-1.55591e-07
4.79119e-08
-1.4095e-07
4.09644e-08
-1.39571e-07
3.33037e-08
-1.39874e-07
2.89104e-08
-1.42603e-07
2.6841e-08
-1.44497e-07
2.4981e-08
1.78534e-08
-1.47533e-07
-1.47403e-07
6.59005e-08
1.48707e-07
-1.46485e-07
5.94947e-08
-1.4599e-07
5.34775e-08
-1.45926e-07
4.7884e-08
-1.40685e-07
4.24396e-08
-1.33747e-07
3.72448e-08
-1.4507e-07
3.378e-08
-1.50813e-07
3.10366e-08
-1.51323e-07
2.76426e-08
2.40216e-08
-1.54348e-07
-1.33943e-07
6.494e-08
1.34904e-07
-1.33422e-07
5.89735e-08
-1.33391e-07
5.34475e-08
-1.33617e-07
4.83793e-08
-1.34352e-07
4.39034e-08
-1.36365e-07
3.99977e-08
-1.3909e-07
3.66219e-08
-1.41722e-07
3.36672e-08
-1.45014e-07
3.09335e-08
2.84141e-08
-1.49412e-07
-1.18282e-07
6.40783e-08
1.19144e-07
-1.17897e-07
5.85888e-08
-1.18029e-07
5.35929e-08
-1.18723e-07
4.91306e-08
-1.20093e-07
4.52405e-08
-1.22008e-07
4.19141e-08
-1.24523e-07
3.91356e-08
-1.27694e-07
3.68364e-08
-1.31672e-07
3.49106e-08
3.31846e-08
-1.36444e-07
-1.00639e-07
6.31493e-08
1.01568e-07
-1.00216e-07
5.81659e-08
-1.00347e-07
5.37281e-08
-1.01084e-07
4.98675e-08
-1.02443e-07
4.66e-08
-1.04457e-07
4.39271e-08
-1.07145e-07
4.1825e-08
-1.09814e-07
4.0008e-08
-1.13536e-07
3.87625e-08
3.75486e-08
-1.20259e-07
-8.14163e-08
6.20834e-08
8.24823e-08
-8.08997e-08
5.76497e-08
-8.09907e-08
5.38197e-08
-8.17381e-08
5.06151e-08
-8.31849e-08
4.80469e-08
-8.5357e-08
4.60995e-08
-8.80067e-08
4.45978e-08
-9.00947e-08
4.32425e-08
-9.40641e-08
4.27194e-08
4.2476e-08
-9.90882e-08
-6.09825e-08
6.08561e-08
6.22099e-08
-6.03639e-08
5.70315e-08
-6.04199e-08
5.38758e-08
-6.12074e-08
5.14027e-08
-6.27717e-08
4.96095e-08
-6.5006e-08
4.83889e-08
-6.70251e-08
4.71357e-08
-7.07008e-08
4.69107e-08
-7.52725e-08
4.72811e-08
4.7948e-08
-8.0757e-08
-3.97294e-08
5.94794e-08
4.11063e-08
-3.90458e-08
5.63482e-08
-3.91296e-08
5.39596e-08
-4.00413e-08
5.23144e-08
-4.1841e-08
5.14033e-08
-4.36993e-08
5.0678e-08
-4.70191e-08
5.04481e-08
-5.14059e-08
5.129e-08
-5.66566e-08
5.25244e-08
5.42478e-08
-6.31674e-08
-1.80355e-08
5.79515e-08
1.95336e-08
-1.73595e-08
5.56394e-08
-1.75981e-08
5.4161e-08
-1.88167e-08
5.35193e-08
-2.10819e-08
5.36681e-08
-2.38489e-08
5.42791e-08
-2.80966e-08
5.46921e-08
-3.33043e-08
5.64902e-08
-3.95684e-08
5.9436e-08
6.25198e-08
-4.78878e-08
3.70335e-09
5.6384e-08
-2.13882e-09
4.30965e-09
5.50218e-08
3.82472e-09
5.46343e-08
2.13648e-09
5.52025e-08
-7.94407e-10
5.66004e-08
-4.9954e-09
5.87539e-08
-1.04303e-08
6.15316e-08
-1.72141e-08
6.46631e-08
-2.53351e-08
6.8195e-08
7.16246e-08
-3.44398e-08
2.51159e-08
5.48285e-08
-2.35385e-08
2.55184e-08
5.46078e-08
2.46227e-08
5.5562e-08
2.23154e-08
5.75182e-08
1.85161e-08
6.0401e-08
1.31774e-08
6.4094e-08
6.30394e-09
6.84089e-08
-2.04985e-09
7.31239e-08
-1.18163e-08
7.79618e-08
8.2656e-08
-2.28475e-08
4.58568e-08
5.32083e-08
-4.42365e-08
4.6058e-08
5.44419e-08
4.47313e-08
5.69092e-08
4.17837e-08
6.0474e-08
3.71171e-08
6.50426e-08
3.07289e-08
7.04565e-08
2.25294e-08
7.66119e-08
1.25467e-08
8.31068e-08
9.24706e-10
8.95839e-08
9.5672e-08
-1.20912e-08
6.53512e-08
5.14211e-08
-6.35633e-08
6.54642e-08
5.43297e-08
6.38294e-08
5.85453e-08
6.02539e-08
6.31844e-08
5.51037e-08
6.99639e-08
4.81805e-08
7.75342e-08
3.88991e-08
8.58937e-08
2.74387e-08
9.45673e-08
1.4043e-08
1.0298e-07
1.10559e-07
-8.4355e-10
8.25118e-08
4.91424e-08
-8.02323e-08
8.28383e-08
5.4004e-08
7.95785e-08
5.59563e-08
7.7423e-08
6.55224e-08
7.33913e-08
7.46226e-08
6.62833e-08
8.46823e-08
5.63379e-08
9.58393e-08
4.35846e-08
1.07321e-07
2.84609e-08
1.18103e-07
1.27237e-07
1.17828e-08
9.50869e-08
4.61228e-08
-9.20664e-08
8.32091e-08
4.73316e-08
9.11691e-08
5.17479e-08
9.56136e-08
6.61852e-08
9.24061e-08
7.79356e-08
8.59638e-08
9.1125e-08
7.59292e-08
1.05874e-07
6.21708e-08
1.21079e-07
4.50183e-08
1.35256e-07
1.46168e-07
2.60873e-08
9.26868e-08
3.62829e-08
-9.83578e-08
9.66257e-08
4.19479e-08
1.07051e-07
5.03291e-08
1.14575e-07
6.52243e-08
1.13251e-07
7.92497e-08
1.08612e-07
9.57647e-08
9.9642e-08
1.14844e-07
7.90099e-08
1.02529e-07
5.27329e-08
8.68522e-08
7.17682e-08
3.23057e-08
9.38329e-08
3.00322e-08
-8.90271e-08
1.00774e-07
3.39776e-08
1.22864e-07
4.61528e-08
1.26275e-07
6.00497e-08
1.2894e-07
7.67012e-08
9.08149e-08
6.46165e-08
3.85977e-08
3.05317e-08
1.63136e-08
4.10141e-09
8.79045e-09
3.25145e-10
3.30949e-10
5.51433e-09
9.18534e-08
2.26023e-08
-8.24639e-08
1.02606e-07
3.00863e-08
1.12281e-07
4.02995e-08
9.42482e-08
4.45997e-08
2.71888e-08
1.78494e-08
2.11035e-09
3.09366e-10
7.25746e-10
8.66385e-11
4.39083e-10
5.24977e-11
2.97718e-10
4.8566e-11
4.23003e-11
2.71886e-10
6.61939e-08
1.85286e-08
-5.79922e-08
7.2364e-08
2.41162e-08
5.39734e-08
2.77044e-08
1.55185e-09
3.66699e-09
3.94868e-11
6.83949e-11
1.06382e-10
6.83692e-11
9.84845e-11
2.45643e-11
8.92464e-11
2.66886e-11
8.5206e-11
2.60306e-11
2.41954e-11
8.2474e-11
2.19284e-08
1.32704e-08
-1.66579e-08
2.39917e-08
1.57401e-08
1.7574e-09
8.30728e-09
1.74604e-11
3.92379e-10
2.08638e-11
5.43049e-11
3.52461e-11
4.81342e-11
3.48386e-11
2.19944e-11
3.55454e-11
2.51183e-11
3.96421e-11
2.15911e-11
2.05958e-11
4.2812e-11
-1.90043e-08
1.29538e-08
1.93283e-08
-1.24844e-08
1.16469e-08
-1.70744e-10
4.89083e-09
2.76543e-12
2.0811e-10
8.60148e-12
4.22828e-11
1.08855e-11
4.25897e-11
1.28043e-11
1.87896e-11
2.42247e-11
1.31524e-11
3.40449e-11
1.1861e-11
1.08627e-11
4.34627e-11
-3.03086e-08
1.06168e-08
3.26553e-08
-2.56492e-08
7.27e-09
-1.53109e-08
4.73025e-09
-3.25934e-09
-3.9173e-11
-1.82891e-10
-3.11053e-09
3.85161e-10
-2.37774e-09
5.31148e-11
3.48828e-10
2.78281e-11
3.85906e-11
3.34105e-11
6.35849e-12
3.29967e-12
4.10147e-11
-2.10146e-08
-2.71592e-09
3.43679e-08
-4.884e-09
-8.83293e-09
1.49696e-08
-1.50989e-08
3.59902e-08
-2.23376e-08
5.06916e-08
-2.91102e-08
6.58986e-08
-3.57897e-08
8.54799e-08
-4.17313e-08
1.08395e-07
-4.72988e-08
1.40028e-07
-4.91485e-08
-4.88404e-08
1.77105e-07
-1.03336e-08
-2.03897e-08
2.69148e-08
1.26115e-08
-2.81617e-08
3.89928e-08
-3.5477e-08
7.09331e-08
-5.22129e-08
1.06828e-07
-6.42791e-08
1.44961e-07
-7.35871e-08
1.86039e-07
-8.27337e-08
2.3033e-07
-9.15594e-08
2.77162e-07
-9.59683e-08
-9.77386e-08
3.26068e-07
-2.13594e-08
-4.56695e-08
4.71193e-08
5.77399e-09
-5.5205e-08
3.69968e-08
-6.83424e-08
8.13185e-08
-8.24571e-08
1.22314e-07
-9.19504e-08
1.66801e-07
-1.06335e-07
2.17718e-07
-1.23949e-07
2.67018e-07
-1.40737e-07
3.18546e-07
-1.47468e-07
-1.52146e-07
3.72967e-07
-4.47027e-08
-7.44973e-08
7.42219e-08
-1.0717e-08
-9.4874e-08
2.70666e-08
-1.17655e-07
6.98567e-08
-1.31021e-07
1.18167e-07
-1.46035e-07
1.7409e-07
-1.68031e-07
2.52151e-07
-1.83685e-07
3.11974e-07
-1.98444e-07
3.72255e-07
-2.07598e-07
-2.15727e-07
4.35922e-07
-7.14185e-08
-1.07202e-07
1.07271e-07
-2.56057e-08
-1.3659e-07
2.6784e-08
-1.65413e-07
7.51475e-08
-1.91352e-07
1.45674e-07
-2.04599e-07
2.15196e-07
-2.28368e-07
2.91458e-07
-2.35487e-07
3.6742e-07
-2.43748e-07
4.52486e-07
-2.53517e-07
-2.79421e-07
5.33293e-07
-9.222e-08
-1.37104e-07
1.41747e-07
-4.52944e-08
-1.68051e-07
1.56603e-08
-2.09325e-07
9.26309e-08
-2.56196e-07
1.63522e-07
-2.6437e-07
2.47344e-07
-3.08718e-07
3.26455e-07
-3.21826e-07
4.15072e-07
-3.38998e-07
5.06175e-07
-3.51277e-07
-3.5974e-07
6.60262e-07
-1.30823e-07
-1.92545e-07
1.83109e-07
-6.82251e-08
-2.36939e-07
-6.60751e-09
-2.86841e-07
9.04064e-08
-3.33617e-07
1.72569e-07
-3.66023e-07
2.69696e-07
-4.13584e-07
3.79968e-07
-4.37849e-07
4.92099e-07
-4.57732e-07
6.19721e-07
-4.7762e-07
-5.06433e-07
7.55506e-07
-2.22564e-07
-3.03621e-07
2.79294e-07
-1.40643e-07
-3.77496e-07
-3.94012e-08
-4.44233e-07
7.07991e-08
-5.00753e-07
1.92972e-07
-5.4626e-07
3.14269e-07
-5.82354e-07
4.45813e-07
-6.09112e-07
5.74042e-07
-6.27133e-07
6.96434e-07
-6.36745e-07
-6.38466e-07
8.28524e-07
-2.9473e-07
-3.8751e-07
3.78779e-07
-1.91166e-07
-4.81054e-07
-7.27226e-08
-5.62684e-07
5.53408e-08
-6.2881e-07
1.89256e-07
-6.80174e-07
3.25228e-07
-7.18326e-07
4.60854e-07
-7.44738e-07
5.94517e-07
-7.60795e-07
7.25044e-07
-7.67272e-07
-7.6469e-07
8.51268e-07
-3.64621e-07
-4.77275e-07
4.54751e-07
-2.47772e-07
-5.97795e-07
-1.13902e-07
-6.96552e-07
2.72315e-08
-7.69952e-07
1.69985e-07
-8.2288e-07
3.112e-07
-8.59539e-07
4.49353e-07
-8.8289e-07
5.83639e-07
-8.9508e-07
7.13555e-07
-8.97188e-07
-8.89475e-07
8.38339e-07
-4.15521e-07
-5.61064e-07
5.02787e-07
-2.89583e-07
-7.23494e-07
-1.43071e-07
-8.42987e-07
5.32496e-09
-9.18154e-07
1.49226e-07
-9.66738e-07
2.86794e-07
-9.97108e-07
4.18054e-07
-1.01415e-06
5.43519e-07
-1.02055e-06
6.6353e-07
-1.0172e-06
-1.00366e-06
7.7772e-07
-3.76533e-07
-3.60395e-07
3.17318e-07
-2.82565e-07
-8.15971e-07
-1.34813e-07
-9.90203e-07
6.94292e-09
-1.0596e-06
1.38069e-07
-1.09784e-06
2.59223e-07
-1.11826e-06
3.72259e-07
-1.12719e-06
4.78675e-07
-1.12696e-06
5.79264e-07
-1.11779e-06
-1.09819e-06
6.73789e-07
-1.42888e-07
-5.09419e-08
6.98459e-08
-2.00249e-07
-5.88981e-07
-8.27223e-08
-1.107e-06
3.44385e-08
-1.17597e-06
1.3922e-07
-1.20257e-06
2.34143e-07
-1.21318e-06
3.21742e-07
-1.21479e-06
4.03552e-07
-1.20877e-06
4.80164e-07
-1.1944e-06
-1.16929e-06
5.51264e-07
-4.28609e-08
-1.16067e-08
5.06551e-09
-8.83821e-08
-3.89368e-07
-1.30769e-08
-1.15813e-06
7.13511e-08
-1.25935e-06
1.45071e-07
-1.27622e-06
2.12058e-07
-1.28016e-06
2.74224e-07
-1.27695e-06
3.32415e-07
-1.26696e-06
3.86839e-07
-1.24882e-06
-1.21992e-06
4.37471e-07
-1.08807e-08
-1.16012e-09
5.25595e-10
-9.32244e-09
-2.9656e-07
5.14262e-08
-1.17712e-06
1.04235e-07
-1.31105e-06
1.5052e-07
-1.32242e-06
1.93613e-07
-1.32324e-06
2.34466e-07
-1.31781e-06
2.73148e-07
-1.30564e-06
3.09611e-07
-1.28529e-06
-1.25454e-06
3.44224e-07
8.71398e-11
-1.26052e-09
3.58896e-12
4.66592e-08
-2.66309e-07
1.05894e-07
-1.18248e-06
1.31816e-07
-1.33591e-06
1.56405e-07
-1.34691e-06
1.80966e-07
-1.3478e-06
2.05331e-07
-1.34217e-06
2.28841e-07
-1.32915e-06
2.51032e-07
-1.30748e-06
-1.27576e-06
2.72251e-07
2.89191e-10
-1.43522e-09
-1.23627e-10
8.3725e-08
-2.5955e-07
1.46441e-07
-1.17761e-06
1.53493e-07
-1.34203e-06
1.62936e-07
-1.35626e-06
1.74608e-07
-1.35946e-06
1.87408e-07
-1.35497e-06
2.0016e-07
-1.3419e-06
2.12111e-07
-1.31943e-06
-1.28702e-06
2.23372e-07
6.52017e-10
-1.88494e-09
-2.29674e-10
1.0868e-07
-2.47444e-07
1.7563e-07
-1.16495e-06
1.71143e-07
-1.337e-06
1.71341e-07
-1.35642e-06
1.75114e-07
-1.36323e-06
1.80661e-07
-1.36051e-06
1.86396e-07
-1.34764e-06
1.91206e-07
-1.32424e-06
-1.29047e-06
1.94661e-07
1.56102e-09
-3.13602e-09
-3.66263e-10
1.27052e-07
-2.40879e-07
1.9947e-07
-1.14883e-06
1.885e-07
-1.32559e-06
1.83851e-07
-1.35175e-06
1.83791e-07
-1.36317e-06
1.86101e-07
-1.36282e-06
1.89165e-07
-1.3507e-06
1.91856e-07
-1.32693e-06
-1.29178e-06
1.93162e-07
4.03697e-09
-6.58781e-09
-7.15884e-10
1.46054e-07
-2.42465e-07
2.21149e-07
-1.14055e-06
2.06956e-07
-1.31098e-06
2.00266e-07
-1.34502e-06
1.98721e-07
-1.36162e-06
2.00053e-07
-1.36416e-06
2.0301e-07
-1.35366e-06
2.06948e-07
-1.33087e-06
-1.29565e-06
2.10816e-07
1.06316e-08
-1.51326e-08
-2.39619e-09
1.70903e-07
-2.83944e-07
2.38467e-07
-1.1527e-06
2.24675e-07
-1.2969e-06
2.17793e-07
-1.33812e-06
2.15662e-07
-1.35949e-06
2.16312e-07
-1.36481e-06
2.19056e-07
-1.3564e-06
2.24011e-07
-1.33582e-06
-1.30228e-06
2.30641e-07
2.99623e-08
-3.21385e-08
-1.38051e-08
2.02135e-07
-3.75262e-07
2.48195e-07
-1.17043e-06
2.38478e-07
-1.28702e-06
2.3348e-07
-1.3331e-06
2.31576e-07
-1.35758e-06
2.31488e-07
-1.36472e-06
2.33139e-07
-1.35806e-06
2.37274e-07
-1.33996e-06
-1.30726e-06
2.42261e-07
4.62719e-08
-5.49281e-08
-2.66288e-08
2.26556e-07
-4.9982e-07
2.5439e-07
-1.18909e-06
2.51509e-07
-1.28402e-06
2.49115e-07
-1.3307e-06
2.47522e-07
-1.35599e-06
2.46682e-07
-1.36388e-06
2.47205e-07
-1.35858e-06
2.5021e-07
-1.34296e-06
-1.30519e-06
2.48137e-07
7.1442e-08
-5.81674e-08
-7.9475e-08
2.73272e-07
-6.60194e-07
2.81533e-07
-1.19326e-06
2.75176e-07
-1.27758e-06
2.69007e-07
-1.32452e-06
2.64224e-07
-1.3512e-06
2.60957e-07
-1.36061e-06
2.59952e-07
-1.35757e-06
2.62458e-07
-1.34547e-06
-1.28856e-06
2.45878e-07
9.69574e-08
-1.1526e-07
-6.48634e-08
3.11997e-07
-8.56896e-07
3.06897e-07
-1.1879e-06
2.92484e-07
-1.26314e-06
2.80279e-07
-1.31231e-06
2.71005e-07
-1.34193e-06
2.64228e-07
-1.35383e-06
2.605e-07
-1.35385e-06
2.61047e-07
-1.34602e-06
-1.24619e-06
2.03385e-07
1.45815e-07
-2.04973e-07
-6.0597e-08
3.04851e-07
-1.01689e-06
2.94261e-07
-1.17725e-06
2.79331e-07
-1.2482e-06
2.67121e-07
-1.3001e-06
2.56934e-07
-1.33174e-06
2.48317e-07
-1.34522e-06
2.42029e-07
-1.34756e-06
2.39029e-07
-1.34302e-06
-1.20672e-06
1.47385e-07
1.87368e-07
-3.96868e-07
-1.7316e-08
2.39396e-07
-1.07252e-06
2.39343e-07
-1.1772e-06
2.35773e-07
-1.24463e-06
2.30669e-07
-1.295e-06
2.23521e-07
-1.32459e-06
2.15382e-07
-1.33708e-06
2.07973e-07
-1.34015e-06
2.02327e-07
-1.33737e-06
-1.13261e-06
1.02392e-07
1.33425e-07
-5.56714e-07
-2.43754e-10
1.65313e-07
-1.10584e-06
1.78837e-07
-1.19073e-06
1.85462e-07
-1.25126e-06
1.85974e-07
-1.29551e-06
1.81111e-07
-1.31973e-06
1.7342e-07
-1.32939e-06
1.6522e-07
-1.33195e-06
1.57695e-07
-1.32985e-06
-1.06354e-06
6.51174e-08
7.49434e-08
-6.55908e-07
-1.0053e-09
1.08252e-07
-1.13937e-06
1.28238e-07
-1.21072e-06
1.39155e-07
-1.26217e-06
1.41734e-07
-1.29809e-06
1.37614e-07
-1.31561e-06
1.30003e-07
-1.32177e-06
1.21212e-07
-1.32316e-06
1.12488e-07
-1.32112e-06
-1.00877e-06
3.85718e-08
3.38179e-08
-7.16093e-07
3.72205e-09
6.73682e-08
-1.17274e-06
8.85964e-08
-1.23195e-06
1.00134e-07
-1.27371e-06
1.02525e-07
-1.30048e-06
9.82759e-08
-1.31136e-06
9.05497e-08
-1.31405e-06
8.12489e-08
-1.31386e-06
7.15468e-08
-1.31142e-06
-9.76185e-07
2.07768e-08
1.22293e-08
-7.52843e-07
1.04406e-08
4.22314e-08
-1.20208e-06
6.09504e-08
-1.25066e-06
7.08123e-08
-1.28357e-06
7.13796e-08
-1.30105e-06
6.6379e-08
-1.30636e-06
5.82999e-08
-1.30597e-06
4.83588e-08
-1.30392e-06
3.74567e-08
-1.30052e-06
-9.57504e-07
8.76003e-09
9.44172e-09
-7.72992e-07
9.44583e-09
3.37653e-08
-1.22621e-06
4.66763e-08
-1.26357e-06
5.24986e-08
-1.2894e-06
4.95096e-08
-1.29806e-06
4.30656e-08
-1.29992e-06
3.44046e-08
-1.29731e-06
2.36915e-08
-1.2932e-06
1.11785e-08
-1.28801e-06
-9.53249e-07
2.67029e-10
3.23979e-08
-7.97532e-07
-2.02014e-13
3.81819e-08
-1.23206e-06
4.15894e-08
-1.26698e-06
4.15955e-08
-1.2894e-06
3.45768e-08
-1.29104e-06
2.66973e-08
-1.29204e-06
1.78102e-08
-1.28842e-06
6.52688e-09
-1.28192e-06
-6.46413e-09
-1.275e-06
-9.65833e-07
4.3548e-28
3.10341e-08
-8.381e-07
-4.64727e-12
3.11541e-08
-1.23218e-06
3.47206e-08
-1.27055e-06
3.25827e-08
-1.28727e-06
2.38385e-08
-1.28229e-06
1.52349e-08
-1.28343e-06
7.04514e-09
-1.28023e-06
-4.03445e-09
-1.27084e-06
-1.80596e-08
-1.26094e-06
-9.8757e-07
3.24365e-28
3.64011e-08
-8.75796e-07
-1.76956e-11
3.02341e-08
-1.22602e-06
3.41714e-08
-1.27448e-06
2.82001e-08
-1.28129e-06
1.78429e-08
-1.27194e-06
8.00401e-09
-1.27359e-06
8.78077e-10
-1.2731e-06
-8.70283e-09
-1.26126e-06
-2.33967e-08
-1.24624e-06
-1.01323e-06
1.5266e-28
3.70875e-08
-9.13093e-07
-3.74121e-15
3.14279e-08
-1.22036e-06
3.56285e-08
-1.27868e-06
2.56748e-08
-1.27134e-06
1.46131e-08
-1.26088e-06
3.64108e-09
-1.26262e-06
-2.74879e-09
-1.26671e-06
-8.50334e-09
-1.2555e-06
-2.27027e-08
-1.23205e-06
-1.03725e-06
5.86581e-29
2.73452e-08
-9.40845e-07
-1.4783e-14
3.25033e-08
-1.22552e-06
3.62817e-08
-1.28246e-06
2.34892e-08
-1.25855e-06
1.18828e-08
-1.24927e-06
-1.00498e-10
-1.25064e-06
-7.63147e-09
-1.25918e-06
-5.83326e-09
-1.2573e-06
-1.40225e-08
-1.22385e-06
-1.05194e-06
4.8367e-64
8.90749e-09
-9.49911e-07
-1.80934e-14
3.54999e-08
-1.25211e-06
3.55122e-08
-1.28248e-06
2.12162e-08
-1.24425e-06
9.48113e-09
-1.23753e-06
-2.65891e-09
-1.2385e-06
-1.54242e-08
-1.24642e-06
-7.6868e-09
-1.26504e-06
6.55887e-09
-1.23809e-06
-1.04563e-06
1.85672e-75
-8.28309e-09
3.62118e-43
3.73142e-08
2.88142e-08
1.70639e-08