/*--------------------------------*- C++ -*----------------------------------*\
  =========                 |
  \\      /  F ield         | OpenFOAM: The Open Source CFD Toolbox
   \\    /   O peration     | Website:  https://openfoam.org
    \\  /    A nd           | Version:  8
     \\/     M anipulation  |
\*---------------------------------------------------------------------------*/
FoamFile
{
    version     2.0;
    format      ascii;
    class       surfaceScalarField;
    location    "4.6";
    object      phi;
}
// * * * * * * * * * * * * * * * * * * * * * * * * * * * * * * * * * * * * * //

dimensions      [0 3 -1 0 0 0 0];

internalField   nonuniform List<scalar> 
18095
(
1.58567e-07
-9.65437e-07
8.0687e-07
1.65437e-07
-1.24823e-06
1.24136e-06
1.22252e-07
-1.24224e-06
1.28542e-06
6.53918e-08
-1.26348e-06
1.32034e-06
9.33116e-11
-1.28048e-06
1.34578e-06
-6.5222e-08
-1.2805e-06
1.34582e-06
-1.22124e-07
-1.26353e-06
1.32043e-06
-1.65356e-07
-1.24229e-06
1.28552e-06
-1.58535e-07
-1.24828e-06
1.24146e-06
-9.65539e-07
8.07004e-07
1.11044e-07
-1.07648e-06
9.94445e-08
-1.23663e-06
7.28972e-08
-1.21569e-06
4.00842e-08
-1.23067e-06
6.31374e-11
-1.24046e-06
-3.99675e-08
-1.24047e-06
-7.28045e-08
-1.23069e-06
-9.93757e-08
-1.21572e-06
-1.11006e-07
-1.23665e-06
-1.07654e-06
6.71782e-08
-1.14366e-06
5.27797e-08
-1.22223e-06
4.21719e-08
-1.20508e-06
2.38947e-08
-1.21239e-06
4.05204e-11
-1.21661e-06
-2.38189e-08
-1.21661e-06
-4.21105e-08
-1.2124e-06
-5.2733e-08
-1.20509e-06
-6.71453e-08
-1.22223e-06
-1.14369e-06
3.96354e-08
-1.18329e-06
2.66374e-08
-1.20923e-06
2.20319e-08
-1.20048e-06
1.25464e-08
-1.2029e-06
2.28388e-11
-1.20408e-06
-1.25033e-08
-1.20408e-06
-2.19963e-08
-1.20291e-06
-2.66107e-08
-1.20048e-06
-3.96132e-08
-1.20923e-06
-1.1833e-06
1.67055e-08
7.47207e-09
6.99639e-09
4.09159e-09
7.56317e-12
-4.07721e-09
-6.98455e-09
-7.46388e-09
-1.66962e-08
-1.7457e-07
-1.16344e-06
1.33801e-06
-2.18683e-07
-1.21615e-06
1.26027e-06
-1.64553e-07
-1.21265e-06
1.15852e-06
-8.62611e-08
-1.20386e-06
1.12556e-06
1.00048e-09
-1.20242e-06
1.11515e-06
8.8217e-08
-1.20257e-06
1.11535e-06
1.66318e-07
-1.20427e-06
1.12617e-06
2.20294e-07
-1.21325e-06
1.15928e-06
1.76023e-07
-1.21699e-06
1.26126e-06
-1.1644e-06
1.34042e-06
-9.27126e-08
-1.07073e-06
-9.52675e-08
-1.2136e-06
-7.88351e-08
-1.22908e-06
-4.37133e-08
-1.23898e-06
5.64717e-10
-1.24669e-06
4.47967e-08
-1.2468e-06
7.98025e-08
-1.23928e-06
9.60553e-08
-1.2295e-06
9.31594e-08
-1.2141e-06
-1.07124e-06
-5.78653e-08
-1.01286e-06
-5.49822e-08
-1.21648e-06
-4.62742e-08
-1.23779e-06
-2.68346e-08
-1.25842e-06
3.40642e-10
-1.27387e-06
2.74832e-08
-1.27395e-06
4.68299e-08
-1.25862e-06
5.53866e-08
-1.23806e-06
5.80626e-08
-1.21677e-06
-1.01318e-06
-7.47761e-08
-9.38087e-07
-6.19095e-08
-1.22935e-06
-4.84648e-08
-1.25123e-06
-2.7605e-08
-1.27928e-06
2.12565e-10
-1.30169e-06
2.80066e-08
-1.30174e-06
4.87984e-08
-1.27942e-06
6.21348e-08
-1.2514e-06
7.48815e-08
-1.22952e-06
-9.38295e-07
-1.31217e-07
-1.19207e-07
-8.50175e-08
-4.39546e-08
1.38986e-10
4.42156e-08
8.52311e-08
1.19353e-07
1.31291e-07
-2.49451e-08
-9.16675e-07
9.4162e-07
1.64895e-08
-1.339e-06
1.29757e-06
1.86846e-08
-1.27615e-06
1.27395e-06
1.34075e-08
-1.22721e-06
1.23248e-06
8.12119e-09
-1.22377e-06
1.22906e-06
3.08001e-09
-1.22479e-06
1.22983e-06
-2.90546e-09
-1.22692e-06
1.2329e-06
6.09444e-09
-1.27339e-06
1.26439e-06
6.0825e-08
-1.34295e-06
1.28822e-06
-9.49151e-07
1.00998e-06
1.99759e-08
-9.36651e-07
2.75526e-08
-1.34658e-06
1.92867e-08
-1.26788e-06
1.30036e-08
-1.22092e-06
6.38602e-09
-1.21715e-06
-4.18765e-10
-1.21798e-06
-6.44507e-09
-1.22089e-06
-1.11939e-08
-1.26864e-06
-5.09206e-09
-1.34905e-06
-9.54243e-07
3.22546e-08
-9.68906e-07
2.36143e-08
-1.33794e-06
1.46687e-08
-1.25894e-06
9.85684e-09
-1.21611e-06
4.04373e-09
-1.21134e-06
-2.37559e-09
-1.21156e-06
-6.73682e-09
-1.21653e-06
-1.55045e-08
-1.25987e-06
-2.46911e-08
-1.33987e-06
-9.78934e-07
8.2164e-08
-1.05107e-06
5.64024e-08
-1.31218e-06
3.71838e-08
-1.23972e-06
2.36502e-08
-1.20258e-06
2.6275e-09
-1.19032e-06
-1.84043e-08
-1.19053e-06
-3.14227e-08
-1.20351e-06
-5.0384e-08
-1.24091e-06
-7.71769e-08
-1.31307e-06
-1.05611e-06
2.86942e-07
2.3503e-07
1.53828e-07
7.68163e-08
1.65295e-09
-7.35228e-08
-1.50865e-07
-2.32501e-07
-2.8431e-07
3.52795e-08
3.28007e-09
-3.85595e-08
3.20116e-08
3.26836e-09
2.87657e-08
3.24578e-09
2.55498e-08
3.21586e-09
2.23787e-08
3.17095e-09
1.92589e-08
3.11956e-09
1.61992e-08
3.05954e-09
1.32103e-08
2.98869e-09
1.03008e-08
2.90927e-09
2.82217e-09
7.4784e-09
3.256e-08
6.71002e-09
-3.59898e-08
2.91226e-08
6.70565e-09
2.56946e-08
6.67344e-09
2.22944e-08
6.6157e-09
1.89321e-08
6.53289e-09
1.56225e-08
6.42873e-09
1.23813e-08
6.30026e-09
9.2201e-09
6.14949e-09
6.15014e-09
5.9788e-09
5.79056e-09
3.18131e-09
2.39596e-08
1.00682e-08
-2.73178e-08
2.06082e-08
1.00561e-08
1.72784e-08
1.00028e-08
1.39838e-08
9.90974e-09
1.07361e-08
9.78016e-09
7.55039e-09
9.61395e-09
4.43747e-09
9.41272e-09
1.40857e-09
9.17795e-09
-1.52653e-09
8.91347e-09
8.62155e-09
-4.35793e-09
1.47078e-08
1.33897e-08
-1.80297e-08
1.14065e-08
1.33559e-08
8.13931e-09
1.32695e-08
4.91705e-09
1.31315e-08
1.75312e-09
1.29435e-08
-1.34097e-09
1.27075e-08
-4.35554e-09
1.24268e-08
-7.28085e-09
1.21028e-08
-1.01072e-08
1.17394e-08
1.13399e-08
-1.28259e-08
4.97354e-09
1.67062e-08
-8.29052e-09
1.68848e-09
1.66397e-08
-1.55114e-09
1.65086e-08
-4.73481e-09
1.63147e-08
-7.85234e-09
1.60606e-08
-1.08931e-08
1.57479e-08
-1.38465e-08
1.53798e-08
-1.67038e-08
1.49598e-08
-1.94563e-08
1.44916e-08
1.39793e-08
-2.2096e-08
-5.30811e-09
2.00435e-08
1.97037e-09
-8.60373e-09
1.99346e-08
-1.18459e-08
1.97505e-08
-1.50243e-08
1.94927e-08
-1.81276e-08
1.91636e-08
-2.1146e-08
1.8766e-08
-2.40696e-08
1.83032e-08
-2.68896e-08
1.77795e-08
-2.95978e-08
1.71996e-08
1.65685e-08
-3.21872e-08
-1.6193e-08
2.34291e-08
1.28072e-08
-1.95294e-08
2.32708e-08
-2.28049e-08
2.30259e-08
-2.60086e-08
2.26962e-08
-2.91294e-08
2.22843e-08
-3.21568e-08
2.17932e-08
-3.50808e-08
2.1227e-08
-3.78925e-08
2.05911e-08
-4.05844e-08
1.98913e-08
1.9134e-08
-4.315e-08
-2.77408e-08
2.68954e-08
2.42745e-08
-3.11519e-08
2.66817e-08
-3.44957e-08
2.63695e-08
-3.77604e-08
2.59608e-08
-4.09342e-08
2.5458e-08
-4.40056e-08
2.48645e-08
-4.69639e-08
2.41853e-08
-4.97999e-08
2.34271e-08
-5.25064e-08
2.25978e-08
2.17055e-08
-5.50779e-08
-4.00267e-08
3.04824e-08
3.64396e-08
-4.35547e-08
3.02093e-08
-4.70099e-08
2.98246e-08
-5.03797e-08
2.93305e-08
-5.36513e-08
2.87294e-08
-5.68113e-08
2.80244e-08
-5.98471e-08
2.72211e-08
-6.27489e-08
2.63289e-08
-6.551e-08
2.53589e-08
2.43212e-08
-6.81258e-08
-5.31529e-08
3.42419e-08
4.93933e-08
-5.68515e-08
3.39071e-08
-6.04729e-08
3.34457e-08
-6.40047e-08
3.28622e-08
-6.74336e-08
3.21582e-08
-7.07424e-08
3.13332e-08
-7.39141e-08
3.03927e-08
-7.69374e-08
2.93523e-08
-7.98073e-08
2.82288e-08
2.70349e-08
-8.2521e-08
-6.72535e-08
3.8241e-08
6.32542e-08
-7.11911e-08
3.7844e-08
-7.50477e-08
3.73022e-08
-7.88121e-08
3.66264e-08
-8.24759e-08
3.5822e-08
-8.60162e-08
3.48734e-08
-8.94028e-08
3.37792e-08
-9.26208e-08
3.25702e-08
-9.56694e-08
3.12774e-08
2.99129e-08
-9.85475e-08
-8.24929e-08
4.25703e-08
7.81633e-08
-8.67625e-08
4.21134e-08
-9.09398e-08
4.14794e-08
-9.50196e-08
4.07061e-08
-9.8993e-08
3.97953e-08
-1.02871e-07
3.87514e-08
-1.06558e-07
3.74663e-08
-1.10058e-07
3.60695e-08
-1.13384e-07
3.46036e-08
3.30586e-08
-1.1653e-07
-9.90155e-08
4.73308e-08
9.42549e-08
-1.03788e-07
4.68856e-08
-1.08396e-07
4.60872e-08
-1.12886e-07
4.51964e-08
-1.17276e-07
4.41851e-08
-1.21451e-07
4.29268e-08
-1.25524e-07
4.15392e-08
-1.2945e-07
3.99949e-08
-1.33194e-07
3.83477e-08
3.66102e-08
-1.36746e-07
-1.16884e-07
5.25801e-08
1.11634e-07
-1.22062e-07
5.20645e-08
-1.27214e-07
5.12392e-08
-1.32255e-07
5.02373e-08
-1.37169e-07
4.90991e-08
-1.41957e-07
4.77141e-08
-1.46615e-07
4.6197e-08
-1.51122e-07
4.45021e-08
-1.55437e-07
4.26626e-08
4.07107e-08
-1.59538e-07
-1.35876e-07
5.8274e-08
1.30183e-07
-1.41618e-07
5.78067e-08
-1.47352e-07
5.69732e-08
-1.53055e-07
5.59404e-08
-1.58699e-07
5.47431e-08
-1.64324e-07
5.33386e-08
-1.69809e-07
5.16823e-08
-1.7514e-07
4.98327e-08
-1.80232e-07
4.77554e-08
4.54898e-08
-1.85012e-07
-1.56026e-07
6.47172e-08
1.49583e-07
-1.62468e-07
6.42482e-08
-1.69009e-07
6.35146e-08
-1.7559e-07
6.25221e-08
-1.82175e-07
6.13277e-08
-1.88749e-07
5.99129e-08
-1.95257e-07
5.81899e-08
-2.01573e-07
5.61492e-08
-2.07597e-07
5.37795e-08
5.11576e-08
-2.13265e-07
-1.77458e-07
7.1977e-08
1.70198e-07
-1.84979e-07
7.17703e-08
-1.92387e-07
7.09223e-08
-1.99821e-07
6.99565e-08
-2.07385e-07
6.88918e-08
-2.15023e-07
6.75507e-08
-2.22668e-07
6.58352e-08
-2.30183e-07
6.3664e-08
-2.37374e-07
6.09711e-08
5.78866e-08
-2.44103e-07
-1.99835e-07
8.01295e-08
1.91682e-07
-2.07995e-07
7.99309e-08
-2.1617e-07
7.90982e-08
-2.24575e-07
7.83613e-08
-2.33251e-07
7.7568e-08
-2.42242e-07
7.65413e-08
-2.51443e-07
7.50371e-08
-2.60521e-07
7.27423e-08
-2.6917e-07
6.96202e-08
6.58554e-08
-2.77138e-07
-2.22797e-07
8.87535e-08
2.14174e-07
-2.31349e-07
8.84827e-08
-2.40297e-07
8.8046e-08
-2.49603e-07
8.76679e-08
-2.59399e-07
8.73633e-08
-2.69907e-07
8.70497e-08
-2.81075e-07
8.62051e-08
-2.92112e-07
8.37801e-08
-3.02262e-07
7.97703e-08
7.52006e-08
-3.11607e-07
-2.45997e-07
9.78387e-08
2.36912e-07
-2.5519e-07
9.76755e-08
-2.64717e-07
9.75728e-08
-2.74693e-07
9.7644e-08
-2.85323e-07
9.79929e-08
-2.97e-07
9.87271e-08
-3.10092e-07
9.92969e-08
-3.24265e-07
9.7954e-08
-3.3513e-07
9.06355e-08
8.27729e-08
-3.42702e-07
-2.6951e-07
1.0739e-07
2.59959e-07
-2.79301e-07
1.07466e-07
-2.8957e-07
1.07841e-07
-3.00488e-07
1.08562e-07
-3.12132e-07
1.09637e-07
-3.24802e-07
1.11398e-07
-3.39085e-07
1.1358e-07
-3.49987e-07
1.08856e-07
-3.56604e-07
9.72533e-08
8.89445e-08
-3.62776e-07
-2.91571e-07
1.16788e-07
2.82173e-07
-3.01253e-07
1.17148e-07
-3.11282e-07
1.1787e-07
-3.22156e-07
1.19437e-07
-3.34098e-07
1.2158e-07
-3.4515e-07
1.22449e-07
-3.51474e-07
1.19904e-07
-3.54977e-07
1.12359e-07
-3.59971e-07
1.02248e-07
9.465e-08
-3.65677e-07
-3.10793e-07
1.25143e-07
3.02437e-07
-3.19048e-07
1.25403e-07
-3.27874e-07
1.26696e-07
-3.36411e-07
1.27974e-07
-3.43082e-07
1.28251e-07
-3.47211e-07
1.26578e-07
-3.48736e-07
1.21429e-07
-3.49717e-07
1.1334e-07
-3.52999e-07
1.05529e-07
9.94304e-08
-3.57779e-07
-3.29184e-07
1.32594e-07
3.21733e-07
-3.35024e-07
1.31242e-07
-3.39428e-07
1.311e-07
-3.41133e-07
1.29679e-07
-3.40777e-07
1.27894e-07
-3.39736e-07
1.25537e-07
-3.3821e-07
1.19903e-07
-3.38196e-07
1.13326e-07
-3.4015e-07
1.07483e-07
1.02683e-07
-3.43403e-07
-3.39999e-07
1.38754e-07
3.33839e-07
-3.4349e-07
1.34733e-07
-3.43639e-07
1.3125e-07
-3.40534e-07
1.26574e-07
-3.35353e-07
1.22713e-07
-3.30735e-07
1.20919e-07
-3.2729e-07
1.16458e-07
-3.255e-07
1.11535e-07
-3.24937e-07
1.0692e-07
1.03158e-07
-3.25412e-07
-3.4173e-07
1.40528e-07
3.39956e-07
-3.40976e-07
1.33979e-07
-3.37548e-07
1.27822e-07
-3.33677e-07
1.22703e-07
-3.2933e-07
1.18366e-07
-3.22629e-07
1.14217e-07
-3.1654e-07
1.1037e-07
-3.11448e-07
1.06443e-07
-3.07407e-07
1.02879e-07
1.00015e-07
-3.04264e-07
-3.33405e-07
1.38072e-07
3.35861e-07
-3.29333e-07
1.29907e-07
-3.24428e-07
1.22918e-07
-3.18617e-07
1.16891e-07
-3.11958e-07
1.11708e-07
-3.04942e-07
1.07201e-07
-2.97708e-07
1.03136e-07
-2.90782e-07
9.95179e-08
-2.84359e-07
9.64561e-08
9.40994e-08
-2.78444e-07
-3.15016e-07
1.32863e-07
3.20226e-07
-3.09129e-07
1.2402e-07
-3.02699e-07
1.16488e-07
-2.95813e-07
1.10005e-07
-2.88488e-07
1.04382e-07
-2.80774e-07
9.94871e-08
-2.72867e-07
9.52294e-08
-2.64941e-07
9.15918e-08
-2.57102e-07
8.86168e-08
8.63778e-08
-2.49381e-07
-2.88651e-07
1.26808e-07
2.94706e-07
-2.82361e-07
1.1773e-07
-2.7574e-07
1.09867e-07
-2.68734e-07
1.02998e-07
-2.61323e-07
9.69718e-08
-2.53528e-07
9.16923e-08
-2.45408e-07
8.71093e-08
-2.37029e-07
8.32127e-08
-2.2844e-07
8.00274e-08
7.7599e-08
-2.19661e-07
-2.6094e-07
1.2069e-07
2.67058e-07
-2.54776e-07
1.11566e-07
-2.48367e-07
1.03458e-07
-2.41594e-07
9.62242e-08
-2.34394e-07
8.97714e-08
-2.26745e-07
8.40435e-08
-2.18653e-07
7.9017e-08
-2.10135e-07
7.46952e-08
-2.01211e-07
7.11035e-08
6.82802e-08
-1.91893e-07
-2.36446e-07
1.14562e-07
2.42574e-07
-2.30394e-07
1.05514e-07
-2.24167e-07
9.72319e-08
-2.17608e-07
8.9665e-08
-2.10619e-07
8.27821e-08
-2.03147e-07
7.6571e-08
-1.95167e-07
7.10374e-08
-1.86675e-07
6.62027e-08
-1.77673e-07
6.21015e-08
5.8776e-08
-1.68169e-07
-2.17187e-07
1.08547e-07
2.23202e-07
-2.11216e-07
9.95435e-08
-2.05078e-07
9.10932e-08
-1.98624e-07
8.32113e-08
-1.91759e-07
7.5917e-08
-1.84422e-07
6.92339e-08
-1.76578e-07
6.31932e-08
-1.6821e-07
5.78342e-08
-1.59313e-07
5.32044e-08
4.93559e-08
-1.49893e-07
-2.0425e-07
1.02374e-07
2.10423e-07
-1.98101e-07
9.33943e-08
-1.91823e-07
8.48154e-08
-1.85304e-07
7.6692e-08
-1.7846e-07
6.90726e-08
-1.71229e-07
6.2003e-08
-1.63567e-07
5.55316e-08
-1.55446e-07
4.97131e-08
-1.46851e-07
4.46094e-08
4.02882e-08
-1.37784e-07
-1.9698e-07
9.55275e-08
2.03826e-07
-1.90321e-07
8.67359e-08
-1.83719e-07
7.82125e-08
-1.77063e-07
7.00365e-08
-1.70266e-07
6.22751e-08
-1.63251e-07
5.49885e-08
-1.55957e-07
4.82371e-08
-1.48332e-07
4.20881e-08
-1.40343e-07
3.66213e-08
3.19291e-08
-1.31984e-07
-1.92119e-07
8.83556e-08
1.99291e-07
-1.85283e-07
7.99e-08
-1.78681e-07
7.16099e-08
-1.72221e-07
6.35769e-08
-1.65823e-07
5.58771e-08
-1.59409e-07
4.85747e-08
-1.52901e-07
4.17296e-08
-1.46227e-07
3.54134e-08
-1.3933e-07
2.97245e-08
2.48e-08
-1.32201e-07
-1.87169e-07
8.16771e-08
1.93847e-07
-1.80844e-07
7.3576e-08
-1.74839e-07
6.56048e-08
-1.69118e-07
5.78555e-08
-1.63643e-07
5.04029e-08
-1.58365e-07
4.32965e-08
-1.53204e-07
3.65687e-08
-1.48055e-07
3.0264e-08
-1.42817e-07
2.4487e-08
1.94667e-08
-1.37484e-07
-1.81333e-07
7.60445e-08
1.86965e-07
-1.76022e-07
6.82656e-08
-1.71063e-07
6.06464e-08
-1.6649e-07
5.32829e-08
-1.62347e-07
4.62594e-08
-1.58643e-07
3.95929e-08
-1.55322e-07
3.3248e-08
-1.52217e-07
2.71581e-08
-1.49066e-07
2.13362e-08
1.62292e-08
-1.45828e-07
-1.74595e-07
7.16818e-08
1.78958e-07
-1.70525e-07
6.4196e-08
-1.66815e-07
5.69364e-08
-1.63551e-07
5.00198e-08
-1.60844e-07
4.35521e-08
-1.58868e-07
3.76168e-08
-1.57587e-07
3.19678e-08
-1.57022e-07
2.6593e-08
-1.56748e-07
2.10625e-08
1.51742e-08
-1.55693e-07
-1.67093e-07
6.86285e-08
1.70146e-07
-1.64357e-07
6.14605e-08
-1.62008e-07
5.45876e-08
-1.60108e-07
4.812e-08
-1.5874e-07
4.21844e-08
-1.57955e-07
3.68317e-08
-1.57866e-07
3.18783e-08
-1.58294e-07
2.70211e-08
-1.59e-07
2.17693e-08
1.69851e-08
-1.60811e-07
-1.5842e-07
6.67385e-08
1.6031e-07
-1.56932e-07
5.99735e-08
-1.5591e-07
5.35658e-08
-1.55386e-07
4.75959e-08
-1.55357e-07
4.21557e-08
-1.55133e-07
3.66076e-08
-1.55172e-07
3.19181e-08
-1.56707e-07
2.85556e-08
-1.59854e-07
2.49173e-08
1.949e-08
-1.62359e-07
-1.4721e-07
6.54537e-08
1.48495e-07
-1.46312e-07
5.90765e-08
-1.45836e-07
5.30897e-08
-1.45785e-07
4.75451e-08
-1.45999e-07
4.23696e-08
-1.47243e-07
3.78522e-08
-1.49483e-07
3.41579e-08
-1.51772e-07
3.08449e-08
-1.54287e-07
2.74326e-08
2.38272e-08
-1.58624e-07
-1.33907e-07
6.45246e-08
1.34836e-07
-1.33418e-07
5.85879e-08
-1.33422e-07
5.30929e-08
-1.33955e-07
4.80781e-08
-1.35196e-07
4.36109e-08
-1.37094e-07
3.97504e-08
-1.39344e-07
3.64082e-08
-1.41987e-07
3.34877e-08
-1.45333e-07
3.07794e-08
2.82846e-08
-1.49791e-07
-1.18386e-07
6.37016e-08
1.19208e-07
-1.18042e-07
5.82436e-08
-1.1823e-07
5.32808e-08
-1.19005e-07
4.88531e-08
-1.20389e-07
4.49958e-08
-1.22345e-07
4.17065e-08
-1.24902e-07
3.89652e-08
-1.28118e-07
3.67036e-08
-1.32145e-07
3.48066e-08
3.31162e-08
-1.36976e-07
-1.0086e-07
6.28127e-08
1.01749e-07
-1.00479e-07
5.78618e-08
-1.00656e-07
5.34577e-08
-1.01433e-07
4.96309e-08
-1.02836e-07
4.63985e-08
-1.04892e-07
4.37627e-08
-1.0763e-07
4.17033e-08
-1.11158e-07
4.02316e-08
-1.15649e-07
3.92977e-08
3.83379e-08
-1.2087e-07
-8.17372e-08
6.17837e-08
8.27662e-08
-8.12582e-08
5.73828e-08
-8.13862e-08
5.35858e-08
-8.21698e-08
5.04146e-08
-8.36514e-08
4.78803e-08
-8.58609e-08
4.59723e-08
-8.88418e-08
4.46843e-08
-9.25986e-08
4.39885e-08
-9.70229e-08
4.37222e-08
4.35689e-08
-1.02254e-07
-6.13875e-08
6.05872e-08
6.2584e-08
-6.07999e-08
5.67952e-08
-6.08858e-08
5.36718e-08
-6.17019e-08
5.12307e-08
-6.32925e-08
4.9471e-08
-6.57172e-08
4.83971e-08
-6.89803e-08
4.79475e-08
-7.29921e-08
4.80006e-08
-7.76776e-08
4.84078e-08
4.90054e-08
-8.31141e-08
-4.02006e-08
5.92321e-08
4.15558e-08
-3.95381e-08
5.61325e-08
-3.96409e-08
5.37746e-08
-4.05705e-08
5.21604e-08
-4.23798e-08
5.12803e-08
-4.50964e-08
5.11137e-08
-4.87127e-08
5.15638e-08
-5.31979e-08
5.24859e-08
-5.85439e-08
5.37538e-08
5.5143e-08
-6.46814e-08
-1.85615e-08
5.77509e-08
2.00427e-08
-1.78968e-08
5.54677e-08
-1.81341e-08
5.4012e-08
-1.93477e-08
5.33739e-08
-2.16059e-08
5.35384e-08
-2.49167e-08
5.44244e-08
-2.9245e-08
5.58921e-08
-3.45083e-08
5.77493e-08
-4.09322e-08
6.01776e-08
6.2484e-08
-4.82734e-08
3.16076e-09
5.61785e-08
-1.5884e-09
3.77741e-09
5.48509e-08
3.30571e-09
5.44837e-08
1.63926e-09
5.50404e-08
-1.25874e-09
5.64363e-08
-5.42152e-09
5.85871e-08
-1.08913e-08
6.1362e-08
-1.77263e-08
6.45844e-08
-2.55482e-08
6.79995e-08
7.14151e-08
-3.44793e-08
2.45689e-08
5.45677e-08
-2.29581e-08
2.50128e-08
5.4407e-08
2.41411e-08
5.53553e-08
2.18779e-08
5.73036e-08
1.81427e-08
6.01714e-08
1.28913e-08
6.38385e-08
6.13027e-09
6.81231e-08
-2.08608e-09
7.28007e-08
-1.16845e-08
7.75978e-08
8.22542e-08
-2.25236e-08
4.53096e-08
5.28976e-08
-4.36395e-08
4.55705e-08
5.41462e-08
4.43009e-08
5.66248e-08
4.14269e-08
6.01775e-08
3.6867e-08
6.47313e-08
3.05988e-08
7.01068e-08
2.25611e-08
7.6161e-08
1.27849e-08
8.25771e-08
1.40742e-09
8.89752e-08
9.49932e-08
-1.13316e-08
6.48005e-08
5.1047e-08
-6.29499e-08
6.49898e-08
5.39571e-08
6.34382e-08
5.81763e-08
6.00883e-08
6.35273e-08
5.51007e-08
6.97189e-08
4.8183e-08
7.70246e-08
3.91262e-08
8.52179e-08
2.79473e-08
9.37557e-08
1.48862e-08
1.02036e-07
1.09504e-07
3.7552e-10
8.19382e-08
4.87081e-08
-7.95993e-08
8.23646e-08
5.35302e-08
8.0568e-08
5.99727e-08
7.76975e-08
6.63977e-08
7.32484e-08
7.41682e-08
6.63607e-08
8.39124e-08
5.67074e-08
9.48712e-08
4.4319e-08
1.06144e-07
2.9628e-08
1.16727e-07
1.2571e-07
1.34217e-08
9.46025e-08
4.5636e-08
-9.15307e-08
9.56188e-08
5.25138e-08
9.57615e-08
5.983e-08
9.52785e-08
6.68807e-08
9.22372e-08
7.72096e-08
8.60183e-08
9.01314e-08
7.62706e-08
1.04619e-07
6.29281e-08
1.19487e-07
4.63509e-08
1.33304e-07
1.44011e-07
2.80497e-08
1.03787e-07
4.0199e-08
-9.83502e-08
1.09201e-07
4.71002e-08
1.1338e-07
5.56508e-08
1.14646e-07
6.56143e-08
1.13153e-07
7.87032e-08
1.08392e-07
9.48923e-08
9.94427e-08
1.13568e-07
8.58218e-08
1.33107e-07
6.62516e-08
1.52874e-07
1.66666e-07
4.3597e-08
1.07139e-07
3.25771e-08
-9.95175e-08
1.15785e-07
3.84545e-08
1.22768e-07
4.86679e-08
1.27087e-07
6.12954e-08
1.29094e-07
7.66962e-08
1.26959e-07
9.70273e-08
1.17581e-07
1.22945e-07
9.9619e-08
1.5107e-07
7.74766e-08
1.75016e-07
1.91012e-07
5.31306e-08
9.8113e-08
2.39252e-08
-8.94612e-08
1.06597e-07
2.99707e-08
1.14903e-07
4.03617e-08
1.20705e-07
5.54929e-08
1.23951e-07
7.34498e-08
1.14441e-07
1.06538e-07
9.30275e-08
1.44357e-07
5.99287e-08
1.84167e-07
4.58551e-08
1.89089e-07
1.88728e-07
4.81371e-08
6.7871e-08
1.70541e-08
-6.10001e-08
7.49892e-08
2.28527e-08
8.24651e-08
3.28857e-08
8.91447e-08
4.88134e-08
6.66504e-08
9.5944e-08
6.82372e-08
1.04947e-07
8.76207e-08
1.2496e-07
1.18397e-07
1.53384e-07
1.40786e-07
1.66717e-07
1.6716e-07
1.62368e-07
2.3246e-08
1.12677e-08
-1.74596e-08
3.22314e-08
1.38671e-08
4.52056e-08
1.99113e-08
6.68925e-08
2.71265e-08
1.33158e-07
2.96763e-08
1.69133e-07
6.8979e-08
1.78348e-07
1.1576e-07
2.00563e-07
1.31166e-07
2.3423e-07
1.33041e-07
1.30727e-07
2.70652e-07
-1.85151e-08
1.04173e-08
1.93655e-08
-1.38271e-08
9.17898e-09
-1.56992e-09
7.65384e-09
2.08289e-08
4.72668e-09
5.42335e-08
-3.74176e-09
7.96433e-08
4.35523e-08
1.30205e-07
6.52081e-08
1.96695e-07
6.46767e-08
2.68694e-07
6.10496e-08
6.00978e-08
3.3933e-07
-3.07034e-08
7.47213e-09
3.36487e-08
-2.5346e-08
3.82152e-09
-1.85481e-08
8.55885e-10
-8.93899e-09
-4.88179e-09
-2.6159e-09
-1.00605e-08
5.23157e-08
-1.13773e-08
1.21222e-07
-3.69783e-09
1.88875e-07
-2.97502e-09
2.52493e-07
-2.57102e-09
-1.10065e-09
3.13685e-07
-2.23511e-08
-6.53354e-09
3.63567e-08
-5.54946e-09
-1.29803e-08
1.49435e-08
-1.9637e-08
3.77355e-08
-2.76737e-08
6.32136e-08
-3.55383e-08
9.5454e-08
-4.36179e-08
1.42156e-07
-5.03999e-08
1.93955e-07
-5.47742e-08
2.48154e-07
-5.67696e-08
-5.66465e-08
3.037e-07
-1.32924e-08
-2.62078e-08
3.29666e-08
1.05201e-08
-3.67928e-08
3.77928e-08
-4.69094e-08
7.02768e-08
-6.01575e-08
1.06773e-07
-7.20349e-08
1.45609e-07
-8.24539e-08
1.87082e-07
-9.18729e-08
2.31585e-07
-9.92769e-08
2.7869e-07
-1.03874e-07
-1.05941e-07
3.27984e-07
-2.88279e-08
-5.12005e-08
5.38207e-08
2.41286e-09
-6.80334e-08
4.02509e-08
-8.47474e-08
8.13067e-08
-1.01213e-07
1.23931e-07
-1.14659e-07
1.70454e-07
-1.28976e-07
2.18468e-07
-1.39888e-07
2.67931e-07
-1.4874e-07
3.1964e-07
-1.55583e-07
-1.60535e-07
3.74234e-07
-5.30321e-08
-8.01386e-08
8.19704e-08
-1.71108e-08
-1.03954e-07
2.70661e-08
-1.28924e-07
7.77856e-08
-1.51933e-07
1.3597e-07
-1.72844e-07
1.94951e-07
-1.87958e-07
2.5445e-07
-1.99387e-07
3.14528e-07
-2.08818e-07
3.76161e-07
-2.17216e-07
-2.25024e-07
4.4065e-07
-8.12071e-08
-1.16827e-07
1.17896e-07
-3.33738e-08
-1.51787e-07
2.13905e-08
-1.83689e-07
8.44267e-08
-2.14969e-07
1.52036e-07
-2.40453e-07
2.26303e-07
-2.62225e-07
3.04647e-07
-2.77731e-07
3.84576e-07
-2.88748e-07
4.66558e-07
-2.99198e-07
-3.0868e-07
5.50214e-07
-1.27326e-07
-1.68625e-07
1.79124e-07
-6.51457e-08
-2.13968e-07
8.01868e-09
-2.56853e-07
8.79918e-08
-2.94942e-07
1.76304e-07
-3.28765e-07
2.68589e-07
-3.54511e-07
3.67608e-07
-3.76751e-07
4.72074e-07
-3.93213e-07
5.77629e-07
-4.04753e-07
-4.12505e-07
6.81455e-07
-1.96698e-07
-2.38103e-07
2.66176e-07
-1.135e-07
-2.97165e-07
-1.97569e-08
-3.50596e-07
8.21458e-08
-3.96844e-07
1.883e-07
-4.34919e-07
3.02709e-07
-4.6892e-07
4.20629e-07
-4.9467e-07
5.40123e-07
-5.12708e-07
6.59823e-07
-5.24452e-07
-5.29259e-07
7.76576e-07
-2.52177e-07
-3.1485e-07
3.28925e-07
-1.59505e-07
-3.89838e-07
-5.30768e-08
-4.57024e-07
6.44955e-08
-5.14416e-07
1.90186e-07
-5.6061e-07
3.18276e-07
-5.9701e-07
4.47364e-07
-6.23758e-07
5.76017e-07
-6.41361e-07
7.02011e-07
-6.50447e-07
-6.51558e-07
8.2431e-07
-3.10416e-07
-3.99139e-07
3.94705e-07
-2.05814e-07
-4.9444e-07
-8.59872e-08
-5.76851e-07
4.35807e-08
-6.43984e-07
1.78686e-07
-6.95715e-07
3.15493e-07
-7.33817e-07
4.51659e-07
-7.59924e-07
5.85751e-07
-7.75453e-07
7.166e-07
-7.81295e-07
-7.7801e-07
8.43052e-07
-3.80841e-07
-4.90515e-07
4.72217e-07
-2.61783e-07
-6.13497e-07
-1.26347e-07
-7.12287e-07
1.59657e-08
-7.86297e-07
1.59367e-07
-8.39116e-07
3.00698e-07
-8.75149e-07
4.38576e-07
-8.97802e-07
5.72376e-07
-9.09252e-07
7.01704e-07
-9.10622e-07
-9.0215e-07
8.25844e-07
-4.31607e-07
-5.85622e-07
5.26714e-07
-2.98646e-07
-7.46459e-07
-1.50794e-07
-8.60139e-07
-2.40051e-09
-9.34691e-07
1.40644e-07
-9.82161e-07
2.76864e-07
-1.01137e-06
4.06481e-07
-1.02742e-06
5.3016e-07
-1.03293e-06
6.48341e-07
-1.0288e-06
-1.01453e-06
7.60722e-07
-4.30062e-07
-6.96874e-07
5.41313e-07
-2.85173e-07
-8.91348e-07
-1.35892e-07
-1.00942e-06
4.11655e-09
-1.0747e-06
1.32575e-07
-1.11062e-06
2.50914e-07
-1.12971e-06
3.61139e-07
-1.13764e-06
4.64813e-07
-1.1366e-06
5.62757e-07
-1.12675e-06
-1.10654e-06
6.54772e-07
-3.6304e-07
-8.61629e-07
5.27797e-07
-2.11185e-07
-1.0432e-06
-7.91727e-08
-1.14143e-06
3.48311e-08
-1.1887e-06
1.35881e-07
-1.21167e-06
2.27417e-07
-1.22124e-06
3.11915e-07
-1.22214e-06
3.90863e-07
-1.21555e-06
4.64833e-07
-1.20072e-06
-1.17527e-06
5.33562e-07
-2.57992e-07
-1.10242e-06
4.98784e-07
-1.11315e-07
-1.18988e-06
-9.05843e-09
-1.24369e-06
7.20724e-08
-1.26983e-06
1.42478e-07
-1.28207e-06
2.06526e-07
-1.28529e-06
2.66074e-07
-1.28169e-06
3.21902e-07
-1.27138e-06
3.74205e-07
-1.25302e-06
-1.2241e-06
4.23031e-07
-9.37413e-08
-1.21636e-06
2.07682e-07
-5.57359e-09
-1.27805e-06
5.63292e-08
-1.30559e-06
1.05641e-07
-1.31915e-06
1.49098e-07
-1.32553e-06
1.89775e-07
-1.32597e-06
2.28511e-07
-1.32043e-06
2.65292e-07
-1.30816e-06
3.00026e-07
-1.28776e-06
-1.25717e-06
3.33098e-07
5.10352e-08
-1.25116e-06
-1.62455e-08
8.40171e-08
-1.31102e-06
1.10986e-07
-1.33256e-06
1.34253e-07
-1.34241e-06
1.56625e-07
-1.3479e-06
1.79268e-07
-1.34861e-06
2.0192e-07
-1.34308e-06
2.23845e-07
-1.33009e-06
2.44522e-07
-1.30843e-06
-1.27694e-06
2.64292e-07
1.42273e-07
-1.26031e-06
-1.33126e-07
1.48946e-07
-1.3177e-06
1.52872e-07
-1.33649e-06
1.57853e-07
-1.34739e-06
1.65491e-07
-1.35554e-06
1.75596e-07
-1.35872e-06
1.86987e-07
-1.35447e-06
1.9838e-07
-1.34148e-06
2.08905e-07
-1.31896e-06
-1.2866e-06
2.18564e-07
2.05757e-07
-1.24886e-06
-2.17208e-07
1.94789e-07
-1.30673e-06
1.8453e-07
-1.32623e-06
1.78178e-07
-1.34104e-06
1.7681e-07
-1.35417e-06
1.79359e-07
-1.36127e-06
1.83961e-07
-1.35907e-06
1.88939e-07
-1.34646e-06
1.93089e-07
-1.32311e-06
-1.28939e-06
1.95878e-07
2.6011e-07
-1.21155e-06
-2.97421e-07
2.32336e-07
-1.27895e-06
2.11452e-07
-1.30535e-06
1.98129e-07
-1.32772e-06
1.91988e-07
-1.34803e-06
1.90955e-07
-1.36023e-06
1.92734e-07
-1.36085e-06
1.95629e-07
-1.34935e-06
1.9845e-07
-1.32593e-06
-1.29116e-06
2.0022e-07
3.11086e-07
-1.12987e-06
-3.92768e-07
2.63448e-07
-1.23131e-06
2.34524e-07
-1.27642e-06
2.17618e-07
-1.31081e-06
2.09641e-07
-1.34006e-06
2.0736e-07
-1.35795e-06
2.08348e-07
-1.36184e-06
2.11283e-07
-1.35229e-06
2.15495e-07
-1.33014e-06
-1.29601e-06
2.2034e-07
3.45977e-07
-9.57648e-07
-5.18197e-07
2.81885e-07
-1.16722e-06
2.50465e-07
-1.245e-06
2.34088e-07
-1.29443e-06
2.26689e-07
-1.33266e-06
2.24348e-07
-1.35561e-06
2.24885e-07
-1.36238e-06
2.27582e-07
-1.35498e-06
2.32604e-07
-1.33517e-06
-1.30407e-06
2.40664e-07
3.33476e-07
-8.4873e-07
-4.42397e-07
2.78828e-07
-1.11257e-06
2.55678e-07
-1.22185e-06
2.45436e-07
-1.28419e-06
2.41331e-07
-1.32855e-06
2.40094e-07
-1.35437e-06
2.40383e-07
-1.36267e-06
2.42195e-07
-1.3568e-06
2.4638e-07
-1.33935e-06
-1.31229e-06
2.546e-07
2.78702e-07
-7.77982e-07
-3.49443e-07
2.66901e-07
-1.10077e-06
2.61903e-07
-1.21685e-06
2.5967e-07
-1.28196e-06
2.58328e-07
-1.32721e-06
2.57453e-07
-1.3535e-06
2.57099e-07
-1.36231e-06
2.57989e-07
-1.35768e-06
2.61318e-07
-1.34268e-06
-1.3195e-06
2.68528e-07
3.1318e-07
-7.5709e-07
-3.34073e-07
3.05552e-07
-1.09314e-06
2.96547e-07
-1.20785e-06
2.88059e-07
-1.27347e-06
2.81095e-07
-1.32025e-06
2.75955e-07
-1.34836e-06
2.72581e-07
-1.35894e-06
2.71636e-07
-1.35674e-06
2.74306e-07
-1.34535e-06
-1.32696e-06
2.81771e-07
3.40969e-07
-8.22622e-07
-2.75437e-07
3.38365e-07
-1.09054e-06
3.20978e-07
-1.19046e-06
3.04403e-07
-1.2569e-06
2.91424e-07
-1.30727e-06
2.81766e-07
-1.3387e-06
2.74758e-07
-1.35193e-06
2.70835e-07
-1.35282e-06
2.71112e-07
-1.34563e-06
-1.33292e-06
2.77074e-07
3.24877e-07
-8.93488e-07
-2.54009e-07
3.17763e-07
-1.08342e-06
3.01001e-07
-1.1737e-06
2.86389e-07
-1.24228e-06
2.74785e-07
-1.29566e-06
2.64964e-07
-1.32888e-06
2.56476e-07
-1.34344e-06
2.50126e-07
-1.34647e-06
2.46854e-07
-1.34236e-06
-1.3332e-06
2.47132e-07
2.38793e-07
-9.33308e-07
-1.98975e-07
2.43195e-07
-1.08783e-06
2.41993e-07
-1.1725e-06
2.39618e-07
-1.23991e-06
2.35535e-07
-1.29158e-06
2.29018e-07
-1.32236e-06
2.21191e-07
-1.33562e-06
2.13866e-07
-1.33914e-06
2.08122e-07
-1.33661e-06
-1.32914e-06
2.04058e-07
1.4269e-07
-9.81687e-07
-9.43103e-08
1.6442e-07
-1.10956e-06
1.78968e-07
-1.18704e-06
1.87049e-07
-1.24799e-06
1.88675e-07
-1.29321e-06
1.84506e-07
-1.3182e-06
1.772e-07
-1.32831e-06
1.69189e-07
-1.33113e-06
1.61737e-07
-1.32916e-06
-1.32261e-06
1.55214e-07
7.52343e-08
-1.03051e-06
-2.64067e-08
1.05827e-07
-1.14015e-06
1.27138e-07
-1.20836e-06
1.394e-07
-1.26025e-06
1.4299e-07
-1.2968e-06
1.39507e-07
-1.31471e-06
1.32289e-07
-1.32109e-06
1.23747e-07
-1.32259e-06
1.15227e-07
-1.32064e-06
-1.31488e-06
1.07491e-07
3.14214e-08
-1.07886e-06
1.69236e-08
6.46156e-08
-1.17334e-06
8.70617e-08
-1.2308e-06
9.97632e-08
-1.27295e-06
1.02985e-07
-1.30002e-06
9.92541e-08
-1.31098e-06
9.18721e-08
-1.31371e-06
8.28188e-08
-1.31354e-06
7.34318e-08
-1.31125e-06
-1.30622e-06
6.4779e-08
1.02136e-08
-1.12225e-06
3.31735e-08
4.06906e-08
-1.20382e-06
6.01781e-08
-1.25029e-06
7.07554e-08
-1.28353e-06
7.17937e-08
-1.30106e-06
6.70848e-08
-1.30627e-06
5.92165e-08
-1.30584e-06
4.94549e-08
-1.30377e-06
3.9047e-08
-1.30084e-06
-1.29643e-06
2.92548e-08
1.00571e-08
-1.1711e-06
3.87914e-08
3.43344e-08
-1.2281e-06
4.73685e-08
-1.26332e-06
5.32626e-08
-1.28942e-06
5.02784e-08
-1.29807e-06
4.38539e-08
-1.29985e-06
3.52356e-08
-1.29722e-06
2.46048e-08
-1.29314e-06
1.29992e-08
-1.28924e-06
-1.2853e-06
1.86566e-09
3.44121e-08
-1.19109e-06
-1.44124e-08
3.96155e-08
-1.2333e-06
4.27941e-08
-1.2665e-06
4.25677e-08
-1.2892e-06
3.5384e-08
-1.29089e-06
2.74409e-08
-1.29191e-06
1.8528e-08
-1.28831e-06
7.28025e-09
-1.2819e-06
-5.63737e-09
-1.27632e-06
-1.2723e-06
-1.86358e-08
3.12212e-08
-1.20623e-06
-1.60814e-08
3.15714e-08
-1.23365e-06
3.52829e-08
-1.27022e-06
3.31426e-08
-1.28706e-06
2.43874e-08
-1.28213e-06
1.579e-08
-1.28331e-06
7.57511e-09
-1.2801e-06
-3.49647e-09
-1.27082e-06
-1.75586e-08
-1.26226e-06
-1.25736e-06
-3.24943e-08
3.65293e-08
-1.19447e-06
-4.8291e-08
3.03806e-08
-1.2275e-06
3.44828e-08
-1.27432e-06
2.85431e-08
-1.28112e-06
1.82097e-08
-1.2718e-06
8.40739e-09
-1.27351e-06
1.28274e-09
-1.27297e-06
-8.31583e-09
-1.26123e-06
-2.32248e-08
-1.24735e-06
-1.23994e-06
-4.06494e-08
3.77462e-08
-1.16226e-06
-6.99613e-08
3.14481e-08
-1.2212e-06
3.57399e-08
-1.27861e-06
2.58464e-08
-1.27122e-06
1.48283e-08
-1.26078e-06
3.89648e-09
-1.26257e-06
-2.46709e-09
-1.26661e-06
-8.25195e-09
-1.25544e-06
-2.29655e-08
-1.23264e-06
-1.21818e-06
-4.47226e-08
2.81988e-08
-1.11383e-06
-7.66233e-08
3.25321e-08
-1.22554e-06
3.63261e-08
-1.2824e-06
2.35951e-08
-1.25849e-06
1.20257e-08
-1.24921e-06
6.32818e-11
-1.25061e-06
-7.41696e-09
-1.25913e-06
-5.65709e-09
-1.2572e-06
-1.43395e-08
-1.22395e-06
-1.18622e-06
-4.6303e-08
9.17194e-09
-1.04658e-06
-7.64205e-08
3.5521e-08
-1.25188e-06
3.5566e-08
-1.28245e-06
2.1309e-08
-1.24424e-06
9.59382e-09
-1.2375e-06
-2.54288e-09
-1.23847e-06
-1.52659e-08
-1.24641e-06
-7.52029e-09
-1.26495e-06
6.65902e-09
-1.23813e-06
-1.12927e-06
-5.02908e-08
-8.28781e-09
-9.66757e-08
3.73964e-08
2.89016e-08
1.71494e-08
8.70945e-09
6.20817e-11