/*--------------------------------*- C++ -*----------------------------------*\
  =========                 |
  \\      /  F ield         | OpenFOAM: The Open Source CFD Toolbox
   \\    /   O peration     | Website:  https://openfoam.org
    \\  /    A nd           | Version:  8
     \\/     M anipulation  |
\*---------------------------------------------------------------------------*/
FoamFile
{
    version     2.0;
    format      ascii;
    class       surfaceScalarField;
    location    "1.8";
    object      phi;
}
// * * * * * * * * * * * * * * * * * * * * * * * * * * * * * * * * * * * * * //

dimensions      [0 3 -1 0 0 0 0];

internalField   nonuniform List<scalar> 
18095
(
1.96143e-08
-1.72e-07
1.52386e-07
2.31198e-08
-1.9811e-07
1.94604e-07
1.96682e-08
-2.05886e-07
2.09337e-07
1.0296e-08
-2.10522e-07
2.19894e-07
-4.23914e-10
-2.13445e-07
2.24165e-07
-1.12493e-08
-2.13394e-07
2.24219e-07
-2.00761e-08
-2.10616e-07
2.19443e-07
-2.31546e-08
-2.05936e-07
2.09015e-07
-1.96046e-08
-1.98123e-07
1.94573e-07
-1.71968e-07
1.52363e-07
1.55302e-08
-1.8753e-07
1.57533e-08
-1.98333e-07
1.21366e-08
-2.02269e-07
6.6358e-09
-2.05021e-07
1.0102e-11
-2.06819e-07
-6.48572e-09
-2.06898e-07
-1.19566e-08
-2.05146e-07
-1.5764e-08
-2.02129e-07
-1.55448e-08
-1.98343e-07
-1.87513e-07
6.84012e-09
-1.9437e-07
8.31887e-09
-1.99812e-07
7.0968e-09
-2.01047e-07
4.15057e-09
-2.02075e-07
1.06344e-10
-2.02775e-07
-4.04696e-09
-2.02745e-07
-7.19135e-09
-2.02001e-07
-8.30356e-09
-2.01017e-07
-6.84935e-09
-1.99797e-07
-1.94362e-07
4.5462e-09
-1.98916e-07
4.68136e-09
-1.99947e-07
3.58898e-09
-1.99954e-07
1.94969e-09
-2.00435e-07
-3.74103e-11
-2.00788e-07
-2.03117e-09
-2.00751e-07
-3.62707e-09
-2.00405e-07
-4.70309e-09
-1.9994e-07
-4.55327e-09
-1.99947e-07
-1.98915e-07
1.08351e-09
1.13653e-09
1.18217e-09
7.46748e-10
-4.12708e-11
-7.92404e-10
-1.19764e-09
-1.13814e-09
-1.08487e-09
-2.65143e-08
-1.96784e-07
2.23298e-07
-2.91751e-08
-1.98811e-07
2.01472e-07
-2.49274e-08
-2.01067e-07
1.9682e-07
-1.45785e-08
-2.01012e-07
1.90663e-07
-1.08689e-09
-2.01806e-07
1.88315e-07
1.25812e-08
-2.01879e-07
1.88211e-07
2.38279e-08
-2.01141e-07
1.89894e-07
2.89287e-08
-2.01517e-07
1.96416e-07
2.66001e-08
-1.98995e-07
2.01323e-07
-1.96989e-07
2.23589e-07
-9.89672e-09
-1.86887e-07
-1.56125e-08
-1.93095e-07
-1.45109e-08
-2.02169e-07
-7.99839e-09
-2.07524e-07
-1.57245e-09
-2.08232e-07
5.46174e-09
-2.08913e-07
1.36797e-08
-2.09359e-07
1.52078e-08
-2.03045e-07
9.78341e-09
-1.9357e-07
-1.87205e-07
-1.07155e-08
-1.76172e-07
-8.44292e-09
-1.95368e-07
-5.38492e-09
-2.05227e-07
-2.36329e-09
-2.10546e-07
2.18473e-09
-2.1278e-07
6.27011e-09
-2.12998e-07
7.20397e-09
-2.10292e-07
9.08262e-09
-2.04924e-07
1.09209e-08
-1.95408e-07
-1.76284e-07
-6.70427e-09
-1.69467e-07
-8.80359e-09
-1.93269e-07
-8.62841e-09
-2.05402e-07
-4.00081e-09
-2.15174e-07
-1.11921e-10
-2.16669e-07
3.56721e-09
-2.16677e-07
8.16433e-09
-2.1489e-07
8.71104e-09
-2.0547e-07
6.72348e-09
-1.93421e-07
-1.69561e-07
-1.70816e-08
-1.57459e-08
-1.18109e-08
-7.09042e-09
4.05271e-10
7.94731e-09
1.2501e-08
1.60452e-08
1.71977e-08
3.5805e-08
-1.56043e-07
1.20238e-07
4.1385e-08
-1.97984e-07
1.92404e-07
3.45396e-08
-2.10157e-07
2.17002e-07
2.27963e-08
-2.15646e-07
2.27389e-07
6.88043e-09
-2.17281e-07
2.33197e-07
-1.02608e-08
-2.17492e-07
2.34633e-07
-2.49228e-08
-2.15531e-07
2.30193e-07
-3.32812e-08
-2.10983e-07
2.19341e-07
-2.92534e-08
-1.99773e-07
1.95745e-07
-1.59111e-07
1.29858e-07
1.75923e-08
-1.73635e-07
2.03998e-08
-2.00791e-07
1.67449e-08
-2.06502e-07
9.21634e-09
-2.08117e-07
-5.38103e-11
-2.08011e-07
-8.7963e-09
-2.08749e-07
-1.50443e-08
-2.09283e-07
-1.82423e-08
-2.07785e-07
-1.58925e-08
-2.02123e-07
-1.75003e-07
1.03843e-08
-1.8402e-07
1.03669e-08
-2.00774e-07
9.39953e-09
-2.05535e-07
6.38025e-09
-2.05098e-07
3.03006e-09
-2.04661e-07
-1.00871e-09
-2.0471e-07
-6.46994e-09
-2.03822e-07
-8.67878e-09
-2.05576e-07
-9.58771e-09
-2.01214e-07
-1.84591e-07
7.60864e-09
-1.91628e-07
6.35032e-09
-1.99515e-07
6.67289e-09
-2.05857e-07
1.42369e-09
-1.99849e-07
-3.28183e-10
-2.02909e-07
-2.05256e-09
-2.02986e-07
-6.24086e-09
-1.99634e-07
-5.77303e-09
-2.06044e-07
-7.36631e-09
-1.99621e-07
-1.91957e-07
3.16699e-08
3.36266e-08
2.4589e-08
1.54034e-08
8.09357e-10
-1.39662e-08
-2.3706e-08
-3.33338e-08
-3.16312e-08
2.98042e-07
-1.37021e-07
-1.61022e-07
4.61118e-07
-1.63076e-07
5.99847e-07
-1.38729e-07
6.91623e-07
-9.1775e-08
7.28684e-07
-3.70615e-08
7.43829e-07
-1.5145e-08
7.79838e-07
-3.60092e-08
8.72226e-07
-9.23873e-08
9.86411e-07
-1.14185e-07
-8.85669e-08
1.07498e-06
1.99134e-08
-2.36002e-07
7.9068e-08
1.44876e-07
-2.88039e-07
2.41438e-07
-2.35292e-07
3.47761e-07
-1.98097e-07
4.53771e-07
-1.43072e-07
5.68416e-07
-1.2979e-07
6.985e-07
-1.66094e-07
8.28173e-07
-2.2206e-07
9.18096e-07
-2.04108e-07
-1.65237e-07
9.94766e-07
-6.42248e-07
-3.56168e-07
7.62414e-07
-6.057e-07
-3.24587e-07
-5.27401e-07
-3.13591e-07
-4.31618e-07
-2.93879e-07
-2.94231e-07
-2.80459e-07
-1.38804e-07
-2.85217e-07
-8.31303e-09
-2.96585e-07
7.24309e-08
-3.02805e-07
1.38111e-07
-2.69788e-07
-2.5604e-07
2.28915e-07
-7.15429e-07
-4.24207e-07
7.83468e-07
-5.96905e-07
-4.43111e-07
-5.17497e-07
-3.92999e-07
-4.82517e-07
-3.28859e-07
-4.4373e-07
-3.19245e-07
-4.0325e-07
-3.25697e-07
-3.62173e-07
-3.37661e-07
-3.1921e-07
-3.45768e-07
-2.53255e-07
-3.35743e-07
-3.22367e-07
-1.86928e-07
-6.76882e-07
-4.55021e-07
7.07696e-07
-6.32469e-07
-4.87524e-07
-5.54838e-07
-4.7063e-07
-5.09381e-07
-3.74317e-07
-4.81381e-07
-3.47245e-07
-4.575e-07
-3.49577e-07
-4.33621e-07
-3.6154e-07
-4.0017e-07
-3.79219e-07
-3.46917e-07
-3.88996e-07
-3.7671e-07
-2.92574e-07
-8.41784e-07
-5.62271e-07
9.49035e-07
-7.56182e-07
-5.73125e-07
-6.79513e-07
-5.47299e-07
-5.95586e-07
-4.58244e-07
-5.16182e-07
-4.26649e-07
-4.39961e-07
-4.25798e-07
-3.97613e-07
-4.03888e-07
-3.68367e-07
-4.08466e-07
-3.32312e-07
-4.25051e-07
-4.35735e-07
-2.73287e-07
-1.14563e-06
-6.07737e-07
1.1911e-06
-1.07959e-06
-6.39172e-07
-9.79858e-07
-6.47027e-07
-7.90923e-07
-6.47179e-07
-5.76057e-07
-6.41515e-07
-3.7491e-07
-6.26945e-07
-2.6591e-07
-5.12888e-07
-2.0565e-07
-4.68726e-07
-1.95241e-07
-4.3546e-07
-4.43138e-07
-1.87837e-07
-1.20482e-06
-6.04248e-07
1.20133e-06
-1.19328e-06
-6.5071e-07
-1.12042e-06
-7.19888e-07
-9.51535e-07
-8.16067e-07
-6.67659e-07
-9.25392e-07
-3.71623e-07
-9.22981e-07
-1.04514e-07
-7.79998e-07
4.29855e-08
-6.16225e-07
8.84036e-08
-4.80877e-07
-4.70276e-07
1.15541e-07
-9.15699e-07
-6.30449e-07
9.41899e-07
-9.11264e-07
-6.55145e-07
-8.77025e-07
-7.54127e-07
-8.2067e-07
-8.72421e-07
-7.05261e-07
-1.0408e-06
-5.09476e-07
-1.11877e-06
-2.37773e-07
-1.0517e-06
-2.54533e-08
-8.28544e-07
9.40894e-08
-6.0042e-07
-5.73629e-07
1.97442e-07
-6.35957e-07
-6.26783e-07
6.32291e-07
-6.23226e-07
-6.67877e-07
-6.50617e-07
-7.26736e-07
-6.62644e-07
-8.60394e-07
-6.50919e-07
-1.05253e-06
-5.88656e-07
-1.18103e-06
-4.45432e-07
-1.19492e-06
-2.79329e-07
-9.94647e-07
-1.33736e-07
-7.46013e-07
-7.02156e-07
-5.20904e-09
-4.19207e-07
-5.31422e-07
3.23847e-07
-4.80853e-07
-6.06231e-07
-5.11224e-07
-6.96364e-07
-5.58624e-07
-8.12995e-07
-5.98233e-07
-1.01292e-06
-5.91412e-07
-1.18785e-06
-5.44321e-07
-1.24201e-06
-3.79507e-07
-1.15946e-06
-2.29105e-07
-8.96416e-07
-7.78281e-07
-1.5298e-07
-1.52059e-07
-4.51922e-07
7.25587e-08
-2.57003e-07
-5.01287e-07
-3.44541e-07
-6.08826e-07
-4.11632e-07
-7.45903e-07
-5.20261e-07
-9.04288e-07
-5.92272e-07
-1.11584e-06
-5.97259e-07
-1.23703e-06
-5.13575e-07
-1.24314e-06
-3.0041e-07
-1.10958e-06
-9.09319e-07
-1.69372e-07
6.14236e-08
-4.51636e-07
-6.17096e-08
2.04906e-08
-4.60353e-07
-6.21791e-08
-5.26156e-07
-1.6684e-07
-6.41243e-07
-3.00046e-07
-7.71082e-07
-4.84319e-07
-9.31565e-07
-5.6307e-07
-1.15828e-06
-5.31199e-07
-1.27502e-06
-3.57254e-07
-1.28352e-06
-1.06922e-06
-1.97349e-07
1.64787e-07
-4.47326e-07
-1.69098e-07
1.60805e-07
-4.56371e-07
1.31245e-07
-4.96597e-07
6.09557e-08
-5.70953e-07
-4.75686e-08
-6.62558e-07
-2.15624e-07
-7.6351e-07
-3.98563e-07
-9.75337e-07
-4.44541e-07
-1.22904e-06
-4.55077e-07
-1.27299e-06
-1.20041e-06
-3.2389e-07
2.42442e-07
-3.77881e-07
-3.11887e-07
2.10212e-07
-4.24141e-07
1.88438e-07
-4.74822e-07
1.39138e-07
-5.21654e-07
5.66501e-08
-5.8007e-07
-3.86472e-08
-6.68213e-07
-2.23462e-07
-7.90522e-07
-3.74286e-07
-1.07821e-06
-3.84388e-07
-1.26289e-06
-1.24714e-06
-3.37657e-07
3.92545e-07
-2.59273e-07
-5.11154e-07
3.05236e-07
-3.36832e-07
2.58758e-07
-4.28344e-07
2.09392e-07
-4.72288e-07
1.11428e-07
-4.82106e-07
2.33134e-08
-5.80099e-07
-7.63225e-08
-6.90886e-07
-2.59995e-07
-8.94542e-07
-3.50881e-07
-1.172e-06
-1.19452e-06
-4.03505e-07
5.93652e-07
-2.10833e-07
-6.42091e-07
5.07663e-07
-2.50844e-07
4.40752e-07
-3.61432e-07
3.6706e-07
-3.98596e-07
2.70816e-07
-3.85862e-07
1.49457e-07
-4.58739e-07
5.88067e-08
-6.00236e-07
-6.20316e-08
-7.73704e-07
-1.02913e-07
-1.13112e-06
-1.18384e-06
-1.1359e-07
6.19987e-07
-2.24845e-07
-6.05975e-07
6.39017e-07
-2.69873e-07
6.2918e-07
-3.51596e-07
5.6375e-07
-3.33166e-07
4.6383e-07
-2.85942e-07
3.481e-07
-3.43009e-07
2.33041e-07
-4.85177e-07
1.37506e-07
-6.78168e-07
1.19586e-07
-1.1132e-06
-1.18417e-06
1.19913e-07
5.80101e-07
-2.3283e-07
-5.72115e-07
6.23436e-07
-3.13209e-07
6.08124e-07
-3.36283e-07
4.66008e-07
-1.91051e-07
3.68695e-07
-1.88629e-07
3.0792e-07
-2.82235e-07
2.20755e-07
-3.98013e-07
1.7858e-07
-6.35993e-07
1.93161e-07
-1.12778e-06
-1.21402e-06
2.23009e-07
4.17881e-07
-1.75842e-07
-4.7487e-07
2.86529e-07
-1.81855e-07
1.14827e-07
-1.64582e-07
4.41516e-08
-1.20375e-07
1.07236e-07
-2.51712e-07
1.35076e-07
-3.10075e-07
1.20439e-07
-3.83376e-07
1.65035e-07
-6.80589e-07
2.16109e-07
-1.17885e-06
-1.25196e-06
2.54051e-07
4.01423e-07
-1.30719e-07
-4.46545e-07
2.76134e-07
-5.6566e-08
1.34221e-07
-2.26683e-08
1.15597e-07
-1.01751e-07
1.25585e-07
-2.61699e-07
9.71388e-08
-2.81629e-07
6.35412e-08
-3.49778e-07
1.45007e-07
-7.62055e-07
1.73243e-07
-1.20709e-06
-1.26834e-06
1.89622e-07
5.83615e-07
-1.61418e-07
-5.52917e-07
5.08715e-07
1.83336e-08
3.55418e-07
1.3063e-07
3.10611e-07
-5.69434e-08
2.33278e-07
-1.84366e-07
1.4828e-07
-1.96631e-07
8.8512e-08
-2.9001e-07
1.38312e-07
-8.11854e-07
1.60776e-07
-1.22955e-06
-1.27788e-06
1.70319e-07
7.52405e-07
-1.71286e-07
-7.42536e-07
6.75884e-07
9.4856e-08
5.79382e-07
2.27133e-07
5.37668e-07
-1.52304e-08
4.04224e-07
-5.09216e-08
2.80434e-07
-7.2841e-08
1.92787e-07
-2.02363e-07
1.99559e-07
-8.18626e-07
2.31092e-07
-1.26109e-06
-1.29809e-06
2.51299e-07
5.23173e-07
-2.13491e-08
-6.7311e-07
5.93654e-07
2.4375e-08
7.79662e-07
4.11246e-08
6.46979e-07
1.17452e-07
4.93235e-07
1.02823e-07
3.78881e-07
4.15125e-08
3.57598e-07
-1.8108e-07
4.63346e-07
-9.24375e-07
5.26455e-07
-1.3242e-06
-1.30363e-06
5.31997e-07
9.23044e-07
-5.04479e-08
-8.93945e-07
9.26169e-07
2.12499e-08
6.47894e-07
3.19399e-07
3.64607e-07
4.0074e-07
2.3753e-07
2.29899e-07
1.8312e-07
9.59222e-08
4.84005e-07
-4.81965e-07
7.59543e-07
-1.19991e-06
8.3945e-07
-1.4041e-06
-1.34636e-06
8.82176e-07
6.75832e-07
6.08576e-08
-7.87137e-07
3.31174e-07
3.65908e-07
-1.81507e-07
8.3208e-07
-5.47357e-07
7.6659e-07
-4.28278e-07
1.1082e-07
6.02925e-09
-3.38385e-07
6.13048e-07
-1.08898e-06
8.35001e-07
-1.42186e-06
9.21547e-07
-1.49065e-06
-1.41137e-06
9.86565e-07
-5.81296e-07
4.72096e-07
1.70058e-07
-9.9493e-07
7.79542e-07
-1.12258e-06
9.59732e-07
-8.65593e-07
5.09602e-07
-4.28439e-07
-3.26335e-07
2.80346e-07
-1.04717e-06
6.03306e-07
-1.41194e-06
6.76234e-07
-1.49479e-06
6.41405e-07
-1.45582e-06
-1.20647e-06
4.36507e-07
-1.00208e-06
5.51018e-07
9.23157e-07
-9.22609e-07
7.00073e-07
-6.71783e-07
7.08906e-07
-1.76938e-07
1.47563e-08
8.87104e-08
-5.91983e-07
3.3236e-07
-1.29082e-06
4.34723e-07
-1.51431e-06
3.69582e-07
-1.42965e-06
6.71603e-08
-1.1534e-06
-9.75676e-07
-1.63639e-07
-7.32681e-07
5.09193e-07
7.74506e-07
-5.10537e-07
4.77929e-07
-8.64089e-08
2.84778e-07
1.23194e-07
-1.94847e-07
2.56165e-07
-7.24954e-07
2.8357e-07
-1.31822e-06
2.69115e-07
-1.49985e-06
1.13035e-07
-1.27357e-06
-2.2182e-07
-8.18545e-07
-7.35183e-07
-4.62314e-07
-2.1979e-07
3.53049e-07
3.75935e-07
6.83899e-08
1.89749e-07
3.45439e-07
7.72789e-09
3.41019e-07
-1.90428e-07
3.7909e-07
-7.63025e-07
3.90349e-07
-1.32948e-06
3.94869e-07
-1.50437e-06
3.96866e-07
-1.27557e-06
2.00753e-07
-6.22434e-07
-5.18974e-07
-1.54525e-08
6.95382e-08
2.73821e-07
9.68886e-09
1.3272e-07
1.26568e-07
2.02698e-07
-6.22496e-08
1.59743e-07
-1.47472e-07
3.65804e-07
-9.69085e-07
4.0625e-07
-1.36993e-06
4.20291e-07
-1.51842e-06
4.1926e-07
-1.27453e-06
2.86554e-07
-4.89728e-07
-4.38557e-07
2.06136e-07
1.25724e-07
1.57153e-07
-9.05499e-09
1.13963e-07
1.38327e-07
2.4606e-08
2.7106e-08
-5.62497e-08
-6.66173e-08
2.75234e-07
-1.30057e-06
3.71155e-07
-1.46585e-06
3.65947e-07
-1.51321e-06
2.61833e-07
-1.17042e-06
1.04996e-07
-3.32891e-07
-3.35505e-07
1.94475e-09
3.84984e-07
1.81036e-07
-4.08867e-07
2.26254e-07
2.97056e-07
5.77932e-08
1.95568e-07
2.04468e-08
-2.9268e-08
1.32398e-07
-1.41252e-06
2.00675e-07
-1.53413e-06
2.35069e-07
-1.5476e-06
-1.28046e-07
-8.07306e-07
-2.0587e-07
-2.55067e-07
-2.99847e-07
-2.41527e-07
4.42869e-07
1.22637e-07
-3.84469e-07
5.26177e-07
2.13747e-07
2.64553e-07
4.57191e-07
3.0941e-08
2.04345e-07
5.55104e-08
-1.43709e-06
7.15603e-08
-1.55018e-06
8.34084e-08
-1.55945e-06
-3.19742e-07
-4.04157e-07
-3.31241e-07
-2.43567e-07
-3.09977e-07
-3.21111e-07
2.0076e-07
1.55167e-07
-2.3329e-07
8.22629e-08
3.32244e-07
1.36425e-08
5.25813e-07
5.44374e-08
1.63548e-07
6.84912e-08
-1.45115e-06
5.36079e-08
-1.53529e-06
4.40452e-08
-1.54989e-06
-1.21536e-07
-2.38576e-07
-2.13145e-07
-1.51958e-07
-2.79826e-07
-2.43298e-07
-3.85749e-07
2.44836e-07
2.9608e-07
-2.9327e-07
2.39766e-07
-2.02339e-08
2.52777e-07
1.31554e-07
1.17597e-08
1.5824e-07
-1.47783e-06
1.81995e-07
-1.55905e-06
1.80372e-07
-1.54826e-06
3.36382e-07
-3.94585e-07
3.88273e-07
-2.0385e-07
-2.63652e-07
3.72099e-07
-7.67986e-07
2.14415e-07
7.98406e-07
-7.44509e-07
2.1629e-07
-5.54087e-07
6.23551e-08
5.34228e-08
-5.9575e-07
1.06069e-07
-1.53048e-06
1.13504e-07
-1.56648e-06
8.55096e-08
-1.52027e-06
3.93538e-07
-7.02616e-07
6.27514e-07
-4.37832e-07
-3.58791e-07
7.2265e-07
-4.72818e-07
2.53045e-07
4.34187e-07
-4.93914e-07
2.37387e-07
-5.30948e-07
9.9389e-08
2.99788e-08
-1.15668e-06
1.82532e-08
-1.51875e-06
-1.34193e-08
-1.53481e-06
-2.13039e-08
-1.51238e-06
1.24217e-07
-8.4814e-07
2.62552e-07
-5.76169e-07
-4.80303e-07
3.84062e-07
-8.64922e-08
1.52776e-07
1.86762e-07
-1.56038e-08
1.66498e-07
-1.48711e-07
2.32497e-07
-2.64411e-08
-1.27895e-06
4.56421e-09
-1.54976e-06
1.6566e-08
-1.54681e-06
1.131e-08
-1.50713e-06
1.41882e-08
-8.51019e-07
3.44957e-08
-5.96476e-07
-4.92366e-07
4.65566e-08
-5.12421e-08
1.9378e-08
1.8464e-07
6.44198e-09
1.08814e-07
-1.07411e-07
3.4635e-07
3.61178e-08
-1.42248e-06
1.24845e-08
-1.52612e-06
-1.0932e-08
-1.5234e-06
-1.9614e-08
-1.49845e-06
-6.82977e-08
-8.02334e-07
-7.52671e-08
-5.89513e-07
-4.53667e-07
-1.13965e-07
-3.6307e-07
-8.22943e-08
4.64743e-07
-2.84389e-07
3.01339e-08
-4.58521e-08
1.07814e-07
1.65219e-08
-1.48485e-06
4.18921e-09
-1.51379e-06
-4.78401e-09
-1.51442e-06
-1.70782e-08
-1.48615e-06
-1.12401e-07
-7.07014e-07
-2.1138e-07
-4.90534e-07
-4.19224e-07
-2.45826e-07
-2.95337e-07
-1.64975e-07
3.78018e-07
-1.93792e-07
-7.14128e-08
2.8857e-08
-1.14835e-07
2.33159e-08
-1.47931e-06
1.20895e-08
-1.50256e-06
4.43732e-09
-1.50677e-06
-9.14413e-09
-1.47257e-06
-8.19185e-08
-6.34241e-07
-2.13801e-07
-3.58649e-07
-3.77583e-07
-2.55442e-07
-1.59132e-07
-1.8019e-07
1.74346e-07
-1.41206e-07
-8.93365e-08
1.19592e-08
-2.68001e-07
1.75026e-08
-1.48485e-06
4.83385e-09
-1.4899e-06
-1.01114e-08
-1.49183e-06
-3.28223e-08
-1.44986e-06
-5.62619e-08
-6.10806e-07
-1.61724e-07
-2.53188e-07
-3.20188e-07
-2.19122e-07
-3.47381e-07
-1.24104e-07
2.91297e-07
-2.47597e-07
-1.89124e-07
7.54886e-08
-5.91092e-07
5.33566e-09
-1.4147e-06
-8.25706e-09
-1.4763e-06
-2.87889e-08
-1.47129e-06
-5.12845e-08
-1.42736e-06
-4.72341e-08
-6.14855e-07
-9.04188e-08
-2.10005e-07
-2.39939e-07
-1.70666e-07
-4.31963e-08
-1.51814e-07
7.09091e-08
5.05009e-10
-2.32822e-07
5.98857e-08
-6.50476e-07
2.26744e-08
-1.37749e-06
1.02703e-09
-1.45466e-06
-1.26359e-08
-1.45763e-06
-4.51043e-08
-1.3949e-06
-4.51462e-08
-6.14815e-07
-5.62487e-08
-1.98899e-07
-1.88805e-07
-1.07385e-07
-2.86968e-08
-1.78284e-07
5.51652e-08
3.0309e-08
-2.91828e-07
3.6652e-08
-6.56821e-07
1.94228e-08
-1.36027e-06
-2.07946e-10
-1.43503e-06
-1.84089e-08
-1.43943e-06
-2.14279e-08
-1.39188e-06
-1.25547e-08
-6.23688e-07
2.22852e-08
-2.33737e-07
-1.55673e-07
-1.0847e-08
-1.45172e-07
-2.25898e-07
1.92785e-07
-3.2765e-08
-4.04238e-07
-2.55023e-09
-6.8703e-07
-1.77634e-08
-1.34506e-06
-2.92753e-08
-1.42352e-06
-5.2372e-08
-1.41633e-06
-4.50766e-08
-1.39917e-06
-6.8072e-08
-6.00696e-07
-4.91552e-08
-2.52652e-07
-1.67007e-07
-3.7822e-08
-5.28254e-08
-2.78422e-07
1.05348e-07
1.48093e-09
-4.5855e-07
2.53985e-08
-7.10946e-07
2.67468e-08
-1.34641e-06
5.42315e-09
-1.40219e-06
-7.42565e-09
-1.40348e-06
-4.41065e-08
-1.36249e-06
-5.28838e-08
-5.91915e-07
-1.83479e-08
-2.87188e-07
-2.35338e-07
4.99826e-08
8.28507e-08
-2.9794e-07
-6.33322e-08
5.90615e-08
-4.34765e-07
4.22983e-08
-6.94183e-07
1.89024e-08
-1.32301e-06
1.87357e-09
-1.38517e-06
-1.58574e-08
-1.38575e-06
-5.81137e-08
-1.32023e-06
-8.09569e-08
-5.69073e-07
-7.94257e-08
-2.88718e-07
-2.39389e-07
-7.53736e-08
8.23539e-08
-3.02083e-07
-7.8209e-08
4.60398e-08
-3.98451e-07
3.11833e-08
-6.79325e-07
1.38444e-08
-1.30567e-06
-1.97077e-09
-1.36935e-06
-1.97804e-08
-1.36794e-06
-4.35133e-08
-1.2965e-06
-4.65639e-08
-5.6602e-07
-5.17263e-08
-2.83551e-07
-2.31269e-07
-5.98446e-08
6.08636e-08
-2.71673e-07
-9.1273e-08
3.07079e-08
-3.68278e-07
2.29631e-08
-6.71579e-07
1.72848e-08
-1.3e-06
3.69667e-10
-1.35243e-06
-1.49903e-08
-1.35258e-06
-1.44096e-08
-1.29708e-06
8.56678e-09
-5.88995e-07
-1.27744e-08
-2.62207e-07
-2.15911e-07
-2.81308e-08
6.06233e-08
-2.18369e-07
-1.13924e-07
2.93146e-08
-3.36962e-07
1.58983e-08
-6.58162e-07
1.71355e-08
-1.30123e-06
2.73379e-09
-1.33803e-06
-1.06241e-08
-1.33922e-06
-1.10801e-08
-1.29662e-06
-5.72383e-09
-5.94351e-07
8.70349e-09
-2.76633e-07
-1.975e-07
-9.70814e-09
3.26238e-08
-1.83153e-07
-6.78383e-08
8.3554e-09
-3.12696e-07
5.95318e-09
-6.5576e-07
1.66189e-08
-1.3119e-06
9.27568e-10
-1.32234e-06
-1.10449e-08
-1.32725e-06
-6.98196e-10
-1.30697e-06
-2.44475e-08
-5.706e-07
-1.68567e-08
-2.84225e-07
-1.78138e-07
-3.62188e-08
5.85848e-09
-1.7245e-07
-1.65592e-08
-1.33736e-08
-2.93458e-07
-4.11808e-09
-6.65011e-07
-9.54847e-09
-1.30647e-06
-2.17561e-08
-1.31013e-06
-3.70459e-08
-1.31196e-06
-4.05169e-08
-1.3035e-06
-6.69983e-08
-5.44119e-07
-8.06921e-08
-2.70533e-07
-1.79615e-07
-7.92137e-08
1.10922e-08
-1.61747e-07
-2.17952e-08
-1.47166e-08
-2.67653e-07
-1.31891e-08
-6.66538e-07
-2.33779e-08
-1.29628e-06
-2.81753e-08
-1.30533e-06
-4.46746e-08
-1.29546e-06
-5.29889e-08
-1.29518e-06
-4.81079e-08
-5.49e-07
-1.05939e-07
-2.12702e-07
-1.36053e-07
-1.49501e-07
1.9927e-08
-1.62016e-07
-1.96572e-08
6.59597e-09
-2.54318e-07
4.27378e-08
-7.0268e-07
3.49466e-08
-1.28849e-06
2.0793e-08
-1.29118e-06
1.88233e-08
-1.29349e-06
1.01524e-08
-1.28651e-06
-1.94948e-09
-5.36897e-07
-8.52841e-08
-1.29368e-07
-6.85698e-08
-1.52768e-07
2.73502e-08
-1.62272e-07
-2.70929e-08
1.07662e-08
-2.37721e-07
3.30845e-08
-7.24991e-07
2.26283e-08
-1.27803e-06
1.19639e-08
-1.28052e-06
4.45013e-09
-1.28597e-06
-8.13668e-09
-1.27393e-06
-2.89938e-08
-5.1604e-07
-1.60422e-07
2.06117e-09
-2.23301e-08
-2.06661e-07
6.62082e-08
-1.2703e-07
-1.01448e-07
1.99079e-08
-1.91417e-07
6.06207e-09
-7.11149e-07
-5.63908e-09
-1.26633e-06
-1.00844e-08
-1.27607e-06
-2.72788e-08
-1.26878e-06
-3.55559e-08
-1.26565e-06
3.10922e-08
-5.82688e-07
-9.00888e-08
1.23243e-07
1.12895e-08
-1.23709e-07
9.12185e-08
-6.80602e-08
-1.50184e-07
4.81816e-08
-1.48361e-07
3.84729e-08
-7.01434e-07
2.48719e-08
-1.25273e-06
9.31756e-09
-1.26052e-06
-2.59689e-09
-1.25687e-06
-1.59139e-08
-1.25233e-06
4.69161e-08
-6.45516e-07
2.31512e-08
1.4701e-07
9.18275e-08
-5.73872e-08
7.43333e-08
-1.96374e-08
-1.22754e-07
6.28241e-08
-1.36845e-07
6.17045e-08
-7.00308e-07
4.65837e-08
-1.23761e-06
2.26571e-08
-1.23659e-06
9.74021e-09
-1.24395e-06
-7.3581e-09
-1.23523e-06
2.30103e-08
-6.75884e-07
1.50572e-07
1.94483e-08
9.8001e-08
1.44399e-07
9.06639e-08
2.45165e-08
-1.34814e-07
5.50227e-08
-1.01211e-07
2.12352e-08
-6.66525e-07
6.11648e-09
-1.22249e-06
-8.42027e-09
-1.22205e-06
-3.31488e-08
-1.21922e-06
-4.60337e-08
-1.22235e-06
-5.02495e-08
-6.71669e-07
4.34912e-08
-7.42934e-08
8.0275e-08
6.12181e-08
5.91324e-08
6.10167e-08
-9.56298e-08
4.50763e-08
-8.71424e-08
3.49305e-08
-6.56377e-07
2.22858e-08
-1.20984e-06
3.10823e-09
-1.20288e-06
-1.64238e-08
-1.19969e-06
-2.89105e-08
-1.20986e-06
-5.58429e-08
-6.44737e-07
-3.69082e-08
-9.32281e-08
1.06483e-07
-6.3117e-08
4.12741e-08
1.04778e-07
-8.50371e-08
4.11442e-08
-8.70088e-08
4.39159e-08
-6.59144e-07
3.32583e-08
-1.19918e-06
8.04881e-09
-1.17767e-06
-6.19887e-09
-1.18544e-06
-1.92007e-08
-1.19686e-06
-5.25484e-08
-6.11387e-07
-1.61657e-08
-1.2961e-07
1.28926e-07
-3.861e-08
1.75806e-09
1.35943e-07
-3.29232e-08
3.30521e-08
-1.1831e-07
2.37825e-08
-6.49875e-07
6.22163e-09
-1.18162e-06
-8.24681e-09
-1.1632e-06
-3.62845e-08
-1.1574e-06
-5.20075e-08
-1.18114e-06
-7.28052e-08
-5.90589e-07
-1.77591e-08
-1.84653e-07
1.03773e-07
7.39543e-09
-2.90866e-08
1.08544e-07
5.64871e-08
2.89121e-08
-1.76307e-07
4.42955e-08
-6.65255e-07
2.54263e-08
-1.16275e-06
3.31313e-09
-1.14108e-06
-1.2796e-08
-1.14129e-06
-3.38288e-08
-1.1601e-06
-2.71018e-08
-5.97317e-07
-2.19419e-08
-1.89811e-07
6.43366e-08
1.74967e-08
-3.94808e-08
4.36966e-08
1.04329e-07
7.14935e-09
-2.22936e-07
3.23726e-08
-6.90476e-07
1.52948e-08
-1.14567e-06
-1.74714e-09
-1.12404e-06
-1.99137e-08
-1.12313e-06
-3.64083e-08
-1.14361e-06
-2.00172e-08
-6.13707e-07
-7.46901e-08
-1.35136e-07
2.06795e-08
-3.10316e-08
-8.30409e-09
-2.03865e-08
7.23889e-08
1.02837e-08
-2.41519e-07
3.01602e-08
-7.10349e-07
1.45604e-08
-1.13007e-06
1.60265e-10
-1.10964e-06
-1.45729e-08
-1.10839e-06
-2.66262e-08
-1.13156e-06
6.56356e-09
-6.46895e-07
-8.74522e-08
-4.11202e-08
-9.44706e-09
-5.73239e-08
9.58587e-09
-5.91034e-08
2.9133e-08
1.31331e-08
-2.4506e-07
3.0207e-08
-7.27419e-07
1.49268e-08
-1.11479e-06
5.46465e-10
-1.09526e-06
-1.22285e-08
-1.09562e-06
-3.36413e-08
-1.11014e-06
-3.6286e-08
-6.4425e-07
-4.23706e-08
-3.50357e-08
-5.88966e-08
7.07938e-09
1.37899e-08
-7.85308e-08
5.63908e-09
2.26116e-08
-2.53883e-07
2.86098e-08
-7.33415e-07
1.18931e-08
-1.09807e-06
-3.84347e-09
-1.07953e-06
-1.61514e-08
-1.08331e-06
-2.94404e-08
-1.09685e-06
6.51845e-08
-7.38874e-07
2.17469e-07
-1.8732e-07
-8.15382e-08
2.4011e-07
3.9528e-08
-9.743e-08
-2.06277e-08
3.68555e-08
-2.51213e-07
1.32607e-08
-7.0982e-07
-5.0044e-09
-1.07981e-06
-1.79885e-08
-1.06654e-06
-3.7061e-08
-1.06424e-06
-5.39527e-08
-1.07996e-06
-3.10044e-08
-7.61823e-07
3.59115e-08
-2.54236e-07
-1.29378e-07
8.37508e-08
-2.92521e-09
-1.43597e-07
4.90919e-08
2.36642e-08
-2.77801e-07
1.97018e-08
-7.05857e-07
2.62314e-09
-1.06273e-06
-1.32234e-08
-1.05069e-06
-3.29363e-08
-1.04453e-06
-4.92851e-08
-1.06361e-06
-5.19426e-08
-7.59166e-07
-4.57229e-08
-2.60457e-07
-1.37649e-07
-3.74527e-08
1.15965e-08
-1.96984e-07
4.17902e-08
4.14662e-08
-3.07672e-07
5.14147e-08
-7.15807e-07
3.41554e-08
-1.04547e-06
1.09187e-08
-1.02746e-06
-3.67267e-09
-1.02993e-06
-2.21247e-08
-1.04516e-06
-5.69905e-08
-7.24301e-07
-7.3146e-08
-2.44302e-07
-1.1165e-07
-9.91449e-08
3.21111e-08
-2.31643e-07
2.54676e-09
4.11272e-08
-3.16692e-07
3.58131e-08
-7.10496e-07
1.82059e-08
-1.02787e-06
5.17954e-10
-1.00977e-06
-1.99326e-08
-1.00948e-06
-3.72687e-08
-1.02783e-06
-7.2028e-08
-6.89542e-07
-1.0299e-07
-2.1334e-07
-7.85739e-08
-1.36066e-07
3.69572e-08
-2.45689e-07
-2.29117e-08
4.37067e-08
-3.23441e-07
4.05279e-08
-7.07319e-07
2.35281e-08
-1.01087e-06
1.47096e-09
-9.87713e-07
-2.0038e-08
-9.87975e-07
-3.7214e-08
-1.01065e-06
-8.46767e-08
-6.42079e-07
-1.90358e-07
-1.07659e-07
-6.54238e-08
-2.03508e-07
7.05976e-08
-2.28468e-07
-8.78198e-08
4.94568e-08
-3.02302e-07
3.85316e-08
-6.96395e-07
1.97276e-08
-9.92065e-07
-1.31275e-09
-9.66673e-07
-2.33436e-08
-9.65944e-07
-4.27414e-08
-9.91252e-07
-4.70908e-08
-6.37729e-07
-1.60732e-07
5.98082e-09
-9.1296e-09
-2.17027e-07
9.44778e-08
-1.97999e-07
-1.24949e-07
4.87251e-08
-2.56555e-07
4.09711e-08
-6.88645e-07
2.09672e-08
-9.72062e-07
-9.99833e-11
-9.45606e-07
-2.02499e-08
-9.45794e-07
-4.03024e-08
-9.712e-07
-2.98389e-08
-6.48193e-07
-4.12624e-08
1.74034e-08
8.96564e-08
-1.40049e-07
6.1163e-08
-1.61093e-07
-9.80701e-08
3.21672e-08
-2.27562e-07
4.01425e-08
-6.96622e-07
1.98667e-08
-9.51787e-07
-1.0909e-09
-9.24648e-07
-2.11039e-08
-9.25781e-07
-3.96213e-08
-9.52683e-07
5.95608e-09
-6.93773e-07
1.13749e-07
-9.03916e-08
1.31279e-07
7.21262e-08
4.69554e-08
-1.29921e-07
-7.8128e-08
3.51351e-08
-2.15743e-07
4.12105e-08
-7.02697e-07
2.01572e-08
-9.30733e-07
7.32434e-10
-9.05223e-07
-2.0247e-08
-9.04801e-07
-4.13329e-08
-9.31597e-07
-3.06644e-08
-7.04443e-07
3.38077e-08
-1.54865e-07
6.4968e-08
1.00118e-07
5.96326e-08
-1.10838e-07
-7.87167e-08
4.93009e-08
-2.05412e-07
4.23202e-08
-6.95717e-07
2.03318e-08
-9.08745e-07
-2.24077e-10
-8.84667e-07
-2.08039e-08
-8.84222e-07
-4.32909e-08
-9.0911e-07
-6.07145e-08
-6.8702e-07
-5.97619e-08
-1.55819e-07
-1.54118e-08
2.06175e-08
7.46006e-08
-9.71919e-08
-8.82463e-08
5.73821e-08
-1.88192e-07
4.19307e-08
-6.80265e-07
2.00664e-08
-8.86881e-07
-2.03059e-10
-8.64398e-07
-2.10475e-08
-8.63377e-07
-4.27771e-08
-8.8738e-07
-5.6767e-08
-6.7303e-07
-8.92264e-08
-1.23359e-07
-4.33713e-08
-6.12671e-08
8.76667e-08
-7.71242e-08
-1.07734e-07
6.09092e-08
-1.61437e-07
4.35556e-08
-6.62912e-07
2.11674e-08
-8.64492e-07
-1.02041e-09
-8.4221e-07
-2.26194e-08
-8.41778e-07
-4.55544e-08
-8.64445e-07
-5.69574e-08
-6.61627e-07
-9.8751e-08
-8.15669e-08
-4.38788e-08
-9.82444e-08
9.94355e-08
-4.68601e-08
-1.297e-07
6.35591e-08
-1.25562e-07
4.43547e-08
-6.43708e-07
2.14634e-08
-8.41601e-07
-1.68215e-09
-8.19065e-07
-2.36462e-08
-8.19814e-07
-4.64396e-08
-8.41652e-07
-4.97171e-08
-6.58349e-07
-3.54155e-08
-9.58701e-08
-4.38633e-08
-3.54324e-08
1.04458e-07
-9.56055e-09
-1.41758e-07
6.49792e-08
-8.60783e-08
4.50788e-08
-6.23805e-07
2.17502e-08
-8.18271e-07
-1.46607e-09
-7.95848e-07
-2.49223e-08
-7.96358e-07
-4.80771e-08
-8.18497e-07
-4.6083e-08
-6.60344e-07
-1.89058e-08
-1.23049e-07
-3.1569e-08
-3.12013e-08
1.06604e-07
3.2342e-08
-1.48506e-07
6.57528e-08
-4.52223e-08
4.70287e-08
-6.05079e-07
2.30443e-08
-7.94286e-07
-1.37438e-09
-7.7143e-07
-2.6462e-08
-7.7127e-07
-5.07478e-08
-7.94211e-07
-6.45508e-08
-6.46542e-07
-7.11187e-08
-1.16481e-07
-1.2508e-08
-9.01804e-08
1.1115e-07
7.86638e-08
-1.57469e-07
6.75852e-08
-1.65511e-09
4.83712e-08
-5.85866e-07
2.32658e-08
-7.69182e-07
-1.09362e-09
-7.4707e-07
-2.59723e-08
-7.46391e-07
-5.12669e-08
-7.68917e-07
-6.67223e-08
-6.31088e-07
-7.28435e-08
-1.10361e-07
-5.31405e-09
-8.00381e-08
1.03405e-07
1.21985e-07
-1.46725e-07
6.71701e-08
3.45782e-08
5.08853e-08
-5.69582e-07
2.46971e-08
-7.42995e-07
-5.90417e-10
-7.21783e-07
-2.64861e-08
-7.20496e-07
-5.27934e-08
-7.4261e-07
-6.78522e-08
-6.16029e-07
-6.21312e-08
-1.16082e-07
-1.07816e-08
-5.66642e-08
8.75393e-08
1.52917e-07
-1.18474e-07
6.84111e-08
5.36987e-08
5.35644e-08
-5.54737e-07
2.60101e-08
-7.1544e-07
8.73625e-10
-6.96646e-07
-2.55475e-08
-6.94075e-07
-5.38038e-08
-7.14353e-07
-7.22101e-08
-5.97624e-07
-6.47321e-08
-1.23559e-07
-2.32577e-08
-5.22554e-08
7.86147e-08
1.71288e-07
-9.69877e-08
7.41101e-08
5.8203e-08
5.67486e-08
-5.37375e-07
2.81029e-08
-6.86793e-07
9.29098e-10
-6.69472e-07
-2.4826e-08
-6.6832e-07
-5.40541e-08
-6.85125e-07
-7.97414e-08
-5.71936e-07
-7.42473e-08
-1.29052e-07
-4.00444e-08
-5.74594e-08
8.34171e-08
1.83518e-07
-9.5647e-08
6.90533e-08
7.25736e-08
5.83185e-08
-5.26638e-07
2.83755e-08
-6.56849e-07
-4.16276e-09
-6.36934e-07
-2.8044e-08
-6.44438e-07
-5.57101e-08
-6.57459e-07
-8.83391e-08
-5.39306e-07
-7.50948e-08
-1.42295e-07
-5.50198e-08
-6.01186e-08
1.02143e-07
1.60811e-07
-7.94344e-08
7.23293e-08
1.02391e-07
4.78384e-08
-5.02147e-07
1.58097e-08
-6.2482e-07
-2.32445e-09
-6.188e-07
-3.59818e-08
-6.10781e-07
-6.45651e-08
-6.28876e-07
-8.74754e-08
-5.16395e-07
-5.98217e-08
-1.69949e-07
-6.38149e-08
-5.1027e-08
5.20987e-09
1.37201e-07
1.84018e-08
6.95678e-08
3.80351e-08
8.99789e-08
-5.22556e-07
6.12381e-08
-5.96079e-07
3.24594e-08
-5.90021e-07
7.45358e-09
-5.85775e-07
-2.55815e-08
-5.95841e-07
-3.4955e-08
-5.07021e-07
-2.12257e-08
-1.8368e-07
-4.82095e-08
-3.68327e-08
-9.46434e-08
1.18049e-07
1.13796e-07
4.58569e-09
-6.119e-08
4.05748e-08
-5.58543e-07
8.81983e-09
-5.64324e-07
-3.02911e-08
-5.5091e-07
-4.4189e-08
-5.71877e-07
-7.78014e-08
-5.62228e-07
-5.60249e-08
-5.28798e-07
-2.449e-08
-2.15216e-07
-2.45338e-08
-4.8168e-08
-6.82198e-10
7.82988e-08
4.04337e-08
6.145e-08
-1.2332e-07
1.70799e-08
-5.14173e-07
-2.50136e-08
-5.2223e-07
-4.75917e-08
-5.28332e-07
-9.74652e-08
-5.22004e-07
-1.2465e-07
-5.35044e-07
-1.1546e-07
-5.37988e-07
-9.50793e-08
-2.35599e-07
-2.64404e-08
-9.31739e-08
6.01891e-08
4.74407e-08
-2.93294e-08
9.65882e-08
-1.59716e-07
7.27656e-08
-4.9035e-07
3.96897e-08
-4.89155e-07
6.86913e-09
-4.95512e-07
-2.53745e-08
-4.8976e-07
-7.28665e-08
-4.87552e-07
-1.27996e-07
-4.82859e-07
-1.11446e-07
-2.52149e-07
-3.17154e-08
-1.06171e-07
1.00127e-07
1.85117e-08
-7.11975e-08
1.22293e-07
-1.8188e-07
6.64651e-08
-4.34522e-07
2.38706e-08
-4.4656e-07
-1.81232e-08
-4.53518e-07
-5.74957e-08
-4.50388e-07
-9.13301e-08
-4.53717e-07
-1.34788e-07
-4.39401e-07
-1.51327e-07
-2.35611e-07
-5.29012e-08
-1.3014e-07
1.34273e-07
-1.15287e-08
-1.04232e-07
1.69723e-07
-2.17325e-07
1.19662e-07
-3.84461e-07
7.60078e-08
-4.02906e-07
3.07385e-08
-4.08249e-07
-8.01725e-09
-4.11632e-07
-5.4848e-08
-4.06887e-07
-1.03726e-07
-3.90523e-07
-1.1023e-07
-2.29106e-07
-7.80544e-08
-8.50763e-08
5.88677e-08
-4.37997e-08
-2.65955e-08
1.21542e-07
-2.79999e-07
7.90017e-08
-3.41921e-07
3.25877e-08
-3.56492e-07
-1.2816e-08
-3.62845e-07
-5.86359e-08
-3.65812e-07
-1.03094e-07
-3.62428e-07
-1.48711e-07
-3.44907e-07
-8.41107e-08
-2.93706e-07
-1.10328e-07
-5.18371e-08
1.41782e-07
-7.92442e-08
-1.06336e-07
1.43147e-07
-2.81362e-07
9.93475e-08
-2.98121e-07
5.14723e-08
-3.08617e-07