/*--------------------------------*- C++ -*----------------------------------*\
  =========                 |
  \\      /  F ield         | OpenFOAM: The Open Source CFD Toolbox
   \\    /   O peration     | Website:  https://openfoam.org
    \\  /    A nd           | Version:  8
     \\/     M anipulation  |
\*---------------------------------------------------------------------------*/
FoamFile
{
    version     2.0;
    format      ascii;
    class       volVectorField;
    location    "1.8";
    object      U;
}
// * * * * * * * * * * * * * * * * * * * * * * * * * * * * * * * * * * * * * //

dimensions      [0 1 -1 0 0 0 0];

internalField   nonuniform List<vector> 
9150
(
(0.00497656 -0.0780156 0)
(0.0130267 -0.0974536 0)
(0.0108611 -0.104263 0)
(0.00831956 -0.108079 0)
(0.00207682 -0.109386 0)
(-0.00252101 -0.109239 0)
(-0.00874448 -0.107722 0)
(-0.0108647 -0.1042 0)
(-0.0130416 -0.0974301 0)
(-0.00495452 -0.0779851 0)
(0.00598229 -0.0920579 0)
(0.00860602 -0.100512 0)
(0.00729068 -0.102321 0)
(0.00454011 -0.104134 0)
(0.00210813 -0.105384 0)
(-0.00209581 -0.105457 0)
(-0.00433863 -0.104424 0)
(-0.00731429 -0.102261 0)
(-0.00861416 -0.100515 0)
(-0.00598563 -0.0920489 0)
(0.0017952 -0.0954717 0)
(0.00459058 -0.0989894 0)
(0.00370001 -0.101028 0)
(0.00319407 -0.101832 0)
(0.000847268 -0.10241 0)
(-0.00072972 -0.102439 0)
(-0.00324213 -0.101684 0)
(-0.003732 -0.100966 0)
(-0.00460233 -0.0989899 0)
(-0.00179243 -0.095468 0)
(0.0017755 -0.098439 0)
(0.00248308 -0.100407 0)
(0.00219034 -0.100249 0)
(0.0012461 -0.100831 0)
(0.000666681 -0.100845 0)
(-0.000706423 -0.100832 0)
(-0.00128363 -0.100814 0)
(-0.00219315 -0.100265 0)
(-0.00249179 -0.100409 0)
(-0.00177433 -0.0984381 0)
(0.000195934 -0.0994974 0)
(0.000732749 -0.0995719 0)
(0.000467348 -0.0999654 0)
(0.000639432 -0.0998864 0)
(0.0001051 -0.100129 0)
(-0.00014556 -0.100099 0)
(-0.00065759 -0.0998669 0)
(-0.00046465 -0.0999819 0)
(-0.000734855 -0.0995708 0)
(-0.000195542 -0.0994975 0)
(0.0766482 -0.195102 1.65019e-26)
(0.0496293 -0.185304 0)
(0.0312856 -0.176713 0)
(0.0158369 -0.17545 0)
(0.00402416 -0.176197 0)
(-0.00514953 -0.176099 0)
(-0.0165481 -0.17402 0)
(-0.0315572 -0.177065 0)
(-0.0495775 -0.185498 0)
(-0.0767941 -0.195264 -1.63319e-26)
(0.0583754 -0.146275 4.45566e-27)
(0.0482351 -0.146387 0)
(0.0278205 -0.155982 0)
(0.0200265 -0.156209 0)
(0.00371839 -0.155615 0)
(-0.00536717 -0.155946 0)
(-0.0209476 -0.157645 0)
(-0.0283565 -0.156678 0)
(-0.0483716 -0.146615 0)
(-0.0585107 -0.146483 -4.50655e-27)
(0.0477315 -0.121568 2.18453e-27)
(0.0420908 -0.131329 0)
(0.0297966 -0.133957 0)
(0.0185587 -0.137134 0)
(0.00705445 -0.140069 0)
(-0.00480638 -0.140555 0)
(-0.0172655 -0.138304 0)
(-0.0294025 -0.134062 0)
(-0.0419777 -0.131498 0)
(-0.0477653 -0.121726 -2.26934e-27)
(0.0374313 -0.0995562 3.22506e-27)
(0.0389626 -0.1103 0)
(0.0223728 -0.120328 0)
(0.0173371 -0.125641 0)
(0.00415196 -0.125462 0)
(-0.00426468 -0.125293 0)
(-0.0175169 -0.12456 0)
(-0.0224335 -0.120155 0)
(-0.0389542 -0.110362 0)
(-0.0374669 -0.0996215 -3.2642e-27)
(0.0251043 -0.0813731 -1.12779e-26)
(0.0282759 -0.101039 -1.32664e-26)
(0.0203234 -0.108274 -3.32374e-27)
(0.0115168 -0.113668 -2.93142e-27)
(0.00484569 -0.116526 -1.0963e-28)
(-0.00447799 -0.11674 -1.06181e-28)
(-0.011042 -0.113789 -2.97592e-27)
(-0.0201014 -0.108153 -3.30444e-27)
(-0.0281876 -0.101063 -1.32475e-26)
(-0.0250829 -0.0813902 -1.12797e-26)
(0.0185093 -0.143784 0)
(0.0144484 -0.203391 0)
(0.0239412 -0.215171 0)
(0.0117799 -0.2216 0)
(0.0111088 -0.225349 0)
(-0.00419872 -0.226235 0)
(-0.00560847 -0.224694 0)
(-0.020018 -0.218589 0)
(-0.0108055 -0.205973 0)
(-0.0169767 -0.14543 0)
(0.0165741 -0.165194 0)
(0.00231308 -0.198435 0)
(0.0158477 -0.208369 0)
(0.00229968 -0.213665 0)
(0.00602215 -0.214484 0)
(-0.0061087 -0.214743 0)
(-0.00171067 -0.213187 0)
(-0.0146409 -0.208837 0)
(-0.00150856 -0.19995 0)
(-0.0157652 -0.1674 0)
(0.0151828 -0.171511 0)
(-0.00333795 -0.20279 0)
(0.0116062 -0.207817 0)
(-0.000328612 -0.209204 0)
(0.00552977 -0.209485 0)
(-0.00285131 -0.210038 0)
(0.00240586 -0.209801 0)
(-0.0105816 -0.208284 0)
(0.0038585 -0.203339 0)
(-0.0148737 -0.17243 0)
(0.0172969 -0.193292 0)
(-0.00660403 -0.203583 0)
(0.0101843 -0.209943 0)
(-0.00113969 -0.20727 0)
(0.00181225 -0.207236 0)
(-0.00222267 -0.207092 0)
(0.00110778 -0.205356 0)
(-0.0096985 -0.209899 0)
(0.00661555 -0.203974 0)
(-0.0170463 -0.193664 0)
(0.0338526 -0.217539 0)
(0.00856485 -0.204274 0)
(0.0167343 -0.204312 0)
(0.0112879 -0.196474 0)
(0.00248443 -0.193419 0)
(-0.00177447 -0.193409 0)
(-0.0105254 -0.196883 0)
(-0.0166184 -0.203679 0)
(-0.0084091 -0.203987 0)
(-0.0339826 -0.21792 0)
(0.120762 -0.11162 0)
(0.187497 -0.124815 0)
(0.248324 -0.104821 0)
(0.326505 -0.0718677 0)
(0.369 -0.0428961 0)
(0.372045 -0.0362353 0)
(0.374713 -0.0438191 0)
(0.396884 -0.0720888 0)
(0.455071 -0.0936421 0)
(0.520127 -0.0830928 0)
(-0.0148721 -0.190736 0)
(0.0180165 -0.24597 0)
(0.0989638 -0.217394 0)
(0.161738 -0.140582 0)
(0.204724 -0.0449634 0)
(0.262166 -0.00644593 0)
(0.303043 -0.0346291 0)
(0.373094 -0.122693 0)
(0.439106 -0.148574 0)
(0.482809 -0.110254 0)
(-0.360619 -0.304552 0)
(-0.3158 -0.286283 0)
(-0.271305 -0.239007 0)
(-0.234534 -0.239361 0)
(-0.175992 -0.231611 0)
(-0.103546 -0.243399 0)
(-0.0248886 -0.279645 0)
(0.0128371 -0.294657 0)
(0.0599619 -0.231358 0)
(0.0884986 -0.204016 0)
(-0.372476 -0.394773 0)
(-0.32427 -0.392229 0)
(-0.262527 -0.351489 0)
(-0.248835 -0.310618 0)
(-0.223779 -0.30681 0)
(-0.210452 -0.318006 0)
(-0.196428 -0.327292 0)
(-0.178853 -0.333881 0)
(-0.144406 -0.319438 0)
(-0.113217 -0.286151 0)
(-0.340283 -0.440959 0)
(-0.332439 -0.47017 0)
(-0.287317 -0.432162 0)
(-0.256132 -0.343702 0)
(-0.250775 -0.32793 0)
(-0.236412 -0.331564 0)
(-0.222145 -0.346356 0)
(-0.21168 -0.355049 0)
(-0.191229 -0.361111 0)
(-0.15797 -0.362166 0)
(-0.452818 -0.494523 0)
(-0.404992 -0.522197 0)
(-0.356692 -0.502314 0)
(-0.305173 -0.400217 0)
(-0.275586 -0.368835 0)
(-0.239121 -0.372509 0)
(-0.20923 -0.375059 0)
(-0.192527 -0.391942 0)
(-0.175316 -0.399869 0)
(-0.147215 -0.400326 0)
(-0.58246 -0.60542 0)
(-0.570602 -0.622036 0)
(-0.555052 -0.604822 0)
(-0.419424 -0.520643 0)
(-0.319701 -0.482013 0)
(-0.235249 -0.49046 0)
(-0.157571 -0.447077 0)
(-0.117041 -0.437528 0)
(-0.100353 -0.452934 0)
(-0.0976107 -0.4722 0)
(-0.606366 -0.597312 0)
(-0.609138 -0.635662 0)
(-0.606248 -0.667694 0)
(-0.533245 -0.729924 0)
(-0.377762 -0.773119 0)
(-0.24883 -0.729068 0)
(-0.119359 -0.560986 0)
(-0.00334198 -0.48799 0)
(0.0417158 -0.425886 0)
(0.0545824 -0.424479 0)
(-0.456369 -0.618228 0)
(-0.469807 -0.661587 0)
(-0.466302 -0.770193 0)
(-0.429735 -0.88906 0)
(-0.364419 -1.03127 0)
(-0.312721 -1.08111 0)
(-0.190982 -0.971017 0)
(-0.0564352 -0.709014 0)
(0.0252822 -0.50074 0)
(0.0837791 -0.488233 0)
(-0.321699 -0.656034 0)
(-0.318092 -0.685079 0)
(-0.324883 -0.76773 0)
(-0.338583 -0.905779 0)
(-0.323506 -1.07538 0)
(-0.301069 -1.16731 0)
(-0.266557 -1.15984 0)
(-0.181191 -0.946141 0)
(-0.118989 -0.681882 0)
(-0.0139217 -0.653814 0)
(-0.192047 -0.604288 0)
(-0.224959 -0.662206 0)
(-0.257658 -0.722369 0)
(-0.272425 -0.850628 0)
(-0.285259 -1.06809 0)
(-0.295312 -1.19867 0)
(-0.290109 -1.234 0)
(-0.235577 -1.09306 0)
(-0.162586 -0.81353 0)
(-0.0758175 -0.751267 0)
(-0.0509572 -0.472505 0)
(-0.0996662 -0.559219 0)
(-0.156397 -0.672121 0)
(-0.197795 -0.795882 0)
(-0.228755 -0.984774 0)
(-0.281791 -1.18955 0)
(-0.292133 -1.25532 0)
(-0.298966 -1.23587 0)
(-0.227609 -1.01851 0)
(-0.0831077 -0.848086 0)
(0.0301364 -0.433592 0)
(0.0231595 -0.454609 0)
(-0.00327455 -0.560757 0)
(-0.0600258 -0.706793 0)
(-0.119564 -0.853446 0)
(-0.191713 -1.05896 0)
(-0.260185 -1.22688 0)
(-0.279342 -1.27234 0)
(-0.267757 -1.2536 0)
(-0.11282 -0.987358 0)
(0.084529 -0.455256 0)
(0.077018 -0.449037 0)
(0.0720908 -0.491617 0)
(0.0561897 -0.589664 0)
(0.00292812 -0.697916 0)
(-0.04491 -0.812643 0)
(-0.161408 -1.09127 0)
(-0.197927 -1.26703 0)
(-0.25169 -1.30145 0)
(-0.220536 -1.16728 0)
(0.135037 -0.422047 0)
(0.108798 -0.448176 0)
(0.0967719 -0.479612 0)
(0.0834568 -0.531889 0)
(0.0489885 -0.608427 0)
(0.0157968 -0.695569 0)
(-0.0624364 -0.843036 0)
(-0.142824 -1.16038 0)
(-0.173631 -1.2664 0)
(-0.233242 -1.23947 0)
(0.219149 -0.31375 0)
(0.167228 -0.389567 0)
(0.143436 -0.461425 0)
(0.114509 -0.496637 0)
(0.0774299 -0.534545 0)
(0.0385485 -0.632885 0)
(-0.00770074 -0.724524 0)
(-0.0886148 -0.974491 0)
(-0.120723 -1.19255 0)
(-0.234408 -1.21054 0)
(0.317475 -0.194199 0)
(0.269874 -0.281555 0)
(0.246684 -0.395886 0)
(0.196277 -0.442885 0)
(0.162189 -0.43942 0)
(0.0979767 -0.535599 0)
(0.068638 -0.665939 0)
(-0.0246318 -0.838201 0)
(-0.0199547 -1.12326 0)
(-0.0314625 -1.18728 0)
(0.301844 -0.208175 0)
(0.315327 -0.21008 0)
(0.332594 -0.314552 0)
(0.305381 -0.348825 0)
(0.255194 -0.326617 0)
(0.206937 -0.382888 0)
(0.142046 -0.538829 0)
(0.0683251 -0.703251 0)
(0.0730365 -1.10652 0)
(0.0778707 -1.18742 0)
(0.286273 -0.256138 0)
(0.291947 -0.326806 0)
(0.29647 -0.360975 0)
(0.304974 -0.31102 0)
(0.200204 -0.23543 0)
(0.170743 -0.294511 0)
(0.134437 -0.416317 0)
(0.0716634 -0.640634 0)
(0.101373 -1.10421 0)
(0.118767 -1.19327 0)
(0.227353 -0.206303 0)
(0.187022 -0.268825 0)
(0.0889531 -0.299791 0)
(-0.0218475 -0.10596 0)
(0.0719158 -0.193953 0)
(0.0822234 -0.291217 0)
(0.0582681 -0.378302 0)
(0.0550161 -0.635058 0)
(0.109166 -1.15433 0)
(0.124194 -1.23885 0)
(0.21956 -0.147747 0)
(0.182293 -0.123332 0)
(0.073141 -0.0763549 0)
(0.0308297 -0.107696 0)
(0.0998935 -0.260893 0)
(0.0549609 -0.302588 0)
(0.0302383 -0.375083 0)
(0.0478691 -0.713158 0)
(0.0828148 -1.20262 0)
(0.0893136 -1.26899 0)
(0.289791 -0.144177 0)
(0.270342 -0.00751597 0)
(0.196739 0.0155087 0)
(0.168592 -0.0925849 0)
(0.160453 -0.241421 0)
(0.0879953 -0.253072 0)
(0.0465961 -0.328837 0)
(0.0524242 -0.805734 0)
(0.0741948 -1.2179 0)
(0.0828606 -1.27318 0)
(0.353529 -0.238598 0)
(0.3683 0.0862449 0)
(0.291923 0.326564 0)
(0.314073 -0.0297516 0)
(0.246695 -0.113429 0)
(0.165849 -0.137475 0)
(0.0971963 -0.248943 0)
(0.08751 -0.828199 0)
(0.116392 -1.24857 0)
(0.129089 -1.28171 0)
(0.284436 -0.0188844 0)
(0.27173 0.0292679 0)
(0.335714 0.026975 0)
(0.373436 0.0148663 0)
(0.321828 0.0216164 0)
(0.207548 0.00491423 0)
(0.133987 -0.156561 0)
(0.189514 -0.836354 0)
(0.277986 -1.29196 0)
(0.29696 -1.28856 0)
(0.453407 -0.0371272 0)
(0.456435 0.0157778 0)
(0.414744 0.0730234 0)
(0.237688 0.191674 0)
(0.157668 0.175734 0)
(0.11608 0.092184 0)
(0.094606 -0.163288 0)
(0.323444 -1.015 0)
(0.428273 -1.3383 0)
(0.439076 -1.3252 0)
(0.406071 -0.0800793 0)
(0.310309 0.0101141 0)
(0.0612795 0.554219 0)
(-0.297182 0.719569 0)
(-0.18811 0.330478 0)
(-0.149554 0.12842 0)
(0.158824 -0.815635 0)
(0.373767 -1.35182 0)
(0.446199 -1.46351 0)
(0.462396 -1.39912 0)
(-0.0611703 0.240363 0)
(-0.434703 0.728767 0)
(-0.576793 0.998531 0)
(-0.633884 0.68872 0)
(-0.308779 -0.170104 0)
(0.0325071 -0.83243 0)
(0.240912 -1.35565 0)
(0.305781 -1.49408 0)
(0.329346 -1.54929 0)
(0.28797 -1.47448 0)
(-0.45914 0.59725 0)
(-0.479206 0.800837 0)
(-0.438316 0.896184 0)
(-0.222836 0.254729 0)
(-0.0249047 -0.513809 0)
(0.127585 -1.2294 0)
(0.192746 -1.49402 0)
(0.23173 -1.52041 0)
(0.136329 -1.3868 0)
(-0.0940686 -0.941984 0)
(-0.384912 0.5511 0)
(-0.311736 0.634017 0)
(-0.127718 0.529519 0)
(-0.0345589 -0.2071 0)
(0.143614 -0.675421 0)
(0.121961 -1.3161 0)
(0.16936 -1.5209 0)
(0.132786 -1.32896 0)
(-0.0533715 -0.884678 0)
(-0.187967 -0.773835 0)
(-0.164548 0.41543 0)
(-0.105307 0.280105 0)
(0.224182 0.108098 0)
(0.0599616 -0.171412 0)
(0.21485 -0.753464 0)
(0.172967 -1.32712 0)
(0.216962 -1.50239 0)
(0.23353 -1.22706 0)
(0.0963173 -0.665297 0)
(0.0857758 -0.629776 0)
(0.0290593 0.330201 0)
(-0.000288388 0.154762 0)
(0.1687 -0.0579497 0)
(0.0142759 -0.152057 0)
(0.172619 -0.743911 0)
(0.178769 -1.31882 0)
(0.226516 -1.49253 0)
(0.249849 -1.24403 0)
(0.0906114 -0.555663 0)
(0.18905 -0.487028 0)
(0.0515572 0.20429 0)
(0.0357183 0.103032 0)
(0.100773 -0.0764072 0)
(-0.112356 -0.121791 0)
(0.0905909 -1.20516 0)
(0.13826 -1.40589 0)
(0.199199 -1.48776 0)
(0.203399 -1.26883 0)
(0.0346275 -0.411955 0)
(0.0728133 -0.400416 0)
(0.224339 0.16019 0)
(0.138331 0.251446 0)
(0.097653 0.105003 0)
(-0.049632 -0.0747838 0)
(0.0651129 -1.39786 0)
(0.0501647 -1.52853 0)
(0.113198 -1.53522 0)
(0.0740156 -1.16095 0)
(-0.15336 -0.258225 0)
(-0.077443 -0.309736 0)
(0.224407 0.151326 0)
(0.220463 0.208347 0)
(0.259944 0.281019 0)
(-0.0089491 0.0501702 0)
(0.0532796 -1.44345 0)
(0.0135159 -1.54292 0)
(0.0545982 -1.56151 0)
(-0.0375026 -0.442247 0)
(-0.182449 -0.238948 0)
(-0.13906 -0.283361 0)
(0.132187 0.0941954 0)
(0.0988182 0.2518 0)
(0.0198594 0.533019 0)
(-0.0299555 0.256919 0)
(0.0735064 -1.45003 0)
(0.0178654 -1.5437 0)
(0.0477723 -1.5552 0)
(-0.012791 -0.281189 0)
(-0.108825 -0.223699 0)
(-0.104426 -0.305152 0)
(-0.0952512 0.249579 0)
(-0.227979 0.34353 0)
(-0.0414749 0.472926 0)
(0.0138685 0.130699 0)
(0.099002 -1.43567 0)
(0.0512768 -1.55062 0)
(0.0952991 -1.55295 0)
(0.154128 -0.234445 0)
(0.106918 -0.0995381 0)
(0.249197 -0.243153 0)
(-0.386757 0.194862 0)
(-0.420644 0.197347 0)
(-0.365964 0.0962626 0)
(-0.047592 -0.0830943 0)
(0.0659272 -1.51669 0)
(0.020507 -1.56223 0)
(0.0526301 -1.53545 0)
(0.0719 -0.593047 0)
(0.284701 -0.306158 0)
(0.364975 -0.267213 0)
(-0.22304 0.267222 0)
(-0.243781 0.232155 0)
(-0.310123 0.0362726 0)
(-0.0427666 -1.10779 0)
(0.0144584 -1.52966 0)
(-0.00188812 -1.54406 0)
(-0.00360596 -1.51423 0)
(-0.0102518 -0.826303 0)
(0.107037 -0.572483 0)
(0.16584 -0.508774 0)
(-0.0744323 0.22598 0)
(0.0053225 0.197296 0)
(-0.0407071 0.131784 0)
(-0.0523768 -1.28213 0)
(0.00589356 -1.53864 0)
(-0.0041934 -1.54301 0)
(0.0132972 -1.51051 0)
(0.0068418 -0.862384 0)
(0.0082545 -0.599325 0)
(0.028534 -0.492645 0)
(-0.0645452 0.121038 0)
(0.0264583 0.193491 0)
(-0.0435718 0.324056 0)
(0.00796958 -1.32564 0)
(0.00818046 -1.53878 0)
(-0.00117089 -1.53579 0)
(-0.00724877 -1.50275 0)
(-0.0219878 -0.864416 0)
(-0.0341035 -0.62419 0)
(-0.0494441 -0.486614 0)
(-0.250537 -0.0565491 0)
(-0.106655 0.120051 0)
(-0.099962 0.330218 0)
(0.0207856 -1.46884 0)
(0.00694426 -1.51897 0)
(-0.00383127 -1.51904 0)
(0.00178494 -1.4927 0)
(-0.0191556 -0.731226 0)
(-0.0884358 -0.531188 0)
(-0.123089 -0.426771 0)
(-0.144035 -0.144903 0)
(-0.154372 -0.118847 0)
(0.00755217 -0.138591 0)
(0.0134574 -1.47108 0)
(0.00874206 -1.51039 0)
(-0.0028221 -1.50992 0)
(0.00460514 -1.47622 0)
(-0.00703162 -0.646424 0)
(-0.0738058 -0.401012 0)
(-0.126137 -0.394968 0)
(-0.0669641 -0.166711 0)
(-0.108249 -0.0161265 0)
(-0.00133075 -0.0638264 0)
(0.0121411 -1.48462 0)
(0.00562775 -1.49684 0)
(-0.00751228 -1.50001 0)
(-0.00611546 -1.46691 0)
(-0.0205471 -0.616306 0)
(-0.0410748 -0.295925 0)
(-0.105836 -0.351183 0)
(-0.171948 -0.163922 0)
(-0.19548 -0.156169 0)
(0.0227615 -0.549298 0)
(0.0100273 -1.46727 0)
(0.00400915 -1.48383 0)
(-0.00906283 -1.48251 0)
(-0.0164076 -1.43911 0)
(-0.0366191 -0.622595 0)
(-0.0177297 -0.222215 0)
(-0.0682089 -0.284009 0)
(-0.0155814 -0.125427 0)
(-0.034915 -0.225745 0)
(0.0416627 -0.601084 0)
(0.0118324 -1.38282 0)
(0.00854963 -1.46443 0)
(-0.00546768 -1.46388 0)
(-0.00723256 -1.40678 0)
(-0.0317954 -0.61209 0)
(-0.0167715 -0.199933 0)
(-0.0353159 -0.199065 0)
(-0.00861116 -0.15017 0)
(-0.0120415 -0.205107 0)
(0.0311471 -0.633996 0)
(0.00917384 -1.36585 0)
(0.00726674 -1.44596 0)
(-0.0069276 -1.44793 0)
(-0.0110599 -1.38405 0)
(-0.0173719 -0.62874 0)
(0.0136708 -0.21526 0)
(0.00271999 -0.167016 0)
(-0.095315 -0.200491 0)
(-0.0379319 -0.388494 0)
(-0.000287644 -0.697524 0)
(-0.0147347 -1.35472 0)
(0.00152716 -1.42754 0)
(-0.0131159 -1.42818 0)
(-0.0319192 -1.40827 0)
(-0.0345729 -0.609186 0)
(-0.0258833 -0.23522 0)
(-0.0304461 -0.141741 0)
(-0.0374618 -0.280067 0)
(-0.00714219 -0.457142 0)
(0.0116374 -0.707911 0)
(0.0144812 -1.35424 0)
(0.0075944 -1.41308 0)
(-0.00632583 -1.40956 0)
(-0.00697905 -1.38825 0)
(-0.0303092 -0.609338 0)
(-0.0174286 -0.284277 0)
(-0.00101581 -0.213396 0)
(0.0436931 -0.285902 0)
(0.0372775 -0.445419 0)
(0.0289355 -0.698061 0)
(0.00983795 -1.33356 0)
(0.00724835 -1.39409 0)
(-0.00699428 -1.39445 0)
(-0.0125361 -1.33231 0)
(-0.0399812 -0.562933 0)
(-0.0380009 -0.290046 0)
(-0.0425216 -0.239233 0)
(0.0443083 -0.29968 0)
(0.0339107 -0.404335 0)
(0.0209696 -0.679383 0)
(0.00594695 -1.31027 0)
(0.00604954 -1.37697 0)
(-0.00747733 -1.37633 0)
(-0.012104 -1.30512 0)
(-0.0256366 -0.554169 0)
(-0.0246706 -0.272353 0)
(-0.0338893 -0.232486 0)
(0.0441737 -0.297104 0)
(0.0146056 -0.381966 0)
(0.0195091 -0.673665 0)
(0.0059146 -1.29891 0)
(0.00721587 -1.36112 0)
(-0.00668776 -1.3603 0)
(-0.00619137 -1.29715 0)
(-0.00338844 -0.591733 0)
(0.00672215 -0.270918 0)
(-0.0128075 -0.220717 0)
(0.0426935 -0.234042 0)
(0.0190782 -0.346446 0)
(0.0116855 -0.658128 0)
(0.00650465 -1.30307 0)
(0.00763186 -1.34485 0)
(-0.00588204 -1.34505 0)
(-0.00227039 -1.30036 0)
(-0.0104821 -0.605051 0)
(0.00429396 -0.276663 0)
(0.00251311 -0.215147 0)
(0.0235028 -0.193185 0)
(0.00981118 -0.321751 0)
(0.00347397 -0.653747 0)
(0.00462882 -1.31467 0)
(0.00627763 -1.33011 0)
(-0.00668387 -1.33299 0)
(-0.00354677 -1.30712 0)
(-0.00186085 -0.591632 0)
(-0.0127145 -0.29599 0)
(-0.00458168 -0.195993 0)
(0.00738266 -0.179755 0)
(-0.0061658 -0.308335 0)
(-0.00705833 -0.659308 0)
(-0.00644447 -1.30579 0)
(0.000163623 -1.31654 0)
(-0.0119453 -1.3192 0)
(-0.0196786 -1.30094 0)
(-0.0241857 -0.531738 0)
(-0.0454945 -0.274059 0)
(-0.0371796 -0.174842 0)
(0.0123288 -0.165197 0)
(-0.0104972 -0.278725 0)
(-0.0131316 -0.662297 0)
(-0.0116255 -1.29737 0)
(-0.00131679 -1.30618 0)
(-0.0121715 -1.30238 0)
(-0.0194585 -1.29581 0)
(-0.0320362 -0.54208 0)
(-0.0399956 -0.24537 0)
(-0.0669834 -0.166228 0)
(0.0170726 -0.162752 0)
(-0.00143414 -0.264449 0)
(0.0231492 -0.686766 0)
(0.0158475 -1.28803 0)
(0.0114276 -1.29757 0)
(0.0014103 -1.29449 0)
(0.0105056 -1.28583 0)
(0.00936301 -0.555437 0)
(-0.00596161 -0.188401 0)
(-0.0752862 -0.0939606 0)
(0.0232497 -0.166934 0)
(0.00107513 -0.253394 0)
(0.0210152 -0.722759 0)
(0.00918081 -1.27994 0)
(0.00759878 -1.28717 0)
(-0.00351267 -1.28939 0)
(0.00284629 -1.27601 0)
(0.00507194 -0.479409 0)
(-0.0385506 -0.0409982 0)
(-0.102082 -0.028145 0)
(0.0508417 -0.154063 0)
(0.00436253 -0.213183 0)
(0.00756016 -0.711674 0)
(-0.00303405 -1.26805 0)
(0.00367992 -1.27786 0)
(-0.00694599 -1.2776 0)
(-0.0114674 -1.26602 0)
(-0.0125023 -0.556185 0)
(0.00519433 0.0418226 0)
(-0.0751028 -0.0286997 0)
(0.06239 -0.0997872 0)
(0.0202946 -0.165203 0)
(0.0290505 -0.718378 0)
(0.0126104 -1.26086 0)
(0.0122137 -1.26961 0)
(-0.00182946 -1.26426 0)
(0.00170786 -1.25992 0)
(-0.0145735 -0.656585 0)
(0.0512205 0.171657 0)
(-0.0205123 0.0553261 0)
(0.0505335 -0.0406943 0)
(0.0250609 -0.148169 0)
(0.0489763 -0.704513 0)
(0.0230645 -1.24294 0)
(0.0131187 -1.24801 0)
(0.000170584 -1.25063 0)
(0.00497903 -1.24292 0)
(-0.0149157 -0.668624 0)
(0.0567547 0.0987717 0)
(0.0808814 0.110724 0)
(0.059384 0.00635199 0)
(0.0298347 -0.111627 0)
(0.0214596 -0.676662 0)
(0.00232283 -1.23013 0)
(0.00584091 -1.23103 0)
(-0.0103798 -1.23188 0)
(-0.0163571 -1.22795 0)
(-0.036 -0.666896 0)
(-0.00951971 -0.055395 0)
(0.0433391 0.0774115 0)
(0.0398373 0.0424205 0)
(0.0187361 -0.089226 0)
(0.0252557 -0.656009 0)
(0.0109233 -1.21601 0)
(0.00821366 -1.21004 0)
(-0.00635441 -1.20762 0)
(-0.0076004 -1.2161 0)
(-0.0261134 -0.65067 0)
(-0.0232966 -0.0739896 0)
(-0.0179805 0.0941998 0)
(0.0293912 0.0806897 0)
(0.0164206 -0.0804185 0)
(0.0308982 -0.659942 0)
(0.0167481 -1.20442 0)
(0.0109672 -1.19212 0)
(-0.00533273 -1.19383 0)
(-0.0020855 -1.20348 0)
(-0.0186698 -0.638355 0)
(-0.0213167 -0.114771 0)
(-0.000548335 0.120515 0)
(-0.00522588 0.134156 0)
(0.00816985 -0.0918234 0)
(0.0192004 -0.651587 0)
(0.00263042 -1.19458 0)
(0.00441573 -1.16919 0)
(-0.0107187 -1.17065 0)
(-0.0193606 -1.19351 0)
(-0.0356243 -0.599406 0)
(-0.0363126 -0.16713 0)
(0.013224 0.123558 0)
(-0.0318276 0.131876 0)
(0.00483732 -0.157419 0)
(0.0271594 -0.655542 0)
(0.013529 -1.17352 0)
(0.0096602 -1.15162 0)
(-0.00671459 -1.14896 0)
(-0.00745862 -1.17155 0)
(-0.0152278 -0.5897 0)
(-0.0234348 -0.189942 0)
(0.00144652 0.0861465 0)
(-0.0388379 0.0763921 0)
(-0.00311206 -0.206193 0)
(0.0155688 -0.676274 0)
(0.00820314 -1.15503 0)
(0.00666735 -1.13226 0)
(-0.00774822 -1.13126 0)
(-0.0114047 -1.15252 0)
(-0.0105889 -0.601478 0)
(-0.0223713 -0.173912 0)
(-0.0405017 0.0408914 0)
(-0.0128504 0.0073455 0)
(0.00200809 -0.230225 0)
(0.0143372 -0.703035 0)
(0.00754845 -1.13826 0)
(0.00707693 -1.11579 0)
(-0.0069951 -1.11472 0)
(-0.00778203 -1.13702 0)
(-0.00346219 -0.621107 0)
(-0.00279649 -0.0849887 0)
(-0.0613603 0.00943666 0)
(0.00290032 -0.0444671 0)
(0.00312753 -0.246799 0)
(0.0156691 -0.724676 0)
(0.00830177 -1.12323 0)
(0.00666607 -1.10248 0)
(-0.00643021 -1.10206 0)
(-0.00672984 -1.12138 0)
(-0.021129 -0.618341 0)
(-0.0216552 0.022022 0)
(-0.0141656 -0.0362954 0)
(0.00697585 -0.0717097 0)
(0.00840172 -0.250825 0)
(0.0172172 -0.730181 0)
(0.00740752 -1.10632 0)
(0.00480687 -1.08734 0)
(-0.00731464 -1.08973 0)
(-0.0104125 -1.10571 0)
(-0.0143593 -0.735719 0)
(0.0734833 -0.118193 0)
(0.123978 -0.0656747 0)
(0.0220751 -0.078076 0)
(0.0192376 -0.23715 0)
(0.0101987 -0.717051 0)
(0.000307003 -1.08859 0)
(0.00153659 -1.07376 0)
(-0.0118251 -1.07287 0)
(-0.0192325 -1.08784 0)
(-0.0354479 -0.750286 0)
(-0.00068536 -0.234649 0)
(0.0306969 -0.119519 0)
(-0.0103789 -0.121875 0)
(0.00616867 -0.273999 0)
(0.0119639 -0.71242 0)
(0.00500282 -1.07139 0)
(0.00351656 -1.05869 0)
(-0.0103302 -1.05556 0)
(-0.0156213 -1.07179 0)
(-0.0326602 -0.763181 0)
(-0.0229346 -0.260476 0)
(-0.0257211 -0.132968 0)
(-0.00924983 -0.176923 0)
(0.0191203 -0.298698 0)
(0.0303634 -0.712046 0)
(0.0189626 -1.05469 0)
(0.0104534 -1.03901 0)
(-0.00374665 -1.03652 0)
(-0.00581443 -1.05459 0)
(-0.0144491 -0.751216 0)
(-0.0326036 -0.259003 0)
(-0.0461833 -0.129854 0)
(0.00505519 -0.22068 0)
(0.0232844 -0.313291 0)
(0.0206327 -0.714027 0)
(0.0118232 -1.03618 0)
(0.00771545 -1.01877 0)
(-0.00759609 -1.01958 0)
(-0.0127478 -1.03577 0)
(-0.022958 -0.705858 0)
(-0.0452795 -0.242891 0)
(-0.0623903 -0.0912549 0)
(0.0114383 -0.244751 0)
(0.0238824 -0.324215 0)
(0.0220687 -0.712239 0)
(0.0153186 -1.01993 0)
(0.00841661 -0.998844 0)
(-0.00756259 -0.999259 0)
(-0.0133923 -1.01949 0)
(-0.0173335 -0.642229 0)
(-0.0782829 -0.144038 0)
(-0.100368 -0.0697478 0)
(0.0408048 -0.240643 0)
(0.0316719 -0.319045 0)
(0.0214128 -0.69551 0)
(0.012817 -1.00208 0)
(0.0078863 -0.976787 0)
(-0.0088385 -0.976546 0)
(-0.0147587 -1.00172 0)
(-0.0157864 -0.630055 0)
(-0.0472537 -0.0587139 0)
(-0.101013 -0.0562763 0)
(0.0611671 -0.207957 0)
(0.0344908 -0.273929 0)
(0.0211541 -0.688521 0)
(0.0141065 -0.982531 0)
(0.00788108 -0.956167 0)
(-0.00798532 -0.955827 0)
(-0.013753 -0.98227 0)
(-0.0247065 -0.647816 0)
(-0.00229562 0.0692455 0)
(-0.0406778 0.0412097 0)
(0.0452157 -0.176419 0)
(0.0177681 -0.236595 0)
(0.0200962 -0.694435 0)
(0.0135509 -0.962392 0)
(0.00748352 -0.93531 0)
(-0.00830218 -0.935237 0)
(-0.0141168 -0.962862 0)
(-0.0208589 -0.689977 0)
(0.0300736 -0.0468055 0)
(0.0658207 0.122724 0)
(0.033301 -0.146466 0)
(0.0157899 -0.224498 0)
(0.022711 -0.703967 0)
(0.01371 -0.942014 0)
(0.00800321 -0.914785 0)
(-0.00730966 -0.915253 0)
(-0.0142135 -0.942494 0)
(-0.0202459 -0.699077 0)
(-0.0163765 -0.133968 0)
(0.0500986 0.120113 0)
(0.0351123 -0.120025 0)
(0.0274063 -0.213515 0)
(0.0237692 -0.701861 0)
(0.0148391 -0.92 0)
(0.00711053 -0.894949 0)
(-0.00741914 -0.894075 0)
(-0.014482 -0.920195 0)
(-0.0251231 -0.690748 0)
(-0.0414547 -0.155122 0)
(-0.0130964 0.0216846 0)
(0.0406795 -0.105406 0)
(0.0365872 -0.198685 0)
(0.0233325 -0.687655 0)
(0.0145589 -0.897881 0)
(0.0070784 -0.873525 0)
(-0.00733196 -0.874864 0)
(-0.0149665 -0.898592 0)
(-0.0232553 -0.675146 0)
(-0.0391318 -0.143298 0)
(-0.0451508 -0.0481589 0)
(0.0486198 -0.0891283 0)
(0.0414024 -0.175805 0)
(0.0231495 -0.670083 0)
(0.0157566 -0.876101 0)
(0.00702776 -0.853538 0)
(-0.0078777 -0.852686 0)
(-0.0162172 -0.876166 0)
(-0.0244373 -0.663679 0)
(-0.0389048 -0.0901529 0)
(-0.0539794 -0.0426565 0)
(0.0567754 -0.0625147 0)
(0.0445816 -0.142656 0)
(0.0232145 -0.652573 0)
(0.0160696 -0.853386 0)
(0.00685123 -0.830264 0)
(-0.00808979 -0.830372 0)
(-0.0172133 -0.85367 0)
(-0.0260834 -0.662823 0)
(-0.0244336 -0.0856182 0)
(-0.0143304 -0.0430444 0)
(0.0605781 -0.0286307 0)
(0.0458158 -0.104666 0)
(0.0233133 -0.633102 0)
(0.0163947 -0.830393 0)
(0.00730165 -0.808241 0)
(-0.00833543 -0.807665 0)
(-0.0179334 -0.830534 0)
(-0.0259657 -0.664312 0)
(-0.0198486 -0.119054 0)
(-0.0033569 -0.0459013 0)
(0.0621157 0.0104353 0)
(0.0463123 -0.066493 0)
(0.0238534 -0.614234 0)
(0.0175795 -0.806849 0)
(0.00746428 -0.783932 0)
(-0.00840952 -0.783453 0)
(-0.0190068 -0.806868 0)
(-0.0276248 -0.649208 0)
(-0.0390179 -0.11625 0)
(-0.0372826 -0.0178245 0)
(0.064956 0.0556796 0)
(0.0480888 -0.0218836 0)
(0.0245915 -0.594263 0)
(0.0177921 -0.782229 0)
(0.00747785 -0.759314 0)
(-0.00826369 -0.75856 0)
(-0.0188596 -0.782041 0)
(-0.0279323 -0.639479 0)
(-0.0411955 -0.110668 0)
(-0.0361468 -0.00631989 0)
(0.0594901 0.1007 0)
(0.0464285 0.0183757 0)
(0.0256669 -0.578002 0)
(0.0191632 -0.756879 0)
(0.0076343 -0.734354 0)
(-0.00809474 -0.733617 0)
(-0.0198629 -0.756495 0)
(-0.0283219 -0.624637 0)
(-0.0407503 -0.113134 0)
(-0.0266195 -0.00515011 0)
(0.0480691 0.139002 0)
(0.0442719 0.047395 0)
(0.0274471 -0.563524 0)
(0.020321 -0.730075 0)
(0.00794772 -0.70784 0)
(-0.00740484 -0.706784 0)
(-0.0200146 -0.729264 0)
(-0.0286132 -0.6079 0)
(-0.0450346 -0.119603 0)
(-0.0253749 -0.0158203 0)
(0.0403481 0.165717 0)
(0.0454934 0.0540649 0)
(0.029842 -0.550624 0)
(0.0218153 -0.701538 0)
(0.00754545 -0.68145 0)
(-0.00700931 -0.681341 0)
(-0.0205879 -0.700579 0)
(-0.0282997 -0.584472 0)
(-0.0512054 -0.123683 0)
(-0.0291788 -0.0304661 0)
(0.0435741 0.184461 0)
(0.046902 0.0651971 0)
(0.0298556 -0.529321 0)
(0.0204775 -0.671694 0)
(0.0052408 -0.656323 0)
(-0.00832395 -0.65496 0)
(-0.0227316 -0.670948 0)
(-0.0306582 -0.557372 0)
(-0.0525223 -0.133356 0)
(-0.0297931 -0.0496202 0)
(0.0451696 0.169501 0)
(0.0505111 0.0942194 0)
(0.0255026 -0.505708 0)
(0.0166523 -0.640915 0)
(0.00371126 -0.631781 0)
(-0.00606137 -0.624979 0)
(-0.0237937 -0.640489 0)
(-0.0409023 -0.527623 0)
(-0.0430796 -0.149296 0)
(-0.0258219 -0.0609802 0)
(-0.0147184 0.165864 0)
(0.0250857 0.104234 0)
(0.0455834 -0.51104 0)
(0.0320454 -0.609239 0)
(0.0223117 -0.600497 0)
(0.0102343 -0.606629 0)
(-0.00587395 -0.612349 0)
(-0.0315441 -0.508469 0)
(0.0112785 -0.185818 0)
(-0.0275812 -0.061528 0)
(-0.0669772 0.106842 0)
(-0.0156245 -0.0364921 0)
(0.0237135 -0.549637 0)
(0.0121894 -0.57727 0)
(-0.00693815 -0.567134 0)
(-0.0205149 -0.57804 0)
(-0.0329287 -0.58133 0)
(-0.0694377 -0.520178 0)
(0.0311493 -0.200963 0)
(-0.043044 -0.0351807 0)
(-0.0258266 0.106374 0)
(0.0292751 -0.0999588 0)
(0.0182958 -0.548383 0)
(0.000187631 -0.546046 0)
(-0.0187335 -0.549313 0)
(-0.0365126 -0.547091 0)
(-0.0500924 -0.55069 0)
(-0.0815893 -0.530456 0)
(-0.0448242 -0.209383 0)
(-0.042245 -0.0170153 0)
(0.0237692 0.0653468 0)
(0.0374095 -0.129988 0)
(0.046404 -0.496213 0)
(0.03581 -0.506806 0)
(0.0111729 -0.508178 0)
(-0.00592441 -0.508727 0)
(-0.0185512 -0.508636 0)
(-0.0597375 -0.499608 0)
(-0.0612176 -0.265526 0)
(-0.0543315 -0.0321276 0)
(0.0444935 0.0293527 0)
(0.0562088 -0.184557 0)
(0.0526294 -0.45913 0)
(0.0240464 -0.463461 0)
(0.00295655 -0.474166 0)
(-0.0222007 -0.469461 0)
(-0.0369704 -0.464998 0)
(-0.0608099 -0.447031 0)
(-0.0688305 -0.246751 0)
(-0.0778883 -0.0337795 0)
(0.0631934 0.00591129 0)
(0.0798844 -0.192997 0)
(0.0743944 -0.392906 0)
(0.0527679 -0.424732 0)
(0.0275711 -0.428049 0)
(0.00416223 -0.428846 0)
(-0.0113117 -0.429132 0)
(-0.0512164 -0.410368 0)
(-0.0605449 -0.222323 0)
(-0.0390951 -0.0695718 0)
(-0.0126796 -0.0267451 0)
(0.0694506 -0.265507 0)
(0.0611492 -0.355299 0)
(0.0253032 -0.376258 0)
(0.00709299 -0.383203 0)
(-0.0188848 -0.386753 0)
(-0.0424631 -0.383726 0)
(-0.0680254 -0.366424 0)
(-0.0744077 -0.271261 0)
(-0.0156171 -0.0871405 0)
(0.0754578 -0.0624881 0)
(0.0762759 -0.282765 0)
(0.0697254 -0.314083 0)
(0.0369317 -0.32439 0)
(0.0139306 -0.327526 0)
(-0.0139523 -0.332418 0)
(-0.0377223 -0.335927 0)
(-0.0659753 -0.315123 0)
(-0.0692216 -0.282113 0)
(-0.0887591 -0.136439 0)
(0.104323 -0.167602 0)
(0.0774555 -0.221067 0)
(0.0735371 -0.262045 0)
(0.0472288 -0.284193 0)
(0.0282727 -0.287716 0)
(0.000408505 -0.284142 0)
(-0.0220999 -0.278008 0)
(-0.0617724 -0.264747 0)
(-0.072131 -0.222516 0)
(-0.0891221 -0.204172 0)
(0.0601675 -0.117153 0)
(0.0494425 -0.193732 0)
(0.0436795 -0.234116 0)
(0.0159066 -0.244736 0)
(0.00362676 -0.249312 0)
(-0.0180386 -0.249678 0)
(-0.0270538 -0.243664 0)
(-0.0456116 -0.230106 0)
(-0.0505752 -0.195125 0)
(-0.0559846 -0.135537 0)
(0.56505 -0.0713127 0)
(0.58023 -0.0643554 0)
(0.584682 -0.0605991 0)
(0.599705 -0.0449581 0)
(0.615157 -0.0151077 0)
(0.615171 -0.00206156 0)
(0.615711 -0.00159051 0)
(0.618181 -0.00673017 0)
(0.631533 -0.0223633 0)
(0.653819 -0.030725 0)
(0.671156 -0.0153728 0)
(0.667341 0.00552101 0)
(0.624344 -0.0124067 0)
(0.616212 -0.0201257 0)
(0.624752 -0.0223257 0)
(0.639532 -0.0223934 0)
(0.649217 -0.0193672 0)
(0.655234 -0.00815002 0)
(0.649593 0.0102747 0)
(0.631941 0.0255372 0)
(0.601837 0.0433258 0)
(0.55449 0.057098 0)
(0.502863 0.0632807 0)
(0.45324 0.0602712 0)
(0.412171 0.0558305 0)
(0.387122 0.040579 0)
(0.379076 0.025628 0)
(0.390588 0.0056444 0)
(0.424304 -0.0117959 0)
(0.455733 -0.0128067 0)
(0.468468 -0.00739432 0)
(0.46484 0.000210918 0)
(0.443165 -0.000373239 0)
(0.4102 0.0193794 0)
(0.357982 0.0280757 0)
(0.317397 0.0323082 0)
(0.255258 0.051298 0)
(0.193488 0.040903 0)
(0.145888 0.0759486 0)
(0.0503411 0.117441 0)
(0.525532 -0.0499026 0)
(0.574431 0.0115523 0)
(0.597794 0.012077 0)
(0.593543 -0.00960791 0)
(0.558099 -0.0073014 0)
(0.539913 -0.00945477 0)
(0.541934 -0.00770901 0)
(0.549126 -0.0182265 0)
(0.589487 -0.0422303 0)
(0.64384 -0.0456018 0)
(0.66084 -0.0018149 0)
(0.66307 0.0885547 0)
(0.659819 0.0705798 0)
(0.619467 0.0238873 0)
(0.569859 -0.0213831 0)
(0.567608 -0.0239433 0)
(0.570913 -0.0159212 0)
(0.577679 0.00325657 0)