/*--------------------------------*- C++ -*----------------------------------*\
  =========                 |
  \\      /  F ield         | OpenFOAM: The Open Source CFD Toolbox
   \\    /   O peration     | Website:  https://openfoam.org
    \\  /    A nd           | Version:  8
     \\/     M anipulation  |
\*---------------------------------------------------------------------------*/
FoamFile
{
    version     2.0;
    format      ascii;
    class       volScalarField;
    location    "6.5";
    object      p;
}
// * * * * * * * * * * * * * * * * * * * * * * * * * * * * * * * * * * * * * //

dimensions      [1 -1 -2 0 0 0 0];

internalField   nonuniform List<scalar> 
9150
(
-204.965
-205.99
-206.604
-207.069
-207.305
-207.305
-207.07
-206.602
-205.988
-204.962
-225.018
-225.544
-225.961
-226.288
-226.459
-226.453
-226.277
-225.96
-225.543
-225.016
-244.912
-245.201
-245.455
-245.67
-245.784
-245.789
-245.676
-245.454
-245.2
-244.911
-264.652
-264.831
-264.999
-265.156
-265.239
-265.237
-265.158
-264.999
-264.83
-264.651
-284.274
-284.457
-284.592
-284.722
-284.781
-284.78
-284.724
-284.594
-284.457
-284.274
-118.898
-119.705
-119.417
-119.06
-118.888
-118.902
-119.096
-119.493
-119.776
-118.956
-134.463
-135.173
-135.307
-135.387
-135.281
-135.276
-135.379
-135.299
-135.174
-134.473
-150.932
-151.692
-151.961
-152.339
-152.399
-152.391
-152.333
-151.954
-151.681
-150.926
-167.783
-168.945
-169.383
-170.027
-170.186
-170.192
-170.028
-169.389
-168.953
-167.787
-184.786
-186.884
-187.629
-188.335
-188.609
-188.616
-188.335
-187.626
-186.881
-184.782
-24.5668
-26.2741
-28.299
-29.5641
-30.2981
-30.4738
-30.1186
-29.1456
-27.2218
-26.327
-45.3846
-45.7519
-46.8813
-47.3182
-47.8342
-47.9799
-47.5326
-47.2005
-46.2653
-46.0702
-65.6726
-65.5291
-66.6385
-66.3015
-66.787
-66.9031
-66.3174
-66.8534
-65.8378
-66.0593
-88.5369
-85.6982
-86.7183
-85.2238
-85.3876
-85.4881
-85.2888
-86.9395
-85.8585
-88.7393
-114.272
-104.671
-104.246
-102.852
-102.43
-102.478
-102.86
-104.371
-104.779
-114.475
1261.38
1263.57
1265.39
1266.85
1268
1269.03
1270.02
1271.2
1272.42
1273.49
1239.55
1242.12
1244.07
1245.66
1247.13
1248.3
1249.25
1250.63
1252.01
1253.15
1219.89
1221.63
1222.76
1223.81
1224.63
1225.7
1226.63
1228.44
1230.43
1232.09
1201.02
1201.25
1201.58
1202.23
1201.68
1204.73
1207.4
1206.49
1208.37
1210.53
1183.13
1182.86
1184.56
1184.07
1183.58
1184.06
1185.55
1186.27
1187.56
1189.73
1166.72
1168.16
1167.76
1167.15
1167.1
1167.15
1166.94
1167.17
1168.49
1170.09
1151.67
1150.87
1149.37
1148.98
1147.98
1147.73
1147.74
1148.5
1149.39
1150.49
1130.93
1131.15
1130.62
1130.1
1129.59
1129.41
1129.6
1130.07
1130.69
1131.71
1112.07
1111.61
1111.24
1111.04
1110.89
1110.87
1111.05
1111.39
1111.83
1112.66
1091.29
1091.39
1091.38
1091.44
1091.61
1091.63
1091.87
1092.2
1092.53
1092.93
1071.28
1071.38
1071.51
1071.72
1072.26
1072.45
1072.48
1072.75
1073.08
1073.44
1050.87
1051.23
1051.59
1052.01
1052.41
1052.75
1053.03
1053.32
1053.67
1054.03
1030.9
1031.34
1031.79
1032.32
1032.76
1033.2
1033.62
1033.98
1034.27
1034.59
1011.03
1011.57
1012.1
1012.7
1013.25
1013.76
1014.25
1014.59
1014.86
1015.17
991.272
991.926
992.545
993.223
993.916
994.534
994.975
995.326
995.619
995.812
971.452
972.18
973.035
973.776
974.537
975.269
975.683
976.147
976.409
976.513
950.987
952.016
953.234
954.268
955.173
955.876
956.399
956.707
956.826
956.829
930.241
931.975
933.491
934.605
935.536
936.282
936.77
937.002
937.035
936.923
911.405
913.801
915.479
916.692
917.032
916.97
917.318
917.364
917.191
916.911
895.407
896.998
898.386
899.229
898.675
898.485
898.397
898.149
897.751
897.165
879.171
880.29
880.895
880.935
880.552
880.191
879.727
879.382
879.38
879.132
861.253
862.089
862.671
862.517
862.134
861.762
861.486
861.457
861.273
861.14
843.263
843.623
843.713
843.552
843.365
843.169
842.999
843.011
843.283
843.276
824.88
824.904
824.945
824.91
824.713
824.57
824.497
824.491
824.593
824.692
806.31
806.549
806.465
806.218
806.049
805.923
805.868
805.899
805.98
806.112
787.641
787.686
787.461
787.283
787.105
786.953
786.89
786.901
786.971
787.148
768.386
768.43
768.374
768.197
768.014
767.838
767.66
767.564
767.637
767.775
750.963
750.28
750.028
749.498
749.051
748.477
747.919
747.638
747.67
747.873
732.626
732.542
732.043
732.282
731.371
730.018
728.654
727.843
727.644
727.925
713.434
713.266
712.769
712.25
711.732
712.076
712.013
711.575
710.961
709.847
693.963
693.504
693.421
693.231
693.05
693.565
694.218
694.356
693.587
692.907
675.393
675.109
674.887
674.85
674.804
675.246
676.04
675.982
675.479
674.6
657.031
656.597
656.367
656.36
656.484
656.692
658.66
659.621
655.918
655.39
638.961
638.125
637.799
637.718
637.782
637.861
637.961
637.585
637.227
636.416
621.211
620.491
619.915
619.623
619.567
619.613
619.547
619.142
618.507
617.784
602.98
602.052
601.355
601.019
600.989
600.723
600.639
600.604
600.265
599.662
583.062
582.483
581.965
581.512
581.462
581.125
580.836
581.878
581.868
581.62
564.537
564.085
562.896
562.068
561.499
561.408
561.009
561.898
562.324
562.128
546.706
545.239
542.44
540.718
539.41
538.162
538.554
538.806
539.666
539.863
526.65
524.49
522.458
519.39
517.912
517.372
516.059
516.574
517.914
518.341
505.531
503.486
500.199
497.061
497.333
496.466
496.155
496.519
496.244
497.019
485.136
478.979
475.098
474.081
472.825
473.119
474.458
475.399
476.238
476.32
450.658
450.183
447.752
449.215
451.234
451.81
451.391
450.308
451.726
457.133
409.697
411.08
416.63
416.065
415.023
421.991
425.803
427.858
427.8
430.569
371.294
379.041
378.887
379.542
382.246
388.533
390.43
393.042
400.704
409.476
350.72
350.395
351.436
354.178
353.389
368.44
369.698
387.863
381.142
386.118
328.735
327.211
327.544
331.081
335.485
346.272
348.152
358.419
366.403
373.628
309.839
308.502
309.423
314.318
321.301
328.727
336.342
345.5
355.016
362.886
300.422
298.984
301.111
306.011
312.638
321.074
331.247
343.294
352.99
360.498
308.262
308.088
309.164
312.148
317.212
324.535
334.078
344.879
354.398
356.396
315.033
318.791
320.592
323.135
327.474
332.482
336.187
341.882
347.224
351.613
312.507
316.856
319.927
320.503
324.352
331.276
335.958
339.169
342.743
346.196
313.159
315.589
320.012
323.071
326.976
330.569
331.867
332.774
334.307
336.482
304.044
308.8
312.849
316.622
319.336
321.952
323.611
324.462
325.454
326.336
301.784
304.025
309.233
313.659
316.372
318.106
318.69
318.263
317.386
316.236
296.849
300.348
305.11
310.115
313.355
314.881
314.97
312.98
308.897
306.202
287.665
292.593
296.408
301.469
306.039
309.024
311.43
309.744
303.46
294.959
263.492
269.664
280.027
287.825
293.221
297.653
300.274
298.833
293.087
286.322
223.543
231.56
244.404
259.415
276.271
285.438
287.382
287.13
282.842
273.348
152.997
168.436
188.514
214.939
244.021
266.734
280.996
288.761
274.617
266.077
125.075
130.715
139.561
157.007
194.567
236.389
265.082
280.363
276.796
258.903
115.601
120.234
125.474
134.748
160.292
194.99
238.533
253.803
237.805
228.388
117.329
120.637
122.082
135.318
123.764
140.413
172.035
200.084
191.921
172.506
119.961
120.122
122.682
127.047
111.692
112.305
115.883
112.319
110.515
106.254
126.254
124.021
125.867
122.2
114.99
76.1302
48.1305
20.2046
23.86
44.6928
132.616
130.429
128.251
169.518
126.91
80.376
38.6254
-12.4814
-7.37715
23.5343
130.169
130.326
130.919
173.426
116.177
85.0714
70.8651
36.2817
41.9402
49.0754
119.62
119.404
120.534
145.121
107.609
110.434
111.413
77.9135
77.4961
74.4682
101.648
98.312
96.4091
110.492
108.02
110.622
132.828
87.9566
84.8652
77.9741
88.6572
88.1025
88.316
118.625
87.7502
95.5499
111.511
69.7768
72.4989
64.897
74.5022
77.2019
76.0848
129.274
73.7404
78.7484
64.3781
52.7
47.6571
46.405
63.4466
66.7392
75.5648
102.939
58.1802
68.2527
29.1041
34.9265
31.2733
25.4772
46.7798
43.9136
73.2856
74.8491
60.315
57.4872
16.2277
18.5251
13.9059
11.4358
37.2696
37.2495
64.5907
66.3145
46.2369
43.9548
6.21337
2.72731
4.98411
4.11745
43.2449
48.5983
52.2207
66.2439
36.2868
36.926
3.39892
1.259
2.92877
2.34007
40.2171
46.5234
42.7213
73.4709
31.7835
33.3442
-2.05583
-3.08472
-1.74986
-4.02634
12.4725
34.0743
24.9812
57.482
21.0828
25.1761
-5.53534
-5.84868
-1.64035
-1.45273
-1.41923
0.531359
-1.45909
13.7041
27.7354
19.2784
-2.63984
-2.80863
-1.49659
-1.52559
-1.62243
-1.89458
-4.32449
-5.87559
27.7165
15.9833
-1.23589
-2.12479
-1.49694
-1.5145
-1.45171
-1.37304
-1.25192
-3.52003
26.5603
19.6748
-0.822552
-1.52501
-1.54337
-1.55474
-1.3888
-1.30032
-1.14569
-1.75929
24.9604
22.67
-0.623373
-1.03549
-1.62363
-1.62013
-1.4401
-1.41376
-1.37759
-1.43758
21.9835
25.0524
-1.97997
-1.38923
-1.609
-1.64553
-1.44821
-1.43515
-1.42338
-1.45179
19.7319
24.8877
-2.66724
-1.63775
-1.67119
-1.67682
-1.46142
-1.45237
-1.44443
-1.42029
17.5432
24.7726
-2.10574
-1.7176
-1.71933
-1.71421
-1.48279
-1.47313
-1.46603
-1.4118
15.0263
24.9665
-1.73548
-1.75153
-1.74171
-1.7344
-1.51275
-1.50209
-1.49387
-1.44176
12.5974
24.6804
-1.76159
-1.77581
-1.76367
-1.75594
-1.54349
-1.53471
-1.52805
-1.52425
12.8792
22.5151
-1.83125
-1.79087
-1.7799
-1.773
-1.57451
-1.56911
-1.56641
-1.63832
14.1592
18.6176
-1.89608
-1.79753
-1.79037
-1.7861
-1.60801
-1.6032
-1.60018
-1.71591
11.3308
18.605
-1.94195
-1.81068
-1.80225
-1.79857
-1.6446
-1.63666
-1.63713
-1.72481
11.9798
13.6187
-1.90332
-1.81933
-1.81205
-1.80895
-1.68302
-1.67415
-1.68304
-1.56232
13.3144
7.14692
-2.08142
-1.81792
-1.82338
-1.81899
-1.71777
-1.71784
-1.7236
-1.58986
8.31617
5.52224
-2.41088
-1.82219
-1.83672
-1.83203
-1.75016
-1.75766
-1.72604
-2.21927
3.43755
4.21491
-2.47988
-1.87635
-1.84663
-1.84821
-1.78629
-1.78728
-1.82192
-2.45357
0.613761
2.14884
-1.79691
-1.94624
-1.86493
-1.86495
-1.81172
-1.81192
-1.94488
-1.97466
-0.274589
0.71081
-1.50904
-1.99382
-1.88714
-1.88363
-1.83785
-1.83856
-2.16998
-2.05145
-0.771915
-0.409633
-1.06624
-2.29556
-1.90392
-1.90015
-1.86403
-1.85773
-3.12719
-1.56002
-0.741717
-0.996184
-1.99794
-3.46772
-1.88625
-1.91192
-1.88932
-2.08818
-4.46671
-3.16585
-2.05703
-1.66179
-2.07147
-4.21335
-2.79948
-1.93019
-1.9161
-3.6998
-4.92292
-5.03793
-5.51936
-5.8581
-6.10469
-6.26834
-4.66684
-1.93954
-2.69203
-9.75616
-13.417
-15.0727
-15.6188
-15.5118
-14.7873
-12.8801
-9.78058
-2.79913
1274.29
1274.68
1274.87
1275.09
1275.18
1275.14
1274.99
1274.82
1274.77
1274.6
1274.41
1274.44
1274.48
1274.61
1274.87
1275.4
1276.13
1276.82
1276.85
1276.02
1275.15
1269.11
1267.75
1267.11
1266.97
1267.21
1267.51
1267.97
1268.55
1269.21
1269.68
1269.99
1270.14
1270.08
1270.25
1270.71
1270.95
1269.69
1269.95
1270.04
1254.07
1254.73
1255.19
1255.47
1255.61
1255.63
1255.57
1255.43
1255.22
1254.92
1254.69
1254.47
1254.33
1254.32
1254.38
1254.57
1254.88
1254.88
1253.92
1256.09
1253.16
1249.19
1246.96
1246.12
1245.91
1246.19
1246.77
1247.76
1248.48
1248.84
1249.35
1249.72
1250
1250.26
1250.42
1252.4
1252.57
1251.76
1251.56
1252.09
1233.48
1234.49
1235.51
1235.86
1236.33
1236.16
1236.11
1235.98
1235.7
1235.29
1234.85
1234.31
1233.72
1233.22
1232.8
1232.56
1232.7
1232.68
1232.94
1232.4
1229.64
1226.95
1225.73
1225.23
1225.07
1225.32
1226.07
1227.04
1228.16
1229.29
1230.16
1230.63
1230.8
1230.92
1231.4
1231.77
1232.03
1232.32
1232.44
1232.72
1212.51
1214.21
1215.65
1216.02
1216.49
1216.5
1216.38
1216.31
1216.09
1215.67
1215.12
1214.4
1213.54
1212.6
1211.72
1211.02
1210.23
1209.31
1211.27
1207.31
1205.8
1204.51
1203.65
1202.99
1202.74
1202.98
1203.97
1205.53
1207.27
1208.77
1209.85
1210.99
1211.73
1212.03
1211.37
1211.65
1212.19
1212.32
1212.56
1212.33
1191.89
1193.76
1195.29
1195.75
1196.08
1196.22
1196.18
1196.43
1196.37
1195.84
1195.39
1194.68
1193.75
1192.57
1191.07
1190.35
1191.78
1189.94
1186.39
1186.28
1184.79
1182.63
1181.07
1179.67
1179.31
1179.66
1180.09
1182.13
1185.15
1187.77
1189.7
1190.92
1191.45
1191.83
1193.05
1192.87
1192.44
1192.38
1192.68
1192.69
1171.43
1173.16
1174.41
1175.11
1175.56
1175.79
1175.94
1176.06
1176.02
1176.02
1175.55
1175.05
1174.36
1173.25
1172.46
1172.95
1171.64
1169.16
1166.84
1165.45
1165.03
1161.56
1160.8
1160.25
1160.11
1160.41
1161.19
1162.41
1164.62
1167.59
1169.91
1171.17
1171.83
1172.34
1172.69
1173.44
1174.1
1172.69
1173.44
1173.35
1151.86
1153.01
1153.9
1154.6
1155.02
1155.28
1155.54
1155.69
1155.71
1155.95
1155.85
1155.57
1155.2
1154.52
1154.14
1155.05
1153.18
1150.86
1147.94
1144.95
1145.89
1142.75
1144.07
1143.77
1143.94
1144.56
1145.14
1146.12
1146.66
1148.97
1150.58
1151.28
1151.89
1152.47
1152.84
1153.21
1155.68
1153.55
1153.95
1153.86
1132.44
1133.16
1133.91
1134.27
1135.32
1135.53
1135.24
1135.53
1135.71
1135.85
1135.98
1135.92
1135.93
1135.83
1135.44
1135.34
1134.64
1134.28
1133.05
1129.42
1127.37
1127.09
1127.73
1127.37
1128.2
1129.02
1129.39
1129.46
1129.58
1130.7
1131.31
1134.04
1132.06
1132.85
1133.05
1133.38
1135.31
1134.62
1134.52
1134.47
1112.95
1113.6
1114.03
1114.37
1114.95
1115.2
1115.26
1115.44
1115.76
1115.73
1115.88
1116
1116.01
1115.96
1115.92
1115.72
1114.89
1113.84
1112.54
1111.29
1110.27
1110.26
1110.13
1110.32
1110.67
1114.44
1111.74
1111.74
1111.62
1111.2
1115.26
1114.46
1113.49
1113.39
1113.56
1114.92
1115.72
1115.18
1115.1
1115.17
1093.3
1093.75
1094.18
1094.53
1095.05
1095.3
1095.43
1095.51
1095.56
1095.8
1095.96
1095.9
1096.04
1096.03
1095.87
1095.66
1095.28
1094.49
1093.62
1092.99
1092.72
1092.78
1092.94
1093.23
1093.54
1093.78
1094.05
1094.08
1093.68
1094.42
1096.62
1093.52
1094.79
1093.53
1094.42
1094.85
1095.77
1095.96
1095.99
1096.03
1073.8
1074.19
1074.46
1074.77
1075.13
1075.55
1075.78
1075.91
1075.98
1075.76
1075.94
1076.07
1076.09
1076.14
1076.09
1075.94
1075.63
1075.31
1074.93
1074.65
1074.66
1074.64
1074.81
1075.16
1075.43
1075.83
1076.03
1075.56
1074.17
1077.83
1076.78
1076.77
1076.62
1075.84
1077.04
1075.62
1075.9
1075.96
1076.12
1076.32
1054.33
1054.66
1054.97
1055.24
1055.44
1055.61
1055.75
1056.38
1056.39
1055.8
1055.88
1056.02
1056.17
1056.3
1056.49
1056.5
1056.26
1056.27
1056.12
1056.05
1056.13
1056.24
1056.56
1057.01
1057.61
1057.9
1058.07
1057.62
1055.97
1059.05
1058.43
1057.79
1057.57
1057.17
1056.45
1055.36
1054.68
1054.54
1054.68
1055.43
1034.89
1035.18
1035.48
1035.76
1036.01
1036.11
1035.96
1035.85
1035.66
1035.65
1035.64
1035.78
1036.02
1036.27
1036.62
1036.71
1036.79
1036.88
1036.92
1037.03
1037.25
1037.44
1037.68
1038.45
1038.69
1039.35
1039.36
1039.36
1038.25
1039.17
1040.35
1039.86
1037.84
1039.66
1038.27
1037.3
1037.48
1037.51
1036.3
1037.1
1015.43
1015.58
1015.77
1015.97
1016.13
1016.11
1016.1
1016.09
1015.72
1015.32
1015.03
1015.27
1015.66
1016.07
1016.44
1016.77
1017.04
1017.26
1017.44
1017.66
1017.99
1018.27
1018.51
1018.77
1019.27
1019.57
1019.3
1020.19
1020.05
1020.51
1019.58
1019.81
1020.49
1020.83
1021
1020.98
1020.72
1020.61
1019.48
1020.39
995.901
996.064
995.999
995.909
995.886
995.724
995.559
995.312
994.541
994.395
993.929
994.642
995.276
995.905
996.457
996.891
997.265
997.581
997.884
998.169
998.463
998.886
999.149
999.193
999.443
999.655
999.717
1000.08
1000.12
1000.24
1000.41
1002.03
1001.7
1001.85
1003.71
1003.64
1003.3
1002.64
1002.67
1002.83
976.52
976.729
976.546
975.996
975.644
975.365
974.969
974.526
974.628
977.578
975.421
974.746
975.476
976.24
976.807
977.255
977.621
977.956
978.266
978.557
978.812
979.208
979.452
979.551
979.771
979.937
980.083
980.204
980.447
981.365
981.574
981.954
982.51
982.735
983.104
983.319
983.498
983.743
984.105
984.511
956.825
956.859
956.529
955.974
955.501
954.945
954.424
954.676
955.686
956.634
956.909
956.582
956.506
957.154
957.638
957.949
958.231
958.484
958.746
959.012
959.288
959.543
959.758
960.002
960.185
960.274
960.368
960.452
960.585
960.901
961.509
962.309
963.081
963.915
964.468
964.867
965.028
965.186
965.454
965.941
936.681
936.299
936.047
935.819
935.538
935.187
935.014
936.259
937.297
938.236
939.03
939.138
938.247
938.523
938.746
938.833
938.939
939.086
939.282
939.504
939.712
939.93
940.145
940.318
940.434
940.645
940.606
940.641
940.745
941.099
941.704
942.395
943.034
943.803
944.725
945.305
945.424
945.617
945.8
946.148
916.451
916.713
916.16
916.193
916.06
916.144
916.717
918.714
919.804
920.656
921.326
921.116
920.22
920.052
919.897
919.721
919.613
919.609
919.734
919.921
920.113
920.329
920.554
920.749
920.941
921.482
921.555
921.505
921.341
921.554
921.995
922.351
922.493
922.46
923.005
924.964
924.554
925.075
925.963
926.381
897.301
897.401
896.911
897.012
897.094
897.478
898.656
901.552
902.605
903.15
902.846
902.465
901.912
901.228
900.617
900.242
899.984
899.947
900.198
900.428
900.601
900.82
901.111
901.389
901.7
902.16
902.33
902.501
902.745
902.738
903.052
903.053
902.976
903.187
906.545
907.889
905.245
905.696
906.454
906.854
878.885
878.846
878.795
878.67
878.699
879.409
880.051
882.179
883.021
883.365
883.659
883.237
882.313
881.643
881.024
880.649
880.281
880.404
880.713
880.87
880.959
881.157
881.522
881.954
882.367
882.792
883.179
883.556
883.936
884.179
884.402
883.634
884.785
885.528
886.886
887.922
886.972
887.2
887.39
887.405
861.068
861.114
861.26
861.415
861.216
861.601
862.135
862.708
863.283
864.009
864.105
863.895
862.898
861.901
860.842
859.866
860.169
860.292
860.427
860.463
860.678
861.064
861.559
862.143
862.66
863.107
863.739
864.789
864.653
865.58
865.423
866.372
866.972
867.609
868.229
868.832
868.422
868.331
868.104
867.901
843.228
843.181
843.21
843.309
843.44
843.562
843.478
843.205
842.734
842.889
843.223
843.076
842.258
841.545
841.514
842.193
842.537
840.872
839.706
839.842
840.093
840.543
841.177
841.889
842.474
843.027
843.585
844.299
845.06
845.911
846.505
848.223
849.061
849.309
849.491
849.384
849.174
848.719
848.312
848.098
824.762
824.964
825.207
825.459
825.655
825.664
825.216
824.471
822.996
822.256
822.395
822.661
822.872
824.012
823.641
823.154
823.397
823.08
820.356
819.523
819.655
820.057
820.773
821.461
821.931
822.358
822.907
823.705
824.708
825.715
826.513
827.984
831.87
830.517
829.144
829.67
828.914
828.819
828.828
828.544
806.314
806.575
806.899
807.303
807.648
807.805
807.477
806.44
804.746
803.587
803.122
803.645
803.762
805.782
805.755
805.311
805.009
803.957
802.053
800.158
799.284
799.276
799.734
800.474
800.932
801.48
802.193
803.038
803.932
804.887
805.696
806.406
808.708
807.744
808.144
808.463
807.476
808.095
808.215
807.755
787.386
787.655
787.81
788.339
788.81
789.006
788.616
787.268
785.32
783.703
783.077
783.088
783.618
784.765
785.479
784.491
784.632
783.398
780.535
777.477
774.967
775.008
776.883
778.25
778.88
779.765
780.753
781.784
782.866
784.032
785.071
785.879
786.457
786.937
786.795
786.743
786.921
786.923
785.998
785.894
767.99
768.182
768.052
767.971
767.86
767.095
766.058
764.162
762.193
760.559
759.667
760.687
762.387
762.943
762.808
762.865
763.221
762.177
759.394
756.241
756.342
756.764
756.631
756.488
756.94
758.144
759.485
760.658
761.723
762.886
763.98
764.963
765.844
766.332
765.87
765.294
765.972
764.483
764.253
766.079
748.17
748.292
748.163
747.919
746.923
745.228
743.446
740.728
738.616
738.607
739.39
738.437
740.137
740.782
740.122
739.437
739.331
739.705
738.683
737.36
737.666
738.123
738.929
738.965
737.987
737.237
738.618
739.528
740.323
741.188
742.267
743.338
744.391
745.162
744.887
744.317
744.453
743.693
743.061
745.178
728.348
728.558
728.493
728.133
726.794
725.463
723.493
722.859
722.593
721.547
721.031
721.434
721.241
721.472
721.755
721.613
718.137
721.171
720.041
719.74
719.31
719.174
720.356
720.852
718.824
717.313
717.544
717.592
718.409
719.219
719.917
720.741
721.66
722.703
723.154
723.077
723.683
723.823
722.313
727.054
709.591
709.662
709.603
708.457
707.521
706.434
705.407
704.8
705.467
705.472
706.046
706.16
706.108
705.699
704.949
704.248
702.228
705.881
702.751
702.224
701.445
701.032
701.891
701.102
699.915
699.034
697.449
695.899
696.536
696.896
697.562
698.314
698.412
698.837
699.697
702.12
702.285
704.646
701.972
706.904
691.847
691.388
690.679
689.512
688.821
688.122
687.569
687.237
687.377
687.319
687.701
687.529
686.667
685.906
686.984
684.396
683.847
684.446
683.253
682.905
683.45
682.648
681.067
680.404
679.817
678.257
677.567
677.241
675.806
675.959
676.346
676.69
676.736
677.628
678.382
684.223
681.416
686.403
686.539
688.268
673.715
673.057
671.859
670.763
669.654
668.87
668.107
667.788
667.639
667.278
666.772
666.007
665.037
663.936
663.162
662.955
663.09
663.278
663.127
662.287
665.768
661.236
660.616
659.649
658.593
657.497
656.491
655.214
656.054
655.946
656.821
658.176
656.656
658.964
662.85
664.148
668.571
667.698
673.261
670.678
654.572
653.658
652.5
651.183
649.899
648.493
647.271
646.104
645.129
644.095
642.826
642.341
641.363
640.371
640.226
640.948
641.89
642.482
642.277
641.827
640.797
639.061
637.533
636.215
634.974
633.947
633.406
633.167
633.513
635.006
635.807
638.441
641.796
645.209
648.488
651.66
655.228
654.223
653.023
653.136
635.329
634.475
633.285
631.666
629.729
627.852
625.814
623.989
621.876
618.135
614.147
613.419
614.999
615.594
617.611
619.926
622.341
623.115
622.425
621.807
620.864
618.762
615.911
612.956
610.388
609.441
609.139
609.307
610.403
613.981
615.928
619.287
624.348
630.419
632.361
639.072
638.98
637.411
635.999
635.589
616.962
615.948
614.24
612.136
609.776
607.318
605.579
604.097
602.596
597.259
596.3
598.173
594.542
596.067
598.449
600.91
602.84
604.002
604.613
604.426
601.972
597.789
594.699
591.439
588.77
586.958
584.766
584.148
585.394
590.968
595.797
601.725
607.123
611.336
615.474
617.799
620.669
627.596
630.105
630.6
599.868
598.433
595.562
593.177
590.431
587.737
587.598
585.711
586.577
580.616
584.79
583.531
583.704
583.808
584.417
585.186
585.568
585.343
584.503
585.886
584.373
577.389
570.462
561.383
559.656
560.766
560.51
561.029
563.536
568.744
574.414
580.42
586.284
590.847
601.471
611.452
616.866
616.376
613.128
612.933
581.011
579.232
577.448
574.109
571.938
569.971
568.593
566.317
568.049
565.355
569.946
568.155
568.404
568.24
568.379
568.321
568.048
568.871
568.996
568.308
564.15
557.226
548.641
550.171
556.296
546.452
547.295
546.121
543.867
545.756
549.242
556.219
567.034
578.662
585.11
586.408
589.725
593.088
595.758
596.421
562.002
560.675
558.684
556.574
554.405
555.873
548.26
547.099
546.568
547.331
547.057
552.336
550.03
550.664
551.289
551.726
552.235
554.023
554.694
553.638
551.2
544.723
545.157
543.409
544.421
542.608
548.34
551.427
536.617
537.86
542.48
543.128
542.409
551.667
556.884
560.235
560.831
560.372
559.844
560.619
540.119
540.114
539.807
538.943
536.115
534.315
530.497
526.588
524.208
525.106
527.282
531.307
533.188
533.193
534.668
535.683
535.368
537.48
538.383
537.004
540.436
533.597
540.458
540.866
539.976
538.272
535.713
533.64
532.178
531.193
528.278
522.999
518.734
526.385
534.091
534.072
532.948
535.466
538.139
541.985
518.682
519.11
519.1
518.429
517.181
514.786
512.472
508.96
505.899
504.798
508.327
512.659
515.23
516.159
517.574
518.34
519.551
520.619
519.922
524.791
525.581
530.037
532.36
536.509
537.553
536.442
534.778
532.815
529.379
523.748
517.562
510.589
503.049
507.87
519.239
518.524
519.657
519.867
520.955
522.958
497.807
498.725
498.866
505.53
500.202
499.893
499.95
495.065
497.403
494.87
499.352
499.249
501.812
502.739
502.669
501.707
504.254
502.534
502.865
503.336
508.528
513.727
519.62
526.369
531.336
533.526
532.368
527.039
520.701
512.745
508.341
504.403
500.222
503.847
506.445
508.066
511.228
509.611
511.896
519.514
478.396
480.482
480.351
484.142
484.175
474.413
479.099
482.463
486.465
491.521
493.296
493.059
492.553
493.138
491.619
489.861
487.766
487.357
486.068
486.269
491.136
497.036
503.331
510.253
516.773
521.326
519.781
515.135
511.62
502.581
494.686
491.207
488.947
489.644
491.258
491.127
496.498
503.697
505.535
507.388
455.909
459.613
459.974
458.493
460.146
461.643
462.91
469.463
476.929
484.856
489.11
487.673
485.9
483.883
480.574
478.458
474.968
473.305
472.406
472.308
475.051
478.993
482.005
484.911
490.151
495.772
499.212
499.63
493.203
487.332
482.217
479.674
480.063
480.661
481.274
482.13
483.478
489.904
493.443
491.914
434.641
437.915
441.55
443.289
444.726
454.404
448.965
452.412
458.374
464.891
474.267
471.126
470.485
469.983
466.013
462.479
461.087
460.259
459.695
459.101
459.912
462.348
461.341
459.664
450.681
458.783
471.274
476.944
475.478
473.788
472.63
471.351
471.293
471.878
472.155
471.996
472.325
476.162
477.756
478.78
416.51
422.177
426.868
429.336
430.575
431.958
433.581
435.896
441.402
445.913
449.308
456.874
454.84
456.227
450.584
451.644
452.97
456.584
457.851
457.803
457.651
457.538
455.866
453.141
451.193
447.446
453.778
459.591
458.323
459.801
462.77
463.078
463.262
463.6
464.179
464.759
465.002
467.532
472.721
471.233
398.984
407.156
412.369
416.281
420.134
420.878
424.134
427.511
432.461
436.927
439.856
449.77
448.342
448.115
448.609
447.887
446.896
446.026
446.542
447.44
444.36
444.874
442.136
444.46
443.361
440.974
434.304
440.699
443.118
441.183
447.2
452.362
455.043
456.603
458.053
458.68
456.542
461.21
466.159
464.791
386.146
395.584
401.572
406.26
410.141
414.013
417.42
421.075
426.64
431.462
434.89
441.353
442.142
441.616
442.004
440.649
435.603
435.573
435.083
430.599
426.821
425.964
424.19
420.824
417.755
409.038
416.634
416.671
419.807
425.52
429.984
434.665
436.78
441.144
443.67
441.28
441.938
446.84
450.183
455.672
373.132
384.942
391.73
397.096
401.538
406.591
409.486
412.405
416.226
420.821
422.294
433.486
435.543
426.768
428.636
430.313
428.599
423.629
415.427
410.015
406.907
400.641
397.677
390.558
381.577
381.427
388.112
395.563
398.277
401.004
407.705
411.814
413.979
415.508
417.137
420.102
423.859
427.829
430.836
437.843
365.128
376.558
381.535
387.792
392.674
396.763
400.271
402.826
404.981
409.096
415.911
415.125
414.7
414.651
415.245
412.499
407.961
403.921
401.045
393.367
385.081
378.739
375.747
369.279
364.296
366.983
373.162
379.89
386.509
386.037
386.517
387.976
389.079
392.073
394.673
397.659
401.328
405.587
409.674
417.232
361.859
369.482
374.582
379.155
383.504
386.876
388.781
391.022
396.207
393.456
397.904
397.851
398.26
397.667
395.967
393.165
393.025
390.028
379.891
375.49
369.544
360.955
355.373
353.04
354.312
361.409
356.907
365.452
368.774
370.588
370.924
369.133
368.571
369.904
371.76
374.685
378.973
382.98
388.078
395.89
358.157
362.837
366.571
369.788
372.753
375.321
376.909
378.011
378.807
380.461
381.788
382.311
382.285
380.36
377.575
374.339
372.823
366.521
361.772
356.875
350.311
342.912
344.92
344.177
344.842
345.36
344.193
347.182
350.644
353.089
350.088
345.561
342.523
340.932
343.266
348.129
353.986
361.587
367.215
371.583
349.446
352.445
354.898
358.392
360.011
359.884
359.221
359.515
358.924
361.767
364.257
366.345
365.751
362.996
360.286
357.275
353.888
350.275
345.881
341.274
335.889
331.578
331.875
331.265
333.692
335.072
335.336
335.721
334.637
333.037
326.069
314.069
311.591
320.113
324.267
328.258
335.067
340.882
344.141
350.444
338.672
340.218
341.659
343.707
342.768
342.765
340.524
340.228
339.782
341.304
343.532
345.39
342.41
340.315
338.944
337.362
336.203
334.121
331.318
328.703
325.185
322.535
324.175
324.014
324.864
325.645
326.105
326.665
326.614
326.702
324.356
307.02
310.394
313.544
317.135
318.557
323.751
327.856
330.361
329.915
326.58
326.976
328.026
326.992
324.309
318.516
312.124
308.881
309.192
310.468
310.692
306.771
306.208
310.601
314.47
316.019
316.824
316.402
315.694
315.507
314.358
313.223
313.783
315.006
315.416
315.898
316.15
316.347
316.208
319.188
326.456
308.081
312.667
315.577
318.666
322.19
321.332
317.638
320.594
320.626
315.282
311.9
312.275
311.537
308.475
300.521
298.108
298.473
300.707
303.718
303.588
299.182
295.575
293.795
294.882
296.72
299.061
300.686
301.667
302.324
302.677
302.817
303.238
303.373
305.472
306.164
306.171
306.394
305.746
304.528
308.669
305.458
302.931
307.586
310.47
313.648
314.244
310.338
311.695
311.966
299.175
294.262
290.335
289.943
285.883
282.016
281.892
288.337
291.939
295.722
297.197
296.067
291.442
288.247
286.975
285.233
286.237
287.346
288.128
288.755
290.255
292.898
291.951
294.739
295.181
294.794
297.838
297.931
298.182
298.85
296.522
294.321
297.67
298.605
302.223
304.309
303.666
304.044
301.038
299.766
287.429
279.012
272.197
267.761
268.812
269.351
262.635
264.3
277.943
286.163
287.764
282.603
282.702
280.74
278.441
277.567
273.822
273.64
274.109
274.005
274.637
277.546
278.535
279.368
281.193
283.373
285.782
285.817
287.847
290.557
290.839
279.735
281.314
282.411
283.801
285.282
288.664
288.764
289.135
289.77
276.753
267.603
260.597
253.25
250.855
248.193
243.289
242.915
246.258
252.003
258.446
263.317
265.206
263.751
268.956
269.329
260.751
259.723
259.279
258.594
258.548
259.848
264.778
265.661
264.96
267.086
267.329
264.978
264.554
262.946
262.726
262.712
263.325
264.322
265.396
266.459
267.594
269.267
272.324
273.603
266.444
255.43
248.155
238.563
238.37
235.635
231.147
228.398
229.001
228.965
233.92
240.359
243.327
244.319
244.399
262.44
246.393
245.315
244.769
244.386
244.583
245.896
249.382
249.724
249.654
249.695
249.144
248.496
247.102
248.021
247.597
245.942
245.091
245.906
246.92
247.687
248.372
249.65
253.07
254.593
252.734
240.771
230.988
223.03
216.668
211.284
209.609
210.209
210.07
206.556
212.636
214.87
217.765
222.949
226.056
227.571
238.587
230.142
229.298
228.527
227.843
228.385
229.806
230.947
231.427
231.594
231.703
231.697
230.253
230.158
229.317
227.931
224.493
223.576
223.677
223.796
223.106
223.23
225.391
228.97
238.75
223.203
210.064
199.963
193
188.211
184.8
180.657
185.813
191.665
194.323
196.29
205.483
201.397
205.504
212.472
216.711
212.996
207.138
208.123
209.262
210.549
211.558
212.237
212.768
212.847
212.331
211.618
210.881
209.831
208.613
207.577
206.655
205.609
205.146
204.814
204.674
204.762
205.022
209.072
214.061
192.85
183.497
178.638
175.121
174.873
174.528
178.089
175.01
178.892
178.595
179.37
183.446
185.002
184.071
192.3
188.571
206.986
187.955
188.282
191.561
193.093
193.277
193.515
194.052
194.134
193.147
191.571
190.553
189.986
189.458
189.306
188.531
187.431
188.954
188.307
187.777
187.69
185.748
188.789
166.443
160.131
156.198
153.981
153.259
157.138
158.001
161.009
159.177
158.579
156.59
159.053
163.887
165.581
163.324
168.718
170.265
178.916
177.007
175.927
175.271
172.641
171.212
175.65
178.142
177.565
175.505
173.42
172.148
171.407
170.797
170.177
169.605
170.354
172.1