/*--------------------------------*- C++ -*----------------------------------*\
  =========                 |
  \\      /  F ield         | OpenFOAM: The Open Source CFD Toolbox
   \\    /   O peration     | Website:  https://openfoam.org
    \\  /    A nd           | Version:  8
     \\/     M anipulation  |
\*---------------------------------------------------------------------------*/
FoamFile
{
    version     2.0;
    format      ascii;
    class       volScalarField;
    location    "2.7";
    object      alpha.water;
}
// * * * * * * * * * * * * * * * * * * * * * * * * * * * * * * * * * * * * * //

dimensions      [0 0 0 0 0 0 0];

internalField   nonuniform List<scalar> 
9150
(
1
1
1
1
1
1
1
1
1
1
1
1
1
1
1
1
1
1
1
1
1
1
1
1
1
1
1
1
1
1
1
1
1
1
1
1
1
1
1
1
1
1
1
1
1
1
1
1
1
1
1
1
1
1
1
1
1
1
1
1
1
1
1
1
1
1
1
1
1
1
1
1
1
1
1
1
1
1
1
1
1
1
1
1
1
1
1
1
1
1
1
1
1
1
1
1
1
1
1
1
1
1
1
1
1
1
1
1
1
1
1
1
1
1
1
1
1
1
1
1
1
1
1
1
1
1
1
1
1
0.999999
1
1
1
1
1
1
1
1
1
0.999999
1
1
1
1
1
1
1
1
1
1
0.999997
1
1
1
1
1
1
1
1
0.999995
1
1
1
0.999996
0.999987
0.999987
0.999987
0.999989
1
1
1
1
1
1
0.999999
0.999991
0.999993
1
1
1
0.999997
0.999997
0.999999
1
0.999998
0.999992
0.999998
1
1
1
0.999999
0.999999
1
1
0.999999
0.999997
1
1
1
1
0.999999
1
0.999999
0.999997
0.999998
1
1
1
1
1
1
0.999999
0.999999
0.999997
0.999997
1
1
1
1
1
1
1
0.999999
0.999997
0.999997
1
1
1
1
1
1
1
0.999999
0.999998
0.999999
1
1
1
1
1
1
1
1
0.999999
0.999999
1
1
1
0.999989
0.999967
1
1
1
1
1
0.999995
0.999993
1
0.999993
0.999967
1
1
1
1
1
0.999989
0.999924
0.99996
0.999994
0.99999
1
1
1
1
1
0.999999
0.999931
0.999606
0.999883
0.999993
1
0.999999
0.999999
0.999999
0.999999
0.999999
0.999991
0.999569
0.998871
0.999993
1
0.999999
0.999999
0.999999
0.999999
0.999999
0.999999
0.999874
0.998377
0.996167
1
0.999999
0.999999
0.999999
0.999999
0.999999
0.999999
0.999994
0.998495
0.987728
1
0.999999
1
1
0.999999
0.999999
0.999999
0.999999
0.999471
0.98773
1
1
1
1
1
0.999998
0.999998
0.999998
1
0.991477
1
1
1
1
0.999999
0.999998
0.999999
0.999999
1
0.996414
1
1
1
1
1
1
1
1
1
0.998665
1
1
1
1
1
1
1
1
1
1
1
1
1
1
1
1
1
1
1
1
0.999998
1
1
1
1
1
0.999999
1
1
1
0.999998
1
1
1
1
0.999997
0.999996
0.999998
1
0.999999
1
1
1
1
0.999998
0.999996
0.999996
0.999997
1
0.999999
1
1
1
0.999999
0.999998
0.999998
0.999999
1
1
0.999999
1
1
1
0.999999
1
1
1
1
1
1
1
1
1
1
1
1
1
1
1
1
1
1
1
1
1
1
1
1
1
1
1
1
0.999999
0.999999
1
1
1
1
1
1
1
1
1
0.999999
1
1
1
1
1
1
1
1
1
1
1
1
1
1
1
1
1
1
1
1
1
1
1
1
1
1
1
1
1
1
1
1
1
1
1
1
1
1
1
1
1
1
1
1
1
1
1
1
1
1
1
1
1
1
1
1
1
1
1
1
1
1
1
1
1
1
1
1
1
1
1
1
1
1
1
0.973841
0.999999
1
1
1
1
1
1
1
1
0.818573
0.999996
0.999971
0.999982
0.999999
1
1
1
1
1
0.72726
0.999996
0.999945
0.999939
0.999966
0.999996
1
1
1
1
0.82107
1
0.999977
0.999939
0.999939
0.999949
0.999991
1
1
1
0.907843
1
1
0.999988
0.999943
0.99994
0.999949
0.999996
1
1
1
1
1
0.999996
0.999994
0.999944
0.99995
0.999993
1
1
1
0.999997
0.999996
0.999994
0.999986
0.999982
0.999986
0.999994
1
1
1
0.998496
0.996949
0.998617
0.999776
0.999949
0.99998
0.999989
0.999997
1
1
0.937336
0.911018
0.935987
0.974999
0.995543
0.999607
0.999868
0.99987
0.99979
0.999652
0.890877
0.890154
0.889765
0.89003
0.913482
0.942136
0.960529
0.981935
0.995828
0.998
0.939083
0.907429
0.892302
0.888839
0.887947
0.887833
0.887941
0.887941
0.93573
0.992919
0.998481
0.999436
0.994185
0.967424
0.916958
0.887947
0.887833
0.888499
0.889463
0.965965
0.991517
0.999431
0.999999
1
1
0.973001
0.900682
0.908933
0.971489
0.999888
0.98127
0.996316
0.999999
1
1
1
0.999999
0.999999
0.999984
0.999885
0.997999
0.998688
1
1
1
0.999999
0.999999
0.999942
0.999919
0.999575
0.999995
0.999998
0.999999
1
1
0.999996
0.999983
0.999594
0.999594
0.999585
0.999991
0.999996
0.999999
0.999999
0.999999
0.999997
0.999948
0.999929
0.999741
0.999895
0.999946
0.999971
0.999993
0.999998
0.999998
1
1
1
1
1
0.999523
0.999751
0.999959
0.999996
0.999998
0.999999
1
1
1
1
0.996718
0.998303
0.99978
0.999982
0.999996
0.999998
0.999997
0.999996
0.999999
1
0.850239
0.95582
0.998842
0.999921
0.999983
0.999987
0.999967
0.999994
1
1
0.347685
0.549997
0.871062
0.999664
0.999924
0.999692
0.999947
0.999994
1
1
0.309572
0.302714
0.424288
0.978822
0.999154
0.999227
0.999933
0.999994
0.999999
1
0.422094
0.300447
0.296811
0.80987
0.994357
0.999214
0.999937
0.999995
0.999999
1
0.893058
0.296816
0.294871
0.701251
0.99155
0.999395
0.999951
0.999996
0.999999
1
0.941887
0.311804
0.294871
0.668529
0.996862
0.999749
0.999974
0.999998
1
1
0.866115
0.308406
0.288119
0.743822
0.998759
0.999878
0.999987
0.999998
1
1
0.657813
0.263771
0.274759
0.88081
0.999059
0.999904
0.99999
0.999999
1
1
0.461506
0.259389
0.402489
0.961308
0.99948
0.999945
0.999994
0.999999
1
1
0.310312
0.251866
0.612062
0.99116
0.999724
0.999972
0.999997
1
1
1
0.207956
0.217937
0.827728
0.998756
0.999885
0.999989
0.999999
1
1
1
0.160384
0.283955
0.938645
0.99958
0.999963
0.999996
0.999999
1
1
1
0.147191
0.682154
0.99828
0.999886
0.999992
0.999999
1
1
1
1
0.118284
0.864717
0.999521
0.999968
0.999998
1
1
0.999999
0.999999
1
0.288063
0.961857
0.99989
0.999994
1
1
1
0.999995
0.999999
1
0.512541
0.995738
0.999982
0.999999
1
1
1
0.999995
0.999999
0.999999
0.577151
0.998943
0.999994
1
1
1
1
0.999995
0.999999
0.999999
0.597276
0.999604
0.999997
1
1
1
1
0.999995
0.999999
0.999999
0.605473
0.999302
0.999998
1
1
1
1
0.999995
1
1
0.605395
0.998675
0.999996
1
1
1
1
0.999995
1
1
0.593711
0.998663
0.999995
1
1
1
1
0.999998
1
1
0.589772
0.999388
0.999998
1
1
1
1
1
1
1
0.609801
0.999798
0.999999
1
1
1
1
0.999999
1
1.00002
0.654004
0.999938
0.999999
1
1
1
1
0.999991
1
0.975047
0.693965
0.999952
0.999999
1
1
1
1
0.99999
1
0.93364
0.728981
0.999966
0.999999
1
1
1
1
0.999993
0.999999
0.908117
0.763994
0.99998
1
1
1
1
1
0.99999
0.999999
0.880665
0.793985
0.99999
0.999999
1
1
1
1
0.999986
0.999999
0.852425
0.812899
0.999992
0.999994
1
0.999999
0.999999
1
0.999987
0.999997
0.817897
0.82025
0.999992
0.999991
0.999999
0.999999
0.999999
1
0.999987
0.999995
0.773197
0.819258
0.999992
0.999991
0.999999
0.999999
0.999999
1
0.999989
0.99999
0.749679
0.798412
0.999992
0.999992
0.999999
0.999999
1
1
0.999988
0.999987
0.731171
0.775647
0.999992
0.999992
0.999999
0.999999
1
1
0.999985
0.999985
0.707067
0.756855
0.999991
0.999992
0.999999
1
1
0.999999
0.999983
0.999982
0.672646
0.739375
0.999355
0.999992
0.999999
1
1
0.999999
0.999984
0.998704
0.659803
0.730049
0.999587
0.999996
0.999999
0.999999
0.999999
0.999999
0.999995
0.999693
0.68091
0.75432
0.999988
0.999998
0.999998
0.999999
0.999998
0.999999
0.999999
0.999982
0.715361
0.787195
0.999989
0.999999
0.999998
0.999998
0.999998
0.999998
0.999999
0.999985
0.759099
0.825861
0.999995
0.999999
0.999999
0.999998
0.999998
0.999999
1
1.00005
0.805487
0.864403
1
0.999999
1
0.999998
0.999999
1
1
0.999997
0.851384
0.907773
1
1
1
1
1
1
1
1
0.90115
0.952385
1
1
1
1
1
1
1
1
0.950119
0.999992
0.999992
0.999992
0.999998
1
1
1
1
0.999998
0.999998
0.999998
0.999998
1
1
1
1
1
0.999999
0.999999
0.999999
0.999999
1
1
1
1
1
1
1
1
0.999999
0.999998
0.999998
0.999999
1
1
1
1
1
1
0.997591
0.999998
0.999994
0.999998
1
1
1
1
1
1
1
1
1
1
1
1
1
1
1
1
1
1
1
1
1
1
1
1
1
1
1
1
1
1
1
1
1
1
1
1
0.99762
1
1
1
1
1
1
1
1
0.999998
0.999998
0.999999
1
1
1
0.999999
0.999999
0.999999
1
1
1
1
1
1
1
1
1
1
1
1
1
1
1
1
1
1
1
1
1
1
0.997596
1
1
1
1
1
1
1
1
1
1
0.999999
1
1
1
1
1
1
1
1
1
1
1
1
1
1
0.999999
1
1
1
1
1
1
1
1
1
1
1
1
1
0.997603
1
1
1
1
1
0.999999
0.999999
0.999999
1
1
1
1
1
1
1
1
1
1
1
1
1
0.999999
0.999998
0.999998
0.999998
0.999998
0.999998
1
1
1
1
0.999995
0.999964
0.999989
1
1
1
1
0.999996
0.999495
1
1
1
1
0.999999
0.999999
0.999999
1
1
1
1
1
1
1
1
1
1
1
1
0.999999
0.999995
0.999992
0.999993
0.999998
1
1
1
1
1
1
1
0.999998
0.999658
0.999403
1
1
1
0.999999
0.999999
1
1
1
1
0.999999
0.999999
0.999999
1
1
1
1
1
1
1
1
1
1
1
1
0.999998
0.999991
0.999991
0.999992
1
1
1
1
1
1
1
1
1
0.999999
0.998947
0.994129
1
1
1
1
1
1
1
1
0.999999
0.999999
0.999999
1
1
1
1
0.999999
0.999999
1
1
1
1
1
1
1
0.999994
0.999991
0.999991
0.999994
1
1
1
1
1
1
1
1
1
0.999997
0.999851
0.973793
0.890026
0.891932
0.988771
1
1
1
1
1
1
1
1
1
1
1
0.999999
0.999997
0.999997
1
1
1
1
1
1
1
0.999998
0.999992
0.999991
0.999991
0.999998
1
1
1
1
1
1
1
1
1
0.999061
0.910712
0.851938
0.851897
0.851858
0.856199
0.858833
0.85983
0.999967
0.999989
1
1
1
1
1
1
0.999997
0.999997
0.999998
1
1
1
1
1
1
0.999999
0.999999
0.999999
0.999993
0.999991
0.999992
0.999998
1
1
1
1
1
1
1
1
1
1
0.999083
0.920241
0.848063
0.84775
0.847537
0.844496
0.999967
0.999978
1
1
0.999998
0.999998
0.999999
1
0.999999
0.999997
0.999999
1
1
1
1
0.999999
0.99999
0.999987
1
1
1
0.999998
0.999994
0.999994
0.999996
1
1
1
1
1
1
1
1
1
1
0.999999
0.999999
0.999999
0.999999
0.986229
0.99998
0.999995
1
1
0.999999
0.999998
1
1
1
1
1
1
1
1
1
0.999991
0.999981
0.999981
0.999997
1
1
1
0.999997
0.999994
0.999998
1
1
1
1
1
1
1
1
0.999993
0.999967
0.999983
0.999999
0.999999
0.999995
0.999995
0.999993
0.999982
0.999932
0.99997
1
1
1
1
1
1
1
0.999999
1
1
0.999999
0.999983
0.999981
0.999981
0.999993
1
1
1
1
1
1
1
1
1
1
1
1
1
1
0.999999
0.999967
0.999706
0.998968
0.998244
0.99951
0.999991
0.999993
0.999925
0.999669
0.999705
1
1
1
1
0.999959
0.999901
0.999994
1
1
1
1
0.999989
0.999981
0.999981
0.99999
1
1
1
1
1
1
1
1
1
1
1
1
1
1
0.999998
0.999985
0.998512
0.995085
0.995083
0.995587
0.997467
0.998272
0.999925
0.999676
0.999632
0.999888
1
1
0.99994
0.999772
0.999781
0.999986
1
1
1
1
1
0.999991
0.999981
0.999994
1
1
1
1
1
1
1
1
1
1
1
1
0.999999
0.999999
0.999999
0.999927
0.996514
0.995083
0.995083
0.995083
0.995083
0.988261
0.999618
0.999944
0.999632
0.999695
1
0.999989
0.999796
0.999772
0.999772
0.999918
1
1
1
0.999991
0.999991
0.999999
0.999999
0.999999
1
1
1
1
1
1
1
1
1
1
1
1
1
1
1
0.999999
0.997869
0.995246
0.995083
0.99509
0.995083
0.987872
0.999159
0.999987
0.999675
0.999681
0.999996
0.999994
0.999832
0.999772
0.999832
0.999952
0.999868
0.997952
0.99807
1
1
1
1
1
1
1
1
1
1
1
1
1
1
1
1
0.999999
1
0.999999
0.999999
0.999998
0.999893
0.999764
0.999334
0.998941
0.996544
0.99515
0.999697
0.999995
0.999759
0.999711
0.999995
0.999995
0.999973
0.999904
0.999944
0.999853
0.997158
0.996038
0.996036
0.998392
1
1
1
1
1
1
1
1
1
1
1
0.999999
1
1
1
0.999999
0.999999
0.999999
0.999998
0.999995
0.99999
0.999987
0.999985
0.999982
0.999979
0.971752
0.999602
0.999995
0.999963
0.999948
0.999989
0.999942
0.999952
0.999965
0.999964
0.998262
0.996038
0.996037
0.996036
0.996034
0.998014
1
1
1
1
1
1
1
1
1
0.999999
0.999999
1
1
0.999999
0.999999
0.999999
0.999999
0.999978
0.999682
0.999789
0.999842
0.999982
0.999931
0.999969
0.963648
0.999991
0.999995
0.999995
0.999995
0.999932
0.99985
0.999868
0.999966
0.999966
0.999179
0.996032
0.996036
0.996034
0.996033
0.997257
1
1
1
1
1
1
1
1
0.999999
0.999999
0.999999
0.999999
1
0.999997
0.999972
0.999964
0.999872
0.999626
0.998142
0.999668
0.997802
0.992515
0.984261
0.996503
0.976031
0.912333
0.999995
0.999995
0.999995
0.999897
0.99985
0.99985
0.999892
0.999974
0.999963
0.99927
0.998339
0.997958
0.997321
0.998649
1
1
1
0.999999
0.999999
0.999999
0.999999
0.999999
0.999999
0.999999
0.999998
0.999985
0.999994
0.999987
0.995141
0.970677
0.959534
0.986648
0.998248
0.999962
0.996623
0.973528
0.972576
0.973839
1
0.686812
0.786469
0.999836
0.999994
0.999943
0.99985
0.99985
0.99985
0.999967
0.999997
0.999997
0.99999
0.99998
0.999989
0.999991
0.999991
1
0.999999
0.999989
0.999981
0.999993
0.999999
0.999999
1
1
1
0.993122
0.970787
0.966643
0.948548
0.926772
0.926772
0.945352
0.997657
0.999966
0.997476
0.97455
0.972468
0.97247
1
0.686148
0.505508
0.943124
0.999993
0.99998
0.999921
0.99985
0.99987
0.999984
0.999997
0.999997
0.99999
0.9987
0.997695
0.99549
0.999966
0.999999
1
0.99998
0.999964
0.999965
0.999997
1
1
1
0.999
0.954825
0.926772
0.926763
0.926771
0.926772
0.926772
0.932592
0.995219
0.999977
0.99966
0.996434
0.979508
0.972468
1
0.812339
0.503178
0.516246
0.964875
0.99998
0.999977
0.999965
0.999977
0.999996
0.999997
0.999997
0.999998
0.996048
0.957851
0.958047
0.995664
0.999992
1
0.999998
0.999968
0.999965
0.999986
0.999999
1
1
0.988302
0.92678
0.926764
0.926756
0.926764
0.926771
0.926776
0.971355
0.999331
0.999986
0.99998
1
0.999517
0.972525
1
1
0.501825
0.443918
0.718959
0.999989
0.999997
0.999998
0.999998
0.999998
0.999998
0.999998
0.999998
0.96631
0.951228
0.951228
0.978036
0.999984
1
0.999999
0.999999
0.999983
0.999986
0.999997
0.999998
1
0.983483
0.926758
0.926756
0.926738
0.931507
0.929831
0.954419
0.996677
0.99999
0.999992
1
1
1
0.990559
1
1
0.828852
0.442411
0.343725
0.828759
0.999991
0.999998
0.999998
0.999998
0.999998
0.999998
0.988627
0.95123
0.951228
0.951228
0.968503
0.999267
0.999995
0.999999
0.999999
0.999999
0.990929
0.967847
0.977025
0.998732
0.99805
0.93861
0.926783
0.928148
0.992861
0.999912
0.999986
0.999276
0.999931
1
1
1
0.999999
1
1
1
0.999999
0.557081
0.342624
0.342515
0.80845
0.999991
0.999998
0.999998
0.999998
0.999998
0.998442
0.956003
0.951229
0.951228
0.951229
0.99118
0.999983
0.999999
0.999999
0.999994
0.936572
0.911591
0.911559
0.944853
0.988975
0.986919
0.928598
0.950821
0.997166
0.999996
1
1
1
1
1
1
0.999999
0.999999
0.999999
0.999999
1
0.847414
0.344201
0.296374
0.31668
0.704595
0.978728
0.999998
0.999998
0.999998
0.999998
0.998343
0.955181
0.951229
0.951286
0.983029
0.999925
0.999995
0.999992
0.940507
0.911418
0.911504
0.911425
0.911587
0.921005
0.993648
0.999949
0.997821
0.997176
0.999749
0.999999
1
1
1
1
1
0.999997
0.999975
0.999999
0.999998
1
0.999999
0.445028
0.295032
0.294232
0.294901
0.492118
0.860262
0.999995
0.999998
0.999994
0.999994
0.987773
0.951295
0.960001
0.995712
0.999429
0.998511
0.935374
0.91141
0.911268
0.911341
0.911339
0.919282
0.977125
0.999985
0.999993
0.999996
0.999997
0.999998
0.999999
0.999999
1
0.999999
1
1
0.999995
0.999963
1
0.999999
1
0.991057
0.529753
0.294507
0.29458
0.294419
0.294729
0.488634
0.956699
0.999957
0.999993
0.999993
0.998965
0.99008
0.994806
0.98874
0.969979
0.91328
0.912906
0.911883
0.91119
0.945262
0.999275
0.999971
0.999981
0.999983
0.999984
0.999964
0.999715
0.999836
0.999997
1
1
1
1
1
1
0.999965
1
1
1
0.954816
0.493589
0.294708
0.294512
0.294363
0.294607
0.485987
0.966327
0.999774
0.999829
0.999593
0.999868
0.999903
0.999902
0.947453
0.915995
0.914598
0.916917
0.979154
0.999913
0.999959
0.999963
0.999964
0.999964
0.999983
0.999983
0.999943
0.999702
0.999702
0.999767
0.99999
0.999999
1
1
1
1
1
1
1
1
0.871164
0.353867
0.294596
0.294311
0.294467
0.331308
0.837498
0.998414
0.99862
0.998568
0.99972
0.999903
0.999902
0.990217
0.931348
0.917201
0.966996
0.999655
0.999812
0.99992
0.999962
0.999965
0.999966
0.999973
0.999981
0.999978
0.999703
0.999885
0.999895
0.999895
0.99998
1
1
1
1
1
0.999992
1
1
0.987295
0.648599
0.294701
0.294311
0.294518
0.348997
0.840252
0.994568
0.994712
0.994726
0.997182
0.999912
0.999901
0.999895
0.987489
0.990403
0.996301
0.995916
0.990691
0.992095
0.999034
0.999954
0.999963
0.99996
0.999971
0.99998
0.999976
0.978415
0.940694
0.977084
0.999946
0.999995
1
1
1
1
1
0.999791
1
1
0.849085
0.32749
0.294922
0.294607
0.434477
0.907475
0.994165
0.994227
0.994181
0.994839
0.998177
0.999998
0.999656
0.999732
0.999871
0.999859
0.99622
0.953431
0.953192
0.989486
0.999623
0.999877
0.999691
0.999904
0.999968
0.999974
0.946824
0.924733
0.924647
0.924733
0.949262
0.999719
0.999994
1
1
1
0.999997
0.99968
1
0.965941
0.507286
0.295176
0.295095
0.535442
0.96109
0.993894
0.99385
0.994291
0.996444
0.999876
0.999999
0.999999
0.999998
0.999998
0.999985
0.987372
0.819051
0.820495
0.945892
0.999355
0.999498
0.996364
0.979207
0.989033
0.999932
0.970252
0.924826
0.924647
0.924723
0.970853
0.972144
0.899819
0.91544
0.994657
0.999999
1
0.999922
0.999679
1
0.808584
0.358325
0.296565
0.578178
0.978044
0.994719
0.993828
0.994467
0.997541
0.999997
0.999999
0.999999
0.999999
0.999999
0.999997
0.972386
0.711533
0.71349
0.83858
0.998314
0.999832
0.999563
0.977177
0.969982
0.970036
0.98622
0.998255
0.949546
0.926052
0.979272
0.999642
0.999578
0.894997
0.894008
0.926422
0.998367
0.999982
0.999802
0.999679
0.920084
0.526631
0.35903
0.603229
0.97932
0.996922
0.995635
0.99386
0.99634
0.999948
0.999999
0.999999
0.999999
0.999999
0.999998
0.97742
0.635631
0.634111
0.773599
0.997762
0.999832
0.999859
0.997279
0.971093
0.970219
0.970028
0.980355
0.999708
0.999845
0.999825
0.999799
0.999711
0.999646
0.934131
0.892835
0.891759
0.977262
0.999847
0.999847
0.99968
0.557437
0.467768
0.521566
0.922635
0.998229
0.998251
0.995405
0.995755
0.999677
0.999999
0.999996
0.999999
0.999999
0.999999
0.999963
0.598719
0.562794
0.706576
0.993427
0.999827
0.999859
0.999864
0.999865
0.991228
0.974644
0.991269
0.999875
0.999873
0.999856
0.997644
0.999468
0.999648
0.999646
0.993586
0.892715
0.891759
0.977247
0.999839
0.999953
0.999679
0.467768
0.467768
0.722555
0.996622
0.998485
0.998871
0.99905
0.999819
0.999999
0.999999
0.999998
1
1
1
0.685799
0.4076
0.556499
0.970669
0.999782
0.999848
0.999858
0.999865
0.999869
0.999871
0.999873
0.999873
0.999874
0.999873
0.999872
0.996103
0.999559
0.999644
0.999648
0.958392
0.894173
0.91019
0.991719
0.99981
0.999995
0.999688
0.471084
0.506789
0.89238
0.998109
0.998307
0.997535
0.997864
0.999663
0.999999
1
1
1
1
0.864437
0.396966
0.401384
0.83476
0.999605
0.999849
0.999861
0.99962
0.999851
0.999865
0.99987
0.999872
0.999872
0.999873
0.999873
0.999861
0.872488
0.666875
0.823456
0.973651
0.876124
0.910343
0.981866
0.998964
0.999921
0.999996
0.999924
0.476295
0.516964
0.892735
0.994341
0.994443
0.990271
0.99327
0.999514
0.999998
1
1
1
1
0.528558
0.3887
0.463909
0.926234
0.999658
0.999861
0.999872
0.999345
0.997469
0.99962
0.999853
0.999869
0.999872
0.999873
0.999875
0.877589
0.297669
0.0691581
0.376602
0.81283
0.927507
0.992693
0.999911
0.999993
0.999996
0.999997
0.999997
0.493175
0.505945
0.880565
0.991978
0.947705
0.893636
0.965134
0.999854
0.999989
0.999999
1
1
0.866385
0.395479
0.388296
0.447275
0.916172
0.999572
0.999873
0.999883
0.99988
0.98439
0.992232
0.998826
0.999591
0.999869
0.999872
0.998045
0.438647
0.0196227
0.0063576
0.0490537
0.559746
0.990238
0.999898
0.999988
0.999996
0.999997
0.999997
0.999997
0.597122
0.514137
0.815459
0.988164
0.924548
0.879487
0.884484
0.979667
0.999879
0.999991
0.999999
1
0.775997
0.388296
0.387438
0.387697
0.820891
0.997843
0.999836
0.999882
0.999883
0.98955
0.86857
0.936839
0.997957
0.999673
0.999868
0.920262
0.192226
0.00657102
0.00240153
0.0045087
0.16514
0.776081
0.993557
0.999996
0.999997
0.999997
0.999997
0.999997
0.790061
0.525975
0.630472
0.950576
0.949024
0.877372
0.874698
0.888407
0.985786
0.999899
0.999994
0.999999
0.843424
0.392359
0.386593
0.387037
0.549122
0.964089
0.999596
0.999877
0.999882
0.999877
0.79257
0.747576
0.974555
0.999639
0.999851
0.889414
0.118987
0.00275942
0.00141025
0.00173158
0.00883257
0.157042
0.458733
0.683083
0.777019
0.801219
0.798246
0.747345
0.988204
0.636227
0.59405
0.765355
0.930579
0.924079
0.874698
0.874951
0.900655
0.992561
0.999947
0.999994
0.99632
0.569064
0.387074
0.386593
0.412771
0.883636
0.99949
0.999856
0.999877
0.999867
0.808923
0.713211
0.890729
0.999307
0.999814
0.92613
0.18123
0.00153518
0.00113017
0.00114957
0.00136786
0.00285957
0.0128927
0.052759
0.0871864
0.0972218
0.0918813
0.0675157
0.999994
0.987565
0.671606
0.665228
0.887031
0.972386
0.900287
0.874705
0.875152
0.931245
0.999101
0.999947
0.999913
0.971137
0.52996
0.387079
0.398057
0.85014
0.998808
0.999337
0.999855
0.999865
0.934291
0.713129
0.719548
0.990428
0.998475
0.974126
0.402087
0.00114524
0.00108639
0.00108428
0.00108383
0.0011777
0.00141726
0.00173846
0.00178214
0.00169468
0.00151535
0.00143856
0.999876
0.999947
0.999958
0.811934
0.895011
0.976169
0.977516
0.884217
0.874705
0.891473
0.991015
0.999848
0.999954
0.999972
0.999977
0.614189
0.580296
0.913999
0.99647
0.997007
0.992163
0.999404
0.998923
0.744747
0.671183
0.907477
0.998376
0.997951
0.706503
0.00109284
0.0010847
0.00105842
0.00107035
0.00101676
0.00107526
0.00109696
0.00114294
0.00113036
0.00114288
0.00115127
0.999817
0.999958
0.999958
0.997607
0.966284
0.972849
0.979932
0.97969
0.883959
0.935899
0.998736
0.999866
0.999949
0.999967
0.999981
0.999987
0.999987
0.990004
0.995935
0.999261
0.962137
0.956489
0.990412
0.921949
0.671183
0.712357
0.998199
0.996796
0.947098
0.266888
0.00107923
0.00107619
0.00103788
0.00099136
0.00103504
0.00108246
0.00109248
0.00112386
0.00112461
0.00112719
0.999655
0.999958
0.999972
0.991686
0.922444
0.907912
0.935681
0.972182
0.989862
0.994783
0.996579
0.998952
0.999688
0.999461
0.99922
0.999683
0.999985
0.999999
0.999999
0.999999
0.967747
0.913075
0.943353
0.963072
0.759384
0.680641
0.910876
0.996792
0.9974
0.753298
0.0346833
0.00107626
0.001078
0.00107151
0.00104701
0.00106635
0.00109925
0.00111371
0.00112445
0.00112484
0.999697
0.999968
0.999989
0.999991
0.993417
0.94282
0.871166
0.861655
0.861655
0.873729
0.930041
0.971321
0.992874
0.998889
0.999153
0.998814
0.998951
0.999629
0.999999
1
1
0.918179
0.89403
0.951485
0.951036
0.694581
0.606016
0.992449
0.997664
0.996451
0.519074
0.00107835
0.00107835
0.00108068
0.00106384
0.00114246
0.00123632
0.00112541
0.00112337
0.00119651
0.999936
0.999987
0.999991
0.999992
0.999995
0.995562
0.994313
0.993367
0.949971
0.540753
0.480981
0.4808
0.49995
0.880554
0.998019
0.998964
0.999972
0.999997
1
1
1
1
0.927533
0.887782
0.931605
0.961754
0.562085
0.692613
0.997664
0.997664
0.947323
0.274533
0.00106858
0.00106537
0.00105986
0.00107047
0.00126221
0.001437
0.00220269
0.00508194
0.999635
0.999826
0.99999
0.999996
0.999996
0.967929
0.936599
0.945302
0.982667
0.984255
0.984144
0.896267
0.554251
0.522223
0.519195
0.518552
0.712545
0.988788
1.00001
1
1
1
0.999997
0.929702
0.918798
0.939916
0.761459
0.603756
0.650167
0.974928
0.974129
0.907288
0.177882
0.00105952
0.00106183
0.00106263
0.00106792
0.00128627
0.0025461
0.00509429
0.999557
0.999611
0.999973
0.999997
0.999997
0.999452
0.943535
0.91884
0.91884
0.937642
0.983401
0.982853
0.978409
0.976895
0.916316
0.523579
0.509816
0.510226
0.574875
0.953287
0.999971
0.999997
0.999791
0.999731
0.977031
0.911863
0.835756
0.676433
0.627867
0.643165
0.896616
0.956188
0.893833
0.215128
0.00105758
0.00106183
0.00106361
0.00107051
0.00113926
0.00333362
0.999582
0.999889
1
0.999999
0.999997
0.999997
0.999997
0.999384
0.933395
0.909583
0.909583
0.91632
0.975354
0.974145
0.972325
0.96537
0.960639
0.583953
0.436336
0.416735
0.576802
0.98068
0.999731
0.999033
0.998671
0.973395
0.892429
0.855653
0.748488
0.635086
0.635086
0.785129
0.915385
0.845015
0.3595
0.0122268
0.00107031
0.0010801
0.00108984
0.00111543
1
1
1
0.999998
0.999996
0.999996
0.999997
0.999997
0.999997
0.979012
0.909231
0.908879
0.908879
0.909315
0.969317
0.967959
0.96559
0.962796
0.903884
0.390444
0.365898
0.366825
0.832557
0.998674
0.998273
0.997208
0.985156
0.950223
0.841879
0.694602
0.69127
0.697403
0.721606
0.842162
0.787282
0.501948
0.181919
0.0205915
0.00111499
0.00130682
1
1
1
0.999997
0.999995
0.999995
0.999997
0.999997
0.999997
0.999997
0.975225
0.909564
0.908879
0.909564
0.95864
0.965946
0.965547
0.965637
0.965205
0.934733
0.419698
0.298711
0.289287
0.761934
0.997405
0.996404
0.995328
0.994544
0.865777
0.917844
0.949243
0.841825
0.753101
0.749188
0.736857
0.728494
0.688414
0.600926
0.549249
0.546171
1
1
1
0.999999
0.999998
0.999995
0.999997
0.999997
0.999997
0.999997
0.997597
0.990195
0.990669
0.997173
0.973241
0.954753
0.954292
0.95583
0.962957
0.963246
0.92092
0.380176
0.243158
0.228645
0.722442
0.995329
0.994544
0.993745
0.960873
0.936611
0.984923
0.993015
0.931951
0.806354
0.757601
0.776933
0.790975
0.88724
0.91122
0.925436
1
1
1
1
1
0.999998
0.999995
0.999996
0.999996
0.999987
0.999982
0.999982
0.99997
0.999954
0.999926
0.983201
0.953627
0.953244
0.953311
0.96575
0.971466
0.858216
0.276586
0.198574
0.188686
0.689634
0.993575
0.993745
0.994293
0.982172
0.984297
0.997922
0.999412
0.976214
0.936822
0.909631
0.813123
0.751344
0.919049
0.925436
1
1
1
1
0.999998
0.999991
0.999979
0.999978
0.999955
0.999928
0.999938
0.999959
0.999954
0.999951
0.99995
0.999925
0.978782
0.953066
0.952967
0.95444
0.974805
0.981909
0.644791
0.18201
0.164718
0.160424
0.703607
0.99487
0.996427
0.997396
0.995469
0.998493
0.999891
0.999732
0.999408
0.999294
0.942058
0.707068
0.559361
0.925436
1
1
1
0.999999
0.999987
0.999939
0.999815
0.999745
0.999747
0.999384
0.998676
0.999346
0.999951
0.999946
0.999929
0.999905
0.999849
0.961504
0.952868
0.952888
0.973127
0.984737
0.959417
0.327717
0.148513
0.142551
0.155049
0.75346
0.998296
0.99934
0.999711
0.999797
0.999954
0.999965
0.99995
0.999914
0.999481
0.77365
0.548486
0.749255
1
1
1
0.999995
0.999915
0.999504
0.99846
0.997789
0.983807
0.953341
0.970632
0.998853
0.999156
0.99507
0.996603
0.999838
0.99955
0.986861
0.952888
0.952868
0.960459
0.987981
0.987661
0.540605
0.142199
0.137166
0.136463
0.257122
0.881783
0.998929
0.999875
0.999954
0.999964
0.999987
0.999989
0.999989
0.999935
0.981309
0.551508
0.345788
1
1
1
0.999976
0.999548
0.997451
0.91995
0.716878
0.522155
0.266735
0.332398
0.70438
0.996981
0.997035
0.998247
0.999404
0.999334
0.999255
0.971737
0.952888
0.96204
0.990307
0.990076
0.690737
0.146598
0.135799
0.136397
0.135681
0.562118
0.99266
0.999707
0.999961
0.999985
0.99999
0.999994
0.999996
0.999989
0.999929
0.583185
0.337784
1
1
0.999999
0.999943
0.997728
0.890301
0.380139
0.0854276
0.0796046
0.0786334
0.0778662
0.114954
0.715244
0.995903
0.998511
0.999055
0.999212
0.998972
0.99814
0.972589
0.983622
0.992653
0.991543
0.733697
0.151005
0.136394
0.136091
0.135936
0.399243
0.966193
0.999457
0.999947
0.999991
0.999994
0.999995
0.999996
0.999996
0.999988
0.66255
0.333441
1
1
1.00002
0.99951
0.899929
0.390822
0.0914372
0.0802592
0.0787076
0.0778442
0.0772784
0.0766023
0.31524
0.935829
0.997759
0.99843
0.998935
0.998733
0.998535
0.996896
0.995488
0.99355
0.992653
0.837245
0.170224
0.136089
0.135871
0.13596
0.467861
0.976083
0.99941
0.999938
0.999991
0.999995
0.999995
0.999997
0.999997
0.999996
0.693495
0.329875
1
1.00001
0.999941
0.984702
0.44612
0.164338
0.140487
0.255195
0.184848
0.0766217
0.0761291
0.0766063
0.0791583
0.749772
0.996906
0.998388
0.998749
0.998599
0.998463
0.998382
0.953877
0.9811
0.991543
0.989825
0.427616
0.136752
0.136091
0.216491
0.755552
0.990797
0.999112
0.999908
0.999973
0.999971
0.999993
0.999997
0.999997
0.999997
0.686954
0.326651
1
0.999998
0.999833
0.578705
0.222556
0.195786
0.41861
0.426802
0.422317
0.122982
0.0766051
0.0761543
0.0763712
0.43703
0.978356
0.99837
0.998546
0.99839
0.998268
0.998244
0.899858
0.852245
0.969755
0.982043
0.915787
0.489892
0.402239
0.673368
0.963105
0.995461
0.99924
0.999743
0.999766
0.999845
0.999995
0.999997
0.999997
0.999997
0.653223
0.323287
1.00001
0.999989
0.998812
0.293669
0.241535
0.378785
0.439543
0.430857
0.426802
0.204657
0.0761531
0.0759036
0.0761543
0.319597
0.968595
0.99814
0.998367
0.997098
0.998176
0.998128
0.885478
0.847577
0.849599
0.930444
0.958659
0.96056
0.958697
0.98685
0.996004
0.998812
0.999272
0.99939
0.999389
0.99975
0.999997
0.999997
0.999997
0.999997
0.559881
0.321615
1
1.00046
0.679464
0.205779
0.221025
0.466304
0.456317
0.356616
0.222778
0.105177
0.0759054
0.0760337
0.0948681
0.550402
0.951509
0.931552
0.94723
0.996958
0.998118
0.998056
0.905016
0.845893
0.845202
0.843727
0.931568
0.990629
0.997286
0.998725
0.999287
0.999483
0.999272
0.999261
0.999429
0.99982
0.999996
0.999997
0.999997
0.999997
0.425561
0.322685
1
0.999602
0.347836
0.178137
0.462995
0.47071
0.252588
0.00341143
0.032833
0.0427906
0.0894896
0.223031
0.624076
0.692191
0.511354
0.541269
0.890102
0.997666
0.997993
0.997995
0.907586
0.845349
0.844516
0.844256
0.857031
0.984681
0.998715
0.999287
0.999483
0.999575
0.999589
0.999506
0.999757
0.999949
0.999996
0.999997
0.999997
0.971688
0.372536
0.380085
1.0002
0.921551
0.229659
0.175337
0.583851
0.472673
0.0348421
0.000976701
0.000632717
0.0299046
0.119269
0.572144
0.690921
0.691612
0.45833
0.519035
0.918236
0.996946
0.997737
0.995573
0.874196
0.844523
0.844184
0.843394
0.84365
0.988403
0.999051
0.999303
0.99942
0.999365
0.999777
0.999946
0.999989
0.999996
0.999997
0.999997
0.999997
0.80483
0.370991
0.663561
1.00023
0.496384
0.175536
0.175536
0.60875
0.371828
0.00828367
0.00051664
0.000523525
0.0127091
0.0933469
0.392355
0.517917
0.283187
0.464087
0.753987
0.970871
0.996208
0.997722
0.916042
0.845703
0.845083
0.844507
0.874329
0.855852
0.913671
0.95317
0.85711
0.877007
0.98078
0.999953
0.999991
0.999995
0.999996
0.999996
0.999997
0.967531
0.399885
0.371757
0.692073
1.00005
0.2849
0.175536
0.175349
0.661085
0.359276
0.00224179
0.000515846
0.000512898
0.00139605
0.0218372
0.0336153
0.038524
0.122832
0.701234
0.972682
0.992951
0.996159
0.997645
0.86973
0.846169
0.845696
0.873834
0.982699
0.904878
0.780307
0.778866
0.775139
0.775762
0.931864
0.999929
0.999991
0.999995
0.999995
0.999889
0.910676
0.763259
0.176868
0.439703
0.700821
0.858646
0.194897
0.215501
0.175527
0.690593
0.580814
0.000617764
0.000512898
0.000512898
0.000512835
0.000601997
0.00110038
0.00117315
0.0621259
0.754426
0.995706
0.996049
0.996168
0.996606
0.932452
0.846684
0.892445
0.975539
0.985476
0.950184
0.778136
0.775263
0.775656
0.776675
0.901291
0.994451
0.999929
0.995021
0.999647
0.868336
0.474891
0.268852
0.159506
0.602373
0.70515
0.600886
0.12957
0.748213
0.179028
0.705789
0.864989
0.0309184
0.000559669
0.000512497
0.000528414
0.000546227
0.000652489
0.00071064
0.00104387
0.53896
0.992806
0.995986
0.996049
0.995663
0.992953
0.96105
0.983594
0.985476
0.985585
0.985502
0.780565
0.776545
0.776459
0.779165
0.935554
0.789392
0.682526
0.962561
0.969008
0.453509
0.0746652
0.02933
0.155076
0.571301
0.708549
0.505339
0.12285
0.828485
0.444329
0.697177
0.999164
0.582309
0.0838519
0.000558968
0.0027142
0.00195814
0.000708606
0.000622562
0.000647947
0.0929595
0.681146
0.995629
0.995986
0.995746
0.995528
0.99507
0.9485
0.985557
0.985529
0.985579
0.851795
0.776456
0.776402
0.894406
0.935212
0.484785
0.404694
0.921814
0.862055
0.122495
0.0114456
0.0136017
0.126782
0.315212
0.709754
0.471984
0.119124
0.839678
0.965987
0.742197
0.999752
0.999983
0.774556
0.240122
0.00276604
0.00308795
0.000756851
0.000607109
0.000604052
0.000622079
0.0942357
0.583342
0.947094
0.995528
0.99507
0.994842
0.902933
0.808734
0.950404
0.985379
0.96925
0.776402
0.776374
0.983714
0.908881
0.372458
0.396999
0.922482
0.709018