/*--------------------------------*- C++ -*----------------------------------*\
  =========                 |
  \\      /  F ield         | OpenFOAM: The Open Source CFD Toolbox
   \\    /   O peration     | Website:  https://openfoam.org
    \\  /    A nd           | Version:  8
     \\/     M anipulation  |
\*---------------------------------------------------------------------------*/
FoamFile
{
    version     2.0;
    format      ascii;
    class       surfaceScalarField;
    location    "2.7";
    object      alphaPhi0.water;
}
// * * * * * * * * * * * * * * * * * * * * * * * * * * * * * * * * * * * * * //

dimensions      [0 3 -1 0 0 0 0];

internalField   nonuniform List<scalar> 
18095
(
1.58413e-07
-9.65516e-07
8.07102e-07
1.65339e-07
-1.24826e-06
1.24133e-06
1.2216e-07
-1.24227e-06
1.28545e-06
6.52858e-08
-1.2635e-06
1.32037e-06
-2.31712e-11
-1.28049e-06
1.3458e-06
-6.53282e-08
-1.28049e-06
1.34579e-06
-1.22192e-07
-1.26349e-06
1.32035e-06
-1.6536e-07
-1.24226e-06
1.28543e-06
-1.58422e-07
-1.24825e-06
1.24131e-06
-9.65488e-07
8.07066e-07
1.11019e-07
-1.07653e-06
9.93967e-08
-1.23663e-06
7.28364e-08
-1.21571e-06
4.00141e-08
-1.23068e-06
-1.55185e-11
-1.24046e-06
-4.00429e-08
-1.24046e-06
-7.28595e-08
-1.23067e-06
-9.94144e-08
-1.21571e-06
-1.11029e-07
-1.23663e-06
-1.07652e-06
6.7167e-08
-1.1437e-06
5.27493e-08
-1.22222e-06
4.21255e-08
-1.20509e-06
2.38471e-08
-1.2124e-06
-9.90555e-12
-1.2166e-06
-2.38657e-08
-1.2166e-06
-4.21407e-08
-1.21239e-06
-5.27612e-08
-1.20509e-06
-6.71757e-08
-1.22222e-06
-1.14369e-06
3.9635e-08
-1.18334e-06
2.6619e-08
-1.2092e-06
2.20033e-08
-1.20047e-06
1.25178e-08
-1.20291e-06
-5.6106e-12
-1.20408e-06
-1.25284e-08
-1.20408e-06
-2.20122e-08
-1.20291e-06
-2.66258e-08
-1.20047e-06
-3.96409e-08
-1.2092e-06
-1.18333e-06
1.6663e-08
7.46231e-09
6.98978e-09
4.07878e-09
-1.88587e-12
-4.08238e-09
-6.99276e-09
-7.46443e-09
-1.66655e-08
-1.75391e-07
-1.16418e-06
1.33957e-06
-2.19457e-07
-1.2166e-06
1.26067e-06
-1.6555e-07
-1.21294e-06
1.15904e-06
-8.75023e-08
-1.2041e-06
1.12605e-06
-2.60108e-10
-1.20255e-06
1.1153e-06
8.6993e-08
-1.20251e-06
1.11526e-06
1.6509e-07
-1.204e-06
1.1259e-06
2.19038e-07
-1.21279e-06
1.15884e-06
1.75006e-07
-1.21639e-06
1.26042e-06
-1.16393e-06
1.33894e-06
-9.31289e-08
-1.07105e-06
-9.5847e-08
-1.21389e-06
-7.94613e-08
-1.22933e-06
-4.44011e-08
-1.23916e-06
-1.46939e-10
-1.2468e-06
4.41191e-08
-1.24677e-06
7.92092e-08
-1.23909e-06
9.56404e-08
-1.22922e-06
9.30112e-08
-1.21376e-06
-1.07092e-06
-5.79977e-08
-1.01305e-06
-5.525e-08
-1.21663e-06
-4.66221e-08
-1.23796e-06
-2.72345e-08
-1.25855e-06
-8.80376e-11
-1.27395e-06
2.70668e-08
-1.27393e-06
4.64782e-08
-1.2585e-06
5.51449e-08
-1.23789e-06
5.79464e-08
-1.21656e-06
-1.01297e-06
-7.47882e-08
-9.38266e-07
-6.19921e-08
-1.22943e-06
-4.86418e-08
-1.25131e-06
-2.78404e-08
-1.27935e-06
-5.43164e-11
-1.30173e-06
2.77377e-08
-1.30172e-06
4.85563e-08
-1.27932e-06
6.19342e-08
-1.25127e-06
7.47612e-08
-1.22939e-06
-9.38211e-07
-1.31165e-07
-1.19264e-07
-8.51195e-08
-4.41004e-08
-3.49967e-11
4.40345e-08
8.50653e-08
1.19227e-07
1.31145e-07
-6.03441e-08
-9.44794e-07
1.00514e-06
-3.51696e-09
-1.34048e-06
1.28365e-06
7.02354e-09
-1.27167e-06
1.26113e-06
1.73661e-09
-1.22491e-06
1.23019e-06
-2.18188e-09
-1.22278e-06
1.2267e-06
-6.17482e-09
-1.22248e-06
1.22647e-06
-1.1241e-08
-1.22486e-06
1.22993e-06
-2.58997e-09
-1.2721e-06
1.26345e-06
5.19833e-08
-1.3398e-06
1.28523e-06
-9.36108e-07
9.88091e-07
6.27222e-09
-9.51067e-07
1.34686e-08
-1.34768e-06
9.36885e-09
-1.26757e-06
3.979e-09
-1.21952e-06
-1.75479e-09
-1.21704e-06
-7.45334e-09
-1.21678e-06
-1.26832e-08
-1.21963e-06
-1.73796e-08
-1.26741e-06
-1.03231e-08
-1.34686e-06
-9.46431e-07
2.58816e-08
-9.76949e-07
1.72049e-08
-1.339e-06
8.92436e-09
-1.25929e-06
4.99437e-09
-1.21559e-06
-1.12632e-09
-1.21092e-06
-7.05981e-09
-1.21085e-06
-1.12154e-08
-1.21548e-06
-1.94817e-08
-1.25914e-06
-2.78261e-08
-1.33852e-06
-9.74258e-07
7.78385e-08
-1.05479e-06
5.12607e-08
-1.31242e-06
3.25163e-08
-1.24054e-06
1.99895e-08
-1.20306e-06
-6.83406e-10
-1.19025e-06
-2.13336e-08
-1.1902e-06
-3.39877e-08
-1.20283e-06
-5.28862e-08
-1.24024e-06
-7.91802e-08
-1.31222e-06
-1.05344e-06
2.84785e-07
2.33031e-07
1.51521e-07
7.45166e-08
-4.29958e-10
-7.53733e-08
-1.52298e-07
-2.33696e-07
-2.85497e-07
-1.69737e-08
5.22797e-10
1.64509e-08
-1.76577e-08
6.83692e-10
-1.85023e-08
8.44536e-10
-1.9505e-08
1.00264e-09
-2.06593e-08
1.15437e-09
-2.19553e-08
1.29608e-09
-2.33781e-08
1.423e-09
-2.49091e-08
1.53122e-09
-2.65288e-08
1.61994e-09
1.68363e-09
-2.82121e-08
-2.00879e-08
1.21315e-09
1.93975e-08
-2.08992e-08
1.4949e-09
-2.18294e-08
1.77462e-09
-2.28734e-08
2.04675e-09
-2.40239e-08
2.30509e-09
-2.52699e-08
2.54236e-09
-2.65998e-08
2.75312e-09
-2.79988e-08
2.93043e-09
-2.94469e-08
3.06825e-09
3.16053e-09
-3.09235e-08
-2.10371e-08
1.96012e-09
2.02901e-08
-2.18817e-08
2.33926e-09
-2.28206e-08
2.71346e-09
-2.38488e-08
3.07514e-09
-2.49597e-08
3.41626e-09
-2.61449e-08
3.72809e-09
-2.7394e-08
4.00224e-09
-2.86935e-08
4.2302e-09
-3.00291e-08
4.40414e-09
4.51673e-09
-3.1385e-08
-2.11485e-08
2.74325e-09
2.03653e-08
-2.20164e-08
3.20684e-09
-2.29661e-08
3.66295e-09
-2.39931e-08
4.1023e-09
-2.50916e-08
4.51498e-09
-2.62543e-08
4.89108e-09
-2.74727e-08
5.22068e-09
-2.8736e-08
5.49378e-09
-3.00327e-08
5.70106e-09
5.83387e-09
-3.13497e-08
-2.07009e-08
3.55476e-09
1.98893e-08
-2.15917e-08
4.0974e-09
-2.2559e-08
4.63038e-09
-2.35995e-08
5.14304e-09
-2.47086e-08
5.62429e-09
-2.58801e-08
6.06283e-09
-2.71067e-08
6.44728e-09
-2.83796e-08
6.76665e-09
-2.96889e-08
7.01034e-09
7.16854e-09
-3.10235e-08
-1.98043e-08
4.38926e-09
1.89697e-08
-2.07177e-08
5.01081e-09
-2.17085e-08
5.62131e-09
-2.27743e-08
6.20898e-09
-2.39115e-08
6.7615e-09
-2.5115e-08
7.26632e-09
-2.63786e-08
7.71087e-09
-2.76949e-08
8.08284e-09
-2.90551e-08
8.37047e-09
8.56285e-09
-3.04494e-08
-1.85188e-08
5.2405e-09
1.76676e-08
-1.94527e-08
5.94501e-09
-2.04695e-08
6.63815e-09
-2.15676e-08
7.30707e-09
-2.27445e-08
7.93823e-09
-2.39963e-08
8.51781e-09
-2.53176e-08
9.03189e-09
-2.67018e-08
9.46686e-09
-2.8141e-08
9.80965e-09
1.00481e-08
-2.96262e-08
-1.68836e-08
6.09946e-09
1.60247e-08
-1.7833e-08
6.89428e-09
-1.88738e-08
7.67889e-09
-2.00059e-08
8.4392e-09
-2.12283e-08
9.16038e-09
-2.25378e-08
9.82709e-09
-2.39299e-08
1.04239e-08
-2.53989e-08
1.09357e-08
-2.69372e-08
1.13478e-08
1.16467e-08
-2.85359e-08
-1.4929e-08
6.95349e-09
1.40749e-08
-1.58836e-08
7.84872e-09
-1.69414e-08
8.73654e-09
-1.8104e-08
9.60159e-09
-1.93714e-08
1.04275e-08
-2.07418e-08
1.11973e-08
-2.22116e-08
1.18936e-08
-2.37754e-08
1.24994e-08
-2.54258e-08
1.29982e-08
1.33743e-08
-2.71535e-08
-1.26812e-08
7.78533e-09
1.18493e-08
-1.3626e-08
8.79309e-09
-1.4688e-08
9.79842e-09
-1.58709e-08
1.07845e-08
-1.71766e-08
1.17331e-08
-1.86049e-08
1.26254e-08
-2.01531e-08
1.34416e-08
-2.1816e-08
1.41622e-08
-2.35856e-08
1.47677e-08
1.52403e-08
-2.54519e-08
-1.01676e-08
8.57224e-09
9.38056e-09
-1.1081e-08
9.70623e-09
-1.2128e-08
1.08453e-08
-1.33146e-08
1.1971e-08
-1.46451e-08
1.30635e-08
-1.61213e-08
1.41015e-08
-1.77427e-08
1.50627e-08
-1.95034e-08
1.59227e-08
-2.13951e-08
1.66598e-08
1.72516e-08
-2.34065e-08
-7.41942e-09
9.28571e-09
6.70588e-09
-8.27386e-09
1.05606e-08
-9.27976e-09
1.18512e-08
-1.04462e-08
1.31375e-08
-1.17803e-08
1.43976e-08
-1.32855e-08
1.56075e-08
-1.49665e-08
1.6742e-08
-1.68199e-08
1.77703e-08
-1.8833e-08
1.8673e-08
1.94113e-08
-2.09922e-08
-4.47524e-09
9.89104e-09
3.86987e-09
-5.23652e-09
1.1322e-08
-6.16845e-09
1.27831e-08
-7.28375e-09
1.42528e-08
-8.59303e-09
1.57068e-08
-1.01043e-08
1.71189e-08
-1.18195e-08
1.84594e-08
-1.37462e-08
1.96955e-08
-1.58802e-08
2.07875e-08
2.17203e-08
-1.81891e-08
-1.38218e-09
1.03472e-08
9.26134e-10
-2.00915e-09
1.19491e-08
-2.82642e-09
1.36005e-08
-3.85147e-09
1.52779e-08
-5.09943e-09
1.69548e-08
-6.58233e-09
1.86018e-08
-8.30905e-09
2.01871e-08
-1.02758e-08
2.16682e-08
-1.25187e-08
2.29983e-08
2.41794e-08
-1.49778e-08
1.80179e-09
1.06057e-08
-2.06031e-09
1.35878e-09
1.23922e-08
7.06072e-10
1.42533e-08
-1.79812e-10
1.61639e-08
-1.31984e-09
1.80949e-08
-2.73133e-09
2.00134e-08
-4.42684e-09
2.18828e-08
-6.41322e-09
2.36624e-08
-8.66713e-09
2.52751e-08
2.65203e-08
-1.12876e-08
5.00119e-09
1.06115e-08
-5.00692e-09
4.80078e-09
1.2593e-08
4.3726e-09
1.46816e-08
3.68468e-09
1.68518e-08
2.70671e-09
1.90729e-08
1.4119e-09
2.13083e-08
-2.20665e-10
2.35154e-08
-2.20301e-09
2.56455e-08
-4.50303e-09
2.76065e-08
2.91197e-08
-7.11501e-09
8.12294e-09
1.03005e-08
-7.81183e-09
8.23787e-09
1.24784e-08
8.11581e-09
1.48037e-08
7.71531e-09
1.72524e-08
6.99459e-09
1.97937e-08
5.91375e-09
2.23892e-08
4.43774e-09
2.49914e-08
2.54021e-09
2.7543e-08
2.07062e-10
2.9966e-08
3.17871e-08
-2.47258e-09
1.10231e-08
9.60897e-09
-1.03314e-08
1.15311e-08
1.19704e-08
1.18088e-08
1.45259e-08
1.18061e-08
1.7255e-08
1.14704e-08
2.01294e-08
1.07475e-08
2.3112e-08
9.58454e-09
2.61544e-08
7.93372e-09
2.91938e-08
5.75241e-09
3.21474e-08
3.47844e-08
2.96783e-09
1.34853e-08
8.49235e-09
-1.23686e-08
1.44451e-08
1.10102e-08
1.5197e-08
1.3774e-08
1.56822e-08
1.67697e-08
1.58351e-08
1.99764e-08
1.55825e-08
2.33646e-08
1.48437e-08
2.68931e-08
1.35323e-08
3.05052e-08
1.15558e-08
3.41239e-08
3.75747e-08
8.68547e-09
1.52634e-08
6.93311e-09
-1.37043e-08
1.67097e-08
9.56358e-09
1.79914e-08
1.24923e-08
1.9047e-08
1.57139e-08
1.98047e-08
1.92186e-08
2.01791e-08
2.29902e-08
2.0068e-08
2.70042e-08
1.93495e-08
3.12237e-08
1.7882e-08
3.55915e-08
3.99715e-08
1.5486e-08
1.60856e-08
4.95702e-09
-1.41096e-08
1.80044e-08
7.64468e-09
1.98186e-08
1.0678e-08
2.14717e-08
1.40607e-08
2.28963e-08
1.77941e-08
2.40103e-08
2.18762e-08
2.4712e-08
2.63025e-08
2.48698e-08
3.10659e-08
2.43054e-08
3.61558e-08
4.15543e-08
2.27227e-08
1.57215e-08
2.63674e-09
-1.34013e-08
1.80396e-08
5.32666e-09
2.03134e-08
8.40419e-09
2.24928e-08
1.18813e-08
2.4518e-08
1.57689e-08
2.63173e-08
2.00769e-08
2.78047e-08
2.48151e-08
2.88743e-08
2.99963e-08
2.9386e-08
3.56439e-08
4.17859e-08
2.91544e-08
1.40372e-08
8.14918e-11
-1.14819e-08
1.663e-08
2.7338e-09
1.92166e-08
5.8175e-09
2.1742e-08
9.35593e-09
2.41359e-08
1.3375e-08
2.63081e-08
1.79047e-08
2.81419e-08
2.29812e-08
2.94878e-08
2.86503e-08
3.01619e-08
3.49697e-08
4.2022e-08
2.99257e-08
1.12287e-08
-2.66037e-09
-8.48683e-09
1.40705e-08
-1.08306e-10
1.69851e-08
2.90291e-09
1.99401e-08
6.40102e-09
2.28998e-08
1.04153e-08
2.5827e-08
1.49773e-08
2.8688e-08
2.01202e-08
3.14591e-08
2.58789e-08
3.41352e-08
3.22935e-08
3.94103e-08
3.67469e-08
7.25059e-09
-5.4799e-09
-4.43113e-09
1.02083e-08
-3.06629e-09
1.32795e-08
-1.68242e-10
1.64329e-08
3.24771e-09
1.9629e-08
7.21923e-09
2.28176e-08
1.17886e-08
2.5934e-08
1.70038e-08
2.88938e-08
2.2919e-08
3.15919e-08
2.95953e-08
3.71053e-08
3.38967e-08
2.42207e-09
-8.32567e-09
4.23582e-10
5.44789e-09
-6.09224e-09
8.64111e-09
-3.36134e-09
1.19858e-08
-9.68949e-11
1.54609e-08
3.7442e-09
1.90402e-08
8.2094e-09
2.26893e-08
1.33547e-08
2.63652e-08
1.92432e-08
3.00163e-08
2.59441e-08
3.35328e-08
3.35888e-08
-3.02676e-09
-1.11421e-08
5.84314e-09
5.09246e-12
-9.12412e-09
3.25696e-09
-6.61312e-09
6.73619e-09
-3.57606e-09
1.04553e-08
2.50969e-11
1.44319e-08
4.23283e-09
1.86918e-08
9.09475e-09
2.32725e-08
1.46624e-08
2.8227e-08
2.09896e-08
2.81288e-08
3.36309e-08
-8.85533e-09
-1.38439e-08
1.15572e-08
-5.9373e-09
-1.20422e-08
-2.79059e-09
-9.75976e-09
6.02075e-10
-6.96867e-09
4.26375e-09
-3.63661e-09
8.22347e-09
2.73013e-10
1.25168e-08
4.80125e-09
1.71852e-08
9.99395e-09
2.22728e-08
1.5902e-08
2.25821e-08
2.78195e-08
-1.46214e-08
-1.63677e-08
1.71451e-08
-1.19138e-08
-1.475e-08
-9.00917e-09
-1.26644e-08
-5.89031e-09
-1.00876e-08
-2.53562e-09
-6.99146e-09
1.08024e-09
-3.34306e-09
4.98485e-09
8.96461e-10
9.20578e-09
5.7729e-09
1.37668e-08
1.13409e-08
1.76666e-08
1.86822e-08
-1.97638e-08
-1.86942e-08
2.20902e-08
-1.73076e-08
-1.72063e-08
-1.47119e-08
-1.52602e-08
-1.19636e-08
-1.2836e-08
-9.04655e-09
-9.90875e-09
-5.9423e-09
-6.44756e-09
-2.63146e-09
-2.41454e-09
9.04147e-10
2.23723e-09
4.67904e-09
7.56595e-09
1.3645e-08
8.70066e-09
-2.36745e-08
-2.08624e-08
2.58427e-08
-2.14362e-08
-1.94445e-08
-1.91226e-08
-1.75739e-08
-1.6725e-08
-1.52338e-08
-1.42325e-08
-1.24014e-08
-1.16317e-08
-9.04841e-09
-8.90783e-09
-5.13848e-09
-6.04506e-09
-6.25547e-10
-3.02771e-09
4.54863e-09
1.04592e-08
1.5806e-10
-2.58185e-08
-2.29667e-08
2.79228e-08
-2.36941e-08
-2.15687e-08
-2.15476e-08
-1.97205e-08
-1.93739e-08
-1.74076e-08
-1.71654e-08
-1.461e-08
-1.49118e-08
-1.1302e-08
-1.25998e-08
-7.4504e-09
-1.02133e-08
-3.01214e-09
-7.73274e-09
2.06807e-09
7.86272e-09
-5.13624e-09
-2.58403e-08
-2.51424e-08
2.80161e-08
-2.36735e-08
-2.37351e-08
-2.15146e-08
-2.18793e-08
-1.93589e-08
-1.95633e-08
-1.71985e-08
-1.67703e-08
-1.50219e-08
-1.34786e-08
-1.28125e-08
-9.65971e-09
-1.05482e-08
-5.27633e-09
-8.20154e-09
-2.78614e-10
5.40046e-09
-5.7392e-09
-2.36363e-08
-2.75388e-08
2.60329e-08
-2.12548e-08
-2.61164e-08
-1.88842e-08
-2.425e-08
-1.65153e-08
-2.19321e-08
-1.41338e-08
-1.91516e-08
-1.17173e-08
-1.5895e-08
-9.2318e-09
-1.21452e-08
-6.62886e-09
-7.87926e-09
-3.84287e-09
-3.06457e-09
2.35285e-09
-7.95208e-10
-1.93533e-08
-3.02805e-08
2.2095e-08
-1.66179e-08
-2.88517e-08
-1.38814e-08
-2.69864e-08
-1.11316e-08
-2.46819e-08
-8.34881e-09
-2.19344e-08
-5.50104e-09
-1.87428e-08
-2.53733e-09
-1.5109e-08
6.20618e-10
-1.10371e-08
4.08474e-09
-6.52847e-09
-1.56795e-09
8.0058e-09
-1.33305e-08
-3.34463e-08
1.64964e-08
-1.01692e-08
-3.2013e-08
-7.01228e-09
-3.01434e-08
-3.86109e-09
-2.78331e-08
-7.18904e-10
-2.50767e-08
2.41018e-09
-2.1872e-08
5.52266e-09
-1.82215e-08
8.61504e-09
-1.41295e-08
1.16744e-08
-9.5878e-09
-4.58481e-09
1.46914e-08
-5.79915e-09
-3.71359e-08
9.4887e-09
-2.09571e-09
-3.57166e-08
1.62491e-09
-3.3864e-08
5.36288e-09
-3.15711e-08
9.11523e-09
-2.8829e-08
1.2878e-08
-2.56347e-08
1.66505e-08
-2.1994e-08
2.04398e-08
-1.79188e-08
2.42548e-08
-1.34027e-08
-8.20935e-09
2.78793e-08
2.95347e-09
-4.14382e-08
1.3488e-09
7.30837e-09
-4.00715e-08
1.17339e-08
-3.82896e-08
1.62478e-08
-3.60851e-08
2.0867e-08
-3.34483e-08
2.56091e-08
-3.03767e-08
3.04974e-08
-2.68821e-08
3.55764e-08
-2.29976e-08
4.09716e-08
-1.8798e-08
-1.26787e-08
3.65678e-08
1.25456e-08
-4.63891e-08
-7.59453e-09
1.75734e-08
-4.50991e-08
2.27025e-08
-4.34187e-08
2.79539e-08
-4.13365e-08
3.33356e-08
-3.88302e-08
3.88305e-08
-3.58717e-08
4.43817e-08
-3.24332e-08
4.98923e-08
-2.85083e-08
5.52421e-08
-2.41478e-08
-1.35692e-08
2.9496e-08
2.27864e-08
-5.20488e-08
-1.7127e-08
2.85522e-08
-5.0863e-08
3.44769e-08
-4.93398e-08
4.06247e-08
-4.74834e-08
4.70733e-08
-4.52786e-08
5.39133e-08
-4.27116e-08
6.12465e-08
-3.97665e-08
6.91901e-08
-3.64518e-08
7.78807e-08
-3.28385e-08
-2.10734e-08
5.16048e-08
3.35091e-08
-5.84717e-08
-2.70877e-08
4.00322e-08
-5.73867e-08
4.67193e-08
-5.6027e-08
5.36537e-08
-5.44125e-08
6.09341e-08
-5.25574e-08
6.86903e-08
-5.04677e-08
7.70702e-08
-4.81462e-08
8.62132e-08
-4.55947e-08
9.61365e-08
-4.27616e-08
-3.22652e-08
6.88107e-08
4.46185e-08
-6.57449e-08
-3.73453e-08
5.19482e-08
-6.47226e-08
5.93976e-08
-6.3477e-08
6.70312e-08
-6.20466e-08
7.49343e-08
-6.04555e-08
8.31931e-08
-5.87232e-08
9.19008e-08
-5.68538e-08
1.01122e-07
-5.48165e-08
1.10887e-07
-5.25264e-08
-4.95171e-08
7.55264e-08
5.5948e-08
-7.39711e-08
-4.77219e-08
6.41362e-08
-7.29105e-08
7.23129e-08
-7.16593e-08
8.05045e-08
-7.02411e-08
8.87026e-08
-6.86539e-08
9.68787e-08
-6.68941e-08
1.04967e-07
-6.49403e-08
1.12893e-07
-6.27422e-08
1.20584e-07
-6.02165e-08
-5.71663e-08
1.28233e-07
6.75366e-08
-8.34086e-08
-5.80992e-08
7.68575e-08
-8.22314e-08
8.61234e-08
-8.09235e-08
9.5366e-08
-7.94826e-08
1.04562e-07
-7.78553e-08
1.13675e-07
-7.60066e-08
1.22675e-07
-7.39378e-08
1.31605e-07
-7.16728e-08
1.40664e-07
-6.92747e-08
-6.68988e-08
1.50396e-07
7.8966e-08
-9.44022e-08
-6.79712e-08
8.97755e-08
-9.30391e-08
1.00569e-07
-9.1714e-08
1.11425e-07
-9.03396e-08
1.22278e-07
-8.87071e-08
1.33007e-07
-8.67362e-08
1.43517e-07
-8.4448e-08
1.53762e-07
-8.19185e-08
1.63732e-07
-7.9244e-08
-7.65522e-08
1.73385e-07
8.87629e-08
-1.06205e-07
-7.58278e-08
1.01528e-07
-1.03197e-07
1.14802e-07
-1.03569e-07
1.28129e-07
-1.03552e-07
1.41425e-07
-1.01981e-07
1.54576e-07
-9.98836e-08
1.67484e-07
-9.7355e-08
1.80113e-07
-9.45449e-08
1.9242e-07
-9.15515e-08
-8.84224e-08
2.04291e-07
8.4466e-08
-1.12945e-07
-7.39385e-08
1.06035e-07
-1.10012e-07
1.26074e-07
-1.08434e-07
1.44272e-07
-1.07272e-07
1.60703e-07
-1.14541e-07
1.76611e-07
-1.15208e-07
1.92187e-07
-1.12901e-07
2.0747e-07
-1.09773e-07
2.22428e-07
-1.06508e-07
-1.03058e-07
2.37067e-07
8.26712e-08
-1.31113e-07
-6.56084e-08
1.02012e-07
-1.29206e-07
1.21355e-07
-1.26728e-07
1.40163e-07
-1.27331e-07
1.71879e-07
-1.24506e-07
1.92505e-07
-1.20399e-07
2.12001e-07
-1.17402e-07
2.32255e-07
-1.15781e-07
2.50688e-07
-1.21927e-07
-1.19957e-07
2.68084e-07
7.27304e-08
-1.62734e-07
-5.62247e-08
9.18162e-08
-1.67471e-07
1.16248e-07
-1.56551e-07
1.39595e-07
-1.51717e-07
1.62094e-07
-1.47557e-07
1.83901e-07
-1.42918e-07
2.05924e-07
-1.3996e-07
2.31963e-07
-1.35199e-07
2.75439e-07
-1.31622e-07
-1.36592e-07
2.9771e-07
6.45224e-08
-1.90933e-07
-3.92344e-08
9.13939e-08
-1.94053e-07
1.15924e-07
-1.94859e-07
1.33592e-07
-1.94634e-07
1.53622e-07
-1.9324e-07
1.85563e-07
-1.75411e-07
2.12504e-07
-1.67612e-07
2.40874e-07
-1.6454e-07
2.73976e-07
-1.65756e-07
-1.66561e-07
3.23096e-07
3.56807e-08
-2.1812e-07
-6.5109e-09
6.64145e-08
-2.24247e-07
9.86251e-08
-2.27071e-07
1.31853e-07
-2.27862e-07
1.65985e-07
-2.27371e-07
1.80911e-07
-2.25633e-07
2.1566e-07
-2.22318e-07
2.62493e-07
-2.16312e-07
3.05578e-07
-2.08581e-07
-1.99687e-07
3.38624e-07
-9.22055e-09
-2.52373e-07
4.12827e-08
2.60044e-08
-2.59812e-07
6.33418e-08
-2.64408e-07
1.02238e-07
-2.66758e-07
1.4223e-07
-2.67363e-07
1.82719e-07
-2.66122e-07
2.23127e-07
-2.62727e-07
2.63616e-07
-2.56877e-07
3.03716e-07
-2.48787e-07
-2.38907e-07
3.42832e-07
-7.11302e-08
-2.91307e-07
1.073e-07
-3.17418e-08
-3.0001e-07
1.05968e-08
-3.06747e-07
5.51593e-08
-3.11321e-07
1.01345e-07
-3.13549e-07
1.48478e-07
-3.13254e-07
1.96038e-07
-3.10288e-07
2.43709e-07
-3.04508e-07
2.91138e-07
-2.96198e-07
-2.85587e-07
3.37789e-07
-1.46711e-07
-3.30923e-07
1.86329e-07
-1.03016e-07
-3.43704e-07
-5.56742e-08
-3.54089e-07
-5.25769e-09
-3.61738e-07
4.75715e-08
-3.66378e-07
1.021e-07
-3.67784e-07
1.57612e-07
-3.6582e-07
2.13505e-07
-3.60466e-07
2.69175e-07
-3.51934e-07
-3.40442e-07
3.23976e-07
-2.30604e-07
-3.73437e-07
2.73122e-07
-1.82834e-07
-3.91471e-07
-1.30314e-07
-4.06609e-07
-7.37246e-08
-4.18327e-07
-1.38701e-08
-4.26233e-07
4.83874e-08
-4.30045e-07
1.12151e-07
-4.29613e-07
1.76547e-07
-4.24955e-07
2.40753e-07
-4.16236e-07
-4.03714e-07
3.03975e-07
-3.14638e-07
-4.17989e-07
3.59221e-07
-2.63305e-07
-4.42788e-07
-2.05785e-07
-4.64126e-07
-1.42976e-07
-4.81136e-07
-7.5998e-08
-4.93211e-07
-5.99691e-09
-5.00046e-07
6.5904e-08
-5.01514e-07
1.38614e-07
-4.97665e-07
2.11113e-07
-4.88734e-07
-4.75063e-07
2.82462e-07
-3.85e-07
-4.62042e-07
4.29325e-07
-3.32034e-07
-4.95615e-07
-2.70755e-07
-5.2538e-07
-2.02431e-07
-5.49458e-07
-1.28919e-07
-5.66723e-07
-5.18708e-08
-5.77094e-07
2.72766e-08
-5.80662e-07
1.07249e-07
-5.77637e-07
1.86898e-07
-5.68383e-07
-5.5337e-07
2.65205e-07
-4.18914e-07
-4.97497e-07
4.56166e-07
-3.70543e-07
-5.4304e-07
-3.09721e-07
-5.86066e-07
-2.38211e-07
-6.20959e-07
-1.60175e-07
-6.44758e-07
-7.82219e-08
-6.59044e-07
5.84903e-09
-6.64729e-07
9.06214e-08
-6.62407e-07
1.74912e-07
-6.52674e-07
-6.36156e-07
2.57698e-07
-3.52868e-07
-3.2548e-07
3.09045e-07
-3.5068e-07
-4.92665e-07
-3.05217e-07
-6.30823e-07
-2.35854e-07
-6.90284e-07
-1.57519e-07
-7.23083e-07
-7.49523e-08
-7.41604e-07
9.74265e-09
-7.49406e-07
9.51106e-08
-7.47774e-07
1.80005e-07
-7.37568e-07
-7.19595e-07
2.63443e-07
-9.83001e-08
-2.31506e-07
1.53723e-07
-1.8598e-07
-2.2634e-07
-2.42454e-07
-4.50043e-07
-1.89814e-07
-7.42763e-07
-1.16906e-07
-7.95959e-07
-3.92249e-08
-8.1904e-07
4.08276e-08
-8.29444e-07
1.21799e-07
-8.28744e-07
2.02592e-07
-8.18361e-07
-7.9925e-07
2.82247e-07
-8.35342e-08
-2.68074e-07
1.34096e-07
-8.92453e-08
-2.13286e-07
-1.30478e-07
-2.64672e-07
-1.14198e-07
-7.27729e-07
-5.03445e-08
-8.59443e-07
1.91909e-08
-8.88361e-07
9.12098e-08
-9.01446e-07
1.64336e-07
-9.01869e-07
2.37539e-07
-8.91564e-07
-8.71601e-07
3.0989e-07
-6.18001e-08
-5.16403e-07
1.88248e-07
-4.54791e-08
-2.22727e-07
-5.82919e-08
-2.46253e-07
-3.50633e-08
-6.64968e-07
2.14702e-08
-9.13529e-07
8.41541e-08
-9.50889e-07
1.4826e-07
-9.6554e-07
2.12928e-07
-9.66536e-07
2.77365e-07
-9.56001e-07
-9.35081e-07
3.40845e-07
-4.65667e-08
-6.67356e-07
1.14041e-07
-2.48987e-08
-2.38106e-07
-1.8331e-08
-2.5172e-07
3.01308e-08
-6.47596e-07
8.93468e-08
-9.71724e-07
1.47514e-07
-1.00902e-06
2.04859e-07
-1.02288e-06
2.61359e-07
-1.02303e-06
3.16821e-07
-1.01146e-06
-9.89253e-07
3.70993e-07
3.70297e-09
-6.80737e-07
4.81027e-09
8.17087e-09
-2.49665e-07
2.00145e-08
-2.64428e-07
1.15589e-07
-6.80373e-07
1.66431e-07
-1.02224e-06
2.14987e-07
-1.05757e-06
2.62283e-07
-1.07017e-06
3.08413e-07
-1.06916e-06
3.53352e-07
-1.0564e-06
-1.03297e-06
3.97068e-07
5.48926e-08
-5.88469e-07
-1.00802e-07
3.56101e-08
-2.31228e-07
5.4571e-08
-2.89954e-07
2.03961e-07
-8.17759e-07
2.42954e-07
-1.06102e-06
2.79087e-07
-1.09368e-06
3.14298e-07
-1.10538e-06
3.48701e-07
-1.10357e-06
3.82129e-07
-1.08983e-06
-1.0653e-06
4.14458e-07
9.12676e-08
-4.59069e-07
-1.67304e-07
7.66031e-08
-2.27833e-07
1.24848e-07
-3.51134e-07
2.72083e-07
-9.57586e-07
2.99697e-07
-1.08855e-06
3.24972e-07
-1.11894e-06
3.50072e-07
-1.13048e-06
3.74556e-07
-1.12805e-06
3.97872e-07
-1.11315e-06
-1.08709e-06
4.1966e-07
7.90365e-08
-3.2777e-07
-1.79433e-07
7.11591e-08
-2.29053e-07
2.06724e-07
-4.66457e-07
2.96652e-07
-1.04524e-06
3.2321e-07
-1.1151e-06
3.45676e-07
-1.14141e-06
3.66092e-07
-1.15089e-06
3.84451e-07
-1.14641e-06
4.00432e-07
-1.12913e-06
-1.10041e-06
4.13751e-07
5.97821e-08
-2.11371e-07
-1.52334e-07
7.32321e-08
-2.40931e-07
2.71467e-07
-7.09176e-07
3.13596e-07
-1.0895e-06
3.36663e-07
-1.13818e-06
3.55259e-07
-1.16e-06
3.71151e-07
-1.16679e-06
3.84441e-07
-1.1597e-06
3.94766e-07
-1.13945e-06
-1.10733e-06
4.01688e-07
6.47488e-08
-1.44035e-07
-1.03128e-07
1.17358e-07
-2.68172e-07
2.97314e-07
-9.36661e-07
3.24579e-07
-1.11692e-06
3.40933e-07
-1.15455e-06
3.54507e-07
-1.17358e-06
3.66216e-07
-1.1785e-06
3.75758e-07
-1.16924e-06
3.82551e-07
-1.14625e-06
-1.1109e-06
3.86123e-07
6.37203e-08
-1.38505e-07
-6.10168e-08
1.94788e-07
-4.89342e-07
3.03904e-07
-1.06331e-06
3.18829e-07
-1.13194e-06
3.29514e-07
-1.16524e-06
3.39903e-07
-1.18397e-06
3.49532e-07
-1.18813e-06
3.57421e-07
-1.17713e-06
3.62624e-07
-1.15145e-06
-1.11277e-06
3.64491e-07
4.99088e-08
-1.44222e-07
-3.03638e-08
2.48104e-07
-7.68167e-07
2.75442e-07
-1.09452e-06
2.88861e-07
-1.1454e-06
3.00576e-07
-1.17696e-06
3.11683e-07
-1.19508e-06
3.21796e-07
-1.19824e-06
3.30197e-07
-1.18553e-06
3.36138e-07
-1.15739e-06
-1.11573e-06
3.39105e-07
9.67667e-08
-1.85828e-07
-4.70308e-08
2.42251e-07
-9.53119e-07
2.51428e-07
-1.10386e-06
2.57813e-07
-1.15179e-06
2.66161e-07
-1.18531e-06
2.75422e-07
-1.20434e-06
2.84353e-07
-1.20717e-06
2.91888e-07
-1.19306e-06
2.9699e-07
-1.16249e-06
-1.11713e-06
2.98389e-07
1.28212e-07
-4.00456e-07
-1.89088e-08
1.88978e-07
-1.03599e-06
1.98016e-07
-1.11296e-06
2.07388e-07
-1.16117e-06
2.17687e-07
-1.19561e-06
2.27697e-07
-1.21435e-06
2.36551e-07
-1.21602e-06
2.43646e-07
-1.20016e-06
2.48394e-07
-1.16724e-06
-1.11865e-06
2.49913e-07
1.08242e-07
-5.2453e-07
-5.85248e-09
1.2941e-07
-1.05913e-06
1.4289e-07
-1.12644e-06
1.55803e-07
-1.17408e-06
1.67364e-07
-1.20717e-06
1.76977e-07
-1.22396e-06
1.8444e-07
-1.22349e-06
1.89806e-07
-1.20552e-06
1.93209e-07
-1.17064e-06
-1.12002e-06
1.94579e-07
7.64357e-08
-5.8105e-07
-4.51327e-09
9.17705e-08
-1.07435e-06
1.03835e-07
-1.13851e-06
1.14853e-07
-1.1851e-06
1.23956e-07
-1.21627e-06
1.30531e-07
-1.23054e-06
1.34319e-07
-1.22727e-06
1.35369e-07
-1.20658e-06
1.33913e-07
-1.16919e-06
-1.11604e-06
1.29926e-07
5.38797e-08
-6.06276e-07
-3.98147e-09
6.51821e-08
-1.08529e-06
7.48609e-08
-1.14819e-06
8.35419e-08
-1.19378e-06
9.03047e-08
-1.22303e-06
9.44188e-08
-1.23465e-06
9.54399e-08
-1.2283e-06
9.32483e-08
-1.20438e-06
8.80388e-08
-1.16398e-06
-1.10809e-06
8.00906e-08
4.08198e-08
-6.12564e-07
-3.20803e-09
4.86045e-08
-1.09232e-06
5.64201e-08
-1.156e-06
6.36848e-08
-1.20104e-06
6.95179e-08
-1.22887e-06
7.32242e-08
-1.23836e-06
7.43513e-08
-1.22942e-06
7.27254e-08
-1.20276e-06
6.8482e-08
-1.15973e-06
-1.10146e-06
6.18587e-08
3.38389e-08
-6.0836e-07
-3.11596e-09
4.0257e-08
-1.0983e-06
4.70563e-08
-1.1628e-06
5.39073e-08
-1.20789e-06
6.01139e-08
-1.23507e-06
6.5159e-08
-1.2434e-06
6.87873e-08
-1.23305e-06
7.10323e-08
-1.205e-06
7.22137e-08
-1.16091e-06
-1.1014e-06
7.21523e-08
3.23474e-08
-6.03749e-07
-3.73101e-09
3.79065e-08
-1.10363e-06
4.40481e-08
-1.16895e-06
5.0842e-08
-1.21469e-06
5.77472e-08
-1.24198e-06
6.43855e-08
-1.25004e-06
7.06956e-08
-1.23936e-06
7.69813e-08
-1.2113e-06
8.3866e-08
-1.1678e-06
-1.10736e-06
8.9826e-08
3.41203e-08
-6.05696e-07
-4.61264e-09
3.87481e-08
-1.10838e-06
4.42723e-08
-1.17448e-06
5.08752e-08
-1.22129e-06
5.80201e-08
-1.24912e-06
6.5312e-08
-1.25733e-06
7.26918e-08
-1.24674e-06
8.05227e-08
-1.21913e-06
8.9506e-08
-1.17678e-06
-1.11118e-06
9.33184e-08
3.65445e-08
-6.37232e-07
-5.31886e-09
4.01853e-08
-1.11202e-06
4.52786e-08
-1.17957e-06
5.15461e-08
-1.22756e-06
5.83748e-08
-1.25595e-06
6.52793e-08
-1.26424e-06
7.20866e-08
-1.25355e-06
7.91057e-08
-1.22614e-06
8.7125e-08
-1.1848e-06
-1.10228e-06
7.82256e-08
3.69448e-08
-6.80806e-07
-5.4794e-09
4.086e-08
-1.11594e-06
4.59478e-08
-1.18466e-06
5.18876e-08
-1.2335e-06
5.80647e-08
-1.26213e-06
6.39369e-08
-1.27011e-06
6.91543e-08
-1.25877e-06
7.37984e-08
-1.23078e-06
7.8585e-08
-1.18959e-06
-1.07645e-06
5.85719e-08
3.58465e-08
-7.22133e-07
-4.94602e-09
4.07351e-08
-1.12082e-06
4.61112e-08
-1.19003e-06
5.18066e-08
-1.23919e-06
5.73416e-08
-1.26767e-06
6.22531e-08
-1.27502e-06
6.60843e-08
-1.2626e-06
6.85731e-08
-1.23327e-06
7.0005e-08
-1.19102e-06
-1.04584e-06
4.3728e-08
3.27261e-08
-7.64494e-07
-3.27893e-09
3.91908e-08
-1.12729e-06
4.52553e-08
-1.1961e-06
5.09626e-08
-1.2449e-06
5.61033e-08
-1.27281e-06
6.05259e-08
-1.27944e-06
6.39163e-08
-1.26599e-06
6.57538e-08
-1.23512e-06
6.56009e-08
-1.19087e-06
-1.0132e-06
3.58524e-08
2.70542e-08
-8.08789e-07
-7.04674e-10
3.56474e-08
-1.13589e-06
4.29414e-08
-1.20339e-06
4.9092e-08
-1.25105e-06
5.42212e-08
-1.27794e-06
5.86851e-08
-1.28391e-06
6.25772e-08
-1.26988e-06
6.53328e-08
-1.23786e-06
6.58154e-08
-1.19135e-06
-9.79581e-07
3.26407e-08
1.83999e-08
-8.45539e-07
-2.51791e-10
2.95198e-08
-1.14702e-06
3.84932e-08
-1.21236e-06
4.54952e-08
-1.25805e-06
5.1097e-08
-1.28354e-06
5.64121e-08
-1.28922e-06
6.22471e-08
-1.27571e-06
6.81561e-08
-1.24377e-06
7.14802e-08
-1.19467e-06
-9.40603e-07
3.04055e-08
6.47292e-09
-8.72344e-07
4.26734e-09
2.01512e-08
-1.16069e-06
3.07764e-08
-1.22298e-06
3.82164e-08
-1.26549e-06
4.36416e-08
-1.28896e-06
4.91792e-08
-1.29476e-06
5.69634e-08
-1.2835e-06
6.83882e-08
-1.2552e-06
8.32427e-08
-1.20953e-06
-9.02326e-07
4.10573e-08
-7.12147e-09
-8.8924e-07
1.09464e-08
9.41191e-09
-1.17723e-06
2.12813e-08
-1.23485e-06
2.79979e-08
-1.27221e-06
3.1309e-08
-1.29227e-06
3.37611e-08
-1.29721e-06
3.7779e-08
-1.28752e-06
4.52941e-08
-1.26271e-06
5.60707e-08
-1.22031e-06
-8.7377e-07
2.31699e-08
-1.71954e-08
-8.96731e-07
1.67408e-08
2.17125e-09
-1.19659e-06
1.44556e-08
-1.24714e-06
1.99436e-08
-1.2777e-06
2.1268e-08
-1.2936e-06
2.11905e-08
-1.29713e-06
2.20988e-08
-1.28842e-06
2.6524e-08
-1.26714e-06
3.55437e-08
-1.22933e-06
-8.58943e-07
1.5453e-08
-2.0843e-08
-8.97103e-07
1.96162e-08
4.91847e-10
-1.21793e-06
1.18708e-08
-1.25852e-06
1.58519e-08
-1.28168e-06
1.61612e-08
-1.29391e-06
1.5501e-08
-1.29647e-06
1.58975e-08
-1.28882e-06
2.04244e-08
-1.27167e-06
3.21166e-08
-1.24102e-06
-8.48641e-07
1.56719e-08
-1.7307e-08
-9.01951e-07
2.04849e-08
2.83744e-09
-1.23807e-06
1.12805e-08
-1.26696e-06
1.33343e-08
-1.28373e-06
1.31926e-08
-1.29376e-06
1.31005e-08
-1.29638e-06
1.44544e-08
-1.29018e-06
2.0473e-08
-1.27769e-06
3.65498e-08
-1.25709e-06
-8.3723e-07
2.01483e-08
-8.81155e-09
-9.09527e-07
1.51381e-08
4.67457e-09
-1.25156e-06
8.82721e-09
-1.27111e-06
9.01599e-09
-1.28392e-06
8.2296e-09
-1.29298e-06
7.71322e-09
-1.29586e-06
8.08592e-09
-1.29055e-06
1.1417e-08
-1.28102e-06
2.19436e-08
-1.26762e-06
-8.34716e-07
1.35052e-08
-4.8474e-09
-9.16798e-07
1.17321e-08
3.77382e-09
-1.26042e-06
5.36613e-09
-1.2727e-06
4.45926e-09
-1.28302e-06
2.57168e-09
-1.29109e-06
3.32255e-10
-1.29362e-06
-1.77968e-09
-1.28844e-06
-3.93609e-09
-1.27886e-06
-3.4307e-09
-1.26796e-06
-8.43959e-07
1.49436e-09
1.15907e-08
-9.2867e-07
1.09296e-34
1.06073e-08
-1.25941e-06
7.16383e-09
-1.26926e-06
3.54147e-09
-1.27939e-06
-9.54021e-10
-1.2866e-06
-6.0528e-09
-1.28853e-06
-1.04922e-08
-1.284e-06
-1.68101e-08
-1.27254e-06
-2.45523e-08
-1.26019e-06
-8.69487e-07
-7.04025e-22
2.55779e-08
-9.54215e-07
4.348e-34
1.68062e-08
-1.25063e-06
9.92576e-09
-1.26238e-06
4.44115e-09
-1.27391e-06
-2.71184e-09
-1.27944e-06
-1.07333e-08
-1.2805e-06
-1.65731e-08
-1.27815e-06
-2.48006e-08
-1.26431e-06
-3.72458e-08
-1.24774e-06
-9.07421e-07
-8.52217e-22
3.21443e-08
-9.86525e-07
2.84302e-35
1.98009e-08
-1.23828e-06
1.21226e-08
-1.2547e-06
6.13878e-09
-1.26792e-06
-3.19863e-09
-1.2701e-06
-1.34964e-08
-1.27021e-06
-1.98019e-08
-1.27185e-06
-2.69469e-08
-1.25717e-06
-4.08538e-08
-1.23384e-06
-9.48543e-07
-1.12709e-23
3.0848e-08
-1.0176e-06
9.76692e-39
1.80335e-08
-1.22544e-06
1.31399e-08
-1.24981e-06
7.48335e-09
-1.26227e-06
-3.23053e-09
-1.25939e-06
-1.45521e-08
-1.25888e-06
-2.13625e-08
-1.26504e-06
-2.4459e-08
-1.25407e-06
-3.74211e-08
-1.22088e-06
-9.86104e-07
6.34333e-26
2.0637e-08
-1.03847e-06
5.43766e-41
1.32277e-08
-1.21803e-06
1.5556e-08
-1.25214e-06
8.7567e-09
-1.25547e-06
-3.01091e-09
-1.24762e-06
-1.47907e-08
-1.2471e-06
-2.35357e-08
-1.2563e-06
-1.97735e-08
-1.25784e-06
-2.52718e-08
-1.21538e-06
-1.01144e-06
1.49875e-26
-1.28789e-09
-1.03731e-06
8.92039e-48
1.32796e-08
-1.2326e-06
2.1832e-08
-1.26069e-06
9.67935e-09
-1.24332e-06
-2.64403e-09
-1.2353e-06
-1.4741e-08
-1.23501e-06
-2.81277e-08
-1.24291e-06