/*--------------------------------*- C++ -*----------------------------------*\
  =========                 |
  \\      /  F ield         | OpenFOAM: The Open Source CFD Toolbox
   \\    /   O peration     | Website:  https://openfoam.org
    \\  /    A nd           | Version:  8
     \\/     M anipulation  |
\*---------------------------------------------------------------------------*/
FoamFile
{
    version     2.0;
    format      ascii;
    class       volScalarField;
    location    "2.7";
    object      epsilon;
}
// * * * * * * * * * * * * * * * * * * * * * * * * * * * * * * * * * * * * * //

dimensions      [0 2 -3 0 0 0 0];

internalField   nonuniform List<scalar> 
9150
(
0.0313132
0.0124359
0.00309815
0.000942224
0.000453302
0.000453612
0.000942822
0.0030992
0.0124377
0.0313138
0.0302225
0.00874303
0.00173127
0.00060561
0.000341654
0.00034188
0.000606032
0.001732
0.00874459
0.0302232
0.0284252
0.00694093
0.00111695
0.00049637
0.000305641
0.000305838
0.000496723
0.00111749
0.00694239
0.028426
0.0264927
0.00600074
0.000837011
0.000463541
0.000294563
0.000294749
0.00046387
0.000837438
0.00600216
0.0264934
0.02449
0.00559599
0.000697903
0.000456305
0.000292763
0.000292947
0.000456628
0.000698263
0.00559741
0.0244907
0.123556
0.0523524
0.0224857
0.0137271
0.00987758
0.00987873
0.013724
0.0224702
0.052299
0.123546
0.0761126
0.0229862
0.0130884
0.00872111
0.00613565
0.00613758
0.00872221
0.0130848
0.0229819
0.0761174
0.0553465
0.0178532
0.00759263
0.00454346
0.00300743
0.00300881
0.0045451
0.00759323
0.0178546
0.0553501
0.0424992
0.0152031
0.00477347
0.00229072
0.00136295
0.00136373
0.00229194
0.00477478
0.0152057
0.0425014
0.0356077
0.0136971
0.00350861
0.00129965
0.000688515
0.000688961
0.00130045
0.00350982
0.0136995
0.0356091
1.61023
0.177044
0.0485228
0.0206851
0.0124599
0.012523
0.0208336
0.0481085
0.171571
1.42358
0.280015
0.116283
0.0452497
0.0205112
0.0125634
0.0126019
0.0206189
0.0455046
0.117971
0.278637
0.235313
0.102689
0.0446451
0.0203706
0.0126674
0.0126854
0.0204181
0.044745
0.103306
0.235013
0.196953
0.0914159
0.0440083
0.0201593
0.0127649
0.0127713
0.0201732
0.0440368
0.0914735
0.196847
0.156202
0.0864185
0.0404458
0.0189934
0.0124165
0.0124179
0.0189911
0.0404304
0.086318
0.15617
0.0779118
0.0774465
0.0769262
0.0763648
0.0757757
0.0751721
0.0745666
0.0739707
0.0733945
0.0728464
0.0397616
0.0396272
0.0394667
0.0392828
0.0390786
0.0388573
0.0386221
0.0383762
0.0381227
0.0378641
0.0330101
0.0329267
0.032823
0.0327003
0.03256
0.0324038
0.0322335
0.0320508
0.0318574
0.0316552
0.0307724
0.0307117
0.0306329
0.0305368
0.0304246
0.0302974
0.0301564
0.030003
0.0298385
0.0296645
0.0299906
0.0299456
0.0298837
0.0298055
0.0297121
0.0296043
0.0294831
0.0293499
0.0292057
0.029052
0.0298842
0.029853
0.0298057
0.0297429
0.0296653
0.0295739
0.0294696
0.0293534
0.0292266
0.0290903
0.0301629
0.0301455
0.0301127
0.030065
0.0300029
0.0299273
0.0298391
0.0297392
0.0296287
0.0295088
0.030694
0.0306917
0.0306744
0.0306426
0.0305968
0.0305376
0.0304659
0.0303826
0.0302886
0.030185
0.0314094
0.0314238
0.0314238
0.0314095
0.0313815
0.0313401
0.031286
0.0312201
0.0311433
0.0310565
0.032271
0.0323044
0.0323239
0.0323293
0.0323211
0.0322994
0.0322648
0.0322178
0.0321593
0.0320902
0.0332567
0.0333119
0.0333536
0.0333815
0.0333957
0.0333963
0.0333833
0.0333573
0.0333188
0.0332686
0.0343537
0.0344339
0.0345011
0.0345549
0.0345949
0.0346207
0.0346325
0.0346301
0.0346139
0.0345844
0.0355549
0.0356638
0.0357605
0.0358441
0.0359139
0.0359692
0.0360093
0.036034
0.0360431
0.0360368
0.0368565
0.0369986
0.0371295
0.0372479
0.0373525
0.0374421
0.0375155
0.0375719
0.0376104
0.0376306
0.0382574
0.0384377
0.0386082
0.0387673
0.038913
0.0390433
0.0391564
0.0392503
0.0393237
0.0393752
0.0397572
0.0399815
0.0401984
0.0404054
0.0405999
0.0407791
0.0409401
0.0410797
0.0411952
0.0412842
0.0413558
0.0416306
0.0419012
0.0421647
0.0424177
0.0426562
0.0428759
0.0430723
0.0432408
0.0433775
0.0430517
0.0433838
0.0437163
0.0440459
0.0443685
0.0446789
0.0449715
0.0452398
0.0454774
0.0456776
0.0448427
0.0452389
0.0456419
0.0460482
0.0464531
0.0468508
0.0472342
0.0475949
0.0479234
0.0482091
0.0467254
0.0471922
0.0476741
0.0481678
0.0486686
0.0491704
0.0496651
0.0501427
0.0505908
0.050994
0.0486963
0.0492394
0.0498076
0.0503981
0.051007
0.0516282
0.0522535
0.0528723
0.0534702
0.0540284
0.050754
0.0513784
0.0520393
0.0527351
0.0534625
0.0542163
0.0549888
0.0557691
0.0565422
0.0572868
0.0529018
0.053613
0.0543744
0.055186
0.0560463
0.056952
0.0578969
0.0588715
0.0598603
0.0608384
0.0551438
0.0559469
0.0568149
0.0577499
0.0587524
0.0598204
0.0609489
0.0621277
0.0633397
0.0645561
0.0574821
0.0583833
0.0593618
0.0604246
0.0615744
0.0628111
0.0641312
0.0655261
0.0669799
0.0684666
0.0599265
0.060931
0.0620294
0.0632282
0.0645374
0.0659614
0.0675022
0.0691577
0.07092
0.0727716
0.0624871
0.0635975
0.0648192
0.0661601
0.0676291
0.0692392
0.0709968
0.0729052
0.0749621
0.0771566
0.0651789
0.066398
0.0677424
0.0692236
0.0708525
0.0726373
0.074593
0.0767253
0.0790355
0.0815177
0.0680225
0.0693583
0.0708331
0.0724598
0.0742514
0.0762213
0.0783813
0.0807463
0.0833242
0.0861184
0.0710439
0.0725086
0.0741271
0.0759145
0.0778865
0.0800599
0.082452
0.0850825
0.0879731
0.0911366
0.0742699
0.0758763
0.0776528
0.0796169
0.0817883
0.0841883
0.0868405
0.0897705
0.0930106
0.0965918
0.0777279
0.0794837
0.0814255
0.0835738
0.0859517
0.088586
0.0915067
0.0947478
0.0983468
0.102351
0.0814502
0.0833533
0.0854547
0.0877771
0.0903466
0.0931937
0.0963537
0.0998672
0.10378
0.108148
0.0854876
0.0875239
0.0897637
0.09223
0.0949495
0.0979533
0.101278
0.104969
0.109074
0.11365
0.0899332
0.0920805
0.094427
0.096993
0.0998018
0.102881
0.106261
0.109981
0.114086
0.118623
0.0949561
0.097195
0.099621
0.102251
0.105102
0.108196
0.111553
0.115197
0.119159
0.123471
0.100829
0.103152
0.105646
0.108326
0.111202
0.114289
0.117603
0.121156
0.124959
0.129021
0.10795
0.110356
0.11291
0.115623
0.118506
0.121568
0.124812
0.128236
0.131831
0.135598
0.116888
0.119381
0.121991
0.124731
0.127609
0.130632
0.133796
0.137084
0.140471
0.143918
0.128496
0.1311
0.133782
0.136554
0.139429
0.142416
0.145517
0.148713
0.151977
0.155197
0.144032
0.146792
0.149573
0.152386
0.155243
0.158154
0.161121
0.164125
0.167139
0.170065
0.165345
0.168328
0.171248
0.174113
0.176932
0.179711
0.182452
0.185152
0.187802
0.190377
0.195206
0.19851
0.201634
0.204584
0.207365
0.209981
0.212445
0.214778
0.217012
0.219194
0.237806
0.241598
0.245055
0.248183
0.250982
0.253454
0.255622
0.257526
0.259217
0.260775
0.299335
0.303893
0.307896
0.311345
0.314214
0.31649
0.31819
0.319356
0.320043
0.320326
0.388575
0.394409
0.399305
0.403255
0.406211
0.408145
0.409082
0.409091
0.408249
0.406639
0.516956
0.525122
0.531546
0.536252
0.53925
0.540561
0.540254
0.538444
0.535269
0.530836
0.696584
0.708953
0.718351
0.724785
0.728302
0.729049
0.727157
0.72276
0.716101
0.707447
0.93707
0.955896
0.970746
0.981394
0.987655
0.989449
0.986811
0.979836
0.968782
0.954242
1.24514
1.27314
1.29624
1.31401
1.32604
1.33176
1.33071
1.32266
1.3078
1.28694
1.62045
1.66126
1.69591
1.72363
1.74383
1.75608
1.75955
1.75327
1.73734
1.71275
2.0476
2.10567
2.15658
2.19891
2.23155
2.25369
2.26483
2.26471
2.25299
2.22944
2.49536
2.57396
2.64559
2.70856
2.7602
2.79943
2.82556
2.83815
2.83644
2.81953
2.91878
3.02029
3.11576
3.20319
3.2807
3.34527
3.3952
3.42926
3.44614
3.44455
3.26225
3.38712
3.50817
3.6231
3.72971
3.82607
3.90845
3.97394
4.02062
4.04654
3.46996
3.61589
3.76179
3.90472
4.04223
4.1725
4.29388
4.40052
4.48896
4.5566
3.50722
3.66753
3.83346
4.00085
4.16683
4.33044
4.49134
4.64617
4.78671
4.90991
3.38723
3.54855
3.72336
3.90537
4.0909
4.28087
4.47748
4.68083
4.8787
5.06764
3.18299
3.32819
3.49413
3.67265
3.8604
4.06217
4.28404
4.52736
4.78007
5.03789
2.98843
3.11237
3.25587
3.40768
3.5746
3.76799
3.99778
4.26395
4.56035
4.88141
2.82871
2.9599
3.09969
3.21405
3.3414
3.50745
3.72299
3.99248
4.31646
4.68883
2.70344
2.8762
3.04651
3.14176
3.22287
3.34509
3.52863
3.78744
4.12537
4.53746
2.68226
2.90314
3.11211
3.18896
3.21391
3.28165
3.42795
3.67087
4.0173
4.46357
2.80532
3.08301
3.30626
3.32471
3.27861
3.2902
3.40131
3.63212
3.99058
4.47329
3.05202
3.40193
3.60737
3.53114
3.40266
3.3566
3.43593
3.66147
4.04032
4.56787
3.42532
3.85719
3.98315
3.77729
3.56192
3.46201
3.51783
3.74897
4.16073
4.74661
3.92326
4.40045
4.35032
4.00735
3.71529
3.57667
3.62557
3.87872
4.33947
4.99983
4.51531
4.94235
4.64044
4.1775
3.83343
3.67961
3.74299
4.03713
4.56346
5.31257
5.20271
5.43115
4.86537
4.30302
3.92642
3.77577
3.87119
4.22273
4.8287
5.67629
5.98389
5.78576
5.02141
4.39176
4.00122
3.8707
4.01467
4.43941
5.13856
6.09321
6.66185
5.95583
5.09126
4.43972
4.05897
3.96707
4.17667
4.69111
5.49848
6.5705
7.21381
6.13303
5.15497
4.47778
4.11332
4.07094
4.36002
4.98069
5.91569
7.12608
7.48036
6.20634
5.17906
4.50074
4.16585
4.18418
4.56523
5.30756
6.3915
7.77368
7.47276
6.19791
5.18183
4.51855
4.22035
4.30601
4.78758
5.6629
6.91268
8.50087
7.68508
6.30081
5.24191
4.56754
4.29237
4.43987
5.02256
6.03535
7.45797
9.26126
8.01139
6.49995
5.36813
4.65689
4.3864
4.5855
5.26544
6.41459
8.00853
10.0266
8.40716
6.77539
5.55226
4.78205
4.4986
4.73918
5.51257
6.79565
8.55327
10.7686
8.87529
7.12306
5.78919
4.93689
4.62269
4.89706
5.76592
7.18929
9.11259
11.5107
9.4357
7.54568
6.07449
5.11313
4.74991
5.05507
6.0328
7.62248
9.74543
12.3704
10.0949
8.04394
6.4026
5.30045
4.86928
5.20742
6.31991
8.12251
10.5099
13.4527
10.8618
8.62008
6.76794
5.48749
4.96781
5.34497
6.62785
8.70406
11.4357
14.7965
11.7715
9.28544
7.16726
5.66258
5.03069
5.45481
6.95069
9.37091
12.5338
16.4117
12.8846
10.0596
7.59829
5.81309
5.04115
5.52055
7.27763
10.122
13.8094
18.2846
14.2593
10.9612
8.05548
5.92345
4.9802
5.52278
7.59473
10.9593
15.2905
20.4669
15.963
12.0054
8.52673
5.97427
4.82757
5.4391
7.88251
11.885
17.0296
23.0797
18.0703
13.199
8.98908
5.94236
4.56427
5.24488
8.11027
12.888
19.0891
26.305
20.6661
14.534
9.40455
5.80271
4.17795
4.91609
8.23085
13.9304
21.5312
30.3888
23.8169
15.9816
9.71863
5.53561
3.67253
4.43318
8.16568
14.9073
24.3957
35.9146
27.5676
17.415
9.84524
5.12794
3.07504
3.79102
7.78991
15.529
27.3288
42.8989
31.7446
18.5382
9.64534
4.56433
2.4314
3.02529
7.01113
15.4221
29.6078
50.6072
35.5552
18.8523
8.94772
3.84048
1.79973
2.2205
5.84284
14.2695
30.2245
57.4662
37.4188
17.7307
7.64862
2.99939
1.24074
1.48533
4.43541
11.9703
27.9148
59.2798
34.6887
14.71
5.85387
2.15383
0.800696
0.905989
3.04706
8.90653
22.2379
50.8679
25.4065
10.2281
3.97348
1.43708
0.490055
0.510067
1.91895
5.94796
15.3371
35.4777
14.0905
6.03314
2.46444
0.909595
0.284918
0.26355
1.12046
3.68125
9.7939
23.0582
7.57249
3.48285
1.50126
0.556778
0.155233
0.124478
0.60671
2.1219
5.8054
13.9203
4.11874
2.02209
0.901992
0.321859
0.0766939
0.0547383
0.303195
1.14378
3.19293
7.6967
2.20533
1.16844
0.521764
0.166946
0.0343716
0.0250287
0.138367
0.578485
1.64422
3.82427
1.15737
0.680682
0.27783
0.0726095
0.0169407
0.0150661
0.0581053
0.271611
0.821489
1.68581
0.770461
0.416669
0.121934
0.0290863
0.0127753
0.0127549
0.0269669
0.112522
0.427974
0.833161
0.0723149
0.0718004
0.0713418
0.0709407
0.0705942
0.0702962
0.0700375
0.0698087
0.0696078
0.0694638
0.0695111
0.0696269
0.0697081
0.0697291
0.0696702
0.0695107
0.0692288
0.0688016
0.0682061
0.0674199
0.0664234
0.0652076
0.0637818
0.0621686
0.0603796
0.0582735
0.0558022
0.05293
0.0496417
0.0459377
0.0418306
0.0373543
0.0326595
0.028255
0.0239059
0.0195832
0.0153253
0.0112273
0.00760889
0.00395387
0.037589
0.0372969
0.0370062
0.0367183
0.0364341
0.0361541
0.0358792
0.0356112
0.0353557
0.0351237
0.0349345
0.0347699
0.0346069
0.0344326
0.0342382
0.0340159
0.0337582
0.0334575
0.0331059
0.0326955
0.0322184
0.0316678
0.0310375
0.0303206
0.0295052
0.0285669
0.0275101
0.0263226
0.0250004
0.0235466
0.0219714
0.020297
0.0185733
0.0168726
0.0151332
0.0133341
0.011487
0.00965791
0.00805867
0.00757851
0.031434
0.0311927
0.0309466
0.0306976
0.0304474
0.0301978
0.0299507
0.0297084
0.0294738
0.0292502
0.0290408
0.0288408
0.0286431
0.0284415
0.0282304
0.0280047
0.0277592
0.0274886
0.0271873
0.0268494
0.0264688
0.0260392
0.025554
0.0250066
0.0243893
0.0236946
0.0229173
0.0220523
0.0211005
0.02007
0.0189664
0.0178021
0.0165966
0.0153752
0.0141443
0.0129247
0.0117839
0.0109118
0.0108677
0.00880976
0.0294717
0.0292593
0.0290405
0.0288173
0.0285915
0.028365
0.0281393
0.0279162
0.027697
0.0274829
0.0272747
0.0270706
0.026867
0.0266603
0.0264466
0.026222
0.0259823
0.0257233
0.0254404
0.0251289
0.0247838
0.0244
0.0239723
0.0234957
0.0229652
0.0223764
0.021726
0.0210118
0.0202336
0.0193934
0.0184945
0.0175429
0.016555
0.0155507
0.0145601
0.0136341
0.0128885
0.0126242
0.0138966
0.0088411
0.0288804
0.0286901
0.0284931
0.0282912
0.0280859
0.027879
0.0276716
0.027465
0.0272597
0.0270563
0.0268547
0.0266542
0.0264525
0.0262469
0.0260344
0.0258118
0.0255757
0.0253226
0.0250487
0.0247502
0.0244233
0.0240642
0.0236691
0.0232347
0.0227579
0.0222361
0.0216676
0.021051
0.0203858
0.0196715
0.0189084
0.0180978
0.0172466
0.0163734
0.015522
0.0147655
0.0142494
0.0143133
0.0162298
0.0375542
0.0289371
0.0287663
0.0285886
0.0284056
0.0282189
0.0280297
0.027839
0.0276475
0.0274556
0.0272633
0.0270702
0.0268755
0.026678
0.0264756
0.0262656
0.0260452
0.0258117
0.0255621
0.0252932
0.0250023
0.0246864
0.0243428
0.0239694
0.0235641
0.0231256
0.022653
0.0221463
0.0216055
0.0210308
0.0204215
0.0197754
0.0190877
0.0183544
0.0175831
0.0168201
0.0161619
0.0157943
0.0160853
0.0183631
0.0375344
0.029373
0.0292205
0.0290608
0.0288955
0.0287259
0.028553
0.0283777
0.0282004
0.0280211
0.0278396
0.0276553
0.0274672
0.0272743
0.0270753
0.0268679
0.0266495
0.0264177
0.02617
0.025904
0.0256174
0.0253082
0.0249746
0.0246154
0.0242301
0.0238186
0.023382
0.0229219
0.0224408
0.0219418
0.0214273
0.0208977
0.0203472
0.0197592
0.0191032
0.0183964
0.0177763
0.0175049
0.0179796
0.0201711
0.00883398
0.0300663
0.0299314
0.029789
0.0296404
0.0294869
0.0293292
0.0291681
0.0290038
0.0288361
0.0286647
0.0284888
0.0283072
0.0281185
0.0279225
0.0277171
0.0275
0.0272692
0.0270223
0.0267575
0.0264729
0.0261671
0.025839
0.0254882
0.0251149
0.0247201
0.0243059
0.0238755
0.0234338
0.0229869
0.0225425
0.022109
0.0216912
0.0212784
0.0208087
0.0201744
0.0195719
0.0193392
0.0198265
0.0225894
0.0419078
0.030955
0.0308378
0.0307122
0.0305797
0.0304413
0.0302977
0.0301496
0.0299971
0.0298399
0.0296775
0.029509
0.0293333
0.0291491
0.028955
0.0287508
0.0285343
0.0283037
0.028057
0.0277924
0.0275085
0.0272042
0.0268788
0.0265321
0.0261648
0.0257782
0.0253747
0.0249582
0.024534
0.0241094
0.0236947
0.0233034
0.0229535
0.0226668
0.0224444
0.0221799
0.0217885
0.0214579
0.0217244
0.0244736
0.0455278
0.0320065
0.0319071
0.0317982
0.0316811
0.0315569
0.0314264
0.0312901
0.031148
0.0309999
0.0308453
0.0306833
0.0305127
0.0303323
0.0301406
0.029937
0.0297209
0.0294905
0.029244
0.02898
0.0286971
0.0283943
0.0280713
0.0277281
0.0273653
0.0269845
0.0265882
0.0261806
0.0257672
0.0253563
0.0249591
0.0245907
0.0242709
0.0240216
0.0238496
0.0237108
0.0235255
0.0233357
0.0235389
0.0258508
0.043482
0.0332038
0.0331226
0.0330304
0.0329284
0.0328177
0.0326992
0.0325733
0.0324404
0.0323002
0.0321523
0.0319958
0.0318297
0.0316529
0.031464
0.0312617
0.0310465
0.0308174
0.0305727
0.030311
0.0300312
0.0297327
0.029415
0.0290783
0.0287235
0.0283523
0.0279678
0.0275743
0.0271783
0.0267889
0.0264181
0.0260814
0.0257955
0.0255733
0.0254074
0.0252508
0.0250472
0.0248484
0.025033
0.0272418
0.0444016
0.0345397
0.0344777
0.0344024
0.0343151
0.0342172
0.0341096
0.0339932
0.0338683
0.0337348
0.0335926
0.0334411
0.0332794
0.0331065
0.0329214
0.032723
0.0325102
0.0322844
0.0320442
0.0317883
0.0315157
0.0312258
0.0309182
0.0305932
0.0302519
0.0298961
0.0295288
0.0291543
0.0287789
0.0284108
0.0280601
0.0277383
0.0274556
0.0272162
0.0270095
0.0268063
0.026584
0.026421
0.0267189
0.0291367
0.0469323
0.0360142
0.0359725
0.0359146
0.0358421
0.0357564
0.035659
0.035551
0.035433
0.0353056
0.0351687
0.0350221
0.0348652
0.0346974
0.0345178
0.0343255
0.0341197
0.0339007
0.0336691
0.0334236
0.0331632
0.0328871
0.0325949
0.0322868
0.0319636
0.0316266
0.0312784
0.0309226
0.030564
0.0302087
0.0298639
0.0295367
0.0292331
0.0289549
0.0286984
0.0284585
0.0282532
0.0281979
0.0287225
0.0315953
0.0515096
0.0376328
0.0376133
0.0375738
0.0375163
0.0374426
0.0373548
0.0372545
0.0371429
0.0370211
0.0368897
0.0367488
0.0365984
0.0364379
0.0362669
0.0360847
0.0358905
0.0356836
0.0354662
0.0352368
0.0349942
0.0347372
0.0344652
0.0341778
0.0338749
0.0335573
0.0332264
0.0328843
0.0325341
0.0321797
0.0318258
0.0314772
0.0311386
0.0308144
0.0305102
0.0302411
0.0300552
0.0301008
0.0308454
0.0342319
0.0571955
0.0394061
0.0394118
0.0393926
0.039351
0.0392896
0.039211
0.039118
0.0390126
0.0388969
0.0387721
0.038639
0.0384981
0.0383491
0.0381916
0.038025
0.0378487
0.0376621
0.0374652
0.0372585
0.0370399
0.0368076
0.03656
0.0362957
0.0360137
0.0357135
0.0353949
0.0350587
0.0347062
0.0343394
0.0339616
0.0335766
0.0331899
0.0328093
0.0324487
0.0321374
0.0319447
0.0320484
0.0329783
0.0369286
0.0629631
0.0413496
0.0413855
0.0413902
0.0413663
0.0413176
0.0412483
0.0411626
0.0410641
0.0409561
0.0408407
0.0407195
0.0405933
0.0404622
0.0403258
0.0401831
0.0400334
0.0398758
0.0397094
0.0395344
0.0393479
0.0391468
0.0389283
0.0386897
0.0384286
0.0381428
0.0378309
0.037492
0.0371259
0.0367336
0.0363176
0.0358821
0.0354339
0.0349843
0.0345531
0.0341792
0.0339472
0.0340631
0.0351305
0.0396215
0.0685726
0.0434867
0.0435598
0.0435925
0.0435883
0.0435529
0.0434934
0.0434162
0.0433271
0.0432307
0.0431303
0.0430281
0.0429253
0.0428223
0.0427183
0.0426119
0.0425017
0.0423863
0.0422637
0.0421331
0.0419898
0.0418292
0.0416469
0.0414385
0.0411999
0.0409272
0.0406175
0.0402685
0.0398792
0.0394499
0.0389832
0.0384843
0.0379625
0.0374328
0.0369198
0.0364686
0.0361768
0.036282
0.037471
0.0425096
0.0746931
0.0458447
0.0459654
0.0460317
0.0460492
0.0460282
0.04598
0.0459147
0.0458406
0.0457637
0.0456884
0.0456173
0.045552
0.0454926
0.0454383
0.0453867
0.0453353
0.0452815
0.0452221
0.0451541
0.0450708
0.0449655
0.0448317
0.0446627
0.0444526
0.0441958
0.0438876
0.0435247
0.0431055
0.0426305
0.042103
0.0415305
0.0409259
0.0403094
0.0397104
0.0391792
0.0388235
0.0389124
0.0402323
0.0459236
0.0821133
0.0484551
0.048638
0.048745
0.0487865
0.0487816
0.048749
0.0487033
0.0486553
0.0486123
0.0485792
0.0485589
0.0485529
0.048561
0.0485815
0.0486112
0.0486463
0.0486825
0.0487151
0.0487374
0.0487399
0.0487134
0.0486486
0.0485366
0.0483689
0.0481379
0.0478373
0.0474624
0.0470116
0.0464861
0.0458912
0.0452371
0.0445428
0.0438372
0.0431564
0.0425537
0.0421447
0.0422359
0.0437512
0.0503924
0.0921082
0.0513524
0.0516237
0.0517779
0.0518437
0.0518589
0.0518518
0.0518413
0.0518395
0.0518541
0.0518899
0.0519498
0.0520347
0.052144
0.0522751
0.0524238
0.052585
0.0527523
0.0529188
0.053072
0.0531991
0.0532875
0.0533248
0.0532993
0.0531997
0.0530157
0.0527387
0.0523625
0.0518848
0.0513092
0.0506438
0.0499025
0.0491123
0.0483169
0.0475636
0.0469069
0.0464728
0.0466191
0.0484442
0.0564056
0.10662
0.0545506
0.0549552
0.0551711
0.055266
0.0553163
0.0553584
0.0554119
0.0554887
0.055596
0.0557386
0.0559189
0.0561376
0.0563936
0.056684
0.0570039
0.0573463
0.0577023
0.058062
0.058404
0.0587111
0.058967
0.0591559
0.0592625
0.0592726
0.0591729
0.0589511
0.0585975
0.058108
0.0574882
0.0567531
0.05592
0.0550214
0.0541262
0.0533073
0.0526133
0.0521937
0.0524933
0.054817
0.0643894
0.126982
0.0580164
0.0585828
0.0589065
0.0590819
0.0592211
0.059365
0.059531
0.0597329
0.0599801
0.0602787
0.0606316
0.0610396
0.0615016
0.0620148
0.0625745
0.0631726
0.0637968
0.0644297
0.0650384
0.0656013
0.0660974
0.0665068
0.0668111
0.0669928
0.0670355
0.0669226
0.0666378
0.0661688
0.0655215
0.0647206
0.0637909
0.0627719
0.0617651
0.0608766
0.0601716
0.0598359
0.0604295
0.0635723
0.0757787
0.153448
0.0618214
0.0625976
0.0630097
0.0633455
0.0636742
0.0640004
0.0643446
0.0647313
0.0651779
0.0656948
0.0662866
0.0669547
0.0676983
0.0685152
0.0694027
0.0703537
0.0713531
0.0723569
0.0733318
0.0742491
0.0750817
0.0758046
0.0763951
0.0768341
0.0771029
0.0771793
0.0770353
0.0766416
0.0759981
0.0751439
0.0741256
0.0730037
0.0718954
0.0709445
0.0702706
0.0701171
0.0711821
0.0755145
0.0914239
0.189581
0.0658051
0.0669282
0.0676342
0.068293
0.0689002
0.069454
0.0700297
0.0706633
0.07138
0.0721925
0.073106
0.0741228
0.0752431
0.076467
0.0777932
0.0792112
0.080697
0.0821895
0.0836544
0.0850553
0.0863555
0.0875203
0.0885195
0.089332
0.089941
0.0903202
0.0904222
0.0901894
0.0896121
0.0887409
0.0876525
0.0864428
0.0852522
0.0842584
0.0836565
0.0837928
0.0855682
0.0916042
0.112526
0.241717
0.0700387
0.0716059
0.0728154
0.0736834
0.0746468
0.0755897
0.0765556
0.0775899
0.0787152
0.0799477
0.0812984
0.0827762
0.0843901
0.0861466
0.0880443
0.0900669
0.0921472
0.0942585
0.0963635
0.0984139
0.100358
0.102143
0.10372
0.105062
0.106161
0.106994
0.107492
0.107551
0.107148
0.106333
0.10521
0.103926
0.102666
0.101642
0.101135
0.10164
0.104359
0.112745
0.140758
0.311796
0.0747983
0.0769309
0.0788405
0.0801701
0.0813298
0.0827169
0.0841755
0.0857352
0.0873987
0.089172
0.0910715
0.0931193
0.0953404
0.0977533
0.100359
0.103099
0.105925
0.10882
0.111749
0.114654
0.117469
0.120117
0.122519
0.12461
0.126394
0.127864
0.128931
0.129454
0.129365
0.128709
0.127615
0.126299
0.125002
0.12398
0.12359
0.124517
0.128346
0.139531
0.176032
0.397155
0.0796078
0.0822788
0.0849233
0.0872325
0.0887978
0.0909708
0.0933102
0.0955485
0.0978375
0.100208
0.102691
0.105343
0.108224
0.111376
0.114773
0.118355
0.122094
0.125968
0.129946
0.13396
0.137927
0.141754
0.145326
0.148509
0.151246
0.15354
0.15534
0.156492
0.156882
0.156558
0.155655
0.154415
0.153136
0.152145
0.151916
0.153337
0.158416
0.172752
0.218982
0.499012
0.0843217
0.0874492
0.0906912
0.0939387
0.0967271
0.0994714
0.103361
0.106984
0.110172
0.113231
0.116295
0.1195
0.123007
0.126905
0.131147
0.1357
0.140529
0.145616
0.150924
0.156372
0.161853
0.167238
0.172356
0.177012
0.181085
0.184531
0.187315
0.18931
0.190399
0.190625
0.190146
0.189186
0.188078
0.187245
0.187306
0.18936
0.195862
0.213689
0.270846
0.619142
0.0893159
0.0929618
0.0968527
0.10096
0.105031
0.108857
0.113834
0.119522
0.124222
0.128007
0.131519
0.135169
0.139264
0.143873
0.149035
0.154716
0.160877
0.167484
0.174487
0.181779
0.189215
0.196593
0.20367
0.210215
0.216056
0.221082
0.225237
0.228423
0.230528
0.231594
0.231789
0.231382
0.230763
0.23044
0.231222
0.23436
0.242758
0.264661
0.333983
0.760259
0.0948015
0.0990527
0.103676
0.108666
0.113844
0.11903
0.125234
0.132499
0.139088
0.143787
0.147389
0.151312
0.155978
0.161453
0.167761
0.174866
0.182716
0.191226
0.200328
0.209903
0.219711
0.229509
0.239019
0.247946
0.256049
0.263183
0.269244
0.274121
0.2777
0.280014
0.281259
0.28181
0.282246
0.282988
0.284753
0.289279
0.300353
0.328377
0.415514
0.941675
0.100789
0.105727
0.111181
0.117158
0.123501
0.130107
0.137885
0.146607
0.154087
0.158686
0.162252
0.166681
0.172255
0.178966
0.186799
0.195709
0.205626
0.216448
0.228047
0.240283
0.252891
0.265594
0.278095
0.29006
0.301178
0.311191
0.319898
0.327127
0.332748
0.336769
0.339425
0.341266
0.342473
0.343637
0.345874
0.351276
0.364422
0.397978
0.50378
1.15448
0.107081
0.112708
0.118996
0.125966
0.133464
0.14156
0.150958
0.160334
0.166674
0.170587
0.174972
0.180643
0.187688
0.196094
0.205847
0.216915
0.229238
0.24271
0.257194
0.272568
0.288616
0.304972
0.32125
0.33708
0.352102
0.365959
0.378298
0.38879
0.397183
0.403411
0.407732
0.410512
0.412075
0.413255
0.415389
0.420955
0.435406
0.473896
0.598805
1.38418
0.113329
0.119518
0.126461
0.134181
0.142555
0.151873
0.161727
0.16931
0.174403
0.17953
0.185708
0.193226
0.20219
0.212658
0.224662
0.238209
0.253272
0.269806
0.287737
0.306915
0.327085
0.347833
0.368724
0.389386
0.409434
0.42841
0.445738
0.460774
0.472983
0.482106
0.488287
0.491651
0.493045
0.493462
0.494381
0.498756
0.513095
0.555318
0.699115
1.62779
0.119082
0.125561
0.132815
0.140818
0.149471
0.158674
0.166716
0.173193
0.179604
0.186741
0.194964
0.204532
0.215632
0.228404
0.242946
0.25932
0.277553
0.297643
0.319582
0.34324
0.368232
0.394019
0.420363
0.447066
0.473732
0.499721
0.524072
0.545579
0.563099
0.575822
0.583764
0.587325
0.587633
0.585845
0.583563
0.58432
0.596078
0.639895
0.801106
1.87555
0.123967
0.130343
0.137486
0.145269
0.153589
0.161623
0.168955
0.176329
0.184267
0.193087
0.203101
0.214596
0.22782
0.242983
0.260255
0.279764
0.301599
0.325844
0.352528
0.38127
0.411221
0.442426
0.475384
0.510098
0.546026
0.582094
0.61671
0.6477
0.672611
0.689803
0.699207
0.70127
0.697984
0.690908
0.68147
0.674353
0.680001
0.722697
0.898614
2.11083
0.128477
0.134414
0.141183
0.148839
0.156615
0.164027
0.171617
0.179746
0.18867
0.198691
0.210123
0.223275
0.23845
0.255935
0.275992
0.298833
0.324654
0.353571
0.38523
0.418429
0.453141
0.4909
0.532711
0.578813
0.628589
0.680301
0.731085
0.776968
0.813374
0.836811
0.846887
0.843723
0.830176
0.809253
0.78472
0.763829
0.758707
0.796543
0.982864
2.31177
0.133639
0.138973
0.144944
0.151706
0.158794
0.166215
0.174158
0.18283
0.192498
0.203459
0.216036
0.230574
0.247444
0.267035
0.289723
0.315846
0.345644
0.378749
0.413736
0.450529
0.491224
0.537828
0.591904
0.654542
0.7257
0.803376
0.882836
0.956237
1.01392
1.04798
1.05716
1.03964
1.00067
0.949057
0.895048
0.849482
0.825853
0.853086
1.04201
2.44223
0.139775
0.144393
0.149549
0.155404
0.161924
0.169153
0.17718
0.186175
0.196367
0.208029
0.221483
0.237105
0.255329
0.276642
0.301537
0.330465
0.363398
0.398716
0.435854
0.477234
0.525495
0.583318
0.653795
0.740105
0.844486
0.966312
1.09929
1.22912
1.33437
1.39393
1.40028
1.34511
1.24611
1.12978
1.01932
0.93049
0.877128
0.886381
1.0664
2.4631
0.147606
0.151555
0.156055
0.161188
0.167101
0.173916
0.181761
0.190797
0.201221
0.213285
0.227307
0.24368
0.262881
0.285477
0.312101
0.343328
0.378179
0.414495
0.454456
0.501141
0.557774
0.628682
0.71973
0.838398
0.992859
1.18887
1.42329
1.67521
1.90057
2.0421
2.04763
1.88707
1.63842
1.38368
1.16937
1.01232
0.917589
0.90096
1.05722
2.34738
0.158327
0.161366
0.16491
0.169351
0.174713
0.181078
0.188603
0.197452
0.207818
0.219954
0.234194
0.250957
0.270762
0.294256
0.322232
0.355288
0.391053
0.428812
0.472028
0.524017
0.589175
0.674086
0.788764
0.948085
1.17259
1.48616
1.90587
2.41936
2.95496
3.37638
3.44703
2.94919
2.3034
1.75914
1.36938
1.1151
0.966585
0.917151
1.04053
2.13654
0.172725
0.17507
0.177796
0.181458
0.186098
0.191811
0.198767
0.207131
0.217094
0.228923
0.242972
0.259689
0.279627
0.303444
0.332019
0.365771
0.4019
0.441419
0.487883
0.544959
0.618151
0.716458
0.854891
1.05854
1.3683
1.84579
2.56842
3.59794
4.90666
6.27424
6.74735
5.04148
3.46094
2.38069
1.703
1.29617
1.06606
0.969686
1.05191
1.95359
0.19274
0.194587
0.196515
0.199208
0.202883
0.207653
0.213706
0.221222
0.230406
0.241527
0.254937
0.271086
0.290514
0.313793
0.341961
0.375408
0.411965
0.45323
0.502553
0.563823
0.643263
0.751771
0.908805
1.14968
1.53949
2.1952
3.3102
5.16303
8.05851
12.027
11.9024
8.89034
5.55808
3.49286
2.29458
1.61949
1.2503
1.07673
1.09957
1.86472
0.22127
0.222643
0.223658
0.225082
0.227425
0.230824
0.23549
0.241679
0.249614
0.259547
0.271812
0.286839
0.30515
0.327298
0.354517
0.387379
0.424429
0.467039
0.518322
0.582126
0.664726
0.777719
0.942713
1.20019
1.63058
2.3954
3.8022
6.3981
11.0651
18.7058
16.1037
13.8825
8.46549
5.12458
3.21289
2.14523
1.56198
1.26974
1.22244
1.98991
0.262204
0.262779
0.262462
0.262187
0.262685
0.264211
0.26695
0.271212
0.277277
0.28541
0.295915
0.309198
0.325791
0.346356
0.372219
0.404313
0.441647
0.484872
0.53687
0.601268
0.683633
0.794741
0.955275
1.20338
1.61694
2.36393
3.78536
6.53611
11.7831
21.1797
20.4045
16.5083
12.1161
7.28035
4.50752
2.93297
2.06077
1.61473
1.51229
2.49769
0.320297
0.319706
0.318088
0.315692
0.313411
0.31205
0.311984
0.313492
0.316869
0.322393
0.330372
0.341183
0.35535
0.373636
0.39732
0.427689
0.464358
0.507438
0.55906
0.622307
0.70164
0.805861
0.952021
1.1709
1.52317
2.14489
3.31952
5.60187
10.0013
18.1242
22.0606
16.2487
13.1252
9.54611
6.19418
4.01578
2.79613
2.18673
2.13346
4.04901
0.404213
0.400932
0.39682
0.391667
0.385704
0.380183
0.376018
0.373545
0.37304
0.374794
0.379149
0.386497
0.397311
0.412334
0.432816
0.460366
0.495059
0.536712
0.586733
0.647379
0.721861
0.816468
0.943628
1.12579
1.40237
1.86227
2.69934
4.28882
7.31159
12.8291
18.3292
15.4688
11.7979
9.13249
6.93661
5.06647
3.67853
2.8243
2.46053
2.56821
0.524873
0.517248
0.508421
0.498507
0.48765
0.476517
0.466449
0.458187
0.452033
0.448262
0.447301
0.449625
0.455705
0.466226
0.482422
0.505944
0.537097
0.575637
0.622858
0.680206
0.749561
0.834581
0.942956
1.08913
1.29553
1.60963
2.14585
3.11555
4.90829
8.15546
12.5487
12.5863
10.225
7.93832
6.21138
4.9505
4.0203
3.45978
3.98424
15.561
0.696267
0.682398
0.666685
0.649452
0.631022
0.611898
0.593371
0.576576
0.562093
0.550249
0.541541
0.536577
0.535909
0.54021
0.550461
0.567917
0.593574
0.627918
0.671255
0.724165
0.787787
0.86375
0.955504
1.07146
1.22485
1.43275
1.74236
2.24747
3.10759
4.56
6.86119
8.73356
7.76306
6.34606
5.12573
4.21279
3.5912
3.30253
4.05791
15.8699
0.935687
0.913055
0.887671
0.860105
0.830808
0.800148
0.769392
0.740219
0.713714
0.690312
0.670521
0.655084
0.644841
0.640563
0.642981
0.653006
0.671612
0.699351
0.736357
0.782867
0.839579
0.907277
0.98662
1.08107
1.19746
1.33921
1.51482
1.76312
2.14463
2.73785
3.62907
4.81557
5.33719
4.73226
3.98655
3.36764
2.93968
2.72586
2.81172
3.36368
1.25966
1.2261
1.18814
1.1465
1.10203
1.0556
1.00842
0.962531
0.919415
0.87985
0.844395
0.814674
0.79176
0.775988
0.767962
0.768289
0.777586
0.796058
0.823851
0.861014
0.907818
0.964776
1.03177
1.10886
1.19934
1.3069
1.42527
1.55328
1.72276
1.96941
2.33876
2.88619
3.46447
3.48579
3.10662
2.7
2.40731
2.30264
2.53884
2.4234
1.67846
1.63402
1.58206
1.52375
1.46038
1.3932
1.32367
1.25455
1.18905
1.12867
1.0733
1.02455
0.984464
0.953582
0.932981
0.922178
0.919891
0.925992
0.941301
0.965898
0.999403
1.04192
1.09383
1.15461
1.22408
1.30665
1.40348
1.49234
1.57079
1.67083
1.82206
2.06501
2.44041
2.71274
2.57544
2.32475
2.10531
2.03501
2.41167
5.76476
2.19208
2.13939
2.07435
1.99858
1.91412
1.82304
1.727
1.62855
1.53128
1.4383