/*--------------------------------*- C++ -*----------------------------------*\
  =========                 |
  \\      /  F ield         | OpenFOAM: The Open Source CFD Toolbox
   \\    /   O peration     | Website:  https://openfoam.org
    \\  /    A nd           | Version:  8
     \\/     M anipulation  |
\*---------------------------------------------------------------------------*/
FoamFile
{
    version     2.0;
    format      ascii;
    class       volScalarField;
    location    "2.7";
    object      p_rgh;
}
// * * * * * * * * * * * * * * * * * * * * * * * * * * * * * * * * * * * * * //

dimensions      [1 -1 -2 0 0 0 0];

internalField   nonuniform List<scalar> 
9150
(
2552.04
2525.04
2499.54
2482.35
2474.05
2474.06
2482.36
2499.55
2525.05
2552.05
2542.81
2523.25
2507.6
2495.81
2489.83
2489.83
2495.81
2507.61
2523.26
2542.82
2533.16
2519.59
2511.05
2503.3
2499.19
2499.2
2503.3
2511.06
2519.6
2533.17
2528.07
2518.05
2512.59
2507.23
2504.26
2504.26
2507.23
2512.59
2518.05
2528.08
2526.41
2517.48
2512.9
2508.73
2506.29
2506.29
2508.74
2512.91
2517.49
2526.41
2086.74
2083.01
2108.27
2122.59
2129.32
2129.36
2122.69
2108.42
2083.23
2087.04
2276.78
2252.7
2247.39
2246.23
2246.41
2246.43
2246.29
2247.48
2252.82
2276.89
2400.9
2369.62
2353.75
2343.9
2339.28
2339.29
2343.94
2353.8
2369.67
2400.96
2501.12
2459.02
2431.26
2413.94
2405.46
2405.47
2413.96
2431.29
2459.05
2501.15
2571.57
2518.8
2480.2
2458.18
2448.05
2448.06
2458.19
2480.22
2518.82
2571.58
1900.39
1942.33
1933.04
1941.6
1936.69
1937.1
1941.83
1933.86
1944.16
1903.87
1928.99
1949.53
1930.37
1940
1935.22
1935.57
1939.99
1931.58
1950.93
1931.44
1907.13
1939.39
1907.86
1916.54
1919.6
1919.72
1916.75
1908.7
1940.4
1908.7
1748.13
1874.34
1890.9
1910.02
1926.54
1926.61
1910.33
1891.54
1874.84
1749.4
1622.61
1862.37
1958.58
1988.84
2004.74
2004.79
1989.03
1958.88
1862.72
1623.5
1779.74
1779.72
1779.7
1779.67
1779.66
1779.64
1779.62
1779.61
1779.6
1779.59
1779.8
1779.79
1779.79
1779.78
1779.77
1779.77
1779.76
1779.76
1779.75
1779.75
1779.88
1779.88
1779.88
1779.89
1779.89
1779.89
1779.89
1779.89
1779.89
1779.88
1779.95
1779.96
1779.96
1779.97
1779.97
1779.98
1779.98
1779.98
1779.97
1779.97
1780.01
1780.02
1780.02
1780.03
1780.03
1780.04
1780.04
1780.03
1780.03
1780.02
1780.06
1780.06
1780.07
1780.07
1780.07
1780.07
1780.07
1780.06
1780.05
1780.04
1780.1
1780.1
1780.1
1780.1
1780.1
1780.09
1780.09
1780.08
1780.06
1780.04
1780.13
1780.13
1780.12
1780.11
1780.11
1780.1
1780.08
1780.07
1780.05
1780.02
1780.16
1780.14
1780.13
1780.12
1780.1
1780.09
1780.07
1780.04
1780.02
1779.99
1780.18
1780.16
1780.13
1780.11
1780.09
1780.06
1780.03
1780
1779.96
1779.92
1780.19
1780.16
1780.13
1780.09
1780.06
1780.02
1779.98
1779.93
1779.89
1779.84
1780.2
1780.16
1780.11
1780.07
1780.01
1779.96
1779.89
1779.84
1779.79
1779.73
1780.22
1780.16
1780.1
1780.03
1779.96
1779.89
1779.8
1779.66
1779.63
1779.58
1780.24
1780.16
1780.08
1779.99
1779.9
1779.81
1779.71
1779.5
1779.26
1779.4
1780.27
1780.17
1780.06
1779.95
1779.84
1779.71
1779.59
1779.42
1778.89
1778.2
1780.32
1780.19
1780.06
1779.92
1779.77
1779.62
1779.47
1779.31
1778.72
1775.77
1780.39
1780.23
1780.06
1779.89
1779.7
1779.51
1779.31
1779.12
1778.78
1775.17
1780.49
1780.3
1780.09
1779.86
1779.62
1779.36
1779.09
1778.81
1778.51
1775.68
1780.65
1780.42
1780.16
1779.89
1779.59
1779.26
1778.92
1778.55
1778.18
1776.53
1780.9
1780.62
1780.32
1779.98
1779.61
1779.21
1778.76
1778.28
1777.77
1776.72
1781.25
1780.94
1780.59
1780.2
1779.76
1779.28
1778.74
1778.12
1777.44
1776.73
1781.73
1781.39
1781.01
1780.57
1780.09
1779.53
1778.9
1778.16
1777.29
1776.35
1782.39
1782.05
1781.68
1781.27
1780.82
1780.35
1779.87
1779.38
1778.89
1778.5
1783.18
1782.82
1782.43
1781.98
1781.48
1780.92
1780.27
1779.53
1778.62
1777.52
1784.16
1783.82
1783.46
1783.05
1782.62
1782.15
1781.67
1781.19
1780.72
1780.25
1785.27
1784.96
1784.6
1784.21
1783.78
1783.31
1782.82
1782.29
1781.74
1781.15
1786.54
1786.25
1785.92
1785.54
1785.11
1784.63
1784.08
1783.45
1782.72
1781.85
1787.98
1787.73
1787.45
1787.12
1786.74
1786.31
1785.82
1785.26
1784.62
1783.9
1789.58
1789.39
1789.16
1788.89
1788.59
1788.23
1787.83
1787.37
1786.85
1786.28
1791.31
1791.19
1791.04
1790.85
1790.63
1790.37
1790.08
1789.74
1789.38
1788.98
1793.17
1793.12
1793.04
1792.93
1792.8
1792.64
1792.46
1792.26
1792.04
1791.82
1795.12
1795.13
1795.13
1795.1
1795.05
1794.99
1794.91
1794.82
1794.74
1794.67
1797.14
1797.22
1797.27
1797.3
1797.32
1797.33
1797.33
1797.33
1797.35
1797.42
1799.22
1799.34
1799.44
1799.52
1799.58
1799.63
1799.66
1799.69
1799.72
1799.84
1801.35
1801.5
1801.62
1801.72
1801.78
1801.82
1801.81
1801.76
1801.69
1801.66
1803.56
1803.73
1803.89
1804.01
1804.12
1804.2
1804.27
1804.36
1804.55
1804.83
1805.82
1806.01
1806.17
1806.29
1806.36
1806.4
1806.4
1806.42
1806.44
1806
1808.17
1808.38
1808.53
1808.63
1808.65
1808.61
1808.52
1808.41
1808.08
1787.15
1810.68
1810.92
1811.11
1811.24
1811.33
1811.39
1811.5
1811.72
1811.61
1673.93
1813.31
1813.53
1813.69
1813.75
1813.65
1813.38
1812.95
1812.19
1810.19
1596.17
1816.22
1816.51
1816.73
1816.86
1816.85
1816.63
1816.2
1815.37
1813.3
1667.53
1819.41
1819.85
1820.22
1820.55
1820.82
1821.06
1821.29
1821.57
1821.69
1746.25
1822.78
1823.4
1823.97
1824.47
1824.96
1825.44
1825.97
1826.53
1827.1
1827.05
1826.2
1826.93
1827.64
1828.3
1828.85
1829.35
1829.79
1830.09
1830.22
1829.66
1829.6
1830.44
1831.33
1832.24
1833.09
1833.83
1834.46
1835.01
1835.48
1835.76
1831.67
1831.14
1833.76
1836.01
1837.27
1838.2
1838.93
1839.51
1839.97
1840.26
1781
1759.14
1781.81
1818.39
1838.42
1842.93
1843.69
1844.11
1844.36
1844.36
1742.29
1743.44
1744.4
1745.58
1767.7
1795.05
1812.83
1833.17
1846.33
1848.62
1788.77
1761.24
1749.11
1747.75
1748.36
1749.34
1750.2
1750.9
1795.97
1850.22
1847.46
1851.51
1849.13
1824.95
1777.78
1751.69
1753.1
1754.74
1756.41
1830.17
1841.23
1852.68
1856.46
1859.32
1861.72
1836.16
1767.6
1776.52
1838.32
1867.33
1830.59
1849.55
1857.02
1860.22
1862.88
1864.94
1866.56
1868.1
1869.48
1870.22
1845.09
1850.58
1856.43
1860.47
1863.92
1866.75
1868.99
1870.74
1872.09
1872.46
1842.59
1848.48
1854.08
1859.14
1863.56
1867.26
1870.18
1871.96
1873.37
1873.95
1834.53
1841.86
1848.87
1855.28
1860.9
1865.6
1869.25
1871.88
1873.28
1873.95
1821.19
1830.46
1839.43
1847.7
1854.95
1860.98
1865.67
1868.97
1870.85
1871.33
1800.14
1812.21
1824.08
1834.93
1844.4
1852.22
1858.26
1862.44
1864.78
1865.3
1768.39
1785.4
1802.27
1816.56
1828.69
1838.65
1846.28
1851.54
1854.46
1855.1
1568.04
1707.08
1776.38
1795.52
1809.64
1821.04
1829.91
1836.09
1839.48
1840.18
965.047
1208.48
1601.92
1774.46
1790.38
1801.15
1810.31
1816.73
1820.18
1820.72
894.762
889.53
1046.11
1725.67
1769.25
1779.77
1788.38
1794.28
1797.43
1797.67
998.364
860.058
862.763
1495.35
1738.21
1755.81
1763.94
1769.3
1772.17
1772.24
1563.69
831.852
837.204
1325.03
1704.2
1728.9
1737.87
1743.34
1746.08
1745.93
1613.72
828.849
815.555
1266.4
1692.79
1709.46
1716.87
1721.11
1722.69
1721.47
1509.16
809.845
793.808
1351.18
1687.65
1698.2
1702.87
1704.75
1704.18
1701.12
1231.32
751.836
765.097
1542.01
1695.79
1697.38
1696.73
1694.85
1691.4
1686.18
985.326
742.154
918.658
1645.23
1695.2
1694.03
1691.3
1687.59
1682.67
1676.45
791.361
727.687
1183.4
1684.76
1695.35
1692.89
1688.86
1683.81
1677.8
1671.02
665.05
682.007
1477.77
1705.12
1701.92
1696.33
1689.96
1682.94
1675.33
1667.35
607.492
762.347
1641.45
1716.55
1709.11
1700.72
1691.98
1682.96
1673.78
1664.85
586.642
1296.98
1726.44
1721.52
1713.71
1704.36
1694.01
1682.99
1671.5
1659.71
537.578
1574.32
1748.42
1736.06
1723.96
1711.64
1699
1686.13
1673.12
1659.67
765.31
1710.58
1752.39
1741.01
1729.1
1716.53
1703.44
1689.95
1676.15
1661.55
1067.43
1756.8
1754.08
1744.5
1733.88
1722.28
1709.84
1696.66
1682.71
1668.31
1148.57
1761.71
1756.72
1748.82
1740.04
1730.41
1720.11
1709.21
1697.92
1687.89
1170.5
1763.99
1759.75
1753.8
1747.26
1740.22
1732.86
1725.33
1718.05
1713.09
1176.97
1766.05
1763.59
1759.39
1754.89
1750.22
1745.6
1741.26
1737.79
1736.84
1171.75
1768.29
1767.84
1764.93
1761.9
1758.83
1755.9
1753.36
1751.76
1751.46
1150
1772.31
1772.55
1770.42
1768.21
1765.92
1763.65
1761.61
1760.17
1758.28
1141.36
1778.32
1777.79
1776.1
1774.27
1772.26
1770.09
1767.95
1765.97
1762.51
1171.09
1784.51
1783.53
1782.15
1780.57
1778.72
1776.57
1774.28
1771.85
1767.79
1240.46
1790.99
1789.89
1788.73
1787.4
1785.8
1783.93
1781.91
1779.82
1736.95
1305.34
1798.03
1796.85
1795.81
1794.7
1793.39
1791.9
1790.36
1789.12
1681.05
1363.79
1805.12
1803.89
1803.01
1802.22
1801.32
1800.32
1799.36
1799.09
1650.13
1423.36
1811.87
1810.39
1809.52
1808.95
1808.5
1808.25
1808.55
1810.17
1615.96
1475.28
1817.94
1815.81
1814.37
1813.27
1812.27
1811.63
1812.14
1814.9
1573.07
1508.32
1822.84
1820.22
1818.16
1816.16
1813.72
1810.71
1807.1
1801.98
1485.75
1520.42
1826.52
1824.22
1822.46
1820.74
1818.52
1815.53
1811.72
1807.21
1415.05
1518.11
1830
1828.22
1827.24
1826.53
1825.61
1824.31
1823.26
1824.33
1394.67
1482.19
1834.73
1832.59
1832.03
1831.94
1831.84
1831.89
1833.53
1839.12
1374.12
1442.81
1841.55
1837.98
1836.58
1835.93
1835.26
1834.74
1835.71
1838.35
1313.07
1406.13
1846.31
1842.04
1839.88
1838.71
1837.37
1835.64
1834.01
1830.52
1227.35
1358.02
1841.25
1842.67
1842.35
1842.02
1840.95
1838.85
1835.69
1828.2
1203.24
1342.28
1843.38
1847
1848.18
1848.69
1848.09
1846.14
1842.55
1837.03
1249.01
1396.62
1853.14
1855.87
1857.8
1858.91
1858.76
1857.35
1854.42
1850.79
1323.72
1470.6
1866.37
1868.15
1869.93
1871.14
1871.21
1870.33
1868.49
1865.92
1417.92
1556.27
1879.25
1880.86
1882.4
1883.86
1883.97
1883.12
1882.23
1880.18
1518.3
1640.22
1891.29
1894.82
1895.89
1897.92
1898.06
1896.76
1896.36
1893.49
1617.6
1728.9
1914.31
1916.47
1913.36
1913.74
1913.91
1914.07
1916.4
1916.05
1721.83
1817.78
1948.2
1936.66
1930.63
1927.68
1927.96
1931.1
1935.96
1948.39
1818.82
1779.58
1779.58
1779.57
1779.57
1779.57
1779.57
1779.58
1779.58
1779.59
1779.6
1779.61
1779.62
1779.64
1779.65
1779.66
1779.67
1779.68
1779.67
1779.66
1779.64
1779.6
1779.54
1779.47
1779.38
1779.27
1779.14
1778.99
1778.84
1778.68
1778.52
1778.38
1778.27
1778.19
1778.14
1778.14
1778.16
1778.2
1778.25
1778.28
1778.35
1779.74
1779.73
1779.72
1779.71
1779.69
1779.67
1779.66
1779.64
1779.61
1779.59
1779.57
1779.55
1779.52
1779.5
1779.47
1779.44
1779.41
1779.37
1779.32
1779.26
1779.2
1779.12
1779.03
1778.93
1778.82
1778.7
1778.58
1778.46
1778.34
1778.23
1778.14
1778.08
1778.05
1778.06
1778.11
1778.17
1778.25
1778.33
1778.4
1778.52
1779.87
1779.86
1779.84
1779.82
1779.79
1779.76
1779.72
1779.68
1779.64
1779.59
1779.54
1779.49
1779.44
1779.38
1779.32
1779.26
1779.2
1779.13
1779.06
1778.98
1778.9
1778.81
1778.72
1778.62
1778.52
1778.42
1778.32
1778.23
1778.15
1778.09
1778.04
1778.02
1778.03
1778.06
1778.1
1778.17
1778.23
1778.28
1778.34
1778.46
1779.95
1779.93
1779.91
1779.88
1779.84
1779.8
1779.75
1779.7
1779.64
1779.58
1779.52
1779.45
1779.39
1779.31
1779.24
1779.17
1779.09
1779.02
1778.94
1778.86
1778.77
1778.68
1778.6
1778.51
1778.42
1778.33
1778.24
1778.16
1778.09
1778.04
1778
1777.98
1777.98
1778.01
1778.05
1778.12
1778.18
1778.23
1778.27
1778.31
1780
1779.98
1779.95
1779.91
1779.87
1779.82
1779.77
1779.71
1779.65
1779.58
1779.51
1779.44
1779.36
1779.29
1779.21
1779.14
1779.06
1778.98
1778.91
1778.83
1778.75
1778.67
1778.59
1778.52
1778.44
1778.36
1778.28
1778.21
1778.14
1778.07
1778.02
1777.98
1777.95
1777.96
1778.01
1778.11
1778.21
1778.28
1778.29
1778.27
1780.02
1779.99
1779.96
1779.92
1779.87
1779.82
1779.77
1779.7
1779.64
1779.57
1779.5
1779.43
1779.35
1779.28
1779.21
1779.14
1779.07
1779
1778.93
1778.87
1778.8
1778.74
1778.67
1778.61
1778.55
1778.48
1778.41
1778.34
1778.26
1778.18
1778.09
1778
1777.88
1777.81
1777.92
1778.1
1778.33
1778.47
1778.46
1778.39
1780.02
1779.99
1779.95
1779.91
1779.86
1779.8
1779.75
1779.69
1779.62
1779.55
1779.49
1779.42
1779.35
1779.29
1779.22
1779.16
1779.1
1779.05
1778.99
1778.94
1778.9
1778.85
1778.81
1778.77
1778.73
1778.68
1778.62
1778.56
1778.48
1778.38
1778.26
1778.1
1777.78
1777.09
1777.53
1777.86
1778.45
1778.74
1778.73
1778.54
1779.99
1779.96
1779.92
1779.87
1779.82
1779.77
1779.71
1779.65
1779.59
1779.52
1779.46
1779.4
1779.34
1779.29
1779.23
1779.18
1779.14
1779.1
1779.07
1779.04
1779.01
1779
1778.98
1778.97
1778.95
1778.94
1778.91
1778.88
1778.82
1778.73
1778.6
1778.39
1778.01
1773.81
1764.92
1764.54
1777.18
1779.12
1778.93
1778.81
1779.95
1779.91
1779.86
1779.82
1779.76
1779.71
1779.65
1779.59
1779.53
1779.48
1779.42
1779.37
1779.32
1779.27
1779.23
1779.2
1779.17
1779.15
1779.14
1779.13
1779.13
1779.14
1779.16
1779.18
1779.21
1779.24
1779.28
1779.32
1779.36
1779.41
1779.46
1779.51
1779.39
1765.74
1758.25
1757.71
1756.7
1756.69
1756.85
1756.94
1779.88
1779.83
1779.79
1779.73
1779.68
1779.62
1779.57
1779.51
1779.45
1779.4
1779.35
1779.31
1779.27
1779.23
1779.21
1779.19
1779.18
1779.17
1779.18
1779.19
1779.22
1779.26
1779.3
1779.36
1779.43
1779.51
1779.6
1779.72
1779.85
1780.02
1780.22
1780.49
1780.87
1781.47
1781.85
1766.97
1755.72
1755.6
1755.34
1754.84
1779.78
1779.73
1779.68
1779.62
1779.56
1779.5
1779.45
1779.39
1779.34
1779.29
1779.25
1779.21
1779.18
1779.16
1779.15
1779.14
1779.14
1779.16
1779.18
1779.22
1779.26
1779.32
1779.39
1779.47
1779.57
1779.67
1779.8
1779.93
1780.09
1780.26
1780.46
1780.67
1780.91
1781.15
1781.29
1781.23
1780.92
1780.53
1780.28
1777.12
1779.66
1779.6
1779.54
1779.47
1779.41
1779.35
1779.29
1779.24
1779.19
1779.15
1779.11
1779.08
1779.06
1779.05
1779.04
1779.05
1779.06
1779.09
1779.13
1779.19
1779.25
1779.32
1779.41
1779.51
1779.62
1779.74
1779.88
1780.02
1780.18
1780.35
1780.53
1780.7
1780.86
1780.99
1781.03
1780.96
1780.79
1780.56
1780.27
1779.98
1779.51
1779.42
1779.34
1779.28
1779.22
1779.15
1779.09
1779.04
1778.99
1778.95
1778.92
1778.9
1778.89
1778.89
1778.89
1778.91
1778.94
1778.98
1779.03
1779.1
1779.17
1779.26
1779.36
1779.46
1779.58
1779.71
1779.85
1780
1780.15
1780.31
1780.46
1780.61
1780.73
1780.82
1780.83
1780.71
1780.41
1780.05
1780.09
1779.96
1779.3
1779.19
1779.05
1778.97
1778.97
1778.9
1778.84
1778.79
1778.73
1778.69
1778.68
1778.67
1778.66
1778.67
1778.69
1778.72
1778.76
1778.81
1778.87
1778.95
1779.04
1779.13
1779.24
1779.35
1779.48
1779.61
1779.75
1779.89
1780.04
1780.19
1780.33
1780.45
1780.56
1780.63
1780.65
1780.23
1779.29
1779.1
1778.92
1779.13
1778.56
1778.9
1778.74
1778.65
1778.63
1778.59
1778.53
1778.46
1778.38
1778.35
1778.38
1778.38
1778.38
1778.4
1778.43
1778.48
1778.53
1778.59
1778.67
1778.75
1778.85
1778.95
1779.06
1779.18
1779.31
1779.44
1779.58
1779.73
1779.87
1780.01
1780.15
1780.27
1780.37
1780.45
1780.47
1779.51
1779.05
1778.88
1778.62
1778.32
1775.71
1778.5
1778.49
1778.29
1778.21
1778.22
1778.15
1778.04
1778
1777.98
1778
1778.03
1778.04
1778.07
1778.12
1778.18
1778.25
1778.32
1778.41
1778.51
1778.61
1778.72
1778.84
1778.96
1779.09
1779.23
1779.37
1779.51
1779.66
1779.8
1779.93
1780.06
1780.17
1780.26
1780.31
1779.7
1778.91
1778.71
1778.47
1778.2
1775.01
1777.97
1778.07
1777.83
1777.73
1777.74
1777.69
1777.59
1777.55
1777.55
1777.6
1777.57
1777.03
1777.11
1777.76
1777.84
1777.92
1778.01
1778.11
1778.22
1778.33
1778.45
1778.58
1778.71
1778.85
1778.99
1779.13
1779.28
1779.42
1779.56
1779.7
1779.84
1779.96
1780.07
1780.16
1780.17
1780.12
1779.87
1779.54
1778.52
1776.41
1777.62
1777.5
1777.25
1777.14
1777.16
1777.12
1777.09
1777.07
1777.09
1777.08
1776.22
1775.95
1776
1776.83
1777.46
1777.56
1777.67
1777.78
1777.9
1778.03
1778.16
1778.29
1778.43
1778.58
1778.72
1778.87
1779.02
1779.17
1779.32
1779.46
1779.61
1779.75
1779.89
1780.01
1780.08
1780.1
1780.04
1779.87
1779.64
1768.43
1776.79
1776.64
1776.48
1776.42
1776.41
1776.4
1776.43
1776.48
1776.54
1775.99
1775.3
1775.38
1775.47
1775.55
1776.34
1777.17
1777.29
1777.42
1777.56
1777.7
1777.85
1778
1778.15
1778.3
1778.46
1778.61
1778.76
1778.92
1779.07
1779.21
1779.36
1779.53
1779.71
1779.77
1779.93
1779.99
1780.01
1779.87
1779.74
1765.03
1775.97
1775.43
1775.34
1775.42
1775.48
1775.55
1775.66
1775.8
1775.91
1775.73
1774.7
1774.81
1774.92
1775.04
1775.58
1776.75
1776.9
1777.06
1777.22
1777.38
1777.54
1777.71
1777.88
1778.04
1778.2
1778.36
1778.52
1778.69
1778.85
1778.96
1779.06
1779.21
1779.41
1779.14
1779.91
1779.24
1777.27
1774.31
1778.85
1766.53
1741.38
1773.23
1773.65
1774.08
1774.37
1774.6
1774.81
1775.02
1775.23
1775.4
1775.28
1775.06
1775.04
1774.94
1775.6
1776.32
1776.51
1776.7
1776.89
1777.08
1777.26
1777.45
1777.63
1777.82
1778
1778.17
1778.33
1778.55
1778.84
1776.99
1767.54
1763.8
1774.23
1779.28
1780.43
1779.14
1770.38
1769.99
1770.24
1775.2
1656.38
1688.03
1772.8
1773.06
1773.45
1773.76
1774.04
1774.3
1774.59
1774.81
1775.01
1775.17
1775.32
1775.48
1775.67
1775.89
1776.14
1776.38
1776.59
1776.8
1777.02
1777.23
1777.44
1777.66
1777.87
1778.04
1775.32
1766.37
1764.96
1757.81
1749.72
1750.34
1757.7
1779.57
1781.07
1780.22
1771.13
1770.38
1770.37
1778.72
1644.42
1575.38
1746.93
1771.87
1772.3
1772.81
1773.23
1773.61
1773.98
1774.26
1774.5
1774.66
1774.21
1773.86
1773.18
1775.44
1775.82
1776.12
1776.36
1776.6
1776.83
1777.08
1777.33
1777.61
1777.91
1777.74
1758.82
1747.25
1747.58
1748.02
1748.63
1749.13
1751.93
1779.28
1781.84
1782.16
1781.12
1773.96
1771.33
1776.23
1688.41
1561.47
1560.42
1757.46
1772.61
1772.64
1772.95
1773.3
1773.65
1773.97
1774.25
1774.46
1772.76
1756.56
1756.97
1773.39
1775.76
1776.05
1776.29
1776.5
1776.71
1776.96
1777.25
1777.63
1778.07
1773.13
1745.72
1746.22
1746.72
1747.28
1747.81
1748.25
1768.89
1781.92
1782.67
1783.22
1783.83
1784.14
1772.94
1779.95
1780.97
1545.83
1521.16
1634.43
1769.67
1770.64
1771.72
1772.57
1773.23
1773.77
1774.19
1774.47
1758.67
1752.54
1752.63
1765.29
1776.03
1776.22
1776.37
1776.52
1776.65
1776.79
1777.05
1777.57
1778.3
1770.78
1744.62
1745.24
1745.76
1748.73
1748.66
1760.61
1780.96
1782.97
1783.54
1784.25
1785.04
1785.86
1782.33
1780.55
1780.13
1694.75
1505.51
1458.37
1682.33
1769.6
1771.22
1772.39
1773.28
1774.01
1774.58
1769.32
1751.36
1751.61
1751.75
1760.44
1775.96
1776.45
1776.54
1776.61
1776.61
1771.97
1761
1765.62
1777.87
1778.51
1748.85
1744.54
1745.5
1778.8
1782.76
1782.98
1782.98
1783.82
1784.57
1785.47
1786.57
1787.82
1789.01
1780.74
1779.24
1777.26
1543.86
1440.24
1433.56
1671.52
1772.39
1773.75
1774.49
1775.05
1775.54
1775.13
1753.72
1751.33
1751.43
1751.52
1772.18
1776.89
1776.98
1777.04
1777.03
1744.32
1732.43
1732.41
1748.76
1773.63
1772.73
1745.69
1756.64
1780.5
1782.56
1783.1
1783.73
1784.52
1785.48
1786.68
1788.19
1789.96
1791.63
1783.03
1781.89
1780.3
1696.15
1422.49
1395.9
1402.4
1611.11
1762
1775.67
1776.58
1776.92
1777.2
1776.55
1753.28
1751.45
1751.45
1768.22
1777.51
1777.55
1777.44
1745.35
1730.07
1730.67
1731.07
1731.45
1736.36
1776.47
1780.88
1780.18
1780.43
1782.32
1783.16
1784.01
1785.02
1786.24
1787.77
1789.73
1792.09
1794.3
1785.62
1784.9
1784.04
1782.53
1467.98
1382.21
1379.63
1379.03
1490.07
1697.16
1777.56
1778.41
1778.41
1778.36
1771.36
1752.21
1756.11
1775.64
1777.93
1777.11
1741.38
1728.71
1728.95
1729.4
1729.97
1734.79
1766.53
1779.73
1780.27
1780.79
1781.37
1782.07
1782.92
1783.94
1785.16
1786.65
1788.53
1790.98
1793.96
1796.79
1788.56
1788.18
1787.72
1781.25
1510.34
1372.5
1371.8
1371.42
1372.77
1485.31
1755.11
1781.01
1780.49
1779.9
1778.78
1773.39
1775.9
1771.68
1760.6
1728.36
1728.22
1727.85
1727.7
1747.13
1778.99
1779.39
1779.25
1779.33
1779.58
1779.97
1780.36
1781.15
1782.16
1783.32
1784.73
1786.49
1788.72
1791.71
1795.42
1798.84
1791.62
1791.53
1791.37
1763.07
1483.55
1363.73
1364.13
1364.85
1366.27
1479.28
1763.87
1783.81
1782.71
1781.52
1780.87
1780.25
1779.58
1747.77
1729.47
1728.42
1729.16
1766
1778.73
1778.53
1778.32
1778.12
1778.01
1778.03
1778.17
1778.44
1778.75
1779.44
1780.46
1781.86
1783.46
1785.45
1788.02
1791.51
1795.91
1800.01
1794.69
1794.89
1794.9
1713.21
1390.85
1354.68
1355.94
1357.33
1380.6
1689.69
1786.96
1785.5
1783.83
1783.1
1782.02
1780.93
1773.83
1738.1
1729.03
1757.34
1777.95
1777.75
1777.4
1777.06
1776.74
1776.47
1776.27
1776.16
1776.14
1776
1776.23
1776.78
1777.83
1779.29
1781.06
1783.25
1786.13
1790.11
1795.18
1799.92
1797.66
1798.05
1789.49
1570.41
1344.19
1345.46
1347.36
1383.04
1693.95
1789.02
1786.62
1784.62
1784.29
1784.35
1782.82
1781.34
1772.52
1772.96
1776.03
1775.01
1770.77
1771.33
1775.26
1775.38
1774.88
1774.42
1774.07
1773.78
1773.43
1759.44
1736.76
1758.75
1773.89
1775.43
1777.29
1779.61
1782.73
1787.12
1792.82
1798.05
1800.08
1799.79
1698.2
1354.45
1335.27
1336.64
1429.47
1739.16
1792.85
1789.89
1787.51
1785.79
1785.91
1785.19
1783.16
1781.48
1779.89
1778.17
1774.12
1745.44
1745.68
1767.95
1774.09
1773.44
1772.46
1771.89
1771.34
1770.52
1735.43
1720.77
1720.87
1721.24
1737.04
1770.56
1772.01
1774.18
1777.47
1782.21
1788.42
1794.12
1801.47
1776.36
1462.14
1328.01
1328.29
1488.53
1776.53
1795.79
1792.81
1790.61
1789.73
1789.82
1787.75
1785.68
1783.67
1781.69
1779.78
1769.6
1657.29
1659.52
1738.36
1773.81
1772.73
1769
1756.63
1761.69
1768.51
1746.41
1715.51
1714.48
1713.6
1745.55
1746.74
1699.95
1709.99
1763.4
1770.09
1775.04
1781.57
1787.69
1804.7
1669.23
1357.67
1320.44
1506.85
1786.88
1797.26
1794.63
1792.97
1792.97
1792.47
1790.25
1788.07
1785.94
1783.84
1781.92
1761.48
1581.86
1585.37
1664.69
1774.02
1773.55
1771.37
1753.9
1747.23
1744.99
1754.11
1760.58
1726.11
1709.85
1743.64
1758.02
1757.48
1685.93
1686.42
1708.11
1760
1765.66
1772.12
1778.46
1746.85
1462.04
1352.96
1515.52
1787.49
1800
1797.75
1794.77
1794.51
1794.99
1792.8
1790.52
1788.23
1785.92
1783.73
1766.24
1523.57
1525.28
1616.4
1775.12
1774.67
1772.42
1768.09
1747.14
1743.96
1741.06
1745.27
1756.42
1753.85
1751.37
1749.14
1747.16
1745.97
1699.37
1673.18
1672.99
1734.45
1754.33
1760.42
1766.5
1479.41
1416.68
1452.67
1749.29
1804.49
1802.91
1798.85
1797.08
1797.75
1795.71
1793.3
1790.77
1788.07
1785.14
1782.44
1489.72
1468.04
1565.45
1774.51
1776.52
1773.88
1771.07
1768.03
1758.54
1743.69
1751.73
1754.37
1750.6
1746.75
1741.26
1739.04
1736.01
1734.46
1730.69
1658.85
1660.74
1721.15
1741.63
1747.13
1752.49
1411.15
1412.82
1594.64
1804.84
1805.73
1804.36
1802.61
1801.19
1799.12
1796.72
1794.12
1791.26
1787.96
1784.28
1545.14
1352.08
1453.64
1762.66
1780.43
1776.9
1773.51
1770.03
1766.38
1762.55
1758.55
1754.37
1750.12
1746.12
1742.47
1734.89
1729.89
1723.73
1721.88
1690.08
1647.07
1660.23
1722.28
1731.03
1734.86
1738.88
1409.87
1433.2
1731.5
1812.04
1809.61
1806.26
1804.07
1803.17
1801.07
1798.58
1795.93
1793.09
1789.94
1681.74
1330.42
1336
1656.62
1782.78
1779.87
1776.52
1772.7
1768.98
1764.86
1760.52
1755.96
1751.29
1746.98
1743.78
1740.12
1631.37
1456.38
1569.69
1687.89
1618.12
1647.15
1705.46
1721.09
1724.02
1725.87
1728.6
1409.47
1436.35
1733.17
1812.3
1809.23
1802.66
1802.61
1805.36
1803.52
1801.1
1798.48
1795.52
1792.14
1416.27
1312.57
1366.98
1732.47
1786.41
1782.08
1777.68
1772.75
1766.65
1763.57
1758.77
1753.43
1747.9
1742.75
1737.74
1630.98
1156.98
962.843
1197.42
1543.48
1643.38
1703.94
1715.64
1719.66
1721.71
1721.93
1722.22
1415.41
1425.71
1716.03
1812.61
1772.72
1729.21
1782.24
1808.5
1806.55
1804.29
1801.85
1799.17
1688.07
1305.99
1300.44
1343.5
1724.8
1788.75
1784.02
1779.03
1773.85
1756.54
1757.13
1757.27
1751.98
1745.78
1738.9
1726.61
1255.51
905.043
888.001
918.792
1332.35
1692.14
1710.08
1717.06
1721.1
1722.52
1721.21
1718.53
1492.98
1430.65
1663.09
1813.27
1755.28
1717.7
1719.05
1795.6
1810.3
1808.12
1805.66
1803.02
1614.84
1293.08
1290.81
1288.28
1647.29
1790.8
1786.93
1781.45
1775.73
1761.07
1660.2
1707.9
1751.9
1746.22
1737.3
1655.66
1035.39
876.32
871.373
871.293
1004.19
1520.47
1711.01
1720.87
1722.68
1722.44
1719.8
1715.47
1649.47
1435.63
1515.52
1786.76
1783.7
1717.23
1713.36
1722.01
1802.72
1812.53
1810.3
1807.95
1673.16
1290.57
1284.45
1282.32
1417.04
1765.59
1790.16
1785.03
1779.62
1774.29
1598.67
1558.88
1736.43
1750.87
1740.7
1631.66
967.132
865.794
864.218
863.703
868.924
996.799
1257.6
1452.82
1534.59
1553.56
1547.63
1500.76
1825.52
1522.23
1489.34
1627.12
1768.92
1762.02
1715.56
1714.41
1733.68
1811.44
1815.64
1813.61
1808.93
1438.5
1280.29
1278.92
1296.93
1699.08
1793.9
1789.47
1785.02
1780.87
1612.17
1532.14
1670.72
1758.33
1749.78
1671.52
1018.87
861.392
861.119
860.893
860.734
861.827
870.09
904.692
934.796
943.275
938.286
917.326
1840.41
1829.87
1552.68
1549.21
1732.95
1812.8
1741.65
1718.41
1716.23
1763.06
1820.63
1819.12
1817.11
1791.17
1400.14
1279.69
1284.44
1672.46
1797.75
1793.94
1790.64
1786.64
1723.79
1532.3
1531.35
1760.87
1759.13
1727.22
1215.39
859.596
859.962
859.903
859.627
859.478
859.574
859.674
859.453
859.215
859.05
859.122
1844.29
1843.5
1842.47
1675.24
1745.81
1819.77
1818.64
1729.8
1720.29
1731.84
1819
1824.47
1822.23
1820.38
1819.47
1475.01
1444.53
1729.82
1800.02
1797.72
1790.76
1795.06
1792.69
1561.07
1497.85
1693.15
1772.03
1763.25
1496.17
859.165
859.638
859.53
859.341
859.103
859.004
858.911
858.893
858.869
858.901
858.947
1850.27
1849.8
1848.82
1846.15
1815.46
1819.42
1824.23
1821.29
1732.61
1776.26
1831.76
1829.83
1827.3
1825.1
1823.29
1821.7
1818.34
1804.9
1806.79
1806.94
1770.89
1762.71
1793.31
1725.16
1502.08
1531.81
1788.66
1779.47
1728.57
1102.76
859.312
859.256
859.082
858.931
858.882
858.861
858.834
858.853
858.878
858.943
1856.74
1856.53
1855.7
1846.74
1779.5
1765.8
1787.5
1819.73
1835.57
1837.25
1834.5
1832.81
1830.66
1828.12
1826.07
1824.73
1822.68
1819.74
1816.85
1814.36
1782.03
1731.46
1756.77
1775.88
1584.68
1514.57
1716.31
1795.84
1791.51
1563.93
889.694
858.803
858.795
858.759
858.716
858.718
858.743
858.764
858.802
858.881
1862.83
1862.21
1860.93
1859.41
1851.48
1800.77
1731.68
1722.24
1719.58
1726.75
1774.38
1806.2
1824.21
1827.92
1827.84
1827.05
1825.64
1824.28
1822.67
1820.75
1819.67
1740.92
1718.59
1772.48
1773.83
1530.7
1451.42
1807.79
1808.63
1807.92
1353.89
858.35
858.664
858.658
858.607
858.675
858.778
858.684
858.71
858.844
1867.34
1866.46
1865.14
1863.49
1861.51
1854.9
1851.37
1847.91
1802.96
1404.41
1349.51
1352.16
1361.83
1720.51
1830.66
1830.07
1829.04
1828.6
1828.03
1826.54
1825.1
1824.41
1752.45
1715.12
1755.64
1787.88
1420.62
1535.4
1830.92
1827.01
1778.31
1124.12
858.497
858.617
858.557
858.529
858.713
858.899
859.685
862.696
1870.03
1869.43
1868.25
1866.47
1864.16
1828.87
1794.72
1798.8
1833.07
1832.47
1832.58
1741.62
1401.5
1370.99
1370.3
1364.05
1546.5
1821.43
1830.86
1830.46
1830.26
1829.66
1829.67
1759.85
1749.41
1773.76
1600.41
1455.64
1497.2
1820.53
1819.72
1756.37
1033.16
858.346
858.475
858.438
858.413
858.62
859.898
862.591
1872.35
1871.34
1869.94
1867.62
1864.76
1860.87
1800.76
1772.96
1769.7
1783.85
1828.68
1824.29
1817.97
1815.67
1749.77
1356.76
1347.56
1344.22
1402.26
1783.98
1831.04
1831.7
1832.2
1833.2
1811.41
1747.67
1676.02
1520.32
1477.64
1491.44
1750.36
1818.19
1759.79
1074.28
858.141
858.311
858.322
858.298
858.325
860.615
1873.55
1872.32
1870.01
1866.9
1863.2
1859.11
1855.26
1851.09
1778.5
1751.07
1747.51
1749.66
1809.79
1804.97
1799.25
1791.61
1787.75
1400.53
1260.19
1240.39
1393.6
1811.6
1829.85
1830.54
1832.9
1810.68
1732.56
1700.66
1593.6
1486.22
1488.85
1641.01
1790.37
1722.34
1226.63
869.183
858.145
858.228
858.225
858.192
1873.35
1871.2
1867.97
1863.9
1859.17
1854.01
1848.68
1843.47
1838.95
1812.87
1735.81
1732.43
1729.25
1726.32
1787.41
1784.98
1781.18
1778.91
1723.02
1191.01
1173.18
1167.58
1653.35
1824.76
1826.37
1830.61
1824.34
1794.34
1686.37
1539.6
1541.93
1553.1
1581.02
1722.35
1669.84
1377.84
1045.5
878.49
858.225
857.917
1870.27
1867.43
1863.23
1857.95
1851.87
1845.28
1838.51
1831.82
1825.52
1820.06
1789.15
1716.03
1713.32
1712.56
1762.56
1769.42
1768.47
1768.35
1768.45
1744.08
1199.56
1083.97
1068.53
1569.46
1817.55
1819.14
1824.82
1831.95
1704.17
1766.6
1808.66
1697.93
1610.74
1614.68
1608.79
1607.62
1573.91
1488.75
1440.73
1442.3
1863.92
1860.36
1855.08
1848.4
1840.68
1832.32
1823.71
1815.25
1807.33
1800.29
1792.08
1780.6
1779.34
1785.97
1758.51
1738.14
1738.41
1740.81
1749.84
1752.57
1716.98
1135.18
999.091
977.016
1509.77
1805.3
1809.06
1816.95
1790.69
1773.74
1834.69
1852.15
1792.47
1663.08
1617.93
1644.28
1663.88
1777.44
1806.83
1818.72
1853.44
1849.18
1842.77
1834.59
1825.06
1814.65
1803.85
1793.23
1783.4
1774.94
1768.4
1764.18
1762.06
1761.51
1762.25
1745.41
1714.95
1717.54
1720.38
1737.81
1749.68
1636.58
997.053
916.942
898.399
1451.68
1791.52
1798.97
1809.77
1805.89
1816.93
1840.58
1850.44
1832.65
1796.43
1772.39
1665.97
1600.52
1786.34
1796.85
1838.22
1833.26
1825.72
1815.99
1804.51
1791.76
1778.33
1765.05
1752.81
1742.43
1734.72
1730.22
1728.81
1729.82
1732.61
1736.78
1717.74
1693.82
1699.2
1705.84
1735.49
1753.05
1382.4
861.856
841.72
829.858
1446.14
1782.15
1793.36
1805.01
1812.35
1824.46
1834.2
1841.63
1848.33
1854.2
1792.42
1528.93
1370.37
1788.93
1818.38
1812.74
1804.16
1792.98
1779.65
1764.73
1748.77
1732.63
1717.31
1703.32
1692.71
1689.35
1690.77
1694.63
1700.46
1707.57
1715.53
1679.15
1677.79
1685.72
1717.12
1740.32
1723.5
997.694
791.56
781.796
791.871
1487.14
1778.34
1790.01
1800.9
1810.24
1818.65
1826.01
1832.31
1837.45
1841.57
1582.88
1336
1566.92
1795
1788.96
1779.88
1768.21
1754.76
1739.98
1721.72
1698.32
1655.98
1595.28
1601.53
1635.2
1644.06
1650.23
1663.26
1678.6
1689.78
1686.3
1657.39
1668.12
1686.88
1731.77
1743.73
1224.91
756.661
750.099
746.357
888.006
1629.63
1776.06
1787.41
1797.07
1805.52
1813.1
1819.89
1825.93
1831.79
1817.46
1315.61
1085.29
1769.44
1763.43
1754.76
1744.54
1733.53
1717.12
1596.55
1310.89
1044.31
728.596
797.364
1236.62
1596.51
1614.86
1635
1652.87
1667.82
1682.07
1662.73
1653.93
1676.91
1725.32
1739.3
1390.93
738.904
726.43
726.598
724.91
1237.1
1759.46
1776.54
1786.12
1794.44
1801.95
1808.91
1815.42
1821.92
1830.04
1336.31
1056.49
1742.87
1736.8
1728.9
1720.31
1704.22
1542.2
879.414
500.619
483.176
478.025
475.289
515.355
1242.11
1595.06
1617.63
1636.96
1653.65
1668.78
1682.68
1666.6
1694.27
1721.35
1736.67
1434.5
725.656
708.78
709.179
708.678
1028.53
1721.53
1768.53
1777.2
1784.76
1791.68
1798.24
1804.51
1810.84
1818.83
1415.13
1028.72
1717.41
1710.8
1703.08
1690.47
1536.64
862.868
476.425
464.721
468.615
469.327
467.453
464.05
755.33
1523.93
1611.93
1629.71
1646.48
1661.38
1676.12
1689.13
1702.4
1716.33
1733.67
1556.34
733.953
693.342
693.995
693.572
1101.41
1729.89
1762.8
1769.67
1775.86
1781.78
1787.57
1793.23
1799.06
1806.52
1434.08
998.738
1695.58
1688.18
1678.74
1636.7
917.962
542.532
514.028