/*--------------------------------*- C++ -*----------------------------------*\
  =========                 |
  \\      /  F ield         | OpenFOAM: The Open Source CFD Toolbox
   \\    /   O peration     | Website:  https://openfoam.org
    \\  /    A nd           | Version:  8
     \\/     M anipulation  |
\*---------------------------------------------------------------------------*/
FoamFile
{
    version     2.0;
    format      ascii;
    class       volVectorField;
    location    "2.7";
    object      U;
}
// * * * * * * * * * * * * * * * * * * * * * * * * * * * * * * * * * * * * * //

dimensions      [0 1 -1 0 0 0 0];

internalField   nonuniform List<vector> 
9150
(
(0.0537446 -0.428826 0)
(0.0879073 -0.622325 0)
(0.0731187 -0.631485 0)
(0.0486255 -0.643739 0)
(0.0170296 -0.654446 0)
(-0.0170525 -0.654443 0)
(-0.0486444 -0.643731 0)
(-0.0731323 -0.631477 0)
(-0.087915 -0.622316 0)
(-0.0537474 -0.42881 0)
(0.0407265 -0.522824 0)
(0.0573589 -0.625725 0)
(0.0420755 -0.613232 0)
(0.0293924 -0.622461 0)
(0.0104829 -0.628866 0)
(-0.0104982 -0.628865 0)
(-0.0294055 -0.622456 0)
(-0.0420858 -0.613228 0)
(-0.0573661 -0.625722 0)
(-0.0407297 -0.522813 0)
(0.0252259 -0.557989 0)
(0.0324599 -0.613852 0)
(0.0229877 -0.604482 0)
(0.0172599 -0.609992 0)
(0.00623895 -0.613192 0)
(-0.00624878 -0.613192 0)
(-0.0172685 -0.60999 0)
(-0.0229944 -0.604479 0)
(-0.0324654 -0.613851 0)
(-0.0252287 -0.557983 0)
(0.0153465 -0.584741 0)
(0.0174397 -0.607484 0)
(0.0117041 -0.60114 0)
(0.00887115 -0.603282 0)
(0.00323814 -0.604398 0)
(-0.00324369 -0.604398 0)
(-0.00887606 -0.603282 0)
(-0.011708 -0.601139 0)
(-0.0174431 -0.607484 0)
(-0.0153484 -0.584739 0)
(0.00625784 -0.597166 0)
(0.00554382 -0.601399 0)
(0.00357267 -0.60004 0)
(0.0026776 -0.600348 0)
(0.000991803 -0.600483 0)
(-0.000993591 -0.600483 0)
(-0.00267919 -0.600348 0)
(-0.00357393 -0.60004 0)
(-0.00554496 -0.601399 0)
(-0.00625849 -0.597165 0)
(0.469438 -1.16234 1.57435e-24)
(0.282773 -1.08621 0)
(0.163019 -1.06942 0)
(0.0919854 -1.05764 0)
(0.0302182 -1.0529 0)
(-0.0304786 -1.05286 0)
(-0.0922173 -1.05754 0)
(-0.16321 -1.06925 0)
(-0.282905 -1.08598 0)
(-0.469383 -1.16203 -1.57078e-24)
(0.334105 -0.844415 4.33367e-25)
(0.287283 -0.936975 0)
(0.188232 -0.936912 0)
(0.108103 -0.936755 0)
(0.0356525 -0.939068 0)
(-0.0357996 -0.939043 0)
(-0.108229 -0.936685 0)
(-0.188328 -0.936812 0)
(-0.287316 -0.936849 0)
(-0.334065 -0.844254 -4.32663e-25)
(0.27899 -0.702535 7.16446e-26)
(0.259106 -0.804828 0)
(0.178131 -0.817582 0)
(0.104553 -0.828359 0)
(0.0347968 -0.836439 0)
(-0.0348849 -0.836425 0)
(-0.104627 -0.828318 0)
(-0.17818 -0.817524 0)
(-0.25912 -0.804762 0)
(-0.278974 -0.702463 -7.14447e-26)
(0.199801 -0.554307 2.71463e-25)
(0.216675 -0.709525 0)
(0.15431 -0.725908 0)
(0.0913274 -0.742023 0)
(0.0305144 -0.753918 0)
(-0.0305686 -0.753909 0)
(-0.0913719 -0.741998 0)
(-0.154339 -0.725877 0)
(-0.216683 -0.709491 0)
(-0.199794 -0.554265 -2.71503e-25)
(0.11857 -0.445347 -4.41522e-25)
(0.156312 -0.644322 -6.32435e-25)
(0.116706 -0.6638 -2.14181e-25)
(0.0709056 -0.681209 -1.40317e-25)
(0.0239466 -0.6942 -8.0315e-27)
(-0.0239814 -0.694194 -8.06718e-27)
(-0.070934 -0.681194 -1.40411e-25)
(-0.116725 -0.663784 -2.1422e-25)
(-0.156319 -0.644304 -6.3245e-25)
(-0.118569 -0.445323 -4.41498e-25)
(0.0149338 -0.938168 0)
(-0.0419662 -1.33666 0)
(0.0213668 -1.2667 0)
(-0.00637425 -1.22335 0)
(0.00326841 -1.22228 0)
(-0.00494499 -1.22197 0)
(0.00375048 -1.22342 0)
(-0.0240675 -1.26754 0)
(0.0385453 -1.3371 0)
(-0.0180705 -0.925185 0)
(0.0476729 -0.912893 0)
(-0.0256579 -1.33399 0)
(0.0218195 -1.26905 0)
(-0.00141145 -1.22294 0)
(0.000355957 -1.2219 0)
(-0.00161851 -1.22162 0)
(-0.000503935 -1.22298 0)
(-0.0234266 -1.26922 0)
(0.0230453 -1.33282 0)
(-0.0486523 -0.907338 0)
(0.0763119 -0.948462 0)
(-0.0250863 -1.34827 0)
(0.0160442 -1.27543 0)
(0.0045848 -1.23073 0)
(-0.000931701 -1.22604 0)
(-0.000105268 -1.2259 0)
(-0.0058191 -1.23067 0)
(-0.0168641 -1.27523 0)
(0.0233925 -1.34774 0)
(-0.0771658 -0.944787 0)
(0.144021 -1.08031 0)
(0.00153184 -1.36653 0)
(0.0146103 -1.27169 0)
(0.0211334 -1.22587 0)
(0.0053255 -1.21418 0)
(-0.00607491 -1.21412 0)
(-0.0218597 -1.22566 0)
(-0.0150582 -1.27145 0)
(-0.00262223 -1.36621 0)
(-0.144438 -1.07843 0)
(0.298611 -1.21917 0)
(0.126567 -1.32219 0)
(0.0684579 -1.21058 0)
(0.0560132 -1.16893 0)
(0.019812 -1.15631 0)
(-0.020264 -1.15625 0)
(-0.0563885 -1.16875 0)
(-0.0688262 -1.21033 0)
(-0.127088 -1.32195 0)
(-0.298667 -1.21835 0)
(-0.0083329 0.000251838 0)
(-0.0086337 0.000363184 0)
(-0.00901548 0.000474145 0)
(-0.00947968 0.000584483 0)
(-0.0100215 0.000691601 0)
(-0.0106369 0.000792748 0)
(-0.0113196 0.00088414 0)
(-0.0120614 0.000963179 0)
(-0.0128527 0.0010308 0)
(-0.0136823 0.00108311 0)
(-0.00984549 0.000863033 0)
(-0.0102223 0.00109329 0)
(-0.0106593 0.00132187 0)
(-0.0111546 0.00154529 0)
(-0.0117052 0.00175838 0)
(-0.0123065 0.00195532 0)
(-0.012953 0.0021311 0)
(-0.0136379 0.00228005 0)
(-0.0143523 0.00239787 0)
(-0.0150865 0.00247943 0)
(-0.0103073 0.00158624 0)
(-0.0107063 0.00191973 0)
(-0.0111533 0.00224973 0)
(-0.0116464 0.00256946 0)
(-0.0121827 0.00287168 0)
(-0.0127585 0.00314843 0)
(-0.013369 0.0033925 0)
(-0.0140081 0.00359611 0)
(-0.014669 0.00375223 0)
(-0.015344 0.00385418 0)
(-0.0103544 0.00235212 0)
(-0.0107679 0.00277474 0)
(-0.011223 0.00319098 0)
(-0.0117182 0.00359226 0)
(-0.0122507 0.00396959 0)
(-0.0128173 0.00431361 0)
(-0.013414 0.00461514 0)
(-0.0140359 0.0048649 0)
(-0.0146774 0.00505431 0)
(-0.0153324 0.0051753 0)
(-0.010123 0.00315223 0)
(-0.010549 0.00365516 0)
(-0.011014 0.00414919 0)
(-0.0115166 0.00462429 0)
(-0.0120548 0.00507003 0)
(-0.0126259 0.00547576 0)
(-0.0132264 0.00583087 0)
(-0.0138523 0.00612489 0)
(-0.0144989 0.00634789 0)
(-0.015161 0.00649061 0)
(-0.00966823 0.00397698 0)
(-0.0101053 0.00455762 0)
(-0.0105815 0.00512748 0)
(-0.011096 0.00567539 0)
(-0.0116472 0.00618967 0)
(-0.0122328 0.00665841 0)
(-0.0128502 0.00706975 0)
(-0.0134958 0.00741205 0)
(-0.0141656 0.00767417 0)
(-0.014855 0.0078458 0)
(-0.00902028 0.00482164 0)
(-0.00946632 0.0054822 0)
(-0.00995388 0.00613108 0)
(-0.0104826 0.00675601 0)
(-0.0110514 0.00734412 0)
(-0.0116587 0.00788227 0)
(-0.0123021 0.00835733 0)
(-0.0129788 0.00875641 0)
(-0.0136851 0.00906717 0)
(-0.0144167 0.00927816 0)
(-0.00819959 0.00567902 0)
(-0.00865107 0.00642536 0)
(-0.00914811 0.00716038 0)
(-0.00969099 0.00787067 0)
(-0.0102793 0.0085421 0)
(-0.010912 0.00916018 0)
(-0.0115873 0.00971037 0)
(-0.0123026 0.0101784 0)
(-0.0130546 0.0105505 0)
(-0.0138391 0.0108141 0)
(-0.0072221 0.00653865 0)
(-0.00767334 0.00737964 0)
(-0.00817559 0.00821118 0)
(-0.00872995 0.00901861 0)
(-0.00933679 0.00978641 0)
(-0.00999567 0.0104985 0)
(-0.0107053 0.0111388 0)
(-0.0114634 0.0116912 0)
(-0.0122669 0.0121405 0)
(-0.0131114 0.0124722 0)
(-0.00610226 0.00738578 0)
(-0.00654507 0.00833263 0)
(-0.00704547 0.00927377 0)
(-0.0076056 0.0101932 0)
(-0.00822678 0.0110737 0)
(-0.00890941 0.0118974 0)
(-0.00965281 0.0126462 0)
(-0.0104551 0.0133018 0)
(-0.0113129 0.0138468 0)
(-0.0122219 0.0142647 0)
(-0.00485496 0.00820055 0)
(-0.00527832 0.00926625 0)
(-0.00576674 0.0103323 0)
(-0.00632363 0.0113812 0)
(-0.00695152 0.0123939 0)
(-0.00765195 0.0133506 0)
(-0.00842527 0.0142303 0)
(-0.00927 0.0150116 0)
(-0.0101828 0.0156744 0)
(-0.0111584 0.0161991 0)
(-0.00349736 0.00895737 0)
(-0.00388717 0.0101562 0)
(-0.00435018 0.0113642 0)
(-0.0048913 0.0125624 0)
(-0.00551457 0.0137298 0)
(-0.00622286 0.0148442 0)
(-0.00701801 0.015882 0)
(-0.00790024 0.0168172 0)
(-0.00886611 0.017624 0)
(-0.009909 0.0182794 0)
(-0.00205014 0.00962477 0)
(-0.00238916 0.0109717 0)
(-0.00280989 0.0123402 0)
(-0.0033192 0.0137095 0)
(-0.00392293 0.0150566 0)
(-0.00462566 0.0163567 0)
(-0.00543054 0.0175834 0)
(-0.0063404 0.018708 0)
(-0.00735434 0.0196932 0)
(-0.00846387 0.020508 0)
(-0.000538404 0.0101652 0)
(-0.000805958 0.0116756 0)
(-0.00116384 0.0132241 0)
(-0.00162132 0.0147882 0)
(-0.00218655 0.0163426 0)
(-0.00286629 0.0178598 0)
(-0.00366545 0.0193099 0)
(-0.00458744 0.0206616 0)
(-0.00563802 0.021874 0)
(-0.00681244 0.0228878 0)
(0.00100713 0.0105341 0)
(0.000835599 0.0122224 0)
(0.000565547 0.0139704 0)
(0.000184758 0.0157539 0)
(-0.000317946 0.0175451 0)
(-0.000952203 0.0193132 0)
(-0.00172516 0.0210243 0)
(-0.00264035 0.0226432 0)
(-0.00370241 0.0241341 0)
(-0.00493256 0.0254368 0)
(0.00254698 0.0106802 0)
(0.0025 0.0125593 0)
(0.00234754 0.0145265 0)
(0.0020734 0.0165562 0)
(0.0016619 0.0186184 0)
(0.00109849 0.0206783 0)
(0.00037072 0.0226966 0)
(-0.000529235 0.0246309 0)
(-0.00159962 0.0264394 0)
(-0.00284612 0.0280837 0)
(0.00403209 0.0105434 0)
(0.0041438 0.0126211 0)
(0.00414752 0.0148232 0)
(0.00402273 0.0171247 0)
(0.00374856 0.0194942 0)
(0.00330434 0.0218937 0)
(0.00267036 0.0242777 0)
(0.00183026 0.0265922 0)
(0.000780998 0.0287745 0)
(-0.000471011 0.030759 0)
(0.00539062 0.0100558 0)
(0.00569627 0.0123269 0)
(0.00589891 0.0147661 0)
(0.00597437 0.0173503 0)
(0.00589701 0.020049 0)
(0.00564008 0.0228232 0)
(0.00517676 0.0256237 0)
(0.00448212 0.0283886 0)
(0.00353717 0.031041 0)
(0.00230915 0.0334993 0)
(0.00651965 0.00915998 0)
(0.00704491 0.0116052 0)
(0.00747959 0.0142683 0)
(0.0077963 0.0171308 0)
(0.00796432 0.0201671 0)
(0.00794907 0.0233419 0)
(0.00771183 0.0266083 0)
(0.00720996 0.0299037 0)
(0.00640165 0.0331464 0)
(0.00525922 0.0362417 0)
(0.0073034 0.00782152 0)
(0.00806116 0.0104059 0)
(0.00875015 0.0132612 0)
(0.00934233 0.0163774 0)
(0.00980494 0.0197382 0)
(0.0100992 0.0233193 0)
(0.0101784 0.0270856 0)
(0.00998713 0.030986 0)
(0.00946153 0.0349461 0)
(0.0085371 0.0388615 0)
(0.00761737 0.00604089 0)
(0.00859765 0.00871325 0)
(0.00953787 0.0117076 0)
(0.0104123 0.0150234 0)
(0.0111906 0.0186566 0)
(0.0118359 0.0225982 0)
(0.0123024 0.0268336 0)
(0.0125315 0.0313395 0)
(0.0124523 0.0360775 0)
(0.0119979 0.040982 0)
(0.0073593 0.00386244 0)
(0.00852618 0.00656158 0)
(0.00968166 0.00962556 0)
(0.0108028 0.0130612 0)
(0.0118626 0.0168734 0)
(0.0128288 0.0210648 0)
(0.0136618 0.0256365 0)
(0.0143107 0.0305915 0)
(0.0147154 0.0359385 0)
(0.014832 0.0416971 0)
(0.00647161 0.00140041 0)
(0.00776773 0.00408572 0)
(0.0090722 0.00718122 0)
(0.0103605 0.0107049 0)
(0.0116018 0.0146759 0)
(0.0127572 0.019116 0)
(0.0137771 0.0240509 0)
(0.0145947 0.0295151 0)
(0.0151117 0.0355575 0)
(0.015193 0.0422439 0)
(0.00503195 -0.00127755 0)
(0.00643739 0.00134027 0)
(0.00788558 0.00440503 0)
(0.00936116 0.00794255 0)
(0.0108471 0.0119812 0)
(0.0123248 0.0165525 0)
(0.0137762 0.021692 0)
(0.0151838 0.0274401 0)
(0.0165307 0.0338437 0)
(0.0178239 0.0409557 0)
(0.00303646 -0.0040953 0)
(0.00449208 -0.00159983 0)
(0.00601021 0.0013679 0)
(0.0075765 0.00483771 0)
(0.00917333 0.00884204 0)
(0.0107781 0.0134159 0)
(0.0123626 0.0185971 0)
(0.0138911 0.0244272 0)
(0.0153109 0.0309548 0)
(0.0165285 0.0382465 0)
(0.000627457 -0.00695697 0)
(0.00210864 -0.00461748 0)
(0.00367641 -0.00178285 0)
(0.00532342 0.00158339 0)
(0.00704069 0.00552309 0)
(0.00881656 0.0100843 0)
(0.0106362 0.0153224 0)
(0.012481 0.0213001 0)
(0.0143273 0.0280872 0)
(0.0161392 0.0357593 0)
(-0.00208091 -0.00983259 0)
(-0.000604276 -0.00769659 0)
(0.000980642 -0.00506161 0)
(0.00267659 -0.0018918 0)
(0.00448834 0.00185414 0)
(0.00642312 0.00622323 0)
(0.00849129 0.0112686 0)
(0.0107076 0.0170487 0)
(0.0130938 0.0236252 0)
(0.0156819 0.0310588 0)
(-0.00495945 -0.0126441 0)
(-0.00353798 -0.0107343 0)
(-0.00200565 -0.00833636 0)
(-0.000355378 -0.00541984 0)
(0.00142297 -0.00194998 0)
(0.00334234 0.00211207 0)
(0.00541849 0.00680896 0)
(0.00766995 0.0121869 0)
(0.0101182 0.0182945 0)
(0.0127875 0.0251824 0)
(-0.00779374 -0.0153038 0)
(-0.00646726 -0.0136026 0)
(-0.00504557 -0.0114269 0)
(-0.00352134 -0.00875119 0)
(-0.00188464 -0.00554571 0)
(-0.000123573 -0.0017762 0)
(0.00177508 0.0025966 0)
(0.00382461 0.00761759 0)
(0.0060375 0.0133387 0)
(0.00842348 0.0198213 0)
(-0.0103161 -0.017766 0)
(-0.00909992 -0.0162271 0)
(-0.00781613 -0.0142253 0)
(-0.00645919 -0.0117391 0)
(-0.00502158 -0.00874207 0)
(-0.00349448 -0.00520221 0)
(-0.00186841 -0.00108114 0)
(-0.00013446 0.00366777 0)
(0.0017144 0.00910147 0)
(0.00368249 0.0152908 0)
(-0.0122388 -0.0200378 0)
(-0.0111154 -0.0186003 0)
(-0.00995515 -0.0167074 0)
(-0.00875462 -0.0143406 0)
(-0.00750888 -0.0114759 0)
(-0.00621178 -0.00808314 0)
(-0.00485638 -0.00412473 0)
(-0.00343569 0.000446664 0)
(-0.00194378 0.00569036 0)
(-0.000375256 0.0116815 0)
(-0.0133093 -0.0221871 0)
(-0.0122298 -0.0207927 0)
(-0.0111392 -0.0189465 0)
(-0.0100357 -0.0166325 0)
(-0.00891608 -0.0138289 0)
(-0.00777591 -0.0105079 0)
(-0.00660946 -0.00663414 0)
(-0.00541037 -0.0021619 0)
(-0.00417268 0.00296638 0)
(-0.00288808 0.008825 0)
(-0.0133604 -0.0243325 0)
(-0.0122529 -0.0229397 0)
(-0.0111492 -0.0210962 0)
(-0.0100477 -0.0187885 0)
(-0.00894539 -0.0159973 0)
(-0.00783739 -0.0126975 0)
(-0.00671682 -0.00885668 0)
(-0.00557586 -0.00443217 0)
(-0.00440569 0.000630813 0)
(-0.00318762 0.00640661 0)
(-0.0123423 -0.0266241 0)
(-0.0111273 -0.025215 0)
(-0.00991875 -0.0233574 0)
(-0.00871349 -0.021041 0)
(-0.00750586 -0.0182501 0)
(-0.0062867 -0.0149647 0)
(-0.00504277 -0.0111583 0)
(-0.00375657 -0.00679533 0)
(-0.00240115 -0.00182826 0)
(-0.000915613 0.00381196 0)
(-0.0103183 -0.0292096 0)
(-0.00892959 -0.0277906 0)
(-0.00754281 -0.0259312 0)
(-0.0061533 -0.0236267 0)
(-0.00475355 -0.0208706 0)
(-0.00333127 -0.017656 0)
(-0.00186821 -0.0139762 0)
(-0.000337062 -0.00982207 0)
(0.00131303 -0.00517627 0)
(0.00320245 1.57626e-06 0)
(-0.00744096 -0.032183 0)
(-0.00583793 -0.0307586 0)
(-0.00423711 -0.0288978 0)
(-0.00263856 -0.0265982 0)
(-0.00104332 -0.023857 0)
(0.000546645 -0.0206742 0)
(0.00212806 -0.0170535 0)
(0.00370121 -0.0129992 0)
(0.005286 -0.00850458 0)
(0.00691985 -0.00354371 0)
(-0.00382993 -0.0356309 0)
(-0.00195571 -0.0342058 0)
(-7.23699e-05 -0.032342 0)
(0.00182168 -0.0300336 0)
(0.00372629 -0.0272736 0)
(0.00563963 -0.0240582 0)
(0.00756273 -0.0203876 0)
(0.00951828 -0.0162589 0)
(0.0115612 -0.0116472 0)
(0.013603 -0.00652103 0)
(0.00036636 -0.0396679 0)
(0.00256063 -0.0382774 0)
(0.00478643 -0.036459 0)
(0.00705236 -0.0342071 0)
(0.00936531 -0.0315166 0)
(0.0117312 -0.0283909 0)
(0.014167 -0.0248455 0)
(0.0167346 -0.0209036 0)
(0.0195016 -0.0165772 0)
(0.0220799 -0.011815 0)
(0.00496892 -0.0443531 0)
(0.00749855 -0.0430302 0)
(0.0100731 -0.0412967 0)
(0.0127028 -0.0391414 0)
(0.0153918 -0.0365477 0)
(0.0181372 -0.0335012 0)
(0.0209391 -0.0299986 0)
(0.0238105 -0.0260664 0)
(0.0265516 -0.0218036 0)
(0.0285879 -0.0166904 0)
(0.00989177 -0.0497367 0)
(0.0128004 -0.048517 0)
(0.0157824 -0.0469247 0)
(0.0188685 -0.0449509 0)
(0.0220957 -0.042575 0)
(0.0255123 -0.0397721 0)
(0.0291996 -0.0365224 0)
(0.0332685 -0.0328488 0)
(0.0374523 -0.0288857 0)
(0.041926 -0.0235437 0)
(0.0150053 -0.0558743 0)
(0.0182987 -0.0547853 0)
(0.021666 -0.0533905 0)
(0.0251454 -0.051703 0)
(0.0287855 -0.0497284 0)
(0.0326517 -0.0474708 0)
(0.0368439 -0.0449393 0)
(0.0414913 -0.0421638 0)
(0.0463845 -0.0391376 0)
(0.0516218 -0.0349652 0)
(0.0202503 -0.062811 0)
(0.0239476 -0.0618276 0)
(0.0276871 -0.0606029 0)
(0.0314969 -0.0591693 0)
(0.0354062 -0.0575512 0)
(0.039444 -0.0557677 0)
(0.0436479 -0.0538242 0)
(0.0480544 -0.0516915 0)
(0.0525049 -0.0492367 0)
(0.0567185 -0.0456309 0)
(0.0255679 -0.0706123 0)
(0.0297161 -0.0696463 0)
(0.0338527 -0.0684743 0)
(0.0379925 -0.0671272 0)
(0.0421388 -0.0656164 0)
(0.0462806 -0.0639383 0)
(0.0504042 -0.0620643 0)
(0.0545052 -0.0599168 0)
(0.0585906 -0.0573708 0)
(0.0623187 -0.0540836 0)
(0.0309395 -0.0794612 0)
(0.0356792 -0.0784143 0)
(0.040379 -0.0771921 0)
(0.0450712 -0.07581 0)
(0.0497614 -0.0742475 0)
(0.0544319 -0.0724814 0)
(0.0590682 -0.0704957 0)
(0.0636963 -0.0682842 0)
(0.0684073 -0.0658665 0)
(0.0731165 -0.0633275 0)
(0.0360908 -0.0897121 0)
(0.0415919 -0.0885113 0)
(0.0470407 -0.0872419 0)
(0.0525186 -0.0858589 0)
(0.058032 -0.0842651 0)
(0.0635271 -0.0824105 0)
(0.0689427 -0.0803049 0)
(0.0742489 -0.0780061 0)
(0.0794378 -0.0756166 0)
(0.0844449 -0.0732926 0)
(0.0403141 -0.10167 0)
(0.046892 -0.100174 0)
(0.0534372 -0.0990423 0)
(0.0600795 -0.0978989 0)
(0.0668045 -0.0964045 0)
(0.0735215 -0.0944407 0)
(0.0801431 -0.0920835 0)
(0.0866262 -0.0894508 0)
(0.0929521 -0.0866495 0)
(0.0990708 -0.0837793 0)
(0.0420899 -0.116403 0)
(0.0505458 -0.114695 0)
(0.058987 -0.11354 0)
(0.0673003 -0.112441 0)
(0.0755377 -0.111024 0)
(0.0836886 -0.109018 0)
(0.0916892 -0.106475 0)
(0.0995114 -0.103609 0)
(0.10718 -0.100519 0)
(0.114716 -0.0972349 0)
(0.0395351 -0.13511 0)
(0.050122 -0.133931 0)
(0.0608414 -0.132643 0)
(0.0715272 -0.131171 0)
(0.0819771 -0.129157 0)
(0.0920364 -0.126535 0)
(0.101819 -0.123472 0)
(0.111301 -0.120149 0)
(0.120451 -0.116822 0)
(0.129348 -0.113355 0)
(0.0333989 -0.157014 0)
(0.0451798 -0.157108 0)
(0.0574744 -0.156279 0)
(0.0700835 -0.15476 0)
(0.0828135 -0.152164 0)
(0.0954764 -0.148859 0)
(0.107917 -0.145156 0)
(0.120137 -0.140906 0)
(0.131906 -0.136456 0)
(0.142908 -0.132217 0)
(0.0228435 -0.18089 0)
(0.0359609 -0.182195 0)
(0.0496815 -0.182451 0)
(0.0638814 -0.181891 0)
(0.0786679 -0.180133 0)
(0.0940205 -0.177082 0)
(0.109519 -0.173036 0)
(0.124856 -0.168173 0)
(0.13992 -0.162449 0)
(0.153976 -0.156217 0)
(0.0065845 -0.20801 0)
(0.0216392 -0.210711 0)
(0.0374838 -0.212273 0)
(0.0540417 -0.212793 0)
(0.0710546 -0.212151 0)
(0.088362 -0.21026 0)
(0.106327 -0.206984 0)
(0.124683 -0.201567 0)
(0.142332 -0.194353 0)
(0.159073 -0.186186 0)
(-0.0178031 -0.239417 0)
(-0.00060067 -0.244058 0)
(0.0176416 -0.247236 0)
(0.036867 -0.248975 0)
(0.056812 -0.249228 0)
(0.0771656 -0.247988 0)
(0.0976803 -0.244955 0)
(0.118219 -0.239391 0)
(0.138663 -0.231564 0)
(0.15883 -0.222249 0)
(-0.0502651 -0.27425 0)
(-0.0312359 -0.281635 0)
(-0.0106806 -0.287253 0)
(0.0111957 -0.29097 0)
(0.0341086 -0.292605 0)
(0.0577127 -0.292004 0)
(0.0816886 -0.289004 0)
(0.105825 -0.283489 0)
(0.129974 -0.275594 0)
(0.1539 -0.265603 0)
(-0.0891225 -0.312139 0)
(-0.068319 -0.323226 0)
(-0.0455032 -0.332128 0)
(-0.0209228 -0.338586 0)
(0.00510619 -0.342348 0)
(0.0322242 -0.343209 0)
(0.0600609 -0.34105 0)
(0.0882829 -0.335847 0)
(0.116578 -0.327716 0)
(0.144608 -0.316881 0)
(-0.131756 -0.353074 0)
(-0.109263 -0.368889 0)
(-0.0841639 -0.382067 0)
(-0.0567535 -0.39219 0)
(-0.0274284 -0.398904 0)
(0.0033817 -0.401939 0)
(0.0352216 -0.401147 0)
(0.0676334 -0.396533 0)
(0.100184 -0.388237 0)
(0.132448 -0.376488 0)
(-0.173636 -0.396511 0)
(-0.149816 -0.418423 0)
(-0.122615 -0.437156 0)
(-0.0924092 -0.452056 0)
(-0.0597471 -0.462613 0)
(-0.0252227 -0.468492 0)
(0.0105739 -0.469527 0)
(0.0470732 -0.465724 0)
(0.0837388 -0.457283 0)
(0.120069 -0.444497 0)
(-0.207599 -0.441316 0)
(-0.183382 -0.471063 0)
(-0.154761 -0.497012 0)
(-0.122202 -0.518041 0)
(-0.086533 -0.533365 0)
(-0.0486434 -0.542641 0)
(-0.00933235 -0.545777 0)
(0.0307106 -0.542868 0)
(0.0708798 -0.534203 0)
(0.110629 -0.520189 0)
(-0.223451 -0.484775 0)
(-0.200671 -0.524334 0)
(-0.172332 -0.55989 0)
(-0.138683 -0.588891 0)
(-0.101063 -0.609998 0)
(-0.0609322 -0.62306 0)
(-0.0193293 -0.628347 0)
(0.0229569 -0.626217 0)
(0.0652875 -0.617139 0)
(0.107121 -0.601674 0)
(-0.212492 -0.523495 0)
(-0.192213 -0.573321 0)
(-0.166803 -0.620948 0)
(-0.134562 -0.660811 0)
(-0.0970234 -0.68906 0)
(-0.0568069 -0.706279 0)
(-0.0151723 -0.713684 0)
(0.0271315 -0.712197 0)
(0.0694973 -0.702591 0)
(0.111399 -0.685597 0)
(-0.181766 -0.557639 0)
(-0.159543 -0.615878 0)
(-0.136003 -0.675827 0)
(-0.108029 -0.728725 0)
(-0.0735341 -0.76476 0)
(-0.0355897 -0.786546 0)
(0.00353739 -0.796295 0)
(0.0433414 -0.79564 0)
(0.0833762 -0.785731 0)
(0.12312 -0.767463 0)
(-0.151606 -0.61602 0)
(-0.12396 -0.659331 0)
(-0.0931871 -0.728091 0)
(-0.0671765 -0.791319 0)
(-0.0384502 -0.83302 0)
(-0.00385977 -0.859104 0)
(0.0315977 -0.87146 0)
(0.0674957 -0.872019 0)
(0.103653 -0.862206 0)
(0.13964 -0.843049 0)
(-0.110312 -0.684508 0)
(-0.0866955 -0.714911 0)
(-0.0545316 -0.783383 0)
(-0.0265391 -0.848935 0)
(-0.00119585 -0.895348 0)
(0.0297553 -0.924275 0)
(0.0620504 -0.938578 0)
(0.0941428 -0.940053 0)
(0.1261 -0.930206 0)
(0.157727 -0.910152 0)
(-0.0545453 -0.720319 0)
(-0.0474665 -0.754439 0)
(-0.0230719 -0.833834 0)
(0.00753723 -0.907385 0)
(0.0342406 -0.956632 0)
(0.062793 -0.985586 0)
(0.0923016 -0.999623 0)
(0.120678 -1.00053 0)
(0.148299 -0.989749 0)
(0.175296 -0.968354 0)
(0.00576731 -0.735363 0)
(0.00791792 -0.778118 0)
(0.0280854 -0.875184 0)
(0.0545908 -0.963063 0)
(0.0770837 -1.01254 0)
(0.099991 -1.03981 0)
(0.123991 -1.05221 0)
(0.147 -1.05167 0)
(0.169247 -1.03949 0)
(0.190868 -1.01667 0)
(0.0566133 -0.741288 0)
(0.0563603 -0.796849 0)
(0.0763115 -0.913345 0)
(0.0994732 -1.00816 0)
(0.117182 -1.05505 0)
(0.134572 -1.08075 0)
(0.152356 -1.0921 0)
(0.169473 -1.09064 0)
(0.186009 -1.07746 0)
(0.201948 -1.05358 0)
(0.0934936 -0.744128 0)
(0.0999638 -0.81701 0)
(0.122214 -0.949386 0)
(0.136807 -1.03904 0)
(0.147455 -1.08321 0)
(0.159514 -1.10889 0)
(0.17199 -1.12028 0)
(0.184168 -1.11841 0)
(0.195814 -1.10433 0)
(0.206695 -1.07926 0)
(0.0970617 -0.745411 0)
(0.104269 -0.855282 0)
(0.128366 -0.987744 0)
(0.146857 -1.06523 0)
(0.158384 -1.1069 0)
(0.169937 -1.13185 0)
(0.180539 -1.14222 0)
(0.190037 -1.13887 0)
(0.198381 -1.12285 0)
(0.205396 -1.09551 0)
(0.0952826 -0.743943 0)
(0.111779 -0.905114 0)
(0.136627 -1.02957 0)
(0.154192 -1.09423 0)
(0.165167 -1.13101 0)
(0.175022 -1.15254 0)
(0.18349 -1.16012 0)
(0.190652 -1.15407 0)
(0.196397 -1.13509 0)
(0.200493 -1.10447 0)
(0.103861 -0.752865 0)
(0.130873 -0.954714 0)
(0.149468 -1.06475 0)
(0.160072 -1.11646 0)
(0.168059 -1.14868 0)
(0.175094 -1.16759 0)
(0.181305 -1.17303 0)
(0.186612 -1.16461 0)
(0.190683 -1.14272 0)
(0.193228 -1.10863 0)
(0.110197 -0.805608 0)
(0.138706 -0.997422 0)
(0.152567 -1.08524 0)
(0.157077 -1.1296 0)
(0.16202 -1.1604 0)
(0.167404 -1.17878 0)
(0.172647 -1.18322 0)
(0.177257 -1.17295 0)
(0.18074 -1.14834 0)
(0.182777 -1.11086 0)
(0.0969022 -0.897987 0)
(0.121037 -1.03478 0)
(0.135499 -1.09858 0)
(0.141426 -1.14059 0)
(0.146919 -1.17151 0)
(0.152606 -1.18975 0)
(0.158068 -1.19338 0)
(0.162893 -1.18145 0)
(0.166728 -1.15439 0)
(0.169262 -1.11411 0)
(0.117811 -0.92966 0)
(0.12102 -1.04841 0)
(0.123975 -1.10513 0)
(0.125991 -1.14828 0)
(0.12949 -1.18074 0)
(0.134041 -1.19966 0)
(0.138766 -1.20293 0)
(0.143072 -1.18961 0)
(0.146519 -1.16011 0)
(0.14836 -1.11632 0)
(0.0798143 -0.950408 0)
(0.0900669 -1.05095 0)
(0.0942415 -1.1081 0)
(0.0987531 -1.1552 0)
(0.104054 -1.18997 0)
(0.109423 -1.20949 0)
(0.114284 -1.21213 0)
(0.11839 -1.19729 0)
(0.121572 -1.16541 0)
(0.123216 -1.11793 0)
(0.0493235 -0.969101 0)
(0.0598603 -1.0604 0)
(0.0664808 -1.11999 0)
(0.0730812 -1.16806 0)
(0.0791948 -1.2021 0)
(0.0844218 -1.22006 0)
(0.0885512 -1.22082 0)
(0.0915601 -1.20408 0)
(0.0934671 -1.17029 0)
(0.0944956 -1.12064 0)
(0.0351399 -0.985156 0)
(0.0417152 -1.07401 0)
(0.0478885 -1.1334 0)
(0.0537694 -1.18032 0)
(0.0587056 -1.21236 0)
(0.0624832 -1.22781 0)
(0.0648846 -1.22592 0)
(0.0657513 -1.20665 0)
(0.0649422 -1.17061 0)
(0.0633836 -1.11875 0)
(0.0253921 -0.996622 0)
(0.0297748 -1.08447 0)
(0.0347397 -1.14365 0)
(0.0394543 -1.18954 0)
(0.0432838 -1.21957 0)
(0.0459768 -1.23228 0)
(0.0472421 -1.22721 0)
(0.0467991 -1.20464 0)
(0.0444698 -1.16548 0)
(0.0415317 -1.11065 0)
(0.0195721 -1.0039 0)
(0.0227468 -1.0924 0)
(0.0266962 -1.15187 0)
(0.0305982 -1.19704 0)
(0.0339184 -1.22539 0)
(0.0363991 -1.23567 0)
(0.037757 -1.22766 0)
(0.0377374 -1.20193 0)
(0.0362895 -1.15971 0)
(0.0346114 -1.10236 0)
(0.017033 -1.0088 0)
(0.0194294 -1.09874 0)
(0.0227766 -1.15886 0)
(0.0263188 -1.20388 0)
(0.029657 -1.23135 0)
(0.0326023 -1.24015 0)
(0.0349602 -1.23034 0)
(0.0366542 -1.20274 0)
(0.0379649 -1.15887 0)
(0.0395339 -1.10048 0)
(0.0169847 -1.01219 0)
(0.0188583 -1.10409 0)
(0.0216912 -1.16516 0)
(0.025016 -1.21068 0)
(0.0284951 -1.2381 0)
(0.031956 -1.24647 0)
(0.0352747 -1.23613 0)
(0.0385556 -1.20823 0)
(0.0423606 -1.16462 0)
(0.0466054 -1.10725 0)
(0.0178483 -1.01429 0)
(0.0196322 -1.1083 0)
(0.0219506 -1.17078 0)
(0.0250331 -1.21734 0)
(0.0285048 -1.24529 0)
(0.0321181 -1.25382 0)
(0.0357416 -1.24362 0)
(0.0395296 -1.21623 0)
(0.044081 -1.17381 0)
(0.0487539 -1.11843 0)
(0.018197 -1.0158 0)
(0.0203885 -1.11162 0)
(0.0223883 -1.17588 0)
(0.0252652 -1.22369 0)
(0.0285596 -1.25228 0)
(0.0319478 -1.26101 0)
(0.0352442 -1.25086 0)
(0.0385431 -1.22389 0)
(0.0423489 -1.1826 0)
(0.0459671 -1.12897 0)
(0.0175781 -1.01771 0)
(0.0204612 -1.11473 0)
(0.0225324 -1.18079 0)
(0.0253085 -1.22967 0)
(0.0283328 -1.25864 0)
(0.0312755 -1.26719 0)
(0.033899 -1.25657 0)
(0.0361386 -1.22931 0)
(0.0382967 -1.18849 0)
(0.0402086 -1.13552 0)
(0.016207 -1.02113 0)
(0.0198378 -1.11864 0)
(0.0222841 -1.18589 0)
(0.02507 -1.2353 0)
(0.0278496 -1.26424 0)
(0.0303886 -1.2722 0)
(0.032461 -1.26055 0)
(0.0338258 -1.23215 0)
(0.0345311 -1.19078 0)
(0.0351871 -1.13742 0)
(0.0135066 -1.02678 0)
(0.0182194 -1.12389 0)
(0.0213132 -1.19151 0)
(0.024305 -1.2408 0)
(0.0269786 -1.26925 0)
(0.0292958 -1.27636 0)
(0.0311755 -1.2634 0)
(0.0323214 -1.23329 0)
(0.0325725 -1.1902 0)
(0.0329457 -1.13502 0)
(0.00931277 -1.03498 0)
(0.0153939 -1.13099 0)
(0.0194516 -1.19822 0)
(0.0228997 -1.24669 0)
(0.0256597 -1.27423 0)
(0.0279528 -1.28045 0)
(0.0299866 -1.26634 0)
(0.0316316 -1.23434 0)
(0.0326146 -1.18842 0)
(0.0336491 -1.12929 0)
(0.00366723 -1.04623 0)
(0.0111375 -1.14051 0)
(0.0164458 -1.20658 0)
(0.0205757 -1.25356 0)
(0.0236128 -1.27997 0)
(0.0261383 -1.28577 0)
(0.0288267 -1.27159 0)
(0.0319384 -1.23879 0)
(0.0348666 -1.19001 0)
(0.0372631 -1.12457 0)
(-0.00354799 -1.06111 0)
(0.00541063 -1.15292 0)
(0.0120002 -1.21679 0)
(0.0166991 -1.26126 0)
(0.0197442 -1.28606 0)
(0.0221868 -1.29198 0)
(0.0253626 -1.27957 0)
(0.0303317 -1.24919 0)
(0.0367702 -1.20144 0)
(0.0441939 -1.13158 0)
(-0.0114486 -1.07896 0)
(-0.000538202 -1.16839 0)
(0.00718648 -1.22854 0)
(0.0119287 -1.26873 0)
(0.0142013 -1.29061 0)
(0.0153253 -1.296 0)
(0.0166823 -1.28548 0)
(0.0193684 -1.25874 0)
(0.0236471 -1.21418 0)
(0.0313208 -1.14093 0)
(-0.0175554 -1.09925 0)
(-0.00434436 -1.18674 0)
(0.00422397 -1.24116 0)
(0.00852049 -1.27513 0)
(0.00986734 -1.29284 0)
(0.00984717 -1.29672 0)
(0.00963066 -1.28713 0)
(0.0105269 -1.26339 0)
(0.0143067 -1.22188 0)
(0.0241185 -1.14619 0)
(-0.0199979 -1.12415 0)
(-0.00506121 -1.20751 0)
(0.00379324 -1.25345 0)
(0.00710321 -1.28005 0)
(0.00766538 -1.29364 0)
(0.00721783 -1.29627 0)
(0.00664368 -1.28772 0)
(0.00759301 -1.26783 0)
(0.0128943 -1.23231 0)
(0.0239189 -1.16256 0)
(-0.0170361 -1.15751 0)
(-0.00378044 -1.22868 0)
(0.00446469 -1.26346 0)
(0.00643194 -1.28302 0)
(0.00634558 -1.29381 0)
(0.00592543 -1.29625 0)
(0.00586454 -1.28932 0)
(0.00790528 -1.27456 0)
(0.0145632 -1.24931 0)
(0.0222448 -1.19824 0)
(-0.00812958 -1.20116 0)
(-0.00216634 -1.24733 0)
(0.00387639 -1.27003 0)
(0.00469455 -1.28428 0)
(0.00420804 -1.29365 0)
(0.00358247 -1.29642 0)
(0.00349914 -1.29082 0)
(0.00495658 -1.28047 0)
(0.00909715 -1.26619 0)
(0.0102932 -1.24027 0)
(-0.00141783 -1.23849 0)
(-0.0011754 -1.26022 0)
(0.00224045 -1.27337 0)
(0.00253941 -1.28421 0)
(0.00189556 -1.29262 0)
(0.000510595 -1.29533 0)
(-0.000412565 -1.29001 0)
(-0.00119774 -1.28101 0)
(-0.00183089 -1.27247 0)
(-0.00386545 -1.26277 0)
(0.0085226 -1.25619 0)
(0.00555372 -1.26381 0)
(0.00406905 -1.27215 0)
(0.00257093 -1.28176 0)
(0.00100946 -1.28937 0)
(-0.00198213 -1.2916 0)
(-0.00404777 -1.28643 0)
(-0.00657114 -1.27617 0)
(-0.0108193 -1.26775 0)
(-0.0146608 -1.2615 0)
(0.0151926 -1.25257 0)
(0.0109498 -1.25744 0)
(0.00637093 -1.2661 0)
(0.0034945 -1.27665 0)
(0.00108318 -1.2833 0)
(-0.00382519 -1.28483 0)
(-0.00684651 -1.28092 0)
(-0.010067 -1.26824 0)
(-0.0159648 -1.25698 0)
(-0.0209566 -1.25055 0)
(0.0180333 -1.23992 0)
(0.013282 -1.24602 0)
(0.0076945 -1.2581 0)
(0.00460933 -1.27064 0)
(0.00177707 -1.27509 0)
(-0.00508231 -1.27568 0)
(-0.00844011 -1.27489 0)
(-0.0114916 -1.25993 0)
(-0.0173357 -1.24288 0)
(-0.022644 -1.23419 0)
(0.0167295 -1.22254 0)
(0.0123593 -1.23287 0)
(0.00777392 -1.2514 0)
(0.00534814 -1.26531 0)
(0.00270477 -1.2653 0)
(-0.00611573 -1.26498 0)
(-0.00895299 -1.2691 0)
(-0.0119108 -1.25467 0)
(-0.0155109 -1.2284 0)
(-0.0199703 -1.21307 0)
(0.0109118 -1.19915 0)
(0.00824661 -1.22082 0)
(0.00832853 -1.24929 0)
(0.00598927 -1.25989 0)
(0.00404083 -1.25359 0)
(-0.00727352 -1.25292 0)
(-0.00877801 -1.2618 0)
(-0.01331 -1.25482 0)
(-0.0105107 -1.21677 0)
(-0.0126052 -1.18479 0)
(0.0033279 -1.16176 0)
(0.000957251 -1.21523 0)
(0.012642 -1.25336 0)
(0.00581037 -1.25001 0)
(0.00557834 -1.24043 0)
(-0.00834391 -1.24004 0)
(-0.00763182 -1.24966 0)
(-0.0181699 -1.25968 0)
(-0.00232787 -1.21433 0)
(-0.00439724 -1.14196 0)
(0.00523048 -1.08575 0)
(-0.0133667 -1.2421 0)
(0.0198785 -1.26267 0)
(0.000474173 -1.23467 0)
(0.00548846 -1.22905 0)
(-0.00771547 -1.22883 0)
(-0.00251082 -1.2341 0)
(-0.0242853 -1.26595 0)
(0.0119958 -1.24456 0)
(-0.00798137 -1.0657 0)
(-0.0145901 0.00111825 0)
(-0.015561 0.00112767 0)
(-0.0165207 0.00110937 0)
(-0.0174454 0.00106073 0)
(-0.0183099 0.000980725 0)
(-0.0190882 0.000867421 0)
(-0.0197535 0.000719769 0)
(-0.0202796 0.000536061 0)
(-0.0206421 0.000316085 0)
(-0.0208162 6.4166e-05 0)
(-0.0207681 -0.000209033 0)
(-0.0204911 -0.000496435 0)
(-0.0199754 -0.00079414 0)
(-0.0192089 -0.00110044 0)
(-0.018184 -0.00141349 0)
(-0.0168959 -0.00173041 0)
(-0.015343 -0.00204783 0)
(-0.0135274 -0.00236143 0)
(-0.0114556 -0.00266636 0)
(-0.0091391 -0.00295638 0)
(-0.0065957 -0.00322412 0)
(-0.00385023 -0.00346077 0)
(-0.000935485 -0.00365567 0)
(0.0021073 -0.00379495 0)
(0.00522584 -0.0038641 0)
(0.00835665 -0.00384833 0)
(0.011423 -0.00373315 0)
(0.0143348 -0.00350105 0)
(0.0169883 -0.00313422 0)
(0.0192662 -0.00261227 0)
(0.0210398 -0.00191166 0)
(0.0221773 -0.00100156 0)
(0.0225759 0.000129698 0)
(0.0219581 0.0013853 0)
(0.0203216 0.00268884 0)
(0.0176999 0.00395286 0)
(0.0141746 0.0050232 0)
(0.0100001 0.0056269 0)
(0.0051883 0.00506323 0)
(0.00148031 0.00331529 0)
(-0.0158773 0.00252202 0)
(-0.0167117 0.00251066 0)
(-0.0175238 0.00243942 0)
(-0.0182947 0.00230506 0)
(-0.0190054 0.00210591 0)