/*--------------------------------*- C++ -*----------------------------------*\
  =========                 |
  \\      /  F ield         | OpenFOAM: The Open Source CFD Toolbox
   \\    /   O peration     | Website:  https://openfoam.org
    \\  /    A nd           | Version:  8
     \\/     M anipulation  |
\*---------------------------------------------------------------------------*/
FoamFile
{
    version     2.0;
    format      ascii;
    class       volScalarField;
    location    "4.75";
    object      alpha.water;
}
// * * * * * * * * * * * * * * * * * * * * * * * * * * * * * * * * * * * * * //

dimensions      [0 0 0 0 0 0 0];

internalField   nonuniform List<scalar> 
9150
(
1
1
1
1
1
1
1
1
1
1
1
1
1
1
1
1
1
1
1
1
1
1
1
1
1
1
1
1
1
1
1
1
1
1
1
1
1
1
1
1
1
1
1
1
1
1
1
1
1
1
1
1
1
1
1
1
1
1
1
1
1
1
1
1
1
1
1
1
1
1
1
1
1
1
1
1
1
1
1
1
1
1
1
1
1
1
1
1
1
1
1
1
1
1
1
1
1
1
1
1
1
1
1
1
1
1
1
1
1
1
1
1
1
1
1
1
1
1
1
1
1
1
1
1
1
1
1
1
1
1
1
1
1
1
1
1
1
1
1
1
1
1
1
1
1
1
1
1
1
1
0.991595
0.991597
0.990964
0.955832
0.942951
0.942951
0.942953
0.963036
0.99229
0.992282
0.99053
0.991634
0.990763
0.980721
0.942951
0.942951
0.942955
0.974249
0.992297
0.992309
0.970188
0.991673
0.991698
0.991723
0.961055
0.942955
0.947588
0.983662
0.992309
0.992321
0.957104
0.987107
0.991723
0.991729
0.990606
0.942984
0.960834
0.982033
0.989826
0.992323
0.956937
0.967981
0.991728
0.991745
0.991756
0.952332
0.95907
0.985885
0.98653
0.992325
0.957059
0.973437
0.991745
0.991756
0.991757
0.989177
0.95922
0.988771
0.988773
0.991659
0.984877
0.988886
0.991749
0.991757
0.991758
0.991762
0.971963
0.97631
0.990454
0.99036
0.991776
0.991775
0.991072
0.991176
0.991762
0.991764
0.988018
0.97455
0.987474
0.992314
0.991783
0.991785
0.991068
0.991068
0.991758
0.991765
0.991644
0.97455
0.991472
0.992314
0.991785
0.991785
0.991725
0.991456
0.991034
0.991771
0.991778
0.988032
0.97263
0.992301
0.991785
0.991785
0.991786
0.991782
0.990982
0.991472
0.991781
0.991778
0.971089
0.922087
0.991785
0.991786
0.991786
0.991785
0.990983
0.991765
0.991781
0.991781
0.951113
0.894307
0.96869
0.985494
0.991786
0.991786
0.991552
0.991781
0.991781
0.98
0.896202
0.894233
0.965951
0.970207
0.991786
0.991786
0.991786
0.991783
0.990285
0.916406
0.894233
0.894232
0.965933
0.986065
0.991786
0.991786
0.991786
0.991786
0.991782
0.946546
0.89946
0.903703
0.984868
0.991786
0.991786
0.991786
0.991786
0.991786
0.991786
0.990745
0.984693
0.987223
0.991785
0.991786
0.991786
0.991786
0.991786
0.991786
0.991786
0.991794
0.991804
0.991806
0.991769
0.963764
0.909069
0.831641
0.788232
0.867335
0.980779
0.991804
0.991806
0.991807
0.775475
0.751965
0.750915
0.75042
0.750419
0.75044
0.772867
0.872098
0.904516
0.912385
0.888841
0.830249
0.783371
0.75042
0.75042
0.750419
0.75044
0.750738
0.752225
0.754249
0.984802
0.981119
0.966905
0.926757
0.87883
0.825538
0.783421
0.755288
0.806182
0.906121
0.98481
0.984802
0.984765
0.984654
0.984316
0.982789
0.974808
0.963292
0.976341
0.985469
0.901472
0.930696
0.957975
0.967317
0.96503
0.968479
0.981924
0.985383
0.985469
0.985473
0.64811
0.459284
0.357636
0.360694
0.395126
0.440774
0.510795
0.598149
0.639633
0.670341
0.259471
0.260489
0.260843
0.260941
0.261152
0.261499
0.262385
0.264251
0.267662
0.281426
0.367639
0.260819
0.260941
0.261152
0.26337
0.354793
0.47997
0.592921
0.772318
0.935833
0.991625
0.83232
0.439827
0.412593
0.857321
0.991633
0.991633
0.991632
0.991632
0.991632
0.991625
0.991625
0.991627
0.991629
0.991634
0.991632
0.991632
0.991632
0.991632
0.991631
0.991625
0.991624
0.991625
0.991628
0.991629
0.99163
0.991632
0.991632
0.991629
0.991609
0.991609
0.991585
0.991576
0.991585
0.991597
0.991607
0.991618
0.991622
0.991599
0.991352
0.988298
0.955311
0.944097
0.95651
0.983163
0.99111
0.991372
0.991501
0.991341
0.988857
0.833839
0.388599
0.28747
0.331069
0.49299
0.687646
0.877682
0.980186
0.990051
0.98182
0.335793
0.0437338
0.0437304
0.0437314
0.0437312
0.043756
0.15137
0.506634
0.836543
0.974566
0.134769
0.0558708
0.0437314
0.0437314
0.0437303
0.0437289
0.0437412
0.0439799
0.125303
0.622451
0.160194
0.0839399
0.043729
0.0437303
0.0437289
0.0437289
0.0437289
0.0437412
0.0439801
0.0782134
0.379998
0.288514
0.0671201
0.043774
0.0437304
0.0437289
0.0437335
0.0437543
0.0438936
0.172084
0.337306
0.452606
0.510517
0.372771
0.0659797
0.0437335
0.0437543
0.0438936
0.132359
0.656718
0.626585
0.6032
0.525169
0.460071
0.335526
0.112413
0.0999943
0.280273
0.787002
0.967507
0.91345
0.913394
0.853921
0.778753
0.725941
0.630143
0.767999
0.967407
0.967681
0.967585
0.913394
0.913458
0.912827
0.865374
0.900643
0.967525
0.967694
0.967681
0.967681
0.967681
0.745119
0.841645
0.825606
0.825789
0.923857
0.967763
0.967741
0.967704
0.967682
0.967579
0.470007
0.79202
0.967818
0.967815
0.967776
0.967773
0.967763
0.967741
0.967634
0.902662
0.936369
0.967817
0.96781
0.967799
0.967805
0.967774
0.967741
0.967603
0.898881
0.865799
0.967802
0.96781
0.967798
0.967802
0.967812
0.967515
0.967252
0.895348
0.860721
0.863254
0.967811
0.967816
0.96781
0.967797
0.967803
0.943853
0.8704
0.858187
0.858187
0.947839
0.967816
0.967816
0.967816
0.967806
0.935823
0.581917
0.744937
0.88191
0.968725
0.984088
0.967609
0.967816
0.967816
0.967793
0.655158
0.473021
0.858428
0.984088
0.984088
0.984088
0.967813
0.967816
0.967813
0.948186
0.458488
0.465803
0.941705
0.984088
0.984088
0.984088
0.967805
0.967813
0.967802
0.826485
0.453754
0.500321
0.942753
0.984086
0.984085
0.984086
0.967794
0.967802
0.967711
0.586545
0.453754
0.732229
0.882552
0.984067
0.984038
0.984087
0.967765
0.967715
0.96763
0.421574
0.541867
0.791353
0.663825
0.983761
0.983366
0.983821
0.966336
0.925408
0.966854
0.326496
0.765023
0.791967
0.336787
0.828257
0.726901
0.841743
0.529667
0.262465
0.571535
0.166962
0.787415
0.792554
0.162254
0.151117
0.0775765
0.214748
0.0011445
0.00125099
0.00347146
0.105692
0.779555
0.792852
0.0828104
0.00137699
0.000792772
0.00714181
0.00117335
0.00127996
0.00172778
0.0805349
0.778699
0.795011
0.0605942
0.00554974
0.000629096
0.00553718
0.0012799
0.00185532
0.0499462
0.0772539
0.786674
0.795704
0.0684613
0.0254558
0.000343558
0.00251268
0.0192692
0.0338643
0.187759
0.0975661
0.779614
0.799517
0.0793441
0.0265098
6.40903e-05
7.91313e-05
0.199989
0.223878
0.219051
0.102481
0.774786
0.799976
0.0806542
0.0240798
6.22607e-05
6.34961e-05
0.236265
0.230873
0.191965
0.0888676
0.775273
0.799368
0.0654858
0.0324789
6.23015e-05
6.22606e-05
0.0425241
0.0489608
0.0350712
0.0683716
0.782164
0.80197
0.0486278
0.0171021
0.000101862
6.34961e-05
8.27264e-05
3.53039e-05
0.00483681
0.0525
0.792898
0.804871
0.0398931
2.43191e-06
0.000110778
0.000139803
0.000146349
2.49217e-05
2.4609e-05
0.0483089
0.810315
0.814846
0.0396683
2.4313e-06
2.43191e-06
2.11317e-05
0.000738158
0.000301006
2.45857e-05
0.0632148
0.822165
0.82424
0.0608844
2.43191e-06
2.43148e-06
2.44243e-06
0.000738158
0.000362114
2.4609e-05
0.0750805
0.825085
0.825858
0.0744175
2.43901e-06
2.44243e-06
2.52232e-06
0.000590737
8.19378e-05
2.50763e-05
0.08263
0.82604
0.826202
0.0794886
2.50567e-06
0.000173132
7.20377e-06
0.000848158
8.77554e-05
2.57614e-05
0.0830182
0.825207
0.826364
0.0820971
3.08013e-06
0.00046444
7.21422e-06
0.00131574
0.00066876
1.9511e-05
0.0806784
0.818901
0.826364
0.0726318
4.64339e-06
0.000465164
7.23361e-06
0.00131627
0.000889855
8.73195e-06
0.0735143
0.810361
0.823559
0.0604881
3.3891e-06
0.000429636
7.22849e-06
0.00128299
0.0002054
7.55678e-06
0.068801
0.806353
0.822395
0.054934
1.10264e-06
0.000430429
0.000509144
0.000960017
7.25843e-05
7.13388e-06
0.0692176
0.809977
0.823293
0.0521125
1.06966e-06
5.65396e-05
0.000364207
0.000631552
5.53364e-05
7.0826e-06
0.0751832
0.829025
0.844339
0.0573124
1.06966e-06
1.06966e-06
1.06966e-06
0.000143063
3.40815e-05
7.06453e-06
0.0934002
0.858882
0.872225
0.0849608
1.06966e-06
1.06966e-06
1.06969e-06
7.04209e-06
1.57991e-05
7.04103e-06
0.131264
0.88659
0.896239
0.118463
1.06966e-06
1.06886e-06
1.7223e-06
7.02579e-06
7.03272e-06
7.03811e-06
0.163535
0.902899
0.9161
0.151371
1.06886e-06
1.06805e-06
1.06805e-06
7.01672e-06
7.01848e-06
7.03272e-06
0.183608
0.912748
0.924777
0.17197
1.06889e-06
1.06805e-06
1.06805e-06
7.01705e-06
7.01667e-06
0.002067
0.190099
0.917343
0.926596
0.180607
1.07312e-06
1.15702e-06
1.06805e-06
7.01695e-06
7.0779e-06
0.0181611
0.189894
0.919196
0.927131
0.181574
1.10522e-06
4.17335e-05
1.06815e-06
4.74748e-05
0.000106461
0.0321639
0.185904
0.921305
0.928011
0.179455
1.33223e-06
7.12798e-05
1.49464e-06
5.00076e-05
0.000763794
0.0436595
0.183526
0.926009
0.929474
0.179885
1.77007e-06
7.12833e-05
6.43558e-05
0.00296952
0.00469604
1.78595e-05
0.184702
0.933631
0.932369
0.185796
2.22455e-06
7.05858e-05
0.000117631
0.00432007
0.00421289
6.44843e-06
0.21011
0.941654
0.942011
0.210357
2.666e-06
7.42685e-05
0.000117883
0.00428663
0.00385057
6.44843e-06
0.242084
0.953196
0.95335
0.243154
2.39811e-06
6.14626e-05
0.000117883
0.000494129
0.000866055
6.44833e-06
0.278758
0.962614
0.963451
0.27983
2.13215e-06
4.45519e-05
0.000117883
6.97342e-06
6.45021e-06
6.44843e-06
0.311283
0.97047
0.970722
0.312217
1.99939e-06
2.26826e-05
0.000117875
6.81959e-06
6.46787e-06
6.45021e-06
0.342773
0.976412
0.976654
0.342754
1.96037e-06
6.715e-06
3.66253e-05
7.15532e-06
2.13717e-05
6.46787e-06
0.373481
0.981342
0.98154
0.373364
1.94754e-06
1.93334e-06
1.94754e-06
7.15532e-06
4.40904e-05
6.5876e-06
0.409972
0.986025
0.985877
0.409147
1.93334e-06
1.92101e-06
1.93334e-06
6.65964e-05
5.67116e-05
6.91597e-06
0.458372
0.990254
0.989889
0.455975
1.92101e-06
1.90264e-06
1.98684e-06
0.000120461
7.20191e-05
6.86231e-06
0.520899
0.99361
0.993279
0.518651
1.45618e-06
1.8502e-06
1.1241e-05
9.78094e-05
5.61133e-06
5.75292e-06
0.594964
0.99575
0.995408
0.594089
8.50173e-07
6.88721e-07
3.09457e-05
3.22247e-05
5.54953e-06
5.54796e-06
0.675028
0.997025
0.996891
0.67529
5.4418e-07
3.86054e-07
4.25889e-05
2.81113e-05
5.54509e-06
5.54953e-06
0.754057
0.998074
0.997945
0.75475
3.06177e-07
2.29561e-07
3.05603e-05
4.0005e-05
5.54953e-06
0.0291213
0.823221
0.998942
0.998693
0.822866
0.0310776
1.15371e-07
6.81776e-06
0.000211802
5.74029e-06
0.102539
0.884359
0.999278
0.999559
0.884278
0.110786
1.18095e-09
1.10433e-09
0.000317449
8.35109e-06
0.184555
0.928371
0.999645
0.999887
0.955315
0.243421
2.62534e-09
5.34219e-10
0.000243039
1.57853e-05
0.363196
0.976005
0.999935
0.999941
0.989982
0.430122
1.00077e-07
3.85034e-11
0.00019556
6.6578e-05
0.626046
0.999942
0.999954
0.999995
0.999953
0.667293
4.38998e-06
1.9333e-11
9.98123e-05
0.0387709
0.818995
0.999973
0.999998
0.999999
0.999995
0.914187
0.164455
1.29793e-13
1.45754e-06
0.516544
0.995389
0.999997
1
1
0.999999
0.999933
0.643989
-5.14166e-10
0.311937
0.961877
1
1
1
1
1
1
0.978045
0.377828
0.990311
0.989892
0.990679
0.992342
0.992342
0.992342
0.992342
0.992338
0.992451
0.992658
0.967242
0.882293
0.837434
0.839062
0.912842
0.971226
0.992128
0.992144
0.992144
0.992015
0.991763
0.992103
0.992144
0.992144
0.992144
0.992144
0.992144
0.992144
0.992144
0.992127
0.990891
0.991776
0.991778
0.991777
0.991659
0.991659
0.991823
0.99182
0.99111
0.965389
0.990624
0.989892
0.991237
0.992342
0.992342
0.992342
0.992341
0.992338
0.992341
0.992103
0.78192
0.505771
0.505679
0.50568
0.50568
0.608756
0.953102
0.992145
0.992145
0.992144
0.992144
0.992144
0.992144
0.992144
0.992144
0.93974
0.865481
0.827483
0.853254
0.976523
0.990925
0.986903
0.991241
0.992022
0.992022
0.992021
0.991853
0.982493
0.966131
0.965226
0.991919
0.989908
0.991405
0.992342
0.992342
0.992325
0.992338
0.992334
0.992294
0.986132
0.925437
0.712976
0.57872
0.532831
0.50771
0.509741
0.512688
0.899374
0.992144
0.992144
0.992144
0.992144
0.992144
0.992142
0.985393
0.856775
0.82731
0.827306
0.82731
0.827402
0.841811
0.957995
0.992022
0.992022
0.992022
0.992022
0.992022
0.974893
0.965226
0.965226
0.992324
0.992049
0.991642
0.992342
0.992341
0.99234
0.992337
0.858932
0.698624
0.965018
0.987283
0.987262
0.987299
0.987314
0.835545
0.520958
0.514638
0.640278
0.992116
0.992143
0.99214
0.991498
0.992141
0.992141
0.992137
0.981546
0.873851
0.82731
0.827308
0.834903
0.972806
0.989588
0.992022
0.992022
0.992022
0.992022
0.992018
0.979504
0.965357
0.965935
0.992326
0.992333
0.99234
0.992341
0.99234
0.99231
0.955956
0.66581
0.613151
0.882206
0.987262
0.987299
0.987314
0.987497
0.987681
0.965371
0.593797
0.570387
0.81474
0.992116
0.949729
0.946619
0.992141
0.992141
0.992141
0.99214
0.983063
0.960132
0.967619
0.990233
0.992019
0.992021
0.992022
0.992022
0.992021
0.992018
0.99194
0.98953
0.979101
0.972425
0.992328
0.992328
0.992333
0.99234
0.986625
0.886324
0.630233
0.613062
0.613061
0.613069
0.818262
0.969648
0.957809
0.980342
0.987681
0.987681
0.794068
0.570387
0.705437
0.9594
0.912345
0.925011
0.992141
0.992141
0.992141
0.992141
0.99214
0.992028
0.989928
0.989978
0.992019
0.992019
0.989109
0.969443
0.954554
0.951203
0.960706
0.902139
0.869434
0.875133
0.99229
0.992328
0.991067
0.984211
0.97749
0.821072
0.613062
0.613061
0.613061
0.613061
0.667853
0.947669
0.942043
0.941939
0.987633
0.960077
0.941324
0.615846
0.736032
0.940257
0.912162
0.946936
0.99214
0.992141
0.992141
0.991679
0.991099
0.991096
0.991367
0.991935
0.992007
0.97657
0.81759
0.737326
0.737367
0.765966
0.911628
0.860652
0.82628
0.82628
0.992321
0.992324
0.992321
0.985124
0.984504
0.963441
0.805648
0.613062
0.613061
0.613069
0.838528
0.98482
0.941941
0.951893
0.983498
0.903706
0.966065
0.914549
0.937917
0.941467
0.9174
0.987021
0.992136
0.99214
0.992134
0.992127
0.992127
0.992126
0.992119
0.978324
0.782318
0.736502
0.73674
0.736973
0.764064
0.957225
0.984385
0.986567
0.928439
0.891251
0.992319
0.992321
0.992319
0.992323
0.992291
0.992258
0.992026
0.89974
0.884894
0.958534
0.987999
0.987992
0.944202
0.98402
0.986726
0.903784
0.968841
0.969303
0.969315
0.969315
0.969315
0.942701
0.909428
0.982853
0.992127
0.992127
0.992126
0.992119
0.984575
0.808033
0.736446
0.736477
0.736505
0.755797
0.977706
0.986567
0.986567
0.986568
0.986568
0.986568
0.992314
0.992319
0.992314
0.992306
0.992301
0.992279
0.987484
0.984284
0.982117
0.985617
0.986092
0.987999
0.96583
0.986726
0.986729
0.937294
0.880933
0.969152
0.969303
0.955094
0.927335
0.884955
0.884059
0.885297
0.919836
0.959808
0.982191
0.982353
0.813966
0.736448
0.736445
0.736447
0.736466
0.825215
0.986562
0.986567
0.986567
0.986568
0.986568
0.986568
0.977494
0.992317
0.992306
0.992298
0.992276
0.992259
0.944182
0.924597
0.924597
0.924597
0.924622
0.963462
0.98672
0.986732
0.986727
0.886623
0.449038
0.779301
0.969152
0.692398
0.406687
0.71618
0.94232
0.952662
0.818525
0.745285
0.745285
0.75366
0.834856
0.73647
0.736445
0.736445
0.736444
0.783334
0.985238
0.986562
0.986562
0.986567
0.986568
0.986568
0.89429
0.933372
0.962151
0.935217
0.923005
0.960324
0.991762
0.96252
0.924736
0.932751
0.982989
0.978861
0.986694
0.98672
0.986727
0.634772
0.406384
0.406532
0.558131
0.412364
0.40606
0.406052
0.687971
0.952892
0.966692
0.955269
0.795767
0.738167
0.7367
0.736445
0.736445
0.736445
0.736445
0.818733
0.966254
0.980752
0.977156
0.986402
0.986569
0.986567
0.894232
0.894245
0.894799
0.895708
0.918377
0.988411
0.991835
0.991836
0.991836
0.991836
0.991836
0.991836
0.965598
0.984169
0.92249
0.435335
0.406089
0.406073
0.406168
0.406067
0.406051
0.406051
0.406052
0.873176
0.989976
0.989997
0.989999
0.961677
0.749599
0.736449
0.736445
0.736445
0.736445
0.877645
0.965594
0.959918
0.959891
0.9848
0.986707
0.986566
0.894233
0.894233
0.91521
0.962776
0.989086
0.991835
0.991836
0.991836
0.991836
0.991836
0.991836
0.975888
0.937509
0.959072
0.967394
0.412169
0.406072
0.406055
0.406054
0.406051
0.406051
0.406051
0.459627
0.916046
0.989922
0.989999
0.990002
0.990002
0.990002
0.822982
0.73645
0.736445
0.736445
0.90081
0.964899
0.959885
0.963933
0.98708
0.986984
0.986625
0.918523
0.957905
0.988716
0.991821
0.991835
0.991835
0.991835
0.991834
0.991821
0.991836
0.991836
0.975681
0.937509
0.953329
0.967525
0.683962
0.438641
0.406054
0.406051
0.406051
0.406051
0.487747
0.913302
0.985394
0.982906
0.984603
0.989999
0.990002
0.990002
0.990002
0.837576
0.74937
0.934755
0.955124
0.955928
0.968203
0.989249
0.988186
0.962852
0.924382
0.989968
0.9918
0.9918
0.991784
0.990507
0.991835
0.991835
0.991833
0.991821
0.991821
0.991836
0.991836
0.966777
0.887323
0.930247
0.92102
0.886848
0.760057
0.780117
0.810382
0.85603
0.951087
0.987075
0.988494
0.984722
0.987816
0.985431
0.986882
0.990002
0.98997
0.94134
0.708274
0.745611
0.917763
0.955399
0.987543
0.989258
0.982663
0.877029
0.872051
0.991807
0.991808
0.9918
0.9624
0.932337
0.9759
0.991835
0.991836
0.991836
0.991836
0.991836
0.991836
0.991836
0.887321
0.875031
0.909622
0.984607
0.987425
0.989886
0.990084
0.988536
0.988101
0.986981
0.991028
0.991305
0.991302
0.927474
0.822961
0.884795
0.854867
0.761494
0.708164
0.725937
0.926646
0.985938
0.98926
0.989259
0.963192
0.872051
0.872051
0.991808
0.991807
0.962194
0.885183
0.885183
0.927225
0.991798
0.991837
0.991837
0.991836
0.991836
0.991836
0.991836
0.890233
0.874895
0.874878
0.885283
0.969494
0.990084
0.990084
0.978356
0.960576
0.986012
0.99131
0.991312
0.981482
0.77896
0.710468
0.709238
0.708396
0.708164
0.70821
0.857899
0.977218
0.98926
0.98926
0.98926
0.970961
0.879045
0.872051
0.902067
0.886539
0.888216
0.966236
0.98504
0.964659
0.962193
0.988002
0.991836
0.991836
0.991836
0.991836
0.939461
0.874895
0.874878
0.874872
0.874873
0.874882
0.953526
0.990084
0.963658
0.960551
0.960551
0.987214
0.991332
0.991333
0.99121
0.821999
0.789511
0.708411
0.708388
0.743427
0.926184
0.98926
0.98926
0.98926
0.98926
0.98926
0.974881
0.874076
0.756083
0.861659
0.971924
0.985056
0.985039
0.897749
0.853072
0.904149
0.987635
0.991834
0.991836
0.991836
0.961268
0.874874
0.874872
0.874872
0.874871
0.874871
0.876798
0.972648
0.97219
0.960551
0.969232
0.991331
0.991333
0.991333
0.991333
0.984837
0.977461
0.906982
0.806943
0.879844
0.92589
0.980566
0.98926
0.98926
0.98926
0.98926
0.989261
0.960384
0.915106
0.87798
0.959655
0.984985
0.98505
0.936227
0.859066
0.847821
0.865178
0.979092
0.991833
0.991836
0.991832
0.929225
0.874879
0.874871
0.874871
0.874871
0.874871
0.93357
0.976061
0.98722
0.991331
0.991333
0.991333
0.991333
0.974033
0.96045
0.978936
0.978941
0.978817
0.944132
0.932835
0.985048
0.98926
0.98926
0.98926
0.98926
0.98926
0.964685
0.985473
0.975629
0.935394
0.934301
0.965622
0.970136
0.970123
0.893675
0.836018
0.835935
0.97159
0.991832
0.991832
0.991828
0.95251
0.880208
0.883551
0.932338
0.927474
0.935029
0.972963
0.991328
0.991333
0.991333
0.991333
0.980783
0.933152
0.933152
0.96139
0.978867
0.906288
0.845378
0.869924
0.973142
0.986877
0.989252
0.989256
0.989259
0.988742
0.893552
0.985469
0.98519
0.971522
0.935826
0.914174
0.919451
0.943377
0.957819
0.937712
0.791053
0.833224
0.985166
0.991828
0.991819
0.991815
0.986582
0.987458
0.987148
0.986806
0.965796
0.983091
0.991331
0.991333
0.991333
0.991333
0.971133
0.934651
0.954002
0.964049
0.8625
0.845378
0.845378
0.845378
0.845548
0.87046
0.939643
0.976759
0.989242
0.988378
0.893453
0.673785
0.665993
0.639911
0.477875
0.433797
0.433872
0.566222
0.939784
0.910748
0.788825
0.788562
0.798135
0.962318
0.991815
0.991757
0.991739
0.991703
0.980209
0.970255
0.991192
0.991329
0.991331
0.991331
0.97614
0.946941
0.972225
0.973872
0.989027
0.990788
0.990868
0.9608
0.846134
0.845478
0.84673
0.845633
0.845712
0.854965
0.962452
0.988371
0.89704
0.396318
0.538542
0.58145
0.54362
0.519407
0.696655
0.864832
0.908287
0.886952
0.788577
0.788586
0.788571
0.814482
0.901759
0.874629
0.88228
0.876744
0.876985
0.95867
0.991323
0.99133
0.99133
0.97652
0.84726
0.816384
0.816323
0.817023
0.918726
0.990867
0.990904
0.990924
0.987137
0.986421
0.990882
0.936452
0.845653
0.845672
0.896802
0.988223
0.907503
0.991618
0.991598
0.991598
0.9916
0.991603
0.991603
0.954023
0.856002
0.846999
0.826244
0.842544
0.84544
0.845316
0.842255
0.810786
0.821098
0.853391
0.930946
0.986218
0.991328
0.99133
0.99133
0.94899
0.816384
0.816323
0.816319
0.816321
0.81632
0.94147
0.990957
0.991015
0.990958
0.990915
0.9909
0.990882
0.987779
0.845712
0.900101
0.987371
0.901738
0.991631
0.991618
0.991598
0.991603
0.991603
0.991603
0.991603
0.985722
0.980606
0.982139
0.962194
0.788012
0.695935
0.695935
0.78319
0.957787
0.985369
0.991275
0.991328
0.99133
0.99133
0.99133
0.984822
0.96291
0.843292
0.816323
0.816376
0.952691
0.990957
0.991015
0.991041
0.990922
0.990918
0.99068
0.990875
0.990864
0.881355
0.911512
0.98496
0.886768
0.991618
0.991549
0.99149
0.9916
0.991603
0.991603
0.991599
0.991482
0.99135
0.991396
0.991404
0.991396
0.979482
0.704902
0.658249
0.654909
0.804608
0.990418
0.99132
0.99133
0.99133
0.99133
0.99133
0.991324
0.980618
0.965953
0.974804
0.974485
0.984662
0.991048
0.991059
0.983184
0.933562
0.965558
0.990864
0.990853
0.915096
0.966229
0.98474
0.894543
0.990334
0.959498
0.916773
0.978332
0.9916
0.991582
0.991482
0.991279
0.991228
0.99135
0.991396
0.991404
0.991331
0.864256
0.654909
0.654909
0.654909
0.656514
0.867387
0.99132
0.99133
0.99133
0.991324
0.991322
0.99132
0.991273
0.991193
0.9815
0.989015
0.991068
0.991066
0.96161
0.830407
0.890798
0.989379
0.990838
0.989846
0.990387
0.982499
0.803562
0.940799
0.763908
0.737444
0.857163
0.99154
0.982271
0.867542
0.742308
0.725342
0.810437
0.924003
0.981704
0.991033
0.974574
0.929877
0.881052
0.754062
0.76272
0.910597
0.939092
0.846571
0.710996
0.681457
0.736122
0.9414
0.991193
0.991149
0.991075
0.99107
0.991069
0.991068
0.897295
0.829472
0.89497
0.98978
0.990755
0.990574
0.990493
0.828667
0.77521
0.850576
0.737005
0.736724
0.760151
0.990551
0.831499
0.423616
0.411991
0.411958
0.411991
0.494514
0.695612
0.883794
0.954803
0.953728
0.952821
0.952664
0.951528
0.949383
0.766775
0.680337
0.680164
0.680147
0.680278
0.8703
0.990928
0.991095
0.99107
0.991069
0.991068
0.909724
0.828814
0.829664
0.959058
0.990525
0.990649
0.973737
0.925936
0.77521
0.775204
0.88427
0.736874
0.737002
0.738107
0.889509
0.698664
0.412888
0.411946
0.411991
0.412045
0.41205
0.412566
0.787836
0.979616
0.965632
0.887138
0.859741
0.865641
0.719437
0.680337
0.680164
0.680152
0.680164
0.73182
0.971687
0.991007
0.991054
0.991061
0.986748
0.850026
0.828814
0.829096
0.930625
0.979075
0.968076
0.964881
0.950779
0.935685
0.775204
0.775204
0.955707
0.82367
0.73728
0.737666
0.742659
0.802734
0.756728
0.436954
0.41221
0.41205
0.412624
0.414827
0.840638
0.986414
0.986873
0.920635
0.82243
0.82243
0.845381
0.838523
0.802775
0.734148
0.768529
0.926861
0.979343
0.98004
0.908628
0.835373
0.830557
0.830583
0.843353
0.91641
0.950085
0.954587
0.953221
0.953308
0.978497
0.976977
0.8926
0.775204
0.893301
0.891418
0.802218
0.738051
0.739725
0.772523
0.872892
0.881371
0.666136
0.452839
0.414026
0.443627
0.860721
0.986873
0.986967
0.987254
0.980214
0.908547
0.907778
0.978417
0.984636
0.964653
0.922575
0.925164
0.926896
0.89936
0.89936
0.908218
0.934587
0.951845
0.976737
0.963985
0.950994
0.957261
0.953308
0.982054
0.983461
0.983461
0.983275
0.936824
0.605533
0.818843
0.817316
0.766143
0.741879
0.745048
0.788312
0.885255
0.887876
0.892798
0.72351
0.643232
0.847474
0.965394
0.985095
0.987551
0.987629
0.987627
0.987629
0.987627
0.98704
0.933491
0.921479
0.924958
0.979369
0.986837
0.982374
0.988148
0.988108
0.987355
0.986716
0.982924
0.980977
0.983454
0.98198
0.983461
0.983461
0.983461
0.983461
0.983454
0.551687
0.694963
0.75018
0.842501
0.809249
0.799653
0.789895
0.797457
0.855577
0.897337
0.910399
0.911323
0.910873
0.902268
0.923323
0.971413
0.981213
0.987629
0.987627
0.987556
0.947681
0.933174
0.944883
0.98827
0.988269
0.988235
0.988202
0.988175
0.988148
0.986779
0.971792
0.983436
0.983454
0.983457
0.983461
0.983461
0.983461
0.983461
0.983461
0.983461
0.967241
0.967493
0.948359
0.881279
0.905148
0.948488
0.88952
0.853786
0.758498
0.747693
0.746378
0.802341
0.871495
0.919353
0.944852
0.931173
0.931178
0.969939
0.987569
0.966709
0.932527
0.936796
0.98827
0.98827
0.98827
0.988269
0.983726
0.938358
0.937415
0.954078
0.947759
0.952792
0.958714
0.972517
0.983461
0.983461
0.983461
0.983461
0.983461
0.983461
0.967498
0.9675
0.967491
0.967428
0.964526
0.957603
0.879088
0.77353
0.854918
0.856702
0.634214
0.597129
0.597276
0.679586
0.927076
0.968707
0.940773
0.871551
0.928558
0.973069
0.953872
0.938143
0.988263
0.98827
0.98826
0.971832
0.935254
0.87798
0.796172
0.711585
0.647144
0.529637
0.484199
0.482905
0.482194
0.497377
0.677322
0.742088
0.821018
0.851776
0.967501
0.967501
0.967503
0.945703
0.805276
0.848621
0.858717
0.689492
0.766128
0.928679
0.930003
0.710554
0.596389
0.596435
0.636353
0.962871
0.880926
0.871621
0.880128
0.973227
0.975545
0.938163
0.986424
0.988261
0.987455
0.683932
0.383911
0.38166
0.384457
0.387733
0.390685
0.594276
0.810799
0.623022
0.445928
0.428618
0.428412
0.428412
0.428412
0.429839
0.967585
0.967505
0.967468
0.605662
0.149063
0.233779
0.670794
0.697303
0.586499
0.817256
0.93241
0.932501
0.692274
0.59634
0.597172
0.864712
0.609367
0.904181
0.912124
0.968095
0.977443
0.938359
0.987885
0.988139
0.98802
0.878696
0.40809
0.38166
0.38166
0.513832
0.960644
0.960638
0.960653
0.960632
0.960303
0.952407
0.690324
0.532594
0.501196
0.507355
0.967393
0.96746
0.931331
0.27668
0.133512
0.131883
0.199522
0.556576
0.54037
0.66415
0.931617
0.933218
0.924503
0.61238
0.629437
0.760541
0.598224
0.715614
0.958218
0.958551
0.978787
0.944895
0.978508
0.988183
0.988366
0.936935
0.723385
0.680792
0.863778
0.948471
0.960634
0.960655
0.960632
0.932784
0.809764
0.835567
0.94756
0.96035
0.962546
0.963013
0.962691
0.96718
0.902034
0.272446
0.131878
0.130661
0.1303
0.199046
0.430561
0.559751
0.849023
0.933934
0.933868
0.82213
0.695249
0.863308
0.767662
0.53868
0.792277
0.94728
0.978787
0.978599
0.959973
0.977367
0.988479
0.988595
0.988044
0.906763
0.683336
0.672032
0.816669
0.96057
0.95955
0.84817
0.628697
0.628697
0.628697
0.830466
0.881305
0.963179
0.929869
0.965892
0.832488
0.222489
0.13066
0.130165
0.130135
0.130291
0.165871
0.341518
0.605329
0.929855
0.935018
0.935046
0.778882
0.863712
0.909293
0.539241
0.53868
0.828883
0.978787
0.978744
0.961246
0.955583
0.970297
0.988595
0.988595
0.965946
0.707513
0.672032
0.672032
0.815061
0.955236
0.951595
0.875489
0.657491
0.629682
0.631222
0.683978
0.963179
0.962408
0.962801
0.531314
0.130936
0.130164
0.130122
0.130098
0.130135
0.130072
0.130421
0.138946
0.621543
0.935046
0.935046
0.867614
0.847939
0.93194
0.929711
0.62904
0.691695
0.971226
0.978682
0.978035
0.955304
0.955055
0.96104
0.988102
0.989098
0.97612
0.836721
0.682678
0.658768
0.754381
0.8675
0.961699
0.961699
0.88597
0.631701
0.913567
0.963179
0.983455
0.933086
0.356192
0.130337
0.130122
0.130098
0.130098
0.130098
0.130135
0.129816
0.130278
0.130391
0.436824
0.929014
0.943829
0.944802
0.945368
0.94538
0.903026
0.700677
0.873016
0.978532
0.978327
0.968194
0.954964
0.954985
0.974907
0.989528
0.989624
0.989609
0.960013
0.446786
0.212979
0.25171
0.67924
0.959038
0.970331
0.926525
0.973064
0.961564
0.984075
0.927945
0.702722
0.164814
0.130386
0.130122
0.130098
0.130135
0.130266
0.130357
0.130289
0.130345
0.130845
0.632733
0.944489
0.945343
0.945378
0.945376
0.945381
0.901906
0.833852
0.839555
0.970003
0.969029
0.963948
0.964743
0.986542
0.989625
0.989629
0.989624
0.822243
0.246982
0.211665
0.211604
0.211603
0.594544
0.967116
0.973065
0.973053
0.732989
0.984088
0.984075
0.978545
0.640025
0.202826
0.130406
0.130151
0.130233
0.13034
0.130354
0.130322
0.130347
0.130376
0.253351
0.742517
0.704174
0.624188
0.858499
0.945317
0.944106
0.844527
0.782059
0.791152
0.942333
0.988576
0.989543
0.989625
0.98963
0.989627
0.891012
0.314243
0.211752
0.211607
0.211602
0.211604
0.313768
0.904457
0.973053
0.973064
0.610442
0.984086
0.984088
0.984085
0.984062
0.821308
0.335716
0.130997
0.130416
0.13028
0.130321
0.130346
0.130344
0.130348
0.130377
0.170067
0.182923
0.197392
0.320243
0.881779
0.943383
0.83751
0.781122
0.781077
0.880035
0.989543
0.989625
0.98963
0.989628
0.944939
0.373109
0.211775
0.211613
0.211607
0.211604
0.211603
0.312489
0.897533
0.972997
0.973053
0.601457
0.984085
0.984085
0.984087
0.984084
0.984084
0.984082
0.645139
0.308306
0.170711
0.130591
0.130331
0.130346
0.130346
0.130362
0.17302
0.229242
0.385627
0.747591
0.944437
0.937452
0.783123
0.781076
0.781122
0.930702
0.989604
0.989627
0.989625
0.945557
0.402651
0.21176
0.211631
0.211626
0.211613
0.211607
0.211624
0.634218
0.970981
0.972177
0.972997
0.59631
0.984083
0.984088
0.984084
0.984084
0.984083
0.984084
0.984081
0.984036
0.95942
0.80391
0.673092
0.599533
0.580331
0.705334
0.783375
0.819785
0.906208
0.946427
0.946054
0.893168
0.783238
0.865766
0.936168
0.98955
0.989605
0.989604
0.856736
0.343878
0.211804
0.211639
0.211636
0.211632
0.211633
0.285345
0.734647
0.940171
0.947849
0.942845
0.906209
0.427925
0.984146
0.984082
0.984084
0.984083
0.984084
0.984084
0.984084
0.984079
0.984034
0.983698
0.967469
0.899982
0.683382
0.442898
0.430691
0.629974
0.920113
0.946506
0.946427
0.917699
0.783395
0.929043
0.960493
0.954903
0.883606
0.665291
0.267292
0.211851
0.211734
0.211749
0.211639
0.280206
0.867441
0.903342
0.896041
0.792082
0.561379
0.395151
0.541407
0.695674
0.968202
0.983987
0.984027
0.98408
0.98408
0.984084
0.984079
0.983814
0.958481
0.947958
0.854077
0.452315
0.422442
0.4224
0.42259
0.575164
0.946506
0.946511
0.946506
0.946267
0.811845
0.624284
0.688902
0.781103
0.656582
0.26536
0.21264
0.212144
0.211851
0.457135
0.90511
0.948975
0.948975
0.84527
0.315585
0.219195
0.219186
0.219139
0.32798
0.738402
0.622901
0.902207
0.96653
0.983663
0.98401
0.984069
0.984013
0.975837
0.802544
0.725394
0.877894
0.814795
0.452156
0.422532
0.422662
0.478222
0.923693
0.946506
0.946511
0.946365
0.854577
0.558705
0.526743
0.688482
0.783397
0.728751
0.74543
0.716831
0.831145
0.953967
0.953967
0.94819
0.528391
0.219157
0.219168
0.219173
0.219111
0.219074
0.219226
0.739157
0.166349
0.268369
0.386546
0.671899
0.930107
0.983778
0.98344
0.930143
0.713742
0.71201
0.766527
0.87684
0.87684
0.719599
0.425188
0.425605
0.631085
0.946506
0.946365
0.790706
0.527077
0.52676
0.526329
0.526289
0.778013
0.834568
0.834564
0.795822
0.914858
0.905309
0.699951
0.219164
0.219123
0.219156
0.219157
0.219112
0.219073
0.219074
0.488074
0.91951
0.0121615
0.000865208
0.000875018
0.00103826
0.311931
0.743165
0.961721
0.944792
0.802485
0.711925
0.711925
0.711927
0.711942
0.721253
0.762451
0.704808
0.710116
0.898933
0.943794
0.859905
0.615688
0.559188