/*--------------------------------*- C++ -*----------------------------------*\
  =========                 |
  \\      /  F ield         | OpenFOAM: The Open Source CFD Toolbox
   \\    /   O peration     | Website:  https://openfoam.org
    \\  /    A nd           | Version:  8
     \\/     M anipulation  |
\*---------------------------------------------------------------------------*/
FoamFile
{
    version     2.0;
    format      ascii;
    class       volScalarField;
    location    "4.75";
    object      p_rgh;
}
// * * * * * * * * * * * * * * * * * * * * * * * * * * * * * * * * * * * * * //

dimensions      [1 -1 -2 0 0 0 0];

internalField   nonuniform List<scalar> 
9150
(
1962.7
1961.66
1961.09
1960.61
1960.37
1960.37
1960.59
1961.08
1961.66
1962.7
1962.28
1961.74
1961.33
1961
1960.83
1960.83
1961
1961.33
1961.73
1962.28
1962
1961.7
1961.45
1961.23
1961.12
1961.12
1961.23
1961.45
1961.7
1962
1961.88
1961.69
1961.52
1961.37
1961.28
1961.28
1961.36
1961.52
1961.69
1961.88
1961.88
1961.68
1961.55
1961.42
1961.36
1961.36
1961.42
1961.55
1961.68
1961.88
1951.26
1950.21
1950.33
1950.75
1950.9
1950.9
1950.76
1950.3
1950.2
1951.25
1954.96
1954.28
1954.08
1954
1954.11
1954.12
1954.03
1954.11
1954.3
1954.98
1958.07
1957.32
1957.04
1956.68
1956.62
1956.63
1956.66
1957.05
1957.3
1958.05
1960.79
1959.66
1959.28
1958.6
1958.45
1958.44
1958.58
1959.25
1959.62
1960.76
1963.57
1961.36
1960.65
1959.88
1959.64
1959.64
1959.91
1960.66
1961.36
1963.58
1945.91
1944.81
1942.85
1941.9
1941.35
1941.25
1941.75
1942.7
1944.46
1945.12
1945.34
1945.23
1944.19
1943.87
1943.43
1943.42
1943.87
1944.05
1944.91
1944.96
1945.13
1945.23
1944.16
1944.62
1944.07
1943.96
1944.5
1943.93
1945.02
1944.86
1941.91
1944.66
1943.44
1945.09
1944.82
1944.72
1945.1
1943.31
1944.57
1941.8
1934.7
1945.16
1945.23
1946.99
1947.29
1947.27
1946.99
1945.16
1945.1
1934.58
940.56
940.523
940.584
940.392
940.36
940.53
940.364
939.861
939.267
938.349
938.828
939.887
940.209
940.385
939.547
939.525
939.373
939.749
939.134
937.302
935.545
937.96
938.931
939.682
938.404
938.389
937.442
938.03
936.69
934.098
931.618
934.978
936.434
937.227
937.409
936.218
934.879
934.143
932.365
929.47
925.253
927.752
931.527
932.947
933.713
931.56
930.72
929.904
927.421
924.901
917.955
921.25
925.054
926.848
927.769
927.642
925.811
925.445
923.246
920.74
913.413
916.506
919.202
921.122
922.272
922.75
920.657
919.719
919.168
916.24
911.941
914.155
916.077
917.764
919.035
919.435
918.685
916.932
916.006
914.483
911.841
913.705
915.388
917.026
918.294
918.771
918.596
916.366
917.127
915.665
911.926
913.968
915.97
917.795
919.204
920.259
920.67
919.801
916.926
918.836
913.816
916.101
918.569
920.719
922.347
923.485
923.892
923.924
919.358
911.25
917.981
920.39
922.907
924.939
926.542
927.278
927.297
927.432
917.833
906.999
917.662
923.325
926.829
928.493
929.732
929.918
929.487
925.985
906.507
908.669
920.321
922.563
929.341
930.47
931.383
931.705
931.191
912.328
908.807
911.069
921.358
927.387
929.706
930.599
931.569
932.589
933.675
922.717
912.341
914.525
926.501
928.774
929.223
930.094
931.145
932.483
933.87
935.047
934.492
936.079
927.972
928.07
928.625
929.393
930.692
932.515
934.106
935.754
937.215
937.755
925.776
916.584
898.992
875.043
863.907
889.569
930.402
936.067
937.778
939.106
851.228
845.036
845.487
846.787
848.132
848.65
857.099
894.101
907.69
911.686
886.348
868.116
853.537
843.717
845.747
847.725
850.174
852.589
855.195
859.269
920.305
923.984
922.42
909.649
893.552
875.028
861.598
853.875
873.999
915.269
917.171
923.586
929.23
934.596
939.71
943.837
943.918
941.481
950.292
956.807
875.846
894.988
914.099
925.058
929.75
936.744
948.141
955.33
960.717
964.812
771.694
689.553
649.897
653.963
672.211
697.008
734.153
782.699
810.984
834.31
586.844
597.447
605.171
610.675
616.382
622.233
629.108
636.668
645.659
657.408
630.991
586.663
596.514
603.798
609.597
658.274
723.081
782.136
873.976
959.571
959.011
872.183
684.142
678.17
903.312
978.516
979.257
979.079
979.546
980.92
950.175
949.744
953.649
958.447
963.516
969.246
973.769
976.354
977.035
976.566
937.841
938.483
940.081
944.681
950.489
955.573
959.992
962.888
963.444
960.824
918.54
917.769
919.431
923.085
926.273
931.323
936.816
940.604
941.575
939.366
892.148
865.304
856.032
864.587
883.336
895.272
902.994
911.282
917.789
919.894
772.062
488.661
428.927
455.119
551.412
673.78
801.345
878.567
899.6
905.472
456.856
272.773
272.283
271.619
271.785
272.691
340.168
566.249
784.909
891.343
332.498
282.565
273.944
270.869
270.436
270.378
270.157
270.351
323.417
651.333
353.374
299.247
271.009
270.337
269.519
268.66
267.965
267.227
266.339
290.638
503.46
436.567
285.043
268.308
267.03
265.877
264.635
263.865
261.988
348.573
482.064
563.753
607.27
501.68
280.213
263.947
263.256
262.807
324.729
696.543
688.197
671.599
613.792
564.577
472.312
313.173
303.44
430.577
797.943
918.592
905.351
906.918
861.432
801.052
758.45
684.468
779.924
925.433
910.91
889.776
905.122
909.485
911.491
876.026
900.675
945.616
934.266
918.551
894.804
873.35
766.909
853.586
852.79
861.949
942.976
973.746
959.712
938.898
906.612
884.374
558.124
827.12
993.104
1014.59
1030.82
1032.1
1019.52
995.866
959.996
877.786
959.005
1002.59
1025.1
1052.45
1097.49
1101.6
1084.15
1044.86
947.539
888.464
1007.05
1019.19
1036.65
1060.74
1094.53
1094.98
1066.68
967.513
909.808
887.292
1009.01
1009.91
1010.19
1012.4
1021.81
1000.06
919.803
900.913
885.095
941.239
1005.86
1002.45
997.152
996.598
954.661
650.952
771.835
884.326
960.613
977.258
1005.83
1002.84
998.381
1008.13
714.792
558.306
860.549
981.942
983.786
982.514
1008.01
1002.25
994.4
977.383
540.016
550.929
972.075
1004.32
999.779
995.344
1013.71
1004.96
994.914
857.111
528.147
568.45
979.759
1015.67
1011.11
1007.81
1022.28
1012.73
1004.37
627.648
516.392
768.3
917.34
1018.04
1016.14
1014.7
1025.31
1018.31
1012.31
462.76
591.441
832.975
705.584
1018.64
1016.87
1018.94
1013.24
966.303
1004.36
370.207
816.377
840.066
395.018
851.94
741.997
867.263
556.746
275.217
591.328
199.743
839.816
840.563
186.808
158.507
80.8744
229.439
6.28933
6.5349
9.11491
117.037
854.296
842.367
90.057
4.6232
3.84631
10.9881
6.13001
6.20169
6.90122
89.7215
869.028
863.8
64.9141
6.50301
2.06561
7.07461
6.11643
6.66054
58.3379
88.2779
882.169
892.974
74.1697
28.3223
1.19808
3.37663
25.642
41.6127
210.657
114.088
884.124
919.809
88.2668
30.0818
0.809542
0.810526
227.169
258.797
254.541
130.081
893.869
944.341
90.8394
27.8031
0.770412
0.746227
273.981
267.883
219.706
116.088
914.738
948.635
76.3292
38.0665
0.776679
0.72804
48.7594
55.641
40.4953
79.9792
934.456
962.995
57.6595
20.7497
0.77929
0.685998
-0.216645
-0.184568
5.54757
60.6513
965.23
980.823
47.6984
0.564665
0.647083
0.681471
-0.00705934
-0.0683002
-0.0105515
57.9703
1006.54
1005.78
48.1923
0.453653
0.424706
0.452817
0.679744
0.196427
-0.104516
77.2494
1034.2
1036.45
75.0373
0.455437
0.448519
0.441708
0.677149
0.245109
-0.136712
93.2943
1053.01
1054.85
93.0726
0.459784
0.457807
0.447199
0.524233
-0.0766358
-0.173821
104.144
1087.77
1053.55
101.102
0.483698
0.664649
0.441494
0.942488
0.0381926
-0.0485905
106.521
1084.52
1088.14
105.791
0.396034
0.985311
0.396321
1.61475
0.845979
0.0565465
105.22
1094.37
1102.61
95.0178
0.343616
0.95786
0.356903
1.66387
1.1791
0.120842
97.3983
1097.06
1117.3
80.3273
0.302585
0.864724
0.32945
1.68548
0.342177
0.135812
92.6092
1091.44
1151.07
73.8854
0.263867
0.841028
0.976622
1.27816
0.137426
0.0630135
94.309
1131.47
1144.98
71.2979
0.302587
0.375023
0.777051
0.840427
0.0652802
0.0196818
103.876
1172.53
1192.88
79.4418
0.264473
0.264569
0.252101
0.153171
0.0113345
-0.015115
130.859
1228.83
1251.83
119.274
0.234021
0.229319
0.226439
-0.047902
-0.0338581
-0.0479327
186.473
1287.68
1299.82
168.562
0.215875
0.211312
0.210486
-0.0575655
-0.0562692
-0.0625736
235.563
1326.41
1347.72
218.287
0.195993
0.194594
0.194986
-0.0782244
-0.0814848
-0.102684
267.973
1358.09
1377.84
251.329
0.184124
0.184383
0.184446
-0.0874488
-0.0922144
2.92569
281.054
1383.89
1396.86
267.471
0.176723
0.177107
0.176189
-0.0810852
-0.080995
27.131
284.392
1405.77
1414.51
272.444
0.168879
0.228112
0.166134
-0.0089516
0.0818305
48.8131
282.62
1424.86
1436.72
272.736
0.153509
0.261633
0.154958
0.00826199
1.09337
67.2344
282.53
1450.82
1456.01
276.894
0.149052
0.25367
0.241389
4.52863
7.12709
-0.0395158
287.521
1480.96
1478.76
289.608
0.143275
0.2458
0.319441
6.923
6.69023
0.353708
331.73
1511.05
1512.42
331.995
0.129862
0.238201
0.307293
6.93078
6.2008
0.408576
386.96
1547.06
1548.77
388.518
0.11519
0.205827
0.295729
0.717471
1.3408
0.0434407
450.772
1579.32
1583.62
452.599
0.104499
0.171423
0.289942
-0.0559608
-0.0524151
-0.0633866
509.401
1610.49
1613.08
511.085
0.0981521
0.132633
0.287882
-0.0638948
-0.0572182
-0.0689775
567.626
1639.16
1640.29
567.763
0.0938783
0.102545
0.150024
-0.0667748
-0.0435462
-0.0698555
625.773
1665.82
1666.46
625.746
0.0910731
0.0919429
0.0901854
-0.0623489
-0.00260312
-0.0671354
694.921
1692.97
1690.78
693.698
0.0906941
0.0902571
0.087321
0.0441563
0.0255178
-0.061858
785.942
1719.87
1713.54
782.008
0.0892853
0.0874765
0.0830887
0.14714
0.0623861
-0.0534121
903.412
1743.26
1736.8
899.673
0.0826651
0.0819458
0.0928232
0.116486
-0.0387488
-0.0480228
1043.61
1762.87
1758.73
1042.22
0.070121
0.0714383
0.121131
0.00239604
-0.0417155
-0.0484975
1197.27
1779.95
1780.14
1197.85
0.0544636
0.060131
0.134171
-0.0105598
-0.0509041
-0.0442189
1352.08
1798.08
1799.4
1353.4
0.0622187
0.0515678
0.106499
-0.00419609
-0.0627712
52.7048
1492.07
1818.35
1816.43
1491.71
56.3797
0.047398
0.0574732
0.327239
-0.04069
187.81
1620.84
1835.71
1836.36
1620.18
202.991
0.0390825
0.03855
0.556808
0.000325647
341.645
1719.58
1853.98
1855.23
1769.83
450.782
0.0324985
0.0320344
0.426509
0.0155824
679.604
1827.6
1873.39
1873.86
1853.56
804.478
0.0181826
0.0237366
0.346849
0.124599
1182.85
1892.21
1892.8
1892.5
1891.1
1260.4
0.0576317
0.0242557
0.178817
73.8274
1561.8
1909.53
1911.18
1911.7
1911.19
1745.23
313.519
0.00487138
-0.0105768
995.343
1917.89
1926.66
1926.68
1926.79
1926.8
1926.74
1240.86
0.0229738
607.631
1868.42
1939.47
1937.31
1936.28
1936.22
1936.92
1938.76
1899.1
735.912
936.598
934.233
930.816
926.295
921.276
915.831
910.514
906.932
905.933
906.541
906.319
903.821
901.892
903.807
910.52
917.889
922.108
922.253
920.031
917.401
917.851
917.521
917.262
917.371
918.044
919.762
920.777
921.031
921.692
922.433
923.397
924.666
926.187
927.465
928.082
928.247
928.014
927.608
927.778
928.023
934.532
931.116
926.917
922.182
916.707
910.956
905.917
902.514
901.862
903.405
900.546
901.185
901.357
900.697
900.732
901.553
911.987
914.885
915.304
915.283
915.927
915.9
915.479
915.301
915.703
915.765
916.277
917.439
917.376
920.992
922.114
922.923
924.483
925.822
926.668
927.008
926.867
926.466
926.395
926.864
930.734
926.71
921.302
914.813
908.698
903.128
898.22
893.912
892.447
894.889
897.528
897.588
897.058
897.247
897.43
897.123
896.559
911.838
916.783
917.393
917.687
917.61
917.356
917.178
917.521
914.237
915.119
916.074
916.76
917.298
917.755
921.844
924.508
925.513
926.273
926.842
927.137
926.82
927.231
927.604
925.607
920.55
914.851
908.753
902.471
896.788
891.669
880.108
875.463
884.181
894.944
903.381
911.771
919.618
910.635
892.413
892.599
894.044
918.69
918.906
918.828
918.756
918.921
919.332
920.286
921.168
916.001
915
915.879
916.795
923.781
925.009
925.54
926.112
926.805
927.54
928.365
928.259
927.952
928.429
921.078
916.24
910.399
904.44
898.956
894.694
888.113
861.782
857.708
869.448
888.162
898.21
907.279
915.473
922.618
925.824
893.127
893.529
901.695
919.821
916.11
916.541
919.353
919.998
920.676
921.718
922.024
921.275
922.595
924.946
925.18
925.243
925.417
926.074
927.118
928.678
930.167
931.077
930.904
930.598
916.915
912.318
906.626
900.027
893.267
878.572
852.337
848.689
847.517
845.052
870.512
893.716
900.2
910.566
918.952
924.982
903.778
893.167
896.049
920.195
914.08
915.045
921.221
921.08
921.274
921.791
922.309
922.773
922.934
923.296
923.66
923.448
923.075
921.265
921.182
924.564
928.011
923.479
922.283
922.968
912.996
908.879
903.664
897.47
892.352
871.175
849.365
845.297
846.752
847.381
855.72
894.555
899.579
906.604
920.788
922.251
920.678
893.648
899.649
917.592
913.558
916.361
921.78
921.503
921.433
921.516
921.599
921.748
921.894
922.098
922.34
920.342
899.717
893.673
897.382
901.847
921.223
916.285
915.88
917.542
911.741
908.521
905.359
901.242
898.873
894.996
873.222
846.793
847.082
849.174
880.663
904.694
903.628
911.647
924.316
922.762
931.213
920.986
921.151
918.187
913.359
921.619
921.201
920.63
920.937
921.051
921.143
921.042
920.449
917.674
889.231
882.565
882.79
883.549
889.521
919.129
927.333
930.784
923.226
919.647
913.886
912.179
910.63
908.869
907.463
906.55
905.971
891.199
888.977
901.481
908.686
911.314
909.457
921.184
928.041
927.61
939.629
932.421
927.724
922.733
918.363
910.9
906.202
916.716
919.221
919.854
920.366
920.37
918.51
888.58
875.658
874.433
873.54
876.335
916.166
920.425
923.456
925.946
927.564
928.281
917.978
917.353
916.804
915.948
915.061
914.535
913.453
912.314
911.925
913.24
913.912
915.843
914.304
921.655
925.721
921.877
914.706
922.01
915.625
907.544
896.813
891.107
893.605
895.779
904.422
914.574
919.765
920.651
886.86
872.174
870.143
866.937
865.527
882.221
914.52
917.372
920.125
922.546
924.347
925.312
919.317
922.631
922.613
922.329
921.906
921.616
911.365
907.948
907.974
907.548
907.266
914.052
919.128
918.979
917.723
893.673
822.83
871.12
916.029
847.316
794.319
842.198
896.178
907.429
880.737
875.611
877.624
878.724
898.147
870.825
866.961
862.058
859.715
870.034
913.143
917.295
920.315
923.099
924.368
925.517
907.361
914.798
922.207
916.158
914.362
920.663
928.6
920.788
913.462
913.685
922.588
920.499
921.323
919.741
915.842
831.268
786.606
784.94
816.663
779.609
778.134
776.106
842.629
907.618
917.096
918.499
887.137
875.938
874.358
871.486
867.334
862.795
859.75
879.312
914.392
920.47
921.472
925.15
926.312
927.531
910.619
911.652
912.567
913.027
917.794
933.662
934.511
934.038
932.695
931.275
929.686
928.334
920.83
924.916
905.547
784.548
780.287
781.296
781.615
781.107
780.768
780.025
780.307
892.443
927.08
930.818
934.443
928.849
876.448
870.973
868.402
865.86
864.153
897.644
920.366
920.446
921.849
928.694
930.157
930.911
912.934
914.347
919.835
932.126
939.323
939.947
939.635
938.58
936.936
935.289
933.761
928.447
919.777
925.132
926.344
781.143
781.992
782.323
783.605
784.158
783.996
783.201
796.652
912.301
933.619
935.303
936.465
937.16
937.52
892.258
868.224
867.626
866.416
908.656
926.458
926.198
927.588
934.086
934.716
934.926
919.492
931.22
940.26
941.31
941.406
941.492
941.163
940.377
939.391
938.455
937.662
932.65
924.293
930.169
934.698
855.341
791.096
784.059
784.851
785.535
785.83
806.561
922.792
940.233
938.418
938.166
939.079
938.795
938.816
939.85
895.358
875.279
923.355
931.174
931.408
934.931
940.721
938.799
930.663
920.939
937.812
938.996
939.414
939.302
938.713
940.029
940.726
941.063
941.198
941.213
941.18
941.146
934.441
914.432
926.672
925.497
916.57
880.817
889.471
898.907
911.422
938.92
948.244
946.403
942.815
941.434
938.303
937.631
938.835
940.493
926.659
866.128
879.323
926.75
936.487
945.155
944.4
940.401
907.819
906.7
938.611
938.813
938.651
928.609
919.567
933.3
940.554
942.07
943.022
943.788
944.501
945.248
946.276
913.605
911.127
921.292
949.942
952.231
953.235
953.383
952.387
951.538
950.137
950.212
948.321
944.794
920.017
888.532
908.599
898.356
867.952
857.223
864.477
927.65
947.082
948.125
947.267
936.934
906.489
907.126
940.341
941.113
931.626
907.549
908.304
919.692
943.537
944.935
946.029
946.835
947.629
948.51
949.521
914.72
910.179
910.074
913.451
944.478
953.026
953.449
948.694
943.182
950.571
952.144
951.118
945.783
876.598
854.828
854.762
853.712
853.538
853.252
903.938
945.015
949.21
949.331
948.737
941.607
911.124
909.491
909.727
906.984
909.499
938.305
946.469
937.357
936.369
946.628
949.054
949.859
950.453
950.88
932.55
910.068
910.323
910.387
910.355
910.3
938.772
953.816
943.309
942.585
942.533
951.706
953.106
952.668
952.408
892.302
880.816
853.044
853.12
863.629
927.95
950.591
949.817
949.373
949.147
949.287
944.879
911.346
860.634
898.85
941.492
948.934
949.037
915.46
902.414
918.747
951.029
953.581
954.158
954.212
942.519
910.684
910.797
910.795
910.741
910.657
911.345
947.356
947.367
943.086
946.27
954.367
954.511
954.653
954.214
951.209
948.58
920.766
884.587
909.339
925.742
946.058
948.504
948.055
948.082
948.674
949.439
939.071
920.152
906.612
936.677
948.499
949.361
929.882
901.979
899.788
906.423
952.701
958.269
958.382
958.21
933.208
911.404
911.263
911.01
910.91
910.885
932.659
949.412
953.777
955.24
954.979
954.678
954.547
947.708
942.121
950.01
950.045
950.103
932.561
926.459
944.741
946.534
946.293
946.929
948.192
949.558
940.536
958.084
952.663
931.287
928.647
940.647
944.185
946.486
915.176
897.489
898.299
954.636
962.169
961.307
960.662
943.566
914.117
914.523
933.61
931.359
934.192
948.786
956.413
956.278
955.968
955.296
950.462
931.441
931.301
941.943
950.343
917.643
893.001
899.682
939.942
945.54
947.035
948.227
950.023
951.988
916.351
967.743
969.397
960.567
940.12
927.264
929.081
941.412
949.693
939.286
881.54
896.268
961.547
963.172
962.509
961.96
958.585
958.333
957.738
956.77
947.345
953.971
957.501
957.559
957.276
956.462
946.179
931.002
940.074
944.746
900.969
894.063
894.086
892.728
891.213
900.319
930.45
948.172
955.887
957.191
919.244
843.142
841.589
827.471
754.001
734.632
733.058
783.774
948.514
932.148
871.41
873.066
875.633
949.831
963.29
962.121
961.034
959.733
953.53
948.796
958.094
957.844
957.598
957.463
950.012
935.783
946.292
947.302
955.325
957.198
958.641
946.209
896.414
895.916
896.054
895.286
895.457
900.343
950.323
966.084
923.492
710.935
777.608
798.56
780.923
769.098
846.031
918.901
937.265
921.051
871.896
871
869.227
878.174
920.067
904.617
907.492
904.935
905.275
941.964
957.579
957.77
957.764
950.304
889.816
875.477
874.882
874.392
921.371
956.76
959.087
961.952
963.025
963.885
966.615
939.759
898.789
900.631
924.067
974.975
934.547
990.472
992.282
994.297
994.492
993.844
990.939
967.041
915.519
909.519
897.038
901.763
900.227
896.125
888.955
872.14
875.89
890.909
927.495
954.557
957.601
958.172
958.461
937.571
874.242
874.278
873.961
873.815
874.406
936.443
962.663
964.523
966.311
967.784
969.067
970.292
970.05
907.232
932.585
981.831
937.51
982.367
982.619
982.356
981.802
980.615
978.042
975.125
969.531
965.169
964.825
951.957
858.365
809.375
810.077
849.439
941.39
955.514
958.423
958.775
959.434
959.661
959.618
956.401
946.432
886.282
874.337
874.601
943.624
963.99
965.031
966.456
968.036
969.675
971.09
973.383
975.949
926.184
942.042
984.942
932.865
974.779
971.598
968.56
966.682
965.989
963.646
960.426
957.959
956.3
955.808
955.767
955.384
948.342
799.258
778.342
777.153
854.848
957.365
958.43
959.068
959.546
959.348
959.352
960.297
955.635
948.852
954.943
956.035
962.407
967.42
968.795
966.103
942.646
959.891
976.19
978.27
942.944
970.763
982.938
935.383
954.539
931.6
908.287
942.782
950.884
948.361
942.109
940.684
941.021
943.067
945.648
947.451
947.804
879.958
772.552
775.587
775.616
775.324
887.727
960.103
960.305
957.582
954.965
954.947
958.139
961.302
963.944
961.106
966.799
969.962
972.267
957.819
893.375
924.573
979.416
981.509
982.29
983.372
978.466
883.583
906.203
805.364
795.146
861.443
942.037
930.042
857.53
789.13
783.844
835.456
904.662
941.7
949.518
943.836
923.129
895.937
824.776
828.913
912.434
931.063
874.09
797.812
781.686
809.958
926.618
960.079
964.4
967.718
970.511
973.016
976.036
924.231
892.392
927.33
982.776
984.273
984.739
984.535
890.638
862.253
839.73
778.307
783.447
798.82
952.752
845.354
608.612
603.808
606.087
607.382
657.162
778.357
890.696
936.086
937.857
937.542
936.672
936.213
933.25
826.948
777.895
778.86
779.389
780.042
891.8
965.824
968.476
970.848
973.403
975.818
928.083
886.492
888.814
966.512
986.573
987.097
975.833
947.6
858.776
859.574
852.856
773.091
779.545
784.829
892.19
772.822
606.921
608.975
611.03
612.627
614.313
615.583
842.65
961.129
953.283
901.028
883.499
886.399
797.052
776.104
777.505
779.198
779.722
811.173
957.542
970.053
971.173
973.533
972.929
891.082
882.323
884.345
948.783
980.303
972.794
971.405
962.757
954.378
857.245
857.925
897.266
824.167
781.136
791.996
804.139
851.958
826.101
629.375
616.739
617.749
618.823
619.817
886.49
977.921
977.218
929.455
867.512
864.834
874.106
868.568
848.785
809.644
831.255
928.935
962.914
963.044
918.597
877.663
879.13
880.857
890.19
937.462
959.894
963.648
963.239
964.261
981.085
980.65
927.92
857.276
845.638
869.689
826.653
802.423
817.191
846.001
923.342
930.497
786.008
649.276
626.755
643.791
909.735
990.163
987.243
983.337
974.525
923.236
917.289
960.899
966.165
953.173
926.233
928.358
929.665
914.034
914.878
921.894
941.4
955.881
975.547
968.707
961.269
966.012
963.89
982.621
984.066
984.128
984.256
954.81
649.669
824.214
849.189
833.937
833.37
845.609
879.497
950.55
952.188
950.076
829.755
776.998
907.082
986.348
997.933
996.953
993.488
989.453
985.236
982.005
979.596
940.23
931.896
933.666
970.686
976.706
974.43
979.784
981.613
982.954
983.954
982.102
981.244
983.396
982.919
983.677
983.98
984.089
984.454
984.676
626.428
760.004
818.898
905.89
892.179
892.248
890.143
896.26
937.437
964.262
971.304
963.864
960.207
952.89
966.332
998.65
1003.05
1003.69
999.453
995.204
963.505
951.072
956.206
984.719
983.591
983.088
982.699
982.679
983.233
982.792
972.716
980.891
981.205
981.791
982.751
983.265
983.947
984.547
985.038
985.299
926.143
951.937
967.374
943.259
973.408
1011.94
968.436
939.317
869.142
859.03
852.112
885.776
932.36
965.086
984.912
979.894
978.685
1002.13
1011.08
989.693
961.455
959.43
992.555
989.605
987.916
986.549
981.716
947.912
945.466
956.586
951.892
954.336
957.961
970.798
980.58
982.014
983.96
985.207
986.235
986.865
923.977
945.617
970.06
994.453
1008.35
1007.73
947.176
873.093
932.328
927.542
762.985
734.657
730.275
787.325
965.485
1004.69
986.102
934.177
969.533
998.039
978.202
962.706
994.194
990.468
985.452
968.485
939.38
899.95
841.492
781.439
737.587
654.565
626.455
626.966
626.635
636.898
764.89
812.288
870.531
893.451
890.803
910.945
929.655
920.633
819.114
855.554
884.03
773.343
830.986
966.507
968.27
798.868
713.579
712.364
739.375
990.743
924.759
919
926.156
995.682
995.774
964.861
995.44
992.63
986.32
753.597
534.205
533.165
538.21
544.165
547.365
696.414
869.147
724.734
598.672
587.118
586.937
587.979
590.396
592.528
869.889
881.775
890.976
611.014
275.276
337.321
681.55
723.984
654.372
839.058
948.419
954.219
766.431
696.718
696.216
904.433
699.102
928.06
938.353
984.201
993.611
963.142
996.415
993.698
989.547
902.542
547.162
529.704
529.296
626.308
975.033
977.165
979.215
980.18
982.088
978.826
776.743
661.807
642.481
649.712
881.48
887.473
850.057
333.015
221.403
221.447
275.988
570.278
574.642
688.153
918.562
934.064
935.407
694.858
709.25
806.736
686.981
771.277
968.456
970.649
989.171
961.922
984.275
988.175
983.943
939.855
774.728
740.016
880.201
947.646
960.318
962.56
964.918
943.663
849.373
874.433
975.21
995.402
1003.48
1007.81
908.007
899.938
823.527
309.315
194.543
196.96
198.746
257.952
453.111
570.013
819.359
907.164
917.251
834.156
741.624
883.548
807.471
635.688
827.546
956.652
984.462
983.084
963.282
970.895
974.444
971.529
972.096
904.694
719.713
709.911
820.599
943.289
950.768
862.925
697.023
702.086
704.683
872.274
921.34
996.44
908.665
915.392
767.835
250.318
175.425
177.32
180.595
183.404
215.898
367.475
594.924
877.916
895.039
906.853
791.54
871.542
920.939
626.187
630.064
857.124
982.984
980.916
959.063
948.161
951.425
963.404
959.272
937.369
722.985
692.315
686.617
803.556
930.064
937.677
880.002
708.923
694.844
698.634
743.388
985.169
946.884
907.645
510.743
164.433
164.079
165.091
167.746
171.345
174.625
177.652
186.375
600.204
881.492
897.634
850.704
844.973
924.134
933.823
689.226
740.952
974.958
979.978
973.897
947.95
940.227
938.026
955.142
953.522
944.444
819.317
686.844
662.801
737.675
844.105
941.465
954.974
894.048
696.417
924.446
972.26
954.458
880.863
358.834
159.199
158.624
158.754
160.246
163.505
167.147
169.756
172.503
173.879
443.051
879.774
908.969
920.548
929.091
937.165
905.745
745.624
888.372
981.392
978.875
966.034
951.053
946.443
958.696
968.35
967.875
966.72
937.47
488.533
294.267
328
700.537
952.939
970.784
935.492
979.026
972.489
964.995
892.791
674.005
190.975
157.469
156.367
156.326
158.317
161.715
165.421
168.171
170.328
172.662
623.119
913.707
922.997
928.964
936.075
944.212
911.488
857.778
863.373
978.85
977.733
972.178
971.269
988.31
989.845
990.164
991.967
842.783
327.141
296.816
297.414
298.398
639.41
976.448
988.208
990.749
788.664
974.761
961.096
943.368
627.684
227.073
159.244
158.052
158.003
159.139
161.118
164.029
167.807
171.299
286.631
746.065
712.864
641.356
855.041
947.936
956.935
869.475
818.871
827.658
964.466
1008.55
1010.12
1009.92
1009.57
1009.05
918.98
392.655
299.425
300.045
301.177
301.879
394.64
931.898
1005.14
1010
697.606
989.826
982.59
974.261
966.943
809.058
354.581
164.865
164.124
164.562
166.157
169.593
173.739
177.243
180.859
225.977
247.255
265.244
374.643
895.246
965.297
866.094
821.502
825.055
919.242
1024.4
1026.35
1027.21
1027.3
985.411
452.14
302.107
302.261
302.75
303.381
303.761
397.312
940.819
1022.42
1028.84
699.121
1004.57
1000.73
996.188
991.928
987.85
982.918
656.274
338.659
211.145
174.982
177.406
181.023
184.654
188.299
233.011
290.149
439.131
778.635
969.943
971.22
822.233
826.497
833.387
979.041
1039.25
1041.5
1043.16
1002.24
485.289
303.706
303.658
303.749
304.11
303.986
304.118
703.699
1030.23
1037.31
1042.19
696.909
1014.45
1013.42
1011.69
1009.61
1007.03
1004.88
1003.76
1002.83
976.943
825.35
701.954
634.449
617.719
742.963
821.492
857.792
943.159
983.32
985.113
935.491
838.835
918.813
995.18
1053.1
1055.58
1057.61
929.616
432.17
304.977
305.301
305.745
305.465
305.428
375.191
809.175
1015.64
1025.56
1021.7
994.956
542.376
1021.36
1021.47
1019.46
1017.22
1016.15
1016.13
1016.86
1017.15
1018.14
1020.1
1005.46
937.148
716.675
477.523
467.212
661.935
954.862
989.598
998.677
978.001
855.199
1000.3
1038.31
1034.68
962.329
749.081
361.589
308.857
308.431
308.427
308.821
375.098
958.526
996.581
981.538
872.47
645.566
489.412
629.641
792.697
1004.71
1025.62
1023.48
1022.78
1022.84
1023.4
1025.08
1026.85
1003.49
993.892
898.803
495.665
467.267
467.074
466.057
618.21
998.228
1006.21
1016
1025.61
895.18
713.375
774.108
869.376
744.692
361.72
312.876
311.704
311.545
555.799
1012.1
1058.9
1056.38
944.314
404.038
308.801
307.667
308.119
416.985
839.783
651.58
945.793
1010.18
1027.78
1028.08
1029.1
1031.82
1026.49
854.565
779.911
938.736
872.442
504.744
476.105
478.34
536.76
998.568
1025.55
1033.1
1042.67
952.918
652.376
622.807
778.148
881.186
825.244
840.935
817.584
939.531
1072.25
1073.74
1066.65
625.377
308.195
307.669
307.802
308.582
307.594
308.339
852.576
179.715
285.39
404.862
705.493
977.464
1037.25
1042.37
990.016
769.089
772.094
827.641
954.628
957.998
792.682
494.073
499.702
706.69
1036.67
1040.18
875.919
610.088
613.041
615.579
617.32
881.591
952.411
951.114
909.988
1043.73
1031.74
809.613
307.309
306.981
306.91
307.617
308.456
309.514
309.734
589.712
1054.06
13.987
1.78732
1.81679
2.00103
331.634
794.173
1034.69
1022.14
869.642
776.297
780.22
784.374
788.998
800.491
846.747
787.532
797.702
996.797
1048.4
955.766
706.196
654.079
875.487
501.064
505.4
505.461
516.934
517.834
568.044
471.017
305.77
306.607
308.879
308.577
308.641
309.11
310.397
319.402
1033.94
1090.39
1.81492
1.63216
1.64459
1.65381
1.63752
1.70806
459.057
841.591
919.828
925.753
928.69
930.048
798.203
904.8
1006.7
1007.18
1008.4
1008.86
1016.77
1005.43
935.513
770.001
942.488
1050.44
911.681
947.519
901.093
822.836
762.599
651.955
371.539
305.245
306.022
306.264
305.856
321.862
584.889
846.583
1112.69
1085.56
1.41003
2.88548
2.06755
1.66822
1.88753
1.83988
0.597101
1.14211
273.58
646.122
840.758
916.014
943.14
954.852
964.381
964.478
951.804
931.899
962.123
1035.56
1039
1041.21
1093.43
1103.57
1104.29
1106.19
1109.07
1111.93
1115.2
1118.59
964.627
580.205
362.641
329.101
377.108
679.144
1088.18
1128.08
1126.11
946.901
0.918549
1.20241
0.981641
2.56266
7.04797
4.18544
0.634634
0.628661
0.505523
0.385743
9.16689
212.663
329.501
340.594
285.457
520.74
823.521
987.56
1039.07
1042.83
1023.23
998.196
1053.16
1108.62
1111.07
1113.13
1115.24
1117.63
1120.54
1124.16
1127.97
1109.99
1008.41
986.88
1045.85
1127.45
1136.27
1136.7
1132.38
948.63
0.998321
1.22246
1.39265
6.90238
6.73541
0.550839
0.547377
0.525151
0.483322
0.463188
0.469182
0.450872
0.465654
20.7894
41.3257
17.4098
14.4666
266.866
572.746
656.153
650.945
705.933
772.457
862.894
947.399
993.45
1022.81
1037.59
1061.13
1114.15
1132.32
1137.28
1141.34
1143.35
1144.92
1145.74
1145.93
1145.27
1099.7
952.522
0.698849
0.637376
0.517775
0.885628
6.59038
0.728681
0.535686
0.506197
0.484184
0.554393
0.976866
0.725083
0.544025
0.531109
0.528096
0.541105
0.535307
0.406428
0.354121
68.7196
153.082
178.38
193.876
238.134
334.477
434.769
529.737
625.345
727.446
869.278
974.779
1027.44
1103.94
1153.18
1153.87
1153.69
1153.68
1153.63
1111.68
1031.11
0.560048
0.508872
0.507982
0.534918
3.77056
0.544826
0.498702
0.483684
0.468462
0.960279
1.08076
1.05126
0.557755
0.496267
0.478817
0.465804
0.441598
0.420628
0.405179
0.403285
0.418779
0.432012
0.597649
1.66251
2.54595
188.994
514.632
628.28
422.151
254.013
603.784
1008.77
1123.67
1155.86
1160.69
1160.89
1160.22
1161.24
1088.27
869.06
0.445719
0.463857
0.477591
0.983251
1.04697
0.480681
0.466073
0.719531
0.725884
0.531572
0.693803
1.03621
1.01842
0.990845
0.462121
0.418777
0.391816
0.35717
0.312962
0.273322
0.234743
0.193886
1.36706
2.98672
1.60118
0.202894
-0.0728801
0.00510286
109.957
261.753
240.837
219.455
344.751
501.869
566.024
616.171
628.933
635.897
618.722
466.705
0.436518
0.478939
1.18906
1.82078
0.556874
0.449171
0.622371
0.880856
0.84541
0.45635
0.666665
0.995404
0.981081
0.966262
0.855113
0.394612
0.373679
0.347794
0.335066
0.274663
0.217445
0.172058
0.159138
0.619543
1.66792
0.262338
0.0753719
0.0984616
0.110364