/*--------------------------------*- C++ -*----------------------------------*\
  =========                 |
  \\      /  F ield         | OpenFOAM: The Open Source CFD Toolbox
   \\    /   O peration     | Website:  https://openfoam.org
    \\  /    A nd           | Version:  8
     \\/     M anipulation  |
\*---------------------------------------------------------------------------*/
FoamFile
{
    version     2.0;
    format      ascii;
    class       volScalarField;
    location    "0.3";
    object      epsilon;
}
// * * * * * * * * * * * * * * * * * * * * * * * * * * * * * * * * * * * * * //

dimensions      [0 2 -3 0 0 0 0];

internalField   nonuniform List<scalar> 
9150
(
0.0460898
0.0198467
0.00761214
0.00469764
0.00417095
0.00417095
0.00469764
0.00761214
0.0198467
0.0460898
0.0446944
0.0148312
0.00598027
0.00428765
0.00399616
0.00399616
0.00428765
0.00598027
0.0148312
0.0446944
0.0422313
0.0124437
0.00535972
0.00419141
0.00397384
0.00397384
0.00419141
0.00535972
0.0124437
0.0422313
0.0395544
0.01126
0.00517699
0.00421105
0.00401561
0.00401561
0.00421105
0.00517699
0.01126
0.0395544
0.0367481
0.0108236
0.00517618
0.00427684
0.00408649
0.00408649
0.00427684
0.00517618
0.0108236
0.0367481
0.170573
0.0673035
0.0256196
0.0153191
0.012741
0.012741
0.0153192
0.0256197
0.0673038
0.170573
0.108934
0.0335127
0.0176801
0.0116447
0.00995101
0.00995102
0.0116447
0.0176802
0.0335128
0.108934
0.0805613
0.0271629
0.0125522
0.00834078
0.0072682
0.0072682
0.00834078
0.0125522
0.0271629
0.0805613
0.062483
0.0236362
0.00955665
0.0062629
0.0055146
0.0055146
0.0062629
0.00955665
0.0236362
0.062483
0.0525624
0.0216338
0.00807081
0.00515556
0.00457741
0.00457741
0.00515556
0.00807081
0.0216338
0.0525624
1.93914
0.207259
0.0543649
0.021294
0.0137025
0.0137022
0.0212941
0.0543742
0.207303
1.94002
0.359006
0.137677
0.04931
0.0211595
0.0139552
0.013955
0.0211589
0.0493084
0.13767
0.359013
0.307165
0.125789
0.0488463
0.0212003
0.0142128
0.0142127
0.0212
0.0488457
0.125786
0.307167
0.262173
0.114053
0.0483492
0.021149
0.0144865
0.0144865
0.0211489
0.048349
0.114053
0.262173
0.212402
0.108937
0.0450588
0.0202329
0.0144635
0.0144635
0.0202329
0.0450589
0.108937
0.212402
51.8397
51.7945
51.7163
51.6184
51.5323
51.5301
51.6113
51.7033
51.7748
51.8127
22.8239
22.7324
22.659
22.6052
22.5747
22.5723
22.5982
22.6471
22.7155
22.8017
19.4629
19.2808
19.143
19.0494
19.0005
18.9971
19.0395
19.1263
19.2572
19.4322
19.5776
19.2666
19.0326
18.8747
18.7931
18.7883
18.8604
19.0085
19.2326
19.5332
20.9366
20.4558
20.0948
19.8521
19.727
19.7203
19.832
20.0611
20.408
20.8738
23.0295
22.3349
21.8146
21.4656
21.2864
21.2773
21.4384
21.7689
22.2699
22.944
25.6429
24.6891
23.9766
23.4998
23.2557
23.2439
23.4645
23.917
24.6041
25.5307
28.623
27.3671
26.4315
25.807
25.4881
25.4734
25.7628
26.3568
27.2602
28.4814
31.8216
30.2264
29.041
28.2517
27.8494
27.8318
28.1984
28.951
30.0972
31.65
35.0969
33.1312
31.6739
30.7055
30.2132
30.1928
30.6439
31.5693
32.9808
34.8965
38.3312
35.968
34.2197
33.0601
32.4721
32.4493
32.9912
34.1025
35.7991
38.1054
41.4471
38.6595
36.6012
35.2387
34.5495
34.5248
35.1639
36.4739
38.4757
41.2007
44.4057
41.1639
38.775
37.197
36.401
36.375
37.1182
38.6406
40.9694
44.1445
47.1841
43.4569
40.7168
38.9111
38.003
37.9763
38.8301
40.5784
43.256
46.9135
49.7425
45.5068
42.4007
40.359
39.3352
39.3083
40.2773
42.2609
45.3033
49.4677
52.0076
47.2585
43.7843
41.5061
40.3671
40.3404
41.425
43.6453
47.0557
51.7329
53.8771
48.6342
44.8066
42.3023
41.0536
41.0276
42.2231
44.6705
48.4351
53.6065
55.24
49.5465
45.3981
42.6895
41.3422
41.3171
42.6129
45.2663
49.3533
54.9766
55.9982
49.9144
45.4937
42.6135
41.184
41.16
42.5401
45.3672
49.7286
55.7442
56.0524
49.672
45.0455
42.0363
40.5457
40.5228
41.9664
44.9247
49.4943
55.8092
55.3953
48.8015
44.0381
40.9472
39.4192
39.3974
40.8806
43.9229
48.632
55.163
53.9979
47.2955
42.4779
39.3612
37.8236
37.8028
39.2976
42.3678
47.1333
53.7756
51.8032
45.1612
40.3977
37.3215
35.8057
35.7857
37.2604
40.292
45.0054
51.5897
48.9346
42.4979
37.8852
34.9094
33.4439
33.4246
34.8504
37.7832
42.3476
48.7287
45.5726
39.4482
35.0602
32.2315
30.8389
30.8202
32.1743
34.9613
39.3024
45.373
41.9171
36.1639
32.0487
29.3996
28.0962
28.078
29.344
31.9525
36.0218
41.7224
38.0871
32.7595
28.9574
26.514
25.3126
25.2951
26.4602
28.8639
32.621
37.8968
34.1602
29.3269
25.8785
23.6634
22.5744
22.5576
23.6117
25.7885
29.1932
33.9756
30.2924
25.9834
22.9076
20.9316
19.9598
19.9439
20.8827
22.8222
25.856
30.1158
26.6161
22.832
20.1281
18.3897
17.5342
17.5194
18.3442
20.0484
22.7127
26.4498
23.237
19.9537
17.6035
16.0907
15.3454
15.3319
16.0491
17.5306
19.844
23.0834
20.2266
17.4014
15.374
14.0664
13.4214
13.4093
14.0291
15.3084
17.3024
20.0875
17.6236
15.2007
13.4558
12.3275
11.7701
11.7595
12.2946
13.3978
15.1129
17.4997
15.437
13.3518
11.8439
10.8661
10.3823
10.373
10.8374
11.7932
13.2749
15.328
13.6467
11.8319
10.5147
9.65856
9.2344
9.22638
9.63374
10.4707
11.765
13.5516
12.2007
10.5971
9.43002
8.67037
8.29377
8.28687
8.64899
9.39206
10.5391
12.1178
11.0264
9.59226
8.54521
7.8627
7.5242
7.5183
7.84436
8.51253
9.54207
10.9543
10.0657
8.76874
7.81914
7.19921
6.89164
6.8866
7.18353
7.79112
8.72553
10.0033
9.27532
8.08877
7.21826
6.64938
6.36714
6.36286
6.63604
7.19434
8.05171
9.22152
8.61955
7.52178
6.71565
6.18868
5.92737
5.92375
6.17738
6.6953
7.49008
8.57326
8.06856
7.04304
6.28996
5.79786
5.55402
5.55097
5.7883
6.2727
7.016
8.02882
7.59863
6.63319
5.92468
5.46203
5.23301
5.23045
5.45399
5.91008
6.61019
7.56458
7.19139
6.27716
5.60691
5.16968
4.95347
4.95132
5.16293
5.59462
6.25767
7.16232
6.83315
5.9636
5.32692
4.91205
4.70712
4.70534
4.90643
5.31662
5.94717
6.80844
6.51417
5.68434
5.07757
4.68265
4.48779
4.48632
4.678
5.069
5.67057
6.49329
6.22748
5.4334
4.85353
4.47656
4.29074
4.28954
4.47274
4.84646
5.42194
6.20995
5.96796
5.20625
4.65071
4.28993
4.11226
4.11128
4.28682
4.64493
5.19681
5.95337
5.73168
4.99934
4.46581
4.11965
3.94932
3.94853
4.11715
4.46114
4.99165
5.71966
5.51548
4.80975
4.29611
3.96312
3.79941
3.79879
3.96116
4.29239
4.80356
5.50569
5.31664
4.63497
4.13926
3.81816
3.66039
3.65992
3.81664
4.13637
4.63007
5.30878
5.13273
4.47278
3.99325
3.68285
3.53044
3.53009
3.68172
3.99105
4.469
5.12654
4.96156
4.32121
3.85629
3.55554
3.40797
3.40772
3.55474
3.85468
4.31838
4.9568
4.80113
4.1785
3.7268
3.43482
3.29162
3.29146
3.43429
3.7257
4.17647
4.79758
4.6496
4.04308
3.60342
3.31943
3.18024
3.18016
3.31914
3.60275
4.04173
4.64708
4.50534
3.91357
3.48498
3.20836
3.07286
3.07284
3.20825
3.48466
3.91279
4.50369
4.3669
3.78877
3.37046
3.10071
2.96866
2.96869
3.10077
3.37044
3.78847
4.36597
4.23303
3.66768
3.25905
2.99578
2.86699
2.86707
2.99598
3.25928
3.66777
4.2327
4.10268
3.54947
3.15007
2.893
2.76733
2.76744
2.89331
3.1505
3.54989
4.10285
3.975
3.43348
3.04299
2.79192
2.66928
2.66942
2.79232
3.04359
3.43416
3.97557
3.84931
3.31919
2.93741
2.69223
2.57255
2.57271
2.6927
2.93815
3.32008
3.85021
3.72511
3.20624
2.83307
2.59369
2.47694
2.47712
2.59422
2.83391
3.20731
3.72628
3.60207
3.09439
2.72979
2.49619
2.38234
2.38254
2.49675
2.7307
3.09559
3.60345
3.47999
2.98352
2.62748
2.39965
2.28871
2.28891
2.40024
2.62845
2.98481
3.48152
3.3588
2.8736
2.52614
2.30408
2.19604
2.19625
2.30469
2.52714
2.87495
3.36044
3.23853
2.76469
2.42584
2.20956
2.10441
2.10461
2.21016
2.42685
2.76608
3.24025
3.11941
2.65697
2.3267
2.11615
2.01388
2.01408
2.11674
2.32769
2.65836
3.12116
3.00191
2.55064
2.22882
2.02396
1.92456
1.92474
2.02453
2.22978
2.55199
3.00365
2.88638
2.44573
2.13226
1.93307
1.83651
1.83669
1.9336
2.13317
2.44703
2.88808
2.77244
2.34187
2.03702
1.84352
1.74983
1.74999
1.84402
2.03787
2.3431
2.77407
2.66186
2.24044
1.94338
1.75541
1.66456
1.66471
1.75586
1.94417
2.24158
2.66337
2.55125
2.13964
1.85078
1.66861
1.58076
1.58089
1.66902
1.8515
2.14069
2.55267
2.43938
2.03898
1.75915
1.58325
1.49861
1.49873
1.58363
1.7598
2.03995
2.44071
2.32703
1.93894
1.66885
1.49966
1.41842
1.41853
1.5
1.66944
1.93982
2.32825
2.21492
1.84002
1.58028
1.41815
1.34047
1.34057
1.41846
1.58081
1.84081
2.21603
2.10354
1.74262
1.49377
1.33902
1.26504
1.26513
1.33929
1.49425
1.74333
2.10453
1.99322
1.64707
1.4096
1.26249
1.19234
1.19242
1.26275
1.41004
1.64771
1.9941
1.88425
1.55365
1.32802
1.18878
1.12252
1.12261
1.18903
1.32844
1.55424
1.88505
1.77698
1.46265
1.24925
1.11803
1.05572
1.0558
1.11827
1.24966
1.46322
1.77771
1.67175
1.37436
1.17346
1.05034
0.99199
0.992077
1.05059
1.17388
1.37493
1.67245
1.56899
1.28905
1.1008
0.985763
0.93134
0.931435
0.986044
1.10125
1.28965
1.5697
1.46914
1.20696
1.03136
0.924302
0.873718
0.873823
0.924612
1.03186
1.20763
1.46991
1.37262
1.1283
0.965169
0.865882
0.81901
0.819126
0.866227
0.965732
1.12905
1.37349
1.2798
1.05317
0.902187
0.81037
0.767041
0.767168
0.810751
0.902813
1.05402
1.2808
1.19094
0.981598
0.842288
0.75757
0.717584
0.717721
0.757981
0.842971
0.982536
1.19209
1.10614
0.913479
0.78527
0.707229
0.670366
0.67051
0.707662
0.785994
0.914487
1.1074
1.02529
0.848605
0.73087
0.659058
0.625088
0.625234
0.659498
0.731608
0.849645
1.02662
0.948159
0.78669
0.678782
0.612747
0.581436
0.581579
0.613178
0.679505
0.787709
0.949476
0.87441
0.727412
0.628699
0.567991
0.539106
0.539241
0.568396
0.629375
0.728357
0.875621
0.803714
0.670471
0.580337
0.524509
0.497812
0.497936
0.524876
0.580939
0.671294
0.804736
0.735809
0.61563
0.533468
0.482059
0.457298
0.457407
0.482381
0.533981
0.616301
0.736589
0.670537
0.562752
0.487945
0.440445
0.41732
0.417415
0.440719
0.488365
0.563265
0.671064
0.607889
0.511848
0.443727
0.399509
0.37762
0.377703
0.39974
0.444062
0.512219
0.608194
0.548081
0.463161
0.400932
0.359111
0.337839
0.337912
0.359309
0.4012
0.463421
0.548225
0.491702
0.417317
0.359922
0.319087
0.297353
0.29742
0.319262
0.360142
0.417504
0.491758
0.439976
0.375599
0.321445
0.279163
0.254978
0.255044
0.279326
0.321633
0.375744
0.440006
0.395264
0.340429
0.286818
0.238799
0.208568
0.208639
0.238959
0.286983
0.340549
0.395305
0.362232
0.316218
0.257767
0.196829
0.155117
0.1552
0.196992
0.25791
0.316316
0.362292
0.351238
0.310602
0.234031
0.150389
0.0939275
0.094019
0.15055
0.234154
0.310675
0.351309
0.393351
0.333787
0.203587
0.0942631
0.0380874
0.0381504
0.0943902
0.203695
0.333846
0.393436
0.62987
0.365614
0.132876
0.037916
0.0151002
0.0151065
0.0379565
0.132952
0.365693
0.630082
51.8017
51.772
51.7193
51.6507
51.5853
51.5492
51.5557
51.62
51.7793
52.0839
52.5862
53.344
54.4218
55.8828
57.7898
60.2022
63.163
66.6895
70.7651
75.3366
80.317
85.5965
91.029
96.4119
101.556
106.487
110.933
114.466
116.459
116.375
114.374
111.392
107.233
101.763
94.8976
86.5409
76.5229
63.9158
45.188
26.2028
22.912
23.0522
23.2214
23.4247
23.6681
23.9592
24.3079
24.7261
25.2271
25.8259
26.5407
27.392
28.4016
29.5909
30.9798
32.5831
34.4072
36.4466
38.6818
41.0799
43.5963
46.1783
48.7684
51.3095
53.7473
56.0245
58.0781
59.8535
61.3088
62.4636
63.5479
64.8046
66.2964
68.0682
70.0224
71.8118
72.8699
73.0261
75.0012
124.664
19.6658
19.9693
20.3339
20.7638
21.264
21.8404
22.5003
23.2525
24.1063
25.0722
26.1616
27.3863
28.7573
30.2831
31.967
33.8042
35.7796
37.8661
40.0256
42.2126
44.3788
46.4798
48.4786
50.3478
52.0695
53.6349
55.0426
56.3017
57.4425
58.5443
59.7728
61.3277
63.3677
66.02
69.3222
73.1856
77.5938
83.7046
99.1714
210.882
19.9351
20.4576
21.0825
21.8134
22.6543
23.6101
24.686
25.888
27.222
28.6943
30.3104
32.0748
33.9886
36.0472
38.237
40.5325
42.8938
45.2673
47.5902
49.7987
51.8393
53.677
55.299
56.7132
57.9433
59.0228
59.9908
60.8898
61.7898
62.8246
64.1756
66.0417
68.5964
71.9883
76.2898
81.5022
87.8771
97.3417
121.178
282.384
21.4973
22.309
23.2789
24.411
25.7089
27.1762
28.8157
30.63
32.6201
34.786
37.1247
39.6295
42.2867
45.0725
47.9489
50.8605
53.7323
56.4733
58.9869
61.1895
63.03
64.5014
65.6407
66.5109
67.1885
67.7436
68.2342
68.75
69.443
70.4917
72.0778
74.3804
77.5646
81.7708
87.0634
93.4423
101.249
112.887
142.364
343.56
23.848
25.0279
26.4405
28.0911
29.9838
32.1212
34.5039
37.13
39.9943
43.0877
46.3946
49.8911
53.5398
57.2861
61.0526
64.7357
68.2058
71.3153
73.922
75.9266
77.3074
78.1286
78.5066
78.5717
78.4375
78.2359
78.1298
78.3066
78.9612
80.2591
82.3531
85.3346
89.2995
94.3417
100.462
107.536
115.756
127.882
160.017
385.436
26.7766
28.4083
30.3678
32.6636
35.3021
38.2864
41.6163
45.2865
49.2858
53.5949
58.182
62.9982
67.9695
72.9897
77.9134
82.5541
86.69
90.0833
92.5312
93.948
94.3944
94.0559
93.1284
91.8567
90.5272
89.4121
88.7695
88.8231
89.7639
91.741
94.8735
99.0916
104.287
110.439
117.283
124.245
130.929
140.814
171.798
398.826
30.1281
32.2922
34.9003
37.9668
41.5032
45.5175
50.0126
54.9854
60.4239
66.302
72.5723
79.1548
85.9224
92.6846
99.1753
105.05
109.91
113.368
115.164
115.246
113.821
111.275
108.19
105.124
102.467
100.513
99.5319
99.8031
101.594
105.043
110.082
116.47
123.296
130.617
138.486
145.228
147.921
152.465
179.343
391.311
33.7492
36.5175
39.8653
43.8165
48.3923
53.6119
59.4909
66.0401
73.2602
81.1332
89.6075
98.5777
107.855
117.128
125.922
133.558
139.213
142.247
142.305
139.036
133.656
127.73
122.125
117.252
113.375
110.753
109.72
110.738
114.488
120.985
128.856
136.874
143.583
150.125
159.044
169.695
169.316
164.661
184.716
380.004
37.4922
40.9251
45.0895
50.0215
55.7576
62.3362
69.7988
78.1887
87.545
97.8887
109.201
121.391
134.253
147.384
160.022
170.791
177.38
178.345
171.759
161.2
150.769
141.445
133.537
127.158
122.355
119.31
118.365
120.082
124.551
130.33
136.815
143.035
149.828
158.899
173.1
195.548
193.798
175.576
188.83
374.126
41.236
45.3863
50.4329
56.426
63.42
71.4787
80.6786
91.1127
102.892
116.132
130.932
147.307
165.19
184.436
204.607
224.105
227.162
216.131
195.093
177.113
162.363
150.541
141.241
134.257
129.074
125.841
124.805
126.03
129.286
134.214
140.528
147.993
157.374
170.763
189.915
211.056
200.17
179.617
189.564
370.968
44.9055
49.827
55.8224
62.9548
71.2941
80.9224
91.9423
104.501
118.834
135.203
153.925
175.123
198.867
225.909
257.052
271.058
278.872
235.359
204.684
182.596
166.482
154.616
145.284
138.13
133.361
130.821
130.462
132.255
136.025
141.467
148.475
157.321
168.886
184.303
202.403
211.917
195.537
178.577
188.522
369.724
48.4685
54.2256
61.2505
69.6162
79.399
90.6896
103.602
118.284
135.092
154.276
176.516
200.499
222.245
242.385
264.459
289.484
263.971
223.827
196.016
176.699
163.596
154.764
146.159
139.302
135.536
134.368
135.553
138.919
144.263
151.335
160.038
170.523
183.151
197.748
210.842
209.552
190.942
176.734
187.924
371.022
51.9049
58.5675
66.711
76.424
87.8173
101.013
116.099
132.866
150.229
168.416
185.514
200.055
213.945
228.786
245.31
247.717
224.089
198.871
178.923
164.436
154.628
148.275
142.11
137.652
135.981
136.848
140.119
145.658
153.246
162.589
173.397
185.424
198.318
210.855
218.448
209.971
189.768
176.69
189.294
376.487
55.163
62.7829
72.1203
83.3207
96.5578
111.995
127.561
142.174
155.621
168.172
178.883
188.637
198.732
209.471
218.022
215.094
196.764
177.878
162.775
151.469
143.716
139.118
136.527
135.402
136.253
139.378
144.879
152.721
162.684
174.347
187.12
200.248
212.689
222.563
225.41
212.996
191.925
179.288
193.324
387.639
58.1405
66.7347
77.3175
90.0786
104.998
120.415
133.056
143.816
153.337
161.627
169.012
176.516
185.05
194.102
199.935
193.529
176.907
161.688
149.65
140.692
134.774
131.838
131.679
133.505
136.828
142.248
150.007
160.122
172.34
186.073
200.411
214.126
225.631
232.737
231.828
217.777
196.751
184.527
200.283
405.67
60.7024
70.2678
82.1504
96.6052
111.849
125.055
134.917
142.218
148.039
153.261
158.73
165.321
173.39
181.764
186.367
179.073
163.662
150.228
139.88
132.471
127.933
126.315
127.744
131.741
137.299
144.976
155.018
167.409
181.791
197.381
212.976
226.996
237.514
242.26
238.575
223.999
203.714
192.19
210.09
429.4
62.7126
73.1872
86.2175
101.75
116.909
127.275
133.966
138.257
141.489
144.822
149.244
155.458
163.426
171.607
175.985
169.412
154.828
142.209
132.764
126.283
122.67
121.976
124.415
129.871
137.35
147.09
159.344
174.027
190.569
207.952
224.719
239.099
249.033
252.261
246.785
232.038
212.786
202.166
222.265
455.826
64.0662
75.4456
89.7664
105.59
118.384
126.538
131.02
133.272
134.799
136.888
140.548
146.348
154.045
162.038
166.764
162.168
148.595
136.358
127.415
121.496
118.47
118.373
121.439
127.845
136.775
148.171
162.46
179.452
198.258
217.518
235.573
250.697
260.925
263.923
257.808
242.99
224.467
214.716
236.885
483.835
64.5658
76.5523
91.5224
107.035
117.767
123.82
126.589
127.507
127.981
129.22
132.169
137.316
144.401
152.015
157.234
155.434
143.727
131.777
123.172
117.617
114.953
115.191
118.544
125.451
135.62
148.23
164.36
183.654
204.818
226.018
245.431
261.825
273.568
278.083
272.87
258.28
239.852
230.676
255.444
518.024
64.2522
76.7169
92.0913
106.671
115.292
119.706
121.299
121.36
121.125
121.683
123.886
128.201
134.485
141.752
147.913
149.26
139.84
128.099
119.698
114.361
111.905
112.314
115.774
122.717
133.283
147.049
164.725
186.081
209.441
232.289
252.651
270.374
284.918
293.133
290.747
277.483
259.305
251.153
279.668
564.929
63.0838
75.9685
90.9806
103.248
110.772
114.418
115.41
114.966
114.227
114.181
115.606
118.951
124.189
130.634
136.753
139.704
135.375
125.171
116.792
111.537
109.17
109.634
113.075
119.883
130.425
144.694
163.31
186.164
211.721
236.146
255.899
272.86
290.288
305.256
308.719
297.885
281.112
276.539
310.636
632.867
60.8345
73.632
87.9356
98.5199
104.869
107.875
108.573
107.975
107.022
106.563
107.288
109.636
113.693
119.074
124.818
129.219
129.572
122.353
114.181
108.962
106.606
107.053
110.407
116.991
127.233
141.543
160.559
184.436
212.025
239.236
260.131
276.41
293.703
311.571
323.191
318.245
303.602
305.034
347.373
716.715
57.6878
70.0686
83.3476
92.2762
97.6214
100.229
100.903
100.421
99.495
98.8215
98.9912
100.416
103.25
107.318
112.073
116.613
119.448
118.531
112.058
106.537
104.072
104.455
107.717
114.082
123.983
138.081
157.136
181.645
210.976
241.885
266.464
283.277
299.576
318.029
335.957
339.155
327.567
333.503
382.698
813.54
53.8868
65.5567
77.4811
85.2177
89.917
92.3092
93.0398
92.7268
91.9005
91.1196
90.873
91.5259
93.2648
96.0491
99.5865
103.347
106.501
108.087
107.407
103.669
101.276
101.612
104.824
111.014
120.494
133.991
152.424
176.607
206.506
240.001
270.903
292.162
307.444
324.727
344.167
356.782
350.602
349.536
398.128
897.334
49.7286
60.4209
70.5565
77.552
81.9554
84.3101
85.1592
85.0286
84.3372
83.5373
83.0285
83.1207
83.9959
85.678
88.0189
90.7107
93.3452
95.3942
96.595
96.9246
96.7724
97.7994
101.136
107.05
115.904
128.357
145.358
167.955
196.783
230.744
265.796
295.236
314.796
330.632
349.415
367.941
367.678
359.439
404.261
937.04
45.3211
54.8612
63.2941
69.5426
73.6729
76.0267
77.0281
77.1013
76.6432
75.9569
75.381
75.1848
75.5454
76.5298
78.0899
80.0788
82.2952
84.4859
86.4797
88.2775
90.1683
92.679
96.5225
102.249
110.302
121.307
136.174
156.057
182.038
214.286
250.775
286.428
314.917
334.535
352.582
371.766
376.66
366.722
403.187
871.516
40.7011
49.1473
56.2229
61.5741
65.2657
67.5242
68.6453
68.9461
68.7461
68.2801
67.8067
67.5629
67.7244
68.3934
69.5942
71.2832
73.3737
75.7553
78.3169
81.0319
84.0196
87.5379
91.9369
97.5835
104.896
114.421
126.957
143.648
165.883
194.794
230.187
268.751
304.855
332.965
354.53
373.491
381.356
373.551
398.694
789.906
36.1004
43.496
49.4173
53.9111
57.1018
59.1658
60.3144
60.7753
60.7842
60.5775
60.2999
60.1551
60.3133
60.8984
61.9833
63.592
65.7097
68.3024
71.301
74.6676
78.4274
82.6844
87.6078
93.4165
100.39
108.926
119.662
133.621
152.277
177.358
210.071
249.257
290.298
326.791
354.793
374.374
384.114
375.998
383.444
719.397
31.6913
38.0957
43.0711
46.8195
49.5123
51.3169
52.4014
52.9352
53.0925
53.0507
52.9822
52.9896
53.2297
53.8336
54.9015
56.5004
58.6667
61.416
64.718
68.5447
72.8907
77.7867
83.3003
89.5327
96.6308
104.84
114.62
126.815
142.83
164.664
194.486
233.104
277.6
320.797
354.175
374.361
382.261
366.354
360.585
651.299
27.6156
33.0974
37.277
40.3945
42.6382
44.1723
45.1417
45.68
45.9186
45.9915
46.0339
46.1791
46.5174
47.1647
48.2341
49.8169
51.9992
54.8224
58.2978
62.425
67.2026
72.6367
78.7435
85.5491
93.103
101.525
111.108
122.496
136.918
156.413
183.732
221.246
267.918
316.439
353.879
372.325
371.536
345.805
334.446
582.605
23.9696
28.6046
32.0999
34.6861
36.5444
37.8287
38.667
39.1693
39.439
39.5793
39.6955
39.8951
40.2846
40.9602
42.0194
43.5706
45.7158
48.5253
52.0503
56.3254
61.372
67.2005
73.8109
81.193
89.3379
98.2759
108.162
119.434
133.062
150.901
175.818
211.233
258.16
310.19
350.797
365.024
350.688
318.502
306.097
513.14
20.8075
24.6786
27.5847
29.7263
31.2616
32.3274
33.0363
33.4821
33.7494
33.9203
34.0785
34.3112
34.71
35.3695
36.3895
37.8739
39.9263
42.6419
46.1042
50.3818
55.5256
61.5663
68.5109
76.3429
85.0309
94.5563
104.974
116.535
129.807
146.31
168.707
200.764
245.017
296.845
338.626
347.534
322.903
287.504
275.996
445.099
18.1464
21.3385
23.7458
25.5191
26.7858
27.6632
28.2506
28.6303
28.8744
29.0503
29.2256
29.4719
29.8665
30.4944
31.4486
32.8303
34.7462
37.3049
40.6115
44.7616
49.8343
55.8854
62.9414
70.9994
80.0344
90.0187
100.949
112.763
125.902
141.387
161.206
188.733
227.237
274.573
314.494
318.373
289.383
256.491
246.833
382.247
15.9613
18.5553
20.5487
22.0188
23.062
23.7783
24.2562
24.5696
24.7814
24.9484
25.1261
25.3733
25.7547
26.3439
27.2247
28.492
30.2512
32.6153
35.7011
39.6211
44.4754
50.3412
57.2662
65.2682
74.3461
84.5014
95.5564
107.476
120.529
135.321
153.088
176.033
207.012
245.701
279.356
280.46
254.647
229.028
223.031
329.312
14.1888
16.2802
17.9253
19.1394
19.9943
20.5754
20.9611
21.2173
21.3991
21.5549
21.731
21.9759
22.3434
22.8965
23.709
24.8673
26.4704
28.6289
31.4611
35.0856
39.6124
45.1313
51.7028
59.3571
68.1127
77.982
88.7252
100.397
113.164
127.352
143.573
162.918
186.896
215.367
239.361
241.235
224.124
207.098
206.26
288.477
12.7561
14.4601
15.8033
16.7916
17.4843
17.9533
18.2659
18.4792
18.6406
18.7912
18.9698
19.2165
19.5765
20.1032
20.861
21.9267
23.3905
25.3555
27.9336
31.2394
35.3804
40.4529
46.5261
53.6429
61.8313
71.0477
81.0915
91.9737
103.795
116.763
131.2
147.514
165.989
185.724
201.633
205.187
197.228
187.999
188.536
258.173
11.598
13.0119
14.1029
14.897
15.451
15.8277
16.0844
16.2689
16.4212
16.5756
16.7644
17.0208
17.3831
17.8966
18.6171
19.6123
20.9628
22.7619
25.1119
28.1181
31.8907
36.5155
42.0514
48.5276
55.9532
64.2693
73.2781
82.9282
93.2283
104.261
116.159
129.013
142.633
156.003
166.567
170.942
168.567
163.041
163.339
238.212
10.6578
11.8573
12.7498
13.3854
13.8254
14.1281
14.343
14.5105
14.6636
14.8304
15.0375
15.3126
15.6877
16.2017
16.9026
17.8497
19.1144
20.7798
22.9375
25.6857
29.1166
33.3039
38.2941
44.1003
50.7058
58.0559
65.9473
74.2616
82.9099
91.8392
101.019
110.383
119.682
128.246
134.817
137.979
137.346
134.681
138.67
225.446
9.88755
10.9302
11.6739
12.188
12.5402
12.7873
12.974
13.1349
13.2972
13.4839
13.7166
14.0184
14.4162
14.9432
15.6407
16.5604
17.7646
19.3263
21.3265
23.8505
26.9746
30.7596
35.2397
40.4146
46.2489
52.6811
59.5507
66.6799
73.9152
81.1059
88.1081
94.7679
100.868
106.049
109.793
111.685
111.83
112.044
120.441
216.342
9.24764
10.1756
10.8119
11.2392
11.5302
11.7411
11.9135
12.078
12.2574
12.4706
12.7353
13.0708
13.4996
14.0502
14.7582
15.668
16.8337
18.3184
20.1922
22.5265
25.3844
28.8145
32.8406
37.454
42.612
48.2408
54.2413
60.4231
66.6004
72.5681
78.1216
83.0735
87.2528
90.497
92.6846
93.8573
94.5406
96.6615
108.44
209.497
8.70666
9.5502
10.1123
10.4829
10.7373
10.9311
11.1035
11.282
11.4863
11.7322
12.0344
12.4091
12.8756
13.4582
14.1874
15.1016
16.2468
17.6769
19.4514
21.6293
24.2617
27.3866
31.0196
35.148
39.7293
44.698
49.9703
55.4251
60.8592
66.0301
70.7013
74.6811
77.8401
80.1228
81.5814
82.471
83.5018
86.7296
100.573
204.404
8.24107
9.02244
9.53558
9.87417
10.1136
10.3079
10.494
10.6968
10.9336
11.218
11.5624
11.9808
12.4896
13.1098
13.8679
14.7964
15.9346
17.3275
19.0248
21.0748
23.518
26.3831
29.6792
33.391
37.4807
41.9013
46.6097
51.5104
56.4224
61.0737
65.2102
68.6401
71.2731
73.111
74.2816
75.121
76.4115
80.2708
95.2503
200.667
7.83373
8.5695
9.05329
9.37941
9.62173
9.83177
10.0438
10.2804
10.557
10.8853
11.2762
11.7416
12.2959
12.9573
13.7484
14.6972
15.8365
17.2037
18.8394
20.7829
23.0652
25.7064
28.7094
32.0573
35.7198
39.6755
43.9265
48.4268
52.9754
57.2728
61.0472
64.1382
66.4873
68.1305
69.2253
70.1308
71.6454
75.9017
91.5194
198.001
7.47249
8.17521
8.6446
8.97357
9.2329
9.47123
9.7197
9.99868
10.3218
10.6993
11.1406
11.656
12.2583
12.9631
13.7898
14.7621
15.9072
17.2559
18.8408
20.6936
22.8372
25.2839
28.0303
31.0567
34.3373
37.8586
41.7024
45.9163
50.2288
54.2525
57.7532
60.6063
62.7842
64.3456
65.4593
66.4853
68.2159
72.7773
88.8323
196.211
7.14882
7.82821
8.29466
8.6382
8.92568
9.2021
9.49578
9.82444
10.2
10.6315
11.1271
11.6958
12.3488
13.0995
13.9647
14.964
16.1198
17.4572
19.0021
20.7797
22.8071
25.0903
27.6195
30.3672
33.2995
36.4744
40.0028
43.8943
47.9773
51.812
55.0771
57.7224
59.7652
61.2816
62.4421
63.5979
65.5254
70.334
86.6872
194.358
6.85667
7.52041
7.99271
8.35971
8.68372
9.00579
9.35149
9.73577
10.1689
10.6587
11.2123
11.8378
12.5448
13.3452
14.2531
15.2851
16.4594
17.796
19.3156
21.0378
22.9764
25.1338
27.4938
30.0009
32.6545
35.5776
38.8485
42.4446
46.2443
49.876
52.9381
55.3683
57.2606
58.7151
59.9012
61.156
63.2335
68.2109
84.6884
191.846
6.59151
7.24581
7.73073
8.12782
8.49452
8.86783
9.27053
9.71498
10.2097
10.7613
11.3761
12.0614
12.8258
13.68
14.636
15.708
16.9109
18.2605
19.7726
21.462
23.3391
25.4036
27.6378
29.9813
32.4364
35.1475
38.1884
41.526
45.0443
48.4508
51.295
53.49
55.203
56.5573
57.7215
59.0187
61.1775
66.2293
82.6454
188.42
6.34976
6.99966
7.5024
7.93446
8.34828
8.7768
9.2398
9.74768
10.3068
10.9226
11.6009
12.3481
13.1723
14.0831
15.0914
16.2094
17.4497
18.8249
20.3466
22.0245
23.8649
25.8644
28.0077
30.258
32.5883
35.1098
37.9452
41.0634
44.3366
47.472
50.0512
52.0139
53.5402
54.7644
55.8566
57.1308
59.2922
64.3171
80.4894
184.082
6.12838
6.77801
7.30254
7.77309
8.23707
8.72339
9.24882
9.82217
10.4474
11.1289
11.8717
12.6816
13.5661
14.534
15.5955
16.7614
18.0428
19.4498
20.9911
22.6724
24.4962
26.4568
28.5407
30.726
32.9824
35.3713
38.027
40.9534
44.0026
46.8299
49.1193
50.8688
52.2164
53.2931
54.2721
55.4635
57.552
62.4535
78.2216
179.021
5.92466
6.57738
7.12666
7.63813
8.15422
8.69993
9.28904
9.92886
10.6211
11.369
12.1764
13.0486
13.9924
15.0159
16.1285
17.3398
18.6596
20.0965
21.6572
23.3448
25.1594
27.0941
29.1359
31.2683
33.4829
35.8068
38.3265
41.0707
43.8475
46.3472
48.3873
49.9565
51.1419
52.0675
52.9091
53.975
55.9318
60.6325
75.8752
173.514
5.73608
6.39456
6.97073
7.52469
8.09403
8.69996
9.35341
10.0597
10.8195
11.6338
12.5056
13.4393
14.4409
15.5177
16.6778
17.93
19.2825
20.7427
22.3157
24.0033
25.8049
27.7136
29.7182
31.8054
33.97
36.2366
38.6442
41.1714
43.6586
45.8916
47.7286
49.141
50.1858
50.9734
51.6772
52.6013
54.394
58.8455
73.491
167.831
5.56032
6.22661
6.83109
7.42839
8.05143
8.71778
9.43561
10.2081
11.0355
11.916
12.8518
13.8463
14.9044
16.0324
17.2374
18.5267
19.9074
21.3852
22.9639
24.6446
26.4261
28.3023
30.2641
32.301
34.4066
36.587
38.8511
41.1568
43.3867
45.3851
47.0376
48.3104
49.237
49.9095
50.4914
51.2785
52.8997
57.0835
71.1072
162.167
5.39524
6.07082
6.70441
7.34528
8.02189
8.74833
9.53011
10.3684
11.2625
12.2091
13.2085
14.2632
15.3769
16.555
17.8033
19.1279
20.5345
22.0277
23.61
25.2816
27.0408
28.8817
30.7959
32.7732
34.804
36.8798
38.9861
41.0775
43.0652
44.8388
46.3111
47.4466
48.2628
48.8332
49.3075
49.9694
51.4275
55.3552
68.8077
156.69
5.23886
5.92472
6.58765
7.27178
8.00133
8.78707
9.63198
10.5352
11.4947
12.5069
13.5693
14.6835
15.8521
17.0793
18.3699
19.7288
21.1606
22.6684
24.2539
25.9162
27.6526
29.4568
31.3196
33.2293
35.1718
37.1292
39.075
40.9642
42.7289
44.2907
45.5838
46.576
47.2762
47.7447
48.1176
48.6642
49.9712
53.6585
66.5636
151.414
5.0894
5.78606
6.4781
7.20471
7.9861
8.82992
9.73672
10.7038
11.7273
12.8038
13.9282
15.1008
16.3232
17.5984
18.9301
20.322
21.7775
23.2988
24.8862
26.5378
28.2494
30.0137
31.8202
33.6549
35.4999
37.3322
39.1209
40.8237
42.3871
43.7533
44.8725
45.7174
46.2947
46.657
46.9287
47.365
48.5304
51.9918
64.3728
146.343
4.94532
5.65289
6.37339
7.1413
7.97302
8.87327
9.84032
10.8696
11.9557
13.0942
14.2794
15.509
16.7836
18.105
19.4758
20.8986
22.3757
23.9079
25.4946
27.1324
28.8156
30.5357
32.2806
34.0344
35.777
37.4834
39.1222
40.6545
42.0363
43.2234
44.1775
44.8771
45.3289
45.5813
45.7504
46.0787
47.1093
50.357
62.2385
141.496
4.80529
5.52356
6.27151
7.07917
7.95937
8.91405
9.93933
11.0288
12.1757
13.3739
14.618
15.9026
17.2273
18.5926
19.9999
21.4508
22.9462
24.4861
26.0683
27.6884
29.3391
31.0106
32.6895
34.3585
35.9968
37.5795
39.0768
40.453
41.6706
42.6945
43.4949
44.0553
44.3831
44.5247
44.5905
44.8125
45.7135
48.7586
60.168
136.895
4.66821
5.39669
6.17083
7.0164
7.94289
8.94966
10.0308
11.1783
12.3836
13.6394
14.9395
16.2769
17.6492
19.0557
20.4965
21.9721
23.4824
25.0261
26.6
28.1984
29.8127
31.432
33.0416
34.6237
36.1573
37.6196
38.9836
40.2169
41.2853
42.1606
42.8195
43.2494
43.4578
43.4905
43.4542
43.572
44.3486
47.2024
58.1688
132.555
4.53323
5.27124
6.07008
6.95148
7.92178
8.978
10.1123
11.3151
12.5765
13.8874
15.2405
16.6282
18.0454
19.4902
20.9615
22.4585
23.9799
25.5237
27.0856
28.6589
30.2337
31.7982
33.337
34.8313
36.2605
37.6052
38.8437
39.9461
40.8783
41.6172
42.1481
42.4574
42.5524
42.48
42.3443
42.3612
43.0192
45.6929
56.2435
128.486
4.39969
5.14642
5.96833
6.88327
7.89469
8.99742
10.182
11.4372
12.7517
14.1152
15.5184
16.9536
18.413
19.8933
21.3921
22.9073
24.4367
25.9773
27.5241
29.0695
30.6028
32.1114
33.579
34.9864
36.3116
37.5397
38.66
39.6424
40.4514
41.0666
41.48
41.6777
41.6664
41.494
41.2628
41.1826
41.7271
44.2297
54.3736
124.698
4.26715
5.02174
5.86498
6.81102
7.86059
9.00664
10.2382
11.5427
12.9074
14.3205
15.7713
17.2509
18.7499
20.2632
21.7868
23.3175
24.852
26.3866
27.916
29.4315
30.9219
32.3739
33.7709
35.0928
36.3173
37.432
38.4366
39.3068
40.0059
40.5098
40.8146
40.9088
40.7989
40.5328
40.211
40.0383
40.4751
42.821
52.6412
121.228
4.13534
4.89695
5.75975
6.73423
7.81876
9.00467
10.2797
11.6302
13.042
14.5018
15.9976
17.5187
19.0549
20.5988
22.1451
23.6892
25.2266
26.7534
28.2637
29.7482
31.1951
32.5908