/*--------------------------------*- C++ -*----------------------------------*\
  =========                 |
  \\      /  F ield         | OpenFOAM: The Open Source CFD Toolbox
   \\    /   O peration     | Website:  https://openfoam.org
    \\  /    A nd           | Version:  8
     \\/     M anipulation  |
\*---------------------------------------------------------------------------*/
FoamFile
{
    version     2.0;
    format      ascii;
    class       volScalarField;
    location    "0.3";
    object      nut;
}
// * * * * * * * * * * * * * * * * * * * * * * * * * * * * * * * * * * * * * //

dimensions      [0 2 -1 0 0 0 0];

internalField   nonuniform List<scalar> 
9150
(
1.09015e-05
7.92626e-06
5.77401e-06
5.32804e-06
5.22611e-06
5.22611e-06
5.32804e-06
5.77401e-06
7.92626e-06
1.09015e-05
1.07903e-05
7.21303e-06
5.53606e-06
5.15849e-06
5.05995e-06
5.05995e-06
5.15849e-06
5.53606e-06
7.21303e-06
1.07903e-05
1.05885e-05
6.93398e-06
5.40727e-06
5.04972e-06
4.96204e-06
4.96204e-06
5.04972e-06
5.40727e-06
6.93398e-06
1.05885e-05
1.03601e-05
6.79613e-06
5.31581e-06
4.97522e-06
4.89534e-06
4.89534e-06
4.97522e-06
5.31581e-06
6.79613e-06
1.03601e-05
1.0109e-05
6.71948e-06
5.24524e-06
4.91821e-06
4.84321e-06
4.84321e-06
4.91821e-06
5.24524e-06
6.71948e-06
1.0109e-05
6.57302e-06
1.16765e-05
9.69545e-06
8.70194e-06
8.29866e-06
8.29866e-06
8.70195e-06
9.69546e-06
1.16765e-05
6.57302e-06
7.065e-06
1.00024e-05
8.49513e-06
7.80441e-06
7.50794e-06
7.50794e-06
7.80441e-06
8.49513e-06
1.00025e-05
7.065e-06
7.72619e-06
9.31717e-06
7.42987e-06
6.87757e-06
6.66307e-06
6.66307e-06
6.87757e-06
7.42987e-06
9.31717e-06
7.72619e-06
8.38392e-06
8.77294e-06
6.6116e-06
6.13585e-06
5.97396e-06
5.97396e-06
6.13585e-06
6.6116e-06
8.77294e-06
8.38392e-06
9.17704e-06
8.34327e-06
6.06598e-06
5.6226e-06
5.50095e-06
5.50095e-06
5.6226e-06
6.06598e-06
8.34327e-06
9.17704e-06
1.50814e-05
2.549e-05
1.43489e-05
9.71628e-06
8.96655e-06
8.96676e-06
9.7192e-06
1.43623e-05
2.55091e-05
1.50837e-05
8.58001e-06
1.10074e-05
9.86203e-06
9.113e-06
8.888e-06
8.88802e-06
9.1131e-06
9.86227e-06
1.10076e-05
8.58007e-06
8.14376e-06
1.04096e-05
9.74097e-06
9.04229e-06
8.84579e-06
8.84581e-06
9.04236e-06
9.74106e-06
1.04097e-05
8.14378e-06
7.72411e-06
1.00751e-05
9.64939e-06
8.95815e-06
8.80541e-06
8.80542e-06
8.95819e-06
9.64945e-06
1.00751e-05
7.72412e-06
7.20038e-06
1.03532e-05
9.48884e-06
8.82552e-06
8.71301e-06
8.71302e-06
8.82554e-06
9.48887e-06
1.03532e-05
7.20038e-06
0.000115538
0.000115549
0.000115525
0.000115476
0.000115425
0.000115424
0.000115472
0.000115518
0.000115538
0.000115522
0.00110758
0.00111281
0.00111708
0.00112019
0.00112188
0.00112188
0.00112019
0.00111708
0.0011128
0.00110755
0.00206524
0.00207951
0.00209078
0.00209865
0.00210276
0.00210285
0.00209892
0.00209121
0.00208007
0.00206591
0.0027214
0.0027473
0.00276775
0.00278199
0.00278943
0.00278967
0.00278271
0.0027689
0.00274884
0.00272325
0.00314681
0.003185
0.00321536
0.00323661
0.00324775
0.00324817
0.00323783
0.00321733
0.00318762
0.00314995
0.00341646
0.00346587
0.00350552
0.00353346
0.00354818
0.00354875
0.00353515
0.00350823
0.00346945
0.00342071
0.00358936
0.00364776
0.00369512
0.00372875
0.00374656
0.00374726
0.0037308
0.00369838
0.00365201
0.00359434
0.00370884
0.00377348
0.00382654
0.00386453
0.00388474
0.00388552
0.0038668
0.00383011
0.00377808
0.00371411
0.00380425
0.00387241
0.00392909
0.00397006
0.00399196
0.00399278
0.00397241
0.00393275
0.00387703
0.0038094
0.00389333
0.00396265
0.00402112
0.0040638
0.00408676
0.00408756
0.00406612
0.00402466
0.00396703
0.00389806
0.00398531
0.00405379
0.00411252
0.00415589
0.00417936
0.00418013
0.00415809
0.00411583
0.00405777
0.00398941
0.00408375
0.00414975
0.00420747
0.00425068
0.00427423
0.00427495
0.00425271
0.00421048
0.00415324
0.00408714
0.00418893
0.00425094
0.00430654
0.00434888
0.00437216
0.00437283
0.00435074
0.00430923
0.00425393
0.00419162
0.00429915
0.00435574
0.00440822
0.00444905
0.00447177
0.00447238
0.00445073
0.00441059
0.00435827
0.00430121
0.00441141
0.00446125
0.00450967
0.00454845
0.00457034
0.0045709
0.00454997
0.00451178
0.00446339
0.00441296
0.00452171
0.0045637
0.00460728
0.00464353
0.0046644
0.0046649
0.00464491
0.00460915
0.00456551
0.00452286
0.00462539
0.00465877
0.00469698
0.00473037
0.00475006
0.00475053
0.00473162
0.00469865
0.00466031
0.00462625
0.00471773
0.00474213
0.00477468
0.00480503
0.00482347
0.0048239
0.00480618
0.00477618
0.00474347
0.00471836
0.0047947
0.00480997
0.00483674
0.00486397
0.00488112
0.00488152
0.00486502
0.00483809
0.00481112
0.00479516
0.00485285
0.0048591
0.00488015
0.00490429
0.00492017
0.00492054
0.00490525
0.00488136
0.00486009
0.00485314
0.00489
0.0048874
0.00490287
0.00492399
0.00493863
0.00493896
0.00492486
0.00490392
0.0048882
0.00489011
0.00490461
0.00489357
0.00490373
0.00492198
0.00493541
0.00493571
0.00492275
0.00490463
0.00489418
0.00490452
0.00489568
0.00487718
0.00488248
0.00489803
0.00491031
0.00491057
0.00489869
0.00488321
0.00487756
0.00489534
0.00486388
0.00483887
0.00483975
0.00485274
0.00486389
0.00486412
0.0048533
0.0048403
0.00483902
0.00486326
0.00481076
0.00477997
0.00477678
0.00478733
0.00479738
0.00479757
0.00478778
0.00477714
0.00477985
0.00480981
0.00473832
0.0047022
0.00469521
0.00470345
0.0047124
0.00471256
0.00470379
0.00469539
0.0047018
0.00473701
0.00464798
0.00460726
0.00459691
0.00460297
0.00461086
0.00461099
0.0046032
0.0045969
0.0046066
0.00464632
0.00454128
0.0044972
0.00448403
0.00448807
0.00449491
0.004495
0.00448821
0.00448384
0.00449627
0.00453926
0.00442102
0.00437463
0.0043591
0.00436122
0.00436696
0.00436702
0.00436125
0.00435874
0.00437345
0.00441866
0.00429034
0.00424242
0.0042248
0.00422497
0.00422951
0.00422953
0.00422488
0.00422426
0.00424099
0.00428767
0.00415244
0.00410339
0.00408372
0.00408176
0.00408496
0.00408494
0.00408155
0.00408297
0.00410171
0.00414948
0.00401025
0.00396007
0.00393815
0.00393382
0.00393549
0.00393541
0.00393346
0.00393719
0.00395813
0.00400699
0.00386613
0.00381453
0.00379003
0.00378303
0.003783
0.00378286
0.00378251
0.00378883
0.00381231
0.00386259
0.00372191
0.00366837
0.00364096
0.00363111
0.00362929
0.00362909
0.00363041
0.00363951
0.00366586
0.00371807
0.00357881
0.00352284
0.00349239
0.00347972
0.00347617
0.00347591
0.00347884
0.00349069
0.00352005
0.00357468
0.00343743
0.00337901
0.00334581
0.00333067
0.00332562
0.00332531
0.00332964
0.0033439
0.00337598
0.00343306
0.00329804
0.00323802
0.00320289
0.00318594
0.00317979
0.00317943
0.00318481
0.00320083
0.00323483
0.00329351
0.00316185
0.00310152
0.00306553
0.00304761
0.0030408
0.00304042
0.00304642
0.0030634
0.00309826
0.00315729
0.00303076
0.00297137
0.00293562
0.00291752
0.00291049
0.0029101
0.00291632
0.0029335
0.00296817
0.0030263
0.00290671
0.00284927
0.00281462
0.002797
0.00279011
0.00278973
0.00279584
0.00281258
0.00284621
0.00290247
0.00279119
0.00273638
0.00270341
0.0026867
0.0026802
0.00267984
0.00268562
0.0027015
0.00273353
0.00278726
0.00268504
0.00263317
0.00260219
0.00258663
0.00258064
0.00258032
0.00258564
0.00260045
0.00263057
0.00268145
0.0025884
0.00253954
0.00251061
0.00249628
0.00249085
0.00249055
0.00249538
0.00250904
0.00253721
0.00258519
0.0025009
0.0024549
0.00242795
0.0024148
0.00240991
0.00240965
0.002414
0.00242656
0.00245284
0.00249805
0.00242179
0.00237842
0.00235328
0.00234121
0.00233684
0.00233661
0.00234051
0.00235205
0.0023766
0.00241928
0.00235016
0.00230915
0.00228563
0.00227453
0.00227061
0.0022704
0.00227391
0.00228455
0.00230756
0.00234797
0.00228509
0.00224615
0.00222406
0.00221382
0.0022103
0.00221012
0.00221328
0.00222312
0.00224477
0.00228319
0.00222569
0.00218858
0.00216774
0.00215828
0.00215511
0.00215496
0.0021578
0.00216692
0.00218738
0.00222405
0.00217119
0.00213567
0.00211596
0.00210718
0.00210435
0.00210421
0.00210676
0.00211524
0.00213463
0.00216978
0.00212091
0.00208679
0.00206807
0.00205993
0.00205741
0.00205729
0.00205957
0.00206746
0.00208589
0.0021197
0.00207425
0.00204137
0.00202357
0.00201602
0.00201379
0.00201369
0.00201571
0.00202304
0.0020406
0.00207322
0.00203071
0.00199894
0.00198199
0.00197501
0.00197307
0.00197298
0.00197474
0.00198153
0.00199829
0.00202984
0.00198985
0.0019591
0.00194295
0.00193652
0.00193488
0.0019348
0.00193629
0.00194255
0.00195854
0.00198912
0.00195129
0.00192148
0.00190611
0.00190025
0.00189891
0.00189884
0.00190004
0.00190577
0.00192101
0.00195068
0.0019147
0.00188579
0.0018712
0.00186593
0.0018649
0.00186484
0.00186575
0.00187091
0.00188539
0.00191419
0.00187978
0.00185176
0.00183798
0.00183333
0.00183266
0.0018326
0.00183317
0.00183773
0.00185143
0.00187936
0.0018463
0.00181919
0.00180627
0.0018023
0.001802
0.00180195
0.00180216
0.00180605
0.00181891
0.00184595
0.00181405
0.0017879
0.00177591
0.00177269
0.00177282
0.00177278
0.00177257
0.00177572
0.00178767
0.00181376
0.00178286
0.00175777
0.0017468
0.00174442
0.00174502
0.00174498
0.00174431
0.00174664
0.00175757
0.00178263
0.00175262
0.00172868
0.00171886
0.00171742
0.00171856
0.00171853
0.00171732
0.00171872
0.00172852
0.00175244
0.00172324
0.00170059
0.00169207
0.00169169
0.00169344
0.0016934
0.0016916
0.00169194
0.00170046
0.0017231
0.00169466
0.00167347
0.0016664
0.00166722
0.00166965
0.00166962
0.00166714
0.0016663
0.00167336
0.00169455
0.00166687
0.00164733
0.0016419
0.00164407
0.00164727
0.00164724
0.001644
0.00164181
0.00164724
0.00166679
0.00163988
0.0016222
0.00161862
0.0016223
0.00162637
0.00162634
0.00162224
0.00161854
0.00162213
0.00163983
0.00161374
0.00159814
0.00159664
0.00160202
0.00160704
0.00160702
0.00160196
0.00159657
0.00159809
0.00161371
0.00158851
0.00157527
0.00157607
0.00158334
0.00158943
0.00158941
0.00158329
0.00157602
0.00157524
0.00158851
0.00156434
0.00155371
0.00155707
0.00156641
0.00157367
0.00157366
0.00156637
0.00155704
0.0015537
0.00156436
0.00154137
0.00153365
0.00153979
0.00155138
0.00155992
0.00155991
0.00155136
0.00153978
0.00153366
0.00154142
0.00151979
0.0015153
0.00152441
0.00153842
0.00154833
0.00154832
0.00153841
0.00152442
0.00151533
0.00151986
0.00149994
0.00149874
0.00151106
0.00152767
0.00153905
0.00153905
0.00152767
0.00151109
0.0014988
0.00150004
0.00148178
0.00148412
0.0014999
0.00151929
0.00153224
0.00153225
0.00151931
0.00149995
0.0014842
0.00148191
0.00146528
0.00147154
0.00149108
0.00151346
0.00152808
0.00152809
0.00151351
0.00149116
0.00147167
0.00146545
0.00145063
0.00146121
0.00148482
0.0015104
0.00152678
0.0015268
0.00151046
0.00148493
0.00146138
0.00145085
0.0014381
0.0014534
0.00148137
0.00151034
0.00152857
0.0015286
0.00151043
0.00148153
0.00145362
0.00143837
0.00142799
0.0014484
0.00148102
0.00151353
0.00153369
0.00153373
0.00151365
0.00148122
0.00144867
0.00142833
0.00142062
0.00144652
0.00148403
0.00152022
0.00154236
0.00154241
0.00152037
0.00148428
0.00144686
0.00142104
0.00141635
0.00144807
0.00149069
0.00153065
0.00155478
0.00155485
0.00153083
0.00149099
0.00144849
0.00141685
0.00141551
0.00145337
0.00150125
0.00154502
0.00157116
0.00157123
0.00154524
0.00150162
0.00145388
0.00141612
0.00141851
0.00146274
0.00151595
0.00156352
0.00159162
0.00159171
0.00156379
0.0015164
0.00146335
0.00141923
0.00142573
0.0014765
0.00153503
0.0015863
0.00161628
0.00161638
0.00158661
0.00153555
0.00147722
0.0014266
0.00143762
0.00149495
0.00155865
0.00161343
0.00164518
0.0016453
0.0016138
0.00155927
0.0014958
0.00143865
0.00145462
0.00151836
0.00158694
0.00164494
0.00167828
0.00167843
0.00164538
0.00158768
0.00151937
0.00145585
0.00147719
0.00154698
0.00161996
0.00168075
0.00171543
0.00171561
0.00168128
0.00162085
0.00154819
0.00147865
0.00150583
0.00158103
0.00165767
0.00172064
0.00175633
0.00175654
0.00172128
0.00165874
0.00158248
0.00150758
0.00154105
0.00162064
0.00169989
0.00176419
0.00180043
0.0018007
0.00176498
0.00170118
0.00162239
0.00154317
0.00158341
0.00166587
0.00174624
0.00181072
0.0018469
0.00184722
0.00181169
0.00174783
0.00166801
0.00158597
0.00163345
0.00171663
0.00179606
0.00185913
0.00189438
0.00189478
0.00186033
0.00179801
0.00171925
0.00163659
0.00169171
0.00177257
0.00184821
0.0019077
0.00194087
0.00194136
0.00190917
0.00185061
0.00177578
0.00169556
0.00175857
0.00183294
0.00190091
0.00195383
0.00198332
0.00198393
0.00195563
0.00190382
0.00183683
0.00176324
0.00183407
0.00189632
0.00195139
0.00199369
0.00201729
0.00201801
0.00199584
0.00195486
0.00190097
0.00183968
0.00191774
0.00196036
0.00199546
0.00202162
0.0020363
0.00203714
0.00202412
0.0019995
0.00196578
0.00192431
0.00200822
0.0020213
0.00202699
0.00202951
0.00203111
0.00203206
0.00203233
0.00203154
0.0020274
0.00201567
0.00210281
0.00207337
0.00203715
0.00200593
0.00198879
0.00198984
0.00200901
0.00204208
0.00207996
0.00211091
0.00219664
0.00210774
0.00201337
0.00193523
0.00189184
0.00189296
0.00193846
0.0020185
0.00211454
0.002205
0.00228091
0.00211063
0.00193814
0.00179703
0.00171809
0.00171923
0.00180029
0.00194319
0.00211725
0.00228906
0.00233898
0.00205925
0.00178754
0.00156768
0.0014432
0.00144432
0.00157078
0.00179219
0.00206525
0.00234636
0.00233695
0.00191423
0.00153172
0.00122824
0.00105163
0.00105267
0.00123096
0.0015356
0.00191914
0.002343
0.00220168
0.00161128
0.00114498
0.000789331
0.00057083
0.000571702
0.000791362
0.0011477
0.00161467
0.00220592
0.00177608
0.00108452
0.000643032
0.000335911
0.000151065
0.000151529
0.000336942
0.000644381
0.00108617
0.00177818
0.00087015
0.000417823
0.000174537
5.12715e-05
1.43333e-05
1.43626e-05
5.14444e-05
0.000174849
0.000418149
0.00087037
0.000115459
0.000115372
0.000115258
0.000115121
0.000114973
0.00011484
0.000114739
0.000114659
0.000114618
0.000114657
0.000114813
0.000115116
0.000115603
0.000116308
0.000117255
0.000118463
0.00011994
0.000121675
0.000123636
0.000125773
0.000128018
0.000130305
0.000132576
0.000134774
0.000136734
0.000138436
0.000139971
0.000141253
0.000142064
0.000142091
0.000141672
0.000140557
0.000138771
0.000136233
0.000132839
0.000128396
0.000122592
0.000114476
9.97192e-05
3.98331e-05
0.00110117
0.00109379
0.00108598
0.00107805
0.00107029
0.00106301
0.00105654
0.00105119
0.00104724
0.00104494
0.00104453
0.00104616
0.00104993
0.00105581
0.00106368
0.00107331
0.00108435
0.00109635
0.00110876
0.001121
0.00113248
0.0011427
0.00115122
0.00115767
0.00116168
0.00116286
0.00116084
0.00115506
0.00114416
0.00112532
0.00109231
0.00104198
0.000976553
0.000898614
0.000811904
0.000720091
0.000625782
0.00052334
0.000370542
6.59218e-05
0.00204814
0.00202695
0.00200399
0.00198008
0.00195604
0.00193268
0.00191078
0.00189109
0.0018743
0.00186098
0.00185163
0.00184662
0.00184615
0.00185027
0.0018588
0.0018714
0.00188748
0.00190627
0.00192683
0.0019481
0.00196903
0.00198854
0.00200566
0.00201946
0.00202904
0.00203351
0.00203177
0.00202236
0.00200294
0.00197002
0.00191877
0.00184508
0.00174688
0.00162344
0.00147551
0.00130471
0.00111026
0.000877156
0.000546615
7.93478e-05
0.00269118
0.00265293
0.00261172
0.00256909
0.00252656
0.00248556
0.00244741
0.00241329
0.00238418
0.00236088
0.00234398
0.00233388
0.00233072
0.00233442
0.00234464
0.00236081
0.00238208
0.00240743
0.00243562
0.00246534
0.00249519
0.00252382
0.00254989
0.00257208
0.00258905
0.00259934
0.00260123
0.00259254
0.00257044
0.00253167
0.00247221
0.00238804
0.0022759
0.00213282
0.00195575
0.00174029
0.00147674
0.00113881
0.00066408
8.77355e-05
0.00310315
0.00304794
0.00298932
0.0029297
0.00287136
0.00281631
0.00276629
0.00272271
0.00268665
0.00265887
0.00263983
0.00262972
0.00262841
0.00263555
0.0026505
0.00267239
0.00270013
0.00273245
0.00276793
0.00280509
0.00284242
0.00287846
0.00291174
0.00294073
0.00296374
0.00297874
0.00298327
0.00297455
0.00294971
0.00290569
0.00283888
0.00274556
0.00262264
0.00246653
0.002272
0.00203
0.00172322
0.00131602
0.000743082
9.42272e-05
0.00336089
0.00329136
0.00321893
0.00314686
0.00307804
0.00301491
0.00295935
0.00291274
0.002876
0.00284964
0.0028338
0.00282831
0.00283272
0.00284632
0.00286817
0.00289712
0.00293185
0.00297091
0.00301279
0.00305594
0.00309888
0.0031402
0.00317841
0.0032118
0.00323818
0.00325504
0.00325952
0.00324847
0.00321864
0.00316671
0.00308939
0.0029837
0.00284743
0.00267755
0.00246811
0.00220733
0.00187272
0.00142221
0.000789592
9.91529e-05
0.00352454
0.00344483
0.00336356
0.00328469
0.0032115
0.00314652
0.00309152
0.0030476
0.00301534
0.00299486
0.00298593
0.00298803
0.00300035
0.00302187
0.00305138
0.0030875
0.00312875
0.00317356
0.00322035
0.00326762
0.00331402
0.00335819
0.00339851
0.00343317
0.00346003
0.00347632
0.00347867
0.00346318
0.00342587
0.00336313
0.00327206
0.00315075
0.00299798
0.00281199
0.00258686
0.00230908
0.00195275
0.00147188
0.000805532
0.000101838
0.00363789
0.00355252
0.00346753
0.0033873
0.00331518
0.00325352
0.00320372
0.00316649
0.00314198
0.00312993
0.00312979
0.00314074
0.0031617
0.00319138
0.00322833
0.00327099
0.00331774
0.00336691
0.00341688
0.00346617
0.0035133
0.00355692
0.00359614
0.00362969
0.00365515
0.00366909
0.00366743
0.00364572
0.00359969
0.00352557
0.00342072
0.00328428
0.00311394
0.00290998
0.00266908
0.00237706
0.00200343
0.00149659
0.000806813
0.000102195
0.00373017
0.00364331
0.00355906
0.00348191
0.003415
0.00336023
0.00331854
0.00329014
0.00327483
0.00327211
0.00328125
0.00330126
0.00333089
0.00336861
0.00341269
0.00346133
0.00351278
0.00356509
0.00361651
0.00366385
0.00370699
0.00374732
0.0037842
0.00381521
0.00383696
0.00384568
0.00383735
0.003808
0.00375464
0.00367371
0.00356066
0.00341337
0.00322852
0.0030092
0.00275688
0.0024586
0.002072
0.00153643
0.00081433
0.000101242
0.00381876
0.00373387
0.00365391
0.00358317
0.0035243
0.00347861
0.00344645
0.00342762
0.00342167
0.00342805
0.00344612
0.00347501
0.0035135
0.00355994
0.00361222
0.00366784
0.00372415
0.00377787
0.00382316
0.00386209
0.00390073
0.00393804
0.0039712
0.00399662
0.0040102
0.00400838
0.00398812
0.00394714
0.00388311
0.00379104
0.00366734
0.00350828
0.00331582
0.0030924
0.00283818
0.00254977
0.00215418
0.00158451
0.000819467
0.000100982
0.0039125
0.00383241
0.00375955
0.00369773
0.00364891
0.00361363
0.00359159
0.00358219
0.00358486
0.00359933
0.00362547
0.00366304
0.00371127
0.00376899
0.00383493
0.00390674
0.00395877
0.00400086
0.00402875
0.00406295
0.00409908
0.00413261
0.00415924
0.0041746
0.00417342
0.00415409
0.00411465
0.00405323
0.00396785
0.0038574
0.00372161
0.00355882
0.00336816
0.00314989
0.00290163
0.0026073
0.00218901
0.00160894
0.000830398
0.000101007
0.00401475
0.00394194
0.00387866
0.00382804
0.00379108
0.00376739
0.00375587
0.00375544
0.00376564
0.00378664
0.0038193
0.00386469
0.00392267
0.00399254
0.00407553
0.00414697
0.00420166
0.00420298
0.00422908
0.00426506
0.00430058
0.00432836
0.0043423
0.00434018
0.00432006
0.0042797
0.00421801
0.00413464
0.00402964
0.00390345
0.00375646
0.00358824
0.0033977
0.00318244
0.00293346
0.00261932
0.00218632
0.00161016
0.000839706
0.000101018
0.00412574
0.00406265
0.00401153
0.00397459
0.00395168
0.00394128
0.00394135
0.00394998
0.00396697
0.00399248
0.00402865
0.00407479
0.00412883
0.00419234
0.00426539
0.0043482
0.00438762
0.00439977
0.00443056
0.00446678
0.00449801
0.00451536
0.00450847
0.00448239
0.0044398
0.00437772
0.00429536
0.00419337
0.00407298
0.00393567
0.00378198
0.003611
0.00342004
0.00320322
0.00294626
0.00261529
0.00217677
0.0016034
0.000843322
0.000100866
0.00424386
0.00419299
0.0041568
0.00413642
0.00413066
0.00413683
0.00415159
0.00417063
0.00419
0.0042128
0.00424185
0.00427824
0.00432428
0.00438464
0.00446113
0.0045283
0.00456135
0.00458826
0.0046179
0.00464511
0.00466242
0.00466242
0.00463614
0.00458878
0.00452409
0.00444148
0.00434176
0.00422664
0.00409785
0.00395678
0.00380295
0.00363375
0.00344402
0.00322483
0.00295949
0.00261793
0.00217532
0.00160037
0.000844407
0.000100647
0.00436602
0.00432979
0.00431132
0.004311
0.00432677
0.00435489
0.00438128
0.00439932
0.00441127
0.00442556
0.00444533
0.00447527
0.00452157
0.00458581
0.00466011
0.00471718
0.00474497
0.00476406
0.00478057
0.00478944
0.00478499
0.00476269
0.00471853
0.00465227
0.00456774
0.004468
0.00435591
0.00423413
0.00410428
0.0039666
0.0038187
0.00365549
0.00346919
0.00324875
0.00297743
0.00263015
0.00218439
0.00160573
0.000848319
0.000100596
0.0044879
0.00446834
0.00447027
0.00449341
0.00453359
0.00457576
0.00460116
0.00461282
0.00461889
0.00462532
0.00464018
0.00467062
0.00472086
0.00478788
0.00485669
0.00489837
0.0049115
0.00491655
0.00491467
0.00490144
0.00487241
0.0048249
0.00475833
0.00467318
0.00457173
0.00445918
0.00434
0.00421742
0.00409229
0.00396314
0.00382528
0.00367112
0.00349066
0.00327152
0.00299772
0.00264937
0.00220217
0.00161954
0.000856104
0.000100862
0.00460429
0.00460293
0.00462753
0.0046774
0.00473615
0.00478173
0.0048053
0.0048122
0.00481133
0.00481239
0.00482551
0.00485752
0.00490981
0.00497513
0.00503441
0.00506049
0.00505647
0.00504271
0.00501912
0.00498148
0.0049264
0.00485249
0.00476169
0.00465723
0.00454116
0.00441945
0.0042973
0.00417803
0.00406134
0.00394375
0.00381832
0.00367541
0.00350346
0.00328934
0.00301788
0.0026713
0.00222425
0.00163814
0.000866745
0.000101787
0.00470993
0.00472739
0.00477467
0.0048476
0.00492126
0.00496783
0.00498818
0.00499104
0.00498577
0.00498422
0.00499632
0.00502779
0.00507801
0.0051375
0.00518584
0.00519733
0.00517456
0.00513981
0.00509335
0.00503099
0.0049501
0.00485072
0.00473673
0.00461385
0.0044849
0.00435615
0.00423309
0.00411891
0.00401224
0.00390731
0.0037952
0.00366485
0.00350384
0.00329861
0.00303411
0.00269238
0.00224767
0.00165956
0.000880129
0.00010324
0.00480067
0.00483797
0.00491048
0.00500269
0.00507964
0.00512609
0.00514496
0.00514577
0.00513882
0.00513552
0.00514503
0.0051722
0.00521572
0.00526601
0.00530348
0.00530348
0.00526315
0.00520744
0.005139
0.00505351
0.00494896
0.00482656
0.00469171
0.00455275
0.00441317
0.00427801
0.00415432
0.00404524
0.00394844
0.00385576
0.00375657
0.00363903
0.00349067
0.00329763
0.00304402
0.00271078
0.00227069
0.00168169
0.00089476
0.00010478
0.00487218
0.00492795
0.00502138
0.0051285
0.0052095
0.00525581
0.00527385
0.00527367
0.00526563
0.00525999
0.00526466
0.00528389
0.00531669
0.00535493
0.00538154
0.00537481
0.00532203
0.00524736
0.00515946
0.00505402
0.00492949
0.00478787
0.00463511
0.00448135
0.00433337
0.00419366
0.00406934
0.00396457
0.00387655
0.00379473
0.0037068
0.00360102
0.00346583
0.0032874
0.00304817
0.00272645
0.00229243
0.00170209
0.000906367
0.000106176
0.00492249
0.00499638
0.00510905
0.00522602
0.00530818
0.00535465
0.00537297
0.00537246
0.00536316
0.00535403
0.00535193
0.00536084
0.00538073
0.00540578
0.00542272
0.00541274
0.00535261
0.00526239
0.00515878
0.00503777
0.00489812
0.00474219
0.00457612
0.00440991
0.0042531
0.00410971
0.00398595
0.00388413
0.00380232
0.00372875
0.00364926
0.00355264
0.0034296
0.00326703
0.00304522
0.00273891
0.00231446
0.00172534
0.000921732
0.000107783
0.00494983
0.00504251
0.00516964
0.00528744
0.00537141
0.00541995
0.00543985
0.00543983
0.00542924
0.00541597
0.00540607
0.00540335
0.00540867
0.0054185
0.00542324
0.00540784
0.0053531
0.00525631
0.00514096
0.00500937
0.00486022
0.00469582
0.00452205
0.00434824
0.00418442
0.00403623
0.00390985
0.00380776
0.00372711
0.00365778
0.00358167
0.0034885
0.0033742
0.00322798
0.00302654
0.00274029
0.00233259
0.00175468
0.000949419
0.000109902
0.00495148
0.00505844
0.00519601
0.00531602
0.00540047
0.00545033
0.00547211
0.00547334
0.00546215
0.00544528
0.00542795
0.00541376
0.00540436
0.00539849
0.00539056
0.00537003
0.00532251
0.00522953
0.00510828
0.00497183
0.00481915
0.00465244
0.00447712
0.00430117
0.00413352
0.00398063
0.00384874
0.00374153
0.0036572
0.00358647
0.0035112
0.00341894
0.00330677
0.00316779
0.00298366
0.00272023
0.00233448
0.00177677
0.000977271
0.000114791
0.00492831
0.00504619
0.00519022
0.00531028
0.00539516
0.00544706
0.00547152
0.00547475
0.00546371
0.00544412
0.00542048
0.00539608
0.00537295
0.00535132
0.00532867
0.00529908
0.00525432
0.00518073
0.00506512
0.00492761
0.00477652
0.0046133
0.00444283
0.00427143
0.00410551
0.0039511
0.003814
0.00369891
0.00360655
0.00352988
0.00345181
0.00335772
0.00324334
0.00310423
0.00292853
0.0026834
0.0023198
0.00178263
0.000984553
0.000121509
0.00488241
0.0050081
0.00515423
0.00527449
0.00536087
0.00541539
0.00544272
0.0054481
0.00543752
0.00541602
0.00538757
0.00535519
0.00532094
0.00528577
0.00524887
0.00520715
0.00515595
0.00508899
0.00499801
0.00487427
0.00473141
0.00457749
0.00441756
0.00425655
0.00409814
0.00394665
0.00380691
0.00368377
0.00357966
0.00349122
0.0034073
0.00331079
0.00319195
0.00304842
0.00287171
0.00263761
0.00229445
0.00177109
0.00097707
0.000126115
0.00481681
0.00494744
0.00509009
0.00521013
0.00529851
0.00535595
0.00538629
0.00539416
0.00538475
0.00536266
0.00533155
0.00529426
0.00525282
0.0052085
0.00516138
0.00511
0.00505127
0.00498228
0.0048994
0.00479855
0.00467708
0.00454007
0.00439479
0.00424606
0.00409721
0.00395121
0.00381134
0.00368145
0.00356459
0.00346174
0.00336725
0.00326757
0.0031474
0.00299988
0.00281971
0.00259002
0.00226195
0.00175561
0.000977204
0.000134735
0.00473232
0.0048653
0.00500302
0.00512047
0.00520896
0.00526821
0.00530125
0.00531206
0.00530474
0.00528373
0.00525247
0.00521365
0.00516938
0.00512108
0.00506941
0.00501389
0.00495271
0.0048837
0.00480449
0.00471255
0.00460651
0.00448705
0.00435735
0.00422145
0.00408253
0.00394277
0.00380418
0.00366954
0.00354257
0.00342617
0.00331894
0.0032133
0.00309469
0.00294928
0.00276911
0.00254056
0.00222291
0.00173764
0.000986582
0.000141462
0.0046289
0.00476276
0.00489625
0.00500933
0.00509563
0.00515496
0.00518965
0.00520301
0.00519845
0.00517974
0.00515016
0.00511232
0.00506828
0.00501953
0.00496692
0.00491042
0.00484898
0.00478098
0.00470481
0.00461874
0.00452169
0.00441389
0.00429687
0.00417282
0.00404366
0.0039106
0.00377455
0.00363713
0.00350165
0.00337255
0.00325247
0.00313868
0.00302085
0.00288287
0.00271026
0.00248721
0.00217862
0.00171364
0.000985402
0.000139396
0.00451004
0.00464319
0.00477237
0.00488079
0.00496395
0.00502203
0.00505715
0.00507215
0.00507006
0.00505378
0.00502649
0.00499064
0.00494818
0.00490052
0.00484852
0.00479235
0.00473143
0.0046648
0.00459149
0.00451044
0.00442089
0.00432278
0.0042167
0.00410349
0.00398374
0.0038575
0.00372455
0.00358538
0.00344253
0.00330123
0.00316765
0.00304413
0.00292486
0.00279489
0.00263469
0.00242178
0.00212422
0.00167525
0.000957823
0.000134087
0.00437932
0.00451044
0.00463557
0.00473969
0.00481945
0.00487551
0.00491
0.00492554
0.00492488
0.00491063
0.00488528
0.00485131
0.0048105
0.00476416
0.00471308
0.00465759
0.00459751
0.00453256
0.00446239
0.00438654
0.00430459
0.00421624
0.00412133
0.00401951
0.00391001
0.00379157
0.00366279
0.00352314
0.00337435
0.00322183
0.00307437
0.0029396
0.00281698
0.00269261
0.00254283
0.00234019
0.00205189
0.0016119
0.000912459
0.00013007
0.00424049
0.00436853
0.00448958
0.00458976
0.00466633
0.00472022
0.0047536
0.00476896
0.00476884
0.00475568
0.0047317
0.00469894
0.00465921
0.00461375
0.00456335
0.00450847
0.00444939
0.00438638
0.00431973
0.00424955
0.00417572
0.00409787
0.00401515
0.00392612
0.00382864
0.00372002
0.0035976
0.00345977
0.00330752
0.00314605
0.00298572
0.00283892
0.00271037
0.00258784
0.00244365
0.00224556
0.00195793
0.00152228
0.000861312
0.000126356
0.00409702
0.00422122
0.00433804
0.00443459
0.00450838
0.00456036
0.00459258
0.00460745
0.00460736
0.00459459
0.00457122
0.00453909
0.00449977
0.00445458
0.00440444
0.00435002
0.00429193
0.00423097
0.00416802
0.00410375
0.00403842
0.00397162
0.00390199
0.00382712
0.00374355
0.00364715
0.00353382
0.00340073
0.00324797
0.00308029
0.00290935
0.00275035
0.00261288
0.00248715
0.00234302
0.00214124
0.00184594
0.0014204
0.000807596
0.000122559
0.00395177
0.00407171
0.00418422
0.00427748
0.00434898
0.00439945
0.00443075
0.00444514
0.0044449
0.00443219
0.00440899
0.00437704
0.00433782
0.00429259
0.00424238
0.00418814
0.00413088
0.00407186
0.0040125
0.00395403
0.00389712
0.00384141
0.00378521
0.00372528
0.00365702
0.00357489
0.00347332
0.00334793
0.00319892
0.003029
0.00284851
0.00267506
0.00252377
0.0023899
0.00224077
0.00203163
0.00173042
0.00131613
0.000749403
0.000118261
0.0038069
0.00392235
0.00403058
0.00412086
0.00419048
0.00423983
0.00427056
0.00428472
0.00428447
0.00427187
0.00424881
0.00421694
0.00417773
0.00413241
0.00408213
0.00402804
0.00397153
0.00391428
0.00385821
0.0038051
0.00375605
0.00371087
0.00366768
0.00362268
0.00357032
0.00350386
0.0034164
0.00330423
0.00316356
0.00299543
0.00280832
0.00261919
0.00244751
0.00229651
0.00213608
0.00191497
0.00160903
0.00120971
0.000684384
0.000113115
0.00366358
0.00377418
0.00387816
0.00396561
0.00403358
0.00408214
0.00411268
0.00412706
0.00412726
0.0041152
0.00409267
0.00406125
0.00402237
0.00397728
0.00392721
0.00387353
0.00381789
0.00376236
0.00370929
0.00366094
0.00361883
0.00358304
0.00355169
0.00352068
0.00348386
0.00343351
0.00336372
0.00326785
0.00314025
0.00297967
0.00279139
0.0025893
0.00239342
0.00221482
0.0020317
0.00179341
0.00148437
0.00110113
0.000616506
0.000107127
0.00352192
0.00362762
0.00372716
0.00381155
0.00387777
0.00392568
0.00395639
0.00397152
0.00397282
0.00396203
0.00394078
0.00391056
0.00387273
0.00382856
0.00377937
0.00372666
0.00367233
0.00361871
0.0035685
0.00352433
0.00348808
0.00346014
0.00343881
0.00341997
0.00339731
0.00336302
0.00331149
0.00323415
0.00312418
0.00297803
0.0027973
0.00259087
0.00237468
0.00216278
0.00194411
0.00168536
0.00137298
0.00100193
0.000556679
0.000100704
0.00338184
0.00348312
0.00357786
0.00365859
0.00372263
0.00376972
0.00380073
0.00381698
0.00381997
0.00381118
0.00379206
0.00376396
0.00372816
0.00368592
0.00363859
0.00358778
0.00353552
0.00348433
0.00343712
0.00339672
0.00336523
0.00334338
0.0033298
0.00332072
0.00331003
0.00329059
0.00325603
0.00319765
0.0031079
0.00298153
0.00281703
0.00261808
0.00239395
0.00215524
0.00190183
0.00162088
0.0013029
0.000940105
0.000518673
9.52392e-05
0.00324423
0.00334115
0.00343084
0.00350737
0.00356864
0.00361444
0.00364549
0.00366283
0.0036677
0.00366135
0.003645
0.00361985
0.00358708
0.00354789
0.00350365
0.00345597
0.00340695
0.00335916
0.00331552
0.00327891
0.00325174
0.00323493
0.00322738
0.00322569
0.00322425
0.00321633
0.00319564
0.00315391
0.00308349
0.00297817
0.00283421
0.00265135
0.00243316
0.00218558