/*--------------------------------*- C++ -*----------------------------------*\
  =========                 |
  \\      /  F ield         | OpenFOAM: The Open Source CFD Toolbox
   \\    /   O peration     | Website:  https://openfoam.org
    \\  /    A nd           | Version:  8
     \\/     M anipulation  |
\*---------------------------------------------------------------------------*/
FoamFile
{
    version     2.0;
    format      ascii;
    class       volScalarField;
    location    "0.3";
    object      p;
}
// * * * * * * * * * * * * * * * * * * * * * * * * * * * * * * * * * * * * * //

dimensions      [1 -1 -2 0 0 0 0];

internalField   nonuniform List<scalar> 
9150
(
360.803
333.82
308.508
291.389
283.101
283.101
291.389
308.508
333.82
360.803
332.035
312.423
296.956
285.166
279.227
279.227
285.166
296.956
312.423
332.035
302.75
289.12
280.815
272.99
268.939
268.939
272.99
280.815
289.12
302.75
278.187
267.986
262.79
257.295
254.361
254.361
257.295
262.79
267.986
278.187
257.085
247.758
243.533
239.203
236.752
236.752
239.203
243.533
247.758
257.085
-7.61909
-9.36363
15.1247
29.1308
35.8912
35.891
29.1302
15.1238
-9.36479
-7.62069
162.878
139.488
134.159
133.152
133.363
133.363
133.152
134.158
139.487
162.877
266.323
236.352
220.963
211.308
206.753
206.753
211.308
220.963
236.352
266.323
346.965
306.231
279.229
261.98
253.486
253.486
261.98
279.229
306.231
346.965
402.89
347.485
308.788
286.752
276.567
276.567
286.752
308.788
347.485
402.89
-94.9687
-49.9181
-56.7092
-48.4584
-53.7166
-53.7206
-48.4664
-56.7183
-49.9403
-94.9906
-86.3246
-62.2647
-81.4462
-67.8016
-76.7019
-76.7047
-67.8043
-81.4589
-62.273
-86.3388
-117.603
-89.5848
-127.468
-109.931
-113.171
-113.173
-109.931
-127.475
-89.5908
-117.612
-294.73
-170.755
-168.111
-141.449
-126.34
-126.341
-141.45
-168.116
-170.757
-294.737
-470.317
-207.424
-118.513
-86.052
-68.8173
-68.8176
-86.053
-118.515
-207.426
-470.322
1266.99
1281.33
1292.3
1299.66
1303.3
1303.24
1299.46
1291.96
1280.84
1266.33
1149.78
1162.19
1171.84
1178.46
1181.87
1181.8
1178.25
1171.49
1161.69
1149.11
1029.51
1039.86
1047.86
1053.29
1056.02
1055.95
1053.09
1047.52
1039.37
1028.87
945.961
955.845
963.426
968.549
971.105
971.045
968.368
963.118
955.402
945.37
880.081
890.191
897.968
903.239
905.881
905.832
903.088
897.707
889.808
879.558
823.281
834.296
842.792
848.565
851.471
851.436
848.456
842.6
834.003
822.864
770.218
782.64
792.25
798.798
802.109
802.093
798.746
792.148
782.466
769.94
717.717
731.845
742.812
750.307
754.115
754.121
750.319
742.81
731.802
717.591
664.49
680.388
692.77
701.263
705.595
705.622
701.336
692.866
680.468
664.503
610.824
628.293
641.937
651.327
656.135
656.18
651.452
642.112
628.47
610.946
558.268
576.79
591.296
601.309
606.449
606.504
601.461
591.512
577.022
558.458
509.265
527.926
542.595
552.761
557.994
558.047
552.909
542.809
528.165
509.481
466.078
483.733
497.664
507.378
512.397
512.44
507.501
497.849
483.946
466.263
429.669
445.281
457.682
466.363
470.869
470.903
466.462
457.836
445.45
429.774
400.477
412.459
422.806
430.086
433.863
433.892
430.171
422.933
412.573
400.485
378.379
384.09
391.861
397.757
400.796
400.824
397.838
391.966
384.151
378.312
360.957
358.845
363.123
367.817
370.326
370.357
367.894
363.204
358.876
360.861
341.202
335.533
335.631
338.979
341.197
341.23
339.056
335.707
335.567
341.134
311.075
311.024
308.222
310.283
312.397
312.438
310.377
308.323
311.093
311.039
271.902
286.264
282.41
282.828
284.6
284.645
282.938
282.545
286.387
271.906
224.539
262.699
259.373
257.451
258.441
258.486
257.567
259.521
262.838
224.554
177.989
234.319
234.62
231.961
232.51
232.556
232.079
234.768
234.451
178.026
136.996
203.918
209.77
207.549
207.851
207.889
207.651
209.902
204.025
137.025
97.1002
174.785
189.788
187.413
186.728
186.758
187.501
189.911
174.871
97.1138
65.6225
148.45
172.236
169.829
168.069
168.095
169.904
172.343
148.536
65.6711
44.9656
124.338
153.883
152.36
150.152
150.17
152.413
153.957
124.403
45.0287
30.5812
101.943
134.811
134.833
132.734
132.746
134.87
134.863
101.99
30.6438
20.3673
82.6534
117.248
118.889
116.964
116.975
118.922
117.289
82.69
20.4306
13.0928
65.3146
101.304
105.16
103.336
103.349
105.195
101.342
65.3444
13.1564
7.90335
51.007
87.0578
92.728
91.0653
91.0783
92.764
87.0969
51.0394
7.96958
4.26936
39.411
74.2844
81.2439
79.7988
79.8111
81.2784
74.3222
39.447
4.33861
1.79599
29.8376
62.6792
70.5627
69.3649
69.3773
70.5981
62.7191
29.8801
1.86805
0.208096
22.1429
52.169
60.5447
59.6079
59.6201
60.58
52.2109
22.1922
0.282018
-0.727216
16.1885
42.7189
51.0764
50.4
50.4112
51.1092
42.7604
16.242
-0.65247
-1.18053
11.6256
34.2142
42.1034
41.6795
41.6898
42.1338
34.2546
11.6812
-1.10582
-1.31645
8.09048
26.5557
33.6379
33.4546
33.4647
33.6678
26.5968
8.148
-1.24282
-1.3323
5.34333
19.7356
25.7833
25.8169
25.8275
25.8145
19.7798
5.40315
-1.26053
-1.34371
3.19359
13.7349
18.6387
18.8602
18.8715
18.672
13.7827
3.25563
-1.27352
-1.36433
1.48652
8.59844
12.2684
12.5952
12.607
12.3037
8.64969
1.55028
-1.29545
-1.3875
0.122124
4.23107
6.65311
7.02411
7.03631
6.6896
4.28476
0.186858
-1.31996
-1.41149
-0.967808
0.512444
1.74148
2.12119
2.13418
1.77765
0.567252
-0.902966
-1.34565
-1.43652
-1.84106
-2.63793
-2.5103
-2.14186
-2.13024
-2.47115
-2.58169
-1.77699
-1.37288
-1.46284
-2.54537
-5.27823
-6.14122
-5.80147
-5.78989
-6.10242
-5.222
-2.48276
-1.40183
-1.49038
-3.11805
-7.47997
-9.20716
-8.9019
-8.89035
-9.16941
-7.42434
-3.05733
-1.43223
-1.51895
-3.5918
-9.3107
-11.7715
-11.4994
-11.4881
-11.7351
-9.25629
-3.53329
-1.46372
-1.54841
-3.99354
-10.8486
-13.9105
-13.6633
-13.6521
-13.8756
-10.796
-3.93741
-1.49596
-1.57851
-4.33704
-12.1354
-15.6761
-15.4444
-15.4336
-15.6427
-12.0846
-4.28314
-1.52848
-1.60873
-4.65054
-13.1976
-17.0986
-16.8736
-16.8633
-17.0672
-13.1488
-4.59892
-1.56063
-1.63893
-4.93885
-14.0859
-18.2428
-18.0136
-18.0038
-18.2129
-14.0391
-4.88872
-1.59228
-1.66913
-5.20443
-14.8524
-19.1777
-18.9326
-18.9232
-19.1489
-14.8069
-5.15531
-1.62335
-1.69898
-5.45825
-15.5089
-19.927
-19.658
-19.6489
-19.8992
-15.4645
-5.40986
-1.65363
-1.7282
-5.70267
-16.0622
-20.5099
-20.2127
-20.2038
-20.4829
-16.0189
-5.65482
-1.68304
-1.75674
-5.93962
-16.5367
-20.9608
-20.6313
-20.6226
-20.9346
-16.4944
-5.89221
-1.71171
-1.78455
-6.17176
-16.9479
-21.3049
-20.9401
-20.9317
-21.2795
-16.9066
-6.12482
-1.73967
-1.81154
-6.40052
-17.3028
-21.5578
-21.1568
-21.1486
-21.5332
-17.2625
-6.35413
-1.7669
-1.8377
-6.62669
-17.6084
-21.7335
-21.2971
-21.2892
-21.7098
-17.5692
-6.58091
-1.79339
-1.86308
-6.85096
-17.8716
-21.8451
-21.375
-21.3673
-21.8221
-17.8336
-6.80584
-1.81916
-1.88772
-7.07345
-18.0977
-21.9032
-21.4022
-21.3947
-21.881
-18.0607
-7.02901
-1.84427
-1.91172
-7.29368
-18.2905
-21.9173
-21.3891
-21.3819
-21.8958
-18.2546
-7.24989
-1.86878
-1.93515
-7.5109
-18.4545
-21.8965
-21.3455
-21.3385
-21.8757
-18.4195
-7.46777
-1.89279
-1.9581
-7.72454
-18.5937
-21.8493
-21.2803
-21.2735
-21.8291
-18.5595
-7.68205
-1.9164
-1.98066
-7.93427
-18.7121
-21.7832
-21.2012
-21.1945
-21.7635
-18.6787
-7.89244
-1.9397
-2.00282
-8.14025
-18.8137
-21.705
-21.1153
-21.1089
-21.6859
-18.7811
-8.09912
-1.96272
-2.02453
-8.34275
-18.9036
-21.6216
-21.0291
-21.0229
-21.6031
-18.8719
-8.30241
-1.98538
-2.04608
-8.54262
-18.9872
-21.5393
-20.9483
-20.9423
-21.5215
-18.9564
-8.50314
-2.00797
-2.06788
-8.74461
-19.0778
-21.4712
-20.8827
-20.8769
-21.4539
-19.0478
-8.70596
-2.03085
-2.08531
-8.97231
-19.1955
-21.4309
-20.8412
-20.8357
-21.4142
-19.1661
-8.93389
-2.0495
-2.09623
-9.21932
-19.2815
-21.3669
-20.7837
-20.7786
-21.3517
-19.2544
-9.1821
-2.06165
-2.26549
-9.5266
-19.2383
-21.1967
-20.6553
-20.6508
-21.1834
-19.2134
-9.48728
-2.22741
-2.54604
-9.904
-19.1888
-21.0227
-20.532
-20.5277
-21.0097
-19.1646
-9.86718
-2.51066
-2.72411
-10.2697
-19.253
-20.9596
-20.4969
-20.4927
-20.9468
-19.2289
-10.233
-2.6899
-2.90577
-10.6737
-19.3794
-20.9637
-20.5241
-20.5202
-20.9518
-19.3568
-10.6387
-2.87282
-3.07805
-11.0546
-19.5157
-21.001
-20.5902
-20.5866
-20.9899
-19.4945
-11.0211
-3.04626
-3.25062
-11.4437
-19.6806
-21.079
-20.6987
-20.6954
-21.0688
-19.6608
-11.4119
-3.22
-3.42444
-11.8406
-19.8736
-21.1959
-20.8472
-20.8442
-21.1867
-19.8554
-11.8106
-3.39501
-3.60176
-12.2514
-20.1001
-21.3551
-21.0384
-21.0357
-21.3468
-20.0836
-12.2233
-3.57355
-3.78454
-12.6808
-20.3642
-21.5592
-21.2742
-21.2719
-21.552
-20.3495
-12.6548
-3.75762
-3.97535
-13.1349
-20.6707
-21.8113
-21.5569
-21.5549
-21.8052
-20.658
-13.1112
-3.94979
-4.17771
-13.6206
-21.024
-22.1133
-21.8878
-21.8862
-22.1084
-21.0134
-13.5995
-4.15359
-4.39647
-14.1456
-21.4273
-22.4659
-22.267
-22.2659
-22.4623
-21.419
-14.1272
-4.37393
-4.6379
-14.7174
-21.8823
-22.868
-22.6929
-22.6922
-22.8658
-21.8765
-14.7021
-4.61705
-4.90911
-15.3423
-22.3889
-23.317
-23.1624
-23.1622
-23.3163
-22.386
-15.3305
-4.8901
-5.21702
-16.0256
-22.9468
-23.81
-23.6718
-23.6721
-23.811
-22.947
-16.0175
-5.20001
-5.56721
-16.7713
-23.5565
-24.3451
-24.218
-24.2189
-24.3481
-23.5602
-16.7675
-5.55237
-5.96367
-17.5849
-24.2221
-24.9228
-24.7985
-24.8001
-24.928
-24.2298
-17.5858
-5.95117
-6.41055
-18.4751
-24.9506
-25.544
-25.4101
-25.4125
-25.5517
-24.9626
-18.4812
-6.40064
-6.91544
-19.4545
-25.7478
-26.2051
-26.0436
-26.0469
-26.2156
-25.7645
-19.4663
-6.90844
-7.49225
-20.5379
-26.613
-26.8914
-26.6768
-26.6811
-26.9049
-26.6347
-20.5559
-7.48869
-8.16223
-21.7391
-27.5321
-27.5695
-27.267
-27.2725
-27.5862
-27.5593
-21.7638
-8.16284
-8.95275
-23.0671
-28.4726
-28.1812
-27.7444
-27.751
-28.2013
-28.5054
-23.0991
-8.95835
-9.89357
-24.5201
-29.379
-28.6389
-28.0055
-28.0133
-28.6623
-29.4174
-24.5598
-9.90491
-11.0099
-26.078
-30.1708
-28.826
-27.9142
-27.923
-28.8527
-30.2147
-26.1253
-11.0274
-12.3154
-27.7064
-30.7688
-28.6347
-27.3431
-27.3529
-28.664
-30.8171
-27.7607
-12.339
-13.8143
-29.3881
-31.1513
-28.0335
-26.244
-26.2546
-28.0648
-31.2027
-29.4477
-13.8434
-15.5151
-31.1397
-31.3562
-27.0694
-24.6641
-24.675
-27.1012
-31.4083
-31.2019
-15.5483
-17.5543
-33.3164
-31.7745
-26.2591
-23.335
-23.3453
-26.289
-31.8234
-33.377
-17.5893
-21.1305
-37.8612
-33.9031
-27.5202
-24.7157
-24.7238
-27.5449
-33.945
-37.9162
-21.1655
-30.2473
-44.7105
-36.0011
-31.2285
-28.899
-28.9031
-31.2456
-36.0345
-44.7605
-30.2855
-47.7189
-36.2983
-28.362
-33.8828
-32.5406
-32.5413
-33.895
-28.3806
-36.3326
-47.7649
-58.8022
-15.2661
-27.0487
-38.4574
-40.0489
-40.0511
-38.4716
-27.0598
-15.2796
-58.827
1247.74
1225.08
1199.31
1171.07
1140.98
1110.43
1081.22
1053.35
1024.91
997.366
971.5
947.615
926.01
906.879
890.196
875.935
864.128
854.85
848.221
844.4
843.593
845.895
851.813
862.106
876.465
892.703
927.094
967.509
1020.29
1085.24
1166.74
1265.71
1385.08
1542.97
1712.16
1874.31
2009.05
2104.76
2162.98
2202.25
1133.09
1113.06
1090.72
1066.79
1041.74
1015.85
989.949
965.308
942.143
920.13
899.22
879.566
861.544
845.516
831.403
818.961
808.001
798.447
790.556
784.793
781.625
781.344
784.313
791.711
805.737
825.413
848.032
878.306
922.761
985.505
1069.02
1176.24
1308.72
1470.44
1657.16
1853.51
2034.07
2165.96
2254.78
2345.85
1015.53
998.799
980.025
959.79
938.55
916.733
894.912
873.696
853.428
834.226
816.159
799.274
783.593
769.114
755.82
743.597
732.326
721.992
712.719
704.783
698.567
694.491
693.064
695.078
701.599
713.318
731.516
761.229
808.029
870.801
950.953
1050.86
1174.12
1323.43
1498.37
1692.39
1892.45
2091.69
2299.65
2507.19
932.499
916.687
899.011
879.882
859.739
839.022
818.182
797.651
777.763
758.74
740.718
723.778
707.975
693.331
679.768
667.111
655.166
643.802
632.995
622.816
613.435
605.129
598.552
594.735
596.156
604.324
620.1
656.747
687.455
744.612
809.982
887.901
984.524
1103.59
1247.69
1417.64
1613.66
1849.38
2148.93
2450.8
866.428
850.274
832.169
812.516
791.765
770.368
748.769
727.388
706.59
686.658
667.796
650.117
633.647
618.32
603.985
590.443
577.493
564.901
552.317
539.311
525.812
512.905
504.449
504.541
509.178
522.807
539.255
561.326
589.239
624.834
661.173
706.692
764.772
837.272
927.919
1046.54
1207.68
1436.24
1761.53
2103.92
808.623
791.102
771.459
750.129
727.599
704.359
680.891
657.658
635.076
613.495
593.168
574.235
556.701
540.449
525.291
511.009
497.322
483.658
469.163
453.675
438.415
430.255
427.732
431.471
441.916
454.291
466.916
478.699
496.063
511.446
528.591
548.291
565.651
570.481
563.725
580.399
670.36
865.679
1172.01
1507.5
753.965
734.347
712.391
688.587
663.483
637.627
611.558
585.804
560.854
537.13
514.955
494.503
475.779
458.599
442.607
427.203
411.692
396.115
383.499
378.519
373.535
367.076
366.078
369.702
374.384
376.167
381.451
388.94
401.613
413.506
400.512
357.746
315.225
266.793
190.282
95.7519
75.333
226.03
504.346
798.191
699.513
677.364
652.635
625.886
597.72
568.73
539.507
510.648
482.757
456.406
432.057
410.007
390.258
372.237
354.384
333.83
313.309
307.544
334.526
355.701
343.379
326.506
315.357
298.013
284.228
262.357
240.794
217.335
178.549
143.031
111.057
81.2644
68.7887
48.7038
20.0006
-54.7736
-192.153
-202.101
-0.583239
223.726
644.234
619.443
591.814
561.941
530.424
497.852
464.886
432.341
401.16
372.223
346.225
323.616
304.013
285.276
262.589
233.691
235.919
317.178
393.605
380.419
340.976
287.405
232.518
159.165
94.2083
50.7519
38.0647
24.2228
10.1883
6.8827
6.11976
6.83416
5.31137
1.74201
-4.97713
-24.4549
-97.388
-227.454
-179.42
-32.4565
588.722
561.535
531.194
498.208
463.102
426.624
389.894
354.055
319.725
286.906
256.11
228.648
204.925
178.146
143.988
146.316
262.886
404.832
439.459
388.537
276.49
135.611
32.494
-5.801
-8.1607
-0.152782
0.7274
0.389833
0.388392
0.00170782
-0.486237
-0.876554
-1.43628
-2.30327
-3.33547
-5.26653
-14.5954
-103.319
-152.131
-90.4208
534.925
506.035
473.578
438.048
400.455
362.309
324.073
283.223
235.211
178.452
116.585
63.9974
44.0375
38.5813
32.2342
48.5962
175.582
268.732
334.648
250.134
103.598
-0.840087
-15.7052
-2.32239
-0.433224
-0.26189
-0.361736
-0.543775
-0.647848
-0.659833
-0.724715
-0.860112
-1.12195
-1.46055
-1.73346
-1.95248
-3.83281
-42.1121
-99.3358
-85.9019
485.787
456.586
424.041
389.801
355.455
318.326
264.82
181.768
88.7974
34.3883
15.9035
7.41598
5.82936
9.54685
21.5958
26.5506
32.0902
106.055
239.452
216.655
64.3284
3.28322
-0.632524
-0.412703
-0.302988
-0.369741
-0.472848
-0.566521
-0.650959
-0.735974
-0.848842
-0.99945
-1.19365
-1.40078
-1.56376
-1.74121
-2.43593
-17.0558
-51.4113
-58.7389
443.885
417.113
389.926
362.934
323.053
241.543
118.53
28.3755
7.57632
5.64361
8.13692
8.52428
8.55035
9.32043
11.1004
12.9454
12.0467
42.4366
230.63
203.026
34.5669
2.89516
0.0776216
-0.22045
-0.292485
-0.434667
-0.5767
-0.694958
-0.799662
-0.902262
-1.00896
-1.12039
-1.23103
-1.32061
-1.37389
-1.44399
-1.66844
-6.92443
-22.047
-26.9659
411.001
392.141
374.146
329.236
214.085
72.5481
11.725
6.64227
6.24668
6.27973
6.70499
7.29812
7.81658
8.36537
8.83852
9.24176
9.83413
21.5539
177.084
184.701
33.2271
2.28489
-0.26937
-0.462427
-0.479857
-0.60404
-0.734657
-0.837328
-0.919107
-0.9869
-1.04312
-1.08777
-1.11592
-1.11727
-1.0885
-1.04639
-1.08346
-2.4891
-4.75364
1.28349
389.794
381.753
343.096
211.329
59.1647
7.44377
6.05766
5.82366
6.01269
6.2259
6.4402
6.70996
6.99237
7.26525
7.41958
7.5489
8.80081
20.8121
106.908
194.573
52.7025
1.64956
-0.553578
-0.835834
-0.81532
-0.861719
-0.933748
-0.991448
-1.02995
-1.0506
-1.05317
-1.03656
-0.998434
-0.935296
-0.847106
-0.739967
-0.735426
-0.879949
1.24645
25.9278
378.199
359.149
236.205
61.5236
6.88608
5.08722
5.20407
5.46146
5.59887
5.70667
5.82938
5.96445
6.09893
6.20408
6.2651
6.57035
8.04721
27.681
99.5563
161.258
55.2832
1.26861
-0.773011
-1.11929
-1.09927
-1.09859
-1.12518
-1.14405
-1.14446
-1.12458
-1.08275
-1.01777
-0.929046
-0.815684
-0.678324
-0.537
-0.53938
-0.66164
-0.839454
37.8321
361.36
280.229
93.1439
8.00666
4.76949
4.54997
4.79152
4.91989
4.97943
5.03248
5.08814
5.13742
5.16959
5.15839
5.09175
5.19522
6.40774
31.0356
89.176
109.502
50.9898
2.66963
-1.0372
-1.39439
-1.35559
-1.32218
-1.31662
-1.30643
-1.27857
-1.22892
-1.1552
-1.0566
-0.93408
-0.787539
-0.617014
-0.449124
-0.448963
-0.74178
-2.21344
30.0394
314.97
163.932
21.3275
4.3383
3.69834
3.95087
4.13847
4.21972
4.26862
4.30448
4.32447
4.32588
4.30537
4.24299
4.10835
4.04028
4.92154
26.3021
64.7204
74.3147
46.7247
8.74815
-1.47222
-1.59617
-1.54995
-1.5222
-1.50645
-1.48188
-1.43914
-1.37292
-1.2804
-1.16217
-1.02272
-0.865883
-0.689756
-0.520402
-0.502855
-0.829269
-2.29926
21.544
239.173
70.0897
5.32869
3.1004
3.15035
3.40276
3.51101
3.55671
3.58488
3.59672
3.58802
3.55954
3.51287
3.43354
3.28934
3.16578
3.81931
18.2227
44.0626
51.8496
41.4223
14.4246
-1.64719
-1.58776
-1.65606
-1.69091
-1.69278
-1.67255
-1.62988
-1.5594
-1.45546
-1.31956
-1.16658
-1.01323
-0.859531
-0.710592
-0.67858
-1.00366
-2.65943
24.0389
163.856
26.997
3.86983
2.64909
2.72459
2.85675
2.9023
2.91956
2.92505
2.91392
2.8833
2.83597
2.77743
2.70521
2.60847
2.56997
3.12118
8.36077
26.1206
35.7234
33.9414
17.8835
0.225696
-1.6028
-1.95473
-1.97364
-1.94653
-1.91666
-1.87493
-1.80909
-1.68952
-1.4997
-1.29399
-1.13139
-1.00163
-0.869394
-0.818232
-1.06624
-2.30289
32.547
94.3776
7.35028
1.88952
1.82095
2.07183
2.19751
2.24709
2.26861
2.26751
2.24085
2.1885
2.11307
2.02015
1.92103
1.81999
1.61978
0.957437
2.53391
12.5675
24.4248
28.6735
18.0135
0.902258
-2.43339
-2.39484
-2.31908
-2.2685
-2.23824
-2.2262
-2.22657
-2.14005
-1.7874
-1.33929
-1.1135
-1.05825
-0.971319
-0.915357
-1.11087
-1.44908
44.1019
52.6921
2.76985
1.22522
1.36666
1.5837
1.66519
1.6905
1.69315
1.6731
1.62743
1.55682
1.46484
1.35798
1.24421
1.11543
0.927925
0.79263
1.76046
3.2273
14.5668
25.0472
14.6405
-0.116238
-2.76538
-2.67589
-2.58642
-2.53945
-2.52879
-2.5574
-2.62175
-2.62509
-2.24308
-1.70479
-1.37057
-1.2907
-1.30346
-1.32998
-1.59633
-1.19193
42.8834
28.9286
2.08868
1.05338
1.09242
1.18656
1.20618
1.19761
1.17525
1.13391
1.06951
0.982181
0.874852
0.752862
0.624475
0.505927
0.417216
0.285005
-0.361352
-0.785831
10.8303
32.7157
7.6291
-2.42744
-2.93977
-2.85121
-2.75576
-2.70347
-2.6858
-2.69618
-2.72501
-2.78449
-2.76342
-2.54374
-2.13919
-1.94665
-2.02557
-2.13288
-2.49526
-2.83448
16.6962
13.0821
1.21013
0.591228
0.651096
0.717049
0.727287
0.71472
0.685443
0.634385
0.558162
0.456534
0.331143
0.184817
0.0216155
-0.153386
-0.339952
-0.558396
-0.815306
-0.971215
0.446872
12.2051
-0.482559
-3.00958
-3.04675
-2.94323
-2.84736
-2.78443
-2.74593
-2.7198
-2.69053
-2.69999
-2.95366
-3.17382
-3.01678
-2.71926
-2.58759
-2.62758
-2.91202
-4.13577
3.34783
4.01778
0.0879813
0.0220088
0.177649
0.255402
0.278072
0.274723
0.247968
0.195172
0.115154
0.00861945
-0.122589
-0.275402
-0.446016
-0.630131
-0.824826
-1.02327
-1.19386
-1.29909
-1.55584
-3.74664
-3.71956
-3.43453
-3.19284
-3.02716
-2.91461
-2.83927
-2.78844
-2.7481
-2.69702
-2.64757
-2.87585
-3.39302
-3.65909
-3.40561
-3.13763
-3.14719
-3.34668
-4.47153
0.16147
0.814664
-0.500649
-0.357134
-0.177893
-0.104587
-0.0823851
-0.0865271
-0.115525
-0.170999
-0.253176
-0.361344
-0.494318
-0.650668
-0.828597
-1.02717
-1.24567
-1.48614
-1.75322
-2.07817
-2.49271
-2.73518
-2.90807
-3.04229
-2.99704
-2.93063
-2.88539
-2.8555
-2.8382
-2.82865
-2.81623
-2.79456
-2.85528
-3.26806
-3.86341
-4.07835
-3.986
-3.98101
-4.16447
-4.94591
-1.92378
0.122228
-0.574865
-0.484421
-0.378387
-0.345698
-0.346105
-0.365002
-0.403437
-0.463671
-0.546341
-0.651076
-0.777069
-0.923102
-1.08768
-1.26883
-1.46464
-1.67298
-1.8944
-2.13061
-2.37337
-2.54896
-2.70012
-2.79744
-2.83496
-2.85613
-2.8776
-2.90569
-2.94028
-2.98283
-3.03206
-3.08035
-3.13446
-3.33698
-3.90623
-4.55136
-4.83266
-4.81362
-4.90407
-5.2294
-5.3648
-0.137304
-0.622109
-0.589198
-0.544274
-0.543769
-0.562576
-0.59314
-0.638014
-0.699552
-0.778609
-0.875106
-0.988299
-1.117
-1.25963
-1.41429
-1.57869
-1.75036
-1.9268
-2.10482
-2.27761
-2.43241
-2.56327
-2.66812
-2.75359
-2.83109
-2.91045
-2.996
-3.09046
-3.19598
-3.31573
-3.44908
-3.58916
-3.75316
-4.12333
-4.79207
-5.3054
-5.3596
-5.3137
-5.43183
-7.31045
-0.410712
-0.778519
-0.750655
-0.723481
-0.732969
-0.75715
-0.790546
-0.83541
-0.893444
-0.965115
-1.0503
-1.14834
-1.25812
-1.37816
-1.50674
-1.64189
-1.78158
-1.92362
-2.06577
-2.20499
-2.33786
-2.46215
-2.58007
-2.69543
-2.81429
-2.94136
-3.08046
-3.23405
-3.40424
-3.5939
-3.80706
-4.04137
-4.2893
-4.57599
-5.05849
-5.48404
-5.57787
-5.49612
-5.64098
-5.91362
-0.648588
-0.942104
-0.911754
-0.890694
-0.902536
-0.926783
-0.958648
-0.999863
-1.05161
-1.114
-1.18671
-1.26911
-1.36029
-1.45902
-1.56392
-1.67356
-1.78659
-1.90194
-2.01874
-2.13658
-2.2554
-2.37646
-2.5021
-2.63582
-2.78143
-2.94263
-3.12222
-3.32231
-3.54467
-3.79103
-4.06343
-4.36284
-4.68049
-5.00115
-5.34088
-5.64634
-5.78455
-5.74918
-5.57765
-3.78876
-0.85559
-1.08716
-1.05656
-1.03936
-1.05054
-1.07204
-1.09982
-1.13523
-1.17907
-1.23129
-1.29144
-1.35893
-1.43299
-1.51273
-1.59713
-1.68525
-1.77636
-1.87015
-1.96693
-2.06765
-2.17403
-2.28846
-2.41403
-2.55407
-2.71207
-2.89112
-3.0937
-3.3217
-3.5765
-3.85876
-4.16805
-4.50252
-4.85185
-5.19095
-5.50557
-5.82244
-5.97306
-5.83147
-5.52545
-1.39726
-1.04484
-1.21099
-1.18123
-1.16716
-1.1759
-1.19289
-1.2152
-1.24383
-1.27925
-1.32129
-1.36949
-1.42328
-1.48201
-1.54498
-1.61154
-1.68112
-1.7534
-1.82856
-1.90745
-1.9917
-2.08372
-2.18654
-2.30358
-2.43838
-2.5943
-2.77437
-2.98109
-3.21668
-3.48318
-3.78174
-4.1114
-4.46851
-4.84176
-5.20858
-5.55566
-5.90225
-5.99561
-5.48964
-4.87176
-0.464863
-1.23646
-1.31925
-1.2862
-1.27326
-1.27782
-1.28906
-1.30524
-1.3269
-1.35416
-1.38667
-1.42398
-1.46552
-1.51072
-1.55902
-1.60993
-1.66307
-1.71836
-1.77617
-1.83753
-1.90422
-1.97885
-2.06458
-2.16495
-2.28351
-2.42358
-2.58824
-2.78044
-3.0034
-3.26054
-3.55478
-3.88767
-4.25908
-4.66371
-5.08743
-5.51811
-5.90724
-5.81361
-4.26325
-1.56995
-0.867481
-1.41669
-1.41087
-1.36839
-1.35374
-1.35346
-1.35909
-1.36965
-1.38515
-1.40525
-1.42946
-1.45726
-1.48815
-1.5216
-1.55706
-1.59409
-1.63236
-1.6718
-1.71277
-1.75621
-1.80381
-1.85795
-1.92158
-1.99791
-2.09015
-2.2013
-2.33431
-2.49251
-2.6799
-2.90134
-3.16241
-3.46979
-3.83109
-4.25444
-4.74782
-5.27091
-5.59283
-4.81679
-0.780539
4.97218
0.80744
-1.506
-1.4585
-1.41393
-1.39985
-1.39795
-1.40109
-1.40847
-1.41982
-1.43457
-1.45215
-1.47208
-1.49391
-1.51718
-1.54138
-1.56604
-1.59076
-1.61534
-1.63995
-1.66529
-1.69266
-1.724
-1.76168
-1.80822
-1.86601
-1.93715
-2.02373
-2.12835
-2.25452
-2.40707
-2.59267
-2.82019
-3.10477
-3.47714
-3.96914
-4.45534
-4.31599
-2.56676
-0.0296669
-0.961868
5.35949
-1.47893
-1.44518
-1.41658
-1.41055
-1.41253
-1.41739
-1.42466
-1.43419
-1.44551
-1.45818
-1.47183
-1.48614
-1.5007
-1.51509
-1.52878
-1.54129
-1.55223
-1.56151
-1.56941
-1.57675
-1.5848
-1.59511
-1.60917
-1.6282
-1.65286
-1.68347
-1.72033
-1.7639
-1.81512
-1.87585
-1.94998
-2.05058
-2.21785
-2.47127
-2.56266
-1.78581
-0.112109
-0.745495
-2.62367
5.00124
-1.4134
-1.40648
-1.39843
-1.40234
-1.40964
-1.4174
-1.42559
-1.43425
-1.44317
-1.45207
-1.46069
-1.46877
-1.47599
-1.48194
-1.4861
-1.4879
-1.48678
-1.48238
-1.4746
-1.46371
-1.4503
-1.43509
-1.41861
-1.40082
-1.38089
-1.35711
-1.32689
-1.28668
-1.23171
-1.15558
-1.05043
-0.912065
-0.749959
-0.528565
-0.000974768
1.14729
2.08707
0.820027
0.344794
2.29305
-1.37464
-1.38061
-1.38381
-1.39273
-1.4024
-1.4112
-1.41923
-1.42658
-1.43313
-1.43867
-1.443
-1.44585
-1.44692
-1.4458
-1.44194
-1.43474
-1.42355
-1.40779
-1.38706
-1.36119
-1.33017
-1.29408
-1.25276
-1.20548
-1.15063
-1.08563
-1.00666
-0.908554
-0.784259
-0.624229
-0.415831
-0.144882
0.210193
0.692574
1.34218
1.86162
1.82304
1.59629
1.43825
1.53931
-1.36179
-1.37062
-1.37737
-1.38694
-1.39617
-1.40406
-1.41064
-1.41596
-1.41989
-1.42223
-1.42274
-1.42116
-1.41715
-1.41026
-1.39999
-1.38568
-1.36665
-1.34224
-1.31186
-1.27501
-1.23132
-1.18052
-1.12213
-1.05523
-0.97827
-0.888973
-0.784234
-0.660137
-0.511666
-0.332651
-0.116087
0.145624
0.460428
0.829071
1.19681
1.43391
1.53169
1.52134
1.42603
1.33204
-1.36033
-1.36941
-1.37678
-1.38503
-1.39241
-1.3983
-1.40269
-1.40556
-1.40675
-1.40606
-1.40322
-1.39794
-1.38985
-1.37851
-1.36339
-1.34387
-1.31928
-1.28898
-1.25228
-1.2085
-1.15717
-1.09791
-1.03017
-0.953088
-0.865487
-0.765866
-0.65249
-0.523447
-0.376641
-0.209778
-0.0214
0.188464
0.416736
0.653092
0.87119
1.04046
1.133
1.14856
1.10559
1.04637
-1.36474
-1.37372
-1.38079
-1.38703
-1.39198
-1.39544
-1.39734
-1.39762
-1.39614
-1.3927
-1.38701
-1.37878
-1.36761
-1.35306
-1.33458
-1.31162
-1.28358
-1.24984
-1.20971
-1.16248
-1.10783
-1.04524
-0.974289
-0.894277
-0.804293
-0.703439
-0.591115
-0.467406
-0.332625
-0.186814
-0.0308063
0.133291
0.300945
0.464232
0.611272
0.725935
0.796636
0.818219
0.799601
0.763873
-1.37381
-1.38263
-1.38909
-1.39316
-1.39562
-1.39658
-1.39599
-1.39378
-1.38984
-1.38399
-1.37599
-1.36551
-1.35219
-1.33556
-1.31513
-1.29036
-1.26072
-1.22566
-1.18455
-1.1369
-1.08226
-1.02019
-0.950398
-0.872334
-0.785055
-0.687549
-0.579681
-0.463922
-0.343602
-0.219918
-0.0935044
0.0338418
0.158575
0.275795
0.378973
0.461074
0.515899
0.540141
0.536858
0.514358
-1.38709
-1.39574
-1.40151
-1.40356
-1.40372
-1.4024
-1.39954
-1.3951
-1.389
-1.38112
-1.37128
-1.35919
-1.34449
-1.32678
-1.3056
-1.28046
-1.25087
-1.2164
-1.17657
-1.13094
-1.07908
-1.0207
-0.95558
-0.883402
-0.803034
-0.710831
-0.603107
-0.489465
-0.382684
-0.281084
-0.181414
-0.0842138
0.00828271
0.0933467
0.167714
0.227949
0.271092
0.294997
0.30016
0.289349
-1.40406
-1.41258
-1.41775
-1.41809
-1.41631
-1.41308
-1.40832
-1.40201
-1.39413
-1.38462
-1.37336
-1.36015
-1.3447
-1.32668
-1.30569
-1.28132
-1.25315
-1.22087
-1.18421
-1.14283
-1.0965
-1.04528
-0.989531
-0.930294
-0.866884
-0.783888
-0.647814
-0.507977
-0.416896
-0.346812
-0.277814
-0.208815
-0.142538
-0.0814497
-0.0274298
0.0176288
0.0521397
0.0749002
0.0859503
0.0853849
-1.42417
-1.43261
-1.43732
-1.43631
-1.43305
-1.42835
-1.42216
-1.41443
-1.40521
-1.39449
-1.38221
-1.36829
-1.35252
-1.33466
-1.31444
-1.29151
-1.26558
-1.23644
-1.20402
-1.16825
-1.12926
-1.08771
-1.04515
-1.00412
-0.959787
-0.874617
-0.688064
-0.551855
-0.453592
-0.414367
-0.379825
-0.338073
-0.293745
-0.250817
-0.2113
-0.176634
-0.147872
-0.125594
-0.110216
-0.102273
-1.44679
-1.45522
-1.45963
-1.45764
-1.45333
-1.44765
-1.44051
-1.43186
-1.42176
-1.41026
-1.39737
-1.38306
-1.36725
-1.3498
-1.33051
-1.30917
-1.28558
-1.25966
-1.23143
-1.201
-1.16874
-1.13589
-1.10537
-1.07665
-1.02226
-0.914518
-0.789601
-0.677328
-0.570332
-0.522073
-0.504041
-0.480068
-0.449666
-0.417802
-0.387062
-0.358659
-0.333225
-0.310903
-0.292295
-0.279204
-1.47128
-1.47975
-1.48401
-1.48137
-1.47641
-1.47019
-1.46256
-1.45347
-1.44297
-1.43112
-1.41799
-1.40359
-1.38791
-1.3709
-1.35245
-1.33245
-1.31077
-1.28737
-1.26226
-1.23555
-1.20754
-1.17936
-1.15339
-1.12699
-1.0673
-0.977787
-0.911565
-0.845238
-0.743773
-0.671632
-0.651846
-0.633524
-0.608506
-0.581198
-0.554344
-0.52887
-0.505039
-0.482634
-0.462237
-0.446335
-1.49699
-1.50554
-1.50977
-1.50676
-1.5015
-1.4951
-1.48739
-1.47826
-1.46777
-1.45599
-1.44296
-1.42875
-1.41336
-1.3968
-1.37902
-1.35995
-1.33951
-1.31761
-1.29421
-1.26926
-1.24271
-1.2145
-1.18453
-1.15394
-1.1274
-1.08719
-1.03202
-0.972715
-0.896867
-0.839845
-0.811657
-0.788558
-0.762528
-0.735594
-0.709581
-0.685054
-0.662016
-0.640035
-0.619524
-0.602762
-1.52343
-1.53209
-1.53636
-1.53318
-1.52786
-1.52155
-1.51404
-1.50521
-1.49508
-1.4837
-1.47112
-1.45737
-1.44248
-1.42647
-1.40931
-1.39096
-1.37136
-1.35041
-1.328
-1.30399
-1.27814
-1.24967
-1.21708
-1.18319
-1.17297
-1.16741
-1.12578
-1.0669
-1.03432
-1.00697
-0.966879
-0.933517
-0.903244
-0.874839
-0.84852
-0.824416
-0.802312
-0.781671
-0.762704
-0.74685
-1.55022
-1.55898
-1.56334
-1.56012
-1.55488
-1.54883
-1.5417
-1.53338
-1.52386
-1.51317
-1.50132
-1.48832
-1.4742
-1.45895
-1.44255
-1.42498
-1.40618
-1.38606
-1.36451
-1.34135
-1.31631
-1.28877
-1.25707
-1.2206
-1.19311
-1.1958
-1.1799
-1.16659
-1.17725
-1.14844
-1.0975
-1.05677
-1.02353
-0.994365
-0.96843
-0.945489
-0.925146
-0.906864
-0.890712
-0.877046
-1.5771
-1.58595
-1.59041
-1.58722
-1.58214
-1.57641
-1.56977
-1.56206
-1.55329
-1.54346
-1.53255
-1.52057
-1.50749
-1.49331
-1.47799
-1.46151
-1.44383
-1.42491
-1.40465
-1.38291
-1.35949
-1.33411
-1.3056
-1.27156
-1.23555
-1.23041
-1.24108
-1.28043
-1.28303
-1.24284
-1.19254
-1.15244
-1.12043
-1.09316
-1.06954
-1.04915
-1.03155
-1.01638
-1.00365
-0.992731
-1.60391
-1.61284
-1.6174
-1.61427
-1.60937
-1.60398
-1.59782
-1.59075
-1.58277
-1.57386
-1.56401
-1.5532
-1.54138
-1.52853
-1.51463
-1.49965
-1.4836
-1.46647
-1.44826
-1.42897
-1.40859
-1.38721
-1.36484
-1.34076
-1.31534
-1.29942
-1.31158
-1.33005
-1.31899
-1.28627
-1.252
-1.22228
-1.19681
-1.17459
-1.1552
-1.13846
-1.12419
-1.1123
-1.10293
-1.09459
-1.63059
-1.63958
-1.64422
-1.64116
-1.63643
-1.63134
-1.62563
-1.61916
-1.61191
-1.6039
-1.59509
-1.58545
-1.57495
-1.56354
-1.5512
-1.53793
-1.52373
-1.50863
-1.4927
-1.47601
-1.45868
-1.44089
-1.42304
-1.40552
-1.38899
-1.37564
-1.3688
-1.36168
-1.3463
-1.32566
-1.30402
-1.28317
-1.26375
-1.24641
-1.23105
-1.2177
-1.20642
-1.19736
-1.1909
-1.18419
-1.65706
-1.66608
-1.67078
-1.66778
-1.66321
-1.65839
-1.65307
-1.64712
-1.64053
-1.63331
-1.62544
-1.61688
-1.6076
-1.59755
-1.58671
-1.57507
-1.56263
-1.54944
-1.53557
-1.52111
-1.50614
-1.49083
-1.47542
-1.46024
-1.44571
-1.43228
-1.41999
-1.40718
-1.39236
-1.37601
-1.35908
-1.3425
-1.32694
-1.31286
-1.30038
-1.2896
-1.28061
-1.27348
-1.26894
-1.26415
-1.68322
-1.69226
-1.697
-1.69407
-1.68964
-1.68506
-1.68008
-1.67456
-1.66853
-1.662
-1.65493
-1.64731
-1.63908
-1.63022
-1.62068
-1.61044
-1.59952
-1.58793
-1.57575
-1.56304
-1.54987
-1.53633
-1.52257
-1.50877
-1.4951
-1.48174
-1.46865
-1.45535
-1.44131
-1.4268
-1.41252
-1.39887
-1.38612
-1.37435
-1.364
-1.35514
-1.34787
-1.34241
-1.33923
-1.33586
-1.70899
-1.71804
-1.72281
-1.71993
-1.71564
-1.71127
-1.70657
-1.70143
-1.69588
-1.68991
-1.68353
-1.67669
-1.66935
-1.66147
-1.65302
-1.64395
-1.63427
-1.62398
-1.61313
-1.60177
-1.58994
-1.57771
-1.56518
-1.55247
-1.53967
-1.52688
-1.51413
-1.50135
-1.48823
-1.4753
-1.46306
-1.4516
-1.44091
-1.43104
-1.42242
-1.41513
-1.40925
-1.40503
-1.40295
-1.40084
-1.73434
-1.74336
-1.74813