/*--------------------------------*- C++ -*----------------------------------*\
  =========                 |
  \\      /  F ield         | OpenFOAM: The Open Source CFD Toolbox
   \\    /   O peration     | Website:  https://openfoam.org
    \\  /    A nd           | Version:  8
     \\/     M anipulation  |
\*---------------------------------------------------------------------------*/
FoamFile
{
    version     2.0;
    format      ascii;
    class       volVectorField;
    location    "0.3";
    object      U;
}
// * * * * * * * * * * * * * * * * * * * * * * * * * * * * * * * * * * * * * //

dimensions      [0 1 -1 0 0 0 0];

internalField   nonuniform List<vector> 
9150
(
(0.0544577 -0.428445 0)
(0.0876096 -0.621058 0)
(0.0723396 -0.631009 0)
(0.048692 -0.643548 0)
(0.0167882 -0.65424 0)
(-0.016788 -0.65424 0)
(-0.0486918 -0.643548 0)
(-0.0723395 -0.631009 0)
(-0.0876096 -0.621058 0)
(-0.0544577 -0.428445 0)
(0.0419907 -0.524096 0)
(0.0574438 -0.625127 0)
(0.0415719 -0.613113 0)
(0.0295373 -0.622441 0)
(0.0103018 -0.628736 0)
(-0.0103017 -0.628736 0)
(-0.0295372 -0.622441 0)
(-0.0415718 -0.613113 0)
(-0.0574437 -0.625127 0)
(-0.0419907 -0.524096 0)
(0.0261589 -0.558429 0)
(0.0323676 -0.613307 0)
(0.0226 -0.604432 0)
(0.0174054 -0.610024 0)
(0.00615022 -0.613116 0)
(-0.00615011 -0.613116 0)
(-0.0174053 -0.610024 0)
(-0.0225999 -0.604432 0)
(-0.0323676 -0.613307 0)
(-0.0261589 -0.558429 0)
(0.0161916 -0.584962 0)
(0.0174722 -0.607247 0)
(0.0114783 -0.60114 0)
(0.00900232 -0.603326 0)
(0.00321838 -0.604366 0)
(-0.00321833 -0.604366 0)
(-0.00900229 -0.603326 0)
(-0.0114782 -0.60114 0)
(-0.0174722 -0.607247 0)
(-0.0161916 -0.584962 0)
(0.00676987 -0.597171 0)
(0.00558246 -0.601305 0)
(0.00345908 -0.600029 0)
(0.00273188 -0.600358 0)
(0.000996928 -0.600478 0)
(-0.000996924 -0.600478 0)
(-0.00273188 -0.600358 0)
(-0.00345909 -0.600029 0)
(-0.00558247 -0.601305 0)
(-0.00676987 -0.597171 0)
(0.475053 -1.16959 9.99394e-25)
(0.283055 -1.08563 0)
(0.165132 -1.06996 0)
(0.0932323 -1.05765 0)
(0.0297979 -1.05261 0)
(-0.0297967 -1.05261 0)
(-0.0932311 -1.05765 0)
(-0.165131 -1.06996 0)
(-0.283055 -1.08563 0)
(-0.475053 -1.1696 -9.99407e-25)
(0.335667 -0.845414 2.59273e-25)
(0.285118 -0.936407 0)
(0.187903 -0.936583 0)
(0.108689 -0.936299 0)
(0.0351169 -0.938826 0)
(-0.0351161 -0.938826 0)
(-0.108688 -0.9363 0)
(-0.187902 -0.936584 0)
(-0.285118 -0.936408 0)
(-0.335668 -0.845415 -2.59276e-25)
(0.283031 -0.70583 5.61874e-26)
(0.258337 -0.804425 0)
(0.177463 -0.817621 0)
(0.105033 -0.828059 0)
(0.0343717 -0.836266 0)
(-0.0343711 -0.836266 0)
(-0.105032 -0.828059 0)
(-0.177462 -0.817622 0)
(-0.258337 -0.804426 0)
(-0.283031 -0.705831 -5.61876e-26)
(0.204684 -0.556986 1.28151e-25)
(0.217454 -0.708552 0)
(0.153593 -0.725535 0)
(0.09169 -0.741662 0)
(0.0301833 -0.753695 0)
(-0.0301829 -0.753695 0)
(-0.0916896 -0.741662 0)
(-0.153593 -0.725535 0)
(-0.217454 -0.708552 0)
(-0.204684 -0.556986 -1.28151e-25)
(0.122577 -0.444381 -2.56885e-25)
(0.15835 -0.64263 -3.72229e-25)
(0.116166 -0.663168 -1.22117e-25)
(0.0710911 -0.680858 -8.0163e-26)
(0.0236602 -0.693948 -4.63804e-27)
(-0.02366 -0.693948 -4.63794e-27)
(-0.0710909 -0.680858 -8.01628e-26)
(-0.116165 -0.663168 -1.22117e-25)
(-0.15835 -0.642631 -3.72229e-25)
(-0.122577 -0.444381 -2.56885e-25)
(0.000276004 -0.954814 0)
(-0.0461157 -1.33122 0)
(0.0238739 -1.25931 0)
(-0.0132873 -1.21767 0)
(0.0117834 -1.21755 0)
(-0.0117688 -1.21756 0)
(0.0133067 -1.21768 0)
(-0.0238548 -1.25931 0)
(0.0461272 -1.33122 0)
(-0.000260678 -0.954864 0)
(0.0406794 -0.920211 0)
(-0.0261446 -1.3348 0)
(0.0264495 -1.26485 0)
(-0.00747763 -1.2175 0)
(0.00717177 -1.21898 0)
(-0.00716339 -1.21899 0)
(0.00749127 -1.2175 0)
(-0.0264422 -1.26485 0)
(0.0261527 -1.33481 0)
(-0.0406728 -0.920239 0)
(0.0689156 -0.949879 0)
(-0.0256271 -1.34689 0)
(0.0231134 -1.27384 0)
(-0.00118078 -1.22532 0)
(0.00188256 -1.22424 0)
(-0.00187724 -1.22425 0)
(0.00118753 -1.22532 0)
(-0.0231076 -1.27385 0)
(0.0256344 -1.3469 0)
(-0.0689111 -0.949896 0)
(0.132306 -1.07765 0)
(-0.00746493 -1.36428 0)
(0.0219485 -1.27292 0)
(0.0180895 -1.22328 0)
(0.00419183 -1.21303 0)
(-0.00418833 -1.21303 0)
(-0.0180849 -1.22328 0)
(-0.0219463 -1.27292 0)
(0.00746954 -1.36428 0)
(-0.132304 -1.07766 0)
(0.288772 -1.22739 0)
(0.112418 -1.32176 0)
(0.0711397 -1.21253 0)
(0.0567983 -1.16918 0)
(0.0187223 -1.15571 0)
(-0.01872 -1.15571 0)
(-0.0567963 -1.16918 0)
(-0.071138 -1.21254 0)
(-0.112416 -1.32176 0)
(-0.288771 -1.22739 0)
(-0.241521 -0.0759316 0)
(-0.189172 -0.0780564 0)
(-0.13573 -0.0798702 0)
(-0.0815346 -0.0812332 0)
(-0.0269318 -0.0820067 0)
(0.0277995 -0.0820136 0)
(0.0824106 -0.0812481 0)
(0.136624 -0.079895 0)
(0.190089 -0.0780913 0)
(0.242467 -0.0759748 0)
(-0.211392 -0.153528 0)
(-0.165526 -0.157199 0)
(-0.118815 -0.160043 0)
(-0.0714528 -0.161991 0)
(-0.0236522 -0.162989 0)
(0.0243165 -0.163 0)
(0.0721209 -0.162024 0)
(0.119494 -0.160097 0)
(0.166221 -0.157271 0)
(0.212104 -0.153616 0)
(-0.197301 -0.236846 0)
(-0.15429 -0.242052 0)
(-0.110614 -0.246038 0)
(-0.0664455 -0.248739 0)
(-0.0219711 -0.25011 0)
(0.0226097 -0.250126 0)
(0.0670879 -0.248788 0)
(0.111264 -0.246116 0)
(0.15495 -0.242155 0)
(0.197974 -0.236968 0)
(-0.188898 -0.320612 0)
(-0.147561 -0.327193 0)
(-0.105689 -0.332224 0)
(-0.0634345 -0.335631 0)
(-0.0209481 -0.33736 0)
(0.0216163 -0.337379 0)
(0.064105 -0.335689 0)
(0.106364 -0.332316 0)
(0.148242 -0.327314 0)
(0.189586 -0.320753 0)
(-0.183892 -0.401504 0)
(-0.143518 -0.409171 0)
(-0.102715 -0.415021 0)
(-0.0616066 -0.418977 0)
(-0.0203161 -0.420982 0)
(0.021035 -0.421004 0)
(0.0623261 -0.41904 0)
(0.103436 -0.41512 0)
(0.144241 -0.409299 0)
(0.184615 -0.401652 0)
(-0.181601 -0.481148 0)
(-0.141616 -0.489706 0)
(-0.101283 -0.496209 0)
(-0.0607098 -0.500595 0)
(-0.0199964 -0.502812 0)
(0.0207627 -0.502834 0)
(0.0614751 -0.500657 0)
(0.102046 -0.496307 0)
(0.142376 -0.489831 0)
(0.182357 -0.48129 0)
(-0.181392 -0.560583 0)
(-0.141369 -0.569889 0)
(-0.101053 -0.576918 0)
(-0.0605449 -0.581636 0)
(-0.0199288 -0.584014 0)
(0.0207212 -0.584034 0)
(0.0613349 -0.581693 0)
(0.101839 -0.577007 0)
(0.142148 -0.570004 0)
(0.182163 -0.560713 0)
(-0.182377 -0.640457 0)
(-0.142096 -0.650442 0)
(-0.101546 -0.657919 0)
(-0.0608285 -0.662905 0)
(-0.0200223 -0.665407 0)
(0.0208103 -0.665423 0)
(0.061613 -0.662952 0)
(0.102324 -0.657994 0)
(0.142866 -0.65054 0)
(0.183138 -0.640571 0)
(-0.183365 -0.720919 0)
(-0.142876 -0.731596 0)
(-0.102106 -0.739502 0)
(-0.0611686 -0.744732 0)
(-0.0201465 -0.747341 0)
(0.0208998 -0.747354 0)
(0.0619181 -0.744769 0)
(0.102849 -0.739562 0)
(0.143611 -0.731677 0)
(0.184092 -0.72102 0)
(-0.183016 -0.801534 0)
(-0.142664 -0.812992 0)
(-0.101985 -0.821372 0)
(-0.0611143 -0.826863 0)
(-0.0201482 -0.829584 0)
(0.0208452 -0.829592 0)
(0.0618077 -0.826889 0)
(0.102672 -0.821418 0)
(0.143344 -0.81306 0)
(0.18369 -0.801628 0)
(-0.18012 -0.881278 0)
(-0.140511 -0.893677 0)
(-0.100502 -0.902628 0)
(-0.0602544 -0.908434 0)
(-0.0198863 -0.911293 0)
(0.0205172 -0.911298 0)
(0.0608821 -0.908451 0)
(0.101124 -0.902661 0)
(0.141127 -0.893734 0)
(0.180732 -0.88137 0)
(-0.173947 -0.958656 0)
(-0.13584 -0.972222 0)
(-0.0972353 -0.981895 0)
(-0.0583312 -0.988109 0)
(-0.0192708 -0.991148 0)
(0.0198367 -0.99115 0)
(0.0588947 -0.988119 0)
(0.0977945 -0.981918 0)
(0.136395 -0.972271 0)
(0.1745 -0.958746 0)
(-0.164609 -1.03208 0)
(-0.128696 -1.04707 0)
(-0.0921968 -1.05764 0)
(-0.055342 -1.06437 0)
(-0.0182974 -1.06764 0)
(0.0188056 -1.06764 0)
(0.0558489 -1.06437 0)
(0.0927014 -1.05765 0)
(0.129199 -1.04711 0)
(0.16511 -1.03217 0)
(-0.15309 -1.10047 0)
(-0.119788 -1.11701 0)
(-0.0858601 -1.12858 0)
(-0.0515571 -1.13591 0)
(-0.0170543 -1.13945 0)
(0.017511 -1.13945 0)
(0.0520134 -1.13591 0)
(0.086316 -1.1286 0)
(0.120243 -1.11705 0)
(0.153543 -1.10056 0)
(-0.140894 -1.16362 0)
(-0.110185 -1.18157 0)
(-0.0789769 -1.19407 0)
(-0.0474217 -1.20197 0)
(-0.0156895 -1.20578 0)
(0.016096 -1.20578 0)
(0.0478284 -1.20197 0)
(0.0793839 -1.19409 0)
(0.110591 -1.18161 0)
(0.141297 -1.16371 0)
(-0.129689 -1.22214 0)
(-0.101035 -1.24104 0)
(-0.0723356 -1.25418 0)
(-0.043414 -1.26248 0)
(-0.0143642 -1.26649 0)
(0.014718 -1.26649 0)
(0.0437681 -1.26248 0)
(0.0726893 -1.25419 0)
(0.101386 -1.24108 0)
(0.130037 -1.22222 0)
(-0.120657 -1.27714 0)
(-0.0931975 -1.29629 0)
(-0.0664952 -1.30958 0)
(-0.0398707 -1.31798 0)
(-0.0131941 -1.32206 0)
(0.0134927 -1.32206 0)
(0.0401684 -1.31798 0)
(0.0667914 -1.30958 0)
(0.0934904 -1.29632 0)
(0.120943 -1.2772 0)
(-0.113747 -1.32973 0)
(-0.0868897 -1.34824 0)
(-0.0616326 -1.36111 0)
(-0.0368816 -1.36927 0)
(-0.0122102 -1.37324 0)
(0.0124539 -1.37324 0)
(0.037124 -1.36927 0)
(0.0618728 -1.36111 0)
(0.0871267 -1.34826 0)
(0.113977 -1.32977 0)
(-0.1079 -1.38056 0)
(-0.0818681 -1.39754 0)
(-0.0576491 -1.40951 0)
(-0.0343926 -1.41713 0)
(-0.0113882 -1.42084 0)
(0.0115839 -1.42084 0)
(0.0345865 -1.41712 0)
(0.0578417 -1.40951 0)
(0.082058 -1.39754 0)
(0.108083 -1.38057 0)
(-0.101499 -1.42872 0)
(-0.077351 -1.4442 0)
(-0.0540797 -1.45511 0)
(-0.0321411 -1.46201 0)
(-0.0106391 -1.46536 0)
(0.0107928 -1.46536 0)
(0.0322936 -1.462 0)
(0.0542309 -1.4551 0)
(0.0775017 -1.44419 0)
(0.101637 -1.42872 0)
(-0.0936634 -1.47508 0)
(-0.0727945 -1.48836 0)
(-0.0505853 -1.49788 0)
(-0.0299329 -1.50395 0)
(-0.00990097 -1.5069 0)
(0.0100236 -1.5069 0)
(0.0300552 -1.50394 0)
(0.0507067 -1.49787 0)
(0.0729173 -1.48834 0)
(0.093772 -1.47508 0)
(-0.0856021 -1.51926 0)
(-0.0682182 -1.52977 0)
(-0.0474016 -1.53779 0)
(-0.0279687 -1.54304 0)
(-0.00924343 -1.54561 0)
(0.00934426 -1.54561 0)
(0.0280693 -1.54303 0)
(0.0475027 -1.53778 0)
(0.0683196 -1.52975 0)
(0.0856929 -1.51925 0)
(-0.0780679 -1.55829 0)
(-0.0636327 -1.56762 0)
(-0.0444487 -1.57487 0)
(-0.0261775 -1.57956 0)
(-0.00864341 -1.58184 0)
(0.00872562 -1.58183 0)
(0.0262604 -1.57955 0)
(0.044533 -1.57485 0)
(0.0637171 -1.56761 0)
(0.078148 -1.55827 0)
(-0.0712515 -1.59331 0)
(-0.0586396 -1.6026 0)
(-0.0414656 -1.6093 0)
(-0.0243145 -1.61354 0)
(-0.00800863 -1.61557 0)
(0.00807687 -1.61557 0)
(0.024384 -1.61354 0)
(0.0415371 -1.60929 0)
(0.0587104 -1.60259 0)
(0.0713222 -1.5933 0)
(-0.0647702 -1.62727 0)
(-0.0535943 -1.63561 0)
(-0.0384658 -1.64128 0)
(-0.0224491 -1.64492 0)
(-0.00736634 -1.64668 0)
(0.0074284 -1.64668 0)
(0.022512 -1.64492 0)
(0.0385308 -1.64128 0)
(0.0536581 -1.63561 0)
(0.0648336 -1.62727 0)
(-0.0585867 -1.6596 0)
(-0.0487604 -1.6663 0)
(-0.0355752 -1.67079 0)
(-0.0207325 -1.67379 0)
(-0.00678447 -1.67527 0)
(0.00684567 -1.67527 0)
(0.0207945 -1.67379 0)
(0.0356386 -1.67079 0)
(0.0488226 -1.6663 0)
(0.0586486 -1.65961 0)
(-0.0528933 -1.6886 0)
(-0.0442953 -1.69414 0)
(-0.0328844 -1.69784 0)
(-0.019202 -1.70038 0)
(-0.00627609 -1.70164 0)
(0.00633844 -1.70164 0)
(0.0192651 -1.70038 0)
(0.0329482 -1.69784 0)
(0.0443578 -1.69414 0)
(0.0529547 -1.6886 0)
(-0.0476451 -1.71428 0)
(-0.040187 -1.71914 0)
(-0.0302932 -1.72254 0)
(-0.017761 -1.72486 0)
(-0.00579952 -1.72601 0)
(0.00586258 -1.72601 0)
(0.0178247 -1.72486 0)
(0.030357 -1.72254 0)
(0.0402499 -1.71915 0)
(0.0477074 -1.71428 0)
(-0.0431373 -1.73745 0)
(-0.0364603 -1.74196 0)
(-0.0277078 -1.7452 0)
(-0.0163716 -1.74736 0)
(-0.00533605 -1.74841 0)
(0.00539959 -1.74841 0)
(0.0164359 -1.74736 0)
(0.0277715 -1.7452 0)
(0.0365238 -1.74196 0)
(0.0432009 -1.73746 0)
(-0.0388754 -1.75874 0)
(-0.0329842 -1.76303 0)
(-0.0252471 -1.76602 0)
(-0.0150394 -1.76797 0)
(-0.00489364 -1.76893 0)
(0.0049571 -1.76893 0)
(0.0151036 -1.76797 0)
(0.0253105 -1.76603 0)
(0.0330473 -1.76303 0)
(0.0389383 -1.75875 0)
(-0.0347399 -1.77819 0)
(-0.0296632 -1.78224 0)
(-0.0228749 -1.78502 0)
(-0.0137436 -1.78677 0)
(-0.00446633 -1.78764 0)
(0.00452877 -1.78764 0)
(0.0138068 -1.78678 0)
(0.0229371 -1.78503 0)
(0.0297254 -1.78225 0)
(0.0348015 -1.7782 0)
(-0.030854 -1.79583 0)
(-0.0264989 -1.79966 0)
(-0.0205624 -1.80225 0)
(-0.0124693 -1.80382 0)
(-0.00404793 -1.8046 0)
(0.00410874 -1.8046 0)
(0.0125309 -1.80382 0)
(0.0206228 -1.80225 0)
(0.0265594 -1.79967 0)
(0.0309135 -1.79584 0)
(-0.0271682 -1.81176 0)
(-0.0234423 -1.81538 0)
(-0.0182805 -1.81776 0)
(-0.0111921 -1.81915 0)
(-0.00363043 -1.81985 0)
(0.00368911 -1.81985 0)
(0.0112515 -1.81916 0)
(0.0183384 -1.81777 0)
(0.0235005 -1.81539 0)
(0.0272248 -1.81178 0)
(-0.023601 -1.82602 0)
(-0.0204304 -1.82939 0)
(-0.0159955 -1.83155 0)
(-0.0098852 -1.83277 0)
(-0.00320516 -1.83339 0)
(0.00326133 -1.83339 0)
(0.00994196 -1.83278 0)
(0.0160508 -1.83156 0)
(0.0204859 -1.8294 0)
(0.023655 -1.82604 0)
(-0.0201422 -1.83858 0)
(-0.0174356 -1.84162 0)
(-0.0136927 -1.84357 0)
(-0.00853837 -1.84464 0)
(-0.00276834 -1.84518 0)
(0.00282161 -1.84519 0)
(0.00859213 -1.84465 0)
(0.0137449 -1.84357 0)
(0.0174882 -1.84163 0)
(0.0201936 -1.8386 0)
(-0.0168004 -1.84926 0)
(-0.0144669 -1.852 0)
(-0.0113826 -1.85376 0)
(-0.00715923 -1.85472 0)
(-0.0023219 -1.85521 0)
(0.00237168 -1.85521 0)
(0.00720942 -1.85473 0)
(0.0114313 -1.85377 0)
(0.014516 -1.85201 0)
(0.0168487 -1.84928 0)
(-0.013531 -1.85784 0)
(-0.0115488 -1.86047 0)
(-0.00909226 -1.8621 0)
(-0.00576225 -1.863 0)
(-0.00187005 -1.86345 0)
(0.00191577 -1.86345 0)
(0.00580827 -1.863 0)
(0.00913685 -1.86211 0)
(0.0115939 -1.86048 0)
(0.0135752 -1.85785 0)
(-0.0102968 -1.86443 0)
(-0.00870623 -1.86707 0)
(-0.00684635 -1.86863 0)
(-0.00436225 -1.86947 0)
(-0.0014173 -1.8699 0)
(0.00145869 -1.8699 0)
(0.00440388 -1.86948 0)
(0.00688664 -1.86864 0)
(0.00874701 -1.86708 0)
(0.0103363 -1.86445 0)
(-0.00710381 -1.86924 0)
(-0.0059349 -1.87189 0)
(-0.00465738 -1.87338 0)
(-0.00298359 -1.87417 0)
(-0.000968701 -1.87457 0)
(0.00100574 -1.87457 0)
(0.00302083 -1.87418 0)
(0.00469326 -1.87339 0)
(0.00597133 -1.8719 0)
(0.00713843 -1.86926 0)
(-0.00399981 -1.87236 0)
(-0.00327381 -1.87498 0)
(-0.00255504 -1.8764 0)
(-0.00164879 -1.87714 0)
(-0.000532411 -1.87751 0)
(0.000565182 -1.87751 0)
(0.00168173 -1.87714 0)
(0.00258663 -1.87641 0)
(0.00330596 -1.87499 0)
(0.00402963 -1.87238 0)
(-0.00104654 -1.87387 0)
(-0.000772801 -1.87642 0)
(-0.0005775 -1.87775 0)
(-0.000384475 -1.87844 0)
(-0.000117927 -1.87878 0)
(0.000146565 -1.87879 0)
(0.000413278 -1.87845 0)
(0.00060504 -1.87776 0)
(0.000800909 -1.87643 0)
(0.00107169 -1.87389 0)
(0.00171463 -1.87385 0)
(0.00154121 -1.87632 0)
(0.00125235 -1.87755 0)
(0.000791093 -1.87819 0)
(0.000268349 -1.8785 0)
(-0.0002432 -1.87851 0)
(-0.000765881 -1.87819 0)
(-0.00122849 -1.87756 0)
(-0.00151679 -1.87633 0)
(-0.00169366 -1.87387 0)
(0.00425574 -1.87241 0)
(0.00365275 -1.87478 0)
(0.00292239 -1.87591 0)
(0.00186761 -1.8765 0)
(0.000621903 -1.87679 0)
(-0.000601882 -1.87679 0)
(-0.00184748 -1.8765 0)
(-0.0029034 -1.87592 0)
(-0.00363311 -1.87478 0)
(-0.00423983 -1.87243 0)
(0.00656117 -1.86967 0)
(0.00555937 -1.87192 0)
(0.00443004 -1.87296 0)
(0.00284122 -1.8735 0)
(0.000941594 -1.87377 0)
(-0.000927153 -1.87377 0)
(-0.0028266 -1.87351 0)
(-0.00441629 -1.87297 0)
(-0.00554491 -1.87192 0)
(-0.00655046 -1.86968 0)
(0.00862571 -1.86576 0)
(0.00726457 -1.86787 0)
(0.00577758 -1.86883 0)
(0.00371173 -1.86933 0)
(0.00122729 -1.86958 0)
(-0.00121818 -1.86958 0)
(-0.00370237 -1.86933 0)
(-0.00576886 -1.86884 0)
(-0.00725505 -1.86788 0)
(-0.00861996 -1.86577 0)
(0.0104525 -1.86078 0)
(0.00877418 -1.86277 0)
(0.0069694 -1.86365 0)
(0.00448098 -1.86411 0)
(0.00147955 -1.86434 0)
(-0.00147524 -1.86434 0)
(-0.00447637 -1.86411 0)
(-0.00696522 -1.86365 0)
(-0.00876913 -1.86278 0)
(-0.0104512 -1.8608 0)
(0.0120569 -1.85487 0)
(0.010105 -1.85673 0)
(0.00801943 -1.85754 0)
(0.00515713 -1.85797 0)
(0.00170102 -1.85819 0)
(-0.00170093 -1.85819 0)
(-0.00515677 -1.85797 0)
(-0.00801927 -1.85754 0)
(-0.010104 -1.85673 0)
(-0.0120594 -1.85488 0)
(0.0134491 -1.84813 0)
(0.0112852 -1.84986 0)
(0.00895023 -1.85061 0)
(0.0057529 -1.85102 0)
(0.00189567 -1.85123 0)
(-0.00189914 -1.85123 0)
(-0.00575612 -1.85102 0)
(-0.00895336 -1.85061 0)
(-0.0112878 -1.84986 0)
(-0.013454 -1.84814 0)
(0.014655 -1.84069 0)
(0.0123269 -1.84227 0)
(0.00977041 -1.84297 0)
(0.00627402 -1.84336 0)
(0.0020654 -1.84356 0)
(-0.0020716 -1.84356 0)
(-0.00627998 -1.84336 0)
(-0.00977618 -1.84297 0)
(-0.012332 -1.84228 0)
(-0.0146625 -1.8407 0)
(0.0156954 -1.83262 0)
(0.0132352 -1.83407 0)
(0.0104837 -1.83472 0)
(0.00672382 -1.83508 0)
(0.0022114 -1.83527 0)
(-0.00221964 -1.83527 0)
(-0.00673185 -1.83508 0)
(-0.0104915 -1.83472 0)
(-0.0132424 -1.83407 0)
(-0.0157047 -1.83263 0)
(0.0165843 -1.82399 0)
(0.0140318 -1.82531 0)
(0.0111082 -1.82592 0)
(0.00711305 -1.82627 0)
(0.00233711 -1.82645 0)
(-0.00234703 -1.82645 0)
(-0.00712281 -1.82627 0)
(-0.0111175 -1.82592 0)
(-0.0140407 -1.82532 0)
(-0.0165948 -1.824 0)
(0.0173453 -1.81488 0)
(0.0147367 -1.81608 0)
(0.01166 -1.81665 0)
(0.00745207 -1.81699 0)
(0.00244605 -1.81716 0)
(-0.0024573 -1.81717 0)
(-0.0074632 -1.81699 0)
(-0.0116706 -1.81666 0)
(-0.0147469 -1.81609 0)
(-0.0173567 -1.81489 0)
(0.0179962 -1.80535 0)
(0.0153583 -1.80645 0)
(0.012146 -1.80698 0)
(0.00774595 -1.80731 0)
(0.00254001 -1.80748 0)
(-0.00255219 -1.80748 0)
(-0.00775805 -1.80731 0)
(-0.0121576 -1.80699 0)
(-0.0153695 -1.80645 0)
(-0.0180083 -1.80536 0)
(0.0185509 -1.79546 0)
(0.0159059 -1.79646 0)
(0.0125736 -1.79696 0)
(0.0079997 -1.79728 0)
(0.00262069 -1.79744 0)
(-0.00263347 -1.79744 0)
(-0.00801242 -1.79728 0)
(-0.0125857 -1.79696 0)
(-0.0159178 -1.79646 0)
(-0.0185633 -1.79547 0)
(0.019023 -1.78526 0)
(0.0163904 -1.78615 0)
(0.0129517 -1.78664 0)
(0.00821905 -1.78694 0)
(0.00269005 -1.78709 0)
(-0.00270317 -1.78709 0)
(-0.00823215 -1.78694 0)
(-0.0129642 -1.78664 0)
(-0.0164026 -1.78616 0)
(-0.0190357 -1.78526 0)
(0.019425 -1.77477 0)
(0.0168205 -1.77558 0)
(0.0132874 -1.77604 0)
(0.00840884 -1.77633 0)
(0.00274975 -1.77648 0)
(-0.00276301 -1.77648 0)
(-0.00842212 -1.77634 0)
(-0.0133001 -1.77604 0)
(-0.0168329 -1.77559 0)
(-0.0194376 -1.77478 0)
(0.019767 -1.76405 0)
(0.0172032 -1.76478 0)
(0.0135865 -1.76522 0)
(0.00857295 -1.7655 0)
(0.00280115 -1.76564 0)
(-0.0028144 -1.76564 0)
(-0.00858625 -1.7655 0)
(-0.0135992 -1.76522 0)
(-0.0172156 -1.76478 0)
(-0.0197795 -1.76405 0)
(0.0200581 -1.75311 0)
(0.0175446 -1.75377 0)
(0.013854 -1.75419 0)
(0.00871488 -1.75446 0)
(0.00284547 -1.7546 0)
(-0.00285859 -1.7546 0)
(-0.00872808 -1.75446 0)
(-0.0138666 -1.75419 0)
(-0.017557 -1.75377 0)
(-0.0200705 -1.75312 0)
(0.0203065 -1.74199 0)
(0.0178503 -1.74259 0)
(0.0140944 -1.74299 0)
(0.00883772 -1.74325 0)
(0.00288375 -1.74338 0)
(-0.0028967 -1.74338 0)
(-0.00885078 -1.74325 0)
(-0.0141068 -1.74299 0)
(-0.0178625 -1.74259 0)
(-0.0203187 -1.742 0)
(0.0205193 -1.73071 0)
(0.0181245 -1.73125 0)
(0.014311 -1.73163 0)
(0.00894403 -1.73188 0)
(0.00291689 -1.73201 0)
(-0.00292966 -1.73201 0)
(-0.00895694 -1.73188 0)
(-0.0143232 -1.73163 0)
(-0.0181366 -1.73125 0)
(-0.0205314 -1.73072 0)
(0.0207023 -1.71929 0)
(0.0183709 -1.71977 0)
(0.0145067 -1.72014 0)
(0.00903591 -1.72038 0)
(0.00294556 -1.7205 0)
(-0.00295822 -1.7205 0)
(-0.00904871 -1.72038 0)
(-0.0145188 -1.72014 0)
(-0.0183829 -1.71977 0)
(-0.0207143 -1.7193 0)
(0.0208603 -1.70775 0)
(0.0185926 -1.70817 0)
(0.0146838 -1.70853 0)
(0.0091151 -1.70876 0)
(0.00297033 -1.70887 0)
(-0.00298298 -1.70887 0)
(-0.0091279 -1.70876 0)
(-0.0146959 -1.70853 0)
(-0.0186046 -1.70818 0)
(-0.0208725 -1.70775 0)
(0.0209973 -1.69609 0)
(0.0187925 -1.69647 0)
(0.0148442 -1.69681 0)
(0.0091829 -1.69702 0)
(0.00299159 -1.69713 0)
(-0.00300435 -1.69713 0)
(-0.00919583 -1.69702 0)
(-0.0148565 -1.69681 0)
(-0.0188046 -1.69647 0)
(-0.0210097 -1.69609 0)
(0.0211164 -1.68433 0)
(0.0189723 -1.68467 0)
(0.0149891 -1.68499 0)
(0.00923985 -1.6852 0)
(0.00300942 -1.6853 0)
(-0.00302245 -1.6853 0)
(-0.00925307 -1.6852 0)
(-0.0150017 -1.68499 0)
(-0.0189847 -1.68467 0)
(-0.0211291 -1.68433 0)
(0.0212201 -1.67248 0)
(0.0191329 -1.67278 0)
(0.0151181 -1.67309 0)
(0.00928563 -1.67329 0)
(0.00302359 -1.67339 0)
(-0.00303708 -1.67339 0)
(-0.00929932 -1.67329 0)
(-0.0151312 -1.67309 0)
(-0.0191458 -1.67279 0)
(-0.0212334 -1.67248 0)
(0.0213143 -1.66054 0)
(0.0192728 -1.66081 0)
(0.0152301 -1.66111 0)
(0.00931993 -1.66131 0)
(0.00303389 -1.66141 0)
(-0.00304807 -1.66141 0)
(-0.00933435 -1.66131 0)
(-0.0152439 -1.66111 0)
(-0.0192865 -1.66081 0)
(-0.0213284 -1.66054 0)
(0.0214031 -1.64847 0)
(0.0193881 -1.64874 0)
(0.0153248 -1.64905 0)
(0.00934498 -1.64928 0)
(0.00304142 -1.64938 0)
(-0.00305648 -1.64938 0)
(-0.00936034 -1.64928 0)
(-0.0153397 -1.64905 0)
(-0.019403 -1.64874 0)
(-0.0214182 -1.64847 0)
(0.0214971 -1.63609 0)
(0.0195044 -1.63654 0)
(0.0154119 -1.63694 0)
(0.00937147 -1.6372 0)
(0.00305066 -1.63731 0)
(-0.00306674 -1.63731 0)
(-0.0093879 -1.63719 0)
(-0.015428 -1.63694 0)
(-0.01952 -1.63655 0)
(-0.0215129 -1.6361 0)
(0.0218809 -1.62354 0)
(0.019691 -1.6243 0)
(0.0155017 -1.62478 0)
(0.00940632 -1.62506 0)
(0.00306416 -1.62518 0)
(-0.00308196 -1.62518 0)
(-0.00942454 -1.62506 0)
(-0.0155197 -1.62478 0)
(-0.0197071 -1.6243 0)
(-0.0218914 -1.62355 0)
(0.0223966 -1.61146 0)
(0.0198928 -1.61216 0)
(0.0155772 -1.61261 0)
(0.00943274 -1.61286 0)
(0.0030748 -1.61298 0)
(-0.00309513 -1.61298 0)
(-0.00945347 -1.61286 0)
(-0.0155977 -1.6126 0)
(-0.0199119 -1.61215 0)
(-0.0224125 -1.61145 0)
(0.0227233 -1.59945 0)
(0.0200403 -1.6 0)
(0.0156362 -1.60039 0)
(0.0094461 -1.60063 0)
(0.00308006 -1.60073 0)
(-0.00310292 -1.60073 0)
(-0.00946937 -1.60062 0)
(-0.0156592 -1.60039 0)
(-0.020062 -1.59999 0)
(-0.0227421 -1.59944 0)
(0.0230448 -1.58725 0)
(0.0201933 -1.58776 0)
(0.0156993 -1.58813 0)
(0.00946165 -1.58835 0)
(0.00308586 -1.58844 0)
(-0.00311095 -1.58844 0)
(-0.00948711 -1.58835 0)
(-0.0157244 -1.58813 0)
(-0.020217 -1.58776 0)
(-0.0230659 -1.58725 0)
(0.0233599 -1.57501 0)
(0.0203585 -1.57548 0)
(0.0157728 -1.57583 0)
(0.00948475 -1.57603 0)
(0.00309418 -1.57611 0)
(-0.00312145 -1.57611 0)
(-0.00951237 -1.57602 0)
(-0.0158001 -1.57582 0)
(-0.0203844 -1.57548 0)
(-0.0233835 -1.575 0)
(0.0236597 -1.5627 0)
(0.0205217 -1.56314 0)
(0.0158466 -1.56347 0)
(0.00950928 -1.56365 0)
(0.00310311 -1.56373 0)
(-0.00313238 -1.56373 0)
(-0.00953889 -1.56365 0)
(-0.0158759 -1.56346 0)
(-0.0205496 -1.56314 0)
(-0.0236855 -1.56269 0)
(0.023945 -1.55033 0)
(0.0206816 -1.55075 0)
(0.0159189 -1.55105 0)
(0.00953398 -1.55122 0)
(0.00311224 -1.5513 0)
(-0.00314323 -1.55129 0)
(-0.00956531 -1.55122 0)
(-0.0159499 -1.55105 0)
(-0.0207113 -1.55075 0)
(-0.0239728 -1.55033 0)
(0.0242151 -1.53791 0)
(0.0208364 -1.53831 0)
(0.0159881 -1.53859 0)
(0.00955785 -1.53875 0)
(0.00312123 -1.53881 0)
(-0.00315356 -1.53881 0)
(-0.00959051 -1.53874 0)
(-0.0160205 -1.53858 0)
(-0.0208675 -1.5383 0)
(-0.0242446 -1.5379 0)
(0.02447 -1.52544 0)
(0.0209852 -1.52581 0)
(0.0160534 -1.52607 0)
(0.00958027 -1.52622 0)
(0.00312988 -1.52628 0)
(-0.00316309 -1.52628 0)
(-0.00961381 -1.52622 0)
(-0.0160868 -1.52607 0)
(-0.0210174 -1.5258 0)
(-0.0245008 -1.52543 0)
(0.0247095 -1.51291 0)
(0.021127 -1.51326 0)
(0.0161137 -1.51351 0)
(0.00960054 -1.51365 0)
(0.00313795 -1.5137 0)
(-0.00317156 -1.5137 0)
(-0.0096345 -1.51364 0)
(-0.0161476 -1.5135 0)
(-0.0211598 -1.51325 0)
(-0.0247412 -1.5129 0)
(0.0249337 -1.50033 0)
(0.0212608 -1.50067 0)
(0.0161681 -1.5009 0)
(0.00961797 -1.50103 0)
(0.00314519 -1.50109 0)
(-0.00317873 -1.50109 0)
(-0.00965188 -1.50103 0)
(-0.0162021 -1.5009 0)
(-0.0212938 -1.50066 0)
(-0.0249658 -1.50032 0)
(0.0251434 -1.4877 0)
(0.0213864 -1.48802 0)
(0.016216 -1.48825 0)
(0.00963204 -1.48838 0)
(0.00315141 -1.48844 0)
(-0.00318446 -1.48844 0)
(-0.00966548 -1.48838 0)
(-0.0162496 -1.48825 0)
(-0.0214192 -1.48801 0)
(-0.0251756 -1.48769 0)
(0.0253402 -1.47502 0)
(0.0215045 -1.47534 0)
(0.0162572 -1.47557 0)
(0.00964262 -1.4757 0)
(0.00315656 -1.47576 0)
(-0.00318876 -1.47575 0)
(-0.00967525 -1.47569 0)
(-0.0162902 -1.47556 0)
(-0.0215368 -1.47533 0)
(-0.0253722 -1.47501 0)
(0.0255272 -1.46229 0)
(0.0216172 -1.46261 0)
(0.0162924 -1.46285 0)
(0.00965012 -1.46299 0)
(0.00316075 -1.46305 0)
(-0.00319185 -1.46305 0)
(-0.00968169 -1.46298 0)
(-0.0163245 -1.46284 0)
(-0.0216488 -1.4626 0)
(-0.0255587 -1.46228 0)
(0.0257078 -1.44952 0)
(0.0217272 -1.44985 0)
(0.0163231 -1.4501 0)
(0.00965532 -1.45025 0)
(0.00316419 -1.45033 0)
(-0.00319405 -1.45032 0)
(-0.00968569 -1.45025 0)
(-0.0163541 -1.45009 0)
(-0.0217579 -1.44984 0)
(-0.0257385 -1.44951 0)
(0.0258846 -1.43671 0)
(0.021837 -1.43706 0)
(0.0163506 -1.43732 0)
(0.00965891 -1.4375 0)
(0.00316698 -1.43758 0)
(-0.00319559 -1.43758 0)
(-0.00968804 -1.43749 0)
(-0.0163805 -1.43731 0)
(-0.0218667 -1.43704 0)
(-0.0259143 -1.4367 0)
(0.0260591 -1.42387 0)
(0.021948 -1.42423 0)
(0.0163756 -1.42451 0)
(0.00966092 -1.42472 0)
(0.00316898 -1.42482 0)
(-0.00319642 -1.42482 0)
(-0.00968885 -1.42471 0)
(-0.0164042 -1.4245 0)
(-0.0219764 -1.42421 0)
(-0.0260877 -1.42385 0)
(0.0262321 -1.41097 0)
(0.0220597 -1.41135 0)
(0.0163978 -1.41168 0)
(0.0096606 -1.41192 0)
(0.00316977 -1.41205 0)
(-0.00319619 -1.41205 0)
(-0.00968741 -1.41191 0)
(-0.0164252 -1.41166 0)
(-0.0220869 -1.41134 0)
(-0.0262592 -1.41095 0)
(0.0264058 -1.39802 0)
(0.022173 -1.39843 0)
(0.0164172 -1.3988 0)
(0.00965714 -1.39911 0)
(0.00316891 -1.39927 0)
(-0.00319442 -1.39927 0)
(-0.00968289 -1.3991 0)
(-0.0164432 -1.39879 0)
(-0.0221986 -1.39841 0)
(-0.026431 -1.398 0)
(0.0265882 -1.38496 0)
(0.0222928 -1.38543 0)
(0.0164362 -1.38589 0)
(0.00965114 -1.38628 0)
(0.00316649 -1.3865 0)
(-0.00319109 -1.38649 0)
(-0.00967573 -1.38627 0)
(-0.0164607 -1.38587 0)
(-0.0223163 -1.38541 0)
(-0.0266108 -1.38494 0)
(0.0267962 -1.37177 0)
(0.0224324 -1.37233 0)
(0.0164629 -1.37292 0)
(0.00964658 -1.37343 0)
(0.00316382 -1.37372 0)
(-0.00318724 -1.37372 0)
(-0.0096697 -1.37342 0)
(-0.0164854 -1.3729 0)
(-0.0224531 -1.37232 0)
(-0.0268153 -1.37175 0)
(0.0270588 -1.3584 0)
(0.0226172 -1.3591 0)
(0.0165138 -1.35987 0)
(0.00965292 -1.36055 0)
(0.00316411 -1.36095 0)
(-0.00318579 -1.36094 0)
(-0.00967394 -1.36054 0)
(-0.0165334 -1.35986 0)
(-0.0226342 -1.35909 0)
(-0.0270734 -1.35838 0)
(0.02742 -1.34478 0)
(0.022887 -1.34569 0)
(0.016617 -1.3467 0)
(0.00968709 -1.34761 0)
(0.00317313 -1.34815 0)
(-0.00319215 -1.34815 0)
(-0.00970506 -1.34761 0)
(-0.0166327 -1.34669 0)
(-0.0228991 -1.34568 0)
(-0.0274287 -1.34478 0)
(0.0279392 -1.33086 0)
(0.0232978 -1.33202 0)
(0.016814 -1.33335 0)
(0.00977436 -1.33457 0)
(0.00319933 -1.33528 0)
(-0.00321451 -1.33528 0)
(-0.00978808 -1.33457 0)
(-0.0168246 -1.33335 0)
(-0.0233037 -1.33203 0)
(-0.0279408 -1.33087 0)
(0.0286845 -1.31656 0)
(0.023914 -1.31803 0)
(0.0171539 -1.31973 0)
(0.00994323 -1.32131 0)
(0.00325178 -1.32225 0)
(-0.00326187 -1.32225 0)
(-0.0099514 -1.32132 0)
(-0.017158 -1.31974 0)
(-0.0239126 -1.31804 0)
(-0.028678 -1.31659 0)
(0.029696 -1.30183 0)
(0.024773 -1.30359 0)
(0.0176609 -1.3057 0)
(0.0102028 -1.30772 0)
(0.00333177 -1.30895 0)
(-0.00333568 -1.30895 0)
(-0.0102043 -1.30773 0)
(-0.0176576 -1.30572 0)
(-0.0247632 -1.30362 0)
(-0.0296809 -1.30187 0)
(0.0308927 -1.28659 0)
(0.0257893 -1.28855 0)
(0.0182529 -1.2911 0)
(0.0104981 -1.29363 0)
(0.00341933 -1.29523 0)
(-0.00341631 -1.29524 0)
(-0.0104925 -1.29365 0)
(-0.018242 -1.29113 0)
(-0.0257718 -1.2886 0)
(-0.0308702 -1.28664 0)
(0.031908 -1.27067 0)
(0.0265819 -1.27275 0)
(0.0185936 -1.27583 0)
(0.010684 -1.27903 0)
(0.00348346 -1.28113 0)
(-0.003473 -1.28114 0)
(-0.0106711 -1.27906 0)
(-0.0185766 -1.27588 0)
(-0.0265594 -1.27281 0)
(-0.0318815 -1.27074 0)
(0.0316344 -1.25365 0)
(0.0261085 -1.25617 0)
(0.017878 -1.26053 0)
(0.0105909 -1.26469 0)
(0.0036285 -1.26713 0)
(-0.00360978 -1.26714 0)
(-0.0105708 -1.26472 0)
(-0.0178583 -1.26059 0)
(-0.026087 -1.25624 0)
(-0.0316116 -1.25373 0)
(0.0273433 -1.23341 0)
(0.0221903 -1.23899 0)
(0.0153648 -1.2474 0)
(0.010219 -1.25244 0)
(0.00481099 -1.2529 0)
(-0.00478253 -1.25291 0)
(-0.0101927 -1.25247 0)
(-0.0153445 -1.24745 0)
(-0.022177 -1.23907 0)
(-0.0273333 -1.23349 0)
(0.0165481 -1.19997 0)
(0.0120105 -1.22305 0)
(0.0138675 -1.24099 0)
(0.00829687 -1.24255 0)
(0.00937373 -1.23614 0)
(-0.00933726 -1.23616 0)
(-0.00827189 -1.24257 0)
(-0.0138422 -1.24101 0)
(-0.0120072 -1.22311 0)
(-0.0165502 -1.20006 0)
(0.00555369 -1.11775 0)
(-0.010309 -1.23616 0)
(0.0197753 -1.24937 0)
(-0.00207886 -1.2297 0)
(0.0138251 -1.22223 0)
(-0.0137955 -1.22224 0)
(0.0020976 -1.22972 0)
(-0.0197449 -1.24937 0)
(0.0103109 -1.23618 0)
(-0.00555014 -1.11783 0)
(0.296551 -0.0735959 0)
(0.351671 -0.0705814 0)
(0.404356 -0.0668967 0)
(0.454268 -0.0626048 0)
(0.500985 -0.0580212 0)
(0.54442 -0.0538567 0)
(0.584623 -0.0495754 0)
(0.62092 -0.0438513 0)
(0.652813 -0.0373101 0)
(0.68059 -0.0310196 0)
(0.704254 -0.0250763 0)
(0.724013 -0.0194675 0)
(0.740283 -0.0144364 0)
(0.753482 -0.0102935 0)
(0.764179 -0.00708229 0)
(0.772983 -0.00488883 0)
(0.780558 -0.00367279 0)
(0.787562 -0.00332919 0)
(0.794585 -0.00374202 0)
(0.802132 -0.00476574 0)
(0.810554 -0.0061144 0)
(0.820062 -0.00797599 0)
(0.830837 -0.0105186 0)
(0.843032 -0.0125118 0)
(0.855846 -0.00926089 0)
(0.87015 -0.00724318 0)
(0.882898 -0.014333 0)
(0.895071 -0.0213039 0)
(0.90878 -0.0198646 0)
(0.917466 -0.00967434 0)
(0.915242 0.00960238 0)
(0.894738 0.0397446 0)
(0.853295 0.0724818 0)
(0.779355 0.107496 0)
(0.673729 0.146966 0)
(0.527495 0.190082 0)
(0.354138 0.225221 0)
(0.156818 0.20935 0)
(-0.0220685 0.0861626 0)
(-0.0546488 -0.210599 0)
(0.259813 -0.148952 0)
(0.308765 -0.143078 0)
(0.35579 -0.136269 0)
(0.400667 -0.128589 0)
(0.443241 -0.12018 0)
(0.483311 -0.111315 0)
(0.520659 -0.10209 0)
(0.555279 -0.0923549 0)
(0.587356 -0.0822531 0)
(0.617006 -0.0721958 0)
(0.644258 -0.0625729 0)
(0.669247 -0.0536847 0)
(0.692262 -0.0458232 0)
(0.713514 -0.039187 0)
(0.733232 -0.0338695 0)
(0.75181 -0.0300382 0)
(0.769662 -0.0278031 0)
(0.787221 -0.0271413 0)
(0.804868 -0.0278702 0)
(0.822855 -0.0296821 0)
(0.8413 -0.0322015 0)
(0.860168 -0.0350775 0)
(0.879229 -0.0380316 0)
(0.898104 -0.0407977 0)
(0.916634 -0.0425935 0)
(0.934921 -0.0428481 0)
(0.951971 -0.0410358 0)
(0.966532 -0.0375102 0)
(0.977911 -0.0292401 0)
(0.985072 -0.0104958 0)
(0.986201 0.0216275 0)
(0.979012 0.0695395 0)
(0.959313 0.133687 0)
(0.92129 0.213282 0)
(0.859564 0.303497 0)
(0.767144 0.395646 0)
(0.64436 0.468091 0)
(0.480708 0.483448 0)
(0.289048 0.380473 0)