/*--------------------------------*- C++ -*----------------------------------*\
  =========                 |
  \\      /  F ield         | OpenFOAM: The Open Source CFD Toolbox
   \\    /   O peration     | Website:  https://openfoam.org
    \\  /    A nd           | Version:  8
     \\/     M anipulation  |
\*---------------------------------------------------------------------------*/
FoamFile
{
    version     2.0;
    format      ascii;
    class       volScalarField;
    location    "4.05";
    object      alpha.water;
}
// * * * * * * * * * * * * * * * * * * * * * * * * * * * * * * * * * * * * * //

dimensions      [0 0 0 0 0 0 0];

internalField   nonuniform List<scalar> 
9150
(
1
1
1
1
1
1
1
1
1
1
1
1
1
1
1
1
1
1
1
1
1
1
1
1
1
1
1
1
1
1
1
1
1
1
1
1
1
1
1
1
1
1
1
1
1
1
1
1
1
1
1
1
1
1
1
1
1
1
1
1
1
1
1
1
1
1
1
1
1
1
1
1
1
1
1
1
1
1
1
1
1
1
1
1
1
1
1
1
1
1
1
1
1
1
1
1
1
1
1
1
1
1
1
1
1
1
1
1
1
1
1
1
1
1
1
1
1
1
1
1
1
1
1
1
1
1
1
1
1
1
1
1
1
1
1
1
1
1
1
1
1
1
1
1
1
1
1
1
1
1
0.999999
0.999992
0.999992
0.999992
0.999998
0.999997
0.999997
0.999997
1
1
0.999988
0.999995
0.999999
0.999999
0.999998
0.999997
0.999997
0.999997
0.999998
0.999999
0.999999
1
1
1
0.999998
0.999991
0.99999
0.999999
1
1
0.999999
0.999997
0.999997
0.999999
1
0.999991
0.999988
0.999988
0.999991
0.999999
0.999995
0.999985
0.999985
0.999996
1
0.999992
0.999989
0.999988
0.999996
1
0.999985
0.999985
0.999987
0.999999
1
0.999997
0.999989
0.999989
0.999996
1
0.999988
0.999999
1
1
1
0.999997
0.999989
0.999994
1
1
1
1
1
1
0.999999
0.999999
1
1
1
0.999972
1
1
1
1
1
1
0.999641
0.994913
0.996532
0.999679
0.999983
0.999999
1
1
1
0.999565
0.984555
0.980169
0.980195
0.994784
1
1
0.997784
0.959824
0.951969
0.95227
0.953248
0.9873
0.996503
0.999696
0.92668
0.927778
0.928108
0.928413
0.951732
0.984285
0.994123
0.999344
0.999959
0.999995
0.926516
0.927769
0.965056
0.983878
0.996494
0.999862
0.999625
0.999724
0.999979
1
0.977861
0.993936
0.999735
0.999959
0.999868
0.999862
0.999575
0.999215
0.999665
1
0.999953
0.999972
0.999962
0.999959
0.99987
0.999298
0.999215
0.999216
0.999751
0.999998
0.999999
0.999998
0.999923
0.999432
0.999224
0.999224
0.999399
0.9998
0.999902
0.999536
1
0.999626
0.999274
0.999274
0.999422
0.999778
0.999801
0.9998
0.995678
0.99949
0.999752
0.999451
0.999544
0.999737
0.999808
0.999804
0.984539
0.97995
0.999849
0.99981
0.999787
0.99983
0.999895
0.999892
0.999888
0.9364
0.931485
0.977442
0.999852
0.99985
0.999972
0.99997
0.999961
0.943616
0.827695
0.828283
0.941735
0.999861
0.999855
0.999728
0.999997
0.992776
0.851383
0.801788
0.803379
0.863336
0.999864
0.999866
0.999861
0.999701
0.94449
0.799131
0.799849
0.800938
0.850652
0.999857
0.999869
0.999867
0.999866
0.999409
0.798759
0.798759
0.798759
0.900383
0.996195
0.999869
0.99987
0.999869
0.999814
0.998938
0.799508
0.815599
0.982421
0.998702
0.999869
0.99987
0.99987
0.99987
0.999869
0.999573
0.834678
0.999469
0.999861
0.999869
0.99987
0.99987
0.99987
0.99987
0.99987
0.999841
0.987088
0.999865
0.999869
0.99987
0.99987
0.99987
0.99987
0.999871
0.996345
0.949562
0.999864
0.999865
0.999866
0.999868
0.99987
0.999869
0.995849
0.942451
0.932788
0.93291
0.999859
0.999863
0.999866
0.999867
0.996703
0.941441
0.920862
0.922815
0.932686
0.962128
0.999848
0.999859
0.999835
0.960359
0.917508
0.918523
0.919455
0.950039
0.960604
0.962153
0.999827
0.998265
0.93728
0.916169
0.91705
0.92337
0.947542
0.95283
0.953237
0.724148
0.99323
0.9251
0.915278
0.915603
0.939116
0.943034
0.946873
0.875767
0.58325
0.577597
0.94553
0.915099
0.915028
0.92893
0.939889
0.941604
0.709725
0.541001
0.549998
0.572355
0.983236
0.947734
0.939764
0.930888
0.768749
0.544288
0.529856
0.534949
0.540265
0.824529
0.997202
0.995215
0.948598
0.646571
0.526163
0.527026
0.528058
0.528963
0.666886
0.99974
0.997206
0.994274
0.76232
0.527601
0.52668
0.527863
0.525206
0.542098
0.91498
0.999821
0.997183
0.991398
0.713381
0.52668
0.526106
0.52668
0.528226
0.718406
0.99981
0.999821
0.997143
0.974259
0.86526
0.615153
0.525734
0.526106
0.576456
0.982804
0.999803
0.999812
0.960597
0.958035
0.966582
0.952233
0.746936
0.649486
0.886956
0.999783
0.999795
0.999803
0.9628
0.959999
0.999133
0.999254
0.99266
0.986044
0.996977
0.992277
0.98751
0.999468
0.995648
0.991042
0.999694
0.999693
0.999674
0.999644
0.997871
0.982153
0.981539
0.981555
0.999377
0.999692
0.999705
0.999712
0.999711
0.999709
0.999401
0.987199
0.981555
0.981539
0.981593
0.999709
0.999713
0.999714
0.999714
0.999714
0.999712
0.998554
0.99222
0.987089
0.914147
0.999713
0.999714
0.999714
0.999714
0.999715
0.999715
0.999714
0.999708
0.999484
0.945991
0.930526
0.747772
0.829899
0.979626
0.999715
0.999715
0.999714
0.999714
0.999708
0.949744
0.68781
0.648335
0.648384
0.683114
0.707262
0.759244
0.826379
0.82994
0.775426
0.882965
0.652561
0.648384
0.648335
0.648384
0.649057
0.650229
0.651914
0.654488
0.656886
0.888776
0.900972
0.846206
0.834342
0.843861
0.826303
0.836559
0.864321
0.890954
0.863942
0.977574
0.998826
0.998847
0.998861
0.998568
0.997678
0.996089
0.995005
0.994509
0.994865
0.998826
0.998847
0.998861
0.998861
0.998861
0.998575
0.997781
0.992722
0.97523
0.96213
0.895279
0.878534
0.867287
0.874376
0.861743
0.839388
0.781211
0.640644
0.455523
0.458251
0.403519
0.413075
0.413194
0.41407
0.416685
0.421281
0.425799
0.427535
0.429194
0.456658
0.70615
0.719728
0.692147
0.736212
0.780238
0.748306
0.656969
0.699536
0.901202
1
0.99419
0.99812
1
1
1
1
1
1
1
1
0.999999
1
1
1
1
1
1
1
1
1
0.999999
1
1
1
1
1
1
1
1
1
0.99999
0.999992
0.999996
0.999999
1
1
1
0.999999
0.999998
1
0.999868
0.999905
0.999959
0.999993
0.999999
0.999999
0.999999
0.999993
0.999998
1
0.998548
0.999078
0.999637
0.999942
0.999992
0.999991
0.999964
0.99999
0.999999
1
0.868129
0.969445
0.997693
0.999725
0.999936
0.999804
0.999929
0.999988
0.999999
1
0.170844
0.453842
0.863411
0.998007
0.998891
0.999305
0.999897
0.999986
0.999999
1
0.00916625
0.0103999
0.26915
0.903602
0.995194
0.998899
0.999874
0.999988
0.999999
1
0.00899466
0.00911333
0.0538315
0.708336
0.988651
0.998861
0.999907
0.99999
0.999999
1
0.0091836
0.00933072
0.0301057
0.62004
0.994443
0.999544
0.999947
0.999994
0.999999
1
0.00940876
0.00935401
0.0248743
0.684686
0.997944
0.999773
0.999972
0.999996
0.999999
1
0.00906418
0.00950792
0.116477
0.851449
0.998234
0.999789
0.999973
0.999996
0.999999
1
0.00951411
0.00994058
0.270107
0.940264
0.998825
0.999854
0.999981
0.999997
1
1
0.00991943
0.0131156
0.513372
0.987948
0.999306
0.999914
0.999989
0.999998
1
1
0.0128253
0.121021
0.742381
0.996782
0.999608
0.999951
0.999994
0.999999
1
1
0.190884
0.426267
0.86675
0.998061
0.999777
0.999973
0.999996
0.999999
1
1
0.427486
0.535469
0.915705
0.998928
0.999887
0.999987
0.999998
1
1
1
0.387816
0.545701
0.969185
0.999564
0.999959
0.999996
0.999999
1
1
1
0.233032
0.695503
0.998499
0.999867
0.999988
0.999999
1
1
1
1
0.21318
0.909845
0.999575
0.999967
0.999997
1
1
1
1
1
0.451778
0.984037
0.999891
0.999993
0.999999
1
1
1
1
1
0.587196
0.997198
0.99996
0.999998
1
1
1
1
1
1
0.670367
0.999593
0.999981
0.999999
1
1
1
1
1
1
0.744032
0.999759
0.99999
1
1
1
1
1
1
1
0.811569
0.999862
0.999995
1
1
1
1
1
1
1
0.862486
0.999921
0.999998
1
1
1
1
1
1
1
0.892226
0.999954
0.999999
1
1
1
1
1
1
1
0.913858
0.999971
0.999999
1
1
1
1
1
1
1
0.932156
0.999979
1
1
1
1
1
1
1
1
0.952933
0.999988
1
1
1
1
1
1
1
1
0.976818
0.999997
1
1
1
1
1
1
1
1
0.993889
1
1
1
1
1
1
1
1
1
1
1
1
1
1
1
1
1
1
1
0.994125
1
1
1
1
1
1
1
1
1
0.97329
1
1
1
1
1
1
1
1
1
0.956137
1
1
1
1
1
1
1
1
1.00001
0.943898
1
1
0.999999
1
1
0.999999
1
1
0.999275
0.940746
1
1
0.999999
1
1
0.999999
1
1
0.912944
0.942776
1
1
0.999999
1
0.999999
0.999999
1
1
0.818411
0.93916
1
1
0.999999
1
0.999999
0.999999
1
0.999999
0.770493
0.935518
1
1
1
1
0.999999
1
0.999996
0.999997
0.748902
0.924214
1
1
1
1
0.999999
1
0.999996
0.999685
0.748798
0.909975
1
1
1
1
1
1
0.999999
1
0.787799
0.891321
1
1
1
1
1
1
1
1.00001
0.820173
0.886604
1
1
1
1
1
1
1
0.999998
0.861111
0.919591
1
1
1
1
1
1
1
1
0.907633
0.95544
1
1
1
1
1
1
1
1
0.954794
1
1
1
1
1
1
1
1
1
1
1
1
1
1
0.999998
0.999997
1
1
0.999973
0.999464
0.999397
0.999772
1
1
1
0.999999
0.999998
0.999999
1
0.999997
0.999995
0.999999
1
1
1
1
0.999999
0.999999
0.999974
0.999878
0.999999
0.999993
0.999992
0.999992
0.999992
0.999992
0.999997
0.999997
0.999996
0.999996
0.999999
1
1
1
0.999997
0.999995
0.999997
1
1
0.999968
0.999413
0.999386
0.999467
0.999966
1
1
1
1
0.999997
0.99999
0.99999
0.999998
1
1
1
1
1
1
0.999977
0.999891
1
1
1
1
1
1
1
0.999997
0.999998
1
0.999999
0.99999
0.999985
0.99999
0.999997
0.999996
0.999998
1
1
0.999864
0.999386
0.999386
0.999679
0.999999
1
1
1
1
0.999999
0.999995
0.999998
1
0.998307
0.99603
1
1
1
1
1
1
1
1
0.999996
0.999996
1
0.999999
0.999997
0.999997
1
1
0.999999
0.999806
0.999835
0.999985
0.999999
0.999999
1
1
1
0.999654
0.999391
0.999665
0.999977
0.999991
1
1
1
1
1
1
1
0.999182
0.982394
0.97825
0.980958
0.994702
1
1
1
1
1
0.999999
0.999996
0.999995
0.999997
0.999999
0.999998
0.999999
1
0.999995
0.999815
0.999792
0.999793
0.999944
1
1
1
1
0.999819
0.99958
0.999673
0.999983
0.999998
0.999998
1
1
1
1
1
1
1
0.989015
0.97825
0.97825
0.97825
0.978257
0.982654
0.993391
0.988499
0.986858
1
0.999998
0.999994
0.999998
0.999999
0.999999
0.999999
0.999999
0.999939
0.999793
0.999792
0.999792
0.999857
0.999993
0.999999
1
1
0.999967
0.999737
0.999712
0.999968
1
1
1
0.9999
0.979428
0.993692
1
0.999999
0.999992
1
0.996588
0.983164
0.985511
0.983619
0.978301
0.978325
0.978335
0.978366
0.97839
1
0.999996
0.999991
0.999995
0.999999
1
1
0.999869
0.999793
0.999793
0.999833
0.999912
0.999966
0.999994
0.999999
1
1
0.999976
0.999932
0.999807
0.999905
0.999997
1
1
0.979588
0.951363
0.964219
0.997814
0.999996
0.999991
1
1
0.999073
0.999022
0.998971
0.997788
0.995415
0.988763
0.984212
0.991214
0.999875
0.999874
0.999929
0.999998
0.999999
1
0.999962
0.999836
0.999831
0.999947
0.999992
0.999978
0.999964
0.999977
0.999998
1
0.999998
0.999999
0.999992
0.999831
0.999824
0.999958
1
0.996577
0.952907
0.95135
0.951348
0.978936
0.999991
0.999991
0.999538
0.990798
0.996714
0.998531
0.997912
0.983876
0.988946
0.997331
0.998834
0.998919
0.999943
0.999965
0.999991
0.999999
1
1
0.999981
0.999954
0.999978
0.999992
0.999992
0.999976
0.999974
0.999992
0.999999
1
1
1
0.999889
0.999824
0.999824
0.999977
1
0.994776
0.95135
0.951348
0.951348
0.975819
0.999866
0.996007
0.97552
0.972275
0.986994
0.994448
0.978777
0.972725
0.972667
0.976989
0.995339
0.998919
0.999995
0.999999
0.999999
0.999999
1
1
1
0.999999
0.999994
0.999992
0.999992
0.999994
0.999998
0.999999
0.999999
0.999999
1
0.999937
0.999828
0.999828
0.999949
0.999999
1
1
0.95695
0.951348
0.951348
0.989139
0.994007
0.973519
0.972274
0.972276
0.988711
0.996073
0.987033
0.976401
0.972667
0.972667
0.979243
0.998706
0.999994
0.999999
0.999999
1
1
0.999954
0.999926
0.999977
0.999995
0.999997
0.999998
1
1
0.9932
0.99492
0.999901
1
0.999895
0.999866
0.999991
0.999999
0.999999
0.999999
0.999999
0.982488
0.951364
0.977501
0.999721
0.987856
0.972918
0.977301
0.988588
0.997529
0.999697
0.999437
0.997866
0.985359
0.972677
0.980399
0.999044
1
1
1
1
0.999934
0.999517
0.999667
0.999983
0.999998
0.999999
1
1
0.970069
0.897738
0.954737
0.999976
0.999997
0.999977
0.999977
0.999867
0.999945
0.999936
0.999992
0.999999
0.99954
0.991843
0.999556
0.999834
0.993159
0.992851
0.997906
0.999879
0.9998
0.9998
0.999801
0.999813
0.999579
0.991447
0.994963
0.999453
1
1
1
0.99992
0.999529
0.999517
0.999694
0.999994
0.999999
1
1
0.961195
0.897266
0.896717
0.93988
0.999812
0.999995
0.999995
0.999945
0.998832
0.998853
0.999922
0.99999
0.999996
0.999996
0.999995
0.999995
0.99993
0.999899
0.999898
0.999915
0.99994
0.999863
0.999712
0.999808
0.999813
0.999813
0.999813
0.999813
0.999787
1
1
0.999974
0.999588
0.99952
0.999625
0.999935
0.999998
0.999999
1
0.964353
0.896828
0.896717
0.896722
0.969814
0.999974
0.999994
0.999807
0.998851
0.998772
0.99918
0.999988
0.999995
0.999995
0.999996
0.999995
0.999995
0.999995
0.999923
0.998795
0.999192
0.99996
0.99996
0.999709
0.999745
0.999813
0.999813
0.999814
0.999814
0.999813
0.999995
0.999994
0.999899
0.999878
0.999831
0.999964
0.999998
0.999999
0.999999
1
0.956815
0.896903
0.905245
0.956325
0.999419
0.999994
0.999983
0.99973
0.999326
0.999468
0.99996
0.999995
0.999995
0.999995
0.999995
0.972182
0.916439
0.991403
0.999932
0.999842
0.999875
0.99996
0.999947
0.999387
0.999004
0.999701
0.999814
0.999814
0.999813
0.999814
0.999936
0.999988
0.999988
0.999738
0.999961
0.999999
0.999999
0.999999
0.999999
0.999999
0.995217
0.965335
0.988232
0.999853
0.999994
0.999994
0.999994
0.999994
0.999991
0.999136
0.999978
0.999995
0.999995
0.964687
0.870699
0.812593
0.812709
0.836393
0.961925
0.999961
0.999961
0.99996
0.999926
0.999122
0.998963
0.999698
0.991194
0.958042
0.931613
0.962746
0.999987
0.999988
0.999295
0.999296
0.999919
0.999999
0.999999
0.999999
0.999999
0.980377
0.959496
0.999971
0.999986
0.999993
0.999993
0.999994
0.999994
0.989393
0.996389
0.999963
0.999978
0.987101
0.872281
0.812588
0.812583
0.812607
0.812631
0.830039
0.994296
0.999961
0.999961
0.999927
0.999433
0.999123
0.999234
0.998523
0.901302
0.836226
0.836193
0.836358
0.999845
0.999107
0.999004
0.999403
0.999998
0.999999
0.999999
0.984501
0.855149
0.822728
0.943937
0.999974
0.999977
0.999986
0.999993
0.978844
0.915834
0.912777
0.976302
0.99995
0.993108
0.858928
0.812588
0.812583
0.812583
0.812581
0.859566
0.983743
0.999961
0.999961
0.999961
0.999635
0.999286
0.999553
0.999983
0.999548
0.906406
0.836193
0.836166
0.836166
0.999129
0.998524
0.999532
0.999792
0.999996
0.995518
0.866978
0.806583
0.808076
0.821561
0.994328
0.999971
0.999974
0.997414
0.931028
0.911001
0.911064
0.911128
0.972265
0.999919
0.996726
0.868828
0.812761
0.812588
0.84231
0.969617
0.989712
0.999961
0.999961
0.999961
0.999945
0.999659
0.99943
0.999984
0.999984
0.99998
0.988544
0.87378
0.836166
0.836166
0.998808
0.998512
0.999587
0.99978
0.897419
0.803813
0.805108
0.806403
0.816824
0.984231
0.999762
0.999968
0.983022
0.911459
0.911001
0.911001
0.911001
0.959124
0.999943
0.999936
0.999456
0.962816
0.926299
0.946498
0.990467
0.999864
0.9999
0.999901
0.999762
0.999762
0.999822
0.999984
0.999984
0.999984
0.999984
0.99977
0.998213
0.98287
0.944283
0.92824
0.999093
0.998909
0.983075
0.838398
0.803813
0.803813
0.803813
0.879245
0.990241
0.999679
0.999558
0.986676
0.912415
0.911255
0.91112
0.934582
0.998094
0.998368
0.999944
0.999941
0.999675
0.999834
0.999934
0.999843
0.999831
0.999828
0.999747
0.999623
0.999906
0.999973
0.999984
0.999984
0.999984
0.999984
0.999848
0.993544
0.989599
0.988729
0.991559
0.992715
0.99911
0.988704
0.848785
0.805743
0.80475
0.838488
0.982874
0.994639
0.99972
0.999704
0.99968
0.986782
0.914106
0.911572
0.987053
0.999542
0.999926
0.999944
0.999944
0.999944
0.999944
0.999943
0.999942
0.999924
0.999799
0.999326
0.999403
0.999633
0.999885
0.999968
0.999983
0.999983
0.999984
0.999982
0.999964
0.994662
0.989561
0.989861
0.994332
0.994273
0.99863
0.980071
0.827744
0.806176
0.904381
0.999676
0.999724
0.999723
0.999722
0.99972
0.999704
0.989232
0.97193
0.990012
0.999851
0.999839
0.999413
0.999409
0.999829
0.999944
0.999886
0.99433
0.975149
0.961375
0.966159
0.990902
0.976945
0.91077
0.880816
0.89521
0.929997
0.962479
0.985461
0.99755
0.999965
0.999965
0.997754
0.995
0.994357
0.993895
0.999126
0.995214
0.909194
0.877454
0.999537
0.99972
0.999723
0.999723
0.999723
0.999707
0.991989
0.988929
0.993197
0.999851
0.999851
0.999851
0.999851
0.999848
0.999875
0.999931
0.966189
0.87075
0.870699
0.87078
0.903394
0.997668
0.87085
0.729769
0.729547
0.730861
0.74047
0.801471
0.754938
0.757331
0.799377
0.869642
0.899806
0.94056
0.953294
0.947385
0.993415
0.955754
0.930345
0.987504
0.999668
0.999692
0.999721
0.996482
0.972104
0.954296
0.993676
0.99927
0.999484
0.99977
0.999255
0.826268
0.556395
0.551387
0.667894
0.979069
0.999994
0.993028
0.918008
0.908456
0.999994
0.999994
0.946594
0.76748
0.831524
0.999986
0.99993
0.922544
0.687111
0.54745
0.546656
0.546322
0.545883
0.545074
0.601572
0.629475
0.944312
0.94411
0.977716
0.998513
0.999405
0.965648
0.868813
0.86965
0.871647
0.9364
0.996173
0.996892
0.746445
0.541433
0.540993
0.543284
0.545721
0.54605
0.632861
0.996279
0.999994
0.999994
0.999994
0.999994
0.999994
0.999994
0.999994
0.999994
0.999994
0.999993
0.999986
0.999934
0.999437
0.92223
0.593277
0.545714
0.544878
0.544674
0.544612
0.544612
0.94287
0.971648
0.976117
0.930702
0.81597
0.820039
0.825689
0.955741
0.998781
0.995197
0.840723
0.542598
0.540801
0.540801
0.540801
0.540801
0.575139
0.932729
0.999969
0.999361
0.999994
0.999994
0.999994
0.999994
0.999994
0.999994
0.999994
0.999994
0.99999
0.999896
0.999819
0.999766
0.999573
0.998865
0.993905
0.808831
0.624022
0.590608
0.596155
0.544612
0.962383
0.958604
0.805759
0.805957
0.810602
0.910579
0.999911
0.996023
0.999532
0.999413
0.986076
0.787627
0.568307
0.559254
0.849475
0.943804
0.974648
0.999158
0.999991
0.999991
0.99999
0.999994
0.999994
0.999994
0.999994
0.999994
0.999994
0.999993
0.999988
0.999883
0.996433
0.987796
0.972596
0.935525
0.899201
0.894324
0.961194
0.985988
0.992067
0.877328
0.895811
0.742649
0.753612
0.888614
0.999163
0.99573
0.999965
0.999966
0.999968
0.999683
0.997099
0.992833
0.984461
0.984866
0.998672
0.999986
0.999991
0.999992
0.999992
0.999991
0.999989
0.999989
0.999991
0.999994
0.999994
0.99999
0.999985
0.999972
0.999908
0.999528
0.994522
0.912968
0.704776
0.466008
0.292508
0.237828
0.466981
0.754882
0.998183
0.998183
0.644597
0.728443
0.9882
0.998963
0.999849
0.999965
0.999966
0.999968
0.99997
0.99996
0.999961
0.999971
0.999979
0.999978
0.999981
0.999986
0.999992
0.999992
0.999992
0.999992
0.999992
0.999991
0.999987
0.999988
0.999971
0.999812
0.999469
0.999057
0.98919
0.912967
0.687804
0.338587
0.113923
0.0509038
0.0482115
0.0482177
0.0482177
0.100629
0.921186
0.998194
0.651699
0.990734
0.999752
0.999718
0.999741
0.999467
0.997987
0.998899
0.999981
0.999981
0.999981
0.999981
0.999981
0.999977
0.999961
0.999976
0.999991
0.999992
0.999992
0.999991
0.99999
0.999983
0.99994
0.999738
0.999194
0.99341
0.934699
0.787683
0.477493
0.152838
0.0521484
0.0504839
0.0491928
0.0486334
0.0483487
0.0481792
0.0482931
0.0667603
0.815707
0.998083
0.937189
0.999795
0.999791
0.999735
0.998209
0.997382
0.997386
0.997394
0.997418
0.999158
0.999981
0.999981
0.999981
0.999981
0.999979
0.999973
0.99997
0.99997
0.999961
0.999905
0.999752
0.999342
0.998043
0.988646
0.910761
0.585111
0.183184
0.147062
0.146381
0.142069
0.131768
0.121803
0.102996
0.068174
0.049547
0.0483487
0.0482792
0.307582
0.919665
0.99648
0.999805
0.999823
0.99982
0.999337
0.997382
0.997382
0.997382
0.997385
0.997385
0.99835
0.999981
0.999981
0.999981
0.999971
0.999862
0.999653
0.999336
0.998826
0.997776
0.99613
0.995859
0.988084
0.70287
0.205584
0.158942
0.158942
0.291327
0.447908
0.597577
0.739158
0.827208
0.838665
0.785192
0.665837
0.507094
0.330311
0.0488666
0.456453
0.93352
0.995707
0.999822
0.999824
0.999824
0.999825
0.99942
0.9984
0.998237
0.999736
0.99993
0.99993
0.999963
0.999981
0.999979
0.999569
0.996876
0.985462
0.956778
0.930187
0.864192
0.540887
0.154277
0.0607058
0.0641325
0.0774131
0.335008
0.795869
0.974306
0.999444
0.99945
0.999452
0.999455
0.999451
0.999455
0.999452
0.999449
0.900173
0.173198
0.425111
0.818792
0.995921
0.999824
0.999824
0.999824
0.999824
0.999822
0.999815
0.999463
0.998807
0.998804
0.998975
0.999964
0.999974
0.999687
0.992632
0.896961
0.542562
0.146206
0.0397151
0.0422122
0.0449628
0.0403861
0.0424651
0.0548498
0.496961
0.989023
0.99925
0.999322
0.99943
0.999444
0.999452
0.999451
0.999451
0.999451
0.999452
0.999393
0.900995
0.258909
0.281467
0.778131
0.996006
0.999822
0.999824
0.999824
0.997677
0.9882
0.990414
0.999922
0.999922
0.999922
0.999922
0.999922
0.999645
0.987536
0.541522
0.0466068
0.0386407
0.0386886
0.038646
0.0384614
0.0387213
0.0388125
0.0397881
0.316215
0.920205
0.999368
0.999304
0.997959
0.995296
0.998281
0.999434
0.999454
0.999451
0.999451
0.999448
0.999409
0.813752
0.272655
0.283399
0.785157
0.996196
0.999821
0.999809
0.993767
0.987928
0.987934
0.98794
0.988667
0.999316
0.999922
0.999933
0.999828
0.998742
0.870832
0.186949
0.0386529
0.038653
0.0386799
0.0386815
0.0385859
0.0384807
0.0385198
0.291034
0.855334
0.999942
0.999472
0.99486
0.963667
0.946384
0.967341
0.99321
0.999456
0.999454
0.999452
0.99944
0.999348
0.818148
0.337921
0.300092
0.858105
0.996914
0.999805
0.999119
0.988996
0.987928
0.987928
0.992878
0.999972
0.999857
0.999895
0.999953
0.999981
0.999965
0.993657
0.533569
0.038632
0.0386395
0.0386602
0.0385961
0.0384544
0.092873
0.475448
0.919318
0.999994
0.999988
0.996784
0.959249
0.94633
0.946323
0.946299
0.954214
0.992504
0.999451
0.999401
0.999292
0.997827
0.92481
0.614891
0.301928
0.921472
0.996914
0.999765
0.999745
0.996278
0.987928
0.989748
0.999972
0.999975
0.999966
0.999862
0.999951
0.999984
1
1
1
0.949895
0.481902
0.198808
0.217447
0.540517
0.885318
1
1
0.999999
0.999994
0.989758
0.946527
0.94633
0.946339
0.946445
0.946649
0.973475
0.999475
0.996479
0.980002
0.961727
0.975499
0.90984
0.33641
0.930664
0.996914
0.990147
0.999485
0.999334
0.998872
0.9987
0.999965
0.999977
0.999936
0.999779
0.999778
0.999858
1
1
1
1
1
1
1
1
1
1
0.999999
0.999998
0.999997
0.996344
0.968633
0.953227
0.956398
0.947345
0.947487
0.97842
0.999576
0.991369
0.902696
0.893042
0.977209
0.977384
0.744773
0.925181
0.996859
0.981555
0.983109
0.997005
0.999955
0.999969
0.99997
0.999978
0.999999
1
1
1
1
1
1
1
1
1
1
1
0.999997
0.99998
0.999971
0.99998
0.99999
1
1
1
0.999999
0.99488
0.985219
0.998994
0.999646
0.98879
0.89306
0.893036
0.950216
0.977438
0.977317
0.899024
0.991247
0.983494
0.983947
0.993737
0.999653
0.999793
0.999691
0.998967
0.994746
0.983039
0.943063
0.99614
1
1
1
1
0.999999
0.999999
1
1
0.999992
0.999968
0.999968
0.999968
0.99999
1
1
1
0.99999
0.999941
0.999813
0.999727
0.999695
0.99744
0.925846
0.89306
0.901251
0.977317
0.974714
0.725814
0.963136
0.998909
0.99862
0.998441
0.999163
0.999749
0.999746
0.999291
0.997804
0.999803
0.898082
0.635989
0.776449
0.998409
1
0.999999
0.999999
0.999999
0.999999
0.999999
0.999998
0.999989
0.999977
0.999968
0.999993
0.999999
1
1
0.998405
0.9972
0.998776
0.999596
0.999773
0.999812
0.999932
0.942923
0.971398
0.90305
0.854163
0.725716
0.91875
0.999705
0.999724
0.999739
0.999742
0.999801
0.99973
0.999646
0.999801
0.999805
0.999807
0.822228
0.402
0.362627
0.750144
0.999644
0.999996
0.99999
0.999994
0.999998
0.999998
0.999998
0.999998
0.999998
0.999998
1
1
1
0.997158
0.98915
0.988852
0.991901
0.996802
0.999811
0.999958
0.99996
0.99996
0.869843
0.725715
0.725734
0.893161
0.814063
0.954797
0.999758
0.999801
0.999804
0.999804
0.999805
0.999804
0.999807
0.999809
0.999809
0.912178
0.259922
0.193829
0.245767
0.791195
0.997386
0.999956
0.999907
0.999962
0.999995
0.999998
1
1
1
1
1
0.999193
0.990126
0.988277
0.988257
0.988209
0.994222
0.999878
0.999959
0.99996
0.960249
0.725811
0.725716
0.900633
0.658224
0.659284
0.819723
0.998723
0.9998
0.999807
0.999821
0.999809
0.999805
0.999809
0.999809
0.999811
0.939669
0.327553
0.0962284
0.0888831
0.233931
0.795533
0.985437
0.999643
0.999843
0.999978
0.999998
0.999999
1
1
1
1
0.999687
0.991882
0.988209
0.98818
0.988192
0.9953
0.999824
0.999959
0.999958
0.819983
0.725812
0.936614
0.680625
0.712945
0.913298
0.999016
0.999744
0.999802
0.999813
0.999806
0.9998
0.999799
0.999804
0.999813
0.999812
0.877355
0.228857
0.0785121
0.0761122
0.0764308
0.218913
0.795437
0.994493
0.999812
0.999965
0.999993
0.999999
1
1
0.999999
0.999994
0.99999
0.994305
0.988206
0.98818
0.988455
0.998258
0.999956
0.999957
0.974815
0.726878
0.950691
0.99568
0.997654
0.997759
0.996005
0.997986
0.999787
0.999804
0.999809
0.99981
0.999812
0.999813
0.999813
0.999813
0.999812
0.554346
0.0871199
0.0765317
0.0760877
0.0762611
0.0759935
0.461043
0.965384
0.999383
0.999898
0.999982
0.999988
0.999968
0.999945
0.999969
0.999988
0.999983
0.994301
0.988206
0.988346
0.996256
0.999953
0.999955
0.990046
0.896062
0.963146
0.977215
0.99586
0.998682
0.998938
0.99921
0.999567
0.999356
0.999599
0.999815
0.999811
0.999811
0.999813
0.999812
0.999806
0.9998
0.737453
0.136549
0.0765547
0.0760765
0.0760637
0.0761865
0.377586
0.939142
0.998615
0.999753
0.999515
0.998433
0.998061
0.999484
0.999979
0.99998
0.999977
0.9913
0.988379
0.996392
0.999947
0.999952
0.985048
0.984713
0.980243
0.573258
0.853272
0.989083
0.996205
0.989609
0.986564
0.991059
0.999347
0.999778
0.999796
0.999794
0.999786
0.999632
0.999456
0.999428
0.999342
0.998781
0.753783
0.143092
0.0761865
0.0760637
0.0797204
0.378429
0.932436
0.944331
0.874982
0.892922
0.970785
0.999333
0.999901
0.999973
0.999976
0.998399
0.996699
0.99856
0.998959
0.999947
0.983143
0.978272
0.959601
0.461684
0.537541
0.826633
0.854281
0.797428
0.892574
0.996467
0.999368
0.999809
0.999931
0.978566
0.918265
0.91079
0.939954
0.983038
0.997211
0.996818
0.996005
0.994062
0.71256
0.114498
0.0827924
0.175159
0.66642
0.55273
0.204864
0.302023
0.688216
0.973135
0.999246
0.999881
0.999967
0.999951
0.999944
0.999944
0.993578
0.999901
0.968031
0.891672
0.914167
0.991067
0.848407
0.77872
0.77872
0.77872
0.849503
0.994481
0.999953
0.999991
0.999998
0.886802
0.625003
0.619435
0.620106
0.701663
0.960327
0.995629
0.994063
0.992119
0.989087
0.968843
0.931727
0.544878
0.0726927
0.0255273
0.0181912
0.0157767
0.0163271
0.375066
0.92606
0.998973
0.999845
0.999938
0.999943
0.999944
0.994058
0.994791
0.907952
0.884903
0.941995
1
0.998586
0.848659
0.860207
0.984974
1
1
1.00001
1
1
0.982206
0.726328
0.618531
0.617544
0.615949
0.615392
0.615887
0.746215
0.978368
0.983392
0.976064
0.911868
0.31657
0.0260238
0.016937
0.0157926
0.0150402
0.0147664
0.0148493
0.269282
0.909854
0.99897
0.999859
0.999937
0.999939
0.99993
0.967646
0.882387
0.883773
0.946887
1
1
1
1
1
1
1
1
1
1
1
0.999999
0.88374
0.719834
0.914427
0.999625
0.820103
0.57951
0.575959
0.575946
0.575951
0.69383
0.632699
0.314311
0.0247851
0.0160162
0.015295
0.0148643
0.0147664
0.0148413
0.403962
0.971548
0.99945
0.999889
0.999926
0.999921
0.953058
0.878711
0.907206
0.94822
1
1
1
1
1
1
1
1
1
1
0.999999
0.999997
0.999971
0.999939
0.999921
0.999901
0.999763
0.995493
0.98607
0.954038
0.887934
0.91067
0.977026
0.982322
0.899434
0.313063
0.0158454
0.0150847
0.0148643
0.0148555
0.084844
0.750773
0.997868
0.999768
0.999912
0.999917
0.965226
0.875162
0.914284
0.948649
1
1
1
1
1
1
1
1
0.999999
0.999997
0.999989
0.999976
0.999939
0.999921
0.999821
0.999175
0.998586
0.998502
0.998502
0.998518
0.998828
0.999357
0.99926
0.999329
0.999101
0.919423
0.277214
0.0210479
0.0161671
0.0153506
0.0168492
0.441232
0.981447
0.99946
0.999884
0.999908
0.975592
0.871327
0.907186
0.949239
1
1
1
1
1
1
1
0.999998
0.99999
0.999921
0.999649
0.998602
0.998348
0.983902
0.934867
0.879011
0.893729
0.947605
0.996045
0.998882
0.999187
0.999256
0.99932
0.99937
0.999362
0.999078
0.705172
0.0797474
0.0189485
0.0168536
0.0177805
0.258048
0.92151
0.998759
0.999819
0.999884
0.955924
0.862651
0.898853
0.950147
1
1
1
1
1
1
1
0.999982
0.999881
0.999406
0.932852
0.78295
0.758853
0.58296
0.507493
0.507428
0.507429
0.648625
0.969087
0.997836
0.999141
0.999321
0.999369
0.999369
0.999369
0.999361
0.90318
0.210023
0.0219232
0.0186052
0.0180284
0.132957
0.818259
0.997362
0.999671
0.999819
0.946882
0.85272
0.887855
0.951028
1
1
1
1
1
1
0.999985
0.99989
0.998797
0.912725
0.529872
0.508698
0.507169
0.507018
0.507428
0.507194
0.507428
0.506565
0.52074
0.879854
0.997656
0.999145
0.999327
0.999369
0.999368
0.999368
0.972421
0.297684
0.0232218
0.0198149
0.0188459
0.041297
0.663854
0.992167
0.9977
0.98823
0.857105
0.852127
0.918765
0.951379
1
1
1
1
1
0.999995
0.999933
0.998945
0.86561
0.51688
0.511495
0.509326
0.50837
0.506264
0.507027
0.506592
0.506564
0.505786
0.506582
0.507818
0.545743
0.905493
0.998994
0.999331
0.99937
0.999345
0.999298
0.466132
0.0258226
0.0208653
0.0198146
0.0208727
0.530834
0.979847
0.994516
0.871232
0.720971
0.899754
0.951491
0.951813
1
1
1
1
1
1.00001
0.999379
0.919086
0.557655
0.516508
0.512161
0.51058
0.5183
0.709585
0.617303
0.507304
0.553898
0.852367
0.718999
0.513726
0.528782
0.538282
0.823537
0.997601
0.999101
0.999296
0.998909
0.844089
0.255464
0.0313884
0.0208799
0.0270919
0.556406
0.972721
0.988636
0.587398
0.67629
0.946673
0.951721
0.951496
1
1
1
1
1.00002
0.999777
0.96936
0.623384
0.534697
0.524396
0.525277
0.6112
0.902981
0.993431
0.994183
0.994339
0.991248
0.994333
0.990405
0.992658
0.732747
0.550807
0.58813
0.862179
0.996926
0.998907
0.998256
0.997616
0.85093
0.728315
0.602978
0.185031
0.595353
0.946969
0.957066
0.426442
0.631904
0.94587
0.951505
0.951611
1
1
1
1
0.999986
0.998886
0.702342
0.563181
0.545888
0.635527
0.943659
0.99089
0.993455
0.994309
0.99452
0.994516
0.994827
0.995038
0.995175
0.995287
0.995077
0.764595
0.576809
0.564487
0.881547
0.996776
0.997373
0.995376
0.993469
0.988961
0.985332
0.631123
0.672558
0.940942
0.881292
0.382301
0.571707
0.921784
0.951641
0.95162
1
1
1
1.00001
0.999958
0.813258
0.594552
0.580003
0.71731
0.962721
0.979215
0.984664
0.989071
0.992489
0.990502
0.989988
0.992748
0.995184
0.995295
0.995362
0.99543
0.995058
0.676961
0.524937
0.582245
0.935441
0.995064
0.993107
0.991641
0.990248
0.989149
0.83987
0.847917
0.952903
0.798948
0.359536
0.510757
0.883615
0.944497
0.951611
1
1
1
0.999988
0.986832
0.655389
0.615699
0.656454
0.925528
0.963022
0.973322
0.974457
0.913505
0.763597
0.77681
0.868184
0.961043
0.995155
0.995437
0.995433
0.99547
0.995441
0.841913
0.507875
0.488624
0.741748
0.986883
0.99
0.99025
0.991512
0.990519
0.9094
0.952857
0.956266
0.739568
0.34125
0.47266
0.859149
0.901488
0.951927
1
1
1
1.00004
0.780781
0.616767
0.628214
0.863276
0.947242
0.953847
0.917495
0.590671
0.236656
0.0473561
0.0680678
0.161673
0.669574
0.993995
0.995443
0.99548
0.995488
0.995493
0.95638
0.536001
0.481112
0.476072
0.878671
0.988773
0.990549
0.994344
0.988053
0.874267
0.956266
0.959003
0.675361
0.327097
0.459812
0.853081
0.87016
0.952243
1
1
1.00001
0.999672
0.653166
0.608015
0.716568
0.930081
0.937072
0.947209
0.457808
0.00854567
0.00204576
0.000856429
0.000339183
0.000264807
0.314147
0.950097
0.995427
0.995503
0.995488
0.995507
0.982697
0.557122
0.475511
0.473349
0.747877
0.988148
0.993483
0.996291
0.915895
0.855785
0.949838
0.960195
0.580084
0.31796
0.439157
0.846231
0.885396
0.953681
1
1
1.00013
0.926906
0.576373
0.590305
0.850221
0.932952
0.940549