/*--------------------------------*- C++ -*----------------------------------*\
  =========                 |
  \\      /  F ield         | OpenFOAM: The Open Source CFD Toolbox
   \\    /   O peration     | Website:  https://openfoam.org
    \\  /    A nd           | Version:  8
     \\/     M anipulation  |
\*---------------------------------------------------------------------------*/
FoamFile
{
    version     2.0;
    format      ascii;
    class       volScalarField;
    location    "4.05";
    object      k;
}
// * * * * * * * * * * * * * * * * * * * * * * * * * * * * * * * * * * * * * //

dimensions      [0 2 -2 0 0 0 0];

internalField   nonuniform List<scalar> 
9150
(
0.00182758
0.000940852
0.000475318
0.000301241
0.000191969
0.000191957
0.000301215
0.000475338
0.000940936
0.00182755
0.00178485
0.000746705
0.000398624
0.000256517
0.000160545
0.000160532
0.000256496
0.000398634
0.000746777
0.00178484
0.00171339
0.000651442
0.000365628
0.000236425
0.000147951
0.000147934
0.000236401
0.000365628
0.000651499
0.00171338
0.00163483
0.000601427
0.000352491
0.000228366
0.000143153
0.000143133
0.000228337
0.000352483
0.00060147
0.00163483
0.00155138
0.000579907
0.000347702
0.000225533
0.000141647
0.000141625
0.000225501
0.00034769
0.00057994
0.00155138
0.00284637
0.00255598
0.00185547
0.00161594
0.00132625
0.00132506
0.00161305
0.00185066
0.00254933
0.00284537
0.00230344
0.00150179
0.00128195
0.00120845
0.000971661
0.00097109
0.00120709
0.00127984
0.00150046
0.00230345
0.00204855
0.00125034
0.000887628
0.000806419
0.000623635
0.000623389
0.00080584
0.000886876
0.00125006
0.00204861
0.00186712
0.00110913
0.000648962
0.000529418
0.000385067
0.000384971
0.000529204
0.000648738
0.00110918
0.00186714
0.0017871
0.00102023
0.000523614
0.000371306
0.000252131
0.000252095
0.000371233
0.00052358
0.00102033
0.00178711
0.0121453
0.00503333
0.00258673
0.00188922
0.00153062
0.00153635
0.00189542
0.00255953
0.00455553
0.00966993
0.0049274
0.00376459
0.00250657
0.00189076
0.00153983
0.00154228
0.00189031
0.00251076
0.0038371
0.00488822
0.00441231
0.00341836
0.00249087
0.00189156
0.0015492
0.00154899
0.00188691
0.00248556
0.00344028
0.00440164
0.00391921
0.00315472
0.00247464
0.00188911
0.00155743
0.00155581
0.00188383
0.00246831
0.00314982
0.00391464
0.00335781
0.00310395
0.0023716
0.0018435
0.00153022
0.00152825
0.00183871
0.00236497
0.00309224
0.00335589
0.00104516
0.00103968
0.00103416
0.00102861
0.00102301
0.00101738
0.00101167
0.00100585
0.000999819
0.000993449
0.00198407
0.00197705
0.00197028
0.00196373
0.00195736
0.00195109
0.00194476
0.00193819
0.00193112
0.00192326
0.00254821
0.00254425
0.00254035
0.00253645
0.00253242
0.00252811
0.00252333
0.00251781
0.00251127
0.00250339
0.00297615
0.00297517
0.00297411
0.00297285
0.0029712
0.00296895
0.00296583
0.00296154
0.00295574
0.00294811
0.00335013
0.00335174
0.00335313
0.00335414
0.00335452
0.00335399
0.00335221
0.00334881
0.00334342
0.00333571
0.00370185
0.00370572
0.00370923
0.00371217
0.00371423
0.00371507
0.00371427
0.00371138
0.00370597
0.00369768
0.0040475
0.00405339
0.00405875
0.00406333
0.00406677
0.00406865
0.00406849
0.00406579
0.00405994
0.00405058
0.00439725
0.00440497
0.00441198
0.00441797
0.00442248
0.00442501
0.0044251
0.0044223
0.00441569
0.00440488
0.00475855
0.00476797
0.00477647
0.00478367
0.00478895
0.00479157
0.00479098
0.00478742
0.00478013
0.00476823
0.00513722
0.0051481
0.00515768
0.00516539
0.00517086
0.00517331
0.00517211
0.00516784
0.00516093
0.00514981
0.00553681
0.00554876
0.00555897
0.00556704
0.00557323
0.0055778
0.00558011
0.00557884
0.00557339
0.00556297
0.00596216
0.00597673
0.00599038
0.00600393
0.00601633
0.00602656
0.00603304
0.00603475
0.00603029
0.00601889
0.00643272
0.00645335
0.00647444
0.00649506
0.00651431
0.0065302
0.00654057
0.00654368
0.00653796
0.00652265
0.00696227
0.00699048
0.0070193
0.00704747
0.00707318
0.00709369
0.00710617
0.00710825
0.00709823
0.00707551
0.0075535
0.007591
0.00762832
0.00766397
0.00769545
0.00771934
0.00773201
0.00773042
0.00771267
0.00767864
0.00820931
0.00825588
0.00830175
0.00834482
0.00838188
0.00840856
0.00841998
0.00841198
0.0083826
0.00833297
0.00893108
0.00898587
0.00903958
0.00908966
0.00913208
0.00916103
0.00916958
0.00915144
0.00910545
0.00903623
0.00971838
0.00978018
0.00984035
0.00989571
0.00994133
0.00996905
0.00996935
0.00993574
0.00986988
0.00978162
0.0105667
0.0106331
0.0106961
0.0107508
0.0107904
0.0108062
0.0107909
0.0107437
0.0106676
0.0105735
0.0114619
0.011527
0.0115849
0.0116263
0.0116476
0.0116543
0.0116428
0.0116016
0.0115374
0.0114585
0.0123905
0.0124468
0.0124907
0.0125185
0.0125468
0.01258
0.0125972
0.0125879
0.012558
0.0125111
0.0133579
0.0134064
0.013452
0.0135117
0.0135854
0.0136621
0.0137258
0.0137678
0.013787
0.0137852
0.0143929
0.0144621
0.0145546
0.0146737
0.0148058
0.0149396
0.0150617
0.0151635
0.0152421
0.015298
0.0155557
0.0156767
0.0158329
0.0160181
0.0162167
0.0164135
0.0165984
0.016765
0.01691
0.0170342
0.0168738
0.0170477
0.0172613
0.0175048
0.0177634
0.0180239
0.0182768
0.0185157
0.0187369
0.0189394
0.0182742
0.0184909
0.0187521
0.019047
0.0193637
0.0196899
0.0200152
0.0203305
0.0206293
0.0209086
0.0197167
0.0199704
0.0202704
0.0206091
0.0209766
0.0213605
0.0217482
0.0221302
0.0224968
0.0228432
0.0211676
0.0214552
0.0217864
0.0221566
0.0225586
0.022981
0.0234084
0.0238358
0.0242616
0.0246695
0.0225846
0.0228971
0.0232493
0.023636
0.024051
0.0244895
0.0249478
0.025419
0.0258977
0.0263629
0.0239246
0.0242524
0.0246161
0.025009
0.0254311
0.0258879
0.0263756
0.0268816
0.0273928
0.027888
0.0251595
0.0254917
0.0258619
0.0262678
0.0267097
0.0271925
0.0277075
0.028234
0.0287561
0.0293052
0.0262808
0.0266045
0.0269787
0.0274027
0.0278716
0.0283762
0.0288946
0.0294185
0.030002
0.0306809
0.0272852
0.0275876
0.0279589
0.0283959
0.0288826
0.0293836
0.0298972
0.0304963
0.0312169
0.0319752
0.0281938
0.0284669
0.0288241
0.0292511
0.0297159
0.0302173
0.030813
0.0315395
0.0323403
0.0331388
0.0290094
0.0292553
0.0295907
0.0299934
0.0304571
0.0310198
0.0317083
0.0324995
0.0333234
0.0341639
0.0297128
0.0299431
0.0302686
0.0306814
0.0311939
0.031822
0.0325453
0.0333373
0.034169
0.0350484
0.0303001
0.0305354
0.0308733
0.0313193
0.0318843
0.0325472
0.033266
0.0340512
0.0349013
0.0358108
0.0308118
0.0310666
0.0314281
0.0318978
0.0324736
0.0331408
0.0338841
0.0346947
0.0355667
0.0364962
0.0313577
0.0316403
0.0320303
0.0325225
0.0331108
0.0337884
0.034549
0.0353788
0.0362703
0.0372208
0.0320708
0.0323799
0.0327965
0.0333143
0.0339269
0.0346279
0.03541
0.0362629
0.0371798
0.0381588
0.0330898
0.0334294
0.0338778
0.0344304
0.0350806
0.035819
0.0366359
0.0375229
0.0384751
0.0394922
0.0346315
0.0350198
0.0355169
0.0361214
0.0368253
0.0376135
0.0384736
0.0393989
0.0403872
0.0414422
0.037044
0.0375095
0.0380804
0.0387575
0.0395233
0.0403566
0.0412499
0.0422028
0.0432153
0.044295
0.0407284
0.0413406
0.0420415
0.0428127
0.043622
0.0444679
0.0453655
0.0463231
0.0473413
0.0484285
0.0460407
0.0468984
0.0477965
0.0486699
0.0495108
0.0503622
0.0512551
0.0522069
0.0532382
0.0543504
0.0532167
0.0542921
0.0553591
0.056367
0.0573356
0.0582911
0.0592659
0.0602911
0.0613979
0.0625912
0.0626874
0.0639715
0.0652664
0.0665332
0.0677481
0.0689214
0.070078
0.0712535
0.0724815
0.0737889
0.0754796
0.0772154
0.0789564
0.0806697
0.0823065
0.0838547
0.0853124
0.0867112
0.0880612
0.0893772
0.0931663
0.0955952
0.0980047
0.100357
0.102626
0.104725
0.106586
0.108161
0.109417
0.110344
0.116772
0.120105
0.123328
0.126323
0.128967
0.131257
0.133223
0.134862
0.135975
0.136226
0.142958
0.147366
0.151307
0.15466
0.157424
0.159665
0.161307
0.162173
0.162208
0.161507
0.164405
0.169593
0.17412
0.177819
0.180736
0.182944
0.184259
0.184435
0.18371
0.182566
0.182658
0.188023
0.192592
0.196282
0.199058
0.200871
0.201732
0.201793
0.201267
0.200288
0.199212
0.204445
0.20873
0.212009
0.214265
0.21552
0.215897
0.215601
0.214799
0.213538
0.212928
0.217897
0.221723
0.224371
0.225886
0.226375
0.226009
0.224985
0.223495
0.221638
0.223647
0.228284
0.231482
0.233247
0.233707
0.233078
0.231618
0.229581
0.227213
0.22468
0.232394
0.236607
0.238894
0.239342
0.238237
0.235982
0.232997
0.22965
0.226254
0.223033
0.241652
0.245226
0.245995
0.244283
0.240726
0.236073
0.230993
0.225987
0.221441
0.217561
0.255615
0.258033
0.256002
0.250529
0.243014
0.23481
0.226887
0.219827
0.214029
0.209533
0.281381
0.280606
0.272304
0.260045
0.246488
0.233426
0.22192
0.212545
0.205421
0.200336
0.31972
0.317417
0.295995
0.272251
0.250654
0.232074
0.216908
0.20525
0.196798
0.191144
0.34821
0.347483
0.317126
0.282114
0.253239
0.230232
0.212106
0.19845
0.188823
0.182682
0.368372
0.361491
0.324991
0.285806
0.253552
0.227624
0.207299
0.192129
0.181633
0.175202
0.392084
0.376347
0.331122
0.287858
0.25251
0.224191
0.202194
0.185997
0.175041
0.168645
0.414915
0.385327
0.331962
0.28615
0.248736
0.218947
0.19608
0.179541
0.168703
0.162819
0.422183
0.382779
0.32593
0.278877
0.240925
0.211036
0.188404
0.172403
0.162398
0.157601
0.413789
0.366112
0.310335
0.265075
0.228848
0.20047
0.179228
0.164652
0.156195
0.153056
0.382065
0.332814
0.286148
0.246573
0.214052
0.188309
0.169243
0.156752
0.150421
0.149419
0.33811
0.300203
0.262392
0.228138
0.199089
0.175978
0.15932
0.149293
0.145495
0.146976
0.306058
0.27614
0.242983
0.211724
0.185049
0.164213
0.150036
0.142736
0.141757
0.145936
0.285922
0.258665
0.226509
0.196655
0.17178
0.153171
0.141678
0.137363
0.139401
0.146386
0.272714
0.243388
0.210752
0.182075
0.159098
0.142971
0.134444
0.133329
0.138498
0.148329
0.260251
0.227311
0.195212
0.168202
0.147372
0.133927
0.128522
0.130674
0.138955
0.151572
0.24134
0.210183
0.180431
0.155548
0.136976
0.126238
0.123938
0.129279
0.140533
0.155762
0.225576
0.196083
0.168221
0.144961
0.128239
0.119933
0.120548
0.128918
0.142978
0.160653
0.216612
0.186998
0.159458
0.13668
0.121065
0.114771
0.118075
0.129317
0.146017
0.16593
0.2124
0.181508
0.153124
0.129936
0.114862
0.1103
0.116188
0.130237
0.149461
0.171393
0.210888
0.17801
0.148061
0.123909
0.109047
0.106121
0.114627
0.131537
0.153288
0.177159
0.210948
0.175453
0.143484
0.118052
0.103231
0.101958
0.113218
0.133125
0.157515
0.183428
0.211819
0.17328
0.139041
0.112122
0.0972
0.0976412
0.111858
0.134969
0.162185
0.190363
0.212576
0.171093
0.134614
0.106058
0.090852
0.0930656
0.110495
0.137111
0.167523
0.198484
0.213044
0.169074
0.130365
0.0999242
0.0841369
0.088131
0.109
0.139382
0.173314
0.207482
0.214548
0.167737
0.126392
0.0936846
0.0769603
0.0827427
0.10727
0.141616
0.179311
0.216989
0.216964
0.166503
0.122246
0.0871216
0.0692146
0.0768654
0.10533
0.143911
0.18574
0.227411
0.219497
0.16467
0.117628
0.0802219
0.0609292
0.0705003
0.103218
0.146441
0.19304
0.239583
0.2196
0.161936
0.112801
0.0733339
0.0523174
0.0636185
0.100821
0.149212
0.201522
0.254235
0.219934
0.160121
0.10866
0.0669383
0.0436863
0.0561477
0.0978503
0.151985
0.21125
0.272044
0.222113
0.159293
0.105161
0.0610044
0.0352929
0.0480488
0.0939084
0.154282
0.221912
0.293323
0.225866
0.159171
0.101832
0.0551894
0.0274004
0.0394183
0.0885478
0.155399
0.232711
0.317518
0.231454
0.159277
0.0979468
0.0489852
0.0202579
0.0305722
0.081343
0.154454
0.242289
0.342515
0.237313
0.158625
0.0925977
0.0419673
0.0141125
0.022058
0.0719769
0.150559
0.249347
0.366557
0.242293
0.156023
0.0852183
0.0342108
0.00924407
0.0145492
0.0602243
0.142516
0.252185
0.388388
0.24701
0.15113
0.0758658
0.0262956
0.00580509
0.00869482
0.0463032
0.128558
0.246854
0.399565
0.249636
0.142489
0.064505
0.0188924
0.00366422
0.0048783
0.0316646
0.1078
0.23024
0.393117
0.246101
0.128455
0.0518458
0.0127907
0.00252314
0.00292708
0.0189192
0.0815617
0.202233
0.36971
0.230013
0.108735
0.0388784
0.00840191
0.00199652
0.0020556
0.00991169
0.0540277
0.163826
0.329965
0.19704
0.0852989
0.0273709
0.00550684
0.00173314
0.00169398
0.00483844
0.0299653
0.118365
0.277162
0.145645
0.0616486
0.0181935
0.00371558
0.00160496
0.00157178
0.00275635
0.0139319
0.072376
0.20826
0.0970985
0.0427934
0.0113347
0.00265806
0.00154733
0.00153969
0.00212906
0.00650073
0.0379213
0.131963
0.0697821
0.0267249
0.00588994
0.00206336
0.00152834
0.0015339
0.00195017
0.00376902
0.0194302
0.071779
0.000985902
0.000977507
0.000968034
0.000957196
0.00094471
0.000930316
0.000913812
0.000895077
0.000874116
0.000851095
0.000826376
0.000800545
0.000774414
0.000748975
0.000725268
0.000704172
0.000686133
0.000670948
0.000657734
0.000645226
0.000632266
0.000617959
0.000601764
0.000583597
0.000563945
0.00054361
0.000523075
0.000501872
0.000478625
0.000452988
0.000444456
0.000442143
0.000441759
0.000443223
0.000442975
0.000427578
0.000391151
0.000340355
0.000276638
0.00017
0.00191361
0.00190201
0.00188823
0.00187185
0.0018525
0.00182991
0.00180394
0.00177463
0.00174222
0.00170722
0.00167038
0.00163269
0.00159531
0.00155944
0.00152612
0.00149597
0.00146895
0.00144426
0.0014204
0.0013957
0.00136924
0.0013405
0.00130922
0.00127504
0.00123826
0.00119926
0.00115777
0.00111243
0.00106104
0.00100151
0.000934182
0.000864793
0.000798209
0.000735458
0.000674611
0.000613105
0.00054614
0.000469158
0.000376106
0.000241621
0.00249323
0.00248035
0.00246474
0.00244609
0.00242415
0.00239877
0.00236991
0.00233769
0.00230237
0.00226441
0.00222449
0.00218341
0.00214205
0.00210129
0.00206183
0.00202397
0.00198754
0.00195187
0.00191602
0.00187907
0.00184059
0.00180046
0.00175868
0.00171499
0.00166869
0.00161851
0.00156265
0.00149962
0.00142871
0.00135028
0.00126596
0.0011785
0.00108983
0.00100187
0.00091775
0.00083527
0.000748802
0.000651874
0.000532644
0.000363777
0.00293775
0.00292409
0.00290731
0.00288724
0.00286381
0.002837
0.00280692
0.00277376
0.00273781
0.00269948
0.00265927
0.00261775
0.00257551
0.002533
0.00249045
0.00244784
0.00240482
0.00236084
0.00231532
0.00226795
0.00221889
0.00216872
0.0021181
0.0020672
0.00201494
0.00195835
0.00189331
0.00181776
0.00173232
0.00163887
0.00153969
0.00143684
0.0013315
0.0012291
0.00113704
0.00105007
0.000955877
0.000843415
0.000702959
0.000503711
0.00332478
0.00331002
0.00329183
0.00327021
0.00324525
0.00321713
0.00318606
0.00315233
0.00311628
0.00307826
0.00303866
0.00299781
0.00295595
0.00291309
0.00286899
0.0028232
0.00277518
0.00272437
0.00267043
0.00261346
0.00255413
0.00249373
0.00243386
0.00237577
0.00231904
0.00225926
0.00218783
0.00210227
0.00200533
0.00190053
0.00179034
0.00167666
0.00156198
0.00145072
0.0013461
0.00124725
0.00114394
0.00101732
0.000850818
0.000621536
0.00368564
0.00366925
0.00364918
0.00362562
0.00359883
0.00356914
0.00353689
0.00350249
0.00346635
0.00342882
0.00339019
0.00335055
0.00330974
0.00326726
0.00322233
0.0031741
0.00312176
0.00306478
0.00300298
0.00293671
0.00286698
0.0027955
0.00272455
0.00265658
0.00259272
0.00252851
0.00245343
0.00236199
0.00225823
0.00214727
0.00203119
0.00191081
0.00178819
0.00166608
0.00154593
0.00142794
0.00130424
0.00115687
0.00097086
0.000725994
0.00403688
0.00401835
0.00399597
0.0039701
0.00394112
0.00390947
0.00387564
0.00384017
0.0038036
0.00376637
0.00372871
0.00369048
0.00365104
0.00360926
0.00356366
0.00351286
0.0034559
0.00339237
0.00332241
0.00324672
0.00316654
0.0030837
0.00300053
0.00291951
0.00284191
0.00276682
0.00269365
0.00260641
0.00250229
0.00238939
0.00227101
0.00214583
0.0020142
0.00187914
0.00174293
0.00160626
0.00146498
0.00130234
0.00110269
0.000849394
0.00438917
0.00436831
0.00434349
0.00431511
0.00428359
0.00424947
0.00421339
0.00417608
0.00413831
0.00410069
0.00406353
0.00402655
0.00398857
0.00394748
0.0039007
0.00384616
0.00378298
0.00371131
0.00363196
0.00354623
0.00345571
0.00336233
0.00326834
0.00317632
0.00308827
0.0030066
0.0029321
0.00284904
0.00274712
0.00263335
0.00251307
0.00238416
0.00224506
0.00210009
0.00195217
0.00180061
0.00164112
0.00146156
0.00124901
0.000995623
0.0047511
0.00472845
0.00470146
0.00467046
0.00463593
0.00459854
0.00455915
0.00451876
0.00447843
0.00443911
0.00440141
0.00436509
0.0043285
0.00428803
0.00423908
0.00417871
0.00410679
0.00402485
0.00393493
0.00383912
0.00373947
0.00363798
0.00353679
0.00343844
0.00334585
0.00326216
0.00318529
0.0031031
0.00300332
0.00288715
0.00276032
0.00262586
0.00248436
0.00233393
0.00217423
0.00200706
0.00183176
0.00164253
0.00142357
0.00116333
0.00513283
0.00510911
0.00507986
0.00504559
0.00500703
0.00496513
0.00492099
0.00487589
0.00483117
0.00478816
0.00474795
0.00471081
0.00467509
0.00463539
0.00458321
0.00451449
0.00443139
0.00433791
0.00423741
0.00413266
0.00402598
0.00391943
0.0038149
0.00371437
0.00362034
0.00353491
0.00345511
0.00337132
0.00327062
0.00315225
0.00302389
0.00288876
0.00274508
0.00259037
0.00242387
0.00224402
0.00204934
0.0018354
0.00159156
0.00131305
0.00554566
0.00551992
0.00548709
0.00544806
0.00540395
0.00535609
0.00530583
0.00525457
0.00520374
0.00515478
0.00510903
0.00506744
0.00502938
0.00498901
0.00493359
0.00485651
0.00476272
0.00465925
0.00455015
0.0044384
0.00432652
0.0042167
0.00411085
0.00401063
0.00391759
0.00383228
0.0037513
0.00366814
0.00357142
0.00345816
0.00333183
0.00319508
0.00304653
0.00288446
0.00270762
0.00251232
0.00229447
0.00204478
0.00174393
0.00138611
0.00599875
0.00596811
0.00592895
0.00588273
0.00583112
0.00577585
0.00571848
0.00566031
0.00560247
0.00554599
0.00549181
0.00544052
0.00539272
0.00534704
0.00529332
0.00521437
0.00511466
0.00500444
0.00488854
0.00477043
0.00465317
0.0045396
0.00443228
0.00433325
0.00424385
0.00416375
0.00408896
0.00401257
0.00392387
0.00381576
0.00369073
0.00355107
0.00339532
0.00322274
0.00303131
0.0028171
0.00257301
0.00228397
0.00190356
0.00138633
0.00649608
0.00645669
0.00640768
0.00635137
0.00629018
0.00622631
0.00616142
0.00609646
0.00603178
0.00596756
0.00590434
0.0058426
0.00578595
0.00573821
0.0056868
0.00560678
0.00550393
0.00538824
0.00526499
0.0051385
0.00501301
0.00489275
0.00478168
0.00468311
0.00459913
0.00452955
0.00446955
0.00440702
0.00432805
0.00422511
0.00409955
0.00395225
0.00378451
0.00359687
0.00338792
0.00315333
0.00288305
0.00255249
0.0020904
0.00138945
0.00703849
0.00698612
0.00692353
0.00685427
0.00678177
0.00670891
0.00663748
0.00656789
0.0064993
0.00643055
0.00636216
0.00629623
0.00623924
0.00619221
0.00613599
0.00605035
0.00594224
0.00581918
0.00568611
0.00554774
0.00540974
0.00527839
0.00515975
0.0050591
0.00498073
0.00492633
0.00488933
0.00484636
0.00477571
0.00467074
0.00453406
0.0043697
0.00418184
0.00397486
0.00374876
0.00349886
0.00321047
0.00284679
0.00230727
0.00140432
0.00762682
0.00755721
0.00747763
0.00739312
0.00730836
0.00722709
0.00715161
0.00708218
0.00701701
0.00695288
0.00688989
0.00682821
0.00676823
0.00671027
0.00663823
0.00654088
0.00642427
0.00629344
0.00615048
0.00599847
0.00584464
0.00569872
0.0055693
0.00546283
0.00538463
0.00533868
0.00532193
0.00530082
0.00522762
0.00510097
0.00493337
0.00473637
0.00451801
0.0042874
0.00404722
0.00379331
0.0035039
0.00312424
0.00251357
0.00140558
0.00826237
0.00817256
0.00807446
0.00797442
0.00787834
0.00779075
0.00771484
0.00765175
0.00759964
0.00755128
0.00749847
0.00743476
0.00735879
0.00727582
0.00717771
0.00706289
0.00693752
0.00680318
0.00665446
0.00648919
0.00631777
0.00615669
0.00601731
0.00590424
0.00581985
0.00576927
0.00575891
0.00574439
0.00564039
0.00545756
0.00523319
0.00498341
0.00471615
0.00444409
0.00417664
0.00391707
0.00363805
0.00325362
0.00260482
0.00141629
0.00894516
0.00883632
0.00872317
0.00861264
0.00851043
0.00842115
0.00834804
0.00829258
0.00825553
0.00822643
0.00818192
0.00810507
0.00800234
0.00788709
0.00776195
0.00763065
0.00749967
0.00736766
0.00721849
0.00704242
0.00685715
0.00668694
0.00654235
0.00642532
0.00633812
0.00628499
0.00625493
0.00618213
0.00600726
0.00575472
0.00546361
0.00514512
0.0048076
0.00446234
0.00412662
0.00382336
0.003539
0.00313905
0.00248206
0.00140998
0.00967472
0.00955456
0.00943519
0.00932303
0.00922291
0.00913831
0.00907039
0.00901543
0.00897931
0.00896295
0.00892814
0.0088325
0.00870577
0.00856937
0.00843106
0.0082951
0.00816685
0.00804265
0.00789691
0.00771883
0.00753661
0.00737546
0.0072416
0.00712998
0.00703454
0.00694808
0.00684329
0.00667361
0.00641909
0.00610232
0.00574461
0.00535473
0.00494058
0.00451258
0.00408768
0.0036935
0.0033443
0.00292176
0.00226988
0.0014065
0.0104647
0.0103466
0.0102323
0.0101271
0.0100344
0.00995554
0.00989179
0.00984115
0.00982069
0.0098238
0.00977922
0.00967244
0.00954129
0.00940336
0.00926885
0.00914178
0.00902637
0.00891492
0.00877769
0.00861602
0.00845853
0.00832453
0.00821318
0.0081045
0.00798388
0.00784
0.00764608
0.0073785
0.0070383
0.00664366
0.00620637
0.00573425
0.0052348
0.00471844
0.00419986
0.00370057
0.0032354
0.00275906
0.00212308
0.00140155
0.011366
0.0112642
0.0111649
0.0110734
0.010993
0.0109248
0.0108818
0.0108737
0.0108856
0.0108858
0.0108344
0.0107355
0.0106128
0.0104846
0.0103651
0.0102605
0.0101707
0.0100846
0.00997899
0.00985783
0.00973854
0.00962776
0.0095233
0.00941676
0.00929138
0.00911031
0.00883652
0.00846958
0.00803304
0.0075474
0.00702006
0.0064532
0.00585279
0.00522986
0.0046005
0.00397712
0.00336997
0.00277118
0.00209779
0.0014035
0.0124485
0.0123734
0.0122974
0.0122261
0.0121709
0.0121464
0.0121598
0.0121985
0.0122321
0.0122353
0.012192
0.0121075
0.0119994
0.011889
0.0117971
0.0117327
0.0116925
0.0116661
0.0116298
0.0115768
0.0115151
0.0114509
0.0113865
0.0113143
0.0112047
0.0110057
0.0106696
0.0102136
0.00968491
0.00911321
0.00849827
0.00783063
0.00710053
0.00632069
0.00551546
0.00469941
0.00388994
0.00309163
0.00225644
0.00139596
0.0137648
0.0137292
0.0136917
0.013665
0.013667
0.013708
0.0137798
0.0138593
0.0139157
0.0139275
0.0138917
0.0138182
0.0137245
0.013634
0.013576
0.0135708
0.0136197
0.0137032
0.0137843
0.0138371
0.0138644
0.0138838
0.0139089
0.0139357
0.0139083
0.013734
0.0133478
0.0128167
0.0122208
0.011602
0.0109392
0.0101905
0.00929066
0.00826644
0.00718315
0.00607804
0.00498411
0.00389661
0.00273843
0.0014013
0.0153369
0.0153653
0.015396
0.0154391
0.0155061
0.0156062
0.0157235
0.0158296
0.0158967
0.0159093
0.0158688
0.0157918
0.0157041
0.0156314
0.0156078
0.01567
0.0158366
0.016079
0.0163155
0.0164833
0.0165917
0.0166902
0.0168042
0.0168919
0.0168973
0.0167303
0.0163966
0.0159858
0.0155247
0.0150149
0.0143662
0.0135601
0.0124528
0.0111339
0.00971131
0.00825799
0.0068257
0.00538713
0.00380481
0.00158091
0.0171472
0.0172579
0.017374
0.017492
0.0176096
0.0177417
0.0178735
0.0179822
0.018044
0.0180451
0.0179861
0.0178923
0.0178072
0.0177554
0.0177559
0.0178643
0.0181183
0.018478
0.0188075
0.019003
0.0191169
0.0192388
0.0193484
0.0193805
0.0193092
0.0191623
0.0190524
0.0190174
0.0189563
0.0186615
0.0180819
0.017203
0.0161062
0.0147147
0.0129899
0.0112369
0.00945957
0.00764417
0.00563256
0.00241783
0.0191353
0.0193276
0.0195127
0.0196894
0.0198497
0.0199928
0.0201106
0.0201945
0.0202263
0.0201912
0.020088
0.0199557
0.0198602
0.0198096
0.0197969
0.0198805
0.0200964
0.0204323
0.0207379
0.0208441
0.0208675
0.0208984
0.0209168
0.0208958
0.02085
0.020812
0.0207948
0.0207783
0.020722
0.020581
0.020377
0.0200047
0.0194401
0.0186443
0.0174267
0.015634
0.0132205
0.0105654
0.0079049
0.00386301
0.0211824
0.0214512
0.0216965
0.0219158
0.0220921
0.0222359
0.0223361
0.02238
0.0223696
0.0222924
0.0221548
0.0220072
0.0219049
0.0218495
0.0218307
0.0218782
0.0220268
0.0222272
0.0223532
0.0223828
0.0223634
0.022335
0.0222926
0.0222297
0.0221496
0.0220621
0.0219657
0.0218496
0.021713
0.0215549
0.0213613
0.0210706
0.0206977
0.0203387
0.0200214
0.0192641
0.0173432
0.014187
0.00983107
0.00378734
0.0231837
0.0235086
0.0237822
0.0240162
0.0241971
0.0243351
0.0244367
0.024478
0.0244784
0.0244476
0.0243879
0.0243391
0.0243249
0.0243364
0.0243696
0.0244331
0.0244962
0.0245293
0.024531
0.0245122
0.0244707
0.0244189
0.0243537
0.0242708
0.0241687
0.0240478
0.0239081
0.0237437
0.0235525
0.0233366
0.0230961
0.0228129
0.022491
0.02227
0.0223282
0.0224795
0.0220577
0.0200853
0.0154114
0.00540127
0.0250581
0.0254127
0.0256972
0.0259436
0.0261673
0.0263498
0.0265049
0.0266393
0.0267583
0.0268688
0.0269792
0.0271067
0.0272464
0.0273621
0.0274507
0.027521
0.0275576
0.027551
0.0275259
0.0274946
0.0274656
0.0274393
0.0274166
0.0273948
0.027371
0.0273439
0.0273142
0.0272842
0.0272544
0.027216
0.0271439
0.0270131
0.0268575
0.0267966
0.0269905
0.0275085
0.0279173
0.0267221
0.0216531
0.00987096
0.0267964
0.027175
0.0275005
0.0278121
0.0281231
0.0284219
0.0287129
0.0290011
0.0292906
0.0295813
0.0298728
0.030164
0.0304414
0.0306888
0.0308908
0.0310419
0.0311388
0.031197
0.0312426
0.0312983
0.0313691
0.0314598
0.0315748
0.031711
0.031862
0.0320232
0.0321956
0.0323871
0.0326027
0.0328229
0.0329873
0.0330611
0.0331204
0.0333412
0.0337374
0.0343505
0.0343001
0.0318883
0.0255133
0.0139758
0.0283788
0.0288584
0.0292762
0.0297028
0.030152
0.0306077
0.0310698
0.031539
0.0320133
0.0324875
0.0329545
0.0334054
0.0338281
0.0342116
0.0345462
0.0348282
0.0350684
0.0352927
0.0355244
0.0357801
0.0360748
0.036417
0.036804
0.0372234
0.0376549
0.0380849
0.0385229
0.0390015
0.0395528
0.0401705
0.0407736
0.0414061
0.0420906
0.0422677
0.0415925
0.041948
0.0431302
0.0401078
0.031045
0.0170038
0.029915
0.0304977
0.0310464
0.0316207
0.0322238
0.0328474
0.0334859
0.0341339
0.0347846
0.0354304
0.0360624
0.0366719
0.0372518
0.037793
0.0382952
0.0387698
0.0392396
0.0397324
0.0402757
0.0408898
0.0415831
0.0423443
0.0431526
0.0439681
0.0447325
0.0454209
0.0461145
0.0469486
0.0480551
0.0495077
0.0511249
0.0519779
0.0518629
0.0511623
0.0498915
0.0492273
0.0494863
0.0468402
0.0368087
0.0189862
0.0313785
0.0320693
0.0327666
0.0334953
0.0342557
0.0350405
0.0358416
0.0366511
0.0374613
0.0382661
0.039061
0.0398377
0.04059
0.0413273
0.042067
0.0428358
0.0436678
0.0445932
0.045632
0.0467987
0.0480774
0.0493939
0.0506689
0.0517799
0.0526521
0.0533836
0.0541605
0.0549987
0.0554613
0.0555004
0.0555098
0.0553441
0.0549532
0.0544492
0.0536667
0.0531575
0.0517501
0.0470504
0.0371375
0.0188806
0.0327396
0.0335514
0.034391
0.0352646
0.0361693
0.0370978
0.0380418
0.0389946
0.0399518
0.0409128
0.0418731
0.0428371
0.043821
0.0448484
0.0459502
0.0471626
0.048522
0.0500503
0.0517573
0.0536749
0.0557172
0.0575364
0.0589626
0.0599285
0.060824
0.061145
0.0603673
0.0590554
0.0575293
0.0561152
0.0550226
0.0541882
0.0534629
0.0527654
0.0518877
0.0502481
0.047644
0.0429728
0.0341871
0.0172748
0.0339823
0.034908
0.0358712
0.0368704
0.0379002
0.0389535
0.040024
0.0411083
0.042208
0.0433279
0.0444768
0.0456795
0.0469698
0.0483888
0.0499801
0.0517832
0.0538339
0.056111
0.0585158
0.0611449
0.0640731
0.0660685
0.0667142
0.0679068
0.0666233
0.0639823
0.0615654
0.0593411
0.057291
0.0554778
0.0539288
0.0525753
0.0512919
0.0499529
0.0483394
0.0460708
0.0431317
0.03912
0.0311939
0.0158518
0.0350808
0.0361005
0.0371644
0.0382669
0.0394022
0.0405644
0.0417499
0.0429601
0.0442029
0.0454908
0.0468522
0.0483279
0.0499716
0.0518454
0.0540089
0.0564982
0.0593555
0.0625777
0.065576
0.0679506
0.0697347
0.0721798
0.0731261
0.0697816
0.0663136
0.0632313
0.0605595
0.0581976
0.0560767
0.0541518
0.0523746
0.0506679
0.0489263
0.0470334
0.0448578
0.0422863
0.0393495
0.0356282
0.0284394
0.0146247
0.0360234
0.0371122
0.0382506
0.0394332
0.0406553
0.0419132
0.0432055
0.0445372
0.0459205
0.0473779
0.0489473
0.0506841
0.0526644
0.054984
0.0577414
0.0608547
0.0637146
0.0660059
0.0681108
0.0704754
0.0736673
0.0744189
0.0710042
0.0673852
0.0641989
0.0614168
0.0589615
0.0567549
0.0547286
0.0528213
0.0509751
0.0491257
0.0472009
0.0451258
0.0428254
0.0402229
0.0371538
0.0332846
0.0265428
0.0139119
0.0368224
0.037955
0.039145
0.0403889
0.0416837
0.0430276
0.0444204
0.0458665
0.0473773
0.0489775
0.050705
0.0526181
0.0548064
0.0573872
0.0602674
0.0628468
0.0650018
0.0670965
0.0692395
0.0711321
0.0711466
0.0691393
0.0666662
0.0641803
0.0618164
0.0596093
0.0575519
0.0556167
0.0537625
0.0519444
0.0501191
0.0482398
0.0462572
0.044122
0.0417818
0.0391652
0.0360861
0.0320432
0.0254789
0.0134848
0.0375317
0.0386967
0.0399293
0.0412283
0.0425919
0.0440183
0.0455053
0.0470525
0.0486625
0.050347
0.0521288
0.0540419
0.0561394
0.0584898
0.0610943
0.0635964
0.0656325
0.0672127
0.0680341
0.0677039
0.0666017
0.0651612
0.0635296
0.06181
0.060071
0.0583515
0.0566639
0.0550004
0.0533376
0.0516444
0.0498881
0.048032
0.0460359
0.0438545
0.0414319
0.0386811
0.0354313
0.0312414
0.0246324
0.0129507
0.0382842
0.0394865
0.0407669
0.042126
0.0435625
0.0450724
0.0466487
0.0482811
0.0499573
0.0516648
0.0533995
0.0551598
0.0569417
0.0587321
0.060542
0.0623788
0.0640061
0.0648446
0.0648391
0.064412
0.0636983
0.0627616
0.0616462
0.0604086
0.0591006
0.0577531
0.056375
0.0549616
0.0534963
0.0519541
0.0503072
0.0485246
0.0465716
0.0444043
0.0419624
0.0391447
0.0357461
0.0312962
0.0246921
0.0130843
0.0392596
0.0405102
0.0418491
0.0432774
0.0447934
0.0463898
0.0480528
0.0497598
0.0514794
0.0531732
0.0548019
0.0563372
0.0577595
0.0590465
0.0601813
0.0611608
0.0619453
0.0624358
0.0625891
0.0624561
0.0620806
0.0614944
0.0607407
0.0598636
0.0588955
0.057855
0.0567465
0.0555651
0.0542954
0.0529141
0.0513957
0.049712
0.0478306
0.0457066
0.0432696
0.0404007
0.0369005
0.0323268
0.0256707
0.0136253
0.0406408
0.0419498
0.0433557
0.0448602
0.0464605
0.0481469
0.0498998
0.0516869
0.0534611
0.055159
0.0567114
0.0580717
0.0592151
0.0601359
0.0608534
0.0613983
0.0617916
0.0620359
0.062125
0.0620525
0.061821
0.0614432
0.0609374
0.0603217
0.0596094
0.0588074
0.0579153
0.0569247
0.0558189
0.0545751
0.0531679
0.0515678
0.0497378
0.0476289
0.0451623
0.04221
0.0385552
0.0337884
0.0267856
0.0142646
0.0426391
0.044008
0.0454817
0.0470606
0.0487411
0.0505132
0.0523565
0.0542367
0.0561021
0.0578718
0.0594482
0.0607752
0.0618153
0.0625466
0.0630246
0.0633203
0.0634853
0.0635472
0.0635164
0.0633955
0.063185
0.0628856
0.0624986
0.062025
0.0614639
0.0608114
0.0600592
0.0591936
0.0581954
0.0570402
0.0556995
0.0541403
0.0523216
0.0501889
0.0476563
0.0445863
0.0407545
0.0357417
0.0284235
0.015141
0.0455294
0.046949
0.0484784
0.0501157
0.0518552
0.0536875
0.0555951
0.0575489
0.0595097
0.0614209
0.0631623
0.0646196
0.0657251
0.0664358
0.0668066
0.0669579
0.0669638
0.0668747
0.0667179
0.0665059
0.0662433
0.0659292
0.0655594
0.0651265
0.0646203
0.0640279
0.063333
0.0625162
0.061554
0.0604186
0.0590779
0.0574943
0.0556219
0.0534004
0.050742
0.0475091
0.0434748
0.0382048
0.0305482
0.0163075
0.0496735
0.0511066
0.0526558