/*--------------------------------*- C++ -*----------------------------------*\
  =========                 |
  \\      /  F ield         | OpenFOAM: The Open Source CFD Toolbox
   \\    /   O peration     | Website:  https://openfoam.org
    \\  /    A nd           | Version:  8
     \\/     M anipulation  |
\*---------------------------------------------------------------------------*/
FoamFile
{
    version     2.0;
    format      ascii;
    class       volScalarField;
    location    "4.05";
    object      nut;
}
// * * * * * * * * * * * * * * * * * * * * * * * * * * * * * * * * * * * * * //

dimensions      [0 2 -1 0 0 0 0];

internalField   nonuniform List<scalar> 
9150
(
9.60016e-06
6.40621e-06
6.56891e-06
8.72712e-06
7.52495e-06
7.52366e-06
8.72356e-06
6.56753e-06
6.40655e-06
9.6001e-06
9.48736e-06
5.73894e-06
8.27163e-06
9.86801e-06
7.00082e-06
7.00004e-06
9.86542e-06
8.26934e-06
5.73921e-06
9.48733e-06
9.29549e-06
5.50186e-06
1.07946e-05
1.0243e-05
6.65465e-06
6.65386e-06
1.02413e-05
1.0792e-05
5.50206e-06
9.29548e-06
9.0799e-06
5.42416e-06
1.33993e-05
1.02406e-05
6.46862e-06
6.4677e-06
1.02392e-05
1.33975e-05
5.42432e-06
9.0799e-06
8.84511e-06
5.40789e-06
1.56466e-05
1.0149e-05
6.37412e-06
6.37312e-06
1.01475e-05
1.56461e-05
5.40805e-06
8.84511e-06
5.91033e-06
1.12749e-05
1.38518e-05
1.73527e-05
1.64907e-05
1.6484e-05
1.73372e-05
1.38285e-05
1.12589e-05
5.90924e-06
6.27836e-06
8.85097e-06
1.13475e-05
1.52567e-05
1.42639e-05
1.426e-05
1.52478e-05
1.13346e-05
8.84495e-06
6.27837e-06
6.82851e-06
7.89601e-06
9.37505e-06
1.30285e-05
1.19946e-05
1.1992e-05
1.30225e-05
9.36845e-06
7.89441e-06
6.82861e-06
7.38588e-06
7.29197e-06
7.96533e-06
1.11232e-05
1.00873e-05
1.00853e-05
1.11186e-05
7.96192e-06
7.29193e-06
7.38593e-06
8.07404e-06
6.84403e-06
7.04635e-06
9.62708e-06
8.55269e-06
8.55108e-06
9.62319e-06
7.04442e-06
6.84435e-06
8.07405e-06
1.23905e-05
1.46775e-05
1.28717e-05
1.57218e-05
1.73541e-05
1.72236e-05
1.53913e-05
1.22568e-05
1.23194e-05
1.14454e-05
7.88189e-06
1.07896e-05
1.24775e-05
1.58203e-05
1.7409e-05
1.73204e-05
1.55934e-05
1.22704e-05
1.07537e-05
7.85212e-06
7.45852e-06
1.01902e-05
1.25243e-05
1.59665e-05
1.74694e-05
1.74119e-05
1.58168e-05
1.24084e-05
1.01556e-05
7.44896e-06
7.02973e-06
9.80587e-06
1.25517e-05
1.60923e-05
1.75209e-05
1.74797e-05
1.59942e-05
1.24791e-05
9.76276e-06
7.02539e-06
6.50688e-06
1.00604e-05
1.25555e-05
1.62738e-05
1.7411e-05
1.73867e-05
1.62227e-05
1.25143e-05
1.00237e-05
6.50493e-06
7.25583e-06
7.2365e-06
7.21697e-06
7.19724e-06
7.17734e-06
7.15725e-06
7.13688e-06
7.11605e-06
7.09448e-06
7.07167e-06
5.69342e-05
5.64397e-05
5.59713e-05
5.55306e-05
5.5118e-05
5.47312e-05
5.43658e-05
5.40148e-05
5.36691e-05
5.33177e-05
0.000116217
0.000115314
0.000114416
0.000113527
0.000112651
0.000111786
0.000110928
0.000110069
0.000109196
0.000108295
0.000167175
0.000166105
0.000165005
0.000163881
0.000162736
0.000161568
0.000160374
0.000159146
0.000157872
0.000156536
0.000209101
0.000208021
0.00020688
0.000205681
0.000204426
0.000203112
0.000201737
0.000200292
0.000198766
0.000197146
0.000243373
0.000242373
0.000241282
0.000240102
0.000238836
0.000237479
0.000236029
0.000234478
0.000232816
0.000231033
0.000271496
0.00027061
0.00026961
0.000268497
0.00026727
0.000265928
0.000264466
0.000262878
0.000261155
0.000259288
0.000294772
0.000294004
0.000293102
0.000292067
0.000290897
0.00028959
0.000288143
0.000286553
0.00028481
0.000282908
0.000314264
0.000313594
0.000312776
0.000311808
0.000310687
0.00030941
0.000307974
0.000306385
0.000304639
0.000302729
0.000330812
0.00033021
0.000329444
0.00032851
0.000327407
0.000326136
0.000324696
0.0003231
0.000321362
0.000319467
0.000345061
0.000344482
0.000343723
0.000342783
0.000341671
0.000340396
0.000338966
0.000337378
0.000335636
0.000333739
0.000357524
0.000356934
0.000356165
0.000355226
0.000354115
0.000352834
0.000351384
0.00034977
0.000347996
0.000346064
0.000368761
0.000368151
0.000367361
0.00036639
0.00036524
0.000363907
0.000362392
0.000360699
0.000358834
0.000356804
0.000379211
0.000378547
0.00037769
0.000376636
0.000375384
0.000373929
0.000372271
0.000370417
0.000368373
0.000366151
0.000389113
0.000388348
0.000387366
0.000386159
0.000384722
0.000383054
0.000381154
0.00037903
0.000376693
0.00037416
0.000398572
0.000397628
0.000396437
0.000394989
0.000393274
0.000391289
0.000389035
0.000386518
0.000383754
0.000380766
0.000407548
0.000406322
0.000404821
0.000403028
0.00040093
0.000398519
0.00039579
0.00039274
0.00038939
0.000385788
0.000415884
0.000414258
0.000412329
0.000410074
0.000407465
0.000404501
0.000401154
0.000397419
0.00039333
0.000388969
0.000423335
0.000421173
0.000418686
0.000415837
0.000412583
0.000408886
0.000404738
0.000400166
0.000395242
0.000390083
0.000429653
0.000426817
0.000423609
0.000419962
0.00041584
0.000411277
0.000406291
0.000400912
0.000395266
0.000389459
0.000434612
0.000430942
0.000426838
0.000422266
0.000417312
0.00041204
0.000406421
0.000400523
0.000394446
0.000388265
0.00043826
0.000433701
0.000428754
0.000423507
0.000418032
0.00041235
0.000406473
0.000400435
0.000394276
0.000388031
0.000441089
0.000435857
0.000430434
0.000424897
0.000419281
0.000413596
0.00040784
0.000402002
0.000396077
0.000390068
0.000444084
0.000438571
0.000433067
0.000427624
0.00042224
0.000416892
0.000411544
0.000406163
0.000400727
0.000395227
0.000448218
0.000442754
0.000437454
0.000432353
0.000427429
0.000422633
0.000417913
0.000413222
0.00040853
0.000403823
0.000453768
0.000448533
0.000443625
0.000439047
0.000434766
0.00043072
0.000426842
0.00042307
0.000419361
0.000415695
0.000460998
0.000456172
0.000451805
0.000447893
0.000444398
0.000441252
0.000438375
0.000435703
0.000433185
0.000430789
0.000470083
0.000465855
0.000462175
0.000459037
0.000456414
0.000454247
0.000452454
0.000450995
0.00044986
0.000448983
0.000480955
0.00047746
0.000474576
0.00047229
0.00047058
0.000469431
0.000468826
0.000468749
0.000469193
0.000470067
0.000493365
0.000490691
0.000488682
0.00048732
0.000486615
0.000486608
0.000487312
0.000488702
0.000490753
0.000493378
0.000507051
0.000505228
0.00050415
0.000503829
0.000504281
0.000505558
0.000507668
0.000510556
0.00051418
0.000518681
0.000521755
0.00052076
0.000520628
0.00052139
0.00052306
0.000525637
0.000529069
0.000533361
0.000538762
0.000545411
0.000537176
0.000536947
0.000537721
0.000539529
0.000542353
0.00054608
0.000550757
0.000556736
0.00056416
0.000572592
0.000553138
0.000553619
0.000555221
0.000557931
0.000561669
0.000566496
0.000572721
0.000580499
0.000589514
0.000599315
0.000569413
0.000570595
0.000572964
0.000576469
0.000581168
0.000587292
0.000594976
0.000604078
0.000614198
0.0006251
0.000585752
0.000587665
0.000590835
0.000595272
0.000601106
0.000608433
0.000617158
0.000627105
0.000638023
0.00064977
0.000602182
0.00060489
0.00060894
0.000614382
0.000621296
0.000629578
0.000639024
0.000649597
0.000661163
0.000673554
0.00061914
0.000622679
0.000627607
0.000633942
0.000641674
0.000650695
0.000660847
0.000672049
0.000684161
0.000697032
0.000637661
0.000642062
0.000647851
0.000654998
0.000663443
0.000673094
0.000683839
0.000695541
0.000708065
0.000721274
0.000659089
0.000664359
0.000670964
0.000678858
0.000687964
0.000698184
0.000709397
0.000721467
0.000734258
0.000747644
0.000684637
0.000690781
0.000698167
0.000706746
0.000716432
0.00072711
0.000738646
0.000750907
0.000763767
0.000777113
0.000715086
0.000722045
0.000730096
0.000739196
0.000749258
0.000760143
0.000771715
0.000783855
0.000796457
0.000809438
0.000750111
0.000757543
0.000765862
0.000775055
0.000785011
0.00079558
0.000806657
0.000818164
0.000830031
0.000842216
0.000787083
0.000794468
0.000802484
0.000811083
0.000820123
0.000829547
0.000839351
0.000849529
0.000860055
0.00087094
0.000821489
0.000828379
0.000835539
0.000842739
0.000849966
0.000857409
0.000865183
0.000873351
0.000882007
0.000891201
0.000848229
0.000853871
0.000859432
0.000864768
0.000870012
0.000875391
0.000881078
0.00088722
0.000893967
0.000901405
0.000865188
0.000869145
0.000873011
0.000876763
0.000880494
0.000884392
0.000888612
0.000893303
0.000898614
0.000904646
0.000877462
0.000880841
0.000884167
0.000887472
0.000890835
0.000894342
0.000898104
0.000902094
0.000906494
0.000911497
0.000897469
0.000901884
0.000906229
0.000910487
0.000914536
0.000918593
0.000922828
0.000927284
0.000931963
0.000936841
0.000935503
0.000942233
0.000948486
0.000954464
0.000960321
0.000966075
0.000971723
0.000977182
0.000982139
0.000985997
0.000984494
0.000994815
0.00100447
0.00101324
0.00102109
0.00102808
0.00103415
0.00103906
0.00104258
0.00104463
0.00102895
0.0010426
0.00105495
0.00106579
0.00107514
0.00108305
0.00108933
0.00109364
0.00109617
0.00109741
0.00106341
0.00107833
0.00109173
0.0011035
0.00111356
0.00112186
0.0011284
0.00113317
0.0011364
0.00113831
0.00108719
0.0011019
0.00111505
0.00112656
0.00113641
0.00114463
0.00115133
0.00115662
0.00116057
0.00116322
0.00109765
0.0011112
0.00112324
0.00113377
0.00114287
0.00115064
0.00115721
0.00116275
0.00116712
0.00117036
0.00109329
0.00110495
0.00111527
0.00112434
0.0011323
0.00113929
0.00114549
0.00115105
0.00115584
0.00115979
0.00107523
0.00108435
0.00109236
0.00109946
0.00110583
0.00111168
0.00111722
0.00112267
0.00112792
0.0011328
0.00104842
0.00105422
0.00105911
0.00106338
0.00106732
0.00107128
0.00107562
0.00108066
0.00108626
0.00109224
0.00102229
0.00102366
0.00102407
0.00102385
0.00102356
0.00102403
0.00102597
0.00102983
0.00103533
0.00104238
0.00101198
0.00100577
0.000998072
0.000989865
0.000982271
0.000976718
0.000974384
0.000975659
0.000980342
0.000988198
0.00102055
0.00101042
0.000988128
0.00096618
0.000947714
0.000933874
0.000925495
0.00092298
0.000926182
0.000934438
0.00102594
0.00101523
0.000983279
0.000947562
0.000918216
0.000895932
0.000881366
0.000874938
0.000876342
0.000884626
0.00102918
0.00101105
0.000971032
0.000927579
0.000890762
0.000862099
0.000842542
0.000832702
0.000832379
0.000840535
0.00103454
0.00100848
0.000958695
0.00090861
0.000865954
0.000832133
0.00080844
0.000795769
0.000794071
0.000802267
0.00104196
0.00100403
0.000944445
0.000889311
0.000841846
0.000803794
0.000776855
0.000762207
0.000759899
0.000768751
0.00103965
0.00099153
0.000925579
0.000866069
0.000814828
0.000773748
0.000744876
0.000729618
0.000727987
0.00073857
0.00102279
0.000965384
0.000896643
0.000834805
0.000781512
0.000739152
0.00071024
0.000696297
0.000697073
0.000710755
0.000983104
0.000920753
0.000855107
0.000793671
0.000740388
0.000698937
0.000672346
0.00066198
0.000667027
0.000685154
0.000928213
0.000868572
0.000804778
0.000744258
0.000692668
0.000654426
0.000632572
0.000627879
0.000638714
0.000662244
0.00087144
0.000811567
0.000748122
0.000689386
0.000641401
0.000608561
0.000593437
0.000595845
0.000613256
0.000642542
0.000810648
0.000749754
0.000687475
0.000632352
0.000589969
0.000564322
0.000557202
0.000567283
0.00059132
0.000626197
0.000745055
0.000684835
0.000625881
0.000576379
0.000541179
0.00052382
0.000525117
0.000542657
0.000572895
0.000612995
0.000677579
0.000620471
0.000567234
0.000524631
0.00049722
0.000488223
0.000497419
0.000521589
0.000557337
0.000602168
0.000609491
0.000560052
0.000514337
0.000478955
0.000459014
0.000457591
0.000473524
0.000503213
0.000543703
0.000592674
0.000552932
0.000509884
0.000470241
0.000440565
0.000426604
0.000431244
0.000452433
0.000486554
0.000531134
0.000583779
0.000511821
0.000472145
0.000435685
0.000409205
0.000399157
0.000408096
0.000433083
0.000470704
0.000518766
0.000574503
0.000482657
0.000444035
0.000408353
0.000382913
0.000375026
0.000386811
0.00041449
0.000454991
0.000506044
0.000564249
0.000460998
0.000421955
0.000385456
0.000359568
0.000352623
0.000366235
0.000395948
0.00043909
0.000492873
0.000553098
0.000443921
0.000403382
0.000365003
0.000337653
0.000330807
0.000345574
0.00037706
0.000422903
0.000479335
0.000541353
0.000429722
0.000386898
0.000345933
0.000316347
0.000308907
0.00032439
0.000357743
0.000406551
0.000465619
0.000529233
0.000416822
0.000371564
0.000327769
0.000295318
0.000286578
0.000302493
0.000338119
0.000390344
0.000452245
0.000517682
0.000404519
0.000357297
0.000310608
0.000274579
0.000263664
0.000279808
0.000318231
0.00037413
0.000438733
0.000505868
0.00039387
0.000344674
0.000294645
0.00025414
0.000240047
0.000256397
0.000298276
0.000357894
0.00042473
0.000492982
0.000385056
0.000333201
0.000279358
0.000233732
0.000215572
0.000232466
0.000278753
0.000342185
0.000410841
0.000479641
0.000377383
0.000321888
0.000264172
0.000213279
0.000190232
0.00020828
0.000260148
0.000327685
0.000398102
0.000467213
0.000367837
0.000309816
0.000249164
0.0001933
0.000164336
0.000184012
0.000242588
0.000314711
0.000387278
0.000456882
0.000357991
0.000298541
0.000235471
0.000174722
0.000138481
0.000159661
0.00022575
0.000303076
0.000378675
0.000449635
0.000349474
0.000288626
0.000223307
0.000157787
0.000113326
0.000135134
0.000209002
0.000292176
0.000372025
0.000445877
0.000342262
0.000279897
0.000212137
0.00014203
8.96291e-05
0.000110487
0.000191543
0.000281095
0.000366506
0.000445161
0.000336716
0.000271931
0.000201048
0.000126533
6.82098e-05
8.61901e-05
0.000172532
0.000268724
0.000360748
0.000445656
0.000331788
0.000263821
0.000188937
0.000110386
4.98935e-05
6.32732e-05
0.000151204
0.000254023
0.000353628
0.000446032
0.000326621
0.000254639
0.000175083
9.33912e-05
3.55022e-05
4.31976e-05
0.000126774
0.000235528
0.000343811
0.000445879
0.00032202
0.000244255
0.000159408
7.62303e-05
2.55481e-05
2.75568e-05
9.90106e-05
0.000210862
0.000327771
0.00043986
0.00031726
0.000231689
0.00014181
6.00551e-05
1.99274e-05
1.74938e-05
6.98223e-05
0.000178318
0.000302406
0.000423212
0.000310279
0.00021582
0.000122964
4.64006e-05
1.78345e-05
1.28455e-05
4.36536e-05
0.000138475
0.000266846
0.000394957
0.000297396
0.000197159
0.000104442
3.62918e-05
1.75283e-05
1.22084e-05
2.48743e-05
9.60198e-05
0.000221587
0.000355188
0.000277934
0.000179669
8.90097e-05
2.96674e-05
1.77366e-05
1.41349e-05
1.49789e-05
5.82201e-05
0.00016994
0.000305867
0.000261017
0.000172246
7.72485e-05
2.51083e-05
1.77027e-05
1.61272e-05
1.28728e-05
3.27668e-05
0.000119633
0.000249848
0.000308759
0.000183506
6.35295e-05
2.08484e-05
1.74879e-05
1.69045e-05
1.44921e-05
2.18156e-05
8.59691e-05
0.000204786
0.000479509
0.000160142
3.67991e-05
1.70424e-05
1.73516e-05
1.71203e-05
1.53251e-05
1.78992e-05
7.77138e-05
0.000313245
7.04464e-06
7.01456e-06
6.98056e-06
6.94158e-06
6.89647e-06
6.84418e-06
6.78377e-06
6.71454e-06
6.6362e-06
6.54902e-06
6.45398e-06
6.35298e-06
6.24891e-06
6.14559e-06
6.04735e-06
5.95818e-06
5.88049e-06
5.81408e-06
5.75566e-06
5.70002e-06
5.64211e-06
5.5778e-06
5.50438e-06
5.42095e-06
5.32913e-06
5.2322e-06
5.13226e-06
5.02693e-06
4.90909e-06
4.77657e-06
2.00614e-05
4.70407e-06
4.6962e-06
1.998e-05
1.99468e-05
1.92391e-05
1.75966e-05
1.53084e-05
1.24405e-05
2.41816e-06
5.29239e-05
5.24826e-05
5.19868e-05
5.14219e-05
5.07767e-05
5.0046e-05
4.9231e-05
4.83414e-05
4.7397e-05
4.64283e-05
4.54734e-05
4.45764e-05
4.37822e-05
4.31284e-05
4.26371e-05
4.23081e-05
4.21141e-05
4.19989e-05
4.18814e-05
4.16804e-05
4.13696e-05
4.09487e-05
4.04347e-05
3.98321e-05
3.91948e-05
3.8578e-05
3.7981e-05
3.73041e-05
3.63692e-05
3.50129e-05
3.3523e-05
3.16376e-05
3.01747e-05
2.96194e-05
2.98282e-05
2.93353e-05
2.65074e-05
2.11125e-05
1.30152e-05
3.43735e-06
0.000107287
0.000106169
0.000104954
0.00010362
0.00010215
0.000100538
9.8783e-05
9.69008e-05
9.49192e-05
9.28807e-05
9.08411e-05
8.88649e-05
8.70178e-05
8.53559e-05
8.39141e-05
8.26979e-05
8.16787e-05
8.07953e-05
7.99644e-05
7.91013e-05
7.81473e-05
7.70713e-05
7.58706e-05
7.45589e-05
7.31663e-05
7.17142e-05
7.01669e-05
6.84119e-05
6.62851e-05
6.36419e-05
6.04627e-05
5.68577e-05
5.3133e-05
4.96543e-05
4.64128e-05
4.25622e-05
3.70278e-05
2.90048e-05
1.78621e-05
5.17632e-06
0.000155032
0.000153358
0.000151549
0.000149586
0.000147455
0.00014515
0.000142674
0.000140044
0.000137288
0.000134452
0.000131593
0.000128775
0.000126067
0.000123525
0.000121185
0.000119058
0.000117123
0.00011533
0.000113612
0.000111894
0.000110111
0.000108225
0.000106217
0.00010409
0.000101854
9.95009e-05
9.69685e-05
9.41521e-05
9.09208e-05
8.71497e-05
8.27698e-05
7.78104e-05
7.2424e-05
6.69382e-05
6.14315e-05
5.52048e-05
4.73103e-05
3.6806e-05
2.29036e-05
7.17007e-06
0.00019531
0.000193249
0.000191023
0.000188618
0.000186025
0.000183239
0.000180267
0.000177126
0.000173845
0.000170466
0.000167041
0.000163629
0.000160292
0.000157079
0.000154023
0.000151135
0.0001484
0.000145781
0.000143221
0.000140658
0.000138033
0.000135304
0.000132448
0.000129466
0.000126365
0.000123125
0.000119655
0.000115858
0.000111632
0.000106868
0.000101485
9.54664e-05
8.8896e-05
8.19042e-05
7.44113e-05
6.5981e-05
5.58879e-05
4.31072e-05
2.67372e-05
8.84438e-06
0.000228997
0.000226694
0.000224206
0.000221522
0.000218636
0.000215549
0.000212266
0.000208805
0.000205194
0.000201468
0.000197673
0.000193861
0.000190081
0.000186376
0.000182775
0.000179285
0.000175897
0.00017258
0.000169288
0.000165966
0.000162561
0.000159031
0.000155349
0.000151517
0.000147554
0.000143458
0.000139147
0.000134502
0.000129403
0.000123756
0.000117473
0.000110501
0.000102839
9.44612e-05
8.51833e-05
7.46833e-05
6.23899e-05
4.74643e-05
2.93384e-05
1.03269e-05
0.000257146
0.00025471
0.000252075
0.000249236
0.000246189
0.000242937
0.000239485
0.000235848
0.00023205
0.000228122
0.000224101
0.000220029
0.000215947
0.000211888
0.000207874
0.000203914
0.000199998
0.000196103
0.000192191
0.000188214
0.000184124
0.000179877
0.000175442
0.000170814
0.000166009
0.000161073
0.0001561
0.000150792
0.000144935
0.000138473
0.000131334
0.000123426
0.000114676
0.000104997
9.42105e-05
8.20269e-05
6.79864e-05
5.13702e-05
3.1903e-05
1.20795e-05
0.000280717
0.000278219
0.000275519
0.000272613
0.0002695
0.00026618
0.000262659
0.000258948
0.000255065
0.000251034
0.000246887
0.000242657
0.000238373
0.000234062
0.000229735
0.0002254
0.000221052
0.000216674
0.000212239
0.000207706
0.000203034
0.000198182
0.000193118
0.000187836
0.000182356
0.000176755
0.000171104
0.000165141
0.000158584
0.000151356
0.000143406
0.000134629
0.000124908
0.000114162
0.000102203
8.86805e-05
7.31003e-05
5.49666e-05
3.43681e-05
1.41564e-05
0.000300527
0.000298016
0.000295304
0.000292388
0.000289268
0.000285942
0.000282414
0.000278691
0.000274785
0.000270714
0.000266504
0.00026218
0.000257766
0.000253274
0.000248706
0.000244066
0.000239356
0.000234573
0.000229699
0.000224707
0.000219559
0.00021422
0.00020866
0.000202871
0.000196876
0.000190738
0.000184443
0.000177806
0.000170574
0.000162593
0.000153829
0.000144246
0.000133758
0.00012217
0.000109227
9.47071e-05
7.82382e-05
5.93726e-05
3.79831e-05
1.65392e-05
0.000317279
0.000314779
0.000312079
0.000309181
0.00030608
0.000302776
0.000299266
0.000295553
0.000291643
0.000287552
0.000283301
0.000278913
0.000274408
0.000269788
0.000265032
0.000260136
0.000255121
0.000250002
0.000244773
0.000239414
0.000233895
0.000228182
0.000222243
0.00021606
0.000209637
0.000203
0.0001961
0.000188792
0.00018087
0.000172223
0.000162855
0.000152714
0.000141655
0.000129452
0.000115847
0.000100541
8.31723e-05
6.33652e-05
4.11025e-05
1.86748e-05
0.000331557
0.000329063
0.000326374
0.000323489
0.000320404
0.000317114
0.000313611
0.000309893
0.000305961
0.000301828
0.000297512
0.000293044
0.00028845
0.00028373
0.000278831
0.000273735
0.000268478
0.000263096
0.000257594
0.000251958
0.000246163
0.000240173
0.000233951
0.000227463
0.000220686
0.000213609
0.000206182
0.000198329
0.0001899
0.000180809
0.000171005
0.000160413
0.000148881
0.000136168
0.000121964
0.000105836
8.72718e-05
6.57288e-05
4.1579e-05
1.97403e-05
0.000343847
0.000341318
0.000338599
0.000335688
0.000332579
0.000329262
0.000325724
0.000321954
0.000317951
0.000313724
0.000309295
0.000304693
0.000299959
0.000295123
0.000290152
0.000284944
0.000279522
0.000273949
0.000268246
0.000262408
0.000256414
0.000250228
0.000243802
0.000237087
0.000230037
0.00022262
0.000214801
0.000206551
0.000197785
0.000188394
0.000178307
0.000167424
0.000155563
0.00014246
0.000127729
0.000110814
9.0962e-05
6.72633e-05
3.83423e-05
4.62353e-06
0.000354479
0.000351836
0.000349009
0.000345995
0.000342788
0.00033937
0.000335722
0.000331827
0.00032768
0.000323293
0.000318693
0.000313912
0.000309014
0.000304071
0.000299045
0.000293763
0.000288246
0.000282555
0.000276715
0.000270733
0.000264599
0.000258277
0.000251717
0.000244854
0.000237627
0.000229996
0.000221954
0.000213519
0.00020461
0.000195114
0.00018491
0.000173818
0.000161701
0.000148283
0.000133131
0.000115585
9.46718e-05
6.90511e-05
3.69497e-05
4.65138e-06
0.000363615
0.000360745
0.000357694
0.000354465
0.000351051
0.000347431
0.000343579
0.000339471
0.000335097
0.000330476
0.000325656
0.000320704
0.000315727
0.000310752
0.000305655
0.000300294
0.000294696
0.000288903
0.000282944
0.000276839
0.000270589
0.000264169
0.000257528
0.000250598
0.00024332
0.000235666
0.000227654
0.000219259
0.000210376
0.000200857
0.000190553
0.000179276
0.000166859
0.000153142
0.000137688
0.000119796
9.83559e-05
7.16996e-05
3.84111e-05
2.01079e-05
0.000371279
0.000368034
0.000364614
0.000361029
0.00035728
0.000353347
0.000349203
0.000344813
0.000340178
0.000335326
0.000330332
0.000325268
0.000320194
0.000315121
0.000309896
0.000304424
0.000298723
0.000292818
0.000286733
0.000280499
0.000274136
0.000267638
0.000260965
0.000254054
0.000246855
0.000239349
0.000231554
0.000223401
0.000214596
0.00020496
0.000194383
0.000182737
0.000169886
0.000155807
0.000140124
0.000122191
0.00010087
7.41835e-05
3.93578e-05
4.72977e-06
0.000377383
0.000373599
0.000369646
0.000365551
0.000361331
0.00035698
0.000352478
0.000347802
0.000342938
0.000337896
0.000332725
0.000327466
0.000322172
0.000316841
0.000311374
0.000305722
0.000299894
0.000293886
0.000287686
0.000281319
0.00027484
0.000268284
0.00026163
0.000254814
0.000247778
0.000240531
0.000233139
0.000225258
0.000216327
0.000206224
0.000195016
0.000182654
0.00016913
0.00015446
0.000138414
0.00012053
9.9764e-05
7.38659e-05
3.97779e-05
2.03711e-05
0.000381745
0.000377266
0.000372648
0.000367935
0.000363154
0.000358315
0.00035341
0.000348419
0.000343329
0.000338103
0.000332708
0.000327132
0.000321439
0.000315692
0.000309881
0.00030399
0.000298017
0.00029192
0.000285617
0.000279102
0.000272506
0.000265936
0.000259385
0.000252779
0.000246052
0.000239152
0.000231937
0.00022385
0.000214351
0.000203509
0.000191432
0.000178233
0.00016387
0.000148266
0.000131331
0.000112977
9.26731e-05
6.83607e-05
3.61759e-05
4.74321e-06
0.000384142
0.000378874
0.000373523
0.000368142
0.000362762
0.000357397
0.000352033
0.00034662
0.000341176
0.000335726
0.000330066
0.00032404
0.000317888
0.000311735
0.000305612
0.000299511
0.000293415
0.000287233
0.000280776
0.000274057
0.00026735
0.000260809
0.000254401
0.000247999
0.000241459
0.000234574
0.000226983
0.000218244
0.000208114
0.000196697
0.000184046
0.000170275
0.000155341
0.000139093
0.000121378
0.000102259
8.21523e-05
6.00562e-05
3.32596e-05
2.00252e-05
0.000384473
0.000378449
0.00037241
0.000366403
0.000360447
0.000354536
0.000348656
0.000342772
0.000337015
0.00033132
0.000325248
0.000318866
0.000312421
0.00030603
0.000299722
0.00029346
0.000287207
0.000280818
0.000274095
0.000267159
0.000260287
0.000253659
0.000247189
0.000240664
0.000233834
0.000226451
0.000218193
0.000208804
0.000198256
0.000186612
0.000173939
0.000160313
0.000145709
0.000129919
0.000112642
9.37597e-05
7.38883e-05
5.33261e-05
3.03035e-05
4.68188e-06
0.000383242
0.000376635
0.000370058
0.00036354
0.000357083
0.000350675
0.000344399
0.000338279
0.000332313
0.000326299
0.000320014
0.000313531
0.000307006
0.000300529
0.000294108
0.000287671
0.00028115
0.000274435
0.000267422
0.000260245
0.000253058
0.000245955
0.000238882
0.000231759
0.000224381
0.000216361
0.000207469
0.000197647
0.000186943
0.000175416
0.000163154
0.000150304
0.000136901
0.000122729
0.000107309
9.02809e-05
7.16484e-05
5.16641e-05
3.07e-05
2.00239e-05
0.000381703
0.000374743
0.000367818
0.000360953
0.000354186
0.000347577
0.000341214
0.000335082
0.000329062
0.000322979
0.000316735
0.000310345
0.000303883
0.000297396
0.000290891
0.000284295
0.000277545
0.000270567
0.000263311
0.000255857
0.000248312
0.000240729
0.00023309
0.000225305
0.000217209
0.00020852
0.000199164
0.000189232
0.00017874
0.000167671
0.000156077
0.000144136
0.000132044
0.000119561
0.000106013
9.07809e-05
7.33796e-05
5.34599e-05
3.07644e-05
1.99193e-05
0.000381408
0.000374354
0.000367336
0.000360429
0.000353727
0.000347301
0.000341178
0.00033529
0.000329462
0.000323548
0.000317459
0.00031119
0.000304761
0.000298211
0.00029158
0.000284843
0.00027797
0.000270933
0.000263668
0.000256168
0.00024849
0.000240683
0.000232744
0.000224584
0.000216179
0.000207353
0.000197994
0.000188194
0.000177976
0.000167316
0.000156228
0.00014494
0.000133738
0.000122333
0.000109863
9.55914e-05
7.87909e-05
5.83775e-05
3.28549e-05
2.00878e-05
0.000383701
0.000376901
0.000370166
0.000363601
0.000357322
0.000351397
0.000345754
0.000340272
0.000334753
0.000329038
0.000323045
0.000316765
0.000310225
0.000303473
0.000296566
0.000289593
0.00028265
0.000275751
0.00026869
0.000261285
0.000253569
0.000245665
0.000237645
0.000229493
0.000221009
0.000211907
0.000202341
0.00019254
0.000182562
0.000172268
0.000161622
0.000150579
0.000139708
0.000128745
0.000116917
0.000103471
8.75039e-05
6.71067e-05
3.86864e-05
5.01193e-06
0.000389441
0.000383288
0.000377244
0.000371379
0.00036578
0.00036046
0.000355341
0.000350269
0.000345035
0.000339472
0.000333485
0.000327074
0.000320322
0.000313263
0.000305946
0.00029859
0.00029142
0.000284471
0.000277348
0.000269629
0.000261469
0.000253142
0.000244623
0.0002356
0.000225919
0.000215655
0.000205398
0.000195562
0.000185977
0.000175998
0.000165471
0.000154261
0.000143133
0.00013225
0.000121181
0.000108968
9.48684e-05
7.66829e-05
4.8032e-05
6.17334e-06
0.000398937
0.000393756
0.000388679
0.000383778
0.000379046
0.000374456
0.000369902
0.000365258
0.000360326
0.000354906
0.000348891
0.000342304
0.000335302
0.000327889
0.000320082
0.000312184
0.000304517
0.000297236
0.000289702
0.00028116
0.000271928
0.000262198
0.000251831
0.000240747
0.000229088
0.000217163
0.000205273
0.000193603
0.000182164
0.000170879
0.000159865
0.000148995
0.000138557
0.000128526
0.000118551
0.000107501
9.40039e-05
7.838e-05
5.25172e-05
7.80936e-06
0.000411978
0.000408078
0.000404255
0.00040055
0.000396896
0.000393262
0.000389524
0.000385512
0.000381097
0.000376068
0.000370312
0.000363928
0.000357055
0.000349724
0.00034195
0.000333975
0.000326098
0.000318206
0.000309627
0.000300036
0.000289403
0.000277753
0.000265076
0.000251459
0.000237114
0.000222345
0.000207417
0.000192564
0.000178008
0.000163967
0.0001506
0.000137883
0.000126023
0.000115296
0.0001056
9.51613e-05
8.20433e-05
6.57685e-05
4.48126e-05
7.73657e-06
0.000428469
0.000426089
0.000423748
0.000421495
0.000419247
0.000416923
0.000414429
0.00041153
0.000408144
0.00040416
0.000399453
0.000394121
0.000388253
0.000381865
0.00037498
0.000367689
0.000359929
0.000351499
0.000342101
0.000331554
0.000319643
0.000306402
0.000291859
0.000276138
0.000259444
0.000242027
0.000224148
0.000206049
0.000187991
0.000170291
0.000153328
0.00013749
0.00012314
0.000110746
0.000100493
9.11449e-05
8.02398e-05
6.4794e-05
4.27101e-05
9.51173e-06
0.000448295
0.000447647
0.000447042
0.000446588
0.000446274
0.000445816
0.000445091
0.000444
0.000442409
0.000440208
0.000437331
0.000433795
0.000429594
0.000424581
0.000418784
0.000412248
0.000404934
0.000396656
0.00038727
0.000376597
0.000364498
0.000350901
0.000335905
0.000319659
0.00030233
0.000284088
0.000265082
0.000245437
0.000225261
0.000204695
0.000184088
0.000164208
0.000146281
0.000131371
0.000119717
0.000110342
9.98096e-05
8.21471e-05
5.25127e-05
1.27784e-05
0.000471276
0.000472634
0.000474135
0.000475903
0.000477877
0.00047975
0.000481328
0.000482484
0.0004831
0.000483058
0.000482269
0.00048068
0.00047822
0.000474814
0.000470408
0.000465008
0.000458571
0.000451027
0.000442299
0.000432322
0.000420938
0.000408168
0.000394169
0.000379101
0.000363103
0.000346283
0.00032871
0.0003104
0.000291246
0.000270963
0.000249264
0.00022657
0.000204206
0.000184185
0.000167762
0.000155967
0.000141771
0.00011335
6.58915e-05
1.50663e-05
0.000496669
0.000500533
0.000504523
0.000508782
0.000513244
0.000517586
0.000521592
0.000525107
0.000527993
0.000530122
0.000531383
0.000531679
0.000530923
0.000529039
0.000525969
0.000521691
0.000516212
0.000509548
0.00050166
0.0004925
0.000482126
0.000470676
0.000458301
0.000445133
0.000431252
0.000416702
0.000401542
0.000385848
0.00036954
0.000352167
0.000332954
0.000312941
0.000293211
0.000271598
0.00024903
0.000229109
0.000208055
0.000169122
9.56549e-05
1.65506e-05
0.00052432
0.000530641
0.000537155
0.000543915
0.00055076
0.000557431
0.000563704
0.000569396
0.000574345
0.000578406
0.000581445
0.000583344
0.000584012
0.000583324
0.00058122
0.000577715
0.000572866
0.000566755
0.000559502
0.000551237
0.000542107
0.000532236
0.000521738
0.000510663
0.00049898
0.000486642
0.000473837
0.000460951
0.000448358
0.000435851
0.000422269
0.000405078
0.000383552
0.000358291
0.000329951
0.000299821
0.000266497
0.000217674
0.000129424
1.74543e-05
0.000553136
0.000561696
0.000570548
0.00057957
0.000588563
0.000597285
0.00060551
0.000613034
0.000619677
0.000625274
0.000629682
0.000632705
0.000634161
0.00063403
0.000632353
0.000629238
0.000624855
0.000619408
0.000613113
0.00060621
0.000598891
0.000591167
0.000582947
0.000573966
0.000564182
0.000553852
0.000543101
0.00053178
0.000518402
0.000502417
0.000483893
0.000462049
0.000437131
0.000408621
0.000375513
0.000339058
0.00029582
0.00023448
0.000135701
1.72687e-05
0.000582062
0.000592588
0.000603428
0.000614367
0.000625169
0.000635588
0.000645385
0.000654338
0.000662245
0.000668925
0.000674121
0.000677663
0.000679509
0.000679695
0.000678344
0.000675673
0.000671991
0.000667632
0.000662925
0.000658258
0.000653749
0.000648768
0.000642838
0.000635599
0.000628324
0.000619141
0.000605868
0.000589457
0.000570357
0.000548806
0.0005248
0.000497991
0.000468061
0.000434554
0.000396503
0.000351957
0.000299478
0.000229976
0.000129575
1.64237e-05
0.00061028
0.000622436
0.000634884