/*--------------------------------*- C++ -*----------------------------------*\
  =========                 |
  \\      /  F ield         | OpenFOAM: The Open Source CFD Toolbox
   \\    /   O peration     | Website:  https://openfoam.org
    \\  /    A nd           | Version:  8
     \\/     M anipulation  |
\*---------------------------------------------------------------------------*/
FoamFile
{
    version     2.0;
    format      ascii;
    class       volScalarField;
    location    "4.05";
    object      p_rgh;
}
// * * * * * * * * * * * * * * * * * * * * * * * * * * * * * * * * * * * * * //

dimensions      [1 -1 -2 0 0 0 0];

internalField   nonuniform List<scalar> 
9150
(
2571.1
2544.08
2518.59
2501.41
2493.12
2493.12
2501.43
2518.62
2544.11
2571.12
2561.87
2542.31
2526.66
2514.87
2508.89
2508.9
2514.88
2526.68
2542.33
2561.9
2552.22
2538.65
2530.11
2522.36
2518.26
2518.26
2522.37
2530.13
2538.67
2552.24
2547.13
2537.12
2531.65
2526.29
2523.33
2523.33
2526.3
2531.66
2537.13
2547.16
2545.47
2536.55
2531.96
2527.8
2525.36
2525.36
2527.81
2531.98
2536.57
2545.49
2105.68
2101.82
2127.14
2141.52
2148.31
2148.42
2141.82
2127.59
2102.45
2106.54
2295.82
2271.67
2266.39
2265.26
2265.46
2265.52
2265.41
2266.63
2271.98
2296.13
2420.07
2388.65
2372.79
2362.96
2358.36
2358.39
2363.05
2372.92
2388.8
2420.21
2520.28
2478.07
2450.3
2432.99
2424.53
2424.55
2433.04
2450.37
2478.14
2520.34
2590.53
2537.83
2499.24
2477.23
2467.12
2467.13
2477.26
2499.28
2537.88
2590.55
1919.28
1955.88
1944.97
1955.18
1950.74
1952.14
1955.49
1947.77
1959.95
1928
1948.55
1966.06
1946.43
1955.67
1951.48
1952.42
1955.63
1950.36
1968.94
1954.89
1925.58
1957.11
1925.59
1933.71
1937.07
1937.29
1934.19
1928.37
1959.55
1929.94
1766.58
1892.3
1909.41
1928.3
1944.88
1945.06
1929.18
1911.3
1893.72
1770.21
1642
1880.82
1977.33
2007.63
2023.56
2023.72
2008.19
1978.2
1881.84
1644.6
1784.62
1784.47
1784.33
1784.2
1784.07
1783.95
1783.83
1783.72
1783.61
1783.5
1784.61
1784.48
1784.36
1784.23
1784.12
1784
1783.89
1783.79
1783.68
1783.58
1784.63
1784.51
1784.39
1784.27
1784.16
1784.05
1783.95
1783.85
1783.75
1783.65
1784.61
1784.49
1784.38
1784.27
1784.17
1784.07
1783.97
1783.88
1783.78
1783.69
1784.56
1784.45
1784.35
1784.25
1784.15
1784.06
1783.96
1783.88
1783.79
1783.71
1784.5
1784.39
1784.29
1784.2
1784.11
1784.02
1783.93
1783.85
1783.77
1783.69
1784.42
1784.32
1784.22
1784.13
1784.04
1783.95
1783.87
1783.79
1783.72
1783.66
1784.33
1784.22
1784.13
1784.03
1783.94
1783.85
1783.77
1783.7
1783.65
1783.61
1784.22
1784.12
1784.02
1783.91
1783.82
1783.74
1783.58
1782.81
1783.06
1783.51
1784.12
1784.03
1783.94
1783.8
1783.72
1783.6
1780.89
1780.6
1780.54
1782.86
1784.04
1784.11
1783.59
1775.91
1774.94
1775.36
1775.37
1781.54
1783.37
1783.9
1769.15
1769.45
1769.8
1769.73
1774.18
1781.02
1783.2
1784.22
1784.25
1784.13
1768.57
1768.73
1776.67
1781.21
1784.17
1784.83
1784.61
1784.48
1784.41
1784.29
1779.71
1783.91
1785.37
1785.29
1785.1
1784.94
1784.7
1784.49
1784.45
1784.43
1785.73
1785.58
1785.44
1785.3
1785.13
1784.82
1784.67
1784.56
1784.6
1784.57
1785.76
1785.62
1785.45
1785.16
1784.96
1784.83
1784.76
1784.81
1784.76
1784.58
1785.82
1785.55
1785.3
1785.14
1785.01
1785
1784.91
1784.84
1783.76
1784.71
1785.86
1785.62
1785.47
1785.35
1785.19
1785.01
1779.82
1778.84
1784.94
1785.04
1786.15
1786.01
1785.88
1785.7
1785.52
1763.23
1762.81
1777.23
1785.47
1785.59
1786.7
1786.6
1786.5
1764.87
1724.41
1726.01
1763.97
1786.23
1786.35
1786.39
1787.44
1784.54
1728.01
1710.96
1712.68
1734.18
1787.89
1787.75
1787.72
1787.62
1765.06
1705.37
1706.8
1707.92
1727.62
1789.67
1789.34
1789.19
1789.09
1788.82
1701.97
1702.82
1703.29
1747.36
1789.32
1790.65
1790.49
1790.39
1790.32
1789.95
1701.11
1707.28
1784.41
1791.73
1791.82
1791.56
1791.37
1791.23
1791.13
1790.94
1715.04
1793.02
1792.78
1792.48
1792.23
1792.03
1791.87
1791.77
1791.71
1791.7
1785.56
1792.05
1792.13
1792.14
1792.1
1792.03
1791.94
1791.89
1790.06
1766.86
1791.79
1791.96
1792.07
1792.1
1792.08
1792.06
1789.94
1762.31
1758.06
1758.41
1792.1
1792.16
1792.2
1792.21
1790.45
1760.69
1750.49
1751.84
1756.46
1772.59
1792.53
1792.48
1792.41
1770.44
1747.05
1747.83
1748.21
1764.78
1771.01
1771.19
1793.07
1792.06
1756.93
1745.01
1745.76
1748.75
1763
1766.21
1765.97
1633.92
1789.64
1749.51
1744.32
1744.1
1757.92
1760.25
1762.13
1719.3
1547.71
1547.93
1761.56
1743.7
1743.39
1751.16
1758.31
1758.91
1614.48
1513.12
1520.2
1533.89
1785.25
1762.73
1756.84
1749.98
1646.59
1505.73
1497.75
1501.73
1505.84
1686.4
1795.7
1794.17
1762.63
1565.67
1487.68
1488.75
1489.93
1491.09
1581.42
1799.39
1797.47
1795.45
1639.27
1483.12
1482.82
1483.69
1482.22
1493.6
1744.65
1800.72
1799.46
1795.81
1604.54
1477.94
1477.86
1478.01
1478.65
1609.82
1803.91
1802.18
1801.35
1785.44
1709.07
1534.54
1473.54
1474.03
1506.6
1794.77
1804.99
1803.19
1776.26
1775.05
1782.09
1772.36
1624.3
1557.84
1722.17
1804.48
1803.86
1802.97
1778.09
1776.77
1806.06
1806.19
1800.61
1795.16
1803.08
1799.19
1795.23
1803.54
1802.95
1799.98
1806.99
1807.25
1807.22
1807.12
1805.55
1793.11
1792.42
1791.99
1808.59
1809.24
1809.51
1809.71
1809.83
1809.85
1809.53
1799.79
1795.2
1794.95
1797.99
1812.99
1813.02
1813.19
1813.46
1813.67
1813.73
1812.72
1807.42
1803.04
1744.78
1817.35
1817.07
1817.31
1818.17
1818.64
1818.77
1818.72
1818.55
1818.1
1776.58
1761.76
1613.18
1679.97
1808.93
1827.05
1826.55
1826.33
1825.55
1824.26
1789.32
1564.12
1533.17
1533.01
1561.7
1582.54
1627.49
1686.28
1688.6
1640.58
1738.47
1539.22
1536.25
1537.04
1537.96
1539.15
1540.57
1542.11
1544.13
1546.24
1748.32
1760.75
1711.91
1702.18
1711.26
1695.53
1704.74
1730.55
1756.21
1730.25
1834.92
1857.28
1858.5
1859.41
1859.98
1859.63
1858.45
1856.91
1855.65
1855.26
1862.89
1863.94
1865.9
1867.66
1869.34
1870.15
1869.12
1862.93
1844.02
1830.2
1775
1761.61
1753.57
1764.6
1756.57
1738.83
1684.35
1547.9
1373.06
1375.57
1301.81
1319.39
1326.44
1332.51
1338.42
1344.6
1350.22
1351.63
1352.47
1376.81
1588.85
1608.63
1584.8
1633.09
1681.53
1649.05
1556.34
1598.26
1803.05
1907.54
1864.81
1873.41
1879.24
1883.28
1887.34
1889.42
1889.45
1890.21
1892.78
1895.58
1857.65
1864.34
1870.64
1876.55
1881.72
1885.73
1888.7
1891.41
1894.05
1895.72
1844.25
1852.86
1861.22
1869.01
1875.92
1881.7
1886.32
1889.89
1892.41
1893.7
1824.04
1835.04
1845.96
1856.19
1865.31
1873.04
1879.28
1884.01
1887.24
1888.92
1796.94
1811.03
1825.33
1838.84
1850.78
1860.82
1868.87
1874.93
1879.09
1881.37
1763.21
1782.65
1801.25
1818.29
1833.16
1845.6
1855.48
1862.94
1868.08
1871.03
1561.89
1714.45
1776.71
1800.04
1816.18
1829.49
1840.67
1849.11
1854.92
1858.37
705.409
1064.37
1589.69
1784.13
1803.59
1815.57
1826.34
1834.7
1840.58
1844.11
506.59
515.812
847.034
1648.43
1789.51
1804.74
1813.15
1820.19
1825.53
1828.78
501.953
503.524
563.853
1387.83
1767.96
1793.82
1800.3
1805.68
1810.17
1812.9
500.065
500.59
529.307
1273.1
1764.52
1783.5
1788.2
1792.22
1795.62
1797.51
498.784
499.218
520.009
1353.48
1763.79
1774.46
1778
1780.87
1782.98
1783.72
496.793
498.141
634.478
1569.04
1762.98
1768.92
1771.22
1772.67
1773.18
1772.43
495.668
496.097
829.33
1688.26
1764.75
1767.44
1768.12
1767.83
1766.57
1764.15
495.043
497.075
1142.01
1753.68
1767.78
1768.76
1767.91
1765.95
1763
1758.98
495.472
628.18
1435.82
1767.77
1772.33
1772.36
1770.22
1766.8
1762.31
1756.75
721.112
1019.51
1602.72
1778.95
1781.51
1779.68
1775.88
1770.84
1764.72
1757.65
1027.27
1171.06
1687.7
1798.19
1795.76
1790.87
1784.7
1777.52
1769.55
1760.95
978.469
1202.79
1781.94
1816.72
1810.35
1802.87
1794.47
1785.3
1775.58
1765.42
793.555
1419.85
1836.61
1830.51
1822.63
1813.62
1803.74
1793.4
1782.9
1772.44
759.645
1738.7
1853.4
1843.51
1833.25
1822.38
1811.12
1799.81
1788.75
1778.25
1081.94
1840.63
1856.05
1847.33
1837.31
1826.47
1815.1
1803.48
1791.85
1780.33
1260.31
1856.82
1855.35
1847.36
1838.22
1828.28
1817.74
1806.95
1796.13
1785.46
1366.13
1853.93
1850.93
1844.6
1837.05
1828.56
1819.36
1809.83
1800.28
1791.01
1465.33
1849.52
1847.11
1842.1
1835.95
1828.85
1821.04
1812.9
1804.75
1797.09
1560.24
1846.6
1844.4
1840.36
1835.32
1829.4
1822.84
1816.11
1809.56
1803.77
1633.69
1845.61
1843.5
1839.87
1835.27
1829.75
1823.61
1817.43
1811.77
1807.41
1682.97
1848.8
1845.17
1840.94
1836.07
1830.25
1823.59
1816.47
1809.09
1801.32
1713.56
1848.51
1845.48
1841.84
1837.55
1832.2
1825.87
1818.93
1811.5
1803.49
1737.04
1847.83
1846.8
1844.35
1840.93
1836.31
1830.67
1824.51
1818.04
1811.61
1782.33
1856.52
1854.08
1851.11
1847.45
1842.84
1837.49
1831.94
1826.38
1821.13
1833.96
1867.61
1863.62
1859.61
1855.22
1850.19
1844.79
1839.55
1834.64
1830.05
1878.82
1880.33
1873.12
1867.3
1862
1856.58
1851.16
1846.15
1841.64
1837.19
1888.11
1882.51
1876.25
1870.87
1866
1861.08
1856.18
1851.68
1847.64
1843.21
1873.44
1881.46
1876.42
1872.1
1868.26
1864.43
1860.57
1857.02
1854.04
1850.72
1830.93
1877.85
1874.67
1872.14
1869.84
1867.54
1865.13
1862.96
1861.78
1860.56
1796.64
1875.15
1874.24
1873.05
1871.85
1870.74
1869.62
1869.07
1870.52
1872.1
1778.02
1877.65
1876.87
1875.62
1874.23
1873.04
1872.01
1871.83
1873.95
1871.96
1781.67
1884.06
1881.5
1879.1
1876.7
1874.49
1872.4
1870.77
1869.71
1707.4
1788.09
1888.66
1886.03
1883.03
1879.88
1876.63
1873.31
1869.76
1865.05
1529.13
1790.64
1895.97
1892.06
1888.14
1884.31
1880.18
1875.85
1871.19
1864.32
1440.03
1789.27
1902.8
1898
1893.38
1889.4
1884.82
1879.89
1875.41
1867.41
1401.69
1770.83
1907.75
1902.47
1897.58
1894.89
1890.83
1886.4
1883.12
1872.23
1402.08
1728.59
1903.44
1903.66
1901.34
1900.53
1898.49
1896.25
1894.78
1886.46
1484.44
1690.99
1902.36
1906.41
1906.51
1907.39
1907.42
1907.81
1908.4
1905.13
1563.9
1690.44
1907.03
1912.35
1914.21
1915.84
1917.12
1918.93
1919.21
1919.34
1654.45
1766.01
1923.71
1924.99
1926.7
1926.73
1928.21
1930.76
1929.71
1933.7
1752.88
1840.08
1952.44
1941.11
1942.37
1939.27
1940.71
1944.03
1941.84
1954.09
1848.95
1783.4
1783.29
1783.19
1783.09
1783
1782.91
1782.83
1782.74
1782.67
1782.59
1782.51
1782.43
1782.35
1782.26
1782.17
1782.08
1781.98
1781.88
1781.78
1781.68
1781.59
1781.48
1781.4
1781.31
1781.23
1781.14
1781.06
1780.98
1780.91
1780.85
1780.8
1780.75
1780.7
1780.64
1780.6
1780.59
1780.6
1780.6
1780.61
1780.59
1783.48
1783.37
1783.27
1783.18
1783.09
1783
1782.92
1782.85
1782.77
1782.71
1782.64
1782.57
1782.5
1782.42
1782.33
1782.24
1782.14
1782.03
1781.93
1781.82
1781.7
1781.6
1781.5
1781.42
1781.33
1781.24
1781.15
1781.06
1780.97
1780.91
1780.86
1780.82
1780.79
1780.73
1780.67
1780.62
1780.6
1780.6
1780.6
1780.6
1783.56
1783.45
1783.36
1783.27
1783.18
1783.09
1783.02
1782.94
1782.87
1782.81
1782.74
1782.67
1782.6
1782.52
1782.44
1782.35
1782.24
1782.14
1782.02
1781.91
1781.78
1781.68
1781.57
1781.49
1781.39
1781.29
1781.2
1781.1
1781
1780.92
1780.84
1780.76
1780.62
1780.47
1780.59
1780.58
1780.57
1780.58
1780.58
1780.6
1783.6
1783.5
1783.41
1783.32
1783.24
1783.16
1783.08
1783.01
1782.94
1782.88
1782.81
1782.74
1782.66
1782.59
1782.51
1782.41
1782.31
1782.2
1782.08
1781.94
1781.82
1781.7
1781.61
1781.5
1781.4
1781.3
1781.21
1781.12
1781.04
1780.96
1780.88
1780.77
1779.83
1779.69
1779.55
1780.22
1780.6
1780.61
1780.6
1780.63
1783.62
1783.53
1783.44
1783.35
1783.27
1783.19
1783.12
1783.05
1782.98
1782.91
1782.83
1782.76
1782.69
1782.62
1782.54
1782.44
1782.34
1782.22
1782.08
1781.95
1781.82
1781.71
1781.58
1781.45
1781.32
1781.21
1781.14
1781.11
1781.06
1781.01
1780.97
1780.05
1779.35
1779.33
1779.2
1779.05
1779.14
1780.17
1779.61
1779.59
1783.61
1783.53
1783.44
1783.36
1783.28
1783.21
1783.13
1783.06
1782.98
1782.9
1782.84
1782.77
1782.7
1782.64
1782.55
1782.45
1782.35
1782.23
1782.08
1781.95
1781.83
1781.69
1781.54
1781.36
1781.13
1779.45
1780.41
1781.07
1781.08
1781.06
1781.03
1780.65
1779.48
1779.6
1779.32
1778.72
1778.75
1778.81
1778.88
1778.83
1783.59
1783.52
1783.44
1783.36
1783.28
1783.21
1783.13
1783.04
1782.96
1782.89
1782.83
1782.77
1782.7
1782.62
1782.54
1782.45
1782.35
1782.24
1782.11
1781.98
1781.86
1781.73
1781.59
1781.44
1778.83
1776.64
1777.32
1781.04
1781.26
1781.2
1781.15
1781.16
1781.05
1781.12
1781.21
1781.04
1780.52
1779.57
1779.17
1780.1
1783.55
1783.49
1783.43
1783.36
1783.28
1783.21
1783.12
1783.03
1782.95
1782.88
1782.82
1782.74
1782.66
1782.58
1782.51
1782.43
1782.34
1782.25
1782.14
1782.01
1781.91
1781.82
1781.74
1781.17
1775.06
1775.03
1774.87
1778.49
1781.49
1781.33
1780.99
1779.74
1780.52
1780.96
1780.68
1778.76
1779.34
1780.73
1781.17
1781.17
1783.55
1783.51
1783.45
1783.38
1783.3
1783.21
1783.12
1783.03
1782.95
1782.86
1782.76
1782.67
1782.58
1782.5
1782.43
1782.38
1782.31
1782.24
1782.13
1782.04
1781.95
1781.9
1781.84
1780.96
1774.06
1774.07
1773.95
1777.51
1782.24
1781.05
1777.58
1777.39
1778.91
1780.4
1777.43
1776.87
1776.8
1777.25
1780.27
1781.11
1783.71
1783.62
1783.54
1783.44
1783.35
1783.25
1783.15
1783.05
1782.94
1782.82
1782.7
1782.57
1782.43
1782.33
1782.28
1782.27
1782.26
1782.19
1782.11
1782.04
1781.98
1781.93
1781.89
1781.9
1774.15
1773.52
1773.31
1779.89
1780.97
1776.62
1776.61
1776.54
1779.12
1780.62
1778.63
1776.84
1776.38
1776.28
1777.13
1781.19
1783.85
1783.74
1783.64
1783.53
1783.42
1783.3
1783.19
1783.08
1782.96
1782.82
1782.66
1782.46
1782.15
1780.61
1781.03
1782.11
1782.2
1782.15
1782.09
1782.03
1781.95
1781.86
1781.78
1781.72
1778.24
1773.34
1777.1
1782.17
1779.05
1776.65
1777.04
1779.01
1780.66
1781.08
1780.92
1780.52
1777.85
1775.88
1776.98
1781.09
1784.01
1783.89
1783.77
1783.65
1783.52
1783.33
1783.24
1783.19
1783.08
1782.96
1782.83
1782.67
1775.9
1763.19
1772.71
1782.32
1782.31
1782.25
1782.16
1782.02
1781.9
1781.77
1781.65
1781.51
1781.26
1779.61
1781.23
1781.35
1779.7
1779.55
1780.59
1780.96
1780.82
1780.7
1780.59
1780.48
1780.33
1778.65
1779.36
1780.6
1784.16
1784.03
1783.91
1783.77
1783.56
1783.46
1783.39
1783.37
1783.3
1783.24
1783.22
1774.02
1759.65
1760.25
1768.24
1782.59
1782.54
1782.43
1782.27
1781.88
1781.7
1781.72
1781.54
1781.33
1781.14
1781.01
1780.89
1780.84
1780.8
1780.79
1780.75
1780.66
1780.51
1780.32
1780.17
1780.02
1779.91
1779.9
1779.95
1780.19
1784.3
1784.18
1784.04
1783.82
1783.69
1783.6
1783.58
1783.52
1783.46
1783.43
1774.28
1757.83
1758.06
1757.83
1775.94
1783.33
1783.02
1782.71
1782.24
1782
1781.82
1781.74
1781.43
1781.09
1780.71
1780.32
1780.14
1780.27
1780.43
1780.24
1780.31
1780.41
1780.24
1779.95
1779.7
1779.47
1779.28
1779.23
1779.34
1779.61
1784.45
1784.33
1784.17
1784.04
1783.89
1783.81
1783.7
1783.6
1783.54
1783.57
1771.51
1757.69
1759.27
1772.2
1783.79
1783.56
1783.23
1782.88
1782.54
1782.33
1782.18
1781.85
1781.47
1781
1780.39
1771.84
1757.31
1777
1780.03
1780.32
1780.36
1780.26
1780.03
1779.56
1779.09
1778.82
1778.46
1778.28
1778.37
1778.92
1784.6
1784.5
1784.37
1784.17
1784.08
1783.93
1783.76
1783.57
1783.44
1783.51
1782.05
1773.74
1780.29
1783.86
1783.77
1783.53
1783.27
1783.07
1782.94
1782.57
1782.61
1782.35
1782.1
1771.02
1742.6
1726.69
1727.57
1733.65
1769.41
1780.8
1780.64
1780.37
1780
1779.3
1778.67
1778.09
1774.71
1764.62
1757.27
1767.28
1784.84
1784.75
1784.41
1784.27
1784.27
1784.08
1783.82
1783.46
1782.93
1776.35
1771.44
1783.96
1784.15
1784.11
1783.96
1783.65
1783.22
1779.73
1781.91
1783.36
1783.13
1778.65
1742.1
1723.65
1723.97
1724.44
1724.84
1729.77
1780.19
1781.58
1781.19
1780.78
1780.19
1779.6
1779.02
1778.01
1746.92
1727.3
1727
1726.8
1785.08
1784.81
1784.72
1784.72
1784.8
1784.65
1784.54
1779.1
1736.47
1729.34
1765.08
1784.64
1784.76
1784.76
1784.67
1777.22
1757.18
1756.71
1775.68
1784.99
1782.09
1737.3
1722.6
1722.51
1722.42
1722.22
1737.31
1778.47
1783
1782.3
1781.76
1781.2
1780.7
1780.4
1780.22
1779.74
1748.19
1725.27
1725.21
1725.19
1785.36
1785.18
1785.43
1785.44
1785.47
1783.75
1736.82
1717.11
1719.13
1723.91
1784.34
1786.22
1786.04
1784.85
1760.78
1753.98
1754.41
1754.51
1775.27
1786.36
1784.79
1740.04
1722.06
1721.38
1730.28
1775.73
1782.06
1784.42
1783.44
1782.66
1782.05
1781.49
1781.07
1781.02
1780.91
1780.93
1777
1736.59
1723.89
1723.66
1786.06
1785.9
1786.21
1786.13
1747.01
1713.02
1714.57
1715.55
1719.54
1782.19
1787.89
1787.51
1780.56
1753.57
1753.6
1753.74
1753.7
1771.42
1786.5
1786.47
1786.09
1772.53
1759.46
1766.41
1782.65
1785.78
1785
1784.05
1783.11
1782.37
1781.79
1781.39
1781.04
1780.82
1780.75
1780.77
1780.37
1774.86
1760.74
1754.68
1787.28
1787.03
1780.65
1723.6
1711.45
1711.93
1712.16
1741.59
1785.83
1789.33
1788.77
1782.94
1753.98
1753.4
1752.95
1761.75
1787.23
1786.99
1787.3
1787.12
1786.85
1786.76
1786.67
1786.41
1786.03
1785.4
1784.45
1783.39
1782.57
1781.83
1781.23
1780.75
1780.35
1780.09
1779.95
1777.56
1776.24
1776.21
1777.52
1777.91
1788.61
1784.25
1726.74
1710.75
1710.26
1723.19
1784.26
1788.84
1790.26
1789.75
1789.23
1783.26
1755.33
1753.81
1783.24
1788.12
1787.82
1787.61
1787.54
1787.46
1787.28
1787.04
1786.78
1786.55
1785.99
1785.06
1783.81
1782.56
1781.56
1780.79
1780.21
1779.75
1779.24
1778.9
1778.85
1776.73
1774.95
1775.39
1777.57
1777.45
1789.93
1782.19
1718.17
1710.84
1749.27
1791.65
1791.31
1790.92
1790.48
1790.05
1789.57
1784.52
1777.07
1784.09
1787.91
1787.39
1786.72
1786.71
1787.29
1787.6
1787.4
1784.71
1775.83
1769.87
1771.84
1782.39
1773.99
1744.4
1730.31
1735.38
1749.11
1762.83
1771.27
1775.71
1776.63
1777.32
1777.06
1776.44
1776.57
1776.4
1790.77
1789.06
1751.75
1738.72
1791.23
1791.28
1791.08
1790.81
1790.49
1790.2
1786.2
1784.45
1785.76
1788.51
1787.62
1786.16
1784.81
1784.49
1787.08
1788.89
1773.58
1732.43
1733.41
1733.25
1745.7
1792.87
1728.24
1668.41
1668.56
1667.23
1667.99
1690.64
1667.17
1666.09
1683.23
1716.67
1731.35
1750.32
1757.21
1754.82
1788.64
1770.66
1760.25
1785.79
1791.77
1791.55
1791.22
1789.01
1777.62
1770.17
1787.47
1789.81
1788.98
1789.42
1790.51
1705.25
1582.63
1583.47
1633.88
1778.83
1790.45
1786.97
1752.75
1748.7
1790.1
1790.53
1762.31
1685.27
1710.23
1789.88
1789.05
1747.73
1634.86
1570.08
1567.93
1566.08
1564.99
1564.03
1590.53
1604.4
1764.93
1764.84
1781.74
1793.28
1793.3
1775.43
1729.07
1731.11
1731.34
1760.9
1791.17
1790.65
1664.18
1566.37
1567.03
1570.01
1572.9
1574.57
1613.85
1788.71
1790.47
1790.2
1789.9
1789.62
1789.47
1789.31
1788.82
1788.47
1788.43
1788.67
1788.77
1788.49
1788.18
1748.55
1585.82
1564.45
1564.51
1565.06
1565.29
1564.85
1762.95
1779.19
1781.72
1757.08
1700.63
1704.75
1706.96
1771.32
1795.67
1792.92
1710.63
1563.78
1563.91
1563.9
1564.29
1564.12
1580.48
1762.86
1795.73
1792.58
1791.28
1790.23
1789.45
1788.88
1788.45
1788.09
1787.8
1787.61
1787.58
1787.63
1787.72
1787.93
1788.43
1789.94
1791.15
1691.41
1599.15
1585.78
1591.91
1565.54
1773.24
1771.4
1690.82
1693.38
1695.68
1746.57
1794.91
1792.62
1794.8
1794.72
1787.33
1683.49
1574.18
1568.95
1718.36
1769.78
1784.64
1795.36
1793.81
1791.99
1790.5
1789.34
1788.42
1787.66
1787.01
1786.42
1785.84
1785.24
1784.57
1783.75
1780.87
1774.66
1763.74
1739.67
1715.69
1713.65
1761.23
1792.82
1801.11
1735.82
1733.17
1655.73
1663.12
1731.69
1794.27
1792.12
1794.34
1794.34
1794.34
1794.16
1792.82
1790.7
1786.2
1787
1795.03
1795.56
1794.53
1793.19
1791.81
1790.46
1789.23
1788.16
1787.23
1786.43
1785.67
1784.88
1783.97
1782.87
1781.46
1779.39
1773.83
1724.37
1603.35
1466.04
1368.66
1338.19
1462.34
1629.12
1781.41
1790.53
1595.88
1639.5
1788.12
1793.96
1794.19
1794.06
1793.86
1793.7
1793.56
1793.42
1793.31
1793.21
1793.12
1793.09
1792.97
1792.58
1791.85
1790.89
1789.84
1788.77
1787.78
1786.89
1786.13
1785.47
1784.77
1784
1783.33
1783.07
1777.2
1731.47
1596.97
1395.84
1267.77
1231.46
1229.36
1228.96
1228.8
1258.62
1726.57
1786.95
1588.5
1789.71
1794.33
1793.95
1793.72
1793.29
1792.16
1792.42
1792.84
1792.61
1792.37
1792.09
1791.78
1791.41
1790.94
1790.34
1789.61
1788.78
1787.92
1787.07
1786.29
1785.49
1784.71
1784.14
1783.62
1780.69
1748.17
1664.86
1483.13
1294.76
1237.96
1234.91
1232.39
1231.05
1229.95
1228.86
1228.08
1237.31
1676
1795.89
1757.51
1795.21
1794.52
1794
1792.66
1791.8
1791.47
1791.16
1790.84
1791.52
1791.63
1791.17
1790.63
1790
1789.26
1788.46
1787.72
1787.1
1786.44
1785.72
1784.96
1783.31
1780.36
1776.81
1733.4
1541.32
1309.26
1291.96
1292.69
1289.77
1282.63
1275.5
1262.91
1240.25
1227.85
1226.35
1225.22
1380.53
1754.23
1805.78
1797.04
1795.96
1795.12
1794.14
1792.37
1791.91
1791.5
1791.1
1790.7
1790.82
1791.32
1790.7
1789.95
1789.09
1788.07
1786.94
1785.99
1785.54
1784.31
1780.45
1778.51
1776.27
1593.03
1292.13
1274.82
1279.56
1363.47
1463.79
1559.03
1651.24
1712.24
1722.36
1688.41
1611.47
1508.78
1391.27
1223.7
1462.28
1768.65
1812.31
1798.05
1796.86
1795.9
1795.13
1794.23
1793.02
1792.47
1793
1792.68
1792.18
1791.59
1790.84
1789.91
1788.67
1785.56
1775.14
1752.73
1735.46
1695.09
1477.72
1226.87
1171.52
1180.61
1195.26
1364.51
1672.38
1796.57
1813.54
1813.49
1815.09
1817.68
1819.9
1821.37
1822.68
1822.94
1746.72
1289.31
1436.83
1694.1
1814.98
1799.25
1797.95
1796.9
1796.04
1795.37
1794.87
1794.2
1793.34
1792.97
1792.62
1792.72
1791.96
1790.67
1784.58
1718.14
1474.08
1208.26
1138.64
1140.92
1144.39
1143.58
1147.5
1159.47
1460.43
1801.12
1809.89
1810.54
1811.66
1813.29
1815.42
1817.82
1820.21
1822.56
1825.19
1828.21
1763.27
1329.82
1344.52
1654.12
1810.36
1800.55
1799.17
1798.08
1795.74
1788.84
1789.76
1795.82
1795.58
1795.31
1794.97
1794.46
1793.41
1783.5
1476.04
1139.78
1133.8
1133.93
1134.47
1135.06
1136.21
1137.5
1140.22
1334.58
1757.08
1812.84
1811.94
1810.73
1809.48
1812.87
1815.39
1817.3
1819.23
1821.16
1823.09
1824.5
1694.94
1330.02
1335.71
1662.94
1816.2
1801.65
1800.34
1795.09
1790.27
1789.82
1789.52
1789.85
1797.37
1798.04
1798.42
1798.83
1799.08
1710.88
1232.83
1132.24
1132.63
1132.99
1133.45
1133.82
1133.99
1134.58
1314.47
1714.9
1816.03
1814.01
1809.45
1787.32
1776.24
1791.15
1810.73
1816.69
1818.29
1819.92
1821.56
1822.64
1692.52
1364.07
1338.16
1716.67
1818.78
1802.09
1800.76
1792.75
1791.56
1791.21
1794.63
1799.85
1800
1800.52
1801.31
1802.29
1803.63
1802.22
1476.04
1127.47
1129.71
1130.51
1130.59
1130.46
1169.4
1444.76
1764.24
1818.51
1815.95
1812.02
1784.07
1774.64
1774.95
1775.42
1782.05
1811.12
1817.73
1819.32
1821.08
1822.16
1769.81
1546.51
1338.14
1756.99
1815.54
1803.32
1802.78
1799.65
1793.44
1794.5
1801.99
1802.14
1802.51
1803.07
1804.09
1805.43
1807.14
1809.82
1816.39
1789.65
1443.9
1239.04
1252.67
1489.05
1744.69
1824.13
1818.76
1816.26
1814.88
1806.26
1773.74
1773.48
1773.62
1774.1
1774.87
1795.46
1816.24
1814.77
1802.96
1790.59
1803.07
1754.19
1355.55
1764.99
1816.69
1798.09
1804.93
1804.53
1803.93
1803.7
1804.67
1804.82
1805.06
1805.35
1805.9
1806.71
1807.86
1809.22
1810.91
1812.78
1814.98
1816.74
1818.08
1817.5
1816.04
1814.85
1813.95
1813.2
1812.62
1809.46
1788.31
1776.69
1779.32
1773
1773.69
1797.12
1814.93
1808.39
1742.41
1735.2
1801.38
1799.84
1626.73
1757.9
1815.68
1794.65
1795.55
1806.11
1808.35
1808.28
1808.25
1808.31
1808.43
1808.52
1808.49
1808.44
1808.52
1808.92
1809.42
1809.78
1809.8
1809.75
1810.05
1810.52
1810.75
1810.67
1810.39
1810.11
1809.98
1810.06
1810.32
1810.75
1811.27
1807.63
1800.8
1812.33
1814.04
1806.11
1732.38
1733.4
1775.8
1799.96
1800.97
1737.02
1810.55
1800.06
1800.31
1807.89
1812.62
1812.67
1812.52
1811.9
1808.55
1799.37
1768.4
1807.65
1809.45
1808.27
1807.87
1807.85
1807.79
1807.63
1807.53
1807.5
1807.43
1807.29
1807.18
1807.17
1807.32
1807.62
1808.07
1808.64
1809.32
1810.05
1810.79
1811.61
1812.55
1811.58
1754.69
1730
1735.31
1799.75
1797.05
1605.32
1790.87
1817.38
1817.12
1817.03
1817.66
1818.09
1817.94
1817.32
1815.86
1817.51
1733.61
1531.82
1633.32
1810.1
1806.9
1806.18
1806.13
1805.94
1805.61
1805.27
1805
1804.83
1804.78
1804.89
1805.2
1805.65
1806.25
1806.97
1806.49
1806.45
1808.79
1810.57
1811.83
1812.95
1813.87
1767.34
1791.83
1734.68
1695.45
1598.23
1753.45
1823.7
1823.9
1824.3
1824.55
1824.55
1824.16
1823.53
1822.88
1821.91
1821.45
1672.55
1333.64
1296.09
1599.18
1808.84
1806.14
1805.68
1805.28
1804.67
1804.04
1803.6
1803.41
1803.48
1803.8
1804.34
1805.07
1805.94
1804.53
1799.06
1799.96
1803.7
1809.22
1813.19
1814.76
1816.27
1817.35
1706.81
1591.46
1591.65
1734.1
1672.43
1793.85
1833.17
1833.19
1832.68
1831.79
1830.71
1829.41
1827.82
1825.97
1825.14
1751.49
1194.92
1139.68
1170.12
1631.69
1806.18
1806.57
1805.87
1804.74
1803.75
1803.14
1802.98
1803.23
1803.82
1804.65
1805.65
1806.09
1799.56
1799.32
1800.7
1802.16
1809
1815.74
1817.78
1819.96
1787.79
1589.2
1590.78
1739.89
1546.61
1547.08
1685.09
1843.1
1842.73
1840.68
1838.66
1836.55
1834.2
1831.43
1828.16
1825.51
1773.26
1231.15
1032.17
1019.09
1134.48
1627.34
1794.42
1805.23
1804.25
1803.47
1803.17
1803.4
1804.07
1805.03
1806.16
1807.38
1808.4
1802.84
1801.07
1802.63
1804.37
1812.61
1818.78
1821.36
1824.2
1667.68
1592.39
1774.69
1567.17
1596.58
1773.5
1851.63
1850.87
1848.74
1846.46
1843.99
1841.25
1838.22
1834.85
1831.18
1828.2
1716.71
1128.07
993.622
987.38
982.639
1104.21
1622.06
1799.55
1802.73
1802.91
1803.76
1804.94
1806.2
1807.48
1808.74
1809.97
1811.25
1807.45
1803.44
1805.14
1807.22
1818.11
1822.02
1824.48
1803.97
1593.92
1791.47
1855.75
1857.21
1858.05
1856.46
1856.87
1856.52
1854.11
1851.29
1848.05
1844.37
1840.29
1835.73
1830.59
1825.69
1412.59
985.847
977.021
974.435
971.723
966.362
1314.03
1773.21
1801.62
1803.75
1806.7
1808.94
1810.23
1811.1
1811.98
1812.95
1814.07
1810.13
1806.35
1808.29
1817.54
1823.6
1826.36
1820.22
1738.87
1802.94
1845.88
1865.66
1868.8
1868.06
1866.14
1863.88
1860.96
1858.05
1854.49
1850.1
1845.07
1839.32
1832.77
1825.53
1821.54
1576.98
1017.63
964.696
964.123
961.51
955.706
1229.47
1747.54
1802.54
1810.68
1815.42
1815.64
1814.68
1815.16
1815.37
1815.8
1816.82
1810.23
1809.6
1819.03
1825.39
1828.75
1818.74
1822.75
1821.68
1480.73
1747
1877.75
1880.44
1867.06
1859.4
1860.43
1864.66
1860.73
1855.84
1850.14
1843.3
1835.91
1828.93
1822.95
1820.48
1826.48
1596.86
1011.22
949.948
949.265
946.509
1215.79
1745.77
1763.04
1697.23
1717.72
1794.81
1820.26
1818.09
1817.13
1817.53
1817.35
1817.73
1822.05
1825.65
1830.47
1818.84
1818.79
1804.27
1379.76
1448.17
1727.65
1750.64
1690.41
1775.7
1873.42
1871.7
1866.86
1861.74
1834.62
1767.8
1750.96
1772.77
1808.99
1819.87
1818.2
1818.64
1822.37
1550.14
966.494
935.805
1013.25
1491.4
1365.01
1019.57
1113.89
1501.59
1789.05
1814.84
1814.81
1815.68
1817.62
1820.32
1823.62
1821.29
1832.19
1806.3
1737.49
1763.54
1895.56
1746.25
1673.87
1672.04
1668.96
1735.04
1875.89
1876.01
1870.09
1864.57
1744.63
1480.49
1468.08
1461.68
1535.59
1788.58
1819.93
1812.98
1808.01
1805.54
1788.45
1752.31
1341.67
866.297
818.352
811.052
808.571
807.54
1168.73
1727.57
1804.39
1809.04
1813.51
1818.08
1822.86
1822.14
1828.93
1748.6
1733.57
1793.84
1896.88
1893.13
1737.86
1745.59
1870.89
1883.94
1878.43
1871.95
1865.49
1859.02
1833.7
1568.74
1458.09
1453.9
1448.58
1445.2
1438.58
1562.5
1795.39
1794.84
1784.95
1710.53
1093.75
807.544
800.572
799.879
798.841
798.096
796.909
1056.11
1708.98
1801.48
1808.46
1815.39
1821.88
1828.67
1803.33
1724.85
1734.17
1803.19
1895.61
1893.09
1889.23
1885.62
1882.22
1877.85
1872.28
1865.78
1858.74
1851.23
1843.46
1837.04
1711.25
1543.02
1740.89
1831.48
1635.24
1386.83
1380.99
1376.37
1366.28
1479.61
1412.74
1092.38
803.36
798.277
797.458
795.425
793.924
792.372
1190.14
1772.59
1803.22
1812.12
1820.42
1828.33
1787.8
1723.1
1759.62
1810.44
1893.44
1891.22
1887.5
1883.28
1878.66
1873.08
1866.52
1859.2
1851.38
1843.25
1835.01
1827.13
1821.03
1817.85
1815.67
1811.94
1807.71
1801.42
1789.9
1753.87
1685.15
1710.95
1783.07
1796.98
1722.45
1106.22
791.662
790.128
788.236
785.458
856.687
1548.75
1801.47
1809.7
1819.89
1829.23
1801.97
1721.46
1770.92
1816.75
1888.98
1887.12
1883.67
1879.02
1873.33
1866.66
1859.11
1850.88
1842.21
1833.34
1824.54
1816.3
1809.42
1804.2
1799.87
1795.23
1792.36
1791.42
1792.02
1793.67
1796.72
1800.97
1805.35
1810.82
1818.2
1745.12
1060.39
786.167
779.631
777.019
776.164
1221.44
1787.77
1808.2
1819.68
1830.58
1815.32
1718.57
1767.09
1822.98
1881.83
1880.22
1876.81
1871.89
1865.68
1858.37
1850.16
1841.29
1832.07
1822.6
1812.32
1801.26
1792.91
1769.94
1709.35
1644.03
1658.36
1718.65
1775.92
1783.87
1789.13
1794.5
1800.47
1807.16
1814.9
1826.01
1517.08
834.688
769.03
765.158
761.806
1016.93
1728.92
1809.02
1820.19
1832.12
1795.5
1710.18
1760.73
1829.08
1871.99
1870.73
1867.48
1862.54
1856.19
1848.7
1840.4
1831.72
1822.71
1811.79
1723.64
1542.74
1508.48
1306.47
1221.01
1220.82
1220.91
1376.79
1738.47
1774.57
1781.85
1788.35
1795.26
1802.91
1811.54
1822.65
1730.88
962.331
753.822
748.925
744.156
868.046
1619.64
1809.77
1820.41
1833.31
1785.96
1699.4
1749.31
1833.11
1859.75
1858.86
1855.88
1851.12
1844.93
1837.74
1830.11
1822.17
1810.68
1696.29
1244.73
1213.43
1208.37
1207.81
1209.24
1210.26
1211.88
1212.48
1227.54
1636.79
1773.84
1779.85
1787.71
1796.71
1806.46
1818.25
1804.44
1046.36
736.938
733.538
730.67
752.744
1445.33
1803.88
1817.26
1821.11
1685.54
1694.38
1782.45
1832.69
1845.65
1844.97
1842.2
1837.64
1831.71
1825.05
1817.95
1806.99
1634.96
1212.71
1199.18
1195.94
1195.04
1194.61
1198.26
1198.65
1198.39
1200.28
1206.79
1210.45
1251.59
1665.75
1777.61
1786.7
1797.82
1810.1
1827.14
1227.08
725.978
723.418
721.462
716.935
1288.83
1789.85
1814.62
1683.05
1531.91
1742.69
1816.76
1829.78
1830.17
1829.47
1826.71
1822.23
1816.59
1810.34
1800.95
1689.69
1243.71
1186.99
1180.51
1178.2
1188.09
1422.2
1312.87
1187.58
1242.37
1602.79
1441.19
1204.9
1226.42
1235.73
1569.38
1776.35
1786.37
1798.19
1812.08
1650.37
978.212
726.014
711.192
705.18
1301.44
1780.49
1812.44
1355.2
1470.39
1792.32
1811.56
1824.17
1813.89
1812.85
1809.84
1805.24
1799.67
1791.87
1740.66
1304.96
1188.84
1174.16
1177.26
1283.63
1638.14
1747.93
1743.22
1741.13
1740.93
1746.76
1741.74
1747.69
1437.58
1235.8
1277.28
1605.82
1770.07
1781.22
1791.73
1804.76
1649.88
1524.12
1373.64
865.881
1318.52
1744.95
1763.47
1167.53
1409.75
1788.51
1805.95
1817.95
1797.76
1796.05
1792.49
1787.56
1781.08
1767.58
1385.99
1205.06
1180.55
1288.81
1671.95
1730.45
1727.85
1719.91
1712.08
1707.91
1708.21
1710.59
1714.17
1719.05
1725.94
1451.91
1238.73
1225.02
1611.78
1758.74
1770.04
1779.02
1789.12
1796.42
1799.35
1365.46
1402.43
1730.84
1663.52
1097.22
1322.98
1751.68
1797.44
1808.26
1782.91
1780.22
1775.91
1770.29
1761.56
1514.14
1229.02
1206.19
1372.08
1682.19
1700.2
1699.21
1694.98
1686.55
1672.74
1666.99
1671.02
1678.39
1685.02
1692.89
1702.11
1712.84
1325.78
1150.78
1220.38
1662.76
1746.57
1754.96
1763.12
1770.27
1776.65
1597.2
1603.59
1738.05
1552.58
1046.07
1229.25
1692.85
1776.62
1795.55
1770.21
1766.2
1760.81
1753.83
1725.47
1292.11
1235.47
1283.53