/*--------------------------------*- C++ -*----------------------------------*\
  =========                 |
  \\      /  F ield         | OpenFOAM: The Open Source CFD Toolbox
   \\    /   O peration     | Website:  https://openfoam.org
    \\  /    A nd           | Version:  8
     \\/     M anipulation  |
\*---------------------------------------------------------------------------*/
FoamFile
{
    version     2.0;
    format      ascii;
    class       volScalarField;
    location    "0.35";
    object      alpha.water;
}
// * * * * * * * * * * * * * * * * * * * * * * * * * * * * * * * * * * * * * //

dimensions      [0 0 0 0 0 0 0];

internalField   nonuniform List<scalar> 
9150
(
1
1
1
1
1
1
1
1
1
1
1
1
1
1
1
1
1
1
1
1
1
1
1
1
1
1
1
1
1
1
1
1
1
1
1
1
1
1
1
1
1
1
1
1
1
1
1
1
1
1
1
1
1
1
1
1
1
1
1
1
1
1
1
1
1
1
1
1
1
1
1
1
1
1
1
1
1
1
1
1
1
1
1
1
1
1
1
1
1
1
1
1
1
1
1
1
1
1
1
1
1
1
1
1
1
1
1
1
1
1
1
1
1
1
1
1
1
1
1
1
1
1
1
1
1
1
1
1
1
1
1
1
1
1
1
1
1
1
1
1
1
1
1
1
1
1
1
1
1
1
0.98644
0.986468
0.986582
0.986759
0.986798
0.986801
0.986738
0.986572
0.986472
0.986475
1
1
1
1
1
1
1
1
1
1
1
1
1
1
1
1
1
1
1
1
1
1
1
1
1
1
1
1
1
1
1
1
1
1
1
1
1
1
1
1
1
1
1
1
1
1
1
1
1
1
1
1
1
1
1
1
1
1
1
1
1
1
1
1
0.999999
0.999999
1
1
1
1
1
1
1
1
0.999999
0.999999
1
1
1
1
1.00002
1
1
0.999999
0.999999
0.999999
0.999999
1
1
1.00002
1
1
1
0.999999
0.999997
0.999997
0.999999
1
1
1
1.00011
1
1
0.999999
0.999995
0.999995
0.999999
1
1
1.0001
1.00019
1
1
0.999999
0.999995
0.999995
0.999999
1
1
1.0002
0.999834
1.00004
1
0.999999
0.999995
0.999995
0.999999
1
1.00003
0.999842
0.8895
1.00013
1
0.999999
0.999996
0.999995
0.999999
1
1.00012
0.90009
0.604622
1.00004
1
0.999999
0.999998
0.999997
0.999999
1
1.00004
0.614152
0.408893
1.00001
1
0.999999
0.999994
0.999996
0.999999
1
1.00001
0.41838
0.253578
1.00036
1
0.999999
0.999991
0.999992
0.999999
1
1.00032
0.260735
0.145815
0.896155
1
0.999999
0.999991
0.999991
0.999999
1
0.905775
0.15147
0.0785349
0.792913
0.999998
0.999998
0.999991
0.999991
0.999999
0.999998
0.79866
0.0820504
0.0379598
0.701341
0.999998
0.999998
0.999991
0.999991
0.999998
0.999998
0.70854
0.0403156
0.0142742
0.604505
0.999998
0.999998
0.999991
0.999992
0.999998
0.999998
0.612213
0.0156742
0.00612635
0.512432
0.999999
0.999998
0.999996
0.999996
0.999998
0.999999
0.520256
0.00651701
0.00203604
0.432369
1
0.999999
0.999994
0.999994
0.999999
1
0.439881
0.00231169
0.000566442
0.366424
1.00003
0.999999
0.999988
0.999987
0.999999
1.00002
0.373077
0.000581539
0.000369721
0.316699
0.994181
0.999998
0.999987
0.999987
0.999998
0.997715
0.322281
0.000380876
0.000233052
0.279281
0.965742
0.999998
0.999987
0.999987
0.999998
0.968573
0.284408
0.000241071
0.000140936
0.249118
0.953499
0.999997
0.999987
0.999987
0.999998
0.955782
0.253799
0.000146541
8.06331e-05
0.225025
0.941079
0.999996
0.999987
0.999988
0.999997
0.94371
0.229391
8.4401e-05
4.19946e-05
0.206307
0.930365
0.999995
0.999989
0.999991
0.999995
0.933002
0.210348
4.45221e-05
1.87554e-05
0.191966
0.921488
0.999991
0.999989
0.999989
0.999992
0.924144
0.195752
2.00123e-05
8.5109e-06
0.181622
0.914359
0.999989
0.999988
0.999988
0.999989
0.917015
0.185109
9.11439e-06
3.36524e-06
0.174033
0.909179
0.999988
0.999988
0.999988
0.999988
0.91181
0.17743
3.72057e-06
8.00529e-07
0.170269
0.905556
0.999981
0.999988
0.999988
0.999988
0.908126
0.173274
9.46175e-07
-4.72516e-08
0.16709
0.904002
0.999776
0.999988
0.999988
0.999814
0.90643
0.170253
-5.03364e-08
-9.37245e-13
0.166031
0.903587
0.999813
0.999988
0.999988
0.999803
0.905891
0.169115
-6.74172e-13
0
0.167079
0.905317
0.999887
0.999988
0.999988
0.999886
0.907253
0.169741
0
5.99427e-19
0.170403
0.907924
0.999927
0.999988
0.999988
0.999926
0.909996
0.173173
8.95765e-19
1.72793e-18
0.174646
0.911162
0.999957
0.999988
0.999989
0.999956
0.913026
0.1773
2.56725e-18
3.13858e-18
0.180663
0.91532
0.999976
0.999989
0.999989
0.999975
0.917068
0.183242
4.58816e-18
5.24182e-18
0.187926
0.919969
0.999987
0.999989
0.999989
0.999986
0.921586
0.190442
7.5301e-18
8.16975e-18
0.196463
0.925062
0.99999
0.999991
0.99999
0.99999
0.926548
0.19892
1.16012e-17
1.21364e-17
0.206153
0.930418
0.999996
0.999992
0.999992
0.999995
0.93178
0.208556
1.70749e-17
1.72526e-17
0.216894
0.935918
0.999993
0.999992
0.999993
0.999995
0.937158
0.219244
2.40783e-17
2.36246e-17
0.228571
0.94145
0.999993
0.999993
0.999994
0.999993
0.942572
0.230871
3.27303e-17
3.1332e-17
0.241065
0.946913
0.999995
0.999994
0.999994
0.999995
0.947925
0.243316
4.30486e-17
4.03481e-17
0.25427
0.952234
0.999994
0.999994
0.999995
0.999995
0.953141
0.256471
5.49562e-17
5.05425e-17
0.268098
0.957357
0.999994
0.999995
0.999995
0.999995
0.958166
0.270249
6.8276e-17
6.16738e-17
0.282498
0.962243
0.999995
0.999995
0.999996
0.999996
0.962962
0.2846
8.27062e-17
7.33851e-17
0.297459
0.966874
0.999996
0.999996
0.999996
0.999996
0.967508
0.299512
9.78539e-17
8.51795e-17
0.313006
0.971236
0.999996
0.999996
0.999997
0.999996
0.971792
0.315011
1.13222e-16
9.6401e-17
0.329189
0.975322
0.999997
0.999997
0.999997
0.999997
0.975807
0.331147
1.28223e-16
1.06267e-16
0.346065
0.979125
0.999997
0.999997
0.999997
0.999997
0.979545
0.347977
1.42227e-16
1.13676e-16
0.363679
0.982637
0.999997
0.999997
0.999998
0.999997
0.982997
0.365547
1.54491e-16
1.12618e-16
0.382055
0.985846
0.999998
0.999998
0.999998
0.999998
0.98615
0.383879
1.63987e-16
1.03617e-16
0.401188
0.988738
0.999998
0.999998
0.999998
0.999998
0.988992
0.40297
1.6519e-16
8.43825e-17
0.421052
0.991303
0.999998
0.999998
0.999998
0.999998
0.99151
0.422792
1.43775e-16
-3.50555e-17
0.441613
0.993531
0.999998
0.999998
0.999998
0.999998
0.993697
0.443311
-1.43744e-17
-1.1425e-15
0.462837
0.995419
0.999998
0.999998
0.999999
0.999998
0.995548
0.464492
-1.24863e-15
-1.75161e-14
0.484705
0.996965
0.999998
0.999999
0.999999
0.999999
0.997061
0.486316
-1.94603e-14
-2.63955e-13
0.507216
0.998181
0.999999
0.999999
0.999999
0.999999
0.998248
0.508783
-2.93377e-13
-4.02478e-12
0.530389
0.999052
0.999999
0.999999
0.999999
0.999999
0.999096
0.531908
-4.47075e-12
-6.21172e-11
0.55423
0.999633
0.999999
0.999999
0.999999
0.999999
0.999649
0.555704
-6.89469e-11
-9.6648e-10
0.578768
0.999804
0.999999
0.999999
0.999999
0.999999
0.999817
0.580182
-1.07161e-09
-1.50021e-08
0.603712
0.999958
0.999999
0.999999
0.999999
0.999999
0.999959
0.605062
-1.66052e-08
-2.26432e-07
0.628766
0.99996
0.999999
0.999999
0.999999
0.999999
0.999961
0.630032
-2.49813e-07
-3.13125e-06
0.653495
0.999962
0.999999
0.999999
0.999999
0.999999
0.999963
0.654672
-3.43182e-06
-3.51529e-05
0.676424
0.999964
0.999999
0.999999
0.999999
0.999999
0.999965
0.677421
-3.80452e-05
0.0077818
0.696359
0.999966
0.999999
0.999999
0.999999
0.999999
0.999967
0.697155
0.00834198
0.0200493
0.715656
0.999969
0.999999
0.999999
0.999999
0.999999
0.999969
0.716429
0.020332
0.0280219
0.734802
0.999971
0.999999
0.999999
0.999999
0.999999
0.999971
0.735522
0.0283527
0.0376643
0.753666
0.999973
0.999999
1
1
0.999999
0.999973
0.754337
0.0379983
0.0479187
0.772183
0.999975
1
1
1
1
0.999975
0.772811
0.048267
0.0591309
0.79036
0.999977
1
1
1
1
0.999977
0.790948
0.0594937
0.0713137
0.808145
0.999979
1
1
1
1
0.999979
0.808696
0.0716931
0.0845511
0.825491
0.99998
1
1
1
1
0.999981
0.826007
0.0849485
0.0989106
0.842342
0.999982
1
1
1
1
0.999982
0.842824
0.0993268
0.114461
0.85864
0.999984
1
1
1
1
0.999984
0.859087
0.114897
0.131274
0.874325
0.999986
1
1
1
1
0.999986
0.874736
0.131726
0.14942
0.889338
0.999987
1
1
1
1
0.999988
0.889713
0.149888
0.16898
0.903621
0.999989
1
1
1
1
0.999989
0.903958
0.16946
0.190038
0.917118
0.99999
1
1
1
1
0.999991
0.917416
0.190525
0.212681
0.929772
0.999992
1
1
1
1
0.999992
0.93003
0.213169
0.237
0.941525
0.999993
1
1
1
1
0.999993
0.941744
0.237483
0.263085
0.952323
0.999994
1
1
1
1
0.999994
0.952504
0.263556
0.29103
0.962113
0.999995
1
1
1
1
0.999995
0.962258
0.291481
0.320934
0.970846
0.999996
1
1
1
1
0.999996
0.970958
0.321359
0.35291
0.978479
0.999997
1
1
1
1
0.999997
0.978562
0.353303
0.387089
0.984974
0.999998
1
1
1
1
0.999998
0.985032
0.387443
0.423619
0.990306
0.999998
1
1
1
1
0.999998
0.990343
0.423927
0.462686
0.994434
0.999998
1
1
1
1
0.999998
0.994456
0.462945
0.504507
0.9974
0.999999
1
1
1
1
0.999999
0.99741
0.504714
0.549489
0.999064
0.999999
1
1
1
1
0.999999
0.999068
0.549643
0.597761
0.999738
0.999999
1
1
1
1
0.999999
0.99974
0.597865
0.649321
0.999904
0.999999
1
1
1
1
0.999999
0.999904
0.649381
0.703685
0.999928
0.999999
1
1
1
1
0.999999
0.999928
0.703712
0.761101
0.999958
1
1
1
1
1
1
0.999958
0.761107
0.818697
0.999987
1
1
1
1
1
1
0.999987
0.818695
0.882304
1
1
1
1
1
1
1
1
0.882302
0.942002
1
1
1
1
1
1
1
1
0.942002
0.987564
0.997717
0.98931
0.986711
0.986571
0.986555
0.986573
0.994469
0.999999
0.999986
0.980836
0.955809
0.955024
0.95475
0.954654
0.954606
0.954578
0.954572
0.954577
0.954577
0.984962
0.99954
0.999852
0.98031
0.871402
0.860667
0.85991
0.860276
0.899634
0.952643
0.891399
0.578168
0.572813
0.573143
0.669744
0.902183
0.902203
0.902165
0.885147
0.882457
1
1
1
1
1
0.999998
0.999999
0.999999
0.999999
0.999999
1
1
0.999966
0.999799
0.999438
0.998881
0.998108
0.99691
0.995794
0.996014
0.99752
0.999881
0.999985
0.995808
0.976614
0.986906
0.97525
0.863105
0.868996
0.94249
0.991057
0.992815
0.678215
0.573143
0.576838
0.589434
0.719859
0.901325
0.899007
0.89523
1
1
1
1
0.999999
0.999999
0.999998
0.999998
0.999997
0.999997
0.999997
0.999998
0.999997
0.999997
0.999997
0.999995
0.999991
0.999991
0.999991
0.99999
0.999971
0.999973
0.999992
1
0.99998
0.999974
0.999937
0.991223
0.956978
0.964508
0.996998
0.999542
0.994456
0.837687
0.580862
0.587384
0.59263
0.594246
0.815503
0.898872
1
1
0.999999
0.999996
0.999991
0.999985
0.999984
0.999981
0.999961
0.999938
0.999931
0.999933
0.999942
0.999956
0.999971
0.999988
0.999991
0.999991
0.999991
0.999993
0.999994
0.999995
0.999996
0.999997
0.999997
0.999996
0.999991
0.999963
0.999872
0.997973
0.998308
0.99984
0.999851
0.998159
0.96086
0.654583
0.594104
0.59744
0.656843
0.898872
1
0.999999
0.999987
0.999946
0.999875
0.999789
0.999745
0.999756
0.999734
0.999471
0.999052
0.999005
0.999086
0.999317
0.999576
0.999771
0.999891
0.999952
0.999981
0.999994
0.999996
0.999997
0.999997
0.999997
0.999998
0.999998
0.999998
0.999996
0.999986
0.999974
0.999874
0.999978
0.999981
0.999873
0.999469
0.976791
0.726147
0.598135
0.614047
0.89223
1
0.999993
0.999887
0.999435
0.998686
0.99773
0.991875
0.975589
0.950757
0.942113
0.948809
0.963525
0.980413
0.988738
0.993578
0.996602
0.998305
0.999249
0.999791
0.999991
0.999995
0.999997
0.999997
0.999998
0.999998
0.999998
0.999998
0.999998
0.999998
0.999996
0.999996
0.999997
0.999997
0.999983
0.999946
0.999472
0.995512
0.680732
0.619304
0.862381
1
0.999957
0.999302
0.996285
0.931613
0.740649
0.514861
0.360558
0.264615
0.233702
0.255322
0.315228
0.43778
0.619328
0.795976
0.911445
0.967588
0.990211
0.997197
0.999409
0.999821
0.999994
0.999998
0.999998
0.999998
0.999998
0.999998
0.999998
0.999998
0.999998
0.999999
0.999999
0.999999
0.999998
0.999987
0.999923
0.999521
0.908753
0.637915
0.823417
0.999997
0.999817
0.996135
0.718607
0.286166
0.00264375
0.000548104
0.000115751
2.22227e-05
4.38779e-06
9.68e-07
2.56244e-07
6.34438e-08
0.00941142
0.033103
0.0530157
0.131545
0.498751
0.937379
0.9987
0.99959
0.99995
1.00004
0.999996
0.999997
0.999998
0.999998
0.999998
0.999998
0.999999
0.999999
0.999999
0.999999
0.999999
0.999997
0.999987
0.999913
0.999535
0.899292
0.872814
1.00003
0.998907
0.699922
0.0790154
0.00238083
0.000502495
0.000112785
2.45261e-05
5.26349e-06
1.12792e-06
2.16917e-07
6.34423e-08
2.059e-08
1.6362e-08
2.80459e-08
9.62828e-06
0.000249082
0.0137106
0.0513919
0.0652217
0.261377
0.821831
0.999925
0.999965
0.999991
0.999997
1
0.999999
0.999999
0.999999
0.999999
0.999999
0.999999
0.999999
0.999999
0.999997
0.999985
0.999915
0.99795
0.96669
0.999919
0.901914
0.162837
0.00327609
0.000565141
0.000103539
2.91074e-05
7.24173e-06
1.67982e-06
4.06237e-07
1.01164e-07
2.28303e-08
7.90021e-09
1.32079e-08
1.63623e-08
5.39875e-08
2.9496e-06
2.09428e-05
6.97946e-05
0.00090939
0.00576577
0.0795774
0.15919
0.188493
0.264103
0.475897
0.957722
0.99999
0.999997
0.999999
0.999999
0.999999
0.999999
0.999999
0.999999
0.999998
0.999996
0.999991
0.999684
0.978683
0.999964
0.394521
0.0050496
0.000814865
0.000208728
5.02512e-05
1.2965e-05
3.64632e-06
9.36196e-07
2.11282e-07
4.27891e-08
8.27394e-09
4.11132e-09
6.17871e-09
1.95647e-05
4.94756e-05
2.75635e-05
2.8424e-05
3.20516e-05
0.0017341
0.00233105
0.13997
0.622412
0.697159
0.287798
0.297795
0.548936
0.923738
0.922253
0.946195
0.998107
0.999991
0.999999
0.999999
0.999998
0.999997
0.999997
0.999994
0.999928
0.965628
0.910508
0.120314
0.00196944
0.000357858
5.34375e-05
1.96583e-05
4.91699e-06
1.19974e-06
2.79732e-07
6.14401e-08
1.1558e-08
4.1139e-09
3.19734e-09
1.34776e-05
0.000375784
0.000380009
0.000184992
3.20516e-05
4.05456e-05
0.0541577
0.576474
0.694689
0.697159
0.69717
0.697159
0.556469
0.507684
0.556438
0.620747
0.78745
0.99492
0.999811
0.999994
0.999995
0.999997
0.999996
0.999996
0.999995
0.999721
0.964321
0.51127
0.014586
0.000906139
0.000136467
2.9914e-05
6.83576e-06
1.55928e-06
3.66342e-07
8.5403e-08
1.97569e-08
4.71112e-09
3.19735e-09
3.0119e-09
3.19628e-09
0.000218735
0.000259967
4.46649e-05
4.06927e-05
4.21963e-05
0.143969
0.239785
0.262397
0.444499
0.697174
0.686517
0.433545
0.496232
0.672742
0.643824
0.750566
0.968773
0.99905
0.999969
0.99999
0.999995
0.999996
0.999994
0.999994
0.99999
0.968528
0.254079
0.00292281
0.000429597
7.13247e-05
1.33949e-05
2.72112e-06
6.0268e-07
1.49811e-07
4.71433e-08
2.22537e-08
6.20758e-09
3.0528e-09
3.27768e-09
9.62346e-07
6.61965e-07
8.87821e-07
0.000713479
0.00109088
0.00031517
5.76222e-06
2.60868e-06
3.5837e-05
0.0260981
0.141118
0.150419
0.0677513
0.358768
0.748387
0.769884
0.771632
0.843228
0.978143
0.999931
0.999987
0.999994
0.999995
0.999994
0.999992
0.999992
0.993488
0.0987943
0.00138501
0.00018367
2.94377e-05
5.2128e-06
1.012e-06
2.17241e-07
5.42129e-08
1.84763e-08
1.14443e-08
1.1374e-08
6.85887e-09
2.39338e-09
9.4631e-08
2.36943e-08
2.89519e-07
0.000139121
0.00020924
7.14265e-05
1.50379e-06
5.04304e-07
1.58544e-06
3.97292e-05
0.00021919
0.000200125
0.000261908
0.0449697
0.488753
0.758967
0.753908
0.76988
0.969088
0.999925
0.999978
0.999994
0.999994
0.999993
0.999991
0.999991
0.999987
0.0241053
0.000664473
8.31454e-05
1.26124e-05
2.10893e-06
3.88419e-07
7.84957e-08
1.80876e-08
4.91497e-09
2.32195e-09
4.91892e-09
5.90226e-09
2.17068e-09
5.65866e-10
1.97883e-09
1.85439e-08
2.10682e-05
2.71733e-05
9.79763e-06
5.03506e-07
3.03648e-07
1.77531e-07
1.51969e-06
5.26699e-06
1.26591e-05
1.22639e-05
0.00024505
0.0565222
0.63868
0.753374
0.779391
0.917153
0.983897
0.99994
0.999993
0.999993
0.999993
0.999992
0.999991
0.999989
0.00466229
0.000342634
4.23388e-05
6.06295e-06
9.57348e-07
1.6765e-07
3.28132e-08
7.49635e-09
2.30715e-09
1.25194e-09
1.37735e-09
2.01991e-09
1.51758e-09
5.33762e-10
4.67004e-10
1.42289e-09
6.68063e-06
2.69493e-05
5.299e-06
3.03402e-07
1.77445e-07
9.72853e-08
1.37042e-07
8.52037e-07
1.05577e-06
3.05883e-06
2.19441e-05
0.000483217
0.304218
0.748079
0.719634
0.49433
0.875808
0.998874
0.999992
0.999992
0.999992
0.999992
0.999989
0.999988
0.00167984
0.000176599
2.16971e-05
2.92912e-06
4.37477e-07
7.29598e-08
1.38365e-08
3.15026e-09
1.22931e-09
7.63357e-10
8.30185e-10
8.9336e-10
8.2739e-10
5.23116e-10
3.48496e-10
3.32107e-10
2.60825e-07
2.03724e-05
8.01322e-06
2.77495e-07
9.64913e-08
6.37233e-08
3.34441e-08
6.40419e-08
1.01576e-06
1.63812e-06
3.55013e-06
6.03219e-05
0.0226819
0.535029
0.495744
0.0503376
0.683446
0.99605
0.999992
0.999992
0.999992
0.999992
0.999946
0.999946
0.000930443
9.13661e-05
1.05346e-05
1.32645e-06
1.8602e-07
2.93608e-08
5.34225e-09
1.1558e-09
4.54833e-10
5.00002e-10
6.22775e-10
6.72072e-10
6.46052e-10
5.10724e-10
3.24272e-10
2.45016e-10
5.72259e-11
8.93644e-06
9.17917e-06
1.49716e-06
6.70556e-08
3.37159e-08
2.19532e-08
1.27197e-08
7.81057e-07
1.24077e-06
1.52849e-06
8.67264e-06
0.000168721
0.070237
0.0612347
0.00577635
0.47605
0.987798
0.995336
0.999992
0.999991
0.998238
0.999746
0.999903
0.000493307
4.43408e-05
4.68579e-06
5.38852e-07
6.98047e-08
1.03361e-08
1.78927e-09
4.40737e-10
1.59134e-10
1.94205e-10
2.89269e-10
4.20126e-10
4.89039e-10
4.61798e-10
3.25231e-10
2.32682e-10
2.18755e-10
2.90965e-07
6.93669e-06
2.39263e-06
7.30749e-08
2.18651e-08
1.27083e-08
6.08109e-09
1.58897e-07
1.19091e-06
1.53531e-06
2.72277e-06
2.91813e-05
0.000793185
0.00227845
0.00170139
0.292203
0.963947
0.958605
0.809677
0.941552
0.993694
0.999468
0.980795
0.000254777
2.02839e-05
1.9042e-06
1.94257e-07
2.27166e-08
3.11946e-09
5.20154e-10
1.53438e-10
6.79391e-11
8.683e-11
1.3429e-10
2.38625e-10
3.89757e-10
4.29189e-10
3.83997e-10
2.26116e-10
1.46043e-10
6.3572e-10
9.02336e-07
2.11689e-06
4.61231e-07
1.65285e-08
5.99439e-09
4.07143e-09
1.96578e-08
1.42553e-06
1.94483e-06
2.00713e-06
3.69103e-06
0.000122398
0.000541317
0.000501515
0.170837
0.910736
0.922616
0.613257
0.685434
0.98451
0.999362
0.964715
0.00013438
9.20024e-06
7.46209e-07
6.57222e-08
6.77804e-09
8.53619e-10
1.49082e-10
4.19067e-11
2.1377e-11
2.55331e-11
3.61449e-11
6.06306e-11
1.35827e-10
2.77703e-10
3.14886e-10
2.305e-10
1.0427e-10
1.18641e-10
4.52243e-09
3.60916e-07
4.26397e-07
6.6903e-08
4.05179e-09
2.69528e-09
3.34941e-09
1.89288e-06
2.9206e-06
1.51685e-06
1.57268e-06
2.3609e-05
0.000132628
0.000139386
0.102433
0.836432
0.918938
0.603082
0.596258
0.972973
0.999152
0.964152
7.44036e-05
4.4385e-06
3.12865e-07
2.3729e-08
2.14565e-09
2.46856e-10
4.34109e-11
1.1248e-11
6.29471e-12
7.73217e-12
1.11179e-11
1.891e-11
3.84068e-11
9.67316e-11
1.84216e-10
1.78325e-10
1.01881e-10
8.76748e-11
4.51432e-10
2.52896e-09
8.97829e-08
6.5541e-08
6.08297e-09
1.72265e-09
1.27482e-09
1.48301e-06
2.91328e-06
8.69671e-07
8.2431e-07
5.23853e-06
3.24511e-05
3.29797e-05
0.0097536
0.763503
0.913362
0.596424
0.593646
0.938989
0.997332
0.963891
4.35983e-05
2.42276e-06
1.53064e-07
1.02685e-08
8.29826e-10
8.40472e-11
1.41094e-11
4.27896e-12
2.88603e-12
3.36044e-12
4.24445e-12
6.58843e-12
1.30863e-11
3.01075e-11
7.10554e-11
1.07771e-10
9.22568e-11
6.40149e-11
1.05327e-10
3.09735e-10
8.0227e-10
1.82719e-08
8.06902e-09
1.09181e-09
5.15152e-10
3.3638e-07
1.30959e-06
4.93361e-07
4.43013e-07
1.33616e-06
8.08409e-06
1.01292e-05
3.63111e-05
0.715879
0.904384
0.5944
0.593742
0.750756
0.990328
0.963885
2.65003e-05
1.37865e-06
7.9822e-08
4.88143e-09
3.58155e-10
3.45359e-11
5.45652e-12
2.40187e-12
2.36054e-12
2.64449e-12
2.95625e-12
3.48398e-12
4.97396e-12
9.65226e-12
2.28298e-11
4.95669e-11
6.22477e-11
5.42942e-11
4.67292e-11
7.41475e-11
1.32096e-10
5.34628e-10
3.18567e-09
1.23791e-09
4.03406e-10
5.92409e-10
4.04107e-08
7.62287e-08
9.46764e-08
3.3459e-07
2.1531e-06
3.20329e-06
1.1955e-05
0.632351
0.893651
0.666556
0.593595
0.593297
0.972529
0.963891
1.54403e-05
7.20454e-07
3.78389e-08
2.1098e-09
1.4175e-10
1.36125e-11
2.39781e-12
1.38782e-12
2.21584e-12
2.81534e-12
3.2825e-12
3.53112e-12
3.72498e-12
4.64941e-12
8.52616e-12
1.92218e-11
3.52244e-11
3.97432e-11
3.74723e-11
3.46954e-11
4.45677e-11
7.3504e-11
6.021e-10
5.6148e-10
1.62383e-10
2.03379e-10
8.69599e-09
8.66067e-09
1.97632e-08
8.10333e-08
6.17701e-07
1.0028e-06
3.71334e-06
0.432698
0.873421
0.845928
0.594032
0.595489
0.954393
0.96787
8.31994e-06
3.36053e-07
1.55819e-08
7.80651e-10
4.80968e-11
4.56643e-12
1.11836e-12
1.25561e-12
2.64746e-12
1.08481e-11
1.11256e-11
8.78306e-12
5.30533e-12
4.75638e-12
5.1079e-12
8.29002e-12
1.72626e-11
2.66447e-11
2.94407e-11
2.87768e-11
2.95149e-11
3.64668e-11
1.18967e-10
1.85572e-10
7.53923e-11
1.13685e-10
1.9884e-09
2.58531e-09
5.46862e-09
2.08569e-08
1.74238e-07
3.40076e-07
-2.73883e-06
0.125007
0.842479
0.839796
0.596266
0.598761
0.953346
0.987547
4.18476e-06
1.42523e-07
5.69183e-09
2.55766e-10
1.42386e-11
1.32065e-12
4.05689e-13
1.06386e-12
7.2769e-12
4.55074e-11
5.30454e-11
4.21007e-11
2.26512e-11
8.24659e-12
5.56046e-12
5.88742e-12
8.67094e-12
1.58016e-11
2.18357e-11
2.33574e-11
2.32237e-11
2.39149e-11
3.46231e-11
6.63656e-11
5.18974e-11
6.14333e-11
4.76466e-10
9.10094e-10
1.66438e-09
3.89001e-09
4.82048e-08
8.81098e-08
-2.64724e-06
0.00126376
0.783128
0.829223
0.599184
0.610423
0.960813
0.991058
1.92933e-06
5.58174e-08
1.95619e-09
7.82404e-11
3.88175e-12
3.99039e-13
1.83209e-13
1.54091e-12
1.28934e-11
1.22815e-10
1.7055e-10
1.45349e-10
9.12746e-11
3.78311e-11
1.0817e-11
6.40554e-12
6.85527e-12
9.39565e-12
1.49979e-11
1.88813e-11
1.92209e-11
1.89722e-11
1.99392e-11
2.81278e-11
3.46575e-11
4.94241e-11
2.8145e-10
4.49769e-10
3.82178e-10
1.36315e-09
4.87854e-08
3.44653e-08
-3.9053e-07
-1.28508e-05
0.560255
0.82739
0.658711
0.773776
0.974293
0.991199
8.27928e-07
2.08468e-08
6.03599e-10
2.02588e-11
9.06095e-13
1.57259e-13
1.55392e-13
7.08536e-12
2.14042e-11
2.13257e-10
3.64939e-10
3.37183e-10
2.45589e-10
1.29295e-10
4.58233e-11
1.25606e-11
7.37265e-12
7.95376e-12
1.044e-11
1.48311e-11
1.70711e-11
1.69806e-11
1.69654e-11
1.82686e-11
2.16833e-11
3.6689e-11
1.76983e-10
2.41277e-10
1.36658e-10
3.98354e-10
1.41211e-07
2.59009e-08
-1.55791e-07
-5.55815e-05
0.176269
0.794189
0.920882
0.972839
0.987532
0.991252
3.36114e-07
6.6468e-09
1.5332e-10
4.21324e-12
2.18689e-13
8.86429e-14
1.41514e-13
1.36916e-11
3.44146e-11
2.51717e-10
6.01829e-10
5.7635e-10
4.65892e-10
2.86549e-10
1.29721e-10
4.30141e-11
1.3028e-11
8.62918e-12
9.35258e-12
1.18179e-11
1.50763e-11
1.61465e-11
1.6132e-11
1.63101e-11
1.7345e-11
2.3351e-11
8.67796e-11
1.21789e-10
6.34458e-11
3.6968e-10
1.45129e-07
2.34714e-08
8.5908e-08
-7.71335e-05
0.00560922
0.722045
0.979624
0.9924
0.993624
0.989944
1.1553e-07
1.61906e-09
2.73917e-11
6.3711e-13
5.62309e-14
7.50587e-14
1.51041e-13
1.70686e-11
6.89477e-11
2.40033e-10
1.08693e-09
9.00865e-10
7.62661e-10
4.88395e-10
2.26033e-10
8.79315e-11
2.94557e-11
1.17959e-11
1.00293e-11
1.097e-11
1.31932e-11
1.53364e-11
1.58983e-11
1.59731e-11
1.62121e-11
1.84238e-11
4.05958e-11
6.35594e-11
4.15509e-11
9.34252e-10
7.82237e-08
9.74159e-09
-4.70926e-08
-2.07527e-05
5.37744e-05
0.574643
0.968888
0.993643
0.994013
0.970395
2.72398e-08
2.31996e-10
2.8227e-12
5.32473e-14
8.49254e-15
7.03197e-14
3.75882e-13
1.75032e-11
1.91946e-10
1.92674e-10
3.13292e-09
4.37429e-09
2.39709e-09
9.30762e-10
2.83513e-10
8.97789e-11
3.54319e-11
1.6577e-11
1.23168e-11
1.23075e-11
1.33305e-11
1.51464e-11
1.59396e-11
1.59921e-11
1.60583e-11
1.68997e-11
2.42003e-11
4.21535e-11
3.42154e-11
1.77762e-09
3.96569e-09
4.13757e-09
-1.00841e-08
-2.65439e-06
3.37486e-05
0.324126
0.936321
0.99404
0.994139
0.967115
2.48667e-09
1.05149e-11
9.55022e-14
1.63562e-15
5.7055e-15
8.85261e-14
7.45984e-13
1.28329e-11
3.69975e-10
2.01606e-10
6.91954e-09
2.16799e-08
1.2648e-08
2.06699e-09
9.88817e-11
1.4788e-11
1.30529e-11
1.26852e-11
1.25216e-11
1.25951e-11
1.37448e-11
1.54695e-11
1.62194e-11
1.61735e-11
1.6135e-11
1.65296e-11
1.90927e-11
3.44873e-11
3.26855e-11
7.58775e-10
7.16477e-10
3.27895e-09
3.47839e-10
-1.03372e-07
-1.5249e-05
0.0886952
0.875575
0.994139
0.994167
0.966878
-2.44415e-10
-6.755e-13
-1.9935e-15
6.71398e-16
5.99856e-15
1.15707e-13
1.18021e-12
7.67378e-12
4.5166e-10
2.28127e-10
9.44323e-09
3.15873e-08
2.84039e-08
4.67303e-09
1.93373e-10
2.49005e-09
1.3362e-08
1.29654e-11
1.26806e-11
1.25835e-11
1.38027e-11
1.67716e-11
1.73195e-11
1.69643e-11
1.64124e-11
1.66295e-11
1.75573e-11
3.19999e-11
3.01412e-11
3.81744e-11
2.11984e-09
3.25574e-09
4.01844e-09
-5.15845e-07
-3.56804e-05
0.00464777
0.794444
0.994167
0.994167
0.966779
-3.01164e-16
7.75773e-18
7.34912e-17
9.03909e-16
9.9757e-15
1.33277e-13
1.49021e-12
5.71013e-12
4.45139e-10
9.4148e-10
6.31241e-09
3.24536e-08
3.24536e-08
1.1955e-08
3.71818e-10
1.95899e-08
2.02253e-07
2.42375e-07
4.75079e-08
1.59267e-11
1.41112e-11
1.73132e-11
1.96384e-11
1.90271e-11
1.73771e-11
1.69371e-11
1.73863e-11
3.10836e-11
2.72032e-11
2.79925e-11
2.06275e-08
6.1754e-08
3.88517e-09
-1.87997e-07
-1.0186e-05
-9.549e-06
0.69606
0.993401
0.994167
0.966698
0
3.90222e-17
3.07311e-16
1.87354e-15
1.45619e-14
1.5183e-13
1.63421e-12
6.63421e-12
2.56573e-10
3.18617e-09
3.27566e-09
2.1588e-08
3.26989e-08
2.31816e-08
7.27531e-10
8.10477e-08
2.5218e-07
2.53772e-07
2.54664e-07
2.40961e-08
9.9309e-11
2.93932e-11
2.26283e-11
2.36015e-11
2.03883e-11
1.77948e-11
1.75685e-11
2.99783e-11
2.61459e-11
2.6747e-11
1.22552e-07
1.16615e-06
9.68102e-07
4.35976e-07
-1.37154e-06
8.13031e-06
0.539067
0.987199
0.994151
0.966651
4.25593e-19
6.01595e-17
4.91505e-16
2.90532e-15
2.05869e-14
1.70472e-13
1.66845e-12
1.0532e-11
1.14801e-10
3.89312e-09
4.70369e-09
7.38204e-09
3.2914e-08
3.29265e-08
1.08481e-08
1.05871e-08
1.66459e-07
2.56258e-07
2.56995e-07
2.25843e-07
1.66251e-08
8.5888e-11
3.12547e-11
3.4451e-11
2.82541e-11
2.08278e-11
1.79586e-11
2.73988e-11
2.53443e-11
2.61459e-11
3.93654e-07
1.51653e-06
1.54679e-06
6.79083e-07
7.89367e-08
3.91516e-06
0.323683
0.962251
0.994034
0.966658
9.918e-19
8.78249e-17
7.97077e-16
4.77657e-15
3.01123e-14
1.93031e-13
1.54013e-12
1.21267e-11
8.61036e-11
2.8161e-09
7.15506e-09
6.89083e-09
2.36318e-08
3.29401e-08
2.17001e-08
1.05871e-08
3.9477e-08
2.57059e-07
2.57315e-07
2.57872e-07
5.75457e-08
1.85288e-10
7.45422e-11
6.95245e-11
4.93093e-11
2.98436e-11
1.92183e-11
2.35862e-11
2.47049e-11
2.52497e-11
3.60873e-07
1.54679e-06
1.55732e-06
5.53746e-07
3.89357e-07
2.50572e-06
0.137891
0.912645
0.993766
0.966657
2.5661e-18
1.27577e-16
1.28768e-15
7.8771e-15
4.49759e-14
2.2949e-13
1.29806e-12
1.22495e-11
1.11452e-10
1.37732e-09
7.88789e-09
7.86845e-09
9.79064e-09
3.27273e-08
3.25338e-08
1.21284e-08
3.2645e-09
2.08127e-07
2.57857e-07
2.58064e-07
2.23869e-07
1.10815e-08
1.58611e-10
9.61357e-11
9.29652e-11
5.69281e-11
2.46384e-11
2.36198e-11
2.84877e-11
2.68233e-11
1.29862e-07
9.96178e-07
1.54814e-06
4.4701e-07
4.34297e-07
-3.82542e-07
0.038976
0.845445
0.99317
0.980787
4.40373e-18
1.78494e-16
2.0401e-15
1.30913e-14
6.89801e-14
2.93662e-13
1.17158e-12
9.65342e-12
1.63622e-10
1.01331e-09
7.22506e-09
9.40023e-09
8.58768e-09
2.06587e-08
3.23896e-08
1.67954e-08
2.89094e-09
1.10757e-07
2.58076e-07
2.58203e-07
2.58311e-07
7.11299e-08
3.21586e-10
1.46889e-10
1.81397e-10
1.19165e-10
4.45158e-11
2.42773e-11
4.59761e-11
2.78851e-11
1.69217e-09
2.33196e-08
1.31834e-06
3.72759e-07
3.52705e-07
-2.43187e-06
0.00400159
0.769353
0.992117
0.991212
7.3237e-18
2.40949e-16
3.1608e-15
2.17992e-14
1.08699e-13
3.95749e-13
1.14042e-12
6.04447e-12
1.95223e-10
1.47969e-09
4.16853e-09
9.42499e-09
8.5798e-09
5.82668e-09
1.93134e-08
1.48123e-08
2.69894e-09
2.45172e-09
1.90822e-07
2.58064e-07
2.57122e-07
1.40108e-07
9.54704e-10
2.9476e-10
3.50108e-10
2.51912e-10
1.00326e-10
2.78153e-11
8.36782e-11
2.97448e-11
3.10221e-11
6.53821e-09
3.92864e-07
3.68253e-07
3.55235e-07
-1.25725e-06
-5.26569e-05
0.681026
0.990263
0.989448
1.13356e-17
3.12773e-16
4.76057e-15
3.61548e-14
1.75927e-13
5.5652e-13
1.20168e-12
3.48169e-12
2.18976e-10
3.20344e-09
3.21071e-09
8.99597e-09
9.21751e-09
4.20829e-09
2.45259e-09
3.57646e-09
2.65963e-09
2.29471e-09
1.77515e-08
2.06178e-07
2.57255e-07
1.19611e-07
1.15879e-09
5.258e-10
5.86613e-10
5.02053e-10
2.25042e-10
4.27537e-11
1.32664e-10
3.29159e-11
3.52038e-11
7.98463e-06
7.63252e-07
3.67624e-07
3.64947e-07
6.54739e-08
-5.72008e-06
0.56838
0.986066
0.986982
1.67175e-17
3.89983e-16
6.93272e-15
5.92363e-14
2.90877e-13
8.28094e-13
1.49139e-12
2.4825e-12
2.28213e-10
4.39182e-09
3.3959e-09
6.42895e-09
9.21751e-09
6.41873e-09
2.41785e-09
2.31828e-09
2.33234e-09
2.2874e-09
2.29347e-09
2.99833e-08
8.41921e-08
5.16573e-08
3.99887e-09
6.37314e-10
6.93765e-10
6.90871e-10
4.16127e-10
8.62116e-11
1.7984e-10
3.72622e-11
4.5215e-11
9.37591e-06
1.02883e-06
3.65694e-07
3.63404e-07
3.39006e-07
1.66504e-07
0.43262
0.976212
0.987254
2.36557e-17
4.66871e-16
9.71676e-15
9.51104e-14
4.88469e-13
1.30818e-12
2.09913e-12
2.40834e-12
1.52239e-10
4.52338e-09
3.58054e-09
5.22353e-09
7.27418e-09
6.68334e-09
3.00232e-09
2.31113e-09
2.31009e-09
2.2874e-09
2.2874e-09
2.34869e-09
2.87278e-09
3.43885e-09
1.96293e-09
6.76554e-10
6.75083e-10
6.89367e-10
6.19272e-10
1.82277e-10
2.24452e-10
5.25812e-11
4.13455e-10
9.30179e-06
6.5184e-07
3.68407e-07
3.64569e-07
3.63589e-07
5.14492e-07
0.298002
0.958846
0.987392
3.22209e-17
5.37084e-16
1.30656e-14
1.48594e-13
8.26427e-13
2.16272e-12
3.21042e-12
3.46164e-12
8.02149e-11
3.56436e-09
3.67072e-09
4.89925e-09
4.24405e-09
3.74827e-09
2.7885e-09
2.32994e-09
2.32418e-09
2.32758e-09
2.3131e-09
2.2589e-09
2.15003e-09
1.72698e-09
6.90325e-10
6.73203e-10
6.65133e-10
6.70986e-10
6.62548e-10
3.34008e-10
2.65301e-10
1.17355e-10
6.61106e-11
5.98214e-06
6.82313e-07
9.43932e-07
4.59476e-07
5.72784e-07
7.23562e-07
0.190949
0.933112
0.987392
4.24593e-17
5.9359e-16
1.68291e-14
2.24444e-13
1.39348e-12
3.69337e-12
5.21869e-12
5.93124e-12
3.44963e-11
2.77564e-09
5.57788e-08
6.20585e-08
7.47934e-09
2.69038e-09
2.38956e-09
2.34535e-09
2.33983e-09
2.35121e-09
2.33169e-09
2.24075e-09
2.18052e-09
2.06171e-09
3.39293e-08
1.75564e-08
6.2918e-10
6.28352e-10
5.95009e-10
4.01767e-10
2.93633e-10
2.73497e-10
3.14954e-11
-5.77117e-10
3.68993e-05
1.01978e-05
1.26338e-06
7.87985e-07
8.29969e-07
0.115963
0.894598
0.987359
5.42929e-17
6.29199e-16
2.0759e-14
3.26098e-13
2.31658e-12
6.46621e-12
8.81247e-12
9.37965e-12
2.34881e-11
2.81674e-09
4.40726e-07
6.99831e-07
4.99141e-08
3.36516e-09
2.35411e-09
2.35718e-09
2.3482e-09
2.35174e-09
2.37022e-09
2.23618e-09
2.17061e-09
2.16803e-09
1.16372e-07
8.30652e-07
2.30769e-07
1.92663e-09
4.06937e-10
3.79269e-10
3.04964e-10
5.56364e-10
1.92997e-11
3.56218e-11
0.000292458
8.55092e-05
2.75742e-06
1.02866e-06
1.02547e-06
0.06704
0.83728
0.987238
6.75528e-17
6.37783e-16
2.45252e-14
4.54554e-13
3.75695e-12
1.13579e-11
1.52245e-11
1.44099e-11
2.04611e-11
3.18072e-09
6.62411e-07
8.55362e-07
2.61756e-07
1.03381e-08
2.34746e-09
2.34625e-09
2.34621e-09
2.34618e-09
2.56199e-09
2.28489e-09
2.16803e-09
2.16781e-09
1.18022e-07
9.78915e-07
9.62142e-07
1.01405e-08
4.46345e-10
3.2132e-10
3.05157e-10
9.86795e-10
1.38491e-11
2.12721e-11
0.000357226
0.000304348
8.58471e-06
1.21041e-06
1.31757e-06
0.0427341
0.773052
0.987
8.19465e-17
6.30528e-16
2.76989e-14
6.07304e-13
5.89415e-12
1.96092e-11
2.6652e-11
2.34085e-11
2.56403e-11
1.15325e-09
4.74951e-07
8.55362e-07
7.2605e-07
5.02729e-08
2.37648e-09
2.34624e-09