/*--------------------------------*- C++ -*----------------------------------*\
  =========                 |
  \\      /  F ield         | OpenFOAM: The Open Source CFD Toolbox
   \\    /   O peration     | Website:  https://openfoam.org
    \\  /    A nd           | Version:  8
     \\/     M anipulation  |
\*---------------------------------------------------------------------------*/
FoamFile
{
    version     2.0;
    format      ascii;
    class       surfaceScalarField;
    location    "0.35";
    object      alphaPhi0.water;
}
// * * * * * * * * * * * * * * * * * * * * * * * * * * * * * * * * * * * * * //

dimensions      [0 3 -1 0 0 0 0];

internalField   nonuniform List<scalar> 
18095
(
1.58169e-07
-9.64925e-07
8.06755e-07
1.65454e-07
-1.24782e-06
1.24053e-06
1.22533e-07
-1.24194e-06
1.28486e-06
6.56669e-08
-1.26396e-06
1.32083e-06
-1.65367e-14
-1.28136e-06
1.34702e-06
-6.56669e-08
-1.28136e-06
1.34702e-06
-1.22533e-07
-1.26396e-06
1.32083e-06
-1.65454e-07
-1.24194e-06
1.28486e-06
-1.58169e-07
-1.24782e-06
1.24053e-06
-9.64925e-07
8.06755e-07
1.10995e-07
-1.07592e-06
9.97131e-08
-1.23654e-06
7.3263e-08
-1.21549e-06
4.03586e-08
-1.23105e-06
-3.18587e-14
-1.241e-06
-4.03586e-08
-1.241e-06
-7.3263e-08
-1.23105e-06
-9.97131e-08
-1.21549e-06
-1.10995e-07
-1.23654e-06
-1.07592e-06
6.73186e-08
-1.14324e-06
5.30767e-08
-1.2223e-06
4.25373e-08
-1.20495e-06
2.41233e-08
-1.21264e-06
-2.97613e-14
-1.21687e-06
-2.41233e-08
-1.21687e-06
-4.25373e-08
-1.21264e-06
-5.30767e-08
-1.20495e-06
-6.73186e-08
-1.2223e-06
-1.14324e-06
3.98867e-08
-1.18313e-06
2.68842e-08
-1.20929e-06
2.23461e-08
-1.20041e-06
1.27127e-08
-1.20301e-06
-9.3834e-15
-1.20416e-06
-1.27128e-08
-1.20416e-06
-2.23461e-08
-1.20301e-06
-2.68843e-08
-1.20041e-06
-3.98867e-08
-1.20929e-06
-1.18313e-06
1.6875e-08
7.58178e-09
7.16938e-09
4.16188e-09
4.22707e-14
-4.1618e-09
-7.16931e-09
-7.58174e-09
-1.6875e-08
-1.75344e-07
-1.16422e-06
1.33956e-06
-2.1984e-07
-1.21646e-06
1.26096e-06
-1.66354e-07
-1.21255e-06
1.15906e-06
-8.81009e-08
-1.20381e-06
1.12555e-06
-1.24095e-13
-1.20297e-06
1.11487e-06
8.81006e-08
-1.20297e-06
1.11487e-06
1.66354e-07
-1.20381e-06
1.12555e-06
2.1984e-07
-1.21255e-06
1.15906e-06
1.75344e-07
-1.21646e-06
1.26096e-06
-1.16422e-06
1.33956e-06
-9.33148e-08
-1.0709e-06
-9.64062e-08
-1.21337e-06
-8.02371e-08
-1.22872e-06
-4.48668e-08
-1.23918e-06
-7.51173e-14
-1.24783e-06
4.48666e-08
-1.24783e-06
8.02369e-08
-1.23918e-06
9.64061e-08
-1.22872e-06
9.33147e-08
-1.21337e-06
-1.0709e-06
-5.8128e-08
-1.01277e-06
-5.56501e-08
-1.21585e-06
-4.71259e-08
-1.23724e-06
-2.74906e-08
-1.25881e-06
-4.09408e-14
-1.27532e-06
2.74905e-08
-1.27532e-06
4.71258e-08
-1.25881e-06
5.56501e-08
-1.23724e-06
5.81279e-08
-1.21585e-06
-1.01277e-06
-7.48518e-08
-9.37923e-07
-6.21576e-08
-1.22854e-06
-4.87851e-08
-1.25061e-06
-2.78257e-08
-1.27977e-06
-1.12691e-14
-1.30315e-06
2.78257e-08
-1.30315e-06
4.87851e-08
-1.27977e-06
6.21576e-08
-1.25061e-06
7.48518e-08
-1.22854e-06
-9.37923e-07
-1.31167e-07
-1.19176e-07
-8.49279e-08
-4.38729e-08
-3.14662e-15
4.38729e-08
8.4928e-08
1.19176e-07
1.31167e-07
-7.48312e-08
-9.50132e-07
1.02496e-06
-1.11907e-08
-1.33953e-06
1.27589e-06
5.78246e-09
-1.26981e-06
1.25283e-06
2.01962e-09
-1.22149e-06
1.22525e-06
-2.797e-13
-1.21905e-06
1.22107e-06
-2.02006e-09
-1.21905e-06
1.22107e-06
-5.78162e-09
-1.22149e-06
1.22525e-06
1.11866e-08
-1.26981e-06
1.25284e-06
7.48197e-08
-1.33953e-06
1.2759e-06
-9.50124e-07
1.02494e-06
2.34767e-09
-9.5248e-07
1.13182e-08
-1.3485e-06
8.77007e-09
-1.26726e-06
4.55802e-09
-1.21727e-06
-3.58741e-13
-1.21449e-06
-4.55889e-09
-1.21449e-06
-8.77097e-09
-1.21727e-06
-1.13204e-08
-1.26726e-06
-2.35401e-09
-1.3485e-06
-9.52478e-07
2.49134e-08
-9.77393e-07
1.61692e-08
-1.33975e-06
8.37843e-09
-1.25947e-06
5.28016e-09
-1.21418e-06
-3.96906e-13
-1.20921e-06
-5.28098e-09
-1.20921e-06
-8.37937e-09
-1.21418e-06
-1.61703e-08
-1.25947e-06
-2.49146e-08
-1.33975e-06
-9.77393e-07
7.74681e-08
-1.05486e-06
5.06528e-08
-1.31294e-06
3.19827e-08
-1.2408e-06
2.00459e-08
-1.20224e-06
-2.76081e-13
-1.18916e-06
-2.00465e-08
-1.18916e-06
-3.19832e-08
-1.20224e-06
-5.06532e-08
-1.2408e-06
-7.74683e-08
-1.31294e-06
-1.05486e-06
2.847e-07
2.3272e-07
1.50984e-07
7.42967e-08
-1.90268e-13
-7.42971e-08
-1.50984e-07
-2.3272e-07
-2.847e-07
-5.83977e-07
-1.3994e-07
7.21997e-07
-4.41637e-07
-1.44318e-07
-2.96138e-07
-1.47489e-07
-1.48687e-07
-1.49476e-07
-5.83645e-10
-1.50107e-07
1.47529e-07
-1.50116e-07
2.95011e-07
-1.49505e-07
4.40578e-07
-1.47543e-07
5.83045e-07
-1.44419e-07
-1.39991e-07
7.21092e-07
-5.13434e-07
-2.60416e-07
6.3391e-07
-3.88914e-07
-2.68838e-07
-2.61324e-07
-2.75079e-07
-1.31593e-07
-2.79206e-07
-4.59444e-10
-2.81241e-07
1.30683e-07
-2.81259e-07
2.60438e-07
-2.79259e-07
3.88065e-07
-2.7517e-07
5.12612e-07
-2.68965e-07
-2.60574e-07
6.33195e-07
-4.57842e-07
-3.6833e-07
5.65756e-07
-3.46488e-07
-3.80192e-07
-2.32558e-07
-3.8901e-07
-1.16912e-07
-3.94852e-07
-3.78063e-10
-3.97775e-07
1.1616e-07
-3.97797e-07
2.3182e-07
-3.9492e-07
3.45773e-07
-3.89123e-07
4.5716e-07
-3.80352e-07
-3.6854e-07
5.65126e-07
-4.1792e-07
-4.67098e-07
5.16688e-07
-3.16087e-07
-4.82026e-07
-2.12031e-07
-4.93065e-07
-1.0653e-07
-5.00354e-07
-3.16555e-10
-5.03988e-07
1.059e-07
-5.04014e-07
2.11411e-07
-5.00431e-07
3.15483e-07
-4.93195e-07
4.17342e-07
-4.82211e-07
-4.67343e-07
5.16145e-07
-3.84531e-07
-5.58233e-07
4.75666e-07
-2.90675e-07
-5.75881e-07
-1.94892e-07
-5.88848e-07
-9.7874e-08
-5.97372e-07
-2.53689e-10
-6.01609e-07
9.73685e-08
-6.01636e-07
1.94392e-07
-5.97455e-07
2.90187e-07
-5.8899e-07
3.8406e-07
-5.76085e-07
-5.58505e-07
4.75222e-07
-3.52324e-07
-6.41827e-07
4.35918e-07
-2.66248e-07
-6.61957e-07
-1.78454e-07
-6.76642e-07
-8.95776e-08
-6.86248e-07
-1.76578e-10
-6.9101e-07
8.92257e-08
-6.91038e-07
1.78107e-07
-6.86335e-07
2.65908e-07
-6.76791e-07
3.51999e-07
-6.62175e-07
-6.42122e-07
4.35616e-07
-3.18607e-07
-7.17005e-07
3.93784e-07
-2.40917e-07
-7.39647e-07
-1.61521e-07
-7.56038e-07
-8.10586e-08
-7.66711e-07
-8.16538e-11
-7.71986e-07
8.08969e-08
-7.72017e-07
1.61365e-07
-7.66803e-07
2.4077e-07
-7.56197e-07
3.18476e-07
-7.39881e-07
-7.17328e-07
3.93682e-07
-2.86491e-07
-7.8433e-07
3.53816e-07
-2.16758e-07
-8.09379e-07
-1.45372e-07
-8.27424e-07
-7.29322e-08
-8.39151e-07
2.09817e-11
-8.44939e-07
7.29761e-08
-8.44971e-07
1.45422e-07
-8.39249e-07
2.16819e-07
-8.27594e-07
2.86569e-07
-8.09631e-07
-7.84682e-07
3.53923e-07
-2.63586e-07
-8.47322e-07
3.26577e-07
-1.98943e-07
-8.74022e-07
-1.33204e-07
-8.93162e-07
-6.67321e-08
-9.05623e-07
1.13639e-10
-9.11785e-07
6.69605e-08
-9.11818e-07
1.33435e-07
-9.05724e-07
1.99178e-07
-8.93337e-07
2.63827e-07
-8.74279e-07
-8.47685e-07
3.26829e-07
-2.53546e-07
-9.10029e-07
3.16252e-07
-1.90288e-07
-9.3728e-07
-1.26914e-07
-9.56537e-07
-6.34113e-08
-9.69125e-07
1.8172e-10
-9.75378e-07
6.37733e-08
-9.75409e-07
1.27271e-07
-9.69221e-07
1.90635e-07
-9.56701e-07
2.53876e-07
-9.37521e-07
-9.10394e-07
3.16583e-07
-2.54254e-07
-9.7333e-07
3.17556e-07
-1.89859e-07
-1.00168e-06
-1.26126e-07
-1.02027e-06
-6.28437e-08
-1.03241e-06
2.2266e-10
-1.03844e-06
6.32858e-08
-1.03847e-06
1.26557e-07
-1.03249e-06
1.90268e-07
-1.02041e-06
2.54623e-07
-1.00188e-06
-9.73714e-07
3.17943e-07
-2.6099e-07
-1.03243e-06
3.20036e-07
-1.94084e-07
-1.06858e-06
-1.28534e-07
-1.08582e-06
-6.39224e-08
-1.09702e-06
2.33696e-10
-1.1026e-06
6.43866e-08
-1.10262e-06
1.28988e-07
-1.09709e-06
1.94522e-07
-1.08594e-06
2.61398e-07
-1.06875e-06
-1.03319e-06
3.2082e-07
-2.65802e-07
-1.07077e-06
3.04189e-07
-1.97735e-07
-1.13665e-06
-1.3097e-07
-1.15258e-06
-6.51425e-08
-1.16284e-06
2.12682e-10
-1.16795e-06
6.55618e-08
-1.16797e-06
1.31373e-07
-1.1629e-06
1.98113e-07
-1.15268e-06
2.66169e-07
-1.13681e-06
-1.07266e-06
3.05694e-07
-2.67648e-07
-1.05841e-06
2.55304e-07
-2.00237e-07
-1.20407e-06
-1.32761e-07
-1.22006e-06
-6.60578e-08
-1.22955e-06
2.08454e-10
-1.23422e-06
6.64686e-08
-1.23423e-06
1.33153e-07
-1.22959e-06
2.00601e-07
-1.22013e-06
2.68038e-07
-1.20425e-06
-1.06212e-06
2.57515e-07
-2.62894e-07
-9.32489e-07
1.60266e-07
-1.99362e-07
-1.26761e-06
-1.32184e-07
-1.28724e-06
-6.5765e-08
-1.29597e-06
2.21016e-10
-1.30021e-06
6.62057e-08
-1.30022e-06
1.32621e-07
-1.296e-06
1.99785e-07
-1.2873e-06
2.63505e-07
-1.26799e-06
-9.4255e-07
1.65717e-07
-2.4923e-07
-7.14002e-07
4.84621e-08
-1.94709e-07
-1.32213e-06
-1.2901e-07
-1.35294e-06
-6.42082e-08
-1.36077e-06
2.06901e-10
-1.36462e-06
6.46217e-08
-1.36463e-06
1.29423e-07
-1.3608e-06
1.95116e-07
-1.35299e-06
2.50228e-07
-1.32309e-06
-7.26477e-07
5.13937e-08
-2.21316e-07
-4.92496e-07
1.624e-08
-1.88678e-07
-1.35477e-06
-1.25146e-07
-1.41647e-06
-6.23243e-08
-1.42359e-06
1.92018e-10
-1.42713e-06
6.2707e-08
-1.42715e-06
1.25528e-07
-1.42362e-06
1.8907e-07
-1.41653e-06
2.23003e-07
-1.35703e-06
-5.04604e-07
1.70617e-08
-1.74996e-07
-3.15629e-07
9.86731e-09
-1.81392e-07
-1.34844e-06
-1.20582e-07
-1.47728e-06
-6.0071e-08
-1.4841e-06
2.18481e-10
-1.48742e-06
6.05035e-08
-1.48742e-06
1.21004e-07
-1.48412e-06
1.81818e-07
-1.47735e-06
1.7743e-07
-1.3527e-06
-3.25764e-07
1.00904e-08
-1.20155e-07
-1.92988e-07
6.31297e-09
-1.72595e-07
-1.28017e-06
-1.14565e-07
-1.53531e-06
-5.70188e-08
-1.54165e-06
2.66976e-10
-1.5447e-06
5.75504e-08
-1.54471e-06
1.15083e-07
-1.54166e-06
1.73067e-07
-1.53533e-06
1.23754e-07
-1.28859e-06
-1.99807e-07
6.48081e-09
-7.93759e-08
-1.12465e-07
3.98123e-09
-1.6257e-07
-1.18877e-06
-1.0779e-07
-1.59009e-06
-5.359e-08
-1.59585e-06
2.75332e-10
-1.59857e-06
5.41357e-08
-1.59857e-06
1.0832e-07
-1.59584e-06
1.63104e-07
-1.59011e-06
8.14047e-08
-1.19885e-06
-1.17363e-07
4.0924e-09
-4.97828e-08
-6.17019e-08
2.40305e-09
-1.51235e-07
-1.07711e-06
-1.00456e-07
-1.64087e-06
-4.99193e-08
-1.64638e-06
2.74039e-10
-1.64876e-06
5.04644e-08
-1.64876e-06
1.00992e-07
-1.64637e-06
1.51824e-07
-1.64095e-06
5.16459e-08
-1.08873e-06
-6.48105e-08
2.48769e-09
-2.68144e-08
-3.42934e-08
1.34326e-09
-1.38724e-07
-9.54623e-07
-9.26349e-08
-1.68696e-06
-4.60201e-08
-1.693e-06
2.67979e-10
-1.69505e-06
4.65547e-08
-1.69505e-06
9.31651e-08
-1.69298e-06
1.39421e-07
-1.6872e-06
2.82652e-08
-9.67193e-07
-3.59876e-08
1.40037e-09
-1.14931e-08
-2.30861e-08
8.10979e-10
-1.24601e-07
-8.31089e-07
-8.44911e-08
-1.72707e-06
-4.19684e-08
-1.73552e-06
2.58995e-10
-1.73729e-06
4.24866e-08
-1.73728e-06
8.50102e-08
-1.7355e-06
1.25549e-07
-1.72774e-06
1.25057e-08
-8.44023e-07
-2.37786e-08
8.36405e-10
-6.36658e-09
-1.68536e-08
4.95237e-10
-1.07973e-07
-7.19723e-07
-7.61169e-08
-1.75892e-06
-3.78074e-08
-1.77383e-06
2.61219e-10
-1.77535e-06
3.83319e-08
-1.77535e-06
7.66491e-08
-1.77382e-06
1.09415e-07
-1.76051e-06
6.6938e-09
-7.3217e-07
-1.72296e-08
5.12307e-10
-4.20507e-09
-1.29374e-08
3.11392e-10
-8.77663e-08
-6.27765e-07
-6.76567e-08
-1.77905e-06
-3.36021e-08
-1.80788e-06
2.78451e-10
-1.80922e-06
3.41605e-08
-1.80922e-06
6.82236e-08
-1.80788e-06
9.01279e-08
-1.78242e-06
4.29534e-09
-6.38552e-07
-1.32305e-08
3.19273e-10
-3.16568e-09
-9.96505e-09
2.09896e-10
-6.67651e-08
-5.57429e-07
-5.93184e-08
-1.78236e-06
-2.9441e-08
-1.83776e-06
3.10662e-10
-1.83897e-06
3.0062e-08
-1.83897e-06
5.99367e-08
-1.83776e-06
6.7911e-08
-1.78815e-06
3.21973e-09
-5.67358e-07
-1.02091e-08
2.14807e-10
-2.50027e-09
-7.59719e-09
1.44188e-10
-5.35197e-08
-5.0049e-07
-5.12178e-08
-1.78211e-06
-2.53615e-08
-1.86362e-06
3.35703e-10
-1.86467e-06
2.60318e-08
-1.86467e-06
5.18829e-08
-1.86361e-06
5.44817e-08
-1.78642e-06
2.54333e-09
-5.09631e-07
-7.8017e-09
1.47724e-10
-1.97844e-09
-5.70804e-09
9.7368e-11
-4.35583e-08
-4.53704e-07
-4.33731e-08
-1.78007e-06
-2.14472e-08
-1.88554e-06
3.49887e-10
-1.88647e-06
2.21472e-08
-1.88646e-06
4.40752e-08
-1.88554e-06
4.43576e-08
-1.78476e-06
2.01532e-09
-4.62298e-07
-5.87835e-09
1.00074e-10
-1.5627e-09
-4.20417e-09
6.41065e-11
-3.46836e-08
-4.15959e-07
-3.58742e-08
-1.77649e-06
-1.77046e-08
-1.90371e-06
3.62422e-10
-1.90453e-06
1.84303e-08
-1.90453e-06
3.66034e-08
-1.90371e-06
3.54479e-08
-1.78137e-06
1.59428e-09
-4.24025e-07
-4.34486e-09
6.6132e-11
-1.24072e-09
-3.00098e-09
4.09e-11
-2.69845e-08
-3.86165e-07
-2.88068e-08
-1.77243e-06
-1.4176e-08
-1.91834e-06
3.73146e-10
-1.91909e-06
1.49233e-08
-1.91909e-06
2.95582e-08
-1.91834e-06
2.76828e-08
-1.77741e-06
1.26706e-09
-3.93742e-07
-3.11679e-09
4.23792e-11
-9.90855e-10
-2.03342e-09
2.48698e-11
-2.02995e-08
-3.63274e-07
-2.22112e-08
-1.76842e-06
-1.08855e-08
-1.92967e-06
3.824e-10
-1.93035e-06
1.16512e-08
-1.93035e-06
2.29824e-08
-1.92967e-06
2.09411e-08
-1.77344e-06
1.01292e-09
-3.704e-07
-2.12801e-09
2.5931e-11
-7.97636e-10
-1.24896e-09
1.39329e-11
-1.4488e-08
-3.46532e-07
-1.61089e-08
-1.76487e-06
-7.84846e-09
-1.93793e-06
3.90713e-10
-1.93859e-06
8.63084e-09
-1.93859e-06
1.69006e-08
-1.93794e-06
1.50796e-08
-1.7699e-06
8.15582e-10
-3.53239e-07
-1.32633e-09
1.46843e-11
-6.39546e-10
-6.15578e-10
6.58654e-12
-9.43167e-09
-3.34902e-07
-1.05093e-08
-1.762e-06
-5.07743e-09
-1.94336e-06
3.97782e-10
-1.94407e-06
5.87377e-09
-1.94407e-06
1.1321e-08
-1.94339e-06
9.97943e-09
-1.76698e-06
6.56069e-10
-3.41303e-07
-6.76954e-10
7.10008e-12
-4.65693e-10
-1.51795e-10
2.07114e-12
-5.02548e-09
-3.28199e-07
-5.37649e-09
-1.76017e-06
-2.57971e-09
-1.94615e-06
4.0308e-10
-1.94705e-06
3.38661e-09
-1.94705e-06
6.22576e-09
-1.94623e-06
5.53548e-09
-1.765e-06
4.86681e-10
-3.34302e-07
-1.92486e-10
2.36855e-12
-1.51948e-10
1.81934e-18
1.50334e-13
-1.18533e-09
-3.249e-07
-1.11508e-09
-1.75889e-06
-3.57777e-10
-1.94689e-06
4.06272e-10
-1.94781e-06
1.17023e-09
-1.94782e-06
1.89301e-09
-1.94694e-06
1.66255e-09
-1.76349e-06
1.92712e-10
-3.30774e-07
1.30872e-18
2.25945e-13
-4.39488e-21
-5.70414e-21
4.55118e-24
2.09485e-09
-3.24926e-07
2.73844e-09
-1.75846e-06
1.59495e-09
-1.94576e-06
4.08915e-10
-1.94663e-06
-7.77074e-10
-1.94663e-06
-1.92173e-09
-1.9458e-06
-1.65936e-09
-1.7627e-06
2.61374e-21
-3.30522e-07
-5.90059e-21
1.37178e-24
7.74542e-21
-1.3448e-20
-1.59358e-24
4.92859e-09
-3.28913e-07
6.12787e-09
-1.75926e-06
3.28486e-09
-1.94293e-06
4.05336e-10
-1.94375e-06
-2.47439e-09
-1.94375e-06
-5.31837e-09
-1.94296e-06
-4.51525e-09
-1.76338e-06
-8.01011e-21
-3.34202e-07
-1.39084e-20
-2.33632e-24
1.83201e-20
-3.17666e-20
-1.94111e-24
7.42468e-09
-3.35306e-07
9.03183e-09
-1.76032e-06
4.73105e-09
-1.93863e-06
3.98546e-10
-1.93942e-06
-3.93412e-09
-1.93942e-06
-8.23601e-09
-1.93866e-06
-7.03316e-09
-1.76421e-06
-1.89411e-20
-3.40453e-07
-3.28473e-20
-2.91638e-24
4.3441e-20
-7.52059e-20
-3.13766e-24
9.61605e-09
-3.44388e-07
1.14885e-08
-1.76204e-06
5.95315e-09
-1.9331e-06
3.91062e-10
-1.93385e-06
-5.17132e-09
-1.93386e-06
-1.07077e-08
-1.93313e-06
-9.24014e-09
-1.76565e-06
-4.49035e-20
-3.49356e-07
-7.77482e-20
-4.56711e-24
1.0328e-19
-1.78483e-19
-5.31261e-24
1.15651e-08
-3.55867e-07
1.3545e-08
-1.76409e-06
6.97552e-09
-1.92653e-06
3.83744e-10
-1.92726e-06
-6.20844e-09
-1.92726e-06
-1.27786e-08
-1.92656e-06
-1.11993e-08
-1.76744e-06
-1.06736e-19
-3.60681e-07
-1.8448e-19
-7.4934e-24
2.4622e-19
-4.24699e-19
-7.43122e-24
1.33048e-08
-3.69539e-07
1.52498e-08
-1.76634e-06
7.82278e-09
-1.9191e-06
3.76402e-10
-1.91982e-06
-7.07048e-09
-1.91982e-06
-1.4498e-08
-1.91913e-06
-1.29455e-08
-1.76942e-06
-2.54411e-19
-3.74212e-07
-4.38886e-19
-1.03132e-23
5.88677e-19
-1.01337e-18
-1.04542e-23
1.487e-08
-3.85211e-07
1.66419e-08
-1.76858e-06
8.51651e-09
-1.91098e-06
3.68918e-10
-1.91167e-06
-7.77956e-09
-1.91167e-06
-1.59068e-08
-1.91101e-06
-1.4514e-08
-1.77141e-06
-6.08154e-19
-3.89755e-07
-1.04703e-18
-1.45375e-23
1.41163e-18
-2.42499e-18
-1.39539e-23
1.62895e-08
-4.02682e-07
1.77681e-08
-1.77066e-06
9.08056e-09
-1.90229e-06
3.61191e-10
-1.90295e-06
-8.35923e-09
-1.90295e-06
-1.705e-08
-1.90232e-06
-1.59347e-08
-1.77323e-06
-1.45809e-18
-4.07103e-07
-2.50511e-18
-1.91314e-23
3.39541e-18
-5.8204e-18
-1.77669e-23
1.75876e-08
-4.21733e-07
1.86873e-08
-1.77242e-06
9.53723e-09
-1.89314e-06
3.53134e-10
-1.89377e-06
-8.8309e-09
-1.89376e-06
-1.79827e-08
-1.89317e-06
-1.72324e-08
-1.77475e-06
-3.50659e-18
-4.26037e-07
-6.01169e-18
-2.42868e-23
8.19271e-18
-1.40131e-17
-2.2042e-23
1.87842e-08
-4.42135e-07
1.94262e-08
-1.77372e-06
9.90423e-09
-1.88362e-06
3.44705e-10
-1.88421e-06
-9.21474e-09
-1.8842e-06
-1.87399e-08
-1.88364e-06
-1.84277e-08
-1.77582e-06
-8.45965e-18
-4.46324e-07
-1.44713e-17
-2.97748e-23
1.98316e-17
-3.38447e-17
-2.64834e-23
1.98958e-08
-4.63662e-07
2.00214e-08
-1.77446e-06
1.01988e-08
-1.8738e-06
3.36031e-10
-1.87434e-06
-9.52661e-09
-1.87434e-06
-1.93522e-08
-1.87382e-06
-1.95375e-08
-1.77635e-06
-2.04746e-17
-4.67738e-07
-3.4946e-17
-3.52332e-23
4.81627e-17
-8.20074e-17
-3.07574e-23
2.09364e-08
-4.86112e-07
2.05043e-08
-1.77456e-06
1.04353e-08
-1.86373e-06
3.27135e-10
-1.86423e-06
-9.78094e-09
-1.86423e-06
-1.9852e-08
-1.86374e-06
-2.0576e-08
-1.77625e-06
-4.97171e-17
-4.90076e-07
-8.46631e-17
-4.04574e-23
1.17358e-16
-1.99366e-16
-3.45738e-23
2.19178e-08
-5.09334e-07
2.08954e-08
-1.77397e-06
1.06259e-08
-1.85346e-06
3.18035e-10
-1.85393e-06
-9.9898e-09
-1.85393e-06
-2.02617e-08
-1.85347e-06
-2.15556e-08
-1.77547e-06
-1.21129e-16
-5.13187e-07
-2.05792e-16
-4.50426e-23
2.86942e-16
-4.86307e-16
-3.75401e-23
2.28509e-08
-5.33244e-07
2.12152e-08
-1.77268e-06
1.07807e-08
-1.84302e-06
3.08784e-10
-1.84346e-06
-1.01631e-08
-1.84345e-06
-2.05998e-08
-1.84304e-06
-2.24873e-08
-1.77401e-06
-2.9612e-16
-5.36986e-07
-5.01912e-16
-4.86264e-23
7.04001e-16
-1.19031e-15
-3.93291e-23
2.3746e-08
-5.57827e-07
2.14809e-08
-1.77068e-06
1.09077e-08
-1.83245e-06
2.99444e-10
-1.83285e-06
-1.03089e-08
-1.83285e-06
-2.08838e-08
-1.83246e-06
-2.33813e-08
-1.77185e-06
-7.26423e-16
-5.61462e-07
-1.22833e-15
-5.09901e-23
1.73332e-15
-2.92362e-15
-3.93859e-23
2.46124e-08
-5.83129e-07
2.17045e-08
-1.76798e-06
1.10137e-08
-1.82176e-06
2.90095e-10
-1.82212e-06
-1.04336e-08
-1.82212e-06
-2.11261e-08
-1.82177e-06
-2.4247e-08
-1.76901e-06
-1.78829e-15
-5.86658e-07
-3.01662e-15
-5.16808e-23
4.28282e-15
-7.20644e-15
-3.72543e-23
2.54584e-08
-6.09226e-07
2.18963e-08
-1.7646e-06
1.11039e-08
-1.81097e-06
2.80827e-10
-1.8113e-06
-1.05423e-08
-1.8113e-06
-2.13362e-08
-1.81097e-06
-2.50928e-08
-1.7655e-06
-4.41811e-15
-6.12652e-07
-7.43473e-15
-5.05602e-23
1.06207e-14
-1.78271e-14
-3.25519e-23
2.62907e-08
-6.36193e-07
2.20648e-08
-1.76054e-06
1.11823e-08
-1.80008e-06
2.71724e-10
-1.80039e-06
-1.06389e-08
-1.80039e-06
-2.15226e-08
-1.80009e-06
-2.59251e-08
-1.76131e-06
-1.09549e-14
-6.39521e-07
-1.83896e-14
-4.7432e-23
2.64344e-14
-4.42616e-14
-2.3668e-23
2.71136e-08
-6.64082e-07
2.22159e-08
-1.75579e-06
1.12522e-08
-1.78912e-06
2.62872e-10
-1.7894e-06
-1.07265e-08
-1.7894e-06
-2.16913e-08
-1.78913e-06
-2.67483e-08
-1.75645e-06
-2.72631e-14
-6.67313e-07
-4.56527e-14
-4.17559e-23
6.60395e-14
-1.10301e-13
-3.057e-23
2.79295e-08
-6.92895e-07
2.23543e-08
-1.75036e-06
1.13159e-08
-1.77808e-06
2.54322e-10
-1.77834e-06
-1.08073e-08
-1.77834e-06
-2.18467e-08
-1.77809e-06
-2.75646e-08
-1.75092e-06
-6.8102e-14
-6.96034e-07
-1.13755e-13
-3.24287e-23
1.65606e-13
-2.75907e-13
-3.05966e-23
2.87383e-08
-7.22594e-07
2.24837e-08
-1.74423e-06
1.13753e-08
-1.76697e-06
2.46103e-10
-1.76721e-06
-1.08831e-08
-1.76721e-06
-2.19924e-08
-1.76698e-06
-2.8374e-08
-1.7447e-06
-1.7076e-13
-7.25642e-07
-2.84514e-13
-3.37703e-23
4.16875e-13
-6.92782e-13
-2.9945e-23
2.95385e-08
-7.53105e-07
2.26066e-08
-1.7374e-06
1.14316e-08
-1.7558e-06
2.38211e-10
-1.75602e-06
-1.09552e-08
-1.75602e-06
-2.2131e-08
-1.7558e-06
-2.9175e-08
-1.73779e-06
-4.29803e-13
-7.56064e-07
-7.14318e-13
-3.90245e-23
1.05344e-12
-1.74623e-12
-2.91081e-23
3.03274e-08
-7.84345e-07
2.27249e-08
-1.72988e-06
1.14858e-08
-1.74456e-06
2.30589e-10
-1.74476e-06
-1.10247e-08
-1.74476e-06
-2.22644e-08
-1.74456e-06
-2.9965e-08
-1.7302e-06
-1.086e-12
-7.87214e-07
-1.80032e-12
-4.61354e-23
2.67238e-12
-4.4186e-12
-1.29984e-23
3.11019e-08
-8.16238e-07
2.28398e-08
-1.72167e-06
1.15385e-08
-1.73326e-06
2.23168e-10
-1.73345e-06
-1.10922e-08
-1.73345e-06
-2.23942e-08
-1.73326e-06
-3.07409e-08
-1.72193e-06
-2.75469e-12
-8.19019e-07
-4.55501e-12
-2.60712e-23
6.80527e-12
-1.12239e-11
-1.22917e-23
3.18586e-08
-8.48739e-07
2.29524e-08
-1.71281e-06
1.15901e-08
-1.7219e-06
2.15867e-10
-1.72207e-06
-1.11584e-08
-1.72207e-06
-2.25213e-08
-1.7219e-06
-3.14996e-08
-1.713e-06
-7.01414e-12
-8.51429e-07
-1.15691e-11
-3.18687e-23
1.73927e-11
-2.86166e-11
-1.22783e-23
3.2594e-08
-8.81827e-07
2.30631e-08
-1.7033e-06
1.16408e-08
-1.71047e-06
2.08579e-10
-1.71064e-06
-1.12237e-08
-1.71064e-06
-2.26466e-08
-1.71047e-06
-3.22379e-08
-1.70344e-06
-1.79244e-11
-8.84426e-07
-2.94936e-11
-3.78595e-23
4.45875e-11
-7.32041e-11
-1.52228e-23
3.33045e-08
-9.15497e-07
2.31723e-08
-1.69318e-06
1.16909e-08
-1.69899e-06
2.01237e-10
-1.69915e-06
-1.12885e-08
-1.69915e-06
-2.27704e-08
-1.69899e-06
-3.2952e-08
-1.69328e-06
-4.59434e-11
-9.18002e-07
-7.5437e-11
-4.30189e-23
1.14474e-10
-1.87679e-10
-1.93243e-23
3.39849e-08
-9.49728e-07
2.32795e-08
-1.68247e-06
1.17399e-08
-1.68745e-06
1.93748e-10
-1.6876e-06
-1.13524e-08
-1.6876e-06
-2.28925e-08
-1.68745e-06
-3.36372e-08
-1.68254e-06
-1.17926e-10
-9.52136e-07
-1.93363e-10
-4.59328e-23
2.9318e-10
-4.80858e-10
-2.2864e-23
3.45793e-08
-9.84365e-07
2.33818e-08
-1.67128e-06
1.17864e-08
-1.67586e-06
1.86027e-10
-1.676e-06
-1.14144e-08
-1.676e-06
-2.30102e-08
-1.67586e-06
-3.42234e-08
-1.67134e-06
-3.01873e-10
-9.86653e-07
-4.95236e-10
-4.58611e-23
7.41726e-10
-1.22258e-09
-2.47574e-23
3.48306e-08
-1.01882e-06
2.34756e-08
-1.65992e-06
1.18275e-08
-1.66421e-06
1.77996e-10
-1.66435e-06
-1.14715e-08
-1.66435e-06
-2.31199e-08
-1.66421e-06
-3.44822e-08
-1.65997e-06
-7.62915e-10
-1.02097e-06
-1.25815e-09
-4.1608e-23
1.8124e-09
-3.03498e-09
-2.25531e-23
3.49892e-08
-1.05238e-06
2.3552e-08
-1.64849e-06
1.18581e-08
-1.65252e-06
1.69483e-10
-1.65267e-06
-1.1519e-08
-1.65266e-06
-2.32129e-08
-1.65251e-06
-3.46561e-08
-1.64853e-06
-1.85996e-09
-1.05437e-06
-3.1181e-09
-3.3766e-23
4.09091e-09
-7.12582e-09
-1.99777e-23
3.511e-08
-1.08377e-06
2.3602e-08
-1.63698e-06
1.18748e-08
-1.64079e-06
1.60164e-10
-1.64095e-06
-1.15541e-08
-1.64095e-06
-2.32806e-08
-1.64079e-06
-3.47937e-08
-1.63702e-06
-4.17998e-09
-1.08556e-06
-7.29795e-09
-2.69711e-23
9.08285e-09
-1.62079e-08
-1.42291e-23
3.52165e-08
-1.11023e-06
2.36497e-08
-1.62541e-06
1.18943e-08
-1.62903e-06
1.4978e-10
-1.62921e-06
-1.15944e-08
-1.62921e-06
-2.33488e-08
-1.62903e-06
-3.49189e-08
-1.62545e-06
-9.31857e-09
-1.11166e-06
-1.66152e-08
-1.79829e-23
1.18968e-08
-2.82602e-08
-2.57761e-23
3.53541e-08
-1.13393e-06
2.37509e-08
-1.61381e-06
1.19442e-08
-1.61723e-06
1.40237e-10
-1.6174e-06
-1.16635e-08
-1.6174e-06
-2.34694e-08
-1.61723e-06
-3.50741e-08
-1.61384e-06
-1.18767e-08
-1.13523e-06
-2.87475e-08
-3.12082e-23
1.30932e-08
-4.14196e-08
-2.47618e-23
3.54835e-08
-1.15652e-06
2.38534e-08
-1.60218e-06
1.1995e-08
-1.60537e-06
1.32513e-10
-1.60554e-06
-1.17297e-08
-1.60554e-06
-2.35871e-08
-1.60537e-06
-3.52188e-08
-1.60221e-06
-1.30499e-08
-1.15773e-06
-4.19104e-08
-2.84085e-23
1.40208e-08
-5.55046e-08
-2.42443e-23
3.55678e-08
-1.17822e-06
2.3906e-08
-1.59052e-06
1.20189e-08
-1.59348e-06
1.24379e-10
-1.59364e-06
-1.17698e-08
-1.59365e-06
-2.36559e-08
-1.59348e-06
-3.53197e-08
-1.59055e-06
-1.39803e-08
-1.17934e-06
-5.60109e-08
-2.61e-23
1.50777e-08
-7.06268e-08
-2.16105e-23
3.5672e-08
-1.19892e-06
2.3965e-08
-1.57881e-06
1.20437e-08
-1.58156e-06
1.15136e-10
-1.58172e-06
-1.18132e-08
-1.58172e-06
-2.37341e-08
-1.58156e-06
-3.54435e-08
-1.57884e-06
-1.50378e-08
-1.19996e-06
-7.11482e-08
-2.18877e-23
1.61895e-08
-8.6847e-08
-1.90315e-23
3.58179e-08
-1.21863e-06
2.4053e-08
-1.56705e-06
1.20826e-08
-1.56959e-06
1.06115e-10
-1.56974e-06
-1.18703e-08
-1.56974e-06
-2.38405e-08
-1.56959e-06
-3.56077e-08
-1.56707e-06
-1.61513e-08
-1.2196e-06
-8.73863e-08
-1.80677e-23
1.73705e-08
-1.04238e-07
-1.65195e-23
3.59778e-08
-1.23729e-06
2.4152e-08
-1.55522e-06
1.21275e-08
-1.55756e-06
9.75e-11
-1.55771e-06
-1.19324e-08
-1.55771e-06
-2.39569e-08
-1.55757e-06
-3.57849e-08
-1.55524e-06
-1.73342e-08
-1.2382e-06
-1.04797e-07
-1.48226e-23
1.86181e-08
-1.22869e-07
-1.3511e-23
3.61442e-08
-1.25485e-06
2.42557e-08
-1.54333e-06
1.2175e-08
-1.54548e-06
8.94203e-11
-1.54562e-06
-1.19961e-08
-1.54563e-06
-2.40767e-08
-1.54549e-06
-3.59672e-08
-1.54335e-06
-1.85838e-08
-1.2557e-06
-1.23451e-07
-1.17829e-23
1.99337e-08
-1.42805e-07
-1.0006e-23
3.63122e-08
-1.27124e-06
2.43605e-08
-1.53138e-06
1.22235e-08
-1.53335e-06
8.20315e-11
-1.53348e-06
-1.20595e-08
-1.53348e-06
-2.41964e-08
-1.53335e-06
-3.61497e-08
-1.5314e-06
-1.99014e-08
-1.27202e-06
-1.4341e-07
-8.67388e-24
2.13178e-08
-1.64105e-07
-6.54979e-24
3.648e-08
-1.28638e-06
2.44652e-08
-1.51937e-06
1.22724e-08
-1.52115e-06
7.55034e-11
-1.52129e-06
-1.21214e-08
-1.52129e-06
-2.43141e-08
-1.52116e-06
-3.63302e-08
-1.51938e-06
-2.12874e-08
-1.28711e-06
-1.64735e-07
-5.70388e-24
2.27713e-08
-1.86826e-07
-3.90877e-24
3.66469e-08
-1.30019e-06
2.45692e-08
-1.50729e-06
1.23215e-08
-1.50891e-06
6.99544e-11
-1.50903e-06
-1.21815e-08
-1.50904e-06
-2.44291e-08
-1.50891e-06
-3.65079e-08
-1.5073e-06
-2.27423e-08
-1.30086e-06
-1.87478e-07
-3.53373e-24
2.42945e-08
-2.11022e-07
-2.36837e-24
3.68129e-08
-1.31261e-06
2.46724e-08
-1.49515e-06
1.23705e-08
-1.4966e-06
6.54122e-11
-1.49673e-06
-1.22397e-08
-1.49673e-06
-2.45414e-08
-1.49661e-06
-3.66828e-08
-1.49516e-06
-2.42662e-08
-1.31322e-06
-2.11694e-07
-2.27866e-24
2.58881e-08
-2.36751e-07
-1.52609e-24
3.69788e-08
-1.32356e-06
2.47751e-08
-1.48294e-06
1.24197e-08
-1.48425e-06
6.18e-11
-1.48437e-06
-1.22961e-08
-1.48437e-06
-2.46513e-08
-1.48425e-06
-3.68557e-08
-1.48296e-06
-2.58597e-08
-1.32411e-06
-2.37438e-07
-1.51296e-24
2.75521e-08
-2.64075e-07
-9.65365e-25
3.71454e-08
-1.33298e-06
2.48778e-08
-1.47068e-06
1.24691e-08
-1.47184e-06
5.89848e-11
-1.47196e-06
-1.2351e-08
-1.47196e-06
-2.47596e-08
-1.47185e-06
-3.70279e-08
-1.47069e-06
-2.75227e-08
-1.33347e-06
-2.64771e-07
-9.33394e-25
2.92866e-08
-2.93059e-07
-5.91924e-25
3.73141e-08
-1.34081e-06
2.49809e-08
-1.45834e-06
1.25187e-08
-1.45938e-06
5.67926e-11
-1.4595e-06
-1.24051e-08
-1.4595e-06
-2.48671e-08
-1.45938e-06
-3.72009e-08
-1.45836e-06
-2.92552e-08
-1.34124e-06
-2.93757e-07
-5.48315e-25
3.10906e-08
-3.23769e-07
-3.64953e-25
3.74862e-08
-1.34699e-06
2.5085e-08
-1.44594e-06
1.25687e-08
-1.44686e-06
5.50103e-11
-1.44699e-06
-1.24586e-08
-1.44699e-06
-2.49747e-08
-1.44687e-06
-3.73764e-08
-1.44596e-06
-3.10562e-08
-1.34736e-06
-3.2446e-07
-3.11879e-25
3.29626e-08
-3.56268e-07
-2.1024e-25
3.76632e-08
-1.35147e-06
2.51907e-08
-1.43347e-06
1.26191e-08
-1.43429e-06
5.34119e-11
-1.43442e-06
-1.25121e-08
-1.43442e-06
-2.50835e-08
-1.4343e-06
-3.75563e-08
-1.43348e-06
-3.29246e-08
-1.35178e-06
-3.56943e-07
-1.58969e-25
3.49002e-08
-3.90616e-07
-9.91791e-26
3.7847e-08
-1.3542e-06
2.52984e-08
-1.42092e-06
1.26696e-08
-1.42166e-06
5.18018e-11
-1.4218e-06
-1.25659e-08
-1.4218e-06
-2.51943e-08
-1.42167e-06
-3.7743e-08
-1.42093e-06
-3.48582e-08
-1.35445e-06
-3.91266e-07
-6.59203e-26
3.6901e-08
-4.26872e-07
-4.00319e-26
3.80404e-08
-1.35512e-06
2.54089e-08
-1.40829e-06
1.27204e-08
-1.40897e-06
5.0058e-11
-1.40913e-06
-1.26201e-08
-1.40913e-06
-2.53081e-08
-1.40898e-06
-3.79394e-08
-1.4083e-06
-3.68547e-08
-1.35533e-06
-4.27488e-07
-2.68451e-26
3.89631e-08
-4.65104e-07
-1.54072e-26
3.82471e-08
-1.35421e-06
2.55233e-08
-1.39557e-06
1.27714e-08
-1.39622e-06
4.81263e-11
-1.39641e-06
-1.26749e-08
-1.39641e-06
-2.54262e-08
-1.39623e-06
-3.81496e-08
-1.39558e-06
-3.89126e-08
-1.35437e-06
-4.65678e-07
-1.28709e-26
4.10871e-08
-5.05389e-07
-4.95526e-27
3.84737e-08
-1.35142e-06
2.5644e-08
-1.38274e-06
1.28231e-08
-1.3834e-06
4.60083e-11
-1.38363e-06
-1.27308e-08
-1.38363e-06
-2.5551e-08
-1.38341e-06
-3.83801e-08
-1.38275e-06
-4.10328e-08
-1.35154e-06
-5.05912e-07
-6.18103e-27
4.32791e-08
-5.47817e-07
-1.96034e-27
3.87321e-08
-1.34673e-06
2.57766e-08
-1.36978e-06
1.28776e-08
-1.3705e-06
4.37314e-11
-1.3708e-06
-1.27898e-08
-1.3708e-06
-2.5688e-08
-1.37051e-06
-3.86428e-08
-1.36979e-06
-4.32216e-08
-1.34682e-06
-5.48283e-07
-4.48847e-27
4.55564e-08
-5.92493e-07
-2.05377e-27
3.90447e-08
-1.3401e-06
2.59338e-08
-1.35667e-06
1.29402e-08
-1.35751e-06
4.13299e-11
-1.3579e-06
-1.28573e-08
-1.3579e-06
-2.585e-08
-1.35752e-06
-3.89601e-08
-1.35668e-06
-4.54964e-08
-1.34017e-06
-5.92896e-07
-4.09775e-27
4.79548e-08
-6.39555e-07
-1.65748e-27
3.94513e-08
-1.33152e-06
2.61408e-08
-1.34336e-06
1.30229e-08
-1.34439e-06
3.88126e-11
-1.34491e-06
-1.2945e-08
-1.34492e-06
-2.60621e-08
-1.3444e-06
-3.93719e-08
-1.34338e-06
-4.78933e-08
-1.33157e-06
-6.39888e-07
-3.1664e-27
5.05378e-08
-6.8921e-07
-1.03381e-27
4.0018e-08
-1.32095e-06
2.64408e-08
-1.32978e-06
1.31462e-08
-1.3311e-06
3.61178e-11
-1.3318e-06
-1.30736e-08
-1.33181e-06
-2.63676e-08
-1.33111e-06
-3.99442e-08
-1.3298e-06
-5.04763e-08
-1.32099e-06
-6.89472e-07
-1.8437e-27
5.33951e-08
-7.41772e-07
-4.28443e-28
4.08314e-08
-1.30837e-06
2.68908e-08
-1.31584e-06
1.3336e-08
-1.31754e-06
3.31322e-11
-1.3185e-06
-1.32695e-08
-1.31851e-06
-2.68237e-08
-1.31755e-06
-4.07639e-08
-1.31586e-06
-5.33352e-08
-1.3084e-06
-7.41965e-07
-6.7103e-28
5.60848e-08
-7.97137e-07
-7.94422e-29
4.19524e-08
-1.29423e-06
2.75215e-08
-1.30141e-06
1.36011e-08
-1.30362e-06
2.96948e-11
-1.30493e-06
-1.35414e-08
-1.30493e-06
-2.74614e-08
-1.30363e-06
-4.18924e-08
-1.30143e-06
-5.60289e-08
-1.29425e-06
-7.97265e-07
-1.13253e-28
5.81472e-08
-8.5472e-07
-7.08283e-30
4.32641e-08
-1.27934e-06
2.82306e-08
-1.28638e-06
1.38857e-08
-1.28927e-06
2.5717e-11
-1.29107e-06
-1.38341e-08
-1.29107e-06
-2.81789e-08
-1.28929e-06
-4.32133e-08
-1.28639e-06
-5.81006e-08
-1.27936e-06
-8.54794e-07
-9.90077e-30
5.97908e-08
-9.1411e-07
-1.84057e-31
4.41636e-08
-1.26372e-06
2.8628e-08
-1.27084e-06
1.40783e-08
-1.27473e-06
2.12767e-11
-1.27701e-06
-1.40359e-08
-1.27702e-06
-2.85863e-08
-1.27474e-06
-4.4124e-08
-1.27086e-06
-5.97563e-08
-1.26373e-06
-9.14142e-07
-2.474e-31
5.92932e-08
-9.73149e-07
-6.5015e-34
4.28073e-08
-1.24723e-06
2.79459e-08
-1.25598e-06
1.42507e-08
-1.26103e-06
1.66761e-11
-1.26278e-06
-1.42185e-08
-1.26278e-06
-2.79156e-08
-1.26104e-06
-4.27799e-08
-1.25599e-06
-5.9272e-08
-1.24724e-06
-9.73156e-07
-8.51206e-34
5.09889e-08
-1.024e-06