/*--------------------------------*- C++ -*----------------------------------*\
  =========                 |
  \\      /  F ield         | OpenFOAM: The Open Source CFD Toolbox
   \\    /   O peration     | Website:  https://openfoam.org
    \\  /    A nd           | Version:  8
     \\/     M anipulation  |
\*---------------------------------------------------------------------------*/
FoamFile
{
    version     2.0;
    format      ascii;
    class       volScalarField;
    location    "0.35";
    object      p_rgh;
}
// * * * * * * * * * * * * * * * * * * * * * * * * * * * * * * * * * * * * * //

dimensions      [1 -1 -2 0 0 0 0];

internalField   nonuniform List<scalar> 
9150
(
2530.33
2503.43
2477.97
2460.64
2452.1
2452.1
2460.64
2477.97
2503.43
2530.33
2521.09
2501.64
2485.98
2474.07
2467.94
2467.94
2474.07
2485.98
2501.64
2521.09
2511.45
2497.98
2489.4
2481.55
2477.35
2477.35
2481.55
2489.4
2497.98
2511.45
2506.4
2496.44
2490.92
2485.46
2482.45
2482.45
2485.46
2490.92
2496.44
2506.4
2504.79
2495.88
2491.22
2486.95
2484.47
2484.47
2486.95
2491.22
2495.88
2504.79
2065.09
2061.41
2086.89
2100.72
2106.46
2106.46
2100.72
2086.9
2061.41
2065.09
2255.24
2231.19
2226.1
2224.51
2223.76
2223.76
2224.51
2226.1
2231.19
2255.24
2379.34
2348.08
2332.44
2322.26
2316.88
2316.88
2322.26
2332.44
2348.08
2379.34
2479.5
2437.44
2409.87
2392.31
2383.29
2383.29
2392.32
2409.87
2437.44
2479.5
2550
2497.22
2458.72
2436.53
2426.02
2426.02
2436.53
2458.72
2497.22
2550
1878.32
1922.11
1915.41
1923
1917.82
1917.82
1923
1915.4
1922.12
1878.33
1905.89
1928.63
1909.89
1919.88
1914.76
1914.76
1919.88
1909.89
1928.63
1905.9
1885.06
1917.64
1886.29
1895.36
1898.15
1898.15
1895.36
1886.29
1917.64
1885.06
1726.24
1852.6
1869.09
1888.28
1904.32
1904.32
1888.28
1869.09
1852.6
1726.24
1600.22
1840.61
1936.96
1966.85
1981.99
1981.99
1966.85
1936.97
1840.61
1600.22
1072.29
1106.96
1133.49
1151.34
1160.22
1160.27
1151.49
1133.73
1107.28
1072.69
901.521
931.307
954.701
970.952
979.534
979.583
971.09
954.914
931.585
901.872
730.484
753.719
771.838
784.221
790.541
790.582
784.34
772.027
753.972
730.793
630.487
651.517
667.701
678.671
684.209
684.244
678.776
667.878
651.766
630.804
576.556
596.556
611.763
622.007
627.168
627.204
622.116
611.951
596.828
576.91
559.372
578.159
592.155
601.48
606.156
606.195
601.594
592.346
578.433
559.728
577.364
591.999
602.886
610.082
613.682
613.713
610.171
603.032
592.201
577.621
624.421
629.961
635.622
639.493
641.403
641.415
639.527
635.677
630.022
624.429
685.751
677.607
677.175
678.102
678.547
678.544
678.095
677.152
677.493
685.401
746.641
725.605
717.648
716.205
715.91
715.912
716.21
717.619
725.426
746.378
782.253
765.795
750.666
746.891
746.531
746.535
746.889
750.587
765.567
782.465
773.039
790.915
774.4
768.174
767.769
767.758
768.103
774.141
790.542
774.065
721.799
805.382
793.312
783.175
781.808
781.828
783.196
793.259
805.578
723.948
655.56
797.847
799.605
788.933
786.996
787.016
788.95
799.602
798.393
658.112
551.062
778.136
804.9
793.94
789.886
789.856
793.768
804.67
779.354
557.81
388.246
745.328
810.476
799.779
791.993
791.982
799.695
810.527
746.977
394.059
271.46
705.964
802.434
796.387
787.085
787.114
796.462
802.886
708.162
277.209
177.895
664.741
786.104
787.6
778.166
778.165
787.627
786.606
666.821
182.284
109.497
584.346
765.956
780.606
771.051
770.949
780.436
766.843
590.664
113.121
63.7224
509.207
744.623
771.355
762.423
762.362
771.303
745.434
513.516
66.1243
33.8871
443.653
722.932
759.119
751.44
751.402
759.152
723.882
448.532
35.6054
15.3315
379.466
701.494
745.095
738.994
738.973
745.192
702.489
384.403
16.4018
8.26866
322.173
681.599
729.748
725.455
725.471
729.953
682.635
326.921
8.57918
4.61146
272.973
664.495
714.281
711.679
711.716
714.538
665.494
277.517
4.80945
3.21481
232.589
651.019
699.807
698.629
698.67
700.067
651.881
236.583
3.20319
2.85191
201.981
638.279
687.096
687.236
687.256
687.368
640.87
205.359
2.83776
2.53733
178.785
616.658
676.591
678.215
678.23
676.798
618.76
181.891
2.51798
2.27484
160.186
606.626
668.795
671.069
671.084
668.96
608.344
163.043
2.25102
2.05234
145.421
599.021
663.557
666.112
666.124
663.69
600.877
148.107
2.02442
1.86001
134.138
594.67
660.945
663.499
663.507
661.044
596.482
136.645
1.82841
1.69192
125.749
593.422
660.877
663.234
663.237
660.944
595.21
128.122
1.65643
1.54512
120.064
595.051
663.263
665.299
665.3
663.303
596.816
122.275
1.50603
1.41346
116.332
599.513
667.972
669.627
669.625
667.989
601.253
118.515
1.37094
1.29422
115.299
606.437
674.843
676.106
676.103
674.846
608.139
117.257
1.2486
1.18637
114.864
616.013
683.556
684.588
684.586
683.563
617.633
116.965
1.13806
1.08831
116.071
627.529
694.204
694.896
694.89
694.179
629.085
118.16
1.03784
0.998106
118.97
641.616
706.479
706.848
706.843
706.454
642.934
120.805
0.946151
0.914812
123.754
657.292
720.117
720.249
720.246
720.092
658.74
125.712
0.862009
0.837371
129.503
674.285
734.937
734.897
734.896
734.913
675.612
131.422
0.784205
0.765011
136.895
692.735
750.762
750.612
750.612
750.737
694.003
138.805
0.712018
0.696822
145.6
712.253
767.43
767.221
767.222
767.406
713.45
147.508
0.644417
0.632182
155.693
732.735
784.789
784.566
784.566
784.766
733.857
157.602
0.580614
0.570568
167.136
753.978
802.716
802.507
802.507
802.693
755.026
169.047
0.519867
0.51157
179.897
775.83
821.09
820.923
820.923
821.069
776.803
181.813
0.461545
0.454831
193.932
798.147
839.823
839.713
839.712
839.802
799.043
195.851
0.405127
0.400028
209.185
820.795
858.837
858.79
858.79
858.815
821.617
211.105
0.350202
0.34683
225.598
843.665
878.061
878.087
878.086
878.04
844.413
227.518
0.296458
0.294856
243.129
866.667
897.446
897.547
897.545
897.424
867.344
245.047
0.243645
0.243664
261.762
889.728
916.951
917.126
917.124
916.929
890.336
263.675
0.191535
0.19276
281.514
912.793
936.541
936.791
936.789
936.52
913.336
283.421
0.13989
0.14164
302.44
935.82
956.194
956.516
956.514
956.173
936.302
304.341
0.0884583
0.0898247
324.62
958.772
975.891
976.283
976.28
975.872
959.197
326.516
0.0369746
0.0369404
348.148
981.618
995.618
996.076
996.074
995.6
981.989
350.039
-0.0148286
-0.0171882
373.111
1004.32
1015.36
1015.89
1015.88
1015.35
1004.64
374.996
-0.0671774
-0.0724842
399.574
1026.85
1035.12
1035.7
1035.7
1035.11
1027.13
401.454
-0.120222
-0.128594
427.577
1049.18
1054.89
1055.53
1055.53
1054.88
1049.41
429.452
-0.17401
-0.184915
457.139
1071.25
1074.66
1075.35
1075.35
1074.66
1071.45
459.006
-0.22846
-0.240732
488.261
1093.06
1094.44
1095.17
1095.17
1094.43
1093.21
490.118
-0.283347
-0.295379
520.947
1114.57
1114.21
1114.98
1114.98
1114.21
1114.69
522.791
-0.338306
-0.348335
555.217
1135.76
1133.98
1134.79
1134.79
1133.98
1135.84
557.042
-0.392852
-0.399303
591.105
1156.62
1153.75
1154.59
1154.59
1153.75
1156.67
592.909
-0.446427
-0.448177
628.672
1177.12
1173.52
1174.38
1174.39
1173.52
1177.15
630.448
-0.498454
-0.494877
667.966
1197.3
1193.28
1194.17
1194.17
1193.28
1197.3
669.715
-0.548334
-0.53922
709.061
1217
1213.04
1213.94
1213.94
1213.04
1216.99
710.763
-0.595421
-0.581731
751.629
1236.67
1232.79
1233.71
1233.7
1232.78
1236.65
753.277
-0.639956
-0.624252
795.309
1256.14
1252.51
1253.44
1253.44
1252.5
1256.12
796.875
-0.683716
-0.659794
839.497
1275.55
1272.18
1273.14
1273.14
1272.17
1275.52
840.972
-0.719978
-0.69481
882.244
1294.98
1291.87
1292.86
1292.86
1291.87
1294.96
883.509
-0.758473
9.49623
921.801
1314.66
1311.79
1312.74
1312.74
1311.79
1314.65
922.807
10.1687
25.875
961.237
1334.42
1331.77
1332.66
1332.66
1331.77
1334.41
962.235
26.1904
36.9918
1001.22
1354
1351.58
1352.47
1352.47
1351.58
1353.98
1002.15
37.3825
50.7622
1041.5
1373.49
1371.32
1372.2
1372.2
1371.32
1373.48
1042.38
51.1668
65.7966
1082.07
1393.01
1391.05
1391.92
1391.92
1391.04
1392.99
1082.91
66.2301
82.614
1122.88
1412.52
1410.76
1411.61
1411.61
1410.75
1412.5
1123.67
83.0763
101.287
1163.83
1432.03
1430.45
1431.29
1431.29
1430.45
1432
1164.58
101.781
121.994
1204.84
1451.53
1450.14
1450.96
1450.95
1450.13
1451.51
1205.55
122.523
144.896
1245.78
1471.04
1469.81
1470.61
1470.6
1469.8
1471.01
1246.46
145.462
170.163
1286.55
1490.54
1489.47
1490.25
1490.24
1489.46
1490.52
1287.18
170.767
197.971
1327.01
1510.03
1509.12
1509.87
1509.86
1509.11
1510.01
1327.6
198.612
228.506
1367.04
1529.52
1528.75
1529.47
1529.46
1528.73
1529.5
1367.58
229.184
261.971
1406.49
1548.99
1548.35
1549.05
1549.04
1548.34
1548.97
1406.98
262.68
298.581
1445.24
1568.45
1567.94
1568.6
1568.6
1567.93
1568.43
1445.68
299.314
338.563
1483.14
1587.89
1587.49
1588.14
1588.13
1587.48
1587.87
1483.53
339.311
382.152
1520.05
1607.3
1607.03
1607.65
1607.64
1607.02
1607.28
1520.37
382.905
429.594
1555.8
1626.68
1626.53
1627.13
1627.13
1626.52
1626.67
1556.07
430.34
481.14
1590.25
1646.04
1646.01
1646.6
1646.59
1646
1646.02
1590.47
481.866
537.06
1623.25
1665.36
1665.47
1666.05
1666.05
1665.46
1665.34
1623.42
537.754
597.653
1654.64
1684.64
1684.91
1685.51
1685.51
1684.9
1684.63
1654.76
598.302
663.25
1684.28
1703.9
1704.36
1705
1705
1704.35
1703.88
1684.37
663.842
734.218
1712.05
1723.13
1723.85
1724.56
1724.56
1723.85
1723.12
1712.1
734.742
811.005
1737.78
1742.37
1743.44
1744.28
1744.28
1743.44
1742.36
1737.81
811.451
894.123
1761.49
1761.66
1763.22
1764.25
1764.25
1763.21
1761.66
1761.51
894.485
984.445
1782.86
1781.07
1783.27
1784.59
1784.59
1783.27
1781.07
1782.87
984.719
1082.37
1802.38
1800.61
1803.64
1805.38
1805.38
1803.65
1800.61
1802.38
1082.56
1188.06
1820.85
1820.29
1824.38
1826.66
1826.67
1824.39
1820.3
1820.86
1188.17
1300.66
1838.65
1839.84
1845.16
1847.97
1847.97
1845.16
1839.85
1838.66
1300.71
1419.56
1854
1857.69
1864.06
1866.86
1866.86
1864.07
1857.7
1854.01
1419.58
1535.28
1866.68
1875.41
1880.71
1882.61
1882.61
1880.71
1875.43
1866.7
1535.29
1656.43
1895.19
1903.57
1899.39
1898.91
1898.91
1899.4
1903.57
1895.2
1656.44
1780.6
1936.9
1925.46
1915.28
1911.46
1911.46
1915.29
1925.45
1936.9
1780.62
1028.09
973.725
912.845
848.424
782.156
716.151
652.277
591.824
536.744
487.187
444.279
408.859
378.967
354.292
334.206
318.372
306.647
298.878
294.875
294.266
296.364
303.679
313.722
326.72
343.057
359.316
376.948
395.662
413.481
435.914
452.083
474.798
488.94
497.227
501.691
513.922
517.359
522.105
526.661
530.273
864.641
818.594
767.836
714.671
660.951
608.278
558.132
511.431
468.882
431.063
398.627
371.555
349.448
332.211
318.778
308.773
301.935
298.069
297.139
299.393
304.448
312.358
322.78
336.164
353.274
373.606
394.637
415.254
437.378
455.73
477.679
497.857
505.739
514.833
518.369
514.426
511.35
515.297
520.408
532.127
701.606
665.637
626.064
584.642
543.001
502.622
464.792
430.451
400.187
374.321
352.9
335.648
322.119
311.675
304.025
298.834
295.928
295.247
296.828
300.77
307.152
316.09
327.657
341.965
358.996
378.022
398.333
419.531
440.281
461.049
480.778
498.294
515.218
523.614
521.347
522.562
520.354
521.357
538.036
562.554
604.035
571.291
535.036
496.552
457.496
419.706
384.88
354.401
329.089
309.22
294.474
284.111
277.279
273.188
271.248
271.06
272.452
275.383
279.879
286.05
294.073
304.12
316.307
330.678
347.136
365.389
385.172
406.191
427.573
448.218
468.136
487.023
504.601
520.304
532.179
521.528
527.303
537.047
556.83
604.046
550.893
517.949
480.073
438.391
394.846
351.366
310.066
274.346
247.062
229.253
220.096
217.556
219.481
223.947
229.462
235.423
241.831
248.802
256.384
264.737
274.178
285.004
297.391
311.443
327.209
344.635
363.589
383.81
404.821
426.038
447.066
467.713
487.571
506.139
523.456
538.885
534.368
550.593
578.009
637.722
534.511
501.464
462.54
417.381
365.194
303.241
234.326
175.723
135.788
117.683
116.562
126.222
142.82
161.554
178.474
192.93
206.435
219.137
230.373
240.692
251.207
262.55
274.893
288.366
303.16
319.442
337.306
356.66
377.208
398.562
420.371
442.354
464.281
485.995
507.652
530.64
558.729
560.719
596.016
647.442
558.972
537.2
510.019
456.937
352.655
205.894
87.1947
45.2055
25.8952
19.1799
21.4491
30.1449
48.7085
78.797
111.351
136.733
163.786
190.367
207.878
218.864
229.359
240.576
252.169
264.333
277.432
291.862
308.093
326.297
346.165
367.311
389.414
412.211
435.521
459.304
483.787
510.196
542.746
572.483
592.386
643.208
623.224
622.79
571.136
370.679
124.924
17.2822
7.27241
4.37661
3.70064
3.56671
3.66668
3.8303
4.00307
5.32515
8.84542
12.5938
28.1725
92.7707
174.433
192.053
206.101
221.073
232.365
242.048
251.68
262.489
276.376
293.668
312.924
333.558
355.518
378.685
402.872
428.084
454.629
483.453
517.285
560.525
596.346
632.582
701.772
665.634
420.562
96.5129
10.8881
6.41697
5.55239
5.25043
5.07426
4.95057
4.85738
4.78124
4.70873
4.612
4.50715
4.56729
4.93823
8.12681
16.9312
22.8972
61.796
174.855
226.407
230.606
227.299
223.331
233.528
254.17
276.088
297.322
319.222
342.588
367.197
392.981
420.264
449.818
483.602
525.407
574.592
610.827
744.782
550.01
129.704
11.6651
5.81533
5.13611
5.13657
5.01483
4.84542
4.71768
4.64331
4.6091
4.6093
4.63583
4.65712
4.67229
4.71409
5.0684
6.50584
9.85079
15.6868
41.4054
77.7788
100.603
114.918
136.068
207.566
223.139
242.261
261.366
282.27
305.831
330.571
356.21
383.125
412.027
444.494
483.598
529.537
565.059
690.574
267.449
15.7943
6.27873
4.94318
4.91832
4.90138
4.79545
4.68643
4.6091
4.56211
4.54127
4.54366
4.56642
4.61323
4.6833
4.76352
4.93285
5.40289
6.79348
11.4998
63.2416
185.235
205.123
122.279
121.466
144.687
207.904
204.204
217.518
245.164
269.77
295.055
320.376
346.377
373.881
404.293
440.149
481.322
510.308
556.092
97.2204
8.61725
4.81513
4.52043
4.60587
4.5886
4.52816
4.47447
4.43559
4.41086
4.40049
4.40203
4.40144
4.4921
4.51011
4.46034
4.46471
4.84641
18.6983
151.109
189.651
181.845
168.023
165.766
128.565
110.3
113.481
125.58
162.081
218.15
240.085
264.613
288.873
313.232
338.604
366.229
398.165
433.999
457.388
328.009
21.5304
5.62638
4.13244
4.21284
4.30324
4.29434
4.26461
4.23964
4.21974
4.2046
4.19553
4.19124
4.17921
4.21838
4.23148
4.17647
4.1106
3.89107
43.375
67.2323
63.3355
101.854
166.786
146.444
48.3853
46.4196
94.3356
106.308
142.484
202.738
222.152
242.309
264.025
285.949
308.559
332.742
360.007
389.946
408.123
179.185
9.51014
4.36484
3.87689
4.00651
4.05129
4.03721
4.019
4.00426
3.99039
3.97655
3.96314
3.95046
3.93828
3.92282
3.89208
4.01434
4.08729
3.82541
3.75247
2.65609
2.10617
8.15505
36.9264
27.4728
-13.6242
21.0188
105.003
120.542
138.966
165.109
206.674
226.919
245.503
265.145
285.181
305.842
327.963
351.231
368.711
80.5549
6.68129
3.76181
3.64575
3.77796
3.80352
3.79129
3.77955
3.76907
3.75632
3.74021
3.7201
3.69499
3.66339
3.62103
3.55622
3.51096
3.45883
3.37179
3.26402
3.23721
3.31974
3.38823
3.0829
0.652818
-2.64017
-0.383201
82.048
123.748
128.824
145.687
206.463
219.819
233.479
251.533
269.987
287.751
304.861
321.154
334.571
26.8977
4.89237
3.36834
3.446
3.55736
3.57058
3.56124
3.5534
3.54485
3.53278
3.51647
3.49536
3.46853
3.43457
3.39122
3.33409
3.26988
3.20622
3.14347
3.07691
3.02591
2.98479
2.91695
2.77726
2.53913
2.34228
1.86313
4.87939
128.793
148.005
171.973
205.246
204.911
219.864
241.937
262.519
279.547
292.853
302.315
310.838
9.77708
3.71655
3.16178
3.29444
3.35829
3.3581
3.34976
3.34305
3.33482
3.32329
3.30809
3.28887
3.26514
3.23626
3.2015
3.15999
3.11394
3.07267
3.01985
2.97096
2.91851
2.86162
2.7911
2.70518
2.66213
2.75622
2.84113
2.27537
74.8107
203.065
200.063
86.5475
151.176
199.189
233.248
261.541
280.999
292.718
296.941
299.054
6.29167
3.21095
3.02475
3.1471
3.17626
3.16571
3.15535
3.14752
3.13871
3.12766
3.11409
3.09773
3.07828
3.0555
3.02931
2.99979
2.96732
2.94201
2.90606
2.8736
2.84399
2.81596
2.78886
2.76273
2.75897
2.83351
2.98698
2.90698
7.96994
188.014
150.632
-54.1072
82.4186
186.268
230.136
267.495
290.356
301.901
302.63
298.52
5.13952
2.94413
2.88743
2.99316
3.00287
2.98519
2.97225
2.96305
2.95391
2.94373
2.93218
2.91899
2.90391
2.88687
2.86798
2.84754
2.82599
2.80792
2.78866
2.76897
2.75523
2.74719
2.74708
2.75809
2.78839
2.85877
2.99137
3.15013
3.19753
28.8076
8.69583
-54.9113
63.5258
217.315
249.882
285.846
306.176
315.934
315.936
308.216
4.37479
2.73096
2.74253
2.83285
2.83093
2.80995
2.79612
2.78678
2.7783
2.76962
2.76039
2.75033
2.7392
2.72697
2.71379
2.69995
2.68586
2.67211
2.66242
2.6501
2.64161
2.6377
2.63924
2.64845
2.6668
2.69883
2.75854
2.86355
2.94236
2.75572
-1.88256
-14.1277
63.9976
267.077
271.705
241.352
302.034
329.773
333.469
319.128
3.71582
2.53742
2.59055
2.66352
2.65643
2.63713
2.62529
2.6176
2.61091
2.60438
2.5977
2.59059
2.58289
2.57457
2.56576
2.55668
2.54758
2.53867
2.5306
2.52355
2.51617
2.5103
2.50545
2.50076
2.49443
2.48255
2.46056
2.42386
2.34199
2.13773
1.74942
0.763966
50.6206
293.966
291.19
190.492
227.523
345.637
355.46
338.24
3.05529
2.3512
2.43317
2.48772
2.48114
2.46807
2.46079
2.45619
2.45212
2.4481
2.44395
2.43951
2.43467
2.42945
2.42396
2.41836
2.41279
2.40728
2.40183
2.39658
2.39126
2.38566
2.37979
2.37284
2.36351
2.35065
2.33004
2.29658
2.24636
2.20881
2.27785
2.16706
36.1291
300.912
320.004
201.381
210.436
366.768
382.838
368.891
2.47377
2.1653
2.27089
2.31429
2.31285
2.3078
2.30576
2.30448
2.30298
2.30124
2.29928
2.29704
2.29448
2.29164
2.28864
2.28562
2.28265
2.27972
2.27671
2.27351
2.27009
2.26634
2.26216
2.25727
2.25125
2.24436
2.23567
2.22278
2.20964
2.21741
2.29229
2.26674
5.07445
300.008
347.5
217.536
226.019
380.139
412.011
400.402
2.0887
2.02172
2.13142
2.16424
2.16497
2.1641
2.16455
2.16478
2.16457
2.16413
2.16357
2.16286
2.16196
2.16091
2.1598
2.15872
2.15774
2.1568
2.15582
2.15467
2.15332
2.15177
2.14995
2.14783
2.14535
2.14274
2.14047
2.13747
2.13601
2.1462
2.19592
2.23894
1.92631
302.489
378.55
231.08
244.21
315.737
433.276
426.574
1.95131
1.95514
2.03383
2.04753
2.04244
2.03919
2.03799
2.03722
2.03662
2.0363
2.03624
2.03633
2.0365
2.03671
2.03703
2.03749
2.0381
2.0388
2.0395
2.04013
2.04071
2.0413
2.04194
2.04259
2.04327
2.04412
2.0454
2.0471
2.04928
2.05776
2.08934
2.12071
1.9151
285.439
398.713
280.114
258.701
264.068
450.227
452.299
1.89456
1.89303
1.94136
1.94119
1.93047
1.92386
1.92031
1.91807
1.91672
1.91614
1.91618
1.91667
1.91748
1.91855
1.9199
1.92152
1.9234
1.92546
1.92762
1.92981
1.93207
1.93449
1.93717
1.94013
1.9434
1.94706
1.9513
1.95603
1.96124
1.9718
2.00175
2.03277
1.87113
205.679
406.566
391.915
274.972
281.871
465.222
478.775
1.79683
1.80181
1.83723
1.83225
1.82
1.81213
1.80751
1.80458
1.80288
1.80221
1.80237
1.80315
1.8044
1.80604
1.80809
1.81054
1.81337
1.81649
1.8198
1.82324
1.82682
1.83064
1.83482
1.83943
1.84449
1.85007
1.8562
1.86259
1.86894
1.87968
1.90981
1.94413
1.76015
60.6781
412.093
407.24
290.631
298.561
486.416
511.775
1.69701
1.70576
1.73235
1.7251
1.71259
1.70432
1.69924
1.69603
1.69425
1.69368
1.69405
1.69513
1.69675
1.69882
1.70135
1.70437
1.70786
1.71175
1.71595
1.72037
1.72497
1.72983
1.73501
1.74058
1.74656
1.75294
1.75966
1.76645
1.77238
1.7781
1.7915
1.81967
1.792
2.15399
405.192
422.837
307.309
319.459
509.208
533.628
1.60145
1.61008
1.6291
1.62073
1.60869
1.60054
1.59538
1.59215
1.59045
1.59005
1.59069
1.59211
1.59411
1.59658
1.59952
1.60296
1.60691
1.61134
1.61619
1.62136
1.62677
1.63241
1.63829
1.64445
1.65092
1.6577
1.66481
1.67211
1.67907
1.68502
1.69449
1.71916
1.74244
1.59946
303.427
443.828
352.354
419.959
535.676
554.282
1.51034
1.51656
1.529
1.52019
1.509
1.50129
1.49629
1.49316
1.49159
1.49136
1.49223
1.49396
1.49632
1.49916
1.50245
1.50619
1.51042
1.51514
1.52031
1.52587
1.53174
1.53786
1.54417
1.55066
1.55732
1.56417
1.57127
1.57859
1.58575
1.59225
1.60121
1.62482
1.65116
1.48116
98.2126
441.014
513.352
548.77
565.92
577.68
1.42343
1.4261
1.43286
1.42404
1.41393
1.40685
1.40217
1.39924
1.39782
1.39772
1.39876
1.40069
1.40331
1.40645
1.41001
1.41398
1.41835
1.42314
1.42834
1.43394
1.43989
1.44612
1.45256
1.45912
1.46573
1.47236
1.47899
1.48562
1.49202
1.49725
1.50227
1.5143
1.53526
1.43178
4.39343
418.981
566.657
580.117
591.539
599.242
1.34003
1.33896
1.34097
1.33245
1.32354
1.31721
1.31297
1.31034
1.3091
1.30913
1.31025
1.31229
1.31506
1.31839
1.32214
1.32628
1.33076
1.33556
1.34068
1.34612
1.35187
1.3579
1.36415
1.37055
1.37702
1.38346
1.38984
1.39616
1.40241
1.4082
1.41299
1.42025
1.43797
1.4405
1.38822
347.271
581.556
601.399
612.485
607.807
1.25982
1.25537
1.25356
1.24554
1.23782
1.23229
1.22858
1.2263
1.2253
1.22544
1.22661
1.22866
1.23144
1.23479
1.2386
1.24279
1.2473
1.25208
1.25709
1.26233
1.26778
1.27344
1.2793
1.28531
1.29144
1.29762
1.30382
1.31007
1.31643
1.32282
1.32912
1.33829
1.36034
1.38637
1.32584
202.337
582.159
621.533
631.958
623.703
1.18326
1.17585
1.17091
1.16344
1.15685
1.15209
1.1489
1.14701
1.14627
1.14654
1.14773
1.14971
1.15236
1.15556
1.1592
1.16323
1.16758
1.17219
1.177
1.18197
1.18709
1.19235
1.19773
1.20322
1.20878
1.21437
1.21993
1.22544
1.23085
1.23588
1.2401
1.24626
1.26551
1.28579
1.13087
56.8189
562.14
640.389
650.443
640.812
1.1105
1.10055
1.09307
1.08615
1.08056
1.07651
1.07382
1.0723
1.07182
1.07223
1.07343
1.07532
1.07776
1.08068
1.08399
1.08765
1.09164
1.09587
1.1003
1.10487
1.10957
1.11437
1.11925
1.12419
1.12915
1.13406
1.13886
1.14342
1.14767
1.15134
1.15356
1.15482
1.16115
1.173
1.09266
3.96259
527.668
660.331
669.433
658.71
1.04128
1.02927
1.01979
1.01342
1.00873
1.0053
1.00305
1.00187
1.00161
1.00214
1.00334
1.00512
1.00735
1.00995
1.01288
1.01609
1.0197
1.02343
1.02718
1.0312
1.03539
1.03969
1.04409
1.04855
1.05304
1.05755
1.06201
1.06633
1.07046
1.07434
1.07764
1.07987
1.08335
1.09402
1.09457
1.02108
478.177
681.44
689.54
677.709
0.975209
0.961668
0.95068
0.944867
0.940988
0.938111
0.936231
0.935306
0.935204
0.935792
0.936946
0.938577
0.940582
0.942877
0.945404
0.948204
0.951265
0.954387
0.957692
0.961011
0.964636
0.968424
0.972341
0.976361
0.980472
0.984685
0.989015
0.993454
0.998033
1.00284
1.00799
1.0141
1.02139
1.03719
1.05587
1.00384
382.081
698.585
709.772
696.819
0.911996
0.897345
0.885277
0.880021
0.876866
0.874475
0.872904
0.872166
0.872146
0.872717
0.873762
0.87519
0.876937
0.878905
0.881046
0.883348
0.885902
0.888562
0.891319
0.894224
0.897175
0.900431
0.903851
0.9074
0.911066
0.914872
0.918868
0.923109
0.927667
0.932665
0.938459
0.94545
0.954324
0.971677
0.992797
0.938835
235.769
700.271
729.31
715.167
0.851218
0.835848
0.823052
0.81834
0.815832
0.813871
0.812561
0.811963
0.811977
0.812485
0.813383
0.814586
0.816039
0.817677
0.819448
0.821338
0.823366
0.825664
0.827938
0.830362
0.832812
0.835544
0.838466
0.841517
0.844676
0.847947
0.851361
0.854955
0.858788
0.862936
0.867646
0.873322
0.880622
0.897142
0.918094
0.850165
103.103
682.545
747.222
732.24
0.792522
0.776734
0.763487
0.759286
0.757345
0.755757
0.754671
0.754188
0.75422
0.754658
0.755415
0.756412
0.757598
0.758951
0.76041
0.761954
0.763608
0.765532
0.767454
0.76947
0.771618
0.77379
0.776252
0.778828
0.781471
0.784155
0.786867
0.789587
0.792281
0.794907
0.797326
0.799599
0.802432
0.811997
0.823578
0.725896
30.1793
649.422
765.712
761.332
0.735503
0.719552
0.706074
0.702347
0.700895
0.699631
0.698744
0.698365
0.698422
0.698816
0.699473
0.700324
0.701327
0.702464
0.703707
0.705023
0.706437
0.708039
0.709767
0.71149
0.713336
0.715168
0.717214
0.719399
0.72162
0.723825
0.725969
0.727997
0.729821
0.731315
0.732249
0.732003
0.731492
0.730795
0.732445
0.690522
3.75101
607.09
784.62
789.133
0.679823
0.663903
0.650363
0.647072
0.646048
0.645077
0.644377
0.644111
0.644221
0.644619
0.645238
0.646028
0.646944
0.647966
0.649093
0.650292
0.651576
0.652958
0.654564
0.656156
0.657788
0.659433
0.661167
0.663093
0.665057
0.667009
0.668922
0.670768
0.672498
0.674033
0.675307
0.67628
0.676547
0.676321
0.679119
0.678685
0.609522
551.615
803.257
807.437
0.62517
0.609424
0.595957
0.593076
0.592446
0.59176
0.591263
0.591142
0.591356
0.591829
0.592498
0.593323
0.594261
0.59529
0.596401
0.597584
0.598841
0.600181
0.601593
0.603196
0.604751
0.606227
0.607834
0.609631
0.611482
0.613361
0.615272
0.617256
0.619346
0.621553
0.623924
0.633854
0.630326
0.633678
0.642079
0.652805
0.615151
472.07
819.919
825.065
0.571289
0.555821
0.54253
0.540047
0.539798
0.539414
0.539159
0.53924
0.539628
0.540262
0.541078
0.542042
0.543113
0.54426
0.545469
0.546732
0.548044
0.549419
0.550844
0.552317
0.553842
0.555361
0.55697
0.558716
0.560535
0.562409
0.564362
0.566463
0.568805
0.571464
0.5745
0.586941
0.58329
0.588041
0.597861
0.609166
0.575807
367.99
831.18
844.8
0.517988
0.502869
0.489837
0.48775
0.487885
0.487833
0.487871
0.48822
0.488861
0.489736
0.49079
0.491985
0.493275
0.494623
0.496009
0.497422
0.498857
0.500329
0.501835
0.503359
0.5049
0.506488
0.508156
0.509915
0.511749
0.513648
0.515634
0.517775
0.52016
0.522872
0.526015
0.538461
0.535007
0.540738
0.550825
0.561973
0.529624
259.368
835.098
864.385
0.465138
0.450412
0.437703
0.436016
0.436546
0.436864
0.43725
0.43793
0.438889
0.440071
0.441434
0.442934
0.444499
0.446092
0.447696
0.449299
0.450898
0.452513
0.454149
0.455798
0.457462
0.459162
0.460931
0.462791
0.464717
0.466683
0.468697
0.470811
0.473071
0.475508
0.478113
0.486682
0.487058
0.49411
0.50368
0.514531
0.480334
169.966
830.818
884.182
0.412661
0.398357
0.386015
0.384731
0.38567
0.386388
0.387165
0.388224
0.389544
0.391069
0.392834
0.394707
0.396543
0.398388
0.400225
0.402045
0.403848
0.40566
0.407498
0.409354
0.411227
0.413127
0.415123
0.417199
0.419332
0.42143
0.423469
0.425463
0.427385
0.429058
0.430059
0.430946
0.473046
0.457107
0.457554
0.466246
0.425534
105.51
813.858
904.414
0.360501
0.346633
0.334691
0.333811
0.335162
0.336299
0.337493
0.338958
0.340666
0.342562
0.345051
0.347505
0.349066
0.351155
0.353249
0.355325
0.357392
0.359486
0.361633
0.363831
0.366071
0.368353
0.370804
0.373983
0.375946
0.378183
0.380446
0.382517
0.384359
0.385717
0.38601
0.385383
0.679201
0.481799
0.410255
0.414893
0.364166
62.3079
777.576
924.725
0.308587
0.295162
0.283639
0.283156
0.284917
0.286473
0.288087
0.289962
0.292065
0.294332
0.297339
0.299974
0.301852
0.304054
0.306426
0.308802
0.311208
0.313687
0.316279
0.318986
0.321796
0.324701
0.327803
0.331756
0.334928
0.337128
0.340015
0.342611
0.344873
0.346716
0.34781
0.348079
0.705222
0.652103
0.365236
0.362061
0.3086
40.5535
732.396
944.625
0.256812
0.243832
0.232735
0.232637
0.234788
0.236747
0.238759
0.241016
0.243476
0.246066
0.24916
0.252219
0.254806
0.256862
0.259507
0.26224
0.26507
0.268053
0.271237
0.274629
0.278218
0.281989
0.285949
0.290946
0.295111
0.298486
0.302185
0.30569
0.308732
0.311252
0.313115
0.314071
0.679427
0.619984
0.326006
0.316094
0.265125
38.9188
724.196
964.131
0.205027
0.192491
0.18182
0.182086
0.1846
0.186925
0.189294
0.191884
0.194645
0.197502
0.200588
0.204173
0.207122
0.209405
0.2123
0.215476
0.218845
0.22247
0.226409
0.230675
0.235253
0.240133
0.245279
0.251494
0.257084
0.2626
0.267024
0.27193
0.276308
0.280011
0.28286
0.286922
0.660019
0.461804
0.293407
0.282234
0.234339
45.5592
748.595
983.785
0.153046
0.140955
0.130703
0.131307
0.134147
0.136796
0.139469
0.142334
0.145337
0.148411
0.151701
0.155546
0.158744
0.161395
0.164614
0.168321
0.172341
0.176739
0.181585
0.186904
0.192684
0.198911
0.205559
0.212833
0.22078
0.22821
0.23463
0.241676
0.2483
0.254286
0.259178
0.275378
0.648057
0.349103
0.276216
0.266616
0.274682
61.9049
804.578
1001.57
0.100671
0.0890259
0.0791821
0.0800971
0.0832244
0.0861485
0.0890724
0.0921555
0.0953484
0.0985952
0.102084
0.10613
0.109585
0.112576
0.116236
0.12055
0.125298
0.130541
0.136383
0.142871
0.150008
0.157789
0.166202
0.175172
0.185633
0.195474
0.205147
0.214723
0.224733
0.234379
0.242645
0.286808
0.645579
0.325798
0.279513
0.277335
0.531895
94.7976
905.717
1018.08
0.047728
0.0365318
0.0270848
0.0282832
0.0316596
0.0348125
0.0379365
0.0411883
0.0445271
0.0479111
0.0515313
0.0557898
0.0594859
0.0627686
0.0669724
0.0719702
0.0774661
0.0835148
0.0903093
0.0979578
0.106486
0.115915
0.126256
0.137479
0.150129
0.163278
0.176758
0.189741
0.204195
0.218827
0.231792
0.314348
0.651653
0.360842
0.298664
0.315268
1.8699
174.708
1015.5
1034.18
-0.00589373
-0.0166348
-0.0256971
-0.02424
-0.0206491
-0.0173085
-0.0140279
-0.0106484
-0.00719986
-0.0037069
-4.29883e-05
0.00448156
0.00840349
0.0119959
0.0175968
0.0238489
0.0285486
0.0350917
0.0426979
0.05135
0.0611336
0.0721101
0.0843362
0.0978458
0.112634
0.129599
0.146741
0.164235
0.183262
0.203278
0.221653
0.313322
0.65346
0.5125
0.317307
0.388126
10.5857
394.453
1057.99
1051.74
-0.0602102
-0.070487
-0.0791741
-0.077478
-0.0737011
-0.0702068
-0.0668051
-0.0633318
-0.0598047
-0.0562301
-0.0525147
-0.0477774
-0.0436545
-0.0397899
-0.0332646
-0.0265669
-0.0214666
-0.0153878
-0.00722865
0.00210062
0.0127851
0.0249563
0.0387471
0.0542863
0.0716426
0.0913794
0.112779
0.135295
0.158267
0.183611
0.207878
0.288055
0.649501
0.668492
0.336008
0.503518
59.0821
759.998
1080.19
1070.72
-0.115117
-0.124918
-0.133235
-0.131314
-0.127371
-0.12375
-0.120256
-0.116722
-0.113152
-0.109539
-0.105806
-0.100988
-0.0968011
-0.0927941
-0.0871051
-0.0796552
-0.0732944
-0.0683416
-0.0603236
-0.0508897
-0.0399573
-0.0272981
-0.0126685
0.00420315
0.0236096
0.0457199
0.0710924
0.0975817
0.12477
0.15487
0.186168
0.237774
0.622011
0.65425
0.427752
0.71144
148.353
973.591
1102.57
1091.49
-0.170376
-0.179687
-0.187635
-0.185496
-0.181402
-0.177672
-0.174114
-0.170553
-0.166988
-0.163409
-0.159753
-0.155441
-0.150985
-0.146679
-0.142703
-0.134725
-0.128828
-0.123967
-0.117519
-0.10886
-0.0987047
-0.0867373
-0.0725971
-0.0557767
-0.0356129
-0.0113904
0.016776
0.0463722
0.0756187
0.105827
0.139383
0.171674
0.37282
0.627849
0.634056
1.38633
161.145
981.583
1123.86
1115.67
-0.225614
-0.234417
-0.241993
-0.239636
-0.235398
-0.231577
-0.227981
-0.224434
-0.220938
-0.217488
-0.214038
-0.210303
-0.205926
-0.202301
-0.199046
-0.192202
-0.1874
-0.183757
-0.17945
-0.17279
-0.164854
-0.155272
-0.143555
-0.129094
-0.110536
-0.0852413
-0.0503511
-0.015762
0.00902866
0.028711
0.0514827
0.079785
0.108248
0.408138
0.548521
1.84755
128.758
881.597
1113.45
1145.66
-0.280336
-0.288608
-0.2958
-0.293221
-0.288847
-0.284957
-0.281357
-0.277878
-0.274526
-0.271313
-0.26822
-0.265028
-0.261291
-0.258798
-0.25668
-0.252415
-0.248684
-0.247472
-0.246312
-0.243351
-0.239863
-0.23562
-0.23058
-0.224501
-0.216666
-0.197753
-0.140426
-0.0761856
-0.0582287
-0.0685192
-0.0744731
-0.070438
-0.0578252
0.000929453
0.201723
0.291949
58.7382
500.286
854.338
1137.23
-0.33396
-0.34166
-0.348448
-0.34564
-0.341143
-0.337217