/*--------------------------------*- C++ -*----------------------------------*\
  =========                 |
  \\      /  F ield         | OpenFOAM: The Open Source CFD Toolbox
   \\    /   O peration     | Website:  https://openfoam.org
    \\  /    A nd           | Version:  8
     \\/     M anipulation  |
\*---------------------------------------------------------------------------*/
FoamFile
{
    version     2.0;
    format      ascii;
    class       volScalarField;
    location    "4.1";
    object      alpha.water;
}
// * * * * * * * * * * * * * * * * * * * * * * * * * * * * * * * * * * * * * //

dimensions      [0 0 0 0 0 0 0];

internalField   nonuniform List<scalar> 
9150
(
1
1
1
1
1
1
1
1
1
1
1
1
1
1
1
1
1
1
1
1
1
1
1
1
1
1
1
1
1
1
1
1
1
1
1
1
1
1
1
1
1
1
1
1
1
1
1
1
1
1
1
1
1
1
1
1
1
1
1
1
1
1
1
1
1
1
1
1
1
1
1
1
1
1
1
1
1
1
1
1
1
1
1
1
1
1
1
1
1
1
1
1
1
1
1
1
1
1
1
1
1
1
1
1
1
1
1
1
1
1
1
1
1
1
1
1
1
1
1
1
1
1
1
1
1
1
1
1
1
1
1
1
1
1
1
1
1
1
1
1
1
1
1
1
1
1
1
1
1
1
0.98314
0.984155
0.984176
0.984176
0.984176
0.949945
0.966523
0.980013
0.980139
0.980221
0.903371
0.90334
0.903578
0.926183
0.923539
0.926926
0.955842
0.955785
0.949283
0.94781
0.979942
0.979781
0.974809
0.944631
0.904701
0.904608
0.90657
0.907326
0.907758
0.921322
0.755915
0.702641
0.705304
0.844532
0.977151
0.981734
0.981738
0.981755
0.98166
0.953021
0.698376
0.699373
0.914085
0.980992
0.981365
0.981727
0.981755
0.981781
0.981601
0.840246
0.698045
0.815448
0.980223
0.980785
0.94868
0.916232
0.979371
0.981787
0.981787
0.981765
0.964565
0.98324
0.972915
0.893214
0.893175
0.893231
0.945725
0.981789
0.981788
0.98179
0.982052
0.983713
0.965393
0.893199
0.893231
0.910416
0.981711
0.981788
0.98179
0.981791
0.983762
0.983761
0.979901
0.922904
0.93931
0.983757
0.977963
0.969554
0.981788
0.981791
0.983761
0.983713
0.983665
0.983704
0.983757
0.983756
0.899099
0.878832
0.951669
0.981787
0.97455
0.974217
0.97574
0.983646
0.983756
0.983757
0.983756
0.912809
0.877452
0.877347
0.953634
0.948353
0.948178
0.948592
0.981721
0.983756
0.983757
0.98375
0.891954
0.873922
0.987196
0.987196
0.96628
0.951629
0.951958
0.964367
0.983737
0.983741
0.983713
0.890677
0.987196
0.987196
0.987195
0.987193
0.967663
0.958343
0.958378
0.969822
0.983889
0.984593
0.987195
0.987195
0.987193
0.987193
0.987169
0.987142
0.981594
0.970314
0.973766
0.98562
0.987156
0.987156
0.987162
0.987169
0.987145
0.987141
0.987039
0.986871
0.974268
0.98498
0.986439
0.986374
0.986433
0.979826
0.964357
0.973425
0.98492
0.986768
0.986849
0.986899
0.764555
0.771735
0.73216
0.612695
0.40147
0.508672
0.784861
0.971704
0.986764
0.986931
0.296239
0.265519
0.259595
0.259788
0.259753
0.259753
0.259753
0.323432
0.734512
0.986584
0.274502
0.261099
0.259971
0.25987
0.259789
0.259753
0.259769
0.259716
0.259767
0.45339
0.494552
0.512772
0.259283
0.259971
0.25987
0.259781
0.259716
0.259716
0.259716
0.289055
0.936006
0.876027
0.319175
0.260214
0.260801
0.307337
0.301821
0.259716
0.259767
0.564571
0.938812
0.936006
0.600092
0.26358
0.37796
0.892684
0.967402
0.896599
0.856588
0.953926
0.939269
0.938812
0.883418
0.572071
0.776342
0.967402
0.967402
0.967402
0.96277
0.931814
0.939063
0.93927
0.938765
0.936109
0.904524
0.967349
0.967402
0.966717
0.845443
0.793198
0.939134
0.938765
0.929907
0.784774
0.709895
0.861891
0.966003
0.961305
0.944589
0.796983
0.938459
0.931369
0.620355
0.306095
0.304148
0.314693
0.795792
0.946428
0.950057
0.945122
0.933913
0.801776
0.31164
0.304003
0.303937
0.304148
0.307198
0.513388
0.930281
0.944169
0.926271
0.882205
0.435993
0.303996
0.304148
0.305193
0.309001
0.41182
0.773236
0.92766
0.922363
0.922365
0.915603
0.527862
0.305193
0.309001
0.601454
0.859097
0.863796
0.87749
0.922364
0.922066
0.914263
0.902334
0.81541
0.537241
0.794871
0.859097
0.858649
0.848974
0.271879
0.683704
0.686444
0.503072
0.42932
0.491467
0.484871
0.498788
0.52
0.529556
0.0720636
0.0926032
0.073806
0.0602033
0.0609584
0.0621819
0.0625025
0.062105
0.062562
0.0626033
0.0631114
0.0606783
0.0601989
0.0602034
0.0602034
0.0609599
0.0622938
0.0625025
0.0625129
0.0625724
0.0939595
0.0630025
0.0606885
0.0602034
0.0609585
0.0630955
0.0641037
0.0637177
0.0626669
0.0626237
0.863811
0.329975
0.0634768
0.0614794
0.0621643
0.0626969
0.0646576
0.06711
0.0670689
0.063106
0.983105
0.769573
0.139968
0.0640087
0.0635395
0.064187
0.0669654
0.0653675
0.0647879
0.0634202
0.98298
0.835632
0.161175
0.0643442
0.064104
0.0639935
0.0641529
0.0641667
0.0642262
0.205102
0.982979
0.894742
0.20365
0.0642424
0.0640757
0.0640594
0.0640843
0.0640834
0.203718
0.856232
0.982967
0.805035
0.133392
0.0641439
0.0640808
0.0640836
0.0640823
0.220016
0.904243
0.950414
0.788904
0.235533
0.0643877
0.0641475
0.0641461
0.0640719
0.245246
0.928522
0.964757
0.959322
0.09523
0.0647111
0.0644035
0.0643769
0.121259
0.786257
0.969574
0.968455
0.96757
0.929438
0.351853
0.400344
0.507782
0.644722
0.883864
0.969574
0.969574
0.969574
0.967108
0.445579
0.905813
0.897779
0.892296
0.857934
0.92493
0.968264
0.969574
0.967108
0.737978
0.276019
0.967216
0.874906
0.83226
0.833815
0.898529
0.96711
0.967089
0.805237
0.247764
0.226039
0.835371
0.831193
0.831193
0.90081
0.956458
0.964405
0.805789
0.230245
0.159469
0.248152
0.830234
0.843445
0.947475
0.982943
0.915426
0.828041
0.214519
0.151122
0.151275
0.439631
0.941617
0.969053
0.989455
0.988075
0.707008
0.604169
0.138519
0.146091
0.248237
0.930645
0.989467
0.989475
0.98948
0.989465
0.652346
0.572004
0.132726
0.138519
0.580311
0.974182
0.989475
0.98948
0.98948
0.98948
0.666458
0.581127
0.0889461
0.142825
0.72927
0.974229
0.989467
0.989475
0.98948
0.989318
0.753166
0.626031
0.0530054
0.114783
0.736995
0.974226
0.704203
0.703537
0.922739
0.573462
0.806944
0.70518
0.0469634
0.144689
0.76678
0.943679
0.0207297
0.0376198
0.28994
0.0503709
0.8085
0.74696
0.0437281
0.152652
0.488811
0.222011
0.0038496
0.00697318
0.000449188
0.0509026
0.809387
0.789003
0.0464762
0.124867
0.143653
0.00973567
0.00056343
0.000360071
0.000181787
0.0749149
0.810821
0.802917
0.0903104
0.04376
0.0474436
0.0113582
0.000481441
0.000454838
0.000104166
0.0901058
0.810821
0.804528
0.0969639
0.00403701
0.00105194
0.0126282
5.80367e-05
0.000161649
4.70715e-05
0.0847191
0.807082
0.80846
0.0939665
0.000466856
0.000111488
0.00183711
2.098e-05
2.09694e-05
2.19652e-05
0.0877505
0.806072
0.80846
0.0891548
8.93438e-06
2.148e-05
3.48584e-05
2.09693e-05
2.09828e-05
0.000954655
0.0722129
0.804339
0.804266
0.0682658
8.45425e-06
2.96422e-05
1.89182e-05
2.12549e-05
0.000314631
0.00132971
0.046418
0.791945
0.793248
0.0417175
8.45425e-06
8.45425e-06
8.45582e-06
2.1441e-05
0.00414136
0.001492
0.02892
0.772709
0.776339
0.0274525
8.45425e-06
8.45582e-06
8.46009e-06
0.000455122
0.00592542
0.0010264
0.0231295
0.762778
0.76665
0.0226672
8.45954e-06
8.46009e-06
1.98618e-05
0.00565983
0.00590238
0.00104071
0.0211889
0.758982
0.766131
0.022772
8.47243e-06
8.47297e-06
4.11852e-05
0.00597606
0.00581269
0.000201033
0.0262143
0.777123
0.774959
0.0226276
8.48154e-06
8.48044e-06
2.11753e-05
0.00485783
0.000760915
7.86976e-06
0.0351209
0.807383
0.810908
0.0372257
8.48013e-06
8.48154e-06
2.53287e-05
0.00165756
0.00131285
7.7816e-06
0.0569344
0.837768
0.836739
0.0544711
8.48154e-06
8.51376e-06
4.37801e-05
0.00250221
0.00268182
8.33704e-06
0.0766718
0.850714
0.850044
0.07597
8.51376e-06
8.7675e-06
2.50972e-05
0.000134718
0.000346143
9.68023e-06
0.0912854
0.852978
0.853643
0.09308
8.7675e-06
0.000214491
1.26698e-05
0.000135789
6.83648e-05
1.04263e-05
0.0969106
0.851696
0.853699
0.101438
2.05019e-05
0.000678003
7.79659e-06
0.00112226
0.000914168
1.2614e-05
0.0966283
0.850145
0.853699
0.101056
2.48455e-05
0.000680683
0.000386534
0.0011749
0.00117502
2.16546e-05
0.0875952
0.847733
0.850157
0.0900855
2.48455e-05
0.000677753
0.000859797
0.00117506
0.0011747
2.11339e-05
0.0775343
0.843775
0.853164
0.0849247
3.62376e-05
0.000676774
0.000859797
0.0011747
0.00102511
1.40111e-05
0.0791277
0.864064
0.858573
0.0773923
3.85543e-05
0.000656676
0.000859797
0.00117151
0.000726705
8.59773e-06
0.102446
0.886284
0.880114
0.101527
4.29763e-05
0.000498324
0.00085961
0.00102019
0.000599144
4.39884e-06
0.137007
0.903398
0.905336
0.138905
4.57384e-05
0.000363256
0.000486602
0.000253297
0.000592568
3.25148e-06
0.162501
0.915772
0.916391
0.160439
4.58537e-05
0.000351807
0.000291411
5.76956e-06
0.000372867
2.79165e-06
0.172904
0.920567
0.921758
0.171069
4.57549e-05
0.000319912
0.000140384
5.80698e-06
0.000102526
2.32466e-06
0.178599
0.923815
0.925239
0.176893
4.52225e-05
0.000380185
0.000130089
9.90589e-06
2.47707e-05
2.1711e-06
0.183328
0.927279
0.928479
0.181166
4.11627e-05
0.000543266
0.000327967
1.10836e-05
2.1711e-06
2.17119e-06
0.193676
0.933854
0.934884
0.193193
3.72655e-05
0.000671717
0.000752225
2.72337e-06
2.17119e-06
2.17112e-06
0.217009
0.944488
0.943785
0.216605
3.57911e-05
0.000656266
0.000754529
2.31811e-06
2.23762e-06
2.17119e-06
0.254645
0.956599
0.954987
0.254752
3.52755e-05
0.00032876
0.000753972
2.38801e-06
4.29641e-06
2.18068e-06
0.29516
0.965791
0.964293
0.294333
3.42872e-05
3.55751e-05
0.000513928
3.68434e-06
5.30531e-06
2.26464e-06
0.330642
0.971349
0.97186
0.329618
3.29705e-05
3.29705e-05
0.000155603
3.64327e-05
5.2943e-06
2.84913e-06
0.349048
0.973676
0.975405
0.353455
4.08544e-05
0.000107317
0.000900904
4.53512e-05
1.9129e-05
7.341e-06
0.371549
0.979648
0.97753
0.360906
9.90174e-05
0.000911195
0.001219
3.87168e-05
3.86884e-05
9.45749e-05
0.470373
0.989331
0.970751
0.307002
0.000147267
0.00120797
0.00121907
4.71055e-05
3.75675e-06
4.07713e-06
0.448437
0.991083
0.991328
0.460308
8.49164e-05
0.000424392
0.000787874
6.63676e-05
2.33949e-06
3.00418e-06
0.375236
0.982958
0.996987
0.61372
1.34628e-05
5.80809e-06
2.24634e-05
6.62121e-05
1.6595e-06
2.18522e-06
0.534936
0.994817
0.997035
0.631522
0.0049381
5.82036e-06
5.64762e-05
0.000124331
1.41205e-07
1.08901e-06
0.670953
0.997951
0.997298
0.593846
0.00742048
4.33257e-06
0.000156634
1.62765e-05
7.06043e-08
0.03584
0.855735
0.99887
0.997641
0.533998
4.59807e-06
2.85417e-06
0.000141065
1.76092e-12
2.74391e-12
0.14862
0.912279
0.99968
0.998847
0.656378
2.85417e-06
2.84989e-06
1.08221e-05
1.94837e-12
8.39469e-11
0.259414
0.963317
0.99975
0.999674
0.741625
2.85179e-06
2.81703e-06
2.76596e-06
1.02939e-12
5.52462e-09
0.378314
0.984409
0.999941
0.999749
0.871289
0.0588402
2.76596e-06
2.76596e-06
1.52149e-13
2.76656e-07
0.58324
0.999823
0.999951
0.999941
0.947231
0.242528
2.93104e-06
2.76596e-06
-8.75035e-15
1.00686e-05
0.76601
0.999954
0.999996
0.999953
0.997581
0.537068
3.81603e-06
2.93104e-06
-1.17242e-10
0.223627
0.935835
0.999995
0.999998
0.999997
0.999934
0.817954
0.0265808
2.75618e-06
-5.52833e-09
0.667466
0.999905
0.999998
1
1
0.999997
0.995401
0.498002
4.91523e-07
0.400344
0.985106
1
1
1
1
1
1
0.944258
0.273225
0.98024
0.981819
0.981819
0.981819
0.981819
0.981819
0.980057
0.976234
0.976234
0.980883
0.981454
0.977652
0.975145
0.977216
0.981038
0.980687
0.918281
0.783587
0.96842
0.96842
0.96842
0.968265
0.965306
0.806803
0.706967
0.707576
0.80284
0.991526
0.991545
0.991592
0.980323
0.904617
0.898868
0.897749
0.895869
0.895296
0.894495
0.921814
0.922012
0.92238
0.910441
0.865676
0.943918
0.981819
0.981819
0.981819
0.981026
0.976234
0.976235
0.981111
0.98145
0.981454
0.981398
0.981354
0.98131
0.981038
0.891592
0.659635
0.916923
0.96842
0.968265
0.84464
0.704504
0.704329
0.704654
0.710523
0.935281
0.991545
0.991592
0.991646
0.99168
0.991782
0.991855
0.987307
0.939621
0.911243
0.891553
0.869433
0.869421
0.869421
0.914154
0.847497
0.868334
0.965392
0.981819
0.981819
0.981818
0.978449
0.976307
0.977402
0.981454
0.98145
0.9773
0.956916
0.979355
0.97966
0.970488
0.615695
0.347323
0.854691
0.965964
0.963853
0.821328
0.704654
0.704504
0.762045
0.990912
0.991526
0.991545
0.991629
0.99178
0.991889
0.991888
0.991888
0.991864
0.991607
0.990338
0.920218
0.871409
0.879708
0.887835
0.831384
0.750166
0.81324
0.981819
0.981818
0.981818
0.981816
0.980169
0.977415
0.981509
0.979655
0.894979
0.883482
0.887715
0.970967
0.955654
0.58011
0.293084
0.294833
0.504792
0.931949
0.949797
0.949138
0.901484
0.770924
0.716902
0.708452
0.767335
0.868975
0.914467
0.991782
0.991888
0.991864
0.988601
0.960736
0.969519
0.960677
0.95272
0.940344
0.750497
0.750062
0.750065
0.750166
0.871302
0.981818
0.981818
0.981818
0.981816
0.981725
0.9817
0.947336
0.882916
0.882889
0.919647
0.965448
0.750008
0.319771
0.292754
0.292791
0.292968
0.311238
0.411625
0.672769
0.937407
0.937383
0.927253
0.699487
0.471196
0.470402
0.474615
0.876991
0.991508
0.991532
0.990801
0.842471
0.602195
0.676796
0.94158
0.943728
0.88133
0.750065
0.750063
0.750065
0.750239
0.895753
0.981818
0.981818
0.981818
0.981816
0.981783
0.928469
0.882889
0.890783
0.976133
0.975426
0.760219
0.292767
0.292791
0.292767
0.292791
0.292968
0.293502
0.295014
0.434984
0.882686
0.971484
0.959335
0.875404
0.925852
0.755662
0.599243
0.72691
0.990801
0.989942
0.895107
0.408706
0.284053
0.631347
0.940129
0.981785
0.965974
0.794901
0.750239
0.750225
0.759631
0.981818
0.981818
0.981818
0.981816
0.981767
0.905224
0.882916
0.952329
0.97624
0.976133
0.963831
0.751913
0.578432
0.561764
0.665915
0.726394
0.750808
0.77073
0.720635
0.882056
0.973814
0.974051
0.974106
0.974113
0.974113
0.897316
0.438906
0.966811
0.989429
0.988539
0.589921
0.284053
0.337058
0.898038
0.981791
0.981791
0.976855
0.894956
0.840515
0.893957
0.981818
0.981818
0.981818
0.981807
0.955019
0.878412
0.907716
0.97624
0.976275
0.97624
0.960724
0.947772
0.938512
0.908926
0.911243
0.979613
0.979644
0.979613
0.979613
0.926083
0.974008
0.974106
0.974113
0.974113
0.974113
0.778333
0.405895
0.916058
0.989355
0.987353
0.695396
0.284053
0.492312
0.865275
0.981791
0.981791
0.981791
0.981782
0.980901
0.981818
0.981818
0.981818
0.981816
0.978724
0.884983
0.878412
0.881913
0.957491
0.976274
0.976274
0.933272
0.686866
0.512136
0.490122
0.508554
0.833724
0.978306
0.979644
0.976598
0.908087
0.965449
0.974082
0.974111
0.974113
0.974113
0.87784
0.73092
0.950709
0.976852
0.918073
0.449282
0.286913
0.906793
0.854137
0.981791
0.981791
0.98179
0.981777
0.94394
0.882864
0.96213
0.981816
0.981815
0.981786
0.9168
0.881443
0.869312
0.953283
0.970692
0.938139
0.765514
0.490542
0.490122
0.490109
0.490122
0.596476
0.933136
0.960222
0.901188
0.904779
0.962959
0.961093
0.883522
0.73776
0.643662
0.412764
0.552565
0.713996
0.503589
0.312407
0.150672
0.601125
0.948019
0.852469
0.980426
0.98179
0.981777
0.981754
0.928228
0.881547
0.881547
0.952154
0.981791
0.981783
0.975866
0.883231
0.86727
0.960088
0.970521
0.911601
0.515366
0.490134
0.490109
0.490109
0.490109
0.779013
0.90478
0.657565
0.873152
0.643545
0.426037
0.315297
0.264509
0.264483
0.264423
0.264559
0.308405
0.250329
0.0698373
0.0609232
0.148667
0.884801
0.948056
0.852461
0.873948
0.969398
0.981754
0.981753
0.981657
0.965818
0.948058
0.941067
0.96482
0.981656
0.953003
0.867272
0.867306
0.888275
0.970143
0.968589
0.853637
0.491747
0.490134
0.490109
0.514598
0.937573
0.940371
0.511606
0.384262
0.279057
0.270123
0.26686
0.264493
0.264423
0.264423
0.264423
0.421632
0.281565
0.0608294
0.060647
0.0864667
0.875243
0.948019
0.852471
0.873922
0.874041
0.958914
0.957035
0.943277
0.931569
0.951448
0.952657
0.971636
0.978502
0.913983
0.920782
0.902413
0.926798
0.962189
0.967671
0.967323
0.745799
0.490372
0.610304
0.974807
0.987861
0.969075
0.748409
0.694763
0.706306
0.67878
0.532729
0.520565
0.264485
0.429732
0.430324
0.427711
0.175774
0.0605847
0.060444
0.108941
0.820827
0.947752
0.85256
0.899255
0.874445
0.875048
0.954515
0.955694
0.80919
0.638777
0.714678
0.722372
0.796308
0.91797
0.96012
0.961797
0.96213
0.962348
0.967085
0.966599
0.940393
0.770195
0.834854
0.986657
0.987861
0.987861
0.987861
0.987854
0.981504
0.984368
0.987598
0.987546
0.847492
0.779939
0.307107
0.0654025
0.0603347
0.0603467
0.060361
0.126392
0.795097
0.946962
0.853231
0.986746
0.89384
0.876034
0.927515
0.956124
0.897927
0.563477
0.554665
0.550937
0.550072
0.594867
0.700313
0.881734
0.915415
0.954249
0.952648
0.955874
0.958738
0.962407
0.963036
0.973038
0.987861
0.987861
0.987855
0.974164
0.987619
0.987618
0.987619
0.987598
0.847374
0.20071
0.0603345
0.0603064
0.0603058
0.0603329
0.0603457
0.11494
0.754841
0.944958
0.915034
0.986899
0.986927
0.891747
0.888833
0.955305
0.965976
0.790905
0.550936
0.550072
0.549457
0.548612
0.548299
0.548188
0.548175
0.803377
0.887973
0.888092
0.935954
0.964647
0.965028
0.964424
0.987837
0.987855
0.933918
0.874008
0.986034
0.987618
0.987615
0.987485
0.623448
0.102145
0.0603064
0.060306
0.0603064
0.0603064
0.118611
0.32503
0.727604
0.925673
0.935592
0.986937
0.986976
0.984065
0.888833
0.928759
0.96967
0.975115
0.904649
0.593152
0.548609
0.548299
0.548188
0.548155
0.548175
0.582266
0.90484
0.911548
0.78592
0.569015
0.589895
0.904594
0.987375
0.864007
0.531154
0.728483
0.983043
0.987615
0.985378
0.965762
0.925653
0.752867
0.401984
0.219994
0.210002
0.308327
0.731415
0.869392
0.737118
0.797259
0.935592
0.986976
0.986998
0.987016
0.958358
0.929861
0.93161
0.978269
0.986619
0.954781
0.829222
0.717001
0.762065
0.592444
0.548158
0.595492
0.906635
0.911595
0.818642
0.560092
0.559769
0.58078
0.593056
0.528794
0.525924
0.541201
0.884799
0.978646
0.958466
0.951865
0.830978
0.659845
0.417888
0.635289
0.930372
0.978463
0.979001
0.979014
0.867056
0.777486
0.845325
0.986966
0.987026
0.987084
0.987212
0.951122
0.933472
0.978224
0.987196
0.9872
0.987117
0.983405
0.985137
0.974651
0.935457
0.720737
0.793651
0.911333
0.910052
0.909525
0.718298
0.527497
0.526139
0.525924
0.525924
0.525924
0.826585
0.904527
0.72114
0.651945
0.639419
0.574301
0.437666
0.529675
0.661965
0.877283
0.979014
0.980057
0.956344
0.777486
0.779144
0.952315
0.987024
0.987215
0.987257
0.987043
0.983058
0.986515
0.987249
0.987251
0.987246
0.987239
0.986991
0.986667
0.98625
0.985567
0.880266
0.839861
0.840086
0.854396
0.855112
0.845574
0.862508
0.807708
0.53387
0.526412
0.531727
0.533942
0.535557
0.825927
0.863911
0.711791
0.524801
0.528793
0.537925
0.648314
0.938361
0.981267
0.981399
0.873826
0.787604
0.811531
0.987209
0.987258
0.987254
0.987251
0.98725
0.987253
0.987254
0.987254
0.987253
0.987247
0.942297
0.864937
0.864197
0.940945
0.980044
0.981816
0.930493
0.841122
0.841698
0.849657
0.894102
0.877956
0.813364
0.533152
0.533942
0.535557
0.535903
0.807889
0.978455
0.958396
0.712206
0.538901
0.659611
0.94755
0.981471
0.981443
0.981429
0.954332
0.825095
0.960473
0.987251
0.987252
0.987252
0.987252
0.987253
0.987254
0.987254
0.987254
0.957563
0.872291
0.86439
0.864176
0.864176
0.864176
0.955477
0.983747
0.983763
0.976073
0.980784
0.979856
0.934316
0.618826
0.538059
0.534583
0.535992
0.535903
0.655226
0.962686
0.981257
0.981479
0.981526
0.981539
0.981525
0.981511
0.981501
0.981471
0.981443
0.896776
0.825971
0.98725
0.987252
0.987253
0.987252
0.987253
0.987254
0.987254
0.987254
0.951695
0.865649
0.865436
0.865198
0.915141
0.982103
0.983745
0.983729
0.983754
0.983773
0.983787
0.983788
0.973287
0.632753
0.544327
0.540708
0.538392
0.709867
0.949816
0.979973
0.981257
0.981479
0.981526
0.981539
0.981539
0.981539
0.981369
0.981367
0.981438
0.981433
0.907982
0.827039
0.933408
0.948735
0.974652
0.98722
0.987252
0.987253
0.987254
0.987254
0.984745
0.981532
0.981393
0.980869
0.906196
0.864863
0.964465
0.983719
0.983811
0.983793
0.983792
0.983789
0.983796
0.876078
0.675811
0.805747
0.857159
0.84373
0.593352
0.708377
0.954848
0.980251
0.952817
0.948122
0.980348
0.981532
0.981472
0.981411
0.981433
0.981433
0.922195
0.828975
0.793198
0.793198
0.793491
0.902044
0.987245
0.987251
0.987106
0.976888
0.9754
0.964649
0.948591
0.856177
0.856136
0.856972
0.972334
0.983822
0.983839
0.98381
0.983791
0.983797
0.9838
0.966606
0.845236
0.848632
0.8563
0.815924
0.568849
0.567348
0.566944
0.56686
0.573788
0.883633
0.97993
0.981274
0.981404
0.98143
0.981433
0.981433
0.939764
0.831645
0.793671
0.794297
0.796524
0.799221
0.837455
0.961977
0.952256
0.901788
0.894185
0.889814
0.898717
0.870857
0.878508
0.961834
0.983883
0.983893
0.983865
0.983837
0.983823
0.983946
0.983887
0.982271
0.73643
0.583803
0.575896
0.568755
0.567348
0.566944
0.566858
0.566879
0.566875
0.850473
0.979043
0.981024
0.981368
0.981422
0.98143
0.981433
0.956428
0.835259
0.943569
0.941287
0.878315
0.800671
0.802405
0.872738
0.893021
0.808901
0.761223
0.79511
0.844674
0.955973
0.983768
0.983883
0.983893
0.983893
0.983893
0.983847
0.983858
0.983868
0.983818
0.955757
0.627984
0.583626
0.582297
0.645429
0.889858
0.917799
0.842713
0.738136
0.875429
0.977207
0.979126
0.979713
0.897426
0.865784
0.964662
0.981428
0.938021
0.893943
0.932322
0.89666
0.890818
0.882153
0.851181
0.694511
0.458559
0.271987
0.200415
0.242419
0.339964
0.646394
0.957507
0.983829
0.983883
0.983893
0.98388
0.983506
0.955375
0.879225
0.798347
0.791278
0.844562
0.886243
0.891618
0.897999
0.918884
0.918823
0.918585
0.918065
0.916646
0.815839
0.587881
0.471748
0.350434
0.490379
0.927733
0.980747
0.874918
0.902103
0.724374
0.500307
0.538532
0.555046
0.286232
0.152324
0.152324
0.152324
0.153174
0.15394
0.161289
0.293221
0.870425
0.983665
0.983829
0.98388
0.983792
0.721534
0.378163
0.143015
0.0702294
0.0786124
0.130503
0.565612
0.823664
0.919683
0.919037
0.896727
0.795801
0.771651
0.526215
0.330284
0.328873
0.330074
0.336892
0.504741
0.926267
0.925222
0.873771
0.902038
0.664985
0.431662
0.309644
0.272535
0.232585
0.203996
0.183329
0.207744
0.174654
0.326576
0.432878
0.323865
0.840387
0.983731
0.983665
0.983823
0.64213
0.0646463
0.0411266
0.0410509
0.0410699
0.0410928
0.0411464
0.481702
0.813322
0.919683
0.811175
0.753267
0.799021
0.919043
0.503532
0.328866
0.328865
0.328873
0.343881
0.797265
0.929133
0.921606
0.882832
0.883617
0.853627
0.86055
0.864251
0.872184
0.824182
0.78316
0.803892
0.850042
0.786852
0.94636
0.970455
0.654651
0.919771
0.983499
0.983509
0.964107
0.187813
0.041127
0.0410312
0.0410397
0.0410509
0.0410699
0.0410927
0.212275
0.674382
0.800558
0.790815
0.79017
0.964712
0.964402
0.870669
0.554186
0.399843
0.493232
0.782358
0.929012
0.928936
0.929132
0.868352
0.86691
0.614519
0.722875
0.809545
0.875176
0.921698
0.95061
0.96361
0.968612
0.970204
0.970435
0.970435
0.971551
0.972764
0.983342
0.983469
0.853923
0.153382
0.0410433
0.0409803
0.0410217
0.0417554
0.0410928
0.0411173
0.0426448
0.330366
0.742125
0.920965
0.964722
0.964851
0.964821
0.964595
0.947245
0.91508
0.917236
0.919886
0.923323
0.888566
0.928059
0.904826
0.867267
0.0626033
0.0679659
0.125059
0.212352
0.331003
0.48605
0.710894
0.907977
0.968612
0.970204
0.970453
0.970355
0.925441
0.9704
0.983339
0.828269
0.172967
0.040978
0.0409582
0.0412385
0.0418252
0.0411209
0.0411001
0.0413587
0.114835
0.749403
0.964793
0.964852
0.964857
0.964853
0.964821
0.964597
0.963536
0.960661
0.884539
0.764021
0.761591
0.862653
0.972744
0.959431
0.0626033
0.062617
0.062789
0.0635991
0.0652356
0.0666829
0.0716544
0.28083
0.730455
0.962178
0.970152
0.970338
0.683899
0.764889
0.982343
0.835098
0.187252
0.0409517
0.0409536
0.0410447
0.0418253
0.0410304
0.0410233
0.0412087
0.103709
0.755735
0.964852
0.964855
0.964855
0.964856
0.964853
0.964812
0.964422
0.873999
0.756573
0.756368
0.757452
0.841924
0.972737
0.972745
0.062617
0.0627887
0.0635955
0.0651994
0.0666468
0.0665995
0.0680683
0.0696664
0.137772
0.734243
0.967407
0.969759
0.614166
0.594533
0.962372
0.798806
0.171542
0.0409493
0.0409505
0.0409999
0.0418215
0.0409821
0.0409811
0.0411133
0.133807
0.74242
0.964793
0.876748
0.627169
0.564652
0.786516
0.957951
0.957221
0.770846
0.756368
0.756368
0.756368
0.855928
0.946627
0.856041
0.0628281
0.0639129
0.175066
0.367398
0.33245
0.130267
0.0696664
0.0695377
0.0708095
0.483072
0.945325
0.935531
0.584732
0.579891
0.930046
0.692382
0.144967
0.0409492
0.0409497
0.0409505
0.0412323
0.0409617
0.0409644
0.0410499
0.12647
0.473435
0.468125
0.237198
0.0950864
0.0814277
0.210821
0.676916
0.935308
0.850942
0.756539
0.756368
0.898028
0.756586
0.597135
0.587042
0.110365
0.395086
0.816235
0.89393
0.8877
0.639316
0.117641
0.0711524
0.0712044
0.491034
0.924471
0.729061
0.578731
0.579752
0.887229
0.592514
0.174414
0.0409491
0.0409493
0.0409497
0.0409506
0.0409573
0.0409617
0.0409772
0.0412559
0.0635743
0.0618909
0.0622321
0.0644405
0.0691944
0.0741135
0.173074
0.688899
0.906072
0.908833
0.909095
0.924157
0.881478
0.627391
0.587042
0.75139
0.909575
0.901589
0.897086
0.89393
0.8877
0.486432
0.0809197
0.122308
0.729342
0.908205
0.673808
0.575855
0.683955
0.852043
0.567914
0.277231
0.117311
0.0409497
0.0409506
0.0409552
0.0409596
0.0485043
0.207591
0.187446
0.0618204
0.0618031
0.0618909
0.0622321
0.067179
0.0694215
0.0743481
0.183261
0.762537
0.925335
0.925339
0.925351
0.873671
0.588775
0.587042
0.92898
0.916868
0.909575
0.883906
0.818996
0.835763
0.585571
0.196577
0.587201
0.911634
0.911203
0.661747
0.573861
0.831096
0.841965
0.500537
0.703206
0.845961
0.788917
0.403388
0.0498223
0.0414842
0.202023
0.513469
0.530563
0.343983
0.233405
0.173297
0.180827
0.192789
0.185428
0.169224
0.261993
0.748248
0.925441
0.92544
0.92543
0.925261
0.743156
0.698394
0.940593
0.900685
0.684223
0.39751
0.111703
0.100884
0.369559
0.893093
0.911634
0.911634
0.911634
0.627421
0.573862
0.857096
0.859192
0.471993
0.682504
0.848072
0.850108
0.848179
0.688821
0.576896
0.573284
0.489475
0.611334
0.746778
0.756122
0.767016
0.777307
0.789281
0.79801
0.807219
0.816902
0.885649
0.925448
0.925449
0.92544
0.912449
0.719326
0.831163
0.879597
0.380496
0.106235
0.0998673
0.0987516
0.0998673
0.100884
0.5778
0.908995
0.911634
0.720073
0.566091
0.655427
0.87121
0.824942
0.424583
0.43063
0.762357
0.85007
0.85276
0.853136
0.852248
0.84566
0.486598
0.222295
0.457674
0.629828
0.603624
0.54301
0.630496
0.85698
0.921043
0.924203
0.925448
0.925449
0.925448
0.84643
0.72129
0.719326
0.84335
0.358777
0.121369
0.101984
0.0987516
0.0969503
0.0987516
0.107334
0.430139
0.727183
0.796746
0.566091
0.566723
0.870632
0.873132
0.745904
0.425354
0.424583
0.428668
0.750196
0.855543
0.854236
0.853135
0.852248
0.700262
0.173182
0.13587
0.136784
0.126699
0.114999
0.125295
0.180772
0.317096
0.629609
0.850461
0.906181
0.925449
0.863986
0.819013
0.724189
0.728519
0.211103
0.202456
0.372381
0.128585
0.0948588
0.334574
0.360317
0.356742
0.177238
0.514633
0.831307
0.860735
0.875014
0.875014
0.781276
0.528933
0.648178
0.751755
0.847413
0.855739
0.855543
0.795009
0.685816
0.551026
0.321222
0.116257
0.111434
0.11125
0.111211
0.111213
0.111248
0.111519
0.117196
0.334073
0.787954
0.905112
0.899633
0.823609
0.72546
0.727736
0.231411
0.637571
0.58091
0.0948588
0.0945686
0.0945686
0.0946315
0.0950472
0.103384
0.546578
0.84876
0.856436
0.767795
0.402649
0.382427
0.783138
0.852998
0.855414
0.855739
0.855802
0.855739
0.75621
0.68035
0.770802
0.717573
0.244486
0.11125
0.111183
0.111179
0.111179
0.111181
0.111196
0.117705
0.290552
0.617622
0.825922
0.891903
0.880616
0.759213
0.739518
0.448436
0.955442
0.950133
0.413298
0.0948588
0.0945686
0.0950077
0.0967949
0.101455
0.236703
0.743068
0.84851
0.444074
0.114843
0.11545
0.218571
0.351785
0.625634
0.855785
0.855785
0.855801
0.855624
0.833735
0.853818
0.853066
0.655402
0.129312
0.111179
0.111179
0.111179
0.111179
0.111181
0.489624
0.793166
0.855136
0.881127
0.883125
0.826724
0.812147
0.921529
0.820634
0.97279
0.972672
0.959053
0.677143
0.472951
0.46192
0.516929
0.581188
0.755064
0.77132
0.346831
0.11416
0.114118
0.114183
0.114489
0.115622
0.122207
0.267207
0.741554
0.855641
0.855352
0.841131
0.853425
0.853818
0.853066
0.634046
0.365454
0.353313
0.323994
0.49949
0.64999
0.868229
0.869321
0.869179
0.847498
0.665709
0.646584
0.923964
0.947288
0.972612
0.972957
0.972734
0.97007
0.859212
0.866457
0.980101
0.980201
0.979836
0.977194
0.776854
0.176796
0.114118
0.114118
0.114118
0.114183
0.114474
0.11561
0.247396
0.685701
0.788612
0.604169
0.593456
0.656107
0.812515
0.841624
0.791515
0.644001
0.565543
0.468037
0.534001
0.67925
0.782733
0.776708
0.566063
0.554383
0.554469
0.773395
0.947127
0.947297
0.973773
0.973415
0.972957
0.881326
0.801502
0.978652
0.980201
0.980307
0.980311
0.980089
0.978285
0.735295
0.264964
0.114118
0.114183
0.183654
0.454966
0.76519
0.942712
0.979257
0.981922
0.93623
0.58675
0.381117
0.378689
0.374313
0.365096
0.352212
0.337602
0.33555
0.336134
0.340548
0.354172
0.569977
0.731575
0.621235
0.771733
0.947899
0.947404
0.919265
0.974109
0.973813
0.904578
0.796844
0.795891
0.799995
0.942568
0.980311
0.980348
0.980311
0.980089
0.972452
0.909053
0.857576
0.849482
0.892388
0.964539
0.982
0.982017
0.982019
0.982013
0.982
0.979192
0.784781
0.413337
0.336218
0.335811
0.335593
0.33555
0.335593
0.335593
0.404325
0.647786
0.808958
0.970093
0.963906
0.974966
0.949831
0.912763
0.912723
0.974226
0.974149
0.957866
0.801116
0.796044
0.795891
0.796558
0.905102
0.980355
0.980349
0.98028
0.961609
0.927859
0.980315
0.981977
0.982003
0.98202
0.982019
0.982018
0.98202
0.982037
0.982018
0.98202
0.981983
0.933142
0.759434
0.606651
0.527344
0.517934
0.565058
0.718425
0.886806
0.978344
0.981954
0.981921
0.981735
0.916648
0.915915
0.922884
0.927932
0.974231
0.974226
0.974149
0.972519
0.926473
0.855052
0.846018
0.958199
0.980356
0.980356
0.980354
0.97264
0.93212
0.943086
0.982
0.982014
0.982017
0.982019
0.982017
0.982018
0.982016
0.982015
0.982016
0.982018
0.982013
0.981991
0.978038
0.969968
0.967671
0.973001
0.981945
0.981954
0.981956
0.981955
0.981954
0.97603
0.916654
0.94847
0.981482
0.981483
0.949646
0.961221
0.966955
0.969703
0.964957
0.95725
0.950495
0.978534
0.980356
0.980356
0.980356
0.980354
0.980311
0.956188
0.937055
0.970812
0.982014
0.982015
0.982016
0.967215
0.949456
0.982014
0.982018
0.982018
0.982018
0.982018
0.982016
0.982013
0.982009
0.982006
0.981991
0.981967
0.981955
0.981956
0.981955
0.981849
0.981501
0.980806
0.981482
0.981482
0.325595
0.29577
0.337523
0.433934
0.534538
0.62803
0.649247
0.59552
0.582324
0.569215
0.605478
0.7699
0.92253
0.956383
0.896906
0.967195
0.982013
0.982014
0.982014
0.981963
0.934009
0.908595
0.95902
0.982018
0.982018
0.982018
0.982018
0.982016
0.982013
0.982009
0.982006
0.981991
0.96056
0.942269
0.922523
0.897102
0.878166
0.867863
0.865944
0.85997
0.00103968
0.000450025
0.000334431
0.00145609
0.00730756
0.0235174
0.0403657
0.0113805
0.000131782
0.000129932
0.000134993
0.0543853
0.162339
0.630195
0.845944
0.982011
0.982015
0.982015
0.982015
0.982012
0.981942
0.922001
0.867143
0.972983
0.982018
0.982018
0.957234
0.870884
0.777397
0.641425