/*--------------------------------*- C++ -*----------------------------------*\
  =========                 |
  \\      /  F ield         | OpenFOAM: The Open Source CFD Toolbox
   \\    /   O peration     | Website:  https://openfoam.org
    \\  /    A nd           | Version:  8
     \\/     M anipulation  |
\*---------------------------------------------------------------------------*/
FoamFile
{
    version     2.0;
    format      ascii;
    class       volScalarField;
    location    "4.1";
    object      p_rgh;
}
// * * * * * * * * * * * * * * * * * * * * * * * * * * * * * * * * * * * * * //

dimensions      [1 -1 -2 0 0 0 0];

internalField   nonuniform List<scalar> 
9150
(
1962.9
1961.89
1961.29
1960.81
1960.57
1960.57
1960.81
1961.29
1961.9
1962.91
1962.48
1961.95
1961.54
1961.21
1961.04
1961.04
1961.22
1961.54
1961.96
1962.48
1962.2
1961.92
1961.66
1961.45
1961.33
1961.33
1961.45
1961.67
1961.92
1962.21
1962.08
1961.91
1961.74
1961.58
1961.5
1961.5
1961.58
1961.74
1961.91
1962.09
1962.08
1961.9
1961.77
1961.64
1961.57
1961.58
1961.64
1961.76
1961.9
1962.09
1951.21
1950.31
1950.51
1950.96
1951.14
1951.14
1950.99
1950.57
1950.35
1951.25
1955.18
1954.46
1954.26
1954.21
1954.31
1954.32
1954.22
1954.29
1954.49
1955.2
1958.26
1957.52
1957.22
1956.86
1956.81
1956.81
1956.88
1957.23
1957.54
1958.29
1960.98
1959.86
1959.43
1958.79
1958.63
1958.63
1958.81
1959.45
1959.88
1961
1963.65
1961.55
1960.81
1960.09
1959.83
1959.83
1960.1
1960.82
1961.56
1963.65
1945.24
1944.48
1942.67
1941.82
1941.54
1941.75
1942.48
1943.64
1945.59
1947.28
1945.17
1945.09
1944.27
1944
1943.59
1943.71
1944.18
1944.6
1945.72
1946.03
1945.01
1945.16
1944.17
1944.64
1944.15
1944.34
1944.8
1944.51
1945.56
1945.52
1941.94
1944.73
1943.63
1945.37
1945.03
1945.18
1945.31
1943.89
1944.88
1942.16
1935.48
1945.41
1945.73
1947.35
1947.63
1947.66
1947.29
1945.82
1945.46
1935.63
827.991
828.116
828.462
828.941
828.949
828.476
827.827
827.9
827.147
826.204
825.396
823.947
824.103
826.778
827.824
828.384
828.103
826.702
824.915
823.528
826.09
826.618
828.52
829.062
828.514
828.446
827.189
824.457
821.141
818.356
812.692
813.538
815.415
820.742
830.791
830.632
829.272
826.933
823.662
817.478
809.833
810.587
827.904
833.006
832.419
831.915
830.114
827.421
824.496
809.28
807.928
818.394
835.146
835.582
829.341
827.53
830.905
830.212
828.517
826.129
839.499
841.946
838.451
827.129
826.692
825.857
830.343
834.097
833.433
832.965
839.673
840.164
835.991
826.872
827.099
828.034
837.492
836.705
836.38
836.407
841.739
841.49
839.98
832.863
834.174
840.228
838.634
836.125
838.51
839.05
842.883
843.598
843.732
843.972
844.283
844.761
830.253
829.222
837.016
842.714
843.255
844.28
845.103
847.577
847.96
848.135
848.221
833.473
828.134
827.883
840.025
840.923
842.212
842.796
850.315
851.434
852.022
852.627
832.694
829.503
847.253
849.935
846.588
844.694
845.518
848.217
853.22
853.56
853.846
831.003
846.573
849.812
852.02
853.097
848.149
846.32
846.276
848.57
852.708
852.041
844.488
848.725
851.256
851.675
850.33
848.589
845.539
842.033
842.51
846.506
841.905
846.221
846.787
843.235
837.574
833.567
832.337
832.508
829.37
832.053
813.724
816.144
812.997
803.425
790.581
791.587
798.477
803.365
807.937
811.504
701.458
698.942
675.119
624.96
556.365
586.679
679.482
750.989
766.619
779.349
521.306
494.406
480.319
471.68
465.59
462.274
462.57
486.255
638.33
744.586
514.766
486.923
465.75
452.276
441.305
437.022
438.076
440.113
442.249
520.335
596.245
582.272
457.73
444.503
430.301
421.861
421.27
424.049
434.486
451.961
797.473
740.782
482.814
448.478
434.185
444.262
440.457
428.139
436.211
569.372
787.187
768.19
605.088
468.653
499.283
717.223
749.398
719.712
713.406
768.512
784.806
775.799
742.856
609.107
691.974
774.01
775.953
783.106
790.731
788.037
781.63
776.943
774.013
774.267
759.09
790.824
791.73
798.13
750.233
737.59
771.027
767.261
757.266
680.113
648.53
727.226
788.327
796.641
798.551
738.478
770.843
761.129
597.628
439.667
441.05
447.036
698.52
785.479
798.059
805.842
770.349
696.929
434.645
431.801
432.981
434.068
437.112
549.084
778.43
795.734
772.471
743.61
498.823
425.161
424.673
424.157
426.88
485.077
687.82
788.669
764.737
759.215
756.83
531.363
410.405
413.13
575.855
729.825
734.968
750.258
710.535
715.095
728.774
729.604
675.346
516.353
670.144
715.368
717.533
717.865
301.743
570.27
560.015
444.814
411.754
459.136
459.531
473.09
491.571
501.873
184.277
192.762
182.139
180.508
188.752
193.623
196.749
200.468
204.429
207.939
194.154
192.132
191.55
191.965
193.248
196.851
201.38
205.042
208.182
210.91
221.485
200.032
200.281
201.047
203.476
207.342
209.954
211.559
213.096
215.082
760.825
389.71
204.788
205.553
208.197
210.424
213.815
217.974
220.015
219.477
865.304
714.752
262.934
209.443
210.245
212.425
216.768
217.814
219.526
220.202
879.534
777.53
281.404
210.691
211.037
211.907
213
213.784
214.31
318.654
894.076
836.349
315.445
210.816
210.875
211.08
211.094
210.587
314.247
797.746
909.254
782.243
262.255
210.042
210.511
211.296
212.026
332.883
854.739
863.263
770.839
338.491
207.751
208.8
209.676
210.218
352.594
896.24
905.592
859.536
223.064
206.385
207.548
208.578
253.919
795.191
951.828
942.286
906.811
834.653
424.344
468.684
566.75
685.542
890.536
969.707
966.021
949.105
925.06
466.139
898.088
900.433
904.673
886.796
955.426
997.177
985.804
970.059
769.994
365.856
963.972
891.415
869.705
886.088
981.477
1043.59
1001.22
833.007
347.168
334.674
852.137
859.417
871.786
947.721
1045.5
1017.45
815.935
281.914
227.463
316.082
844.251
858.85
957.64
975.747
944.325
828.396
237.726
173.143
181.145
450.408
938.728
962.169
989.261
961.465
701.604
608.428
163.878
167.553
262.703
907.346
991.766
991.875
997.779
999.376
671.406
592.116
183.684
190.199
600.338
976.881
1001.91
1005.8
1010.81
1018.34
699.803
608.172
158.482
206.731
771.116
999.65
1011.28
1018.01
1025.24
1036.57
790.691
655.456
124.784
178.795
789.533
1012.8
718.315
726.932
961.355
635.592
847.433
725.754
103.812
196.534
824.052
987.547
21.8363
38.3897
296.353
76.8112
873.694
806.475
77.7509
182.647
520.857
228.287
5.15269
8.25678
2.01711
53.8186
887.795
851.462
75.0534
139.255
149.301
8.95655
1.84546
1.66128
1.53462
80.3374
880.287
893.131
107.601
45.0865
48.8151
10.9652
1.75287
1.75371
1.43125
99.3368
898.295
907.708
102.369
3.22938
0.447229
13.0368
1.28638
1.43276
1.34324
95.2136
902.385
937.243
102.764
-0.174128
-0.568661
1.12477
1.23156
1.25936
1.28784
100.254
922.385
948.445
99.6644
-0.702961
-0.740358
-0.753304
1.20519
1.21114
2.26478
83.9054
953.225
943.01
77.4799
-0.837715
-0.801847
-0.800821
1.19197
1.53629
2.68657
55.217
952.792
948.281
47.7974
-0.857602
-0.848998
-0.83671
1.19278
6.05541
2.93271
35.4511
941.286
947.578
31.663
-0.869468
-0.860712
-0.850914
1.73914
8.39079
2.50825
29.1973
939.72
955.688
26.4198
-0.876455
-0.866446
-0.845102
8.23382
8.54828
2.76687
27.6019
943.09
977.145
26.9536
-0.870531
-0.856502
-0.812263
8.6315
8.31894
1.82565
34.0904
996.841
987.255
27.3524
-0.821104
-0.82579
-0.813908
7.4003
2.39391
1.5174
45.8693
1046.76
1053.66
46.2293
-0.808337
-0.810387
-0.792299
3.28961
2.88444
1.33719
74.3979
1106.08
1099.27
69.1353
-0.790917
-0.797545
-0.757179
4.44602
4.66731
1.32195
101.235
1138.58
1133.4
98.2211
-0.808138
-0.809168
-0.786392
1.36077
1.72578
1.31199
122.163
1142.95
1168.95
122.193
-0.876802
-0.585874
-0.827833
1.33599
1.33091
1.29371
131.505
1153.39
1189.51
135.147
-0.912898
0.0067566
-0.852982
2.61654
2.38827
1.25976
132.961
1169.1
1205.18
136.611
-0.929336
0.00698876
-0.348283
2.64833
2.69636
1.22136
122.31
1183.92
1215.09
123.49
-0.890145
0.0190596
0.323681
2.59162
2.63198
1.13342
109.823
1194.46
1236.59
118.055
-0.811632
0.0843282
0.372634
2.52604
2.33444
0.981802
113.347
1259.22
1242.48
109.239
-0.676303
0.163264
0.45838
2.51111
1.87838
0.896205
148.43
1307.86
1291.35
145.62
-0.575912
0.0390935
0.553091
2.26265
1.6563
0.83082
200.904
1344.89
1350.76
202.234
-0.537404
-0.0970284
0.074561
1.06657
1.5819
0.739149
241.218
1383.77
1381.28
236.876
-0.513923
-0.0723728
-0.164424
0.666024
1.21347
0.671276
259.929
1408.45
1406.95
255.967
-0.491245
-0.0816984
-0.349131
0.638483
0.78353
0.628538
271.916
1430.58
1430.7
268.182
-0.456754
0.0506403
-0.328326
0.61781
0.64022
0.601753
282.641
1454.38
1452.94
278.266
-0.401178
0.357388
0.0169168
0.592043
0.579352
0.578446
302.325
1480.9
1482.66
300.597
-0.336196
0.614058
0.739758
0.543276
0.543204
0.542742
342.893
1516.66
1513.37
341.359
-0.303268
0.625671
0.783021
0.500738
0.499702
0.500056
407.253
1554.02
1548.7
406.584
-0.296257
0.150304
0.825972
0.461827
0.463736
0.458114
477.757
1586.78
1580.98
475.645
-0.278866
-0.270488
0.457251
0.428888
0.430909
0.42273
541.591
1612.1
1612.86
539.221
-0.256749
-0.251242
-0.0783719
0.449135
0.399166
0.395119
578.416
1630.88
1641.91
585.264
-0.191322
-0.0869683
1.16725
0.430252
0.38954
0.36009
622.902
1669.45
1650.04
604.471
-0.0828301
1.22061
1.7243
0.388826
0.39065
0.487376
798.173
1702.51
1655.05
519.781
-0.016892
1.7172
1.7538
0.375806
0.303955
0.300842
769.379
1712.62
1719.62
789.082
-0.104325
0.464503
1.06909
0.391299
0.282487
0.277269
650.545
1711.71
1749.86
1065.17
-0.221842
-0.232185
-0.21882
0.373663
0.262387
0.278173
938.179
1752.01
1767.01
1108.15
8.41124
-0.236649
-0.15151
0.451677
0.242502
0.238181
1189.83
1782.39
1776.75
1053.08
12.9397
-0.213128
0.046587
0.236549
0.213501
64.4723
1534.92
1799.01
1793.1
956.768
-0.19999
-0.192772
0.0489603
0.175633
0.176474
269.606
1654.28
1817.22
1813.18
1189.25
-0.174517
-0.173088
-0.158172
0.152088
0.151374
475.505
1766
1834.97
1833.35
1358.17
-0.151047
-0.160367
-0.154695
0.128993
0.12597
700.696
1823.98
1853.9
1852.75
1613.06
108.759
-0.137594
-0.136527
0.108759
0.106467
1091.15
1872.09
1872.86
1872.62
1772.89
453.613
-0.116331
-0.11378
0.0938182
0.141778
1447
1891.08
1892.3
1892.41
1887.08
1014.6
-0.0850729
-0.0853083
0.0634862
426.433
1786.33
1910.94
1911.18
1910.56
1909.56
1560.51
50.5844
-0.0609675
0.0352132
1285.94
1926.35
1926.51
1926.62
1927.02
1927.3
1918.51
959.614
-0.0491505
779.865
1913.22
1939.38
1937.55
1936.69
1936.61
1937.22
1939.06
1833.9
532.144
825.303
825.295
826.289
827.698
828.762
829.385
829.429
829.143
828.232
827.259
826.41
825.276
823.851
821.588
820.18
819.437
817.31
814.156
800.382
791.013
784.753
780.007
775.812
768.95
764.688
762.36
759.431
766.425
776.781
790.527
805.771
822.236
836.253
847.176
854.611
858.674
860.099
861.678
862.432
862.777
821.651
822.367
822.987
826.254
827.69
828.22
828.445
828.279
827.525
826.006
824.028
822.205
820.166
818.123
817.313
817.734
814.252
812.488
793.513
783.769
778.131
768.686
763.369
760.38
756.295
749.233
750.395
754.683
764.096
777.552
792.511
807.76
821.656
833.199
840.246
845.396
849.677
854.919
859.377
860.642
814.987
814.275
815.394
822.729
825.455
826.01
826.212
825.743
824.807
823.28
821.452
818.505
814.53
810.678
809.04
807.246
803.788
784.062
767.86
760.177
771.604
772.895
759.371
751.035
745.146
733.899
735.464
733.482
740.815
750.016
762.056
776.229
789.481
802.923
816.73
829.776
841.348
848.794
858.038
865.27
809.881
805.498
805.724
809.89
822.802
823.715
823.624
823.078
821.822
820.043
817.827
814.204
805.62
801.769
797.337
801.07
792.498
754.775
737.203
729.803
730.413
761.28
765.721
762.329
747.969
722.411
709.442
698.162
692.276
696.011
710.567
734.739
753.894
771.178
786.326
797.776
811.442
831.788
855.56
874.947
800.129
799.149
800.818
802.42
813.511
823.156
822.65
821.862
820.545
818.643
816.142
810.136
801.919
798.301
795.594
795.876
769.778
732.024
726.603
720.547
717.259
714.428
715.666
730.485
746.458
737.12
719.963
689.553
672.215
674.828
678.784
710.14
733.546
749.965
763.914
760.99
751.492
757.561
802.218
829.326
814.073
800.937
801.156
801.956
802.04
815.641
823.516
822.28
820.79
818.789
816.424
807.66
802.162
797.603
805.381
797.898
769.102
727.422
726.88
723.634
719.361
716.041
712.776
709.422
712.147
745.883
746.675
733.615
717.029
719.108
701.247
695.942
703.583
740.628
750.98
745.934
706.112
700.075
725.967
776.843
833.25
832.034
810.289
804.737
803.509
801.635
825.23
823.455
821.83
819.963
817.558
805.174
801.125
804.875
805.149
800.798
795.637
771.304
752.815
752.768
763.3
765.175
760.73
755.52
743.993
752.506
756.785
750.599
745.796
742.653
741.461
728.266
697.372
741.492
752.854
758.235
708.578
685.894
689.788
773.674
836.686
837.056
836.05
822.318
812.882
816.154
825.432
823.419
821.5
819.007
811.309
799.524
797.399
804.271
801.75
798.59
793.215
791.179
789.991
782.721
785.671
799.707
795.585
786.727
777.476
764.121
765.389
761.717
758.78
756.935
757.015
725.603
697.691
736.446
760.637
765.739
723.193
688.702
703.687
763.395
839.283
838.899
837.502
834.878
831.196
828.982
826.221
823.658
820.744
817.165
799.326
795.264
790.67
798.132
799.081
795.978
784.268
737.438
703.26
698.41
701.427
754.689
783.646
780.442
774.698
761.535
769.038
768.246
764.747
762.041
760.37
738.349
710.858
744.321
762.174
759.932
680.897
676.078
752.033
749.191
842.083
841.352
839.607
836.436
825.42
815.163
823.273
824.338
821.783
819.017
803.866
795.066
788.99
799.853
801.009
791.47
756.615
703.291
699.269
696.869
696.597
715.733
777.279
778.981
763.559
763.427
774.428
772.398
753.49
720.348
697.238
653.856
673.508
704.277
664.711
635.197
620.161
693.117
765.502
747.373
847.297
846.181
844.254
840.424
825.207
815.233
812.001
821.26
824.644
822.467
818.486
796.671
791.91
804.131
805.826
790.369
712.112
705.487
703.795
702.047
701.36
759.129
787.475
728.674
768.224
715.384
671.275
648.595
636.248
633.214
630.335
628.383
633.234
619.019
589.199
588.639
601.791
752.65
775.603
753.414
827.95
848.015
848.975
845.282
840.765
832.818
824.66
819.953
822.134
824.838
814.842
795.53
793.679
793.98
813.027
811.159
785.438
705.07
704.602
703.127
707.178
810.03
807.108
700.026
672.928
653.577
649.487
643.913
638.97
635.466
635.351
635.803
675.363
632.949
586.015
586.296
587.261
765.981
789.364
765.738
826.787
824.839
845.074
842.41
834.323
825.73
824.399
821.122
823.312
822.976
803.906
806.041
801.985
807.031
813.835
814.565
814.307
761.59
712.444
734.199
821.76
823.247
812.447
757.918
742.132
742.821
734.912
697.534
692.703
633.964
672.601
675.661
672.465
610.051
582.103
582.414
591.484
765.341
804.665
780.317
827.963
820.876
818.04
839.319
836.68
795.801
749.812
754.908
754.451
769.345
797.099
807.773
811.408
810.41
811.83
813.101
814.343
808.804
769.356
785.343
824.127
824.388
821.329
817.467
815.315
814.591
817.451
821.635
825.19
789.706
771.495
641.381
579.559
578.515
579.311
579.689
596.81
773.321
821.065
795.159
845.698
817.907
812.409
823.106
832.542
811.685
718.898
711.301
704.598
697.798
699.249
719.978
772.845
786.161
804.129
810.096
815.747
818.376
820.398
820.373
822.355
825.883
824.838
822.853
814.466
819.391
821.983
826.434
830.699
793.035
613.815
577.85
578.271
578.532
578.719
579.01
594.666
774.109
832.933
826.689
833.379
834.536
806.813
806.706
825.487
828.054
774.623
700.929
695.885
690.841
684.904
680.14
678.472
681.1
760.96
794.457
800.338
816.925
824.407
822.953
822.766
830.082
828.205
806.325
785.64
817.869
823.69
830.517
837.635
734.397
588.232
578.203
578.55
578.681
578.198
595.696
657.937
779.897
848.276
857.44
815.694
820.493
823.23
799.321
812.63
829.041
831.521
807.881
707.253
692.297
690.01
687.705
685.575
685.689
698.99
806.951
814.374
771.636
713.372
714.77
810.2
840.553
792.653
692.005
738.731
815.996
826.612
836.014
839.956
837.32
789.007
678.465
624.499
622.241
652.1
790.013
845.377
813.484
837.255
893.032
791.097
802.498
812.658
811.276
809.162
813.641
834.188
840.202
829.242
787.054
749.82
764.861
705.675
693.678
710.754
815.87
821.031
784.424
703.916
702.38
705.738
708.225
684.616
681.302
678.142
791.003
832.674
835.303
842.209
807.271
753.303
687.98
755.655
871.373
896.087
903.364
913.456
882.677
866.53
893.837
763.206
783.788
801.728
814.983
813.036
816.356
836.35
844.416
847.699
849.629
848.92
849.531
845.954
831.345
760.663
786.191
825.665
825.301
825.908
754.287
689.387
687.007
683.167
679.848
675.529
786.589
822.39
755.269
738.439
742.454
728.202
694.351
728.193
784.648
875.503
926.163
940.266
945.315
891.428
897.002
727.247
775.249
799.704
816.788
829.732
838.362
847.289
853.53
857.969
860.865
862.506
863.43
863.936
863.731
862.777
823.266
810.028
810.229
813.805
810.944
803.462
808.627
787.745
679.566
675.789
677.256
681.294
688.167
804.397
833.545
783.231
723.481
735.492
748.593
800.16
923.039
959.703
978.032
948.7
922.831
671.294
781.158
806.689
825.958
840.327
851.469
860.432
867.463
872.726
876.103
877.914
860.212
831.094
829.925
858.218
874.544
873.176
849.248
812.318
809.614
809.107
826.962
819.034
790.711
674.989
675.767
679.235
684.385
797.664
885.387
887.449
798.896
747.337
799.939
924.961
959.03
979.233
995.9
1001.34
961.3
758.432
799.015
821.718
839.969
852.843
864.121
873.351
881.007
887.131
879.264
848.112
846.657
846.458
844.583
841.224
874.574
882.554
877.915
870.174
867.874
863.132
838.603
705.943
672.799
671.831
674.84
677.127
728.774
862.539
881.11
891.952
904.996
919.124
936.087
954.851
975.392
994.407
1010.79
986.159
963.05
802.043
820.125
836.61
851.278
863.257
873.915
883.246
891.802
883.738
853.564
857.179
858.63
879.314
907.839
903.439
896.681
889.874
883.028
875.951
868.97
858.47
706.456
669.638
667.265
665.5
737.732
845.56
860.473
865.686
875.935
888.775
903.543
920.318
939.34
959.979
981.457
1001.18
1019.12
999.55
972.192
801.657
821.196
843.431
859.248
869.256
878.878
888.212
896.927
904.148
909.763
915.123
917.65
882.671
864.098
900.347
901.738
892.62
883.131
873.876
865.323
857.076
802.548
713.162
767.446
794.336
785.403
672.999
719.339
838.975
860.791
860.292
876.69
911.901
935.14
956.652
979.438
1000.89
1019.61
1005.83
971.903
747.866
755.386
761.382
818.261
868.045
877.834
886.654
890.758
899.503
903.366
903.102
863.061
864.116
860.491
906.148
900.59
888.255
876.409
865.603
856.195
848.949
834.896
771.057
769.628
775.681
755.274
640.045
641.53
643.804
652.678
668.783
824.195
891.966
917.229
940.466
963.893
987.981
1007.1
999.466
956.954
744
750.588
757.458
763.397
787.029
857.178
859.299
840.451
843.719
850.743
865.463
859.608
864.834
900.523
901.359
886.864
871.244
856.412
843.43
832.575
822.405
813.609
687.537
617.058
615.085
615.866
621.03
626.236
630.513
633.998
640.186
783.672
865.777
887.185
905.378
930.618
954.259
972.109
972.17
922.188
813.809
819.169
788.559
752.256
756.114
796.052
808.934
764.563
741.275
765.984
804.176
870.582
891.612
888.48
876.991
860.181
842.507
825.499
811.485
800.866
793.092
774.932
603.37
591.741
598.038
633.773
766.122
784.195
740.898
688.745
756.745
810.578
814.202
825.491
797.949
806.809
884.699
913.112
901.839
890.068
792.927
778.709
784.592
786.763
772.7
688.607
563.922
467.497
430.853
453.75
510.152
676.387
845.651
858.336
847.591
832.449
814.896
797.04
766.569
712.845
660.956
657.2
693.623
727.348
735.181
744.948
763.361
763.484
755.803
742.705
730.122
667.71
548.206
496.117
459.562
556.213
807.755
859.284
813.709
838.403
672.783
565.281
593.567
611.569
468.509
401.564
402.039
402.063
401.082
403.956
408.866
477.113
788.931
840.938
828.501
812.865
795.841
636.816
438.537
307.563
267.647
272.483
301.758
540.175
692.746
756.727
750.794
731.169
671.281
648.996
506.403
397.91
395.373
400.408
416.843
525.407
776.114
797.923
781.818
803.592
635.461
516.338
462.633
451.945
436.506
423.904
413.384
427.114
407.774
492.448
549.822
489.471
766.851
837.451
823.955
806.893
597.198
265.308
250.527
249.475
249.41
249.946
250.473
502.861
696.224
763.791
690.158
661.12
678.831
745.815
500.042
402.603
402.87
407.366
425.783
696.015
785.785
795.996
784.027
793.88
730.977
749.192
762.882
778.477
756.26
738.365
756.329
783.156
747.261
845.764
854.303
665.651
808.413
838.053
828.195
802.382
336.757
249.67
249.071
248.382
248.248
248.481
248.896
351.939
629.841
703.725
696.821
694.607
796.754
793.532
730.928
544.84
460.876
517.908
694.453
793.46
806.853
822.691
801.915
809.97
558.935
633.291
697.135
749.359
790.695
815.414
827.956
832.933
837.741
840.154
841.909
842.718
840.926
844.454
840.219
751.456
318.161
248.793
248.252
247.766
248.071
247.784
248.558
250.05
427.314
680.033
790.847
817.648
815.772
813.601
811.028
800.239
781.541
789.979
799.902
811.696
805.198
847.209
850.018
838.921
210.813
217.936
259.16
319.359
398.316
498.935
641.936
771.745
819.861
831.153
839.841
845.697
821.411
850.161
858.282
752.95
333.991
249.5
248.883
248.425
248.576
248.2
248.637
249.11
295.603
697.603
836.387
835.394
834.239
833.664
832.699
833.235
835.68
839.362
796.919
735.299
748.048
820.966
907.282
912.865
213.666
216.857
220.721
224.547
228.04
229.99
235.147
373.969
668.365
826.96
845.18
854.229
686.267
735.452
884.073
775.482
347.654
250.82
250.281
249.758
249.925
249.053
248.949
249.007
290.149
718.784
858.535
855.487
852.865
850.904
850.387
851.641
852.606
798.247
731.537
742.287
753.501
817.864
914.725
921.263
216.905
218.675
221.847
225.919
229.448
231.299
233.118
234.634
280.875
683.067
861.856
872.892
647.561
638.968
893.017
767.309
340.463
251.558
250.964
250.403
250.56
249.51
249.13
248.93
311.575
729.117
888.926
817.35
640.977
597.264
745.661
868.134
871.543
746.196
744.937
752.834
762.68
840.017
909.071
843.955
220.876
221.539
299.284
438.385
415.299
274.017
233.841
234.87
236.568
521.084
864.017
874.551
631.527
634.931
888.153
704.557
323.543
251.364
250.849
250.378
250.095
249.385
249.048
248.885
307.205
559.542
551.69
384.759
288.254
280.034
366.098
688.308
875.521
817.7
756.764
759.549
870.26
775.409
671.461
664.349
254.995
458.029
761.857
825.424
822.037
637.37
263.267
234.489
234.537
531.988
871.878
735.198
642.922
645.573
879.544
643.312
344.291
250.801
250.424
249.796
249.166
248.61
248.25
248.046
247.964
263.275
262.217
263.118
265.698
269.384
272.84
342.786
709.533
865.205
862.107
857.966
874.611
851.937
678.469
655.747
719.157
826.747
812.75
812.942
815.453
810.759
510.623
235.361
263.909
707.585
871.989
709.588
657.772
737.923
873.084
641.988
423.083
305.91
249.899
248.777
247.997
247.479
252.817
373.187
354.097
262.74
262.95
263.145
263.536
267.624
270.084
274.169
350.259
766.248
879.887
868.882
858.746
827.883
631.274
635.335
837.677
811.398
790.109
754.642
697.434
721.602
550.927
288.321
575.316
840.683
872.237
704.368
663.428
862.266
873.069
622.992
762.58
869.956
818.981
520.476
257.177
250.589
365.349
605.292
617.879
466.984
383.935
341.171
348.576
358.912
353.449
342.611
409.542
762.877
890.113
881.149
867.713
866.535
743.702
712.485
824.201
765.803
578.519
341.232
127.375
124.58
329.724
762.579
804.29
826.241
854.559
662.812
644.165
872.398
873.673
594.353
747.186
874.575
871.941
865.101
737.507
648.386
644.502
578.374
670.957
784.129
793.918
804.062
813.891
823.37
827.086
827.586
832.44
882.885
910.816
908.41
903.785
890.799
747.288
835.112
755.132
338.142
107.306
92.4954
89.9887
94.3808
98.7125
484.08
778.003
803.99
668.454
587.964
676.572
868.903
830.539
531.579
541.259
793.75
865.956
870.289
874.053
874.505
866.3
570.533
365.21
533.824
680.074
657.739
606.94
676.998
864.351
920.39
923.627
925.614
927.323
930.493
870.774
775.739
772.343
869.66
344.581
141.032
109.461
90.7678
80.1472
74.3237
75.7896
334.479
589.708
676.82
527.57
556.799
829.056
852.109
753.384
508.3
515.421
521.12
780.367
870.175
872.643
874.038
871.732
740.42
314.807
282.355
278.742
268.68
259.64
267.284
310.922
419.72
674.095
857.61
909.521
933.048
887.726
855.097
776.603
778.791
258.147
231.642
356.514
134.357
99.5428
285.143
303.118
278.234
134.102
409.553
714.616
785.79
823.625
838.383
773.11
578.317
682.744
776.066
858.274
868.583
871.44
823.189
733.728
621.314
431.194
261.439
255.784
255.155
254.972
254.507
254.022
254.138
259.928
436.351
811.186
910.473
906.309
841.194
763.9
769.274
317.54
636.546
552.222
117.273
112.055
106.899
100.777
97.0878
102.611
476.256
764.348
803.771
737.453
441.566
433.334
782.72
857.026
863.379
867.081
871.39
874.804
793.288
733.272
809.37
766.61
364.751
252.548
252.927
252.875
252.598
252.876
252.452
258.552
401.336
673.971
847.901
901.363
890.613
794.047
780.475
514.577
948.306
907.795
403.049
128.112
123.656
118.443
117.597
123.925
247.974
713.115
839.735
484.073
205.248
209.273
295.922
412.389
654.282
864.288
872.534
877.134
880.014
862.557
885.643
888.909
720.081
267.016
252.409
251.862
251.348
250.7
249.708
575.197
837.59
890.683
911.932
910.906
861.874
847.967
946.626
826.674
954.614
944.7
921.725
662.719
470.71
451.941
496.717
558.556
737.572
771.819
405.04
203.802
206.33
208.245
209.924
213.816
221.882
348.506
767.806
877.585
883.12
872.524
889.02
895.573
901.93
708.983
469.057
458.843
435.024
589.757
724.901
921.004
917.278
911.471
887.115
729.953
713.839
953.598
976.05
944.034
950.491
953.204
950.808
845.754
848.424
950.375
949.742
954.215
964.619
791.359
257.945
204.941
207.066
208.652
209.806
211.126
213.872
330.445
723.3
828.398
661.914
659.139
715.082
862.179
898.43
857.066
718.393
644.474
554.72
614.723
750.871
846.971
835.968
645.433
637.701
635.454
826.198
983.629
983.592
953.398
956.226
957.711
874.324
802.388
965.752
966.971
968.057
972.368
978.686
984.384
768.763
341.621
207.652
208.707
271.696
519.752
805.413
972.935
1009.36
1016.26
975.376
655.086
471.637
469.238
463.508
454.846
444.05
431.628
431.753
432.642
437.878
450.737
643.884
795.862
693.455
829.706
990.54
989.884
962.854
974.587
972.271
905.417
803.945
802.974
805.85
941.419
978.818
981.829
985.556
989.856
988.587
935.655
891.837
888.485
932.202
1001.58
1018.73
1019.7
1021.48
1023.63
1025.63
1026.01
844.41
498.478
430.192
429.843
430.004
430.379
429.789
428.581
490.816
717.061
867.938
1023.76
1016.6
1025.71
997.872
961.078
960.568
992.251
987.485
968.453
817.1
810.575
809.23
809.362
913.696
989.254
993.528
998.723
985.926
959.4
1013.74
1018.68
1020.86
1023.01
1023.83
1024.42
1025.72
1027.86
1030.24
1032.8
1035.67
991.27
823.696
678.664
605.057
597.757
643.611
789.736
950.405
1036.4
1037.4
1035.94
1034.26
968.597
966.15
971.119
975.568
1004.31
998.294
993.96
991.811
942.426
869.387
860.504
971.099
995.381
998.535
1002.58
999.922
966.338
981.893
1026.78
1029.3
1028.11
1026.44
1026.79
1028.84
1030.67
1033.03
1035.5
1037.53
1039.57
1041.52
1039.32
1032.68
1031.04
1036.36
1043.95
1041.79
1039.31
1036.77
1034.66
1026.83
968.611
996.927
1030.15
1029.82
981.837
985.998
989.036
992.563
987.864
978.796
970.888
998.221
999.533
1001.44
1004.5
1009.59
1016.44
998.486
984.961
1020.24
1032.71
1032.9
1031.86
1015.99
1000.22
1034.33
1036.7
1038.6
1040
1040.96
1041.46
1041.61
1041.28
1040.3
1038.69
1036.79
1034.7
1032.85
1031.04
1029.47
1028.06
1026.58
1026.99
1026.9
331.692
305.173
348.021
449.101
554.646
654.238
676.529
617.44
601.564
585.283
620.773
791.482
955.822
1000.58
949.287
1022.66
1038.34
1038.1
1038.27
1038.67
989.314
964.549
1014.51
1039.28
1039.72
1040.19
1040.31
1039.56
1038.02
1035.78
1033.14
1030.55
1006.36
985.872
964.268
936.579
915.782
904.568
902.642
896.88
0.220943
-0.439716
-0.546482
0.624806
6.76496
23.9085
41.705
11.1755
-0.596702
-0.585012
-0.541201
55.4758
169.027
658.573
892.648
1042.09
1047.63
1048.53
1048.01
1047.37
1047.63
985.051
927.844
1033.47
1041.57
1041.16
1015.99
924.688
824.1
678.085
503.028
354.72
263.833
228.941
201.709
169.621
147.042
135.879
138.773
145.634
-0.518447
-0.689197
-0.848909
-0.932221
-0.907969
-0.877218
-0.825471
-0.529131
0.358208
0.514663
0.0239495
-0.0804999
0.690761
170.513
652.835
907.402
1029.77
1057.25
1024.7
1041.61
1027.55
1008.69
892.34
604.938
375.734
284.244
207.01
151.223
69.8048
20.0316
1.61028
-0.564299
-0.562285
-0.569083
-0.568867
-0.561967
-0.553616
-0.547478
-0.545944
-0.554067
4.01046
-0.992726
-1.02597
-0.95684
-0.896463
-0.851441
-0.811075
-0.764968
-0.718333
0.153259
0.211208
-0.437963
-0.668886
-0.943719
48.8863
159.834
348.857
431.054
331.151
337.797
279.185
431.953
617.411
263.503
2.70587
-0.255038
-0.314434
-0.418423
-0.630618
-0.663401
-0.667154
-0.660079
-0.648127
-0.631857
-0.611074
-0.591424
-0.578409
-0.57015
-0.565168
-0.559588
4.24826
1.08296
-0.920936
-0.897848
-0.872488
-0.849998
-0.738725
-0.781164
-0.776927
-0.755731
-0.571919
-0.633511
-0.828168
-0.869635
-0.840001
-0.738817
-0.484988
-0.226231
1.57072
1.36393
0.487692
0.517953
39.0173
20.3641
-0.391816
-0.422469
-0.405206
-0.486599
-0.693922
-0.704079
-0.714964
-0.707987
-0.690097
-0.589272
-0.496203
-0.592851
-0.594365
-0.582908
-0.572058
-0.547837
-0.503733
-0.606158
-0.795781
-0.816023
-0.822737
-0.685413
-0.662958
-0.657472
-0.746626
-0.838381
-0.835096
-0.831627
-0.836224
-0.842678
-0.850487
-0.84035
-0.819255
-0.778423
-0.63188
-0.490114
-0.498028
-0.707018
-0.659007
-0.373922
0.780645
-0.501622
-0.644763
-0.680214
-0.564346
-0.465434
-0.452088
-0.472217
-0.535381
-0.272182
-0.242901
-0.299366
-0.564365
-0.582238
-0.567489
-0.545327
-0.798961
-0.810149
-0.804264
-0.6072
-0.62319
-0.637438
-0.73685
-0.866573
-0.869388
-0.866631
-0.86152
-0.853278
-0.843763
-0.833974
-0.825271
-0.816755
-0.805779
-0.78008
-0.734209
-0.733374
-0.758161
-0.753148
-0.753271
-0.754376
0.323745
-0.238507
-0.756848
-0.754943
-0.731661
-0.737216
-0.72246
-0.459626
-0.289769
-0.256954
-0.230994
-0.206015
-0.347
-0.571627
-0.563909
-0.536705
-0.824856
-0.823618
-0.667658
-0.572746
-0.677583
-0.716587
-0.603164
-0.642775
-0.850889
-0.87381
-0.867567
-0.85905
-0.846449
-0.830377
-0.811718
-0.793227
-0.779498
-0.762918
-0.650304
-0.749315
-0.750587
-0.74376
-0.742629
-0.745048
-0.698719
-0.473925
-0.672074
-0.747641
-0.738253
-0.725209
-0.708628
-0.690039
-0.669527
-0.611375
-0.243654
-0.185414
-0.275587
-0.555324
-0.549167
-0.521385
-0.821551
-0.749062
-0.641155
-0.570116
-0.529255
-0.540638
-0.550137
-0.55425
-0.55457
-0.603118
-0.839922
-0.848722
-0.833754
-0.815396
-0.796328
-0.778315
-0.762349
-0.614214
-0.513697
-0.512857
-0.707217
-0.728467
-0.722477
-0.722518
-0.72284
-0.725443
-0.704378
-0.717805
-0.710337
-0.698132
-0.683744
-0.667394
-0.64831
-0.627615
-0.602309
-0.176632
-0.456662
-0.54233
-0.534042
-0.516288
-0.656592
-0.649841
-0.749539
-0.815553
-0.610536
-0.530314
-0.604746
-0.66519
-0.611786
-0.64171
-0.825725
-0.817816
-0.709718
-0.64269
-0.657978
-0.646804
-0.546953
-0.504496
-0.493925
-0.484805
-0.579541
-0.709494
-0.702788
-0.69792
-0.694084