/*--------------------------------*- C++ -*----------------------------------*\
  =========                 |
  \\      /  F ield         | OpenFOAM: The Open Source CFD Toolbox
   \\    /   O peration     | Website:  https://openfoam.org
    \\  /    A nd           | Version:  8
     \\/     M anipulation  |
\*---------------------------------------------------------------------------*/
FoamFile
{
    version     2.0;
    format      ascii;
    class       surfaceScalarField;
    location    "4.1";
    object      phi;
}
// * * * * * * * * * * * * * * * * * * * * * * * * * * * * * * * * * * * * * //

dimensions      [0 3 -1 0 0 0 0];

internalField   nonuniform List<scalar> 
18095
(
1.96783e-08
-1.72051e-07
1.52373e-07
2.31076e-08
-1.98009e-07
1.94579e-07
1.97739e-08
-2.05839e-07
2.09172e-07
1.0543e-08
-2.10494e-07
2.19725e-07
-7.30223e-10
-2.13331e-07
2.24605e-07
-1.15592e-08
-2.13503e-07
2.24332e-07
-2.01485e-08
-2.10801e-07
2.1939e-07
-2.31746e-08
-2.06025e-07
2.09051e-07
-1.97141e-08
-1.97955e-07
1.94495e-07
-1.71992e-07
1.52278e-07
1.55105e-08
-1.87562e-07
1.58035e-08
-1.98302e-07
1.21525e-08
-2.02188e-07
6.86188e-09
-2.05203e-07
4.56368e-10
-2.06926e-07
-6.16892e-09
-2.06878e-07
-1.19033e-08
-2.05066e-07
-1.58443e-08
-2.02084e-07
-1.55361e-08
-1.98264e-07
-1.87528e-07
6.82632e-09
-1.94388e-07
8.32119e-09
-1.99797e-07
7.11551e-09
-2.00982e-07
3.88131e-09
-2.01969e-07
-2.41465e-10
-2.02803e-07
-4.32158e-09
-2.02798e-07
-7.275e-09
-2.02113e-07
-8.35335e-09
-2.01006e-07
-6.83914e-09
-1.99778e-07
-1.94367e-07
4.53433e-09
-1.98922e-07
4.70298e-09
-1.99965e-07
3.6773e-09
-1.99956e-07
2.07685e-09
-2.00368e-07
5.15969e-11
-2.00778e-07
-1.96547e-09
-2.00781e-07
-3.60962e-09
-2.00469e-07
-4.70961e-09
-1.99906e-07
-4.54837e-09
-1.99939e-07
-1.98915e-07
1.07768e-09
1.1124e-09
1.15596e-09
7.87658e-10
9.83645e-12
-7.71013e-10
-1.23983e-09
-1.14576e-09
-1.08476e-09
-2.74462e-08
-1.96821e-07
2.24267e-07
-3.00423e-08
-1.98836e-07
2.01432e-07
-2.53835e-08
-2.00935e-07
1.96276e-07
-1.45182e-08
-2.00816e-07
1.89951e-07
-8.62389e-10
-2.01769e-07
1.88113e-07
1.34494e-08
-2.02341e-07
1.88029e-07
2.45608e-08
-2.01955e-07
1.90844e-07
2.9314e-08
-2.01263e-07
1.9651e-07
2.67221e-08
-1.98752e-07
2.01344e-07
-1.96512e-07
2.23234e-07
-9.87865e-09
-1.86942e-07
-1.53524e-08
-1.93362e-07
-1.31432e-08
-2.03144e-07
-4.97525e-09
-2.08984e-07
1.74571e-09
-2.0849e-07
7.66278e-09
-2.08258e-07
1.36866e-08
-2.07979e-07
1.51832e-08
-2.0276e-07
9.69618e-09
-1.93265e-07
-1.86816e-07
-1.05976e-08
-1.76344e-07
-8.4889e-09
-1.95471e-07
-6.44345e-09
-2.0519e-07
-4.90971e-09
-2.10518e-07
-5.56265e-10
-2.12843e-07
3.88317e-09
-2.12697e-07
5.99344e-09
-2.10089e-07
8.28663e-09
-2.05053e-07
1.05146e-08
-1.95493e-07
-1.76301e-07
-6.47726e-09
-1.69867e-07
-8.39953e-09
-1.93549e-07
-8.3644e-09
-2.05225e-07
-4.16288e-09
-2.14719e-07
-4.16518e-10
-2.1659e-07
3.5955e-09
-2.16709e-07
8.5558e-09
-2.15049e-07
8.80762e-09
-2.05305e-07
6.64451e-09
-1.9333e-07
-1.69657e-07
-1.74942e-08
-1.64633e-08
-1.25156e-08
-7.51039e-09
5.04429e-10
8.1273e-09
1.2468e-08
1.62144e-08
1.7379e-08
2.61352e-08
-1.62137e-07
1.36002e-07
3.24771e-08
-2.02277e-07
1.95935e-07
2.83447e-08
-2.13207e-07
2.17339e-07
1.69962e-08
-2.1746e-07
2.28809e-07
9.5481e-10
-2.17727e-07
2.33768e-07
-1.66109e-08
-2.16783e-07
2.34349e-07
-3.20758e-08
-2.14349e-07
2.29814e-07
-4.23759e-08
-2.07798e-07
2.18098e-07
-3.83948e-08
-1.95026e-07
1.91045e-07
-1.53236e-07
1.14841e-07
1.36965e-08
-1.75834e-07
1.48886e-08
-2.03469e-07
1.04789e-08
-2.08797e-07
2.39607e-09
-2.09377e-07
-6.66473e-09
-2.08666e-07
-1.55667e-08
-2.07881e-07
-2.18076e-08
-2.08108e-07
-2.3748e-08
-2.05857e-07
-1.92065e-08
-1.99567e-07
-1.72442e-07
9.31914e-09
-1.85153e-07
8.14082e-09
-2.02291e-07
6.09474e-09
-2.06751e-07
1.1831e-09
-2.04466e-07
-2.28986e-09
-2.05193e-07
-5.93703e-09
-2.04234e-07
-9.82354e-09
-2.04222e-07
-1.09896e-08
-2.04691e-07
-1.04831e-08
-2.00074e-07
-1.82926e-07
7.20514e-09
-1.92358e-07
5.00867e-09
-2.00095e-07
5.23522e-09
-2.06978e-07
8.93342e-10
-2.00124e-07
-7.26403e-10
-2.03573e-07
-2.70692e-09
-2.02254e-07
-7.86283e-09
-1.99066e-07
-7.18287e-09
-2.05371e-07
-8.11906e-09
-1.99138e-07
-1.91045e-07
3.1909e-08
3.32465e-08
2.25449e-08
1.23718e-08
-3.08828e-09
-1.73129e-08
-2.55353e-08
-3.43961e-08
-3.21894e-08
1.25831e-07
-1.84753e-09
-1.23983e-07
1.16072e-07
9.75864e-09
9.69335e-08
1.91383e-08
8.52463e-08
1.16872e-08
6.65486e-08
1.86977e-08
3.1578e-08
3.49705e-08
4.26081e-08
-1.10301e-08
7.40816e-08
-3.14734e-08
1.02164e-07
-2.80822e-08
-2.04415e-08
1.22605e-07
2.79458e-08
-1.68418e-08
-1.29517e-08
4.92074e-08
-1.15031e-08
3.63551e-08
3.19905e-08
1.8483e-08
2.95592e-08
1.83932e-08
1.87875e-08
4.29622e-08
1.04015e-08
6.46958e-08
-3.27637e-08
8.06627e-08
-4.74403e-08
1.01233e-07
-4.86521e-08
-4.0396e-08
1.21187e-07
-6.19062e-08
6.93342e-09
3.81309e-08
-1.04483e-07
3.10737e-08
-1.37792e-07
6.52998e-08
-1.30416e-07
2.2183e-08
-9.67334e-08
-1.48951e-08
-4.98456e-08
-3.64863e-08
-1.68963e-08
-6.5713e-08
1.90678e-08
-8.34044e-08
5.30996e-08
-8.26839e-08
-5.80757e-08
7.07793e-08
-2.72044e-07
5.89664e-08
2.20011e-07
-2.84389e-07
4.34185e-08
-2.20689e-07
1.60025e-09
-1.52783e-07
-4.57229e-08
-1.06866e-07
-6.08123e-08
-7.82248e-08
-6.51271e-08
-6.8274e-08
-7.56638e-08
-6.4542e-08
-8.71363e-08
-5.77027e-08
-8.95231e-08
-7.54e-08
-4.03782e-08
-2.42024e-07
4.13705e-08
2.5962e-07
-2.139e-07
1.52942e-08
-1.66116e-07
-4.61833e-08
-1.49194e-07
-6.26455e-08
-1.53413e-07
-5.65925e-08
-1.63283e-07
-5.52569e-08
-1.64069e-07
-7.48783e-08
-1.61087e-07
-9.01181e-08
-1.54138e-07
-9.64718e-08
-8.70825e-08
-1.42456e-07
-1.72601e-07
2.26736e-08
1.91298e-07
-1.7326e-07
1.59529e-08
-1.85409e-07
-3.40344e-08
-1.97575e-07
-5.0479e-08
-2.15465e-07
-3.87029e-08
-2.33747e-07
-3.69747e-08
-2.33161e-07
-7.54638e-08
-2.31611e-07
-9.1668e-08
-2.35612e-07
-9.24706e-08
-8.04888e-08
-2.42206e-07
-1.78976e-07
8.82667e-09
1.92823e-07
-1.70974e-07
7.95043e-09
-1.87856e-07
-1.71517e-08
-2.10944e-07
-2.73911e-08
-2.21943e-07
-2.7704e-08
-2.27881e-07
-3.10363e-08
-2.42455e-07
-6.089e-08
-2.53879e-07
-8.02443e-08
-2.647e-07
-8.16492e-08
-7.44895e-08
-2.70699e-07
-2.45517e-07
-6.44363e-09
2.60787e-07
-2.32248e-07
-5.31922e-09
-2.3436e-07
-1.50396e-08
-2.33084e-07
-2.86662e-08
-2.21584e-07
-3.92041e-08
-2.09175e-07
-4.34451e-08
-2.19179e-07
-5.08868e-08
-2.36122e-07
-6.3301e-08
-2.44705e-07
-7.30661e-08
-7.27499e-08
-2.46445e-07
-1.05305e-07
-1.9416e-08
1.18277e-07
-9.52514e-08
-1.53725e-08
-9.63313e-08
-1.39596e-08
-1.0481e-07
-2.01871e-08
-1.21521e-07
-2.24931e-08
-1.30067e-07
-3.48999e-08
-1.41538e-07
-3.9415e-08
-1.72832e-07
-3.20077e-08
-1.8357e-07
-6.23283e-08
-6.68476e-08
-1.89472e-07
-1.10948e-08
-5.15343e-08
4.32132e-08
1.69181e-08
-4.33853e-08
3.77456e-08
-3.47871e-08
4.88967e-08
-3.1338e-08
5.17019e-08
-2.52983e-08
4.01449e-08
-2.33428e-08
1.70486e-08
-1.63187e-08
-1.5455e-08
4.95991e-10
-6.87523e-08
-9.03111e-09
-2.54217e-08
-1.10178e-07
2.47771e-08
-6.89615e-08
-7.3498e-09
3.77547e-08
-5.63629e-08
5.39541e-08
-5.09864e-08
7.50805e-08
-5.24645e-08
9.62358e-08
-4.64536e-08
1.17755e-07
-4.48617e-08
1.36292e-07
-3.48557e-08
1.37218e-07
-4.3009e-10
9.6364e-08
3.18226e-08
4.58296e-08
2.51127e-08
5.97543e-08
-1.13916e-07
-1.47998e-08
1.08392e-07
-1.05001e-07
1.42064e-07
-8.46585e-08
1.58108e-07
-6.85086e-08
1.61488e-07
-4.98333e-08
1.55324e-07
-3.86972e-08
1.50551e-07
-3.00831e-08
1.59408e-07
-9.28761e-09
1.53842e-07
3.73884e-08
8.1644e-08
1.18028e-07
4.44432e-08
-1.62217e-07
3.85793e-09
9.45941e-08
-1.55152e-07
1.51584e-07
-1.41648e-07
1.99304e-07
-1.16229e-07
2.26822e-07
-7.73514e-08
2.29913e-07
-4.17883e-08
2.14902e-07
-1.50721e-08
2.02081e-07
3.53298e-09
2.12114e-07
2.7356e-08
6.4732e-08
2.29026e-07
1.04088e-07
-1.85109e-07
-8.11967e-08
1.33432e-07
-1.84495e-07
1.65162e-07
-1.73378e-07
1.99621e-07
-1.50689e-07
2.44384e-07
-1.22114e-07
2.88217e-07
-8.56212e-08
3.12403e-07
-3.92588e-08
3.1501e-07
9.2588e-10
3.09713e-07
3.26528e-08
6.23168e-08
3.12129e-07
2.0766e-07
-2.34634e-07
-1.58135e-07
2.58611e-07
-2.35446e-07
2.98188e-07
-2.12956e-07
3.22287e-07
-1.74787e-07
3.34545e-07
-1.34372e-07
3.5143e-07
-1.02506e-07
3.8253e-07
-7.03584e-08
4.08826e-07
-2.53704e-08
4.16265e-07
2.52139e-08
7.17243e-08
4.06857e-07
2.45767e-07
-3.32233e-07
-1.48169e-07
3.59008e-07
-3.48687e-07
4.60292e-07
-3.1424e-07
5.19604e-07
-2.34099e-07
5.31682e-07
-1.4645e-07
5.25231e-07
-9.60558e-08
5.17117e-07
-6.22446e-08
5.04224e-07
-1.24774e-08
4.93702e-07
3.57357e-08
6.94049e-08
4.96021e-07
3.32814e-07
-4.8042e-07
-1.84626e-07
4.78531e-07
-4.94404e-07
6.09564e-07
-4.45273e-07
6.9466e-07
-3.19194e-07
6.93156e-07
-1.44946e-07
6.6207e-07
-6.49694e-08
6.41683e-07
-4.18576e-08
6.36487e-07
-7.28147e-09
6.27036e-07
4.51867e-08
9.73959e-08
5.99045e-07
5.28088e-07
-5.97336e-07
-4.11171e-07
6.20146e-07
-5.86462e-07
7.03604e-07
-5.28731e-07
7.83197e-07
-3.98788e-07
8.03287e-07
-1.65036e-07
7.4107e-07
-2.75187e-09
6.6832e-07
3.08927e-08
6.51778e-07
9.26027e-09
6.79363e-07
1.76017e-08
9.97616e-08
6.76997e-07
6.6301e-07
-6.18032e-07
-6.42315e-07
6.56602e-07
-5.80054e-07
6.35167e-07
-5.07295e-07
6.68617e-07
-4.32238e-07
7.59558e-07
-2.55977e-07
7.68279e-07
-1.1472e-08
7.27911e-07
7.12613e-08
6.70907e-07
6.6264e-08
6.40873e-07
4.76356e-08
1.03918e-07
6.36717e-07
3.78992e-07
-5.24799e-07
-4.72225e-07
3.02004e-07
-5.03065e-07
2.63958e-07
-4.69249e-07
2.86653e-07
-4.54932e-07
3.9611e-07
-3.65434e-07
5.45666e-07
-1.61028e-07
6.57985e-07
-4.10576e-08
6.81757e-07
4.24911e-08
5.71449e-07
1.57944e-07
2.06303e-07
4.69064e-07
-3.51186e-07
-4.14753e-07
2.4114e-07
-3.97526e-07
-4.56725e-07
-3.39044e-07
-5.2773e-07
-2.52333e-07
-5.41643e-07
-1.46558e-07
-4.71209e-07
-5.96987e-08
-2.47887e-07
-1.24961e-08
-8.82601e-08
1.50998e-08
1.48948e-08
2.86018e-09
1.70184e-07
2.20867e-07
-1.1704e-08
-5.9888e-07
-4.27948e-07
6.12076e-07
-5.94673e-07
-4.60932e-07
-5.84496e-07
-5.37907e-07
-5.62524e-07
-5.63616e-07
-5.73836e-07
-4.59897e-07
-5.87916e-07
-2.33807e-07
-6.08062e-07
-6.81142e-08
-5.96866e-07
3.69966e-09
-4.53893e-07
2.72117e-08
7.74925e-08
-3.10519e-07
-7.05588e-07
-4.29994e-07
7.07634e-07
-7.09728e-07
-4.56793e-07
-7.50874e-07
-4.9676e-07
-7.99977e-07
-5.14512e-07
-8.30371e-07
-4.29503e-07
-7.72549e-07
-2.91629e-07
-6.545e-07
-1.86163e-07
-5.58051e-07
-9.27494e-08
-5.12535e-07
-1.83038e-08
2.34482e-08
-4.58491e-07
-7.2911e-07
-4.34666e-07
7.33782e-07
-7.43066e-07
-4.42837e-07
-8.01216e-07
-4.38609e-07
-9.1085e-07
-4.04879e-07
-9.86397e-07
-3.53956e-07
-9.67419e-07
-3.10606e-07
-9.14863e-07
-2.3872e-07
-8.25095e-07
-1.82517e-07
-7.07302e-07
-1.36097e-07
-8.81526e-08
-5.95701e-07
-7.13131e-07
-4.50594e-07
7.29059e-07
-7.05535e-07
-4.50433e-07
-7.22044e-07
-4.221e-07
-7.71966e-07
-3.54957e-07
-8.50423e-07
-2.75499e-07
-9.13749e-07
-2.4728e-07
-9.14011e-07
-2.38459e-07
-8.77343e-07
-2.19185e-07
-8.15524e-07
-1.97917e-07
-1.72854e-07
-7.30822e-07
-7.11621e-07
-4.69121e-07
7.30148e-07
-6.91635e-07
-4.70419e-07
-6.83935e-07
-4.29801e-07
-7.20355e-07
-3.18537e-07
-7.89469e-07
-2.06385e-07
-8.3623e-07
-2.00518e-07
-8.50101e-07
-2.24589e-07
-8.38119e-07
-2.31166e-07
-8.06572e-07
-2.29464e-07
-2.29613e-07
-7.49813e-07
-7.54182e-07
-4.73391e-07
7.58452e-07
-7.58438e-07
-4.66163e-07
-7.74729e-07
-4.1351e-07
-8.24828e-07
-2.68438e-07
-8.44288e-07
-1.86925e-07
-8.60849e-07
-1.83958e-07
-8.62913e-07
-2.22524e-07
-8.35431e-07
-2.58649e-07
-7.75791e-07
-2.89103e-07
-3.14054e-07
-6.9135e-07
-8.53036e-07
-4.35244e-07
8.14889e-07
-8.99125e-07
-4.20074e-07
-9.65821e-07
-3.46814e-07
-9.98613e-07
-2.35645e-07
-9.77109e-07
-2.0843e-07
-9.49902e-07
-2.11164e-07
-9.28425e-07
-2.44001e-07
-8.8602e-07
-3.01054e-07
-8.2349e-07
-3.51634e-07
-3.89266e-07
-7.48278e-07
-8.61196e-07
-3.3977e-07
7.65722e-07
-9.30973e-07
-3.50296e-07
-9.65616e-07
-3.12172e-07
-9.64894e-07
-2.36367e-07
-9.40862e-07
-2.32464e-07
-9.07247e-07
-2.44777e-07
-8.81438e-07
-2.69811e-07
-8.40683e-07
-3.41809e-07
-8.00582e-07
-3.91735e-07
-4.20166e-07
-7.69682e-07
-7.20278e-07
-2.51297e-07
6.31805e-07
-7.85344e-07
-2.8523e-07
-7.99045e-07
-2.9847e-07
-7.48451e-07
-2.86961e-07
-7.07151e-07
-2.73764e-07
-6.48028e-07
-3.03901e-07
-5.87853e-07
-3.29986e-07
-5.80434e-07
-3.49228e-07
-6.03036e-07
-3.69133e-07
-3.9845e-07
-6.24752e-07
-5.51874e-07
5.71235e-08
2.43454e-07
-5.6677e-07
-2.70335e-07
-5.68148e-07
-2.97092e-07
-5.41235e-07
-3.13874e-07
-4.77017e-07
-3.37982e-07
-4.52546e-07
-3.28373e-07
-4.35646e-07
-3.46885e-07
-4.02766e-07
-3.82108e-07
-3.69684e-07
-4.02215e-07
-3.89745e-07
-3.78389e-07
4.2552e-07
5.34323e-07
-9.02719e-07
1.97365e-08
1.35448e-07
-2.37201e-07
-4.01547e-08
-3.21732e-07
-2.29343e-07
-3.13603e-07
-3.46112e-07
-2.78983e-07
-3.62992e-07
-2.32392e-07
-3.93477e-07
-2.27563e-07
-3.86938e-07
-2.24717e-07
-4.05061e-07
-4.12182e-07
-2.0228e-07
1.71797e-06
5.43523e-07
-1.72717e-06
1.4515e-06
4.0192e-07
1.09164e-06
3.19709e-07
8.06575e-07
5.57166e-08
5.30403e-07
-6.99401e-08
2.67763e-07
-1.00353e-07
7.9589e-08
-2.05304e-07
2.01627e-08
-3.27511e-07
2.66959e-08
-4.11596e-07
-4.46185e-07
6.0698e-08
1.75112e-06
4.28728e-07
-1.63632e-06
1.73156e-06
4.21483e-07
1.72763e-06
3.23636e-07
1.59722e-06
1.86125e-07
1.39765e-06
1.29628e-07
1.20657e-06
9.07204e-08
1.00868e-06
-7.41232e-09
8.14844e-07
-1.33672e-07
6.44167e-07
-2.4092e-07
-3.39519e-07
5.375e-07
1.32442e-06
1.73387e-07
-1.06908e-06
1.50675e-06
2.39148e-07
1.56649e-06
2.63903e-07
1.5054e-06
2.47211e-07
1.42741e-06
2.07617e-07
1.37497e-06
1.4316e-07
1.29439e-06
7.31724e-08
1.14895e-06
1.17635e-08
9.98578e-07
-9.05463e-08
-1.96813e-07
8.55871e-07
7.71864e-07
1.06902e-07
-7.05379e-07
9.16445e-07
9.45654e-08
1.06308e-06
1.17273e-07
1.15537e-06
1.54912e-07
1.18178e-06
1.81208e-07
1.15376e-06
1.71176e-07
1.07833e-06
1.48605e-07
1.00857e-06
8.15182e-08
9.05721e-07
1.23082e-08
-9.63548e-08
8.05263e-07
5.59134e-07
1.34978e-07
-5.8721e-07
5.64514e-07
8.91855e-08
5.98138e-07
8.36507e-08
6.45951e-07
1.07099e-07
6.73528e-07
1.53633e-07
6.69941e-07
1.74763e-07
6.43024e-07
1.75522e-07
5.63315e-07
1.61227e-07
4.69571e-07
1.06052e-07
-1.58235e-07
5.31451e-07
4.65258e-07
2.01832e-07
-5.32112e-07
4.07095e-07
1.47348e-07
3.57485e-07
1.3326e-07
3.22486e-07
1.42097e-07
2.93255e-07
1.82864e-07
2.66566e-07
2.01451e-07
2.44873e-07
1.97216e-07
2.4816e-07
1.5794e-07
3.98145e-07
-4.39319e-08
-4.4289e-07
6.82801e-07
4.52565e-07
2.41269e-07
-4.92002e-07
3.91188e-07
2.08726e-07
3.00931e-07
2.23517e-07
1.93849e-07
2.49179e-07
1.38539e-07
2.38174e-07
1.58171e-07
1.81819e-07
2.27051e-07
1.28336e-07
3.80167e-07
4.82358e-09
6.98323e-07
-3.62088e-07
-6.75036e-07
9.30468e-07
3.7303e-07
2.68289e-07
-4.00049e-07
3.04804e-07
2.76951e-07
2.11273e-07
3.17049e-07
1.30021e-07
3.30432e-07
1.19917e-07
2.48278e-07
2.34983e-07
6.67529e-08
3.67742e-07
-4.42366e-09
5.97261e-07
-2.24695e-07
8.84523e-07
-6.49349e-07
-8.83711e-07
1.0932e-06
1.65257e-07
3.15554e-07
-2.12523e-07
1.1376e-07
3.28449e-07
9.93439e-08
3.31466e-07
1.32099e-07
2.97676e-07
2.05051e-07
1.75327e-07
2.71292e-07
5.11972e-10
3.84973e-07
-1.18104e-07
7.21213e-07
-5.60935e-07
9.55174e-07
-8.8331e-07
-1.01243e-06
1.0839e-06
-1.54287e-07
2.62069e-07
2.07772e-07
-2.62483e-08
2.0041e-07
1.00484e-07
2.04734e-07
2.81072e-07
1.17088e-07
3.71371e-07
8.50295e-08
3.30869e-07
4.10142e-08
5.1813e-07
-3.05365e-07
7.62207e-07
-8.05013e-07
8.68623e-07
-9.89725e-07
-1.01421e-06
8.70402e-07
-3.06668e-09
1.60099e-07
1.05037e-07
6.07272e-08
1.36616e-07
1.47479e-07
1.17982e-07
1.74213e-07
9.0353e-08
1.8754e-07
7.17027e-08
2.75673e-07
-4.71179e-08
5.5128e-07
-5.80972e-07
6.95248e-07
-9.48981e-07
7.06979e-07
-1.00146e-06
-9.06497e-07
5.99264e-07
-1.71294e-08
1.08788e-07
6.84404e-08
2.51346e-08
9.4352e-08
5.36716e-08
8.94451e-08
7.70839e-08
6.69404e-08
1.42704e-07
6.08194e-09
3.78333e-07
-2.82747e-07
6.37578e-07
-8.40216e-07
6.74648e-07
-9.86052e-07
6.17232e-07
-9.4404e-07
-6.56328e-07
3.67062e-07
-3.15362e-08
8.99963e-08
5.03284e-08
-2.01565e-08
8.29727e-08
-7.17674e-09
7.64653e-08
-4.58232e-09
6.4346e-08
1.47727e-07
-1.46227e-07
6.11858e-07
-7.46878e-07
8.06795e-07
-1.03515e-06
8.20695e-07
-9.99952e-07
5.76613e-07
-6.99958e-07
-1.36669e-07
5.69541e-08
-5.42756e-08
9.34633e-08
5.08085e-08
-8.39168e-08
1.12613e-07
-1.35936e-07
1.28484e-07
-1.68932e-07
9.73422e-08
2.872e-07
-6.02358e-07
7.00804e-07
-1.16048e-06
8.27844e-07
-1.16219e-06
6.98312e-07
-8.70421e-07
1.09617e-07
-1.11263e-07
2.06785e-07
-2.33836e-07
-6.19811e-08
1.0335e-07
5.20941e-08
-9.94825e-08
1.50115e-07
-1.35074e-07
1.64075e-07
-1.19554e-07
8.18228e-08
3.28255e-07
-1.05017e-06
5.10674e-07
-1.3429e-06
4.66329e-07
-1.11785e-06
-7.66725e-08
-3.27418e-07
-4.59583e-07
2.71647e-07
1.72681e-07
-4.25479e-07
-6.86155e-08
9.65686e-08
7.53973e-08
-5.34428e-08
1.34942e-07
-3.9668e-08
1.50301e-07
-1.75287e-10
4.23299e-08
1.72792e-07
-1.22313e-06
2.17576e-07
-1.38769e-06
-1.07302e-07
-7.92972e-07
-5.32335e-07
9.76165e-08
-4.91496e-07
2.30807e-07
1.56522e-07
-4.75337e-07
-9.00426e-08
5.1095e-08
1.35516e-07
-3.71316e-08
8.20305e-08
4.56897e-09
1.086e-07
3.11003e-08
1.57986e-08
9.06715e-08
-1.28271e-06
3.77793e-08
-1.33479e-06
-4.24254e-07
-3.30939e-07
-5.52887e-07
2.2625e-07
-5.46404e-07
2.24325e-07
1.48529e-07
-5.38412e-07
-1.39507e-07
-3.01352e-09
1.93616e-07
-7.20333e-08
1.4557e-08
-5.47055e-09
4.20373e-08
3.5038e-08
-2.471e-08
5.0906e-08
-1.29857e-06
2.00216e-09
-1.28589e-06
-3.77633e-07
4.86961e-08
-4.47579e-07
2.96194e-07
-4.89079e-07
2.65825e-07
1.70203e-07
-5.10753e-07
-1.79231e-07
-3.16418e-08
2.07859e-07
-1.3355e-07
-3.11238e-08
-8.85336e-08
-2.97954e-09
3.11262e-08
-1.4437e-07
3.2433e-08
-1.29988e-06
4.37397e-09
-1.25783e-06
-2.13562e-07
2.66634e-07
-3.05532e-07
3.88165e-07
-3.4563e-07
3.05923e-07
1.75641e-07
-3.51068e-07
-1.69612e-07
4.28656e-08
9.51045e-08
-2.09047e-07
8.31135e-09
-2.40773e-07
2.8746e-08
-2.02724e-08
-3.6487e-07
5.63841e-09
-1.32579e-06
4.6777e-08
-1.29897e-06
-1.50304e-07
4.63715e-07
-2.29827e-07
4.67687e-07
-1.62528e-07
2.38624e-07
1.88133e-07
-1.7502e-07
-6.3167e-08
4.35664e-08
6.24732e-08
-1.63935e-07
1.09077e-07
-5.08629e-07
3.7344e-07
-3.19673e-08
-8.41533e-07
-5.17269e-08
-1.30603e-06
-7.91946e-08
-1.2715e-06
-2.02493e-07
5.87012e-07
-2.49925e-07
5.1512e-07
-1.5576e-07
1.44458e-07
2.56626e-07
-2.24253e-07
-8.63982e-07
-6.49511e-08
9.72496e-07
-8.40251e-07
8.53464e-08
-4.76858e-07
1.0049e-08
2.80753e-09
-1.3212e-06
-1.96585e-08
-1.28357e-06
-9.88077e-10
-1.29017e-06
4.89782e-07
9.62424e-08
1.63052e-07
8.41852e-07
-1.89253e-07
4.96763e-07
4.29548e-07
-3.62174e-07
-5.14333e-07
-1.42312e-07
5.91695e-07
-3.56105e-07
-7.28839e-08
-1.48129e-08
-3.31239e-07
-5.45144e-08
-1.28149e-06
-5.05386e-08
-1.28754e-06
-5.66479e-08
-1.28406e-06
9.34044e-07
-8.94452e-07
7.93888e-07
9.82006e-07
3.47757e-07
9.42898e-07
6.8646e-07
9.08436e-08
-1.11412e-07
-1.93087e-07
1.62188e-07
-7.64433e-08
-1.07854e-07
-5.75754e-09
-4.01919e-07
-3.94343e-08
-1.24782e-06
-3.68162e-08
-1.29016e-06
-4.54672e-08
-1.27541e-06
3.60926e-07
-1.30084e-06
8.00427e-07
5.42509e-07
8.8006e-07
8.6326e-07
7.02257e-07
8.64268e-07
-1.30341e-07
-2.03882e-07
1.41133e-07
-2.36456e-08
-2.14549e-07
1.43744e-08
-4.39932e-07
1.59262e-09
-1.23504e-06
-1.01595e-08
-1.27841e-06
-8.18668e-09
-1.27738e-06
-3.45769e-08
-1.27445e-06
6.35192e-07
-1.27276e-07
9.80314e-07
5.18143e-07
5.64644e-07
1.11792e-06
-5.9123e-08
-2.11971e-07
6.72101e-08
1.8449e-08
-2.92133e-07
5.24443e-09
-4.2673e-07
-2.8617e-09
-1.22693e-06
-9.45797e-09
-1.27181e-06
-1.6925e-08
-1.26992e-06
-3.21793e-08
-1.2592e-06
4.81571e-07
-6.41015e-07
8.83138e-07
1.16568e-07
3.08822e-07
1.13897e-06
-5.76756e-09
-1.94348e-07
-1.18555e-08
2.31877e-08
-3.2109e-07
2.63139e-08
-4.29865e-07
1.78286e-08
-1.21845e-06
7.1427e-09
-1.26112e-06
-8.74265e-10
-1.2619e-06
-7.79173e-09
-1.25227e-06
1.01721e-07
-7.50541e-07
3.37397e-07
-1.19103e-07
1.00284e-07
5.45931e-07
9.0172e-09
-1.48202e-07
-5.5163e-08
3.22194e-08
-3.44267e-07
2.55037e-08
-4.23148e-07
1.31947e-08
-1.20614e-06
-1.71744e-10
-1.24776e-06
-1.7733e-08
-1.24434e-06
-3.10468e-08
-1.23896e-06
-1.87598e-08
-7.62828e-07
6.99992e-08
-2.07868e-07
-2.39829e-08
1.94264e-07
1.03064e-07
-1.2453e-07
-1.26737e-07
5.33246e-08
-2.94537e-07
4.39819e-08
-4.13812e-07
2.85327e-08
-1.19069e-06
2.82846e-09
-1.22205e-06
-1.38712e-08
-1.22764e-06
-3.81319e-08
-1.2147e-06
-7.4029e-08
-7.26935e-07
-3.71291e-08
-2.44767e-07
-1.03444e-07
4.23371e-08
1.43268e-07
-9.83752e-08
-1.69424e-07
4.18168e-08
-1.93076e-07
1.16035e-08
-3.83601e-07
1.77276e-09
-1.18086e-06
-1.86226e-08
-1.20166e-06
-4.3111e-08
-1.20315e-06
-6.30419e-08
-1.19477e-06
-9.05645e-08
-6.99411e-07
-6.64186e-08
-2.68913e-07
-1.56717e-07
-1.31514e-08
2.08371e-07
-1.10734e-07
-1.96011e-07
1.08455e-07
-9.31587e-08
-4.0395e-09
-2.71105e-07
-1.48768e-08
-1.17002e-06
-2.98203e-08
-1.18672e-06
-6.03554e-08
-1.17262e-06
-7.02467e-08
-1.18488e-06
-9.30117e-08
-6.7664e-07
-8.96413e-08
-2.72285e-07
-1.70682e-07
-7.56752e-08
1.78646e-07
-1.99361e-07
-9.00181e-08
3.47313e-08
5.07561e-08
5.19956e-08
-2.88367e-07
4.89954e-08
-1.16702e-06
1.7298e-08
-1.15502e-06
4.10593e-09
-1.15942e-06
-9.95488e-09
-1.17082e-06
-5.70388e-08
-6.29558e-07
-8.44932e-08
-2.44829e-07
-1.39832e-07
-1.15341e-07
-1.01815e-07
-1.19729e-07
2.21827e-08
-1.03423e-07
5.23679e-08
2.89664e-08
-4.20754e-07
1.33212e-08
-1.15137e-06
-2.21388e-09
-1.13948e-06
-2.55394e-08
-1.1361e-06
-4.34891e-08
-1.15287e-06
-6.37749e-08
-6.09271e-07
-1.05619e-07
-2.02975e-07
-8.62787e-08
-1.59173e-07
-2.11124e-07
-1.08376e-09
9.24784e-08
-1.85751e-07
2.69955e-08
3.30627e-08
-6.39566e-07
2.35482e-08
-1.14186e-06
5.20677e-09
-1.12114e-06
-8.88144e-09
-1.12201e-06
-2.98524e-08
-1.1319e-06
-4.55091e-08
-5.93611e-07
-9.36462e-08
-1.54842e-07
-2.2702e-08
-1.57224e-07
-1.71579e-08
-1.44262e-07
1.60335e-07
2.17659e-08
-1.19315e-08
4.50702e-08
-6.62873e-07
1.87677e-08
-1.11556e-06
2.46116e-09
-1.10484e-06
-1.05243e-08
-1.10902e-06
-3.1313e-08
-1.11111e-06
-3.74976e-08
-5.87429e-07
-5.23428e-08
-1.39997e-07
5.05986e-08
-1.25642e-07
-3.8406e-07
-2.86229e-07
5.26027e-07
-4.90248e-08
-3.46968e-07
1.17301e-08
-7.23632e-07
-9.05845e-09
-1.09477e-06
-2.02188e-08
-1.09368e-06
-3.80588e-08
-1.09118e-06
-5.60888e-08
-1.09308e-06
-3.97471e-08
-6.03773e-07
-5.55718e-08
-1.24163e-07
9.40674e-08
-9.9039e-08
-2.078e-07
-3.90588e-07
3.12157e-07
2.88409e-08
-5.83607e-07
1.31584e-08
-7.07951e-07
-1.00258e-09
-1.0806e-06
-1.31973e-08
-1.08148e-06
-2.48477e-08
-1.07953e-06
-3.69389e-08
-1.08099e-06
-1.52195e-08
-6.25491e-07
-4.03436e-08
-9.90381e-08
9.56338e-08
-4.19097e-08
4.38509e-08
-4.34594e-07
1.56325e-10
3.5425e-08
-5.75178e-07
2.04171e-08
-6.92942e-07
9.9213e-09
-1.07011e-06
-5.81491e-09
-1.06574e-06
-1.59649e-08
-1.06938e-06
-2.68893e-08
-1.07007e-06
-2.70866e-08
-6.25294e-07
-5.02811e-08
-7.58462e-08
7.85876e-08
-3.32358e-08
1.30474e-07
-4.90058e-07
-7.50066e-08
6.91545e-08
-5.13851e-07
1.05842e-08
-6.3437e-07
2.66942e-10
-1.05979e-06
-1.35634e-08
-1.05191e-06
-3.70124e-08
-1.04593e-06
-4.81742e-08
-1.0589e-06
-6.47938e-08
-6.08675e-07
-3.54982e-08
-1.05143e-07
-2.5322e-09
4.56239e-08
1.00478e-07
-5.09078e-07
-8.14575e-08
6.74376e-08
-4.80807e-07
4.43692e-08
-6.11305e-07
2.68809e-08
-1.0423e-06
2.32444e-09
-1.02736e-06
-1.76052e-08
-1.026e-06
-3.55166e-08
-1.04099e-06
-5.23973e-08
-5.91793e-07
-2.29493e-08
-1.3459e-07
-6.74908e-08
4.20088e-08
7.54249e-08
-5.1817e-07
-6.63308e-08
5.00673e-08
-4.55439e-07
6.36559e-08
-6.24888e-07
4.1852e-08
-1.0205e-06
1.20621e-08
-9.97567e-07
-9.77194e-09
-1.00417e-06
-3.0994e-08
-1.01977e-06
-5.30158e-08
-5.6977e-07
-2.29307e-08
-1.64677e-07
-1.19597e-07
2.91731e-08
8.23374e-08
-4.91351e-07
-1.09157e-07
4.67135e-08
-4.19813e-07
3.23904e-08
-6.10567e-07
1.1611e-08
-9.99719e-07
-6.23141e-09
-9.79725e-07
-3.41884e-08
-9.76213e-07
-5.43469e-08
-9.99616e-07
-4.99237e-08
-5.74194e-07
-7.26964e-08
-1.41906e-07
-1.302e-07
-6.2094e-08
1.19892e-07
-4.36745e-07
-1.74498e-07
5.78651e-08
-3.57779e-07
3.98372e-08
-5.92539e-07
2.00887e-08
-9.79973e-07
1.1981e-09
-9.60834e-07
-1.6822e-08
-9.58193e-07
-3.62108e-08
-9.80227e-07
-2.65836e-08
-5.83825e-07
-8.47078e-08
-8.37817e-08
-5.23133e-08
-1.62594e-07
9.31019e-08
-3.65434e-07
-1.6441e-07
1.66925e-08
-2.81361e-07
3.98369e-08
-6.15679e-07
2.06696e-08
-9.60804e-07
5.67147e-09
-9.45836e-07
-9.56551e-09
-9.42956e-07
-2.99395e-08
-9.59852e-07
-2.08895e-08
-5.92875e-07
-7.16289e-08
-3.30404e-08
3.65381e-08
-1.60484e-07
7.65272e-08
-2.89468e-07
-1.52492e-07
1.12799e-08
-2.16121e-07
4.29373e-08
-6.47336e-07
2.39142e-08
-9.4178e-07
5.00906e-09
-9.26931e-07
-1.25249e-08
-9.25422e-07
-3.26978e-08
-9.39678e-07
-3.77076e-08
-5.87866e-07
-8.07209e-08
9.96974e-09
1.17921e-07
-1.62106e-07
1.05281e-07
-2.11056e-07
-1.8369e-07
4.06749e-08
-1.51528e-07
4.07864e-08
-6.47439e-07
2.22461e-08
-9.23237e-07
3.41806e-09
-9.08103e-07
-1.51381e-08
-9.06866e-07
-3.3512e-08
-9.21304e-07
-5.08566e-08
-5.70522e-07
-9.40844e-08
5.31937e-08
1.69324e-07
-1.45488e-07
1.45153e-07
-1.30292e-07
-2.25916e-07
6.83148e-08
-7.47087e-08
4.40169e-08
-6.23148e-07
2.38055e-08
-9.03031e-07
1.92504e-09
-8.86222e-07
-2.01472e-08
-8.84794e-07
-4.02844e-08
-9.01166e-07
-6.49611e-08
-5.45846e-07
-1.25207e-07
1.1344e-07
1.95814e-07
-1.51699e-07
1.09049e-07
-3.33903e-08
-2.05952e-07
5.40706e-08
-1.97184e-08
4.24909e-08
-6.11564e-07
2.16927e-08
-8.82228e-07
7.51158e-10
-8.65281e-07
-2.33129e-08
-8.6073e-07
-4.45377e-08
-8.79942e-07
-6.12049e-08
-5.29178e-07
-1.47548e-07
1.99782e-07
2.01439e-07
-1.53172e-07
8.89331e-08
6.25924e-08
-1.84918e-07
5.58963e-08
1.33076e-08
5.02354e-08
-6.05917e-07
2.78957e-08
-8.59894e-07
3.50231e-09
-8.40887e-07
-2.22933e-08
-8.34934e-07
-4.4334e-08
-8.57902e-07
-2.69738e-08
-5.46538e-07
-8.26343e-08
2.55439e-07
2.08958e-07
-9.01525e-08
6.17127e-08
1.12611e-07
-1.11732e-07
4.56949e-08
2.93549e-08
4.93496e-08
-6.09562e-07
2.43528e-08
-8.34897e-07
-4.19694e-10
-8.16115e-07
-2.24216e-08
-8.12932e-07
-4.73393e-08
-8.32985e-07
-3.16967e-08
-5.6218e-07
-1.65321e-08
2.4027e-07
2.2116e-07
-2.87366e-08
5.27062e-08
1.29269e-07
-6.93686e-08
5.1811e-08
3.02383e-08
5.3466e-08
-6.11227e-07
2.85095e-08
-8.09942e-07
-2.57979e-09
-7.85026e-07
-2.20411e-08
-7.93471e-07
-4.62022e-08
-8.08824e-07
-5.19283e-08
-5.56454e-07
1.81371e-08
1.70202e-07
2.19534e-07
1.97598e-08
4.76076e-08
1.50838e-07
-6.91759e-08
4.42739e-08
3.35802e-08
4.11524e-08
-6.08101e-07
1.59038e-08
-7.84693e-07
-7.459e-09
-7.61663e-07
-2.40251e-08
-7.76905e-07
-4.73648e-08
-7.85482e-07
-6.29882e-08
-5.40834e-07
1.28285e-08
9.43809e-08
2.49017e-07
-1.66577e-08
3.70184e-08
1.63662e-07
-4.98419e-08
4.89754e-08
2.16112e-08
3.21531e-08
-5.91275e-07
1.25945e-08
-7.65132e-07
1.31475e-08
-7.62216e-07
-2.47025e-08
-7.39055e-07
-4.35867e-08
-7.66597e-07
-6.75878e-08
-5.16837e-07
-9.06832e-08
1.17471e-07
2.47238e-07
-8.89069e-08
1.27597e-08
1.54796e-07
-3.89302e-09
8.12291e-08
-4.68611e-08
1.2138e-07
-6.31426e-07
9.86086e-08
-7.42359e-07
6.03628e-08
-7.2397e-07
5.31105e-08
-7.31803e-07
2.31169e-08
-7.36602e-07
-3.57187e-08
-4.58006e-07
-1.28425e-07
2.10175e-07
2.33359e-07
-1.14547e-07
-2.85071e-08
1.29639e-07
5.36659e-08
-1.01904e-08
-6.51689e-08
9.93033e-09
-6.5155e-07
-1.356e-08
-7.1887e-07
-4.65906e-08
-6.90939e-07
-5.56288e-08
-7.22764e-07
-7.87551e-08
-7.13476e-07
-6.65875e-08
-4.70175e-07
-1.23083e-07
2.66668e-07
1.91872e-07
-8.15954e-08
4.16111e-08
6.80677e-08
1.99627e-08
3.31318e-08
-5.669e-08
-4.22778e-08
-5.76138e-07
-7.54594e-08
-6.85688e-07
-8.23071e-08
-6.84092e-07
-1.42062e-07
-6.6301e-07
-1.63115e-07
-6.92424e-07
-7.07886e-08
-5.62502e-07
4.35037e-08
1.52373e-07
1.55822e-07
7.95536e-08
8.31177e-08
8.16211e-09
-2.32161e-08
1.18636e-07
-9.22232e-08
6.29909e-08
-5.20498e-07
3.66932e-08
-6.59392e-07
1.03515e-08
-6.5775e-07
-1.26266e-08
-6.40032e-07
-4.89956e-08
-6.56055e-07
1.07201e-08
-6.22218e-07
1.53137e-07
9.95712e-09
1.50106e-07
1.58853e-07
4.61373e-08
-1.19344e-08
-2.60423e-08
8.40575e-08
-1.30139e-07
9.3415e-08
-5.29853e-07
6.6233e-08
-6.32209e-07
4.64606e-08
-6.37977e-07
1.53175e-08
-6.08889e-07
-8.26353e-09
-6.32473e-07
-1.86605e-09
-6.28615e-07
2.52003e-08
-1.71086e-08
1.32476e-07
4.28279e-08
7.14404e-08
-2.4491e-08
-5.8885e-08
1.26145e-07
-1.84853e-07
1.65615e-07
-5.69325e-07
1.37829e-07
-6.04423e-07
8.6955e-08
-5.87103e-07
7.49575e-08
-5.96891e-07
3.87897e-08
-5.96305e-07
-5.03125e-08
-5.39513e-07
-9.50593e-08
2.76383e-08
1.34e-07
-9.65843e-08
1.62027e-08
-2.47508e-08
-1.59441e-08
8.37366e-08
-2.52388e-07
8.35558e-08
-5.69142e-07
4.34578e-08
-5.64325e-07
1.64392e-08
-5.60085e-07
-1.47179e-08
-5.65734e-07
-4.8339e-08
-5.62684e-07
-1.54842e-07
-4.33011e-07
-1.19837e-07
-7.36587e-09
6.52137e-08
-5.105e-08
7.64037e-08
-5.09315e-08
-5.02251e-08
1.27245e-07
-3.03228e-07
8.74433e-08
-5.29339e-07
5.38109e-08
-5.30693e-07
1.79283e-08
-5.24202e-07
-1.84544e-08
-5.29351e-07
-6.08182e-08
-5.20321e-07
-6.32041e-08
-4.30625e-07
-9.42062e-09
-6.11483e-08
4.79841e-08
7.8103e-09
1.04336e-07
-6.51584e-08
-9.0106e-08
9.87011e-08
-2.97592e-07
5.25597e-08
-4.83201e-07
8.75137e-09
-4.86884e-07
-2.2865e-08
-4.92586e-07
-5.69061e-08
-4.9531e-07
-8.98603e-08
-4.87367e-07
-4.13995e-08
-4.79085e-07
-9.50054e-09
-9.30469e-08
6.06604e-08
-2.21764e-08
1.33589e-07
-9.04235e-08
-1.08323e-07
1.23469e-07
-2.87465e-07
8.03278e-08
-4.40059e-07
4.67597e-08
-4.53316e-07
6.41513e-09
-4.52241e-07
-3.90813e-08
-4.49814e-07
-7.93335e-08
-4.47115e-07
-1.06701e-07
-4.51717e-07
-8.1106e-08
-1.18641e-07
5.50165e-08
-7.54621e-08
1.14045e-07
-1.26211e-07
-7.82608e-08
1.1244e-07
-2.85866e-07
5.80584e-08
-3.85678e-07
3.81707e-09
-3.99075e-07
-3.6954e-08
-4.1147e-07
-7.45828e-08
-4.12185e-07
-1.16204e-07
-4.05493e-07
-1.85332e-07
-3.8259e-07
-1.24868e-07
-1.79103e-07
1.97404e-08
-8.95911e-08
6.12495e-08
-1.40419e-07
-4.7041e-08
1.21883e-07
-3.46501e-07
8.77102e-08
-3.51505e-07
5.49794e-08
-3.66344e-07
9.18945e-09
-3.6568e-07
-4.39009e-08
-3.59095e-07
-1.01754e-07
-3.4764e-07
-1.4847e-07
-3.35874e-07
-9.17771e-08
-2.35796e-07
-2.90548e-08
-4.29806e-08
1.93665e-07
-1.61669e-07
-1.72416e-07
1.25211e-07
-2.78047e-07
7.24187e-08
-2.98713e-07
1.42084e-08
-3.08134e-07
-3.79994e-08
-3.13472e-07
-8.13755e-08
-3.15719e-07
-1.1682e-07
-3.12196e-07
-1.5635e-07
-2.96343e-07
-1.06752e-07
-2.85394e-07
-7.10972e-08
-6.47098e-08