/*--------------------------------*- C++ -*----------------------------------*\
  =========                 |
  \\      /  F ield         | OpenFOAM: The Open Source CFD Toolbox
   \\    /   O peration     | Website:  https://openfoam.org
    \\  /    A nd           | Version:  8
     \\/     M anipulation  |
\*---------------------------------------------------------------------------*/
FoamFile
{
    version     2.0;
    format      ascii;
    class       volVectorField;
    location    "4.1";
    object      U;
}
// * * * * * * * * * * * * * * * * * * * * * * * * * * * * * * * * * * * * * //

dimensions      [0 1 -1 0 0 0 0];

internalField   nonuniform List<vector> 
9150
(
(0.00493487 -0.0781203 0)
(0.0130518 -0.0974669 0)
(0.0108494 -0.10434 0)
(0.0084642 -0.108001 0)
(0.00207001 -0.109429 0)
(-0.00279427 -0.109227 0)
(-0.00880763 -0.107726 0)
(-0.0108741 -0.104284 0)
(-0.0130848 -0.0974225 0)
(-0.00494094 -0.0780844 0)
(0.00595337 -0.0920422 0)
(0.00857207 -0.100521 0)
(0.00732903 -0.102241 0)
(0.00452138 -0.104223 0)
(0.00224511 -0.105337 0)
(-0.00177928 -0.105619 0)
(-0.00430615 -0.104513 0)
(-0.00732402 -0.102277 0)
(-0.0086002 -0.1005 0)
(-0.00595129 -0.0920211 0)
(0.00177105 -0.0954722 0)
(0.00458227 -0.0989928 0)
(0.00371664 -0.101028 0)
(0.00317097 -0.101909 0)
(0.000639156 -0.10252 0)
(-0.000897761 -0.102397 0)
(-0.00332352 -0.10166 0)
(-0.00372403 -0.100976 0)
(-0.00459816 -0.0989746 0)
(-0.00176933 -0.0954577 0)
(0.00175845 -0.0984309 0)
(0.00247673 -0.100409 0)
(0.00220164 -0.100244 0)
(0.00131048 -0.100727 0)
(0.00072159 -0.100844 0)
(-0.000662672 -0.100855 0)
(-0.00127552 -0.100883 0)
(-0.00217786 -0.100251 0)
(-0.00248812 -0.100398 0)
(-0.00176116 -0.0984244 0)
(0.000190481 -0.0994932 0)
(0.000727433 -0.0995773 0)
(0.000449744 -0.100006 0)
(0.000631564 -0.0998702 0)
(0.000129474 -0.100107 0)
(-0.000114861 -0.100122 0)
(-0.000681921 -0.0998733 0)
(-0.000476125 -0.0999802 0)
(-0.000732846 -0.0995705 0)
(-0.000191847 -0.0994934 0)
(0.0762328 -0.19528 1.86916e-26)
(0.0493828 -0.185129 0)
(0.0304914 -0.176236 0)
(0.0157522 -0.17364 0)
(0.00398743 -0.175844 0)
(-0.00489978 -0.176429 0)
(-0.016295 -0.176047 0)
(-0.0311587 -0.1767 0)
(-0.0496729 -0.184895 0)
(-0.0762658 -0.194825 -1.8369e-26)
(0.0584403 -0.146479 4.82996e-27)
(0.0482572 -0.146511 0)
(0.0284056 -0.15673 0)
(0.0211343 -0.157113 0)
(0.00561068 -0.155718 0)
(-0.00383324 -0.155876 0)
(-0.0203307 -0.156818 0)
(-0.0283435 -0.15634 0)
(-0.0483722 -0.14646 0)
(-0.0584576 -0.146368 -4.90227e-27)
(0.047708 -0.12163 2.43468e-27)
(0.0422324 -0.131393 0)
(0.0297394 -0.134032 0)
(0.0176605 -0.138209 0)
(0.00569974 -0.140359 0)
(-0.00628238 -0.139937 0)
(-0.0178907 -0.137188 0)
(-0.0297902 -0.133909 0)
(-0.0423055 -0.131385 0)
(-0.0476971 -0.121541 -2.42846e-27)
(0.0373838 -0.0996084 3.6718e-27)
(0.0392578 -0.110386 0)
(0.0225514 -0.120376 0)
(0.0172348 -0.124838 0)
(0.00402358 -0.125122 0)
(-0.00447668 -0.125333 0)
(-0.0173332 -0.125094 0)
(-0.022289 -0.120198 0)
(-0.0390453 -0.11028 0)
(-0.0373352 -0.0995097 -3.72492e-27)
(0.0249161 -0.0815248 -1.22104e-26)
(0.0280288 -0.101175 -1.4343e-26)
(0.0199891 -0.108236 -3.55509e-27)
(0.011138 -0.113834 -3.17079e-27)
(0.0048613 -0.116945 -1.21977e-28)
(-0.00438018 -0.116883 -1.24166e-28)
(-0.0110085 -0.113794 -3.24487e-27)
(-0.0201401 -0.108239 -3.57839e-27)
(-0.0281053 -0.101106 -1.43285e-26)
(-0.0249015 -0.081443 -1.2205e-26)
(0.0184129 -0.145952 0)
(0.00867225 -0.206771 0)
(0.0203508 -0.21653 0)
(0.00929622 -0.223382 0)
(0.00802614 -0.226007 0)
(-0.00710904 -0.225979 0)
(-0.00913488 -0.223848 0)
(-0.0241171 -0.215868 0)
(-0.0155792 -0.201503 0)
(-0.0196354 -0.141992 0)
(0.0147441 -0.169272 0)
(0.000295363 -0.202095 0)
(0.0126777 -0.211013 0)
(-0.00104963 -0.215396 0)
(0.00284836 -0.214912 0)
(-0.00903377 -0.213854 0)
(-0.00552548 -0.211608 0)
(-0.017917 -0.206466 0)
(-0.00326709 -0.196286 0)
(-0.0172758 -0.163244 0)
(0.015027 -0.173028 0)
(-0.00414934 -0.204447 0)
(0.0102702 -0.209387 0)
(-0.00245144 -0.209589 0)
(0.00299961 -0.210518 0)
(-0.00482664 -0.20958 0)
(3.52902e-05 -0.209518 0)
(-0.011866 -0.207317 0)
(0.00313092 -0.202077 0)
(-0.0151496 -0.17057 0)
(0.0170339 -0.194831 0)
(-0.00663957 -0.205083 0)
(0.00897855 -0.210991 0)
(-0.00138792 -0.206778 0)
(0.00155683 -0.207714 0)
(-0.00200888 -0.206545 0)
(0.000240099 -0.205822 0)
(-0.01066 -0.209082 0)
(0.00650101 -0.203073 0)
(-0.0179325 -0.19315 0)
(0.0345675 -0.218349 0)
(0.0085207 -0.204061 0)
(0.016112 -0.203515 0)
(0.00999447 -0.196859 0)
(0.00066345 -0.193306 0)
(-0.00343111 -0.192465 0)
(-0.0122886 -0.195893 0)
(-0.0167055 -0.203385 0)
(-0.00906838 -0.204045 0)
(-0.0342688 -0.216988 0)
(0.0635934 -0.0241023 0)
(0.0613217 0.00601805 0)
(0.0550321 0.0118933 0)
(0.0448794 0.00671719 0)
(0.0418238 0.0115017 0)
(0.0220268 0.0256635 0)
(0.0110949 -0.00963145 0)
(0.0305191 -0.0244036 0)
(0.0438535 -0.0199227 0)
(0.0556795 -0.0164196 0)
(0.00672378 0.0194344 0)
(0.0192197 0.00823985 0)
(0.0272033 0.02326 0)
(0.0132269 0.019063 0)
(0.0063769 0.0259233 0)
(0.0139567 0.0404643 0)
(0.0261412 -0.0105792 0)
(0.0369309 -0.0342383 0)
(0.0439164 -0.0320481 0)
(0.0551428 -0.0236338 0)
(-0.0190052 -0.0530493 0)
(-0.0431689 -0.0236014 0)
(-0.0593383 0.047796 0)
(-0.070102 0.0445807 0)
(-0.062258 0.0148527 0)
(-0.0306753 -0.0175873 0)
(-0.0198673 -0.0560437 0)
(0.000997306 -0.0675786 0)
(0.0172139 -0.0728539 0)
(0.0323785 -0.0596087 0)
(-0.133041 0.066234 0)
(-0.142637 0.0765116 0)
(-0.129485 0.0660291 0)
(-0.0887582 -0.00798435 0)
(-0.0642999 -0.0476596 0)
(-0.0460746 -0.0608763 0)
(-0.0337045 -0.0798156 0)
(-0.0332195 -0.0926116 0)
(-0.0319977 -0.0886335 0)
(-0.0259825 -0.0632196 0)
(-0.127993 0.0473016 0)
(-0.119358 0.0145631 0)
(-0.0886414 -0.0599261 0)
(-0.0773068 -0.0767838 0)
(-0.0740432 -0.0696203 0)
(-0.0779363 -0.0627798 0)
(-0.0832636 -0.0669273 0)
(-0.0829322 -0.084086 0)
(-0.0797375 -0.0938389 0)
(-0.0760881 -0.0902508 0)
(-0.089444 0.0320472 0)
(-0.0849759 0.0153868 0)
(-0.0884232 -0.0382627 0)
(-0.0935736 -0.0542651 0)
(-0.105886 -0.0450279 0)
(-0.112741 -0.0461878 0)
(-0.117349 -0.0824939 0)
(-0.115035 -0.094285 0)
(-0.116545 -0.0940642 0)
(-0.122134 -0.07617 0)
(-0.0906331 0.0180413 0)
(-0.086429 0.0174874 0)
(-0.0882616 -0.0227313 0)
(-0.100542 -0.0368676 0)
(-0.109859 -0.0300602 0)
(-0.110947 -0.0314814 0)
(-0.118052 -0.0693013 0)
(-0.124232 -0.0861154 0)
(-0.129772 -0.0875172 0)
(-0.137275 -0.0778902 0)
(-0.125522 -0.00354646 0)
(-0.119097 -0.00411049 0)
(-0.116131 -0.0167315 0)
(-0.118543 -0.0254261 0)
(-0.11328 -0.0299472 0)
(-0.105416 -0.0316343 0)
(-0.106651 -0.0503476 0)
(-0.115074 -0.0740848 0)
(-0.12066 -0.0783195 0)
(-0.123831 -0.0764142 0)
(-0.0536189 -0.00690146 0)
(-0.0505119 -0.00489042 0)
(-0.0488559 -0.01117 0)
(-0.0486396 -0.0279018 0)
(-0.0553792 -0.0413293 0)
(-0.0633454 -0.0548944 0)
(-0.0691002 -0.0590984 0)
(-0.0789831 -0.0544807 0)
(-0.0870679 -0.0715019 0)
(-0.095621 -0.0719933 0)
(-0.0122751 -0.0347986 0)
(0.00179734 -0.0268399 0)
(0.0136045 -0.0158357 0)
(0.0228236 -0.0133307 0)
(0.0255389 -0.00802463 0)
(0.0251467 -0.010505 0)
(0.0180049 -0.0107935 0)
(-0.000602475 -0.00891215 0)
(-0.0156337 -0.0464164 0)
(-0.0516691 -0.0603574 0)
(0.00940457 -0.063093 0)
(0.0149695 -0.0556924 0)
(0.022567 -0.0505409 0)
(0.0319657 -0.0470134 0)
(0.0425575 -0.0390104 0)
(0.0540731 -0.0370447 0)
(0.064423 -0.0254985 0)
(0.0712683 0.00890368 0)
(0.0648012 0.0258228 0)
(0.0348153 0.0141841 0)
(0.0195916 -0.075817 0)
(0.0428256 -0.061121 0)
(0.0624524 -0.0504814 0)
(0.0771663 -0.0546367 0)
(0.0813534 -0.0529198 0)
(0.0800581 -0.0507752 0)
(0.0746598 -0.041108 0)
(0.0779502 -0.00909621 0)
(0.0870445 0.0431356 0)
(0.0670729 0.0747365 0)
(0.00942479 -0.150945 0)
(0.0334388 -0.143401 0)
(0.0609365 -0.120726 0)
(0.088889 -0.0864586 0)
(0.108779 -0.0461979 0)
(0.117148 -0.0255095 0)
(0.113266 -0.0198003 0)
(0.104128 -0.00950438 0)
(0.0997638 0.0281335 0)
(0.112453 0.0825269 0)
(0.0433237 -0.175412 0)
(0.058323 -0.169936 0)
(0.0746783 -0.160461 0)
(0.0899091 -0.140848 0)
(0.110551 -0.106909 0)
(0.133276 -0.0572558 0)
(0.153347 -0.00782782 0)
(0.160753 0.0187261 0)
(0.153586 0.0309209 0)
(0.155412 0.0504088 0)
(0.0922944 -0.200717 0)
(0.116598 -0.197408 0)
(0.141343 -0.179039 0)
(0.154873 -0.151937 0)
(0.1647 -0.127914 0)
(0.169303 -0.105164 0)
(0.181717 -0.0683481 0)
(0.20153 -0.0161235 0)
(0.210664 0.0391734 0)
(0.201912 0.0827625 0)
(0.0963551 -0.256992 0)
(0.147958 -0.262385 0)
(0.208593 -0.230275 0)
(0.248278 -0.178521 0)
(0.265254 -0.122645 0)
(0.264309 -0.0858427 0)
(0.261975 -0.0612575 0)
(0.253257 -0.0283977 0)
(0.246331 0.0154424 0)
(0.248542 0.0626789 0)
(0.138348 -0.385655 0)
(0.196936 -0.411643 0)
(0.268456 -0.375422 0)
(0.327565 -0.269933 0)
(0.355165 -0.153547 0)
(0.34405 -0.0937062 0)
(0.324825 -0.0546141 0)
(0.318358 0.00679399 0)
(0.312447 0.0628281 0)
(0.309792 0.0848907 0)
(0.257147 -0.591907 0)
(0.282659 -0.592253 0)
(0.317107 -0.541055 0)
(0.371301 -0.405322 0)
(0.40945 -0.169081 0)
(0.398052 -0.0632687 0)
(0.349461 -0.0486302 0)
(0.322302 -0.0294075 0)
(0.332493 0.0199911 0)
(0.350969 0.110642 0)
(0.331845 -0.627988 0)
(0.321087 -0.608136 0)
(0.33627 -0.543105 0)
(0.300973 -0.442746 0)
(0.36374 -0.198039 0)
(0.39615 0.0537648 0)
(0.378576 0.104137 0)
(0.345616 0.0429967 0)
(0.324386 0.00904577 0)
(0.330545 0.0764056 0)
(0.208221 -0.592315 0)
(0.144738 -0.546984 0)
(0.143171 -0.483675 0)
(0.122357 -0.424611 0)
(0.166405 -0.289805 0)
(0.255453 -0.0697355 0)
(0.306541 0.042895 0)
(0.338567 0.0881992 0)
(0.31156 0.0760452 0)
(0.267798 0.104147 0)
(-0.179978 -0.428068 0)
(-0.204817 -0.430269 0)
(-0.181251 -0.461504 0)
(-0.156521 -0.474564 0)
(-0.107774 -0.435094 0)
(-0.0405092 -0.274375 0)
(-0.0124791 -0.147914 0)
(-0.00429749 -0.0171204 0)
(0.0343434 0.238429 0)
(-0.0408727 0.291813 0)
(-0.30882 -0.416143 0)
(-0.315451 -0.461355 0)
(-0.289854 -0.55436 0)
(-0.275847 -0.574993 0)
(-0.299141 -0.470095 0)
(-0.3133 -0.17978 0)
(-0.290085 0.00975451 0)
(-0.304005 0.0505253 0)
(-0.28312 0.0650161 0)
(-0.178137 0.132717 0)
(-0.352987 -0.426947 0)
(-0.354641 -0.457868 0)
(-0.368674 -0.526131 0)
(-0.37455 -0.553025 0)
(-0.417833 -0.43793 0)
(-0.429065 -0.273424 0)
(-0.370796 -0.14339 0)
(-0.292946 -0.0292823 0)
(-0.261734 0.0235852 0)
(-0.233904 0.0570284 0)
(-0.36443 -0.428371 0)
(-0.364577 -0.441714 0)
(-0.382357 -0.448845 0)
(-0.426098 -0.439116 0)
(-0.483536 -0.365151 0)
(-0.503227 -0.273341 0)
(-0.479425 -0.189974 0)
(-0.438158 -0.132301 0)
(-0.372598 -0.0560707 0)
(-0.312864 -0.0021566 0)
(-0.359411 -0.436947 0)
(-0.354394 -0.435841 0)
(-0.355349 -0.41846 0)
(-0.367022 -0.369185 0)
(-0.406973 -0.319898 0)
(-0.449948 -0.293628 0)
(-0.469427 -0.259054 0)
(-0.448331 -0.221735 0)
(-0.417787 -0.205926 0)
(-0.384857 -0.167778 0)
(-0.3613 -0.470178 0)
(-0.354254 -0.468427 0)
(-0.33955 -0.427212 0)
(-0.348135 -0.346328 0)
(-0.378375 -0.254613 0)
(-0.407849 -0.235151 0)
(-0.425931 -0.237762 0)
(-0.425641 -0.225584 0)
(-0.408428 -0.207913 0)
(-0.382265 -0.199569 0)
(-0.380648 -0.480711 0)
(-0.380139 -0.481406 0)
(-0.3846 -0.446137 0)
(-0.397044 -0.298299 0)
(-0.420922 -0.177015 0)
(-0.430721 -0.180066 0)
(-0.431755 -0.223724 0)
(-0.425772 -0.246427 0)
(-0.403241 -0.258546 0)
(-0.360582 -0.270656 0)
(-0.417621 -0.457897 0)
(-0.437537 -0.448104 0)
(-0.468587 -0.375312 0)
(-0.502396 -0.234456 0)
(-0.491707 -0.187767 0)
(-0.482545 -0.185865 0)
(-0.477074 -0.224583 0)
(-0.461462 -0.285238 0)
(-0.417955 -0.336366 0)
(-0.387216 -0.373851 0)
(-0.418072 -0.380839 0)
(-0.448688 -0.369764 0)
(-0.477089 -0.31049 0)
(-0.484986 -0.221702 0)
(-0.479706 -0.211482 0)
(-0.465967 -0.219442 0)
(-0.45374 -0.250699 0)
(-0.428958 -0.313998 0)
(-0.408707 -0.369837 0)
(-0.388551 -0.405409 0)
(-0.350402 -0.288103 0)
(-0.380101 -0.311667 0)
(-0.401614 -0.298142 0)
(-0.386314 -0.253846 0)
(-0.362475 -0.244357 0)
(-0.341172 -0.279607 0)
(-0.306342 -0.296847 0)
(-0.301453 -0.33889 0)
(-0.300776 -0.386423 0)
(-0.304301 -0.415644 0)
(-0.230053 -0.275368 0)
(-0.27464 -0.304541 0)
(-0.288953 -0.310436 0)
(-0.277472 -0.327957 0)
(-0.257036 -0.335248 0)
(-0.233127 -0.326184 0)
(-0.220094 -0.346539 0)
(-0.206517 -0.371919 0)
(-0.190915 -0.372923 0)
(-0.191402 -0.385459 0)
(0.434237 0.38941 0)
(0.0770787 -0.236612 0)
(-0.0681474 -0.336875 0)
(-0.141142 -0.352541 0)
(-0.158219 -0.36684 0)
(-0.155152 -0.374408 0)
(-0.131919 -0.389738 0)
(-0.114125 -0.417077 0)
(-0.116272 -0.433037 0)
(-0.104549 -0.42125 0)
(0.899968 0.642058 0)
(0.767921 0.457133 0)
(0.659775 0.295585 0)
(0.543788 -0.0540997 0)
(0.33023 -0.303191 0)
(0.160104 -0.352138 0)
(0.080474 -0.400842 0)
(0.00804615 -0.395926 0)
(0.00848578 -0.42206 0)
(0.0201926 -0.446161 0)
(0.873391 0.535697 0)
(0.86725 0.469562 0)
(0.847483 0.334386 0)
(0.841372 0.167532 0)
(0.791881 0.132662 0)
(0.652125 0.128632 0)
(0.550834 -0.0124262 0)
(0.443755 -0.230711 0)
(0.360494 -0.3684 0)
(0.280967 -0.428489 0)
(0.587225 0.235562 0)
(0.755773 0.322765 0)
(0.768594 0.311253 0)
(0.7809 0.255111 0)
(0.735829 0.193356 0)
(0.687814 0.105679 0)
(0.686483 0.0195706 0)
(0.629996 -0.0268789 0)
(0.531967 -0.0980295 0)
(0.461517 -0.223488 0)
(0.363456 0.115202 0)
(0.403188 0.113683 0)
(0.504544 0.16594 0)
(0.567985 0.194776 0)
(0.583368 0.191892 0)
(0.589781 0.171667 0)
(0.574704 0.136209 0)
(0.517743 0.0534453 0)
(0.496677 -0.0507508 0)
(0.426685 -0.12583 0)
(0.27457 0.115962 0)
(0.272506 0.0833791 0)
(0.277607 0.0698282 0)
(0.304347 0.0949211 0)
(0.343388 0.148035 0)
(0.342914 0.160956 0)
(0.326178 0.15824 0)
(0.313686 0.12153 0)
(0.26016 0.0806283 0)
(0.237522 -0.0382024 0)
(0.253405 0.164078 0)
(0.209368 0.110795 0)
(0.173193 0.0949428 0)
(0.162647 0.108993 0)
(0.163765 0.145208 0)
(0.13999 0.172903 0)
(0.127252 0.17374 0)
(0.120316 0.168974 0)
(0.13318 0.0981231 0)
(0.268277 -0.311088 0)
(0.249774 0.231963 0)
(0.213067 0.169722 0)
(0.160449 0.156381 0)
(0.115453 0.167526 0)
(0.0764551 0.207246 0)
(0.0657831 0.203975 0)
(0.100661 0.181619 0)
(0.142518 0.100403 0)
(0.243495 -0.207866 0)
(0.405482 -0.579233 0)
(0.207261 0.25215 0)
(0.18263 0.234873 0)
(0.11652 0.260516 0)
(0.0710239 0.303276 0)
(0.0500516 0.251782 0)
(0.0802213 0.15898 0)
(0.181033 0.0823711 0)
(0.19647 -0.076441 0)
(0.359318 -0.511008 0)
(0.508126 -0.802135 0)
(0.114599 0.278119 0)
(0.0673305 0.287887 0)
(0.029259 0.338357 0)
(0.0513784 0.333654 0)
(0.0745104 0.219783 0)
(0.114498 -0.0672288 0)
(0.166286 -0.104838 0)
(0.26472 -0.368748 0)
(0.411522 -0.81083 0)
(0.50846 -0.993059 0)
(-0.093828 0.315417 0)
(-0.0666948 0.290892 0)
(0.0268771 0.293823 0)
(0.0653798 0.180687 0)
(0.197861 0.111352 0)
(0.183062 0.0790655 0)
(0.183139 -0.0956984 0)
(0.33094 -0.716927 0)
(0.386402 -0.972943 0)
(0.454508 -1.05909 0)
(-0.0252528 0.209445 0)
(0.0134372 0.16848 0)
(0.059494 0.14346 0)
(0.0797595 0.113022 0)
(0.105641 0.0878192 0)
(0.102171 0.0134123 0)
(0.191869 -0.501232 0)
(0.331463 -0.916839 0)
(0.351424 -1.01505 0)
(0.334928 -0.98295 0)
(-0.0193156 0.121964 0)
(5.80306e-05 0.103714 0)
(0.023199 0.0941828 0)
(0.0338343 0.0686289 0)
(0.0552246 0.0381396 0)
(0.0880613 -0.1237 0)
(0.270122 -0.715712 0)
(0.358647 -0.971385 0)
(0.324731 -0.954672 0)
(0.308094 -0.740511 0)
(-0.0166717 0.101118 0)
(-0.0167231 0.0886679 0)
(-0.00248538 0.0797503 0)
(-0.0127587 0.0610569 0)
(0.0244042 -0.0146455 0)
(0.140484 -0.397677 0)
(0.393078 -0.903238 0)
(0.420801 -0.978252 0)
(0.418451 -0.861902 0)
(0.189059 -0.462075 0)
(-0.0220061 0.0839945 0)
(-0.0347697 0.090268 0)
(-0.0478648 0.0917312 0)
(-0.111815 0.0928761 0)
(0.00319222 -0.245956 0)
(0.23162 -1.04957 0)
(0.391764 -1.14717 0)
(0.416756 -1.03307 0)
(0.256573 -0.59863 0)
(-0.0836095 0.131036 0)
(-0.0246878 0.0950541 0)
(-0.0415785 0.128963 0)
(-0.0388089 0.146021 0)
(-0.14159 0.066374 0)
(0.0788961 -0.992753 0)
(0.187519 -1.32081 0)
(0.261612 -1.23427 0)
(0.165413 -0.788902 0)
(-0.215629 0.30718 0)
(-0.211363 0.216843 0)
(-0.0294804 0.106563 0)
(-0.0509694 0.151607 0)
(0.0200501 0.165085 0)
(-0.0836149 0.0675238 0)
(0.0892225 -1.19245 0)
(0.0816664 -1.38335 0)
(0.07155 -1.05018 0)
(-0.182887 0.0688739 0)
(-0.270875 0.269472 0)
(-0.224718 0.172737 0)
(-0.0444083 0.0859342 0)
(-0.0586936 0.121216 0)
(0.0303745 0.136998 0)
(-0.0240532 0.0446611 0)
(0.0446552 -1.24633 0)
(0.0572399 -1.37129 0)
(-0.0576931 -0.45652 0)
(-0.278893 0.200066 0)
(-0.27627 0.234021 0)
(-0.26624 0.144589 0)
(-0.0790032 0.0221594 0)
(-0.0691685 0.0530433 0)
(-0.00316391 0.0858376 0)
(0.000771115 -0.0100845 0)
(0.0274175 -1.27488 0)
(0.0152152 -1.2869 0)
(-0.0270262 -0.17284 0)
(-0.248248 0.280653 0)
(-0.253143 0.258792 0)
(-0.247332 0.14956 0)
(-0.0964748 -0.0251101 0)
(-0.0811476 -0.0169031 0)
(-0.0593776 0.00868033 0)
(-0.00924581 -0.0433037 0)
(0.0303045 -1.3075 0)
(-0.0028524 -1.26905 0)
(0.00274593 0.288699 0)
(-0.156944 0.364342 0)
(-0.189005 0.300718 0)
(-0.179828 0.194095 0)
(-0.0623554 -0.0514459 0)
(-0.10906 -0.0575124 0)
(-0.0994746 -0.0130162 0)
(-0.0690184 -0.200063 0)
(0.0233534 -1.32354 0)
(-0.0169979 -1.28533 0)
(0.0393221 0.228251 0)
(-0.118279 0.447728 0)
(-0.118061 0.295105 0)
(-0.0783421 0.187286 0)
(-0.0386693 0.0898989 0)
(-0.05153 0.0598399 0)
(-0.0978486 0.0526731 0)
(-0.156337 -0.68875 0)
(-0.00307947 -1.31192 0)
(-0.0363429 -1.26834 0)
(-0.0511179 0.512303 0)
(-0.134402 0.40064 0)
(-0.122496 0.193481 0)
(-0.0694387 0.190917 0)
(-0.506096 0.0574086 0)
(-0.516689 0.244126 0)
(-0.372389 0.347312 0)
(-0.00530795 -1.12641 0)
(0.000422996 -1.29041 0)
(-0.0318235 -1.29063 0)
(0.167918 0.844067 0)
(0.0635741 0.582448 0)
(0.0707818 0.131443 0)
(-0.185553 0.262548 0)
(-0.275151 -0.208366 0)
(-0.277424 -0.113605 0)
(-0.0089334 -0.131386 0)
(-0.0306396 -1.25667 0)
(-0.0129922 -1.2883 0)
(-0.0327155 -1.29033 0)
(0.0505524 -0.703448 0)
(0.533739 0.97131 0)
(0.418666 0.928829 0)
(0.0198475 0.645994 0)
(-0.0678524 -0.137648 0)
(-0.0561001 -0.0491324 0)
(-0.000417211 -0.395782 0)
(-0.0207852 -1.25373 0)
(-0.00936708 -1.28965 0)
(-0.0154065 -1.27901 0)
(-0.0233065 -1.22463 0)
(0.396076 0.828737 0)
(0.41895 0.91405 0)
(0.398257 0.765085 0)
(-0.0713357 -0.214904 0)
(-0.0503749 -0.173793 0)
(0.0150488 -0.436854 0)
(0.000273074 -1.23559 0)
(0.00344301 -1.2833 0)
(-0.00668257 -1.27836 0)
(-0.00163251 -1.27096 0)
(0.0274119 0.495961 0)
(0.451646 0.836097 0)
(0.484657 0.763928 0)
(-0.0491808 -0.209399 0)
(0.000418502 -0.251733 0)
(0.0105578 -0.422831 0)
(-0.00245918 -1.22904 0)
(0.00249273 -1.27491 0)
(-0.00712891 -1.27458 0)
(-0.00481168 -1.26709 0)
(-0.0100557 -0.772003 0)
(0.384558 0.223265 0)
(0.536156 0.34514 0)
(-0.00971642 -0.208804 0)
(0.00650212 -0.320203 0)
(0.019972 -0.425834 0)
(0.00576588 -1.22125 0)
(0.00696866 -1.26783 0)
(-0.00317284 -1.26681 0)
(-0.00059847 -1.25319 0)
(-0.0139255 -0.670981 0)
(0.121156 -0.0334539 0)
(0.230929 0.186495 0)
(0.00522085 -0.170359 0)
(0.00825478 -0.356713 0)
(0.0197544 -0.427414 0)
(0.0046725 -1.21283 0)
(0.00675034 -1.25617 0)
(-0.00814646 -1.25453 0)
(-0.00845253 -1.24648 0)
(-0.0291337 -0.769594 0)
(0.0168515 -0.172692 0)
(0.0632988 0.0265809 0)
(0.0625576 -0.141691 0)
(0.0290067 -0.323948 0)
(0.0286738 -0.429863 0)
(0.0156256 -1.19997 0)
(0.0095709 -1.23487 0)
(-0.00703229 -1.23577 0)
(-0.00724132 -1.22765 0)
(-0.0363016 -0.734967 0)
(-0.0295847 -0.224206 0)
(-0.00430225 -0.0670073 0)
(0.0883882 -0.10783 0)
(0.0452902 -0.241999 0)
(0.00301956 -0.43519 0)
(0.000239655 -1.18377 0)
(0.00343572 -1.21229 0)
(-0.0146114 -1.21512 0)
(-0.0241351 -1.20236 0)
(-0.0463234 -0.713448 0)
(-0.0409752 -0.260064 0)
(-0.0244194 -0.13936 0)
(0.0980859 -0.0769458 0)
(0.0927798 -0.110762 0)
(0.00307487 -0.274694 0)
(-0.00776983 -1.17274 0)
(0.00208183 -1.19305 0)
(-0.0168808 -1.18624 0)
(-0.0295199 -1.18848 0)
(-0.049673 -0.681892 0)
(-0.0504089 -0.2677 0)
(-0.0404326 -0.166199 0)
(0.0560047 -0.171965 0)
(0.0841811 -0.0636382 0)
(-0.00784515 -0.202626 0)
(0.0245088 -1.17023 0)
(0.0151705 -1.17048 0)
(-0.00392535 -1.16526 0)
(0.00260439 -1.18113 0)
(-0.0111319 -0.650195 0)
(-0.0376482 -0.264713 0)
(-0.0477914 -0.162305 0)
(-0.0404594 -0.182419 0)
(-0.0774774 0.138706 0)
(0.00589693 -0.421235 0)
(0.0051002 -1.16783 0)
(0.0088879 -1.14659 0)
(-0.0099795 -1.14807 0)
(-0.011619 -1.16481 0)
(-0.0262794 -0.608789 0)
(-0.0425303 -0.216947 0)
(-0.0637299 -0.108099 0)
(-0.0759336 -0.0324673 0)
(-0.149356 -0.0392973 0)
(0.0078465 -0.559254 0)
(0.00957189 -1.14612 0)
(0.0106068 -1.12995 0)
(-0.00794092 -1.12785 0)
(-0.00334412 -1.14316 0)
(-0.0181806 -0.594912 0)
(-0.0329985 -0.175013 0)
(-0.0576888 -0.0556355 0)
(-0.0219456 0.019477 0)
(-0.0022035 0.131612 0)
(0.0322488 -0.607638 0)
(0.00703869 -1.12801 0)
(0.00929497 -1.11272 0)
(-0.00839793 -1.11478 0)
(-0.00425913 -1.12246 0)
(-0.0197159 -0.588956 0)
(-0.0212525 -0.14563 0)
(-0.0350468 0.0155021 0)
(-0.226971 -0.243513 0)
(-0.0941167 -0.163127 0)
(0.0226418 -0.722664 0)
(-0.00563773 -1.1047 0)
(0.0025408 -1.09919 0)
(-0.0147373 -1.09994 0)
(-0.0154233 -1.10187 0)
(-0.0360837 -0.600527 0)
(-0.0192047 -0.132058 0)
(-0.0326136 0.0814787 0)
(-0.146624 -0.399225 0)
(-0.0153481 -0.571971 0)
(0.0180679 -0.727266 0)
(-0.00138367 -1.08676 0)
(0.0043116 -1.08627 0)
(-0.0100634 -1.08432 0)
(-0.00714817 -1.08505 0)
(-0.0299461 -0.617449 0)
(-0.00143329 -0.124475 0)
(-0.0300614 0.0955382 0)
(0.0140509 -0.41204 0)
(0.0304816 -0.582125 0)
(0.0103103 -0.706217 0)
(0.00181922 -1.07377 0)
(0.00809546 -1.07507 0)
(-0.00870998 -1.0758 0)
(-0.00461082 -1.07467 0)
(-0.0259615 -0.625362 0)
(-0.0103938 -0.0617689 0)
(-0.0339111 0.108178 0)
(0.0509331 -0.471324 0)
(0.0661251 -0.528314 0)
(0.00264855 -0.652894 0)
(-0.00120695 -1.06528 0)
(0.00658438 -1.05925 0)
(-0.0129891 -1.05825 0)
(-0.0144634 -1.06494 0)
(-0.0459028 -0.618504 0)
(-0.0249564 -0.0994915 0)
(-0.00923065 0.0325848 0)
(0.0453277 -0.505058 0)
(0.0456538 -0.485723 0)
(0.0258119 -0.623948 0)
(0.0135924 -1.05411 0)
(0.0153004 -1.04126 0)
(-0.00673903 -1.03803 0)
(-0.00504051 -1.05255 0)
(-0.0363911 -0.617902 0)
(-0.0234522 -0.116781 0)
(0.000898932 -0.0356192 0)
(0.0398493 -0.516841 0)
(0.0272205 -0.466708 0)
(0.0419664 -0.613086 0)
(0.0178378 -1.03154 0)
(0.013528 -1.01026 0)
(-0.00667326 -1.01311 0)
(-0.00854089 -1.03105 0)
(-0.0221262 -0.569497 0)
(-0.0211846 -0.157933 0)
(0.00177125 -0.108478 0)
(0.0504651 -0.512023 0)
(0.0279243 -0.438884 0)
(0.022791 -0.619173 0)
(0.00289133 -1.01295 0)
(0.00738217 -0.988704 0)
(-0.0146166 -0.989259 0)
(-0.0153395 -1.0112 0)
(-0.0305228 -0.555659 0)
(-0.0287983 -0.159603 0)
(-0.041357 -0.135178 0)
(0.0772584 -0.461521 0)
(0.0429653 -0.39096 0)
(0.0217675 -0.591218 0)
(0.00947356 -0.989244 0)
(0.0110936 -0.969045 0)
(-0.00891811 -0.965627 0)
(-0.00680283 -0.990191 0)
(-0.0183254 -0.579231 0)
(-0.0201049 -0.115374 0)
(-0.0723486 -0.097326 0)
(0.0728855 -0.398334 0)
(0.0177151 -0.320294 0)
(0.0144044 -0.598464 0)
(0.00886978 -0.97143 0)
(0.0113817 -0.952683 0)
(-0.00748136 -0.951012 0)
(-0.00440446 -0.971287 0)
(-0.0169668 -0.599266 0)
(-0.0084938 -0.0575011 0)
(-0.0647613 -0.0129143 0)
(0.0653328 -0.325773 0)
(-0.00161573 -0.246055 0)
(0.0195966 -0.645397 0)
(0.0115208 -0.950527 0)
(0.0116516 -0.937271 0)
(-0.00848599 -0.935076 0)
(-0.00631815 -0.948651 0)
(-0.021589 -0.600477 0)
(-0.0158667 -0.0137231 0)
(-0.0688079 0.0795419 0)
(0.0816124 -0.248671 0)
(0.015617 -0.181954 0)
(0.0270311 -0.653365 0)
(0.010427 -0.932198 0)
(0.0113204 -0.917458 0)
(-0.00909932 -0.915315 0)
(-0.00848588 -0.93066 0)
(-0.0222959 -0.586005 0)
(-0.0268294 0.0283628 0)
(-0.0644185 0.144409 0)
(0.102427 -0.179272 0)
(0.0371681 -0.121668 0)
(0.0302772 -0.633679 0)
(0.0113688 -0.914343 0)
(0.0122813 -0.899364 0)
(-0.0110748 -0.89596 0)
(-0.0101538 -0.91168 0)
(-0.0230514 -0.539096 0)
(-0.0483466 0.0906345 0)
(-0.0746318 0.191262 0)
(0.0843577 -0.0818353 0)
(0.0222283 -0.0303926 0)
(0.0286362 -0.612807 0)
(0.0119724 -0.893089 0)
(0.0120756 -0.875185 0)
(-0.0113842 -0.872709 0)
(-0.0115251 -0.890758 0)
(-0.023297 -0.526012 0)
(-0.0524473 0.151825 0)
(-0.0824944 0.201249 0)
(0.0637833 0.013841 0)
(0.028683 -0.00685821 0)
(0.0304021 -0.605701 0)
(0.0152857 -0.872886 0)
(0.013517 -0.850272 0)
(-0.011181 -0.849027 0)
(-0.0105744 -0.87103 0)
(-0.0204543 -0.54942 0)
(-0.0179991 0.23107 0)
(-0.0533127 0.205465 0)
(0.0344623 0.102268 0)
(0.0238356 0.0290342 0)
(0.0300036 -0.610213 0)
(0.0127098 -0.848041 0)
(0.0103028 -0.827193 0)
(-0.012036 -0.826738 0)
(-0.0107028 -0.846112 0)
(-0.0291421 -0.55831 0)
(-0.00638237 0.255113 0)
(-0.0131395 0.22003 0)
(0.0250827 0.12606 0)
(0.0280528 0.0314612 0)
(0.0333842 -0.610772 0)
(0.0128574 -0.821928 0)
(0.0103031 -0.802318 0)
(-0.0126333 -0.80277 0)
(-0.0127594 -0.821133 0)
(-0.0333561 -0.56871 0)
(-0.00660315 0.216604 0)
(0.0185108 0.224647 0)
(0.0252051 0.13863 0)
(0.0261445 0.0309721 0)
(0.0272618 -0.611052 0)
(0.00502931 -0.796505 0)
(0.00696567 -0.782057 0)
(-0.0116541 -0.778815 0)
(-0.013183 -0.795769 0)
(-0.0353275 -0.553732 0)
(-0.0110198 0.102324 0)
(0.0148474 0.228209 0)
(0.020769 0.156946 0)
(0.015564 0.0355935 0)
(0.0205459 -0.598082 0)
(0.00647299 -0.773031 0)
(0.0152697 -0.759022 0)
(-0.00493548 -0.753244 0)
(-0.00832935 -0.771668 0)
(-0.0309958 -0.498066 0)
(-0.0551847 0.103488 0)
(-0.0423732 0.249877 0)
(-0.00890485 0.170118 0)
(0.0269352 0.00965129 0)
(0.0720134 -0.59985 0)
(0.0422076 -0.758801 0)
(0.0366234 -0.743484 0)
(0.0163971 -0.746916 0)
(0.0233387 -0.760033 0)
(0.00925199 -0.53546 0)
(-0.0503177 0.158235 0)
(-0.067447 0.243754 0)
(-0.0264531 0.136951 0)
(-0.0038953 -0.105525 0)
(0.00907487 -0.650702 0)
(-0.00883803 -0.722171 0)
(-0.0125648 -0.701992 0)
(-0.0399392 -0.724249 0)
(-0.0331304 -0.719369 0)
(-0.0296081 -0.403615 0)
(-0.0388625 0.244402 0)
(-0.0660468 0.219118 0)
(0.000160453 0.117979 0)
(0.0461984 -0.0331564 0)
(-0.0192291 -0.657312 0)
(-0.028213 -0.713008 0)
(-0.0323002 -0.696796 0)
(-0.0587998 -0.695894 0)
(-0.0570008 -0.708141 0)
(-0.0901793 -0.5301 0)
(-0.000629898 0.26401 0)
(0.0316775 0.197518 0)
(0.0262212 0.0262986 0)
(0.0636416 -0.0718502 0)
(0.0337676 -0.499586 0)
(0.0293949 -0.671292 0)
(0.0186409 -0.669189 0)
(-0.00363751 -0.642497 0)
(-0.00452223 -0.669997 0)
(-0.0276616 -0.609861 0)
(0.030916 0.0446796 0)
(0.0949268 0.117651 0)
(0.0280313 -0.00757404 0)
(0.00467542 -0.117805 0)
(0.0653657 -0.520682 0)
(0.0432676 -0.64205 0)
(0.0335774 -0.640522 0)
(0.0192971 -0.62402 0)
(0.00130889 -0.638599 0)
(-0.00354928 -0.625314 0)
(-0.00503175 -0.0292715 0)
(0.0274667 0.143846 0)
(0.0284459 -0.0199697 0)
(0.0557639 -0.128774 0)
(0.088058 -0.556283 0)
(0.0615314 -0.62321 0)
(0.0568455 -0.619295 0)
(0.0402067 -0.611027 0)
(0.0209901 -0.625339 0)
(0.0236241 -0.615188 0)
(-0.0647703 0.00413269 0)
(-0.0442741 0.144461 0)
(-0.000210285 -0.0237247 0)
(0.0211566 -0.236759 0)
(0.0619788 -0.576197 0)
(0.0231977 -0.581281 0)
(0.0161742 -0.570692 0)
(0.00202252 -0.57531 0)
(-0.0228417 -0.575607 0)
(-0.0346536 -0.443728 0)
(-0.0949052 0.0459254 0)
(-0.0377747 0.10985 0)
(0.0282776 -0.0346475 0)
(0.0571153 -0.287349 0)
(0.0591162 -0.532112 0)
(0.033421 -0.543603 0)
(0.0170355 -0.545175 0)
(0.00126003 -0.546337 0)
(-0.0244577 -0.54482 0)
(-0.0465844 -0.436433 0)
(-0.00408199 -0.0585152 0)
(-0.00364669 0.034809 0)
(0.0524962 -0.0583189 0)
(0.048049 -0.309809 0)
(0.0472549 -0.500582 0)
(0.0117097 -0.507343 0)
(-0.00236981 -0.506942 0)
(-0.0217122 -0.511636 0)
(-0.0420325 -0.503047 0)
(-0.0581836 -0.460988 0)
(0.0209649 -0.0763271 0)
(-0.0241824 0.0505894 0)
(0.0660412 -0.0767524 0)
(0.0616698 -0.2896 0)
(0.0567565 -0.452144 0)
(0.0316497 -0.465718 0)
(0.0154787 -0.47149 0)
(-0.00870221 -0.473321 0)
(-0.0346101 -0.466815 0)
(-0.0598025 -0.459092 0)
(-0.0342025 -0.0980839 0)
(-0.0381685 0.0645752 0)
(0.037399 -0.110242 0)
(0.0665083 -0.293248 0)
(0.0532812 -0.41238 0)
(0.0107004 -0.430315 0)
(-0.00700559 -0.430489 0)
(-0.029187 -0.427264 0)
(-0.0490312 -0.416073 0)
(-0.0779909 -0.389032 0)
(-0.0873623 -0.149788 0)
(-0.0490045 0.0439858 0)
(0.00101002 -0.12298 0)
(0.0676791 -0.331367 0)
(0.0562826 -0.365156 0)
(0.0381388 -0.380377 0)
(0.0189544 -0.385126 0)
(-0.00906579 -0.383683 0)
(-0.0371989 -0.37927 0)
(-0.0728875 -0.352453 0)
(-0.0741757 -0.229625 0)
(-0.0178045 0.00174021 0)
(0.108775 -0.173153 0)
(0.0658352 -0.290677 0)
(0.0609631 -0.318371 0)
(0.0188953 -0.332782 0)
(-0.00642021 -0.330851 0)
(-0.0335579 -0.329233 0)
(-0.0491558 -0.322361 0)
(-0.0745314 -0.307538 0)
(-0.0762404 -0.265068 0)
(-0.0464131 -0.0561196 0)
(0.0851791 -0.228136 0)
(0.0685201 -0.233939 0)
(0.0627233 -0.2633 0)
(0.0367742 -0.281471 0)
(0.0182339 -0.287349 0)
(-0.00876321 -0.285494 0)
(-0.0339172 -0.279936 0)
(-0.0716931 -0.256666 0)
(-0.0772728 -0.212966 0)
(-0.107817 -0.155687 0)
(0.0503338 -0.148787 0)
(0.0508382 -0.198013 0)
(0.0367258 -0.235192 0)
(0.00989881 -0.246644 0)
(-0.00224578 -0.249727 0)
(-0.0237773 -0.24865 0)
(-0.0333892 -0.2413 0)
(-0.0494102 -0.229935 0)
(-0.0521417 -0.189628 0)
(-0.0616696 -0.108642 0)
(0.0640324 -0.00842106 0)
(0.0591868 0.000676124 0)
(0.0436233 0.00387054 0)
(0.026051 0.00835397 0)
(0.00731821 0.0125349 0)
(-0.0142287 0.013922 0)
(-0.0389026 0.025659 0)
(-0.059018 0.0182328 0)
(-0.0731118 0.00625253 0)
(-0.0866948 0.00849444 0)
(-0.103403 0.0124262 0)
(-0.128889 0.0204038 0)
(-0.161789 0.0339653 0)
(-0.191372 0.0243709 0)
(-0.211965 0.0147658 0)
(-0.230669 0.0247325 0)
(-0.255436 0.0511148 0)
(-0.332074 0.0854975 0)
(-0.399526 0.0443655 0)
(-0.410477 0.000887958 0)
(-0.410571 -0.0115562 0)
(-0.411159 -0.013787 0)
(-0.417714 -0.0108024 0)
(-0.438609 0.00612283 0)
(-0.478672 0.0311922 0)
(-0.529564 0.035811 0)
(-0.55193 0.0109516 0)
(-0.54221 -0.0214226 0)
(-0.505927 -0.0428219 0)
(-0.460015 -0.044778 0)
(-0.415793 -0.0392891 0)
(-0.373107 -0.043694 0)
(-0.321616 -0.0574382 0)
(-0.256216 -0.0639201 0)
(-0.192371 -0.0565157 0)
(-0.135689 -0.052543 0)
(-0.0810843 -0.039096 0)
(-0.0421936 -0.0294614 0)
(-0.0224044 -0.0199732 0)
(0.000884775 -0.0183985 0)
(0.0631378 0.00389583 0)
(0.0623232 0.0489117 0)
(0.042512 0.0580412 0)
(0.0162337 0.0547224 0)
(-0.0109515 0.0586716 0)
(-0.0346643 0.0654387 0)
(-0.0486397 0.0531646 0)
(-0.0668071 0.0425876 0)
(-0.093746 0.043629 0)
(-0.119596 0.0496858 0)
(-0.14171 0.0674543 0)
(-0.157736 0.0784088 0)
(-0.173617 0.0693786 0)
(-0.184447 0.0561297 0)
(-0.191294 0.0560209 0)