/*--------------------------------*- C++ -*----------------------------------*\
  =========                 |
  \\      /  F ield         | OpenFOAM: The Open Source CFD Toolbox
   \\    /   O peration     | Website:  https://openfoam.org
    \\  /    A nd           | Version:  8
     \\/     M anipulation  |
\*---------------------------------------------------------------------------*/
FoamFile
{
    version     2.0;
    format      ascii;
    class       surfaceScalarField;
    location    "2.4";
    object      alphaPhi0.water;
}
// * * * * * * * * * * * * * * * * * * * * * * * * * * * * * * * * * * * * * //

dimensions      [0 3 -1 0 0 0 0];

internalField   nonuniform List<scalar> 
18095
(
1.94062e-08
-1.71962e-07
1.52556e-07
2.29684e-08
-1.98324e-07
1.94762e-07
1.93614e-08
-2.05616e-07
2.09223e-07
9.79839e-09
-2.10519e-07
2.20082e-07
-7.19677e-10
-2.13704e-07
2.24222e-07
-1.1392e-08
-2.13163e-07
2.23835e-07
-2.01053e-08
-2.10593e-07
2.19307e-07
-2.30972e-08
-2.05901e-07
2.08893e-07
-1.94199e-08
-1.98301e-07
1.94623e-07
-1.71916e-07
1.52496e-07
1.5515e-08
-1.87477e-07
1.56404e-08
-1.9845e-07
1.22441e-08
-2.0222e-07
6.52767e-09
-2.04803e-07
-4.84297e-10
-2.06692e-07
-6.72437e-09
-2.06923e-07
-1.19581e-08
-2.0536e-07
-1.56711e-08
-2.02188e-07
-1.55447e-08
-1.98427e-07
-1.8746e-07
6.859e-09
-1.94336e-07
8.23857e-09
-1.99829e-07
7.15078e-09
-2.01132e-07
4.38783e-09
-2.0204e-07
4.53054e-10
-2.02758e-07
-3.61125e-09
-2.02859e-07
-7.04952e-09
-2.01921e-07
-8.27336e-09
-2.00964e-07
-6.87396e-09
-1.99826e-07
-1.94334e-07
4.56474e-09
-1.98901e-07
4.66545e-09
-1.9993e-07
3.53681e-09
-2.00004e-07
1.95105e-09
-2.00454e-07
-2.82284e-11
-2.00778e-07
-2.13307e-09
-2.00754e-07
-3.74185e-09
-2.00313e-07
-4.70246e-09
-2.00004e-07
-4.57142e-09
-1.99957e-07
-1.98906e-07
1.09937e-09
1.16956e-09
1.1658e-09
7.11672e-10
-6.67349e-11
-8.20629e-10
-1.13334e-09
-1.13694e-09
-1.09438e-09
-2.52509e-08
-1.97301e-07
2.22552e-07
-2.78722e-08
-1.9863e-07
2.01251e-07
-2.31736e-08
-2.01791e-07
1.97092e-07
-1.19293e-08
-2.01366e-07
1.90122e-07
1.47038e-09
-2.01961e-07
1.88562e-07
1.448e-08
-2.0168e-07
1.88671e-07
2.45217e-08
-2.00581e-07
1.90539e-07
2.8098e-08
-2.00869e-07
1.97293e-07
2.53637e-08
-1.98441e-07
2.01175e-07
-1.97378e-07
2.22742e-07
-1.01673e-08
-1.87134e-07
-1.5639e-08
-1.93158e-07
-1.47269e-08
-2.02703e-07
-6.94033e-09
-2.09153e-07
1.29172e-10
-2.09031e-07
7.01002e-09
-2.08561e-07
1.39418e-08
-2.07513e-07
1.52731e-08
-2.02201e-07
1.00986e-08
-1.93266e-07
-1.8728e-07
-1.10448e-08
-1.76089e-07
-9.11892e-09
-1.95084e-07
-6.92747e-09
-2.04894e-07
-6.09122e-09
-2.09989e-07
-2.48244e-09
-2.1264e-07
2.05545e-09
-2.13099e-07
5.26035e-09
-2.10718e-07
8.49014e-09
-2.05431e-07
1.08266e-08
-1.95603e-07
-1.76453e-07
-6.80581e-09
-1.69284e-07
-8.60856e-09
-1.93282e-07
-8.02318e-09
-2.0548e-07
-3.39543e-09
-2.14617e-07
8.93701e-11
-2.16124e-07
4.13837e-09
-2.17148e-07
9.13199e-09
-2.15711e-07
9.36651e-09
-2.05665e-07
7.09724e-09
-1.93334e-07
-1.69356e-07
-1.67279e-08
-1.52475e-08
-1.15038e-08
-6.03829e-09
2.0597e-09
8.74722e-09
1.23428e-08
1.55706e-08
1.68603e-08
3.5367e-08
-1.56203e-07
1.20836e-07
4.19924e-08
-1.98347e-07
1.91721e-07
3.68666e-08
-2.10441e-07
2.15567e-07
2.54417e-08
-2.16314e-07
2.27739e-07
8.97062e-09
-2.17567e-07
2.34038e-07
-8.58452e-09
-2.17717e-07
2.35272e-07
-2.50213e-08
-2.16164e-07
2.32601e-07
-3.43896e-08
-2.10948e-07
2.20316e-07
-3.18328e-08
-1.99044e-07
1.96488e-07
-1.57254e-07
1.25421e-07
1.68719e-08
-1.73075e-07
1.92223e-08
-2.00697e-07
1.5319e-08
-2.06538e-07
7.70145e-09
-2.08697e-07
-1.21323e-09
-2.08653e-07
-1.02244e-08
-2.08706e-07
-1.70507e-08
-2.09338e-07
-2.01236e-08
-2.07875e-07
-1.70636e-08
-2.02104e-07
-1.74318e-07
1.10664e-08
-1.84141e-07
1.10998e-08
-2.00731e-07
9.53367e-09
-2.04972e-07
4.92081e-09
-2.04084e-07
7.10043e-10
-2.04442e-07
-3.21979e-09
-2.04776e-07
-7.39789e-09
-2.0516e-07
-9.53105e-09
-2.05742e-07
-1.03867e-08
-2.01249e-07
-1.84704e-07
8.33378e-09
-1.92475e-07
7.16568e-09
-1.99563e-07
7.52925e-09
-2.05335e-07
3.46239e-09
-2.00017e-07
1.76268e-09
-2.02742e-07
-2.24752e-10
-2.02789e-07
-6.05258e-09
-1.99332e-07
-6.30518e-09
-2.05489e-07
-7.97102e-09
-1.99583e-07
-1.92675e-07
3.00773e-08
3.17661e-08
2.3523e-08
1.36279e-08
-5.52308e-10
-1.46703e-08
-2.34633e-08
-3.16592e-08
-3.00668e-08
-7.16781e-07
-5.22399e-08
7.69518e-07
-6.65557e-07
-5.01395e-08
-6.04716e-07
-5.98658e-08
-5.29834e-07
-4.06385e-08
-4.76687e-07
-2.27458e-08
-4.61322e-07
-5.02054e-09
-4.36638e-07
-1.36925e-08
-3.97741e-07
-1.7532e-08
-2.27424e-07
-5.18259e-08
-2.64909e-08
-2.02491e-07
-2.96983e-07
-1.22706e-07
3.68499e-07
-2.19214e-07
-1.26933e-07
-1.4881e-07
-1.41122e-07
-3.41003e-08
-1.30266e-07
5.03199e-09
-8.27207e-08
3.67676e-08
-3.96561e-08
4.27918e-08
-2.10134e-08
3.22475e-08
-8.37665e-09
4.02828e-08
-6.83236e-09
1.00266e-08
7.09038e-09
1.77197e-07
-2.2071e-07
-1.15093e-07
2.8242e-07
-2.22258e-07
3.84731e-07
-2.4301e-07
3.95744e-07
-2.53444e-07
3.85632e-07
-2.1885e-07
3.04168e-07
-1.69168e-07
2.15314e-07
-1.24466e-07
2.69774e-07
-6.42257e-08
2.92645e-07
-3.10893e-08
1.68914e-08
2.90398e-07
3.07896e-07
-2.87718e-07
-2.39439e-07
4.00998e-07
-3.14935e-07
4.82373e-07
-3.24056e-07
5.50112e-07
-3.20861e-07
6.2495e-07
-2.9336e-07
6.90779e-07
-2.34668e-07
7.29728e-07
-1.63106e-07
7.00268e-07
-1.07018e-07
7.19363e-07
-8.42358e-08
-7.15611e-08
8.76219e-07
6.6213e-07
-2.83024e-07
-4.88171e-07
7.46454e-07
-3.98155e-07
8.26771e-07
-4.0395e-07
8.87731e-07
-3.81492e-07
9.32844e-07
-3.3815e-07
9.40896e-07
-2.4241e-07
9.01074e-07
-1.2297e-07
8.53741e-07
-5.93286e-08
8.55203e-07
-8.53914e-08
-1.08665e-07
8.92553e-07
9.43476e-07
-3.79915e-07
-4.0877e-07
1.02294e-06
-4.67578e-07
1.06761e-06
-4.46978e-07
1.08741e-06
-4.00793e-07
1.08477e-06
-3.35146e-07
9.47856e-07
-1.51268e-07
7.83714e-07
5.01217e-08
6.75385e-07
7.77022e-08
6.7371e-07
-7.28281e-08
-1.9525e-07
7.60306e-07
1.03737e-06
-4.71572e-07
-8.92604e-07
1.02185e-06
-4.15527e-07
8.9893e-07
-3.07064e-07
6.40294e-07
-1.57637e-07
3.35894e-07
-7.38111e-08
8.31234e-08
-1.6182e-08
9.79245e-08
2.13432e-08
2.48317e-07
2.82715e-08
4.63452e-07
1.37811e-09
-1.20981e-07
3.9596e-07
4.30492e-07
-2.35743e-07
-6.31585e-07
3.12838e-07
-3.07659e-07
1.17654e-07
-1.64206e-07
6.97013e-09
-2.51368e-07
3.47159e-08
-1.40954e-07
4.884e-08
-2.86115e-08
5.44327e-08
1.80556e-08
5.86624e-08
2.48683e-08
7.56849e-08
3.1213e-08
-9.84901e-09
2.46798e-08
2.47091e-07
-2.89235e-07
-2.2717e-07
2.69247e-07
-3.61119e-07
3.4975e-07
-4.77866e-07
2.14647e-07
-4.30155e-07
9.07003e-08
-3.41487e-07
1.43772e-08
-1.08276e-07
2.20411e-08
1.122e-08
2.56119e-08
2.15668e-08
3.30222e-08
2.29568e-08
4.60985e-08
1.75129e-09
4.64486e-09
-4.14203e-07
-6.39322e-08
-5.24456e-08
-4.40346e-07
-8.23026e-08
-4.47531e-07
-7.66433e-08
-4.36071e-07
-4.44902e-08
-4.07877e-07
1.16787e-10
-7.8253e-08
7.54285e-09
3.46105e-09
1.10003e-08
1.8118e-08
1.25636e-08
2.135e-08
2.56607e-08
9.63899e-09
-2.30196e-07
-3.77065e-07
1.9308e-07
-2.52207e-07
-4.18317e-07
-2.50066e-07
-4.49613e-07
-2.36958e-07
-4.48701e-07
-9.12425e-08
-2.55732e-07
-4.5324e-09
-1.30812e-08
2.59684e-09
-3.67442e-09
7.46915e-09
1.32289e-08
9.19386e-09
1.95987e-08
1.83442e-08
1.65238e-08
-3.62419e-07
-3.36138e-07
3.21512e-07
-3.86207e-07
-3.94506e-07
-4.02789e-07
-4.32727e-07
-3.19953e-07
-4.12757e-07
-1.15844e-08
-1.04465e-07
-1.09375e-08
-1.37344e-08
-5.78915e-09
-8.83625e-09
9.20638e-10
6.50186e-09
5.37131e-09
1.51302e-08
1.48554e-08
8.8387e-09
-4.93633e-07
-2.80015e-07
4.3753e-07
-5.37975e-07
-3.50041e-07
-5.72625e-07
-3.96691e-07
-2.87813e-07
-3.37979e-07
-1.72501e-08
-3.62145e-08
-1.78617e-08
-1.30158e-08
-1.70879e-08
-9.57462e-09
-1.15549e-08
1.10544e-09
-4.44307e-09
8.07995e-09
9.46611e-09
9.33817e-10
-6.55513e-07
-2.30526e-07
6.06052e-07
-6.84871e-07
-3.20367e-07
-7.16976e-07
-3.61359e-07
-2.44869e-07
-2.2643e-07
-2.26399e-08
-1.23478e-08
-2.44522e-08
-1.07918e-08
-2.54777e-08
-8.40598e-09
-2.13237e-08
-2.43775e-09
-1.35846e-08
8.81615e-10
2.92709e-09
-7.05979e-09
-8.35641e-07
-2.39168e-07
8.43832e-07
-8.54124e-07
-3.01489e-07
-8.91999e-07
-3.17014e-07
-6.79465e-08
-1.78101e-07
-3.08826e-08
-1.84433e-08
-3.13673e-08
-9.68839e-09
-3.07854e-08
-8.48471e-09
-2.91393e-08
-3.75807e-09
-2.51096e-08
-2.87958e-09
-1.82545e-09
-2.03285e-08
-1.12826e-06
-3.76454e-07
1.26423e-06
-1.0853e-06
-3.43624e-07
-1.08931e-06
-3.03706e-07
-2.47774e-07
-2.45254e-07
-5.04601e-08
-6.70291e-08
-4.41358e-08
-1.64356e-08
-3.97936e-08
-1.22684e-08
-4.18951e-08
-1.4299e-09
-4.26892e-08
-1.44205e-09
-2.70798e-09
-4.14881e-08
-1.31159e-06
-4.76988e-07
1.41134e-06
-1.2268e-06
-4.27516e-07
-1.18157e-06
-3.46687e-07
-1.00397e-06
-2.92481e-07
-2.43557e-07
-2.3247e-07
-9.84205e-08
-1.14852e-07
-1.61467e-07
-8.15429e-08
-1.95512e-07
-8.66357e-08
-2.23927e-07
-7.29157e-08
-9.86405e-08
-2.18739e-07
-1.40344e-06
-5.36271e-07
1.46362e-06
-1.32648e-06
-5.02215e-07
-1.23127e-06
-4.38978e-07
-1.15451e-06
-3.66547e-07
-1.0551e-06
-3.16855e-07
-8.07595e-07
-2.74307e-07
-9.63248e-07
-1.64396e-07
-1.0587e-06
-1.46208e-07
-9.90596e-07
-1.39527e-07
-1.50776e-07
-9.37286e-07
-1.35991e-06
-4.79966e-07
1.30593e-06
-1.35855e-06
-5.00793e-07
-1.29462e-06
-5.00344e-07
-1.19885e-06
-4.59599e-07
-1.12433e-06
-3.88665e-07
-1.0635e-06
-3.32259e-07
-9.33892e-07
-2.66248e-07
-9.54605e-07
-2.22641e-07
-8.9865e-07
-1.73061e-07
-1.57708e-07
-8.89832e-07
-8.80255e-07
-2.57438e-07
8.09413e-07
-1.08277e-06
-2.64549e-07
-1.12879e-06
-4.51505e-07
-1.08573e-06
-4.99946e-07
-9.94964e-07
-4.76553e-07
-9.06761e-07
-4.17201e-07
-8.07972e-07
-3.60778e-07
-6.19223e-07
-2.9352e-07
-5.61656e-07
-2.41771e-07
-2.38488e-07
-4.98542e-07
-1.33171e-07
-2.15581e-07
3.3635e-07
-2.9296e-07
-6.99195e-08
-7.26497e-07
-9.30766e-08
-8.66807e-07
-3.46938e-07
-8.94645e-07
-4.45455e-07
-8.43963e-07
-4.63624e-07
-7.73497e-07
-4.09476e-07
-6.82895e-07
-3.69911e-07
-5.78838e-07
-3.32727e-07
-3.0384e-07
-4.96057e-07
-8.97095e-08
-3.20196e-08
6.13392e-08
-3.4602e-08
-6.15637e-08
-8.44264e-08
-4.03363e-08
-2.09817e-07
-4.62575e-08
-3.72878e-07
-1.73589e-07
-4.35228e-07
-3.05166e-07
-4.5644e-07
-2.81486e-07
-5.55612e-07
-2.82903e-07
-5.8433e-07
-3.09613e-07
-3.33446e-07
-5.25477e-07
-1.2071e-08
-1.92939e-07
-1.98284e-08
-6.43925e-09
-1.53695e-07
-6.30195e-09
-3.96085e-08
-1.43313e-08
-3.80375e-08
-2.23062e-08
-3.3276e-08
-5.26994e-08
-1.32497e-07
-7.80794e-08
-2.26222e-07
-1.42611e-07
-1.74858e-07
-2.2805e-07
-1.80865e-07
-2.51169e-07
-2.95584e-07
8.8315e-08
-1.92533e-07
-9.58264e-08
1.59225e-08
-1.41823e-07
7.9058e-09
-3.35218e-08
4.63049e-09
-3.35319e-08
3.45685e-09
-3.18516e-08
3.86213e-08
-2.99962e-08
7.70266e-08
-1.97231e-07
3.63395e-08
-2.57215e-07
3.14882e-10
-2.53907e-07
-2.025e-07
-5.95737e-08
5.61813e-08
-4.70124e-08
-1.17147e-07
1.19076e-08
-3.27591e-08
1.30016e-08
-3.17641e-08
1.30005e-08
-3.32762e-08
1.27544e-08
-3.12095e-08
1.2431e-08
-2.97273e-08
1.83031e-07
-1.31208e-07
2.31858e-07
-3.05716e-07
2.3689e-07
-2.63296e-07
-2.39988e-07
1.6699e-07
1.9506e-09
-2.72756e-08
-2.12454e-08
2.67707e-09
-3.25624e-08
9.24028e-09
-3.71507e-08
1.43502e-08
-3.75348e-08
1.60777e-08
-3.28402e-08
1.91752e-08
-3.19973e-08
1.84254e-07
-1.41728e-07
2.79037e-07
-3.50126e-07
3.15354e-07
-3.03964e-07
-2.75282e-07
3.46127e-07
-1.0177e-08
-3.47367e-08
1.85879e-08
1.13923e-09
-4.32747e-08
1.09978e-08
-4.70187e-08
1.99434e-08
-4.55084e-08
2.5601e-08
-3.75412e-08
3.44933e-08
-4.06956e-08
3.03214e-07
-2.11194e-07
3.45245e-07
-3.70118e-07
3.6469e-07
-3.26809e-07
-3.11332e-07
3.96553e-07
-4.10366e-09
-4.39823e-08
1.39613e-08
9.08059e-09
-5.64864e-08
2.13362e-08
-5.92938e-08
3.28112e-08
-5.70108e-08
4.256e-08
-4.70687e-08
1.08989e-07
-1.07676e-07
4.32778e-07
-3.36853e-07
4.28306e-07
-3.68423e-07
4.51801e-07
-3.53446e-07
-3.7216e-07
5.08925e-07
5.23271e-09
-4.48746e-08
-3.39687e-09
1.6606e-08
-6.72604e-08
2.91315e-08
-7.18674e-08
4.38636e-08
-7.13035e-08
9.80592e-08
-1.02714e-07
3.64732e-07
-2.96682e-07
4.40819e-07
-3.86274e-07
4.59044e-07
-3.88538e-07
5.19981e-07
-4.1686e-07
-5.03828e-07
6.48509e-07
1.926e-08
-3.48785e-08
-2.89627e-08
2.77209e-08
-7.50308e-08
3.94922e-08
-8.32033e-08
9.55513e-08
-1.29185e-07
3.07441e-07
-3.42247e-07
3.82908e-07
-3.94292e-07
3.95074e-07
-4.00237e-07
4.55645e-07
-4.5067e-07
6.13612e-07
-5.76745e-07
-7.80331e-07
8.87645e-07
3.54174e-08
-9.19364e-08
-4.61119e-08
6.15203e-08
-1.02545e-07
7.73893e-08
-1.01681e-07
2.7266e-07
-3.07333e-07
3.45941e-07
-4.14587e-07
3.34299e-07
-3.84354e-07
3.74642e-07
-4.42342e-07
5.64043e-07
-6.42132e-07
8.66115e-07
-8.80194e-07
-8.96751e-07
9.79705e-07
2.58523e-07
-7.99082e-08
-9.91437e-07
1.09594e-07
-1.21553e-07
1.96757e-07
-1.877e-07
4.53535e-07
-4.05396e-07
3.95382e-07
-3.57654e-07
3.65978e-07
-3.56699e-07
5.00253e-07
-5.78415e-07
8.12193e-07
-9.55831e-07
9.30767e-07
-1.00135e-06
-3.53669e-07
3.47903e-07
6.27137e-07
-5.50078e-08
-1.20908e-06
3.40507e-07
-5.34415e-08
5.41236e-07
-1.65877e-07
5.61765e-07
-2.90146e-07
4.59847e-07
-2.57496e-07
4.64125e-07
-3.62694e-07
7.28984e-07
-8.45444e-07
9.09675e-07
-1.13835e-06
4.19576e-07
-6.61815e-07
-8.90142e-08
8.59649e-08
3.34742e-07
-2.13992e-08
-5.77947e-07
2.89652e-07
-7.14951e-08
7.89767e-07
-1.31688e-07
6.55251e-07
-1.12411e-07
4.73512e-07
-1.3302e-07
6.17269e-07
-5.06207e-07
8.47859e-07
-1.07775e-06
7.02575e-07
-9.95168e-07
8.29986e-08
-1.89883e-07
-4.0482e-08
3.50103e-08
2.15709e-07
-1.60291e-08
-2.53545e-07
5.42025e-07
6.30266e-09
6.37346e-07
2.20358e-08
4.9124e-07
1.50106e-08
4.2123e-07
-1.09924e-07
6.76594e-07
-7.60274e-07
7.87266e-07
-1.18818e-06
2.10908e-07
-7.53918e-07
1.85956e-08
-5.91095e-08
-2.60988e-08
6.90938e-09
3.86046e-07
9.08422e-08
-4.89468e-07
3.17983e-07
7.8665e-08
2.82926e-07
5.78156e-08
2.44404e-07
3.85974e-08
3.83975e-07
-2.40987e-07
6.24021e-07
-9.99428e-07
6.07432e-07
-1.17029e-06
3.60658e-08
-3.78327e-07
5.98391e-10
-1.82245e-08
-4.82875e-09
-1.8618e-08
1.66974e-07
9.03556e-08
-1.66481e-07
1.7794e-07
6.7703e-08
1.79914e-07
5.58452e-08
1.76586e-07
4.26921e-08
4.50095e-07
-5.1425e-07
6.0262e-07
-1.15147e-06
3.52103e-07
-1.02892e-06
0
-1.11519e-07
0
-6.28722e-11
-5.66816e-11
-2.11219e-09
9.23491e-08
5.59379e-08
-5.79279e-08
1.1879e-07
4.12653e-08
1.2787e-07
4.67687e-08
1.30368e-07
4.01983e-08
4.61677e-07
-8.45555e-07
5.2396e-07
-1.21269e-06
6.38384e-08
-5.17407e-07
0
-3.84705e-08
4.25741e-12
3.68073e-09
3.51694e-09
1.41277e-09
4.66058e-08
3.28353e-08
-2.35352e-08
7.18472e-08
1.59931e-08
9.21005e-08
2.65119e-08
1.22568e-07
9.72893e-09
3.40889e-07
-1.06388e-06
2.73746e-07
-1.07091e-06
2.02782e-08
-1.87964e-07
1.69099e-09
-1.69627e-08
-1.64899e-09
8.39502e-09
4.23689e-09
-2.53516e-11
3.2489e-08
3.50361e-08
-3.46893e-08
3.31634e-08
1.5301e-08
3.55603e-08
2.41113e-08
8.76776e-08
-4.24002e-08
1.08551e-07
-8.51236e-07
1.02418e-07
-9.53345e-07
0
-6.67306e-08
-3.25076e-08
2.6999e-09
-2.29604e-08
1.18833e-08
4.60365e-09
-1.54449e-10
8.44492e-10
5.3203e-08
-1.90335e-08
-2.73344e-08
4.34906e-08
-6.96414e-08
6.64303e-08
1.5008e-08
-5.43402e-08
1.94503e-08
-7.92681e-07
4.03679e-08
-8.70728e-07
-2.01084e-08
-3.31637e-09
-2.73715e-08
7.52095e-09
-2.84717e-08
1.4455e-08
1.10819e-08
-2.23588e-08
-1.31598e-07
4.31765e-08
1.41619e-07
-1.20172e-07
3.20514e-08
-5.43147e-08
5.91813e-08
-8.58284e-09
-2.57017e-08
-2.22086e-08
-7.44735e-07
-2.48769e-08
-7.47837e-07
-2.1683e-08
-4.76144e-10
-2.33652e-08
6.34394e-09
-2.23012e-08
1.35789e-08
8.8778e-09
-1.98471e-08
-8.99983e-08
-1.00417e-08
1.09089e-07
-7.73004e-09
-2.08914e-08
5.54234e-09
5.88647e-10
-3.1276e-08
-3.29646e-12
-6.00222e-09
-6.8739e-07
3.55408e-09
-6.78162e-07
-7.28257e-10
-1.3432e-10
-1.15061e-08
9.84167e-09
-9.26083e-09
1.15256e-08
5.4827e-09
-5.67626e-09
-1.7157e-08
-1.38842e-11
2.99502e-08
-2.12413e-09
-9.38092e-11
0
1.08052e-10
4.10753e-12
-9.85415e-12
1.98386e-08
-6.23237e-07
1.35473e-09
-6.1363e-07
0
-3.44929e-11
4.75336e-09
4.22073e-10
4.0848e-09
4.03127e-11
0
2.02753e-09
-3.76544e-11
-4.96298e-12
2.82518e-11
-1.25977e-10
-6.1626e-12
-2.84432e-12
-1.79883e-11
5.19973e-11
-6.84418e-11
-2.92072e-09
-6.32084e-07
-4.18418e-11
-6.31616e-07
2.5439e-12
-9.3736e-11
4.06431e-10
1.26842e-11
4.74414e-10
4.08369e-11
-1.65466e-11
4.45697e-10
-1.34379e-11
-7.30307e-12
1.53417e-11
-1.06899e-11
-9.39199e-12
-8.24332e-12
-2.11103e-11
2.64771e-10
-3.44364e-10
2.94834e-10
-8.42514e-07
-2.49933e-10
-8.33886e-07
3.78742e-12
-3.54878e-10
3.95187e-11
-1.73032e-11
1.1352e-10
-2.14889e-12
-3.94003e-12
1.75483e-10
-3.75386e-12
-1.13001e-11
7.26949e-12
-2.33717e-12
-1.14842e-11
0
-3.81934e-11
1.5537e-09
-1.91295e-09
-2.15907e-09
-1.0101e-06
-1.25512e-09
-1.00883e-06
0
-1.63265e-09
3.52937e-12
-5.97666e-11
1.1908e-11
-2.62212e-12
-5.79509e-12
1.07123e-11
-1.92972e-12
-7.6097e-11
5.71622e-12
-9.61799e-13
-2.11167e-11
0
-1.85973e-10
2.9626e-09
-4.95796e-09
2.32813e-09
-1.08729e-06
-2.41479e-09
-1.08575e-06
0
-4.10918e-09
2.73012e-12
-1.26555e-10
1.14857e-11
-9.86134e-11
-3.89685e-12
3.80015e-13
4.99284e-12
-3.83029e-10
3.74324e-12
1.78462e-11
-4.65246e-10
9.76707e-12
-1.3746e-10
2.3941e-09
-3.04339e-08
-8.55685e-10
-1.11139e-06
-2.55147e-09
-1.11315e-06
0
-2.96491e-08
0
-3.9428e-11
1.806e-11
-1.13444e-10
-1.89977e-11
0
6.75329e-11
-4.17049e-10
-3.35934e-11
6.58059e-11
-4.63569e-10
2.77587e-10
-2.04535e-11
2.02861e-09
-7.43337e-08
8.37509e-10
-1.11689e-06
-1.35691e-09
-1.11672e-06
-1.67533e-10
-7.45718e-08
0
-1.15816e-11
9.12678e-12
-1.19376e-10
-8.49604e-11
1.38545e-12
5.04188e-11
-4.37809e-10
-2.96525e-11
3.57359e-12
-4.16651e-10
9.48376e-13
-6.02026e-11
4.41338e-11
-1.05077e-07
-2.44048e-09
-1.11362e-06
-1.66978e-09
-1.11524e-06
-3.46864e-11
-1.03582e-07
0
-1.04557e-11
1.1099e-11
-1.23573e-10
-9.88269e-11
2.53499e-11
-7.04882e-12
-4.34141e-10
3.39711e-12
0
-1.58432e-10
-4.14033e-11
-4.70408e-11
-1.14266e-08
-1.08701e-07
-1.1471e-08
-1.11413e-06
-6.64932e-09
-1.11279e-06
-2.18328e-11
-1.08163e-07
0
-9.4293e-12
1.45111e-11
-1.32482e-10
-1.07462e-10
2.35448e-11
-1.7245e-11
-4.51659e-10
3.49111e-11
0
-8.03016e-12
-3.01867e-11
-1.68653e-11
-6.31694e-09
-1.0252e-07
-9.35463e-09
-1.11169e-06
-4.73509e-09
-1.1119e-06
-4.71032e-13
-1.02405e-07
0
-1.01591e-11
9.11275e-12
-1.12538e-10
-1.15207e-10
1.71975e-11
-4.56019e-13
-3.78404e-10
1.71009e-11
-7.77343e-14
-8.41872e-12
2.06545e-13
-1.71667e-11
6.42905e-10
-6.90392e-08
-2.04437e-09
-1.10494e-06
-2.39128e-09
-1.10339e-06
-8.24804e-13
-6.89489e-08
-4.44719e-14
-1.1001e-11
-7.07746e-13
-7.29159e-11
-1.17612e-10
1.88274e-12
6.68413e-13
-1.36506e-10
-1.43803e-11
1.00545e-12
-8.77244e-12
8.85843e-13
-1.70583e-11
2.04098e-09
-3.231e-08
-1.42356e-09
-1.05708e-06
-3.37655e-09
-1.05581e-06
-6.59302e-12
-3.27865e-08
-6.683e-12
-1.13452e-11
-1.11278e-11
-5.762e-11
-1.2555e-10
-3.31142e-12
1.47379e-13
-4.33175e-11
-9.22915e-12
1.91052e-12
-1.06593e-11
2.47969e-12
-1.76442e-11
4.15702e-09
-1.06049e-08
-1.56555e-10
-9.91573e-07
-4.00539e-09
-9.90316e-07
-8.88752e-12
-9.8683e-09
-1.03982e-11
-1.08592e-11
-8.41671e-12
-4.77415e-11
-7.81992e-11
-1.80796e-11
3.24432e-12
-1.6854e-11
-3.36561e-13
1.0425e-11
-7.0528e-11
1.3254e-11
-2.05969e-11
4.89644e-09
-1.03857e-09
-8.31924e-11
-9.43507e-07
-5.00393e-09
-9.42452e-07
-1.16019e-11
-5.30272e-10
-1.28805e-11
-9.8016e-12
0
-3.99444e-11
-6.58639e-11
-1.87225e-11
3.40527e-11
-1.16086e-10
-8.55693e-13
2.95906e-11
-1.4547e-10
1.57761e-11
-2.05112e-11
5.21894e-09
-1.41436e-10
-5.26249e-10
-9.14943e-07
-3.97307e-09
-9.14347e-07
-4.68918e-12
-1.27027e-10
-6.02751e-12
-8.69791e-12
-3.40717e-12
-4.14212e-11
-1.82905e-10
-7.41443e-11
3.8563e-11
-1.75751e-10
-1.39043e-12
1.65678e-11
-1.38783e-10
4.05677e-12
-1.7701e-11
1.08371e-09
-1.22378e-09
-7.66202e-11
-8.95334e-07
-7.61738e-10
-8.94377e-07
-1.96879e-12
-8.87031e-10
-3.77763e-12
-7.05228e-12
-7.43544e-11
-6.79563e-11
-1.71275e-10
-8.56059e-11
3.51096e-11
-1.96537e-10
-2.72862e-12
1.87602e-11
-1.11519e-10
1.35282e-11
-1.37542e-11
5.01263e-09
-4.58243e-09
2.11579e-09
-8.9193e-07
-2.8566e-09
-8.91614e-07
-3.6979e-12
-3.73984e-09
-5.50636e-12
-5.2258e-12
-7.32821e-11
-6.99955e-11
-1.54527e-10
-8.97662e-11
1.86782e-11
-1.84228e-10
-2.10195e-11
1.30447e-11
-1.07469e-10
1.28168e-11
-1.26167e-11
4.12178e-09
-1.12082e-08
-1.29993e-09
-9.19113e-07
-6.0834e-09
-9.1871e-07
-1.83251e-11
-1.27981e-08
-1.94316e-11
-3.98578e-12
-6.79896e-11
-5.91251e-11
-1.22967e-10
-9.8821e-11
2.88314e-11
-1.59531e-10
-5.0652e-11
1.24991e-11
-1.07133e-10
1.16588e-11
-1.20415e-11
5.58282e-09
-2.93915e-08
5.02176e-10
-9.53789e-07
-4.63126e-09
-9.52224e-07
-1.52362e-11
-3.00074e-08
-1.60994e-11
-3.07868e-12
-8.79382e-11
-2.18405e-11
-7.81225e-11
-1.31979e-10
2.35153e-11
-1.4631e-10
-3.35134e-11
7.25897e-12
-8.67291e-11
6.33142e-12
-1.21649e-11
6.54035e-09
-5.27996e-08
2.54819e-09
-9.70867e-07
-3.83403e-09
-9.71648e-07
-4.88647e-12
-5.26875e-08
-5.18506e-12
-2.78156e-12
-7.75698e-11
-8.41321e-13
-4.00064e-13
-1.5454e-10
1.84874e-11
-1.3143e-10
-3.04907e-11
6.5704e-12
-6.25866e-11
6.94239e-12
-1.21913e-11
4.5572e-09
-7.40634e-08
5.18029e-10
-9.70973e-07
-4.44532e-09
-9.70568e-07
-3.2592e-13
-7.37346e-08
0
-3.10895e-12
2.09142e-12
2.3589e-12
8.43532e-12
-7.24004e-11
3.85138e-11
-8.62335e-11
-8.08336e-11
8.83809e-12
-4.59993e-11
9.55019e-12
-1.12695e-11
4.66707e-10
-8.4561e-08
-4.74471e-09
-9.59936e-07
-5.5431e-09
-9.60272e-07
-4.45068e-13
-8.83506e-08
0
-3.5553e-12
1.19216e-11
3.35318e-12
3.04273e-11
-4.93259e-12
4.56088e-12
-7.37275e-11
-5.42466e-11
1.19762e-12
-5.73643e-11
3.21876e-12
-1.25255e-11
1.24758e-09
-8.61842e-08
-5.85205e-09
-9.51332e-07
-3.61825e-09
-9.50432e-07
-3.67232e-13
-8.75187e-08
0
-3.924e-12
1.78671e-12
6.09888e-12
5.12007e-11
-2.31851e-12
9.48494e-11
-2.73906e-11
-1.38857e-10
2.30784e-11
-6.96687e-13
2.09916e-11
-1.05474e-11
7.83412e-09
-8.18696e-08
6.14418e-09
-9.38631e-07
-3.81533e-10
-9.36758e-07
-8.23059e-13
-8.39099e-08
0
-4.752e-12
2.91315e-12
5.97398e-12
5.25284e-11
1.65087e-13
5.95223e-13
1.95176e-12
-3.84508e-11
3.67452e-13
-5.71987e-13
7.89309e-13
-1.10605e-11
1.02146e-08
-6.94344e-08
9.05742e-09
-9.20542e-07
-1.22836e-09
-9.21387e-07
-1.09211e-11
-6.8159e-08
-9.4402e-12
-6.27427e-12
-4.3524e-12
1.88699e-12
3.07952e-11
-2.02349e-13
-8.69774e-13
2.57266e-12
-3.5684e-11
9.26092e-13
-2.45297e-12
1.36092e-12
-1.16027e-11
8.926e-09
-5.8889e-08
5.61164e-09
-8.99431e-07
-4.0961e-09
-8.98596e-07
-3.72551e-11
-5.70787e-08
-3.62367e-11
-4.21921e-12
-1.13437e-11
-6.14002e-12
9.11073e-12
-3.69971e-14
0
2.50302e-12
-2.25482e-12
6.9067e-12
-1.17742e-14
8.3922e-12
-1.31733e-11
7.42746e-09
-5.37847e-08
2.63913e-09
-8.78188e-07
-7.28672e-09
-8.76813e-07
-3.21388e-11
-5.42739e-08
-2.93737e-11
-3.7064e-12
-3.20134e-12
1.61295e-11
3.20585e-11
-1.51772e-13
2.65539e-12
2.01583e-12
-2.25905e-12
4.73627e-11
-9.46787e-12
4.72534e-11
-1.32641e-11
1.5996e-08
-5.33338e-08
1.65758e-08
-8.56178e-07
-3.65533e-10
-8.60327e-07
-4.95821e-11
-5.33764e-08
-5.14155e-11
-8.45454e-13
-1.9369e-11
3.29261e-11
6.02494e-11
-3.26906e-11
7.20011e-13
1.57232e-12
-3.70038e-13
4.48873e-11
-3.59586e-11
4.52228e-11
-1.23147e-11
9.88144e-09
-6.44265e-08
3.44446e-09
-8.57748e-07
-7.59902e-09
-8.58636e-07
-2.94003e-12
-6.35361e-08
-2.34509e-12
-6.8166e-13
8.88231e-12
2.35195e-12
3.58034e-11
4.83257e-11
4.39645e-11
3.0988e-11
-1.04598e-11
7.60124e-11
-1.10754e-10
7.32515e-11
-9.42143e-12
9.44898e-09
-9.48072e-08
9.87546e-10
-8.7151e-07
-8.64051e-09
-8.7189e-07
-7.6755e-13
-9.46932e-08
-6.65745e-14
-6.64777e-13
9.22088e-12
-1.59927e-11
5.19697e-12
8.69615e-12
7.78006e-11
-6.12493e-11
2.0885e-11
4.72188e-11
-7.23099e-11
4.5145e-11
-7.4052e-12
8.09931e-09
-1.30736e-07
-1.60603e-09
-8.81658e-07
-1.10247e-08
-8.80573e-07
-1.31601e-12
-1.31984e-07
-2.54043e-13
-1.27736e-12
5.01591e-12
-2.01184e-11
1.66297e-12
1.39085e-12
5.33241e-11
-6.93346e-11
-3.73909e-11
0
7.90091e-12
6.22243e-13
-8.04263e-12
9.61546e-09
-1.59154e-07
9.41213e-10
-8.83566e-07
-7.66375e-09
-8.82972e-07
-8.58173e-12
-1.5927e-07
-9.39118e-12
-4.75575e-13
-1.48234e-11
-7.52061e-12
-2.11751e-11
3.66628e-11
-6.08814e-11
-9.27898e-12
2.78747e-11
0
-1.29469e-11
8.98007e-13
-9.09951e-12
9.02883e-09
-1.74463e-07
3.92381e-10
-8.78133e-07
-8.64415e-09
-8.77364e-07
-1.09104e-13
-1.74939e-07
0
-5.9135e-13
1.64059e-11
-8.26836e-12
-2.11226e-11
3.06085e-11
-2.99944e-11
-2.53564e-11
2.4812e-11
1.17364e-11
-7.57148e-11
1.11674e-11
-8.71352e-12
9.25007e-09
-1.79712e-07
7.33586e-11
-8.66155e-07
-8.98621e-09
-8.65687e-07
-9.11054e-13
-1.80244e-07
-1.00968e-12
-5.04928e-13
7.86362e-14
-2.62407e-12
-3.77886e-13
5.62143e-13
1.25044e-11
-5.97949e-11
-6.97722e-11
5.14283e-11
-1.28344e-10
5.06052e-11
-7.73699e-12
9.10139e-09
-1.77273e-07
-6.28312e-11
-8.50563e-07
-8.90989e-09
-8.50818e-07
-5.88389e-13
-1.77912e-07
-5.91265e-13
-4.99377e-13
-9.62606e-14
0
-3.39454e-13
-2.0657e-13
1.22024e-10
-1.20501e-10
-6.13078e-11
8.81575e-11
-9.44268e-11
8.41351e-11
-3.35895e-12
1.16595e-08
-1.73054e-07
3.86313e-10
-8.32919e-07
-1.13344e-08
-8.33054e-07
-2.08231e-12
-1.73973e-07
-2.13831e-12
-4.17972e-13
-5.29331e-13
-6.15223e-12
-7.29761e-13
-2.12021e-13
1.44657e-11
-1.17984e-10
-1.68143e-11
2.07342e-11
-4.77046e-11
1.9848e-11
-2.26772e-12
1.35869e-08
-1.70286e-07
3.77253e-10
-8.1354e-07
-1.33839e-08
-8.1326e-07
-3.88982e-12
-1.71138e-07
-4.00539e-12
-2.84999e-13
-3.00937e-12
-7.56399e-12
-4.43711e-12
-5.9633e-13
-1.41908e-12
-1.11243e-12
-6.01488e-12
8.087e-12
-2.24595e-11
7.8383e-12
-1.97244e-12
1.45167e-08
-1.77559e-07
-4.41332e-10
-7.96108e-07
-1.48406e-08
-7.96386e-07
-2.59509e-12
-1.78414e-07
-2.82753e-12
-4.86698e-14
-8.87179e-12
-1.98807e-12
-4.96717e-12
-3.20883e-12
-1.66238e-14
-1.53417e-13
-9.43456e-13
2.7153e-12
-4.05475e-13
2.59767e-12
-1.85582e-12
1.60516e-08
-1.99584e-07
-7.97485e-10
-7.80834e-07
-1.64468e-08
-7.82191e-07
-2.59877e-13
-2.0031e-07
-2.84072e-13
-2.44728e-14
-1.37472e-12
-5.71448e-15
-2.69467e-15
-1.19721e-12
2.85691e-13
3.68316e-14
-4.76958e-13
1.95278e-13
-3.1608e-13
1.36317e-13
-1.79788e-12
1.63861e-08
-2.29678e-07
-1.26212e-09
-7.66211e-07
-1.78419e-08
-7.68244e-07
-1.85238e-15
-2.3051e-07
-1.65789e-15
-2.46659e-14
-3.78424e-16
-6.99255e-15
-3.31377e-15
2.40849e-16
4.49904e-13
2.96181e-13
-7.10323e-13
2.36843e-13
-1.04036e-13
1.73386e-13
-1.73544e-12
1.72997e-08
-2.58632e-07
1.77118e-10
-7.51202e-07
-1.8455e-08
-7.51392e-07
-1.93605e-15
-2.59264e-07
-2.22348e-15
-2.43764e-14
-1.75763e-15
-7.45822e-15
-3.74051e-15
-1.33253e-15
4.61466e-13
2.39894e-12
-6.80359e-12
3.20108e-13
3.58038e-14
2.7694e-13
-1.69333e-12
1.81557e-08
-2.8049e-07
6.84358e-10
-7.34385e-07
-1.89767e-08
-7.32192e-07
-2.56147e-15
-2.80892e-07
-2.58722e-15
-2.43501e-14
-2.3756e-15
-7.67148e-15
-4.23066e-15
-1.88715e-15
5.20815e-13
9.17185e-12
-3.1434e-11
3.78747e-13
1.74056e-13
3.37528e-13
-1.65366e-12
1.91499e-08
-2.94509e-07
-1.11109e-10
-7.1485e-07
-1.91172e-08
-7.12878e-07
-9.29088e-15
-2.94721e-07
-5.07869e-15
-2.85635e-14
-3.44156e-15
-9.31046e-15
-3.69938e-15
-3.97467e-15
3.72825e-13
5.62489e-12
-2.80328e-11
3.47245e-13
1.93752e-13
3.61265e-13
-1.6715e-12
2.20269e-08
-3.06569e-07
-9.44659e-10
-6.91501e-07
-2.17481e-08
-6.91682e-07
-7.22953e-14
-3.06424e-07
-2.53493e-14
-7.55172e-14
-4.29048e-15
-2.42968e-14
-2.58043e-15
-5.41128e-15
0
2.08091e-12
-2.18153e-12
4.93237e-13
1.85337e-13
9.65475e-13
-2.14962e-12
2.48999e-08
-3.22378e-07
-5.9847e-10
-6.65972e-07
-2.47741e-08
-6.6749e-07
-6.47633e-13
-3.22079e-07
-1.03854e-13
-6.19399e-13
-1.11359e-14
-6.04052e-14
-8.08205e-15
-5.63428e-15
2.74561e-15
1.01144e-12
-3.08832e-13
1.8575e-12
1.0344e-13
7.7308e-12
-8.0275e-12
2.65863e-08
-3.46739e-07
-9.20507e-10
-6.38714e-07
-2.85207e-08
-6.4015e-07
-7.21583e-12
-3.47551e-07
-1.74384e-13
-7.66292e-12
-8.9445e-14
-8.55731e-14
-2.98634e-15
-4.08575e-15
6.73647e-13
5.44019e-12
-1.39196e-15
2.00466e-12
-8.8553e-14
8.24242e-11
-8.84696e-11
2.8739e-08
-3.80424e-07
-1.70443e-11
-6.10109e-07
-2.96726e-08
-6.1065e-07
-9.50235e-11
-3.8146e-07
-2.15401e-13
-1.02504e-10
-1.18397e-13
-1.3064e-13
-6.96187e-15
-5.56827e-14
1.70584e-12
4.11275e-12
3.02537e-14
1.77883e-12
-1.86505e-13
1.09599e-09
-1.18271e-09
2.85827e-08
-4.14928e-07
9.50145e-11
-5.81668e-07
-2.81962e-08
-5.82427e-07
-1.27149e-09
-4.14583e-07
-2.22606e-13
-1.37378e-09
-1.38797e-13
-1.57967e-13
-3.79466e-14
0
-3.08217e-15
4.80664e-12
-2.8517e-13
8.28752e-14
-2.98082e-13
9.44482e-09
-1.06275e-08
2.49854e-08
-4.3385e-07
-1.33346e-10
-5.56565e-07
-3.09628e-08
-5.51599e-07
-1.00686e-08
-4.39184e-07
-1.04782e-13
-1.14422e-08
-2.82928e-14
-1.79534e-13
1.87701e-15
0
1.76545e-12
1.19837e-12
-3.93986e-13
1.85317e-12
-4.11362e-13
2.1176e-08
-3.34282e-08
3.95997e-08
-4.51949e-07
5.66884e-10
-5.17553e-07
-2.12864e-08
-5.29744e-07
-1.95626e-08
-4.40663e-07
-2.45147e-13
-3.26926e-08
-1.18861e-13
-2.50353e-13
7.85312e-15
-6.90567e-14
7.36092e-13
5.83214e-13
-2.15449e-12
1.29451e-12
-1.00353e-12
1.97158e-08
-5.24578e-08
-4.33867e-10
-4.30939e-07
-3.0105e-08
-4.87903e-07
-7.33171e-08
-4.86534e-07
-4.90043e-08
-4.64251e-07
-1.88197e-12
-8.13339e-08
-4.86237e-13
-1.5903e-12
1.16923e-14
-5.24795e-13
1.17975e-12
4.51669e-13
-1.11962e-12
1.95582e-11
-1.94325e-11
5.3204e-08
-1.04863e-07
5.91552e-08
-4.3649e-07
2.65915e-08
-4.55342e-07
-1.14739e-08
-4.48468e-07
-4.22231e-08
-4.33531e-07
-4.21376e-11
-1.24236e-07
-5.83823e-13
-4.29078e-11
1.48961e-15
-4.15696e-13
3.08474e-12
2.11892e-13
-3.10107e-12
6.57404e-10
-6.73773e-10
6.88311e-08
-1.71269e-07
2.82927e-08
-3.9584e-07
-2.06118e-08
-4.06437e-07
-6.03817e-08
-4.08698e-07
-8.67093e-08
-4.07214e-07
-1.26787e-09
-2.10391e-07
-2.67731e-13
-1.31038e-09
-1.59822e-14
-3.87953e-13
2.15188e-12
-1.70182e-12
-4.55608e-13
1.37733e-08
-1.44449e-08
1.01766e-07
-2.56561e-07
6.96575e-08
-3.63731e-07
3.08961e-08
-3.67676e-07
-1.34671e-08
-3.64335e-07
-6.95019e-08
-3.51179e-07
-1.83451e-08
-2.61404e-07
-5.90329e-12
-1.96496e-08
-5.91258e-12
-1.0465e-14
5.84307e-10
-5.83698e-10
-1.9436e-12
5.08673e-08
-6.49385e-08
8.41642e-08
-2.89655e-07
2.85603e-08
-3.08127e-07
-2.4723e-08
-3.14393e-07
-7.22323e-08
-3.16825e-07
-1.0867e-07
-3.14742e-07
-7.33933e-08
-2.95861e-07
-8.12641e-10
-9.0785e-08
-8.18548e-10
-6.10075e-15
2.7694e-08
-2.82729e-08
-4.44004e-12
1.48339e-07
-1.86324e-07
1.13295e-07
-2.54678e-07
7.22471e-08
-2.67079e-07
2.63021e-08
-2.68448e-07
-2.43375e-08
-2.66186e-07
-7.986e-08
-2.59219e-07
-1.29857e-07
-2.45863e-07