/*--------------------------------*- C++ -*----------------------------------*\
  =========                 |
  \\      /  F ield         | OpenFOAM: The Open Source CFD Toolbox
   \\    /   O peration     | Website:  https://openfoam.org
    \\  /    A nd           | Version:  8
     \\/     M anipulation  |
\*---------------------------------------------------------------------------*/
FoamFile
{
    version     2.0;
    format      ascii;
    class       volScalarField;
    location    "2.4";
    object      alpha.water;
}
// * * * * * * * * * * * * * * * * * * * * * * * * * * * * * * * * * * * * * //

dimensions      [0 0 0 0 0 0 0];

internalField   nonuniform List<scalar> 
9150
(
1
1
1
1
1
1
1
1
1
1
1
1
1
1
1
1
1
1
1
1
1
1
1
1
1
1
1
1
1
1
1
1
1
1
1
1
1
1
1
1
1
1
1
1
1
1
1
1
1
1
1
1
1
1
1
1
1
1
1
1
1
1
1
1
1
1
1
1
1
1
1
1
1
1
1
1
1
1
1
1
1
1
1
1
1
1
1
1
1
1
1
1
1
1
1
1
1
1
1
1
1
1
1
1
1
1
1
1
1
1
1
1
1
1
1
1
1
1
1
1
1
1
1
1
1
1
1
1
1
1
1
1
1
1
1
1
1
1
1
1
1
1
1
1
1
1
1
1
1
1
0.856008
0.856008
0.855843
0.80431
0.781459
0.795875
0.795709
0.790341
0.608211
0.533089
0.856008
0.855843
0.852153
0.590707
0.364048
0.286717
0.285159
0.285253
0.392739
0.723228
0.6883
0.846641
0.867918
0.829036
0.762723
0.661247
0.413796
0.285253
0.289795
0.30831
0.86752
0.867918
0.867956
0.867957
0.867956
0.867956
0.867926
0.857236
0.770266
0.787513
0.812837
0.867582
0.867918
0.867956
0.867956
0.867926
0.867903
0.866945
0.866005
0.865956
0.59527
0.862827
0.867117
0.867556
0.867492
0.798694
0.744897
0.779742
0.863825
0.865931
0.818774
0.842655
0.800147
0.699972
0.533046
0.260275
0.0406346
0.127353
0.539798
0.846462
0.561456
0.509023
0.359048
0.158884
0.0527373
0.0355683
0.0309625
0.0262554
0.161356
0.185765
0.336726
0.343168
0.63237
0.762923
0.593058
0.235532
0.0262554
0.0250221
0.0253563
0.186284
0.54226
0.780861
0.898088
0.898113
0.823102
0.341666
0.0259766
0.0248073
0.0248346
0.0539396
0.898438
0.898435
0.898418
0.898088
0.709511
0.0870533
0.0247875
0.0247879
0.0247914
0.0248265
0.898447
0.898438
0.898284
0.866578
0.269486
0.0247875
0.0247875
0.024788
0.0247881
0.0247907
0.898445
0.898394
0.897739
0.742867
0.0999031
0.0247878
0.0247994
0.0250174
0.0248979
0.0248
0.898432
0.89827
0.896681
0.609214
0.0386005
0.0247984
0.0248142
0.0248714
0.0248052
0.0248067
0.898378
0.897953
0.895308
0.471462
0.0249011
0.0248088
0.0248051
0.0248433
0.0248189
0.0248059
0.898196
0.897452
0.893536
0.515691
0.0259598
0.0249034
0.0248772
0.0248369
0.0248191
0.0247336
0.897919
0.897593
0.897126
0.872294
0.330468
0.0333983
0.0723401
0.170705
0.181279
0.17879
0.897593
0.897246
0.89714
0.89724
0.895089
0.687463
0.614947
0.877926
0.889945
0.892061
0.897088
0.897159
0.897254
0.89723
0.89723
0.896644
0.830912
0.788817
0.841394
0.895235
0.710505
0.831322
0.896925
0.89723
0.896644
0.895833
0.894899
0.811207
0.658183
0.65214
0.237936
0.195778
0.687482
0.893851
0.895833
0.894899
0.886329
0.879646
0.87428
0.86964
0.250942
0.0888244
0.0805945
0.340136
0.668478
0.727157
0.594497
0.771579
0.853107
0.872803
0.273736
0.186384
0.0801036
0.0795188
0.150058
0.403654
0.511614
0.520166
0.530963
0.609049
0.549229
0.396437
0.0798857
0.0793239
0.0794605
0.207543
0.683948
0.792813
0.645146
0.499286
0.515253
0.2175
0.0790985
0.07946
0.0794306
0.0794452
0.434823
0.900748
0.902414
0.852878
0.0794562
0.0793709
0.0793349
0.0793813
0.0794471
0.0792874
0.287166
0.873682
0.903705
0.90414
0.0793709
0.0793308
0.0793308
0.0793306
0.0793
0.0794388
0.412183
0.892939
0.904539
0.904539
0.0793448
0.0793332
0.0793301
0.0793332
0.0794091
0.0797393
0.629864
0.90488
0.905357
0.904913
0.0794044
0.0793447
0.0793331
0.0793753
0.0798767
0.333928
0.861234
0.906042
0.905719
0.905361
0.0796124
0.0794731
0.0793759
0.079708
0.303044
0.823438
0.906565
0.906316
0.906066
0.905817
0.102259
0.0802659
0.0796416
0.229974
0.818189
0.906591
0.90683
0.90657
0.906389
0.90468
0.646873
0.110862
0.0817726
0.622667
0.906272
0.907071
0.907011
0.90683
0.906445
0.634971
0.755719
0.155718
0.304828
0.839893
0.907072
0.907544
0.907236
0.907017
0.756456
0.0895601
0.227888
0.177352
0.51713
0.87163
0.907545
0.908307
0.907544
0.907249
0.239409
0.0290928
0.190119
0.293537
0.819061
0.870561
0.892669
0.908911
0.908307
0.66214
0.0551675
0.0241862
0.884463
0.909681
0.905864
0.860278
0.8993
0.909561
0.908911
0.353059
0.0246375
0.021435
0.911254
0.911256
0.911256
0.901864
0.910704
0.910211
0.851158
0.148503
0.0277165
0.0213452
0.911256
0.911256
0.911256
0.911256
0.911226
0.90942
0.491434
0.0442251
0.0244622
0.0228788
0.911244
0.910928
0.91125
0.911251
0.911248
0.826545
0.180939
0.0268878
0.0264718
0.0279134
0.911252
0.911249
0.911249
0.911249
0.636512
0.605512
0.0646765
0.0340162
0.0263729
0.0101791
0.911252
0.911252
0.911249
0.810974
0.438312
0.547524
0.0302338
0.0311499
0.0440398
0.040262
0.911252
0.911253
0.71698
0.0920736
0.402836
0.510633
0.00180014
0.0313054
0.0443414
0.0442679
0.745686
0.739644
0.360713
0.0149474
0.501455
0.466393
0.00149511
0.0297131
0.0443336
0.044334
0.0943824
0.0515952
0.0269041
2.35336e-05
0.44487
0.431696
0.00042445
0.00632947
0.0194801
0.014516
2.0806e-05
2.09258e-05
2.20985e-05
2.33055e-05
0.430457
0.427913
5.55675e-05
5.0785e-05
5.81843e-05
0.000343698
2.07799e-05
2.0806e-05
2.09258e-05
2.20984e-05
0.55999
0.556706
5.07735e-05
4.50829e-05
3.58573e-05
0.000379304
2.0806e-05
2.09258e-05
2.48412e-05
2.93796e-05
0.701766
0.700585
5.5277e-05
5.26476e-05
3.34846e-05
3.12645e-05
4.5987e-05
2.29933e-05
0.000142903
8.53518e-05
0.783014
0.780962
0.000131533
0.000201858
0.000175647
4.00895e-05
0.00076144
0.000477163
0.000238417
0.00869763
0.814352
0.813794
0.00779146
0.000221941
0.000359706
0.000104691
0.000942364
0.000942358
0.000111096
0.037265
0.825306
0.825394
0.0370722
3.42854e-05
0.000359865
0.000241977
0.000942364
0.000942343
2.79497e-05
0.0661757
0.827439
0.827238
0.0659216
1.51673e-05
0.0003554
0.000365845
0.000942358
0.000750843
2.38727e-05
0.080379
0.827439
0.826511
0.0791784
1.3698e-05
0.000353253
0.00036585
0.000942249
0.00011549
1.98798e-05
0.0819328
0.827341
0.826747
0.0811298
1.37189e-05
0.000332272
0.000365835
0.000890959
1.98797e-05
1.98798e-05
0.0657518
0.826219
0.825596
0.0658869
1.3691e-05
0.000229968
0.000365783
0.000419119
1.9889e-05
1.98798e-05
0.0377076
0.808449
0.80791
0.0376475
1.37327e-05
0.000162865
0.000365716
0.000136948
1.99729e-05
1.9889e-05
0.0155741
0.766739
0.766654
0.0157299
1.41826e-05
0.000143509
0.000350744
6.70397e-05
7.00733e-05
1.99729e-05
0.00424408
0.734019
0.733437
0.0038464
1.42109e-05
0.000123175
0.000201584
0.000300165
0.000290894
2.36429e-05
0.000172018
0.71964
0.71943
1.42109e-05
1.31953e-05
0.000113915
0.000423854
0.000589928
0.000333142
2.51878e-05
2.77868e-05
0.716114
0.71609
1.31953e-05
1.19784e-05
0.000165734
0.000649703
0.000623675
0.000297204
2.34191e-05
2.54372e-05
0.721574
0.720915
1.15668e-05
9.83601e-06
0.000255598
0.000649719
0.000638215
0.000296139
2.17252e-05
0.00528615
0.748182
0.747031
0.00373801
7.99797e-06
0.000277008
0.000649707
0.000686689
0.000383847
2.0903e-05
0.0151766
0.786798
0.788008
0.0176517
6.77739e-06
0.000283095
0.000649717
0.000687
0.000408146
2.05057e-05
0.0340967
0.820031
0.818578
0.0341813
6.4447e-06
0.000183486
0.000649704
0.000686689
0.000289298
1.97418e-05
0.0538613
0.835053
0.834432
0.0539282
6.4447e-06
0.000174672
0.000337936
0.000686689
0.000246821
1.9105e-05
0.0688688
0.837684
0.837684
0.069343
6.44451e-06
0.000183719
0.000180505
0.000586925
0.000250931
1.86895e-05
0.074825
0.837392
0.837507
0.0770437
6.4447e-06
0.000245382
0.000200299
0.000680972
0.000367777
1.82752e-05
0.0755612
0.836966
0.837327
0.0757542
6.44839e-06
0.000312293
0.000280855
0.000483441
1.82745e-05
1.82826e-05
0.0672636
0.833475
0.835123
0.0696199
6.49557e-06
0.000314414
0.000218342
0.000148302
1.82979e-05
1.82762e-05
0.057356
0.828964
0.827011
0.0559279
6.54846e-06
0.000506114
3.94387e-05
1.69547e-05
5.43849e-05
1.82979e-05
0.0510603
0.823314
0.823056
0.0503671
3.83617e-06
0.000528018
3.71056e-05
1.63539e-05
0.00036778
1.86615e-05
0.0483536
0.820111
0.822414
0.0496274
1.34892e-06
0.000510583
0.000570638
1.63625e-05
0.000686912
1.97848e-05
0.0529022
0.83138
0.830212
0.0519817
1.11994e-06
0.00021923
0.000570657
0.000760369
0.000783584
1.54865e-05
0.0760187
0.861668
0.86153
0.0754385
1.06941e-06
4.42213e-05
8.03103e-05
0.00118051
0.00117984
1.3466e-05
0.112922
0.89217
0.892014
0.113041
9.01647e-07
0.000226164
3.64979e-05
0.00117984
0.00112847
1.3466e-05
0.14826
0.913924
0.914022
0.149108
7.21934e-07
0.000217934
0.000750416
0.000640705
0.000588597
1.34641e-05
0.172956
0.926882
0.926157
0.17316
7.12493e-07
6.72809e-05
0.000170252
0.000128153
0.000124824
1.28316e-05
0.18582
0.932688
0.932028
0.186314
6.99199e-07
2.70476e-05
8.23111e-05
0.000629322
0.000711944
8.84673e-06
0.19073
0.934439
0.933775
0.19142
6.50152e-07
8.55515e-06
3.71232e-06
0.000895647
0.000895454
4.55431e-06
0.190964
0.935277
0.934587
0.191687
5.11097e-07
2.35075e-05
3.70593e-06
0.000895483
0.000649872
3.31323e-06
0.190441
0.936279
0.9356
0.191084
2.4656e-07
4.69238e-05
3.61359e-05
0.000133732
0.000296932
2.90866e-06
0.198793
0.940706
0.940029
0.19925
5.52691e-08
4.68778e-05
0.000125861
2.80216e-06
4.44631e-05
2.80145e-06
0.223173
0.949864
0.949412
0.223678
3.71357e-08
4.89578e-06
0.000126023
2.80156e-06
2.80147e-06
2.80156e-06
0.264209
0.961675
0.961235
0.264617
3.71353e-08
3.71353e-08
3.7134e-08
2.80216e-06
2.80156e-06
2.80146e-06
0.310858
0.971969
0.971616
0.311182
3.71357e-08
3.7134e-08
3.71323e-08
9.94459e-06
2.80263e-06
2.80159e-06
0.354003
0.979522
0.979078
0.354156
3.71371e-08
3.71323e-08
3.7132e-08
6.44807e-05
2.80725e-06
2.80266e-06
0.389847
0.984549
0.98403
0.390039
3.71672e-08
3.71321e-08
3.71321e-08
4.75587e-05
2.81429e-06
2.80725e-06
0.421059
0.988228
0.987625
0.421355
3.75591e-08
1.8975e-07
3.71321e-08
1.01869e-05
4.86721e-06
2.81429e-06
0.457723
0.991676
0.99101
0.458062
4.19997e-08
8.47218e-07
3.71373e-08
6.80294e-06
1.57776e-05
2.86188e-06
0.509089
0.994663
0.994067
0.509372
8.66732e-08
1.0909e-06
2.49069e-07
3.64241e-05
1.15613e-05
3.20124e-06
0.580703
0.996658
0.996122
0.581004
6.06974e-07
1.08783e-06
1.11425e-06
5.01666e-05
2.43365e-06
2.50609e-06
0.666955
0.997848
0.997311
0.667371
1.09637e-06
1.0923e-06
1.93964e-06
5.01587e-05
2.43441e-06
2.43441e-06
0.752573
0.998619
0.998223
0.753114
1.11052e-06
1.106e-06
1.98699e-06
2.8361e-05
2.43401e-06
0.0286306
0.822513
0.999453
0.998702
0.822206
0.0331469
1.11052e-06
1.11962e-06
9.42528e-06
2.52085e-06
0.103488
0.884067
0.999477
0.999756
0.884716
0.119181
1.11962e-06
3.37524e-06
5.0945e-06
2.63521e-06
0.178647
0.918347
0.999875
0.999817
0.960894
0.262094
1.05603e-06
1.08144e-06
6.43542e-06
3.95945e-06
0.383531
0.984621
0.999948
0.999977
0.984735
0.425194
9.54487e-07
9.40091e-07
7.1023e-06
6.39294e-06
0.62133
0.999968
0.999993
0.999982
0.999979
0.697886
5.34429e-07
5.19065e-08
6.80592e-06
0.0684172
0.872502
0.999993
0.999998
1
0.999988
0.876079
0.126632
1.12817e-09
6.58117e-06
0.533738
0.996133
0.999998
1
1
1
0.999962
0.617642
5.96902e-10
0.322268
0.965681
1
1
1
1
1
1
0.964512
0.340735
0.532977
0.53323
0.536792
0.527759
0.528853
0.52997
0.530799
0.738466
0.85881
0.859678
0.860305
0.897537
0.897542
0.897542
0.897472
0.89757
0.897571
0.89757
0.897513
0.796003
0.784057
0.782568
0.529394
0.724901
0.930413
0.930828
0.930854
0.930854
0.930852
0.930316
0.914658
0.914756
0.933838
0.934243
0.934243
0.932692
0.828018
0.828018
0.828018
0.828159
0.722956
0.723155
0.583766
0.526357
0.538086
0.713139
0.698494
0.657301
0.679011
0.666912
0.666995
0.815934
0.897557
0.89757
0.897571
0.897571
0.897571
0.897571
0.519451
0.13935
0.139015
0.139137
0.238314
0.797774
0.930777
0.930864
0.930859
0.930857
0.930854
0.930857
0.930849
0.924548
0.934261
0.934243
0.934243
0.934243
0.926417
0.914444
0.916209
0.930444
0.298546
0.298546
0.298546
0.43231
0.860714
0.891236
0.892159
0.89235
0.892426
0.877874
0.768145
0.889656
0.897564
0.89757
0.897571
0.897571
0.897571
0.740356
0.162117
0.139015
0.139015
0.139015
0.59232
0.930496
0.930875
0.93087
0.930864
0.930859
0.930857
0.930854
0.800546
0.800527
0.849682
0.934243
0.934243
0.934244
0.934244
0.934244
0.934244
0.934244
0.852
0.858791
0.847373
0.862502
0.807863
0.743446
0.744509
0.892225
0.892462
0.886554
0.897184
0.897514
0.897559
0.897564
0.897571
0.896301
0.897554
0.897452
0.565267
0.145554
0.139015
0.139035
0.653738
0.930845
0.93089
0.930877
0.929951
0.930857
0.930855
0.818654
0.784667
0.865565
0.888832
0.934243
0.934244
0.934244
0.934244
0.934244
0.934244
0.934244
0.86593
0.865853
0.865505
0.864326
0.862502
0.861299
0.750473
0.374679
0.290733
0.408836
0.670407
0.888751
0.897514
0.897559
0.891662
0.880044
0.880097
0.896673
0.89657
0.647518
0.139863
0.228568
0.824977
0.930797
0.930841
0.918418
0.913297
0.930846
0.930842
0.824
0.784116
0.88844
0.888701
0.886639
0.934244
0.934244
0.934244
0.929211
0.934244
0.934243
0.865853
0.83596
0.713392
0.547348
0.582626
0.545301
0.247856
0.04266
0.0414557
0.0424075
0.0436979
0.412109
0.8917
0.897451
0.897067
0.88358
0.880047
0.896171
0.89657
0.720498
0.247556
0.666453
0.930684
0.930787
0.930781
0.893088
0.928231
0.930833
0.930823
0.886551
0.783579
0.874538
0.866495
0.610499
0.854516
0.934244
0.776265
0.921865
0.934243
0.933997
0.526937
0.0458788
0.0353257
0.0356201
0.0502027
0.0538925
0.0410212
0.0406274
0.0404996
0.0414513
0.0424075
0.139227
0.668859
0.895771
0.896789
0.89663
0.896558
0.896559
0.750097
0.510191
0.677028
0.912222
0.928574
0.8829
0.913651
0.929531
0.930818
0.930823
0.930818
0.930815
0.662898
0.435616
0.764209
0.546667
0.466913
0.52491
0.60934
0.929649
0.930861
0.93161
0.0352862
0.0352883
0.0352852
0.0353257
0.0450834
0.0411168
0.0406274
0.0405267
0.0406274
0.125979
0.242971
0.293819
0.286857
0.616784
0.895858
0.896522
0.896571
0.896559
0.652713
0.588076
0.871143
0.907945
0.832621
0.832348
0.866958
0.928757
0.901408
0.926488
0.901479
0.716079
0.408031
0.407246
0.64377
0.599495
0.465871
0.466458
0.794971
0.936869
0.936693
0.931814
0.03529
0.0352873
0.0352898
0.137385
0.395033
0.415835
0.41212
0.397553
0.396045
0.394955
0.115548
0.0780073
0.190519
0.810949
0.896464
0.896506
0.896522
0.859645
0.623707
0.821058
0.864841
0.865993
0.908387
0.868922
0.731594
0.727898
0.657598
0.781031
0.623186
0.406655
0.406985
0.723584
0.783445
0.465499
0.465499
0.555401
0.936869
0.936869
0.936869
0.93263
0.223253
0.223367
0.247736
0.413806
0.416941
0.416107
0.199413
0.117637
0.117758
0.078879
0.0779779
0.0781366
0.198208
0.838254
0.896506
0.896505
0.878313
0.723136
0.712378
0.907285
0.865212
0.906576
0.911828
0.911828
0.710977
0.484944
0.647132
0.780423
0.594375
0.406707
0.406635
0.567021
0.898674
0.876464
0.822416
0.907706
0.936868
0.936869
0.936869
0.936869
0.0821385
0.286524
0.286718
0.285749
0.083909
0.0996882
0.106562
0.179517
0.177742
0.248023
0.254455
0.118547
0.478344
0.894583
0.894613
0.896346
0.780482
0.779836
0.924114
0.92411
0.885636
0.916818
0.905215
0.574921
0.484944
0.484418
0.478127
0.425627
0.406707
0.406656
0.406707
0.737066
0.937571
0.937565
0.936425
0.936686
0.936819
0.936868
0.936869
0.936868
0.0248696
0.105568
0.0764956
0.0250293
0.0249113
0.0249555
0.0999126
0.131843
0.244687
0.505966
0.763554
0.730406
0.77972
0.783903
0.743408
0.781191
0.906398
0.924139
0.924316
0.924258
0.92411
0.915633
0.640602
0.576923
0.65023
0.85091
0.450479
0.412427
0.408611
0.598922
0.834232
0.927517
0.937586
0.937584
0.936239
0.910801
0.891297
0.904945
0.936864
0.914334
0.0248105
0.0248303
0.0248699
0.0251088
0.0248711
0.0248798
0.0267636
0.0256396
0.11044
0.694379
0.853504
0.817763
0.497105
0.488541
0.796262
0.924148
0.924299
0.924319
0.924317
0.924316
0.924258
0.887383
0.627385
0.634456
0.937632
0.937644
0.896052
0.851276
0.859939
0.922829
0.93774
0.937675
0.937599
0.937599
0.888262
0.879344
0.878632
0.878269
0.875991
0.855777
0.0248061
0.0248105
0.0248358
0.0249032
0.0248857
0.0248799
0.0248799
0.0248906
0.0634764
0.643846
0.854579
0.704178
0.415387
0.490576
0.924148
0.924299
0.924319
0.924319
0.924319
0.924286
0.898418
0.758449
0.833723
0.937634
0.937673
0.937686
0.937693
0.937698
0.937704
0.937709
0.937738
0.93766
0.937521
0.937607
0.937684
0.900811
0.923508
0.920391
0.86998
0.855777
0.0248112
0.0248354
0.0248619
0.0248035
0.0246975
0.0248767
0.0248773
0.0249389
0.0602742
0.642236
0.854579
0.837772
0.407479
0.386015
0.92424
0.924254
0.924299
0.924319
0.917018
0.594189
0.525259
0.796846
0.937651
0.937673
0.937686
0.937693
0.937696
0.937701
0.937705
0.937707
0.937621
0.936816
0.936816
0.93682
0.937694
0.937773
0.93772
0.937664
0.93751
0.877823
0.0248023
0.0248609
0.0248722
0.0248059
0.0248739
0.0249381
0.0249389
0.0257496
0.299323
0.853227
0.854754
0.805964
0.316258
0.298041
0.442284
0.798688
0.834017
0.538645
0.405804
0.41085
0.526196
0.937653
0.937693
0.937654
0.937673
0.937687
0.937694
0.897848
0.895607
0.937705
0.937748
0.937733
0.936816
0.936828
0.937732
0.937813
0.937587
0.826593
0.936549
0.936555
0.127251
0.0502488
0.0263162
0.0254009
0.0260321
0.0330801
0.215328
0.715575
0.890538
0.881722
0.74168
0.304064
0.297615
0.297622
0.29774
0.314587
0.326821
0.305512
0.314901
0.42508
0.88416
0.937611
0.937633
0.937651
0.937658
0.825899
0.68509
0.683998
0.704787
0.872116
0.937828
0.937832
0.937614
0.936948
0.937845
0.937832
0.857845
0.65471
0.812103
0.936497
0.897691
0.702994
0.477172
0.459202
0.721449
0.87644
0.902201
0.903002
0.900973
0.780746
0.309324
0.297614
0.297615
0.297614
0.297622
0.29774
0.298303
0.299718
0.434911
0.803931
0.937501
0.937548
0.937611
0.937548
0.789499
0.676008
0.678813
0.682909
0.696063
0.803792
0.907664
0.937856
0.937847
0.937847
0.937848
0.937846
0.78331
0.654181
0.654136
0.883692
0.901232
0.902
0.902696
0.903197
0.903264
0.903273
0.903282
0.90334
0.903355
0.871583
0.418146
0.297938
0.297614
0.297622
0.412132
0.606449
0.584689
0.683788
0.877777
0.936665
0.937083
0.921649
0.884685
0.910347
0.812497
0.674906
0.682112
0.717839
0.824423
0.937869
0.937869
0.937879
0.937863
0.937847
0.937847
0.937833
0.834709
0.654131
0.6541
0.883148
0.648151
0.853362
0.858122
0.838237
0.890444
0.903283
0.90334
0.903373
0.90397
0.904914
0.88893
0.724979
0.623398
0.714046
0.877294
0.916842
0.921081
0.927995
0.933372
0.933941
0.936665
0.906719
0.809755
0.577776
0.54014
0.540172
0.54746
0.838761
0.937756
0.937844
0.93788
0.937846
0.937846
0.937847
0.937837
0.91781
0.910844
0.685394
0.654052
0.78935
0.606246
0.550224
0.545798
0.544933
0.544933
0.686084
0.903282
0.781729
0.811231
0.905246
0.906101
0.908432
0.911174
0.913673
0.914657
0.915059
0.918079
0.874355
0.639939
0.624839
0.62369
0.622855
0.582589
0.54014
0.54014
0.54014
0.591088
0.848621
0.937238
0.937612
0.937831
0.937808
0.937834
0.93785
0.899145
0.894702
0.928348
0.729284
0.654047
0.654052
0.875104
0.875618
0.875583
0.796943
0.80414
0.675926
0.310082
0.28481
0.28481
0.313094
0.437587
0.591029
0.654987
0.7061
0.790821
0.851745
0.86184
0.847748
0.880187
0.880074
0.837765
0.832285
0.803303
0.556579
0.54014
0.808568
0.933409
0.933517
0.933734
0.907015
0.908889
0.937791
0.937794
0.917758
0.899342
0.90099
0.929362
0.72459
0.654049
0.654046
0.72836
0.780653
0.84478
0.873806
0.881616
0.885147
0.885572
0.882857
0.737175
0.206363
0.0802777
0.0703134
0.0753285
0.0694772
0.0832257
0.224565
0.285689
0.441456
0.796859
0.932296
0.934131
0.903811
0.835128
0.796257
0.822142
0.913323
0.933336
0.933409
0.919373
0.906984
0.906984
0.932394
0.914481
0.90118
0.917716
0.933913
0.933908
0.869242
0.654049
0.654056
0.497704
0.497704
0.497704
0.62711
0.668304
0.776182
0.910911
0.912969
0.912248
0.753711
0.143779
0.033197
0.0289081
0.027059
0.0266704
0.0266674
0.0266379
0.0264585
0.0754648
0.745688
0.934457
0.76588
0.516049
0.515656
0.515696
0.575566
0.812885
0.931933
0.928918
0.908425
0.927578
0.899513
0.899492
0.908579
0.933959
0.933981
0.93379
0.932208
0.905429
0.679241
0.611202
0.50396
0.499856
0.518885
0.579079
0.575927
0.569582
0.844826
0.912969
0.911223
0.523423
0.0379791
0.0270421
0.0266729
0.0264808
0.026443
0.026435
0.0264233
0.0264585
0.538722
0.931022
0.883957
0.719839
0.600777
0.529839
0.520519
0.520997
0.687405
0.893961
0.933282
0.933568
0.899678
0.900747
0.934214
0.934245
0.916406
0.725394
0.654657
0.541659
0.532068
0.903782
0.896739
0.772462
0.862659
0.867355
0.843935
0.250699
0.274495
0.820047
0.919662
0.795395
0.125462
0.0268454
0.0264809
0.0264293
0.026423
0.0264214
0.0264208
0.0264233
0.629694
0.940558
0.941178
0.941204
0.94121
0.941213
0.728442
0.53054
0.530972
0.563255
0.87883
0.933981
0.933981
0.906284
0.93426
0.934267
0.841396
0.392699
0.146109
0.146071
0.146109
0.904144
0.903783
0.90327
0.901667
0.859125
0.652874
0.206196
0.0481267
0.522771
0.928595
0.932445
0.373367
0.0264977
0.0264293
0.026423
0.0264214
0.026421
0.0264214
0.322339
0.902036
0.941175
0.941247
0.941223
0.941212
0.941212
0.941212
0.941212
0.747877
0.56666
0.567225
0.660487
0.930617
0.93426
0.934275
0.934267
0.863854
0.823669
0.36903
0.182501
0.146071
0.904549
0.904101
0.902416
0.785243
0.264516
0.0493099
0.0474861
0.0473703
0.302379
0.90571
0.935739
0.891323
0.450351
0.133635
0.0378558
0.0290046
0.0726846
0.364438
0.882866
0.941175
0.941247
0.941247
0.940781
0.94121
0.941212
0.941212
0.941212
0.941188
0.941172
0.906408
0.729882
0.731107
0.881373
0.93426
0.934275
0.929855
0.934298
0.934301
0.917888
0.381599
0.904926
0.902973
0.787615
0.203525
0.0489745
0.0474468
0.0472702
0.047271
0.145084
0.806321
0.938244
0.93908
0.933136
0.821695
0.693632
0.661153
0.72184
0.901091
0.940816
0.941049
0.940975
0.940023
0.940021
0.940281
0.94121
0.941212
0.937008
0.941174
0.941172
0.941136
0.941081
0.907074
0.498236
0.77304
0.934224
0.934298
0.934301
0.934301
0.934301
0.620178
0.903536
0.721308
0.17438
0.0478467
0.0473093
0.0472571
0.0472563
0.0472568
0.15812
0.81469
0.93908
0.93925
0.939268
0.938937
0.935445
0.933438
0.939474
0.940853
0.941023
0.941044
0.94103
0.940852
0.941041
0.941119
0.941165
0.941207
0.905125
0.920935
0.941136
0.941081
0.940953
0.875747
0.467288
0.468157
0.839984
0.934257
0.9343
0.934301
0.902588
0.520408
0.647609
0.089691
0.0449835
0.046222
0.0472388
0.0472563
0.0472568
0.0472566
0.448071
0.928053
0.939251
0.939277
0.939279
0.907816
0.856328
0.90631
0.940901
0.941023
0.941039
0.941039
0.941047
0.941049
0.941044
0.941091
0.94059
0.900116
0.764493
0.632778
0.669549
0.73691
0.727422
0.537523
0.462481
0.462728
0.748962
0.934183
0.934296
0.9343
0.934296
0.561867
0.058064
0.0414323
0.0432099
0.0593115
0.0473085
0.0472538
0.147747
0.459768
0.91428
0.93925
0.939277
0.939279
0.939279
0.939279
0.857388
0.850484
0.862283
0.857688
0.860149
0.904198
0.94103
0.940116
0.939531
0.790996
0.424
0.197251
0.124336
0.0713375
0.102554
0.275165
0.473267
0.50083
0.514748
0.731014
0.933563
0.93428
0.934295
0.934296
0.922987
0.476293
0.0357753
0.0401082
0.0863157
0.48483
0.486081
0.635041
0.768884
0.933637
0.939265
0.939277
0.939279
0.939279
0.939279
0.939279
0.921044
0.8499
0.838643
0.855352
0.865567
0.877135
0.747761
0.313592
0.0478006
0.117787
0.0501706
0.0661931
0.0414931
0.0254449
0.0220526
0.0221487
0.199711
0.492718
0.523721
0.501969
0.515602
0.764157
0.93428
0.928942
0.71567
0.43901
0.0334491
0.0722995
0.605985
0.846212
0.850595
0.854172
0.873748
0.889043
0.877177
0.843727
0.836159
0.819037
0.745517
0.599034
0.451169
0.367649
0.355461
0.315233
0.170334
0.00805303
0.000152838
0.000117214
0.00335267
0.00264459
0.00835117
0.0466976
0.0531638
0.0361688
0.0220526
0.0220526
0.0838321
0.0866315
0.0517039
0.296527
0.768793
0.798607
0.803317
0.411462
0.282392
0.437644
0.0392893
0.0839772
0.552048
0.268669
0.328241
0.250618
0.188907
0.13707
0.102298
0.0774507
0.046319
0.00292066
3.13047e-05
3.13045e-05
3.13045e-05
3.13334e-05
3.13722e-05
3.13722e-05
0.000290576
0.000539823
0.000154455
8.39265e-05
0.000312986
0.000545551
0.00151177
0.0222113
0.0549343
0.0656579
0.0656598
0.0652945
0.0178324
0.000953125
0.00589846
0.334568
0.676487
0.574035
0.197931
0.112284
0.137943
0.154776
0.110743
0.132413
0.0960475
1.60331e-05
2.63879e-05
3.2934e-05
3.23417e-05
8.14533e-05
6.67633e-05
3.13096e-05
3.13069e-05
3.13047e-05
3.13045e-05
3.13045e-05
3.13045e-05
3.13045e-05
0.000286241
0.00137634
0.00138615
0.00059741
5.38732e-05
5.37614e-05
6.34433e-05
0.000131048
0.000560286
0.0245882
0.0527362
0.00738911
0.00707415
0.00142597
0.000767376
0.000396639
0.0101873
0.0565587
0.0472621
0.0111483
0.000346369
0.000690928
0.00295226
0.00403027
0.00223159
0.00148229
1.25529e-05
1.29348e-05
8.18002e-05
3.22217e-05
3.21253e-05
3.16913e-05
3.13096e-05
3.13089e-05
3.13089e-05
3.13069e-05
3.13047e-05
3.13045e-05
3.13045e-05
3.13113e-05
9.25622e-05
0.000271272
0.000556256
0.000590645
5.33397e-05
5.21774e-05
5.37614e-05
6.02149e-05
0.000463634
0.0285692
0.0503344
0.0463078
0.0138346
0.00749161
0.000758653
0.000367017
0.00174156
0.000463358
0.000400678
0.000379291
0.000346265
0.000346235
0.000353105
0.0034214
0.00412639
1.00981e-05
1.16729e-05
0.000109841
0.000114449
9.78435e-05
3.22217e-05
3.17688e-05
3.13347e-05
3.13096e-05
3.13089e-05
3.54979e-05
4.11607e-05
7.71376e-05
8.66112e-05
3.17431e-05
4.31045e-05
4.66167e-05
5.61396e-05
8.49764e-05
6.61569e-05
5.20598e-05
5.21774e-05
5.30569e-05
0.000168172
0.00293492
0.000195139
0.00933637
0.0251317
0.0291617
0.0229695
0.000367017
0.00035821
0.000348723
0.000346653
0.000346248
0.000346235
0.000346265
0.000346265
0.0282046
0.000860277
9.93404e-06
9.93775e-06
2.70415e-05
0.000108351
0.000189296
0.000242853
0.000462801
0.00023845
3.1389e-05
3.13415e-05
0.000148442
0.000283533
0.000215861
0.00021546
0.000250086
0.000332466
0.000383319
0.000263126
5.23659e-05
5.20587e-05
5.2113e-05
5.20588e-05
5.22852e-05
5.42876e-05
6.31608e-05
9.41678e-05
0.000234399
0.000239665
0.0146461
0.0304908
0.0114465
0.000348723
0.000346653
0.000346302
0.000346589
0.000346248
0.0195721
0.0412347
0.0412769
9.9343e-06
9.93477e-06
9.93158e-06
9.93775e-06
1.0026e-05
8.27421e-05
0.00153304
0.00247758
0.00210487
0.00036844
3.37391e-05
5.72689e-05
0.000695681
0.00164368
0.00164594
0.00164594
0.00164594
0.00164264
0.00163891
0.00124714
0.000727418
0.000163728
5.22852e-05
5.31107e-05
8.3439e-05
8.33111e-05
9.15807e-05
0.000113876
0.000351967
0.000346494
0.00420493
0.0110503
0.00784538
0.0182939
0.0224795
0.0357549
0.0404248
0.0412706
0.0412769
0.0412723
0.00607568
9.93414e-06
9.93775e-06
9.97357e-06
9.4253e-06
0.000218279
0.00230197
0.00247752
0.0024776
0.00247746
0.00130787
7.48941e-05
9.82798e-05
0.000553545
0.00127112
0.00139774
0.000579999
0.0010276
0.00163618
0.00163387
0.00163387
0.00162656
0.00151836
0.000899531
0.000191276
9.15807e-05
0.000189938
0.000626168
0.0006375
0.000401058
0.000257381
0.000259077
0.0308609
0.0414448
0.041507
0.0413911
0.0412722
0.0289465
0.0128842
0.0176188
0.0191951
1.06123e-05
2.42433e-05
9.47318e-06
7.90101e-06
0.000194001
0.00220802
0.0024776
0.00247756
0.0024775
0.00247741
0.00191345
0.000485253
3.77534e-05
0.000100581
3.87169e-05
3.86674e-05
0.00013098
0.000258299
0.000272227
0.000426598
0.00046211
0.000613348
0.000895083
0.000232309
9.49524e-05
0.00045326
0.0006375
0.0006364
0.000306856
0.000255126
0.000255098
0.0362498
0.0415099
0.0414988
0.0194179
0.00572109
0.00191865
0.00194441
0.00170486
0.0225982
0.00261124
0.000213525
1.04137e-05
7.41112e-06
7.32055e-06
0.000721317
0.00247735
0.0024775
0.00247741
0.00247524
0.00218732
0.000533598
3.76005e-05
3.77534e-05
3.82865e-05
0.000307259
0.00155529
0.000669513
4.11192e-05
4.09268e-05
4.35542e-05
6.1005e-05
8.87627e-05
0.00010014
9.89416e-05
0.000149108
0.00037594
0.000272048
0.000255126
0.0002551
0.000255126
0.0343168
0.0414448
0.0323561
0.00156661
0.0010531
0.00170089
0.00249053
0.00170486
0.00594069
0.00210905
0.000169807
8.32733e-06
7.31458e-06
7.2907e-06
7.32055e-06
0.000633495
0.00229773
0.00247524
0.00114902
3.74689e-05
3.78644e-05
3.75299e-05
3.76005e-05
0.000151105
0.00142957
0.0017295
0.000472329
4.09269e-05
0.000133904
0.000963774
0.00110744
0.00105551
0.000465143
0.000102775
9.8304e-05
0.000101552
0.000583333
0.000492991
0.000443492
0.004657
0.0160829
0.02123
0.00525576
0.000126572
0.000141687
0.00257384
0.00257351
0.00173963
0.000174216
0.000162554
7.26545e-05
7.39459e-06
7.27896e-06
7.29005e-06
2.87481e-05
0.000255172
0.000257146
0.00102711
3.70823e-05
3.70819e-05
3.70823e-05
3.7271e-05
0.000231594
0.00170978
0.00175857
0.00174804
0.000297035
0.000133611
0.00110771
0.00110771
0.00110773
0.00110744
0.000423935
9.14213e-05
9.70168e-05
0.000311959
0.000872771
0.000918722
0.0020238
0.00597257
0.00115485
0.00161681
0.000407015
0.000118633
0.000118346
0.00144412
0.00161274
0.00153674
0.000158216
8.93573e-06
8.60871e-06
1.21715e-05
7.22289e-06
0.000241055
0.0008048
0.000298178
0.000241246
5.15378e-05
3.70819e-05
3.70823e-05
3.72332e-05
0.000137508
0.00154483
0.00175828
0.00175939
0.00161004
5.93057e-05
0.000125027
0.00109241
0.00110772
0.00110771
0.00110705
0.000460581
8.81996e-05
8.50594e-05
0.00022745
0.000276967
0.000546664
0.00117176
0.00158034
0.000119599
0.000453503
0.000118633
0.000118331
0.000118427
0.000137462
0.000923738
0.00153159
3.12777e-05
8.60871e-06
8.60871e-06
1.85355e-05
7.13458e-06
0.00048811
0.0008048
0.0008048
0.000368433
8.03123e-05
0.000374327
0.000590218
7.58195e-05
0.000130564
0.00129145
0.00175927
0.00175687
0.00122612
4.63207e-05
8.97257e-05
0.00100327
0.00110771
0.0011075
0.00110732
0.0011058
0.000515001
8.18689e-05
8.21908e-05
8.50214e-05
0.000108354
0.000109
0.000108402
0.000116832
0.000119599
0.000121988
0.000149005
0.000510596
0.000646609
0.0015325
0.0015325
0.000120047
5.4033e-05
1.26775e-05
8.18105e-06
7.12736e-06
5.30397e-05
0.000613544
0.000679153
0.000499577
8.6023e-05
0.000474105
0.00161113
0.00161282
0.00135967
0.000374264
0.000962496
0.0017467
0.000584845
4.63148e-05
4.63207e-05
5.69335e-05
0.000731506
0.00110732
0.0011058
0.000456582
7.98383e-05
8.10281e-05
8.86483e-05
9.34159e-05
9.59098e-05
9.98203e-05
0.000103505
0.000135045
0.000609943
0.000879598
0.000926582
0.000942838
0.000949499
0.00138598
0.00153251
0.000119804
0.00010119
2.16295e-05
7.83168e-06
7.13456e-06
7.12768e-06
4.91914e-05
5.51136e-05
0.000148864
8.37261e-05
9.90887e-05
0.000343286
0.00133739
0.00168493
0.00168433
0.000617763
0.00119842
0.00057651
4.63207e-05
4.63207e-05
7.70228e-05
0.000885133
0.00110515
0.000331175
7.97582e-05
7.94892e-05
7.98383e-05
0.000171183
0.000489826
0.000362728
0.000103505
0.000105966
0.000188542