/*--------------------------------*- C++ -*----------------------------------*\
  =========                 |
  \\      /  F ield         | OpenFOAM: The Open Source CFD Toolbox
   \\    /   O peration     | Website:  https://openfoam.org
    \\  /    A nd           | Version:  8
     \\/     M anipulation  |
\*---------------------------------------------------------------------------*/
FoamFile
{
    version     2.0;
    format      ascii;
    class       volScalarField;
    location    "5.75";
    object      alpha.water;
}
// * * * * * * * * * * * * * * * * * * * * * * * * * * * * * * * * * * * * * //

dimensions      [0 0 0 0 0 0 0];

internalField   nonuniform List<scalar> 
9150
(
1
1
1
1
1
1
1
1
1
1
1
1
1
1
1
1
1
1
1
1
1
1
1
1
1
1
1
1
1
1
1
1
1
1
1
1
1
1
1
1
1
1
1
1
1
1
1
1
1
1
1
1
1
1
1
1
1
1
1
1
1
1
1
1
1
1
1
1
1
1
1
1
1
1
1
1
1
1
1
1
1
1
1
1
1
1
1
1
1
1
1
1
1
1
1
1
1
1
1
1
1
1
1
1
1
1
1
1
1
1
1
1
1
1
1
1
1
1
1
1
1
1
1
1
1
1
1
1
1
1
1
1
1
1
1
1
1
1
1
1
1
1
1
1
1
1
1
1
1
1
0.979098
0.979097
0.979099
0.980746
0.99419
0.994189
0.993781
0.994186
0.994189
0.992097
0.979159
0.981992
0.99418
0.99419
0.99419
0.99419
0.994026
0.994189
0.994189
0.99392
0.979233
0.979312
0.992068
0.99419
0.99419
0.99419
0.99419
0.99419
0.993777
0.991885
0.979616
0.99124
0.99419
0.99419
0.99419
0.99419
0.99419
0.990617
0.978825
0.98419
0.994187
0.99419
0.99419
0.99419
0.99419
0.99419
0.99419
0.976795
0.976893
0.992771
0.992164
0.994187
0.983575
0.983535
0.99419
0.965892
0.936314
0.89456
0.943279
0.993633
0.794667
0.88082
0.814581
0.814709
0.822744
0.822811
0.822927
0.884648
0.993233
0.993642
0.785204
0.785204
0.791759
0.878193
0.936748
0.965728
0.987151
0.993641
0.993642
0.993642
0.846357
0.957589
0.98138
0.99162
0.991611
0.991525
0.986615
0.983976
0.993463
0.993642
0.990841
0.993194
0.993194
0.993192
0.963563
0.939428
0.939418
0.941113
0.989418
0.993642
0.990929
0.992522
0.992975
0.961859
0.939496
0.939419
0.944121
0.935755
0.939821
0.967849
0.955707
0.955707
0.956979
0.963664
0.974392
0.974411
0.958846
0.935682
0.986225
0.994754
0.985571
0.985604
0.965299
0.907554
0.90751
0.907513
0.907496
0.907496
0.957811
0.994752
0.975397
0.985712
0.985749
0.985779
0.924185
0.907499
0.907496
0.907496
0.926388
0.992795
0.831904
0.982109
0.985787
0.985819
0.934828
0.907501
0.907499
0.915297
0.992376
0.993059
0.765996
0.880346
0.985799
0.985866
0.965193
0.919631
0.907501
0.977784
0.99226
0.961271
0.765996
0.799946
0.98164
0.987925
0.985774
0.951041
0.918603
0.989564
0.989076
0.895827
0.765996
0.766002
0.933953
0.988615
0.98849
0.979252
0.983139
0.984443
0.905688
0.895828
0.766002
0.864635
0.989323
0.988953
0.987144
0.979972
0.966748
0.910442
0.905986
0.942389
0.92449
0.989285
0.98984
0.989129
0.96132
0.891246
0.881647
0.882932
0.95347
0.993242
0.955087
0.993392
0.991189
0.94382
0.880474
0.880552
0.880778
0.910502
0.993164
0.992968
0.944552
0.993752
0.985742
0.890636
0.880474
0.880456
0.880552
0.970787
0.993311
0.993164
0.948298
0.993899
0.992045
0.90834
0.880457
0.880474
0.91756
0.993464
0.993449
0.993311
0.986708
0.993918
0.993899
0.980837
0.892607
0.883355
0.99067
0.993464
0.99347
0.993449
0.994074
0.993916
0.993918
0.993906
0.985177
0.979666
0.993579
0.993507
0.992376
0.99263
0.760465
0.987616
0.993907
0.993914
0.993904
0.993764
0.993594
0.993593
0.99353
0.905482
0.690714
0.692159
0.808067
0.920923
0.953661
0.845787
0.760867
0.806765
0.82819
0.746356
0.690698
0.690714
0.690851
0.691914
0.758437
0.819637
0.723695
0.724086
0.743412
0.91236
0.818397
0.908204
0.942898
0.94696
0.842149
0.72367
0.723695
0.72757
0.911748
0.917379
0.993652
0.993159
0.992967
0.992772
0.908324
0.812793
0.881797
0.917635
0.908445
0.892078
0.989082
0.992938
0.992825
0.987616
0.945938
0.930916
0.929469
0.917624
0.917483
0.887859
0.96207
0.962067
0.962067
0.967873
0.967634
0.959081
0.914475
0.921178
0.934775
0.910497
0.992575
0.992561
0.992549
0.991985
0.946886
0.939245
0.941909
0.942111
0.94056
0.936861
0.992573
0.991813
0.989738
0.980295
0.964245
0.949461
0.938958
0.848422
0.782255
0.749692
0.903887
0.816164
0.759229
0.893689
0.964159
0.964069
0.900198
0.594557
0.591539
0.591425
0.665739
0.665903
0.673385
0.92483
0.964051
0.96337
0.944097
0.743116
0.616074
0.591539
0.665759
0.667031
0.855252
0.952953
0.956429
0.934498
0.934076
0.932289
0.934555
0.769558
0.894446
0.89365
0.892058
0.880693
0.624924
0.553125
0.785732
0.886575
0.940659
0.942407
0.894721
0.894721
0.870368
0.473058
0.420645
0.420313
0.420678
0.560347
0.908063
0.970908
0.599715
0.428031
0.425371
0.425546
0.420313
0.420678
0.463538
0.662929
0.84715
0.971864
0.356784
0.516118
0.516649
0.5126
0.496166
0.598909
0.84694
0.984563
0.984989
0.969382
0.242506
0.455505
0.40387
0.341912
0.424743
0.574472
0.886467
0.984994
0.985136
0.98511
0.136924
0.136899
0.136899
0.136899
0.136899
0.157997
0.400792
0.900463
0.985106
0.985136
0.136901
0.136899
0.136899
0.136899
0.136899
0.1369
0.136901
0.518082
0.959797
0.985121
0.136925
0.136901
0.136899
0.137686
0.1369
0.136901
0.136903
0.211317
0.835222
0.985147
0.136968
0.136938
0.136998
0.138115
0.137675
0.136905
0.136908
0.136921
0.679128
0.985211
0.136994
0.136992
0.138114
0.138115
0.138113
0.136946
0.136921
0.136963
0.627253
0.985408
0.137016
0.137407
0.138109
0.137566
0.13706
0.136979
0.136963
0.182986
0.822364
0.985515
0.137033
0.137048
0.1371
0.137128
0.137031
0.136977
0.137103
0.517062
0.97843
0.985718
0.137048
0.137079
0.137113
0.13712
0.137118
0.137176
0.293254
0.874775
0.985521
0.985783
0.137146
0.137341
0.141926
0.178699
0.281553
0.49158
0.912562
0.985825
0.985821
0.985796
0.269241
0.468824
0.670259
0.851014
0.985952
0.985915
0.985878
0.985834
0.985822
0.985819
0.986197
0.986166
0.986061
0.985977
0.985971
0.985951
0.985915
0.985878
0.985831
0.985812
0.9862
0.986197
0.986166
0.98606
0.985957
0.985916
0.985899
0.985811
0.985696
0.9855
0.986197
0.986166
0.986062
0.985257
0.985063
0.985363
0.983505
0.948188
0.855675
0.78887
0.986133
0.962414
0.902493
0.733445
0.73783
0.763436
0.725055
0.551765
0.471014
0.470804
0.850681
0.580951
0.478049
0.481187
0.492533
0.498332
0.493555
0.485462
0.480552
0.490673
0.441987
0.441658
0.441987
0.651695
0.69641
0.509086
0.721814
0.801266
0.858658
0.957974
0.441535
0.441987
0.578398
0.983308
0.985461
0.906361
0.985013
0.985125
0.984886
0.984426
0.443144
0.446579
0.599125
0.985449
0.985449
0.985456
0.985336
0.984474
0.918554
0.839255
0.734518
0.455759
0.479499
0.783228
0.985467
0.985336
0.966087
0.729656
0.385061
0.240133
0.968204
0.790466
0.488278
0.496011
0.985165
0.958506
0.654618
0.240133
0.240133
0.240128
0.964903
0.961957
0.548257
0.316314
0.982905
0.902816
0.479742
0.240179
0.240128
0.240133
0.906776
0.954212
0.6632
0.240377
0.93135
0.863896
0.648354
0.382678
0.240179
0.240261
0.949186
0.952999
0.779284
0.209763
0.888721
0.79428
0.587558
0.784226
0.648523
0.390187
0.511324
0.527769
0.32983
0.207445
0.877391
0.780664
0.136355
0.43007
0.946396
0.936039
0.018738
0.0189344
0.0896525
0.209471
0.876727
0.775703
0.136342
0.135131
0.561261
0.939936
0.0185977
0.0187805
0.0863018
0.126968
0.87553
0.826381
0.136041
0.135131
0.26597
0.87382
0.0184134
0.0186164
0.0918156
0.113337
0.874965
0.831322
0.154369
0.244955
0.589226
0.530718
0.0178928
0.020014
0.0963533
0.1011
0.871999
0.83015
0.139596
0.191822
0.487491
0.0135809
0.00855285
0.0085797
0.0509777
0.0952544
0.869746
0.836907
0.126356
0.225407
0.253817
0.0110038
0.00308448
0.0138391
0.0435274
0.092305
0.869221
0.844772
0.116483
0.184285
0.0883273
0.000348446
2.58859e-05
2.47968e-05
2.44296e-05
0.0974525
0.881102
0.865232
0.115864
0.103515
0.0203403
0.000190185
9.45704e-05
4.78644e-05
2.36807e-05
0.114874
0.891315
0.880174
0.131012
0.0359444
0.000156824
0.000107276
0.000256652
0.000145389
2.25849e-05
0.133495
0.904244
0.89106
0.145927
0.0150851
1.84075e-05
1.79244e-05
0.000256655
6.34772e-05
2.20357e-05
0.152539
0.914715
0.904222
0.162824
0.0209657
1.78565e-05
1.68625e-05
0.000198713
4.67195e-05
2.154e-05
0.17009
0.923233
0.915721
0.1783
0.0342716
1.85281e-05
0.000854683
3.35783e-05
2.3104e-05
2.10564e-05
0.188164
0.931201
0.927085
0.192158
0.0934525
0.00120429
0.00426494
2.1601e-05
2.10564e-05
2.04861e-05
0.203407
0.937075
0.938142
0.202836
2.27452e-05
0.00290906
0.00616451
2.74539e-05
0.000197979
1.97995e-05
0.219051
0.943121
0.945155
0.219882
2.08078e-05
0.00287339
0.00615692
4.24053e-05
0.000295585
1.86817e-05
0.236823
0.949945
0.951525
0.23867
2.05818e-05
0.000735244
0.00179284
5.96736e-05
0.000294618
1.75922e-05
0.259017
0.957806
0.956853
0.257224
2.01412e-05
3.19901e-05
0.000247651
3.77483e-05
9.0925e-05
1.72127e-05
0.28258
0.964824
0.963401
0.277462
1.93688e-05
0.000136807
0.000285692
7.80924e-05
3.12042e-05
1.70264e-05
0.307162
0.971125
0.970659
0.303782
1.85418e-05
0.000108207
0.000251222
9.44087e-05
4.18594e-05
1.68526e-05
0.335371
0.977251
0.977664
0.33361
1.77881e-05
0.000131648
0.000123792
7.92634e-05
3.56161e-05
1.67067e-05
0.370299
0.983268
0.984298
0.368964
1.74076e-05
6.24727e-05
8.11326e-06
0.000129736
3.81202e-05
1.6504e-05
0.415134
0.988998
0.990246
0.413825
1.69565e-05
1.65697e-05
8.87652e-06
0.000129561
3.09559e-05
1.63843e-05
0.467633
0.993475
0.994793
0.465851
1.74076e-05
7.71384e-05
0.000471867
8.53603e-05
1.84432e-05
1.44476e-05
0.524654
0.996151
0.997621
0.523609
1.83174e-05
0.000433818
0.000668737
5.33848e-05
1.18485e-05
1.2177e-05
0.582487
0.997937
0.99859
0.583771
2.17853e-05
0.000506958
0.000668753
4.51286e-05
1.17097e-05
1.18485e-05
0.680207
0.999063
0.998835
0.613516
1.60315e-05
0.000135421
0.000379145
1.19943e-05
1.17289e-05
0.00261378
0.796949
0.999087
0.999063
0.617376
8.54365e-07
1.9067e-07
6.05519e-07
1.66886e-05
1.17099e-05
0.0408923
0.814706
0.9992
0.999104
0.814747
0.011359
1.86754e-07
1.82155e-07
3.23215e-05
1.17289e-05
0.092804
0.879462
0.999492
0.999573
0.900203
0.124534
1.82155e-07
1.81943e-07
7.11672e-05
1.18777e-05
0.183112
0.929749
0.999749
0.999924
0.950617
0.237047
1.82096e-07
1.82155e-07
1.15977e-05
1.22652e-05
0.36504
0.977074
0.999964
0.999956
0.989599
0.422581
1.85752e-07
1.69551e-07
1.1225e-05
1.16062e-05
0.633132
0.99997
0.999979
0.999995
0.999966
0.647207
8.82109e-07
5.7875e-09
2.11788e-07
0.0707048
0.852932
0.999988
1
0.999999
0.999995
0.889308
0.0857364
1.57571e-09
2.29013e-09
0.557812
0.999754
1
1
1
0.999999
0.997554
0.544064
1.04737e-09
0.311848
0.957231
1
1
1
1
1
1
0.966201
0.331437
0.988589
0.988588
0.988588
0.989404
0.993659
0.993659
0.993659
0.993659
0.993659
0.988276
0.988194
0.988194
0.989649
0.993686
0.993686
0.993686
0.993686
0.993686
0.993333
0.954978
0.945384
0.945384
0.970887
0.993211
0.963469
0.95598
0.95598
0.95598
0.955993
0.969064
0.991639
0.991614
0.968803
0.921199
0.967941
0.984735
0.985185
0.96951
0.969344
0.969344
0.992589
0.993654
0.990573
0.993358
0.993659
0.993659
0.993659
0.993659
0.988639
0.98824
0.993326
0.990833
0.989718
0.993686
0.993686
0.993686
0.993686
0.993684
0.974975
0.945509
0.945384
0.957502
0.993378
0.993409
0.98148
0.95598
0.963037
0.99183
0.991343
0.990232
0.991748
0.991474
0.948296
0.919459
0.966809
0.979631
0.985902
0.986828
0.986861
0.982444
0.993659
0.993659
0.993659
0.993659
0.993659
0.993659
0.993659
0.989616
0.9882
0.992306
0.993686
0.993686
0.993686
0.993686
0.993676
0.993585
0.993686
0.993686
0.993682
0.970073
0.945572
0.986794
0.993409
0.993458
0.993034
0.986935
0.986845
0.991869
0.991876
0.991886
0.991876
0.967175
0.848133
0.848133
0.848133
0.848147
0.920448
0.936876
0.988064
0.988064
0.991844
0.993659
0.993659
0.993659
0.993659
0.993659
0.993186
0.987669
0.989743
0.993686
0.993686
0.993686
0.993686
0.993686
0.993686
0.993683
0.993686
0.993686
0.993686
0.993682
0.993534
0.993347
0.993353
0.99348
0.993458
0.993413
0.993338
0.987997
0.987948
0.991886
0.991886
0.991874
0.940644
0.85591
0.848147
0.851511
0.852205
0.853335
0.971406
0.988064
0.993627
0.993639
0.992952
0.993659
0.993659
0.993659
0.989138
0.987666
0.992478
0.993686
0.993686
0.993674
0.993686
0.993686
0.993686
0.993686
0.993686
0.993686
0.982634
0.906206
0.868456
0.963366
0.986824
0.993527
0.99341
0.993054
0.991997
0.991352
0.991883
0.991886
0.967367
0.958099
0.958455
0.988578
0.983759
0.977088
0.939209
0.853118
0.864768
0.983225
0.993625
0.990344
0.990341
0.992835
0.993659
0.990442
0.987666
0.987666
0.991082
0.993682
0.992192
0.992189
0.992673
0.993686
0.993686
0.993686
0.94493
0.87017
0.853806
0.852128
0.852129
0.854395
0.96906
0.993856
0.962989
0.962827
0.962827
0.966677
0.989704
0.991886
0.99185
0.963715
0.980892
0.988653
0.988653
0.988653
0.988461
0.891569
0.829281
0.938884
0.991665
0.990366
0.990805
0.99364
0.98797
0.987666
0.987666
0.987666
0.98881
0.993684
0.993685
0.99313
0.993685
0.993686
0.993686
0.953025
0.852317
0.852131
0.852126
0.852126
0.852128
0.929989
0.993879
0.993887
0.99293
0.993748
0.992346
0.947788
0.945149
0.94504
0.944813
0.944869
0.980582
0.988578
0.9831
0.953436
0.938256
0.848951
0.829157
0.891165
0.993642
0.993642
0.993642
0.993642
0.989585
0.988897
0.987666
0.987666
0.993486
0.993685
0.993685
0.993685
0.993686
0.993686
0.947382
0.852223
0.852131
0.852126
0.852126
0.852126
0.858262
0.978201
0.993916
0.99391
0.993907
0.993912
0.993913
0.993913
0.969451
0.945149
0.945327
0.968687
0.971572
0.843052
0.82918
0.829159
0.829158
0.829157
0.829158
0.872802
0.993642
0.993642
0.993639
0.99364
0.993426
0.993139
0.993302
0.993664
0.993679
0.993685
0.993685
0.993686
0.993686
0.993686
0.98153
0.964316
0.918622
0.852131
0.852126
0.929796
0.993009
0.99398
0.993929
0.993908
0.993912
0.993913
0.993914
0.993914
0.993914
0.99199
0.960196
0.959345
0.978461
0.980847
0.910497
0.829218
0.829159
0.829158
0.829157
0.918195
0.991393
0.980841
0.978663
0.989246
0.980401
0.968538
0.96458
0.976746
0.987438
0.989539
0.993685
0.993685
0.993686
0.993686
0.993685
0.993665
0.993113
0.986658
0.986362
0.991767
0.993905
0.993929
0.993919
0.993915
0.993913
0.993914
0.993914
0.993914
0.993914
0.993914
0.991857
0.992865
0.988691
0.980553
0.989467
0.993407
0.857681
0.829159
0.829158
0.961738
0.972041
0.976687
0.976583
0.977208
0.976041
0.956251
0.952898
0.9528
0.953985
0.961288
0.969141
0.9802
0.991882
0.993685
0.993665
0.993564
0.993445
0.993278
0.989248
0.973652
0.970402
0.977713
0.883559
0.820563
0.925289
0.988342
0.94724
0.942996
0.983438
0.993908
0.99385
0.993798
0.99379
0.992331
0.993407
0.993408
0.928257
0.829326
0.85434
0.984671
0.994754
0.994754
0.994493
0.994717
0.994717
0.990129
0.972461
0.950965
0.936796
0.935983
0.932984
0.932984
0.942498
0.982446
0.979892
0.942709
0.926016
0.923727
0.732861
0.679512
0.679489
0.679512
0.679649
0.679769
0.680124
0.680479
0.681128
0.68307
0.776845
0.975326
0.961522
0.961343
0.990087
0.993406
0.993408
0.993408
0.973089
0.829948
0.905242
0.992059
0.994754
0.994754
0.994752
0.994733
0.991617
0.991475
0.977047
0.934083
0.924132
0.927383
0.935349
0.949135
0.940703
0.926553
0.926881
0.781157
0.680421
0.680548
0.68056
0.695583
0.679512
0.679485
0.679715
0.680025
0.680339
0.820161
0.898921
0.774599
0.760622
0.76008
0.760622
0.853813
0.993278
0.993405
0.993408
0.993408
0.993408
0.856999
0.942179
0.993028
0.994752
0.994752
0.985074
0.967612
0.980232
0.977995
0.92449
0.924446
0.939133
0.988235
0.99136
0.991678
0.994419
0.990766
0.933612
0.714113
0.680421
0.680421
0.746946
0.803528
0.823901
0.783552
0.815444
0.798104
0.841939
0.89912
0.89912
0.89912
0.89308
0.892699
0.891983
0.726591
0.860546
0.991659
0.993406
0.993408
0.993406
0.971521
0.986543
0.993191
0.98509
0.944453
0.863294
0.913902
0.985368
0.985435
0.954959
0.942766
0.992775
0.990644
0.986578
0.990696
0.994432
0.994222
0.942649
0.742795
0.680421
0.682983
0.87672
0.988792
0.992672
0.992672
0.992672
0.992672
0.957383
0.881294
0.878449
0.801165
0.541291
0.560747
0.828656
0.522562
0.640754
0.942885
0.993403
0.993406
0.993405
0.993405
0.993298
0.993187
0.862685
0.862674
0.862719
0.896629
0.972288
0.970784
0.970785
0.991605
0.993071
0.988612
0.986528
0.9929
0.994439
0.994432
0.994321
0.951741
0.862021
0.961635
0.992672
0.992672
0.992672
0.992672
0.992672
0.992643
0.803897
0.522862
0.522793
0.523006
0.522647
0.522638
0.524326
0.52259
0.525514
0.965626
0.993405
0.993405
0.993405
0.993405
0.986588
0.985536
0.862674
0.982906
0.994032
0.994032
0.994032
0.994017
0.982744
0.964885
0.993665
0.994553
0.994555
0.994551
0.994497
0.984046
0.937385
0.925267
0.964375
0.988717
0.992672
0.992672
0.992672
0.992672
0.992671
0.992646
0.933472
0.584824
0.522661
0.522647
0.522632
0.522625
0.522634
0.522654
0.522691
0.75287
0.929354
0.977911
0.993405
0.98898
0.971491
0.982495
0.948552
0.994031
0.994032
0.994032
0.994026
0.984993
0.961302
0.964827
0.994546
0.994555
0.994551
0.9932
0.943807
0.787268
0.696719
0.696735
0.696798
0.822357
0.992664
0.992612
0.992673
0.992671
0.992669
0.99267
0.992648
0.984003
0.680998
0.522632
0.522625
0.522625
0.522625
0.522634
0.522635
0.522611
0.57299
0.851489
0.993393
0.980747
0.971491
0.985664
0.993979
0.994031
0.994031
0.994026
0.993888
0.980712
0.961301
0.969122
0.994546
0.994545
0.984834
0.798327
0.696487
0.696461
0.696487
0.696719
0.697847
0.719261
0.878928
0.991252
0.992678
0.992671
0.992667
0.992647
0.992016
0.99155
0.991399
0.978389
0.675213
0.522625
0.52263
0.522623
0.522581
0.522493
0.522663
0.663216
0.993288
0.986532
0.97809
0.986096
0.993881
0.963065
0.917264
0.924979
0.948787
0.950416
0.979121
0.994388
0.994491
0.993696
0.831565
0.697183
0.696461
0.696905
0.742702
0.890166
0.972637
0.989197
0.989197
0.988008
0.990441
0.985132
0.962411
0.922526
0.899542
0.968458
0.990783
0.990442
0.989085
0.888452
0.665656
0.522528
0.522495
0.541321
0.708838
0.859797
0.986212
0.986457
0.986338
0.98613
0.993003
0.879071
0.682903
0.683032
0.766529
0.994345
0.994362
0.994361
0.994388
0.994194
0.929445
0.731533
0.783809
0.99496
0.99495
0.994961
0.994917
0.983419
0.893307
0.811496
0.776956
0.715903
0.637564
0.637748
0.71632
0.956064
0.957849
0.958778
0.969875
0.993409
0.97498
0.938431
0.923207
0.944886
0.976315
0.984942
0.98495
0.986352
0.986329
0.985791
0.965924
0.717504
0.682886
0.682903
0.68322
0.855726
0.994361
0.994362
0.99436
0.993766
0.993891
0.994907
0.994957
0.994959
0.99496
0.994917
0.975348
0.719195
0.637544
0.637544
0.637543
0.637544
0.637545
0.637564
0.637788
0.694284
0.984729
0.994129
0.994098
0.993818
0.975641
0.973622
0.983668
0.983841
0.983897
0.984064
0.983881
0.984928
0.985413
0.984697
0.915945
0.682886
0.682885
0.682886
0.682917
0.683452
0.894029
0.994361
0.99436
0.99436
0.99418
0.988097
0.989055
0.994957
0.9949
0.994652
0.895912
0.637554
0.637544
0.637543
0.637544
0.637545
0.637564
0.637839
0.723407
0.988429
0.994159
0.994164
0.994129
0.993988
0.948796
0.804567
0.800466
0.799751
0.866492
0.907953
0.865968
0.790849
0.763889
0.770849
0.987784
0.798736
0.682886
0.682886
0.682889
0.682963
0.721823
0.991251
0.99436
0.994343
0.994254
0.949894
0.863227
0.976153
0.994635
0.993972
0.988536
0.76805
0.637554
0.637545
0.637549
0.637703
0.81143
0.994497
0.994537
0.994497
0.994217
0.991701
0.993896
0.993465
0.993257
0.993076
0.911482
0.788565
0.671901
0.662219
0.662215
0.662214
0.662213
0.662213
0.992496
0.991991
0.948817
0.738152
0.682963
0.683446
0.916938
0.990244
0.989859
0.992277
0.992374
0.971075
0.859976
0.852664
0.925143
0.992996
0.992236
0.991572
0.910498
0.677291
0.744501
0.994448
0.994489
0.994513
0.994578
0.994537
0.994081
0.972417
0.96721
0.991289
0.993027
0.992593
0.992283
0.992181
0.981832
0.769661
0.662219
0.662269
0.662429
0.662213
0.772034
0.773319
0.816118
0.944731
0.943693
0.93442
0.944284
0.91849
0.917777
0.928209
0.973435
0.983206
0.952808
0.85274
0.852631
0.852817
0.928232
0.989636
0.990436
0.99308
0.993085
0.992487
0.993318
0.994566
0.994617
0.994578
0.994514
0.982172
0.816338
0.742352
0.941568
0.992283
0.992181
0.991569
0.948482
0.895647
0.941118
0.952208
0.896579
0.8615
0.746356
0.777473
0.835141
0.910421
0.95898
0.98641
0.986241
0.986214
0.986105
0.974808
0.922433
0.978359
0.967466
0.858604
0.910797
0.907662
0.829723
0.829635
0.890195
0.993088
0.99308
0.991173
0.988944
0.988968
0.994645
0.994181
0.993497
0.993452
0.934175
0.571687
0.506928
0.826319
0.981806
0.990216
0.976687
0.974278
0.974345
0.972558
0.969452
0.966271
0.94013
0.983295
0.986765
0.986765
0.986707
0.986684
0.986383
0.969905
0.960189
0.831674
0.910974
0.977935
0.977551
0.860485
0.847236
0.945851
0.93071
0.830493
0.830834
0.832964
0.950104
0.993924
0.99514
0.995161
0.995165
0.982833
0.951097
0.985135
0.986259
0.964798
0.505909
0.431596
0.63292
0.989575
0.989552
0.989527
0.989342
0.937933
0.896919
0.959148
0.9344
0.986754
0.986765
0.986765
0.975949
0.95612
0.971979
0.888038
0.718641
0.718546
0.722875
0.847355
0.781258
0.630196
0.625496
0.752157
0.968865
0.968865
0.954501
0.952313
0.930532
0.970474
0.995155
0.995167
0.99515
0.949382
0.951191
0.932576
0.971709
0.969546
0.734615
0.429048
0.466756
0.989589
0.989575
0.989332
0.932749
0.830897
0.830019
0.841649
0.92812
0.977445
0.986754
0.986765
0.986753
0.696535
0.751056
0.914051
0.914962
0.765792
0.62712
0.626058
0.625655
0.625481
0.62553
0.625538
0.626847
0.850746
0.994565
0.994643
0.993767
0.995112
0.995126
0.99514
0.885521
0.666238
0.893495
0.701128
0.768463
0.766456
0.422181
0.428943
0.787817
0.989666
0.989586
0.915068
0.824035
0.824072
0.843396
0.850113
0.887881
0.920683
0.986552
0.986753
0.799849
0.586805
0.586551
0.75923
0.915302
0.907983
0.884043
0.804106
0.625453
0.62553
0.625526
0.625519
0.625516
0.633653
0.933192
0.994908
0.995093
0.995105
0.995112
0.878879
0.436118
0.376468
0.505215
0.417607
0.426741
0.376911
0.379292
0.686102
0.989761
0.989768
0.939821
0.823845
0.8238
0.850831
0.978271
0.978451
0.913843
0.9494
0.985364
0.967413
0.636981
0.586551
0.586538
0.586547
0.748265
0.989349
0.991949
0.992081
0.849983
0.625442
0.625519
0.625516
0.625516
0.625516
0.848859
0.964092
0.972826
0.995093
0.970106
0.435073
0.376423
0.376424
0.37645
0.376454
0.37646
0.37647
0.432807
0.984653
0.989772
0.980693
0.837981
0.8238
0.823845
0.970357
0.978451
0.978451
0.888547
0.848116
0.835393
0.892493
0.920952
0.878588
0.597622
0.586539
0.607993
0.931035
0.992081
0.992134
0.992144
0.951937
0.646595
0.625519
0.625516
0.625518
0.625519
0.648145
0.919116
0.994836
0.805784
0.376423
0.376423
0.376423
0.376424
0.376445
0.376456
0.37646
0.609216
0.982347
0.989761
0.952869
0.82556
0.823845
0.890222
0.977763
0.978271
0.978451
0.667289
0.595696
0.58791
0.587975
0.737999
0.83697
0.846193
0.845016
0.907506
0.991251
0.992022
0.992144
0.992144
0.992144
0.992036
0.738007
0.625537
0.625519
0.625534
0.62555
0.844062
0.994025
0.920997
0.411529
0.376423
0.376424
0.443054
0.456723
0.547572
0.568262
0.97069
0.984478
0.965137
0.93857
0.92014
0.899522
0.988337
0.976274
0.867482
0.96894
0.591539
0.590578
0.587975
0.587803
0.587735
0.587825
0.739109
0.844644
0.834661
0.766034
0.766329
0.84522
0.990315
0.992036
0.991821
0.991713
0.690433
0.62564
0.707631
0.782139
0.840418
0.978844
0.985492
0.789751
0.780775
0.846492
0.925691
0.942241
0.991449
0.989203
0.992144
0.970045
0.933098
0.933094
0.992708
0.992706
0.992708
0.866071
0.690143
0.896351
0.591451
0.684521
0.684128
0.596273
0.588304
0.587735
0.588341
0.588558
0.718287
0.970934
0.79841
0.722982
0.736135
0.959126
0.991713
0.991129
0.940655
0.82408
0.914679
0.96408
0.941996
0.981014
0.98547
0.968899
0.994046
0.99415
0.994168
0.994172
0.994171
0.994168
0.97569
0.9331
0.933093
0.933144
0.991861
0.992708
0.992706
0.716364
0.690143
0.85558
0.592776
0.664932
0.792822
0.851965
0.830725
0.617218
0.588169
0.656054
0.961749
0.971143
0.947419
0.722537
0.703197
0.758234
0.976465
0.990663
0.989811
0.983101
0.920902
0.981743
0.992916
0.993059
0.983301
0.984541
0.994149
0.994167
0.994173
0.994173
0.994173
0.994171
0.968148
0.9331
0.934472
0.970249
0.988974
0.992706
0.96163
0.690163
0.690143
0.87418
0.638302
0.573441
0.573347
0.857962
0.867501
0.799829
0.608537
0.737246
0.83194
0.961894
0.98392
0.917292
0.702102
0.702738
0.869662
0.989811
0.988858
0.977871
0.868402
0.936735
0.993059
0.993059
0.992559
0.981311
0.986946
0.994173
0.994173
0.994173
0.994173
0.994173
0.994043
0.975671
0.977785
0.992506
0.992542
0.992596
0.841168
0.690195
0.690163
0.945981
0.88775
0.573441
0.573774
0.864947
0.867532
0.583814
0.514278
0.51463
0.51442
0.770879
0.98624
0.98643
0.950898
0.701714
0.764694
0.977012
0.988611
0.979583
0.86548
0.864623
0.958723
0.993059
0.992955
0.913896
0.950438
0.994173
0.994173
0.994173
0.994173
0.994173
0.989992
0.952612
0.926529
0.97359
0.992258
0.991704
0.794006
0.690207
0.812235
0.969384
0.976213
0.577025
0.715079
0.867724
0.867706
0.5787
0.514278
0.514198
0.547093
0.861941
0.986702
0.986617
0.986594
0.744407
0.655424
0.929627
0.987654
0.986203
0.886129
0.864623
0.886096
0.992955
0.992942
0.614477
0.873027
0.99416
0.994173
0.994173
0.994173
0.97742
0.875179
0.750277
0.726667
0.783563
0.94915
0.991359
0.837656
0.690254
0.947486
0.969573
0.984911
0.6996
0.77591
0.867724
0.845691
0.477784
0.514409
0.707171
0.970252
0.986704
0.986702
0.986707
0.98663
0.833088
0.3284
0.778929
0.986176
0.985835
0.975868
0.936566
0.917698
0.847689
0.691293
0.515151
0.592489
0.957696
0.99416
0.994173
0.994173
0.899844
0.729291
0.726725
0.726607
0.726655
0.852479
0.991046
0.91711
0.691058
0.927106
0.969573
0.985029
0.708972
0.529947
0.867724
0.7855
0.449936
0.52632
0.9553
0.986689
0.9867
0.986702
0.986617
0.986627
0.738247
0.306774
0.476627
0.953452
0.985624
0.984849
0.984364
0.984423
0.770746
0.515151
0.515151
0.515151
0.620838
0.949531
0.964523
0.78941
0.766042
0.857184
0.847444
0.728875
0.726607
0.826392
0.989808
0.956333
0.691548
0.882649
0.969557
0.984123
0.648456
0.517382
0.866374
0.784535
0.449936
0.464208
0.674952
0.976952
0.986689
0.957551
0.843326
0.889248
0.690159
0.301211
0.300976
0.707082
0.984708
0.984364
0.984423
0.984474
0.937144
0.770433
0.574082
0.516515
0.517859
0.520007
0.517089
0.405538
0.412365
0.74287
0.986489
0.950966
0.726926
0.857538
0.987736
0.980297
0.693111
0.88144
0.969033
0.983864
0.65795
0.517382
0.751932
0.855669
0.553175
0.440584
0.440847
0.739306
0.979968
0.852053
0.370667
0.352807
0.450443
0.30057
0.300558
0.300978
0.67488
0.98424
0.984474
0.984474
0.984474
0.983516
0.931636
0.819674
0.835098
0.722713
0.405538
0.405538
0.405538
0.831191
0.993638
0.994011
0.888386
0.897336
0.984904
0.983425
0.785183
0.930514
0.910209
0.985215
0.86216
0.51429
0.511718
0.869692
0.890759
0.454641
0.440584
0.450249
0.721518
0.785963
0.308676
0.300587
0.300562
0.300538
0.300537
0.300558
0.300973
0.533581
0.912943
0.984474
0.983956
0.983739
0.98358
0.982444
0.981087
0.978146
0.480749
0.405538
0.772168
0.993469
0.99403
0.994011
0.958425
0.93587
0.986789
0.930239
0.903527
0.958253
0.895419
0.985457
0.980781
0.531116
0.510746
0.790455
0.903745
0.747829
0.440739
0.440893
0.513251
0.819541
0.691873
0.468676
0.300538
0.300537
0.300536
0.300537
0.300553
0.300743
0.342781
0.511503
0.761586
0.973781
0.982444
0.981386
0.981172
0.685046
0.337418
0.518158
0.960684
0.994004
0.994156
0.993942
0.949347
0.960444
0.989338
0.827561
0.901576
0.961141
0.895323
0.985706
0.985724
0.71763
0.510746
0.573223
0.904494
0.935916
0.474108
0.440893
0.616533
0.928002
0.994046
0.935728
0.449662
0.300536
0.300536
0.300536
0.300537
0.300553
0.300749
0.301295
0.302412
0.403345
0.582139
0.578708
0.440163
0.336914
0.336794
0.453723
0.934689
0.994157
0.994267
0.994273
0.979972
0.98982
0.989615
0.825796
0.89565
0.961425
0.895508
0.985728
0.985736
0.830343
0.513022
0.519069
0.871696
0.943163
0.537805
0.546466
0.870091
0.934021
0.994122
0.994111
0.994122
0.913841
0.602816
0.525397
0.349469
0.300744
0.301183
0.301275
0.301468
0.325334
0.334886
0.337837
0.336914
0.336794
0.336914
0.60572
0.984596
0.99425
0.994273
0.994274
0.994273
0.994181
0.922772
0.825571
0.938196
0.961425
0.893771
0.985761
0.985742
0.882319
0.525296
0.519543
0.823751
0.946488
0.632281
0.67847
0.939017
0.965774
0.98631
0.994122
0.994087
0.993688
0.990203
0.986264
0.932459
0.827934
0.679104
0.508528
0.515122
0.755404
0.765841
0.60316
0.401862
0.469305
0.725564
0.972549
0.994253
0.994273
0.994273
0.994273
0.994273
0.949863
0.855226
0.904156
0.96118
0.961425
0.863044
0.985785
0.985764
0.902096
0.537461
0.521678
0.764572
0.950532
0.854341
0.746152
0.928599
0.994303
0.994279
0.993995
0.949112
0.829583
0.787073
0.726999
0.764724
0.795775
0.839413
0.930693
0.953037
0.990234
0.993014
0.970988
0.935906
0.956055
0.992403
0.994253
0.994272
0.994272
0.993941
0.98272
0.992277
0.959378
0.855226
0.948101
0.894945
0.926918
0.842733
0.985779
0.985793
0.84713
0.53256
0.525405
0.740794
0.953986
0.976174
0.922948
0.954515
0.994427
0.993622
0.860567
0.394156
0.156041
0.146067
0.157761
0.181327
0.257281
0.499466
0.791106
0.935376
0.993087
0.993086
0.993054
0.992815
0.993564
0.993701
0.994267
0.994268
0.994272
0.988783
0.969952
0.986293
0.983983
0.885154
0.801764
0.765911
0.8576
0.860667
0.985804
0.985715
0.658359
0.526637
0.61362
0.769797
0.976329
0.994715
0.991339
0.9947
0.994646
0.99187
0.562303
0.145903
0.145903
0.145903
0.14591
0.146047
0.146731
0.30359
0.915228
0.993086
0.993086
0.993086
0.993086
0.993047
0.945997
0.928476
0.928862
0.98862
0.994268
0.994247
0.937223
0.973492
0.983934
0.857623
0.626969
0.813285
0.97006
0.975783
0.985717
0.934572
0.519887
0.520692
0.739793
0.788052
0.994715
0.994715
0.994715
0.994714
0.9947
0.994437
0.700337
0.145903
0.145903
0.145903
0.145912
0.146095
0.249912
0.877729
0.992279
0.992679
0.986609
0.971392
0.971756
0.981108
0.982099
0.976807
0.902027
0.707175
0.620889
0.705986
0.881541
0.973365
0.940771
0.620503
0.63912
0.976745
0.963186
0.985961
0.955208
0.57435
0.471818
0.691793
0.75026
0.876084
0.994715
0.994715
0.994714
0.9947
0.994482
0.994291
0.99271
0.585757
0.145903
0.145912
0.145959
0.160171
0.714972
0.992274
0.992303
0.982951
0.971299
0.971299
0.97384
0.982473
0.982475
0.979261
0.800155
0.448247
0.414908
0.414664
0.534307
0.621414
0.482278
0.485794
0.785678
0.977069
0.963147
0.991719
0.488414
0.470841
0.47168
0.859929
0.689506
0.940381
0.994715
0.994712
0.984429
0.973369
0.986723
0.994052
0.99439
0.994807
0.852915
0.236515
0.146849
0.174258
0.806112
0.992303
0.99232
0.992269
0.99033
0.988832
0.986057
0.978535
0.938202
0.54744
0.414107
0.414598
0.414569
0.414461
0.414355
0.414567
0.416116
0.545089
0.994248
0.977157
0.988356
0.994385
0.470804
0.470804
0.578509
0.923156
0.689561
0.888753
0.99471
0.994688
0.95763
0.725277
0.710786
0.960751
0.994807
0.994845
0.994807
0.966109
0.454094
0.174222