/*--------------------------------*- C++ -*----------------------------------*\
  =========                 |
  \\      /  F ield         | OpenFOAM: The Open Source CFD Toolbox
   \\    /   O peration     | Website:  https://openfoam.org
    \\  /    A nd           | Version:  8
     \\/     M anipulation  |
\*---------------------------------------------------------------------------*/
FoamFile
{
    version     2.0;
    format      ascii;
    class       surfaceScalarField;
    location    "5.75";
    object      alphaPhi0.water;
}
// * * * * * * * * * * * * * * * * * * * * * * * * * * * * * * * * * * * * * //

dimensions      [0 3 -1 0 0 0 0];

internalField   nonuniform List<scalar> 
18095
(
1.95202e-08
-1.71983e-07
1.52462e-07
2.29557e-08
-1.97955e-07
1.94519e-07
1.9632e-08
-2.0578e-07
2.09104e-07
9.93614e-09
-2.10225e-07
2.19921e-07
-1.89032e-09
-2.13102e-07
2.24928e-07
-1.28287e-08
-2.13509e-07
2.24448e-07
-2.06978e-08
-2.11695e-07
2.19564e-07
-2.31236e-08
-2.06109e-07
2.08535e-07
-1.95462e-08
-1.97797e-07
1.9422e-07
-1.71846e-07
1.523e-07
1.55201e-08
-1.87503e-07
1.59013e-08
-1.98336e-07
1.22828e-08
-2.02162e-07
7.30105e-09
-2.05243e-07
1.25284e-09
-2.07053e-07
-5.54631e-09
-2.0671e-07
-1.18557e-08
-2.05385e-07
-1.60597e-08
-2.01905e-07
-1.55996e-08
-1.98257e-07
-1.87446e-07
6.84528e-09
-1.94348e-07
8.30456e-09
-1.99795e-07
7.06804e-09
-2.00925e-07
3.89731e-09
-2.02072e-07
-4.20171e-10
-2.02736e-07
-4.46738e-09
-2.02663e-07
-7.485e-09
-2.02368e-07
-8.41079e-09
-2.00979e-07
-6.87179e-09
-1.99796e-07
-1.94317e-07
4.55677e-09
-1.98905e-07
4.72258e-09
-1.99961e-07
3.70785e-09
-1.99911e-07
2.01393e-09
-2.00378e-07
5.03262e-11
-2.00772e-07
-1.80225e-09
-2.0081e-07
-3.65966e-09
-2.0051e-07
-4.73595e-09
-1.99903e-07
-4.58074e-09
-1.99952e-07
-1.98898e-07
1.09535e-09
1.13432e-09
1.22373e-09
8.45394e-10
7.30955e-11
-7.37386e-10
-1.2476e-09
-1.15028e-09
-1.10193e-09
-2.58234e-08
-1.96992e-07
2.22815e-07
-2.87191e-08
-1.98269e-07
2.01165e-07
-2.51589e-08
-2.00809e-07
1.97249e-07
-1.51389e-08
-2.01327e-07
1.91307e-07
-1.64738e-09
-2.0231e-07
1.88819e-07
1.22137e-08
-2.02259e-07
1.88398e-07
2.36988e-08
-2.01418e-07
1.89932e-07
2.8321e-08
-2.01338e-07
1.96716e-07
2.58389e-08
-1.98284e-07
2.00766e-07
-1.96995e-07
2.22834e-07
-1.00786e-08
-1.86913e-07
-1.50725e-08
-1.93275e-07
-1.24223e-08
-2.03459e-07
-5.69607e-09
-2.08053e-07
-4.00664e-11
-2.07966e-07
5.92168e-09
-2.0822e-07
1.25066e-08
-2.08002e-07
1.47674e-08
-2.03599e-07
9.98675e-09
-1.93503e-07
-1.87008e-07
-1.04121e-08
-1.76501e-07
-8.65065e-09
-1.95037e-07
-7.19525e-09
-2.04914e-07
-4.61931e-09
-2.10629e-07
7.56954e-10
-2.13343e-07
5.61999e-09
-2.13083e-07
7.1238e-09
-2.09506e-07
8.31313e-09
-2.04788e-07
1.02296e-08
-1.9542e-07
-1.76779e-07
-6.76068e-09
-1.6974e-07
-8.40755e-09
-1.9339e-07
-8.10488e-09
-2.05217e-07
-4.40216e-09
-2.14332e-07
-1.57281e-09
-2.16172e-07
1.97464e-09
-2.16631e-07
7.98385e-09
-2.15515e-07
8.99347e-09
-2.05798e-07
7.02951e-09
-1.93456e-07
-1.69749e-07
-1.72782e-08
-1.61486e-08
-1.22616e-08
-6.67269e-09
2.08347e-09
9.90032e-09
1.39487e-08
1.66851e-08
1.74495e-08
3.45829e-08
-1.55996e-07
1.21414e-07
3.74535e-08
-1.97567e-07
1.94696e-07
2.78516e-08
-2.09577e-07
2.19179e-07
1.18362e-08
-2.1524e-07
2.31256e-07
-6.01012e-09
-2.17234e-07
2.3508e-07
-2.26938e-08
-2.17646e-07
2.3433e-07
-3.45445e-08
-2.16925e-07
2.28776e-07
-3.93748e-08
-2.11478e-07
2.16309e-07
-3.22435e-08
-1.99993e-07
1.92861e-07
-1.58344e-07
1.261e-07
1.77658e-08
-1.73762e-07
2.15502e-08
-2.01351e-07
1.93312e-08
-2.07358e-07
1.33066e-08
-2.09216e-07
4.4789e-09
-2.08406e-07
-4.79018e-09
-2.08377e-07
-1.31548e-08
-2.08561e-07
-1.74183e-08
-2.07215e-07
-1.59309e-08
-2.0148e-07
-1.74275e-07
9.92171e-09
-1.83684e-07
1.01877e-08
-2.01617e-07
8.51789e-09
-2.05688e-07
3.97245e-09
-2.0467e-07
1.55971e-11
-2.04449e-07
-3.90289e-09
-2.04458e-07
-8.48053e-09
-2.03983e-07
-1.00917e-08
-2.05604e-07
-9.68018e-09
-2.01891e-07
-1.83955e-07
9.07723e-09
-1.92761e-07
6.9275e-09
-1.99467e-07
7.16377e-09
-2.05924e-07
1.87533e-09
-1.99382e-07
-4.06439e-11
-2.02533e-07
-1.77553e-09
-2.02724e-07
-6.48621e-09
-1.99272e-07
-6.29205e-09
-2.05798e-07
-8.91413e-09
-1.99269e-07
-1.92869e-07
3.0054e-08
3.17514e-08
2.30757e-08
1.50009e-08
1.28651e-09
-1.30393e-08
-2.23794e-08
-3.14613e-08
-2.99647e-08
1.64539e-08
-1.45831e-08
-1.89572e-09
3.12479e-08
-1.48189e-08
4.55519e-08
-1.43289e-08
5.85242e-08
-1.24328e-08
6.65622e-08
-8.03791e-09
6.65412e-08
2.1019e-11
6.11866e-08
5.32733e-09
5.4151e-08
7.03544e-09
4.41856e-08
9.96538e-09
1.11051e-08
3.29241e-08
6.38744e-08
-1.4918e-08
-6.35655e-08
6.6468e-08
-1.72041e-08
6.75465e-08
-1.54068e-08
6.05305e-08
-5.41677e-09
4.71377e-08
5.35487e-09
3.0843e-08
1.63158e-08
1.42584e-08
2.1912e-08
-9.38566e-10
2.22324e-08
-6.71671e-09
1.57435e-08
4.00694e-09
3.64929e-10
7.36737e-08
-8.62494e-09
-7.9992e-08
6.60635e-08
-9.61644e-09
4.54343e-08
5.73784e-09
2.14338e-08
1.85838e-08
5.56166e-09
2.1227e-08
-1.11703e-08
3.30477e-08
-2.71788e-08
3.79205e-08
-4.32506e-08
3.83043e-08
-4.91606e-08
2.14101e-08
-7.43869e-09
-3.76393e-08
7.40645e-08
1.64742e-09
-8.37797e-08
5.15281e-08
1.29418e-08
1.91439e-08
3.8122e-08
-8.05788e-09
4.57856e-08
-2.53713e-08
3.85404e-08
-4.1679e-08
4.93553e-08
-5.63792e-08
5.26207e-08
-5.63079e-08
3.75857e-08
-2.82506e-08
-5.89623e-09
-3.15782e-08
-4.65304e-09
6.45102e-08
3.4919e-08
-9.77822e-08
3.58658e-08
4.15862e-08
1.61789e-08
5.78088e-08
-7.63373e-09
6.95981e-08
-2.15046e-08
5.24113e-08
-3.2189e-08
6.00397e-08
-4.81614e-08
6.8593e-08
-4.28494e-08
3.01111e-08
-9.46836e-09
-3.79388e-08
-6.52503e-08
2.40326e-08
-9.20264e-09
8.00357e-08
-4.44037e-08
-1.92987e-08
5.16818e-08
-2.32659e-08
5.53042e-08
-3.50206e-08
7.71781e-08
-2.9129e-08
4.65196e-08
-2.27815e-08
4.94964e-08
-7.63645e-09
5.11712e-08
2.06145e-08
3.26872e-09
4.39489e-08
-6.21066e-08
-7.47576e-08
5.34613e-08
-1.00326e-07
7.69733e-08
9.50853e-08
-1.03921e-07
4.59678e-08
-9.57737e-08
3.93308e-08
-6.64722e-08
4.02064e-08
-3.24411e-08
6.1953e-09
8.20363e-09
2.47724e-09
4.96385e-08
3.31749e-09
9.09572e-08
-2.83615e-08
8.32412e-08
-5.36191e-08
-5.34998e-08
6.19835e-08
-9.16161e-08
5.79398e-08
1.09406e-07
-6.81583e-08
2.12668e-08
-3.862e-08
1.58189e-08
-5.50149e-09
2.23007e-09
1.82827e-08
-1.77243e-08
4.38949e-08
-2.23898e-08
7.01883e-08
-2.17949e-08
6.47117e-08
-2.28852e-08
3.64975e-08
-2.54048e-08
-2.53041e-08
8.30195e-09
-5.41078e-08
2.81562e-08
8.45044e-08
-3.81271e-08
3.70804e-09
-1.37539e-08
-7.87612e-09
7.23782e-09
-1.86313e-08
8.21192e-09
-1.832e-08
-2.31055e-09
-1.16245e-08
-1.86351e-08
-5.41148e-09
-3.95455e-08
-2.12832e-09
-5.6313e-08
-8.89697e-09
-2.41936e-08
-5.74235e-08
-1.28808e-07
-1.29416e-08
1.70014e-07
-1.07071e-07
-1.79701e-08
-9.36575e-08
-2.12313e-08
-9.16571e-08
-2.0556e-08
-8.7662e-08
-1.67247e-08
-9.08049e-08
-8.55455e-09
-9.37617e-08
-2.52672e-09
-9.43485e-08
-3.00929e-09
-9.43757e-08
-1.15392e-08
-3.24919e-08
-8.60772e-08
-1.16821e-07
-2.33402e-08
1.27229e-07
-1.11261e-07
-2.32757e-08
-1.13611e-07
-1.84097e-08
-1.16723e-07
-1.27998e-08
-1.19431e-07
-1.40873e-08
-1.09475e-07
-1.85833e-08
-9.96714e-08
-1.26679e-08
-8.15654e-08
-2.0068e-08
-6.21664e-08
-3.20358e-08
-5.37487e-08
-4.40042e-08
6.9797e-08
-3.63146e-08
-5.75956e-08
7.05125e-08
-2.47456e-08
6.13462e-08
-7.45417e-09
4.05152e-08
7.50565e-09
2.40112e-08
3.01507e-09
1.74018e-08
-1.13757e-08
6.25332e-09
-1.65906e-09
-2.83067e-09
-9.93826e-09
9.70633e-09
-4.4322e-08
-6.62695e-08
2.22277e-08
1.80414e-07
-4.65879e-08
-1.70324e-07
1.78033e-07
-2.25386e-08
1.61182e-07
-4.82836e-09
1.55075e-07
1.35549e-08
1.3255e-07
2.55074e-08
9.96519e-08
2.14904e-08
7.92533e-08
1.87394e-08
6.61231e-08
3.19183e-09
6.37483e-08
-3.4035e-08
-5.77334e-08
5.52132e-08
1.73011e-07
-3.46463e-08
-1.77622e-07
1.67127e-07
-1.6865e-08
1.5999e-07
2.09756e-09
1.51494e-07
2.18477e-08
1.24687e-07
4.40542e-08
1.01451e-07
4.47251e-08
8.28459e-08
3.73445e-08
7.03033e-08
1.57343e-08
6.83433e-08
-2.82978e-08
-4.84672e-08
6.00548e-08
1.19278e-07
-1.08639e-08
-1.17512e-07
1.09257e-07
-2.87833e-09
9.3404e-08
1.77373e-08
8.33057e-08
3.17316e-08
6.80133e-08
5.46498e-08
5.32842e-08
5.94533e-08
4.61063e-08
4.45218e-08
2.72694e-08
3.75327e-08
7.85948e-09
-8.37987e-09
-2.68085e-08
-1.27099e-08
6.5253e-08
1.84333e-08
-9.45523e-08
3.44862e-08
3.73074e-08
2.3554e-09
4.96933e-08
-2.11884e-08
5.50417e-08
-3.41662e-08
6.97479e-08
-4.74999e-08
7.85738e-08
-6.95347e-08
6.65557e-08
-8.50131e-08
5.02788e-08
-1.15975e-07
2.30792e-08
1.8259e-08
-1.44018e-07
5.11917e-09
3.51368e-08
-2.18249e-08
-2.8302e-08
6.65523e-08
-5.18377e-08
6.98806e-08
-6.75564e-08
6.9203e-08
-9.1865e-08
9.441e-08
-1.14678e-07
1.10137e-07
-1.58007e-07
1.03154e-07
-1.75333e-07
6.87575e-08
-2.08286e-07
5.81382e-08
5.31489e-08
-2.37017e-07
-3.86344e-08
4.15761e-08
3.2193e-08
-5.02344e-08
7.81476e-08
-7.38625e-08
8.1791e-08
-1.11207e-07
1.04769e-07
-1.50592e-07
1.32348e-07
-1.82085e-07
1.39585e-07
-1.99097e-07
1.22133e-07
-2.28479e-07
1.01192e-07
-2.62134e-07
9.35053e-08
7.05733e-08
-2.7318e-07
-1.04925e-07
5.73087e-08
8.91875e-08
-1.29254e-07
9.81775e-08
-1.62333e-07
1.12363e-07
-2.06952e-07
1.47522e-07
-2.3993e-07
1.63021e-07
-2.65261e-07
1.58966e-07
-2.85345e-07
1.48021e-07
-3.11327e-07
1.23566e-07
-3.24988e-07
1.08899e-07
6.03073e-08
-3.34804e-07
-3.08124e-07
8.47453e-08
2.66413e-07
-3.28107e-07
1.12684e-07
-3.4965e-07
1.31515e-07
-3.62187e-07
1.56057e-07
-3.52338e-07
1.6169e-07
-3.36358e-07
1.57483e-07
-3.39448e-07
1.50076e-07
-3.52862e-07
1.35566e-07
-3.69263e-07
9.41668e-08
3.48693e-08
-3.43674e-07
-3.84705e-07
1.01933e-07
3.27444e-07
-3.97735e-07
1.26111e-07
-4.11612e-07
1.41152e-07
-3.77563e-07
1.48476e-07
-3.69999e-07
1.53615e-07
-3.68352e-07
1.55313e-07
-3.68997e-07
1.5033e-07
-3.92749e-07
1.29741e-07
-3.75337e-07
7.54e-08
1.7919e-08
-3.59387e-07
-3.85699e-07
1.17192e-07
3.34428e-07
-3.97616e-07
1.38243e-07
-3.95856e-07
1.48888e-07
-3.64873e-07
1.51371e-07
-3.65606e-07
1.53836e-07
-3.65035e-07
1.54248e-07
-3.65116e-07
1.49887e-07
-3.90284e-07
1.19202e-07
-3.72732e-07
5.73091e-08
1.49564e-08
-3.71124e-07
-3.59284e-07
1.38195e-07
3.06659e-07
-3.76397e-07
1.554e-07
-3.84814e-07
1.63135e-07
-3.51866e-07
1.63643e-07
-3.56454e-07
1.57938e-07
-3.60799e-07
1.58083e-07
-4.04543e-07
1.61977e-07
-4.08721e-07
1.2349e-07
-4.06667e-07
5.51722e-08
2.79489e-08
-4.21101e-07
-3.16392e-07
1.53523e-07
2.91929e-07
-3.3068e-07
1.69716e-07
-3.45177e-07
1.7769e-07
-3.45084e-07
1.8578e-07
-3.37593e-07
1.88853e-07
-3.77504e-07
1.88461e-07
-4.14013e-07
1.7811e-07
-4.19423e-07
1.29022e-07
-4.4005e-07
7.59028e-08
5.43637e-08
-4.66548e-07
-3.2425e-07
1.69758e-07
3.06915e-07
-3.29541e-07
1.75045e-07
-3.25605e-07
1.73803e-07
-3.21569e-07
1.81817e-07
-3.23669e-07
2.02926e-07
-3.43993e-07
2.13843e-07
-3.70264e-07
2.04452e-07
-3.95718e-07
1.54586e-07
-4.10579e-07
8.99617e-08
6.49458e-08
-4.22234e-07
-3.08454e-07
1.24491e-07
2.62455e-07
-3.29051e-07
1.40968e-07
-3.05891e-07
1.50713e-07
-2.77286e-07
1.53287e-07
-2.4604e-07
1.71767e-07
-2.53641e-07
2.21688e-07
-2.80681e-07
2.31646e-07
-2.95263e-07
1.69225e-07
-2.85021e-07
7.98591e-08
5.21364e-08
-2.50166e-07
-2.54579e-07
8.66199e-08
2.92262e-07
-2.01382e-07
7.9379e-08
-2.32222e-07
8.71403e-08
-2.4703e-07
1.08926e-07
-2.35751e-07
1.22584e-07
-1.7952e-07
1.38942e-07
-1.30296e-07
1.45886e-07
-1.21833e-07
1.16973e-07
-1.14678e-07
5.89753e-08
2.26747e-08
-8.94323e-08
-3.27289e-07
4.6342e-08
3.67397e-07
-2.93564e-07
4.54658e-08
-2.55719e-07
4.90169e-08
-2.1674e-07
6.88903e-08
-2.19155e-07
9.58141e-08
-1.83338e-07
1.02737e-07
-1.17971e-07
7.87768e-08
-6.77425e-08
6.46377e-08
-3.20968e-08
2.70851e-08
4.2919e-09
-1.50275e-08
-4.15399e-07
2.92552e-08
4.4776e-07
-4.27165e-07
2.86328e-08
-4.19798e-07
3.57208e-08
-3.90402e-07
4.81884e-08
-2.51148e-07
5.09249e-08
-1.63977e-07
1.38356e-08
-8.46436e-08
-2.29854e-09
-3.56279e-08
1.43314e-08
3.23783e-08
-3.87346e-08
-4.14093e-08
8.03247e-08
-3.53406e-07
1.67328e-08
3.66722e-07
-3.34659e-07
1.06069e-08
-3.0141e-07
3.17415e-09
-2.55403e-07
2.81513e-09
-1.77264e-07
-6.51137e-09
-1.09508e-07
-3.32676e-08
-6.48262e-08
-5.4626e-08
1.05136e-08
-5.67601e-08
7.88742e-08
-1.10899e-07
-1.01015e-07
1.55982e-07
-2.53052e-07
-1.23583e-08
2.79877e-07
-2.25705e-07
-1.67617e-08
-1.94952e-07
-2.74803e-08
-1.57803e-07
-3.23234e-08
-1.17961e-07
-4.27127e-08
-8.68464e-08
-6.66884e-08
-5.29909e-08
-8.70447e-08
-1.42638e-09
-1.09382e-07
3.80401e-08
-1.50375e-07
-1.59321e-07
9.17225e-08
-1.7177e-07
-4.21535e-08
2.0037e-07
-1.51303e-07
-3.8426e-08
-1.45114e-07
-3.48665e-08
-1.31128e-07
-5.08366e-08
-9.98667e-08
-7.12713e-08
-5.69066e-08
-1.05009e-07
-2.6294e-08
-1.2586e-07
-1.89407e-10
-1.48787e-07
2.42839e-08
-1.9471e-07
-2.37039e-07
8.79639e-08
-1.80846e-07
-4.73962e-08
1.86107e-07
-1.79301e-07
-3.99679e-08
-1.71099e-07
-4.30842e-08
-1.50748e-07
-7.04576e-08
-1.05915e-07
-1.11094e-07
-5.86365e-08
-1.55964e-07
-1.25177e-08
-1.69812e-07
2.95521e-08
-1.88948e-07
7.63881e-08
-2.37318e-07
-2.60771e-07
1.0933e-07
-2.98728e-07
-3.70692e-08
2.8843e-07
-3.05129e-07
-3.28459e-08
-3.00671e-07
-4.396e-08
-2.70628e-07
-9.35368e-08
-2.05874e-07
-1.74402e-07
-1.36877e-07
-2.24162e-07
-6.65642e-08
-2.23887e-07
-9.33582e-09
-1.74119e-07
1.8046e-08
-1.72274e-07
-1.84576e-07
3.36244e-08
-3.61602e-07
5.59418e-09
3.36276e-07
-3.51211e-07
1.29682e-08
-3.43143e-07
-9.92617e-09
-4.43738e-07
-9.77753e-08
-4.0609e-07
-2.10634e-07
-3.67427e-07
-2.66009e-07
-2.63209e-07
-2.85469e-07
-1.69042e-07
-1.90026e-07
-1.33101e-07
-2.10345e-07
-2.12386e-07
-1.07378e-07
-4.12382e-07
5.22521e-08
3.65337e-07
-4.49344e-07
4.89424e-08
-5.02642e-07
7.43745e-09
-6.58351e-07
-1.04533e-07
-6.61938e-07
-2.10103e-07
-6.57658e-07
-2.80235e-07
-6.08851e-07
-3.27487e-07
-4.67529e-07
-3.42865e-07
-3.1241e-07
-3.61381e-07
-3.24218e-07
-2.02709e-07
-4.77746e-07
6.40249e-08
4.65632e-07
-4.90338e-07
5.99366e-08
-6.71647e-07
9.22792e-09
-6.85549e-07
-9.03516e-08
-7.11868e-07
-1.7526e-07
-7.14525e-07
-2.43072e-07
-6.72807e-07
-3.38358e-07
-6.00763e-07
-4.15935e-07
-4.82915e-07
-4.96393e-07
-5.08562e-07
-2.71471e-07
-5.02998e-07
7.68933e-08
4.92763e-07
-4.97236e-07
5.79554e-08
-5.02904e-07
2.18729e-08
-5.19e-07
-2.54088e-08
-4.47471e-07
-5.33514e-08
-4.18237e-07
-1.07306e-07
-5.33289e-07
-1.9797e-07
-5.88889e-07
-3.46099e-07
-5.38073e-07
-5.62443e-07
-6.53647e-07
-4.04571e-07
-4.02646e-07
8.59286e-08
3.95869e-07
-4.1771e-07
7.54246e-08
-3.83503e-07
5.74724e-08
-2.39283e-07
-7.92719e-10
-2.36469e-07
-5.91821e-08
-2.19601e-07
-1.2762e-07
-2.2642e-07
-1.94402e-07
-2.91411e-07
-3.22857e-07
-3.75047e-07
-5.58182e-07
-6.92924e-07
-3.49659e-07
-3.19008e-07
3.31528e-08
4.57942e-07
-2.58755e-07
1.09993e-08
-2.08066e-07
1.56577e-09
-1.64661e-07
-5.07685e-08
-1.26482e-07
-1.00808e-07
-6.8769e-08
-1.88583e-07
-6.96284e-08
-3.22629e-07
-8.74563e-08
-5.8616e-07
-9.78737e-08
-6.78765e-07
-6.95418e-07
-1.08498e-07
-3.66251e-07
2.01552e-08
2.46069e-07
-2.83094e-07
-5.43995e-08
-1.83509e-07
-8.10627e-08
-6.05126e-08
-1.46874e-07
-3.73856e-08
-1.79175e-07
-4.34392e-08
-2.70418e-07
-4.93118e-08
-4.39061e-07
-4.97668e-08
-6.04274e-07
-4.14111e-08
-6.91967e-07
-7.23224e-07
-2.78437e-08
-1.03575e-07
1.6134e-08
6.49878e-08
-1.39807e-07
-2.2198e-08
-9.59862e-08
-4.23659e-08
-3.52016e-08
-4.28552e-08
-2.12816e-08
-4.89915e-08
-1.39216e-08
-1.48743e-07
1.0217e-08
-3.65905e-07
1.35859e-08
-6.07286e-07
-3.48906e-09
-6.74717e-07
-7.16751e-07
-9.75166e-09
3.6621e-08
1.37473e-08
-3.42519e-08
2.69989e-08
-1.2579e-08
1.481e-08
-3.01797e-08
9.97134e-09
-3.80183e-08
7.30028e-09
-4.63216e-08
8.19484e-09
-6.2359e-08
1.90079e-08
-7.31507e-08
3.54124e-08
-4.88664e-07
2.6753e-08
-6.65754e-07
-6.95077e-07
5.25505e-09
7.7809e-08
3.57453e-09
-6.76401e-08
7.31129e-08
-7.88559e-09
5.92091e-08
-1.62788e-08
4.32449e-08
-2.20568e-08
3.00685e-08
-3.3147e-08
1.58266e-08
-4.81109e-08
8.04814e-09
-6.53508e-08
5.65756e-08
-2.30694e-07
4.61268e-08
-6.08471e-07
-6.70227e-07
2.15659e-08
5.96026e-08
-1.13258e-08
-4.47206e-08
6.36401e-08
-1.19269e-08
6.06991e-08
-1.33405e-08
5.50839e-08
-1.65171e-08
4.87067e-08
-2.67636e-08
3.90983e-08
-3.8481e-08
2.80535e-08
-5.42527e-08
8.21025e-08
-8.11604e-08
1.28524e-07
-4.79303e-07
-6.38268e-07
9.7095e-08
3.05423e-08
-1.36049e-08
-2.82984e-08
3.06777e-08
-1.20865e-08
3.19052e-08
-1.43163e-08
3.7493e-08
-2.20142e-08
4.36585e-08
-3.35381e-08
4.66086e-08
-4.13902e-08
4.52436e-08
-5.2764e-08
4.03843e-08
-7.59976e-08
2.42286e-07
-3.87538e-07
-6.00439e-07
2.04779e-07
2.32694e-08
-8.20486e-09
-2.86735e-08
2.1266e-08
-1.0087e-08
2.48737e-08
-1.78288e-08
3.31747e-08
-3.02245e-08
4.29933e-08
-4.33606e-08
5.07538e-08
-4.90183e-08
5.42954e-08
-5.60014e-08
7.94792e-08
-1.00607e-07
3.42261e-07
-4.06581e-07
-5.69784e-07
3.11798e-07
2.79355e-08
-7.19155e-09
-2.88423e-08
3.15795e-08
-1.34733e-08
3.9113e-08
-2.52754e-08
4.53494e-08
-3.54114e-08
5.20786e-08
-4.96484e-08
5.83383e-08
-5.50342e-08
6.45463e-08
-6.16352e-08
2.25034e-07
-1.49609e-07
4.15399e-07
-5.1552e-07
-5.47568e-07
3.93211e-07
3.3278e-08
-1.95439e-08
-2.07433e-08
4.97709e-08
-2.97364e-08
6.25314e-08
-3.76757e-08
7.10595e-08
-4.37397e-08
7.58395e-08
-5.39235e-08
8.05374e-08
-5.92007e-08
1.25677e-07
-1.06208e-07
4.72966e-07
-3.51337e-07
4.81329e-07
-5.06862e-07
-5.20827e-07
4.54597e-07
6.87483e-08
-3.38407e-08
-5.42216e-08
8.2478e-08
-4.31779e-08
9.16088e-08
-4.66007e-08
9.88465e-08
-5.0976e-08
1.17373e-07
-7.24546e-08
1.66802e-07
-1.0841e-07
4.09722e-07
-2.86938e-07
5.75097e-07
-4.4271e-07
5.44856e-07
-4.76627e-07
-4.89319e-07
5.13355e-07
9.71661e-08
-4.28303e-08
-8.78511e-08
1.06463e-07
-5.21999e-08
1.32977e-07
-8.72073e-08
2.08753e-07
-1.82853e-07
3.52443e-07
-3.10195e-07
5.18986e-07
-3.61779e-07
6.23781e-07
-4.01045e-07
6.17629e-07
-4.36552e-07
5.91768e-07
-4.5074e-07
-4.6245e-07
5.64922e-07
3.25792e-07
-2.35467e-07
-1.74587e-07
4.81304e-07
-3.09053e-07
5.84826e-07
-3.41361e-07
5.94939e-07
-3.51154e-07
6.44628e-07
-3.59823e-07
6.62436e-07
-3.79473e-07
6.69078e-07
-4.07547e-07
6.58539e-07
-4.2595e-07
6.40316e-07
-4.32509e-07
-4.42443e-07
6.20337e-07
6.07533e-07
-2.92115e-07
-5.50911e-07
6.16413e-07
-3.17932e-07
6.07586e-07
-3.32421e-07
6.06206e-07
-3.49646e-07
6.27705e-07
-3.81266e-07
6.6539e-07
-4.17097e-07
6.87946e-07
-4.29986e-07
6.90111e-07
-4.2797e-07
6.84756e-07
-4.27068e-07
-4.36745e-07
6.79114e-07
5.44772e-07
-2.87669e-07
-5.4923e-07
5.38337e-07
-3.11525e-07
5.34599e-07
-3.28683e-07
5.39082e-07
-3.54014e-07
5.93543e-07
-4.3559e-07
6.65289e-07
-4.88721e-07
7.2608e-07
-4.90649e-07
7.51752e-07
-4.53474e-07
7.50018e-07
-4.25216e-07
-4.1523e-07
7.28636e-07
4.40882e-07
-2.64705e-07
-4.63876e-07
4.30391e-07
-3.01033e-07
4.34837e-07
-3.3293e-07
4.77831e-07
-3.93052e-07
5.93467e-07
-5.47578e-07
6.97271e-07
-5.91749e-07
7.58654e-07
-5.47193e-07
7.07547e-07
-3.6798e-07
5.72435e-07
-2.2407e-07
-1.79934e-07
4.14952e-07
1.63627e-07
-2.30013e-07
-1.98286e-07
1.93754e-07
-2.87503e-07
2.63813e-07
-3.25401e-07
3.55858e-07
-3.47585e-07
4.85056e-07
-4.23094e-07
4.9454e-07
-3.47052e-07
3.82855e-07
-3.24879e-07
3.47839e-07
-2.36032e-07
2.77078e-07
-1.61315e-07
-1.22227e-07
2.1087e-07
-7.72988e-08
-1.58334e-07
2.11096e-07
3.60681e-08
-2.58906e-07
1.54711e-07
-3.81808e-07
2.97005e-07
-4.18446e-07
2.61392e-07
-3.54013e-07
1.61774e-07
-2.58781e-07
6.36333e-08
-2.38493e-07
-1.57445e-09
-1.79787e-07
-4.77033e-08
-1.28169e-07
-1.39216e-07
-6.5291e-08
-1.27476e-07
-2.58564e-07
2.22391e-07
-2.99946e-08
-3.57859e-07
1.23212e-09
-4.22186e-07
-2.97533e-08
-7.1619e-07
-9.60166e-08
-4.92191e-07
-1.47677e-07
-2.42816e-07
-2.1912e-07
-3.14928e-07
-2.66068e-07
-2.70367e-07
-3.02427e-07
-2.38794e-07
-2.14218e-07
-3.02655e-07
-2.46667e-07
-2.87476e-07
2.83182e-07
-2.47457e-07
-3.64844e-07
-4.10166e-07
-5.06477e-07
-3.49802e-07
-7.80063e-07
-3.39415e-07
-5.01933e-07
-3.99705e-07
-3.53523e-07
-3.85047e-07
-3.27896e-07
-3.50138e-07
-3.03463e-07
-3.12768e-07
-2.74044e-07
-2.5007e-07
-2.73167e-07
-3.56743e-07
-3.19567e-07
3.92696e-07
-3.90142e-07
-3.5162e-07
-5.46434e-07
-4.81167e-07
-5.29564e-07
-7.96295e-07
-4.22056e-07
-6.08803e-07
-3.96841e-07
-3.78066e-07
-3.74585e-07
-3.49195e-07
-3.41201e-07
-3.31789e-07
-2.91066e-07
-2.06892e-07
-1.08041e-07
-2.95133e-07
-4.23721e-07
-3.01573e-07
4.62417e-07
-3.52913e-07
-4.48707e-07
-3.86738e-07
-5.024e-07
-6.39978e-07
-7.26183e-07
-4.35818e-07
-8.12331e-07
-3.9633e-07
-4.16724e-07
-4.05959e-07
-2.85796e-07
-3.10271e-07
-1.13499e-07
-1.82039e-07
-6.16057e-08
-4.59028e-08
-1.38437e-07
-2.14466e-07
-8.48548e-08
-3.16457e-09
-2.8891e-07
-3.36824e-07
-3.30977e-07
-4.78495e-07
-5.85392e-07
-5.12562e-07
-4.36456e-07
-9.60546e-07
-3.88161e-07
-4.63677e-07
-1.99183e-07
-1.4792e-07
-1.29027e-07
-6.0229e-08
-1.51258e-07
-3.94312e-08
-2.81073e-08
-1.6909e-07
8.40217e-08
3.64755e-09
-1.72439e-07
-1.734e-07
-7.48399e-08
-3.14641e-07
-3.03562e-07
-5.32827e-07
-3.35929e-07
-4.78133e-07
-1.01442e-06
-2.8086e-07
-6.289e-07
-1.17367e-07
-1.2309e-07
-1.16048e-07
-6.16017e-08
-1.28382e-07
-2.71468e-08
-1.49125e-08
-1.41633e-07
1.33608e-08
5.52742e-08
-6.51334e-08
-9.32908e-08
3.45859e-08
-2.14576e-07
-1.671e-07
-3.01426e-07
-2.60122e-07
-3.33721e-07
-1.00567e-06
-1.79135e-07
-7.61616e-07
-2.1521e-07
-5.90377e-08
-1.22581e-07
-7.92949e-08
-9.57335e-08
-5.40476e-08
-2.37284e-08
-8.70874e-08
6.33189e-08
2.02087e-08
-2.76671e-08
1.04752e-07
-3.4357e-09
-5.40074e-08
1.05142e-08
-1.4747e-07
-1.8887e-07
-1.4115e-07
-1.01637e-06
-7.53362e-08
-8.05142e-07
-1.61239e-07
9.34796e-09
-1.82834e-07
-9.74613e-09
-1.55767e-07
-3.75531e-08
3.75393e-08
-3.64889e-07
-1.08848e-08
-4.2852e-09
6.48519e-08
-1.49742e-08
1.99613e-10
-1.05924e-08
1.35213e-09
-8.17568e-09
-2.07629e-07
-4.86784e-08
-9.80538e-07
2.17839e-08
-8.5643e-07
4.80871e-08
-1.8384e-08
-2.34537e-09
5.39101e-08
-1.34252e-07
1.00672e-07
8.7776e-08
-1.65895e-07
-1.09196e-08
-9.19389e-10
8.24518e-09
-9.00964e-09
-1.06635e-09
0
-2.16337e-08
-4.25439e-08
-1.60553e-07
-6.20595e-08
-9.65339e-07
-2.00438e-08
-8.83115e-07
1.76275e-08
-5.76793e-08
3.97416e-08
3.0037e-08
9.86306e-08
5.08001e-08
1.55313e-08
1.87635e-07
-3.19785e-09
-8.12429e-10
3.84653e-09
-1.61589e-09
-2.15941e-09
7.83694e-10
-2.59984e-08
-7.62343e-09
-1.33994e-07
-2.91739e-08
-9.46464e-07
-1.82755e-08
-8.84139e-07
2.04313e-08
-9.46435e-08
2.24169e-08
2.62925e-08
1.26408e-07
3.12038e-08
-2.29335e-08
2.11026e-07
5.82556e-09
-1.08363e-09
-4.78578e-09
5.78422e-09
-1.29691e-09
1.77245e-09
-2.06519e-08
-1.33298e-08
-1.11975e-07
-2.70425e-08
-9.33847e-07
-1.43291e-08
-8.80923e-07
-3.17431e-09
-9.52235e-08
-7.54175e-08
7.79357e-08
-1.78348e-09
-5.50635e-09
-1.75279e-08
2.912e-08
1.67556e-09
-4.87574e-10
-1.5003e-09
3.07522e-09
-5.54367e-10
-7.15177e-11
-1.13619e-08
-5.2166e-09
-1.0309e-07
-2.02717e-08
-9.21348e-07
-1.26339e-08
-8.73911e-07
5.79934e-11
-9.46253e-08
-2.15642e-08
7.71867e-08
-2.48228e-08
1.78029e-08
-1.88443e-09
-1.15699e-08
8.46281e-10
-4.16579e-10
-1.51972e-10
2.26434e-09
-1.18674e-09
1.16022e-09
-5.61389e-09
1.64063e-09
-9.73779e-08
-5.27637e-09
-9.11245e-07
-4.94501e-09
-8.72717e-07
0
-1.00305e-07
2.20703e-08
5.63933e-08
-4.83483e-10
1.3833e-08
-2.21956e-10
2.46962e-13
0
-2.62468e-11
0
0
-2.35675e-11
2.01373e-09
-1.1792e-11
5.60714e-09
-9.76281e-08
-6.22588e-09
-8.9811e-07
-5.65954e-09
-8.74318e-07
0
-1.04492e-07
1.24165e-08
1.98446e-08
6.33121e-10
3.13649e-09
2.60728e-11
-1.84723e-11
-1.11591e-11
-2.16888e-11
1.24694e-11
-7.25263e-12
-2.14352e-11
2.50196e-12
-1.57704e-11
2.8996e-09
-1.08264e-07
-1.12486e-08
-8.90329e-07
-1.32964e-08
-8.73257e-07
-5.62025e-09
-1.10681e-07
6.50966e-09
4.68094e-09
0
1.42224e-10
4.54898e-11
0
1.67015e-12
-3.33871e-11
-1.75283e-12
8.29775e-13
-3.21838e-11
6.57201e-12
-1.68801e-11
1.08819e-08
-1.23874e-07
1.1095e-10
-8.82265e-07
-8.31766e-09
-8.6925e-07
-8.7717e-10
-1.24585e-07
0
-6.3573e-10
0
1.10469e-11
6.12969e-12
1.58509e-12
7.18385e-11
-1.30411e-12
-9.87949e-11
2.08925e-11
-8.76814e-12
2.11811e-11
-1.38483e-11
1.14454e-08
-1.39299e-07
9.61916e-10
-8.74175e-07
-9.94745e-09
-8.63596e-07
-2.66398e-09
-1.38712e-07
-1.07958e-11
-6.28151e-10
5.89953e-14
-5.13292e-13
1.67971e-12
2.56621e-12
4.81621e-11
2.92899e-11
-7.36334e-11
5.52368e-12
1.59009e-12
7.67516e-12
-1.25438e-11
7.67853e-09
-1.53704e-07
-3.00599e-09
-8.66802e-07
-1.18059e-08
-8.58049e-07
-2.73176e-09
-1.53318e-07
-5.97871e-12
-2.39029e-12
-4.15355e-13
-6.06933e-12
-5.42531e-12
6.95708e-12
1.55995e-11
9.23133e-12
-4.63208e-11
2.32587e-12
5.2933e-12
6.45658e-12
-1.22547e-11
9.78311e-09
-1.68356e-07
-3.48623e-09
-8.55505e-07
-1.25646e-08
-8.51357e-07
-3.44722e-09
-1.67268e-07
-4.70273e-10
2.92057e-09
-1.62543e-10
-3.13864e-10
-1.96944e-10
-1.30303e-12
2.89188e-12
4.97845e-12
-5.89668e-12
8.6813e-13
1.08072e-11
6.52594e-12
-1.22994e-11
8.26917e-09
-1.79247e-07
-4.63047e-09
-8.43724e-07
-1.36992e-08
-8.43369e-07
-6.4919e-09
-1.77135e-07
1.64055e-10
-1.65441e-11
0
5.46211e-10
5.45916e-10
-1.68729e-10
4.63343e-13
1.04485e-11
-1.57622e-12
3.42549e-13
1.65411e-11
6.41883e-12
-1.25226e-11
8.01133e-09
-1.88859e-07
-3.90144e-09
-8.3272e-07
-1.49691e-08
-8.31619e-07
-5.95066e-12
-1.90469e-07
0
-2.00118e-11
2.21481e-10
6.31584e-10
1.06413e-09
-2.1869e-10
2.58537e-13
1.61133e-11
-1.00763e-12
5.67336e-12
5.95967e-11
1.02511e-11
-1.25161e-11
1.14143e-08
-1.98687e-07
-2.02089e-09
-8.18883e-07
-1.43921e-08
-8.18576e-07
-1.06801e-10
-2.01703e-07
-1.11969e-10
-1.18667e-11
-8.46096e-10
7.85872e-10
7.68494e-10
-4.69218e-10
-8.14779e-13
2.45348e-11
0
1.26647e-11
5.31873e-11
1.58515e-11
-1.26066e-11
2.12768e-08
-2.11176e-07
8.76716e-09
-8.03247e-07
-7.92797e-09
-8.03213e-07
-3.72562e-12
-2.1007e-07
0
-1.25838e-11
2.06108e-10
0
0
2.74864e-10
-3.10736e-12
2.6541e-11
1.20532e-13
1.99267e-11
3.75267e-11
2.14226e-11
-1.1848e-11
2.40341e-08
-2.2402e-07
9.2169e-09
-7.85525e-07
-7.27445e-09
-7.88559e-07
-4.35291e-12
-2.20208e-07
-1.26442e-12
-1.27665e-11
2.54327e-11
2.11087e-14
0
7.16466e-11
-3.48525e-12
2.99381e-11
3.68159e-12
7.31378e-12
0
8.48012e-12
-1.14231e-11
1.74123e-08
-2.3602e-07
1.56651e-09
-7.69276e-07
-1.62874e-08
-7.70481e-07
-9.84871e-12
-2.32867e-07
-7.60691e-12
-1.22013e-11
2.3014e-12
-6.45401e-12
4.06996e-12
2.23178e-12
-2.72336e-12
2.17176e-11
2.09849e-11
2.71703e-12
-1.55322e-12
3.4192e-12
-1.10498e-11
1.35629e-08
-2.48247e-07
-5.28944e-09
-7.5139e-07
-2.22846e-08
-7.52336e-07
-1.04918e-11
-2.46814e-07
-8.54851e-12
-1.14109e-11
-9.18618e-12
-5.40235e-12
4.67815e-12
-6.30739e-12
-6.14702e-14
1.44254e-11
1.20034e-11
3.07315e-12
-3.19053e-12
3.51065e-12
-1.07167e-11
1.47097e-08
-2.62379e-07
-5.16609e-09
-7.32483e-07
-2.33481e-08
-7.33559e-07
-1.3727e-11
-2.62282e-07
-1.1579e-11
-1.08647e-11
-1.02163e-11
-6.96943e-13
1.43808e-12
-5.77174e-13
2.09591e-13
5.46064e-12
2.21686e-12
2.49122e-12
-5.13147e-12
2.97514e-12
-1.05918e-11
1.83691e-08
-2.81583e-07
-2.52102e-09
-7.12433e-07
-2.44192e-08
-7.11624e-07
-8.43156e-12
-2.81577e-07
-6.23686e-12
-1.0409e-11
-1.66753e-12
-1.01575e-12
1.89651e-12
-2.7016e-13
5.70414e-12
1.4992e-12
-3.47907e-12
3.57213e-12
-5.14617e-12
3.63137e-12
-1.0113e-11
2.17977e-08
-3.05363e-07
-2.92115e-10
-6.9102e-07
-2.51074e-08
-6.87132e-07
-5.75256e-12
-3.05324e-07
-2.26974e-12
-1.12062e-11
-2.86074e-13
-2.34741e-13
6.76394e-12
-3.23685e-12
2.47623e-12
-5.87973e-13
-2.22791e-12
3.63304e-12
-2.97695e-12
3.49923e-12
-9.4729e-12
2.45729e-08
-3.31352e-07
-3.77519e-09
-6.63178e-07
-2.3564e-08
-6.67617e-07
-1.35536e-11
-3.30061e-07
-9.16152e-12
-1.29479e-11
-1.45323e-11
-3.97166e-12
5.17301e-11
-4.56906e-11
0
3.54127e-13
-5.03519e-12
2.39712e-12
-1.21901e-12
1.5575e-11
-2.25053e-11
1.60376e-08
-3.48572e-07
-9.4906e-09
-6.37805e-07
-3.15019e-08
-6.45679e-07
-5.24641e-11
-3.62509e-07
-4.75686e-11
-1.52525e-11
-9.18332e-11
2.65305e-11
6.02277e-11
-1.00317e-10
2.2601e-12
1.13697e-12
-6.46268e-12
1.85851e-12
-9.73101e-13
2.01817e-10
-2.22646e-10
3.08037e-08
-3.81357e-07
2.11673e-08
-6.28144e-07
-1.42611e-08
-6.10294e-07
-7.18296e-11
-3.78981e-07
-3.71243e-11
-4.75626e-11
-8.50443e-11
4.68409e-11
6.16901e-11
-8.64925e-11
3.00753e-12
1.05318e-12
-1.85427e-12
3.24412e-12
-1.35901e-12
2.70771e-09
-2.92727e-09
8.48193e-08
-4.60695e-07
4.23189e-08
-5.85642e-07
2.52511e-08
-5.93247e-07
-4.5166e-10
-3.57299e-07
-2.37552e-12
-4.95952e-10
1.68698e-11
8.06183e-12
8.79552e-12
1.98263e-11
0
4.46343e-13
6.47797e-13
2.84298e-13
-1.78588e-12
9.46019e-09
-1.11425e-08
-1.0337e-09
-4.46488e-07
-3.34904e-08
-5.5317e-07
-5.75561e-08
-5.69181e-07
-6.69093e-09
-4.11553e-07
-8.08115e-12
-7.17892e-09
4.83522e-17
-2.14633e-14
6.33464e-14
7.88847e-12
2.20034e-12
2.91591e-13
-1.66157e-13
2.57736e-12
-2.31279e-12
1.78403e-08
-2.95831e-08
1.12357e-08
-4.39521e-07
-2.16016e-08
-5.20467e-07
-7.07814e-08
-5.19954e-07
-2.81723e-08
-4.53983e-07
-4.37941e-14
-3.53034e-08
1.62557e-15
-6.89938e-14
7.25812e-15
5.56235e-14
2.83737e-12
-1.25629e-12
-1.49063e-12
3.52905e-12
-3.14704e-12
1.94423e-08
-5.41106e-08
1.70914e-08
-4.42706e-07
-9.17005e-09
-4.94208e-07
-4.19322e-08
-4.87219e-07
-4.22562e-08
-4.4924e-07
-9.58081e-13
-7.24862e-08
-2.29172e-14
-1.00625e-12
-2.16844e-16
-1.75629e-14
1.20077e-11
-5.82253e-13
-1.24142e-11
3.02494e-11
-2.15324e-11
4.42877e-08
-9.77835e-08
2.75289e-08
-4.2453e-07
-1.7257e-08
-4.49442e-07
-5.40492e-08
-4.50431e-07
-5.64443e-08
-4.46017e-07
-2.69715e-11
-1.25075e-07
-3.27997e-14
-2.79471e-11
-7.47783e-15
-2.76291e-14
7.62244e-12
-3.76027e-13
-8.97101e-12
6.82448e-10
-6.97527e-10
7.92353e-08
-1.77903e-07
6.01788e-08
-4.05998e-07
2.31873e-08
-4.12455e-07
-1.65545e-08
-4.10692e-07
-6.57336e-08
-3.96159e-07
-8.29469e-10
-1.84489e-07
-8.12794e-14
-8.57338e-10
-5.67601e-14
-3.28037e-14
1.10595e-12
-2.01636e-12
-5.93737e-13
1.36555e-08
-1.43531e-08
8.32498e-08
-2.45203e-07
2.6507e-08
-3.49256e-07
-2.32117e-08
-3.62737e-07
-6.70242e-08
-3.66879e-07
-9.92418e-08
-3.63944e-07
-1.55555e-08
-2.67457e-07
-1.17012e-11
-1.64012e-08
-1.17056e-11
-5.24017e-14
5.83749e-10
-5.83394e-10
-2.41981e-12
5.82983e-08
-7.22541e-08
1.0845e-07
-2.9423e-07
7.43515e-08
-3.15157e-07
2.88488e-08
-3.17234e-07
-2.18163e-08
-3.16214e-07
-7.66408e-08
-3.0912e-07
-5.19584e-08
-2.92089e-07
-8.82144e-10
-6.81564e-08
-8.93843e-10
-6.61571e-15
2.68464e-08
-2.74297e-08
-3.48636e-14
1.36705e-07
-1.83838e-07
9.03365e-08
-2.47898e-07
3.13101e-08
-2.56131e-07
-2.16925e-08
-2.64231e-07
-6.95591e-08