/*--------------------------------*- C++ -*----------------------------------*\
  =========                 |
  \\      /  F ield         | OpenFOAM: The Open Source CFD Toolbox
   \\    /   O peration     | Website:  https://openfoam.org
    \\  /    A nd           | Version:  8
     \\/     M anipulation  |
\*---------------------------------------------------------------------------*/
FoamFile
{
    version     2.0;
    format      ascii;
    class       surfaceScalarField;
    location    "5.75";
    object      phi;
}
// * * * * * * * * * * * * * * * * * * * * * * * * * * * * * * * * * * * * * //

dimensions      [0 3 -1 0 0 0 0];

internalField   nonuniform List<scalar> 
18095
(
1.95091e-08
-1.71977e-07
1.52468e-07
2.29529e-08
-1.97966e-07
1.94522e-07
1.96317e-08
-2.05775e-07
2.09096e-07
9.93409e-09
-2.10225e-07
2.19922e-07
-1.88958e-09
-2.131e-07
2.24923e-07
-1.28263e-08
-2.13509e-07
2.24446e-07
-2.06967e-08
-2.11694e-07
2.19565e-07
-2.31213e-08
-2.06106e-07
2.0853e-07
-1.95356e-08
-1.97808e-07
1.94223e-07
-1.71841e-07
1.52305e-07
1.55217e-08
-1.87498e-07
1.58961e-08
-1.9834e-07
1.2283e-08
-2.02162e-07
7.3023e-09
-2.05244e-07
1.25902e-09
-2.07056e-07
-5.54269e-09
-2.06708e-07
-1.18545e-08
-2.05383e-07
-1.60548e-08
-2.01905e-07
-1.56012e-08
-1.98262e-07
-1.87442e-07
6.84712e-09
-1.94346e-07
8.30359e-09
-1.99796e-07
7.06718e-09
-2.00925e-07
3.89357e-09
-2.0207e-07
-4.26277e-10
-2.02736e-07
-4.47026e-09
-2.02664e-07
-7.48377e-09
-2.02369e-07
-8.40927e-09
-2.0098e-07
-6.87346e-09
-1.99798e-07
-1.94315e-07
4.55825e-09
-1.98904e-07
4.72279e-09
-1.99961e-07
3.70908e-09
-1.99912e-07
2.01671e-09
-2.00378e-07
5.3449e-11
-2.00773e-07
-1.80013e-09
-2.0081e-07
-3.65922e-09
-2.0051e-07
-4.73558e-09
-1.99903e-07
-4.58208e-09
-1.99951e-07
-1.98897e-07
1.09616e-09
1.13515e-09
1.22341e-09
8.4544e-10
7.22144e-11
-7.3799e-10
-1.24804e-09
-1.15145e-09
-1.1028e-09
-2.57504e-08
-1.97017e-07
2.22768e-07
-2.86561e-08
-1.98248e-07
2.01154e-07
-2.51173e-08
-2.00807e-07
1.97269e-07
-1.51144e-08
-2.01307e-07
1.91304e-07
-1.66022e-09
-2.02302e-07
1.88847e-07
1.21704e-08
-2.02258e-07
1.88427e-07
2.36541e-08
-2.01417e-07
1.89933e-07
2.82582e-08
-2.01351e-07
1.96747e-07
2.57668e-08
-1.98269e-07
2.00761e-07
-1.97024e-07
2.22791e-07
-1.00916e-08
-1.86926e-07
-1.50675e-08
-1.93272e-07
-1.24185e-08
-2.03456e-07
-5.67666e-09
-2.08049e-07
-1.27244e-11
-2.07966e-07
5.94837e-09
-2.08219e-07
1.25244e-08
-2.07993e-07
1.47648e-08
-2.03591e-07
9.99929e-09
-1.93504e-07
-1.87025e-07
-1.04234e-08
-1.76502e-07
-8.66188e-09
-1.95033e-07
-7.20479e-09
-2.04914e-07
-4.62916e-09
-2.10624e-07
7.49362e-10
-2.13344e-07
5.61311e-09
-2.13083e-07
7.13137e-09
-2.09511e-07
8.33063e-09
-2.04791e-07
1.02446e-08
-1.95418e-07
-1.7678e-07
-6.77576e-09
-1.69727e-07
-8.41801e-09
-1.93391e-07
-8.10211e-09
-2.05229e-07
-4.39182e-09
-2.14335e-07
-1.56472e-09
-2.16171e-07
1.9845e-09
-2.16632e-07
7.99632e-09
-2.15523e-07
9.01439e-09
-2.05809e-07
7.04832e-09
-1.93452e-07
-1.69732e-07
-1.72589e-08
-1.61283e-08
-1.22616e-08
-6.67409e-09
2.07798e-09
9.89218e-09
1.39343e-08
1.66558e-08
1.74269e-08
3.4544e-08
-1.55984e-07
1.2144e-07
3.74443e-08
-1.97575e-07
1.94675e-07
2.78552e-08
-2.09571e-07
2.1916e-07
1.18631e-08
-2.15249e-07
2.31241e-07
-5.96544e-09
-2.1724e-07
2.35069e-07
-2.26272e-08
-2.17648e-07
2.3431e-07
-3.44592e-08
-2.16921e-07
2.28753e-07
-3.93004e-08
-2.1148e-07
2.16321e-07
-3.21756e-08
-2.00004e-07
1.92879e-07
-1.58328e-07
1.26152e-07
1.7763e-08
-1.73747e-07
2.15476e-08
-2.0136e-07
1.93371e-08
-2.0736e-07
1.33232e-08
-2.09235e-07
4.50283e-09
-2.0842e-07
-4.76797e-09
-2.08377e-07
-1.31334e-08
-2.08555e-07
-1.74085e-08
-2.07205e-07
-1.59307e-08
-2.01482e-07
-1.74258e-07
9.96948e-09
-1.83716e-07
1.02154e-08
-2.01606e-07
8.52617e-09
-2.05671e-07
3.95579e-09
-2.04665e-07
-2.4413e-11
-2.0444e-07
-3.95191e-09
-2.0445e-07
-8.51383e-09
-2.03993e-07
-1.01284e-08
-2.0559e-07
-9.73152e-09
-2.01879e-07
-1.8399e-07
9.09126e-09
-1.92807e-07
6.94872e-09
-1.99463e-07
7.16583e-09
-2.05888e-07
1.89176e-09
-1.99391e-07
-2.2299e-11
-2.02526e-07
-1.75503e-09
-2.02717e-07
-6.48049e-09
-1.99268e-07
-6.3103e-09
-2.05761e-07
-8.92554e-09
-1.99264e-07
-1.92915e-07
2.99604e-08
3.16509e-08
2.30312e-08
1.49444e-08
1.26602e-09
-1.30237e-08
-2.23588e-08
-3.13724e-08
-2.98755e-08
1.66129e-08
-1.48308e-08
-1.78213e-09
3.16841e-08
-1.50712e-08
4.61439e-08
-1.44598e-08
5.86608e-08
-1.25169e-08
6.68128e-08
-8.15202e-09
6.68348e-08
-2.19193e-11
6.15197e-08
5.31501e-09
5.44878e-08
7.03197e-09
4.44913e-08
9.99644e-09
1.11727e-08
3.33185e-08
6.41543e-08
-1.51596e-08
-6.38254e-08
6.66947e-08
-1.76117e-08
6.78296e-08
-1.55947e-08
6.08611e-08
-5.54835e-09
4.74203e-08
5.28876e-09
3.10588e-08
1.63395e-08
1.43788e-08
2.1995e-08
-9.1682e-10
2.23275e-08
-6.73732e-09
1.58169e-08
4.04248e-09
3.92922e-10
7.48378e-08
-8.78597e-09
-8.12114e-08
6.69814e-08
-9.75535e-09
4.57729e-08
5.61386e-09
2.16832e-08
1.85413e-08
5.67553e-09
2.12964e-08
-1.11921e-08
3.32071e-08
-2.73191e-08
3.81221e-08
-4.35162e-08
3.85247e-08
-4.94545e-08
2.17552e-08
-7.60445e-09
-3.78075e-08
7.4481e-08
1.68414e-09
-8.49511e-08
5.18868e-08
1.2839e-08
1.93108e-08
3.81899e-08
-8.05221e-09
4.59044e-08
-2.54394e-08
3.86837e-08
-4.18373e-08
4.96051e-08
-5.66515e-08
5.29364e-08
-5.68195e-08
3.86927e-08
-2.91873e-08
-5.87695e-09
-3.20426e-08
-4.74905e-09
6.50555e-08
3.48563e-08
-9.82276e-08
3.63261e-08
4.15686e-08
1.63463e-08
5.81697e-08
-7.58681e-09
6.98376e-08
-2.15607e-08
5.26577e-08
-3.23309e-08
6.03753e-08
-4.90143e-08
6.96198e-08
-4.39219e-08
3.36003e-08
-9.77957e-09
-4.00192e-08
-6.58451e-08
2.4023e-08
-8.84455e-09
8.83618e-08
-4.46609e-08
-1.92525e-08
5.19767e-08
-2.33512e-08
6.22684e-08
-3.51241e-08
8.16105e-08
-2.98489e-08
4.73825e-08
-2.31431e-08
5.36696e-08
-8.28031e-09
5.47571e-08
2.11459e-08
4.17412e-09
4.40245e-08
-6.28978e-08
-7.53838e-08
5.35632e-08
-1.20966e-07
9.5957e-08
1.1337e-07
-1.23321e-07
5.43325e-08
-1.14834e-07
5.37807e-08
-8.19043e-08
4.86812e-08
-4.17201e-08
7.19828e-09
9.09634e-09
2.85317e-09
5.98124e-08
4.04099e-09
9.27727e-08
-2.87862e-08
8.38611e-08
-5.39862e-08
-5.39476e-08
6.2425e-08
-1.17314e-07
7.35178e-08
1.39753e-07
-8.90676e-08
2.60862e-08
-5.32429e-08
1.79559e-08
-6.78715e-09
2.2254e-09
1.82665e-08
-1.78554e-08
4.41801e-08
-2.30604e-08
7.05821e-08
-2.2361e-08
6.51195e-08
-2.33236e-08
3.67686e-08
-2.56352e-08
-2.55774e-08
8.39833e-09
-6.23289e-08
2.9904e-08
1.05943e-07
-3.96862e-08
3.44327e-09
-1.36795e-08
-8.05082e-09
7.54912e-09
-1.90033e-08
8.62108e-09
-1.89274e-08
-2.32769e-09
-1.21116e-08
-1.9053e-08
-5.63572e-09
-4.01915e-08
-2.1851e-09
-5.67742e-08
-9.05255e-09
-2.45626e-08
-5.7789e-08
-1.29038e-07
-1.32934e-08
1.72235e-07
-1.07342e-07
-1.82528e-08
-9.39484e-08
-2.14444e-08
-9.17678e-08
-2.11839e-08
-9.31013e-08
-1.75939e-08
-9.63623e-08
-8.8507e-09
-9.95686e-08
-2.42943e-09
-9.85802e-08
-3.17352e-09
-9.53395e-08
-1.22933e-08
-3.37121e-08
-8.619e-08
-1.16996e-07
-2.43832e-08
1.28086e-07
-1.11001e-07
-2.42476e-08
-1.13654e-07
-1.8791e-08
-1.2202e-07
-1.28184e-08
-1.25681e-07
-1.3933e-08
-1.15457e-07
-1.90747e-08
-1.04857e-07
-1.30294e-08
-8.74203e-08
-2.06101e-08
-6.69996e-08
-3.2714e-08
-5.44205e-08
-4.62912e-08
7.39021e-08
-3.69202e-08
-6.13651e-08
7.46763e-08
-2.50216e-08
6.35953e-08
-7.71008e-09
4.2636e-08
8.14097e-09
2.52287e-08
3.47427e-09
1.85463e-08
-1.23923e-08
7.29818e-09
-1.78121e-09
-2.52424e-09
-1.07877e-08
1.01343e-08
-4.53725e-08
-6.68772e-08
2.2591e-08
1.83557e-07
-4.74965e-08
-1.72981e-07
1.81407e-07
-2.28716e-08
1.78468e-07
-4.77136e-09
1.71642e-07
1.49677e-08
1.46576e-07
2.85399e-08
1.10126e-07
2.40576e-08
8.75709e-08
2.07743e-08
7.30645e-08
3.71875e-09
6.42005e-08
-3.65085e-08
-5.83581e-08
5.56815e-08
1.74437e-07
-3.69624e-08
-1.84971e-07
1.6851e-07
-1.69447e-08
1.61589e-07
2.15007e-09
1.54557e-07
2.19991e-08
1.36512e-07
4.65848e-08
1.11354e-07
4.92165e-08
9.09488e-08
4.11791e-08
7.7246e-08
1.74216e-08
6.97824e-08
-2.90449e-08
-4.90032e-08
6.04276e-08
1.23945e-07
-1.36409e-08
-1.47266e-07
1.09801e-07
-2.80116e-09
9.403e-08
1.79209e-08
8.38937e-08
3.21354e-08
7.32899e-08
5.71886e-08
5.76261e-08
6.48803e-08
4.98694e-08
4.89358e-08
2.781e-08
3.94809e-08
7.70504e-09
-8.93993e-09
-2.80943e-08
-1.32038e-08
8.37143e-08
2.47398e-08
-1.22095e-07
3.35254e-08
4.73875e-08
8.4386e-10
5.06025e-08
-2.28422e-08
5.58215e-08
-3.64135e-08
7.07598e-08
-5.38521e-08
8.2319e-08
-7.59115e-08
7.09952e-08
-8.73371e-08
5.09065e-08
-1.19282e-07
2.30045e-08
1.96524e-08
-1.67028e-07
4.86573e-09
4.6653e-08
-2.67791e-08
-3.38181e-08
8.60713e-08
-5.48395e-08
7.16238e-08
-6.91392e-08
7.01212e-08
-9.38098e-08
9.54304e-08
-1.23021e-07
1.11531e-07
-1.60517e-07
1.08491e-07
-1.78778e-07
6.91668e-08
-2.15947e-07
6.01741e-08
5.91197e-08
-2.55414e-07
-5.18118e-08
5.53765e-08
4.30884e-08
-6.33152e-08
9.75746e-08
-7.9178e-08
8.74866e-08
-1.15231e-07
1.06174e-07
-1.5425e-07
1.34449e-07
-1.86735e-07
1.44016e-07
-2.02115e-07
1.23871e-07
-2.38991e-07
1.06043e-07
-2.82076e-07
1.03259e-07
7.56526e-08
-2.98609e-07
-1.3375e-07
7.23566e-08
1.1677e-07
-1.39429e-07
1.03253e-07
-1.65824e-07
1.13882e-07
-2.09504e-07
1.49854e-07
-2.42562e-07
1.67506e-07
-2.67552e-07
1.69006e-07
-2.99159e-07
1.55478e-07
-3.38472e-07
1.45356e-07
-3.52274e-07
1.17062e-07
6.06926e-08
-3.37314e-07
-3.21782e-07
8.76467e-08
3.06492e-07
-3.32605e-07
1.14076e-07
-3.52094e-07
1.3337e-07
-3.62783e-07
1.60544e-07
-3.67168e-07
1.71891e-07
-3.74574e-07
1.76411e-07
-3.91946e-07
1.72851e-07
-3.95624e-07
1.49033e-07
-3.73757e-07
9.51943e-08
3.26225e-08
-3.45687e-07
-3.89048e-07
1.07382e-07
3.69312e-07
-4.01981e-07
1.27009e-07
-4.1176e-07
1.43149e-07
-4.16837e-07
1.65621e-07
-4.19135e-07
1.74189e-07
-4.19056e-07
1.76332e-07
-4.15044e-07
1.68839e-07
-4.00525e-07
1.34515e-07
-3.77863e-07
7.25319e-08
1.61171e-08
-3.61357e-07
-3.91708e-07
1.23851e-07
3.75239e-07
-4.03826e-07
1.39128e-07
-4.12089e-07
1.51413e-07
-4.14428e-07
1.6796e-07
-4.14724e-07
1.74484e-07
-4.13114e-07
1.74723e-07
-4.07386e-07
1.6311e-07
-3.92537e-07
1.19666e-07
-3.74364e-07
5.43593e-08
1.4107e-08
-3.72354e-07
-3.64168e-07
1.44187e-07
3.43832e-07
-3.81414e-07
1.56374e-07
-3.94441e-07
1.64439e-07
-3.99949e-07
1.73468e-07
-4.04322e-07
1.78858e-07
-4.06083e-07
1.76484e-07
-4.10453e-07
1.6748e-07
-4.11567e-07
1.2078e-07
-4.10052e-07
5.28444e-08
2.76063e-08
-4.23552e-07
-3.19649e-07
1.56854e-07
3.06983e-07
-3.34293e-07
1.71018e-07
-3.48811e-07
1.78957e-07
-3.62601e-07
1.87258e-07
-3.82746e-07
1.99003e-07
-4.06971e-07
2.00708e-07
-4.1722e-07
1.7773e-07
-4.22989e-07
1.26548e-07
-4.44576e-07
7.44322e-08
5.42279e-08
-4.71198e-07
-3.27107e-07
1.74075e-07
3.09886e-07
-3.31998e-07
1.75908e-07
-3.28138e-07
1.75097e-07
-3.25548e-07
1.84668e-07
-3.32437e-07
2.05892e-07
-3.49239e-07
2.1751e-07
-3.75224e-07
2.03715e-07
-4.00316e-07
1.51641e-07
-4.15422e-07
8.9538e-08
6.64975e-08
-4.27691e-07
-3.48848e-07
1.71058e-07
3.51865e-07
-3.31071e-07
1.58131e-07
-3.07584e-07
1.5161e-07
-2.78662e-07
1.55747e-07
-2.47977e-07
1.75207e-07
-2.56467e-07
2.26e-07
-2.84918e-07
2.32166e-07
-3.00448e-07
1.6717e-07
-2.93944e-07
8.30336e-08
5.81128e-08
-2.85559e-07
-3.71082e-07
1.20359e-07
4.21781e-07
-3.27525e-07
1.14575e-07
-2.88513e-07
1.12598e-07
-2.63474e-07
1.30708e-07
-2.42873e-07
1.54605e-07
-2.03458e-07
1.86585e-07
-1.67171e-07
1.95879e-07
-1.49832e-07
1.49832e-07
-1.50955e-07
8.41566e-08
2.86154e-08
-1.21458e-07
-4.70607e-07
6.27548e-08
5.28212e-07
-4.21179e-07
6.51467e-08
-3.77489e-07
6.89085e-08
-3.36704e-07
8.9922e-08
-3.03359e-07
1.2126e-07
-2.4406e-07
1.27285e-07
-1.55056e-07
1.06875e-07
-9.29533e-08
8.77293e-08
-4.14405e-08
3.26437e-08
3.40166e-09
-1.62268e-08
-5.05209e-07
3.0218e-08
5.37746e-07
-4.70026e-07
2.9964e-08
-4.39006e-07
3.78875e-08
-3.98432e-07
4.9348e-08
-3.33027e-07
5.58554e-08
-2.23624e-07
1.78828e-08
-1.13856e-07
-2.89356e-09
-4.37595e-08
1.7633e-08
3.45895e-08
-4.57054e-08
-4.51513e-08
8.31425e-08
-3.57674e-07
1.68726e-08
3.71019e-07
-3.38438e-07
1.07279e-08
-3.03939e-07
3.38902e-09
-2.57571e-07
2.97977e-09
-1.94191e-07
-7.525e-09
-1.34016e-07
-4.2292e-08
-7.31966e-08
-6.37131e-08
1.19737e-08
-6.75372e-08
9.15771e-08
-1.25309e-07
-1.14425e-07
1.60851e-07
-2.56273e-07
-1.25702e-08
2.85716e-07
-2.28232e-07
-1.73129e-08
-1.96405e-07
-2.84383e-08
-1.59917e-07
-3.35076e-08
-1.22355e-07
-4.50877e-08
-9.15424e-08
-7.31043e-08
-5.64218e-08
-9.88337e-08
-1.41842e-09
-1.22541e-07
4.14004e-08
-1.68128e-07
-1.77508e-07
1.04483e-07
-1.80314e-07
-4.17968e-08
2.0954e-07
-1.59361e-07
-3.8266e-08
-1.52511e-07
-3.52884e-08
-1.33988e-07
-5.20302e-08
-1.02657e-07
-7.64187e-08
-6.25615e-08
-1.132e-07
-2.68442e-08
-1.34551e-07
4.99284e-10
-1.49884e-07
2.86989e-08
-1.96327e-07
-2.43395e-07
9.4586e-08
-1.85623e-07
-4.65555e-08
1.90382e-07
-1.84425e-07
-3.94641e-08
-1.76131e-07
-4.35827e-08
-1.56065e-07
-7.20962e-08
-1.14448e-07
-1.18035e-07
-6.12734e-08
-1.66375e-07
-1.36554e-08
-1.82169e-07
3.1543e-08
-1.95083e-07
8.32541e-08
-2.48039e-07
-2.82655e-07
1.22515e-07
-3.05277e-07
-3.51988e-08
2.9392e-07
-3.12861e-07
-3.18791e-08
-3.09827e-07
-4.66169e-08
-2.77101e-07
-1.04823e-07
-2.10482e-07
-1.84654e-07
-1.40262e-07
-2.36595e-07
-7.26807e-08
-2.4975e-07
-1.46088e-08
-2.53155e-07
2.18981e-08
-2.84545e-07
-3.11129e-07
5.03717e-08
-3.97614e-07
1.07565e-08
3.51659e-07
-4.50076e-07
2.05827e-08
-4.84123e-07
-1.25702e-08
-4.76223e-07
-1.12723e-07
-4.39535e-07
-2.21342e-07
-3.98835e-07
-2.77295e-07
-3.42796e-07
-3.0579e-07
-2.90671e-07
-3.05279e-07
-2.33855e-07
-3.41361e-07
-3.56349e-07
-1.88635e-07
-6.27754e-07
8.44341e-08
5.54077e-07
-6.83346e-07
7.61747e-08
-7.03536e-07
7.6193e-09
-7.01347e-07
-1.14912e-07
-7.03082e-07
-2.19607e-07
-6.8967e-07
-2.90706e-07
-6.51313e-07
-3.44147e-07
-5.74861e-07
-3.8173e-07
-4.76221e-07
-4.40002e-07
-4.74447e-07
-3.58123e-07
-7.13397e-07
9.75693e-08
7.00262e-07
-7.24355e-07
8.71323e-08
-7.24489e-07
7.75354e-09
-7.36811e-07
-1.0259e-07
-7.60241e-07
-1.96177e-07
-7.6868e-07
-2.82267e-07
-7.2588e-07
-3.86948e-07
-6.43843e-07
-4.63767e-07
-5.38156e-07
-5.45689e-07
-5.9492e-07
-4.17684e-07
-5.69745e-07
8.95464e-08
5.77768e-07
-5.51273e-07
6.86592e-08
-5.68123e-07
2.46037e-08
-6.31862e-07
-3.88505e-08
-7.02445e-07
-1.25595e-07
-7.33605e-07
-2.51107e-07
-7.12709e-07
-4.07844e-07
-6.43291e-07
-5.33184e-07
-5.66632e-07
-6.22348e-07
-6.8663e-07
-4.74921e-07
-4.50449e-07
1.00319e-07
4.39677e-07
-4.73133e-07
9.13426e-08
-5.25019e-07
7.64901e-08
-5.60878e-07
-2.99202e-09
-5.52027e-07
-1.34446e-07
-5.01807e-07
-3.01327e-07
-4.74087e-07
-4.35563e-07
-4.28772e-07
-5.78499e-07
-3.88376e-07
-6.62745e-07
-7.1849e-07
-3.56516e-07
-5.56112e-07
1.30533e-07
5.25898e-07
-5.23057e-07
5.82879e-08
-4.54571e-07
8.00383e-09
-3.77323e-07
-8.0239e-08
-2.9535e-07
-2.16419e-07
-2.2508e-07
-3.71598e-07
-1.84003e-07
-4.7664e-07
-1.40376e-07
-6.22126e-07
-1.05105e-07
-6.98016e-07
-7.20528e-07
-1.03067e-07
-7.28572e-07
1.10189e-07
7.48916e-07
-5.46833e-07
-1.23451e-07
-3.41601e-07
-1.97228e-07
-2.097e-07
-2.1214e-07
-1.29109e-07
-2.9701e-07
-7.31184e-08
-4.27589e-07
-4.84702e-08
-5.01289e-07
-4.99304e-08
-6.20666e-07
-4.44492e-08
-7.03497e-07
-7.34179e-07
-3.07987e-08
-3.86916e-07
1.06558e-07
3.90547e-07
-3.49158e-07
-1.6121e-07
-2.37787e-07
-3.086e-07
-1.42181e-07
-3.07746e-07
-8.30419e-08
-3.56149e-07
-2.39847e-08
-4.86646e-07
7.66888e-09
-5.32942e-07
1.15265e-08
-6.24523e-07
-6.34223e-09
-6.85629e-07
-7.26399e-07
-1.41219e-08
2.76635e-07
1.01153e-07
-2.71229e-07
2.04601e-07
-8.91769e-08
1.15007e-07
-2.19006e-07
7.97931e-08
-2.72532e-07
5.72634e-08
-3.3362e-07
2.02428e-08
-4.49625e-07
1.9683e-08
-5.32382e-07
3.15051e-08
-6.36346e-07
2.39373e-08
-6.78061e-07
-7.04457e-07
1.9955e-09
5.7522e-07
2.61342e-08
-5.00202e-07
5.41616e-07
-5.55733e-08
4.41362e-07
-1.18751e-07
3.27373e-07
-1.58543e-07
2.30831e-07
-2.37079e-07
1.25346e-07
-3.4414e-07
6.23108e-08
-4.69347e-07
6.25672e-08
-6.36602e-07
4.71229e-08
-6.62617e-07
-6.7978e-07
2.24462e-08
4.31186e-07
-8.28109e-08
-3.22242e-07
4.63613e-07
-8.80006e-08
4.43343e-07
-9.84812e-08
4.0504e-07
-1.20241e-07
3.61335e-07
-1.93374e-07
2.95649e-07
-2.78454e-07
2.15556e-07
-3.89254e-07
1.59323e-07
-5.80369e-07
1.3366e-07
-6.36954e-07
-6.49942e-07
1.03822e-07
2.23583e-07
-1.00739e-07
-2.05655e-07
2.2535e-07
-8.97675e-08
2.31207e-07
-1.04339e-07
2.69982e-07
-1.59017e-07
3.19685e-07
-2.43077e-07
3.4337e-07
-3.0214e-07
3.36168e-07
-3.82053e-07
2.84478e-07
-5.2868e-07
2.50125e-07
-6.026e-07
-6.15639e-07
2.15821e-07
1.72939e-07
-6.11814e-08
-2.12497e-07
1.5722e-07
-7.40472e-08
1.81284e-07
-1.28403e-07
2.40263e-07
-2.17996e-07
3.12949e-07
-3.15763e-07
3.70389e-07
-3.59579e-07
3.94226e-07
-4.05889e-07
3.84275e-07
-5.18729e-07
3.57416e-07
-5.75741e-07
-5.83012e-07
3.24789e-07
2.06978e-07
-5.34868e-08
-2.14672e-07
2.33297e-07
-1.00369e-07
2.88391e-07
-1.83498e-07
3.3847e-07
-2.68075e-07
3.85504e-07
-3.62799e-07
4.26972e-07
-4.01048e-07
4.45238e-07
-4.24156e-07
4.56108e-07
-5.29599e-07
4.31967e-07
-5.516e-07
-5.56915e-07
4.0587e-07
2.45618e-07
-1.43972e-07
-1.55133e-07
3.64892e-07
-2.19642e-07
4.60094e-07
-2.787e-07
5.22869e-07
-3.30851e-07
5.48305e-07
-3.88234e-07
5.53681e-07
-4.06422e-07
5.59546e-07
-4.30021e-07
5.27392e-07
-4.97445e-07
4.948e-07
-5.19007e-07
-5.28337e-07
4.66222e-07
5.00672e-07
-2.45553e-07
-3.9909e-07
5.92953e-07
-3.11924e-07
6.48213e-07
-3.33961e-07
6.72963e-07
-3.55603e-07
6.69629e-07
-3.84901e-07
6.54255e-07
-3.9105e-07
6.33152e-07
-4.08918e-07
5.95011e-07
-4.59304e-07
5.58721e-07
-4.82717e-07
-4.95282e-07
5.25665e-07
6.54449e-07
-2.79941e-07
-6.20062e-07
6.6472e-07
-3.22194e-07
6.73243e-07
-3.42484e-07
6.83535e-07
-3.65894e-07
6.66181e-07
-3.67546e-07
6.50435e-07
-3.75304e-07
6.47888e-07
-4.06371e-07
6.30616e-07
-4.42032e-07
6.04564e-07
-4.56665e-07
-4.68161e-07
5.77442e-07
6.63732e-07
-2.88477e-07
-6.55194e-07
6.63425e-07
-3.21888e-07
6.694e-07
-3.48458e-07
6.62438e-07
-3.58932e-07
6.61652e-07
-3.66761e-07
6.72961e-07
-3.86613e-07
6.80621e-07
-4.14031e-07
6.71385e-07
-4.32796e-07
6.53309e-07
-4.38589e-07
-4.47898e-07
6.33047e-07
6.23435e-07
-2.96837e-07
-6.15075e-07
6.24772e-07
-3.23225e-07
6.14956e-07
-3.38643e-07
6.12716e-07
-3.56692e-07
6.34308e-07
-3.88353e-07
6.74092e-07
-4.26397e-07
6.99822e-07
-4.39761e-07
7.04239e-07
-4.37214e-07
6.99936e-07
-4.34285e-07
-4.42884e-07
6.94921e-07
5.50116e-07
-2.93092e-07
-5.5386e-07
5.44141e-07
-3.1725e-07
5.40671e-07
-3.35172e-07
5.44777e-07
-3.60799e-07
6.00495e-07
-4.44072e-07
6.76077e-07
-5.01979e-07
7.41008e-07
-5.04692e-07
7.69762e-07
-4.65968e-07
7.71328e-07
-4.35851e-07
-4.34255e-07
7.62699e-07
4.4244e-07
-2.70269e-07
-4.65263e-07
4.34861e-07
-3.09671e-07
4.42459e-07
-3.4277e-07
4.92428e-07
-4.10768e-07
6.10815e-07
-5.62458e-07
7.15712e-07
-6.06877e-07
7.91667e-07
-5.80647e-07
8.11573e-07
-4.85874e-07
7.96772e-07
-4.2105e-07
-3.73178e-07
7.35695e-07
1.60007e-07
-2.39567e-07
-1.90709e-07
2.15355e-07
-3.6502e-07
3.5558e-07
-4.82996e-07
5.27114e-07
-5.82302e-07
6.49784e-07
-6.85128e-07
7.15602e-07
-6.72695e-07
7.08366e-07
-5.7341e-07
6.51932e-07
-4.2944e-07
5.58882e-07
-3.27999e-07
-2.42667e-07
4.28371e-07
-8.92648e-08
-3.69577e-07
2.19275e-07
1.10431e-07
-5.64715e-07
3.38277e-07
-7.10842e-07
5.40924e-07
-7.84949e-07
4.90542e-07
-6.34747e-07
3.05363e-07
-4.87516e-07
1.08806e-07
-3.76854e-07
-2.73858e-08
-2.93249e-07
-1.20837e-07
-2.34548e-07
-1.89436e-07
-1.74069e-07
-2.69556e-07
-5.90468e-07
4.90447e-07
-7.79646e-08
-7.56306e-07
-1.37366e-08
-7.7507e-07
-6.63377e-08
-7.32347e-07
-1.86483e-07
-5.14601e-07
-2.88483e-07
-3.85516e-07
-3.43175e-07
-3.22161e-07
-3.57925e-07
-2.78499e-07
-3.39934e-07
-2.5254e-07
-2.23911e-07
-3.05458e-07
-5.72453e-07
-6.36124e-07
6.18109e-07
-5.21995e-07
-8.06765e-07
-4.39843e-07
-8.57222e-07
-3.66401e-07
-8.05789e-07
-3.7961e-07
-5.01392e-07
-4.03523e-07
-3.61603e-07
-3.88558e-07
-3.37127e-07
-3.53211e-07
-3.13846e-07
-3.16134e-07
-2.89617e-07
-2.63361e-07
-2.76684e-07
-7.54935e-07
-5.53776e-07
6.72586e-07
-7.44788e-07
-8.16911e-07
-6.6306e-07
-9.3895e-07
-5.40882e-07
-9.27968e-07
-4.28358e-07
-6.13915e-07
-4.01449e-07
-3.88512e-07
-3.78917e-07
-3.59659e-07
-3.49537e-07
-3.43225e-07
-3.33518e-07
-3.05637e-07
-2.40106e-07
-3.56773e-07
-7.00412e-07
-3.34182e-07
4.80818e-07
-8.17181e-07
-7.00143e-07
-7.59574e-07
-9.96558e-07
-6.54532e-07
-1.03301e-06
-4.44522e-07
-8.23926e-07
-4.01622e-07
-4.31411e-07
-4.17955e-07
-3.43326e-07
-4.47217e-07
-3.13963e-07
-5.00686e-07
-2.52167e-07
-1.8667e-07
-5.54123e-07
-2.34197e-07
-9.3572e-08
-6.41321e-09
-5.63e-07
-3.7134e-07
-6.70464e-07
-8.89094e-07
-6.24422e-07
-1.07905e-06
-4.64129e-07
-9.84219e-07
-3.989e-07
-4.9664e-07
-4.65494e-07
-2.76733e-07
-5.42548e-07
-2.36908e-07
-6.33623e-07
-1.61092e-07
-1.14977e-07
-7.05316e-07
8.2739e-08
1.26667e-09
-1.77578e-07
-2.06743e-07
-8.18577e-08
-5.5337e-07
-5.42466e-07
-6.31015e-07
-1.00141e-06
-5.30038e-07
-1.0852e-06
-3.26051e-07
-7.00627e-07
-4.10999e-07
-1.91785e-07
-4.76968e-07
-1.7094e-07
-5.27389e-07
-1.10671e-07
-6.22648e-08
-5.80101e-07
1.11465e-08
6.06127e-08
-7.04925e-08
-1.05505e-07
3.47931e-08
-4.30923e-07
-2.17048e-07
-4.3957e-07
-9.92758e-07
-4.05951e-07
-1.11882e-06
-1.83975e-07
-9.22603e-07
-2.96357e-07
-7.94033e-08
-3.6785e-07
-9.94464e-08
-3.62507e-07
-1.16014e-07
-6.80017e-08
-3.56771e-07
6.75715e-08
2.43622e-08
-3.13211e-08
1.1136e-07
-8.99464e-09
-1.19261e-07
1.35723e-08
-2.29454e-07
-8.82565e-07
-1.94187e-07
-1.15408e-06
-1.01907e-07
-1.01488e-06
-2.04138e-07
2.28278e-08
-2.81975e-07
-2.16089e-08
-3.58864e-07
-3.91256e-08
5.26815e-08
-4.79547e-07
-1.98877e-08
-9.45495e-08
1.38799e-07
-3.01805e-08
1.29853e-09
-1.08074e-07
9.14659e-08
-1.49759e-08
-9.75663e-07
-5.02471e-08
-1.11881e-06
4.10551e-08
-1.10619e-06
1.91221e-07
-1.27338e-07
-5.03454e-09
1.74647e-07
-1.51395e-07
1.07235e-07
9.25119e-08
-1.91225e-07
-4.83472e-07
-4.08814e-08
4.29804e-07
-4.5136e-07
-3.08135e-08
-1.73476e-07
-1.86417e-07
-5.73006e-08
-1.09184e-06
-7.24042e-08
-1.10371e-06
-9.55214e-08
-1.08307e-06
1.96867e-07
-4.19726e-07
1.58943e-07
2.12571e-07
1.19123e-07
1.47054e-07
1.80619e-08
1.93573e-07
-1.92535e-07
-4.133e-08
1.92984e-07
-1.09117e-07
-1.14234e-07
2.77882e-09
-2.98313e-07
-1.34341e-08
-1.07563e-06
-3.37759e-08
-1.08336e-06
-4.91896e-08
-1.06765e-06
1.48327e-07
-6.17243e-07
1.71256e-07
1.89643e-07
2.05799e-07
1.12511e-07
-2.56206e-08
2.49481e-07
1.6536e-07
-3.52276e-08
-1.71462e-07
1.12802e-07
-6.1679e-08
1.37863e-08
-1.99296e-07
-1.21713e-08
-1.04967e-06
-2.44899e-08
-1.07105e-06
-3.08124e-08
-1.06133e-06
-8.10871e-09
-6.39947e-07
-1.25692e-07
3.07226e-07
9.3557e-10
-1.41163e-08
-8.78463e-08
6.31612e-08
4.72705e-08
-2.46969e-08
-5.78014e-08
4.68182e-08
-6.12288e-08
-1.02036e-09
-1.51458e-07
3.08288e-09
-1.05377e-06
-1.12402e-08
-1.05672e-06
-2.31059e-08
-1.04947e-06
3.59803e-08
-6.99033e-07
-6.45187e-08
4.07725e-07
-1.45604e-07
6.69692e-08
-9.36859e-08
-1.39765e-07
5.11702e-08
-5.65205e-08
-1.93468e-08
7.15334e-08
-8.15918e-08
1.19758e-08
-9.19011e-08
5.65221e-09
-1.04745e-06
-3.36884e-09
-1.0477e-06
-1.04981e-08
-1.04234e-06
1.35839e-07
-8.4537e-07
1.28441e-07
4.15123e-07
-2.82022e-09
1.9823e-07
-1.13245e-07
1.67412e-08
-3.33396e-07
-1.80772e-07
4.57647e-07
-2.19953e-07
-1.95032e-07
1.57548e-08
-3.27609e-07
1.29108e-08
-1.0446e-06
-8.1663e-09
-1.02662e-06
-2.61548e-08
-1.02435e-06
2.21864e-08
-8.93711e-07
1.34856e-07
3.02453e-07
1.37527e-07
1.95559e-07
4.33481e-08
-1.90613e-08
-4.21337e-07
-2.01174e-07
4.4174e-07
-3.03178e-07
-3.13183e-07
1.89985e-08
-6.49785e-07
6.24551e-09
-1.03185e-06
-1.33892e-08
-1.00699e-06
-3.51083e-08
-1.00263e-06
-2.63797e-08
-9.0244e-07
1.50042e-07
1.26031e-07
2.52793e-07
9.28047e-08
1.49148e-07
1.46988e-07
6.34467e-08
-1.32492e-07
-1.32125e-07
1.16665e-08
-2.61392e-07
4.03718e-08
-6.7849e-07
2.0357e-08
-1.01184e-06
-1.82847e-09
-9.84805e-07
-2.05711e-08
-9.83887e-07
-7.97862e-09
-9.15032e-07
1.5193e-07
-3.38769e-08
2.35198e-07
9.54046e-09
1.64475e-07
2.19871e-07
2.8137e-07
-7.54562e-09
-4.06315e-07
1.22274e-07
-1.02295e-07
4.98073e-08
-6.06021e-07
2.36827e-08
-9.85716e-07
1.11331e-09
-9.62235e-07
-1.89471e-08
-9.63827e-07
-2.54113e-08
-9.08568e-07
-1.82513e-08
-4.10357e-08
1.90109e-08
-2.77262e-08
4.06895e-08
1.42794e-07
2.1363e-07
1.29455e-07
-3.50632e-07
7.34602e-08
3.78735e-08
3.30921e-08
-5.65658e-07
1.43865e-08
-9.67012e-07
-3.32796e-09
-9.44521e-07
-2.21031e-08
-9.45052e-07
-2.2398e-08
-9.08273e-07
-5.71308e-08
-6.30345e-09
-6.04205e-09
-7.88119e-08
-1.62587e-07
1.97235e-07
1.66803e-07
2.61801e-07
-2.99148e-07
3.72202e-08
1.67466e-07
3.49283e-08
-5.63364e-07
1.64586e-08
-9.4854e-07
-4.59924e-09
-9.23463e-07
-2.39622e-08
-9.25689e-07
-2.28173e-08
-9.09418e-07
-8.56189e-08
5.64981e-08
-1.12307e-07
-5.21244e-08
-2.11479e-07
-6.34155e-08
9.50512e-08
3.76351e-07
-2.096e-07
1.92546e-08
2.43256e-07
3.54468e-08
-5.79556e-07
1.41028e-08
-9.27194e-07
-5.10495e-09
-9.04255e-07
-2.59042e-08
-9.0489e-07
-2.49099e-08
-9.10412e-07
4.26189e-07
-3.946e-07
2.45494e-07
1.2857e-07
7.33446e-08
-3.93292e-08
2.06443e-08
4.51017e-07
-9.53106e-08
1.11277e-08
2.5278e-07
3.40159e-08
-6.02442e-07
1.32403e-08
-9.06418e-07
-4.43693e-09
-8.86578e-07
-2.4614e-08
-8.84712e-07
-2.33959e-08
-9.1163e-07
1.40567e-07
-5.58564e-07
3.08994e-08
2.38239e-07
1.88359e-07
-8.41152e-08
7.99481e-10
4.80524e-07
-3.03043e-08
1.67212e-08
2.36876e-07
3.6467e-08
-6.22182e-07
1.53155e-08
-8.85265e-07
-4.60791e-09
-8.66655e-07
-2.5504e-08
-8.63816e-07
-4.60392e-08
-8.91095e-07
-4.34814e-08
-5.61122e-07
-1.54429e-07
3.49186e-07
1.27473e-07
-9.35423e-08
-4.1745e-09
4.74869e-07
9.83411e-09
2.64064e-08
2.06299e-07
5.0014e-08
-6.45792e-07
2.84171e-08
-8.63667e-07
5.82625e-09
-8.44064e-07
-1.6123e-08
-8.41867e-07
-4.69196e-08
-8.60299e-07
-1.55561e-10
-6.07886e-07
1.14908e-07
2.34121e-07
6.98321e-08
1.7255e-07
-1.09742e-08
4.40039e-07
4.58067e-08
4.55129e-08
1.49818e-07
6.06875e-08
-6.60969e-07
3.71679e-08
-8.4015e-07
1.1523e-08
-8.18419e-07
-8.58146e-09
-8.21763e-07
-2.94771e-08
-8.39403e-07
-1.34102e-08
-6.23954e-07
2.12328e-07
8.38247e-09
2.59281e-09
2.79567e-07
-4.12695e-08
3.7116e-07
1.10149e-07
5.2981e-08
5.55726e-08
5.34139e-08
-6.61402e-07
2.89578e-08
-8.15693e-07
5.55254e-09
-7.95014e-07
-1.81417e-08
-7.98068e-07
-4.12559e-08
-8.16288e-07
-4.79333e-08
-6.17276e-07
2.29689e-08
-6.25194e-08
1.36663e-08
1.18951e-08
-2.66841e-08
2.51094e-07
1.46749e-07
6.18172e-08
-3.29441e-08
4.67152e-08
-6.4631e-07
2.14302e-08
-7.90412e-07
-2.00399e-09
-7.7158e-07
-2.66206e-08
-7.73452e-07
-5.12197e-08
-7.91689e-07
-6.80764e-08
-6.00419e-07
-9.31281e-08
-3.74679e-08
5.05536e-08
-1.30015e-07
1.58484e-10
1.2539e-07
1.25544e-07
5.76525e-08
-9.04376e-08
4.62411e-08
-6.34896e-07
2.01615e-08
-7.64331e-07
-3.75861e-09
-7.4766e-07
-2.85771e-08
-7.48633e-07
-5.32002e-08
-7.67065e-07
-5.43196e-08
-5.993e-07
-8.09754e-08
-1.08121e-08
8.41659e-08
-1.14587e-07
9.27938e-09
5.00518e-08
6.60536e-08
5.10813e-08
-1.32251e-07
4.84529e-08
-6.32275e-07
2.28164e-08
-7.38696e-07
-2.01205e-09
-7.22831e-07
-2.9371e-08
-7.21274e-07
-5.58321e-08
-7.40604e-07
-5.9884e-08
-5.95247e-07
-5.20549e-08
-1.86392e-08
1.03078e-07
-7.09668e-08
6.82291e-08
1.03196e-08
-2.8497e-08
7.31681e-08
-1.37185e-07
5.06801e-08
-6.09783e-07
2.50773e-08
-7.13093e-07
-2.44659e-10
-6.97509e-07
-2.905e-08
-6.92469e-07
-5.4134e-08
-7.1552e-07
-6.50687e-08
-5.84312e-07
-3.76817e-08
-4.60253e-08
1.1457e-07
-4.91735e-08
1.06187e-07
-6.01224e-09
-8.98552e-08
8.37117e-08
-1.14717e-07
5.33836e-08
-5.79454e-07
2.70074e-08
-6.86715e-07
-3.74367e-09
-6.66758e-07
-2.56855e-08
-6.70527e-07
-5.46205e-08
-6.86585e-07
-1.08735e-07
-5.30197e-07
-1.39974e-07
-1.47865e-08
9.72465e-08
-1.2265e-07
9.31906e-08
5.05113e-09
-1.04255e-07
6.96019e-08
-9.1134e-08
4.78257e-08
-5.57678e-07
1.73924e-08
-6.56282e-07
-9.41121e-09
-6.39955e-07
-3.28596e-08
-6.47079e-07
-6.06919e-08
-6.58753e-07
-9.15466e-08
-4.99342e-07
-1.56767e-07
5.04352e-08
9.16003e-08
-1.51119e-07
9.09884e-08
2.59087e-08
-1.11846e-07
8.22828e-08
-8.24214e-08
5.81625e-08
-5.3355e-07
3.10276e-08
-6.29145e-07
2.09905e-08
-6.29917e-07
-1.4945e-08
-6.11143e-07
-4.34818e-08
-6.30216e-07
-5.67032e-08
-4.8612e-07
-1.28836e-07
1.2257e-07
9.25111e-08
-1.29746e-07
6.30824e-08
2.93666e-08
-6.6539e-08
9.81019e-08
-1.17453e-07
1.11732e-07
-5.47188e-07
8.62e-08
-6.03614e-07
4.25369e-08
-5.86254e-07
2.64373e-08
-5.95044e-07
-8.51158e-09
-5.95268e-07
-1.05131e-08
-4.84118e-07
4.07851e-08
7.12727e-08
9.49059e-08
3.83909e-08
-2.49657e-08
4.06789e-08
1.3655e-08
1.0621e-08
-1.5304e-07
3.8761e-08
-5.75329e-07
-6.67632e-10
-5.64186e-07
-3.31485e-08
-5.53774e-07
-5.76353e-08
-5.70557e-07
-8.8298e-08
-5.64605e-07
-6.22915e-08
-5.10123e-07
1.20375e-07
-1.11393e-07
6.35462e-08
1.51736e-07
7.20566e-08
8.43601e-09
-3.98191e-08
1.12969e-07
-1.9396e-07
5.54525e-08
-5.17813e-07
1.23372e-08
-5.21071e-07
-2.07144e-08
-5.20722e-07
-7.0597e-08
-5.20674e-07
-1.02597e-07
-5.32605e-07
-6.39373e-08
-5.48783e-07
4.63874e-08
-2.21717e-07
3.44984e-08
7.54359e-08
6.88931e-08
-1.9624e-08
-4.08377e-08
8.0134e-08
-2.052e-07
4.47286e-08
-4.82405e-07
1.64733e-08
-4.92815e-07
-9.85186e-09
-4.94397e-07
-4.30306e-08
-4.87495e-07
-8.76748e-08
-4.87961e-07
-1.51512e-07
-4.84946e-07
-1.15793e-07
-2.57435e-07
-7.73968e-10
-8.05185e-08
1.25268e-07
-2.37501e-08
-1.21142e-07
1.21354e-07
-2.0129e-07
7.64939e-08
-4.37547e-07
2.80981e-08
-4.4442e-07
-1.67786e-08
-4.4952e-07
-5.38499e-08
-4.50424e-07
-8.53437e-08
-4.56467e-07
-1.30829e-07
-4.3946e-07
-1.53095e-07
-2.35169e-07
-3.60591e-08
-1.17809e-07
1.29211e-07
-2.79921e-08
-1.24967e-07
1.44711e-07
-2.16785e-07
9.69673e-08
-3.89804e-07
6.00346e-08
-4.07487e-07
2.30139e-08
-4.12499e-07
-1.67772e-08
-4.10633e-07
-7.55823e-08
-3.97662e-07
-1.29662e-07
-3.8538e-07
-1.34599e-07
-2.30232e-07
-6.36904e-08
-1.06967e-07
6.42873e-08
-4.62178e-08
-4.60635e-08
1.33207e-07
-2.85702e-07
8.42031e-08
-3.408e-07
2.66171e-08
-3.49901e-07
-2.31749e-08
-3.62707e-07
-6.69772e-08
-3.66831e-07
-1.00395e-07
-3.64244e-07
-1.39945e-07
-3.4583e-07
-8.23355e-08
-2.87841e-07
-9.01648e-08
-5.58599e-08
1.58144e-07
-8.00349e-08
-1.24327e-07
1.49317e-07
-2.76866e-07
1.09078e-07
-3.00561e-07
7.43269e-08
-3.1515e-07
2.88072e-08
-3.17188e-07
-2.18271e-08
-3.16196e-07
-7.69415e-08
-3.0913e-07
-1.24053e-07
-2.98718e-07
-1.38478e-07
-2.73416e-07
-1.12058e-07