/*--------------------------------*- C++ -*----------------------------------*\
  =========                 |
  \\      /  F ield         | OpenFOAM: The Open Source CFD Toolbox
   \\    /   O peration     | Website:  https://openfoam.org
    \\  /    A nd           | Version:  8
     \\/     M anipulation  |
\*---------------------------------------------------------------------------*/
FoamFile
{
    version     2.0;
    format      ascii;
    class       surfaceScalarField;
    location    "2.8";
    object      alphaPhi0.water;
}
// * * * * * * * * * * * * * * * * * * * * * * * * * * * * * * * * * * * * * //

dimensions      [0 3 -1 0 0 0 0];

internalField   nonuniform List<scalar> 
18095
(
1.95229e-08
-1.71938e-07
1.52415e-07
2.31173e-08
-1.98225e-07
1.94631e-07
1.99353e-08
-2.05814e-07
2.08996e-07
1.07029e-08
-2.10512e-07
2.19744e-07
-2.04585e-10
-2.13496e-07
2.24403e-07
-1.06261e-08
-2.13335e-07
2.23756e-07
-1.96232e-08
-2.10658e-07
2.19655e-07
-2.31449e-08
-2.0589e-07
2.09411e-07
-1.95574e-08
-1.9819e-07
1.94602e-07
-1.71942e-07
1.52385e-07
1.55462e-08
-1.87484e-07
1.5719e-08
-1.98398e-07
1.20071e-08
-2.02102e-07
6.44426e-09
-2.04949e-07
-2.94099e-10
-2.06757e-07
-6.62117e-09
-2.07008e-07
-1.20808e-08
-2.05199e-07
-1.57484e-08
-2.02222e-07
-1.55653e-08
-1.98373e-07
-1.87507e-07
6.8577e-09
-1.94342e-07
8.2502e-09
-1.99791e-07
7.15559e-09
-2.01008e-07
4.40321e-09
-2.02196e-07
4.46352e-10
-2.02801e-07
-3.68182e-09
-2.0288e-07
-7.08279e-09
-2.01798e-07
-8.32874e-09
-2.00976e-07
-6.86154e-09
-1.9984e-07
-1.94369e-07
4.56588e-09
-1.98908e-07
4.69044e-09
-1.99915e-07
3.59244e-09
-1.9991e-07
1.71095e-09
-2.00315e-07
-3.59831e-10
-2.0073e-07
-2.49068e-09
-2.00749e-07
-3.92494e-09
-2.00363e-07
-4.67792e-09
-2.00223e-07
-4.55011e-09
-1.99968e-07
-1.98919e-07
1.09222e-09
1.17691e-09
1.26725e-09
9.52372e-10
2.22516e-10
-5.26236e-10
-8.89712e-10
-1.11302e-09
-1.08105e-09
-2.63319e-08
-1.97237e-07
2.23569e-07
-2.86645e-08
-1.99102e-07
2.01435e-07
-2.37936e-08
-2.01752e-07
1.96881e-07
-1.3063e-08
-2.011e-07
1.90369e-07
1.34226e-10
-2.01815e-07
1.88618e-07
1.3486e-08
-2.01595e-07
1.88243e-07
2.39355e-08
-2.00709e-07
1.9026e-07
2.8494e-08
-2.01134e-07
1.96575e-07
2.59274e-08
-1.98694e-07
2.0126e-07
-1.96863e-07
2.2279e-07
-9.93898e-09
-1.87298e-07
-1.55198e-08
-1.93521e-07
-1.44235e-08
-2.02848e-07
-6.36251e-09
-2.09161e-07
6.70338e-10
-2.08848e-07
7.53756e-09
-2.08462e-07
1.45151e-08
-2.07687e-07
1.54542e-08
-2.02073e-07
9.88139e-09
-1.93121e-07
-1.86981e-07
-1.10791e-08
-1.76219e-07
-9.2794e-09
-1.95321e-07
-7.22321e-09
-2.04905e-07
-6.31663e-09
-2.10067e-07
-2.40876e-09
-2.12756e-07
2.05126e-09
-2.12922e-07
5.07869e-09
-2.10714e-07
8.3495e-09
-2.05344e-07
1.07751e-08
-1.95546e-07
-1.76206e-07
-6.79654e-09
-1.69422e-07
-8.70166e-09
-1.93416e-07
-7.87437e-09
-2.05732e-07
-2.84611e-09
-2.15095e-07
1.02283e-09
-2.16625e-07
4.85672e-09
-2.16756e-07
9.27765e-09
-2.15135e-07
9.33036e-09
-2.05396e-07
6.95551e-09
-1.93172e-07
-1.69251e-07
-1.70072e-08
-1.57919e-08
-1.25275e-08
-7.87893e-09
-1.0047e-10
6.89999e-09
1.14204e-08
1.54353e-08
1.68662e-08
2.50565e-08
-1.60872e-07
1.35815e-07
2.95988e-08
-2.00715e-07
1.96172e-07
2.00431e-08
-2.10823e-07
2.20379e-07
4.69967e-09
-2.1592e-07
2.31263e-07
-1.20871e-08
-2.17869e-07
2.34656e-07
-2.73579e-08
-2.17491e-07
2.32762e-07
-3.74193e-08
-2.15651e-07
2.25712e-07
-4.30913e-08
-2.09559e-07
2.15231e-07
-3.68193e-08
-1.96555e-07
1.90283e-07
-1.54545e-07
1.17725e-07
1.43246e-08
-1.75196e-07
1.6534e-08
-2.02924e-07
1.38195e-08
-2.08109e-07
7.74836e-09
-2.09849e-07
-1.09581e-09
-2.09025e-07
-1.02981e-08
-2.08289e-07
-1.70175e-08
-2.08931e-07
-2.08491e-08
-2.05728e-07
-1.78866e-08
-1.99518e-07
-1.72431e-07
9.84863e-09
-1.85045e-07
8.26762e-09
-2.01343e-07
5.88575e-09
-2.05727e-07
6.46925e-15
-2.03963e-07
-4.28015e-09
-2.04745e-07
-8.00976e-09
-2.04559e-07
-1.06612e-08
-2.0628e-07
-1.15493e-08
-2.04839e-07
-1.12203e-08
-1.99847e-07
-1.83652e-07
7.27749e-09
-1.92323e-07
5.73991e-09
-1.99805e-07
6.15986e-09
-2.06147e-07
2.0754e-09
-1.99878e-07
4.70991e-10
-2.03141e-07
-1.67913e-09
-2.02409e-07
-7.62062e-09
-2.00338e-07
-7.16975e-09
-2.0529e-07
-7.81265e-09
-1.99204e-07
-1.91464e-07
3.12461e-08
3.28754e-08
2.36099e-08
1.41005e-08
-4.22332e-10
-1.45886e-08
-2.46673e-08
-3.33822e-08
-3.13259e-08
-9.35991e-07
3.4994e-08
9.01402e-07
-8.99622e-07
-3.51545e-08
-8.52205e-07
-4.14914e-08
-7.40693e-07
-1.30509e-08
-3.99928e-07
-1.68585e-08
-1.05751e-07
-8.42846e-09
-4.57588e-07
-2.58285e-09
-4.4047e-07
-4.00235e-09
-4.02103e-07
-1.941e-08
-5.7667e-08
-3.22628e-07
-6.66344e-07
7.08278e-08
5.6715e-07
-3.7893e-07
3.8325e-09
-1.08933e-07
-1.35863e-08
-9.52039e-08
-2.77438e-08
-6.88454e-08
-4.46369e-08
-4.8706e-08
-3.00153e-08
-2.6058e-08
-2.75334e-08
-8.03434e-09
-2.71254e-08
5.41812e-09
-3.90878e-08
-4.47219e-08
6.78682e-08
1.53758e-08
3.60119e-08
-2.43902e-08
-2.00266e-09
1.80012e-08
-1.5688e-08
-3.32237e-10
-2.19948e-08
-2.17296e-08
-1.73311e-08
-5.02646e-08
-9.18582e-09
-9.35471e-08
2.23807e-08
-1.77472e-07
6.90083e-08
-1.76712e-07
1.48711e-07
-2.62767e-07
-2.76995e-07
1.90866e-07
4.72148e-09
3.42561e-08
-1.14858e-08
5.19798e-09
1.32768e-08
4.31658e-09
6.8425e-10
7.57045e-09
-3.8354e-08
9.74678e-09
-2.01708e-07
2.57958e-08
-3.0804e-07
5.62883e-08
-3.26091e-07
1.0603e-07
-3.19377e-07
1.58856e-07
-3.15444e-07
-3.14234e-07
1.96549e-07
-4.17632e-08
1.50298e-08
5.17739e-08
-4.5869e-08
8.16697e-09
-4.30606e-08
-4.12826e-08
-1.41824e-07
-1.94009e-07
-1.60006e-07
-2.74188e-07
-1.45183e-07
-3.22845e-07
-1.33649e-07
-3.37608e-07
-1.16925e-07
-3.36083e-07
-1.02741e-07
-3.2959e-07
-3.18867e-07
-9.79578e-08
-1.14081e-07
1.40843e-08
1.07703e-07
-3.60885e-07
-4.42535e-09
-4.0761e-07
-1.22215e-07
-3.93161e-07
-2.08435e-07
-4.06513e-07
-2.60816e-07
-4.32115e-07
-2.97226e-07
-4.42842e-07
-3.26862e-07
-4.36036e-07
-3.42853e-07
-4.23816e-07
-3.41662e-07
-3.34156e-07
-4.07799e-07
-4.45814e-07
7.93038e-08
9.08985e-08
-6.65358e-07
3.02411e-08
-6.81521e-07
-1.0601e-07
-7.21959e-07
-1.67974e-07
-7.68247e-07
-2.14504e-07
-7.97912e-07
-2.67535e-07
-7.94949e-07
-3.29755e-07
-7.76957e-07
-3.60521e-07
-7.58263e-07
-3.58475e-07
-2.40001e-07
-6.12918e-07
-3.07828e-07
1.77044e-07
2.13236e-07
-7.04419e-07
1.58374e-07
-8.01102e-07
-9.25313e-09
-8.67009e-07
-1.02025e-07
-9.25401e-07
-1.5602e-07
-9.94648e-07
-1.98118e-07
-1.04421e-06
-2.7962e-07
-1.07155e-06
-3.30017e-07
-1.07114e-06
-3.38648e-07
-2.09568e-07
-3.40531e-07
-2.45052e-07
2.54372e-07
2.75606e-07
-2.96293e-07
1.73944e-07
-5.52887e-07
8.00075e-08
-6.81265e-07
4.5948e-08
-7.26692e-07
1.32816e-08
-8.42827e-07
-1.73001e-08
-1.03962e-06
-7.88264e-08
-1.17982e-06
-1.79179e-07
-1.17083e-06
-2.21472e-07
-1.91782e-07
-6.08392e-07
-9.04552e-08
2.56636e-07
1.376e-07
-1.15867e-07
1.64588e-07
-1.20761e-07
1.41317e-07
-6.66971e-08
6.23577e-08
-9.28931e-08
4.04196e-08
-1.35914e-07
2.57194e-08
-2.04985e-07
-9.75473e-09
-2.40949e-07
-2.35011e-08
-3.67273e-07
-3.71811e-08
-4.69192e-08
-4.93586e-07
6.89148e-09
2.22478e-07
-2.51629e-08
1.69968e-08
1.98111e-07
3.35137e-08
1.30152e-07
4.02975e-08
9.01566e-08
2.06607e-08
9.30072e-08
-1.74413e-08
6.38783e-08
-6.04513e-08
3.32544e-08
-1.0094e-07
1.69899e-08
-1.26325e-07
-1.17989e-08
-1.99061e-08
-1.53335e-07
8.3099e-08
2.37872e-07
-8.23177e-08
1.18067e-07
2.05033e-07
1.06646e-07
1.20194e-07
1.4222e-07
3.78432e-08
8.63122e-08
8.59012e-08
8.39343e-08
6.13349e-08
6.69343e-08
5.02573e-08
5.27753e-08
3.11438e-08
3.64748e-08
4.50131e-09
-4.50342e-09
2.10739e-08
9.77242e-08
2.44664e-07
-1.03322e-07
1.00384e-07
2.31142e-07
9.12549e-08
1.34484e-07
9.53422e-08
2.79486e-08
7.86022e-08
4.3933e-09
6.70688e-08
3.33172e-08
9.31788e-08
2.39682e-08
1.1424e-07
1.00474e-08
1.18006e-07
7.19751e-10
-7.30846e-10
1.14233e-07
6.20453e-08
2.84238e-07
-6.26639e-08
7.09339e-08
2.27415e-07
3.48141e-08
1.73269e-07
5.09045e-10
4.14057e-08
1.82039e-08
-1.78242e-08
4.93505e-08
-2.37656e-08
6.89843e-08
-1.08778e-08
9.18384e-08
-1.29859e-08
1.0422e-07
-1.1697e-08
-1.48254e-08
1.58701e-07
7.7018e-08
2.27612e-07
-9.01172e-08
6.48787e-08
1.32658e-07
4.22757e-08
5.46763e-08
2.32098e-08
4.47273e-09
4.70884e-08
-2.34732e-08
6.50604e-08
-3.18706e-08
8.46624e-08
-3.44021e-08
1.04788e-07
-2.65491e-08
2.73437e-07
-1.17569e-08
-1.44793e-08
5.78988e-07
9.71674e-08
1.27712e-07
-2.18283e-07
3.43201e-08
4.05201e-08
6.47666e-08
2.64527e-08
1.03362e-07
-5.81298e-11
1.02449e-07
-1.44156e-08
1.0684e-07
-3.13366e-08
1.14895e-07
-3.96016e-08
1.63279e-07
-6.67094e-08
3.43266e-07
-6.55668e-08
-3.44198e-08
5.68031e-07
1.29933e-07
3.0714e-08
-1.52905e-07
1.63175e-07
4.22134e-09
1.82574e-07
4.34324e-09
1.82606e-07
-2.67283e-09
1.89525e-07
-2.47268e-08
2.51694e-07
-7.9743e-08
4.02534e-07
-8.57021e-08
5.46816e-07
-5.69598e-08
5.17107e-07
-3.52055e-08
-4.10785e-08
5.24312e-07
2.1497e-07
4.37112e-08
-1.40198e-07
2.92014e-07
2.74267e-08
3.92781e-07
1.16297e-08
4.43627e-07
-9.65198e-09
4.56403e-07
-3.76396e-08
4.36296e-07
-5.97241e-08
4.17924e-07
-6.74445e-08
4.24022e-07
-6.52769e-08
4.5239e-07
-6.46469e-08
-8.11448e-08
4.93093e-07
2.43598e-07
3.30063e-08
-2.04625e-07
2.71086e-07
9.80065e-09
3.00919e-07
-1.76081e-08
3.28165e-07
-3.70343e-08
3.44792e-07
-5.43616e-08
3.57339e-07
-7.23766e-08
3.74462e-07
-8.47277e-08
4.01463e-07
-9.24592e-08
4.35002e-07
-1.01444e-07
-1.14446e-07
4.67243e-07
2.90004e-07
-1.84259e-08
-2.3867e-07
3.36369e-07
-3.66973e-08
3.72417e-07
-5.38153e-08
3.9948e-07
-6.42602e-08
4.21589e-07
-7.6482e-08
4.42207e-07
-9.30927e-08
4.6372e-07
-1.04725e-07
4.85087e-07
-1.14046e-07
5.04591e-07
-1.20986e-07
-1.28462e-07
5.18396e-07
3.40981e-07
-6.08963e-08
-2.98626e-07
3.76314e-07
-7.21281e-08
4.02619e-07
-8.03098e-08
4.25035e-07
-8.67807e-08
4.44275e-07
-9.58241e-08
4.63242e-07
-1.12163e-07
4.86102e-07
-1.27682e-07
5.10644e-07
-1.37729e-07
5.34736e-07
-1.45237e-07
-1.48283e-07
5.5418e-07
4.2727e-07
-7.08869e-08
-4.17407e-07
4.33528e-07
-7.90119e-08
4.35258e-07
-8.22123e-08
4.3576e-07
-8.81224e-08
4.38026e-07
-9.78673e-08
4.45817e-07
-1.20025e-07
4.63225e-07
-1.44602e-07
4.81597e-07
-1.56355e-07
5.0237e-07
-1.663e-07
-1.6626e-07
5.20092e-07
5.13509e-07
-6.45809e-08
-4.87945e-07
5.06438e-07
-7.18641e-08
4.96121e-07
-7.17575e-08
4.79889e-07
-7.17912e-08
4.63231e-07
-8.13097e-08
4.57099e-07
-1.13967e-07
4.65686e-07
-1.53277e-07
4.77886e-07
-1.68709e-07
4.92714e-07
-1.8138e-07
-1.79388e-07
5.05494e-07
5.32888e-07
-5.98238e-08
-5.37356e-07
5.29048e-07
-6.78469e-08
5.22806e-07
-6.53987e-08
4.9943e-07
-5.02805e-08
4.74727e-07
-4.70559e-08
4.65908e-07
-1.01227e-07
4.79136e-07
-1.6655e-07
5.04888e-07
-1.94546e-07
5.35726e-07
-2.12372e-07
-2.08882e-07
5.64847e-07
5.01925e-07
-5.68145e-08
-5.04585e-07
4.90191e-07
-5.58254e-08
4.60821e-07
-3.58453e-08
2.80111e-07
-1.92376e-08
3.73458e-07
-2.77181e-08
4.70243e-07
-9.07434e-08
5.0294e-07
-1.99273e-07
5.56925e-07
-2.4857e-07
6.155e-07
-2.71029e-07
-2.75533e-07
6.81971e-07
3.50641e-07
-3.50979e-08
-3.71702e-07
2.4506e-07
-2.98359e-08
2.33099e-07
-2.39962e-08
2.43232e-07
-2.93103e-08
2.70894e-07
-5.54217e-08
4.16734e-07
-1.43464e-07
5.23083e-07
-2.69554e-07
6.18474e-07
-3.43539e-07
7.29289e-07
-3.81835e-07
-4.15488e-07
8.69227e-07
1.7651e-07
-1.35419e-08
-1.98067e-07
1.6017e-07
-1.3496e-08
1.59036e-07
-2.28621e-08
1.77362e-07
-4.76355e-08
2.39331e-07
-1.17336e-07
3.94486e-07
-2.4799e-07
5.27177e-07
-4.04146e-07
6.98746e-07
-5.13227e-07
9.06494e-07
-5.8891e-07
-6.37682e-07
1.12931e-06
1.14221e-07
-7.55169e-09
-1.20214e-07
1.08417e-07
-7.6935e-09
1.09306e-07
-2.37512e-08
1.34163e-07
-6.63415e-08
1.53876e-07
-1.2884e-07
2.88732e-07
-3.82876e-07
5.82782e-07
-6.99011e-07
8.49703e-07
-7.8204e-07
8.45699e-07
-4.69785e-07
-2.09103e-07
5.75921e-07
9.33767e-08
-1.60069e-08
-8.4923e-08
9.72607e-08
-1.15777e-08
1.21083e-07
-2.27533e-08
9.29624e-08
-3.82219e-08
6.42078e-08
-1.00093e-07
3.75711e-07
-6.94401e-07
7.44215e-07
-1.06754e-06
4.64195e-07
-5.77527e-07
3.42702e-07
-2.1728e-07
-1.28329e-07
2.25156e-07
1.24191e-07
-2.37553e-08
-8.90885e-08
1.2085e-07
-8.22077e-09
1.06902e-07
-8.80484e-09
6.74486e-08
1.2303e-09
1.57887e-07
-1.90531e-07
4.84505e-07
-1.02103e-06
6.05978e-07
-1.18915e-06
2.2581e-07
-3.82631e-07
1.45722e-07
-1.73968e-07
-9.42445e-08
7.48642e-08
1.25008e-07
-2.11871e-11
-1.47859e-07
1.09917e-07
6.86946e-09
9.12921e-08
9.81921e-09
6.8768e-08
2.37534e-08
3.03521e-07
-4.25285e-07
4.52557e-07
-1.1702e-06
3.13321e-07
-1.22802e-06
1.42024e-07
-3.22261e-07
5.10113e-08
-1.23472e-07
-1.2046e-07
5.68562e-09
1.96274e-07
6.21131e-09
-2.02507e-07
1.9279e-07
1.03533e-08
1.70855e-07
3.1753e-08
1.28302e-07
6.63051e-08
3.85262e-07
-6.82247e-07
3.61822e-07
-1.14848e-06
1.9623e-07
-1.05153e-06
5.16027e-08
-1.82349e-07
-6.22538e-08
-5.80149e-08
-8.8343e-08
-9.23612e-08
1.28451e-07
1.15957e-08
-1.33832e-07
1.34871e-07
3.93315e-09
1.05563e-07
6.106e-08
6.46787e-08
1.07189e-07
2.38172e-07
-8.99362e-07
2.73384e-07
-1.17967e-06
1.21136e-07
-7.70956e-07
4.3893e-08
-3.90373e-08
-6.57116e-08
2.61e-08
-5.34549e-08
-1.04218e-07
-3.89725e-09
-2.68957e-08
3.54836e-08
3.07832e-08
-2.95367e-08
3.50957e-08
3.77574e-08
9.40276e-08
2.26173e-08
1.63721e-07
-9.86583e-07
2.07314e-07
-1.20562e-06
3.39258e-08
-4.87495e-07
1.80707e-08
-8.56882e-09
-2.91764e-08
3.46089e-08
4.35979e-09
-1.03385e-07
-3.65255e-08
-7.09648e-08
7.41188e-08
-3.2201e-09
-6.89401e-08
2.0027e-08
8.31551e-09
7.19673e-08
-1.98125e-08
1.96181e-07
-1.08837e-06
2.26009e-07
-1.20709e-06
5.35522e-09
-1.44754e-07
0
-1.99294e-09
9.58758e-09
1.79356e-09
1.19326e-09
3.43786e-10
-4.79304e-08
-1.18852e-07
6.09527e-08
-4.77288e-08
-1.03168e-07
-2.4049e-08
-2.03512e-08
1.61069e-08
-4.47859e-08
8.08087e-08
-1.13789e-06
5.74634e-08
-1.16069e-06
0
-2.50116e-08
-1.93361e-09
-3.51422e-10
-2.08179e-10
0
0
7.43046e-10
-6.57257e-08
-1.21505e-07
8.02696e-08
-3.9405e-08
-1.11988e-07
-2.77045e-08
-1.67539e-08
-2.73391e-09
-2.70996e-08
4.9822e-09
-9.94385e-07
9.94489e-09
-9.74612e-07
-3.00073e-10
-9.48508e-11
-2.18434e-10
-1.82026e-10
-1.01729e-09
1.70435e-10
-6.06397e-11
-2.11338e-09
-7.79184e-08
-6.75297e-10
7.22332e-08
-4.33537e-08
-6.67452e-09
-3.78593e-09
0
-1.86894e-08
-1.32248e-09
-3.00183e-08
-8.54701e-07
-1.37151e-10
-8.71154e-07
-1.84274e-10
-7.2981e-11
-6.93534e-15
-3.74214e-10
1.22177e-10
2.51154e-11
-2.36367e-11
2.43213e-10
-9.75664e-10
-1.4307e-11
3.35088e-10
-7.45421e-09
-1.7431e-10
0
-8.16813e-10
1.04938e-08
-6.55931e-10
4.59866e-09
-7.82422e-07
-1.04084e-11
-8.00758e-07
-3.92138e-11
-7.42113e-11
4.5186e-12
-2.46125e-10
7.00732e-12
-1.85329e-12
-9.01437e-12
2.92968e-11
-2.69978e-10
2.22653e-11
2.43664e-10
-2.77868e-10
-1.46006e-10
-2.9485e-11
-1.04353e-09
1.73113e-10
-7.80343e-10
5.96866e-09
-7.53921e-07
-7.40563e-11
-7.75296e-07
-1.17157e-11
-1.48618e-10
-1.99586e-12
-1.72129e-11
-4.64172e-13
-3.66592e-12
-2.24552e-12
-1.15993e-12
7.10929e-13
-9.26311e-11
1.20096e-10
-9.00508e-11
0
0
-3.74025e-09
2.67466e-10
-9.00095e-10
5.33034e-09
-8.45432e-07
-4.11034e-10
-8.88496e-07
-1.22704e-12
-5.58721e-10
-1.29525e-12
-1.74123e-11
-2.14045e-12
-3.02196e-12
8.66534e-13
-5.35428e-12
4.2665e-09
-3.06128e-09
-2.25282e-09
3.85545e-09
-1.48999e-09
0
-4.31569e-09
7.39134e-10
-1.45396e-09
4.05538e-10
-1.0004e-06
-1.32646e-09
-1.03719e-06
-1.59938e-12
-1.88403e-09
-1.17544e-12
-2.06793e-11
-9.82903e-13
-3.49136e-12
1.38585e-12
-1.59074e-12
7.34369e-09
-5.20307e-09
-3.98983e-09
1.02896e-08
-3.07058e-09
1.68861e-09
2.2626e-09
3.54389e-09
-3.19108e-09
2.88459e-09
-1.08305e-06
-3.29586e-09
-1.09334e-06
0
-5.18985e-09
-7.50535e-13
-2.7867e-11
2.26022e-13
-3.85521e-12
1.24357e-12
2.65738e-13
-3.07502e-09
-1.70688e-10
-8.87743e-10
-2.37349e-09
2.08366e-10
-8.1297e-10
3.28855e-10
1.50848e-09
-2.12363e-08
-3.19626e-09
-1.09553e-06
-8.55453e-10
-1.09694e-06
4.90556e-12
-2.6033e-08
-4.86485e-12
-2.29269e-11
-2.74046e-13
-7.36368e-12
8.99447e-12
-8.11347e-12
-1.82598e-09
1.28026e-10
1.22475e-09
-1.86954e-09
0
-1.59415e-09
-3.42879e-10
-2.91917e-08
-5.62209e-08
-2.60012e-08
-1.09627e-06
-1.34454e-08
-1.0934e-06
-5.76756e-11
-6.34529e-08
-2.42822e-11
-1.83142e-11
-6.91125e-11
7.31746e-12
8.98417e-11
-1.77523e-10
-1.36036e-09
4.66783e-10
1.50628e-09
0
2.45427e-11
0
-6.37944e-10
-1.32501e-08
-7.57385e-08
-2.12696e-08
-1.09584e-06
-8.42443e-09
-1.09433e-06
-9.00148e-11
-7.57343e-08
-3.58425e-11
-1.30005e-11
-2.11288e-10
7.3094e-11
1.61549e-10
-2.81272e-10
-1.36272e-12
3.42374e-11
9.04365e-11
1.12201e-10
-5.83139e-11
0
-3.2301e-10
-6.72952e-09
-7.66887e-08
-9.0728e-09
-1.09025e-06
-1.11814e-09
-1.09193e-06
-2.78298e-11
-7.78831e-08
-9.26582e-12
-1.15428e-11
-1.8711e-10
6.87615e-11
2.62599e-10
-2.86568e-10
2.83277e-11
1.39248e-11
5.00665e-11
0
1.21457e-11
5.71072e-10
-5.8462e-12
5.20621e-10
-6.32587e-08
-7.26329e-10
-1.08702e-06
-3.78653e-10
-1.08448e-06
-1.60815e-11
-6.80527e-08
0
-4.58976e-11
9.73573e-12
1.96619e-11
4.5547e-11
-1.27442e-10
-1.21711e-12
2.6448e-12
-5.40654e-12
0
4.61346e-12
8.68083e-12
-1.47976e-11
1.12749e-08
-3.12603e-08
2.0388e-08
-1.07864e-06
1.49557e-08
-1.08232e-06
3.46487e-11
-3.07961e-08
5.67756e-12
-1.70206e-11
8.01533e-12
1.65839e-11
3.4069e-11
7.93365e-12
1.22467e-11
2.66287e-11
-3.74581e-11
4.83143e-12
1.0793e-11
4.82745e-12
-1.49057e-11
1.92126e-09
-8.25548e-09
8.75759e-10
-1.05086e-06
-3.03111e-09
-1.05854e-06
-1.23579e-12
-5.1185e-09
1.96368e-12
-2.03294e-11
4.90784e-12
1.36087e-11
3.05577e-11
8.13356e-12
1.6917e-11
1.31348e-10
-3.29485e-10
1.23468e-11
1.32164e-11
2.03559e-11
-2.41505e-11
2.99909e-09
-6.78904e-10
-1.91831e-09
-9.57797e-07
-3.9347e-09
-9.59986e-07
-2.35095e-12
-6.51751e-11
-8.80001e-13
-2.18314e-11
5.4627e-13
1.21641e-11
1.72141e-10
8.96978e-11
-2.53576e-12
6.01422e-11
5.67601e-11
1.57278e-12
6.96108e-12
2.19463e-11
-4.66707e-11
3.6991e-09
-7.89589e-10
-9.38737e-10
-8.50355e-07
-6.62582e-12
-8.54397e-07
-3.71321e-12
-6.84668e-11
-7.3346e-13
-2.48296e-11
3.21175e-12
8.18583e-12
1.28322e-10
9.91943e-11
-4.73555e-11
1.0469e-10
3.77562e-10
-5.88271e-11
8.92945e-12
4.59309e-11
-9.66163e-10
1.51315e-09
-8.06548e-10
1.41183e-09
-7.88932e-07
-2.78567e-11
-7.92225e-07
-5.48749e-12
-9.13532e-11
4.45746e-13
-3.11419e-11
2.13863e-11
-1.27761e-11
1.50054e-11
1.24375e-10
0
2.23258e-11
1.3824e-10
-1.85087e-10
-7.452e-11
8.37201e-11
-1.10605e-09
1.2864e-10
-8.96566e-10
8.01538e-10
-7.57259e-07
-1.17041e-10
-7.60013e-07
-5.76046e-12
-2.02973e-10
7.22047e-12
-1.23159e-10
8.91995e-11
-3.36988e-10
2.58438e-11
5.21686e-11
0
8.40001e-13
2.08417e-12
-1.54104e-11
-7.14994e-10
1.25758e-11
-1.00608e-09
4.02969e-10
-1.33641e-09
2.20644e-09
-7.62933e-07
-4.92969e-10
-7.67691e-07
-1.04671e-11
-7.01354e-10
-1.44074e-11
-2.73257e-10
9.01918e-11
-4.26231e-10
2.47486e-11
1.56048e-11
-1.62383e-10
-9.04759e-13
4.96453e-12
-3.8577e-12
-6.72596e-10
2.47867e-11
-5.70506e-10
1.63014e-09
-3.04194e-09
9.32331e-10
-8.55676e-07
-1.77861e-09
-8.64601e-07
-1.6593e-11
-2.56768e-09
-4.51653e-11
-3.14888e-10
-4.16792e-11
-4.14804e-10
-4.593e-12
-3.86621e-12
5.19526e-12
-2.67093e-12
-2.77402e-12
2.46372e-10
-5.94344e-10
4.22066e-11
-5.96144e-10
4.27372e-09
-7.63362e-09
2.53017e-09
-9.54004e-07
-3.98727e-09
-9.59272e-07
-4.91767e-11
-6.66327e-09
-1.60634e-10
-1.72688e-10
-1.19172e-10
-4.40714e-10
-1.69329e-11
-2.81093e-12
3.6103e-11
-3.72122e-11
-1.56139e-12
2.63755e-10
-5.24246e-10
1.98244e-11
-4.69152e-10
4.08182e-09
-3.19806e-08
4.34445e-10
-1.00543e-06
-3.99181e-09
-1.00626e-06
-9.55438e-11
-3.36546e-08
-1.12365e-10
-2.01072e-12
-1.00744e-10
-4.36097e-10
-1.50538e-11
-3.68084e-12
5.32683e-11
-1.73873e-10
-1.0369e-12
1.01936e-10
-4.73287e-10
3.55053e-10
-3.25535e-11
3.33583e-09
-7.58137e-08
-7.34942e-10
-1.01779e-06
-3.78225e-09
-1.02014e-06
-9.60444e-14
-7.56218e-08
0
-4.49027e-12
-2.14473e-11
-1.58121e-10
-3.0979e-12
-7.69701e-13
7.18533e-11
-3.57754e-10
-3.18482e-11
0
-3.00371e-10
5.30543e-11
-3.06781e-11
3.24581e-09
-9.95031e-08
3.34804e-09
-1.01498e-06
-8.99236e-10
-1.01532e-06
-2.26767e-11
-1.02549e-07
0
-2.94393e-11
2.05669e-12
-5.95395e-11
-5.8099e-13
-4.60243e-13
4.62666e-10
-2.88977e-10
-3.40638e-10
2.21617e-10
2.24011e-12
2.1745e-10
-2.48967e-11
9.0871e-09
-1.04e-07
1.16696e-08
-1.00873e-06
1.10317e-08
-1.01041e-06
2.96807e-11
-1.03222e-07
0
-3.14508e-12
7.17842e-12
-4.75078e-11
-1.04606e-11
2.42865e-12
-2.51205e-10
-1.37313e-10
2.73045e-10
0
-1.11308e-11
-1.95563e-11
-9.43122e-12
-8.786e-09
-9.65106e-08
-1.04203e-08
-1.00057e-06
-8.45497e-09
-1.00566e-06
-7.65541e-12
-9.37876e-08
-8.65768e-12
-2.43837e-12
-9.04357e-12
-1.68427e-12
-1.87856e-12
7.13622e-12
-4.39008e-10
-2.42719e-10
4.72401e-10
0
-5.36163e-10
1.49915e-12
-1.58887e-11
6.52967e-09
-6.279e-08
6.56273e-09
-9.88442e-07
7.39344e-10
-9.89391e-07
-2.56303e-14
-6.26717e-08
1.18125e-13
-2.86928e-12
5.6652e-13
-2.41986e-12
-3.57038e-12
1.86307e-12
3.01476e-10
-3.31745e-10
-1.12528e-10
1.50659e-10
-4.10081e-10
1.48169e-10
-1.29855e-11
5.95841e-09
-3.45049e-08
2.35821e-09
-9.35014e-07
-3.84852e-09
-9.38196e-07
-2.05732e-12
-3.47831e-08
-5.49993e-13
-4.66381e-12
5.67786e-13
-3.84347e-12
-1.45761e-11
6.60851e-12
4.76478e-10
-3.93657e-10
-3.14355e-10
1.97943e-10
2.25156e-11
1.88343e-10
-1.92231e-12
6.27531e-09
-1.91234e-08
9.56465e-10
-8.84122e-07
-5.08349e-09
-8.8806e-07
-1.65479e-11
-1.89611e-08
-1.51801e-11
-6.35933e-12
-1.52811e-12
-7.51807e-11
-2.05715e-12
-2.32441e-12
-1.16919e-10
-1.21947e-10
5.89412e-11
0
-1.62262e-13
1.60871e-12
-2.17919e-12
6.82269e-09
-1.53534e-08
2.54711e-10
-8.53116e-07
-6.82255e-09
-8.54507e-07
-3.51372e-11
-1.47757e-08
-3.75211e-11
-4.91975e-12
-8.7602e-12
-8.85125e-11
-2.02784e-11
-1.65086e-12
-6.90582e-11
-5.09107e-11
1.1719e-11
0
-9.17707e-11
1.76003e-12
-2.94929e-12
5.60073e-09
-1.65347e-08
-5.55541e-09
-8.30081e-07
-9.67986e-09
-8.3083e-07
-4.14289e-11
-1.58716e-08
-4.28586e-11
-2.36315e-12
-1.86749e-11
-9.68081e-11
-6.72001e-11
-1.83761e-11
-2.06333e-12
-1.33669e-12
3.71749e-13
1.26941e-11
-9.38359e-11
1.21734e-11
-2.10192e-12
7.34946e-09
-3.46712e-08
-1.6701e-09
-8.51022e-07
-8.73383e-09
-8.53324e-07
-2.20621e-11
-3.45152e-08
-2.386e-11
-5.2779e-13
-2.24791e-11
-7.05393e-11
-9.46157e-11
6.52801e-12
7.20004e-13
-4.72782e-13
-1.71155e-12
0
-3.54989e-11
1.33828e-13
-2.23815e-12
8.4633e-09
-8.19075e-08
-5.26117e-10
-9.01605e-07
-9.0695e-09
-9.03953e-07
-4.82942e-14
-8.25874e-08
0
-5.69244e-13
8.24847e-12
-2.10959e-11
-1.14922e-10
3.02183e-11
6.54197e-13
4.0453e-14
-1.29987e-12
0
-4.66899e-12
1.57451e-13
-2.39021e-12
8.13499e-09
-1.39753e-07
7.6603e-11
-9.31514e-07
-7.67958e-09
-9.34017e-07
-5.17359e-14
-1.40757e-07
0
-6.21326e-13
7.85125e-12
-7.27218e-12
-9.88164e-13
2.00736e-11
5.05252e-13
5.72073e-12
-3.01129e-13
7.85629e-15
-4.34319e-13
1.35251e-13
-2.52169e-12
7.19634e-09
-1.78492e-07
8.81194e-10
-9.36079e-07
-5.45773e-09
-9.38221e-07
-4.24095e-14
-1.79629e-07
0
-6.63284e-13
3.93163e-13
-4.16021e-13
-8.32703e-13
-2.03585e-14
-6.00208e-13
1.00391e-11
1.49883e-13
-4.85809e-15
-1.02099e-12
1.87766e-13
-2.71332e-12
3.04632e-09
-1.87047e-07
-3.94961e-10
-9.3186e-07
-3.4836e-09
-9.31458e-07
-2.63162e-14
-1.87827e-07
-1.89891e-14
-6.70951e-13
-7.89841e-14
-3.56397e-13
-1.02214e-12
-5.36596e-13
2.48404e-12
2.69952e-11
-5.17228e-12
4.34065e-13
-2.28281e-12
5.71432e-13
-2.84201e-12
-2.15848e-09
-1.82284e-07
-8.99875e-09
-9.21883e-07
-1.02371e-08
-9.23747e-07
-5.71104e-14
-1.82512e-07
-6.72088e-14
-6.61223e-13
-2.22268e-13
-2.02154e-13
-3.5949e-13
-3.64625e-12
5.46511e-12
3.04261e-11
-2.29529e-11
2.14292e-12
-2.93886e-12
2.28982e-12
-2.52025e-12
3.7872e-09
-1.53303e-07
-4.72186e-09
-9.07432e-07
-8.42843e-09
-9.07573e-07
-1.06585e-13
-1.52644e-07
-1.1583e-13
-6.54647e-13
-2.39497e-14
-2.91868e-13
-2.41294e-13
-4.73108e-13
8.34496e-13
1.6382e-11
-1.33161e-11
2.45714e-12
-4.00741e-12
2.43213e-12
-2.22534e-12
6.59962e-09
-1.28319e-07
-4.32134e-09
-8.81983e-07
-1.16926e-08
-8.82619e-07
-8.17598e-13
-1.28882e-07
-8.36597e-13
-5.90259e-13
-3.72061e-13
-1.38045e-12
-3.18327e-13
-3.44978e-13
0
4.1162e-12
-5.49773e-12
2.16448e-12
-4.90983e-12
1.83592e-12
-2.00164e-12
4.90801e-09
-1.20431e-07
-9.66981e-09
-8.6078e-07
-1.6502e-08
-8.5779e-07
-1.27824e-12
-1.18731e-07
-1.27697e-12
-4.94477e-13
-3.30625e-13
-1.24543e-12
-3.96146e-13
-1.41911e-13
0
4.07485e-12
-3.51359e-12
2.86713e-12
-6.18916e-12
2.66517e-12
-1.85294e-12
6.55465e-09
-1.19677e-07
-1.00332e-08
-8.40525e-07
-1.81729e-08
-8.34872e-07
-8.07555e-13
-1.1705e-07
-8.13748e-13
-4.24026e-13
0
-9.91899e-13
-3.97833e-13
0
2.22483e-12
3.81102e-12
-2.02416e-12
4.4412e-12
-9.97757e-12
4.28736e-12
-1.58357e-12
1.60202e-08
-1.34386e-07
4.47233e-09
-8.28302e-07
-8.46048e-09
-8.29026e-07
-4.91458e-13
-1.34112e-07
-5.1994e-13
-3.76343e-13
0
-1.03266e-12
7.8974e-13
-6.83246e-12
7.89932e-12
8.06021e-13
-9.38715e-13
4.10111e-12
-8.34712e-12
3.85368e-12
-1.22285e-12
1.44756e-08
-1.56806e-07
2.00325e-09
-8.20178e-07
-1.14509e-08
-8.21691e-07
-8.87298e-13
-1.57609e-07
-9.1183e-13
-3.4021e-13
0
-1.28836e-12
1.79612e-13
0
8.52759e-12
-5.83093e-14
-3.7526e-12
2.09297e-12
-2.75058e-12
1.97248e-12
-9.96223e-13
1.12144e-08
-1.67826e-07
-7.73226e-10
-8.08668e-07
-1.28821e-08
-8.08999e-07
-9.15549e-13
-1.68452e-07
-9.65653e-13
-2.77682e-13
-1.78753e-13
-1.38917e-12
3.07775e-14
-3.80683e-14
1.78273e-13
9.24736e-15
-3.11742e-13
1.14478e-12
-4.07896e-12
1.19628e-12
-9.44208e-13
1.32784e-08
-1.70983e-07
1.13347e-09
-7.93046e-07
-1.20925e-08
-7.92896e-07
-5.95627e-13
-1.71529e-07
-6.03697e-13
-2.59041e-13
-1.62226e-14
-1.2151e-12
1.99344e-14
-2.04777e-14
2.27653e-13
4.05671e-14
-3.2518e-13
1.8119e-12
-3.21407e-12
1.80579e-12
-8.57863e-13
1.37805e-08
-1.75201e-07
-4.03988e-10
-7.76056e-07
-1.49962e-08
-7.75118e-07
-1.29056e-12
-1.75791e-07
-1.34858e-12
-1.93779e-13
-7.97775e-13
-1.43441e-12
3.90518e-13
-3.58304e-14
0
-1.64936e-12
2.51502e-13
1.83939e-12
-3.64202e-12
1.76416e-12
-7.26691e-13
1.73571e-08
-1.96853e-07
-4.40671e-10
-7.59061e-07
-1.69547e-08
-7.59723e-07
-1.18901e-12
-1.9721e-07
-1.26788e-12
-1.13383e-13
-1.12786e-12
-1.24978e-12
4.7133e-13
-1.15704e-13
1.86366e-12
-3.63861e-12
2.78386e-12
8.42718e-13
-1.32978e-12
8.05934e-13
-6.44117e-13
1.94775e-08
-2.41848e-07
-4.80839e-10
-7.43645e-07
-1.94333e-08
-7.45415e-07
-3.89645e-13
-2.42245e-07
-4.34496e-13
-6.96635e-14
-1.18459e-12
-2.8459e-13
4.42389e-13
-6.27627e-14
8.61591e-13
-1.09769e-12
-4.64738e-13
2.23012e-13
-3.42626e-13
2.43443e-13
-6.18407e-13
2.00261e-08
-2.88342e-07
5.94128e-10
-7.27752e-07
-2.08491e-08
-7.27382e-07
-6.28196e-14
-2.89005e-07
-6.9843e-14
-6.34594e-14
-3.76703e-13
-1.05381e-14
0
-4.64966e-14
1.79193e-14
-1.13601e-12
-8.14246e-15
1.55422e-13
-4.13374e-13
1.94183e-13
-6.06233e-13
1.89639e-08
-3.1609e-07
9.62169e-10
-7.10571e-07
-1.91352e-08
-7.08119e-07
-2.56524e-14
-3.1626e-07
-7.63744e-15
-8.21791e-14
-1.09865e-14
-7.81661e-15
4.04449e-15
-1.56912e-14
1.82474e-13
-1.03549e-12
-4.01861e-13
2.03764e-13
-5.2798e-13
2.20759e-13
-5.68807e-13
1.88037e-08
-3.25835e-07
-1.77552e-09
-6.89666e-07
-1.93813e-08
-6.90195e-07
-2.05659e-13
-3.25288e-07
-1.98175e-14
-2.68763e-13
-7.33096e-15
-2.0976e-14
4.77607e-15
-8.85697e-15
5.19468e-13
-9.18129e-13
-4.47785e-13
2.25148e-13
-1.41356e-13
1.52757e-12
-1.80821e-12
2.1695e-08
-3.28513e-07
-1.91833e-09
-6.65752e-07
-2.16898e-08
-6.70164e-07
-2.0039e-12
-3.27348e-07
-6.06421e-13
-1.66759e-12
-7.0028e-15
-7.22584e-13
5.11269e-15
-8.15152e-15
1.84425e-13
-5.03911e-13
-4.27296e-13
1.76157e-13
-6.51544e-14
1.51827e-11
-1.67462e-11
2.6211e-08
-3.39725e-07
1.13886e-09
-6.40166e-07
-2.82092e-08
-6.41092e-07
-1.42094e-11
-3.4076e-07
-1.5424e-12
-1.43392e-11
-1.49665e-12
-9.24642e-13
1.69281e-12
-7.94403e-13
9.26816e-14
-2.79315e-13
-2.6559e-13
1.50044e-13
-5.84556e-14
1.61935e-10
-1.78466e-10
3.5787e-08
-3.76568e-07
6.17632e-09
-6.10409e-07
-2.66258e-08
-6.08658e-07
-1.30493e-10
-3.76318e-07
-2.27611e-12
-1.42574e-10
-3.03127e-12
-1.6939e-13
1.93832e-12
-1.5755e-12
8.4128e-14
-2.33803e-13
-3.63003e-14
1.42745e-13
-5.38553e-14
1.65834e-09
-1.8366e-09
3.2099e-08
-4.1818e-07
-3.31271e-09
-5.74779e-07
-2.98483e-08
-5.82048e-07
-1.3235e-09
-4.16737e-07
-2.14069e-12
-1.46397e-09
-2.14378e-12
-2.00783e-13
8.14172e-13
-9.538e-13
9.43076e-14
-1.56602e-13
-7.04729e-14
1.46372e-13
-5.02887e-14
9.67143e-09
-1.15078e-08
1.6689e-08
-4.28193e-07
-9.41494e-09
-5.48147e-07
-3.48599e-08
-5.56615e-07
-9.50023e-09
-4.43195e-07
-7.04898e-13
-1.09635e-08
-7.60464e-13
-1.95213e-13
1.00048e-12
-1.55194e-12
2.45412e-13
-6.00558e-14
-2.36994e-13
5.47383e-13
-2.96406e-13
2.5272e-08
-3.82314e-08
4.3465e-08
-4.42731e-07
2.47551e-08
-5.29513e-07
-1.2183e-08
-5.19402e-07
-1.40668e-08
-4.3772e-07
-2.94725e-12
-2.44985e-08
-3.02448e-12
-1.74769e-13
1.07681e-12
-3.67829e-12
8.19139e-14
-1.21485e-15
-8.61064e-14
7.45601e-12
-7.64233e-12
4.97309e-08
-9.09352e-08
7.0963e-08
-4.67981e-07
2.62107e-08
-4.84744e-07
-3.00312e-09
-4.89954e-07
-2.05182e-08
-4.17766e-07
-2.48177e-12
-4.41096e-08
-1.93714e-12
-7.46718e-13
1.63312e-13
-2.6013e-12
3.5687e-15
-5.58776e-15
-8.36927e-16
1.61352e-10
-1.68992e-10
4.06622e-08
-1.30513e-07
1.07604e-08
-4.37267e-07
-2.28572e-08
-4.51118e-07
-5.94188e-08
-4.53385e-07
-5.22133e-08
-4.33018e-07
-2.21304e-11
-1.02587e-07
-2.68137e-13
-2.25997e-11
9.0545e-15
-1.04637e-13
1.03837e-12
-1.03787e-12
-5.75524e-15
3.08597e-09
-3.25391e-09
9.05933e-08
-2.23511e-07
6.00056e-08
-4.0644e-07
2.01853e-08
-4.11303e-07
-2.43276e-08
-4.08862e-07
-6.33673e-08
-3.93395e-07
-6.15652e-10
-1.55562e-07
-2.87854e-14
-6.38214e-10
3.57275e-15
-1.48607e-14
4.90648e-11
-5.00972e-11
-5.16978e-15
2.46104e-08
-2.78152e-08
7.46697e-08
-2.86311e-07
2.59872e-08
-3.5776e-07
-2.17306e-08
-3.63585e-07
-6.82989e-08
-3.62299e-07
-1.0442e-07
-3.5706e-07
-1.11403e-08
-2.32565e-07
-1.22637e-12
-1.17773e-08
-1.20378e-12
-1.41791e-14
2.23546e-09
-2.28555e-09
-7.98668e-15
7.97985e-08
-1.06772e-07
8.5094e-08
-2.91515e-07
3.6835e-08
-3.09502e-07
-1.22418e-08
-3.14508e-07
-5.95945e-08
-3.14946e-07
-1.0609e-07
-3.10566e-07
-5.16902e-08
-2.87554e-07
-5.75412e-10
-6.21954e-08
-5.76579e-10
-3.73058e-14
3.67384e-08
-3.90239e-08
-3.56928e-19
1.31965e-07
-2.00582e-07
9.22873e-08
-2.51836e-07
4.05988e-08
-2.57813e-07
-1.23883e-08
-2.61521e-07
-6.27757e-08
-2.64559e-07
-1.09153e-07
-2.64189e-07
-1.45384e-07
-2.51643e-07
-2.70783e-08
-1.80587e-07
-2.76549e-08
-1.31601e-14
9.5465e-08
-2.80548e-22
9.06918e-08
5.92342e-08
3.26843e-08
5.8199e-09