/*--------------------------------*- C++ -*----------------------------------*\
  =========                 |
  \\      /  F ield         | OpenFOAM: The Open Source CFD Toolbox
   \\    /   O peration     | Website:  https://openfoam.org
    \\  /    A nd           | Version:  8
     \\/     M anipulation  |
\*---------------------------------------------------------------------------*/
FoamFile
{
    version     2.0;
    format      ascii;
    class       volScalarField;
    location    "9.25";
    object      p;
}
// * * * * * * * * * * * * * * * * * * * * * * * * * * * * * * * * * * * * * //

dimensions      [1 -1 -2 0 0 0 0];

internalField   nonuniform List<scalar> 
9150
(
-209.767
-210.77
-211.407
-211.867
-212.103
-212.094
-211.845
-211.37
-210.739
-209.745
-229.825
-230.334
-230.759
-231.085
-231.255
-231.228
-231.052
-230.737
-230.313
-229.805
-249.715
-249.993
-250.245
-250.454
-250.567
-250.57
-250.457
-250.232
-249.978
-249.7
-269.451
-269.623
-269.79
-269.945
-270.03
-270.026
-269.94
-269.782
-269.613
-269.441
-289.072
-289.248
-289.382
-289.507
-289.571
-289.569
-289.51
-289.382
-289.241
-289.063
-124.441
-125.149
-124.668
-124.142
-123.785
-123.606
-123.665
-123.95
-124.169
-123.432
-139.528
-140.245
-140.351
-140.318
-140.128
-140.065
-140.062
-139.915
-139.748
-139.035
-155.841
-156.582
-156.902
-157.214
-157.256
-157.188
-157.09
-156.709
-156.378
-155.624
-172.613
-173.769
-174.251
-174.86
-175.016
-174.988
-174.796
-174.155
-173.682
-172.54
-189.671
-191.691
-192.476
-193.139
-193.395
-193.405
-193.126
-192.428
-191.658
-189.652
-47.0125
-44.4697
-42.2156
-39.7576
-37.3193
-34.7339
-32.5089
-30.5702
-27.587
-24.4041
-59.1149
-58.33
-57.2919
-55.8243
-54.2804
-52.4173
-50.4227
-48.4678
-46.2876
-45.4962
-75.8547
-75.0437
-74.6522
-73.2308
-72.1858
-71.0296
-69.8929
-69.1143
-67.4201
-67.0357
-96.3337
-93.1193
-93.2054
-91.3964
-90.458
-89.641
-89.2801
-89.7365
-88.8478
-90.9438
-120.638
-110.673
-109.702
-108.108
-107.253
-106.958
-107.148
-107.82
-108.347
-117.035
1781.56
1781.59
1781.63
1781.71
1781.84
1781.9
1781.89
1781.88
1781.87
1781.88
1761.8
1761.71
1761.72
1761.77
1761.88
1762.04
1762.13
1762.19
1762.36
1762.33
1742.08
1741.97
1741.93
1741.93
1742.03
1742.24
1742.36
1742.54
1742.69
1742.76
1722.92
1722.77
1722.78
1722.85
1722.87
1722.78
1722.99
1723.03
1723.04
1723.02
1703.76
1703.73
1704.04
1704.05
1703.77
1703.73
1703.65
1703.54
1703.31
1703
1684.6
1684.73
1684.78
1684.83
1684.74
1684.57
1684.7
1684.24
1683.82
1683.45
1665.58
1665.78
1665.98
1666.01
1665.93
1666.05
1665.57
1665.28
1664.57
1664.63
1646.47
1646.69
1646.79
1647.03
1646.91
1646.89
1646.81
1646.25
1645.77
1644.9
1627.39
1627.85
1628.28
1628.1
1628.22
1627.78
1627.61
1627.33
1626.39
1626.02
1608.72
1608.5
1608.47
1608.5
1608.36
1608.11
1608.51
1607.98
1607.83
1607.07
1588.05
1588.55
1588.77
1588.87
1588.82
1588.98
1589.04
1588.89
1588.63
1588.46
1569.08
1569.22
1569.44
1569.54
1569.56
1569.68
1569.71
1569.19
1569.5
1569.09
1550.17
1550.28
1550.38
1550.38
1550.35
1550.31
1550.38
1550.24
1549.86
1550.12
1531.21
1531.15
1531.15
1531.16
1531.09
1530.99
1530.86
1530.94
1530.68
1530.27
1511.85
1511.78
1511.74
1511.7
1511.67
1511.57
1511.34
1511.25
1511.23
1510.66
1492.39
1492.32
1492.26
1492.21
1492.12
1492
1491.85
1491.65
1491.43
1491.2
1472.87
1472.81
1472.75
1472.66
1472.52
1472.34
1472.14
1471.92
1471.72
1471.62
1453.28
1453.21
1453.13
1452.99
1452.78
1452.51
1452.21
1451.93
1451.8
1451.82
1433.65
1433.87
1433.86
1433.47
1433.05
1432.58
1432.09
1431.57
1431.48
1431.79
1415.85
1415.29
1414.47
1413.82
1413.05
1412.09
1411.16
1410.43
1410.8
1411.69
1394.28
1394.23
1393.73
1393.29
1392.78
1391.82
1390.68
1390.37
1392.14
1391.89
1372.69
1372.77
1372.59
1372.74
1372.53
1372.57
1371.79
1371.68
1373.63
1374.45
1353.59
1353.38
1352.72
1353.6
1353.05
1353.84
1354
1353.93
1355.08
1355.86
1333.56
1332.59
1331.73
1332.31
1332.69
1333.23
1333.5
1334.75
1335.82
1337.06
1312.57
1312.22
1312.19
1312.92
1313.08
1313.47
1314.2
1315.01
1315.9
1317.11
1291.8
1291.2
1290.94
1290.96
1291.16
1291.67
1292.45
1293.7
1295.02
1296.74
1269.99
1268.31
1267.39
1267.37
1267.91
1268.81
1269.98
1271.47
1273.2
1275.15
1251.12
1250.13
1248
1246.84
1246.46
1247.17
1248.28
1249.56
1251.14
1253.04
1232.88
1231.76
1230.41
1229.29
1228.46
1228.11
1228.96
1229.79
1230.78
1231.93
1215.29
1214.7
1213.86
1212.86
1211.97
1211.12
1211.58
1211.65
1211.96
1212.43
1197.31
1197.21
1197.07
1196.23
1195.47
1194.94
1194.57
1194.08
1193.7
1194.28
1179.33
1179.16
1179.02
1178.86
1178.28
1177.39
1177.15
1177.08
1176.92
1177.44
1161.06
1161.05
1161.02
1160.97
1160.74
1159.83
1161.91
1161.18
1160.54
1160.84
1142.82
1142.88
1142.94
1143.05
1143.22
1143.28
1144.67
1143.21
1143.21
1143.54
1124.61
1124.64
1124.68
1124.72
1124.8
1126.25
1126.22
1125.5
1125.69
1125.71
1106.5
1106.45
1106.35
1106.22
1108.14
1107.53
1107.28
1107.41
1107.2
1108.19
1088.48
1088.36
1088.3
1088.16
1089
1087.98
1088.5
1088.6
1088.61
1089.22
1070.7
1070.4
1070.33
1070.27
1069.75
1070.18
1069.85
1069.76
1069.94
1069.2
1052.49
1052.13
1051.94
1051.52
1051.77
1051.64
1050.68
1050.52
1049.62
1049.47
1033.79
1033.56
1033.15
1032.68
1032.6
1032.03
1031.35
1030.79
1030.25
1029.98
1015.19
1014.88
1014.49
1013.93
1013.68
1013.26
1012.59
1011.85
1011.28
1010.94
995.605
995.678
995.688
995.014
993.958
994.056
992.815
991.469
990.614
989.78
975.927
977.156
976.434
975.448
974.043
972.588
971.168
969.921
968.689
968.041
958.227
956.191
955.8
954.814
953.552
952.053
950.453
948.955
947.836
947.486
935.376
935.234
934.956
934.137
933.016
931.654
930.197
928.964
928.359
928.155
915.471
914.734
914.514
913.835
912.934
911.955
910.894
910.15
909.679
909.262
895.634
894.599
893.884
893.451
892.992
892.463
891.966
891.484
891.033
890.56
875.961
874.681
873.548
873.156
873.301
873.117
873.003
872.794
872.251
871.99
856.487
855.305
854.141
853.448
854.847
854.669
855.959
854.445
854.506
854.526
837.455
836.842
835.965
835.208
834.799
835.629
836.715
836.671
837.084
837.464
818.734
818.297
817.666
816.873
816.842
816.564
816.978
818.067
818.094
819.088
798.362
799.443
797.929
795.53
795.462
795.453
795.132
797.759
796.599
798.112
775.655
773.944
772.771
771.259
770.641
770.376
770.483
771.576
773.511
775.378
752.319
749.797
747.124
744.816
742.606
741.352
741.087
741.554
743.54
746.986
727.365
723.514
719.078
714.337
709.358
705.238
702.599
703.059
707.803
715.084
702.848
697.092
690.616
682.946
674.349
669.187
667.047
672.188
679.611
686.927
681.695
675.779
669.098
661.207
653.792
650.707
649.731
652.961
659.476
666.36
661.656
656.169
650.504
645.001
640.953
640.839
641.966
645.115
649.58
654.418
641.032
636.287
632.154
628.992
627.285
629.941
632.656
634.873
638.809
643.569
618.809
614.977
613.785
613.208
613.483
615.403
617.235
619.532
622.685
626.193
597.813
595.645
600.953
601.542
599.893
601.678
602.996
605.068
607.774
611.077
579.598
580.823
582.348
583.229
584.492
585.738
587.072
589.326
591.674
594.089
563.298
564.879
565.5
566.64
568.209
569.533
570.386
572.567
575.061
577.787
543.981
545.973
548.141
550.183
552.262
554.434
556.658
557.656
561.44
564.075
522.065
525.549
528.129
533.75
537.618
538.355
543.47
543.328
548.317
552.371
494.429
500.377
506.423
511.093
514.913
519.57
523.929
527.21
529.705
535.388
480.344
481.355
485.178
490.501
495.503
498.654
501.621
504.954
510.999
515.785
470.604
472.186
470.33
471.032
481.874
481.046
492.027
491.867
494.492
498.437
460.189
462.736
463.581
459.373
463.279
468.919
473.66
477.902
482.606
486.065
446.172
445.056
447.227
451.396
451.354
454.165
459.146
463.832
470.294
476.241
433.575
434.485
434.851
434.862
435.398
435.784
438.643
444.83
450.964
466.022
416.599
418.475
417.736
417.141
416.878
416.593
418.242
424.783
432.26
439.413
398.453
399.097
402.024
405.437
406.998
407.086
407.321
409.222
415.738
417.138
388.736
390.023
391.547
395.479
392.003
395.329
394.221
392.406
397.883
396.763
373.552
376.834
379.438
381.204
382.525
383.839
381.201
383.429
385.675
385.859
362.742
363.356
364.335
366.172
371.614
374.164
371.712
374.472
375.647
376.735
347.558
347.44
349.391
367.561
357.045
367.766
356.541
362.871
364.607
365.406
339.587
341.097
341.889
343.843
341.375
344.037
341.606
346.709
348.765
350.409
328.584
328.57
327.461
323.854
322.856
323.089
321.783
321.803
323.545
327.597
303.434
301.614
302.639
302.04
300.781
299.06
296.298
293.033
293.924
296.37
283.142
282.774
281.871
280.783
278.894
275.765
270.857
266.36
265.971
266.973
263.237
263.011
261.851
261.662
261.352
259.531
256.386
261.809
248.305
248.453
243.071
242.451
242.761
244.033
244.809
245.118
245.58
245.33
239.739
235.959
226.268
226.076
226.749
227.804
229.187
230.043
229.943
227.608
225.61
222.083
209.182
207.564
207.027
207.899
209.252
208.847
207.815
208.467
207.68
206.24
188.416
191.058
191.216
190.978
191.028
191.705
190.305
190.873
189.177
188.79
159.93
162.263
165.938
169.104
171.189
171.736
173.861
174.651
171.352
171.744
155.489
151.794
150.283
152.941
156.862
153.379
155.856
156.686
155.672
156.038
140.453
140.034
139.649
137.837
141.436
140.458
142.435
141.518
143.425
142.942
130.595
130.914
130.515
127.873
127.115
127.557
128.409
132.934
132.383
132.787
121.017
121.373
121.722
118.144
116.896
115.073
117.871
118.978
119.14
120.188
111.745
111.53
109.859
108.266
105.699
101.307
99.6445
97.2272
104.231
101.467
95.6699
98.9641
97.9189
94.8761
89.6435
84.4884
79.8618
80.4873
83.0527
75.214
82.1608
83.3669
80.1478
76.8391
71.8468
64.5269
57.9194
58.8417
57.7462
58.0438
71.6902
62.9637
60.5265
55.7277
50.5962
45.7769
41.4951
42.2618
35.1067
34.8317
47.4708
44.8065
40.0905
33.1682
26.174
19.9105
14.7898
17.5176
14.0412
10.6268
26.4558
22.8852
17.5998
9.33216
-1.91685
-8.29515
-6.72325
1.53802
1.79494
-3.43366
0.234758
-2.75064
-5.56989
-9.48834
-14.9184
-15.6414
-2.40733
-2.43688
-1.75723
-1.77431
-35.7387
-27.1013
-22.1474
-20.6946
-20.9359
-18.0589
-7.07226
-2.04168
-1.81913
-1.89301
-34.989
-32.165
-29.5139
-27.2271
-24.9358
-21.1001
-18.443
-16.4782
-6.46861
-2.19308
1781.9
1781.92
1781.98
1782.14
1782.12
1782.09
1782.29
1782.42
1782.59
1782.8
1783.03
1783.27
1783.51
1783.77
1783.99
1784.18
1784.34
1784.48
1784.6
1784.67
1784.74
1784.76
1784.73
1784.88
1784.81
1784.54
1784.38
1784.25
1784.18
1784.14
1784.11
1784.08
1784.06
1784.05
1784.08
1784.17
1784.23
1784.27
1784.28
1784.29
1762.33
1762.36
1762.42
1762.49
1762.44
1762.5
1762.57
1762.69
1762.88
1763.12
1763.37
1763.64
1763.9
1764.18
1764.43
1764.62
1764.78
1764.9
1765.04
1765.17
1765.25
1765.27
1765.43
1765.35
1765.17
1764.98
1764.75
1764.58
1764.5
1764.43
1764.42
1764.39
1764.36
1764.37
1764.41
1764.48
1764.58
1764.64
1764.66
1764.68
1742.74
1742.66
1742.67
1742.66
1742.68
1742.72
1742.81
1742.95
1743.15
1743.38
1743.68
1743.94
1744.26
1744.55
1744.77
1744.99
1745.16
1745.32
1745.45
1745.78
1745.8
1745.97
1745.99
1745.87
1745.64
1745.38
1745.13
1744.92
1744.79
1744.73
1744.65
1744.67
1744.67
1744.67
1744.67
1744.71
1744.83
1744.93
1744.99
1745.03
1722.9
1722.8
1722.78
1722.73
1722.71
1722.75
1722.88
1723.06
1723.34
1723.58
1723.89
1724.18
1724.54
1724.86
1725.11
1725.31
1725.47
1725.89
1725.71
1725.92
1726.04
1726.09
1726.04
1725.96
1725.8
1725.57
1725.28
1725
1724.87
1724.86
1724.9
1725
1725.04
1725.04
1725.23
1724.94
1724.87
1725.16
1725.34
1725.43
1702.68
1702.13
1701.95
1702.07
1702.18
1702.43
1702.62
1702.94
1703.22
1703.48
1703.77
1704.08
1704.48
1704.96
1705.15
1705.25
1705.51
1705.75
1705.61
1705.88
1705.92
1706.06
1706.02
1705.98
1705.77
1705.51
1705.3
1705.35
1705.72
1705.8
1705.9
1706
1706.04
1705.99
1705.91
1705.75
1705.61
1705.93
1705.94
1705.98
1683.28
1682.83
1682.18
1682.02
1682.02
1682.16
1682.3
1682.48
1682.69
1683.07
1683.55
1683.94
1684.22
1684.48
1684.62
1684.73
1684.9
1685.06
1685.01
1685.06
1685.11
1685.14
1685.06
1684.99
1684.97
1685.03
1685.16
1685.38
1686.29
1686.5
1686.3
1686.71
1686.57
1686.54
1686.61
1686.52
1686.48
1686.4
1686.44
1686.39
1663.72
1663.29
1662.78
1662.5
1662.33
1662.29
1662.3
1662.28
1662.42
1662.86
1663.29
1663.5
1663.73
1663.85
1663.93
1663.96
1664.01
1664.01
1663.92
1663.86
1663.82
1663.77
1663.76
1663.79
1663.87
1664.05
1664.34
1664.71
1665.13
1665.56
1666
1666.39
1666.63
1666.68
1666.73
1666.82
1667.21
1667.42
1667.51
1667.55
1644.58
1644.03
1643.44
1642.98
1642.47
1642.25
1642.21
1642.21
1643.56
1643.21
1643.16
1643.25
1643.33
1643.22
1643.23
1643.15
1642.95
1642.83
1642.7
1642.6
1642.5
1642.41
1642.48
1642.66
1642.89
1643.26
1643.63
1644.09
1644.66
1645.22
1645.73
1646.17
1646.5
1647.13
1647.69
1647.91
1648.1
1648.32
1648.34
1648.6
1625.28
1625.51
1624.11
1623.63
1622.99
1622.62
1622.71
1622.97
1623.37
1623.54
1623.37
1623.34
1623.33
1622.86
1622.7
1622.29
1621.97
1621.69
1621.5
1621.4
1621.41
1621.58
1621.73
1622.12
1622.6
1622.86
1623.19
1623.72
1624.25
1624.96
1625.49
1626.19
1626.68
1627.66
1628.48
1628.7
1628.85
1628.98
1628.94
1629.62
1607.2
1606.58
1605.89
1605.49
1604.36
1604.47
1604.33
1604.33
1604.32
1604.21
1603.78
1603.59
1603.32
1602.68
1602.26
1601.55
1601.09
1600.56
1600.18
1600.12
1600.2
1600.67
1601.04
1601.38
1601.76
1602.11
1602.6
1603.23
1603.89
1604.67
1605.42
1606.18
1606.95
1607.66
1608.25
1608.81
1609.05
1609
1609.2
1609.45
1588.18
1587.74
1587.17
1586.82
1586.03
1586.25
1586
1585.75
1585.45
1585.05
1584.43
1584.01
1583.46
1582.87
1582.36
1581.47
1580.68
1580
1579.49
1579.17
1579.43
1579.82
1580.19
1580.52
1580.95
1581.26
1581.87
1582.53
1583.33
1584.22
1585.15
1586.1
1586.95
1587.68
1588.4
1588.77
1589.05
1589.34
1589.53
1589.66
1569.44
1569.37
1568.12
1567.88
1567.73
1567.34
1567.44
1567.21
1566.75
1565.88
1565.22
1564.61
1563.92
1563.21
1562.48
1561.72
1560.93
1560.53
1560.12
1559.77
1559.9
1560.14
1560.71
1560.85
1560.64
1560.85
1560.92
1561.57
1562.43
1563.49
1564.66
1565.79
1566.82
1567.69
1568.39
1568.94
1569.28
1569.61
1569.84
1570.1
1549.56
1550.08
1549.14
1548.79
1548.61
1548.42
1548.08
1547.51
1547.05
1546.58
1545.9
1545.21
1544.5
1543.65
1542.73
1541.95
1541.21
1540.66
1540.34
1539.54
1539.46
1540.04
1540.28
1540.52
1540.4
1540.3
1539.92
1540.27
1541.17
1542.42
1543.97
1545.54
1546.89
1547.96
1548.78
1549.43
1549.96
1550.11
1550.34
1550.44
1530.08
1529.78
1529.6
1529.48
1529.36
1529.05
1528.57
1528.33
1528.1
1527.31
1526.29
1525.64
1525.16
1524.29
1523.04
1521.8
1520.79
1520.49
1520.96
1520.61
1520.04
1520.17
1520.95
1521.5
1521.75
1521.72
1521.55
1521.75
1522.08
1522.63
1523.92
1525.91
1527.63
1528.87
1529.73
1530.36
1530.87
1531.18
1531.14
1531.26
1510.49
1510.29
1510.14
1509.97
1509.75
1509.61
1509.38
1509.25
1509.18
1509.03
1508.55
1507.12
1506.45
1505.61
1504.94
1504.4
1502.41
1501.89
1502.78
1503.29
1502.93
1502.81
1503.72
1504.48
1504.34
1504.26
1504.34
1504.59
1504.91
1505.59
1506.17
1507.56
1509.24
1510.37
1511.06
1511.57
1511.92
1512.4
1512.25
1512.32
1490.95
1490.84
1490.8
1490.78
1491.12
1491.68
1491.55
1491.44
1491.55
1490.7
1490.99
1489.7
1490.18
1489.9
1489.1
1488.07
1486.58
1485.03
1486.13
1486.34
1487.25
1487.49
1487.16
1487.19
1487.51
1487.71
1487.9
1488.13
1488.5
1489.08
1489.27
1489.66
1491.01
1492.02
1492.49
1492.82
1493.08
1493.33
1493.37
1493.42
1471.46
1471.49
1471.57
1471.73
1472.94
1473.02
1472.74
1472.25
1472.06
1472.03
1471.98
1471.25
1471.05
1470.87
1471.1
1470.59
1471.65
1469.46
1468.88
1468.92
1469.14
1469.48
1470.19
1470.37
1470.51
1470.83
1471.09
1471.17
1471.39
1471.07
1471.09
1471.6
1472.33
1473.11
1473.52
1473.8
1474.02
1474.2
1474.45
1474.37
1451.81
1451.97
1452.09
1452.42
1454.95
1453.53
1453.16
1453.1
1452.93
1452.78
1452.66
1452.45
1452.21
1452.06
1451.9
1451.51
1450.96
1450.74
1450.99
1451.35
1451.57
1451.18
1453.53
1453.73
1453.77
1453.93
1454.6
1452.83
1453.02
1452.89
1452.72
1452.89
1453.23
1454.03
1454.1
1454.39
1454.68
1454.94
1455.13
1455.37
1432.18
1432.53
1432.78
1433.63
1433.27
1433.45
1433.53
1433.5
1433.44
1433.35
1433.22
1433.11
1433.03
1432.98
1432.91
1432.68
1432.5
1432.47
1432.26
1433.13
1432.92
1433.07
1433.26
1433.38
1434.04
1434.41
1434.23
1433.96
1433.66
1433.34
1433.27
1433.39
1433.84
1434.27
1434.42
1434.72
1435.09
1435.42
1435.67
1435.94
1412.56
1413.23
1413.72
1414.06
1414.18
1414.13
1414.14
1414.11
1414.04
1413.84
1413.64
1413.4
1413.34
1413.29
1413.23
1413.15
1413.06
1412.8
1412.87
1412.96
1413.2
1413.43
1413.7
1413.99
1414.38
1414.56
1414.34
1414.13
1413.86
1413.96
1414
1414.07
1414.27
1414.54
1414.75
1415.01
1415.44
1415.8
1416.01
1416.21
1393.15
1393.82
1394.44
1395
1394.88
1394.53
1394.41
1394.43
1394.39
1394.17
1393.82
1393.7
1393.79
1393.77
1393.71
1393.62
1393.36
1393.99
1392.63
1392.67
1393.29
1393.62
1393.97
1394.18
1394.5
1394.63
1394.71
1394.69
1394.37
1394.26
1394.06
1394.37
1394.48
1394.48
1394.71
1394.96
1395.3
1395.71
1396.35
1396.34
1374.46
1375.11
1375.1
1375.26
1375.4
1375.06
1375.01
1375.47
1375.72
1375.11
1375.31
1376.22
1376.33
1376.35
1376.14
1375.71
1376.08
1375.85
1375.11
1374.35
1374.4
1374.46
1374.56
1374.85
1375.02
1375.05
1374.99
1374.84
1374.6
1374.35
1374.15
1374.01
1374.02
1374.16
1374.31
1374.66
1375.1
1375.77
1376.02
1376.44
1356.65
1357.26
1357.74
1357.88
1357.57
1357.46
1357.69
1357.78
1357.35
1356.2
1356.91
1356.64
1356.77
1356.7
1356.8
1356.92
1358.54
1356.84
1356.27
1355.74
1355.4
1355.37
1355.49
1355.79
1355.7
1355.47
1355.3
1355.22
1355.14
1354.9
1354.78
1354.84
1354.88
1355.12
1355.02
1355.21
1355.62
1356.11
1356.26
1356.37
1338.06
1338.23
1338.8
1338.78
1338.5
1337.06
1336.89
1336.64
1336.52
1336.29
1336.16
1336.73
1336.91
1337.03
1337.38
1337.41
1337.43
1337.4
1337.01
1336.67
1336.42
1336.28
1336.2
1336.34
1336.95
1335.64
1335.23
1335.23
1335.34
1335.48
1335.86
1336.11
1336.2
1336.41
1336.6
1336.79
1336.77
1336.69
1336.54
1337.29
1318.5
1319.36
1319.4
1318.87
1317.97
1316.92
1316
1315.52
1315.72
1315.96
1318.27
1315.81
1315.89
1316.71
1317.28
1317.47
1317.51
1317.46
1317.3
1316.93
1316.55
1316.28
1315.95
1315.91
1316.42
1316.24
1315.12
1315.16
1315.39
1316
1316.53
1316.94
1317.21
1317.38
1317.46
1317.59
1317.55
1317.54
1317.65
1317.62
1298.05
1299.6
1300.09
1300.06
1299.02
1297.99
1296.87
1295.7
1295.54
1295.99
1297.43
1297.92
1297.21
1296.11
1296.4
1296.78
1296.89
1296.96
1296.97
1296.86
1296.58
1296.21
1295.86
1295.78
1296
1296.95
1296.57
1296.46
1296.55
1297.1
1297.49
1297.8
1298.05
1298.17
1298.25
1298.3
1298.24
1298.13
1299.55
1298.44
1277.08
1278.76
1279.76
1279.81
1279.1
1278.72
1278.21
1277.87
1277.67
1277.63
1278.27
1277.53
1277.33
1277.64
1277.44
1277.08
1276.82
1276.85
1276.83
1276.74
1276.61
1276.5
1276.36
1276.38
1276.72
1277.73
1278.13
1278.05
1278
1278.21
1278.02
1278.23
1278.31
1278.38
1278.37
1278.36
1278.55
1278.94
1278.89
1278.76
1255.05
1256.53
1257.38
1257.73
1257.72
1257.84
1258.18
1258.8
1259.33
1259.8
1258.98
1258.87
1258.26
1256.89
1258.21
1258.13
1256.93
1256.83
1256.91
1256.72
1256.33
1256.43
1256.85
1257.22
1257.69
1257.93
1257.86
1258.41
1258.97
1259.15
1258.7
1258.88
1258.81
1258.33
1258.03
1258.15
1258.31
1258.52
1258.49
1258.48
1233.07
1233.81
1233.89
1233.97
1234.43
1236.12
1237.89
1239.34
1240.84
1241.35
1240.53
1239.68
1238.68
1237.66
1239.09
1239.25
1236.95
1236.79
1237.05
1236.65
1235.44
1235.01
1235.97
1236.8
1237.43
1237.57
1237.78
1238.17
1239.55
1239.84
1238.55
1239.21
1239.35
1238.99
1238.43
1239.24
1238.31
1238.54
1238.48
1238.56
1212.84
1212.65
1212.18
1218.17
1215.23
1214.72
1215.47
1216.15
1216.78
1218.72
1218.64
1217.52
1217.2
1216.95
1217.03
1216.74
1216.26
1216.45
1216.52
1216.15
1216.09
1214.2
1214.61
1215.79
1216.65
1217.07
1217.22
1217.58
1218.06
1218.46
1218.49
1218.51
1218.91
1218.64
1218.81
1218.37
1218.19
1218.31
1218.45
1218.39
1194.97
1195.09
1198.43
1199.16
1192.7
1192.43
1191.6
1189.4
1189.57
1193.37
1193.87
1193.57
1194.62
1194.66
1195.36
1195.02
1195.08
1195.79
1196.49
1196.94
1198.03
1198.27
1195.76
1196.48
1197.26
1197.31
1197.57
1198.02
1198.39
1198.35
1198.03
1198.61
1198.85
1198.85
1198.66
1197.63
1197.6
1198.27
1198.66
1199.19
1178.33
1178.56
1180.03
1182.21
1174.94
1173.73
1171.57
1168.52
1170.56
1174.27
1173.84
1175.53
1178.65
1175.2
1175.34
1174.62
1174.23
1176.1
1177.89
1178.68
1180.11
1180.23
1178.46
1177.37
1177.87
1177.64
1179.32
1178.93
1179.39
1178.36
1178.42
1178.94
1179.14
1179.16
1179.04
1178.36
1178.57
1179.58
1179.33
1179.69
1161.29
1161.82
1162.2
1161.01
1159.13
1157.04
1156.9
1157.3
1156.03
1161.24
1157.88
1158.41
1159.87
1158.17
1158.42
1157.7
1158.46
1159.34
1161.08
1162.29
1162.17
1161.03
1158.7
1157.78
1158.07
1157.54
1159.05
1159.42
1159.61
1159.76
1159.99
1160.22
1160.4
1160.39
1160.37
1161.15
1160.52
1160.29
1160.17
1160.29
1143.82
1143.83
1143.49
1142.57
1142.65
1142.57
1142.32
1142.27
1141.91
1148.46
1142.21
1142.88
1142.97
1142.63
1142.18
1142.47
1143.13
1144.12
1144.24
1142.79
1142.18
1140.87
1139.21
1138.29
1137.58
1138.78
1139.81
1141.32
1140.61
1141.28
1141.66
1141.79
1141.86
1142.46
1142.34
1142.06
1142.12
1142.07
1142.72
1142.34
1126.09
1126.51
1126.64
1126.86
1126.39
1126.2
1126.12
1126.85
1126.96
1128.03
1126.19
1126.61
1126.22
1126.08
1125.41
1125.77
1125.8
1126.68
1126.69
1126.35
1125.02
1123.69
1121.73
1121.12
1121.18
1121.6
1122.1
1122.61
1121.99
1122.48
1122.85
1123.53
1123.7
1123.35
1123.44
1123.69
1124.22
1123.72
1126.56
1125.76
1107.95
1108.53
1108.66
1109.26
1110.23
1110.49
1107
1108.32
1108.44
1108.87
1108.75
1109.17
1109.41
1109.3
1108.85
1108.23
1108.89
1110.19
1110.74
1110.32
1108.2
1107.35
1106.05
1105.34
1104.53
1104.26
1104.02
1103.84
1103.96
1104.04
1104.06
1104.89
1104.81
1105.33
1105.51
1105.02
1104.85
1106.55
1107.81
1107.27
1088.39
1089.22
1089.21
1090.54
1091.57
1091.54
1090.27
1089.73
1089.79
1089.76
1089.67
1089.56
1091.8
1093.08
1089.91
1090.26
1090.87
1092.12
1093.36
1094.67
1091.66
1090.07
1088.49
1087
1086.04
1085.55
1085.28
1085.01
1086
1087.19
1087.35
1086.46
1086.95
1086.81
1086.9
1085.87
1085.99
1088.23
1088.51
1089.25
1069.47
1069.36
1068.99
1070.31
1072.21
1070.13
1069.65
1070.07
1069.76
1069.51
1069.48
1069.51
1069.45
1069.15
1069.23
1069.42
1070.01
1071.08
1072.82
1073.94
1072.77
1071.14
1069.34
1067.74
1066.64
1065.83
1065.8
1066.16
1066.93
1068.92
1069.98
1070.24
1069.57
1068.55
1067.89
1067.71
1067.25
1066.85
1067.39
1068.71
1049.57
1049.74
1050.07
1050.39
1050.95
1050.52
1050.32
1050.39
1050.46
1050.17
1049.6
1049.42
1048.97
1048.3
1047.28
1046.47
1046.37
1046.91
1048.73
1050.36
1049.98
1048.87
1047.71
1046.78
1046.36
1048.36
1048.73
1048.11
1049.44
1050.69
1051.28
1051.37
1051.3
1050
1048.95
1048.2
1048.09
1048.98
1046.83
1047.37
1029.91
1029.86
1030.42
1030.87
1031.15
1031.02
1031.47
1031.44
1031.39
1031.2
1030.53
1030.07
1029.53
1028.09
1026.42
1024.27
1022.37
1021.74
1023.3
1025.13
1025.6
1025.63
1025.92
1026.13
1026.33
1028
1028.79
1027.68
1028.7
1029.98
1031.09
1031.79
1032.43
1032.24
1030.97
1032.29
1031.94
1031.92
1032
1032.37
1010.17
1009.91
1010.18
1010.53
1010.84
1011.08
1011.3
1011.63
1012.54
1011.96
1011.35
1011.27
1010.45
1008.91
1006.13
1003.52
1000.09
1003.22
1004.04
1003.38
1003.72
1002.53
1002.8
1002.36
1002.52
1003.74
1005.33
1006.09
1006.63
1007.9
1009.06
1010.24
1011.14
1011.76
1012.39
1013.64
1016.36
1016.86
1017.13
1017.4
989.284
989.088
989.555
989.889
990.164
990.447
990.694
991.009
991.542
991.856
992.133
992.337
992.393
991.203
989.108
986.175
985.19
986.416
986.674
985.483
984.877
985.768
985.647
983.658
981.084
982.044
984.773
986.905
988.174
987.722
986.735
987.805
989.732
991.602
993.474
995.116
996.87
998.077
998.802
999.204
967.593
967.968
968.592
969.133
969.157
969.494
969.963
970.465
971.081
971.942
972.96
974.115
974.483
973.589
972.15
970.592
971.261
972.683
973.405
973.391
972.411
972.3
972.181
970.991
967.192
965.623
967.396
968.11
967.978
967.772
970.666
965.352
968.03
970.952
973.295
975.202
976.876
977.925
978.359
978.564
947.461
947.739
948.167
948.64
948.7
948.809
949.161
949.548
949.954
950.885
952.373
953.695
953.732
953.414
953.846
954.197
955.18
957.616
960.194
960.134
957.927
956.045
954.672
953.097
950.964
950.279
949.929
949.946
950.061
949.615
953.195
952.467
948.92
951.817
953.793
955.197
956.233
956.828
957.171
957.907
928.168
928.284
927.715
927.803
927.962
928.213
928.457
928.64
928.596
930.052
931.541
932.866
934.675
934.756
933.927
935.424
936.443
937.46
938.748
939.301
939.186
938.794
937.93
936.83
935.194
932.911
931.605
932.465
931.838
932.462
934.993
934.165
932.879
934.266
935.182
935.883
936.799
937.135
937.727
939.001
908.975
908.517
908.118
907.915
907.869
908.019
908.269
908.462
908.503
909.394
911.354
912.555
914.012
914.797
915.343
915.929
916.978
917.804
918.455
918.951
919.308
919.365
919.016
918.247
916.721
917.858
917.576
917.889
917.998
918.83
918.495
917.231
916.889
916.627
917.496
919.64
917.728
918.75
918.729
919.46
889.799
888.865
887.82
887.177
887.372
887.775
888.186
888.608
888.973
889.644
890.812
892.634
894.704
896.275
896.38
896.829
897.551
898.211
898.737
899.121
899.358
899.404
899.226
898.837
899.307
902.377
900.023
899.334
898.88
898.823
899.51
898.699
898.548
898.794
899.45
900.69
904.334
900.362
898.623
898.971
871.45
870.416
869.614
871.127
870.392
868.608
868.81
868.735
868.749
868.872
869.659
875.864
874.456
877.086
877.845
878.121
878.483
879.013
879.446
879.77
880.004
880.172
880.247
880.136
883.054
885.12
880.762
880.584
880.017
879.397
879.787
879.81
879.917
880.238
880.854
881.601
881.876
882.126
882.131
881.438
854.133
853.482
854.055
853.945
853.126
852.293
851.546
849.803
851.399
850.099
851.273
855.634
855.157
857.659
858.424
858.877
859.391
860.014
860.574
860.975
861.332
861.746
862.107
862.677
862.526
861.602
860.732
860.318
859.877
859.454
859.829
860.245
860.627
861.136
861.92
862.651
863.116
863.458
862.034
869.327
836.999
836.714
836.42
836.36
835.6
833.974
832.444
831.26
831.154
831.79
833.788
835.527
836.509
837.718
838.522
838.971
839.723
840.56
841.259
841.785
841.988
842.582
843.084
843.774
843.522
842.627
841.797
840.587
839.194
838.141
837.88
839.603
840.764
841.503
842.687
843.645
843.928
843.915
843.019
848.506
820.069
820.302
820.666
820.315
819.182
817.384
814.494
814.219
814.444
815.42
816.507
817.407
817.684
818.436
818.907
818.837
819.833
820.359
821.026
821.678
821.995
823.01
824.183
824.907
826.704
827.534
826.52
825.577
824.79
822.332
823.62
823.91
826.703
824.626
825.696
827.152
825.528
825.696
830.367
830.237
799.027
801.743
803.009
803.31
802.418
800.999
799.614
798.925
798.567
798.88
798.876
798.513
798.422
798.628
798.012
798.342
798.701
799.088
800.105
800.768
803.383
805.069
807.104
810.075
807.809
808.675
807.313
805.581
804.058
803.204
805.721
807.209
809.659
810.839
813.628
812.997
812.765
816.008
815.955
815.62
777.366
779.177
781.305
782.589
782.85
781.245
780.888
780.804
781.041
783.564
779.209
778.215
777.365
776.912
777.209
777.439
783
784.543
784.378
784.989
783.831
785.83
787.992
786.164
784.534
783.462
781.807
780.404
780.035
782.14
785.418
792.874
796.434
800.475
800.616
797.377
799.951
800.179
799.753
803.943
750.788
754.179
756.998
758.638
759.689
760.232
760.292
760.751
759.352
759.478
757.824
757.905
755.206
755.026
755.099
757.768
762.282
764.417
766.16
766.88
766.492
764.266
764.391
762.343
758.83
755.174
752.52
753.062
756.26
758.052
761.776
768.725
778.163
780.735
780.146
780.57
787.036
788.328
781.869
785.617
721.871
727.236
730.971
733.675
735.722
737.247
738.327
738.967
739.866
739.94
739.216
739.418
740.051
742.476
743.282
741.598
751.581
753.284
749.643
753.693
745.458
745.979
744.551
740.764
736.793
734.328
730.808
733.152
736.59
739.896
742.178
751.767
753.336
756.595
758.97
760.059
763.193
768.028
763.629
764.764
694.212
700.841
706.48
711.015
714.179
716.286
718.294
719.663
720.599
721.6
722.526
723.553
724.965
731.004
732.334
730.979
735.305
730.836
738.331
739.328
732.927
734.257
728.41
725.904
722.871
720.408
720.106
721.958
723.478
725.796
731.097
735.294
736.93
737.955
739.887
741.533
742.681
744.321
746.104
747.012
672.646
679.306
685.776
690.695
694.412
697.036
698.907
700.526
702.017
703.708
705.735
707.895
710.401
715.492
717.187
719.822
719.652
720.425
720.297
721.652
720.649
716.309
714.526
712.68
710.597
709.661
710.308
711.94
714.217
717.449
720.148
720.391
719.428
720.824
722.577
724.067
725.798
726.892
727.95
729.086
659.78
663.197
668.002
672.798
675.747
677.954
679.803
681.618
683.386
685.354
688.056
691.686
695.259
698.643
701.986
703.461
708.025
698.539
701.983
703.968
700.759
700.734
699.419
697.851
696.572
696.079
696.714
697.658
698.651
701.263
704.281
705.764
705.286
704.981
705.35
705.808
706.6
707.78
708.53
708.868
647.955
648.666
652.704
655.263
657.199
658.89
660.553
662.274
664.057
665.701
667.783
672.357
676.817
679.544
682.535
682.41
682.781
682.839
681.112
686.766
681.829
683.794
683.125
682.015
681.295
680.398
682.135
683.448
684.706
686.542
687.602
688.28
688.754
689.101
689.224
688.955
688.068
689.184
690.225
691.138
629.556
632.9
636.058
637.786
638.924
640.07
641.123
642.783
645.35
646.328
652.416
657.03
653.449
657.314
660.898
661.858
663.3
664.481
660.924
663.74
662.564
664.781
666.433
662.148
662.309
662.546
662.661
664
666.36
668.938
669.659
670.793
672.183
673.384
675.041
675.965
675.51
674.701
675.564
675.797
612.977
616.033
618.501
620.504
621.949
622.815
625.088
629.916
630.837
632.08
635.287
636.849
634.917
636.313
639.188
640.396
645.148
645.923
643.139
643.392
643.436
643.36
642.893
642.454
641.819
641.293
646.007
649.272
652.024
654.685
657.155
659.101
657.309
657.916
659.48
659.242
656.435
656.072
655.827
655.693
597.18
600.407
603.392
605.944
608.143
610.451
616.48
618.087
619.293
620.783
621.575
620.815
617.484
620.334
622.381
623.727
626.376
624.409
624.039
623.654
623.23
623.267
623.102
623.197
623.622
628.259
630.293
632.532
635.435
637.818
637.691
637.86
639.416
640.282
639.493
638.805
637.175
636.262
635.615
635.6
581.425
585.118
588.035
590.656
593.135
595.4
597.808
599.6
604.3
603.778
601.764
601.344
601.99
602.247
602.897
604.851
603.603
604.677
603.735
602.826
602.569
603.222
603.128
603.274
603.673
605.703
607.496
610.362
612.999
614.825
616.643
618.216
619.332
619.235
618.244
616.932
615.844
615.213
614.878
614.899
567.573
570.715
573.55
575.891
577.741
579.427
580.757
581.245
581.295
582.176
582.826
582.583
582.56
585.351
583.643
581.778
583.097
582.263
581.628
581.021
580.853
581.128
582.103
582.589