/*--------------------------------*- C++ -*----------------------------------*\
  =========                 |
  \\      /  F ield         | OpenFOAM: The Open Source CFD Toolbox
   \\    /   O peration     | Website:  https://openfoam.org
    \\  /    A nd           | Version:  8
     \\/     M anipulation  |
\*---------------------------------------------------------------------------*/
FoamFile
{
    version     2.0;
    format      ascii;
    class       surfaceScalarField;
    location    "2.1";
    object      alphaPhi0.water;
}
// * * * * * * * * * * * * * * * * * * * * * * * * * * * * * * * * * * * * * //

dimensions      [0 3 -1 0 0 0 0];

internalField   nonuniform List<scalar> 
18095
(
1.58357e-07
-9.65647e-07
8.0729e-07
1.65309e-07
-1.24817e-06
1.24122e-06
1.22155e-07
-1.24223e-06
1.28539e-06
6.52823e-08
-1.2635e-06
1.32037e-06
-4.13417e-11
-1.2805e-06
1.34583e-06
-6.53575e-08
-1.2805e-06
1.34581e-06
-1.22212e-07
-1.26348e-06
1.32033e-06
-1.65346e-07
-1.24221e-06
1.28534e-06
-1.58372e-07
-1.24815e-06
1.24118e-06
-9.65601e-07
8.07229e-07
1.10994e-07
-1.07664e-06
9.93716e-08
-1.23655e-06
7.2831e-08
-1.21569e-06
4.00097e-08
-1.23068e-06
-2.80201e-11
-1.24047e-06
-4.00614e-08
-1.24046e-06
-7.2872e-08
-1.23067e-06
-9.94021e-08
-1.21568e-06
-1.11011e-07
-1.23654e-06
-1.07661e-06
6.71215e-08
-1.14376e-06
5.27283e-08
-1.22216e-06
4.21193e-08
-1.20508e-06
2.38406e-08
-1.2124e-06
-1.86525e-11
-1.21661e-06
-2.38754e-08
-1.21661e-06
-4.21475e-08
-1.2124e-06
-5.27496e-08
-1.20508e-06
-6.71364e-08
-1.22216e-06
-1.14375e-06
3.95999e-08
-1.18336e-06
2.66134e-08
-1.20917e-06
2.2003e-08
-1.20047e-06
1.25143e-08
-1.20291e-06
-1.17052e-11
-1.20408e-06
-1.25364e-08
-1.20408e-06
-2.20212e-08
-1.20291e-06
-2.66268e-08
-1.20047e-06
-3.96104e-08
-1.20917e-06
-1.18336e-06
1.66374e-08
7.46477e-09
6.99267e-09
4.07854e-09
-3.2454e-12
-4.08475e-09
-6.99779e-09
-7.46816e-09
-1.66413e-08
-1.75227e-07
-1.16423e-06
1.33946e-06
-2.19362e-07
-1.21653e-06
1.26067e-06
-1.65577e-07
-1.21295e-06
1.15917e-06
-8.76251e-08
-1.20423e-06
1.12627e-06
-4.51289e-10
-1.20273e-06
1.11555e-06
8.67407e-08
-1.20266e-06
1.11547e-06
1.64778e-07
-1.20404e-06
1.126e-06
2.18633e-07
-1.21268e-06
1.15883e-06
1.74569e-07
-1.21615e-06
1.26022e-06
-1.1638e-06
1.33837e-06
-9.31567e-08
-1.07107e-06
-9.58731e-08
-1.21382e-06
-7.9498e-08
-1.22933e-06
-4.44711e-08
-1.23925e-06
-2.55199e-10
-1.24694e-06
4.3981e-08
-1.24689e-06
7.90598e-08
-1.23912e-06
9.55149e-08
-1.22913e-06
9.29527e-08
-1.21359e-06
-1.07085e-06
-5.7966e-08
-1.01311e-06
-5.52333e-08
-1.21655e-06
-4.66192e-08
-1.23794e-06
-2.72601e-08
-1.25861e-06
-1.53405e-10
-1.27405e-06
2.69681e-08
-1.27402e-06
4.63691e-08
-1.25852e-06
5.50508e-08
-1.23782e-06
5.78769e-08
-1.21642e-06
-1.01297e-06
-7.47151e-08
-9.38392e-07
-6.19229e-08
-1.22934e-06
-4.86081e-08
-1.25125e-06
-2.78411e-08
-1.27938e-06
-9.52694e-11
-1.3018e-06
2.76614e-08
-1.30177e-06
4.84592e-08
-1.27932e-06
6.18225e-08
-1.25118e-06
7.46683e-08
-1.22926e-06
-9.383e-07
-1.31102e-07
-1.19221e-07
-8.50898e-08
-4.40932e-08
-6.19488e-11
4.39772e-08
8.49956e-08
1.19158e-07
1.31071e-07
-3.91164e-08
-9.33675e-07
9.72792e-07
5.48582e-09
-1.34348e-06
1.29888e-06
8.91161e-09
-1.2762e-06
1.27277e-06
2.34709e-09
-1.22839e-06
1.23495e-06
-3.52523e-09
-1.22602e-06
1.23189e-06
-9.52987e-09
-1.22549e-06
1.23149e-06
-1.57339e-08
-1.22871e-06
1.23491e-06
-1.52053e-08
-1.27759e-06
1.27706e-06
2.11448e-08
-1.34115e-06
1.3048e-06
-9.19297e-07
9.40442e-07
1.35898e-08
-9.47265e-07
1.86347e-08
-1.34853e-06
1.1466e-08
-1.26903e-06
4.33247e-09
-1.22125e-06
-2.93126e-09
-1.21876e-06
-1.017e-08
-1.21825e-06
-1.7326e-08
-1.22155e-06
-2.64895e-08
-1.26843e-06
-1.99e-08
-1.34774e-06
-9.39197e-07
2.82028e-08
-9.75468e-07
1.91304e-08
-1.33945e-06
1.00589e-08
-1.25996e-06
5.16051e-09
-1.21636e-06
-1.80581e-09
-1.21179e-06
-8.34815e-09
-1.21171e-06
-1.36247e-08
-1.21628e-06
-2.25961e-08
-1.25946e-06
-3.1681e-08
-1.33865e-06
-9.70878e-07
7.88373e-08
-1.05431e-06
5.20387e-08
-1.31266e-06
3.29032e-08
-1.24082e-06
1.99493e-08
-1.2034e-06
-1.16987e-09
-1.19067e-06
-2.22865e-08
-1.19059e-06
-3.55682e-08
-1.20299e-06
-5.47465e-08
-1.24028e-06
-8.11397e-08
-1.31226e-06
-1.05202e-06
2.85152e-07
2.33163e-07
1.51509e-07
7.43804e-08
-7.38028e-10
-7.58614e-08
-1.52855e-07
-2.34308e-07
-2.86349e-07
-3.3598e-08
-1.32281e-08
4.68261e-08
-2.00813e-08
-1.35162e-08
-6.38707e-09
-1.36942e-08
7.3874e-09
-1.37744e-08
2.11466e-08
-1.37592e-08
3.47917e-08
-1.36452e-08
4.82253e-08
-1.34337e-08
6.13542e-08
-1.31288e-08
7.4089e-08
-1.27349e-08
-1.22486e-08
8.63376e-08
-2.35662e-08
-2.3952e-08
3.42901e-08
-1.2575e-08
-2.45077e-08
-1.40151e-09
-2.48678e-08
9.86112e-09
-2.50372e-08
2.112e-08
-2.50182e-08
3.22887e-08
-2.4814e-08
4.32833e-08
-2.44284e-08
5.40205e-08
-2.3866e-08
6.44174e-08
-2.31318e-08
-2.22285e-08
7.43974e-08
-1.68556e-08
-3.29765e-08
2.58801e-08
-7.599e-09
-3.37643e-08
1.81424e-09
-3.42811e-08
1.13061e-08
-3.4529e-08
2.07997e-08
-3.45119e-08
3.022e-08
-3.42342e-08
3.94928e-08
-3.37012e-08
4.85453e-08
-3.29186e-08
5.73062e-08
-3.18927e-08
-3.06318e-08
6.57094e-08
-1.19033e-08
-4.07181e-08
1.96449e-08
-3.96152e-09
-4.17062e-08
4.11353e-09
-4.23561e-08
1.22551e-08
-4.26705e-08
2.03971e-08
-4.26537e-08
2.84739e-08
-4.23108e-08
3.64205e-08
-4.16477e-08
4.41731e-08
-4.06711e-08
5.16693e-08
-3.93889e-08
-3.78115e-08
5.88491e-08
-8.13291e-09
-4.74359e-08
1.48508e-08
-1.24549e-09
-4.85937e-08
5.75374e-09
-4.93553e-08
1.28071e-08
-4.97238e-08
1.98573e-08
-4.97038e-08
2.68469e-08
-4.93004e-08
3.3719e-08
-4.85197e-08
4.0417e-08
-4.7369e-08
4.68848e-08
-4.58566e-08
-4.39941e-08
5.30674e-08
-5.30472e-09
-5.33201e-08
1.11889e-08
7.19472e-10
-5.4618e-08
6.83459e-09
-5.54704e-08
1.29915e-08
-5.58807e-08
1.9141e-08
-5.58532e-08
2.52337e-08
-5.5393e-08
3.12197e-08
-5.45056e-08
3.70487e-08
-5.31979e-08
4.26699e-08
-5.14777e-08
-4.93562e-08
4.8032e-08
-3.25313e-09
-5.85122e-08
8.44523e-09
2.05103e-09
-5.99221e-08
7.42624e-09
-6.08456e-08
1.28317e-08
-6.12861e-08
1.82264e-08
-6.12479e-08
2.35684e-08
-6.0735e-08
2.88149e-08
-5.9752e-08
3.39215e-08
-5.83044e-08
3.88421e-08
-5.63983e-08
-5.40429e-08
4.35289e-08
-1.83394e-09
-6.31149e-08
6.43667e-09
2.85441e-09
-6.46102e-08
7.59541e-09
-6.55865e-08
1.23566e-08
-6.60473e-08
1.71049e-08
-6.59962e-08
2.18063e-08
-6.54364e-08
2.6425e-08
-6.43708e-08
3.09232e-08
-6.28026e-08
3.52598e-08
-6.0735e-08
-5.81735e-08
3.93904e-08
-9.08657e-10
-6.71989e-08
4.99265e-09
3.23559e-09
-6.87544e-08
7.41536e-09
-6.97663e-08
1.16063e-08
-7.02382e-08
1.57835e-08
-7.01734e-08
1.99211e-08
-6.9574e-08
2.39911e-08
-6.8441e-08
2.7963e-08
-6.67746e-08
3.18023e-08
-6.45743e-08
-6.18408e-08
3.54696e-08
-3.36171e-10
-7.08091e-08
3.94641e-09
3.30942e-09
-7.24001e-08
6.97367e-09
-7.34305e-08
1.064e-08
-7.39045e-08
1.42918e-08
-7.38252e-08
1.79115e-08
-7.31936e-08
2.14797e-08
-7.20091e-08
2.49743e-08
-7.02693e-08
2.83694e-08
-6.79694e-08
-6.51049e-08
3.16334e-08
3.65156e-11
-7.39703e-08
3.12463e-09
3.20867e-09
-7.55723e-08
6.38199e-09
-7.66038e-08
9.54722e-09
-7.70696e-08
1.26952e-08
-7.69731e-08
1.58163e-08
-7.63146e-08
1.88996e-08
-7.50924e-08
2.19324e-08
-7.33021e-08
2.48986e-08
-7.09358e-08
-6.79841e-08
2.77778e-08
3.73967e-10
-7.66938e-08
2.34959e-09
3.08564e-09
-7.82839e-08
5.78094e-09
-7.92991e-08
8.45634e-09
-7.97449e-08
1.11085e-08
-7.96252e-08
1.37341e-08
-7.89402e-08
1.63294e-08
-7.76877e-08
1.88896e-08
-7.58624e-08
2.14085e-08
-7.34548e-08
-7.04529e-08
2.38772e-08
8.4361e-10
-7.89885e-08
1.45105e-09
3.10704e-09
-8.05472e-08
5.33836e-09
-8.15303e-08
7.53762e-09
-8.19442e-08
9.70509e-09
-8.17927e-08
1.18412e-08
-8.10765e-08
1.39465e-08
-7.97932e-08
1.60212e-08
-7.79373e-08
1.80657e-08
-7.54994e-08
-7.2467e-08
2.00798e-08
1.57808e-09
-8.08863e-08
3.1977e-10
3.42543e-09
-8.23945e-08
5.22613e-09
-8.3331e-08
6.98368e-09
-8.37017e-08
8.70114e-09
-8.35102e-08
1.03812e-08
-8.27567e-08
1.20264e-08
-8.14385e-08
1.36392e-08
-7.95502e-08
1.52225e-08
-7.70826e-08
-7.40243e-08
1.67799e-08
2.72626e-09
-8.2417e-08
-1.19554e-09
4.1965e-09
-8.38646e-08
5.61415e-09
-8.47486e-08
6.98575e-09
-8.50734e-08
8.31666e-09
-8.48412e-08
9.6115e-09
-8.40516e-08
1.08746e-08
-8.27016e-08
1.21103e-08
-8.07858e-08
1.33236e-08
-7.82959e-08
-7.52213e-08
1.45206e-08
4.38781e-09
-8.36057e-08
-3.19906e-09
5.5245e-09
-8.50008e-08
6.618e-09
-8.5842e-08
7.67631e-09
-8.61317e-08
8.70654e-09
-8.58715e-08
9.71594e-09
-8.5061e-08
1.07127e-08
-8.36983e-08
1.17069e-08
-8.178e-08
1.2712e-08
-7.93009e-08
-7.62554e-08
1.37461e-08
6.55191e-09
-8.45002e-08
-5.65715e-09
7.4152e-09
-8.5864e-08
8.25486e-09
-8.66817e-08
9.07804e-09
-8.6955e-08
9.89184e-09
-8.66853e-08
1.0704e-08
-8.58732e-08
1.15239e-08
-8.45181e-08
1.23633e-08
-8.26193e-08
1.32372e-08
-8.01748e-08
-7.71832e-08
1.4165e-08
9.16415e-09
-8.51692e-08
-8.4951e-09
9.82851e-09
-8.65283e-08
1.04928e-08
-8.73461e-08
1.11616e-08
-8.76238e-08
1.18398e-08
-8.73636e-08
1.25335e-08
-8.65668e-08
1.32505e-08
-8.5235e-08
1.40006e-08
-8.33694e-08
1.47967e-08
-8.09709e-08
-7.80411e-08
1.56546e-08
1.21551e-08
-8.57041e-08
-1.16203e-08
1.2711e-08
-8.70846e-08
1.3289e-08
-8.79242e-08
1.38905e-08
-8.82253e-08
1.4518e-08
-8.79912e-08
1.51758e-08
-8.72245e-08
1.58695e-08
-8.59284e-08
1.66069e-08
-8.41066e-08
1.73984e-08
-8.17624e-08
-7.88993e-08
1.82566e-08
1.54716e-08
-8.62115e-08
-1.49644e-08
1.60166e-08
-8.76299e-08
1.65977e-08
-8.85053e-08
1.72141e-08
-8.88418e-08
1.78668e-08
-8.86439e-08
1.85579e-08
-8.79156e-08
1.92914e-08
-8.66616e-08
2.00727e-08
-8.48875e-08
2.0909e-08
-8.25985e-08
-7.98003e-08
2.181e-08
1.91164e-08
-8.67998e-08
-1.85282e-08
1.97441e-08
-8.82577e-08
2.04099e-08
-8.91712e-08
2.11135e-08
-8.95455e-08
2.18559e-08
-8.93862e-08
2.26387e-08
-8.86986e-08
2.34646e-08
-8.74875e-08
2.43368e-08
-8.57597e-08
2.52593e-08
-8.35207e-08
-8.07776e-08
2.62367e-08
2.31728e-08
-8.75508e-08
-2.24218e-08
2.39511e-08
-8.90359e-08
2.47591e-08
-8.99792e-08
2.55996e-08
-9.03861e-08
2.64757e-08
-9.02624e-08
2.73903e-08
-8.96131e-08
2.83458e-08
-8.84437e-08
2.93453e-08
-8.67593e-08
3.03909e-08
-8.45663e-08
-8.18713e-08
3.14849e-08
2.77883e-08
-8.84934e-08
-2.68458e-08
2.874e-08
-8.99876e-08
2.97094e-08
-9.09487e-08
3.07038e-08
-9.13806e-08
3.17295e-08
-9.12881e-08
3.27912e-08
-9.06748e-08
3.38926e-08
-8.95451e-08
3.50361e-08
-8.79034e-08
3.62239e-08
-8.57542e-08
-8.31044e-08
3.7457e-08
3.31146e-08
-8.95975e-08
-3.20106e-08
3.42144e-08
-9.10875e-08
3.53247e-08
-9.2059e-08
3.64569e-08
-9.25129e-08
3.76196e-08
-9.24508e-08
3.88189e-08
-9.18741e-08
4.00587e-08
-9.07848e-08
4.13411e-08
-8.91858e-08
4.26672e-08
-8.70808e-08
-8.44749e-08
4.40376e-08
3.925e-08
-9.07855e-08
-3.80621e-08
4.0434e-08
-9.22715e-08
4.16334e-08
-9.32583e-08
4.28622e-08
-9.37416e-08
4.41294e-08
-9.37181e-08
4.54403e-08
-9.31848e-08
4.67969e-08
-9.2141e-08
4.81988e-08
-9.05876e-08
4.96446e-08
-8.85266e-08
-8.5963e-08
5.11323e-08
4.62024e-08
-9.19496e-08
-4.50383e-08
4.73847e-08
-9.34536e-08
4.86069e-08
-9.44805e-08
4.98824e-08
-9.50171e-08
5.12168e-08
-9.50527e-08
5.26105e-08
-9.45786e-08
5.40598e-08
-9.35904e-08
5.5559e-08
-9.20864e-08
5.7101e-08
-9.00685e-08
-8.75416e-08
5.86797e-08
5.38548e-08
-9.29821e-08
-5.28223e-08
5.49537e-08
-9.45525e-08
5.61416e-08
-9.56683e-08
5.74262e-08
-9.63018e-08
5.88048e-08
-9.64313e-08
6.0267e-08
-9.60413e-08
6.1799e-08
-9.51224e-08
6.33849e-08
-9.36724e-08
6.50096e-08
-9.16929e-08
-8.91914e-08
6.66595e-08
6.1987e-08
-9.37909e-08
-6.11781e-08
6.29471e-08
-9.55127e-08
6.40766e-08
-9.67978e-08
6.53693e-08
-9.75945e-08
6.68041e-08
-9.78662e-08
6.83526e-08
-9.75898e-08
6.99834e-08
-9.67538e-08
7.16672e-08
-9.53563e-08
7.33773e-08
-9.3403e-08
-9.09055e-08
7.50917e-08
7.03057e-08
-9.43111e-08
-6.97853e-08
7.11217e-08
-9.63287e-08
7.22303e-08
-9.79063e-08
7.35914e-08
-9.89557e-08
7.51495e-08
-9.94243e-08
7.68458e-08
-9.92862e-08
7.8626e-08
-9.8534e-08
8.04423e-08
-9.71733e-08
8.22568e-08
-9.52176e-08
-9.26877e-08
8.4039e-08
7.84977e-08
-9.45245e-08
-7.82803e-08
7.92583e-08
-9.70885e-08
8.04869e-08
-9.91351e-08
8.20658e-08
-1.00535e-07
8.38799e-08
-1.01238e-07
8.58291e-08
-1.01235e-07
8.78324e-08
-1.00537e-07
8.98268e-08
-9.91677e-08
9.17649e-08
-9.71562e-08
-9.4537e-08
9.36141e-08
8.63318e-08
-9.45577e-08
-8.61746e-08
8.73367e-08
-9.80777e-08
8.89833e-08
-1.00781e-07
9.10254e-08
-1.02577e-07
9.32707e-08
-1.03484e-07
9.55822e-08
-1.03547e-07
9.78635e-08
-1.02819e-07
1.00049e-07
-1.01353e-07
1.02095e-07
-9.92024e-08
-9.64166e-08
1.03974e-07
9.41758e-08
-9.17605e-08
-8.96458e-08
9.60099e-08
-9.96942e-08
9.84694e-08
-1.03211e-07
1.01193e-07
-1.05299e-07
1.03956e-07
-1.06246e-07
1.06629e-07
-1.06219e-07
1.09133e-07
-1.05323e-07
1.11423e-07
-1.03644e-07
1.13475e-07
-1.01255e-07
-9.82198e-08
1.15279e-07
1.05066e-07
-5.42993e-08
-7.19758e-08
1.07793e-07
-9.82268e-08
1.10868e-07
-1.06167e-07
1.13965e-07
-1.0839e-07
1.16914e-07
-1.09195e-07
1.19628e-07
-1.08934e-07
1.22066e-07
-1.0776e-07
1.24205e-07
-1.05784e-07
1.26041e-07
-1.03091e-07
-9.97544e-08
1.27576e-07
9.33418e-08
-4.54654e-08
-3.52455e-08
1.2273e-07
-9.90467e-08
1.26201e-07
-1.0956e-07
1.29291e-07
-1.11475e-07
1.32024e-07
-1.11928e-07
1.34409e-07
-1.11318e-07
1.3645e-07
-1.09802e-07
1.38158e-07
-1.07491e-07
1.3954e-07
-1.04473e-07
-1.00821e-07
1.40607e-07
1.03163e-07
-6.46035e-08
-4.38871e-08
1.39116e-07
-1.09792e-07
1.42882e-07
-1.13273e-07
1.45712e-07
-1.14303e-07
1.48001e-07
-1.14217e-07
1.49858e-07
-1.13175e-07
1.51336e-07
-1.1128e-07
1.52467e-07
-1.08623e-07
1.53273e-07
-1.05278e-07
-1.01315e-07
1.53767e-07
1.50321e-07
-1.08647e-07
-9.33815e-08
1.55768e-07
-1.15318e-07
1.58987e-07
-1.16493e-07
1.61388e-07
-1.16704e-07
1.63203e-07
-1.16033e-07
1.64552e-07
-1.14523e-07
1.65503e-07
-1.12231e-07
1.66096e-07
-1.09216e-07
1.66355e-07
-1.05538e-07
-1.01256e-07
1.66297e-07
1.65821e-07
-1.18066e-07
-1.56415e-07
1.69582e-07
-1.19081e-07
1.72421e-07
-1.19333e-07
1.74562e-07
-1.18846e-07
1.76129e-07
-1.176e-07
1.77207e-07
-1.15601e-07
1.77852e-07
-1.12876e-07
1.78099e-07
-1.09463e-07
1.77972e-07
-1.05411e-07
-1.00774e-07
1.77489e-07
1.75307e-07
-1.22694e-07
-1.7068e-07
1.79009e-07
-1.22782e-07
1.81959e-07
-1.22284e-07
1.84245e-07
-1.21131e-07
1.85932e-07
-1.19287e-07
1.87073e-07
-1.16742e-07
1.87708e-07
-1.13511e-07
1.87867e-07
-1.09622e-07
1.87571e-07
-1.05116e-07
-1.00046e-07
1.86844e-07
1.80044e-07
-1.27548e-07
-1.7519e-07
1.84177e-07
-1.26915e-07
1.87609e-07
-1.25716e-07
1.90365e-07
-1.23887e-07
1.92473e-07
-1.21395e-07
1.9396e-07
-1.18229e-07
1.94848e-07
-1.14399e-07
1.95155e-07
-1.09929e-07
1.94901e-07
-1.04861e-07
-9.92493e-08
1.94104e-07
1.80956e-07
-1.32931e-07
-1.75573e-07
1.85697e-07
-1.31656e-07
1.89773e-07
-1.29792e-07
1.93173e-07
-1.27287e-07
1.95892e-07
-1.24115e-07
1.97928e-07
-1.20265e-07
1.99276e-07
-1.15747e-07
1.99933e-07
-1.10587e-07
1.99901e-07
-1.0483e-07
-9.85396e-08
1.99192e-07
1.78531e-07
-1.38826e-07
-1.72635e-07
1.83891e-07
-1.37016e-07
1.88663e-07
-1.34565e-07
1.92805e-07
-1.31429e-07
1.96274e-07
-1.27584e-07
1.99028e-07
-1.23019e-07
2.01024e-07
-1.17743e-07
2.02224e-07
-1.11786e-07
2.02595e-07
-1.052e-07
-9.80668e-08
2.02122e-07
1.72492e-07
-1.45249e-07
-1.66069e-07
1.78512e-07
-1.43036e-07
1.8406e-07
-1.40112e-07
1.89063e-07
-1.36432e-07
1.93445e-07
-1.31966e-07
1.97121e-07
-1.26695e-07
2e-07
-1.20622e-07
2.01984e-07
-1.13771e-07
2.02984e-07
-1.062e-07
-9.80118e-08
2.02929e-07
1.62334e-07
-1.52226e-07
-1.55357e-07
1.69066e-07
-1.49768e-07
1.75477e-07
-1.46523e-07
1.81479e-07
-1.42434e-07
1.86969e-07
-1.37456e-07
1.91827e-07
-1.31553e-07
1.95901e-07
-1.24697e-07
1.99017e-07
-1.16886e-07
2.00979e-07
-1.08162e-07
-9.86411e-08
2.01609e-07
1.4748e-07
-1.59729e-07
-1.39978e-07
1.5492e-07
-1.57209e-07
1.6223e-07
-1.53833e-07
1.69323e-07
-1.49526e-07
1.76095e-07
-1.44228e-07
1.82415e-07
-1.37869e-07
1.88078e-07
-1.3035e-07
1.92814e-07
-1.21619e-07
1.96267e-07
-1.11615e-07
-1.00398e-07
1.98023e-07
1.27411e-07
-1.6763e-07
-1.19509e-07
1.35436e-07
-1.65234e-07
1.43526e-07
-1.61923e-07
1.51499e-07
-1.57428e-07
1.59547e-07
-1.5168e-07
1.67672e-07
-1.45494e-07
1.75291e-07
-1.37926e-07
1.8221e-07
-1.28538e-07
1.87927e-07
-1.17332e-07
-1.03957e-07
1.91578e-07
1.01911e-07
-1.75696e-07
-9.38441e-08
1.1024e-07
-1.73563e-07
1.18571e-07
-1.70211e-07
1.2722e-07
-1.65832e-07
1.36184e-07
-1.60689e-07
1.45915e-07
-1.54541e-07
1.55429e-07
-1.4731e-07
1.64746e-07
-1.37855e-07
1.73537e-07
-1.26122e-07
-1.10608e-07
1.78962e-07
7.14288e-08
-1.83694e-07
-6.34299e-08
7.97457e-08
-1.8188e-07
8.81039e-08
-1.78775e-07
9.69269e-08
-1.74699e-07
1.06202e-07
-1.70011e-07
1.1627e-07
-1.64347e-07
1.26591e-07
-1.57535e-07
1.37411e-07
-1.48675e-07
1.4903e-07
-1.3774e-07
-1.19649e-07
1.3428e-07
3.71516e-08
-1.9157e-07
-2.92705e-08
4.5342e-08
-1.9007e-07
5.35715e-08
-1.87576e-07
6.23209e-08
-1.83496e-07
7.13567e-08
-1.79163e-07
8.06343e-08
-1.73859e-07
9.00682e-08
-1.6696e-07
9.99985e-08
-1.58605e-07
1.10975e-07
-1.48716e-07
-1.35008e-07
8.88126e-08
6.26907e-10
-1.99614e-07
7.4209e-09
9.07003e-09
-1.9852e-07
1.78547e-08
-1.96431e-07
2.69162e-08
-1.93291e-07
3.63291e-08
-1.89044e-07
4.60125e-08
-1.83613e-07
5.60667e-08
-1.7701e-07
6.66828e-08
-1.69217e-07
7.82304e-08
-1.60263e-07
-1.50397e-07
8.05983e-08
-3.77594e-08
-2.08096e-07
4.62348e-08
-2.87453e-08
-2.07535e-07
-1.92388e-08
-2.05938e-07
-9.27001e-09
-2.03259e-07
1.14287e-09
-1.99457e-07
1.2013e-08
-1.94505e-07
2.33871e-08
-1.88404e-07
3.53714e-08
-1.812e-07
4.80819e-08
-1.72974e-07
-1.63816e-07
6.15014e-08
-7.83053e-08
-2.17092e-07
8.72974e-08
-6.86332e-08
-2.17207e-07
-5.83374e-08
-2.16234e-07
-4.74751e-08
-2.14122e-07
-3.60999e-08
-2.10832e-07
-2.42601e-08
-2.06343e-07
-1.1993e-08
-2.00676e-07
6.94475e-10
-1.93881e-07
1.38397e-08
-1.86119e-07
-1.77504e-07
2.75288e-08
-1.21294e-07
-2.26546e-07
1.30748e-07
-1.11024e-07
-2.27476e-07
-1.00019e-07
-2.27239e-07
-8.83741e-08
-2.25766e-07
-7.62079e-08
-2.22998e-07
-6.36622e-08
-2.18879e-07
-5.09344e-08
-2.1327e-07
-3.82034e-08
-2.06602e-07
-2.55311e-08
-1.98783e-07
-1.90324e-07
-1.27024e-08
-1.66655e-07
-2.36342e-07
1.7645e-07
-1.5589e-07
-2.3824e-07
-1.44248e-07
-2.38881e-07
-1.31843e-07
-2.38172e-07
-1.18823e-07
-2.36017e-07
-1.05401e-07
-2.32297e-07
-9.16589e-08
-2.26695e-07
-7.87273e-08
-2.176e-07
-6.65471e-08
-2.10838e-07
-2.01778e-07
-5.49474e-08
-2.1388e-07
-2.46302e-07
2.23841e-07
-2.02789e-07
-2.49331e-07
-1.90659e-07
-2.51011e-07
-1.77595e-07
-2.51236e-07
-1.63718e-07
-2.49892e-07
-1.49193e-07
-2.46813e-07
-1.34285e-07
-2.41567e-07
-1.16842e-07
-2.29947e-07
-1.00472e-07
-1.95814e-07
-1.51727e-07
-8.99616e-08
-2.61675e-07
-2.56284e-07
2.71657e-07
-2.50424e-07
-2.60582e-07
-2.38022e-07
-2.63412e-07
-2.2459e-07
-2.64667e-07
-2.10242e-07
-2.6424e-07
-1.95064e-07
-2.61982e-07
-1.7909e-07
-2.57441e-07
-1.54531e-07
-2.44722e-07
-1.02653e-07
-1.78153e-07
-1.54159e-07
-8.95646e-08
-3.075e-07
-2.66478e-07
3.17694e-07
-2.95816e-07
-2.72266e-07
-2.82798e-07
-2.7643e-07
-2.68608e-07
-2.78858e-07
-2.5339e-07
-2.79457e-07
-2.37203e-07
-2.78164e-07
-2.19678e-07
-2.74907e-07
-1.82133e-07
-2.68505e-07
-1.2055e-07
-2.15234e-07
-1.79037e-07
-1.01924e-07
-3.4847e-07
-2.77491e-07
3.59482e-07
-3.35492e-07
-2.85244e-07
-3.20707e-07
-2.91215e-07
-3.0429e-07
-2.95274e-07
-2.8641e-07
-2.97337e-07
-2.67191e-07
-2.97384e-07
-2.46596e-07
-2.95509e-07
-2.23232e-07
-2.91991e-07
-1.76873e-07
-2.86068e-07
-2.67406e-07
-1.33961e-07
-3.83179e-07
-2.89881e-07
3.9557e-07
-3.68097e-07
-3.00327e-07
-3.50472e-07
-3.08841e-07
-3.30491e-07
-3.15254e-07
-3.08368e-07
-3.1946e-07
-2.84333e-07
-3.21419e-07
-2.58651e-07
-3.21191e-07
-2.31715e-07
-3.18926e-07
-2.02931e-07
-3.14852e-07
-3.09131e-07
-1.61207e-07
-4.11712e-07
-3.03782e-07
4.25612e-07
-3.94235e-07
-3.17805e-07
-3.73354e-07
-3.29722e-07
-3.49308e-07
-3.393e-07
-3.22392e-07
-3.46376e-07
-2.92949e-07
-3.50863e-07
-2.61388e-07
-3.52752e-07
-2.28201e-07
-3.52113e-07
-1.93992e-07
-3.49061e-07
-3.43705e-07
-1.59418e-07
-4.34562e-07
-3.18863e-07
4.49643e-07
-4.14886e-07
-3.37481e-07
-3.90871e-07
-3.53736e-07
-3.6288e-07
-3.67291e-07
-3.31355e-07
-3.77901e-07
-2.96805e-07
-3.85413e-07
-2.59787e-07
-3.8977e-07
-2.20904e-07
-3.90996e-07
-1.80797e-07
-3.89169e-07
-3.84384e-07
-1.40117e-07
-4.51641e-07
-3.34449e-07
4.67229e-07
-4.30221e-07
-3.58901e-07
-4.03372e-07
-3.80585e-07
-3.71642e-07
-3.99021e-07
-3.35689e-07
-4.13854e-07
-2.96236e-07
-4.24866e-07
-2.54045e-07
-4.31961e-07
-2.09891e-07
-4.35151e-07
-1.6453e-07
-4.3453e-07
-4.30234e-07
-1.18681e-07
-4.61365e-07
-3.49488e-07
4.76415e-07
-4.38934e-07
-3.81324e-07
-4.09727e-07
-4.09787e-07
-3.74534e-07
-4.34211e-07
-3.34283e-07
-4.54103e-07
-2.89961e-07
-4.69187e-07
-2.4257e-07
-4.79352e-07
-1.93089e-07
-4.84632e-07
-1.42443e-07
-4.85175e-07
-4.81194e-07
-9.14829e-08
-4.59147e-07
-3.6234e-07
4.72086e-07
-4.36989e-07
-4.03418e-07
-4.06449e-07
-4.40288e-07
-3.68529e-07
-4.72113e-07
-3.24477e-07
-4.98146e-07
-2.75601e-07
-5.18059e-07
-2.23181e-07
-5.3177e-07
-1.68434e-07
-5.39379e-07
-1.12484e-07
-5.41125e-07
-5.37333e-07
-5.63448e-08
-4.34783e-07
-3.6785e-07
4.40959e-07
-4.15989e-07
-4.21706e-07
-3.8659e-07
-4.69377e-07
-3.47823e-07
-5.10745e-07
-3.01445e-07
-5.44461e-07
-2.49158e-07
-5.70322e-07
-1.92611e-07
-5.8831e-07
-1.33314e-07
-5.98674e-07
-7.26136e-08
-6.01825e-07
-5.98241e-07
-1.17057e-08
-3.44891e-07
-2.04612e-07
2.6143e-07
-3.57479e-07
-3.78826e-07
-3.38467e-07
-4.86703e-07
-3.03723e-07
-5.44539e-07
-2.58386e-07
-5.89398e-07
-2.05191e-07
-6.23365e-07
-1.46512e-07
-6.46943e-07
-8.43737e-08
-6.60797e-07
-2.04103e-08
-6.65773e-07
-6.62648e-07
4.40036e-08
-5.12373e-08
-3.57441e-08
3.62609e-08
-1.54981e-07
-4.58287e-08
-2.31987e-07
-2.51723e-07
-2.26325e-07
-5.29789e-07
-1.89008e-07
-6.24357e-07
-1.38719e-07
-6.72689e-07
-8.07785e-08
-7.04186e-07
-1.8345e-08
-7.22806e-07
4.64965e-08
-7.30507e-07
-7.28355e-07
1.12225e-07
-7.02162e-09
-2.82921e-08
1.55531e-08
-2.95004e-08
-2.10189e-08
-4.1504e-08
-3.28523e-08
-9.6243e-08
-1.8416e-07
-9.08455e-08
-5.29656e-07
-4.98079e-08
-6.96328e-07
4.92897e-09
-7.51681e-07
6.55405e-08
-7.82063e-07
1.28667e-07
-7.934e-07
-7.92735e-07
1.9309e-07
-5.02681e-09
-4.80007e-08
9.40647e-09
-3.3366e-09
-1.93346e-08
-6.94808e-09
-2.68021e-08
-4.63089e-09
-3.33688e-08
3.55769e-09
-2.15083e-07
5.32276e-08
-6.27554e-07
1.06967e-07
-7.93189e-07
1.63943e-07
-8.3703e-07
2.23236e-07
-8.5237e-07
-8.53493e-07
2.84054e-07
5.66472e-10
-2.99243e-08
-2.86802e-09
1.1848e-09
-1.50981e-08
2.5398e-09
-2.27457e-08
4.4808e-09
-3.37018e-08
5.39815e-08
-6.37526e-08
1.66724e-07
-4.75799e-07
2.17848e-07
-8.25027e-07
2.70201e-07
-8.87403e-07
3.2426e-07
-9.0611e-07
-9.09037e-07
3.7986e-07
4.72301e-09
-2.22359e-09
-6.40562e-09
1.03042e-08
-8.84718e-09
1.18841e-08
-1.72375e-08
1.53897e-08
-2.70679e-08
6.08463e-08
-5.29282e-08
2.55989e-07
-3.72904e-07
3.30068e-07
-8.58808e-07
3.76864e-07
-9.33084e-07
4.24726e-07
-9.53774e-07
-9.5832e-07
4.74047e-07
2.17513e-09
-3.45779e-09
-8.53531e-10
4.14386e-08
-4.30046e-08
3.26109e-08
-1.07543e-07
3.85154e-08
-3.89237e-08
5.37978e-08
-7.41522e-08
3.31713e-07
-3.78574e-07
4.36056e-07
-9.07313e-07
4.76648e-07
-9.72908e-07
5.17822e-07
-9.94814e-07
-1.00085e-06
5.6038e-07
1.26991e-08
-1.44232e-08
-1.66454e-09
9.02533e-08
-8.4373e-08
8.17385e-08
-1.38864e-07
6.92782e-08
-5.24901e-08
1.24382e-07
-1.18788e-07
4.61183e-07
-6.1987e-07
5.2648e-07
-9.56768e-07
5.62007e-07
-1.00788e-06
5.96967e-07
-1.02968e-06
-1.03696e-06
6.33104e-07
6.16696e-08
-5.82625e-08
-5.21465e-09
1.38674e-07
-1.35588e-07
9.51495e-08
-1.09117e-07
8.95996e-08
-8.08477e-08
2.6494e-07
-2.41715e-07
5.5555e-07
-8.72884e-07
5.9619e-07
-9.96801e-07
6.26421e-07
-1.03799e-06
6.56209e-07
-1.05944e-06
-1.0674e-06
6.86653e-07
1.52698e-07
-1.52512e-07
-3.3976e-08
1.28679e-07
-1.4749e-07
1.25152e-07
-1.11685e-07
1.63748e-07
-1.51551e-07
5.24425e-07
-6.10631e-07
6.10968e-07
-9.5753e-07
6.41151e-07
-1.02692e-06
6.66978e-07
-1.06379e-06
6.92436e-07
-1.0849e-06
-1.09239e-06
7.17424e-07
1.67248e-07
-1.97946e-07
-1.52911e-07
1.06342e-07
-1.29694e-07
1.34827e-07
-1.51372e-07
3.21101e-07
-3.8317e-07
5.81136e-07
-8.98631e-07
6.27483e-07
-1.00414e-06
6.55994e-07
-1.05547e-06
6.81284e-07
-1.08909e-06
7.04397e-07
-1.10801e-06
-1.11269e-06
7.24696e-07
1.34263e-07
-1.66066e-07
-2.06131e-07
1.27306e-07
-1.48391e-07
2.11934e-07
-2.47775e-07
5.16973e-07
-7.74683e-07
5.85809e-07
-9.6857e-07
6.20457e-07
-1.03896e-06
6.49883e-07
-1.08492e-06
6.75561e-07
-1.11477e-06
6.96459e-07
-1.12891e-06
-1.12806e-06
7.11827e-07
7.00702e-08
-1.0581e-07
-1.28297e-07
1.19614e-07
-1.98269e-07
3.86602e-07
-6.36196e-07
5.12183e-07
-9.35699e-07
5.61894e-07
-1.01867e-06
5.98527e-07
-1.07564e-06
6.2986e-07
-1.11626e-06
6.55151e-07
-1.14007e-06
6.73073e-07
-1.14683e-06
-1.13807e-06
6.83084e-07
8.33977e-08
-1.20687e-07
-5.49863e-08
2.1688e-07
-3.50711e-07
4.35394e-07
-8.78615e-07
4.90711e-07
-9.91302e-07
5.32364e-07
-1.06036e-06
5.6911e-07
-1.1124e-06
5.99996e-07
-1.14715e-06
6.23208e-07
-1.16328e-06
6.37561e-07
-1.16118e-06
-1.14327e-06
6.42761e-07
6.94731e-08
-1.43326e-07
-3.20422e-08
3.32775e-07
-6.96581e-07
4.05024e-07
-9.59229e-07
4.53728e-07
-1.04009e-06
4.95282e-07
-1.10193e-06
5.30913e-07
-1.14803e-06
5.59356e-07
-1.17559e-06
5.79294e-07
-1.18322e-06
5.90016e-07
-1.17191e-06
-1.14453e-06
5.91277e-07
1.45977e-07
-2.24804e-07
-4.91092e-08
3.31763e-07
-8.75242e-07
3.78343e-07
-1.00577e-06
4.17083e-07
-1.07883e-06
4.52183e-07
-1.13703e-06
4.82418e-07
-1.17826e-06
5.06118e-07
-1.19929e-06
5.22137e-07
-1.19924e-06
5.30019e-07
-1.17979e-06
-1.14343e-06
5.28914e-07
1.94137e-07
-4.01174e-07
-8.12145e-09
2.76742e-07
-9.56962e-07
3.19744e-07
-1.04878e-06
3.56744e-07
-1.11583e-06
3.89358e-07
-1.16964e-06
4.16435e-07
-1.20534e-06
4.3668e-07
-1.21953e-06
4.49718e-07
-1.21227e-06
4.55946e-07
-1.18602e-06
-1.14156e-06
4.54077e-07
1.57549e-07
-5.397e-07
-2.86062e-09
2.13535e-07
-1.01229e-06
2.53998e-07
-1.08924e-06
2.88897e-07
-1.15073e-06
3.18821e-07
-1.19956e-06
3.42452e-07
-1.22897e-06
3.58736e-07
-1.23582e-06
3.6816e-07
-1.2217e-06
3.7215e-07
-1.19e-06
-1.13309e-06
3.63676e-07
1.22387e-07
-6.4897e-07
-2.26694e-09
1.64416e-07
-1.05429e-06
1.97521e-07
-1.12234e-06
2.26784e-07
-1.17999e-06
2.51874e-07
-1.22465e-06
2.70521e-07
-1.24762e-06
2.81567e-07
-1.24686e-06
2.86298e-07
-1.22643e-06
2.87152e-07
-1.19086e-06
-1.10959e-06
2.63681e-07
1.02925e-07
-7.536e-07
-3.23048e-09
1.29127e-07
-1.08049e-06
1.52081e-07
-1.1453e-06
1.741e-07
-1.20201e-06
1.93322e-07
-1.24387e-06
2.06018e-07
-1.26031e-06
2.10482e-07
-1.25133e-06
2.08025e-07
-1.22397e-06
2.01047e-07
-1.18388e-06
-1.0332e-06
1.37166e-07
7.53128e-08
-8.35421e-07
-4.10106e-09
9.42651e-08
-1.09945e-06
1.12303e-07
-1.16333e-06
1.30078e-07
-1.21979e-06
1.45368e-07
-1.25916e-06
1.53819e-07
-1.26877e-06
1.53377e-07
-1.25088e-06
1.44727e-07
-1.21532e-06
1.29071e-07
-1.16823e-06
-9.50007e-07
5.65799e-08
5.35183e-08
-8.8024e-07
-5.13597e-09
6.79479e-08
-1.11387e-06
8.29399e-08
-1.17833e-06
9.77303e-08
-1.23458e-06
1.10435e-07
-1.27187e-06
1.17011e-07
-1.27534e-06
1.1537e-07
-1.24924e-06
1.0526e-07
-1.20521e-06
8.60087e-08
-1.14897e-06
-9.19597e-07
3.90334e-08
4.13637e-08
-9.05316e-07
-7.9716e-09
5.23775e-08
-1.12488e-06
6.44509e-08
-1.1904e-06
7.62262e-08
-1.24635e-06
8.64903e-08
-1.28213e-06
9.26094e-08
-1.28146e-06
9.28759e-08
-1.24951e-06
8.63648e-08
-1.1987e-06
7.1034e-08
-1.13364e-06
-9.18416e-07
3.37574e-08
3.41812e-08
-9.26751e-07
-8.58167e-09
4.2811e-08
-1.1335e-06
5.2344e-08
-1.19993e-06
6.11208e-08
-1.25513e-06
6.82373e-08
-1.28925e-06
7.36235e-08
-1.28685e-06
7.65098e-08
-1.2524e-06
7.58923e-08
-1.19808e-06
7.02612e-08
-1.12801e-06
-9.19684e-07
3.8069e-08
2.85979e-08
-9.51564e-07
-7.45404e-09
3.57092e-08
-1.14061e-06
4.34796e-08
-1.2077e-06
4.96709e-08
-1.26132e-06
5.27171e-08
-1.2923e-06
5.57272e-08
-1.28986e-06
5.91283e-08
-1.2558e-06
6.10168e-08
-1.19997e-06
5.97337e-08
-1.12673e-06
-9.29906e-07
3.6639e-08
2.29869e-08
-9.7589e-07
-6.43412e-09
2.9481e-08
-1.14711e-06
3.65797e-08
-1.2148e-06
4.12213e-08
-1.26596e-06
4.07828e-08
-1.29186e-06
4.16412e-08
-1.29071e-06
4.64202e-08
-1.26058e-06
5.17818e-08
-1.20533e-06
5.58346e-08
-1.13078e-06
-9.47773e-07
3.84742e-08
1.38965e-08
-9.95071e-07
-3.31541e-09
2.19578e-08
-1.15517e-06
2.98483e-08
-1.22269e-06
3.39079e-08
-1.27002e-06
3.11284e-08
-1.28908e-06
3.00691e-08
-1.28966e-06
3.66432e-08
-1.26715e-06
4.62189e-08
-1.21491e-06
5.65496e-08
-1.14111e-06
-9.59449e-07
4.02311e-08
1.59643e-09
-1.00625e-06
5.94132e-09
1.37419e-08
-1.16731e-06
2.34049e-08
-1.23235e-06
2.71571e-08
-1.27378e-06
2.30822e-08
-1.285e-06
2.00265e-08
-1.2866e-06
2.71568e-08
-1.27428e-06
3.99765e-08
-1.22773e-06
5.58124e-08
-1.15695e-06
-9.70232e-07
4.3622e-08
-4.27426e-09
-1.01334e-06
1.21224e-08
9.89148e-09
-1.18148e-06
1.97575e-08
-1.24222e-06
2.20713e-08
-1.27609e-06
1.69828e-08
-1.27991e-06
1.20254e-08
-1.28164e-06
1.74883e-08
-1.27974e-06
3.162e-08
-1.24186e-06
5.05369e-08
-1.17587e-06
-9.71971e-07
4.24068e-08
-5.11143e-09
-1.01954e-06
1.80493e-08
9.43014e-09
-1.19602e-06
1.78123e-08
-1.2506e-06
1.7566e-08
-1.27584e-06
1.15919e-08
-1.27394e-06
5.59849e-09
-1.27565e-06
7.99524e-09
-1.28214e-06
2.23771e-08
-1.25624e-06
4.18125e-08
-1.1953e-06
-9.70517e-07
3.77837e-08
4.88149e-11
-1.02023e-06
9.06203e-09
7.74764e-09
-1.20372e-06
1.36601e-08
-1.25652e-06
1.12153e-08
-1.2734e-06
5.18063e-09
-1.2679e-06
-8.76139e-10
-1.26959e-06
-2.11808e-09
-1.2809e-06
1.0958e-08
-1.26932e-06
2.68295e-08
-1.21117e-06
-9.67675e-07
2.84559e-08
-1.20629e-08
-1.02295e-06
2.13525e-08
-1.70233e-09
-1.21408e-06
6.85965e-09
-1.26508e-06
4.61595e-09
-1.27115e-06
-7.07491e-10
-1.26258e-06
-6.66585e-09
-1.26363e-06
-1.17611e-08
-1.2758e-06
-1.82593e-09
-1.27925e-06
6.53635e-09
-1.21953e-06
-9.58582e-07
9.60926e-09
-4.80442e-09
-1.01513e-06
2.40123e-09
4.83597e-10
-1.21937e-06
7.25762e-09
-1.27185e-06
2.32392e-09
-1.26622e-06
-3.77549e-09
-1.25648e-06
-1.05348e-08
-1.25688e-06
-1.87e-08
-1.26764e-06
-1.28831e-08
-1.28507e-06
-8.11686e-09
-1.22431e-06
-9.46586e-07
-2.81402e-12
-1.58106e-09
-1.00931e-06
7.63408e-32
5.68741e-09
-1.22664e-06
1.12285e-08
-1.27739e-06
2.88209e-09
-1.25787e-06
-4.67472e-09
-1.24893e-06
-1.28249e-08
-1.24873e-06
-2.29473e-08
-1.25752e-06
-1.99697e-08
-1.28805e-06
-7.41616e-09
-1.23688e-06
-9.52582e-07
-1.93861e-11
-1.05612e-08