/*--------------------------------*- C++ -*----------------------------------*\
  =========                 |
  \\      /  F ield         | OpenFOAM: The Open Source CFD Toolbox
   \\    /   O peration     | Website:  https://openfoam.org
    \\  /    A nd           | Version:  8
     \\/     M anipulation  |
\*---------------------------------------------------------------------------*/
FoamFile
{
    version     2.0;
    format      ascii;
    class       volVectorField;
    location    "2.1";
    object      U;
}
// * * * * * * * * * * * * * * * * * * * * * * * * * * * * * * * * * * * * * //

dimensions      [0 1 -1 0 0 0 0];

internalField   nonuniform List<vector> 
9150
(
(0.0537728 -0.428853 0)
(0.0879114 -0.622276 0)
(0.073096 -0.631456 0)
(0.048633 -0.64374 0)
(0.0170178 -0.654455 0)
(-0.0170589 -0.654449 0)
(-0.0486668 -0.643724 0)
(-0.0731198 -0.63144 0)
(-0.0879242 -0.622259 0)
(-0.0537771 -0.428825 0)
(0.0407621 -0.522885 0)
(0.0573599 -0.625683 0)
(0.0420562 -0.613218 0)
(0.0293994 -0.622463 0)
(0.0104749 -0.628869 0)
(-0.010503 -0.628866 0)
(-0.0294233 -0.622455 0)
(-0.0420745 -0.613209 0)
(-0.0573723 -0.625676 0)
(-0.0407671 -0.522866 0)
(0.0252371 -0.558025 0)
(0.0324521 -0.613813 0)
(0.022976 -0.604476 0)
(0.0172637 -0.609995 0)
(0.0062341 -0.613194 0)
(-0.00625317 -0.613193 0)
(-0.0172802 -0.609991 0)
(-0.0229886 -0.604471 0)
(-0.0324617 -0.613811 0)
(-0.0252417 -0.558015 0)
(0.0153522 -0.584759 0)
(0.0174375 -0.607465 0)
(0.0116998 -0.60114 0)
(0.00887407 -0.603284 0)
(0.00323634 -0.604399 0)
(-0.00324805 -0.604399 0)
(-0.00888431 -0.603283 0)
(-0.0117076 -0.601138 0)
(-0.0174438 -0.607465 0)
(-0.0153553 -0.584756 0)
(0.00626206 -0.597169 0)
(0.00554528 -0.601394 0)
(0.00357149 -0.60004 0)
(0.00267972 -0.600348 0)
(0.000992345 -0.600483 0)
(-0.000995061 -0.600483 0)
(-0.00268213 -0.600348 0)
(-0.00357337 -0.60004 0)
(-0.005547 -0.601395 0)
(-0.00626302 -0.597168 0)
(0.469635 -1.16251 1.55454e-24)
(0.28274 -1.0862 0)
(0.163052 -1.0695 0)
(0.0919768 -1.05782 0)
(0.0301198 -1.05311 0)
(-0.0305748 -1.05305 0)
(-0.0923829 -1.05762 0)
(-0.163384 -1.0692 0)
(-0.282969 -1.08581 0)
(-0.469536 -1.16196 -1.54844e-24)
(0.33421 -0.844423 4.27677e-25)
(0.287202 -0.936943 0)
(0.188215 -0.936929 0)
(0.108098 -0.93685 0)
(0.0355891 -0.939205 0)
(-0.0358457 -0.939158 0)
(-0.108318 -0.936721 0)
(-0.18838 -0.936748 0)
(-0.28726 -0.93672 0)
(-0.334143 -0.844146 -4.26418e-25)
(0.279151 -0.702607 7.16272e-26)
(0.259078 -0.804784 0)
(0.178113 -0.817583 0)
(0.104565 -0.828413 0)
(0.0347608 -0.836524 0)
(-0.0349147 -0.836496 0)
(-0.104694 -0.828337 0)
(-0.178198 -0.817477 0)
(-0.259103 -0.804668 0)
(-0.279124 -0.702483 -7.12449e-26)
(0.199964 -0.554362 2.66101e-25)
(0.21671 -0.709469 0)
(0.154295 -0.725888 0)
(0.0913464 -0.742047 0)
(0.0304934 -0.753964 0)
(-0.0305886 -0.753947 0)
(-0.0914245 -0.742001 0)
(-0.154345 -0.725829 0)
(-0.216723 -0.709409 0)
(-0.199951 -0.554292 -2.66199e-25)
(0.118691 -0.445339 -4.35024e-25)
(0.156383 -0.644257 -6.23549e-25)
(0.116694 -0.663768 -2.11049e-25)
(0.0709218 -0.681215 -1.38344e-25)
(0.0239322 -0.69422 -7.91781e-27)
(-0.0239938 -0.69421 -7.98776e-27)
(-0.0709718 -0.681188 -1.38518e-25)
(-0.116727 -0.663737 -2.11115e-25)
(-0.156394 -0.644225 -6.23578e-25)
(-0.118688 -0.445299 -4.34985e-25)
(0.0233884 -0.918563 0)
(-0.0352774 -1.34319 0)
(0.0234931 -1.27285 0)
(-0.00546265 -1.22773 0)
(0.00267417 -1.22631 0)
(-0.00506593 -1.22577 0)
(0.000867857 -1.22808 0)
(-0.0275217 -1.2751 0)
(0.0286681 -1.3405 0)
(-0.0281855 -0.898357 0)
(0.0493917 -0.908728 0)
(-0.0217931 -1.33503 0)
(0.023155 -1.27185 0)
(-0.000678578 -1.22525 0)
(9.95307e-05 -1.22417 0)
(-0.00206116 -1.22366 0)
(-0.00309835 -1.22555 0)
(-0.0258228 -1.27203 0)
(0.0176094 -1.33412 0)
(-0.0525399 -0.898911 0)
(0.0773888 -0.94575 0)
(-0.023493 -1.34904 0)
(0.0168092 -1.27636 0)
(0.0048276 -1.23185 0)
(-0.00102825 -1.22721 0)
(-0.000622552 -1.22697 0)
(-0.00715569 -1.23184 0)
(-0.0183273 -1.27572 0)
(0.0206869 -1.34815 0)
(-0.0788363 -0.939398 0)
(0.144122 -1.07951 0)
(0.00203028 -1.36682 0)
(0.014991 -1.27215 0)
(0.0211999 -1.22639 0)
(0.00514703 -1.21479 0)
(-0.00645285 -1.2147 0)
(-0.0224858 -1.22608 0)
(-0.0157941 -1.27165 0)
(-0.00387804 -1.36629 0)
(-0.144854 -1.07628 0)
(0.298485 -1.21917 0)
(0.126414 -1.32233 0)
(0.0686031 -1.21076 0)
(0.0560103 -1.16923 0)
(0.0196524 -1.15666 0)
(-0.0204362 -1.15657 0)
(-0.0566711 -1.1689 0)
(-0.069243 -1.2103 0)
(-0.1273 -1.32187 0)
(-0.298579 -1.21776 0)
(-0.0199829 -0.009273 0)
(-0.0133049 -0.00945497 0)
(-0.00651063 -0.00957582 0)
(0.000346616 -0.00962359 0)
(0.00721801 -0.00959461 0)
(0.014057 -0.00949531 0)
(0.0208148 -0.00933231 0)
(0.0274437 -0.00910983 0)
(0.033898 -0.00883251 0)
(0.0401311 -0.00850725 0)
(-0.0145029 -0.0192385 0)
(-0.00907965 -0.0196723 0)
(-0.00354536 -0.0199533 0)
(0.00205655 -0.0200828 0)
(0.00768046 -0.0200608 0)
(0.0132815 -0.0198909 0)
(0.0188166 -0.0195769 0)
(0.0242442 -0.0191233 0)
(0.0295224 -0.0185338 0)
(0.0346121 -0.0178121 0)
(-0.0107904 -0.0286812 0)
(-0.00622456 -0.0293581 0)
(-0.00156309 -0.0298014 0)
(0.00315759 -0.0300126 0)
(0.00789888 -0.0299955 0)
(0.0126228 -0.029754 0)
(0.0172919 -0.0292927 0)
(0.0218696 -0.0286166 0)
(0.0263196 -0.0277313 0)
(0.0306072 -0.0266426 0)
(-0.00801879 -0.036989 0)
(-0.00410119 -0.037884 0)
(-0.000101562 -0.0384727 0)
(0.00394819 -0.0387577 0)
(0.008015 -0.038743 0)
(0.012066 -0.0384336 0)
(0.0160685 -0.0378351 0)
(0.0199906 -0.0369539 0)
(0.0238005 -0.0357975 0)
(0.0274665 -0.0343745 0)
(-0.0058887 -0.0441553 0)
(-0.0024896 -0.0452352 0)
(0.000978481 -0.0459467 0)
(0.00448818 -0.0462927 0)
(0.00801094 -0.0462776 0)
(0.0115181 -0.0459065 0)
(0.014981 -0.0451856 0)
(0.0183716 -0.0441222 0)
(0.0216616 -0.042725 0)
(0.024822 -0.0410045 0)
(-0.00427138 -0.0503996 0)
(-0.00129565 -0.0516342 0)
(0.00173648 -0.0524471 0)
(0.00480189 -0.0528415 0)
(0.00787625 -0.0528216 0)
(0.0109349 -0.0523925 0)
(0.0139528 -0.0515604 0)
(0.0169056 -0.0503326 0)
(0.0197676 -0.0487179 0)
(0.0225122 -0.0467272 0)
(-0.00307464 -0.055894 0)
(-0.000451153 -0.0572544 0)
(0.00221679 -0.0581482 0)
(0.00491015 -0.0585787 0)
(0.00760879 -0.0585499 0)
(0.0102919 -0.0580664 0)
(0.0129382 -0.0571334 0)
(0.0155263 -0.0557575 0)
(0.0180335 -0.0539464 0)
(0.0204353 -0.0517099 0)
(-0.0022174 -0.060759 0)
(0.000105443 -0.062218 0)
(0.00246159 -0.0631737 0)
(0.00483605 -0.0636294 0)
(0.00721282 -0.0635889 0)
(0.00957493 -0.0630555 0)
(0.011905 -0.0620333 0)
(0.014185 -0.0605268 0)
(0.016395 -0.0585416 0)
(0.0185128 -0.0560848 0)
(-0.00162254 -0.0650798 0)
(0.000435098 -0.0666118 0)
(0.00251551 -0.0676119 0)
(0.00460776 -0.0680835 0)
(0.00669989 -0.0680298 0)
(0.00877899 -0.0674532 0)
(0.0108317 -0.0663557 0)
(0.0128437 -0.0647394 0)
(0.0147987 -0.0626064 0)
(0.0166774 -0.0599594 0)
(-0.00121302 -0.0689123 0)
(0.000601847 -0.0704928 0)
(0.00242918 -0.0715206 0)
(0.00426196 -0.0719994 0)
(0.00609219 -0.0719323 0)
(0.0079111 -0.0713204 0)
(0.00970951 -0.0701638 0)
(0.0114775 -0.0684618 0)
(0.0132028 -0.0662123 0)
(0.0148705 -0.0634127 0)
(-0.000907721 -0.0722896 0)
(0.000676688 -0.0738942 0)
(0.00226331 -0.0749328 0)
(0.00384858 -0.0754098 0)
(0.00542813 -0.0753281 0)
(0.00699708 -0.0746882 0)
(0.00855032 -0.0734887 0)
(0.0100823 -0.0717261 0)
(0.0115856 -0.069395 0)
(0.0130507 -0.066487 0)
(-0.000622369 -0.0752277 0)
(0.000737772 -0.0768326 0)
(0.00209021 -0.0778646 0)
(0.00343412 -0.0783291 0)
(0.00476796 -0.0782289 0)
(0.0060899 -0.0775646 0)
(0.00739813 -0.0763338 0)
(0.00869083 -0.0745317 0)
(0.00996495 -0.0721504 0)
(0.0112163 -0.0691777 0)
(-0.000274604 -0.0777303 0)
(0.000867012 -0.0793153 0)
(0.00199221 -0.0803247 0)
(0.00310195 -0.0807646 0)
(0.00419647 -0.0806388 0)
(0.00527584 -0.0799477 0)
(0.00634024 -0.0786892 0)
(0.00739014 -0.0768581 0)
(0.00842525 -0.0744458 0)
(0.00944512 -0.071439 0)
(0.000196151 -0.0798192 0)
(0.00113547 -0.0813646 0)
(0.00204987 -0.0823352 0)
(0.0029423 -0.0827379 0)
(0.00381468 -0.0825766 0)
(0.00466828 -0.0818519 0)
(0.00550439 -0.0805616 0)
(0.00632452 -0.0787009 0)
(0.00712945 -0.0762616 0)
(0.00792027 -0.0732312 0)
(0.000864867 -0.0815331 0)
(0.00161903 -0.0830199 0)
(0.00234411 -0.0839384 0)
(0.00304473 -0.0842943 0)
(0.0037243 -0.0840904 0)
(0.00438498 -0.0833267 0)
(0.00502899 -0.0820005 0)
(0.00565877 -0.0801068 0)
(0.00627606 -0.0776375 0)
(0.00688292 -0.0745811 0)
(0.00178328 -0.0828932 0)
(0.0023693 -0.0843193 0)
(0.00293035 -0.0851866 0)
(0.00347156 -0.0854991 0)
(0.00399719 -0.0852583 0)
(0.00451032 -0.0844638 0)
(0.00501474 -0.0831132 0)
(0.0055151 -0.0812023 0)
(0.0060164 -0.0787253 0)
(0.00652543 -0.0756741 0)
(0.00294233 -0.0839305 0)
(0.00338683 -0.0853117 0)
(0.00381596 -0.0861434 0)
(0.00423432 -0.0864283 0)
(0.00464592 -0.0861675 0)
(0.0050538 -0.085361 0)
(0.00546197 -0.0840079 0)
(0.0058755 -0.0821062 0)
(0.00629972 -0.0796535 0)
(0.00674114 -0.0766466 0)
(0.0043117 -0.0847023 0)
(0.00465008 -0.0860634 0)
(0.0049855 -0.0868818 0)
(0.00532108 -0.0871595 0)
(0.00565983 -0.0868978 0)
(0.00600398 -0.0860975 0)
(0.00635692 -0.0847588 0)
(0.00672315 -0.0828821 0)
(0.00710743 -0.0804673 0)
(0.00751553 -0.077514 0)
(0.0058512 -0.0852869 0)
(0.00612823 -0.0866562 0)
(0.0064142 -0.0874857 0)
(0.00671051 -0.0877775 0)
(0.00701891 -0.0875338 0)
(0.00734066 -0.0867564 0)
(0.00767819 -0.0854471 0)
(0.00803502 -0.0836084 0)
(0.00841487 -0.0812425 0)
(0.00882231 -0.0783515 0)
(0.00753049 -0.0857842 0)
(0.00779651 -0.0871854 0)
(0.00807929 -0.0880459 0)
(0.00837901 -0.0883689 0)
(0.00869664 -0.0881579 0)
(0.00903263 -0.0874162 0)
(0.0093886 -0.0861475 0)
(0.00976714 -0.084356 0)
(0.0101709 -0.0820463 0)
(0.0106035 -0.0792229 0)
(0.0093493 -0.0863067 0)
(0.00965404 -0.0877503 0)
(0.00997676 -0.0886506 0)
(0.0103178 -0.0890126 0)
(0.0106784 -0.088841 0)
(0.0110588 -0.0881404 0)
(0.0114602 -0.0869158 0)
(0.0118844 -0.085173 0)
(0.012333 -0.0829178 0)
(0.0128075 -0.0801568 0)
(0.0113538 -0.0869571 0)
(0.0117342 -0.088437 0)
(0.0121277 -0.0893735 0)
(0.0125366 -0.0897725 0)
(0.0129632 -0.0896395 0)
(0.0134085 -0.0889798 0)
(0.0138742 -0.0877985 0)
(0.0143619 -0.0861018 0)
(0.0148724 -0.0838961 0)
(0.0154063 -0.081188 0)
(0.0136281 -0.0877953 0)
(0.0140971 -0.0892941 0)
(0.014572 -0.090255 0)
(0.0150577 -0.0906835 0)
(0.0155583 -0.0905845 0)
(0.0160764 -0.0899626 0)
(0.016614 -0.0888226 0)
(0.017173 -0.0871698 0)
(0.017754 -0.0850103 0)
(0.018357 -0.0823502 0)
(0.0162608 -0.0888199 0)
(0.0168047 -0.0903198 0)
(0.0173497 -0.0912937 0)
(0.0179032 -0.091745 0)
(0.018471 -0.0916766 0)
(0.0190565 -0.0910911 0)
(0.0196623 -0.0899916 0)
(0.0202898 -0.0883822 0)
(0.0209394 -0.0862678 0)
(0.0216104 -0.0836539 0)
(0.0193115 -0.0899741 0)
(0.0198951 -0.0914665 0)
(0.0204813 -0.0924506 0)
(0.0210798 -0.0929258 0)
(0.0216968 -0.092891 0)
(0.0223359 -0.0923453 0)
(0.0229984 -0.0912891 0)
(0.0236849 -0.0897246 0)
(0.0243942 -0.0876555 0)
(0.0251246 -0.0850866 0)
(0.0227899 -0.0911583 0)
(0.0233647 -0.0926531 0)
(0.0239546 -0.0936615 0)
(0.0245695 -0.0941758 0)
(0.0252147 -0.0941887 0)
(0.0258914 -0.0936944 0)
(0.0265985 -0.0926896 0)
(0.0273334 -0.0911743 0)
(0.0280921 -0.0891509 0)
(0.0288704 -0.0866239 0)
(0.0266359 -0.0922575 0)
(0.0271544 -0.0937897 0)
(0.0277137 -0.0948587 0)
(0.0283222 -0.0954461 0)
(0.0289816 -0.0955351 0)
(0.0296879 -0.0951133 0)
(0.0304346 -0.0941734 0)
(0.0312137 -0.0927129 0)
(0.0320168 -0.0907339 0)
(0.0328354 -0.0882417 0)
(0.0307334 -0.0931683 0)
(0.0311583 -0.0948026 0)
(0.031668 -0.0959964 0)
(0.0322655 -0.0967125 0)
(0.0329436 -0.096921 0)
(0.0336886 -0.0966012 0)
(0.0344847 -0.0957419 0)
(0.0353162 -0.0943398 0)
(0.036168 -0.0923985 0)
(0.0370267 -0.0899263 0)
(0.034925 -0.0938092 0)
(0.0352389 -0.0956547 0)
(0.0357099 -0.0970742 0)
(0.0363243 -0.0979995 0)
(0.037056 -0.0983832 0)
(0.0378741 -0.0981973 0)
(0.0387492 -0.0974298 0)
(0.0396552 -0.0960807 0)
(0.0405697 -0.0941591 0)
(0.0414742 -0.0916796 0)
(0.0390358 -0.0941304 0)
(0.0392598 -0.0963774 0)
(0.0397562 -0.0981746 0)
(0.0404666 -0.0994109 0)
(0.0413269 -0.100025 0)
(0.0422801 -0.0999915 0)
(0.0432801 -0.0993067 0)
(0.0442906 -0.0979828 0)
(0.0452836 -0.0960414 0)
(0.0462379 -0.0935083 0)
(0.0429065 -0.0941277 0)
(0.0431605 -0.0971226 0)
(0.043847 -0.0995079 0)
(0.0447983 -0.101152 0)
(0.0458953 -0.102017 0)
(0.0470548 -0.102108 0)
(0.0482192 -0.101453 0)
(0.0493496 -0.100089 0)
(0.0504186 -0.0980577 0)
(0.0514077 -0.0954013 0)
(0.0465685 -0.0942161 0)
(0.0471979 -0.0984146 0)
(0.0483611 -0.101526 0)
(0.049715 -0.103548 0)
(0.0511181 -0.10456 0)
(0.0524974 -0.104652 0)
(0.0538063 -0.103902 0)
(0.0550165 -0.102384 0)
(0.0561111 -0.100162 0)
(0.0570804 -0.0972945 0)
(0.0519576 -0.0950873 0)
(0.0529595 -0.100622 0)
(0.054441 -0.104336 0)
(0.0560475 -0.106552 0)
(0.0575896 -0.107525 0)
(0.0590146 -0.107451 0)
(0.0603084 -0.106469 0)
(0.0614574 -0.104683 0)
(0.0624549 -0.102179 0)
(0.0632987 -0.0990271 0)
(0.058518 -0.097575 0)
(0.0603415 -0.103913 0)
(0.0620211 -0.107654 0)
(0.0637307 -0.109718 0)
(0.0652222 -0.110446 0)
(0.0665015 -0.110077 0)
(0.0676053 -0.108778 0)
(0.0685423 -0.106668 0)
(0.0693151 -0.103842 0)
(0.0699259 -0.100375 0)
(0.0658988 -0.1037 0)
(0.0685368 -0.108528 0)
(0.0703594 -0.11134 0)
(0.0720183 -0.112763 0)
(0.0733223 -0.113004 0)
(0.0743516 -0.112226 0)
(0.0751782 -0.110558 0)
(0.0758282 -0.108104 0)
(0.0763121 -0.104951 0)
(0.0766349 -0.101171 0)
(0.0744405 -0.110565 0)
(0.0766871 -0.113281 0)
(0.0785171 -0.114846 0)
(0.0799539 -0.115421 0)
(0.0810095 -0.115058 0)
(0.081793 -0.11381 0)
(0.0823645 -0.111747 0)
(0.082751 -0.108943 0)
(0.082966 -0.105465 0)
(0.0830158 -0.101376 0)
(0.0815221 -0.115881 0)
(0.0836384 -0.117189 0)
(0.0853006 -0.117783 0)
(0.0865506 -0.11763 0)
(0.0874775 -0.116689 0)
(0.0881407 -0.114964 0)
(0.0885757 -0.112492 0)
(0.0888045 -0.109317 0)
(0.0888407 -0.105493 0)
(0.0886913 -0.101077 0)
(0.0862067 -0.120307 0)
(0.0882883 -0.120729 0)
(0.0899626 -0.120583 0)
(0.0912824 -0.119775 0)
(0.0922881 -0.118257 0)
(0.0930075 -0.116021 0)
(0.0934636 -0.113085 0)
(0.093674 -0.109479 0)
(0.0936511 -0.105249 0)
(0.0934027 -0.100446 0)
(0.0884034 -0.124903 0)
(0.0906793 -0.124608 0)
(0.0925933 -0.123756 0)
(0.0941605 -0.122279 0)
(0.0953974 -0.120137 0)
(0.0963158 -0.117316 0)
(0.0969283 -0.113825 0)
(0.0972456 -0.109693 0)
(0.097276 -0.104959 0)
(0.0970256 -0.0996733 0)
(0.0886628 -0.130054 0)
(0.0912237 -0.129079 0)
(0.093452 -0.127537 0)
(0.0953451 -0.125376 0)
(0.096901 -0.122561 0)
(0.0981155 -0.119081 0)
(0.0989869 -0.114943 0)
(0.0995134 -0.110173 0)
(0.099694 -0.104815 0)
(0.0995273 -0.0989239 0)
(0.0872516 -0.135737 0)
(0.0900955 -0.134168 0)
(0.0926546 -0.131993 0)
(0.0949118 -0.129171 0)
(0.0968462 -0.125672 0)
(0.0984348 -0.121485 0)
(0.0996565 -0.11662 0)
(0.10049 -0.111105 0)
(0.100916 -0.104991 0)
(0.100918 -0.0983458 0)
(0.0840225 -0.141917 0)
(0.087164 -0.13988 0)
(0.0900836 -0.137174 0)
(0.0927538 -0.133759 0)
(0.0951373 -0.129606 0)
(0.0971927 -0.124703 0)
(0.0988757 -0.119055 0)
(0.100138 -0.112693 0)
(0.100931 -0.105678 0)
(0.101207 -0.0980959 0)
(0.0787241 -0.148642 0)
(0.0821802 -0.146282 0)
(0.0854927 -0.143176 0)
(0.0886296 -0.139278 0)
(0.0915432 -0.13455 0)
(0.0941777 -0.128965 0)
(0.0964657 -0.122515 0)
(0.0983259 -0.11522 0)
(0.0996627 -0.107141 0)
(0.100372 -0.0983854 0)
(0.071082 -0.155921 0)
(0.0748414 -0.153409 0)
(0.078551 -0.150077 0)
(0.0821826 -0.145861 0)
(0.0856887 -0.140704 0)
(0.089011 -0.134553 0)
(0.0920685 -0.12736 0)
(0.0947476 -0.119099 0)
(0.096891 -0.109797 0)
(0.0982913 -0.0995575 0)
(0.0608649 -0.163682 0)
(0.0648621 -0.161211 0)
(0.0689073 -0.157862 0)
(0.0729865 -0.153554 0)
(0.0770695 -0.148205 0)
(0.0811148 -0.141732 0)
(0.0850524 -0.13401 0)
(0.0887655 -0.124905 0)
(0.0920575 -0.114322 0)
(0.0945764 -0.102222 0)
(0.0480002 -0.171732 0)
(0.0521054 -0.169477 0)
(0.0563323 -0.16632 0)
(0.0606917 -0.16218 0)
(0.0651838 -0.156953 0)
(0.0697905 -0.150511 0)
(0.0744746 -0.142649 0)
(0.0792039 -0.133079 0)
(0.0839045 -0.121424 0)
(0.0881967 -0.107149 0)
(0.0327172 -0.179801 0)
(0.0367959 -0.177864 0)
(0.041027 -0.175033 0)
(0.0454253 -0.171241 0)
(0.0499922 -0.16638 0)
(0.0547333 -0.160311 0)
(0.0596717 -0.152813 0)
(0.0649259 -0.143543 0)
(0.0707478 -0.131935 0)
(0.0766862 -0.116972 0)
(0.0155539 -0.187692 0)
(0.0195761 -0.186073 0)
(0.0237426 -0.183545 0)
(0.0280492 -0.180046 0)
(0.0324714 -0.175476 0)
(0.0369872 -0.169733 0)
(0.0416182 -0.162678 0)
(0.0465278 -0.154107 0)
(0.0520223 -0.143741 0)
(0.0573961 -0.131144 0)
(-0.00283277 -0.195552 0)
(0.0012889 -0.194273 0)
(0.00559014 -0.192035 0)
(0.0100599 -0.188774 0)
(0.0146783 -0.18441 0)
(0.0194368 -0.17888 0)
(0.0243573 -0.172131 0)
(0.029548 -0.164122 0)
(0.0352514 -0.154899 0)
(0.0412995 -0.144719 0)
(-0.0222481 -0.203732 0)
(-0.0178904 -0.202917 0)
(-0.0132807 -0.201099 0)
(-0.00843014 -0.198223 0)
(-0.00335458 -0.194239 0)
(0.00194166 -0.189111 0)
(0.00747261 -0.182825 0)
(0.0132807 -0.175399 0)
(0.0194467 -0.166914 0)
(0.0260419 -0.157551 0)
(-0.042775 -0.212399 0)
(-0.0381391 -0.2122 0)
(-0.033182 -0.210952 0)
(-0.027925 -0.208607 0)
(-0.0223998 -0.205128 0)
(-0.016635 -0.200496 0)
(-0.0106577 -0.194725 0)
(-0.00448265 -0.187865 0)
(0.00189965 -0.180009 0)
(0.00855829 -0.171244 0)
(-0.0644986 -0.221548 0)
(-0.0596103 -0.222099 0)
(-0.0543353 -0.22153 0)
(-0.0487106 -0.219786 0)
(-0.042791 -0.216816 0)
(-0.0366454 -0.212595 0)
(-0.0303638 -0.207131 0)
(-0.0240563 -0.20051 0)
(-0.0178098 -0.192928 0)
(-0.0115765 -0.184622 0)
(-0.0873519 -0.231089 0)
(-0.0822665 -0.232531 0)
(-0.0767177 -0.232765 0)
(-0.0707486 -0.231708 0)
(-0.064421 -0.22928 0)
(-0.057822 -0.225401 0)
(-0.0510934 -0.220004 0)
(-0.0444666 -0.213097 0)
(-0.0382469 -0.205065 0)
(-0.0324723 -0.196643 0)
(-0.111044 -0.240869 0)
(-0.105848 -0.243371 0)
(-0.100111 -0.244576 0)
(-0.0938719 -0.244383 0)
(-0.0871845 -0.242675 0)
(-0.0800951 -0.2393 0)
(-0.0727076 -0.23402 0)
(-0.0652931 -0.226529 0)
(-0.0583279 -0.216856 0)
(-0.0521572 -0.207241 0)
(-0.134899 -0.25067 0)
(-0.129662 -0.254372 0)
(-0.123825 -0.256679 0)
(-0.117444 -0.257483 0)
(-0.110576 -0.256658 0)
(-0.103224 -0.254033 0)
(-0.0953873 -0.249315 0)
(-0.0874579 -0.242023 0)
(-0.0790088 -0.231619 0)
(-0.0696051 -0.220604 0)
(-0.157702 -0.260472 0)
(-0.152285 -0.265517 0)
(-0.146157 -0.269025 0)
(-0.139397 -0.270891 0)
(-0.132081 -0.271011 0)
(-0.124211 -0.269299 0)
(-0.115738 -0.265683 0)
(-0.107082 -0.260086 0)
(-0.0971525 -0.252141 0)
(-0.0851124 -0.241586 0)
(-0.178163 -0.270774 0)
(-0.172191 -0.277504 0)
(-0.165256 -0.282538 0)
(-0.15744 -0.285761 0)
(-0.148831 -0.287093 0)
(-0.139482 -0.286527 0)
(-0.129386 -0.28419 0)
(-0.118737 -0.280407 0)
(-0.107717 -0.27534 0)
(-0.0952008 -0.267775 0)
(-0.195644 -0.282288 0)
(-0.188794 -0.291342 0)
(-0.180605 -0.298554 0)
(-0.171157 -0.303781 0)
(-0.16055 -0.306929 0)
(-0.148894 -0.307978 0)
(-0.136313 -0.307023 0)
(-0.122988 -0.304319 0)
(-0.109134 -0.30021 0)
(-0.0950736 -0.294747 0)
(-0.210115 -0.295357 0)
(-0.202305 -0.307571 0)
(-0.192713 -0.317798 0)
(-0.18144 -0.325843 0)
(-0.16862 -0.331566 0)
(-0.154414 -0.3349 0)
(-0.139009 -0.335854 0)
(-0.122638 -0.334517 0)
(-0.1056 -0.331016 0)
(-0.0882418 -0.325519 0)
(-0.221701 -0.309794 0)
(-0.213086 -0.326118 0)
(-0.20219 -0.340257 0)
(-0.189169 -0.351931 0)
(-0.174227 -0.360931 0)
(-0.157606 -0.367126 0)
(-0.139579 -0.370473 0)
(-0.120442 -0.370997 0)
(-0.100513 -0.368772 0)
(-0.0801361 -0.363861 0)
(-0.230221 -0.325043 0)
(-0.221108 -0.346571 0)
(-0.209118 -0.365613 0)
(-0.194492 -0.381756 0)
(-0.177534 -0.394685 0)
(-0.158594 -0.4042 0)
(-0.138052 -0.410209 0)
(-0.116301 -0.412709 0)
(-0.0937327 -0.411775 0)
(-0.0707316 -0.407507 0)
(-0.234686 -0.340241 0)
(-0.225544 -0.36834 0)
(-0.212801 -0.393481 0)
(-0.196791 -0.415089 0)
(-0.177946 -0.432718 0)
(-0.156745 -0.446087 0)
(-0.133696 -0.455064 0)
(-0.109305 -0.459649 0)
(-0.0840581 -0.459944 0)
(-0.058416 -0.456108 0)
(-0.232769 -0.353828 0)
(-0.224189 -0.390358 0)
(-0.211256 -0.423162 0)
(-0.194341 -0.451494 0)
(-0.173959 -0.474788 0)
(-0.150738 -0.492704 0)
(-0.12533 -0.505093 0)
(-0.0983761 -0.511981 0)
(-0.0704715 -0.513533 0)
(-0.0421708 -0.510002 0)
(-0.220665 -0.364351 0)
(-0.213333 -0.410887 0)
(-0.201 -0.453182 0)
(-0.183995 -0.489844 0)
(-0.162853 -0.520047 0)
(-0.138286 -0.543411 0)
(-0.111065 -0.559828 0)
(-0.0819814 -0.569392 0)
(-0.051765 -0.572357 0)
(-0.0210708 -0.569098 0)
(-0.19072 -0.374651 0)
(-0.187032 -0.429042 0)
(-0.17733 -0.480889 0)
(-0.161728 -0.527561 0)
(-0.141058 -0.566365 0)
(-0.116316 -0.596495 0)
(-0.0883559 -0.617843 0)
(-0.0580862 -0.630665 0)
(-0.0263834 -0.635402 0)
(0.00597557 -0.63258 0)
(-0.137363 -0.373193 0)
(-0.140737 -0.44363 0)
(-0.13588 -0.505748 0)
(-0.124252 -0.561329 0)
(-0.106196 -0.609909 0)
(-0.0825109 -0.648696 0)
(-0.0549365 -0.676467 0)
(-0.0247047 -0.693476 0)
(0.00722676 -0.700549 0)
(0.0400521 -0.698565 0)
(-0.0820536 -0.342145 0)
(-0.0816096 -0.433617 0)
(-0.0807627 -0.523602 0)
(-0.0727515 -0.592086 0)
(-0.0586313 -0.649474 0)
(-0.0376207 -0.697586 0)
(-0.0109089 -0.733122 0)
(0.0185749 -0.755123 0)
(0.0495258 -0.76501 0)
(0.0814372 -0.76434 0)
(-0.0526079 -0.36917 0)
(-0.0450425 -0.426635 0)
(-0.0369417 -0.519495 0)
(-0.0194577 -0.617149 0)
(-0.0026188 -0.689053 0)
(0.0168081 -0.746002 0)
(0.0414199 -0.787556 0)
(0.069571 -0.813703 0)
(0.0988779 -0.826284 0)
(0.128772 -0.827204 0)
(0.0150017 -0.388548 0)
(0.0172729 -0.44751 0)
(0.0209917 -0.536451 0)
(0.0269504 -0.638373 0)
(0.0573931 -0.732931 0)
(0.0780287 -0.796157 0)
(0.0993395 -0.840133 0)
(0.124726 -0.868112 0)
(0.151874 -0.882638 0)
(0.179085 -0.885146 0)
(0.0809921 -0.38085 0)
(0.0857088 -0.463444 0)
(0.0893101 -0.550947 0)
(0.0915573 -0.653752 0)
(0.116618 -0.779819 0)
(0.140089 -0.84699 0)
(0.159039 -0.890015 0)
(0.180517 -0.917468 0)
(0.204698 -0.932939 0)
(0.228745 -0.936854 0)
(0.144972 -0.403899 0)
(0.163814 -0.504714 0)
(0.16445 -0.565121 0)
(0.165127 -0.648451 0)
(0.180013 -0.811332 0)
(0.199205 -0.892252 0)
(0.215768 -0.93371 0)
(0.233248 -0.960183 0)
(0.253679 -0.976295 0)
(0.274241 -0.981576 0)
(0.213972 -0.47573 0)
(0.210482 -0.518931 0)
(0.211993 -0.567506 0)
(0.215915 -0.651465 0)
(0.236238 -0.838187 0)
(0.250909 -0.926653 0)
(0.263881 -0.968002 0)
(0.278163 -0.99506 0)
(0.294963 -1.01264 0)
(0.312278 -1.01953 0)
(0.237349 -0.454064 0)
(0.235703 -0.5062 0)
(0.235917 -0.567877 0)
(0.245604 -0.683363 0)
(0.272851 -0.876461 0)
(0.288693 -0.953316 0)
(0.298719 -0.99402 0)
(0.311151 -1.0235 0)
(0.325394 -1.04323 0)
(0.340163 -1.05168 0)
(0.246739 -0.426701 0)
(0.246013 -0.478121 0)
(0.247858 -0.571372 0)
(0.275749 -0.76727 0)
(0.297331 -0.904075 0)
(0.310296 -0.971574 0)
(0.319533 -1.01536 0)
(0.331152 -1.04817 0)
(0.343894 -1.06968 0)
(0.356544 -1.07871 0)
(0.223476 -0.395203 0)
(0.223692 -0.463806 0)
(0.240238 -0.618463 0)
(0.274808 -0.827217 0)
(0.300151 -0.933154 0)
(0.312518 -0.993362 0)
(0.324434 -1.03887 0)
(0.337509 -1.07288 0)
(0.350095 -1.09395 0)
(0.361201 -1.10133 0)
(0.168193 -0.371235 0)
(0.179724 -0.485805 0)
(0.233071 -0.728248 0)
(0.269251 -0.879674 0)
(0.289906 -0.961391 0)
(0.304869 -1.02055 0)
(0.320034 -1.06679 0)
(0.334497 -1.09923 0)
(0.346772 -1.11678 0)
(0.356116 -1.11955 0)
(0.111527 -0.389342 0)
(0.161856 -0.618615 0)
(0.217563 -0.82152 0)
(0.253899 -0.928913 0)
(0.273977 -0.999318 0)
(0.292456 -1.0559 0)
(0.309899 -1.09888 0)
(0.324775 -1.12621 0)
(0.336045 -1.13708 0)
(0.343224 -1.13248 0)
(0.103696 -0.476347 0)
(0.175053 -0.752722 0)
(0.214556 -0.893435 0)
(0.237593 -0.973984 0)
(0.258283 -1.04003 0)
(0.277902 -1.09355 0)
(0.295319 -1.1314 0)
(0.30926 -1.15148 0)
(0.318913 -1.15366 0)
(0.32387 -1.14001 0)
(0.104855 -0.640264 0)
(0.156786 -0.843011 0)
(0.193261 -0.945165 0)
(0.217232 -1.0197 0)
(0.239121 -1.08252 0)
(0.258683 -1.13109 0)
(0.274971 -1.16197 0)
(0.287253 -1.17347 0)
(0.295057 -1.16618 0)
(0.298031 -1.1429 0)
(0.127053 -0.745609 0)
(0.159025 -0.907093 0)
(0.179594 -0.991685 0)
(0.199719 -1.06169 0)
(0.218241 -1.12055 0)
(0.234651 -1.16385 0)
(0.248227 -1.18786 0)
(0.258202 -1.19122 0)
(0.264225 -1.17517 0)
(0.265796 -1.14288 0)
(0.0969057 -0.819915 0)
(0.128054 -0.952595 0)
(0.148669 -1.03083 0)
(0.168797 -1.09841 0)
(0.186413 -1.15399 0)
(0.2014 -1.19225 0)
(0.213227 -1.20959 0)
(0.221419 -1.20545 0)
(0.226115 -1.18183 0)
(0.227101 -1.14169 0)
(0.067221 -0.898831 0)
(0.0953221 -1.00267 0)
(0.116475 -1.07302 0)
(0.135617 -1.13553 0)
(0.1518 -1.18607 0)
(0.165155 -1.21806 0)
(0.174972 -1.22802 0)
(0.181077 -1.21665 0)
(0.184007 -1.18685 0)
(0.184481 -1.14138 0)
(0.052505 -0.963127 0)
(0.0724217 -1.04607 0)
(0.0901517 -1.10949 0)
(0.106134 -1.16772 0)
(0.119799 -1.21371 0)
(0.130774 -1.23925 0)
(0.138007 -1.24163 0)
(0.141451 -1.22369 0)
(0.141808 -1.18965 0)
(0.140538 -1.14237 0)
(0.0465398 -1.00223 0)
(0.0575989 -1.07486 0)
(0.0697763 -1.13581 0)
(0.0815799 -1.1925 0)
(0.092292 -1.23534 0)
(0.100565 -1.25439 0)
(0.104829 -1.24866 0)
(0.104718 -1.22395 0)
(0.100684 -1.18556 0)
(0.0954136 -1.13546 0)
(0.0338751 -1.02357 0)
(0.0418026 -1.09368 0)
(0.0512709 -1.15537 0)
(0.0608965 -1.212 0)
(0.06977 -1.25227 0)
(0.0762014 -1.26433 0)
(0.0784538 -1.24948 0)
(0.0756704 -1.21661 0)
(0.0680058 -1.17195 0)
(0.0597756 -1.11528 0)
(0.0244931 -1.03745 0)
(0.0304932 -1.10894 0)
(0.0381024 -1.17193 0)
(0.0460483 -1.22847 0)
(0.0533897 -1.26642 0)
(0.0586135 -1.27166 0)
(0.0602457 -1.24762 0)
(0.0570042 -1.20551 0)
(0.0484096 -1.15164 0)
(0.0397922 -1.08449 0)
(0.0197292 -1.04707 0)
(0.0242704 -1.12092 0)
(0.0301556 -1.18531 0)
(0.0364147 -1.24177 0)
(0.0421269 -1.27824 0)
(0.0463004 -1.27842 0)
(0.0483271 -1.24717 0)
(0.0467278 -1.19693 0)
(0.0406238 -1.13307 0)
(0.0351086 -1.05224 0)
(0.0166466 -1.05344 0)
(0.020223 -1.13003 0)
(0.0248525 -1.1957 0)
(0.0297599 -1.25176 0)
(0.0337648 -1.28709 0)
(0.0365003 -1.28467 0)
(0.0389879 -1.24953 0)
(0.0396646 -1.19452 0)
(0.0377238 -1.12414 0)
(0.0369748 -1.03457 0)
(0.0138237 -1.05878 0)
(0.0168667 -1.13733 0)
(0.0207526 -1.20393 0)
(0.0248046 -1.25883 0)
(0.0271614 -1.29201 0)
(0.0278227 -1.28899 0)
(0.0300157 -1.25298 0)
(0.0317632 -1.1959 0)
(0.0320208 -1.12202 0)
(0.0334965 -1.02739 0)
(0.0103127 -1.06163 0)
(0.0134923 -1.14322 0)
(0.0172619 -1.21097 0)
(0.0209651 -1.26403 0)
(0.0221832 -1.2932 0)
(0.0209342 -1.29119 0)
(0.02306 -1.25754 0)
(0.0263704 -1.20032 0)
(0.0293551 -1.12467 0)
(0.0334886 -1.02785 0)
(0.00401668 -1.06457 0)
(0.00874943 -1.15022 0)
(0.0135516 -1.21876 0)
(0.0173312 -1.26879 0)
(0.0180031 -1.29181 0)
(0.0152003 -1.2917 0)
(0.0172063 -1.2643 0)
(0.0221634 -1.20927 0)
(0.0281574 -1.13375 0)
(0.0352063 -1.03621 0)
(-0.00404858 -1.07405 0)
(0.00355661 -1.16181 0)
(0.0102127 -1.22882 0)
(0.0140187 -1.27363 0)
(0.014511 -1.28871 0)
(0.0104316 -1.29004 0)
(0.0118335 -1.27223 0)
(0.0174945 -1.22181 0)
(0.0259204 -1.14844 0)
(0.0356358 -1.05125 0)
(-0.00709449 -1.08913 0)
(0.00224799 -1.17662 0)
(0.00938263 -1.23951 0)
(0.0119639 -1.27712 0)
(0.0121086 -1.28415 0)
(0.00680481 -1.28596 0)
(0.00734132 -1.27933 0)
(0.0123832 -1.23628 0)
(0.0224669 -1.16726 0)
(0.0339388 -1.07295 0)
(-0.00739742 -1.10864 0)
(0.00216147 -1.19099 0)
(0.00944156 -1.24824 0)
(0.0101924 -1.27784 0)
(0.0101243 -1.27843 0)
(0.00362097 -1.2803 0)
(0.00379526 -1.28378 0)
(0.00713297 -1.25142 0)
(0.0181573 -1.18833 0)
(0.0291219 -1.10195 0)
(-0.00151885 -1.13008 0)
(0.00259679 -1.20186 0)
(0.00870063 -1.25486 0)
(0.00728195 -1.27646 0)
(0.00758717 -1.27254 0)
(-0.000143846 -1.27437 0)
(0.000626578 -1.28455 0)
(0.0011348 -1.2657 0)
(0.0120375 -1.2077 0)
(0.0184342 -1.1353 0)
(-0.00453105 -1.15869 0)
(-0.00463167 -1.21205 0)
(0.00454103 -1.26238 0)
(0.00282184 -1.27447 0)
(0.00487488 -1.26713 0)
(-0.00444319 -1.26863 0)
(-0.00187159 -1.28129 0)
(-0.00546147 -1.27755 0)
(0.00434118 -1.2207 0)
(0.00336039 -1.16492 0)
(0.00101659 -1.17305 0)
(-0.00258524 -1.219 0)
(0.00587973 -1.27012 0)
(0.000565841 -1.27083 0)
(0.00374399 -1.26131 0)
(-0.00767585 -1.26211 0)
(-0.00331717 -1.27412 0)
(-0.0135375 -1.28537 0)
(-0.0039183 -1.22498 0)
(-0.00977353 -1.1641 0)
(-0.000104406 -1.15484 0)
(-0.00135954 -1.22228 0)
(0.0109261 -1.27585 0)
(-0.000351343 -1.26364 0)
(0.00402991 -1.25384 0)
(-0.00903284 -1.25395 0)
(-0.00300343 -1.26404 0)
(-0.0202417 -1.28894 0)
(-0.00374026 -1.22978 0)
(-0.00698598 -1.12918 0)
(-0.00149559 -1.11277 0)
(-0.00451616 -1.23087 0)
(0.0186197 -1.27828 0)
(-0.000487231 -1.25243 0)
(0.00489904 -1.24448 0)
(-0.00904521 -1.24423 0)
(-0.00239272 -1.25178 0)
(-0.0268107 -1.28759 0)
(0.00148644 -1.24437 0)
(-0.00530216 -1.07207 0)
(0.00926987 -1.04339 0)
(-0.0146916 -1.2629 0)
(0.0242789 -1.27659 0)
(-0.0026539 -1.23874 0)
(0.00468762 -1.2344 0)
(-0.00772795 -1.234 0)
(-0.000595403 -1.23854 0)
(-0.0298081 -1.28157 0)
(0.0123162 -1.27555 0)
(-0.0158754 -1.00149 0)
(0.0464564 -0.00811305 0)
(0.05276 -0.00761709 0)
(0.0586166 -0.00704522 0)
(0.0639776 -0.00641334 0)
(0.0687987 -0.00573362 0)
(0.0730425 -0.00501465 0)
(0.0766793 -0.00426405 0)
(0.0796868 -0.003489 0)
(0.08205 -0.00269563 0)
(0.0837603 -0.00188701 0)
(0.0848154 -0.00105862 0)
(0.0852532 -0.000205649 0)
(0.0849808 0.000615701 0)
(0.0840732 0.00138301 0)
(0.082612 0.002079 0)
(0.0806537 0.00268903 0)
(0.0782528 0.00320986 0)
(0.075469 0.00364592 0)
(0.0723615 0.00400419 0)
(0.0689859 0.00429214 0)
(0.0653933 0.00451706 0)
(0.0616308 0.00468569 0)
(0.0577426 0.00480308 0)
(0.05377 0.00487314 0)
(0.0497529 0.00489762 0)
(0.0457316 0.00487501 0)
(0.0417492 0.00479976 0)
(0.0378541 0.00466127 0)
(0.0341042 0.00444243 0)
(0.0305706 0.00411781 0)
(0.0273421 0.00365182 0)
(0.0245297 0.00299796 0)
(0.0222673 0.00210168 0)
(0.0207064 0.00091411 0)
(0.0199949 -0.000572035 0)
(0.0201779 -0.00227418 0)
(0.0211016 -0.00398203 0)
(0.022663 -0.00489304 0)
(0.0242782 -0.00116434 0)
(0.0156295 0.0210589 0)
(0.0397907 -0.0169105 0)
(0.0449476 -0.0158051 0)
(0.0497272 -0.014561 0)
(0.0540878 -0.0131963 0)
(0.0579964 -0.0117295 0)
(0.0614252 -0.0101794 0)
(0.0643529 -0.00856609 0)
(0.0667661 -0.00691008 0)
(0.0686602 -0.00523183 0)
(0.0700398 -0.00355085 0)
(0.0709175 -0.00188568 0)
(0.0713112 -0.000252271 0)
(0.0712864 0.0013178 0)
(0.0708606 0.00278744 0)
(0.0700375 0.00413343 0)
(0.0688379 0.00534379 0)