/*--------------------------------*- C++ -*----------------------------------*\
  =========                 |
  \\      /  F ield         | OpenFOAM: The Open Source CFD Toolbox
   \\    /   O peration     | Website:  https://openfoam.org
    \\  /    A nd           | Version:  8
     \\/     M anipulation  |
\*---------------------------------------------------------------------------*/
FoamFile
{
    version     2.0;
    format      ascii;
    class       volScalarField;
    location    "3.3";
    object      nut;
}
// * * * * * * * * * * * * * * * * * * * * * * * * * * * * * * * * * * * * * //

dimensions      [0 2 -1 0 0 0 0];

internalField   nonuniform List<scalar> 
9150
(
9.60043e-06
6.40502e-06
6.5705e-06
8.74615e-06
7.58462e-06
7.58235e-06
8.74494e-06
6.56949e-06
6.40409e-06
9.60043e-06
9.48768e-06
5.73716e-06
8.27454e-06
9.89066e-06
7.05803e-06
7.05552e-06
9.88804e-06
8.27342e-06
5.73633e-06
9.48765e-06
9.29572e-06
5.49994e-06
1.07994e-05
1.02671e-05
6.71074e-06
6.70841e-06
1.02636e-05
1.07975e-05
5.49921e-06
9.29567e-06
9.08007e-06
5.42213e-06
1.34032e-05
1.02652e-05
6.52435e-06
6.52219e-06
1.02613e-05
1.33997e-05
5.42149e-06
9.08001e-06
8.84524e-06
5.40584e-06
1.56475e-05
1.01737e-05
6.42972e-06
6.42766e-06
1.01699e-05
1.56422e-05
5.40526e-06
8.84517e-06
5.91212e-06
1.12674e-05
1.38468e-05
1.73979e-05
1.66112e-05
1.66099e-05
1.74035e-05
1.38624e-05
1.12784e-05
5.91285e-06
6.28036e-06
8.85539e-06
1.13461e-05
1.5295e-05
1.43727e-05
1.437e-05
1.52965e-05
1.13544e-05
8.85942e-06
6.28023e-06
6.83045e-06
7.90165e-06
9.3767e-06
1.30603e-05
1.2088e-05
1.20853e-05
1.30605e-05
9.38004e-06
7.90193e-06
6.83026e-06
7.38726e-06
7.29571e-06
7.96881e-06
1.11495e-05
1.01668e-05
1.01643e-05
1.11491e-05
7.96947e-06
7.29477e-06
7.38712e-06
8.07473e-06
6.84542e-06
7.04964e-06
9.64931e-06
8.62063e-06
8.61832e-06
9.64844e-06
7.04904e-06
6.84432e-06
8.07464e-06
1.26051e-05
1.46993e-05
1.2691e-05
1.55603e-05
1.7374e-05
1.74896e-05
1.59046e-05
1.38163e-05
1.84078e-05
1.34508e-05
7.87545e-06
1.07711e-05
1.23513e-05
1.57252e-05
1.74616e-05
1.75347e-05
1.59187e-05
1.25419e-05
1.0829e-05
7.90124e-06
7.45512e-06
1.01683e-05
1.24488e-05
1.5922e-05
1.75464e-05
1.75914e-05
1.60488e-05
1.25503e-05
1.0198e-05
7.46348e-06
7.02971e-06
9.77942e-06
1.25008e-05
1.6081e-05
1.76125e-05
1.76415e-05
1.61596e-05
1.25614e-05
9.81648e-06
7.03328e-06
6.50842e-06
1.00392e-05
1.25244e-05
1.62891e-05
1.75188e-05
1.75326e-05
1.63259e-05
1.25557e-05
1.00692e-05
6.5099e-06
1.02724e-05
1.03929e-05
1.05183e-05
1.06473e-05
1.07736e-05
1.08949e-05
1.10092e-05
1.11145e-05
1.12085e-05
1.12887e-05
9.154e-05
9.30907e-05
9.45414e-05
9.58648e-05
9.71161e-05
9.83054e-05
9.94257e-05
0.000100465
0.000101409
0.000102244
0.000181572
0.000183976
0.000186245
0.00018839
0.000190414
0.000192307
0.000194052
0.000195629
0.000197015
0.000198191
0.000253434
0.000256049
0.000258515
0.000260832
0.000262997
0.00026499
0.000266784
0.000268355
0.00026968
0.000270739
0.000309251
0.000311763
0.000314123
0.000316304
0.000318314
0.000320124
0.000321709
0.000323042
0.000324103
0.000324873
0.000353483
0.000355796
0.000357956
0.000359932
0.000361709
0.000363269
0.000364585
0.000365635
0.000366399
0.000366865
0.000389824
0.00039195
0.000393922
0.000395705
0.000397264
0.000398585
0.000399646
0.000400426
0.000400911
0.000401092
0.000420883
0.000422861
0.000424682
0.000426297
0.000427665
0.000428765
0.000429582
0.0004301
0.00043031
0.000430206
0.000448357
0.000450205
0.00045189
0.000453354
0.00045453
0.000455398
0.000455956
0.000456194
0.000456103
0.000455681
0.000473271
0.000474987
0.000476514
0.000477799
0.000478757
0.000479363
0.000479624
0.000479534
0.000479089
0.000478288
0.000496207
0.000497798
0.000499128
0.000500158
0.000500838
0.000501135
0.000501045
0.000500567
0.000499699
0.000498442
0.000517512
0.000518902
0.000519982
0.000520712
0.000521053
0.00052098
0.000520483
0.000519558
0.000518201
0.000516416
0.000537393
0.000538527
0.000539303
0.000539682
0.000539632
0.000539133
0.000538174
0.000536746
0.000534846
0.000532475
0.000555995
0.000556828
0.000557257
0.000557247
0.000556769
0.000555807
0.000554348
0.000552385
0.000549911
0.000546922
0.000573445
0.000573951
0.000574011
0.000573595
0.000572679
0.000571244
0.000569281
0.000566781
0.000563735
0.000560136
0.000589898
0.000590072
0.000589766
0.000588953
0.000587613
0.000585728
0.00058329
0.00058029
0.000576715
0.000572553
0.000605523
0.000605389
0.000604747
0.000603576
0.000601858
0.00059958
0.000596733
0.000593306
0.00058929
0.000584667
0.000620506
0.000620112
0.000619192
0.000617729
0.000615711
0.000613127
0.000609972
0.000606238
0.000601914
0.000596986
0.000635029
0.000634444
0.000633326
0.000631663
0.000629449
0.000626678
0.000623347
0.000619456
0.000614998
0.000609964
0.000649244
0.000648554
0.000647337
0.000645587
0.0006433
0.000640478
0.000637125
0.000633247
0.000628846
0.000623922
0.000663254
0.00066256
0.000661356
0.000659638
0.000657411
0.000654682
0.000651463
0.000647767
0.000643609
0.000639001
0.000677117
0.000676525
0.000675446
0.000673883
0.000671844
0.000669342
0.000666398
0.000663036
0.000659283
0.000655168
0.00069086
0.000690468
0.000689618
0.000688318
0.000686578
0.000684419
0.000681867
0.000678957
0.000675731
0.000672234
0.000704484
0.000704377
0.000703847
0.0007029
0.000701554
0.000699831
0.000697767
0.000695406
0.0006928
0.000690014
0.000717954
0.000718205
0.000718065
0.000717544
0.000716661
0.000715444
0.00071393
0.00071217
0.000710219
0.000708145
0.000731198
0.000731858
0.000732158
0.000732108
0.000731726
0.000731038
0.000730082
0.0007289
0.000727541
0.000726055
0.000744108
0.00074521
0.000745975
0.000746408
0.000746522
0.000746336
0.000745876
0.000745166
0.000744227
0.000743078
0.000756564
0.000758122
0.000759354
0.000760257
0.000760832
0.000761081
0.000761009
0.00076061
0.000759867
0.000758755
0.000768454
0.000770473
0.000772164
0.000773513
0.000774502
0.00077511
0.000775313
0.000775069
0.000774319
0.000772991
0.000779696
0.000782179
0.000784326
0.000786105
0.000787477
0.000788394
0.000788795
0.000788612
0.000787741
0.000786065
0.000790244
0.000793205
0.000795817
0.000798033
0.00079979
0.000801013
0.000801612
0.00080149
0.000800505
0.000798502
0.000800091
0.000803554
0.000806663
0.000809354
0.000811546
0.000813139
0.000814014
0.000814042
0.000813066
0.000810894
0.000809262
0.000813264
0.00081692
0.000820153
0.000822866
0.00082494
0.000826235
0.000826585
0.000825835
0.000823762
0.000817813
0.000822397
0.000826659
0.000830516
0.00083386
0.000836559
0.000838457
0.000839368
0.00083911
0.00083747
0.000825829
0.000831035
0.000835963
0.000840525
0.000844611
0.000848081
0.00085077
0.000852481
0.000852992
0.000852118
0.000833428
0.000839282
0.000844916
0.000850246
0.000855159
0.000859516
0.000863144
0.000865839
0.000867367
0.000867494
0.00084075
0.000847252
0.000853601
0.000859716
0.000865491
0.000870783
0.000875413
0.000879167
0.000881797
0.000883037
0.000847935
0.00085505
0.00086207
0.000868926
0.000875515
0.000881695
0.000887274
0.000892017
0.000895649
0.000897879
0.000855073
0.000862709
0.000870289
0.000877751
0.000885
0.00089189
0.000898219
0.000903706
0.000908014
0.000910799
0.000862106
0.0008701
0.000878036
0.000885856
0.000893466
0.000900726
0.000907423
0.000913228
0.000917671
0.000920279
0.000868697
0.000876785
0.000884756
0.000892547
0.000900058
0.000907141
0.000913584
0.000919051
0.000922922
0.000924355
0.00087407
0.000881837
0.000889355
0.000896552
0.000903317
0.000909485
0.000914814
0.00091895
0.000921205
0.000920494
0.000876915
0.000883732
0.000890078
0.000895872
0.000901
0.000905298
0.000908532
0.000910333
0.000909871
0.000906616
0.000875503
0.000880541
0.0008848
0.000888197
0.000890623
0.000891928
0.000891908
0.000890266
0.000886338
0.000879474
0.000867949
0.000870244
0.0008714
0.00087135
0.000870016
0.000867292
0.000863031
0.00085703
0.000848975
0.000838431
0.000852644
0.000851251
0.000848376
0.00084401
0.000838157
0.000830818
0.000821982
0.000811615
0.000799656
0.00078599
0.000828792
0.000823018
0.000815536
0.000806458
0.000795936
0.000784164
0.000771354
0.000757723
0.000743454
0.000728485
0.000796758
0.000786361
0.000774244
0.000760676
0.000746004
0.000730637
0.000715022
0.000699612
0.000684738
0.000670035
0.000758028
0.00074333
0.000727158
0.000709949
0.000692228
0.000674581
0.000657618
0.000641926
0.000627924
0.000615285
0.000714924
0.000696804
0.000677742
0.000658326
0.000639212
0.000621084
0.000604602
0.000590335
0.00057867
0.000569557
0.000670035
0.000649738
0.00062929
0.000609384
0.000590756
0.000574115
0.00056009
0.000549166
0.000541639
0.000537568
0.000625796
0.000604833
0.000584629
0.000565977
0.000549659
0.000536346
0.000526536
0.000520556
0.000518556
0.000520489
0.000584134
0.000563928
0.0005455
0.000529658
0.000517116
0.000508428
0.000503938
0.000503764
0.000507803
0.000515766
0.000547041
0.000528874
0.000513444
0.00050152
0.000493697
0.000490322
0.000491483
0.00049702
0.00050657
0.000519643
0.000515885
0.000500793
0.000489192
0.000481763
0.000478921
0.000480777
0.000487172
0.000497717
0.00051187
0.000529032
0.000491094
0.000479864
0.000472548
0.000469701
0.000471559
0.000478062
0.000488905
0.000503587
0.000521481
0.000541951
0.000472049
0.000465371
0.000462659
0.000464269
0.000470366
0.000480846
0.000495388
0.000513493
0.000534513
0.000557925
0.00045806
0.000456246
0.000458317
0.000464388
0.000474555
0.000488758
0.000506722
0.000527948
0.000551819
0.000577875
0.000448286
0.000451351
0.000458308
0.000469108
0.000483735
0.00050209
0.000523809
0.000548191
0.00057471
0.000603001
0.000443094
0.000451074
0.000462965
0.000478649
0.000498031
0.000520785
0.000546275
0.000573915
0.000602944
0.000632921
0.000443441
0.000456271
0.000472985
0.000493413
0.000517367
0.000544246
0.000573233
0.000603266
0.000633594
0.000664171
0.000449258
0.000466706
0.000487955
0.000512756
0.000540742
0.000571008
0.000601988
0.000632628
0.000662877
0.000693153
0.000459454
0.00048105
0.000506228
0.000534614
0.000565585
0.000597344
0.000628278
0.000658308
0.000687904
0.000716964
0.000472283
0.00049727
0.000525423
0.000556316
0.000588369
0.000619625
0.000649665
0.000678929
0.000707327
0.000734162
0.000486313
0.000513876
0.000544154
0.000576021
0.000607563
0.000637857
0.0006672
0.000695552
0.000722049
0.000744521
0.000501183
0.000530806
0.00056237
0.000594174
0.000625103
0.000655135
0.000684188
0.000711095
0.000732702
0.000743949
0.000517371
0.000548926
0.000581279
0.00061333
0.000644867
0.000675677
0.000704066
0.000725059
0.000732678
0.00072864
0.000535789
0.000569114
0.000602848
0.000636761
0.000670587
0.000702033
0.000722834
0.000726314
0.000718032
0.000706727
0.000556592
0.000592321
0.000628931
0.000666242
0.000701697
0.000723267
0.000723166
0.000711697
0.000698221
0.000686157
0.000579849
0.000619232
0.000659906
0.000699784
0.000724317
0.000722304
0.000708438
0.000693206
0.000679453
0.000668375
0.000606772
0.000650505
0.000694554
0.000725338
0.00072456
0.000708643
0.00069136
0.00067569
0.000662718
0.000653126
0.00063809
0.000685795
0.000726323
0.000732214
0.000713393
0.000693258
0.000674962
0.000659587
0.000647779
0.000639789
0.000673319
0.00072455
0.000742416
0.000722172
0.000699087
0.000677555
0.000659077
0.000644501
0.000634078
0.000627556
0.000711258
0.000744563
0.000734289
0.000709147
0.00068387
0.000661525
0.000643404
0.000630013
0.000621026
0.000615744
0.0007475
0.000757027
0.000726025
0.000695404
0.000667942
0.000645073
0.000627745
0.000615811
0.000608214
0.000604046
0.000765832
0.00074464
0.000711242
0.000678433
0.000649863
0.00062744
0.000611758
0.000601716
0.000595558
0.000592673
0.000764549
0.000731005
0.000693567
0.000658942
0.000630246
0.000609395
0.000596164
0.00058822
0.000583469
0.000582288
0.000758227
0.000718562
0.000676947
0.000640139
0.000611441
0.000592554
0.000581913
0.000575786
0.000572379
0.000573569
0.000759734
0.00070953
0.000662373
0.000622661
0.00059384
0.000577091
0.00056892
0.0005643
0.000562561
0.000567051
0.000757461
0.000700127
0.000647807
0.000605161
0.000576496
0.000562293
0.000556601
0.000553609
0.000554507
0.000563445
0.000752842
0.000688873
0.00063158
0.000586255
0.000558398
0.000547434
0.000544504
0.00054386
0.000548813
0.000563052
0.000747715
0.000675878
0.000613279
0.000565508
0.000539151
0.000532146
0.000532457
0.000535429
0.0005461
0.00056646
0.000732148
0.000657532
0.000591825
0.000542577
0.000518421
0.000516019
0.000520261
0.000528502
0.000546311
0.000572887
0.000711057
0.000636565
0.000568829
0.000517887
0.000495803
0.0004984
0.000507577
0.000523089
0.000549273
0.000581973
0.000693371
0.000617325
0.00054581
0.000491257
0.00047032
0.00047832
0.000494036
0.000519285
0.000555274
0.000594482
0.000679597
0.000599531
0.000521931
0.000461467
0.000440559
0.00045474
0.000479332
0.000517126
0.000564668
0.000611499
0.000667225
0.000581535
0.000496092
0.000427508
0.000405325
0.00042684
0.000463099
0.000516205
0.000577414
0.000634038
0.000655964
0.000562491
0.000467677
0.000388966
0.000363933
0.00039413
0.000444702
0.000515312
0.000592593
0.000662484
0.000643341
0.000540741
0.000436062
0.000346022
0.000316433
0.000356643
0.000423152
0.000512159
0.000607833
0.000695986
0.000626847
0.000515272
0.000401255
0.000299762
0.000264042
0.000315265
0.000397357
0.000503452
0.00061863
0.000730916
0.000606461
0.000485957
0.000363534
0.000251869
0.000209438
0.000271914
0.000366827
0.00048578
0.00061804
0.000756966
0.000581412
0.000451715
0.000322539
0.00020406
0.000156577
0.000229163
0.000332581
0.000458022
0.000599892
0.000757104
0.000549515
0.000411252
0.000278352
0.000158492
0.000109819
0.000189006
0.000296894
0.000423332
0.000566366
0.000728711
0.00050719
0.00036415
0.000232643
0.000117922
7.24999e-05
0.000151783
0.000261537
0.000386847
0.00052658
0.000684383
0.00045403
0.000314034
0.000189443
8.49377e-05
4.5959e-05
0.000116615
0.000225985
0.0003504
0.000486274
0.000638549
0.000396456
0.000269107
0.000152989
6.02592e-05
2.96437e-05
8.35708e-05
0.000188918
0.000314472
0.00044781
0.000592623
0.000352847
0.000235849
0.000123162
4.24176e-05
2.15467e-05
5.45988e-05
0.000148188
0.000278445
0.000415658
0.000553287
0.000329201
0.000213605
9.66161e-05
2.99505e-05
1.85603e-05
3.29843e-05
0.000102038
0.000236061
0.000394045
0.000539359
0.000345902
0.000198278
6.92319e-05
2.17803e-05
1.76113e-05
2.11838e-05
5.42551e-05
0.000169736
0.000366802
0.000587009
0.000468207
0.000157427
3.69698e-05
1.69867e-05
1.73514e-05
1.77723e-05
2.22376e-05
7.06306e-05
0.000241992
0.000606979
1.13528e-05
1.14004e-05
1.14196e-05
1.14044e-05
1.13481e-05
1.12448e-05
1.10938e-05
1.09122e-05
1.0758e-05
1.06404e-05
1.05652e-05
1.05366e-05
1.05501e-05
1.05975e-05
1.06751e-05
1.07892e-05
1.0911e-05
1.09947e-05
1.10313e-05
1.10243e-05
1.09757e-05
1.08911e-05
1.0776e-05
1.06366e-05
1.04771e-05
1.02968e-05
1.00891e-05
9.84296e-06
9.54524e-06
9.18191e-06
8.74383e-06
8.24288e-06
7.72127e-06
7.21507e-06
6.73001e-06
6.207e-06
5.59786e-06
4.93052e-06
1.99659e-05
4.50947e-06
0.000102988
0.000103594
0.000103994
0.000104154
0.000104028
0.000103558
0.000102667
0.000101269
9.92678e-05
9.73107e-05
9.60453e-05
9.58439e-05
9.6629e-05
9.7999e-05
9.96189e-05
0.000101014
0.000101627
0.000101726
0.000101403
0.000100713
9.96819e-05
9.83381e-05
9.67173e-05
9.48698e-05
9.28338e-05
9.0599e-05
8.80944e-05
8.52257e-05
8.19053e-05
7.80689e-05
7.36963e-05
6.88883e-05
6.38263e-05
5.86111e-05
5.29341e-05
4.66688e-05
3.96375e-05
3.14498e-05
2.17664e-05
7.86626e-06
0.00019919
0.000199932
0.000200329
0.000200348
0.000199941
0.000199052
0.000197619
0.000195606
0.000193109
0.000190798
0.000189183
0.000188539
0.000188709
0.000189242
0.000189787
0.000189955
0.000189593
0.000188566
0.000186907
0.000184639
0.000181773
0.000178323
0.000174322
0.000169828
0.000164901
0.000159537
0.000153655
0.000147157
0.000139972
0.000132063
0.000123439
0.00011417
0.000104375
9.40595e-05
8.31879e-05
7.17245e-05
5.94969e-05
4.61541e-05
3.08226e-05
1.33791e-05
0.000271565
0.000272058
0.000272155
0.000271842
0.000271101
0.00026992
0.000268296
0.000266248
0.000263829
0.000261448
0.000259471
0.000258014
0.000256984
0.000255958
0.000254719
0.000253181
0.000251142
0.000248534
0.000245327
0.000241492
0.000236999
0.000231824
0.000225963
0.00021945
0.000212336
0.000204628
0.000196237
0.000187085
0.000177128
0.000166356
0.000154785
0.000142461
0.000129438
0.000115732
0.000101368
8.63356e-05
7.05941e-05
5.40168e-05
3.63685e-05
1.87793e-05
0.000325381
0.000325521
0.000325263
0.000324612
0.000323579
0.000322185
0.000320463
0.000318462
0.000316236
0.000313841
0.000311473
0.000309274
0.00030711
0.000304689
0.000301952
0.000298856
0.000295321
0.000291301
0.000286752
0.000281623
0.000275868
0.000269447
0.00026233
0.000254512
0.000246005
0.000236801
0.000226813
0.000215986
0.000204269
0.000191634
0.000178053
0.000163519
0.000148051
0.0001317
0.000114483
9.6367e-05
7.72503e-05
5.67505e-05
3.3932e-05
1.99386e-05
0.000367052
0.000366854
0.000366271
0.000365319
0.000364024
0.000362418
0.000360544
0.000358451
0.000356181
0.000353754
0.000351166
0.000348352
0.0003452
0.000341665
0.000337757
0.00033345
0.00032873
0.000323576
0.000317943
0.000311785
0.000305063
0.000297751
0.000289825
0.000281248
0.000271961
0.000261888
0.000250986
0.000239215
0.000226508
0.000212791
0.000197969
0.000181952
0.000164729
0.000146294
0.000126596
0.000105559
8.30949e-05
5.89333e-05
3.25297e-05
1.99945e-05
0.000400979
0.000400466
0.000399577
0.000398333
0.000396763
0.000394903
0.000392793
0.000390469
0.000387948
0.000385208
0.00038218
0.000378749
0.000374838
0.000370449
0.000365603
0.000360327
0.000354655
0.000348586
0.000342067
0.000335051
0.000327527
0.000319499
0.000310956
0.00030185
0.00029209
0.000281588
0.000270287
0.00025812
0.000244999
0.000230812
0.00021542
0.000198674
0.000180476
0.000160728
0.000139263
0.000115955
9.07382e-05
6.35008e-05
3.41669e-05
2.03002e-05
0.000429787
0.000428944
0.000427721
0.000426141
0.000424233
0.00042203
0.000419559
0.000416837
0.000413854
0.000410566
0.000406896
0.000402752
0.00039808
0.000392881
0.000387191
0.000381064
0.000374554
0.000367667
0.00036032
0.000352464
0.000344143
0.000335392
0.000326215
0.000316589
0.00030644
0.000295676
0.000284221
0.000271989
0.000258868
0.000244721
0.000229395
0.000212684
0.000194343
0.000174075
0.000151544
0.000126462
9.86815e-05
6.81655e-05
3.51056e-05
4.94614e-06
0.000454912
0.000453682
0.000452056
0.000450058
0.000447712
0.000445047
0.000442065
0.000438748
0.000435073
0.000431
0.000426473
0.000421438
0.000415867
0.000409774
0.000403213
0.000396253
0.000388935
0.000381228
0.000372973
0.00036417
0.000354938
0.000345311
0.000335306
0.00032494
0.000314197
0.000303032
0.000291387
0.000279182
0.000266311
0.0002526
0.000237827
0.00022171
0.000203935
0.000184027
0.000161356
0.000135308
0.000105571
7.22878e-05
3.65086e-05
5.35519e-06
0.000477095
0.000475389
0.000473259
0.000470725
0.000467806
0.000464531
0.000460884
0.000456769
0.000452171
0.000447081
0.000441479
0.000435352
0.000428703
0.000421568
0.000414008
0.00040607
0.000397764
0.000389021
0.000379704
0.000369848
0.000359531
0.000348742
0.000337552
0.000326061
0.000314324
0.00030237
0.000290207
0.000277815
0.000265127
0.000251992
0.00023813
0.000223078
0.000206521
0.000187986
0.000166525
0.00014096
0.000110482
7.51644e-05
3.70957e-05
5.78295e-06
0.000496736
0.000494447
0.000491695
0.000488486
0.000484843
0.00048081
0.000476336
0.000471256
0.000465548
0.000459248
0.000452375
0.000444949
0.000437003
0.000428596
0.000419801
0.000410649
0.000401112
0.000391097
0.000380501
0.000369308
0.000357536
0.000345192
0.00033241
0.000319362
0.000306171
0.000292943
0.00027976
0.000266678
0.000253727
0.000240891
0.000227954
0.000214299
0.000199585
0.000183445
0.00016498
0.000142497
0.000114216
7.92919e-05
3.96895e-05
6.27175e-06
0.000514112
0.000511143
0.000507658
0.000503663
0.000499183
0.000494228
0.000488735
0.000482557
0.000475622
0.000467984
0.00045969
0.000450783
0.000441319
0.000431373
0.000421032
0.000410346
0.000399284
0.000387701
0.000375483
0.000362571
0.000348985
0.000334783
0.000320111
0.000305182
0.000290193
0.00027532
0.000260712
0.000246482
0.000232708
0.000219446
0.000206634
0.000193918
0.000181031
0.000167691
0.000153286
0.000136026
0.000113681
8.37386e-05
4.47338e-05
6.75276e-06
0.000529507
0.000525774
0.000521467
0.000516593
0.000511167
0.000505161
0.000498508
0.000491095
0.000482846
0.000473796
0.00046399
0.000453485
0.000442348
0.000430663
0.000418506
0.000405922
0.000392873
0.000379242
0.000364984
0.000350067
0.000334485
0.000318297
0.000301664
0.000284826
0.000268038
0.000251537
0.000235522
0.000220135
0.000205444
0.000191505
0.000178432
0.000166156
0.000154514
0.000143297
0.000132085
0.000119635
0.00010385
8.14146e-05
4.86967e-05
7.2104e-06
0.000543254
0.000538709
0.000533513
0.000527672
0.000521182
0.00051401
0.000506101
0.000497375
0.000487771
0.000477288
0.000465953
0.00045382
0.000440954
0.000427427
0.000413307
0.000398627
0.000383376
0.000367508
0.000351002
0.000333869
0.000316165
0.000298005
0.000279589
0.000261192
0.00024312
0.000225658
0.000209049
0.000193467
0.000178966
0.000165485
0.000153117
0.000141836
0.00013139
0.000121475
0.000111699
0.000101303
8.89579e-05
7.22415e-05
4.65263e-05
7.54745e-06
0.000555778
0.000550432
0.00054435
0.000537524
0.000529941
0.000521574
0.00051239
0.000502342
0.000491383
0.000479495
0.000466686
0.000452993
0.000438467
0.000423165
0.000407137
0.00039042
0.000373031
0.000354982
0.000336309
0.000317097
0.000297492
0.000277706
0.000258024
0.0002388
0.000220413
0.000203204
0.000187427
0.000173265
0.00016073
0.000149599
0.000139634
0.000130601
0.000122078
0.000113523
0.000104366
9.39713e-05
8.15597e-05
6.60492e-05
4.40969e-05
7.75403e-06
0.000567562
0.000561482
0.00055459
0.000546865
0.000538289
0.000528845
0.000518512
0.000507264
0.000495075
0.000481929
0.00046783
0.000452799
0.000436866
0.00042007
0.00040245
0.000384042
0.000364889
0.000345051
0.000324636
0.00030382
0.00028286
0.000262092
0.00024191
0.00022277
0.000205128
0.000189354
0.000175666
0.000164137
0.000154624
0.000146754
0.000140013
0.000133821
0.000127556
0.000120562
0.000112106
0.000101317
8.7258e-05
6.9066e-05
4.57024e-05
8.27477e-06
0.000579165
0.000572503
0.000564978
0.00055656
0.000547225
0.000536959
0.000525753
0.0005136
0.000500497
0.000486446
0.000471453
0.000455535
0.000438707
0.00042099
0.000402407
0.000382991
0.000362795
0.000341912
0.000320504
0.000298821
0.000277225
0.000256166
0.000236154
0.000217712
0.000201329
0.000187359
0.000175966
0.000167068
0.000160325
0.000155194
0.000150976
0.000146923
0.000142361
0.00013657
0.000128662
0.000117472
0.000101694
8.02497e-05
5.19964e-05
1.01342e-05
0.000591163
0.000584157
0.000576279
0.000567492
0.000557767
0.000547089
0.000535456
0.00052288
0.000509385
0.000495007
0.000479771
0.000463689
0.000446766
0.000429004
0.000410406
0.000390988
0.000370794
0.000349917
0.000328526
0.00030689
0.000285406
0.000264581
0.000244998
0.000227238
0.000211805
0.000199038
0.000189047
0.000181692
0.000176487
0.000172783
0.000169832
0.000166863
0.000163233
0.000158219
0.000150692
0.00013887
0.000120628
9.45924e-05
6.01834e-05
1.28e-05
0.000604063
0.000597017
0.000589142
0.000580398
0.000570754
0.000560191
0.000548715
0.000536356
0.000523171
0.000509234
0.000494591
0.000479249
0.000463194
0.000446408
0.000428872
0.000410572
0.000391524
0.000371791
0.000351506
0.000330886
0.00031027
0.000290129
0.000271034
0.000253595
0.000238356
0.000225707
0.000215799
0.000208507
0.000203412
0.000199862
0.000197082
0.000194318
0.000191069
0.000186784
0.000180042
0.00016785
0.000146014
0.000112413
6.82988e-05
1.54798e-05
0.000618206
0.000611444
0.00060395
0.00059569
0.000586635
0.000576766
0.000566075
0.000554618
0.000542503
0.00052981
0.00051657
0.000502773
0.000488381
0.000473365
0.00045769
0.000441303
0.000424189
0.000406384
0.000387972
0.000369093
0.000349986
0.000331017
0.000312656
0.000295455
0.000279993
0.000266739
0.000255969
0.0002477
0.000241646
0.000237252
0.000233823
0.000230563
0.000226914
0.000223213
0.000218476
0.000207716
0.000182808
0.000139918
8.07293e-05
1.77166e-05
0.000633719
0.000627541
0.000620774
0.000613398
0.000605395
0.000596749
0.000587423
0.000577479
0.000567052
0.000556123
0.000544712
0.000532806
0.00052034
0.000507292
0.000493625
0.000479247
0.000464132
0.00044832
0.000431859
0.000414819
0.000397347
0.000379699
0.000362252
0.000345465
0.000329842
0.000315867
0.000303895
0.000294086
0.000286355
0.000280379
0.000275676
0.000271754
0.000268178
0.000264332
0.000262652
0.000254552
0.000227419
0.00017686
0.0001002
1.93746e-05
0.000650531
0.000645197
0.000639467
0.000633328
0.000626751
0.000619721
0.000612194
0.000604117
0.000595478
0.000586272
0.000576515
0.000566214
0.000555314
0.000543753
0.000531514
0.000518552
0.000504855
0.00049045
0.000475353
0.000459592
0.000443261
0.000426551
0.000409758
0.000393257
0.000377472
0.000362817
0.000349649
0.000338216
0.000328633
0.000320889
0.000314869
0.000310437
0.000307579
0.000306402
0.000307118
0.000298436
0.000268135
0.000212259
0.000122302
2.04813e-05
0.000668389
0.000664081
0.000659633
0.000655051
0.000650207
0.000644991
0.000639275
0.000632826
0.000625568
0.000617544
0.000608755
0.000599207
0.000588923
0.000577898
0.000566183
0.000553776
0.000540624
0.000526718
0.000512075
0.000496731
0.000480764
0.000464336
0.000447699
0.000431181
0.000415161
0.000400025
0.000386138
0.000373835
0.000363427
0.000355172
0.000349213
0.000345573
0.000344288
0.000345461
0.000345775
0.000331284
0.000296602
0.000236256
0.00013831
2.10517e-05
0.000687048
0.000683825
0.000680652
0.000677573
0.000674447
0.000670955
0.000666723
0.000661288
0.000654502
0.000646572
0.000637702
0.000627959
0.000617421
0.000606122
0.000594081
0.000581307
0.000567794
0.000553547
0.000538576
0.000522947
0.000506754
0.000490148
0.000473381
0.000456814
0.000440872
0.000425987
0.000412556
0.00040094
0.000391479
0.000384441
0.000379921
0.000377807
0.000377802
0.000379026
0.00037412
0.000353244
0.00031406
0.000249336
0.000146029
2.11692e-05
0.000706004
0.000703701
0.000701473
0.000699314
0.000697041
0.000694259
0.000690462
0.000685254
0.000678503
0.000670329
0.00066092
0.000650445
0.000639042
0.000626783
0.000613706
0.000599855
0.000585286
0.00057011
0.000554388
0.000538223
0.000521704
0.000504949
0.000488254
0.000472124
0.000457133
0.000443782
0.000432429
0.000423291
0.000416499
0.000412088
0.00040993
0.000409647
0.000410316
0.000408513
0.000396313
0.0003697
0.000325819
0.000256755
0.000148976
2.09881e-05
0.00072452
0.000722772
0.00072095
0.000718964
0.000716568
0.000713378
0.000709029
0.000703293
0.000696029
0.000687251
0.000677069
0.000665637
0.000653099
0.000639533
0.000625019
0.000609686
0.000593775
0.00057762
0.00056132
0.000544909
0.00052843
0.000512045
0.000496081
0.000481277
0.000468443
0.000458026
0.00045018
0.000444814
0.000441694
0.000440474
0.000440673
0.00044149
0.000440811
0.00043313
0.000413938
0.000382209
0.000334037
0.000260837
0.000149203
2.06408e-05
0.000741779
0.000740059
0.000737981
0.000735408
0.000732102
0.000727762
0.000722146
0.000715132
0.000706698
0.000696908
0.00068583
0.000673472
0.000659826
0.000644878
0.000628763
0.000611934
0.000595014
0.000578272
0.000561987
0.000546083
0.000530453
0.000515215
0.000500824
0.00048855
0.000479042
0.000472589
0.000469008
0.000467881
0.000468612
0.000470346
0.000472172
0.00047242
0.000466631
0.000451717
0.000427301
0.000391561
0.000339674
0.000262541
0.000147532
2.02583e-05
0.000757287
0.000755067
0.000752129
0.000748325
0.000743471
0.000737378
0.000729936
0.000721183
0.000711259
0.000700239
0.000688042
0.000674498
0.000659433
0.000642919
0.000625286
0.000607427
0.000590041
0.000573651
0.000558461
0.000544249
0.000530616
0.000517442
0.000505699
0.000497035
0.000491926
0.000490007
0.000490605
0.000493087
0.00049676
0.000500641
0.000502892
0.000498804
0.000485845
0.000465803
0.000438089
0.000399604
0.000344457
0.000263244
0.000145009
1.99916e-05
0.000771034
0.000767924
0.0007637
0.000758229
0.0007514
0.000743161
0.000733595
0.000722954
0.000711405
0.000698706
0.000684469
0.000668601
0.000651279
0.00063307
0.000614651
0.000596675
0.000579974
0.000565115
0.000552234
0.000540974
0.000530548
0.000520997
0.000514117
0.000510462
0.000509775
0.000511458
0.000514862
0.000519408
0.000524489
0.000528936
0.000527515
0.000516252
0.000499561
0.000477996
0.000449335
0.000409126
0.000350599
0.000264759
0.000143198
1.99763e-05
0.000783465
0.000779296
0.00077362
0.000766323
0.000757358
0.000746782
0.000734786
0.000721661
0.000707503
0.000691957
0.000674838
0.000656568
0.000637719
0.000618937
0.000600952
0.000584448
0.000569917
0.000557648
0.000547634
0.000539726
0.000533465
0.000529302
0.000527633
0.000528329
0.000530681
0.000534411
0.000539165
0.000544476
0.000549664
0.000552854
0.000543362
0.000529308
0.000513047
0.000492786
0.000464462
0.000422286
0.000359365
0.000268204
0.000143173
2.02866e-05
0.000795296
0.000790137
0.000783104
0.000774084
0.000763051
0.00075009
0.000735386
0.000719148
0.000701532
0.000682702
0.00066308
0.000643303
0.000624036
0.000605993
0.000589933
0.000576417
0.00056561
0.000557279
0.000550837
0.00054635
0.000544057
0.000543862
0.000545177
0.000547515
0.000551095
0.000555528
0.000560439
0.00056548
0.000570691
0.000569356
0.000555529
0.00054357
0.000530846
0.000513172
0.000484725
0.000439088
0.000370578
0.000274042
0.000145546
2.09406e-05
0.000807283
0.000801399
0.000793308
0.000782873
0.000770049
0.000754907
0.000737634
0.000718509
0.000697912
0.000676392
0.00065473
0.000633867
0.000614738
0.000598226
0.000585097
0.000575786
0.000570156
0.00056643
0.000563709
0.000562618
0.000563276
0.000565143
0.000567548
0.000569964
0.000572315
0.000574814
0.000577481
0.000580348
0.000582577
0.000578772
0.000570378
0.000563509
0.000554963
0.000539081
0.000508897
0.000458316
0.000384105
0.000283275
0.000151183
2.19241e-05
0.000820085
0.000813907
0.000805257
0.000793961
0.000779942
0.000763252
0.000744099
0.000722864
0.000700127
0.000676705
0.000653652
0.000632162
0.000613416
0.000598429
0.000587926
0.00058223
0.000580874
0.000581861
0.00058324
0.000584963
0.000587501
0.000590506
0.000593412
0.000595539
0.000596638
0.000596966
0.000597024
0.000597224
0.000597255
0.000594938
0.000591896
0.000590074
0.000584633
0.000568484
0.000534761