/*--------------------------------*- C++ -*----------------------------------*\
  =========                 |
  \\      /  F ield         | OpenFOAM: The Open Source CFD Toolbox
   \\    /   O peration     | Website:  https://openfoam.org
    \\  /    A nd           | Version:  8
     \\/     M anipulation  |
\*---------------------------------------------------------------------------*/
FoamFile
{
    version     2.0;
    format      ascii;
    class       volScalarField;
    location    "1.4";
    object      alpha.water;
}
// * * * * * * * * * * * * * * * * * * * * * * * * * * * * * * * * * * * * * //

dimensions      [0 0 0 0 0 0 0];

internalField   nonuniform List<scalar> 
9150
(
1
1
1
1
1
1
1
1
1
1
1
1
1
1
1
1
1
1
1
1
1
1
1
1
1
1
1
1
1
1
1
1
1
1
1
1
1
1
1
1
1
1
1
1
1
1
1
1
1
1
1
1
1
1
1
1
1
1
1
1
1
1
1
1
1
1
1
1
1
1
1
1
1
1
1
1
1
1
1
1
1
1
1
1
1
1
1
1
1
1
1
1
1
1
1
1
1
1
1
1
1
1
1
1
1
1
1
1
1
1
1
1
1
1
1
1
1
1
1
1
1
1
1
1
1
1
1
1
1
1
1
1
1
1
1
1
1
1
1
1
1
1
1
1
1
1
1
1
1
1
0.434077
0.416506
0.520369
0.533626
0.530775
0.519966
0.519966
0.519966
0.521015
0.638056
0.6189
0.415293
0.415293
0.41545
0.531176
0.677581
0.596365
0.665341
0.789389
0.786493
0.790257
0.485706
0.415293
0.62822
0.790901
0.790901
0.790899
0.790865
0.790806
0.775945
0.790693
0.790773
0.655251
0.790904
0.790903
0.790901
0.790872
0.790809
0.790771
0.790552
0.790773
0.790874
0.790915
0.790915
0.790904
0.790895
0.790744
0.790296
0.790559
0.760212
0.790693
0.790784
0.790885
0.790904
0.790895
0.790854
0.70142
0.682813
0.783877
0.495325
0.789797
0.787561
0.789204
0.790874
0.790854
0.790564
0.537924
0.468193
0.523018
0.475787
0.401904
0.333417
0.593966
0.791177
0.790452
0.735306
0.459379
0.461528
0.470553
0.687891
0.0207138
0.0209745
0.478337
0.788873
0.714406
0.419536
0.4225
0.475871
0.692359
0.69255
0.0205434
0.0207138
0.373306
0.78298
0.454811
0.412441
0.415154
0.691539
0.69255
0.69255
0.0205754
0.0216653
0.374174
0.744842
0.406676
0.408355
0.527505
0.691905
0.692294
0.69255
0.0216635
0.315072
0.66789
0.664148
0.393473
0.430304
0.69048
0.691364
0.691905
0.691822
0.271445
0.698581
0.69796
0.675643
0.384788
0.46265
0.688137
0.690467
0.691396
0.597636
0.696734
0.701509
0.699446
0.537012
0.380554
0.380554
0.52544
0.688089
0.633613
0.529292
0.704786
0.703572
0.644612
0.382753
0.380675
0.380536
0.380675
0.646829
0.609504
0.503334
0.706143
0.530051
0.344864
0.457475
0.385787
0.380675
0.410478
0.638074
0.499025
0.173131
0.630582
0.168479
0.337006
0.76083
0.646952
0.412832
0.643472
0.534432
0.146924
0.00126296
0.289432
0.166101
0.686979
0.760804
0.76084
0.759695
0.636819
0.175589
0.0012661
0.00126244
0.077849
0.257031
0.760804
0.760867
0.760808
0.760588
0.623499
0.0256607
0.00126868
0.0012661
0.0413579
0.182542
0.74512
0.760808
0.760749
0.760749
0.66902
0.0624501
0.00127642
0.00128133
0.033276
0.0129788
0.360525
0.760716
0.760749
0.760716
0.75528
0.259228
0.00138266
0.00130827
0.0761063
0.0045374
0.0998403
0.683239
0.76072
0.760128
0.759543
0.627513
0.0833979
0.0255139
0.0461168
0.00281879
0.0045374
0.255563
0.759408
0.759545
0.759075
0.758625
0.711993
0.737203
0.0332219
0.0026202
0.00281879
0.129349
0.635638
0.699738
0.75804
0.618848
0.7415
0.759912
0.00552828
0.0026202
0.0026202
0.120673
0.666389
0.666877
0.751416
0.379222
0.0710302
0.0464208
0.00413107
0.00438049
0.00415521
0.11834
0.678821
0.71435
0.747756
0.156343
0.00649552
0.00606053
0.0119837
0.0118367
0.00313109
0.115572
0.674944
0.661337
0.638481
0.163201
0.00606053
0.0058726
0.0136001
0.00846455
0.002109
0.0687707
0.673273
0.66756
0.234355
0.211308
0.0160899
0.00548393
0.0133855
0.000454125
0.000467944
0.0463858
0.674506
0.662094
0.0827913
0.14462
0.0594561
0.00484202
0.00026285
0.000260411
0.00026345
0.035991
0.675241
0.666276
0.044551
0.00647822
0.0416244
0.0212942
0.000472431
0.000260411
0.000260411
0.0486586
0.676114
0.664362
0.0533523
0.00201967
0.00189508
0.0156613
0.00125186
0.000267612
0.000652762
0.0524155
0.676176
0.662724
0.0651582
0.000830129
0.000365366
0.000687076
0.000322618
0.000272381
0.00132477
0.045327
0.676146
0.663858
0.0570083
0.00350335
0.000294187
0.000212069
0.000280865
0.000273062
0.00115577
0.039764
0.671162
0.662066
0.0495501
0.0218465
0.00489437
0.000178978
0.000283888
0.000795652
0.000865147
0.0362995
0.667738
0.653149
0.0511926
0.0268394
0.015474
0.000915561
0.000732508
0.00106792
6.13744e-05
0.0304609
0.667741
0.646142
0.0511563
0.0213385
0.0034805
4.58296e-05
0.000866039
0.000580198
4.56659e-07
0.020542
0.667725
0.638396
0.0497684
0.0211454
0.000895974
4.56908e-05
2.89286e-05
4.56677e-07
4.56677e-07
0.00929657
0.667726
0.629068
0.0462669
0.0294546
0.000898304
4.62339e-05
4.56813e-07
4.5731e-07
4.56677e-07
0.00406879
0.658541
0.616505
0.0413896
0.0434348
0.0136097
5.82259e-05
4.56813e-07
5.72105e-07
4.5731e-07
0.00450705
0.617444
0.595833
0.032748
0.045303
0.0163659
0.000926151
8.62769e-07
5.67025e-06
4.64203e-07
0.00512368
0.583236
0.57913
0.0137003
0.045285
0.0186392
0.000611467
5.29507e-07
6.75609e-06
1.45571e-06
6.0438e-07
0.568292
0.570679
7.68081e-06
0.0453078
0.0235262
0.00318164
4.73352e-07
6.75867e-06
1.16947e-06
5.89457e-07
0.564391
0.56467
6.09678e-06
0.0314871
0.0253799
0.00341831
4.58577e-07
2.85245e-06
5.60648e-07
5.447e-07
0.561944
0.560426
5.90428e-06
0.00183787
0.00361979
0.00244249
5.04014e-07
4.74477e-07
4.80524e-07
4.96943e-07
0.563025
0.564189
5.53954e-06
4.99963e-06
3.58305e-06
1.17761e-06
4.58159e-07
4.63337e-07
4.90881e-07
7.02328e-07
0.62325
0.61585
5.06094e-06
5.09334e-06
7.31348e-06
4.54685e-06
4.63337e-07
5.28937e-07
4.74395e-06
3.39945e-06
0.700061
0.702334
8.31671e-06
1.61185e-05
8.97175e-06
4.81587e-06
1.06849e-05
5.05261e-05
3.46796e-05
1.97042e-05
0.745946
0.746937
1.71328e-05
2.26752e-05
1.50834e-05
4.13939e-06
0.000268719
0.000357538
4.42199e-05
0.000643054
0.759862
0.760292
0.000384395
1.61686e-05
8.73331e-05
1.14214e-06
0.000385726
0.000385726
3.64572e-05
0.0128977
0.76141
0.761073
0.0124564
1.85834e-06
9.44363e-05
2.41528e-06
0.000385743
0.000195741
4.71254e-06
0.0313096
0.76141
0.760957
0.0307917
1.16094e-06
9.44379e-05
4.51624e-06
0.000384793
3.34542e-05
4.71254e-06
0.038761
0.76136
0.76175
0.0393194
1.16094e-06
8.65071e-05
3.44823e-06
0.000382089
7.05046e-05
4.14522e-06
0.0405115
0.760779
0.759684
0.0401177
1.16093e-06
2.97454e-06
1.55604e-06
0.000380847
0.000155
3.36679e-06
0.0358166
0.759299
0.755558
0.0334437
1.16094e-06
1.16097e-06
1.16153e-06
0.000380524
0.000172622
3.05505e-06
0.0236697
0.754521
0.755608
0.0248924
1.16097e-06
1.16146e-06
1.17311e-06
0.000144416
8.4133e-05
2.96917e-06
0.0179127
0.748946
0.750273
0.0190041
1.16146e-06
1.17225e-06
1.15e-05
1.06597e-06
9.16647e-06
2.97852e-06
0.0143841
0.746015
0.745969
0.014893
1.16667e-06
9.60559e-06
8.39981e-05
1.07151e-06
2.90707e-05
2.97201e-06
0.0116686
0.745415
0.744246
0.0119643
1.21144e-06
3.89436e-05
0.000145689
1.83167e-06
0.000139889
3.03226e-06
0.0105243
0.747889
0.746676
0.00939461
1.38176e-06
5.72329e-05
0.000151875
6.43e-05
0.000139978
3.4037e-06
0.00901554
0.758891
0.760284
0.00956604
1.74146e-06
6.18747e-05
0.0001343
0.000174286
0.000139467
4.13178e-06
0.0139006
0.77835
0.778568
0.0140013
2.06637e-06
6.56827e-05
0.000116521
0.000175352
0.000125755
3.61681e-06
0.0260135
0.799404
0.800337
0.0257221
2.24124e-06
0.000148607
1.08911e-05
0.000176758
9.25824e-05
3.31749e-06
0.0406474
0.821183
0.822162
0.0403534
2.39751e-06
0.00023621
7.99538e-06
0.000178397
8.28143e-05
3.16139e-06
0.0553314
0.840382
0.84123
0.0551179
2.52556e-06
0.000236424
9.6749e-06
0.000179765
8.39739e-05
2.99063e-06
0.0686503
0.85448
0.854899
0.0685141
2.57343e-06
8.90047e-05
4.66758e-05
0.000195596
9.3914e-05
2.67929e-06
0.0802828
0.86254
0.862665
0.0804187
2.6229e-06
8.00316e-05
9.89383e-05
0.000222425
9.62414e-05
2.39946e-06
0.0864589
0.864121
0.864091
0.0860498
2.7166e-06
0.000565171
0.000179638
0.000233748
8.33113e-05
2.13036e-06
0.0875059
0.864121
0.864034
0.0875079
3.37406e-06
0.00067498
0.00020633
0.00025046
6.63661e-05
1.91743e-06
0.0872061
0.863156
0.863364
0.0878178
6.26557e-06
0.000673573
0.000778431
0.000248889
1.43182e-05
1.88296e-06
0.0861731
0.862574
0.861726
0.0860477
9.19922e-06
0.000652917
0.000782135
0.00021255
2.10346e-06
1.88543e-06
0.0828512
0.862188
0.860238
0.0825515
8.13533e-06
0.000195848
0.000519994
9.44794e-05
3.58675e-06
1.88295e-06
0.0794309
0.861568
0.863102
0.0815997
7.54922e-06
3.63491e-05
3.7829e-06
8.31061e-06
8.44392e-05
1.90015e-06
0.0822121
0.867803
0.866731
0.0827873
6.24907e-06
5.10941e-06
3.35544e-06
8.70173e-07
0.000135118
2.03075e-06
0.0938991
0.877258
0.876589
0.0943167
7.55729e-06
8.61933e-05
5.0979e-05
8.65414e-07
0.000166453
1.7137e-06
0.108434
0.889307
0.889385
0.10934
8.55281e-06
0.000148839
8.35073e-05
8.65776e-07
0.000230717
9.07501e-07
0.126868
0.902538
0.902353
0.12738
1.04219e-05
0.000147573
5.25402e-05
0.000243226
0.000241802
1.1965e-07
0.146443
0.914317
0.914163
0.147061
1.20666e-05
0.000200404
4.4525e-05
0.00013888
3.20374e-05
9.67479e-08
0.165836
0.924555
0.924427
0.166211
1.36601e-05
0.000353748
2.75141e-05
1.53045e-06
9.67479e-08
9.67471e-08
0.183147
0.93304
0.932889
0.183524
1.54606e-05
0.000353702
0.000157283
9.86652e-08
9.67479e-08
9.67479e-08
0.199963
0.940703
0.940487
0.200388
1.73362e-05
0.000350907
0.000385419
1.00675e-05
3.96237e-07
9.67471e-08
0.217506
0.947791
0.947508
0.217941
1.96726e-05
0.000406399
0.000670368
3.33227e-05
1.67481e-06
9.82221e-08
0.24151
0.955871
0.955467
0.242068
2.26584e-05
0.000520744
0.000860048
2.92409e-05
8.02073e-07
9.97387e-08
0.275254
0.964865
0.964362
0.276297
2.35775e-05
0.000637498
0.000861838
1.59464e-06
9.97408e-08
9.97016e-08
0.31514
0.973376
0.972621
0.316427
2.07402e-05
0.000702223
0.000861931
1.81455e-07
9.97011e-08
9.97408e-08
0.35571
0.980597
0.979584
0.356849
1.76528e-05
0.000726423
0.000861931
1.01209e-07
9.97625e-08
9.97109e-08
0.390424
0.985823
0.984739
0.391277
1.49545e-05
0.000683959
0.000861931
1.0656e-07
1.00409e-07
9.97625e-08
0.420122
0.989535
0.988619
0.420717
1.37097e-05
0.000378169
0.000861914
1.00994e-07
1.00994e-07
1.00409e-07
0.454512
0.992699
0.992136
0.454785
1.35728e-05
3.12797e-05
0.00030854
1.01006e-07
1.00994e-07
1.01006e-07
0.51091
0.995578
0.995471
0.510647
1.32618e-05
1.31135e-05
1.37472e-05
1.0114e-07
1.01006e-07
1.02326e-07
0.596629
0.997568
0.997596
0.596654
1.31135e-05
1.31016e-05
1.31135e-05
1.30715e-05
1.02326e-07
1.60803e-07
0.690552
0.999007
0.998118
0.690995
1.338e-05
1.30901e-05
5.66396e-05
8.29807e-05
1.60803e-07
4.67749e-07
0.774489
0.999328
0.999003
0.755974
1.3092e-05
1.3092e-05
8.86967e-05
0.000112165
4.67749e-07
0.0207189
0.796774
0.999399
0.999501
0.828334
0.0555789
1.30908e-05
0.000102991
0.000111166
1.19426e-06
0.0420301
0.792077
0.99953
0.999668
0.928992
0.171405
1.31362e-05
7.24616e-05
6.98725e-05
2.11576e-06
0.157029
0.923038
0.99971
0.999947
0.960255
0.272935
1.31821e-05
9.29038e-05
2.7656e-06
2.87096e-06
0.332625
0.97134
0.999964
0.999972
0.993398
0.469133
1.48876e-05
0.000141874
3.17237e-06
3.19413e-06
0.616239
0.999972
0.999983
0.999996
0.999977
0.682356
3.00869e-05
3.8441e-05
1.22745e-07
0.0727002
0.856696
0.999991
1
0.999999
0.999996
0.896199
0.111523
3.86458e-05
1.61398e-08
0.561966
0.999823
1
1
1
0.999999
0.999796
0.576896
3.86458e-05
0.322823
0.959914
1
1
1
1
1
1
0.97358
0.353005
0.720749
0.682817
0.672429
0.578175
0.185825
0.448904
0.582762
0.579393
0.579732
0.57979
0.579794
0.579794
0.579798
0.579635
0.578884
0.483138
0.369196
0.624771
0.748061
0.748955
0.749034
0.749034
0.749034
0.748963
0.726006
0.686293
0.687022
0.74455
0.750856
0.668283
0.624476
0.626304
0.686466
0.718961
0.719381
0.719445
0.719452
0.719446
0.713862
0.627443
0.739074
0.328013
0.134665
0.126346
0.123311
0.116639
0.163971
0.532345
0.579393
0.579732
0.57979
0.579794
0.537094
0.133322
0.0485515
0.0478609
0.262115
0.732174
0.74678
0.748061
0.544227
0.477274
0.727998
0.748914
0.705243
0.687975
0.690527
0.753806
0.750856
0.750856
0.636516
0.634363
0.689037
0.600177
0.158718
0.290434
0.715709
0.719451
0.544922
0.626061
0.754464
0.712867
0.495701
0.233332
0.130583
0.109991
0.107144
0.104553
0.361966
0.578513
0.499401
0.130264
0.0494927
0.0480885
0.0478057
0.0477517
0.0478609
0.272175
0.73048
0.74678
0.34534
0.295187
0.297923
0.416934
0.758994
0.760193
0.758279
0.756757
0.753246
0.442583
0.128568
0.126705
0.126477
0.125354
0.128321
0.382343
0.695636
0.658931
0.514957
0.70507
0.788874
0.789188
0.789533
0.764854
0.624598
0.394883
0.104553
0.104553
0.110741
0.17742
0.138899
0.0494629
0.0478144
0.0477552
0.047742
0.04774
0.0496238
0.380477
0.691426
0.361039
0.295309
0.295715
0.298896
0.716308
0.764581
0.761185
0.651609
0.231349
0.226802
0.226802
0.393269
0.220727
0.125378
0.125291
0.130495
0.352461
0.553803
0.495407
0.594302
0.712979
0.741488
0.781703
0.792135
0.792667
0.792698
0.792693
0.659774
0.164801
0.0526032
0.0493329
0.0480805
0.0478134
0.0477552
0.047742
0.0477405
0.047742
0.0477412
0.102575
0.242775
0.318939
0.434992
0.699455
0.76471
0.764902
0.764761
0.608161
0.336377
0.32638
0.559711
0.742456
0.790947
0.686263
0.335265
0.125354
0.125291
0.128766
0.194596
0.504578
0.712979
0.713019
0.472887
0.501584
0.701901
0.792266
0.792693
0.79271
0.792693
0.652798
0.118122
0.0483323
0.0480876
0.048086
0.114236
0.406163
0.307933
0.101162
0.14213
0.466541
0.713123
0.747926
0.76442
0.764863
0.764921
0.764924
0.764735
0.519714
0.528113
0.572541
0.790984
0.791004
0.791009
0.790996
0.739409
0.249166
0.125615
0.125722
0.126563
0.439693
0.713019
0.713019
0.465512
0.463998
0.464499
0.709188
0.792459
0.792693
0.792459
0.784505
0.612929
0.399921
0.395306
0.522265
0.74466
0.767891
0.757534
0.747486
0.727059
0.606188
0.712848
0.764428
0.764863
0.764921
0.764925
0.764921
0.671805
0.564376
0.790644
0.790985
0.791009
0.79101
0.79101
0.791009
0.790996
0.592191
0.151133
0.126231
0.126752
0.195679
0.697579
0.713019
0.607771
0.4646
0.463998
0.468992
0.781434
0.792459
0.54886
0.724846
0.769293
0.769293
0.769293
0.76844
0.768195
0.767891
0.486012
0.176234
0.170634
0.130662
0.2457
0.646922
0.764427
0.764864
0.506626
0.330343
0.250033
0.762207
0.790984
0.791009
0.79101
0.79101
0.79101
0.79101
0.791007
0.591113
0.184031
0.126752
0.127128
0.127897
0.64761
0.712993
0.692359
0.55851
0.4646
0.467662
0.75469
0.791405
0.34076
0.420664
0.72897
0.747445
0.653443
0.252395
0.262163
0.162536
0.0609651
0.0608054
0.0608054
0.0608054
0.0744135
0.299677
0.337917
0.177999
0.133259
0.136663
0.144614
0.692707
0.791001
0.79101
0.79101
0.79101
0.79101
0.79101
0.790991
0.578694
0.554416
0.432944
0.307705
0.131023
0.539151
0.712804
0.69255
0.576852
0.467662
0.511943
0.762071
0.772133
0.336216
0.228762
0.160384
0.0451641
0.0027345
0.00612142
0.0203997
0.0928364
0.241206
0.236725
0.169299
0.146932
0.1482
0.141224
0.133429
0.13326
0.133429
0.133429
0.353257
0.758211
0.791007
0.79101
0.79101
0.79036
0.679185
0.712519
0.698756
0.720459
0.806773
0.806474
0.748219
0.295825
0.446824
0.712368
0.691579
0.479098
0.471908
0.674376
0.749564
0.363192
0.0591124
0.0356981
0.012748
0.0313438
0.00182718
0.00273438
0.00655374
0.0924264
0.574045
0.700317
0.700359
0.700289
0.700263
0.700312
0.700187
0.59522
0.549992
0.620849
0.763109
0.791002
0.79101
0.79101
0.79101
0.639816
0.457904
0.458019
0.461903
0.792741
0.807088
0.807082
0.806911
0.652529
0.447301
0.55347
0.547366
0.488238
0.618822
0.666159
0.508227
0.0341999
0.00125799
0.00138164
0.00713774
0.0258746
0.00145604
0.00182705
0.00393911
0.100256
0.489448
0.666311
0.69885
0.700361
0.700361
0.700205
0.699913
0.69978
0.572392
0.578096
0.6563
0.790991
0.791009
0.79101
0.79101
0.661851
0.457904
0.457903
0.458019
0.650357
0.807088
0.80711
0.807132
0.798795
0.44798
0.448224
0.494602
0.59031
0.585835
0.478408
0.0134362
0.00123725
0.00123805
0.00125799
0.0087402
0.0161606
0.00130497
0.00145614
0.00951573
0.0209938
0.00318496
0.00314758
0.112333
0.314164
0.506562
0.663867
0.69978
0.699105
0.590472
0.686309
0.722417
0.723286
0.560845
0.434459
0.426615
0.476433
0.667045
0.595514
0.458625
0.546672
0.80711
0.807132
0.807132
0.807132
0.530691
0.449553
0.468621
0.444961
0.286422
0.00426541
0.0012333
0.00123252
0.00123725
0.00432007
0.00883463
0.00148503
0.00124269
0.00142917
0.00679396
0.00687005
0.00314981
0.00314758
0.00314456
0.00316034
0.00334812
0.152915
0.553522
0.663242
0.701764
0.702815
0.703382
0.606687
0.3107
0.312433
0.314333
0.592146
0.769823
0.76976
0.725274
0.549125
0.607266
0.805656
0.807132
0.807053
0.786066
0.450639
0.222436
0.0551748
0.00123427
0.0012333
0.00123246
0.00123156
0.00129097
0.00669264
0.00759339
0.00124088
0.00122444
0.00123363
0.00297478
0.00499358
0.0056822
0.00316452
0.00315094
0.00327351
0.00359008
0.0434285
0.157835
0.253576
0.627119
0.695305
0.367658
0.310586
0.311059
0.337611
0.676694
0.769866
0.769845
0.769823
0.76976
0.559497
0.252092
0.525822
0.807043
0.806997
0.806981
0.480024
0.00124923
0.0012429
0.00123442
0.00123427
0.00123156
0.00122513
0.00139515
0.00393336
0.00202416
0.00122285
0.0012213
0.00122161
0.00123204
0.00566843
0.00564944
0.00298177
0.00320419
0.00917519
0.10077
0.176701
0.151383
0.151318
0.155898
0.159641
0.274888
0.606837
0.711749
0.762588
0.769866
0.769866
0.769866
0.719941
0.536791
0.376583
0.250036
0.259173
0.724457
0.806981
0.806695
0.585915
0.00125476
0.00124924
0.00153863
0.00308407
0.00142792
0.00122212
0.00122227
0.00122786
0.00122326
0.0012208
0.00122061
0.00122086
0.00122122
0.00369224
0.00226091
0.00248449
0.0683287
0.202551
0.300439
0.281467
0.151342
0.151383
0.151567
0.151804
0.411006
0.769135
0.769685
0.769774
0.769731
0.769866
0.679229
0.377076
0.242229
0.245447
0.250069
0.250057
0.455014
0.790801
0.80658
0.585477
0.00126296
0.00160627
0.00531599
0.00529856
0.00203829
0.00122164
0.0012207
0.00122078
0.0012208
0.00122047
0.00122047
0.00122061
0.00122086
0.00122208
0.00141849
0.0882597
0.303384
0.329884
0.318354
0.157926
0.153496
0.194854
0.200912
0.158833
0.21178
0.325573
0.479006
0.52033
0.542091
0.642943
0.257288
0.202679
0.203501
0.304515
0.421926
0.25106
0.266103
0.785943
0.806521
0.584771
0.00127819
0.00352012
0.00530798
0.00531635
0.00529856
0.00208462
0.00122025
0.00122054
0.00122047
0.00122047
0.00122047
0.00122047
0.00122142
0.00126693
0.0963845
0.329362
0.329866
0.329884
0.317116
0.410541
0.529351
0.427717
0.283756
0.204546
0.20226
0.20228
0.202424
0.202994
0.202762
0.220679
0.202602
0.202612
0.202679
0.29718
0.563159
0.285265
0.33297
0.806334
0.806472
0.656992
0.00130829
0.00133087
0.00445979
0.00530996
0.00530461
0.00374717
0.0012206
0.0012206
0.00122054
0.00122046
0.00122047
0.00122128
0.00126649
0.0538692
0.320604
0.328418
0.270856
0.309356
0.541736
0.700362
0.701983
0.680099
0.577352
0.46837
0.430023
0.548933
0.5504
0.276193
0.202679
0.202599
0.202595
0.202602
0.202612
0.203397
0.567493
0.745411
0.741378
0.806431
0.806441
0.806421
0.00133075
0.00134818
0.0013585
0.00232067
0.00351069
0.0014568
0.00122057
0.00122061
0.00122215
0.00122133
0.00154456
0.0146188
0.0755149
0.305653
0.317912
0.291638
0.262633
0.406442
0.735742
0.683194
0.296887
0.259252
0.259022
0.259252
0.284448
0.443724
0.713226
0.748653
0.482819
0.202595
0.202589
0.202595
0.202608
0.228388
0.716337
0.805814
0.806424
0.806424
0.806424
0.721877
0.00597413
0.00141636
0.00141593
0.00150164
0.00151874
0.00149092
0.00122311
0.0012215
0.00124005
0.0417073
0.293575
0.704738
0.763514
0.602574
0.253152
0.253152
0.253315
0.543011
0.746033
0.346656
0.259593
0.258997
0.259252
0.478698
0.749513
0.749514
0.749513
0.749486
0.747238
0.374686
0.202589
0.202602
0.22921
0.686769
0.805287
0.80535
0.805877
0.806424
0.619715
0.48955
0.361021
0.130482
0.178675
0.206575
0.143787
0.105413
0.12305
0.296068
0.642163
0.763702
0.763702
0.763702
0.763692
0.763579
0.609052
0.253152
0.606111
0.749459
0.749446
0.659005
0.26486
0.259593
0.264563
0.596632
0.749513
0.749513
0.749529
0.749568
0.749748
0.74946
0.544801
0.203806
0.340018
0.805124
0.80522
0.8053
0.80535
0.803659
0.496123
0.489235
0.762971
0.763457
0.763582
0.76362
0.76364
0.763667
0.763688
0.763698
0.763701
0.763702
0.763702
0.763701
0.763698
0.763669
0.763708
0.704899
0.556485
0.749459
0.749461
0.749446
0.749393
0.636067
0.308524
0.364003
0.694005
0.749537
0.749509
0.74884
0.749842
0.749954
0.749794
0.669003
0.436914
0.439642
0.589343
0.805244
0.804969
0.731871
0.489275
0.489304
0.415896
0.727837
0.762358
0.763582
0.76362
0.76364
0.763667
0.763688
0.763697
0.763701
0.763701
0.763698
0.763669
0.759984
0.494991
0.402099
0.556106
0.74946
0.749459
0.749453
0.749437
0.749389
0.749322
0.749281
0.749353
0.749482
0.69064
0.655287
0.734165
0.749971
0.749968
0.749914
0.74014
0.474712
0.473508
0.474818
0.481092
0.514376
0.71145
0.653417
0.00626053
0.00713374
0.0954315
0.547043
0.682852
0.496308
0.460904
0.637122
0.732708
0.763356
0.763646
0.763538
0.644452
0.336151
0.339312
0.404443
0.674602
0.749459
0.749453
0.749437
0.749389
0.749322
0.749284
0.749264
0.749227
0.747078
0.745542
0.657828
0.627771
0.749971
0.749973
0.749968
0.749914
0.749934
0.685522
0.627159
0.695343
0.744941
0.744292
0.743371
0.00584389
0.0241516
0.0448602
0.0373072
0.00635044
0.00125557
0.00109589
1.15891e-05
0.0569068
0.248035
0.421842
0.454014
0.315512
0.235376
0.600489
0.737167
0.743624
0.749306
0.749195
0.728172
0.620419
0.47009
0.458221
0.522706
0.516849
0.321769
0.150623
0.166599
0.522498
0.749973
0.749973
0.749973
0.749964
0.749909
0.749854
0.74877
0.748915
0.748638
0.719481
0.719509
0.00591469
0.0392999
0.037986
0.0158291
0.0533703
0.047543
0.000767115
3.31796e-06
3.07265e-06
3.07267e-06
3.07281e-06
3.07394e-06
3.07654e-06
0.101206
0.293151
0.392454
0.427446
0.363412
0.262754
0.13189
0.0541748
0.0592123
0.0601486
0.059244
0.0600899
0.060794
0.0615679
0.062925
0.0863958
0.266526
0.51505
0.745108
0.749909
0.750094
0.749787
0.749221
0.749
0.74883
0.74869
0.748686
0.00349281
0.020671
0.0388959
0.0128066
0.0331723
0.0122954
3.31796e-06
3.07265e-06
3.07265e-06
3.07265e-06
3.07267e-06
3.07281e-06
3.07394e-06
3.08141e-06
3.13364e-06
3.34941e-06
3.92631e-06
6.7779e-06
2.65913e-05
0.000176719
0.0223746
0.0876285
0.0876278
0.0554554
0.124817
0.214687
0.20982
0.0670881
0.0703413
0.0982259
0.218132
0.364484
0.444056
0.581085
0.660695
0.681884
0.702937
0.716336
0.731208
0.73836
0.00313862
0.00302173
0.0243445
0.012314
0.000305227
6.03694e-05
3.93125e-06
3.07265e-06
3.07265e-06
3.07265e-06
3.07273e-06
3.07368e-06
3.08183e-06
3.13279e-06
8.12719e-06
1.28465e-05
2.50428e-05
6.76424e-05
0.000120006
0.00022784
0.000310942
0.000487258
0.0013691
0.047778
0.190482
0.212593
0.215305
0.215348
0.208242
0.188335
0.203723
0.166066
0.102934
0.0770298
0.0701803
0.0957611
0.120994
0.150622
0.190933
0.216496
0.00360118
0.00302173
0.00864916
0.000517433
8.91148e-06
1.99144e-05
7.4884e-05
2.47369e-05
3.42926e-06
3.07272e-06
3.07368e-06
3.08377e-06
3.18975e-06
4.23383e-06
1.7109e-05
0.000132571
4.70888e-05
0.00171865
0.00301417
0.00171438
0.00153073
0.00147428
0.00263524
0.00261668
0.00010396
4.90851e-06
4.88103e-06
4.90499e-06
3.33455e-06
3.3312e-06
3.33172e-06
3.33145e-06
3.33652e-06
3.40474e-06
4.05164e-06
9.36855e-06
3.18111e-05
8.23014e-05
0.000148359
0.000213226
0.000842094
0.00483026
0.0108103
8.40612e-06
8.33753e-06
2.10787e-05
8.84239e-05
8.32887e-05
1.03964e-05
3.07635e-06
3.09871e-06
3.26752e-06
5.42423e-06
1.61956e-05
3.54796e-05
0.00765267
0.0488541
0.104998
0.123358
0.105448
0.054809
0.0233051
0.047576
0.0533655
0.0313449
0.00289962
5.27058e-06
7.66738e-06
5.86748e-06
3.3328e-06
3.33094e-06
3.3328e-06
3.3598e-06
4.11267e-06
0.000429169
0.00148823
0.0033001
0.00403976
0.00389844
0.00408742
0.000172725
0.00275214
0.0109029
0.00240978
8.56126e-06
1.18545e-05
7.26649e-05
3.18145e-05
3.23834e-06
3.16164e-06
3.14316e-06
9.54471e-06
0.0106977
0.0408243
0.0578268
0.147842
0.176278
0.174811
0.173743
0.166429
0.0810845
0.0344309
0.0636247
0.0636247
0.0636247
0.0235521
0.000205416
3.70777e-05
7.20809e-06
3.51921e-06
6.2487e-06
1.52826e-05
1.5301e-05
1.19026e-05
8.66263e-06
2.06546e-06
0.000431915
0.00603474
0.00615004
0.00614995
0.000151831
5.9483e-05
0.0085407
0.00458763
8.90237e-05
1.00375e-05
1.15306e-05
1.43894e-05
3.35367e-06
3.17142e-06
0.0168001
0.0303105
0.163736
0.179515
0.179493
0.179493
0.177878
0.117876
0.0448777
0.000110419
3.93338e-05
1.92796e-05
0.0126264
0.0400733
0.0157292
1.08728e-06
4.96423e-05
2.39241e-05
6.09725e-06
4.47646e-06
4.51513e-06
1.3432e-05
1.53081e-05
1.52266e-05
2.76106e-06
2.03126e-06
2.02995e-06
0.00132664
0.00614993
0.00615006
0.000191682
4.62226e-05
0.000531986
0.00346344
0.00117656
1.00375e-05
1.08949e-05
0.00459644
0.0192715
0.0177212
0.168899
0.179536
0.179536
0.179536
0.179515
0.127367
0.00280709
0.000197416
0.000138661
0.000115568
7.20433e-05
1.27115e-05
1.41906e-06
1.12046e-06
1.08537e-06
1.07747e-06
9.57858e-05
0.000156919
0.000156257
4.1662e-05
2.84411e-06
2.49499e-06
1.04376e-05
7.99225e-06
2.04234e-06
2.02995e-06
2.02944e-06
2.02943e-06
0.00495228
0.00614993
0.000132209
4.44572e-05
4.60856e-05
0.000155645
0.0004714
4.28675e-05
1.18432e-05
0.0270588
0.0944406
0.109154
0.132359
0.174454
0.175524
0.111663
0.00401888
0.000121987
0.000237757
0.000344696
0.000632215
0.00127991
0.00115101
0.000163798
2.61698e-06
1.14071e-06
1.07747e-06
1.0649e-06
1.06376e-06
3.05696e-05
5.85191e-05
1.59915e-05
2.49827e-06
2.38383e-06
2.19569e-06
2.04402e-06
2.03054e-06
2.02948e-06
2.02943e-06
2.02943e-06
0.00116838
0.00613991
4.44572e-05
4.41983e-05
4.43203e-05
3.93528e-05
3.08984e-05
3.16049e-05
0.000953708
0.013462
3.32332e-05
2.8284e-05
3.00671e-05
3.14141e-05
3.19468e-05
3.51979e-05
4.68789e-05
9.10333e-05
0.000224542
0.00130735
0.00129833
0.00129036
0.00124048
0.000217089
1.20192e-06
8.98843e-07
1.00207e-06
1.06484e-06
1.06313e-06
1.06319e-06
1.06319e-06
1.48567e-06
0.000102551
9.13007e-05
8.2114e-06
2.04162e-06
2.02988e-06
2.02944e-06
2.02943e-06
2.02943e-06
0.000511878
0.00597641
0.000393615
4.43203e-05
4.42329e-05
0.00138802
0.00510483
0.00628253
0.00434282
5.55736e-05
2.69651e-05
2.76246e-05
2.8284e-05
3.04142e-05
0.000132464
0.000414729
0.000397876
0.00129353
0.00132897
0.00131835
0.00131232
0.000874656
5.37772e-06
9.45799e-07
8.77476e-07
8.72994e-07
1.4814e-06
1.56081e-06
1.08121e-06
1.06313e-06
1.06424e-06
0.000114063
0.000174593
0.000174462
6.08763e-05
2.05924e-06
2.02981e-06
2.02943e-06
2.02943e-06
2.02943e-06
0.000946682
0.00606204
0.00444797
0.0070149
0.00627285
0.00740779
0.00740779
0.00726212
0.000979922
1.69313e-05
2.19482e-05
2.69651e-05
0.000180638
0.000278069
0.00133538
0.00135075
0.00135075
0.00135075
0.00134553
0.00110115
8.02208e-05
1.08885e-06
9.46053e-07
8.78476e-07
8.7308e-07
8.72683e-07
8.72678e-07
1.67961e-05
8.69991e-06
1.06424e-06
5.41568e-05
0.000174593
0.000174758
0.000174593
5.66602e-05
2.10844e-06
2.05587e-06
0.000207215
0.000550589
9.86393e-05
0.00414833
0.00611491
0.00679949
0.00735674
0.00640756
0.00540301
0.00331372
0.000504039
2.30196e-06
1.34023e-05
3.08164e-05
0.000516877
0.00132878
0.00133036
0.00133661
0.0013468
0.00135075
0.00111005
0.000149468
7.79671e-07
8.19489e-07
9.42256e-07
9.05979e-07
8.74825e-07
8.72724e-07
8.72661e-07
8.72683e-07
2.75245e-05
2.43412e-05
1.26141e-06
7.59395e-05
0.000174753
0.000174744
0.000142007
1.85876e-05
2.1365e-06
0.000128745
0.00212308
0.00133182
0.000808848
0.00582507
0.00611755
0.00271375
0.000929878
0.000275527
0.000115921
2.59096e-05
1.85525e-06
2.08057e-06
3.51392e-05
0.000834094
0.00125561
0.00129633
0.00130824
0.00113641
0.000527753
2.54456e-06
6.47299e-07
6.54219e-07
7.23959e-07
7.79756e-07
2.32436e-06
4.8756e-06
1.53995e-06
8.7366e-07
8.72136e-07
8.72683e-07
3.55665e-05
4.58334e-05
1.76783e-05
3.38548e-05
0.000157023
0.000163928
3.19368e-05
2.68913e-06
2.0851e-06
0.000960822
0.00213437
0.00150523
0.00129987
0.00611755
0.00611812
0.00226595
0.000129448
1.59652e-06
1.36136e-06
1.75518e-06
1.85077e-06
1.85525e-06
0.000849235
0.000858145
0.00084542
0.000378162
6.35961e-07
6.16291e-07
6.20915e-07
6.34389e-07
6.45136e-07
6.47301e-07
6.54221e-07
3.15663e-06
9.38611e-06
9.21873e-06
1.50672e-06
8.72306e-07
8.71376e-07
1.41827e-06
4.31296e-05
4.58815e-05
4.58334e-05
5.49843e-06
2.64208e-05
3.38594e-05
3.34275e-06
2.0851e-06
2.08143e-06
0.000175328
0.00184956
0.00178361
0.00143234
0.00608901
0.00611815
1.32852e-05
2.04897e-06
1.24412e-06
1.27852e-06
2.52444e-05
7.20429e-05
0.000202321
0.000529699
0.000216754
6.40739e-07
6.17123e-07
6.14628e-07
6.15047e-07
6.16292e-07
6.20915e-07
6.34388e-07
6.52053e-07
8.11006e-06
9.42735e-06
9.42735e-06
5.39626e-06
8.71362e-07
8.71229e-07
8.71228e-07
8.68613e-06
4.58814e-05
4.58815e-05
4.03255e-05
1.67587e-06
1.95478e-06
5.12739e-06
8.147e-06
2.08136e-06
2.08172e-06
0.000109146
0.00117534
0.0011675
0.00117146
0.00364317
0.00611812
8.91964e-05
1.14849e-06
1.14525e-06
1.15105e-06
4.12096e-05
0.000115435
8.63103e-05
8.54534e-07
6.40741e-07
6.17124e-07
6.14566e-07
6.14628e-07
6.14554e-07
6.15002e-07
6.29735e-07
6.75493e-07
4.92046e-06
2.5207e-05
7.84408e-06
9.02144e-07
8.71203e-07
8.71199e-07
8.71213e-07
8.71229e-07
2.11585e-05
4.58384e-05
4.58815e-05
1.70319e-05
1.16886e-06
3.82963e-06
7.92045e-06
9.13714e-06
2.11303e-06
4.69745e-06
0.000132237
0.000572975
0.00129471
0.0011962
0.00124518
0.00328984
1.14805e-06
1.14519e-06
1.14508e-06
1.14525e-06
8.711e-06
2.46555e-05
4.96241e-06
8.69305e-07
7.69702e-07
8.71229e-07
6.23867e-07
6.14558e-07
6.15047e-07
3.2168e-06
7.49279e-06
2.62168e-05
4.80909e-05
2.24357e-05
2.84195e-06
8.71203e-07
8.71199e-07
8.71199e-07
8.71199e-07
9.04376e-07
1.99728e-05
4.57038e-05
2.24936e-05
1.01312e-06
1.08869e-06
5.6679e-06
6.41764e-06
5.75506e-06
2.13562e-06
3.40381e-06
0.000363234
0.00215125
0.0022029
0.00123883
0.00121633
0.00197033
1.1459e-06
1.14508e-06
1.14507e-06
1.66928e-06
1.78478e-06
1.23261e-06
1.19874e-06
1.03131e-06
2.21241e-06
3.04831e-06
1.09461e-06
6.16309e-07
6.29622e-07
2.18228e-05
6.50088e-05
0.000299025
0.000678735
0.000416651
4.22991e-06
8.71205e-07
8.71202e-07
8.71199e-07
8.71231e-07
8.95975e-07
4.11215e-06
6.14433e-06
1.03034e-06
1.00034e-06
1.01312e-06
3.5699e-06
1.47311e-05
3.28252e-06
2.50593e-06
6.38081e-05
0.00164945
0.00229879
0.00222445
0.00082869
0.00240945
0.00248216
1.14832e-06
1.14507e-06
1.14508e-06
1.32459e-06
1.32911e-06
1.29323e-06
3.69985e-06
5.90823e-06
5.61246e-06
2.86176e-06
7.02398e-07
6.31128e-07
1.46289e-05
3.56274e-05
0.000273815
0.000928566
0.00092857
0.00092839
0.000353512
8.71205e-07