/*--------------------------------*- C++ -*----------------------------------*\
  =========                 |
  \\      /  F ield         | OpenFOAM: The Open Source CFD Toolbox
   \\    /   O peration     | Website:  https://openfoam.org
    \\  /    A nd           | Version:  8
     \\/     M anipulation  |
\*---------------------------------------------------------------------------*/
FoamFile
{
    version     2.0;
    format      ascii;
    class       volScalarField;
    location    "5.35";
    object      alpha.water;
}
// * * * * * * * * * * * * * * * * * * * * * * * * * * * * * * * * * * * * * //

dimensions      [0 0 0 0 0 0 0];

internalField   nonuniform List<scalar> 
9150
(
1
1
1
1
1
1
1
1
1
1
1
1
1
1
1
1
1
1
1
1
1
1
1
1
1
1
1
1
1
1
1
1
1
1
1
1
1
1
1
1
1
1
1
1
1
1
1
1
1
1
1
1
1
1
1
1
1
1
1
1
1
1
1
1
1
1
1
1
1
1
1
1
1
1
1
1
1
1
1
1
1
1
1
1
1
1
1
1
1
1
1
1
1
1
1
1
1
1
1
1
1
1
1
1
1
1
1
1
1
1
1
1
1
1
1
1
1
1
1
1
1
1
1
1
1
1
1
1
1
1
1
1
1
1
1
1
1
1
1
1
1
1
1
1
1
1
1
1
1
1
0.994207
0.993904
0.987283
0.987235
0.992126
0.993339
0.993339
0.993339
0.993339
0.993339
0.988318
0.971584
0.990042
0.993339
0.993339
0.993339
0.993339
0.993339
0.993339
0.993337
0.933751
0.972032
0.993339
0.993339
0.993339
0.993339
0.993339
0.993339
0.993331
0.993326
0.933726
0.933728
0.933791
0.950302
0.993339
0.993339
0.993338
0.991687
0.992135
0.992147
0.933728
0.933727
0.933728
0.933766
0.93383
0.970165
0.993286
0.9804
0.882677
0.862395
0.988754
0.991249
0.972507
0.933814
0.951781
0.993117
0.993176
0.987763
0.798244
0.731491
0.991337
0.992418
0.992475
0.992514
0.992688
0.992834
0.993117
0.992525
0.897165
0.731491
0.994312
0.988952
0.990639
0.984693
0.990675
0.981586
0.93853
0.890954
0.897949
0.8576
0.994286
0.958863
0.940107
0.946552
0.856614
0.715584
0.6453
0.64531
0.645597
0.835541
0.994279
0.932848
0.788913
0.645199
0.6452
0.645198
0.6452
0.645303
0.704657
0.992849
0.994222
0.853826
0.645614
0.645204
0.645195
0.6452
0.645214
0.647645
0.912368
0.994311
0.994367
0.979224
0.93464
0.850563
0.666398
0.64569
0.810744
0.993509
0.994332
0.99433
0.994367
0.994368
0.994367
0.994367
0.994363
0.994352
0.994345
0.994345
0.994341
0.991911
0.994368
0.994368
0.994368
0.992293
0.980379
0.991164
0.994345
0.994339
0.994331
0.973415
0.994368
0.994368
0.994368
0.994368
0.994368
0.960041
0.915033
0.915334
0.972112
0.985031
0.994368
0.994368
0.994368
0.994368
0.994368
0.991532
0.989596
0.991914
0.876888
0.820884
0.994364
0.994365
0.994368
0.994368
0.994368
0.994368
0.994368
0.992042
0.988314
0.994089
0.943228
0.976237
0.994036
0.994367
0.994368
0.994368
0.994368
0.994367
0.994367
0.994361
0.814779
0.831047
0.975331
0.994363
0.994367
0.994368
0.994367
0.994367
0.9906
0.80867
0.814763
0.81477
0.962171
0.994367
0.994367
0.994367
0.994367
0.994348
0.973061
0.735842
0.936586
0.994356
0.994367
0.994367
0.994367
0.994367
0.994363
0.993373
0.989763
0.852152
0.988235
0.988295
0.984442
0.994367
0.994367
0.992494
0.800449
0.718761
0.836258
0.849387
0.806515
0.988231
0.73188
0.462915
0.432641
0.432699
0.527357
0.80047
0.828289
0.799966
0.800449
0.636268
0.429396
0.429366
0.429366
0.429423
0.47678
0.641708
0.486259
0.429689
0.780082
0.546933
0.429366
0.429366
0.429366
0.429366
0.429423
0.429481
0.429784
0.429689
0.603826
0.465113
0.429396
0.429366
0.429366
0.429423
0.429481
0.436901
0.544496
0.430913
0.866923
0.792178
0.699245
0.737134
0.685417
0.582951
0.514522
0.759858
0.847277
0.493457
0.875761
0.872947
0.870285
0.869001
0.868579
0.868477
0.868391
0.868065
0.850756
0.508397
0.833638
0.683361
0.683361
0.737526
0.868491
0.868391
0.865219
0.691409
0.600308
0.837557
0.689926
0.684585
0.68824
0.778603
0.859775
0.793013
0.602948
0.59705
0.597552
0.962201
0.880097
0.877773
0.932095
0.702819
0.60364
0.597126
0.597126
0.605549
0.84352
0.992492
0.981227
0.981043
0.965667
0.714504
0.68385
0.634417
0.675719
0.887241
0.990205
0.992066
0.981042
0.980722
0.957651
0.927182
0.930567
0.930623
0.927038
0.930893
0.948931
0.984034
0.781443
0.949765
0.957173
0.957277
0.906881
0.755024
0.583545
0.483903
0.514708
0.701582
0.346099
0.622857
0.948036
0.768785
0.427125
0.375863
0.375841
0.375843
0.37586
0.375865
0.34619
0.499579
0.466873
0.374626
0.375863
0.375841
0.375841
0.375841
0.375843
0.37587
0.489797
0.449175
0.375068
0.376031
0.375922
0.375863
0.375841
0.375843
0.37587
0.37629
0.498691
0.499622
0.378699
0.37419
0.37603
0.37592
0.375901
0.375925
0.37628
0.457306
0.483969
0.381585
0.377912
0.375839
0.375042
0.376385
0.376479
0.377246
0.500156
0.898472
0.737388
0.496495
0.381363
0.378223
0.418981
0.476371
0.609492
0.922536
0.992086
0.992432
0.987768
0.938351
0.684439
0.695808
0.945267
0.98877
0.99122
0.992086
0.992432
0.992538
0.979486
0.977462
0.975207
0.975619
0.974956
0.981424
0.988565
0.99122
0.992167
0.992513
0.842348
0.973685
0.975207
0.974862
0.967796
0.89669
0.857541
0.896361
0.966686
0.992251
0.802582
0.966124
0.970906
0.776991
0.512801
0.18819
0.128271
0.314945
0.798079
0.988464
0.899032
0.950962
0.652958
0.0690797
0.0451381
0.0448181
0.0448309
0.052259
0.310811
0.741592
0.915626
0.936343
0.195763
0.0451501
0.0448361
0.0448241
0.044811
0.044834
0.0451076
0.238183
0.904248
0.670506
0.0747677
0.0454622
0.0451502
0.0448361
0.044834
0.0448564
0.0459045
0.052416
0.915246
0.332983
0.0468838
0.0461722
0.0454623
0.0453746
0.0486273
0.0560811
0.055781
0.0748711
0.79098
0.105862
0.0473105
0.0468762
0.0717729
0.229346
0.418748
0.503687
0.495058
0.438328
0.35253
0.0592793
0.0476739
0.105553
0.493793
0.729608
0.729608
0.729608
0.726485
0.610216
0.111177
0.0590079
0.0689898
0.548663
0.722461
0.726741
0.729608
0.63072
0.306496
0.0774927
0.0683243
0.0591657
0.217231
0.696408
0.722924
0.542915
0.231811
0.0543809
0.0486791
0.0486671
0.130509
0.0787753
0.338897
0.550017
0.226886
0.0487544
0.0487249
0.0486904
0.0486582
0.0486903
0.82777
0.674174
0.284764
0.0498459
0.0493233
0.0488147
0.0487544
0.0487249
0.0486904
0.048835
0.929965
0.926743
0.485645
0.0510747
0.0498772
0.0493311
0.0492256
0.0492146
0.0546945
0.245503
0.928782
0.927615
0.860564
0.220972
0.0512974
0.0521246
0.153104
0.475588
0.834682
0.986441
0.927598
0.925949
0.929781
0.678975
0.101264
0.0788383
0.640892
0.989017
0.989241
0.989339
0.925954
0.92971
0.938186
0.946681
0.563364
0.12671
0.328974
0.844389
0.984329
0.984304
0.648908
0.888609
0.946681
0.952596
0.951763
0.495907
0.255471
0.254544
0.257062
0.640468
0.161988
0.345084
0.78608
0.958867
0.959277
0.959333
0.626062
0.351274
0.378437
0.761524
0.227184
0.162977
0.180966
0.925043
0.959333
0.961646
0.882527
0.941533
0.927708
0.869996
0.403989
0.2979
0.0195217
0.459579
0.959608
0.962018
0.976304
0.964829
0.956124
0.965333
0.158012
0.223724
0.00425107
0.243781
0.871435
0.84811
0.976431
0.976431
0.976431
0.97643
0.0598227
0.0405511
0.00186191
0.143079
0.846408
0.812239
0.976431
0.976431
0.976431
0.976428
0.00263868
0.00046504
2.50953e-06
0.092485
0.844443
0.809059
0.966427
0.976431
0.976427
0.976411
4.41869e-05
2.50953e-06
2.47005e-06
0.0622416
0.844796
0.808464
0.0985737
0.40269
0.895572
0.944096
3.84407e-05
2.82505e-06
2.40702e-06
0.0773247
0.859027
0.836234
0.101946
0.195905
0.565005
0.202278
2.27712e-07
6.514e-06
2.40933e-06
0.0783894
0.859518
0.852725
0.0868265
0.0478923
0.0239643
0.00322078
3.53246e-06
4.33648e-06
2.40701e-06
0.0823851
0.863406
0.865061
0.0816241
0.000705284
0.00415245
0.00416329
9.85458e-06
2.33914e-05
2.42127e-06
0.0907716
0.871189
0.86932
0.0922048
6.06872e-05
0.000750947
0.000632494
1.00734e-05
2.33621e-05
2.50717e-06
0.0958096
0.874351
0.873179
0.0955564
3.25114e-05
3.30816e-05
6.0751e-05
1.80816e-05
2.28537e-05
2.66452e-06
0.0991234
0.876029
0.876441
0.0994468
3.25114e-05
3.24847e-05
0.00173056
7.54077e-05
1.02513e-05
2.83308e-06
0.100133
0.877547
0.879095
0.103403
3.24847e-05
0.00052418
0.00252916
0.000204779
4.17683e-06
2.96134e-06
0.105189
0.882179
0.880544
0.105055
3.25482e-05
0.000171275
0.000585075
0.000256098
3.14848e-06
3.03503e-06
0.109481
0.885924
0.885709
0.11053
3.33234e-05
0.000580607
0.000647461
5.56844e-05
3.31194e-06
3.10417e-06
0.118142
0.893441
0.892435
0.118124
3.71985e-05
0.000612997
0.000649943
4.11393e-05
9.41103e-06
3.31194e-06
0.130159
0.902567
0.902456
0.131221
4.07506e-05
0.000144196
0.000137848
0.000486009
0.000643145
4.51775e-06
0.149347
0.914961
0.914471
0.149645
4.10084e-05
5.95614e-05
2.20524e-05
0.00123038
0.00120932
9.76305e-06
0.173804
0.927988
0.92705
0.173485
4.15341e-05
0.000266529
2.18859e-05
0.00122658
0.00118598
1.06448e-05
0.20393
0.940835
0.939768
0.203241
4.35283e-05
0.000280169
0.000286069
0.000220413
0.000783727
1.03056e-05
0.236651
0.952111
0.951315
0.236291
4.60291e-05
0.000177177
0.000381146
6.24656e-06
0.000118736
9.75681e-06
0.268233
0.961055
0.960416
0.268413
4.74983e-05
4.78322e-05
0.000316029
6.22994e-06
2.30394e-05
9.39902e-06
0.299068
0.968386
0.967849
0.299299
4.77435e-05
0.000180486
0.000177658
6.30377e-06
4.29338e-05
8.83916e-06
0.326109
0.973717
0.973287
0.325906
4.90355e-05
0.000469547
0.000534521
7.30059e-06
5.40525e-05
8.42289e-06
0.355415
0.978587
0.978301
0.354199
5.40424e-05
0.000491793
0.000534519
7.7909e-06
8.38981e-06
8.29285e-06
0.387119
0.982808
0.982854
0.385832
5.09557e-05
0.000414518
0.000534521
6.84183e-06
7.36279e-06
7.79079e-06
0.429181
0.987064
0.987521
0.428578
4.43825e-05
0.000400805
0.000534515
9.6657e-05
9.33171e-05
8.29285e-06
0.476764
0.990598
0.991101
0.476545
4.04157e-05
0.000341205
0.000534226
0.00059328
0.000201633
9.71951e-06
0.539199
0.992998
0.994297
0.538344
3.03601e-05
0.000156967
0.000103397
3.38213e-05
2.18928e-05
9.47071e-06
0.59386
0.994592
0.996883
0.595315
1.15766e-05
1.57229e-05
5.45734e-06
2.19524e-07
2.17779e-07
2.19589e-07
0.649645
0.998644
0.997527
0.647221
4.75775e-06
4.69509e-06
2.30884e-05
4.44815e-06
2.15808e-07
2.18697e-07
0.772641
0.998676
0.998711
0.660571
4.69509e-06
4.69509e-06
1.28521e-05
1.73114e-06
1.86034e-07
0.0267232
0.787756
0.998915
0.999219
0.838381
0.0328545
4.69509e-06
4.77159e-06
1.50482e-07
1.50482e-07
0.0418509
0.790078
0.999254
0.999438
0.932088
0.171082
4.71581e-06
2.38853e-05
1.50479e-07
1.50994e-07
0.135566
0.911127
0.999439
0.999902
0.964684
0.292349
5.64375e-06
1.41276e-05
1.50994e-07
1.55457e-07
0.276615
0.959085
0.999899
0.999924
0.996758
0.525326
3.52412e-06
2.5519e-06
1.55457e-07
3.8773e-07
0.554465
0.998677
0.999923
0.999992
0.999933
0.745346
2.5519e-06
2.3826e-06
2.52251e-07
0.0345548
0.807372
0.999903
0.999998
0.999996
0.999992
0.937815
0.195004
8.26463e-07
1.31622e-07
0.528882
0.99916
0.999997
1
1
0.999995
0.999828
0.618794
3.08e-08
0.284025
0.9512
1
1
1
1
1
1
0.980954
0.372263
0.993337
0.99332
0.993336
0.993336
0.993336
0.993336
0.993336
0.991762
0.993181
0.993181
0.993181
0.993181
0.983442
0.982932
0.989058
0.99309
0.99309
0.99309
0.993089
0.987041
0.954503
0.948096
0.965871
0.992424
0.99242
0.992268
0.99222
0.992276
0.992276
0.992275
0.992274
0.992253
0.968535
0.936708
0.936491
0.935069
0.91459
0.935316
0.942818
0.942818
0.985958
0.976938
0.98791
0.993336
0.993336
0.993336
0.991526
0.988833
0.993162
0.990326
0.982221
0.991021
0.992063
0.982932
0.991601
0.99309
0.99309
0.99309
0.993089
0.992954
0.960668
0.950998
0.992424
0.992426
0.992424
0.992339
0.992212
0.992275
0.992275
0.992274
0.991615
0.992199
0.992166
0.992163
0.992155
0.991183
0.914498
0.90298
0.939082
0.942818
0.971148
0.967814
0.96791
0.985013
0.993336
0.993335
0.993332
0.992671
0.989773
0.988272
0.982196
0.98219
0.992716
0.992669
0.99309
0.99309
0.99309
0.99309
0.993089
0.992387
0.983053
0.991975
0.992426
0.99243
0.992427
0.992416
0.992363
0.991921
0.992269
0.990169
0.982257
0.990958
0.992163
0.992155
0.992138
0.979287
0.90702
0.878011
0.856813
0.877394
0.989219
0.972134
0.968544
0.974211
0.976655
0.991038
0.993331
0.991781
0.992892
0.992988
0.989416
0.98188
0.98933
0.99309
0.99309
0.99309
0.99309
0.993089
0.990558
0.973948
0.971874
0.992342
0.992421
0.99243
0.943235
0.821153
0.841039
0.956552
0.963995
0.979531
0.982181
0.983547
0.99113
0.992138
0.99205
0.952864
0.856989
0.856813
0.856813
0.856813
0.960179
0.980172
0.975412
0.883328
0.854557
0.900391
0.956744
0.968448
0.992213
0.993001
0.988646
0.981879
0.98188
0.991804
0.99309
0.99309
0.993089
0.993081
0.947995
0.818697
0.873337
0.992248
0.989168
0.857867
0.817618
0.817612
0.817636
0.817737
0.817805
0.943367
0.991328
0.991602
0.984403
0.988536
0.991841
0.99084
0.960055
0.889016
0.861885
0.856815
0.790123
0.980172
0.855439
0.708427
0.708418
0.708462
0.744886
0.979331
0.993012
0.993014
0.991063
0.98188
0.981879
0.981883
0.991605
0.993089
0.993089
0.992533
0.881989
0.818444
0.818471
0.85253
0.858639
0.817618
0.817612
0.817612
0.817612
0.817636
0.819328
0.895148
0.991053
0.992904
0.98622
0.988322
0.990834
0.977868
0.972416
0.987418
0.987442
0.967149
0.732888
0.977068
0.740203
0.708422
0.708427
0.708642
0.825199
0.993012
0.993013
0.99302
0.993031
0.989342
0.981883
0.981883
0.983003
0.993089
0.993089
0.993079
0.928266
0.818471
0.818421
0.818028
0.817657
0.817641
0.817618
0.817612
0.826212
0.923488
0.961135
0.981628
0.992904
0.992908
0.992908
0.992908
0.992908
0.983382
0.972293
0.973715
0.987747
0.987747
0.862656
0.963021
0.733606
0.708427
0.708426
0.708512
0.746606
0.992731
0.993019
0.993031
0.993056
0.993077
0.991811
0.984047
0.990279
0.993089
0.993089
0.993088
0.991173
0.922176
0.858593
0.868314
0.836936
0.817728
0.869548
0.978241
0.992207
0.992277
0.992537
0.992809
0.992895
0.992905
0.992908
0.992908
0.992908
0.992906
0.986616
0.944736
0.94286
0.980413
0.991055
0.965454
0.729973
0.708431
0.708438
0.708691
0.822313
0.992795
0.993009
0.991609
0.990629
0.993079
0.993083
0.993085
0.993089
0.993089
0.993089
0.993089
0.993087
0.993042
0.987886
0.986416
0.980641
0.980225
0.977355
0.991303
0.991878
0.987213
0.956329
0.957244
0.984402
0.992895
0.992905
0.991871
0.992403
0.992906
0.992903
0.989564
0.938091
0.931494
0.992512
0.948012
0.708738
0.708438
0.708691
0.890274
0.991672
0.992539
0.980041
0.916146
0.922841
0.993076
0.993083
0.993083
0.993071
0.993089
0.993089
0.993088
0.99308
0.984901
0.96982
0.951191
0.948942
0.950133
0.962483
0.972259
0.958368
0.869405
0.855912
0.883589
0.943187
0.970808
0.97065
0.966011
0.987956
0.992903
0.992903
0.992903
0.967539
0.931434
0.994227
0.935248
0.709069
0.70866
0.708888
0.897952
0.99091
0.990814
0.927629
0.899833
0.899797
0.899798
0.899803
0.908893
0.990784
0.986748
0.905625
0.905305
0.905182
0.905173
0.905173
0.921
0.969497
0.96951
0.969474
0.90932
0.826026
0.826473
0.870856
0.897424
0.924508
0.92498
0.935483
0.967204
0.992876
0.992901
0.992903
0.992903
0.978485
0.931653
0.994311
0.993634
0.849488
0.708888
0.708872
0.708888
0.710276
0.923075
0.989505
0.990185
0.91896
0.899802
0.900039
0.958057
0.989161
0.988189
0.970582
0.905544
0.905291
0.906896
0.96046
0.984129
0.967517
0.968083
0.896685
0.78005
0.78029
0.924755
0.976938
0.985876
0.985888
0.985876
0.983968
0.982224
0.990084
0.992876
0.992901
0.992881
0.970453
0.932116
0.974008
0.974586
0.982245
0.982141
0.912973
0.720532
0.712687
0.716336
0.894012
0.992065
0.992117
0.992155
0.991997
0.935733
0.909613
0.909616
0.909599
0.910436
0.973621
0.99127
0.991272
0.99127
0.904804
0.805435
0.779753
0.779692
0.780241
0.920353
0.985667
0.985888
0.985832
0.955291
0.853103
0.760475
0.858323
0.948464
0.962925
0.950167
0.970279
0.956454
0.959966
0.959969
0.960048
0.972537
0.971965
0.954758
0.941981
0.945578
0.935215
0.92954
0.961413
0.992269
0.992286
0.992286
0.964024
0.909596
0.909614
0.90965
0.911227
0.980256
0.991273
0.990958
0.954968
0.77982
0.779692
0.816626
0.869335
0.925426
0.984997
0.976892
0.828537
0.672462
0.654781
0.654781
0.656418
0.734579
0.898702
0.964057
0.969782
0.954799
0.988408
0.988438
0.957508
0.899303
0.899145
0.917431
0.971945
0.971971
0.971945
0.960142
0.954535
0.95454
0.98464
0.992092
0.99132
0.944242
0.928598
0.909654
0.948904
0.991273
0.991273
0.991273
0.97464
0.794458
0.79226
0.967803
0.968975
0.934996
0.949854
0.742969
0.658793
0.657906
0.695331
0.712959
0.645279
0.642744
0.736038
0.801884
0.842403
0.714786
0.821519
0.911242
0.989623
0.989623
0.978332
0.955977
0.945708
0.945815
0.948963
0.983704
0.985675
0.987326
0.978384
0.970967
0.979899
0.984694
0.984708
0.962191
0.968851
0.991272
0.991273
0.991272
0.982925
0.937894
0.964093
0.968918
0.969827
0.975354
0.832433
0.659284
0.658246
0.841266
0.981841
0.946215
0.647405
0.566159
0.566091
0.566611
0.571137
0.629255
0.769855
0.690792
0.757045
0.963925
0.992333
0.992494
0.992484
0.992495
0.984394
0.970376
0.970521
0.985269
0.9931
0.993104
0.903486
0.886305
0.903781
0.972832
0.983139
0.990593
0.991272
0.991269
0.981295
0.982084
0.975666
0.928048
0.955137
0.986236
0.885402
0.687522
0.907935
0.985618
0.985071
0.867245
0.628019
0.566091
0.566159
0.621027
0.771117
0.801819
0.729751
0.690214
0.69023
0.699443
0.876439
0.992477
0.992495
0.992495
0.991747
0.991238
0.992712
0.993082
0.993104
0.993109
0.993104
0.952329
0.883688
0.8835
0.935424
0.991149
0.991249
0.981605
0.978625
0.982117
0.838759
0.760141
0.986236
0.986239
0.986241
0.986238
0.986241
0.986232
0.953758
0.649386
0.566092
0.565448
0.569437
0.848717
0.886945
0.887556
0.690205
0.690207
0.690214
0.69023
0.720509
0.940208
0.982738
0.970439
0.91285
0.895921
0.93729
0.984102
0.993082
0.993104
0.993107
0.993054
0.992987
0.956106
0.816411
0.913672
0.991149
0.98763
0.984533
0.988881
0.815566
0.718656
0.906928
0.97223
0.968717
0.976237
0.98344
0.977347
0.977813
0.979971
0.654531
0.564777
0.564752
0.564732
0.573092
0.873592
0.690207
0.690207
0.698963
0.786391
0.782635
0.714355
0.672852
0.641102
0.505725
0.505725
0.506438
0.714345
0.86868
0.912878
0.968378
0.992985
0.992998
0.978476
0.812409
0.807172
0.85961
0.98682
0.988881
0.988881
0.988881
0.831467
0.672902
0.682589
0.803107
0.86556
0.900906
0.907287
0.962454
0.981426
0.951058
0.620387
0.564736
0.564686
0.564685
0.777625
0.76479
0.730279
0.680608
0.604161
0.56531
0.563438
0.56367
0.55977
0.556955
0.510957
0.508
0.50643
0.504632
0.505184
0.585409
0.920939
0.992785
0.900178
0.807297
0.807458
0.807329
0.854655
0.985782
0.988881
0.988818
0.974119
0.671645
0.648984
0.715334
0.888849
0.906671
0.942875
0.982968
0.995185
0.798698
0.56502
0.564699
0.564685
0.564685
0.833879
0.57934
0.429911
0.430273
0.432151
0.631028
0.939702
0.954431
0.963427
0.962777
0.908312
0.751341
0.763846
0.821205
0.711217
0.586903
0.586696
0.654183
0.888634
0.889592
0.846449
0.807458
0.808561
0.941967
0.988818
0.988918
0.988818
0.708885
0.647066
0.646708
0.896791
0.995154
0.995187
0.995187
0.995187
0.925705
0.575586
0.564689
0.564685
0.564685
0.943055
0.503848
0.429826
0.429855
0.443135
0.801056
0.964006
0.964006
0.963598
0.963448
0.962777
0.96297
0.963498
0.96369
0.963725
0.96369
0.890504
0.563643
0.551899
0.548327
0.597119
0.889942
0.969739
0.988799
0.988918
0.988914
0.983023
0.684489
0.646708
0.646629
0.802932
0.994199
0.995187
0.995187
0.995187
0.904579
0.564729
0.564711
0.564689
0.734227
0.969688
0.429689
0.429685
0.429826
0.676982
0.951511
0.970032
0.964391
0.963871
0.962778
0.961867
0.953057
0.953418
0.960968
0.96369
0.963724
0.963557
0.963389
0.679109
0.539395
0.537001
0.612282
0.948632
0.988712
0.988914
0.988916
0.896032
0.647319
0.64663
0.646608
0.6683
0.944654
0.995183
0.995187
0.995198
0.987213
0.658066
0.564728
0.564711
0.853781
0.969716
0.429685
0.429772
0.590007
0.980405
0.980793
0.976618
0.967752
0.928086
0.803076
0.649294
0.444657
0.446357
0.556758
0.702494
0.828453
0.963389
0.961926
0.865757
0.537001
0.535743
0.537001
0.813994
0.988024
0.988712
0.968233
0.679211
0.646686
0.646608
0.646604
0.646608
0.843452
0.995173
0.995194
0.995218
0.993392
0.750886
0.564728
0.646883
0.969716
0.969716
0.429772
0.50221
0.943434
0.991924
0.988317
0.890511
0.666274
0.510382
0.298642
0.187499
0.182546
0.181703
0.181567
0.181368
0.181547
0.598784
0.957881
0.753318
0.535838
0.53596
0.54486
0.923214
0.982663
0.954515
0.690073
0.646784
0.646613
0.646604
0.646604
0.646604
0.846694
0.995184
0.995218
0.995219
0.995218
0.935634
0.620418
0.651919
0.891683
0.969716
0.431263
0.917051
0.992338
0.992181
0.925041
0.413475
0.372934
0.374964
0.659482
0.581023
0.201572
0.18163
0.18136
0.181333
0.181355
0.262007
0.732168
0.793075
0.544766
0.566054
0.881887
0.95814
0.926692
0.676169
0.646823
0.646621
0.646605
0.646604
0.646604
0.659104
0.946533
0.995203
0.995219
0.99522
0.99522
0.939905
0.698402
0.652248
0.861585
0.969673
0.7954
0.992527
0.992627
0.992338
0.555207
0.367984
0.36948
0.70783
0.747479
0.747114
0.433201
0.181562
0.181325
0.181326
0.181333
0.181337
0.653599
0.964003
0.876782
0.917175
0.98133
0.923331
0.771173
0.744979
0.823649
0.881483
0.862175
0.79374
0.800168
0.90718
0.983275
0.995212
0.99522
0.99522
0.99522
0.99522
0.941053
0.653224
0.933366
0.905401
0.992527
0.992627
0.99263
0.992627
0.502797
0.367984
0.47057
0.747358
0.747447
0.747525
0.562768
0.349196
0.181326
0.181324
0.181326
0.181383
0.716084
0.976586
0.981894
0.981964
0.981637
0.873264
0.871194
0.968817
0.99425
0.99488
0.99462
0.993446
0.993955
0.995205
0.993968
0.99323
0.993227
0.994809
0.99522
0.99522
0.99522
0.87021
0.856253
0.85098
0.992612
0.99263
0.99263
0.987171
0.818825
0.367984
0.373967
0.542238
0.747358
0.692248
0.525746
0.528156
0.33868
0.181325
0.181383
0.19342
0.714358
0.975528
0.981964
0.981964
0.979447
0.920283
0.99272
0.995173
0.995166
0.995116
0.994907
0.995163
0.99523
0.995233
0.995231
0.993215
0.993215
0.994164
0.99522
0.99522
0.994982
0.991584
0.851479
0.85098
0.992619
0.99263
0.99263
0.982418
0.987853
0.727504
0.37977
0.379902
0.743698
0.492944
0.311915
0.338875
0.301937
0.277332
0.374985
0.450179
0.745617
0.976567
0.981894
0.961856
0.925768
0.994089
0.995222
0.99522
0.995194
0.995156
0.99302
0.99523
0.995234
0.995234
0.995234
0.993233
0.994326
0.99522
0.99522
0.99522
0.99522
0.994237
0.877792
0.942642
0.992552
0.992622
0.99263
0.992618
0.992435
0.987618
0.629975
0.37959
0.717641
0.520527
0.308222
0.30567
0.302925
0.33046
0.599495
0.861051
0.92813
0.990484
0.952117
0.92114
0.921995
0.981172
0.995238
0.995228
0.99515
0.992485
0.992475
0.992571
0.995234
0.995234
0.995234
0.99507
0.99522
0.995212
0.99522
0.967729
0.902777
0.901116
0.982919
0.982919
0.992096
0.992572
0.992622
0.99257
0.992057
0.991083
0.958639
0.451668
0.524821
0.766512
0.323338
0.308222
0.30567
0.362982
0.836142
0.993653
0.994055
0.991852
0.928247
0.92114
0.92114
0.976595
0.995239
0.995238
0.994337
0.992473
0.992474
0.992475
0.994916
0.995234
0.995234
0.995234
0.995231
0.978162
0.818003
0.787953
0.791047
0.867892
0.982919
0.982919
0.953589
0.992211
0.992572
0.964837
0.959438
0.989554
0.989614
0.902574
0.523397
0.766512
0.699878
0.316638
0.311153
0.319619
0.709419
0.994055
0.994571
0.995135
0.974952
0.948062
0.958308
0.987758
0.99524
0.995239
0.995129
0.992474
0.992473
0.992592
0.995236
0.995235
0.995234
0.995232
0.939082
0.783508
0.784469
0.785262
0.925496
0.982801
0.982915
0.982914
0.753879
0.991149
0.992317
0.946615
0.945351
0.968493
0.989966
0.989912
0.646842
0.632468
0.890183
0.749535
0.316693
0.319204
0.347458
0.824803
0.995135
0.995187
0.99516
0.995037
0.995194
0.99524
0.99524
0.99524
0.995239
0.994974
0.992473
0.992514
0.995236
0.995236
0.995235
0.995191
0.890586
0.783508
0.783508
0.930661
0.982427
0.982799
0.980666
0.980012
0.611209
0.986042
0.991412
0.970426
0.945065
0.945409
0.986101
0.989966
0.983237
0.619928
0.765108
0.883125
0.712536
0.484463
0.484857
0.796922
0.96954
0.995189
0.995187
0.995191
0.995237
0.99524
0.99524
0.99524
0.995239
0.995239
0.992473
0.994021
0.995236
0.995236
0.995236
0.995225
0.957039
0.785687
0.785945
0.888068
0.982122
0.966513
0.891954
0.881743
0.677966
0.98735
0.991815
0.991993
0.952908
0.945251
0.965702
0.98983
0.989571
0.87582
0.402108
0.851184
0.942124
0.945939
0.945394
0.962522
0.98542
0.995189
0.995189
0.99366
0.995239
0.995239
0.99524
0.995239
0.995239
0.995239
0.995092
0.995237
0.995236
0.995236
0.995236
0.995235
0.994588
0.949657
0.851245
0.850988
0.865347
0.864421
0.864647
0.865428
0.918729
0.991094
0.991993
0.992173
0.985967
0.945833
0.948177
0.989571
0.989693
0.899853
0.393331
0.357077
0.861588
0.991851
0.994076
0.995103
0.995189
0.99519
0.995189
0.989527
0.986328
0.995239
0.995239
0.995238
0.995239
0.995239
0.995239
0.995239
0.995237
0.995236
0.995236
0.966918
0.988353
0.98929
0.989149
0.972214
0.874231
0.864647
0.865428
0.866248
0.987397
0.989179
0.990513
0.992306
0.992279
0.968305
0.944451
0.971446
0.989571
0.989083
0.533678
0.357077
0.399193
0.790989
0.995087
0.995173
0.995189
0.995189
0.995189
0.995186
0.971848
0.898261
0.899304
0.995238
0.995171
0.995018
0.995239
0.995238
0.995238
0.995237
0.90252
0.879563
0.974396
0.989449
0.991957
0.991923
0.943269
0.868547
0.933422
0.86872
0.989378
0.978039
0.978039
0.985383
0.992832
0.989078
0.944306
0.943698
0.986643
0.989054
0.988529
0.632692
0.205529
0.17694
0.428541
0.788175
0.946704
0.986086
0.919219
0.940567
0.865247
0.326559
0.869226
0.995238
0.994518
0.994499
0.995238
0.995238
0.993405
0.905257
0.879046
0.879274
0.983668
0.990704
0.991967
0.985869
0.957561
0.968569
0.990852
0.965952
0.992513
0.981373
0.978039
0.988228
0.993179
0.99319
0.981055
0.885216
0.957508
0.987425
0.985971
0.978268
0.500851
0.0928039
0.0575271
0.132427
0.364722
0.569967
0.334251
0.315108
0.31466
0.296267
0.70723
0.995231
0.995226
0.995205
0.995237
0.995222
0.961563
0.878241
0.878529
0.966242
0.991968
0.991968
0.991968
0.991737
0.991583
0.991529
0.991341
0.990412
0.9928
0.988821
0.992435
0.993188
0.99319
0.993191
0.986414
0.885254
0.897211
0.981666
0.984524
0.961738
0.451
0.065505
0.046438
0.0440436
0.0437465
0.0578358
0.0422987
0.0441862
0.0508649
0.299662
0.822896
0.995226
0.995225
0.995222
0.995221
0.970042
0.876786
0.877513
0.913388
0.991968
0.991968
0.991968
0.991968
0.991968
0.953014
0.987334
0.98523
0.989968
0.993119
0.993207
0.993193
0.99319
0.993191
0.993191
0.993191
0.887894
0.84233
0.949563
0.984057
0.982508
0.377322
0.0481044
0.0426684
0.0416172
0.0411554
0.0408213
0.0414628
0.042723
0.0446142
0.320377
0.800233
0.995225
0.995223
0.995214
0.988155
0.888508
0.876786
0.886652
0.991966
0.991968
0.991969
0.991968
0.988852
0.911946
0.889881
0.942617
0.974737
0.982637
0.992834
0.993143
0.993181
0.99319
0.99319
0.993191
0.99319
0.872514
0.841223
0.903533
0.982508
0.981094
0.392298
0.0431234
0.0416172
0.0413605
0.0411641
0.0406507
0.0414956
0.0425727
0.0489317
0.390109
0.730855
0.995223
0.99522
0.995188
0.946167
0.88212
0.882278
0.991292
0.991945
0.991967
0.991969
0.925089
0.877229
0.875859
0.864814
0.775057
0.873297
0.966225
0.991051
0.993049
0.993177
0.993189
0.99319
0.99319
0.991526
0.851645
0.840988
0.908294
0.97997
0.865807
0.360584
0.0423366
0.0420442
0.041669
0.041743
0.0419784
0.0429577
0.042984
0.0875429
0.476402
0.599166
0.99522
0.995218
0.995203
0.970235
0.890704
0.98297
0.991839
0.991926
0.956761
0.856961
0.857502
0.884707
0.850611
0.740719
0.740663
0.74139
0.834826
0.851044
0.992699
0.993164
0.993189
0.99319
0.99319
0.959208
0.84099
0.84099
0.956967
0.978162
0.619019
0.250042
0.0425569
0.0423887
0.0430537
0.043294
0.0430551
0.0430324
0.0430138
0.169155
0.459104
0.518187
0.995218
0.995216
0.995211
0.991001
0.987625
0.991471
0.991751
0.915808
0.808557
0.811743
0.88257
0.843198
0.745246
0.740671
0.789142
0.802236
0.778091
0.436171
0.830609
0.965772
0.993178
0.99319
0.99319
0.897284
0.841576
0.914729
0.971777
0.886736
0.186394
0.0425621
0.0425117
0.0427436
0.0431601
0.0432514
0.0429996
0.0429258
0.0429948
0.154623
0.25075
0.458528
0.987914
0.988243
0.915478
0.959513
0.990962
0.991191
0.930669
0.808485
0.808471
0.809337
0.884499
0.778986
0.748488
0.872851
0.967722
0.967719
0.884685
0.196088
0.233399
0.503404
0.962015
0.993178
0.952482
0.845788
0.847612
0.972491
0.972491
0.645424
0.04273
0.0426483
0.0425937
0.0426725
0.0427004
0.0427288
0.0426828
0.0428265
0.042916
0.0440744
0.0991811
0.490492
0.973432
0.885109
0.796426
0.812457
0.961588
0.983988
0.928083
0.808478
0.808485
0.808485
0.883818
0.914578
0.906701
0.967722
0.967723
0.967722
0.967719
0.172121
0.0997476
0.218318
0.820294
0.968257
0.913265
0.845788
0.924789
0.97325
0.969288
0.461092
0.042608
0.0426577
0.042675
0.0426222
0.0425699
0.042607
0.042626
0.0426785
0.0429061
0.051566
0.167472
0.700522
0.876984
0.796301
0.79617
0.796202
0.798281
0.84008
0.955322
0.954192
0.84748
0.861761
0.955406
0.958663
0.967722
0.967723
0.967722
0.967719
0.96772
0.255467
0.0997476
0.524132
0.944336
0.97816
0.966899
0.94407
0.975511
0.974306
0.898006
0.207571
0.0425601
0.0426116
0.0426498
0.0426754
0.0449071
0.3118
0.525135
0.511035
0.580365
0.558841
0.597686
0.797684
0.796301
0.796161
0.796153
0.796155
0.796161
0.796339
0.959739
0.988786
0.985652
0.985101
0.976478
0.887452
0.967685
0.967722
0.967698
0.967684
0.967713
0.0495338
0.110468
0.746016
0.978161
0.978652
0.978136
0.977483
0.976854
0.975512
0.61727
0.0431002
0.0426243
0.0425642
0.0910641
0.228166
0.551295
0.91976
0.982114
0.981321
0.982454
0.957874
0.939653
0.832108
0.796161
0.796152
0.796151
0.796152
0.796152
0.79616
0.987021
0.988786
0.988786
0.807321
0.715121
0.924945
0.967661
0.967698
0.96661
0.966071
0.967581
0.0487162
0.0495337
0.314246
0.953073
0.978652
0.978652
0.977852
0.922196
0.624632
0.1905
0.0496494
0.0996297
0.523128
0.803217
0.88332
0.977599
0.987866
0.987614
0.98627
0.984257
0.962876
0.855352
0.796164
0.796152
0.796151
0.796151
0.796151
0.796152
0.881069
0.987319
0.980717
0.738125
0.684064
0.684926
0.848012
0.949422
0.967161
0.845242
0.825177
0.889987
0.048835
0.049623
0.10258
0.725423
0.980757
0.978652
0.749622
0.438268
0.360429
0.339588
0.554585
0.818266
0.984866
0.990111
0.990136
0.989328
0.988348
0.987866
0.954426
0.894206
0.832919
0.824895
0.836216
0.842277
0.796151
0.796151
0.796151
0.80222
0.97833
0.987272
0.743473
0.684102
0.684235
0.687016
0.871852
0.885302
0.875948
0.780256
0.780246
0.780256
0.0496266
0.138328
0.713373
0.988677
0.985959
0.957959
0.605103
0.461773
0.830975
0.946384
0.987074
0.990337
0.990527
0.990543
0.990459
0.990113
0.948662
0.866131
0.826846
0.825494
0.825663
0.851246
0.979031
0.983185
0.895221
0.850398
0.855658
0.941575
0.978722
0.842556
0.684664
0.684363
0.82574
0.849824
0.871092
0.825236
0.780836
0.780367
0.780256
0.780235
0.802341
0.989359
0.989334
0.98931
0.989141
0.948391
0.922056
0.962678
0.990557
0.990515
0.990554
0.990562
0.990567
0.990565
0.990551
0.990458
0.919819
0.82741
0.826623
0.826731
0.869283
0.972806
0.991155
0.991168
0.990771
0.987881
0.987973