/*--------------------------------*- C++ -*----------------------------------*\
  =========                 |
  \\      /  F ield         | OpenFOAM: The Open Source CFD Toolbox
   \\    /   O peration     | Website:  https://openfoam.org
    \\  /    A nd           | Version:  8
     \\/     M anipulation  |
\*---------------------------------------------------------------------------*/
FoamFile
{
    version     2.0;
    format      ascii;
    class       volScalarField;
    location    "5.35";
    object      p;
}
// * * * * * * * * * * * * * * * * * * * * * * * * * * * * * * * * * * * * * //

dimensions      [1 -1 -2 0 0 0 0];

internalField   nonuniform List<scalar> 
9150
(
-204.477
-205.484
-206.107
-206.582
-206.818
-206.81
-206.567
-206.102
-205.487
-204.482
-224.53
-225.046
-225.467
-225.792
-225.962
-225.963
-225.788
-225.467
-225.05
-224.533
-244.424
-244.708
-244.963
-245.179
-245.288
-245.296
-245.182
-244.96
-244.708
-244.425
-264.163
-264.339
-264.508
-264.667
-264.755
-264.743
-264.662
-264.507
-264.339
-264.164
-283.784
-283.966
-284.102
-284.23
-284.296
-284.289
-284.232
-284.104
-283.967
-283.785
-118.432
-119.273
-119.009
-118.595
-118.429
-118.43
-118.617
-119.032
-119.286
-118.456
-133.954
-134.665
-134.84
-134.911
-134.827
-134.85
-134.951
-134.905
-134.72
-133.999
-150.456
-151.206
-151.507
-151.869
-151.931
-151.931
-151.874
-151.521
-151.214
-150.466
-167.324
-168.46
-168.91
-169.538
-169.715
-169.714
-169.56
-168.913
-168.461
-167.325
-184.32
-186.384
-187.138
-187.841
-188.113
-188.126
-187.863
-187.148
-186.393
-184.33
-24.4313
-26.0735
-28.0904
-29.3063
-29.9811
-30.0246
-29.5048
-28.4075
-26.4992
-25.215
-45.0379
-45.3295
-46.3395
-46.6806
-47.1682
-47.2851
-46.8873
-46.5679
-45.6095
-45.3982
-65.1337
-65.0219
-66.0967
-65.7774
-66.1546
-66.2472
-65.6723
-66.1648
-65.1767
-65.3293
-87.9913
-85.2187
-86.1549
-84.7204
-84.8325
-84.9615
-84.6934
-86.3444
-85.2781
-88.104
-113.842
-104.202
-103.735
-102.359
-101.938
-101.974
-102.301
-103.805
-104.212
-113.904
1025.52
1025.72
1025.93
1026.3
1026.46
1027.1
1027.98
1028.92
1029.6
1029.92
1004.88
1006.18
1005.58
1005.8
1006.02
1006.49
1007.23
1007.98
1008.69
1009.37
986.333
984.324
984.637
984.439
984.329
984.398
984.731
985.272
986.214
987.769
965.744
964.631
963.715
962.626
961.85
961.193
960.967
960.856
960.639
961.758
946.571
944.925
943.552
942.583
941.533
939.398
939.602
937.793
938.974
936.88
927.356
926.28
924.365
925.114
922.952
921.479
921.039
920.018
920.309
924.268
907.168
906.614
905.731
904.692
904.187
904.039
904.44
904.728
903.319
910.018
885.909
885.207
885.364
885.597
884.659
883.668
883.489
886.039
889.729
894.433
864.759
865.573
866.771
867.606
867.214
868.339
870.668
872.02
874.071
872.333
845.73
846.393
849.914
854.807
854.76
854.983
855.956
856.855
856.857
856.934
831.125
833.062
839.397
840.325
841.192
841.899
841.876
841.684
838.486
839.914
813.818
815.722
817.923
819.039
824.73
826.752
820.914
821.783
821.36
821.924
795.749
797.217
798.409
799.287
799.598
800.465
801.715
802.258
802.567
802.692
775.161
776.669
778.137
779.436
781.113
781.37
781.463
780.926
780.901
780.057
753.668
754.804
755.891
756.882
757.759
758.55
763.144
763.17
763.758
762.764
731.274
732.325
733.49
734.651
735.675
736.605
737.292
737.826
738.157
741.835
708.96
709.926
711.269
712.494
713.609
714.423
715.034
715.668
716.266
717.37
686.623
688.214
689.742
690.805
691.613
692.435
693.062
693.49
693.61
693.311
671.57
671.85
669.273
669.911
670.773
672.015
673.1
673.655
673.591
675.09
647.408
649.161
646.601
647.536
649.433
651.766
654.086
656.141
658.12
661.069
624.419
626.783
625.931
625.641
627.457
630.111
634.32
640.251
643.989
640.718
603.795
601.253
596.717
598.422
601.817
604.11
606.249
618.161
618.135
620.505
580.488
588.485
574.103
579.336
581.434
582.161
580.506
583.172
594.184
598.687
581.451
566.282
566.96
567.077
565.351
562.107
558.409
566.412
565.163
573.562
560.702
551.68
556.619
556.963
554.279
551.29
550.412
551.285
554.692
558.885
537.985
542.436
546.681
546.809
545.292
543.204
541.564
540.939
546.276
545.805
521.967
521.837
523.876
526.908
527.276
528.695
531.347
532.111
542.278
535.497
500.9
503.398
505.018
505.602
508.235
508.636
510.277
513.416
512.038
527.632
478.562
483.633
485.946
483.914
487.827
488.178
487.819
486.301
494.851
486.304
466.179
466.91
467.124
464.088
468.25
462.272
463.207
465.103
466.41
464.288
443.607
443.873
447.364
442.442
445.31
445.106
442.886
440.433
439.094
439.445
416.726
419.622
421.179
423.525
422.695
423.058
418.674
415.776
415.774
416.502
377.695
384.894
392.023
397.76
399.161
398.777
394.938
390.02
387.912
390.645
327.661
336.744
360.037
371.246
373.126
370.978
371.02
374.338
373.574
372.783
317.994
321.167
355.892
353.155
355.448
359.43
361.244
362.978
364.461
366.391
319.441
324.957
331.939
339.955
345.286
349
351.921
354.388
356.518
358.568
328.66
327.003
329.779
333.333
337.534
341.091
343.816
345.92
347.825
350.06
328.373
329.08
328.994
329.946
331.816
333.72
335.249
337.034
338.638
340.296
324.622
325.154
325.508
325.667
325.767
325.233
325.496
326.838
326.463
324.594
321.355
316.378
317.616
315.789
311.358
308.034
304.77
304.464
304.962
303.399
318.027
306.252
302.85
295.122
284.665
279.031
273.815
271.769
271.469
272.058
310.554
297.388
280.308
262.85
246.672
235.21
228.911
226.254
226.943
230.403
265.039
242.079
216.134
188.25
164.939
150.065
146.852
158.955
169.084
179.75
205.284
182.311
145.058
115.659
107.887
115.029
120.411
116.678
122.106
136.526
187.493
162.319
118.84
114.971
111.222
110.053
110.08
109.723
110.218
115.746
173.227
129.688
115.356
113.64
112.689
112.209
111.991
111.653
111.338
110.766
157.734
117.449
114.393
113.329
112.456
111.782
111.167
110.666
110.129
109.489
133.453
115.621
113.997
112.902
111.765
110.768
109.829
108.849
108.125
106.838
121.638
114.536
114.64
113.781
111.541
109.211
107.211
107.223
106.41
102.348
116.798
115.896
115.947
111.3
110.134
111.264
108.795
106.164
102.544
96.5131
113.185
115.331
112.783
113.752
112.134
105.511
100.66
94.2423
88.0476
87.5078
115.55
116.152
103.743
112.663
108.908
90.854
86.1854
87.3274
86.9402
86.5803
113.818
114.9
98.3567
109.621
86.9845
86.8392
85.9947
85.6281
85.7436
85.8478
96.6995
92.9445
83.7051
87.5609
86.8067
85.4975
84.4801
84.1672
84.0772
84.4929
89.963
88.2446
84.0915
86.6125
85.1924
83.4934
82.6411
83.0277
83.3666
79.2489
69.8511
77.1596
84.4629
86.3416
88.1535
85.5565
76.3564
75.5501
77.0621
85.1134
44.6564
61.307
77.0471
85.2721
99.9109
104.444
83.3517
96.6725
102.691
105.552
12.3527
46.6346
82.3897
100.687
104.192
136.084
127.569
134.593
137.367
134.232
-25.1711
15.8196
63.5573
113.432
137.064
134.042
148.323
158.559
157.808
143.655
-14.8966
1.56403
33.0413
85.9059
120.79
123.999
125.661
146.556
147.937
129.053
-0.840525
11.5199
26.3453
44.082
75.0244
91.1319
82.6533
103.417
102.467
100.945
9.5617
6.35294
26.0382
4.38062
38.6286
61.0914
63.3146
73.6498
74.6029
75.0543
-3.32537
-1.62943
5.71132
-9.29341
13.6233
53.7007
55.2078
56.4687
56.4182
54.4001
-1.15298
-2.0712
-0.117265
-4.04892
8.03885
48.2009
41.4554
40.1791
38.9106
36.5432
-1.11009
-0.85531
-0.562396
-0.805692
9.31345
31.423
38.0399
26.0936
18.7483
18.1449
-1.09674
-1.06575
-1.06399
-1.09115
24.5053
22.0509
51.0663
11.3933
10.522
17.695
-1.07008
-1.0348
-1.06586
-1.05322
24.1374
24.6354
23.4998
0.954795
11.8128
-2.13153
-1.10612
-1.0916
-1.10473
-1.10147
24.3235
27.7543
-1.44344
-2.32475
-1.38399
-1.15239
-1.16445
-1.15879
-1.15857
-1.16021
24.6274
26.6547
-2.88918
-1.29531
-1.4726
-1.47332
-1.20329
-1.2029
-1.20498
-1.21528
26.8155
24.9978
-1.59832
-1.20856
-1.38816
-1.39544
-1.22904
-1.22917
-1.23544
-1.26025
30.3887
22.0172
-1.13536
-1.13091
-1.24195
-1.274
-1.24203
-1.2363
-1.23131
-1.22278
22.6136
29.2389
-1.28243
-1.25746
-1.29426
-1.34306
-1.25644
-1.2408
-1.22077
-1.14899
14.0357
38.285
-1.51059
-1.41384
-1.44291
-1.48639
-1.28411
-1.27035
-1.27278
-1.30067
29.6365
21.9927
-1.37903
-1.41337
-1.39981
-1.45629
-1.31109
-1.29253
-1.29172
-1.29096
24.6351
26.8364
-1.43861
-1.42037
-1.45149
-1.45417
-1.33638
-1.32777
-1.32846
-1.34491
26.6892
24.5859
-1.44238
-1.43117
-1.46336
-1.45791
-1.35955
-1.35148
-1.35331
-1.36412
24.8326
26.1009
-1.5073
-1.48736
-1.49265
-1.50069
-1.40595
-1.40338
-1.37593
-1.39703
25.4339
25.0706
-1.53145
-1.51465
-1.51514
-1.51864
-1.433
-1.45259
-1.37574
-1.39418
25.7069
24.078
-1.53305
-1.52118
-1.52332
-1.52465
-1.49306
-1.51096
-1.43413
-1.46069
25.413
23.288
-1.52103
-1.51896
-1.52889
-1.5291
-1.53982
-1.54613
-1.52759
-1.5389
24.4867
22.9846
-1.51828
-1.52377
-1.53606
-1.53763
-1.55651
-1.55562
-1.56103
-1.55623
23.0913
22.4981
-1.53479
-1.54581
-1.54346
-1.56182
-1.57256
-1.57207
-1.57325
-1.56643
22.2739
21.712
-1.5624
-1.57296
-1.58067
-1.5883
-1.59224
-1.59318
-1.59248
-1.60103
21.9407
20.5207
-1.57242
-1.57431
-1.59553
-1.59227
-1.61343
-1.616
-1.61822
-1.65374
22.0192
18.8243
-1.60091
-1.57963
-1.61098
-1.61625
-1.63573
-1.63749
-1.64146
-1.6946
20.6237
17.9773
-1.64293
-1.59914
-1.62545
-1.63645
-1.6598
-1.65977
-1.66297
-1.72829
18.2424
17.7428
-1.68896
-1.62688
-1.65121
-1.65916
-1.68703
-1.68498
-1.68161
-1.7294
15.6947
16.4012
-1.711
-1.65749
-1.67394
-1.67408
-1.70911
-1.69653
-1.6873
-1.68223
12.5854
15.0102
-1.67463
-1.68724
-1.69064
-1.69753
-1.73561
-1.73268
-1.7329
-1.86262
10.9097
16.1632
-1.56563
-1.7088
-1.70872
-1.71211
-1.77054
-1.76592
-1.77985
-1.95822
13.5293
7.52969
-2.03221
-1.72191
-1.73052
-1.73184
-1.79106
-1.79144
-1.781
-1.43127
8.4759
3.57965
-2.68844
-1.74928
-1.75478
-1.75246
-1.81745
-1.81731
-1.83396
-1.90997
3.56453
4.13147
-2.45087
-1.78577
-1.76441
-1.76677
-1.83488
-1.8345
-1.86428
-2.595
0.675503
2.50976
-1.7156
-1.87914
-1.78932
-1.79344
-1.85078
-1.85036
-1.98334
-1.81564
-0.306553
0.851663
-1.62818
-1.9698
-1.82801
-1.83012
-1.86492
-1.86497
-2.17061
-1.90736
-0.862754
-0.613713
-1.331
-2.40969
-1.87054
-1.87293
-1.88056
-1.87341
-3.28238
-1.64509
-0.712057
-0.954367
-2.0602
-3.4287
-1.90498
-1.9024
-1.90068
-2.09115
-4.79966
-3.3506
-1.62929
-0.782026
-1.29447
-3.57422
-2.8408
-1.92774
-1.9281
-3.58292
-4.59519
-5.00271
-5.7255
-6.14457
-6.25062
-6.1987
-4.73772
-1.96098
-2.70038
-9.69403
-13.2432
-14.9463
-15.7164
-15.8685
-15.0522
-13.0549
-9.70943
-2.79532
1029.89
1029.42
1028.58
1027.46
1026.3
1025.4
1024.75
1024.41
1024.27
1024.39
1024.77
1025.24
1025.67
1026.23
1026.28
1026.74
1027.21
1027.7
1028.29
1029.17
1030.59
1031.2
1028.45
1026.68
1025.52
1024.62
1024.68
1025.78
1027.45
1029.33
1031.25
1032.98
1034.19
1035.03
1032.93
1030.79
1029.66
1028.48
1028.83
1029.16
1009.88
1010.1
1008.8
1007.14
1005.83
1004.89
1004.32
1004.32
1004.12
1004.19
1005.17
1005.19
1005.88
1006.52
1006.59
1007.04
1007.5
1007.92
1008.38
1008.55
1008.96
1009.04
1006.05
1004.92
1003.67
1002.65
1002.74
1003.44
1005.06
1006.94
1008.83
1010.51
1011.63
1012.09
1011.84
1010.11
1008.29
1009.02
1009.1
1010
989.439
990.806
989.828
986.585
984.483
983.451
982.989
983.16
983.25
983.549
984.495
984.959
985.875
986.579
987.181
987.686
988.056
988.292
987.594
986.924
986.037
984.478
982.978
981.675
979.824
977.211
975.827
977.158
979.927
982.656
985.517
987.08
988.68
989.689
990.044
989.304
989.188
990.48
992.317
992.142
964.021
964.818
963.101
959.715
958.477
958.771
960.216
961.597
962.124
962.543
963.103
964.552
965.361
966.384
967.205
967.727
967.977
968.064
966.998
964.545
962.716
961.735
960.736
959.157
957.375
959.136
956.065
955.14
957.918
960.698
963.608
966.09
967.964
969.46
970.581
971.732
974.376
976.127
977.03
977.329
933.982
936.403
931.842
929.191
930.414
933.329
937.159
940.41
941.092
942.033
942.672
944.197
945.362
946.423
947.315
947.758
947.877
947.592
946.877
951.02
942.542
941.343
941.868
939.175
939.185
938.549
937.032
937.971
940.961
940.671
944.131
947.402
949.67
950.641
951.794
953.27
955.352
957.793
959.743
960.295
917.074
923.767
913.225
912.586
913.643
917.9
921.155
921.456
922.772
923.472
924.244
925.286
926.302
927.409
928.29
928.905
929.243
929.207
929.421
929.376
925.245
920.523
921.743
921.578
921.219
921.062
920.305
921.349
923.886
923.963
926.138
929.065
930.942
931.902
932.9
933.987
935.428
936.759
937.87
938.806
909.252
915.213
900.825
900.461
902.078
904.011
904.616
906.156
906.749
906.968
907.241
907.649
908.371
909.379
910.252
911.062
911.839
912.494
913.468
914.741
913.42
911.257
909.996
909.35
908.659
907.85
906.893
905.185
905.903
907.402
909.695
911.656
913.006
913.727
913.748
914.186
915.659
916.947
918.078
918.729
894.275
898.279
891.831
890.43
890.2
890.343
890.371
889.537
889.282
888.88
888.885
889.216
889.994
891.466
892.443
893.676
894.861
896.013
897.245
899.209
900.46
899.669
899.293
898.956
896.075
895.326
893.989
892.676
892.208
892.471
893.126
893.671
894.041
894.594
895.12
895.75
896.448
898.418
899.514
899.745
881.789
879.062
876.039
874.699
874.149
874.456
873.692
871.701
870.122
868.65
868.429
869.259
870.683
872.565
874.587
876.228
877.592
879.324
881.303
883.56
884.989
885.494
884.445
882.399
880.855
879.271
876.79
874.47
874.142
875.332
875.028
874.962
874.841
875.058
875.733
876.634
877.714
879.084
881.209
883.133
859.842
857.293
857.869
857.487
857.039
858.472
859.593
857.545
854.105
854.465
852.338
851.264
852.328
854.314
856.99
858.631
860.352
862.412
864.764
866.494
867.46
867.747
866.999
864.589
863.332
861.407
858.194
857.206
860.19
858.75
856.924
856.808
856.846
857.067
856.48
857.265
858.458
860.113
862.039
865.836
841.439
838.591
840.724
840.533
839.771
839.406
842.856
842.315
839.588
840.581
840.146
839.987
840.616
840.392
843.165
843.054
844.375
846.326
847.948
848.807
849.245
848.027
847.15
845.933
843.926
841.878
842.052
843.308
841.347
840.411
838.114
836.868
835.897
835.496
835.373
835.627
836.737
838.432
840.571
844.355
822.113
821.591
822.443
824.707
824.864
825.377
825.843
821.294
823.635
825.113
824.239
825.613
825.565
822.114
822.24
822.124
822.777
826.389
828.517
829.341
828.561
829.547
827.962
826.086
824.179
826.682
825.003
820.532
821.659
819.747
817.125
814.15
811.283
809.169
808.984
809.384
809.611
810.846
813.512
818.104
802.542
802.029
803.927
804.974
804.087
807.428
809.386
809.617
805.65
807.799
808.689
808.483
808.239
805.54
805.105
803.969
804.34
805.757
807.975
809.761
810.321
810.166
808.993
809.211
807.898
808.577
806.639
802.507
801.255
797.998
793.757
788.873
785.416
788.427
786.178
785.851
784.405
783.582
788.978
790.821
780.209
781.221
782.063
783.397
783.887
783.755
785.196
787.549
789.135
790.377
790.014
791.128
790.747
789.843
788.413
788.057
788.005
788.862
789.404
790.495
791.884
791.876
791.734
794.209
793.502
789.588
787.787
784.474
784.487
780.569
775.923
773.88
772.121
770.364
769.091
767.174
763.834
766.36
771.273
772.586
760.146
759.441
759.76
762.018
764.694
764.944
767.583
769.382
771.03
772.255
773.477
774.546
774.083
774.154
773.067
771.277
770.92
772.698
772.048
772.323
773.173
773.541
773.587
779.818
779.37
774.129
772.405
768.811
767.924
767.243
764.934
762.221
757.054
755.933
754.204
751.323
749.423
752.539
756.784
760.011
738.958
737.733
741.185
743.482
743.782
747.108
750.337
752.893
754.741
755.719
756.348
757.477
757.689
757.999
757.088
756.232
755.723
755.265
755.601
755.233
755.864
756.351
756.873
757.348
756.43
756.013
754.868
753.084
751.622
759.226
755.65
748.064
754.442
750.931
742.675
743.982
745.356
749.157
752.027
750.559
717.809
723.289
721.003
722.809
725.789
729.944
733.651
736.758
738.493
738.782
739.41
740.215
741.373
741.87
742.521
743.375
740.506
739.151
739.626
740.003
740.268
740.742
741.164
740.707
739.496
738.003
736.438
736.422
734.527
745.073
732.337
734.565
735.22
732.15
731.282
731.977
734.059
733.943
739.181
740.887
695.12
702.023
705.376
706.632
707.077
711.189
715.797
719.464
721.882
723.085
723.648
723.639
723.53
723.53
723.535
723.279
725.561
725.878
723.292
724.23
724.657
724.538
724.587
724.059
726.436
730.75
718.785
717.037
715.45
713.915
712.423
711.678
712.739
718.801
719.26
715.995
713.166
715.914
718.849
721.476
679.506
684.599
689.082
693.03
694.603
700.847
704.347
704.259
703.822
704.257
705.725
706.378
706.2
705.242
705.351
705.863
706.09
704.988
710.739
704.357
704.542
705.414
705.728
704.995
707.488
712.636
694.167
695.305
695.014
695.278
694.854
694.184
696.356
701.059
701.274
696.896
693.782
693.472
694.131
700.404
664.576
668.015
672.847
686.925
691.184
691.262
692.778
694.72
701.126
701.368
700.08
694.253
689.276
687.32
685.928
686.329
687.911
686.599
687.312
687.649
684.633
684.069
684.537
684.869
684.667
682.6
683.446
681.381
677.733
678.028
679.338
681.046
681.53
684.947
684.774
681.409
680.673
680.83
681.671
687
640.459
642.362
648.757
657.701
664.825
673.803
680.566
686.725
692.016
696.219
696.114
692.519
691.155
686.113
678.341
672.909
675.742
668.175
666.228
666.606
666.114
664.522
663.685
664.938
665.511
665.722
665.163
665.714
661.583
661.844
662.825
663.18
664.738
665.445
664.681
665.075
666.366
669.209
671.362
679.005
617.716
622.05
622.528
624.546
624.895
638.726
657.402
669.093
679.793
683.492
681.663
675.284
665.806
657.779
658.398
658.374
651.875
650.086
650.308
646.552
646.313
646.332
643.999
644.738
645.408
646.013
644.649
648.073
647.228
647.278
649.002
648.666
647.887
645.84
642.057
644.258
649.313
652.932
656.054
666.792
599.313
601.506
598.458
594.84
592.615
600.756
614.863
626.101
634.091
640.913
642.22
636.689
630.121
627.425
624.944
620.045
625.67
626.001
624.411
622.977
619.595
621.484
623.037
624.469
626.07
627.341
626.787
630.17
631.294
631.686
633.094
632.852
631.946
630.13
628.359
630.137
633.346
635.638
637.499
645.276
578.966
581.196
579.187
573.552
565.254
562.239
560.156
554.77
546.943
541.854
538.377
540.163
547.03
555.547
565.312
574.643
583.369
585.552
590.463
593.64
592.445
595.64
599.906
602.783
605.865
608.143
609.858
612.123
614.135
615.284
615.718
616.329
616.253
615.33
614.888
616.103
622.22
622.325
623.044
627.144
563.902
566.511
565.04
558.422
543.034
523.039
502.22
476.782
454.404
446.885
450.587
454.004
457.615
462.727
477.265
504.406
530.732
539.86
550.292
561.034
567.362
569.839
576.769
581.263
584.324
588.132
591.946
594.795
597.171
598.581
598.374
599.059
599.501
599.213
599.01
599.918
609.812
605.799
605.717
605.736
549.956
547.36
545.174
534.469
511.257
488.86
472.634
455.136
444.387
437.242
428.188
427.626
431.621
436.343
441.877
449.104
487.972
500.648
519.237
532.523
541.225
546.059
556.241
559.098
563.724
569.521
573.613
576.48
578.72
580.003
579.479
580.233
581.446
582.196
582.633
583.387
590.507
588.716
580.109
583.72
541.5
522.742
520.636
505.714
479.342
467.219
459.436
447.285
440.729
426.095
417.079
415.668
416.624
419.131
423.875
432.641
446.819
474.373
496.271
509.264
514.804
529.505
534.061
541.838
547.496
551.382
555.165
558.489
561.154
562.206
559.972
561.217
562.529
563.502
564.282
566.147
570.924
573.824
561.738
566.128
507.815
502.337
495.316
479.783
459.975
459.442
451.107
442.952
435.867
424.151
412.881
410.817
409.363
411.404
417.51
423.851
428.842
458.715
470.732
484.524
500.383
508.359
518.818
524.239
524.552
531.94
535.806
539.325
540.932
540.472
540.6
541.823
542.963
543.832
544.671
545.395
546.344
561.115
545.122
543.413
486.721
482.602
474.184
461.77
449.166
451.537
442.409
438.434
430.023
423.856
417.518
416.313
414.515
415.489
418.98
422.126
424.573
443.956
456.593
469.552
482.529
493.21
497.965
500.775
507.02
512.916
517.294
520.053
521.258
521.833
522.34
523.106
523.975
524.798
525.591
526.102
526.244
526.885
526.824
528.078
463.446
460.172
454.634
446.02
440.683
439.516
437.004
425.425
429.672
421.82
418.784
420.63
421.443
423.513
424.037
423.342
420.716
431.835
443.032
455.352
465.237
474.398
477.036
482.551
487.919
493.172
497.299
499.768
501.392
502.314
502.676
503.032
503.738
504.662
505.879
507.163
507.352
510.463
513.141
512.094
440.111
440.541
439.047
435.92
431.083
425.739
430.381
424.93
431.712
411.512
412.725
407.155
407.569
411.005
411.862
414.42
412.7
420.923
435.253
444.737
452.381
455.357
459.697
463.682
467.688
471.535
474.928
477.34
478.997
479.784
480.337
481.026
481.8
482.82
483.856
485.175
486.975
489.574
493.329
489.723
418.806
422.035
424.94
427.332
425.986
426.561
424.162
436.123
429.286
415.38
413.131
404.177
398.33
396.238
397.855
405.43
409.372
417.3
423.345
433.316
437.565
439.035
441.194
443.69
446.324
449.052
451.57
453.738
455.295
456.251
456.971
457.834
458.652
459.197
459.571
460.794
464.628
468.074
467.105
467.401
396.666
403.482
410.146
416.3
422.094
427.375
431.407
441.774
445.515
444.228
422.564
419.921
414.622
409.035
406.26
405.585
406.799
412.272
416.306
418.889
420.741
420.626
421.395
422.77
424.293
426.185
428.189
430.04
431.464
432.467
433.314
434.166
435.111
436.112
437.795
442.891
446.817
445.522
445.089
445.754
378.183
388.364
398.367
407.22
415.263
421.839
427.859
431.82
462.127
461.703
442.61
439.48
436.769
431.64
426.599
419.698
411.355
407.363
405.117
403.192
402.571
401.568
401.695
402.152
402.838
403.673
404.737
406.351
408.105
409.443
410.443
411.182
412.044
415.117
416.245
418.33
420.686
423.284
423.017
422.757
367.777
378.537
390.799
399.956
409.906
416.265
425.402
436.326
450.015
461.717
462.985
449.436
446.103
441.707
432.465
413.791
401.218
395.159
389.996
385.984
383.519
382.108
381.421
381.174
381.289
381.875
382.913
383.975
385.314
386.95
388.003
388.36
388.052
394.241
392.336
390.824
392.137
392.856
393.609
393.375
360.066
368.653
381.38
390.647
402.111
409.672
417.904
428.492
438.534
459.649
455.657
451.247
429.813
426.504
422.22
398.878
384.452
376.977
370.688
365.572
362.273
360.22
358.97
358.581
358.801
359.277
360.779
361.909
363.413
365.39
366.715
367.108
367.623
371.235
367.873
357.149
358.394
358.125
361.306
364.009
351.659
359.045
369.922
379.838
389.641
398.47
403.924
414.487
427.629
439.053
476.793
437.64
421.356
403.099
386.204
371.69
359.197
351.499
344.681
339.317
336.043
334.297
333.706
333.464
334.192
336.028
337.895
339.684
341.702
343.328
345.185
346.12
346.839
346.773
345.292
341.888
338.305
338.85
344.307
345.991
341.372
347.739
355.831
363.573
370.939
380.38
384.055
392.926
402.716
412.936
440.647
434.83
395.65
376.081
355.543
339.378
327.967
319.142
312.139
307.463
305.235
304.515
305.126
305.49
308.422
311.69
314.876
317.812
320.969
322.686
324.71
327.21
329.276
331.193
332.336
331.765
332.363
333.349
333.408
334.933
325.475
330.242
336.358
342.738
347.932
353.365
358.154
359.378
364.043
371.003
371.871
373.186
341.854
318.508
303.924
291.706
283.681
278.016
273.581
271.077
270.246
271.983
274.268
269.483
280.479
286.432
291.895
296.498
300.468
303.337
308.764
314.564
312.086
314.547
316.817
318.101
319.664
324.026
321.287
322.609
303.645
307.226
312.065
316.234
319.97
322.372
324.681
322.366
319.089
314.79
300.641
282.124
280.482
262.558
234.489
230.65
230.369
232.119
226.614
228.581
232.96
263.55
235.966
242.52
252.946
262.261
270.18
276.446
281.309
285.45
291.153
295.07
295.807
297.873
299.647
301.018
303.221
305.822
303.961
303.974
273.58
277.368
282.372
285.831
287.956
288.019
287.54
289.29
279.451
267.836
252.319
228.398
211.927
208.109
204.068
195.55
192.935
202.512
198.545
195.737
202.629
218.36
212.573
224.247
234.384
243.521
251.224
257.734
263.091
271.19
274.411
277.836
279.693
281.452
282.575
283.676
282.348
284.153
285.224
285.647
235.795
242.03
248.042
253.061
255.311
254.794
253.533
253.876
247.584
236.124
222.091
194.126
172.788
176.195
182.537
184.413
186.555
189.633
192.62
194.187
195.361
193.304
199.331
210.922
221.001
229.434
236.771
243.347
249.554
255.117
258.351
261.866
264.036
265.993
266.115
267.164
266.119
265.662
269.301
269.37
191.541
202.488
211.593
219.018
223.256
224.38
225.078
225.706
227.256
217.275
207.561
184.405
167.377
171.581
176.355
180.778
185.015
187.985
189.921
190.384
189.991
188.961
196.179
203.466
211.117
218.133
224.714
231.145
236.92
240.521
244.118
247.101
249.588
252.152
254.95
257.832
259.107
253.484
256.121
257.481
151.311
164.174
175.634
185.647
193.11
197.487
201.07
204.31
208.176
203.169
200.885
184.336
171.323
172.148
174.199
177.743
181.464
184.349
185.967
186.314
186.433
185.46
192.527
196.983
203.3
208.411
213.333
221.63
224.75
227.389
230.684
234.098
237.923
241.718
245.234
246.217
246.162
246.6
243.739
246.56
125.156
135.345
145.61
157.224
167.218
174.673
181.416
187.862
193.184
191.414
193.692
178.927
170.96
170.537
172.469
175.208
178.024
180.388
181.825
181.764
182.98
185.525
190.076
191.171
196.289
199.832
202.833
210.614
208.741
212.008
214.667
216.778
219.77
224.534
228.023
229.737
231.129
230.279
229.55
229.553
111.457
118.398
126.279
136.279
146.169
155.272
163.965
174.359
179.371
182.574
178.821
172.598
168.735
168.902
171.012
173.559
176.121
178.032
179.199
179.351
178.903
183.787
185.324
184.556
188.717
189.478
190.624
192.843
194.127
195.85
197.405
200.612
201.252
202.487
204.64
211.154
213.963
213.132
214.585
216.763
107.241
109.739
114.446
121.989
130.861
141.01
154.593
166.421
170.261
176.481
167.853
166.95
167.314
168.824
170.983
173.483
175.748
177.542
178.537
179.378
179.485
179.499
177.245
177.164
181.445
178.05
175.692
178.7
180.462
181.059
183.971
183.834
181.997
184.709
185.759
192.567
192.178
198.296
200.321
199.462
102.712
99.8742
99.5967
103.028
116.802
126.463
144.668
153.877
167.182
169.118
168.723
169.431
169.65
170.776
172.484
174.376
176.072
177.601
178.456
178.746
178.817
176.725
170.874
174.248
171.647
170.431
166.889
164.523
167.63
167.182
170.188
169.698
168.616
165.642
166.781
171.774
175.53
179.244
181.96
181.338
95.9762
101.644
94.659
91.5789
108.372
119.799
138.187
144.9
157.106
164.733
170.087
170.942
171.318
172.117
173.016
174.167
175.771
176.897
177.545
177.545
178.046
174.087
165.314
167.705
161.267
159.756
157.242
154.34
153.756
157.172
157.879
158.168
157.237
156.362
157.452
159.435
161.536
163.766
165.724
165.225
87.1639
99.6576
76.4535
84.8856
101.556
114.843
127.659
140.838
152.671
163.802
168.799
170.828
171.475
172.447
172.921
172.614
173.446
176.988
174.539
170.029
164.085
162.997
156.389
155.393
154.104
152.439
150.21
147.436
146.928
146.718
147.632
147.112
146.404
145.62
151.154
145.768
146.972
148.153
149.338
149.506
87.6703
86.1859
88.7774
93.86
103.537
114.001
125.111
135.48
148.109
162.696
169.179
170.518
171.094
171.555
170.327
169.784
171.07
171.096
168.599
167.018
161.725
160.256
152.48
149.653
147.245
145.177
142.866
140.273
138.975
138.221
137.023
137.134
134.356
139.029
129.712
130.727
131.706
132.574
132.948
134.242
86.7543
86.6058
86.6827
88.9806
101.006
111.146
120.597
132.85
143.633
159.228
170.893
167.836
166.936
170.647
167.479
164.603
162.829
160.21
157.984
156.187
152.543
146.624
145.23
142.576
139.918
137.591
135.462
132.468
129.676
132.879
129.947
127.094
129.218
125.44
116.566
121.663
122.476
122.041
122.49
123.273
86.1459
86.2077
86.1135
81.146
95.0652
112.27
116.458
133.69
146.757
150.808
146.69
156.801
161.846
161.708
159.409
156.558
153.142
148.953
145.246
142.537
140.841
139.421
136.096
133.628
131.539
130.005
127.912
124.471
129.069
125.007
122.736
122.215
121.209
118.501
113.022
112.68
112.184
113.857
114.026
114.478
84.8663
82.8295
76.3266
80.051
90.453
102.076
122.284
141.197
130.783
142.276
149.248
153.13
153.452
151.675
148.911
144.85
140.972
140.081
138.841
136.431
133.784
130.632
130.641
128.092
122.481
121.516
119.384
117.602
119.916
113.962
116.79
116.115
110.546
110.421
111.219
107.356
107.033
106.59
106.401
106.329
77.6919
81.6787
80.4696
85.2957
92.7944
103.001
114.378
124.026
134.686
142.496
145.906
146.457
144.896
141.77
138.252
134.464
131.41
131.462
130.074
127.742
124.435
121.583
119.512
116.772
112.983
110.759
109.415
108.36
105.67
107.093
106.521
99.5555
100.552
99.1448
99.3264
98.5599
98.034
96.8686
96.6064
96.6337
89.3883
93.5107
93.7866
95.028
98.7863
104.161
113.564
124.664
131.89
136.643
137.899
135.403
132.269
129.223
126.577
123.854
120.604
117.769
116.198
115.249
113.776
111.939
109.523
106.702
103.118
100.49
97.4103
94.0831
90.1217
97.3383
84.4089
83.9842
80.3184
81.2164
81.5694
82.4521
83.0304
86.2422
84.9441
85.976
105.909
103.369
100.104
96.3922
90.1154
88.3216
97.5191
103.304
112.264
115.626
116.212
115.287
112.692
110.157
109.044
107.411
103.064
102.969
102.537
103.551
102.726
101.076
98.0777
94.5599
91.8047
88.2978
83.5864
77.9192
72.6754
69.7183
67.278
60.8113
59.786
59.5781
61.0444
62.9715
65.6273
68.2123
69.8118
71.1253
126.867
111.327
107.55
102.497
94.7934
83.3473
71.3775
78.3804
90.6636
97.6498
98.9848
97.5532
97.5065
98.2456
94.6972
92.3499
93.7712
96.0164
92.4049
92.8971
92.0113
90.4279
88.108
84.9789
80.3232
75.1491
69.8177
61.9236
59.5412
53.0324
51.45
43.5791
36.9345
35.9012
36.3186
41.135
50.2276
56.5262
60.4168
63.2434
135.475
114.362
108.991
102.58
96.7502
89.7869
82.3168
77.5169
84.0117
88.0144
86.9778
90.2843
89.8726
88.3031
86.6202
85.6154
86.4126
86.7232
86.7142
85.2609
85.222
83.3733
80.6447
76.8632
71.5363
66.2796
59.5081
52.2037
48.5118
45.137
43.6157
41.7489
38.1772
36.4769
31.2171
37.1225
47.0985
55.4162
60.8628
63.5136
123.391
111.174
101.053
88.6929
99.0836
69.2351
70.4765
74.4565
77.3194
78.1552
77.5323
79.6737
79.6387
78.7466
77.3824
77.6614
83.4787
79.9912
81.6496
81.4175
78.2752
75.3518
74.0423
69.8915
63.9192
59.2679
54.6873
50.9475
46.5736
42.8541
41.8308
41.3958
41.374
41.6302
37.6836
42.9792
50.5099
58.0659
63.3844
65.9683
96.8106
89.4555
81.4795
79.1423
81.7005
71.7646
76.7108
81.5206
78.0422
73.3569
69.9018
69.0442
70.4365
70.3174
67.3811
72.7249
74.3304
72.8841
71.984
74.5939
74.1585
71.4573
68.5456
65.9132
63.1243
58.6689
53.7135
48.1453
43.3469
38.6126
34.7827
38.5026
37.6062
37.3944
40.0597
45.1044
56.342
56.9341
60.653
62.5396
72.1598
66.4669
57.9338
49.2254
44.2455
53.3535
57.9506
61.4774
53.2512
51.3689
50.0744
52.4369
50.5022
60.4063
54.9216
56.8539
58.8409
60.2181
61.417
61.7699
60.2614
59.1374
58.7009
57.4921
53.9348
48.3196
41.828
35.6036
29.9577
27.6197
25.5834
25.4909
29.493
33.4049
31.9477
57.8658
59.8796
53.3531
53.7966
53.8155
49.8148
40.928
25.6213
11.295
13.4732
15.288
24.1836
22.0054
21.6604
18.3467
22.0734
28.8093
35.4801
36.8299
39.2567
42.8367
45.5515
48.3955
51.5838
53.3667
52.4177
50.0993
46.1825
43.1199
40.5837
36.9485
31.3193
24.841
17.1645