/*--------------------------------*- C++ -*----------------------------------*\
  =========                 |
  \\      /  F ield         | OpenFOAM: The Open Source CFD Toolbox
   \\    /   O peration     | Website:  https://openfoam.org
    \\  /    A nd           | Version:  8
     \\/     M anipulation  |
\*---------------------------------------------------------------------------*/
FoamFile
{
    version     2.0;
    format      ascii;
    class       volVectorField;
    location    "5.35";
    object      U;
}
// * * * * * * * * * * * * * * * * * * * * * * * * * * * * * * * * * * * * * //

dimensions      [0 1 -1 0 0 0 0];

internalField   nonuniform List<vector> 
9150
(
(0.00490066 -0.0781706 0)
(0.0131073 -0.0973935 0)
(0.0108987 -0.104338 0)
(0.00912515 -0.107458 0)
(0.0024128 -0.109245 0)
(-0.00262363 -0.10927 0)
(-0.00869623 -0.10792 0)
(-0.0108122 -0.104381 0)
(-0.0130818 -0.0974191 0)
(-0.00491313 -0.0782102 0)
(0.00593046 -0.0920019 0)
(0.00859692 -0.100501 0)
(0.00735941 -0.102292 0)
(0.00428669 -0.104703 0)
(0.00236878 -0.105315 0)
(-0.00130253 -0.105605 0)
(-0.0042894 -0.104607 0)
(-0.00734778 -0.102222 0)
(-0.00857433 -0.100503 0)
(-0.00592726 -0.0920126 0)
(0.00175594 -0.0954541 0)
(0.00458732 -0.0989692 0)
(0.00372083 -0.101035 0)
(0.00326685 -0.101672 0)
(0.000505486 -0.102605 0)
(-0.00124809 -0.102346 0)
(-0.00341433 -0.101676 0)
(-0.0037427 -0.100972 0)
(-0.00457671 -0.098983 0)
(-0.00174895 -0.0954562 0)
(0.00175287 -0.0984203 0)
(0.00247268 -0.100401 0)
(0.00222116 -0.100199 0)
(0.0013228 -0.100788 0)
(0.00069611 -0.100845 0)
(-0.000437079 -0.100886 0)
(-0.00125565 -0.100898 0)
(-0.00217045 -0.100267 0)
(-0.00247641 -0.100397 0)
(-0.00174799 -0.0984196 0)
(0.00018637 -0.0994915 0)
(0.000722915 -0.0995783 0)
(0.000459781 -0.100046 0)
(0.000656899 -0.0998577 0)
(0.00017891 -0.10009 0)
(-0.00013897 -0.100108 0)
(-0.000682064 -0.0998741 0)
(-0.000475387 -0.0999847 0)
(-0.000728056 -0.0995718 0)
(-0.000185808 -0.0994911 0)
(0.075899 -0.194611 2.15216e-26)
(0.0495763 -0.184945 0)
(0.0310434 -0.176727 0)
(0.0164449 -0.175176 0)
(0.00545942 -0.175843 0)
(-0.00372043 -0.175835 0)
(-0.0153871 -0.174598 0)
(-0.0303931 -0.176115 0)
(-0.0492957 -0.184857 0)
(-0.0757971 -0.194854 -2.17411e-26)
(0.0584155 -0.146454 5.66256e-27)
(0.0484181 -0.146461 0)
(0.0281452 -0.156341 0)
(0.0201499 -0.1577 0)
(0.00375376 -0.155862 0)
(-0.00564259 -0.155439 0)
(-0.0212189 -0.155972 0)
(-0.0287145 -0.156581 0)
(-0.0484738 -0.146605 0)
(-0.0584417 -0.146502 -5.51172e-27)
(0.0476188 -0.121501 2.66682e-27)
(0.0425029 -0.131285 0)
(0.0296529 -0.133622 0)
(0.017219 -0.136966 0)
(0.00527601 -0.140065 0)
(-0.00658872 -0.140271 0)
(-0.0178115 -0.13827 0)
(-0.0296403 -0.134044 0)
(-0.0425411 -0.131408 0)
(-0.0475877 -0.121498 -2.82022e-27)
(0.0372633 -0.0994705 4.44794e-27)
(0.0391579 -0.110265 0)
(0.0226604 -0.120382 0)
(0.0179508 -0.124903 0)
(0.00549743 -0.12527 0)
(-0.00331107 -0.125476 0)
(-0.0168376 -0.125138 0)
(-0.022235 -0.120271 0)
(-0.0390288 -0.110229 0)
(-0.0371907 -0.0994344 -4.47104e-27)
(0.0247121 -0.0815239 -1.34557e-26)
(0.0279578 -0.101184 -1.59347e-26)
(0.0198345 -0.108173 -3.984e-27)
(0.010517 -0.114199 -3.57388e-27)
(0.00407776 -0.117178 -1.78855e-28)
(-0.00518551 -0.117038 -1.17596e-28)
(-0.0112949 -0.113765 -3.5662e-27)
(-0.0201133 -0.108353 -4.01719e-27)
(-0.0280969 -0.101144 -1.59405e-26)
(-0.024714 -0.0815116 -1.34517e-26)
(0.0194806 -0.143727 0)
(0.0151103 -0.2029 0)
(0.0242324 -0.215365 0)
(0.0120617 -0.221233 0)
(0.0120968 -0.225667 0)
(-0.00282253 -0.226818 0)
(-0.00555354 -0.225203 0)
(-0.0202154 -0.218358 0)
(-0.0106272 -0.207049 0)
(-0.0182798 -0.145785 0)
(0.0166122 -0.163891 0)
(0.00263314 -0.197186 0)
(0.0159671 -0.207811 0)
(0.00291225 -0.213359 0)
(0.00573331 -0.214889 0)
(-0.00568669 -0.215578 0)
(-0.00219106 -0.214405 0)
(-0.0141561 -0.210116 0)
(-0.00124067 -0.201353 0)
(-0.0153466 -0.168327 0)
(0.015168 -0.171023 0)
(-0.00340671 -0.202507 0)
(0.0119126 -0.20738 0)
(0.000835231 -0.208607 0)
(0.0054768 -0.209313 0)
(-0.00180711 -0.210155 0)
(0.0027382 -0.2109 0)
(-0.00989092 -0.209473 0)
(0.00427952 -0.204452 0)
(-0.0146082 -0.173078 0)
(0.0181758 -0.193973 0)
(-0.00676357 -0.203464 0)
(0.0103297 -0.209684 0)
(-4.4957e-06 -0.207105 0)
(0.0020124 -0.206787 0)
(-0.000774542 -0.207246 0)
(0.00138472 -0.20553 0)
(-0.00902302 -0.210797 0)
(0.00688144 -0.204911 0)
(-0.0175996 -0.195053 0)
(0.0348815 -0.216937 0)
(0.00943797 -0.203995 0)
(0.0165131 -0.203145 0)
(0.0119081 -0.196217 0)
(0.00240478 -0.192881 0)
(-0.00182914 -0.192842 0)
(-0.0108881 -0.196249 0)
(-0.0159484 -0.202978 0)
(-0.00903495 -0.203771 0)
(-0.0350457 -0.217834 0)
(-0.100285 0.00329293 0)
(-0.111101 0.00752499 0)
(-0.12165 0.00634437 0)
(-0.125785 0.00239927 0)
(-0.125635 -0.00183186 0)
(-0.122146 -0.00688738 0)
(-0.115675 -0.00982367 0)
(-0.104264 -0.012845 0)
(-0.0876558 -0.0156537 0)
(-0.0694797 -0.016536 0)
(-0.127547 0.034827 0)
(-0.13461 0.0357332 0)
(-0.140903 0.0238774 0)
(-0.142298 0.00604264 0)
(-0.142691 -0.004781 0)
(-0.143252 -0.0105961 0)
(-0.137346 -0.0215967 0)
(-0.124356 -0.041087 0)
(-0.11045 -0.0542361 0)
(-0.0923496 -0.0533717 0)
(-0.15515 0.0387138 0)
(-0.155261 0.0342542 0)
(-0.152925 0.0145831 0)
(-0.150963 0.00382703 0)
(-0.150597 -0.00160689 0)
(-0.148783 -0.0169864 0)
(-0.141389 -0.0459902 0)
(-0.133307 -0.0678419 0)
(-0.129379 -0.0777505 0)
(-0.121382 -0.091244 0)
(-0.147472 0.0376773 0)
(-0.143857 0.0336954 0)
(-0.140241 0.0175529 0)
(-0.136371 -0.000616486 0)
(-0.133017 -0.0130337 0)
(-0.130137 -0.0311889 0)
(-0.124949 -0.0575237 0)
(-0.12385 -0.0688847 0)
(-0.130437 -0.0792301 0)
(-0.125913 -0.119566 0)
(-0.119131 0.0267649 0)
(-0.111935 0.0228863 0)
(-0.101578 0.0043746 0)
(-0.089283 -0.0134344 0)
(-0.0788397 -0.0222671 0)
(-0.0714622 -0.0316252 0)
(-0.0683835 -0.0537229 0)
(-0.065513 -0.0630247 0)
(-0.078517 -0.0637341 0)
(-0.102053 -0.12851 0)
(-0.0824761 -0.0080403 0)
(-0.0630182 -0.00598688 0)
(-0.0485959 -0.0185334 0)
(-0.0418404 -0.0343073 0)
(-0.0339877 -0.04602 0)
(-0.0265542 -0.0525594 0)
(-0.0190608 -0.0545404 0)
(-0.0178477 -0.0600004 0)
(-0.0149846 -0.0321772 0)
(-0.0477111 -0.0723497 0)
(-0.0253298 -0.0539545 0)
(-0.00812113 -0.0478948 0)
(0.00303155 -0.0378103 0)
(0.00242335 -0.0349914 0)
(0.00223195 -0.0497255 0)
(-0.000764463 -0.0646927 0)
(-0.00181486 -0.06078 0)
(-0.0102929 -0.050449 0)
(-0.00875516 -0.0111838 0)
(-0.0162003 -0.00510958 0)
(-0.00636513 -0.0831315 0)
(-0.00191092 -0.0684513 0)
(-0.000983232 -0.0491636 0)
(-0.000688664 -0.0379054 0)
(0.0116364 -0.0449212 0)
(0.0133516 -0.056414 0)
(0.0053534 -0.0535334 0)
(-0.0126931 -0.0421289 0)
(-0.0439479 -0.0351764 0)
(-0.0232186 0.0190287 0)
(-0.0256764 -0.102879 0)
(-0.0318607 -0.0566402 0)
(-0.0451327 -0.0288455 0)
(-0.0547999 -0.0569941 0)
(-0.0543786 -0.0683383 0)
(-0.0638738 -0.0436856 0)
(-0.0878357 0.00658947 0)
(-0.110304 0.0384629 0)
(-0.123477 0.0237923 0)
(-0.0941208 -0.0487055 0)
(-0.0770165 -0.0786179 0)
(-0.0723487 -0.0242477 0)
(-0.0724711 -0.0121039 0)
(-0.0819994 -0.0344761 0)
(-0.0990374 -0.0275019 0)
(-0.11846 0.0126376 0)
(-0.124634 0.0276214 0)
(-0.126755 0.0240571 0)
(-0.112606 -0.0216266 0)
(-0.0922686 -0.0913093 0)
(-0.101546 -0.0755992 0)
(-0.0988997 -0.0385308 0)
(-0.0937381 -0.0186818 0)
(-0.0944459 -0.0136442 0)
(-0.101354 0.00275062 0)
(-0.0968693 0.014634 0)
(-0.0908824 0.0238039 0)
(-0.0918011 0.0177267 0)
(-0.0940001 -0.0369817 0)
(-0.098316 -0.0781082 0)
(-0.0973723 -0.0799335 0)
(-0.101132 -0.0513066 0)
(-0.100561 -0.0197571 0)
(-0.106772 -0.0126807 0)
(-0.105103 -0.0103628 0)
(-0.09624 -0.0216477 0)
(-0.0768319 0.00631894 0)
(-0.0693108 0.016949 0)
(-0.066688 0.000876924 0)
(-0.0766363 -0.0354798 0)
(-0.0632805 -0.0440477 0)
(-0.078856 -0.0328579 0)
(-0.0785502 -0.0121891 0)
(-0.0738305 -0.00648089 0)
(-0.0771202 -0.0167734 0)
(-0.0819592 -0.0338218 0)
(-0.0853062 -0.0196832 0)
(-0.07927 -0.00714389 0)
(-0.0739097 -0.00711714 0)
(-0.0777397 -0.00452807 0)
(-0.0135341 -0.0256539 0)
(-0.0124313 -0.0222367 0)
(-0.0073777 -0.0273185 0)
(-0.00015358 -0.0195522 0)
(0.00577865 0.00729646 0)
(-0.00505897 -0.000852361 0)
(-0.0342607 -0.00664793 0)
(-0.0472706 -0.0145297 0)
(-0.0584473 -0.00432821 0)
(-0.0662993 0.0235331 0)
(0.00364228 -0.0444626 0)
(0.0129519 -0.0450278 0)
(0.0233032 -0.0448223 0)
(0.0363212 -0.039258 0)
(0.0520817 -0.0145014 0)
(0.0639207 0.0413765 0)
(0.0649287 0.0606166 0)
(0.0596318 0.050917 0)
(0.0353906 0.0308091 0)
(-0.00211953 0.0350169 0)
(0.00742748 -0.0558832 0)
(0.0120592 -0.0633535 0)
(0.0191082 -0.0660501 0)
(0.0267852 -0.0640682 0)
(0.0338723 -0.0537971 0)
(0.0460568 -0.0198204 0)
(0.0726701 0.0118257 0)
(0.0918414 0.0507873 0)
(0.107334 0.0731533 0)
(0.113813 0.106428 0)
(0.0451987 -0.051894 0)
(0.0380375 -0.0695981 0)
(0.037372 -0.0753724 0)
(0.0387755 -0.0727902 0)
(0.0390216 -0.0592255 0)
(0.0397406 -0.039013 0)
(0.0465496 -0.0239553 0)
(0.0607039 -0.00148497 0)
(0.0794253 0.011304 0)
(0.0996591 0.0270297 0)
(0.0860987 -0.0117496 0)
(0.063295 -0.0409067 0)
(0.0491358 -0.0683447 0)
(0.0459079 -0.0706111 0)
(0.0434861 -0.0605584 0)
(0.0407394 -0.0400178 0)
(0.0399974 -0.0282518 0)
(0.0446374 -0.021744 0)
(0.0473212 -0.0107106 0)
(0.0480535 0.0203091 0)
(0.0745731 0.0173642 0)
(0.0641082 -0.00271036 0)
(0.0495491 -0.0490471 0)
(0.0387833 -0.0550999 0)
(0.0276317 -0.0398928 0)
(0.0113694 -0.026225 0)
(-0.000961932 -0.0227332 0)
(-0.0121556 -0.0217679 0)
(-0.0202347 -0.00744368 0)
(-0.0273911 0.0635412 0)
(0.0301439 0.0175054 0)
(0.0326576 0.00210795 0)
(0.0222182 -0.0342372 0)
(0.00184286 -0.0291654 0)
(-0.0191071 -0.0040518 0)
(-0.0402023 0.012613 0)
(-0.059503 0.0145039 0)
(-0.0858438 0.0117145 0)
(-0.0951726 0.0158068 0)
(-0.0877576 0.0537375 0)
(-0.0425705 0.0124116 0)
(-0.0526664 0.0129822 0)
(-0.0685344 0.0238353 0)
(-0.0853546 0.0421132 0)
(-0.1012 0.0522501 0)
(-0.119009 0.0566447 0)
(-0.144339 0.0640721 0)
(-0.166825 0.0598104 0)
(-0.16637 0.0214546 0)
(-0.136343 -0.0199481 0)
(-0.13947 0.0525208 0)
(-0.133003 0.0175071 0)
(-0.131741 0.0181772 0)
(-0.152797 0.044511 0)
(-0.183405 0.0628253 0)
(-0.218267 0.0782577 0)
(-0.253832 0.108703 0)
(-0.274561 0.0599965 0)
(-0.255353 -0.0531795 0)
(-0.234246 -0.0642469 0)
(-0.220795 -0.010547 0)
(-0.223411 -0.0254192 0)
(-0.245718 0.0733162 0)
(-0.260292 0.159335 0)
(-0.289267 0.173969 0)
(-0.310124 0.181723 0)
(-0.313234 0.175611 0)
(-0.272438 0.044214 0)
(-0.217865 -0.084746 0)
(-0.198096 -0.0998038 0)
(-0.268209 0.0261339 0)
(-0.2712 0.0417977 0)
(-0.26447 0.137099 0)
(-0.257127 0.163373 0)
(-0.253951 0.164625 0)
(-0.241931 0.127304 0)
(-0.190918 0.0329095 0)
(-0.139555 -0.0970072 0)
(-0.106208 -0.165049 0)
(-0.0896862 -0.18039 0)
(-0.279564 -0.0474894 0)
(-0.284296 -0.0329364 0)
(-0.244224 0.0464629 0)
(-0.187611 0.109702 0)
(-0.157372 0.120496 0)
(-0.110293 0.0827148 0)
(-0.04992 -0.0277545 0)
(-0.0220407 -0.115729 0)
(-0.0202648 -0.142 0)
(0.0110252 -0.211864 0)
(-0.135941 0.0780098 0)
(-0.125717 0.00450849 0)
(-0.114843 -0.0343314 0)
(-0.0819075 -0.0316074 0)
(-0.0613268 -0.0181818 0)
(-0.0244385 -0.0622955 0)
(0.0160223 -0.128251 0)
(0.0294291 -0.163616 0)
(0.0399696 -0.217811 0)
(0.0522142 -0.320701 0)
(-0.0458783 -0.0616071 0)
(-0.0123849 -0.0699593 0)
(-0.00884054 -0.0327394 0)
(-0.00315594 -0.0470452 0)
(0.014179 -0.0292019 0)
(0.0426463 -0.0762533 0)
(0.0489111 -0.124186 0)
(0.0634346 -0.154268 0)
(0.0797464 -0.215262 0)
(0.091546 -0.3153 0)
(0.0132437 -0.104499 0)
(0.0251311 -0.0888974 0)
(0.0223976 -0.0556738 0)
(0.0251348 -0.068764 0)
(0.0270824 -0.0928838 0)
(0.0354415 -0.123937 0)
(0.0357236 -0.154455 0)
(0.0598094 -0.229606 0)
(0.0799828 -0.266951 0)
(0.104649 -0.303403 0)
(0.0253499 -0.141219 0)
(0.0341559 -0.0935049 0)
(0.02393 -0.0286052 0)
(0.0251286 -0.0354469 0)
(0.0348752 -0.0788488 0)
(0.0341591 -0.105225 0)
(0.0473278 -0.14536 0)
(0.0329349 -0.234664 0)
(0.0237394 -0.277946 0)
(0.0511243 -0.364554 0)
(-0.0606992 -0.0963381 0)
(-0.0427337 -0.0809157 0)
(-0.0156165 -0.0566048 0)
(0.00451513 -0.0727917 0)
(0.0173527 -0.11677 0)
(0.0213365 -0.127646 0)
(0.0248365 -0.159965 0)
(0.00887897 -0.219886 0)
(0.0299605 -0.303704 0)
(0.0608858 -0.449335 0)
(-0.0784703 -0.109696 0)
(-0.0666244 -0.129685 0)
(-0.041188 -0.123803 0)
(-0.0120473 -0.111223 0)
(0.0150677 -0.146475 0)
(0.0215821 -0.126535 0)
(0.0293748 -0.150964 0)
(0.0309835 -0.232794 0)
(0.0616083 -0.379855 0)
(0.0700477 -0.467988 0)
(-0.0854863 -0.154783 0)
(-0.0694455 -0.1775 0)
(-0.0354394 -0.190569 0)
(-0.00846428 -0.190526 0)
(0.024048 -0.176769 0)
(0.0523526 -0.154912 0)
(0.0694784 -0.162663 0)
(0.0835781 -0.255542 0)
(0.101725 -0.394136 0)
(0.0909105 -0.46667 0)
(-0.0872103 -0.17031 0)
(-0.066225 -0.228951 0)
(-0.0232228 -0.2508 0)
(0.0145347 -0.237899 0)
(0.0441547 -0.241404 0)
(0.0729584 -0.222397 0)
(0.0907868 -0.231612 0)
(0.12506 -0.297688 0)
(0.131945 -0.384576 0)
(0.121444 -0.453775 0)
(-0.0526628 -0.25356 0)
(-0.0149623 -0.348417 0)
(0.0327005 -0.393221 0)
(0.0875524 -0.35438 0)
(0.12705 -0.301414 0)
(0.147964 -0.274735 0)
(0.156949 -0.279248 0)
(0.167508 -0.312339 0)
(0.159851 -0.374347 0)
(0.159144 -0.449617 0)
(0.125039 -0.218266 0)
(0.167304 -0.377541 0)
(0.145682 -0.435428 0)
(0.140143 -0.407307 0)
(0.162146 -0.339749 0)
(0.180919 -0.284133 0)
(0.204904 -0.274239 0)
(0.218767 -0.290542 0)
(0.223778 -0.352283 0)
(0.217489 -0.437889 0)
(0.275172 -0.21838 0)
(0.283618 -0.292581 0)
(0.231452 -0.379933 0)
(0.169287 -0.387794 0)
(0.166589 -0.37224 0)
(0.19458 -0.349272 0)
(0.227082 -0.333556 0)
(0.254688 -0.330806 0)
(0.27575 -0.346982 0)
(0.277647 -0.38739 0)
(0.300123 -0.201328 0)
(0.303686 -0.261193 0)
(0.287753 -0.315104 0)
(0.278961 -0.349308 0)
(0.28386 -0.371484 0)
(0.290652 -0.388162 0)
(0.301764 -0.395484 0)
(0.312775 -0.391455 0)
(0.320511 -0.385389 0)
(0.322613 -0.389573 0)
(0.277703 -0.180577 0)
(0.301021 -0.248997 0)
(0.34807 -0.332481 0)
(0.386785 -0.383813 0)
(0.407798 -0.398473 0)
(0.414816 -0.391239 0)
(0.414104 -0.384204 0)
(0.412469 -0.373584 0)
(0.400427 -0.363413 0)
(0.394733 -0.367634 0)
(0.296444 -0.272492 0)
(0.353387 -0.380604 0)
(0.403787 -0.447987 0)
(0.441508 -0.461996 0)
(0.458509 -0.438414 0)
(0.462572 -0.406066 0)
(0.46543 -0.378701 0)
(0.461556 -0.357065 0)
(0.449818 -0.333473 0)
(0.440213 -0.333885 0)
(0.364712 -0.414723 0)
(0.407788 -0.487372 0)
(0.443438 -0.52182 0)
(0.463841 -0.515122 0)
(0.480005 -0.458758 0)
(0.481965 -0.410592 0)
(0.49205 -0.379637 0)
(0.48232 -0.346199 0)
(0.476749 -0.325445 0)
(0.469421 -0.313431 0)
(0.359738 -0.469495 0)
(0.406361 -0.538052 0)
(0.442521 -0.561684 0)
(0.457382 -0.543833 0)
(0.478055 -0.4783 0)
(0.494854 -0.424724 0)
(0.50374 -0.379691 0)
(0.510633 -0.33826 0)
(0.507587 -0.30825 0)
(0.497669 -0.285031 0)
(0.322533 -0.524416 0)
(0.383382 -0.590004 0)
(0.433536 -0.594567 0)
(0.474181 -0.550513 0)
(0.506652 -0.491204 0)
(0.538613 -0.444958 0)
(0.547732 -0.39174 0)
(0.541251 -0.338206 0)
(0.532937 -0.293106 0)
(0.514742 -0.253073 0)
(0.309895 -0.699552 0)
(0.382259 -0.781099 0)
(0.453625 -0.759814 0)
(0.50563 -0.711278 0)
(0.565412 -0.628489 0)
(0.577215 -0.503874 0)
(0.55377 -0.40256 0)
(0.527568 -0.333817 0)
(0.512731 -0.267552 0)
(0.491135 -0.212409 0)
(0.333368 -0.943339 0)
(0.381041 -0.946664 0)
(0.421831 -0.908401 0)
(0.478078 -0.829421 0)
(0.514935 -0.706978 0)
(0.534128 -0.50634 0)
(0.462347 -0.357715 0)
(0.428635 -0.311664 0)
(0.404723 -0.228796 0)
(0.375528 -0.160462 0)
(0.336617 -0.983269 0)
(0.314879 -0.970414 0)
(0.303718 -0.918753 0)
(0.268773 -0.807305 0)
(0.198623 -0.688571 0)
(0.186786 -0.360949 0)
(0.222987 -0.173446 0)
(0.24357 -0.195138 0)
(0.21123 -0.145079 0)
(0.204539 -0.113194 0)
(0.308172 -0.9738 0)
(0.249785 -0.910111 0)
(0.222404 -0.760094 0)
(0.174348 -0.532766 0)
(0.10525 -0.443864 0)
(0.036319 -0.351685 0)
(0.0393998 -0.292436 0)
(0.044743 -0.192245 0)
(0.0628078 -0.124255 0)
(0.105518 -0.18055 0)
(0.228333 -0.907218 0)
(0.163609 -0.782496 0)
(0.185027 -0.609441 0)
(0.0961895 -0.469478 0)
(0.0681134 -0.430306 0)
(0.0329783 -0.369544 0)
(0.0417729 -0.33839 0)
(0.0560903 -0.312613 0)
(0.0903512 -0.263586 0)
(0.0906424 -0.243544 0)
(0.153724 -0.820992 0)
(0.132167 -0.683262 0)
(0.0960512 -0.53197 0)
(0.036393 -0.454544 0)
(0.0570584 -0.408862 0)
(0.0400919 -0.384796 0)
(0.0498226 -0.335333 0)
(0.0116252 -0.269305 0)
(-0.0109397 -0.200219 0)
(0.00319444 -0.147949 0)
(0.0438306 -0.711367 0)
(0.0247422 -0.561019 0)
(-0.0261095 -0.501256 0)
(-0.0197976 -0.461343 0)
(-0.032964 -0.403198 0)
(-0.0586281 -0.362347 0)
(-0.065794 -0.314501 0)
(-0.0609377 -0.268904 0)
(-0.0494012 -0.206237 0)
(-0.046518 -0.207497 0)
(0.00145056 -0.601743 0)
(-0.00163135 -0.484738 0)
(-0.0905706 -0.414485 0)
(-0.12638 -0.374893 0)
(-0.150184 -0.366046 0)
(-0.151519 -0.341499 0)
(-0.151262 -0.307944 0)
(-0.141686 -0.281669 0)
(-0.0979681 -0.268287 0)
(-0.0525136 -0.27824 0)
(-0.0788351 -0.512682 0)
(-0.131284 -0.351653 0)
(-0.171765 -0.302227 0)
(-0.195375 -0.348656 0)
(-0.191635 -0.353688 0)
(-0.177869 -0.339785 0)
(-0.167324 -0.311969 0)
(-0.160276 -0.298504 0)
(-0.138781 -0.308797 0)
(-0.129072 -0.321018 0)
(-0.204643 -0.377045 0)
(-0.241957 -0.347574 0)
(-0.227254 -0.308809 0)
(-0.234964 -0.367247 0)
(-0.217536 -0.390844 0)
(-0.176872 -0.368215 0)
(-0.147546 -0.338174 0)
(-0.118956 -0.349551 0)
(-0.115219 -0.349638 0)
(-0.152457 -0.320704 0)
(-0.287552 -0.359432 0)
(-0.300488 -0.350313 0)
(-0.277847 -0.307392 0)
(-0.277243 -0.38086 0)
(-0.243884 -0.474657 0)
(-0.170384 -0.514604 0)
(-0.123149 -0.4323 0)
(-0.127007 -0.356485 0)
(-0.179701 -0.258952 0)
(-0.272322 -0.130086 0)
(-0.326512 -0.337884 0)
(-0.339661 -0.326239 0)
(-0.336126 -0.324331 0)
(-0.276773 -0.512841 0)
(-0.232207 -0.605057 0)
(-0.204557 -0.592428 0)
(-0.215616 -0.434844 0)
(-0.267851 -0.2389 0)
(-0.306642 -0.0972321 0)
(-0.3285 -0.0500484 0)
(-0.345207 -0.358629 0)
(-0.334622 -0.350234 0)
(-0.321547 -0.392736 0)
(-0.283057 -0.621697 0)
(-0.30075 -0.677266 0)
(-0.259811 -0.608149 0)
(-0.312972 -0.291455 0)
(-0.367215 -0.138228 0)
(-0.382077 -0.124596 0)
(-0.377477 -0.0522973 0)
(-0.365081 -0.448533 0)
(-0.331936 -0.396772 0)
(-0.322687 -0.400519 0)
(-0.346108 -0.514833 0)
(-0.401536 -0.709294 0)
(-0.406338 -0.645683 0)
(-0.404133 -0.269242 0)
(-0.399638 -0.155083 0)
(-0.42875 -0.0480578 0)
(-0.464071 0.0318309 0)
(-0.517793 -0.671758 0)
(-0.399029 -0.453284 0)
(-0.364151 -0.397708 0)
(-0.362654 -0.400691 0)
(-0.48921 -0.551995 0)
(-0.540741 -0.495486 0)
(-0.485092 -0.214587 0)
(-0.463762 -0.083513 0)
(-0.453153 0.00110966 0)
(-0.452375 0.0469508 0)
(-0.610757 -0.823742 0)
(-0.529078 -0.697291 0)
(-0.380011 -0.431344 0)
(-0.331537 -0.342871 0)
(-0.349812 -0.33014 0)
(-0.487859 -0.471434 0)
(-0.530035 -0.334127 0)
(-0.483388 -0.15204 0)
(-0.446312 -0.0586268 0)
(-0.399241 0.0354523 0)
(-0.587911 -0.882857 0)
(-0.57186 -0.910543 0)
(-0.45694 -0.847575 0)
(-0.268362 -0.453193 0)
(-0.233777 -0.231257 0)
(-0.216634 -0.175795 0)
(-0.347494 -0.303859 0)
(-0.361091 -0.317176 0)
(-0.37974 -0.196626 0)
(-0.344522 -0.104932 0)
(-0.267708 -0.609288 0)
(-0.461468 -0.966133 0)
(-0.454331 -1.02782 0)
(-0.295636 -0.974853 0)
(-0.136594 -0.584544 0)
(0.00319136 -0.128608 0)
(0.00124571 -0.078955 0)
(-0.07429 -0.142203 0)
(-0.128024 -0.0899708 0)
(-0.170812 -0.0610148 0)
(0.0171954 -0.078399 0)
(-0.137426 -0.454268 0)
(-0.366111 -1.05947 0)
(-0.295931 -1.11348 0)
(-0.224694 -0.978253 0)
(-0.0551357 -0.406264 0)
(0.0491147 -0.039808 0)
(-0.0242703 -0.0615662 0)
(0.00437337 -0.0510403 0)
(0.00850467 -0.0553769 0)
(0.167725 -0.0155758 0)
(0.219865 -0.00287346 0)
(-0.212713 -0.688501 0)
(-0.193331 -1.17962 0)
(-0.17704 -1.11837 0)
(-0.159086 -0.717554 0)
(-0.00367024 -0.088846 0)
(-0.0757623 -0.103616 0)
(-0.0201384 -0.11824 0)
(-0.013698 -0.11954 0)
(0.110295 -0.267118 0)
(0.0748601 0.160683 0)
(-0.171409 -0.516743 0)
(-0.159942 -1.22693 0)
(-0.111742 -1.17126 0)
(-0.130725 -0.864012 0)
(-0.0664923 -0.0781136 0)
(-0.117517 -0.0865419 0)
(-0.112807 -0.114207 0)
(-0.11882 -0.119944 0)
(-0.113108 0.348947 0)
(-0.0275525 0.381209 0)
(-0.153165 0.693134 0)
(-0.090361 -1.21088 0)
(-0.0658786 -1.18617 0)
(-0.0853685 -1.00806 0)
(-0.0671505 -0.0468843 0)
(-0.12497 -0.0459935 0)
(-0.125799 -0.108042 0)
(-0.147548 -0.134037 0)
(-0.268394 0.167424 0)
(-0.271546 0.492542 0)
(-0.120506 -0.681664 0)
(-0.05703 -1.16987 0)
(-0.0227062 -1.17486 0)
(-0.0664272 -1.10385 0)
(0.0160784 0.138775 0)
(-0.0610455 0.0239251 0)
(-0.0821884 -0.0968858 0)
(-0.124694 -0.128087 0)
(-0.206019 0.395926 0)
(-0.167883 0.548495 0)
(0.030319 -0.574868 0)
(0.0146249 -1.16061 0)
(0.000816061 -1.14714 0)
(-0.0441367 -1.13329 0)
(0.0909974 -0.0640377 0)
(0.12168 0.145942 0)
(0.0829574 0.0735387 0)
(0.046466 -0.0417384 0)
(-0.222686 0.00534845 0)
(-0.0215487 -0.0295359 0)
(0.0257302 -0.755572 0)
(-0.00323983 -1.1365 0)
(-0.00922313 -1.12369 0)
(-0.0195117 -1.11963 0)
(0.0544324 -0.750878 0)
(0.138276 0.396634 0)
(-0.0598662 0.0486706 0)
(0.0770941 -0.125146 0)
(-0.119582 -0.206823 0)
(-0.0326189 -0.292732 0)
(0.0188137 -0.745745 0)
(-0.00328627 -1.12414 0)
(0.00384776 -1.10804 0)
(-0.00980359 -1.10053 0)
(-0.0200178 -0.993881 0)
(0.217833 0.711236 0)
(0.0990433 0.118718 0)
(0.0491204 -0.301698 0)
(-0.0218133 -0.232096 0)
(-0.00154852 -0.336616 0)
(0.0152514 -0.758752 0)
(0.0133848 -1.10696 0)
(0.00234657 -1.08986 0)
(-0.00780318 -1.08874 0)
(-0.0146135 -1.07587 0)
(0.050271 0.693189 0)
(-0.0780865 0.0798744 0)
(0.00845446 -0.223534 0)
(0.0128272 -0.259749 0)
(0.0119673 -0.354924 0)
(0.0224324 -0.765018 0)
(0.00772949 -1.08648 0)
(0.00812663 -1.07513 0)
(-0.0057349 -1.07196 0)
(-0.0128905 -1.08007 0)
(0.0380947 0.557257 0)
(0.200566 0.435844 0)
(0.226524 -0.0554383 0)
(0.0357926 -0.252858 0)
(0.0306798 -0.343863 0)
(0.0220458 -0.763469 0)
(0.0149116 -1.07106 0)
(0.00634873 -1.0534 0)
(-0.00517645 -1.05728 0)
(-0.00928507 -1.07124 0)
(0.0196646 -0.105597 0)
(0.329291 0.148248 0)
(0.348854 0.0783439 0)
(0.0407336 -0.242692 0)
(0.0261746 -0.326106 0)
(0.0134052 -0.751555 0)
(0.0040256 -1.05096 0)
(0.00282641 -1.03987 0)
(-0.0101855 -1.03931 0)
(-0.0157798 -1.04858 0)
(-0.0149556 -0.580449 0)
(0.132226 0.0135923 0)
(0.0777715 0.100954 0)
(0.0441963 -0.215327 0)
(0.0314001 -0.300386 0)
(0.010333 -0.725519 0)
(0.00453517 -1.03445 0)
(0.00274316 -1.01956 0)
(-0.00994225 -1.01999 0)
(-0.019004 -1.03641 0)
(-0.0252273 -0.595331 0)
(0.00730628 0.200515 0)
(-0.029697 0.221385 0)
(0.0617671 -0.175901 0)
(0.0445509 -0.25821 0)
(0.032936 -0.696819 0)
(0.0177423 -1.01497 0)
(0.0103464 -1.0031 0)
(-0.00477544 -0.999137 0)
(-0.00565446 -1.01505 0)
(-0.0315847 -0.621227 0)
(0.0419612 0.163506 0)
(0.069666 0.172144 0)
(0.0535185 -0.156077 0)
(0.0381038 -0.230002 0)
(0.0212878 -0.674356 0)
(0.0108334 -0.997086 0)
(0.00519294 -0.976718 0)
(-0.00821708 -0.982587 0)
(-0.018469 -0.9995 0)
(-0.0289215 -0.611645 0)
(-0.01936 -0.101194 0)
(0.049982 0.0544168 0)
(0.0264702 -0.118146 0)
(0.0314709 -0.222261 0)
(0.0283551 -0.6554 0)
(0.015279 -0.978834 0)
(0.00941189 -0.960936 0)
(-0.00827194 -0.956467 0)
(-0.0114532 -0.980717 0)
(-0.0179134 -0.623869 0)
(-0.0223247 -0.0039708 0)
(-0.00187468 -0.0544742 0)
(0.0190556 -0.0936791 0)
(0.039141 -0.259606 0)
(0.0294919 -0.634967 0)
(0.0155614 -0.959169 0)
(0.00655681 -0.933248 0)
(-0.00738676 -0.939442 0)
(-0.0170545 -0.962726 0)
(-0.0198436 -0.688858 0)
(0.0314511 -0.141626 0)
(0.0805593 -0.0863183 0)
(0.00429362 -0.0769549 0)
(0.0396671 -0.275916 0)
(0.018821 -0.582658 0)
(0.0139318 -0.940683 0)
(0.00852891 -0.914735 0)
(-0.00859656 -0.911696 0)
(-0.0143774 -0.942797 0)
(-0.0233254 -0.693568 0)
(-0.00932278 -0.215299 0)
(0.0110837 -0.058701 0)
(0.0296507 -0.178294 0)
(0.0610094 -0.244454 0)
(0.0205057 -0.54435 0)
(0.0163454 -0.918999 0)
(0.00662895 -0.889685 0)
(-0.00777339 -0.894411 0)
(-0.015751 -0.923434 0)
(-0.0223562 -0.686729 0)
(-0.0374023 -0.205701 0)
(-0.0395691 -0.0479249 0)
(0.0141597 -0.30834 0)
(0.0101516 -0.224991 0)
(0.0124 -0.585904 0)
(0.0128928 -0.898943 0)
(0.00597468 -0.86791 0)
(-0.00882934 -0.868523 0)
(-0.0174072 -0.899627 0)
(-0.0272002 -0.67372 0)
(-0.0380925 -0.189581 0)
(-0.0372059 -0.0771902 0)
(-0.000650576 -0.315558 0)
(-0.0261757 -0.206953 0)
(0.0129597 -0.650546 0)
(0.0122343 -0.875478 0)
(0.00401895 -0.84808 0)
(-0.00932904 -0.848707 0)
(-0.0172055 -0.878003 0)
(-0.0307244 -0.667496 0)
(-0.0385379 -0.174616 0)
(-0.0302039 -0.11073 0)
(0.0569266 -0.211341 0)
(0.00313129 -0.214894 0)
(0.0251323 -0.659586 0)
(0.0140033 -0.852519 0)
(0.00502941 -0.825356 0)
(-0.00788027 -0.826727 0)
(-0.0180448 -0.85273 0)
(-0.0322843 -0.667023 0)
(-0.028307 -0.197605 0)
(-0.0127508 -0.119122 0)
(0.103575 -0.0950329 0)
(0.0488515 -0.162869 0)
(0.026316 -0.635438 0)
(0.0154042 -0.827142 0)
(0.00657176 -0.806707 0)
(-0.00593373 -0.803879 0)
(-0.01466 -0.828334 0)
(-0.0231876 -0.663973 0)
(-0.0246591 -0.235328 0)
(0.00011902 -0.0898827 0)
(0.0839791 -0.0511983 0)
(0.0513386 -0.0933454 0)
(0.0256389 -0.611632 0)
(0.0186702 -0.803704 0)
(0.00773561 -0.781753 0)
(-0.00532585 -0.784258 0)
(-0.016215 -0.803815 0)
(-0.024637 -0.612443 0)
(-0.0636544 -0.195512 0)
(-0.0563754 -0.0865851 0)
(0.0680583 -0.00865808 0)
(0.0397499 -0.0420988 0)
(0.0246727 -0.60303 0)
(0.0176988 -0.778523 0)
(0.00801887 -0.760845 0)
(-0.00628011 -0.758663 0)
(-0.0168534 -0.778037 0)
(-0.0246346 -0.592447 0)
(-0.0479109 -0.181631 0)
(-0.0375028 -0.128194 0)
(0.0372905 0.0452031 0)
(0.0347844 -0.0128818 0)
(0.0265274 -0.593074 0)
(0.0205698 -0.754343 0)
(0.00741 -0.734264 0)
(-0.00791616 -0.736596 0)
(-0.0208222 -0.754134 0)
(-0.0280878 -0.579466 0)
(-0.0437696 -0.174759 0)
(-0.0394039 -0.133527 0)
(0.0247196 0.0815179 0)
(0.0384531 -0.0319916 0)
(0.0267048 -0.581187 0)
(0.0180382 -0.728056 0)
(0.00663248 -0.71035 0)
(-0.00836512 -0.709612 0)
(-0.019702 -0.726586 0)
(-0.0293653 -0.55303 0)
(-0.0493485 -0.155598 0)
(-0.040545 -0.132507 0)
(0.0211693 0.0988968 0)
(0.0458527 -0.0436401 0)
(0.0299555 -0.554155 0)
(0.0219019 -0.700373 0)
(0.00647155 -0.681584 0)
(-0.00983688 -0.68413 0)
(-0.0236964 -0.700101 0)
(-0.0311441 -0.540623 0)
(-0.0520146 -0.145721 0)
(-0.051331 -0.142441 0)
(0.0455817 0.0210696 0)
(0.0720081 -0.0247135 0)
(0.0326238 -0.517928 0)
(0.0151809 -0.670335 0)
(0.00254222 -0.657341 0)
(-0.00935985 -0.656435 0)
(-0.02077 -0.669027 0)
(-0.0271362 -0.521019 0)
(-0.0548254 -0.0991829 0)
(-0.0980203 -0.0856559 0)
(-0.0302273 -0.0207442 0)
(0.0105652 -0.0239495 0)
(0.0228728 -0.511731 0)
(0.0138122 -0.636796 0)
(0.00728953 -0.625374 0)
(-0.00499022 -0.625296 0)
(-0.0216611 -0.639352 0)
(-0.0341888 -0.49504 0)
(-0.0475269 -0.0356587 0)
(-0.086125 -0.0143678 0)
(-0.0257636 -0.0241592 0)
(0.0375997 -0.135902 0)
(0.0520665 -0.514711 0)
(0.0383375 -0.617567 0)
(0.0277933 -0.607696 0)
(0.0114852 -0.612869 0)
(-0.00333858 -0.621051 0)
(-0.030027 -0.480661 0)
(0.0159792 0.00597748 0)
(-0.0438257 0.0315603 0)
(0.00224583 -0.0495276 0)
(-0.00181688 -0.177251 0)
(0.026423 -0.540519 0)
(0.00657309 -0.57404 0)
(-0.00874331 -0.565009 0)
(-0.0268776 -0.570982 0)
(-0.0419045 -0.575757 0)
(-0.0703942 -0.514922 0)
(0.0268795 -0.00983326 0)
(-0.0434147 0.0719768 0)
(0.027337 -0.0512411 0)
(0.0354629 -0.184071 0)
(0.0184243 -0.538678 0)
(0.00316898 -0.544014 0)
(-0.0173355 -0.544919 0)
(-0.0320302 -0.543341 0)
(-0.0442857 -0.544965 0)
(-0.0762508 -0.529049 0)
(-0.016118 -0.0451607 0)
(-0.0253707 0.132971 0)
(0.0526059 -0.0397117 0)
(0.0292472 -0.178624 0)
(0.0481759 -0.483043 0)
(0.0389604 -0.509087 0)
(0.0156018 -0.511948 0)
(-0.00190621 -0.509169 0)
(-0.0156917 -0.508876 0)
(-0.053401 -0.497992 0)
(-0.053186 -0.149823 0)
(-0.0332622 0.194203 0)
(0.0735838 -0.0188913 0)
(0.0526217 -0.187551 0)
(0.0617927 -0.456565 0)
(0.025258 -0.461929 0)
(0.00414253 -0.471238 0)
(-0.0192434 -0.467325 0)
(-0.0373115 -0.464324 0)
(-0.0587423 -0.446052 0)
(-0.0580791 -0.158547 0)
(-0.0287248 0.266652 0)
(0.076788 0.00374023 0)
(0.0749276 -0.154477 0)
(0.0702343 -0.395301 0)
(0.0482405 -0.423363 0)
(0.0268446 -0.431308 0)
(0.00625639 -0.433624 0)
(-0.0148263 -0.427079 0)
(-0.0579611 -0.408568 0)
(-0.0656299 -0.251988 0)
(0.00664361 0.272957 0)
(0.00110788 0.00244402 0)
(0.0746513 -0.231223 0)
(0.0673512 -0.363415 0)
(0.028513 -0.377029 0)
(0.00583991 -0.382585 0)
(-0.0218885 -0.381178 0)
(-0.0418608 -0.375279 0)
(-0.0589448 -0.357476 0)
(-0.0711311 -0.313628 0)
(0.0264463 0.196456 0)
(0.0477682 -0.0227006 0)
(0.0786679 -0.268842 0)
(0.0739448 -0.306443 0)
(0.0563506 -0.332368 0)
(0.0336982 -0.334614 0)
(0.00508926 -0.331551 0)
(-0.0177299 -0.328164 0)
(-0.0553579 -0.315544 0)
(-0.0641929 -0.290605 0)
(-0.0918087 -0.126969 0)
(0.104828 -0.158568 0)
(0.0768283 -0.214165 0)
(0.0667388 -0.257905 0)
(0.0280288 -0.279634 0)
(0.00495847 -0.285344 0)
(-0.0245588 -0.286538 0)
(-0.0446514 -0.287936 0)
(-0.0711506 -0.269682 0)
(-0.0743399 -0.230526 0)
(-0.0943358 -0.205634 0)
(0.0621042 -0.112357 0)
(0.0506307 -0.190282 0)
(0.0506769 -0.230818 0)
(0.0294449 -0.239895 0)
(0.0162038 -0.246237 0)
(-0.00355336 -0.249008 0)
(-0.0133502 -0.247207 0)
(-0.0380621 -0.236533 0)
(-0.0488692 -0.199578 0)
(-0.0541766 -0.138072 0)
(-0.0516982 -0.0152451 0)
(-0.0348034 -0.0126941 0)
(-0.0204072 -0.0106859 0)
(-0.00920042 -0.009791 0)
(0.00116771 -0.00739073 0)
(0.00905053 -0.0063205 0)
(0.016766 -0.00543954 0)
(0.0220784 -0.00276934 0)
(0.0261621 -0.000910948 0)
(0.023706 0.00246563 0)
(0.0177948 0.00131858 0)
(0.0111942 0.00428314 0)
(0.00196449 0.0115482 0)
(-0.009704 0.0107903 0)
(-0.016234 0.00956285 0)
(-0.0194055 0.000468343 0)
(-0.0148029 -0.0096505 0)
(-0.0116711 -0.0112398 0)
(-0.0142283 -0.00685149 0)
(-0.0272058 0.00590304 0)
(-0.0483886 0.0210231 0)
(-0.088299 0.0410853 0)
(-0.124856 0.0412377 0)
(-0.143293 0.0136413 0)
(-0.153518 0.00704626 0)
(-0.168712 0.00571121 0)
(-0.173613 -0.00375436 0)
(-0.167596 -0.0121027 0)
(-0.152527 -0.016237 0)
(-0.135056 -0.0199002 0)
(-0.116021 -0.0230038 0)
(-0.0907093 -0.0275318 0)
(-0.061604 -0.0330389 0)
(-0.030081 -0.0390429 0)
(0.0027946 -0.0248082 0)
(0.0297119 -0.0256079 0)
(0.0442173 0.00976203 0)
(0.035096 0.0150892 0)
(0.0230544 0.0208077 0)
(0.00207982 0.0110359 0)
(-0.0718018 -0.0501616 0)
(-0.0511586 -0.0416171 0)
(-0.0332905 -0.036352 0)