/*--------------------------------*- C++ -*----------------------------------*\
  =========                 |
  \\      /  F ield         | OpenFOAM: The Open Source CFD Toolbox
   \\    /   O peration     | Website:  https://openfoam.org
    \\  /    A nd           | Version:  8
     \\/     M anipulation  |
\*---------------------------------------------------------------------------*/
FoamFile
{
    version     2.0;
    format      ascii;
    class       surfaceScalarField;
    location    "1.45";
    object      alphaPhi0.water;
}
// * * * * * * * * * * * * * * * * * * * * * * * * * * * * * * * * * * * * * //

dimensions      [0 3 -1 0 0 0 0];

internalField   nonuniform List<scalar> 
18095
(
1.59022e-07
-9.64916e-07
8.05895e-07
1.65719e-07
-1.24836e-06
1.24166e-06
1.22409e-07
-1.24237e-06
1.28568e-06
6.54224e-08
-1.26364e-06
1.32062e-06
2.95387e-12
-1.28071e-06
1.34613e-06
-6.5417e-08
-1.28071e-06
1.34613e-06
-1.22405e-07
-1.26364e-06
1.32063e-06
-1.65716e-07
-1.24237e-06
1.28568e-06
-1.59021e-07
-1.24836e-06
1.24166e-06
-9.64919e-07
8.05898e-07
1.11169e-07
-1.07609e-06
9.96106e-08
-1.2368e-06
7.30033e-08
-1.21576e-06
4.01103e-08
-1.23075e-06
1.98397e-12
-1.24061e-06
-4.01066e-08
-1.24061e-06
-7.30003e-08
-1.23075e-06
-9.96083e-08
-1.21576e-06
-1.11168e-07
-1.2368e-06
-1.07609e-06
6.73178e-08
-1.1434e-06
5.29081e-08
-1.22239e-06
4.22603e-08
-1.20511e-06
2.39234e-08
-1.21241e-06
1.4094e-12
-1.21668e-06
-2.39208e-08
-1.21668e-06
-4.22583e-08
-1.21241e-06
-5.29066e-08
-1.20512e-06
-6.73168e-08
-1.22239e-06
-1.1434e-06
3.97272e-08
-1.18313e-06
2.67058e-08
-1.20937e-06
2.20848e-08
-1.20049e-06
1.25711e-08
-1.20289e-06
1.06741e-12
-1.20411e-06
-1.25692e-08
-1.20411e-06
-2.20833e-08
-1.2029e-06
-2.67049e-08
-1.20049e-06
-3.97265e-08
-1.20937e-06
-1.18313e-06
1.68695e-08
7.50159e-09
7.00852e-09
4.11382e-09
6.71693e-13
-4.11264e-09
-7.00769e-09
-7.50118e-09
-1.68692e-08
-1.76257e-07
-1.16305e-06
1.33931e-06
-2.20651e-07
-1.21667e-06
1.26107e-06
-1.66178e-07
-1.21311e-06
1.15864e-06
-8.74734e-08
-1.20427e-06
1.12557e-06
3.00426e-11
-1.20284e-06
1.11534e-06
8.7532e-08
-1.20285e-06
1.11534e-06
1.66231e-07
-1.20429e-06
1.12559e-06
2.207e-07
-1.21313e-06
1.15867e-06
1.76301e-07
-1.2167e-06
1.2611e-06
-1.16308e-06
1.33938e-06
-9.26902e-08
-1.07036e-06
-9.56139e-08
-1.21375e-06
-7.94174e-08
-1.22931e-06
-4.43244e-08
-1.23937e-06
1.67713e-11
-1.24718e-06
4.43566e-08
-1.24719e-06
7.9446e-08
-1.23938e-06
9.56367e-08
-1.22932e-06
9.27026e-08
-1.21377e-06
-1.07038e-06
-5.80143e-08
-1.01235e-06
-5.51663e-08
-1.2166e-06
-4.65324e-08
-1.23795e-06
-2.71467e-08
-1.25875e-06
1.0259e-11
-1.27434e-06
2.71663e-08
-1.27434e-06
4.65494e-08
-1.25876e-06
5.51788e-08
-1.23795e-06
5.80205e-08
-1.21661e-06
-1.01236e-06
-7.50271e-08
-9.37323e-07
-6.21599e-08
-1.22946e-06
-4.86196e-08
-1.25149e-06
-2.77631e-08
-1.27961e-06
6.57255e-12
-1.30211e-06
2.77756e-08
-1.30211e-06
4.86305e-08
-1.27961e-06
6.21677e-08
-1.25149e-06
7.50313e-08
-1.22947e-06
-9.37329e-07
-1.31428e-07
-1.19232e-07
-8.5038e-08
-4.40206e-08
4.41095e-12
4.4029e-08
8.5045e-08
1.19237e-07
1.31431e-07
-5.67281e-08
-9.41307e-07
9.98035e-07
-9.78371e-10
-1.33862e-06
1.28287e-06
8.88783e-09
-1.27149e-06
1.26163e-06
4.03717e-09
-1.22532e-06
1.23017e-06
2.55401e-10
-1.2227e-06
1.22648e-06
-3.53111e-09
-1.22272e-06
1.22651e-06
-8.40436e-09
-1.22534e-06
1.23021e-06
1.72295e-09
-1.27148e-06
1.26135e-06
5.7753e-08
-1.33869e-06
1.28266e-06
-9.42342e-07
1.0001e-06
7.66234e-09
-9.48969e-07
1.48349e-08
-1.34579e-06
1.0908e-08
-1.26757e-06
6.10971e-09
-1.22052e-06
2.22591e-10
-1.21681e-06
-5.65416e-09
-1.21684e-06
-1.0466e-08
-1.22052e-06
-1.43778e-08
-1.26757e-06
-7.18443e-09
-1.34588e-06
-9.49527e-07
2.62554e-08
-9.75224e-07
1.81597e-08
-1.33769e-06
9.3516e-09
-1.25876e-06
5.52736e-09
-1.2167e-06
1.33823e-10
-1.21142e-06
-5.2803e-09
-1.21143e-06
-9.08516e-09
-1.21672e-06
-1.78741e-08
-1.25878e-06
-2.59932e-08
-1.33777e-06
-9.7552e-07
7.91739e-08
-1.0544e-06
5.40217e-08
-1.31254e-06
3.48688e-08
-1.23961e-06
2.09814e-08
-1.20281e-06
8.21149e-11
-1.19052e-06
-2.08193e-08
-1.19053e-06
-3.46987e-08
-1.20284e-06
-5.38351e-08
-1.23964e-06
-7.90271e-08
-1.31257e-06
-1.05455e-06
2.84914e-07
2.3344e-07
1.52476e-07
7.52346e-08
5.09918e-11
-7.51337e-08
-1.52386e-07
-2.33363e-07
-2.84837e-07
-2.1442e-07
-7.5025e-08
2.89445e-07
-1.38247e-07
-7.61743e-08
-6.13463e-08
-7.69004e-08
1.58942e-08
-7.72405e-08
9.32609e-08
-7.73667e-08
1.7047e-07
-7.72092e-08
2.47028e-07
-7.6558e-08
3.22455e-07
-7.54269e-08
3.9626e-07
-7.38053e-08
-7.16299e-08
4.6789e-07
-1.86087e-07
-1.37597e-07
2.48659e-07
-1.22358e-07
-1.39904e-07
-5.77735e-08
-1.41485e-07
7.34408e-09
-1.42358e-07
7.24943e-08
-1.42517e-07
1.37209e-07
-1.41924e-07
2.01169e-07
-1.40518e-07
2.63985e-07
-1.38243e-07
3.25218e-07
-1.35039e-07
-1.3082e-07
3.84408e-07
-1.64512e-07
-1.91215e-07
2.18127e-07
-1.09932e-07
-1.94484e-07
-5.46691e-08
-1.96748e-07
9.69206e-10
-1.97997e-07
5.66558e-08
-1.98204e-07
1.12058e-07
-1.97327e-07
1.66847e-07
-1.95306e-07
2.2067e-07
-1.92066e-07
2.73145e-07
-1.87514e-07
-1.81555e-07
3.2388e-07
-1.48269e-07
-2.37708e-07
1.94761e-07
-1.00924e-07
-2.41828e-07
-5.29915e-08
-2.44681e-07
-4.73101e-09
-2.46257e-07
4.35942e-08
-2.46529e-07
9.17142e-08
-2.45447e-07
1.39345e-07
-2.42938e-07
1.86185e-07
-2.38905e-07
2.31904e-07
-2.33233e-07
-2.25791e-07
2.7614e-07
-1.35169e-07
-2.78104e-07
1.75565e-07
-9.40109e-08
-2.82986e-07
-5.23225e-08
-2.86369e-07
-1.03278e-08
-2.88252e-07
3.17515e-08
-2.88608e-07
7.36902e-08
-2.87385e-07
1.15253e-07
-2.845e-07
1.56185e-07
-2.79837e-07
1.96204e-07
-2.73243e-07
-2.64568e-07
2.34987e-07
-1.24432e-07
-3.13168e-07
1.59496e-07
-8.86997e-08
-3.18718e-07
-5.25033e-08
-3.22565e-07
-1.60346e-08
-3.2472e-07
2.0521e-08
-3.25164e-07
5.69782e-08
-3.23843e-07
9.31453e-08
-3.20667e-07
1.28808e-07
-3.15494e-07
1.63739e-07
-3.08165e-07
-2.98469e-07
1.97651e-07
-1.15489e-07
-3.43519e-07
1.4584e-07
-8.457e-08
-3.49637e-07
-5.32672e-08
-3.53868e-07
-2.1748e-08
-3.5624e-07
9.82904e-09
-3.56741e-07
4.13085e-08
-3.55322e-07
7.25304e-08
-3.51889e-07
1.03314e-07
-3.46277e-07
1.33459e-07
-3.38313e-07
-3.27707e-07
1.62702e-07
-1.07848e-07
-3.69741e-07
1.34069e-07
-8.11585e-08
-3.76326e-07
-5.41688e-08
-3.80858e-07
-2.70292e-08
-3.83379e-07
1.20825e-10
-3.83891e-07
2.71464e-08
-3.82348e-07
5.39101e-08
-3.78653e-07
8.02567e-08
-3.72628e-07
1.06023e-07
-3.64082e-07
-3.52661e-07
1.30973e-07
-1.01181e-07
-3.92503e-07
1.23943e-07
-7.80425e-08
-3.99465e-07
-5.46736e-08
-4.04227e-07
-3.12012e-08
-4.06852e-07
-7.73844e-09
-4.07354e-07
1.56112e-08
-4.05697e-07
3.87515e-08
-4.01793e-07
6.15922e-08
-3.95491e-07
8.40567e-08
-3.86563e-07
-3.74649e-07
1.06043e-07
-9.54667e-08
-4.12649e-07
1.15613e-07
-7.5045e-08
-4.19886e-07
-5.44465e-08
-4.24825e-07
-3.37537e-08
-4.27545e-07
-1.30323e-08
-4.28075e-07
7.66953e-09
-4.26399e-07
2.8329e-08
-4.22453e-07
4.89617e-08
-4.16123e-07
6.96137e-08
-4.07216e-07
-3.95344e-07
9.03081e-08
-9.09976e-08
-4.31175e-07
1.09524e-07
-7.23374e-08
-4.38546e-07
-5.35585e-08
-4.43604e-07
-3.46704e-08
-4.46432e-07
-1.56664e-08
-4.47078e-07
3.48686e-09
-4.45552e-07
2.2864e-08
-4.41829e-07
4.25841e-08
-4.35844e-07
6.27912e-08
-4.27423e-07
-4.16035e-07
8.34827e-08
-8.81993e-08
-4.49089e-07
1.06113e-07
-7.03615e-08
-4.56384e-07
-5.25064e-08
-4.61459e-07
-3.45526e-08
-4.64386e-07
-1.64101e-08
-4.65218e-07
2.04109e-09
-4.63991e-07
2.09703e-08
-4.60757e-07
4.05948e-08
-4.55468e-07
6.11572e-08
-4.47985e-07
-4.36429e-07
8.15474e-08
-8.72237e-08
-4.67174e-07
1.0531e-07
-6.94598e-08
-4.74148e-07
-5.18406e-08
-4.79078e-07
-3.42019e-08
-4.82021e-07
-1.63789e-08
-4.83037e-07
1.81437e-09
-4.82171e-07
2.06041e-08
-4.79547e-07
4.02665e-08
-4.7513e-07
6.11683e-08
-4.68886e-07
-4.52093e-07
7.68397e-08
-8.74589e-08
-4.85771e-07
1.06055e-07
-6.94008e-08
-4.92206e-07
-5.16521e-08
-4.96827e-07
-3.39983e-08
-4.9967e-07
-1.62282e-08
-5.00794e-07
1.88321e-09
-5.00282e-07
2.06012e-08
-4.98263e-07
4.02379e-08
-4.94765e-07
6.10756e-08
-4.89718e-07
-4.4527e-07
6.24618e-08
-8.79999e-08
-5.04736e-07
1.06965e-07
-6.96397e-08
-5.10566e-07
-5.16889e-08
-5.14778e-07
-3.39477e-08
-5.17408e-07
-1.62119e-08
-5.18524e-07
1.73976e-09
-5.18235e-07
2.01681e-08
-5.16622e-07
3.94243e-08
-5.14012e-07
5.92933e-08
-5.09556e-07
-3.91132e-07
3.9139e-08
-8.82754e-08
-5.24009e-07
1.07548e-07
-6.96191e-08
-5.29223e-07
-5.14432e-08
-5.32954e-07
-3.35875e-08
-5.35267e-07
-1.58905e-08
-5.3622e-07
1.82342e-09
-5.35961e-07
1.97389e-08
-5.34351e-07
3.81521e-08
-5.32386e-07
5.50765e-08
-5.26315e-07
-3.75865e-07
2.35761e-08
-8.70713e-08
-5.43419e-07
1.06482e-07
-6.82221e-08
-5.48072e-07
-4.97919e-08
-5.51384e-07
-3.16387e-08
-5.53425e-07
-1.36285e-08
-5.54246e-07
4.35934e-09
-5.53955e-07
2.23862e-08
-5.52536e-07
4.04252e-08
-5.50239e-07
5.32858e-08
-5.38446e-07
-3.8013e-07
2.15923e-08
-8.47153e-08
-5.62862e-07
1.04158e-07
-6.57124e-08
-5.67075e-07
-4.69667e-08
-5.70129e-07
-2.83504e-08
-5.72042e-07
-9.75889e-09
-5.72848e-07
8.86332e-09
-5.72582e-07
2.73802e-08
-5.713e-07
4.45113e-08
-5.63318e-07
5.25036e-08
-5.43262e-07
-4.14846e-07
3.06532e-08
-8.30944e-08
-5.82446e-07
1.02679e-07
-6.38705e-08
-5.86298e-07
-4.49165e-08
-5.89083e-07
-2.61477e-08
-5.90811e-07
-7.51404e-09
-5.91482e-07
1.09694e-08
-5.91072e-07
2.91057e-08
-5.8944e-07
3.94433e-08
-5.46952e-07
3.88034e-08
-4.0648e-07
-5.13148e-07
3.85476e-08
-8.19364e-08
-6.02114e-07
1.01606e-07
-6.27096e-08
-6.05525e-07
-4.39339e-08
-6.07859e-07
-2.55442e-08
-6.092e-07
-7.49908e-09
-6.09516e-07
1.02093e-08
-6.08777e-07
2.75281e-08
-6.0676e-07
2.75607e-08
-5.15998e-07
2.60316e-08
-3.2748e-07
-3.90261e-07
4.82729e-08
-8.00296e-08
-6.21701e-07
9.96231e-08
-6.11425e-08
-6.24412e-07
-4.29315e-08
-6.2607e-07
-2.52583e-08
-6.26873e-07
-8.01078e-09
-6.26757e-07
8.92404e-09
-6.25703e-07
2.55862e-08
-6.23419e-07
3.06088e-08
-5.24002e-07
1.8289e-08
-3.1934e-07
-3.08589e-07
4.38997e-08
-7.75058e-08
-6.40653e-07
9.64894e-08
-5.91401e-08
-6.42779e-07
-4.16375e-08
-6.43573e-07
-2.47691e-08
-6.43742e-07
-8.34164e-09
-6.43181e-07
7.83989e-09
-6.41743e-07
2.35718e-08
-6.39113e-07
2.6958e-08
-5.65993e-07
2.97584e-08
-3.26065e-07
-3.20389e-07
3.76335e-08
-7.33984e-08
-6.56585e-07
8.94593e-08
-5.63459e-08
-6.59835e-07
-3.98657e-08
-6.60053e-07
-2.38914e-08
-6.59716e-07
-8.25883e-09
-6.58812e-07
7.18641e-09
-6.56929e-07
2.19455e-08
-6.53727e-07
2.61321e-08
-6.16103e-07
2.7831e-08
-3.36502e-07
-3.1814e-07
2.73065e-08
-6.88338e-08
-6.68829e-07
8.15995e-08
-5.3767e-08
-6.74922e-07
-3.84156e-08
-6.75404e-07
-2.32399e-08
-6.74892e-07
-8.22624e-09
-6.73828e-07
6.63074e-09
-6.71772e-07
2.07858e-08
-6.65245e-07
2.74512e-08
-6.43258e-07
2.05925e-08
-4.7987e-07
-3.34869e-07
1.89123e-08
-6.56851e-08
-6.77166e-07
7.64324e-08
-5.26276e-08
-6.87613e-07
-3.81281e-08
-6.89905e-07
-2.34672e-08
-6.89553e-07
-8.7706e-09
-6.8853e-07
5.80993e-09
-6.86413e-07
1.90913e-08
-6.63416e-07
2.84887e-08
-6.53696e-07
2.91088e-08
-5.72928e-07
-5.40539e-07
3.38526e-08
-6.07457e-08
-5.38625e-07
6.87671e-08
-5.28126e-08
-6.83292e-07
-3.91953e-08
-7.03522e-07
-2.52484e-08
-7.03501e-07
-1.11583e-08
-7.02627e-07
2.87827e-09
-7.00525e-07
1.41909e-08
-6.66544e-07
2.25798e-08
-5.34068e-07
3.54226e-08
-4.94122e-07
-5.4516e-07
4.35048e-08
-5.56923e-08
-4.9195e-07
5.9596e-08
-5.45353e-08
-6.11233e-07
-4.19591e-08
-7.16099e-07
-2.9123e-08
-7.16337e-07
-1.61609e-08
-7.15594e-07
-3.12448e-09
-7.13776e-07
7.81477e-09
-6.77967e-07
1.37039e-08
-4.58981e-07
2.65834e-08
-4.66859e-07
-5.81209e-07
3.64218e-08
-5.4505e-08
-4.96471e-07
5.72444e-08
-5.86116e-08
-5.39434e-07
-4.6825e-08
-7.27885e-07
-3.49891e-08
-7.28173e-07
-2.31461e-08
-7.27438e-07
-1.11834e-08
-7.25877e-07
8.1496e-10
-6.96951e-07
6.52035e-09
-4.34145e-07
1.81543e-08
-4.34387e-07
-6.00119e-07
2.71041e-08
-5.33982e-08
-5.04711e-07
5.97818e-08
-6.3558e-08
-5.19179e-07
-5.30027e-08
-7.3844e-07
-4.20634e-08
-7.39112e-07
-3.11679e-08
-7.38334e-07
-2.0107e-08
-7.36959e-07
-7.88009e-09
-7.26428e-07
1.94871e-09
-5.82402e-07
9.21719e-09
-4.26095e-07
-4.69441e-07
1.46865e-08
-5.62978e-08
-5.12968e-07
6.26995e-08
-6.75422e-08
-5.25326e-07
-5.97739e-08
-7.46205e-07
-4.97669e-08
-7.49119e-07
-3.97789e-08
-7.48322e-07
-2.96997e-08
-7.47041e-07
-1.96189e-08
-7.43861e-07
-7.44688e-09
-6.9707e-07
7.80738e-10
-4.14962e-07
-4.05387e-07
4.37857e-09
-6.08587e-08
-5.20421e-07
6.60716e-08
-6.70422e-08
-5.67072e-07
-6.70929e-08
-7.54861e-07
-5.82031e-08
-7.58009e-07
-4.93133e-08
-7.57212e-07
-4.03892e-08
-7.55965e-07
-3.14532e-08
-7.53889e-07
-1.89104e-08
-7.27044e-07
-6.93433e-09
-5.01809e-07
-4.08025e-07
-1.88646e-09
-6.61181e-08
-5.26352e-07
6.90655e-08
-7.31751e-08
-5.88182e-07
-7.47074e-08
-7.63519e-07
-6.70382e-08
-7.65678e-07
-5.93081e-08
-7.64942e-07
-5.15018e-08
-7.63771e-07
-4.36098e-08
-7.61846e-07
-3.44011e-08
-7.40115e-07
-2.2437e-08
-5.69898e-07
-4.30436e-07
-1.37707e-08
-7.02392e-08
-5.301e-07
7.06185e-08
-7.89626e-08
-5.87965e-07
-8.22313e-08
-7.68742e-07
-7.58293e-08
-7.72081e-07
-6.93068e-08
-7.71465e-07
-6.26487e-08
-7.70429e-07
-5.5836e-08
-7.68663e-07
-4.75692e-08
-7.48959e-07
-3.75814e-08
-5.86194e-07
-4.47849e-07
-2.57218e-08
-6.924e-08
-5.35764e-07
7.15764e-08
-8.1168e-08
-5.54864e-07
-8.91774e-08
-7.64257e-07
-8.40412e-08
-7.77217e-07
-7.87366e-08
-7.76769e-07
-7.32341e-08
-7.75932e-07
-6.74759e-08
-7.74426e-07
-5.88341e-08
-7.57348e-07
-4.8275e-08
-5.6404e-07
-4.17084e-07
-3.97667e-08
-6.92329e-08
-5.45412e-07
7.50575e-08
-8.12314e-08
-5.47978e-07
-9.49478e-08
-7.56584e-07
-9.10827e-08
-7.81082e-07
-8.69941e-08
-7.80858e-07
-8.26375e-08
-7.80289e-07
-7.78595e-08
-7.7921e-07
-6.77117e-08
-7.70767e-07
-5.34747e-08
-5.81436e-07
-4.06966e-07
-5.52679e-08
-6.57945e-08
-5.61788e-07
7.58069e-08
-8.10128e-08
-5.47771e-07
-9.91901e-08
-7.50724e-07
-9.6588e-08
-7.83684e-07
-9.36904e-08
-7.83756e-07
-9.04673e-08
-7.83512e-07
-8.68001e-08
-7.82884e-07
-8.12971e-08
-7.80379e-07
-6.78428e-08
-7.00521e-07
-6.0664e-07
-7.02884e-08
-5.3516e-08
-6.23108e-07
7.90651e-08
-7.78903e-08
-5.36751e-07
-1.01861e-07
-7.36819e-07
-1.00429e-07
-7.85117e-07
-9.86418e-08
-7.85543e-07
-9.65073e-08
-7.85647e-07
-9.40235e-08
-7.8537e-07
-9.10965e-08
-7.83863e-07
-8.73011e-08
-7.47174e-07
-6.90493e-07
-8.48006e-08
-7.36109e-08
-6.28152e-07
7.9469e-08
-8.4823e-08
-5.30614e-07
-1.03045e-07
-7.17987e-07
-1.0254e-07
-7.85622e-07
-1.01711e-07
-7.86372e-07
-1.00572e-07
-7.86786e-07
-9.91467e-08
-7.86795e-07
-9.74681e-08
-7.85501e-07
-9.33066e-08
-7.48578e-07
-6.29413e-07
-9.12123e-08
-7.10124e-08
-6.29831e-07
7.37331e-08
-8.23395e-08
-5.24078e-07
-1.012e-07
-6.91797e-07
-1.01807e-07
-7.85015e-07
-1.02072e-07
-7.86107e-07
-1.02032e-07
-7.86827e-07
-1.01707e-07
-7.8712e-07
-1.01052e-07
-7.86151e-07
-8.7895e-08
-7.45639e-07
-5.636e-07
-9.03125e-08
-6.57633e-08
-6.27782e-07
6.41782e-08
-7.5079e-08
-5.19294e-07
-9.61467e-08
-6.76552e-07
-9.79818e-08
-7.8318e-07
-9.94508e-08
-7.84638e-07
-1.00608e-07
-7.8567e-07
-1.01475e-07
-7.86253e-07
-1.0171e-07
-7.8592e-07
-7.92154e-08
-7.60976e-07
-5.69874e-07
-7.64168e-08
-5.77569e-08
-6.24101e-07
5.5182e-08
-6.69409e-08
-5.14313e-07
-8.80857e-08
-6.79216e-07
-9.11373e-08
-7.80128e-07
-9.38199e-08
-7.81955e-07
-9.62015e-08
-7.83288e-07
-9.83196e-08
-7.84135e-07
-9.98977e-08
-7.84352e-07
-9.16404e-08
-7.79175e-07
-6.29449e-07
-8.21408e-08
-4.71632e-08
-5.76868e-07
4.06615e-08
-5.61607e-08
-5.09334e-07
-7.7106e-08
-7.15016e-07
-8.13248e-08
-7.75909e-07
-8.5211e-08
-7.78069e-07
-8.8831e-08
-7.79668e-07
-9.2233e-08
-7.80733e-07
-9.53809e-08
-7.81207e-07
-9.81891e-08
-7.78877e-07
-6.68766e-07
-8.80538e-08
-2.3805e-08
-4.93968e-07
2.28065e-08
-4.13805e-08
-4.97728e-07
-6.30654e-08
-7.22456e-07
-6.84948e-08
-7.7048e-07
-7.36108e-08
-7.72953e-07
-7.84714e-08
-7.74808e-07
-8.3127e-08
-7.76078e-07
-8.75906e-08
-7.76745e-07
-9.1324e-08
-7.75243e-07
-6.79808e-07
-8.39187e-08
-2.02347e-08
-4.85349e-07
1.06856e-08
-2.90913e-08
-4.89641e-07
-4.65505e-08
-7.16318e-07
-5.3164e-08
-7.63866e-07
-5.94718e-08
-7.66645e-07
-6.55336e-08
-7.68746e-07
-7.14022e-08
-7.70209e-07
-7.71025e-08
-7.71045e-07
-8.20535e-08
-7.7031e-07
-6.93331e-07
-7.27416e-08
-7.178e-09
-4.80126e-07
1.07011e-09
-1.54479e-08
-4.82216e-07
-2.81024e-08
-7.10008e-07
-3.59722e-08
-7.55996e-07
-4.35343e-08
-7.59082e-07
-5.08886e-08
-7.61392e-07
-5.81024e-08
-7.62996e-07
-6.52315e-08
-7.63916e-07
-7.178e-08
-7.63776e-07
-7.25648e-07
-6.48639e-08
9.57897e-09
-4.69785e-07
-2.10113e-08
9.08176e-10
-4.75161e-07
-8.20986e-09
-7.11654e-07
-1.7488e-08
-7.46718e-07
-2.63977e-08
-7.50172e-07
-3.51518e-08
-7.52638e-07
-4.38413e-08
-7.54306e-07
-5.25576e-08
-7.552e-07
-6.11181e-08
-7.55222e-07
-7.44322e-07
-6.06038e-08
2.77457e-08
-4.5949e-07
-3.97075e-08
1.915e-08
-4.90941e-07
1.21013e-08
-7.16392e-07
1.64039e-09
-7.3628e-07
-8.58794e-09
-7.39945e-07
-1.87e-08
-7.42526e-07
-2.88016e-08
-7.44205e-07
-3.89904e-08
-7.45011e-07
-4.92689e-08
-7.44945e-07
-7.42793e-07
-5.87473e-08
3.87933e-08
-4.34593e-07
-6.63811e-08
4.05593e-08
-5.4757e-07
3.16073e-08
-7.15156e-07
2.0318e-08
-7.2499e-07
9.09865e-09
-7.28726e-07
-2.09246e-09
-7.31335e-07
-1.33375e-08
-7.3296e-07
-2.47074e-08
-7.33642e-07
-3.62287e-08
-7.33424e-07
-7.32058e-07
-4.77994e-08
5.82195e-08
-4.13149e-07
-8.35844e-08
6.16618e-08
-5.86086e-07
5.01815e-08
-7.06345e-07
3.83294e-08
-7.1314e-07
2.64325e-08
-7.16829e-07
1.44691e-08
-7.19372e-07
2.39338e-09
-7.20884e-07
-9.83054e-09
-7.21418e-07
-2.222e-08
-7.21035e-07
-7.19677e-07
-3.46543e-08
8.00382e-08
-4.83081e-07
-9.58354e-08
8.04975e-08
-6.20938e-07
6.83964e-08
-6.94646e-07
5.59163e-08
-7.00661e-07
4.3331e-08
-7.04244e-07
3.06094e-08
-7.0665e-07
1.77134e-08
-7.07988e-07
4.60399e-09
-7.08308e-07
-8.7718e-09
-7.07659e-07
-7.06052e-07
-2.24002e-08
1.06379e-07
-5.4629e-07
-1.20426e-07
9.94945e-08
-6.39324e-07
8.64876e-08
-6.81688e-07
7.3049e-08
-6.8723e-07
5.9513e-08
-6.90708e-07
4.58217e-08
-6.92959e-07
3.18933e-08
-6.9406e-07
1.76369e-08
-6.94052e-07
2.95163e-09
-6.92974e-07
-6.90865e-07
-1.22354e-08
1.24255e-07
-5.31521e-07
-1.393e-07
1.16221e-07
-6.38741e-07
1.02426e-07
-6.67911e-07
8.83165e-08
-6.73121e-07
7.4065e-08
-6.76456e-07
5.96025e-08
-6.78496e-07
4.48307e-08
-6.79288e-07
2.96373e-08
-6.78858e-07
1.39124e-08
-6.77249e-07
-6.74524e-07
-2.42792e-09
1.31131e-07
-5.14385e-07
-1.38175e-07
1.29041e-07
-6.37566e-07
1.15151e-07
-6.54031e-07
1.00891e-07
-6.58862e-07
8.64466e-08
-6.62012e-07
7.1753e-08
-6.63803e-07
5.67183e-08
-6.64253e-07
4.12392e-08
-6.63379e-07
2.52043e-08
-6.61214e-07
-6.57823e-07
8.50331e-09
1.49034e-07
-5.6037e-07
-1.49394e-07
1.39042e-07
-6.32054e-07
1.25056e-07
-6.40054e-07
1.10841e-07
-6.44648e-07
9.65251e-08
-6.47696e-07
8.20225e-08
-6.493e-07
6.72312e-08
-6.49462e-07
5.20374e-08
-6.48185e-07
3.63073e-08
-6.45484e-07
-6.41384e-07
1.98679e-08
1.58364e-07
-5.85021e-07
-1.57038e-07
1.4527e-07
-6.19161e-07
1.31307e-07
-6.26096e-07
1.17379e-07
-6.3072e-07
1.03446e-07
-6.33763e-07
8.93961e-08
-6.3525e-07
7.50966e-08
-6.35162e-07
6.03929e-08
-6.33482e-07
4.51002e-08
-6.30191e-07
-6.25278e-07
2.89938e-08
1.59044e-07
-5.93449e-07
-1.59702e-07
1.46075e-07
-6.06226e-07
1.32751e-07
-6.12774e-07
1.19529e-07
-6.17497e-07
1.06335e-07
-6.20569e-07
9.30481e-08
-6.21963e-07
7.95197e-08
-6.21634e-07
6.55698e-08
-6.19532e-07
5.09844e-08
-6.15606e-07
-6.09812e-07
3.55183e-08
1.54113e-07
-5.84639e-07
-1.66355e-07
1.41717e-07
-5.93842e-07
1.29403e-07
-6.0046e-07
1.17242e-07
-6.05336e-07
1.05151e-07
-6.08478e-07
9.30256e-08
-6.09838e-07
8.07471e-08
-6.09355e-07
6.81743e-08
-6.06959e-07
5.51393e-08
-6.02571e-07
-5.96108e-07
4.14357e-08
1.43856e-07
-5.73841e-07
-1.54653e-07
1.32656e-07
-5.82644e-07
1.21626e-07
-5.89431e-07
1.10743e-07
-5.94453e-07
9.99542e-08
-5.97689e-07
8.92038e-08
-5.99088e-07
7.84334e-08
-5.98585e-07
6.75771e-08
-5.96103e-07
5.65518e-08
-5.91546e-07
-5.84793e-07
4.52372e-08
1.29129e-07
-5.64319e-07
-1.38656e-07
1.19443e-07
-5.72957e-07
1.09811e-07
-5.79799e-07
1.00213e-07
-5.84856e-07
9.0626e-08
-5.88102e-07
8.10298e-08
-5.89491e-07
7.14038e-08
-5.88959e-07
6.17185e-08
-5.86417e-07
5.19212e-08
-5.81748e-07
-5.74793e-07
4.19209e-08
1.12226e-07
-5.5607e-07
-1.20476e-07
1.03884e-07
-5.64616e-07
9.54387e-08
-5.71353e-07
8.68734e-08
-5.76291e-07
7.81836e-08
-5.79412e-07
6.93693e-08
-5.80677e-07
6.04307e-08
-5.8002e-07
5.136e-08
-5.77347e-07
4.21357e-08
-5.72524e-07
-5.65378e-07
3.27204e-08
9.48163e-08
-5.49092e-07
-1.01794e-07
8.7557e-08
-5.57357e-07
8.00194e-08
-5.63816e-07
7.2211e-08
-5.68482e-07
6.41479e-08
-5.71349e-07
5.58509e-08
-5.7238e-07
4.73445e-08
-5.71514e-07
3.86532e-08
-5.68655e-07
2.98045e-08
-5.63675e-07
-5.56405e-07
2.08321e-08
7.83358e-08
-5.42943e-07
-8.4485e-08
7.1787e-08
-5.50808e-07
6.48475e-08
-5.56876e-07
5.75356e-08
-5.6117e-07
4.98747e-08
-5.63688e-07
4.18929e-08
-5.64398e-07
3.36208e-08
-5.63242e-07
2.50923e-08
-5.60127e-07
1.6346e-08
-5.54929e-07
-5.47487e-07
7.42744e-09
6.35213e-08
-5.37261e-07
-6.92037e-08
5.73946e-08
-5.44681e-07
5.08433e-08
-5.50325e-07
4.38874e-08
-5.54214e-07
3.65485e-08
-5.56349e-07
2.88505e-08
-5.567e-07
2.08198e-08
-5.55211e-07
1.24889e-08
-5.51796e-07
3.89679e-09
-5.46337e-07
-5.38684e-07
-4.906e-09
5.0453e-08
-5.31786e-07
-5.59281e-08
4.46169e-08
-5.38845e-07
3.84205e-08
-5.44128e-07
3.18691e-08
-5.47663e-07
2.49717e-08
-5.49451e-07
1.77428e-08
-5.49471e-07
1.02043e-08
-5.47673e-07
2.39024e-09
-5.43982e-07
-5.65146e-09
-5.38295e-07
-5.30484e-07
-1.38513e-08
3.83311e-08
-5.26762e-07
-4.33546e-08
3.30203e-08
-5.33534e-07
2.7423e-08
-5.38531e-07
2.1539e-08
-5.41779e-07
1.53707e-08
-5.43283e-07
8.92566e-09
-5.43026e-07
2.22227e-09
-5.40969e-07
-4.70838e-09
-5.37051e-07
-1.18151e-08
-5.31189e-07
-5.23278e-07
-1.90216e-08
2.67572e-08
-5.22516e-07
-3.10027e-08
2.23123e-08
-5.2909e-07
1.76664e-08
-5.33885e-07
1.28139e-08
-5.36926e-07
7.75149e-09
-5.3822e-07
2.48034e-09
-5.37755e-07
-2.98677e-09
-5.35502e-07
-8.62293e-09
-5.31415e-07
-1.438e-08
-5.25431e-07
-5.17473e-07
-2.01845e-08
1.52128e-08
-5.19538e-07
-1.81913e-08
1.20997e-08
-5.25977e-07
8.85136e-09
-5.30637e-07
5.46323e-09
-5.33538e-07
1.93056e-09
-5.34688e-07
-1.74498e-09
-5.34079e-07
-5.55394e-09
-5.31693e-07
-9.47165e-09
-5.27497e-07
-1.34546e-08
-5.21448e-07
-5.13491e-07
-1.74368e-08
3.54441e-09
-5.18314e-07
-4.76863e-09
2.21723e-09
-5.24649e-07
7.94271e-10
-5.29214e-07
-7.23048e-10
-5.32021e-07
-2.33503e-09
-5.33076e-07
-4.0376e-09
-5.32377e-07
-5.81951e-09
-5.29911e-07
-7.65655e-09
-5.2566e-07
-9.50851e-09
-5.19596e-07
-5.11685e-07
-1.13149e-08
-8.09276e-09
-5.19184e-07
8.96338e-09
-7.29668e-09
-5.25445e-07
-6.56562e-09
-5.29945e-07
-5.89577e-09
-5.32691e-07
-5.28337e-09
-5.33688e-07
-4.7233e-09
-5.32937e-07
-4.20336e-09
-5.30431e-07
-3.70253e-09
-5.26161e-07
-3.18656e-09
-5.20112e-07
-5.12265e-07
-2.6058e-09
-1.953e-08
-5.224e-07
2.27455e-08
-1.63687e-08
-5.28607e-07
-1.32512e-08
-5.33062e-07
-1.01717e-08
-5.3577e-07
-7.12505e-09
-5.36735e-07
-4.10418e-09
-5.35958e-07
-1.097e-09
-5.33438e-07
1.91443e-09
-5.29172e-07
4.95771e-09
-5.23156e-07
-5.1538e-07
8.07211e-09
-3.06461e-08
-5.2815e-07
3.63967e-08
-2.49473e-08
-5.34306e-07
-1.92869e-08
-5.38723e-07
-1.36536e-08
-5.41404e-07
-8.03911e-09
-5.42349e-07
-2.43408e-09
-5.41563e-07
3.17394e-09
-5.39046e-07
8.8026e-09
-5.34801e-07
1.44768e-08
-5.2883e-07
-5.21134e-07
2.02309e-08
-4.12334e-08
-5.36509e-07
4.95921e-08
-3.29315e-08
-5.42608e-07
-2.46646e-08
-5.4699e-07
-1.64183e-08
-5.4965e-07
-8.18099e-09
-5.50586e-07
5.74474e-11
-5.49801e-07
8.30906e-09
-5.47297e-07
1.6591e-08
-5.43083e-07
2.49273e-08
-5.37166e-07
-5.29559e-07
3.33522e-08
-5.11082e-08
-5.47386e-07
6.19855e-08
-4.02543e-08
-5.53462e-07
-2.94051e-08
-5.57839e-07
-1.85521e-08
-5.60503e-07
-7.69107e-09
-5.61448e-07
3.1783e-09
-5.60671e-07
1.40584e-08
-5.58178e-07
2.49563e-08
-5.53981e-07
3.58867e-08
-5.48096e-07
-5.40547e-07
4.68753e-08
-6.04487e-08
-5.60646e-07
7.37086e-08
-4.71129e-08
-5.66798e-07
-3.37018e-08
-5.7125e-07
-2.02275e-08
-5.73977e-07
-6.71249e-09
-5.74963e-07
6.81838e-09
-5.74201e-07
2.034e-08
-5.71699e-07
3.38333e-08
-5.67474e-07
4.72901e-08
-5.61553e-07
-5.53973e-07
6.07152e-08
-7.00079e-08
-5.76297e-07
8.56588e-08
-5.41128e-08
-5.82693e-07
-3.80073e-08
-5.87356e-07
-2.17431e-08
-5.90241e-07
-5.38712e-09
-5.91319e-07
1.09895e-08
-5.90578e-07
2.73165e-08
-5.88026e-07
4.35325e-08
-5.8369e-07
5.95923e-08
-5.77613e-07
-5.69852e-07
7.54721e-08
-8.09878e-08
-5.94604e-07
9.92945e-08
-6.21934e-08
-6.01487e-07
-4.29967e-08
-6.06552e-07
-2.35108e-08
-6.09727e-07
-3.86673e-09
-6.10963e-07
1.57961e-08
-6.10241e-07
3.53405e-08
-6.07571e-07
5.46406e-08
-6.0299e-07
7.35919e-08
-5.96564e-07
-5.8838e-07
9.21197e-08
-9.48438e-08
-6.16193e-07
1.16433e-07
-7.2462e-08
-6.23869e-07
-4.94411e-08
-6.29573e-07
-2.59705e-08
-6.33198e-07
-2.26468e-09
-6.34669e-07
2.14517e-08
-6.33958e-07
4.49566e-08
-6.31076e-07
6.80433e-08
-6.26077e-07
9.0533e-08
-6.19054e-07
-6.10134e-07
1.12286e-07
-1.12562e-07
-6.41839e-07
1.38209e-07
-8.57083e-08
-6.50723e-07
-5.79076e-08
-6.57374e-07
-2.94589e-08
-6.61646e-07
-6.82003e-10
-6.63446e-07
2.80947e-08
-6.62734e-07
5.65471e-08
-6.59528e-07
8.43681e-08
-6.53898e-07
1.11279e-07
-6.45965e-07
-6.35898e-07
1.37043e-07
-1.34842e-07
-6.72591e-07
1.65594e-07
-1.02426e-07
-6.83139e-07
-6.87387e-08
-6.91062e-07
-3.42014e-08
-6.96184e-07
7.55675e-10
-6.98403e-07
3.57004e-08
-6.97679e-07
7.02076e-08
-6.94036e-07
1.03867e-07
-6.87557e-07
1.3629e-07
-6.78388e-07
-6.66729e-07
1.67121e-07
-1.61055e-07
-7.09428e-07
1.97892e-07
-1.22111e-07
-7.22083e-07
-8.16109e-08
-7.31562e-07
-4.00947e-08
-7.377e-07
1.91054e-09
-7.40408e-07
4.38904e-08
-7.39659e-07
8.53396e-08
-7.35485e-07
1.25758e-07
-7.27976e-07
1.64646e-07
-7.17276e-07
-7.03591e-07
2.01508e-07
-1.89184e-07
-7.53032e-07
2.32788e-07
-1.43174e-07
-7.68094e-07
-9.54552e-08
-7.7928e-07
-4.66512e-08
-7.86504e-07
2.66404e-09
-7.89724e-07
5.1948e-08
-7.88943e-07
1.00671e-07
-7.84208e-07
1.48298e-07
-7.75602e-07
1.94268e-07
-7.63246e-07
-7.47287e-07
2.37963e-07
-2.15538e-07
-8.03241e-07
2.65747e-07
-1.62823e-07
-8.20809e-07
-1.08434e-07
-8.3367e-07
-5.30151e-08
-8.41923e-07
2.87454e-09
-8.45613e-07
5.87277e-08
-8.44796e-07
1.14051e-07
-8.39532e-07
1.68334e-07
-8.29884e-07
2.21005e-07
-8.15917e-07
-7.97616e-07
2.71334e-07
-2.36374e-07
-8.59136e-07
2.92266e-07
-1.78179e-07
-8.79004e-07
-1.18608e-07
-8.93241e-07
-5.82385e-08
-9.02292e-07
2.47717e-09
-9.06329e-07
6.31425e-08
-9.05462e-07
1.23374e-07
-8.99763e-07
1.82762e-07
-8.89272e-07
2.40794e-07
-8.73949e-07
-8.53463e-07
2.96639e-07
-2.47793e-07
-9.1832e-07
3.06979e-07
-1.86468e-07
-9.40329e-07
-1.2417e-07
-9.55538e-07
-6.1375e-08
-9.65088e-07
1.60422e-09
-9.69308e-07
6.45226e-08
-9.6838e-07
1.27147e-07
-9.62388e-07
1.89201e-07
-9.51326e-07
2.50272e-07
-9.3502e-07
-9.12503e-07
3.09312e-07
-2.49095e-07
-9.77936e-07
3.0871e-07
-1.87013e-07
-1.00241e-06
-1.24541e-07
-1.01801e-06
-6.19921e-08
-1.02764e-06
5.29614e-10
-1.03183e-06
6.30015e-08
-1.03085e-06
1.25413e-07
-1.0248e-06
1.87684e-07
-1.0136e-06
2.49552e-07
-9.96889e-07
-9.72082e-07
3.0913e-07
-2.39648e-07
-1.03262e-06
2.94266e-07
-1.79175e-07
-1.06289e-06
-1.19253e-07
-1.07793e-06
-5.97475e-08
-1.08714e-06
-4.69262e-10
-1.09111e-06
5.87956e-08
-1.09012e-06
1.18271e-07
-1.08427e-06
1.78166e-07
-1.07349e-06
2.38632e-07
-1.05735e-06
-1.02727e-06
2.93764e-07
-2.19454e-07
-1.07351e-06
2.60354e-07
-1.63487e-07
-1.11885e-06
-1.0883e-07
-1.13259e-06
-5.48539e-08
-1.14112e-06
-1.19472e-09
-1.14477e-06
5.24977e-08
-1.14381e-06
1.06582e-07
-1.13836e-06
1.61443e-07
-1.12835e-06
2.17719e-07
-1.11363e-06
-1.06984e-06
2.60293e-07
-1.91368e-07
-1.08311e-06
2.00969e-07
-1.4227e-07
-1.16795e-06
-9.46549e-08
-1.1802e-06
-4.78929e-08
-1.18788e-06
-1.50418e-09
-1.19116e-06
4.49652e-08
-1.19028e-06
9.19724e-08
-1.18537e-06
1.40002e-07
-1.17638e-06
1.89683e-07
-1.16331e-06
-1.08301e-06
2.02852e-07
-1.56023e-07
-1.03983e-06
1.2737e-07
-1.15748e-07
-1.20823e-06
-7.68969e-08
-1.21905e-06
-3.89754e-08
-1.2258e-06
-1.43468e-09
-1.2287e-06
3.62349e-08
-1.22795e-06
7.45418e-08
-1.22367e-06
1.14014e-07
-1.21586e-06
1.55086e-07
-1.20438e-06
-1.04344e-06
1.29893e-07
-1.16572e-07
-9.77104e-07
6.4435e-08
-8.58983e-08
-1.2389e-06
-5.69457e-08
-1.248e-06
-2.89111e-08
-1.25384e-06
-1.17329e-09
-1.25643e-06
2.67185e-08
-1.25584e-06
5.52105e-08
-1.25217e-06
8.48879e-08
-1.24553e-06
1.16483e-07
-1.23598e-06
-9.82323e-07
6.63509e-08
-7.65022e-08
-9.26532e-07
3.39441e-08
-5.6273e-08
-1.25913e-06
-3.72769e-08
-1.267e-06
-1.89897e-08
-1.27212e-06
-8.33476e-10
-1.27459e-06
1.74751e-08
-1.27415e-06
3.62177e-08
-1.27091e-06
5.59322e-08
-1.26525e-06
7.70858e-08
-1.25713e-06
-9.32838e-07
3.5355e-08
-3.92385e-08
-8.95516e-07
1.52129e-08
-2.9262e-08
-1.2691e-06
-1.95424e-08
-1.27672e-06
-1.01104e-08
-1.28156e-06
-4.93097e-10
-1.28421e-06
9.25161e-09
-1.28389e-06
1.90788e-08
-1.28073e-06
2.94272e-08
-1.27559e-06
4.02534e-08
-1.26795e-06
-9.01844e-07
1.61498e-08
-8.15674e-09
-8.86761e-07
4.02204e-09
-6.88438e-09
-1.27021e-06
-5.04867e-09
-1.27855e-06
-2.94162e-09
-1.28366e-06
-2.01193e-10
-1.28695e-06
2.62371e-09
-1.28672e-06
5.02539e-09
-1.28314e-06
7.3541e-09
-1.27792e-06
9.12543e-09
-1.26958e-06
-8.92941e-07
4.60292e-09
1.4171e-08
-8.96971e-07
4.1923e-21
9.78388e-09
-1.26583e-06
5.51487e-09
-1.27428e-06
2.27396e-09
-1.28042e-06
2.79e-11
-1.2847e-06
-2.17912e-09
-1.28451e-06
-5.24941e-09
-1.28007e-06
-9.17217e-09
-1.274e-06
-1.30925e-08
-1.26568e-06
-9.02385e-07
9.13235e-24
2.98131e-08
-9.24879e-07
1.77006e-26
2.03058e-08
-1.25622e-06
1.21098e-08
-1.26609e-06
5.89535e-09
-1.27421e-06
1.89275e-10
-1.279e-06
-5.489e-09
-1.27883e-06
-1.16654e-08
-1.27389e-06
-1.9669e-08
-1.26599e-06
-2.88309e-08
-1.25644e-06
-9.2961e-07
2.68454e-26
3.7642e-08
-9.61149e-07
1.20559e-27
2.45158e-08
-1.24309e-06
1.53298e-08
-1.2569e-06
8.67928e-09
-1.26756e-06
2.71558e-10
-1.27059e-06
-8.05267e-09
-1.27051e-06
-1.47536e-08
-1.26719e-06
-2.39425e-08
-1.2568e-06
-3.68103e-08
-1.24358e-06
-9.65264e-07
1.07011e-27
3.68966e-08
-9.97279e-07
5.26935e-29
2.26721e-08
-1.22887e-06
1.65662e-08
-1.25079e-06
1.08787e-08
-1.26187e-06
3.02038e-10
-1.26001e-06
-1.01519e-08
-1.26005e-06
-1.58288e-08
-1.26151e-06
-2.21638e-08
-1.25047e-06
-3.62518e-08
-1.22949e-06
-1.00086e-06
2.43721e-29
2.63228e-08
-1.02321e-06