/*--------------------------------*- C++ -*----------------------------------*\
  =========                 |
  \\      /  F ield         | OpenFOAM: The Open Source CFD Toolbox
   \\    /   O peration     | Website:  https://openfoam.org
    \\  /    A nd           | Version:  8
     \\/     M anipulation  |
\*---------------------------------------------------------------------------*/
FoamFile
{
    version     2.0;
    format      ascii;
    class       volScalarField;
    location    "1.45";
    object      alpha.water;
}
// * * * * * * * * * * * * * * * * * * * * * * * * * * * * * * * * * * * * * //

dimensions      [0 0 0 0 0 0 0];

internalField   nonuniform List<scalar> 
9150
(
1
1
1
1
1
1
1
1
1
1
1
1
1
1
1
1
1
1
1
1
1
1
1
1
1
1
1
1
1
1
1
1
1
1
1
1
1
1
1
1
1
1
1
1
1
1
1
1
1
1
1
1
1
1
1
1
1
1
1
1
1
1
1
1
1
1
1
1
1
1
1
1
1
1
1
1
1
1
1
1
1
1
1
1
1
1
1
1
1
1
1
1
1
1
1
1
1
1
1
1
1
1
1
1
1
1
1
1
1
1
1
1
1
1
1
1
1
1
1
1
1
1
1
1
1
1
1
1
1
1
1
1
1
1
1
1
1
1
1
1
1
1
1
1
1
1
1
1
1
1
0.999999
0.999999
1
1
1
1
1
1
1
1
0.999999
1
1
1
1
1
1
1
1
1
0.999995
1
1
1
1
1
1
1
1
1
0.999999
1
1
1
1
1
1
1
1
1
1
1
1
1
1
1
1
1
0.999992
0.999992
1
1
1
1
1
1
1
0.999983
0.999938
0.999961
1
1
1
1
1
1
1
0.999944
0.999938
0.999954
1
1
1
1
1
1
1
0.999941
0.999938
0.999973
1
1
1
1
1
1
1
0.999974
0.999973
0.999986
1
1
1
0.999999
1
1
1
1
1
1
1
1
1
0.999998
0.999999
1
1
1
1
0.999999
1
1
0.999999
0.999999
0.99999
0.999988
0.999996
1
1
1
1
1
0.999999
0.999995
0.999984
0.999942
0.999994
0.999999
0.999998
1.00003
1
1
0.999999
0.999984
0.999968
0.999942
0.999992
0.999997
0.99999
0.995378
1
1
1
0.999978
0.999947
0.999941
0.999944
0.999985
0.999947
0.849382
1
1
1
0.99998
0.999948
0.999959
0.999529
0.999929
0.999717
0.731701
1
1
1
0.999993
0.999956
0.999977
0.999454
0.999673
0.998673
0.700764
1
1
1
0.999998
0.999998
0.999985
0.999836
0.996809
0.994086
0.706191
0.999999
1
1
0.999999
0.999999
0.999992
0.999989
0.961993
0.818253
0.74946
0.999998
1
1
0.999998
0.999985
0.999988
0.999983
0.891791
0.538519
0.601166
0.999988
1
1
0.999998
0.999969
0.999954
0.99997
0.84492
0.513412
0.519187
0.99995
1
0.999999
0.999998
0.999967
0.999767
0.999921
0.856133
0.507845
0.507845
0.999792
1
0.999999
0.999997
0.999966
0.9994
0.99974
0.924062
0.509943
0.504928
0.999152
1.00002
0.999999
0.999998
0.999968
0.999279
0.997966
0.961971
0.634781
0.488539
0.996445
0.999837
0.999999
0.999998
0.999975
0.999311
0.979323
0.969747
0.82199
0.720534
0.875948
0.990167
0.999999
0.999999
0.999986
0.999331
0.959004
0.82367
0.842407
0.842407
0.68508
0.906015
0.999999
0.999999
0.999994
0.999472
0.952704
0.626165
0.730748
0.840437
0.684267
0.758297
0.999999
0.999999
0.999998
0.99988
0.953583
0.598523
0.589426
0.828753
0.684267
0.690772
0.999999
0.999999
0.999999
0.999987
0.975686
0.697598
0.580366
0.749208
0.684267
0.692288
0.999999
0.999999
0.999999
0.999997
0.99448
0.908311
0.570497
0.541619
0.684458
0.735857
1
0.999999
0.999999
0.999997
0.999347
0.964176
0.620316
0.537146
0.685327
0.768916
0.999656
0.999999
0.999999
0.999996
0.99991
0.974116
0.743946
0.536772
0.68686
0.769378
1.00019
0.999999
0.999999
0.999997
0.999964
0.978129
0.778098
0.60315
0.68829
0.722593
0.994544
0.999999
0.999999
0.999998
0.999972
0.981003
0.747254
0.597639
0.689136
0.691142
0.97868
0.999999
0.999999
0.999998
0.999977
0.986665
0.726849
0.616052
0.691106
0.6932
0.965817
0.999999
0.999999
0.999999
0.999987
0.996353
0.850424
0.756531
0.743537
0.693112
0.952374
0.999999
0.999999
0.999999
0.999993
0.999498
0.955399
0.911364
0.816656
0.670104
0.924762
0.999999
0.999999
0.999999
0.999994
0.999839
0.967334
0.850558
0.81623
0.664722
0.897225
0.999999
0.999999
0.999999
0.999995
0.999904
0.95029
0.716278
0.815025
0.66045
0.870518
0.999999
1
0.999999
0.999997
0.999933
0.950191
0.693059
0.814305
0.65699
0.864692
1
1
1
0.999999
0.999972
0.984811
0.738487
0.790443
0.653537
0.904967
1
1
1
0.999999
0.999989
0.998652
0.866126
0.648409
0.652003
0.940458
1
1
1
1
0.999994
0.999802
0.881057
0.644165
0.645366
0.945454
1
1
1
1
0.999997
0.999902
0.888662
0.643962
0.644165
0.942651
0.999999
0.999998
1
1
0.999999
0.999959
0.932378
0.644387
0.645469
0.949764
0.999997
0.999996
1
1
1
0.999989
0.97464
0.645494
0.660515
0.970779
0.999983
0.999996
1
1
1
0.999998
0.994985
0.648296
0.76018
0.988792
1
0.999999
1
1
1
1
0.999623
0.653167
0.834296
0.997764
1.00001
1
1
1
1
1
0.999971
0.706837
0.885515
0.999672
0.999998
1
1
1
1
1
0.999998
0.844972
0.939217
0.999857
0.999998
1
1
1
1
1
1
0.848933
0.965661
0.999895
0.999996
1
1
1
1
1
1
0.799585
0.976385
0.999927
0.999997
1
1
1
1
1
1
0.866382
0.993004
0.999966
0.999998
1
1
1
1
1
1
0.950914
0.999789
0.999987
0.999999
1
1
1
1
1
1
0.980188
0.999911
0.999995
1
1
1
1
1
1
1
0.998369
0.999976
0.999999
1
1
1
1
1
1
1
0.999925
0.999995
1
1
1
1
1
1
1
1
0.999976
0.999999
1
1
1
1
1
1
1
1
0.999997
1
1
1
1
1
1
1
1
1
1
1
1
1
1
1
1
1
1
1
1
1
1
1
1
1
1
1
1
1
1
1
1
1
1
1
1
1
1
1
1
1
1
0.999999
1
1
1
1
1
1
1
1
1
0.999999
1
0.999999
1
1
1
1
1
1
1
0.999999
0.999999
0.999999
1
1
1
1
1
1
1
0.999999
0.999999
0.999999
1
1
1
1
1
1
1
0.999999
0.999999
0.999999
1
1
1
1
1
1
1
1
0.999999
1
1
1
1
1
1
1
1
1
1
1
1
1
1
1
1
1
1
1
1
1
1
1
1
1
1
1
1
1
1
1
0.999999
0.999999
1
1
1
1
1
1
1
1
0.999999
0.999999
1
1
1
1
1
1
1
1
0.999999
1
1
1
1
1
1
1
1
1
1
1
1
1
1
1
1
1
1
1
1
1
1
1
1
1
1
1
1
1
1
1
1
1
1
1
1
1
1
1
1
1
1
1
1
1
1
1
1
1
1
1
1
1
1
1
1
1
1
1
1
1
1
1
1
1
1
1
1
1
1
1
1
1
1
1
1
1
1
1
1
1
1
1
1
1
1
1
1
1
1
1
1
1
1.00002
1
1
1
1
1
1
1
1
1.00002
1.00001
1
1
1
1
1
1
1
1
1.00001
1.0002
1
1
1
1
1
1
1
1
1.00017
1.00008
1
1
1
1
1
1
1
1
1.00008
1.00001
1
1
1
1
1
1
1
1
1.00001
0.968307
1
1
1
1
1
1
1
1
0.974948
0.827368
0.999999
1
1
1
1
1
1
0.999999
0.834138
0.76177
0.999997
1
1
1
1
1
1
0.999997
0.768253
0.720584
0.99999
0.999988
1
1
1
1
0.999989
0.999991
0.727069
0.698276
0.999766
0.999983
1
1
1
1
0.999984
0.999862
0.703729
0.695538
0.999346
0.999992
1
1
1
1
0.999992
0.999356
0.700652
0.726327
1.00012
1
1
1
1
1
1
1.00017
0.730004
0.760289
0.999983
1
1
1
1
1
1
0.999984
0.763417
0.803885
1.00006
1
1
1
1
1
1
1.00006
0.80618
0.847638
1.00003
1
1
1
1
1
1
1.00003
0.849124
0.900677
1
1
1
1
1
1
1
1
0.901378
0.94907
1
1
1
1
1
1
1
1
0.949311
1
1
1
1
1
1
1
1
1
1
1
1
1
1
1
1
1
1
1
1
1
1
1
0.999998
0.999995
0.999998
1
1
1
1
1
1
1
1
1
0.811979
0.767138
0.790882
0.888388
0.88841
1
1
1
1
1
1
1
0.999998
0.999997
0.999999
1
1
1
1
1
1
1
1
1
1
1
1
0.999993
0.999989
0.999989
0.999995
1
0.999999
1
1
1
1
1
1
1
0.984108
0.913883
0.761484
0.761484
0.857735
1
1
1
1
1
1
0.999995
0.999993
0.999997
0.999999
1
0.999999
0.999999
1
1
1
1
1
0.999987
0.999978
0.999978
0.999978
0.999991
0.999998
0.999998
0.999998
0.999991
0.999982
0.999988
1
1
1
1
1
1
1
0.999964
0.975213
0.854056
0.856794
1
1
1
1
1
0.999998
0.999995
0.999993
0.999993
0.999993
0.999992
0.999993
0.999999
0.999999
0.999999
0.999965
0.999954
0.999954
0.999988
0.99999
0.99999
0.999968
0.999939
0.999987
0.999998
0.999991
0.999982
0.999982
0.999982
0.999998
1
1
1
1
1
1
0.999998
0.999984
0.995872
0.951468
0.999998
1
0.999999
0.999996
0.99999
0.99998
0.999972
0.999976
0.999928
0.999872
0.999834
0.999905
0.999895
0.999858
0.999859
0.999858
0.999957
0.99999
0.99999
0.99999
0.99999
0.999942
0.999921
0.999921
0.999965
0.999991
0.999985
0.999982
0.999992
1
1
1
1
1
0.999999
0.999997
0.999999
0.999999
0.999995
0.973099
0.999998
0.999999
0.999989
0.999948
0.999842
0.999685
0.999513
0.999501
0.999315
0.996757
0.995668
0.999932
0.999974
0.999983
0.999986
0.999989
0.99999
0.99999
0.99999
0.99999
0.999957
0.999921
0.999921
0.999921
0.999954
0.999997
0.999998
0.999998
0.999999
1
1
1
1
1
0.999996
0.999996
0.999999
0.999999
0.999999
0.986595
0.999996
0.999993
0.999896
0.999382
0.997872
0.947826
0.836333
0.709208
0.601152
0.513433
0.555031
0.658784
0.79976
0.95665
0.999983
0.999987
0.99999
0.99999
0.99999
0.99999
0.999922
0.999922
0.999921
0.999949
0.999987
1
1
1
1
1
1
1
1
0.999997
0.999996
0.999996
0.999999
0.999999
1
0.996201
0.999991
0.999965
0.999373
0.954223
0.651085
0.30572
0.0746153
0.000268094
0.000269206
0.000269113
0.0018835
0.01955
0.0722063
0.190148
0.425902
0.747
0.996335
0.999988
0.99999
0.999986
0.999963
0.999955
0.999979
0.999988
0.999987
0.999993
1
1
1
0.999998
0.99999
0.999988
0.999992
0.999996
0.999997
0.999999
0.999999
0.999999
1
0.996251
0.999988
0.999815
0.915386
0.368351
0.0012328
0.000308632
0.000269379
0.000269206
0.000269051
0.000268822
0.000269589
0.000269036
0.000288454
0.000417733
0.00129484
0.11436
0.714643
0.999745
0.999989
0.999994
0.999997
0.999997
0.999996
0.999992
0.999987
0.999987
0.999993
0.999998
0.999994
0.999987
0.999987
0.999987
0.999988
0.999998
1
0.999999
0.999999
1
1
0.992332
0.999987
0.985915
0.329898
0.00119307
0.000337926
0.0002705
0.000269206
0.000269052
0.000268847
0.000268496
0.000268284
0.00026776
0.000267283
0.000268884
0.000297754
0.000621458
0.545636
0.975005
0.999992
0.999993
0.999997
0.999997
0.99999
0.999987
0.999987
0.999987
0.999987
0.999987
0.999987
0.999987
0.999987
0.999987
0.999995
1
1
0.999998
0.999999
1
1
0.991738
0.999967
0.579342
0.021705
0.000329933
0.000267947
0.000269548
0.000269413
0.000269211
0.000269031
0.000334564
0.000268211
0.000268143
0.000267588
0.000267134
0.000270011
0.00514375
0.530674
0.997329
0.999997
0.999989
0.999997
0.999997
0.999987
0.999987
0.999988
0.99999
0.999988
0.999987
0.999987
0.999987
0.999989
0.999997
1
1
0.999999
0.999998
0.999998
1
1
0.991747
0.953918
0.160736
0.00062918
0.000283901
0.000268919
0.000269617
0.000269486
0.000269289
0.000323002
0.000346714
0.000270346
0.000268213
0.000268119
0.000267689
0.000269563
0.0296176
0.668823
0.999997
0.999998
0.999992
0.999998
0.999998
0.999996
0.999994
0.999996
0.999996
0.999996
0.999989
0.99999
0.999995
0.999999
1
1
1
0.999998
0.999998
0.999998
1
0.99999
0.995881
0.572414
0.0229732
0.00127966
0.00105759
0.000542255
0.000280098
0.000767606
0.000270111
0.000271784
0.000268838
0.000267735
0.00026832
0.000268268
0.000268583
0.00032342
0.145115
0.913623
0.999998
0.999998
0.999998
0.999998
0.999998
0.999998
0.999998
0.999993
0.999995
0.999999
0.999999
0.999999
1
1
1
1
0.999998
0.999998
0.999998
0.999998
0.999999
0.999994
0.999981
0.269479
0.00441766
0.00134237
0.00116832
0.00696091
0.0155025
0.043123
0.109154
0.109938
0.0627581
0.000393294
0.000267443
0.000268716
0.000272445
0.00129353
0.46516
0.999998
0.999998
0.999998
0.999998
0.999998
0.999998
0.999988
0.999975
0.999971
0.999978
0.999998
1
1
1
1
1
0.999999
0.999998
0.999998
0.999999
1
0.999999
0.999999
0.999999
0.147046
0.00928458
0.00162543
0.00134237
0.0176845
0.107141
0.110288
0.110387
0.110596
0.110837
0.0471778
0.000358814
0.000276664
0.000367567
0.1365
0.898054
0.999998
0.999998
0.999998
0.999998
0.999985
0.999973
0.999971
0.999971
0.999971
0.999971
1
1
1
1
1
1
0.999999
0.999998
0.999998
1
1
0.999999
0.999999
0.999999
0.107157
0.0116733
0.00288245
0.00162538
0.0250021
0.110024
0.110367
0.110337
0.110377
0.110608
0.0979413
0.0078972
0.000368894
0.00279266
0.484276
0.999993
0.999998
0.999998
0.999995
0.999976
0.99997
0.99997
0.999971
0.999971
0.999971
0.99999
1
1
1
1
1
1
1
0.999999
0.999998
0.999999
1
0.999999
0.999985
0.998943
0.197876
0.0754406
0.053601
0.0129055
0.00386078
0.0771923
0.110255
0.110257
0.108104
0.110554
0.0870786
0.00362003
0.00087932
0.127121
0.894671
0.999998
0.999997
0.999998
0.999982
0.999969
0.999967
0.999975
0.999983
0.999979
0.999992
1
1
1
1
1
1
1
1
1
0.999999
0.999996
0.999997
0.999998
0.99662
0.98044
0.536132
0.495855
0.253413
0.0174919
0.00225483
0.0608157
0.108978
0.108951
0.034278
0.107825
0.0490325
0.00391475
0.00357356
0.432243
0.999988
0.999997
0.999997
0.999997
0.999989
0.999971
0.999966
0.99999
1
1
1
1
1
1
0.999998
0.999997
1
0.999998
0.999994
0.999996
0.999999
0.999997
0.999996
0.999943
0.987983
0.979359
0.714081
0.689641
0.354462
0.00721912
0.0012003
0.032448
0.107089
0.0934141
0.0133901
0.035359
0.0347788
0.00427545
0.0785773
0.78559
1
0.999997
0.999997
0.999997
0.999997
0.999987
0.999964
0.999982
1
1
1
1
1
0.999996
0.999993
0.999993
0.999994
0.999993
0.999993
0.999993
0.999996
0.999999
0.999997
0.999601
0.990988
0.989669
0.689641
0.686389
0.30759
0.00173815
0.000679661
0.0365804
0.105435
0.0829488
0.0125976
0.0147879
0.0430006
0.00709156
0.2779
0.999981
0.999997
0.999997
0.999997
0.999997
0.999997
0.999987
0.999964
0.999965
0.999997
1
1
1
1
0.999996
0.999993
0.999993
0.999993
0.999993
0.999993
0.999993
0.999998
1
0.999996
0.999866
0.996871
0.980556
0.686389
0.679162
0.115628
0.000679529
0.000498626
0.0632623
0.104372
0.0880369
0.011457
0.0217416
0.0430048
0.0205016
0.542727
0.999996
0.999997
0.999997
0.999997
0.999997
0.999997
0.999971
0.999964
0.999964
0.999973
1
1
1
1
0.999998
0.999994
0.999993
0.999993
0.999993
0.999994
0.999998
1
1
0.999999
0.999887
0.99171
0.965138
0.68003
0.475925
0.0371556
0.000497165
0.000428793
0.0807726
0.103869
0.0865846
0.0113045
0.0182207
0.0399066
0.0808278
0.766883
0.999997
0.999997
0.999997
0.999997
0.999997
0.999995
0.999964
0.999964
0.999964
0.999964
0.999995
1
1
1
0.999999
0.999994
0.999993
0.999993
0.999995
0.999999
1
1
1
0.999998
0.994805
0.965578
0.965138
0.59883
0.367618
0.0262505
0.000415313
0.000375219
0.0654474
0.103442
0.066005
0.0112218
0.0181226
0.0161992
0.141099
0.861186
0.999997
0.999997
0.999997
0.999997
0.999997
0.999997
0.999973
0.999964
0.999964
0.999964
0.999998
1
1
1
1
0.999994
0.999993
0.999995
1
1
1
1
0.999998
0.99999
0.992972
0.966561
0.975493
0.44941
0.35816
0.0299389
0.000362807
0.000345831
0.0256004
0.103058
0.0308917
0.0122567
0.0212285
0.00618121
0.134022
0.849879
0.999997
0.999997
0.999997
0.999995
0.999973
0.999978
0.999993
0.999974
0.999964
0.999975
1
1
1
1
1
0.999997
0.999996
1
1
1
1
0.999999
0.999996
0.999808
0.99613
0.994941
0.994876
0.719362
0.374947
0.0108106
0.00033214
0.000345831
0.000875008
0.0368228
0.00874373
0.00891768
0.0211713
0.00290544
0.0963153
0.795077
0.999997
0.999997
0.999997
0.999978
0.999932
0.999938
0.999997
0.999998
0.999987
0.999996
1
1
1
1
1
1
1
1
1
0.999998
0.999999
0.999999
0.999995
0.999898
0.999846
0.999796
0.957027
0.812623
0.303028
0.00155891
0.000338622
0.000345831
0.000326497
0.000569739
0.00079814
0.00959762
0.0113252
0.00138109
0.039184
0.656001
0.999997
0.999997
0.999996
0.999944
0.999932
0.999932
0.999973
1
1
1
1
0.999999
0.999998
1
1
1
1
1
0.999991
0.999987
0.999994
1
0.999998
0.999986
0.998224
0.970037
0.913577
0.738276
0.254289
0.00351702
0.00199851
0.000335198
0.000293124
0.000225733
0.00048273
0.00557591
0.00128156
0.000838555
0.00755702
0.423206
0.997278
0.999997
0.999997
0.999945
0.999932
0.999932
0.999934
0.999994
1
1
0.999999
0.999997
0.999997
0.999998
1
1
0.999999
0.999989
0.999987
0.999987
0.999994
1
1
0.999999
0.985487
0.913577
0.913577
0.649089
0.260304
0.00508992
0.00536995
0.000826843
0.000241708
0.00012972
0.000627464
0.000830273
0.000268912
0.000713011
0.00307372
0.198993
0.921736
0.999997
0.999997
0.999969
0.999932
0.999932
0.999932
0.999981
1
1
0.999999
0.999997
0.999997
0.999997
1
0.999999
0.999988
0.999987
0.999987
0.999987
0.999999
1
1
0.999978
0.984887
0.917688
0.918427
0.618826
0.302588
0.00454904
0.00591905
0.0027236
0.000155729
9.86487e-05
0.000254491
0.000153688
0.000108734
0.000446161
0.00177204
0.0565879
0.72185
0.999997
0.999997
0.999995
0.999953
0.999932
0.999933
0.999986
1
1
0.999999
0.999997
0.999997
0.999998
0.999999
0.999995
0.999987
0.999987
0.999987
0.999994
1
1
1
0.999837
0.991092
0.984871
0.991735
0.610537
0.299282
0.00161909
0.00556304
0.0038689
0.000197875
8.94723e-05
8.95461e-05
8.87164e-05
8.83837e-05
0.000104167
0.000887635
0.00965317
0.428059
0.993654
0.999997
0.999997
0.999991
0.999945
0.999933
0.999992
1
1
1
0.999999
0.999998
1
0.999999
0.999987
0.999987
0.999987
0.999989
1
1
1
0.999999
0.999845
0.999674
0.999833
0.999863
0.545777
0.213368
0.000464291
0.00273537
0.00386994
0.000187164
9.02419e-05
9.07418e-05
8.95725e-05
8.78214e-05
8.53061e-05
0.000653231
0.00100334
0.192213
0.943736
0.999997
0.999997
0.999996
0.999977
0.999933
0.99999
1
1
1
1
1
1
0.999999
0.999987
0.999987
0.999987
0.999997
1
1
1
0.999999
0.999949
0.99995
0.999881
0.999867
0.432512
0.159033
0.000317227
0.00087593
0.00378528
9.05874e-05
9.03607e-05
9.05054e-05
8.90922e-05
8.67145e-05
8.6106e-05
0.000213143
0.000135173
0.0207792
0.839799
0.999992
0.999997
0.999996
0.99999
0.999933
0.999955
0.999997
1
1
1
1
1
0.999997
0.999987
0.999987
0.999996
1
1
1
1
1
0.999999
0.999902
0.999731
0.999866
0.390202
0.154258
0.000271103
0.000332426
0.00346948
9.05845e-05
9.05835e-05
9.13606e-05
8.74803e-05
8.65002e-05
8.25912e-05
8.18087e-05
0.000125055
0.000119666
0.666744
0.999975
0.999996
0.999996
0.999996
0.999953
0.999953
0.999971
0.999983
0.999999
1
1
1
0.999988
0.999987
0.999993
1
1
1
1
1
1
1
0.999729
0.999724
0.999865
0.561281
0.280098
0.000210643
0.000219935
0.00294378
9.05892e-05
9.05919e-05
9.56293e-05
9.52296e-05
8.63333e-05
8.55117e-05
8.18097e-05
8.54299e-05
9.11063e-05
0.440667
0.989112
0.999993
0.999996
0.999973
0.999988
0.999978
0.999967
0.999967
0.999991
1
1
0.999995
0.999987
0.999987
0.999999
1
1
1
1
1
1
1
0.999767
0.999826
0.998296
0.765927
0.426963
0.000149811
0.000172114
0.00209819
9.05919e-05
9.06257e-05
9.58402e-05
9.59541e-05
8.87084e-05
8.62803e-05
8.54513e-05
8.68103e-05
8.75951e-05
0.267065
0.953639
0.999969
0.999987
0.99996
0.999989
0.999999
0.999967
0.999967
0.999983
1
1
0.999994
0.999987
0.999994
1
1
1
1
1
1
1
1
0.999967
0.999966
0.9947
0.798419
0.490882
0.000106518
0.000106197
0.000569151
9.06069e-05
9.06474e-05
9.16972e-05
9.59692e-05
9.59541e-05
9.23125e-05
8.86921e-05
8.73742e-05
8.74267e-05
0.197239
0.916311
0.99992
0.999956
0.999961
0.999993
0.999999
0.999974
0.999967
0.999985
1
1
0.999998
0.999996
0.999999
1
1
0.999999
0.999999
1
1
1
0.999998
0.999999
0.999166
0.994552
0.809904
0.512164
9.38868e-05
9.84599e-05
9.01091e-05
9.11484e-05
9.0693e-05
9.07257e-05
9.59607e-05
9.59692e-05
9.58085e-05
9.26474e-05
8.73937e-05
8.71834e-05
0.185037
0.901956
0.999909
0.999967
0.99998
0.999998
0.999999
0.999996
0.999985
0.999995
1
1
1
1
1
1
0.999999
0.999997
0.999998
1
1
1
0.999999
0.999999
0.99536
0.994551
0.776459
0.569434
0.000591451
9.25334e-05
9.03816e-05
9.07661e-05
9.07161e-05
9.06666e-05
9.42639e-05
9.58085e-05
9.56687e-05
8.73356e-05
8.72937e-05
8.74156e-05
0.194135
0.906201
0.999914
0.999987
0.999998
0.999999
0.999999
0.999999
1
1
1
1
1
1
1
1
0.999999
0.999997
0.999998
1
1
1
1
0.998456
0.994551
0.994551
0.702097
0.662356
0.0847544
0.000100572
8.9885e-05
9.03284e-05
9.06134e-05
0.000125385
9.07668e-05
9.25696e-05
9.04958e-05
8.65904e-05
8.71182e-05
8.72937e-05
0.236418
0.928013
0.999812
0.999995
0.999999
0.999999
0.999999
0.999999
0.999999
1
1
0.999998
0.999999
1
1
1
0.999999
0.999997
0.999999
1
1
1
1
0.995852
0.994558
0.996239
0.693925
0.711855
0.259504
0.000154352
0.000291537
0.000170319
9.0599e-05
0.000161268
8.93037e-05
8.97674e-05
8.99616e-05
0.000102031
8.72937e-05
8.74677e-05
0.319496
0.960584
0.999785
0.999997
0.999999
0.999999
0.999954
0.99995
0.999996
1
1
0.999997
0.999998
1
1
1
0.999998
0.999997
0.999999
1
1
1
1
0.997244
0.995458
0.999252
0.693412
0.723823
0.396859
0.000326436
0.000608314
0.000183255
0.000119989
0.000161233
0.000155757
8.99825e-05
8.99841e-05
0.000136308
8.77012e-05
8.75379e-05
0.447682
0.98701
0.999848
0.999997
0.999998
0.999999
0.999904
0.999903
0.999986
1
0.999998
0.999997
0.999998
1
1
1
0.999997
0.999998
1
1
1
1
0.999919
0.999783
0.9997
0.999714
0.704843
0.726935
0.50963
0.000512835
0.000460735
0.000169046
0.000136733
0.000141852
0.000162016
0.000109837
0.000108734
0.000136001
8.80028e-05
0.00458807
0.624052
0.997099
0.999908
0.999997
0.999997
0.999962
0.999902
0.999903
0.999988
0.999999
0.999997
0.999997
0.999999
1
1
0.999998
0.999997
0.999999
1
1
1
0.999996
0.999913
0.999997
0.999991
0.999194
0.714667
0.72736
0.619633
0.000585047
0.000540558
0.000575595
0.000128046
0.00012692
0.000162075
0.000179627
0.000187106
0.000100327
8.83001e-05
0.0724947
0.787565
0.998048
0.999948
0.999993
0.999997
0.999907
0.999902
0.999927
0.999996
0.999999
0.999998
0.999999
1
1
0.999999
0.999998
0.999998
0.999999
1
1
1
0.999992
0.999985
1
0.999967
0.998892
0.70935
0.727623
0.709874
0.000919462
0.000622718
0.00121291
0.000158431
0.000127407
0.000129216
0.000145945
0.000188696
9.01782e-05
8.86877e-05
0.218406
0.914568
0.998885
0.999972
0.999981
0.999961
0.999902
0.999902
0.999972
0.999999
1
1
1
1
1
0.999999
0.999998
0.999999
1
1
1
0.999999
0.999996
1
1
0.999552
0.998892
0.708264
0.728817
0.77857
0.140048
0.000663599
0.00142137
0.000308152
0.000128494
0.00012945
0.000130288
0.000188696
8.94996e-05
8.90817e-05
0.448161
0.982796
0.999623
0.999975
0.999976
0.999907
0.999903
0.999941
0.999996
0.999999
1
1
1
1
1
1
1
1
1
1
0.999997
0.999997
1
1
1
0.999219
0.998892
0.713037
0.711775
0.82492
0.402294
0.000711528
0.00126251
0.000269861
0.000128371
0.000128536
0.000190574
0.000180029
9.03558e-05
0.029815
0.709757
0.996756
0.999891
0.99995
0.999955
0.999907
0.999923
0.999994
1
1
1
1
0.999996
0.999994
0.999999
1
1
1
1
0.999998
0.999997
0.999998
1
1
1
0.999543
0.999335
0.851659
0.711374
0.834573
0.584911
0.00034
0.000280367
0.000326697
0.000128536
0.000128408
0.000230833
9.44158e-05
9.10559e-05
0.179268
0.892859
0.998441
0.99991
0.999919
0.9999
0.999926
0.999992
1
1
1
1
0.999999
0.999994
0.999994
0.999999
1
1
1
0.999998
0.999997
0.999997
0.999999
1
1
0.999994
0.999983
0.999995
0.954498
0.715291
0.835613
0.706731
0.000214595
0.000219724
0.000359808
0.000161483
0.000197489
0.000229789
9.28923e-05
9.18225e-05
0.442803
0.980602
0.999408
0.999904
0.999899
0.999898
0.999968
0.999997
0.999998
0.999999
1
1
0.999994
0.999994
0.999994
0.999999
1
1
1
0.999997
0.999997
0.999998
1
1
1
0.999996
0.999999
1
0.963511
0.71532
0.835613
0.79213
0.0222449
0.000205491
0.000205639
0.000236046
0.000238734
0.000213976
9.59844e-05
0.0366434
0.722582
0.996523
0.999781
0.999933
0.999947
0.999939
0.99993
0.999838
0.999939
1
1
0.999997
0.999994
0.999994
0.999998
1
1
1
1
0.999998
0.999998
1
1
1
1
1
0.999999
1
0.966529
0.716283
0.838917
0.837646
0.228519
0.000200792
0.00020491
0.00021632
0.00023666
0.000107271
9.8761e-05
0.199744
0.903701
0.998364
0.999897
0.99995
0.999951
0.999951
0.999869
0.999806
0.999832
0.999989
1
0.999994
0.999994
0.999996
1
1
1
1
1
1
1
1
1
1
1
1
1
1
0.980315
0.790531
0.823317
0.854378
0.406217
0.000335123
0.00112176
0.000169592
0.000236872
0.000105381
9.94887e-05
0.477823
0.983825
0.999281
0.999924
0.999951
0.999952
0.999951
0.999836
0.999805
0.999818
0.999987
0.999999
0.999997
0.999996
1
1
1
1
1
0.999999
1
1
1
0.999998
0.999954
0.999981
1
1
1
0.992042
0.861403
0.75515
0.8594
0.5272
0.000762211
0.00104565
0.00013412
0.000117222
0.000109786
0.055861
0.754446
0.996314
0.99963
0.999907
0.999951
0.999951
0.999951
0.999807
0.999804
0.999862
0.999994
1
1
1
1
0.999991
1
1
1
0.999999
1
1
1
0.99996
0.99993
0.99996
1
1
0.999997
0.997126
0.845531
0.75515
0.860802
0.671652
0.000239994
0.00016793
0.000162515
0.000107568
0.000109409
0.247669
0.923906
0.998229
0.999801
0.999943
0.999949
0.999951
0.999826
0.999804
0.999805
0.999933
0.999998
1
1
1
0.999991
0.999852
0.999886
0.999979
0.999992
0.999999
1
1
0.999993
0.99993
0.99993
0.999965
1
1
0.999997
0.99939
0.833594
0.755393
0.860802
0.811357
0.00808207
0.000178517
0.000173704
0.000104671
0.000107568
0.528873
0.988668
0.999321
0.999944
0.99999
0.999947
0.999821
0.999804
0.999804
0.999816
0.999983
1
1
1
0.999998
0.999876
0.999829
0.99983
0.999838
0.999938
1
1
1
0.999946
0.99993
0.99993
0.999982
1
1
0.999997
1
0.92754
0.755247
0.871015
0.879177
0.307192
0.000138419
0.000103819
0.000103446
0.0619192
0.76158
0.996539
0.999747
0.99999
0.999994
0.99988
0.999805
0.999805
0.999804
0.999869
0.999997
1
1
1
0.999912
0.99983
0.99983
0.999831
0.99983
0.999903
1
1
0.999983
0.99993
0.99993
0.99993
0.999995
1
1
0.999997
1
0.988896
0.754275
0.798654
0.894555
0.674423
0.000107814
0.000102413
0.000103217
0.229117
0.910694
0.998137
0.999877
0.999994
0.999996
0.999893
0.999805
0.999805
0.999804
0.999917
0.999999
1
1
1
0.999907
0.99983
0.999831
0.99983
0.99983
0.999937
1
1
0.99997
0.99993
0.99993
0.999966
0.999992
1
1
0.999997
1
0.997271
0.752991
0.752653
0.894685
0.809453
9.86016e-05
0.000101105
0.000102418
0.476836
0.98244
0.999187
0.999943
0.999996
0.999997
0.999973
0.999805
0.999805
0.999804
0.999964
1
1
1
1
0.999979
0.999866
0.99983
0.99983
0.999901
0.99999
1
1
0.999984
0.999931
0.999937
0.999997
0.999994
0.999929
0.999942
0.999997
1
0.998684
0.798434
0.752635
0.89592
0.868426
0.0590996
0.000102418
0.0308207
0.667013
0.997907
0.9998
0.999982
0.999997
0.999998
0.999998
0.999848
0.999805
0.999849
0.999993
1
1
1
1
1
0.999983
0.999888
0.999905
0.99999
1
1
1
0.999998
0.999983
0.999989
1
0.999997
0.99974
0.99982
0.999796
1
0.998442
0.951055
0.752635
0.898889
0.90717
0.496037
0.000272456
0.041173
0.678441
0.9984
0.999873
0.999989
0.999998
0.999998
0.999999
0.999965
0.999836
0.999939
0.999999
1
1
1
1
1
1
0.999997
0.999994
0.999995
1
1
1
1
1
1
1
0.999991
0.999732
0.999833
0.997252
1
0.999245
0.990315
0.753531
0.809233
0.907913
0.827916
0.00331838
0.0342815
0.654721
0.998465
0.999875
0.999987
0.999997
0.999998
0.999999
0.999999
0.999991
0.999995
0.999998
1
1
1
1
1
1
1
0.999998
0.999988
0.999992
0.999999
1
1
1
1
1
0.999956
0.999732
0.999831
0.996908
1
0.999947
0.995356
0.804193
0.774845
0.909722
0.908604
0.244666
0.0413897
0.468473
0.989674
0.99981
0.999981
0.999995
0.999996
0.999999
1
1
0.999999
0.999999
1
1
1
1
1
1
0.999998
0.99999
0.999988
0.999988
0.999996
1
1
1
1
1
0.999852
0.999732
0.999834
0.996907
1
1
0.999103
0.956784
0.77432
0.890915
0.917383
0.734255
0.0443431
0.17136
0.892609
0.999443
0.999966
0.999994
0.999998
1
1
1
1
1
1
1
1
1
1
1
0.999996
0.999988
0.999988
0.999988
0.999998
1
1
1
1
1
0.999714
0.999784
0.999891
0.996907
1
1
0.999978
0.991907
0.7777
0.792162
0.921655
0.919548
0.239358
0.115005
0.482152
0.9928
0.999866
0.999986
0.999999
1
1
1
1
1
1
1
1
1
1
1
0.999998
0.999988
0.999988
0.999994
1
0.999985
0.999857
0.999984
1
0.999953
0.999689
0.999898
0.999969
0.996907
1
1
0.999999
0.998387
0.908717
0.794532
0.888297
0.950102
0.81196
0.115005
0.128713
0.710713
0.998831
0.999884
0.99999
0.999999
1
1
1
1
1
1
1
1
1
1
1
0.999995
0.999992
0.999999
1
0.999885
0.999699
0.999746
0.999965
0.999731
0.999688
0.999913
0.999983
0.997011
1
1
1
0.99999
0.994767
0.792468
0.7911
0.953377
0.97095
0.496804
0.142421
0.192836
0.862759
0.999225
0.99991
0.999995
1
1
1
1
1
1
1
1
1
1
1
1
1
1
1
0.999887
0.999695
0.999692
0.999698
0.999688
0.999687
0.999908
0.999983
0.997174
1
1
1
1
0.99987
0.92055
0.790752
0.840914
0.971934
0.948943
0.243992
0.163818
0.340877
0.953481
0.999537
0.999961
0.999997
1
1
1
0.999526
0.999846
1
1
1
1
1
1
1
1
1
0.999962
0.999747
0.99969
0.999688
0.999687
0.999687
0.999921
0.999981
0.997152
1
1
1
1
1
0.999983
0.80463
0.750437
0.972889
0.974184
0.843039
0.166991
0.142918
0.537666
0.994415
0.999756
0.999979
0.999999
1
0.999999
0.999443
0.999998
1
1
1
1
1
1
1
1
0.999999
0.999999
0.999942
0.999724
0.999689
0.999688
0.999749
0.999965
0.999979
0.997153
1
1
1
1
1
1
0.969882
0.750208
0.959435
0.9748
0.9748
0.583884
0.130284
0.114907
0.701445
0.998142
0.999821
0.999987
1
1
0.999998
0.987758
0.999999
1
1
1
1
1
1
1
0.999998
1
1
0.999921
0.999716
0.999752
0.999953
0.999996
0.999978
0.998317
1
1
1
1
1
1
1
0.829788
0.717983
0.964566
0.974872
0.971328
0.295389
0.114907
0.168229
0.863983
0.999041
0.99995
0.999995
0.999999
0.999986
0.983038
0.987256
0.999984
0.999999
1
1
1
1
1
0.999998
1
1
0.999999
0.999962
0.999976
0.999998
0.999998
0.999973
0.999957
1
1
1
1
1
1
1
0.992001
0.593251
0.677439
0.955311
0.969576
0.76713
0.119571
0.0478643
0.396868
0.982107
0.999641
0.999962
0.999993
0.999985
0.999982
0.666287
0.814625
0.981353
0.999997
1
1
1
1
0.999999
1
1
1
0.999999
0.999998
0.999998
0.999998
0.999974
0.999991
1
1
1
1
1
1
0.999999
0.99999
0.653689
0.317279
0.778135
0.968224
0.906588
0.245461
0.0345318
0.0192983
0.519947
0.972861
0.999646
0.999962
0.999982
0.999955
0.569424
0.206236
0.712194
0.96133
1
1
1
1
1
1
1
1
1
0.999998
0.999989
0.999982
0.999985
0.999991
1
1
1
1
1
0.999999
0.999994
0.999941
0.721076
0.232104
0.643965
0.963549
0.921705
0.326528
0.0194998
0.00431075
0.0312186
0.400509
0.79113
0.980419
0.999955
0.999762
0.490105
0.0262236
0.233144
0.625992
0.949443
1
1
1
1
1
1
1
1
0.999987
0.999883
0.999883
0.999984
0.999991
1
1
1
1
0.999999
0.999998
0.999972
0.999662
0.606095
0.207844
0.616076
0.951519
0.906289
0.26624
0.00603578
0.00125486
0.00288286
0.0136863
0.157667
0.427994
0.663195
0.642767
0.285393
0.0110888
0.0120373
0.1275
0.547931
0.919728
1
1
1
1
1
1
1
0.999967
0.999876
0.999876
0.999973
0.999991
1
1
1
0.999999
0.999996
0.999987
0.999849
0.998082
0.282744
0.185183
0.719445
0.937801
0.798567
0.112733
0.00153098
0.000232979
0.000516262
0.00214494
0.00530032
0.0153487
0.0581762
0.0587252
0.0471325
0.00808131
0.00228915
0.00496816
0.0666009
0.42018
0.86595
1
1
1
1
1
1
0.99997
0.999876
0.999876
0.999966
0.999991
1
1
1
0.999998
0.999983
0.99989
0.999102
0.610457
0.0918547
0.167243
0.86354
0.928869
0.526002
0.0111758
0.000234931
2.80315e-05
0.000101149
0.000410655
0.00113018
0.00246073
0.00401591
0.00438299
0.00285492
0.00248415
0.000550432
0.00105643
0.00269984
0.025211
0.304961
0.816436
1
1
1
1
1
0.999989
0.999885
0.999876
0.999966
0.999991
1
1
0.999998
0.999988
0.999944
0.999467
0.959351
0.178979
0.0800107
0.362912
0.939939
0.933988
0.189713
0.000174821
5.97786e-07
3.40999e-06
1.99271e-05
8.85599e-05
0.000247781
0.000550744
0.000936094
0.00105571
0.000720538
0.000225709
0.000134236
0.000229615
0.000523859
0.00143068
0.00972427
0.235513
0.795737
1
1
1
1
0.999999
0.999929
0.999877
0.999946
0.99973
1
0.999999
0.999995
0.999952
0.999617
0.997622
0.447673
0.0521007
0.0709876
0.737543
0.948081
0.731592
0.023691
1.06878e-07
1.4278e-07
4.9251e-07
3.69249e-06
1.97122e-05
5.56777e-05
0.000126041
0.00021843
0.00025327
0.000178318
5.64016e-05
3.26794e-05
5.01241e-05
0.000103714
0.000255117
0.000771098
0.00493197
0.219991
0.842558
1
1
1
1
0.999957
0.999884
0.999937
0.99952
1
1
0.99997
0.99981
0.998296
0.804007
0.109092
0.0471821
0.0925342
0.916897
0.948081
0.367909
1.07312e-07
1.05657e-07
1.07301e-07
1.33554e-07
6.26774e-07
4.2004e-06
1.26252e-05
2.87302e-05
4.97133e-05
5.88851e-05
4.21733e-05
1.4119e-05
7.96194e-06
1.11727e-05
2.08451e-05
4.55938e-05
0.000124323
0.000443985
0.00439226
0.258823
0.935368
1
1