/*--------------------------------*- C++ -*----------------------------------*\
  =========                 |
  \\      /  F ield         | OpenFOAM: The Open Source CFD Toolbox
   \\    /   O peration     | Website:  https://openfoam.org
    \\  /    A nd           | Version:  8
     \\/     M anipulation  |
\*---------------------------------------------------------------------------*/
FoamFile
{
    version     2.0;
    format      ascii;
    class       volScalarField;
    location    "1.45";
    object      nut;
}
// * * * * * * * * * * * * * * * * * * * * * * * * * * * * * * * * * * * * * //

dimensions      [0 2 -1 0 0 0 0];

internalField   nonuniform List<scalar> 
9150
(
9.60215e-06
6.42541e-06
6.86346e-06
9.88305e-06
9.78283e-06
9.78284e-06
9.88316e-06
6.86352e-06
6.42541e-06
9.60215e-06
9.48899e-06
5.75908e-06
8.6928e-06
1.11122e-05
9.13779e-06
9.13778e-06
1.11123e-05
8.69289e-06
5.75908e-06
9.489e-06
9.29728e-06
5.52107e-06
1.13436e-05
1.15112e-05
8.73932e-06
8.73931e-06
1.15112e-05
1.13437e-05
5.52107e-06
9.29728e-06
9.08171e-06
5.44157e-06
1.40397e-05
1.15176e-05
8.53423e-06
8.53422e-06
1.15176e-05
1.40398e-05
5.44157e-06
9.08171e-06
8.84692e-06
5.42275e-06
1.63448e-05
1.14283e-05
8.43217e-06
8.43216e-06
1.14283e-05
1.63449e-05
5.42275e-06
8.84692e-06
5.92422e-06
1.1677e-05
1.52059e-05
2.02843e-05
2.12084e-05
2.12086e-05
2.02851e-05
1.5207e-05
1.16777e-05
5.92427e-06
6.28346e-06
9.01583e-06
1.22538e-05
1.76817e-05
1.84257e-05
1.84258e-05
1.76822e-05
1.22544e-05
9.01611e-06
6.28346e-06
6.83114e-06
7.98556e-06
1.00099e-05
1.50097e-05
1.55427e-05
1.55428e-05
1.501e-05
1.00102e-05
7.98564e-06
6.83113e-06
7.38833e-06
7.35245e-06
8.43867e-06
1.2758e-05
1.31025e-05
1.31026e-05
1.27582e-05
8.43883e-06
7.35246e-06
7.38832e-06
8.07666e-06
6.88374e-06
7.41581e-06
1.0984e-05
1.11239e-05
1.11239e-05
1.09841e-05
7.41589e-06
6.88373e-06
8.07666e-06
1.39345e-05
2.05817e-05
1.55266e-05
1.85369e-05
2.18531e-05
2.18616e-05
1.85679e-05
1.56732e-05
2.09638e-05
1.40054e-05
7.9201e-06
1.12003e-05
1.36953e-05
1.85096e-05
2.19728e-05
2.19779e-05
1.85205e-05
1.37061e-05
1.12057e-05
7.92179e-06
7.47793e-06
1.05176e-05
1.37145e-05
1.86715e-05
2.2118e-05
2.21211e-05
1.86784e-05
1.37202e-05
1.05192e-05
7.47833e-06
7.04648e-06
1.01229e-05
1.37399e-05
1.88061e-05
2.22503e-05
2.22524e-05
1.88105e-05
1.37432e-05
1.01248e-05
7.04664e-06
6.52141e-06
1.03862e-05
1.37614e-05
1.90379e-05
2.22067e-05
2.22078e-05
1.90402e-05
1.37633e-05
1.03877e-05
6.52149e-06
0.000147279
0.000147597
0.000147795
0.000147903
0.000147948
0.000147913
0.000147762
0.000147475
0.000147039
0.000146443
0.00148002
0.00148644
0.00149094
0.00149334
0.00149348
0.00149136
0.0014871
0.00148079
0.00147249
0.00146224
0.0030067
0.00301932
0.00302801
0.00303264
0.00303311
0.00302937
0.00302142
0.00300928
0.00299294
0.00297239
0.00432932
0.00434666
0.00435856
0.00436492
0.00436567
0.00436075
0.0043501
0.00433367
0.00431139
0.00428321
0.00543899
0.00545974
0.00547394
0.00548156
0.00548251
0.00547673
0.00546414
0.00544467
0.00541823
0.00538472
0.00636596
0.00638907
0.00640488
0.00641335
0.00641442
0.00640803
0.0063941
0.00637255
0.00634329
0.00630622
0.00714362
0.00716833
0.00718521
0.00719424
0.00719538
0.00718857
0.00717376
0.00715086
0.00711978
0.00708043
0.00780255
0.0078283
0.00784588
0.00785529
0.00785649
0.00784943
0.00783407
0.00781036
0.00777822
0.00773756
0.00836907
0.00839549
0.00841353
0.00842318
0.00842444
0.00841728
0.00840167
0.00837758
0.00834497
0.00830377
0.00886501
0.00889181
0.00891012
0.00891993
0.00892126
0.0089141
0.00889844
0.00887429
0.00884165
0.0088005
0.00930779
0.00933474
0.00935314
0.00936302
0.00936437
0.00935723
0.00934161
0.00931757
0.00928514
0.00924433
0.00971086
0.00973773
0.00975605
0.00976582
0.00976708
0.00975987
0.00974424
0.00972029
0.00968813
0.00964786
0.0100842
0.0101108
0.0101288
0.0101383
0.0101392
0.0101317
0.0101158
0.0100917
0.0100595
0.0100193
0.0104352
0.0104612
0.0104787
0.0104876
0.010488
0.0104799
0.0104633
0.0104386
0.0104059
0.0103653
0.0107688
0.0107941
0.0108108
0.010819
0.0108185
0.0108095
0.010792
0.0107663
0.0107325
0.0106911
0.0110883
0.0111128
0.0111287
0.0111359
0.0111344
0.0111243
0.0111056
0.0110786
0.0110436
0.0110009
0.0113959
0.0114194
0.0114344
0.0114406
0.0114381
0.0114269
0.0114069
0.0113785
0.0113421
0.0112979
0.0116921
0.0117146
0.0117287
0.0117342
0.0117309
0.0117186
0.0116976
0.0116681
0.0116304
0.011585
0.0119761
0.0119978
0.0120114
0.0120165
0.0120128
0.0120001
0.0119786
0.0119485
0.0119102
0.0118644
0.0122456
0.0122673
0.0122812
0.0122866
0.0122833
0.0122709
0.0122496
0.0122197
0.0121817
0.0121365
0.0124982
0.0125211
0.0125364
0.0125432
0.0125412
0.01253
0.0125097
0.0124808
0.0124439
0.0124
0.0127328
0.0127583
0.0127761
0.0127853
0.0127854
0.0127761
0.0127576
0.0127303
0.012695
0.0126529
0.0129505
0.0129792
0.013
0.013012
0.0130147
0.0130079
0.0129916
0.0129664
0.0129332
0.0128933
0.013153
0.0131844
0.0132079
0.0132227
0.0132281
0.0132238
0.01321
0.0131872
0.0131564
0.013119
0.0133408
0.0133738
0.0133992
0.0134161
0.0134237
0.0134218
0.0134104
0.0133902
0.013362
0.0133273
0.0135126
0.013546
0.0135723
0.0135905
0.0135998
0.0135998
0.0135906
0.0135727
0.0135471
0.0135152
0.0136663
0.0136991
0.0137254
0.013744
0.0137543
0.0137557
0.0137482
0.0137324
0.013709
0.0136792
0.0137999
0.0138313
0.0138568
0.0138752
0.0138858
0.013888
0.0138819
0.0138677
0.013846
0.0138179
0.013911
0.0139408
0.0139652
0.0139831
0.0139937
0.0139964
0.0139912
0.0139783
0.0139581
0.0139315
0.0139985
0.0140269
0.0140503
0.0140676
0.014078
0.0140811
0.0140767
0.0140649
0.0140463
0.0140213
0.0140624
0.0140897
0.0141122
0.0141291
0.0141394
0.0141429
0.0141392
0.0141286
0.0141114
0.0140883
0.0141041
0.0141304
0.0141523
0.0141687
0.0141791
0.0141829
0.0141799
0.0141704
0.0141547
0.0141335
0.0141253
0.0141506
0.0141718
0.0141879
0.0141983
0.0142023
0.0142
0.0141915
0.0141771
0.0141575
0.0141276
0.0141518
0.0141723
0.014188
0.0141982
0.0142025
0.0142006
0.0141928
0.0141794
0.0141612
0.0141121
0.0141352
0.014155
0.0141702
0.0141803
0.0141845
0.0141829
0.0141756
0.0141629
0.0141457
0.0140799
0.0141019
0.0141209
0.0141356
0.0141453
0.0141494
0.0141479
0.0141408
0.0141285
0.014112
0.0140318
0.0140527
0.0140707
0.0140848
0.0140941
0.014098
0.0140963
0.0140892
0.0140771
0.0140609
0.0139684
0.0139881
0.0140052
0.0140186
0.0140273
0.0140308
0.0140289
0.0140215
0.0140094
0.0139932
0.0138901
0.0139085
0.0139246
0.0139372
0.0139454
0.0139484
0.013946
0.0139383
0.0139257
0.0139092
0.0137973
0.0138142
0.0138293
0.0138412
0.0138487
0.0138511
0.0138481
0.0138399
0.0138267
0.0138097
0.0136901
0.0137056
0.0137196
0.0137306
0.0137374
0.0137392
0.0137356
0.0137266
0.0137128
0.0136952
0.0135684
0.0135824
0.0135954
0.0136056
0.0136117
0.0136128
0.0136085
0.0135987
0.0135841
0.0135657
0.0134316
0.0134444
0.0134564
0.013466
0.0134715
0.013472
0.0134668
0.0134562
0.0134406
0.0134213
0.0132792
0.0132911
0.0133025
0.0133116
0.0133166
0.0133165
0.0133106
0.0132989
0.0132822
0.0132616
0.0131107
0.0131221
0.0131333
0.0131422
0.013147
0.0131464
0.0131398
0.0131271
0.013109
0.0130869
0.0129257
0.0129371
0.0129485
0.0129577
0.0129626
0.0129618
0.0129546
0.0129409
0.0129215
0.0128978
0.0127242
0.012736
0.0127482
0.0127581
0.0127635
0.0127629
0.0127553
0.0127409
0.0127202
0.012695
0.0125059
0.012519
0.0125325
0.0125436
0.01255
0.0125499
0.0125424
0.0125275
0.0125059
0.0124792
0.0122714
0.0122864
0.0123018
0.0123146
0.0123224
0.0123233
0.0123164
0.0123014
0.0122792
0.0122515
0.0120217
0.0120391
0.0120569
0.0120719
0.0120815
0.0120839
0.0120779
0.0120634
0.012041
0.0120127
0.0117584
0.0117786
0.0117991
0.0118166
0.0118284
0.0118327
0.011828
0.0118143
0.0117923
0.0117638
0.0114834
0.0115067
0.0115301
0.0115502
0.0115645
0.0115708
0.0115678
0.0115553
0.011534
0.0115057
0.0111993
0.0112258
0.011252
0.0112748
0.0112915
0.0112999
0.0112987
0.0112877
0.0112676
0.0112398
0.0109092
0.0109386
0.0109674
0.0109926
0.0110115
0.0110219
0.0110227
0.0110135
0.0109948
0.0109681
0.0106163
0.0106481
0.010679
0.010706
0.0107267
0.010739
0.0107418
0.0107345
0.0107178
0.0106929
0.0103238
0.0103571
0.0103892
0.0104174
0.0104393
0.0104532
0.0104578
0.0104528
0.0104384
0.010416
0.0100335
0.0100674
0.0100999
0.0101285
0.0101511
0.0101662
0.0101725
0.0101698
0.0101583
0.0101389
0.00974656
0.00978024
0.00981234
0.00984074
0.00986358
0.00987942
0.00988733
0.00988692
0.00987842
0.00986258
0.00946314
0.00949598
0.00952716
0.00955488
0.00957754
0.0095939
0.00960315
0.00960496
0.00959949
0.00958738
0.00918308
0.00921461
0.00924452
0.00927125
0.00929346
0.00931009
0.00932046
0.00932429
0.00932171
0.00931324
0.00890583
0.00893578
0.0089642
0.00898978
0.00901136
0.00902807
0.00903934
0.00904491
0.00904492
0.00903979
0.00863064
0.0086589
0.00868578
0.00871014
0.00873102
0.00874767
0.00875961
0.00876664
0.00876886
0.00876666
0.00835675
0.00838334
0.00840871
0.0084319
0.00845206
0.00846856
0.00848099
0.00848919
0.00849326
0.00849352
0.00808346
0.00810849
0.00813248
0.00815457
0.00817404
0.00819034
0.00820312
0.00821224
0.00821782
0.00822015
0.00781025
0.00783385
0.00785658
0.00787767
0.00789649
0.00791255
0.00792557
0.00793544
0.00794228
0.00794634
0.00753666
0.00755891
0.00758044
0.00760058
0.00761877
0.00763459
0.0076478
0.00765831
0.00766624
0.00767184
0.00726215
0.00728298
0.00730328
0.00732245
0.00734
0.00735556
0.00736894
0.00738007
0.00738907
0.00739617
0.00698584
0.00700499
0.00702386
0.00704193
0.00705877
0.00707407
0.00708767
0.00709952
0.00710972
0.00711847
0.00670621
0.00672321
0.0067403
0.00675703
0.00677304
0.00678808
0.006802
0.00681478
0.00682647
0.00683727
0.00642094
0.00643511
0.00644991
0.00646499
0.00648003
0.00649482
0.00650924
0.00652324
0.00653689
0.00655031
0.00612688
0.00613742
0.00614938
0.00616246
0.00617638
0.00619097
0.00620608
0.0062217
0.00623785
0.00625463
0.00582029
0.00582647
0.00583511
0.00584592
0.00585865
0.0058731
0.00588915
0.00590675
0.00592595
0.00594679
0.00549768
0.00549908
0.00550419
0.00551268
0.00552426
0.0055387
0.00555585
0.00557569
0.00559826
0.00562366
0.00515719
0.00515393
0.00515576
0.00516223
0.0051729
0.00518747
0.00520578
0.0052278
0.00525369
0.00528363
0.00480019
0.00479313
0.00479253
0.00479767
0.0048079
0.00482277
0.00484206
0.00486584
0.0048944
0.00492816
0.00443268
0.00442341
0.00442181
0.00442671
0.00443714
0.00445244
0.00447234
0.00449702
0.00452702
0.00456311
0.00406548
0.00405609
0.00405524
0.00406123
0.00407263
0.00408847
0.00410843
0.00413285
0.00416263
0.00419902
0.00371275
0.00370524
0.00370686
0.00371522
0.0037283
0.00374479
0.00376424
0.00378724
0.00381514
0.00384978
0.00338872
0.00338439
0.00338961
0.00340123
0.00341653
0.00343374
0.00345229
0.00347305
0.00349794
0.00352948
0.00310402
0.00310282
0.00311175
0.00312684
0.00314458
0.00316257
0.00318012
0.00319847
0.00322021
0.00324864
0.00286316
0.00286327
0.00287469
0.00289267
0.00291266
0.00293149
0.00294825
0.00296472
0.00298437
0.00301133
0.0026642
0.00266198
0.00267337
0.0026928
0.00271448
0.00273413
0.00275059
0.00276635
0.002786
0.00281463
0.00250037
0.00249082
0.00249856
0.00251733
0.0025398
0.0025602
0.00257698
0.00259361
0.0026161
0.00265051
0.00236264
0.00234016
0.00233998
0.00235549
0.00237759
0.00239859
0.00241639
0.00243576
0.0024644
0.00250921
0.00224205
0.00220132
0.00218882
0.00219817
0.00221857
0.00223993
0.00225948
0.00228359
0.00232184
0.00238154
0.00213013
0.00206761
0.00203898
0.00203928
0.00205649
0.00207788
0.00209991
0.00213079
0.00218173
0.00225962
0.00202213
0.00193565
0.00188774
0.00187603
0.00188836
0.00190938
0.0019347
0.00197447
0.00204085
0.00213927
0.00191498
0.00180427
0.00173476
0.00170813
0.0017137
0.00173392
0.00176353
0.00181445
0.00189864
0.00201856
0.00180688
0.00167334
0.00158094
0.00153665
0.00153346
0.0015525
0.00158766
0.00165217
0.0017559
0.00189682
0.00169798
0.00154364
0.00142776
0.00136323
0.00134916
0.00136677
0.00140918
0.00148989
0.00161437
0.00177501
0.00158884
0.00141583
0.00127658
0.00118946
0.00116222
0.0011784
0.00123031
0.00132995
0.00147572
0.00165436
0.0014792
0.00128982
0.00112846
0.001017
0.000973922
0.000988862
0.00105323
0.00117419
0.00134063
0.00153508
0.00136707
0.00116471
0.000984383
0.000848212
0.000786127
0.000800137
0.000880599
0.00102404
0.00120855
0.0014154
0.00124939
0.00103941
0.000845668
0.000686855
0.000602336
0.000615783
0.00071629
0.000880988
0.0010785
0.00129251
0.00112585
0.000914756
0.000714428
0.00053797
0.00042872
0.000441824
0.00056511
0.000746928
0.000951116
0.00116598
0.00100204
0.00079488
0.000593052
0.000405642
0.000274481
0.000286858
0.000430441
0.000623556
0.000829957
0.00104123
0.000888901
0.0006863
0.000481833
0.000289369
0.000151329
0.000161356
0.000310592
0.000509871
0.000720319
0.000928386
0.000807387
0.000593271
0.000373244
0.000183204
6.99289e-05
7.54304e-05
0.000198444
0.000396575
0.000624249
0.000846461
0.000784415
0.000492391
0.000244797
8.75056e-05
3.16819e-05
3.3029e-05
9.45606e-05
0.000259552
0.000514823
0.000817138
0.000670666
0.000282359
9.0555e-05
2.88323e-05
2.24557e-05
2.25388e-05
2.98076e-05
9.45964e-05
0.000289464
0.000678671
0.000145613
0.000144554
0.000143281
0.000141792
0.000140095
0.0001382
0.000136124
0.000133889
0.000131514
0.000129021
0.000126433
0.00012387
0.000121373
0.000118877
0.000116358
0.000113808
0.000111228
0.00010862
0.000105987
0.000103331
0.000100653
9.79538e-05
9.52316e-05
9.24849e-05
8.97108e-05
8.69053e-05
8.40632e-05
8.11775e-05
7.82397e-05
7.52389e-05
7.21605e-05
6.89851e-05
6.56843e-05
6.22125e-05
5.84789e-05
5.41704e-05
4.93391e-05
4.33614e-05
3.61253e-05
1.42827e-05
0.00144929
0.00143312
0.00141456
0.00139375
0.00137087
0.0013462
0.00132005
0.00129275
0.00126461
0.00123577
0.00120604
0.00117432
0.00114065
0.00110641
0.00107237
0.00103893
0.00100627
0.000974462
0.000943492
0.000913306
0.000883828
0.000854971
0.000826644
0.000798751
0.000771195
0.000743877
0.000716696
0.000689546
0.000662311
0.000634857
0.000607007
0.000578507
0.000548944
0.000517595
0.000483091
0.000442667
0.000390798
0.000312762
0.000188355
2.34499e-05
0.00294607
0.00291292
0.00287456
0.00283122
0.00278327
0.00273123
0.00267571
0.0026174
0.00255693
0.00249478
0.00243116
0.00236587
0.00229892
0.00223123
0.00216353
0.00209635
0.00203005
0.00196482
0.00190075
0.00183787
0.00177612
0.00171542
0.00165564
0.00159663
0.0015382
0.00148016
0.00142225
0.00136418
0.0013056
0.00124604
0.00118486
0.00112109
0.0010533
0.00097915
0.000894852
0.000794186
0.000667144
0.000498549
0.000271404
2.95772e-05
0.00424695
0.00420108
0.0041478
0.00408738
0.00402028
0.00394716
0.00386884
0.00378624
0.00370028
0.00361173
0.00352118
0.00342897
0.00333517
0.00324051
0.0031456
0.00305094
0.00295688
0.0028637
0.00277153
0.00268047
0.0025905
0.00250155
0.00241349
0.00232612
0.0022392
0.00215239
0.00206529
0.00197739
0.00188802
0.00179629
0.001701
0.00160042
0.00149209
0.00137236
0.00123589
0.0010749
0.000878407
0.000632374
0.000326207
3.36974e-05
0.00534156
0.00528684
0.00522318
0.00515083
0.00507028
0.00498228
0.0048878
0.00478792
0.00468371
0.00457616
0.00446606
0.00435396
0.00424
0.00412484
0.00400904
0.00389302
0.00377715
0.00366168
0.0035468
0.00343261
0.00331912
0.00320627
0.00309389
0.00298175
0.0028695
0.00275671
0.00264279
0.00252699
0.00240834
0.00228554
0.00215686
0.00201994
0.00187155
0.0017072
0.00152076
0.00130396
0.00104616
0.000735396
0.000367384
3.66824e-05
0.00625844
0.00619784
0.00612725
0.00604691
0.00595732
0.00585926
0.00575381
0.00564218
0.00552554
0.00540491
0.00528117
0.00515493
0.00502638
0.00489614
0.0047647
0.00463246
0.00449973
0.00436678
0.0042338
0.00410087
0.00396802
0.00383514
0.00370204
0.00356842
0.00343384
0.00329773
0.00315932
0.00301766
0.00287148
0.00271914
0.00255849
0.0023867
0.00220004
0.00199358
0.00176088
0.0014938
0.00118255
0.000817446
0.000399649
3.90474e-05
0.00702973
0.00696541
0.00689043
0.00680497
0.00670947
0.00660473
0.00649199
0.00637263
0.00624785
0.00611856
0.00598556
0.00584938
0.00571043
0.00556922
0.00542617
0.00528163
0.00513591
0.00498925
0.00484182
0.0046937
0.00454487
0.00439519
0.0042444
0.00409212
0.00393781
0.00378076
0.00362007
0.00345455
0.00328271
0.00310263
0.00291188
0.00270729
0.00248487
0.0022395
0.00196479
0.00165299
0.00129538
0.000884467
0.000425903
4.10087e-05
0.00768522
0.0076188
0.0075413
0.00745276
0.00735346
0.00724409
0.00712636
0.00700168
0.00687158
0.0067367
0.00659747
0.00645441
0.00630802
0.00615874
0.00600692
0.00585288
0.00569697
0.00553941
0.00538033
0.00521976
0.00505762
0.00489371
0.0047277
0.00455912
0.00438731
0.00421144
0.00403046
0.00384303
0.00364745
0.00344161
0.00322287
0.00298789
0.00273255
0.00245174
0.00213929
0.00178801
0.00139027
0.000940538
0.000448049
4.2692e-05
0.0082508
0.00818364
0.00810525
0.00801552
0.00791424
0.00780148
0.00767919
0.00755012
0.00741587
0.00727689
0.00713338
0.00698534
0.00683339
0.00667792
0.0065193
0.00635777
0.00619365
0.00602719
0.0058585
0.00568753
0.00551413
0.00533802
0.00515878
0.00497583
0.00478842
0.0045956
0.00439619
0.00418869
0.00397128
0.00374171
0.00349719
0.00323432
0.00294898
0.00263617
0.00229004
0.00190401
0.0014715
0.000988637
0.000467407
4.41813e-05
0.00874769
0.00868095
0.00860346
0.00851534
0.00841108
0.00829369
0.0081677
0.00803489
0.00789711
0.00775483
0.00760804
0.00745648
0.00730004
0.00713905
0.00697422
0.00680662
0.00663561
0.00646165
0.00628481
0.00610497
0.00592189
0.00573517
0.00554431
0.00534862
0.00514724
0.00493913
0.00472297
0.00449716
0.00425978
0.00400846
0.00374036
0.00345207
0.00313952
0.00279793
0.00242179
0.00200516
0.00154238
0.00103096
0.000484886
4.5537e-05
0.00919209
0.00912622
0.00904973
0.00896136
0.00885488
0.00873301
0.00860356
0.00846828
0.00832795
0.00818298
0.00803344
0.00787895
0.00771895
0.00755324
0.00738255
0.00720856
0.00703129
0.00685078
0.00666689
0.00647937
0.00628784
0.00609182
0.00589067
0.00568361
0.0054697
0.00524777
0.00501641
0.00477394
0.00451834
0.00424717
0.00395758
0.00364616
0.00330899
0.00294149
0.00253855
0.00209479
0.00160539
0.00106898
0.000501047
4.68049e-05
0.00959666
0.00953283
0.00945988
0.00937137
0.00925884
0.00913244
0.00899933
0.00886134
0.00871867
0.0085711
0.0084182
0.00826013
0.00809649
0.00792665
0.0077507
0.00757093
0.00738802
0.0072017
0.00701162
0.00681734
0.00661836
0.00641407
0.00620374
0.0059865
0.00576128
0.00552684
0.00528168
0.00502404
0.00475183
0.0044626
0.00415346
0.00382108
0.00346161
0.0030707
0.00264359
0.00217542
0.0016621
0.00110317
0.000515489
4.8062e-05
0.0099686
0.0099056
0.00983292
0.00974249
0.00962722
0.00949767
0.00936163
0.00922106
0.00907602
0.00892628
0.00877072
0.00860744
0.00843892
0.00826511
0.00808443
0.00789971
0.00771194
0.00752057
0.00732504
0.00712479
0.00691919
0.00670754
0.00648899
0.00626258
0.00602717
0.00578141
0.00552374
0.00525232
0.00496501
0.00465931
0.00433236
0.00398087
0.00360109
0.00318888
0.00273978
0.00224936
0.00171413
0.00113447
0.000528596
4.93316e-05
0.0103144
0.0102515
0.0101785
0.0100849
0.00996411
0.00983082
0.00969138
0.00954729
0.00939893
0.00924631
0.00908925
0.00892518
0.00875189
0.00857349
0.00838853
0.00820003
0.00800829
0.0078126
0.00761232
0.0074068
0.00719531
0.00697707
0.00675116
0.00651652
0.00627192
0.00601594
0.00574695
0.00546303
0.005162
0.00484134
0.00449817
0.00412926
0.00373096
0.0032993
0.00283009
0.00231927
0.00176387
0.00116495
0.000541825
5.05981e-05
0.0106392
0.0105754
0.0105024
0.0104083
0.0102814
0.0101425
0.00999827
0.00984958
0.00969679
0.00953991
0.00937862
0.0092123
0.0090377
0.00885499
0.0086673
0.00847631
0.00828148
0.00808218
0.00787779
0.00766762
0.00745092
0.00722681
0.0069943
0.00675227
0.00649941
0.00623423
0.00595501
0.00565978
0.0053463
0.00501204
0.0046541
0.00426929
0.00385404
0.00340453
0.00291679
0.00238707
0.0018128
0.00119559
0.000555538
5.18734e-05
0.010948
0.0108835
0.0108111
0.0107189
0.010587
0.0104405
0.0102892
0.0101342
0.00997569
0.00981358
0.00964742
0.00947655
0.00929932
0.00911477
0.00892591
0.00873295
0.00853552
0.00833311
0.00812513
0.00791086
0.00768952
0.00746018
0.00722178
0.00697314
0.00671286
0.0064394
0.00615095
0.0058455
0.00552074
0.0051741
0.00480269
0.00440331
0.00397248
0.00350646
0.00300147
0.00245398
0.00186175
0.00122678
0.000569823
5.31653e-05
0.0112435
0.0111773
0.011103
0.0110177
0.0108899
0.0107306
0.0105695
0.0104066
0.0102414
0.0100734
0.0099022
0.00972694
0.00954591
0.00935959
0.009169
0.00897395
0.00877405
0.00856879
0.00835754
0.00813959
0.00791408
0.00768005
0.00743637
0.0071818
0.00691487
0.00663395
0.00633719
0.00602248
0.00568748
0.00532957
0.00494582
0.00453305
0.00408778
0.00360636
0.00308512
0.0025207
0.00191108
0.00125857
0.000584478
5.44707e-05
0.0115294
0.0114624
0.0113882
0.0113067
0.011182
0.0110123
0.0108415
0.0106705
0.0104983
0.0103238
0.010147
0.00996689
0.00978262
0.0095935
0.0094004
0.00920284
0.00900029
0.00879218
0.00857781
0.0083564
0.00812707
0.00788876
0.00764031
0.00738038
0.00710745
0.00681982
0.00651553
0.00619245
0.00584813
0.00547991
0.00508482
0.00465964
0.00420092
0.00370502
0.00316832
0.0025876
0.00196098
0.001291
0.000599516
5.57882e-05
0.0118089
0.0117429
0.0116714
0.0115962
0.01147
0.0112881
0.0111072
0.0109279
0.0107487
0.0105678
0.010385
0.0102
0.0100114
0.00981902
0.00962285
0.00942232
0.00921683
0.00900569
0.00878817
0.00856341
0.00833043
0.00808815
0.00783531
0.0075705
0.00729213
0.00699839
0.00668729
0.00635657
0.00600375
0.00562606
0.00522049
0.00478378
0.00431242
0.0038028
0.00325131
0.0026548
0.0020115
0.00132415
0.000615095
5.71221e-05
0.0120822
0.0120185
0.0119514
0.0118836
0.0117526
0.0115582
0.0113677
0.0111803
0.010994
0.0108069
0.0106185
0.0104281
0.0102346
0.0100383
0.00983839
0.00963438
0.00942553
0.00921111
0.00899028
0.00876213
0.00852561
0.00827954
0.00802259
0.00775327
0.00746991
0.00717061
0.00685328
0.00651559
0.00615495
0.00576853
0.00535323
0.00490572
0.00442244
0.00389974
0.00333401
0.00272211
0.00206236
0.00135766
0.000630863
5.84597e-05
0.0123475
0.0122868
0.012224
0.0121619
0.0120261
0.0118218
0.0116233
0.0114286
0.0112355
0.0110425
0.0108485
0.0106522
0.0104536
0.0102525
0.0100482
0.00984019
0.00962756
0.00940953
0.0091852
0.00895356
0.0087135
0.00846375
0.0082029
0.00792937
0.00764138
0.00733696
0.00701391
0.00666981
0.00630197
0.00590745
0.00548308
0.00502542
0.00453085
0.00399564
0.00341614
0.00278919
0.00211316
0.00139111
0.00064644
5.9783e-05
0.0126028
0.0125452
0.0124865
0.0124287
0.0122882
0.0120781
0.0118738
0.0116731
0.0114742
0.0112755
0.0110753
0.0108728
0.0106684
0.010462
0.0102528
0.0100403
0.00982342
0.00960146
0.0093734
0.00913816
0.00889453
0.00864116
0.00837656
0.00809904
0.00780674
0.00749757
0.00716925
0.00681922
0.00644472
0.00604268
0.00560982
0.0051426
0.00463731
0.00409012
0.00349732
0.00285572
0.0021637
0.00142447
0.000661998
6.10913e-05
0.0128457
0.0127915
0.0127372
0.0126834
0.0125404
0.0123271
0.0121188
0.0119136
0.0117096
0.0115054
0.0112989
0.0110895
0.0108789
0.0106666
0.010452
0.0102345
0.0100131
0.00978689
0.0095549
0.00931593
0.0090687
0.00881177
0.00854353
0.00826222
0.00796587
0.00765228
0.00731906
0.00696356
0.00658287
0.00617383
0.00573302
0.0052568
0.00474132
0.00418268
0.00357709
0.0029213
0.00221371
0.0014577
0.000677736
6.23878e-05
0.0130743
0.0130237
0.0129737
0.0129253
0.0127839
0.012569
0.0123585
0.0121499
0.0119413
0.0117315
0.0115184
0.0113019
0.0110844
0.0108657
0.0106453
0.0104224
0.0101961
0.00996543
0.00972934
0.00948656
0.00923571
0.00897526
0.00870351
0.00841858
0.00811841
0.0078007
0.00746294
0.00710235
0.00671591
0.00630034
0.00585209
0.00536738
0.00484226
0.00427269
0.00365479
0.00298525
0.00226247
0.00148993
0.000692685
6.36372e-05
0.0132859
0.0132394
0.0131948
0.0131468
0.0130098
0.0128031
0.0125934
0.0123828
0.0121694
0.0119535
0.0117334
0.0115091
0.0112841
0.0110585
0.0108317
0.0106031
0.0103717
0.0101364
0.00989612
0.00964949
0.00939504
0.00913113
0.00885598
0.00856761
0.00826384
0.00794228
0.00760028
0.00723498
0.00684321
0.00642156
0.00596635
0.00547368
0.00493944
0.00435949
0.00372982
0.00304708
0.00230967
0.00152126
0.000707503
6.48538e-05
0.013477
0.0134345
0.013396
0.0133473
0.0132211
0.0130294
0.0128242
0.0126115
0.0123932
0.0121717
0.0119441
0.0117107
0.0114771
0.0112438
0.0110103
0.0107757
0.010539
0.010299
0.0100545
0.00980403
0.00954602
0.00927874
0.00900032
0.00870867
0.00840152
0.00807635
0.00773044
0.00736077
0.00696406
0.00653678
0.00607511
0.00557499
0.00503218
0.00444241
0.00380154
0.00310614
0.00235459
0.00155067
0.000720773
6.59863e-05
0.0136428
0.0136008
0.0135593
0.0135104
0.0134131
0.0132445
0.0130397
0.012827
0.0126086
0.012385
0.0121502
0.0119059
0.0116621
0.0114204
0.0111797
0.010939
0.010697
0.0104523
0.0102036
0.00994938
0.0096879
0.00941738
0.00913583
0.00884108
0.00853075
0.00820225
0.0078527
0.00747901
0.00707776
0.00664529
0.00617764
0.00567062
0.00511985
0.00452089
0.00386952
0.0031622
0.0023973
0.00157877
0.000733678
6.7066e-05
0.0137826
0.0137404
0.0136954
0.0136415
0.0135579
0.0134193
0.0132256
0.0130165
0.0128039
0.012582
0.0123442
0.0120906
0.0118364
0.0115862
0.0113385
0.0110917
0.0108445
0.0105953
0.0103426
0.0100847
0.00981991
0.00954629
0.00926178
0.00896412
0.00865084
0.00831924
0.00796637
0.007589
0.0071836
0.00674639
0.00627328
0.00575992
0.00520182
0.0045944
0.00393332
0.00321496
0.00243771
0.00160566
0.000746421
6.81011e-05
0.0138976
0.0138561
0.0138106
0.013755
0.0136737
0.0135562
0.013383
0.0131768
0.0129656
0.0127482
0.0125153
0.0122581
0.0119957
0.0117383
0.0114843
0.0112322
0.0109802
0.0107268
0.0104703
0.0102091
0.00994118
0.00966468
0.00937742
0.00907707
0.00876108
0.00842666
0.00807077
0.00769006
0.00728092
0.00683942
0.00636136
0.00584227
0.00527751
0.00466237
0.00399239
0.00326387
0.00247515
0.00163042
0.00075776
6.90523e-05
0.0139892
0.0139495
0.0139059
0.0138508
0.0137702
0.013663
0.0135066
0.0133068
0.0130957
0.0128812
0.0126555
0.0124032
0.0121366
0.0118739
0.0116151
0.0113585
0.0111025
0.0108455
0.0105858
0.0103215
0.0100509
0.00977176
0.00948201
0.00917923
0.0088608
0.00852385
0.00816525
0.00778158
0.0073691
0.0069238
0.00644133
0.00591711
0.00534636
0.00472427
0.00404625
0.00330852
0.00250938
0.00165311
0.000768314
6.99288e-05
0.0140585
0.0140218
0.0139817
0.0139288
0.0138475
0.0137436
0.0135972
0.0134059
0.0131973
0.0129837
0.0127621
0.0125206
0.012257
0.011991
0.0117289
0.0114691
0.0112101
0.0109503
0.0106879
0.0104211
0.0101481
0.00986672
0.00957482
0.00926992
0.00894936
0.00861021
0.00824926
0.007863
0.00744763
0.006999
0.00651268
0.00598396
0.00540794
0.00477969
0.00409452
0.00334856
0.00254009
0.0016735
0.000777787
7.07233e-05
0.0141062
0.0140727
0.0140367
0.0139858
0.0139032
0.0137997
0.0136588
0.0134749
0.0132713
0.0130604
0.0128429
0.0126112
0.012355
0.0120881
0.0118243
0.0115627
0.0113018
0.0110399
0.0107755
0.0105069
0.010232
0.00994883
0.00965516
0.00934852
0.0090262
0.00868521
0.00832229
0.00793388
0.00751606
0.00706462
0.00657503
0.00604245
0.00546189
0.00482829
0.00413687
0.00338366
0.00256694
0.00169116
0.000785835
7.1442e-05
0.0141324
0.0141019
0.0140694
0.0140206
0.0139373
0.0138331
0.0136946
0.0135169
0.0133193
0.0131126
0.0128987
0.0126727
0.0124278
0.0121649
0.0119006
0.0116383
0.0113764
0.0111135
0.010848
0.010578
0.0103019
0.0100174
0.00972246
0.00941451
0.00909083
0.00874843
0.00838398
0.00799386
0.00757411
0.00712041
0.00662814
0.00609238
0.00550804
0.00486995
0.00417322
0.00341382
0.00259
0.0017063
0.000792716
7.20759e-05
0.0141379
0.0141098
0.0140803
0.0140344
0.0139524
0.0138481
0.013711
0.0135386
0.0133466
0.0131445
0.0129346
0.0127138
0.0124761
0.0122185
0.0119562
0.0116949
0.0114334
0.0111704
0.0109045
0.010634
0.0103571
0.010072
0.00977621
0.00946744
0.00914289
0.00879954
0.00843405
0.00804274
0.00762158
0.0071662
0.0066719
0.00613368
0.00554635
0.00490465
0.00420361
0.00343913
0.00260941
0.0017191
0.000798546
7.26213e-05
0.0141238
0.0140977
0.0140708
0.0140293
0.0139508
0.0138475
0.0137119
0.0135438
0.0133566
0.0131585
0.0129522
0.0127357
0.0125037
0.012251
0.0119917
0.0117324
0.0114722
0.01121
0.0109444
0.0106741
0.0103972
0.0101119
0.00981599
0.00950694
0.00918206
0.00883831
0.00847231
0.00808035
0.00765837
0.00720194
0.0067063
0.00616636
0.00557686
0.00493247
0.00422812
0.00345967
0.00262527
0.00172961
0.000803372
7.30762e-05
0.0140911
0.0140665
0.0140419
0.0140065
0.0139348
0.0138323
0.0136972
0.0135329
0.0133496
0.0131552
0.0129523
0.0127395
0.0125119
0.0122635
0.0120077
0.0117509
0.0114926
0.0112319
0.0109675
0.010698
0.0104218
0.010137
0.00984147
0.00953276
0.00920814
0.00886456
0.00849865
0.00810665
0.00768448
0.00722767
0.00673138
0.0061905
0.00559967
0.00495351
0.00424687
0.00347554
0.00263765
0.0017379
0.000807205
7.34458e-05
0.0140406
0.0140172
0.0139945
0.0139651
0.0139017
0.0138013
0.013667
0.0135052
0.0133254
0.0131345
0.0129352
0.0127259
0.0125019
0.0122572
0.0120047
0.0117508
0.0114949
0.0112361
0.0109734
0.0107054
0.0104305
0.0101469
0.00985248
0.00954475
0.00922102
0.00887826
0.00851306
0.00812167
0.00769997
0.00724346
0.00674727
0.00620623
0.00561493
0.00496791
0.00425999
0.00348688
0.00264666
0.00174404
0.000810083
7.37316e-05
0.0139731
0.0139501
0.0139283
0.0139047
0.01385
0.0137522
0.0136191
0.0134598
0.0132837
0.013097
0.0129017
0.0126959
0.0124749
0.0122331
0.0119835
0.0117323
0.011479
0.0112227
0.0109623
0.0106964
0.0104235
0.0101417
0.009849
0.00954291
0.00922074
0.00887944
0.00851562
0.00812551
0.00770497
0.00724948
0.00675414
0.00621373
0.00562281
0.00497587
0.00426766
0.00349383
0.00265241
0.00174809
0.000812031
7.39385e-05
0.0138888
0.0138654
0.0138425
0.0138221
0.013781
0.0136862
0.0135549
0.0133985
0.0132264
0.013044
0.0128526
0.0126498
0.012431
0.0121914
0.0119443
0.0116959
0.0114455
0.0111919
0.0109343
0.0106711
0.0104007
0.0101215
0.00983116
0.00952738
0.00920743
0.00886827
0.00850651
0.00811837
0.00769969
0.00724595
0.00675221
0.00621324
0.00562356
0.0049776
0.00427006
0.00349655
0.00265503
0.00175015
0.000813098
7.40695e-05
0.0137888
0.0137651
0.013742
0.0137217
0.0136869
0.0136021
0.0134774
0.0133248
0.0131559
0.0129768
0.0127883
0.0125876
0.0123698
0.0121318
0.0118873
0.0116419
0.0113945
0.0111443
0.0108898
0.0106298
0.0103627
0.0100866
0.00979927
0.00949845
0.00918139
0.00884504
0.00848601
0.00810052
0.00768441
0.00723313