/*--------------------------------*- C++ -*----------------------------------*\
  =========                 |
  \\      /  F ield         | OpenFOAM: The Open Source CFD Toolbox
   \\    /   O peration     | Website:  https://openfoam.org
    \\  /    A nd           | Version:  8
     \\/     M anipulation  |
\*---------------------------------------------------------------------------*/
FoamFile
{
    version     2.0;
    format      ascii;
    class       volScalarField;
    location    "1.45";
    object      p_rgh;
}
// * * * * * * * * * * * * * * * * * * * * * * * * * * * * * * * * * * * * * //

dimensions      [1 -1 -2 0 0 0 0];

internalField   nonuniform List<scalar> 
9150
(
2551.28
2524.37
2498.78
2481.57
2473.24
2473.24
2481.57
2498.78
2524.37
2551.28
2542.04
2522.57
2506.84
2495.04
2489.03
2489.03
2495.04
2506.84
2522.57
2542.04
2532.4
2518.91
2510.29
2502.55
2498.41
2498.41
2502.55
2510.29
2518.91
2532.4
2527.28
2517.38
2511.81
2506.48
2503.49
2503.49
2506.48
2511.81
2517.37
2527.28
2525.58
2516.84
2512.13
2507.98
2505.53
2505.53
2507.97
2512.13
2516.84
2525.58
2086.75
2082.29
2107.57
2121.98
2128.51
2128.51
2121.96
2107.55
2082.26
2086.71
2276.49
2252.17
2246.82
2245.6
2245.61
2245.61
2245.59
2246.8
2252.16
2276.48
2400.83
2369.14
2353.11
2343.23
2338.48
2338.48
2343.22
2353.11
2369.14
2400.82
2500.94
2458.5
2430.51
2413.18
2404.64
2404.64
2413.18
2430.51
2458.49
2500.94
2570
2518.04
2479.41
2457.39
2447.23
2447.23
2457.39
2479.41
2518.03
2570
1901.98
1942.22
1933.04
1940.62
1936.43
1936.4
1940.57
1932.92
1941.98
1901.58
1929.38
1949.39
1930.46
1937.89
1934.92
1934.88
1937.87
1930.34
1949.23
1929.09
1904.6
1937.89
1908.75
1914.6
1918.47
1918.46
1914.56
1908.66
1937.75
1904.43
1745.61
1871.33
1891.92
1909.66
1925.52
1925.51
1909.62
1891.85
1871.26
1745.46
1627.69
1860.58
1958.52
1988.7
2003.96
2003.95
1988.67
1958.48
1860.54
1627.59
1786.31
1793.72
1798.1
1799.42
1797.69
1792.91
1785.03
1774.13
1760.35
1743.88
1702.04
1708.09
1711.73
1712.73
1710.88
1706.22
1698.99
1689.35
1677.44
1663.59
1608.05
1611.87
1613.96
1614.17
1612.44
1608.8
1603.33
1596.12
1587.34
1577.27
1551.54
1554.43
1555.89
1555.88
1554.4
1551.45
1547.08
1541.36
1534.42
1526.4
1519.39
1521.73
1522.95
1523.05
1521.98
1519.74
1516.36
1511.87
1506.34
1499.86
1505.64
1507.77
1509.08
1509.54
1509.11
1507.79
1505.56
1502.42
1498.37
1493.4
1506.64
1508.75
1510.34
1511.39
1511.89
1511.83
1511.2
1510.02
1508.24
1505.74
1519.15
1521.16
1523.05
1524.81
1526.46
1528.07
1529.67
1531.32
1533.04
1535.15
1539.99
1541.59
1543.55
1545.9
1548.68
1551.98
1555.88
1560.41
1566.04
1575.12
1565.6
1566.5
1568.25
1570.91
1574.53
1579.18
1584.86
1591.82
1602.2
1620.48
1592.04
1592.3
1593.69
1596.34
1600.29
1605.53
1611.98
1620.74
1635.76
1656.38
1616.29
1616.05
1617.22
1619.73
1623.67
1628.92
1635.68
1646.34
1664.12
1671.92
1636.13
1635.37
1636.83
1639.53
1643.51
1648.78
1656.4
1670.07
1687.7
1663.46
1652.37
1650.3
1651.95
1654.86
1658.71
1663.79
1672.01
1687.18
1699.07
1640.38
1666.75
1662.21
1663.23
1665.98
1669.44
1674.2
1682.94
1698.03
1698.76
1578.71
1676.37
1670.63
1670.73
1672.99
1675.71
1679.65
1687.81
1701.65
1694.15
1529.6
1687.52
1679.68
1676.7
1676.55
1676.53
1676.74
1678.99
1682.45
1662.05
1489.31
1699.14
1689.66
1682.81
1679.76
1676.93
1673.32
1668.62
1658
1627
1474.82
1702.05
1696.06
1689.02
1686.05
1684.19
1682.24
1676.33
1642.53
1557.74
1504.99
1704.3
1702.71
1696.47
1694.67
1695.45
1697.81
1692.78
1620.11
1451.71
1453.73
1713.26
1712.05
1704.28
1702.27
1704.18
1708.35
1703.02
1606.59
1434.61
1425.48
1707.77
1711.03
1704.78
1703.84
1706.69
1711.58
1707.61
1614.23
1428.53
1420.73
1697.92
1703.79
1701.55
1701.96
1704.83
1709.45
1708.78
1647.41
1427.84
1414.68
1692.64
1697.5
1698.05
1698.79
1700.26
1702.25
1700.25
1662.78
1479.54
1395.29
1684.33
1690.23
1693.67
1694.89
1694.76
1692.04
1674.76
1652.21
1561.93
1511.79
1620.82
1683.42
1697.56
1699.38
1698.85
1694.38
1658.95
1572.2
1573.38
1579.79
1527.83
1638.86
1705.74
1710.53
1709.98
1705.81
1659.68
1475.12
1514.82
1585.61
1514.28
1554.64
1707.36
1718.21
1718.64
1716.06
1671.08
1453.47
1442.03
1577.84
1505.77
1511.76
1706.55
1719.31
1718.98
1716.32
1687.4
1504.91
1431.2
1522.67
1501.22
1506.9
1705.05
1717.21
1716.87
1715.65
1706.72
1636.01
1417.18
1389.37
1497.18
1527.24
1703.46
1714.11
1714.74
1715.08
1713.31
1677.67
1448.88
1386.39
1492.58
1542.91
1702.06
1711.7
1713.43
1715.06
1716.19
1693.14
1533.12
1387.39
1486.02
1539.42
1701.5
1710.16
1712.69
1715.26
1717.82
1700.51
1560.55
1433.09
1476.44
1504.94
1696.39
1708.7
1711.93
1715.24
1718.55
1703.38
1539.67
1433.56
1473.92
1479.16
1683.69
1706.37
1710.33
1714.25
1718.23
1707.77
1525.77
1449.98
1471.92
1476.06
1672.83
1703.26
1707.41
1711.33
1715.3
1714.02
1611.75
1545.76
1502.44
1471.44
1660.13
1699.5
1704.07
1708.45
1712.8
1716.18
1687.7
1659.14
1554.03
1452.85
1630.78
1692.77
1698.97
1704.7
1710.14
1715.03
1695.14
1611.93
1551.92
1444.58
1608.29
1690.51
1696.59
1702.83
1708.77
1714.31
1681.4
1509.43
1550.57
1437.97
1588.2
1690.3
1695.53
1701.82
1707.82
1713.72
1681.47
1489.58
1551.35
1433.16
1584.09
1690.96
1695.19
1701.16
1706.73
1712.21
1707.31
1520.65
1532.93
1427.73
1617.83
1692.72
1696.14
1701.44
1706.28
1710.97
1716.54
1617.84
1417.44
1422.1
1652.28
1695.89
1698.08
1702.16
1705.63
1708.87
1714.19
1624.12
1415.18
1416.36
1660.01
1697.93
1699.04
1702.1
1704.18
1705.58
1709.16
1623.02
1417.41
1416.81
1661.6
1700.55
1700.68
1703.07
1704.29
1704.51
1706.63
1657.2
1421.75
1420.1
1672.2
1703.8
1703.27
1705.13
1705.81
1705.33
1706.09
1693.5
1430.27
1436.8
1696.35
1708.26
1707.1
1708.09
1708.15
1707.34
1707.01
1708.95
1425.86
1520.96
1712.36
1711.19
1710.19
1710.33
1709.63
1708.32
1706.87
1708.9
1420.09
1583.33
1719.8
1713.45
1712.55
1711.83
1710.23
1707.97
1705.2
1705.25
1470.13
1630.63
1724.53
1717.56
1715.71
1713.78
1711.21
1708.05
1704.29
1703.19
1608.09
1688.14
1732.69
1724.59
1720.35
1716.65
1713.03
1709.43
1705.68
1704.44
1610.98
1714.13
1733.63
1725.89
1720.94
1716.35
1711.99
1707.84
1703.7
1701.33
1555.18
1719.02
1728.67
1722.44
1717.84
1712.89
1707.82
1702.65
1697.01
1692.32
1618.72
1731.58
1726.35
1720.3
1714.83
1708.91
1702.83
1696.47
1689.22
1682.06
1700.42
1733.92
1724.21
1717.86
1711.5
1704.91
1698.35
1691.74
1684.62
1677.27
1720.72
1726.96
1719.43
1713.3
1706.73
1699.91
1693.09
1686.29
1679.26
1671.79
1728.94
1720.29
1714.15
1708
1701.22
1694.01
1686.43
1678.38
1669.48
1659.12
1719.13
1712.97
1708.16
1702.54
1696.08
1688.85
1680.79
1671.68
1661.06
1648.07
1707.87
1705.63
1702.71
1698.45
1693.13
1686.81
1679.44
1670.9
1660.89
1648.91
1702.1
1702.07
1700.45
1697.48
1693.39
1688.22
1681.92
1674.41
1665.53
1655.04
1700.62
1701.86
1701.46
1699.77
1696.95
1693.01
1687.93
1681.63
1673.99
1664.84
1703.71
1705.66
1706.22
1705.65
1704.05
1701.47
1697.94
1693.46
1688.02
1681.62
1710.69
1713.02
1714.23
1714.48
1713.85
1712.43
1710.28
1707.45
1703.97
1699.98
1722.02
1723.89
1725.06
1725.57
1725.47
1724.83
1723.71
1722.13
1720.16
1717.94
1734.42
1735.89
1736.94
1737.55
1737.78
1737.68
1737.3
1736.67
1735.86
1734.98
1747.46
1748.44
1749.2
1749.74
1750.09
1750.28
1750.35
1750.32
1750.24
1750.23
1759.86
1760.4
1760.9
1761.34
1761.73
1762.08
1762.42
1762.76
1763.17
1763.7
1770.82
1771.09
1771.42
1771.79
1772.19
1772.62
1773.09
1773.63
1774.28
1775.08
1780.15
1780.27
1780.52
1780.87
1781.27
1781.73
1782.25
1782.86
1783.6
1784.53
1787.39
1787.67
1788.07
1788.51
1788.97
1789.43
1789.9
1790.42
1791.02
1791.75
1792.78
1793.53
1794.26
1794.92
1795.48
1795.93
1796.29
1796.59
1796.85
1797.12
1797.03
1798.39
1799.56
1800.49
1801.17
1801.61
1801.82
1801.81
1801.6
1801.22
1801.12
1803.07
1804.65
1805.84
1806.64
1807.06
1807.1
1806.78
1806.09
1805.06
1805.58
1808.08
1810.08
1811.53
1812.45
1812.85
1812.73
1812.09
1810.93
1809.3
1810.7
1813.79
1816.24
1818
1819.07
1819.46
1819.17
1818.18
1816.5
1814.2
1816.95
1820.59
1823.5
1825.58
1826.82
1827.22
1826.78
1825.49
1823.34
1820.45
1824.11
1828.37
1831.78
1834.23
1835.67
1836.1
1835.5
1833.87
1831.22
1827.67
1832.39
1837.19
1841.05
1843.84
1845.48
1845.94
1845.2
1843.26
1840.16
1836.03
1840.76
1846.22
1850.61
1853.77
1855.63
1856.12
1855.21
1852.93
1849.31
1844.48
1848.48
1854.65
1859.63
1863.23
1865.33
1865.87
1864.79
1862.15
1857.98
1852.45
1854.8
1861.43
1867.08
1871.15
1873.53
1874.1
1872.82
1869.71
1864.84
1858.7
1860.14
1866.09
1872.13
1876.7
1879.35
1879.99
1878.53
1874.99
1869.69
1864.17
1863.72
1867.97
1873.88
1878.95
1881.98
1882.72
1881.09
1877.18
1872.14
1868.55
1866.29
1868.82
1873.2
1878.17
1881.46
1882.32
1880.67
1877.04
1873.75
1872.23
1862.95
1867.59
1869.87
1874.12
1877.48
1878.44
1876.86
1874.1
1873.08
1869.49
1851.28
1864.12
1864.8
1867.6
1870.64
1871.65
1870.47
1869.21
1869.87
1857.9
1830.27
1856.78
1857.51
1858.78
1861.28
1862.29
1861.66
1862.01
1862.67
1836.26
1810.22
1843.67
1846.69
1847.8
1850.02
1850.96
1850.49
1850.91
1849.19
1815.26
1742.28
1831.14
1836.49
1837.81
1839.71
1840.49
1840.04
1840
1835.67
1757.53
1488.5
1821.87
1829.2
1830.75
1832.29
1832.89
1832.48
1831.93
1825.26
1502.77
1372.16
1817.78
1825.1
1827.17
1828.63
1829.04
1828.37
1827.04
1820.14
1385.15
1303.06
1818.95
1825.29
1827.94
1829.5
1829.74
1828.68
1826.52
1820.45
1315.53
1270.05
1824.35
1829.92
1833.08
1834.82
1834.94
1833.45
1830.6
1825.35
1280.35
1274.19
1833.15
1838.57
1842.14
1844.09
1844.11
1842.25
1838.84
1833.53
1283.71
1341.73
1847.21
1850.62
1854.42
1856.35
1856.32
1854.34
1850.6
1847.35
1348.53
1417.06
1861.31
1864.73
1868.26
1869.77
1869.72
1868.1
1864.54
1861.18
1422.81
1511.28
1875.23
1878.89
1881.68
1882.89
1882.86
1881.52
1878.61
1874.95
1515.44
1605.24
1888.87
1894.13
1895.74
1897.17
1897.15
1895.62
1893.87
1888.49
1607.7
1714.75
1913.72
1916.26
1913.55
1913.3
1913.27
1913.47
1916.26
1913.46
1715.33
1813.49
1947.55
1936.21
1930.62
1927.36
1927.33
1930.57
1936.28
1947.48
1813.34
1723.79
1700.11
1674.49
1647.53
1619.9
1592.3
1565.4
1539.79
1515.95
1494.27
1475.05
1458.32
1443.84
1431.37
1420.82
1412.14
1405.24
1399.97
1396.2
1393.76
1392.5
1392.28
1392.97
1394.45
1396.59
1399.29
1402.46
1406
1409.81
1413.82
1417.92
1422.03
1426.05
1429.86
1433.49
1437.71
1443.22
1442.6
1443.37
1443.98
1647.19
1627.82
1607.15
1585.86
1564.52
1543.68
1523.81
1505.28
1488.35
1473.13
1459.63
1448.06
1438.48
1430.55
1424.09
1418.99
1415.13
1412.39
1410.67
1409.86
1409.87
1410.59
1411.95
1413.84
1416.19
1418.93
1421.96
1425.21
1428.59
1432.01
1435.35
1438.49
1441.3
1443.64
1445.52
1446.83
1445.82
1443.57
1444.92
1444.73
1565.53
1551.82
1537.41
1522.88
1508.68
1495.21
1482.82
1471.72
1462.03
1453.73
1446.76
1441.03
1436.41
1432.72
1429.84
1427.7
1426.25
1425.46
1425.26
1425.61
1426.45
1427.72
1429.37
1431.32
1433.52
1435.91
1438.42
1440.97
1443.48
1445.85
1447.98
1449.76
1451.06
1451.79
1452
1451.88
1451.88
1451.6
1448.94
1454.43
1516.95
1506.14
1494.86
1483.48
1472.37
1461.98
1452.73
1444.94
1438.72
1434.06
1430.8
1428.7
1427.46
1426.87
1426.76
1427.03
1427.63
1428.53
1429.73
1431.19
1432.89
1434.77
1436.8
1438.94
1441.13
1443.32
1445.46
1447.49
1449.35
1450.96
1452.25
1453.17
1453.67
1453.79
1453.67
1453.64
1454.42
1457.66
1464.52
1470.09
1492.04
1482.69
1472.43
1461.5
1450.36
1439.62
1429.99
1422.07
1416.3
1413.02
1412.3
1413.41
1415.38
1417.56
1419.8
1422.13
1424.51
1426.91
1429.35
1431.83
1434.34
1436.85
1439.33
1441.74
1444.05
1446.23
1448.23
1450.01
1451.54
1452.78
1453.7
1454.3
1454.64
1454.82
1455.1
1455.89
1458.09
1463.52
1473.37
1481.49
1486.97
1478.55
1468.65
1457.51
1444.95
1430.2
1413.72
1398.08
1386.02
1379.33
1381.44
1389.87
1399.17
1406.86
1412.14
1416.12
1419.46
1422.67
1426.04
1429.47
1432.84
1436.08
1439.14
1442.01
1444.64
1447.02
1449.12
1450.93
1452.43
1453.62
1454.52
1455.18
1455.7
1456.25
1457.11
1458.71
1461.96
1468.52
1479.11
1488.08
1502.26
1497.93
1493.41
1485.61
1464.34
1416.05
1353.68
1302.45
1276.92
1262.89
1271.54
1294.54
1329.1
1371.3
1396.95
1409.97
1415.55
1418
1421.23
1425.29
1429.52
1433.61
1437.44
1440.95
1444.11
1446.92
1449.35
1451.43
1453.15
1454.55
1455.68
1456.6
1457.46
1458.43
1459.8
1461.95
1465.67
1472.31
1482.25
1490.87
1539.34
1547.1
1548.88
1508.56
1379.63
1250.79
1199.67
1183.76
1182.67
1182.58
1183.41
1187.38
1197.95
1220.51
1269.54
1342.61
1397.65
1407.16
1412.56
1418.38
1424.3
1429.85
1434.87
1439.36
1443.32
1446.78
1449.76
1452.29
1454.42
1456.19
1457.67
1458.94
1460.15
1461.47
1463.13
1465.45
1469.06
1474.97
1483.35
1490.24
1591.04
1600.89
1535.27
1325.85
1190.01
1183.57
1182.35
1182.39
1182.47
1182.55
1182.66
1182.85
1183.27
1184.12
1185.7
1212.3
1322.3
1386.15
1398.99
1409.16
1417.94
1425.59
1432.23
1437.97
1442.94
1447.21
1450.87
1453.97
1456.59
1458.8
1460.66
1462.29
1463.78
1465.29
1467
1469.15
1472.18
1476.8
1483.08
1487.45
1639.33
1590.34
1330.99
1185.83
1183.22
1182.57
1182.46
1182.56
1182.68
1182.8
1182.93
1183.06
1183.19
1183.32
1183.43
1183.37
1279.2
1366.97
1387.81
1402.18
1413.56
1422.96
1430.95
1437.81
1443.69
1448.72
1453.02
1456.68
1459.79
1462.41
1464.63
1466.52
1468.19
1469.74
1471.3
1473.01
1475.15
1478.17
1482.09
1484.14
1640.06
1424.43
1195.88
1181.91
1181.57
1181.89
1182.12
1182.32
1182.53
1182.78
1182.99
1183.17
1183.29
1183.31
1183.12
1183.5
1277.61
1368.76
1383.82
1400.12
1412.88
1423.17
1431.93
1439.48
1445.98
1451.56
1456.35
1460.46
1463.95
1466.9
1469.38
1471.46
1473.18
1474.63
1475.86
1476.97
1478.06
1479.35
1480.88
1480.73
1583.55
1258.01
1181.08
1179.52
1180.16
1180.86
1181.41
1181.84
1182.22
1182.65
1183.11
1183.4
1183.56
1183.57
1183.12
1187.32
1309.53
1374.34
1387.67
1403.68
1416.26
1426.52
1435.39
1443.14
1449.89
1455.74
1460.81
1465.18
1468.92
1472.08
1474.71
1476.84
1478.51
1479.73
1480.54
1480.94
1480.93
1480.49
1479.72
1478.26
1429.62
1190.76
1176.52
1176.28
1177.49
1179.12
1180.55
1181.35
1182.44
1183.9
1184.21
1184.33
1184.41
1184.41
1184.08
1210.24
1369.39
1384.22
1397.87
1411.93
1423.11
1432.6
1441.04
1448.56
1455.21
1461.06
1466.19
1470.64
1474.47
1477.7
1480.36
1482.44
1483.96
1484.88
1485.2
1484.86
1483.77
1481.73
1478.9
1476.52
1308.83
1179.85
1176.26
1175.06
1177.26
1183.29
1194.02
1213.62
1213.91
1199.85
1184.77
1185.2
1185.4
1185.29
1185.39
1286.24
1398.83
1399.04
1411.57
1422.85
1432.18
1440.56
1448.25
1455.25
1461.56
1467.2
1472.2
1476.58
1480.35
1483.53
1486.1
1488.05
1489.33
1489.91
1489.71
1488.66
1486.56
1483.1
1478.48
1474.65
1260.69
1187.37
1183.18
1182.61
1185.65
1211.53
1212.13
1209.99
1207.14
1207.52
1195.7
1186.64
1187.44
1186.95
1216.84
1400.04
1410.25
1416.09
1426.08
1434.6
1442.23
1449.47
1456.32
1462.68
1468.51
1473.8
1478.54
1482.73
1486.34
1489.37
1491.77
1493.51
1494.51
1494.71
1494.01
1492.29
1489.3
1484.62
1478.56
1473.58
1237.89
1186.3
1192.64
1205.06
1208.93
1211.73
1197.62
1196.97
1198.47
1200.24
1207
1190.86
1191
1193.02
1311.18
1429.64
1422.81
1430.93
1438.92
1445.7
1452.17
1458.52
1464.61
1470.35
1475.68
1480.57
1484.99
1488.9
1492.27
1495.07
1497.24
1498.72
1499.43
1499.25
1498.09
1495.79
1492.06
1486.4
1479.18
1473.08
1249.11
1193.73
1214.18
1222.84
1196.36
1190.05
1180.7
1180.68
1185.27
1189.25
1192.31
1184.33
1191.32
1222.25
1426.86
1434.1
1436.61
1444.23
1450.48
1456.14
1461.8
1467.41
1472.85
1478.01
1482.85
1487.32
1491.37
1494.96
1498.05
1500.58
1502.49
1503.69
1504.09
1503.58
1502.03
1499.29
1495.03
1488.7
1479.66
1468.78
1374.68
1357.59
1292.5
1190.3
1149.31
1144.23
1150.04
1158.72
1147.52
1179.15
1168.26
1166.79
1171.76
1294.31
1450.32
1441.72
1448.53
1455.22
1460.6
1465.73
1470.87
1475.95
1480.85
1485.51
1489.89
1493.94
1497.62
1500.87
1503.64
1505.87
1507.5
1508.42
1508.54
1507.74
1505.88
1502.83
1498.23
1491.49
1479.1
1469.99
1485.27
1478.82
1314.83
1131.69
1105.28
1101.39
1120.94
1131.67
1124.62
1140.74
1145.6
1143.29
1165.85
1392.9
1449.42
1452.06
1459.35
1465.13
1470.06
1474.85
1479.58
1484.19
1488.62
1492.82
1496.77
1500.41
1503.71
1506.61
1509.06
1510.99
1512.32
1512.97
1512.82
1511.76
1509.66
1506.36
1501.51
1494.41
1482.78
1475.6
1496.7
1481.33
1266.34
1102
1082.93
1084.36
1107.61
1116.15
1109.88
1118.21
1127.92
1117.17
1211.1
1465.65
1459.09
1464.49
1470.31
1475.08
1479.51
1483.87
1488.14
1492.27
1496.25
1500.01
1503.53
1506.77
1509.7
1512.25
1514.37
1515.99
1517.05
1517.44
1517.07
1515.81
1513.53
1510.09
1505.15
1498.12
1488.46
1476.03
1498.87
1456.68
1155.8
1088.75
1074.75
1084.62
1098.35
1107.4
1093.75
1104.49
1113.27
1100.6
1296.86
1467.28
1469.23
1475.3
1480.36
1484.66
1488.74
1492.71
1496.56
1500.25
1503.77
1507.12
1510.23
1513.08
1515.63
1517.84
1519.64
1520.98
1521.78
1521.95
1521.4
1520.02
1517.68
1514.25
1509.42
1502.63
1491.25
1475.27
1495
1342.11
1099.01
1076.93
1068.46
1085.65
1087.13
1092.07
1073.72
1082.46
1094.87
1109.57
1385.61
1476.64
1480.89
1486.35
1490.7
1494.5
1498.13
1501.63
1505.01
1508.24
1511.31
1514.23
1516.94
1519.41
1521.6
1523.47
1524.97
1526.04
1526.61
1526.61
1525.93
1524.48
1522.16
1518.84
1514.23
1505.69
1486.22
1480.48
1442.75
1276.69
1079.04
1063.01
1056
1068.26
1076.05
1067.3
1051.83
1057.7
1060.9
1118.79
1433.42
1492.96
1495.57
1498.84
1501.91
1504.88
1507.84
1510.74
1513.58
1516.32
1518.94
1521.43
1523.73
1525.83
1527.67
1529.23
1530.44
1531.27
1531.63
1531.47
1530.69
1529.19
1526.9
1523.69
1519.27
1510.16
1492.42
1490.71
1359.79
1261.78
1059.81
1038.51
1035.96
1036.48
1065.03
1034.99
1031.3
1037.15
1033.15
1096.5
1433.55
1507.03
1508.82
1510.58
1512.72
1515.05
1517.44
1519.84
1522.18
1524.46
1526.65
1528.74
1530.66
1532.4
1533.92
1535.18
1536.14
1536.75
1536.95
1536.68
1535.86
1534.4
1532.23
1529.24
1525.1
1518.08
1511.34
1506.79
1498.92
1259.12
1025.22
1015.65
1017.8
1015.23
1024.86
1007.99
1011.04
1018.84
1013.89
1064.48
1412.61
1519.27
1520.8
1521.65
1523.16
1525
1526.93
1528.9
1530.82
1532.69
1534.49
1536.2
1537.77
1539.18
1540.41
1541.4
1542.14
1542.57
1542.64
1542.29
1541.47
1540.09
1538.09
1535.35
1531.65
1526.77
1521.12
1497.38
1539.71
1201.22
1005.16
1005.56
1007.64
1006.33
1002.85
998.062
999.825
1003.36
1003.4
1028.2
1348.17
1529.74
1531.53
1532.06
1533.2
1534.72
1536.31
1537.93
1539.51
1541.03
1542.49
1543.86
1545.11
1546.23
1547.18
1547.94
1548.49
1548.77
1548.76
1548.4
1547.66
1546.46
1544.77
1542.5
1539.49
1534.63
1516.21
1486.71
1488.14
1159.54
997.112
1000.22
1001.09
999.372
996.86
994.4
994.721
994.433
996.941
1002.78
1224.92
1533.67
1539.66
1541.25
1542.62
1544.13
1545.6
1546.98
1548.31
1549.54
1550.7
1551.76
1552.72
1553.57
1554.28
1554.84
1555.22
1555.39
1555.32
1554.99
1554.36
1553.39
1552.05
1550.3
1548
1537.45
1497.61
1495.24
1434.91
1158.71
991.764
993.603
993.547
992.849
991.058
989.666
988.836
989.152
990.144
992.353
1100.52
1499.69
1549.02
1551.45
1552.77
1554.06
1555.3
1556.41
1557.44
1558.37
1559.22
1559.99
1560.67
1561.26
1561.75
1562.12
1562.34
1562.41
1562.3
1561.99
1561.46
1560.68
1559.62
1558.26
1556.48
1546.01
1508.68
1506.87
1418.65
1185.34
987.886
986.317
986.721
986.328
985.407
984.645
984.084
984.061
984.109
984.582
1017.4
1397.79
1561.63
1563.8
1564.3
1564.94
1565.68
1566.38
1567.03
1567.6
1568.12
1568.58
1568.99
1569.33
1569.6
1569.79
1569.87
1569.85
1569.71
1569.43
1569
1568.4
1567.61
1566.62
1565.25
1558.9
1553.62
1555.99
1413.39
1185.48
984.9
981.764
981.192
980.326
980.381
980.207
979.985
979.739
979.183
978.843
985.899
1234.84
1570.71
1576.7
1576.45
1576.39
1576.56
1576.78
1577.02
1577.21
1577.39
1577.55
1577.68
1577.78
1577.84
1577.86
1577.81
1577.71
1577.55
1577.3
1576.98
1576.56
1576.04
1575.42
1574.58
1573.54
1572.57
1571.82
1370.86
1130.91
982.307
977.57
977.05
975.826
976.358
976.547
976.506
976.248
975.628
975.464
976.756
1095.3
1552.72
1589.67
1588.97
1588.18
1587.78
1587.51
1587.33
1587.16
1587
1586.86
1586.73
1586.6
1586.47
1586.32
1586.16
1585.99
1585.8
1585.6
1585.37
1585.12
1584.86
1584.58
1584.27
1583.98
1583.66
1583.5
1297.83
1093.27
978.015
974.307
974.847
972.939
973.456
973.636
973.591
973.343
972.876
972.472
971.686
986.309
1500.03
1603.46
1602.07
1600.34
1599.28
1598.5
1597.89
1597.37
1596.9
1596.48
1596.1
1595.76
1595.45
1595.16
1594.9
1594.66
1594.46
1594.29
1594.16
1594.08
1594.06
1594.12
1594.28
1594.53
1594.9
1595.38
1272.89
1088.79
974.151
972.024
973.17
970.876
971.24
971.37
971.345
971.194
970.899
970.504
970.205
971.072
1400.27
1615.57
1613.93
1611.94
1610.55
1609.45
1608.52
1607.71
1606.98
1606.34
1605.75
1605.22
1604.75
1604.33
1603.98
1603.7
1603.49
1603.35
1603.32
1603.4
1603.61
1603.98
1604.55
1605.26
1606.37
1607.33
1394.61
1176.98
971.202
970.252
971.317
968.983
969.27
969.432
969.479
969.451
969.374
969.265
969.245
969.563
1259.16
1618.93
1624.45
1622.83
1621.47
1620.28
1619.17
1618.14
1617.21
1616.38
1615.63
1614.94
1614.33
1613.8
1613.37
1613.05
1612.83
1612.74
1612.79
1613.02
1613.44
1614.09
1615.03
1616.24
1617.95
1618.26
1544.98
1281.46
969.313
968.952
969.243
967.065
967.389
967.63
967.728
967.751
967.742
967.715
967.696
967.682
1147.09
1607.41
1635.74
1633.99
1632.58
1631.25
1629.96
1628.73
1627.62
1626.61
1625.7
1624.88
1624.15
1623.52
1623.02
1622.66
1622.43
1622.38
1622.52
1622.88
1623.5
1624.4
1625.67
1627.44
1629.61
1627.84
1572.05
1330.14
967.448
967.422
966.825
965.684
965.883
966.085
966.164
966.181
966.17
966.147
966.113
966.006
1101.39
1594.57
1647.43
1645.25
1643.8
1642.32
1640.84
1639.44
1638.16
1637
1635.94
1634.99
1634.15
1633.44
1632.88
1632.47
1632.24
1632.22
1632.43
1632.91
1633.68
1634.8
1636.35
1638.5
1640.48
1639.29
1582.75
1348.84
965.359
965.898
965.41
964.881
964.803
964.794
964.761
964.714
964.672
964.641
964.612
964.513
1094.19
1596.78
1659.08
1656.52
1655.04
1653.42
1651.77
1650.22
1648.79
1647.48
1646.29
1645.22
1644.28
1643.49
1642.86
1642.42
1642.19
1642.18
1642.45
1643.02
1643.93
1645.22
1647
1649.44
1649
1650.57
1557.09
1392.26
964.874
965.638
964.754
964.07
963.713
963.506
963.361
963.248
963.173
963.13
963.116
963.041
1101.83
1611.34
1670.36
1667.65
1666.21
1664.49
1662.69
1661.01
1659.45
1658.01
1656.69
1655.51
1654.48
1653.61
1652.92
1652.44
1652.19
1652.2
1652.5
1653.14
1654.15
1655.57
1657.52
1659.05
1659.31
1661.56
1500.58
1467.88
1028.87
964.841
962.752
962.356
962.124
961.936
961.754
961.643
961.576
961.544
961.524
961.401
1134.01
1638.28
1681.23
1678.71
1677.32
1675.5
1673.58
1671.77
1670.1
1668.54
1667.11
1665.82
1664.69
1663.74
1662.99
1662.46
1662.18
1662.19
1662.51
1663.19
1664.27
1665.78
1667.86
1667.56
1669.91
1673.45
1494.94
1511.96
1161.25
958.522
959.881
960.242
960.091
960.028
959.914
959.883
959.882
959.911
959.885
959.552
1198.05
1672.97
1691.78
1689.73
1688.38
1686.45
1684.38
1682.46
1680.69
1679.02
1677.47
1676.08
1674.85
1673.82
1672.99
1672.41
1672.09
1672.07
1672.4
1673.1
1674.22
1675.79
1677.94
1678.76
1680.83
1686.15
1491.07
1521.8
1269.56
957.476
958.347
958.207
958.14
958.125
958.114
958.108
958.212
958.475
958.652
957.93
1298.99
1701.88
1701.73
1700.54
1699.29
1697.28
1695.08
1693.06
1691.2
1689.41
1687.74
1686.23
1684.89
1683.76
1682.86
1682.21
1681.83
1681.78
1682.09
1682.79
1683.93
1685.54
1687.67
1690.52
1693.88
1696.39
1494.18
1520.33
1359.39
955.649
956.051
956.165
956.368
956.245
956.18
956.186
956.332
956.751
957.477
959.888
1441.97
1718.35
1712.57
1711.85
1710.42
1708.17
1705.84
1703.65
1701.64
1699.69
1697.87
1696.22
1694.76
1693.52
1692.51
1691.77
1691.33
1691.23
1691.49
1692.17
1693.3
1694.91
1697.06
1700.1
1703.56
1705.43
1492.91
1510.77
1445.09
952.389
953.934
954.703
954.603
954.213
953.977
953.92
953.966
954.124
954.895
1010.75
1579.09
1729.56
1725.07
1723.9
1721.85
1719.19
1716.63
1714.22
1711.98
1709.81
1707.81
1705.99
1704.38
1703
1701.87
1701.03
1700.5
1700.33
1700.54
1701.17
1702.27
1703.86
1706.06
1709.06
1712.5
1714.16
1477.26
1496.03
1510.35
950.956
954.044
953.962
952.422
951.761
951.385
951.259
951.327
951.274
950.76
1127.16
1689.26
1740.63
1737.42
1735.72
1733.07
1730.09
1727.25
1724.62
1722.1
1719.7
1717.48
1715.46
1713.68
1712.14
1710.87
1709.9
1709.27
1709
1709.14
1709.72
1710.77
1712.34
1714.53
1717.51
1720.6
1722.59
1472.59
1493.12
1559.79
1058.41
954.1
950.698
948.693
948.301
948.255
948.41
948.943
949.472
948.331
1319.03
1750.55
1750.78
1748.98
1747.02
1743.93
1740.71
1737.65
1734.74
1731.93
1729.27
1726.82
1724.58
1722.59
1720.87
1719.44
1718.33
1717.57
1717.2
1717.24
1717.75
1718.75
1720.28
1722.45
1725.42
1728.22
1730.49
1477.96
1484.04
1600.49
1275.73
944.686
944.848
943.597
943.893
944.256
944.613
945.173
946.814
969.791
1545.86
1769.37
1762.98
1761.23
1758.49
1754.87
1751.29
1747.9
1744.6
1741.46
1738.51
1735.78
1733.29
1731.06
1729.14
1727.52
1726.25
1725.35
1724.85
1724.79
1725.21
1726.14
1727.63
1729.77
1732.73
1735.81
1738.18
1595.86
1478.32
1601.58
1429.47
941.183
940.788
940.175
940.19
940.441
940.71
940.606
939.9
1094.29
1710.67
1781.61
1776.66
1773.81
1769.96
1765.76
1761.75
1757.87
1754.16
1750.65
1747.36
1744.32
1741.54
1739.06
1736.9
1735.07
1733.62
1732.56
1731.92
1731.75
1732.07
1732.94
1734.37
1736.49
1739.44
1742.94
1745.52
1679.77
1463.58
1578.7
1520.53
937.774
939.874
938.499
937.39
937.372
937.841
938.326
936.982
1328.8
1792.38
1792.61
1789.05
1785.48
1780.9
1776.26
1771.77
1767.44
1763.32
1759.41
1755.75
1752.36
1749.27
1746.51
1744.09
1742.04
1740.38
1739.15
1738.37
1738.07
1738.3
1739.09
1740.47
1742.57
1745.53
1749.07
1751.68
1681.02
1452.5
1565.58
1584.09
949.737
937.062
933.902
932.821
932.65
933.168
935.326
966.122
1586.35
1812.64
1804.84
1801.4
1796.92
1791.63
1786.38
1781.27
1776.53
1771.99
1767.65
1763.59
1759.83
1756.41
1753.34
1750.64
1748.35
1746.48
1745.06
1744.13
1743.71
1743.85
1744.56
1745.9
1747.99
1750.98
1754.56
1757.22
1681.27
1456.24
1574.04
1610.21
1112.25
924.604
926.211
926.572
926.303
926.185
925.913
1110.26
1758.76
1824.92
1818.61
1813.9
1808.16
1802.09
1796.11
1790.42
1785.05
1780.08
1775.27
1770.77
1766.62
1762.83
1759.44
1756.45
1753.9
1751.82
1750.22
1749.14
1748.6
1748.65
1749.31
1750.62
1752.7
1755.73
1759.38
1762.1
1695.3
1524.1
1559.04
1616.14
1265.4
916.808
920.376
919.852
920.127
920.785
919.344
1372.89
1839.33
1837.28
1831.62
1825.68
1818.87
1812.02
1805.32
1798.98
1792.98
1787.46
1782.14
1777.18
1772.61
1768.44
1764.71
1761.42
1758.62
1756.31
1754.53
1753.31
1752.67
1752.64
1753.26
1754.52
1756.65
1759.75
1763.48
1766.27
1700.75
1585.28
1480.47
1604.93
1369.06
911.715
912.137
910.577
911.237
914.048
966.066
1644.97
1860.48
1851.55
1844.75
1837.21
1829.23
1821.45
1813.88
1806.81
1800.16
1793.98
1788.11
1782.66
1777.66
1773.12
1769.04
1765.47
1762.42
1759.9
1757.95
1756.6
1755.87
1755.79
1756.34
1757.62
1759.79
1762.98
1766.82
1769.69
1693.96
1551.68
1458.56
1570.16
1482.87
903.29
904.532
902.84
902.297
901.712
1150.25
1821.31
1876.14
1866.5
1857.53
1848.17
1838.92
1829.96
1821.56
1813.65
1806.33
1799.45
1793.01
1787.08
1781.66
1776.75
1772.24
1768.43
1765.24
1762.55
1760.46
1759
1758.19
1758.05
1758.57
1759.89
1762.11
1765.39
1769.34
1772.32
1682.84
1523.14
1443.32
1544.49
1588.83
900.031
898.11
895.322
895.195
894.636
1436.88
1896.09
1890.76
1879.91
1869
1858.03
1847.39
1837.42
1828.05
1819.27
1811.25
1803.67
1796.69
1790.3
1784.5
1779.15
1774.46
1770.4
1766.94
1764.2
1762.06
1760.5
1759.63
1759.41
1759.96
1761.3
1763.59
1766.94
1771.03
1774.13
1675.49
1612.6
1443.43
1552.95
1609.95
1147.41
880.266
878.21
881.465
945.8
1682.95
1918.5
1906.67
1892.89
1879.58
1866.74
1854.68
1843.47
1833.03
1823.42
1814.62
1806.43
1798.95
1792.16
1785.95
1780.39
1775.54
1771.32
1767.74
1764.87
1762.69
1761.09
1760.16
1759.92
1760.49
1761.85
1764.2
1767.64
1771.87
1775.08
1667.44
1668.28
1430.21
1465.52
1588.01
1480.24
849.948
852.49
851.766
1107.45
1855.43
1939.82
1922.6
1904.74
1888.67
1873.81
1860.09
1847.55
1836.05
1825.65
1816.15
1807.44
1799.57
1792.48
1786.04
1780.31
1775.34
1771.04
1767.39
1764.53
1762.3
1760.68
1759.74
1759.51
1760.1
1761.53
1763.91
1767.45
1771.82
1775.16
1648.95
1648.25
1387.19
1366.65
1504.59
1542.1
831.598
835.629
834.434
1387.57
1963.8
1963.36
1936.98
1914.31
1895.23
1878.23
1862.73
1848.95
1836.53
1825.52
1815.48
1806.43
1798.33
1791.09
1784.62
1778.79
1773.76
1769.46
1765.91
1763.05
1760.79
1759.21
1758.32
1758.12
1758.75
1760.27
1762.7
1766.28
1770.8
1774.32
1632.58
1621.26
1398.15
1323.87
1435.3
1484.06
816.307
818.625
844.032
1609.13
2007.85
1981.08
1945.43
1918.34
1896.75
1878.06
1861.41
1846.77
1833.87
1822.51
1812.26
1803.14
1795.03
1787.84
1781.47
1775.84
1770.84
1766.65
1763.22
1760.37
1758.19
1756.69
1755.88
1755.79
1756.5
1758.05
1760.58
1764.05
1768.77
1772.31
1634.12
1618.82
1562.85
1331.61
1455
1465.29
1143.55
700.88
738.146
1553.68
1986.12
1970.47
1936.49
1910.05
1889.16
1870.92
1854.64
1840.11
1827.48
1816.26
1806.27
1797.44
1789.63
1782.74
1776.66
1771.31
1766.66
1762.66
1759.33
1756.65
1754.61
1753.22
1752.53
1752.55
1753.35
1754.97
1757.58
1761.13
1765.98
1766.78
1642.02
1627.1
1610.4
1333.74
1365
1432.19
1336.49
492.757
718.605
1516.79
1969.71
1952.79
1920.74
1895.33
1875.42
1858.21
1842.9
1829.36
1817.43
1806.89
1797.61
1789.44
1782.26
1775.93
1770.35
1765.46
1761.2
1757.55
1754.49
1752.04
1750.21
1748.99
1748.42
1748.55
1749.43
1751.12
1753.74
1757.38
1762.3
1762.72
1653.2
1638.78
1622.67
1397.15
1346.73
1449.47
1402.96
760.601
810.485
1303.49
1921.18
1922.55
1897.91
1875.22
1856.77
1841.01
1827.15
1814.95
1804.24
1794.86
1786.65
1779.46
1773.17
1767.64
1762.78
1758.51
1754.78
1751.56
1748.88
1746.73
1745.13
1744.1
1743.67
1743.9
1744.84
1746.57
1749.06
1752.83
1757.76
1758.13
1673.82
1664.31
1655.82
1609.08
1399.73
1510.5
1523.32
1382.25
742.122
909.508
1763.71
1878.23
1862.92
1847.22
1832.44
1819.16
1807.47
1797.19
1788.21
1780.4
1773.61
1767.72
1762.58
1758.07
1754.1
1750.6
1747.52
1744.84
1742.61
1740.81
1739.49
1738.66
1738.38
1738.69
1739.67
1741.38
1743.65
1747.58
1752.46
1752.68
1695.39
1689.95
1685.12
1678.55
1428.96
1441.7
1574.56
1571.29
865.028
877.908
1251.65
1813.93
1811.79
1809.72
1802.74
1793.54
1784.66
1776.74
1769.84
1763.89
1758.79
1754.44
1750.68
1747.41
1744.5
1741.9
1739.58
1737.54
1735.8
1734.41
1733.4
1732.77
1732.48
1733.02
1734.01
1735.59
1737.79
1741.74
1746.43
1746.4
1715.59
1712.94
1710.18
1709.55
1612.98
1489.06
1587.26
1663.84
1569.72
829.829
874.176
1502.84
1804.37
1789.17
1781.38
1772.37
1763.61
1756.42
1750.73
1746.27
1742.78
1740.04
1737.85
1735.99
1734.32
1732.76
1731.29
1729.93
1728.73
1727.76
1727.05
1726.52
1726.29
1726.77
1727.97
1729.21
1731.5
1735.22
1739.63
1739.45
1734.26
1733.74
1733.09
1733.8
1736.61
1497.78
1496.67