/*--------------------------------*- C++ -*----------------------------------*\
  =========                 |
  \\      /  F ield         | OpenFOAM: The Open Source CFD Toolbox
   \\    /   O peration     | Website:  https://openfoam.org
    \\  /    A nd           | Version:  8
     \\/     M anipulation  |
\*---------------------------------------------------------------------------*/
FoamFile
{
    version     2.0;
    format      ascii;
    class       surfaceScalarField;
    location    "1.45";
    object      phi;
}
// * * * * * * * * * * * * * * * * * * * * * * * * * * * * * * * * * * * * * //

dimensions      [0 3 -1 0 0 0 0];

internalField   nonuniform List<scalar> 
18095
(
1.59022e-07
-9.64911e-07
8.05889e-07
1.6572e-07
-1.24836e-06
1.24166e-06
1.2241e-07
-1.24237e-06
1.28568e-06
6.54226e-08
-1.26364e-06
1.32063e-06
2.87439e-12
-1.28071e-06
1.34613e-06
-6.54173e-08
-1.28071e-06
1.34613e-06
-1.22406e-07
-1.26364e-06
1.32063e-06
-1.65717e-07
-1.24237e-06
1.28569e-06
-1.59021e-07
-1.24836e-06
1.24167e-06
-9.64914e-07
8.05893e-07
1.11171e-07
-1.07608e-06
9.96121e-08
-1.2368e-06
7.30037e-08
-1.21576e-06
4.01105e-08
-1.23075e-06
1.95218e-12
-1.24061e-06
-4.01068e-08
-1.24061e-06
-7.30008e-08
-1.23075e-06
-9.96098e-08
-1.21576e-06
-1.1117e-07
-1.2368e-06
-1.07608e-06
6.73199e-08
-1.1434e-06
5.29089e-08
-1.22239e-06
4.22604e-08
-1.20511e-06
2.39234e-08
-1.21241e-06
1.41e-12
-1.21668e-06
-2.39208e-08
-1.21668e-06
-4.22583e-08
-1.21241e-06
-5.29073e-08
-1.20512e-06
-6.73189e-08
-1.22239e-06
-1.1434e-06
3.97283e-08
-1.18313e-06
2.67059e-08
-1.20937e-06
2.20847e-08
-1.20049e-06
1.25711e-08
-1.20289e-06
1.06503e-12
-1.20411e-06
-1.25692e-08
-1.20411e-06
-2.20832e-08
-1.2029e-06
-2.6705e-08
-1.20049e-06
-3.97278e-08
-1.20937e-06
-1.18313e-06
1.68699e-08
7.50156e-09
7.00849e-09
4.11373e-09
4.97826e-13
-4.11279e-09
-7.00781e-09
-7.50122e-09
-1.68696e-08
-1.76255e-07
-1.16305e-06
1.33931e-06
-2.20649e-07
-1.21667e-06
1.26107e-06
-1.66177e-07
-1.21311e-06
1.15864e-06
-8.74725e-08
-1.20427e-06
1.12557e-06
3.02244e-11
-1.20284e-06
1.11534e-06
8.75313e-08
-1.20284e-06
1.11534e-06
1.6623e-07
-1.20429e-06
1.12559e-06
2.20698e-07
-1.21313e-06
1.15867e-06
1.76299e-07
-1.2167e-06
1.2611e-06
-1.16308e-06
1.33938e-06
-9.26899e-08
-1.07036e-06
-9.5613e-08
-1.21375e-06
-7.94168e-08
-1.22931e-06
-4.43238e-08
-1.23937e-06
1.70201e-11
-1.24718e-06
4.43564e-08
-1.24718e-06
7.94457e-08
-1.23937e-06
9.56362e-08
-1.22932e-06
9.27027e-08
-1.21377e-06
-1.07038e-06
-5.80159e-08
-1.01235e-06
-5.51672e-08
-1.2166e-06
-4.65327e-08
-1.23795e-06
-2.71468e-08
-1.25875e-06
1.037e-11
-1.27434e-06
2.71667e-08
-1.27434e-06
4.655e-08
-1.25876e-06
5.51799e-08
-1.23795e-06
5.8022e-08
-1.21661e-06
-1.01236e-06
-7.50293e-08
-9.37318e-07
-6.21618e-08
-1.22947e-06
-4.86204e-08
-1.25149e-06
-2.77635e-08
-1.27961e-06
6.57025e-12
-1.30211e-06
2.77761e-08
-1.30211e-06
4.86312e-08
-1.27961e-06
6.21695e-08
-1.25149e-06
7.50331e-08
-1.22947e-06
-9.37325e-07
-1.31429e-07
-1.19233e-07
-8.50382e-08
-4.40209e-08
4.33912e-12
4.40291e-08
8.5045e-08
1.19238e-07
1.31432e-07
-5.66308e-08
-9.41234e-07
9.97864e-07
-9.18484e-10
-1.33863e-06
1.28292e-06
8.91093e-09
-1.27151e-06
1.26168e-06
4.05248e-09
-1.22534e-06
1.2302e-06
2.58176e-10
-1.22272e-06
1.22651e-06
-3.5413e-09
-1.22274e-06
1.22654e-06
-8.42409e-09
-1.22535e-06
1.23024e-06
1.66235e-09
-1.2715e-06
1.26142e-06
5.76377e-08
-1.33871e-06
1.28274e-06
-9.42261e-07
9.99899e-07
7.69915e-09
-9.48933e-07
1.48628e-08
-1.34579e-06
1.09263e-08
-1.26758e-06
6.11974e-09
-1.22053e-06
2.2354e-10
-1.21682e-06
-5.66305e-09
-1.21685e-06
-1.04843e-08
-1.22053e-06
-1.44088e-08
-1.26758e-06
-7.23162e-09
-1.34589e-06
-9.49493e-07
2.62747e-08
-9.75207e-07
1.81762e-08
-1.33769e-06
9.36196e-09
-1.25876e-06
5.53218e-09
-1.2167e-06
1.34074e-10
-1.21142e-06
-5.28498e-09
-1.21143e-06
-9.09518e-09
-1.21672e-06
-1.78901e-08
-1.25878e-06
-2.60124e-08
-1.33777e-06
-9.75505e-07
7.91832e-08
-1.05439e-06
5.40309e-08
-1.31254e-06
3.48745e-08
-1.23961e-06
2.09839e-08
-1.20281e-06
8.21362e-11
-1.19052e-06
-2.08219e-08
-1.19053e-06
-3.47043e-08
-1.20284e-06
-5.38437e-08
-1.23964e-06
-7.90355e-08
-1.31257e-06
-1.05454e-06
2.84918e-07
2.33443e-07
1.52478e-07
7.52358e-08
5.0983e-11
-7.51349e-08
-1.52388e-07
-2.33366e-07
-2.84841e-07
-2.13883e-07
-7.50254e-08
2.88909e-07
-1.37697e-07
-7.61863e-08
-6.07759e-08
-7.69209e-08
1.64934e-08
-7.72693e-08
9.38935e-08
-7.74002e-08
1.71134e-07
-7.72407e-08
2.47717e-07
-7.6583e-08
3.23158e-07
-7.54408e-08
3.9696e-07
-7.38019e-08
-7.16031e-08
4.68563e-07
-1.85529e-07
-1.37574e-07
2.48077e-07
-1.21817e-07
-1.39898e-07
-5.72432e-08
-1.41494e-07
7.86416e-09
-1.42377e-07
7.30026e-08
-1.42538e-07
1.37703e-07
-1.41941e-07
2.01643e-07
-1.40523e-07
2.64429e-07
-1.38227e-07
3.25619e-07
-1.34992e-07
-1.30732e-07
3.84747e-07
-1.64074e-07
-1.91156e-07
2.17656e-07
-1.09526e-07
-1.94447e-07
-5.42916e-08
-1.96728e-07
1.31942e-09
-1.97988e-07
5.69785e-08
-1.98198e-07
1.12351e-07
-1.97314e-07
1.67106e-07
-1.95277e-07
2.20888e-07
-1.92009e-07
2.73312e-07
-1.87416e-07
-1.81401e-07
3.23981e-07
-1.47971e-07
-2.3761e-07
1.94425e-07
-1.00662e-07
-2.41755e-07
-5.27632e-08
-2.44628e-07
-4.53499e-09
-2.46216e-07
4.37583e-08
-2.46491e-07
9.18454e-08
-2.45401e-07
1.39441e-07
-2.42873e-07
1.86241e-07
-2.38808e-07
2.31913e-07
-2.33088e-07
-2.25579e-07
2.76091e-07
-1.35014e-07
-2.77965e-07
1.75369e-07
-9.3894e-08
-2.82875e-07
-5.22419e-08
-2.8628e-07
-1.0282e-08
-2.88176e-07
3.17636e-08
-2.88536e-07
7.3669e-08
-2.87307e-07
1.15198e-07
-2.84402e-07
1.56094e-07
-2.79705e-07
1.96075e-07
-2.73068e-07
-2.64314e-07
2.3481e-07
-1.24404e-07
-3.12984e-07
1.59423e-07
-8.87147e-08
-3.18564e-07
-5.25599e-08
-3.22434e-07
-1.61315e-08
-3.24604e-07
2.03851e-08
-3.25053e-07
5.68048e-08
-3.23726e-07
9.2935e-08
-3.20532e-07
1.28567e-07
-3.15337e-07
1.6346e-07
-3.07961e-07
-2.98176e-07
1.97322e-07
-1.15556e-07
-3.43281e-07
1.45853e-07
-8.46911e-08
-3.49429e-07
-5.34405e-08
-3.53685e-07
-2.19724e-08
-3.56072e-07
9.55486e-09
-3.5658e-07
4.09857e-08
-3.55157e-07
7.21597e-08
-3.51706e-07
1.029e-07
-3.46077e-07
1.32996e-07
-3.38057e-07
-3.27355e-07
1.62175e-07
-1.07973e-07
-3.69433e-07
1.34125e-07
-8.13515e-08
-3.76051e-07
-5.44279e-08
-3.80609e-07
-2.73525e-08
-3.83148e-07
-2.64427e-10
-3.83668e-07
2.67014e-08
-3.82123e-07
5.34072e-08
-3.78412e-07
7.97022e-08
-3.72372e-07
1.0541e-07
-3.63764e-07
-3.52241e-07
1.30295e-07
-1.01337e-07
-3.92112e-07
1.24015e-07
-7.82782e-08
-3.99109e-07
-5.49853e-08
-4.03901e-07
-3.15835e-08
-4.0655e-07
-8.18477e-09
-4.07067e-07
1.51093e-08
-4.05417e-07
3.82049e-08
-4.01508e-07
6.10172e-08
-3.95184e-07
8.34681e-08
-3.86215e-07
-3.74228e-07
1.05456e-07
-9.56719e-08
-4.12179e-07
1.15739e-07
-7.53282e-08
-4.19453e-07
-5.4804e-08
-4.24426e-07
-3.41782e-08
-4.27175e-07
-1.35132e-08
-4.27732e-07
7.14733e-09
-4.26078e-07
2.77864e-08
-4.22147e-07
4.84261e-08
-4.15824e-07
6.91192e-08
-4.06908e-07
-3.95025e-07
8.9916e-08
-9.1318e-08
-4.30664e-07
1.09803e-07
-7.27107e-08
-4.3806e-07
-5.39879e-08
-4.43149e-07
-3.51518e-08
-4.46012e-07
-1.61888e-08
-4.46695e-07
2.942e-09
-4.45209e-07
2.23237e-08
-4.41528e-07
4.20835e-08
-4.35584e-07
6.23711e-08
-4.27196e-07
-4.16075e-07
8.34213e-08
-8.86787e-08
-4.48577e-07
1.06591e-07
-7.08638e-08
-4.55875e-07
-5.30428e-08
-4.6097e-07
-3.51253e-08
-4.63929e-07
-1.70118e-08
-4.64809e-07
1.42821e-09
-4.63649e-07
2.03749e-08
-4.60475e-07
4.00603e-08
-4.55269e-07
6.07507e-08
-4.47886e-07
-4.38133e-07
8.28088e-08
-8.78768e-08
-4.66695e-07
1.05996e-07
-7.01061e-08
-4.73646e-07
-5.24994e-08
-4.78576e-07
-3.48844e-08
-4.81544e-07
-1.70879e-08
-4.82605e-07
1.08888e-09
-4.81825e-07
1.98841e-08
-4.7927e-07
3.95923e-08
-4.74977e-07
6.06394e-08
-4.68933e-07
-4.61285e-07
8.37907e-08
-8.8215e-08
-4.85351e-07
1.06871e-07
-7.01241e-08
-4.91736e-07
-5.2367e-08
-4.96333e-07
-3.47241e-08
-4.99187e-07
-1.69791e-08
-5.0035e-07
1.10563e-09
-4.9991e-07
1.98086e-08
-4.97973e-07
3.94714e-08
-4.9464e-07
6.05431e-08
-4.90005e-07
-4.84482e-07
8.37403e-08
-8.87071e-08
-5.04389e-07
1.07745e-07
-7.02926e-08
-5.10151e-07
-5.23098e-08
-5.14316e-07
-3.45606e-08
-5.16936e-07
-1.68394e-08
-5.18071e-07
1.07597e-09
-5.17825e-07
1.94535e-08
-5.16351e-07
3.86761e-08
-5.13863e-07
5.93583e-08
-5.10687e-07
-5.07208e-07
8.20844e-08
-8.87533e-08
-5.23762e-07
1.08127e-07
-7.00059e-08
-5.28898e-07
-5.17471e-08
-5.32575e-07
-3.38166e-08
-5.34866e-07
-1.60474e-08
-5.35841e-07
1.73111e-09
-5.35604e-07
1.97136e-08
-5.34333e-07
3.82183e-08
-5.32368e-07
5.78839e-08
-5.30353e-07
-5.28957e-07
7.96332e-08
-8.72169e-08
-5.43304e-07
1.06759e-07
-6.82372e-08
-5.47878e-07
-4.96624e-08
-5.5115e-07
-3.13421e-08
-5.53187e-07
-1.31364e-08
-5.54046e-07
5.06964e-09
-5.5381e-07
2.33623e-08
-5.52626e-07
4.18373e-08
-5.50843e-07
6.07439e-08
-5.49259e-07
-5.49074e-07
8.086e-08
-8.47114e-08
-5.62877e-07
1.04284e-07
-6.55927e-08
-5.66997e-07
-4.67343e-08
-5.70008e-07
-2.80046e-08
-5.71916e-07
-9.30378e-09
-5.72747e-07
9.4069e-09
-5.72521e-07
2.8022e-08
-5.71241e-07
4.61586e-08
-5.68979e-07
6.3397e-08
-5.66498e-07
-5.65363e-07
7.96865e-08
-8.31646e-08
-5.82544e-07
1.02832e-07
-6.3907e-08
-5.86254e-07
-4.49558e-08
-5.88959e-07
-2.62267e-08
-5.90646e-07
-7.67494e-09
-5.91299e-07
1.06872e-08
-5.90883e-07
2.87064e-08
-5.8926e-07
4.59164e-08
-5.86189e-07
6.13606e-08
-5.81942e-07
-5.78335e-07
7.43322e-08
-8.20427e-08
-6.02248e-07
1.01747e-07
-6.28811e-08
-6.05416e-07
-4.42083e-08
-6.07632e-07
-2.59536e-08
-6.089e-07
-8.06902e-09
-6.09183e-07
9.46796e-09
-6.0842e-07
2.67142e-08
-6.06506e-07
4.37557e-08
-6.0323e-07
5.98655e-08
-5.98052e-07
-5.92079e-07
7.36097e-08
-8.02052e-08
-6.22007e-07
9.9964e-08
-6.14194e-08
-6.24202e-07
-4.33315e-08
-6.2572e-07
-2.57868e-08
-6.26445e-07
-8.66375e-09
-6.26307e-07
8.17142e-09
-6.25255e-07
2.49414e-08
-6.23276e-07
4.18794e-08
-6.20168e-07
5.87118e-08
-6.14884e-07
-6.07743e-07
7.43759e-08
-7.82156e-08
-6.41804e-07
9.80124e-08
-5.97932e-08
-6.42624e-07
-4.22838e-08
-6.43229e-07
-2.54164e-08
-6.43313e-07
-8.99293e-09
-6.4273e-07
7.19566e-09
-6.41443e-07
2.34252e-08
-6.39506e-07
4.0034e-08
-6.36777e-07
5.70373e-08
-6.31887e-07
-6.24307e-07
7.36019e-08
-7.44136e-08
-6.59732e-07
9.2342e-08
-5.72376e-08
-6.598e-07
-4.06981e-08
-6.59769e-07
-2.46454e-08
-6.59365e-07
-8.9392e-09
-6.58436e-07
6.56409e-09
-6.56947e-07
2.20522e-08
-6.54994e-07
3.7997e-08
-6.52722e-07
5.52698e-08
-6.4916e-07
-6.42495e-07
7.34572e-08
-6.96186e-08
-6.74674e-07
8.45601e-08
-5.43675e-08
-6.75051e-07
-3.90611e-08
-6.75075e-07
-2.38285e-08
-6.74598e-07
-8.7137e-09
-6.73551e-07
6.25922e-09
-6.7192e-07
2.10687e-08
-6.69803e-07
3.59272e-08
-6.67581e-07
5.20362e-08
-6.65269e-07
-6.6106e-07
7.0601e-08
-6.67597e-08
-6.87761e-07
7.98465e-08
-5.29083e-08
-6.88902e-07
-3.85068e-08
-6.89476e-07
-2.38522e-08
-6.89253e-07
-9.10855e-09
-6.88295e-07
5.59911e-09
-6.86627e-07
2.00216e-08
-6.84226e-07
3.38173e-08
-6.81376e-07
4.75172e-08
-6.78969e-07
-6.75472e-07
6.19292e-08
-6.58278e-08
-7.00126e-07
7.81926e-08
-5.29397e-08
-7.0179e-07
-3.94707e-08
-7.02946e-07
-2.56694e-08
-7.03054e-07
-1.17108e-08
-7.02253e-07
2.26784e-09
-7.00606e-07
1.60567e-08
-6.98015e-07
2.90831e-08
-6.94403e-07
4.12951e-08
-6.91181e-07
-6.87881e-07
5.37046e-08
-6.72542e-08
-7.1252e-07
7.96484e-08
-5.48507e-08
-7.14194e-07
-4.22899e-08
-7.15506e-07
-2.95885e-08
-7.15755e-07
-1.67707e-08
-7.15071e-07
-3.82744e-09
-7.13549e-07
9.33019e-09
-7.11172e-07
2.24374e-08
-7.0751e-07
3.46449e-08
-7.03389e-07
-6.99919e-07
4.66829e-08
-7.14352e-08
-7.24801e-07
8.37164e-08
-5.92255e-08
-7.26404e-07
-4.72626e-08
-7.27469e-07
-3.54901e-08
-7.27528e-07
-2.37374e-08
-7.26824e-07
-1.18542e-08
-7.25432e-07
3.60997e-10
-7.23388e-07
1.33079e-08
-7.20457e-07
2.58943e-08
-7.15975e-07
-7.11671e-07
3.76462e-08
-7.61347e-08
-7.36481e-07
8.78146e-08
-6.45446e-08
-7.37994e-07
-5.33463e-08
-7.38668e-07
-4.23849e-08
-7.38489e-07
-3.14602e-08
-7.37748e-07
-2.04212e-08
-7.36471e-07
-9.07845e-09
-7.3473e-07
2.7122e-09
-7.32248e-07
1.44067e-08
-7.2767e-07
-7.22697e-07
2.54319e-08
-8.08124e-08
-7.47155e-07
9.14863e-08
-7.03345e-08
-7.48472e-07
-6.01701e-08
-7.48832e-07
-5.01622e-08
-7.48497e-07
-4.01882e-08
-7.47722e-07
-3.01876e-08
-7.46472e-07
-2.01895e-08
-7.44729e-07
-1.0108e-08
-7.42329e-07
8.53101e-10
-7.38631e-07
-7.33565e-07
1.17212e-08
-8.55588e-08
-7.56421e-07
9.4825e-08
-7.651e-08
-7.5752e-07
-6.75849e-08
-7.57757e-07
-5.87011e-08
-7.57381e-07
-4.98174e-08
-7.56606e-07
-4.09085e-08
-7.55381e-07
-3.19697e-08
-7.53667e-07
-2.28898e-08
-7.51409e-07
-1.31672e-08
-7.48353e-07
-7.43798e-07
-2.93355e-09
-9.03359e-08
-7.64069e-07
9.7984e-08
-8.27863e-08
-7.6507e-07
-7.52025e-08
-7.65341e-07
-6.75577e-08
-7.65026e-07
-5.98519e-08
-7.64312e-07
-5.20688e-08
-7.63164e-07
-4.41954e-08
-7.61541e-07
-3.61948e-08
-7.5941e-07
-2.7805e-08
-7.56743e-07
-7.53242e-07
-1.83608e-08
-9.5089e-08
-7.7025e-07
1.0127e-07
-8.8907e-08
-7.71252e-07
-8.26452e-08
-7.71603e-07
-7.62712e-08
-7.714e-07
-6.97787e-08
-7.70804e-07
-6.31486e-08
-7.69794e-07
-5.63506e-08
-7.68339e-07
-4.93468e-08
-7.66413e-07
-4.19903e-08
-7.641e-07
-7.6163e-07
-3.36029e-08
-9.93223e-08
-7.75271e-07
1.04344e-07
-9.44174e-08
-7.76157e-07
-8.9439e-08
-7.76581e-07
-8.43311e-08
-7.76508e-07
-7.90569e-08
-7.76078e-07
-7.35779e-08
-7.75273e-07
-6.78338e-08
-7.74083e-07
-6.17388e-08
-7.72508e-07
-5.51707e-08
-7.70668e-07
-7.68766e-07
-4.80345e-08
-1.02284e-07
-7.78654e-07
1.05667e-07
-9.87448e-08
-7.79696e-07
-9.50805e-08
-7.80245e-07
-9.12388e-08
-7.8035e-07
-8.71769e-08
-7.8014e-07
-8.28508e-08
-7.79599e-07
-7.82066e-08
-7.78727e-07
-7.31594e-08
-7.77556e-07
-6.76393e-08
-7.76188e-07
-7.7436e-07
-6.20453e-08
-1.03633e-07
-7.80621e-07
1.056e-07
-1.01533e-07
-7.81796e-07
-9.92096e-08
-7.82569e-07
-9.66213e-08
-7.82938e-07
-9.37359e-08
-7.83026e-07
-9.05272e-08
-7.82808e-07
-8.69826e-08
-7.82272e-07
-8.31086e-08
-7.8143e-07
-7.90095e-08
-7.80287e-07
-7.78567e-07
-7.48026e-08
-1.03697e-07
-7.81122e-07
1.04199e-07
-1.02871e-07
-7.82622e-07
-1.01828e-07
-7.83611e-07
-1.0041e-07
-7.84356e-07
-9.86446e-08
-7.84791e-07
-9.65438e-08
-7.84909e-07
-9.41323e-08
-7.84683e-07
-9.14726e-08
-7.84089e-07
-8.86692e-08
-7.8309e-07
-7.81621e-07
-8.5615e-08
-1.0278e-07
-7.80457e-07
1.02115e-07
-1.03131e-07
-7.82271e-07
-1.02969e-07
-7.83774e-07
-1.02479e-07
-7.84846e-07
-1.01674e-07
-7.85596e-07
-1.00573e-07
-7.8601e-07
-9.91977e-08
-7.86059e-07
-9.75752e-08
-7.85712e-07
-9.57273e-08
-7.84938e-07
-7.83727e-07
-9.36214e-08
-9.8478e-08
-7.7859e-07
9.66115e-08
-9.99257e-08
-7.80824e-07
-1.00972e-07
-7.82727e-07
-1.01628e-07
-7.8419e-07
-1.01942e-07
-7.85282e-07
-1.01954e-07
-7.85999e-07
-1.01691e-07
-7.86322e-07
-1.01162e-07
-7.86241e-07
-1.00352e-07
-7.85748e-07
-7.848e-07
-9.92787e-08
-9.08327e-08
-7.75498e-07
8.77401e-08
-9.3497e-08
-7.78159e-07
-9.58045e-08
-7.8042e-07
-9.76963e-08
-7.82298e-07
-9.92224e-08
-7.83756e-07
-1.00441e-07
-7.8478e-07
-1.01392e-07
-7.8537e-07
-1.02103e-07
-7.8553e-07
-1.02583e-07
-7.85269e-07
-7.84523e-07
-1.02859e-07
-8.0223e-08
-7.71253e-07
7.59788e-08
-8.41132e-08
-7.74269e-07
-8.76335e-08
-7.76899e-07
-9.0733e-08
-7.79198e-07
-9.34717e-08
-7.81017e-07
-9.59171e-08
-7.82335e-07
-9.81173e-08
-7.8317e-07
-1.00107e-07
-7.8354e-07
-1.01913e-07
-7.83463e-07
-7.82878e-07
-1.03558e-07
-6.66348e-08
-7.65798e-07
6.11793e-08
-7.17815e-08
-7.69123e-07
-7.64401e-08
-7.72241e-07
-8.07262e-08
-7.74912e-07
-8.46876e-08
-7.77056e-07
-8.83834e-08
-7.78639e-07
-9.18633e-08
-7.7969e-07
-9.51642e-08
-7.80239e-07
-9.83008e-08
-7.80327e-07
-7.79904e-07
-1.01275e-07
-4.99587e-08
-7.5876e-07
4.29212e-08
-5.62605e-08
-7.62821e-07
-6.21807e-08
-7.66321e-07
-6.77055e-08
-7.69387e-07
-7.29122e-08
-7.71849e-07
-7.78565e-08
-7.73695e-07
-8.25914e-08
-7.74955e-07
-8.71653e-08
-7.75665e-07
-9.16131e-08
-7.75879e-07
-7.75547e-07
-9.597e-08
-3.10687e-08
-7.5072e-07
2.30282e-08
-3.85695e-08
-7.5532e-07
-4.56309e-08
-7.59259e-07
-5.23317e-08
-7.62687e-07
-5.87272e-08
-7.65453e-07
-6.48726e-08
-7.67549e-07
-7.0824e-08
-7.69004e-07
-7.66399e-08
-7.69849e-07
-8.23862e-08
-7.70133e-07
-7.69827e-07
-8.81059e-08
-1.02664e-08
-7.41669e-07
1.21524e-09
-1.8929e-08
-7.46657e-07
-2.72189e-08
-7.50969e-07
-3.51578e-08
-7.54748e-07
-4.28142e-08
-7.57797e-07
-5.02623e-08
-7.60101e-07
-5.75736e-08
-7.61692e-07
-6.48258e-08
-7.62597e-07
-7.21201e-08
-7.62838e-07
-7.62441e-07
-7.95069e-08
1.21585e-08
-7.31407e-07
-2.24204e-08
2.12307e-09
-7.36622e-07
-7.48715e-09
-7.41359e-07
-1.67403e-08
-7.45495e-07
-2.5739e-08
-7.48798e-07
-3.45835e-08
-7.51257e-07
-4.33649e-08
-7.52911e-07
-5.21775e-08
-7.53785e-07
-6.11316e-08
-7.53884e-07
-7.5321e-07
-7.03619e-08
3.52002e-08
-7.19545e-07
-4.70625e-08
2.37004e-08
-7.25122e-07
1.27997e-08
-7.30458e-07
2.28304e-09
-7.34978e-07
-8.01254e-09
-7.38503e-07
-1.81999e-08
-7.41069e-07
-2.83808e-08
-7.4273e-07
-3.86472e-08
-7.43518e-07
-4.90734e-08
-7.43458e-07
-7.42562e-07
-5.9722e-08
5.55714e-08
-7.07255e-07
-6.78614e-08
4.37546e-08
-7.13305e-07
3.22389e-08
-7.18942e-07
2.08912e-08
-7.2363e-07
9.63891e-09
-7.2725e-07
-1.58858e-09
-7.29842e-07
-1.28615e-08
-7.31457e-07
-2.42382e-08
-7.32142e-07
-3.57444e-08
-7.31952e-07
-7.30959e-07
-4.73466e-08
7.48752e-08
-6.9469e-07
-8.74398e-08
6.27626e-08
-7.01192e-07
5.08189e-08
-7.06999e-07
3.89059e-08
-7.11717e-07
2.6967e-08
-7.15311e-07
1.49592e-08
-7.17834e-07
2.84308e-09
-7.19341e-07
-9.41377e-09
-7.19885e-07
-2.18393e-08
-7.19526e-07
-7.18347e-07
-3.44517e-08
9.44607e-08
-6.81631e-07
-1.07519e-07
8.17841e-08
-6.88516e-07
6.92064e-08
-6.94421e-07
5.65938e-08
-6.99105e-07
4.38924e-08
-7.0261e-07
3.10587e-08
-7.05e-07
1.80466e-08
-7.06329e-07
4.80846e-09
-7.06646e-07
-8.71972e-09
-7.05998e-07
-7.0444e-07
-2.26269e-08
1.14273e-07
-6.68292e-07
-1.27611e-07
1.00858e-07
-6.75101e-07
8.73376e-08
-6.80901e-07
7.37494e-08
-6.85517e-07
6.00701e-08
-6.88931e-07
4.62324e-08
-6.91163e-07
3.21511e-08
-6.92247e-07
1.7729e-08
-6.92224e-07
2.86792e-09
-6.91137e-07
-6.89033e-07
-1.25386e-08
1.31087e-07
-6.54343e-07
-1.45037e-07
1.17136e-07
-6.6115e-07
1.03053e-07
-6.66818e-07
8.88667e-08
-6.71331e-07
7.45382e-08
-6.74602e-07
5.99931e-08
-6.76618e-07
4.51361e-08
-6.7739e-07
2.9861e-08
-6.76949e-07
1.40614e-08
-6.75338e-07
-6.72629e-07
-2.34277e-09
1.44229e-07
-6.39723e-07
-1.58849e-07
1.29907e-07
-6.46828e-07
1.15662e-07
-6.52573e-07
1.01346e-07
-6.57015e-07
8.68662e-08
-6.60122e-07
7.21404e-08
-6.61892e-07
5.70801e-08
-6.6233e-07
4.15856e-08
-6.61455e-07
2.55483e-08
-6.593e-07
-6.5593e-07
8.84922e-09
1.54365e-07
-6.24983e-07
-1.69105e-07
1.39885e-07
-6.32348e-07
1.25567e-07
-6.38255e-07
1.11274e-07
-6.42722e-07
9.69001e-08
-6.45749e-07
8.2345e-08
-6.47337e-07
6.74993e-08
-6.47484e-07
5.22436e-08
-6.46199e-07
3.64375e-08
-6.43494e-07
-6.39394e-07
1.99015e-08
1.60043e-07
-6.10543e-07
-1.74483e-07
1.4579e-07
-6.18095e-07
1.31707e-07
-6.24171e-07
1.17715e-07
-6.2873e-07
1.03714e-07
-6.31747e-07
8.95804e-08
-6.33203e-07
7.5173e-08
-6.33077e-07
6.0325e-08
-6.31351e-07
4.48411e-08
-6.2801e-07
-6.23045e-07
2.84916e-08
1.60091e-07
-5.96605e-07
-1.7403e-07
1.46472e-07
-6.04475e-07
1.33078e-07
-6.10778e-07
1.19817e-07
-6.15469e-07
1.06578e-07
-6.18508e-07
9.32325e-08
-6.19858e-07
7.96264e-08
-6.19471e-07
6.55746e-08
-6.17299e-07
5.08574e-08
-6.13293e-07
-6.07413e-07
3.52262e-08
1.54683e-07
-5.83673e-07
-1.67614e-07
1.4208e-07
-5.91873e-07
1.29736e-07
-5.98434e-07
1.17566e-07
-6.03298e-07
1.05474e-07
-6.06416e-07
9.33535e-08
-6.07738e-07
8.10842e-08
-6.07202e-07
6.85246e-08
-6.0474e-07
5.5508e-08
-6.00276e-07
-5.9373e-07
4.18252e-08
1.44011e-07
-5.72199e-07
-1.55485e-07
1.32816e-07
-5.80678e-07
1.21835e-07
-5.87454e-07
1.11007e-07
-5.9247e-07
1.00276e-07
-5.95685e-07
8.9582e-08
-5.97044e-07
7.88643e-08
-5.96484e-07
6.80499e-08
-5.93925e-07
5.70437e-08
-5.8927e-07
-5.82396e-07
4.57094e-08
1.29064e-07
-5.62427e-07
-1.38836e-07
1.19444e-07
-5.71058e-07
1.09904e-07
-5.77914e-07
1.00405e-07
-5.82971e-07
9.0919e-08
-5.86198e-07
8.1422e-08
-5.87547e-07
7.18884e-08
-5.8695e-07
6.22805e-08
-5.84317e-07
5.25371e-08
-5.79527e-07
-5.72418e-07
4.25587e-08
1.11955e-07
-5.54263e-07
-1.20119e-07
1.03738e-07
-5.62841e-07
9.54281e-08
-5.69604e-07
8.70074e-08
-5.74551e-07
7.84706e-08
-5.77661e-07
6.98174e-08
-5.78894e-07
6.10483e-08
-5.78181e-07
5.21576e-08
-5.75427e-07
4.31298e-08
-5.70499e-07
-5.63225e-07
3.39369e-08
9.43394e-08
-5.47436e-07
-1.01166e-07
8.72467e-08
-5.55748e-07
7.98842e-08
-5.62241e-07
7.226e-08
-5.66926e-07
6.43908e-08
-5.69792e-07
5.62998e-08
-5.70803e-07
4.80136e-08
-5.69895e-07
3.95626e-08
-5.66976e-07
3.09807e-08
-5.61917e-07
-5.54555e-07
2.23104e-08
7.76863e-08
-5.4147e-07
-8.36523e-08
7.13293e-08
-5.49391e-07
6.45882e-08
-5.555e-07
5.74796e-08
-5.59818e-07
5.00276e-08
-5.6234e-07
4.22611e-08
-5.63036e-07
3.42125e-08
-5.61847e-07
2.59173e-08
-5.58681e-07
1.74153e-08
-5.53415e-07
-5.45891e-07
8.75181e-09
6.27281e-08
-5.36011e-07
-6.81873e-08
5.68206e-08
-5.43484e-07
5.04835e-08
-5.49163e-07
4.37394e-08
-5.53074e-07
3.66122e-08
-5.55213e-07
2.91287e-08
-5.55553e-07
2.13188e-08
-5.54037e-07
1.32172e-08
-5.50579e-07
4.86575e-09
-5.45063e-07
-5.37344e-07
-3.68188e-09
4.96562e-08
-5.3075e-07
-5.49174e-08
4.40254e-08
-5.37853e-07
3.80275e-08
-5.43165e-07
3.16695e-08
-5.46716e-07
2.49631e-08
-5.48507e-07
1.79252e-08
-5.48515e-07
1.05805e-08
-5.46692e-07
2.96334e-09
-5.42962e-07
-4.87681e-09
-5.37223e-07
-5.29347e-07
-1.28734e-08
3.76066e-08
-5.25908e-07
-4.24482e-08
3.24705e-08
-5.32717e-07
2.70411e-08
-5.37736e-07
2.13201e-08
-5.40995e-07
1.53123e-08
-5.42499e-07
9.02799e-09
-5.42231e-07
2.4871e-09
-5.40151e-07
-4.27682e-09
-5.36198e-07
-1.1212e-08
-5.30288e-07
-5.22316e-07
-1.82428e-08
2.61419e-08
-5.21819e-07
-3.02309e-08
2.18411e-08
-5.28416e-07
1.73297e-08
-5.33224e-07
1.26062e-08
-5.36271e-07
7.6697e-09
-5.37562e-07
2.5254e-09
-5.37087e-07
-2.8115e-09
-5.34814e-07
-8.31083e-09
-5.30699e-07
-1.39221e-08
-5.24677e-07
-5.16669e-07
-1.95692e-08
1.47597e-08
-5.18948e-07
-1.76309e-08
1.17449e-08
-5.25401e-07
8.58848e-09
-5.30068e-07
5.28834e-09
-5.32971e-07
1.84259e-09
-5.34117e-07
-1.74593e-09
-5.33498e-07
-5.46461e-09
-5.31095e-07
-9.28709e-09
-5.26876e-07
-1.31675e-08
-5.20796e-07
-5.128e-07
-1.70369e-08
3.26364e-09
-5.17773e-07
-4.43857e-09
1.9854e-09
-5.24123e-07
6.11592e-10
-5.28694e-07
-8.56635e-10
-5.31503e-07
-2.41846e-09
-5.32555e-07
-4.0699e-09
-5.31847e-07
-5.79894e-09
-5.29366e-07
-7.5812e-09
-5.25094e-07
-9.37617e-09
-5.19002e-07
-5.11054e-07
-1.11218e-08
-8.23392e-09
-5.18643e-07
9.10364e-09
-7.42918e-09
-5.24927e-07
-6.68251e-09
-5.29441e-07
-5.99213e-09
-5.32193e-07
-5.35676e-09
-5.3319e-07
-4.77218e-09
-5.32431e-07
-4.22826e-09
-5.2991e-07
-3.70509e-09
-5.25617e-07
-3.17076e-09
-5.19536e-07
-5.11647e-07
-2.57779e-09
-1.96388e-08
-5.2185e-07
2.28463e-08
-1.6475e-08
-5.28091e-07
-1.33477e-08
-5.32568e-07
-1.02532e-08
-5.35288e-07
-7.18857e-09
-5.36255e-07
-4.14862e-09
-5.35471e-07
-1.12387e-09
-5.32935e-07
1.90231e-09
-5.28643e-07
4.95538e-09
-5.22589e-07
-5.14764e-07
8.07209e-09
-3.08174e-08
-5.27617e-07
3.65834e-08
-2.50968e-08
-5.33812e-07
-1.94086e-08
-5.38256e-07
-1.37438e-08
-5.40952e-07
-8.0955e-09
-5.41903e-07
-2.45602e-09
-5.4111e-07
3.18529e-09
-5.38576e-07
8.84462e-09
-5.34302e-07
1.45453e-08
-5.2829e-07
-5.20539e-07
2.03207e-08
-4.15461e-08
-5.36028e-07
4.99579e-08
-3.31847e-08
-5.42173e-07
-2.48536e-08
-5.46587e-07
-1.6539e-08
-5.49267e-07
-8.23172e-09
-5.5021e-07
7.67849e-11
-5.49419e-07
8.39693e-09
-5.46897e-07
1.67441e-08
-5.4265e-07
2.51412e-08
-5.36687e-07
-5.2902e-07
3.36223e-08
-5.16347e-08
-5.47006e-07
6.26121e-08
-4.06704e-08
-5.53137e-07
-2.97035e-08
-5.57554e-07
-1.87269e-08
-5.60243e-07
-7.74033e-09
-5.61197e-07
3.25491e-09
-5.60414e-07
1.42581e-08
-5.579e-07
2.52739e-08
-5.53665e-07
3.63149e-08
-5.47728e-07
-5.4011e-07
4.74055e-08
-6.12982e-08
-5.60446e-07
7.47388e-08
-4.77712e-08
-5.66664e-07
-3.41606e-08
-5.71165e-07
-2.04823e-08
-5.73922e-07
-6.76069e-09
-5.74919e-07
6.9754e-09
-5.7415e-07
2.06988e-08
-5.71623e-07
3.43879e-08
-5.67354e-07
4.80312e-08
-5.61371e-07
-5.5371e-07
6.16314e-08
-7.12938e-08
-5.76396e-07
8.72436e-08
-5.50939e-08
-5.82864e-07
-3.86788e-08
-5.8758e-07
-2.21031e-08
-5.90497e-07
-5.43437e-09
-5.91587e-07
1.12534e-08
-5.90838e-07
2.78883e-08
-5.88258e-07
4.44067e-08
-5.83873e-07
6.07613e-08
-5.77726e-07
-5.69875e-07
7.69262e-08
-8.27638e-08
-5.95132e-07
1.015e-07
-6.35367e-08
-6.02091e-07
-4.39063e-08
-6.0721e-07
-2.39859e-08
-6.10418e-07
-3.90806e-09
-6.11665e-07
1.61869e-08
-6.10933e-07
3.61602e-08
-6.08232e-07
5.58852e-08
-6.03598e-07
7.52569e-08
-5.97098e-07
-5.88818e-07
9.41998e-08
-9.70709e-08
-6.17262e-07
1.19201e-07
-7.41421e-08
-6.2502e-07
-5.05712e-08
-6.30781e-07
-2.65505e-08
-6.34439e-07
-2.29495e-09
-6.35921e-07
2.19697e-08
-6.35198e-07
4.60212e-08
-6.32283e-07
6.9652e-08
-6.27229e-07
9.2683e-08
-6.20128e-07
-6.1111e-07
1.14974e-07
-1.15138e-07
-6.43536e-07
1.41411e-07
-8.76475e-08
-6.5251e-07
-5.92072e-08
-6.59222e-07
-3.01179e-08
-6.63528e-07
-7.00704e-10
-6.65338e-07
2.8715e-08
-6.64614e-07
5.78054e-08
-6.61373e-07
8.62621e-08
-6.55686e-07
1.13806e-07
-6.47672e-07
-6.37502e-07
1.40198e-07
-1.37555e-07
-6.74948e-07
1.68967e-07
-1.04467e-07
-6.85599e-07
-7.01023e-08
-6.93586e-07
-3.48856e-08
-6.98745e-07
7.50697e-10
-7.00974e-07
3.6374e-08
-7.00237e-07
7.15583e-08
-6.96558e-07
1.05892e-07
-6.9002e-07
1.38984e-07
-6.80764e-07
-6.68992e-07
1.70474e-07
-1.63637e-07
-7.12427e-07
2.01116e-07
-1.24046e-07
-7.25189e-07
-8.28972e-08
-7.34735e-07
-4.07326e-08
-7.40909e-07
1.92055e-09
-7.43627e-07
4.45482e-08
-7.42865e-07
8.66461e-08
-7.38655e-07
1.27713e-07
-7.31087e-07
1.67249e-07
-7.20299e-07
-7.06494e-07
2.04752e-07
-1.91262e-07
-7.5655e-07
2.35386e-07
-1.44729e-07
-7.71722e-07
-9.64857e-08
-7.82979e-07
-4.71553e-08
-7.90239e-07
2.68704e-09
-7.93469e-07
5.24999e-08
-7.92677e-07
1.01754e-07
-7.8791e-07
1.49913e-07
-7.79245e-07
1.96411e-07
-7.66798e-07
-7.50709e-07
2.40625e-07
-2.16883e-07
-8.07118e-07
2.67451e-07
-1.63825e-07
-8.2478e-07
-1.09094e-07
-8.3771e-07
-5.33353e-08
-8.45998e-07
2.89271e-09
-8.49698e-07
5.90852e-08
-8.4887e-07
1.14751e-07
-8.43575e-07
1.69377e-07
-8.33871e-07
2.22388e-07
-8.19809e-07
-8.01382e-07
2.73061e-07
-2.37012e-07
-8.63318e-07
2.93212e-07
-1.78629e-07
-8.83163e-07
-1.18894e-07
-8.97445e-07
-5.83789e-08
-9.06513e-07
2.4721e-09
-9.10549e-07
6.32712e-08
-9.09669e-07
1.23643e-07
-9.03947e-07
1.83185e-07
-8.93413e-07
2.41389e-07
-8.78013e-07
-8.57499e-07
2.97506e-07
-2.47772e-07
-9.23054e-07
3.07507e-07
-1.86404e-07
-9.4453e-07
-1.24107e-07
-9.59742e-07
-6.13463e-08
-9.69274e-07
1.57942e-09
-9.73474e-07
6.4442e-08
-9.72531e-07
1.27026e-07
-9.66531e-07
1.89068e-07
-9.55456e-07
2.50167e-07
-9.39112e-07
-9.17027e-07
3.09695e-07
-2.48362e-07
-9.84173e-07
3.09481e-07
-1.864e-07
-1.00649e-06
-1.2411e-07
-1.02203e-06
-6.1781e-08
-1.0316e-06
5.02018e-10
-1.03576e-06
6.27352e-08
-1.03476e-06
1.24926e-07
-1.02872e-06
1.87018e-07
-1.01755e-06
2.48771e-07
-1.00087e-06
-9.78011e-07
3.09755e-07
-2.38238e-07
-1.04509e-06
2.99156e-07
-1.78071e-07
-1.06666e-06
-1.18508e-07
-1.08159e-06
-5.93819e-08
-1.09073e-06
-4.92406e-10
-1.09465e-06
5.8384e-08
-1.09364e-06
1.17482e-07
-1.08782e-06
1.77025e-07
-1.07709e-06
2.37198e-07
-1.06104e-06
-1.03892e-06
2.98106e-07
-2.17708e-07
-1.10356e-06
2.76178e-07
-1.62152e-07
-1.12221e-06
-1.07934e-07
-1.13581e-06
-5.44102e-08
-1.14425e-06
-1.20928e-09
-1.14785e-06
5.20248e-08
-1.14687e-06
1.05657e-07
-1.14145e-06
1.6008e-07
-1.13151e-06
2.15952e-07
-1.11691e-06
-1.0978e-06
2.74831e-07
-1.89409e-07
-1.15463e-06
2.40479e-07
-1.40787e-07
-1.17084e-06
-9.36625e-08
-1.18294e-06
-4.73978e-08
-1.19052e-06
-1.50942e-09
-1.19374e-06
4.44596e-08
-1.19284e-06
9.09701e-08
-1.18796e-06
1.38511e-07
-1.17905e-06
1.87717e-07
-1.16612e-06
-1.14962e-06
2.3954e-07
-1.5398e-07
-1.19623e-06
1.95575e-07
-1.14166e-07
-1.21065e-06
-7.58474e-08
-1.22125e-06
-3.8455e-08
-1.22791e-06
-1.43835e-09
-1.23075e-06
3.5708e-08
-1.22999e-06
7.34883e-08
-1.22574e-06
1.12432e-07
-1.218e-06
1.53042e-07
-1.20673e-06
-1.1921e-06
1.9552e-07
-1.14699e-07
-1.22908e-06
1.47549e-07
-8.44073e-08
-1.24094e-06
-5.59659e-08
-1.2497e-06
-2.84309e-08
-1.25545e-06
-1.18313e-09
-1.258e-06
2.62196e-08
-1.25739e-06
5.42156e-08
-1.25374e-06
8.3387e-08
-1.24717e-06
1.14593e-07
-1.23793e-06
-1.22591e-06
1.48402e-07
-7.51067e-08
-1.2517e-06
9.7726e-08
-5.49832e-08
-1.26107e-06
-3.64379e-08
-1.26824e-06
-1.85841e-08
-1.2733e-06
-8.47737e-10
-1.27574e-06
1.70419e-08
-1.27528e-06
3.5355e-08
-1.27205e-06
5.46252e-08
-1.26644e-06
7.56445e-08
-1.25895e-06
-1.24947e-06
9.92036e-08
-3.86937e-08
-1.26414e-06
5.11393e-08
-2.82264e-08
-1.27153e-06
-1.88723e-08
-1.2776e-06
-9.79019e-09
-1.28238e-06
-5.08349e-10
-1.28502e-06
8.90172e-09
-1.28469e-06
1.83835e-08
-1.28153e-06
2.83749e-08
-1.27643e-06
3.96259e-08
-1.2702e-06
-1.26275e-06
5.29064e-08
-8.25485e-09
-1.26784e-06
1.1952e-08
-6.09656e-09
-1.27369e-06
-4.54358e-09
-1.27915e-06
-2.70203e-09
-1.28422e-06
-2.13636e-10
-1.28751e-06
2.35961e-09
-1.28727e-06
4.50082e-09
-1.28368e-06
6.55863e-09
-1.27849e-06
9.34826e-09
-1.27299e-06
-1.26713e-06
1.37298e-08
1.49723e-08
-1.26421e-06
-1.86042e-08
1.03545e-08
-1.26907e-06
5.87837e-09
-1.27467e-06
2.44898e-09
-1.28079e-06
2.04739e-11
-1.28508e-06
-2.36842e-09
-1.28488e-06
-5.62304e-09
-1.28042e-06
-9.74025e-09
-1.27437e-06
-1.38718e-08
-1.26886e-06
-1.26404e-06
-1.69614e-08
3.06182e-08
-1.25444e-06
-4.038e-08
2.06962e-08
-1.25915e-06
1.23607e-08
-1.26634e-06
6.02538e-09
-1.27446e-06
1.85702e-10
-1.27924e-06
-5.62408e-09
-1.27907e-06
-1.19192e-08
-1.27413e-06
-2.00513e-08
-1.26624e-06
-2.95894e-08
-1.25932e-06
-1.25474e-06
-3.88921e-08
3.84964e-08
-1.23902e-06
-5.39242e-08
2.47616e-08
-1.24542e-06
1.54934e-08
-1.25707e-06
8.77607e-09
-1.26774e-06
2.68202e-10
-1.27073e-06
-8.15061e-09
-1.27065e-06
-1.49168e-08
-1.26736e-06
-2.41822e-08
-1.25697e-06
-3.76118e-08
-1.24589e-06
-1.23979e-06
-5.25584e-08
3.8235e-08
-1.2166e-06
-6.06541e-08
2.28153e-08
-1.23e-06
1.66787e-08
-1.25093e-06
1.0944e-08
-1.26201e-06
2.99477e-10
-1.26009e-06
-1.02172e-08
-1.26013e-06
-1.5936e-08
-1.26164e-06
-2.23021e-08
-1.25061e-06
-3.75575e-08
-1.23064e-06
-1.21797e-06
-5.93789e-08
2.7451e-08
-1.18154e-06
-6.25091e-08