/*--------------------------------*- C++ -*----------------------------------*\
  =========                 |
  \\      /  F ield         | OpenFOAM: The Open Source CFD Toolbox
   \\    /   O peration     | Website:  https://openfoam.org
    \\  /    A nd           | Version:  8
     \\/     M anipulation  |
\*---------------------------------------------------------------------------*/
FoamFile
{
    version     2.0;
    format      ascii;
    class       volVectorField;
    location    "1.45";
    object      U;
}
// * * * * * * * * * * * * * * * * * * * * * * * * * * * * * * * * * * * * * //

dimensions      [0 1 -1 0 0 0 0];

internalField   nonuniform List<vector> 
9150
(
(0.0534954 -0.429116 0)
(0.0878199 -0.6225 0)
(0.0733625 -0.631565 0)
(0.048684 -0.643823 0)
(0.017076 -0.654567 0)
(-0.0170732 -0.654567 0)
(-0.0486817 -0.643824 0)
(-0.0733608 -0.631566 0)
(-0.087819 -0.622501 0)
(-0.0534952 -0.429118 0)
(0.0403528 -0.522486 0)
(0.0571907 -0.62577 0)
(0.0422761 -0.613262 0)
(0.0294094 -0.6225 0)
(0.0105239 -0.628945 0)
(-0.0105221 -0.628946 0)
(-0.0294078 -0.622501 0)
(-0.0422748 -0.613263 0)
(-0.0571898 -0.625771 0)
(-0.0403524 -0.522487 0)
(0.0249405 -0.55783 0)
(0.0323702 -0.613967 0)
(0.0231613 -0.604502 0)
(0.0172584 -0.610004 0)
(0.00626674 -0.613241 0)
(-0.00626542 -0.613242 0)
(-0.0172573 -0.610004 0)
(-0.0231604 -0.604502 0)
(-0.0323695 -0.613967 0)
(-0.0249401 -0.55783 0)
(0.0151358 -0.584611 0)
(0.0173694 -0.607569 0)
(0.0118269 -0.60115 0)
(0.0088655 -0.603278 0)
(0.00325166 -0.604421 0)
(-0.00325064 -0.604421 0)
(-0.00886464 -0.603279 0)
(-0.0118263 -0.60115 0)
(-0.017369 -0.607569 0)
(-0.0151357 -0.584612 0)
(0.00617358 -0.597124 0)
(0.00551642 -0.601441 0)
(0.0036266 -0.600043 0)
(0.00267709 -0.600347 0)
(0.000994877 -0.600488 0)
(-0.000994401 -0.600488 0)
(-0.0026767 -0.600347 0)
(-0.00362635 -0.600043 0)
(-0.00551627 -0.601441 0)
(-0.0061735 -0.597124 0)
(0.467854 -1.15975 1.81376e-24)
(0.282787 -1.08617 0)
(0.162826 -1.06928 0)
(0.091689 -1.05762 0)
(0.0302795 -1.05312 0)
(-0.0302497 -1.05313 0)
(-0.0916625 -1.05763 0)
(-0.162804 -1.0693 0)
(-0.282772 -1.0862 0)
(-0.46786 -1.15979 -1.81421e-24)
(0.333659 -0.843871 5.09805e-25)
(0.287624 -0.936725 0)
(0.188492 -0.936864 0)
(0.10798 -0.93686 0)
(0.0357072 -0.939312 0)
(-0.0356904 -0.939315 0)
(-0.107966 -0.936868 0)
(-0.188481 -0.936876 0)
(-0.287621 -0.936741 0)
(-0.333664 -0.843891 -5.09897e-25)
(0.27785 -0.701559 7.57839e-26)
(0.259116 -0.804672 0)
(0.178443 -0.817495 0)
(0.104488 -0.828445 0)
(0.0348414 -0.836651 0)
(-0.0348311 -0.836653 0)
(-0.104479 -0.82845 0)
(-0.178438 -0.817503 0)
(-0.259114 -0.80468 0)
(-0.277852 -0.701568 -7.58041e-26)
(0.198325 -0.553622 3.42925e-25)
(0.21626 -0.709527 0)
(0.154597 -0.725943 0)
(0.0913146 -0.742138 0)
(0.0305538 -0.754107 0)
(-0.0305472 -0.754108 0)
(-0.0913091 -0.742141 0)
(-0.154593 -0.725947 0)
(-0.216259 -0.709532 0)
(-0.198325 -0.553627 -3.42924e-25)
(0.117315 -0.445759 -5.30911e-25)
(0.155589 -0.644539 -7.54249e-25)
(0.116921 -0.663907 -2.58059e-25)
(0.0709489 -0.681329 -1.69146e-25)
(0.0239929 -0.69436 -9.7683e-27)
(-0.0239886 -0.69436 -9.7645e-27)
(-0.0709454 -0.681331 -1.69138e-25)
(-0.116919 -0.663909 -2.58057e-25)
(-0.155588 -0.644541 -7.54247e-25)
(-0.117315 -0.445762 -5.30914e-25)
(0.0189439 -0.932079 0)
(-0.0409264 -1.33472 0)
(0.0209668 -1.26681 0)
(-0.0034307 -1.22378 0)
(0.00272156 -1.22206 0)
(-0.00249312 -1.22209 0)
(0.00374579 -1.22378 0)
(-0.0206363 -1.26676 0)
(0.0413122 -1.33463 0)
(-0.0185294 -0.933601 0)
(0.0507409 -0.910608 0)
(-0.024992 -1.33186 0)
(0.0206544 -1.26902 0)
(0.00122012 -1.22394 0)
(0.000239267 -1.22174 0)
(-6.69874e-05 -1.22176 0)
(-0.00101491 -1.22395 0)
(-0.0204706 -1.269 0)
(0.0253085 -1.33202 0)
(-0.0506615 -0.911265 0)
(0.0795663 -0.948126 0)
(-0.0240654 -1.34701 0)
(0.0136329 -1.27493 0)
(0.00673296 -1.23167 0)
(-9.7105e-05 -1.22621 0)
(0.000227849 -1.22623 0)
(-0.00658932 -1.23169 0)
(-0.0135248 -1.27495 0)
(0.0242485 -1.34708 0)
(-0.0794986 -0.948553 0)
(0.148166 -1.0805 0)
(0.00502135 -1.36626 0)
(0.012481 -1.27091 0)
(0.0217238 -1.22598 0)
(0.0062645 -1.21451 0)
(-0.00617484 -1.21452 0)
(-0.0216404 -1.22601 0)
(-0.0124251 -1.27094 0)
(-0.0048998 -1.3663 0)
(-0.148121 -1.0807 0)
(0.301401 -1.21645 0)
(0.130737 -1.32178 0)
(0.0681159 -1.20999 0)
(0.055627 -1.16861 0)
(0.0201063 -1.15651 0)
(-0.0200536 -1.15652 0)
(-0.0555828 -1.16863 0)
(-0.0680726 -1.21002 0)
(-0.130681 -1.32181 0)
(-0.301396 -1.21654 0)
(-0.125807 -0.0578553 0)
(-0.0879614 -0.0589567 0)
(-0.0496532 -0.0598584 0)
(-0.0110866 -0.0604073 0)
(0.0275904 -0.0604482 0)
(0.0662658 -0.059992 0)
(0.104755 -0.0591546 0)
(0.142808 -0.0579871 0)
(0.180173 -0.0565061 0)
(0.216579 -0.0547507 0)
(-0.10856 -0.111265 0)
(-0.0769483 -0.113151 0)
(-0.0448376 -0.114476 0)
(-0.0123746 -0.115219 0)
(0.0202312 -0.115346 0)
(0.0527383 -0.11483 0)
(0.084946 -0.113644 0)
(0.116674 -0.111753 0)
(0.147716 -0.109114 0)
(0.177857 -0.105681 0)
(-0.0955707 -0.165802 0)
(-0.0684984 -0.16862 0)
(-0.0410177 -0.170573 0)
(-0.0132694 -0.171651 0)
(0.0145873 -0.171835 0)
(0.0423855 -0.171082 0)
(0.069959 -0.169337 0)
(0.0971365 -0.16653 0)
(0.123733 -0.162581 0)
(0.149559 -0.157405 0)
(-0.0857227 -0.21586 0)
(-0.062248 -0.219604 0)
(-0.0384133 -0.222194 0)
(-0.0143491 -0.223621 0)
(0.00981374 -0.223858 0)
(0.0339427 -0.222856 0)
(0.0578992 -0.220547 0)
(0.0815368 -0.216842 0)
(0.104697 -0.211637 0)
(0.127207 -0.204813 0)
(-0.0777067 -0.259141 0)
(-0.0573072 -0.263691 0)
(-0.0365857 -0.266843 0)
(-0.0156553 -0.26859 0)
(0.00537348 -0.268904 0)
(0.0263895 -0.26773 0)
(0.047278 -0.264988 0)
(0.0679173 -0.260571 0)
(0.0881744 -0.254346 0)
(0.107899 -0.246158 0)
(-0.0710539 -0.296685 0)
(-0.0533496 -0.301954 0)
(-0.035364 -0.305608 0)
(-0.0171951 -0.307652 0)
(0.00106408 -0.30806 0)
(0.0193214 -0.306776 0)
(0.0374834 -0.303712 0)
(0.0554515 -0.298743 0)
(0.0731164 -0.291705 0)
(0.0903487 -0.282399 0)
(-0.0654355 -0.329214 0)
(-0.0501207 -0.335102 0)
(-0.03457 -0.339186 0)
(-0.0188703 -0.34148 0)
(-0.00310202 -0.341969 0)
(0.012657 -0.340599 0)
(0.0283288 -0.337276 0)
(0.0438319 -0.331857 0)
(0.0590714 -0.324148 0)
(0.0739269 -0.313898 0)
(-0.0605943 -0.357295 0)
(-0.0473786 -0.363701 0)
(-0.0339729 -0.368126 0)
(-0.0204557 -0.370603 0)
(-0.00689801 -0.371126 0)
(0.00663212 -0.369645 0)
(0.0200682 -0.366058 0)
(0.0333388 -0.360206 0)
(0.0463548 -0.351863 0)
(0.0590174 -0.340708 0)
(-0.056395 -0.381522 0)
(-0.0449413 -0.388353 0)
(-0.0333371 -0.393043 0)
(-0.0216493 -0.395642 0)
(-0.00993624 -0.396157 0)
(0.00174954 -0.394544 0)
(0.0133591 -0.390701 0)
(0.0248346 -0.384467 0)
(0.0361276 -0.375598 0)
(0.0472775 -0.363702 0)
(-0.0528933 -0.402654 0)
(-0.0427785 -0.409823 0)
(-0.0325506 -0.414719 0)
(-0.0222547 -0.417416 0)
(-0.0119251 -0.417933 0)
(-0.00158815 -0.416243 0)
(0.00873014 -0.41226 0)
(0.0190083 -0.405847 0)
(0.0293177 -0.396766 0)
(0.0399885 -0.38458 0)
(-0.0502862 -0.421671 0)
(-0.0410236 -0.429052 0)
(-0.0316895 -0.434104 0)
(-0.0222997 -0.436909 0)
(-0.0128513 -0.437506 0)
(-0.00333631 -0.435891 0)
(0.00625524 -0.432017 0)
(0.0159846 -0.425794 0)
(0.0261114 -0.417025 0)
(0.037164 -0.405356 0)
(-0.0487612 -0.439635 0)
(-0.0398773 -0.447045 0)
(-0.0309851 -0.452174 0)
(-0.0220595 -0.455099 0)
(-0.0130632 -0.455873 0)
(-0.00395287 -0.454522 0)
(0.00533262 -0.451046 0)
(0.0149764 -0.445391 0)
(0.025431 -0.437373 0)
(0.0368306 -0.426763 0)
(-0.0483573 -0.457528 0)
(-0.0394441 -0.464707 0)
(-0.0306426 -0.469761 0)
(-0.0218577 -0.472752 0)
(-0.0130268 -0.473735 0)
(-0.0040816 -0.472763 0)
(0.00509769 -0.469885 0)
(0.0148268 -0.465102 0)
(0.0256644 -0.458328 0)
(0.0362813 -0.44961 0)
(-0.0486619 -0.475881 0)
(-0.0394891 -0.482599 0)
(-0.0305886 -0.487399 0)
(-0.0217725 -0.49034 0)
(-0.0129567 -0.491479 0)
(-0.00405837 -0.490891 0)
(0.00509144 -0.488661 0)
(0.0149104 -0.484858 0)
(0.025817 -0.479547 0)
(0.0350969 -0.473111 0)
(-0.0491093 -0.494794 0)
(-0.0396331 -0.500871 0)
(-0.0305894 -0.50527 0)
(-0.0217013 -0.508036 0)
(-0.0128703 -0.509223 0)
(-0.00401775 -0.508927 0)
(0.00504983 -0.507275 0)
(0.0147832 -0.504417 0)
(0.0251112 -0.500535 0)
(0.0336506 -0.495938 0)
(-0.0493551 -0.514042 0)
(-0.0395816 -0.519469 0)
(-0.0303583 -0.523383 0)
(-0.0213588 -0.525843 0)
(-0.0124711 -0.526912 0)
(-0.00363184 -0.526694 0)
(0.00534277 -0.525358 0)
(0.014846 -0.523171 0)
(0.0244308 -0.520622 0)
(0.0324302 -0.518171 0)
(-0.0488223 -0.533473 0)
(-0.0388061 -0.53833 0)
(-0.0293961 -0.541781 0)
(-0.0202195 -0.543917 0)
(-0.0111244 -0.544814 0)
(-0.00204669 -0.544582 0)
(0.00713712 -0.543415 0)
(0.0166524 -0.541726 0)
(0.0258184 -0.54032 0)
(0.0339407 -0.54015 0)
(-0.047784 -0.553056 0)
(-0.0375978 -0.557388 0)
(-0.0280146 -0.560517 0)
(-0.018659 -0.562486 0)
(-0.00932931 -0.563341 0)
(3.01867e-05 -0.563147 0)
(0.0094426 -0.562007 0)
(0.0188459 -0.560173 0)
(0.0273571 -0.558473 0)
(0.0354173 -0.558171 0)
(-0.0471143 -0.572768 0)
(-0.0368433 -0.576638 0)
(-0.0271487 -0.579508 0)
(-0.0177581 -0.581341 0)
(-0.00844872 -0.582129 0)
(0.000836955 -0.581846 0)
(0.010025 -0.580396 0)
(0.0186851 -0.577667 0)
(0.0268329 -0.574244 0)
(0.0342159 -0.572032 0)
(-0.0465405 -0.592382 0)
(-0.0363321 -0.59589 0)
(-0.0266963 -0.598403 0)
(-0.017482 -0.599923 0)
(-0.00845523 -0.600416 0)
(0.000530344 -0.599824 0)
(0.00925669 -0.598 0)
(0.0172257 -0.594674 0)
(0.0256729 -0.589673 0)
(0.0341741 -0.584713 0)
(-0.0456059 -0.611942 0)
(-0.0355212 -0.614838 0)
(-0.0260938 -0.616801 0)
(-0.0172091 -0.617839 0)
(-0.00855105 -0.617922 0)
(7.32007e-05 -0.616998 0)
(0.00842199 -0.615017 0)
(0.0161821 -0.611755 0)
(0.0247253 -0.606479 0)
(0.0342532 -0.5996 0)
(-0.0445505 -0.632154 0)
(-0.0346092 -0.633597 0)
(-0.0254147 -0.634667 0)
(-0.0168455 -0.635071 0)
(-0.00854485 -0.634706 0)
(-0.000275222 -0.633528 0)
(0.00779284 -0.631554 0)
(0.0153024 -0.628604 0)
(0.0237286 -0.623264 0)
(0.0338443 -0.615767 0)
(-0.0419869 -0.651526 0)
(-0.0329876 -0.651706 0)
(-0.0244137 -0.651818 0)
(-0.0162819 -0.651571 0)
(-0.00835542 -0.650767 0)
(-0.000466721 -0.649361 0)
(0.00736291 -0.647416 0)
(0.0144521 -0.644891 0)
(0.0226668 -0.640451 0)
(0.0332591 -0.63278 0)
(-0.0386543 -0.667887 0)
(-0.0310689 -0.667882 0)
(-0.0233604 -0.667715 0)
(-0.0157094 -0.667164 0)
(-0.00812013 -0.666119 0)
(-0.000525369 -0.664548 0)
(0.00702092 -0.662572 0)
(0.0139606 -0.660501 0)
(0.0214174 -0.657897 0)
(0.0309377 -0.652644 0)
(-0.0367033 -0.681492 0)
(-0.0299831 -0.682264 0)
(-0.0229071 -0.682502 0)
(-0.015612 -0.682099 0)
(-0.00822596 -0.681061 0)
(-0.000835952 -0.679407 0)
(0.00650708 -0.677183 0)
(0.0133701 -0.674808 0)
(0.0201542 -0.672689 0)
(0.0278354 -0.669143 0)
(-0.0359754 -0.693963 0)
(-0.0296162 -0.6955 0)
(-0.0232077 -0.696422 0)
(-0.016338 -0.696394 0)
(-0.00931241 -0.69551 0)
(-0.00228407 -0.693822 0)
(0.00448725 -0.691269 0)
(0.0112296 -0.687909 0)
(0.0178346 -0.685164 0)
(0.0242481 -0.681814 0)
(-0.0367476 -0.70632 0)
(-0.0301764 -0.708047 0)
(-0.0243439 -0.709389 0)
(-0.0180717 -0.70964 0)
(-0.0115451 -0.708927 0)
(-0.00501257 -0.707313 0)
(0.00104033 -0.70474 0)
(0.00772349 -0.700883 0)
(0.0148837 -0.697147 0)
(0.0207829 -0.693889 0)
(-0.0390545 -0.718785 0)
(-0.0322374 -0.720387 0)
(-0.0264875 -0.721654 0)
(-0.020822 -0.721849 0)
(-0.0147741 -0.721173 0)
(-0.00875319 -0.719724 0)
(-0.00320661 -0.717495 0)
(0.00296206 -0.714211 0)
(0.0105223 -0.709781 0)
(0.016377 -0.70599 0)
(-0.0413902 -0.730811 0)
(-0.0347538 -0.732419 0)
(-0.0292439 -0.733298 0)
(-0.0240773 -0.733231 0)
(-0.0184597 -0.732515 0)
(-0.0128515 -0.731204 0)
(-0.00755214 -0.729367 0)
(-0.00198447 -0.726761 0)
(0.00465993 -0.722086 0)
(0.0104732 -0.717324 0)
(-0.0434829 -0.742115 0)
(-0.0374287 -0.743567 0)
(-0.0324116 -0.744042 0)
(-0.027714 -0.743764 0)
(-0.0226118 -0.743 0)
(-0.017524 -0.741747 0)
(-0.0125123 -0.740025 0)
(-0.00785374 -0.737584 0)
(-0.002557 -0.733403 0)
(0.00376205 -0.72819 0)
(-0.0454187 -0.752182 0)
(-0.0402335 -0.753377 0)
(-0.0358807 -0.753626 0)
(-0.0316779 -0.753243 0)
(-0.0271599 -0.752451 0)
(-0.0226371 -0.7512 0)
(-0.0181103 -0.749459 0)
(-0.013916 -0.747103 0)
(-0.00927999 -0.743799 0)
(-0.00358314 -0.738889 0)
(-0.0473292 -0.760646 0)
(-0.0430626 -0.761663 0)
(-0.0394141 -0.761887 0)
(-0.0357809 -0.761521 0)
(-0.031883 -0.76076 0)
(-0.0279643 -0.75956 0)
(-0.0239942 -0.757878 0)
(-0.0201628 -0.755675 0)
(-0.016188 -0.752811 0)
(-0.0114483 -0.748722 0)
(-0.0492854 -0.767484 0)
(-0.045834 -0.768468 0)
(-0.0428307 -0.768788 0)
(-0.0398124 -0.768525 0)
(-0.0365463 -0.76786 0)
(-0.0332324 -0.766765 0)
(-0.0298322 -0.765204 0)
(-0.0264741 -0.76315 0)
(-0.0229381 -0.760644 0)
(-0.0189062 -0.757726 0)
(-0.0510469 -0.773123 0)
(-0.0483274 -0.774033 0)
(-0.0459037 -0.774416 0)
(-0.0435206 -0.774268 0)
(-0.040888 -0.773743 0)
(-0.0381683 -0.772818 0)
(-0.0353249 -0.771472 0)
(-0.0324772 -0.769702 0)
(-0.0293952 -0.767619 0)
(-0.0256379 -0.765543 0)
(-0.0521378 -0.777343 0)
(-0.050187 -0.778291 0)
(-0.0484056 -0.778752 0)
(-0.0466471 -0.778748 0)
(-0.0446514 -0.778411 0)
(-0.0425272 -0.777722 0)
(-0.0402462 -0.776683 0)
(-0.0379395 -0.775312 0)
(-0.0353872 -0.773748 0)
(-0.0321657 -0.771946 0)
(-0.0524181 -0.779995 0)
(-0.051275 -0.781098 0)
(-0.0501684 -0.781729 0)
(-0.0490141 -0.781952 0)
(-0.047639 -0.781876 0)
(-0.046101 -0.78149 0)
(-0.044387 -0.780792 0)
(-0.0425784 -0.779809 0)
(-0.0406132 -0.778588 0)
(-0.0383232 -0.776795 0)
(-0.0520347 -0.781193 0)
(-0.0516681 -0.782505 0)
(-0.0511925 -0.78337 0)
(-0.0506066 -0.783908 0)
(-0.0498107 -0.784166 0)
(-0.0488367 -0.78412 0)
(-0.0476984 -0.783747 0)
(-0.0464338 -0.783039 0)
(-0.0450596 -0.781962 0)
(-0.0435099 -0.780338 0)
(-0.0512283 -0.781085 0)
(-0.0515406 -0.782715 0)
(-0.051569 -0.783958 0)
(-0.0514016 -0.784857 0)
(-0.0510783 -0.785448 0)
(-0.0505984 -0.785717 0)
(-0.049973 -0.78563 0)
(-0.0492183 -0.785154 0)
(-0.0483584 -0.78425 0)
(-0.0473268 -0.78291 0)
(-0.0487049 -0.779834 0)
(-0.049666 -0.781852 0)
(-0.0503078 -0.78355 0)
(-0.0506848 -0.784817 0)
(-0.0509254 -0.785734 0)
(-0.0510105 -0.786296 0)
(-0.0509427 -0.786482 0)
(-0.0507365 -0.786266 0)
(-0.0504166 -0.785633 0)
(-0.0499389 -0.784557 0)
(-0.0445019 -0.777349 0)
(-0.046132 -0.779799 0)
(-0.0474484 -0.781888 0)
(-0.0484115 -0.783553 0)
(-0.0492527 -0.784826 0)
(-0.0499504 -0.785697 0)
(-0.0504935 -0.786158 0)
(-0.0509036 -0.786208 0)
(-0.0511853 -0.785843 0)
(-0.0513865 -0.78502 0)
(-0.0388308 -0.773652 0)
(-0.0411222 -0.776502 0)
(-0.0430956 -0.778958 0)
(-0.0446269 -0.781044 0)
(-0.0460634 -0.78269 0)
(-0.0473775 -0.783867 0)
(-0.0485443 -0.784587 0)
(-0.0495973 -0.784861 0)
(-0.0505015 -0.784701 0)
(-0.0513586 -0.784033 0)
(-0.0316515 -0.76887 0)
(-0.0346769 -0.772027 0)
(-0.0372346 -0.774863 0)
(-0.039309 -0.777355 0)
(-0.0413587 -0.779342 0)
(-0.0432948 -0.780799 0)
(-0.0450932 -0.781746 0)
(-0.0468005 -0.782212 0)
(-0.0483764 -0.78222 0)
(-0.0498523 -0.781727 0)
(-0.0228247 -0.762624 0)
(-0.0267489 -0.766277 0)
(-0.0297943 -0.769573 0)
(-0.0324553 -0.772451 0)
(-0.0351559 -0.774755 0)
(-0.0377195 -0.77647 0)
(-0.0401426 -0.777629 0)
(-0.0424852 -0.778265 0)
(-0.0447009 -0.77843 0)
(-0.0468282 -0.778075 0)
(-0.0130505 -0.754976 0)
(-0.017635 -0.759337 0)
(-0.0212591 -0.763086 0)
(-0.0244563 -0.766336 0)
(-0.0277588 -0.768955 0)
(-0.0309247 -0.770932 0)
(-0.0339525 -0.772298 0)
(-0.0369151 -0.773091 0)
(-0.0397661 -0.773361 0)
(-0.0425092 -0.773067 0)
(-0.0023269 -0.746469 0)
(-0.0075436 -0.751292 0)
(-0.0117706 -0.755431 0)
(-0.0155459 -0.759037 0)
(-0.019476 -0.761954 0)
(-0.0232868 -0.764167 0)
(-0.026978 -0.765708 0)
(-0.0306397 -0.766605 0)
(-0.0342689 -0.7669 0)
(-0.0377409 -0.766574 0)
(0.00925331 -0.736893 0)
(0.00328887 -0.742027 0)
(-0.00160133 -0.746512 0)
(-0.00598811 -0.750463 0)
(-0.0105938 -0.753642 0)
(-0.0150908 -0.756034 0)
(-0.019493 -0.757672 0)
(-0.0239086 -0.758584 0)
(-0.0283918 -0.758772 0)
(-0.0326895 -0.75827 0)
(0.0212151 -0.72571 0)
(0.0143783 -0.731092 0)
(0.00885122 -0.736149 0)
(0.00386351 -0.740505 0)
(-0.00140388 -0.743939 0)
(-0.00656056 -0.746467 0)
(-0.0116402 -0.748136 0)
(-0.0167618 -0.748969 0)
(-0.0219848 -0.748977 0)
(-0.0271413 -0.748155 0)
(0.0313432 -0.713505 0)
(0.0244645 -0.719263 0)
(0.0188462 -0.724812 0)
(0.0133832 -0.729458 0)
(0.00765819 -0.733066 0)
(0.00201181 -0.735671 0)
(-0.00360378 -0.737323 0)
(-0.00926541 -0.738065 0)
(-0.0150356 -0.737934 0)
(-0.0208101 -0.736983 0)
(0.040937 -0.701159 0)
(0.0340305 -0.707402 0)
(0.0283398 -0.713109 0)
(0.0225304 -0.717822 0)
(0.0164952 -0.721446 0)
(0.0104885 -0.724022 0)
(0.00446752 -0.725601 0)
(-0.00162726 -0.726232 0)
(-0.00784033 -0.725988 0)
(-0.014116 -0.724949 0)
(0.0506943 -0.688153 0)
(0.043761 -0.694994 0)
(0.0377348 -0.7009 0)
(0.0315384 -0.705622 0)
(0.0251461 -0.709183 0)
(0.0187552 -0.711651 0)
(0.0123028 -0.713085 0)
(0.00574408 -0.713545 0)
(-0.000989236 -0.713078 0)
(-0.00787315 -0.711759 0)
(0.0605321 -0.675015 0)
(0.0536452 -0.681923 0)
(0.0470621 -0.68784 0)
(0.0403289 -0.692516 0)
(0.0334789 -0.695992 0)
(0.0265986 -0.698316 0)
(0.0196347 -0.699542 0)
(0.0125197 -0.699713 0)
(0.00516421 -0.698871 0)
(-0.00244325 -0.697055 0)
(0.0689995 -0.661575 0)
(0.0619183 -0.668278 0)
(0.0550951 -0.67397 0)
(0.0480332 -0.678523 0)
(0.0408769 -0.681872 0)
(0.0336636 -0.684008 0)
(0.0263299 -0.68495 0)
(0.0188094 -0.68473 0)
(0.0110213 -0.683391 0)
(0.00290526 -0.680997 0)
(0.0756015 -0.647159 0)
(0.0683379 -0.654085 0)
(0.0614739 -0.659741 0)
(0.0543039 -0.66419 0)
(0.047078 -0.667365 0)
(0.0397842 -0.669249 0)
(0.0323558 -0.669851 0)
(0.0247308 -0.669191 0)
(0.0168297 -0.667314 0)
(0.00857319 -0.664302 0)
(0.0805993 -0.63226 0)
(0.0734631 -0.639557 0)
(0.0664347 -0.645384 0)
(0.0592369 -0.649827 0)
(0.0520563 -0.652876 0)
(0.0448387 -0.654539 0)
(0.0375081 -0.654821 0)
(0.0300022 -0.653741 0)
(0.0222238 -0.651325 0)
(0.0140587 -0.647621 0)
(0.083353 -0.617695 0)
(0.0764744 -0.625119 0)
(0.0694152 -0.631099 0)
(0.0623574 -0.6356 0)
(0.0553622 -0.638611 0)
(0.0483474 -0.640126 0)
(0.041234 -0.640136 0)
(0.0339479 -0.638638 0)
(0.0263715 -0.635629 0)
(0.0183577 -0.631112 0)
(0.0833376 -0.603424 0)
(0.0766875 -0.611094 0)
(0.0699016 -0.617263 0)
(0.0632134 -0.621873 0)
(0.0565998 -0.62489 0)
(0.0499735 -0.626281 0)
(0.0432585 -0.626012 0)
(0.0363729 -0.624047 0)
(0.0292053 -0.620356 0)
(0.0215781 -0.614913 0)
(0.0805369 -0.589792 0)
(0.0742225 -0.597848 0)
(0.0679417 -0.604292 0)
(0.0618069 -0.60907 0)
(0.0557551 -0.612138 0)
(0.0497175 -0.613451 0)
(0.0436378 -0.612953 0)
(0.037454 -0.610586 0)
(0.0310824 -0.606284 0)
(0.0243813 -0.599997 0)
(0.0749082 -0.577555 0)
(0.069219 -0.585903 0)
(0.0636425 -0.592589 0)
(0.0581934 -0.597541 0)
(0.0528124 -0.600714 0)
(0.0474647 -0.602049 0)
(0.0421213 -0.601483 0)
(0.0367523 -0.598941 0)
(0.0313149 -0.594339 0)
(0.0257138 -0.58757 0)
(0.0670331 -0.5669 0)
(0.0621317 -0.575492 0)
(0.0573264 -0.582346 0)
(0.0525722 -0.587418 0)
(0.0478313 -0.590667 0)
(0.043089 -0.592044 0)
(0.0383357 -0.591482 0)
(0.0335583 -0.588895 0)
(0.0287332 -0.584169 0)
(0.0238039 -0.577156 0)
(0.0580701 -0.557942 0)
(0.0539332 -0.56662 0)
(0.0498006 -0.573483 0)
(0.0456222 -0.578527 0)
(0.0413845 -0.581731 0)
(0.0370871 -0.58305 0)
(0.0327319 -0.582417 0)
(0.0283195 -0.579735 0)
(0.0238437 -0.574875 0)
(0.0192903 -0.567662 0)
(0.0489226 -0.550589 0)
(0.045425 -0.55907 0)
(0.0418136 -0.56573 0)
(0.0380671 -0.570579 0)
(0.0341923 -0.573595 0)
(0.0301993 -0.574742 0)
(0.0261019 -0.573952 0)
(0.0219144 -0.57113 0)
(0.017652 -0.566143 0)
(0.0133359 -0.558826 0)
(0.0403806 -0.544278 0)
(0.0372984 -0.552423 0)
(0.034025 -0.558747 0)
(0.0305606 -0.563268 0)
(0.0269177 -0.565981 0)
(0.0231093 -0.566852 0)
(0.0191516 -0.565821 0)
(0.015061 -0.562796 0)
(0.0108563 -0.557652 0)
(0.00655968 -0.550223 0)
(0.0327817 -0.538669 0)
(0.0299399 -0.54636 0)
(0.0268771 -0.552249 0)
(0.0236041 -0.55636 0)
(0.0201333 -0.55869 0)
(0.0164775 -0.559209 0)
(0.0126502 -0.557858 0)
(0.00866746 -0.554549 0)
(0.0045469 -0.549159 0)
(0.000314605 -0.541536 0)
(0.0261889 -0.533314 0)
(0.0234664 -0.54058 0)
(0.0205584 -0.546057 0)
(0.0174677 -0.549771 0)
(0.0142002 -0.551723 0)
(0.0107616 -0.551885 0)
(0.0071626 -0.550205 0)
(0.00341649 -0.5466 0)
(-0.00045653 -0.54096 0)
(-0.00442635 -0.533145 0)
(0.0200517 -0.528182 0)
(0.0175565 -0.535119 0)
(0.0149143 -0.540265 0)
(0.0121255 -0.543652 0)
(0.00919305 -0.545282 0)
(0.00611825 -0.545137 0)
(0.00290867 -0.54317 0)
(-0.000422946 -0.539315 0)
(-0.00385715 -0.533477 0)
(-0.00736098 -0.525537 0)
(0.0141225 -0.523618 0)
(0.0120225 -0.5303 0)
(0.00981892 -0.535194 0)
(0.00751004 -0.538327 0)
(0.00509518 -0.539707 0)
(0.00257376 -0.539318 0)
(-4.92475e-05 -0.537126 0)
(-0.00276336 -0.533077 0)
(-0.00555016 -0.527097 0)
(-0.00837774 -0.519094 0)
(0.00811848 -0.52001 0)
(0.00664457 -0.526522 0)
(0.00510104 -0.531246 0)
(0.00348717 -0.534207 0)
(0.00180075 -0.535411 0)
(4.12154e-05 -0.534849 0)
(-0.0017879 -0.532497 0)
(-0.00367778 -0.528315 0)
(-0.00561134 -0.522252 0)
(-0.00756098 -0.514238 0)
(0.00194139 -0.517883 0)
(0.00132502 -0.524276 0)
(0.000661295 -0.528885 0)
(-4.95014e-05 -0.531731 0)
(-0.000807169 -0.532819 0)
(-0.00161164 -0.532144 0)
(-0.00245899 -0.529692 0)
(-0.00334097 -0.525436 0)
(-0.00424173 -0.51934 0)
(-0.00513792 -0.511362 0)
(-0.00432376 -0.517656 0)
(-0.00390749 -0.523965 0)
(-0.00352028 -0.5285 0)
(-0.00316148 -0.531273 0)
(-0.0028304 -0.53229 0)
(-0.00252653 -0.531548 0)
(-0.00224649 -0.52904 0)
(-0.00198289 -0.524751 0)
(-0.00172369 -0.51866 0)
(-0.00145006 -0.510741 0)
(-0.0106132 -0.519632 0)
(-0.00902263 -0.525892 0)
(-0.00745078 -0.530383 0)
(-0.00589589 -0.533115 0)
(-0.00435693 -0.534093 0)
(-0.00283193 -0.533316 0)
(-0.00131757 -0.530783 0)
(0.000192551 -0.526486 0)
(0.00170826 -0.520415 0)
(0.0032443 -0.512557 0)
(-0.0168416 -0.524079 0)
(-0.0139727 -0.530299 0)
(-0.0111225 -0.534759 0)
(-0.00828522 -0.537466 0)
(-0.00545835 -0.538422 0)
(-0.00263762 -0.537631 0)
(0.00018085 -0.535093 0)
(0.0030035 -0.530806 0)
(0.0058397 -0.524769 0)
(0.00870283 -0.516978 0)
(-0.0228663 -0.53117 0)
(-0.0186769 -0.537337 0)
(-0.0145066 -0.541764 0)
(-0.0103467 -0.544448 0)
(-0.00619249 -0.545393 0)
(-0.00203962 -0.544599 0)
(0.00211597 -0.54207 0)
(0.00628042 -0.537809 0)
(0.0104625 -0.531823 0)
(0.014676 -0.524116 0)
(-0.0285563 -0.540897 0)
(-0.0230747 -0.547018 0)
(-0.0175945 -0.55142 0)
(-0.0121091 -0.554095 0)
(-0.00661822 -0.555038 0)
(-0.00112229 -0.554249 0)
(0.00437708 -0.551734 0)
(0.00988082 -0.5475 0)
(0.0153917 -0.541562 0)
(0.0209195 -0.533936 0)
(-0.0340163 -0.553121 0)
(-0.0272765 -0.559263 0)
(-0.0204929 -0.563696 0)
(-0.0136683 -0.5664 0)
(-0.00681443 -0.567365 0)
(5.36462e-05 -0.566588 0)
(0.00692186 -0.564075 0)
(0.0137769 -0.559839 0)
(0.0206088 -0.553901 0)
(0.0274164 -0.546291 0)
(-0.039662 -0.567782 0)
(-0.0316239 -0.574074 0)
(-0.0234673 -0.578642 0)
(-0.015212 -0.581451 0)
(-0.00689147 -0.58248 0)
(0.00145715 -0.581721 0)
(0.00979662 -0.579181 0)
(0.0180918 -0.57488 0)
(0.026312 -0.568853 0)
(0.0344412 -0.561145 0)
(-0.0461249 -0.585007 0)
(-0.0366277 -0.591654 0)
(-0.0269045 -0.596518 0)
(-0.0170014 -0.599545 0)
(-0.00698446 -0.600696 0)
(0.00307654 -0.599957 0)
(0.0131105 -0.597336 0)
(0.0230493 -0.592865 0)
(0.0328314 -0.586596 0)
(0.0424142 -0.578599 0)
(-0.0541689 -0.605264 0)
(-0.0428893 -0.612532 0)
(-0.0312466 -0.617903 0)
(-0.0193233 -0.62129 0)
(-0.00722643 -0.622633 0)
(0.00493171 -0.621908 0)
(0.017038 -0.619126 0)
(0.0289823 -0.614331 0)
(0.040664 -0.607601 0)
(0.0520063 -0.599043 0)
(-0.0642951 -0.629236 0)
(-0.0508272 -0.637489 0)
(-0.0368125 -0.643643 0)
(-0.0223915 -0.647572 0)
(-0.00772435 -0.649194 0)
(0.0070242 -0.648474 0)
(0.0216901 -0.645425 0)
(0.0361132 -0.64011 0)
(0.0501422 -0.632636 0)
(0.0636492 -0.623152 0)
(-0.0768467 -0.657815 0)
(-0.0606856 -0.667509 0)
(-0.043773 -0.674778 0)
(-0.0263244 -0.679462 0)
(-0.00855764 -0.68146 0)
(0.00930938 -0.680733 0)
(0.0270629 -0.677301 0)
(0.0444924 -0.671242 0)
(0.0613934 -0.66269 0)
(0.0775696 -0.651837 0)
(-0.091443 -0.692056 0)
(-0.07214 -0.703655 0)
(-0.0518939 -0.712361 0)
(-0.0309978 -0.717994 0)
(-0.0097296 -0.720455 0)
(0.0116514 -0.719708 0)
(0.032894 -0.71578 0)
(0.0537486 -0.708761 0)
(0.0739554 -0.698798 0)
(0.0932429 -0.686109 0)
(-0.106935 -0.732809 0)
(-0.0842195 -0.746705 0)
(-0.0604718 -0.75708 0)
(-0.0360055 -0.763793 0)
(-0.0111438 -0.766768 0)
(0.0138332 -0.765992 0)
(0.0386646 -0.761503 0)
(0.0630851 -0.75339 0)
(0.086795 -0.741792 0)
(0.10951 -0.726906 0)
(-0.121424 -0.780263 0)
(-0.0953462 -0.796713 0)
(-0.0683708 -0.808841 0)
(-0.0406942 -0.81665 0)
(-0.0126335 -0.820138 0)
(0.0155301 -0.819331 0)
(0.0435538 -0.814284 0)
(0.0711742 -0.80507 0)
(0.0980996 -0.791787 0)
(0.124173 -0.774501 0)
(-0.133266 -0.833999 0)
(-0.10401 -0.852906 0)
(-0.0744359 -0.866606 0)
(-0.0443709 -0.875348 0)
(-0.0139903 -0.879253 0)
(0.0164675 -0.878404 0)
(0.046795 -0.872867 0)
(0.0767674 -0.862693 0)
(0.106235 -0.847882 0)
(0.1354 -0.828276 0)
(-0.140388 -0.892445 0)
(-0.108729 -0.913376 0)
(-0.0775777 -0.928271 0)
(-0.0463527 -0.937661 0)
(-0.0149382 -0.941825 0)
(0.0165246 -0.940914 0)
(0.0478733 -0.935006 0)
(0.0789798 -0.924111 0)
(0.109981 -0.908088 0)
(0.141486 -0.88651 0)
(-0.142012 -0.95354 0)
(-0.109244 -0.975674 0)
(-0.0775048 -0.991244 0)
(-0.0463701 -1.00091 0)
(-0.0152883 -1.00514 0)
(0.0158 -1.00417 0)
(0.0468257 -0.99808 0)
(0.0778663 -0.986829 0)
(0.109485 -0.970121 0)
(0.142166 -0.947428 0)
(-0.136366 -1.01478 0)
(-0.105249 -1.03724 0)
(-0.0740651 -1.0528 0)
(-0.0442798 -1.0623 0)
(-0.0149023 -1.06638 0)
(0.014422 -1.06537 0)
(0.0437783 -1.05937 0)
(0.073536 -1.04825 0)
(0.104695 -1.03155 0)
(0.135907 -1.00855 0)
(-0.123074 -1.07583 0)
(-0.0968868 -1.09598 0)
(-0.067653 -1.11032 0)
(-0.0403458 -1.11916 0)
(-0.0138081 -1.12293 0)
(0.0126116 -1.12193 0)
(0.0391711 -1.11627 0)
(0.0665458 -1.10585 0)
(0.0959108 -1.09042 0)
(0.122378 -1.06972 0)
(-0.104968 -1.13161 0)
(-0.0845967 -1.14874 0)
(-0.0589251 -1.1615 0)
(-0.0350367 -1.1695 0)
(-0.012119 -1.1729 0)
(0.0106222 -1.17196 0)
(0.0336065 -1.16678 0)
(0.0576562 -1.15735 0)
(0.083616 -1.14367 0)
(0.104387 -1.12618 0)
(-0.0836873 -1.17761 0)
(-0.0687237 -1.19308 0)
(-0.0479493 -1.2045 0)
(-0.0283949 -1.21165 0)
(-0.00987144 -1.21468 0)
(0.00844509 -1.21385 0)
(0.0270831 -1.20926 0)
(0.0468923 -1.20089 0)
(0.0681023 -1.18872 0)
(0.0834872 -1.17304 0)
(-0.0611847 -1.21504 0)
(-0.0507345 -1.22835 0)
(-0.0356462 -1.23804 0)
(-0.0209962 -1.24422 0)
(-0.00732022 -1.24689 0)
(0.00614601 -1.2462 0)
(0.0199654 -1.24227 0)
(0.0349287 -1.23513 0)
(0.0504992 -1.22487 0)
(0.0613786 -1.21137 0)
(-0.0393153 -1.24301 0)
(-0.0329678 -1.25356 0)
(-0.0233202 -1.26144 0)
(-0.0137145 -1.26675 0)
(-0.00480668 -1.26919 0)
(0.00396318 -1.26866 0)
(0.0130183 -1.26529 0)
(0.0229453 -1.2593 0)
(0.033056 -1.25103 0)
(0.0397854 -1.24033 0)
(-0.0197188 -1.26023 0)
(-0.0168078 -1.26855 0)
(-0.012062 -1.27507 0)
(-0.00718164 -1.27988 0)
(-0.0025659 -1.28232 0)
(0.00205618 -1.28194 0)
(0.00680214 -1.27885 0)
(0.0119718 -1.27362 0)
(0.0171148 -1.26686 0)
(0.0203273 -1.25846 0)
(-0.00358987 -1.26798 0)
(-0.00341788 -1.27448 0)
(-0.00275541 -1.28011 0)
(-0.00188174 -1.28489 0)
(-0.000763856 -1.28772 0)
(0.000542382 -1.28745 0)
(0.00175788 -1.28422 0)
(0.0028608 -1.27924 0)
(0.00383348 -1.2735 0)
(0.00423349 -1.26696 0)
(0.00866274 -1.26769 0)
(0.00667593 -1.27287 0)
(0.00410496 -1.27816 0)
(0.00196912 -1.28353 0)
(0.000569785 -1.28725 0)
(-0.000561745 -1.28704 0)
(-0.00190259 -1.2831 0)
(-0.00388706 -1.27772 0)
(-0.00622875 -1.27244 0)
(-0.00804315 -1.26728 0)
(0.0169243 -1.26068 0)
(0.0132643 -1.26518 0)
(0.00833228 -1.27108 0)
(0.00449378 -1.2779 0)
(0.00160209 -1.28271 0)
(-0.00142878 -1.28253 0)
(-0.0042853 -1.27759 0)
(-0.00806625 -1.27092 0)
(-0.0128361 -1.26518 0)
(-0.016357 -1.26076 0)
(0.0211261 -1.24807 0)
(0.0162506 -1.25291 0)
(0.0100139 -1.26138 0)
(0.00607042 -1.27075 0)
(0.00262001 -1.27555 0)
(-0.00235005 -1.27539 0)
(-0.00575266 -1.27041 0)
(-0.00973554 -1.26135 0)
(-0.0158834 -1.25325 0)
(-0.020645 -1.24858 0)
(0.0207719 -1.22977 0)
(0.0155834 -1.23798 0)
(0.00981471 -1.25289 0)
(0.00711058 -1.2649 0)
(0.00378019 -1.26621 0)
(-0.00346498 -1.26619 0)
(-0.00672459 -1.26447 0)
(-0.00948895 -1.25274 0)
(-0.0152986 -1.23858 0)
(-0.0204321 -1.2308 0)
(0.0148987 -1.20319 0)
(0.0111844 -1.22336 0)
(0.00993621 -1.24988 0)
(0.00805761 -1.25977 0)
(0.00508275 -1.25418 0)
(-0.00475283 -1.25429 0)
(-0.0077024 -1.25945 0)
(-0.00945856 -1.24937 0)
(-0.0109878 -1.22403 0)
(-0.0147535 -1.20491 0)
(0.00634811 -1.15994 0)
(0.00313755 -1.21599 0)
(0.013985 -1.25423 0)
(0.00811649 -1.24992 0)
(0.00608484 -1.24045 0)
(-0.0057686 -1.24053 0)
(-0.00788386 -1.24994 0)
(-0.013336 -1.25346 0)
(-0.0030198 -1.21628 0)
(-0.00627424 -1.1624 0)
(0.0082601 -1.07844 0)
(-0.012131 -1.24252 0)
(0.0205331 -1.26338 0)
(0.0030896 -1.23446 0)
(0.0052893 -1.22888 0)
(-0.00500121 -1.2289 0)
(-0.0028428 -1.23456 0)
(-0.0199643 -1.26297 0)
(0.0122844 -1.2423 0)
(-0.00792188 -1.08084 0)
(0.253825 -0.0526007 0)
(0.291213 -0.0497414 0)
(0.326202 -0.046246 0)
(0.358354 -0.0421776 0)
(0.387215 -0.0376071 0)
(0.412393 -0.0326134 0)
(0.433583 -0.0272979 0)
(0.450581 -0.0217819 0)
(0.463298 -0.0161881 0)
(0.471755 -0.0106105 0)
(0.476131 -0.0050846 0)
(0.476548 0.000305286 0)
(0.472862 0.00532085 0)
(0.465757 0.00978913 0)
(0.455761 0.0136408 0)
(0.44326 0.0168887 0)
(0.4286 0.0195942 0)
(0.4121 0.0218372 0)
(0.394037 0.0236956 0)
(0.374644 0.0252379 0)
(0.354116 0.0265228 0)
(0.332617 0.0275996 0)
(0.310287 0.0285103 0)
(0.28724 0.0292907 0)
(0.263572 0.0299698 0)
(0.239364 0.0305702 0)
(0.214687 0.0311081 0)
(0.189607 0.0315909 0)
(0.164197 0.0320139 0)
(0.138545 0.0323539 0)
(0.112776 0.032559 0)
(0.0870766 0.0325304 0)
(0.0616995 0.0320931 0)
(0.0369784 0.0309342 0)
(0.0144133 0.0285551 0)
(-0.00632036 0.0253801 0)
(-0.0229062 0.0143773 0)
(-0.0348932 0.00486961 0)
(-0.0377335 -0.020419 0)
(-0.0170509 -0.049097 0)
(0.208735 -0.101131 0)
(0.239725 -0.0951613 0)
(0.268557 -0.0880077 0)
(0.294864 -0.0797109 0)
(0.318316 -0.0703786 0)
(0.338632 -0.0601944 0)
(0.35561 -0.0494136 0)
(0.369158 -0.0383384 0)
(0.379304 -0.0272792 0)