/*--------------------------------*- C++ -*----------------------------------*\
  =========                 |
  \\      /  F ield         | OpenFOAM: The Open Source CFD Toolbox
   \\    /   O peration     | Website:  https://openfoam.org
    \\  /    A nd           | Version:  8
     \\/     M anipulation  |
\*---------------------------------------------------------------------------*/
FoamFile
{
    version     2.0;
    format      ascii;
    class       surfaceScalarField;
    location    "1.55";
    object      alphaPhi0.water;
}
// * * * * * * * * * * * * * * * * * * * * * * * * * * * * * * * * * * * * * //

dimensions      [0 3 -1 0 0 0 0];

internalField   nonuniform List<scalar> 
18095
(
1.58883e-07
-9.65044e-07
8.06162e-07
1.65642e-07
-1.24834e-06
1.24158e-06
1.22361e-07
-1.24234e-06
1.28562e-06
6.54012e-08
-1.2636e-06
1.32056e-06
3.08285e-12
-1.28067e-06
1.34606e-06
-6.53955e-08
-1.28067e-06
1.34607e-06
-1.22356e-07
-1.26361e-06
1.32057e-06
-1.65639e-07
-1.24235e-06
1.28563e-06
-1.58882e-07
-1.24834e-06
1.24159e-06
-9.65048e-07
8.06166e-07
1.1115e-07
-1.07619e-06
9.95682e-08
-1.23676e-06
7.2969e-08
-1.21574e-06
4.00946e-08
-1.23073e-06
2.29522e-12
-1.24057e-06
-4.00903e-08
-1.24057e-06
-7.29656e-08
-1.23073e-06
-9.95658e-08
-1.21575e-06
-1.11149e-07
-1.23676e-06
-1.0762e-06
6.72878e-08
-1.14348e-06
5.2871e-08
-1.22234e-06
4.2231e-08
-1.2051e-06
2.39091e-08
-1.21241e-06
1.58665e-12
-1.21667e-06
-2.39062e-08
-1.21667e-06
-4.22287e-08
-1.21241e-06
-5.28693e-08
-1.2051e-06
-6.72868e-08
-1.22234e-06
-1.14348e-06
3.97049e-08
-1.18319e-06
2.66854e-08
-1.20932e-06
2.20679e-08
-1.20049e-06
1.25607e-08
-1.2029e-06
1.01773e-12
-1.20411e-06
-1.25588e-08
-1.20411e-06
-2.20664e-08
-1.2029e-06
-2.66843e-08
-1.20049e-06
-3.97042e-08
-1.20932e-06
-1.18319e-06
1.68136e-08
7.49179e-09
7.00547e-09
4.10616e-09
5.09017e-13
-4.10517e-09
-7.00461e-09
-7.49115e-09
-1.6813e-08
-1.76057e-07
-1.16327e-06
1.33933e-06
-2.20339e-07
-1.21663e-06
1.26092e-06
-1.6598e-07
-1.21304e-06
1.15868e-06
-8.74267e-08
-1.20422e-06
1.12567e-06
3.07612e-11
-1.20279e-06
1.11533e-06
8.74869e-08
-1.20279e-06
1.11534e-06
1.66035e-07
-1.20423e-06
1.12568e-06
2.20388e-07
-1.21306e-06
1.15871e-06
1.76099e-07
-1.21666e-06
1.26095e-06
-1.1633e-06
1.3394e-06
-9.28048e-08
-1.07047e-06
-9.56696e-08
-1.21377e-06
-7.94075e-08
-1.2293e-06
-4.43108e-08
-1.23931e-06
1.74776e-11
-1.24712e-06
4.43444e-08
-1.24712e-06
7.94373e-08
-1.23932e-06
9.56933e-08
-1.22932e-06
9.28181e-08
-1.21379e-06
-1.07048e-06
-5.80068e-08
-1.01246e-06
-5.51769e-08
-1.2166e-06
-4.65345e-08
-1.23795e-06
-2.71434e-08
-1.25871e-06
1.05728e-11
-1.27427e-06
2.71635e-08
-1.27427e-06
4.65516e-08
-1.25871e-06
5.51893e-08
-1.23796e-06
5.80129e-08
-1.21661e-06
-1.01247e-06
-7.49523e-08
-9.3751e-07
-6.20987e-08
-1.22945e-06
-4.86031e-08
-1.25144e-06
-2.7761e-08
-1.27955e-06
6.60803e-12
-1.30204e-06
2.77734e-08
-1.30204e-06
4.86134e-08
-1.27955e-06
6.21056e-08
-1.25145e-06
7.49556e-08
-1.22946e-06
-9.37516e-07
-1.31348e-07
-1.19219e-07
-8.50369e-08
-4.4022e-08
4.36865e-12
4.40301e-08
8.50435e-08
1.19224e-07
1.3135e-07
-5.98008e-08
-9.43068e-07
1.00287e-06
-2.53083e-09
-1.33846e-06
1.28119e-06
8.55529e-09
-1.27092e-06
1.25983e-06
3.77587e-09
-1.22471e-06
1.22949e-06
2.70014e-10
-1.22226e-06
1.22577e-06
-3.238e-09
-1.22228e-06
1.22579e-06
-8.03632e-09
-1.22473e-06
1.22953e-06
3.34642e-09
-1.27092e-06
1.25954e-06
6.09822e-08
-1.33853e-06
1.2809e-06
-9.44129e-07
1.00511e-06
6.71224e-09
-9.4978e-07
1.4254e-08
-1.346e-06
1.06048e-08
-1.26727e-06
5.88615e-09
-1.21999e-06
2.38294e-10
-1.21661e-06
-5.39398e-09
-1.21665e-06
-1.01312e-08
-1.22e-06
-1.37634e-08
-1.26729e-06
-6.1767e-09
-1.34612e-06
-9.50306e-07
2.59211e-08
-9.75702e-07
1.77931e-08
-1.33787e-06
9.29742e-09
-1.25877e-06
5.57547e-09
-1.21627e-06
1.40539e-10
-1.21118e-06
-5.31693e-09
-1.21119e-06
-9.01991e-09
-1.21629e-06
-1.75052e-08
-1.2588e-06
-2.56693e-08
-1.33796e-06
-9.75975e-07
7.87357e-08
-1.05444e-06
5.32883e-08
-1.31242e-06
3.42946e-08
-1.23978e-06
2.08506e-08
-1.20282e-06
8.46152e-11
-1.19041e-06
-2.06848e-08
-1.19042e-06
-3.4124e-08
-1.20286e-06
-5.3108e-08
-1.23982e-06
-7.8601e-08
-1.31246e-06
-1.05458e-06
2.84894e-07
2.33388e-07
1.52292e-07
7.51329e-08
5.17687e-11
-7.5031e-08
-1.52202e-07
-2.33312e-07
-2.84826e-07
-9.01401e-08
-7.2497e-08
1.62637e-07
-1.69037e-08
-7.32364e-08
5.66955e-08
-7.35993e-08
1.30371e-07
-7.36756e-08
2.03643e-07
-7.32711e-08
2.75986e-07
-7.23426e-08
3.4685e-07
-7.08644e-08
4.15636e-07
-6.87861e-08
4.81689e-07
-6.60571e-08
-6.25881e-08
5.44277e-07
-7.79592e-08
-1.32733e-07
1.38195e-07
-1.69616e-08
-1.34234e-07
4.43367e-08
-1.34898e-07
1.05407e-07
-1.34747e-07
1.65879e-07
-1.33745e-07
2.2537e-07
-1.31837e-07
2.83455e-07
-1.28952e-07
3.39643e-07
-1.24994e-07
3.93478e-07
-1.19873e-07
-1.13454e-07
4.44355e-07
-6.90219e-08
-1.83987e-07
1.20276e-07
-1.7325e-08
-1.85931e-07
3.44969e-08
-1.8672e-07
8.61159e-08
-1.86368e-07
1.37227e-07
-1.84857e-07
1.87522e-07
-1.82135e-07
2.36653e-07
-1.7811e-07
2.8432e-07
-1.72629e-07
3.30105e-07
-1.65631e-07
-1.56884e-07
3.73541e-07
-6.13835e-08
-2.27933e-07
1.05329e-07
-1.7155e-08
-2.3016e-07
2.70866e-08
-2.30962e-07
7.1112e-08
-2.30393e-07
1.14704e-07
-2.2845e-07
1.57643e-07
-2.25075e-07
1.99702e-07
-2.2017e-07
2.40574e-07
-2.1354e-07
2.80076e-07
-2.05085e-07
-1.94482e-07
3.17681e-07
-5.32163e-08
-2.65213e-07
9.04965e-08
-1.57232e-08
-2.67653e-07
2.17639e-08
-2.68449e-07
5.90737e-08
-2.67703e-07
9.60512e-08
-2.65427e-07
1.32539e-07
-2.61566e-07
1.6839e-07
-2.56023e-07
2.03378e-07
-2.48567e-07
2.3737e-07
-2.39071e-07
-2.2707e-07
2.69968e-07
-4.53061e-08
-2.9675e-07
7.68436e-08
-1.37169e-08
-2.99242e-07
1.78337e-08
-3e-07
4.92587e-08
-2.99128e-07
8.04654e-08
-2.96634e-07
1.11359e-07
-2.92464e-07
1.41865e-07
-2.86529e-07
1.71893e-07
-2.78634e-07
2.01446e-07
-2.68621e-07
-2.55967e-07
2.30347e-07
-3.96857e-08
-3.23971e-07
6.6906e-08
-1.27283e-08
-3.26199e-07
1.40988e-08
-3.26827e-07
4.08174e-08
-3.25847e-07
6.7408e-08
-3.23225e-07
9.38445e-08
-3.18904e-07
1.20119e-07
-3.12805e-07
1.46276e-07
-3.04832e-07
1.72524e-07
-2.94871e-07
-2.82819e-07
1.99379e-07
-3.75319e-08
-3.48076e-07
6.16372e-08
-1.38358e-08
-3.49895e-07
9.6511e-09
-3.50314e-07
3.30214e-08
-3.49217e-07
5.63238e-08
-3.46527e-07
7.95914e-08
-3.42172e-07
1.02862e-07
-3.36069e-07
1.26218e-07
-3.28189e-07
1.49821e-07
-3.18475e-07
-3.06936e-07
1.73929e-07
-3.79908e-08
-3.69683e-07
5.95976e-08
-1.66738e-08
-3.71212e-07
4.45616e-09
-3.71444e-07
2.54964e-08
-3.70257e-07
4.65265e-08
-3.67557e-07
6.76079e-08
-3.63253e-07
8.87799e-08
-3.57245e-07
1.10063e-07
-3.49472e-07
1.31198e-07
-3.39612e-07
-3.26547e-07
1.50697e-07
-3.95188e-08
-3.89007e-07
5.88433e-08
-2.02895e-08
-3.90441e-07
-1.12653e-09
-3.90607e-07
1.80308e-08
-3.89414e-07
3.72476e-08
-3.86774e-07
5.65788e-08
-3.82585e-07
7.60458e-08
-3.76716e-07
9.56129e-08
-3.69039e-07
1.14125e-07
-3.54452e-07
-3.45516e-07
1.31765e-07
-4.19338e-08
-4.0642e-07
5.93468e-08
-2.45165e-08
-4.07859e-07
-7.08081e-09
-4.08042e-07
1.04149e-08
-4.0691e-07
2.80249e-08
-4.04384e-07
4.58035e-08
-4.00363e-07
6.37958e-08
-3.9472e-07
8.20245e-08
-3.87268e-07
9.49756e-08
-3.70006e-07
-3.13238e-07
1.12309e-07
-4.50401e-08
-4.22291e-07
6.09109e-08
-2.91404e-08
-4.23758e-07
-1.31785e-08
-4.24004e-07
2.90369e-09
-4.22993e-07
1.91815e-08
-4.20662e-07
3.57488e-08
-4.1693e-07
5.27248e-08
-4.11696e-07
7.02798e-08
-4.04823e-07
8.65804e-08
-3.89622e-07
-3.34021e-07
9.20601e-08
-4.81496e-08
-4.36681e-07
6.25396e-08
-3.36811e-08
-4.38227e-07
-1.90861e-08
-4.38599e-07
-4.29669e-09
-4.37782e-07
1.07804e-08
-4.35739e-07
2.62714e-08
-4.32421e-07
4.23546e-08
-4.27779e-07
5.93065e-08
-4.21775e-07
7.04789e-08
-4.13742e-07
-3.45722e-07
6.99387e-08
-5.14254e-08
-4.49834e-07
6.45783e-08
-3.81827e-08
-4.51469e-07
-2.47704e-08
-4.52012e-07
-1.11034e-08
-4.51449e-07
2.92019e-09
-4.49762e-07
1.74346e-08
-4.46936e-07
3.26174e-08
-4.42962e-07
4.87293e-08
-4.37887e-07
6.29991e-08
-4.30635e-07
-4.03143e-07
5.79485e-08
-5.5045e-08
-4.62043e-07
6.7254e-08
-4.27284e-08
-4.63786e-07
-3.01826e-08
-4.64557e-07
-1.72932e-08
-4.64338e-07
-3.94066e-09
-4.63115e-07
1.00119e-08
-4.60888e-07
2.47369e-08
-4.57685e-07
4.04268e-08
-4.53577e-07
5.62437e-08
-4.47104e-07
-4.3904e-07
6.69691e-08
-5.94029e-08
-4.73452e-07
7.08123e-08
-4.78448e-08
-4.75344e-07
-3.59984e-08
-4.76404e-07
-2.37441e-08
-4.76593e-07
-1.09722e-08
-4.75887e-07
2.42038e-09
-4.74281e-07
1.65276e-08
-4.71792e-07
3.14038e-08
-4.68452e-07
4.67265e-08
-4.63881e-07
-4.5731e-07
6.24791e-08
-6.51657e-08
-4.84141e-07
7.5854e-08
-5.42965e-08
-4.86213e-07
-4.3123e-08
-4.87577e-07
-3.15501e-08
-4.88165e-07
-1.95064e-08
-4.8793e-07
-6.94479e-09
-4.86843e-07
6.14829e-09
-4.84886e-07
1.97331e-08
-4.82032e-07
3.3651e-08
-4.7828e-07
-4.70148e-07
4.74503e-08
-7.27088e-08
-4.94178e-07
8.27459e-08
-6.24676e-08
-4.96454e-07
-5.19344e-08
-4.98111e-07
-4.10507e-08
-4.99049e-07
-2.97847e-08
-4.99196e-07
-1.81313e-08
-4.98496e-07
-6.11249e-09
-4.96906e-07
6.21926e-09
-4.94385e-07
1.87044e-08
-4.90773e-07
-4.8075e-07
3.03935e-08
-8.19483e-08
-5.03602e-07
9.13722e-08
-7.22795e-08
-5.06123e-07
-6.23229e-08
-5.08067e-07
-5.20548e-08
-5.09317e-07
-4.14745e-08
-5.09777e-07
-3.06006e-08
-5.0937e-07
-1.94679e-08
-5.08039e-07
-8.11899e-09
-5.05737e-07
3.3913e-09
-5.02286e-07
-4.93797e-07
1.43922e-08
-9.25359e-08
-5.12378e-07
1.01334e-07
-8.34097e-08
-5.15249e-07
-7.3971e-08
-5.17506e-07
-6.42278e-08
-5.1906e-07
-5.42038e-08
-5.19801e-07
-4.3935e-08
-5.19639e-07
-3.34655e-08
-5.18508e-07
-2.28416e-08
-5.16362e-07
-1.21012e-08
-5.13079e-07
-5.08203e-07
-1.26101e-09
-1.04116e-07
-5.20495e-07
1.12297e-07
-9.55244e-08
-5.23841e-07
-8.65727e-08
-5.26458e-07
-7.72981e-08
-5.28335e-07
-6.77478e-08
-5.29351e-07
-5.79754e-08
-5.29411e-07
-4.80386e-08
-5.28445e-07
-3.7994e-08
-5.26406e-07
-2.78978e-08
-5.23241e-07
-5.18856e-07
-1.77998e-08
-1.16449e-07
-5.28116e-07
1.24021e-07
-1.08372e-07
-5.31918e-07
-9.98814e-08
-5.34948e-07
-9.10446e-08
-5.37172e-07
-8.19347e-08
-5.38461e-07
-7.26272e-08
-5.38719e-07
-6.31965e-08
-5.37876e-07
-5.37128e-08
-5.3589e-07
-4.42379e-08
-5.32736e-07
-5.28313e-07
-3.48111e-08
-1.29372e-07
-5.35294e-07
1.36428e-07
-1.2172e-07
-5.3957e-07
-1.13607e-07
-5.4306e-07
-1.05137e-07
-5.45642e-07
-9.64089e-08
-5.47189e-07
-8.75228e-08
-5.47605e-07
-7.85726e-08
-5.46826e-07
-6.96455e-08
-5.44818e-07
-6.08163e-08
-5.41566e-07
-5.37011e-07
-5.21202e-08
-1.4265e-07
-5.42096e-07
1.49381e-07
-1.35216e-07
-5.47004e-07
-1.27301e-07
-5.50976e-07
-1.19036e-07
-5.53907e-07
-1.10543e-07
-5.55682e-07
-1.01933e-07
-5.56215e-07
-9.33117e-08
-5.55447e-07
-8.47837e-08
-5.53346e-07
-7.64486e-08
-5.49901e-07
-5.45069e-07
-6.83901e-08
-1.5564e-07
-5.48865e-07
1.62419e-07
-1.48187e-07
-5.54458e-07
-1.4026e-07
-5.58903e-07
-1.31999e-07
-5.62167e-07
-1.2352e-07
-5.64161e-07
-1.1492e-07
-5.64815e-07
-1.06286e-07
-5.64081e-07
-9.77075e-08
-5.61925e-07
-8.92752e-08
-5.58333e-07
-5.53242e-07
-8.11018e-08
-1.67259e-07
-5.55717e-07
1.74054e-07
-1.59755e-07
-5.61961e-07
-1.51768e-07
-5.6689e-07
-1.43444e-07
-5.70491e-07
-1.3489e-07
-5.72715e-07
-1.26185e-07
-5.7352e-07
-1.17393e-07
-5.72873e-07
-1.08577e-07
-5.7074e-07
-9.98176e-08
-5.67092e-07
-5.61821e-07
-9.12388e-08
-1.77355e-07
-5.62716e-07
1.84284e-07
-1.69733e-07
-5.69583e-07
-1.61643e-07
-5.7498e-07
-1.53239e-07
-5.78895e-07
-1.4463e-07
-5.81324e-07
-1.35891e-07
-5.8226e-07
-1.27074e-07
-5.8169e-07
-1.18229e-07
-5.79585e-07
-1.09424e-07
-5.75897e-07
-5.70491e-07
-1.00753e-07
-1.86412e-07
-5.70288e-07
1.93985e-07
-1.78311e-07
-5.77682e-07
-1.69875e-07
-5.83417e-07
-1.61238e-07
-5.87532e-07
-1.52491e-07
-5.9007e-07
-1.43693e-07
-5.91059e-07
-1.34876e-07
-5.90506e-07
-1.26066e-07
-5.88395e-07
-1.1729e-07
-5.84673e-07
-5.79214e-07
-1.08566e-07
-1.94323e-07
-5.7917e-07
2.03206e-07
-1.85269e-07
-5.86736e-07
-1.76151e-07
-5.92535e-07
-1.67037e-07
-5.96646e-07
-1.57959e-07
-5.99148e-07
-1.48921e-07
-6.00097e-07
-1.39906e-07
-5.99521e-07
-1.30883e-07
-5.97418e-07
-1.21804e-07
-5.93751e-07
-5.88428e-07
-1.1259e-07
-1.99828e-07
-5.8959e-07
2.10248e-07
-1.89685e-07
-5.96881e-07
-1.79808e-07
-6.02411e-07
-1.70167e-07
-6.06288e-07
-1.60705e-07
-6.0861e-07
-1.51355e-07
-6.09447e-07
-1.42033e-07
-6.08843e-07
-1.32641e-07
-6.0681e-07
-1.2306e-07
-6.03332e-07
-5.98356e-07
-1.13132e-07
-2.01182e-07
-6.00923e-07
2.12514e-07
-1.90447e-07
-6.07617e-07
-1.80202e-07
-6.12656e-07
-1.70332e-07
-6.16157e-07
-1.60719e-07
-6.18223e-07
-1.5124e-07
-6.18926e-07
-1.41768e-07
-6.18315e-07
-1.32161e-07
-6.16417e-07
-1.22256e-07
-6.13237e-07
-6.08764e-07
-1.11848e-07
-1.97986e-07
-6.12194e-07
2.09254e-07
-1.87411e-07
-6.18197e-07
-1.77376e-07
-6.22692e-07
-1.67736e-07
-6.25797e-07
-1.58354e-07
-6.27605e-07
-1.49098e-07
-6.28182e-07
-1.3984e-07
-6.27573e-07
-1.30453e-07
-6.25804e-07
-1.208e-07
-6.2289e-07
-6.18836e-07
-1.10727e-07
-1.91139e-07
-6.2274e-07
2.01685e-07
-1.81249e-07
-6.28087e-07
-1.71841e-07
-6.32099e-07
-1.62762e-07
-6.34876e-07
-1.53868e-07
-6.36499e-07
-1.45024e-07
-6.37026e-07
-1.361e-07
-6.36497e-07
-1.26965e-07
-6.34939e-07
-1.17497e-07
-6.32358e-07
-6.28759e-07
-1.07574e-07
-1.81497e-07
-6.32094e-07
1.9085e-07
-1.72689e-07
-6.36895e-07
-1.6427e-07
-6.40518e-07
-1.561e-07
-6.43046e-07
-1.48053e-07
-6.44546e-07
-1.40011e-07
-6.45067e-07
-1.31866e-07
-6.44643e-07
-1.23519e-07
-6.43286e-07
-1.14891e-07
-6.40986e-07
-6.37713e-07
-1.05936e-07
-1.69594e-07
-6.39952e-07
1.77453e-07
-1.62164e-07
-6.44325e-07
-1.55035e-07
-6.47647e-07
-1.48097e-07
-6.49985e-07
-1.41249e-07
-6.51394e-07
-1.34405e-07
-6.51911e-07
-1.27491e-07
-6.51556e-07
-1.20446e-07
-6.50331e-07
-1.13222e-07
-6.48211e-07
-6.45143e-07
-1.05792e-07
-1.5554e-07
-6.46055e-07
1.61643e-07
-1.49737e-07
-6.50129e-07
-1.44132e-07
-6.53251e-07
-1.38637e-07
-6.5548e-07
-1.33172e-07
-6.56859e-07
-1.27659e-07
-6.57423e-07
-1.22027e-07
-6.57188e-07
-1.16197e-07
-6.56162e-07
-1.10074e-07
-6.54334e-07
-6.51688e-07
-1.03529e-07
-1.39658e-07
-6.50216e-07
1.4382e-07
-1.35651e-07
-6.54136e-07
-1.31725e-07
-6.57177e-07
-1.27815e-07
-6.5939e-07
-1.23857e-07
-6.60817e-07
-1.1979e-07
-6.61489e-07
-1.1555e-07
-6.61429e-07
-1.11061e-07
-6.6065e-07
-1.06229e-07
-6.59166e-07
-6.56996e-07
-1.00922e-07
-1.22567e-07
-6.52464e-07
1.24815e-07
-1.2035e-07
-6.56353e-07
-1.18108e-07
-6.59419e-07
-1.15789e-07
-6.61709e-07
-1.13343e-07
-6.63263e-07
-1.10718e-07
-6.64114e-07
-1.07858e-07
-6.64288e-07
-1.04697e-07
-6.63811e-07
-1.01156e-07
-6.62707e-07
-6.61012e-07
-9.71404e-08
-1.04751e-07
-6.52909e-07
1.05195e-07
-1.04243e-07
-6.56861e-07
-1.03631e-07
-6.60032e-07
-1.02875e-07
-6.62465e-07
-1.01939e-07
-6.64199e-07
-1.00784e-07
-6.65269e-07
-9.93661e-08
-6.65706e-07
-9.76376e-08
-6.6554e-07
-9.55448e-08
-6.648e-07
-6.63521e-07
-9.30354e-08
-8.65251e-08
-6.517e-07
8.53164e-08
-8.76104e-08
-6.55776e-07
-8.85475e-08
-6.59095e-07
-8.93123e-08
-6.617e-07
-8.98829e-08
-6.63629e-07
-9.02373e-08
-6.64915e-07
-9.03526e-08
-6.65591e-07
-9.02046e-08
-6.65688e-07
-8.97702e-08
-6.65234e-07
-6.6426e-07
-8.90317e-08
-6.7975e-08
-6.48981e-07
6.52547e-08
-7.05443e-08
-6.53206e-07
-7.29514e-08
-6.56688e-07
-7.51861e-08
-6.59465e-07
-7.72426e-08
-6.61573e-07
-7.9117e-08
-6.6304e-07
-8.08085e-08
-6.63899e-07
-8.23183e-08
-6.64178e-07
-8.3651e-08
-6.63902e-07
-6.63097e-07
-8.48138e-08
-4.90473e-08
-6.44842e-07
4.49072e-08
-5.30218e-08
-6.49232e-07
-5.68272e-08
-6.52882e-07
-6.04656e-08
-6.55827e-07
-6.39442e-08
-6.58094e-07
-6.72733e-08
-6.59712e-07
-7.04669e-08
-6.60706e-07
-7.35407e-08
-6.61104e-07
-7.65116e-08
-6.60931e-07
-6.60212e-07
-7.93964e-08
-2.9967e-08
-6.39405e-07
2.45297e-08
-3.52305e-08
-6.43968e-07
-4.03228e-08
-6.4779e-07
-4.5255e-08
-6.50895e-07
-5.00427e-08
-6.53306e-07
-5.4705e-08
-6.55049e-07
-5.92616e-08
-6.56149e-07
-6.37326e-08
-6.56633e-07
-6.81377e-08
-6.56526e-07
-6.55856e-07
-7.24936e-08
-1.13202e-08
-6.32939e-07
4.85506e-09
-1.76363e-08
-6.37652e-07
-2.3811e-08
-6.41615e-07
-2.98588e-08
-6.44847e-07
-3.5796e-08
-6.47369e-07
-4.1641e-08
-6.49204e-07
-4.74119e-08
-6.50379e-07
-5.31264e-08
-6.50919e-07
-5.88002e-08
-6.50852e-07
-6.50209e-07
-6.44475e-08
6.56708e-09
-6.25751e-07
-1.37551e-08
-5.44192e-10
-6.30541e-07
-7.58731e-09
-6.34572e-07
-1.45726e-08
-6.37861e-07
-2.15127e-08
-6.40429e-07
-2.84214e-08
-6.42296e-07
-3.53145e-08
-6.43486e-07
-4.22091e-08
-6.44024e-07
-4.91231e-08
-6.43938e-07
-6.43256e-07
-5.60754e-08
2.42339e-08
-6.17812e-07
-3.21733e-08
1.63363e-08
-6.22643e-07
8.46057e-09
-6.26696e-07
5.90993e-10
-6.29992e-07
-7.28919e-09
-6.32549e-07
-1.51973e-08
-6.34387e-07
-2.31537e-08
-6.35529e-07
-3.1181e-08
-6.35996e-07
-3.93053e-08
-6.35813e-07
-6.35006e-07
-4.75555e-08
4.16064e-08
-6.09109e-07
-5.03097e-08
3.29223e-08
-6.13959e-07
2.4235e-08
-6.18009e-07
1.5524e-08
-6.21281e-07
6.76767e-09
-6.23792e-07
-2.05522e-09
-6.25564e-07
-1.09674e-08
-6.26617e-07
-1.99925e-08
-6.26971e-07
-2.91554e-08
-6.2665e-07
-6.25679e-07
-3.84828e-08
5.78218e-08
-5.99931e-07
-6.69991e-08
4.85699e-08
-6.04707e-07
3.92439e-08
-6.08683e-07
2.98355e-08
-6.11872e-07
2.03331e-08
-6.1429e-07
1.07223e-08
-6.15954e-07
9.87445e-10
-6.16882e-07
-8.88804e-09
-6.17096e-07
-1.89206e-08
-6.16618e-07
-6.15473e-07
-2.91261e-08
7.27985e-08
-5.90392e-07
-8.23379e-08
6.30991e-08
-5.95008e-07
5.32506e-08
-5.98835e-07
4.32562e-08
-6.01878e-07
3.31127e-08
-6.04146e-07
2.28131e-08
-6.05654e-07
1.23466e-08
-6.06415e-07
1.69987e-09
-6.06449e-07
-9.14199e-09
-6.05776e-07
-6.04419e-07
-2.01957e-08
8.64553e-08
-5.80515e-07
-9.63321e-08
7.63616e-08
-5.84914e-07
6.60644e-08
-5.88538e-07
5.55708e-08
-5.91384e-07
4.48816e-08
-5.93457e-07
3.39917e-08
-5.94764e-07
2.28914e-08
-5.95315e-07
1.15672e-08
-5.95125e-07
1.69975e-12
-5.94211e-07
-5.92592e-07
-1.18252e-08
9.84549e-08
-5.70391e-07
-1.08579e-07
8.80639e-08
-5.74523e-07
7.7426e-08
-5.779e-07
6.65515e-08
-5.8051e-07
5.5444e-08
-5.8235e-07
4.41006e-08
-5.83421e-07
3.25136e-08
-5.83728e-07
2.06712e-08
-5.83283e-07
8.55928e-09
-5.82099e-07
-5.80195e-07
-3.83804e-09
1.08534e-07
-5.60115e-07
-1.18811e-07
9.79591e-08
-5.63948e-07
8.71062e-08
-5.67047e-07
7.59888e-08
-5.69393e-07
6.46108e-08
-5.70972e-07
5.29697e-08
-5.7178e-07
4.10578e-08
-5.71816e-07
2.88638e-08
-5.71089e-07
1.6374e-08
-5.69609e-07
-5.67395e-07
3.574e-09
1.16462e-07
-5.49797e-07
-1.26779e-07
1.05832e-07
-5.53318e-07
9.49119e-08
-5.56127e-07
8.37134e-08
-5.58194e-07
7.22385e-08
-5.59497e-07
6.04819e-08
-5.60023e-07
4.84327e-08
-5.59767e-07
3.6076e-08
-5.58732e-07
2.33945e-08
-5.56928e-07
-5.54371e-07
1.03701e-08
1.22033e-07
-5.39564e-07
-1.32265e-07
1.11502e-07
-5.42787e-07
1.00689e-07
-5.45315e-07
8.96021e-08
-5.47107e-07
7.82375e-08
-5.48133e-07
6.65848e-08
-5.4837e-07
5.46275e-08
-5.4781e-07
4.23451e-08
-5.4645e-07
2.97149e-08
-5.44298e-07
-5.4137e-07
1.67135e-08
1.25059e-07
-5.29583e-07
-1.3504e-07
1.14812e-07
-5.3254e-07
1.04313e-07
-5.34816e-07
9.3561e-08
-5.36355e-07
8.25451e-08
-5.37117e-07
7.12477e-08
-5.37073e-07
5.96453e-08
-5.36208e-07
4.77098e-08
-5.34514e-07
3.5411e-08
-5.31999e-07
-5.28677e-07
2.27184e-08
1.25423e-07
-5.20034e-07
-1.34971e-07
1.15668e-07
-5.22785e-07
1.05708e-07
-5.24856e-07
9.5533e-08
-5.2618e-07
8.51245e-08
-5.26708e-07
7.44556e-08
-5.26404e-07
6.34938e-08
-5.25246e-07
5.22026e-08
-5.23223e-07
4.05428e-08
-5.20339e-07
-5.16609e-07
2.84748e-08
1.23046e-07
-5.11127e-07
-1.31953e-07
1.14006e-07
-5.13746e-07
1.04825e-07
-5.15674e-07
9.54806e-08
-5.16836e-07
8.59459e-08
-5.17173e-07
7.61847e-08
-5.16643e-07
6.61557e-08
-5.15217e-07
5.58134e-08
-5.12881e-07
4.51092e-08
-5.09635e-07
-5.05493e-07
3.39935e-08
1.17913e-07
-5.03083e-07
-1.25956e-07
1.09819e-07
-5.05652e-07
1.01654e-07
-5.07509e-07
9.33873e-08
-5.0857e-07
8.49822e-08
-5.08768e-07
7.63945e-08
-5.08055e-07
6.75747e-08
-5.06397e-07
5.84692e-08
-5.03775e-07
4.90206e-08
-5.00186e-07
-4.95642e-07
3.91692e-08
1.101e-07
-4.96123e-07
-1.17061e-07
1.03171e-07
-4.98722e-07
9.6242e-08
-5.0058e-07
8.92755e-08
-5.01603e-07
8.22264e-08
-5.01719e-07
7.50442e-08
-5.00873e-07
6.76732e-08
-4.99026e-07
6.00537e-08
-4.96156e-07
5.21221e-08
-4.92255e-07
-4.87331e-07
4.38114e-08
9.97995e-08
-4.90435e-07
-1.05487e-07
9.42207e-08
-4.93143e-07
8.87113e-08
-4.9507e-07
8.32257e-08
-4.96117e-07
7.77126e-08
-4.96206e-07
7.21168e-08
-4.95277e-07
6.63788e-08
-4.93288e-07
6.0436e-08
-4.90213e-07
5.42221e-08
-4.86041e-07
-4.80777e-07
4.76677e-08
8.73002e-08
-4.86167e-07
-9.15682e-08
8.32155e-08
-4.89059e-07
7.92643e-08
-4.91119e-07
7.53932e-08
-4.92246e-07
7.15451e-08
-4.92358e-07
6.76602e-08
-4.91392e-07
6.36765e-08
-4.89304e-07
5.95298e-08
-4.86066e-07
5.51545e-08
-4.81665e-07
-4.76105e-07
5.04831e-08
7.29449e-08
-4.83429e-07
-7.56823e-08
7.04632e-08
-4.86577e-07
6.81759e-08
-4.88832e-07
6.60194e-08
-4.9009e-07
6.39288e-08
-4.90267e-07
6.18379e-08
-4.89301e-07
5.96805e-08
-4.87147e-07
5.73907e-08
-4.83776e-07
5.49031e-08
-4.79178e-07
-4.73356e-07
5.21534e-08
5.70485e-08
-4.82331e-07
-5.81471e-08
5.62794e-08
-4.85808e-07
5.57633e-08
-4.88316e-07
5.54236e-08
-4.8975e-07
5.51832e-08
-4.90027e-07
5.49664e-08
-4.89084e-07
5.46986e-08
-4.86879e-07
5.43081e-08
-4.83386e-07
5.37261e-08
-4.78596e-07
-4.72518e-07
5.28882e-08
3.9844e-08
-4.83019e-07
-3.91564e-08
4.09397e-08
-4.86903e-07
4.23499e-08
-4.89726e-07
4.39807e-08
-4.91381e-07
4.57385e-08
-4.91785e-07
4.7531e-08
-4.90877e-07
4.92693e-08
-4.88617e-07
5.08689e-08
-4.84985e-07
5.22518e-08
-4.79979e-07
-4.73614e-07
5.33483e-08
2.1427e-08
-4.85715e-07
-1.87309e-08
2.46262e-08
-4.90103e-07
2.82149e-08
-4.93315e-07
3.20762e-08
-4.95242e-07
3.60923e-08
-4.95801e-07
4.01462e-08
-4.94931e-07
4.41249e-08
-4.92596e-07
4.79217e-08
-4.88782e-07
5.14398e-08
-4.83497e-07
-4.76769e-07
5.45946e-08
1.7064e-09
-4.90743e-07
3.32154e-09
7.37274e-09
-4.95769e-07
1.3537e-08
-4.99479e-07
2.00501e-08
-5.01755e-07
2.67576e-08
-5.02508e-07
3.35045e-08
-5.01678e-07
4.01391e-08
-4.9923e-07
4.65181e-08
-4.95161e-07
5.2511e-08
-4.89489e-07
-4.82262e-07
5.80042e-08
-1.96362e-08
-4.98549e-07
2.74423e-08
-1.09769e-08
-5.04428e-07
-1.64725e-09
-5.08809e-07
8.15391e-09
-5.11556e-07
1.82175e-08
-5.12572e-07
2.83305e-08
-5.1179e-07
3.8283e-08
-5.09183e-07
4.78754e-08
-5.04753e-07
5.69245e-08
-4.98538e-07
-4.90607e-07
6.52696e-08
-4.32646e-08
-5.09784e-07
5.44999e-08
-3.08498e-08
-5.16843e-07
-1.75036e-08
-5.22155e-07
-3.49781e-09
-5.25562e-07
1.08795e-08
-5.26949e-07
2.53328e-08
-5.26244e-07
3.95685e-08
-5.23419e-07
5.33057e-08
-5.1849e-07
6.62854e-08
-5.11518e-07
-5.02601e-07
7.82795e-08
-7.01573e-08
-5.25408e-07
8.57816e-08
-5.29103e-08
-5.3409e-07
-3.43749e-08
-5.4069e-07
-1.49207e-08
-5.45016e-07
5.05825e-09
-5.46928e-07
2.51554e-08
-5.46341e-07
4.49646e-08
-5.43228e-07
6.40939e-08
-5.3762e-07
8.21787e-08
-5.29603e-07
-5.19318e-07
9.88951e-08
-1.01279e-07
-5.46689e-07
1.22559e-07
-7.78134e-08
-5.57555e-07
-5.26098e-08
-5.65894e-07
-2.61629e-08
-5.71463e-07
9.99047e-10
-5.7409e-07
2.83299e-08
-5.73672e-07
5.52814e-08
-5.70179e-07
8.13198e-08
-5.63658e-07
1.05942e-07
-5.54225e-07
-5.42067e-07
1.28691e-07
-1.37087e-07
-5.75107e-07
1.65506e-07
-1.05819e-07
-5.88823e-07
-7.23002e-08
-5.99413e-07
-3.71794e-08
-6.06584e-07
-1.14124e-09
-6.10128e-07
3.51128e-08
-6.09926e-07
7.08777e-08
-6.05944e-07
1.05461e-07
-5.98241e-07
1.38196e-07
-5.8696e-07
-5.72333e-07
1.68462e-07
-1.76978e-07
-6.12238e-07
2.14109e-07
-1.36344e-07
-6.29457e-07
-9.2994e-08
-6.42763e-07
-4.7744e-08
-6.51834e-07
-1.42535e-09
-6.56447e-07
4.51255e-08
-6.56477e-07
9.10712e-08
-6.5189e-07
1.35578e-07
-6.42748e-07
1.77821e-07
-6.29203e-07
-6.11505e-07
2.16993e-07
-2.18291e-07
-6.59324e-07
2.65377e-07
-1.67264e-07
-6.80485e-07
-1.13285e-07
-6.96742e-07
-5.73047e-08
-7.07814e-07
-2.38286e-10
-7.13513e-07
5.70244e-08
-7.13739e-07
1.13598e-07
-7.08464e-07
1.68582e-07
-6.97732e-07
2.21039e-07
-6.8166e-07
-6.60449e-07
2.69983e-07
-2.55747e-07
-7.16468e-07
3.12891e-07
-1.94614e-07
-7.41618e-07
-1.30669e-07
-7.60687e-07
-6.49131e-08
-7.7357e-07
1.77158e-09
-7.80198e-07
6.85731e-08
-7.80541e-07
1.34691e-07
-7.74582e-07
1.99277e-07
-7.62318e-07
2.61377e-07
-7.4376e-07
-7.18938e-07
3.19866e-07
-2.82791e-07
-7.82067e-07
3.4839e-07
-2.13634e-07
-8.10775e-07
-1.42222e-07
-8.32098e-07
-6.94691e-08
-8.46323e-07
3.91786e-09
-8.53585e-07
7.73355e-08
-8.53958e-07
1.50197e-07
-8.47443e-07
2.21835e-07
-8.33956e-07
2.91406e-07
-8.13331e-07
-7.85224e-07
3.57692e-07
-2.94487e-07
-8.52676e-07
3.65095e-07
-2.20931e-07
-8.84331e-07
-1.45958e-07
-9.0707e-07
-7.02679e-08
-9.22014e-07
5.71875e-09
-9.29572e-07
8.16854e-08
-9.29925e-07
1.57332e-07
-9.2309e-07
2.32271e-07
-9.08894e-07
3.05868e-07
-8.86928e-07
-8.56071e-07
3.76714e-07
-2.90414e-07
-9.23537e-07
3.61281e-07
-2.16493e-07
-9.58251e-07
-1.42063e-07
-9.815e-07
-6.75498e-08
-9.96527e-07
6.9398e-09
-1.00406e-06
8.1403e-08
-1.00439e-06
1.55845e-07
-9.97532e-07
2.30179e-07
-9.83229e-07
3.04028e-07
-9.60777e-07
-9.27164e-07
3.75121e-07
-2.74303e-07
-9.91389e-07
3.42153e-07
-2.03118e-07
-1.02944e-06
-1.32477e-07
-1.05214e-06
-6.23285e-08
-1.06668e-06
7.54803e-09
-1.07394e-06
7.74265e-08
-1.07427e-06
1.47584e-07
-1.06769e-06
2.18244e-07
-1.05389e-06
2.89437e-07
-1.03197e-06
-9.95579e-07
3.5788e-07
-2.49824e-07
-1.03689e-06
2.95266e-07
-1.84035e-07
-1.09522e-06
-1.19575e-07
-1.1166e-06
-5.58384e-08
-1.13041e-06
7.52996e-09
-1.13731e-06
7.09244e-08
-1.13766e-06
1.34745e-07
-1.13151e-06
1.9937e-07
-1.11851e-06
2.65344e-07
-1.09794e-06
-1.04327e-06
3.13381e-07
-2.21755e-07
-1.04391e-06
2.28771e-07
-1.62886e-07
-1.15409e-06
-1.05437e-07
-1.17405e-06
-4.89146e-08
-1.18693e-06
7.11538e-09
-1.19334e-06
6.31594e-08
-1.19371e-06
1.19733e-07
-1.18808e-06
1.77285e-07
-1.17606e-06
2.36343e-07
-1.157e-06
-1.05551e-06
2.48573e-07
-1.89835e-07
-9.81135e-07
1.46512e-07
-1.38945e-07
-1.20498e-06
-8.94241e-08
-1.22357e-06
-4.11055e-08
-1.23525e-06
6.56622e-09
-1.24101e-06
5.42531e-08
-1.24139e-06
1.02627e-07
-1.23646e-06
1.52258e-07
-1.2257e-06
2.03317e-07
-1.20806e-06
-9.99725e-07
1.63344e-07
-1.56741e-07
-8.79552e-07
6.58384e-08
-1.13306e-07
-1.24842e-06
-7.22947e-08
-1.26458e-06
-3.2868e-08
-1.27468e-06
5.77944e-09
-1.27966e-06
4.44148e-08
-1.28003e-06
8.38115e-08
-1.27585e-06
1.24782e-07
-1.26667e-06
1.68159e-07
-1.25144e-06
-8.94268e-07
7.30197e-08
-1.24587e-07
-7.81805e-07
3.27015e-08
-8.91232e-08
-1.28388e-06
-5.62622e-08
-1.29744e-06
-2.52669e-08
-1.30567e-06
4.82315e-09
-1.30975e-06
3.48716e-08
-1.31008e-06
6.57467e-08
-1.30673e-06
9.84146e-08
-1.29933e-06
1.33632e-07
-1.28666e-06
-7.92542e-07
3.58727e-08
-9.33565e-08
-6.99146e-07
1.45516e-08
-6.65661e-08
-1.31067e-06
-4.1582e-08
-1.32243e-06
-1.84384e-08
-1.32882e-06
3.80246e-09
-1.33199e-06
2.59838e-08
-1.33226e-06
4.89514e-08
-1.3297e-06
7.36515e-08
-1.32403e-06
1.00101e-07
-1.31311e-06
-7.0571e-07
1.58344e-08
-6.27982e-08
-6.4227e-07
8.01677e-09
-4.55832e-08
-1.32789e-06
-2.81203e-08
-1.33989e-06
-1.22592e-08
-1.34468e-06
2.79923e-09
-1.34704e-06
1.77837e-08
-1.34724e-06
3.342e-08
-1.34533e-06
5.05054e-08
-1.34112e-06
6.72445e-08
-1.32985e-06
-6.4574e-07
8.5547e-09
-3.10224e-08
-6.1508e-07
5.17474e-09
-2.6074e-08
-1.33284e-06
-1.5726e-08
-1.35024e-06
-6.57614e-09
-1.35383e-06
1.95022e-09
-1.35557e-06
1.04063e-08
-1.3557e-06
1.93364e-08
-1.35426e-06
2.93044e-08
-1.35109e-06
3.39327e-08
-1.33448e-06
-6.16514e-07
5.41955e-09
-1.1082e-08
-6.057e-07
2.76741e-09
-8.76966e-09
-1.33495e-06
-4.73716e-09
-1.35427e-06
-1.50882e-09
-1.35706e-06
1.30152e-09
-1.35838e-06
4.05889e-09
-1.35846e-06
7.11616e-09
-1.35732e-06
1.08257e-08
-1.3548e-06
1.23374e-08
-1.33593e-06
-6.06621e-07
2.89071e-09
5.26966e-09
-6.09851e-07
3.79244e-22
5.60192e-09
-1.33514e-06
4.42721e-09
-1.35309e-06
2.75117e-09
-1.35538e-06
8.45407e-10
-1.35648e-06
-1.09299e-09
-1.35652e-06
-2.87675e-09
-1.35554e-06
-4.25899e-09
-1.35342e-06
-4.36246e-09
-1.33576e-06
-6.1054e-07
8.17606e-22
1.95417e-08
-6.27962e-07
1.51381e-24
1.6891e-08
-1.33233e-06
1.16218e-08
-1.34782e-06
6.12238e-09
-1.34988e-06
5.45141e-10
-1.3509e-06
-5.05199e-09
-1.35092e-06
-1.06163e-08
-1.34997e-06
-1.60099e-08
-1.34802e-06
-1.89275e-08
-1.33276e-06
-6.28796e-07
8.11587e-24
3.07402e-08
-6.57021e-07
2.233e-25
2.5348e-08
-1.3268e-06
1.70139e-08
-1.33949e-06
8.66256e-09
-1.34153e-06
3.64909e-10
-1.3426e-06
-7.94741e-09
-1.34261e-06
-1.63426e-08
-1.34158e-06
-2.4754e-08
-1.33961e-06
-3.03163e-08
-1.32712e-06
-6.58238e-07
7.03954e-26
3.96316e-08
-6.94777e-07
3.7012e-27
3.15004e-08
-1.31856e-06
2.08993e-08
-1.32889e-06
1.04799e-08
-1.33111e-06
2.62861e-10
-1.33238e-06
-9.96913e-09
-1.33238e-06
-2.04263e-08
-1.33112e-06
-3.10849e-08
-1.32895e-06
-3.93438e-08
-1.31881e-06
-6.96589e-07
3.25488e-27
4.67282e-08
-7.39491e-07
5.91598e-29
3.5856e-08
-1.30766e-06
2.3548e-08
-1.31658e-06
1.1667e-08
-1.31923e-06
2.08189e-10
-1.32092e-06
-1.1269e-08
-1.3209e-06
-2.31873e-08
-1.3192e-06
-3.55405e-08
-1.3166e-06
-4.65221e-08
-1.30781e-06
-7.41988e-07
3.22237e-29
5.18987e-08
-7.8947e-07
5.594e-31
3.86811e-08
-1.29441e-06
2.50761e-08
-1.30298e-06
1.2252e-08
-1.30641e-06
1.83621e-10
-1.30886e-06
-1.19091e-08
-1.30881e-06
-2.47706e-08
-1.30634e-06
-3.84028e-08
-1.30297e-06
-5.16558e-08
-1.29454e-06
-7.92548e-07
8.38814e-31
5.43834e-08
-8.42198e-07
1.92448e-31
3.99545e-08
-1.27998e-06
2.54468e-08
-1.28847e-06
1.22577e-08
-1.29322e-06
1.83199e-10
-1.29678e-06
-1.19237e-08
-1.2967e-06
-2.51558e-08
-1.29311e-06
-3.96658e-08
-1.28846e-06
-5.40635e-08
-1.28014e-06
-8.45663e-07
3.04365e-31
5.47463e-08
-8.95658e-07
5.07513e-32
3.93379e-08
-1.26457e-06
2.46143e-08
-1.27375e-06
1.19213e-08
-1.28052e-06
2.02352e-10
-1.28506e-06
-1.15437e-08
-1.28495e-06
-2.43029e-08
-1.28035e-06
-3.90181e-08
-1.27374e-06
-5.43316e-08
-1.26483e-06
-8.99267e-07
8.58943e-32
5.24819e-08
-9.47247e-07
6.08806e-33
3.62695e-08
-1.24836e-06
2.27599e-08
-1.26024e-06
1.18326e-08
-1.2696e-06
2.27147e-10
-1.27346e-06
-1.13537e-08
-1.27337e-06
-2.2375e-08
-1.26933e-06
-3.59288e-08
-1.26019e-06
-5.19907e-08
-1.24876e-06
-9.50768e-07
1.42386e-32
4.62053e-08
-9.92909e-07
1.36309e-34
2.99369e-08
-1.23209e-06
2.05315e-08
-1.25083e-06
1.2379e-08
-1.26144e-06
2.52222e-10
-1.26133e-06
-1.1778e-08
-1.26134e-06
-1.99787e-08
-1.26113e-06
-2.95821e-08
-1.25058e-06
-4.57269e-08
-1.23262e-06
-9.96214e-07
5.08737e-35
3.21774e-08
-1.02481e-06
1.06527e-37