/*--------------------------------*- C++ -*----------------------------------*\
  =========                 |
  \\      /  F ield         | OpenFOAM: The Open Source CFD Toolbox
   \\    /   O peration     | Website:  https://openfoam.org
    \\  /    A nd           | Version:  8
     \\/     M anipulation  |
\*---------------------------------------------------------------------------*/
FoamFile
{
    version     2.0;
    format      ascii;
    class       volScalarField;
    location    "1.55";
    object      p;
}
// * * * * * * * * * * * * * * * * * * * * * * * * * * * * * * * * * * * * * //

dimensions      [1 -1 -2 0 0 0 0];

internalField   nonuniform List<scalar> 
9150
(
380.365
353.425
327.866
310.657
302.329
302.329
310.656
327.864
353.423
380.363
351.503
332.01
316.303
304.498
298.496
298.496
304.497
316.302
332.008
351.501
322.236
308.727
300.124
292.379
288.252
288.252
292.379
300.123
308.725
322.234
297.509
287.569
282.033
276.688
273.707
273.707
276.688
282.032
287.567
297.507
276.193
267.402
262.73
258.569
256.123
256.123
258.568
262.729
267.4
276.192
13.4648
9.20478
34.4781
48.8397
55.402
55.3964
48.8234
34.4528
9.17046
13.4225
183.698
159.452
154.1
152.885
152.922
152.919
152.876
154.086
159.434
183.681
288.378
256.809
240.817
230.934
226.209
226.207
230.929
240.809
256.8
288.37
368.922
326.574
298.644
281.314
272.781
272.78
281.311
298.64
326.569
368.917
418.738
366.57
327.955
305.925
295.766
295.766
305.923
327.952
366.567
418.736
-72.8731
-32.1195
-41.0172
-33.4023
-37.8416
-37.8817
-33.4759
-41.1781
-32.4468
-73.5034
-65.0741
-44.6778
-63.704
-55.7066
-59.1768
-59.2283
-55.7473
-63.8683
-44.9148
-65.5094
-108.749
-75.67
-105.448
-98.8542
-95.2139
-95.2355
-98.9106
-105.573
-75.857
-108.991
-287.457
-161.52
-142.003
-123.949
-107.931
-107.945
-124
-142.096
-161.617
-287.637
-426.939
-192.256
-94.7795
-64.6274
-49.2326
-49.2419
-64.6573
-94.8269
-192.317
-427.058
1943.02
1946.63
1947.38
1945.27
1940.28
1932.41
1921.76
1908.51
1892.9
1875.22
1841.68
1844.58
1845.05
1842.94
1838.4
1831.58
1822.63
1811.75
1799.21
1785.39
1734.2
1736.09
1736.34
1734.89
1731.76
1727.08
1720.94
1713.56
1705.1
1695.89
1666.75
1668.51
1668.86
1667.92
1665.75
1662.47
1658.18
1653.03
1647.13
1640.65
1626.16
1626.65
1626.47
1625.62
1624.13
1622.07
1619.53
1616.74
1613.97
1611.31
1605.31
1603.09
1601.46
1600.25
1599.18
1598.22
1597.54
1597.69
1599.34
1600.74
1593.4
1589.34
1586.26
1584.65
1583.88
1583.79
1584.72
1587.61
1592.32
1590.23
1580.23
1576.71
1573.9
1572.59
1572.19
1572.52
1573.91
1577.15
1581.3
1576.17
1565.58
1563.62
1562.34
1561.9
1561.97
1562.48
1563.52
1565.3
1566.98
1563.62
1554.44
1553.29
1552.99
1553.31
1554.03
1555.14
1556.67
1558.23
1558.8
1556.26
1544.44
1544.31
1544.89
1546.1
1547.86
1550.37
1553.73
1556.87
1557.29
1557.08
1534.93
1535.65
1536.82
1538.62
1541.14
1544.66
1549.44
1553.91
1553.11
1559.6
1527.42
1527.59
1528.51
1530.32
1533.13
1537.28
1543.25
1550.31
1553.45
1554.72
1518.13
1517.49
1517.78
1519.08
1521.47
1525.18
1530.81
1538.63
1544.84
1542.42
1505.51
1504.07
1503.43
1503.61
1504.56
1506.26
1508.73
1511.92
1514.96
1515.28
1489.87
1487.91
1486.57
1485.86
1485.64
1485.74
1485.88
1485.64
1485.5
1486.54
1471.09
1469.2
1467.75
1466.78
1466.17
1465.74
1465.26
1464.57
1464.43
1465.75
1449.67
1448.35
1447.3
1446.6
1446.16
1445.9
1445.69
1445.73
1446.86
1448.48
1426.68
1426.12
1425.7
1425.51
1425.52
1425.68
1425.97
1426.77
1428.95
1430.38
1403.05
1403.18
1403.38
1403.75
1404.3
1404.96
1405.75
1407.1
1409.92
1411.24
1379.1
1379.8
1380.58
1381.52
1382.66
1383.94
1385.35
1387.34
1390.93
1393.22
1354.85
1356
1357.28
1358.79
1360.58
1362.6
1364.85
1367.79
1372.6
1376.95
1330.2
1331.58
1333.22
1335.21
1337.6
1340.37
1343.54
1347.55
1353.65
1360.5
1304.19
1305.81
1307.77
1310.19
1313.09
1316.48
1320.41
1325.29
1332.25
1340.8
1275.86
1277.94
1280.3
1283.05
1286.21
1289.75
1293.64
1298.09
1303.64
1309.2
1247.72
1249.6
1251.92
1254.78
1258.13
1261.87
1265.87
1270.14
1274.84
1278.34
1219.76
1220.6
1222.48
1225.4
1229.24
1233.85
1239.07
1244.87
1251.58
1258.51
1187.42
1187.47
1189.31
1192.74
1197.57
1203.63
1210.74
1218.93
1228.77
1240.73
1144.58
1145.78
1149.11
1154.12
1160.67
1168.63
1177.86
1188.4
1201.03
1217.05
1089.2
1094.07
1100.76
1108.61
1117.61
1127.8
1139.18
1151.82
1166.69
1185.76
1028.22
1036.94
1047.23
1057.99
1069.3
1081.34
1094.19
1107.92
1123.44
1143.18
969.052
979.633
992.284
1005.15
1018.14
1031.52
1045.45
1060.08
1076.28
1096.72
911.204
922.676
936.657
950.662
964.315
977.757
990.999
1003.94
1016.89
1030.98
854.856
867.182
882.111
896.996
911.271
925.028
938.271
950.893
962.965
974.689
799.44
813.363
829.303
845.089
860.186
874.763
889.013
903.08
917.286
932.456
747.183
762.587
779.017
795.007
810.12
824.496
838.299
851.594
864.51
877.991
700.954
716.785
732.86
748.33
762.876
776.592
789.598
801.951
813.728
825.624
659.853
675.458
690.671
705.077
718.5
730.967
742.504
753.085
762.661
771.467
623.268
638.414
652.608
665.794
677.971
689.126
699.22
708.169
715.861
722.26
590.77
605.458
618.649
630.654
641.67
651.682
660.635
668.451
675.042
680.344
562.586
576.644
588.79
599.663
609.613
618.652
626.73
633.82
639.925
645.049
539.179
552.052
562.911
572.568
581.398
589.399
596.516
602.735
608.093
612.636
519.388
530.894
540.425
548.898
556.631
563.574
569.662
574.876
579.245
582.82
500.929
511.845
520.519
528.113
534.934
540.926
546.038
550.249
553.57
556.044
484.991
495.519
503.538
510.408
516.444
521.62
525.923
529.359
531.955
533.774
475.574
484.105
490.755
496.498
501.504
505.745
509.213
511.93
513.935
515.321
469.772
475.914
481.016
485.509
489.383
492.589
495.104
496.923
498.05
498.549
463.343
468.337
472.579
476.227
479.235
481.575
483.237
484.198
484.433
483.97
458.777
462.771
466.188
469.023
471.228
472.797
473.734
474.027
473.658
472.657
456.304
459.175
461.675
463.653
465.058
465.891
466.161
465.866
465.001
463.586
454.59
456.585
458.277
459.488
460.178
460.349
460.006
459.146
457.758
455.838
453.519
454.751
455.714
456.247
456.331
455.962
455.141
453.862
452.115
449.895
452.572
453.2
453.577
453.576
453.186
452.41
451.244
449.68
447.712
445.338
451.501
451.667
451.606
451.213
450.482
449.413
448.004
446.247
444.131
441.653
450.058
449.926
449.592
448.953
448.006
446.757
445.207
443.35
441.178
438.685
448.245
447.93
447.437
446.666
445.61
444.279
442.677
440.798
438.635
436.183
445.894
445.542
445.022
444.24
443.192
441.881
440.312
438.479
436.383
434.021
442.907
442.679
442.272
441.6
440.659
439.454
437.986
436.256
434.271
432.031
439.42
439.426
439.231
438.759
438
436.963
435.649
434.06
432.21
430.093
435.71
436.005
436.074
435.851
435.324
434.492
433.353
431.913
430.185
428.157
432.005
432.602
432.958
433.003
432.723
432.11
431.156
429.861
428.232
426.258
428.451
429.338
429.972
430.285
430.253
429.854
429.076
427.915
426.373
424.442
425.1
426.269
427.173
427.748
427.958
427.769
427.161
426.126
424.669
422.789
422.003
423.462
424.644
425.467
425.895
425.893
425.433
424.503
423.105
421.256
419.237
421.003
422.461
423.519
424.137
424.28
423.918
423.032
421.629
419.75
416.925
419.021
420.751
422.02
422.786
423.011
422.664
421.731
420.223
418.216
415.289
417.713
419.707
421.159
422.02
422.247
421.805
420.681
418.905
416.585
414.423
417.228
419.512
421.142
422.053
422.192
421.527
420.05
417.795
414.891
414.182
417.552
420.247
422.109
423.063
423.053
422.047
420.042
417.074
413.289
414.317
418.512
421.793
423.98
424.998
424.796
423.347
420.65
416.751
411.815
414.208
419.454
423.463
426.059
427.155
426.707
424.702
421.149
416.104
409.745
412.206
418.702
423.538
426.588
427.771
427.048
424.42
419.912
413.582
405.587
405.849
413.728
419.454
422.995
424.296
423.321
420.071
414.581
406.897
397.093
392.957
402.114
408.765
412.845
414.327
413.172
409.371
402.951
393.918
382.366
373.757
382.97
390.359
394.996
396.718
395.482
391.257
384.044
373.955
361.864
352.098
358.387
365.17
370.061
371.991
370.761
366.306
358.714
348.911
339.215
327.549
330.977
335.087
339.43
341.455
340.299
335.857
328.756
321.367
314.714
295.06
301.936
302.378
305.012
306.772
305.676
301.536
296.012
292.138
282.827
245.097
268.467
267.53
267.955
269.167
268.155
264.688
261.399
259.149
234.863
189.82
226.083
228.085
228.22
229.33
228.479
225.429
222.838
218.213
180.424
144.384
185.315
190.354
190.299
191.077
190.303
187.72
185.437
178.036
135.388
104.845
148.299
156.605
155.88
155.988
155.339
153.67
152.276
141.729
96.9717
73.174
114.122
123.845
123.184
123.077
122.556
121.383
120.25
108.619
66.8433
47.6463
82.5452
92.7641
92.8189
92.8512
92.4294
91.3433
89.7764
77.9504
42.557
28.319
54.97
64.7423
65.8107
66.1885
65.8613
64.6645
62.4256
51.5106
24.8803
15.5688
33.3614
41.4957
43.3446
44.0431
43.7837
42.4614
39.7689
30.9107
13.3846
7.45825
17.4944
23.5759
25.8484
26.7484
26.539
25.1799
22.3668
15.9203
6.2296
2.52754
6.51025
10.5928
12.9884
13.9794
13.8015
12.4645
9.74138
5.49208
1.77551
-0.679191
-0.957912
1.5848
3.98671
5.01366
4.85634
3.55728
0.96219
-1.6355
-1.17403
-2.90902
-6.01083
-4.4431
-2.03537
-0.984738
-1.13308
-2.41646
-4.94228
-6.50582
-3.26357
-4.56342
-9.46522
-8.3734
-5.89736
-4.79566
-4.94034
-6.25292
-8.80448
-9.8594
-4.83492
-5.83738
-11.8354
-10.8806
-8.27858
-7.08306
-7.22562
-8.61799
-11.27
-12.1685
-6.05483
-6.87428
-13.5431
-12.5322
-9.76464
-8.42547
-8.56731
-10.0948
-12.8968
-13.8384
-7.05358
-7.77881
-14.9132
-13.7465
-10.7651
-9.2323
-9.37399
-11.0932
-14.1009
-15.1897
-7.93349
-8.66582
-16.1908
-14.7578
-11.5396
-9.87553
-10.0121
-11.8705
-15.1188
-16.4679
-8.8098
-9.82289
-17.9686
-16.1533
-12.9335
-11.4724
-11.5863
-13.251
-16.5333
-18.265
-9.97169
-12.2703
-21.9156
-19.2235
-16.3453
-15.103
-15.1808
-16.6122
-19.6308
-22.2764
-12.4622
-17.8929
-27.1176
-22.2089
-20.378
-18.9004
-18.9537
-20.5825
-22.5953
-27.6347
-18.302
-28.6235
-21.0332
-18.1927
-21.3862
-21.5774
-21.6143
-21.5072
-18.2734
-21.4383
-29.5832
-41.9396
-5.97632
-17.3071
-23.6761
-27.0122
-27.048
-23.7475
-17.2425
-6.05796
-42.822
1854.59
1831.33
1807.29
1783.09
1759.36
1736.61
1715.17
1695.28
1677.11
1660.82
1646.21
1633.21
1621.74
1611.77
1603.21
1595.94
1589.8
1584.63
1580.36
1576.88
1574.14
1572.07
1570.63
1569.78
1569.46
1569.64
1570.28
1571.36
1572.81
1574.61
1576.71
1579.03
1581.51
1584.09
1586.77
1592.15
1594.06
1594.38
1595.09
1595.43
1769.8
1752.24
1734.44
1716.94
1700.18
1684.32
1669.62
1656.1
1643.5
1631.8
1621.72
1612.81
1605.12
1598.7
1593.49
1589.26
1585.69
1582.57
1579.75
1577.2
1574.91
1572.92
1571.28
1570
1569.12
1568.65
1568.59
1568.91
1569.57
1570.52
1571.68
1572.96
1574.24
1575.41
1576.57
1578.09
1578.72
1580.86
1581.48
1581.4
1685.56
1673.87
1662.08
1650.56
1639.99
1629.99
1621.74
1616.3
1611.42
1605.98
1601.21
1597.48
1594.32
1590.99
1587.78
1585.08
1582.73
1580.48
1578.22
1575.96
1573.73
1571.61
1569.64
1567.9
1566.43
1565.25
1564.37
1563.77
1563.4
1563.21
1563.13
1563.07
1562.92
1562.61
1562.2
1561.79
1561.53
1562.02
1570.48
1572.86
1633.16
1624.3
1615.24
1606.71
1598.74
1590.43
1590.85
1582.81
1579.33
1578.21
1577.14
1579.09
1582.76
1581.45
1576.7
1572.53
1569.78
1567.58
1565.49
1563.43
1561.38
1559.37
1557.43
1555.6
1553.92
1552.42
1551.09
1549.92
1548.9
1547.98
1547.11
1546.26
1545.4
1544.57
1543.89
1543.62
1544.29
1547.23
1553.63
1560.85
1606.96
1598.86
1586.03
1575.31
1568.95
1565.88
1561.89
1555.61
1547.09
1547.65
1545.32
1559.8
1575.29
1571.25
1560.09
1552.37
1549.25
1547.45
1545.78
1544.15
1542.54
1540.92
1539.29
1537.68
1536.11
1534.6
1533.16
1531.8
1530.51
1529.28
1528.1
1526.97
1525.95
1525.13
1524.71
1525
1526.73
1531.29
1539.26
1547.16
1591.79
1573.52
1559.25
1554.75
1553.91
1549.9
1542.12
1531.37
1516.36
1510.6
1506.6
1548.07
1574.16
1550.93
1525.54
1516.19
1517.58
1519.25
1519.63
1519.44
1518.98
1518.29
1517.4
1516.35
1515.22
1514.02
1512.79
1511.56
1510.33
1509.13
1507.98
1506.94
1506.08
1505.56
1505.57
1506.48
1508.99
1514.34
1522.89
1530.92
1573.29
1553.35
1543.77
1542.65
1544.37
1540.74
1536.73
1524.39
1502.7
1476.58
1468.23
1506.97
1542.4
1518.23
1483.98
1474.44
1481.13
1486.84
1489.81
1491.52
1492.59
1493.13
1493.25
1493.03
1492.57
1491.93
1491.15
1490.28
1489.36
1488.43
1487.56
1486.8
1486.27
1486.12
1486.57
1487.93
1490.83
1496.31
1504.5
1512.04
1559.56
1547.41
1546.96
1558.08
1568.2
1560.77
1542.53
1517.53
1469.41
1438.16
1425.15
1438.65
1481.78
1464.37
1443.14
1439.29
1447.82
1455.09
1459.7
1462.96
1465.38
1467.11
1468.26
1468.95
1469.26
1469.29
1469.09
1468.73
1468.26
1467.75
1467.26
1466.88
1466.71
1466.9
1467.64
1469.21
1472.1
1477.14
1484.33
1490.88
1552.12
1559.16
1573.87
1607.37
1597.44
1530.75
1434.54
1371.18
1344
1343.38
1351.99
1351.77
1376.34
1374.24
1390.98
1406.33
1416.9
1424.44
1430.1
1434.67
1438.32
1441.15
1443.29
1444.87
1445.97
1446.7
1447.14
1447.34
1447.39
1447.35
1447.27
1447.25
1447.39
1447.82
1448.69
1450.21
1452.76
1456.94
1462.7
1467.87
1553.74
1571.85
1609.93
1607.17
1501.06
1372.55
1319.28
1312.06
1311.2
1310.46
1309.31
1309.79
1313.76
1318.59
1347.83
1376.47
1390.16
1396.65
1402.5
1407.79
1412.31
1416.01
1418.98
1421.33
1423.16
1424.55
1425.59
1426.35
1426.89
1427.28
1427.58
1427.88
1428.24
1428.79
1429.62
1430.89
1432.85
1435.91
1440
1443.7
1562.63
1588.69
1602.03
1506.43
1358.04
1312.89
1310.25
1309.64
1309.52
1309.37
1308.93
1308.24
1308.44
1308.85
1319.65
1339.28
1357.33
1367.67
1375.15
1381.6
1387.13
1391.73
1395.5
1398.56
1401.03
1403
1404.56
1405.8
1406.76
1407.52
1408.13
1408.65
1409.14
1409.68
1410.34
1411.2
1412.42
1414.22
1416.55
1418.63
1560.17
1577.54
1540.8
1399.02
1312.63
1309.26
1308.94
1309.04
1308.94
1308.72
1308.51
1308.4
1308.4
1308.58
1308.93
1310.46
1325.62
1339.71
1349.57
1357.25
1363.6
1368.88
1373.22
1376.8
1379.74
1382.14
1384.1
1385.69
1386.96
1387.99
1388.8
1389.45
1389.97
1390.4
1390.78
1391.14
1391.55
1392.07
1392.71
1393.17
1557.15
1542.58
1453
1337.04
1309.27
1308.04
1308.15
1308.27
1308.26
1308.19
1308.15
1308.18
1308.24
1308.23
1306.57
1299.39
1306.46
1318.87
1328.81
1336.47
1342.77
1348.07
1352.53
1356.27
1359.4
1362.01
1364.17
1365.95
1367.4
1368.56
1369.47
1370.14
1370.6
1370.84
1370.87
1370.7
1370.29
1369.6
1368.68
1367.88
1534.88
1491.91
1389.39
1313.89
1307.61
1307.16
1307.36
1307.48
1307.52
1307.57
1307.65
1307.8
1307.97
1307.7
1300.35
1289.46
1293.77
1303.77
1312.11
1318.7
1324.28
1329.1
1333.26
1336.82
1339.87
1342.46
1344.65
1346.46
1347.95
1349.12
1350.01
1350.62
1350.93
1350.92
1350.58
1349.86
1348.68
1346.89
1344.6
1342.69
1508.75
1463.43
1365.38
1308.74
1306.33
1306.28
1306.5
1306.61
1306.69
1306.78
1306.92
1307.12
1307.43
1305.32
1290.9
1280.64
1284.6
1291.87
1297.92
1302.98
1307.47
1311.5
1315.07
1318.21
1320.95
1323.33
1325.37
1327.07
1328.46
1329.55
1330.33
1330.78
1330.89
1330.6
1329.88
1328.64
1326.76
1324.01
1320.56
1317.77
1482.82
1439.45
1351.07
1306.63
1305.44
1305.45
1305.58
1305.66
1305.74
1305.88
1306.11
1306.35
1305.89
1297.1
1278.85
1272.05
1276.01
1280.75
1284.66
1288.21
1291.56
1294.67
1297.52
1300.09
1302.38
1304.41
1306.17
1307.65
1308.85
1309.76
1310.35
1310.61
1310.48
1309.9
1308.81
1307.12
1304.66
1301.14
1296.78
1293.52
1459.31
1411
1333.94
1305.41
1304.75
1304.59
1304.54
1304.55
1304.6
1304.71
1304.96
1305.53
1303.73
1286.38
1266.9
1263.44
1266.36
1269.08
1271.36
1273.61
1275.89
1278.1
1280.2
1282.14
1283.92
1285.52
1286.92
1288.1
1289.04
1289.7
1290.07
1290.09
1289.7
1288.83
1287.4
1285.31
1282.37
1278.25
1273.21
1269.4
1435.97
1381.07
1320.04
1304.19
1303.78
1303.38
1303.19
1303.12
1303.14
1303.23
1303.33
1303.13
1296.62
1273.2
1256.2
1254.66
1255.94
1256.84
1257.71
1258.82
1260.1
1261.45
1262.81
1264.13
1265.38
1266.51
1267.52
1268.36
1268.99
1269.39
1269.49
1269.25
1268.6
1267.44
1265.71
1263.28
1259.95
1255.37
1249.86
1245.71
1413.06
1358.36
1312.06
1302.26
1302
1301.59
1301.41
1301.39
1301.5
1301.84
1302.23
1301.52
1285.28
1256.02
1243.65
1243.21
1243.49
1243.25
1243.16
1243.38
1243.83
1244.43
1245.12
1245.86
1246.6
1247.29
1247.9
1248.39
1248.72
1248.83
1248.67
1248.17
1247.25
1245.83
1243.81
1241.09
1237.44
1232.52
1226.67
1222.12
1392.35
1341.05
1304.3
1298.39
1299.09
1299.24
1299.13
1299.09
1299.2
1299.58
1300.64
1297.84
1271.56
1240.11
1231.27
1230.72
1229.91
1228.71
1227.79
1227.24
1226.98
1226.93
1227.04
1227.25
1227.52
1227.8
1228.05
1228.21
1228.24
1228.08
1227.67
1226.92
1225.77
1224.1
1221.84
1218.88
1214.98
1209.84
1203.83
1199.19
1375.16
1325.79
1292.4
1289.19
1294.58
1296.79
1296.61
1296.31
1296.3
1296.4
1296.14
1288.67
1254.46
1225.74
1219.44
1217.65
1215.41
1213.23
1211.55
1210.33
1209.46
1208.85
1208.46
1208.22
1208.09
1208.02
1207.94
1207.81
1207.58
1207.18
1206.54
1205.58
1204.22
1202.35
1199.89
1196.73
1192.64
1187.37
1181.2
1176.58
1361.75
1313.69
1278.22
1272.66
1287.3
1293.92
1293.96
1293.41
1293.53
1294.02
1293.1
1275.02
1231.18
1207.65
1203.74
1201.65
1198.8
1196.13
1194.01
1192.35
1191.06
1190.06
1189.29
1188.71
1188.27
1187.92
1187.59
1187.23
1186.78
1186.18
1185.35
1184.22
1182.69
1180.67
1178.08
1174.8
1170.63
1165.23
1159.11
1155.13
1351.71
1311.61
1274.83
1255.32
1271.34
1288.7
1290.45
1289.53
1289.46
1290.8
1288.62
1255.46
1205.85
1188.63
1186.28
1183.85
1180.62
1177.68
1175.29
1173.35
1171.78
1170.52
1169.51
1168.7
1168.05
1167.5
1166.99
1166.46
1165.85
1165.1
1164.14
1162.88
1161.25
1159.16
1156.52
1153.26
1149.15
1143.94
1138.28
1134.05
1339.04
1312.06
1280.04
1246.34
1248.02
1276.82
1284.03
1282.69
1282.25
1282.78
1276.22
1228.77
1182.35
1171.17
1168.46
1164.96
1161.22
1158.04
1155.46
1153.36
1151.64
1150.24
1149.11
1148.18
1147.41
1146.74
1146.12
1145.49
1144.78
1143.93
1142.87
1141.53
1139.82
1137.66
1134.98
1131.67
1127.5
1122.4
1117.43
1112.86
1305.02
1283.55
1270.47
1252.59
1234.83
1255.58
1272.81
1273.05
1273.52
1272.28
1252.38
1191.16
1155.29
1149.54
1147.08
1143.38
1139.73
1136.71
1134.25
1132.21
1130.54
1129.17
1128.04
1127.11
1126.33
1125.63
1124.98
1124.3
1123.55
1122.66
1121.57
1120.19
1118.45
1116.28
1113.6
1110.3
1106.12
1101.27
1095.81
1091.85
1271.76
1250.8
1250.86
1257.52
1226.15
1232.27
1256.49
1259.34
1261.95
1258.69
1213.87
1147.1
1126.26
1124.81
1122.82
1119.5
1116.39
1113.83
1111.72
1109.97
1108.51
1107.31
1106.32
1105.5
1104.79
1104.15
1103.53
1102.88
1102.16
1101.29
1100.21
1098.87
1097.17
1095.05
1092.44
1089.22
1085.22
1080.15
1074.4
1071.42
1258.41
1239.83
1230.82
1238.27
1192.23
1195.63
1234.88
1239.99
1241.52
1230.15
1164.15
1109.58
1100.45
1099.67
1097.21
1094.21
1091.7
1089.7
1088.07
1086.72
1085.61
1084.71
1083.97
1083.35
1082.8
1082.3
1081.79
1081.23
1080.6
1079.82
1078.84
1077.6
1076.05
1074.12
1071.75
1068.86
1065.25
1060.64
1055.76
1053.6
1249.7
1237.35
1217.45
1202.82
1152.99
1151.29
1198.23
1213.83
1210.14
1172.23
1099.19
1071.11
1070.32
1070.35
1068.61
1066.75
1065.29
1064.16
1063.23
1062.48
1061.88
1061.39
1061
1060.67
1060.38
1060.08
1059.76
1059.37
1058.88
1058.25
1057.42
1056.35
1054.98
1053.26
1051.15
1048.57
1045.25
1041.25
1037.74
1034.38
1232.67
1223.67
1192.58
1164.86
1106.83
1093.55
1130.98
1164.65
1139.82
1082.77
1034.97
1031.5
1036.13
1037.77
1037.81
1037.66
1037.58
1037.52
1037.47
1037.45
1037.46
1037.5
1037.54
1037.59
1037.62
1037.6
1037.52
1037.36
1037.07
1036.63
1035.99
1035.11
1033.93
1032.42
1030.51
1028.12
1025.01
1021.79
1018.58
1014.11
1206.43
1199.64
1152.99
1109.61
1045.17
1025.13
1042.97
1066.98
1047.16
1011.97
995.551
999.408
1003.81
1006
1007.36
1008.53
1009.58
1010.5
1011.31
1012.03
1012.68
1013.27
1013.8
1014.27
1014.67
1014.98
1015.2
1015.31
1015.27
1015.07
1014.65
1013.99
1013.03
1011.74
1010.06
1007.92
1005.17
1001.97
997.638
994.751
1165.93
1160.52
1095.43
1033.12
983.142
969.771
982.422
991.97
983.38
968.746
963.849
967.668
971.642
974.635
977.189
979.505
981.585
983.43
985.061
986.51
987.804
988.964
990.002
990.917
991.712
992.386
992.934
993.341
993.585
993.637
993.466
993.035
992.303
991.223
989.749
987.826
985.365
982.082
978.245
975.371
1122.31
1126.18
1057.19
979.918
928.722
908.501
929.103
940.571
938.101
925.799
923.141
930.398
937.429
942.704
946.973
950.638
953.83
956.617
959.055
961.203
963.118
964.831
966.362
967.723
968.92
969.963
970.851
971.572
972.105
972.424
972.504
972.312
971.811
970.958
969.71
968.021
965.777
962.776
959.261
956.661
1044.43
1035.71
982.617
963.333
981.613
939.314
915.159
914.987
913.574
897.213
890.798
897.878
906.417
913.113
918.541
923.174
927.177
930.667
933.74
936.466
938.907
941.106
943.081
944.85
946.428
947.825
949.043
950.071
950.889
951.476
951.809
951.861
951.599
950.985
949.983
948.551
946.581
943.905
940.77
938.447
983.921
978.388
955.499
974.295
1016.63
897.9
843.205
846.972
844.704
838.743
853.827
868.663
878.591
885.87
892.05
897.397
901.96
905.902
909.386
912.521
915.36
917.937
920.276
922.394
924.307
926.028
927.553
928.87
929.962
930.811
931.4
931.704
931.697
931.343
930.613
929.465
927.806
925.488
922.726
920.766
950.443
967.466
958.56
928.763
899.715
787.246
739.719
759.225
762.076
767.65
801.153
839.531
857.197
863.93
869.044
874.01
878.56
882.579
886.185
889.493
892.555
895.382
897.986
900.383
902.582
904.588
906.39
907.976
909.333
910.446
911.3
911.875
912.146
912.082
911.654
910.825
909.512
907.579
905.214
903.636
895.025
911.937
887.356
798.167
740.074
728.739
721.848
730.985
729.523
723.531
739.367
789.54
833.381
848.759
851.553
853.736
857.037
860.611
864.044
867.304
870.418
873.375
876.165
878.784
881.228
883.487
885.548
887.395
889.018
890.406
891.545
892.414
892.988
893.237
893.131
892.635
891.674
890.121
888.129
886.766
840.45
856.801
842.068
764.352
709.221
710.843
708.229
705.471
703.272
698.607
699.832
721.053
776.273
822.429
835.668
835.44
836.374
839.121
842.336
845.539
848.67
851.725
854.681
857.509
860.187
862.694
865.013
867.131
869.039
870.725
872.173
873.359
874.256
874.834
875.063
874.909
874.304
873.129
871.502
870.335
780.975
790.287
782.074
734.523
697.357
698.94
697.393
692.744
689.778
683.967
682.378
687.012
709.477
762.592
803.814
813.942
814.824
816.895
820.143
823.58
826.935
830.204
833.392
836.471
839.411
842.191
844.794
847.21
849.429
851.437
853.213
854.73
855.961
856.877
857.448
857.644
857.402
856.614
855.375
854.374
727.79
731.168
724.779
701.417
689.296
692.107
689.82
687.072
680.334
675.568
671.447
671.671
677.229
700.84
747.354
783.401
792.845
794.903
797.789
801.464
805.189
808.79
812.281
815.659
818.902
821.99
824.912
827.656
830.21
832.556
834.669
836.522
838.089
839.344
840.26
840.808
840.934
840.539
839.708
838.901
684.428
686.237
683.516
676.404
679.068
682.218
674.662
670.585
668.72
666.64
663.986
660.919
661.744
665.151
691.075
741.454
770.35
775.198
776.688
779.833
783.715
787.62
791.422
795.118
798.69
802.119
805.388
808.482
811.384
814.072
816.523
818.713
820.62
822.222
823.496
824.417
824.935
824.962
824.65
823.99
649.408
652.878
655.761
658.17
657.507
654.387
656.379
655.667
653.487
654.397
655.984
654.219
650.654
651.216
658.096
692.879
735.239
752.131
755.123
757.983
762.077
766.436
770.684
774.789
778.753
782.566
786.21
789.669
792.923
795.954
798.743
801.275
803.532
805.498
807.152
808.471
809.406
809.888
809.949
809.61
616.568
619.602
622.553
630.1
641.397
645.172
647.186
647.216
646.065
645.132
647.216
648.032
646.105
644.837
648.093
663.828
692.507
721.741
731.763
735.782
740.267
745.2
750.036
754.659
759.083
763.318
767.358
771.188
774.796
778.173
781.311
784.201
786.834
789.194
791.265
793.024
794.428
795.384
795.779
795.811
585.646
586.792
586.32
593.009
619.731
640.027
642.13
642.229
641.542
640.711
640.586
639.271
636.39
636.078
641.039
642.153
660.202
690.201
708.342
714.379
719.126
724.442
729.782
734.892
739.764
744.412
748.836
753.029
756.988
760.717
764.217
767.485
770.515
773.295
775.81
778.035
779.931
781.406
782.31
782.681
557.555
556.574
551.813
553.192
590.893
637.326
640.117
639.13
638.023
637.158
636.001
634.877
632.055
631.43
632.702
637.315
651.294
664.747
683.009
692.451
698.296
704.062
709.874
715.471
720.787
725.838
730.635
735.185
739.498
743.586
747.457
751.115
754.555
757.77
760.743
763.454
765.874
767.922
769.396
770.183
534.766
533.617
528.576
526.697
560.551
621.589
637.76
634.384
633.456
632.946
632.378
632.231
628.738
625.219
626.656
631.864
624.78
636.976
659.296
672.241
678.47
684.357
690.511
696.514
702.22
707.638
712.785
717.677
722.333
726.773
731.011
735.052
738.899
742.547
745.987
749.207
752.192
754.888
757.031
758.267
516.21
515.89
512.877
510.758
535.305
596.762
626.543
628.579
628.925
628.809
628.414
627.209
625.545
623.305
621.925
623.97
627.224
638.06
645.303
651.566
657.82
664.797
671.596
678.016
684.089
689.852
695.326
700.535
705.508
710.27
714.841
719.236
723.463
727.532
731.443
735.198
738.805
742.237
745.157
746.921
498.528
497.415
493.342
486.755
500.148
569.103
624.159
626.271
626.262
625.891
625.429
624.893
624.493
621.28
621.746
625.493
631.805
639.652
633.901
629.286
635.106
644.424
652.661
659.809
666.357
672.494
678.285
683.778
689.02
694.049
698.899
703.599
708.174
712.649
717.041
721.366
725.657
729.92
733.741
736.138
482.83
480.435
474.659
463.486
464.995
535.13
621.657
624.849
624.095
623.412
622.986
622.596
621.461
619.055
619.873
621.897
625.825
624.705
622.715
617.08
618.72
627.038
635.624
643.035
649.718
655.979
661.901
667.533
672.923
678.119
683.166
688.111
692.997
697.866
702.75
707.675
712.703
717.881
722.707
725.791
471.033
468.512
463.778
454.261
448.79
493.872
588.316
621.741
620.681
620.281
620.047
619.704
619.057
618.122
617.108
618.122
619.333
618.563
618.82
611.645
606.511
611.766
620.115
627.535
634.124
640.295
646.174
651.797
657.211
662.471
667.636
672.769
677.934
683.185
688.563
694.106
699.91
706.074
712.003
715.88
461.616
459.043
455.291
447.941
438.906
460.466
552.026
615.486
617.744
617.915
617.741
617.462
617.023
616.427
615.996
616.071
616.607
616.723
617.235
608.439
595.981
596.895
605.084
612.756
619.284
625.286
631.014
636.521
641.858
647.094
652.307
657.577
662.981
668.584
674.436
680.591
687.187
694.389
701.513
706.262
453.297
450.071
445.844
438.177
425.2
429.158
514.548
614.461
617.159
616.872
616.416
616.062
615.713
615.311
614.967
614.943
615.209
615.48
615.682
608.92
590.666
584.398
591.086
598.906
605.318
611.019
616.454
621.717
626.869
631.987
637.167
642.504
648.084
653.983
660.265
667.005
674.394
682.676
691.074
696.767
447.067
443.574
439.4
433.015
421.392
413.703
462.263
572.889
615.776
615.294
614.923
614.662
614.416
614.158
613.912
613.767
613.73
613.553
612.437
610.739
591.921
576.179
578.777
586.194
592.346
597.565
602.523
607.391
612.228
617.116
622.159
627.463
633.127
639.243
645.895
653.185
661.365
670.761
680.499
687.197
442.404
438.854
434.908
429.879
421.049
408.941
425.321
526.228
611.51
614.041
613.812
613.415
613.167
612.962
612.763
612.585
612.413
612.171
611.912
612.41
595.613
571.284
567.584
574.126
580.061
584.759
589.116
593.458
597.854
602.388
607.173
612.33
617.975
624.222
631.18
638.985
647.944
658.471
669.586
677.329
438.639
434.997
431.002
426.396
419.202
406.785
404.772
476.172
590.215
613.085
612.591
612.23
611.992
611.803
611.635
611.488
611.375
611.313
611.392
611.737
600.193
571.667
559.112
563.081
568.551
572.631
576.233
579.882
583.683
587.723
592.119
597.009
602.531
608.825
616.026
624.299
634.006
645.639
658.121
666.915
435.689
432.089
428.153
423.918
418.458
408.788
397.499
423.213
533.017
609.002
611.387
611.186
610.816
610.588
610.403
610.219
610.049
609.922
609.697
608.577
604.447
577.428
554.24
553.127
557.686
561.089
563.793
566.577
569.633
573.043
576.93
581.445
586.75
593.009
600.38
609.051
619.431
632.091
645.868
655.678
433.249
429.725
425.856
421.763
417.139
409.831
397.405
397.678
476.309
591.746
610.305
609.979
609.665
609.431
609.224
609.018
608.819
608.614
608.356
608.092
608.472
585.389
552.303
543.823
547.045
549.844
551.622
553.421
555.609
558.279
561.559
565.61
570.611
576.744
584.186
593.148
604.08
617.627
632.56
643.307
431.197
427.805
424.085
420.145
416.028
410.81
401.574
391.094
417.879
528.16
606.401
608.804
608.736
608.393
608.12
607.902
607.718
607.579
607.514
607.584
607.815
592.367
555.37
536.946
537.024
538.928
539.692
540.372
541.557
543.38
545.962
549.462
554.067
559.969
567.361
576.472
587.79
602.03
617.919
629.474
429.33
426.067
422.489
418.673
414.762
410.589
404.441
393.951
392.741
458.231
572.267
607.944
607.862
607.373
607.021
606.729
606.482
606.304
606.214
606.184
605.838
598.509
563.131
533.365
527.771
528.24
527.888
527.33
527.384
528.259
530.056
532.92
537.034
542.595
549.805
558.907
570.419
585.11
601.686
613.87
427.49
424.301
420.793
417.023
413.124
409.239
404.792
397.308
387.689
406.817
509.349
602.08
606.029
605.855
605.474
605.217
605.026
604.837
604.674
604.427
603.671
602.907
572.543
532.111
518.856
517.389
515.898
514.063
512.919
512.784
513.736
515.901
519.448
524.571
531.473
540.4
551.886
566.737
583.66
596.237
425.597
422.4
418.841
414.964
410.844
406.647
402.332
396.613
387.152
383.285
432.177
547.408
603.843
604.856
604.289
603.875
603.678
603.522
603.354
603.146
602.917
602.999
579.016
532.02
509.938
505.85
503.274
500.26
497.944
496.802
496.906
498.353
501.296
505.915
512.397
520.978
532.193
546.859
563.726
576.401
423.704
420.462
416.796
412.734
408.299
403.569
398.622
392.994
384.862
374.659
380.062
473.935
592.84
603.039
602.813
602.423
602.302
602.263
602.221
602.183
602.145
601.92
583.681
532.811
501.422
493.742
489.903
485.729
482.294
480.191
479.492
480.257
482.604
486.678
492.643
500.714
511.403
525.51
541.867
554.301
421.9
418.629
414.864
410.617
405.879
400.624
394.76
387.987
380.458
373.904
362.716
376.795
501.283
598.824
601.366
601.344
601.139
601.112
601.138
601.15
601.105
600.65
583.333
528.867
491.346
480.679
475.407
470.089
465.672
462.764
461.4
461.587
463.398
466.912
472.281
479.69
489.612
502.791
518.172
530.006
420.3
417.085
413.349
409.115
404.4
399.187
393.264
386.172
379.192
379.318
384.229
338.25
368.281
558.857
597.358
600.191
600.557
600.407
600.336
600.334
600.247
599.608
576.98
514.985
476.051
464.896
458.71
452.604
447.612
444.257
442.502
442.301
443.679
446.678
451.413
458.044
466.981
478.895
492.861
503.739
418.819
415.696
412.063
407.957
403.44
398.528
392.984
386.152
378.692
380.416
402.215
372.379
258.198
334.25
546.111
594.946
599.725
600.333
600.314
600.21
599.957
599.179
555.936
488.031
456.365
446.55
439.494
432.965
427.913
424.557