/*--------------------------------*- C++ -*----------------------------------*\
  =========                 |
  \\      /  F ield         | OpenFOAM: The Open Source CFD Toolbox
   \\    /   O peration     | Website:  https://openfoam.org
    \\  /    A nd           | Version:  8
     \\/     M anipulation  |
\*---------------------------------------------------------------------------*/
FoamFile
{
    version     2.0;
    format      ascii;
    class       volScalarField;
    location    "1.55";
    object      p_rgh;
}
// * * * * * * * * * * * * * * * * * * * * * * * * * * * * * * * * * * * * * //

dimensions      [1 -1 -2 0 0 0 0];

internalField   nonuniform List<scalar> 
9150
(
2548.38
2521.44
2495.88
2478.67
2470.34
2470.34
2478.67
2495.87
2521.43
2548.37
2539.13
2519.64
2503.93
2492.13
2486.13
2486.13
2492.13
2503.93
2519.64
2539.13
2529.49
2515.98
2507.37
2499.63
2495.5
2495.5
2499.63
2507.37
2515.98
2529.48
2524.38
2514.44
2508.9
2503.56
2500.58
2500.58
2503.56
2508.9
2514.44
2524.38
2522.68
2513.89
2509.22
2505.06
2502.61
2502.61
2505.06
2509.22
2513.89
2522.68
2083.67
2079.41
2104.69
2119.05
2125.61
2125.6
2119.03
2104.66
2079.38
2083.63
2273.48
2249.23
2243.88
2242.67
2242.7
2242.7
2242.66
2243.87
2249.22
2273.46
2397.75
2366.18
2350.19
2340.3
2335.58
2335.58
2340.3
2350.18
2366.17
2397.74
2497.88
2455.54
2427.61
2410.28
2401.74
2401.74
2410.27
2427.6
2455.53
2497.88
2567.3
2515.13
2476.52
2454.49
2444.33
2444.33
2454.49
2476.51
2515.13
2567.3
1898.94
1939.69
1930.79
1938.41
1933.97
1933.93
1938.33
1930.63
1939.36
1898.31
1926.36
1946.75
1927.73
1935.72
1932.25
1932.2
1935.68
1927.56
1946.52
1925.92
1902.3
1935.38
1905.6
1912.2
1915.84
1915.81
1912.14
1905.48
1935.19
1902.06
1743.21
1869.15
1888.67
1906.72
1922.74
1922.73
1906.67
1888.57
1869.05
1743.03
1623.35
1858.03
1955.51
1985.66
2001.06
2001.05
1985.63
1955.46
1857.97
1623.23
1952.83
1956.44
1957.19
1955.08
1950.09
1942.22
1931.57
1918.32
1902.71
1885.03
1871.11
1874.01
1874.48
1872.37
1867.83
1861.01
1852.06
1841.18
1828.64
1814.82
1783.25
1785.14
1785.39
1783.94
1780.81
1776.13
1769.99
1762.6
1754.14
1744.94
1735.42
1737.18
1737.53
1736.59
1734.42
1731.14
1726.85
1721.68
1715.79
1709.32
1714.45
1714.94
1714.76
1713.91
1712.42
1710.35
1707.82
1705.01
1702.25
1699.6
1713.22
1711
1709.37
1708.16
1707.09
1706.13
1705.45
1705.57
1707.24
1708.65
1720.93
1716.87
1713.79
1712.18
1711.41
1711.32
1712.25
1715.14
1719.84
1717.75
1727.38
1723.86
1721.05
1719.74
1719.34
1719.67
1721.06
1724.3
1728.45
1723.31
1732.35
1730.39
1729.11
1728.67
1728.74
1729.25
1730.28
1732.07
1733.75
1730.37
1740.83
1739.68
1739.38
1739.7
1740.42
1741.53
1743.06
1744.62
1744.4
1742.53
1750.45
1750.32
1750.9
1752.11
1753.87
1756.38
1759.74
1762.88
1759.54
1750.82
1760.56
1761.28
1762.45
1764.25
1766.77
1770.29
1775.07
1779.54
1774.08
1752.47
1772.67
1772.84
1773.76
1775.57
1778.38
1782.52
1788.5
1795.56
1796.48
1764.32
1783
1782.36
1782.65
1783.95
1786.34
1790.05
1795.68
1803.5
1809.6
1782.26
1790
1788.56
1787.92
1788.1
1789.05
1790.75
1793.22
1796.41
1798.57
1793.86
1793.98
1792.02
1790.68
1789.97
1789.75
1789.85
1789.99
1789.75
1788.5
1789.55
1794.82
1792.93
1791.48
1790.51
1789.9
1789.47
1788.98
1788.28
1788.15
1788.81
1793.02
1791.7
1790.65
1789.95
1789.51
1789.25
1789.04
1789.06
1790.19
1788.34
1789.65
1789.09
1788.67
1788.48
1788.49
1788.65
1788.94
1789.74
1791.82
1789
1785.63
1785.77
1785.97
1786.34
1786.89
1787.55
1788.34
1789.69
1792.4
1791.95
1781.23
1782.01
1782.79
1783.73
1784.87
1786.15
1787.56
1789.55
1793.09
1795.24
1776.56
1777.83
1779.11
1780.62
1782.41
1784.43
1786.68
1789.62
1794.42
1798.77
1771.58
1773.03
1774.67
1776.66
1779.05
1781.82
1784.99
1789
1795.1
1801.94
1765.24
1766.88
1768.84
1771.26
1774.16
1777.55
1781.48
1786.36
1793.32
1801.86
1756.49
1758.63
1760.99
1763.74
1766.9
1770.44
1774.33
1778.78
1784.33
1789.88
1747.95
1749.91
1752.23
1755.09
1758.44
1762.18
1766.18
1770.45
1775.15
1778.64
1739.63
1740.53
1742.41
1745.33
1749.17
1753.78
1759
1764.8
1771.51
1778.44
1726.96
1727.02
1728.86
1732.29
1737.12
1743.18
1750.29
1758.48
1768.32
1780.27
1703.75
1704.95
1708.28
1713.29
1719.84
1727.8
1737.03
1747.57
1760.2
1776.21
1667.99
1672.86
1679.55
1687.4
1696.4
1706.59
1717.97
1730.61
1745.48
1764.55
1626.63
1635.34
1645.64
1656.4
1667.71
1679.75
1692.6
1706.33
1721.85
1741.59
1587.08
1597.66
1610.31
1623.18
1636.17
1649.55
1663.48
1678.11
1694.31
1714.75
1548.85
1560.33
1574.31
1588.31
1601.97
1615.41
1628.65
1641.59
1654.54
1668.63
1512.13
1524.45
1539.38
1554.27
1568.54
1582.3
1595.54
1608.16
1620.24
1631.96
1476.33
1490.25
1506.19
1521.98
1537.08
1551.65
1565.9
1579.97
1594.18
1609.35
1443.69
1459.1
1475.53
1491.52
1506.63
1521.01
1534.81
1548.1
1561.02
1574.5
1417.08
1432.92
1448.99
1464.46
1479.01
1492.72
1505.73
1518.08
1529.86
1541.75
1395.6
1411.21
1426.42
1440.83
1454.25
1466.72
1478.25
1488.83
1498.41
1507.22
1378.64
1393.78
1407.98
1421.16
1433.34
1444.5
1454.59
1463.54
1471.23
1477.63
1365.76
1380.45
1393.64
1405.64
1416.66
1426.67
1435.62
1443.44
1450.03
1455.33
1357.19
1371.25
1383.4
1394.27
1404.22
1413.26
1421.34
1428.43
1434.54
1439.66
1353.41
1366.28
1377.14
1386.8
1395.63
1403.63
1410.75
1416.97
1422.32
1426.87
1353.24
1364.74
1374.27
1382.75
1390.48
1397.42
1403.51
1408.73
1413.1
1416.67
1354.4
1365.31
1373.99
1381.58
1388.4
1394.4
1399.51
1403.72
1407.04
1409.51
1358.08
1368.61
1376.63
1383.5
1389.53
1394.71
1399.01
1402.45
1405.04
1406.86
1368.28
1376.82
1383.46
1389.21
1394.21
1398.45
1401.92
1404.64
1406.64
1408.03
1382.1
1388.24
1393.35
1397.84
1401.71
1404.92
1407.43
1409.25
1410.38
1410.88
1395.29
1400.29
1404.53
1408.18
1411.18
1413.52
1415.19
1416.15
1416.38
1415.92
1410.35
1414.34
1417.76
1420.59
1422.8
1424.37
1425.3
1425.6
1425.23
1424.23
1427.49
1430.36
1432.87
1434.84
1436.25
1437.08
1437.35
1437.06
1436.19
1434.78
1445.4
1447.4
1449.09
1450.3
1450.99
1451.16
1450.82
1449.96
1448.57
1446.65
1463.95
1465.18
1466.14
1466.68
1466.76
1466.39
1465.57
1464.29
1462.55
1460.32
1482.62
1483.25
1483.63
1483.63
1483.24
1482.46
1481.29
1479.73
1477.76
1475.39
1501.17
1501.34
1501.28
1500.88
1500.15
1499.08
1497.67
1495.92
1493.8
1491.32
1519.35
1519.22
1518.88
1518.24
1517.3
1516.05
1514.5
1512.64
1510.47
1507.97
1537.15
1536.84
1536.35
1535.58
1534.52
1533.19
1531.59
1529.71
1527.55
1525.09
1554.42
1554.07
1553.55
1552.77
1551.72
1550.41
1548.84
1547.01
1544.91
1542.55
1571.06
1570.83
1570.42
1569.75
1568.81
1567.6
1566.14
1564.41
1562.42
1560.18
1587.19
1587.2
1587
1586.53
1585.77
1584.73
1583.42
1581.83
1579.98
1577.86
1603.1
1603.4
1603.46
1603.24
1602.71
1601.88
1600.74
1599.3
1597.57
1595.55
1619.01
1619.61
1619.97
1620.01
1619.73
1619.12
1618.17
1616.87
1615.24
1613.27
1635.08
1635.97
1636.6
1636.91
1636.88
1636.48
1635.71
1634.54
1633
1631.07
1651.35
1652.52
1653.42
1654
1654.21
1654.02
1653.41
1652.38
1650.92
1649.04
1667.87
1669.33
1670.51
1671.34
1671.77
1671.76
1671.3
1670.37
1668.98
1667.13
1684.73
1686.49
1687.95
1689.01
1689.63
1689.77
1689.41
1688.52
1687.12
1685.24
1702.04
1704.13
1705.86
1707.13
1707.9
1708.12
1707.77
1706.84
1705.33
1703.33
1720.02
1722.44
1724.44
1725.89
1726.75
1726.98
1726.53
1725.41
1723.64
1721.31
1738.77
1741.58
1743.86
1745.49
1746.4
1746.54
1745.88
1744.4
1742.14
1739.24
1758.15
1761.52
1764.22
1766.08
1767.03
1767.02
1766.02
1764.01
1761.04
1757.26
1777.91
1782.1
1785.38
1787.57
1788.59
1788.39
1786.94
1784.24
1780.34
1775.4
1797.42
1802.66
1806.67
1809.27
1810.36
1809.92
1807.91
1804.36
1799.31
1792.96
1815.04
1821.53
1826.37
1829.42
1830.6
1829.88
1827.25
1822.74
1816.41
1808.42
1828.3
1836.18
1841.9
1845.45
1846.75
1845.77
1842.52
1837.03
1829.35
1819.54
1835.03
1844.18
1850.84
1854.91
1856.4
1855.24
1851.44
1845.02
1835.99
1824.44
1835.45
1844.66
1852.05
1856.69
1858.41
1857.17
1852.95
1845.73
1835.65
1823.56
1833.42
1839.7
1846.48
1851.37
1853.3
1852.07
1847.62
1840.02
1830.22
1820.53
1828.53
1831.91
1836.02
1840.36
1842.38
1841.23
1836.79
1829.69
1822.3
1815.7
1815.64
1822.49
1822.93
1825.56
1827.32
1826.23
1822.09
1816.56
1812.69
1803.4
1785.67
1808.64
1807.7
1808.12
1809.34
1808.33
1804.86
1801.57
1799.32
1775.37
1749.68
1785.87
1787.87
1788.01
1789.12
1788.27
1785.22
1782.63
1778
1740.27
1655.88
1764.73
1769.76
1769.71
1770.49
1769.71
1767.13
1764.85
1757.45
1676.89
1323.29
1747.33
1755.63
1754.91
1755.02
1754.37
1752.7
1751.31
1740.76
1335.25
1134.43
1732.77
1742.49
1741.83
1741.73
1741.21
1740.03
1738.9
1727.27
1140.88
977.739
1720.81
1731.03
1731.09
1731.12
1730.7
1729.61
1728.05
1716.22
980.563
859
1712.85
1722.63
1723.7
1724.08
1723.75
1722.55
1720.32
1709.39
859.248
802.968
1710.86
1719.01
1720.85
1721.55
1721.29
1719.97
1717.28
1708.41
802.164
772.924
1698.72
1720.61
1722.98
1723.88
1723.67
1722.31
1719.43
1697.96
772.026
769.332
1705.34
1727.24
1729.74
1730.73
1730.55
1729.21
1726.38
1704.38
769.031
799.776
1722.5
1737.92
1740.36
1741.38
1741.23
1739.93
1737.3
1721.9
800.085
842.622
1741.37
1751.53
1753.95
1755.01
1754.86
1753.57
1751.03
1740.97
843.54
904.643
1761.71
1767.24
1769.71
1770.81
1770.67
1769.36
1766.8
1761.44
906.457
980.204
1781.76
1784.35
1786.95
1788.15
1788
1786.61
1783.96
1781.48
983.101
1068.37
1800.63
1802.32
1805.09
1806.42
1806.28
1804.76
1801.96
1800.39
1072.24
1166.33
1819.35
1820.72
1823.7
1825.24
1825.1
1823.38
1820.37
1819.08
1170.92
1271.37
1837.75
1839.33
1842.55
1844.21
1844.08
1842.22
1838.97
1837.48
1276.24
1380.53
1855.66
1857.56
1860.78
1862.24
1862.12
1860.46
1857.18
1855.36
1385.16
1491.56
1871.38
1874.11
1876.98
1878.23
1878.15
1876.72
1873.7
1871.02
1495.39
1595.55
1885.82
1890.74
1892.57
1894.05
1894
1892.37
1890.35
1885.31
1598.02
1707.83
1911.54
1914.38
1911.18
1910.99
1910.96
1911.06
1914.3
1911.13
1708.38
1809.92
1946.21
1934.88
1928.51
1925.18
1925.14
1928.44
1934.95
1946.13
1809.53
1864.4
1841.14
1817.1
1792.9
1769.17
1746.42
1724.98
1705.09
1686.92
1670.63
1656.02
1643.02
1631.55
1621.58
1613.02
1605.75
1599.61
1594.44
1590.17
1586.69
1583.95
1581.88
1580.44
1579.59
1579.27
1579.45
1580.09
1581.17
1582.62
1584.42
1586.52
1588.84
1591.32
1593.9
1596.44
1600.1
1602.02
1602.47
1603.25
1603.59
1799.23
1781.67
1763.87
1746.37
1729.61
1713.75
1699.05
1685.53
1672.93
1661.23
1651.14
1642.24
1634.55
1628.13
1622.92
1618.69
1615.12
1612
1609.18
1606.63
1604.34
1602.35
1600.71
1599.43
1598.55
1598.08
1598.02
1598.34
1599
1599.95
1601.11
1602.39
1603.67
1604.84
1606
1606.83
1603.96
1603.94
1604.57
1606.55
1734.61
1722.92
1711.13
1699.61
1689.04
1678.81
1670.1
1664.88
1660.16
1654.96
1650.26
1646.53
1643.37
1640.03
1636.83
1634.13
1631.78
1629.53
1627.27
1625.01
1622.78
1620.66
1618.69
1616.95
1615.48
1614.3
1613.42
1612.82
1612.45
1612.26
1612.18
1612.12
1611.97
1611.66
1611.25
1610.84
1610.12
1608.89
1611.28
1620.29
1701.82
1692.96
1683.9
1673.73
1664.69
1646.54
1637.46
1637.27
1646.9
1646.82
1645.8
1647.76
1651.43
1650.12
1645.37
1641.2
1638.44
1636.25
1634.16
1632.1
1630.05
1628.04
1626.1
1624.27
1622.59
1621.09
1619.76
1618.59
1617.57
1616.65
1615.78
1614.93
1614.07
1613.24
1612.56
1612.29
1612.96
1615.9
1621.6
1628.34
1695.25
1685.16
1667.39
1635.79
1628.76
1625.7
1621.8
1615.52
1621.41
1635.52
1633.13
1625.02
1635.86
1649.97
1648.38
1640.66
1637.54
1635.74
1634.07
1632.44
1630.83
1629.21
1627.58
1625.97
1624.4
1622.89
1621.45
1620.09
1618.8
1617.57
1616.39
1615.26
1614.24
1613.42
1613
1613.29
1615.02
1619.58
1627.55
1634.82
1699.55
1655.65
1632.93
1628.31
1627.15
1623.14
1615.37
1604.65
1607.17
1616.75
1593.17
1578.07
1588.25
1607.96
1631.73
1624.03
1625.49
1627.15
1627.54
1627.35
1626.89
1626.2
1625.3
1624.26
1623.13
1621.93
1620.7
1619.47
1618.24
1617.04
1615.89
1614.85
1613.99
1613.47
1613.48
1614.39
1616.9
1622.25
1630.8
1638.22
1677.28
1640.98
1631.16
1629.73
1639.2
1630.11
1623.36
1610.6
1618.46
1600.48
1581.49
1548.42
1545.68
1568.79
1607.36
1601.91
1608.65
1614.37
1617.34
1619.05
1620.11
1620.66
1620.78
1620.56
1620.1
1619.45
1618.68
1617.81
1616.89
1615.96
1615.09
1614.33
1613.8
1613.65
1614.1
1615.46
1618.36
1623.84
1632.03
1638.66
1671.3
1649.32
1648.07
1678.84
1695.7
1686.29
1662.27
1616.75
1581.46
1578.41
1564.13
1498.6
1482.87
1521.54
1586.32
1586.42
1594.97
1602.24
1606.85
1610.1
1612.52
1614.25
1615.41
1616.09
1616.41
1616.43
1616.24
1615.88
1615.41
1614.9
1614.41
1614.03
1613.86
1614.05
1614.79
1616.36
1619.25
1624.29
1631.48
1636.68
1706.32
1676.43
1709
1758.65
1743.12
1657.93
1534.04
1439.3
1364.64
1378.5
1436.55
1390.51
1376.73
1424.55
1543.56
1573.09
1583.67
1591.21
1596.87
1601.44
1605.09
1607.92
1610.06
1611.63
1612.74
1613.47
1613.91
1614.11
1614.15
1614.11
1614.04
1614.02
1614.16
1614.59
1615.46
1616.98
1619.53
1623.71
1629.47
1633.1
1736.19
1745.33
1790.24
1781.19
1602.7
1398.17
1319.61
1312.29
1311.5
1311.41
1313.28
1318.11
1314.12
1337.74
1468.51
1558.02
1570.47
1582.75
1588.89
1594.18
1598.69
1602.39
1605.37
1607.72
1609.55
1610.94
1611.98
1612.73
1613.27
1613.66
1613.97
1614.27
1614.63
1615.17
1616.01
1617.28
1619.24
1622.3
1626.39
1628.38
1763.59
1788.92
1801.68
1658.43
1371.65
1313.28
1310.52
1309.89
1309.75
1309.61
1309.22
1308.52
1308.71
1309.89
1361.24
1494.04
1556.66
1573.68
1581.16
1587.61
1593.14
1597.74
1601.5
1604.56
1607.03
1609
1610.56
1611.79
1612.76
1613.52
1614.14
1614.66
1615.15
1615.69
1616.35
1617.21
1618.43
1620.23
1622.56
1623.4
1776.95
1796.22
1759.07
1491.81
1313.53
1309.56
1309.2
1309.3
1309.2
1308.98
1308.77
1308.66
1308.67
1308.86
1316
1454.53
1551.25
1565.34
1575.2
1582.88
1589.23
1594.5
1598.84
1602.42
1605.36
1607.76
1609.72
1611.3
1612.59
1613.62
1614.43
1615.08
1615.6
1616.03
1616.41
1616.77
1617.18
1617.7
1618.34
1618.76
1755.7
1755.98
1619.07
1364.14
1309.73
1308.33
1308.43
1308.55
1308.54
1308.47
1308.43
1308.46
1308.53
1308.52
1321.56
1482.86
1551.71
1564.12
1574.06
1581.72
1588.01
1593.31
1597.76
1601.5
1604.63
1607.24
1609.42
1611.2
1612.65
1613.81
1614.72
1615.39
1615.85
1616.09
1616.12
1615.95
1615.54
1614.85
1613.93
1613.13
1705.99
1656.87
1488.75
1317.67
1307.96
1307.46
1307.66
1307.78
1307.83
1307.87
1307.95
1308.11
1308.28
1308.03
1371.44
1550.67
1558.64
1568.64
1576.98
1583.57
1589.15
1593.97
1598.12
1601.68
1604.73
1607.33
1609.52
1611.33
1612.82
1613.99
1614.88
1615.48
1615.79
1615.79
1615.45
1614.73
1613.55
1611.76
1609.47
1607.56
1747.63
1657.91
1456.92
1309.79
1306.67
1306.61
1306.83
1306.94
1307.02
1307.11
1307.24
1307.45
1307.77
1318.17
1485.14
1565.13
1569.09
1576.36
1582.41
1587.47
1591.96
1595.99
1599.56
1602.7
1605.44
1607.82
1609.85
1611.56
1612.95
1614.04
1614.81
1615.27
1615.38
1615.09
1614.37
1613.13
1611.25
1608.5
1605.02
1601.92
1785.79
1706
1454.68
1307.21
1305.8
1305.8
1305.93
1306.01
1306.09
1306.23
1306.46
1306.7
1306.26
1379.94
1582.95
1576.16
1580.12
1584.86
1588.77
1592.32
1595.67
1598.78
1601.63
1604.2
1606.49
1608.52
1610.27
1611.76
1612.96
1613.86
1614.46
1614.72
1614.59
1614.01
1612.92
1611.23
1608.77
1605.25
1600.6
1595.46
1781.96
1694.96
1415.01
1305.94
1305.12
1304.96
1304.92
1304.92
1304.97
1305.09
1305.33
1305.91
1312.78
1486.71
1590.63
1587.17
1590.09
1592.81
1595.09
1597.34
1599.62
1601.83
1603.93
1605.87
1607.65
1609.25
1610.64
1611.82
1612.77
1613.43
1613.8
1613.82
1613.43
1612.56
1611.13
1609.04
1606.1
1601.98
1596.17
1590.77
1768.43
1621.18
1369.46
1305.2
1304.18
1303.78
1303.58
1303.52
1303.53
1303.63
1303.72
1303.55
1354.5
1602.57
1599.55
1598.01
1599.29
1600.19
1601.06
1602.16
1603.44
1604.8
1606.16
1607.48
1608.72
1609.86
1610.87
1611.71
1612.34
1612.74
1612.84
1612.6
1611.95
1610.79
1609.05
1606.63
1603.3
1598.72
1592.48
1586.56
1758.05
1560.31
1349
1304.27
1302.43
1302.01
1301.83
1301.81
1301.92
1302.25
1302.66
1301.97
1430.34
1618.99
1606.62
1606.18
1606.46
1606.22
1606.12
1606.33
1606.79
1607.4
1608.09
1608.83
1609.57
1610.26
1610.87
1611.36
1611.69
1611.8
1611.64
1611.14
1610.22
1608.8
1606.78
1604.06
1600.41
1595.49
1589.44
1584.31
1755.41
1530.71
1335.34
1301.4
1299.54
1299.68
1299.57
1299.55
1299.64
1300.02
1301.09
1310.17
1527.99
1622.7
1613.86
1613.31
1612.5
1611.29
1610.37
1609.82
1609.56
1609.52
1609.63
1609.84
1610.11
1610.39
1610.64
1610.8
1610.83
1610.67
1610.26
1609.51
1608.36
1606.69
1604.43
1601.47
1597.53
1592.28
1586.36
1581.73
1763.56
1513.97
1316.06
1293.68
1295.07
1297.25
1297.08
1296.79
1296.78
1296.87
1296.61
1341.99
1638.92
1627.95
1621.65
1619.86
1617.61
1615.43
1613.75
1612.53
1611.67
1611.06
1610.67
1610.43
1610.3
1610.23
1610.15
1610.02
1609.79
1609.39
1608.75
1607.79
1606.43
1604.56
1602.1
1598.94
1594.75
1588.96
1583.21
1578.74
1774.84
1506.55
1292.54
1279.1
1289.61
1294.4
1294.44
1293.91
1294.03
1294.51
1293.6
1394.34
1653.01
1629.48
1625.57
1623.47
1620.61
1617.95
1615.83
1614.18
1612.89
1611.89
1611.12
1610.54
1610.1
1609.75
1609.42
1609.06
1608.61
1608
1607.18
1606.05
1604.52
1602.5
1599.91
1596.63
1592.43
1586.6
1578.5
1566.85
1788.61
1527.9
1283.06
1263.65
1285.22
1289.21
1290.95
1290.04
1289.97
1291.32
1294.3
1494.25
1647.3
1630.08
1627.73
1625.29
1622.05
1619.12
1616.74
1614.8
1613.23
1611.97
1610.96
1610.15
1609.5
1608.94
1608.43
1607.91
1607.3
1606.55
1605.59
1604.33
1602.7
1600.61
1597.97
1594.71
1590.6
1584.12
1565.93
1561.66
1798.91
1568.27
1285.65
1253.29
1281.23
1280.77
1284.56
1283.22
1282.79
1283.31
1307.93
1640.21
1643.42
1632.24
1629.53
1626.03
1622.27
1619.09
1616.53
1614.43
1612.71
1611.31
1610.18
1609.25
1608.47
1607.81
1607.19
1606.55
1605.84
1605
1603.94
1602.6
1600.89
1598.73
1596.05
1592.74
1588.17
1573.09
1563.65
1563.79
1785.53
1594.34
1274.87
1256.85
1269.45
1276.86
1273.37
1273.61
1274.07
1272.84
1346.49
1671.84
1635.98
1630.23
1627.77
1624.07
1620.4
1617.39
1614.94
1612.9
1611.23
1609.86
1608.73
1607.8
1607.01
1606.32
1605.66
1604.99
1604.24
1603.35
1602.26
1600.88
1599.14
1596.97
1594.29
1590.99
1585.36
1570.95
1564.03
1561.99
1771.91
1628.99
1273.95
1258.08
1259.75
1272.18
1257.06
1259.92
1262.53
1264.65
1478.72
1647.41
1626.57
1625.12
1623.13
1619.8
1616.68
1614.12
1612.03
1610.28
1608.82
1607.62
1606.63
1605.81
1605.1
1604.46
1603.84
1603.19
1602.46
1601.6
1600.52
1599.18
1597.48
1595.36
1592.75
1589.49
1584.54
1578.09
1569.72
1546.12
1778.22
1678.63
1289.21
1238.86
1221.46
1247.88
1235.48
1240.59
1242.12
1276.09
1654.63
1629.51
1620.38
1619.6
1617.14
1614.13
1611.61
1609.61
1607.98
1606.65
1605.54
1604.64
1603.9
1603.28
1602.73
1602.22
1601.71
1601.16
1600.53
1599.75
1598.77
1597.53
1595.98
1594.05
1591.68
1588.76
1584.99
1577.39
1545.49
1529.84
1789.17
1724.73
1316.05
1203.44
1178.83
1207.95
1206.5
1214.46
1210.96
1354.39
1638.74
1610.66
1609.87
1609.9
1608.16
1606.29
1604.83
1603.69
1602.76
1602.02
1601.43
1600.94
1600.55
1600.22
1599.93
1599.63
1599.31
1598.92
1598.43
1597.8
1596.97
1595.9
1594.53
1592.81
1590.7
1588.11
1584.64
1556.83
1531.97
1528.65
1791.78
1752.93
1339.17
1165.58
1131.11
1152.69
1166.35
1165.32
1172.27
1500.54
1594.14
1590.67
1595.3
1596.94
1596.98
1596.83
1596.74
1596.67
1596.62
1596.61
1596.63
1596.67
1596.71
1596.76
1596.79
1596.77
1596.69
1596.53
1596.24
1595.8
1595.16
1594.27
1593.1
1591.59
1589.68
1587.29
1583.41
1554.84
1536.79
1553.87
1785.19
1765.55
1363.54
1110.52
1064.08
1086.34
1093.93
1071.15
1176.62
1569.63
1574.34
1578.2
1582.6
1584.79
1586.15
1587.31
1588.36
1589.28
1590.09
1590.82
1591.47
1592.06
1592.59
1593.06
1593.46
1593.77
1593.99
1594.1
1594.06
1593.85
1593.43
1592.77
1591.82
1590.53
1588.85
1586.71
1582.72
1573.12
1573.24
1573.48
1764.32
1755.72
1390.76
1034.2
996.341
1032.64
1043.84
1005.83
1171.93
1556.07
1562.26
1566.08
1570.05
1573.04
1575.59
1577.87
1579.96
1581.84
1583.47
1584.92
1586.21
1587.37
1588.41
1589.33
1590.12
1590.8
1591.34
1591.75
1591.99
1592.04
1591.87
1591.44
1590.71
1589.63
1588.16
1586.19
1583.29
1580.46
1576.59
1573.72
1740.32
1743.96
1445.14
981.32
940.979
974.657
995.703
960.017
1117.17
1527.06
1541.17
1548.43
1555.46
1560.73
1564.96
1568.62
1571.82
1574.64
1577.08
1579.23
1581.15
1582.86
1584.39
1585.75
1586.95
1587.99
1588.88
1589.6
1590.13
1590.45
1590.53
1590.34
1589.84
1588.99
1587.74
1586.03
1583.8
1580.79
1577.17
1574.63
1682.07
1673.19
1458.14
964.702
982.475
1007.63
983.729
937.047
1024.64
1464.49
1528.45
1535.53
1544.07
1550.76
1556.15
1560.78
1564.78
1568.27
1571.39
1574.12
1576.56
1578.76
1580.73
1582.5
1584.08
1585.47
1586.69
1587.72
1588.53
1589.12
1589.45
1589.51
1589.25
1588.64
1587.63
1586.2
1584.23
1581.44
1578.25
1576.03
1641.19
1635.55
1507.74
1018.34
1017.52
935.894
914.031
872.543
885.077
1181.6
1507.06
1525.93
1535.86
1543.14
1549.3
1554.62
1559.18
1563.13
1566.62
1569.79
1572.63
1575.21
1577.55
1579.66
1581.58
1583.3
1584.82
1586.14
1587.22
1588.07
1588.66
1588.97
1588.97
1588.61
1587.88
1586.74
1585.07
1582.61
1579.82
1576.3
1627.33
1644.3
1579.61
1058.51
900.633
788.175
808.515
822.246
802.066
847.825
1290.77
1516.42
1534.09
1540.82
1545.93
1550.88
1555.4
1559.42
1563.03
1566.36
1569.45
1572.27
1574.88
1577.27
1579.47
1581.48
1583.28
1584.86
1586.21
1587.33
1588.19
1588.77
1589.04
1588.97
1588.54
1587.72
1586.4
1584.37
1581.95
1576.88
1591.53
1608.42
1560.59
1019.77
741.023
729.604
768.266
794.448
769.406
759.775
872.036
1321.6
1529.21
1545.27
1548.06
1550.24
1553.54
1557.09
1560.51
1563.77
1566.91
1569.89
1572.67
1575.29
1577.74
1580
1582.06
1583.9
1585.52
1586.91
1588.05
1588.92
1589.5
1589.75
1589.64
1589.15
1588.18
1586.63
1584.5
1579.53
1556.58
1572.92
1552.32
1100.03
710.111
711.646
711.674
768.039
764.79
733.008
731.612
868.185
1290.95
1525.31
1551.8
1551.57
1552.5
1555.25
1558.45
1561.62
1564.75
1567.84
1570.81
1573.64
1576.32
1578.82
1581.14
1583.25
1585.16
1586.85
1588.3
1589.49
1590.39
1590.96
1591.19
1591.04
1590.43
1589.26
1586.15
1582.61
1516.72
1526.03
1517.44
1198.59
698.177
699.759
698.194
721.809
749.637
736.353
712.085
713.873
827.596
1244.86
1539.56
1549.69
1550.57
1552.64
1555.89
1559.3
1562.65
1565.92
1569.12
1572.21
1575.16
1577.94
1580.54
1582.95
1585.17
1587.19
1588.96
1590.48
1591.71
1592.63
1593.2
1593.39
1593.15
1592.34
1587.47
1586.17
1483.16
1486.53
1479.99
1282.7
690.117
692.945
690.651
687.986
727.07
728.722
716.325
696.632
699.575
809.41
1341.36
1538.77
1548.21
1550.27
1553.15
1556.83
1560.56
1564.15
1567.63
1571.01
1574.26
1577.36
1580.28
1583.02
1585.58
1587.93
1590.04
1591.89
1593.46
1594.71
1595.63
1596.18
1596.3
1595.19
1591.28
1590.54
1459.42
1461.22
1458.42
1355.91
731.937
683.072
675.505
671.447
678.837
720.704
716.001
702.416
682.374
683.486
874.122
1411.77
1545.34
1550.19
1551.67
1554.82
1558.71
1562.61
1566.39
1570.08
1573.66
1577.11
1580.38
1583.47
1586.37
1589.06
1591.51
1593.7
1595.61
1597.21
1598.49
1599.41
1599.92
1597.96
1595.74
1598.35
1444.02
1447.49
1450.33
1417.31
867.92
655.251
657.241
656.531
654.441
682.942
707.552
704.635
687.501
668.061
673.161
946.03
1486.64
1546.74
1549.73
1552.59
1556.69
1561.05
1565.28
1569.37
1573.35
1577.18
1580.82
1584.28
1587.53
1590.56
1593.35
1595.88
1598.14
1600.11
1601.76
1603.08
1604.02
1603.03
1601.3
1603.8
1430.8
1433.83
1436.77
1436.34
1009.4
646.055
648.069
648.099
646.965
646.427
685.568
698.321
695.538
672.128
662.438
679.595
1212.74
1527.94
1545.99
1550.01
1554.5
1559.43
1564.27
1568.89
1573.31
1577.55
1581.59
1585.42
1589.03
1592.4
1595.54
1598.43
1601.06
1603.42
1605.5
1607.25
1608.65
1609.35
1609.85
1609.69
1419.5
1420.64
1420.16
1426.42
1157.45
640.93
643.034
643.135
642.437
641.65
643.263
688.39
685.855
684.913
654.928
649.273
754.339
1427.78
1542.19
1548.23
1552.98
1558.29
1563.63
1568.74
1573.61
1578.26
1582.69
1586.88
1590.84
1594.57
1598.07
1601.33
1604.36
1607.15
1609.66
1611.88
1613.76
1615.24
1616.16
1615.79
1411.03
1410.04
1405.28
1406.52
1281.97
638.228
641.039
640.057
638.929
638.068
636.978
652.591
682.039
680.744
657.259
643.621
654.626
1153.96
1531.41
1545.92
1551.77
1557.53
1563.34
1568.94
1574.26
1579.31
1584.1
1588.65
1592.97
1597.06
1600.93
1604.58
1608.02
1611.24
1614.21
1616.92
1619.32
1621.39
1622.86
1622.81
1407.86
1406.71
1401.66
1399.73
1368.14
743.915
638.702
635.357
634.379
633.868
633.311
633.27
674.813
674.981
676.197
640.458
627.817
812.658
1459.52
1545.31
1551.56
1557.45
1563.6
1569.58
1575.31
1580.73
1585.87
1590.76
1595.42
1599.86
1604.1
1608.14
1611.99
1615.64
1619.08
1622.3
1625.26
1627.98
1630.05
1630.5
1408.92
1408.6
1405.59
1403.45
1416.28
983.526
627.488
629.523
629.866
629.749
629.351
628.15
649.619
673.831
671.306
641.208
629.722
639.433
1277.35
1544.2
1550.53
1557.51
1564.29
1570.65
1576.74
1582.56
1588.03
1593.24
1598.22
1602.98
1607.55
1611.94
1616.17
1620.24
1624.15
1627.91
1631.51
1634.95
1637.5
1638.75
1410.86
1409.75
1405.67
1399.08
1412.09
1171.77
625.141
627.236
627.23
626.848
626.381
625.848
625.496
670.453
671.564
648.284
633.524
640.736
995.268
1522.98
1547.42
1556.75
1564.95
1572.05
1578.6
1584.8
1590.61
1596.11
1601.35
1606.38
1611.23
1615.93
1620.5
1624.98
1629.37
1633.69
1637.99
1642.25
1645.69
1647.57
1414.78
1412.39
1406.61
1395.43
1396.82
1312.09
624.834
625.849
625.171
624.393
623.956
623.565
622.435
640.223
670.415
639.685
626.95
625.752
763.332
1439.31
1550.53
1558.97
1567.49
1574.9
1581.6
1587.92
1593.85
1599.48
1604.87
1610.07
1615.12
1620.06
1624.95
1629.82
1634.7
1639.62
1644.65
1649.83
1654.44
1657.43
1422.6
1420.08
1415.35
1405.83
1400.32
1400.95
825.64
622.813
621.769
621.284
621.036
620.691
620.044
619.454
625.186
626.943
620.979
619.586
625.822
1273.94
1557.62
1563.28
1571.64
1579.07
1585.68
1591.86
1597.74
1603.37
1608.78
1614.04
1619.21
1624.34
1629.5
1634.75
1640.13
1645.67
1651.48
1657.64
1663.57
1667.45
1432.81
1430.23
1426.48
1419.13
1410.08
1429.97
1146.07
616.543
618.761
618.932
618.749
618.468
618.029
617.438
617.302
617.448
618.049
617.743
618.271
1022.33
1553.87
1568.01
1576.27
1583.94
1590.47
1596.48
1602.2
1607.71
1613.05
1618.28
1623.5
1628.77
1634.17
1639.77
1645.62
1651.78
1658.38
1665.58
1672.7
1677.45
1444.11
1440.88
1436.65
1428.99
1416.01
1419.83
1335.41
616.673
618.175
617.953
617.444
617.089
616.738
616.334
616.053
616.05
616.323
616.51
616.71
806.807
1493.11
1574.94
1581.88
1589.72
1596.13
1601.83
1607.26
1612.53
1617.68
1622.79
1627.98
1633.31
1638.89
1644.79
1651.07
1657.81
1665.2
1673.49
1681.88
1687.58
1457.5
1454
1449.83
1443.45
1431.82
1424.08
1426.17
856.953
616.856
616.385
615.972
615.708
615.461
615.201
614.962
614.828
614.776
614.599
613.482
657.383
1355.88
1585.75
1589.15
1596.62
1602.78
1607.99
1612.95
1617.82
1622.66
1627.54
1632.59
1637.89
1643.56
1649.67
1656.32
1663.61
1671.79
1681.19
1690.93
1697.63
1472.45
1468.9
1464.96
1459.93
1451.1
1438.98
1455.05
1258.71
612.85
615.119
614.885
614.482
614.234
614.026
613.828
613.654
613.479
613.236
612.977
613.475
1119.17
1595.64
1597.48
1604.17
1610.11
1614.81
1619.17
1623.51
1627.9
1632.43
1637.22
1642.38
1648.02
1654.27
1661.23
1669.03
1677.99
1688.52
1699.64
1707.38
1488.31
1484.67
1480.67
1476.07
1468.87
1456.45
1454.35
1434.18
696.68
614.142
613.678
613.317
613.079
612.89
612.721
612.574
612.461
612.399
612.477
612.822
874.076
1556.52
1608.32
1612.72
1618.22
1622.3
1625.9
1629.55
1633.35
1637.39
1641.78
1646.68
1652.2
1658.49
1665.69
1673.97
1683.68
1695.31
1707.79
1716.59
1504.98
1501.38
1497.44
1493.21
1487.75
1478.08
1466.77
1487.85
1175.54
610.343
612.501
612.295
611.923
611.696
611.511
611.329
611.165
611.028
610.802
609.681
692.759
1433.85
1622.18
1622.31
1626.97
1630.38
1633.08
1635.87
1638.92
1642.33
1646.21
1650.73
1656.04
1662.3
1669.67
1678.34
1688.72
1701.38
1715.16
1724.97
1522.16
1518.63
1514.77
1510.67
1506.05
1498.74
1486.31
1486.49
1456.85
672.118
611.414
611.106
610.793
610.559
610.352
610.156
609.957
609.751
609.482
609.215
609.594
1203.4
1636.88
1632.45
1635.93
1638.75
1640.53
1642.33
1644.51
1647.18
1650.46
1654.52
1659.52
1665.65
1673.1
1682.06
1692.99
1706.54
1721.47
1732.22
1539.73
1536.34
1532.62
1528.67
1524.56
1519.34
1510.1
1499.61
1521.85
1189.07
607.841
609.959
609.885
609.541
609.268
609.053
608.876
608.738
608.66
608.727
608.958
930.632
1611.18
1644.76
1645.49
1647.45
1648.22
1648.9
1650.09
1651.9
1654.49
1657.99
1662.6
1668.5
1675.89
1685
1696.32
1710.56
1726.45
1738
1557.48
1554.22
1550.64
1546.82
1542.91
1538.74
1532.59
1522.1
1520.82
1503.12
791.16
609.156
609.16
608.57
608.19
607.897
607.657
607.476
607.377
607.347
607.001
733.843
1505.67
1659.77
1655.75
1656.37
1656.04
1655.48
1655.53
1656.41
1658.21
1661.07
1665.18
1670.74
1677.95
1687.06
1698.56
1713.23
1729.83
1742.02
1575.26
1572.07
1568.56
1564.79
1560.89
1557.01
1552.56
1545.08
1535.45
1551.86
1338.24
609.419
607.375
607.349
606.814
606.403
606.21
606.019
605.857
605.609
604.853
617.68
1331.28
1676.31
1666.26
1665.12
1663.66
1661.83
1660.69
1660.55
1661.51
1663.67
1667.22
1672.34
1679.24
1688.17
1699.63
1714.44
1731.42
1744
1592.99
1589.79
1586.23
1582.35
1578.23
1574.04
1569.72
1564
1554.54
1542.66
1502.7
955.057
605.243
606.254
605.694
605.275
604.906
604.725
604.556
604.347
604.119
604.201
1104.14
1681.53
1676.67
1673.17
1670.66
1667.65
1665.33
1664.19
1664.3
1665.74
1668.69
1673.3
1679.79
1688.37
1699.55
1714.18
1731.1
1743.79
1610.71
1607.47
1603.81
1599.74
1595.31
1590.58
1585.63
1580
1571.87
1556.65
1463.53
1306.97
619.018
604.315
604.132
603.846
603.671
603.487
603.443
603.406
603.367
603.142
918.523
1651.85
1687.36
1680.64
1676.9
1672.74
1669.3
1667.2
1666.5
1667.25
1669.59
1673.68
1679.65
1687.72
1698.37
1712.45
1728.86
1741.31
1628.53
1625.26
1621.49
1617.25
1612.51
1607.25
1601.39
1594.62
1587.09
1577.64
1299.82
1316.45
882.517
600.074
602.613
602.661
602.496
602.365
602.381
602.392
602.348
601.892
876.899
1642.37
1696.71
1687.18
1682.03
1676.72
1672.3
1669.39
1668.03
1668.18
1669.83
1673.5
1678.91
1686.32
1696.18
1709.35
1724.79
1736.63
1646.55
1643.33
1639.6
1635.36
1630.65
1625.44
1619.51
1612.42
1605.44
1605.57
1327.04
1035.1
960.162
608.33
598.625
601.456
601.821
601.669
601.599
601.596
601.509
600.87
913.71
1662.96
1701.2
1691.03
1684.95
1678.85
1673.86
1670.51
1668.75
1668.45
1669.72
1672.81
1677.66
1684.29
1693.15
1705.07
1719.1
1729.99
1664.69
1661.57
1657.93
1653.83
1649.31
1644.4
1638.85
1632.02
1624.56
1626.29
1494.83
641.37
810.125
895.188
559.617
596.23
601.008
601.615
601.596
601.493
601.239
600.462
1139.46
1707.16
1701.02
1692.3
1685.35
1678.83
1673.78
1670.43
1668.62
1668.11
1669.17
1671.73
1676.02
1681.8
1689.54
1699.91
1712.15
1721.75
1682.82
1679.77
1676.25
1672.34
1668.14
1663.71