/*--------------------------------*- C++ -*----------------------------------*\
  =========                 |
  \\      /  F ield         | OpenFOAM: The Open Source CFD Toolbox
   \\    /   O peration     | Website:  https://openfoam.org
    \\  /    A nd           | Version:  8
     \\/     M anipulation  |
\*---------------------------------------------------------------------------*/
FoamFile
{
    version     2.0;
    format      ascii;
    class       surfaceScalarField;
    location    "1.55";
    object      phi;
}
// * * * * * * * * * * * * * * * * * * * * * * * * * * * * * * * * * * * * * //

dimensions      [0 3 -1 0 0 0 0];

internalField   nonuniform List<scalar> 
18095
(
1.58882e-07
-9.65046e-07
8.06163e-07
1.65641e-07
-1.24834e-06
1.24158e-06
1.2236e-07
-1.24234e-06
1.28562e-06
6.54011e-08
-1.2636e-06
1.32056e-06
3.28324e-12
-1.28067e-06
1.34606e-06
-6.53951e-08
-1.28067e-06
1.34606e-06
-1.22356e-07
-1.26361e-06
1.32057e-06
-1.65638e-07
-1.24235e-06
1.28563e-06
-1.58881e-07
-1.24834e-06
1.24158e-06
-9.65049e-07
8.06168e-07
1.11149e-07
-1.07619e-06
9.9568e-08
-1.23676e-06
7.29691e-08
-1.21574e-06
4.00946e-08
-1.23073e-06
2.41675e-12
-1.24057e-06
-4.00902e-08
-1.24057e-06
-7.29655e-08
-1.23073e-06
-9.95655e-08
-1.21575e-06
-1.11148e-07
-1.23676e-06
-1.0762e-06
6.72874e-08
-1.14348e-06
5.2871e-08
-1.22234e-06
4.2231e-08
-1.2051e-06
2.39091e-08
-1.21241e-06
1.65899e-12
-1.21667e-06
-2.3906e-08
-1.21667e-06
-4.22286e-08
-1.21241e-06
-5.28692e-08
-1.2051e-06
-6.72864e-08
-1.22234e-06
-1.14348e-06
3.97048e-08
-1.18319e-06
2.66854e-08
-1.20932e-06
2.20678e-08
-1.20049e-06
1.25607e-08
-1.2029e-06
1.07209e-12
-1.20411e-06
-1.25587e-08
-1.20411e-06
-2.20662e-08
-1.2029e-06
-2.66841e-08
-1.20049e-06
-3.97039e-08
-1.20932e-06
-1.18319e-06
1.68136e-08
7.49194e-09
7.00557e-09
4.10618e-09
4.66601e-13
-4.10527e-09
-7.00476e-09
-7.49133e-09
-1.68131e-08
-1.76053e-07
-1.16327e-06
1.33933e-06
-2.20335e-07
-1.21663e-06
1.26092e-06
-1.65976e-07
-1.21304e-06
1.15868e-06
-8.74237e-08
-1.20422e-06
1.12567e-06
3.26652e-11
-1.20279e-06
1.11533e-06
8.74877e-08
-1.20279e-06
1.11534e-06
1.66035e-07
-1.20423e-06
1.12569e-06
2.20387e-07
-1.21306e-06
1.15871e-06
1.76097e-07
-1.21666e-06
1.26095e-06
-1.1633e-06
1.3394e-06
-9.28032e-08
-1.07047e-06
-9.56675e-08
-1.21377e-06
-7.94056e-08
-1.2293e-06
-4.43093e-08
-1.23931e-06
1.85096e-11
-1.24712e-06
4.43448e-08
-1.24712e-06
7.94372e-08
-1.23932e-06
9.56926e-08
-1.22932e-06
9.28173e-08
-1.21379e-06
-1.07049e-06
-5.80057e-08
-1.01246e-06
-5.51757e-08
-1.2166e-06
-4.65335e-08
-1.23795e-06
-2.71426e-08
-1.25871e-06
1.11351e-11
-1.27427e-06
2.71637e-08
-1.27427e-06
4.65515e-08
-1.25871e-06
5.51888e-08
-1.23796e-06
5.80121e-08
-1.21661e-06
-1.01247e-06
-7.49518e-08
-9.37513e-07
-6.20983e-08
-1.22945e-06
-4.86028e-08
-1.25144e-06
-2.77607e-08
-1.27955e-06
6.94482e-12
-1.30204e-06
2.77737e-08
-1.30204e-06
4.86136e-08
-1.27955e-06
6.21055e-08
-1.25145e-06
7.49552e-08
-1.22946e-06
-9.3752e-07
-1.31349e-07
-1.19221e-07
-8.5038e-08
-4.40224e-08
4.61081e-12
4.40311e-08
8.5045e-08
1.19225e-07
1.31352e-07
-5.95579e-08
-9.42899e-07
1.00246e-06
-2.39624e-09
-1.33849e-06
1.28133e-06
8.60416e-09
-1.27096e-06
1.25996e-06
3.81299e-09
-1.22474e-06
1.22953e-06
2.86089e-10
-1.22229e-06
1.22582e-06
-3.24412e-09
-1.22231e-06
1.22584e-06
-8.05733e-09
-1.22477e-06
1.22958e-06
3.25063e-09
-1.27096e-06
1.25966e-06
6.07899e-08
-1.33857e-06
1.28104e-06
-9.44018e-07
1.00481e-06
6.80887e-09
-9.49707e-07
1.43221e-08
-1.346e-06
1.06503e-08
-1.26729e-06
5.91622e-09
-1.22001e-06
2.52073e-10
-1.21663e-06
-5.39602e-09
-1.21666e-06
-1.01497e-08
-1.22001e-06
-1.38051e-08
-1.26731e-06
-6.24813e-09
-1.34613e-06
-9.50266e-07
2.59624e-08
-9.7567e-07
1.78305e-08
-1.33787e-06
9.32326e-09
-1.25878e-06
5.59078e-09
-1.21628e-06
1.4862e-10
-1.21119e-06
-5.31752e-09
-1.2112e-06
-9.02973e-09
-1.2163e-06
-1.75257e-08
-1.25881e-06
-2.56953e-08
-1.33796e-06
-9.75961e-07
7.87546e-08
-1.05442e-06
5.3308e-08
-1.31242e-06
3.43087e-08
-1.23978e-06
2.08597e-08
-1.20283e-06
8.95452e-11
-1.19041e-06
-2.06842e-08
-1.19042e-06
-3.41279e-08
-1.20286e-06
-5.31164e-08
-1.23982e-06
-7.8611e-08
-1.31247e-06
-1.05457e-06
2.84903e-07
2.33394e-07
1.52299e-07
7.51382e-08
5.50345e-11
-7.50298e-08
-1.52203e-07
-2.33314e-07
-2.84829e-07
-9.04971e-08
-7.24148e-08
1.62912e-07
-1.73229e-08
-7.31742e-08
5.62273e-08
-7.35501e-08
1.29862e-07
-7.3635e-08
2.031e-07
-7.3238e-08
2.75417e-07
-7.23168e-08
3.46265e-07
-7.08481e-08
4.15048e-07
-6.87835e-08
4.8112e-07
-6.60721e-08
-6.26234e-08
5.43744e-07
-7.77234e-08
-1.32602e-07
1.3791e-07
-1.67728e-08
-1.34125e-07
4.44799e-08
-1.34803e-07
1.05507e-07
-1.34661e-07
1.65936e-07
-1.33667e-07
2.25388e-07
-1.31769e-07
2.8344e-07
-1.289e-07
3.39624e-07
-1.24967e-07
3.9342e-07
-1.19869e-07
-1.1348e-07
4.44277e-07
-6.85726e-08
-1.83828e-07
1.19799e-07
-1.69125e-08
-1.85785e-07
3.48642e-08
-1.86579e-07
8.6432e-08
-1.86229e-07
1.37488e-07
-1.84723e-07
1.87729e-07
-1.8201e-07
2.36832e-07
-1.78003e-07
2.84445e-07
-1.7258e-07
3.30168e-07
-1.65592e-07
-1.56878e-07
3.73566e-07
-6.07792e-08
-2.27738e-07
1.0469e-07
-1.65984e-08
-2.29965e-07
2.75853e-08
-2.30763e-07
7.15451e-08
-2.30189e-07
1.15066e-07
-2.28244e-07
1.57934e-07
-2.24878e-07
1.99921e-07
-2.1999e-07
2.40772e-07
-2.1343e-07
2.80174e-07
-2.04995e-07
-1.9443e-07
3.17726e-07
-5.25037e-08
-2.64967e-07
8.9733e-08
-1.50772e-08
-2.67392e-07
2.23341e-08
-2.68174e-07
5.95625e-08
-2.67417e-07
9.64546e-08
-2.65137e-07
1.32859e-07
-2.61283e-07
1.68621e-07
-2.55751e-07
2.03565e-07
-2.48374e-07
2.37473e-07
-2.38902e-07
-2.26966e-07
2.70009e-07
-4.46638e-08
-2.96485e-07
7.61815e-08
-1.31229e-08
-2.98933e-07
1.83649e-08
-2.99662e-07
4.97182e-08
-2.98771e-07
8.08462e-08
-2.96265e-07
1.11657e-07
-2.92094e-07
1.4207e-07
-2.86164e-07
1.72025e-07
-2.78329e-07
2.01466e-07
-2.68344e-07
-2.55785e-07
2.30284e-07
-3.92671e-08
-3.23731e-07
6.65134e-08
-1.23102e-08
-3.2589e-07
1.44992e-08
-3.26472e-07
4.1187e-08
-3.25459e-07
6.77354e-08
-3.22813e-07
9.41187e-08
-3.18477e-07
1.20327e-07
-3.12373e-07
1.46405e-07
-3.04407e-07
1.72545e-07
-2.94483e-07
-2.82536e-07
1.99296e-07
-3.73395e-08
-3.47871e-07
6.14795e-08
-1.36088e-08
-3.4962e-07
9.90448e-09
-3.49985e-07
3.32917e-08
-3.48846e-07
5.66017e-08
-3.46123e-07
7.98664e-08
-3.41742e-07
1.03123e-07
-3.35629e-07
1.26437e-07
-3.27721e-07
1.49982e-07
-3.18028e-07
-3.06775e-07
1.74221e-07
-3.78855e-08
-3.69475e-07
5.94894e-08
-1.65511e-08
-3.70955e-07
4.60292e-09
-3.71139e-07
2.56677e-08
-3.69911e-07
4.67196e-08
-3.67175e-07
6.78165e-08
-3.62839e-07
8.89964e-08
-3.56809e-07
1.10259e-07
-3.48984e-07
1.31526e-07
-3.39296e-07
-3.27821e-07
1.52572e-07
-3.94262e-08
-3.88763e-07
5.8714e-08
-2.02182e-08
-3.90163e-07
-1.0677e-09
-3.90289e-07
1.80792e-08
-3.89058e-07
3.72833e-08
-3.86379e-07
5.65963e-08
-3.82152e-07
7.60414e-08
-3.76254e-07
9.55776e-08
-3.6852e-07
1.14991e-07
-3.58709e-07
-3.4673e-07
1.33901e-07
-4.18816e-08
-4.06146e-07
5.92649e-08
-2.44975e-08
-4.07547e-07
-7.09906e-09
-4.07688e-07
1.03555e-08
-4.06512e-07
2.79203e-08
-4.03944e-07
4.5651e-08
-3.99883e-07
6.35989e-08
-3.94202e-07
8.17978e-08
-3.86719e-07
1.00191e-07
-3.77102e-07
-3.64792e-07
1.18253e-07
-4.48792e-08
-4.21942e-07
6.06749e-08
-2.90536e-08
-4.23372e-07
-1.31661e-08
-4.23575e-07
2.83945e-09
-4.22518e-07
1.90395e-08
-4.20144e-07
3.55324e-08
-4.16375e-07
5.24468e-08
-4.11116e-07
6.99726e-08
-4.04245e-07
8.83781e-08
-3.95508e-07
-3.83881e-07
1.07467e-07
-4.78168e-08
-4.36236e-07
6.21111e-08
-3.3446e-08
-4.37743e-07
-1.89514e-08
-4.3807e-07
-4.26624e-09
-4.37203e-07
1.07005e-08
-4.3511e-07
2.60735e-08
-4.31748e-07
4.20274e-08
-4.2707e-07
5.88348e-08
-4.21052e-07
7.69651e-08
-4.13638e-07
-4.04177e-07
9.72609e-08
-5.09469e-08
-4.49324e-07
6.40347e-08
-3.77732e-08
-4.50917e-07
-2.44284e-08
-4.51415e-07
-1.08233e-08
-4.50808e-07
3.14697e-09
-4.49081e-07
1.76186e-08
-4.4622e-07
3.27721e-08
-4.42224e-07
4.886e-08
-4.3714e-07
6.63573e-08
-4.31136e-07
-4.24299e-07
8.64799e-08
-5.44914e-08
-4.61508e-07
6.6675e-08
-4.22028e-08
-4.63205e-07
-2.96809e-08
-4.63937e-07
-1.68059e-08
-4.63683e-07
-3.45475e-09
-4.62432e-07
1.05112e-08
-4.60186e-07
2.52608e-08
-4.56973e-07
4.09807e-08
-4.5286e-07
5.78337e-08
-4.47989e-07
-4.42566e-07
7.61007e-08
-5.88983e-08
-4.72922e-07
7.03128e-08
-4.73437e-08
-4.7476e-07
-3.55057e-08
-4.75775e-07
-2.32626e-08
-4.75926e-07
-1.05048e-08
-4.75189e-07
2.86694e-09
-4.73558e-07
1.69378e-08
-4.71044e-07
3.17603e-08
-4.67682e-07
4.72748e-08
-4.63503e-07
-4.58499e-07
6.32076e-08
-6.4798e-08
-4.83638e-07
7.55142e-08
-5.39168e-08
-4.85641e-07
-4.27455e-08
-4.86946e-07
-3.11875e-08
-4.87484e-07
-1.9171e-08
-4.87206e-07
-6.64916e-09
-4.86079e-07
6.39115e-09
-4.84084e-07
1.99152e-08
-4.81206e-07
3.3819e-08
-4.77407e-07
-4.7259e-07
4.79093e-08
-7.24826e-08
-4.93709e-07
8.25537e-08
-6.22272e-08
-4.95896e-07
-5.16975e-08
-4.97476e-07
-4.08324e-08
-4.98349e-07
-2.95973e-08
-4.98441e-07
-1.7983e-08
-4.97694e-07
-6.00615e-09
-4.96061e-07
6.29105e-09
-4.93503e-07
1.88524e-08
-4.89968e-07
-4.85373e-07
3.16356e-08
-8.18065e-08
-5.03153e-07
9.12502e-08
-7.21391e-08
-5.05564e-07
-6.21996e-08
-5.07415e-07
-5.19615e-08
-5.08587e-07
-4.14192e-08
-5.08983e-07
-3.0586e-08
-5.08527e-07
-1.94891e-08
-5.07158e-07
-8.16312e-09
-5.04829e-07
3.36851e-09
-5.015e-07
-4.97126e-07
1.51219e-08
-9.24187e-08
-5.11959e-07
1.01225e-07
-8.3322e-08
-5.14661e-07
-7.39262e-08
-5.16811e-07
-6.4236e-08
-5.18277e-07
-5.42706e-08
-5.18949e-07
-4.40601e-08
-5.18737e-07
-3.36423e-08
-5.17576e-07
-2.30562e-08
-5.15415e-07
-1.23359e-08
-5.1222e-07
-5.07966e-07
-1.49619e-09
-1.03995e-07
-5.20126e-07
1.12162e-07
-9.54608e-08
-5.23195e-07
-8.65817e-08
-5.2569e-07
-7.73911e-08
-5.27468e-07
-6.79315e-08
-5.28408e-07
-5.8252e-08
-5.28417e-07
-4.84043e-08
-5.27424e-07
-3.84395e-08
-5.2538e-07
-2.84056e-08
-5.22254e-07
-5.18024e-07
-1.83471e-08
-1.16299e-07
-5.27677e-07
1.2385e-07
-1.08303e-07
-5.31191e-07
-9.99123e-08
-5.34081e-07
-9.11886e-08
-5.36191e-07
-8.22015e-08
-5.37395e-07
-7.30222e-08
-5.37596e-07
-6.3721e-08
-5.36725e-07
-5.43616e-08
-5.3474e-07
-4.49973e-08
-5.31618e-07
-5.2737e-07
-3.56522e-08
-1.29122e-07
-5.3468e-07
1.36125e-07
-1.21583e-07
-5.3873e-07
-1.13599e-07
-5.42065e-07
-1.05267e-07
-5.44524e-07
-9.66848e-08
-5.45977e-07
-8.79501e-08
-5.46331e-07
-7.9155e-08
-5.4552e-07
-7.03835e-08
-5.43511e-07
-6.17033e-08
-5.40299e-07
-5.35932e-07
-5.31406e-08
-1.42207e-07
-5.41337e-07
1.48865e-07
-1.34932e-07
-5.46005e-07
-1.27177e-07
-5.49821e-07
-1.19069e-07
-5.52631e-07
-1.10729e-07
-5.54318e-07
-1.02268e-07
-5.54791e-07
-9.3796e-08
-5.53993e-07
-8.54171e-08
-5.5189e-07
-7.72329e-08
-5.48483e-07
-5.43833e-07
-6.93325e-08
-1.54968e-07
-5.47919e-07
1.6155e-07
-1.47726e-07
-5.53247e-07
-1.39988e-07
-5.57558e-07
-1.31895e-07
-5.60725e-07
-1.23561e-07
-5.62651e-07
-1.15087e-07
-5.63266e-07
-1.06562e-07
-5.62517e-07
-9.80806e-08
-5.60372e-07
-8.97419e-08
-5.56822e-07
-5.51894e-07
-8.16806e-08
-1.66423e-07
-5.54453e-07
1.72958e-07
-1.59176e-07
-5.60495e-07
-1.5141e-07
-5.65324e-07
-1.43273e-07
-5.68862e-07
-1.34875e-07
-5.7105e-07
-1.26299e-07
-5.71842e-07
-1.17616e-07
-5.71199e-07
-1.08899e-07
-5.69089e-07
-1.00238e-07
-5.65483e-07
-5.60341e-07
-9.17908e-08
-1.76395e-07
-5.6102e-07
1.82962e-07
-1.69094e-07
-5.67796e-07
-1.61274e-07
-5.73144e-07
-1.53096e-07
-5.77039e-07
-1.44676e-07
-5.7947e-07
-1.36094e-07
-5.80423e-07
-1.27416e-07
-5.79878e-07
-1.18702e-07
-5.77804e-07
-1.10033e-07
-5.74151e-07
-5.68842e-07
-1.01532e-07
-1.8541e-07
-5.68112e-07
1.92503e-07
-1.77707e-07
-5.755e-07
-1.69595e-07
-5.81255e-07
-1.61223e-07
-5.85411e-07
-1.52694e-07
-5.88e-07
-1.44075e-07
-5.89042e-07
-1.35411e-07
-5.88541e-07
-1.26738e-07
-5.86478e-07
-1.18091e-07
-5.82798e-07
-5.77414e-07
-1.09519e-07
-1.93558e-07
-5.76471e-07
2.01917e-07
-1.84924e-07
-5.84135e-07
-1.76144e-07
-5.90035e-07
-1.67304e-07
-5.94251e-07
-1.58451e-07
-5.96853e-07
-1.49603e-07
-5.9789e-07
-1.40755e-07
-5.97389e-07
-1.31884e-07
-5.95348e-07
-1.22955e-07
-5.91728e-07
-5.86456e-07
-1.13912e-07
-1.99718e-07
-5.86472e-07
2.09719e-07
-1.89903e-07
-5.9395e-07
-1.80291e-07
-5.99646e-07
-1.70868e-07
-6.03674e-07
-1.61597e-07
-6.06124e-07
-1.52422e-07
-6.07065e-07
-1.43272e-07
-6.06539e-07
-1.34061e-07
-6.0456e-07
-1.24679e-07
-6.0111e-07
-5.96147e-07
-1.14988e-07
-2.01964e-07
-5.97618e-07
2.1311e-07
-1.91373e-07
-6.0454e-07
-1.81249e-07
-6.0977e-07
-1.71491e-07
-6.13433e-07
-1.61988e-07
-6.15627e-07
-1.52627e-07
-6.16426e-07
-1.43289e-07
-6.15877e-07
-1.33842e-07
-6.14007e-07
-1.24129e-07
-6.10822e-07
-6.06319e-07
-1.13957e-07
-1.99477e-07
-6.089e-07
2.10759e-07
-1.88888e-07
-6.15128e-07
-1.78851e-07
-6.19808e-07
-1.6922e-07
-6.23063e-07
-1.59863e-07
-6.24985e-07
-1.50648e-07
-6.2564e-07
-1.41452e-07
-6.25073e-07
-1.32149e-07
-6.2331e-07
-1.2261e-07
-6.20362e-07
-6.16241e-07
-1.12688e-07
-1.93028e-07
-6.19566e-07
2.03694e-07
-1.83039e-07
-6.25117e-07
-1.73555e-07
-6.29292e-07
-1.64419e-07
-6.322e-07
-1.55483e-07
-6.33921e-07
-1.4661e-07
-6.34514e-07
-1.37663e-07
-6.34019e-07
-1.28512e-07
-6.32461e-07
-1.19029e-07
-6.29844e-07
-6.26172e-07
-1.09098e-07
-1.83578e-07
-6.29091e-07
1.93102e-07
-1.74635e-07
-6.3406e-07
-1.66108e-07
-6.37819e-07
-1.57854e-07
-6.40454e-07
-1.49741e-07
-6.42033e-07
-1.41649e-07
-6.42606e-07
-1.33462e-07
-6.42206e-07
-1.25077e-07
-6.40846e-07
-1.16411e-07
-6.38511e-07
-6.35172e-07
-1.07411e-07
-1.71774e-07
-6.37147e-07
1.7983e-07
-1.64185e-07
-6.41649e-07
-1.56928e-07
-6.45075e-07
-1.49889e-07
-6.47493e-07
-1.42966e-07
-6.48956e-07
-1.3607e-07
-6.49503e-07
-1.29124e-07
-6.49152e-07
-1.22065e-07
-6.47905e-07
-1.14841e-07
-6.45735e-07
-6.42595e-07
-1.07417e-07
-1.57756e-07
-6.4348e-07
1.64089e-07
-1.51758e-07
-6.47647e-07
-1.4599e-07
-6.50842e-07
-1.4036e-07
-6.53123e-07
-1.34781e-07
-6.54535e-07
-1.29174e-07
-6.5511e-07
-1.2346e-07
-6.54865e-07
-1.17558e-07
-6.53807e-07
-1.11361e-07
-6.51932e-07
-6.49225e-07
-1.04732e-07
-1.41787e-07
-6.47886e-07
1.46193e-07
-1.37567e-07
-6.51867e-07
-1.33454e-07
-6.54955e-07
-1.29378e-07
-6.572e-07
-1.25271e-07
-6.58643e-07
-1.21066e-07
-6.59315e-07
-1.16692e-07
-6.59239e-07
-1.12068e-07
-6.58431e-07
-1.07092e-07
-6.56908e-07
-6.54695e-07
-1.01622e-07
-1.24507e-07
-6.50365e-07
1.26986e-07
-1.2208e-07
-6.54294e-07
-1.19645e-07
-6.5739e-07
-1.17148e-07
-6.59697e-07
-1.14534e-07
-6.61257e-07
-1.11747e-07
-6.62102e-07
-1.08724e-07
-6.62261e-07
-1.05397e-07
-6.61759e-07
-1.01681e-07
-6.60624e-07
-6.58895e-07
-9.74805e-08
-1.06468e-07
-6.51026e-07
1.07129e-07
-1.05759e-07
-6.55003e-07
-1.04958e-07
-6.5819e-07
-1.04025e-07
-6.6063e-07
-1.02918e-07
-6.62364e-07
-1.01594e-07
-6.63426e-07
-1.00007e-07
-6.63848e-07
-9.8105e-08
-6.63661e-07
-9.58329e-08
-6.62896e-07
-6.61591e-07
-9.31372e-08
-8.80103e-08
-6.50018e-07
8.70024e-08
-8.89092e-08
-6.54104e-07
-8.96716e-08
-6.57428e-07
-9.02706e-08
-6.60031e-07
-9.06811e-08
-6.61953e-07
-9.08787e-08
-6.63228e-07
-9.08378e-08
-6.63889e-07
-9.05324e-08
-6.63966e-07
-8.99384e-08
-6.6349e-07
-6.62491e-07
-8.9038e-08
-6.92239e-08
-6.47474e-07
6.66798e-08
-7.163e-08
-6.51698e-07
-7.3883e-08
-6.55175e-07
-7.59704e-08
-6.57944e-07
-7.7884e-08
-6.6004e-07
-7.96186e-08
-6.61494e-07
-8.11717e-08
-6.62336e-07
-8.2544e-08
-6.62594e-07
-8.37382e-08
-6.62296e-07
-6.61467e-07
-8.47624e-08
-5.01035e-08
-6.43486e-07
4.61163e-08
-5.39345e-08
-6.47867e-07
-5.76021e-08
-6.51507e-07
-6.11065e-08
-6.5444e-07
-6.44534e-08
-6.56693e-07
-6.76521e-08
-6.58295e-07
-7.07152e-08
-6.59272e-07
-7.36573e-08
-6.59652e-07
-7.6495e-08
-6.59459e-07
-6.58719e-07
-7.92425e-08
-3.09449e-08
-6.38203e-07
2.56612e-08
-3.60621e-08
-6.4275e-07
-4.10144e-08
-6.46555e-07
-4.58114e-08
-6.49643e-07
-5.04671e-08
-6.52037e-07
-5.49989e-08
-6.53763e-07
-5.94247e-08
-6.54847e-07
-6.37635e-08
-6.55313e-07
-6.80324e-08
-6.5519e-07
-6.54504e-07
-7.22477e-08
-1.23235e-08
-6.31926e-07
6.04649e-09
-1.84679e-08
-6.36605e-07
-2.44849e-08
-6.40538e-07
-3.03861e-08
-6.43741e-07
-3.6185e-08
-6.46238e-07
-4.18975e-08
-6.48051e-07
-4.75394e-08
-6.49205e-07
-5.31265e-08
-6.49726e-07
-5.8673e-08
-6.49643e-07
-6.48985e-07
-6.41921e-08
5.64152e-09
-6.24898e-07
-1.26692e-08
-1.31697e-09
-6.29647e-07
-8.21495e-09
-6.3364e-07
-1.50628e-08
-6.36894e-07
-2.18721e-08
-6.39429e-07
-2.86557e-08
-6.41267e-07
-3.54284e-08
-6.42432e-07
-4.22063e-08
-6.42948e-07
-4.90067e-08
-6.42843e-07
-6.42143e-07
-5.58486e-08
2.34619e-08
-6.17067e-07
-3.12924e-08
1.56772e-08
-6.21862e-07
7.91574e-09
-6.25878e-07
1.60968e-10
-6.29139e-07
-7.60473e-09
-6.31663e-07
-1.53994e-08
-6.33472e-07
-2.32433e-08
-6.34588e-07
-3.11592e-08
-6.35032e-07
-3.91724e-08
-6.34829e-07
-6.34004e-07
-4.73117e-08
4.08654e-08
-6.0849e-07
-4.94431e-08
3.22974e-08
-6.13294e-07
2.3723e-08
-6.17304e-07
1.5123e-08
-6.20539e-07
6.47759e-09
-6.23018e-07
-2.23408e-09
-6.24761e-07
-1.10338e-08
-6.25788e-07
-1.99442e-08
-6.26122e-07
-2.8989e-08
-6.25784e-07
-6.248e-07
-3.81927e-08
5.7053e-08
-5.99449e-07
-6.60936e-08
4.79279e-08
-6.04169e-07
3.87216e-08
-6.08098e-07
2.94289e-08
-6.11246e-07
2.00398e-08
-6.13629e-07
1.05414e-08
-6.15262e-07
9.19147e-10
-6.16166e-07
-8.84241e-09
-6.16361e-07
-1.87587e-08
-6.15868e-07
-6.14714e-07
-2.88449e-08
7.20187e-08
-5.9004e-07
-8.14279e-08
6.24434e-08
-5.94594e-07
5.27146e-08
-5.98369e-07
4.28359e-08
-6.01367e-07
3.28058e-08
-6.03599e-07
2.2618e-08
-6.05074e-07
1.22625e-08
-6.0581e-07
1.72643e-09
-6.05824e-07
-9.005e-09
-6.05137e-07
-6.0377e-07
-1.99485e-08
8.56734e-08
-5.80284e-07
-9.5429e-08
7.56985e-08
-5.84619e-07
6.55177e-08
-5.88188e-07
5.51385e-08
-5.90988e-07
4.45622e-08
-5.93022e-07
3.37849e-08
-5.94297e-07
2.27976e-08
-5.94823e-07
1.15874e-08
-5.94614e-07
1.38086e-10
-5.93687e-07
-5.92062e-07
-1.15697e-08
9.76673e-08
-5.70276e-07
-1.07676e-07
8.73916e-08
-5.74343e-07
7.68673e-08
-5.77664e-07
6.61059e-08
-5.80227e-07
5.51112e-08
-5.82028e-07
4.38814e-08
-5.83067e-07
3.24095e-08
-5.83351e-07
2.06847e-08
-5.8289e-07
8.69418e-09
-5.81697e-07
-5.79791e-07
-3.57682e-09
1.07747e-07
-5.60109e-07
-1.17913e-07
9.72813e-08
-5.63877e-07
8.65385e-08
-5.66921e-07
7.55314e-08
-5.6922e-07
6.42649e-08
-5.70761e-07
5.27368e-08
-5.71539e-07
4.09402e-08
-5.71555e-07
2.88643e-08
-5.70814e-07
1.64962e-08
-5.69329e-07
-5.67118e-07
3.82233e-09
1.15671e-07
-5.49897e-07
-1.25884e-07
1.05148e-07
-5.53354e-07
9.43354e-08
-5.56108e-07
8.32455e-08
-5.5813e-07
7.18808e-08
-5.59396e-07
6.02368e-08
-5.59895e-07
4.83032e-08
-5.59621e-07
3.6066e-08
-5.58576e-07
2.35087e-08
-5.56771e-07
-5.54223e-07
1.06139e-08
1.21241e-07
-5.3977e-07
-1.31368e-07
1.10814e-07
-5.42927e-07
1.00107e-07
-5.45401e-07
8.9126e-08
-5.47149e-07
7.78693e-08
-5.4814e-07
6.63272e-08
-5.48353e-07
5.44842e-08
-5.47778e-07
4.23208e-08
-5.46413e-07
2.98156e-08
-5.44266e-07
-5.41354e-07
1.69466e-08
1.24275e-07
-5.29891e-07
-1.34154e-07
1.14129e-07
-5.32782e-07
1.03731e-07
-5.35002e-07
9.30795e-08
-5.36497e-07
8.21663e-08
-5.37227e-07
7.09745e-08
-5.37161e-07
5.94814e-08
-5.36285e-07
4.76603e-08
-5.34592e-07
3.54824e-08
-5.32088e-07
-5.2879e-07
2.29185e-08
1.24659e-07
-5.20437e-07
-1.34113e-07
1.14997e-07
-5.2312e-07
1.05129e-07
-5.25135e-07
9.50477e-08
-5.26416e-07
8.47338e-08
-5.26913e-07
7.4162e-08
-5.26589e-07
6.33008e-08
-5.25424e-07
5.21149e-08
-5.23406e-07
4.05665e-08
-5.2054e-07
-5.16841e-07
2.86177e-08
1.22306e-07
-5.11615e-07
-1.31128e-07
1.13351e-07
-5.14164e-07
1.04252e-07
-5.16036e-07
9.49916e-08
-5.17155e-07
8.55405e-08
-5.17462e-07
7.58643e-08
-5.16913e-07
6.59226e-08
-5.15482e-07
5.56709e-08
-5.13154e-07
4.50617e-08
-5.09931e-07
-5.05826e-07
3.40465e-08
1.17198e-07
-5.03652e-07
-1.25161e-07
1.09181e-07
-5.06147e-07
1.01089e-07
-5.07945e-07
9.28954e-08
-5.08961e-07
8.45617e-08
-5.09128e-07
7.6045e-08
-5.08396e-07
6.72967e-08
-5.06734e-07
5.82638e-08
-5.04121e-07
4.88899e-08
-5.00557e-07
-4.96052e-07
3.91162e-08
1.09415e-07
-4.96766e-07
-1.16301e-07
1.02555e-07
-4.99287e-07
9.5691e-08
-5.01081e-07
8.87864e-08
-5.02056e-07
8.17964e-08
-5.02138e-07
7.46712e-08
-5.01271e-07
6.73556e-08
-4.99418e-07
5.97902e-08
-4.96556e-07
5.19122e-08
-4.92679e-07
-4.87795e-07
4.36554e-08
9.91547e-08
-4.91144e-07
-1.04777e-07
9.36368e-08
-4.93769e-07
8.81838e-08
-4.95628e-07
8.27506e-08
-4.96623e-07
7.72864e-08
-4.96674e-07
7.17361e-08
-4.95721e-07
6.60403e-08
-4.93722e-07
6.01362e-08
-4.90652e-07
5.39579e-08
-4.86501e-07
-4.81274e-07
4.74365e-08
8.67043e-08
-4.86932e-07
-9.09156e-08
8.26726e-08
-4.89737e-07
7.87714e-08
-4.91727e-07
7.49472e-08
-4.92798e-07
7.11427e-08
-4.92869e-07
6.72976e-08
-4.91876e-07
6.33492e-08
-4.89774e-07
5.92331e-08
-4.86536e-07
5.48833e-08
-4.82151e-07
-4.76623e-07
5.02323e-08
7.23954e-08
-4.84245e-07
-7.5083e-08
6.99635e-08
-4.87305e-07
6.77254e-08
-4.89489e-07
6.56169e-08
-4.9069e-07
6.35721e-08
-4.90824e-07
6.1524e-08
-4.89827e-07
5.94052e-08
-4.87655e-07
5.71487e-08
-4.84279e-07
5.46885e-08
-4.7969e-07
-4.73894e-07
5.19596e-08
5.65272e-08
-4.83197e-07
-5.75748e-08
5.58128e-08
-4.86591e-07
5.53542e-08
-4.8903e-07
5.50731e-08
-4.90409e-07
5.48912e-08
-4.90642e-07
5.47309e-08
-4.89667e-07
5.45163e-08
-4.8744e-07
5.41739e-08
-4.83937e-07
5.36342e-08
-4.79151e-07
-4.73092e-07
5.28318e-08
3.93198e-08
-4.83948e-07
-3.8569e-08
4.04856e-08
-4.87757e-07
4.19715e-08
-4.90516e-07
4.36819e-08
-4.92119e-07
4.55211e-08
-4.92481e-07
4.73947e-08
-4.91541e-07
4.92115e-08
-4.89257e-07
5.08851e-08
-4.8561e-07
5.23358e-08
-4.80601e-07
-4.74248e-07
5.34925e-08
2.08635e-08
-4.86729e-07
-1.80827e-08
2.41578e-08
-4.91051e-07
2.78503e-08
-4.94208e-07
3.1822e-08
-4.96091e-07
3.59521e-08
-4.96612e-07
4.01209e-08
-4.9571e-07
4.42121e-08
-4.93348e-07
4.81161e-08
-4.89514e-07
5.17333e-08
-4.84219e-07
-4.77492e-07
5.49768e-08
1.07408e-09
-4.91867e-07
4.06394e-09
6.86568e-09
-4.96842e-07
1.31684e-08
-5.00511e-07
1.98301e-08
-5.02752e-07
2.66927e-08
-5.03474e-07
3.35968e-08
-5.02614e-07
4.03863e-08
-5.00137e-07
4.69133e-08
-4.96041e-07
5.3043e-08
-4.90348e-07
-4.83106e-07
5.86574e-08
-2.03614e-08
-4.99807e-07
2.83013e-08
-1.15441e-08
-5.0566e-07
-2.0363e-09
-5.10019e-07
7.95873e-09
-5.12747e-07
1.82263e-08
-5.13742e-07
2.85474e-08
-5.12935e-07
3.87059e-08
-5.10296e-07
4.84956e-08
-5.05831e-07
5.7727e-08
-4.9958e-07
-4.91612e-07
6.62335e-08
-4.41087e-08
-5.11199e-07
5.55009e-08
-3.15009e-08
-5.18267e-07
-1.79312e-08
-5.23589e-07
-3.67836e-09
-5.27e-07
1.09617e-08
-5.28382e-07
2.56848e-08
-5.27658e-07
4.01886e-08
-5.248e-07
5.41831e-08
-5.19825e-07
6.74006e-08
-5.12797e-07
-5.03817e-07
7.96049e-08
-7.11585e-08
-5.27008e-07
8.69675e-08
-5.36756e-08
-5.3575e-07
-3.48613e-08
-5.42403e-07
-1.50954e-08
-5.46766e-07
5.21726e-09
-5.48694e-07
2.56584e-08
-5.48099e-07
4.58101e-08
-5.44951e-07
6.52682e-08
-5.39283e-07
8.36568e-08
-5.31186e-07
-5.20801e-07
1.00641e-07
-1.02478e-07
-5.48513e-07
1.23983e-07
-7.87215e-08
-5.59507e-07
-5.3171e-08
-5.67953e-07
-2.63349e-08
-5.73602e-07
1.24437e-09
-5.76274e-07
2.90058e-08
-5.7586e-07
5.63857e-08
-5.72331e-07
8.28352e-08
-5.65733e-07
1.07836e-07
-5.56187e-07
-5.43883e-07
1.30918e-07
-1.38512e-07
-5.7722e-07
1.6722e-07
-1.06878e-07
-5.91141e-07
-7.29315e-08
-6.019e-07
-3.73366e-08
-6.09197e-07
-7.9388e-10
-6.12816e-07
3.59788e-08
-6.12633e-07
7.22598e-08
-6.08612e-07
1.0734e-07
-6.00813e-07
1.40535e-07
-5.89382e-07
-5.74555e-07
1.71206e-07
-1.78564e-07
-6.14728e-07
2.16072e-07
-1.37485e-07
-6.3222e-07
-9.36347e-08
-6.4575e-07
-4.78438e-08
-6.54988e-07
-9.58097e-10
-6.59702e-07
4.61724e-08
-6.59763e-07
9.26966e-08
-6.55137e-07
1.37766e-07
-6.45882e-07
1.80539e-07
-6.32154e-07
-6.14206e-07
2.2019e-07
-2.19771e-07
-6.62242e-07
2.67285e-07
-1.68267e-07
-6.83724e-07
-1.13776e-07
-7.00241e-07
-5.72597e-08
-7.11504e-07
3.58095e-10
-7.1732e-07
5.8182e-08
-7.17587e-07
1.15321e-07
-7.12276e-07
1.70868e-07
-7.01429e-07
2.23874e-07
-6.8516e-07
-6.6367e-07
2.73338e-07
-2.56672e-07
-7.19785e-07
3.14215e-07
-1.95135e-07
-7.45261e-07
-1.3078e-07
-7.64596e-07
-6.46135e-08
-7.77671e-07
2.48334e-09
-7.84417e-07
6.9704e-08
-7.84808e-07
1.36254e-07
-7.78826e-07
2.01289e-07
-7.66463e-07
2.63851e-07
-7.47722e-07
-7.22637e-07
3.22818e-07
-2.82753e-07
-7.85712e-07
3.4868e-07
-2.13367e-07
-8.14647e-07
-1.41762e-07
-8.36202e-07
-6.88403e-08
-8.50592e-07
4.70394e-09
-8.57961e-07
7.82846e-08
-8.58389e-07
1.51332e-07
-8.51873e-07
2.23194e-07
-8.38325e-07
2.93038e-07
-8.17567e-07
-7.89308e-07
3.5971e-07
-2.93294e-07
-8.5668e-07
3.64262e-07
-2.19758e-07
-8.88183e-07
-1.44869e-07
-9.1109e-07
-6.93076e-08
-9.26154e-07
6.5309e-09
-9.338e-07
8.23531e-08
-9.34211e-07
1.57883e-07
-9.27403e-07
2.32754e-07
-9.13196e-07
3.06355e-07
-8.91169e-07
-8.60519e-07
3.77566e-07
-2.88236e-07
-9.28973e-07
3.60529e-07
-2.14569e-07
-9.6185e-07
-1.40472e-07
-9.85188e-07
-6.63423e-08
-1.00028e-06
7.73932e-09
-1.00788e-06
8.17962e-08
-1.00827e-06
1.55857e-07
-1.00146e-06
2.29862e-07
-9.87201e-07
3.03455e-07
-9.64761e-07
-9.32804e-07
3.75739e-07
-2.71377e-07
-1.00023e-06
3.42637e-07
-2.00646e-07
-1.03258e-06
-1.30546e-07
-1.05529e-06
-6.09771e-08
-1.06985e-06
8.3043e-09
-1.07716e-06
7.7587e-08
-1.07755e-06
1.47161e-07
-1.07104e-06
2.17271e-07
-1.05731e-06
2.87987e-07
-1.03548e-06
-1.00396e-06
3.59142e-07
-2.46553e-07
-1.06877e-06
3.15089e-07
-1.81372e-07
-1.09776e-06
-1.17564e-07
-1.1191e-06
-5.44832e-08
-1.13293e-06
8.22626e-09
-1.13987e-06
7.09574e-08
-1.14028e-06
1.34106e-07
-1.13419e-06
1.98047e-07
-1.12125e-06
2.63369e-07
-1.1008e-06
-1.07238e-06
3.31789e-07
-2.18592e-07
-1.12919e-06
2.79017e-07
-1.60363e-07
-1.15599e-06
-1.03545e-07
-1.17591e-06
-4.76537e-08
-1.18882e-06
7.74193e-09
-1.19527e-06
6.3147e-08
-1.19569e-06
1.19074e-07
-1.19011e-06
1.75969e-07
-1.17815e-06
2.34353e-07
-1.15918e-06
-1.13332e-06
2.95295e-07
-1.86832e-07
-1.17958e-06
2.37218e-07
-1.36535e-07
-1.20629e-06
-8.76525e-08
-1.2248e-06
-3.99594e-08
-1.23652e-06
7.09117e-09
-1.24232e-06
5.41514e-08
-1.24275e-06
1.01882e-07
-1.23785e-06
1.50844e-07
-1.22711e-06
2.01246e-07
-1.20958e-06
-1.18406e-06
2.51981e-07
-1.54349e-07
-1.22467e-06
1.99441e-07
-1.11321e-07
-1.24931e-06
-7.08475e-08
-1.26527e-06
-3.19455e-08
-1.27542e-06
6.17839e-09
-1.28044e-06
4.42831e-08
-1.28085e-06
8.31354e-08
-1.2767e-06
1.23538e-07
-1.26751e-06
1.6646e-07
-1.25251e-06
-1.22899e-06
2.114e-07
-1.23298e-07
-1.26423e-06
1.62857e-07
-8.77609e-08
-1.28485e-06
-5.5259e-08
-1.29777e-06
-2.46215e-08
-1.30606e-06
5.10558e-09
-1.31017e-06
3.47824e-08
-1.31053e-06
6.52767e-08
-1.30719e-06
9.75534e-08
-1.29979e-06
1.32793e-07
-1.28775e-06
-1.26824e-06
1.72041e-07
-9.35835e-08
-1.29657e-06
1.25921e-07
-6.57864e-08
-1.31265e-06
-4.09833e-08
-1.32258e-06
-1.80362e-08
-1.329e-06
3.99749e-09
-1.3322e-06
2.5963e-08
-1.33249e-06
4.87106e-08
-1.32994e-06
7.31965e-08
-1.32427e-06
1.00591e-07
-1.31514e-06
-1.30019e-06
1.32539e-07
-6.52289e-08
-1.32081e-06
8.94696e-08
-4.52264e-08
-1.33265e-06
-2.78123e-08
-1.33999e-06
-1.20303e-08
-1.34479e-06
2.93742e-09
-1.34717e-06
1.78243e-08
-1.34738e-06
3.33626e-08
-1.34548e-06
5.037e-08
-1.34128e-06
6.98112e-08
-1.33458e-06
-1.32366e-06
9.32824e-08
-3.82726e-08
-1.33628e-06
5.37442e-08
-2.59755e-08
-1.34495e-06
-1.55893e-08
-1.35038e-06
-6.45382e-09
-1.35392e-06
2.05034e-09
-1.35568e-06
1.04799e-08
-1.35581e-06
1.93836e-08
-1.35438e-06
2.93666e-08
-1.35126e-06
4.10892e-08
-1.34631e-06
-1.33831e-06
5.57329e-08
-1.42409e-08
-1.34394e-06
2.1898e-08
-8.80392e-09
-1.35039e-06
-4.70094e-09
-1.35448e-06
-1.4545e-09
-1.35717e-06
1.36885e-09
-1.3585e-06
4.1357e-09
-1.35858e-06
7.20058e-09
-1.35745e-06
1.09711e-08
-1.35503e-06
1.59112e-08
-1.35125e-06
-1.34522e-06
2.28236e-08
5.84957e-09
-1.34513e-06
-4.65838e-09
5.56093e-09
-1.3501e-06
4.41702e-09
-1.35333e-06
2.76949e-09
-1.35552e-06
8.90237e-10
-1.35662e-06
-1.02441e-09
-1.35666e-06
-2.7878e-09
-1.35568e-06
-4.15212e-09
-1.35367e-06
-4.77799e-09
-1.35062e-06
-1.34591e-06
-4.08558e-09
2.15921e-08
-1.34135e-06
-2.53668e-08
1.68434e-08
-1.34535e-06
1.15997e-08
-1.34809e-06
6.12704e-09
-1.35005e-06
5.76687e-10
-1.35107e-06
-4.9953e-09
-1.35109e-06
-1.05378e-08
-1.35014e-06
-1.59132e-08
-1.34829e-06
-2.08619e-08
-1.34567e-06
-1.34185e-06
-2.49228e-08
3.33938e-08
-1.33394e-06
-4.08126e-08
2.53204e-08
-1.33727e-06
1.70016e-08
-1.33977e-06
8.66792e-09
-1.34171e-06
3.89348e-10
-1.34279e-06
-7.90473e-09
-1.3428e-06
-1.62844e-08
-1.34176e-06
-2.46836e-08
-1.3399e-06
-3.28734e-08
-1.33748e-06
-1.33427e-06
-4.04536e-08
4.20522e-08
-1.32383e-06
-5.21579e-08
3.15084e-08
-1.32673e-06
2.0908e-08
-1.32917e-06
1.04935e-08
-1.3313e-06
2.84107e-10
-1.33258e-06
-9.94043e-09
-1.33257e-06
-2.03927e-08
-1.33131e-06
-3.10495e-08
-1.32924e-06
-4.16671e-08
-1.32686e-06
-1.32407e-06
-5.18694e-08
4.83545e-08
-1.31167e-06
-6.05157e-08
3.59062e-08
-1.31428e-06
2.35806e-08
-1.31685e-06
1.16909e-08
-1.31941e-06
2.28773e-10
-1.32112e-06
-1.12515e-08
-1.32109e-06
-2.31767e-08
-1.31938e-06
-3.55434e-08
-1.31687e-06
-4.80376e-08
-1.31437e-06
-1.31185e-06
-6.02537e-08
5.27729e-08
-1.29784e-06
-6.65982e-08
3.87738e-08
-1.30028e-06
2.51281e-08
-1.3032e-06
1.22845e-08
-1.30657e-06
2.05522e-10
-1.30904e-06
-1.18977e-08
-1.30899e-06
-2.47756e-08
-1.30651e-06
-3.84419e-08
-1.30321e-06
-5.24521e-08
-1.30036e-06
-1.29801e-06
-6.6289e-08
5.54142e-08
-1.2825e-06
-7.07558e-08
4.00684e-08
-1.28494e-06
2.55074e-08
-1.28864e-06
1.22972e-08
-1.29336e-06
2.08433e-10
-1.29695e-06
-1.19133e-08
-1.29687e-06
-2.51647e-08
-1.29325e-06
-3.97203e-08
-1.28865e-06
-5.5024e-08
-1.28506e-06
-1.28272e-06
-7.03146e-08
5.59801e-08
-1.26553e-06
-7.29516e-08
3.94476e-08
-1.2684e-06
2.46727e-08
-1.27386e-06
1.19725e-08
-1.28066e-06
2.31924e-10
-1.28521e-06
-1.15362e-08
-1.2851e-06
-2.43048e-08
-1.28049e-06
-3.90668e-08
-1.27389e-06
-5.54863e-08
-1.26864e-06
-1.2659e-06
-7.23121e-08
5.38404e-08
-1.24628e-06
-7.30915e-08
3.63449e-08
-1.25091e-06
2.2815e-08
-1.26033e-06
1.19048e-08
-1.26975e-06
2.59978e-10
-1.27357e-06
-1.13573e-08
-1.27348e-06
-2.23678e-08
-1.26947e-06
-3.5946e-08
-1.26031e-06
-5.32646e-08
-1.25132e-06
-1.24694e-06
-7.22204e-08
4.75753e-08
-1.22256e-06
-7.12959e-08
2.99648e-08
-1.2333e-06
2.0598e-08
-1.25097e-06
1.24608e-08
-1.26161e-06
2.86419e-10
-1.26139e-06
-1.17861e-08
-1.26141e-06
-1.99754e-08
-1.26129e-06
-2.95568e-08
-1.25073e-06
-4.70194e-08
-1.23385e-06
-1.22375e-06
-7.02121e-08
3.32633e-08
-1.18777e-06
-6.8051e-08