/*--------------------------------*- C++ -*----------------------------------*\
  =========                 |
  \\      /  F ield         | OpenFOAM: The Open Source CFD Toolbox
   \\    /   O peration     | Website:  https://openfoam.org
    \\  /    A nd           | Version:  8
     \\/     M anipulation  |
\*---------------------------------------------------------------------------*/
FoamFile
{
    version     2.0;
    format      ascii;
    class       surfaceScalarField;
    location    "9.65";
    object      phi;
}
// * * * * * * * * * * * * * * * * * * * * * * * * * * * * * * * * * * * * * //

dimensions      [0 3 -1 0 0 0 0];

internalField   nonuniform List<scalar> 
18095
(
1.97793e-08
-1.71934e-07
1.52155e-07
2.3465e-08
-1.97648e-07
1.93962e-07
2.09569e-08
-2.0609e-07
2.08598e-07
1.33016e-08
-2.1166e-07
2.19315e-07
2.74509e-09
-2.13794e-07
2.2435e-07
-8.34467e-09
-2.13406e-07
2.24495e-07
-1.83287e-08
-2.10342e-07
2.20326e-07
-2.32011e-08
-2.05346e-07
2.10219e-07
-1.99474e-08
-1.97583e-07
1.9433e-07
-1.722e-07
1.52253e-07
1.56182e-08
-1.87553e-07
1.60951e-08
-1.98125e-07
1.18651e-08
-2.0186e-07
5.50897e-09
-2.05303e-07
-1.01702e-09
-2.07267e-07
-7.53591e-09
-2.06886e-07
-1.30055e-08
-2.04872e-07
-1.61288e-08
-2.02222e-07
-1.54534e-08
-1.98259e-07
-1.87653e-07
6.83468e-09
-1.94387e-07
8.46486e-09
-1.99755e-07
7.56922e-09
-2.00963e-07
4.30014e-09
-2.02034e-07
-3.70745e-10
-2.02596e-07
-4.46029e-09
-2.02796e-07
-6.99386e-09
-2.02338e-07
-8.27231e-09
-2.00944e-07
-6.76242e-09
-1.99769e-07
-1.94416e-07
4.53648e-09
-1.98923e-07
4.73952e-09
-1.99958e-07
3.71656e-09
-1.9994e-07
2.12291e-09
-2.0044e-07
4.23735e-10
-2.00897e-07
-1.58484e-09
-2.00788e-07
-3.60453e-09
-2.00318e-07
-4.68262e-09
-1.99866e-07
-4.51015e-09
-1.99942e-07
-1.98926e-07
1.0766e-09
1.11902e-09
1.17855e-09
7.38155e-10
-1.59366e-10
-9.47486e-10
-1.2659e-09
-1.13189e-09
-1.07366e-09
-2.97669e-08
-1.97618e-07
2.27385e-07
-3.36367e-08
-1.9939e-07
2.0326e-07
-2.87041e-08
-2.02119e-07
1.97186e-07
-1.70897e-08
-2.02265e-07
1.9065e-07
-1.71114e-09
-2.03269e-07
1.8789e-07
1.08092e-08
-2.01219e-07
1.887e-07
2.13665e-08
-2.00762e-07
1.90205e-07
2.82738e-08
-2.01128e-07
1.9422e-07
2.62675e-08
-1.97895e-07
1.99902e-07
-1.94331e-07
2.20599e-07
-1.01006e-08
-1.87517e-07
-1.47948e-08
-1.94696e-07
-1.24127e-08
-2.04501e-07
-5.718e-09
-2.0896e-07
-2.64954e-10
-2.08722e-07
7.22738e-09
-2.08712e-07
1.40476e-08
-2.07582e-07
1.44123e-08
-2.01492e-07
8.8161e-09
-1.92298e-07
-1.85516e-07
-1.06026e-08
-1.76915e-07
-1.11986e-08
-1.941e-07
-1.04916e-08
-2.05209e-07
-8.9418e-09
-2.1051e-07
-5.13072e-09
-2.12533e-07
-1.31645e-09
-2.12526e-07
1.74414e-09
-2.10643e-07
5.85091e-09
-2.05599e-07
9.27565e-09
-1.95723e-07
-1.7624e-07
-6.35027e-09
-1.70565e-07
-5.90407e-09
-1.94547e-07
-5.52348e-09
-2.0559e-07
-7.64877e-10
-2.15269e-07
3.47554e-09
-2.16773e-07
8.04669e-09
-2.17097e-07
1.21408e-08
-2.14737e-07
1.02803e-08
-2.03739e-07
6.91153e-09
-1.92354e-07
-1.69329e-07
-1.84102e-08
-1.89954e-08
-1.59879e-08
-1.19417e-08
-4.36537e-09
3.03208e-09
8.62014e-09
1.51e-08
1.70761e-08
1.0707e-08
-1.83133e-07
1.72426e-07
3.05186e-09
-2.17683e-07
2.25338e-07
-8.00794e-09
-2.21554e-07
2.32612e-07
-2.20951e-08
-2.22843e-07
2.36931e-07
-3.46525e-08
-2.22255e-07
2.34814e-07
-5.32035e-08
-2.18736e-07
2.37289e-07
-7.80269e-08
-2.10188e-07
2.35013e-07
-1.00857e-07
-1.99838e-07
2.22668e-07
-9.97961e-08
-1.78324e-07
1.77264e-07
-1.25447e-07
2.56481e-08
3.82708e-09
-1.8696e-07
-6.21273e-10
-2.13235e-07
-7.6079e-09
-2.14567e-07
-1.85632e-08
-2.11886e-07
-3.02703e-08
-2.10549e-07
-4.01053e-08
-2.08902e-07
-4.3389e-08
-2.06905e-07
-4.31157e-08
-2.00111e-07
-3.2748e-08
-1.88692e-07
-1.58194e-07
2.86052e-09
-1.89821e-07
-1.28238e-09
-2.09093e-07
-5.00934e-09
-2.1084e-07
-9.42391e-09
-2.0747e-07
-1.38042e-08
-2.06168e-07
-1.97678e-08
-2.02939e-07
-2.32007e-08
-2.03472e-07
-2.18372e-08
-2.01473e-07
-1.78217e-08
-1.92708e-07
-1.76016e-07
4.39536e-09
-1.94216e-07
-2.68736e-09
-2.0201e-07
-3.09566e-09
-2.1043e-07
-8.29048e-09
-2.02275e-07
-1.0777e-08
-2.03683e-07
-1.27151e-08
-2.01002e-07
-1.69442e-08
-1.99243e-07
-1.49583e-08
-2.03459e-07
-1.09259e-08
-1.9674e-07
-1.86942e-07
3.31704e-08
3.44215e-08
2.11787e-08
9.55446e-09
-6.23853e-09
-1.85416e-08
-2.75786e-08
-3.68174e-08
-3.36566e-08
6.76794e-09
9.91877e-09
-1.66867e-08
-1.60154e-09
8.36994e-09
-8.63943e-09
7.03805e-09
-1.3447e-08
4.80771e-09
-1.70556e-08
3.60879e-09
-1.91197e-08
2.06429e-09
-2.29319e-08
3.81243e-09
-3.02027e-08
7.271e-09
-3.8464e-08
8.2615e-09
4.97163e-09
-4.34355e-08
1.27876e-08
2.07193e-08
-2.35879e-08
-5.9231e-10
2.17504e-08
-1.13343e-08
1.77803e-08
-1.93256e-08
1.27992e-08
-2.4307e-08
8.59035e-09
-2.90545e-08
6.81198e-09
-3.37408e-08
8.49889e-09
-3.79401e-08
1.14705e-08
-3.91438e-08
9.46539e-09
4.4295e-09
-3.86014e-08
2.61974e-08
2.71867e-08
-3.26646e-08
1.6806e-08
3.11425e-08
3.16178e-09
3.14247e-08
-8.49925e-09
2.44606e-08
-1.6414e-08
1.65054e-08
-2.21795e-08
1.25778e-08
-2.68947e-08
1.32144e-08
-2.5914e-08
1.049e-08
-1.93521e-08
2.90382e-09
-3.87359e-09
-1.10488e-08
3.82118e-08
3.14353e-08
-4.24603e-08
3.79816e-08
3.13733e-08
3.635e-08
3.30565e-08
2.89047e-08
3.19061e-08
1.82453e-08
2.7165e-08
8.75801e-09
2.20653e-08
3.4173e-09
1.85553e-08
3.51972e-09
1.03878e-08
8.36122e-09
-1.93748e-09
-9.10153e-09
1.35894e-08
4.55563e-08
3.46072e-08
-4.87279e-08
4.54707e-08
3.14594e-08
4.68735e-08
3.16539e-08
4.85759e-08
3.02039e-08
4.56105e-08
3.01307e-08
3.8752e-08
2.8924e-08
3.33775e-08
2.39299e-08
3.02936e-08
1.34719e-08
2.76714e-08
6.84995e-10
-8.05288e-09
2.66229e-08
5.70323e-08
3.40303e-08
-5.64552e-08
5.60964e-08
3.23957e-08
5.50736e-08
3.26769e-08
5.35764e-08
3.17013e-08
5.25947e-08
3.11126e-08
5.20861e-08
2.94327e-08
5.27575e-08
2.32587e-08
5.09848e-08
1.52448e-08
4.71815e-08
4.48842e-09
-4.68939e-09
4.38182e-08
7.06715e-08
3.24181e-08
-6.90592e-08
6.6057e-08
3.70104e-08
6.14477e-08
3.72863e-08
5.88476e-08
3.43016e-08
5.79625e-08
3.19978e-08
5.71636e-08
3.02317e-08
5.79199e-08
2.25026e-08
5.81046e-08
1.50602e-08
5.66399e-08
5.9532e-09
-1.87155e-09
5.38221e-08
7.05719e-08
3.41192e-08
-7.2273e-08
6.8416e-08
3.91665e-08
6.59303e-08
3.9772e-08
6.41519e-08
3.60801e-08
6.41634e-08
3.19864e-08
6.56037e-08
2.87914e-08
6.48613e-08
2.3245e-08
6.49645e-08
1.49571e-08
6.28824e-08
8.03537e-09
2.50286e-09
5.8508e-08
6.05521e-08
3.31623e-08
-5.95952e-08
6.22186e-08
3.75002e-08
6.43183e-08
3.76724e-08
6.68472e-08
3.35513e-08
6.96365e-08
2.91972e-08
7.17834e-08
2.66446e-08
7.38163e-08
2.12121e-08
7.47538e-08
1.40196e-08
7.3189e-08
9.60015e-09
7.24873e-09
6.84432e-08
4.59921e-08
2.69696e-08
-3.97993e-08
5.2769e-08
3.07236e-08
6.02265e-08
3.02149e-08
6.91499e-08
2.46279e-08
7.64814e-08
2.18658e-08
8.23779e-08
2.0748e-08
8.52686e-08
1.83214e-08
8.46996e-08
1.45887e-08
8.08026e-08
1.34972e-08
1.69402e-08
7.11111e-08
4.91033e-08
1.84853e-08
-4.06189e-08
6.0209e-08
1.96182e-08
7.22778e-08
1.81462e-08
8.07548e-08
1.6151e-08
8.32736e-08
1.93471e-08
8.27882e-08
2.12334e-08
7.99121e-08
2.11976e-08
7.53946e-08
1.91063e-08
6.81526e-08
2.07392e-08
3.0175e-08
5.49179e-08
3.23488e-08
1.76976e-08
-3.15609e-08
3.58268e-08
1.61407e-08
4.22597e-08
1.17135e-08
4.361e-08
1.48009e-08
4.55576e-08
1.73996e-08
4.98391e-08
1.6952e-08
5.55013e-08
1.55356e-08
5.58411e-08
1.87666e-08
5.02134e-08
2.6367e-08
3.68506e-08
4.35379e-08
-2.39201e-08
1.14186e-08
3.01992e-08
-9.72601e-09
1.94699e-09
1.35878e-09
6.28909e-10
1.42484e-08
1.91138e-09
2.90703e-08
2.5779e-09
4.05765e-08
5.44597e-09
4.69264e-08
9.18584e-09
4.7884e-08
1.78092e-08
4.33752e-08
3.0876e-08
4.14579e-08
3.87681e-08
-2.65999e-08
-5.34555e-09
4.33642e-08
-1.35681e-08
-1.10846e-08
-2.01558e-09
-1.09235e-08
8.76936e-09
-8.87341e-09
1.71236e-08
-5.77624e-09
2.21526e-08
4.17146e-10
2.34318e-08
7.90675e-09
2.32913e-08
1.79499e-08
2.30308e-08
3.11366e-08
4.38192e-08
2.06697e-08
-2.34459e-08
-1.23975e-08
3.0498e-08
-2.09345e-08
-1.35958e-08
-1.82513e-08
-1.36066e-08
-1.52605e-08
-1.18642e-08
-1.61419e-08
-4.89466e-09
-1.99543e-08
4.22959e-09
-2.3747e-08
1.16996e-08
-2.5547e-08
1.97501e-08
-2.6722e-08
3.23118e-08
4.72882e-08
-3.01909e-08
-3.94412e-08
-7.47878e-09
3.45226e-08
-4.23865e-08
-1.06506e-08
-4.30828e-08
-1.29103e-08
-4.5278e-08
-9.66895e-09
-5.45726e-08
4.39999e-09
-6.42791e-08
1.39361e-08
-7.00093e-08
1.743e-08
-7.15667e-08
2.13076e-08
-7.20602e-08
3.28054e-08
4.86699e-08
-7.34418e-08
-5.06375e-08
7.67421e-09
3.54845e-08
-5.90537e-08
-2.23451e-09
-6.31216e-08
-8.84238e-09
-6.88652e-08
-3.92539e-09
-8.02138e-08
1.57486e-08
-8.99205e-08
2.36429e-08
-9.62693e-08
2.37788e-08
-9.99397e-08
2.49781e-08
-1.00852e-07
3.37183e-08
4.66575e-08
-9.88399e-08
-6.02906e-08
3.02199e-08
3.77448e-08
-7.77881e-08
1.52628e-08
-8.68996e-08
2.69127e-10
-9.32445e-08
2.41942e-09
-9.54532e-08
1.79573e-08
-9.85895e-08
2.67793e-08
-1.04027e-07
2.92165e-08
-1.0949e-07
3.04409e-08
-1.10894e-07
3.51226e-08
4.43354e-08
-1.08572e-07
-5.34013e-08
3.83673e-08
4.52539e-08
-6.95771e-08
3.14385e-08
-8.50644e-08
1.57564e-08
-9.48152e-08
1.21703e-08
-9.54032e-08
1.85453e-08
-9.58784e-08
2.72546e-08
-9.86408e-08
3.19789e-08
-1.02658e-07
3.44579e-08
-1.05065e-07
3.75304e-08
4.26822e-08
-1.03412e-07
-4.82235e-08
4.1826e-08
4.47647e-08
-5.99121e-08
4.3127e-08
-7.61896e-08
3.2034e-08
-8.81092e-08
2.40899e-08
-9.1791e-08
2.22273e-08
-8.89459e-08
2.44097e-08
-8.78055e-08
3.08387e-08
-8.75043e-08
3.41569e-08
-8.50356e-08
3.50619e-08
3.67797e-08
-7.91328e-08
-3.51593e-08
4.08797e-08
3.61056e-08
-4.46052e-08
5.25732e-08
-5.56779e-08
4.31069e-08
-5.90015e-08
2.74138e-08
-5.97014e-08
2.29274e-08
-5.84052e-08
2.31138e-08
-5.43447e-08
2.67785e-08
-4.99231e-08
2.97356e-08
-4.47394e-08
2.98786e-08
3.0208e-08
-3.81673e-08
-2.23048e-08
3.60528e-08
2.71318e-08
-1.52733e-08
4.55424e-08
-1.29271e-08
4.0761e-08
-1.17039e-08
2.61909e-08
-7.5184e-09
1.87423e-08
-2.21505e-09
1.78108e-08
2.3961e-09
2.21678e-08
7.33412e-09
2.47979e-08
1.19549e-08
2.52582e-08
2.69186e-08
1.52447e-08
-2.40776e-08
2.53088e-08
3.48218e-08
-5.88243e-09
2.73484e-08
1.17592e-08
2.31199e-08
2.35517e-08
1.4399e-08
3.34247e-08
8.86977e-09
4.03078e-08
1.09282e-08
4.07966e-08
2.16794e-08
3.82223e-08
2.73727e-08
3.72888e-08
2.61922e-08
2.86717e-08
3.55362e-08
-3.27027e-08
9.43936e-09
4.85726e-08
-7.04957e-09
1.69684e-09
1.73843e-08
-1.31342e-09
3.52797e-08
-3.4958e-09
4.84113e-08
-4.26122e-09
5.78139e-08
1.52604e-09
5.44428e-08
2.50511e-08
4.40249e-08
3.77912e-08
3.47726e-08
3.5445e-08
4.17274e-08
2.17172e-08
-2.88092e-08
-6.45708e-09
4.47061e-08
-1.09137e-08
-1.61968e-08
7.01908e-09
-1.92455e-08
2.20089e-08
-1.84849e-08
3.22861e-08
-1.45379e-08
3.70645e-08
-3.25173e-09
3.72356e-08
2.48805e-08
2.39236e-08
5.11038e-08
2.36422e-09
5.70049e-08
6.15537e-08
-1.74616e-08
-7.15505e-08
-1.41242e-08
7.92182e-08
-6.47578e-08
-2.29874e-08
-5.40971e-08
-2.99055e-08
-4.22691e-08
-3.03122e-08
-3.15083e-08
-2.5298e-08
-2.72901e-08
-7.46942e-09
-2.93882e-08
2.69792e-08
-3.77991e-08
5.95152e-08
-4.90469e-08
6.82531e-08
6.49126e-08
-5.24053e-08
-1.3041e-07
-1.69714e-08
1.33258e-07
-1.23693e-07
-2.97032e-08
-1.17686e-07
-3.59116e-08
-1.11436e-07
-3.65616e-08
-1.05336e-07
-3.13971e-08
-1.03035e-07
-9.77045e-09
-1.07341e-07
3.12855e-08
-1.04779e-07
5.69538e-08
-9.89474e-08
6.2422e-08
5.83869e-08
-9.24213e-08
-1.99228e-07
-8.8163e-09
1.91074e-07
-2.01807e-07
-2.71233e-08
-2.02761e-07
-3.49567e-08
-2.00887e-07
-3.84354e-08
-1.94424e-07
-3.78593e-08
-1.83091e-07
-2.11032e-08
-1.66433e-07
1.46274e-08
-1.46972e-07
3.7493e-08
-1.2949e-07
4.49399e-08
4.08448e-08
-1.11947e-07
-2.31921e-07
-3.59645e-10
2.23465e-07
-2.39786e-07
-1.9258e-08
-2.43313e-07
-3.14292e-08
-2.43432e-07
-3.83156e-08
-2.40781e-07
-4.05102e-08
-2.26044e-07
-3.58406e-08
-1.90305e-07
-2.11118e-08
-1.57361e-07
4.54972e-09
-1.31304e-07
1.88823e-08
1.09046e-08
-1.01364e-07
-2.1369e-07
4.86916e-09
2.08462e-07
-2.14177e-07
-1.87712e-08
-2.10418e-07
-3.5188e-08
-2.05012e-07
-4.37218e-08
-1.99471e-07
-4.60516e-08
-1.89806e-07
-4.55056e-08
-1.7539e-07
-3.5528e-08
-1.48751e-07
-2.20892e-08
-1.07625e-07
-2.22444e-08
-1.70477e-08
-7.96727e-08
-1.32968e-07
-2.8079e-09
1.40645e-07
-1.1944e-07
-3.22998e-08
-1.00756e-07
-5.38729e-08
-8.32793e-08
-6.11985e-08
-6.55342e-08
-6.37971e-08
-4.55368e-08
-6.55033e-08
-2.28366e-08
-5.82286e-08
-1.30574e-08
-3.18687e-08
-1.9041e-08
-1.62612e-08
-1.94206e-08
-1.66685e-08
-7.15657e-08
-7.25517e-09
7.60127e-08
-6.46615e-08
-3.92055e-08
-5.90775e-08
-5.94574e-08
-5.12175e-08
-6.9059e-08
-3.71448e-08
-7.78703e-08
-1.71458e-08
-8.55028e-08
1.17342e-08
-8.71089e-08
3.60628e-08
-5.61977e-08
3.94347e-08
-1.96334e-08
-2.4159e-08
4.41727e-08
2.97047e-09
-8.67474e-09
-1.5514e-09
-2.44685e-09
-3.37898e-08
-9.92175e-09
-5.19832e-08
-1.70155e-08
-6.19658e-08
-2.15886e-08
-7.32977e-08
-2.04846e-08
-8.66074e-08
-1.45293e-08
-9.30647e-08
7.20597e-09
-7.79335e-08
2.78114e-08
-4.02394e-08
-4.08748e-08
4.45267e-08
9.0716e-08
-1.20486e-08
-8.73426e-08
8.16551e-08
-2.47303e-08
7.89748e-08
-4.93034e-08
7.34303e-08
-5.64217e-08
5.96143e-08
-5.94821e-08
4.02543e-08
-6.72477e-08
2.17946e-08
-7.46053e-08
1.76602e-08
-7.37994e-08
2.71632e-08
-4.97427e-08
-5.59891e-08
4.22773e-08
1.54377e-07
-1.34191e-08
-1.53007e-07
1.51694e-07
-2.20485e-08
1.40374e-07
-3.79835e-08
1.30067e-07
-4.61152e-08
1.22498e-07
-5.19143e-08
1.14604e-07
-5.93539e-08
1.01584e-07
-6.1586e-08
8.59351e-08
-5.81505e-08
8.35633e-08
-4.73712e-08
-5.29473e-08
8.05212e-08
1.94389e-07
-6.94603e-09
-2.00862e-07
1.85401e-07
-1.30606e-08
1.71309e-07
-2.38913e-08
1.66172e-07
-4.09791e-08
1.67265e-07
-5.30073e-08
1.6806e-07
-6.0149e-08
1.66908e-07
-6.0434e-08
1.60372e-07
-5.16145e-08
1.47038e-07
-3.40369e-08
-3.29622e-08
1.27053e-07
1.89309e-07
4.22796e-09
-2.00483e-07
1.79867e-07
-3.61875e-09
1.77084e-07
-2.11075e-08
1.82412e-07
-4.63068e-08
1.92092e-07
-6.26879e-08
1.94986e-07
-6.30434e-08
1.94656e-07
-6.01034e-08
1.70992e-07
-2.79505e-08
1.43499e-07
-6.54471e-09
-2.96371e-08
1.40174e-07
1.75474e-07
1.89608e-08
-1.90206e-07
1.69445e-07
2.41054e-09
1.79326e-07
-3.09883e-08
1.94116e-07
-6.10959e-08
1.90697e-07
-5.92693e-08
1.68954e-07
-4.13e-08
1.28607e-07
-1.97565e-08
1.00598e-07
5.91519e-11
1.02082e-07
-8.02952e-09
-4.3721e-08
1.16166e-07
2.10717e-07
7.5356e-09
-1.99292e-07
2.08047e-07
5.0818e-09
1.84996e-07
-7.9376e-09
1.53737e-07
-2.98366e-08
1.10181e-07
-1.57136e-08
7.26314e-08
-3.75003e-09
6.53574e-08
-1.24824e-08
8.32263e-08
-1.78097e-08
1.05449e-07
-3.02522e-08
-4.42247e-08
1.05953e-07
1.89303e-07
5.29014e-09
-1.87057e-07
1.8789e-07
6.4948e-09
1.68478e-07
1.14746e-08
1.24249e-07
1.43918e-08
8.04838e-08
2.80519e-08
5.59541e-08
2.07797e-08
5.8992e-08
-1.55202e-08
8.49837e-08
-4.38012e-08
1.01932e-07
-4.72004e-08
-3.40819e-08
9.17893e-08
1.16207e-07
-5.59946e-10
-1.10357e-07
1.25675e-07
-2.97323e-09
1.32083e-07
5.06595e-09
1.24714e-07
2.1761e-08
1.07882e-07
4.48835e-08
8.54847e-08
4.31768e-08
6.95573e-08
4.07144e-10
6.53119e-08
-3.95558e-08
5.15838e-08
-3.34722e-08
9.32345e-09
8.17865e-09
1.30196e-07
-1.52233e-08
-1.15533e-07
1.46188e-07
-1.89658e-08
1.5522e-07
-3.96588e-09
1.23331e-07
5.36501e-08
1.03194e-07
6.50207e-08
8.77649e-08
5.8606e-08
7.29196e-08
1.52526e-08
6.44371e-08
-3.10731e-08
5.29514e-08
-2.19863e-08
3.43802e-08
2.7895e-08
1.08581e-07
-1.53785e-08
-1.08427e-07
1.02268e-07
-1.26529e-08
9.01817e-08
8.12059e-09
8.94311e-08
5.44011e-08
8.70556e-08
6.73967e-08
8.11016e-08
6.45605e-08
7.23865e-08
2.39681e-08
5.80892e-08
-1.67754e-08
4.60381e-08
-9.93476e-09
2.08008e-08
5.96177e-08
6.27411e-08
-8.15306e-09
-6.99665e-08
5.13822e-08
-1.29341e-09
4.94843e-08
1.0019e-08
7.4101e-08
2.97849e-08
1.075e-07
3.39978e-08
1.42745e-07
2.93162e-08
1.56588e-07
1.01254e-08
1.48115e-07
-8.30174e-09
1.514e-07
-1.32193e-08
1.14142e-08
1.60787e-07
1.49288e-08
-1.80261e-08
-5.05527e-09
2.78826e-08
-1.42455e-08
4.98004e-08
-1.18981e-08
8.52316e-08
-5.64562e-09
1.19914e-07
-6.83557e-10
1.57113e-07
-7.88287e-09
1.80901e-07
-1.36618e-08
1.87385e-07
-1.47847e-08
1.831e-07
-8.93492e-09
2.50811e-08
1.69434e-07
6.79962e-09
-4.51317e-08
2.03064e-08
4.12576e-08
-4.87026e-08
7.3089e-08
-4.37292e-08
1.03372e-07
-3.59286e-08
1.3225e-07
-2.95606e-08
1.53341e-07
-2.89738e-08
1.64663e-07
-2.49837e-08
1.64417e-07
-1.45382e-08
1.53945e-07
1.53742e-09
4.014e-08
1.38886e-07
-7.14293e-09
-5.99128e-08
2.19243e-08
5.98394e-09
-6.18298e-08
2.22985e-08
-6.00439e-08
4.12941e-08
-5.49241e-08
6.11045e-08
-4.93708e-08
7.46653e-08
-4.25344e-08
8.19365e-08
-3.22546e-08
8.28287e-08
-1.54301e-08
7.89743e-08
5.39224e-09
3.86375e-08
8.04772e-08
-2.45433e-08
-7.49377e-08
3.95679e-08
-9.89729e-09
-7.64777e-08
4.89977e-09
-7.48416e-08
1.99501e-08
-6.99749e-08
3.06086e-08
-6.00296e-08
3.43517e-08
-4.62774e-08
3.28572e-08
-3.07598e-08
3.12265e-08
-1.37989e-08
2.78451e-08
8.77418e-09
4.15958e-08
2.48871e-08
-2.23281e-08
-8.54276e-08
3.28172e-08
-1.29495e-08
-8.58582e-08
-7.25951e-09
-8.05323e-08
-7.01936e-09
-7.02155e-08
-1.08076e-08
-5.62417e-08
-1.68941e-08
-4.0191e-08
-2.46167e-08
-2.3037e-08
-3.82815e-08
-1.33801e-10
-6.74836e-08
3.79766e-08
8.32371e-08
-1.09125e-07
-2.68595e-08
-8.75708e-08
2.90019e-08
-2.50077e-08
-8.77115e-08
-2.75228e-08
-7.80176e-08
-3.8177e-08
-5.95616e-08
-5.34705e-08
-4.09483e-08
-7.04051e-08
-2.32563e-08
-9.0959e-08
-2.48269e-09
-1.18506e-07
2.74135e-08
-1.62743e-07
8.22135e-08
1.18778e-07
-1.98283e-07
-3.92758e-08
-8.14185e-08
3.3123e-08
-4.79653e-08
-7.90219e-08
-6.783e-08
-5.81531e-08
-9.50022e-08
-3.23896e-08
-1.19701e-07
-1.62497e-08
-1.40778e-07
-2.17884e-09
-1.61481e-07
1.82198e-08
-1.85772e-07
5.17046e-08
-2.03955e-07
1.00397e-07
1.22234e-07
-2.07412e-07
-7.67302e-08
-6.31495e-08
5.84614e-08
-9.75055e-08
-5.82445e-08
-1.28246e-07
-2.74115e-08
-1.54312e-07
-6.32383e-09
-1.69472e-07
-1.08851e-09
-1.80883e-07
9.23256e-09
-1.96964e-07
3.43016e-08
-2.14594e-07
6.93343e-08
-2.14104e-07
9.99074e-08
1.14431e-07
-2.063e-07
-9.71868e-08
-4.04052e-08
7.44431e-08
-1.21138e-07
-3.42908e-08
-1.42969e-07
-5.58054e-09
-1.59305e-07
1.00131e-08
-1.72149e-07
1.17546e-08
-2.00264e-07
3.73477e-08
-2.38057e-07
7.20943e-08
-2.63627e-07
9.49045e-08
-2.72257e-07
1.08538e-07
1.29328e-07
-2.87153e-07
-1.13351e-07
-1.9354e-08
9.23012e-08
-1.31405e-07
-1.62343e-08
-1.42475e-07
5.49054e-09
-1.62733e-07
3.02709e-08
-2.00143e-07
4.9165e-08
-2.5275e-07
8.99555e-08
-3.04931e-07
1.24275e-07
-3.28393e-07
1.18366e-07
-3.36756e-07
1.16901e-07
1.26042e-07
-3.3347e-07
-1.11102e-07
5.2051e-09
8.65436e-08
-1.33244e-07
5.90793e-09
-1.54898e-07
2.71452e-08
-1.83787e-07
5.91594e-08
-2.36325e-07
1.01703e-07
-2.87255e-07
1.40885e-07
-3.12165e-07
1.49185e-07
-3.21373e-07
1.27574e-07
-3.26087e-07
1.21615e-07
1.2638e-07
-3.26425e-07
-1.05329e-07
3.19009e-08
7.86334e-08
-1.33426e-07
3.40054e-08
-1.56714e-07
5.04335e-08
-1.80209e-07
8.26546e-08
-2.14061e-07
1.35555e-07
-2.393e-07
1.66124e-07
-2.60078e-07
1.69962e-07
-2.82295e-07
1.4979e-07
-2.92092e-07
1.31412e-07
1.29584e-07
-2.95296e-07
-1.12465e-07
5.75906e-08
8.67759e-08
-1.35175e-07
5.67163e-08
-1.49377e-07
6.46354e-08
-1.59567e-07
9.28452e-08
-1.67691e-07
1.43678e-07
-1.73595e-07
1.72028e-07
-1.83284e-07
1.79652e-07
-2.0454e-07
1.71045e-07
-2.21463e-07
1.48334e-07
1.33947e-07
-2.25826e-07
-1.37579e-07
9.80353e-08
9.7135e-08
-1.52074e-07
7.12127e-08
-1.55557e-07
6.81185e-08
-1.5021e-07
8.74982e-08
-1.41311e-07
1.34779e-07
-1.36965e-07
1.67682e-07
-1.33766e-07
1.76452e-07
-1.38812e-07
1.76092e-07
-1.53256e-07
1.62778e-07
1.43303e-07
-1.62613e-07
-1.3289e-07
1.52465e-07
7.84616e-08
-1.5686e-07
9.51843e-08
-1.59698e-07
7.09576e-08
-1.51996e-07
7.97962e-08
-1.31647e-07
1.1443e-07
-1.17806e-07
1.53842e-07
-1.08505e-07
1.6715e-07
-9.89841e-08
1.66571e-07
-9.1737e-08
1.55531e-07
1.48288e-07
-9.67218e-08
-6.14115e-08
1.66795e-07
4.70821e-08
-1.03189e-07
1.36964e-07
-1.38065e-07
1.05835e-07
-1.46199e-07
8.79306e-08
-1.31514e-07
9.97444e-08
-1.05628e-07
1.27956e-07
-8.97419e-08
1.51264e-07
-7.23549e-08
1.49184e-07
-4.80954e-08
1.31271e-07
1.36129e-07
-3.59366e-08
7.61539e-09
1.47009e-07
1.21714e-08
-3.9517e-09
1.48532e-07
-3.89219e-08
1.40806e-07
-7.33397e-08
1.22349e-07
-8.98108e-08
1.16216e-07
-7.53242e-08
1.13469e-07
-4.90452e-08
1.24985e-07
-3.28681e-08
1.33006e-07
-2.71802e-08
1.25583e-07
1.19899e-07
-1.09503e-08
4.44546e-08
9.57629e-08
6.79198e-09
8.32212e-08
1.09766e-07
9.86116e-08
1.25415e-07
8.50842e-08
1.35876e-07
5.74292e-08
1.4387e-07
4.18298e-08
1.29067e-07
3.63114e-08
1.30501e-07
4.95481e-08
1.19768e-07
6.58251e-08
1.09306e-07
1.01243e-07
8.44807e-08
2.85123e-08
1.4901e-08
5.235e-08
1.08029e-07
3.0252e-08
1.81311e-07
5.21341e-08
2.26658e-07
9.0529e-08
2.48771e-07
1.21756e-07
2.56598e-07
1.2124e-07
2.68729e-07
1.1837e-07
2.70177e-07
1.18321e-07
2.64065e-07
1.15417e-07
1.08129e-07
2.5718e-07
-2.92559e-08
-5.09275e-08
9.50847e-08
5.38432e-08
-5.28496e-08
1.32993e-07
-2.70166e-08
2.03839e-07
1.96813e-08
2.63862e-07
6.17302e-08
3.00975e-07
8.41247e-08
3.1227e-07
1.07074e-07
3.08867e-07
1.21723e-07
3.01961e-07
1.22322e-07
1.14709e-07
2.95379e-07
-4.3478e-09
-1.24615e-07
7.80355e-08
4.99988e-08
-1.07196e-07
7.50273e-08
-5.2044e-08
1.15152e-07
-2.04434e-08
1.80417e-07
-3.53415e-09
2.36226e-07
2.83153e-08
2.63452e-07
7.98472e-08
2.76814e-07
1.0836e-07
2.7311e-07
1.26026e-07
1.05612e-07
2.82207e-07
-4.87227e-08
-1.76682e-07
1.00789e-07
-3.45336e-09
-1.52468e-07
5.09735e-08
-1.06472e-07
9.6307e-08
-6.57785e-08
1.45449e-07
-5.2678e-08
1.86298e-07
-1.25347e-08
1.73625e-07
9.25177e-08
1.22569e-07
1.59413e-07
1.3588e-07
1.12712e-07
6.19246e-08
1.79565e-07
-2.60001e-07
-2.30835e-07
3.14155e-07
-2.02322e-07
-2.10146e-07
-1.41317e-07
-1.67476e-07
-7.02017e-08
-1.36893e-07
-2.57718e-08
-9.71079e-08
4.42952e-09
-4.27361e-08
1.34272e-08
8.35202e-08
1.98055e-08
1.53035e-07
3.43248e-08
9.81927e-08
3.6527e-08
5.97214e-08
-4.39816e-07
-2.49001e-07
4.57981e-07
-4.09666e-07
-2.40299e-07
-3.56475e-07
-2.20668e-07
-3.00397e-07
-1.92972e-07
-2.50599e-07
-1.46908e-07
-2.09361e-07
-8.39766e-08
-1.27074e-07
1.23133e-09
-2.9101e-08
5.50605e-08
1.22348e-08
5.68553e-08
3.27921e-08
1.59682e-08
-4.97421e-07
-2.54052e-07
5.02472e-07
-4.81152e-07
-2.56569e-07
-4.37892e-07
-2.63928e-07
-3.73781e-07
-2.57081e-07
-3.20817e-07
-1.99871e-07
-2.8294e-07
-1.21853e-07
-2.07278e-07
-7.44305e-08
-1.4129e-07
-1.09275e-08
-9.24518e-08
8.01707e-09
-3.36055e-09
-5.6298e-08
-4.80274e-07
-2.61177e-07
4.87399e-07
-4.62609e-07
-2.74241e-07
-4.38797e-07
-2.8774e-07
-4.12106e-07
-2.83773e-07
-3.5586e-07
-2.56119e-07
-2.80054e-07
-1.9766e-07
-2.25664e-07
-1.28822e-07
-1.82888e-07
-5.37049e-08
-1.43038e-07
-3.18354e-08
-3.76796e-08
-1.0872e-07
-4.63636e-07
-2.57342e-07
4.59801e-07
-4.62768e-07
-2.7511e-07
-4.48329e-07
-3.02178e-07
-4.24052e-07
-3.0805e-07
-3.83582e-07
-2.96588e-07
-3.24909e-07
-2.56332e-07
-2.78266e-07
-1.75462e-07
-2.53781e-07
-7.81883e-08
-2.28084e-07
-5.75318e-08
-6.50333e-08
-2.00731e-07
-4.63239e-07
-2.61085e-07
4.6698e-07
-4.75512e-07
-2.62839e-07
-4.97272e-07
-2.80419e-07
-5.11525e-07
-2.93798e-07
-5.21536e-07
-2.86579e-07
-5.18669e-07
-2.592e-07
-4.9611e-07
-1.9802e-07
-4.29136e-07
-1.45161e-07
-3.60742e-07
-1.25925e-07
-1.24157e-07
-3.01618e-07
-4.73609e-07
-2.30908e-07
4.43432e-07
-4.96505e-07
-2.3994e-07
-5.20693e-07
-2.56229e-07
-5.59797e-07
-2.54693e-07
-5.88402e-07
-2.57973e-07
-6.05078e-07
-2.42523e-07
-5.98224e-07
-2.04875e-07
-5.63344e-07
-1.80042e-07
-5.12449e-07
-1.76821e-07
-1.84317e-07
-4.52289e-07
-3.99438e-07
-1.8808e-07
3.5661e-07
-4.29508e-07
-2.09871e-07
-4.75719e-07
-2.10019e-07
-5.12807e-07
-2.17605e-07
-5.58187e-07
-2.12592e-07
-5.85118e-07
-2.15591e-07
-5.83961e-07
-2.06034e-07
-5.63434e-07
-2.0057e-07
-5.22756e-07
-2.175e-07
-2.41724e-07
-4.65349e-07
-2.36232e-07
-1.28193e-07
1.76347e-07
-2.87213e-07
-1.5889e-07
-3.27026e-07
-1.70205e-07
-3.79148e-07
-1.65482e-07
-4.30943e-07
-1.60797e-07
-4.84019e-07
-1.62515e-07
-4.94142e-07
-1.95911e-07
-4.80026e-07
-2.14688e-07
-4.80552e-07
-2.16978e-07
-2.46164e-07
-4.76115e-07
-1.31249e-07
-9.77246e-08
1.0078e-07
-1.47549e-07
-1.4259e-07
-1.48697e-07
-1.69056e-07
-1.51506e-07
-1.62672e-07
-1.7564e-07
-1.36662e-07
-2.55536e-07
-8.26175e-08
-3.46447e-07
-1.04996e-07
-3.73839e-07
-1.87294e-07
-3.74009e-07
-2.16807e-07
-2.32526e-07
-3.87649e-07
-1.14179e-07
-8.86658e-08
1.05121e-07
-9.64547e-08
-1.60315e-07
-6.49491e-08
-2.00562e-07
-2.85759e-08
-1.99047e-07
7.85434e-09
-1.73095e-07
1.9337e-08
-9.41036e-08
-9.44267e-08
8.76704e-09
-1.94395e-07
-8.73257e-08
-2.33347e-07
-1.77859e-07
-2.06974e-07
-2.58902e-07
-9.99713e-08
-1.02782e-07
1.14088e-07
-7.615e-08
-1.84132e-07
-5.24862e-08
-2.24224e-07
-1.70667e-08
-2.34464e-07
3.76993e-08
-2.27859e-07
1.15373e-07
-1.7178e-07
1.3818e-07
-1.40422e-08
1.0585e-07
-5.49907e-08
4.82615e-08
-1.20268e-07
-1.44162e-07
-1.45519e-08
-8.43549e-08
-1.30701e-07
1.12273e-07
-8.53142e-08
-1.83179e-07
-9.17967e-08
-2.17742e-07
-9.01969e-08
-2.36064e-07
-7.61685e-08
-2.41888e-07
-3.53651e-08
-2.12587e-07
7.62791e-08
-1.25685e-07
1.48175e-07
-1.26889e-07
1.65831e-07
-1.37926e-07
-1.43554e-07
1.65226e-07
-3.86076e-08
-1.26868e-07
3.47739e-08
-7.39622e-08
-1.47829e-07
-1.11353e-07
-1.80353e-07
-1.24438e-07
-2.22977e-07
-1.25662e-07
-2.40657e-07
-9.71149e-08
-2.4114e-07
-9.68303e-09
-2.13115e-07
5.84748e-08
-1.95046e-07
1.20444e-07
-1.99897e-07
-1.94548e-07
1.71436e-07
1.32634e-07
-6.74341e-08
-1.92067e-07
5.17043e-08
-6.68994e-08
-1.32748e-08
-1.1537e-07
-5.33622e-08
-1.82891e-07
-7.85055e-08
-2.15516e-07
-7.28634e-08
-2.46776e-07
-2.66061e-08
-2.59372e-07
3.3133e-08
-2.54786e-07
8.02361e-08
-2.46997e-07
-2.3848e-07
1.24172e-07
3.7392e-07
-7.69035e-08
-3.64449e-07
3.6919e-07
-6.21748e-08
3.33445e-07
-7.96228e-08
2.64568e-07
-1.1401e-07
2.00681e-07
-1.51638e-07
1.42849e-07
-1.88939e-07
1.03117e-07
-2.19643e-07
9.13153e-08
-2.42991e-07
1.05912e-07
-2.61592e-07
-2.67301e-07
1.34736e-07
4.84865e-07
-1.16661e-07
-4.45096e-07
5.16281e-07
-9.3612e-08
5.23308e-07
-8.66424e-08
5.02293e-07
-9.29895e-08
4.62998e-07
-1.12341e-07
4.15573e-07
-1.41515e-07
3.64158e-07
-1.68223e-07
3.1028e-07
-1.89101e-07
2.63132e-07
-2.14443e-07
-2.39715e-07
2.35546e-07
5.18214e-07
-1.29537e-07
-5.05346e-07
5.42288e-07
-1.17691e-07
5.63806e-07
-1.08162e-07
5.71145e-07
-1.00327e-07
5.66866e-07
-1.08067e-07
5.56041e-07
-1.30696e-07
5.44688e-07
-1.56865e-07
5.24394e-07
-1.68804e-07
4.83073e-07
-1.73122e-07
-1.85339e-07
4.28694e-07
5.17316e-07
-1.21647e-07
-5.25207e-07
5.25107e-07
-1.2548e-07
5.44002e-07
-1.27057e-07
5.72983e-07
-1.29308e-07
5.96966e-07
-1.3205e-07
6.09916e-07
-1.43642e-07
6.16681e-07
-1.63628e-07
6.17336e-07
-1.69458e-07
6.05087e-07
-1.60873e-07
-1.56074e-07
5.7583e-07
6.06165e-07
-1.06161e-07
-6.21649e-07
6.02278e-07
-1.21589e-07
6.11118e-07
-1.35898e-07
6.28838e-07
-1.4703e-07
6.49213e-07
-1.52425e-07
6.61848e-07
-1.56277e-07
6.71793e-07
-1.73576e-07
6.77885e-07
-1.75552e-07
6.72192e-07
-1.55182e-07
-1.43259e-07
6.59379e-07
6.81382e-07
-1.12511e-07
-6.75033e-07
6.9272e-07
-1.32923e-07
7.05334e-07
-1.48514e-07
7.10149e-07
-1.51841e-07
7.08382e-07
-1.50655e-07
7.08992e-07
-1.56887e-07
7.17188e-07
-1.81768e-07
7.12302e-07
-1.70663e-07
6.93789e-07
-1.36669e-07
-1.32883e-07
6.83416e-07
6.74397e-07
-1.4946e-07
-6.3745e-07
6.99783e-07
-1.58317e-07
7.13484e-07
-1.62212e-07
7.1665e-07
-1.55009e-07
7.1726e-07
-1.51268e-07
7.11961e-07
-1.51588e-07
6.85373e-07
-1.55183e-07
6.68908e-07
-1.542e-07
6.72974e-07
-1.40738e-07
-1.38564e-07
6.78654e-07
5.42153e-07
-1.51953e-07
-5.39661e-07
5.4061e-07
-1.56775e-07
5.37892e-07
-1.5949e-07
5.40069e-07
-1.57188e-07
5.47604e-07
-1.58802e-07
5.56364e-07
-1.60345e-07
5.65065e-07
-1.63883e-07
5.7564e-07
-1.64776e-07
5.93447e-07
-1.5854e-07
-1.57524e-07
6.12408e-07
4.17939e-07
-1.54378e-07
-4.15514e-07
4.20827e-07
-1.59665e-07
4.26031e-07
-1.6469e-07
4.41615e-07
-1.72776e-07
4.63946e-07
-1.81133e-07
4.86196e-07
-1.82593e-07
5.05777e-07
-1.83466e-07
5.21688e-07
-1.80692e-07
5.29368e-07
-1.66218e-07
-1.59782e-07
5.3163e-07
3.12165e-07
-1.5676e-07
-3.09784e-07
3.24251e-07
-1.71756e-07
3.36728e-07
-1.77164e-07
3.47927e-07
-1.83974e-07
3.51776e-07
-1.84981e-07
3.50864e-07
-1.81679e-07
3.44146e-07
-1.76748e-07
3.24629e-07
-1.61173e-07
3.21078e-07
-1.62666e-07
-1.68451e-07
3.29749e-07
9.87172e-08
-1.51198e-07
-1.04281e-07
1.06925e-07
-1.79966e-07
1.19134e-07
-1.89372e-07
1.26217e-07
-1.91058e-07
1.23903e-07
-1.82667e-07
1.17524e-07
-1.75302e-07
1.0844e-07
-1.67662e-07
1.06795e-07
-1.59523e-07
1.01514e-07
-1.57382e-07
-1.59142e-07
9.22071e-08
-1.3887e-07
-1.98697e-07
1.86371e-07
-9.8714e-08
-2.20123e-07
-7.95397e-08
-2.08546e-07
-8.42979e-08
-1.86294e-07
-1.03294e-07
-1.63669e-07
-1.27189e-07
-1.51409e-07
-1.40047e-07
-1.548e-07
-1.31391e-07
-1.68176e-07
-1.15593e-07
-1.73184e-07
-1.9196e-07
-8.27794e-08
-2.14335e-07
-2.49746e-07
2.65385e-07
-1.86224e-07
-2.4824e-07
-1.7819e-07
-2.16582e-07
-1.80735e-07
-1.83744e-07
-1.79449e-07
-1.64955e-07
-1.91019e-07
-1.39839e-07
-2.03432e-07
-1.42385e-07
-2.13179e-07
-1.58428e-07
-2.14522e-07
-1.71841e-07
-1.88028e-07
-2.18453e-07
-2.50284e-07
-2.80248e-07
2.80789e-07
-2.22567e-07
-2.75955e-07
-1.9903e-07
-2.40121e-07
-1.74689e-07
-2.08077e-07
-1.47284e-07
-1.92363e-07
-1.19443e-07
-1.67679e-07
-1.37834e-07
-1.23995e-07
-1.65211e-07
-1.31052e-07
-2.04918e-07
-1.32131e-07
-1.28332e-07
-2.6461e-07
-2.33788e-07
-3.25827e-07
2.7937e-07
-2.01104e-07
-3.08643e-07
-1.55432e-07
-2.85793e-07
-9.58961e-08
-2.67614e-07
-4.17354e-08
-2.46522e-07
3.13402e-09
-2.12549e-07
3.4113e-08
-1.54978e-07
4.03109e-08
-1.37251e-07
-1.89565e-09
-8.99225e-08
-7.79834e-09
-1.22428e-07
-1.69128e-07
-3.64993e-07
2.08295e-07
-1.40985e-07
-3.36785e-07
-1.06983e-07
-3.19792e-07
-6.90896e-08
-3.0551e-07
-3.03543e-08
-2.85257e-07
2.70873e-08
-2.6999e-07
1.23039e-07
-2.5093e-07
2.17844e-07
-2.32056e-07
2.75e-07
-1.47081e-07
-3.29092e-08
3.00108e-07
4.91038e-09
-3.18197e-07
-5.17411e-08
-1.59748e-08
-3.15896e-07
-2.76079e-08
-3.08161e-07
-2.89715e-08
-3.04149e-07
-1.77347e-08
-2.96495e-07
1.06785e-08
-2.98404e-07
6.52375e-08
-3.05487e-07
1.35971e-07
-3.0279e-07
1.17916e-07
-1.29029e-07
2.55847e-08
5.94185e-08
1.06446e-07
-2.72999e-07
-1.51672e-07
6.31544e-08
-2.72606e-07
2.38491e-08
-2.68854e-07
-1.15127e-08
-2.68787e-07
-3.75626e-08
-2.70447e-07
-6.20997e-08
-2.73866e-07