/*--------------------------------*- C++ -*----------------------------------*\
  =========                 |
  \\      /  F ield         | OpenFOAM: The Open Source CFD Toolbox
   \\    /   O peration     | Website:  https://openfoam.org
    \\  /    A nd           | Version:  8
     \\/     M anipulation  |
\*---------------------------------------------------------------------------*/
FoamFile
{
    version     2.0;
    format      ascii;
    class       surfaceScalarField;
    location    "3.65";
    object      alphaPhi0.water;
}
// * * * * * * * * * * * * * * * * * * * * * * * * * * * * * * * * * * * * * //

dimensions      [0 3 -1 0 0 0 0];

internalField   nonuniform List<scalar> 
18095
(
1.96958e-08
-1.71986e-07
1.5229e-07
2.32212e-08
-1.97966e-07
1.94441e-07
2.03995e-08
-2.06147e-07
2.08968e-07
1.21918e-08
-2.10794e-07
2.19001e-07
1.25695e-09
-2.13219e-07
2.24153e-07
-1.01786e-08
-2.13517e-07
2.24953e-07
-1.9746e-08
-2.10607e-07
2.20174e-07
-2.30933e-08
-2.05774e-07
2.09121e-07
-1.96821e-08
-1.97966e-07
1.94555e-07
-1.72025e-07
1.52343e-07
1.55418e-08
-1.87528e-07
1.58438e-08
-1.98268e-07
1.17992e-08
-2.02102e-07
6.38681e-09
-2.05381e-07
2.42095e-10
-2.07074e-07
-6.44189e-09
-2.06833e-07
-1.21568e-08
-2.04892e-07
-1.58604e-08
-2.02071e-07
-1.55186e-08
-1.98308e-07
-1.87543e-07
6.84063e-09
-1.94369e-07
8.34532e-09
-1.99773e-07
7.22355e-09
-2.0098e-07
3.97959e-09
-2.02137e-07
-3.87113e-10
-2.02707e-07
-4.50381e-09
-2.02716e-07
-7.28823e-09
-2.02107e-07
-8.31254e-09
-2.01046e-07
-6.82665e-09
-1.99794e-07
-1.9437e-07
4.54832e-09
-1.98917e-07
4.71907e-09
-1.99943e-07
3.64872e-09
-1.9991e-07
1.90422e-09
-2.00393e-07
-4.71086e-11
-2.00756e-07
-1.92021e-09
-2.00843e-07
-3.56834e-09
-2.00459e-07
-4.69322e-09
-1.99921e-07
-4.54502e-09
-1.99942e-07
-1.98915e-07
1.08311e-09
1.13967e-09
1.22956e-09
8.36624e-10
8.07507e-11
-7.62454e-10
-1.22163e-09
-1.14301e-09
-1.08484e-09
-2.68622e-08
-1.96608e-07
2.2347e-07
-2.93967e-08
-1.98685e-07
2.01219e-07
-2.43688e-08
-2.01162e-07
1.96135e-07
-1.31133e-08
-2.01333e-07
1.90078e-07
8.50326e-10
-2.01976e-07
1.88012e-07
1.46594e-08
-2.02145e-07
1.88336e-07
2.55931e-08
-2.01752e-07
1.90818e-07
2.99019e-08
-2.01008e-07
1.96699e-07
2.7045e-08
-1.98721e-07
2.01578e-07
-1.96609e-07
2.23654e-07
-9.76202e-09
-1.86846e-07
-1.52046e-08
-1.93242e-07
-1.35806e-08
-2.02786e-07
-6.91942e-09
-2.07994e-07
-5.32263e-10
-2.08363e-07
5.85554e-09
-2.08533e-07
1.30285e-08
-2.08925e-07
1.53679e-08
-2.03348e-07
9.88558e-09
-1.93239e-07
-1.86724e-07
-1.02981e-08
-1.76548e-07
-7.6736e-09
-1.95867e-07
-4.91712e-09
-2.05543e-07
-1.95674e-09
-2.10955e-07
2.86897e-09
-2.13189e-07
6.92307e-09
-2.12587e-07
7.49209e-09
-2.09494e-07
8.76799e-09
-2.04624e-07
1.06223e-08
-1.95093e-07
-1.76102e-07
-6.92226e-09
-1.69626e-07
-9.52596e-09
-1.93263e-07
-9.78283e-09
-2.05286e-07
-5.22051e-09
-2.15517e-07
-1.28775e-09
-2.17121e-07
2.30884e-09
-2.16183e-07
7.22803e-09
-2.14413e-07
7.99096e-09
-2.05386e-07
6.38014e-09
-1.93482e-07
-1.69721e-07
-1.73352e-08
-1.61577e-08
-1.24752e-08
-8.99079e-09
-1.95861e-09
6.81055e-09
1.25713e-08
1.63063e-08
1.73786e-08
3.41662e-08
-1.56938e-07
1.22771e-07
3.77596e-08
-1.98063e-07
1.9447e-07
2.75366e-08
-2.09446e-07
2.19669e-07
1.20464e-08
-2.15498e-07
2.30988e-07
-6.30786e-09
-2.17991e-07
2.36345e-07
-2.29357e-08
-2.18259e-07
2.34886e-07
-3.44126e-08
-2.1687e-07
2.28347e-07
-4.03369e-08
-2.11068e-07
2.16992e-07
-3.51082e-08
-1.98702e-07
1.93473e-07
-1.57167e-07
1.22058e-07
1.72027e-08
-1.7414e-07
2.04105e-08
-2.01271e-07
1.82495e-08
-2.07285e-07
1.23771e-08
-2.09626e-07
3.29079e-09
-2.08904e-07
-6.33627e-09
-2.08631e-07
-1.48513e-08
-2.08355e-07
-1.9207e-08
-2.06712e-07
-1.68946e-08
-2.01014e-07
-1.74061e-07
9.70703e-09
-1.83847e-07
9.57318e-09
-2.01137e-07
7.8245e-09
-2.05536e-07
2.43962e-09
-2.04241e-07
-1.96414e-09
-2.045e-07
-5.84444e-09
-2.04751e-07
-9.30413e-09
-2.04896e-07
-1.03283e-08
-2.05688e-07
-1.00207e-08
-2.01322e-07
-1.84082e-07
7.89951e-09
-1.91747e-07
6.27175e-09
-1.99509e-07
6.81847e-09
-2.06083e-07
2.54576e-09
-1.99968e-07
1.05887e-09
-2.03014e-07
-7.33977e-10
-2.02958e-07
-6.39599e-09
-1.99234e-07
-6.11907e-09
-2.05965e-07
-7.75109e-09
-1.9969e-07
-1.91833e-07
3.17233e-08
3.34335e-08
2.34851e-08
1.35945e-08
-1.4071e-09
-1.60296e-08
-2.4445e-08
-3.37101e-08
-3.18214e-08
1.74874e-08
-1.12855e-07
8.89777e-08
1.22389e-07
-1.10515e-07
2.33243e-07
-1.14612e-07
3.12306e-07
-8.28214e-08
3.87294e-07
-7.87415e-08
4.52702e-07
-6.90259e-08
5.3725e-07
-6.16386e-08
5.67758e-07
-2.50898e-08
4.44823e-07
3.07472e-08
5.36441e-08
4.43113e-07
-2.16704e-07
-2.29064e-07
3.33106e-07
-1.01959e-07
-2.29464e-07
1.22287e-08
-2.33026e-07
1.18987e-07
-1.93275e-07
2.04243e-07
-1.58003e-07
2.81098e-07
-1.39864e-07
3.15404e-07
-8.9348e-08
2.28456e-07
-2.85485e-08
2.2004e-07
3.77383e-08
5.40685e-08
2.19409e-07
-3.67249e-07
-3.09004e-07
4.47388e-07
-2.77035e-07
-3.19149e-07
-2.02997e-07
-3.05908e-07
-1.15804e-07
-2.37325e-07
-6.6698e-08
-1.81891e-07
-5.43699e-08
-1.48674e-07
-5.68235e-08
-9.77786e-08
-3.9839e-08
-3.08992e-08
-2.16932e-08
1.9386e-08
2.42183e-08
7.95046e-09
-5.36736e-07
-3.37824e-07
5.66085e-07
-4.76776e-07
-3.77954e-07
-3.36828e-07
-3.94774e-07
-2.71609e-07
-3.05726e-07
-2.40015e-07
-2.1618e-07
-2.55811e-07
-1.35926e-07
-2.78395e-07
-1.0103e-07
-2.68788e-07
-4.02662e-08
-2.13146e-07
-2.03357e-09
2.03609e-08
-1.59507e-07
-6.18245e-07
-1.95844e-07
6.04386e-07
-6.35694e-07
-2.69572e-07
-5.68591e-07
-4.17767e-07
-4.5031e-07
-4.06337e-07
-3.61179e-07
-3.08057e-07
-3.25937e-07
-1.74356e-07
-3.73857e-07
-9.21614e-08
-3.66295e-07
-4.72156e-08
-3.35569e-07
-3.2161e-08
-1.05493e-08
-3.01855e-07
-1.91328e-07
-6.89886e-08
3.39863e-07
-3.20815e-07
-1.1267e-07
-5.58335e-07
-2.32905e-07
-5.52223e-07
-4.04773e-07
-4.69186e-07
-3.80771e-07
-4.0978e-07
-2.53162e-07
-3.54498e-07
-1.28984e-07
-3.8341e-07
-6.52244e-08
-3.72013e-07
-4.2982e-08
-5.37559e-08
-3.28418e-07
-1.76307e-07
-6.01676e-08
1.61631e-07
-1.98645e-07
-9.71049e-08
-3.33191e-07
-1.26041e-07
-5.77639e-07
-2.00057e-07
-5.98285e-07
-3.45577e-07
-5.13934e-07
-3.22466e-07
-4.24478e-07
-1.98505e-07
-3.75438e-07
-1.27132e-07
-3.12684e-07
-1.18481e-07
-8.21908e-08
-3.02396e-07
-1.22316e-07
-6.36296e-08
1.19005e-07
-1.54406e-07
-7.17882e-08
-1.91281e-07
-9.59399e-08
-2.88408e-07
-1.19447e-07
-5.93088e-07
-1.61364e-07
-6.34116e-07
-2.65889e-07
-5.48424e-07
-2.68647e-07
-4.35813e-07
-2.23257e-07
-3.43212e-07
-2.02634e-07
-1.61431e-07
-2.66171e-07
-5.93915e-08
-1.73938e-07
1.15929e-07
-7.25338e-08
-6.54189e-08
-1.08218e-07
-6.77842e-08
-1.55768e-07
-8.10156e-08
-2.1968e-07
-1.07817e-07
-4.20347e-07
-1.17972e-07
-5.21484e-07
-1.35404e-07
-4.69212e-07
-2.58242e-07
-4.06023e-07
-2.48929e-07
-2.28879e-07
-3.2168e-07
-4.31136e-08
-2.97965e-07
1.33265e-07
-6.07576e-09
-1.96903e-07
-1.75279e-08
-1.38197e-07
-3.31678e-08
-1.16423e-07
-4.65829e-08
-1.24578e-07
-6.80512e-08
-1.26291e-07
-1.49387e-07
-8.8922e-08
-1.92244e-07
-1.04137e-07
-3.09153e-07
-8.61223e-08
-1.54408e-07
-3.4467e-07
-2.18843e-07
-3.98629e-07
3.22981e-07
-8.36622e-08
-3.30758e-07
2.26752e-09
-2.63684e-07
3.21944e-08
-2.74136e-07
2.62509e-08
-3.15662e-07
2.86099e-08
-2.99697e-07
3.52165e-08
-1.93181e-07
4.12453e-08
-1.37648e-07
1.45487e-08
-7.326e-08
-4.69727e-08
-3.19549e-08
-4.20231e-07
-4.62406e-07
4.73303e-07
-2.91916e-07
-4.59384e-07
-1.30796e-07
-4.24678e-07
-9.84347e-09
-3.94929e-07
7.11011e-08
-3.96481e-07
1.21803e-07
-3.88556e-07
1.33306e-07
-3.6135e-07
1.13633e-07
-3.49493e-07
9.03962e-08
-2.45666e-07
-6.50532e-08
1.05676e-07
-3.86698e-07
-5.47571e-07
4.70237e-07
-3.28031e-07
-5.30937e-07
-2.20431e-07
-5.34778e-07
-1.14816e-07
-5.00419e-07
-3.85302e-08
-4.72587e-07
1.50097e-08
-4.41961e-07
7.6509e-08
-4.23225e-07
1.34036e-07
-4.08318e-07
2.03766e-07
-3.89919e-07
-3.17152e-07
1.13423e-07
-3.01116e-07
-6.37775e-07
3.91435e-07
-2.30617e-07
-6.08278e-07
-1.68848e-07
-6.04995e-07
-1.02455e-07
-5.66466e-07
-3.36177e-08
-5.41291e-07
2.91428e-08
-5.05097e-07
8.17644e-08
-4.77141e-07
1.27678e-07
-4.56224e-07
1.72044e-07
-4.36395e-07
-3.93187e-07
2.46482e-07
-1.66952e-07
-7.03101e-07
2.32397e-07
-8.74209e-08
-6.87701e-07
-2.87635e-08
-6.54329e-07
2.65201e-08
-5.84416e-07
8.80374e-08
-5.82623e-07
1.47554e-07
-5.65149e-07
1.94263e-07
-5.25836e-07
2.31711e-07
-4.95771e-07
2.5379e-07
-4.60071e-07
-4.19855e-07
2.79048e-07
-6.02512e-08
-7.42628e-07
9.98829e-08
-5.17502e-09
-7.42672e-07
5.88303e-08
-7.2332e-07
1.10273e-07
-6.3299e-07
1.80453e-07
-6.32878e-07
2.42031e-07
-6.26861e-07
2.98204e-07
-5.84024e-07
3.55097e-07
-5.53594e-07
3.79331e-07
-4.85273e-07
-4.24927e-07
3.83478e-07
-1.26128e-08
-7.84407e-07
5.45104e-08
3.93482e-08
-7.94526e-07
9.84893e-08
-7.68527e-07
1.52969e-07
-6.85412e-07
2.23288e-07
-7.01999e-07
2.81888e-07
-6.85428e-07
3.2661e-07
-6.2997e-07
3.64673e-07
-5.92079e-07
3.73129e-07
-5.15854e-07
-3.39254e-07
3.78287e-07
-5.33809e-08
-8.25492e-07
9.47307e-08
8.44907e-09
-8.56184e-07
7.06023e-08
-8.1045e-07
1.3044e-07
-7.4625e-07
1.92257e-07
-7.77664e-07
2.187e-07
-7.10421e-07
2.37013e-07
-6.47096e-07
2.38928e-07
-5.59153e-07
1.99328e-07
-4.0487e-07
-1.50051e-07
1.08715e-07
-2.43474e-07
-8.45827e-07
2.65025e-07
-1.88481e-07
-9.10558e-07
-1.22635e-07
-8.83469e-07
-5.52426e-08
-8.15059e-07
-1.88381e-08
-7.28783e-07
-1.95221e-08
-5.85729e-07
-3.61153e-08
-3.77612e-07
-4.28474e-08
-2.15374e-07
-2.21304e-08
-2.02122e-07
-1.57675e-07
-1.53882e-08
-5.24452e-07
-7.62621e-07
5.08217e-07
-4.94891e-07
-9.3703e-07
-4.31241e-07
-9.50237e-07
-3.74549e-07
-8.93919e-07
-3.35059e-07
-7.68084e-07
-2.51697e-07
-5.45767e-07
-1.24993e-07
-2.59304e-07
-1.22668e-07
-2.19891e-07
-1.16183e-07
-2.10116e-07
-1.67941e-07
-1.06902e-07
-4.96295e-07
-2.48637e-07
2.68616e-07
-6.54826e-07
-6.47388e-07
-6.56665e-07
-9.46615e-07
-6.01671e-07
-9.53036e-07
-5.24297e-07
-8.58781e-07
-3.17886e-07
-6.77921e-07
-1.61345e-07
-3.35793e-07
-1.45361e-07
-2.38393e-07
-1.34447e-07
-2.23378e-07
-1.87514e-07
-1.16384e-07
-2.58022e-07
-1.50027e-07
1.58826e-07
-3.40265e-07
-2.2807e-07
-6.22555e-07
-4.33944e-07
-6.74122e-07
-8.99241e-07
-6.08676e-07
-9.26088e-07
-4.87102e-07
-8.31621e-07
-2.72395e-07
-6.37977e-07
-1.95452e-07
-3.40884e-07
-1.37827e-07
-2.86112e-07
-3.63608e-07
-1.20698e-07
-1.39052e-07
-1.17732e-07
1.04751e-07
-1.97717e-07
-1.71264e-07
-2.3405e-07
-2.19902e-07
-5.92445e-07
-3.4992e-07
-6.95937e-07
-8.27979e-07
-6.2099e-07
-9.3182e-07
-4.54852e-07
-8.25466e-07
-3.03458e-07
-6.76399e-07
-3.06136e-07
-5.93214e-07
-5.49756e-07
-3.90096e-07
-8.80846e-08
-7.13774e-08
3.92733e-08
-1.34242e-07
-1.282e-07
-1.74962e-07
-1.81677e-07
-3.0355e-07
-2.21042e-07
-5.51674e-07
-3.19595e-07
-7.24706e-07
-7.28638e-07
-6.20099e-07
-9.25336e-07
-4.58388e-07
-8.34704e-07
-4.22686e-07
-6.29056e-07
-5.64796e-07
-4.10746e-07
-1.40707e-08
-4.61965e-08
-1.42037e-08
-6.62144e-08
-7.85512e-08
-1.16797e-07
-1.34106e-07
-1.65324e-07
-1.7623e-07
-2.53812e-07
-2.33548e-07
-4.95774e-07
-3.25816e-07
-6.77257e-07
-7.69884e-07
-5.58839e-07
-9.48384e-07
-4.04381e-07
-7.81854e-07
-6.01777e-07
-3.70979e-07
3.07888e-08
-1.89725e-07
-1.24811e-07
2.50662e-08
-1.15235e-07
-2.34163e-08
-8.93398e-08
-7.37301e-08
-1.28024e-07
-1.37243e-07
-1.77098e-07
-2.26595e-07
-2.46587e-07
-4.17702e-07
-4.61159e-07
-4.16851e-07
-8.50331e-07
-3.35778e-07
-7.35658e-07
-4.69482e-07
-2.83581e-07
3.98425e-07
-2.00788e-07
-3.58791e-07
2.08778e-07
-2.14768e-07
6.54918e-08
-2.70446e-07
2.11525e-08
-2.28214e-07
-3.36291e-08
-1.32429e-07
-1.10892e-07
-1.92466e-07
-1.76406e-07
-2.80195e-07
-2.4108e-07
-5.77775e-07
-2.22028e-07
-7.16569e-07
-5.30888e-07
-2.12389e-07
6.14419e-07
-6.87851e-08
-5.83198e-07
5.63425e-07
-1.81931e-07
5.08554e-07
-2.20755e-07
2.92029e-07
-2.61263e-07
5.1416e-08
-3.17609e-07
-9.5579e-09
-2.46206e-07
-9.44925e-08
-2.61631e-07
-9.98713e-08
-3.48055e-07
-1.66235e-07
-5.29437e-07
-5.03265e-07
-1.91665e-07
3.66369e-07
-9.93571e-09
-7.59668e-08
7.94631e-07
-6.99081e-08
7.3357e-07
-1.65224e-07
6.65753e-07
-2.05478e-07
5.88383e-07
-2.38949e-07
2.26365e-07
-2.92379e-07
5.48741e-08
-2.82017e-07
-5.54672e-08
-2.40163e-07
-1.4172e-07
-4.15535e-07
-5.54268e-07
-1.36705e-07
7.77597e-08
-1.13222e-08
-7.65736e-08
7.48705e-07
-4.78526e-08
7.76261e-07
-1.2306e-07
7.4811e-07
-1.76036e-07
7.18671e-07
-2.09199e-07
6.86516e-07
-2.60053e-07
4.11088e-07
-3.19593e-07
2.1188e-07
-2.59429e-07
1.25411e-07
-3.62461e-07
-5.70219e-07
2.75994e-08
4.02659e-07
-1.67554e-08
-7.26455e-08
7.54371e-07
-6.07461e-08
7.50868e-07
-1.16161e-07
7.42578e-07
-1.67183e-07
7.3494e-07
-2.01391e-07
7.20402e-07
-2.45391e-07
6.91138e-07
-2.90186e-07
3.95527e-07
-3.38903e-07
3.57128e-07
-3.2699e-07
-6.68461e-07
3.35637e-07
5.99064e-07
-3.59204e-08
-2.86452e-07
6.64079e-07
-8.45933e-08
6.85342e-07
-1.36816e-07
6.96417e-07
-1.78076e-07
7.04746e-07
-2.09594e-07
6.98073e-07
-2.38582e-07
6.91166e-07
-2.83197e-07
6.64801e-07
-3.82049e-07
5.74121e-07
-5.83027e-07
-7.93629e-07
6.33986e-07
3.44333e-07
-4.88275e-08
-3.46851e-07
6.12221e-07
-9.57436e-08
6.18089e-07
-1.41532e-07
6.18963e-07
-1.78637e-07
6.09359e-07
-1.99808e-07
6.00385e-07
-2.29482e-07
6.53341e-07
-3.36086e-07
8.26347e-07
-5.58355e-07
9.38053e-07
-7.12083e-07
-6.86739e-07
8.01161e-07
4.44878e-07
-4.27389e-08
-3.72805e-07
5.19421e-07
-1.01761e-07
5.11042e-07
-1.32559e-07
4.91758e-07
-1.58916e-07
4.71286e-07
-1.79024e-07
5.29504e-07
-3.05479e-07
7.74323e-07
-6.00073e-07
8.52244e-07
-6.38986e-07
6.03898e-07
-3.04924e-07
-1.57323e-07
2.80346e-07
4.3457e-07
-4.00911e-08
-3.89674e-07
4.18488e-07
-8.56363e-08
3.9071e-07
-1.04436e-07
3.73425e-07
-1.4035e-07
4.44176e-07
-2.65015e-07
6.70292e-07
-6.37394e-07
5.82684e-07
-6.17343e-07
3.72914e-07
-2.47366e-07
2.26492e-07
-1.39842e-07
-9.23185e-08
1.58301e-07
2.88111e-07
-1.66126e-08
-3.11572e-07
2.52556e-07
-5.0067e-08
2.25551e-07
-7.73877e-08
2.38862e-07
-2.06424e-07
4.72656e-07
-5.31992e-07
5.27277e-07
-6.12917e-07
2.98891e-07
-2.35298e-07
1.91098e-07
-1.45596e-07
1.2053e-07
-7.2793e-08
-2.30812e-08
4.69629e-08
1.14269e-07
2.83445e-08
-1.59211e-07
7.03344e-08
-6.11608e-09
5.12703e-08
-9.86667e-08
2.13579e-07
-4.25646e-07
3.59368e-07
-6.83845e-07
2.40935e-07
-2.57055e-07
1.25241e-07
-1.40856e-07
3.93959e-08
-7.98132e-08
-1.64057e-08
-2.88689e-08
3.25662e-08
-8.95535e-08
-4.30767e-08
1.12147e-07
-4.07026e-08
-1.15172e-07
6.60042e-08
-8.20441e-08
-1.10871e-07
5.16549e-08
-5.13777e-07
6.59217e-08
-6.61365e-07
2.88619e-08
-1.98342e-07
-4.89145e-09
-1.28355e-07
-7.20106e-08
-3.39463e-08
-3.86806e-07
2.26302e-08
2.98321e-08
-4.49177e-07
-2.55789e-07
2.55055e-07
1.12905e-07
-3.60693e-07
1.94817e-07
-3.0652e-07
-8.13352e-08
-3.40993e-07
-5.06228e-07
-2.81193e-07
-7.43976e-07
-1.01711e-07
-5.32094e-07
-8.07829e-08
-1.70535e-07
-2.53205e-07
-2.30472e-08
-3.83767e-07
3.51186e-08
3.02591e-08
-3.84178e-07
-1.04287e-07
4.00585e-07
-4.12234e-08
-2.15488e-07
3.55275e-07
-2.44342e-07
1.5601e-08
-4.80265e-07
-3.1393e-07
-4.94823e-07
-6.97447e-07
-2.68633e-07
-9.02024e-07
-6.09105e-08
-4.12314e-07
-1.11727e-07
-6.27837e-08
-1.9669e-07
2.80771e-09
4.64525e-08
-2.12853e-07
1.32859e-07
4.3765e-07
-1.69924e-07
6.60148e-08
3.81922e-07
-3.53941e-08
7.63337e-08
-1.66571e-07
-1.10205e-07
-4.31518e-07
-3.9098e-07
-3.52615e-07
-9.68116e-07
-1.23798e-07
-1.0421e-06
1.66726e-08
-2.06378e-07
3.5712e-08
-1.4868e-09
1.02058e-07
-2.94944e-09
3.01675e-07
3.5431e-07
-2.18357e-07
2.11692e-07
2.17566e-07
1.95374e-07
7.33817e-08
1.33237e-07
-6.59126e-08
1.01404e-07
-2.379e-07
1.01478e-07
-9.64286e-07
1.12332e-07
-1.04014e-06
6.22624e-08
-3.17815e-07
4.55901e-08
3.89443e-09
9.39999e-08
1.57932e-07
1.81008e-07
1.97507e-07
-1.44299e-07
1.68363e-07
8.33499e-08
2.10884e-07
1.39839e-08
2.11931e-07
-8.48041e-08
3.03268e-07
-3.10051e-07
2.97514e-07
-9.60631e-07
2.57419e-07
-9.99418e-07
7.8157e-08
-2.36671e-07
7.25964e-08
3.35433e-09
9.53533e-08
2.52489e-07
9.72088e-08
7.63994e-08
-2.87563e-08
1.34127e-07
4.30935e-08
2.6805e-07
-5.29946e-08
3.06047e-07
-1.22888e-07
4.08534e-07
-4.21305e-07
4.86748e-07
-1.04007e-06
2.20745e-07
-8.59411e-07
6.48891e-08
-1.12018e-07
6.61146e-08
-2.23155e-09
8.06695e-08
2.39981e-07
1.70466e-07
1.32367e-08
-1.05629e-07
2.21765e-07
-8.16996e-09
2.38873e-07
-7.00913e-08
2.21599e-07
-1.05601e-07
4.7687e-07
-6.76566e-07
5.34212e-07
-1.09758e-06
9.86183e-08
-4.90491e-07
5.40583e-08
-7.18184e-08
4.49475e-08
3.13853e-09
4.18985e-08
8.06084e-08
3.46255e-07
-9.48377e-09
-3.23495e-07
3.42357e-07
-4.257e-09
2.95766e-07
-2.34881e-08
1.99167e-07
-8.98894e-09
3.49827e-07
-8.37929e-07
2.92181e-07
-1.0472e-06
5.13366e-08
-2.65016e-07
1.47706e-08
-3.71387e-08
2.46304e-09
1.17054e-08
3.00765e-08
1.05443e-08
5.40971e-07
3.38545e-08
-5.76668e-07
4.28004e-07
1.08763e-07
3.14802e-07
8.97291e-08
1.22145e-07
1.83681e-07
1.46811e-07
-8.8539e-07
1.39855e-07
-1.04057e-06
1.99467e-09
-1.30703e-07
-3.13813e-08
-3.52502e-09
-3.38539e-08
1.22916e-08
3.20421e-08
-4.85549e-08
9.85054e-08
6.33424e-09
-7.67389e-08
1.58269e-07
9.70757e-09
1.56279e-07
7.26336e-08
2.24894e-08
3.17479e-07
6.87796e-08
-9.5433e-07
6.14058e-08
-1.03405e-06
-2.86335e-09
-7.49118e-08
-1.4577e-08
8.51307e-09
-2.14745e-08
1.75945e-08
5.02887e-10
-2.42244e-10
6.60036e-09
2.15017e-09
-2.41444e-09
2.2688e-08
5.45458e-09
2.10446e-08
4.00215e-08
2.79628e-08
7.54971e-08
5.29543e-08
-9.69264e-07
4.33348e-08
-1.02229e-06
4.70367e-09
-5.02535e-08
-7.89472e-10
1.26909e-08
4.63657e-09
1.10682e-08
-2.53752e-09
4.32816e-09
-4.71182e-09
3.34539e-09
3.49789e-09
-6.13758e-09
4.88958e-09
0
6.05125e-09
4.19051e-08
-3.45055e-09
5.75348e-08
-9.74742e-07
5.98024e-08
-1.0221e-06
0
-4.74616e-09
-5.45444e-09
1.9463e-08
3.32666e-09
6.94508e-10
-1.07938e-12
-2.90357e-12
-5.58888e-09
4.22463e-09
4.69565e-09
-6.00191e-09
4.18665e-09
-2.49026e-09
2.51117e-09
1.63644e-09
-6.84613e-09
1.61308e-08
-9.92175e-07
-6.54553e-10
-1.00367e-06
0
-3.2154e-09
-7.1887e-09
2.72735e-08
-2.15437e-10
3.60721e-09
-1.73679e-10
-4.961e-11
-4.2022e-09
4.64681e-09
3.77163e-09
-4.09108e-09
4.06632e-09
-1.49889e-09
-9.33972e-11
4.55263e-10
-8.82317e-09
4.00725e-09
-9.94686e-07
-6.40301e-10
-1.00051e-06
0
-4.01456e-09
-8.97333e-10
1.13593e-08
-4.21353e-09
6.71239e-09
-1.61706e-10
-2.07758e-11
-3.57694e-09
4.13939e-09
4.07589e-09
-2.53902e-09
3.02043e-09
1.14236e-10
-2.75546e-09
6.58437e-10
-9.37975e-09
-3.35527e-09
-9.9066e-07
-6.76136e-10
-1.004e-06
0
-4.97619e-09
1.23775e-09
7.57145e-10
-8.6367e-11
0
6.1337e-10
-1.26651e-11
-2.82104e-09
3.29707e-09
3.53861e-09
-6.87442e-10
4.88116e-10
1.96418e-10
-3.6517e-09
2.06754e-09
-1.12692e-08
1.33468e-09
-9.9187e-07
-2.58721e-09
-1.00107e-06
-2.7431e-10
-7.41782e-09
-3.32323e-10
7.0428e-10
-1.40373e-09
2.51463e-09
1.77224e-09
-2.48353e-11
1.17688e-09
2.22835e-09
1.14579e-10
2.21426e-09
6.16412e-10
0
-2.77317e-09
3.84699e-09
-1.5566e-08
-3.50784e-10
-9.9044e-07
-4.63013e-09
-9.99279e-07
3.18185e-11
-1.28955e-08
-1.69067e-10
9.67461e-10
-9.67677e-10
3.9871e-09
2.01709e-09
-5.38668e-10
1.87043e-09
5.77206e-10
-1.00317e-09
1.51888e-09
5.36501e-10
2.35808e-09
7.81045e-10
3.33667e-09
-1.66086e-08
1.88557e-09
-9.90606e-07
-2.67565e-09
-9.96285e-07
0
-1.62238e-08
3.47383e-10
7.57241e-10
2.01656e-09
5.33517e-10
4.22736e-10
7.70734e-10
3.45871e-10
7.18206e-10
-6.41801e-10
9.90525e-10
5.23116e-09
0
4.66352e-09
4.70904e-09
-2.20698e-08
1.6301e-09
-9.87873e-07
-4.28149e-09
-9.91507e-07
-3.2519e-10
-2.07206e-08
0
8.5875e-13
2.76326e-10
1.9018e-11
9.89566e-12
2.83643e-10
3.03729e-09
4.17763e-09
-3.00596e-09
3.44326e-09
9.77995e-09
2.40468e-11
8.53479e-09
3.93029e-09
-2.52949e-08
5.20197e-10
-9.84353e-07
-4.12262e-09
-9.8659e-07
-4.10311e-12
-2.46017e-08
4.19629e-13
-3.95034e-12
1.77372e-11
1.27189e-12
2.75436e-13
2.46425e-11
1.70362e-09
4.15e-09
-4.6617e-09
3.68158e-09
8.30206e-09
0
1.27488e-08
3.7071e-09
-2.80703e-08
-9.2405e-11
-9.80235e-07
-3.51751e-09
-9.82454e-07
-6.35054e-13
-2.7686e-08
0
-5.04977e-12
1.06032e-11
-4.7801e-12
5.90451e-12
5.11784e-12
6.53637e-10
6.19513e-10
1.83303e-11
1.98084e-09
3.00097e-09
0
1.52069e-08
4.13874e-09
-3.2024e-08
4.58354e-10
-9.75586e-07
-4.17324e-09
-9.77156e-07
-1.22693e-12
-3.15048e-08
-5.84645e-13
-5.76153e-12
6.70014e-12
-9.52593e-12
1.00009e-11
2.40225e-12
0
3.85427e-11
6.95179e-11
-1.89167e-10
4.02691e-11
6.51945e-10
5.99254e-09
4.12044e-09
-3.51972e-08
3.85718e-11
-9.70018e-07
-4.15206e-09
-9.71632e-07
-6.80131e-12
-3.49638e-08
-6.70508e-12
-5.8269e-12
-3.50386e-12
-9.15659e-12
4.72509e-12
5.0218e-13
-3.96659e-11
2.92017e-11
5.07951e-11
-2.86562e-11
3.31108e-11
5.271e-10
-7.7956e-13
5.29885e-09
-3.93191e-08
9.85021e-10
-9.64272e-07
-5.14268e-09
-9.63931e-07
-5.03735e-12
-3.93002e-08
-5.00555e-12
-5.81285e-12
-4.07204e-12
-3.12086e-12
1.47623e-11
-4.10793e-13
-2.72668e-11
9.03335e-12
4.67439e-11
-1.22972e-12
7.07008e-12
4.45051e-12
-6.46342e-12
4.98184e-09
-4.3522e-08
-4.69292e-10
-9.57457e-07
-4.84475e-09
-9.58265e-07
-3.07716e-12
-4.35046e-08
-3.4069e-12
-5.41383e-12
-4.87807e-12
-2.83858e-13
2.32285e-11
-9.83076e-13
-6.66084e-12
6.62726e-11
1.00885e-10
-1.68681e-12
2.09243e-12
6.6004e-13
-8.81387e-12
5.46886e-09
-4.82418e-08
1.09524e-09
-9.5169e-07
-5.08504e-09
-9.51128e-07
-8.90116e-13
-4.81615e-08
-8.28371e-13
-5.3809e-12
-3.75217e-12
-2.22262e-13
2.44925e-11
-1.88138e-13
-2.3657e-12
3.68369e-12
9.30845e-11
-1.20064e-13
-1.57156e-13
4.45135e-13
-9.38269e-12
5.52778e-09
-5.35719e-08
-7.48073e-10
-9.44926e-07
-5.62189e-09
-9.45686e-07
-5.30766e-13
-5.35532e-08
-3.55018e-13
-5.49129e-12
9.40479e-14
-6.12401e-13
6.31033e-12
4.98852e-12
-3.21376e-12
-2.97419e-12
6.3375e-12
2.03818e-12
-5.82871e-12
1.74517e-12
-9.09362e-12
5.86214e-09
-5.9453e-08
8.80027e-10
-9.39762e-07
-5.6718e-09
-9.39315e-07
-1.28935e-12
-5.94747e-08
-8.30692e-13
-5.89102e-12
0
0
1.79362e-12
1.28576e-12
1.17034e-12
-1.32712e-12
-1.48816e-12
1.43854e-12
-4.64529e-12
1.63015e-12
-9.29135e-12
6.61044e-09
-6.61373e-08
3.0001e-10
-9.33424e-07
-5.79284e-09
-9.33963e-07
-5.45794e-12
-6.60046e-08
-4.08133e-12
-7.21702e-12
0
0
1.62456e-12
-5.01213e-13
2.8607e-12
-1.8407e-13
-2.65999e-12
1.13718e-12
-1.37068e-12
1.24147e-12
-9.39847e-12
6.32262e-09
-7.30152e-08
2.81169e-10
-9.28009e-07
-6.29841e-09
-9.27892e-07
-1.92681e-11
-7.2939e-08
-1.73097e-11
-9.09552e-12
-4.18153e-12
-1.16839e-12
1.76619e-12
-4.40724e-12
2.42819e-13
7.90468e-13
-8.64533e-13
7.75087e-13
-1.90425e-12
1.38865e-12
-1.00151e-11
6.286e-09
-8.00064e-08
-6.18618e-10
-9.21813e-07
-7.15043e-09
-9.21316e-07
-3.30969e-11
-8.02467e-08
-3.19813e-11
-9.98296e-12
-2.24923e-12
-3.14623e-13
1.87607e-12
-2.43256e-12
1.08773e-12
2.74298e-13
-5.61978e-13
5.56916e-12
-3.95141e-12
6.50811e-12
-1.09554e-11
6.72205e-09
-8.71557e-08
-9.40549e-10
-9.14367e-07
-7.45161e-09
-9.14582e-07
-2.61207e-11
-8.75801e-08
-2.46438e-11
-1.14569e-11
-7.37795e-13
-3.98049e-12
2.44325e-12
-1.38171e-12
4.06029e-13
3.76956e-13
-4.81822e-13
1.24041e-11
-1.68001e-11
1.31087e-11
-1.1601e-11
7.90433e-09
-9.42509e-08
1.07169e-09
-9.06489e-07
-6.8606e-09
-9.06668e-07
-7.77453e-11
-9.43814e-08
-8.22075e-11
-6.88085e-12
-4.18642e-11
1.70829e-11
1.01797e-10
6.90659e-12
2.88143e-13
4.43643e-13
-3.66927e-13
1.14186e-11
-1.70823e-11
1.25848e-11
-1.26505e-11
8.95251e-09
-1.01513e-07
1.59719e-09
-8.97613e-07
-6.76753e-09
-8.98094e-07
-5.307e-11
-1.01086e-07
-5.70306e-11
-2.89326e-12
-1.50612e-10
1.21389e-10
2.59532e-11
-6.49258e-11
8.24869e-12
2.28739e-11
-7.82186e-13
1.31473e-11
-1.14486e-11
1.42167e-11
-1.37174e-11
7.48213e-09
-1.08177e-07
-1.0412e-09
-8.88579e-07
-8.9267e-09
-8.88551e-07
-4.84575e-13
-1.08351e-07
0
-3.37291e-12
9.62871e-11
7.85456e-12
3.91217e-14
8.5603e-11
1.26684e-11
3.29774e-11
-9.07218e-13
1.54855e-11
-2.73357e-12
1.54256e-11
-1.37442e-11
7.27258e-09
-1.15194e-07
-2.14045e-09
-8.78804e-07
-1.05142e-08
-8.78514e-07
-2.47684e-12
-1.16431e-07
-1.79409e-12
-3.97436e-12
1.86468e-11
-1.99076e-11
-1.77388e-11
2.40948e-11
1.16811e-11
3.62725e-11
-5.16765e-12
8.72679e-12
-6.98449e-13
9.21293e-12
-1.41519e-11
1.1708e-08
-1.24043e-07
3.52121e-09
-8.68215e-07
-6.87035e-09
-8.68946e-07
-7.75683e-12
-1.23796e-07
-8.72657e-12
-2.9644e-12
-2.89005e-12
-1.39094e-11
-1.75281e-11
2.18247e-11
1.26557e-11
3.79086e-11
-4.48327e-12
7.19312e-12
2.02437e-13
6.25843e-12
-1.39542e-11
1.2496e-08
-1.33989e-07
3.30746e-09
-8.57766e-07
-7.81156e-09
-8.5837e-07
-1.28297e-12
-1.32588e-07
-1.43896e-12
-2.84143e-12
3.09711e-13
-2.20838e-12
-4.63204e-12
-4.03573e-13
1.4923e-11
4.2748e-11
-9.95381e-12
6.61876e-12
2.10404e-12
5.35301e-12
-1.33655e-11
6.42778e-09
-1.43109e-07
-5.82415e-09
-8.4775e-07
-1.50275e-08
-8.46814e-07
-3.46246e-13
-1.44219e-07
-3.24519e-13
-2.88545e-12
-1.80152e-13
-2.38576e-12
-4.48219e-12
-4.28202e-13
1.03586e-11
4.62694e-11
-4.18694e-12
3.69053e-12
8.70277e-13
2.72142e-12
-1.31277e-11
9.64801e-09
-1.54315e-07
-2.59471e-09
-8.36226e-07
-1.32508e-08
-8.3596e-07
-1.25757e-12
-1.56088e-07
-1.39131e-12
-2.73954e-12
-2.55288e-12
-4.0084e-12
-1.3228e-12
-6.60598e-12
1.61389e-12
3.09631e-11
-4.37944e-12
2.70295e-12
-3.16492e-13
2.01735e-12
-1.31766e-11
1.70135e-08
-1.68104e-07
6.26934e-09
-8.23613e-07
-6.90128e-09
-8.2546e-07
-2.25803e-12
-1.67242e-07
-2.46654e-12
-2.52373e-12
-5.53896e-12
-2.96498e-12
1.10158e-12
-4.23676e-12
0
3.20966e-11
-1.87275e-12
2.06681e-12
-1.26503e-12
1.41833e-12
-1.32499e-11
1.47078e-08
-1.82893e-07
1.93302e-09
-8.11266e-07
-1.21572e-08
-8.12112e-07
-1.48856e-12
-1.81441e-07
-1.69875e-12
-2.32561e-12
-5.25988e-12
-3.31498e-13
3.11218e-12
-3.5439e-12
2.85734e-12
3.72507e-11
-3.27667e-12
2.74119e-12
-1.54414e-12
1.69962e-12
-1.29428e-11
9.13255e-09
-1.97206e-07
-5.42027e-09
-7.99062e-07
-1.84681e-08
-7.98022e-07
-4.11899e-13
-1.98058e-07
-4.38976e-13
-2.3096e-12
-1.02992e-12
3.94648e-16
1.44025e-12
0
4.81182e-12
2.54905e-11
-2.2977e-11
3.01847e-12
-1.14217e-12
1.92635e-12
-1.25724e-11
1.16717e-08
-2.13193e-07
-4.20748e-09
-7.84363e-07
-1.90811e-08
-7.83307e-07
-3.16347e-13
-2.16972e-07
-3.42097e-13
-2.29504e-12
-4.64432e-13
1.11659e-13
1.52936e-12
-2.90498e-12
0
1.04601e-12
-7.28989e-12
2.61937e-12
-1.45021e-12
1.95855e-12
-1.25948e-11
2.0195e-08
-2.31945e-07
4.97028e-09
-7.68028e-07
-1.24223e-08
-7.6819e-07
-2.72717e-13
-2.35275e-07
-3.08079e-13
-2.27076e-12
-4.07632e-13
2.00021e-13
2.41987e-12
-6.57617e-12
0
7.73906e-13
-8.01349e-14
3.94825e-12
-4.8685e-13
3.23539e-12
-1.25088e-11
2.79131e-08
-2.5329e-07
1.14664e-08
-7.49604e-07
-8.15446e-09
-7.51475e-07
-2.28417e-13
-2.53943e-07
-2.65441e-13
-2.24492e-12
-4.18677e-13
3.43173e-13
1.36353e-12
-3.53674e-12
6.70785e-13
6.13426e-13
-8.667e-13
4.66049e-12
0
3.83876e-12
-1.23505e-11
2.36841e-08
-2.73451e-07
6.396e-09
-7.31773e-07
-1.32714e-08
-7.32893e-07
-3.4799e-13
-2.72874e-07
-2.36621e-13
-2.36638e-12
-3.78951e-13
4.82759e-13
9.98558e-13
-1.89143e-12
2.90055e-12
3.59554e-11
-1.41689e-11
8.86199e-12
-5.77388e-12
9.80325e-12
-1.40117e-11
2.13376e-08
-2.95052e-07
5.56106e-10
-7.11207e-07
-2.11679e-08
-7.1115e-07
-2.36287e-12
-2.943e-07
-2.04634e-12
-2.68566e-12
-4.39836e-13
6.06914e-12
1.07216e-12
-4.77516e-13
8.10197e-11
6.11027e-11
-1.03578e-10
4.64249e-11
3.09206e-11
4.17955e-11
-9.91664e-12
1.94132e-08
-3.15407e-07
-1.98633e-09
-6.90023e-07
-2.31291e-08
-6.89726e-07
-5.54439e-12
-3.14791e-07
-5.03376e-12
-3.14646e-12
-2.19782e-12
4.90688e-12
1.11007e-11
-2.39134e-13
1.12649e-10
4.3489e-11
-9.24462e-11
3.96068e-11
5.73852e-11
3.58409e-11
-6.56625e-12
2.28126e-08
-3.39154e-07
-2.68514e-09
-6.64687e-07
-2.80161e-08
-6.64187e-07
-6.6914e-12
-3.39083e-07
-4.60511e-12
-5.15661e-12
-2.13493e-12
3.08955e-12
1.62429e-11
-1.13777e-13
-1.49615e-11
4.82907e-13
2.28117e-11
5.30597e-12
1.68005e-12
1.95818e-11
-2.14102e-11
2.3211e-08
-3.62326e-07
-1.48671e-09
-6.39808e-07
-2.62146e-08
-6.39565e-07
-2.08664e-11
-3.62695e-07
-3.65784e-12
-2.23315e-11
-4.1118e-12
1.28041e-12
1.45484e-11
-9.41313e-13
-2.37594e-13
1.43812e-13
5.70132e-13
1.62843e-12
-1.8659e-13
1.72993e-10
-1.93125e-10
3.14173e-08
-3.90556e-07
1.92498e-09
-6.10063e-07
-2.66128e-08
-6.11253e-07
-1.62849e-10
-3.90208e-07
-2.52651e-12
-1.82709e-10
-1.82282e-12
-1.00037e-13
9.66297e-12
1.94193e-12
-4.95406e-14
2.25366e-14
1.70531e-13
2.11896e-13
-4.48513e-13
1.57465e-09
-1.76757e-09
2.88674e-08
-4.15784e-07
1.65005e-09
-5.82876e-07
-2.5733e-08
-5.83806e-07
-1.48062e-09
-4.15256e-07
-7.02865e-13
-1.6627e-09
4.62937e-15
-8.35101e-13
1.95518e-12
2.22667e-12
-4.05067e-14
1.172e-14
5.10387e-14
1.18949e-13
-6.08253e-13
9.55794e-09
-1.13254e-08
2.80643e-08
-4.34456e-07
-4.87231e-10
-5.54254e-07
-3.13873e-08
-5.52971e-07
-9.34607e-09
-4.35347e-07
-5.80095e-13
-1.10082e-08
0
-1.44583e-12
5.78111e-12
6.42877e-13
1.82327e-13
-7.55651e-14
-9.53271e-14
5.00095e-13
-9.26506e-13
2.05142e-08
-3.14211e-08
3.03255e-08
-4.43274e-07
-1.17051e-09
-5.22694e-07
-3.1147e-08
-5.23058e-07
-1.94506e-08
-4.4707e-07
-6.10059e-12
-2.96845e-08
-5.63836e-12
-1.93563e-12
7.16534e-12
-2.06778e-12
1.51981e-12
-5.48791e-12
-6.62519e-14
5.93738e-12
-5.34857e-12
3.42654e-08
-6.49378e-08
3.7406e-08
-4.45821e-07
1.16095e-09
-4.86413e-07
-3.24433e-08
-4.89495e-07
-3.32535e-08
-4.46429e-07
-1.35175e-11
-6.32466e-08
-1.18911e-11
-3.55715e-12
4.65736e-12
-8.47698e-12
2.32741e-11
-1.33033e-11
-5.57037e-11
8.14507e-11
-6.36069e-11
5.10754e-08
-1.13555e-07
4.16717e-08
-4.35906e-07
6.3623e-09
-4.51099e-07
-3.30567e-08
-4.50083e-07
-4.53582e-08
-4.3465e-07
-6.05104e-11
-1.11001e-07
-1.12079e-11
-5.28733e-11
4.11929e-12
-1.1137e-11
5.89995e-11
-1.45026e-11
-5.11251e-11
1.28708e-09
-1.29247e-09
7.1619e-08
-1.78193e-07
4.06548e-08
-4.04318e-07
-1.39009e-09
-4.09054e-07
-4.41658e-08
-4.0731e-07
-8.17937e-08
-3.97822e-07
-1.32507e-09
-1.98555e-07
-1.20495e-11
-1.36594e-09
1.334e-13
-8.0932e-12
4.87031e-11
-1.23754e-11
-4.32033e-11
1.60494e-08
-1.72886e-08
9.03649e-08
-2.49982e-07
4.19801e-08
-3.55934e-07
-2.36019e-09
-3.64717e-07
-4.42831e-08
-3.65385e-07
-8.23736e-08
-3.59733e-07
-1.64011e-08
-2.68053e-07
-8.64936e-14
-1.7767e-08
1.54511e-14
2.02607e-15
9.2464e-10
-8.56665e-10
-5.47712e-11
6.13883e-08
-7.98712e-08
1.03165e-07
-2.95461e-07
6.42843e-08
-3.17057e-07
1.57898e-08
-3.16222e-07
-3.54506e-08
-3.14145e-07
-8.6147e-08
-3.09035e-07
-5.81079e-08
-2.92954e-07
-7.87002e-10
-7.31178e-08
-7.86771e-10
-2.30896e-13
2.86789e-08
-2.95149e-08
-2.20941e-11
1.35215e-07
-1.87262e-07
9.01628e-08
-2.50408e-07
2.99515e-08
-2.56845e-07
-2.24533e-08