/*--------------------------------*- C++ -*----------------------------------*\
  =========                 |
  \\      /  F ield         | OpenFOAM: The Open Source CFD Toolbox
   \\    /   O peration     | Website:  https://openfoam.org
    \\  /    A nd           | Version:  8
     \\/     M anipulation  |
\*---------------------------------------------------------------------------*/
FoamFile
{
    version     2.0;
    format      ascii;
    class       volScalarField;
    location    "3.65";
    object      p;
}
// * * * * * * * * * * * * * * * * * * * * * * * * * * * * * * * * * * * * * //

dimensions      [1 -1 -2 0 0 0 0];

internalField   nonuniform List<scalar> 
9150
(
-204.488
-205.492
-206.105
-206.582
-206.819
-206.807
-206.577
-206.098
-205.497
-204.489
-224.536
-225.055
-225.47
-225.792
-225.963
-225.982
-225.805
-225.471
-225.056
-224.535
-244.43
-244.717
-244.97
-245.185
-245.3
-245.306
-245.184
-244.964
-244.714
-244.428
-264.17
-264.348
-264.516
-264.675
-264.757
-264.751
-264.667
-264.513
-264.344
-264.167
-283.79
-283.974
-284.111
-284.24
-284.298
-284.295
-284.235
-284.107
-283.971
-283.787
-118.347
-119.252
-119.06
-118.633
-118.461
-118.454
-118.613
-119.042
-119.25
-118.341
-133.987
-134.697
-134.907
-134.962
-134.863
-134.85
-134.938
-134.875
-134.669
-133.951
-150.486
-151.238
-151.547
-151.899
-151.948
-151.928
-151.865
-151.507
-151.212
-150.473
-167.337
-168.459
-168.887
-169.533
-169.71
-169.716
-169.569
-168.929
-168.49
-167.369
-184.292
-186.382
-187.12
-187.847
-188.108
-188.109
-187.849
-187.131
-186.385
-184.292
-24.6537
-26.1722
-27.9963
-29.0187
-29.6663
-29.7548
-29.3107
-28.2862
-26.2333
-24.5809
-45.2067
-45.432
-46.4429
-46.7674
-47.1771
-47.1626
-46.6945
-46.3535
-45.3732
-45.1489
-65.1631
-65.0679
-66.0805
-65.6709
-66.1622
-66.1899
-65.7646
-66.1131
-65.0528
-65.1382
-88.0158
-85.2537
-86.295
-84.7484
-84.9544
-84.9561
-84.6998
-86.266
-85.235
-87.9936
-114.131
-104.242
-103.887
-102.349
-102.02
-102.043
-102.394
-103.921
-104.26
-114.155
718.029
712.189
702.646
689.703
677.316
665.806
656.324
648.299
642.748
648.108
687.577
681.278
669.696
656.559
643.474
630.569
617.473
610.901
615.009
623.262
649.753
642.907
631.262
617.267
605.835
595.225
587.889
585.332
593.598
601.083
612.829
607.337
597.114
587.563
579.679
573.82
572.755
577.966
578.422
591.605
571.287
571.929
569.382
561.031
557.881
556.775
558.415
565.085
570.855
576.078
558.056
553.155
543.731
543.975
543.777
542.674
549.137
553.175
561.801
568.026
537.276
535.646
533.837
533.397
534.586
536.269
539.851
548.061
552.85
555.736
525.707
524.433
524.565
524.099
524.973
529.534
535.159
541.126
543.908
549.827
513.288
515.083
516.693
518.397
520.425
520.549
523.301
526.576
531.217
534.947
500.488
501.69
504.518
507.998
512.131
517.98
522.505
516.644
511.828
511.588
476.432
484.883
493.315
500.221
499.236
502.115
504.039
503.401
502.908
500.419
449.026
462.396
473.039
478.834
481.066
482.611
482.178
479.414
476.625
476.251
412.497
426.97
438.64
445.7
450.052
452.325
453.585
453.854
454.562
451.712
371.58
389.366
402.8
413.551
419.91
424.092
426.374
427.418
428.155
429.221
335.555
352.395
365.856
376.978
383.271
387.626
390.273
391.311
391.768
394.446
303.367
318.022
328.496
339.594
341.07
342.901
343.695
344.171
344.311
343.548
284.829
291.716
294.957
300.009
296.356
294.038
290.567
286.73
283.903
282.411
275.077
272.441
265.801
261.32
250.963
245.143
241.622
238.042
234.376
240.224
268.171
256.279
239.636
225.28
212.165
206.232
209.901
212.364
213.9
218.474
248.444
232.596
214.349
197.006
186.935
187.124
200.681
207.408
210.483
213.831
211.13
208.315
204.775
192.255
187.778
193.89
203.961
207.802
210.03
212.789
192.699
187.682
186.974
184.396
184.997
191.22
197.634
205.613
209.093
207.51
173.689
171.78
171.057
169.953
172.001
178.05
183.695
189.025
198.466
196.421
159.592
157.144
156.757
157.209
158.316
164.647
177.375
188.326
196.589
204.178
148.857
145.745
145.604
147.041
149.811
154.246
165.248
185.498
204.109
212.165
138.552
138.45
138.596
141.89
145.231
150.459
160.457
180.877
196.442
212.193
145.603
137.401
136.712
141.361
148.284
153.667
159.898
177.341
197.388
215.266
157.733
155.519
152.022
148.256
148.456
163.174
173.25
177.639
196.502
217.437
167.809
160.353
161.224
162.149
163.117
162.639
170.477
183.184
190.444
220.619
174.746
170.184
168.45
172.191
175.322
174.729
177.054
174.84
185.092
214.56
176.231
175.824
178.42
180.771
182.807
181.832
181.529
182.455
194.567
209.022
176.591
182.985
188.246
190.863
193.068
192.47
190.881
188.427
187.762
198.089
198.133
192.364
197.945
201.578
204.048
203.556
202.573
199.024
193.228
188.936
212.651
206.282
209.024
210.603
210.141
207.633
197.074
182.759
172.612
164.672
218.433
219.96
220.836
219.748
215.677
196.431
164.525
145.015
139.433
136.993
227.368
231.342
232.477
231.518
212.189
167.636
130.331
115.467
110.165
112.28
229.172
239.485
245.872
257.683
203.802
144.943
119.809
105.755
99.9697
96.2758
224.384
249.973
275.623
281.805
196.206
145.518
118.162
105.25
105.525
116.223
176.717
182.221
195.242
187.954
153.332
135.993
144.184
135.088
138.765
134.19
92.5284
54.1982
42.9431
33.5324
61.8676
103.128
156.229
172.87
162.84
144.564
13.6112
-37.1066
-56.2953
-69.7193
-65.7948
18.5524
125.672
184.407
181.679
166.217
4.21268
-24.6224
-43.8617
-52.1234
-61.4575
-1.74087
117.139
151.09
167.734
127.769
33.8253
30.9304
28.2224
23.701
13.4555
31.7334
68.2271
95.3212
114.291
87.8913
53.5352
61.1603
61.8587
54.7683
51.324
46.953
36.4457
42.532
50.1804
40.2986
52.342
54.6267
59.4784
68.9687
81.8057
41.3327
4.61086
-2.19545
-1.7123
1.76452
48.6952
55.211
66.9671
80.4654
99.9882
28.3149
-8.87547
-17.95
-17.4184
-11.7242
24.7236
39.6515
63.8324
83.7005
94.5016
24.6998
3.31425
-4.64767
-5.35633
-7.93364
0.923991
3.1294
10.6362
28.6045
45.7081
14.3289
11.2896
9.45293
4.41231
3.9925
-1.21137
-0.373996
0.766508
1.45929
17.3745
8.00022
7.43113
5.45374
2.44135
-0.840068
-1.70231
-1.1803
0.0177514
4.19913
35.4298
3.75038
-0.00464659
0.547655
-0.620617
-0.495587
-1.00057
-0.845059
-0.536714
0.582458
32.4099
14.1583
-0.85628
-1.19707
-0.663726
-0.548426
-1.2882
-1.45329
-1.60981
-1.66734
24.1175
23.7067
-1.00786
-2.40952
-0.692308
-0.763081
-1.89502
-2.13821
-2.05493
-2.31023
23.8859
24.8596
-0.976324
-1.0891
-0.932503
-0.846746
-2.02739
-2.42517
-2.63489
-2.52205
23.951
25.2614
-0.5316
-0.384555
-0.696822
-0.434071
-1.77811
-2.01781
-2.25767
-1.8038
24.0099
25.2103
-0.795947
-0.425161
-1.0431
-0.874456
-1.1266
-1.1636
-1.11329
0.0305923
24.7364
26.2273
-1.26848
-0.708041
-1.10189
-0.984196
-0.81177
-0.929519
-0.866598
-0.0375804
25.4974
25.948
-0.840947
-0.61393
-0.829101
-0.976209
-0.872925
-1.04948
-0.979393
-0.433408
25.717
26.0619
-0.801617
-0.766771
-0.860454
-0.91657
-1.0812
-0.59972
-1.07997
-0.860095
25.5983
26.1785
-0.993815
-0.977615
-1.00928
-0.997769
-1.14722
-1.17139
-1.35533
-1.57294
25.5046
25.8227
-1.04046
-1.03495
-1.04064
-1.03038
-1.08828
-1.17566
-1.33402
-1.5288
25.6468
25.9273
-1.05022
-1.04717
-1.05187
-1.03713
-1.04521
-1.03429
-0.907789
-1.31346
25.7444
25.9275
-1.03627
-1.03748
-1.03938
-1.03491
-1.09764
-1.09457
-1.01894
-1.19268
25.7468
26.2168
-1.03159
-1.02978
-1.0315
-1.02798
-1.19855
-1.21043
-1.20114
-1.21697
25.8197
26.1894
-1.04793
-1.04559
-1.04445
-1.04309
-1.21836
-1.22476
-1.24378
-1.22967
26.0438
26.0252
-1.07636
-1.07507
-1.07404
-1.08073
-1.23857
-1.23774
-1.24333
-1.24362
25.6444
26.5054
-1.11331
-1.10917
-1.10857
-1.11048
-1.26898
-1.2683
-1.26362
-1.26454
25.9827
26.1783
-1.1461
-1.14193
-1.14475
-1.14192
-1.28873
-1.28858
-1.28811
-1.29239
26.4927
25.7298
-1.17418
-1.17273
-1.18048
-1.16834
-1.31514
-1.31279
-1.31324
-1.31739
26.25
25.9404
-1.20013
-1.19947
-1.20144
-1.19602
-1.33624
-1.33666
-1.33354
-1.33419
25.4924
26.6616
-1.23176
-1.22322
-1.22831
-1.22439
-1.35338
-1.35213
-1.34998
-1.34605
24.9904
27.1504
-1.21163
-1.20297
-1.25224
-1.24912
-1.37202
-1.37013
-1.37181
-1.37381
26.0884
25.9327
-1.22291
-1.2051
-1.3019
-1.29233
-1.38744
-1.38671
-1.38367
-1.39548
27.1411
24.6647
-1.2938
-1.28992
-1.34122
-1.34318
-1.38715
-1.38708
-1.37421
-1.37398
24.9295
26.6539
-1.36076
-1.35465
-1.35843
-1.3678
-1.39994
-1.39969
-1.38519
-1.37813
23.7131
27.659
-1.40086
-1.38218
-1.38897
-1.38834
-1.42575
-1.42821
-1.41824
-1.43363
27.5133
23.5009
-1.40534
-1.40853
-1.41313
-1.41644
-1.44114
-1.44406
-1.43772
-1.45735
27.467
23.1917
-1.43248
-1.43637
-1.43855
-1.44066
-1.45846
-1.45701
-1.44912
-1.44504
22.1607
28.0255
-1.48161
-1.46442
-1.46306
-1.46331
-1.49225
-1.47997
-1.47589
-1.47792
23.1233
26.7138
-1.50626
-1.48622
-1.48624
-1.48486
-1.5155
-1.5053
-1.50721
-1.5276
26.9374
21.885
-1.50778
-1.50369
-1.50829
-1.50957
-1.53687
-1.51798
-1.51869
-1.53531
25.0513
22.7989
-1.54676
-1.53589
-1.53838
-1.54098
-1.54668
-1.52569
-1.5222
-1.52759
20.1069
26.3513
-1.60345
-1.57705
-1.57426
-1.57298
-1.5603
-1.5497
-1.54137
-1.54189
17.1056
27.7414
-1.65104
-1.61509
-1.60707
-1.60368
-1.58165
-1.57713
-1.57015
-1.57351
18.0586
25.3083
-1.67253
-1.63969
-1.63261
-1.6294
-1.60159
-1.59954
-1.59974
-1.61585
20.6762
20.9474
-1.68016
-1.65406
-1.65137
-1.65024
-1.62481
-1.62309
-1.62272
-1.64959
20.5022
18.5741
-1.69859
-1.67109
-1.67029
-1.67011
-1.64888
-1.63838
-1.61445
-1.65102
18.8419
17.3954
-1.72734
-1.69058
-1.68958
-1.69082
-1.68895
-1.68089
-1.64088
-1.69436
16.9375
16.0468
-1.75619
-1.70821
-1.7083
-1.70825
-1.72488
-1.70719
-1.6997
-1.75644
13.1213
15.9364
-1.79456
-1.73029
-1.72795
-1.72781
-1.74631
-1.73499
-1.74067
-1.79297
10.502
14.1869
-1.81013
-1.74957
-1.74318
-1.74743
-1.76877
-1.76572
-1.77135
-1.86263
9.92583
9.59427
-1.85057
-1.76947
-1.76688
-1.76715
-1.79096
-1.79251
-1.78631
-2.04997
8.00497
6.59108
-2.03359
-1.78475
-1.7914
-1.78922
-1.81429
-1.81283
-1.81881
-2.07472
4.50448
5.25029
-2.20707
-1.82182
-1.80875
-1.81174
-1.83034
-1.83166
-1.89712
-1.86805
2.54554
3.26945
-2.13115
-1.90096
-1.82492
-1.83046
-1.84477
-1.8403
-1.97924
-1.72154
1.49815
0.972222
-1.47966
-2.03638
-1.84218
-1.84581
-1.86084
-1.85204
-2.26618
-1.1919
0.450036
-0.139115
-1.38673
-2.23374
-1.86263
-1.862
-1.87519
-1.85692
-3.47956
-1.94096
-0.70871
-0.744303
-1.37212
-2.96904
-1.87359
-1.88183
-1.89725
-2.35739
-4.60157
-2.99033
-1.98101
-1.66153
-2.41164
-4.40089
-2.44536
-1.90551
-1.92234
-3.82816
-4.97047
-5.21331
-5.57532
-5.84883
-5.96792
-5.96107
-4.12892
-1.93427
-2.80535
-9.58707
-12.9399
-14.6896
-15.2702
-15.1385
-14.2999
-12.436
-9.25891
-2.708
654.374
663.56
670.24
675.925
680.106
682.785
685.034
687.025
689.318
690.609
692.168
692.961
693.028
692.45
690.616
687.964
684.675
680.591
676.164
671.522
666.874
663.221
661.154
660.794
662.168
665.493
670.424
676.188
681.262
684.284
685.615
686.026
686.794
684.389
685.006
683.786
681.361
680.426
681.444
678.896
631.942
639.089
646.08
653.92
659.488
663.125
665.508
667.665
670.159
671.219
672.849
673.371
673.21
672.248
669.87
667.051
663.457
659.1
653.94
648.803
644.158
640.351
638.282
637.01
637.564
640.221
644.893
650.266
655.451
659.194
663.418
666.466
663.252
661.01
660.365
659.252
659.044
659.535
659.289
665.195
609.181
618.007
622.58
631.442
638.407
642.877
645.428
647.526
649.555
650.905
652.186
652.859
652.629
651.224
649.494
644.909
640.979
635.982
630.242
623.825
617.545
611.406
608.533
608.194
609.073
609.799
612.975
618.838
624.75
629.906
634.65
639.568
640.243
639.051
636.747
640.881
644.326
647.138
647.61
649.497
593.098
598.476
605.63
612.868
618.6
623.078
625.892
628.137
630.007
631.47
632.426
632.836
632.381
630.893
628.777
624.961
619.662
613.28
606.604
600.2
594.122
593.992
585.628
584.846
585.278
587.752
586.374
590.668
597.173
603.325
611.512
615.819
621.018
623.714
623.303
629.611
628.843
631.525
632.82
631.171
582.498
589.117
594.756
599
602.832
605.702
608.007
609.969
611.652
612.84
613.573
614.031
612.969
611.827
609.094
605.715
601.176
596.183
588.862
582.726
576.678
572.592
569.582
571.263
573.196
573.986
572.341
575.962
580.061
582.638
589.434
597.16
603.42
608.021
611.586
613.444
612.12
618.608
614.862
621.073
573.435
579.037
583.735
587.288
589.544
590.823
592.27
593.034
594.315
594.79
595.432
595.421
594.954
594.185
591.55
588.858
585.338
580.609
577.319
571.95
567.239
564.773
564.035
563.714
563.723
562.989
563.094
563.648
564.992
567.069
571.227
578.542
585.923
592.417
596.537
600.395
600.276
605.328
604.496
609.877
561.083
564.644
568.838
572.225
573.783
574.774
575.69
576.133
576.745
577.159
577.504
577.448
576.952
575.872
574.222
571.658
569.685
566.713
563.204
560.725
557.596
554.521
554.269
554.514
554.857
552.757
552.602
553.209
554.858
556.353
558.715
562.854
569.725
576.028
581.831
585.021
585.739
591.464
592.63
591.074
553.329
554.064
554.753
555.714
556.597
557.295
557.386
557.503
558.808
559.54
560.054
559.823
558.978
557.878
556.745
554.912
553.093
551.3
549.009
547.146
545.683
544.306
543.078
543.204
543.011
542.974
543.938
544.458
545.091
546.315
548.615
550.44
555.52
560.461
564.595
566.822
567.972
568.76
568.732
569.458
535.998
534.688
539.58
541.242
541.495
542.142
543.257
545.617
545.829
542.297
543.674
542.892
541.122
539.944
538.938
537.929
536.383
535.114
533.507
531.966
532.064
531.637
530.799
531.208
530.34
532.656
533.604
534.382
535.72
536.945
538.383
538.487
542.511
545.646
547.318
553.928
551.487
552.114
551.37
551.018
514.309
515.952
518.16
519.609
521.7
522.975
520.752
524.192
524.946
525.649
525.305
527.711
527.279
524.301
521.509
520.872
519.859
519.066
518.211
517.321
517.184
517.404
517.579
516.719
517.999
518.473
519.393
523.474
525.084
524.52
522.978
525.578
528.904
531.377
531.299
535.815
534.452
534.625
535.708
537.692
490.822
481.181
483.53
490.846
497.051
500.462
499.474
501.918
503.734
505.912
506.426
507.717
507.397
506.838
505.263
504.3
503.137
502.49
502.141
501.515
501.461
502.916
502.171
501.821
501.805
502.446
503.911
505.474
506.805
508.004
509.666
513.86
512.269
516.544
515.997
516.981
517.037
521.269
522.383
522.347
469.886
463.315
457.377
452.894
461.043
472.94
480.37
479.609
478.934
482.2
483.303
486.947
487.397
485.834
486.172
485.007
484.574
484.594
484.628
484.486
484.347
484.487
484.915
484.956
484.53
485.062
485.366
486.182
487.092
487.82
488.738
490.462
493.879
502.174
496.342
504.312
503.465
505.552
506.014
505.181
450.063
445.328
438.535
435.973
435.504
460.326
455.101
460.46
461.231
460.969
457.764
466.206
461.362
466.083
463.478
463.347
464.165
465.074
465.846
466.57
467.246
467.659
467.042
468.352
469.556
469.706
468.906
466.125
464.406
463.046
461.585
461.231
469.031
477.784
476.56
483.284
484.645
484.469
482.468
483.424
431.55
431.231
428.89
423.033
413.324
417.934
429.966
428.304
435.354
435.032
426.99
435.187
439.866
442.959
446.535
441.228
442.735
444.559
446.458
448.198
449.41
450.598
451.587
451.924
451.702
451.867
450.491
447.764
444.126
439.5
434.952
437.842
445.06
451.011
455.027
458.977
459.647
460.867
461.488
462.06
398.103
399.14
396.614
401.117
393.092
379.199
384.286
387.106
386.212
389.947
386.822
391.51
397.996
403.523
416.09
417.374
421
423.926
426.242
429.592
433.055
434.7
434.445
435.081
434.987
434.087
432.543
430.441
427.767
424.45
423.675
425.819
429.203
432.622
434.751
435.839
435.694
438.167
439.272
439.981
345.927
349.472
353.342
352.025
344.288
344.91
339.925
337.778
337.763
334.967
332.088
334.429
343.613
354.303
366.09
382.481
389.591
400.5
404.435
411.456
414.565
415.022
417.07
417.484
416.983
416.196
415.002
413.773
412.83
412.235
412.475
415.683
417.232
418.678
420.307
421.088
420.033
420.46
421.336
421.191
284.712
294.11
299.554
298.114
302.063
308.795
297.922
284
275.244
263.877
252.674
253.547
271.098
291.987
311.821
342.703
360.426
372.3
380.302
385.934
391.044
394.307
395.14
395.305
395.032
394.73
394.723
395.081
396.045
397.567
399.631
402.223
405.05
405.936
408.374
408.775
407.032
406.54
406.851
405.399
245.547
246.264
253.06
265.303
266.797
264.983
256.911
237.331
218.107
199.916
206.498
207.479
202.173
230.713
265.332
309.254
331.353
343.306
353.802
362.776
368.377
369.723
370.455
371.212
372.477
372.373
373.011
374.428
376.785
379.204
381.781
384.618
388.254
391.546
397.764
398.17
391.597
396.051
395.197
398.685
223.842
229.274
237.496
237.738
242.461
241.164
224.658
214.74
210.312
203.096
199.777
193.207
194.039
213.522
248.715
285.32
308.719
322.605
331.29
340.826
346.639
349.491
350.452
349.742
349.216
349.222
349.065
350.125
351.468
353.982
358.614
361.791
365.364
368.561
372.666
373.96
375.6
379.363
378.293
384.703
219.47
224.962
225.784
227.884
231.352
213.466
214.009
212.986
210.662
206.52
206.316
207.28
214.19
232.58
253.254
278.485
296.125
308.075
321.576
329.614
334.96
338.294
340.236
339.069
332.246
328.904
321.284
316.281
326.552
333.16
331.793
336.658
342.924
349.061
354.525
358.448
360.401
362.178
366.457
365.062
215.913
217.14
218.057
221.313
214.157
216.858
215.98
214.208
211.855
210.37
210.355
211.996
217.949
236.679
251.503
268.919
284.019
295.307
306.673
316.274
322.43
326.293
326.131
321.262
317.219
308.036
304.793
314.294
311.841
310.051
314.327
319.852
326.012
332.354
338.046
341.836
342.574
346.539
349.768
347.013
207.378
210.884
214.846
214.738
216.29
219.451
218.287
216.524
214.712
214.471
215.946
218.859
222.144
236.61
247.012
257.625
268.393
290.389
285.614
296.144
303.031
304.081
306.589
305.306
300.624
297.148
300.454
300.702
298.619
300.729
303.792
308.455
314.061
318.78
322.641
328.237
331.131
331.411
330.84
330.104
203.875
209.217
214.601
219.761
222.073
222.996
221.821
220.327
218.732
218.098
218.871
222.296
228.699
242.161
252.133
259.679
275.491
277.454
263.933
273.634
281.241
285.803
288.582
288.647
288.048
290.852
290.632
284.359
289.127
288.816
289.881
293.105
297.448
301.708
304.973
313.394
311.696
311.486
310.827
310.463
210.419
216.544
222.103
227.148
228.571
228.613
227.077
227.498
227.013
224.905
221.589
228.913
242.212
253.127
257.95
259.101
263.829
260.966
261.026
266.835
270.767
273.768
275.239
276.712
278.705
278.676
276.022
272.274
273.103
269.202
267.374
269.696
274.163
279.255
282.852
287.001
288.063
289.548
289.086
290.946
219.471
225.537
230.683
235.522
239.925
240.232
243.271
243.497
243.374
243.364
242.53
253.177
267.984
255.111
260.161
262.141
260.773
259.434
259.132
260.277
262.126
263.433
263.659
265.894
267.858
266.39
263.191
258.961
253.883
249.335
244.583
241.441
245.987
252.785
257.782
262.619
264.262
266.479
267.459
269.632
222.099
230.71
238.119
242.474
248.416
252.772
247.752
268.421
264.129
261.726
261.123
261.296
263.03
264.595
264.276
262.834
259.222
257.103
255.367
254.526
254.515
254.68
254.581
255.635
257.341
255.591
252.759
248.932
244.31
239.136
233.777
229.101
225.929
231.594
236.565
240.284
243.351
245.485
246.629
247.277
225.63
236.394
248.223
253.772
257.544
258.6
259.413
256.942
267.378
271.106
256.7
267.835
271.531
266.372
261.199
257.558
254.991
252.558
249.673
247.681
247.67
247.702
246.629
245.738
246.616
246.384
243.864
240.827
237.678
234.497
231.355
225.612
218.528
219.075
220.578
222.337
224.7
226.554
227.772
228.263
234.476
251.07
260.045
265.561
268.229
267.022
267.783
269.25
255.65
264.737
261.089
251.858
247.379
248.046
247.465
245.537
245.417
243.263
240.162
237.227
236.06
236.371
235.909
235.023
233.804
230.795
229.785
228.746
225.72
222.486
217.366
211.018
206.569
204.803
204.417
205.431
207.182
208.532
209.52
210.111
246.899
262.463
271.372
274.602
275.242
272.054
265.729
271.455
266.019
262.308
256.39
250.208
245.325
241.313
234.536
234.845
228.702
226.291
224.267
222.755
221.561
220.42
219.58
218.939
216.967
214.878
211.705
209.141
206.6
203.105
199.412
195.24
191.658
188.68
187.629
191.111
190.058
191.438
192.272
193.035
250.719
287.241
281.253
282.89
281.95
278.215
268.93
270.03
268.496
246.6
244.322
239.325
233.6
227.849
221.76
219.568
217.718
212.951
209.078
207.137
205.742
205.035
204.087
201.856
197.562
193.766
189.885
189.367
188.124
186.269
183.54
180.175
177.455
175.659
175.105
180.031
181.071
178.343
177.55
177.909
234.465
288.858
298.359
286.38
279.329
270.581
259.628
249.288
260.529
251.226
240.335
228.662
219.969
212.686
205.451
209.844
201.324
196.196
192.978
190.576
188.567
186.602
184.223
180.801
175.6
170.552
168.661
168.856
169.964
169.365
167.672
165.624
164.109
163.35
162.749
163.358
172.358
165.712
163.082
162.459
233.407
268.649
282.65
264.372
260.38
253.229
242.096
227.215
242.433
237.293
219.93
210.367
202.701
195.512
193.693
192.861
183.147
179.458
175.206
171.851
168.68
164.566
160.584
153.547
143.478
147.726
145.867
149.287
153.279
153.971
151.403
148.255
146.679
144.161
144.529
152.559
149.342
143.122
146.257
147.577
197.451
223.944
232.68
237.713
232.381
228.157
222.31
214.614
211.592
217.416
190.065
185.798
181.044
175.1
178.371
166.373
162.021
155.897
152.211
149.591
146.821
143.59
140.875
135.26
131.971
139.257
141.063
134.465
137.155
141.782
138.164
129.482
130.839
131.571
131.781
131.911
129.272
125.772
130.812
130.329
166.519
175.533
175.455
181.49
187.653
192.135
192.725
185.092
182.557
193.398
170.446
164.482
157.641
151.077
145.518
139.204
132.15
127.334
125.142
123.666
122.769
122.636
122.941
123.067
123.293
130.088
132.843
132.388
128.064
126.656
125.182
124.98
124.797
124.136
122.998
120.59
117.23
114.336
115.931
116.334
139.671
141.436
149.637
154.904
159.164
162.747
162.497
159.152
157.71
169.621
157.967
146.154
134.485
123.945
114.778
105.8
97.362
91.5149
90.5512
93.7486
97.8368
101.191
104.941
109.426
113.696
118.236
120.989
114.483
116.288
118.759
119.029
117.322
115.767
114.985
112.594
108.48
104.83
103.022
100.832
100.307
116.856
119.8
125.379
135.742
140.571
142.236
141.324
139.054
136.546
151.496
141.773
121.113
108.734
96.0227
83.8138
73.2971
66.7111
70.7379
62.7431
66.8705
75.9111
82.0948
86.6807
91.2295
95.6944
98.6953
100.181
97.866
97.0429
94.0557
93.1676
94.6749
94.9914
93.8048
91.0918
89.0061
86.8301
83.9114
87.3034
84.2233
96.4599
105.562
115.412
114.797
121.616
124.684
124.42
123.574
120.97
114.77
109.294
98.3993
86.4895
74.0007
63.0475
53.2265
50.0931
55.571
51.7009
52.2137
59.0666
63.6397
66.8143
69.9259
73.4061
76.0223
77.3614
77.7489
77.1753
75.6492
74.6797
73.8669
72.2162
70.3896
68.7339
67.4397
66.3982
65.2605
65.535
64.8064
124.489
120.578
118.594
127.964
120.313
115.053
111.402
111.221
107.062
101.511
93.0458
81.569
70.5408
59.6563
48.3251
37.5211
41.3731
42.0011
44.7897
45.9232
54.8698
57.3007
49.2841
50.6547
54.5159
56.96
57.6083
57.8065
57.7049
56.5506
54.7328
52.6139
49.8362
46.7793
44.3332
43.6677
40.628
40.4553
39.0419
40.0349
129.799
124.411
122.909
130.996
130.018
120.817
115.814
107.317
96.8627
83.5176
72.636
63.5317
57.1178
48.1234
43.4534
42.6851
34.8742
38.2564
39.3207
39.1821
49.9159
64.7889
64.7628
49.1273
44.1721
42.6554
43.0526
43.4726
43.9131
42.5096
39.0922
34.3983
28.7966
20.0627
14.8248
15.5403
14.9073
14.0168
14.1716
13.723
133.767
126.893
122.464
122.525
120.065
114.826
106.317
102.302
92.3361
81.5788
71.7319
63.4912
56.6992
52.2602
47.8248
42.4033
32.3567
26.7639
22.8061
22.0645
30.4165
39.2389
44.3453
45.0323
29.4607
22.461
26.9014
31.4688
39.6769
41.4672
37.6267
31.9154
26.3677
4.24854
-2.53815
0.245611
3.24892
3.53472
3.31323
2.47744
128.854
121.401
111.06
106.556
103.219
100.345
92.1859
81.3089
70.934
61.4694
51.1879
46.5443
40.2868
35.0251
29.7604
24.5132
19.2221
12.5893
11.3595
13.4313
21.3475
29.8696
27.8885
10.1399
14.4145
8.75925
5.49666
8.25202
23.9724
30.6985
20.719
5.21076
4.88662
4.10139
1.84531
1.39092
1.6784
1.78041
1.68074
1.59007
104.703
92.2137
83.1277
77.8424
71.7022
65.5627
58.289
48.8375
39.372
30.1333
29.4674
34.3954
31.6619
26.9388
23.7922
20.3201
15.7352
12.1969
10.6102
11.0545
13.8739
18.2435
18.6309
6.21607
3.53969
3.78201
2.1823
1.64112
1.57939
9.09443
19.0529
22.7476
8.49283
1.08127
0.766066
0.729631
1.03337
1.25279
1.22811
1.20276
73.4281
62.8788
54.8905
47.3775
41.2376
35.4486
28.1476
12.2508
1.48777
16.409
17.0998
16.276
21.2681
22.2189
20.8685
17.3946
12.7971
8.34306
4.43014
1.59773
-0.306554
0.0357612
-0.478602
-0.66771
-0.236628
1.17436
0.505005
1.04939
-1.00417
-0.564414
-0.434106
-0.76343
-0.704345
-0.66109
-0.469067
0.0729537
0.369105
0.536021
0.614025
0.653463
34.5213
31.2698
19.0408
12.485
3.65975
1.65746
1.52501
2.68938
5.31255
5.38047
14.7414
18.331
18.0858
20.3397
24.156
18.653
13.1995
9.68421
-0.223287
-0.31838
-0.223809
-0.0636323
0.150017
-0.583788
0.622292
0.116007
-0.495067
-0.668685
-0.726099
-0.698036
-0.720806
-0.76555
-0.763536
-0.441056
-0.445363
-0.250035
-0.0844062
0.0287186
0.102965
0.152481
2.27933
10.1321
9.82052
-9.53561
0.535155
0.131401
-2.07802
-3.66826
0.509364
9.2008
8.73768
10.1424
9.99985
20.3763
12.6877
3.99455
-0.0386955
0.1206
-0.738264
-0.42765
-0.365686
-0.43963
-0.497608
-0.639334
-0.652238
-0.596418
-0.588903
-0.638942
-0.7188
-0.774967
-0.789387
-0.838175
-0.96007
-0.632149
-0.623449
-0.445508
-0.324242
-0.249096
-0.207918
-0.176815
-3.50072
28.497
22.1801
8.71832
-0.5368
0.250674
-0.20206
0.0726825
0.455957
0.504949
3.69674
5.37281
4.3829
0.753453
-0.401231
-0.53617
-0.549801
-0.496996
-0.555857
-0.55851
-0.544405
-0.52683
-0.536354
-0.570035
-0.600274
-0.61094
-0.614937
-0.642033
-0.664294
-0.766303
-0.81947
-0.920871
-0.806614
-0.844941
-0.707652
-0.56763
-0.463587
-0.398564
-0.362018
-0.347244
19.2431
10.1268
-0.646092
-0.604445
-0.716254
-0.552105
-0.499378
-0.453284
-0.496806
-0.598213
-0.580286
-0.596076
-0.601533
-0.583819
-0.545683
-0.54709
-0.628341
-0.553728
-0.557214
-0.608015
-0.593433
-0.576684
-0.573547
-0.586923
-0.593389
-0.593165
-0.602179
-0.613768
-0.635518
-0.715099
-0.744673
-0.782721
-0.789568
-0.748195
-0.676972
-0.596817
-0.532483
-0.487671
-0.462065
-0.447796
1.44128
-0.0649126
-0.517929
-0.485998
-0.543613
-0.56235
-0.575566
-0.54295
-0.517996
-0.551412
-0.583738
-0.597841
-0.610084
-0.620225
-0.616787
-0.609818
-0.623165
-0.645377
-0.649601
-0.639449
-0.629407
-0.621928
-0.598251
-0.615441
-0.600884
-0.607324
-0.592975
-0.586477
-0.625634
-0.657762
-0.673285
-0.677263
-0.664265
-0.645573
-0.637433
-0.610953
-0.587196
-0.563868
-0.549091
-0.532274
-0.601404
-0.620758
-0.576759
-0.522359
-0.525777
-0.536607
-0.519732
-0.503647
-0.504373
-0.534953
-0.571088
-0.599903
-0.615367
-0.630463
-0.642886
-0.656687
-0.647832
-0.65814
-0.670479
-0.668603
-0.662134
-0.663996
-0.66015
-0.658503
-0.647902
-0.63213
-0.591844
-0.619898
-0.602287
-0.627972
-0.612972
-0.599008
-0.588519
-0.599926
-0.62376
-0.628763
-0.618187
-0.605821
-0.594457
-0.578222
-0.486376
-0.536249
-0.58198
-0.581235
-0.583983
-0.582607
-0.572378
-0.562353
-0.582408
-0.602085
-0.627464
-0.647241
-0.667446
-0.683471
-0.696848
-0.703533
-0.704605
-0.709795
-0.714053
-0.713069
-0.712766
-0.714332
-0.712762
-0.709544
-0.70193
-0.690046
-0.647509
-0.647119
-0.647476
-0.634552
-0.634074
-0.615469
-0.595528
-0.58046
-0.586515
-0.614692
-0.622368
-0.619469
-0.615887
-0.608866
-0.604769
-0.676011
-0.671906
-0.652424
-0.64667
-0.64942
-0.653941
-0.661012
-0.672789
-0.691109
-0.697846
-0.713438
-0.726316
-0.737271
-0.744696
-0.749983
-0.757569
-0.758356
-0.758511
-0.765152
-0.777043
-0.784767
-0.785536
-0.776611
-0.762417
-0.753399
-0.727727
-0.715572
-0.720314
-0.70723
-0.688254
-0.668494
-0.655781
-0.651468
-0.656949
-0.661073
-0.65024
-0.641486
-0.636319
-0.633691
-0.756291
-0.753229
-0.772931
-0.737885
-0.732878
-0.7331
-0.725872
-0.72456
-0.731447
-0.739491
-0.746611
-0.753888
-0.760599
-0.766581
-0.773532
-0.782606
-0.7934
-0.80727
-0.811251
-0.823563
-0.836134
-0.83727
-0.834525
-0.832257
-0.820012
-0.805677
-0.786973
-0.771234
-0.761161
-0.752872
-0.747523
-0.74411
-0.742369
-0.732512
-0.709582
-0.68998
-0.674583
-0.670899
-0.664657
-0.660283
-0.832717
-0.819781
-0.841582
-0.785248
-0.8127
-0.793678
-0.783095
-0.781469
-0.774686
-0.778861
-0.781242
-0.78527
-0.790031
-0.795605
-0.802974
-0.812095
-0.822231
-0.836162
-0.850578
-0.862158
-0.868167
-0.869601
-0.866247
-0.858771
-0.847205
-0.834965
-0.818039
-0.802875
-0.790193
-0.776801
-0.76622
-0.755306
-0.749722
-0.746314
-0.728563
-0.727862
-0.718594
-0.699638
-0.691012
-0.664256
-0.951638
-0.940787
-0.932586
-0.853027
-0.867712
-0.84765
-0.847768
-0.823757
-0.812124
-0.810182
-0.815931
-0.821868
-0.824279
-0.830111
-0.837791
-0.845326
-0.854143
-0.864831
-0.875495
-0.884402
-0.888158
-0.888183
-0.885252
-0.879293
-0.870906
-0.859816
-0.846239
-0.8333
-0.820872
-0.804975
-0.792174
-0.783082
-0.777251
-0.765835
-0.75353
-0.743903
-0.735418
-0.739691
-0.723164
-0.732865
-1.0182
-1.00082
-0.984642
-0.937175
-0.902001
-0.891891
-0.876963
-0.863877
-0.85629
-0.853538
-0.851797
-0.856385
-0.852431
-0.865307
-0.874708
-0.881996
-0.889835
-0.896699
-0.9025
-0.906905
-0.909075
-0.908632
-0.90597
-0.901424
-0.895028
-0.885445
-0.874846
-0.862701
-0.84786
-0.834528
-0.825215
-0.815982
-0.799364
-0.78925
-0.786021
-0.779589
-0.770949
-0.773266
-0.767031
-0.778802
-1.05621
-1.01136
-0.976693
-0.946142
-0.92221
-0.911593
-0.902851
-0.892907
-0.888344
-0.886452
-0.885882
-0.878354
-0.884034
-0.875181
-0.901159
-0.908276
-0.915737
-0.922457
-0.928302
-0.932407
-0.933514
-0.932584
-0.92961
-0.924782
-0.917949
-0.907734
-0.89537
-0.882927
-0.86816
-0.856186
-0.847223
-0.837484
-0.822208
-0.819212
-0.824865
-0.812905
-0.803334
-0.79553
-0.79714
-0.791417
-0.9775
-0.935449
-0.903156
-0.917514
-0.916939
-0.918537
-0.920189
-0.919184
-0.901069
-0.901287
-0.898915
-0.90113
-0.89715
-0.897385
-0.9151
-0.920909
-0.926585
-0.932938
-0.939371
-0.943247
-0.944592
-0.943796
-0.940587
-0.935761
-0.929134
-0.919668
-0.907248
-0.893214
-0.879487
-0.866666
-0.855622
-0.847608
-0.843633
-0.842514
-0.824743
-0.839701
-0.815474
-0.824104
-0.809417
-0.810654
-0.918259
-0.899071
-0.876472
-0.923809
-0.927829
-0.934286
-0.936552
-0.938396
-0.933864
-0.907065
-0.902244
-0.924748
-0.910285
-0.914442
-0.920947
-0.924826
-0.927992
-0.932247
-0.936523
-0.939402
-0.940527
-0.940024
-0.938116
-0.934388
-0.929065
-0.921377
-0.911297
-0.899619
-0.887856
-0.87633
-0.867181
-0.860548
-0.858758
-0.861909
-0.85149
-0.854024
-0.845411
-0.834053
-0.822821
-0.834436
-0.972909
-0.946943
-0.932402
-0.958198
-0.95939
-0.96
-0.957818
-0.955995
-0.950552
-0.93076
-0.92288
-0.933954
-0.927444
-0.9235
-0.932886
-0.929955
-0.929987
-0.933371