/*--------------------------------*- C++ -*----------------------------------*\
  =========                 |
  \\      /  F ield         | OpenFOAM: The Open Source CFD Toolbox
   \\    /   O peration     | Website:  https://openfoam.org
    \\  /    A nd           | Version:  8
     \\/     M anipulation  |
\*---------------------------------------------------------------------------*/
FoamFile
{
    version     2.0;
    format      ascii;
    class       volScalarField;
    location    "0.8";
    object      alpha.water;
}
// * * * * * * * * * * * * * * * * * * * * * * * * * * * * * * * * * * * * * //

dimensions      [0 0 0 0 0 0 0];

internalField   nonuniform List<scalar> 
9150
(
1
1
1
1
1
1
1
1
1
1
1
1
1
1
1
1
1
1
1
1
1
1
1
1
1
1
1
1
1
1
1
1
1
1
1
1
1
1
1
1
1
1
1
1
1
1
1
1
1
1
1
1
1
1
1
1
1
1
1
1
1
1
1
1
1
1
1
1
1
1
1
1
1
1
1
1
1
1
1
1
1
1
1
1
1
1
1
1
1
1
1
1
1
1
1
1
1
1
1
1
1
1
1
1
1
1
1
1
1
1
1
1
1
1
1
1
1
1
1
1
1
1
1
1
1
1
1
1
1
1
1
1
1
1
1
1
1
1
1
1
1
1
1
1
1
1
1
1
1
1
0.469765
0.572933
0.58602
0.590163
0.590163
0.590163
0.589536
0.576977
0.569355
0.480223
0.121266
0.119425
0.191088
0.471456
0.590163
0.590159
0.274461
0.120989
0.0667843
0.0603738
0.138298
0.119425
0.119425
0.268241
0.590159
0.475278
0.00612787
0.00611063
0.00611066
0.00611062
0.270391
0.206438
0.189396
0.517488
0.590089
0.483972
0.0333501
0.00611162
0.00611048
0.00611066
0.270285
0.268703
0.304749
0.400469
0.589791
0.57295
0.0875951
0.0165601
0.00611162
0.00611903
0.256598
0.136782
0.079969
0.0873557
0.589485
0.588622
0.123798
0.11329
0.00614334
0.00631928
0.102289
0.138777
0.0655266
0.0615543
0.586268
0.570412
0.121882
0.196724
0.0410518
0.00651065
0.0983759
0.0981156
0.0658679
0.039724
0.523988
0.557099
0.071746
0.217482
0.193911
0.0065641
0.152432
0.0426902
0.00498067
0.0108027
0.4549
0.555252
0.0691247
0.214946
0.368158
0.102481
0.153413
0.046277
0.00368406
0.00367833
0.408454
0.570909
0.128992
0.181461
0.368621
0.36972
0.126644
0.0415675
0.00367833
0.0036605
0.381669
0.570921
0.209409
0.112659
0.309008
0.370697
0.0559345
0.026999
0.00367833
0.00367833
0.393514
0.569234
0.157551
0.007916
0.0996398
0.261094
0.283751
0.117789
0.00411955
0.00367833
0.415038
0.566387
0.0872378
0.00275188
0.00339031
0.0120434
0.283751
0.283751
0.110731
0.0167724
0.461549
0.56413
0.0430997
0.00168173
0.00148469
0.00316155
0.283751
0.280842
0.0900356
0.015537
0.532447
0.501856
0.0132309
0.00057026
0.000339266
0.00235479
0.0578025
0.128181
0.0416723
0.0135905
0.570918
0.544439
0.00034847
0.000338611
0.000340008
0.000440514
0.000493236
0.0162205
0.0109439
0.0127336
0.605334
0.600086
0.000533564
0.000548873
0.000577247
0.000318637
0.00624487
0.00779652
0.00382483
0.00899133
0.60623
0.606451
0.00954053
0.000882646
0.000872695
0.000512551
0.00638532
0.00093872
0.00298401
0.013163
0.602569
0.606462
0.0123443
0.000639738
0.000865003
0.000378919
0.00612935
0.000694738
0.00338414
0.00851463
0.601395
0.604278
0.00319481
0.000371009
0.000756526
0.000288063
0.000746002
0.000627243
0.00400813
0.00228191
0.599234
0.596193
1.96547e-06
0.000160954
0.000240242
0.000284626
0.000183578
0.000637349
0.00407505
0.000669035
0.600485
0.594932
1.39775e-06
7.35163e-05
0.000177444
0.000695133
0.000151311
0.000701811
0.00406979
0.00011961
0.614217
0.606159
6.86519e-07
6.32322e-05
0.000404842
0.00142545
0.000130194
0.000723758
0.0014886
0.000121697
0.620457
0.617429
1.86416e-07
4.78142e-05
0.000812082
0.00143463
0.000123194
0.000280349
0.000126398
0.00013003
0.620464
0.62038
9.14636e-08
3.07825e-05
0.000489496
0.0011473
0.000120826
0.000112053
0.000106971
0.000106363
0.62019
0.618577
9.13417e-08
1.39732e-05
0.000566926
0.000836233
0.000487052
0.000107673
0.00010636
0.000106385
0.614668
0.613119
9.11734e-08
9.13417e-08
0.000311591
0.00084036
0.00265638
0.000108629
0.000107497
0.000106385
0.611384
0.610721
9.10752e-08
9.11734e-08
0.000203944
0.000822454
0.00325258
0.00144869
0.000106929
0.000106683
0.611362
0.610684
9.08113e-08
9.10752e-08
7.2787e-05
0.000767331
0.00325258
0.00193925
0.000106584
0.000106599
0.611298
0.611034
9.03421e-08
5.5542e-07
4.60495e-06
0.000668658
0.00290684
0.000284318
0.000106627
0.000106585
0.60933
0.608658
8.87788e-08
4.27104e-07
6.70781e-05
0.000345293
0.00271861
0.000530172
0.000870116
0.000101341
0.606328
0.604971
8.69351e-08
1.50031e-06
9.35257e-05
7.95508e-05
0.00261715
0.00267616
0.00265981
9.56842e-05
0.605078
0.603766
8.50688e-08
1.57858e-06
5.72395e-05
7.85402e-05
0.000284491
0.000756157
0.00714938
9.57194e-05
0.611946
0.60724
8.25111e-08
1.57073e-06
1.56832e-06
8.51212e-05
4.11678e-05
4.69331e-05
0.00966902
9.56632e-05
0.625182
0.618934
8.00908e-08
1.58769e-06
1.56814e-06
5.57889e-05
3.91131e-05
0.000135294
0.00966004
7.75233e-05
0.639432
0.63367
7.86107e-08
1.11501e-06
5.55738e-06
3.00784e-06
3.48256e-05
0.0113315
0.00923312
4.87496e-05
0.651653
0.647457
7.83528e-08
2.85896e-07
6.15206e-06
3.20452e-06
0.0129177
0.0129265
0.0126516
2.93659e-05
0.659735
0.656865
7.8353e-08
7.83529e-08
5.23027e-06
6.39396e-06
0.00892459
0.012934
0.0129255
1.03275e-05
0.665946
0.664008
7.8353e-08
7.83533e-08
3.01535e-07
5.47301e-06
0.0062438
0.00992305
0.00628909
1.51306e-07
0.670309
0.668431
7.83533e-08
7.83578e-08
7.84326e-08
1.06238e-07
0.000683415
0.000283035
0.000975189
1.51306e-07
0.677611
0.675452
7.83578e-08
7.83951e-08
7.84326e-08
7.84938e-08
3.51053e-05
0.000269883
0.000958473
1.51305e-07
0.683421
0.681133
7.83951e-08
7.87044e-08
7.84938e-08
7.95992e-08
5.17299e-05
0.00042516
0.00109797
1.51306e-07
0.69081
0.688374
7.87044e-08
5.21744e-07
7.95992e-08
1.8476e-06
3.79465e-05
0.000103734
0.000925707
1.5132e-07
0.697238
0.695264
8.13226e-08
3.12953e-05
1.05509e-07
2.63279e-05
3.67777e-05
1.04269e-05
1.52554e-07
1.5145e-07
0.702151
0.700677
1.00257e-07
4.75242e-05
8.31655e-06
1.02487e-06
7.06629e-05
4.93172e-06
7.28686e-05
1.52554e-07
0.706078
0.704704
1.43077e-07
4.76061e-05
0.000100464
2.39124e-08
5.51844e-05
5.30949e-06
0.000235458
1.61523e-07
0.71085
0.709909
2.02514e-07
3.35432e-05
0.000134665
1.43992e-08
8.74987e-07
2.5035e-06
0.000236967
2.32142e-07
0.712633
0.711263
2.59e-07
2.18531e-05
0.000134922
2.33346e-07
4.82504e-07
4.84386e-07
0.000175516
7.82372e-07
0.72021
0.719021
3.00714e-07
1.65133e-05
0.000134994
1.25821e-05
1.40047e-06
4.82511e-07
4.95674e-07
9.29679e-07
0.720998
0.71962
3.31546e-07
1.31679e-05
0.000134988
8.89058e-05
3.58621e-06
5.00574e-07
5.85582e-07
9.60053e-07
0.730524
0.72921
3.84302e-07
6.77635e-06
0.000134988
0.000134533
5.36576e-07
5.29515e-07
0.000733209
2.66608e-06
0.731216
0.729476
6.68469e-07
2.39764e-06
8.56549e-05
0.000134239
1.72943e-06
5.28042e-07
0.00131144
1.50428e-05
0.743897
0.742078
1.03989e-06
1.15517e-06
3.95083e-05
0.000133998
3.59238e-06
5.40575e-07
0.00131606
0.00118157
0.74548
0.745251
1.15521e-06
1.15521e-06
0.0001053
6.71211e-05
3.58625e-06
5.66676e-07
0.00125228
0.00570517
0.75562
0.755386
0.00433487
1.1112e-06
0.000141565
3.25664e-06
2.68293e-06
9.04631e-07
0.0014593
0.00762987
0.76006
0.759674
0.00644863
9.57332e-07
0.0001416
1.68861e-05
2.33257e-06
0.000467531
0.00189791
0.0124032
0.769635
0.769262
0.0111639
7.60463e-07
0.000141565
7.32589e-05
2.52582e-06
0.00252585
0.0021002
0.0150165
0.77508
0.774744
0.0138903
6.36873e-07
9.32762e-05
0.000100555
0.000951811
0.00347789
0.00196183
0.0197204
0.783764
0.783367
0.0187971
5.48209e-07
5.17574e-05
8.61825e-05
0.00311237
0.00347444
0.00051871
0.022283
0.788695
0.788151
0.0215438
4.57725e-07
0.000104651
1.69529e-05
0.00182562
0.0034785
3.11409e-07
0.027475
0.797283
0.796727
0.0268869
3.30884e-07
0.000117191
7.19283e-10
0.000369796
0.000351367
1.55555e-07
0.0306963
0.801996
0.801563
0.030161
1.56401e-07
0.000117191
7.19283e-10
0.00153495
0.00106088
5.05503e-13
0.0350588
0.808547
0.807971
0.0346905
7.03381e-08
6.67556e-05
7.20586e-10
0.00112729
0.000367691
5.05503e-13
0.0389983
0.813384
0.813045
0.0383755
3.78139e-08
1.49683e-09
7.52999e-10
2.77606e-12
2.41213e-05
5.05229e-13
0.043995
0.820582
0.820007
0.0436141
7.16531e-08
6.38315e-05
1.49683e-09
1.13207e-12
5.11883e-13
5.05503e-13
0.0477955
0.825444
0.824804
0.047387
2.1356e-07
0.000160971
1.73915e-07
2.36321e-10
5.36888e-11
4.91172e-13
0.0543695
0.834012
0.833306
0.0539883
6.5002e-07
0.000161169
1.42627e-05
8.37906e-11
5.31558e-11
4.30925e-13
0.0588278
0.839393
0.838664
0.0584007
1.19542e-06
0.000160383
0.000144486
3.965e-11
3.63977e-11
3.54396e-13
0.0671547
0.849303
0.848542
0.0667544
1.83205e-06
0.000162861
0.000204803
3.50026e-11
3.32477e-11
2.83309e-13
0.0724556
0.854984
0.854249
0.0720271
2.64361e-06
0.000213007
0.000204529
3.62269e-11
3.04048e-11
2.20441e-13
0.0827611
0.865645
0.864923
0.082363
3.07749e-06
0.000334707
0.000179899
3.6319e-11
2.6363e-11
1.6419e-13
0.089147
0.871327
0.870647
0.0887285
2.36184e-06
0.000355183
0.000206074
3.47276e-11
2.17111e-11
1.19097e-13
0.10182
0.88256
0.881908
0.101405
1.38971e-06
0.000355005
0.000303329
3.00257e-11
1.70401e-11
8.17885e-14
0.10995
0.888554
0.887948
0.1095
5.54253e-07
0.000345679
0.000360317
2.47332e-11
1.24354e-11
5.50139e-14
0.125278
0.900225
0.899597
0.124895
4.36458e-07
0.00016906
0.000360319
1.90004e-11
8.63522e-12
3.51579e-14
0.135426
0.906559
0.90599
0.135033
4.36604e-07
4.3645e-07
0.000200857
1.34743e-11
5.28978e-12
2.31971e-14
0.153287
0.918065
0.917506
0.152948
3.91356e-07
1.77961e-05
1.80761e-05
8.45031e-12
3.05177e-12
1.57421e-14
0.164783
0.923979
0.923484
0.164441
2.27283e-07
7.3836e-05
0.000178007
4.55293e-12
1.4624e-12
1.23488e-14
0.184984
0.93461
0.934204
0.184611
6.34461e-08
8.14563e-05
0.000280189
2.04664e-12
6.50478e-13
1.07545e-14
0.197752
0.93971
0.939377
0.197369
1.13991e-08
2.94368e-05
0.000280173
7.7924e-13
2.41401e-13
1.02763e-14
0.221474
0.949548
0.949339
0.221024
3.29633e-09
3.88112e-06
0.000166794
2.60527e-13
8.63443e-14
1.01603e-14
0.237361
0.954319
0.954194
0.236861
1.28733e-09
3.29633e-09
6.73054e-05
8.56644e-14
2.39375e-14
6.28134e-15
0.26757
0.963908
0.963817
0.267069
1.17247e-10
1.28733e-09
3.77923e-05
2.80606e-14
2.1397e-15
1.28562e-15
0.289615
0.968832
0.968785
0.289096
3.11733e-11
1.17247e-10
1.1447e-08
1.08814e-14
1.38067e-16
1.67369e-16
0.330242
0.97808
0.978009
0.329769
1.94724e-11
2.1447e-11
2.24479e-09
4.70656e-15
1.11125e-16
1.24519e-16
0.360946
0.982809
0.982754
0.360532
9.76591e-12
-2.87343e-14
3.33572e-14
1.87505e-15
1.02418e-16
1.06718e-16
0.413377
0.989879
0.98984
0.413015
1.88349e-14
1.67962e-14
1.82593e-14
4.36068e-16
1.02073e-16
1.02553e-16
0.453831
0.992902
0.992913
0.453553
1.67992e-14
1.49312e-14
4.93401e-13
7.86114e-17
7.88318e-17
9.11623e-17
0.521806
0.996269
0.996335
0.521538
8.96168e-15
1.88205e-15
2.2677e-12
7.90537e-17
7.94482e-17
1.20601e-15
0.57478
0.997526
0.997599
0.574632
1.88205e-15
1.24789e-15
1.39648e-15
7.98241e-17
8.23268e-17
9.15307e-14
0.662293
0.998107
0.998184
0.662153
4.20071e-14
8.64565e-16
8.57392e-16
8.47892e-17
8.9424e-17
5.96286e-12
0.729465
0.998957
0.999003
0.729349
3.47476e-12
8.51443e-16
8.45432e-16
8.94583e-17
1.075e-16
0.0252795
0.816774
0.999302
0.999339
0.816679
0.0210437
4.93294e-16
1.432e-16
7.48899e-17
9.7633e-15
0.104602
0.875664
0.999757
0.999767
0.875555
0.0977348
7.31087e-17
2.14646e-18
2.82544e-18
4.72766e-12
0.220732
0.945178
0.999881
0.999907
0.945516
0.218429
6.28601e-13
1.10127e-18
8.87744e-19
1.61749e-09
0.385746
0.981093
0.999983
0.999991
0.98265
0.413159
8.30451e-10
8.97548e-19
-1.16053e-17
2.65819e-07
0.635283
0.999987
0.999991
0.999997
0.999994
0.702752
2.3197e-07
7.00369e-19
-1.00088e-14
0.0944478
0.849849
0.999995
1
1
0.999999
0.904925
0.160106
-6.97123e-16
-8.57948e-13
0.605701
0.999982
1
1
1
1
0.999981
0.642308
-8.9345e-13
0.359156
0.971074
1
1
1
1
1
1
0.984044
0.410282
0.50263
0.586608
0.587513
0.587649
0.587669
0.587671
0.587671
0.587671
0.583572
0.211158
0.210381
0.456838
0.614212
0.614051
0.613925
0.61388
0.613913
0.613645
0.602867
0.495303
0.571256
0.60362
0.604601
0.605158
0.605262
0.605275
0.605269
0.591359
0.577359
0.586614
0.588548
0.588458
0.588458
0.464981
0.530964
0.534334
0.534395
0.5344
0.534397
0.499616
0.105185
0.104471
0.105352
0.147986
0.563118
0.587669
0.587671
0.571545
0.418732
0.435969
0.489807
0.614212
0.614212
0.614212
0.614051
0.613396
0.61366
0.407946
0.205215
0.15552
0.144462
0.430723
0.603349
0.439358
0.0701446
0.00619389
0.310609
0.589374
0.584452
0.489545
0.251424
0.369147
0.515281
0.280192
0.274769
0.530403
0.534334
0.534395
0.534397
0.47854
0.00611066
0.00611262
0.150519
0.473512
0.571645
0.533798
0.492777
0.449868
0.476918
0.544994
0.521629
0.613841
0.614212
0.614051
0.288525
0.296547
0.31696
0.464868
0.54851
0.404443
0.0556092
0.00200823
0.00100999
0.000672515
0.000372719
0.00251829
0.0379111
0.0492712
0.0351353
0.0135434
0.0010964
0.00028087
0.000334015
0.0017888
0.000698912
0.0948731
0.495658
0.534287
0.5266
0.476028
0.00611262
0.254265
0.564127
0.538054
0.281381
0.264941
0.276346
0.561462
0.595848
0.320858
0.317459
0.611891
0.613841
0.225318
0.087621
0.491458
0.638646
0.638926
0.638942
0.638974
0.251008
0.00193745
0.00135672
0.000856228
0.000315182
0.000154249
0.000282076
0.00171963
0.00252895
0.00178174
0.000318794
0.000275563
0.000841182
0.000618041
7.49246e-05
0.000433089
0.223663
0.477469
0.452185
0.48908
0.0487201
0.419143
0.565971
0.47794
0.26474
0.264685
0.274354
0.596132
0.596034
0.320971
0.332522
0.602307
0.284437
0.0353792
0.0868096
0.410096
0.611806
0.638942
0.638977
0.638974
0.550507
0.0968352
0.000144729
0.000392772
0.000203574
6.54563e-05
5.52139e-05
7.98759e-05
8.04635e-05
7.61781e-05
0.000205375
0.000286177
0.000283713
9.49285e-05
3.01576e-05
7.49995e-05
0.0338307
0.332493
0.503372
0.504596
0.00651065
0.218554
0.565282
0.566074
0.273966
0.264941
0.467503
0.596155
0.596132
0.351588
0.496681
0.231542
0.0220478
0.0220478
0.0430213
0.0372081
0.19969
0.596611
0.638973
0.638977
0.638973
0.428054
6.66671e-05
6.67691e-05
0.000207149
0.000111986
2.05931e-05
2.0353e-05
2.04046e-05
7.4841e-05
9.17005e-05
7.58848e-05
2.09771e-05
2.15241e-05
2.59616e-05
3.01735e-05
0.000720778
0.232503
0.504596
0.504652
0.00656409
0.0138927
0.350592
0.587687
0.586058
0.490632
0.595128
0.596132
0.403207
0.357151
0.496577
0.0553187
0.0222909
0.0220478
0.0222909
0.0230506
0.0242656
0.27368
0.638885
0.638973
0.638885
0.587079
0.0233068
6.56819e-05
0.000191544
0.000351119
5.25914e-05
2.03305e-05
2.0287e-05
2.47853e-05
2.02922e-05
2.03626e-05
2.06275e-05
2.09756e-05
2.1522e-05
2.54699e-05
9.06213e-05
0.0912883
0.438364
0.504655
0.00693782
0.0073681
0.220426
0.587504
0.587687
0.587389
0.56709
0.265669
0.272257
0.528998
0.495422
0.0357605
0.022639
0.052978
0.0715238
0.0825106
0.0612734
0.194401
0.637281
0.638885
0.63646
0.36218
0.0246349
6.53951e-05
6.53951e-05
0.000141263
0.000145458
2.03715e-05
2.02721e-05
2.02575e-05
2.02515e-05
2.02953e-05
2.03624e-05
2.45405e-05
2.37556e-05
2.88825e-05
6.45349e-05
0.0039246
0.386131
0.504681
0.0073681
0.00881815
0.0687157
0.522933
0.587509
0.587361
0.43551
0.26441
0.264892
0.606452
0.662221
0.388695
0.353854
0.550094
0.600655
0.61528
0.553016
0.405109
0.609807
0.569461
0.265241
0.0174062
2.21795e-05
9.28435e-05
0.000100978
6.41786e-05
0.000133205
2.1374e-05
2.02579e-05
2.02437e-05
2.02362e-05
2.02513e-05
2.03775e-05
2.59817e-05
0.0101472
0.102321
0.264735
0.227169
0.471443
0.504706
0.19569
0.0099558
0.0104588
0.129109
0.5443
0.585033
0.583936
0.403754
0.188582
0.378295
0.672826
0.679463
0.679999
0.680022
0.680022
0.680022
0.68002
0.679929
0.198727
0.0522558
2.1927e-05
2.20605e-05
2.21194e-05
0.000139317
0.00027751
0.000107058
2.66346e-05
2.64817e-05
2.10716e-05
2.02354e-05
2.02242e-05
2.01977e-05
2.26887e-05
4.10465e-05
0.125667
0.472902
0.503795
0.504282
0.504706
0.504708
0.371498
0.284321
0.011327
0.0119815
0.0730709
0.28529
0.538861
0.492337
0.185365
0.0304022
0.265138
0.564687
0.679608
0.680021
0.680024
0.680021
0.679993
0.61833
0.0432176
2.1927e-05
2.18066e-05
2.1927e-05
2.20757e-05
5.5443e-05
0.00027751
0.000275648
2.02212e-05
2.01999e-05
2.0208e-05
2.02366e-05
2.01928e-05
2.01682e-05
3.15813e-05
0.000138957
0.17673
0.503795
0.50426
0.504684
0.504708
0.504708
0.371498
0.371675
0.357627
0.259607
0.141287
0.115407
0.114788
0.487877
0.367327
0.0279967
0.00690058
0.0159626
0.431422
0.679988
0.680021
0.68001
0.679966
0.585259
0.0382169
2.18065e-05
2.16103e-05
2.18066e-05
3.65928e-05
0.000159367
0.00027751
0.00025257
2.02144e-05
2.0206e-05
2.02151e-05
2.02244e-05
2.02236e-05
2.01543e-05
3.88237e-05
0.00112954
0.0874804
0.306054
0.480019
0.504704
0.504708
0.504708
0.0148302
0.0431292
0.13487
0.240123
0.331146
0.268521
0.263153
0.482702
0.479941
0.217366
0.00412672
0.00350435
0.0186023
0.513701
0.680011
0.680005
0.680004
0.678426
0.238385
2.16066e-05
2.15499e-05
2.11746e-05
7.42625e-05
0.000155944
5.69878e-05
2.02096e-05
2.02137e-05
2.02276e-05
2.02258e-05
2.01568e-05
2.01789e-05
2.02171e-05
7.92646e-05
0.00148807
0.00480269
0.0161722
0.121995
0.340924
0.494454
0.504708
0.000447229
7.27311e-05
7.27311e-05
0.0111462
0.0147436
0.0383405
0.0161356
0.158325
0.479941
0.287704
0.00618603
0.00314232
0.00142191
0.119352
0.680031
0.680004
0.680005
0.679898
0.504122
2.15794e-05
2.11715e-05
2.05118e-05
4.13506e-05
4.68333e-05
2.02286e-05
2.02164e-05
2.02326e-05
2.02441e-05
2.02408e-05
2.0116e-05
2.0113e-05
2.01636e-05
0.000104883
0.00031041
3.87541e-05
7.02543e-05
0.000248671
0.0224724
0.158132
0.504708
0.00252467
0.00159533
0.000116668
2.54976e-05
5.38158e-05
2.0146e-05
9.44075e-05
1.18236e-05
0.187475
0.282002
0.083024
0.00183709
0.000787267
0.0217229
0.478888
0.680004
0.679994
0.679968
0.654784
0.108295
2.05089e-05
2.04737e-05
2.03904e-05
2.02288e-05
2.0228e-05
2.02292e-05
2.02876e-05
2.02165e-05
2.01163e-05
2.00965e-05
2.00965e-05
2.00895e-05
2.67241e-05
2.08512e-05
2.86543e-05
3.87541e-05
7.02543e-05
0.000248671
0.00195685
0.225638
0.000929178
0.000687911
7.94036e-05
1.09717e-05
1.05983e-05
1.07414e-05
1.0821e-05
1.11114e-05
0.119501
0.267093
0.193284
0.0132402
0.000499147
0.000720161
0.222047
0.679994
0.679991
0.679987
0.67975
0.308291
2.06039e-05
2.03904e-05
2.02295e-05
2.02287e-05
2.02286e-05
2.02287e-05
2.01755e-05
2.01136e-05
2.00965e-05
2.00883e-05
2.0048e-05
2.0096e-05
2.01126e-05
2.03875e-05
0.0266134
0.00896499
0.0220666
0.0189263
0.0105178
0.0367283
2.45913e-05
1.28283e-05
1.22071e-05
1.05335e-05
1.05122e-05
1.05983e-05
1.0731e-05
1.0777e-05
0.0725792
0.262969
0.196828
0.0123514
0.000312418
0.000485122
0.0982063
0.659665
0.67999
0.679991
0.679869
0.513534
2.33127e-05
2.04537e-05
2.25264e-05
2.02294e-05
2.02293e-05
2.25373e-05
2.39845e-05
2.01849e-05
2.01129e-05
2.00474e-05
2.0048e-05
2.00488e-05
0.0465025
0.29787
0.496601
0.488451
0.50575
0.488158
0.453985
0.417827
1.56815e-05
1.07312e-05
1.05335e-05
1.05119e-05
1.05202e-05
7.03468e-05
7.87089e-05
1.11114e-05
0.113833
0.259721
0.0771233
0.00201761
0.000293417
0.000312418
0.0363802
0.524497
0.679991
0.67999
0.679957
0.661227
0.145745
2.33161e-05
0.000240444
0.000343562
2.03534e-05
2.18323e-05
0.000558996
0.000755772
9.08746e-05
2.55713e-05
5.23917e-05
0.00457146
0.109212
0.433711
0.584984
0.587776
0.589545
0.589643
0.589552
0.589409
0.00012549
7.51704e-05
1.83303e-05
1.05335e-05
1.12061e-05
7.98545e-05
7.90064e-05
0.00737533
0.187706
0.197599
0.000531908
0.000285484
0.000286443
0.000295854
0.0126273
0.437208
0.67999
0.67996
0.679932
0.679743
0.460603
9.73547e-05
0.000234243
0.0239627
0.0495376
0.0372073
0.0194529
0.00822319
0.0258571
0.0776516
0.111807
0.149558
0.1683
0.115817
0.185997
0.496032
0.589643
0.589734
0.589727
0.589718
0.000375377
0.000512818
8.34279e-05
1.06209e-05
1.06448e-05
1.12071e-05
0.000158916
0.0455708
0.121982
0.0304936
0.00027966
0.000272701
0.000268971
0.000282679
0.000926932
0.307837
0.679946
0.679932
0.679917
0.679874
0.645583
0.123316
0.00107107
0.0324054
0.0572492
0.0572608
0.0572492
0.0148196
0.0199657
0.0821176
0.085548
0.0300058
0.135271
0.0158496
0.0160647
0.0906509
0.436564
0.589737
0.589737
0.589736
0.000267679
5.23445e-05
3.79089e-05
1.06657e-05
6.5194e-05
0.0045746
0.0178362
0.0238131
0.00317486
0.00112444
0.000558374
0.000264316
0.000256887
0.000269107
0.000462868
0.12117
0.661223
0.67996
0.67988
0.679892
0.679888
0.540116
0.0637756
0.0252944
0.0241603
0.0233012
0.0207715
0.00833557
0.00473867
0.00538958
0.00866818
0.0110591
0.0518674
0.0158714
0.0158497
0.0504118
0.358444
0.589737
0.589737
0.589737
0.000373874
5.03425e-05
7.6178e-05
0.00344702
0.005235
0.00523648
0.00307753
0.000447354
0.00216998
0.00306546
0.00306104
0.00167306
0.000236664
0.000215156
0.000260723
0.0020899
0.3257
0.679773
0.679886
0.679834
0.679785
0.679695
0.610847
0.1559
0.0768913
0.057012
0.0292482
0.00792654
0.00598095
0.00546407
0.0316166
0.0335646
0.208072
0.255375
0.0973351
0.312335
0.559201
0.589737
0.589737
0.589737
0.00143193
0.000472404
0.000600612
0.00375916
0.00412091
0.000827034
2.91585e-05
9.16748e-05
0.00231802
0.00306104
0.00306556
0.00300147
0.000360239
0.00020132
0.000194654
0.00021215
0.0175528
0.434695
0.679619
0.67978
0.67969
0.679401
0.679014
0.677637
0.597034
0.522346
0.422117
0.307888
0.354614
0.56774
0.658815
0.658858
0.658708
0.56963
0.270326
0.271435
0.482645
0.576939
0.541159
0.522737
0.00143618
0.00143193
0.000980529
0.000290418
0.000187721
2.34108e-05
2.1353e-05
2.13434e-05
8.88022e-05
0.000784123
0.00301673
0.00301249
0.00234486
0.000193612
0.000191263
0.000163459
1.00548e-05
0.00120687
0.367624
0.646954
0.679428
0.672827
0.606075
0.66294
0.662325
0.659227
0.659227
0.659227
0.659225
0.659201
0.659049
0.6588
0.658718
0.426804
0.2709
0.271619
0.271632
0.345761
0.363975
0.370596
0.00143501
0.00143608
0.00115607
3.66193e-05
2.34144e-05
2.11448e-05
2.08998e-05
2.08695e-05
2.08509e-05
2.1223e-05
0.000481016
0.00292739
0.00290976
0.00154375
0.000165161
0.000163796
2.2659e-06
2.2913e-06
4.07768e-06
0.0743079
0.247899
0.221839
0.216697
0.657016
0.659223
0.659227
0.659227
0.659225
0.659201
0.640609
0.614231
0.658738
0.657865
0.509176
0.271619
0.271632
0.52726
0.656329
0.402279
0.397193
0.000909799
0.00142732
0.00142167
0.000349188
2.11452e-05
2.08998e-05
2.08695e-05
2.08509e-05
2.0842e-05
2.08418e-05
2.28882e-05
0.00161907
0.00285105
0.00126135
0.00088163
0.000301418
2.22448e-06
2.21677e-06
2.21553e-06
2.28642e-06
4.52818e-06
4.05677e-05
0.136004
0.520774
0.659047
0.659177
0.659212
0.659128
0.596788
0.373221
0.373086
0.520982
0.655605
0.653547
0.645085
0.608113
0.65845
0.658461
0.601771
0.500712
0.000470803
0.000460651
0.000988905
0.000773632
5.98549e-05
2.10929e-05
2.08571e-05
2.0842e-05
2.08415e-05
2.0842e-05
3.35418e-05
0.000804411
0.000989166
0.00112205
0.00115502
0.000818525
2.21672e-06
2.21571e-06
2.19594e-06
2.15896e-06
2.15955e-06
2.16454e-06
2.32212e-06
8.13683e-06
0.251197
0.514045
0.638889
0.534874
0.373221
0.37306
0.373221
0.373549
0.38556
0.598598
0.658123
0.65845
0.658494
0.658494
0.65848
0.658461
0.000831486
0.000106222
3.51948e-05
6.38646e-05
0.000343423
0.000590066
0.000416887
3.93325e-05
2.0842e-05
2.08419e-05
6.36115e-05
0.000254895
0.000629716
0.0012245
0.00115713
0.000106528
2.22432e-06
2.22203e-06
2.37573e-06
2.16381e-06
2.15911e-06
2.12211e-06
1.99491e-06
1.86722e-06
1.66099e-06
4.1061e-06
0.00992381
0.212441
0.393791
0.425622
0.425622
0.425622
0.393878
0.391509
0.391003
0.528262
0.658494
0.658494
0.658494
0.65848
0.000864907
0.000107708
2.23046e-05
2.15606e-05
0.000364897
0.000625107
0.000632697
0.000628272
0.000170312
2.09166e-05
5.75837e-05
0.000161461
0.00110617
0.00122319
0.000227364
4.07595e-06
3.85725e-06
1.14529e-05
2.17703e-06
2.15914e-06
2.14472e-06
2.09985e-06
1.91465e-06
1.77409e-06
1.49447e-06
1.49033e-06
1.49013e-06
1.49629e-06
0.0131423
0.179842
0.302569
0.345649
0.361928
0.456835
0.472387
0.47242
0.475848
0.502316
0.533619
0.481249
0.000864907
8.32211e-05
2.15606e-05
2.13877e-05
0.000273941
0.000632697
0.000633037
0.000632697
0.000316347
2.1816e-05
2.13227e-05
2.25904e-05
0.000679699
0.000631735
8.08749e-06
2.24017e-05
5.03521e-05
1.10881e-05
2.15926e-06
2.15926e-06
2.19577e-06
5.72567e-06
9.7117e-06
4.87026e-06
1.49061e-06
1.49053e-06
1.48702e-06
1.48266e-06
1.48272e-06
1.4834e-06
1.48947e-06
1.54622e-06
2.09596e-06
0.108756
0.244062
0.268696
0.213415
0.200298
0.203743
0.20284
0.000864907
0.000615451
2.13877e-05
2.13877e-05
5.91549e-05
0.000604729
0.000632932
0.000632175
0.000141389
2.13227e-05
2.1252e-05
2.12476e-05
0.000497513
0.000460466
7.97895e-06
4.08747e-05
5.07812e-05
1.56996e-05
2.15942e-06
2.16317e-06
4.26247e-06
2.7273e-05
3.93293e-05
2.59222e-05
1.49324e-06
1.48702e-06
1.48267e-06
1.48267e-06
1.48265e-06
1.48272e-06
1.4834e-06
1.48947e-06
1.50804e-06
1.51722e-06
1.51929e-06
0.00232364
0.00482836
0.00295181
0.000507538
0.000507904
0.000749461
0.000799999
0.000260908
2.13877e-05
2.18548e-05
0.000152678
0.000407191
0.0001749
2.28075e-05
2.1252e-05
2.12465e-05
2.12479e-05
0.000382445
0.00048061
7.86806e-06
5.03524e-05
5.1042e-05
1.8375e-05
2.16333e-06
2.1808e-06
1.71825e-05
3.93293e-05
3.93569e-05
3.93549e-05
2.89829e-05
1.49367e-06
1.53824e-06
1.48267e-06
1.48267e-06
1.48277e-06
1.48353e-06
1.48854e-06
1.50466e-06
1.51915e-06
1.51663e-06
1.51939e-06
1.56711e-06
2.18022e-06
0.000936229
0.0013559
0.000180475
0.000799999
0.000799773
0.000324762
2.3708e-05
2.61177e-05
2.56821e-05
2.3106e-05
2.28186e-05
4.10568e-05
2.12486e-05
2.12472e-05
0.0003268
0.000506301
7.95338e-06
3.95216e-05
5.10059e-05
3.41229e-05
4.4457e-06
1.88707e-05
1.09223e-05
2.10932e-05
3.93549e-05
3.93569e-05
3.93549e-05
3.92939e-05
1.71409e-05
1.48267e-06
1.48277e-06
1.48353e-06
1.51489e-06
2.62063e-06
1.84543e-06
1.51869e-06
1.51939e-06
1.52652e-06
1.82872e-06
5.15709e-05
0.000538334
0.0013564
8.55654e-05
0.000281969
0.000658316
0.000653073
0.000477878
5.59218e-05
2.31866e-05
2.28175e-05
2.29113e-05
4.33643e-05
3.20899e-05
2.12486e-05
0.000265401
0.000509031
1.02672e-05
1.01921e-05
3.23713e-05
1.81324e-05
3.05296e-05
3.0725e-05
2.4144e-05
6.08792e-06
7.49289e-06
3.78259e-05
3.9307e-05
3.92608e-05
2.22977e-05
1.48372e-06
1.48357e-06
1.49111e-06
3.29026e-06
4.62515e-06
4.62481e-06
1.70976e-06
1.52652e-06
1.58877e-06
7.23361e-06
1.00357e-05
9.9359e-06
0.000612037
9.01446e-05
6.80538e-05
9.12699e-05
0.00041198
0.000546168
0.000546168
0.000201351
2.29225e-05
2.28521e-05
2.45182e-05
2.14913e-05
2.14088e-05
0.000168839
0.000509031
7.90482e-05
2.05985e-05
4.81631e-06
4.57247e-06
2.16557e-05
3.06682e-05
3.07164e-05
1.11823e-05
1.5533e-06
3.46028e-06
5.01021e-06
2.48687e-06
5.13579e-06
5.78135e-06
1.84217e-06
1.49294e-06
3.80157e-06
4.62506e-06
4.62518e-06
4.62481e-06
2.50446e-06
1.66764e-06
1.61525e-06
1.14414e-05
3.03671e-05
2.69563e-05
6.39658e-05
6.42199e-05
6.75818e-05
7.37922e-05
0.000204506
0.000394804
0.000387708
0.000266713
0.000116534
2.1977e-05
2.1584e-05
2.15095e-05
3.07449e-05
0.000152465
0.000152597
0.00015371
4.23003e-05
4.27637e-06
3.94631e-06
1.24022e-05
2.00424e-05
8.04723e-06
1.53732e-06
1.5046e-06
1.48113e-06
1.47998e-06
1.47995e-06
1.48033e-06
1.47992e-06
1.48042e-06
2.03329e-06
4.61683e-06
4.62481e-06
4.61058e-06
4.5941e-06
2.03437e-06
1.29698e-06
2.2905e-05
0.000174973
0.000123751
3.89623e-06
5.928e-05
6.91505e-05
5.58975e-05
5.68269e-05
5.95681e-05
0.000238873
0.000270882
0.000271061
0.000256827
4.9075e-05
2.1584e-05
2.27691e-05
2.38614e-05
0.00013047
0.00015607
0.00015607
6.33143e-05
3.11154e-06
2.83398e-06
2.6112e-06
1.15951e-05
7.27229e-06
1.48116e-06
1.48001e-06
1.47995e-06
1.47991e-06
1.47985e-06
1.47981e-06
1.47983e-06
1.48557e-06
1.55119e-06
3.98579e-06
4.26878e-06
4.54759e-06
4.1031e-06
8.04674e-07
4.05824e-06
0.000179477
0.00023477
3.55892e-06
3.39825e-06
5.77035e-06
4.42697e-05
6.31296e-05
5.84601e-05
3.08235e-05
8.36519e-05
0.000224666
0.000255459
0.000253504
0.000182158
2.41394e-05
2.44556e-05
2.56401e-05
8.18648e-05
0.000154242
0.000152321
7.59947e-05
2.55642e-06
2.55642e-06
2.56058e-06
6.4835e-05
6.60654e-05
1.84138e-06
1.47998e-06
1.47985e-06
1.47982e-06
1.47974e-06
1.47974e-06
2.14885e-06
2.07699e-06
8.19257e-07
8.07872e-07
1.37291e-06
1.23782e-06
7.94304e-07
7.98481e-07
5.19552e-05
0.00023477
4.71275e-06
2.73059e-06
2.77846e-06
3.04463e-06
8.47373e-06
5.40863e-05
2.57138e-05
4.77379e-06
8.60779e-06
5.82064e-05
0.00024329
0.000237241
0.000232976
8.68618e-05
1.16388e-05
8.45699e-06
3.46991e-05
4.10016e-05
7.56645e-05
4.99977e-05
3.83819e-06
2.68044e-06
6.29004e-05
0.000116709
0.000114992
3.18618e-06
1.48029e-06
1.47985e-06
1.47983e-06
3.17926e-05
0.000127783
5.35631e-05
2.76978e-06
7.93914e-07
7.93908e-07
7.93914e-07
7.93868e-07
7.94304e-07
1.60345e-05
0.00023477
1.29356e-06
2.22175e-06
2.73963e-06
5.49581e-06
5.44552e-06
5.80268e-06
6.57602e-06
4.5246e-06
4.40326e-06
4.39146e-06
1.88319e-05
0.00015989
0.000226675
0.000205019
2.27486e-05
5.41136e-06
1.20863e-05
1.59896e-05
1.7472e-05
6.67915e-05
6.29729e-05
1.18621e-05
1.41543e-05
0.000117516
0.000162673
0.000163419
9.94648e-05
2.97034e-06
6.94312e-06
0.000181833
0.000211431
0.000205547
4.21614e-05
1.00557e-06
7.93914e-07
7.93868e-07
7.94304e-07
7.95241e-07
5.67768e-06
0.000234767
1.02067e-07
3.6057e-05
0.000205509
0.000414819
0.000261869
2.62769e-05
4.52453e-06
4.40325e-06
4.36032e-06
4.3059e-06
4.33978e-06
5.02294e-06
6.69081e-05
6.75366e-05
1.37048e-05
3.88219e-06
3.22836e-06
7.46734e-05
0.000325311
0.000119218
2.0845e-05
1.36002e-05
1.49915e-05
1.61689e-05
8.88707e-05
0.000206361
0.000208501
0.000192717
0.000210113
0.000211431
0.000211432
0.000211431
0.000114122
1.42e-06
7.95386e-07
7.94471e-07
7.95241e-07
7.98017e-07
1.27005e-06
0.000234725
0.000194323
0.000522836
0.0005897
0.000589257
0.000588814
0.000414809
1.32954e-05
4.4067e-06
4.3059e-06
4.29729e-06
4.3059e-06
7.18139e-05
0.000329828
8.75907e-05
5.32044e-06
3.22799e-06
3.1355e-06
0.000237132
0.000421165
0.000432239
0.00012091
1.49915e-05
1.55674e-05
1.5983e-05
1.61431e-05
3.88033e-05
0.000210594
0.000211403
0.000211429
0.00021143
0.000211431
0.000211432
0.000138018
1.97999e-06
8.09754e-07
8.03833e-07
8.04555e-07
7.99801e-07
7.99833e-07
0.00022931
0.000575857
0.0005897
0.0005897
0.0005897
0.000589155
0.00033105
5.01462e-06
4.33131e-06
4.29876e-06
4.29876e-06
4.2976e-06
0.000436096
0.0005222
0.000363968
1.56468e-05
3.12997e-06
2.8201e-06
7.27315e-05
0.000431342
0.00043669
0.00044114
0.000207824
1.63087e-05
1.61431e-05
1.59395e-05
1.55634e-05
4.64869e-05
6.17191e-05
0.000122885
0.000211429
0.000211429
0.000211419
7.74483e-05
1.02651e-06
8.59838e-07
2.69463e-06
1.609e-06