/*--------------------------------*- C++ -*----------------------------------*\
  =========                 |
  \\      /  F ield         | OpenFOAM: The Open Source CFD Toolbox
   \\    /   O peration     | Website:  https://openfoam.org
    \\  /    A nd           | Version:  8
     \\/     M anipulation  |
\*---------------------------------------------------------------------------*/
FoamFile
{
    version     2.0;
    format      ascii;
    class       volScalarField;
    location    "1.25";
    object      epsilon;
}
// * * * * * * * * * * * * * * * * * * * * * * * * * * * * * * * * * * * * * //

dimensions      [0 2 -3 0 0 0 0];

internalField   nonuniform List<scalar> 
9150
(
0.0313561
0.0125086
0.00316873
0.00104501
0.000612598
0.000612598
0.00104501
0.00316872
0.0125086
0.0313561
0.0302606
0.00881615
0.00178883
0.000690102
0.000471221
0.000471221
0.000690102
0.00178883
0.00881614
0.0302606
0.0284651
0.00701416
0.00116788
0.000574737
0.000425822
0.000425822
0.000574737
0.00116788
0.00701415
0.028465
0.0265316
0.00607701
0.00088391
0.000540507
0.000412505
0.000412504
0.000540506
0.00088391
0.00607701
0.0265316
0.0245272
0.00567781
0.000741929
0.000533457
0.000410999
0.000410999
0.000533457
0.000741929
0.00567781
0.0245272
0.124682
0.0535702
0.0248952
0.0165993
0.0134092
0.0134091
0.016599
0.0248947
0.0535688
0.124682
0.076333
0.0232587
0.0141577
0.0104322
0.00837364
0.00837359
0.010432
0.0141576
0.0232584
0.076333
0.0554205
0.0179629
0.00802823
0.00535498
0.00411664
0.00411662
0.00535495
0.00802818
0.0179628
0.0554205
0.0425609
0.0152878
0.00496206
0.00264748
0.00186353
0.00186353
0.00264747
0.00496204
0.0152878
0.0425609
0.0356696
0.0137629
0.00360973
0.00146865
0.000936309
0.000936307
0.00146864
0.00360972
0.0137629
0.0356696
0.991387
0.166871
0.0517683
0.0244975
0.0165828
0.0165843
0.0245045
0.0518064
0.167091
0.988771
0.279377
0.123932
0.049468
0.0242124
0.0167107
0.0167114
0.0242147
0.0494755
0.123974
0.279363
0.237297
0.106781
0.0485305
0.0239331
0.0168527
0.0168529
0.0239337
0.0485315
0.106792
0.237294
0.198693
0.094148
0.0478634
0.0236906
0.0169952
0.0169952
0.0236907
0.0478632
0.0941487
0.198692
0.157524
0.0884645
0.043942
0.0223778
0.0165714
0.0165713
0.0223775
0.0439412
0.0884624
0.157523
153.405
154.505
155.224
155.609
155.729
155.713
155.588
155.231
154.569
153.554
64.6453
65.1038
65.4355
65.6493
65.7552
65.7628
65.6742
65.4829
65.1803
64.7592
48.9015
49.2457
49.5029
49.6756
49.7659
49.7756
49.7052
49.5547
49.3231
49.0089
43.4821
43.7769
43.9989
44.1494
44.2293
44.2391
44.1792
44.0502
43.8518
43.5838
41.4211
41.6838
41.882
42.0167
42.0885
42.0979
42.0452
41.9307
41.7544
41.5158
41.0003
41.2374
41.4161
41.5375
41.6024
41.6112
41.5642
41.4613
41.3024
41.0867
41.5944
41.8073
41.9675
42.0763
42.1345
42.1425
42.1005
42.0084
41.8656
41.671
42.9224
43.1094
43.2499
43.3452
43.3962
43.4034
43.3666
43.2857
43.1597
42.9873
44.8364
44.9941
45.1123
45.1923
45.2353
45.2415
45.2108
45.1427
45.0359
44.8889
47.2459
47.3701
47.4626
47.5253
47.5592
47.5647
47.5415
47.4888
47.405
47.288
50.0879
50.1738
50.2372
50.2802
50.3042
50.3096
50.2959
50.2622
50.2064
50.1257
53.3159
53.3574
53.3871
53.4078
53.4209
53.427
53.4258
53.4157
53.3944
53.3585
56.8933
56.8817
56.8717
56.8664
56.8675
56.8755
56.8901
56.9095
56.9312
56.951
60.7874
60.7118
60.6545
60.6186
60.6059
60.6168
60.6509
60.7066
60.7811
60.8701
64.9656
64.8137
64.7004
64.6283
64.5992
64.6135
64.6707
64.7695
64.9072
65.0802
69.395
69.1534
68.9741
68.8594
68.8105
68.8278
68.9107
69.0582
69.2685
69.5388
74.042
73.6963
73.4406
73.2761
73.2031
73.2216
73.331
73.5308
73.8199
74.1968
78.8699
78.4065
78.0644
77.8427
77.7407
77.7574
77.8925
78.1453
78.5158
79.0037
83.8381
83.2466
82.81
82.525
82.389
82.4003
82.5581
82.8623
83.3136
83.913
88.9035
88.179
87.6437
87.2912
87.1171
87.1186
87.2946
87.6459
88.1746
88.8837
94.0244
93.1698
92.5369
92.1159
91.9005
91.8867
92.0739
92.4637
93.0607
93.8715
99.1677
98.1951
97.4715
96.9841
96.7248
96.6891
96.8765
97.2902
97.9372
98.8282
104.319
103.249
102.446
101.897
101.592
101.526
101.699
102.115
102.783
103.717
109.493
108.35
107.485
106.88
106.527
106.421
106.561
106.953
107.605
108.535
114.743
113.552
112.636
111.98
111.576
111.419
111.509
111.85
112.45
113.325
120.162
118.936
117.975
117.268
116.808
116.59
116.615
116.884
117.403
118.181
125.869
124.603
123.59
122.824
122.299
122.014
121.966
122.155
122.583
123.252
131.979
130.649
129.565
128.724
128.125
127.767
127.647
127.763
128.113
128.693
138.59
137.154
135.965
135.026
134.34
133.905
133.721
133.782
134.084
134.618
145.782
144.174
142.83
141.759
140.965
140.449
140.21
140.243
140.539
141.087
153.589
151.72
150.156
148.908
147.98
147.374
147.09
147.123
147.465
148.104
161.961
159.74
157.887
156.41
155.315
154.605
154.279
154.337
154.772
155.58
170.8
168.137
165.921
164.16
162.86
162.021
161.645
161.732
162.278
163.285
179.97
176.778
174.128
172.025
170.475
169.478
169.033
169.138
169.79
170.985
189.317
185.516
182.357
179.85
178.002
176.814
176.283
176.402
177.163
178.556
198.757
194.221
190.451
187.463
185.263
183.852
183.221
183.359
184.255
185.892
208.218
202.739
198.213
194.649
192.041
190.377
189.64
189.813
190.881
192.831
217.402
210.751
205.333
201.116
198.06
196.129
195.289
195.511
196.774
199.07
225.601
217.683
211.343
206.477
202.997
200.828
199.911
200.2
201.662
204.278
231.796
222.803
215.705
210.328
206.535
204.218
203.295
203.702
205.396
208.345
235.14
225.527
218.006
212.37
208.453
206.13
205.306
205.914
207.907
211.253
235.425
225.69
218.125
212.512
208.68
206.503
205.889
206.78
209.148
212.992
232.925
223.495
216.217
210.876
207.308
205.393
205.052
206.242
208.96
213.238
228.11
219.344
212.624
207.75
204.572
202.986
202.923
204.355
207.287
211.767
221.614
213.785
207.82
203.545
200.836
199.603
199.794
201.386
204.39
208.848
214.195
207.464
202.362
198.754
196.543
195.661
196.069
197.753
200.727
205.033
206.659
201.052
196.825
193.884
192.158
191.6
192.183
193.901
196.769
200.828
199.715
195.146
191.729
189.401
188.113
187.835
188.549
190.253
192.957
196.69
193.877
190.201
187.483
185.682
184.768
184.72
185.53
187.196
189.728
193.146
189.463
186.517
184.374
183.006
182.394
182.528
183.403
185.024
187.401
190.553
186.64
184.276
182.588
181.56
181.181
181.445
182.357
183.922
186.158
189.084
185.489
183.579
182.242
181.469
181.253
181.598
182.511
184.003
186.096
188.812
186.058
184.496
183.417
182.819
182.702
183.073
183.946
185.337
187.27
189.773
188.405
187.094
186.187
185.687
185.6
185.94
186.725
187.977
189.723
191.993
192.601
191.452
190.632
190.15
190.022
190.267
190.909
191.974
193.493
195.499
198.731
197.67
196.851
196.3
196.046
196.122
196.558
197.384
198.633
200.336
207.007
205.928
204.986
204.244
203.756
203.572
203.731
204.267
205.208
206.58
217.848
216.504
215.215
214.089
213.214
212.655
212.462
212.665
213.286
214.332
231.673
229.643
227.652
225.865
224.399
223.334
222.718
222.574
222.904
223.692
248.752
245.403
242.223
239.422
237.132
235.429
234.348
233.89
234.027
234.709
268.993
263.464
258.507
254.316
250.99
248.567
247.042
246.377
246.506
247.334
291.344
282.783
275.556
269.725
265.279
262.167
260.323
259.658
260.066
261.415
313.581
301.451
291.879
284.509
279.111
275.522
273.605
273.238
274.294
276.63
329.993
316.485
305.755
297.552
291.68
287.978
286.311
286.562
288.628
292.408
342.929
328.704
317.327
308.704
302.699
299.174
298.008
299.105
302.397
307.854
354.776
339.13
326.978
318.037
312.081
308.929
308.439
310.502
315.046
322.031
363.107
346.718
334.227
325.305
319.684
317.153
317.552
320.758
326.68
335.244
367.961
351.311
338.936
330.424
325.468
323.847
325.405
330.029
337.632
348.113
368.748
352.739
341.109
333.45
329.487
329.044
332.016
338.359
348.071
361.174
366.042
351.622
341.25
334.735
331.939
332.781
337.241
345.369
357.286
373.205
362.982
349.741
340.404
334.896
333.157
335.166
340.962
350.643
364.369
382.371
360.903
347.952
339.143
334.319
333.399
336.375
343.305
354.315
369.591
389.382
358.541
345.793
337.352
333.03
332.743
336.499
344.381
356.544
373.21
394.658
355.526
343.152
335.041
331.081
331.246
335.587
344.23
357.371
375.276
398.275
352.836
340.601
332.542
328.662
329.003
333.67
342.831
356.728
375.682
400.087
351.657
338.782
330.189
325.928
326.066
330.725
340.102
354.474
374.212
399.779
352.243
337.71
327.925
322.804
322.353
326.667
335.936
350.453
370.628
396.988
352.629
336.395
325.213
318.988
317.697
321.404
330.279
344.607
364.804
391.427
352.767
334.539
321.775
314.296
312.019
314.961
323.248
337.124
356.959
383.25
351.679
331.594
317.299
308.581
305.315
307.476
315.145
328.511
347.866
373.582
349.302
327.437
311.683
301.799
297.626
299.105
306.285
319.314
338.435
363.949
345.706
322.069
304.906
293.934
288.961
289.904
296.79
309.754
329.031
354.923
340.895
315.486
296.937
284.934
279.258
279.804
286.587
299.739
319.504
346.221
334.938
307.687
287.734
274.726
268.416
268.681
275.523
289.069
309.562
337.34
327.786
298.649
277.242
263.212
256.306
256.387
263.447
277.606
299.098
328.246
319.813
288.505
265.44
250.279
242.76
242.734
250.182
265.217
288.06
319.007
311.267
277.262
252.192
235.705
227.513
227.444
235.471
251.706
276.368
309.732
301.946
264.632
237.152
219.113
210.174
210.123
218.928
236.727
263.771
300.334
291.408
250.118
219.823
200.028
190.279
190.293
200.043
219.743
249.754
290.453
278.858
232.982
199.613
177.987
167.428
167.53
178.276
200.022
233.368
278.97
262.724
212.167
175.946
152.747
141.536
141.721
153.302
176.85
213.356
264.061
240.122
186.474
148.612
124.647
113.176
113.418
125.39
149.89
188.327
242.604
210.244
156.088
118.509
95.0095
83.8556
84.1161
95.8177
119.929
158.207
213.163
173.059
122.12
87.4841
66.0318
55.8978
56.1431
66.7997
88.861
124.25
176.175
129.256
87.1454
58.3932
40.5088
32.0254
32.228
41.1433
59.5362
88.9283
131.89
88.6636
56.3762
34.4642
20.9297
14.5253
14.6692
21.3838
35.2943
57.6931
90.6295
55.0549
32.072
17.066
8.32143
4.39612
4.47453
8.58161
17.5769
32.9392
56.417
29.2896
14.7327
6.23286
2.10608
0.635397
0.657575
2.20009
6.46449
15.2006
30.1249
11.2074
4.47272
1.28823
0.246504
0.0427401
0.0442182
0.259377
1.34229
4.6306
11.5809
1.86172
0.728401
0.142495
0.032207
0.0170043
0.0170305
0.0325505
0.145265
0.74272
1.90469
152.021
150.006
147.51
144.522
141.041
137.075
132.644
127.777
122.517
116.918
111.04
104.947
98.6965
92.3832
86.4404
80.7792
75.2894
69.9433
64.7478
59.7217
54.8861
50.2591
45.8544
41.6803
37.7406
34.0344
30.5574
27.3023
24.2594
21.4178
18.7651
16.2883
13.9734
11.8041
9.75541
7.75049
5.7778
3.97077
2.40943
1.52282
64.179
63.4156
62.4954
61.4176
60.1843
58.7998
57.2717
55.6104
53.8293
51.9438
49.9708
47.9289
45.8409
43.7453
41.7227
39.7416
37.7727
35.8014
33.8238
31.8434
29.868
27.9078
25.9739
24.0772
22.2277
20.4338
18.7025
17.0385
15.4448
13.9226
12.4715
11.0901
9.77672
8.53052
7.35362
6.25611
5.27792
4.51781
4.21602
6.55982
48.5861
48.0344
47.3767
46.614
45.7488
44.7851
43.7293
42.5894
41.3754
40.0985
38.7707
37.4043
36.0123
34.6097
33.2146
31.826
30.4364
29.0405
27.6356
26.2219
24.8021
23.3807
21.9637
20.5581
19.1709
17.8092
16.4797
15.1881
13.9394
12.7379
11.5875
10.4921
9.45734
8.49204
7.61205
6.84733
6.26025
6.00243
6.62604
13.0717
43.2247
42.7567
42.2001
41.5557
40.8251
40.0115
39.1198
38.1567
37.1303
36.0506
34.9278
33.7722
32.5935
31.4009
30.2026
29.0004
27.793
26.5798
25.3606
24.1365
22.9098
21.6836
20.4622
19.2503
18.0535
16.8772
15.727
14.6083
13.5265
12.4869
11.4954
10.5591
9.68741
8.89482
8.2047
7.65876
7.34203
7.47289
8.90734
19.3581
41.1957
40.7774
40.2787
39.6992
39.0393
38.3004
37.4852
36.5983
35.6463
34.6376
33.5821
32.49
31.3712
30.2343
29.087
27.9324
26.7728
25.6107
24.4483
23.288
22.1325
20.9846
19.8478
18.726
17.6234
16.5443
15.4934
14.4755
13.4957
12.5597
11.6741
10.8475
10.0918
9.42468
8.87467
8.49313
8.38669
8.83626
10.9592
24.786
40.7965
40.4155
39.9587
39.4244
38.8109
38.1173
37.3433
36.4903
35.5619
34.5646
33.5082
32.4047
31.2666
30.1059
28.932
27.7513
26.5697
25.3921
24.2229
23.0655
21.9229
20.7977
19.6927
18.6109
17.5555
16.5299
15.5377
14.583
13.6705
12.8058
11.9957
11.2496
10.5807
10.0091
9.56775
9.31683
9.38381
10.1089
12.85
29.7132
41.408
41.0607
40.6413
40.1465
39.5725
38.915
38.17
37.3333
36.4024
35.3785
34.2715
33.101
31.8864
30.6438
29.3861
28.1263
26.8745
25.6385
24.4238
23.2336
22.0705
20.9363
19.833
18.7624
17.7267
16.7282
15.7697
14.8545
13.9867
13.1715
12.4159
11.7296
11.1269
10.63
10.2758
10.1331
10.3495
11.3209
14.6257
34.2313
42.753
42.4413
42.0618
41.6097
41.0792
40.4626
39.75
38.9288
37.9859
36.9107
35.7066
34.4118
33.0646
31.6832
30.2911
28.9082
27.5466
26.2187
24.9304
23.6835
22.4782
21.3147
20.1934
19.1151
18.0806
17.0913
16.1489
15.2562
14.4165
13.6348
12.918
12.2761
11.7245
11.2871
11.005
10.9553
11.3045
12.5001
16.3207
38.3927
44.6874
44.4168
44.0838
43.6824
43.205
42.6406
41.9763
41.199
40.2834
39.1862
37.8043
36.2742
34.6965
33.1132
31.5516
30.0186
28.5186
27.0734
25.6895
24.3662
23.1012
21.8924
20.7381
19.6374
18.5898
17.5956
16.6558
15.7721
14.9475
14.1867
13.4964
12.8872
12.3751
11.9862
11.7654
11.7977
12.2676
13.6711
17.9734
42.3538
47.1254
46.903
46.624
46.2806
45.8624
45.3602
44.7734
44.1075
43.204
41.7803
40.1505
38.4277
36.6405
34.8415
33.071
31.3637
29.7266
28.1541
26.663
25.251
23.9138
22.647
21.4472
20.3118
19.2392
18.2285
17.2798
16.3941
15.5739
14.8237
14.1502
13.5642
13.0828
12.7338
12.5661
12.6722
13.2533
14.8504
19.6
46.0976
50.0096
49.8443
49.6275
49.347
48.988
48.5401
47.9929
47.2609
46.0852
44.3869
42.5197
40.5834
38.6092
36.6338
34.703
32.8563
31.0911
29.4042
27.8101
26.3075
24.8922
23.5595
22.3051
21.1255
20.018
18.981
18.0137
17.1167
16.2921
15.5439
14.8791
14.3087
13.8507
13.5352
13.4142
13.5878
14.273
16.053
21.2242
49.6987
53.2998
53.2049
53.0651
52.8637
52.5848
52.2152
51.7163
50.8667
49.3838
47.4244
45.2468
43.0066
40.7778
38.5994
36.5035
34.5117
32.6119
30.8073
29.1095
27.5145
26.0174
24.6133
23.2976
22.0662
20.9159
19.8446
18.8508
17.9348
17.0982
16.3451
15.6822
15.1212
14.6812
14.3939
14.3153
14.5524
15.3378
17.2958
22.8779
53.2913
56.9644
56.9595
56.9207
56.8319
56.6799
56.4489
55.9596
54.9064
53.1222
50.8106
48.2599
45.6739
43.1565
40.753
38.4817
36.3252
34.2809
32.3573
30.5518
28.8594
27.275
25.7935
24.4101
23.1205
21.9209
20.8085
19.7819
18.8406
17.9862
17.2225
16.5566
16.0005
15.5745
15.3122
15.2738
15.5738
16.4621
18.6086
24.6387
57.1185
60.9741
61.0842
61.1778
61.2384
61.2497
61.1714
60.7177
59.3799
57.16
54.4177
51.4703
48.5398
45.744
43.1207
40.6476
38.3089
36.113
34.0561
32.1315
30.3326
28.6533
27.0878
25.6306
24.2767
23.0219
21.8631
20.7981
19.8264
18.9492
18.1703
17.497
16.9421
16.5268
16.2872
16.2874
16.6507
17.6451
19.9891
26.4924
61.1497
65.2958
65.5516
65.8214
66.0913
66.3422
66.4778
65.9855
64.2308
61.5064
58.2717
54.897
51.6226
48.5511
45.6897
42.9952
40.4622
38.098
35.8929
33.8371
31.9221
30.14
28.4837
26.9467
25.5231
24.2081
22.998
21.8902
20.8837
19.9797
19.1817
18.4976
17.9406
17.5332
17.314
17.3515
17.7774
18.8787
21.4234
28.4105
65.3879
69.8855
70.3158
70.8023
71.3397
71.9155
72.2912
71.6175
69.4349
66.1745
62.401
58.5707
54.9385
51.5754
48.4319
45.4909
42.7547
40.2112
37.8472
35.651
33.6119
31.7203
29.9674
28.3454
26.8477
25.4684
24.2031
23.0488
22.004
21.0697
20.2497
19.5517
18.9899
18.5881
18.3874
18.4608
18.9489
20.1579
22.9074
30.3935
69.8098
74.688
75.3123
76.0399
76.873
77.8046
78.4626
77.646
74.9831
71.0968
66.7298
62.4296
58.4398
54.7407
51.2983
48.1101
45.1584
42.4253
39.8944
37.5512
35.3825
33.3767
31.5232
29.8128
28.2376
26.791
25.4677
24.2641
23.1785
22.2114
21.3668
20.6527
20.0839
19.6858
19.5021
19.6103
20.1604
21.4785
24.4376
32.4393
74.4152
79.646
80.4731
81.4504
82.5842
83.8611
84.8383
83.9457
80.6831
76.0644
71.1028
66.3849
62.0289
57.9777
54.2426
50.8016
47.6295
44.7035
42.0034
39.5112
37.2113
35.0897
33.134
31.3337
29.6796
28.1641
26.7812
25.5266
24.3984
23.3968
22.5258
21.7939
21.2166
20.8208
20.6529
20.7954
21.4076
22.8367
26.011
34.5464
79.185
84.7081
85.7396
86.9637
88.38
89.9166
91.2285
90.4859
86.4095
80.9071
75.3904
70.3285
65.5953
61.2036
57.1844
53.4994
50.1149
47.0028
44.1387
41.5018
39.0737
36.8384
34.7821
32.8928
31.1602
29.5758
28.133
26.827
25.6553
24.6183
23.7199
22.969
22.3822
21.9878
21.8349
22.0114
22.6863
24.2285
27.6235
36.7088
84.1083
89.8328
91.0764
92.5655
94.299
96.1658
97.7709
96.8015
91.6636
85.3207
79.4678
74.0419
68.9362
64.2803
60.0262
56.1313
52.5593
49.2795
46.2654
43.4942
40.9459
38.603
36.4506
34.4755
32.6667
31.0151
29.5133
28.1563
26.9414
25.8688
24.9426
24.1723
23.5753
23.1817
23.0436
23.254
23.9924
25.6495
29.2701
38.9202
89.1688
94.969
96.4273
98.2007
100.302
102.604
104.367
102.269
95.8854
89.1106
83.024
77.2655
71.9737
67.1358
62.7069
58.647
54.9215
51.4999
48.3556
45.4652
42.8083
40.3668
38.1251
36.0695
34.1884
32.4724
30.9137
29.5071
28.2498
27.142
26.1882
25.3984
24.791
24.3981
24.2746
24.5191
25.3215
27.0955
30.946
41.173
94.3459
100.05
101.697
103.736
106.209
108.848
109.672
105.87
99.044
92.2487
85.9765
80.0994
74.7065
69.7557
65.2076
61.027
57.1827
53.6465
50.3934
47.4008
44.6485
42.1186
39.7956
37.6657
35.7172
33.9404
32.3275
30.8733
29.5749
28.4328
27.4519
26.6428
26.0252
25.6329
25.524
25.8029
26.67
28.5621
32.6461
43.4597
99.6141
105.012
106.78
108.994
111.707
114.154
113.318
108.359
101.442
94.7485
88.4553
82.5993
77.1792
72.1708
67.5471
63.2812
59.347
55.7199
52.377
49.2974
46.4622
43.854
41.4577
39.2597
37.2487
35.4148
33.7506
32.2508
30.9129
29.7376
28.7302
27.9022
27.2745
26.8828
26.7886
27.1019
28.0341
30.0456
34.3654
45.7735
104.952
109.84
111.64
113.918
116.731
118.668
116.337
110.678
103.732
97.063
90.7988
84.9495
79.5083
74.4578
69.7773
65.4449
61.4382
57.7358
54.3168
51.162
48.2535
45.5751
43.112
40.8513
38.7819
36.8943
35.1813
33.6378
32.2616
31.0539
30.0206
29.174
28.5362
28.1451
28.0656
28.4133
29.4107
31.542
36.0993
48.1065
110.345
114.567
116.297
118.503
121.185
122.379
119.378
113.324
106.216
99.4893
93.1771
87.2855
81.7984
76.6961
71.958
67.563
63.4904
59.7199
56.2322
53.009
50.0334
47.2899
44.7645
42.4447
40.3198
38.3807
36.6205
35.0345
33.6209
32.3813
31.3222
30.457
29.809
29.4183
29.353
29.7348
30.7973
33.0485
37.844
50.4533
115.775
119.297
120.85
122.808
124.761
124.729
122.098
116.298
108.956
102.082
95.6576
89.6798
84.1184
78.9471
74.1417
69.6798
65.54
61.7021
58.1472
54.8577
51.8172
49.0108
46.4249
44.0475
41.8682
39.8785
38.0716
36.4434
34.9923
33.7205
32.6354
31.751
31.0923
30.7014
30.6498
31.0651
32.1921
34.5629
39.5968
52.8101
121.219
124.224
125.572
127.234
128.421
127.681
125.188
119.332
111.796
104.783
98.2408
92.1608
86.5089
81.2547
76.3714
71.8345
67.6218
63.7126
60.088
56.7304
53.6237
50.7533
48.106
45.6702
43.4358
41.3945
39.54
37.8685
36.379
35.0741
33.9618
33.0572
32.3866
31.9943
31.9554
32.4032
33.5938
36.0834
41.3552
55.1728
126.677
129.552
130.746
132.176
132.856
131.77
129.176
122.543
114.802
107.621
100.952
94.7594
89.0056
83.6572
78.6852
74.0638
69.7698
65.7822
62.0817
58.6507
55.4732
52.5349
49.8228
47.3253
45.0329
42.9374
41.0328
39.3158
37.7855
36.4454
35.3039
34.3773
33.6932
33.2979
33.2701
33.749
35.002
37.6092
43.1178
57.5394
132.149
135.425
136.547
137.817
137.923
136.199
132.951
125.777
117.924
110.608
103.819
97.5115
91.6476
86.1942
81.1219
76.4044
72.0183
67.942
64.1563
60.6436
57.3879
54.3748
51.5916
49.027
46.6715
44.5172
42.5584
40.7919
39.2175
37.839
36.6655
35.7141
35.014
34.6135
34.5948
35.103
36.4166
39.1401
44.8845
59.9099
137.63
141.92
143.068
144.19
143.405
140.557
136.435
129.156
121.226
113.811
106.903
100.472
94.4851
88.912
83.7242
78.8958
74.4032
70.2249
66.3416
62.7355
59.3909
56.2935
53.4304
50.7906
48.3647
46.145
44.1261
42.3049
40.6814
39.2601
38.0506
37.0709
36.3516
35.943
35.9308
36.466
37.8384
40.6765
46.6556
62.2852
143.12
149.076
150.41
151.236
149.033
145.076
140.504
133.153
124.983
117.378
110.301
103.713
97.5776
91.8627
86.5392
81.5807
76.9634
72.6659
68.6687
64.9544
61.507
58.3123
55.3578
52.6323
50.1264
47.8327
45.7458
43.8628
42.1841
40.7142
39.4637
38.4513
37.7087
37.2886
37.2797
37.8392
39.268
42.2188
48.4314
64.6653
148.627
156.828
158.596
159.001
155.25
150.316
145.152
137.598
129.164
121.338
114.062
107.29
100.981
95.1001
89.6169
84.5049
79.7405
75.3023
71.171
67.3295
63.7618
60.4539
57.3932
54.5687
51.9708
49.5923
47.4276
45.4741
43.7323
42.2071
40.9094
39.8587
39.0882
38.6522
38.6431
39.2237
40.7062
43.7676
50.2125
67.0518
154.153
164.849
167.102
167.188
162.233
156.342
150.372
142.419
133.753
125.713
118.234
111.262
104.757
98.6843
93.0136
87.7199
82.7805
78.1748
73.8842
69.8919
66.1822
62.7413
59.5564
56.6164
53.912
51.4355
49.1814
47.147
45.3329
43.7441
42.3919
41.2967
40.4925
40.0358
40.0222
40.6204
42.1536
45.3235
51.9995
69.4454
159.7
172.832
175.465
175.614
169.865
162.982
156.02
147.586
138.792
130.582
122.905
115.719
108.991
102.692
96.7976
91.2853
86.1348
81.3276
76.8459
72.6735
68.7953
65.1971
61.8663
58.7916
55.9632
53.3732
51.016
48.8886
46.9914
45.3296
43.9147
42.7676
41.9234
41.4406
41.4177
42.0295
43.6103
46.8861
53.792
71.8462
165.271
180.699
183.718
184.14
177.908
170.143
162.21
153.412
144.528
136.145
128.243
120.801
113.8
107.222
101.051
95.2689
89.8598
84.8071
80.0943
75.7059
71.6267
67.8426
64.3403
61.1081
58.1357
55.4146
52.9386
50.7044
48.7121
46.9667
45.4799
44.2728
43.3817
42.8667
42.8294
43.4504
45.0752
48.4544
55.5887
74.2526
170.864
188.398
191.894
192.826
186.513
178.073
169.464
160.414
151.353
142.706
134.486
126.695
119.331
112.39
105.864
99.7421
94.0116
88.6576
83.6646
79.0168
74.6986
70.695
66.9919
63.5765
60.4376
57.5657
54.9537
52.5977
50.4971
48.6566
47.0878
45.8122
44.8666
44.3129
44.2557
44.8812
46.5462
50.0258
57.3868
76.6609
176.472
195.827
199.998
201.692
195.718
187.173
178.373
169.106
159.7
150.611
141.901
133.603
125.735
118.308
111.321
104.768
98.6371
92.9142
87.5827
82.6255
78.0251
73.7648
69.8286
66.202
62.8722
59.8283
57.062
54.568
52.3453
50.3977
48.7364
47.3831
46.3753
45.7761
45.6934
46.3185
48.0196
51.5963
59.1815
79.0647
182.081
202.604
207.395
209.706
205.669
198.143
189.447
180.016
170.047
160.217
150.744
141.703
133.136
125.06
117.478
110.383
103.761
97.5924
91.8583
86.5374
81.6087
77.0523
72.8491
68.9822
65.4364
62.1987
59.2591
56.611
54.2519
52.1849
50.4206
48.9805
47.9025
47.2512
47.1369
47.7568
49.4897
53.1597
60.9657
81.4547
187.664
208.268
213.118
215.376
214.673
210.751
203.236
193.655
182.913
171.828
161.18
151.08
141.57
132.657
124.333
116.578
109.369
102.678
96.4769
90.7383
85.4358
80.5445
76.0413
71.9055
68.119
64.6662
61.535
58.7168
56.2076
54.0093
52.1318
50.596
49.4402
48.7301
48.5787
49.1883
50.9484
54.7076
62.7298
83.8173
193.191
212.783
218.008
221.128
222.393
221.868
218.291
209.149
197.785
185.362
173.084
161.605
150.919
140.997
131.798
123.281
115.402
108.119
101.395
95.1911
89.4744
84.2135
79.3803
74.9498
70.9002
67.2129
63.8732
60.8702
58.1983
55.8578
53.8575
52.2179
50.9773
50.2023
50.0083
50.6027
52.3856
56.229
64.4612
86.1357
198.618
216.2
222.194
227.181
231.078
233.608
233.61
225.959
213.016
199.853
185.892
172.878
160.888
149.854
139.7
130.352
121.748
113.828
106.54
99.8359
93.6742
88.0166
82.8294
78.0828
73.7513
69.813
66.2503
63.05
60.2044
57.7123
55.5812
53.8308
52.4993
51.654
51.4126
51.9872
53.7881
57.7103
66.1445
88.3888
203.894
218.644
225.734
232.661
239.836
247.18
252.832
244.932
228.772
213.999
198.949
184.377
171.069
158.919
147.799
137.608
128.261
119.686
111.817
104.595
97.9709
91.8992
86.3412
81.2631
76.6356
72.4335
68.6366
65.2292
62.2015
59.5505
57.2822
55.4156
53.9885
53.0686
52.7758
53.3265
55.1406
59.1354
67.7615
90.5519
208.957
219.511
227.569
235.872
245.404
256.503
267.35
261.454
242.718
225.761
210.168
195.167
180.936
167.837
155.829
144.836
134.776
125.562
117.12
109.382
102.292
95.799
89.8616
84.4424
79.5095
75.0352
70.9965
67.3756
64.1602
61.3455
58.9362
56.9499
55.424
54.4266
54.0792
54.6025
56.4254
60.4857
69.2911
92.5971
213.744
218.255
226.731
235.759
246.227
258.659
272.52
271.96
252.277
234.051
217.959
203.569
189.933
176.385
163.552
151.828
141.127
131.333
122.352
114.115
106.565
99.6518
93.332
87.5673
82.3241
77.5731
73.2891
69.4517
66.0465
63.0667
60.515
58.4081
56.7823
55.7061
55.3024
55.7954
57.6226
61.7408
70.7105
94.4939
218.182
215.204
223.643
232.9
243.527
256.091
269.538
271.241
255.959
237.984
221.933
207.799
195.03
182.651
170.225
158.268
147.155
136.91
127.456
118.742
110.74
103.403
96.6956
90.5812
85.0255
79.9971
75.4681
71.4156
67.8226
64.6798
61.9879
59.7621
58.0378
56.8835
56.423
56.884
58.711
62.8786
71.9951
96.2101
222.203
211.098
219.227
228.458
238.989
251.073
261.338
262.349
252.805
237.707
222.242
208.293
195.755
184.283
173.438
162.73
152.153
141.955
132.289
123.233
114.794
107.011
99.8969
93.4234
87.5536
82.2508
77.4824
73.2215
69.4475
66.1482
63.3221
60.9825
59.1639
57.9343
57.4183
57.8462
59.6692
63.8769
73.1198
97.713
225.736
206.478
214.129
223.236
233.469
243.427
250.492
251.045
244.215
232.546
219.224
206.259
194.314
183.443
173.423
163.839
154.385
145.018
135.865
127.019
118.486
110.371
102.846
96.0102
89.8331
84.2682
79.2746
74.8194
70.8778
67.4342
64.4845
62.0401
60.1343
58.8344
58.2658
58.6608
60.4759
64.7137
74.0602
98.9704
228.715
201.793
208.596
216.759
226.21
236.142
242.242
241.295
235.105
225.412
214.068
202.463
191.387
181.138
171.684
162.786
154.167
145.666
137.271
129.028
120.966
113.088
105.371
98.2177
91.7684
85.973
80.7826
76.1581
72.0705
68.5011
65.4435
62.9071
60.9242
59.5617
58.9451
59.3084
61.1122
65.3691
74.7935
99.9523
231.075
197.744
203.794
211.015
219.435
229.012
235.656
234.207
228.17
219.29
208.958
198.24
187.822
178.046
168.977
160.495
152.412
144.571
136.899
129.377
121.982
114.638
107.2
99.9169
93.2659
87.2938
81.9497
77.1916
72.9875
69.3168
66.1715
63.5598
61.513
60.0975
59.439
59.7727
61.5619
65.8265
75.3008
100.632
232.756
194.752
200.244
206.807
214.502
223.414
230.215
229.169
223.383
214.801
204.841
194.486
184.367
174.822
165.957
157.721
149.986
142.618
135.518
128.621
121.863
115.137
108.22
101.033
94.2678
88.1834
82.7367
77.8864
73.6005
69.8574
66.6481
63.9805
61.885
60.428
59.7352
60.0422
61.814
66.0744
75.5689
100.992
233.702
192.955
198.004
204.043
211.141
219.394
226.075
225.449
219.97
211.562
201.707
191.424
181.352
171.845
163.042
154.933
147.426
140.4
133.738
127.331
121.069
114.811
108.352
101.534
94.7709
88.6257
83.1243
78.2246
73.8934
70.1086
66.8613
64.1587
62.0313
60.5454
59.8265
60.1106
61.8628
66.1081
75.5951
101.032
233.931
192.392
197.058
202.644
209.221
216.871
223.134
222.707
217.477
209.17
199.311
188.961
178.801
169.219
160.384
152.319
144.953
138.171
131.834
125.798
119.904
113.973
107.82
101.361
94.7361
88.6013
83.1019
78.1997
73.8621
70.0679
66.8085
64.0921
61.9495
60.447
59.7104
59.975
61.7054
65.9242
75.3754
100.749
233.402
193.073
197.383
202.562
208.678
215.81
221.561
221.012
215.788
207.437
197.458
186.946
176.62
166.901
157.984
149.91
142.617
135.989
129.876
124.106
118.492
112.831
106.927
100.673
94.1796
88.1256
82.6843
77.824
73.5162
69.7423
66.4955
63.7852
61.6431
60.1359
59.389
59.637
61.3421
65.5213
74.9038
100.123
232.057
195.003
198.959
203.747
209.438
216.034
221.046
220.235
214.807
206.223
195.984
185.219
174.679
164.803
155.794
147.692
140.437
133.901
127.925
122.324
116.902
111.45
105.753
99.606
93.1981
87.2583
81.9117
77.1272
72.8787
69.1502
65.9371
63.2502
61.1224
59.6206
58.8698
59.1031
60.7785
64.9043
74.1847
99.1583
229.905
198.19
201.765
206.138
211.4
217.41
221.54
220.19
214.262
205.232
194.612
183.551
172.804
162.803
153.74
145.643
138.436
131.98
126.104
120.619
115.327
110.027
104.478
98.1538
91.8121
86.0415
80.8276
76.1471
71.981
68.3174
65.1545
62.505
60.4025
58.9144
58.1648
58.3841
60.0251
64.0833
73.2287
97.8674
226.966
202.666
205.809
209.682
214.38
219.83
223.208
220.731
213.845
204.125
193.05
181.715
170.832
160.793
151.758
143.731
136.616
130.261
124.482
119.074
113.817
108.462
102.724
96.3642
90.1946
84.5796
79.4995
74.9322
70.8603
67.274
64.173
61.571
59.5023
58.0341
57.289
57.4945
59.0959
63.0727
72.0513
96.2696
223.276
208.521
211.186
214.457
218.375
223.03
225.481
221.452
213.291
202.725
191.175
179.637
168.722
158.751
149.83
141.929
134.931
128.668
122.946
117.55
112.247
106.776
100.81
94.4014
88.3793
82.9116
77.9668
73.5185
69.549
66.0485
63.0177
60.4708
58.4422
56.9983
56.2602
56.451
58.0075
61.8898
70.672
94.3902
218.891
215.899
218.094
220.678
223.591
227.076
227.962
222.156
212.611
201.145
189.141
177.465
166.603
156.772
148.014
140.258
133.366
127.158
121.435
115.975
110.533
104.847
98.4819
92.1405
86.3335
81.0454
76.2525
71.9341
68.0753
64.6679
61.7137
59.2274
57.2434
55.8271
55.0973
55.2721
56.7786
60.5543
69.1136
92.2601
213.881
224.984
226.815
228.661
230.255
232.164
230.936
223.085
212.059
199.685
187.25
175.47
164.685
155.002
146.393
138.746
131.905
125.689
119.899
114.286
108.547
102.396
95.9087
89.7673
84.1524
79.0379
74.3982
70.2134
66.4695
63.1597
60.2862
57.8642
55.9277
54.541
53.8199
53.9773
55.4289
59.0875
67.4006
89.9127
208.326
235.934
237.648
238.626
238.272
238.031
234.27
224.192
211.719
198.512
185.699
173.835
163.113
153.536
145.008
137.385
130.509
124.208
118.277
112.439
106.359
99.6815
93.212
87.2835
81.8642
76.9238
72.438
68.388
64.761
61.5507
58.76
56.4042
54.5168
53.1605
52.4481
52.5864
53.9789
57.5114
65.5588
87.385
202.321
248.82
250.704
250.301
247.233
244.299
237.704
225.245
211.45
197.589
184.503
172.59
161.909
152.379
143.857
136.187
129.206
122.73
116.519
110.219
103.354
96.6289
90.4236
84.7234
79.5025
74.7363
70.4037
66.4879
62.9772
59.8664
57.1589
54.8697
53.0316
51.7058
51.0015
51.119
52.4487
55.8478
63.614
84.7122
195.946
263.652
266.067
263.615
257.158
251.052
241.188
226.41
211.313
196.913
183.674
171.738
161.057
151.495
142.887
135.067
127.856
121.037
114.278
107.116
100.102
93.6129
87.637
82.1453
77.1113
72.5117
68.327
64.5415
61.1444
58.1312
55.5054
53.2818
51.4923
50.1962
49.4989
49.5939
50.858
54.1181
61.5915
81.9305
189.298
280.259
283.616
278.224
267.725
258.316
244.968
227.938
211.709
196.789
183.317
171.257
160.454
150.724
141.876
133.722
126.057
118.639
111.052
103.71
96.9176
90.6546
84.8875
79.5865
74.7253
70.2817
66.2365
62.5749
59.2865
56.367
53.82
51.6598
49.9173
48.6494
47.9579