/*--------------------------------*- C++ -*----------------------------------*\
  =========                 |
  \\      /  F ield         | OpenFOAM: The Open Source CFD Toolbox
   \\    /   O peration     | Website:  https://openfoam.org
    \\  /    A nd           | Version:  8
     \\/     M anipulation  |
\*---------------------------------------------------------------------------*/
FoamFile
{
    version     2.0;
    format      ascii;
    class       surfaceScalarField;
    location    "1.25";
    object      phi;
}
// * * * * * * * * * * * * * * * * * * * * * * * * * * * * * * * * * * * * * //

dimensions      [0 3 -1 0 0 0 0];

internalField   nonuniform List<scalar> 
18095
(
1.5925e-07
-9.64515e-07
8.05266e-07
1.65897e-07
-1.24849e-06
1.24184e-06
1.22519e-07
-1.24248e-06
1.28586e-06
6.54728e-08
-1.26371e-06
1.32076e-06
-9.13661e-13
-1.28082e-06
1.34629e-06
-6.54743e-08
-1.28082e-06
1.34629e-06
-1.2252e-07
-1.26371e-06
1.32075e-06
-1.65897e-07
-1.24248e-06
1.28586e-06
-1.59249e-07
-1.24848e-06
1.24184e-06
-9.64515e-07
8.05266e-07
1.11278e-07
-1.07579e-06
9.97381e-08
-1.23695e-06
7.30777e-08
-1.21582e-06
4.01469e-08
-1.23078e-06
-4.60171e-13
-1.24067e-06
-4.01477e-08
-1.24067e-06
-7.30783e-08
-1.23078e-06
-9.97383e-08
-1.21582e-06
-1.11278e-07
-1.23694e-06
-1.07579e-06
6.744e-08
-1.14323e-06
5.29978e-08
-1.2225e-06
4.23136e-08
-1.20514e-06
2.39521e-08
-1.21242e-06
-1.38388e-13
-1.21672e-06
-2.39524e-08
-1.21672e-06
-4.23139e-08
-1.21242e-06
-5.2998e-08
-1.20514e-06
-6.74398e-08
-1.2225e-06
-1.14323e-06
3.9806e-08
-1.18304e-06
2.67483e-08
-1.20944e-06
2.21146e-08
-1.2005e-06
1.25898e-08
-1.20289e-06
-2.27306e-13
-1.20413e-06
-1.25903e-08
-1.20413e-06
-2.21151e-08
-1.20289e-06
-2.67485e-08
-1.2005e-06
-3.9806e-08
-1.20944e-06
-1.18304e-06
1.69616e-08
7.5172e-09
7.01479e-09
4.12445e-09
-8.75131e-13
-4.12606e-09
-7.01604e-09
-7.51802e-09
-1.69621e-08
-1.76362e-07
-1.16255e-06
1.33891e-06
-2.20917e-07
-1.21668e-06
1.26124e-06
-1.6636e-07
-1.21326e-06
1.1587e-06
-8.75053e-08
-1.20446e-06
1.1256e-06
-6.74172e-12
-1.20307e-06
1.11557e-06
8.7492e-08
-1.20307e-06
1.11557e-06
1.66347e-07
-1.20445e-06
1.1256e-06
2.20906e-07
-1.21326e-06
1.1587e-06
1.76353e-07
-1.21668e-06
1.26123e-06
-1.16254e-06
1.3389e-06
-9.25399e-08
-1.07001e-06
-9.55046e-08
-1.21372e-06
-7.93953e-08
-1.22937e-06
-4.4334e-08
-1.23952e-06
-3.81975e-12
-1.2474e-06
4.43266e-08
-1.2474e-06
7.93887e-08
-1.23952e-06
9.54993e-08
-1.22937e-06
9.25368e-08
-1.21371e-06
-1.07001e-06
-5.80732e-08
-1.01194e-06
-5.51608e-08
-1.21663e-06
-4.65115e-08
-1.23802e-06
-2.71437e-08
-1.25889e-06
-2.43031e-12
-1.27454e-06
2.71391e-08
-1.27454e-06
4.65075e-08
-1.25888e-06
5.51576e-08
-1.23802e-06
5.80713e-08
-1.21663e-06
-1.01194e-06
-7.51661e-08
-9.3677e-07
-6.22497e-08
-1.22955e-06
-4.86205e-08
-1.25165e-06
-2.77534e-08
-1.27975e-06
-1.72096e-12
-1.30229e-06
2.77502e-08
-1.30229e-06
4.86179e-08
-1.27975e-06
6.2248e-08
-1.25165e-06
7.51651e-08
-1.22954e-06
-9.3677e-07
-1.31504e-07
-1.19213e-07
-8.50014e-08
-4.39995e-08
-1.30246e-12
4.3997e-08
8.49993e-08
1.19212e-07
1.31504e-07
-2.96696e-08
-9.25004e-07
9.54674e-07
9.51762e-09
-1.34143e-06
1.30224e-06
1.1947e-08
-1.27714e-06
1.27471e-06
6.01376e-09
-1.22999e-06
1.23593e-06
-5.86208e-11
-1.22657e-06
1.23265e-06
-6.13332e-09
-1.22657e-06
1.23264e-06
-1.2047e-08
-1.23e-06
1.23591e-06
-9.63992e-09
-1.27715e-06
1.27474e-06
2.93542e-08
-1.3414e-06
1.3024e-06
-9.24778e-07
9.54132e-07
1.76286e-08
-9.42633e-07
2.22972e-08
-1.3461e-06
1.45641e-08
-1.2694e-06
7.7224e-09
-1.22315e-06
-4.48953e-11
-1.21881e-06
-7.81157e-09
-1.2188e-06
-1.46632e-08
-1.22315e-06
-2.24232e-08
-1.26939e-06
-1.7744e-08
-1.34608e-06
-9.42522e-07
2.99723e-08
-9.72605e-07
2.12791e-08
-1.3374e-06
1.11779e-08
-1.2593e-06
6.15539e-09
-1.21813e-06
-2.64589e-11
-1.21262e-06
-6.20482e-09
-1.21262e-06
-1.1229e-08
-1.21812e-06
-2.13304e-08
-1.25929e-06
-3.00277e-08
-1.33738e-06
-9.7255e-07
8.09694e-08
-1.05357e-06
5.6335e-08
-1.31277e-06
3.65591e-08
-1.23953e-06
2.15186e-08
-1.20309e-06
-1.78819e-11
-1.19109e-06
-2.15544e-08
-1.19109e-06
-3.65974e-08
-1.20308e-06
-5.63711e-08
-1.23951e-06
-8.09959e-08
-1.31276e-06
-1.05355e-06
2.85338e-07
2.33809e-07
1.52989e-07
7.55046e-08
-1.10133e-11
-7.55262e-08
-1.53008e-07
-2.33825e-07
-2.85351e-07
-3.77695e-07
-8.92837e-08
4.66979e-07
-2.87096e-07
-9.05993e-08
-1.95638e-07
-9.14578e-08
-1.03721e-07
-9.19164e-08
-1.18045e-08
-9.19162e-08
7.99776e-08
-9.17818e-08
1.71545e-07
-9.15668e-08
2.62498e-07
-9.09535e-08
3.52478e-07
-8.998e-08
-8.86123e-08
4.41091e-07
-3.15072e-07
-1.64066e-07
3.89854e-07
-2.38859e-07
-1.66812e-07
-1.61596e-07
-1.68721e-07
-8.36292e-08
-1.69883e-07
-5.1989e-09
-1.70347e-07
7.31914e-08
-1.70172e-07
1.51005e-07
-1.6938e-07
2.27994e-07
-1.67943e-07
3.03858e-07
-1.65844e-07
-1.63027e-07
3.78273e-07
-2.66657e-07
-2.28434e-07
3.31025e-07
-2.01079e-07
-2.32391e-07
-1.34612e-07
-2.35187e-07
-6.75798e-08
-2.36916e-07
-2.78497e-10
-2.37648e-07
6.69772e-08
-2.37428e-07
1.33874e-07
-2.36277e-07
2.00127e-07
-2.34196e-07
2.65441e-07
-2.31158e-07
-2.27118e-07
3.29531e-07
-2.27334e-07
-2.84432e-07
2.83332e-07
-1.70326e-07
-2.89398e-07
-1.12599e-07
-2.92915e-07
-5.44186e-08
-2.95096e-07
3.96021e-09
-2.96027e-07
6.22939e-08
-2.95762e-07
1.20342e-07
-2.94325e-07
1.77859e-07
-2.91713e-07
2.34595e-07
-2.87894e-07
-2.82812e-07
2.90289e-07
-1.92839e-07
-3.33184e-07
2.41591e-07
-1.43282e-07
-3.38956e-07
-9.31537e-08
-3.43043e-07
-4.26703e-08
-3.45579e-07
7.96511e-09
-3.46662e-07
5.85554e-08
-3.46352e-07
1.08905e-07
-3.44674e-07
1.58813e-07
-3.41622e-07
2.08073e-07
-3.37154e-07
-3.31203e-07
2.56464e-07
-1.61727e-07
-3.75472e-07
2.04015e-07
-1.18821e-07
-3.81861e-07
-7.54777e-08
-3.86386e-07
-3.18627e-08
-3.89194e-07
1.18668e-08
-3.90392e-07
5.55565e-08
-3.90042e-07
9.90516e-08
-3.88169e-07
1.42193e-07
-3.84763e-07
1.84814e-07
-3.79775e-07
-3.73124e-07
2.26736e-07
-1.3356e-07
-4.11907e-07
1.69995e-07
-9.66486e-08
-4.18773e-07
-5.9398e-08
-4.23637e-07
-2.19333e-08
-4.26659e-07
1.56251e-08
-4.2795e-07
5.31574e-08
-4.27574e-07
9.05423e-08
-4.25554e-07
1.27654e-07
-4.21875e-07
1.6436e-07
-4.16481e-07
-4.0928e-07
2.00515e-07
-1.08761e-07
-4.43212e-07
1.40066e-07
-7.71017e-08
-4.50432e-07
-4.51818e-08
-4.55557e-07
-1.30911e-08
-4.5875e-07
1.90809e-08
-4.60122e-07
5.12433e-08
-4.59736e-07
8.33021e-08
-4.57613e-07
1.15159e-07
-4.53732e-07
1.46711e-07
-4.48032e-07
-4.40412e-07
1.77843e-07
-8.82841e-08
-4.70425e-07
1.15497e-07
-6.08852e-08
-4.77831e-07
-3.33342e-08
-4.83107e-07
-5.67499e-09
-4.86409e-07
2.20404e-08
-4.87837e-07
4.97539e-08
-4.8745e-07
7.74025e-08
-4.85262e-07
1.0492e-07
-4.8125e-07
1.32237e-07
-4.75349e-07
-4.67456e-07
1.5928e-07
-7.28676e-08
-4.94817e-07
9.72595e-08
-4.85446e-08
-5.02154e-07
-2.42381e-08
-5.07414e-07
7.14659e-11
-5.10718e-07
2.43839e-08
-5.1215e-07
4.86863e-08
-5.11752e-07
7.29592e-08
-5.09535e-07
9.71803e-08
-5.05471e-07
1.21329e-07
-4.99498e-07
-4.91517e-07
1.4539e-07
-6.24572e-08
-5.17606e-07
8.5247e-08
-4.00447e-08
-5.24566e-07
-1.78667e-08
-5.29592e-07
4.17195e-09
-5.32757e-07
2.61349e-08
-5.34113e-07
4.80673e-08
-5.33685e-07
7.00057e-08
-5.31473e-07
9.19855e-08
-5.2745e-07
1.1405e-07
-5.21562e-07
-5.13727e-07
1.3626e-07
-5.5953e-08
-5.39626e-07
7.79725e-08
-3.45931e-08
-5.45926e-07
-1.36751e-08
-5.5051e-07
6.96319e-09
-5.53395e-07
2.74465e-08
-5.54596e-07
4.78767e-08
-5.54115e-07
6.83455e-08
-5.51942e-07
8.89446e-08
-5.4805e-07
1.09777e-07
-5.42395e-07
-5.3492e-07
1.3097e-07
-5.15853e-08
-5.61071e-07
7.30301e-08
-3.09172e-08
-5.66595e-07
-1.07923e-08
-5.70635e-07
8.9799e-09
-5.73167e-07
2.85583e-08
-5.74174e-07
4.80821e-08
-5.73639e-07
6.76823e-08
-5.71542e-07
8.7492e-08
-5.67859e-07
1.07658e-07
-5.62561e-07
-5.55614e-07
1.28352e-07
-4.82892e-08
-5.81972e-07
6.91901e-08
-2.81659e-08
-5.86718e-07
-8.60394e-09
-5.90197e-07
1.0588e-08
-5.92359e-07
2.95802e-08
-5.93167e-07
4.85294e-08
-5.92588e-07
6.75878e-08
-5.90601e-07
8.69113e-08
-5.87183e-07
1.0667e-07
-5.8232e-07
-5.76002e-07
1.27058e-07
-4.5105e-08
-6.02212e-07
6.53452e-08
-2.55757e-08
-6.06247e-07
-6.56555e-09
-6.09207e-07
1.21024e-08
-6.11027e-07
3.05927e-08
-6.11657e-07
4.90611e-08
-6.11057e-07
6.76607e-08
-6.092e-07
8.65473e-08
-6.0607e-07
1.05887e-07
-6.01659e-07
-5.95971e-07
1.25856e-07
-4.13514e-08
-6.21507e-07
6.06464e-08
-2.26279e-08
-6.2497e-07
-4.31854e-09
-6.27516e-07
1.37267e-08
-6.29073e-07
3.16526e-08
-6.29583e-07
4.96002e-08
-6.29004e-07
6.771e-08
-6.2731e-07
8.61258e-08
-6.24485e-07
1.04998e-07
-6.20531e-07
-6.15454e-07
1.2448e-07
-3.70634e-08
-6.3962e-07
5.51766e-08
-1.93486e-08
-6.42685e-07
-1.90956e-09
-6.44955e-07
1.53712e-08
-6.46353e-07
3.26088e-08
-6.4682e-07
4.99175e-08
-6.46313e-07
6.74136e-08
-6.44806e-07
8.52172e-08
-6.42289e-07
1.03454e-07
-6.38768e-07
-6.34255e-07
1.22256e-07
-3.25302e-08
-6.56356e-07
4.92662e-08
-1.59846e-08
-6.59231e-07
4.50119e-10
-6.6139e-07
1.68507e-08
-6.62754e-07
3.3295e-08
-6.63265e-07
4.98619e-08
-6.6288e-07
6.66333e-08
-6.61577e-07
8.36954e-08
-6.59351e-07
1.01139e-07
-6.56212e-07
-6.52178e-07
1.19063e-07
-2.83876e-08
-6.71672e-07
4.37031e-08
-1.30433e-08
-6.74575e-07
2.36253e-09
-6.76796e-07
1.78654e-08
-6.78257e-07
3.35031e-08
-6.78902e-07
4.93185e-08
-6.78695e-07
6.53583e-08
-6.77617e-07
8.1674e-08
-6.75667e-07
9.83202e-08
-6.72858e-07
-6.69215e-07
1.15357e-07
-2.55698e-08
-6.85769e-07
3.96672e-08
-1.12579e-08
-6.88887e-07
3.25443e-09
-6.91308e-07
1.7961e-08
-6.92963e-07
3.28641e-08
-6.93805e-07
4.79723e-08
-6.93804e-07
6.33018e-08
-6.92947e-07
7.88727e-08
-6.91238e-07
9.47086e-08
-6.88694e-07
-6.85333e-07
1.10827e-07
-2.47442e-08
-6.99052e-07
3.80277e-08
-1.11336e-08
-7.02498e-07
2.74568e-09
-7.05187e-07
1.68518e-08
-7.0707e-07
3.11537e-08
-7.08107e-07
4.5631e-08
-7.08281e-07
6.0271e-08
-7.07587e-07
7.5069e-08
-7.06036e-07
9.0025e-08
-7.0365e-07
-7.0045e-07
1.05141e-07
-2.56062e-08
-7.11873e-07
3.8427e-08
-1.23975e-08
-7.15706e-07
1.10425e-09
-7.18689e-07
1.48218e-08
-7.20787e-07
2.86946e-08
-7.2198e-07
4.26736e-08
-7.2226e-07
5.67224e-08
-7.21635e-07
7.08142e-08
-7.20128e-07
8.49353e-08
-7.17772e-07
-7.14603e-07
9.90889e-08
-2.72802e-08
-7.24473e-07
3.98797e-08
-1.42512e-08
-7.28735e-07
-9.21455e-10
-7.32019e-07
1.26058e-08
-7.34314e-07
2.62432e-08
-7.35617e-07
3.99194e-08
-7.35936e-07
5.35749e-08
-7.35291e-07
6.71657e-08
-7.33719e-07
8.06616e-08
-7.31267e-07
-7.27996e-07
9.4054e-08
-2.89766e-08
-7.37127e-07
4.16309e-08
-1.58999e-08
-7.41812e-07
-2.5353e-09
-7.45383e-07
1.10018e-08
-7.47852e-07
2.46111e-08
-7.49227e-07
3.82051e-08
-7.4953e-07
5.1708e-08
-7.48794e-07
6.50545e-08
-7.47065e-07
7.81896e-08
-7.44403e-07
-7.40873e-07
9.10664e-08
-3.00614e-08
-7.50096e-07
4.30308e-08
-1.6722e-08
-7.55151e-07
-3.13582e-09
-7.5897e-07
1.05922e-08
-7.6158e-07
2.4362e-08
-7.62997e-07
3.80821e-08
-7.6325e-07
5.16664e-08
-7.62378e-07
6.50319e-08
-7.60431e-07
7.80968e-08
-7.57467e-07
-7.53557e-07
9.0781e-08
-3.02119e-08
-7.63638e-07
4.3753e-08
-1.64282e-08
-7.68935e-07
-2.47465e-09
-7.72923e-07
1.15716e-08
-7.75626e-07
2.56322e-08
-7.77057e-07
3.96245e-08
-7.77242e-07
5.3464e-08
-7.76218e-07
6.70597e-08
-7.74026e-07
8.03116e-08
-7.70719e-07
-7.66355e-07
9.31099e-08
-3.00787e-08
-7.78214e-07
4.4655e-08
-1.55339e-08
-7.8348e-07
-1.00746e-09
-7.8745e-07
1.3488e-08
-7.90121e-07
2.79165e-08
-7.91486e-07
4.2223e-08
-7.91549e-07
5.63328e-08
-7.90328e-07
7.01472e-08
-7.87841e-07
8.35358e-08
-7.84108e-07
-7.7915e-07
9.6331e-08
-2.986e-08
-7.93932e-07
4.55778e-08
-1.44423e-08
-7.98898e-07
7.4364e-10
-8.02636e-07
1.57283e-08
-8.05106e-07
3.05174e-08
-8.06275e-07
4.50869e-08
-8.06118e-07
5.93786e-08
-8.04619e-07
7.32961e-08
-8.01758e-07
8.66869e-08
-7.97499e-07
-7.91783e-07
9.93201e-08
-2.88369e-08
-8.10217e-07
4.51219e-08
-1.2893e-08
-8.14842e-07
2.73921e-09
-8.18268e-07
1.80828e-08
-8.20449e-07
3.31539e-08
-8.21346e-07
4.79479e-08
-8.20912e-07
6.24353e-08
-8.19107e-07
7.65538e-08
-8.15877e-07
9.01915e-08
-8.11136e-07
-8.04751e-07
1.03159e-07
-2.71678e-08
-8.26704e-07
4.36551e-08
-1.10072e-08
-8.31002e-07
4.83227e-09
-8.34107e-07
2.03768e-08
-8.35994e-07
3.56481e-08
-8.36617e-07
5.06645e-08
-8.35929e-07
6.54375e-08
-8.3388e-07
7.99713e-08
-8.30411e-07
9.42678e-08
-8.25433e-07
-8.18846e-07
1.08363e-07
-2.55125e-08
-8.43265e-07
4.20734e-08
-9.31583e-09
-8.47199e-07
6.57735e-09
-8.5e-07
2.2202e-08
-8.51619e-07
3.75903e-08
-8.52006e-07
5.27716e-08
-8.5111e-07
6.77827e-08
-8.48891e-07
8.26737e-08
-8.45302e-07
9.75252e-08
-8.40284e-07
-8.33805e-07
1.12484e-07
-2.43098e-08
-8.59569e-07
4.06142e-08
-8.26999e-09
-8.63239e-07
7.56108e-09
-8.65832e-07
2.32165e-08
-8.67274e-07
3.8714e-08
-8.67503e-07
5.40754e-08
-8.66472e-07
6.93347e-08
-8.6415e-07
8.455e-08
-8.60517e-07
9.98191e-08
-8.55553e-07
-8.49304e-07
1.15318e-07
-2.46948e-08
-8.75408e-07
4.05335e-08
-8.85283e-09
-8.79081e-07
6.96669e-09
-8.81651e-07
2.27427e-08
-8.8305e-07
3.8458e-08
-8.83218e-07
5.41097e-08
-8.82123e-07
6.97131e-08
-8.79753e-07
8.531e-08
-8.76114e-07
1.00985e-07
-8.71228e-07
-8.65192e-07
1.16874e-07
-2.91027e-08
-8.91527e-07
4.52216e-08
-1.28602e-08
-8.95323e-07
3.41158e-09
-8.97923e-07
1.96431e-08
-8.99282e-07
3.57976e-08
-8.99373e-07
5.18527e-08
-8.98179e-07
6.78007e-08
-8.95702e-07
8.36469e-08
-8.9196e-07
9.94318e-08
-8.87013e-07
-8.81004e-07
1.15244e-07
-3.78637e-08
-9.08799e-07
5.51359e-08
-2.05909e-08
-9.12596e-07
-3.45161e-09
-9.15062e-07
1.34934e-08
-9.16227e-07
3.01986e-08
-9.16078e-07
4.6634e-08
-9.14614e-07
6.27618e-08
-9.11829e-07
7.85356e-08
-9.07734e-07
9.38929e-08
-9.02371e-07
-8.95887e-07
1.08775e-07
-4.77739e-08
-9.2678e-07
6.57549e-08
-2.98627e-08
-9.30507e-07
-1.21504e-08
-9.32775e-07
5.27225e-09
-9.33649e-07
2.23431e-08
-9.33149e-07
3.89838e-08
-9.31255e-07
5.51045e-08
-9.2795e-07
7.05861e-08
-9.23216e-07
8.53067e-08
-9.17091e-07
-9.09523e-07
9.89429e-08
-5.64584e-08
-9.44395e-07
7.40741e-08
-3.8808e-08
-9.48157e-07
-2.12201e-08
-9.50362e-07
-3.80514e-09
-9.51064e-07
1.33229e-08
-9.50277e-07
3.00412e-08
-9.47973e-07
4.61862e-08
-9.44095e-07
6.15412e-08
-9.3857e-07
7.57831e-08
-9.31333e-07
-9.21816e-07
8.80758e-08
-6.62372e-08
-9.61978e-07
8.38196e-08
-4.87563e-08
-9.65638e-07
-3.13395e-08
-9.67779e-07
-1.40257e-08
-9.68378e-07
3.10999e-09
-9.67413e-07
1.99543e-08
-9.64817e-07
3.63472e-08
-9.60488e-07
5.20484e-08
-9.54272e-07
6.66193e-08
-9.45904e-07
-9.34027e-07
7.88303e-08
-7.88821e-08
-9.80144e-07
9.70489e-08
-6.10891e-08
-9.83432e-07
-4.35281e-08
-9.8534e-07
-2.61236e-08
-9.85783e-07
-8.84639e-09
-9.8469e-07
8.28735e-09
-9.81951e-07
2.52174e-08
-9.77418e-07
4.18176e-08
-9.70872e-07
5.78411e-08
-9.61928e-07
-9.48823e-07
7.26372e-08
-9.31123e-08
-9.98485e-07
1.11453e-07
-7.52123e-08
-1.00133e-06
-5.76459e-08
-1.00291e-06
-4.02793e-08
-1.00315e-06
-2.30162e-08
-1.00195e-06
-5.77955e-09
-9.99188e-07
1.14718e-08
-9.94669e-07
2.87488e-08
-9.88149e-07
4.60767e-08
-9.79255e-07
-9.66317e-07
6.35705e-08
-1.08721e-07
-1.01699e-06
1.27229e-07
-9.09086e-08
-1.01914e-06
-7.35815e-08
-1.02023e-06
-5.65784e-08
-1.02015e-06
-3.97481e-08
-1.01878e-06
-2.29759e-08
-1.01596e-06
-6.17251e-09
-1.01147e-06
1.07183e-08
-1.00504e-06
2.77584e-08
-9.96296e-07
-9.83431e-07
4.48727e-08
-1.23845e-07
-1.03474e-06
1.41592e-07
-1.06742e-07
-1.03625e-06
-9.01347e-08
-1.03684e-06
-7.38799e-08
-1.03641e-06
-5.78415e-08
-1.03482e-06
-4.18859e-08
-1.03192e-06
-2.59042e-08
-1.02745e-06
-9.7873e-09
-1.02116e-06
6.58126e-09
-1.01266e-06
-1.00001e-06
2.3156e-08
-1.35322e-07
-1.04988e-06
1.50459e-07
-1.20195e-07
-1.05137e-06
-1.05174e-07
-1.05186e-06
-9.02375e-08
-1.05134e-06
-7.53104e-08
-1.04975e-06
-6.02777e-08
-1.04695e-06
-4.4984e-08
-1.04275e-06
-2.92278e-08
-1.03691e-06
-1.27082e-08
-1.02918e-06
-1.01803e-06
5.31353e-09
-1.44442e-07
-1.06259e-06
1.57154e-07
-1.3143e-07
-1.06439e-06
-1.18196e-07
-1.0651e-06
-1.04739e-07
-1.0648e-06
-9.09975e-08
-1.06349e-06
-7.68487e-08
-1.0611e-06
-6.20977e-08
-1.0575e-06
-4.64625e-08
-1.05255e-06
-2.95526e-08
-1.04609e-06
-1.03731e-06
-1.02674e-08
-1.5212e-07
-1.07367e-06
1.63199e-07
-1.40807e-07
-1.0757e-06
-1.2915e-07
-1.07676e-06
-1.17072e-07
-1.07688e-06
-1.0448e-07
-1.07608e-06
-9.12386e-08
-1.07434e-06
-7.71541e-08
-1.07158e-06
-6.19562e-08
-1.06775e-06
-4.52972e-08
-1.06275e-06
-1.05609e-06
-2.65169e-08
-1.57893e-07
-1.08336e-06
1.67586e-07
-1.48029e-07
-1.08556e-06
-1.37783e-07
-1.087e-06
-1.27023e-07
-1.08764e-06
-1.15637e-07
-1.08747e-06
-1.03494e-07
-1.08648e-06
-9.04365e-08
-1.08464e-06
-7.62749e-08
-1.08191e-06
-6.0791e-08
-1.07824e-06
-1.0733e-06
-4.35821e-08
-1.61014e-07
-1.09159e-06
1.69242e-07
-1.52524e-07
-1.09405e-06
-1.43598e-07
-1.09593e-06
-1.34113e-07
-1.09712e-06
-1.23957e-07
-1.09762e-06
-1.13014e-07
-1.09742e-06
-1.01152e-07
-1.0965e-06
-8.82155e-08
-1.09484e-06
-7.4028e-08
-1.09242e-06
-1.08903e-06
-5.82968e-08
-1.60951e-07
-1.09837e-06
1.6773e-07
-1.53746e-07
-1.10126e-06
-1.46055e-07
-1.10362e-06
-1.37762e-07
-1.10542e-06
-1.28762e-07
-1.10663e-06
-1.18946e-07
-1.10724e-06
-1.08191e-07
-1.10726e-06
-9.63412e-08
-1.10669e-06
-8.31604e-08
-1.1056e-06
-1.10394e-06
-6.82522e-08
-1.56949e-07
-1.10355e-06
1.62138e-07
-1.51092e-07
-1.10711e-06
-1.44633e-07
-1.11008e-06
-1.375e-07
-1.11255e-06
-1.29626e-07
-1.1145e-06
-1.20926e-07
-1.11594e-06
-1.11304e-07
-1.11688e-06
-1.00637e-07
-1.11736e-06
-8.87797e-08
-1.11746e-06
-1.11723e-06
-7.54952e-08
-1.48492e-07
-1.10703e-06
1.51964e-07
-1.44097e-07
-1.11151e-06
-1.38926e-07
-1.11525e-06
-1.32996e-07
-1.11848e-06
-1.26286e-07
-1.12121e-06
-1.18765e-07
-1.12346e-06
-1.10383e-07
-1.12526e-06
-1.01086e-07
-1.12666e-06
-9.08197e-08
-1.12773e-06
-1.1285e-06
-7.95497e-08
-1.35982e-07
-1.10907e-06
1.38024e-07
-1.32891e-07
-1.1146e-06
-1.28947e-07
-1.11919e-06
-1.24183e-07
-1.12324e-06
-1.1862e-07
-1.12677e-06
-1.12276e-07
-1.1298e-06
-1.05156e-07
-1.13238e-06
-9.72524e-08
-1.13456e-06
-8.85485e-08
-1.13643e-06
-1.13803e-06
-7.90135e-08
-1.19636e-07
-1.10985e-06
1.2042e-07
-1.17743e-07
-1.11649e-06
-1.14926e-07
-1.12201e-06
-1.11231e-07
-1.12694e-06
-1.06735e-07
-1.13127e-06
-1.01506e-07
-1.13503e-06
-9.55965e-08
-1.13829e-06
-8.90372e-08
-1.14112e-06
-8.18336e-08
-1.14364e-06
-1.14592e-06
-7.39414e-08
-9.97995e-08
-1.10878e-06
9.87244e-08
-9.90992e-08
-1.11719e-06
-9.72753e-08
-1.12383e-06
-9.44877e-08
-1.12972e-06
-9.08972e-08
-1.13486e-06
-8.66426e-08
-1.13929e-06
-8.18314e-08
-1.1431e-06
-7.65413e-08
-1.14641e-06
-7.08003e-08
-1.14938e-06
-1.15215e-06
-6.45717e-08
-7.875e-08
-1.1062e-06
7.61749e-08
-7.85376e-08
-1.11741e-06
-7.70699e-08
-1.1253e-06
-7.46957e-08
-1.1321e-06
-7.16046e-08
-1.13795e-06
-6.79927e-08
-1.1429e-06
-6.40219e-08
-1.14707e-06
-5.98008e-08
-1.15063e-06
-5.53817e-08
-1.1538e-06
-1.1568e-06
-5.07286e-08
-5.85076e-08
-1.1048e-06
5.71041e-08
-5.75277e-08
-1.11839e-06
-5.54404e-08
-1.12739e-06
-5.26452e-08
-1.13489e-06
-4.9382e-08
-1.14121e-06
-4.5871e-08
-1.14641e-06
-4.22994e-08
-1.15064e-06
-3.88002e-08
-1.15413e-06
-3.54301e-08
-1.15717e-06
-1.16008e-06
-3.21591e-08
-3.59026e-08
-1.10308e-06
3.41886e-08
-3.43468e-08
-1.11994e-06
-3.14911e-08
-1.13024e-06
-2.79556e-08
-1.13843e-06
-2.41467e-08
-1.14502e-06
-2.03752e-08
-1.15018e-06
-1.68937e-08
-1.15413e-06
-1.38806e-08
-1.15715e-06
-1.14406e-08
-1.15961e-06
-1.16196e-06
-9.56028e-09
-9.75874e-09
-1.1018e-06
8.47562e-09
-7.64994e-09
-1.12205e-06
-4.16648e-09
-1.13373e-06
7.73546e-12
-1.1426e-06
4.33405e-09
-1.14935e-06
8.37185e-09
-1.15422e-06
1.17796e-08
-1.15753e-06
1.42975e-08
-1.15966e-06
1.5757e-08
-1.16107e-06
-1.16229e-06
1.60928e-08
1.90763e-08
-1.10037e-06
-2.05021e-08
2.17946e-08
-1.12477e-06
2.59354e-08
-1.13787e-06
3.06966e-08
-1.14737e-06
3.54149e-08
-1.15407e-06
3.95864e-08
-1.15839e-06
4.27982e-08
-1.16075e-06
4.47096e-08
-1.16157e-06
4.50555e-08
-1.16141e-06
-1.16092e-06
4.36789e-08
4.37162e-08
-1.10439e-06
-3.9702e-08
4.9573e-08
-1.13063e-06
5.57168e-08
-1.14401e-06
6.17173e-08
-1.15337e-06
6.71308e-08
-1.15948e-06
7.15538e-08
-1.16282e-06
7.46163e-08
-1.16381e-06
7.5954e-08
-1.16291e-06
7.52269e-08
-1.16068e-06
-1.15781e-06
7.21252e-08
6.49136e-08
-1.11705e-06
-5.22561e-08
7.51728e-08
-1.14088e-06
8.39852e-08
-1.15282e-06
9.15002e-08
-1.16088e-06
9.76741e-08
-1.16565e-06
1.02381e-07
-1.16752e-06
1.05404e-07
-1.16683e-06
1.06429e-07
-1.16394e-06
1.05059e-07
-1.15931e-06
-1.15348e-06
1.00724e-07
8.66404e-08
-1.13649e-06
-6.71918e-08
9.98971e-08
-1.15414e-06
1.10259e-07
-1.16319e-06
1.18417e-07
-1.16904e-06
1.24729e-07
-1.17197e-06
1.29342e-07
-1.17214e-06
1.32196e-07
-1.16969e-06
1.3302e-07
-1.16476e-06
1.31264e-07
-1.15756e-06
-1.14815e-06
1.25935e-07
1.0876e-07
-1.15723e-06
-8.8029e-08
1.21991e-07
-1.16737e-06
1.3182e-07
-1.17302e-06
1.39216e-07
-1.17644e-06
1.44737e-07
-1.17749e-06
1.48663e-07
-1.17606e-06
1.51031e-07
-1.17205e-06
1.51621e-07
-1.16535e-06
1.49849e-07
-1.15579e-06
-1.14276e-06
1.44461e-07
1.24509e-07
-1.17209e-06
-1.09641e-07
1.35449e-07
-1.17831e-06
1.43736e-07
-1.1813e-06
1.49935e-07
-1.18263e-06
1.545e-07
-1.18205e-06
1.57708e-07
-1.17927e-06
1.59675e-07
-1.17402e-06
1.60357e-07
-1.16603e-06
1.59592e-07
-1.15502e-06
-1.13963e-06
1.56457e-07
1.25027e-07
-1.18809e-06
-1.09035e-07
1.35684e-07
-1.18897e-06
1.43539e-07
-1.18916e-06
1.49358e-07
-1.18845e-06
1.53554e-07
-1.18625e-06
1.56399e-07
-1.18211e-06
1.58072e-07
-1.17569e-06
1.58718e-07
-1.16668e-06
1.58516e-07
-1.15482e-06
-1.13811e-06
1.57003e-07
1.23787e-07
-1.19844e-06
-1.13439e-07
1.31636e-07
-1.19682e-06
1.37836e-07
-1.19536e-06
1.42662e-07
-1.19328e-06
1.46276e-07
-1.18986e-06
1.48769e-07
-1.18461e-06
1.50207e-07
-1.17713e-06
1.50658e-07
-1.16713e-06
1.50199e-07
-1.15436e-06
-1.13602e-06
1.48108e-07
1.15652e-07
-1.20352e-06
-1.10569e-07
1.2097e-07
-1.20214e-06
1.25999e-07
-1.20039e-06
1.30498e-07
-1.19778e-06
1.34388e-07
-1.19375e-06
1.37644e-07
-1.18786e-06
1.40245e-07
-1.17973e-06
1.4215e-07
-1.16904e-06
1.43325e-07
-1.15553e-06
-1.13558e-06
1.42884e-07
1.02099e-07
-1.20536e-06
-1.00263e-07
1.05465e-07
-1.2055e-06
1.09422e-07
-1.20434e-06
1.13639e-07
-1.20199e-06
1.17973e-07
-1.19809e-06
1.2234e-07
-1.19223e-06
1.26645e-07
-1.18404e-06
1.30768e-07
-1.17316e-06
1.34424e-07
-1.15919e-06
-1.13738e-06
1.36224e-07
8.16583e-08
-1.20691e-06
-8.01033e-08
8.38792e-08
-1.20772e-06
8.69269e-08
-1.20739e-06
9.07599e-08
-1.20583e-06
9.52905e-08
-1.20262e-06
1.00424e-07
-1.19736e-06
1.06057e-07
-1.18967e-06
1.12037e-07
-1.17914e-06
1.18134e-07
-1.16529e-06
-1.14318e-06
1.23932e-07
5.46905e-08
-1.20658e-06
-5.50179e-08
5.56579e-08
-1.20869e-06
5.78434e-08
-1.20958e-06
6.1172e-08
-1.20916e-06
6.5561e-08
-1.20701e-06
7.0927e-08
-1.20273e-06
7.71782e-08
-1.19592e-06
8.42221e-08
-1.18618e-06
9.20036e-08
-1.17307e-06
-1.15273e-06
1.01558e-07
2.18734e-08
-1.20454e-06
-2.39192e-08
2.16981e-08
-1.20851e-06
2.30505e-08
-1.21093e-06
2.57467e-08
-1.21185e-06
2.96584e-08
-1.21092e-06
3.46694e-08
-1.20774e-06
4.06686e-08
-1.20192e-06
4.75517e-08
-1.19307e-06
5.51269e-08
-1.18064e-06
-1.16081e-06
6.31995e-08
-1.62504e-08
-1.20253e-06
1.42416e-08
-1.67425e-08
-1.20802e-06
-1.57031e-08
-1.21197e-06
-1.3265e-08
-1.21429e-06
-9.58927e-09
-1.21459e-06
-4.82099e-09
-1.21251e-06
9.1354e-10
-1.20766e-06
7.49158e-09
-1.19965e-06
1.47103e-08
-1.18786e-06
-1.16805e-06
2.19545e-08
-5.76155e-08
-1.20098e-06
5.60693e-08
-5.75289e-08
-1.20811e-06
-5.58947e-08
-1.2136e-06
-5.29044e-08
-1.21728e-06
-4.87708e-08
-1.21873e-06
-4.36534e-08
-1.21763e-06
-3.76348e-08
-1.21367e-06
-3.07186e-08
-1.20656e-06
-2.2881e-08
-1.1957e-06
-1.17614e-06
-1.47958e-08
-9.67075e-08
-1.19914e-06
9.48617e-08
-9.57148e-08
-1.2091e-06
-9.28413e-08
-1.21648e-06
-8.86035e-08
-1.22152e-06
-8.3354e-08
-1.22398e-06
-7.72861e-08
-1.22369e-06
-7.04196e-08
-1.22054e-06
-6.25806e-08
-1.2144e-06
-5.33217e-08
-1.20496e-06
-1.18752e-06
-4.19395e-08
-1.28149e-07
-1.19739e-06
1.26398e-07
-1.25772e-07
-1.21148e-06
-1.21207e-07
-1.22104e-06
-1.15331e-07
-1.22739e-06
-1.08653e-07
-1.23065e-06
-1.01421e-07
-1.23092e-06
-9.36399e-08
-1.22832e-06
-8.50528e-08
-1.22299e-06
-7.51091e-08
-1.2149e-06
-1.19955e-06
-6.30778e-08
-1.47601e-07
-1.19823e-06
1.48441e-07
-1.42809e-07
-1.21627e-06
-1.36181e-07
-1.22767e-06
-1.28598e-07
-1.23498e-06
-1.20577e-07
-1.23867e-06
-1.12355e-07
-1.23915e-06
-1.03915e-07
-1.23676e-06
-9.49621e-08
-1.23194e-06
-8.48044e-08
-1.22506e-06
-1.21223e-06
-7.21246e-08
-1.48649e-07
-1.20336e-06
1.53781e-07
-1.41546e-07
-1.22337e-06
-1.33511e-07
-1.23571e-06
-1.25072e-07
-1.24342e-06
-1.166e-07
-1.24715e-06
-1.08276e-07
-1.24747e-06
-1.0011e-07
-1.24493e-06
-9.19121e-08
-1.24014e-06
-8.31612e-08
-1.23381e-06
-1.22261e-06
-7.2786e-08
-1.22323e-07
-1.20762e-06
1.26582e-07
-1.16656e-07
-1.22904e-06
-1.10216e-07
-1.24215e-06
-1.03346e-07
-1.25029e-06
-9.63278e-08
-1.25417e-06
-8.9395e-08
-1.2544e-06
-8.27342e-08
-1.25159e-06
-7.64852e-08
-1.24639e-06
-7.06837e-08
-1.23961e-06
-1.22814e-06
-6.51518e-08
-7.67403e-08
-1.20629e-06
7.54092e-08
-7.57358e-08
-1.23004e-06
-7.32975e-08
-1.24458e-06
-6.9767e-08
-1.25382e-06
-6.54671e-08
-1.25847e-06
-6.07687e-08
-1.2591e-06
-5.61272e-08
-1.25623e-06
-5.21375e-08
-1.25038e-06
-4.96409e-08
-1.24211e-06
-1.22767e-06
-5.01058e-08
-3.79294e-08
-1.20253e-06
3.41722e-08
-3.90887e-08
-1.22889e-06
-3.88536e-08
-1.24482e-06
-3.74197e-08
-1.25525e-06
-3.50002e-08
-1.26088e-06
-3.1922e-08
-1.26218e-06
-2.86943e-08
-1.25946e-06
-2.61119e-08
-1.25296e-06
-2.54751e-08
-1.24275e-06
-1.22401e-06
-2.91362e-08
-1.54164e-08
-1.20218e-06
1.50649e-08
-1.53811e-08
-1.22892e-06
-1.50645e-08
-1.24514e-06
-1.42589e-08
-1.25606e-06
-1.2951e-08
-1.26219e-06
-1.13056e-08
-1.26383e-06
-9.69537e-09
-1.26107e-06
-8.80499e-09
-1.25385e-06
-9.85374e-09
-1.2417e-06
-1.21858e-06
-1.52867e-08
-8.31918e-10
-1.20352e-06
2.16971e-09
-1.23832e-10
-1.22963e-06
1.47052e-10
-1.24541e-06
2.85335e-10
-1.25619e-06
3.94878e-10
-1.2623e-06
4.09586e-10
-1.26384e-06
1.04812e-10
-1.26076e-06
-9.195e-10
-1.25283e-06
-3.26202e-09
-1.23935e-06
-1.21405e-06
-7.79502e-09
5.91053e-09
-1.20716e-06
-2.26309e-09
7.44606e-09
-1.23116e-06
7.93255e-09
-1.24589e-06
7.78982e-09
-1.25605e-06
7.19664e-09
-1.26171e-06
6.19165e-09
-1.26284e-06
4.71475e-09
-1.25929e-06
2.65542e-09
-1.25077e-06
-1.96336e-11
-1.23668e-06
-1.21115e-06
-2.91085e-09
9.74006e-09
-1.20964e-06
-7.25943e-09
1.08811e-08
-1.23231e-06
1.11896e-08
-1.2462e-06
1.08825e-08
-1.25574e-06
1.0094e-08
-1.26092e-06
8.90344e-09
-1.26164e-06
7.36559e-09
-1.25775e-06
5.56194e-09
-1.24896e-06
3.76461e-09
-1.23488e-06
-1.21057e-06
3.18377e-09
7.82051e-09
-1.21187e-06
-5.58927e-09
9.12985e-09
-1.23361e-06
9.78538e-09
-1.24686e-06
9.83567e-09
-1.2558e-06
9.36168e-09
-1.26045e-06
8.44347e-09
-1.26073e-06
7.14959e-09
-1.25646e-06
5.53924e-09
-1.24735e-06
3.63258e-09
-1.23298e-06
-1.20826e-06
1.31841e-09
3.03753e-09
-1.21414e-06
-7.73137e-10
4.83039e-09
-1.23541e-06
6.08742e-09
-1.24811e-06
6.77462e-09
-1.25648e-06
6.96861e-09
-1.26064e-06
6.78472e-09
-1.26054e-06
6.34911e-09
-1.25602e-06
5.7771e-09
-1.24678e-06
5.14972e-09
-1.23235e-06
-1.20779e-06
4.67804e-09
-1.07896e-09
-1.21667e-06
3.61193e-09
8.73968e-10
-1.23736e-06
2.33553e-09
-1.24958e-06
3.33469e-09
-1.25748e-06
3.97267e-09
-1.26128e-06
4.38149e-09
-1.26095e-06
4.71021e-09
-1.25635e-06
5.10443e-09
-1.24717e-06
5.67197e-09
-1.23292e-06
-1.20868e-06
6.56818e-09
-5.55392e-09
-1.21961e-06
8.49497e-09
-3.42858e-09
-1.23949e-06
-1.74918e-09
-1.25126e-06
-4.19796e-10
-1.25881e-06
6.80145e-10
-1.26238e-06
1.68929e-09
-1.26196e-06
2.76357e-09
-1.25742e-06
4.08087e-09
-1.24849e-06
5.82295e-09
-1.23466e-06
-1.21112e-06
8.26041e-09
-1.19537e-08
-1.22299e-06
1.53328e-08
-9.15433e-09
-1.24228e-06
-6.68371e-09
-1.25373e-06
-4.48809e-09
-1.26101e-06
-2.47093e-09
-1.2644e-06
-5.01484e-10
-1.26393e-06
1.58541e-09
-1.25951e-06
3.99548e-09
-1.2509e-06
6.98633e-09
-1.23765e-06
-1.21531e-06
1.11795e-08
-2.00598e-08
-1.22764e-06
2.47031e-08
-1.57014e-08
-1.24664e-06
-1.16337e-08
-1.25779e-06
-7.86502e-09
-1.26478e-06
-4.29989e-09
-1.26796e-06
-7.84871e-10
-1.26745e-06
2.87375e-09
-1.26317e-06
6.89684e-09
-1.25493e-06
1.14895e-08
-1.24224e-06
-1.22095e-06
1.71225e-08
-2.91896e-08
-1.23584e-06
3.73897e-08
-2.20494e-08
-1.25378e-06
-1.56492e-08
-1.26419e-06
-9.8077e-09
-1.27062e-06
-4.25862e-09
-1.27351e-06
1.30568e-09
-1.27301e-06
7.2257e-09
-1.26909e-06
1.38711e-08
-1.26157e-06
2.15851e-08
-1.24996e-06
-1.23034e-06
3.09745e-08
-3.6118e-08
-1.24947e-06
4.97562e-08
-2.60132e-08
-1.26389e-06
-1.76394e-08
-1.27257e-06
-1.02467e-08
-1.27801e-06
-3.27727e-09
-1.28048e-06
3.77394e-09
-1.28006e-06
1.14345e-08
-1.27675e-06
2.03291e-08
-1.27046e-06
3.13202e-08
-1.26095e-06
-1.24546e-06
4.64429e-08
-3.39776e-08
-1.26372e-06
4.82282e-08
-2.39198e-08
-1.27395e-06
-1.58475e-08
-1.28064e-06
-8.79414e-09
-1.28506e-06
-2.13217e-09
-1.28714e-06
4.64223e-09
-1.28684e-06
1.20457e-08
-1.28415e-06
2.07474e-08
-1.27917e-06
3.1799e-08
-1.272e-06
-1.26134e-06
4.76842e-08
-2.17711e-08
-1.27281e-06
3.08557e-08
-1.53934e-08
-1.28032e-06
-1.02658e-08
-1.28577e-06
-5.68368e-09
-1.28964e-06
-1.23497e-09
-1.29159e-06
3.32004e-09
-1.29139e-06
8.22712e-09
-1.28906e-06
1.39134e-08
-1.28485e-06
2.10935e-08
-1.27918e-06
-1.27151e-06
3.1257e-08
-3.69455e-09
-1.27476e-06
5.64406e-09
-2.9564e-09
-1.28106e-06
-2.43514e-09
-1.28629e-06
-1.6831e-09
-1.2904e-06
-6.67547e-10
-1.29261e-06
4.29858e-10
-1.29249e-06
1.42949e-09
-1.29006e-06
2.36146e-09
-1.28578e-06
3.6491e-09
-1.28047e-06
-1.27411e-06
6.25513e-09
1.55664e-08
-1.26933e-06
-2.09925e-08
1.00743e-08
-1.27557e-06
5.7042e-09
-1.28192e-06
2.50249e-09
-1.2872e-06
-3.56457e-10
-1.28975e-06
-3.15887e-09
-1.28969e-06
-6.19477e-09
-1.28702e-06
-1.02845e-08
-1.2817e-06
-1.54047e-08
-1.27535e-06
-1.26911e-06
-2.041e-08
3.15819e-08
-1.2555e-06
-4.54122e-08
1.98493e-08
-1.26384e-06
1.25054e-08
-1.27457e-06
6.84179e-09
-1.28153e-06
-2.01186e-10
-1.2827e-06
-7.19731e-09
-1.28269e-06
-1.27627e-08
-1.28146e-06
-1.99431e-08
-1.27451e-06
-3.1415e-08
-1.26387e-06
-1.25558e-06
-4.49455e-08
3.81197e-08
-1.22798e-06
-6.56435e-08
2.23834e-08
-1.2481e-06
1.78508e-08
-1.27004e-06
1.14783e-08
-1.27516e-06
-1.31467e-10
-1.27109e-06
-1.16961e-08
-1.27112e-06
-1.80039e-08
-1.27515e-06
-2.24941e-08
-1.27002e-06
-3.80698e-08
-1.2483e-06
-1.22828e-06
-6.53649e-08
2.85803e-08
-1.17446e-06
-8.2097e-08
2.01927e-08
-1.23971e-06