/*--------------------------------*- C++ -*----------------------------------*\
  =========                 |
  \\      /  F ield         | OpenFOAM: The Open Source CFD Toolbox
   \\    /   O peration     | Website:  https://openfoam.org
    \\  /    A nd           | Version:  8
     \\/     M anipulation  |
\*---------------------------------------------------------------------------*/
FoamFile
{
    version     2.0;
    format      ascii;
    class       volScalarField;
    location    "5.5";
    object      p;
}
// * * * * * * * * * * * * * * * * * * * * * * * * * * * * * * * * * * * * * //

dimensions      [1 -1 -2 0 0 0 0];

internalField   nonuniform List<scalar> 
9150
(
-204.578
-205.594
-206.192
-206.667
-206.905
-206.901
-206.671
-206.189
-205.595
-204.578
-224.621
-225.15
-225.562
-225.893
-226.062
-226.065
-225.891
-225.562
-225.151
-224.621
-244.516
-244.809
-245.06
-245.277
-245.394
-245.398
-245.28
-245.058
-244.808
-244.515
-264.256
-264.438
-264.605
-264.764
-264.85
-264.843
-264.761
-264.605
-264.437
-264.256
-283.876
-284.064
-284.199
-284.328
-284.39
-284.387
-284.329
-284.2
-284.064
-283.876
-118.357
-119.324
-119.162
-118.723
-118.56
-118.563
-118.707
-119.171
-119.336
-118.361
-134.079
-134.783
-134.991
-135.051
-134.949
-134.927
-135.013
-134.935
-134.734
-134.035
-150.569
-151.316
-151.611
-151.975
-152.028
-152.016
-151.965
-151.59
-151.306
-150.564
-167.435
-168.563
-168.978
-169.637
-169.791
-169.8
-169.649
-169.004
-168.589
-167.462
-184.334
-186.468
-187.198
-187.935
-188.191
-188.195
-187.936
-187.202
-186.468
-184.331
-24.59
-26.3177
-28.4497
-29.4338
-29.816
-29.7224
-29.1051
-28.0656
-26.3345
-24.8634
-45.1927
-45.4091
-46.4328
-46.8787
-47.3774
-47.3255
-46.9264
-46.6565
-45.67
-45.4445
-65.1739
-65.1125
-66.1318
-65.7813
-66.3142
-66.3365
-65.8564
-66.2884
-65.2154
-65.3196
-88.044
-85.2925
-86.4171
-84.8088
-85.0825
-85.0896
-84.8304
-86.4577
-85.3584
-88.1228
-114.461
-104.353
-104.108
-102.477
-102.178
-102.186
-102.527
-104.158
-104.411
-114.562
1093.13
1090.93
1089.06
1088.06
1087.63
1087.7
1088.3
1087.64
1087.19
1085.15
1068.54
1065.98
1064.86
1065.82
1065.66
1066.54
1067.15
1066.74
1065.48
1064.96
1052.26
1051.59
1052.36
1052.15
1052.05
1050.16
1047.05
1045.35
1046.15
1045.98
1038.95
1038.8
1038.38
1038.19
1035.88
1031.87
1030.49
1027.79
1027.55
1026.81
1021.36
1027.79
1018.87
1016.44
1014.82
1012.93
1012.07
1009.97
1008.81
1007.52
1002.89
1000.7
997.797
996.113
994.092
992.829
991.353
989.872
988.386
987.464
984.302
978.719
977.962
975.866
975.057
973.686
972.249
970.904
969.188
968.097
964.204
962.176
959.618
957.446
955.573
954.559
953.058
951.484
950.34
949.06
944.342
942.323
940.393
938.451
936.759
935.361
934.202
932.866
931.466
930.115
923.583
922.411
920.844
919.178
917.679
917.131
915.53
914.389
913.2
912.094
905.918
904.262
903.546
901.446
901.308
900.344
899.053
897.908
897.135
896.213
886.688
885.267
884.47
883.823
882.519
880.822
879.37
878.116
877.741
877.216
872.488
870.889
867.727
864.52
861.131
858.622
857.756
857.189
856.13
854.605
857.205
855.314
853.856
851.061
847.079
844.427
839.754
837.88
836.892
834.325
839.986
838.111
835.549
832.617
828.118
826.999
826.517
825.246
823.272
820.213
822.975
821.526
820.014
818.361
815.663
817.245
816.484
814.862
812.044
808.557
806.966
806.465
805.62
804.314
802.786
802.766
803.663
803.376
799.955
793.502
791.938
792.006
791.997
791.39
790.576
789.653
787.964
785.03
780.865
775.184
777.995
778.538
779.076
779.242
778.459
776.888
774.413
770.774
764.16
755.98
764.385
765.83
767.059
767.772
767.376
765.627
762.345
757.112
748.645
738.186
754.14
755.661
757.012
758.048
758.866
757.54
754.178
746.671
737.367
724.636
743.92
746.336
748.663
750.254
749.899
748.631
743.744
735.318
723.222
710.916
735.082
736.557
736.801
735.863
734.078
731.188
723.927
715.543
707.161
697.67
720.689
722.54
721.519
717.84
712.074
705.601
697.812
689.001
679.644
671.558
699.746
698.633
696.89
693.269
683.666
670.849
659.987
652.482
636.427
626.621
673.221
673.365
667.107
659.815
648.382
633.648
617.904
603.103
593.459
585.885
646.425
644.572
640.125
629.354
618.123
603.588
587.327
572.89
563.053
559.85
620.514
614.423
611.509
604.327
595.25
586.255
577.068
568.523
562.342
558.085
591.894
587.701
583.93
579.792
573.664
568.453
563.376
558.685
554.621
551.286
565.023
561.744
558.329
555.993
552.416
548.208
544.542
541.528
539.763
537.87
538.064
535.428
532.781
532.405
528.943
525.682
523.006
521.831
520.835
519.723
508.317
506.667
505.918
507.688
504.474
502.717
499.844
499.699
501.219
500.486
482.945
483.026
482.961
483.004
480.64
477.572
474.593
476.55
482.048
485.309
466.494
466.84
466.662
465.196
462.573
467.84
470.373
471.61
473.549
476.317
458.459
457.784
456.94
455.392
455.901
462.318
463.949
463.883
463.269
462.444
451.254
449.095
446.579
443.286
442.045
440.661
440.704
439.773
439.673
440.82
443.594
439.772
436.334
432.568
429.978
428.277
424.67
414.201
406.335
401.827
440.726
433.385
428.691
422.039
412.335
408.275
406.353
397.833
394.702
389.411
420.998
420.092
414.981
415.011
406.231
394.989
387.683
384.557
381.841
378.237
399.974
396.556
390.417
385.579
381.372
384.22
382.895
377.718
374.046
371.859
368.955
368.584
367.055
364.699
361.421
358.267
356.261
356.109
359.382
361.522
341.235
338.221
338.975
336.295
335.528
335.756
336.043
338.171
341.429
344.917
308.929
307.03
305.425
304.157
301.472
304.457
310.496
314.703
318.182
322.435
268.298
269.521
266.478
265.196
268.394
275.232
280.388
288.54
295.342
299.866
237.883
228.584
219.76
216.904
226.702
243.819
254.277
266.871
274.587
279.845
225.979
218.998
205.838
193.976
201.838
217.16
232.65
248.999
258.264
266.391
220.74
216.101
212.127
206.64
203.893
216.624
227.554
235.757
247.057
249.211
218.664
216.97
214.871
213.059
209.912
214.765
225.716
235.517
236.476
239.906
219.92
218.986
217.906
217.046
217.624
217.672
219.162
226.591
231.582
230.364
215.6
221.288
222.544
223.179
215.635
214.579
218.329
220.751
221.367
220.202
201.825
200.902
198.202
203.215
208.332
206.076
210.207
205.659
206.666
205.05
170.558
176.712
181.733
183.793
185.406
184.825
188.53
190.963
189.254
190.18
149.479
150.192
149.869
148.521
149.282
154.03
159.847
163.839
176.333
174.57
142.487
142.783
137.929
136.284
137.748
136.954
137.509
134.832
144.521
155.718
143.358
141.449
138.412
134.568
129.261
129.328
127.626
122.872
137.546
146.943
153.088
154.799
154.323
152.551
139.952
138.221
139.229
135.094
142.175
146.734
206.024
195.619
178.086
172.643
185.198
170.24
174.711
162.235
159.033
157.001
209.732
212.965
220.859
215.599
209.287
203.847
189.65
175.286
155.011
144.602
121.283
147.175
173.157
181.674
184.388
174.67
167.236
154.821
145.11
134.147
34.3162
28.3303
72.7434
115.429
129.571
129.643
133.803
123.555
124.759
108.918
14.7382
12.7042
21.846
64.1971
95.3121
111.181
104.234
102.582
93.6379
82.6406
3.4544
2.67229
3.14924
22.2537
64.2991
85.7766
70.0503
68.4185
61.1928
49.9488
-1.78337
-1.93275
-1.70324
0.0225335
28.9356
52.4538
42.0385
32.2206
21.5617
45.0173
-3.96097
-3.91668
-3.67357
-4.07201
11.3051
38.1403
39.2508
33.956
22.4011
31.9157
-3.90107
-3.80739
-3.566
-3.52579
10.7275
45.086
52.6472
13.7254
19.2406
27.6604
-2.7891
-2.79901
-2.7248
-2.57589
18.95
34.5864
33.6943
19.0648
5.70077
14.5612
-1.88173
-1.65659
-1.51079
-1.30722
22.4164
31.4627
8.58493
2.63106
-0.260939
-0.555331
-0.826883
-0.456092
-0.111959
0.0840562
20.8941
32.6597
2.51669
0.554229
0.278847
0.186344
-0.16015
0.238857
0.300481
0.313359
26.9752
25.2648
0.823183
-1.22547
-0.738673
-0.701289
-0.182244
-0.00377009
0.00724366
0.00727179
25.1559
27.7158
-1.88942
-1.16692
-1.39029
-1.23723
-0.676871
-0.516621
-0.36087
-0.478033
27.6601
25.2677
-1.51944
-1.14049
-1.22392
-1.25007
-0.961748
-0.851918
-0.612075
-0.711468
26.5353
26.9708
-1.32957
-1.26618
-1.28653
-1.29626
-0.984137
-0.997629
-0.746109
-0.800411
26.5407
26.0793
-1.2976
-1.30965
-1.31413
-1.31704
-1.14859
-1.1729
-0.912231
-0.989277
25.8581
26.1162
-1.31924
-1.32651
-1.32817
-1.32882
-1.27095
-1.27552
-1.15097
-1.17103
25.8264
25.5499
-1.33593
-1.33999
-1.34175
-1.34182
-1.37878
-1.33468
-1.33198
-1.33108
26.1268
24.5981
-1.35858
-1.36057
-1.36063
-1.36006
-1.40712
-1.38934
-1.40513
-1.41008
25.8085
24.6568
-1.38482
-1.38511
-1.38426
-1.38595
-1.44448
-1.43155
-1.43698
-1.44199
24.069
25.8038
-1.42049
-1.40873
-1.41172
-1.41274
-1.47972
-1.47471
-1.47179
-1.47917
24.0309
25.4087
-1.46054
-1.44471
-1.4436
-1.44302
-1.5085
-1.5024
-1.49672
-1.51224
25.0669
23.7006
-1.47275
-1.46286
-1.4702
-1.46928
-1.53862
-1.52697
-1.51551
-1.53174
23.6107
24.4264
-1.49766
-1.47828
-1.49549
-1.49233
-1.55684
-1.53842
-1.53465
-1.55541
23.7099
23.336
-1.5378
-1.5164
-1.51649
-1.53188
-1.56964
-1.55647
-1.5589
-1.58973
24.3447
21.3773
-1.58196
-1.56152
-1.56286
-1.56669
-1.58479
-1.57659
-1.57617
-1.59972
21.0602
23.17
-1.62402
-1.59317
-1.59099
-1.59108
-1.5964
-1.59127
-1.58414
-1.6046
18.5941
23.3038
-1.65862
-1.62445
-1.62036
-1.61966
-1.60805
-1.5999
-1.57031
-1.58982
18.3116
21.0621
-1.69179
-1.65448
-1.64914
-1.65143
-1.62847
-1.61349
-1.57386
-1.5969
16.3517
20.0822
-1.7344
-1.69314
-1.68717
-1.68761
-1.66309
-1.64697
-1.60071
-1.63089
12.551
20.5082
-1.78259
-1.72993
-1.72162
-1.71787
-1.70748
-1.67613
-1.64998
-1.69181
9.92433
19.2216
-1.82409
-1.75777
-1.74787
-1.74349
-1.74046
-1.70398
-1.70452
-1.74125
9.65128
15.5536
-1.82973
-1.77247
-1.76422
-1.76082
-1.76593
-1.75262
-1.75804
-1.84832
10.3652
9.9447
-1.89267
-1.7817
-1.77671
-1.77394
-1.79733
-1.79313
-1.79241
-2.10665
8.29613
6.4925
-2.05196
-1.78141
-1.79234
-1.78928
-1.82648
-1.82245
-1.83223
-2.24511
4.25591
5.12503
-2.16067
-1.82196
-1.81068
-1.8109
-1.847
-1.84599
-1.91478
-1.90366
2.52011
2.89538
-1.93936
-1.89769
-1.82778
-1.82923
-1.86243
-1.86383
-2.02742
-1.85506
1.93284
0.867117
-1.36088
-2.00398
-1.84397
-1.84761
-1.87222
-1.87539
-2.15247
-1.1483
-0.0639105
0.291535
-1.34285
-2.36658
-1.86937
-1.87135
-1.88431
-1.87109
-3.14906
-1.36538
-0.709437
-0.639969
-1.85568
-3.41221
-1.8832
-1.89158
-1.89857
-2.29097
-4.86954
-2.72456
-1.52848
-1.82253
-2.63574
-4.16487
-2.46262
-1.9109
-1.92009
-3.95155
-5.78803
-5.84433
-5.82054
-5.61096
-5.25539
-5.11633
-3.9608
-1.92752
-2.66807
-9.01125
-12.2086
-14.1431
-15.0206
-15.2535
-14.8193
-13.2076
-9.81007
-2.80692
1084.15
1083.6
1083.12
1082.65
1082.22
1081.82
1081.42
1080.98
1080.57
1080.15
1079.61
1079.19
1078.77
1077.98
1077.05
1075.97
1075.22
1074.54
1073.76
1073.22
1073.12
1073.73
1074.63
1075.85
1077.41
1078.91
1080.07
1080.88
1082.61
1084.3
1085.99
1087.63
1089.66
1091.73
1092.81
1093.35
1093.39
1093.42
1093.24
1093.37
1064.22
1063.73
1063.36
1062.92
1062.4
1062.02
1061.57
1060.98
1060.59
1060.05
1059.58
1058.85
1057.98
1057.14
1055.99
1055.01
1054.26
1054.25
1053.49
1052.69
1051.82
1052.22
1053.24
1053.86
1055.23
1057.26
1058.76
1060.63
1063.67
1066
1068.5
1070.87
1072.86
1073.72
1074.04
1074.93
1074.33
1075.62
1076.39
1076.53
1045.33
1044.67
1044
1043.31
1042.62
1042.02
1041.57
1040.95
1040.23
1039.66
1038.88
1037.87
1036.77
1035.53
1034.5
1033.67
1033.01
1032.84
1032.97
1032.45
1035.96
1033.94
1033.54
1032.86
1034.37
1033.66
1036.1
1039.4
1044.89
1049
1051.53
1054.36
1056.05
1054.74
1055.72
1056.5
1056.13
1056.92
1056.42
1057.17
1026.06
1025.23
1024.38
1023.52
1022.66
1021.96
1021.21
1020.31
1019.67
1018.65
1017.69
1016.4
1014.82
1013.48
1012.41
1011.74
1011.69
1012.12
1012.8
1013.57
1016.81
1015.59
1014.52
1014.78
1014.36
1014.49
1017.01
1019.97
1022.74
1026.21
1030.01
1033.24
1034.52
1035.63
1036.24
1036.6
1037.09
1037.25
1037.13
1037.24
1006.42
1005.41
1004.55
1003.59
1002.7
1001.74
1000.69
999.826
998.709
997.579
996.542
995.11
993.396
992.014
991.086
990.691
990.964
991.858
993.158
994.99
996.85
997.644
996.96
999.426
1000.34
1000.62
1001.98
1004.1
1006.72
1009.47
1010.14
1013.92
1016.09
1016.94
1017.49
1017.79
1017.99
1018.03
1017.95
1017.83
986.719
985.809
984.824
983.717
982.678
981.528
980.332
979.142
977.865
976.714
975.264
973.949
972.255
970.496
969.146
968.329
968.172
968.881
970.366
972.672
975.138
977.587
981.37
983.756
985.359
986.126
987.138
989.118
991.939
994.03
993.862
995.432
998.424
999.316
999.225
999.193
998.992
998.807
998.584
999.431
967.302
966.394
965.216
964.083
962.899
961.594
960.164
958.664
957.199
955.998
954.657
952.786
951.456
948.929
946.974
945.32
944.205
944.305
945.744
948.527
953.041
956.835
961.581
965.78
969.547
969.685
973.211
973.126
975.977
975.081
976.583
978.515
980.461
981.822
980.967
980.478
979.91
979.631
979.059
979.785
948.167
946.977
945.769
944.433
942.92
941.248
939.574
937.955
936.589
935.547
933.863
932.122
930.675
928.364
924.924
921.376
918.745
917.071
917.599
921.005
927.699
934.728
941.299
946.382
949.759
952.175
954.099
955.3
955.854
957.22
958.747
960.14
962.294
963.145
962.167
961.202
960.52
959.958
959.194
960.064
928.838
927.737
926.355
924.912
923.559
922.237
920.909
919.923
921.646
921.801
920.584
916.535
912.171
909.09
903.903
897.724
891.51
887.311
886.284
889.113
897.748
910.342
921.932
930.259
934.114
936.305
937.279
937.935
938.333
938.827
939.305
939.949
945.636
942.731
941.357
939.439
938.203
937.502
938.014
938.396
913.433
908.106
906.412
904.606
903.034
901.662
900.667
900.302
901.516
901.494
900.483
898.045
894.08
891.66
891.744
885.99
876.106
867.308
864.752
869.754
879.232
890.601
903.732
915.376
921.051
921.202
920.48
921.161
921.269
921.195
920.381
918.566
919.924
918.085
918.032
916.924
916.925
916.314
917.237
918.765
894.866
892.832
890.287
887.499
885.176
884.091
882.315
879.751
879.521
879.381
878.057
876.278
874.647
872.112
869.004
864.999
859.568
851.101
845.313
846.534
849.259
857.976
872.53
885.243
894.51
899.61
906.095
909.773
908.561
906.071
903.902
901.621
898.513
896.982
900.479
903.277
904.281
903.379
900.913
904.092
875.843
873.327
871.698
870.38
868.224
865.676
863.124
859.671
855.89
852.917
849.956
846.839
842.855
837.266
830.294
823.556
818.349
814.083
811.385
807.187
803.078
803.379
815.732
836.356
851.937
870.548
884.006
889.722
890.319
888.308
885.756
883.299
880.568
880.206
884.392
886.947
888.431
888.975
887.662
892.755
853.203
851.947
850.762
849.662
848.211
846.024
843.036
839.218
834.459
829.635
824.243
817.349
808.182
796.834
787.296
782.685
778.99
775.919
773.301
770.738
771.534
782.823
797.639
800.977
816.418
838.866
856.961
867.964
871.052
870.297
867.881
865.731
864.329
866.665
870.221
871.65
872.414
872.932
870.906
872.387
831.044
828.564
826.625
825.922
825.371
823.918
820.957
817.051
813.003
807.282
801.649
794.421
786.929
784.751
784.133
777.465
771.258
766.124
761.682
758.3
761.567
768.224
774.529
782.477
803.288
822.957
837.408
847.928
853.549
853.406
853.968
849.362
848.017
848.161
851.355
852.328
851.567
851.488
851.473
852.475
817.123
813.893
806.545
803.447
801.241
799.507
797.479
794.278
790.996
783.055
784.302
802.496
798.888
785.248
780.44
775.666
770.96
766.684
763.226
761.908
765.016
769.871
774.915
784.708
796.944
809.546
820.125
828.215
833.305
835.369
834.76
833.086
830.513
831.044
830.897
830.806
831.932
831.468
831.276
831.655
804.509
797.505
787.793
781.77
776.293
771.651
768.713
767.139
776.583
784.772
785.628
776.587
781.92
780.678
769.34
771.72
771.189
769.689
768.458
768.456
769.497
770.259
772.233
780.588
787.709
794.426
801.362
807.75
811.315
812.726
811.985
811.217
810.086
811.049
809.225
808.441
809.054
809.771
810.095
810.33
786.679
778.644
768.279
758.102
747.99
737.873
732.353
741.121
750.664
744.912
749.963
758.834
762.943
763.205
762.674
763.638
759.728
763.1
764.207
761.807
761.73
762.297
764.712
768.934
771.372
774.718
778.676
783.057
784.994
786.047
786.491
789.792
788.255
789.239
788.914
786.887
789.225
788.623
789.559
790.272
766.982
755.882
743.197
730.772
721.792
722.995
722.228
722.721
726.985
726.443
729.949
738.022
741.657
742.128
743.558
745.747
747.009
748.566
748.949
749.168
751.253
752.886
748.064
747.633
748.986
751.884
757.205
758.977
756.588
758.651
763.148
765.374
765.022
762.613
761.058
762.323
765.447
769.248
771.275
772.341
744.883
730.952
718.404
716.503
716.008
715.607
716.927
719.016
720.936
721.495
722.678
720.381
725.077
727.368
729.238
730.817
732.975
734.937
733.242
736.633
736.254
733.071
730.911
731.597
735.722
738.226
739.415
740.835
741.691
741.783
743.554
746.98
752.263
747.035
752.481
743.945
748.241
752.011
755.19
756.839
724.757
713.912
711.914
710.852
711.678
712.381
713.13
713.735
713.866
713.394
712.787
710.89
715.732
717.835
719.194
719.931
720.417
720.093
727.144
727.764
727.305
726.137
726.51
729.093
733.05
736.463
738.347
737.388
729.88
729.531
735.008
739.398
740.886
734.874
740.897
739.586
739.769
741.64
743.527
744.79
708.206
705.51
708.241
708.307
707.847
707.961
708.247
708.161
707.501
706.586
704.048
704.363
708.936
709.838
709.908
709.404
709.117
709.453
709.652
708.505
717.591
712.453
719.978
718.592
722.177
726.04
724.991
724.415
728.927
722.725
727.387
718.559
719.579
722.017
725.128
729.724
732.761
734.986
735.992
736.486
698.947
701.493
703.007
703.056
702.952
703.026
703.536
703.299
702.333
700.942
697.434
698.342
699.33
698.174
697.931
696.799
695.059
694.501
694.275
693.771
694.491
696.659
700.157
702.388
703.759
705.223
707.074
706.775
704.552
701.769
706.259
702.792
703.62
707.905
712.509
716.77
723.026
725.209
725.888
726.011
689.309
687.734
689.636
698.036
698.73
697.993
698.432
698.178
696.525
690.939
687.558
686.913
685.989
684.376
682.785
680.988
679.793
679.054
678.584
678.309
678.072
679.684
680.571
681.406
681.936
682.612
683.089
683.391
683.123
684.413
690.079
692.828
691.179
696.36
700.301
703.089
706.263
706.943
708.308
712.119
667.162
666.917
670.621
678.051
684.334
684.589
686.759
682.507
682.74
679.065
674.25
671.249
669.324
667.056
665.127
663.525
662.44
661.659
660.904
661.953
660.809
660.939
660.944
659.453
656.898
654.74
655.008
658.558
665.412
663.364
670.249
677.55
680.386
682.396
684.846
684.844
688.209
690.739
689.756
689.152
626.199
627.472
630.443
637.666
645.283
649.329
652.844
660.96
651.732
655.262
652.81
650.82
650.102
649.128
647.472
646.128
644.922
643.904
643.347
643.07
642.385
642.6
641.75
640.61
639.722
643.123
642.853
644.109
646.679
647.556
649.576
652.929
654.303
658.842
661.398
662.399
665.437
666.516
665.5
664.209
578.003
578.635
583.362
594.938
605.495
615
623.201
627.665
633.075
633.636
631.356
631.299
631.351
630.53
629.859
628.575
627.177
625.907
625.148
624.434
624.167
624.28
623.684
624.146
627.01
629.979
630.429
631.032
631.266
630.193
627.372
628.451
629.92
631.619
633.112
634.153
636.383
638.904
640.639
642.338
557.45
560.615
567.354
564.989
571.248
580.787
590.021
599.636
607.009
617
617.847
613.293
613.649
613.066
611.979
612.24
610.672
607.745
606.106
604.952
604.27
604.506
604.502
607.077
608.486
612.376
616.054
616.429
616.469
610.288
607.614
607.067
606.483
606.304
606.114
608.983
612.695
614.846
621.105
623.854
552.871
553.137
549.23
552.709
553.584
550.056
557.773
567.96
577.426
585.593
593.314
596.482
593.392
594.102
593.96
592.235
592.404
587.982
585.146
583.501
581.918
580.997
581.446
582.929
585.597
588.156
589.33
589.838
590.179
589.282
589.362
589.52
590.018
591.83
591.827
591.387
592.348
594.062
600.864
602.919
546.564
540.926
540.214
539.201
536.158
534.882
535.809
537.347
548.316
558.338
567.395
571.301
574.394
572.867
573.479
572.643
569.333
567.691
565.375
561.94
560.727
564.299
557.914
559.994
563.438
565.504
566.5
567.488
568.201
568.292
569.269
571.372
572.721
574.503
575.314
575.955
576.99
578.075
580.419
582.683
533.593
527.771
527.397
526.486
526.124
526.299
527.154
526.671
531.863
539.78
547.948
551.551
552.496
555.781
552.404
551.312
550.406
547.994
545.675
546.183
543.605
545.2
542.166
541.09
543.514
545.664
544.615
545.23
547.885
546.736
545.723
549.197
552.779
555.516
557.773
559.534
560.642
562.08
563.031
563.93
516.237
513.768
513.953
514.281
515.508
517.446
518.582
521.282
527.161
539.183
542.648
535.83
535.893
536.339
534.493
537.005
533.575
533.521
530.19
533.013
528.597
526.881
524.538
525.917
528.927
529.554
529.279
529.976
533.581
531.623
533.892
531.302
536.95
539.542
541.293
542.7
543.722
545.117
545.454
546.268
498.943
500.281
500.597
501.093
503.23
509.731
512.269
516.435
524.707
525.218
521.983
514.266
518.621
517.047
523.096
518.751
521.374
521.63
512.77
518.328
514.529
514.401
514.725
516.622
518.751
519.538
520.252
520.266
520.669
526.832
526.016
520.478
522.826
524.9
525.698
526.228
527.018
528.279
528.734
533.247
487.438
489.746
490.824
491.285
491.705
491.897
491.455
490.463
490.138
504.833
492.129
492.101
497.34
500.966
503.138
512.361
505.235
506.119
507.432
508.719
509.744
509.796
509.891
510.407
511.265
511.53
512.173
513.699
514.982
514.028
511.949
509.008
509.227
509.993
509.972
509.566
509.675
510.25
509.897
514.795
479.053
480.514
481.31
480.051
478.263
475.709
473.031
470.931
471.553
479.7
479.605
474.93
480.384
484.022
486.259
492.867
495.776
494.627
498.542
501.114
501.414
501.906
502.228
502.065
501.249
500.866
499.707
498.84
497.706
500.84
500.356
498.365
497.731
494.796
493.6
492.318
491.017
492.735
490.813
493.613
463.612
463.393
461.811
460.548
458.73
457.23
455.189
455.241
459.869
463.369
464.779
463.735
464.341
468.927
470.64
470.581
475.736
478.803
480.916
482.413
484.439
485.689
485.935
486.054
485.657
485.51
486.495
486.572
486.798
483.832
483.033
483.589
481.959
479.672
477.373
475.42
475.171
472.53
471.536
472.589
438.515
436.514
434.842
433.229
434.842
435.959
439.105
440.637
452.559
456.654
455.339
453.5
451.865
453.988
455.184
456.731
456.825
460.452
464.041
465.655
466.655
467.189
467.371
467.277
467.222
467.374
467.961
467.96
467.796
468.272
466.093
466.275
465.039
462.839
460.68
458.514
455.988
457.559
456.247
458.528
395.356
397.346
399.031
400.948
405.69
412.574
420.565
430.341
440.192
446.977
449.142
447.436
444.723
441.432
441.532
444.828
445.515
448.399
451.116
450.96
450.215
449.554
448.989
448.542
448.336
448.352
448.511
448.391
450.061
448.464
447.66
447.09
445.863
444.574
443.616
443.258
441.981
442.611
446.785
444.509
381.651
378.879
379.242
379.09
379.544
388.284
399.015
410.435
423.028
432.759
438.372
437.452
437.74
439.582
435.145
435.764
436.155
434.015
434.908
433.129
432.036
431.077
430.367
429.894
429.64
429.671
429.767
429.739
429.42
428.731
427.699
426.993
426.199
424.876
423.583
424.959
425.631
427.664
428.88
427.506
374.787
372.89
373.699
376.022
378.746
380.878
383.185
394.054
404.5
413.185
419.435
423.884
424.562
436.987
432.564
433.271
424.094
421.464
415.502
414.431
413.49
412.429
411.712
411.258
411.007
410.886
410.879
410.599
409.901
408.745
407.383
406.654
406.381
406.149
407.344
409.967
411.816
413.367
414.067
415.056
369.742
368.492
369.114
371.05
372.77
374.405
374.963
380.624
388.547
395.131
400.544
404.544
409.077
430.806
423.338
414.262
414.54
400.277
406.046
396.139
393.617
393.162
392.699
392.432
392.22
391.989
391.679
391.019
390.004
389.749
387.343
385.917
386.336
385.215
387.966
394.054
395.466
395.929
403.007
400.236
362.2
361.794
362.176
363.496
364.733
366.276
365.636
369.184
373.928
377.236
380.133
382.714
384.78
401.696
394.138
395.309
393.813
380.372
381.906
380.103
374.089
373.86
373.645
373.462
373.281
372.959
372.392
371.617
370.048
369.732
364.714
363.044
362.967
363.194
364.406
376.69
375.852
375.02
378.863
381.558
349.482
349.53
350.071
353.729
354.571
356.568
357.189
358.782
359.552
359.302
358.721
359.071
359.699
362.576
373.293
364.427
366.588
358.74
357.153
357.668
356.659
354.839
354.57
354.772
354.841
354.647
354.016
352.854
350.875
348.41
342.848
338.268
339.201
339.572
341.275
344.937
347.432
346.853
350.56
354.245
327.304
331.98
335.607
344.617
340.429
345.553
346.393
345.044
342.29
338.979
335.661
332.538
329.422
326.861
343.417
333.852
332.187
336.161
337.651
335.254
337.951
336.486
335.398
336.861
337.669
337.841
337.396
336.232
334.425
331.039
324.462
319.156
324.089
321.226
313.771
321.869
326.925
322.913
323.015
325.364
304.953
311.57
324.132
335.792
323.057
325.965
326.401
324.927
321.639
317.057
311.317
303.915
298.793
298.633
306.262
307.534
303.434
303.222
310.403
316.723
320.402
322.98
319.525
321.382
322.492
322.942
322.692
321.796
320.272
317.863
312.422
305.242
303.131
298.223
296.177
311.023
311.785
316.689
310.431
316.524
287.515
292.576
297.755
304.874
303.596
305.047
306.196
305.48
302.851
298.738
292.963
284.852
286.075
286.824
292.685
296.954
297.712
298.153
299.758
299.489
301.617
307.649
309.455
310.289
310.926
310.807
310.22
309.166
307.342
305.175
301.259
296.192
290.607
289.936
290.724
308.279
300.764
303.951
302.958
302.614
270.713
275.941
282.097
285.495
289.446
287.438
287.693
286.914
285.217
283.226
280.443
276.68
279.131
283.127
288.583
292.886
295.563
296.029
297.011
298.817
297.096
302.663
304.007
304.446
302.99
301.859
300.341
298.784
296.88
294.083
291.733
291.365
290.204
290.521
291.672
304.899
293.645
295.563
296.038
297.264
256.668
261.783
266.043
266.177
272.489
273.183
270.615
269.412
268.431
267.582
267.691
269.072
272.314
279.035
283.64
287.87
291.383
293.43
294.317
294.9
293.641
297.437
298.448
298.41
295.598
293.707
291.669
289.458
288.774
288.717
288.032
288.324
288.5
289.144
289.879
295.555
287.786
288.79
290.053
291.108
244.293
248.888
252.39
255.659
257.725
258.065
255.724
252.908
250.344
249.647
251.315
255.283
260.583
269.641
277.834
282.263
285.278
287.544
287.989
286.864
288.202
289.496
289.02
288.43
286.933
284.418
282.188
284.436
284.124
282.541
281.431
285.173
284.492
284.104
286.165
281.764
282.204
281.549
282.197
282.558
234.652
237.292
238.79
238.921
241.21
241.909
237.974
232.488
227.72
226.815
229.912
235.318
241.41
249.873
260.404
270.086
272.252
270.017
272.426
273.994
274.496
274.904
275.312
275.212
273.618
271.304
269.822
269.947
268.814
268.525
269.958
272.717
277.882
277.28
275.327
272.874
271.794
270.789
271.296
270.352
220.528
221.584
222.136
221.863
219.872
218.376
215.932
203.139
197.19
199.348
204.441
210.52
217.023
224.111
231.393
238.74
243.905
248.161
251.246
253.418
254.383
254.977
255.614
255.688
255.012
253.706
253.027
253.023
250.515
251.913
256.899
258.785
260.647
259.302
258.036
259.706
259.414
258.519
263.916
259.89
206.517
207.784
207.673
205.828
208.946
213.832
193.864
184.458
180.497
181.698
184.592
189.334
196.714
205.295
213.295
219.264
223.526
227.158
229.767
231.152
231.644
232.033
233.308
233.782
233.078
232.437
232.796
236.099
237.42
238.265
239.271
239.614
238.85
237.689
237.648
237.968
237.798
237.44
253.838
244.675
190.801
196.613
195.526
194.775
207.678
195.445
187.66
181.471
178.328
177.265
178.089
181.542
186.662
192.232
197.465
201.609
204.493
206.585
207.999
208.572
208.173
209.827
209.187
211.108
209.767
211.265
214.189
214.5
213.94
215.22
216.044
216.568
217.329
217.092
217.384
217.575
217.892
218.094
227.267
222.069
179.235
188.537
183.923
188.34
191.459
177.744
177.578
173.749
171.675
170.736
171.425
173.657
176.733
180.068
182.843
184.752
185.797
186.504
186.756
186.723
186.771
186.006
186.182
184.066
181.196
190.01
186.292
188.399
188.992
190.5
192.227
193.61
194.545
195.045
195.75
196.158
197.227
197.315
197.027
197.867
167.577
172.497
172.863
174.06
173.851
166.906
163.726
162.21
157.339
158.361
159.217
160.802
162.857
164.716
166.031
166.844
167.403
167.585
167.354
166.786
165.811
164.718
163.607
159.947
160.381
161.507
155.063
157.671
159.431
162.859
166.068
168.425
170.317
171.8
172.774
173.45
174.012
182.927
177.563
177.037
150.217
156.303
158.436
157.795
160.196
158.63
153.503
153.447
147.024
143.982
143.263
144.047
145.269
146.591
147.693
148.231
148.326
148.096
147.469
145.97
144.824
143.507
140.815
137.988
142.786
133.002
132.778
131.742
129.245
130.517
135.465
140.675
145.087
148.72
151.201
153.186
154.179
168.756
155.989
155.882
149.573
150.476
148.989
145.867
147.19
140.825
141.35
139.317
136.791
130.976
128.81
128.657
127.986
129.213
129.63
129.677
129.224
128.205
127.065
125.514
123.776
121.935
120.049
117.165
113.645
110.814
106.459
98.5011
88.3271
81.8343
94.4719
112.053
122.656
129.67
133.94
137.482
139.892
147.874
134.927
135.499
151.558
141.206
135.927
130.761
125.953
121.348
119.706
122.326
117.914
112.303
111.637
110.744
111.014
111.445
111.026
110.208
109.352
108.151
106.722
105.316
103.691
101.717
100.264
99.4769
94.1051
88.4014
87.841
91.0266
88.6784
87.4841
83.7441
99.7095
110.731
116.783
120.695
123.821
126.07
132.117
116.073
118.603
135.819
128.304
120.462
112.568
106.23
101.676
98.9454
96.2399
94.6105
93.3761
92.5113
91.963
91.8924
91.7177
91.5276
90.2102
88.9834
87.6278
85.7126
84.6396
83.7962
80.466
82.6764
86.7497
87.6535
93.903
93.0144
92.0506
92.1984
87.4536
81.6646
90.995
98.9711
102.946
105.971
108.382
109.156
117.192
103.824
106.604
121.425
107.962
97.6679
88.5764
80.943
75.6556
73.9654
73.1226
71.7816
70.7791
70.4527
70.6864
70.9647
71.0255
70.4215
69.3386
69.1131
68.9461
64.691
67.3258
72.0877
76.7052
79.4017
79.5797
85.5913
87.5367
86.9131
82.0416
78.3643
77.022
75.847
79.7369
83.7904
85.8379
86.9979
88.7736
90.5508
89.1629
89.0141
89.4837
97.6826
83.5527
68.8244
56.5391
45.5814
41.1637
42.7312
43.254
42.3918
42.8131
43.9067
45.7886
46.8161
46.4359
46.9261
48.6856
51.5749
56.4248
65.3155
69.1702
71.0402
68.7424
60.0832
64.6142
70.7763
70.8198
66.7626
64.7318
64.5205
64.3442
63.8379
66.3143
64.5679
63.9516
62.2966
59.2758
59.277
55.386
53.934
58.1551
74.6065
59.7774
52.3449
43.6636
36.1411
34.3144
31.8598
31.6284
31.9388
32.4886
33.2922
33.5571
31.9149
41.6514
44.5404
38.6935
42.0977
46.9555
49.6458
51.094
51.453
49.5424
48.7466
48.438
49.6338
49.9937
48.584
47.2674
47.4233
47.5853
46.9855
48.0286
47.1558
46.9492
44.2706
38.8008
39.3872
39.105
37.6091
51.5842
49.6903
48.4915
36.8622
31.8011
32.95
32.1995
31.3034
30.9707
30.9714
31.0264
31.013
31.0249
30.5827
29.2802
33.1491
30.8687
26.6637
28.428
42.3881
41.7907
38.8754
37.084
35.0797
33.4975
32.4522
31.0731
29.3424
28.5931
28.8899
29.1539
28.622
27.6704
27.405
25.5269
20.3252
17.1658
15.5658
11.1727
12.6952
16.5847
38.0549
42.8791
37.9318
30.7591
31.6751
31.3912
30.8848
30.5484
30.4139
30.297
30.1579
29.9635
29.6907
29.2498
29.2175
29.7485
27.4213
18.4314
19.191
24.0005
23.1194
21.0587
18.5866