/*--------------------------------*- C++ -*----------------------------------*\
  =========                 |
  \\      /  F ield         | OpenFOAM: The Open Source CFD Toolbox
   \\    /   O peration     | Website:  https://openfoam.org
    \\  /    A nd           | Version:  8
     \\/     M anipulation  |
\*---------------------------------------------------------------------------*/
FoamFile
{
    version     2.0;
    format      ascii;
    class       volScalarField;
    location    "2.05";
    object      alpha.water;
}
// * * * * * * * * * * * * * * * * * * * * * * * * * * * * * * * * * * * * * //

dimensions      [0 0 0 0 0 0 0];

internalField   nonuniform List<scalar> 
9150
(
1
1
1
1
1
1
1
1
1
1
1
1
1
1
1
1
1
1
1
1
1
1
1
1
1
1
1
1
1
1
1
1
1
1
1
1
1
1
1
1
1
1
1
1
1
1
1
1
1
1
1
1
1
1
1
1
1
1
1
1
1
1
1
1
1
1
1
1
1
1
1
1
1
1
1
1
1
1
1
1
1
1
1
1
1
1
1
1
1
1
1
1
1
1
1
1
1
1
1
1
1
1
1
1
1
1
1
1
1
1
1
1
1
1
1
1
1
1
1
1
1
1
1
1
1
1
1
1
1
1
1
1
1
1
1
1
1
1
1
1
1
1
1
1
1
1
1
1
1
1
1
1
1
1
1
1
1
1
1
0.999998
0.999999
0.999998
0.999998
0.999999
0.999999
1
1
1
1
1
0.999999
0.999998
0.999999
1
1
1
1
1
1
1
1
1
1
1
1
1
1
1
1
1
1
1
1
1
1
1
1
1
1
0.999999
1
1
0.999999
0.999999
0.999999
1
1
1
0.999999
0.999999
1
0.999999
0.999999
0.999999
1
1
1
0.999999
0.999998
0.999999
1
1
1
1
1
1
0.999998
0.999998
0.999998
0.999999
1
1
1
1
1
0.999998
0.999998
0.999998
0.999998
1
0.999999
1
1
1
0.999999
0.999998
0.999998
0.999999
1
1
0.999999
0.999999
0.999999
1
1
1
1
1
1
1
1
1
1
1
1
1
1
1
1
1
1
1
1
1
1
1
1
1
1
1
1
1
1
1
1
1
1
1
1
1
1
1
1
1
1
1
1
1
1
1
1
1
1
1
1
1
1
1
1
1
1
1
0.999999
1
1
1
1
1
1
1
1
0.999998
0.999999
1
1
1
1
1
1
1
0.999998
0.999998
0.999999
1
1
1
1
1
1
1
0.999998
0.999998
0.999999
1
1
1
1
1
1
1
0.999998
0.999999
1
1
1
1
1
1
1
1
0.999999
0.999999
1
1
1
0.999997
0.999996
0.999999
1
1
1
1
1
1
1
0.999995
0.999995
0.999995
0.999999
1
1
0.999999
1
1
1
0.999998
0.999995
0.999995
0.999995
0.999999
1
0.999999
1
1
1
1
0.999998
0.999995
0.999995
0.999996
1
1
1
1
1
1
1
0.999998
0.999995
0.999996
1
1
1
0.999999
0.999998
1
1
1
0.999999
0.999999
1
1
1
0.999997
0.999997
0.999997
1
1
1
1
0.999999
1
1
0.999998
0.999996
0.999996
0.999997
1
1
1
0.999999
1
1
1
0.999998
0.999996
0.999997
0.999998
1
1
0.999997
0.999999
1
1
1
0.999998
0.999997
0.999997
1
1
0.999995
1
1
1
1
1
0.999998
0.999997
0.999999
1
0.999999
1
1
1
1
1
1
0.999999
0.999999
1
0.999993
0.999999
1
1
1
1
1
1
1
1
0.99998
0.999998
1
1
1
1
1
1
1
1
0.999976
0.999998
1
1
1
1
1
1
1
1
0.99999
0.999999
1
1
1
1
1
1
1
1
0.999996
1
1
1
1
1
1
1
1
1
1
1
1
1
0.999999
0.999999
1
1
1
1
1
1
1
0.999999
0.999999
0.999999
1
1
1
1
1
1
0.999999
0.999999
0.999999
1
1
1
1
1
1
1
1
0.999999
1
1
1
1
1
1
1
1
1
1
1
1
1
1
1
1
1
1
1
1
1
1
1
1
0.999999
1
1
1
1
1
1
1
1
1
0.999999
0.999999
1
1
1
1
1
1
0.999999
0.999999
0.999996
0.999991
1
1
1
1
1
0.999998
0.999985
0.999972
0.999908
0.999792
0.999998
0.999998
0.999996
1
0.999999
0.99996
0.99908
0.977406
0.971799
0.980617
0.999989
0.999592
0.999917
0.999999
0.999989
0.923874
0.641026
0.3866
0.347358
0.42634
0.999987
0.993495
0.997737
0.999987
0.999899
0.631487
0.0215892
0.00363283
0.0032713
0.00287828
0.999339
0.992769
0.993101
0.999635
0.969752
0.605591
0.117767
0.00480933
0.00283983
0.00252495
0.999189
0.995259
0.991433
0.990494
0.990069
0.958034
0.667835
0.161972
0.00584011
0.0021739
0.999621
1
1
1
1
1
0.966875
0.696823
0.230277
0.0143483
1
1
1
1
1
1
1
0.980888
0.782742
0.373061
0.999998
0.999998
1
1
1
1
1
1
0.999222
0.895608
0.999998
0.999998
0.999998
1
1
1
1
1
1
0.999998
0.999998
0.999998
0.999998
1
1
1
1
0.999999
0.999999
0.999996
1
0.999998
1
1
1
1
0.999999
0.999989
0.999944
0.99999
1
1
1
1
1
1
0.999998
0.999983
0.999811
0.998676
1
1
1
1
1
1
0.999998
0.999983
0.999837
0.997147
1
1
1
1
1
1
0.999999
0.99999
0.999894
0.998559
1
1
1
1
1
1
1
0.999998
0.999978
0.999703
1
1
1
1
1
1
1
1
0.999997
0.999962
0.999996
0.999999
1
1
1
1
1
1
1
1
0.999966
0.999993
1
1
1
1
1
1
1
1
0.999758
0.999946
1
1
1
1
1
1
1
1
0.998201
0.999569
0.999997
0.999999
1
1
1
1
1
1
0.934515
0.997382
0.999985
0.999997
1
1
0.999999
0.999999
1
1
0.452172
0.770247
0.999931
0.999969
0.999831
1
0.999994
0.999999
0.999999
1
0.258763
0.310249
0.837632
0.9999
0.999347
0.999997
0.999992
0.999999
0.999999
1
0.258763
0.258763
0.593977
0.999576
0.999346
0.999953
0.999994
0.999999
1
1
0.26068
0.260592
0.569858
0.991495
0.999749
0.999973
0.999998
1
1
1
0.261398
0.261701
0.758421
0.998854
0.999956
0.999994
0.999999
1
1
1
0.256853
0.268484
0.890266
0.999563
0.999963
0.999997
1
1
1
1
0.244677
0.478533
0.97062
0.99974
0.999975
0.999997
1
1
1
1
0.180125
0.682512
0.997872
0.999863
0.999986
0.999998
1
1
1
1
0.161149
0.873306
0.999341
0.999941
0.999994
0.999999
1
1
1
1
0.366099
0.972274
0.999795
0.999984
0.999998
1
1
1
1
1
0.571281
0.998271
0.999942
0.999995
0.999999
0.999999
0.999999
1
1
1
0.621448
0.999476
0.999973
0.999996
0.999998
0.999998
0.999999
1
1
1
0.622927
0.999497
0.99998
0.999996
0.999997
0.999997
0.999999
1
1
1.00001
0.610623
0.999605
0.999984
0.999997
0.999998
0.999998
0.999998
0.999999
1
1
0.610739
0.999715
0.999988
0.999999
0.999999
0.999999
0.999998
0.999999
1
1.00002
0.634557
0.999773
0.999992
0.999999
0.999999
0.999999
0.999998
0.999998
1
1.00005
0.667129
0.999821
0.999994
0.999999
0.999999
0.999999
0.999998
0.999998
1
1
0.696894
0.999864
0.999996
0.999999
0.999999
0.999999
0.999998
0.999999
1
0.992681
0.722733
0.999903
0.999997
0.999999
0.999999
0.999998
0.999998
0.999999
1
0.855153
0.746079
0.999924
0.999998
0.999999
0.999999
0.999998
0.999998
0.999999
0.999999
0.777843
0.765073
0.999753
0.999998
0.999999
0.999999
0.999998
0.999999
1
0.999999
0.729867
0.778685
0.999283
0.999998
0.999999
0.999999
0.999999
1
1
1
0.700658
0.787025
0.999067
0.999995
0.999999
0.999998
0.999999
1
1
1
0.685709
0.790422
0.998925
0.999992
0.999999
0.999998
0.999999
1
1
0.999999
0.682618
0.789064
0.99902
0.999993
0.999999
0.999999
1
0.999999
1
0.999999
0.694076
0.786347
0.999566
0.999998
0.999999
1
1
0.999999
0.999998
0.999559
0.703946
0.796504
0.999882
1
1
1
1
0.999999
0.999998
0.999872
0.721861
0.813814
0.999989
1
1
1
0.999999
0.999999
0.999999
0.999997
0.7477
0.856449
0.999998
1
1
1
0.999999
0.999999
0.999999
0.999997
0.785253
0.865543
1
1
1
1
0.999999
0.999999
0.999999
1.00001
0.831992
0.906185
1
1
1
1
1
0.999999
1
1
0.887961
0.951981
1
1
1
1
1
1
0.999999
1
0.947117
0.999997
0.999997
0.999997
0.999997
0.999997
0.999999
1
1
1
1
1
1
1
1
1
1
1
1
1
1
1
1
1
1
1
1
1
1
1
1
1
1
1
1
1
1
1
1
0.850643
0.812536
1
1
1
1
1
1
1
1
1
1
1
1
1
1
0.999999
0.999999
1
0.999999
0.999998
0.999998
0.999998
1
0.999999
0.999997
0.999997
0.999997
0.999998
1
1
1
1
1
1
1
1
1
1
0.980879
0.819039
0.812525
0.999999
0.999999
0.999999
0.999999
1
1
1
1
1
1
1
1
1
1
1
1
1
1
1
1
1
1
1
0.999998
0.999997
0.999998
1
1
1
1
1
1
1
1
0.999998
0.999999
1
0.993892
0.812525
0.812524
0.999999
0.999999
0.999999
1
1
1
1
1
1
1
1
1
0.999999
0.999999
1
1
1
1
1
1
1
1
0.999999
0.999999
0.999999
1
1
1
1
1
1
1
1
1
0.999998
1
1
1
0.837739
0.812524
0.999999
0.999999
1
1
1
1
1
1
1
1
0.999999
0.999999
1
1
1
1
1
1
1
1
0.999999
0.999999
0.999999
1
1
1
1
1
1
1
1
1
1
1
0.999999
0.999999
1
1
0.945702
0.812524
0.999999
1
1
1
1
1
1
1
1
1
0.999999
0.999999
1
1
1
1
1
1
1
0.999999
0.999999
0.999999
1
1
1
1
1
1
1
1
1
1
1
1
0.999999
0.999997
0.999999
1
0.999141
0.821904
1
1
1
1
1
1
1
1
1
1
1
1
1
1
1
1
1
1
0.999999
0.999999
0.999999
1
1
1
1
1
1
1
1
1
1
1
1
1
0.999997
0.999997
1
1
1
0.936031
1
1
1
1
1
1
1
1
1
1
1
1
1
1
1
1
1
0.999999
0.999999
1
1
1
1
1
1
1
1
1
1
1
1
1
1
0.999999
0.999996
0.999998
1
1
1
0.999998
1
1
1
1
1
1
1
1
0.999998
0.999992
0.999994
1
0.999998
0.999996
0.999997
1
1
1
1
0.999998
0.999996
0.999999
1
1
0.999997
0.999995
0.999998
1
1
1
1
1
0.999999
0.999995
0.999996
0.999999
1
1
0.999999
0.999999
1
1
1
1
1
1
1
1
0.999999
0.999854
0.999804
0.999814
0.999981
0.999999
1
1
0.999934
0.999942
0.999975
0.999983
0.999997
0.999999
0.999999
0.999995
0.999995
0.999995
0.999999
1
1
1
1
1
0.999995
0.999995
0.999998
1
1
1
0.999999
1
1
1
0.999999
1
1
1
1
0.999741
0.999737
0.999943
0.99999
1
1
1
0.996496
0.99778
0.999242
0.999764
0.999936
0.999986
0.999998
0.999999
0.999998
0.999996
0.999996
0.999998
0.999999
1
1
1
0.999999
0.999999
0.999997
0.999996
1
1
1
1
1
1
0.999999
0.999999
0.999999
1
1
1
1
0.991492
0.996197
0.99999
0.99999
0.9914
0.974737
0.977099
0.991092
0.997754
0.999417
0.999851
0.99997
0.999996
0.999997
0.999997
0.999998
0.999999
0.999999
0.999999
0.999996
0.999999
1
0.999998
0.999997
0.999997
0.999999
0.999999
1
1
1
1
1
1
1
1
1
1
1
1
1
0.801289
0.676787
0.781544
0.837971
0.890367
0.952896
0.981154
0.995646
0.99918
0.999927
0.999981
0.99999
0.999997
0.999999
0.999997
0.999999
0.999999
0.999999
0.999999
0.999996
0.999999
0.999999
0.999998
0.999997
0.999999
1
1
1
0.999996
0.999999
1
1
1
1
1
1
1
1
1
0.877974
0.226355
0.0720995
0.540289
0.831798
0.911334
0.975987
0.997779
0.999529
0.999719
0.99992
0.999988
0.999996
1
1
0.999999
0.999905
0.999548
0.999617
1
1
0.999999
0.999999
1
0.999999
1
1
1
0.999993
0.999991
0.999994
1
1
1
1
1
1
1
1
1
0.651988
0.0400072
0.0141232
0.420892
0.91961
0.976817
0.997085
0.999956
0.999929
0.999851
0.999666
0.999823
1
1
1
1
0.999763
0.999446
0.999446
0.999859
1
1
1
1
1
1
0.999999
0.999995
0.999991
0.999991
0.999998
1
1
1
1
1
1
1
1
1
0.563394
0.019266
0.0141232
0.273189
0.938361
0.999825
0.999955
0.999956
0.999929
0.999682
0.999666
0.999667
1
1
1
1
0.999997
0.999595
0.999487
0.999922
1
1
0.999997
0.999983
0.999996
0.999993
0.999991
0.999991
0.999993
0.999998
1
1
1
0.999999
1
1
1
1
1
1
0.624591
0.025398
0.0141232
0.134578
0.876303
0.999945
0.999956
0.999956
0.999911
0.999679
0.999802
0.999803
0.999918
1
1
0.999922
0.999568
0.999966
0.999968
0.999992
1
1
0.999997
0.999952
0.999952
0.999995
0.999991
0.999994
1
1
1
1
1
0.999999
1
1
1
1
1
1
0.88629
0.116468
0.0141391
0.0147483
0.688617
0.999901
0.999956
0.999956
0.99994
0.999787
0.999746
0.999926
0.999926
0.997844
0.999646
0.999922
0.997683
0.998593
0.999993
0.999994
0.999995
0.999517
0.999944
0.999963
0.999952
0.999997
0.999996
0.999998
0.999999
0.999996
0.999999
0.999999
0.999997
0.999999
1
0.999999
0.999999
1
1
1
1
0.438353
0.015098
0.0153417
0.324945
0.96934
0.999949
0.999957
0.999957
0.999945
0.999424
0.999707
0.999926
0.999733
0.98579
0.98895
0.997418
0.997021
0.99705
0.999458
0.999582
0.999193
0.999557
0.999993
0.999985
0.999998
0.999998
0.999998
0.999993
0.999992
0.999992
0.999993
0.999996
0.999999
1
1
0.999999
0.999999
0.999999
1
1
0.87411
0.120692
0.0153417
0.0162215
0.638055
0.999808
0.999955
0.999957
0.999957
0.999528
0.997129
0.999852
0.999906
0.986331
0.979734
0.995634
0.997131
0.996524
0.996524
0.998723
0.999192
0.999539
0.999993
1
0.999998
0.999997
0.999993
0.999992
0.999992
0.999994
0.999997
0.999998
0.999999
1
1
0.999999
0.999998
0.999998
0.999999
1
1
0.631418
0.0342068
0.0178931
0.0826343
0.754856
0.999835
0.999955
0.999957
0.999925
0.999915
0.994244
0.970104
0.969357
0.984145
0.998919
0.999739
0.996568
0.996458
0.998034
0.999601
0.999851
0.999995
1
0.999999
0.999995
0.999992
0.999992
0.999997
1
1
0.999999
0.999999
1
1
1
0.999998
0.999998
0.999998
1
1
0.997752
0.41238
0.0202024
0.0225561
0.122842
0.746757
0.999842
0.999954
0.999938
0.99993
0.988089
0.705687
0.690193
0.959129
0.999755
0.999768
0.999166
0.99741
0.998746
0.999927
0.999999
0.999999
1
1
0.999995
0.999993
0.999997
1
1
1
0.999999
0.999999
1
1
1
1
0.999998
1
1
1
1
0.954298
0.276375
0.0258823
0.0284138
0.102742
0.57285
0.99981
0.99993
0.999929
0.99088
0.628465
0.600748
0.720413
0.99205
0.99989
0.999901
0.999927
0.999913
0.999985
1
1
1
1
0.999998
0.999998
1
1
1
1
0.999999
1
1
1
1
1
1
1
1
1
1
1
0.895917
0.181145
0.0309786
0.0286602
0.0287857
0.310035
0.891461
0.99992
0.999238
0.701445
0.598236
0.596583
0.785774
0.999924
0.999995
0.999998
1
1
1
1
1
1
1
1
1
1
1
1
1
1
1
1
1
1
1
1
1
1
1
1
1
0.821057
0.112942
0.0273422
0.0267762
0.0262103
0.155849
0.723262
0.998563
0.882359
0.596583
0.596293
0.596003
0.843313
0.999933
0.999998
1
1
1
1
1
1
1
1
1
1
1
1
0.999997
1
1
1
1
1
1
1
1
1
1
1
1
1
0.803606
0.100111
0.0262103
0.0260378
0.0258654
0.0584402
0.620311
0.875923
0.68762
0.596003
0.595875
0.595813
0.903123
0.999947
0.999997
1
1
1
1
1
1
1
1
1
1
0.999994
0.999985
0.999998
1
1
1
1
1
1
1
1
1
1
1
1
1
0.872322
0.150696
0.0258654
0.025824
0.0257827
0.0414051
0.628083
0.689176
0.648068
0.59596
0.595804
0.655516
0.967086
0.999957
0.999999
1
1
1
1
1
1
1
1
1
0.999988
0.999985
0.999998
1
1
1
1
1
1
1
1
1
1
1
1
1
1
0.91728
0.236694
0.0257827
0.0257827
0.0257827
0.280742
0.684066
0.681748
0.621554
0.595041
0.594694
0.779634
0.997812
0.999988
1
1
1
1
1
1
1
1
1
0.999988
0.999993
0.999998
1
1
0.999998
0.999999
1
1
1
1
1
1
1
1
1
1
0.999999
0.942887
0.392296
0.0257827
0.0259797
0.0942659
0.655923
0.680402
0.60777
0.59468
0.59469
0.665089
0.976942
0.999959
0.999998
1
1
1
1
1
1
1
1
0.999991
1
0.998978
1
0.999998
0.999997
0.999997
0.999999
1
1
1
1
1
1
1
1
1
1
0.999998
0.990707
0.65455
0.0432358
0.0446898
0.455023
0.6802
0.670591
0.59469
0.594678
0.742893
0.991803
0.999899
0.999998
1
1
1
1
1
1
1
1
1
1
0.995222
1
0.999998
0.999997
0.999997
0.999998
1
1
1
1
1
1
1
1
1
1
1
0.999999
0.999933
0.672614
0.0927905
0.139422
0.513527
0.775638
0.77348
0.789498
0.943326
0.998631
0.999926
0.999992
0.999994
0.999999
1
1
1
1
1
1
1
1
0.995166
1
1
0.999997
0.999997
0.999999
1
1
1
1
1
1
1
1
1
1
1
1
0.999999
0.999933
0.548002
0.1592
0.274158
0.767536
0.989248
0.997619
0.999431
0.999749
0.999983
0.999998
0.999977
0.999975
0.999997
1
1
0.999997
0.999998
1
1
1
0.99521
1
1
1
0.999999
1
1
1
1
1
1
1
1
1
1
1
1
1
1
0.999999
0.984636
0.379871
0.281325
0.641696
0.99585
0.999836
0.999975
0.999996
0.999998
0.999998
0.999979
0.999968
0.999987
1
1
0.99999
0.999995
1
1
1
0.994826
1
1
1
1
1
1
1
1
1
1
1
1
1
1
1
1
1
1
1
0.999999
0.809311
0.303542
0.47845
0.957069
0.999902
0.999993
0.999998
0.999998
0.999998
0.999984
0.999968
0.999974
0.999999
0.999998
0.99999
0.99999
0.999999
1
0.999883
0.994025
1
1
1
1
1
1
1
1
1
1
1
1
1
1
1
1
1
1
1
1
0.99999
0.60467
0.483453
0.771165
0.9998
0.999984
0.999998
0.999998
0.999998
0.999992
0.999967
0.999967
0.999993
0.999997
0.99999
0.99999
0.999997
1
0.997852
0.994014
1
1
1
1
1
1
1
1
1
1
1
1
1
1
1
1
1
1
1
1
1
0.927356
0.524272
0.582747
0.908747
0.999893
0.999994
0.999998
0.999998
0.999997
0.999968
0.999967
0.999985
0.999996
0.99999
0.99999
0.999996
1
0.996335
0.994014
1
1
1
1
1
1
1
1
1
1
1
1
1
1
1
1
1
1
1
1
1
0.999998
0.698785
0.586017
0.722175
0.988976
0.999979
0.999998
0.999998
0.999998
0.999969
0.999967
0.999967
0.999994
0.999992
0.99999
0.999997
1
0.997361
0.994014
1
1
1
1
1
1
1
1
1
1
1
1
1
1
1
1
1
1
1
1
1
1
0.890578
0.589743
0.59576
0.917425
0.999919
0.999996
0.999998
0.999998
0.999971
0.999967
0.999967
0.999991
0.999999
0.999995
0.999999
1
0.999242
0.994016
1
1
1
1
1
1
1
1
1
1
1
1
1
1
1
1
1
1
1
1
1
1
0.999998
0.673925
0.600229
0.789208
0.998708
0.999993
0.999998
0.999998
0.999978
0.999967
0.999967
0.999994
1
1
1
1
0.999962
0.99402
1
1
1
1
1
1
1
1
1
1
1
1
1
1
1
1
1
1
1
1
1
1
1
0.79298
0.601387
0.696038
0.978838
0.999982
0.999998
0.999998
0.999994
0.999967
0.99998
0.999998
1
1
1
1
1
0.994969
1
1
1
1
1
1
1
1
1
1
1
1
1
1
1
1
1
1
1
1
1
1
1
0.881429
0.604371
0.64443
0.94312
0.999967
0.999998
0.999999
0.999999
0.999993
0.999996
0.999999
1
1
1
1
0.999999
0.99941
1
1
1
1
1
1
1
1
1
1
1
1
1
1
1
1
1
1
1
1
1
1
1
0.938892
0.637723
0.583197
0.907011
0.999965
0.999999
0.999999
0.999999
0.999999
0.999992
0.999998
1
1
1
0.999995
0.999995
0.999997
1
1
1
1
1
1
1
1
1
1
0.999999
1
1
1
1
1
1
1
1
1
1
1
1
0.98296
0.660861
0.582241
0.86723
0.999966
0.999997
0.999999
0.999999
0.999999
0.999989
0.999991
0.999999
1
1
0.999995
0.999996
1
1
1
1
1
1
1
1
1
1
0.999999
0.999999
1
1
1
1
1
1
1
1
1
1
1
1
0.991281
0.652737
0.581684
0.847421
0.999845
0.999994
0.999999
0.999999
0.999996
0.999989
0.999989
0.999999
1
1
0.999995
0.999999
1
1
1
1
1
1
1
1
0.999999
1
1
1
1
0.99991
0.999872
0.99997
0.999999
1
1
1
1
1
1
1
0.98435
0.626043
0.581503
0.859548
0.999579
0.999988
0.999998
0.999999
0.99999
0.999989
0.99999
0.999999
1
1
0.999999
1
1
0.999991
0.999994
0.999997
0.999998
0.999999
0.999999
0.999998
0.999999
1
1
0.991387
0.984666
0.997575
0.999912
0.999992
0.999999
1
1
1
1
1
1
1
0.966885
0.585628
0.581506
0.893939
0.999416
0.999986
0.999989
0.999991
0.999989
0.99999
0.999997
1
1
1
1
1
0.999903
0.999816
0.999884
0.999932
0.999956
0.999989
0.999988
0.999991
1
1
0.807732
0.848901
0.987093
0.99964
0.999983
0.999999
1
0.999992
0.999975
0.999993
1
1
1
1
0.815592
0.583362
0.58351
0.946392
0.999493
0.999989
0.999995
0.999989
0.999989
0.999996
1
1
0.999999
1
1
0.999277
0.999858
0.993383
0.997489
0.9986
0.999989
0.99999
0.99999
0.99999
0.990467
0.773971
0.74653
0.871941
0.99815
0.999998
1
1
1
0.999505
0.999965
0.999991
1
1
1
0.99225
0.585806
0.583489
0.733418
0.993066
0.99981
0.999996
1
0.999989
0.999994
0.999999
1
1
0.999999
1
0.999994
0.999108
0.999862
0.560154
0.694027
0.752488
0.81697
0.910203
0.929228
0.804906
0.717126
0.774972
0.862825
0.983733
0.999445
0.99999
0.99748
0.994682
0.994812
0.999649
0.999994
0.999995
1
1
0.999998
0.756939
0.583542
0.583489
0.952325
0.999988
0.999983
1
1
0.999997
1
1
1
1
1
1
0.999971
0.999108
0.999862
0.0251663
0.0711057
0.0916397
0.102545
0.228529
0.282402
0.464004
0.798126
0.967389
0.985193
0.985193
0.968677
0.968605
0.983362
0.993218
0.993279
0.999959
0.999996
0.999996
1
0.999998
0.846441
0.583873
0.583596
0.724809
0.999988
0.999999
1
1
1
0.999999
1
1
1
1
1
1
0.999939
0.999131
0.99355
0.00245309
0.00208467
0.00201768
0.00200104
0.00201452
0.0152854
0.371135
0.773677
0.758933
0.757203
0.898134
0.97038
0.967968
0.985482
0.997586
0.995316
0.999996
0.999996
0.999996
0.98537
0.783578
0.586511
0.584704
0.637927
0.973098
0.999999
1
1
1
1
1
1
1
1
1
1
1
0.999929
0.999253
0.99132
0.00203132
0.00201445
0.00200107
0.00197746
0.00197248
0.00197684
0.24164
0.560126
0.527363
0.525214
0.782002
0.994701
0.993727
0.995108
0.999482
0.99969
0.999994
0.999996
0.941476
0.701035
0.587067
0.586504
0.635471
0.898948
0.999996
1
1
1
1
1
1
1
1
1
0.999999
1
1
0.999936
0.999344
0.991331
0.00220807
0.00200135
0.00197026
0.00197248
0.00197248
0.00197248
0.0529613
0.454939
0.550248
0.526489
0.763068
0.998924
0.999323
0.999415
0.999546
0.999728
0.997005
0.915757
0.661572
0.597569
0.595389
0.687655
0.896745
0.999563
1
1
1
1
1
1
1
1
1
1
1
1
1
0.999955
0.999331
0.99746
0.0463184
0.00234974
0.00648302
0.0145165
0.00466235
0.0019782
0.00226388
0.237981
0.742351
0.787471
0.906292
0.999334
0.999358
0.998772
0.999289
0.999729
0.93546
0.651763
0.627001
0.626332
0.78896
0.949755
0.999677
0.999995
0.999999
1
1
1
1
1
1
1
1
1
1
1
1
0.999981
0.999642
0.999648
0.527949
0.117781
0.0498966
0.0266723
0.0025593
0.00226634
0.00260362
0.0123849
0.580668
0.99483
0.999253
0.999357
0.999368
0.999372
0.999381
0.993085
0.732119
0.628893
0.629353
0.807845
0.984354
0.999811
0.999983
0.999999
1
1
1
1
1
1
1
1
1
1
0.999999
1
1
0.999999
0.999987
0.989754
0.951066
0.615619
0.158851
0.011264
0.00273701
0.0026058
0.00265322
0.00265322
0.166505
0.817955
0.999048
0.999366
0.999381
0.999382
0.999381
0.973227
0.636444
0.629299
0.694864
0.972291
0.999812
0.99998
0.999998
1
1
1
1
1
1
1
1
1
1
1
0.999999
0.999999
1
1
1
0.932997
0.99999
0.988221
0.72586
0.21169
0.00408387
0.00274035
0.00267494
0.00273414
0.0026609
0.125612
0.405317
0.783143
0.988523
0.999381
0.999381
0.999336
0.747513
0.629762
0.706805
0.980767
0.999962
0.999998
1
1
1
1
1
1
0.999993
0.999995
1
1
1
1
1
1
0.998447
0.992553
0.956934
0.927902
0.999919
0.999825
0.999738
0.786516
0.222785
0.00337776
0.00276157
0.00284857
0.00274244
0.00312994
0.00364729
0.0659168
0.404312
0.870326
0.996087
0.998731
0.942015
0.632346
0.7492
0.987402
0.99996
0.999998
0.999999
1
1
1
1
0.999995
0.999986
0.999987
0.999999
1
1
1
0.999999
1
0.986325
0.936376
0.927902
0.927892
0.999796
0.999738
0.998764
0.998159
0.787152
0.16142
0.00338847
0.00277749
0.00281207
0.00261182
0.00280931
0.00269017
0.00303636
0.253841
0.701509
0.750606
0.655973
0.744207
0.938436
0.997852
0.999935
0.999998
0.999999
1
1
1
0.999999
0.999987
0.999986
0.999989
1
1
1
1
0.999996
1
0.976661
0.927947
0.927892
0.927901
0.97897
0.996173
0.99801
0.995577
0.992452
0.714222
0.0812796
0.00285968
0.0027414
0.00274806
0.00265168
0.00267547
0.00263179
0.00289288
0.224928
0.38534
0.420972
0.623364
0.937149
0.99973
0.999971
0.999998
1
1
1
1
0.999991
0.999986
0.999986
0.999994
1
1
1
0.999999
0.999988
0.999817
0.981321
0.962434
0.948317
0.947874
0.959012
0.767084
0.842395
0.944783
0.986789
0.975364
0.631449
0.0261766
0.00276706
0.0026973
0.00270065
0.00271472
0.00266339
0.00268833
0.0260881
0.417222
0.496715
0.535145
0.66151
0.966543
0.999802
0.999978
0.999999
1
1
0.999999
0.999986
0.999986
0.999986
0.999998
1
1
0.999998
0.99998
0.999967
0.999293
0.997022
0.999612
0.998189
0.998371
0.971187
0.569945
0.329428
0.45119
0.724018
0.949808
0.958332
0.548287
0.0365412
0.00272132
0.00271547
0.0027296
0.00272788
0.00269924
0.00270667
0.461006
0.764495
0.551804
0.540659
0.635591
0.976689
0.99977
0.999983
0.999999
1
0.999999
0.999987
0.999986
0.999989
1
1
1
0.999992
0.999968
0.999922
0.999589
0.999976
0.999985
0.999978
0.999981
0.999461
0.745723
0.319559
0.206015
0.197756
0.485719
0.930527
0.955657
0.803508
0.109299
0.00271275
0.00270906
0.00272759
0.00269863
0.0042338
0.556526
0.971953
0.594025
0.535546
0.531828
0.753818
0.997398
0.999871
0.999991
0.999999
0.999999
0.999987
0.999986
0.999993
1
1
1
0.999988
0.999975
0.999951
0.999995
0.999998
0.999998
0.999998
0.999997
1
0.999991
0.902824
0.504564
0.149004
0.14679
0.327889
0.909266
0.946537
0.866773
0.413719
0.121382
0.00557231
0.00271122
0.186324
0.844413
0.985942
0.764798
0.531828
0.530619
0.529875
0.892218
0.999319
0.999943
0.999994
0.999998
0.999996
0.999992
0.999998
1
1
0.999998
0.999994
0.999998
0.999999
1
1
0.999999
0.999999
0.999999
1
1
1
0.999991
0.664459
0.173505
0.142674
0.273798
0.868681
0.780873
0.576555
0.728919
0.720428
0.6019
0.663993
0.940904
0.991763
0.996394
0.581622
0.529697
0.529875
0.707817
0.992916
0.99982
0.999985
0.999998
0.999999
1
1
1
1
0.999998
0.999999
1
1
1
1
1
1
0.999999
1
1
1
1
1
0.75562
0.203162
0.10551
0.185868
0.199615
0.279719
0.735461
0.961972
0.979367
0.926553
0.943781
0.995044
0.998942
0.809447
0.530019
0.529699
0.529755
0.925033
0.999435
0.999954
0.999996
0.999999
1
1
1
1
1
1
1
1
1
1
0.999999
1
0.999997
1
1
1
1
1
1
0.818886
0.173992
0.0412114
0.0407786
0.0402457
0.322248
0.929903
0.986092
0.992622
0.971212
0.99087
0.999638
0.999116
0.644757
0.530019
0.53066
0.790898
0.998593
0.999917
0.999993
0.999999
1
1
1
1
1
1
1
1
1
1
0.999999
1
0.999997
1
1
1
1
1
1
1
0.807686
0.122932
0.0402748
0.0402579
0.0450776
0.69096
0.992835
0.996672
0.998336
0.99732
0.999801
0.999841
0.93189
0.532931
0.531497
0.705622
0.993019
0.999881
0.999998
1
1
1
1
1
1
1
1
1
1
1
1
1
0.999999
1
1
1
1
1
1
1
1
0.655906
0.0542693
0.0402748
0.0426419
0.385144
0.966067
0.998509
0.999608
0.999846
0.999881
0.999903
0.999941
0.732654
0.53149
0.686964
0.992672
0.999884
0.999993
0.999999
1
1
1
1
1
1
1
1
1
1
1
1
1
1
1
1
1
1
1
1
1
0.990641
0.375678
0.0426612
0.0434068
0.226918
0.895047
0.997904
0.999658
0.999886
0.999903
0.999906
0.999914
0.999528
0.793873
0.364023
0.84835
0.99932
0.999947
0.999996
1
1
1
1
1
1
1
1
1
1
1
0.999953
0.999474
1
1
1
1
1
1
1
1
0.999998
0.864387
0.135231
0.0447603
0.184795
0.841239
0.996963
0.999559
0.999879
0.999908
0.999907
0.999908
0.999877
0.965301
0.305926
0.394486
0.883658
0.999488
0.999963
0.999996
1
0.994872
0.971514
0.927539
0.856729
0.822491
0.701201
0.95595
1
1
0.999742
0.997833
1
1
1
0.999999
0.999999
0.999998
0.999999
0.999998
0.999998
0.999994
0.488937
0.0520856
0.211541
0.841996
0.996631
0.999476
0.999879
0.999907
0.999908
0.999908
0.999908
0.967095
0.314174
0.0231981
0.309168
0.743557
0.858435
0.8054
0.662859
0.506755
0.406843
0.310757
0.203704
0.159897
0.140681
0.670317
0.969195
0.999996
0.999593
0.997673
1
1
1
0.999997
0.999994
0.99999
0.999982
0.999992
0.999994
0.999974
0.818941
0.104417
0.270602
0.865171
0.99696
0.999485
0.999863
0.999905
0.999907
0.991241
0.899872
0.612774
0.130702
0.00595151
0.00893894
0.106355
0.164347
0.13332
0.0642009
0.0212194
0.0102156
0.00824229
0.0070643
0.00637487
0.00780496
0.192
0.780002
0.999988
0.997659
0.995719
1
1
0.999998
0.999988
0.999968
0.999946
0.999873
0.999891
0.999938
0.999962
0.937771
0.213111
0.377032
0.91002
0.9978
0.999624
0.999821
0.999863
0.969119
0.650466
0.247958
0.0611835
0.0201995
0.00184039
0.00152992
0.00309906
0.00384829
0.00352575
0.00273402
0.00220917
0.00196671
0.0017594
0.00155357
0.00128654
0.00146633
0.0241257
0.626755
0.999959
0.995149
0.995149
1
0.999999
0.999992
0.999942
0.999839
0.999701
0.999143
0.998795
0.999327
0.999906
0.945639
0.284969
0.531292
0.964216
0.998731
0.999547
0.99968
0.982605
0.568956
0.0824409
0.00492958
0.00223048
0.000910638
0.00037112
0.000424199
0.000694979
0.000776335
0.00067826
0.000541411
0.000464104
0.000430421
0.000385072
0.000297752
0.000399225
0.000491584
0.0340545
0.692067
0.995533
0.997362
0.995328
1
0.999998
0.999961
0.999719
0.999223
0.998276
0.984464
0.95109
0.982448
0.999456
0.834179
0.342012
0.724499
0.99428
0.999126
0.999312
0.99464
0.573018
0.0601609
0.0022223
0.000876065
0.000418832
0.000168002
8.42435e-05
0.000114082
0.00016697
0.000176288
0.000159694
0.000130735
0.00011889
0.000108333
0.000106796
0.000141275
0.000157338
0.00032814
0.231493
0.898094
0.996767
0.999939
0.997542
1
0.999989
0.999816
0.998445
0.99621
0.98776
0.576337
0.332516
0.754032
0.88313
0.539405
0.568025
0.936002
0.998612
0.998879
0.998705
0.478411
0.0489588
0.00125432
0.000353474
0.000152503
8.59327e-05
5.59903e-05
4.98938e-05
5.47656e-05
5.73543e-05
6.29012e-05
6.31471e-05
6.00049e-05
5.98459e-05
6.79377e-05
7.31183e-05
0.000108355
0.000142741
0.126117
0.747222
0.993727
0.998936
0.999993
0.999948
1
0.999952
0.999135
0.993291
0.845038
0.500528
0.0517268
0.0316552
0.462465
0.546127
0.538741
0.901614
0.995222
0.99679
0.980386
0.424378
0.00670142
0.000598018
0.000173252
8.51324e-05
5.57615e-05
4.70688e-05
4.46622e-05
4.48171e-05
4.45588e-05
4.68776e-05
4.91679e-05
5.14166e-05
5.2561e-05
5.25734e-05
5.98772e-05
6.90742e-05
0.014753
0.222939
0.712023
0.992632
0.999671
0.999946
0.999996
0.999999
1.00001
0.999861
0.996019
0.726447
0.190099
0.0242745
0.0246336
0.0315002
0.364736
0.502412
0.891874
0.989729
0.993051
0.985148
0.413193
0.00205105
0.000248413
0.000129216
5.79789e-05
4.85971e-05
4.5702e-05
4.43324e-05
4.37777e-05
4.36112e-05
4.35923e-05
4.39708e-05
4.71363e-05
5.05316e-05
5.189e-05
5.2796e-05
0.0189209
0.16333
0.488891
0.850802
0.99522
0.999798
0.999978
0.999997
0.999997
0.999999
1.00008
0.999093
0.752769
0.136811
0.0224131
0.0225406
0.0243075
0.0246336
0.355032
0.904786
0.995361
0.991607
0.983472
0.511139
0.00210436
0.000370351
8.00849e-05
5.53427e-05
4.93862e-05
4.65341e-05
4.48028e-05
4.37776e-05
4.36112e-05
4.35897e-05
4.34444e-05
4.35792e-05
4.39506e-05
4.8672e-05
0.0738532
0.245603
0.532154
0.815326
0.973091
0.998625
0.99975
0.999977
0.999997
0.999999
0.999999
1
1.00001
0.945089
0.194721
0.0211699
0.0203308
0.0220994
0.0225406
0.0576613
0.699275
0.999233
0.997451
0.995369
0.865932
0.159678
0.000349672
0.00011892
6.5979e-05
5.09497e-05
4.71404e-05
4.54189e-05
4.47239e-05
4.46656e-05
4.37768e-05
4.36087e-05
0.0120404
0.0923688
0.227941
0.452337
0.695406
0.890686
0.984144
0.99821
0.999467
0.999857
0.999974
0.999997
0.999999
0.999992
0.999998
1
1.00033
0.418407
0.0210607
0.0177934
0.0193241
0.0203304
0.0221959
0.33343
0.999264
0.999768
0.999083
0.997053
0.888456
0.20661
0.000151266
8.74345e-05
7.03284e-05
6.41358e-05
5.03871e-05
4.58669e-05
0.0012043
0.0642851
0.174134
0.342687
0.558056
0.747761
0.889438
0.973649
0.99684
0.998682
0.999502
0.999801
0.999937
0.999981
0.999996
0.999999
1
0.999988
0.999998
1
0.948225
0.127614
0.0162058
0.0168283
0.0185922
0.0201297
0.0655274
0.716629
0.999895
0.999927
0.999757
0.997844
0.967742
0.581277
0.194523
0.111945
0.112908
0.160435
0.242818
0.368845
0.547761
0.718965
0.857488
0.950187
0.990877
0.99694
0.99845
0.999273
0.999652
0.999855
0.999934
0.999962
0.999983
0.999991
0.999993
0.99999
1
0.999988
0.999998
1
0.548397
0.0279759
0.0138395
0.0162339
0.0168424
0.0199854
0.294382
0.99986
0.999985
0.999981
0.999914
0.999004
0.98431
0.944337
0.864035
0.813874
0.812626
0.85957
0.915904
0.962808
0.990319
0.996158
0.99781
0.998816
0.99934
0.999648
0.999824
0.999915
0.999954
0.999974
0.999974
0.999973
0.999972
0.999944
0.999961
0.999989
0.999999
0.999989
1
1
0.308313
0.0133343
0.01223
0.0150739
0.0167693
0.0446306
0.631401
0.999987
0.999998
0.999994
0.999972
0.999212
0.997063
0.998022
0.997496
0.997104
0.997122
0.99763
0.998257
0.998805
0.999224
0.999534
0.999739
0.999854
0.999911
0.999954
0.999973
0.999982
0.999983
0.999981
0.999978
0.999974
0.999924
0.999907
0.999909
0.999996
1
0.999999
1
0.999878
0.176988
0.0116612
0.0114524
0.0127752
0.0160594
0.208466
0.960711
1
1
0.999999
0.999982
0.99986
0.999854
0.999723
0.999664
0.999618
0.999627
0.999699
0.999783
0.999854
0.999907
0.999945
0.999968
0.999975
0.999977
0.999983
0.999985
0.999986
0.999985
0.999983
0.999971
0.999915
0.999907
0.999907
0.999927
1
1
1
0.999916
0.99801
0.0932927
0.0087033
0.0110862
0.0121902
0.0223438
0.510854
0.999988
1
1
1
0.999997
0.999991
0.999974
0.99996
0.999955
0.99995
0.999952
0.999963
0.999974
0.999983
0.999989
0.999993
0.999995
0.99999
0.999985
0.999985
0.999986
0.999986
0.999986
0.99996
0.999906
0.999906
0.999907
0.999917
0.999992
1
1
0.999912
0.998228
0.997845
0.0507397
0.00714185
0.00910524
0.0116564
0.106735
0.824513
1.00002
1
1
1
1
0.999997
0.999992
0.999996
0.999994
0.999993
0.999993
0.999995
0.999997
0.999998
0.999999
0.999999
0.999998
0.999994
0.999954
0.999932
0.999986
0.999986
0.999982
0.999906
0.999906
0.999906
0.999921
0.999988
0.999997
1
0.999708
0.998111
0.997845
0.997848
0.0266615
0.00599363
0.00668802
0.0102339
0.328111
0.999936
1
1
1
1
1
0.999997
0.999995
1
0.999999
0.999998
0.999998
0.999999
0.999999
0.999999
0.999999
0.999999
0.999999
0.999997
0.999924
0.999909
0.999944
0.999986
0.999916
0.999906
0.999906
0.99994
0.999991
0.999993
0.999996
0.999444
0.997904
0.99786
0.997857
0.999106
0.0126892
0.00456039
0.00748113
0.0288129
0.588729
0.999992
1
1
1
1
0.999998
0.999995
0.999997
1
1
0.999999
1
1
1
0.999999
0.999999
0.999999
0.999999
0.999999
0.999951
0.999909
0.999955
0.999911
0.999907
0.999906
0.999964