/*--------------------------------*- C++ -*----------------------------------*\
  =========                 |
  \\      /  F ield         | OpenFOAM: The Open Source CFD Toolbox
   \\    /   O peration     | Website:  https://openfoam.org
    \\  /    A nd           | Version:  8
     \\/     M anipulation  |
\*---------------------------------------------------------------------------*/
FoamFile
{
    version     2.0;
    format      ascii;
    class       volScalarField;
    location    "2.05";
    object      epsilon;
}
// * * * * * * * * * * * * * * * * * * * * * * * * * * * * * * * * * * * * * //

dimensions      [0 2 -3 0 0 0 0];

internalField   nonuniform List<scalar> 
9150
(
0.0313138
0.0124511
0.00311039
0.00096048
0.000484046
0.000484097
0.000960654
0.00311097
0.0124522
0.0313135
0.0302225
0.00875594
0.00174148
0.000620594
0.000366754
0.000366776
0.000620665
0.00174179
0.00875675
0.0302224
0.0284263
0.00695492
0.00112604
0.00051023
0.000328969
0.000328981
0.000510259
0.00112619
0.00695553
0.0284263
0.0264941
0.00601556
0.000845265
0.000477126
0.000317467
0.000317476
0.00047714
0.000845328
0.00601602
0.0264942
0.0244918
0.00561118
0.000705506
0.000469909
0.000315716
0.000315723
0.000469918
0.000705522
0.00561157
0.0244918
0.123693
0.0525918
0.0229287
0.0142752
0.0105776
0.0105717
0.0142572
0.0228884
0.0524963
0.123659
0.0761049
0.022997
0.013281
0.00904067
0.00657304
0.00657086
0.00903356
0.0132663
0.0229864
0.0761057
0.0553277
0.0178458
0.0076671
0.00469171
0.00322189
0.00322134
0.0046896
0.00766353
0.0178455
0.0553294
0.0424912
0.0152024
0.00480516
0.00235508
0.00145941
0.00145936
0.0023548
0.00480494
0.0152044
0.0424919
0.0356072
0.0137072
0.00352638
0.00132998
0.000736299
0.000736346
0.00133011
0.0035269
0.013709
0.0356074
1.03912
0.156902
0.0480308
0.0214963
0.0133071
0.0133706
0.0217343
0.0484912
0.153029
0.764414
0.277412
0.119867
0.0463616
0.0213099
0.0134051
0.0134423
0.021446
0.0468516
0.122738
0.27527
0.235291
0.104118
0.0454479
0.0210971
0.0135081
0.0135207
0.0211357
0.0455659
0.10507
0.234771
0.197014
0.0917645
0.0446625
0.0208509
0.013609
0.0136089
0.020855
0.0446832
0.0918462
0.196813
0.156312
0.0865242
0.0409644
0.0196354
0.0132438
0.0132364
0.0196159
0.0409198
0.0863605
0.156239
2.22702
2.23799
2.24692
2.25359
2.2567
2.25537
2.24923
2.2382
2.22225
2.20131
1.00393
1.00903
1.01277
1.01513
1.01603
1.01538
1.01313
1.00925
1.00371
0.996525
0.782567
0.78639
0.789191
0.790979
0.791745
0.791472
0.790146
0.787757
0.784301
0.779782
0.704084
0.707274
0.709683
0.711309
0.712145
0.712178
0.711396
0.709789
0.707346
0.704064
0.671594
0.674356
0.676529
0.678102
0.679061
0.679387
0.67906
0.678057
0.676358
0.673945
0.660357
0.662787
0.664804
0.666391
0.667522
0.668168
0.668297
0.667874
0.666861
0.665224
0.66091
0.663073
0.665004
0.666672
0.668043
0.669075
0.66972
0.669928
0.669646
0.668817
0.668626
0.670592
0.672514
0.674352
0.676058
0.677575
0.678842
0.679791
0.68035
0.680443
0.680794
0.682651
0.684666
0.686788
0.688953
0.691091
0.693125
0.694971
0.696539
0.697732
0.695575
0.697441
0.699683
0.702232
0.705011
0.707935
0.710915
0.713852
0.716641
0.719169
0.711574
0.713611
0.716245
0.719392
0.722962
0.726862
0.730992
0.735244
0.739502
0.743641
0.727682
0.730089
0.733306
0.737239
0.741792
0.746866
0.752358
0.758157
0.764146
0.770197
0.743021
0.746015
0.750014
0.754921
0.760639
0.767072
0.774121
0.781682
0.789648
0.7979
0.756929
0.76072
0.765682
0.771722
0.778752
0.786685
0.795435
0.804918
0.815042
0.825714
0.768949
0.773712
0.779773
0.787054
0.795479
0.80498
0.815493
0.826954
0.839303
0.852477
0.778823
0.784672
0.791904
0.800459
0.810282
0.821327
0.833553
0.846924
0.861409
0.876981
0.786482
0.793452
0.801847
0.811628
0.822764
0.83523
0.849009
0.86409
0.880468
0.898145
0.792018
0.800064
0.809535
0.820416
0.832697
0.846373
0.861449
0.877933
0.895838
0.915187
0.79566
0.804661
0.815051
0.826838
0.840031
0.854644
0.870695
0.888208
0.907208
0.927729
0.797737
0.807508
0.818609
0.831062
0.844892
0.860128
0.876799
0.894938
0.91458
0.935764
0.798641
0.808962
0.820529
0.833381
0.847554
0.863084
0.88001
0.898371
0.918207
0.93956
0.798807
0.809434
0.821214
0.834192
0.848411
0.863913
0.880741
0.898937
0.918543
0.9396
0.798679
0.809373
0.821117
0.833961
0.84795
0.863126
0.879534
0.897213
0.916205
0.936547
0.7987
0.809241
0.820728
0.833208
0.846723
0.861316
0.877026
0.893889
0.911942
0.931217
0.799295
0.809502
0.820546
0.832472
0.845319
0.859121
0.873912
0.889723
0.906582
0.924514
0.80088
0.810609
0.821072
0.832303
0.844335
0.857195
0.870909
0.885498
0.900983
0.917378
0.803852
0.813009
0.822794
0.833237
0.84436
0.856182
0.868718
0.881983
0.895985
0.91073
0.808604
0.81713
0.826186
0.83579
0.845957
0.856694
0.868009
0.879904
0.892379
0.905429
0.815515
0.823389
0.831698
0.840453
0.849655
0.859304
0.869397
0.879927
0.890882
0.90225
0.824959
0.832187
0.839764
0.847688
0.855951
0.864541
0.873446
0.882649
0.892131
0.901868
0.837304
0.843919
0.850801
0.857937
0.865307
0.872891
0.880665
0.888604
0.896681
0.904866
0.852921
0.858975
0.865217
0.871622
0.878162
0.884804
0.891516
0.898266
0.905019
0.911739
0.872191
0.877745
0.883412
0.889154
0.894931
0.900702
0.906428
0.912066
0.917578
0.922924
0.895499
0.900621
0.90578
0.910929
0.916016
0.920991
0.925805
0.930411
0.934763
0.938819
0.923216
0.927974
0.932701
0.937336
0.941815
0.946077
0.950063
0.953717
0.95699
0.959835
0.955704
0.960185
0.964579
0.968805
0.972782
0.976433
0.979689
0.982483
0.98476
0.986468
0.993475
0.997804
1.002
1.00596
1.00956
1.01273
1.01537
1.0174
1.01877
1.0194
1.03725
1.04166
1.04587
1.04974
1.05315
1.05599
1.05814
1.05952
1.06004
1.05965
1.08817
1.09299
1.09751
1.10156
1.10501
1.1077
1.10952
1.11035
1.1101
1.10871
1.14792
1.15362
1.15885
1.16344
1.16722
1.17002
1.1717
1.17211
1.17116
1.16876
1.21883
1.22599
1.23249
1.23813
1.2427
1.24599
1.24782
1.24801
1.24645
1.24304
1.30384
1.31335
1.32197
1.32946
1.33554
1.33993
1.3424
1.34272
1.34073
1.3363
1.40673
1.41994
1.43205
1.4427
1.45151
1.45809
1.46208
1.46317
1.46112
1.45578
1.53224
1.55132
1.56915
1.5852
1.59889
1.60962
1.61679
1.61991
1.61861
1.61268
1.68616
1.71461
1.7419
1.76724
1.78967
1.80816
1.82168
1.82935
1.83052
1.82483
1.87507
1.91843
1.96143
2.00283
2.04104
2.07418
2.10031
2.11764
2.1249
2.12145
2.10519
2.17195
2.24078
2.30995
2.37689
2.43815
2.48963
2.52736
2.54846
2.55172
2.37978
2.4818
2.59182
2.70813
2.82726
2.94316
3.04707
3.12908
3.18146
3.20131
2.69424
2.84524
3.01609
3.20741
3.41729
3.63862
3.85562
4.0411
4.16809
4.22565
3.03082
3.24042
3.48795
3.78078
4.12689
4.53465
5.0048
5.41292
5.7181
5.89891
3.35963
3.62459
3.94527
4.3369
4.82037
5.4266
6.19997
7.19146
7.85872
7.92106
3.6528
3.95676
4.32556
4.77605
5.3297
6.01471
6.86941
7.9438
9.29033
10.4635
3.90111
4.22767
4.62318
5.10378
5.69042
6.40914
7.29156
8.37452
9.69525
11.281
4.1095
4.44708
4.85472
5.34986
5.95455
6.69644
7.60676
8.72488
10.096
11.7705
4.2819
4.6218
5.03235
5.53196
6.14419
6.8991
7.8346
8.99851
10.45
12.2559
4.42116
4.75443
5.15712
5.6483
6.25297
7.00416
7.94582
9.13685
10.6568
12.6141
4.53046
4.84765
5.22997
5.69572
6.26914
6.98275
7.88059
9.02292
10.493
12.4071
4.61504
4.90807
5.25894
5.68361
6.20305
6.84518
7.6475
8.66079
9.95425
11.6225
4.68159
4.94573
5.25894
5.63401
6.08738
6.64044
7.32117
8.16641
9.22481
10.5604
4.7361
4.97034
5.24534
5.57083
5.95894
6.42484
6.98774
7.67192
8.50793
9.53393
4.78275
4.98851
5.22862
5.51041
5.84262
6.23581
6.70286
7.25938
7.92402
8.71844
4.82582
5.0053
5.21526
5.46132
5.74987
6.08837
6.48565
6.95227
7.50051
8.14414
4.8729
5.02765
5.21173
5.4296
5.68593
5.98589
6.33544
6.74162
7.21265
7.75797
4.93539
5.06463
5.2247
5.41917
5.65124
5.92406
6.24104
6.60607
7.02372
7.49958
5.0268
5.12519
5.25848
5.4293
5.6394
5.89004
6.18235
6.51765
6.89784
7.32598
5.16186
5.21824
5.31647
5.45803
5.64314
5.87133
6.14185
6.45401
6.80781
7.20465
5.35606
5.35361
5.40376
5.50625
5.65964
5.86198
6.11101
6.40438
6.74018
7.11771
5.62395
5.54233
5.52823
5.57895
5.6914
5.86253
6.08905
6.36703
6.6922
7.06089
5.96919
5.79471
5.70144
5.687
5.74836
5.88207
6.08462
6.35079
6.67332
7.04492
6.36737
6.11398
5.93886
5.84985
5.85106
5.94177
6.11927
6.37823
6.70646
7.08944
6.85969
6.5176
6.26397
6.09645
6.03028
6.07368
6.22552
6.47831
6.81767
7.22488
7.49659
7.06724
6.71529
6.45389
6.31085
6.30097
6.42688
6.68085
7.04508
7.49483
8.20175
7.74461
7.28444
6.91137
6.68154
6.61867
6.72857
7.0018
7.41542
7.93704
8.97276
8.52893
7.93107
7.42372
7.10144
6.9959
7.1137
7.44033
7.94474
8.58448
9.93358
9.416
8.61176
7.93584
7.51864
7.39414
7.56165
7.99532
8.65192
9.47643
11.3539
10.4482
9.28315
8.39266
7.88933
7.7883
8.06721
8.68137
9.57179
10.6692
13.3678
11.5387
9.87789
8.7505
8.19486
8.18006
8.64937
9.53437
10.7587
12.2387
15.5075
12.5312
10.3036
8.96376
8.42218
8.57762
9.33304
10.5963
12.2751
14.273
16.8782
13.0186
10.4076
8.97931
8.55502
8.98135
10.1324
11.8994
14.179
16.8668
18.0627
13.2515
10.2981
8.84347
8.60815
9.39301
11.051
13.4625
16.5191
20.1172
19.1624
13.4037
10.0908
8.6129
8.59842
9.80931
12.0821
15.2902
19.3301
24.1149
19.9671
13.4562
9.81186
8.30178
8.52
10.2115
13.2032
17.368
22.6228
28.9269
20.3402
13.3703
9.45351
7.89922
8.34967
10.5657
14.374
19.6561
26.3741
34.58
20.3923
13.1704
9.0183
7.38969
8.05372
10.8228
15.5316
22.0833
30.5158
41.0352
20.2874
12.9039
8.5211
6.76518
7.59857
10.9249
16.595
24.553
34.9406
48.1376
20.1577
12.6146
7.98308
6.02974
6.95698
10.8086
17.4664
26.9523
39.5582
55.8497
20.08
12.3192
7.42309
5.20402
6.11632
10.4093
18.0233
29.126
44.2591
64.2801
20.045
12.0026
6.85294
4.32937
5.09019
9.66957
18.115
30.8372
48.7721
73.2549
20.0127
11.6402
6.27943
3.46789
3.93249
8.5562
17.5792
31.7687
52.6428
82.3364
19.9134
11.2036
5.70046
2.68754
2.74713
7.0851
16.2757
31.543
55.1754
90.553
19.6705
10.6694
5.10518
2.03457
1.67921
5.35235
14.1507
29.8079
55.4547
96.0418
19.2382
10.0303
4.48257
1.51363
0.869565
3.55592
11.3158
26.4157
52.6852
96.4244
18.6209
9.29053
3.8268
1.09702
0.379643
1.97453
8.0951
21.611
46.831
90.9057
17.9796
8.44384
3.13249
0.754884
0.151097
0.860496
4.97747
15.9738
38.4975
79.9996
17.0579
7.35922
2.38686
0.474296
0.0641819
0.280534
2.49052
10.3116
28.7241
65.0847
15.6476
5.94391
1.61606
0.259587
0.0315451
0.0744858
0.965523
5.51138
18.6838
47.6822
12.658
4.051
0.908703
0.123141
0.0191017
0.0254627
0.285337
2.28449
9.92377
29.2309
8.20344
2.28082
0.446735
0.0599555
0.0150336
0.0156716
0.0787911
0.729565
4.12414
14.2342
3.16143
0.989722
0.195786
0.0334772
0.0137038
0.0137388
0.03254
0.209139
1.38201
5.47315
0.960908
0.413963
0.0868759
0.0238645
0.013325
0.0133804
0.0233533
0.075564
0.414767
1.24921
2.17329
2.13876
2.09859
2.05312
2.0027
1.94777
1.88875
1.8261
1.76029
1.69172
1.62083
1.54897
1.48136
1.41489
1.34858
1.28227
1.21613
1.15043
1.08545
1.02143
0.958596
0.897115
0.837137
0.778782
0.722156
0.667345
0.614427
0.563469
0.514523
0.467616
0.422733
0.379772
0.338487
0.298393
0.25867
0.218214
0.176855
0.128315
0.0772752
0.0394125
0.987139
0.975357
0.961683
0.946189
0.928967
0.910117
0.889748
0.867978
0.844938
0.820788
0.795771
0.77037
0.745415
0.720307
0.694767
0.668673
0.642005
0.614812
0.587184
0.559235
0.531089
0.502873
0.474711
0.44672
0.419009
0.391678
0.364815
0.338499
0.312794
0.287752
0.263411
0.239789
0.216882
0.194671
0.173136
0.152316
0.132464
0.114141
0.10163
0.144971
0.773861
0.766333
0.757548
0.747544
0.736373
0.724089
0.710756
0.696446
0.681236
0.665223
0.648528
0.631312
0.613771
0.595822
0.577393
0.558437
0.538942
0.518927
0.498437
0.477537
0.456309
0.434842
0.413233
0.39158
0.369983
0.348537
0.327333
0.306459
0.285998
0.266029
0.246628
0.227875
0.209852
0.192662
0.176456
0.161522
0.148562
0.139755
0.144176
0.254334
0.699683
0.694006
0.687288
0.679547
0.67081
0.661112
0.650495
0.63901
0.626712
0.613667
0.599947
0.585632
0.570804
0.555452
0.539567
0.523148
0.506206
0.488769
0.470881
0.4526
0.433996
0.415147
0.396138
0.37706
0.358004
0.339061
0.320324
0.301884
0.283833
0.266266
0.249285
0.233004
0.217565
0.203161
0.190094
0.178927
0.170921
0.169638
0.189458
0.363229
0.670603
0.666134
0.660712
0.654333
0.647002
0.638732
0.629549
0.619486
0.608587
0.596902
0.584488
0.571406
0.557709
0.543413
0.52854
0.513115
0.497175
0.480764
0.463936
0.446755
0.429293
0.411627
0.393838
0.376014
0.358241
0.34061
0.32321
0.306136
0.289484
0.273361
0.257886
0.243206
0.229513
0.217089
0.20639
0.198259
0.194532
0.200196
0.235232
0.481002
0.662783
0.659326
0.654951
0.649625
0.643325
0.636042
0.627777
0.618551
0.608395
0.597355
0.585489
0.572861
0.559518
0.545502
0.530862
0.515653
0.499935
0.483773
0.467236
0.450398
0.433337
0.416135
0.398872
0.381635
0.364509
0.347581
0.330941
0.314683
0.298909
0.283733
0.269292
0.255762
0.243384
0.232524
0.223784
0.218281
0.218409
0.230546
0.27973
0.585505
0.667296
0.664852
0.661498
0.657166
0.651799
0.645353
0.637803
0.629147
0.619408
0.608629
0.596879
0.584233
0.570752
0.556514
0.541603
0.526105
0.51011
0.493704
0.476975
0.46001
0.442894
0.425712
0.408549
0.391488
0.374614
0.358012
0.341772
0.325989
0.310768
0.296233
0.282535
0.269877
0.258546
0.248982
0.241923
0.238742
0.242391
0.26076
0.324967
0.707602
0.679963
0.678658
0.676442
0.673204
0.66884
0.663262
0.656403
0.648228
0.63874
0.627987
0.616058
0.603035
0.58903
0.574171
0.558589
0.542411
0.525758
0.508743
0.491471
0.474041
0.456546
0.439073
0.421709
0.404535
0.387636
0.371096
0.355003
0.339454
0.324557
0.310445
0.297284
0.285299
0.274818
0.266345
0.260732
0.259562
0.266226
0.289737
0.365289
0.797732
0.698494
0.698555
0.697711
0.6958
0.69266
0.688135
0.682093
0.674438
0.665138
0.654238
0.641861
0.628127
0.613232
0.597379
0.580763
0.56356
0.545927
0.528002
0.509906
0.491746
0.47362
0.455615
0.437818
0.420309
0.403171
0.386485
0.370342
0.354837
0.340085
0.326224
0.313433
0.301958
0.292159
0.284595
0.280211
0.280768
0.290032
0.318002
0.403684
0.884285
0.721447
0.723192
0.724069
0.723855
0.722315
0.719202
0.714273
0.707319
0.698225
0.687032
0.673873
0.659029
0.642827
0.625582
0.60757
0.58902
0.570122
0.55103
0.531875
0.512767
0.493801
0.475066
0.456644
0.438613
0.421055
0.40405
0.387688
0.372067
0.357305
0.343547
0.330983
0.319878
0.310619
0.303813
0.300488
0.302561
0.314138
0.346109
0.440916
0.964732
0.747766
0.751599
0.754659
0.756665
0.757296
0.756185
0.752912
0.747033
0.738208
0.726444
0.71203
0.695537
0.677524
0.658454
0.63869
0.618503
0.598095
0.577618
0.557206
0.536964
0.516982
0.497341
0.478122
0.459401
0.441257
0.423773
0.407038
0.391154
0.376242
0.362454
0.349992
0.339137
0.330304
0.324149
0.321779
0.325272
0.33908
0.375021
0.47908
1.04529
0.77654
0.782935
0.788747
0.793657
0.797275
0.799097
0.798446
0.794384
0.785977
0.77301
0.756473
0.737529
0.717089
0.695754
0.673934
0.651888
0.629789
0.607769
0.585938
0.564392
0.543217
0.522493
0.502299
0.482712
0.463813
0.445685
0.428419
0.412122
0.396919
0.38297
0.370489
0.359774
0.351268
0.345674
0.344186
0.349043
0.365049
0.404964
0.518295
1.12621
0.806831
0.816278
0.825471
0.834097
0.841751
0.847845
0.851441
0.850849
0.843344
0.827592
0.807263
0.784798
0.761368
0.737487
0.713422
0.689342
0.665374
0.641623
0.618182
0.595139
0.572578
0.550577
0.529218
0.508581
0.488747
0.469803
0.451845
0.434982
0.419347
0.405107
0.392488
0.381806
0.373535
0.368426
0.36776
0.373939
0.392127
0.436018
0.558641
1.20871
0.837525
0.850433
0.863559
0.876668
0.889445
0.901425
0.911796
0.918443
0.911913
0.889457
0.863694
0.837234
0.810578
0.783936
0.757412
0.731083
0.705026
0.67932
0.654044
0.629281
0.605113
0.581622
0.558891
0.537003
0.516045
0.496107
0.47729
0.459706
0.443496
0.428835
0.415962
0.405212
0.397091
0.3924
0.392509
0.399994
0.420387
0.468351
0.600578
1.29507
0.867286
0.883841
0.901186
0.919226
0.937859
0.956968
0.97629
0.994071
0.983822
0.954687
0.924264
0.894178
0.864407
0.834946
0.805812
0.777037
0.748672
0.72078
0.693436
0.666721
0.640721
0.61552
0.591206
0.567869
0.545598
0.524491
0.50465
0.486196
0.469273
0.454067
0.440829
0.429918
0.421869
0.417541
0.4184
0.427204
0.449879
0.502127
0.644576
1.3873
0.894661
0.914711
0.936105
0.958885
0.983146
1.00906
1.03673
1.0644
1.0531
1.02026
0.986907
0.954056
0.921604
0.889494
0.857776
0.826499
0.795714
0.76549
0.73591
0.707065
0.679046
0.65195
0.625871
0.600908
0.577158
0.554723
0.533713
0.514253
0.496495
0.480635
0.466937
0.455782
0.447744
0.44374
0.445341
0.455506
0.480592
0.537434
0.690973
1.48695
0.918323
0.941379
0.966208
0.992948
1.02184
1.05335
1.08821
1.12651
1.12166
1.08564
1.05011
1.01507
0.980399
0.946006
0.911946
0.878296
0.845137
0.81256
0.780683
0.749622
0.71948
0.690366
0.662394
0.635675
0.610318
0.586436
0.564144
0.543574
0.524886
0.508285
0.494054
0.482596
0.474524
0.470823
0.47318
0.484774
0.512437
0.574251
0.739915
1.59505
0.93731
0.962644
0.98998
1.01943
1.05116
1.08538
1.12229
1.16115
1.17979
1.1491
1.11244
1.07565
1.03916
1.00285
0.966758
0.930978
0.895629
0.860844
0.826759
0.793511
0.761229
0.730042
0.700111
0.671567
0.644533
0.619132
0.59549
0.573748
0.554073
0.536682
0.521873
0.510079
0.501955
0.498558
0.501703
0.514812
0.545237
0.612428
0.791327
1.71201
0.951185
0.978039
1.00699
1.03812
1.07152
1.10729
1.14547
1.18571
1.22438
1.21214
1.17317
1.13485
1.09685
1.05894
1.02107
0.983372
0.946009
0.909156
0.872982
0.837645
0.803299
0.770104
0.738237
0.707868
0.679144
0.652206
0.627203
0.604277
0.583605
0.565413
0.550022
0.537891
0.529724
0.526656
0.530641
0.545361
0.578733
0.651694
0.844906
1.83761
0.959952
0.98761
1.01739
1.04937
1.08361
1.12019
1.15921
1.20067
1.2438
1.26417
1.23151
1.19281
1.15346
1.11389
1.07422
1.03461
0.995296
0.956471
0.918323
0.88101
0.844683
0.809538
0.775802
0.743683
0.713352
0.684959
0.658655
0.634595
0.612965
0.594009
0.578071
0.565643
0.557478
0.554792
0.559686
0.576121
0.612615
0.69169
0.900162
1.97097
0.963901
0.991688
1.02156
1.05356
1.08776
1.12418
1.16288
1.2039
1.24721
1.29161
1.28885
1.24915
1.20825
1.1668
1.12522
1.08371
1.04247
1.00173
0.961717
0.922572
0.884378
0.847362
0.811861
0.778113
0.746296
0.716569
0.689086
0.664011
0.641541
0.621934
0.60555
0.592915
0.584835
0.582616
0.588515
0.606792
0.646583
0.732072
0.956552
2.11057
0.963555
0.990842
1.02011
1.0514
1.08474
1.12011
1.1575
1.19681
1.23792
1.28039
1.3204
1.30299
1.26006
1.21669
1.17322
1.1298
1.08662
1.04395
1.00208
0.961167
0.921218
0.882491
0.845411
0.810228
0.777116
0.746237
0.717751
0.69183
0.668681
0.648577
0.631896
0.619199
0.61135
0.60975
0.616817
0.637116
0.680457
0.772792
1.01431
2.25754
0.959632
0.985857
1.01391
1.04383
1.07559
1.10919
1.14455
1.18153
1.21991
1.2593
1.29862
1.3287
1.30296
1.26096
1.21688
1.17188
1.12679
1.0821
1.03826
0.99547
0.953881
0.913788
0.875428
0.839063
0.804901
0.773111
0.743859
0.717323
0.693716
0.673321
0.656538
0.643963
0.636518
0.635704
0.644116
0.666658
0.713879
0.813717
1.07409
2.41278
0.953024
0.977714
1.00404
1.03203
1.06165
1.09288
1.12564
1.15981
1.19523
1.23163
1.26873
1.30556
1.3282
1.29633
1.25478
1.20903
1.16187
1.115
1.06909
1.02446
0.981392
0.940138
0.900797
0.863551
0.828653
0.796281
0.766588
0.739747
0.715972
0.695553
0.678909
0.666672
0.659823
0.659963
0.669865
0.694774
0.745979
0.853399
1.1327
2.56732
0.944727
0.967518
0.991726
1.01735
1.04437
1.07274
1.10238
1.1332
1.16504
1.19774
1.23112
1.26508
1.29905
1.31565
1.27979
1.23661
1.19004
1.1411
1.09304
1.04666
1.00224
0.960008
0.920085
0.882478
0.847334
0.814845
0.785151
0.758408
0.734828
0.714709
0.69849
0.686836
0.680788
0.682047
0.693558
0.720897
0.776073
0.890945
1.18883
2.71856
0.935777
0.956415
0.978224
1.00119
1.02528
1.05043
1.07655
1.10353
1.1312
1.15938
1.18783
1.2163
1.24457
1.27187
1.28366
1.24878
1.20412
1.15799
1.10773
1.05984
1.01459
0.971994
0.932106
0.89484
0.860131
0.828115
0.79895
0.772777
0.749805
0.730346
0.714861
0.70405
0.699014
0.701547
0.714762
0.744548
0.803602
0.925641
1.24138
2.86345
0.927185
0.945525
0.964782
0.984924
1.0059
1.02764
1.05003
1.07293
1.09616
1.11948
1.14258
1.16508
1.18647
1.20618
1.22314
1.22993
1.19949
1.15407
1.10862
1.06089
1.01629
0.974698
0.935949
0.899926
0.866494
0.835662
0.807611
0.782518
0.760595
0.742171
0.727735
0.718027
0.714202
0.718148
0.733131
0.765335
0.828092
0.956861
1.28934
2.99872
0.919894
0.93589
0.95255
0.969829
0.987665
1.00597
1.02462
1.04347
1.06232
1.08091
1.09892
1.11595
1.13147
1.14486
1.15553
1.16278
1.16335
1.13345
1.09013
1.04758
1.00636
0.9676
0.931343
0.89757
0.866251
0.837358
0.811034
0.787531
0.767097
0.750076
0.736989
0.728619
0.72618
0.731644
0.748421
0.782958
0.849164
0.984072
1.33176
3.12122
0.914745
0.928425
0.942531
0.957007
0.971781
0.98676
1.00182
1.01682
1.03154
1.04576
1.05918
1.07141
1.08203
1.09048
1.09613
1.09848
1.09697
1.08994
1.06103
1.02303
0.986604
0.95191
0.919171
0.888475
0.85992
0.833562
0.809522
0.788075
0.769508
0.754197
0.742702
0.735852
0.734921
0.741959
0.760505
0.797233
0.86655
1.00685
1.36783
3.22797
0.912458
0.923907
0.935559
0.947353
0.959214
0.97105
0.982745
0.994156
1.00511
1.01538
1.02472
1.03282
1.03932
1.04379
1.04574
1.04458
1.03984
1.03104
1.01714
0.990622
0.959843
0.929926
0.901296
0.874209
0.848843
0.825355
0.803931
0.784826
0.768351
0.754927
0.745159
0.739923
0.740547
0.749153
0.769383
0.808101
0.880114
1.02492
1.39667
3.31354
0.913643
0.922974
0.932304
0.941571
0.950702
0.959612
0.968194
0.976324
0.983851
0.990597
0.996354
1.00088
1.00391
1.00513
1.0042
1.00075
0.994392
0.984879
0.972045
0.954729
0.931105
0.905564
0.880832
0.857268
0.835072
0.814432
0.795584
0.778795
0.764402
0.752864
0.74482
0.741184
0.743324
0.753418
0.775191
0.815648
0.8899
1.03828
1.41841
3.37937
0.918808
0.926146
0.933297
0.940201
0.946793
0.952996
0.95872
0.963863
0.968303
0.971903
0.974502
0.975925
0.97598
0.974462
0.971146
0.965806
0.958237
0.948278
0.935867
0.920851
0.902417
0.881354
0.860168
0.839723
0.820319
0.802217
0.785673
0.770973
0.758485
0.748692
0.742253
0.740106
0.743646
0.755088
0.778211
0.820118
0.896127
1.04715
1.43319
3.42477
0.928387
0.933853
0.938961
0.943657
0.947885
0.951582
0.954678
0.957094
0.958742
0.959521
0.95932
0.958022
0.955498
0.951624
0.946256
0.939266
0.930547
0.920027
0.907671
0.893516
0.877545
0.859778
0.841323
0.823242
0.806005
0.789917
0.775252
0.762304
0.751444
0.743163
0.738126
0.73728
0.742035
0.754627
0.778865
0.821907
0.899187
1.05194
1.44152
3.45071
0.94277
0.946473
0.949655
0.952273
0.954281
0.955634
0.956284
0.956178
0.955259
0.953466
0.950731
0.946986
0.942161
0.93619
0.928995
0.920513
0.910701
0.899545
0.887064
0.873325
0.858428
0.842384
0.825638
0.809154
0.793443
0.778802
0.765509
0.753865
0.744246
0.737137
0.733202
0.733388
0.739108
0.752598
0.777678
0.82152
0.899596
1.05323
1.4442
3.45916
0.962359
0.964386
0.965733
0.966367
0.966256
0.965376
0.963699
0.961201
0.957858
0.953643
0.94853
0.942494
0.93551
0.927556
0.918603
0.908633
0.897646
0.885661
0.872723
0.858905
0.844319
0.829067
0.813394
0.797921
0.783177
0.769477
0.757095
0.746332
0.737562
0.731268
0.728111
0.72903
0.73543
0.749543
0.775177
0.819489
0.897913
1.05168
1.44219
3.45282
0.987633
0.988049
0.987617
0.986317
0.984135
0.981065
0.977108
0.972268
0.966552
0.959969
0.95253
0.944247
0.935136
0.925205
0.914464
0.90293
0.890633
0.877618
0.863948
0.849706
0.834999
0.819961
0.804775
0.789809
0.775548
0.762327
0.750425
0.740142
0.731848
0.726023
0.723321
0.72467
0.731466
0.745925
0.771829
0.816295
0.894669
1.04794
1.43655
3.4357
1.01926
1.0181
1.0159
1.01266
1.00838
1.0031
0.99682
0.989595
0.98146
0.97246
0.962642
0.952053
0.940744
0.928746
0.916103
0.90286
0.88907
0.874797
0.860115
0.845118
0.829914
0.814641
0.799443
0.784561
0.77039
0.757287
0.745529
0.735406
0.72728
0.721628
0.719097
0.720607
0.727538
0.742086
0.768
0.812336
0.89031
1.04256
1.42812
3.41026
1.05822
1.05546
1.05144
1.04619
1.03972
1.03209
1.02336
1.0136
1.00289
0.991316
0.978957
0.9659
0.952214
0.937966
0.923226
0.908065
0.892555
0.876776
0.860811
0.844758
0.828723
0.812834
0.797236
0.7821
0.767707
0.754393
0.742454
0.73219
0.723953
0.718211
0.715602
0.717032
0.723867
0.738274
0.763964
0.807917
0.885188
1.03598
1.41757
3.3785
1.10596
1.10153
1.09557
1.08812
1.07925
1.06904
1.05759
1.04502
1.03145
1.017
1.00181
0.986
0.969648
0.952861
0.935737
0.918372
0.900858
0.883284
0.865744
0.848334
0.83116
0.814332
0.797982
0.782226
0.767264
0.753435
0.741063
0.73043
0.721866
0.71582
0.712921
0.714065
0.720599
0.734664
0.759923
0.803272
0.879579
1.02854
1.40544
3.34162
1.16463
1.15837
1.15023
1.14029
1.12865
1.11546
1.10086
1.08503
1.06815
1.05038
1.03192
1.0129
0.993441
0.973695
0.953786
0.933833
0.913944
0.89422
0.874759
0.855655
0.837007
0.818915
0.801491
0.784833
0.769086
0.754537
0.741501
0.730253
0.721121
0.714544
0.711144
0.711803
0.717845
0.731382
0.756025
0.798573
0.873694
1.02054
1.39226
3.30213
1.23739
1.22903
1.21834
1.20544
1.19049
1.17369
1.15529
1.13552
1.11463
1.09287
1.07047
1.04757
1.02439
1.00109
0.977849
0.954793
0.932049
0.909724
0.887912
0.866702
0.846184
0.826447
0.807593
0.789726
0.772943
0.757452
0.743535
0.731467
0.721575
0.714294
0.710229
0.710244
0.715641
0.728495
0.752362
0.793941
0.867681
1.01215
1.37823
3.25993
1.32897
1.31813
1.30432
1.28772
1.26861
1.24729
1.22409
1.19937
1.17346
1.14672
1.11936
1.09164
1.06384
1.03618
1.00886
0.982025
0.95582
0.930348
0.905697
0.881942
0.859154
0.837403
0.816764
0.797314
0.779096
0.762275
0.747153
0.734032
0.723204
0.715068
0.710197
0.709434
0.714051
0.726086
0.749036
0.789493
0.861675
1.00354
1.36357
3.21543
1.44656
1.4327
1.41491
1.39354
1.36899
1.34173
1.31224
1.28104
1.24861
1.21531
1.18152
1.1476
1.11391
1.08073
1.04829
1.01677
0.986301
0.956976
0.928862
0.902008
0.876452
0.852228
0.82937
0.807923
0.787907
0.769443
0.752855
0.73842
0.726407
0.717192
0.71132
0.709602
0.713277
0.724338
0.746217
0.78539
0.855837
0.99487
1.34843
3.16877
1.60139
1.58375
1.56074
1.53293
1.50098
1.4656
1.42753
1.38752
1.34613
1.3039
1.26144
1.21925
1.1778
1.13743
1.0984
1.0609
1.02505
0.9909
0.958478
0.927783
0.898801
0.871516
0.845916
0.822008
0.799786
0.779343
0.761001
0.744985
0.731539
0.721014
0.713926
0.711053
0.713597
0.723504
0.744137
0.78185
0.850371
0.986341
1.33307
3.12062
1.81146
1.78899
1.75888
1.72205
1.67961
1.63269
1.58245
1.52976
1.47548
1.4206
1.366
1.31238
1.26034
1.2103
1.16255
1.11723
1.07441
1.03408
0.996187
0.960648
0.927378
0.896289
0.867304
0.840373
0.815442
0.792589
0.772117
0.7542
0.739038
0.726943
0.718396
0.714139
0.715335
0.723884
0.743075
0.779139
0.845543
0.978242
1.31789
3.0722
2.10641
2.07774
2.0376
1.98766
1.92976
1.86577
1.79706
1.72512
1.65165
1.57816
1.50589
1.43588
1.36891
1.30548
1.24582
1.18998
1.13791
1.08945
1.04443
1.00265
0.963897
0.927992
0.894769
0.864085
0.835814
0.809998
0.78693
0.766712
0.749477
0.735487
0.725184
0.719269
0.718868
0.725827
0.743364
0.777583
0.841689
0.970961
1.30344
3.02524
2.53643
2.49967
2.44495
2.37526
2.29371
2.20251
2.10432
2.00217
1.89886
1.79679
1.69781
1.6035
1.51487
1.43232
1.35591
1.28548
1.22072
1.16128
1.10673
1.05668
1.01075
0.968579
0.929889
0.894424
0.861976
0.832563
0.806345
0.783303
0.763527
0.74723
0.734806
0.726913
0.724629
0.729746
0.745407
0.77759
0.839252
0.965029
1.29052
2.98208
3.18893
3.14116
3.06444
2.96407
2.84327
2.70682
2.56006
2.40833
2.25652
2.10876
1.9683
1.8371
1.716
1.60518
1.50438
1.41302
1.33037
1.25563
1.18802
1.12678
1.07124
1.0208
0.974968
0.933309
0.895494
0.861547
0.831369
0.804836
0.78195
0.762855
0.747884
0.73764
0.733148
0.736147
0.749703
0.779685
0.838836
0.961268
1.28066
2.94662
4.21928
4.15385
4.04317
3.89127
3.7044
3.49069
3.26014
3.02349
2.79063
2.56847
2.36135
2.1715
1.99972
1.84563
1.70818
1.58595
1.47737
1.38085
1.2949
1.21819
1.14955
1.08801
1.03271
0.982954
0.93829
0.898532
0.863341
0.832443
0.805713
0.783197
0.765146
0.752098
0.745015
0.745574
0.756776
0.784393
0.841006
0.960347
1.27471
2.92193
5.88802
5.78652
5.62348
5.39331
5.09983
4.75148
4.37157
3.98661
3.61416
3.26524
2.94638
2.66035
2.40723
2.18521
1.99148
1.8228
1.67595
1.54786
1.4358
1.3374
1.25068
1.17402
1.10607
1.04572
0.992302
0.945157
0.903649
0.8673
0.83582
0.809122
0.787352
0.770958
0.760829
0.758577
0.767133
0.792193
0.84622
0.9627
1.27306
2.90721
8.12232
8.24925
8.13544
7.84593
7.41611
6.82723
6.17967
5.52898
4.90803
4.33706
3.82719
3.38143
2.99683
2.66761
2.38698
2.14808
1.94451
1.77053
1.62119
1.49235
1.3807
1.28355
1.19875
1.12464
1.0599
1.00331
0.953838
0.910692
0.873355
0.841561
0.815309
0.794936
0.781237
0.775744
0.781322
0.803602
0.854976
0.968822
1.27633
2.90568
10.6933
10.7312
10.927
11.123
11.0696
10.2431
9.11007
7.97901
6.92027
5.96971
5.14287
4.43864
3.84568
3.34979
2.9365
2.59238
2.30543
2.06524
1.8631
1.69186
1.54591
1.42117
1.31427
1.22242
1.14326
1.07478
1.01537
0.96385
0.919377
0.881436
0.84984
0.824774
0.806917
0.797708
0.799942
0.819197
0.867841
0.979309
1.28528
2.92136
13.1145
14.1398
14.3697
14.7742
15.6478
15.6751
13.7479
11.7483
9.94595
8.38365
7.06054
5.95741
5.04665
4.29947
3.6888
3.19048
2.7834
2.44959
2.17393
1.94433
1.7522
1.59128
1.45601
1.34168
1.24443
1.16119
1.0896
1.02793
0.974885
0.929638
0.891749
0.861213
0.838563
0.825128
0.823627
0.839603
0.885461
0.994902
1.30111
2.95712
13.9336
16.678
18.5979
19.5703
20.5085
21.6826
20.893
17.2763
14.2834
11.8032
9.75268
8.06833
6.69588
5.58543
4.69193
3.97538
3.40093
2.93849
2.56292
2.25571
2.00397
1.79727
1.62656
1.48438
1.36494
1.26379
1.1776
1.10386
1.04073
0.986951
0.941772
0.904957
0.876857
0.858671
0.853036
0.865471
0.908472
1.01617
1.32407
3.01593
14.6328
17.7888
21.5343
25.3741
27.9325
27.4278
27.9592
24.4133
20.0726
16.4157
13.3783
10.8888
8.87339
7.25953
5.97819
4.96659
4.16899
3.53708
3.03227
2.62728
2.3021
2.03977
1.82627
1.65074
1.50499
1.38283
1.27965
1.19199
1.11732
1.05387
1.00047
0.956618
0.922441
0.899004
0.888864
0.897551
0.937732
1.04429
1.3566
3.09697
15.3166
19.2039
24.5629
32.005
39.0859
37.9282
36.3155
34.13
27.9368
22.5593
18.1098
14.4967
11.6069
9.3247
7.5398
6.15242
5.07512
4.23397
3.57328
3.05299
2.64215
2.31523
2.05239
1.83872
1.66311
1.51728
1.39507
1.29192
1.20448
1.13036
1.06798
1.01646
0.975723
0.946671
0.931788
0.936634
0.974131
1.07997
1.39663
3.1721
15.0835
18.9913
24.4512
32.1566
43.0368
50.6821
45.5667
42.9401
37.9948
30.1332
23.804
18.7405
14.7572
11.6652
9.28615
7.46458
6.06945
4.99542
4.16321
3.51647
3.01189
2.61465
2.29835
2.0435
1.83575
1.66451
1.52194
1.40226
1.30124
1.21583
1.14394
1.08437
1.03678
1.00191