/*--------------------------------*- C++ -*----------------------------------*\
  =========                 |
  \\      /  F ield         | OpenFOAM: The Open Source CFD Toolbox
   \\    /   O peration     | Website:  https://openfoam.org
    \\  /    A nd           | Version:  8
     \\/     M anipulation  |
\*---------------------------------------------------------------------------*/
FoamFile
{
    version     2.0;
    format      ascii;
    class       volScalarField;
    location    "2.05";
    object      k;
}
// * * * * * * * * * * * * * * * * * * * * * * * * * * * * * * * * * * * * * //

dimensions      [0 2 -2 0 0 0 0];

internalField   nonuniform List<scalar> 
9150
(
0.00182762
0.00094192
0.000479922
0.000311765
0.000211538
0.000211549
0.000311774
0.000479951
0.000941985
0.00182761
0.00178493
0.000747626
0.000403359
0.00026623
0.00017777
0.000177778
0.00026624
0.000403378
0.000747675
0.00178493
0.00171349
0.00065241
0.000370515
0.000245858
0.000164367
0.000164373
0.000245866
0.000370528
0.000652449
0.00171349
0.00163494
0.000602424
0.000357479
0.000237755
0.000159353
0.000159357
0.000237761
0.000357489
0.000602455
0.00163494
0.00155149
0.000580902
0.000352745
0.000234941
0.000157836
0.000157839
0.000234946
0.000352753
0.000580929
0.00155149
0.00285154
0.0025824
0.00190844
0.00170597
0.00146128
0.00146085
0.00170458
0.00190596
0.00257921
0.00285102
0.00230437
0.00150826
0.0013108
0.00127057
0.00107213
0.00107195
0.0012699
0.00130966
0.00150766
0.00230439
0.002049
0.00125349
0.000903538
0.000844769
0.0006887
0.000688635
0.000844469
0.000903135
0.00125344
0.00204904
0.00186747
0.0011113
0.000658473
0.000552528
0.000425244
0.000425231
0.000552431
0.000658377
0.00111139
0.00186749
0.00178734
0.00102202
0.000529944
0.00038588
0.000278181
0.000278187
0.000385865
0.00052995
0.00102211
0.00178735
0.0119176
0.00502883
0.00264937
0.00198842
0.00167303
0.00167426
0.00199028
0.00262405
0.00465197
0.00962818
0.00492923
0.00380982
0.00257001
0.00198801
0.00168312
0.00168353
0.00198779
0.00257235
0.00385096
0.00490347
0.0044166
0.00345039
0.00255156
0.0019885
0.00169378
0.00169337
0.00198596
0.00254879
0.00346306
0.00441019
0.00392394
0.00317642
0.00253273
0.00198561
0.00170382
0.001703
0.00198296
0.00252964
0.0031743
0.00392132
0.00336328
0.00312511
0.00242653
0.00193814
0.0016772
0.00167632
0.00193582
0.00242329
0.00311939
0.00336224
0.0312733
0.0313756
0.0314584
0.0315203
0.0315491
0.0315364
0.031479
0.0313757
0.0312263
0.0310296
0.0650588
0.0653034
0.0654622
0.0655361
0.0655259
0.0654321
0.0652554
0.0649963
0.0646559
0.0642353
0.0807787
0.0810609
0.0812451
0.0813328
0.0813249
0.0812222
0.0810256
0.0807358
0.0803538
0.0798809
0.0913647
0.0916537
0.0918448
0.0919386
0.0919356
0.0918363
0.0916408
0.0913496
0.0909631
0.0904818
0.0996945
0.0999743
0.100162
0.100257
0.10026
0.100169
0.0999859
0.0997083
0.0993361
0.0988688
0.106766
0.107027
0.107205
0.1073
0.10731
0.107234
0.107071
0.106819
0.106475
0.106039
0.113032
0.113269
0.113435
0.11353
0.113552
0.113498
0.113365
0.113149
0.112848
0.112458
0.118723
0.118934
0.11909
0.11919
0.11923
0.119206
0.119114
0.118949
0.118705
0.118379
0.123957
0.124146
0.124298
0.12441
0.124478
0.124496
0.124458
0.124359
0.124192
0.123949
0.128793
0.128968
0.129125
0.129261
0.12937
0.129444
0.129477
0.129462
0.12939
0.129254
0.13325
0.133424
0.133601
0.133776
0.13394
0.134088
0.13421
0.134299
0.134346
0.13434
0.137327
0.137519
0.137733
0.137963
0.138202
0.138441
0.138672
0.138886
0.139075
0.139227
0.141016
0.141246
0.141518
0.141822
0.142153
0.142501
0.142859
0.143218
0.14357
0.143905
0.144309
0.1446
0.144947
0.145344
0.145781
0.146253
0.146753
0.147272
0.147804
0.148342
0.147204
0.147576
0.148015
0.148517
0.149073
0.149678
0.150327
0.151014
0.151734
0.152481
0.14971
0.150177
0.150721
0.151335
0.152014
0.152754
0.153552
0.154403
0.155306
0.156257
0.151845
0.152418
0.153069
0.153797
0.154597
0.155467
0.156404
0.157407
0.158474
0.159606
0.153639
0.154319
0.155077
0.155914
0.156826
0.157812
0.158872
0.160004
0.16121
0.162489
0.15513
0.155911
0.156769
0.157703
0.158713
0.159798
0.160958
0.162194
0.163506
0.164896
0.156361
0.157234
0.158178
0.159194
0.160283
0.161445
0.162681
0.163992
0.165379
0.166843
0.157378
0.158328
0.159342
0.160422
0.161569
0.162785
0.164072
0.165429
0.166859
0.168362
0.158229
0.159238
0.160303
0.161427
0.162611
0.163859
0.16517
0.166546
0.167988
0.169498
0.158959
0.160007
0.161104
0.162252
0.163453
0.164709
0.166021
0.16739
0.168818
0.170304
0.159609
0.160678
0.161788
0.162941
0.164139
0.165384
0.166676
0.168016
0.169404
0.170841
0.160217
0.161291
0.162398
0.163539
0.164718
0.165933
0.167187
0.168479
0.169809
0.171175
0.160818
0.161883
0.162972
0.164089
0.165234
0.166407
0.167608
0.168838
0.170094
0.171375
0.161445
0.162489
0.163551
0.164632
0.165733
0.166853
0.167992
0.169148
0.17032
0.171506
0.162128
0.163143
0.164169
0.165207
0.166257
0.167318
0.168388
0.169464
0.170546
0.171629
0.162898
0.163878
0.164863
0.165854
0.166848
0.167845
0.168841
0.169835
0.170824
0.171802
0.163785
0.164726
0.165667
0.166607
0.167544
0.168475
0.169397
0.170308
0.171202
0.172076
0.164818
0.165718
0.166614
0.167502
0.168381
0.169246
0.170095
0.170923
0.171725
0.172496
0.166026
0.166885
0.167735
0.168573
0.169394
0.170195
0.170971
0.171718
0.172431
0.173103
0.167438
0.168257
0.169062
0.16985
0.170615
0.171354
0.17206
0.172729
0.173355
0.173931
0.16908
0.16986
0.170622
0.171362
0.172074
0.172753
0.173392
0.173986
0.174529
0.175014
0.170974
0.171716
0.172438
0.173133
0.173795
0.174419
0.174996
0.17552
0.175984
0.176383
0.173135
0.173844
0.17453
0.175187
0.175806
0.176381
0.176902
0.177363
0.177756
0.178073
0.175588
0.176271
0.176931
0.177559
0.178146
0.178681
0.179156
0.179561
0.179889
0.180132
0.17837
0.179043
0.179693
0.180307
0.180873
0.181382
0.181821
0.182181
0.182453
0.182627
0.181542
0.182232
0.182894
0.183513
0.184078
0.184576
0.184993
0.185318
0.185541
0.185652
0.185202
0.185942
0.186644
0.187296
0.187882
0.188388
0.188799
0.189103
0.189287
0.18934
0.189477
0.190306
0.191088
0.191807
0.192446
0.192988
0.193417
0.193716
0.193872
0.193874
0.194518
0.195492
0.196407
0.197244
0.197982
0.198602
0.199082
0.199403
0.199549
0.199506
0.200505
0.201703
0.20283
0.203862
0.204773
0.205535
0.206122
0.206508
0.206673
0.206599
0.207646
0.209186
0.210646
0.211995
0.213195
0.214207
0.214994
0.215519
0.215753
0.215676
0.216173
0.218231
0.220213
0.222073
0.223756
0.225202
0.22635
0.227144
0.227542
0.227513
0.226311
0.229149
0.231946
0.234635
0.237129
0.239331
0.241134
0.24244
0.243175
0.243296
0.238216
0.24221
0.246267
0.250294
0.254163
0.257704
0.260716
0.262999
0.264407
0.264872
0.251841
0.257481
0.263425
0.269579
0.27577
0.281719
0.287029
0.291253
0.294024
0.295214
0.26674
0.27454
0.283104
0.29242
0.302365
0.312607
0.32248
0.330896
0.336633
0.339273
0.281885
0.292124
0.30379
0.317097
0.332266
0.349524
0.368813
0.385208
0.39744
0.404636
0.295809
0.30821
0.322631
0.339523
0.359493
0.383445
0.412652
0.44846
0.472222
0.475132
0.307258
0.321053
0.337105
0.355875
0.377919
0.403939
0.434854
0.471774
0.5156
0.552416
0.315851
0.330315
0.347088
0.366568
0.38925
0.415709
0.446591
0.482561
0.524124
0.571323
0.321846
0.336486
0.353391
0.372973
0.395721
0.422209
0.453013
0.488808
0.530276
0.578063
0.325529
0.340014
0.356717
0.376059
0.398544
0.424771
0.455442
0.491368
0.533459
0.582607
0.327149
0.341193
0.357384
0.376148
0.398014
0.423634
0.453823
0.489597
0.532234
0.583354
0.326916
0.340246
0.355597
0.373379
0.394105
0.418421
0.447148
0.481342
0.522367
0.571995
0.325042
0.337416
0.35163
0.368049
0.38712
0.409406
0.435615
0.466649
0.503653
0.548087
0.321753
0.332996
0.345874
0.360685
0.377791
0.397631
0.420742
0.447787
0.479576
0.517102
0.317287
0.327299
0.338752
0.351887
0.366979
0.38435
0.404378
0.427503
0.454235
0.485155
0.31191
0.320642
0.330665
0.342175
0.355384
0.370526
0.387864
0.407686
0.430307
0.456044
0.305992
0.313416
0.322044
0.332037
0.343563
0.356797
0.371928
0.389159
0.408704
0.430769
0.300066
0.30616
0.313435
0.322031
0.33208
0.343709
0.357046
0.372226
0.389388
0.408676
0.294776
0.299474
0.305403
0.312681
0.321405
0.331653
0.343488
0.356973
0.372163
0.389123
0.290731
0.293858
0.298336
0.304266
0.311701
0.320669
0.331173
0.343207
0.356764
0.371854
0.28842
0.289639
0.292423
0.29684
0.302906
0.310597
0.319864
0.330648
0.342893
0.356569
0.28817
0.286992
0.287706
0.290342
0.29487
0.301224
0.309311
0.319025
0.330261
0.342935
0.290115
0.285967
0.284161
0.284674
0.287437
0.292347
0.299279
0.308079
0.318578
0.330619
0.293907
0.28647
0.281774
0.279839
0.280606
0.283958
0.289748
0.297778
0.307798
0.319563
0.298372
0.288155
0.280603
0.276064
0.27469
0.276421
0.281109
0.28853
0.298301
0.309998
0.304448
0.291177
0.280919
0.273824
0.270291
0.270443
0.274124
0.281019
0.290673
0.302565
0.312726
0.296445
0.283158
0.273415
0.267805
0.266498
0.269347
0.275982
0.285847
0.298291
0.319931
0.302202
0.286183
0.273977
0.266603
0.264276
0.266814
0.273755
0.284418
0.298
0.324349
0.306464
0.288058
0.273895
0.265455
0.262929
0.266054
0.274227
0.286608
0.302221
0.326707
0.307987
0.287423
0.271954
0.263361
0.261736
0.266636
0.277255
0.292558
0.311378
0.331068
0.307855
0.284198
0.267869
0.260086
0.260586
0.268584
0.282999
0.302576
0.325955
0.338439
0.305716
0.278712
0.262145
0.256188
0.260003
0.27237
0.291906
0.317124
0.346474
0.343562
0.301583
0.271386
0.255281
0.252142
0.260384
0.278325
0.304279
0.336524
0.37332
0.338378
0.291893
0.261118
0.246952
0.247763
0.261534
0.286263
0.319994
0.360766
0.406661
0.334509
0.28179
0.249902
0.237712
0.242908
0.26301
0.295662
0.338579
0.389532
0.446446
0.333397
0.273305
0.238893
0.227872
0.237336
0.264284
0.30588
0.35938
0.422247
0.492328
0.331964
0.265448
0.227814
0.217114
0.230548
0.26472
0.316175
0.381557
0.458026
0.543502
0.328168
0.257208
0.216123
0.204921
0.221934
0.263616
0.325703
0.404068
0.495636
0.59866
0.322473
0.248409
0.203519
0.190794
0.210827
0.260179
0.333481
0.425647
0.533486
0.655955
0.316066
0.239366
0.190069
0.174471
0.196661
0.253643
0.33849
0.444963
0.569795
0.712578
0.310014
0.230537
0.176105
0.155964
0.179021
0.243298
0.339732
0.460827
0.603355
0.767316
0.304918
0.222172
0.162076
0.135623
0.157712
0.228491
0.336111
0.471938
0.633202
0.820593
0.300668
0.214177
0.148419
0.114229
0.132909
0.208679
0.326338
0.476453
0.6573
0.870707
0.296849
0.206269
0.135456
0.0930458
0.105395
0.183566
0.309018
0.472028
0.672635
0.914657
0.292724
0.19801
0.123234
0.0736105
0.0768661
0.153341
0.282869
0.455924
0.674995
0.947216
0.287465
0.188926
0.111454
0.0571453
0.0500935
0.11907
0.247223
0.425483
0.658912
0.958962
0.280485
0.178702
0.0996382
0.0439275
0.028415
0.0832114
0.202783
0.379317
0.619484
0.938121
0.271625
0.167207
0.0873643
0.0332901
0.0141333
0.049976
0.152387
0.318803
0.556133
0.880782
0.262284
0.154315
0.0743153
0.0243773
0.00680245
0.0244632
0.101251
0.248039
0.471957
0.788963
0.25032
0.138549
0.0601464
0.0168008
0.00374481
0.00964829
0.0566709
0.173719
0.372916
0.668564
0.234134
0.118708
0.0450943
0.0106885
0.00250522
0.00370803
0.0256969
0.105007
0.266623
0.526042
0.203662
0.0925388
0.0304101
0.00642765
0.0019833
0.00211585
0.00972315
0.0524219
0.165736
0.367659
0.158071
0.0662387
0.0192231
0.00406329
0.00177996
0.00176369
0.00400924
0.0219581
0.0882893
0.223436
0.102832
0.0437157
0.0113531
0.00279647
0.00169904
0.00168518
0.00246259
0.00889787
0.0423767
0.122606
0.0700296
0.0263131
0.00581325
0.00216974
0.00167231
0.00167046
0.00207173
0.00417237
0.0193363
0.0632428
0.0307655
0.0304385
0.030056
0.0296199
0.0291329
0.0285975
0.0280168
0.0273938
0.0267315
0.0260329
0.0253007
0.0245475
0.0238283
0.0231106
0.0223832
0.0216439
0.0208938
0.0201351
0.0193704
0.018602
0.0178319
0.017062
0.0162938
0.0155285
0.0147673
0.0140113
0.0132614
0.0125185
0.0117835
0.0110568
0.0103381
0.00962591
0.00891552
0.00819722
0.00745288
0.00665438
0.00578536
0.00467219
0.00333325
0.00145244
0.0637042
0.0630507
0.0623052
0.0614715
0.0605541
0.0595581
0.0584885
0.0573508
0.0561503
0.0548924
0.0535816
0.0522216
0.0508168
0.0493784
0.0479118
0.0464219
0.0449131
0.0433897
0.0418554
0.0403134
0.0387668
0.037218
0.0356693
0.0341227
0.0325799
0.0310426
0.0295122
0.0279896
0.0264754
0.0249688
0.0234675
0.0219656
0.0204517
0.0189042
0.0172863
0.0155362
0.0135531
0.0112175
0.00818763
0.00345317
0.0792835
0.0785439
0.077698
0.0767499
0.0757041
0.0745658
0.0733407
0.0720346
0.0706538
0.0692044
0.0676923
0.0661235
0.0645014
0.0628316
0.0611191
0.059369
0.0575856
0.0557736
0.0539371
0.0520801
0.0502064
0.0483194
0.0464225
0.0445184
0.0426099
0.040699
0.0387875
0.036876
0.0349645
0.0330508
0.0311304
0.0291947
0.0272285
0.0252071
0.0230912
0.0208193
0.0182948
0.015351
0.0115336
0.00502135
0.0898708
0.089109
0.0882331
0.0872463
0.0861524
0.0849559
0.0836622
0.082277
0.0808066
0.0792575
0.0776362
0.075949
0.0741986
0.0723903
0.0705291
0.0686199
0.0666676
0.0646769
0.0626524
0.0605985
0.0585195
0.0564193
0.0543017
0.0521698
0.0500267
0.0478744
0.0457146
0.0435476
0.0413725
0.0391864
0.0369834
0.0347533
0.03248
0.0301379
0.027687
0.0250645
0.0221645
0.0187779
0.0142959
0.00636601
0.098271
0.097519
0.0966476
0.0956581
0.0945529
0.0933354
0.0920099
0.0905817
0.0890566
0.0874414
0.0857427
0.0839676
0.0821186
0.0802016
0.0782225
0.0761869
0.0741005
0.0719687
0.0697967
0.0675895
0.0653517
0.0630876
0.0608011
0.0584956
0.0561738
0.0538378
0.0514886
0.0491262
0.0467489
0.0443528
0.0419312
0.0394732
0.0369619
0.0343712
0.0316607
0.0287648
0.0255669
0.0218233
0.0168317
0.00767472
0.105474
0.104755
0.103912
0.102944
0.101853
0.100638
0.0993024
0.0978509
0.0962888
0.0946224
0.0928594
0.0910073
0.0890694
0.087053
0.0849655
0.0828141
0.0806056
0.0783467
0.0760433
0.073701
0.071325
0.0689198
0.0664893
0.0640368
0.0615647
0.0590746
0.0565672
0.0540415
0.0514952
0.0489237
0.0463195
0.043671
0.0409605
0.0381616
0.0352323
0.0321034
0.0286475
0.0245881
0.0191176
0.00874788
0.111945
0.111279
0.110488
0.109565
0.108508
0.107316
0.105989
0.10453
0.102941
0.101232
0.0994089
0.0974809
0.0954534
0.0933363
0.0911394
0.0888719
0.0865426
0.0841594
0.0817295
0.0792591
0.0767538
0.074218
0.0716558
0.06907
0.0664627
0.0638349
0.0611867
0.0585164
0.0558209
0.0530949
0.05033
0.0475138
0.0446279
0.0416442
0.0385188
0.0351779
0.0314836
0.0271328
0.0212342
0.00992697
0.117937
0.11735
0.116633
0.11578
0.114783
0.113637
0.112337
0.110883
0.109279
0.10753
0.105647
0.103637
0.101511
0.0992849
0.0969704
0.09458
0.0921248
0.0896144
0.0870568
0.0844591
0.0818269
0.0791647
0.0764762
0.0737639
0.0710292
0.0682727
0.0654936
0.0626895
0.0598566
0.0569887
0.0540764
0.0511062
0.0480583
0.0449026
0.0415916
0.0380447
0.0341109
0.0294555
0.0230933
0.0107535
0.123602
0.123119
0.122507
0.121754
0.120847
0.119774
0.118527
0.117097
0.115485
0.113697
0.111746
0.109642
0.107404
0.105054
0.102608
0.100084
0.0974936
0.0948493
0.0921598
0.0894324
0.0866724
0.0838844
0.0810712
0.0782349
0.0753764
0.0724954
0.0695903
0.0666582
0.0636942
0.060691
0.0576383
0.0545212
0.0513176
0.0479948
0.0445007
0.0407473
0.0365696
0.0316034
0.0247828
0.0115183
0.129028
0.128681
0.128209
0.127594
0.126817
0.125858
0.124697
0.123317
0.121711
0.119882
0.117844
0.115622
0.113249
0.110753
0.108158
0.105485
0.102749
0.0999637
0.0971368
0.0942758
0.0913857
0.0884702
0.0855315
0.0825712
0.0795892
0.0765846
0.0735552
0.0704971
0.0674044
0.0642689
0.0610788
0.0578173
0.0544603
0.0509715
0.0472941
0.0433325
0.038908
0.0336295
0.0263583
0.012207
0.134267
0.134093
0.133804
0.133375
0.132781
0.131992
0.130971
0.12968
0.12809
0.126204
0.124046
0.12167
0.119127
0.116458
0.113694
0.110859
0.107969
0.105034
0.102065
0.0990665
0.096043
0.0929971
0.0899305
0.0868438
0.0837365
0.0806069
0.0774521
0.0742673
0.0710457
0.067778
0.0644507
0.0610453
0.0575351
0.0538804
0.0500192
0.0458482
0.0411757
0.0355842
0.0278656
0.012878
0.139338
0.139379
0.139321
0.139139
0.1388
0.138262
0.137468
0.136335
0.134781
0.132787
0.130442
0.12785
0.125093
0.122223
0.119274
0.116268
0.113218
0.110132
0.107016
0.103876
0.100714
0.0975323
0.0943324
0.0911143
0.0878769
0.0846181
0.0813341
0.0780195
0.0746664
0.0712643
0.0677983
0.0642477
0.0605832
0.0567616
0.0527158
0.0483347
0.0434134
0.0375084
0.0293434
0.0135343
0.144233
0.144529
0.144756
0.144888
0.144893
0.144721
0.144294
0.143464
0.141991
0.139758
0.137088
0.134197
0.131188
0.128103
0.124964
0.121782
0.118565
0.11532
0.112051
0.10876
0.105452
0.102127
0.0987862
0.0954295
0.0920553
0.0886611
0.0852424
0.0817932
0.0783047
0.0747648
0.0711573
0.0674595
0.0636394
0.05965
0.0554192
0.050828
0.0456583
0.0394403
0.0308298
0.0141873
0.14891
0.149497
0.150053
0.150562
0.150998
0.151324
0.151474
0.151268
0.149885
0.147082
0.14396
0.140744
0.137473
0.134165
0.130825
0.127457
0.124064
0.120648
0.117214
0.113763
0.110297
0.106818
0.103327
0.0998224
0.0963031
0.0927661
0.0892063
0.0856169
0.0819881
0.0783068
0.0745549
0.0707078
0.0667307
0.0625731
0.0581575
0.0533572
0.0479407
0.0414118
0.032356
0.014855
0.153301
0.154191
0.155099
0.156016
0.156938
0.157857
0.158755
0.159483
0.157788
0.154444
0.150955
0.147458
0.143947
0.14042
0.136875
0.133312
0.129731
0.126134
0.122522
0.118899
0.115265
0.111621
0.107969
0.104308
0.100635
0.0969478
0.0932405
0.0895056
0.0857322
0.0819059
0.0780071
0.0740092
0.0698746
0.0655491
0.0609502
0.055943
0.0502828
0.043446
0.0339449
0.015552
0.157317
0.158497
0.159738
0.161044
0.162424
0.163895
0.165466
0.166993
0.165222
0.161609
0.157914
0.154219
0.150515
0.146792
0.143054
0.1393
0.13553
0.131747
0.127953
0.12415
0.120339
0.116524
0.112703
0.108878
0.105046
0.101203
0.0973435
0.0934591
0.0895382
0.0855649
0.0815182
0.0773691
0.0730777
0.068586
0.0638065
0.0585962
0.0526967
0.0455565
0.0356103
0.0162879
0.160877
0.162307
0.163829
0.165453
0.167202
0.169115
0.171251
0.173616
0.172386
0.168557
0.164725
0.160888
0.157036
0.153157
0.149253
0.145327
0.141382
0.13742
0.133446
0.129465
0.125478
0.121489
0.117498
0.113506
0.109511
0.10551
0.101497
0.0974623
0.0933934
0.0892735
0.0850797
0.0807813
0.0763356
0.0716812
0.0667253
0.0613172
0.0551846
0.047747
0.0373569
0.0170678
0.163928
0.16555
0.167277
0.169118
0.171086
0.1732
0.175477
0.177854
0.178529
0.175178
0.171295
0.167355
0.16339
0.15939
0.155352
0.151282
0.147183
0.143062
0.138925
0.134776
0.13062
0.12646
0.122301
0.118145
0.11399
0.109833
0.105669
0.101486
0.0972722
0.0930089
0.0886718
0.0842284
0.0796332
0.0748215
0.0696956
0.0640967
0.0577385
0.0500111
0.0391807
0.0178921
0.166457
0.168213
0.170076
0.172054
0.174152
0.176379
0.178739
0.181202
0.183474
0.181629
0.177597
0.17357
0.169519
0.165424
0.161277
0.157082
0.152849
0.148585
0.1443
0.139998
0.135686
0.131368
0.127051
0.122738
0.11843
0.114123
0.109814
0.10549
0.101138
0.0967379
0.0922645
0.087683
0.0829458
0.0779846
0.0726968
0.0669159
0.0603416
0.0523337
0.0410691
0.0187568
0.168482
0.17032
0.172263
0.174316
0.176484
0.178773
0.181189
0.183735
0.186349
0.187092
0.183599
0.179575
0.175449
0.171254
0.166993
0.162676
0.158314
0.153919
0.149498
0.145057
0.1406
0.136134
0.13167
0.127212
0.122764
0.118322
0.11388
0.109426
0.104947
0.10042
0.0958195
0.0911102
0.0862411
0.0811408
0.0757015
0.0697491
0.0629695
0.054692
0.0430027
0.0196539
0.170039
0.17191
0.17388
0.175951
0.178126
0.180407
0.182798
0.185303
0.187919
0.190553
0.189431
0.18536
0.181143
0.176828
0.172445
0.168003
0.163514
0.158992
0.154445
0.149878
0.145288
0.140684
0.136084
0.131497
0.126923
0.12236
0.1178
0.113232
0.108641
0.104003
0.0992921
0.0944691
0.0894817
0.0842553
0.0786771
0.0725645
0.0655921
0.0570583
0.0449571
0.0205718
0.171174
0.173035
0.174984
0.177022
0.179149
0.181363
0.183662
0.18604
0.188489
0.190975
0.1932
0.1909
0.186545
0.1821
0.177588
0.173018
0.168399
0.163744
0.15907
0.154382
0.149668
0.144939
0.140221
0.135521
0.130839
0.126173
0.121513
0.116849
0.112162
0.107431
0.102625
0.0977048
0.0926151
0.0872785
0.081578
0.0753245
0.0681767
0.0594044
0.0469124
0.0215159
0.171945
0.173757
0.175643
0.177603
0.179634
0.181733
0.183894
0.186107
0.188356
0.190614
0.192802
0.194205
0.191213
0.186889
0.182345
0.177666
0.172912
0.168115
0.1633
0.158476
0.153644
0.148818
0.144004
0.139211
0.134442
0.129693
0.124954
0.120214
0.115453
0.110648
0.105768
0.100769
0.0955952
0.0901658
0.0843593
0.0779793
0.0706706
0.0616733
0.0488051
0.0224919
0.172418
0.174148
0.175936
0.17778
0.179678
0.181623
0.18361
0.18563
0.18767
0.189715
0.191746
0.193694
0.194476
0.190961
0.186628
0.181902
0.176994
0.172033
0.167061
0.162098
0.157154
0.15224
0.14735
0.142486
0.137652
0.132845
0.128054
0.123263
0.118454
0.1136
0.108667
0.103612
0.0983755
0.0928729
0.0869789
0.0804898
0.0730376
0.0638336
0.0506132
0.0234434
0.172666
0.174287
0.175949
0.177649
0.179382
0.181142
0.182923
0.184715
0.186509
0.188294
0.190061
0.191809
0.193503
0.193785
0.189906
0.185387
0.180529
0.1754
0.170253
0.165144
0.160087
0.155089
0.150147
0.145247
0.140384
0.135553
0.130743
0.125936
0.121109
0.116234
0.111276
0.106189
0.100912
0.0953572
0.0893958
0.0828172
0.075241
0.0658522
0.0523102
0.0243567
0.172761
0.174255
0.175771
0.177306
0.178852
0.180403
0.181951
0.183485
0.184993
0.186464
0.187881
0.189233
0.19051
0.191664
0.19155
0.187679
0.182957
0.17804
0.172693
0.167441
0.162296
0.157252
0.152297
0.147411
0.142568
0.137758
0.13297
0.128182
0.123371
0.118506
0.113551
0.108458
0.103164
0.0975803
0.0915726
0.0849249
0.0772458
0.0676967
0.0538679
0.0252164
0.172776
0.17413
0.175488
0.176844
0.178191
0.17952
0.180821
0.182081
0.183286
0.184419
0.185459
0.18638
0.187149
0.18773
0.188047
0.187509
0.183901
0.178994
0.174005
0.168725
0.163599
0.158606
0.15372
0.148912
0.144151
0.139416
0.134694
0.129966
0.125206
0.120383
0.11546
0.110387
0.105101
0.0995097
0.0934765
0.0867803
0.0790201
0.0693364
0.0552596
0.0260067
0.172778
0.173985
0.175179
0.176352
0.177496
0.1786
0.179653
0.180641
0.181548
0.182354
0.183036
0.183565
0.183903
0.184005
0.183832
0.183334
0.182245
0.178563
0.173681
0.168779
0.163887
0.159089
0.154373
0.14972
0.145106
0.140503
0.135896
0.131268
0.126595
0.121846
0.116983
0.111955
0.106699
0.10112
0.0950813
0.0883562
0.0805361
0.0707442
0.0564606
0.0267127
0.172827
0.173887
0.174917
0.175908
0.176851
0.177735
0.178548
0.179277
0.179903
0.180408
0.180767
0.180954
0.180933
0.180665
0.1801
0.179202
0.177929
0.17614
0.172412
0.167822
0.163275
0.158769
0.154305
0.149871
0.145454
0.141032
0.136584
0.132096
0.127543
0.122895
0.118115
0.113153
0.107945
0.102397
0.0963694
0.089633
0.081773
0.0718985
0.0574504
0.0273214
0.172978
0.173893
0.174762
0.175575
0.176325
0.176999
0.177585
0.17807
0.178438
0.17867
0.178744
0.178635
0.178316
0.177752
0.176903
0.175722
0.174168
0.172203
0.169732
0.166074
0.161951
0.1578
0.153641
0.149473
0.145289
0.141076
0.136817
0.132493
0.128081
0.123551
0.11887
0.113988
0.108841
0.103337
0.0973338
0.0906008
0.0827186
0.0727854
0.0582121
0.0278052
0.173278
0.174052
0.174766
0.175409
0.175974
0.17645
0.176824
0.177084
0.177216
0.177202
0.177024
0.176662
0.176092
0.175289
0.174225
0.172867
0.171181
0.169146
0.166742
0.163858
0.160315
0.156495
0.152627
0.148722
0.144774
0.140769
0.136696
0.132535
0.128264
0.123856
0.119277
0.114481
0.109402
0.103949
0.0979795
0.0912617
0.0833725
0.0734033
0.0587461
0.0281748
0.173768
0.174407
0.174972
0.175454
0.175845
0.176134
0.176311
0.176364
0.176281
0.176046
0.175646
0.175063
0.174281
0.173279
0.172039
0.17054
0.168763
0.166691
0.164315
0.161613
0.158503
0.155043
0.151448
0.147779
0.144038
0.14022
0.136312
0.132298
0.128156
0.123861
0.11938
0.114667
0.109657
0.104257
0.0983269
0.0916321
0.0837486
0.0737637
0.0590608
0.0284287
0.174486
0.174994
0.175417
0.175747
0.175973
0.176088
0.176082
0.175944
0.175665
0.175232
0.174634
0.173859
0.172892
0.171722
0.170334
0.168716
0.166856
0.164744
0.162372
0.159739
0.156833
0.153646
0.150268
0.146779
0.143198
0.139526
0.135752
0.131859
0.127827
0.123631
0.119236
0.114597
0.10965
0.104303
0.0984114
0.0917439
0.083875
0.0738911
0.0591757
0.0285733
0.175462
0.175847
0.176135
0.176318
0.176389
0.17634
0.176162
0.175847
0.175387
0.174774
0.173997
0.173049
0.17192
0.170603
0.169087
0.167365
0.16543
0.163278
0.160905
0.158312
0.155499
0.152458
0.149216
0.145848
0.142378
0.138808
0.135126
0.13132
0.127369
0.123246
0.118918
0.114338
0.109442
0.104137
0.0982813
0.0916408
0.0837912
0.0738206
0.0591193
0.0286203
0.176729
0.176995
0.177154
0.177199
0.177121
0.176915
0.176573
0.176091
0.17546
0.174676
0.173733
0.172624
0.171344
0.169888
0.168251
0.166428
0.164415
0.16221
0.159813
0.157222
0.154442
0.151471
0.148319
0.145028
0.141629
0.138122
0.1345
0.130749
0.126848
0.122773
0.118489
0.113949
0.109089
0.103816
0.0979873
0.0913701
0.083541
0.0735914
0.0589244
0.0285848
0.178323
0.178477
0.178511
0.17842
0.178198
0.177839
0.177338
0.176692
0.175895
0.174945
0.173839
0.172573
0.171145
0.169552
0.167792
0.165863
0.163763
0.161492
0.15905
0.156438
0.153659
0.150714
0.147607
0.144359
0.140993
0.137515
0.13392
0.130193
0.126316
0.122264
0.118001
0.113482
0.108642
0.103387
0.0975755
0.0909758
0.083166
0.0732419
0.0586243
0.0284889
0.180292
0.180337
0.18025
0.180026
0.179659
0.179147
0.178486
0.177674
0.176709
0.175591
0.174319
0.172893
0.171312
0.169576
0.167685
0.165639
0.163438
0.161083
0.158576
0.155918
0.153111
0.150157
0.147057
0.143819
0.140459
0.136986
0.133394
0.12967
0.125796
0.121745
0.117486
0.11297
0.108135
0.102886
0.0970832
0.0904947
0.0827014
0.0728052
0.0582472
0.0283464
0.182701
0.18264
0.182432
0.182072
0.181558
0.180887
0.180059
0.179073
0.177931
0.176635
0.175187
0.173589
0.171843
0.169951
0.167915
0.165737
0.163419
0.160963
0.15837
0.155642
0.152782
0.14979
0.146668
0.143415
0.140039
0.136547
0.132936
0.129194
0.125302
0.121237
0.116965
0.112439
0.107596
0.102343
0.0965392
0.0899557
0.0821757
0.0723077
0.0578161
0.0281683
0.185644
0.185476
0.185143
0.184641
0.18397
0.183128
0.182118
0.180943
0.179608
0.178116
0.176473
0.174684
0.172754
0.170686
0.168484
0.166154
0.163697
0.161117
0.158416
0.155596
0.152659
0.149604
0.146431
0.143136
0.139718
0.136185
0.132538
0.128763
0.124842
0.120749
0.116451
0.111904
0.107042
0.101776
0.0959643
0.0893801
0.0816099
0.0717696
0.0573476
0.027961
0.18925
0.188972
0.188505
0.187848
0.187002
0.185968
0.184754
0.183364
0.181808
0.180092
0.178227
0.176219
0.174075
0.171802
0.169408
0.166897
0.164275
0.161545
0.15871
0.155772
0.152732
0.149589
0.146341
0.142984
0.13951
0.135923
0.132224
0.1284
0.124432
0.120296
0.11596
0.111378
0.106489
0.1012
0.0953737
0.0887836
0.0810197
0.0712059
0.056856
0.0277379
0.193701
0.193304
0.192688
0.191854
0.190805
0.189549
0.188094
0.186452
0.184636
0.182657
0.180529
0.17826
0.175863
0.173348
0.170723
0.167997
0.165175
0.162262
0.159261
0.156174
0.153
0.149739
0.146389
0.142944
0.139396
0.13574
0.131974
0.128086
0.12406
0.119871
0.115487
0.110864
0.105939
0.100622
0.0947754
0.0881748
0.0804141
0.0706251
0.0563478
0.0274992
0.19925
0.19872
0.197931
0.196887
0.195595
0.194068
0.192322
0.190374
0.188241
0.185943
0.183494
0.180909
0.178206
0.175397
0.172495
0.16951
0.166449
0.163317
0.160116
0.156847
0.153511
0.150105
0.146624
0.143062
0.139405
0.135647
0.131788
0.12782
0.123724
0.119474
0.115036
0.110365
0.105399
0.100049
0.0941769
0.0875616
0.0798001
0.0700332
0.0558272
0.0272462
0.206258
0.205577
0.204579
0.203275
0.201679
0.199813
0.1977
0.195366
0.192838
0.190137
0.187286
0.184309
0.181227
0.178058
0.174819
0.17152
0.168169
0.164772
0.161331
0.157845
0.154312
0.150727
0.147083
0.143373
0.139581
0.135698
0.131726
0.127658
0.123474
0.119145
0.114639
0.109909
0.104892
0.0994992
0.0935945
0.0869573
0.0791891
0.0694388
0.0552998
0.02698
0.215251
0.214392
0.213134
0.211496
0.209506
0.207198
0.204608
0.201774
0.198729
0.195505
0.192138
0.18866
0.1851
0.181481
0.177822
0.174137
0.170433
0.166714
0.16298
0.15923
0.155456
0.151653
0.147811
0.143919
0.139963
0.13593
0.131826
0.127639
0.123347
0.118924
0.114334
0.10953
0.104449
0.0990011
0.0930521
0.0863828
0.0785981
0.0688557
0.0547753
0.0267043
0.227016
0.225944
0.224346
0.222263
0.219742
0.216838
0.213605
0.210092
0.206347
0.202424
0.198375
0.194243
0.190065
0.185872
0.181685
0.177517
0.173375
0.169259
0.165168
0.161094
0.157028
0.152961
0.148879
0.144769
0.140613
0.136402
0.132139
0.12781
0.123391
0.118854
0.114161
0.109266
0.104104
0.0985867
0.0925789
0.0858636
0.0780495
0.0683026
0.0542684
0.026426
0.242759
0.241423
0.239368
0.236668
0.233405
0.229665
0.22552
0.221044
0.216324
0.211441
0.206463
0.201452
0.19646
0.19152
0.186655
0.181875
0.177182
0.172571
0.168035
0.163562
0.159139
0.154749
0.150377
0.146004
0.14161
0.137183
0.132729
0.128231
0.12366
0.118985
0.114168
0.10916
0.103898
0.0982916
0.0922071
0.0854292
0.0775697
0.0678027
0.0537978
0.026155
0.264362
0.262692
0.26
0.256414
0.252076
0.247093
0.241591
0.235712
0.229589
0.223341
0.217064
0.210848
0.204759
0.198832
0.19308
0.187508
0.182109
0.17687
0.171773
0.1668
0.161929
0.157138
0.152406
0.147712
0.14303
0.138351
0.133674
0.128971
0.124215
0.119372
0.114403
0.109258
0.103871
0.0981542
0.0919729
0.085113
0.0771894
0.0673834
0.0533864
0.025905
0.294844
0.292717
0.289092
0.284196
0.278189
0.271287
0.263723
0.255725
0.247507
0.239255
0.23113
0.223241
0.215648
0.208378
0.201437
0.194815
0.188492
0.182438
0.176623
0.171014
0.16558
0.160287
0.155108
0.150013
0.144975
0.13999
0.135039
0.130091
0.125113
0.120069
0.114917
0.109606
0.10407
0.0982177
0.0919166
0.0849528
0.0769435
0.0670759
0.0530589
0.0256997
0.339088
0.3362
0.331175
0.324211
0.31559
0.305667
0.294843
0.283534
0.272134
0.260931
0.250119
0.239814
0.230079
0.22093
0.212352
0.204308
0.196751
0.189625
0.182875
0.176448
0.170294
0.164369
0.158631
0.15304
0.14757
0.142207
0.136922
0.131675
0.126429
0.121143
0.115771
0.110261
0.104544
0.0985293
0.092082
0.084989
0.0768691
0.0669137
0.0528463
0.0255559
0.404154
0.399762
0.392703
0.382795
0.370257
0.355526
0.339446
0.322946
0.30664
0.290923
0.276051
0.262164
0.249315
0.237486
0.226614
0.216613
0.207384
0.198828
0.190849
0.183358
0.176279
0.169549
0.163109
0.156906
0.150914
0.145097
0.139407
0.133802
0.128234
0.122658
0.117025
0.111278
0.105346
0.099136
0.0925124
0.0852616
0.0770024
0.0669281
0.0527687
0.0254705
0.482007
0.485553
0.480253
0.46824
0.450976
0.428426
0.403985
0.379289
0.355268
0.332531
0.311466