/*--------------------------------*- C++ -*----------------------------------*\
  =========                 |
  \\      /  F ield         | OpenFOAM: The Open Source CFD Toolbox
   \\    /   O peration     | Website:  https://openfoam.org
    \\  /    A nd           | Version:  8
     \\/     M anipulation  |
\*---------------------------------------------------------------------------*/
FoamFile
{
    version     2.0;
    format      ascii;
    class       volScalarField;
    location    "2.05";
    object      p_rgh;
}
// * * * * * * * * * * * * * * * * * * * * * * * * * * * * * * * * * * * * * //

dimensions      [1 -1 -2 0 0 0 0];

internalField   nonuniform List<scalar> 
9150
(
2566.65
2539.54
2514.1
2496.93
2488.62
2488.63
2496.94
2514.12
2539.57
2566.67
2557.47
2537.78
2522.17
2510.38
2504.4
2504.4
2510.39
2522.18
2537.8
2557.49
2547.8
2534.12
2525.63
2517.87
2513.76
2513.76
2517.87
2525.64
2534.13
2547.82
2542.72
2532.59
2527.17
2521.79
2518.83
2518.83
2521.8
2527.18
2532.6
2542.73
2541.07
2532.01
2527.48
2523.3
2520.86
2520.86
2523.31
2527.49
2532.02
2541.08
2101.36
2097.67
2122.85
2136.97
2143.63
2143.69
2137.12
2123.08
2097.98
2101.78
2291.38
2267.29
2262.04
2260.78
2260.89
2260.91
2260.86
2262.17
2267.45
2291.55
2415.6
2384.18
2368.4
2358.51
2353.83
2353.85
2358.55
2368.48
2384.26
2415.68
2515.79
2473.55
2445.89
2428.54
2420.04
2420.05
2428.57
2445.93
2473.59
2515.83
2586.56
2533.38
2494.8
2472.78
2462.63
2462.64
2472.8
2494.83
2533.41
2586.58
1917.3
1954
1941.5
1951.17
1946.09
1946.6
1950.49
1941.15
1953.52
1922.57
1945.63
1962.79
1943.08
1951.75
1946.96
1947.44
1951.29
1944.55
1963.6
1949.15
1923.07
1953.79
1921.18
1929.88
1932.72
1932.8
1929.87
1922.46
1954.81
1925.31
1764.05
1889.14
1904.57
1923.75
1940.23
1940.3
1924.13
1905.5
1889.79
1765.87
1635.69
1877.07
1972.6
2002.75
2018.7
2018.78
2003.02
1973.03
1877.55
1636.97
1751.26
1751.64
1751.9
1752.01
1752
1751.84
1751.56
1751.16
1750.65
1750.04
1746.23
1746.52
1746.73
1746.83
1746.84
1746.75
1746.57
1746.31
1745.96
1745.55
1741.56
1741.76
1741.9
1742
1742.03
1742.01
1741.94
1741.81
1741.64
1741.43
1738.66
1738.79
1738.89
1738.96
1739
1739.01
1738.99
1738.94
1738.87
1738.78
1736.98
1737.06
1737.13
1737.19
1737.23
1737.25
1737.25
1737.25
1737.23
1737.2
1736.2
1736.24
1736.29
1736.32
1736.35
1736.38
1736.39
1736.4
1736.4
1736.4
1736.11
1736.13
1736.16
1736.18
1736.19
1736.21
1736.22
1736.22
1736.22
1736.22
1736.58
1736.58
1736.59
1736.59
1736.6
1736.6
1736.6
1736.59
1736.59
1736.57
1737.5
1737.48
1737.48
1737.47
1737.47
1737.46
1737.45
1737.44
1737.42
1737.38
1738.78
1738.75
1738.73
1738.72
1738.72
1738.71
1738.71
1738.7
1738.68
1738.64
1740.32
1740.29
1740.27
1740.27
1740.28
1740.3
1740.32
1740.33
1740.35
1740.35
1742.06
1742.04
1742.04
1742.06
1742.1
1742.15
1742.22
1742.3
1742.39
1742.47
1743.96
1743.95
1743.97
1744.02
1744.09
1744.2
1744.34
1744.5
1744.71
1744.94
1745.95
1745.95
1745.98
1746.05
1746.17
1746.33
1746.54
1746.8
1747.12
1747.5
1747.97
1747.96
1748.01
1748.1
1748.24
1748.44
1748.69
1749.02
1749.42
1749.91
1749.95
1749.94
1749.99
1750.08
1750.23
1750.44
1750.71
1751.05
1751.47
1751.98
1751.87
1751.85
1751.88
1751.97
1752.11
1752.31
1752.57
1752.89
1753.28
1753.75
1753.69
1753.65
1753.67
1753.75
1753.87
1754.04
1754.27
1754.54
1754.87
1755.25
1755.39
1755.35
1755.36
1755.41
1755.52
1755.66
1755.85
1756.09
1756.37
1756.7
1756.98
1756.94
1756.94
1756.98
1757.06
1757.18
1757.33
1757.51
1757.73
1757.98
1758.47
1758.44
1758.44
1758.47
1758.53
1758.62
1758.74
1758.88
1759.05
1759.24
1759.9
1759.88
1759.88
1759.9
1759.95
1760.02
1760.1
1760.21
1760.33
1760.46
1761.31
1761.3
1761.31
1761.33
1761.36
1761.4
1761.46
1761.53
1761.6
1761.69
1762.74
1762.74
1762.74
1762.76
1762.78
1762.81
1762.84
1762.88
1762.91
1762.96
1764.2
1764.21
1764.22
1764.23
1764.24
1764.26
1764.27
1764.28
1764.28
1764.29
1765.72
1765.74
1765.75
1765.76
1765.76
1765.76
1765.76
1765.75
1765.73
1765.71
1767.31
1767.34
1767.35
1767.36
1767.36
1767.35
1767.33
1767.3
1767.26
1767.21
1768.99
1769.02
1769.04
1769.04
1769.04
1769.02
1768.99
1768.94
1768.88
1768.81
1770.73
1770.77
1770.8
1770.81
1770.81
1770.78
1770.73
1770.67
1770.58
1770.48
1772.54
1772.61
1772.66
1772.68
1772.67
1772.64
1772.58
1772.49
1772.37
1772.24
1774.39
1774.52
1774.61
1774.65
1774.65
1774.61
1774.52
1774.4
1774.25
1774.07
1776.3
1776.53
1776.69
1776.77
1776.77
1776.71
1776.6
1776.43
1776.21
1775.97
1778.37
1778.75
1778.99
1779.1
1779.1
1779
1778.82
1778.58
1778.28
1777.94
1780.91
1781.41
1781.7
1781.79
1781.72
1781.53
1781.24
1780.87
1780.44
1779.97
1784.62
1784.98
1785.1
1785.01
1784.75
1784.36
1783.87
1783.31
1782.69
1782.05
1790.79
1790.18
1789.6
1788.97
1788.27
1787.5
1786.69
1785.85
1784.98
1784.11
1797.22
1795.59
1794.25
1793.01
1791.81
1790.63
1789.46
1788.3
1787.16
1786.03
1802.43
1800.21
1798.32
1796.61
1794.98
1793.43
1791.94
1790.49
1789.08
1787.7
1805.94
1803.59
1801.45
1799.44
1797.54
1795.72
1793.96
1792.26
1790.61
1789.01
1808.27
1805.94
1803.7
1801.55
1799.47
1797.45
1795.49
1793.58
1791.71
1789.9
1809.96
1807.66
1805.38
1803.13
1800.9
1798.71
1796.56
1794.44
1792.37
1790.35
1811.32
1809.03
1806.7
1804.35
1801.98
1799.6
1797.24
1794.9
1792.6
1790.36
1812.72
1810.37
1807.94
1805.43
1802.86
1800.25
1797.62
1794.99
1792.41
1789.9
1814.3
1811.85
1809.27
1806.56
1803.72
1800.78
1797.78
1794.77
1791.81
1788.94
1816.26
1813.7
1810.95
1807.98
1804.79
1801.37
1797.79
1794.18
1790.66
1787.33
1818.81
1816.19
1813.3
1810.05
1806.37
1802.21
1797.68
1793.12
1788.8
1784.83
1822.18
1819.66
1816.8
1813.44
1809.42
1804.52
1798.7
1792.69
1787.36
1782.51
1826.72
1824.74
1822.56
1820.26
1817.75
1813.07
1801.02
1764.95
1750.67
1755.03
1832
1830.57
1830.24
1830.72
1830.36
1748.08
1451.03
1173.38
1127.1
1198.6
1837.28
1831.56
1837.28
1843.69
1839.85
1451.22
830.845
798.239
786.259
778.365
1839.54
1833.5
1835.45
1845.22
1809.74
1418.67
902.985
779.604
775.109
773.383
1841.03
1836.8
1833.23
1833.47
1833.07
1791.49
1473.91
940.112
774.615
769.181
1842.01
1841.54
1840.63
1839.73
1838.84
1836.79
1795.68
1503.39
1008.72
780.232
1843.14
1842.08
1840.84
1839.35
1837.62
1835.72
1833.19
1807.99
1591.04
1152.48
1844.29
1843.27
1842.04
1840.52
1838.66
1836.45
1833.94
1830.92
1825.66
1708.34
1845.89
1845.16
1844.23
1843.06
1841.63
1839.94
1838.01
1835.89
1833.46
1830.84
1847.64
1847.36
1846.87
1846.13
1845.13
1843.84
1842.28
1840.42
1838.19
1835.51
1849.36
1849.71
1849.86
1849.74
1849.34
1848.63
1847.58
1846.11
1844.13
1841.6
1850.76
1851.92
1852.9
1853.64
1854.1
1854.24
1853.98
1853.23
1851.66
1848.12
1851.45
1853.6
1855.64
1857.5
1859.15
1860.54
1861.57
1862.14
1861.98
1857.65
1850.96
1854.29
1857.61
1860.87
1864.09
1867.26
1870.37
1873.51
1876.87
1878.24
1848.77
1853.4
1858.14
1862.99
1868.03
1873.34
1879.07
1885.69
1894.26
1904.33
1844.24
1850.22
1856.35
1862.62
1869.08
1875.82
1882.98
1890.95
1900.62
1912.58
1837.06
1844.5
1852.04
1859.61
1867.19
1874.73
1882.24
1889.75
1897.38
1905.19
1827.32
1836.44
1845.64
1854.78
1863.72
1872.35
1880.56
1888.27
1895.33
1901.61
1814.67
1825.86
1837.15
1848.22
1858.84
1868.85
1878.1
1886.48
1893.86
1900.16
1797.88
1812.89
1827.21
1840.58
1853.13
1864.65
1875.03
1884.13
1891.86
1898.21
1697.55
1797.81
1818.29
1833.98
1848.11
1860.84
1872.1
1881.76
1889.73
1896
1037.32
1482.42
1811.66
1830.85
1845.48
1858.62
1870.08
1879.86
1887.76
1893.76
770.839
854.457
1589.5
1832.37
1846.86
1859.3
1869.69
1878.74
1886.01
1891.37
781.793
788.984
1262.45
1839.19
1852.13
1862.08
1870.52
1878.05
1884.12
1888.43
785.507
791.851
1233.54
1835.07
1856.74
1864.25
1870.9
1876.83
1881.49
1884.52
779.974
788.732
1502.5
1852.38
1860.75
1866.14
1871.05
1875.23
1878.21
1879.7
770.116
792.969
1694.09
1859.43
1864.7
1868.15
1871.13
1873.34
1874.41
1874.1
750.425
1089.83
1814.59
1864.51
1868.26
1870.13
1871.18
1871.3
1870.29
1868.08
676.16
1398.7
1871.05
1875.69
1875.24
1873.98
1872.12
1869.53
1866.14
1861.98
635.517
1702.25
1889.22
1886.1
1881.61
1876.89
1871.85
1866.41
1860.61
1854.5
948.129
1863.41
1898.71
1891.17
1883.53
1875.93
1868.15
1860.19
1852.12
1843.94
1241.76
1899.62
1895.35
1886.59
1878.02
1869.19
1859.87
1850.18
1840.24
1830.26
1288.05
1884.58
1881.6
1874.1
1866.28
1857.65
1848
1837.57
1826.66
1816.07
1259.3
1863.52
1863.46
1858.14
1851.76
1844.01
1834.79
1824.49
1813.84
1804.06
1218.25
1847.42
1847.67
1843.57
1838.21
1831.24
1822.62
1812.9
1803.1
1793.46
1200.68
1834.65
1834.77
1831.64
1827.14
1820.95
1813.15
1804.5
1796.06
1786.03
1226.16
1826.67
1826.33
1823.62
1819.61
1813.93
1806.84
1799.25
1791.74
1780.02
1271.39
1823.32
1822.2
1819.53
1815.7
1810.27
1803.56
1796.4
1788.73
1775.73
1316.82
1823.82
1821.82
1819
1815.25
1810
1803.67
1797.13
1789.94
1765.16
1359.8
1827.36
1824.27
1821.11
1817.33
1812.13
1806.06
1799.95
1792.95
1535.34
1400.24
1832.07
1828.17
1824.71
1820.89
1815.74
1809.76
1803.78
1796.87
1404.89
1433.47
1836.55
1832.62
1829.03
1825.25
1820.24
1814.39
1808.55
1801.96
1323.51
1457.23
1840.34
1837.32
1833.76
1830.01
1825.23
1819.51
1813.62
1807.04
1273.12
1470.84
1844.08
1841.95
1838.61
1834.99
1830.62
1825.19
1819.28
1812.79
1248.41
1473.21
1846.46
1845.86
1843.12
1840.03
1836.41
1831.65
1825.98
1819.75
1245.68
1464.15
1847.38
1849.18
1847.86
1846.04
1843.52
1839.75
1834.58
1828.59
1270.17
1457.38
1852.18
1855.44
1855.75
1855.3
1853.63
1850.55
1846.03
1839.03
1293.7
1483.66
1865.82
1869.47
1869.42
1868.67
1866.67
1863.59
1860.5
1852.38
1334.19
1552.33
1892.55
1888.83
1884.97
1882.7
1880.18
1877.11
1875.58
1866.79
1392.45
1629.73
1899.32
1898.83
1896.19
1894.61
1892.76
1890.95
1890.11
1882
1475.57
1651.6
1906.18
1907.87
1907.69
1907.03
1906.14
1905.74
1904.26
1899.42
1578.35
1740.69
1922.97
1921.87
1922.02
1920.74
1920.5
1922
1920.95
1922.89
1702.62
1833.56
1951.14
1938.38
1938.09
1934.64
1934.72
1937.91
1935.88
1948.37
1828.67
1749.29
1748.42
1747.49
1746.51
1745.51
1744.51
1743.54
1742.62
1741.76
1740.98
1740.3
1739.72
1739.25
1738.86
1738.56
1738.34
1738.2
1738.14
1738.15
1738.22
1738.35
1738.52
1738.73
1738.97
1739.23
1739.5
1739.79
1740.07
1740.34
1740.59
1740.81
1741
1741.14
1741.23
1741.24
1741.18
1741.07
1740.94
1738.94
1739.64
1745.06
1744.48
1743.85
1743.21
1742.56
1741.93
1741.33
1740.78
1740.29
1739.86
1739.5
1739.21
1739.05
1738.94
1738.9
1738.93
1739.01
1739.13
1739.3
1739.5
1739.73
1739.98
1740.24
1740.52
1740.8
1741.07
1741.34
1741.59
1741.81
1742.01
1742.16
1742.26
1742.3
1742.28
1742.2
1742.09
1742.02
1741.71
1737.93
1738.48
1741.18
1740.88
1740.57
1740.26
1739.96
1739.69
1739.45
1739.26
1739.12
1739.03
1739.01
1739.05
1739.13
1739.26
1739.43
1739.63
1739.87
1740.12
1740.39
1740.67
1740.96
1741.24
1741.53
1741.81
1742.09
1742.34
1742.58
1742.79
1742.98
1743.13
1743.23
1743.3
1743.34
1743.36
1743.39
1743.5
1743.8
1744.14
1736.9
1737.34
1738.67
1738.54
1738.42
1738.3
1738.21
1738.16
1738.14
1738.16
1738.23
1738.35
1738.52
1738.73
1738.98
1739.26
1739.57
1739.9
1740.24
1740.58
1740.93
1741.28
1741.61
1741.94
1742.25
1742.55
1742.83
1743.09
1743.32
1743.53
1743.71
1743.86
1743.98
1744.09
1744.2
1744.33
1744.53
1744.86
1745.41
1746.26
1736.82
1736.39
1737.17
1737.13
1737.1
1737.1
1737.12
1737.17
1737.27
1737.41
1737.6
1737.83
1738.11
1738.43
1738.78
1739.16
1739.56
1739.97
1740.39
1740.8
1741.21
1741.6
1741.98
1742.35
1742.69
1743.01
1743.3
1743.57
1743.82
1744.03
1744.23
1744.4
1744.55
1744.71
1744.88
1745.09
1745.38
1745.8
1746.42
1747.27
1743.43
1735.97
1736.4
1736.4
1736.4
1736.44
1736.49
1736.58
1736.72
1736.89
1737.12
1737.4
1737.72
1738.1
1738.51
1738.95
1739.42
1739.89
1740.37
1740.85
1741.31
1741.76
1742.19
1742.59
1742.97
1743.32
1743.65
1743.94
1744.21
1744.45
1744.67
1744.86
1745.05
1745.24
1745.44
1745.68
1746
1746.42
1747
1747.74
1748.46
1735.85
1736.22
1736.21
1736.21
1736.22
1736.25
1736.31
1736.41
1736.55
1736.74
1736.99
1737.31
1737.69
1738.14
1738.62
1739.14
1739.68
1740.22
1740.76
1741.29
1741.8
1742.28
1742.74
1743.17
1743.57
1743.93
1744.27
1744.57
1744.84
1745.09
1745.31
1745.52
1745.72
1745.92
1746.14
1746.38
1746.68
1747.03
1747.43
1747.82
1742.02
1736.54
1736.5
1736.46
1736.41
1736.37
1736.33
1736.31
1736.32
1736.38
1736.52
1736.78
1737.14
1737.59
1738.11
1738.69
1739.3
1739.92
1740.54
1741.15
1741.74
1742.3
1742.83
1743.33
1743.79
1744.21
1744.6
1744.95
1745.27
1745.56
1745.82
1746.05
1746.27
1746.49
1746.7
1746.92
1747.16
1747.43
1747.76
1748.16
1748.6
1737.33
1737.25
1737.14
1737.01
1736.85
1736.65
1736.41
1736.16
1735.94
1735.86
1735.97
1736.28
1736.74
1737.32
1737.99
1738.71
1739.45
1740.19
1740.91
1741.61
1742.27
1742.89
1743.48
1744.02
1744.51
1744.97
1745.38
1745.75
1746.09
1746.4
1746.67
1746.92
1747.14
1747.35
1747.55
1747.75
1747.95
1748.17
1748.42
1748.63
1738.58
1738.48
1738.32
1738.11
1737.8
1737.38
1736.81
1736.07
1735.3
1734.75
1734.61
1734.84
1735.39
1736.11
1736.95
1737.84
1738.76
1739.68
1740.57
1741.41
1742.21
1742.95
1743.64
1744.27
1744.85
1745.39
1745.87
1746.31
1746.71
1747.06
1747.38
1747.66
1747.9
1748.11
1748.29
1748.43
1748.55
1748.65
1748.73
1748.8
1740.32
1740.25
1740.1
1739.86
1739.47
1738.88
1737.97
1736.42
1734.39
1732.92
1732.37
1732.58
1733.26
1734.25
1734.81
1736.27
1737.74
1739.01
1740.15
1741.18
1742.14
1743.02
1743.83
1744.57
1745.25
1745.87
1746.43
1746.94
1747.4
1747.81
1748.17
1748.48
1748.75
1748.96
1749.12
1749.23
1749.27
1749.25
1749.16
1749.05
1742.56
1742.63
1742.66
1742.59
1742.46
1742.36
1741.88
1736.95
1731.52
1727.49
1726.8
1726.14
1724.64
1727.11
1731.5
1734.71
1736.72
1738.33
1739.74
1740.99
1742.12
1743.14
1744.08
1744.93
1745.7
1746.41
1747.05
1747.63
1748.15
1748.62
1749.03
1749.37
1749.66
1749.89
1750.04
1750.11
1750.09
1749.94
1749.69
1749.42
1745.23
1745.58
1745.96
1746.39
1747.15
1748.71
1749.13
1695.13
1647.38
1664.19
1679.23
1695.13
1713.37
1723.56
1730.02
1733.48
1735.89
1737.82
1739.48
1740.94
1742.23
1743.39
1744.43
1745.37
1746.23
1747.01
1747.72
1748.37
1748.95
1749.47
1749.92
1750.31
1750.62
1750.86
1751.01
1751.05
1750.97
1750.73
1750.33
1749.91
1748
1748.64
1749.41
1750.43
1752.11
1754.76
1722.97
1553.02
1503.69
1591.01
1665.14
1692.09
1715.17
1725.82
1730.09
1733.19
1735.75
1737.88
1739.68
1741.23
1742.61
1743.83
1744.91
1745.83
1746.75
1747.68
1748.44
1749.14
1749.77
1750.34
1750.83
1751.26
1751.6
1751.85
1752
1752.03
1751.91
1751.59
1751.08
1750.54
1750.54
1751.36
1752.39
1753.79
1755.9
1758.34
1659.59
1486.44
1471.5
1553.66
1692.29
1712.63
1723.78
1728.8
1732.01
1734.62
1736.81
1738.77
1740.5
1741.99
1743.31
1744.51
1745.54
1746.47
1747.4
1748.37
1749.2
1749.93
1750.6
1751.2
1751.74
1752.2
1752.57
1752.84
1753.01
1753.04
1752.9
1752.53
1751.95
1751.34
1752.63
1753.46
1754.48
1755.83
1757.65
1759.09
1626.62
1461.42
1455.99
1514.31
1710.98
1728.22
1730.69
1733.3
1735.4
1737.15
1738.82
1740.34
1741.84
1743.12
1744.3
1745.4
1746.43
1747.27
1748.16
1749.14
1749.97
1750.72
1751.42
1752.05
1752.62
1753.11
1753.52
1753.82
1754.01
1754.06
1753.93
1753.56
1752.94
1752.3
1754.33
1755.06
1755.93
1757
1758.24
1758.99
1638.4
1447.38
1444.57
1472.07
1703.61
1736.94
1736.64
1737.97
1739.12
1740.12
1741.23
1742.32
1743.41
1744.45
1745.44
1746.36
1747.17
1748.2
1749.09
1749.94
1750.75
1751.51
1752.23
1752.87
1753.47
1754.01
1754.45
1754.79
1755.02
1755.1
1755.01
1754.67
1754.08
1753.46
1755.72
1756.28
1756.89
1757.51
1757.97
1758.04
1719.75
1460.41
1431.71
1425.22
1646.8
1745.05
1742.19
1742.33
1742.72
1743.09
1743.63
1744.35
1745.07
1745.22
1746.48
1747.36
1747.46
1748.57
1749.89
1750.72
1751.53
1752.14
1753
1753.69
1754.31
1754.88
1755.36
1755.75
1756.03
1756.17
1756.14
1755.88
1755.37
1754.82
1757.11
1757.62
1758.21
1758.86
1759.52
1760.17
1761.67
1563.44
1415.36
1413.76
1505.27
1735.83
1744.26
1744.34
1744.87
1745.26
1745.47
1745.98
1746.59
1747.09
1743
1744.55
1748.06
1748.76
1749.6
1751.29
1752.14
1752.8
1753.65
1754.51
1755.16
1755.75
1756.28
1756.72
1757.06
1757.29
1757.36
1757.22
1756.85
1756.42
1758.3
1758.68
1759.09
1759.51
1759.86
1759.97
1760.04
1714.04
1431.02
1396.87
1389.69
1620.03
1751.5
1748.37
1747.85
1747.77
1747.6
1746.98
1748.17
1748.71
1743.79
1742.2
1748.11
1749.52
1750.15
1750.99
1752.59
1753.55
1754.44
1755.33
1756.02
1756.65
1757.22
1757.73
1758.15
1758.48
1758.68
1758.7
1758.52
1758.26
1759.5
1759.81
1760.15
1760.52
1760.91
1761.2
1761.33
1762.42
1619.81
1385.3
1378.16
1394.4
1656.61
1749.58
1748.67
1748.89
1748.96
1748.92
1746.65
1737.22
1736.8
1743.24
1749.92
1751.33
1750.87
1751.75
1753.11
1754.54
1755.41
1756.2
1756.91
1757.58
1758.21
1758.79
1759.31
1759.76
1760.12
1760.35
1760.4
1760.35
1760.64
1760.87
1761.1
1761.34
1761.58
1761.76
1761.67
1761.5
1763.12
1524.72
1364.37
1361.54
1391.09
1647.71
1750.71
1750.41
1750.4
1750.17
1745.34
1636.14
1629.68
1733.43
1751.01
1751.99
1752.75
1753.01
1754.34
1755.61
1756.41
1757.15
1757.88
1758.58
1759.26
1759.92
1760.55
1761.15
1761.69
1762.16
1762.5
1762.7
1761.8
1761.96
1762.1
1762.23
1762.33
1762.39
1762.26
1761.69
1761.23
1744.63
1454.11
1345.68
1342.09
1364.13
1565.96
1752.2
1752.52
1753.55
1750.86
1596.73
1587.4
1631.97
1750.1
1753.55
1754.34
1755.2
1755.96
1756.72
1757.47
1758.2
1758.93
1759.67
1760.41
1761.15
1761.89
1762.64
1763.39
1764.14
1764.81
1765.29
1763.03
1763.12
1763.21
1763.27
1763.3
1763.29
1763.22
1762.92
1762.24
1762.18
1718.48
1395.25
1326.25
1321.06
1315.93
1438.41
1702.57
1757.71
1759.04
1619.06
1578.51
1575.26
1658.66
1755.94
1755.92
1756.56
1757.27
1757.95
1758.64
1759.35
1760.09
1760.85
1761.64
1762.47
1763.33
1764.25
1765.22
1766.26
1767.29
1768.08
1764.32
1764.38
1764.41
1764.42
1764.41
1764.35
1764.27
1764.12
1763.76
1763.13
1763.53
1682.43
1348.09
1306.74
1303.29
1298.97
1355.64
1623.32
1766.94
1706.18
1568.62
1568.53
1566.56
1683.16
1757.43
1757.73
1758.46
1759.19
1759.89
1760.6
1761.34
1762.13
1762.97
1763.88
1764.87
1765.95
1767.16
1768.51
1769.91
1771.01
1765.7
1765.72
1765.71
1765.69
1765.63
1765.53
1765.39
1765.21
1764.92
1764.32
1763.34
1763.94
1672.46
1329.1
1291.64
1288.89
1285.65
1297.67
1571.78
1709.74
1605.72
1561.67
1561.71
1560.28
1711.6
1759.38
1759.81
1760.56
1761.27
1761.97
1762.71
1763.51
1764.39
1765.37
1766.48
1767.73
1769.16
1770.82
1772.59
1774.01
1767.18
1767.16
1767.13
1767.07
1766.99
1766.89
1766.75
1766.57
1766.36
1766.03
1765.31
1764.21
1765.46
1708.23
1343.97
1278.98
1276.7
1274.16
1279.37
1574.07
1605.23
1582.34
1557.62
1557.07
1585.36
1745.18
1761.63
1762.15
1762.85
1763.52
1764.22
1765
1765.9
1766.94
1768.15
1769.55
1771.2
1773.15
1775.27
1777
1768.75
1768.7
1768.64
1768.56
1768.47
1768.37
1768.25
1768.13
1768
1767.88
1767.7
1767.24
1766.56
1768.22
1733.55
1379.29
1267.62
1265.85
1262.67
1394.05
1605.86
1602.36
1566.12
1553.24
1551.69
1648.09
1763.1
1764.03
1764.61
1765.23
1765.86
1766.59
1767.48
1768.55
1769.84
1771.37
1773.21
1775.42
1777.87
1779.87
1770.39
1770.31
1770.22
1770.11
1770
1769.89
1769.78
1769.68
1769.6
1769.55
1769.56
1769.58
1769.39
1768.96
1770.36
1747.71
1454.06
1254.64
1253.14
1284.51
1592.76
1603.2
1556.73
1550.16
1549.31
1585.29
1754.55
1766.35
1766.65
1767.12
1767.63
1768.27
1769.11
1770.19
1771.51
1773.14
1775.13
1777.56
1780.28
1781.96
1772.11
1771.98
1771.84
1771.7
1771.55
1771.41
1771.28
1771.17
1771.09
1771.06
1771.1
1771.23
1771.43
1771.48
1771.28
1772.45
1774.73
1592.32
1249.93
1249.61
1463.45
1595.07
1590.27
1546.73
1546.78
1626.19
1765.31
1768.87
1768.94
1769.14
1769.46
1769.98
1770.74
1771.79
1773.14
1774.83
1776.94
1779.55
1782.47
1782.3
1773.88
1773.69
1773.49
1773.28
1773.07
1772.87
1772.68
1772.53
1772.41
1772.35
1772.35
1772.45
1772.68
1773.04
1773.42
1773.71
1774.65
1779.39
1594.59
1255.36
1283.83
1489.41
1651.89
1648.05
1655.41
1742.08
1772.3
1771.9
1771.42
1771.21
1771.28
1771.63
1772.3
1773.3
1774.64
1776.36
1778.54
1781.25
1784.3
1784.08
1775.71
1775.43
1775.14
1774.84
1774.54
1774.25
1773.98
1773.73
1773.53
1773.36
1773.25
1773.19
1773.2
1773.29
1773.42
1773.44
1773.03
1772.43
1774.1
1499.54
1284.22
1342.97
1643.89
1782.22
1782.57
1779.08
1776.32
1774.68
1773.62
1773.02
1772.86
1773.1
1773.68
1774.63
1775.95
1777.67
1779.87
1782.62
1785.7
1785.43
1777.57
1777.18
1776.78
1776.36
1775.95
1775.55
1775.16
1774.81
1774.48
1774.21
1773.97
1773.8
1773.68
1773.64
1773.69
1773.82
1773.95
1773.9
1774.09
1767.71
1391.29
1340.91
1548.32
1777.55
1779.28
1777.69
1776.19
1775.08
1774.34
1773.92
1773.84
1774.12
1774.72
1775.68
1776.99
1778.71
1780.89
1783.62
1786.67
1786.02
1779.46
1778.93
1778.38
1777.82
1777.27
1776.73
1776.22
1775.73
1775.27
1774.86
1774.48
1774.15
1773.85
1773.6
1773.37
1773.16
1772.93
1772.5
1771.71
1771.19
1647.76
1341.2
1443.72
1753.88
1779.59
1777.84
1776.5
1775.51
1774.87
1774.55
1774.54
1774.85
1775.5
1776.46
1777.77
1779.46
1781.6
1784.25
1787.12
1785.86
1781.36
1780.64
1779.92
1779.2
1778.49
1777.8
1777.14
1776.51
1775.92
1775.37
1774.86
1774.4
1773.98
1773.61
1773.27
1772.97
1772.7
1772.43
1772.02
1771.58
1772.97
1513.18
1443.48
1621.43
1775.84
1775.37
1775.09
1774.84
1774.65
1774.63
1774.81
1775.24
1775.96
1776.96
1778.27
1779.93
1782
1784.54
1785.89
1785.72
1783.19
1782.26
1781.34
1780.43
1779.55
1778.7
1777.89
1777.12
1776.4
1775.72
1775.1
1774.52
1773.98
1773.49
1773.02
1772.57
1772.13
1771.65
1771.03
1770.15
1769.5
1719.72
1458.15
1492.18
1714.35
1775.68
1775.02
1774.76
1774.64
1774.7
1774.95
1775.46
1776.22
1777.24
1778.53
1780.14
1782.12
1784.52
1784.6
1785.21
1784.88
1783.71
1782.58
1781.48
1780.42
1779.41
1778.45
1777.55
1776.7
1775.92
1775.19
1774.53
1773.92
1773.37
1772.87
1772.42
1772.03
1771.68
1771.36
1771.02
1770.79
1771.97
1560.4
1489.19
1577.32
1766.29
1773.57
1773.76
1774.05
1774.37
1774.8
1775.41
1776.23
1777.28
1778.56
1780.11
1781.98
1784.22
1784.76
1784.44
1786.31
1784.91
1783.56
1782.27
1781.04
1779.87
1778.77
1777.74
1776.79
1775.92
1775.11
1774.38
1773.72
1773.13
1772.6
1772.13
1771.7
1771.3
1770.9
1770.42
1769.8
1769.45
1689.59
1483.66
1484.55
1714.99
1773.71
1773.56
1773.82
1774.17
1774.63
1775.29
1776.13
1777.18
1778.43
1779.91
1781.66
1783.72
1785.37
1783.46
1787.39
1785.76
1784.21
1782.73
1781.34
1780.02
1778.8
1777.67
1776.63
1775.69
1774.84
1774.08
1773.41
1772.83
1772.33
1771.92
1771.58
1771.34
1771.18
1771.11
1771.09
1771.39
1773.52
1531.45
1482.82
1613.3
1770.76
1772.02
1772.77
1773.48
1774.17
1774.95
1775.86
1776.94
1778.16
1779.57
1781.2
1783.09
1785.05
1782.37
1788.06
1786.23
1784.48
1782.83
1781.27
1779.82
1778.49
1777.27
1776.17
1775.18
1774.32
1773.56
1772.91
1772.36
1771.92
1771.56
1771.29
1771.1
1770.98
1770.91
1770.84
1770.78
1771.35
1612.58
1475.5
1540.89
1756.91
1772.33
1772.65
1773.23
1773.91
1774.68
1775.6
1776.66
1777.84
1779.17
1780.67
1782.38
1784.16
1781.88
1788.3
1786.26
1784.32
1782.5
1780.8
1779.23
1777.8
1776.51
1775.37
1774.38
1773.52
1772.8
1772.21
1771.74
1771.39
1771.13
1770.97
1770.87
1770.82
1770.78
1770.64
1770.31
1769.99
1675.89
1470.31
1496.76
1728.63
1771.97
1772.13
1772.77
1773.52
1774.37
1775.33
1776.38
1777.53
1778.77
1780.15
1781.67
1783.23
1784.03
1788.08
1785.81
1783.68
1781.69
1779.85
1778.18
1776.68
1775.35
1774.2
1773.22
1772.42
1771.78
1771.3
1770.97
1770.77
1770.7
1770.75
1770.92
1771.21
1771.63
1772.15
1772.8
1773.96
1727.2
1486.11
1447.05
1691.61
1768.41
1769.99
1771.49
1772.77
1773.93
1775.04
1776.16
1777.3
1778.47
1779.72
1781.06
1782.41
1783.49
1787.35
1784.83
1782.49
1780.32
1778.35
1776.59
1775.03
1773.69
1772.57
1771.66
1770.95
1770.44
1770.11
1769.96
1769.96
1770.11
1770.38
1770.79
1771.32
1772
1772.81
1773.75
1775.11
1763.55
1497.41
1438.1
1657.32
1768.53
1770.04
1771.57
1772.89
1774.07
1775.18
1776.26
1777.33
1778.4
1779.5
1780.64
1781.77
1782.67
1786.06
1783.24
1780.65
1778.3
1776.19
1774.34
1772.76
1771.44
1770.41
1769.63
1769.07
1768.72
1768.6
1768.69
1768.94
1769.35
1769.87
1770.51
1771.27
1772.14
1773.14
1774.24
1775.62
1770.46
1483.74
1428.84
1638.79
1769.23
1770.75
1772.22
1773.5
1774.65
1775.7
1776.7
1777.67
1778.6
1779.52
1780.46
1781.36
1782.08
1784.03
1780.87
1778.02
1775.47
1773.23
1771.31
1769.73
1768.51
1767.69
1767.21
1766.82
1766.58
1766.65
1767.03
1767.71
1768.44
1769.25
1770.14
1771.11
1772.18
1773.34
1774.61
1776.19
1764.93
1454.47
1420.25
1646.42
1769.75
1771.75
1773.25
1774.5
1775.59
1776.56
1777.46
1778.29
1779.08
1779.82
1780.55
1781.23
1781.76
1781.01
1777.47
1774.36
1771.63
1769.26
1767.25
1765.64
1764.51
1763.98
1763.65
1755.8
1750.64
1762.19
1765.19
1766.33
1767.46
1768.6
1769.76
1770.93
1772.15
1773.43
1774.83
1776.47
1749.14
1412.1
1411.92
1674.58
1770.98
1773.3
1774.74
1775.92
1776.91
1777.76
1778.53
1779.21
1779.83
1780.4
1780.92
1781.37
1781.65
1777.88
1773.73
1770.26
1767.22
1764.55
1762.21
1760.29
1759.06
1759.13
1590.71
1627.01
1748.35
1761.01
1763.15
1764.94
1766.55
1768.03
1769.39
1770.64
1771.75
1772.7
1773.49
1773.93
1604.15
1402.98
1402.39
1728.35
1776.3
1777.07
1777.61
1778.21
1778.8
1779.39
1779.93
1780.41
1780.85
1781.23
1781.54
1781.17
1781.88
1763.34
1764.41
1762.91
1761.69
1759.21
1756.38
1753.87
1744.4
1547.5
1529.6
1637.58
1755.38
1759.32
1761.9
1764.22
1766.29
1767.72
1769.8
1771.33
1772.71
1773.99
1775.13
1768.67
1392.8
1394.22
1528.84
1771.49
1778.33
1779.01
1779.56
1780.08
1780.57
1781.02
1781.42
1781.76
1782.04
1782.26
1782.38
1781.68
1782.41
1325.02
1455.04
1510.72
1570.95
1659.7
1675.17
1555.31
1481.61
1536.22
1621.01
1737.95
1755.61
1758.96
1759.41
1759.52
1762.04
1768.61
1770.77
1772.29
1773.54
1774.39
1774.13
1540.48
1385.63
1385.75
1736.08
1781.47
1781.43
1781.58
1781.85
1782.15
1782.46
1782.75
1783.01
1783.22
1783.37
1783.45
1783.41
1782.53
1783.15
794.962
837.913
857.201
866.61
985.866
1035.4
1209
1534.23
1710.48
1734.54
1736.95
1724.6
1728.77
1746.16
1758.92
1761.93
1770.87
1773.13
1775.12
1776.79
1777.49
1627.72
1373.92
1377.51
1512.02
1781.41
1782.46
1782.91
1783.29
1783.64
1783.94
1784.2
1784.42
1784.59
1784.71
1784.77
1784.75
1784.57
1783.58
1778.18
771.689
769.047
766.719
765.342
764.259
774.342
1114.78
1514.23
1502.31
1505.09
1646.56
1723.75
1727.53
1749.42
1765.34
1766.49
1774.01
1776.53
1778.29
1763.86
1562.99
1368.69
1369.17
1421.84
1756.15
1784.23
1784.71
1785.01
1785.3
1785.55
1785.75
1785.92
1786.06
1786.15
1786.2
1786.18
1786.1
1785.84
1784.9
1777.11
767.884
766.561
765.683
765.334
765.354
765.352
998.747
1310.21
1275.92
1278.2
1533.65
1752
1756.87
1763.31
1771.65
1775.27
1778.57
1780.32
1720.45
1476.24
1363.4
1365.05
1414.09
1682.65
1786.42
1786.86
1786.99
1787.13
1787.28
1787.39
1787.49
1787.56
1787.61
1787.64
1787.62
1787.55
1787.41
1787.12
1786.22
1778.15
765.391
764.196
763.902
764.326
764.422
762.923
812.473
1211.11
1301.37
1280.33
1522
1766.35
1770.69
1774.56
1777.92
1781.04
1780.19
1695.73
1431.8
1368.84
1368.05
1463.55
1681.51
1788.83
1789.51
1789.32
1789.21
1789.16
1789.13
1789.11
1789.09
1789.07
1789.04
1789
1788.92
1788.8
1788.62
1788.32
1787.38
1785.17
806.357
759.624
764.601
774.24
760.969
755.559
754.079
992.937
1510.62
1554.08
1680.76
1779.55
1781.26
1782.25
1784.41
1786.55
1719.26
1420.56
1394.4
1394.26
1567.64
1739.15
1792.48
1792.54
1791.98
1791.54
1791.23
1790.98
1790.79
1790.63
1790.5
1790.39
1790.29
1790.19
1790.06
1789.9
1789.67
1789.34
1788.69
1788.44
1310.01
874.373
807.752
780.265
747.94
744.961
743.559
753.906
1348.53
1786.58
1791.22
1791.49
1790.82
1790.16
1789.79
1783.26
1504.76
1398.28
1397.02
1588.78
1779.44
1796.1
1795.54
1794.69
1793.96
1793.39
1792.91
1792.5
1792.17
1791.89
1791.66
1791.48
1791.32
1791.18
1791.03
1790.85
1790.59
1790.24
1789.82
1778.82
1776.43
1416.63
923.015
751.564
738.789
736.654
734.972
731.267
902.45
1609.77
1807.12
1803.73
1799.74
1796.84
1794.99
1766.73
1405.54
1400.5
1466.93
1769.18
1798.47
1797.89
1797.1
1796.29
1795.53
1794.84
1794.23
1793.69
1793.23
1792.85
1792.54
1792.3
1792.13
1791.99
1791.89
1791.81
1791.72
1791.62
1791.42
1720.5
1833
1820.65
1535.4
966.482
731.545
728.391
725.8
722.956
719.563
849.993
1157.69
1571.47
1792.06
1799.14
1797.86
1798.78
1522.72
1402.46
1481.09
1781.12
1800.23
1799.39
1798.63
1797.76
1796.86
1796.01
1795.24
1794.55
1793.94
1793.45
1793.06
1792.76
1792.57
1792.47
1792.46
1792.52
1790.95
1784.7
1745.37
1714.24
1837.89
1833.28
1830.76
1594.06
965.762
720.017
717.031
714.434
711.471
709.293
705.288
769.914
1143.9
1658.3
1797.87
1802.17
1735.53
1399.81
1525.55
1789.62
1801.84
1800.93
1800.06
1799.02
1797.94
1796.88
1795.89
1795.01
1794.23
1793.58
1793.09
1792.73
1792.5
1792.42
1792.47
1792.65
1777.61
1722.46
1713.4
1713.48
1845.32
1838.7
1830.42
1826.46
1591.46
887.117
709.454
706.949
704.886
702.515
701.501
700.221
697.905
975.804
1474.47
1518.73
1406.95
1508.49
1734.86
1802.67
1803.81
1802.8
1801.58
1800.2
1798.79
1797.42
1796.15
1795
1794
1793.18
1792.54
1792.09
1791.83
1791.78
1791.92
1792.29
1766.25
1712.16
1712.68
1712.79
1833.08
1842.2
1831.7
1820.3
1817.43
1507.89
789.511
701.764
700.714
699.694
698.643
697.792
697.26
696.556
941.414
1107.2
1142.66
1372.91
1737.34
1806.98
1805.55
1804.5
1802.99
1801.18
1799.33
1797.56
1795.91
1794.43
1793.16
1792.11
1791.29
1790.71
1790.4
1790.35
1790.55
1790.87
1770.36
1749.76
1734.41
1734.37
1829.11
1596.49
1660.86
1762.27
1801.61
1791.56
1409.18
720.344
697.153
697.479
696.817
696.225
695.751
694.834
719.602
1159.78
1239.85
1283.34
1426.61
1778.21
1809.86
1806.85
1804.6
1802.11
1799.59
1797.23
1795.09
1793.22
1791.61
1790.3
1789.27
1788.54
1788.14
1788.06
1788.32
1788.18
1786.59
1790.99
1790.63
1791.56
1874.47
1384.49
1093.31
1212.11
1509.02
1756.94
1760.47
1297
728.451
694.339
695.155
695.082
694.546
694.05
693.316
1227.53
1580.28
1308.67
1294.2
1394.03
1790.44
1809.06
1805.31
1802.25
1799.12
1796.16
1793.51
1791.21
1789.26
1787.67
1786.41
1785.53
1785.01
1784.86
1785.08
1785.38
1786.95
1788.46
1790.04
1791.11
1922.34
1612.3
1087.67
946.413
921.027
1236.31
1733.04
1753.35
1596.66
801.503
689.059
692.399
693.14
692.948
693.88
1351.88
1852.46
1356.15
1284.31
1270.74
1527.55
1811
1805.52
1801.33
1797.63
1794.11
1790.95
1788.25
1785.98
1784.12
1782.67
1781.64
1781.02
1780.82
1781.05
1781.8
1782.99
1784.66
1786.56
1787.96
1913.3
1920.71
1805.77
1311.17
871.494
861.396
1053.35
1733.47
1752.78
1663.31
1145.73
820.048
689.827
688.506
906.033
1700.78
1862.14
1561.2
1266.6
1259.21
1247.32
1682.76
1803.76
1798.29
1794.3
1790.53
1787.07
1784.07
1781.56
1779.51
1777.92
1776.79
1776.13
1775.94
1776.21
1776.96
1778.22
1780.05
1782.18
1783.82
1907.24
1911.74
1916.58
1924.35
1508.94
896.08
857.502
999.911
1725.41
1557.16
1263.86