/*--------------------------------*- C++ -*----------------------------------*\
  =========                 |
  \\      /  F ield         | OpenFOAM: The Open Source CFD Toolbox
   \\    /   O peration     | Website:  https://openfoam.org
    \\  /    A nd           | Version:  8
     \\/     M anipulation  |
\*---------------------------------------------------------------------------*/
FoamFile
{
    version     2.0;
    format      ascii;
    class       surfaceScalarField;
    location    "2.05";
    object      phi;
}
// * * * * * * * * * * * * * * * * * * * * * * * * * * * * * * * * * * * * * //

dimensions      [0 3 -1 0 0 0 0];

internalField   nonuniform List<scalar> 
18095
(
1.58371e-07
-9.65171e-07
8.068e-07
1.65363e-07
-1.2484e-06
1.24141e-06
1.22193e-07
-1.24238e-06
1.28555e-06
6.53032e-08
-1.26353e-06
1.32042e-06
-3.03484e-11
-1.28056e-06
1.34589e-06
-6.53586e-08
-1.28055e-06
1.34588e-06
-1.22236e-07
-1.26352e-06
1.32039e-06
-1.65391e-07
-1.24237e-06
1.28552e-06
-1.58383e-07
-1.24839e-06
1.24138e-06
-9.65132e-07
8.06749e-07
1.11058e-07
-1.07623e-06
9.94565e-08
-1.2368e-06
7.28706e-08
-1.2158e-06
4.00299e-08
-1.23069e-06
-2.11649e-11
-1.24051e-06
-4.00691e-08
-1.2405e-06
-7.29019e-08
-1.23068e-06
-9.94802e-08
-1.21579e-06
-1.11072e-07
-1.23679e-06
-1.0762e-06
6.72786e-08
-1.14351e-06
5.28258e-08
-1.22235e-06
4.21588e-08
-1.20513e-06
2.38652e-08
-1.2124e-06
-1.46902e-11
-1.21663e-06
-2.38926e-08
-1.21663e-06
-4.21808e-08
-1.2124e-06
-5.28422e-08
-1.20513e-06
-6.72905e-08
-1.22234e-06
-1.14349e-06
3.97699e-08
-1.18328e-06
2.66735e-08
-1.20925e-06
2.20222e-08
-1.20048e-06
1.25327e-08
-1.20291e-06
-8.8109e-12
-1.20409e-06
-1.25493e-08
-1.20409e-06
-2.20359e-08
-1.20291e-06
-2.66836e-08
-1.20048e-06
-3.97781e-08
-1.20925e-06
-1.18327e-06
1.67233e-08
7.47363e-09
6.99357e-09
4.08327e-09
-3.09959e-12
-4.08901e-09
-6.99819e-09
-7.47692e-09
-1.6727e-08
-1.74931e-07
-1.16402e-06
1.33895e-06
-2.18995e-07
-1.21638e-06
1.26045e-06
-1.6531e-07
-1.21298e-06
1.1593e-06
-8.74592e-08
-1.20431e-06
1.12646e-06
-3.63748e-10
-1.20283e-06
1.11574e-06
8.67481e-08
-1.20278e-06
1.11567e-06
1.6467e-07
-1.20417e-06
1.12624e-06
2.18406e-07
-1.21278e-06
1.15904e-06
1.74379e-07
-1.21609e-06
1.26012e-06
-1.16367e-06
1.33805e-06
-9.30525e-08
-1.07097e-06
-9.56643e-08
-1.21377e-06
-7.93164e-08
-1.22933e-06
-4.43636e-08
-1.23926e-06
-2.03575e-10
-1.24699e-06
4.39729e-08
-1.24696e-06
7.89656e-08
-1.23916e-06
9.53737e-08
-1.22919e-06
9.28856e-08
-1.2136e-06
-1.07078e-06
-5.8005e-08
-1.01296e-06
-5.52226e-08
-1.21655e-06
-4.65816e-08
-1.23797e-06
-2.72235e-08
-1.25862e-06
-1.20305e-10
-1.2741e-06
2.69943e-08
-1.27407e-06
4.6385e-08
-1.25855e-06
5.50792e-08
-1.23788e-06
5.79351e-08
-1.21646e-06
-1.01285e-06
-7.49299e-08
-9.38031e-07
-6.20663e-08
-1.22942e-06
-4.86449e-08
-1.25139e-06
-2.78337e-08
-1.27943e-06
-7.24135e-11
-1.30186e-06
2.76965e-08
-1.30184e-06
4.85305e-08
-1.27938e-06
6.19885e-08
-1.25134e-06
7.48929e-08
-1.22936e-06
-9.37953e-07
-1.31231e-07
-1.1924e-07
-8.50767e-08
-4.40809e-08
-4.59975e-11
4.39945e-08
8.50057e-08
1.1919e-07
1.31203e-07
-3.59028e-08
-9.3085e-07
9.66753e-07
7.78126e-09
-1.34262e-06
1.29894e-06
1.08546e-08
-1.27674e-06
1.27367e-06
3.99058e-09
-1.22897e-06
1.23583e-06
-1.95461e-09
-1.22651e-06
1.23246e-06
-8.18546e-09
-1.22621e-06
1.23244e-06
-1.46679e-08
-1.22967e-06
1.23615e-06
-1.42649e-08
-1.27875e-06
1.27835e-06
1.99662e-08
-1.34213e-06
1.3079e-06
-9.17551e-07
9.37517e-07
1.46617e-08
-9.45512e-07
2.03807e-08
-1.34834e-06
1.27378e-08
-1.2691e-06
5.51173e-09
-1.22174e-06
-2.01905e-09
-1.21898e-06
-9.60781e-09
-1.21863e-06
-1.71468e-08
-1.22213e-06
-2.68669e-08
-1.26903e-06
-2.07766e-08
-1.34822e-06
-9.38328e-07
2.8881e-08
-9.74393e-07
1.98806e-08
-1.33934e-06
1.09899e-08
-1.26021e-06
5.74044e-09
-1.21649e-06
-1.28466e-09
-1.21196e-06
-7.97281e-09
-1.21194e-06
-1.35756e-08
-1.21653e-06
-2.27025e-08
-1.2599e-06
-3.2053e-08
-1.33887e-06
-9.70381e-07
7.93282e-08
-1.05372e-06
5.24732e-08
-1.31248e-06
3.32504e-08
-1.24098e-06
2.02308e-08
-1.20347e-06
-9.09823e-10
-1.19082e-06
-2.20857e-08
-1.19076e-06
-3.54511e-08
-1.20316e-06
-5.47686e-08
-1.24059e-06
-8.13801e-08
-1.31226e-06
-1.05176e-06
2.85229e-07
2.33192e-07
1.51504e-07
7.44897e-08
-5.88597e-10
-7.56823e-08
-1.526e-07
-2.34144e-07
-2.86285e-07
-1.82494e-08
-1.63864e-08
3.46358e-08
-1.64048e-09
-1.66099e-08
1.50751e-08
-1.67155e-08
3.17899e-08
-1.67148e-08
4.83896e-08
-1.65997e-08
6.47658e-08
-1.63762e-08
8.08148e-08
-1.6049e-08
9.64371e-08
-1.56224e-08
1.11538e-07
-1.51007e-08
-1.44793e-08
1.26017e-07
-7.28806e-09
-2.97524e-08
2.06539e-08
6.31324e-09
-3.02112e-08
2.00414e-08
-3.04437e-08
3.37855e-08
-3.0459e-08
4.74487e-08
-3.02631e-08
6.09351e-08
-2.98628e-08
7.41506e-08
-2.92648e-08
8.7003e-08
-2.84752e-08
9.94017e-08
-2.74997e-08
-2.63411e-08
1.11263e-07
-1.5427e-10
-4.10282e-08
1.14301e-08
1.13237e-08
-4.16889e-08
2.29148e-08
-4.20348e-08
3.45296e-08
-4.20738e-08
4.60817e-08
-4.18152e-08
5.74866e-08
-4.12678e-08
6.86616e-08
-4.04398e-08
7.95257e-08
-3.93394e-08
9.00003e-08
-3.79744e-08
-3.63535e-08
1.00013e-07
5.17209e-09
-5.06964e-08
4.49617e-09
1.50108e-08
-5.15277e-08
2.49432e-08
-5.19672e-08
3.48939e-08
-5.20245e-08
4.47888e-08
-5.17102e-08
5.45551e-08
-5.1034e-08
6.41208e-08
-5.00056e-08
7.34155e-08
-4.86342e-08
8.23704e-08
-4.69293e-08
-4.49019e-08
9.09186e-08
9.31287e-09
-5.90449e-08
-9.64269e-10
1.7799e-08
-6.00139e-08
2.63587e-08
-6.05268e-08
3.49287e-08
-6.05946e-08
4.34467e-08
-6.02282e-08
5.18506e-08
-5.94379e-08
6.00785e-08
-5.82335e-08
6.80688e-08
-5.66246e-08
7.57602e-08
-5.46208e-08
-5.22336e-08
8.30918e-08
1.25031e-08
-6.62763e-08
-5.27179e-09
1.98398e-08
-6.73506e-08
2.72303e-08
-6.79174e-08
3.46235e-08
-6.79878e-08
4.19683e-08
-6.75729e-08
4.92129e-08
-6.66826e-08
5.63051e-08
-6.53258e-08
6.31914e-08
-6.35109e-08
6.98172e-08
-6.12466e-08
-5.85429e-08
7.61264e-08
1.48863e-08
-7.2535e-08
-8.62766e-09
2.12213e-08
-7.36857e-08
2.75931e-08
-7.42892e-08
3.39622e-08
-7.43569e-08
4.02882e-08
-7.3899e-08
4.65298e-08
-7.29243e-08
5.2644e-08
-7.144e-08
5.85855e-08
-6.94524e-08
6.43063e-08
-6.69674e-08
-6.39914e-08
6.97549e-08
1.65629e-08
-7.79244e-08
-1.11736e-08
2.20041e-08
-7.91268e-08
2.74687e-08
-7.97539e-08
3.29282e-08
-7.98163e-08
3.83527e-08
-7.93235e-08
4.3711e-08
-7.82826e-08
4.89695e-08
-7.66985e-08
5.40917e-08
-7.45745e-08
5.90367e-08
-7.19123e-08
-6.87134e-08
6.37587e-08
1.76061e-08
-8.25228e-08
-1.30076e-08
2.22351e-08
-8.3756e-08
2.68769e-08
-8.43958e-08
3.15127e-08
-8.44522e-08
3.6123e-08
-8.39339e-08
4.06864e-08
-8.2846e-08
4.51792e-08
-8.11912e-08
4.95743e-08
-7.89695e-08
5.38399e-08
-7.61779e-08
-7.28115e-08
5.79381e-08
1.80819e-08
-8.63979e-08
-1.42068e-08
2.19663e-08
-8.76406e-08
2.5852e-08
-8.82815e-08
2.97298e-08
-8.83301e-08
3.35895e-08
-8.77936e-08
3.74192e-08
-8.66757e-08
4.12051e-08
-8.49771e-08
4.49303e-08
-8.26946e-08
4.85738e-08
-7.98213e-08
-7.63464e-08
5.21087e-08
1.80856e-08
-8.96081e-08
-1.48755e-08
2.12824e-08
-9.08374e-08
2.44669e-08
-9.1466e-08
2.76382e-08
-9.15014e-08
3.0794e-08
-9.09494e-08
3.39302e-08
-8.98119e-08
3.70413e-08
-8.80881e-08
4.01197e-08
-8.5773e-08
4.31553e-08
-8.2857e-08
-7.93251e-08
4.6134e-08
1.77592e-08
-9.21967e-08
-1.51707e-08
2.03155e-08
-9.33937e-08
2.28469e-08
-9.39974e-08
2.53579e-08
-9.40125e-08
2.78506e-08
-9.34421e-08
3.03253e-08
-9.22867e-08
3.27811e-08
-9.05438e-08
3.52159e-08
-8.82077e-08
3.76267e-08
-8.52677e-08
-8.17076e-08
4.00094e-08
1.72716e-08
-9.41938e-08
-1.52744e-08
1.92312e-08
-9.53532e-08
2.11613e-08
-9.59275e-08
2.30669e-08
-9.5918e-08
2.49501e-08
-9.53253e-08
2.68112e-08
-9.41478e-08
2.86492e-08
-9.23818e-08
3.04625e-08
-9.0021e-08
3.22497e-08
-8.70548e-08
-8.34683e-08
3.40104e-08
1.67376e-08
-9.56594e-08
-1.5272e-08
1.81715e-08
-9.6787e-08
1.95793e-08
-9.73354e-08
2.09639e-08
-9.73026e-08
2.23255e-08
-9.66869e-08
2.36623e-08
-9.54846e-08
2.49716e-08
-9.3691e-08
2.625e-08
-9.12992e-08
2.74952e-08
-8.82999e-08
-8.46809e-08
2.87079e-08
1.62579e-08
-9.66833e-08
-1.5234e-08
1.72646e-08
-9.77937e-08
1.82565e-08
-9.83273e-08
1.92337e-08
-9.82798e-08
2.01944e-08
-9.76475e-08
2.11355e-08
-9.64257e-08
2.20534e-08
-9.46089e-08
2.29447e-08
-9.21904e-08
2.38075e-08
-8.91627e-08
-8.55174e-08
2.4644e-08
1.59125e-08
-9.73833e-08
-1.52125e-08
1.66134e-08
-9.84946e-08
1.73148e-08
-9.90285e-08
1.80148e-08
-9.89798e-08
1.87115e-08
-9.83441e-08
1.94025e-08
-9.71167e-08
2.0086e-08
-9.52924e-08
2.07617e-08
-9.2866e-08
2.14316e-08
-8.98326e-08
-8.61886e-08
2.21029e-08
1.57863e-08
-9.78891e-08
-1.52805e-08
1.63098e-08
-9.9018e-08
1.6848e-08
-9.95667e-08
1.73989e-08
-9.95307e-08
1.79613e-08
-9.89065e-08
1.85351e-08
-9.76905e-08
1.91222e-08
-9.58795e-08
1.97267e-08
-9.34705e-08
2.03562e-08
-9.0462e-08
-8.68553e-08
2.10229e-08
1.59748e-08
-9.83311e-08
-1.55328e-08
1.64437e-08
-9.94867e-08
1.69359e-08
-1.00059e-07
1.74497e-08
-1.00044e-07
1.79856e-08
-9.94424e-08
1.85462e-08
-9.82512e-08
1.91369e-08
-9.64702e-08
1.97663e-08
-9.40999e-08
2.04464e-08
-9.11421e-08
-8.76028e-08
2.11939e-08
1.65959e-08
-9.88273e-08
-1.60997e-08
1.71173e-08
-1.00008e-07
1.76605e-08
-1.00602e-07
1.82251e-08
-1.00609e-07
1.88126e-08
-1.0003e-07
1.94271e-08
-9.88657e-08
2.00749e-08
-9.7118e-08
2.07647e-08
-9.47896e-08
2.15073e-08
-9.18847e-08
-8.84107e-08
2.23154e-08
1.77948e-08
-9.94724e-08
-1.71495e-08
1.84525e-08
-1.00666e-07
1.91216e-08
-1.01271e-07
1.9803e-08
-1.01291e-07
2.04998e-08
-1.00727e-07
2.12165e-08
-9.95825e-08
2.19598e-08
-9.78613e-08
2.27378e-08
-9.55677e-08
2.35601e-08
-9.2707e-08
-8.92875e-08
2.44369e-08
1.97337e-08
-1.00327e-07
-1.88794e-08
2.05821e-08
-1.01514e-07
2.14261e-08
-1.02115e-07
2.22685e-08
-1.02133e-07
2.31133e-08
-1.01572e-07
2.39653e-08
-1.00435e-07
2.48307e-08
-9.87268e-08
2.57164e-08
-9.64534e-08
2.66298e-08
-9.36204e-08
-9.02357e-08
2.75779e-08
2.25605e-08
-1.01413e-07
-2.14737e-08
2.36241e-08
-1.02577e-07
2.46677e-08
-1.03159e-07
2.56954e-08
-1.03161e-07
2.67116e-08
-1.02588e-07
2.77215e-08
-1.01445e-07
2.87312e-08
-9.97364e-08
2.97473e-08
-9.74695e-08
3.07769e-08
-9.465e-08
-9.1286e-08
3.18272e-08
2.63828e-08
-1.02726e-07
-2.50699e-08
2.76612e-08
-1.03856e-07
2.8908e-08
-1.04406e-07
3.01267e-08
-1.04379e-07
3.13213e-08
-1.03782e-07
3.24966e-08
-1.0262e-07
3.36582e-08
-1.00898e-07
3.48123e-08
-9.86236e-08
3.59661e-08
-9.58039e-08
-9.24476e-08
3.71275e-08
3.12389e-08
-1.04254e-07
-2.97108e-08
3.27238e-08
-1.05341e-07
3.41674e-08
-1.05849e-07
3.55722e-08
-1.05784e-07
3.69412e-08
-1.05151e-07
3.82778e-08
-1.03956e-07
3.95865e-08
-1.02207e-07
4.08723e-08
-9.99095e-08
4.21413e-08
-9.70729e-08
-9.3707e-08
4.34007e-08
3.71401e-08
-1.05982e-07
-3.54123e-08
3.88165e-08
-1.07017e-07
4.04432e-08
-1.07476e-07
4.20216e-08
-1.07362e-07
4.35531e-08
-1.06683e-07
4.50398e-08
-1.05443e-07
4.6484e-08
-1.03651e-07
4.78889e-08
-1.01314e-07
4.92583e-08
-9.84424e-08
-9.50461e-08
5.05974e-08
4.40906e-08
-1.07879e-07
-4.2194e-08
4.59315e-08
-1.08858e-07
4.77178e-08
-1.09262e-07
4.94493e-08
-1.09094e-07
5.11257e-08
-1.08359e-07
5.27466e-08
-1.07064e-07
5.43116e-08
-1.05216e-07
5.58212e-08
-1.02824e-07
5.72764e-08
-9.98976e-08
-9.64491e-08
5.86794e-08
5.20668e-08
-1.099e-07
-5.0046e-08
5.40352e-08
-1.10826e-07
5.59504e-08
-1.11177e-07
5.781e-08
-1.10953e-07
5.96103e-08
-1.10159e-07
6.13475e-08
-1.08801e-07
6.30175e-08
-1.06886e-07
6.46172e-08
-1.04424e-07
6.61442e-08
-1.01425e-07
-9.79022e-08
6.75973e-08
6.1005e-08
-1.11993e-07
-5.89121e-08
6.30601e-08
-1.12882e-07
6.5073e-08
-1.1319e-07
6.70362e-08
-1.12917e-07
6.89408e-08
-1.12064e-07
7.07778e-08
-1.10638e-07
7.25384e-08
-1.08647e-07
7.42149e-08
-1.061e-07
7.58011e-08
-1.03011e-07
-9.93935e-08
7.72924e-08
7.07879e-08
-1.14113e-07
-6.86673e-08
7.28994e-08
-1.14993e-07
7.49889e-08
-1.1528e-07
7.70407e-08
-1.14969e-07
7.90378e-08
-1.14061e-07
8.09638e-08
-1.12564e-07
8.28038e-08
-1.10487e-07
8.45454e-08
-1.07842e-07
8.61782e-08
-1.04643e-07
-1.0091e-07
8.76947e-08
8.12606e-08
-1.16242e-07
-7.91315e-08
8.34228e-08
-1.17155e-07
8.55903e-08
-1.17447e-07
8.77334e-08
-1.17112e-07
8.98239e-08
-1.16152e-07
9.18361e-08
-1.14576e-07
9.37482e-08
-1.12399e-07
9.55426e-08
-1.09636e-07
9.72058e-08
-1.06307e-07
-1.02433e-07
9.87285e-08
9.22667e-08
-1.18407e-07
-9.01024e-08
9.45146e-08
-1.19403e-07
9.67932e-08
-1.19726e-07
9.90532e-08
-1.19372e-07
1.01252e-07
-1.1835e-07
1.03353e-07
-1.16678e-07
1.05329e-07
-1.14375e-07
1.07159e-07
-1.11465e-07
1.08826e-07
-1.07974e-07
-1.03929e-07
1.10323e-07
1.03718e-07
-1.20703e-07
-1.01422e-07
1.06139e-07
-1.21824e-07
1.08594e-07
-1.22182e-07
1.11013e-07
-1.21791e-07
1.13338e-07
-1.20675e-07
1.15526e-07
-1.18865e-07
1.17545e-07
-1.16394e-07
1.19376e-07
-1.13295e-07
1.21003e-07
-1.09602e-07
-1.05347e-07
1.22421e-07
1.15718e-07
-1.2331e-07
-1.13111e-07
1.18438e-07
-1.24543e-07
1.21145e-07
-1.24889e-07
1.23752e-07
-1.24397e-07
1.26195e-07
-1.23119e-07
1.28435e-07
-1.21105e-07
1.30443e-07
-1.18403e-07
1.32206e-07
-1.15058e-07
1.33716e-07
-1.11112e-07
-1.06603e-07
1.34972e-07
1.28737e-07
-1.26426e-07
-1.25621e-07
1.3184e-07
-1.27646e-07
1.34801e-07
-1.2785e-07
1.37542e-07
-1.27138e-07
1.40018e-07
-1.25594e-07
1.42202e-07
-1.23289e-07
1.44084e-07
-1.20285e-07
1.4566e-07
-1.16634e-07
1.46932e-07
-1.12384e-07
-1.07579e-07
1.47908e-07
1.43767e-07
-1.29966e-07
-1.40226e-07
1.47066e-07
-1.30945e-07
1.50053e-07
-1.30837e-07
1.52694e-07
-1.29779e-07
1.54976e-07
-1.27876e-07
1.56896e-07
-1.25209e-07
1.58458e-07
-1.21846e-07
1.5967e-07
-1.17846e-07
1.60542e-07
-1.13256e-07
-1.08125e-07
1.61089e-07
1.61589e-07
-1.33261e-07
-1.58295e-07
1.64503e-07
-1.33859e-07
1.67031e-07
-1.33366e-07
1.69174e-07
-1.31922e-07
1.70934e-07
-1.29636e-07
1.72317e-07
-1.26592e-07
1.7333e-07
-1.2286e-07
1.73982e-07
-1.18498e-07
1.74283e-07
-1.13558e-07
-1.08088e-07
1.74247e-07
1.80347e-07
-1.36067e-07
-1.77541e-07
1.82647e-07
-1.36159e-07
1.84511e-07
-1.3523e-07
1.85974e-07
-1.33384e-07
1.87051e-07
-1.30714e-07
1.87754e-07
-1.27295e-07
1.88088e-07
-1.23194e-07
1.8806e-07
-1.18469e-07
1.87676e-07
-1.13174e-07
-1.0736e-07
1.86947e-07
1.97959e-07
-1.38399e-07
-1.95628e-07
1.99715e-07
-1.37914e-07
2.00988e-07
-1.36503e-07
2.01829e-07
-1.34226e-07
2.02265e-07
-1.31149e-07
2.02306e-07
-1.27337e-07
2.01961e-07
-1.22848e-07
2.01234e-07
-1.17742e-07
2.00132e-07
-1.12072e-07
-1.05893e-07
1.98666e-07
2.12787e-07
-1.40491e-07
-2.10694e-07
2.14265e-07
-1.39392e-07
2.15204e-07
-1.37442e-07
2.15649e-07
-1.34671e-07
2.15624e-07
-1.31125e-07
2.15145e-07
-1.26857e-07
2.14219e-07
-1.21923e-07
2.12857e-07
-1.1638e-07
2.1107e-07
-1.10285e-07
-1.03695e-07
2.08872e-07
2.24047e-07
-1.42677e-07
-2.2186e-07
2.25571e-07
-1.40917e-07
2.26474e-07
-1.38345e-07
2.26784e-07
-1.34981e-07
2.2652e-07
-1.30861e-07
2.25696e-07
-1.26033e-07
2.24325e-07
-1.20552e-07
2.22423e-07
-1.14478e-07
2.20009e-07
-1.07871e-07
-1.00795e-07
2.17108e-07
2.31653e-07
-1.45232e-07
-2.29098e-07
2.33478e-07
-1.42742e-07
2.34583e-07
-1.3945e-07
2.34974e-07
-1.35372e-07
2.34658e-07
-1.30545e-07
2.33645e-07
-1.2502e-07
2.31948e-07
-1.18855e-07
2.29589e-07
-1.12119e-07
2.26599e-07
-1.0488e-07
-9.72105e-08
2.23015e-07
2.35671e-07
-1.48369e-07
-2.32534e-07
2.37998e-07
-1.4507e-07
2.39494e-07
-1.40946e-07
2.40141e-07
-1.36019e-07
2.39926e-07
-1.3033e-07
2.38846e-07
-1.23939e-07
2.3691e-07
-1.16919e-07
2.34145e-07
-1.09354e-07
2.30595e-07
-1.0133e-07
-9.29309e-08
2.26315e-07
2.36213e-07
-1.52218e-07
-2.32365e-07
2.39193e-07
-1.48049e-07
2.41239e-07
-1.42992e-07
2.42294e-07
-1.37074e-07
2.4231e-07
-1.30346e-07
2.41257e-07
-1.22887e-07
2.39133e-07
-1.14795e-07
2.35967e-07
-1.06188e-07
2.31821e-07
-9.71839e-08
-8.78917e-08
2.26782e-07
2.33122e-07
-1.5695e-07
-2.2839e-07
2.36946e-07
-1.51872e-07
2.39743e-07
-1.4579e-07
2.41398e-07
-1.38729e-07
2.41804e-07
-1.30752e-07
2.40878e-07
-1.21961e-07
2.38589e-07
-1.12506e-07
2.34969e-07
-1.02569e-07
2.30119e-07
-9.23339e-08
-8.19524e-08
2.2418e-07
2.26063e-07
-1.62783e-07
-2.2023e-07
2.30992e-07
-1.56802e-07
2.34833e-07
-1.49631e-07
2.3738e-07
-1.41276e-07
2.38419e-07
-1.3179e-07
2.37759e-07
-1.21301e-07
2.35294e-07
-1.10041e-07
2.31068e-07
-9.83433e-08
2.25276e-07
-8.65413e-08
-7.48497e-08
2.18173e-07
2.14469e-07
-1.69978e-07
-2.07273e-07
2.20859e-07
-1.63193e-07
2.26179e-07
-1.54951e-07
2.30092e-07
-1.45189e-07
2.32185e-07
-1.33884e-07
2.32013e-07
-1.21129e-07
2.2928e-07
-1.07307e-07
2.24083e-07
-9.31467e-08
2.16868e-07
-7.93264e-08
-6.61181e-08
2.08136e-07
1.97534e-07
-1.78782e-07
-1.8873e-07
2.05788e-07
-1.71448e-07
2.13168e-07
-1.62331e-07
2.19182e-07
-1.51202e-07
2.23092e-07
-1.37794e-07
2.23889e-07
-1.21926e-07
2.20659e-07
-1.04077e-07
2.13551e-07
-8.60393e-08
2.03925e-07
-6.97002e-08
-5.50255e-08
1.92833e-07
1.74325e-07
-1.89287e-07
-1.6382e-07
1.84764e-07
-1.81887e-07
1.94888e-07
-1.72455e-07
2.04199e-07
-1.60513e-07
2.1171e-07
-1.45304e-07
2.15504e-07
-1.2572e-07
2.12296e-07
-1.00869e-07
1.99862e-07
-7.36061e-08
1.84391e-07
-5.42291e-08
-3.98237e-08
1.6919e-07
1.44596e-07
-2.01421e-07
-1.32462e-07
1.57446e-07
-1.94736e-07
1.71193e-07
-1.86202e-07
1.85989e-07
-1.75309e-07
2.01549e-07
-1.60864e-07
2.1594e-07
-1.40111e-07
2.23989e-07
-1.08918e-07
1.96641e-07
-4.62583e-08
1.6784e-07
-2.54279e-08
-1.23506e-08
1.40367e-07
1.08644e-07
-2.14681e-07
-9.53847e-08
1.23271e-07
-2.09363e-07
1.39803e-07
-2.02734e-07
1.59135e-07
-1.94641e-07
1.83335e-07
-1.85064e-07
2.16962e-07
-1.73739e-07
2.64643e-07
-1.56599e-07
3.04389e-07
-8.60041e-08
2.27579e-07
5.13821e-08
6.99593e-08
1.45269e-07
6.8941e-08
-2.28685e-07
-5.49369e-08
8.46379e-08
-2.2506e-07
1.02588e-07
-2.20684e-07
1.23896e-07
-2.1595e-07
1.50854e-07
-2.12022e-07
1.87726e-07
-2.10611e-07
2.42992e-07
-2.11865e-07
3.62494e-07
-2.05506e-07
5.02503e-07
-8.86273e-08
6.50101e-08
5.07454e-07
2.62283e-08
-2.42659e-07
-1.22541e-08
4.155e-08
-2.40382e-07
5.84713e-08
-2.37605e-07
7.72148e-08
-2.34693e-07
9.73682e-08
-2.32176e-07
1.17349e-07
-2.30591e-07
1.34773e-07
-2.2929e-07
1.55288e-07
-2.2602e-07
2.83343e-07
-2.16682e-07
-1.37454e-07
4.85806e-07
-1.6957e-08
-2.5653e-07
3.08276e-08
-2.22913e-09
-2.5511e-07
1.32777e-08
-2.53112e-07
2.93131e-08
-2.50729e-07
4.53149e-08
-2.48177e-07
6.02881e-08
-2.45565e-07
7.37243e-08
-2.42726e-07
8.68087e-08
-2.39105e-07
1.0381e-07
-2.33684e-07
-2.22667e-07
1.89023e-07
-5.96497e-08
-2.70542e-07
7.36618e-08
-4.50888e-08
-2.69671e-07
-3.01698e-08
-2.68031e-07
-1.51839e-08
-2.65715e-07
-5.52533e-10
-2.62809e-07
1.32334e-08
-2.59351e-07
2.57993e-08
-2.55292e-07
3.71894e-08
-2.50495e-07
4.81134e-08
-2.44608e-07
-2.36617e-07
6.20636e-08
-1.01118e-07
-2.85191e-07
1.15768e-07
-8.6033e-08
-2.84756e-07
-7.07307e-08
-2.83333e-07
-5.5484e-08
-2.80961e-07
-4.06172e-08
-2.77676e-07
-2.64767e-08
-2.73491e-07
-1.33738e-08
-2.68395e-07
-1.52141e-09
-2.62347e-07
9.14603e-09
-2.55275e-07
-2.46987e-07
1.95159e-08
-1.41617e-07
-3.01e-07
1.57426e-07
-1.25349e-07
-3.01024e-07
-1.08864e-07
-2.99817e-07
-9.24443e-08
-2.97381e-07
-7.64044e-08
-2.93715e-07
-6.10853e-08
-2.8881e-07
-4.68349e-08
-2.82645e-07
-3.39863e-08
-2.75196e-07
-2.28298e-08
-2.66432e-07
-2.56319e-07
-1.3498e-08
-1.82107e-07
-3.1844e-07
1.99547e-07
-1.64025e-07
-3.19107e-07
-1.45551e-07
-3.18291e-07
-1.26963e-07
-3.15969e-07
-1.08567e-07
-3.12111e-07
-9.06895e-08
-3.06688e-07
-7.36741e-08
-2.99661e-07
-5.78753e-08
-2.90994e-07
-4.36373e-08
-2.8067e-07
-2.68707e-07
-3.12491e-08
-2.24518e-07
-3.37672e-07
2.43751e-07
-2.04336e-07
-3.39289e-07
-1.83456e-07
-3.39171e-07
-1.6215e-07
-3.37275e-07
-1.40708e-07
-3.33554e-07
-1.19442e-07
-3.27953e-07
-9.86969e-08
-3.20406e-07
-7.88575e-08
-3.10834e-07
-6.03715e-08
-2.99156e-07
-2.85318e-07
-4.37607e-08
-2.70897e-07
-3.5842e-07
2.91645e-07
-2.48831e-07
-3.61355e-07
-2.25696e-07
-3.62306e-07
-2.0175e-07
-3.61221e-07
-1.77258e-07
-3.58046e-07
-1.52501e-07
-3.5271e-07
-1.27792e-07
-3.45115e-07
-1.03508e-07
-3.35118e-07
-8.01538e-08
-3.2251e-07
-3.06966e-07
-5.85062e-08
-3.2234e-07
-3.79963e-07
3.43882e-07
-2.99126e-07
-3.84569e-07
-2.74498e-07
-3.86933e-07
-2.4871e-07
-3.8701e-07
-2.21995e-07
-3.8476e-07
-1.94577e-07
-3.80129e-07
-1.66664e-07
-3.73027e-07
-1.38479e-07
-3.63303e-07
-1.10318e-07
-3.50671e-07
-3.3455e-07
-8.27335e-08
-3.77705e-07
-4.01358e-07
3.99101e-07
-3.54359e-07
-4.07916e-07
-3.29372e-07
-4.11921e-07
-3.0304e-07
-4.13342e-07
-2.75626e-07
-4.12174e-07
-2.47341e-07
-4.08414e-07
-2.18312e-07
-4.02056e-07
-1.88558e-07
-3.93057e-07
-1.57925e-07
-3.81305e-07
-3.66465e-07
-1.2601e-07
-4.32673e-07
-4.21929e-07
4.53243e-07
-4.09882e-07
-4.30706e-07
-3.85277e-07
-4.36526e-07
-3.59262e-07
-4.39357e-07
-3.32218e-07
-4.39218e-07
-3.04466e-07
-4.36166e-07
-2.76224e-07
-4.30299e-07
-2.47536e-07
-4.21744e-07
-2.18139e-07
-4.10702e-07
-3.97537e-07
-1.87068e-07
-4.80332e-07
-4.41689e-07
5.00092e-07
-4.57874e-07
-4.53164e-07
-4.33206e-07
-4.61194e-07
-4.06824e-07
-4.65739e-07
-3.79203e-07
-4.6684e-07
-3.5076e-07
-4.64609e-07
-3.21811e-07
-4.59247e-07
-2.92504e-07
-4.51052e-07
-2.62732e-07
-4.40473e-07
-4.28263e-07
-2.32006e-07
-5.13868e-07
-4.6114e-07
5.33319e-07
-4.90913e-07
-4.7612e-07
-4.6501e-07
-4.87097e-07
-4.36719e-07
-4.9403e-07
-4.06581e-07
-4.96977e-07
-3.7507e-07
-4.96121e-07
-3.42558e-07
-4.91758e-07
-3.09297e-07
-4.84313e-07
-2.75406e-07
-4.74365e-07
-4.62699e-07
-2.40971e-07
-5.28698e-07
-4.80769e-07
5.48326e-07
-5.04533e-07
-5.00284e-07
-4.765e-07
-5.1513e-07
-4.45307e-07
-5.25223e-07
-4.1166e-07
-5.30624e-07
-3.76198e-07
-5.31584e-07
-3.39475e-07
-5.28481e-07
-3.01975e-07
-5.21814e-07
-2.6416e-07
-5.1218e-07
-5.00259e-07
-2.266e-07
-5.22204e-07
-5.01101e-07
5.42536e-07
-4.96346e-07
-5.26143e-07
-4.65672e-07
-5.45804e-07
-4.3114e-07
-5.59754e-07
-3.93725e-07
-5.68039e-07
-3.54319e-07
-5.7099e-07
-3.13709e-07
-5.69091e-07
-2.72606e-07
-5.62916e-07
-2.31698e-07
-5.53088e-07
-5.40242e-07
-1.91716e-07
-4.91906e-07
-5.22743e-07
5.13548e-07
-4.64235e-07
-5.53814e-07
-4.30905e-07
-5.79134e-07
-3.93177e-07
-5.97483e-07
-3.52357e-07
-6.08859e-07
-3.09577e-07
-6.1377e-07
-2.65775e-07
-6.12893e-07
-2.21773e-07
-6.06918e-07
-1.78339e-07
-5.96522e-07
-5.82354e-07
-1.36227e-07
-4.33618e-07
-5.47279e-07
4.58154e-07
-4.04635e-07
-5.82797e-07
-3.69617e-07
-6.14152e-07
-3.29908e-07
-6.37191e-07
-2.87173e-07
-6.51594e-07
-2.4263e-07
-6.58313e-07
-1.97211e-07
-6.58312e-07
-1.51717e-07
-6.52412e-07
-1.06905e-07
-6.41334e-07
-6.25744e-07
-6.35144e-08
-3.47436e-07
-5.80664e-07
3.80822e-07
-3.15368e-07
-6.14865e-07
-2.7998e-07
-6.4954e-07
-2.40802e-07
-6.7637e-07
-1.98962e-07
-6.93433e-07
-1.55444e-07
-7.0183e-07
-1.10953e-07
-7.02803e-07
-6.61598e-08
-6.97205e-07
-2.1787e-08
-6.85707e-07
-6.68931e-07
2.13999e-08
-2.37719e-07
-6.16844e-07
2.73899e-07
-2.01279e-07
-6.51304e-07
-1.6652e-07
-6.84299e-07
-1.30845e-07
-7.12045e-07
-9.33763e-08
-7.30902e-07
-5.40028e-08
-7.41204e-07
-1.3037e-08
-7.43769e-07
2.89306e-08
-7.39173e-07
7.11447e-08
-7.27921e-07
-7.10544e-07
1.12758e-07
-9.15905e-08
-6.20763e-07
9.55096e-08
-7.26166e-08
-6.70279e-07
-4.53482e-08
-7.11567e-07
-1.59356e-08
-7.41457e-07
1.55384e-08
-7.62376e-07
4.97378e-08
-7.75403e-07
8.64383e-08
-7.80469e-07
1.24966e-07
-7.777e-07
1.64438e-07
-7.67393e-07
-7.49992e-07
2.03886e-07
2.65542e-08
-6.08328e-07
-3.89896e-08
3.55175e-08
-6.79242e-07
5.71499e-08
-7.332e-07
8.25442e-08
-7.66852e-07
1.11063e-07
-7.90895e-07
1.42805e-07
-8.07146e-07
1.77313e-07
-8.14977e-07
2.13777e-07
-8.14165e-07
2.5126e-07
-8.04876e-07
-7.87526e-07
2.88795e-07
9.63329e-08
-5.96303e-07
-1.08358e-07
1.09896e-07
-6.92806e-07
1.31931e-07
-7.55235e-07
1.57883e-07
-7.92804e-07
1.87637e-07
-8.20649e-07
2.20365e-07
-8.39873e-07
2.55192e-07
-8.49805e-07
2.91241e-07
-8.50214e-07
3.27659e-07
-8.41293e-07
-8.23503e-07
3.63635e-07
1.31684e-07
-5.93914e-07
-1.34073e-07
1.53552e-07
-7.14675e-07
1.81605e-07
-7.83287e-07
2.13046e-07
-8.24245e-07
2.47311e-07
-8.54913e-07
2.83174e-07
-8.75736e-07
3.19674e-07
-8.86305e-07
3.56074e-07
-8.86614e-07
3.9176e-07
-8.76979e-07
-8.57921e-07
4.26178e-07
1.35738e-07
-6.24706e-07
-1.04946e-07
1.77213e-07
-7.56149e-07
2.16136e-07
-8.2221e-07
2.5547e-07
-8.6358e-07
2.94821e-07
-8.94265e-07
3.33585e-07
-9.145e-07
3.71329e-07
-9.24048e-07
4.07707e-07
-9.22992e-07
4.42389e-07
-9.11661e-07
-8.90546e-07
4.75014e-07
1.61978e-07
-6.72187e-07
-1.14498e-07
2.12114e-07
-8.06284e-07
2.53509e-07
-8.63606e-07
2.93875e-07
-9.03945e-07
3.33493e-07
-9.33883e-07
3.72072e-07
-9.5308e-07
4.09306e-07
-9.61282e-07
4.44884e-07
-9.5857e-07
4.78457e-07
-9.45234e-07
-9.21695e-07
5.09605e-07
1.95726e-07
-7.4987e-07
-1.18043e-07
2.37891e-07
-8.48449e-07
2.76089e-07
-9.01804e-07
3.14688e-07
-9.42544e-07
3.53391e-07
-9.72586e-07
3.91615e-07
-9.91303e-07
4.28826e-07
-9.98493e-07
4.64577e-07
-9.94322e-07
4.98454e-07
-9.7911e-07
-9.53244e-07
5.30003e-07
1.89007e-07
-7.91565e-07
-1.47312e-07
2.27684e-07
-8.87127e-07
2.66889e-07
-9.41009e-07
3.07415e-07
-9.8307e-07
3.48233e-07
-1.0134e-06
3.88471e-07
-1.03154e-06
4.27596e-07
-1.03762e-06
4.65282e-07
-1.03201e-06
5.01306e-07
-1.01513e-06
-9.87392e-07
5.35454e-07
1.3444e-07
-8.57571e-07
-6.84346e-08
1.8391e-07
-9.36597e-07
2.31551e-07
-9.8865e-07
2.78075e-07
-1.02959e-06
3.23155e-07
-1.05848e-06
3.66558e-07
-1.07494e-06
4.08219e-07
-1.07928e-06
4.48197e-07
-1.07199e-06
4.86652e-07
-1.05359e-06
-1.0245e-06
5.23762e-07
8.79326e-08
-9.21404e-07
-2.40991e-08
1.4232e-07
-9.90984e-07
1.93557e-07
-1.03989e-06
2.42527e-07
-1.07856e-06
2.89283e-07
-1.10524e-06
3.33815e-07
-1.11948e-06
3.7622e-07
-1.12168e-06
4.1675e-07
-1.11252e-06
4.5582e-07
-1.09266e-06
-1.06254e-06
4.9386e-07
6.74403e-08
-9.75395e-07
-1.34496e-08
1.1671e-07
-1.04025e-06
1.6403e-07
-1.08721e-06
2.10027e-07
-1.12456e-06
2.54455e-07
-1.14967e-06
2.96949e-07
-1.16197e-06
3.37365e-07
-1.1621e-06
3.7588e-07
-1.15103e-06
4.12943e-07
-1.12972e-06
-1.09867e-06
4.4907e-07
6.90138e-08
-1.01196e-06
-3.2453e-08
1.05956e-07
-1.0772e-06
1.44154e-07
-1.1254e-06
1.83317e-07
-1.16372e-06
2.22347e-07
-1.1887e-06
2.60215e-07
-1.19984e-06
2.96379e-07
-1.19826e-06
3.30872e-07
-1.18552e-06
3.64156e-07
-1.16301e-06
-1.13143e-06
3.96921e-07
7.14503e-08
-1.03426e-06
-4.91474e-08
9.78709e-08
-1.10362e-06
1.27633e-07
-1.15517e-06
1.59806e-07
-1.1959e-06
1.92746e-07
-1.22164e-06
2.24981e-07
-1.23208e-06
2.55756e-07
-1.22904e-06
2.85084e-07
-1.21485e-06
3.13561e-07
-1.19148e-06
-1.16009e-06
3.42222e-07
7.25715e-08
-1.04771e-06
-5.91198e-08
9.1133e-08
-1.12218e-06
1.13735e-07
-1.17777e-06
1.39416e-07
-1.22158e-06
1.6633e-07
-1.24855e-06
1.92768e-07
-1.25851e-06
2.17955e-07
-1.25422e-06
2.41967e-07
-1.23887e-06
2.65432e-07
-1.21495e-06
-1.18439e-06
2.89731e-07
7.158e-08
-1.05626e-06
-6.30344e-08
8.46608e-08
-1.13526e-06
1.015e-07
-1.19461e-06
1.21511e-07
-1.24159e-06
1.42876e-07
-1.26991e-06
1.63802e-07
-1.27944e-06
1.83742e-07
-1.27416e-06
2.03059e-07
-1.25818e-06
2.22321e-07
-1.23421e-06
-1.20401e-06
2.41932e-07
6.85961e-08
-1.06259e-06
-6.22668e-08
7.81482e-08
-1.14481e-06
9.05092e-08
-1.20697e-06
1.05674e-07
-1.25675e-06
1.21983e-07
-1.28622e-06
1.37601e-07
-1.29506e-06
1.52356e-07
-1.28892e-06
1.66974e-07
-1.2728e-06
1.82074e-07
-1.24931e-06
-1.21884e-06
1.96908e-07
6.38963e-08
-1.06838e-06
-5.80971e-08
7.12115e-08
-1.15213e-06
8.03154e-08
-1.21607e-06
9.16107e-08
-1.26805e-06
1.03618e-07
-1.29823e-06
1.14532e-07
-1.30597e-06
1.24674e-07
-1.29906e-06
1.35183e-07
-1.28331e-06
1.47023e-07
-1.26115e-06
-1.23115e-06
1.59339e-07
5.61679e-08
-1.07461e-06
-4.99455e-08
6.2665e-08
-1.15862e-06
7.00436e-08
-1.22345e-06
7.86319e-08
-1.27664e-06
8.71199e-08
-1.30672e-06
9.40492e-08
-1.3129e-06
1.00299e-07
-1.30531e-06
1.07311e-07
-1.29032e-06
1.1621e-07
-1.27005e-06
-1.24184e-06
1.26893e-07
4.59327e-08
-1.08172e-06
-3.88196e-08
5.27438e-08
-1.16544e-06
5.97331e-08
-1.23044e-06
6.65656e-08
-1.28347e-06
7.19591e-08
-1.31211e-06
7.54738e-08
-1.31641e-06
7.83929e-08
-1.30823e-06
8.21297e-08
-1.29406e-06
8.78898e-08
-1.27581e-06
-1.25049e-06
9.65426e-08
3.47413e-08
-1.0898e-06
-2.66597e-08
4.24883e-08
-1.17318e-06
4.9976e-08
-1.23793e-06
5.56964e-08
-1.28919e-06
5.81076e-08
-1.31452e-06
5.88525e-08
-1.31716e-06
5.93007e-08
-1.30868e-06
6.03569e-08
-1.29511e-06
6.31339e-08
-1.27858e-06
-1.25664e-06
6.92841e-08
2.38982e-08
-1.09887e-06
-1.48329e-08
3.30086e-08
-1.18229e-06
4.13946e-08
-1.24631e-06
4.6217e-08
-1.29401e-06
4.55464e-08
-1.31385e-06
4.40215e-08
-1.31563e-06
4.29032e-08
-1.30756e-06
4.18591e-08
-1.29407e-06
4.15453e-08
-1.27827e-06
-1.25843e-06
4.33312e-08
1.52668e-08
-1.10867e-06
-5.46424e-09
2.58652e-08
-1.19289e-06
3.48624e-08
-1.25531e-06
3.8431e-08
-1.29758e-06
3.47655e-08
-1.31019e-06
3.11617e-08
-1.31203e-06
2.93549e-08
-1.30575e-06
2.69247e-08
-1.29164e-06
2.39398e-08
-1.27529e-06
-1.2558e-06
2.13132e-08
1.12026e-08
-1.12054e-06
6.69926e-10
2.32131e-08
-1.2049e-06
3.17401e-08
-1.26384e-06
3.30874e-08
-1.29893e-06
2.68185e-08
-1.30392e-06
2.08201e-08
-1.30603e-06
1.87102e-08
-1.30364e-06
1.55021e-08
-1.28843e-06
1.03219e-08
-1.27011e-06
-1.25009e-06
4.61014e-09
1.71359e-08
-1.13313e-06
-4.54792e-09
2.69672e-08
-1.21473e-06
3.29781e-08
-1.26985e-06
3.08151e-08
-1.29677e-06
2.21245e-08
-1.29523e-06
1.3153e-08
-1.29706e-06
1.00624e-08
-1.30055e-06
6.91683e-09
-1.28529e-06
-7.00676e-10
-1.26249e-06
-1.24216e-06
-8.62578e-09
2.79924e-08
-1.15815e-06
-2.97087e-09
3.43913e-08
-1.22113e-06
3.68193e-08
-1.27228e-06
2.98286e-08
-1.28978e-06
1.85212e-08
-1.28392e-06
6.99125e-09
-1.28553e-06
1.51915e-09
-1.29508e-06
-2.85191e-10
-1.28348e-06
-1.05209e-08
-1.25225e-06
-1.22991e-06
-2.27722e-08
4.51954e-08
-1.14956e-06
-5.37845e-08
3.71767e-08
-1.21311e-06
3.4981e-08
-1.27008e-06
2.42495e-08
-1.27904e-06
1.21502e-08
-1.27182e-06
1.54162e-10
-1.27354e-06
-8.39336e-09
-1.28653e-06
-6.65368e-09
-1.28522e-06
-1.80758e-08
-1.24083e-06
-1.20664e-06
-4.13523e-08
1.63717e-08
-1.15099e-06
-1.49415e-08
1.94766e-08
-1.21622e-06
2.39305e-08
-1.27453e-06
1.50972e-08
-1.27021e-06
5.02815e-09
-1.26175e-06
-5.65731e-09
-1.26285e-06
-1.72494e-08
-1.27494e-06
-1.34317e-08
-1.28904e-06
-1.99106e-08
-1.23435e-06
-1.1673e-06
-5.92403e-08
7.49166e-09
-1.12626e-06
-3.22215e-08
1.67176e-08
-1.22544e-06
2.16003e-08
-1.27942e-06
1.12946e-08
-1.25991e-06
1.02757e-09
-1.25149e-06
-9.87267e-09
-1.25195e-06
-2.3263e-08
-1.26155e-06
-2.07271e-08
-1.29157e-06
-1.32664e-08
-1.24181e-06
-1.11216e-06