/*--------------------------------*- C++ -*----------------------------------*\
  =========                 |
  \\      /  F ield         | OpenFOAM: The Open Source CFD Toolbox
   \\    /   O peration     | Website:  https://openfoam.org
    \\  /    A nd           | Version:  8
     \\/     M anipulation  |
\*---------------------------------------------------------------------------*/
FoamFile
{
    version     2.0;
    format      ascii;
    class       volScalarField;
    location    "6.7";
    object      p_rgh;
}
// * * * * * * * * * * * * * * * * * * * * * * * * * * * * * * * * * * * * * //

dimensions      [1 -1 -2 0 0 0 0];

internalField   nonuniform List<scalar> 
9150
(
1963.74
1962.73
1962.08
1961.62
1961.39
1961.39
1961.64
1962.1
1962.74
1963.74
1963.3
1962.79
1962.36
1962.03
1961.85
1961.88
1962.05
1962.36
1962.79
1963.3
1963.03
1962.75
1962.49
1962.28
1962.16
1962.16
1962.28
1962.5
1962.75
1963.03
1962.91
1962.74
1962.57
1962.41
1962.33
1962.33
1962.41
1962.57
1962.74
1962.91
1962.91
1962.73
1962.6
1962.47
1962.41
1962.41
1962.47
1962.59
1962.73
1962.91
1951.81
1951.11
1951.46
1951.84
1952.03
1952.03
1951.84
1951.47
1951.1
1951.79
1956
1955.28
1955.15
1955.1
1955.19
1955.18
1955.07
1955.12
1955.26
1955.97
1959.13
1958.37
1958.08
1957.71
1957.65
1957.65
1957.72
1958.08
1958.39
1959.15
1961.87
1960.71
1960.24
1959.62
1959.44
1959.46
1959.64
1960.27
1960.74
1961.9
1964.39
1962.36
1961.59
1960.92
1960.64
1960.63
1960.9
1961.59
1962.36
1964.38
1947.47
1945.76
1943.62
1942.5
1942.02
1942.13
1942.75
1943.84
1945.81
1947.44
1946.56
1946.21
1945.21
1944.79
1944.28
1944.25
1944.72
1945.15
1946.19
1946.54
1945.89
1946.06
1945.01
1945.38
1944.94
1944.94
1945.46
1945.05
1946.09
1945.9
1942.69
1945.6
1944.65
1946.14
1946.03
1946.03
1946.16
1944.66
1945.62
1942.7
1937.12
1946.35
1946.95
1948.23
1948.66
1948.66
1948.23
1946.95
1946.35
1937.11
1288.08
1289.14
1290.19
1290.88
1291.74
1299.16
1298.05
1301.22
1301.67
1302.1
1287.92
1288.99
1290.14
1291.33
1291.74
1291.85
1293.35
1294.03
1298.66
1300
1287.83
1288.88
1289.77
1290.72
1288.72
1287.17
1288.89
1290.05
1290.8
1297.34
1285.64
1286.58
1287.52
1288.82
1290.65
1288.73
1286.26
1287.8
1289.3
1296.7
1282.44
1283.18
1283.91
1285.72
1287.78
1289.66
1289.65
1289.79
1292.35
1295.14
1278.18
1271.08
1274.27
1281.59
1284.03
1286.54
1288.83
1290.75
1292.41
1293.85
1257.98
1260.02
1267.93
1280.29
1282.98
1285.42
1287.69
1289.9
1291.6
1292.96
1255.69
1263.53
1280.18
1282.33
1283.5
1285
1286.77
1288.37
1289.84
1291.16
1268.19
1277.16
1279.78
1281.01
1282.35
1283.67
1285.18
1286.82
1288.52
1290.18
1278.65
1280.06
1281
1281.7
1282.3
1282.71
1284.07
1286.01
1287.64
1289.33
1278.66
1279.92
1280.76
1281.67
1282.52
1283.43
1285.37
1287.02
1288.5
1289.9
1279.45
1281.04
1282.45
1283.75
1284.24
1285.83
1287.22
1289.08
1289.36
1284.07
1282.83
1285.88
1286.84
1287.42
1286.34
1267.09
1254.33
1251.73
1247.56
1245.83
1288.6
1289.8
1290.95
1292.1
1287.27
1246.73
1244.86
1245.87
1246.8
1247.91
1292.49
1293.6
1294.81
1296.07
1294.15
1281.7
1273.65
1270.34
1267.1
1267.47
1296.24
1297.29
1298.38
1299.53
1300.76
1302.12
1302.5
1302.77
1304.27
1306.78
1298.3
1299.69
1301
1301.51
1300.89
1302.08
1302.91
1304.01
1307.02
1307.91
1296.68
1297.29
1299.48
1298.8
1299.77
1300.73
1305.2
1307.26
1308.16
1308.95
1298.83
1299.4
1300.08
1300.84
1301.66
1304.38
1308.16
1308.89
1309.58
1310.22
1300.82
1301.36
1302.04
1302.8
1303.53
1305.92
1309.92
1310.45
1310.95
1311.44
1304.09
1303.66
1304.33
1307.19
1310.92
1310.15
1311.34
1312.16
1312.29
1312.61
1307.8
1310.2
1310.55
1310.99
1312.01
1312.46
1312.01
1312.34
1313.08
1313.23
1304.02
1308.54
1311.62
1312.28
1312.55
1310.64
1305.55
1303.68
1303.1
1301.91
1309.22
1311.3
1312.31
1313.6
1310.17
1302.97
1301.61
1301.67
1301.8
1301.85
1315.2
1315.11
1315.07
1315.04
1307.58
1303.99
1304.35
1313.65
1309.52
1309.15
1316.47
1316.53
1316.47
1316.38
1316.25
1316.1
1315.9
1315.74
1314.38
1308.54
1317.12
1317.42
1317.51
1317.08
1317.26
1317.01
1316.64
1316.15
1315.68
1314.75
1316.95
1317.13
1317.19
1316.6
1316.39
1316.56
1316.61
1316.2
1315.65
1315.18
1315.87
1315.89
1315.86
1315.85
1315.82
1314.05
1310.78
1310.58
1310.36
1310.08
1314.27
1314.28
1314.35
1314.47
1314.55
1314.56
1314.6
1314.64
1312.54
1312.95
1307.29
1311.23
1312.9
1313.28
1313.4
1311.96
1308.79
1312.1
1312.93
1312.14
1237.17
1255.79
1281.14
1301.55
1312.37
1300.65
1301.78
1308.97
1306
1301.55
1221.41
1221.61
1222.07
1237.06
1280.12
1302.53
1310.14
1295.99
1258.86
1259.19
1220.89
1221.23
1221.92
1223.54
1266.51
1307.4
1311.64
1311.77
1308.63
1309.53
1274.4
1298.57
1294.1
1297.82
1307.39
1303.04
1314.16
1316.47
1316.44
1316.73
1315.22
1315.76
1315.9
1315.81
1315.61
1315.33
1315.98
1317.13
1316.35
1309.33
1314.67
1314.87
1315
1315.12
1315.31
1315.25
1312.78
1320.12
1320.1
1258.63
1314.35
1314.01
1314.41
1315.44
1315.98
1315.51
1322.97
1323.9
1315.05
1306.34
1313.76
1311.26
1308.54
1306.23
1308.87
1312.25
1317.5
1321.3
1319.53
1320.01
1314.55
1310.38
1306.68
1225.38
1013.75
953.604
983.467
1145.19
1237.84
1231.08
1302.66
1114.37
925.118
928.782
936.799
945.569
949.823
1067.25
1022.24
942.76
959.765
916.651
919.534
922.671
925.78
1086.14
1334.64
1335.18
1313.94
1099.66
910.288
913.024
915.313
916.692
927.136
1240.85
1342.24
1343.38
1342.74
1342.23
908.702
911.625
914.64
917.732
918.322
925.028
1010.9
1300.94
1345.45
1346.28
907.364
909.509
912.533
915.153
915.825
918.354
951.944
1250.86
1350.34
1344.27
906.232
907.767
909.322
912.855
1214.62
1321.93
1324.59
1316.8
1302.17
1299.49
1193.35
1162.98
1235.78
1301.67
1320.04
1325.67
1324.13
1313.61
1310.56
1344.77
1336.27
1336.81
1328.16
1241.66
1230.59
1230.39
1299.9
1337.47
1337.82
1335.76
1326.86
1291.25
1214.21
1215.17
1214.31
1302.79
1319.47
1318.96
1317.61
1317.19
981.677
1021.7
1259.91
1291.57
1286.91
1282.69
1271.08
1198.54
1166.5
1248.12
958.471
951.736
1184.89
1293.27
1169.08
814.809
761.079
755.255
752.698
789.122
1082.46
849.112
778.058
773.894
770.047
765.501
760.678
756.248
752.644
751.006
1156.88
1095.07
795.695
789.639
1019.78
987.908
778.612
757.829
755.207
754.463
1183.39
1183.41
1174.05
1261.87
1268.69
1266.43
1262.11
1257.25
1124.6
1086.2
1225.47
1175.75
1153.31
1146.96
1156.73
1189.76
1169.74
1191.02
1247.14
1265.22
1330.23
1330.8
1326.97
1317.05
1199.23
612.321
504.802
541.506
852.783
865.702
1326.82
1323.16
1243.66
1199.33
1145.88
626.798
482.074
483.335
481.528
481.169
1333.33
1116.87
586.388
481.812
479.526
480.942
482.18
485.169
486.655
486.11
1267.86
611.107
483.766
483.654
483.98
485.383
487.198
488.524
491.581
490.074
1287.32
792.015
493.684
487.562
487.692
488.399
489.561
491.532
493.678
493.667
1331.43
1262.06
920.756
620.991
566.842
552.599
598.313
698.2
579.429
555.268
1342.52
1359.28
1373.3
1339.53
1313.91
1298.15
1307.14
1319.78
1260.7
1230.08
1345.31
1352.59
1403.14
1415.29
1415.43
1416.39
1418.13
1360.45
882.454
822.515
1274.24
1243.11
1283.07
1417.08
1419.32
1418.76
1418.28
1085.76
852.723
819.663
1247.69
1247.66
1299.09
1424.79
1424.95
1423.69
1420.74
1393.95
1302.76
1384.12
1307.4
1318.39
1429.83
1437.19
1435.4
1433.46
1431.3
1426.61
1417.41
1401.95
1439.34
1414.26
1444.12
1453.13
1444.43
1418.66
1443.28
1434.51
1416.46
1282.11
1460.81
1464.13
1470.24
1471.03
1423.38
1420.65
1453.53
1438.95
1265.72
696.239
1474.4
1478.55
1481.86
1449.82
1435.52
1449.97
1454.76
1330.2
676.718
634.621
1477.14
1480.92
1484.4
1402.79
1453.57
1444.92
1430.61
584.917
587.13
728.687
1474.45
1477.98
1458.11
1384.64
1378.65
1422.62
1001.18
304.125
657.889
1408.27
1471.17
1474.09
1458.2
1456.54
1262.36
1395.45
493.518
245.485
391.733
1045.72
1465.08
1468.02
1399.44
702.853
1268.63
1361.81
344.065
227.469
518.095
917.751
805.08
448.089
340.297
360.721
1324.77
1347.88
283.074
211.624
418.135
661.327
318.069
316.28
317.47
318.498
1332.82
1357.13
272.593
154.851
102.555
170.284
316.608
311.799
306.983
310.767
1345.44
1378.82
270.087
18.5076
3.07401
4.69093
466.68
516.916
358.56
321.107
1353.75
1408.68
276.644
14.7305
1.19789
1.2422
517.86
531.103
526.163
322.683
1418.92
1437.29
307.202
23.0281
0.890215
0.578736
10.3986
113.429
395.229
316.175
1458.56
1452
315.331
21.5539
0.57976
0.505077
0.932879
-0.113139
6.15867
310.97
1500.48
1460.41
300.323
0.398416
0.462757
0.459466
-0.146208
-0.163121
-0.115472
370.367
1531.93
1502.62
353.319
0.315104
1.99362
0.714434
-0.12207
-0.163503
-0.170888
414.417
1556.07
1537.85
402.711
0.23132
8.37876
0.435215
-0.0899618
-0.128459
-0.141139
468.09
1581.98
1575.9
462.347
0.268844
9.72783
0.435574
-0.0730224
-0.10108
-0.103396
504.543
1596.62
1612.7
516.864
0.295832
10.5785
1.7183
0.0752411
0.160704
-0.0995314
579.603
1633.48
1636.89
586.56
0.359329
10.7804
5.7381
0.820003
0.347855
-0.110591
648.76
1669.49
1651.24
628.571
0.306964
10.8702
7.70271
0.35489
0.111235
-0.101417
736.043
1691.52
1684.34
728.528
0.191748
10.8654
6.13067
-0.0885098
-0.0811741
-0.0781756
811.569
1705.86
1716.97
822.843
0.174668
5.78424
1.8773
-0.0640733
-0.0633203
-0.0650085
933.247
1732.89
1734.89
935.924
0.173313
0.154525
0.12938
-0.03918
-0.0431236
-0.0482433
1045.23
1759.09
1753.95
1040.62
0.128146
0.119031
0.101445
-0.0183455
-0.0237589
-0.0239051
1195.53
1777.18
1776.27
1194.56
0.0924786
0.0925077
0.0868089
-0.000970088
-0.0155359
-0.00688079
1345.38
1795.82
1797.64
1346.88
0.0782974
0.0729392
0.0723789
-0.00350391
-0.0144408
41.1074
1483.23
1816.33
1816.18
1483.48
39.8135
0.0617962
0.0609514
-0.00792622
-0.0177543
191.578
1628.55
1835.97
1834.63
1627.65
196.302
0.0528378
0.0531971
-0.011831
-0.017663
383.993
1747.51
1854.41
1855.02
1748.69
395.295
0.0446431
0.0465579
-0.00788376
-0.0111402
744.066
1844.6
1873.31
1873.65
1847.61
747.04
0.0400379
0.0404202
-0.0020557
0.000556074
1248.45
1891.84
1893.02
1892.95
1891.38
1187.48
0.0485532
0.0340631
-0.00968042
148.055
1680.43
1910.56
1911.56
1911.4
1910.07
1639.36
137.143
0.0300879
-0.0193893
1051.21
1923.26
1926.49
1926.65
1926.87
1927.11
1925.95
1084.92
0.0198459
591.705
1872.01
1939.45
1937.56
1936.69
1936.56
1937.25
1939.16
1869.02
589.939
1302.72
1303.24
1303.4
1303.15
1302.78
1302.19
1301.98
1302.32
1302.52
1302.78
1303.37
1303.86
1304.59
1304.83
1305.45
1305.75
1306.36
1306.38
1306.6
1306.73
1306.67
1306.67
1306.58
1306.54
1306.43
1306.46
1306.55
1306.39
1306.11
1305.77
1305.39
1305.56
1305.67
1305.82
1306
1306.09
1305.28
1306.68
1306.67
1307.35
1300.96
1301.97
1302.7
1302.54
1302.02
1301.18
1300.79
1301.56
1302.11
1302.29
1303.23
1303.99
1304.56
1304.94
1305.53
1306.1
1306.22
1306.37
1306.36
1306.77
1306.74
1306.7
1306.51
1306.54
1305.97
1305.9
1305.91
1305.75
1305.4
1305.27
1304.63
1305.23
1305.11
1305.2
1305.02
1306.1
1306.45
1306.53
1306.48
1306.58
1300.05
1300.82
1301.33
1301.17
1300.94
1299.49
1298.6
1299.27
1300.12
1300.77
1302.24
1303.85
1304.78
1305.19
1305.71
1306.12
1306.58
1306.38
1306.44
1306.56
1306.68
1306.69
1306.67
1306.27
1305.44
1304.55
1304.12
1304.65
1304.72
1304.69
1305.36
1306.38
1307.05
1307.28
1307.25
1306.83
1306.84
1306.77
1306.97
1306.97
1298.07
1299.2
1299.78
1299.56
1298.91
1298.01
1298.85
1300.71
1304.13
1300.85
1300.52
1302.32
1305.75
1306.43
1306.22
1306.52
1306.89
1307.05
1306.54
1306.6
1306.73
1306.74
1306.45
1305.91
1305
1301.12
1298.39
1301.85
1303.51
1303.53
1304.27
1304.85
1307.29
1307.51
1306.67
1305.79
1305.72
1305.85
1306.79
1307.21
1296.43
1297.7
1298.74
1299.65
1298.5
1299.07
1300.23
1304
1304.99
1302.43
1298.86
1298.2
1305.68
1307.03
1307.44
1306.89
1307.03
1307.26
1306.73
1306.57
1306.52
1307.01
1306.57
1306
1303.78
1295.41
1293.38
1291.65
1296.67
1302.32
1304.53
1303.66
1303.89
1306.18
1307.14
1304.96
1305.25
1305.34
1307.02
1307.58
1295.3
1296.73
1298.05
1299.35
1298.57
1299.27
1300.43
1303.93
1307.12
1303.83
1294.99
1295.54
1301.14
1307.08
1307.55
1307.49
1307.33
1307.71
1307.45
1306.67
1306.43
1307.18
1307.18
1306.86
1306.62
1296.93
1290.82
1289.75
1289.97
1297.94
1307.26
1304.88
1303.76
1304.06
1307.64
1307.96
1305.48
1307.48
1307.99
1307.95
1294.37
1295.83
1297.23
1298.53
1296.95
1298.42
1299.72
1303.61
1307.43
1301.49
1292.73
1293.65
1299.33
1307.59
1307.92
1308.17
1308.28
1308.24
1307.15
1306.87
1306.76
1307.63
1308.3
1308.34
1308.43
1303.15
1292.28
1292.31
1292.14
1293.39
1308.03
1310.23
1304.15
1303.7
1304.94
1307.71
1308.5
1308.31
1308.28
1308.17
1292.65
1294.49
1295.72
1294.39
1295.83
1297.36
1299.53
1305.22
1307.19
1300.47
1291
1291.09
1296.17
1308.42
1308.41
1308.6
1308.86
1308.86
1307.01
1307.18
1307.4
1309.15
1309.37
1309.57
1309.8
1301.62
1292.88
1292.99
1292.93
1300.87
1310.15
1310.66
1305.67
1304.36
1306.58
1308.7
1308.6
1308.18
1308.27
1306.7
1291.85
1292.6
1292.19
1293.6
1296
1299.66
1302.38
1303.29
1295.72
1294.68
1304.7
1298.15
1294.47
1297.36
1307.99
1308.89
1309.23
1309.37
1307.48
1307.67
1309.3
1309.93
1310.1
1310.24
1310.3
1304.74
1294.35
1298.07
1310.03
1312.29
1310.07
1306.06
1305.96
1307.78
1308.13
1308.71
1308.65
1308.67
1308.62
1300.76
1291.02
1292.19
1293.92
1295.98
1297.79
1298.84
1300.34
1288.53
1276.33
1291.09
1307.72
1298.08
1292.99
1292.87
1300.44
1309.37
1309.73
1310.07
1308.03
1308.02
1309.58
1310.57
1310.82
1311.03
1311.17
1308.28
1308.61
1311.34
1312.08
1311.97
1308.07
1306.63
1309.76
1310.22
1309.6
1309.25
1309.13
1309.1
1307.65
1298.78
1291.34
1293.01
1294.85
1296.73
1298.23
1289.82
1273.35
1265.7
1268.13
1299.19
1306.69
1294.51
1291.24
1291.43
1297.52
1310
1310.45
1310.15
1308.14
1308.31
1310.08
1311.21
1311.61
1311.99
1311.62
1312.11
1312.12
1311.92
1311.62
1309.82
1308.09
1310.1
1310.69
1308.62
1308.23
1309.74
1307.39
1308.56
1295.36
1296.12
1277.64
1272.99
1268.5
1264.98
1259.16
1256.96
1260.34
1263.65
1282.62
1308.91
1305.8
1288.46
1289.65
1290.17
1305.92
1310.77
1311.2
1308.24
1308.27
1308.86
1311.49
1311.86
1312.29
1312.6
1311.97
1312.33
1311.96
1311.3
1309.55
1302.92
1308.47
1309.18
1308.94
1307.12
1306.18
1299.41
1287.91
1291.42
1287.98
1302.93
1247.26
1249.11
1251.21
1253.51
1256.14
1258.72
1264.98
1285.23
1309.96
1310.48
1297
1289.83
1291.17
1306.48
1311.44
1311.27
1308.5
1308.29
1308.41
1311.35
1311.97
1312.23
1312.56
1312.5
1312.07
1311.53
1311.4
1310.91
1305.74
1295.52
1295.31
1301.38
1301.86
1297.26
1289.11
1286.99
1287.18
1287.48
1287.61
1312.19
1249.28
1250.9
1252.17
1255.08
1268.96
1289.86
1304.86
1310.99
1310.54
1308.91
1298.03
1298.28
1308.47
1311.4
1311.59
1310.62
1308.53
1308.56
1310.6
1311.89
1311.99
1312.2
1312.37
1309.65
1309.7
1309.95
1309.22
1308.89
1308.69
1297.38
1294.26
1294.53
1296.76
1293.17
1286.85
1286.98
1287.28
1289.49
1307.38
1313.48
1268.21
1270.77
1282.08
1298.13
1307.99
1310.73
1310.78
1310.78
1310.63
1308.86
1308.66
1310.98
1311.45
1311.56
1311.66
1311.64
1310.4
1310.79
1311.86
1311.79
1311.71
1311.68
1309.98
1308.19
1307.21
1308.07
1308.68
1306.89
1304.22
1307.42
1305.74
1305.92
1297.03
1303.02
1298.01
1303.59
1311.45
1310.52
1314.63
1314.86
1307.72
1308.52
1309.26
1309.43
1310.5
1310.96
1311.3
1311.42
1311.14
1311.11
1311.51
1311.53
1311.15
1311.61
1311.77
1311.83
1311.84
1311.77
1311.55
1311.16
1310.92
1310.95
1309.09
1307.7
1307.35
1308.92
1309.73
1307.05
1273.9
1287.92
1311.5
1312.63
1301.6
1303.41
1313.82
1314.95
1315.31
1315.52
1315.63
1315.79
1308.76
1309.49
1309.95
1310.23
1310.99
1311.57
1311.8
1311.93
1311.96
1311.99
1312.01
1309.56
1305.44
1307.4
1311.84
1311.78
1311.53
1311.02
1310.43
1309.87
1309.55
1309.34
1309.56
1308.11
1309.65
1311.75
1311.54
1288.31
1269.38
1269.84
1307.93
1314.45
1307.98
1304.4
1307.46
1316
1316.27
1316.45
1316.46
1316.24
1309.63
1309.74
1310.34
1311.37
1311.89
1312.22
1312.41
1312.6
1312.68
1312.71
1309.49
1305.27
1305.33
1305.18
1308.6
1311.81
1310.83
1309.44
1306.02
1306.63
1307.39
1308
1309.08
1310.88
1312.35
1313.52
1298.65
1265.95
1266.6
1268.73
1309.72
1315.59
1315.15
1306.1
1308.59
1317.28
1317.53
1317.64
1317.19
1317.25
1310.83
1310.76
1311.25
1312.3
1312.65
1312.94
1313.12
1313.34
1313.49
1313.59
1307.3
1305.79
1305.77
1305.65
1307.93
1312.26
1310.32
1307.19
1275.08
1280.82
1309.14
1308.94
1310.39
1312.34
1305.55
1284.5
1264.51
1265.3
1266.01
1288.67
1316.78
1317.49
1317.92
1309.72
1312.18
1318.52
1318.62
1318.69
1318.48
1318.19
1311.93
1312.36
1312.65
1313.05
1313.32
1313.61
1313.87
1314.13
1314.36
1314.56
1314.07
1306.57
1306.3
1306.24
1308.78
1314.87
1313.57
1298.71
1264.43
1265.39
1293.06
1282.27
1282.21
1268.4
1265.08
1265.14
1265.62
1265.83
1293.4
1315.98
1316.14
1316.14
1319.08
1318.69
1318.32
1319.42
1319.58
1319.65
1319.55
1319.11
1313
1313.38
1313.54
1313.66
1313.85
1313.97
1314.48
1314.84
1315.15
1315.39
1315.62
1315.39
1307.35
1307.1
1307.42
1315.87
1315.89
1312.06
1271.65
1267.8
1267.64
1276.17
1272.15
1272.89
1273.3
1272.43
1283.52
1306.83
1320.78
1318.8
1316.96
1316.84
1319.19
1320.4
1320.43
1320.46
1320.53
1320.59
1320.35
1320.02
1313.4
1313.68
1313.84
1308.84
1307.75
1313.5
1314.79
1315.16
1315.47
1315.84
1316.29
1312.11
1307.21
1307.46
1308.09
1316.84
1317.48
1317.65
1309.25
1281.41
1292.53
1311.8
1310.78
1314.36
1315.15
1316.41
1319.31
1321.09
1321.22
1320.56
1317.66
1319.14
1321.03
1321.09
1321.16
1321.28
1321.41
1321.5
1321.32
1320.91
1303.99
1303.97
1303.28
1303.66
1304
1304.29
1314.52
1315.65
1313.89
1310.12
1307.38
1307.51
1307.61
1307.87
1315.22
1317.79
1318.53
1319.31
1319.8
1318.39
1319.6
1319.86
1319.83
1319.87
1320.29
1320.5
1320.61
1321.23
1321.39
1321.45
1321.23
1321.5
1321.56
1321.65
1321.77
1321.93
1321.53
1321.92
1322.13
1321.67
1303.34
1313.33
1313.47
1312.68
1313.31
1313.33
1315.13
1315.46
1315.24
1313.48
1307.33
1307.53
1308.37
1317.04
1317.71
1318.17
1318.87
1319.48
1319.92
1320.12
1320.13
1320.29
1320.32
1320.42
1320.67
1320.18
1320.06
1320.29
1321.08
1321.7
1321.79
1321.87
1321.94
1322.07
1322.26
1321.88
1313.27
1318.14
1322.85
1322.94
1313.13
1313.25
1313.15
1309.69
1313.12
1313.48
1313.41
1313.46
1314.16
1316.19
1315.84
1316.12
1312.67
1311.77
1316.96
1317.85
1318.54
1319.08
1319.6
1319.97
1320.18
1320.38
1320.54
1320.72
1320.9
1320
1320.17
1320.39
1320.59
1321.15
1322.07
1322.2
1322.32
1322.52
1321.67
1313.03
1312.72
1312.97
1322.53
1323.78
1308.35
1308.2
1308.12
1308.14
1308.22
1308.37
1308.6
1311.56
1315.53
1315.79
1316.09
1315.77
1301.03
1278.92
1282.47
1309.25
1318.32
1318.94
1319.53
1319.97
1320.27
1320.48
1320.68
1320.83
1321.01
1321.17
1320.55
1320.38
1320.64
1320.87
1322.01
1322.54
1322.75
1318.07
1312.52
1312.55
1312.93
1313.26
1322.96
1324.58
1314.3
1314.24
1309.69
1309.83
1308.29
1307.81
1310.03
1313.93
1315.02
1315.45
1315.92
1316.25
1313.99
1277.98
1278.86
1278.77
1287.25
1316.75
1319.7
1320.01
1320.3
1320.5
1320.71
1320.84
1320.91
1321
1321.2
1320.91
1320.58
1320.91
1322.24
1322.85
1323.25
1316.96
1312.57
1313.01
1313.36
1317.07
1325.27
1325.18
1314.81
1314.55
1314.37
1314.15
1313.82
1313.7
1313.76
1313.95
1314.34
1315.02
1316.17
1317.29
1318.05
1312.12
1295.11
1278.82
1279.29
1279.4
1298.04
1319.99
1320.31
1320.5
1320.58
1320.64
1320.57
1320.56
1320.79
1321.2
1320.44
1321.31
1322.5
1322.98
1323.55
1323.08
1317.29
1313.64
1316.8
1325.72
1326.41
1325.83
1311.01
1314.28
1314.08
1313.72
1313.38
1312.97
1312.71
1312.55
1311.99
1311.97
1315.15
1316.26
1315.87
1318.96
1319.85
1314.46
1285.26
1279.64
1279.57
1295.79
1320.29
1320.36
1320.29
1320.2
1319.92
1319.69
1320.02
1320.7
1321.43
1322.15
1322.65
1323.09
1323.51
1324.29
1325.12
1324.5
1326.22
1327.07
1327.3
1326.73
1313.82
1313.53
1310.49
1305.92
1312.53
1313.22
1313.17
1313.15
1300.73
1270.67
1294.97
1303.74
1307.08
1317.07
1319.21
1319.66
1319.7
1304.7
1278.72
1287.02
1318.41
1320.07
1319.92
1319.55
1319.1
1318.93
1319.4
1320.44
1321.55
1322.51
1323.08
1323.39
1324.07
1325.04
1326.1
1326.95
1327.61
1328.12
1328.33
1328.28
1311.93
1311.99
1304.33
1305.47
1312.42
1314.53
1314.88
1282.27
1261.27
1261.97
1264.96
1301.05
1302.42
1296.49
1302.51
1318.2
1318.75
1318.83
1315.81
1318.04
1304.56
1290.83
1291.25
1274.67
1270.62
1288.66
1316.2
1321.16
1322.5
1323.56
1324.2
1324.61
1325.14
1325.99
1326.98
1327.85
1328.56
1329.15
1329.32
1329.36
1269.88
1256.93
1257.8
1258.24
1258.03
1265.02
1260.12
1260.31
1260.59
1260.69
1297.28
1314.47
1294.12
1294.12
1299.89
1315.91
1316.68
1317.33
1318.43
1319.43
1308.82
1270.34
1270.24
1270.31
1270.38
1270.31
1289.32
1322.98
1324.52
1325.36
1325.65
1326.08
1326.4
1327.07
1327.89
1328.58
1329.18
1329.78
1330.02
1330.06
1259.24
1259.66
1263.64
1260.86
1258.28
1257.95
1289.26
1310.67
1315.82
1315.46
1314.6
1311.83
1304.25
1294.66
1298.13
1308.4
1317
1318.15
1319.7
1320.79
1320.97
1305.85
1273.33
1271.25
1271.37
1271.38
1307.15
1325.72
1326.79
1327.38
1327.29
1327.42
1327.5
1327.91
1328.4
1328.92
1329.59
1330.09
1330.45
1320.41
1312.69
1314.43
1315.24
1314.93
1313.11
1312.19
1314.55
1315.86
1315.45
1315.02
1314.07
1303.66
1298.79
1272.3
1267.16
1317.8
1319.12
1320.53
1321.84
1322.75
1323.37
1324.47
1318.21
1296.3
1292.93
1312.75
1325.87
1327.54
1329.07
1328.8
1328.48
1328.22
1328.08
1328.15
1328.43
1328.9
1329.56
1330.31
1330.66
1314.31
1317.34
1317.67
1307.7
1297.77
1283.08
1296.65
1313.84
1314.91
1314.92
1314.54
1313.81
1299.71
1238.92
1233.29
1236.75
1314.04
1321.7
1322.84
1323.47
1323.83
1324.01
1324.16
1325.23
1324.78
1322.42
1320.93
1321.8
1324.51
1328.23
1328.98
1328.83
1328.2
1327.81
1327.67
1327.9
1328.53
1329.28
1329.39
1322.22
1313.59
1297.4
1286.28
1268.29
1266.81
1286.5
1315.87
1315.52
1315.48
1315.51
1312.64
1251.75
1231.19
1232.62
1234.7
1236.59
1238.13
1258.84
1290.24
1297.1
1308.03
1306.73
1292.96
1315.3
1302.85
1272.07
1229.13
1223.89
1305.76
1324.29
1328.42
1328.1
1327.31
1326.59
1326.02
1326.64
1327.92
1328.46
1328.47
1307.71
1322.6
1242.21
1255.45
1319.66
1317.96
1317.1
1317.26
1317.69
1317.92
1316.99
1257.24
1233.58
1234.55
1236.01
1237.85
1245.77
1307.55
1300.48
1266.19
1266.14
1265.89
1265.36
1264.47
1291.32
1258.16
1196.16
1196.27
1198
1246.92
1321.35
1328.11
1327.65
1326.43
1321.48
1266.5
1288.79
1327.38
1328.41
1328.05
1297.96
1321.49
1316.98
1321.4
1321.92
1320.6
1320.06
1319.67
1319.67
1320.15
1320.93
1294.53
1237.18
1261.48
1323.33
1316.52
1322.33
1326.81
1326.72
1318.04
1313.21
1314.3
1279.97
1264.69
1311.59
1285.55
1193.46
1194.12
1195.71
1195.63
1322.12
1329.63
1328.98
1327.75
1279.28
1220.76
1222.09
1311.96
1331.24
1280.31
1292.62
1320.42
1319.78
1320.69
1321.46
1321.52
1321.2
1320.64
1321.21
1322.74
1324.82
1324.65
1306.57
1310.94
1325.02
1326.09
1326.51
1325.99
1325.69
1326.18
1324.78
1323.11
1321.49
1318.48
1324.89
1318.02
1191.09
1192.16
1193.76
1194.19
1318.48
1332.22
1332.09
1331.32
1270.8
1220.17
1220.67
1225.03
1266.65
1222.35
1272.09
1324.6
1186.39
1179.04
1261.82
1310.59
1320.94
1309.39
1285.72
1288.15
1310.02
1289.72
1259.46
1267.51
1304.32
1304.46
1297.18
1285.2
1270.11
1258.68
1319.87
1322.54
1323.89
1324.8
1326.12
1318.98
1194.95
1190.97
1192.58
1193.11
1243.29
1313.03
1331.88
1335.08
1316.86
1222.7
1223.39
1223.74
1223.89
1224.3
1258.36
1314.1
945.069
946.405
947.036
948.922
949.575
948.423
955.47
1186.96
1216.18
1217.55
1236.18
1216.68
1190.93
1183.34
1181.21
1155.28
1035.83
1023.87
1173.93
1321.64
1328.7
1328.97
1329.31
1325.6
1218.4
1191.47
1193.07
1194.27
1195.09
1199.37
1245.26
1336.32
1341.44
1309.67
1233.46
1226.65
1227.05
1234.95
1277.15
1284.35
952.65
1055.62
1246.49
1268.53
1178.65
1121.76
1154.46
1187.3
1217.37
1266.32
1308.22
1310.49
1277.49
1236.83
1273.58
1202.82
1036.55
1018.37
1018.78
1237.41
1333.78
1332.92
1332.88
1333.28
1249.57
1192.66
1194.06
1195.28
1195.89
1196.92
1197.24
1308.73
1345.32
1346.57
1329.33
1295.58
1253.31
1334.43
1304.16
1286.49
1341.93
1343.32
1343.26
1341.55
1338.33
1333.88
1329.15
1325.58
1323.38
1322.02
1321.66
1322.2
1322.27
1324.59
1326.53
1328.54
1331.27
1167.9
1024.08
1281.04
1331.15
1332.4
1333.99
1335.86
1308.16
1199.88
1194.78
1196.09
1196.96
1197.82
1198.35
1310.89
1348.43
1349.43
1349.89
1350.28
1346.25
1351.48
1312.38
1289.16
1344.44
1324.82
1312.14
1310.22
1322.85
1327.21
1320.11
1302.63
1264.17
1236.24
1250.2
1248.7
1268.44
1292.83
1319.98
1328.83
1286.04
1035.29
1014.84
1173.47
1333.9
1335.33
1336.63
1338.42
1340.9
1312.71
1225.13
1200.09
1199.2
1205.49
1255.12
1340.87
1351.82
1352.47
1353.04
1353.29
1353.46
1353.67
1342.54
1292.19
1304.13
1296.4
1292.05
1289.68
1313.78
1317.77
1308.73
1270.02
1179.28
1008.15
938.16
893.946
931.928
1149.79
1298.2
1329.87
1309.95
1153.53
1025.36
1304.01
1337.55
1338.59
1339.79
1341.59
1344.02
1346.73
1331.08
1307.8
1322.26
1328.9
1347.09
1354.31
1354.89
1355.48
1355.92
1356.19
1356.46
1356.68
1356.86
1298.32
1296.67
1313.95
1330.07
1321.41
1314.14
1309.76
1304.48
1286.55
1047.52
836.585
852.541
860.684
874.913
1215.37
1323.56
1329.44
1284.33
1111.1
1043.6
1317.43
1342.41
1343.27
1344.27
1344.67
1298.45
1275.5
1278.3
1293.58
1323.98
1347.78
1355.75
1357.64
1358.3
1358.75
1358.91
1358.85
1359.18
1359.39
1359.63
1349.19
1340.26
1333.96
1325.29
1313.2
1230.23
1104.69
1110.62
1228.51
1127.21
827.18
840.912
889.686
1285.9
1323.17
1325.65
1327.26
1327.07
1268.39
1146.22
1345.86
1346.91
1347.52
1308.06
1275.05
1276.69
1278.82
1280.95
1296.82
1338.58
1334.25
1357.16
1359.49
1361.41
1362.4
1362.08
1360.68
1361.8
1362.6
1363.4
1363.76
1332.31
1326.67
1318.38
1285.98
955.401
798.117
793.564
816.693
925.544
811.983
899.836
1278.61
1328.01
1329.84
1330.96
1330.65
1330.3
1324.23
1229.14
1271.69
1349.43
1351.52
1318.75
1276.94
1278.51
1285.11
1350.91
1350.26
1334.31
1116.3
1011.23
1119.27
1281.43
1321.62
1270.17
1240.58
1310.21
1366.76
1367.55
1368.2
1317.35
1314.87
1310.26
1254.41
892.184
794.385
795.086
798.246
804.322
809.418
862.782
1248.69
1303.08
1333.2
1335.53
1334.65
1332.81
1329.81
1134.66
1002.08
1267.14
1354.51
1357.16
1351.8
1339.5
1348.36
1355.39
1356.43
1228.79
1002.91
1005.97
1009.29
1013.86
1025.16
1044.54
1038.67
1035.99
1162.47
1274.98
1314.02
1297.65
1299.71
1300.19
1309.34
1275.51
917.444
799.962
803.325
809.163
813.125
815.358
816.434
819.926
1139.79
1313.47
1342.27
1340.44
1320.94
1063.01
997.477
993.408
994.255
1121.59
1333.46
1356.41
1357.6
1358.75
1360.51
1363.1
1359.86
1332.67
1322.5
1272.71
1226.24
1227.77
1183.51
1222.93
872.79
832.395
864.358
1122.46
1222.26
1295.02
1310.25
1321.86
1333.99
1301.8
959.879
833.902
819.701
814.795
819.161
824.378
826.241
846.187
1221.8
1306.23
1330.78
1314.83
1036.53
999.451
997.531
996.327
995.571
1004.15
1027.37
1051.93
1062.31
1018.57
1012.23
1129.74
1354.72
1379.37
1380.72
1378.79
1303.64
1323.71
1034.94
812.349
810.701
751.934
756.811
1043.18
1291.38
1321.02
1331.72
1342.41
1351.64
1360.57
1338.31
1056.48
914.745
852.176
829.896
836.449
840.216
873.117
1205.96
1291.17
1357.24
1348.57
1262.6
1110.81
1080.36
1034.2
1001.49
1001.62
1002.17
1002.91
1008.82
1037.15
1304.15
1382.29
1383.11
1383.87
1379.25
1381.5
1380.45
826.007
802.352
756.852
763.799
770.293
891.333
1307.26
1331.74
1342.8
1352.79
1361.82
1368.52
1373.97
1379.31
1382.48
1059.66
884.184
843.91
852.024
857.197
944.509
1369.27
1382.18
1379.37
1377.01
1375.31
1335.28
1260.31
1164.6
1103.19
1167.38
1297.53
1349.66
1361.79
1348.27
1382.05
1387.5
1387.81
1389.22
1388.88
1017.51
796.788
1072.22
954.621
900.165
941.1
1134.74
1303.1
1341.52
1356.85
1366.14
1373.35
1378.98
1383.41
1386.54
1388.74
1389.25
1198.7
897.658
860.343
893.952
1255.34
1377.66
1375.1
1372.52
1372.01
1376.27
1382.28
1387.08
1379.22
1343.66
1295.62
1295.03
1334.8
1113.07
954.505
1016.84
1008.73
985.075
1105.28
1047.03
794.393
1276.94
1287.43
1296.94
1301.95
1307.65
1270.34
1308.27
1362.64
1371.8
1378.81
1385.57
1391.45
1395.12
1395.94
1395.24
1393.47
1376.72
1180.76
1223.71
1379.21
1378.34
1376.4
1373.67
1367.19
1370.13
1387.76
1295.64
988.688
993.623
994.355
1023.69
1275.22
1115.91
809.962
801.486
798.51
796.565
795.052
804.799
798.642
841.971
907.431
1034.5
1197.58
1298.83
1326.58
1347.62
1369.03
1376.71
1381.59
1386.72
1392.08
1398.43
1402.88
1402.3
1394.19
1382.66
1377.52
1378.32
1379.34
1378.54
1331.29
1231.72
1034.4
947.367
949.105
952.96
1133.13
1368.61
1373.07
1375.38
1380.78
1385.63
1389.4
1235.29
859.307
800.811
803.245
807.545
809.478
481.427
481.825
483.078
530.3
932.478
1314.32
1348.56
1365.13
1372.47
1376.03
1379.76
1385.14
1390.52
1378.89
1195.96
1181.91
1260.06
1342.2
1367.64
1374.05
1377.2
1163.73
946.971
949.007
950.837
952.635
953.629
1245.57
1371.93
1374.41
1379.81
1386.27
1391.62
1279.84
1215.29
1306.35
1313.05
1271
1057.04
1000.57
485.689
485.789
486.166
486.495
592.804
1202.72
1342.73
1265.1
1134
1082.61
1127.93
1223.56
1303.75
1316.72
976.555
488.686
440.731
760.826
1223.84
1311.05
1358.4
1341.99
1162.56
990.079
947.28
951.79
959.244
1255.03
1377.9
1379.58
1384.52
1391.03
1389.27
1227.07
1216.49
1219.75
1296.51
1401.34
1424.16
1422.8
489.772
489.881
490.292
500.457
843.119
1106.7
871.566
595.646
426.125
426.853
459.526
569.462
533.993
442.317
429.672
426.632
427.611
424.663
427.539
663.697
946.729
1143.68
1218.16
1226.55
1165.1
1203.35
1253.57
1271.62
1382.55
1390.09
1378.01
1274.47
1227.48
1275.56
1302.11
1232.14
1240.12
1202.78
1304.59
1430.1
493.341
493.991
906.438
988.728
976.641
527.321
422.941
423.255
423.948
424.674
425.666
426.72
426.832
426.06
426.277
425.741
423.618
420.084
416.608
413.27
409.143
508.607
991.076
1146.92
1307.13
1367.38
1305.38
1265.81
1295.53
1402.03
1224.17
927.96
929.506
933.48
1117.09
1395.44
1430.11
1289.79
1244.57
1405.62
952.814
1040.64
1031.44
1009.71
666.401
438.563
429.076
423.929
422.472
421.917
421.937
431.336
659.536
709.968
502.854
422.374
420.138
415.777
410.379
405.583
402.484
405.33
601.696
665.861
783.763
1231.15
1423.43
1435.53
1442.81
1447.53
1098.68
933.64
935.081
936.269
937.835
1129.21
1439.3
1444.63
1447.57
1449.89
1142.73
1054.09
654.133
633.31
621.214
600.703
529.877
539.468
664.601
759.42
751.716
966.618
1261.25
1264.69
1266.88
1241.11
647.38
405.944
403.07
400.038
398.594
398.522
804.524
1026.73
799.207
829.272
1170.53
1451.05
1458.28
1462.43
1254.34
942.809
939.62
937.294
1055.42
1415.34
1440.53
1443.84
1448.4
1448.19
821.459
816.525
951.939
1113.56
1237.73
1219.27
1208.65
1227.63
1229.69
1232.55
1231.48
1230.35
1230.7
1232.09
1234.91
1237.77
1241.86
1245.35
701.355
392.328
392.905
566.134
1191.3
1269.02
1019.82
840.69
1050
1455.17
1476.06
1478.23
1475.07
1014.3
1133.18
1462.14
1454.22
1386.22
879.546
1013.46
1416.61
1261.34
927.067
1275.13
1281.88
1259.11
1243.44
1223.08
1195.27
1180.64
1174.94
945.456
1099.16
1193.09
1193.7
1195.32
1199.55
1203.78
1207.94
1213.48
1222.75
1005.32
924.43
1175.41
1250.72
1267.88
1168.26