/*--------------------------------*- C++ -*----------------------------------*\
  =========                 |
  \\      /  F ield         | OpenFOAM: The Open Source CFD Toolbox
   \\    /   O peration     | Website:  https://openfoam.org
    \\  /    A nd           | Version:  8
     \\/     M anipulation  |
\*---------------------------------------------------------------------------*/
FoamFile
{
    version     2.0;
    format      ascii;
    class       volVectorField;
    location    "6.7";
    object      U;
}
// * * * * * * * * * * * * * * * * * * * * * * * * * * * * * * * * * * * * * //

dimensions      [0 1 -1 0 0 0 0];

internalField   nonuniform List<vector> 
9150
(
(0.00484341 -0.0785287 0)
(0.0130915 -0.0974419 0)
(0.0109256 -0.104571 0)
(0.00894492 -0.107678 0)
(0.00173195 -0.109696 0)
(-0.00339304 -0.109318 0)
(-0.0088825 -0.107806 0)
(-0.0108664 -0.104532 0)
(-0.013103 -0.0974139 0)
(-0.00485877 -0.0785194 0)
(0.00584939 -0.092015 0)
(0.00851549 -0.100512 0)
(0.00743147 -0.102266 0)
(0.00443228 -0.104485 0)
(0.00244643 -0.105358 0)
(-0.0013304 -0.1057 0)
(-0.00422132 -0.104846 0)
(-0.00734964 -0.102294 0)
(-0.00852433 -0.100457 0)
(-0.00585082 -0.0919942 0)
(0.00170416 -0.09547 0)
(0.00454034 -0.0989834 0)
(0.00368462 -0.101108 0)
(0.00324278 -0.10178 0)
(0.000719948 -0.102547 0)
(-0.000937243 -0.102351 0)
(-0.00343299 -0.101684 0)
(-0.00375401 -0.101004 0)
(-0.00455082 -0.0989585 0)
(-0.001708 -0.0954588 0)
(0.0017158 -0.0984124 0)
(0.00244041 -0.10039 0)
(0.00217635 -0.100202 0)
(0.00127534 -0.10085 0)
(0.000530885 -0.100876 0)
(-0.000530256 -0.100872 0)
(-0.0012642 -0.100882 0)
(-0.00221198 -0.100228 0)
(-0.00245294 -0.100387 0)
(-0.00172037 -0.0984077 0)
(0.000172502 -0.0994844 0)
(0.000711423 -0.0995818 0)
(0.000465933 -0.100022 0)
(0.000675964 -0.0998738 0)
(0.000163528 -0.100106 0)
(-0.0001517 -0.100101 0)
(-0.000667907 -0.0998757 0)
(-0.000470595 -0.100019 0)
(-0.000713105 -0.0995806 0)
(-0.000173296 -0.0994843 0)
(0.07488 -0.194029 3.04771e-26)
(0.0492645 -0.184415 0)
(0.0300297 -0.175937 0)
(0.0155479 -0.174717 0)
(0.00437339 -0.175668 0)
(-0.0048527 -0.175713 0)
(-0.0155565 -0.175034 0)
(-0.0300074 -0.175836 0)
(-0.0493406 -0.184596 0)
(-0.0749581 -0.194279 -3.06765e-26)
(0.0584458 -0.146589 7.48997e-27)
(0.0485802 -0.146485 0)
(0.0287004 -0.156424 0)
(0.0209673 -0.156568 0)
(0.00499667 -0.155197 0)
(-0.00475601 -0.155471 0)
(-0.0208479 -0.156447 0)
(-0.028695 -0.156558 0)
(-0.0487996 -0.14676 0)
(-0.0585058 -0.146755 -7.71572e-27)
(0.0474811 -0.121371 3.49547e-27)
(0.0428715 -0.131171 0)
(0.0293624 -0.133192 0)
(0.0167817 -0.137727 0)
(0.00506214 -0.14009 0)
(-0.00707356 -0.140366 0)
(-0.0176718 -0.137639 0)
(-0.0295362 -0.133696 0)
(-0.0427923 -0.131308 0)
(-0.0474274 -0.121324 -3.5759e-27)
(0.0371101 -0.0993748 6.5391e-27)
(0.0395805 -0.110271 0)
(0.0232329 -0.120679 0)
(0.0183621 -0.12432 0)
(0.00607096 -0.125164 0)
(-0.00291539 -0.125559 0)
(-0.0165479 -0.125453 0)
(-0.0221295 -0.120249 0)
(-0.0390862 -0.110105 0)
(-0.0369286 -0.0992052 -6.58897e-27)
(0.0243054 -0.0817908 -1.69993e-26)
(0.0275924 -0.101396 -2.04113e-26)
(0.0195538 -0.10829 -5.0702e-27)
(0.0101341 -0.114697 -4.42127e-27)
(0.00430101 -0.117271 -2.5015e-28)
(-0.00478217 -0.116899 -1.85619e-28)
(-0.0112792 -0.113564 -4.52633e-27)
(-0.0202014 -0.108501 -5.14557e-27)
(-0.0278994 -0.101238 -2.04362e-26)
(-0.0242894 -0.0816614 -1.69895e-26)
(0.0193444 -0.146872 0)
(0.0139023 -0.205924 0)
(0.0234499 -0.216965 0)
(0.0127693 -0.223319 0)
(0.00927106 -0.226407 0)
(-0.00492624 -0.226856 0)
(-0.00880093 -0.223863 0)
(-0.0224205 -0.217723 0)
(-0.0136429 -0.205799 0)
(-0.0190788 -0.146583 0)
(0.0163505 -0.165997 0)
(0.00158028 -0.199693 0)
(0.0146648 -0.209937 0)
(0.00126834 -0.215077 0)
(0.00407552 -0.215517 0)
(-0.00646837 -0.215193 0)
(-0.00302329 -0.213621 0)
(-0.0154609 -0.209299 0)
(-0.00186401 -0.19946 0)
(-0.0165558 -0.166006 0)
(0.0142289 -0.172581 0)
(-0.00445643 -0.203972 0)
(0.0106404 -0.209087 0)
(-0.000716696 -0.209361 0)
(0.00320078 -0.210627 0)
(-0.00309875 -0.210626 0)
(0.000960012 -0.210265 0)
(-0.0104131 -0.20928 0)
(0.0044726 -0.203954 0)
(-0.014175 -0.172656 0)
(0.0188266 -0.19542 0)
(-0.00723435 -0.204752 0)
(0.0092433 -0.210866 0)
(-0.000287301 -0.206933 0)
(0.0011735 -0.206475 0)
(-0.000649824 -0.206536 0)
(0.000476921 -0.206572 0)
(-0.00929109 -0.21072 0)
(0.0072419 -0.204655 0)
(-0.0188535 -0.195397 0)
(0.036502 -0.216797 0)
(0.0103162 -0.203606 0)
(0.0157013 -0.202118 0)
(0.0118196 -0.196061 0)
(0.00178285 -0.192678 0)
(-0.00214599 -0.192259 0)
(-0.0121916 -0.194949 0)
(-0.0158837 -0.201939 0)
(-0.0104079 -0.203753 0)
(-0.0365915 -0.21694 0)
(0.234072 4.76133e-05 0)
(0.228769 -0.00456104 0)
(0.223554 -0.00592714 0)
(0.220226 -0.0023512 0)
(0.213385 0.0124768 0)
(0.187571 0.0371494 0)
(0.151339 0.023615 0)
(0.12221 0.00742276 0)
(0.109214 0.00496269 0)
(0.0942758 0.0182254 0)
(0.23592 0.0294639 0)
(0.226539 0.0230578 0)
(0.217055 0.0212803 0)
(0.205441 0.0241739 0)
(0.192172 0.0414411 0)
(0.174415 0.0844324 0)
(0.161937 0.0926644 0)
(0.143765 0.0779355 0)
(0.117918 0.0506125 0)
(0.10272 0.0392392 0)
(0.200239 0.0441785 0)
(0.186706 0.0391755 0)
(0.173971 0.0391857 0)
(0.164132 0.0507983 0)
(0.154001 0.0775741 0)
(0.150413 0.0968898 0)
(0.151548 0.0968953 0)
(0.158161 0.0912687 0)
(0.158219 0.0837255 0)
(0.148528 0.0644839 0)
(0.167301 0.0804956 0)
(0.153442 0.0713648 0)
(0.140735 0.0669731 0)
(0.131541 0.0700063 0)
(0.130867 0.0787573 0)
(0.134962 0.0870428 0)
(0.141596 0.0825634 0)
(0.155174 0.0754916 0)
(0.167402 0.0737164 0)
(0.170075 0.0739546 0)
(0.167838 0.105329 0)
(0.152756 0.094439 0)
(0.139005 0.0794611 0)
(0.132459 0.0679574 0)
(0.134928 0.0649077 0)
(0.144354 0.0616974 0)
(0.156306 0.0536638 0)
(0.164894 0.0506248 0)
(0.171419 0.0547508 0)
(0.177161 0.0680759 0)
(0.17494 0.128694 0)
(0.165663 0.128895 0)
(0.160577 0.104518 0)
(0.162684 0.0704888 0)
(0.16893 0.0515217 0)
(0.175959 0.0415983 0)
(0.181468 0.0384646 0)
(0.18464 0.0394471 0)
(0.18524 0.0453943 0)
(0.184331 0.0630134 0)
(0.192949 0.134032 0)
(0.202458 0.12997 0)
(0.22058 0.0938944 0)
(0.230055 0.0618755 0)
(0.230683 0.0463248 0)
(0.228 0.0417088 0)
(0.223049 0.043736 0)
(0.213081 0.0500509 0)
(0.201715 0.0589677 0)
(0.191578 0.0738659 0)
(0.223967 0.10565 0)
(0.2388 0.0863482 0)
(0.247699 0.0613259 0)
(0.247406 0.0475698 0)
(0.243073 0.045659 0)
(0.233927 0.0509035 0)
(0.222126 0.0610037 0)
(0.21004 0.0721891 0)
(0.196616 0.0814187 0)
(0.183412 0.0914269 0)
(0.208949 0.0665077 0)
(0.214094 0.0654199 0)
(0.21293 0.0651938 0)
(0.205138 0.0664779 0)
(0.194988 0.0717758 0)
(0.182614 0.0806421 0)
(0.170143 0.0901569 0)
(0.157348 0.102047 0)
(0.14498 0.115812 0)
(0.135066 0.128447 0)
(0.109581 0.089933 0)
(0.106048 0.086322 0)
(0.101735 0.0855527 0)
(0.0968409 0.0888117 0)
(0.0921808 0.0962739 0)
(0.0879663 0.10693 0)
(0.0856755 0.116808 0)
(0.0874892 0.122067 0)
(0.0905676 0.123982 0)
(0.0932176 0.124807 0)
(0.0163886 0.0746234 0)
(0.0211037 0.0784704 0)
(0.0240912 0.0842147 0)
(0.0290288 0.0884315 0)
(0.034534 0.0922106 0)
(0.0408383 0.0958064 0)
(0.0479179 0.0955264 0)
(0.0517006 0.0983508 0)
(0.052788 0.10743 0)
(0.0510586 0.11728 0)
(-0.0336773 0.0676432 0)
(-0.0282556 0.0710913 0)
(-0.0184927 0.0647688 0)
(-0.00731484 0.0653299 0)
(0.00355757 0.0648825 0)
(0.0100495 0.0796538 0)
(0.00742847 0.0987516 0)
(-0.000885724 0.113452 0)
(-0.00716109 0.117275 0)
(-0.00682645 0.129521 0)
(-0.0703548 0.0597258 0)
(-0.0629247 0.0473164 0)
(-0.0550122 0.0456336 0)
(-0.0483461 0.0472533 0)
(-0.0428239 0.0572444 0)
(-0.0391408 0.0922549 0)
(-0.0381569 0.114241 0)
(-0.0358264 0.120445 0)
(-0.0381973 0.121909 0)
(-0.038603 0.130086 0)
(-0.0880716 0.0393739 0)
(-0.0839258 0.0346909 0)
(-0.0791513 0.0353431 0)
(-0.0770901 0.0404218 0)
(-0.0753431 0.0534697 0)
(-0.071521 0.0808892 0)
(-0.0635095 0.100525 0)
(-0.0532094 0.109968 0)
(-0.0482115 0.118581 0)
(-0.0429122 0.122193 0)
(-0.0886547 0.0318548 0)
(-0.0837572 0.0306089 0)
(-0.080873 0.0322591 0)
(-0.0776528 0.0376108 0)
(-0.074124 0.0480963 0)
(-0.0686801 0.0627073 0)
(-0.062038 0.0808883 0)
(-0.0516954 0.0909371 0)
(-0.0449673 0.105139 0)
(-0.0311726 0.10037 0)
(-0.0682818 0.0183178 0)
(-0.0630109 0.0218942 0)
(-0.060267 0.0229065 0)
(-0.0574598 0.0269575 0)
(-0.0552709 0.0346916 0)
(-0.0499958 0.045639 0)
(-0.0444384 0.0614106 0)
(-0.0356956 0.0673825 0)
(-0.0266611 0.0761562 0)
(-0.0160132 0.0768386 0)
(-0.0432003 0.00213919 0)
(-0.0424281 0.0128863 0)
(-0.03976 0.0163548 0)
(-0.0387329 0.0253184 0)
(-0.0390562 0.0348805 0)
(-0.0385413 0.040804 0)
(-0.0353425 0.0505848 0)
(-0.0301275 0.0560631 0)
(-0.0241283 0.0620728 0)
(-0.0183643 0.0655155 0)
(-0.0418749 0.00421714 0)
(-0.041113 0.0144248 0)
(-0.0415092 0.0180608 0)
(-0.0427595 0.0260096 0)
(-0.0426344 0.0344334 0)
(-0.0420218 0.0403857 0)
(-0.040556 0.0466999 0)
(-0.037839 0.052125 0)
(-0.0351388 0.0556536 0)
(-0.0304028 0.0583487 0)
(-0.0535196 0.00161797 0)
(-0.0543574 0.0143561 0)
(-0.0553016 0.0212992 0)
(-0.0560196 0.0294653 0)
(-0.0555041 0.0374498 0)
(-0.0547217 0.0410595 0)
(-0.0528753 0.0427672 0)
(-0.0491237 0.0452128 0)
(-0.0451803 0.046102 0)
(-0.0396463 0.045665 0)
(-0.0725848 0.0110415 0)
(-0.0734301 0.0169937 0)
(-0.071684 0.0203629 0)
(-0.0686464 0.0244866 0)
(-0.0639519 0.0280051 0)
(-0.0571517 0.0298955 0)
(-0.0525308 0.0317704 0)
(-0.0475917 0.0335526 0)
(-0.0432239 0.0332871 0)
(-0.037244 0.0329868 0)
(-0.0883062 0.0154371 0)
(-0.0874618 0.0182713 0)
(-0.0823067 0.0187537 0)
(-0.0702867 0.0175826 0)
(-0.0560353 0.0189959 0)
(-0.0436874 0.0232309 0)
(-0.0346181 0.0276199 0)
(-0.0304535 0.0320129 0)
(-0.0242776 0.0286433 0)
(-0.0171496 0.0252006 0)
(-0.0781607 0.0100133 0)
(-0.0770217 0.000670457 0)
(-0.0680943 -0.0148204 0)
(-0.0509062 -0.0304093 0)
(-0.0355825 -0.0331663 0)
(-0.0227989 -0.0207768 0)
(-0.00901092 -0.00225799 0)
(-0.000686369 0.0123197 0)
(0.00305233 0.00830054 0)
(0.00781587 -0.00143492 0)
(-0.0378956 0.0116362 0)
(-0.0300185 -0.00278651 0)
(-0.0188482 -0.025007 0)
(-0.0117488 -0.0425087 0)
(-0.00996373 -0.0444399 0)
(-0.00872257 -0.0348492 0)
(-0.00499958 -0.0196531 0)
(-0.0020749 0.0070084 0)
(0.0010762 0.0122718 0)
(-0.00059134 0.00350387 0)
(-0.0116939 -0.0269669 0)
(-0.00131288 -0.0318272 0)
(0.00423308 -0.0405198 0)
(0.00270756 -0.0439759 0)
(-0.00351101 -0.0413237 0)
(-0.00585122 -0.0253275 0)
(-0.0140153 -0.0109235 0)
(-0.0149248 0.00100785 0)
(-0.0131312 0.00719851 0)
(-0.0146816 -0.0012 0)
(-0.0122757 -0.0404519 0)
(-0.0082276 -0.03883 0)
(-0.00772056 -0.0369291 0)
(-0.00940726 -0.0322211 0)
(-0.0131486 -0.0291574 0)
(-0.0148759 -0.0198414 0)
(-0.0165233 0.000931694 0)
(-0.021006 0.00810607 0)
(-0.0223906 0.0105094 0)
(-0.0260875 0.00674511 0)
(-0.0157889 -0.0463555 0)
(-0.0102147 -0.0386756 0)
(-0.00824967 -0.0345342 0)
(-0.00980159 -0.030632 0)
(-0.0137141 -0.0260453 0)
(-0.0194638 -0.016337 0)
(-0.0207482 0.003355 0)
(-0.0191651 0.0105016 0)
(-0.019246 0.0119203 0)
(-0.0193102 0.0114901 0)
(0.00219272 -0.0700698 0)
(0.012318 -0.0510931 0)
(0.018378 -0.0325554 0)
(0.0185432 -0.0206182 0)
(0.0143813 -0.0122937 0)
(0.00761565 -0.00657539 0)
(0.00393691 0.000375165 0)
(0.00328724 0.00827767 0)
(0.00343684 0.01224 0)
(0.0039516 0.0112089 0)
(0.0291872 -0.0908469 0)
(0.0320408 -0.0749255 0)
(0.0393192 -0.0499554 0)
(0.0426392 -0.0224985 0)
(0.0479 -0.00581824 0)
(0.0474847 0.00573777 0)
(0.0444908 0.0111428 0)
(0.0384151 0.0121296 0)
(0.03303 0.0113123 0)
(0.02859 0.00683574 0)
(0.0488886 -0.0858796 0)
(0.0453206 -0.0743822 0)
(0.0456662 -0.0576843 0)
(0.0492027 -0.0401988 0)
(0.0572077 -0.024882 0)
(0.0670271 -0.0025538 0)
(0.0734164 0.0161125 0)
(0.0781782 0.0242603 0)
(0.0824648 0.0288227 0)
(0.0821472 0.0314853 0)
(0.0529852 -0.0798108 0)
(0.0483824 -0.0694018 0)
(0.0461836 -0.054355 0)
(0.0462032 -0.0465484 0)
(0.0490073 -0.0409079 0)
(0.0562226 -0.0242546 0)
(0.0655494 -0.00719585 0)
(0.0721064 -0.000687989 0)
(0.0811955 0.00560293 0)
(0.0951761 0.0174949 0)
(0.0422521 -0.0693825 0)
(0.0375322 -0.0601447 0)
(0.0344401 -0.0505668 0)
(0.0355673 -0.0512092 0)
(0.0373988 -0.0492256 0)
(0.0419689 -0.0314856 0)
(0.0486777 -0.0172549 0)
(0.0548648 -0.0187723 0)
(0.06801 -0.0234309 0)
(0.0821653 -0.015895 0)
(0.00910459 -0.0641349 0)
(0.00986842 -0.0530941 0)
(0.00855041 -0.0455606 0)
(0.00516111 -0.0519362 0)
(0.000456538 -0.0509451 0)
(0.0043277 -0.0309572 0)
(0.00800139 -0.0420662 0)
(0.0194036 -0.0482554 0)
(0.0208557 -0.0450158 0)
(0.0256024 -0.00791546 0)
(-0.0315107 -0.07848 0)
(-0.0263774 -0.0585695 0)
(-0.0232699 -0.044174 0)
(-0.0272175 -0.0430826 0)
(-0.0287758 -0.0444082 0)
(-0.0238377 -0.045677 0)
(-0.0203487 -0.0503485 0)
(-0.0248833 -0.0395363 0)
(-0.0271455 -0.03314 0)
(-0.0234815 -0.0330728 0)
(-0.0462985 -0.0892387 0)
(-0.0412187 -0.0543427 0)
(-0.0400289 -0.0466951 0)
(-0.0323739 -0.0448593 0)
(-0.0240728 -0.0493573 0)
(-0.0200278 -0.0478864 0)
(-0.0204002 -0.040795 0)
(-0.0234754 -0.0368024 0)
(-0.0237094 -0.0370801 0)
(-0.0243977 -0.0412722 0)
(-0.0423487 -0.10211 0)
(-0.0331154 -0.0706642 0)
(-0.0249871 -0.0596958 0)
(-0.0116007 -0.0643992 0)
(-0.00100812 -0.0723801 0)
(0.0070426 -0.0576747 0)
(0.00841491 -0.0435742 0)
(0.00564518 -0.0369308 0)
(0.00762164 -0.0388714 0)
(0.00990743 -0.0429653 0)
(-0.0310004 -0.102635 0)
(-0.0295826 -0.0986811 0)
(-0.0139831 -0.0994073 0)
(0.00127666 -0.0999775 0)
(0.0109286 -0.0893248 0)
(0.0146409 -0.0668389 0)
(0.0154168 -0.040956 0)
(0.0118216 -0.039494 0)
(0.0180003 -0.0494648 0)
(0.0251861 -0.0612846 0)
(-0.0211662 -0.0872242 0)
(-0.0209436 -0.106076 0)
(-0.0159623 -0.116319 0)
(-0.0116489 -0.115725 0)
(-0.00895024 -0.103905 0)
(-0.01715 -0.0740055 0)
(-0.0240045 -0.0332861 0)
(-0.0433836 -0.0443668 0)
(-0.0581148 -0.0577772 0)
(-0.0947427 -0.0237195 0)
(-0.0219757 -0.0785521 0)
(-0.0179041 -0.108767 0)
(-0.0185586 -0.115368 0)
(-0.0292184 -0.0999053 0)
(-0.055133 -0.0611137 0)
(-0.100487 -0.00800276 0)
(-0.144698 0.0200796 0)
(-0.203994 0.0389018 0)
(-0.222368 0.0387015 0)
(-0.236316 0.000805979 0)
(-0.0229706 -0.0759157 0)
(-0.0181137 -0.113913 0)
(-0.0209645 -0.112842 0)
(-0.0430671 -0.0795033 0)
(-0.0950001 0.00487825 0)
(-0.163433 0.1265 0)
(-0.204107 0.146735 0)
(-0.262735 0.0680936 0)
(-0.240259 -0.00205564 0)
(-0.231394 -0.0140423 0)
(-0.0495152 -0.0803425 0)
(-0.0676103 -0.0926452 0)
(-0.116137 -0.0477122 0)
(-0.196974 0.0893346 0)
(-0.243236 0.189356 0)
(-0.257784 0.212518 0)
(-0.256482 0.197414 0)
(-0.239428 0.069131 0)
(-0.217776 -0.0166196 0)
(-0.206383 -0.0171284 0)
(-0.120873 -0.0562483 0)
(-0.163983 0.0140198 0)
(-0.24079 0.138708 0)
(-0.283788 0.167583 0)
(-0.294798 0.187936 0)
(-0.289581 0.191536 0)
(-0.258473 0.148841 0)
(-0.247984 0.0371767 0)
(-0.255539 -0.0414411 0)
(-0.252546 -0.0525666 0)
(-0.211873 0.0275947 0)
(-0.269753 0.148801 0)
(-0.284029 0.182643 0)
(-0.288189 0.184962 0)
(-0.286094 0.173807 0)
(-0.26703 0.125023 0)
(-0.238849 0.0581158 0)
(-0.219775 0.0334587 0)
(-0.223214 -0.023698 0)
(-0.225548 -0.096502 0)
(-0.282918 0.12807 0)
(-0.288705 0.170271 0)
(-0.285083 0.177772 0)
(-0.273584 0.171688 0)
(-0.253011 0.142457 0)
(-0.229146 0.0924369 0)
(-0.212934 0.0432203 0)
(-0.198888 0.011557 0)
(-0.185855 -0.0103426 0)
(-0.177058 -0.0641967 0)
(-0.322025 0.139878 0)
(-0.315354 0.160683 0)
(-0.309607 0.161861 0)
(-0.302247 0.148202 0)
(-0.298239 0.117463 0)
(-0.29026 0.0840454 0)
(-0.271215 0.0313827 0)
(-0.241617 -0.0339468 0)
(-0.205858 -0.0900596 0)
(-0.171255 -0.150461 0)
(-0.360867 0.126662 0)
(-0.350644 0.141463 0)
(-0.335729 0.141346 0)
(-0.323785 0.126104 0)
(-0.322297 0.092706 0)
(-0.315795 0.0139488 0)
(-0.27937 -0.0879756 0)
(-0.237785 -0.139282 0)
(-0.20734 -0.158837 0)
(-0.185154 -0.183423 0)
(-0.351124 0.112314 0)
(-0.328829 0.121049 0)
(-0.304489 0.119571 0)
(-0.280878 0.108467 0)
(-0.260319 0.0837356 0)
(-0.244082 0.0192938 0)
(-0.23466 -0.0778405 0)
(-0.248244 -0.13245 0)
(-0.253364 -0.16234 0)
(-0.241482 -0.200158 0)
(-0.341116 0.0543962 0)
(-0.335515 0.0583092 0)
(-0.332982 0.057594 0)
(-0.328311 0.0518878 0)
(-0.324829 0.0355849 0)
(-0.321692 -0.0179644 0)
(-0.334575 -0.0792878 0)
(-0.348443 -0.12842 0)
(-0.338953 -0.190199 0)
(-0.329724 -0.250037 0)
(-0.350293 0.0640657 0)
(-0.357567 0.0754276 0)
(-0.366412 0.0793161 0)
(-0.373659 0.082148 0)
(-0.378113 0.0696778 0)
(-0.384231 0.013071 0)
(-0.387508 -0.0709623 0)
(-0.379534 -0.141665 0)
(-0.37779 -0.201914 0)
(-0.3785 -0.260997 0)
(-0.375569 0.0954905 0)
(-0.390274 0.104283 0)
(-0.393967 0.100453 0)
(-0.383781 0.0838324 0)
(-0.366806 0.0550044 0)
(-0.363039 0.000634741 0)
(-0.374272 -0.0641645 0)
(-0.394677 -0.117914 0)
(-0.408683 -0.181833 0)
(-0.412297 -0.258635 0)
(-0.396199 0.128252 0)
(-0.385482 0.112163 0)
(-0.350365 0.0595936 0)
(-0.312843 0.0266445 0)
(-0.294656 0.02744 0)
(-0.296716 0.0213367 0)
(-0.329536 -0.01977 0)
(-0.380571 -0.0909906 0)
(-0.414543 -0.181441 0)
(-0.418049 -0.263997 0)
(-0.342013 0.0736973 0)
(-0.28961 0.0262324 0)
(-0.248013 -0.0225994 0)
(-0.236681 -0.0313799 0)
(-0.219798 0.0146418 0)
(-0.219012 0.0816127 0)
(-0.230518 0.0834346 0)
(-0.257543 0.0301413 0)
(-0.282714 -0.0760266 0)
(-0.299393 -0.196948 0)
(-0.280412 -0.0345389 0)
(-0.253489 -0.0588767 0)
(-0.225897 -0.0601498 0)
(-0.209778 -0.0585236 0)
(-0.195388 0.00373167 0)
(-0.174594 0.0565377 0)
(-0.147739 0.0626456 0)
(-0.122359 0.0301488 0)
(-0.121671 -0.0169894 0)
(-0.14188 -0.0783929 0)
(-0.22993 -0.0368745 0)
(-0.224857 -0.0682154 0)
(-0.213002 -0.112723 0)
(-0.198699 -0.111271 0)
(-0.181182 -0.0403271 0)
(-0.16104 -0.0185775 0)
(-0.129031 -0.0225941 0)
(-0.103437 -0.0505792 0)
(-0.0908155 -0.0563326 0)
(-0.0917132 -0.0867429 0)
(-0.186364 -0.0902455 0)
(-0.170637 -0.0883659 0)
(-0.161473 -0.101251 0)
(-0.165612 -0.0972429 0)
(-0.160511 -0.0597978 0)
(-0.14506 -0.0468136 0)
(-0.118528 -0.0650585 0)
(-0.110918 -0.0800942 0)
(-0.0909361 -0.0778928 0)
(-0.080733 -0.0814845 0)
(0.0387749 -0.119506 0)
(0.0399781 -0.0973157 0)
(0.0503794 -0.0725916 0)
(0.030274 -0.0744922 0)
(-0.000851893 -0.0896262 0)
(-0.0462484 -0.0961557 0)
(-0.0950078 -0.108531 0)
(-0.110649 -0.131236 0)
(-0.0984114 -0.140373 0)
(-0.0699679 -0.140279 0)
(0.194111 -0.203265 0)
(0.240347 -0.177685 0)
(0.304264 -0.144052 0)
(0.360658 -0.0953981 0)
(0.409827 0.00913485 0)
(0.405261 0.13576 0)
(0.38955 0.156653 0)
(0.286476 -0.0147663 0)
(0.161094 -0.131158 0)
(0.0980493 -0.148739 0)
(0.171099 -0.281992 0)
(0.199538 -0.257435 0)
(0.222371 -0.236386 0)
(0.243679 -0.211965 0)
(0.27108 -0.143726 0)
(0.302886 -0.00404744 0)
(0.331301 0.144029 0)
(0.330708 0.176993 0)
(0.30983 0.156607 0)
(0.256636 0.0595374 0)
(0.147179 -0.307846 0)
(0.156373 -0.270276 0)
(0.159265 -0.227563 0)
(0.173804 -0.201629 0)
(0.176024 -0.115185 0)
(0.181238 0.0295767 0)
(0.208735 0.110713 0)
(0.23895 0.121041 0)
(0.262397 0.0925106 0)
(0.297287 0.00964886 0)
(0.144821 -0.315512 0)
(0.125514 -0.297165 0)
(0.108043 -0.263735 0)
(0.111497 -0.229782 0)
(0.123889 -0.161773 0)
(0.1449 -0.0836606 0)
(0.183425 -0.0137584 0)
(0.220829 0.0157019 0)
(0.263773 0.0158895 0)
(0.304694 -0.0229716 0)
(0.143549 -0.210709 0)
(0.105174 -0.226104 0)
(0.0885538 -0.242665 0)
(0.0876007 -0.234744 0)
(0.102724 -0.189661 0)
(0.122764 -0.133847 0)
(0.164281 -0.0628058 0)
(0.185248 -0.0490111 0)
(0.223276 -0.0621179 0)
(0.271685 -0.0750315 0)
(0.143324 -0.12178 0)
(0.129093 -0.176067 0)
(0.110646 -0.23694 0)
(0.101567 -0.258814 0)
(0.110961 -0.236042 0)
(0.118692 -0.200738 0)
(0.143253 -0.159016 0)
(0.17657 -0.117424 0)
(0.187841 -0.135912 0)
(0.207564 -0.124602 0)
(0.178319 -0.0995194 0)
(0.183867 -0.142069 0)
(0.165542 -0.185886 0)
(0.139648 -0.199905 0)
(0.118394 -0.198346 0)
(0.10415 -0.172834 0)
(0.102773 -0.163802 0)
(0.127069 -0.143574 0)
(0.154769 -0.170162 0)
(0.203823 -0.163919 0)
(0.187017 -0.0985692 0)
(0.187622 -0.125024 0)
(0.161518 -0.146781 0)
(0.141704 -0.160438 0)
(0.126488 -0.168574 0)
(0.123291 -0.170047 0)
(0.127278 -0.18688 0)
(0.152082 -0.208215 0)
(0.175059 -0.274808 0)
(0.194234 -0.269685 0)
(0.168864 -0.0757353 0)
(0.160704 -0.0983928 0)
(0.153791 -0.131221 0)
(0.148905 -0.151331 0)
(0.153184 -0.164361 0)
(0.158698 -0.180622 0)
(0.16661 -0.211993 0)
(0.170898 -0.250192 0)
(0.194875 -0.32552 0)
(0.2458 -0.335997 0)
(0.156142 -0.0669801 0)
(0.155659 -0.0958916 0)
(0.15035 -0.134076 0)
(0.153467 -0.159048 0)
(0.165441 -0.185743 0)
(0.174115 -0.216468 0)
(0.191887 -0.233098 0)
(0.212534 -0.267842 0)
(0.241324 -0.346985 0)
(0.288564 -0.467704 0)
(0.20121 -0.0155938 0)
(0.183589 -0.0762818 0)
(0.172315 -0.127211 0)
(0.167108 -0.167799 0)
(0.177571 -0.203319 0)
(0.178885 -0.231234 0)
(0.188813 -0.263286 0)
(0.21248 -0.335347 0)
(0.297634 -0.49039 0)
(0.39859 -0.647057 0)
(0.223513 0.0119295 0)
(0.21199 -0.0385985 0)
(0.189665 -0.0916347 0)
(0.185093 -0.151954 0)
(0.182147 -0.200238 0)
(0.172993 -0.233847 0)
(0.193405 -0.308318 0)
(0.279741 -0.509476 0)
(0.38094 -0.694973 0)
(0.421779 -0.713642 0)
(0.206022 0.0367975 0)
(0.196239 -0.00911621 0)
(0.168561 -0.0657649 0)
(0.180413 -0.136706 0)
(0.144433 -0.169717 0)
(0.152602 -0.23951 0)
(0.229242 -0.474504 0)
(0.345083 -0.732666 0)
(0.392895 -0.752643 0)
(0.388002 -0.728034 0)
(0.154091 0.0626796 0)
(0.140085 0.0306079 0)
(0.144621 -0.055825 0)
(0.118687 -0.0884162 0)
(0.109105 -0.147172 0)
(0.145282 -0.376855 0)
(0.297361 -0.76323 0)
(0.354163 -0.804166 0)
(0.35115 -0.758208 0)
(0.259836 -0.537261 0)
(0.0949772 0.0887536 0)
(0.106104 0.0177955 0)
(0.106165 -0.0413122 0)
(0.0681021 -0.0440806 0)
(0.0880486 -0.209715 0)
(0.219122 -0.757236 0)
(0.305707 -0.876427 0)
(0.331377 -0.820767 0)
(0.241966 -0.53069 0)
(-0.00885571 -0.0512434 0)
(0.0953077 0.0523656 0)
(0.0921178 0.00210162 0)
(0.0959999 -0.00471712 0)
(0.013191 0.0189154 0)
(0.133606 -0.564788 0)
(0.205222 -0.932852 0)
(0.258341 -0.93315 0)
(0.293733 -0.683651 0)
(-0.0318483 -0.0246546 0)
(-0.127705 0.0165414 0)
(0.0796127 0.034547 0)
(0.0713922 0.0374288 0)
(0.0673556 0.0608755 0)
(0.0143078 0.037496 0)
(0.131793 -0.806926 0)
(0.109559 -0.991924 0)
(0.157324 -0.939595 0)
(0.107452 -0.212617 0)
(-0.0171874 0.227796 0)
(-0.0588323 0.121397 0)
(0.0444333 0.0388646 0)
(-0.00390376 0.0333031 0)
(-0.0469172 0.110315 0)
(-0.0234062 -0.0256965 0)
(0.0844654 -0.922613 0)
(0.0454294 -0.983311 0)
(0.0858145 -0.84686 0)
(-0.0123046 0.0936111 0)
(-0.101511 0.237493 0)
(-0.0479892 0.120281 0)
(-0.161695 0.167998 0)
(-0.221191 0.209317 0)
(-0.253662 0.216389 0)
(-0.0290058 -0.573947 0)
(0.0265491 -0.954927 0)
(0.0024747 -0.978098 0)
(0.00704731 -0.844083 0)
(0.0705795 0.173868 0)
(0.0115492 0.185967 0)
(-0.0263756 0.153971 0)
(-0.183048 0.195293 0)
(-0.196914 0.196889 0)
(-0.0976179 -0.0737255 0)
(-0.00908218 -0.736431 0)
(0.0123378 -0.957665 0)
(-0.00722576 -0.96049 0)
(0.00934105 -0.913624 0)
(0.0576162 -0.0356196 0)
(0.0557746 0.29423 0)
(-0.0947721 0.268694 0)
(0.0133374 0.217007 0)
(-0.0357035 0.209706 0)
(-0.000202826 -0.20179 0)
(-0.014185 -0.788455 0)
(0.00993525 -0.951605 0)
(-0.00481097 -0.951364 0)
(0.000727481 -0.925627 0)
(-0.0138565 0.0199822 0)
(-0.00346542 0.677769 0)
(-0.149071 0.460179 0)
(-0.0225634 0.220568 0)
(0.0617653 0.223751 0)
(0.0634339 0.0668129 0)
(0.0054895 -0.771942 0)
(0.0143378 -0.933547 0)
(-0.00749748 -0.927226 0)
(-0.0195085 -0.914322 0)
(-0.0297915 0.085256 0)
(0.0252695 0.726056 0)
(0.0116654 0.737883 0)
(-0.0772586 -0.00565012 0)
(0.0224929 -0.0687757 0)
(0.0205202 -0.00487171 0)
(0.0151807 -0.846856 0)
(0.0120321 -0.9169 0)
(0.00334227 -0.914005 0)
(0.00380627 -0.907274 0)
(-0.0123212 -0.0779786 0)
(0.0924756 0.426743 0)
(0.164552 0.683733 0)
(-0.0803075 0.0356788 0)
(-0.0754744 -0.0407755 0)
(-0.0444213 0.100824 0)
(0.0124148 -0.897541 0)
(0.018283 -0.895382 0)
(0.00583424 -0.893302 0)
(0.0140277 -0.902452 0)
(0.0140236 -0.0782324 0)
(0.0833469 0.188479 0)
(0.173483 0.578273 0)
(-0.190926 -0.0110314 0)
(-0.161011 -0.154217 0)
(0.00881326 -0.0273381 0)
(0.0278371 -0.90816 0)
(0.015708 -0.875854 0)
(0.000171471 -0.878993 0)
(-0.00589645 -0.893593 0)
(0.0112583 -0.17125 0)
(0.0819633 0.0730379 0)
(0.132576 0.481106 0)
(-0.145183 -0.0826668 0)
(-0.180822 -0.248136 0)
(0.0258104 -0.664715 0)
(0.0130584 -0.888885 0)
(0.00603059 -0.853072 0)
(-0.00462328 -0.854858 0)
(-0.0155268 -0.87609 0)
(-0.0248247 -0.343177 0)
(0.0663037 -0.0674586 0)
(0.0522739 0.304185 0)
(0.0381632 0.0701136 0)
(0.00669905 -0.0619181 0)
(0.0336783 -0.654612 0)
(0.0165079 -0.851461 0)
(0.00782258 -0.82973 0)
(-0.00791155 -0.833287 0)
(-0.0149015 -0.844668 0)
(-0.0388049 -0.372763 0)
(0.0319482 -0.00274538 0)
(-0.0888068 0.293317 0)
(0.0133711 0.00961468 0)
(0.0289554 -0.126815 0)
(0.0138561 -0.669093 0)
(0.00460312 -0.834127 0)
(-0.00227075 -0.807117 0)
(-0.010715 -0.806972 0)
(-0.0189095 -0.830335 0)
(-0.0366347 -0.316231 0)
(-0.0270582 0.0610482 0)
(-0.0807482 0.225043 0)
(-0.00396128 0.00292014 0)
(0.0271707 -0.143571 0)
(0.0171189 -0.642237 0)
(0.011875 -0.806053 0)
(0.00154574 -0.787153 0)
(-0.0141801 -0.784932 0)
(-0.0235919 -0.80621 0)
(-0.0352293 -0.358351 0)
(-0.0390924 0.1055 0)
(-0.0637615 0.165019 0)
(-0.0049728 -0.0368992 0)
(0.0434246 -0.182419 0)
(0.0335564 -0.6252 0)
(0.0185505 -0.781806 0)
(0.00831239 -0.762773 0)
(0.00124508 -0.7585 0)
(-0.00736099 -0.77971 0)
(-0.00646315 -0.321139 0)
(-0.0495239 0.156615 0)
(-0.0804249 0.174086 0)
(0.031018 -0.149234 0)
(0.0632401 -0.182269 0)
(0.0429383 -0.598299 0)
(0.0227331 -0.757627 0)
(0.0128147 -0.734165 0)
(-0.00446222 -0.739384 0)
(-0.014154 -0.75941 0)
(0.0130542 -0.467433 0)
(-0.0231476 0.278532 0)
(-0.0869427 0.213616 0)
(0.0128532 -0.214603 0)
(0.0299677 -0.180103 0)
(0.0188155 -0.599918 0)
(0.0117098 -0.72832 0)
(-0.000558097 -0.70929 0)
(-0.00774851 -0.712357 0)
(-0.0202911 -0.729054 0)
(-0.0237002 -0.434207 0)
(-0.00688229 0.424951 0)
(-0.0746233 0.281456 0)
(0.0115242 -0.214599 0)
(0.0260763 -0.198951 0)
(0.020227 -0.591457 0)
(0.0193469 -0.70355 0)
(0.00535124 -0.682986 0)
(-0.0146352 -0.682864 0)
(-0.0262163 -0.703721 0)
(-0.0426887 -0.442912 0)
(0.00776345 0.460486 0)
(0.0277022 0.316377 0)
(0.0675093 -0.152864 0)
(0.0581828 -0.204209 0)
(0.0335569 -0.562544 0)
(0.023234 -0.671738 0)
(0.00759214 -0.659194 0)
(-0.00165075 -0.65909 0)
(-0.0183905 -0.675258 0)
(-0.028209 -0.523106 0)
(0.0109572 0.314645 0)
(0.12119 0.268223 0)
(0.0963999 -0.0935985 0)
(0.066169 -0.156445 0)
(0.0386154 -0.511647 0)
(0.0252107 -0.645002 0)
(0.0125118 -0.628166 0)
(-0.00905244 -0.629785 0)
(-0.0224179 -0.644209 0)
(-0.0351424 -0.495134 0)
(-0.0193639 0.0415206 0)
(0.099598 0.19724 0)
(0.0840702 -0.0291817 0)
(0.0207335 -0.0973815 0)
(0.0393099 -0.489873 0)
(0.0248364 -0.610464 0)
(0.00468496 -0.601467 0)
(-0.00691899 -0.602968 0)
(-0.0268892 -0.612887 0)
(-0.0425169 -0.484304 0)
(-0.00255605 -0.0801017 0)
(0.0304686 0.0859633 0)
(0.0543761 0.0339211 0)
(-0.0174376 -0.0722053 0)
(0.0475463 -0.51982 0)
(0.0229478 -0.581431 0)
(0.0076897 -0.57233 0)
(-0.00807187 -0.570852 0)
(-0.0233588 -0.580251 0)
(-0.0486582 -0.519413 0)
(0.0202522 -0.130657 0)
(-0.00623715 0.0383926 0)
(0.0266152 0.094948 0)
(0.00365421 -0.0646919 0)
(0.0495016 -0.529848 0)
(0.031316 -0.545567 0)
(0.010289 -0.541831 0)
(-0.00641415 -0.541107 0)
(-0.0308081 -0.545334 0)
(-0.0497424 -0.528729 0)
(-0.0075349 -0.154078 0)
(-0.0196982 0.0448134 0)
(0.0333218 0.125856 0)
(0.0465488 -0.116057 0)
(0.0557388 -0.494672 0)
(0.0244505 -0.509544 0)
(0.00773379 -0.507433 0)
(-0.00732658 -0.507852 0)
(-0.0240077 -0.506421 0)
(-0.0572671 -0.491699 0)
(-0.054869 -0.18274 0)
(-0.047562 0.0369393 0)
(0.04365 0.133984 0)
(0.051403 -0.157094 0)
(0.0557028 -0.452261 0)
(0.0323778 -0.469702 0)
(0.00954832 -0.469387 0)
(-0.0140786 -0.468885 0)
(-0.0339494 -0.467206 0)
(-0.0593554 -0.447792 0)
(-0.0580546 -0.195205 0)
(-0.0637513 0.0187979 0)
(0.0382633 0.124632 0)
(0.0634237 -0.165128 0)
(0.0660087 -0.401959 0)
(0.0306904 -0.424159 0)
(0.00896511 -0.432386 0)
(-0.00854247 -0.429862 0)
(-0.0295302 -0.423084 0)
(-0.0633274 -0.402769 0)
(-0.0633851 -0.175768 0)
(-0.0459293 -0.00593181 0)
(-0.0139605 0.0699758 0)
(0.0679116 -0.258854 0)
(0.064737 -0.357725 0)
(0.0344982 -0.381001 0)
(0.0146418 -0.383792 0)
(-0.0127975 -0.38328 0)
(-0.0338311 -0.381139 0)
(-0.0658113 -0.362634 0)
(-0.070675 -0.255946 0)
(-0.00115231 -0.0415263 0)
(0.0646645 -0.048997 0)
(0.0711014 -0.277928 0)
(0.0664399 -0.315646 0)
(0.0337388 -0.326856 0)
(0.00671761 -0.332796 0)
(-0.0201124 -0.334812 0)
(-0.0456944 -0.330546 0)
(-0.0680426 -0.314986 0)
(-0.0716598 -0.277531 0)
(-0.0729258 -0.0763172 0)
(0.103719 -0.167125 0)
(0.0766479 -0.223061 0)
(0.0730961 -0.264787 0)
(0.0446601 -0.28243 0)
(0.0249104 -0.284919 0)
(-0.00739497 -0.286014 0)
(-0.0323408 -0.284454 0)
(-0.0698645 -0.262927 0)
(-0.0740681 -0.222192 0)
(-0.103154 -0.168013 0)
(0.0597624 -0.120405 0)
(0.0483369 -0.196648 0)
(0.0429543 -0.236519 0)
(0.0163346 -0.247146 0)
(0.00492866 -0.249531 0)
(-0.014918 -0.247622 0)
(-0.0238012 -0.244476 0)
(-0.0446447 -0.236324 0)
(-0.0489836 -0.196279 0)
(-0.0596108 -0.120691 0)
(0.0772797 0.0155867 0)
(0.0594788 0.00623734 0)
(0.040685 0.0152411 0)
(0.0235046 0.0183461 0)
(0.00970201 0.0142341 0)
(-0.00365009 0.00910216 0)
(-0.00823299 -0.00201273 0)
(0.00295643 -0.0111577 0)
(0.0164207 -0.000353941 0)
(0.0192449 0.0199522 0)
(0.0112149 0.0223869 0)
(-0.00319302 0.0105355 0)
(-0.00722048 -0.000691739 0)
(-0.0114066 -0.0016422 0)
(-0.0127077 -0.000942511 0)
(-0.0134075 0.0017871 0)
(-0.0172212 0.0111365 0)
(-0.0292006 0.00964629 0)
(-0.0319029 0.00172961 0)
(-0.0317804 0.000979278 0)
(-0.0351672 0.00212338 0)
(-0.038995 0.00167292 0)
(-0.0407364 -0.00128758 0)
(-0.0432453 -0.0012064 0)
(-0.0492116 0.000638854 0)
(-0.051985 -0.000709636 0)
(-0.0489072 -0.00889113 0)
(-0.0348893 -0.0145537 0)
(-0.0216394 -0.0126412 0)
(-0.0132369 -0.00417328 0)
(-0.0142775 0.0107563 0)
(-0.0231649 0.0142975 0)
(-0.0264292 0.0158459 0)
(-0.0298334 0.0157301 0)
(-0.0385057 0.000387496 0)
(-0.0394836 -0.00839518 0)
(-0.0415209 -0.0110294 0)
(-0.0352711 -0.017283 0)
(-0.0228448 -0.021499 0)
(-0.0101952 -0.0289201 0)
(0.0993066 0.0417587 0)
(0.0860339 0.0565322 0)
(0.0639626 0.0515514 0)
(0.0483171 0.0372271 0)
(0.0293898 0.0314857 0)
(0.0086759 0.0230823 0)
(-0.00124371 -0.00777134 0)