/*--------------------------------*- C++ -*----------------------------------*\
  =========                 |
  \\      /  F ield         | OpenFOAM: The Open Source CFD Toolbox
   \\    /   O peration     | Website:  https://openfoam.org
    \\  /    A nd           | Version:  8
     \\/     M anipulation  |
\*---------------------------------------------------------------------------*/
FoamFile
{
    version     2.0;
    format      ascii;
    class       volScalarField;
    location    "1.65";
    object      alpha.water;
}
// * * * * * * * * * * * * * * * * * * * * * * * * * * * * * * * * * * * * * //

dimensions      [0 0 0 0 0 0 0];

internalField   nonuniform List<scalar> 
9150
(
1
0.999999
0.999999
1
1
1
1
1
1
1
1
0.999999
1
1
1
1
1
1
1
1
1
1
1
1
1
1
1
1
1
1
1
1
1
1
1
1
1
1
1
1
1
1
1
1
1
1
1
1
1
1
1
1
1
0.999999
1
1
1
1
1
1
1
1
1
0.999999
1
1
1
1
1
1
1
1
0.999999
1
1
1
1
1
1
1
1
1
0.999999
1
1
1
1
1
1
1
1
0.999999
0.999999
1
1
1
1
1
1
1
1
1
1
1
1
1
1
1
1
1
1
1
1
1
1
1
1
1
1
1
1
1
1
1
1
1
1
1
1
1
1
1
1
0.999999
1
1
1
1
1
1
1
1
1
0.999999
1
1
1
1
1
1
1
0.999997
0.999998
1
1
1
1
1
1
1
1
1
1
1
1
1
1
1
1
1
1
1
1
1
1
1
1
1
1
1
1
1
1
1
1
1
1
1
1
1
1
1
1
1
1
1
1
1
1
1
1
1
1
1
1
1
1
1
1
1
1
1
1
1
1
1
1
1
1
1
1
1
1
1
1
1
1
1
1
1
1
1
1
1
1
1
1
1
1
1
1
1
1
1
1
1
1
1
1
1
1
1
1
1
1
1
1
1
1
1
1
1
1
1
1
1
1
1
1
1
1
1
1
1
1
1
1
1
0.999958
1
0.999999
1
1
1
1
1
1
1
0.9999
0.999998
0.999999
1
1
1
1
1
1
0.999999
0.9999
0.999996
0.999999
0.999999
1
1
1
1
1
0.999997
0.9999
0.999994
0.999999
0.999999
1
1
1
1
1
0.999995
0.9999
0.99999
0.999999
0.999999
1
1
1
1
1
0.999995
0.999923
0.999972
1
1
1
1
1
1
1
0.999998
0.999966
0.999671
1
1
1
1
1
1
1
0.999999
0.999991
0.999911
1
1
0.999999
0.999999
0.999999
1
1
0.999999
0.999998
0.999947
1
1
0.999999
0.999999
0.999999
1
0.999999
0.999999
0.999998
0.999963
1
1
0.999999
0.999999
0.999999
0.999999
0.999999
0.999999
0.999998
0.999976
0.999999
1
0.999999
0.999999
0.999999
0.999999
1
1
0.999999
0.999987
0.999998
0.999999
1
0.999999
0.999999
1
1
1
1
0.999995
0.999998
1
1
1
1
1
1
1
1
0.999998
0.999999
1
1
1
1
1
1
1
1
0.999999
1
1
1
1
1
1
1
1
1
1
1
1
1
0.999999
1
1
1
1
1
1
1
1
0.999999
0.999999
1
1
1
1
1
1
0.999999
0.999999
0.999999
0.999999
0.999999
1
1
1
1
1
0.999999
0.999999
0.999999
1
1
1
1
1
1
1
1
0.999999
0.999999
1
1
1
1
1
1
1
1
1
1
1
1
1
1
1
1
1
1
1
1
1
1
1
0.999999
0.999999
1
1
1
1
1
1
1
1
0.999999
0.999999
1
1
1
1
1
1
1
0.999999
0.999999
0.999999
1
1
1
1
1
1
1
1
1
1
1
1
0.999999
1
1
1
1
1
1
1
1
1
0.999999
1
1
1
1
1
1
1
1
1
0.999999
1
1
1
1
1
1
0.999999
1
1
1
1
1
1
1
0.999999
0.999999
0.999999
1
1
1
0.999999
1
1
1
0.999999
0.999999
0.999999
1
1
1
0.999998
1
1
0.999999
0.999999
0.999999
1
1
1
1
0.999998
1
0.999999
0.999999
1
1
1
1
1
0.999999
0.999998
1
1
0.999999
1
1
1
1
1
1
1
1
1
1
1
1
1
1
1
1
1
1
1
1
1
1
1
1
1
1
1
1
1
1
1
1
1
1
1
1
0.999999
1
1
1
1
1
1
1
1
1
0.999999
1
1
1
1
1
1
1
1
1
1
1
1
1
1
1
1
1
1
1
1
1
1
1
1
1
1
1
1
1
1
1
1
1
1
1
1
1
1
1
1
1
1
1
1
1
1
1
1
1
1
1
1
1
1
1
1
1
1
1
1
0.999999
1
1
1
1
1
1
1
1
1
0.999999
0.999999
1
1
1
1
1
1
1
1
0.999999
0.999999
1
1
0.999999
0.999999
1
1
1
1
0.999999
0.999999
1
1
0.999999
0.999999
0.999999
1
1
1
1
1
1
1
0.999999
0.999999
0.999999
1
1
0.999997
0.999998
1
1
1
1
1
1
1
0.999999
0.999996
0.999996
1
1
1
1
0.999999
1
1
0.999999
0.999996
0.999996
1
1
1
1
0.999998
0.999999
1
0.999999
0.999998
0.999999
1
1
1
1
0.999998
0.999998
1
1
1
1
1
1
1
1
0.999998
0.999999
1
1
1
1
1
1
1
1
0.999999
1
1
1
1
1
1
1
1
1
1
1
1
1
1
1
1
1
1
1
1
1
1
1.00017
1
1
1
1
1
1
1
1
1
1.00004
0.999997
1
1
1
1
1
1
1
1
0.999987
0.999995
1
1
1
1
1
1
1
1
0.844336
0.999971
0.999882
1
1
1
1
1
1
1
0.62823
0.999849
0.999735
1
1
1
1
1
1
1
0.508424
0.999717
0.999698
0.999993
1
1
1
1
1
1
0.441514
0.995712
0.999676
0.999987
1
1
1
1
1
1
0.420341
0.981624
0.999768
0.999993
1
1
1
1
1
1
0.450704
0.988358
0.999962
0.999998
1
1
1
1
1
1
0.542745
0.997311
0.999987
0.999999
1
1
1
1
1
1
0.642074
0.99956
0.999985
0.999999
1
1
1
1
1
1
0.756791
0.999717
0.999991
1
1
1
1
1
1
1
0.854203
0.999876
0.999997
1
1
1
1
1
1
1
0.926764
0.999967
0.999999
1
1
1
1
1
1
1
0.969799
0.999994
1
1
1
1
1
1
1
1
0.990184
1
1
1
1
1
1
1
1
1
0.999742
1
1
1
1
1
1
1
1
1
1
1
1
1
1
1
1
1
1
1
1
1
1
1
1
1
1
1
1
1
0.995744
1
1
1
1
1
1
1
1
1
0.98275
1
1
1
1
1
1
1
1
1
0.979747
1
1
1
1
1
1
1
1
1
0.978549
1
1
1
1
1
1
1
1
1
0.974684
1
1
1
1
1
1
1
1
1
0.97075
1
1
1
1
1
1
1
1
1
0.966689
1
1
1
1
1
1
1
1
1.00001
0.958132
1
1
1
1
1
1
1
1
0.979188
0.944698
1
1
1
1
1
1
1
1
0.937795
0.94478
1
1
1
1
1
1
1
1
0.916234
0.942797
1
1
1
1
1
1
1
1
0.914717
0.964836
1
1
1
1
1
1
1
1
0.961003
1
1
1
1
1
1
1
1
1
1
0.999999
0.999997
0.999997
0.999998
0.999998
0.999995
0.999995
0.999995
0.999995
0.999998
0.999998
0.999979
0.999936
0.999936
0.999936
0.999989
0.999999
1
1
0.999999
0.999998
0.999999
1
1
0.987121
0.788155
0.788148
0.78817
0.904128
0.911946
1
1
1
1
1
0.999999
0.999999
1
0.999999
0.999998
0.999999
0.999998
0.999998
0.999998
0.999998
0.999998
0.999997
0.999998
0.999998
0.999998
0.999983
0.999936
0.999936
0.999946
0.999993
0.999998
0.999999
0.999997
0.999999
1
0.999998
0.999999
1
1
1
0.976515
0.855377
0.789009
0.789774
0.90799
1
1
1
1
1
0.999999
0.999999
1
0.999999
0.999908
0.999412
0.999208
0.998473
0.998768
0.999928
0.999998
0.999998
0.999998
0.999998
0.999998
0.999997
0.999985
0.999987
0.999993
0.999993
0.999943
0.999949
0.999996
1
1
0.999999
0.999996
0.999998
1
1
0.999999
0.991507
0.983327
0.804987
0.919632
1
1
1
0.99997
0.99994
0.999977
0.999999
0.999999
0.999999
0.999999
0.982261
0.956915
0.985054
0.999715
0.99996
0.999993
0.999997
0.999997
0.99977
0.999838
0.999995
0.999993
0.99999
0.999283
0.999238
0.99987
0.999989
0.999999
1
1
0.999997
0.999996
0.999996
0.999999
1
1
0.999997
0.999997
0.952073
0.940812
1
1
0.999969
0.999902
0.999897
0.999951
0.999998
0.999999
0.999999
0.981388
0.956915
0.955645
0.984778
0.999214
0.999759
0.977124
0.949887
0.985566
0.999862
0.999969
0.999986
0.974181
0.964516
0.992211
0.999849
0.999984
0.999998
0.999999
0.999999
0.999998
0.999996
0.999996
0.999996
0.999999
1
1
1
1
0.999997
0.984946
1
1
0.999972
0.999905
0.999894
0.999976
0.999996
0.999998
0.998197
0.998082
0.986045
0.952774
0.952774
0.952774
0.990329
0.973975
0.888021
0.945546
0.998923
0.974616
0.788046
0.825857
0.980063
0.998884
0.99992
0.999994
0.999999
1
0.999998
0.999996
0.999996
0.999996
0.999999
1
1
1
1
1
1
0.997058
1
1
1
0.999981
0.999911
0.999968
0.99999
0.99993
0.999864
0.995866
0.99424
0.990395
0.962107
0.95874
0.989533
0.988517
0.922252
0.736329
0.584179
0.51889
0.591609
0.898897
0.996814
0.999651
0.999964
0.999997
1
1
0.999997
0.999996
0.999997
0.999999
1
1
0.999999
0.999999
1
1
1
0.999651
1
1
1
0.999993
0.9999
0.999873
0.999797
0.999675
0.991715
0.971523
0.982067
0.989065
0.984138
0.982543
0.97042
0.954196
0.845178
0.526707
0.519952
0.519161
0.595514
0.956214
0.999362
0.999917
0.99999
0.999999
1
1
0.999999
0.999998
0.999999
1
0.999999
0.999999
0.999999
0.999999
1
1
1
1
1
1
0.999997
0.999943
0.999568
0.963598
0.765461
0.677672
0.590709
0.335662
0.355391
0.621103
0.930497
0.981973
0.914823
0.874268
0.844053
0.578826
0.519186
0.519161
0.639506
0.980645
0.999742
0.999982
0.999999
1
1
1
1
1
0.999999
0.999999
0.999999
0.999999
0.999999
1
1
1
1
1
1
1
0.999964
0.999136
0.780838
0.397907
0.00612659
0.000262563
0.0149448
0.0168986
0.198008
0.683657
0.933207
0.96621
0.891467
0.74637
0.703544
0.519186
0.519156
0.519144
0.776209
0.99521
0.999841
0.999989
1
1
1
0.999997
0.999998
0.999999
0.999999
0.999999
0.999999
0.999999
0.999999
1
1
1
1
1
1
1.00001
0.999544
0.658082
0.0799186
0.000331698
0.000199311
0.000228557
0.000268464
0.0272248
0.494469
0.905739
0.932166
0.792272
0.597826
0.52592
0.521316
0.521005
0.519184
0.701128
0.961653
0.999745
0.999958
0.999995
1
0.999998
0.999994
0.999993
0.999994
0.999999
1
1
1
1
1
1
1
1
1
1
1
0.999984
0.694882
0.072103
0.000331774
0.000195298
0.000187206
0.000192043
0.00021951
0.122911
0.788948
0.90227
0.794728
0.538038
0.535712
0.533761
0.590515
0.706456
0.863268
0.985681
0.99998
0.999997
0.999997
0.999997
0.999997
0.999995
0.999995
0.999993
0.999997
1
1
1
1
1
1
1
0.999999
1
1
1
0.999999
0.936684
0.178475
0.000498818
0.000194852
0.000187209
0.000189292
0.000187207
0.000192043
0.110729
0.552635
0.608435
0.493166
0.624399
0.765393
0.868662
0.940847
0.987952
0.999773
0.999952
0.999996
0.999998
0.999998
0.999998
0.999998
0.999998
0.999999
0.999999
1
1
0.999999
1
1
1
0.999996
0.999991
0.999999
1
0.999975
0.998306
1
0.534448
0.0141156
0.00976011
0.0111942
0.0243435
0.011255
0.000192043
0.000380758
0.051406
0.0555555
0.0651291
0.499324
0.950719
0.999029
0.999772
0.99988
0.99996
0.999984
0.999994
0.999997
0.999998
0.999998
0.999998
0.999998
0.999998
0.999991
0.999998
0.999985
0.999981
0.999988
1
1
0.999994
0.99999
0.99999
0.999999
1
0.999831
0.991967
0.989964
0.259112
0.0107519
0.0104214
0.0266816
0.0336568
0.0337131
0.0182092
0.000508836
0.00119147
0.00248643
0.0302005
0.632898
0.999936
0.999989
0.999994
0.999997
0.999997
0.999996
0.999987
0.999984
0.999974
0.999998
0.999998
0.99999
0.999951
0.999941
0.999943
0.999944
0.999945
0.999991
1
0.999995
0.99999
0.99999
0.999992
0.999999
0.999999
0.999462
0.991774
0.860968
0.138954
0.0104207
0.0102685
0.0289204
0.0337352
0.0337008
0.017913
0.000721355
0.000244301
0.000734555
0.0382208
0.688113
0.999997
1
1
1
0.999999
0.999997
0.999972
0.999932
0.999932
0.999957
0.999969
0.999943
0.999941
0.999941
0.999941
0.999944
0.999974
0.999998
0.999999
0.99999
0.99999
0.999991
0.999999
0.999999
0.999999
0.998912
0.991774
0.796577
0.0912107
0.0100852
0.010205
0.0312342
0.0336905
0.0162343
0.00344337
0.000757443
0.000120177
0.000458604
0.0288899
0.649208
1
1
1
1
1
0.999982
0.999932
0.999932
0.999932
0.999932
0.999933
0.999941
0.999966
0.999962
0.999958
0.999987
0.999998
0.999998
0.999998
0.999993
0.999992
0.999999
0.999999
0.999999
0.999999
0.998838
0.991774
0.772684
0.0751947
0.00979019
0.0100783
0.0320671
0.0321195
0.00521416
0.000380736
0.000436361
0.000102009
0.000368163
0.0129337
0.565796
1
1
1
1
0.999999
0.999975
0.999933
0.999933
0.999933
0.999932
0.99994
0.999986
0.999994
0.999994
0.999992
0.999994
0.999995
0.999997
0.999999
1
1
1
0.999999
0.999997
0.999996
0.999263
0.994583
0.810522
0.0749944
0.00936234
0.0101356
0.0322183
0.0321092
0.00492228
0.00015372
9.07795e-05
9.4678e-05
0.00028479
0.00688581
0.528026
1
1
1
1
0.999999
0.999991
0.999949
0.999932
0.999932
0.99994
0.999988
0.999994
0.999994
0.999994
0.999994
0.999991
0.99999
0.999991
1
1
1
1
0.999997
0.999996
0.999995
0.999893
0.999838
0.893722
0.163659
0.00775732
0.0115534
0.0322183
0.0298634
0.00263675
0.000108268
8.10898e-05
9.05805e-05
0.000224615
0.00653257
0.526912
1
1
1
1
1
0.999999
0.999994
0.999963
0.999953
0.999985
0.999993
0.999993
0.999991
0.999993
0.999996
0.99999
0.99999
0.999993
1
1
1
1
0.999998
0.999999
0.999998
0.999998
0.999964
0.95528
0.315288
0.00653277
0.00851422
0.0322183
0.0211378
0.000400417
0.000113269
7.84791e-05
8.21848e-05
0.00020198
0.00456178
0.504421
1
1
1
1
1
1
1
0.999999
0.999999
0.999998
0.999992
0.999991
0.999991
0.999995
1
0.999993
0.999992
0.999998
1
1
1
1
1
1
0.999997
0.999067
0.994716
0.992517
0.535467
0.00461764
0.00525642
0.0237546
0.0177981
0.00011392
0.000113502
7.79997e-05
7.85855e-05
0.000207848
0.000827085
0.433342
0.99957
1
1
1
1
1
1
1
1
0.999997
0.999991
0.999991
0.999992
1
1
1
0.999999
0.999999
0.999999
0.999999
1
1
1
1
0.999945
0.995889
0.993976
0.999614
0.760607
0.00358077
0.00352947
0.00360912
0.0190012
0.000242193
7.86448e-05
7.80181e-05
7.80324e-05
0.000170529
7.52356e-05
0.313243
0.978196
1
1
1
1
0.999995
0.999994
1
1
0.999997
0.999991
0.999991
0.999997
1
1
1
1
0.999999
0.999997
0.999997
0.999999
0.999999
1
0.999999
0.999947
0.996443
0.99398
0.999786
0.924057
0.197443
0.00227322
0.00408267
0.0189707
7.62213e-05
7.66523e-05
7.69674e-05
8.62198e-05
7.52356e-05
7.18168e-05
0.195374
0.924444
0.999994
1
1
1
0.999968
0.999965
0.999998
1
0.999999
0.999996
0.999997
1
1
1
1
1
1
0.999997
0.999997
0.999999
0.999999
0.999983
0.999999
0.99997
0.999399
0.998636
0.999926
0.996359
0.556046
0.000838315
0.000701085
0.00477767
7.66523e-05
7.67809e-05
7.7256e-05
9.07145e-05
8.9349e-05
7.04134e-05
0.111401
0.848601
0.999965
0.999999
1
0.999993
0.999964
0.999964
0.999995
1
1
1
1
1
1
1
1
1
1
0.999998
0.999999
1
0.999999
0.999978
0.99997
0.999969
0.999969
0.999939
0.999968
0.999534
0.810641
0.00448678
7.85167e-05
7.77234e-05
7.67806e-05
7.5917e-05
7.59436e-05
8.01895e-05
0.000102532
6.82691e-05
0.0430062
0.750968
0.99989
0.999997
1
0.999978
0.999964
0.999966
0.999997
1
1
1
1
1
1
1
1
0.999996
0.999998
1
0.999999
1
0.999999
0.999993
0.999865
0.999427
0.998741
0.997048
0.999989
0.999827
0.959054
0.3201
8.13991e-05
7.69156e-05
7.61977e-05
7.59464e-05
7.54449e-05
7.30149e-05
8.15968e-05
6.68201e-05
6.79097e-05
0.595447
0.999674
0.999991
0.999998
0.999966
0.999964
0.999981
1
1
1
1
1
1
1
1
0.999998
0.999994
0.999997
1
1
1
1
1
0.999243
0.98868
0.992124
0.996908
0.999997
0.999949
0.999451
0.657714
0.000146644
8.12309e-05
0.00342404
0.000797331
7.8113e-05
6.86442e-05
6.64921e-05
6.65952e-05
6.68255e-05
0.395053
0.982525
0.999949
0.999977
0.999965
0.999972
0.999997
1
1
1
1
1
1
1
1
0.999995
0.999994
0.999998
1
1
1
1
1
0.997985
0.984851
0.984844
0.996888
0.999999
0.999981
0.999704
0.872097
0.0642841
0.000138499
0.00658145
0.00423404
0.000121823
8.73366e-05
6.67773e-05
6.66356e-05
6.63429e-05
0.246492
0.939265
0.999888
0.999974
0.999977
0.999994
1
1
1
1
1
0.999997
0.999991
0.999996
0.999995
0.999993
0.999996
1
1
1
1
1
1
0.997801
0.991237
0.98341
0.939953
1
0.999995
0.999904
0.987185
0.460684
0.000666342
0.00228518
0.000889032
0.000151491
9.52953e-05
6.76067e-05
6.58323e-05
6.59504e-05
0.181128
0.897945
0.999811
0.999983
0.999992
1
1
1
1
1
1
0.99999
0.999989
0.999989
0.999989
0.999993
0.999999
1
1
1
1
1
1
0.998716
0.996915
0.953069
0.921943
1
0.999999
0.99997
0.999539
0.755907
0.000208629
8.85079e-05
8.06417e-05
0.000168359
9.68745e-05
6.59762e-05
6.63103e-05
6.54352e-05
0.163414
0.87871
0.999727
0.999982
0.999995
1
1
1
1
1
1
0.999991
0.999989
0.999989
0.999989
0.999996
1
1
1
1
1
1
1
1
0.983389
0.921912
0.921928
1
1
0.999992
0.999816
0.931299
0.195164
5.66071e-05
7.93777e-05
9.27758e-05
7.69811e-05
6.59616e-05
6.59526e-05
6.57273e-05
0.166176
0.878947
0.999649
0.999972
0.999992
1
1
1
1
1
1
0.999997
0.999989
0.999989
0.99999
0.999999
1
1
1
1
1
1
1
1
0.944903
0.921928
0.921942
1
1
0.999998
0.999962
0.999487
0.612532
0.00010042
6.85525e-05
6.68357e-05
6.53881e-05
6.5668e-05
6.56505e-05
6.58269e-05
0.19175
0.895879
0.999609
0.999954
0.999976
0.999994
1
1
1
1
1
1
0.999994
0.999989
0.999996
1
1
1
0.999999
1
1
1
1
1
0.954865
0.921902
0.952699
1
1
1
0.99999
0.99978
0.857157
0.0328614
7.32269e-05
8.49961e-05
6.54815e-05
6.59297e-05
6.59234e-05
6.57167e-05
0.255713
0.931384
0.999611
0.999935
0.999953
0.999974
0.999991
0.999999
1
1
1
1
1
0.999998
0.999999
1
1
0.999988
0.999991
0.999999
1
1
1
0.999027
0.990606
0.985223
0.998647
1
1
1
0.999998
0.999947
0.986086
0.466323
4.35291e-05
6.68084e-05
6.60052e-05
6.53538e-05
6.57534e-05
6.46204e-05
0.389448
0.973715
0.999645
0.999945
0.999965
0.999958
0.999966
0.999987
1
1
1
1
1
1
1
1
0.999997
0.999985
0.999985
0.999998
1
1
1
0.998818
0.999832
0.999821
0.999852
1
1
1
1
0.999991
0.999822
0.801665
0.000261683
6.14737e-05
6.86024e-05
6.57534e-05
6.61793e-05
0.0191214
0.623016
0.995837
0.999718
0.999971
0.999989
0.999974
0.999966
0.999967
0.999997
1
1
1
1
1
1
1
0.999988
0.999984
0.999985
0.999998
1
1
0.999985
0.999763
0.999935
0.99987
0.999861
1
1
1
1
0.999999
0.999962
0.96012
0.336102
2.14716e-05
6.65879e-05
6.65048e-05
6.5893e-05
0.201287
0.876813
0.997479
0.999791
0.999984
0.999995
0.999993
0.999966
0.999975
0.999998
1
0.999999
0.999996
0.999998
1
1
0.999998
0.999984
0.999984
0.999989
1
1
1
0.999986
1
0.99995
0.99986
0.999859
1
1
0.999999
1
1
0.999997
0.999928
0.839218
6.92727e-05
6.8071e-05
6.72635e-05
0.0806938
0.684235
0.991971
0.99903
0.999896
0.999991
0.999997
0.999998
0.999992
0.999995
0.999999
1
0.999997
0.999996
0.999996
1
1
0.999989
0.999984
0.999984
0.999994
1
1
1
1
1
0.999925
0.999874
0.999014
1
1
0.999999
0.999999
1
1
0.999994
0.979555
0.327129
7.12525e-05
0.0254978
0.541738
0.984848
0.998939
0.999796
0.999943
0.999977
0.999989
0.999999
1
1
1
1
0.999997
0.999996
0.999996
1
1
0.999988
0.999985
0.999985
0.999999
1
1
1
1
1
0.999941
0.999992
0.995213
1
1
0.999999
0.999999
1
1
1
0.999988
0.845195
0.0125
0.0918792
0.740966
0.998538
0.999804
0.999932
0.999948
0.999952
0.999937
0.999972
1
1
1
1
0.999999
0.999996
0.999997
1
1
0.999989
0.999985
0.99999
1
1
1
1
1
1
0.999998
0.999997
0.994772
1
1
1
0.999999
1
1
1
0.999998
0.980504
0.384653
0.104163
0.489449
0.988309
0.999813
0.999922
0.999926
0.999918
0.999919
0.999924
0.999977
1
1
1
1
0.999998
0.999999
1
1
0.999989
0.999985
0.999995
1
1
1
1
1
1
1
0.999796
0.994756
1
1
1
1
1
1
1
1
0.999983
0.846881
0.11191
0.148623
0.803634
0.999585
0.999903
0.999939
0.999945
0.999941
0.999925
0.999928
0.999978
1
1
1
1
1
1
0.999998
0.999987
0.999985
0.999998
1
1
1
1
1
1
1
0.997052
0.994752
1
1
1
1
1
1
1
1
0.999997
0.984518
0.392353
0.099144
0.341199
0.955773
0.999814
0.999947
0.999957
0.999957
0.999928
0.999928
0.999929
0.99998
1
1
1
1
1
0.999992
0.999987
0.99999
1
1
1
1
1
1
1
0.99975
0.994755
0.994755
1
0.999999
1
1
1
1
1
1
1
0.999988
0.895418
0.0975646
0.0941602
0.647743
0.999411
0.999907
0.999957
0.999961
0.999933
0.999929
0.999929
0.999929
0.999989
1
1
1
1
0.999993
0.999987
0.999995
1
1
1
1
1
1
1
0.998346
0.994786
0.996148
1
0.999999
1
1
1
1
1
1
1
0.999999
0.992755
0.393584
0.0941602
0.205495
0.892439
0.99964
0.999953
0.999966
0.999967
0.99993
0.999929
0.999929
0.999951
0.999998
1
1
1
0.999998
0.999995
0.999999
1
0.999999
0.999997
0.999999
1
1
1
0.998067
0.994817
0.999236
1
1
1
1
1
1
1
1
1
1
1
0.909362
0.0941602
0.0947359
0.532383
0.995367
0.999896
0.999967
0.999971
0.999962
0.999929
0.999929
0.999929
0.999984
0.999997
1
1
1
1
1
1
0.999998
0.999997
0.999999
1
1
1
0.998875
0.997396
0.99929
1
1
1
1
1
1
1
1
1
1
1
1
0.285562
0.0953115
0.154602
0.856137
0.999536
0.99996
0.999988
0.999992
0.999975
0.999965
0.999963
0.999975
0.999981
0.999997
1
1
1
1
1
0.999999
0.999997
0.999998
1
1
0.999982
0.999927
0.99996
0.999288
1
1
1
1
1
1
1
1
1
1
1
1
0.833927
0.0958784
0.0971481
0.515616
0.992912
0.999901
0.999991
0.999997
0.999998
0.999999
0.999996
0.999975
0.999976
0.999992
1
1
1
1
1
1
0.999997
0.999999
1
1
0.999977
0.999998
0.999984
0.999038
1
1
1
1
1
1
1
1
1
1
1
1
1
0.318562
0.098398
0.196994
0.889196
0.999616
0.999978
0.999998
0.999999
1
1
0.999978
0.999976
0.999995
1
1
1
1
1
1
0.999999
1
1
0.999999
0.999988
0.999999
0.999947
0.999021
1
1
1
1
1
1
1
1
1
1
1
1
1
0.837701
0.116211
0.116344
0.620754
0.998574
0.999938
0.999997
1
1
1
0.999993
0.999994
0.999999
0.999999
0.999998
0.999998
1
1
0.999997
0.999999
1
1
0.999998
0.999999
0.999999
0.999716
0.999021
1
1
1
1
1
1
1
1
1
1
1
1
1
0.999999
0.332573
0.116645
0.349814
0.954382
0.999839
0.999993
1
1
1
1
1
1
0.999999
0.999998
0.999998
1
1
0.999997
0.999997
0.999999
1
0.999998
1
0.999999
0.999469
0.999021
1
1
1
1
1
1
1
1
1
1
0.999999
0.999999
0.999999
0.999999
0.750038
0.120319
0.179158
0.842959
0.999682
0.999988
1
1
1
1
1
1
0.999999
0.999998
1
1
0.999999
0.999997
0.999997
0.999999
0.999999
0.999999
1
0.999996
0.999599
0.999151
1
1
1
1
1
1
1
1
0.999999
0.999998
0.999996
0.999995
0.999992
0.999992
0.973924
0.295442
0.04816
0.661932
0.999632
0.99999
0.999999
1
1
0.999999
0.999981
0.999997
1
0.999999
1
1
0.999999
0.999997
0.999999
1
0.999999
1
1
0.999995
0.999932
0.999926
1
1
1
1
1
1
1
0.999999
0.999996
0.999986
0.999966
0.99994
0.999911
0.999898
0.99856
0.401151
0.0422752
0.517776
0.996171
0.999968
0.999995
0.999999
0.999998
0.99995
0.999936
0.999977
1
1
1
1
1
1
1
1
0.999999
1
1
0.999997
0.999999
0.999999
1
1
1
1
1
1
0.999999
0.999995
0.999972
0.999897
0.999703
0.999359
0.998326
0.986054
0.935319
0.367092
0.0379103
0.493787
0.992305
0.999998
0.999997
0.999999
0.999985
0.999934
0.999935
0.999973
1
1
1
1
1
1
1
1
0.999999
0.999998
1
1
1
0.999999
1
1
1
1
1
1
0.999996
0.999967
0.999798
0.999201
0.997971
0.958369
0.71013
0.433817
0.34136
0.0839955
0.0330902
0.506208
0.999997
0.999999
0.999999
0.999999
0.999958
0.999934
0.999934
0.99999
1
1
1
1
1
1
1
1
0.999998
0.999996
0.999999
1
1
0.999999
1
1
1
1
1
0.999998
0.999979
0.999779
0.998741
0.981912
0.77397
0.394552
0.0710529
0.0017528
0.0287188
0.0131346
0.0206332
0.476954
0.999999
0.999999
0.999999
0.999999
0.999961
0.999934
0.999965
1
1
1
1
1
1
1
1
1
0.999996
0.999996
0.999998
0.999999
0.999998
0.999999
1
1
1
1
1
0.999992
0.999888
0.99889
0.948047
0.538186
0.121827
0.00207059
0.0017523
0.00175328
0.0353263
0.00953576
0.01049
0.318934
0.947958
0.999999
0.999999
0.999999
0.999987
0.999977
0.999998
1
1
1
1
0.999999
0.999997
0.999999
1
0.999999
0.999996
0.999996
0.999998
0.999998
0.999998
0.999999
1
1
1
1
0.999997
0.999952
0.999292
0.93582
0.418276
0.0382761
0.00582495
0.00388216
0.00423527
0.0017528
0.00398023
0.0093113
0.00940444
0.0987263
0.60068
0.964976
0.999999
0.999999
1
1
1
1
1
1
1
0.999998
0.999994
0.999995
1
0.999999
0.999997
0.999996
0.999998
0.999999
0.999998
0.999999
1
1
1
1
0.999989
0.999699
0.973881
0.39647
0.0262095
0.0169281
0.0147025
0.040757
0.0370224
0.00813712
0.000247296
0.00915915
0.0100617
0.0140854
0.109672
0.567657
0.929879
1
1
1
1
1
1
1
1
0.999999
0.999994
0.999993
0.999996
1
1
0.999999
0.999999
0.999999
0.999999
0.999999
1
1
1
1
0.999905
0.998278
0.500615
0.0314667
0.0255438
0.0316544
0.0753116
0.073043
0.0310097
0.000262431
0.000117128
0.00406325
0.0055986
0.00127275
0.00341894
0.0696918
0.421981
0.831135
0.994589
1
1
1
1
1
1
0.999999
0.999995
0.999993
0.999993
0.999997
1
1
1
0.999999
0.999999
0.999999
1
1
1
1
0.999511
0.730475
0.0835255
0.0203704
0.0239237
0.0932061
0.0863601
0.0182298
3.39329e-05
5.45238e-05
0.000103093
0.000121416
0.000287503
0.000178193
0.000636599
0.00235571
0.0229355
0.241093
0.669169
0.955515
1
1
1
1
1
1
0.999995
0.999993
0.999993
0.999997
1
1
1
0.999999
0.999999
0.999999
1
1
1.00001
0.999929
0.960567
0.200474
0.016742
0.0190895
0.0399094
0.10474
0.0389032
3.38142e-05
9.96832e-06
1.02423e-05
3.19023e-05
2.2808e-05
4.22468e-05
3.956e-05
0.000128049
0.000426432
0.00130775
0.00609147
0.110962
0.49891
0.886132
1
1
1
1
1
0.999996
0.999993
0.999994
0.999999
1
1
0.999999
0.999999
0.999999
1
1
1
0.999999
0.999775
0.489241
0.0221247
0.0151729
0.0167535
0.145161
0.106434
0.00214703
9.23445e-06
9.85281e-06
9.70648e-06
9.59784e-06
8.7014e-06
1.1686e-05
1.20693e-05
2.93576e-05
8.15015e-05
0.000219848
0.00133989
0.00543726
0.0514098
0.33242
0.811979
1
1
1
1
0.999999
0.999997
0.999999
1
1
1
0.999999
0.999999
1
1
1
1
1.00002
0.909587
0.118006
0.0126297
0.0143685
0.03414
0.147437
0.0466939
9.26976e-06
9.29057e-06
1.57571e-05
1.8651e-05
8.63239e-06
7.30475e-06
7.5163e-06
7.4474e-06
9.76679e-06
1.87396e-05
3.5478e-05
0.00345781
0.00899763
0.0123873
0.0280153
0.23879
0.781893
1
1
1
1
1
1
1
1
1
1
1
1
0.999998
1
1
1.0001
0.45222
0.0164899
0.0113659
0.0146129
0.0713462
0.147223
8.6592e-06
9.02744e-06
1.06462e-05
1.9458e-05
1.94616e-05
1.2644e-05
7.0954e-06
7.0712e-06
7.19059e-06
7.36786e-06
8.21382e-06
1.08543e-05
0.00271499
0.0315916
0.0328184
0.0243212
0.0180609
0.222239
0.805786
1
1
1
1
1
1
0.999999
1
1
1
0.99997
0.999993
1
1.00002
0.977775
0.1551
0.0113619
0.0110036
0.0171913
0.0911352
0.116727
8.53194e-06
8.6592e-06
1.92558e-05
1.94616e-05
1.86918e-05
6.91163e-06
7.02788e-06
7.00896e-06
7.15852e-06
7.24219e-06
7.36407e-06
7.90253e-06
1.11559e-05
0.0347917
0.040715
0.0353435
0.0157253
0.0126629
0.271178
0.904595
1
1
1
1
1
0.999999
0.999999
1
0.999985
0.999962
0.999992
1
1.00005
0.658059
0.0412708
0.0105551
0.0109181
0.0234958
0.162835
0.0155226
8.31975e-06
8.53209e-06
1.85288e-05
1.87409e-05
6.96259e-06
6.9735e-06
6.94104e-06
6.9712e-06
7.19757e-06
7.11328e-06
7.21579e-06
7.37437e-06
7.91726e-06
0.0247721
0.0407476
0.0406119
0.0290389
0.00469246
0.0143999
0.433209
0.966963
1
1
1
0.999999
0.999999
0.999999
1
0.999962
0.999962
0.999992
1
1
0.364531
0.0105091
0.0097842
0.0108794
0.0476927
0.223256
8.17753e-06
8.10315e-06
8.65797e-06
1.78683e-05
1.22768e-05
6.94306e-06
6.92904e-06
6.9497e-06
6.92194e-06
7.04747e-06
7.06321e-06
7.15315e-06
7.21197e-06
7.37725e-06
0.0335631
0.0408533
0.0407476
0.0406119
0.00141079
0.000419795
0.0561237
0.781773
1
1
1
0.999999
0.999999
1
1
0.999965
0.999971
0.999993
1
0.991968
0.196988
0.00953506
0.00955674
0.010784
0.104064
0.223986
8.03739e-06
7.84585e-06
8.02215e-06
1.5716e-05
6.92999e-06
6.94573e-06
6.94223e-06
6.7529e-06
6.7409e-06
6.92596e-06
7.01783e-06
7.03907e-06
0.00615839
0.0290826
0.0408533
0.0409122
0.0408533
0.0336662
7.55667e-05
7.29549e-05
0.000749936
0.554193
0.999585
1
1
0.999999
1
1
1
0.999986
0.999957
0.999993
1
0.811057
0.0870998
0.00953072
0.00955576
0.0152299
0.294928
0.39325
7.82679e-06
7.75819e-06
7.54825e-06
7.50949e-06
7.23375e-06
6.99179e-06
6.73914e-06
6.56162e-06
6.58978e-06
6.80113e-06
0.00659544
0.0310547
0.0400461
0.0405258
0.0405443
0.040967
0.0296242
0.00420147
5.24055e-05
5.43656e-05
7.29703e-05
0.551184
0.998352
0.999993
0.999999
1
1
1
1
0.999995
0.999952
0.999992
1
0.665234
0.0347417
0.00872216
0.00899006
0.0397772
0.568824
0.738259
0.0202008
7.7133e-06
7.60011e-06
7.50042e-06
7.22698e-06
6.90019e-06
6.78511e-06
1.28308e-05
0.000372244
0.0222553
0.0378413
0.0381794
0.0388265
0.0386096
0.0255029
0.0139382
0.00154088
5.25604e-05
5.07543e-05
5.24533e-05
0.0753908
0.720029
0.997362
0.999967
0.999999
1
0.999953
0.99999
1
0.999978
0.999952
0.999992
1
0.558297
0.0164934
0.00752251
0.00769203
0.052117
0.672303
0.964638
0.395657
7.87165e-06
7.72913e-06
7.65208e-06
7.52018e-06
7.55832e-06
9.52225e-06
3.72507e-05
0.000559868
0.022008
0.0366008
0.0190955
0.00716441
0.00267593
0.00098805
0.000300836
8.4459e-05
5.07217e-05
5.06594e-05
0.0765566
0.562705
0.950454
0.997632
0.999968
0.999999
0.999985
0.999841
0.999865
1
0.999932
0.999953
0.999993
1
0.46611
0.00902741
0.00666098
0.00645694
0.0347753
0.626801
0.979304
0.951532
0.410637
0.035612
7.78262e-06
7.82531e-06
8.04188e-06
8.73725e-06
1.39666e-05
0.000356626
0.00285137
0.00397911
0.0014519
0.00088401
0.000630169
0.000472268
0.000409493
0.000273576
0.041145
0.232706
0.640131
0.97495
0.999613
0.999361
0.999971
0.999986
0.99986
0.99984
0.999841
0.999924
0.999915
0.99997
0.999993
1
0.39736
0.00665655
0.00597503
0.00593729
0.00910942
0.443858
0.985943
0.994898
0.966481
0.686745
0.331864
0.115901
0.0280357
1.39438e-05
3.57174e-05
5.16135e-05
0.000120492
0.000317226
0.000679486
0.00125042
0.0253987
0.0791508
0.186707
0.374834
0.645357
0.885045
0.994899
0.999782
0.999892
0.999922
0.999945
0.999855
0.99984
0.999841
0.99984
0.999841
0.999935
0.999992
0.999995
0.982345
0.353705
0.00595406
0.0054518
0.00551462
0.00584487
0.292162
0.959718
0.995268
0.995089
0.992317
0.930948
0.826305
0.68198
0.570064
0.48174
0.424428
0.395969
0.390502
0.45137
0.576551
0.673185
0.7752
0.884838
0.967371
0.998364
0.999569
0.999902
0.9999
0.999898
0.999899
0.999842
0.999841
0.999841
0.999889
0.999951
0.999898
0.999986
0.999999
1
0.960519
0.323704
0.00537619
0.00506409
0.005278
0.00549735
0.26159
0.957039
0.995283
0.995268
0.995088
0.993051
0.999392
0.998684
0.997148
0.991823
0.985017
0.980661
0.979874
0.988835
0.997844
0.998889
0.999233
0.999576
0.999819
0.999925
0.999973
0.999981
0.999908
0.999856
0.999847
0.999844
0.999876
0.999944
0.999993
0.999999
0.999996
1
1
1
0.948143
0.295694
0.00501458
0.00485091
0.00504683
0.00527729
0.333551
0.995284
0.995285
0.995278
0.973713
0.999865
0.999972
0.999946
0.999889
0.999876
0.999863
0.999854
0.999856
0.999883
0.999913
0.999932
0.99995
0.999969
0.999987
0.999995
0.999998
0.999987
0.999885
0.999849
0.999848
0.999932
0.999989
1
1
0.999999
0.999997
0.999983
0.999998
1
0.935953
0.267343
0.00481217
0.00477368
0.0048507
0.0121801
0.505171
0.995284
0.995284
0.99526
0.970794
0.999793
0.999997
0.999996
0.999992
0.999991
0.999991
0.99999
0.999991
0.999993
0.999994
0.999994
0.999993
0.999991
0.999997
1
0.999999
0.999989
0.999914
0.999875
0.999956
0.999999
1
1
1
1
0.999994
0.999977
0.999999
1
0.922426
0.238106
0.00476376
0.00463666
0.00486713
0.042623
0.706963
0.995177
0.954249
0.865028
0.998041
0.999998
0.999999
0.999999
0.999999
0.999998
0.999999
0.999999
0.999999
0.999999
0.999999
0.999998
0.999995
0.999992
0.999999
1
1
0.999995
0.999993
0.999995
1
1
1
1
1
1
0.999998
0.999987
0.999878
0.997754
0.904856
0.211528
0.00463172
0.00448484
0.00475836
0.121719
0.935808
0.992996
0.82011
0.601597
0.999998
0.999999
0.999999
0.999999
0.999999
0.999999
1
0.999999
1
0.999999
0.999999
0.999999
0.999995
0.999992
0.999998
1
1
1
1
1
1
1
1
0.999999
0.999995
0.999991
0.999998
0.999998
0.997839
0.997236
0.880693
0.191518
0.00455346
0.00431584
0.00456717
0.291641
0.953363
0.956524
0.542223
0.58527
0.999999
0.999999
0.999999
1
1
1
1
1
1
1
0.999999
0.999995
0.999993
0.999993
0.999999
1
1
1
1
0.999973
1
1
0.999997
0.999996
0.999991
0.999982
0.999861
0.998462
0.997236
0.997236
0.847533
0.178174
0.00447831
0.0044715
0.00449062
0.461323
0.951124
0.893136
0.520647
0.564168
0.988933
0.999999
0.999997
0.999935
0.999917
1
1
1
1
1
0.999999
0.999994
0.999993
0.999994
1
1
1
0.999892
0.999673
0.999682
0.999933
0.999993
0.999997
0.999997
0.999992
0.999985
0.999201
0.997237
0.997236
0.997236
0.803687
0.172287
0.00443146
0.0044329
0.00443433
0.483569
0.951124
0.883032
0.520521
0.52857
0.940266
0.999999
0.999976
0.999827
0.999829
0.999984
1
1
1
1
1
0.999997
0.999994
0.999998
0.999999
0.999972
0.999763
0.999661
0.999661
0.999662
0.999711
0.999997
0.999997
0.999997
0.999994
0.999986
0.999414
0.997581
0.997236
0.998372
0.751694
0.174585
0.00437859
0.00442665
0.00442677
0.440845
0.950937
0.912995
0.520647
0.520587
0.835775
0.999998
0.999945
0.999827
0.999827
0.999931
1
1
1
1
1
1
0.999999
0.999999
0.999991
0.999762
0.999661
0.999661
0.999662
0.999661
0.999843
0.999997
0.999997
0.999996
0.999994
0.99999
0.999882
0.999571
0.999489
0.999644
0.697029
0.18302
0.0178423
0.00442671
0.00442668
0.205406
0.929145
0.934103
0.675035
0.522027
0.676649
0.999998
0.999951
0.999827
0.999827
0.999939
1
0.999998
0.999993
1
1
1
1
0.999999
0.999992
0.99976
0.999661
0.999661
0.999661
0.999704
0.999997
0.999997
0.999997
0.999997
0.999994
0.999989
0.99988
0.99975
0.999647
0.999645
0.644447
0.166144
0.36121
0.0044267
0.00442677