/*--------------------------------*- C++ -*----------------------------------*\
  =========                 |
  \\      /  F ield         | OpenFOAM: The Open Source CFD Toolbox
   \\    /   O peration     | Website:  https://openfoam.org
    \\  /    A nd           | Version:  8
     \\/     M anipulation  |
\*---------------------------------------------------------------------------*/
FoamFile
{
    version     2.0;
    format      ascii;
    class       volScalarField;
    location    "1.65";
    object      k;
}
// * * * * * * * * * * * * * * * * * * * * * * * * * * * * * * * * * * * * * //

dimensions      [0 2 -2 0 0 0 0];

internalField   nonuniform List<scalar> 
9150
(
0.00182796
0.000942415
0.000484744
0.000323196
0.000231395
0.000231387
0.000323191
0.000484725
0.00094237
0.00182798
0.00178512
0.000748368
0.000408371
0.000276767
0.000195206
0.0001952
0.00027676
0.000408359
0.000748335
0.00178513
0.0017137
0.000653163
0.000375716
0.00025608
0.000180967
0.000180963
0.000256075
0.000375709
0.00065314
0.0017137
0.00163515
0.000603242
0.000362815
0.000247925
0.00017573
0.000175727
0.000247922
0.000362811
0.000603226
0.00163515
0.00155169
0.000581788
0.000358157
0.000245135
0.000174207
0.000174205
0.000245132
0.000358154
0.000581776
0.00155169
0.00285473
0.0026
0.00196509
0.00179933
0.00159517
0.00159575
0.00180091
0.00196762
0.00260329
0.00285528
0.00230552
0.00151395
0.00134177
0.00133667
0.00117263
0.00117288
0.00133739
0.00134289
0.00151462
0.00230553
0.00204924
0.00125564
0.000920122
0.000886019
0.00075415
0.000754242
0.000886314
0.000920515
0.00125577
0.00204922
0.00186767
0.00111253
0.000668003
0.000577443
0.00046583
0.000465852
0.000577534
0.000668108
0.0011125
0.00186766
0.00178769
0.00102252
0.000536262
0.000401614
0.000304582
0.000304581
0.00040163
0.000536267
0.00102246
0.00178769
0.0092122
0.00454313
0.00268494
0.00209109
0.00181488
0.00181356
0.00209112
0.00269083
0.00460055
0.00944716
0.0049098
0.00389095
0.0026431
0.00208856
0.00182654
0.0018265
0.00209073
0.00264309
0.00385974
0.004925
0.00441993
0.00349568
0.00262069
0.0020863
0.0018387
0.00183956
0.00208968
0.00262432
0.00348717
0.00442542
0.00392834
0.00320636
0.00260366
0.00208378
0.00185044
0.00185173
0.00208701
0.00260734
0.00320933
0.00393074
0.00336653
0.00314807
0.00249511
0.0020362
0.00182321
0.0018244
0.00203888
0.00249866
0.00315396
0.00336757
0.301399
0.301856
0.302128
0.30211
0.301742
0.300992
0.299839
0.298268
0.296259
0.293784
0.625239
0.626146
0.626324
0.625772
0.624482
0.622441
0.619636
0.616047
0.611658
0.606446
0.777203
0.778436
0.778795
0.778284
0.776898
0.774626
0.771453
0.76736
0.762329
0.75634
0.881617
0.883121
0.883708
0.88338
0.882129
0.879943
0.876801
0.87268
0.867557
0.861405
0.966581
0.968331
0.969183
0.969136
0.968175
0.966282
0.963429
0.959584
0.95471
0.948769
1.04205
1.04403
1.04519
1.0455
1.04497
1.04354
1.0412
1.03789
1.03355
1.02814
1.11264
1.11484
1.11634
1.11711
1.11713
1.11635
1.11474
1.11223
1.10874
1.1042
1.18073
1.18316
1.18505
1.18637
1.18709
1.18716
1.18653
1.18511
1.18282
1.17954
1.24758
1.25024
1.25257
1.25455
1.25613
1.25726
1.25787
1.25789
1.2572
1.25567
1.3137
1.31661
1.31944
1.32218
1.32478
1.32718
1.32933
1.33113
1.33247
1.33323
1.37914
1.38231
1.38571
1.38931
1.39307
1.39695
1.40088
1.40478
1.40857
1.41213
1.44362
1.44709
1.45111
1.45566
1.46071
1.46621
1.47212
1.47839
1.48494
1.4917
1.50666
1.51045
1.51515
1.52073
1.52716
1.5344
1.54242
1.55118
1.56064
1.57078
1.56763
1.57179
1.57723
1.58391
1.5918
1.60087
1.61107
1.62237
1.63474
1.64812
1.62585
1.63045
1.6367
1.64457
1.65401
1.66498
1.67746
1.69138
1.70671
1.72337
1.68061
1.68573
1.69289
1.70204
1.71313
1.72614
1.74102
1.75773
1.77622
1.79642
1.73116
1.73693
1.74512
1.75566
1.76852
1.78367
1.80109
1.82077
1.84268
1.86678
1.77681
1.78337
1.7927
1.80474
1.81947
1.83686
1.85692
1.87965
1.90508
1.93325
1.8169
1.82441
1.83501
1.84865
1.8653
1.88497
1.90767
1.93344
1.96235
1.99446
1.8509
1.85952
1.8715
1.88681
1.90541
1.92733
1.95261
1.98132
2.01354
2.04938
1.87837
1.88828
1.90176
1.91878
1.93933
1.96343
1.99116
2.02261
2.05791
2.09722
1.8991
1.91047
1.92555
1.94429
1.96672
1.99288
2.02287
2.05681
2.09486
2.13722
1.91306
1.92606
1.9428
1.96326
1.98748
2.01552
2.04751
2.08359
2.12394
2.1688
1.92052
1.93528
1.95371
1.97583
2.0017
2.03141
2.06509
2.10293
2.14513
2.19192
1.92202
1.9386
1.9587
1.98237
2.00969
2.04079
2.07585
2.11505
2.15866
2.20696
1.91839
1.93676
1.95841
1.98343
2.01195
2.04412
2.08014
2.12023
2.16466
2.21377
1.91069
1.93067
1.95366
1.97977
2.00918
2.04204
2.07857
2.11899
2.16358
2.21265
1.90008
1.92137
1.94537
1.97226
2.0022
2.03538
2.07201
2.11232
2.15653
2.20493
1.88759
1.90977
1.93443
1.96173
1.99187
2.02504
2.06144
2.10131
2.14485
2.1923
1.87398
1.89664
1.92155
1.94891
1.97891
2.01176
2.04768
2.0869
2.12964
2.17616
1.85978
1.8825
1.90728
1.93433
1.96387
1.9961
2.03126
2.06959
2.11136
2.15685
1.84531
1.86769
1.89199
1.9184
1.94713
1.97842
2.0125
2.04963
2.09008
2.13418
1.83078
1.8525
1.87597
1.9014
1.92901
1.95901
1.99166
2.0272
2.06594
2.10817
1.81638
1.83712
1.85948
1.88363
1.90979
1.93818
1.96904
2.00262
2.03921
2.0791
1.80226
1.82179
1.84276
1.86537
1.8898
1.91628
1.94502
1.97628
2.01031
2.04742
1.78861
1.80672
1.8261
1.84694
1.86941
1.89372
1.92006
1.94867
1.97978
2.01369
1.7756
1.79214
1.80979
1.8287
1.84903
1.87097
1.89469
1.92039
1.94828
1.97861
1.76344
1.77832
1.79413
1.81101
1.82911
1.84857
1.86953
1.89217
1.91665
1.94315
1.7523
1.76547
1.77942
1.79425
1.81009
1.82705
1.84525
1.86481
1.88585
1.90849
1.74232
1.7538
1.7659
1.77873
1.79237
1.80691
1.82245
1.83906
1.85682
1.8758
1.73361
1.74343
1.75376
1.76467
1.77623
1.78852
1.80159
1.8155
1.83029
1.84599
1.72619
1.73444
1.74309
1.75221
1.76186
1.77209
1.78295
1.79447
1.80667
1.81956
1.72007
1.72682
1.7339
1.74137
1.74928
1.75768
1.76659
1.77604
1.78605
1.7966
1.71516
1.7205
1.72612
1.73208
1.73842
1.74519
1.75241
1.7601
1.76826
1.7769
1.71136
1.71536
1.71962
1.72419
1.72912
1.73444
1.74019
1.74638
1.75301
1.76008
1.70852
1.71125
1.71422
1.7175
1.72114
1.72518
1.72964
1.73454
1.73989
1.74568
1.70649
1.70797
1.70971
1.71179
1.71424
1.71711
1.72044
1.72423
1.7285
1.73323
1.70509
1.70533
1.70588
1.70679
1.70813
1.70994
1.71224
1.71505
1.7184
1.72226
1.70414
1.70313
1.70248
1.70226
1.70252
1.70332
1.70469
1.70664
1.70918
1.71231
1.70347
1.70116
1.69928
1.69791
1.69712
1.69695
1.69744
1.6986
1.70045
1.70297
1.7029
1.69919
1.69603
1.69348
1.69163
1.6905
1.69015
1.69058
1.69181
1.69382
1.70223
1.69701
1.69247
1.68869
1.68574
1.68366
1.68249
1.68224
1.68292
1.68451
1.70127
1.69437
1.68834
1.68325
1.67916
1.67612
1.67414
1.67325
1.67344
1.6747
1.69974
1.691
1.68335
1.67687
1.6716
1.66757
1.66481
1.66331
1.66308
1.66408
1.69728
1.68653
1.67717
1.66923
1.66274
1.65774
1.65421
1.65216
1.65156
1.6524
1.69343
1.68057
1.66943
1.66001
1.65232
1.64636
1.64212
1.63958
1.6387
1.63946
1.68763
1.67265
1.65975
1.64889
1.64006
1.63322
1.62834
1.6254
1.62434
1.62512
1.67932
1.66233
1.64778
1.6356
1.62574
1.61815
1.61277
1.60954
1.60841
1.60933
1.66806
1.64927
1.63327
1.61996
1.60926
1.60108
1.59536
1.59201
1.59097
1.59216
1.65357
1.63328
1.6161
1.60191
1.59059
1.58205
1.5762
1.57294
1.57218
1.57383
1.63586
1.6144
1.59633
1.58153
1.56985
1.56121
1.55548
1.55256
1.55234
1.55471
1.61516
1.59284
1.57418
1.55902
1.54726
1.53877
1.53345
1.53118
1.53184
1.53529
1.59193
1.56901
1.54997
1.53469
1.52307
1.51501
1.51041
1.50915
1.5111
1.51609
1.56679
1.5434
1.52413
1.50888
1.4976
1.49021
1.48663
1.48678
1.4905
1.49761
1.54043
1.51658
1.49708
1.48192
1.47107
1.46454
1.46228
1.46423
1.47028
1.48022
1.51355
1.4891
1.46925
1.45409
1.44367
1.43808
1.43735
1.44149
1.45043
1.46398
1.48693
1.46155
1.44105
1.42562
1.41547
1.41077
1.41168
1.4183
1.43063
1.44854
1.46139
1.43454
1.41285
1.3967
1.38644
1.38242
1.38492
1.39417
1.41029
1.43321
1.43786
1.40869
1.38503
1.36745
1.35652
1.35275
1.35663
1.36852
1.38867
1.41709
1.41719
1.38453
1.35783
1.3379
1.32552
1.32144
1.32634
1.3408
1.36515
1.3995
1.39995
1.36232
1.33134
1.30795
1.29321
1.28811
1.29361
1.31053
1.33937
1.38033
1.38567
1.34187
1.30537
1.27737
1.25924
1.25233
1.25795
1.27721
1.31091
1.35947
1.37461
1.3233
1.27986
1.24591
1.22322
1.21357
1.21867
1.24006
1.27894
1.33604
1.36762
1.30692
1.25479
1.2133
1.18469
1.17118
1.17498
1.19811
1.24228
1.3087
1.36474
1.2926
1.22979
1.179
1.14296
1.12441
1.126
1.15027
1.19958
1.27572
1.36593
1.27976
1.20399
1.142
1.09711
1.07238
1.07084
1.09558
1.14961
1.2354
1.37019
1.26663
1.17552
1.10073
1.0458
1.01402
1.0087
1.03336
1.0916
1.1865
1.37365
1.24961
1.14131
1.05267
0.987196
0.94819
0.93902
0.963445
1.02549
1.12871
1.36781
1.22226
1.09672
0.994708
0.91947
0.874085
0.861784
0.886368
0.952074
1.06266
1.34365
1.1783
1.03772
0.924588
0.84169
0.791794
0.777881
0.803611
0.873164
0.990188
1.29278
1.11328
0.962356
0.841947
0.75456
0.702772
0.689328
0.717596
0.791377
0.913911
1.21264
1.02752
0.872293
0.749145
0.660777
0.60991
0.599174
0.631441
0.709633
0.836168
1.11412
0.927716
0.772822
0.65082
0.564513
0.517046
0.511088
0.548665
0.631057
0.759273
0.997551
0.81833
0.669478
0.552236
0.470314
0.428123
0.428712
0.472723
0.558844
0.686154
0.870465
0.708208
0.569907
0.459242
0.382483
0.346503
0.355
0.40631
0.495542
0.61959
0.763182
0.613115
0.482806
0.37681
0.304047
0.274337
0.291733
0.35085
0.442537
0.561419
0.67857
0.535403
0.409808
0.30627
0.235952
0.212335
0.239312
0.306336
0.400306
0.514008
0.611397
0.472025
0.349106
0.24696
0.178067
0.16012
0.196636
0.270971
0.367749
0.480014
0.558691
0.420441
0.299047
0.1979
0.129783
0.116598
0.16155
0.241676
0.340829
0.452736
0.513095
0.376461
0.256647
0.157356
0.0900488
0.0806412
0.131998
0.216497
0.318436
0.431875
0.47408
0.338169
0.219659
0.122629
0.0580805
0.0517072
0.105953
0.193495
0.299628
0.41771
0.440515
0.303714
0.185417
0.0916751
0.0339095
0.0299116
0.0816728
0.170444
0.282527
0.409754
0.410428
0.271102
0.152066
0.0637729
0.0176001
0.0153336
0.0584628
0.145259
0.26402
0.40472
0.382242
0.238333
0.118581
0.0396983
0.00825082
0.00716701
0.0373522
0.116864
0.240769
0.39796
0.353527
0.203079
0.0850295
0.0212985
0.00392423
0.00353689
0.0206271
0.085926
0.209818
0.383779
0.319722
0.163416
0.053696
0.00996046
0.00238032
0.00228286
0.00998036
0.0555619
0.169589
0.354442
0.278792
0.119763
0.0288867
0.0046459
0.00193264
0.0019209
0.00482416
0.0306401
0.122084
0.302947
0.216554
0.074208
0.0130053
0.00273687
0.00181972
0.00182343
0.00291685
0.014639
0.0743193
0.225217
0.140925
0.038147
0.00600529
0.00224784
0.00180142
0.00180144
0.00232115
0.00695457
0.0376922
0.129575
0.0709166
0.017698
0.00357546
0.0021231
0.00180515
0.00180331
0.00214149
0.0039405
0.0182885
0.0630306
0.290566
0.286686
0.282183
0.277048
0.271278
0.264882
0.257873
0.250273
0.242114
0.233489
0.225043
0.216764
0.208462
0.200101
0.191715
0.183363
0.175106
0.166996
0.159071
0.151348
0.14383
0.136505
0.129356
0.12236
0.115497
0.108755
0.102122
0.0955898
0.0891471
0.0827797
0.076468
0.0701841
0.0638875
0.05751
0.0508661
0.043799
0.0364442
0.0283151
0.020036
0.00919783
0.600013
0.592214
0.583359
0.573456
0.562527
0.550609
0.537756
0.524035
0.509529
0.494327
0.4785
0.462258
0.445748
0.4291
0.412438
0.395874
0.379495
0.363366
0.347521
0.331978
0.316731
0.301765
0.28706
0.272593
0.258347
0.244307
0.230463
0.216801
0.203304
0.189946
0.17669
0.163484
0.150258
0.13691
0.123293
0.109211
0.0945915
0.0785378
0.0589036
0.0258187
0.748944
0.739917
0.729653
0.718165
0.70548
0.691646
0.676731
0.660824
0.64403
0.626467
0.608258
0.58952
0.570374
0.550941
0.531341
0.511678
0.492042
0.472498
0.453099
0.433882
0.414872
0.396087
0.37754
0.359237
0.341177
0.323359
0.305775
0.288415
0.271262
0.25429
0.237459
0.220717
0.20399
0.187172
0.170113
0.152579
0.134153
0.113801
0.08793
0.0400995
0.853752
0.844325
0.833538
0.821389
0.807901
0.793116
0.777105
0.759962
0.741803
0.722763
0.702979
0.682559
0.661626
0.640303
0.618713
0.596966
0.575149
0.553328
0.531559
0.509891
0.488363
0.467013
0.445873
0.424967
0.404312
0.383915
0.363778
0.343894
0.324249
0.304816
0.285559
0.26642
0.24732
0.228139
0.208689
0.188647
0.167383
0.14341
0.112064
0.0518825
0.941283
0.931933
0.921104
0.908771
0.894931
0.879608
0.862863
0.84479
0.825517
0.805196
0.783989
0.762015
0.739422
0.716354
0.692953
0.669347
0.645636
0.621876
0.598126
0.574443
0.550867
0.527438
0.504201
0.481203
0.458471
0.43602
0.413852
0.391962
0.370335
0.348943
0.327744
0.306672
0.285632
0.264476
0.242964
0.220679
0.196804
0.16947
0.133042
0.0622167
1.02118
1.0123
1.00182
0.98967
0.975796
0.96019
0.942883
0.923967
0.903588
0.881938
0.859203
0.835553
0.811183
0.786275
0.760996
0.735505
0.709923
0.684307
0.658688
0.633124
0.607664
0.582332
0.557197
0.532334
0.507769
0.48351
0.459559
0.435908
0.412537
0.389414
0.366485
0.343672
0.320858
0.297863
0.274393
0.249943
0.223537
0.192989
0.151792
0.0711057
1.09815
1.09017
1.08047
1.06889
1.05533
1.03968
1.02193
1.00213
0.980489
0.957274
0.932712
0.907091
0.880678
0.853703
0.826362
0.798829
0.77125
0.743713
0.716222
0.688774
0.661411
0.634209
0.607262
0.580627
0.554321
0.528351
0.502715
0.4774
0.45238
0.427612
0.403031
0.378543
0.354009
0.329212
0.303812
0.27722
0.248325
0.214654
0.168915
0.0790951
1.17488
1.16836
1.16001
1.14959
1.13683
1.12151
1.10344
1.08258
1.05927
1.03399
1.00709
0.979013
0.950157
0.920804
0.891157
0.861379
0.831616
0.801972
0.772455
0.743056
0.71379
0.68471
0.655928
0.627501
0.599444
0.57176
0.544442
0.517469
0.490807
0.464402
0.438176
0.412018
0.385763
0.359163
0.33183
0.303101
0.27174
0.235012
0.184892
0.086422
1.253
1.24866
1.24249
1.23409
1.22298
1.20867
1.19071
1.16849
1.14254
1.11414
1.08399
1.05282
1.02109
0.989059
0.95687
0.924652
0.892526
0.860598
0.828892
0.797375
0.766041
0.734961
0.70424
0.673929
0.64404
0.614572
0.585511
0.556828
0.52848
0.500401
0.472498
0.44464
0.41664
0.388217
0.358935
0.328065
0.294248
0.254501
0.200107
0.0932848
1.33323
1.33197
1.32902
1.32383
1.31578
1.30417
1.28845
1.26463
1.23207
1.19811
1.16396
1.1295
1.09478
1.05989
1.02493
0.990035
0.955311
0.920841
0.88664
0.852706
0.819058
0.785781
0.752951
0.720605
0.68875
0.657381
0.626474
0.595994
0.565885
0.536069
0.506435
0.476834
0.447051
0.416774
0.385523
0.352498
0.316224
0.273477
0.214869
0.099849
1.41549
1.41825
1.41977
1.41949
1.41661
1.40971
1.39014
1.35806
1.32287
1.28532
1.24793
1.21042
1.17264
1.13465
1.0966
1.05864
1.02091
0.983489
0.946417
0.909726
0.87348
0.837751
0.802587
0.768009
0.734019
0.700601
0.667724
0.635335
0.603374
0.571743
0.540316
0.508918
0.47731
0.445146
0.411899
0.376702
0.337962
0.292217
0.229416
0.10625
1.49901
1.5067
1.51418
1.52112
1.52601
1.51433
1.48146
1.44787
1.41303
1.37565
1.33679
1.29674
1.25582
1.21436
1.17271
1.13114
1.08986
1.04898
1.0086
0.968798
0.929633
0.891157
0.8534
0.816373
0.780063
0.744443
0.709467
0.67507
0.641168
0.607647
0.57436
0.541113
0.507638
0.473555
0.438289
0.400901
0.359682
0.31093
0.243931
0.112626
1.58223
1.59525
1.60951
1.62549
1.62476
1.60197
1.57599
1.54675
1.51391
1.47583
1.43457
1.39097
1.34584
1.29993
1.25381
1.20786
1.16236
1.11747
1.07333
1.03001
0.98757
0.946042
0.905438
0.865746
0.826937
0.788964
0.751763
0.71525
0.67932
0.643839
0.60864
0.573501
0.538127
0.502102
0.464801
0.425216
0.381513
0.329746
0.258536
0.119229
1.66341
1.68089
1.69981
1.7141
1.71068
1.69665
1.67939
1.65782
1.63049
1.59091
1.5451
1.49531
1.44382
1.39183
1.33997
1.28867
1.23819
1.1887
1.14031
1.09308
1.04704
1.00219
0.958513
0.915972
0.874511
0.83406
0.794532
0.755819
0.717794
0.680301
0.643148
0.606087
0.568794
0.530814
0.491473
0.449689
0.403506
0.348726
0.273294
0.125883
1.74242
1.76414
1.78714
1.80292
1.8027
1.79614
1.78605
1.77168
1.7516
1.72483
1.67078
1.61015
1.54937
1.48932
1.43036
1.37272
1.31655
1.26192
1.20887
1.15741
1.10752
1.05914
1.01223
0.966709
0.922494
0.879484
0.837563
0.7966
0.756442
0.716909
0.677782
0.63879
0.599573
0.55964
0.518268
0.4743
0.425655
0.367886
0.288254
0.13262
1.81964
1.84619
1.87413
1.89433
1.90088
1.90348
1.90316
1.8983
1.88533
1.8559
1.80444
1.73074
1.65898
1.58974
1.52287
1.45831
1.39601
1.33592
1.27798
1.22211
1.16823
1.11623
1.06601
1.01746
0.970458
0.924863
0.880536
0.837315
0.795023
0.753454
0.712364
0.671451
0.630328
0.588465
0.545088
0.498966
0.447896
0.38718
0.303388
0.139443
1.89474
1.92711
1.96163
1.98842
2.00385
2.01814
2.03167
2.04005
2.02477
1.98401
1.93236
1.84894
1.76751
1.68946
1.61475
1.54324
1.47477
1.4092
1.34636
1.28609
1.22824
1.17265
1.11917
1.06763
1.01788
0.969742
0.92305
0.877614
0.833229
0.789664
0.74665
0.703859
0.660871
0.61712
0.571783
0.523558
0.470118
0.406516
0.318626
0.146327
1.96616
2.00469
2.04632
2.08097
2.10636
2.13349
2.1633
2.18411
2.15853
2.1137
2.05834
1.96462
1.87284
1.78595
1.70357
1.62535
1.55098
1.48016
1.41264
1.34818
1.28655
1.22754
1.17095
1.11656
1.06418
1.01362
0.964662
0.917103
0.870709
0.825227
0.780362
0.73576
0.690973
0.6454
0.598169
0.547907
0.49217
0.425763
0.333868
0.153237
2.03213
2.07645
2.12477
2.16723
2.20209
2.24017
2.2821
2.3118
2.2794
2.23117
2.17349
2.07182
1.97069
1.87589
1.78667
1.70245
1.62277
1.54724
1.4755
1.40724
1.34218
1.28005
1.2206
1.16359
1.10879
1.05598
1.00492
0.955379
0.907103
0.859816
0.813203
0.766886
0.72039
0.673078
0.624037
0.571823
0.513877
0.444759
0.348959
0.160095
2.09148
2.14106
2.19566
2.24615
2.28975
2.33807
2.39199
2.42472
2.38177
2.33056
2.27093
2.16418
2.05686
1.95622
1.86165
1.77259
1.68854
1.60907
1.53376
1.46226
1.39424
1.3294
1.26745
1.20813
1.15118
1.09635
1.0434
0.992056
0.942059
0.893113
0.844882
0.796969
0.748873
0.699927
0.649175
0.595109
0.535056
0.463344
0.363784
0.166858
2.14344
2.19801
2.25853
2.31635
2.36703
2.42398
2.48906
2.5166
2.46259
2.40879
2.34998
2.24211
2.1305
2.02565
1.92714
1.83446
1.74711
1.6646
1.5865
1.51243
1.44203
1.37497
1.31095
1.24968
1.1909
1.13433
1.07972
1.02679
0.975266
0.924828
0.875131
0.825759
0.776189
0.725728
0.673378
0.617572
0.555529
0.481349
0.378185
0.173446
2.18707
2.24607
2.31188
2.37627
2.43062
2.48992
2.55701
2.58082
2.52309
2.46529
2.41124
2.30737
2.19149
2.08344
1.98229
1.88726
1.79774
1.71319
1.63316
1.55724
1.48507
1.41633
1.35069
1.28788
1.2276
1.1696
1.1136
1.05932
1.00646
0.954717
0.903719
0.853038
0.802133
0.750285
0.696461
0.639036
0.575128
0.498619
0.392028
0.179798
2.22151
2.2838
2.3532
2.42534
2.48244
2.53696
2.59683
2.6159
2.5607
2.50345
2.45144
2.35241
2.23642
2.12803
2.02634
1.9306
1.8402
1.75465
1.67354
1.5965
1.52318
1.45327
1.38647
1.3225
1.26108
1.20194
1.14481
1.08941
1.03545
0.982586
0.93046
0.878628
0.826533
0.773435
0.718267
0.659353
0.593715
0.515032
0.405222
0.185876
2.24675
2.31126
2.38246
2.46013
2.52568
2.57509
2.62729
2.6389
2.58454
2.52663
2.47306
2.37841
2.26625
2.16034
2.06013
1.96514
1.87499
1.78935
1.7079
1.63035
1.55641
1.4858
1.41825
1.35348
1.29123
1.23125
1.17325
1.11696
1.06209
1.0083
0.955222
0.902396
0.849259
0.795049
0.738671
0.678402
0.611174
0.530477
0.417667
0.191632
2.26358
2.3304
2.40475
2.48745
2.56148
2.61075
2.65224
2.65194
2.60006
2.53807
2.47887
2.39115
2.2858
2.18403
2.0863
1.99278
1.90345
1.8182
1.73687
1.65923
1.58505
1.51409
1.44611
1.38085
1.31806
1.25749
1.19886
1.14191
1.08633
1.03179
0.97792
0.924256
0.870221
0.815037
0.757584
0.696093
0.627416
0.544867
0.429277
0.197019
2.2713
2.33928
2.41523
2.50043
2.59062
2.64876
2.67022
2.65792
2.60956
2.54593
2.48508
2.4056
2.3045
2.20501
2.10865
2.016
1.92724
1.84235
1.76122
1.68366
1.60947
1.53841
1.47024
1.40473
1.34163
1.28068
1.22164
1.16421
1.1081
1.05299
0.998489
0.944137
0.889345
0.833324
0.774931
0.712356
0.64238
0.558151
0.440021
0.20213
2.26987
2.33711
2.41169
2.49444
2.58616
2.65977
2.67977
2.66729
2.61998
2.55609
2.49592
2.4283
2.32947
2.22709
2.1294
2.03622
1.94734
1.86251
1.78151
1.70408
1.62999
1.55899
1.49083
1.42526
1.36204
1.30092
1.24163
1.1839
1.12743
1.0719
1.01692
0.962015
0.906601
0.849873
0.790667
0.727139
0.656003
0.570259
0.449823
0.20688
2.26104
2.32648
2.39841
2.47737
2.56409
2.64099
2.66502
2.66109
2.62583
2.56543
2.50774
2.44684
2.35106
2.2458
2.14654
2.05262
1.96349
1.87869
1.79787
1.72067
1.64682
1.57603
1.50804
1.44258
1.37941
1.31828
1.25891
1.20103
1.14436
1.08855
1.03322
0.977898
0.921988
0.864675
0.804777
0.740421
0.668261
0.581166
0.458665
0.211217
2.24706
2.31049
2.3795
2.45392
2.53302
2.61417
2.65745
2.65592
2.63034
2.57438
2.51375
2.45625
2.36346
2.25732
2.15776
2.0639
1.97503
1.89061
1.81022
1.73347
1.66005
1.58965
1.52199
1.45681
1.39386
1.33286
1.27356
1.21569
1.15894
1.10299
1.04744
0.991819
0.93553
0.877746
0.817273
0.752207
0.679153
0.590865
0.46654
0.2152
2.22983
2.29205
2.35995
2.43374
2.51342
2.59863
2.66416
2.67595
2.64711
2.58504
2.51797
2.45471
2.36317
2.25983
2.16208
2.06951
1.98168
1.89814
1.81854
1.74252
1.66975
1.59994
1.5328
1.46807
1.40548
1.34478
1.28569
1.22795
1.17126
1.11528
1.05963
1.00383
0.947275
0.88913
0.828188
0.762523
0.688691
0.599337
0.473345
0.218358
2.20945
2.27073
2.33821
2.4127
2.49541
2.58838
2.67653
2.69893
2.66226
2.59303
2.51749
2.44701
2.35639
2.25653
2.16114
2.07033
1.9839
1.90157
1.82303
1.74796
1.67606
1.60703
1.54059
1.47647
1.4144
1.35414
1.2954
1.23793
1.18141
1.12553
1.06989
1.01401
0.95729
0.898887
0.837583
0.771433
0.696951
0.606694
0.479284
0.22124
2.18525
2.2449
2.31077
2.38365
2.46446
2.55422
2.65365
2.71269
2.67537
2.59862
2.51653
2.44149
2.34998
2.25107
2.15692
2.06742
1.9823
1.90124
1.82391
1.74997
1.67912
1.61105
1.54548
1.48213
1.42074
1.36105
1.3028
1.24571
1.1895
1.13382
1.07829
1.02244
0.965654
0.907094
0.845531
0.779006
0.704003
0.613012
0.484446
0.223914
2.15711
2.21432
2.27753
2.34746
2.42493
2.51092
2.60669
2.6858
2.67171
2.59631
2.51172
2.43435
2.34161
2.24259
2.14911
2.0607
1.97688
1.89719
1.82123
1.74861
1.67901
1.61209
1.54757
1.48516
1.4246
1.36564
1.308
1.25143
1.19562
1.14026
1.08495
1.02922
0.97246
0.913833
0.852106
0.785307
0.709897
0.61831
0.48879
0.226212
2.12533
2.17938
2.23909
2.30505
2.37784
2.45801
2.54582
2.64011
2.66859
2.59164
2.50191
2.42107
2.32692
2.2285
2.13619
2.04928
1.96712
1.88915
1.81487
1.74386
1.67576
1.61023
1.54696
1.48568
1.42613
1.36803
1.31115
1.25521
1.19992
1.14497
1.08997
1.03445
0.977806
0.919199
0.857393
0.790411
0.714692
0.622622
0.49229
0.227903
2.09043
2.14075
2.19638
2.25792
2.32599
2.40119
2.48407
2.5748
2.62471
2.56613
2.47937
2.39773
2.30244
2.20638
2.11657
2.03217
1.95244
1.87677
1.80466
1.73567
1.66941
1.60555
1.54378
1.48384
1.42545
1.36839
1.31239
1.2572
1.20254
1.14809
1.09349
1.03826
0.981808
0.923296
0.86149
0.794408
0.718479
0.626054
0.495122
0.229482
2.05298
2.09895
2.14984
2.20631
2.26912
2.33924
2.41804
2.50763
2.57887
2.53362
2.44565
2.36069
2.26536
2.17475
2.08939
2.00883
1.93253
1.85995
1.79062
1.72412
1.66009
1.59821
1.5382
1.47981
1.42278
1.36689
1.31191
1.25758
1.20364
1.14978
1.09565
1.04079
0.984592
0.926241
0.864502
0.797392
0.721336
0.628663
0.497292
0.230718
2.01369
2.05465
2.09993
2.1501
2.20587
2.26803
2.33754
2.41538
2.50177
2.49769
2.40398
2.31378
2.22146
2.13578
2.05548
1.97968
1.90769
1.83894
1.77301
1.7095
1.6481
1.58852
1.53053
1.47389
1.41838
1.36381
1.30994
1.25657
1.20343
1.15023
1.09663
1.04219
0.986303
0.928163
0.866542
0.799462
0.723345
0.630511
0.498833
0.23164
1.97369
2.00914
2.04809
2.09097
2.1383
2.19078
2.24939
2.31596
2.39419
2.40465
2.33539
2.24698
2.16477
2.08766
2.01469
1.94517
1.87856
1.81444
1.75249
1.69241
1.63398
1.57697
1.52119
1.46646
1.41261
1.35944
1.30679
1.25443
1.20215
1.14966
1.09663
1.04264
0.9871
0.929205
0.867739
0.800728
0.7246
0.631671
0.499799
0.23227
1.9344
1.96419
1.99654
2.0316
2.06952
2.11032
2.1538
2.19923
2.24455
2.28209
2.23882
2.16753
2.09926
2.03332
1.96939
1.90726
1.84679
1.78782
1.73021
1.67383
1.61856
1.56425
1.5108
1.45806
1.40591
1.35421
1.30279
1.25148
1.20007
1.14831
1.09587
1.04234
0.987163
0.929529
0.868234
0.801316
0.725207
0.63223
0.500251
0.232613
1.89733
1.92181
1.94799
1.97585
2.00524
2.03586
2.0671
2.09788
2.12641
2.14957
2.13455
2.08608
2.03329
1.97895
1.92413
1.86938
1.81498
1.76109
1.70777
1.65504
1.60287
1.55123
1.50006
1.44928
1.39881
1.34854
1.29834
1.24805
1.1975
1.14645
1.09459
1.04151
0.986683
0.929304
0.868181
0.801359
0.725284
0.63229
0.500269
0.232717
1.86366
1.88352
1.90447
1.92639
1.94905
1.97207
1.99489
2.01668
2.0363
2.05179
2.05173
2.02069
1.97782
1.93173
1.88393
1.83516
1.78588
1.73638
1.68683
1.63736
1.588
1.5388
1.48973
1.44076
1.39185
1.34291
1.29384
1.24451
1.19476
1.14436
1.09302
1.04037
0.985858
0.928709
0.867737
0.801001
0.724956
0.631957
0.49994
0.232619
1.83398
1.85006
1.86685
1.88422
1.90193
1.91967
1.93701
1.9534
1.96817
1.98043
1.98808
1.97252
1.93543
1.89438
1.85127
1.80677
1.76132
1.71522
1.6687
1.62189
1.57489
1.52774
1.48048
1.43308
1.38552
1.33775
1.28967
1.24119
1.19213
1.1423
1.09143
1.03913
0.984882
0.927918
0.867062
0.800383
0.72435
0.63134
0.499347
0.232351
1.80837
1.82145
1.83505
1.84902
1.8632
1.87732
1.89109
1.90414
1.91604
1.92632
1.93406
1.93165
1.90445
1.86672
1.82655
1.78486
1.74205
1.69839
1.65411
1.60933
1.56415
1.51864
1.47282
1.42669
1.38024
1.33343
1.28617
1.23837
1.18988
1.14052
1.09001
1.03798
0.983933
0.927095
0.866304
0.799641
0.723587
0.630546
0.498575
0.231955
1.78655
1.79728
1.80844
1.81992
1.83155
1.84315
1.8545
1.86534
1.87538
1.88434
1.89194
1.89736
1.88325
1.8478
1.80924
1.7692
1.72807
1.68605
1.64331
1.59997
1.55611
1.5118
1.46706
1.4219
1.37629
1.3302
1.28357
1.23629
1.18823
1.1392
1.08894
1.0371
0.983166
0.926383
0.865597
0.798896
0.722779
0.629674
0.497709
0.231478
1.76804
1.77694
1.78625
1.79586
1.80565
1.81547
1.82513
1.83443
1.84315
1.85108
1.85799
1.86334
1.86141
1.83555
1.7981
1.75903
1.71891
1.67792
1.63618
1.5938
1.55084
1.50734
1.46335
1.41885
1.37383
1.32824
1.28203
1.2351
1.18731
1.13849
1.08837
1.03661
0.982703
0.925898
0.865049
0.798252
0.722019
0.628804
0.496807
0.230933
1.75228
1.75976
1.76765
1.77588
1.78433
1.79287
1.80134
1.80956
1.81737
1.82459
1.83108
1.83669
1.84075
1.82688
1.7917
1.75339
1.71391
1.67354
1.63241
1.59061
1.54819
1.5052
1.46165
1.41755
1.37288
1.32759
1.28162
1.23487
1.18721
1.13846
1.08837
1.0366
0.982625
0.925721
0.86474
0.797785
0.721381
0.628005
0.495929
0.230344
1.73874
1.7451
1.75193
1.75914
1.76663
1.77427
1.78191
1.78941
1.7966
1.8033
1.80939
1.81476
1.81903
1.81613
1.7895
1.75164
1.71244
1.67238
1.63156
1.59005
1.5479
1.50515
1.46182
1.4179
1.37337
1.32819
1.2823
1.23558
1.18792
1.13914
1.08897
1.03708
0.982971
0.925897
0.864718
0.797547
0.720915
0.627325
0.495113
0.229738
1.72689
1.73239
1.73842
1.7449
1.75172
1.75876
1.76588
1.77293
1.77972
1.7861
1.7919
1.79698
1.80117
1.80359
1.7883
1.75244
1.7136
1.67374
1.63306
1.59165
1.54957
1.50687
1.46357
1.41966
1.37512
1.32991
1.28395
1.23715
1.18938
1.14046
1.09013
1.03806
0.983735
0.926427
0.864996
0.797555
0.720645
0.62679
0.494387
0.22912
1.71624
1.72108
1.72654
1.73253
1.73894
1.74565
1.7525
1.75934
1.76597
1.77222
1.77788
1.78274
1.78661
1.78891
1.78329
1.75519
1.71679
1.67701
1.63634
1.59489
1.55275
1.50996
1.46655
1.42252
1.37785
1.33249
1.28638
1.23941
1.19145
1.14232
1.09177
1.03945
0.984866
0.927279
0.865551
0.797799
0.720568
0.626401
0.493752
0.22849
1.70634
1.71071
1.71579
1.7215
1.72773
1.73434
1.74117
1.74805
1.75478
1.76112
1.76684
1.77169
1.77536
1.77748
1.77673
1.7581
1.72119
1.68154
1.6408
1.59921
1.55689
1.51391
1.47031
1.42608
1.38121
1.33565
1.28932
1.24212
1.19392
1.14455
1.09374
1.04115
0.986273
0.92838
0.866329
0.798237
0.720654
0.626136
0.493187
0.22783
1.69677
1.70081
1.7057
1.71134
1.7176
1.72435
1.73142
1.7386
1.74568
1.75238
1.75844
1.76354
1.76731
1.76939
1.76891
1.75798
1.72626
1.68681
1.64587
1.60402
1.56143
1.51819
1.47435
1.4299
1.3848
1.33901
1.29245
1.24502
1.19658
1.14695
1.09587
1.043
0.987833
0.929628
0.867245
0.798804
0.720853
0.625955
0.492655
0.22726
1.68715
1.69102
1.69588
1.70164
1.70816
1.71529
1.72285
1.7306
1.73831
1.74567
1.75235
1.75797
1.76209
1.7642
1.76357
1.75763
1.73187
1.69223
1.65089
1.60868
1.56577
1.52226
1.47817
1.43351
1.38821
1.34222
1.29545
1.24781
1.19914
1.14927
1.09796
1.04484
0.989402
0.930914
0.868227
0.799453
0.721142
0.625862
0.4922
0.226765
1.67714
1.68097
1.68598
1.69205
1.69906
1.70682
1.71514
1.72378
1.73245
1.74081
1.74847
1.75499
1.75986
1.76248
1.76222
1.75764
1.73589
1.69689
1.65517
1.61259
1.56937
1.52561
1.48133
1.43649
1.39104
1.3449
1.29799
1.2502
1.20138
1.15134
1.09984
1.04651
0.990848
0.93211
0.869148
0.80007
0.721423
0.625778
0.491764
0.226258
1.66642
1.67037
1.6757
1.68229
1.69001
1.69869
1.7081
1.71798
1.72801
1.7378
1.74689
1.75473
1.7607
1.7641
1.76421
1.75955
1.73928
1.70066
1.65836
1.61536
1.57185
1.52787
1.48345
1.43852
1.39301
1.34681
1.29984
1.25198
1.20307
1.15292
1.10129
1.04781
0.991975
0.933039
0.869851
0.800516
0.721578
0.625613
0.491287
0.225714
1.65476
1.65896
1.66478
1.6721
1.68079
1.69068
1.70155
1.71314
1.72508
1.73693
1.74811
1.75791
1.76546
1.76979
1.77013
1.76516
1.74361
1.7034
1.66027
1.61678
1.57298
1.52887
1.48438
1.43942
1.39391
1.34772
1.30075
1.25288
1.20395
1.15377
1.10208
1.04852
0.992576
0.933509
0.870162
0.800636
0.721474
0.625257
0.490695
0.225108
1.64195
1.64654
1.653
1.66124
1.67112
1.68252
1.69524
1.70902
1.72353
1.73826
1.75254
1.76547
1.77589
1.78201
1.78239
1.77656
1.74853
1.7051
1.66113
1.61708
1.57292
1.5286
1.48401
1.43903
1.39353
1.3474
1.30049
1.25267
1.20379
1.15365
1.10197
1.04841
0.992438
0.933319
0.869891
0.800257
0.720959
0.624587
0.489899
0.224409
1.62785
1.63295
1.64018
1.64945
1.66068
1.67376
1.68856
1.70488
1.72246
1.74093
1.75981
1.77834
1.79505
1.80503
1.80088
1.78664
1.75097
1.70608
1.66113
1.61632
1.57164
1.52699
1.48223
1.43719
1.39172
1.34565
1.29885
1.25114
1.20238
1.15234
1.10075
1.04726
0.991349
0.932263
0.868847
0.799202
0.719875
0.62347
0.488802
0.223581
1.61241
1.61812
1.62618
1.63654
1.64912
1.66385
1.68065
1.69945
1.72022
1.74305
1.768
1.79487
1.81693
1.81973
1.81032
1.79264
1.75421
1.70678
1.66015
1.61424
1.56886
1.52378
1.4788
1.43369
1.38824
1.34227
1.29561
1.24808
1.19949
1.14962
1.09821
1.04487
0.989103
0.930145
0.86684
0.797295
0.718062
0.621768
0.4873
0.222587
1.59572
1.60213
1.61108
1.6225
1.6363
1.65243
1.67083
1.69157
1.71489
1.74102
1.76858
1.79342
1.81427
1.82778
1.82732
1.80134
1.75507
1.7052
1.6569
1.6099
1.56385
1.51841
1.47326
1.42814
1.38279
1.33699
1.29054
1.24324
1.19491
1.1453
1.09413
1.04105
0.985512