/*--------------------------------*- C++ -*----------------------------------*\
  =========                 |
  \\      /  F ield         | OpenFOAM: The Open Source CFD Toolbox
   \\    /   O peration     | Website:  https://openfoam.org
    \\  /    A nd           | Version:  8
     \\/     M anipulation  |
\*---------------------------------------------------------------------------*/
FoamFile
{
    version     2.0;
    format      ascii;
    class       volVectorField;
    location    "1.65";
    object      U;
}
// * * * * * * * * * * * * * * * * * * * * * * * * * * * * * * * * * * * * * //

dimensions      [0 1 -1 0 0 0 0];

internalField   nonuniform List<vector> 
9150
(
(0.053565 -0.428798 0)
(0.0878609 -0.622445 0)
(0.0733286 -0.631558 0)
(0.0486577 -0.643796 0)
(0.0170856 -0.654537 0)
(-0.0170558 -0.654542 0)
(-0.0486343 -0.643807 0)
(-0.0733119 -0.631568 0)
(-0.0878518 -0.622456 0)
(-0.053562 -0.428816 0)
(0.0404418 -0.522494 0)
(0.0572865 -0.625793 0)
(0.0422636 -0.613283 0)
(0.0293962 -0.622488 0)
(0.0105294 -0.62893 0)
(-0.0105109 -0.628933 0)
(-0.0293805 -0.622495 0)
(-0.0422515 -0.613289 0)
(-0.0572778 -0.625796 0)
(-0.0404377 -0.522508 0)
(0.0250548 -0.557796 0)
(0.0324688 -0.613991 0)
(0.023144 -0.60452 0)
(0.0172594 -0.609997 0)
(0.0062696 -0.613232 0)
(-0.00625829 -0.613234 0)
(-0.0172495 -0.61 0)
(-0.0231366 -0.604522 0)
(-0.0324626 -0.613991 0)
(-0.0250512 -0.557804 0)
(0.0152658 -0.584604 0)
(0.0174619 -0.607577 0)
(0.0117969 -0.601154 0)
(0.00887356 -0.603278 0)
(0.00325359 -0.604415 0)
(-0.00324653 -0.604415 0)
(-0.00886753 -0.603279 0)
(-0.0117924 -0.601156 0)
(-0.0174579 -0.607576 0)
(-0.0152636 -0.584607 0)
(0.00625136 -0.597131 0)
(0.00556374 -0.601436 0)
(0.00360039 -0.600041 0)
(0.00268202 -0.600347 0)
(0.000996946 -0.600486 0)
(-0.000992916 -0.600486 0)
(-0.00267872 -0.600347 0)
(-0.00359793 -0.600042 0)
(-0.00556155 -0.601436 0)
(-0.00625021 -0.597132 0)
(0.468388 -1.16066 1.66726e-24)
(0.283096 -1.08589 0)
(0.163194 -1.06929 0)
(0.09209 -1.05773 0)
(0.0305202 -1.05322 0)
(-0.030187 -1.05327 0)
(-0.091794 -1.05787 0)
(-0.162948 -1.0695 0)
(-0.282921 -1.08618 0)
(-0.468456 -1.16106 -1.67183e-24)
(0.333548 -0.843849 4.62736e-25)
(0.287683 -0.936574 0)
(0.188561 -0.936791 0)
(0.108151 -0.936819 0)
(0.0358385 -0.939292 0)
(-0.0356517 -0.939326 0)
(-0.10799 -0.936911 0)
(-0.188439 -0.936919 0)
(-0.287643 -0.936737 0)
(-0.333602 -0.84406 -4.63503e-25)
(0.277948 -0.701837 6.83308e-26)
(0.259235 -0.804584 0)
(0.178412 -0.817463 0)
(0.104556 -0.828402 0)
(0.034912 -0.836607 0)
(-0.0347977 -0.836626 0)
(-0.10446 -0.828455 0)
(-0.178348 -0.817537 0)
(-0.259218 -0.804669 0)
(-0.277971 -0.701933 -6.85265e-26)
(0.198657 -0.553949 3.06148e-25)
(0.216518 -0.709464 0)
(0.154551 -0.725912 0)
(0.0913329 -0.742095 0)
(0.0305937 -0.754059 0)
(-0.0305214 -0.754071 0)
(-0.0912738 -0.742127 0)
(-0.154511 -0.725952 0)
(-0.216505 -0.709507 0)
(-0.198666 -0.554004 -3.0612e-25)
(0.117744 -0.445581 -4.79711e-25)
(0.155976 -0.644455 -6.8419e-25)
(0.116902 -0.663872 -2.32255e-25)
(0.0709372 -0.681288 -1.52332e-25)
(0.0240145 -0.694316 -8.80344e-27)
(-0.0239676 -0.694324 -8.7736e-27)
(-0.0708993 -0.681307 -1.52252e-25)
(-0.116875 -0.663892 -2.3222e-25)
(-0.155965 -0.644477 -6.84189e-25)
(-0.117742 -0.445611 -4.79737e-25)
(0.0315352 -0.897829 0)
(-0.0274869 -1.33986 0)
(0.0246313 -1.27657 0)
(-0.00071952 -1.22864 0)
(0.00371421 -1.22567 0)
(-0.00106537 -1.22639 0)
(0.00488134 -1.22905 0)
(-0.0216307 -1.27629 0)
(0.0307357 -1.34368 0)
(-0.0286735 -0.908336 0)
(0.0536869 -0.897812 0)
(-0.0172862 -1.33487 0)
(0.0244384 -1.2731 0)
(0.00377743 -1.22678 0)
(0.00135412 -1.22406 0)
(0.00028066 -1.22452 0)
(-0.000932621 -1.22687 0)
(-0.0226677 -1.27332 0)
(0.0196375 -1.33568 0)
(-0.0521116 -0.905246 0)
(0.0801523 -0.939809 0)
(-0.020006 -1.34786 0)
(0.0165253 -1.27616 0)
(0.00788806 -1.23287 0)
(0.00076225 -1.22749 0)
(0.000505446 -1.22768 0)
(-0.00615786 -1.23295 0)
(-0.0155284 -1.27662 0)
(0.0220849 -1.34851 0)
(-0.0792003 -0.944392 0)
(0.146724 -1.07662 0)
(0.00589771 -1.36645 0)
(0.0144653 -1.27163 0)
(0.0224491 -1.22642 0)
(0.0067154 -1.21512 0)
(-0.00572768 -1.21518 0)
(-0.0215357 -1.22666 0)
(-0.0139071 -1.27197 0)
(-0.0044647 -1.36675 0)
(-0.146215 -1.07911 0)
(0.299763 -1.21638 0)
(0.129515 -1.32177 0)
(0.0689551 -1.21021 0)
(0.0562584 -1.16891 0)
(0.020407 -1.15681 0)
(-0.019828 -1.15688 0)
(-0.055783 -1.16916 0)
(-0.0684763 -1.21053 0)
(-0.128813 -1.32207 0)
(-0.299699 -1.21745 0)
(-0.0022728 -0.0464076 0)
(0.0280188 -0.0459387 0)
(0.0580969 -0.0452746 0)
(0.0878443 -0.0444623 0)
(0.117145 -0.0435178 0)
(0.145897 -0.042446 0)
(0.173988 -0.0412437 0)
(0.201303 -0.0399032 0)
(0.227718 -0.0384213 0)
(0.253104 -0.036817 0)
(-0.00116041 -0.0904507 0)
(0.0245338 -0.0898767 0)
(0.0500362 -0.0889664 0)
(0.0752417 -0.0877344 0)
(0.100055 -0.0861779 0)
(0.124374 -0.0842893 0)
(0.148087 -0.0820532 0)
(0.171078 -0.0794479 0)
(0.193222 -0.0764484 0)
(0.214401 -0.073029 0)
(-0.00014258 -0.135499 0)
(0.0219122 -0.134791 0)
(0.0438343 -0.133558 0)
(0.0655286 -0.131807 0)
(0.0868958 -0.129533 0)
(0.107836 -0.126721 0)
(0.128245 -0.123346 0)
(0.148014 -0.119378 0)
(0.167034 -0.114777 0)
(0.185197 -0.109506 0)
(0.00115342 -0.176701 0)
(0.0202373 -0.175851 0)
(0.0392174 -0.174287 0)
(0.0580047 -0.172016 0)
(0.076512 -0.169031 0)
(0.0946507 -0.165314 0)
(0.112328 -0.160836 0)
(0.129449 -0.155558 0)
(0.145914 -0.149434 0)
(0.161624 -0.142418 0)
(0.00265261 -0.2122 0)
(0.0191292 -0.211237 0)
(0.0355245 -0.209402 0)
(0.0517612 -0.206698 0)
(0.0677639 -0.203115 0)
(0.0834549 -0.19863 0)
(0.0987524 -0.193206 0)
(0.113571 -0.186799 0)
(0.127821 -0.179354 0)
(0.141411 -0.170817 0)
(0.00410332 -0.242728 0)
(0.0182625 -0.241685 0)
(0.0323606 -0.239636 0)
(0.046333 -0.23658 0)
(0.0601151 -0.232502 0)
(0.0736399 -0.227372 0)
(0.0868351 -0.221146 0)
(0.0996238 -0.21377 0)
(0.111923 -0.205179 0)
(0.123648 -0.195309 0)
(0.0052857 -0.268877 0)
(0.01739 -0.267781 0)
(0.0294534 -0.265569 0)
(0.0414228 -0.262236 0)
(0.0532442 -0.257758 0)
(0.0648602 -0.252097 0)
(0.0762068 -0.2452 0)
(0.0872135 -0.237001 0)
(0.0978023 -0.227419 0)
(0.107888 -0.216373 0)
(0.00597486 -0.291163 0)
(0.0162861 -0.290041 0)
(0.0265769 -0.287718 0)
(0.0368055 -0.284179 0)
(0.0469286 -0.279394 0)
(0.0568981 -0.273312 0)
(0.0666584 -0.265866 0)
(0.076145 -0.256972 0)
(0.0852828 -0.246529 0)
(0.0939845 -0.234425 0)
(0.00595806 -0.310121 0)
(0.0147503 -0.309001 0)
(0.0235429 -0.306618 0)
(0.032307 -0.302949 0)
(0.0410122 -0.297952 0)
(0.0496225 -0.291563 0)
(0.0580949 -0.283697 0)
(0.0663771 -0.274246 0)
(0.0744049 -0.263077 0)
(0.0820967 -0.250036 0)
(0.00507335 -0.326318 0)
(0.0126262 -0.325226 0)
(0.0202018 -0.322841 0)
(0.0277871 -0.319129 0)
(0.0353684 -0.314038 0)
(0.0429284 -0.307493 0)
(0.0504454 -0.299396 0)
(0.0578921 -0.28962 0)
(0.0652331 -0.278011 0)
(0.0724252 -0.264384 0)
(0.00322689 -0.340308 0)
(0.00980179 -0.339271 0)
(0.0164221 -0.336944 0)
(0.0230924 -0.333287 0)
(0.0298168 -0.328237 0)
(0.0365981 -0.321714 0)
(0.0434368 -0.313614 0)
(0.0503288 -0.30381 0)
(0.0572668 -0.292147 0)
(0.064281 -0.278428 0)
(0.000418599 -0.352583 0)
(0.00623554 -0.351631 0)
(0.0121255 -0.349429 0)
(0.0181101 -0.345926 0)
(0.0242121 -0.341058 0)
(0.0304545 -0.33474 0)
(0.0368579 -0.326873 0)
(0.0434385 -0.31734 0)
(0.0502372 -0.306 0)
(0.0574391 -0.292648 0)
(-0.00329521 -0.36352 0)
(0.0019203 -0.362698 0)
(0.0072448 -0.360699 0)
(0.0127154 -0.357466 0)
(0.0183712 -0.35293 0)
(0.0242523 -0.347012 0)
(0.0303947 -0.339624 0)
(0.0368394 -0.330667 0)
(0.0437159 -0.320015 0)
(0.051397 -0.307467 0)
(-0.00784464 -0.373344 0)
(-0.00314858 -0.372723 0)
(0.00170247 -0.371023 0)
(0.0067566 -0.368182 0)
(0.0120645 -0.364135 0)
(0.0176759 -0.358808 0)
(0.0236362 -0.352129 0)
(0.0300163 -0.344028 0)
(0.0370398 -0.334417 0)
(0.0451161 -0.323188 0)
(-0.0131922 -0.38213 0)
(-0.00900021 -0.381803 0)
(-0.00460153 -0.380512 0)
(5.71205e-05 -0.378191 0)
(0.00503106 -0.374775 0)
(0.0103726 -0.370199 0)
(0.0161312 -0.3644 0)
(0.0224011 -0.357321 0)
(0.029438 -0.348895 0)
(0.0374452 -0.339079 0)
(-0.0193222 -0.389842 0)
(-0.0156675 -0.389912 0)
(-0.0117564 -0.389134 0)
(-0.00753673 -0.387442 0)
(-0.00295608 -0.384767 0)
(0.00203257 -0.381045 0)
(0.00747582 -0.376216 0)
(0.0134792 -0.370221 0)
(0.0202851 -0.362996 0)
(0.027718 -0.354504 0)
(-0.0261892 -0.396377 0)
(-0.0231261 -0.396943 0)
(-0.01976 -0.396771 0)
(-0.0160447 -0.395788 0)
(-0.0119349 -0.393924 0)
(-0.00739231 -0.391108 0)
(-0.00237778 -0.387274 0)
(0.00321068 -0.382353 0)
(0.00958787 -0.376274 0)
(0.0163891 -0.36898 0)
(-0.0337087 -0.401618 0)
(-0.0312872 -0.402777 0)
(-0.0285171 -0.403294 0)
(-0.0253612 -0.403088 0)
(-0.0217835 -0.402083 0)
(-0.0177549 -0.400201 0)
(-0.0132452 -0.397367 0)
(-0.00816146 -0.393502 0)
(-0.00230746 -0.388524 0)
(0.0039358 -0.38234 0)
(-0.0417644 -0.405481 0)
(-0.0400073 -0.407334 0)
(-0.0378551 -0.408621 0)
(-0.0352816 -0.409254 0)
(-0.0322611 -0.409151 0)
(-0.0287737 -0.40823 0)
(-0.0247979 -0.406409 0)
(-0.0202551 -0.403609 0)
(-0.014962 -0.399758 0)
(-0.00919218 -0.394785 0)
(-0.0502086 -0.407952 0)
(-0.0490979 -0.410605 0)
(-0.0475463 -0.412744 0)
(-0.0455411 -0.414276 0)
(-0.0430688 -0.415113 0)
(-0.0401189 -0.415172 0)
(-0.0366798 -0.414371 0)
(-0.0326981 -0.41263 0)
(-0.0280202 -0.409878 0)
(-0.022738 -0.406048 0)
(-0.0588488 -0.409108 0)
(-0.058317 -0.412668 0)
(-0.0573034 -0.415733 0)
(-0.055814 -0.418207 0)
(-0.0538506 -0.420002 0)
(-0.0514148 -0.421038 0)
(-0.0485075 -0.421236 0)
(-0.0451016 -0.420521 0)
(-0.0410745 -0.41882 0)
(-0.0363543 -0.41605 0)
(-0.0674216 -0.409144 0)
(-0.0673396 -0.413706 0)
(-0.066747 -0.41775 0)
(-0.0656709 -0.421179 0)
(-0.0641307 -0.423913 0)
(-0.0621417 -0.42588 0)
(-0.0597164 -0.427011 0)
(-0.0568495 -0.427243 0)
(-0.0534473 -0.426514 0)
(-0.0493329 -0.424763 0)
(-0.0755633 -0.408397 0)
(-0.0757419 -0.414032 0)
(-0.0754017 -0.419076 0)
(-0.0745898 -0.423444 0)
(-0.0733398 -0.427071 0)
(-0.0716757 -0.429899 0)
(-0.0696154 -0.431883 0)
(-0.0671623 -0.432982 0)
(-0.0642485 -0.433164 0)
(-0.0606853 -0.432432 0)
(-0.0827792 -0.407327 0)
(-0.0830037 -0.414046 0)
(-0.0827386 -0.42006 0)
(-0.0820438 -0.425307 0)
(-0.0809618 -0.429745 0)
(-0.0795214 -0.433344 0)
(-0.0777416 -0.436084 0)
(-0.0756295 -0.437949 0)
(-0.0731521 -0.438936 0)
(-0.0701763 -0.439061 0)
(-0.0883772 -0.406418 0)
(-0.0884786 -0.41413 0)
(-0.088162 -0.421 0)
(-0.08749 -0.426998 0)
(-0.0865065 -0.432112 0)
(-0.0852418 -0.436337 0)
(-0.0837162 -0.439679 0)
(-0.0819422 -0.442148 0)
(-0.079913 -0.443759 0)
(-0.0775522 -0.44454 0)
(-0.0914884 -0.405956 0)
(-0.0914337 -0.414484 0)
(-0.0910517 -0.422037 0)
(-0.0903973 -0.428619 0)
(-0.0895087 -0.434244 0)
(-0.0884124 -0.438933 0)
(-0.0871261 -0.442711 0)
(-0.0856619 -0.445607 0)
(-0.0840206 -0.447657 0)
(-0.0821594 -0.448906 0)
(-0.0913895 -0.405869 0)
(-0.0913158 -0.41501 0)
(-0.0909905 -0.423071 0)
(-0.090458 -0.430082 0)
(-0.08975 -0.436079 0)
(-0.0888896 -0.441099 0)
(-0.0878931 -0.445184 0)
(-0.0867712 -0.44838 0)
(-0.0855284 -0.450734 0)
(-0.0841514 -0.4523 0)
(-0.0877715 -0.405631 0)
(-0.0879563 -0.415269 0)
(-0.0879103 -0.423739 0)
(-0.0876784 -0.431091 0)
(-0.0872955 -0.437374 0)
(-0.086789 -0.442641 0)
(-0.0861797 -0.446946 0)
(-0.0854831 -0.450345 0)
(-0.084709 -0.452896 0)
(-0.08386 -0.45466 0)
(-0.081216 -0.404566 0)
(-0.0818648 -0.414727 0)
(-0.0822655 -0.423618 0)
(-0.0824725 -0.431304 0)
(-0.0825309 -0.437851 0)
(-0.0824782 -0.443324 0)
(-0.082346 -0.447789 0)
(-0.0821603 -0.451314 0)
(-0.0819418 -0.453966 0)
(-0.0817051 -0.455812 0)
(-0.0728885 -0.402446 0)
(-0.0739983 -0.413181 0)
(-0.0748547 -0.422525 0)
(-0.0755162 -0.430559 0)
(-0.0760348 -0.437361 0)
(-0.076457 -0.443008 0)
(-0.0768245 -0.447577 0)
(-0.0771749 -0.451144 0)
(-0.0775403 -0.453785 0)
(-0.0779492 -0.455575 0)
(-0.0638627 -0.399528 0)
(-0.0652819 -0.410811 0)
(-0.0664758 -0.420588 0)
(-0.0674979 -0.428946 0)
(-0.0683992 -0.435972 0)
(-0.0692283 -0.441749 0)
(-0.0700314 -0.446359 0)
(-0.0708522 -0.449888 0)
(-0.0717297 -0.452418 0)
(-0.0726979 -0.454032 0)
(-0.0548468 -0.396245 0)
(-0.0563875 -0.407969 0)
(-0.0577566 -0.418098 0)
(-0.0589967 -0.426714 0)
(-0.0601534 -0.433901 0)
(-0.0612733 -0.439744 0)
(-0.0624032 -0.444328 0)
(-0.0635903 -0.447741 0)
(-0.0648785 -0.450072 0)
(-0.0663082 -0.451413 0)
(-0.0462335 -0.392974 0)
(-0.0477385 -0.405004 0)
(-0.0491297 -0.415374 0)
(-0.050441 -0.424154 0)
(-0.0517115 -0.431421 0)
(-0.0529843 -0.437251 0)
(-0.0543057 -0.441727 0)
(-0.055725 -0.444937 0)
(-0.0572911 -0.44697 0)
(-0.0590525 -0.447925 0)
(-0.038248 -0.389959 0)
(-0.0396017 -0.402183 0)
(-0.0408914 -0.412694 0)
(-0.042145 -0.42155 0)
(-0.0433959 -0.428815 0)
(-0.044683 -0.434556 0)
(-0.0460513 -0.438848 0)
(-0.0475509 -0.44177 0)
(-0.0492361 -0.443408 0)
(-0.0511646 -0.443858 0)
(-0.0311002 -0.387424 0)
(-0.0321957 -0.399735 0)
(-0.0332783 -0.410296 0)
(-0.0343658 -0.41915 0)
(-0.0354825 -0.426347 0)
(-0.0366599 -0.431942 0)
(-0.0379376 -0.435993 0)
(-0.0393645 -0.438566 0)
(-0.0409964 -0.439733 0)
(-0.0429003 -0.439579 0)
(-0.0248023 -0.38555 0)
(-0.0255987 -0.397835 0)
(-0.0264263 -0.408357 0)
(-0.0272898 -0.417144 0)
(-0.0282018 -0.424229 0)
(-0.0291827 -0.429649 0)
(-0.0302628 -0.433443 0)
(-0.0314825 -0.435655 0)
(-0.0328937 -0.436336 0)
(-0.0345625 -0.435545 0)
(-0.0192939 -0.384317 0)
(-0.0198307 -0.396491 0)
(-0.0204249 -0.406915 0)
(-0.0210713 -0.415599 0)
(-0.0217703 -0.422562 0)
(-0.02253 -0.427821 0)
(-0.0233665 -0.431395 0)
(-0.0243069 -0.433304 0)
(-0.0253887 -0.433569 0)
(-0.0266664 -0.432217 0)
(-0.0145693 -0.383545 0)
(-0.0149308 -0.395573 0)
(-0.015362 -0.405874 0)
(-0.0158508 -0.414451 0)
(-0.0163881 -0.421311 0)
(-0.016969 -0.426457 0)
(-0.0175949 -0.429891 0)
(-0.0182745 -0.431613 0)
(-0.0190251 -0.431616 0)
(-0.0198767 -0.429897 0)
(-0.0107248 -0.383058 0)
(-0.0109813 -0.394913 0)
(-0.0113252 -0.405076 0)
(-0.0117376 -0.413546 0)
(-0.0122008 -0.420324 0)
(-0.0126999 -0.425404 0)
(-0.0132225 -0.42878 0)
(-0.0137617 -0.430435 0)
(-0.0143147 -0.430348 0)
(-0.014887 -0.428487 0)
(-0.00777329 -0.382746 0)
(-0.00798655 -0.394377 0)
(-0.00831359 -0.404362 0)
(-0.00873064 -0.412699 0)
(-0.00921483 -0.419385 0)
(-0.00974447 -0.424412 0)
(-0.0102993 -0.427765 0)
(-0.0108615 -0.429425 0)
(-0.011415 -0.429357 0)
(-0.011946 -0.427521 0)
(-0.00563399 -0.382489 0)
(-0.00585827 -0.393834 0)
(-0.00622261 -0.403587 0)
(-0.0067035 -0.411741 0)
(-0.00727809 -0.418292 0)
(-0.00792415 -0.423231 0)
(-0.0086199 -0.42654 0)
(-0.00934524 -0.428195 0)
(-0.0100807 -0.428161 0)
(-0.0108071 -0.426392 0)
(-0.00425112 -0.382183 0)
(-0.00449848 -0.393201 0)
(-0.00490718 -0.402671 0)
(-0.00545782 -0.410586 0)
(-0.0061319 -0.416941 0)
(-0.00691031 -0.421725 0)
(-0.0077742 -0.424921 0)
(-0.00870607 -0.4265 0)
(-0.009689 -0.426427 0)
(-0.0107065 -0.424652 0)
(-0.00362812 -0.381875 0)
(-0.0038399 -0.392531 0)
(-0.0042328 -0.401672 0)
(-0.00479072 -0.409293 0)
(-0.0054987 -0.415389 0)
(-0.00634148 -0.419948 0)
(-0.00730317 -0.422951 0)
(-0.00836871 -0.42437 0)
(-0.00952318 -0.424167 0)
(-0.0107507 -0.422289 0)
(-0.00370486 -0.381734 0)
(-0.00378819 -0.391997 0)
(-0.00406376 -0.400771 0)
(-0.00451878 -0.408054 0)
(-0.00514199 -0.41384 0)
(-0.00592078 -0.418118 0)
(-0.00684144 -0.420868 0)
(-0.00789021 -0.422064 0)
(-0.00905218 -0.421667 0)
(-0.0103104 -0.419626 0)
(-0.00443066 -0.381955 0)
(-0.00426998 -0.391819 0)
(-0.00430138 -0.400214 0)
(-0.00451617 -0.407137 0)
(-0.00490652 -0.412585 0)
(-0.00546198 -0.41655 0)
(-0.00617021 -0.419015 0)
(-0.00701745 -0.419954 0)
(-0.00798747 -0.419334 0)
(-0.00906031 -0.417109 0)
(-0.00577599 -0.382784 0)
(-0.00523909 -0.392264 0)
(-0.00488777 -0.400283 0)
(-0.0047161 -0.406845 0)
(-0.00471936 -0.411949 0)
(-0.00488849 -0.415592 0)
(-0.00521217 -0.417759 0)
(-0.00567655 -0.418433 0)
(-0.00626456 -0.417584 0)
(-0.00695468 -0.415176 0)
(-0.00766943 -0.384481 0)
(-0.0066331 -0.393601 0)
(-0.00577067 -0.401262 0)
(-0.00507936 -0.407473 0)
(-0.00455665 -0.412241 0)
(-0.00419491 -0.415565 0)
(-0.00398347 -0.41744 0)
(-0.00390868 -0.417852 0)
(-0.00395306 -0.416781 0)
(-0.00409449 -0.414199 0)
(-0.010025 -0.387279 0)
(-0.00838364 -0.396069 0)
(-0.00690422 -0.403394 0)
(-0.00558606 -0.409273 0)
(-0.00442785 -0.413718 0)
(-0.00342288 -0.416738 0)
(-0.00256108 -0.418332 0)
(-0.00182901 -0.418495 0)
(-0.0012095 -0.417214 0)
(-0.000681192 -0.41447 0)
(-0.012705 -0.391361 0)
(-0.0103916 -0.399847 0)
(-0.00822752 -0.40686 0)
(-0.0062139 -0.412425 0)
(-0.00435 -0.416566 0)
(-0.00262983 -0.419298 0)
(-0.00104385 -0.420627 0)
(0.00042079 -0.420555 0)
(0.00178031 -0.419077 0)
(0.00305434 -0.416179 0)
(-0.0155665 -0.39682 0)
(-0.012557 -0.405028 0)
(-0.00968306 -0.411752 0)
(-0.00694699 -0.417027 0)
(-0.00434861 -0.420885 0)
(-0.00188246 -0.423348 0)
(0.000460207 -0.424431 0)
(0.00269147 -0.424142 0)
(0.00482613 -0.422479 0)
(0.00688149 -0.419437 0)
(-0.0184895 -0.403654 0)
(-0.0148046 -0.411617 0)
(-0.0112365 -0.418081 0)
(-0.00778937 -0.423093 0)
(-0.00446399 -0.426694 0)
(-0.00125637 -0.428914 0)
(0.00184121 -0.429773 0)
(0.00483938 -0.429286 0)
(0.00775102 -0.427456 0)
(0.0105903 -0.424277 0)
(-0.0214419 -0.411773 0)
(-0.0171308 -0.419536 0)
(-0.01291 -0.425783 0)
(-0.00878708 -0.430571 0)
(-0.00476513 -0.43395 0)
(-0.000843066 -0.435957 0)
(0.00298478 -0.436622 0)
(0.0067268 -0.435961 0)
(0.010393 -0.433981 0)
(0.0139939 -0.430676 0)
(-0.0245251 -0.42105 0)
(-0.0196364 -0.42868 0)
(-0.0148045 -0.434768 0)
(-0.0100425 -0.439381 0)
(-0.00535783 -0.44258 0)
(-0.000753158 -0.444412 0)
(0.0037739 -0.444912 0)
(0.00822815 -0.444102 0)
(0.0126157 -0.441989 0)
(0.0169422 -0.438568 0)
(-0.0279867 -0.4314 0)
(-0.02253 -0.438977 0)
(-0.0170978 -0.444971 0)
(-0.011709 -0.449463 0)
(-0.00637617 -0.452527 0)
(-0.00110588 -0.454219 0)
(0.00410021 -0.454583 0)
(0.00924272 -0.453642 0)
(0.0143231 -0.451406 0)
(0.019341 -0.447867 0)
(-0.0321664 -0.442872 0)
(-0.0260809 -0.450461 0)
(-0.0200043 -0.456411 0)
(-0.0139575 -0.460825 0)
(-0.00795568 -0.463786 0)
(-0.00200712 -0.465365 0)
(0.00388354 -0.465609 0)
(0.00971359 -0.464546 0)
(0.01548 -0.462183 0)
(0.0211763 -0.458506 0)
(-0.0373507 -0.45571 0)
(-0.0305104 -0.463311 0)
(-0.0236944 -0.469223 0)
(-0.0169174 -0.473564 0)
(-0.0101904 -0.476431 0)
(-0.00351924 -0.4779 0)
(0.00309206 -0.478026 0)
(0.00964022 -0.476836 0)
(0.01612 -0.474332 0)
(0.0225211 -0.47049 0)
(-0.0435847 -0.470251 0)
(-0.0358628 -0.477784 0)
(-0.0282069 -0.483604 0)
(-0.0206174 -0.487837 0)
(-0.0130956 -0.490587 0)
(-0.00564092 -0.491934 0)
(0.00174726 -0.491931 0)
(0.00906854 -0.490604 0)
(0.0163193 -0.487948 0)
(0.02349 -0.483925 0)
(-0.0506675 -0.48673 0)
(-0.0419982 -0.494075 0)
(-0.0334405 -0.49972 0)
(-0.0249801 -0.503789 0)
(-0.0166074 -0.506386 0)
(-0.00831403 -0.507589 0)
(-9.29906e-05 -0.507448 0)
(0.00806035 -0.505982 0)
(0.0161471 -0.503177 0)
(0.0241624 -0.498985 0)
(-0.058293 -0.505183 0)
(-0.0486816 -0.512243 0)
(-0.0392121 -0.517645 0)
(-0.0298603 -0.521504 0)
(-0.0206088 -0.523919 0)
(-0.011443 -0.524964 0)
(-0.00235042 -0.524682 0)
(0.00667851 -0.523087 0)
(0.01565 -0.520155 0)
(0.0245656 -0.515829 0)
(-0.0661582 -0.525508 0)
(-0.0556594 -0.53224 0)
(-0.045309 -0.537366 0)
(-0.0350802 -0.540995 0)
(-0.0249522 -0.54322 0)
(-0.0149075 -0.544106 0)
(-0.00493128 -0.543692 0)
(0.00498863 -0.541983 0)
(0.0148613 -0.538952 0)
(0.0246925 -0.534532 0)
(-0.0739688 -0.547539 0)
(-0.0626723 -0.553948 0)
(-0.0515029 -0.558807 0)
(-0.04044 -0.562218 0)
(-0.0294647 -0.564264 0)
(-0.0185611 -0.565006 0)
(-0.00771541 -0.564475 0)
(0.00308288 -0.562671 0)
(0.0138419 -0.55956 0)
(0.0245673 -0.555072 0)
(-0.0814105 -0.57102 0)
(-0.0694445 -0.577175 0)
(-0.0575494 -0.581826 0)
(-0.0457207 -0.585067 0)
(-0.03395 -0.586974 0)
(-0.0222281 -0.587602 0)
(-0.0105476 -0.586977 0)
(0.00109641 -0.585094 0)
(0.012707 -0.581914 0)
(0.0242821 -0.577361 0)
(-0.0883126 -0.595663 0)
(-0.0757894 -0.601696 0)
(-0.0632566 -0.60625 0)
(-0.0507291 -0.609409 0)
(-0.0382164 -0.611244 0)
(-0.0257217 -0.611807 0)
(-0.0132477 -0.611119 0)
(-0.000798754 -0.609172 0)
(0.0116192 -0.605922 0)
(0.0239872 -0.60129 0)
(-0.0946058 -0.621301 0)
(-0.0815687 -0.627373 0)
(-0.0684569 -0.63196 0)
(-0.0552795 -0.635143 0)
(-0.0420669 -0.636986 0)
(-0.0288383 -0.637538 0)
(-0.0156085 -0.636819 0)
(-0.00239224 -0.634821 0)
(0.010791 -0.631498 0)
(0.0239047 -0.626771 0)
(-0.100093 -0.647795 0)
(-0.0865543 -0.654099 0)
(-0.0729185 -0.658864 0)
(-0.059142 -0.662183 0)
(-0.0452702 -0.664119 0)
(-0.0313461 -0.664718 0)
(-0.0173977 -0.664001 0)
(-0.00345283 -0.661961 0)
(0.0104524 -0.658557 0)
(0.0242816 -0.653714 0)
(-0.104628 -0.675057 0)
(-0.0905519 -0.681776 0)
(-0.0764187 -0.686871 0)
(-0.0620849 -0.69045 0)
(-0.0475922 -0.692569 0)
(-0.0330067 -0.693276 0)
(-0.0183735 -0.692598 0)
(-0.00373518 -0.690535 0)
(0.0108594 -0.687062 0)
(0.0254104 -0.682112 0)
(-0.108106 -0.702893 0)
(-0.0933994 -0.710321 0)
(-0.0787412 -0.715931 0)
(-0.0638804 -0.719888 0)
(-0.0488073 -0.722277 0)
(-0.0336072 -0.723149 0)
(-0.0183421 -0.722545 0)
(-0.00307129 -0.720487 0)
(0.0121575 -0.716972 0)
(0.0274252 -0.711938 0)
(-0.110107 -0.731469 0)
(-0.094765 -0.739706 0)
(-0.0795752 -0.745954 0)
(-0.0642445 -0.750387 0)
(-0.0486809 -0.75311 0)
(-0.032959 -0.754181 0)
(-0.0171704 -0.75366 0)
(-0.00139846 -0.7516 0)
(0.0143192 -0.748042 0)
(0.0301796 -0.742978 0)
(-0.110345 -0.76061 0)
(-0.0945419 -0.769811 0)
(-0.0787653 -0.776836 0)
(-0.0629883 -0.781823 0)
(-0.0470163 -0.784913 0)
(-0.0308777 -0.78619 0)
(-0.0146778 -0.785738 0)
(0.00148695 -0.783648 0)
(0.0176047 -0.780015 0)
(0.0339773 -0.774921 0)
(-0.107595 -0.790146 0)
(-0.0921614 -0.800471 0)
(-0.0758817 -0.808347 0)
(-0.0598041 -0.81392 0)
(-0.0436411 -0.817385 0)
(-0.0273336 -0.818862 0)
(-0.0109839 -0.81846 0)
(0.00530304 -0.816311 0)
(0.021546 -0.812556 0)
(0.0381152 -0.807314 0)
(-0.1014 -0.820901 0)
(-0.0874369 -0.831671 0)
(-0.0708603 -0.840141 0)
(-0.0546613 -0.846195 0)
(-0.0385812 -0.849953 0)
(-0.0224512 -0.851537 0)
(-0.00635119 -0.85108 0)
(0.00960515 -0.848751 0)
(0.0254749 -0.844755 0)
(0.0416728 -0.839306 0)
(-0.0917901 -0.851475 0)
(-0.0796597 -0.862672 0)
(-0.0633361 -0.871676 0)
(-0.0473315 -0.878073 0)
(-0.0316621 -0.881945 0)
(-0.0160877 -0.883437 0)
(-0.000646244 -0.882707 0)
(0.0145519 -0.879959 0)
(0.0295799 -0.875473 0)
(0.0448075 -0.869632 0)
(-0.0786876 -0.880315 0)
(-0.067861 -0.892689 0)
(-0.0527352 -0.902149 0)
(-0.0373824 -0.908697 0)
(-0.0225997 -0.912484 0)
(-0.00806369 -0.913691 0)
(0.00625909 -0.912484 0)
(0.020274 -0.909082 0)
(0.0340304 -0.90381 0)
(0.0477797 -0.897165 0)
(-0.0621683 -0.909262 0)
(-0.0524498 -0.92157 0)
(-0.0392521 -0.930717 0)
(-0.0251318 -0.937019 0)
(-0.0117487 -0.940521 0)
(0.00126133 -0.941313 0)
(0.0140147 -0.93952 0)
(0.0264391 -0.935336 0)
(0.0385577 -0.929082 0)
(0.0505058 -0.921286 0)
(-0.042981 -0.936585 0)
(-0.0346015 -0.947763 0)
(-0.0236454 -0.956189 0)
(-0.0113925 -0.962016 0)
(0.000119451 -0.965103 0)
(0.0112027 -0.965407 0)
(0.0219994 -0.96298 0)
(0.0324571 -0.95797 0)
(0.0425823 -0.95067 0)
(0.0524269 -0.941595 0)
(-0.0219509 -0.959097 0)
(-0.0151787 -0.96953 0)
(-0.00663584 -0.97742 0)
(0.0031907 -0.982791 0)
(0.0124103 -0.985431 0)
(0.0212298 -0.985215 0)
(0.0297634 -0.982134 0)
(0.0379578 -0.976285 0)
(0.0457922 -0.96794 0)
(0.0532279 -0.957623 0)
(-0.000421032 -0.975923 0)
(0.00461159 -0.986099 0)
(0.0107071 -0.993606 0)
(0.017736 -0.998616 0)
(0.0243816 -1.00088 0)
(0.0307503 -1.00021 0)
(0.0369003 -0.996511 0)
(0.0427467 -0.989839 0)
(0.0482019 -0.980449 0)
(0.0531335 -0.968925 0)
(0.02019 -0.986811 0)
(0.0231528 -0.996998 0)
(0.0266582 -1.00425 0)
(0.0307892 -1.0091 0)
(0.0348414 -1.01123 0)
(0.0388668 -1.01032 0)
(0.0428275 -1.00617 0)
(0.0465559 -0.998743 0)
(0.0498476 -0.988286 0)
(0.0524654 -0.975469 0)
(0.0375846 -0.992234 0)
(0.0383607 -1.00204 0)
(0.0392739 -1.00921 0)
(0.0406572 -1.01436 0)
(0.0424711 -1.01689 0)
(0.0446744 -1.01621 0)
(0.047058 -1.0119 0)
(0.049291 -1.00381 0)
(0.0509856 -0.992179 0)
(0.0517811 -0.977846 0)
(0.0498628 -0.992095 0)
(0.0483727 -1.00112 0)
(0.0466289 -1.00887 0)
(0.0458117 -1.01533 0)
(0.0462715 -1.01923 0)
(0.0477016 -1.01951 0)
(0.0495912 -1.01541 0)
(0.0513353 -1.00662 0)
(0.0522904 -0.993493 0)
(0.0519707 -0.977167 0)
(0.0551648 -0.984388 0)
(0.0518905 -0.994292 0)
(0.0477299 -1.0046 0)
(0.0457807 -1.01411 0)
(0.0462818 -1.0208 0)
(0.048397 -1.02289 0)
(0.0511877 -1.0192 0)
(0.0536391 -1.00932 0)
(0.0547655 -0.993914 0)
(0.0539723 -0.974747 0)
(0.0547986 -0.965614 0)
(0.0495932 -0.981542 0)
(0.0437944 -0.997945 0)
(0.0419547 -1.01314 0)
(0.0438462 -1.02441 0)
(0.0480407 -1.02924 0)
(0.0530275 -1.02588 0)
(0.0572254 -1.01392 0)
(0.0591847 -0.994748 0)
(0.0581845 -0.971312 0)
(0.0473811 -0.94248 0)
(0.0406655 -0.966714 0)
(0.0350432 -0.991828 0)
(0.0350096 -1.01518 0)
(0.0396707 -1.03287 0)
(0.0471639 -1.04117 0)
(0.055365 -1.03756 0)
(0.0620392 -1.02182 0)
(0.0651883 -0.996548 0)
(0.0639297 -0.966588 0)
(0.0319151 -0.91842 0)
(0.0255471 -0.953842 0)
(0.0223089 -0.990076 0)
(0.0256751 -1.02345 0)
(0.0341481 -1.04877 0)
(0.0455694 -1.06069 0)
(0.0573437 -1.05566 0)
(0.0666922 -1.03378 0)
(0.0711684 -0.999447 0)
(0.0697083 -0.959801 0)
(0.0132041 -0.897441 0)
(0.00925833 -0.946257 0)
(0.00966837 -0.994939 0)
(0.016607 -1.03919 0)
(0.028507 -1.07251 0)
(0.0431231 -1.08767 0)
(0.0576027 -1.07987 0)
(0.0690068 -1.04988 0)
(0.0748688 -1.00419 0)
(0.073881 -0.951905 0)
(-0.00597789 -0.886067 0)
(-0.00587868 -0.946487 0)
(-0.00128723 -1.00667 0)
(0.00868002 -1.06113 0)
(0.0227858 -1.10179 0)
(0.0388849 -1.1192 0)
(0.054186 -1.1075 0)
(0.0661908 -1.06886 0)
(0.0731423 -1.01184 0)
(0.0737426 -0.946106 0)
(-0.0239645 -0.885027 0)
(-0.018987 -0.955995 0)
(-0.00987212 -1.02553 0)
(0.002571 -1.08772 0)
(0.0174719 -1.1334 0)
(0.0330823 -1.15096 0)
(0.0470146 -1.13404 0)
(0.0576488 -1.0873 0)
(0.0643305 -1.02061 0)
(0.0664691 -0.942565 0)
(-0.03157 -0.895423 0)
(-0.0228929 -0.974669 0)
(-0.0112566 -1.04982 0)
(0.00160375 -1.11583 0)
(0.0153676 -1.16351 0)
(0.0287222 -1.1791 0)
(0.0400731 -1.1564 0)
(0.048902 -1.10342 0)
(0.0555645 -1.03003 0)
(0.0601181 -0.942766 0)
(-0.0245788 -0.909853 0)
(-0.0154524 -0.995137 0)
(-0.00480034 -1.07281 0)
(0.00596659 -1.14001 0)
(0.0169462 -1.18813 0)
(0.0267608 -1.20121 0)
(0.0352263 -1.17424 0)
(0.0428474 -1.11864 0)
(0.0505537 -1.04306 0)
(0.0582902 -0.951257 0)
(-0.01375 -0.926139 0)
(-0.006348 -1.01261 0)
(0.00240601 -1.09096 0)
(0.0112563 -1.15839 0)
(0.0195983 -1.20576 0)
(0.0254542 -1.21636 0)
(0.0311767 -1.18787 0)
(0.0378125 -1.13298 0)
(0.0458149 -1.05877 0)
(0.0544294 -0.967169 0)
(-0.00816707 -0.938178 0)
(-0.00186897 -1.02649 0)
(0.00630428 -1.1065 0)
(0.0149516 -1.17392 0)
(0.0217376 -1.21753 0)
(0.0240184 -1.22515 0)
(0.0279293 -1.1988 0)
(0.0345039 -1.14674 0)
(0.0430462 -1.07522 0)
(0.0522937 -0.986261 0)
(-0.00938921 -0.949703 0)
(-0.00243622 -1.04112 0)
(0.00716508 -1.12353 0)
(0.0169304 -1.18969 0)
(0.0228135 -1.22448 0)
(0.0221758 -1.22878 0)
(0.0250817 -1.20892 0)
(0.0319155 -1.16122 0)
(0.0411205 -1.09221 0)
(0.0511148 -1.00538 0)
(-0.0133929 -0.963694 0)
(-0.00513866 -1.05864 0)
(0.00694432 -1.14395 0)
(0.0177406 -1.20607 0)
(0.0228873 -1.22742 0)
(0.0202382 -1.22904 0)
(0.0228775 -1.21892 0)
(0.0299563 -1.17734 0)
(0.0406741 -1.11038 0)
(0.052393 -1.0245 0)
(-0.0183149 -0.978944 0)
(-0.00852251 -1.07926 0)
(0.00666193 -1.16888 0)
(0.0171354 -1.22171 0)
(0.0220359 -1.22861 0)
(0.0182775 -1.22887 0)
(0.0214737 -1.22872 0)
(0.0284135 -1.19616 0)
(0.0415082 -1.13109 0)
(0.0546592 -1.04608 0)
(-0.0235408 -0.996212 0)
(-0.0125512 -1.10542 0)
(0.00660269 -1.19961 0)
(0.0147277 -1.23476 0)
(0.0206689 -1.23056 0)
(0.0162608 -1.23063 0)
(0.021009 -1.23772 0)
(0.0271248 -1.21833 0)
(0.0431007 -1.15523 0)
(0.0546315 -1.07286 0)
(-0.0267502 -1.01869 0)
(-0.0147834 -1.13827 0)
(0.00908708 -1.23182 0)
(0.011732 -1.2424 0)
(0.0193245 -1.2333 0)
(0.0136717 -1.23404 0)
(0.0205793 -1.24488 0)
(0.0241143 -1.24265 0)
(0.0427043 -1.18243 0)
(0.0478658 -1.10592 0)
(-0.0147213 -1.03495 0)
(-0.00973221 -1.17072 0)
(0.0151282 -1.25646 0)
(0.00792939 -1.24422 0)
(0.0167963 -1.2355 0)
(0.00924149 -1.23725 0)
(0.0182994 -1.24897 0)
(0.0155281 -1.26458 0)
(0.035602 -1.20891 0)
(0.0325297 -1.13233 0)
(-0.0135626 -1.04408 0)
(-0.0151643 -1.20774 0)
(0.0168778 -1.27289 0)
(0.00202692 -1.24367 0)
(0.0126702 -1.23662 0)
(0.00362278 -1.23868 0)
(0.0142713 -1.24918 0)
(0.00169931 -1.27892 0)
(0.0242426 -1.2325 0)
(0.0174269 -1.12574 0)
(-0.00427237 -1.02896 0)
(-0.0180312 -1.24806 0)
(0.020464 -1.28091 0)
(-0.00127969 -1.24138 0)
(0.00929543 -1.2356 0)
(-0.000579889 -1.23718 0)
(0.0104626 -1.24501 0)
(-0.0114836 -1.28389 0)
(0.0184059 -1.25761 0)
(0.00692917 -1.07735 0)
(0.0126208 -0.982172 0)
(-0.0211409 -1.28734 0)
(0.0237017 -1.28087 0)
(-0.002212 -1.23566 0)
(0.00646685 -1.2314 0)
(-0.00196083 -1.23244 0)
(0.00775707 -1.23719 0)
(-0.0195038 -1.28161 0)
(0.0209099 -1.29028 0)
(-0.0106804 -1.00593 0)
(0.278699 -0.034988 0)
(0.304087 -0.0327536 0)
(0.327524 -0.030179 0)
(0.348789 -0.0272787 0)
(0.367615 -0.024062 0)
(0.383736 -0.020528 0)
(0.396896 -0.016674 0)
(0.406856 -0.0124943 0)
(0.413387 -0.00796203 0)
(0.416502 -0.00304103 0)
(0.415585 0.00201934 0)
(0.410747 0.00695351 0)
(0.402458 0.0115253 0)
(0.391086 0.0155585 0)
(0.377013 0.0189361 0)
(0.360707 0.0215888 0)
(0.3427 0.023496 0)
(0.323516 0.0247069 0)
(0.303614 0.0253254 0)
(0.283368 0.0254794 0)
(0.263067 0.0253064 0)
(0.242903 0.0249548 0)
(0.222956 0.0245722 0)
(0.203215 0.0242584 0)
(0.183639 0.02404 0)
(0.1642 0.0238923 0)
(0.144891 0.0237785 0)
(0.125723 0.0236668 0)
(0.106725 0.0235311 0)
(0.0879471 0.0233431 0)
(0.0694692 0.0230607 0)
(0.0514089 0.0226184 0)
(0.033911 0.0219143 0)
(0.0172291 0.0207734 0)
(0.00246548 0.0191409 0)
(-0.0115995 0.0186197 0)
(-0.023875 0.0106187 0)
(-0.0305784 0.000309336 0)
(-0.0288418 -0.018977 0)
(-0.0131928 -0.0354323 0)
(0.235746 -0.0689253 0)
(0.256856 -0.0639756 0)
(0.276185 -0.058393 0)
(0.293542 -0.0521621 0)
(0.308747 -0.0452806 0)
(0.321622 -0.0377667 0)
(0.332017 -0.0296652 0)
(0.33982 -0.0210503 0)
(0.34497 -0.0120327 0)