/*--------------------------------*- C++ -*----------------------------------*\
  =========                 |
  \\      /  F ield         | OpenFOAM: The Open Source CFD Toolbox
   \\    /   O peration     | Website:  https://openfoam.org
    \\  /    A nd           | Version:  8
     \\/     M anipulation  |
\*---------------------------------------------------------------------------*/
FoamFile
{
    version     2.0;
    format      ascii;
    class       volScalarField;
    location    "4.65";
    object      p;
}
// * * * * * * * * * * * * * * * * * * * * * * * * * * * * * * * * * * * * * //

dimensions      [1 -1 -2 0 0 0 0];

internalField   nonuniform List<scalar> 
9150
(
-204.758
-205.76
-206.368
-206.843
-207.085
-207.086
-206.849
-206.372
-205.758
-204.754
-224.805
-225.322
-225.735
-226.053
-226.228
-226.233
-226.065
-225.737
-225.32
-224.802
-244.697
-244.981
-245.233
-245.455
-245.564
-245.558
-245.452
-245.233
-244.981
-244.695
-264.437
-264.613
-264.781
-264.938
-265.017
-265.026
-264.937
-264.779
-264.61
-264.433
-284.057
-284.241
-284.378
-284.51
-284.567
-284.573
-284.497
-284.37
-284.236
-284.054
-118.669
-119.573
-119.364
-118.918
-118.733
-118.724
-118.879
-119.326
-119.537
-118.635
-134.232
-134.957
-135.162
-135.22
-135.124
-135.115
-135.21
-135.14
-134.936
-134.218
-150.739
-151.48
-151.785
-152.155
-152.207
-152.207
-152.137
-151.778
-151.474
-150.732
-167.625
-168.747
-169.195
-169.832
-169.987
-169.981
-169.813
-169.172
-168.731
-167.614
-184.584
-186.65
-187.406
-188.129
-188.396
-188.376
-188.119
-187.404
-186.646
-184.577
-25.366
-26.5036
-28.2591
-29.2428
-29.8765
-29.9406
-29.4852
-28.4529
-26.417
-24.7267
-45.5897
-45.7645
-46.7438
-47.0423
-47.4351
-47.42
-46.943
-46.5685
-45.588
-45.3408
-65.4981
-65.4072
-66.3739
-65.9707
-66.4174
-66.4542
-66.0314
-66.3507
-65.3062
-65.3728
-88.3264
-85.551
-86.5322
-85.0447
-85.1896
-85.1973
-84.9397
-86.4712
-85.48
-88.246
-114.312
-104.527
-104.086
-102.624
-102.267
-102.285
-102.626
-104.106
-104.52
-114.311
963.358
965.368
966.64
967.531
967.911
967.981
969.748
969.132
973.177
971.963
945.636
947.223
948.388
948.99
949.922
949.553
951.601
949.308
952.64
948.825
925.738
927.029
927.878
928.245
928.672
928.182
929.506
928.576
929.278
922.71
903.99
904.956
905.474
906.186
906.485
906.237
906.602
906.238
904.953
896.987
879.369
880.377
881.014
882.898
881.519
883.307
881.457
881.805
880.524
873.142
851.812
853.83
855.763
858.43
856.58
857.166
856.409
855.837
856.621
854.514
825.095
827.66
829.487
831.111
832.286
833.056
833.388
833.328
832.422
831.226
801.424
804.229
806.427
808.089
810.07
810.943
811.538
812.153
812.322
811.146
781.133
783.661
785.814
787.703
789.555
790.769
791.165
792.015
792.588
792.511
764.316
766.203
767.842
769.377
771.27
772.308
772.587
773.418
774.166
774.535
748.662
749.877
750.97
752.072
753.31
754.391
755.442
756.427
757.002
757.428
733.046
733.8
734.309
734.654
735.34
736.169
736.854
738.161
739.178
740.096
717.266
717.677
717.683
716.901
715.788
715.867
717.909
717.629
718.943
720.375
700.757
701.157
701.242
700.213
700.774
702.225
703.092
702.359
701.059
701.091
683.75
684.381
685.933
687.196
688.037
688.821
689.85
690.165
689.213
686.882
673.844
673.519
673.933
674.764
675.853
676.881
677.973
678.61
677.958
674.578
654.061
655.6
657.521
659.723
661.205
662.516
663.249
663.437
663.269
662.171
637.019
638.303
639.374
640.632
642.411
644.287
645.616
646.423
646.851
647.234
615.519
616.436
617.827
620.246
624.192
627.3
629.342
630.521
631.064
631.29
591.829
596.582
602.808
603.985
607.549
610.225
611.781
612.612
613.226
613.825
578.87
582.11
586.112
589.294
591.828
593.999
595.041
595.552
595.471
595.829
567.699
569.334
571.303
574.461
576.546
577.557
578.402
579.015
580.67
580.164
554.455
555.8
557.186
561.13
563.65
562.506
565.05
566.089
565.681
564.071
540.394
541.14
542.4
544.411
543.621
545.792
546.793
548.852
549.71
549.315
518.339
520.312
522.118
524.181
525.882
527.772
528.68
530.12
531.874
531.13
501.238
502.432
503.296
505.242
507.154
509.031
510.887
512.647
514.07
514.902
483.912
484.693
483.883
485.871
488.227
490.729
493.054
495.132
496.808
497.806
459.622
461.007
462.336
464.569
467.718
471.375
475.331
479.258
482.044
483.71
436.853
438.135
440.192
443.087
446.791
451.038
457.909
466.902
471.881
475.819
410.32
412.234
417.039
424.01
431.948
439.913
445.57
451.599
462.41
471.679
396.612
397.6
399.919
404.129
407.401
409.27
409.738
425.133
437.189
445.854
378.742
377.694
376.013
370.775
370.565
366.776
355.473
360.74
377.202
394.191
372.791
356.221
344.911
333.79
322.593
307.391
302.118
299.863
304.968
329.058
329.097
314.835
302.507
294.708
286.551
284.028
279.124
275.164
271.764
285.44
291.643
289.086
287.902
290.038
288.808
287.037
286.847
279.051
280.486
259.501
260.754
269.595
276.723
281.947
288.734
293.526
292.705
286.004
248.29
227.954
231.861
243.093
253.994
265.863
275.962
297.68
294.805
265.611
232.287
214.702
215.485
223.372
233.827
245.037
254.789
268.126
267.275
247.741
232.169
219.31
197.622
201.4
208.862
213.951
207.425
210.193
220.319
226.603
234.825
235.094
197.412
197.219
197.484
197.729
200.104
200.996
190.879
219.776
237.559
249.699
195.039
195.767
196.012
196.129
197.718
197.958
188.108
213.356
239.015
258.761
177.567
185.147
186.895
189.905
189.664
191.203
190.005
199.089
218.797
245.432
159.045
161.427
164.803
169.099
172.572
176.789
181.486
188.116
207.408
244.094
129.877
143.613
150.526
155.927
161.089
166.339
171.186
177.82
192.168
218.792
125.763
126.859
133.279
141.01
147.173
152.855
159.456
168.444
179.05
192.149
125.405
125.407
125.559
127.294
132.865
138.343
143.089
148.166
158.095
166.152
125.295
125.729
126.017
123.255
122.824
127.538
127.385
125.211
134.015
133.373
125.609
126.362
126.885
124.994
122.81
122.002
114.309
111.123
109.07
100.242
125.338
129.158
129.832
129.177
129.469
128.471
108.391
118.199
111.71
123.264
118.211
138.32
137.305
136.011
144.003
133.001
125.272
134.756
125.074
151.624
119.816
148.033
140.357
138.17
143.539
140.373
131.274
147.957
131.154
140.35
134.368
153.843
134.573
133.007
136.072
138.993
132.081
161.31
127.333
124.692
142.845
140.468
127.718
120.385
114.518
113.116
116.054
166.669
117.874
106.782
120.808
121.448
109.938
102.258
94.4468
86.3712
82.3102
138.586
111.584
101.208
65.5259
73.9822
79.6445
84.1936
91.8434
68.1287
36.66
56.0654
46.6687
61.2035
18.2367
37.3181
52.5979
58.0241
72.3938
38.9083
4.64963
8.05496
-1.41392
8.1296
5.67452
12.8424
37.0339
41.8757
50.3569
19.9506
0.659602
-0.294812
0.532785
-2.86166
3.9828
4.27942
26.6947
29.226
39.258
7.40134
-1.09061
-0.518741
0.298201
-1.0513
2.79805
2.56577
29.3937
14.2406
34.8494
4.76726
-0.783803
-0.806414
-0.784388
-0.794657
1.26989
5.24192
30.1168
44.4238
41.1865
0.799554
-0.918727
-0.982709
-0.873868
-0.81857
-0.844965
9.42361
14.1028
30.2153
25.9994
2.90962
-0.683072
-0.795915
-0.764221
-0.787211
-1.96023
11.6705
14.8213
28.2191
11.8673
32.7994
-0.812782
-0.782287
-0.772951
-0.792211
-1.60294
9.02734
13.4638
28.8265
32.4338
36
-0.844355
-0.822658
-0.825677
-0.841036
-1.04437
0.974725
3.65134
11.3957
34.5492
26.8971
-0.886838
-0.880504
-0.88467
-0.904855
-1.16673
-1.08997
-1.4031
-3.29676
29.7679
22.6402
-0.947328
-0.955114
-0.966262
-0.988983
-2.32821
-2.08611
-2.33296
-3.26109
25.1261
25.3927
-0.993597
-1.00989
-1.01648
-1.0264
-1.93282
-1.75982
-1.49323
-1.56158
16.3712
35.896
-1.07542
-1.04927
-1.04954
-1.02385
-1.40175
-1.03313
-0.563503
-0.753436
7.67161
43.5007
-1.11657
-1.06024
-1.03599
-1.00279
-1.1828
-0.957652
-0.651785
-0.668753
10.4945
42.0497
-1.07972
-1.00675
-1.01828
-0.990378
-1.32969
-1.27342
-1.22422
-1.36854
42.4441
8.66573
-0.791486
-0.894706
-0.974228
-0.987388
-1.51472
-1.46756
-1.49445
-1.59927
37.6366
14.0243
-0.843908
-0.912693
-0.988251
-1.01898
-1.60616
-1.57792
-1.57549
-1.57367
21.8452
29.2401
-1.04782
-1.01519
-1.0613
-1.08533
-1.65499
-1.63843
-1.64012
-1.66694
27.4767
24.1489
-1.09957
-1.08675
-1.12201
-1.15235
-1.67593
-1.67028
-1.66951
-1.68121
26.4506
25.2056
-1.17492
-1.16695
-1.17656
-1.1896
-1.69934
-1.69457
-1.69253
-1.68988
24.8988
26.6117
-1.23368
-1.22805
-1.22708
-1.23394
-1.72306
-1.71977
-1.71775
-1.71486
24.3178
26.735
-1.28643
-1.27366
-1.27495
-1.27233
-1.74504
-1.7421
-1.74339
-1.75781
26.4544
23.9647
-1.29416
-1.29052
-1.2906
-1.2941
-1.76343
-1.7639
-1.76005
-1.7689
24.9083
24.8491
-1.29502
-1.28388
-1.30663
-1.30222
-1.77763
-1.77906
-1.77915
-1.79157
24.2233
24.7062
-1.30689
-1.29354
-1.32273
-1.31866
-1.79744
-1.79249
-1.79504
-1.8067
22.6449
25.1963
-1.35262
-1.33047
-1.33567
-1.33798
-1.80573
-1.79743
-1.77371
-1.78249
21.6564
24.9417
-1.3885
-1.36275
-1.35976
-1.36262
-1.78134
-1.78972
-1.74998
-1.75502
21.9091
22.9536
-1.38807
-1.3723
-1.37259
-1.37475
-1.81792
-1.8284
-1.77549
-1.74484
23.9928
18.8476
-1.3354
-1.37552
-1.3814
-1.38682
-1.84752
-1.86414
-1.82234
-1.76474
27.4216
14.8214
-1.25069
-1.38471
-1.39524
-1.40304
-1.87887
-1.90378
-1.85143
-1.8575
26.9895
14.1817
-1.26912
-1.41044
-1.4186
-1.426
-1.90066
-1.93726
-1.86553
-2.01166
30.1358
13.1446
-1.52958
-1.43867
-1.44286
-1.45258
-1.92866
-1.95687
-1.9203
-2.1994
29.8162
7.07292
-1.78038
-1.46067
-1.47234
-1.48308
-1.92776
-1.91769
-1.92977
-2.22453
16.699
17.5798
-1.68917
-1.50177
-1.50514
-1.51698
-1.92912
-1.92118
-1.92688
-1.9395
15.2238
15.9402
-1.19072
-1.54129
-1.54455
-1.5549
-1.93405
-1.93359
-1.94434
-1.57584
15.0663
7.60018
-1.36077
-1.58945
-1.59262
-1.59729
-1.93953
-1.93789
-1.93487
-1.27165
12.454
4.80778
-2.33096
-1.63859
-1.64266
-1.6429
-1.94668
-1.94298
-1.94994
-1.97371
5.62213
8.23625
-2.77887
-1.68154
-1.67634
-1.68175
-1.94025
-1.93656
-1.93861
-3.16394
1.05729
4.08671
-1.69112
-1.73962
-1.71167
-1.71446
-1.93575
-1.92786
-1.9429
-2.6074
0.383949
2.40057
-1.99576
-1.83911
-1.75331
-1.75222
-1.94064
-1.92945
-2.07284
-2.12009
-0.378522
0.784895
-1.25981
-1.92825
-1.78384
-1.78324
-1.94255
-1.94343
-2.22202
-1.43993
-0.562829
-0.414645
-1.3858
-2.29172
-1.81812
-1.81541
-1.94544
-1.94464
-3.27744
-1.83347
-0.843879
-1.07896
-2.03972
-3.32493
-1.83304
-1.84504
-1.95171
-2.23764
-4.66241
-3.33032
-2.38309
-1.83858
-2.10817
-4.15301
-2.58217
-1.87574
-1.96095
-3.86152
-5.1272
-5.21372
-5.45691
-5.76439
-5.93144
-5.90663
-4.26014
-1.90432
-2.72715
-9.77225
-13.0739
-14.8395
-15.4516
-15.3135
-14.4416
-12.5517
-9.40288
-2.7532
968.546
964.218
959.938
955.008
948.866
941.074
935.678
924.542
919.413
914.784
912.353
913.699
916.606
919.548
922.485
925.97
929.499
933.674
938.036
941.598
945.327
948.805
951.68
953.639
954.701
954.745
954.827
955.326
955.551
955.445
954.877
954.328
954.497
955.156
955.813
956.188
955.72
955.349
955.437
955.51
945.949
942.4
937.995
932.724
925.995
917.095
911.707
896.38
890.571
887.401
885.968
887.055
890.593
894.745
898.556
901.982
905.974
910.548
915.165
919.51
923.575
927.246
930.475
933.139
934.829
935.74
937.326
940.181
939.783
938.519
938.951
938.201
937.979
935.148
935.358
935.724
935.825
935.503
935.583
935.852
919.789
915.849
910.831
904.525
896.175
886.895
882.359
872.262
860.791
854.459
854.918
857.807
862.163
866.843
871.758
876.153
880.471
884.873
890.186
895.414
900.13
904.423
908.405
912.132
915.185
917.51
919.409
920.505
919.068
920.928
921.641
921.139
918.008
917.792
916.554
916.498
916.715
916.875
916.81
916.924
894.385
890.287
885.269
879.279
870.927
860.688
852.008
842.79
832.837
826.278
826.669
829.527
834.546
839.49
845.234
851.049
856.315
861.252
864.366
870.677
876.399
881.404
885.829
890.168
894.203
897.228
898.729
899.299
899.031
899.118
898.483
898.331
897.516
897.512
897.423
897.369
897.399
897.279
897.355
897.787
869.767
866.147
861.971
856.946
850.178
842.99
833.662
823.528
813.429
811.713
812.126
802.889
807.733
812.062
817.821
825.272
829.691
835.125
840.942
846.736
852.68
858.232
862.673
867.148
871.432
875.339
876.797
876.95
876.953
877.015
877.051
877.314
877.63
877.954
878.072
878.049
878.079
878.028
878.149
878.939
846.435
843.361
839.797
835.36
830.921
827.496
821.752
816.76
806.177
801.844
799.948
797.985
798.343
798.109
797.269
797.882
803.317
810.244
817.961
823.708
831.044
836.981
840.704
844.851
848.66
851.063
852.1
853.197
853.975
854.743
855.705
856.567
857.368
858.085
858.429
858.578
858.559
858.54
858.671
858.989
828.729
823.259
818.921
815.225
813.03
811.084
808.658
806.785
800.866
795.93
794.062
791.243
788.732
789.421
791.144
792.842
794.319
794.087
799.713
805.418
811.189
818.044
820.183
824.213
825.77
825.679
827.814
831.304
831.329
832.743
834.49
836.135
837.204
837.973
838.443
838.803
838.923
839.026
839.758
840.019
808.468
806.408
803.322
799.399
796.818
794.834
792.292
790.672
788.839
786.412
787.919
787.256
786.646
786.773
786.989
787.583
788.293
789.407
789.535
794.139
798.057
802.022
805.308
806.143
807.296
813.216
816.889
809.993
810.993
811.963
813.922
816.033
817.509
818.261
818.624
819.666
819.623
820.266
821.274
821.76
791.488
789.672
788.14
786.023
783.189
782.878
782.143
780.472
782.115
781.546
779.309
777.427
778.198
780.147
781.751
783.094
784.341
785.131
782.99
784.964
788.067
791.283
793.699
794.26
794.868
796.087
796.177
792.445
792.841
793.766
796.474
799.255
799.702
800.435
800.503
799.949
801.164
802.392
803.956
805.476
774.555
774.197
773.491
772.414
770.245
771.011
769.946
769.025
768.734
769.157
769.371
769.161
770.789
772.874
775.192
776.327
776.895
777.468
775.515
777.48
780.386
782.69
784.273
785.533
785.474
783.768
786.804
783.457
779.111
779.711
780.252
780.792
780.83
779.255
779.469
779.457
781.278
783.756
787.345
790.071
757.824
757.877
757.578
757.134
757.337
757.539
754.829
756.074
756.653
757.716
758.519
758.889
762.548
765.527
767.307
768.412
769.226
768.608
766.74
768.617
770.782
773.057
775.024
776.723
776.35
770.768
771.685
769.092
768.018
764.676
763.326
761.935
759.888
758.489
760.054
762.515
762.705
763.372
766.437
769.729
740.687
741.149
741.382
741.407
741.856
741.499
739.995
741.456
741.986
742.937
744.171
745.463
747.744
750.887
761.502
758.661
753.903
754.253
754.235
755.279
756.825
758.73
760.56
762.61
761.408
758.31
757.149
755.28
751.04
743.016
741.512
737.347
738.665
739.383
741.498
743.016
743.745
744.042
744.408
745.603
721.978
723.394
724.541
725.217
725.795
725.658
725.761
725.455
726.101
727.159
728.353
729.577
730.576
731.561
732.385
733.4
734.819
736.3
737.127
738.16
739.204
740.188
740.774
740.672
745.789
742.264
740.037
735.882
729.225
723.036
718.102
718.677
717.786
717.437
718.985
721.022
722.538
723.586
723.694
724.931
703.187
705.478
707.415
708.909
709.935
709.905
710.098
710.39
710.65
710.934
711.808
712.957
713.942
714.867
715.7
716.574
717.659
718.608
719.371
720.19
720.729
721.07
720.53
719.004
728.085
724.659
720.92
715.466
708.281
700.233
692.834
691.512
689.777
688.786
691.892
696.272
699.816
702.921
704.679
706.564
687.738
689.871
691.545
692.844
693.747
694.471
694.227
694.79
695.341
695.803
695.697
696.389
697.33
697.968
698.667
699.404
700.213
700.881
701.559
702.364
702.633
702.719
702.39
702.145
701.694
705.334
699.304
695.246
690.029
683.565
678.414
675.673
673.521
671.121
674.709
680.049
684.3
687.776
689.545
691.388
674.961
675.82
676.563
677.14
677.512
677.919
678.799
679.311
679.792
680.301
680.097
680.639
681.439
681.342
681.5
681.925
682.775
683.715
684.886
685.57
686.373
687.392
685.89
685.212
685.528
685.955
686.235
681.022
676.543
673.673
671.401
669.957
669.115
666.557
669.683
671.292
674.408
677.647
678.573
681.84
661.59
661.392
661.461
661.637
661.714
663.063
663.646
663.588
663.749
663.625
662.961
664.311
663.445
664.033
664.476
665.077
665.538
665.767
666.614
667.581
668.519
668.146
668.038
667.937
667.748
668.051
673.737
668.712
663.325
661.76
660.249
659.168
658.882
664.772
664.4
668.406
673.597
667.08
670.726
667.308
647.378
647.061
646.525
646.005
645.706
646.405
646.892
646.421
646.826
648.161
647.147
647.231
647.189
647.249
647.553
647.905
648.224
648.001
648.497
649.29
650.024
649.557
648.699
648.233
648.39
648.395
653.895
647.783
647.063
646.798
646.622
646.79
654.243
654.843
651.31
654.337
653.823
653.083
660.254
654.31
631.357
631.151
630.773
630.428
630.002
629.748
629.679
629.944
630.353
630.583
630.293
630.358
630.222
630.164
630.245
630.137
630.207
630.348
630.481
630.601
630.707
632.335
630.19
630.068
630.478
630.181
629.854
629.654
629.169
628.993
629.641
632.909
631.563
634.736
635.048
635.214
634.843
634.784
634.242
634.798
614.51
614.679
614.418
613.895
613.49
613.267
613.215
613.342
613.499
613.509
613.231
612.862
613.162
612.297
612.269
612.074
611.948
611.991
612.185
612.542
612.983
614.413
614.213
613.689
613.131
613.433
613.046
611.214
611.983
612.43
613.155
613.911
614.248
615.784
616.047
615.45
615.601
615.49
615.281
615.22
596.848
597.421
597.344
596.826
596.346
596.119
596.153
596.326
596.586
596.781
596.563
595.884
594.869
593.883
593.164
592.966
592.874
593.276
593.966
594.73
595.423
596.321
596.746
596.203
595.712
595.15
597.533
594.249
594.674
594.468
594.316
594.203
594.225
594.359
594.709
594.591
594.839
595.046
595.186
598.432
579.409
579.763
579.176
578.66
578.445
578.503
578.612
578.891
579.411
579.856
579.653
578.547
576.597
575.303
574.461
574.461
574.17
574.945
575.697
576.777
578.334
579.358
579.326
579.194
579.336
578.251
575.927
574.746
573.711
575.691
573.102
572.305
572.182
572.292
573.274
573.384
574.209
575.158
575.942
579.304
563.17
563.114
562.939
564.572
566.86
566.607
564.318
562.542
562.677
564.473
565.183
565.814
567.397
566.349
562.831
561.471
563.635
563.783
560.917
559.259
560.222
560.314
559.048
558.064
557.468
556.511
555.37
553.761
551.939
550.504
549.861
549.377
549.628
550.451
552.784
554.376
556.033
557.414
558.507
560.966
550.057
552.7
553.566
554.184
555.078
555.02
554.474
554.068
553.847
552.859
550.647
550.609
548.71
542.83
541.426
537.706
532.608
528.673
526.357
523.991
522.316
524.013
527.906
530.201
530.905
531.434
531.807
532.024
531.976
531.438
531.231
532.293
533.65
535.023
536.492
538.77
540.379
541.418
542.45
543.772
532.14
536.207
534.974
535.437
535.004
533.818
532.934
531.475
528.939
526.073
524.118
521.925
519.356
516.08
511.884
505.469
496.582
486.584
477.011
477.798
475.138
479.972
488.191
494.699
499.652
504.24
508.547
511.904
514.168
515.356
517.866
519.579
520.484
522.041
522.886
525.499
525.961
525.989
525.566
525.415
515.894
517.381
519.289
520.456
519.749
517.749
514.728
511.52
507.928
504.033
500.003
495.734
491.334
486.744
481.11
474.6
465.137
454.893
444.852
438.448
434.499
431.956
437.274
451.095
465.104
475.948
484.033
490.555
495.509
498.794
502.904
505.34
506.761
508.697
508.978
510.556
510.117
508.96
507.933
507.746
498.098
497.785
496.745
497.057
498.007
497.416
493.961
490.653
487.082
482.784
476.712
470.083
463.836
457.955
451.897
444.554
436.17
426.817
416.658
405.519
393.592
392.692
416.26
410.171
426.58
444.746
457.844
467.699
474.642
480.276
485.868
489.322
491.583
493.181
492.64
494.191
493.513
491.139
490.911
493.195
483.574
480.717
479.824
479.871
477.532
477.585
476.268
470.031
465.633
461.061
455.057
445.419
434.922
425.819
419.941
414.742
408.411
403.979
396.388
389.245
378.883
374.396
396.034
403.684
399.594
419.547
436.476
446.156
453.494
460.388
466.838
469.915
473.299
474.143
474.727
476.667
476.22
471.39
472.021
472.544
477.743
477.722
475.721
471.527
469.777
466.975
457.39
445.56
437.556
430.318
422.841
413.355
408.024
395.348
385.627
382.451
381.646
381.178
377.302
375.02
367.544
364.374
375.046
385.677
383.759
404.457
417.361
423.931
431.127
437.337
443.074
447.883
451.177
451.901
454.138
452.425
453.701
449.915
452.009
452.307
478.161
474.909
465.517
454.598
444.509
435.564
425.055
413.775
403.227
391.796
382.349
377.361
370.76
377.491
374.879
366.579
365.738
365.543
363.751
360.917
359.124
359.525
363.156
367.975
373.598
384.491
393.03
399.29
405.641
411.629
417.284
421.817
425.43
428.091
428.302
430.283
430.184
429.282
432.814
433.468
453.615
453.146
442.598
427.225
413.785
402.92
393.63
383.483
373.611
362.765
352.023
357.348
359.787
361.887
362.259
361.009
356.091
354.533
354.862
351.364
348.66
348.942
349.862
349.158
350.693
358.285
366.378
372.402
378.671
384.738
390.568
395.482
404.873
402.314
406.749
407.853
413.6
409.621
411.033
411.073
404.668
406.391
392.71
381.067
372.566
366.233
360.321
352.791
346.142
340.214
336.228
340.063
350.795
351.456
353.705
354.221
349.557
342.21
342.866
338.532
331.883
329.997
331.433
329.585
324.78
328.218
338.933
346.198
353.104
359.37
365.339
371.143
378.4
380.173
381.938
384.05
385.319
385.58
385.65
385.683
350.579
333.941
328.959
319.865
321.988
326.946
326.58
323.626
325.095
318.209
319.32
321.046
322.207
322.091
324.866
326.285
325.921
327.29
325.471
317.202
309.603
309.942
311.229
310.629
307.215
309.755
319.222
323.058
328.527
335.078
340.098
347.73
349.056
352.495
355.737
358.467
360.426
361.725
362.365
363.06
285.485
292.422
293.433
289.795
287.382
296.57
303.227
293.723
295.356
294.97
294.076
293.225
284.457
285.895
290.471
303.225
307.479
306.946
303.431
296.582
294.198
295.426
297.072
297.724
297.011
297.05
300.968
303.821
304.102
312.702
316.672
323.786
322.808
326.74
330.326
333.694
336.283
338.211
339.543
340.622
254.335
251.454
251.055
255.296
260.622
266.17
284.425
273.497
275.236
274.183
278.879
269.842
269.349
271.013
273.722
282.462
287.954
289.533
288.597
285.266
286.502
288.117
290.036
291.738
293.324
293.934
294.673
295.343
294.002
293.43
293.256
296.98
299.465
303.315
306.795
310.374
313.296
315.525
317.242
318.399
214.555
209.523
210.293
220.388
235.677
244.88
268.859
259.271
261.814
262.232
261.745
261.83
262.781
264.423
267.265
271.961
275.552
277.895
279.966
280.531
282.091
284.724
285.685
287.93
289.789
289.761
289.584
289.358
288.593
287.963
282.436
278.174
279.441
282.424
285.421
288.839
291.92
294.179
295.823
296.581
198.341
193.646
194.125
207.935
223.425
235.151
247.958
249.292
248.086
253.613
252.241
253.517
254.758
256.581
259.153
261.467
264.463
267.922
271.652
274.683
278.031
281.676
282.481
284.533
285.587
285.129
285.005
284.48
283.394
282.157
275.218
267.848
267.475
266.895
268.006
270.696
273.715
274.864
276.248
276.432
214.027
212.73
214.274
219.246
225.216
236.629
241.415
242.911
240.591
242.44
243.243
243.568
243.827
246.281
248.841
249.654
254.168
258.278
262.663
266.659
270.755
275.871
280.444
281.905
282.224
281.88
281
280.11
278.685
274.462
267.601
261.682
261.666
259.343
258.397
258.787
259.418
258.448
259.148
259.288
236.282
237.238
236.666
235.519
236.918
238.786
239.411
238.719
238.652
238.818
238.05
236.776
236.585
237.09
235.841
246.682
248.536
248.568
252.253
256.173
260.541
264.91
270.578
274.637
277.639
277.866
275.904
272.931
269.385
266.725
264.3
257.777
253.403
250.903
247.702
250.364
246.082
245.247
243.15
244.577
257.3
257.428
257
251.003
245.248
242.768
240.858
239.617
238.959
237.914
235.811
233.125
231.427
230.289
229.073
234.954
238.274
239.279
240.925
243.754
246.587
249.128
251.422
253.572
254.87
255.594
255.471
255.437
255.799
255.195
252.308
243.791
240.481
237.427
236.689
230.916
228.368
225.543
224.009
227.051
283.079
273.567
273.255
259.736
250.023
245.127
242.464
240.883
239.845
238.634
235.23
230.983
226.583
226.311
226.206
226.862
228.325
228.945
229.65
230.216
231.157
232.419
233.694
234.305
235.012
235.602
235.731
235.693
235.729
234.494
231.601
227.688
223.344
219.258
211.991
209.071
204.729
202.818
204.78
211.884
285.523
279.622
273.75
254.99
248.962
242.664
240.546
239.442
238.901
241.617
236.329
231.795
223.593
223.377
222.419
220.88
219.888
218.23
217.489
215.426
213.952
214.361
216.318
217.506
217.526
216.597
215.117
213.345
212.013
211.513
209.963
207.605
204.905
201.744
196.219
192.198
194.975
199.813
199.251
205.503
262.402
278.285
248.986
241.442
236.802
233.452
231.899
230.503
230.048
230.119
235.286
227.581
224.094
217.001
214.975
212.414
208.337
207.481
203.029
198.957
201.619
201.979
202.185
203.069
201.857
199.441
195.697
189.86
185.99
187.071
189.419
189.465
188.441
187.946
182.067
180.544
186.825
188.73
187.938
187.679
230.981
245.365
232.172
225.432
220.971
218.925
217.559
217.508
217.29
215.638
220.075
220.339
209.905
207.11
202.591
198.347
198.531
194.388
192.229
190.764
190.515
191.926
194.286
195.993
193.896
188.939
181.688
173.127
164.486
167.088
173.017
175.724
175.637
176.355
172.003
176.637
178.995
179.317
179.215
180.517
200.517
204.254
203.802
201.653
199.649
201.271
199.582
199.713
199.983
198.81
198.468
202.15
199.278
193.707
192.079
187.535
184.393
181.363
181.607
180.82
181.344
182.596
186.033
188.642
189.452
183.98
175.192
166.848
158.727
159.58
164.636
168.873
171.802
176.38
175.915
171.986
168.9
185.356
171.384
176.189
171.175
169.705
176.119
178.144
177.527
180.938
179.52
177.491
178.89
181.58
180.843
182.31
182.832
169.883
171.563
169.433
167.431
165.751
165.054
167.951
167.205
163.44
166.784
173.655
175.561
169.033
160.244
154.565
148.123
147.221
149.259
151.421
147.414
156.535
134.739
148.207
149.959
153.226
153.891
156.816
133.381
138.677
142.712
154.904
157.39
162.687
159.676
152.309
157.18
162.52
160.476
163.72
160.747
156.936
153.922
149.592
148.028
146.691
144.061
140.469
138.401
137.262
137.701
135.188
133.161
130.656
133.93
134.542
130.652
125.791
120.836
120.193
134.877
102.566
120.038
127.169
130.278
133.376
135.054
138.271
97.8363
98.9196
110.92
125.59
141.741
146.255
140.93
133.01
137.46
141.514
143.103
145.162
143.486
141.395
135.414
131.84
128.394
124.591
120.901
118.622
118.362
113.9
110.413
101.191
112.776
104.5
113.613
113.081
106.823
101.754
99.8023
107.64
104.016
100.291
102.236
100.169
99.5226
105.845
113.046
115.877
112.862
117.503
102.95
120.44
127.592
128.905
122.651
117.94
121.798
121.66
128.289
128.082
129.518
127.54
124.606
120.64
115.294
109.676
105.672
106.376
102.668
99.7147
98.0649
90.3511
105.007
101.754
98.1273
92.7035
93.1943
96.207
96.3285
86.8456
91.6729
94.1191
87.3687
67.369
76.9172
70.4486
74.8996
82.2438
128.429
128.648
116.335
105.204
101.748
104.124
109.221
106.226
108.998
110.302
113.177
115.674
114.576
116.759
116.627
114.783
111.354
106.597
102.792
99.1737
98.0874
97.4019
95.3688
93.9317
100.103
101.635
100.393
96.249
94.7907
92.9346
88.7184
79.6376
95.0838
72.5599
68.7978
63.081
67.0618
70.4097
62.7241
64.3938
125.65
116.719
107.968
100.161
93.5612
92.0546
101.022
97.9397
99.207
99.0873
99.6671
100.515
101.283
103.016
103.019
100.414
97.968
96.6272
95.578
91.3842
88.3658
87.0125
86.0159
88.6846
90.5359
92.2816
87.1121
86.5917
87.8421
87.0195
83.1928
90.9455
74.264
80.9336
80.4469
77.3209
71.8172
71.0235
70.1629
77.2396
114.896
98.4975
87.3156
86.9501
84.205
81.7394
88.0506
86.009
85.9895
85.9819
84.8902
84.456
85.4144
87.579
88.1371
87.6397
86.0797
82.8807
79.0007
76.4281
76.3408
75.2063
72.2296
72.8704
76.3722
78.7904
76.6962
74.4586
71.4139
73.7466
69.9135
79.8663
73.3357
74.3007
79.2725
77.5278
70.3297
74.8426
64.0731
73.9351
90.987
74.1391
70.1471
72.2402
73.2137
66.836
70.4436
69.2352
66.1271
68.4094
67.9876
66.5002
68.2493
70.2474
72.455
72.7818
70.5014
66.5457
61.8813
58.1647
56.1749
55.9087
55.8552
56.0439
57.6612
58.6858
58.9005
59.0954
59.034
58.6142
59.9958
61.3913
62.5019
56.6181
73.7681
56.2026
65.2652
64.313
49.7995
59.7593
58.8085
48.8226
56.0879
51.1788
52.8825
50.2343
51.837
49.6985
47.5589
44.37
43.7687
45.1125
47.5864
50.656
52.5692
50.7623
43.7453
33.4422
27.3358
28.3294
30.8471
30.4783
29.7225
31.665
33.9649
36.8392
38.6979
39.0759
39.861
41.9286
41.9409
43.5672
41.2677
39.9044
51.8495
39.6678
47.1503
46.7403
44.4347
48.6039
36.2673
30.1707
30.6641
29.6432
33.3054
35.1829
35.3286
28.5939
22.2052
16.9948
14.3885
15.5732
22.307
33.665
41.3875
37.7489
26.7377
15.8031
15.5201
21.4884
21.3052
18.7787
16.4131
16.081
17.5939
19.9284
20.8093
19.7637
20.0372
22.7995
21.9358
21.5818
25.6301
31.7574
37.5791
33.0686
35.7747
37.7814
36.145
39.0345
10.1522
9.31848
10.9907
14.6675
14.3467
15.9527
13.7139
7.88567
2.06302
-0.207942
-2.77191
-1.2598
1.37669
8.83573
14.8457
14.8477
12.5209
11.2082
12.3747
16.8185
15.8848
11.0713
8.44708
9.05336
6.38545
7.17949
8.10298
9.36538
13.14
18.7551
20.8906
21.6851
23.507
26.5857
28.6608
23.6191
24.4111
28.1037
28.9795
29.8875
3.31345
1.39986
0.414448
0.594715
0.048386
0.302584
-0.245032
-0.339731
-0.323764
-0.416945
-0.707288
-1.05338
-0.937947
-0.0446837
0.230246
1.88058
1.79832
2.05746
5.45633
8.77583
9.24746
8.8984
7.30819
1.00758
3.76404
2.11741
1.6306
7.0555
9.594
17.4999
19.4089
21.0196
22.0414
23.2684
23.0389
17.0772
13.0479
15.3956
14.222
11.4908
1.35066
0.209378
-0.434537
-0.656662
-0.667314
-0.68511
-0.700896
-0.661846
-0.64372
-0.668579
-0.696328
-0.75904
-0.807382
-0.807239
-0.785084
-0.833288
-0.885441
-0.517883
-0.575296
9.34813
11.5523
1.01476
-0.979755
-2.85133
-3.20031
-0.343998
-0.811295
12.4129
15.4628
11.8679
19.3212
11.722
17.488
24.5215
19.7679
7.89582
3.45617
0.216461
-0.205269
0.365857
-0.724102
-0.455152
-0.595798
-0.660319
-0.693828
-0.741739
-0.780304
-0.780854
-0.789572
-0.813046
-0.830742
-0.84081
-0.819201
-0.755587
-0.820717
-0.823687
-0.814559
-0.855463
-1.04675
-1.11649
-1.11275
-1.0756
-1.08054
-1.14666
-0.795769
-0.511669
-0.347394
1.89596
8.69552
17.3554
14.6578
20.6692
19.5639
17.5739
12.6123
2.95122
0.266896
-0.122945
0.359694
0.632349
-0.780238
-0.757664
-0.744793
-0.746487
-0.778276
-0.786506
-0.830013
-0.847121
-0.867328
-0.898566
-0.924972
-0.931014
-0.921008
-0.899519
-0.889085
-0.897331
-0.90602
-0.893439
-0.987468
-1.0432
-0.986189
-0.977955
-0.981984
-0.949102
-0.883742
-0.854306
-0.972706
-0.888916
0.553989
4.49619
2.9907
1.38456
4.91554
4.42283
1.52526
0.657124
-0.326962
-0.365082
-0.358081
-0.277737
-0.792976
-0.811139
-0.836295
-0.859493
-0.898755
-0.928759
-0.942283
-0.95835
-0.973184
-0.9879
-0.996967
-0.998106
-0.981083
-0.966738
-0.959599
-0.960224
-0.967868
-0.942789
-0.960586
-1.00603
-1.00618
-1.00433
-0.993198
-0.966307
-0.929731
-0.920716
-0.936542
-0.950774
-0.984037
-1.01353
-0.996937
-0.964779
-0.96331
-0.927676
-0.884504
-0.859659
-0.752746
-0.658214
-0.62416
-0.603581
-0.823287
-0.866237
-0.909724
-0.955609
-0.996197
-1.02789
-1.05136
-1.05968
-1.06285
-1.06278
-1.05528
-1.03948
-1.02016
-0.999842
-0.993886
-0.993299
-1.00009
-0.995597
-1.00339
-1.00809