/*--------------------------------*- C++ -*----------------------------------*\
  =========                 |
  \\      /  F ield         | OpenFOAM: The Open Source CFD Toolbox
   \\    /   O peration     | Website:  https://openfoam.org
    \\  /    A nd           | Version:  8
     \\/     M anipulation  |
\*---------------------------------------------------------------------------*/
FoamFile
{
    version     2.0;
    format      ascii;
    class       volVectorField;
    location    "4.65";
    object      U;
}
// * * * * * * * * * * * * * * * * * * * * * * * * * * * * * * * * * * * * * //

dimensions      [0 1 -1 0 0 0 0];

internalField   nonuniform List<vector> 
9150
(
(0.00491973 -0.0780412 0)
(0.0130698 -0.0973772 0)
(0.0107817 -0.104323 0)
(0.00891524 -0.10768 0)
(0.00286598 -0.109137 0)
(-0.00218065 -0.109268 0)
(-0.00865299 -0.1079 0)
(-0.0108348 -0.104342 0)
(-0.0130664 -0.0974049 0)
(-0.00491631 -0.0780409 0)
(0.00595312 -0.0920042 0)
(0.00860783 -0.10051 0)
(0.00731869 -0.102241 0)
(0.0042623 -0.104679 0)
(0.00111834 -0.10553 0)
(-0.0024111 -0.105193 0)
(-0.00449203 -0.10425 0)
(-0.00733924 -0.102276 0)
(-0.00860138 -0.10053 0)
(-0.00596171 -0.0920156 0)
(0.00176827 -0.095434 0)
(0.00460308 -0.0989737 0)
(0.00374973 -0.100966 0)
(0.00339429 -0.101666 0)
(0.00144668 -0.102361 0)
(-0.000459438 -0.102691 0)
(-0.00302423 -0.102017 0)
(-0.00373345 -0.10104 0)
(-0.00459711 -0.0989902 0)
(-0.00177609 -0.095448 0)
(0.00176772 -0.0984146 0)
(0.00249185 -0.100394 0)
(0.00218368 -0.100259 0)
(0.00125683 -0.10091 0)
(0.000355863 -0.100901 0)
(-0.000800298 -0.100839 0)
(-0.00152274 -0.100507 0)
(-0.0022322 -0.10019 0)
(-0.00248052 -0.100416 0)
(-0.00176675 -0.0984222 0)
(0.000194229 -0.0994957 0)
(0.000732942 -0.0995682 0)
(0.00049943 -0.0999571 0)
(0.000697647 -0.0998738 0)
(0.000182767 -0.100098 0)
(-0.000163133 -0.100087 0)
(-0.000583654 -0.0999896 0)
(-0.000437342 -0.100071 0)
(-0.000723781 -0.0995813 0)
(-0.000192578 -0.0994953 0)
(0.076301 -0.194963 1.84809e-26)
(0.0496729 -0.185147 0)
(0.0312062 -0.1768 0)
(0.015928 -0.174079 0)
(0.00426052 -0.175875 0)
(-0.00519881 -0.176299 0)
(-0.016405 -0.175857 0)
(-0.031186 -0.177147 0)
(-0.0495906 -0.185159 0)
(-0.076258 -0.195052 -1.85738e-26)
(0.0583624 -0.146327 4.83172e-27)
(0.0483908 -0.146435 0)
(0.0285201 -0.156453 0)
(0.0210625 -0.156573 0)
(0.00566074 -0.155187 0)
(-0.00372503 -0.155371 0)
(-0.0201221 -0.156946 0)
(-0.0283863 -0.156425 0)
(-0.0484462 -0.146428 0)
(-0.0583652 -0.14641 -4.88889e-27)
(0.04761 -0.121572 2.51663e-27)
(0.0423413 -0.131285 0)
(0.0292283 -0.13379 0)
(0.0171878 -0.138323 0)
(0.00536378 -0.1407 0)
(-0.00621021 -0.140238 0)
(-0.0177451 -0.136875 0)
(-0.0295258 -0.1336 0)
(-0.0423791 -0.13137 0)
(-0.047678 -0.121665 -2.48878e-27)
(0.0373305 -0.0995622 3.79905e-27)
(0.0390504 -0.110267 0)
(0.0226511 -0.120387 0)
(0.0176172 -0.124435 0)
(0.00434628 -0.125234 0)
(-0.00449114 -0.12539 0)
(-0.0172949 -0.125487 0)
(-0.0224572 -0.120508 0)
(-0.0390779 -0.110315 0)
(-0.0373341 -0.0996446 -3.72389e-27)
(0.0248894 -0.081464 -1.22047e-26)
(0.0281227 -0.101129 -1.44313e-26)
(0.0199307 -0.108205 -3.66554e-27)
(0.0109035 -0.113986 -3.29211e-27)
(0.00476446 -0.117148 -1.02219e-28)
(-0.00449658 -0.11699 -1.50715e-28)
(-0.0111872 -0.11377 -3.22245e-27)
(-0.0199614 -0.108214 -3.65767e-27)
(-0.02802 -0.101159 -1.44977e-26)
(-0.0249267 -0.0814978 -1.22314e-26)
(0.017454 -0.142358 0)
(0.012579 -0.203641 0)
(0.0219866 -0.216025 0)
(0.00724359 -0.224675 0)
(0.00484789 -0.226658 0)
(-0.0101215 -0.226331 0)
(-0.0122209 -0.222591 0)
(-0.0229918 -0.215567 0)
(-0.0132838 -0.204746 0)
(-0.0183777 -0.145072 0)
(0.0164866 -0.166077 0)
(0.00218235 -0.198532 0)
(0.0159579 -0.207848 0)
(0.00430795 -0.212626 0)
(0.00746502 -0.214372 0)
(-0.00371206 -0.214972 0)
(-0.00104366 -0.214697 0)
(-0.0144817 -0.209564 0)
(-0.00198635 -0.199679 0)
(-0.0160622 -0.166051 0)
(0.0145299 -0.172018 0)
(-0.00352884 -0.203248 0)
(0.011046 -0.208204 0)
(-0.00107894 -0.210157 0)
(0.00300932 -0.209753 0)
(-0.00464261 -0.209827 0)
(0.000473482 -0.208945 0)
(-0.0112489 -0.208159 0)
(0.00346298 -0.203405 0)
(-0.014831 -0.172163 0)
(0.0180938 -0.194199 0)
(-0.00665314 -0.203914 0)
(0.0101026 -0.209804 0)
(-0.000597998 -0.205551 0)
(0.00245218 -0.206524 0)
(-0.0010459 -0.206907 0)
(0.00128412 -0.206879 0)
(-0.00956103 -0.210063 0)
(0.00666008 -0.204005 0)
(-0.0176003 -0.194173 0)
(0.0338129 -0.217318 0)
(0.0088531 -0.203883 0)
(0.0161199 -0.203408 0)
(0.010808 -0.197457 0)
(0.00160331 -0.193576 0)
(-0.00255872 -0.192954 0)
(-0.0113381 -0.195449 0)
(-0.0163352 -0.203324 0)
(-0.00888735 -0.203714 0)
(-0.0340352 -0.217636 0)
(0.0968569 -0.012087 0)
(0.0926207 0.0122581 0)
(0.0809664 0.0170332 0)
(0.0608696 0.0134068 0)
(0.0485245 0.00638034 0)
(0.0404118 0.00583103 0)
(0.0315481 0.0126236 0)
(0.0113993 0.0175885 0)
(-0.00858149 0.0288666 0)
(-0.0555256 0.0547439 0)
(0.128643 0.0160955 0)
(0.114101 0.0262887 0)
(0.100311 0.0458584 0)
(0.0744936 0.052626 0)
(0.048015 0.0421038 0)
(0.0302658 0.036889 0)
(0.00943674 0.0387266 0)
(-0.0137286 0.065838 0)
(-0.0443916 0.103801 0)
(-0.075007 0.110991 0)
(0.134438 0.0678918 0)
(0.110446 0.0660951 0)
(0.0857809 0.0928834 0)
(0.0634475 0.102285 0)
(0.0405013 0.0817423 0)
(0.0244749 0.0847742 0)
(0.00308226 0.0948819 0)
(-0.0294524 0.122742 0)
(-0.0482119 0.160143 0)
(-0.0705444 0.152786 0)
(0.121433 0.130815 0)
(0.0931383 0.129185 0)
(0.0692774 0.143113 0)
(0.0529019 0.14258 0)
(0.0327637 0.120689 0)
(0.00967282 0.118708 0)
(-0.00291298 0.143917 0)
(-0.0240085 0.183184 0)
(-0.0504079 0.192553 0)
(-0.0580129 0.190151 0)
(0.080784 0.177952 0)
(0.0596128 0.178423 0)
(0.0429033 0.176338 0)
(0.0344791 0.169556 0)
(0.0234325 0.160103 0)
(0.00597319 0.152876 0)
(-0.00013695 0.153721 0)
(0.00345379 0.202166 0)
(-0.00118708 0.226496 0)
(-0.0189513 0.198444 0)
(0.0422678 0.219248 0)
(0.0302384 0.205591 0)
(0.0233065 0.191944 0)
(0.0199061 0.181802 0)
(0.0174641 0.175005 0)
(0.0142972 0.172198 0)
(0.00774634 0.159601 0)
(0.00681861 0.188705 0)
(0.0216009 0.233354 0)
(0.0251039 0.232669 0)
(0.0318148 0.268043 0)
(0.020782 0.223265 0)
(0.0174759 0.198758 0)
(0.0166483 0.183515 0)
(0.0171041 0.17369 0)
(0.0175608 0.171447 0)
(0.0190781 0.168066 0)
(0.0205082 0.175021 0)
(0.0314453 0.207006 0)
(0.0472458 0.228933 0)
(0.0341062 0.280169 0)
(0.0301714 0.243021 0)
(0.025996 0.209 0)
(0.0246997 0.186756 0)
(0.0245619 0.175763 0)
(0.0258941 0.168843 0)
(0.0291913 0.160465 0)
(0.0337647 0.16087 0)
(0.0436618 0.169991 0)
(0.0582147 0.191943 0)
(0.0358186 0.274896 0)
(0.0399804 0.244287 0)
(0.0416748 0.211989 0)
(0.0440378 0.187594 0)
(0.0472363 0.174286 0)
(0.0516402 0.164925 0)
(0.0575205 0.155162 0)
(0.0597625 0.149675 0)
(0.0639418 0.151486 0)
(0.0746113 0.155356 0)
(0.0410336 0.254903 0)
(0.0462418 0.236404 0)
(0.0509194 0.205979 0)
(0.0574638 0.178154 0)
(0.0665512 0.163605 0)
(0.0728191 0.154474 0)
(0.0772117 0.148977 0)
(0.075889 0.148269 0)
(0.0747865 0.142897 0)
(0.0802257 0.13989 0)
(0.0328491 0.231578 0)
(0.0440817 0.222717 0)
(0.0543536 0.191537 0)
(0.0711481 0.152415 0)
(0.0842219 0.140574 0)
(0.0919917 0.144046 0)
(0.0896427 0.153374 0)
(0.0776905 0.15356 0)
(0.0720647 0.142385 0)
(0.073744 0.128659 0)
(0.0366821 0.206443 0)
(0.0493335 0.191174 0)
(0.0682734 0.147338 0)
(0.0881611 0.117117 0)
(0.0965544 0.11607 0)
(0.105425 0.140248 0)
(0.0864513 0.174627 0)
(0.061499 0.175301 0)
(0.0510566 0.14677 0)
(0.0504115 0.110746 0)
(0.0545417 0.170605 0)
(0.0662301 0.15463 0)
(0.0763792 0.114852 0)
(0.0845361 0.0991996 0)
(0.0880305 0.106114 0)
(0.0948554 0.160905 0)
(0.0671119 0.231069 0)
(0.0515824 0.219091 0)
(0.0445774 0.158118 0)
(0.0445972 0.101483 0)
(0.0498565 0.153416 0)
(0.0589992 0.136544 0)
(0.0631158 0.1092 0)
(0.0589147 0.0994414 0)
(0.0541544 0.11011 0)
(0.0541294 0.192464 0)
(0.0581389 0.243714 0)
(0.0622497 0.229417 0)
(0.0588518 0.176419 0)
(0.0637513 0.100253 0)
(0.0479147 0.150029 0)
(0.0475128 0.130193 0)
(0.0485655 0.112184 0)
(0.0456138 0.108944 0)
(0.0414962 0.116494 0)
(0.0412618 0.179712 0)
(0.0580281 0.223205 0)
(0.069799 0.215679 0)
(0.086414 0.171213 0)
(0.106891 0.0829598 0)
(0.0446881 0.144816 0)
(0.0514349 0.129166 0)
(0.0549647 0.114686 0)
(0.0537203 0.113786 0)
(0.0486017 0.122382 0)
(0.0502566 0.151851 0)
(0.0684202 0.169401 0)
(0.0915542 0.166394 0)
(0.115962 0.125951 0)
(0.131499 0.0682865 0)
(0.0309858 0.121108 0)
(0.0406498 0.117799 0)
(0.0465992 0.112065 0)
(0.0503914 0.114633 0)
(0.0546363 0.12191 0)
(0.0645473 0.131136 0)
(0.0802994 0.128402 0)
(0.100259 0.112714 0)
(0.118086 0.0813206 0)
(0.127735 0.054041 0)
(0.0163652 0.0935681 0)
(0.0389899 0.0997814 0)
(0.050645 0.0981013 0)
(0.0517579 0.103172 0)
(0.0539951 0.105591 0)
(0.0577157 0.101206 0)
(0.0673098 0.0917378 0)
(0.0768091 0.081612 0)
(0.0814806 0.0713259 0)
(0.0747277 0.0635384 0)
(0.029981 0.0320441 0)
(0.0330903 0.0464633 0)
(0.0273769 0.0741474 0)
(0.0227413 0.105035 0)
(0.0146257 0.108342 0)
(0.0112727 0.107408 0)
(0.00871185 0.100392 0)
(0.00534139 0.0924299 0)
(0.00213335 0.0866946 0)
(-0.0014911 0.0803806 0)
(-0.0538773 0.0424085 0)
(-0.0579125 0.10719 0)
(-0.0743368 0.134042 0)
(-0.0791562 0.141575 0)
(-0.079037 0.122246 0)
(-0.0661069 0.101453 0)
(-0.048716 0.0908339 0)
(-0.0372762 0.0862692 0)
(-0.0306874 0.0836797 0)
(-0.0283189 0.0663251 0)
(-0.160716 0.0835004 0)
(-0.153092 0.109695 0)
(-0.149235 0.117557 0)
(-0.132296 0.113352 0)
(-0.107698 0.0835733 0)
(-0.0806447 0.050656 0)
(-0.0531893 0.050103 0)
(-0.03485 0.065327 0)
(-0.0263704 0.0787384 0)
(-0.0205349 0.0549237 0)
(-0.151988 0.0783996 0)
(-0.146556 0.0909707 0)
(-0.130389 0.086401 0)
(-0.10581 0.0583465 0)
(-0.0721826 0.0137187 0)
(-0.04801 -0.0121969 0)
(-0.0291611 -0.00410586 0)
(-0.0229094 0.0320305 0)
(-0.0189012 0.0557164 0)
(0.00974214 0.00278255 0)
(-0.141901 0.0554119 0)
(-0.126835 0.0546484 0)
(-0.104992 0.041452 0)
(-0.0766952 0.00603081 0)
(-0.0581733 -0.0339648 0)
(-0.0503103 -0.0337968 0)
(-0.0279106 -0.00574648 0)
(-0.0159105 0.0329932 0)
(0.0150004 0.0101153 0)
(0.0372106 -0.0524746 0)
(-0.104046 0.0230657 0)
(-0.0952403 0.0217063 0)
(-0.0802624 -0.00858775 0)
(-0.0648203 -0.0488185 0)
(-0.0524477 -0.0622967 0)
(-0.0426053 -0.0619433 0)
(-0.0322233 -0.0786111 0)
(-0.00181037 -0.0553086 0)
(0.0243738 -0.0413436 0)
(0.0327868 -0.0635456 0)
(-0.07698 -0.0224775 0)
(-0.0648457 0.00547536 0)
(-0.0530447 -0.00376865 0)
(-0.0525416 -0.041169 0)
(-0.0571221 -0.0626135 0)
(-0.057344 -0.0700019 0)
(-0.0587944 -0.0840036 0)
(-0.0565892 -0.0764734 0)
(-0.0496348 -0.0699228 0)
(-0.044537 -0.0759678 0)
(-0.0951381 -0.0415018 0)
(-0.0860926 -0.0263287 0)
(-0.0752789 -0.0315538 0)
(-0.0746402 -0.0469404 0)
(-0.0750567 -0.0602315 0)
(-0.0705809 -0.0731301 0)
(-0.0693395 -0.0773178 0)
(-0.0665769 -0.0750007 0)
(-0.0662621 -0.0697787 0)
(-0.06677 -0.0709027 0)
(-0.0898361 -0.0531785 0)
(-0.0817989 -0.0284066 0)
(-0.0814802 -0.0216632 0)
(-0.0822591 -0.0312831 0)
(-0.0764692 -0.062825 0)
(-0.0677379 -0.0776481 0)
(-0.0594382 -0.081702 0)
(-0.0519299 -0.0823915 0)
(-0.0453604 -0.0821209 0)
(-0.0389813 -0.0837549 0)
(-0.0841782 -0.0471863 0)
(-0.0849695 -0.0374969 0)
(-0.0818769 -0.035524 0)
(-0.0720832 -0.0604368 0)
(-0.0583068 -0.0995145 0)
(-0.0469452 -0.116792 0)
(-0.0273685 -0.117112 0)
(-0.0115171 -0.108232 0)
(0.00709277 -0.102447 0)
(0.0254994 -0.105537 0)
(-0.0583281 -0.0465751 0)
(-0.0497186 -0.0432945 0)
(-0.0451875 -0.0423221 0)
(-0.0437487 -0.062293 0)
(-0.0413153 -0.10898 0)
(-0.0426957 -0.139325 0)
(-0.0341293 -0.145355 0)
(-0.0240942 -0.143741 0)
(0.00401969 -0.137744 0)
(0.0332503 -0.137278 0)
(-0.0912044 -0.0777558 0)
(-0.0898368 -0.0615874 0)
(-0.0963172 -0.0493987 0)
(-0.104555 -0.0536302 0)
(-0.132886 -0.0751521 0)
(-0.173491 -0.102074 0)
(-0.187844 -0.132358 0)
(-0.166247 -0.177751 0)
(-0.118809 -0.218435 0)
(-0.0569584 -0.206988 0)
(-0.284508 -0.0380246 0)
(-0.30804 -0.0227469 0)
(-0.324693 -0.00523473 0)
(-0.33241 -0.00996149 0)
(-0.327247 -0.0361075 0)
(-0.312313 -0.055138 0)
(-0.277215 -0.176808 0)
(-0.234471 -0.273483 0)
(-0.164917 -0.366506 0)
(-0.0856033 -0.38897 0)
(-0.336827 -0.000743899 0)
(-0.319756 0.00534698 0)
(-0.288151 0.0105758 0)
(-0.270501 -0.0356962 0)
(-0.25927 -0.117013 0)
(-0.233279 -0.166845 0)
(-0.218917 -0.262021 0)
(-0.195208 -0.389367 0)
(-0.129088 -0.52445 0)
(-0.0570313 -0.573088 0)
(-0.210439 -0.0559443 0)
(-0.209946 -0.0529609 0)
(-0.207869 -0.0985002 0)
(-0.177795 -0.128449 0)
(-0.161569 -0.14542 0)
(-0.161999 -0.166098 0)
(-0.155276 -0.249861 0)
(-0.114808 -0.469245 0)
(-0.025434 -0.754178 0)
(0.0624983 -0.861107 0)
(-0.0817528 -0.0511816 0)
(-0.0734087 -0.0397605 0)
(-0.0900802 -0.091023 0)
(-0.0828476 -0.164045 0)
(-0.0781121 -0.18097 0)
(-0.0320649 -0.208166 0)
(0.00237236 -0.344978 0)
(0.0888541 -0.611425 0)
(0.180997 -0.889519 0)
(0.244309 -0.961691 0)
(0.0466487 -0.0818487 0)
(0.0811734 -0.043429 0)
(0.0894578 0.00705656 0)
(0.102989 -0.118514 0)
(0.0716728 -0.202001 0)
(0.0734235 -0.262599 0)
(0.084832 -0.399573 0)
(0.173363 -0.686232 0)
(0.251492 -0.938142 0)
(0.294327 -0.978133 0)
(-0.00122829 -0.104575 0)
(0.0184426 -0.113232 0)
(0.0474395 -0.109108 0)
(0.0688279 -0.114499 0)
(0.0632771 -0.140703 0)
(0.0337899 -0.222881 0)
(0.0803738 -0.556628 0)
(0.148303 -0.932737 0)
(0.228336 -1.09083 0)
(0.26606 -1.07843 0)
(-0.166998 -0.186064 0)
(-0.119468 -0.169989 0)
(-0.0954512 -0.16192 0)
(-0.0742308 -0.140189 0)
(-0.0563508 -0.152092 0)
(-0.079649 -0.243057 0)
(0.0453511 -0.834918 0)
(0.0263239 -1.05194 0)
(0.095999 -1.13193 0)
(0.0364278 -1.06142 0)
(-0.233222 -0.24547 0)
(-0.214856 -0.239481 0)
(-0.182134 -0.186375 0)
(-0.160658 -0.162633 0)
(-0.147469 -0.180504 0)
(-0.107325 -0.400536 0)
(-0.0399801 -0.893694 0)
(-0.123406 -1.01783 0)
(-0.0964523 -1.02445 0)
(-0.156011 -0.923506 0)
(-0.208593 -0.258656 0)
(-0.215658 -0.268562 0)
(-0.180056 -0.245401 0)
(-0.149478 -0.226848 0)
(-0.138306 -0.227804 0)
(-0.0989701 -0.50384 0)
(-0.119766 -0.86073 0)
(-0.178389 -0.964993 0)
(-0.177057 -1.002 0)
(-0.230619 -0.906247 0)
(-0.089018 -0.133238 0)
(-0.117792 -0.286634 0)
(-0.130275 -0.295396 0)
(-0.10872 -0.269402 0)
(-0.098061 -0.20465 0)
(-0.0812622 -0.484749 0)
(-0.101311 -0.757479 0)
(-0.157327 -0.907029 0)
(-0.168756 -0.959555 0)
(-0.23651 -0.892463 0)
(-0.119037 -0.144486 0)
(-0.094211 -0.205755 0)
(-0.0954571 -0.279239 0)
(-0.113756 -0.309297 0)
(0.0255892 -0.388464 0)
(0.0801984 -0.469929 0)
(0.0445216 -0.601224 0)
(-0.00214343 -0.761435 0)
(-0.0449221 -0.871542 0)
(-0.0830111 -0.857334 0)
(-0.0861779 -0.313389 0)
(-0.0761269 -0.28362 0)
(-6.5817e-05 -0.352981 0)
(0.0333084 -0.412738 0)
(0.074861 -0.485901 0)
(0.0722216 -0.506947 0)
(0.0549761 -0.55061 0)
(0.0304313 -0.683677 0)
(0.0167705 -0.847941 0)
(0.0353074 -0.861171 0)
(-0.0556311 -0.45096 0)
(-0.00572376 -0.414122 0)
(0.0539287 -0.441587 0)
(0.0855699 -0.449522 0)
(0.107519 -0.47569 0)
(0.109827 -0.489928 0)
(0.0768641 -0.522141 0)
(0.0759239 -0.659351 0)
(0.0880538 -0.864801 0)
(0.116091 -0.878547 0)
(0.0178677 -0.495102 0)
(0.0399067 -0.520008 0)
(0.0761438 -0.52708 0)
(0.0989905 -0.523623 0)
(0.120534 -0.500496 0)
(0.122305 -0.495935 0)
(0.106724 -0.522603 0)
(0.13852 -0.666782 0)
(0.195163 -0.878105 0)
(0.217849 -0.873165 0)
(0.157289 -0.437497 0)
(0.124903 -0.533109 0)
(0.111882 -0.552518 0)
(0.116891 -0.548882 0)
(0.124952 -0.513892 0)
(0.123751 -0.507843 0)
(0.118154 -0.556207 0)
(0.183256 -0.782822 0)
(0.26322 -0.93108 0)
(0.273942 -0.894314 0)
(0.229334 -0.297533 0)
(0.203737 -0.434041 0)
(0.180375 -0.533611 0)
(0.166588 -0.534632 0)
(0.1457 -0.508071 0)
(0.139444 -0.512154 0)
(0.146674 -0.635036 0)
(0.256496 -0.941355 0)
(0.285763 -1.00613 0)
(0.296509 -0.899113 0)
(0.222424 -0.290412 0)
(0.224743 -0.396956 0)
(0.195209 -0.504816 0)
(0.193872 -0.499283 0)
(0.161765 -0.480273 0)
(0.155123 -0.520083 0)
(0.200062 -0.816289 0)
(0.302639 -1.05351 0)
(0.32521 -1.03303 0)
(0.313159 -0.901979 0)
(0.206266 -0.297684 0)
(0.218521 -0.398435 0)
(0.192652 -0.474946 0)
(0.18917 -0.453377 0)
(0.153284 -0.443984 0)
(0.148686 -0.569531 0)
(0.223123 -0.981707 0)
(0.277503 -1.13375 0)
(0.31336 -1.06474 0)
(0.235378 -0.736362 0)
(0.235489 -0.193583 0)
(0.227299 -0.432416 0)
(0.235184 -0.465616 0)
(0.210564 -0.390509 0)
(0.176465 -0.396676 0)
(0.170982 -0.668496 0)
(0.211272 -1.06263 0)
(0.259752 -1.15468 0)
(0.230392 -0.969119 0)
(0.0350657 -0.385088 0)
(0.346301 -0.150832 0)
(0.322917 -0.307502 0)
(0.270216 -0.368238 0)
(0.202824 -0.327662 0)
(0.182654 -0.349071 0)
(0.169116 -0.715892 0)
(0.201518 -1.09811 0)
(0.201303 -1.10836 0)
(0.104391 -0.696666 0)
(0.0326847 -0.207202 0)
(0.355118 -0.11822 0)
(0.296723 -0.234221 0)
(0.257773 -0.262024 0)
(0.207848 -0.248868 0)
(0.178716 -0.285176 0)
(0.16358 -0.736868 0)
(0.190884 -1.11135 0)
(0.209278 -1.03279 0)
(0.0652213 -0.561729 0)
(0.0733141 -0.151938 0)
(0.354581 -0.0784099 0)
(0.260346 -0.134765 0)
(0.245158 -0.170752 0)
(0.216581 -0.163375 0)
(0.1631 -0.22 0)
(0.157571 -0.78518 0)
(0.174834 -1.1185 0)
(0.222909 -0.925585 0)
(0.106143 -0.473136 0)
(0.0874565 -0.172067 0)
(0.292068 0.0728237 0)
(0.227694 -0.0359366 0)
(0.214805 -0.104241 0)
(0.177264 -0.0712104 0)
(0.124448 -0.189311 0)
(0.150723 -0.860236 0)
(0.173161 -1.11915 0)
(0.196051 -0.877954 0)
(0.107853 -0.273241 0)
(0.103332 -0.154828 0)
(0.131762 0.136175 0)
(0.136306 -0.0191335 0)
(0.147773 -0.0351688 0)
(0.120999 0.0135359 0)
(0.120725 -0.191079 0)
(0.219383 -0.903062 0)
(0.255959 -1.13183 0)
(0.260683 -0.930988 0)
(0.124819 -0.108658 0)
(0.0727166 -0.0901673 0)
(0.0450401 0.0937862 0)
(0.0367552 -0.0415471 0)
(0.0539018 -0.0642804 0)
(0.0493413 -0.0223369 0)
(0.138086 -0.378832 0)
(0.267947 -1.05258 0)
(0.293789 -1.18969 0)
(0.335639 -0.931279 0)
(0.236095 -0.0890864 0)
(-0.0943708 0.0164145 0)
(0.105968 0.241756 0)
(0.065168 -0.0146014 0)
(0.054919 -0.0765007 0)
(0.0554136 -0.0800121 0)
(0.14327 -0.741008 0)
(0.200862 -1.20098 0)
(0.231032 -1.26869 0)
(0.322981 -0.565639 0)
(0.0968592 0.531286 0)
(-0.136074 0.303565 0)
(0.164564 0.540048 0)
(0.102533 0.00650151 0)
(0.0801819 -0.0834955 0)
(0.0603561 -0.070111 0)
(0.115647 -0.924552 0)
(0.129353 -1.24434 0)
(0.161728 -1.26271 0)
(0.187477 -0.550509 0)
(-0.0526092 1.35314 0)
(-0.0790296 0.283203 0)
(0.147176 0.922276 0)
(0.13725 0.080467 0)
(0.111063 -0.0545174 0)
(0.0641762 -0.0445795 0)
(0.0988457 -1.06573 0)
(0.0908152 -1.26772 0)
(0.126932 -1.28091 0)
(0.223754 -0.164687 0)
(0.21825 1.16212 0)
(0.270704 0.729524 0)
(0.0875879 0.971698 0)
(0.134932 0.0470256 0)
(0.108981 -0.0242487 0)
(0.0545812 0.0466373 0)
(0.0587164 -1.18814 0)
(0.0303884 -1.27098 0)
(0.069038 -1.27009 0)
(0.0602063 -1.07192 0)
(0.280147 0.960702 0)
(0.302295 0.856899 0)
(0.0658176 1.00052 0)
(0.110599 0.0651766 0)
(0.00215267 0.0678162 0)
(-0.00873452 0.224031 0)
(0.0361839 -1.2169 0)
(0.0046155 -1.24732 0)
(0.0191631 -1.24683 0)
(-0.0401782 -0.688019 0)
(0.0957998 0.855227 0)
(0.204896 0.887717 0)
(0.144689 1.03316 0)
(0.157558 0.18577 0)
(-0.0213776 0.204655 0)
(-0.00530692 -0.382878 0)
(0.0154213 -1.21136 0)
(-0.0116468 -1.22403 0)
(0.0182279 -1.22609 0)
(-0.0302852 -0.71864 0)
(-0.0389609 0.38588 0)
(0.190737 0.796875 0)
(0.252484 1.0502 0)
(0.208795 0.373725 0)
(0.0750816 0.397805 0)
(-0.0433094 0.279339 0)
(0.00882797 -1.19781 0)
(-0.0149237 -1.19998 0)
(-0.0342501 -1.21196 0)
(-0.0588772 -0.636156 0)
(-0.0401237 -0.0106641 0)
(0.146655 0.488536 0)
(0.217453 1.02394 0)
(0.213996 0.536387 0)
(-0.032601 0.725161 0)
(-0.0902093 -0.289004 0)
(0.0285572 -1.17413 0)
(0.00177049 -1.17222 0)
(0.00342918 -1.19589 0)
(-0.0181893 -0.628023 0)
(-0.00796486 -0.0824946 0)
(0.0604967 0.243683 0)
(0.16779 0.871186 0)
(0.074978 0.817333 0)
(-0.281993 1.24675 0)
(-0.0272158 -0.861042 0)
(0.0142676 -1.15259 0)
(0.000199199 -1.15942 0)
(0.0115616 -1.17706 0)
(-0.00758948 -0.617765 0)
(-0.00359494 -0.133425 0)
(0.0552217 0.0881903 0)
(0.142501 0.855146 0)
(0.156159 1.24127 0)
(-0.153136 1.74148 0)
(0.0107012 -1.05975 0)
(0.0107565 -1.13809 0)
(-0.00747922 -1.14398 0)
(-0.00400267 -1.16366 0)
(-0.00672406 -0.628294 0)
(0.00668318 -0.222465 0)
(0.0854711 -0.0145968 0)
(0.0369115 0.917926 0)
(0.0186012 1.58289 0)
(-0.00284138 1.7754 0)
(0.00709786 -1.09584 0)
(0.00560947 -1.12732 0)
(-0.0099433 -1.13348 0)
(-0.00780618 -1.14137 0)
(-0.0253808 -0.628493 0)
(-0.028894 -0.266367 0)
(0.00809752 -0.0428649 0)
(-0.483432 1.00048 0)
(-0.222158 1.48091 0)
(-0.0352063 1.63653 0)
(-0.0138705 -1.11142 0)
(-0.00464544 -1.11466 0)
(-0.0186579 -1.11735 0)
(-0.0227851 -1.12309 0)
(-0.0430371 -0.609394 0)
(-0.0601976 -0.258231 0)
(-0.0775673 -0.0249193 0)
(-0.877558 0.415169 0)
(-0.550712 0.745012 0)
(-0.110606 0.996038 0)
(-0.0118223 -1.09841 0)
(-0.00269882 -1.10652 0)
(-0.0173623 -1.10288 0)
(-0.0177502 -1.11003 0)
(-0.0399724 -0.60789 0)
(-0.0481658 -0.146088 0)
(-0.102495 0.024295 0)
(-0.646222 0.260428 0)
(-0.4579 0.0764672 0)
(-0.0756999 -0.380005 0)
(-0.00160772 -1.09526 0)
(0.00340845 -1.09422 0)
(-0.0127531 -1.09387 0)
(-0.0104235 -1.09827 0)
(-0.0375639 -0.553243 0)
(-0.0550138 -0.0775534 0)
(-0.0737927 -0.0116237 0)
(-0.121294 0.171709 0)
(-0.0858262 0.156116 0)
(0.00229455 -0.50788 0)
(0.0051659 -1.08167 0)
(0.00590179 -1.0785 0)
(-0.0110381 -1.07711 0)
(-0.00984574 -1.08383 0)
(-0.0261025 -0.575387 0)
(-0.00343029 -0.0659291 0)
(-0.0387582 -0.0568541 0)
(-0.0744096 0.0437322 0)
(-0.0418447 0.0952959 0)
(0.0253074 -0.618299 0)
(0.00657984 -1.06556 0)
(0.00720624 -1.05774 0)
(-0.0107675 -1.05818 0)
(-0.00943582 -1.06675 0)
(-0.0295548 -0.551362 0)
(-0.0123856 -0.0291844 0)
(-0.0369833 -0.0863802 0)
(-0.0926506 -0.00256793 0)
(-0.0434022 -0.0336918 0)
(0.014836 -0.672652 0)
(0.00406558 -1.04928 0)
(0.00634802 -1.03868 0)
(-0.0127763 -1.03859 0)
(-0.0137195 -1.05116 0)
(-0.0308561 -0.563975 0)
(-0.0142681 -0.010998 0)
(-0.0358013 -0.130252 0)
(-0.0184124 0.0130015 0)
(0.00304317 -0.108506 0)
(0.0296191 -0.692539 0)
(0.0132943 -1.03238 0)
(0.012191 -1.01727 0)
(-0.00904227 -1.0175 0)
(-0.00774286 -1.03557 0)
(-0.0153245 -0.588514 0)
(-0.000227084 0.0249361 0)
(-0.0231485 -0.143298 0)
(0.0045324 0.0601812 0)
(0.0135113 -0.125359 0)
(0.0276383 -0.70902 0)
(0.0119302 -1.01179 0)
(0.0108967 -0.991306 0)
(-0.00939031 -0.993901 0)
(-0.00846053 -1.01527 0)
(-0.0224169 -0.634949 0)
(0.0357949 0.0235286 0)
(0.0658537 -0.0671176 0)
(-0.00508138 0.0613842 0)
(0.0113053 -0.163704 0)
(0.0209355 -0.715794 0)
(0.00665413 -0.993846 0)
(0.00875225 -0.973946 0)
(-0.0116336 -0.97595 0)
(-0.011973 -0.996722 0)
(-0.0317547 -0.663318 0)
(0.00859667 -0.181753 0)
(0.0771393 -0.0636271 0)
(-0.00738514 0.0226111 0)
(0.0179616 -0.204771 0)
(0.0258659 -0.716915 0)
(0.0127795 -0.9727 0)
(0.0110442 -0.953622 0)
(-0.00859852 -0.954693 0)
(-0.0103032 -0.976211 0)
(-0.0202835 -0.679145 0)
(-0.0126542 -0.222333 0)
(0.00623909 -0.0569126 0)
(-0.00217047 -0.0104108 0)
(0.0203392 -0.236633 0)
(0.0257075 -0.71265 0)
(0.0116603 -0.955002 0)
(0.010928 -0.933175 0)
(-0.0091851 -0.934533 0)
(-0.010116 -0.95787 0)
(-0.0208986 -0.682989 0)
(-0.0248881 -0.22221 0)
(-0.0106902 -0.0961157 0)
(0.017087 -0.0251486 0)
(0.0266806 -0.240079 0)
(0.0234747 -0.705959 0)
(0.0111098 -0.933705 0)
(0.00959659 -0.912811 0)
(-0.0102007 -0.914331 0)
(-0.0122805 -0.935742 0)
(-0.0289097 -0.650874 0)
(-0.0400234 -0.226021 0)
(-0.0256524 -0.162408 0)
(0.0122463 -0.035858 0)
(0.0256733 -0.246397 0)
(0.0247134 -0.707402 0)
(0.0110088 -0.914404 0)
(0.00945915 -0.892713 0)
(-0.0104015 -0.892109 0)
(-0.0126198 -0.915278 0)
(-0.0215793 -0.640029 0)
(-0.0449949 -0.199889 0)
(-0.0497877 -0.215602 0)
(0.00957093 -0.0760029 0)
(0.0259753 -0.268258 0)
(0.0221911 -0.715256 0)
(0.0108749 -0.893423 0)
(0.00892392 -0.872175 0)
(-0.0110946 -0.870525 0)
(-0.013444 -0.893367 0)
(-0.0269247 -0.659774 0)
(-0.0153018 -0.150903 0)
(-0.0467609 -0.213064 0)
(0.0283306 -0.100845 0)
(0.0499763 -0.265239 0)
(0.028437 -0.665653 0)
(0.0111003 -0.870012 0)
(0.0105127 -0.85104 0)
(-0.00929005 -0.848757 0)
(-0.0125868 -0.869871 0)
(-0.0265156 -0.664595 0)
(-0.00720357 -0.141029 0)
(-0.0390086 -0.12176 0)
(0.0754006 -0.104797 0)
(0.0718758 -0.239347 0)
(0.037908 -0.6205 0)
(0.013577 -0.847844 0)
(0.0120167 -0.82906 0)
(-0.00836498 -0.827515 0)
(-0.0103506 -0.847125 0)
(-0.0263376 -0.647793 0)
(-0.0393826 -0.11347 0)
(-0.0577673 -0.0507653 0)
(0.0376116 -0.151466 0)
(0.040549 -0.238292 0)
(0.0270982 -0.604378 0)
(0.0122863 -0.823028 0)
(0.0115688 -0.8063 0)
(-0.00827592 -0.808546 0)
(-0.00675019 -0.823133 0)
(-0.0234998 -0.635106 0)
(-0.0390598 -0.0769439 0)
(-0.0550428 -0.0111801 0)
(0.0557967 -0.139444 0)
(0.0353078 -0.194689 0)
(0.0224307 -0.58249 0)
(0.00594881 -0.799456 0)
(0.00647206 -0.785958 0)
(-0.0112049 -0.78768 0)
(-0.00426137 -0.802075 0)
(-0.0226097 -0.62704 0)
(-0.0316115 -0.0373868 0)
(-0.0518415 0.0408174 0)
(0.0733005 -0.122953 0)
(0.0362957 -0.134396 0)
(0.0275143 -0.554887 0)
(0.0101846 -0.781456 0)
(0.00890209 -0.771751 0)
(-0.0100899 -0.774264 0)
(-0.0022886 -0.790698 0)
(-0.0245876 -0.617988 0)
(-0.0253184 -0.00630131 0)
(-0.0450581 0.0839267 0)
(0.109417 -0.127817 0)
(0.064661 -0.0821853 0)
(0.0361953 -0.535941 0)
(0.0183437 -0.760876 0)
(0.0171198 -0.752187 0)
(-0.00542679 -0.755671 0)
(-0.0103023 -0.763226 0)
(-0.0190964 -0.586494 0)
(-0.0248976 0.0180165 0)
(-0.0288705 0.135912 0)
(0.0204026 -0.0560586 0)
(-0.000499813 0.113718 0)
(0.0187087 -0.603816 0)
(0.00521708 -0.736793 0)
(-0.00263827 -0.720693 0)
(-0.0256234 -0.721578 0)
(-0.0330706 -0.739303 0)
(-0.054691 -0.574384 0)
(-0.0446333 -0.0203219 0)
(-0.0265425 0.129202 0)
(-0.0720155 -0.040041 0)
(0.0131673 -0.0385834 0)
(0.0553645 -0.562757 0)
(0.0305385 -0.707558 0)
(0.0103655 -0.680777 0)
(-0.00820604 -0.683177 0)
(-0.0176777 -0.705737 0)
(-0.0367142 -0.551985 0)
(-0.0648717 -0.0309095 0)
(-0.0171385 0.0926475 0)
(-0.0284416 -0.113685 0)
(0.0290142 -0.195243 0)
(0.0298901 -0.57311 0)
(0.0158202 -0.663759 0)
(0.00462135 -0.644229 0)
(-0.00528692 -0.644526 0)
(-0.021585 -0.668708 0)
(-0.0289138 -0.540702 0)
(-0.0448892 -0.0670186 0)
(-0.00520098 0.0426874 0)
(0.0106219 -0.1295 0)
(0.0511976 -0.220688 0)
(0.0527516 -0.564721 0)
(0.035226 -0.641408 0)
(0.0239994 -0.628561 0)
(0.0158818 -0.634819 0)
(-0.00110379 -0.649997 0)
(-0.0157318 -0.514956 0)
(-0.00598262 -0.0912991 0)
(-0.0129429 0.0053947 0)
(0.0073895 -0.157894 0)
(0.016845 -0.246692 0)
(0.00682436 -0.570768 0)
(-0.00305017 -0.605922 0)
(-0.0168711 -0.593132 0)
(-0.0290649 -0.609336 0)
(-0.0409576 -0.60743 0)
(-0.0651176 -0.501082 0)
(0.00291153 -0.107335 0)
(-0.0297984 0.00350246 0)
(0.0320458 -0.165391 0)
(0.0313834 -0.231773 0)
(-0.0100765 -0.571002 0)
(-0.00680823 -0.580031 0)
(-0.0282454 -0.580777 0)
(-0.0473574 -0.581063 0)
(-0.0554823 -0.588484 0)
(-0.0788828 -0.542664 0)
(-0.0375738 -0.155545 0)
(-0.0231026 0.000937838 0)
(0.0802965 -0.143027 0)
(0.0504441 -0.189838 0)
(0.0366419 -0.501064 0)
(0.0331535 -0.547799 0)
(0.00672764 -0.542353 0)
(-0.00831962 -0.538454 0)
(-0.0199141 -0.547014 0)
(-0.0591467 -0.548841 0)
(-0.0388776 -0.221357 0)
(-0.0326625 0.0224126 0)
(0.0732028 -0.0788346 0)
(0.0159315 -0.157064 0)
(0.0378022 -0.504658 0)
(0.0224051 -0.504489 0)
(0.000255192 -0.511172 0)
(-0.0141119 -0.507467 0)
(-0.0311471 -0.506802 0)
(-0.0587669 -0.495669 0)
(-0.0629509 -0.238083 0)
(-0.05328 0.0192188 0)
(0.0863175 -0.0144192 0)
(0.0692187 -0.125006 0)
(0.0670911 -0.444541 0)
(0.0387901 -0.468013 0)
(0.0159665 -0.475223 0)
(-0.0114 -0.471112 0)
(-0.0275967 -0.470111 0)
(-0.0542787 -0.457061 0)
(-0.056237 -0.245221 0)
(-0.0637867 0.0116679 0)
(0.0331612 0.00444949 0)
(0.0657683 -0.176449 0)
(0.0708285 -0.400394 0)
(0.0391788 -0.419465 0)
(0.0195823 -0.424868 0)
(0.000820772 -0.428744 0)
(-0.02166 -0.42592 0)
(-0.0620211 -0.409136 0)
(-0.0696306 -0.229372 0)
(-0.0513921 -0.018064 0)
(0.00591562 -0.0502409 0)
(0.0749604 -0.247076 0)
(0.0687657 -0.354961 0)
(0.0336828 -0.381939 0)
(0.0069169 -0.388514 0)
(-0.0200113 -0.387124 0)
(-0.0388856 -0.378832 0)
(-0.0555867 -0.363583 0)
(-0.0706019 -0.28686 0)
(0.00506071 -0.0432289 0)
(0.0714794 -0.119037 0)
(0.0749561 -0.272384 0)
(0.0695599 -0.311298 0)
(0.0469793 -0.326412 0)
(0.0282947 -0.329701 0)
(0.00187001 -0.331641 0)
(-0.0225682 -0.331266 0)
(-0.063219 -0.317607 0)
(-0.0684302 -0.290929 0)
(-0.0872004 -0.0866324 0)
(0.100393 -0.196802 0)
(0.0735916 -0.215163 0)
(0.0670821 -0.257654 0)
(0.0301121 -0.281346 0)
(0.00356568 -0.286975 0)
(-0.0231789 -0.288934 0)
(-0.0426914 -0.282921 0)
(-0.0684853 -0.263766 0)
(-0.0746432 -0.227226 0)
(-0.0961629 -0.174376 0)
(0.0555497 -0.130358 0)
(0.0516272 -0.189503 0)
(0.0459944 -0.232184 0)
(0.0285157 -0.241536 0)
(0.0202719 -0.249501 0)
(-0.00110145 -0.250056 0)
(-0.0141031 -0.245929 0)
(-0.0411834 -0.234652 0)
(-0.048823 -0.197446 0)
(-0.0595599 -0.122323 0)
(-0.0979996 0.0409676 0)
(-0.131054 0.0457723 0)
(-0.154867 0.0456014 0)
(-0.189298 0.0533815 0)
(-0.226853 0.0627622 0)
(-0.272247 0.0654575 0)
(-0.321267 0.056836 0)
(-0.364421 0.0388494 0)
(-0.376792 0.0141806 0)
(-0.387978 0.0066073 0)
(-0.391094 -0.00528268 0)
(-0.373681 -0.0208617 0)
(-0.346903 -0.0266229 0)
(-0.322438 -0.0266198 0)
(-0.301683 -0.0233814 0)
(-0.277883 -0.0210146 0)
(-0.258287 -0.0153516 0)
(-0.238559 -0.0122136 0)
(-0.217459 -0.0174827 0)
(-0.19478 -0.0185993 0)
(-0.170266 -0.0243364 0)
(-0.147487 -0.0217864 0)
(-0.121958 -0.0245815 0)
(-0.0967354 -0.0214851 0)
(-0.0693747 -0.0235064 0)
(-0.0422382 -0.0205491 0)
(-0.0310927 0.00872935 0)
(-0.0421522 0.0250167 0)
(-0.046316 0.00179499 0)
(-0.0370609 -0.0115742 0)
(-0.0400634 -0.00764635 0)
(-0.0478166 -0.00275621 0)
(-0.0526275 -0.0131867 0)
(-0.0369135 -0.0234775 0)
(-0.0265129 -0.0248846 0)
(-0.00328957 -0.0348122 0)
(0.0113382 -0.0304937 0)
(0.0296795 -0.00972995 0)
(0.0182606 0.0135135 0)
(0.00547914 0.018297 0)
(-0.0983094 0.0781211 0)
(-0.114749 0.0675014 0)
(-0.140195 0.0699504 0)
(-0.167711 0.0810263 0)
(-0.199396 0.0893315 0)
(-0.240278 0.096102 0)
(-0.288245 0.0966236 0)
(-0.343314 0.0662584 0)
(-0.358451 0.0286949 0)
(-0.362761 0.010958 0)
(-0.36536 -0.0164586 0)
(-0.351742 -0.0511635 0)
(-0.334257 -0.0651173 0)
(-0.313797 -0.0625256 0)
(-0.297877 -0.0606029 0)
(-0.283021 -0.0641695 0)
(-0.267381 -0.060831 0)