/*--------------------------------*- C++ -*----------------------------------*\
  =========                 |
  \\      /  F ield         | OpenFOAM: The Open Source CFD Toolbox
   \\    /   O peration     | Website:  https://openfoam.org
    \\  /    A nd           | Version:  8
     \\/     M anipulation  |
\*---------------------------------------------------------------------------*/
FoamFile
{
    version     2.0;
    format      ascii;
    class       surfaceScalarField;
    location    "2.05";
    object      phi;
}
// * * * * * * * * * * * * * * * * * * * * * * * * * * * * * * * * * * * * * //

dimensions      [0 3 -1 0 0 0 0];

internalField   nonuniform List<scalar> 
18095
(
1.95629e-08
-1.71956e-07
1.52393e-07
2.31708e-08
-1.98178e-07
1.94571e-07
2.01119e-08
-2.05888e-07
2.08947e-07
1.1236e-08
-2.10449e-07
2.19325e-07
3.02203e-10
-2.13177e-07
2.2411e-07
-1.02641e-08
-2.13617e-07
2.24183e-07
-1.95272e-08
-2.10777e-07
2.2004e-07
-2.3082e-08
-2.05745e-07
2.093e-07
-1.95479e-08
-1.98205e-07
1.94671e-07
-1.72008e-07
1.5246e-07
1.55415e-08
-1.87497e-07
1.57347e-08
-1.98372e-07
1.20485e-08
-2.02202e-07
6.96441e-09
-2.05365e-07
7.20757e-10
-2.06933e-07
-6.09544e-09
-2.06801e-07
-1.20959e-08
-2.04776e-07
-1.57236e-08
-2.02118e-07
-1.55162e-08
-1.98412e-07
-1.87524e-07
6.85694e-09
-1.94354e-07
8.28268e-09
-1.99797e-07
7.03936e-09
-2.00959e-07
3.70359e-09
-2.02029e-07
-3.88172e-10
-2.02841e-07
-4.47201e-09
-2.02717e-07
-7.29743e-09
-2.01951e-07
-8.25905e-09
-2.01156e-07
-6.83862e-09
-1.99833e-07
-1.94363e-07
4.5605e-09
-1.98915e-07
4.71238e-09
-1.99949e-07
3.72677e-09
-1.99973e-07
1.99019e-09
-2.00293e-07
-1.19543e-10
-2.00731e-07
-2.02404e-09
-2.00812e-07
-3.52004e-09
-2.00455e-07
-4.64831e-09
-2.00028e-07
-4.54747e-09
-1.99934e-07
-1.9891e-07
1.0853e-09
1.13604e-09
1.16283e-09
8.70218e-10
1.3875e-10
-6.73553e-10
-1.12831e-09
-1.1562e-09
-1.08984e-09
-2.59497e-08
-1.96802e-07
2.22751e-07
-2.85037e-08
-1.98537e-07
2.01091e-07
-2.42422e-08
-2.00643e-07
1.96382e-07
-1.43255e-08
-2.00107e-07
1.9019e-07
-1.13015e-09
-2.01496e-07
1.88301e-07
1.25213e-08
-2.0216e-07
1.88508e-07
2.42089e-08
-2.02056e-07
1.90368e-07
2.91937e-08
-2.02077e-07
1.97092e-07
2.66421e-08
-1.9899e-07
2.01542e-07
-1.97132e-07
2.23774e-07
-9.7211e-09
-1.87081e-07
-1.48893e-08
-1.93369e-07
-1.281e-08
-2.02723e-07
-4.56335e-09
-2.08354e-07
2.51563e-09
-2.08575e-07
9.10031e-09
-2.08745e-07
1.54521e-08
-2.08408e-07
1.57733e-08
-2.02398e-07
1.00485e-08
-1.93265e-07
-1.87083e-07
-1.07639e-08
-1.76317e-07
-8.59446e-09
-1.95538e-07
-6.02115e-09
-2.05296e-07
-3.48741e-09
-2.10888e-07
1.06188e-09
-2.13124e-07
4.8256e-09
-2.12508e-07
6.21022e-09
-2.09792e-07
8.7605e-09
-2.04948e-07
1.08974e-08
-1.95402e-07
-1.76186e-07
-6.87864e-09
-1.69438e-07
-9.07522e-09
-1.93342e-07
-8.94805e-09
-2.05423e-07
-4.51812e-09
-2.15317e-07
-5.77616e-10
-2.17065e-07
3.30526e-09
-2.16391e-07
8.46219e-09
-2.14949e-07
8.96142e-09
-2.05448e-07
6.80168e-09
-1.93243e-07
-1.69384e-07
-1.70451e-08
-1.58161e-08
-1.22921e-08
-8.28457e-09
-1.23903e-09
6.55298e-09
1.16434e-08
1.54962e-08
1.69244e-08
3.74669e-08
-1.55012e-07
1.17545e-07
4.40003e-08
-1.97222e-07
1.90689e-07
3.78952e-08
-2.0956e-07
2.15665e-07
2.6373e-08
-2.15298e-07
2.2682e-07
1.02738e-08
-2.16768e-07
2.32867e-07
-6.66243e-09
-2.17096e-07
2.34032e-07
-2.14212e-08
-2.16019e-07
2.30778e-07
-3.04819e-08
-2.11752e-07
2.20812e-07
-2.74207e-08
-2.0102e-07
1.97959e-07
-1.60252e-07
1.32831e-07
1.78335e-08
-1.72846e-07
2.07636e-08
-2.00152e-07
1.75342e-08
-2.06331e-07
1.08131e-08
-2.08577e-07
2.3546e-09
-2.08309e-07
-6.13828e-09
-2.08603e-07
-1.35443e-08
-2.08613e-07
-1.71854e-08
-2.0811e-07
-1.5071e-08
-2.03135e-07
-1.75323e-07
1.07705e-08
-1.83616e-07
1.08187e-08
-2.00201e-07
9.36841e-09
-2.04881e-07
5.30881e-09
-2.04517e-07
1.46485e-09
-2.04465e-07
-2.40041e-09
-2.04738e-07
-6.66397e-09
-2.0435e-07
-8.70073e-09
-2.06074e-07
-1.00533e-08
-2.01782e-07
-1.85376e-07
7.91976e-09
-1.91536e-07
6.88904e-09
-1.9917e-07
7.26472e-09
-2.05256e-07
2.37155e-09
-1.99624e-07
4.40742e-10
-2.02534e-07
-1.20564e-09
-2.03092e-07
-5.72168e-09
-1.99834e-07
-5.47413e-09
-2.06321e-07
-7.24058e-09
-2.00016e-07
-1.92617e-07
3.12154e-08
3.31363e-08
2.42618e-08
1.48282e-08
5.94559e-10
-1.39887e-08
-2.34544e-08
-3.26835e-08
-3.11575e-08
5.98782e-07
-2.27454e-08
-5.76037e-07
6.07658e-07
-8.87589e-09
6.17535e-07
-9.87671e-09
6.12911e-07
4.62396e-09
6.061e-07
6.81058e-09
6.17078e-07
-1.09773e-08
6.89019e-07
-7.19412e-08
7.90217e-07
-1.01198e-07
8.64757e-07
-7.45408e-08
-3.2137e-08
8.96894e-07
5.43615e-07
-1.51227e-07
-4.15134e-07
6.00818e-07
-6.60793e-08
6.33783e-07
-4.28406e-08
6.55001e-07
-1.65946e-08
6.69998e-07
-8.18625e-09
6.91119e-07
-3.20985e-08
6.97385e-07
-7.8207e-08
7.16466e-07
-1.20279e-07
8.00093e-07
-1.58169e-07
-1.47515e-07
9.15471e-07
4.17872e-07
-2.95383e-07
-2.73716e-07
5.88723e-07
-2.3693e-07
7.2296e-07
-1.77077e-07
8.03531e-07
-9.71655e-08
8.4915e-07
-5.3805e-08
8.66269e-07
-4.92176e-08
8.62985e-07
-7.49234e-08
8.50734e-07
-1.08027e-07
8.41362e-07
-1.48797e-07
-1.96037e-07
8.89884e-07
3.62558e-07
-3.14071e-07
-3.4387e-07
3.95077e-07
-2.6945e-07
4.3446e-07
-2.1646e-07
4.92048e-07
-1.54753e-07
5.66289e-07
-1.28046e-07
6.51582e-07
-1.34511e-07
6.91451e-07
-1.14792e-07
7.17522e-07
-1.34098e-07
7.36034e-07
-1.67309e-07
-1.90792e-07
7.30788e-07
4.38429e-07
-2.59437e-07
-4.93063e-07
4.18792e-07
-2.49813e-07
4.39872e-07
-2.3754e-07
4.76404e-07
-1.91285e-07
5.05863e-07
-1.57505e-07
5.26728e-07
-1.55375e-07
5.81744e-07
-1.69808e-07
6.33901e-07
-1.86255e-07
6.54652e-07
-1.8806e-07
-1.58922e-07
6.22783e-07
3.27642e-07
-1.385e-07
-4.48579e-07
2.93323e-07
-2.15494e-07
3.1867e-07
-2.62888e-07
3.59597e-07
-2.32212e-07
4.08051e-07
-2.0596e-07
4.61751e-07
-2.09075e-07
5.1676e-07
-2.24817e-07
5.45032e-07
-2.14527e-07
5.33452e-07
-1.76481e-07
-1.59447e-07
5.33978e-07
-5.93051e-08
-2.13859e-07
1.34664e-07
2.3038e-08
-2.97837e-07
6.91202e-08
-3.0897e-07
1.36482e-07
-2.99573e-07
2.08465e-07
-2.77943e-07
2.66605e-07
-2.67216e-07
2.75673e-07
-2.33884e-07
2.88245e-07
-2.27099e-07
3.35162e-07
-2.23398e-07
-2.11915e-07
3.87629e-07
-3.91157e-07
-3.15692e-07
4.9299e-07
-3.50606e-07
-3.38388e-07
-2.96013e-07
-3.63562e-07
-2.17109e-07
-3.78477e-07
-1.32722e-07
-3.62329e-07
-7.57412e-08
-3.24196e-07
-1.30998e-08
-2.96525e-07
5.67605e-08
-2.96959e-07
1.42873e-07
-3.0951e-07
-3.18378e-07
2.49337e-07
-5.24319e-07
-3.43053e-07
5.5168e-07
-5.01799e-07
-3.60908e-07
-4.56673e-07
-4.08688e-07
-3.82721e-07
-4.5243e-07
-2.89191e-07
-4.55859e-07
-1.89833e-07
-4.23554e-07
-9.66334e-08
-3.89725e-07
4.74556e-09
-3.98338e-07
1.09687e-07
-4.14451e-07
-4.26904e-07
2.18212e-07
-4.9552e-07
-3.79012e-07
5.31479e-07
-4.44336e-07
-4.12093e-07
-4.01146e-07
-4.51877e-07
-3.70642e-07
-4.82934e-07
-3.14174e-07
-5.12328e-07
-2.25474e-07
-5.12254e-07
-1.23495e-07
-4.91703e-07
-2.77806e-08
-4.94052e-07
3.49526e-08
-4.77184e-07
-4.67585e-07
7.56343e-08
-4.02403e-07
-3.82851e-07
4.06242e-07
-3.92139e-07
-4.22357e-07
-3.75427e-07
-4.68589e-07
-3.54652e-07
-5.03709e-07
-3.30086e-07
-5.36894e-07
-2.87093e-07
-5.55247e-07
-2.25872e-07
-5.52925e-07
-1.92835e-07
-5.27089e-07
-1.92037e-07
-4.77982e-07
-4.55695e-07
-2.03927e-07
-3.18425e-07
-3.07604e-07
2.43178e-07
-3.42288e-07
-3.98494e-07
-3.61322e-07
-4.49555e-07
-3.75726e-07
-4.89305e-07
-3.72846e-07
-5.39773e-07
-3.65089e-07
-5.63004e-07
-3.5779e-07
-5.60224e-07
-3.6466e-07
-5.20218e-07
-3.77141e-07
-4.65501e-07
-4.33648e-07
-3.99189e-07
-2.81725e-07
-1.70782e-07
1.44903e-07
-3.22083e-07
-3.58136e-07
-3.56428e-07
-4.1521e-07
-4.12927e-07
-4.32806e-07
-4.42499e-07
-5.10201e-07
-4.50432e-07
-5.55072e-07
-4.55039e-07
-5.55617e-07
-4.66501e-07
-5.08756e-07
-5.02615e-07
-4.29386e-07
-3.79799e-07
-5.56465e-07
-2.61825e-07
-1.9273e-07
2.83774e-07
-2.9243e-07
-3.27532e-07
-3.5934e-07
-3.48299e-07
-4.62983e-07
-3.29163e-07
-5.04341e-07
-4.68843e-07
-5.16072e-07
-5.4334e-07
-5.27944e-07
-5.43745e-07
-5.51305e-07
-4.85395e-07
-5.93427e-07
-3.87264e-07
-3.28684e-07
-6.44542e-07
-4.48133e-07
-3.33698e-07
5.89102e-07
-4.31831e-07
-3.43836e-07
-5.08887e-07
-2.71244e-07
-5.39098e-07
-2.98951e-07
-5.31317e-07
-4.76623e-07
-5.4165e-07
-5.33008e-07
-5.51706e-07
-5.33689e-07
-5.66695e-07
-4.70406e-07
-5.93879e-07
-3.60081e-07
-2.78919e-07
-6.43644e-07
-7.84132e-07
-4.62758e-07
9.13192e-07
-7.34827e-07
-3.93139e-07
-6.16678e-07
-3.89392e-07
-5.35588e-07
-3.80042e-07
-5.26271e-07
-4.8594e-07
-5.37723e-07
-5.21556e-07
-5.5097e-07
-5.20442e-07
-5.54639e-07
-4.66737e-07
-5.67419e-07
-3.47301e-07
-2.48537e-07
-5.97801e-07
-7.0645e-07
-5.51207e-07
7.94899e-07
-5.61643e-07
-5.37944e-07
-4.49076e-07
-5.0196e-07
-4.04206e-07
-4.24912e-07
-4.49643e-07
-4.40503e-07
-4.91563e-07
-4.79637e-07
-5.19035e-07
-4.9297e-07
-5.22585e-07
-4.63187e-07
-5.23975e-07
-3.4591e-07
-2.28482e-07
-5.4403e-07
-6.68137e-07
-6.50254e-07
7.67184e-07
-6.24617e-07
-5.81464e-07
-5.31368e-07
-5.95208e-07
-4.96549e-07
-4.59731e-07
-4.96745e-07
-4.40306e-07
-5.18974e-07
-4.57408e-07
-5.42572e-07
-4.69373e-07
-5.38408e-07
-4.67351e-07
-5.08571e-07
-3.75747e-07
-2.0594e-07
-5.31113e-07
-6.65925e-07
-7.88262e-07
8.03934e-07
-6.4041e-07
-6.06979e-07
-6.67291e-07
-5.68328e-07
-6.11895e-07
-5.15127e-07
-5.95788e-07
-4.56413e-07
-6.0428e-07
-4.48916e-07
-6.25585e-07
-4.48068e-07
-6.6834e-07
-4.24596e-07
-7.2507e-07
-3.19017e-07
-2.06978e-07
-7.24033e-07
-7.83204e-07
-9.30951e-07
9.25893e-07
-6.5829e-07
-7.31893e-07
-6.60984e-07
-5.65633e-07
-6.57357e-07
-5.18754e-07
-6.24428e-07
-4.89343e-07
-6.20655e-07
-4.52689e-07
-6.38379e-07
-4.30343e-07
-6.88072e-07
-3.74903e-07
-7.4681e-07
-2.60278e-07
-2.06397e-07
-7.47392e-07
-9.13851e-07
-9.68382e-07
9.51281e-07
-7.87397e-07
-8.58347e-07
-6.66191e-07
-6.86839e-07
-6.26738e-07
-5.58208e-07
-6.00221e-07
-5.15859e-07
-5.72872e-07
-4.80038e-07
-5.77262e-07
-4.25953e-07
-5.73519e-07
-3.78646e-07
-5.80983e-07
-2.52814e-07
-1.91173e-07
-5.96207e-07
-9.42652e-07
-8.96402e-07
8.70672e-07
-9.00987e-07
-9.00012e-07
-7.56341e-07
-8.31485e-07
-6.04657e-07
-7.09892e-07
-5.25953e-07
-5.94563e-07
-4.70957e-07
-5.35034e-07
-4.40261e-07
-4.56649e-07
-4.17131e-07
-4.01776e-07
-3.22355e-07
-3.4759e-07
-2.37412e-07
-2.76115e-07
-8.77334e-07
-6.32825e-07
6.13756e-07
-9.66683e-07
-8.10663e-07
-9.10452e-07
-8.87715e-07
-7.34222e-07
-8.86122e-07
-5.00358e-07
-8.28427e-07
-3.40112e-07
-6.95281e-07
-2.88294e-07
-5.08467e-07
-2.53348e-07
-4.36722e-07
-1.99538e-07
-4.014e-07
-3.62404e-07
-7.45462e-08
-4.78055e-07
-2.3089e-07
7.61206e-08
-8.2343e-07
-4.65289e-07
-9.46257e-07
-7.64889e-07
-8.74937e-07
-9.57441e-07
-6.46067e-07
-1.0573e-06
-3.13943e-07
-1.02741e-06
-1.33668e-07
-6.88742e-07
-8.00972e-08
-4.90293e-07
-7.59859e-08
-4.05511e-07
-3.80566e-07
-5.78242e-08
2.41463e-07
-5.34034e-08
-4.18949e-07
-1.07686e-07
-1.1614e-07
-5.19526e-07
-3.5305e-07
-7.42501e-07
-7.34466e-07
-7.08577e-07
-1.09122e-06
-4.27095e-07
-1.30889e-06
-4.55096e-08
-1.07033e-06
1.45528e-07
-6.8133e-07
1.40871e-07
-4.00854e-07
-3.20987e-07
8.12918e-08
5.43886e-07
-5.08086e-08
-5.46481e-07
4.9215e-07
-6.44035e-08
2.8424e-07
-1.45139e-07
-2.06801e-08
-4.29545e-07
-1.80484e-07
-9.31417e-07
-1.43627e-07
-1.34574e-06
1.15355e-07
-1.32931e-06
3.76488e-07
-9.42463e-07
3.30413e-07
-3.5478e-07
-1.78294e-07
1.8772e-07
5.72248e-07
-3.42449e-08
-5.88811e-07
5.5927e-07
-5.14259e-08
5.22968e-07
-1.08837e-07
3.54989e-07
-2.61566e-07
2.9553e-07
-8.71958e-07
3.45205e-07
-1.39542e-06
4.21275e-07
-1.40538e-06
6.13626e-07
-1.13481e-06
5.82247e-07
-3.234e-07
-3.68351e-09
4.07636e-07
5.27551e-07
-1.00336e-08
-5.51762e-07
4.9286e-07
-1.67343e-08
4.41533e-07
-5.75107e-08
2.89578e-07
-1.09612e-07
4.35079e-07
-1.01746e-06
5.51718e-07
-1.51206e-06
6.16723e-07
-1.47038e-06
6.2716e-07
-1.14525e-06
5.9654e-07
-2.9278e-07
2.07454e-07
3.85402e-07
4.55976e-07
4.83941e-08
-5.14404e-07
3.92532e-07
4.67096e-08
3.35987e-07
-9.65897e-10
2.50374e-07
-2.39984e-08
5.19478e-07
-1.28656e-06
6.0798e-07
-1.60056e-06
6.48498e-07
-1.5109e-06
4.91248e-07
-9.88e-07
3.65648e-07
-1.6718e-07
3.53495e-07
2.19607e-07
3.61742e-07
9.11128e-08
-4.04461e-07
3.25321e-07
8.31302e-08
2.75198e-07
4.91575e-08
1.8565e-07
6.55489e-08
3.61096e-07
-1.46201e-06
4.10817e-07
-1.65028e-06
3.21145e-07
-1.42123e-06
-3.94643e-08
-6.27391e-07
-2.51509e-07
4.4864e-08
2.52965e-07
-1.50979e-07
2.85899e-07
7.08726e-08
-2.65659e-07
2.94387e-07
7.46426e-08
2.15697e-07
1.27847e-07
1.53865e-07
1.27381e-07
2.11321e-07
-1.51946e-06
2.47994e-07
-1.68695e-06
-9.85204e-08
-1.07472e-06
-4.46732e-07
-2.7918e-07
-4.09558e-07
7.69013e-09
6.08934e-08
-2.17486e-07
3.08122e-07
1.77681e-08
-2.55017e-07
2.57446e-07
1.25319e-07
4.96221e-08
3.3567e-07
-8.01138e-08
2.57117e-07
2.04806e-08
-1.62006e-06
-1.38602e-08
-1.65261e-06
-3.42339e-07
-7.46238e-07
-3.74774e-07
-2.46746e-07
-2.44566e-07
-1.22517e-07
-1.36528e-07
-4.7144e-08
1.56218e-07
7.48887e-08
-2.13338e-07
-2.18948e-08
3.03431e-07
-3.56706e-07
6.70481e-07
-4.22134e-08
-5.73765e-08
-2.4008e-08
-1.63826e-06
-5.46564e-08
-1.62197e-06
-3.48614e-07
-4.52281e-07
-4.47115e-07
-1.48244e-07
-1.24678e-07
-4.44954e-07
-3.1388e-07
5.26736e-08
-3.32047e-07
3.94703e-07
1.22326e-08
-6.79402e-07
6.50784e-07
-5.78026e-07
5.69109e-07
2.82203e-08
-6.63622e-07
-3.21859e-09
-1.60682e-06
-4.67875e-09
-1.62051e-06
-1.19007e-07
-3.37952e-07
-2.5017e-07
-1.70816e-08
-3.66342e-07
-3.28782e-07
-4.59865e-07
-2.20358e-07
-3.40474e-07
4.92479e-07
2.42697e-07
-2.74215e-07
5.84524e-07
4.03454e-08
2.54549e-07
3.07549e-08
-6.54031e-07
-3.77998e-09
-1.57229e-06
-2.34558e-08
-1.60083e-06
2.4161e-07
-6.03017e-07
1.39543e-07
8.49844e-08
-1.49818e-08
-1.74257e-07
-4.7665e-07
1.80224e-09
-1.88924e-07
3.48202e-07
3.33201e-07
2.83731e-08
3.67222e-07
3.54099e-07
-7.1177e-08
4.50099e-08
-3.44945e-07
1.69652e-08
-1.54424e-06
-1.39051e-08
-1.56996e-06
1.24621e-07
-7.41544e-07
1.03538e-07
1.06065e-07
2.0233e-07
-2.73048e-07
-4.24861e-07
1.5054e-07
5.85246e-08
5.51117e-08
2.34566e-07
2.9669e-07
1.29057e-07
2.75984e-07
-5.04682e-08
3.46898e-08
-1.03649e-07
2.19774e-08
-1.53153e-06
-1.36469e-08
-1.53434e-06
3.71377e-07
-1.12657e-06
5.34103e-07
-5.66622e-08
4.52068e-07
-1.91013e-07
-2.65051e-07
2.92257e-07
-1.19388e-07
-5.60638e-08
2.30564e-07
4.61139e-08
-3.64468e-08
4.794e-09
-9.15018e-09
4.80382e-08
-1.46891e-07
2.17321e-08
-1.50522e-06
4.45151e-09
-1.51706e-06
1.49643e-07
-1.27176e-06
3.732e-07
-2.80221e-07
4.41509e-07
-2.59324e-07
-2.30735e-07
4.07194e-07
2.42628e-07
-1.03066e-07
-1.95625e-07
1.52481e-07
5.36995e-08
-1.11049e-07
2.5438e-07
2.86835e-08
-2.86625e-07
8.72816e-09
-1.48527e-06
-2.01835e-08
-1.48815e-06
7.10783e-08
-1.36302e-06
3.75667e-07
-5.8481e-07
4.29535e-07
-3.13193e-07
-2.39584e-07
4.38386e-07
-3.95945e-07
-2.66345e-07
5.59225e-07
-3.86135e-07
4.38877e-08
-4.89531e-07
3.57774e-07
1.23782e-08
-7.88527e-07
2.67438e-09
-1.47556e-06
-1.28225e-08
-1.47265e-06
2.78521e-08
-1.40369e-06
1.14082e-07
-6.71044e-07
1.44108e-07
-3.43219e-07
-2.75941e-07
1.80463e-07
-1.32372e-06
-2.14914e-07
1.27229e-06
-1.18729e-06
-9.25449e-08
-5.76277e-07
-2.53249e-07
8.72503e-09
-1.37352e-06
-1.76606e-09
-1.46507e-06
-8.53634e-09
-1.46588e-06
1.56902e-08
-1.42792e-06
3.29349e-08
-6.88287e-07
6.79137e-08
-3.78199e-07
-3.07001e-07
9.89711e-08
-5.79113e-07
-2.15562e-07
5.79752e-07
-3.98881e-07
-2.72789e-07
-7.90641e-08
-5.7306e-07
6.34622e-09
-1.45893e-06
-4.74807e-09
-1.45398e-06
-8.49059e-09
-1.46213e-06
5.52692e-09
-1.44194e-06
2.29434e-08
-7.05705e-07
8.16508e-08
-4.36908e-07
-3.48083e-07
1.2273e-07
-1.54896e-07
-2.53957e-07
1.93294e-07
-8.9438e-08
-3.38247e-07
-2.08577e-08
-6.41641e-07
-3.48886e-08
-1.4449e-06
-2.98342e-08
-1.45903e-06
-4.1058e-08
-1.45091e-06
-3.77996e-08
-1.4452e-06
2.55743e-08
-7.69082e-07
7.48052e-08
-4.86137e-07
-3.90733e-07
1.17454e-07
-3.10192e-08
-2.40935e-07
1.7997e-08
-2.05451e-08
-3.48713e-07
9.55916e-09
-6.71743e-07
9.38131e-10
-1.43628e-06
-3.29861e-09
-1.45479e-06
-4.90866e-09
-1.4493e-06
-1.1309e-08
-1.4388e-06
4.96832e-08
-8.30076e-07
1.00231e-07
-5.36684e-07
-4.58339e-07
1.67836e-07
1.33701e-08
-2.09479e-07
-4.48245e-08
6.82258e-09
-3.42171e-07
4.04744e-08
-7.05402e-07
3.47219e-08
-1.43053e-06
2.52062e-08
-1.44528e-06
3.17756e-08
-1.45587e-06
2.67673e-08
-1.43379e-06
7.80056e-08
-8.81315e-07
1.2942e-07
-5.88099e-07
-5.27065e-07
1.98146e-07
-4.38069e-09
-1.76327e-07
-2.87704e-08
-1.53341e-08
-3.31201e-07
-1.53231e-08
-7.05411e-07
-2.20196e-08
-1.42383e-06
-1.57214e-08
-1.45158e-06
-2.69326e-08
-1.44466e-06
-3.02484e-08
-1.43048e-06
3.22764e-08
-9.43842e-07
7.39514e-08
-6.29773e-07
-5.7831e-07
1.252e-07
-2.49025e-09
-1.67534e-07
-6.30371e-09
-4.31534e-09
-3.29375e-07
1.95697e-08
-7.29306e-07
1.58495e-08
-1.42011e-06
1.0074e-08
-1.4458e-06
9.56401e-09
-1.44415e-06
3.98123e-09
-1.42489e-06
7.67884e-09
-9.4754e-07
1.42564e-08
-6.36355e-07
-5.76301e-07
1.22501e-08
1.88081e-08
-1.75066e-07
-1.12735e-08
2.29368e-08
-3.33502e-07
3.37812e-08
-7.40162e-07
2.86859e-08
-1.41501e-06
1.87147e-08
-1.43583e-06
1.61435e-08
-1.44158e-06
9.88067e-09
-1.41863e-06
-2.26288e-08
-9.15029e-07
-4.208e-08
-6.1691e-07
-5.55311e-07
-6.30698e-08
5.92992e-08
-1.8095e-07
-5.34159e-08
5.62222e-08
-3.30416e-07
2.63555e-08
-7.10298e-07
8.61357e-09
-1.39727e-06
1.59893e-10
-1.42738e-06
-1.59507e-08
-1.42547e-06
-2.74844e-08
-1.4071e-06
-9.64931e-08
-8.46017e-07
-1.30924e-07
-5.82483e-07
-5.3322e-07
-1.53016e-07
1.15192e-07
-1.70637e-07
-1.25506e-07
1.01347e-07
-3.16568e-07
5.58951e-08
-6.64847e-07
2.3115e-08
-1.36449e-06
4.19087e-09
-1.40845e-06
-1.19094e-08
-1.40937e-06
-4.38252e-08
-1.37518e-06
-1.38817e-07
-7.51022e-07
-1.95481e-07
-5.25822e-07
-4.95514e-07
-2.33189e-07
1.44742e-07
-1.60747e-07
-1.54632e-07
1.11595e-07
-2.83428e-07
6.18938e-08
-6.15143e-07
2.1147e-08
-1.32373e-06
-1.56394e-09
-1.38574e-06
-2.509e-08
-1.38584e-06
-7.41273e-08
-1.32615e-06
-1.55562e-07
-6.69584e-07
-2.13108e-07
-4.68279e-07
-4.3533e-07
-2.73294e-07
1.5022e-07
-1.20288e-07
-1.90679e-07
1.1691e-07
-2.50121e-07
7.53877e-08
-5.73621e-07
2.96225e-08
-1.27797e-06
1.1638e-09
-1.35728e-06
-2.81258e-08
-1.35655e-06
-8.25724e-08
-1.27171e-06
-1.62845e-07
-5.89308e-07
-2.23157e-07
-4.07968e-07
-3.71312e-07
-2.87175e-07
1.56351e-07
-5.93175e-08
-2.1732e-07
9.77729e-08
-1.91539e-07
6.43635e-08
-5.40206e-07
3.3693e-08
-1.24729e-06
3.93525e-09
-1.32752e-06
-2.33962e-08
-1.32922e-06
-6.7204e-08
-1.2279e-06
-1.47791e-07
-5.08721e-07
-2.28135e-07
-3.27623e-07
-2.90376e-07
-3.09072e-07
9.50207e-08
-1.73718e-08
-1.36968e-07
7.03366e-08
-1.6686e-07
3.4881e-08
-5.04754e-07
2.63989e-08
-1.23881e-06
-1.34473e-09
-1.29978e-06
-2.93643e-08
-1.3012e-06
-3.46995e-08
-1.22256e-06
-9.84678e-08
-4.44951e-07
-1.80582e-07
-2.4551e-07
-2.07035e-07
-2.6392e-07
2.20274e-08
-2.1845e-08
-1.7552e-08
2.96095e-08
-1.74445e-07
1.04363e-08
-4.85585e-07
2.44815e-08
-1.25286e-06
-3.85719e-10
-1.27491e-06
-2.57094e-08
-1.27588e-06
-8.37094e-09
-1.2399e-06
-5.14518e-08
-4.01869e-07
-1.40967e-07
-1.55995e-07
-1.26842e-07
-2.21162e-07
-3.54247e-09
-5.91022e-08
4.07994e-08
8.63099e-09
-1.86604e-07
4.40917e-09
-4.81359e-07
1.74326e-08
-1.26588e-06
-5.30574e-10
-1.25695e-06
-1.86397e-08
-1.25777e-06
1.22855e-09
-1.25977e-06
-2.90897e-09
-3.97731e-07
-9.4273e-08
-6.46302e-08
-2.90086e-08
-1.92107e-07
1.38971e-08
-8.49933e-08
1.19935e-08
7.01926e-10
-1.73406e-07
1.01711e-08
-4.90834e-07
1.45827e-08
-1.27029e-06
1.66283e-09
-1.24403e-06
-1.22427e-08
-1.24387e-06
-2.74129e-09
-1.26927e-06
2.40344e-08
-4.24508e-07
-3.61199e-08
-4.47368e-09
5.2425e-08
-1.17556e-07
8.35374e-09
-6.69574e-08
-2.63863e-08
-1.92562e-08
-1.45795e-07
1.58546e-08
-5.25942e-07
9.49057e-09
-1.26392e-06
3.21864e-10
-1.23486e-06
-8.24942e-09
-1.2353e-06
-1.14987e-08
-1.26602e-06
5.24755e-08
-4.88483e-07
1.12069e-08
3.67961e-08
1.15603e-07
-5.19721e-08
9.10192e-09
-1.58811e-08
-6.0178e-08
-3.0928e-08
-1.05763e-07
1.0438e-08
-5.67306e-07
2.16535e-09
-1.25565e-06
-5.39981e-09
-1.22729e-06
-8.74245e-09
-1.23195e-06
-2.25715e-08
-1.25219e-06
5.1093e-08
-5.6215e-07
1.42363e-08
7.36536e-08
1.92081e-07
-6.22411e-08
1.12549e-07
6.52237e-09
-1.34952e-07
9.07809e-09
-2.28243e-09
-1.90788e-09
-5.56317e-07
-2.2085e-08
-1.23547e-06
-2.01619e-08
-1.22922e-06
-2.74452e-08
-1.22467e-06
-3.86992e-08
-1.24094e-06
5.88742e-08
-6.59723e-07
6.73601e-08
6.5169e-08
2.41855e-07
1.75857e-08
-1.07455e-07
9.78133e-08
1.61654e-08
-8.94922e-08
-2.02487e-08
1.13399e-08
-6.57151e-07
2.43852e-09
-1.22657e-06
-2.89082e-09
-1.22389e-06
-4.61519e-09
-1.22295e-06
-1.63422e-08
-1.22921e-06
4.51049e-08
-7.2117e-07
1.00724e-07
9.54928e-09
2.4894e-07
9.36371e-08
-1.15013e-07
1.43904e-07
6.89242e-08
-9.84532e-09
-1.25417e-07
2.13256e-08
-6.88319e-07
8.15968e-09
-1.21341e-06
-1.33239e-10
-1.2156e-06
-6.71821e-09
-1.21636e-06
-2.08257e-08
-1.2151e-06
1.1187e-08
-7.53184e-07
8.01942e-08
-5.94579e-08
2.4082e-07
8.83149e-08
-3.47423e-08
1.19636e-07
5.90097e-08
1.60368e-08
-1.76197e-07
1.99096e-08
-6.92193e-07
7.53153e-09
-1.20103e-06
-3.80978e-09
-1.20425e-06
-1.80643e-08
-1.20211e-06
-3.40356e-08
-1.19913e-06
-3.1542e-08
-7.55678e-07
1.31638e-09
-9.23167e-08
2.14035e-07
2.81008e-08
1.56121e-07
7.36952e-08
-1.10181e-07
9.80054e-08
-1.18082e-07
3.88187e-08
-6.33005e-07
1.94346e-08
-1.18165e-06
7.15649e-10
-1.18554e-06
-1.67021e-08
-1.18469e-06
-3.34122e-08
-1.18242e-06
-5.05049e-08
-7.38586e-07
-4.38143e-08
-9.90099e-08
1.84759e-07
-1.45381e-08
1.48468e-07
4.07549e-09
-7.88485e-08
1.17151e-07
-8.67647e-08
4.6254e-08
-5.62108e-07
2.34216e-08
-1.15881e-06
2.30548e-10
-1.16234e-06
-2.18951e-08
-1.16256e-06
-4.31897e-08
-1.16112e-06
-7.06282e-08
-7.11148e-07
-5.95439e-08
-1.10097e-07
1.48487e-07
-2.32741e-08
7.34805e-08
-4.88423e-08
-2.05614e-08
3.89274e-08
-5.22021e-08
3.37705e-08
-5.56949e-07
1.83699e-08
-1.14341e-06
-4.68472e-09
-1.13929e-06
-2.97629e-08
-1.13748e-06
-4.67614e-08
-1.14413e-06
-8.48953e-08
-6.73014e-07
-4.75442e-08
-1.47452e-07
8.87691e-08
1.21717e-08
1.04505e-07
-5.98413e-08
-9.35026e-08
2.1515e-08
3.07979e-08
3.37044e-08
-5.69134e-07
2.25503e-08
-1.13226e-06
-2.27734e-09
-1.11446e-06
-2.58665e-08
-1.1139e-06
-3.69709e-08
-1.13302e-06
-6.19283e-08
-6.48057e-07
-3.5443e-08
-1.73939e-07
1.9641e-08
3.36832e-08
-1.21193e-08
-2.4e-08
-2.37192e-08
-4.81539e-09
2.34949e-08
3.55967e-08
-6.09546e-07
2.1326e-08
-1.11799e-06
-2.78363e-09
-1.09035e-06
-2.714e-08
-1.08954e-06
-4.21756e-08
-1.11799e-06
-4.11297e-08
-6.49104e-07
-3.2396e-08
-1.82672e-07
1.85333e-09
-1.46099e-08
-4.92216e-08
3.31699e-08
-7.94705e-09
7.8866e-09
-3.36068e-08
4.08484e-08
-6.42507e-07
2.27078e-08
-1.09985e-06
1.3094e-09
-1.06895e-06
-2.01886e-08
-1.06804e-06
-3.874e-08
-1.09944e-06
-3.89246e-08
-6.4892e-07
-6.65335e-08
-1.55061e-07
-4.00065e-09
-6.068e-08
2.07884e-08
7.85661e-08
-6.61835e-08
1.72198e-08
-3.00341e-08
3.69968e-08
-6.62284e-07
1.79936e-08
-1.08084e-06
-1.95777e-11
-1.05094e-06
-1.75111e-08
-1.05055e-06
-3.72487e-08
-1.0797e-06
-2.49695e-08
-6.612e-07
-5.05823e-08
-1.29447e-07
-1.73653e-08
-3.72171e-08
1.62902e-08
1.28728e-07
-6.64508e-08
8.87836e-09
-2.26245e-08
3.18907e-08
-6.85298e-07
1.23657e-08
-1.06132e-06
-1.20046e-09
-1.03737e-06
-1.57062e-08
-1.03604e-06
-3.3528e-08
-1.06188e-06
3.91619e-09
-6.98646e-07
1.16878e-08
-1.3722e-07
-1.72831e-08
1.16055e-08
-8.55501e-09
1.62664e-07
-2.53825e-08
8.75249e-09
-3.99397e-08
3.1335e-08
-7.07883e-07
1.21595e-08
-1.04214e-06
-3.59379e-09
-1.02162e-06
-1.59973e-08
-1.02364e-06
-3.56094e-08
-1.04226e-06
-2.02846e-08
-7.1397e-07
-3.35725e-08
-1.23933e-07
2.23731e-08
-7.323e-08
-1.16235e-08
1.63221e-07
1.1065e-08
1.64721e-08
-6.80392e-08
1.73293e-08
-7.08742e-07
-2.21338e-09
-1.0226e-06
-9.69803e-09
-1.01414e-06
-3.00752e-08
-1.00326e-06
-4.86451e-08
-1.02369e-06
-2.89308e-08
-7.33684e-07
-3.04614e-08
-1.22403e-07
4.65732e-08
-5.46626e-08
2.05523e-08
1.29046e-07
1.36209e-08
5.50321e-08
-1.02529e-07
7.45122e-08
-7.28225e-07
5.8038e-08
-1.00613e-06
2.95022e-08
-9.85601e-07
2.33792e-08
-9.9714e-07
5.79239e-09
-1.00611e-06
-1.46889e-08
-7.13204e-07
-1.45728e-09
-1.35636e-07
4.17494e-08
3.36636e-09
3.73017e-08
9.4926e-08
-3.18413e-09
4.30405e-08
-1.08276e-07
1.58212e-08
-7.01007e-07
-2.41426e-09
-9.87892e-07
-1.31469e-08
-9.74869e-07
-4.04886e-08
-9.69798e-07
-5.74355e-08
-9.89161e-07
-5.37394e-08
-7.16901e-07
-1.62851e-08
-1.7309e-07
-9.06476e-09
3.45297e-08
5.40361e-08
6.79121e-08
-2.70251e-08
6.17677e-08
-1.16011e-07
5.348e-08
-6.9272e-07
3.55077e-08
-9.6992e-07
8.36146e-09
-9.47722e-07
-1.03121e-08
-9.51125e-07
-2.84592e-08
-9.71013e-07
-4.66482e-08
-6.98712e-07
-2.29165e-08
-1.96822e-07
-6.3072e-08
3.10912e-08
5.58628e-08
5.2532e-08
-4.04833e-08
5.23155e-08
-1.12465e-07
3.87676e-08
-6.79174e-07
1.95628e-08
-9.50716e-07
-2.42781e-09
-9.25732e-07
-2.76828e-08
-9.2587e-07
-4.58405e-08
-9.52856e-07
-4.28948e-08
-7.01657e-07
-1.82383e-08
-2.21479e-07
-9.70039e-08
1.56932e-08
5.16813e-08
4.32118e-08
-4.23613e-08
4.76178e-08
-1.08404e-07
4.44847e-08
-6.76041e-07
2.53942e-08
-9.31625e-07
9.21446e-10
-9.01259e-07
-2.26202e-08
-9.02328e-07
-4.15493e-08
-9.33927e-07
-4.53923e-08
-6.97814e-07
-4.78142e-08
-2.19057e-07
-1.09706e-07
-3.51125e-08
4.88247e-08
3.77718e-08
-4.33864e-08
4.28798e-08
-1.02465e-07
4.29725e-08
-6.76133e-07
2.21689e-08
-9.10822e-07
-6.88619e-10
-8.78401e-07
-2.26682e-08
-8.80348e-07
-4.32891e-08
-9.13306e-07
-4.33689e-08
-6.97734e-07
-4.86291e-08
-2.13797e-07
-1.12872e-07
-4.54639e-08
5.62217e-08
3.11654e-08
-4.96168e-08
4.62952e-08
-9.25368e-08
4.55595e-08
-6.75396e-07
2.2427e-08
-8.87689e-07
4.35186e-10
-8.5641e-07
-2.17632e-08
-8.5815e-07
-4.49299e-08
-8.9014e-07
-4.49484e-08
-6.97716e-07
-4.82835e-08
-2.10462e-07
-1.12166e-07
-4.89891e-08
5.95081e-08
3.13434e-08
-5.96858e-08
4.90684e-08
-8.20965e-08
4.43391e-08
-6.70667e-07
2.01192e-08
-8.63471e-07
4.76171e-10
-8.36767e-07
-1.98579e-08
-8.37816e-07
-4.43347e-08
-8.65663e-07
-4.85305e-08
-6.93521e-07
-4.91373e-08
-2.09856e-07
-1.11964e-07
-4.93407e-08
6.76253e-08
4.20299e-08
-7.83109e-08
5.43813e-08
-6.88549e-08
4.42607e-08
-6.60547e-07
2.02668e-08
-8.39477e-07
1.10461e-09
-8.17604e-07
-1.9817e-08
-8.16894e-07
-4.43499e-08
-8.4113e-07
-5.3103e-08
-6.84769e-07
-4.69425e-08
-2.16017e-07
-1.20158e-07
-3.87481e-08
7.31023e-08
5.50746e-08
-8.61484e-08
5.88377e-08
-5.45914e-08
4.41796e-08
-6.45888e-07
2.03946e-08
-8.15691e-07
-4.60054e-13
-7.97209e-07
-2.03213e-08
-7.96573e-07
-4.49248e-08
-8.16526e-07
-5.79852e-08
-6.71709e-07
-4.63969e-08
-2.27606e-07
-1.38501e-07
-2.80538e-08
8.91741e-08
6.56025e-08
-9.97026e-08
6.62388e-08
-3.16506e-08
4.62812e-08
-6.25929e-07
2.2829e-08
-7.92239e-07
3.3061e-10
-7.74711e-07
-2.18773e-08
-7.74366e-07
-4.62033e-08
-7.922e-07
-6.13484e-08
-6.56563e-07
-4.98702e-08
-2.39084e-07
-1.63159e-07
-2.52122e-08
9.53601e-08
7.67494e-08
-1.06505e-07
6.925e-08
-5.53365e-09
4.85759e-08
-6.05255e-07
2.51124e-08
-7.68776e-07
6.75815e-10
-7.50274e-07
-2.29941e-08
-7.50696e-07
-4.7103e-08
-7.68091e-07
-6.21856e-08
-6.41481e-07
-5.38247e-08
-2.47444e-07
-1.82145e-07
-3.48379e-08
7.79362e-08
8.71883e-08
-8.83733e-08
6.47706e-08
7.62813e-09
5.16202e-08
-5.92106e-07
2.71241e-08
-7.4428e-07
1.74137e-09
-7.24892e-07
-2.47197e-08
-7.24235e-07
-4.97222e-08
-7.43089e-07
-6.5296e-08
-6.25906e-07
-5.88186e-08
-2.53922e-07
-1.92573e-07
-4.83909e-08
6.37951e-08
8.91032e-08
-6.57108e-08
6.56106e-08
5.80588e-09
5.31185e-08
-5.79616e-07
2.65422e-08
-7.17703e-07
6.15803e-10
-6.98965e-07
-2.62493e-08
-6.97369e-07
-5.24148e-08
-7.16923e-07
-7.01562e-08
-6.08165e-07
-6.51545e-08
-2.58924e-07
-2.03604e-07
-5.41237e-08
6.45541e-08
8.2265e-08
-5.77181e-08
7.52421e-08
-4.88159e-09
5.55119e-08
-5.59885e-07
2.6379e-08
-6.8857e-07
-1.55497e-09
-6.71031e-07
-2.80474e-08
-6.70877e-07
-5.57833e-08
-6.89187e-07
-7.68755e-08
-5.87073e-07
-7.36223e-08
-2.62178e-07
-2.11643e-07
-6.5583e-08
7.73214e-08
5.31652e-08
-4.82221e-08
7.95433e-08
-7.10214e-09
5.61475e-08
-5.36488e-07
2.65846e-08
-6.59006e-07
-4.05054e-09
-6.40396e-07
-3.00858e-08
-6.44842e-07
-5.85413e-08
-6.60732e-07
-8.48762e-08
-5.60738e-07
-8.49812e-08
-2.62072e-07
-2.10536e-07
-8.60887e-08
1.11374e-07
5.83676e-08
-1.16576e-07
8.40577e-08
2.0215e-08
5.73003e-08
-5.09728e-07
2.45803e-08
-6.26285e-07
-2.06355e-09
-6.13752e-07
-3.0945e-08
-6.1596e-07
-6.12811e-08
-6.30396e-07
-8.77125e-08
-5.34307e-07
-8.75337e-08
-2.6225e-07
-2.02185e-07
-9.58833e-08
9.68275e-08
9.82171e-08
-1.36676e-07
6.40122e-08
5.30335e-08
6.33538e-08
-5.09067e-07
2.88241e-08
-5.91755e-07
4.48787e-09
-5.89416e-07
-3.05573e-08
-5.80915e-07
-6.34181e-08
-5.97535e-07
-6.90021e-08
-5.28722e-07
-6.62103e-08
-2.65041e-07
-1.81437e-07
-8.69569e-08
4.38884e-08
1.67972e-07
-1.13642e-07
3.56236e-08
6.13027e-08
7.25993e-08
-5.46042e-07
4.32938e-08
-5.62449e-07
1.57354e-09
-5.47696e-07
-2.03184e-08
-5.59023e-07
-5.83643e-08
-5.59489e-07
-2.83052e-08
-5.58781e-07
-3.40406e-08
-2.59304e-07
-1.35698e-07
-7.97781e-08
3.17295e-08
2.65306e-07
-1.29062e-07
4.67605e-08
4.62714e-08
2.80555e-08
-5.27337e-07
-1.30968e-08
-5.21297e-07
-4.09382e-08
-5.19854e-07
-7.44371e-08
-5.25524e-07
-1.03041e-07
-5.30885e-07
-1.22427e-07
-5.39394e-07
-1.22132e-07
-2.59598e-07
-1.25884e-07
-1.31946e-07
2.53988e-08
3.04796e-07
-6.48893e-08
1.10315e-07
-3.86522e-08
6.38679e-08
-4.80889e-07
3.12754e-08
-4.88704e-07
4.87076e-09
-4.9345e-07
-3.28816e-08
-4.87772e-07
-7.51627e-08
-4.88604e-07
-1.34165e-07
-4.80392e-07
-1.23416e-07
-2.70347e-07
-1.1018e-07
-1.39119e-07
4.3805e-08
3.15411e-07
-5.44216e-08
1.25534e-07
-1.20384e-07
7.99018e-08
-4.35256e-07
3.90406e-08
-4.47843e-07
-3.87492e-09
-4.50534e-07
-4.22503e-08
-4.49397e-07
-7.88014e-08
-4.52053e-07
-1.21899e-07
-4.37293e-07
-1.31954e-07
-2.60292e-07
-1.02683e-07
-1.39451e-07
9.38552e-08
2.98499e-07
-7.6944e-08
1.61753e-07
-1.88268e-07
1.12205e-07
-3.85707e-07
6.7772e-08
-4.0341e-07
2.70633e-08
-4.09825e-07
-1.09474e-08
-4.11386e-07
-5.98864e-08
-4.03114e-07
-1.10086e-07
-3.87094e-07
-1.16128e-07
-2.5425e-07
-1.19822e-07
-9.89887e-08
5.45679e-08
2.44168e-07
-2.32274e-10
1.25366e-07
-2.59056e-07
8.12173e-08
-3.41559e-07
3.40826e-08
-3.56275e-07
-1.34004e-08
-3.62342e-07
-6.05565e-08
-3.6423e-07
-1.02167e-07
-3.61504e-07
-1.44319e-07
-3.44941e-07
-6.69871e-08
-3.31582e-07
-1.26716e-07
-6.00935e-08
1.28764e-07
8.36277e-08
3.17811e-08
1.53731e-07
-2.8402e-07
1.09967e-07