/*--------------------------------*- C++ -*----------------------------------*\
  =========                 |
  \\      /  F ield         | OpenFOAM: The Open Source CFD Toolbox
   \\    /   O peration     | Website:  https://openfoam.org
    \\  /    A nd           | Version:  8
     \\/     M anipulation  |
\*---------------------------------------------------------------------------*/
FoamFile
{
    version     2.0;
    format      ascii;
    class       volScalarField;
    location    "2.45";
    object      p_rgh;
}
// * * * * * * * * * * * * * * * * * * * * * * * * * * * * * * * * * * * * * //

dimensions      [1 -1 -2 0 0 0 0];

internalField   nonuniform List<scalar> 
9150
(
1963.26
1962.28
1961.67
1961.19
1960.95
1960.96
1961.2
1961.69
1962.28
1963.27
1962.85
1962.33
1961.92
1961.59
1961.42
1961.42
1961.59
1961.92
1962.33
1962.85
1962.58
1962.29
1962.04
1961.82
1961.71
1961.7
1961.82
1962.04
1962.29
1962.58
1962.46
1962.28
1962.11
1961.95
1961.87
1961.87
1961.96
1962.11
1962.28
1962.46
1962.46
1962.27
1962.14
1962.01
1961.94
1961.95
1962.01
1962.14
1962.27
1962.46
1951.78
1950.76
1950.87
1951.36
1951.48
1951.46
1951.31
1950.78
1950.7
1951.74
1955.59
1954.88
1954.62
1954.55
1954.64
1954.64
1954.56
1954.63
1954.89
1955.59
1958.61
1957.86
1957.54
1957.21
1957.15
1957.17
1957.23
1957.57
1957.89
1958.63
1961.33
1960.23
1959.81
1959.16
1959
1959
1959.16
1959.79
1960.22
1961.32
1964.07
1961.95
1961.22
1960.48
1960.22
1960.22
1960.47
1961.2
1961.95
1964.06
1947.16
1945.48
1943.43
1942.38
1941.92
1941.98
1942.57
1943.65
1945.26
1946.59
1946.12
1945.94
1944.96
1944.59
1944.13
1944.07
1944.45
1944.7
1945.64
1945.77
1945.85
1945.89
1944.86
1945.17
1944.76
1944.73
1945.2
1944.76
1945.72
1945.66
1942.64
1945.27
1944.23
1945.79
1945.47
1945.45
1945.68
1944.1
1945.17
1942.49
1935.53
1945.75
1945.96
1947.63
1947.91
1947.91
1947.63
1945.94
1945.7
1935.42
469.092
467.032
467.197
457.986
456.504
456.353
455.806
456.317
459.717
459.799
465.248
471.927
463.699
467.389
465.421
463.375
460.506
456.712
454.247
450.723
465.516
454.833
452.84
451.72
448.971
448.438
448.774
448.232
446.037
442.014
473.784
479.632
485.106
469.996
453.751
448.124
443.362
441.77
440.609
438.956
468.61
471.473
475.202
477.894
481.314
485.198
488.731
482.004
480.421
482.228
443.547
462.635
466.989
470.658
474.956
479.889
484.737
488.568
492.918
501.057
422.907
455.396
459.309
441.973
447.197
469.356
481.245
478.391
482.099
441.782
408.033
428.367
415.857
380.123
389.552
392.685
380.372
387.673
402.134
385.592
335.786
341.621
341.882
340.397
346.234
353.827
362.618
370.236
384.088
372.308
317.057
322.051
326.408
331.316
345.743
352.649
370.492
383.856
381.308
379.215
307.787
311.587
316.007
333.186
459.207
526.283
528.498
517.49
482.712
496.31
301.215
303.591
332.253
477.442
515.192
519.278
523.843
526.308
530.705
535.539
295.171
298.47
406.128
514.154
518.673
517.215
514.154
512.395
512.413
514.014
359.217
343.782
451.393
521.568
508.813
495.089
488.017
469.283
439.293
444.069
333.295
328.201
447.685
477.294
465.572
459.468
410.046
404.762
405.312
406.861
290.874
283.819
308.37
415.584
416.081
408.763
402.067
354.62
356.357
359.232
273.274
256.245
236.901
245.882
366.226
382.047
386.192
393.562
398.083
388.062
270.21
258.913
246.896
238.385
233.702
276.192
404.143
425.572
426.138
426.581
295.855
377.466
434.997
435.326
429.254
428.02
413.542
407.246
371.74
304.18
350.156
433.68
426.993
423.523
424.685
400.067
272.815
193.912
156.544
143.299
286.108
294.431
342.361
403.86
429.962
369.159
268.281
182.726
152.498
146.296
267.248
290.075
318.85
399.78
454.848
463.598
464.934
438.059
349.868
169.109
89.8682
98.8094
109.63
173.006
369.334
477.489
485.533
485.51
434.794
215.708
89.6703
91.5844
89.1768
89.1737
148.211
311.861
326.046
297.869
160.2
149.198
131.974
163.974
118.195
88.9615
91.9528
86.1726
86.1666
90.1441
134.474
200.55
219.894
224.987
199.58
88.6922
84.7522
84.2234
82.3291
124.147
349.777
480.703
233.305
235.968
149.626
84.9568
84.7473
84.1852
83.1128
127.949
477.82
498.977
86.327
85.8001
85.594
85.4595
85.2118
84.4483
83.8737
108.378
396.835
484.43
86.5172
86.4308
86.3536
86.2788
86.0235
85.4833
84.9006
84.3269
186.13
481.952
86.9625
87.3677
87.5169
87.5653
87.3219
86.9027
86.6015
86.1753
110.9
454.316
87.857
88.2704
88.552
88.586
88.6332
88.4452
88.2286
86.5518
174.138
492.059
88.8674
89.5941
89.8547
89.8382
89.9552
90.0343
93.9283
183.579
516.035
533.126
90.007
90.5146
90.9586
91.1635
90.8418
147.787
384.766
604.527
571.601
508.899
90.5729
90.8431
91.2076
91.3192
147.283
562.231
637.429
611.95
483.03
120.955
90.4953
90.4288
97.034
93.9176
551.334
659.592
631.877
487.466
52.8511
0.637863
281.043
280.356
156.684
299.318
683.908
657.191
603.26
81.0884
0.417577
-0.2768
397.421
199.89
159.725
401.001
704.932
662.889
204.647
0.381468
-0.328463
-0.30982
430.19
332.717
369.16
665.604
630.771
470.392
50.2417
-0.224015
-0.255405
-0.186909
711.71
701.152
717.452
715.959
387.183
260.465
28.8896
-0.13911
-0.147186
-0.136173
737.098
737.369
738.995
737.007
347.677
232.02
21.1153
-0.107473
-0.122177
-0.150506
739.517
732.338
748.96
753.377
342.204
311.035
13.4904
-0.161647
-0.150089
-0.153335
358.031
343.237
743.326
514.52
469.3
477.479
4.9585
-0.1156
-0.123813
-0.136249
18.4125
54.0442
122.697
57.2111
667.15
615.666
2.86567
2.30517
-0.103827
-0.0914953
0.542663
0.599882
1.37557
6.31393
699.441
688.246
3.37284
12.6736
-0.131315
-0.0439812
0.508019
0.577505
0.685745
15.2628
716.778
717.36
14.5233
17.1155
4.04844
-0.0895022
0.51739
0.583994
0.481569
32.7949
751.02
713.302
33.6529
18.1563
6.13957
-0.154031
0.529358
0.631176
0.524244
48.0163
735.849
756.859
47.7753
18.6991
14.2447
-0.229272
0.476172
0.574189
0.543677
52.1545
742.101
776.929
54.1202
13.2735
3.79092
-0.262834
0.451555
0.507458
0.45005
52.3571
790.295
757.325
47.8121
-0.129879
-0.213031
-0.207268
0.45774
0.773576
0.492411
28.5077
789.944
788.913
28.2176
-0.297086
-0.00971123
0.270374
0.480065
0.812737
0.503153
11.1724
790.471
789.135
9.13813
-0.287054
0.292876
0.310415
0.56203
0.845488
0.531949
1.68848
752.27
751.551
1.07598
-0.286816
0.283505
0.317614
0.783683
0.892748
0.585954
0.578522
724.171
721.961
-0.30359
-0.302826
-0.0900755
0.322142
1.09588
0.794976
0.63272
0.641041
717.123
719.692
-0.309203
-0.33264
-0.304056
0.322317
1.2175
0.840545
0.685949
0.73289
706.538
746.873
0.994257
-0.404828
-0.346731
-0.165249
1.24531
0.961223
0.664487
0.752485
758.914
748.536
-0.355308
-0.342543
0.265803
-0.281391
1.29946
1.12782
0.670508
0.670364
820.33
819.345
-0.281632
-0.265217
0.538531
0.42253
1.32377
1.1932
0.68847
2.40698
897.348
897.663
1.73026
-0.270547
0.552555
0.57093
1.33475
1.20784
0.677609
23.7111
953.03
954.102
24.4196
-0.329811
0.399529
0.564035
1.34491
1.21814
0.685048
51.5605
988.619
987.681
51.0067
-0.360324
0.313158
0.5591
1.37409
1.26722
0.715592
70.2932
1003.8
1011.56
69.5641
-0.398128
0.297523
0.554349
1.39846
1.34693
0.770391
77.9422
1002.91
1041.78
81.3232
-0.450853
0.333737
0.559383
1.38915
1.33909
0.748978
78.5031
1016.5
1058.43
83.841
-0.480453
0.439794
0.599415
1.35755
1.11297
0.643674
70.0984
1052.47
1053.22
68.1891
-0.355196
0.577535
0.675705
1.34155
0.91053
0.575638
58.4039
1065.84
1055.55
55.922
-0.269364
0.67696
0.734306
0.847894
0.736621
0.533977
49.8041
1060.5
1062.86
49.3993
-0.283755
0.242588
0.765152
0.612717
0.558802
0.494122
46.5637
1071.45
1067.29
46.0533
-0.28976
-0.27522
0.187474
0.627527
0.483644
0.479621
46.3807
1087.17
1079.1
46.0749
-0.291562
-0.119538
-0.112387
0.629387
0.543927
0.46373
50.2828
1113.84
1105.38
48.4995
-0.288043
0.0575602
-0.0309492
1.19856
0.987229
0.480767
66.6804
1159.09
1164.38
68.5098
-0.279852
0.0366827
-0.0282543
1.19422
1.16717
0.481811
102.739
1220.02
1216.47
101.58
-0.255189
-0.187602
-0.233036
1.17762
1.12484
0.449693
142.138
1267.58
1266.89
142.373
-0.238316
-0.144348
-0.0198802
0.862615
1.09259
0.397015
175.395
1305.88
1304.72
175.223
-0.23211
-0.121808
-0.00133421
1.02893
1.02443
0.378803
200.236
1337.11
1335.68
200.048
-0.227538
-0.169765
0.0144188
0.6433
0.547801
0.342023
218.781
1363.47
1362.12
218.332
-0.226802
-0.226609
-0.183887
1.23401
1.17816
0.295586
232.601
1387.49
1385.2
232.025
-0.218969
-0.213181
-0.218827
1.54667
1.52487
0.285706
244.596
1410.03
1407.9
244.069
-0.20915
-0.177852
-0.204673
1.53565
0.822061
0.259936
257.092
1432.89
1430.97
256.725
-0.200032
-0.16897
-0.181593
0.412653
0.318161
0.214067
275.12
1457.98
1457.06
274.726
-0.190498
-0.159165
-0.124316
0.301549
0.209691
0.203382
303.744
1487.38
1486.98
303.717
-0.180846
-0.155618
-0.0535412
0.263316
0.20054
0.197653
339.709
1518.5
1517.82
339.767
-0.174183
-0.171663
-0.0500177
0.678711
0.225354
0.202203
382.853
1550.18
1549.3
382.976
-0.170477
-0.170251
-0.162304
0.366127
0.19644
0.188027
433.064
1581.91
1580.65
433.198
-0.163331
-0.163035
-0.163861
0.173436
0.173534
0.173325
487.25
1611.98
1610.63
487.476
-0.154929
-0.154683
-0.155562
0.16053
0.163918
0.16271
548.632
1641.01
1639.76
549.122
-0.145253
-0.145166
-0.146134
0.151171
0.192934
0.154052
615.843
1668.22
1667.24
616.707
-0.131981
-0.132016
-0.13333
0.188098
0.324678
0.150164
698.512
1694.57
1693.93
699.805
-0.120948
-0.120289
-0.120942
0.587019
0.434486
0.154532
795.545
1718.94
1718.56
797.014
-0.113101
-0.111325
-0.11154
0.608846
0.46838
0.151463
912.267
1740.92
1740.96
913.752
-0.106692
-0.103742
-0.103685
0.599498
0.336685
0.147969
1043.64
1760.79
1761.73
1045.57
-0.102854
-0.0974743
-0.0965162
0.472951
0.131235
0.131625
1196.25
1780.28
1780.31
1197.99
-0.100258
-0.0919361
-0.0872019
0.117171
0.102233
0.105189
1351.96
1800.59
1797.61
1352.1
-0.0661979
-0.0859373
-0.0779131
0.0910642
0.0803028
53.7018
1490.42
1819.98
1816.39
1488.68
65.0135
-0.0765322
-0.0739433
0.0829334
0.0640988
184.15
1616.29
1836.45
1837.18
1617.5
216.068
-0.0661149
-0.0565799
0.0665717
0.0579284
315.221
1691.85
1854.18
1854.89
1781.76
489.144
-0.0568293
-0.0555089
0.0667549
0.0647019
710.822
1842.15
1873.11
1873.55
1844.87
797.373
-0.0549741
-0.048646
0.0681225
0.0732095
1186.4
1891.06
1892.07
1892.25
1891.67
1318.78
-0.0160217
-0.0387805
0.0419405
139.836
1678.4
1910.87
1911.31
1910.83
1909.6
1667.54
234.622
-0.0331089
0.0182104
1034.93
1921.55
1926.75
1926.87
1926.96
1927.42
1927.49
1192.1
-0.00967956
626.341
1876.82
1939.83
1937.88
1937.02
1936.92
1937.44
1939.12
1879.56
673.706
458.207
461.915
462.425
477.025
481.38
483.578
485.315
486.632
487.539
489.024
492.419
497.58
503.415
510.261
517.727
523.481
526.52
526.81
524.168
519.399
519.395
525.213
533.656
538.045
543.211
546.959
554.832
557.94
559.488
558.778
562.17
564.549
566.817
569.147
571.261
574.244
576.418
578.101
578.602
579.233
451.355
454.797
459.953
463.403
477.728
481.812
479.816
480.426
482.203
483.659
485.768
491.787
499.055
506.388
513.208
517.52
517.792
513.519
509.726
508.569
510.154
513.466
514.739
526.342
536.631
545.677
548.293
550.51
554.092
558.655
561.893
564.399
566.567
568.589
570.511
573.613
574.396
577.454
579.248
579.902
438.443
441.135
460.05
464.245
465.057
465.547
463.386
463.488
481.678
478.615
476.448
481.89
494.052
498.254
507.893
518.861
523.774
504.099
501.905
503.919
506.607
509.538
528.414
540.54
549.078
552.357
554.525
556.36
558.323
559.941
561.138
563.205
565.316
566.918
568.342
569.835
572.028
574.632
576.669
577.667
438.243
438.19
440.268
441.761
446.514
473.78
466.165
458.797
460.144
466.426
490.266
497.736
495.761
507.135
507.567
525.243
528.587
519.551
503.742
503.734
503.497
508.268
513.788
522.372
552.03
555.98
557.969
559.114
558.691
555.77
559.226
560.589
565.027
565.941
566.001
566.157
567.538
570.331
572.436
573.835
458.975
446.866
460.756
472.808
460.975
442.578
427.194
437.579
465.767
482.475
495.537
501.78
512.761
510.34
508.388
512.53
522.59
550.842
552.495
544.535
531.668
544.594
551.524
561.676
564.667
566.108
566.699
554.777
552.626
555.676
566.114
567.485
566.89
566.462
564.926
563.65
563.452
565.889
568.087
569.406
499.345
483.876
470.043
452.756
402.369
372.578
374.376
396.512
453.414
471.531
483.863
499.247
518.915
533.627
522.851
517.663
517.507
515.773
523.299
559.223
563.279
565.413
569.935
553.191
573.121
575.897
576.327
571.018
547.31
545.66
554.144
571.304
571.516
570.111
566.417
565.532
563.176
562.564
565.887
566.99
410.986
385.496
370.001
372.878
371.294
354.907
357.187
357.588
383.775
448.477
460.195
489.835
519.776
537.944
543.59
535.915
519.487
522.712
525.569
546.101
573.357
577.292
552.259
552.382
570.541
582.504
583.33
584.201
583.099
541.456
532.154
550.757
579.96
578.148
573.908
572.928
564.083
562.54
569.953
571.011
372.643
365.623
358.672
354.099
351.929
360.969
353.07
350.019
347.195
380.779
423.179
445.663
502.162
529.544
539.966
547.745
526.462
526.814
533.238
580.45
587.251
558.255
550.854
550.952
589.79
592.663
592.381
592.378
592.903
562.167
529.486
528.939
528.668
543.464
542.014
560.738
546.092
558.706
577.847
580.077
367.335
366.721
359.824
349.055
349.211
350.228
351.933
353.035
352.443
353.805
364.741
435.425
515.2
531.973
538.756
542.059
528.918
545.345
568.276
571.95
548.161
551.147
554.881
594.239
598.91
597.795
597.197
596.696
596.596
563.39
528.085
527.158
525.304
556.598
582.939
543.906
546.449
555.343
587.976
589.91
428.424
484.587
486.456
402.753
353.651
351.392
352.461
353.26
353.588
372.666
414.923
493.319
524.878
533.007
542.941
530.803
527.021
533.753
539.625
544.883
546.883
572.815
600.97
602.05
602.076
600.591
600.903
600.393
583.415
541.513
539.089
579.504
593.181
600.914
600.931
566.08
562.59
589.339
593.92
595.057
522.106
516.612
514.178
518.426
523.575
514.44
437.463
401.802
405.463
479.409
509.074
510.891
497.231
509.419
530.145
568.66
547.489
534.838
542.49
551.541
584.51
601.676
602.37
600.506
587.945
578.279
584.324
604.045
604.044
600.756
602.681
602.863
602.862
601.128
599.662
597.458
595.957
595.231
591.254
587.733
532.693
529.483
535.143
541.173
545.328
550.98
554.747
548.297
485.346
479.632
485.796
487.587
514.779
563.908
577.846
580.579
584.34
588.861
590.653
590.336
589.176
589.017
531.873
530.666
531.854
598.279
599.527
599.542
599.878
599.984
600.341
600.714
600.853
598.775
597.207
596.688
595.482
594.419
578.455
577.854
519.964
524.568
534.117
544.851
557.091
569.214
578.832
587.266
592.628
546.932
514.009
565.698
589.472
590.44
587.686
578.32
530.763
534.442
574.81
542.162
504.218
489.578
494.154
516.295
591.357
590.701
590.681
591.554
592.4
593.916
594.685
595.067
595.27
595.011
593.86
593.922
593.741
593.505
579.543
574.747
471.033
513.191
527.841
542.546
559.36
578.298
595.69
612.493
628.965
631.587
627.324
544.32
503.137
499.252
499.64
489.535
485.231
480.923
478.097
475.796
477.182
478.616
514.694
584.655
583.097
581.239
579.708
579.516
581.307
584.584
587.341
588.951
589.627
590.087
590.011
589.866
590.04
587.345
579.587
570.71
411.095
454.419
496.121
521.617
548.072
573.838
598.454
625.511
651.635
658.306
648.821
608.763
506.255
501.982
496.498
530.167
497.766
476.546
474.482
473.03
471.034
565.552
585.789
579.597
574.166
570.374
565.589
545.16
539.228
567.827
575.412
580.086
582.318
583.731
584.493
584.928
584.632
553.889
575.472
563.798
362.981
383.877
456.404
482.545
512.212
541.982
564.049
592.659
622.142
636.711
632.325
627.086
624.076
534.825
517.725
623.185
603.131
492.23
471.144
494.353
574.256
587.223
579.549
572.345
565.809
560.119
499.557
439.345
439.232
479.776
560.393
572.586
576.645
578.713
579.627
580.571
579.834
553.978
578.7
577.773
354.699
405.34
440.368
458.994
479.413
501.247
514.814
533.172
540.595
511.656
472.856
544.014
577.915
592.604
588.094
603.766
600.158
588.634
570.969
583.678
588.535
583.028
577.203
571.492
566.151
562.765
473.256
433.675
432.982
436.493
537.87
571.617
573.962
574.493
574.633
575.39
575.651
544.607
576.908
577.745
420.2
412.628
402.017
384.337
374.565
374.025
366.589
424.96
519.941
317.419
234.917
346.345
530.974
567.987
578.301
583.635
587.717
589.183
588.87
588.387
587.312
585.668
583.788
581.85
579.839
576.878
453.194
441.912
441.364
454.386
560.751
573.901
571.171
570.846
568.631
566.761
565.439
556.78
519.686
564.523
259.983
230.03
195.71
169.088
164.363
173.293
185.665
270.216
534.543
241.79
220.12
258.73
419.005
532.365
573.805
582.332
586.068
586.515
585.739
585.533
585.117
584.992
585.086
585.14
560.743
448.739
446.081
446.21
445.956
551.254
582.379
575.619
567.661
570.156
565.052
560.463
538.869
504.953
500.714
524.851
145.671
148.096
150.524
152.813
154.803
156.943
159.096
195.076
390.695
287.594
234.014
241.567
349.905
481.594
525.525
584.014
597.896
593.804
574.705
571.707
576.571
575.591
578.419
582.755
587.435
486.419
450.156
450.17
522.36
597.756
593.322
579.143
573.475
575.469
568.197
547.901
502.935
467.961
524.075
537.449
147.134
148.76
150.573
152.168
153.62
154.878
156.07
157.073
231.391
386.64
347.853
254.201
267.796
295.483
398.175
588.866
617.766
610.696
501.492
450.489
442.739
503.479
587.528
591.778
596.847
541.752
457.476
475.411
605.165
604.596
594.262
585.282
581.158
573.285
510.241
421.759
368.741
448.322
535.798
539.079
147.145
148.462
149.784
151.095
152.27
153.032
153.772
154.913
159.953
363.488
459.84
376.085
297.632
277.63
282.058
301.866
533.901
632.958
527.387
452.33
448.505
445.952
494.097
607.863
614.529
533.358
512.324
611.337
611.309
607.95
603.294
597.427
572.021
404.927
358.465
358.727
358.785
357.677
411.129
381.151
148.238
148.835
149.863
150.69
150.797
151.085
151.735
152.616
153.998
163.67
409.47
509.868
535.107
408.118
276.871
277.377
271.172
447.209
537.063
496.693
450.873
450.727
459.193
607.453
619.228
523.685
519.669
603.085
608.653
604.855
601.185
597.673
485.461
357.377
357.994
358.985
359.067
359.672
360.102
363.286
149.031
147.656
149.467
150.602
160.255
180.368
199.569
183.949
153.764
156.187
194.49
473.618
535.18
561.019
473.346
263.926
259.207
252.361
362.184
459.695
452.546
446.538
560.653
613.082
604.165
451.532
439.887
477.981
558.755
562.569
578.207
589.407
516.114
400.341
372.245
396.106
428.475
468.264
497.635
543.785
251.154
253.126
229.661
205.446
239.321
359.226
490.623
456.546
300.763
154.913
163.898
392.318
519.285
544.478
560.869
435.915
232.427
226.358
219.709
344.21
535.324
589.694
610.909
603.828
468.431
423.192
420.128
447.335
504.622
523.592
523.37
525.145
567.706
598.45
602.762
607.144
609.921
610.457
610.651
611.302
524.289
538.111
526.452
494.202
501.848
490.401
476.366
467.807
466.938
291.513
163.014
372.466
487.456
514.171
536.465
547.347
279.09
191.687
187.611
246.322
563.885
600.292
598.027
501.588
409.858
405.668
421.759
541.467
563.847
574.91
565.297
572.472
581.75
587.204
593.818
599.764
604.806
608.683
610.178
611.625
501.729
515.21
527.524
524.215
489.457
392.825
304.825
345.711
418.539
311.266
135.534
190.205
336.575
463.288
503.169
515.273
354.213
146.004
145.617
165.436
525.255
582.723
579.946
480.197
393.571
385.992
505.628
568.885
562.721
558.265
557.293
561.203
567.121
575.274
585.34
595.417
603.765
609.654
612.782
615.439
478.613
486.217
488.446
373.118
185.626
24.6309
2.61151
3.11358
22.9668
75.9745
52.469
2.27811
2.52231
109.001
409.634
493.472
335.514
100.785
104.204
105.069
382.573
559.93
564.262
565.616
399.87
371.054
450.898
542.515
531.534
519.832
523.471
531.699
544.229
563.6
582.686
598.004
610.181
618.074
621.715
599.15
490.382
483.051
365.874
23.9365
3.50747
1.51827
1.03494
0.93311
0.93574
0.953559
1.06392
1.20484
1.37126
1.76237
38.5728
484.885
340.805
74.2869
80.0921
82.5795
108.453
481.076
551.046
556.147
549.374
424.373
454.852
539.984
533.068
530.054
534.957
509.065
502.077
573.203
597.105
611.755
624.077
633.66
638.295
571.344
510.251
492.95
156.089
3.97067
1.24193
0.764216
0.656476
0.67451
0.720123
0.810755
0.921377
1.03858
1.11204
1.03601
124.655
498.809
559.036
437.978
80.8011
79.6241
74.2684
138.019
482.632
555.062
561.712
569.213
572.008
571.537
571.572
574.591
582.227
592.488
488.853
511.998
622.907
637.139
646.331
654.59
660.019
588.223
520.813
396.149
58.1401
3.51739
1.58523
1.15705
0.530946
0.475545
0.469836
0.533125
0.655645
0.81112
0.821226
197.302
541.428
568.415
576.43
583.54
497.549
243.863
66.9034
56.2875
125.232
359.307
556.359
597.508
599.288
600.702
603.05
608.775
614.753
622.001
456.923
435.325
629.928
659.176
665.685
673.361
679.564
608.024
502.428
165.49
6.40743
5.60965
3.91858
1.22973
0.466886
0.33413
0.307292
0.33377
0.400471
0.604507
336.983
584.766
586.422
588.976
591.302
592.544
591.454
360.75
58.5567
51.3036
53.6737
74.9932
163.579
244.483
332.52
438.669
521.546
632.24
637.693
605.332
227.167
358.417
652.641
671.936
680.488
688.751
692.598
610.731
170.402
4.14567
2.99512
6.8909
4.69264
0.820166
0.45183
0.390485
0.236754
0.223937
0.236682
101.599
568.375
604.925
606.182
608.28
609.883
610.067
550.895
186.384
51.6069
55.1526
57.8725
60.3078
61.968
63.8806
66.2084
80.7041
112.851
168.116
204.834
150.723
90.1957
254.927
637.067
678.563
693.841
705.818
710.546
624.57
1.38144
0.504408
1.44375
3.74584
3.85749
1.35836
0.73492
0.432492
0.17482
0.179053
0.168021
262.764
618.937
620.196
623.835
627.939
631.015
633.967
634.8
379.157
67.1896
59.7753
61.0785
62.5961
63.7941
65.2305
66.5685
67.99
69.7102
71.1395
72.6204
74.662
78.5575
232.156
634.15
691.177
708.943
717.983
721.194
652.059
-0.279929
-0.141034
1.0716
0.0311453
0.372311
1.91091
1.24503
0.301574
0.0436726
0.0449767
0.0412894
101.469
543.047
644.075
648.844
656.671
658.054
674.007
675.116
667.876
450.722
208.401
79.2475
64.2863
65.1486
65.9963
67.0077
68.2313
69.6197
70.9448
72.7886
74.621
124.44
517.146
692.894
706.192
683.441
717.934
725.791
726.356
-0.327517
-0.0153954
-0.225621
-0.190811
-0.176867
1.8712
1.32839
-0.034896
-0.0991936
-0.106501
-0.128099
9.8073
66.9027
156.489
405.721
637.204
668.236
688.295
692.03
657.759
618.119
572.281
413.275
280.275
189.664
103.537
66.9009
70.274
106.979
191.565
285.107
405.121
611.449
692.654
703.155
716.554
687.441
720.376
725.706
726.881
-0.276744
-0.256054
-0.235894
-0.225781
-0.22545
1.50135
0.116908
-0.238517
-0.251616
-0.273553
-0.310004
0.768295
1.69159
1.58963
1.66262
1.87417
142.122
531.686
473.392
259.197
279.792
384.159
504.232
514.344
518.673
527.233
528.461
554.275
608.635
665.335
696.962
706.802
708.564
708.666
709.682
715.579
719.645
725.546
726.571
727.815
-0.171627
-0.235775
-0.241996
-0.2472
-0.112065
-0.244149
-0.27434
-0.302863
-0.361836
-0.400372
-0.400784
-0.388831
-0.396258
2.77026
6.50992
6.10568
14.3904
69.8685
47.6971
7.6553
8.89124
90.6693
330.685
475.1
461.833
429.876
480.947
551.766
621.869
678.337
681.524
700.755
714.767
713.45
716.62
722.571
726.548
728.394
729.407
730.191
-0.12565
-0.208381
-0.225595
-0.234519
-0.188971
-0.207433
-0.234943
-0.299423
-0.345809
-0.383658
-0.207986
1.5191
1.50856
1.15937
-0.297633
0.291632
7.46519
9.04305
7.23697
2.19871
0.874674
1.18187
29.0199
67.1498
62.8827
55.479
88.2733
139.255
205.856
273.519
280.488
385.978
524.79
562.637
506.596
364.991
346.23
526.178
649.527
691.784
-0.133473
-0.190517
-0.20384
-0.214459
-0.151502
0.186524
0.341301
-0.246701
-0.279592
-0.2998
0.0422721
0.305959
-0.217669
-0.40078
-0.433516
-0.444134
-0.0266656
3.61546
6.74427
2.26825
0.592001
0.221435
0.0605344
0.0470484
0.106197
0.795902
3.27902
5.85523
5.99913
4.51903
6.44425
22.5603
53.2167
65.6934
49.4549
44.576
47.4236
61.4329
120.292
175.866
-0.163625
-0.175065
-0.186214
-0.186704
0.28664
0.493098
0.486558
0.35437
-0.239923
-0.248017
-0.256396
-0.274015
-0.299983
-0.32358
-0.335243
-0.340008
-0.326524
-0.291359
1.06868
3.03811
0.985957
0.0154759
-0.0749181
-0.0837617
-0.090186
0.0126806
1.27408
1.85893
0.274068
-0.0306306
0.196602
0.21464
-0.0340836
0.626572
14.1634
38.8751
42.8499
32.5548
31.835
35.8427
-0.150743
-0.162709
-0.172988
-0.168991
0.316272
0.524455
0.530566
0.543694
0.339762
-0.164709
-0.219756
-0.235518
-0.257256
-0.27853
-0.293205
-0.278567
-0.0331841
0.096701
0.307616
0.763246
1.1818
0.19937
-0.100217
-0.119717
-0.139394
-0.104238
0.190057
-0.0359815
-0.229861
-0.31235
-0.372774
-0.435814
-0.53743
-0.605712
4.18699
16.4033
20.3629
31.7883
32.1749
15.2948
-0.0688673
-0.156621
-0.166737
-0.177706
-0.132264
0.408074
0.572887
0.588414
0.318235
0.206683
0.198746
-0.0374653
-0.22028
-0.24143
-0.248
0.188361
0.402709
0.433628
0.459719
0.411754
0.0605895
0.11659
-0.00874094
-0.0696309
-0.167428
-0.192313
-0.224559
-0.246694
-0.304265
-0.385175
-0.453014
-0.491256
-0.505627
-0.492099
3.5376
0.0588094
3.44452
18.1365
28.9247
7.1333
0.0296537
-0.159665
-0.166426
-0.179406
-0.19794
-0.215035
-0.205321
0.826659
1.23423
1.23527
1.24313
1.24709
1.2405
1.01609
0.208926
0.0661301
-0.0056524
0.00694587
0.368187
0.0149927
0.0074159
0.00721392
-0.000584537
0.117753
0.576415
-0.108986
-0.232695
-0.249086
-0.282077
-0.335197
-0.382526
-0.319721
-0.390938
-0.382334
-0.0362896
-0.0386207
-0.0715976
-0.145203
2.78071
3.24568
-0.00454052
-0.148307
-0.188303
-0.198187
-0.212658
-0.227574
-0.0753263
1.19426
1.25094
1.25184
1.26353
1.27445
1.27534
1.26236
1.24949
1.23042
0.238232
0.200902
0.671431
0.674371
0.0563229
-0.00395651
-0.0115451
0.517762
0.711121
0.69019
-0.150881
-0.241716
-0.251606
-0.276532
-0.230012
-0.0453476
-0.204311
-0.0623191
0.00679478
0.0711467
0.0721288
0.00794608
0.412545
0.515598
-0.0656415
-0.17373
-0.214885
-0.22115
-0.227438
-0.247087
-0.261114
-0.0284975
1.1089
1.25478
1.25888
1.257
1.13869
0.302942
0.103835
0.0396388
0.169321
0.516459
0.572592
0.462251
0.178764
0.439375
0.6806
0.687308
0.682169
0.678033
0.521019
-0.238367
-0.252575
-0.25259
-0.193778
0.0124943
0.199536
0.210796
0.204457
0.652211
1.3651
1.37919
0.777989
0.778112
-0.259674
-0.201127
-0.234447
-0.238513
-0.140775
-0.197231
-0.269142
-0.275957
-0.255605
0.9976
1.29182
1.27226
-0.0793867
-0.250337
-0.255064
-0.264599
-0.14198
-0.327927
-0.352703
-0.353356
-0.348381
-0.250506
0.0430325
0.623641
0.629583
0.632811
0.650004
-0.0153832
-0.269364
-0.256654
-0.244342
-0.08147
0.125584
0.22961
0.112152
0.0258854
1.04307
1.41155
1.46181
1.49121
-0.286077
-0.279367
-0.275761
-0.273136
-0.219841
0.285042
0.344695
-0.0392301
-0.208218
-0.094415
1.10501
0.656782
-0.252022
-0.258865
-0.264341
-0.168585
-0.246421
-0.369935
-0.384341
-0.395428
-0.404122
-0.40927
-0.405956
0.343932
0.593952
0.59076
0.610108
0.139154
-0.281137
-0.257557
-0.241763
-0.229951
-0.208032
0.0748492
-0.128859
-0.202087
-0.182164
0.113332
1.36799
0.319155
-0.253808
-0.308554
-0.310024
-0.303179
-0.287247
0.31208
0.366668
0.362357
0.0101985
-0.215908
-0.220429
-0.216814
-0.162133
0.0424941
0.207088
-0.0266711
-0.270354
-0.385495
-0.405254
-0.427558
-0.444513
-0.453196
0.00962521
0.559383
0.540861
0.551785
0.569767
-0.177045
-0.275125
-0.243942
-0.226112
-0.214766
-0.207911
-0.201554
-0.193592
-0.186562
-0.161411
0.353342
0.0785396
-0.168706
-0.228812
-0.311769
-0.301237
-0.319638
-0.315626
-0.17291
0.231148
0.343568
-0.0423318
-0.211739
-0.210142
-0.204109
0.435172
0.621436
0.334277
-0.34429
-0.361408
-0.359282
-0.371202
-0.421256
-0.440215
-0.257918
0.565453
0.565232
-0.14399
-0.0557858
-0.261414
-0.289654
-0.24918
-0.21864
-0.199517
-0.190655
-0.184702
-0.181747
0.00461353
0.306759
0.406158
0.385765
-0.0148196
-0.158523
0.180418
-0.234371
-0.294706
-0.295213
-0.321134
-0.31792
-0.27243
-0.267675
0.0752592
-0.206384
-0.203309
0.11252
0.680398
0.662867
-0.119878
-0.325077
-0.313786
-0.296989
-0.34039
-0.385727
-0.401011
-0.281792
-0.190919
-0.23893
-0.266668
-0.237923
-0.192929
-0.105175
-0.189701
-0.180953
-0.146158
-0.155849
-0.0551307
0.255758
0.42782
0.432185
0.432469
0.129921
-0.161247
-0.159212
0.3194
0.188303
-0.291156
-0.32971
-0.31897
-0.312411
-0.30534
-0.236286
0.0826638
0.0711611
-0.188788
0.231592
0.700843
0.675896
-0.198177
-0.306433
-0.271169
-0.267904
-0.305978
-0.346701
-0.354205
-0.35508
-0.269206
0.439733
0.746664
0.705723
0.533156
0.61473
0.642221
0.650422
0.657501
0.658008
0.446861
0.257396
0.0543921
0.0199679
-0.0431038
-0.150651
-0.153187
-0.151406
0.323328
0.316663
-0.155075
-0.353133
-0.347656
-0.340385
-0.326663
-0.320946
-0.0656464
0.103421
0.038471
0.0592827
0.494749
0.740852
0.0736128
-0.29994
-0.305586
-0.309345
-0.320862
-0.326329
-0.188963
0.685978
0.773028
0.780876
0.7939
0.813955
0.8318
0.421669
0.286302
0.0784943
0.0626432
0.0873673
0.230833
0.398678
0.389734
0.263233
0.0235212
-0.151442
-0.149841
-0.149055
0.0234461
-0.101942
-0.208241
-0.370824
-0.361803
-0.353609
-0.340274
-0.324525
-0.316072
0.00502591
0.0668319
0.0712802
0.627076
0.770286
0.208487
-0.291454
-0.296432
-0.303471
-0.3113
-0.310506
0.319507
0.79741
0.797298
0.798569
0.19749
-0.111115
-0.012815
-0.129665
-0.144333
-0.128431
-0.104749
0.184589
0.391483
0.396846
0.392932
0.387464
0.281654
-0.154697
-0.152621
-0.152008
-0.413628
-0.400556
-0.385161
-0.3795
-0.370908
-0.362883
-0.355038
-0.335586
-0.337008
-0.294053
0.0477977
0.110256
0.57223
0.778201
0.66157
-0.286741
-0.291896
-0.29694
-0.303784
-0.309641
-0.0819931
0.842168
0.844124
0.0570636
-0.290965
-0.267313
-0.0805054
-0.0515945
-0.162256
-0.150338
-0.139906
-0.0484142
0.367487
0.377539
0.382636
0.385608
0.388967
0.24955
-0.0335577
0.0138974
-0.412422
-0.402369
-0.393521
-0.385126
-0.378161
-0.371582
-0.365071
-0.357759
-0.350383
-0.34306
-0.200097
0.0667069
0.232907
0.77992
0.791568
0.283921
-0.296346
-0.299004
-0.304001
-0.309795
-0.262456
0.177345
0.232361
-0.317374
-0.310891
-0.159056
-0.0776862
-0.0721811
-0.0644416
-0.0579909
-0.157109
-0.267379
0.0505817
0.363439
0.356609
-0.00615055
0.343229
0.398991
0.406594
0.409
-0.407994
-0.403986
-0.398636
-0.393156
-0.387735
-0.382317
-0.376472
-0.370045
-0.363008
-0.355911
-0.350036
-0.215041
0.0271221
0.365492
0.791986
0.797097
-0.0169409
-0.304548
-0.307087
-0.312158
-0.317879
-0.319968
-0.321502
-0.326534
-0.329303
-0.241102
-0.207414
-0.254097
-0.263013
-0.304171
-0.319603
-0.310854
-0.104214
0.0820624
-0.0453076
-0.192007
-0.191684
-0.215758
0.00149275
0.400816
-0.126744
-0.409497
-0.40599
-0.402381
-0.398587
-0.392299
-0.388742
-0.380969
-0.374753
-0.367062
-0.360167
-0.354479
-0.259533
-0.0881854
0.592892
0.802934
0.806952
0.146649
-0.296605
-0.312302
-0.31764
-0.321502
-0.325569
-0.331169
-0.338662
-0.337461
-0.347058
-0.348098
-0.343859
-0.333566
-0.339896
-0.331508
-0.321493
-0.307371
-0.176408
-0.00412839
-0.123802
-0.232402
-0.230293
-0.125502
0.486719
-0.415965
-0.413615
-0.41109