/*--------------------------------*- C++ -*----------------------------------*\
  =========                 |
  \\      /  F ield         | OpenFOAM: The Open Source CFD Toolbox
   \\    /   O peration     | Website:  https://openfoam.org
    \\  /    A nd           | Version:  8
     \\/     M anipulation  |
\*---------------------------------------------------------------------------*/
FoamFile
{
    version     2.0;
    format      ascii;
    class       surfaceScalarField;
    location    "2.45";
    object      phi;
}
// * * * * * * * * * * * * * * * * * * * * * * * * * * * * * * * * * * * * * //

dimensions      [0 3 -1 0 0 0 0];

internalField   nonuniform List<scalar> 
18095
(
1.95211e-08
-1.71913e-07
1.52392e-07
2.32014e-08
-1.98289e-07
1.94609e-07
2.00655e-08
-2.05902e-07
2.09037e-07
1.09937e-08
-2.10365e-07
2.19437e-07
-6.3838e-11
-2.13065e-07
2.24123e-07
-1.05622e-08
-2.13612e-07
2.2411e-07
-1.96073e-08
-2.10882e-07
2.19927e-07
-2.3116e-08
-2.0577e-07
2.09278e-07
-1.95108e-08
-1.98273e-07
1.94668e-07
-1.71929e-07
1.52418e-07
1.55677e-08
-1.8748e-07
1.57121e-08
-1.98434e-07
1.20933e-08
-2.02283e-07
7.09193e-09
-2.05364e-07
8.68421e-10
-2.06842e-07
-5.93601e-09
-2.06807e-07
-1.19737e-08
-2.04844e-07
-1.57158e-08
-2.02028e-07
-1.55518e-08
-1.98437e-07
-1.87481e-07
6.8647e-09
-1.94345e-07
8.26699e-09
-1.99836e-07
6.9227e-09
-2.00939e-07
3.57389e-09
-2.02015e-07
-3.49748e-10
-2.02918e-07
-4.40333e-09
-2.02754e-07
-7.33707e-09
-2.0191e-07
-8.27567e-09
-2.01089e-07
-6.85828e-09
-1.99855e-07
-1.94339e-07
4.56602e-09
-1.98911e-07
4.68823e-09
-1.99958e-07
3.74672e-09
-1.99997e-07
2.08021e-09
-2.00349e-07
-8.14248e-11
-2.00756e-07
-2.08378e-09
-2.00752e-07
-3.573e-09
-2.00421e-07
-4.64855e-09
-2.00013e-07
-4.56563e-09
-1.99938e-07
-1.98905e-07
1.0889e-09
1.13054e-09
1.13352e-09
7.84846e-10
2.85358e-11
-7.23003e-10
-1.14408e-09
-1.15747e-09
-1.09523e-09
-2.57312e-08
-1.96973e-07
2.22704e-07
-2.83755e-08
-1.98551e-07
2.01195e-07
-2.41248e-08
-2.01019e-07
1.96768e-07
-1.40937e-08
-2.00327e-07
1.90296e-07
-1.17894e-09
-2.01338e-07
1.88423e-07
1.20866e-08
-2.01874e-07
1.88608e-07
2.32667e-08
-2.0139e-07
1.9021e-07
2.84728e-08
-2.02172e-07
1.96966e-07
2.59452e-08
-1.9908e-07
2.01607e-07
-1.97277e-07
2.23223e-07
-9.99202e-09
-1.86981e-07
-1.54499e-08
-1.93093e-07
-1.43056e-08
-2.02163e-07
-7.0735e-09
-2.07559e-07
-8.4023e-11
-2.08327e-07
7.14707e-09
-2.09105e-07
1.52977e-08
-2.0954e-07
1.59682e-08
-2.02843e-07
1.01647e-08
-1.93276e-07
-1.87113e-07
-1.06645e-08
-1.76316e-07
-8.01641e-09
-1.95741e-07
-4.56503e-09
-2.05615e-07
-1.33311e-09
-2.10791e-07
3.13693e-09
-2.12797e-07
6.5307e-09
-2.12499e-07
6.9572e-09
-2.09967e-07
9.08722e-09
-2.04973e-07
1.11016e-08
-1.9529e-07
-1.76011e-07
-7.08133e-09
-1.69235e-07
-9.53354e-09
-1.93289e-07
-9.46224e-09
-2.05686e-07
-4.52872e-09
-2.15725e-07
5.54591e-11
-2.17381e-07
3.89882e-09
-2.16342e-07
8.4723e-09
-2.1454e-07
9.00634e-09
-2.05507e-07
6.88597e-09
-1.9317e-07
-1.69125e-07
-1.68432e-08
-1.55226e-08
-1.21709e-08
-8.45857e-09
-1.71741e-09
6.0506e-09
1.14373e-08
1.52087e-08
1.67069e-08
3.52315e-08
-1.55767e-07
1.20536e-07
4.13056e-08
-1.97629e-07
1.91555e-07
3.58822e-08
-2.10393e-07
2.15817e-07
2.50105e-08
-2.16986e-07
2.27858e-07
8.91975e-09
-2.18338e-07
2.34429e-07
-8.50844e-09
-2.18284e-07
2.35712e-07
-2.5046e-08
-2.16079e-07
2.32616e-07
-3.37135e-08
-2.10537e-07
2.19205e-07
-3.05596e-08
-1.98398e-07
1.95244e-07
-1.57589e-07
1.27029e-07
1.71893e-08
-1.72956e-07
1.98004e-08
-2.0024e-07
1.57689e-08
-2.06362e-07
7.78549e-09
-2.09002e-07
-1.57819e-09
-2.08974e-07
-1.04803e-08
-2.09382e-07
-1.68669e-08
-2.09692e-07
-1.98686e-08
-2.07536e-07
-1.66201e-08
-2.01646e-07
-1.74209e-07
1.10414e-08
-1.83998e-07
1.11387e-08
-2.00338e-07
1.0025e-08
-2.05248e-07
6.42026e-09
-2.05398e-07
2.33184e-09
-2.04886e-07
-2.14529e-09
-2.04905e-07
-7.47488e-09
-2.04363e-07
-9.64863e-09
-2.05362e-07
-1.03176e-08
-2.00977e-07
-1.84526e-07
7.74156e-09
-1.91739e-07
6.71949e-09
-1.99315e-07
6.66487e-09
-2.05194e-07
8.3372e-10
-1.99567e-07
-1.17775e-09
-2.02874e-07
-2.89936e-09
-2.03183e-07
-7.06486e-09
-2.00197e-07
-6.62934e-09
-2.05797e-07
-7.76959e-09
-1.99837e-07
-1.92296e-07
3.09645e-08
3.28438e-08
2.44184e-08
1.5148e-08
6.96915e-10
-1.38778e-08
-2.38655e-08
-3.26967e-08
-3.09266e-08
-2.35414e-07
-3.53589e-08
2.70772e-07
-2.411e-07
5.68597e-09
-2.22023e-07
-1.90769e-08
-2.25712e-07
3.68961e-09
-2.27001e-07
1.28869e-09
-2.23069e-07
-3.93222e-09
-2.14322e-07
-8.74597e-09
-2.0355e-07
-1.07721e-08
-1.88073e-07
-1.5477e-08
-1.52532e-08
-1.7282e-07
3.46163e-07
-8.4712e-08
-2.9681e-07
3.39941e-07
1.19083e-08
2.55198e-07
6.56658e-08
1.80162e-07
7.87266e-08
1.88578e-07
-7.12741e-09
1.77419e-07
7.22679e-09
1.37244e-07
3.14289e-08
5.42849e-08
7.21872e-08
-3.64214e-08
7.52294e-08
7.21667e-08
-1.23841e-07
5.67585e-07
-1.63398e-07
-4.88898e-07
6.78752e-07
-9.92597e-08
7.62117e-07
-1.7699e-08
8.66028e-07
-2.51844e-08
8.83261e-07
-2.43602e-08
8.91488e-07
-9.99498e-10
8.55303e-07
6.76139e-08
7.78271e-07
1.49219e-07
6.5542e-07
1.98081e-07
2.06347e-07
5.2124e-07
4.55806e-07
-1.45421e-07
-4.73783e-07
4.8e-07
-1.23453e-07
5.71249e-07
-1.08949e-07
6.49547e-07
-1.03482e-07
7.14871e-07
-8.96843e-08
7.65516e-07
-5.16441e-08
8.40743e-07
-7.61311e-09
9.24661e-07
6.53008e-08
9.36363e-07
1.86379e-07
2.10464e-07
9.32247e-07
5.53695e-07
-1.10364e-07
-5.88752e-07
5.49993e-07
-1.19752e-07
5.66788e-07
-1.25744e-07
5.81976e-07
-1.1867e-07
5.78921e-07
-8.66296e-08
5.72024e-07
-4.47467e-08
5.874e-07
-2.29894e-08
6.39969e-07
1.2732e-08
7.83586e-07
4.2762e-08
4.5792e-08
9.48257e-07
5.7566e-07
-7.61351e-08
-6.09889e-07
5.77674e-07
-1.21766e-07
5.86392e-07
-1.34461e-07
5.81134e-07
-1.13412e-07
5.62324e-07
-6.78199e-08
5.5467e-07
-3.70923e-08
5.80068e-07
-4.83876e-08
5.98955e-07
-6.15478e-09
5.676e-07
7.41163e-08
-2.15142e-08
6.34907e-07
6.36661e-07
-6.06538e-08
-6.52142e-07
6.39094e-07
-1.24199e-07
6.84799e-07
-1.80166e-07
5.84639e-07
-1.32516e-08
4.62213e-07
5.46055e-08
3.61841e-07
6.328e-08
2.12045e-07
1.01408e-07
4.59262e-08
1.59964e-07
-4.56726e-08
1.65715e-07
-8.15392e-08
1.43524e-08
5.60896e-07
5.07263e-08
-6.72276e-07
3.82153e-07
5.45442e-08
1.4385e-07
5.81373e-08
-1.11861e-07
2.42459e-07
-2.9277e-07
2.35514e-07
-4.36774e-07
2.07285e-07
-5.59092e-07
2.23726e-07
-5.31279e-07
1.32151e-07
-3.57214e-07
-8.34942e-09
-2.582e-07
-1.80553e-07
-6.66123e-07
5.18384e-07
1.98465e-07
-1.03322e-06
4.21637e-07
-1.33468e-06
3.59597e-07
-1.34953e-06
2.57311e-07
-1.29873e-06
1.84722e-07
-1.24065e-06
1.49198e-07
-1.07745e-06
6.05332e-08
-8.57847e-07
-8.7456e-08
-6.12642e-07
-2.53554e-07
-3.92584e-07
-4.78258e-07
-1.48946e-06
5.01642e-07
1.50621e-06
-1.45749e-06
3.89662e-07
-1.44664e-06
3.48745e-07
-1.39489e-06
2.05561e-07
-1.30752e-06
9.73525e-08
-1.14758e-06
-1.07412e-08
-1.01958e-06
-6.74643e-08
-9.44735e-07
-1.62303e-07
-8.52021e-07
-3.46268e-07
-4.24597e-07
-8.20009e-07
-1.48849e-06
4.21719e-07
1.56841e-06
-1.46235e-06
3.63529e-07
-1.31482e-06
2.01213e-07
-1.1231e-06
1.38407e-08
-9.57591e-07
-6.81563e-08
-8.56459e-07
-1.11873e-07
-7.98668e-07
-1.25254e-07
-7.99996e-07
-1.60975e-07
-9.0508e-07
-2.41185e-07
-2.91359e-07
-1.03832e-06
-1.40399e-06
3.56595e-07
1.46912e-06
-1.26603e-06
2.25572e-07
-1.09033e-06
2.55092e-08
-9.802e-07
-9.62897e-08
-9.10106e-07
-1.3825e-07
-8.70812e-07
-1.51167e-07
-8.46704e-07
-1.49363e-07
-8.57849e-07
-1.4983e-07
-9.35778e-07
-1.63256e-07
-1.82113e-07
-1.04502e-06
-1.29338e-06
2.44632e-07
1.40534e-06
-1.14085e-06
7.30414e-08
-1.08694e-06
-2.84037e-08
-1.09776e-06
-8.54705e-08
-1.11786e-06
-1.18148e-07
-1.1306e-06
-1.38426e-07
-1.13886e-06
-1.41104e-07
-1.14772e-06
-1.40969e-07
-1.16848e-06
-1.42494e-07
-1.49197e-07
-1.20139e-06
-1.01547e-06
2.04104e-07
1.056e-06
-1.13241e-06
1.89987e-07
-1.28173e-06
1.20909e-07
-1.38448e-06
1.72863e-08
-1.44484e-06
-5.77968e-08
-1.48319e-06
-1.00067e-07
-1.50444e-06
-1.19856e-07
-1.51469e-06
-1.30726e-07
-1.51281e-06
-1.44368e-07
-1.69428e-07
-1.49258e-06
-1.26407e-06
3.41685e-07
1.12649e-06
-1.40949e-06
3.35408e-07
-1.50922e-06
2.20643e-07
-1.56299e-06
7.10562e-08
-1.57567e-06
-4.51194e-08
-1.57655e-06
-9.91882e-08
-1.57532e-06
-1.21087e-07
-1.57129e-06
-1.34751e-07
-1.5517e-06
-1.63963e-07
-2.11444e-07
-1.50968e-06
-1.19818e-06
3.63953e-07
1.17591e-06
-1.22989e-06
3.67119e-07
-1.29408e-06
2.84834e-07
-1.36176e-06
1.38739e-07
-1.38907e-06
-1.78111e-08
-1.38086e-06
-1.07394e-07
-1.34194e-06
-1.60005e-07
-1.28205e-06
-1.94648e-07
-1.20773e-06
-2.38282e-07
-2.93762e-07
-1.12541e-06
-9.68743e-07
3.17166e-07
1.01553e-06
-8.90821e-07
2.89196e-07
-8.17315e-07
2.11329e-07
-7.59908e-07
8.13313e-08
-7.33386e-07
-4.43323e-08
-6.76642e-07
-1.64138e-07
-6.2152e-07
-2.15127e-07
-5.68533e-07
-2.47635e-07
-4.94074e-07
-3.12741e-07
-3.80679e-07
-4.07156e-07
-6.56549e-07
1.74244e-07
7.99472e-07
-5.22361e-07
1.55009e-07
-4.31694e-07
1.20661e-07
-3.75715e-07
2.53532e-08
-3.18089e-07
-1.01959e-07
-3.19496e-07
-1.62731e-07
-3.11565e-07
-2.23058e-07
-2.71463e-07
-2.87737e-07
-2.13172e-07
-3.71033e-07
-4.49913e-07
-1.43938e-07
-7.45134e-07
9.81688e-08
8.21209e-07
-6.48746e-07
5.86214e-08
-5.15922e-07
-1.21626e-08
-4.26886e-07
-6.36829e-08
-3.936e-07
-1.35245e-07
-3.55757e-07
-2.00575e-07
-3.01012e-07
-2.77803e-07
-2.26776e-07
-3.61972e-07
-1.65809e-07
-4.32e-07
-5.25291e-07
-9.04312e-08
-5.70705e-07
6.69425e-08
6.01931e-07
-5.21556e-07
9.47268e-09
-4.63461e-07
-7.02578e-08
-3.97353e-07
-1.29791e-07
-3.25579e-07
-2.07019e-07
-2.693e-07
-2.56853e-07
-2.32162e-07
-3.14941e-07
-2.42232e-07
-3.51903e-07
-2.72688e-07
-4.01543e-07
-5.12859e-07
-2.85118e-07
-1.13662e-07
-3.77678e-08
2.18372e-07
-9.78541e-08
-6.33536e-09
-5.01604e-08
-1.17952e-07
3.675e-08
-2.16701e-07
9.81493e-08
-2.68418e-07
1.68124e-07
-3.26828e-07
1.89336e-07
-3.36153e-07
1.98049e-07
-3.60617e-07
1.90028e-07
-3.93523e-07
-3.47293e-07
2.44612e-08
-5.73856e-08
-1.85733e-07
2.05351e-07
8.7087e-08
-1.50808e-07
2.26395e-07
-2.57259e-07
3.25287e-07
-3.15594e-07
3.95471e-07
-3.38602e-07
4.46706e-07
-3.78063e-07
4.83163e-07
-3.72609e-07
4.83681e-07
-3.61135e-07
4.53384e-07
-3.63226e-07
-3.65051e-07
4.71141e-07
-1.73649e-07
-3.47474e-07
3.35391e-07
5.59916e-08
-3.80448e-07
2.05046e-07
-4.06314e-07
3.02797e-07
-4.13345e-07
3.74128e-07
-4.09933e-07
4.47816e-07
-4.51751e-07
5.27053e-07
-4.51846e-07
5.64256e-07
-3.98337e-07
5.98166e-07
-3.97136e-07
-3.31525e-07
5.64639e-07
3.73475e-07
-2.79683e-07
-4.41267e-07
3.08252e-07
-3.15223e-07
2.97784e-07
-3.95846e-07
3.30968e-07
-4.4653e-07
3.90109e-07
-4.69075e-07
4.69625e-07
-5.31267e-07
4.75332e-07
-4.57553e-07
1.64102e-07
-8.71065e-08
5.71894e-08
-2.90224e-07
-3.57973e-07
8.36374e-08
7.3213e-07
-1.62512e-07
-8.49301e-07
6.04428e-07
-1.8752e-07
4.87526e-07
-2.78945e-07
3.81136e-07
-3.4014e-07
3.02181e-07
-3.9012e-07
-5.30265e-08
-1.76058e-07
-5.56026e-07
4.54454e-08
-3.57587e-07
-2.85546e-07
-1.38593e-07
-5.09218e-07
-5.68301e-07
7.17361e-08
8.33352e-07
-1.61343e-07
-8.34521e-07
7.82211e-07
-1.36379e-07
6.51127e-07
-1.47862e-07
4.39648e-07
-1.28662e-07
2.11109e-07
-1.61582e-07
2.28428e-08
1.22093e-08
-7.30504e-09
7.55933e-08
2.12758e-07
-5.0561e-07
2.8784e-07
-5.843e-07
-6.34704e-07
3.54244e-07
6.0946e-07
-1.79069e-07
-5.91735e-07
6.46676e-07
-1.73594e-07
6.14373e-07
-1.15559e-07
5.49203e-07
-6.3491e-08
4.35671e-07
-4.80508e-08
4.66483e-07
-1.86032e-08
6.60547e-07
-1.18471e-07
6.04727e-07
-4.4979e-07
5.64675e-07
-5.44248e-07
-6.40047e-07
5.70018e-07
3.83821e-07
-1.52961e-07
-4.09929e-07
3.86426e-07
-1.762e-07
4.23422e-07
-1.52555e-07
4.99339e-07
-1.39408e-07
5.92363e-07
-1.41073e-07
7.25373e-07
-1.51611e-07
8.98392e-07
-2.91488e-07
8.84867e-07
-4.36265e-07
8.39688e-07
-4.99069e-07
-6.38315e-07
8.37957e-07
2.73117e-07
-1.64708e-07
-2.6137e-07
3.27954e-07
-2.31037e-07
4.45006e-07
-2.69609e-07
5.93857e-07
-2.88261e-07
7.54509e-07
-3.01726e-07
9.66547e-07
-3.6365e-07
1.1425e-06
-4.67446e-07
1.18177e-06
-4.75531e-07
1.15038e-06
-4.67684e-07
-6.41216e-07
1.15329e-06
4.26838e-07
-2.23786e-07
-3.6776e-07
5.14762e-07
-3.1896e-07
6.06081e-07
-3.60927e-07
7.11921e-07
-3.94099e-07
8.47379e-07
-4.37182e-07
1.00314e-06
-5.19408e-07
1.12075e-06
-5.8506e-07
1.20493e-06
-5.5971e-07
1.26894e-06
-5.31695e-07
-6.67177e-07
1.2949e-06
6.33758e-07
-2.44227e-07
-6.13317e-07
6.65774e-07
-3.50974e-07
6.9676e-07
-3.91915e-07
7.64472e-07
-4.61811e-07
8.58328e-07
-5.31039e-07
9.13745e-07
-5.74826e-07
9.80447e-07
-6.51762e-07
1.05599e-06
-6.35256e-07
1.1673e-06
-6.43e-07
-8.13383e-07
1.3135e-06
8.74857e-07
-1.93164e-07
-9.25918e-07
7.93618e-07
-2.69734e-07
7.0515e-07
-3.03445e-07
6.96375e-07
-4.53036e-07
6.26966e-07
-4.6163e-07
5.82517e-07
-5.30378e-07
6.66973e-07
-7.36219e-07
7.9106e-07
-7.59343e-07
1.0138e-06
-8.65738e-07
-1.0478e-06
1.24822e-06
9.03164e-07
-6.83881e-08
-1.02794e-06
7.02144e-07
-6.87139e-08
5.24921e-07
-1.26222e-07
4.2115e-07
-3.49264e-07
3.15166e-07
-3.55644e-07
4.00539e-07
-6.15754e-07
5.36358e-07
-8.72037e-07
8.09513e-07
-1.0325e-06
1.0978e-06
-1.15403e-06
-1.31377e-06
1.36378e-06
4.57448e-07
6.75029e-08
-5.93339e-07
2.77911e-07
1.10828e-07
2.94041e-07
-1.42353e-07
2.01312e-07
-2.56535e-07
2.04358e-07
-3.58691e-07
4.07991e-07
-8.19388e-07
6.97431e-07
-1.16148e-06
9.80055e-07
-1.31512e-06
1.21109e-06
-1.38506e-06
-1.4032e-06
1.30051e-06
4.99102e-07
1.26494e-07
-5.58093e-07
3.67724e-07
2.42202e-07
3.644e-07
-1.39026e-07
1.95676e-07
-8.78115e-08
2.69444e-07
-4.32458e-07
5.83146e-07
-1.13309e-06
8.0549e-07
-1.38382e-06
9.50203e-07
-1.45984e-06
9.96877e-07
-1.43173e-06
-1.24444e-06
8.3812e-07
4.47047e-07
1.66186e-07
-4.86739e-07
5.14379e-07
1.74871e-07
2.14749e-07
1.60603e-07
5.62562e-08
7.06815e-08
3.7111e-07
-7.47311e-07
6.26739e-07
-1.38872e-06
7.28547e-07
-1.48563e-06
7.3335e-07
-1.46464e-06
5.36821e-07
-1.23521e-06
-8.20543e-07
1.12922e-07
2.9605e-07
1.18923e-07
-2.48786e-07
3.44219e-07
1.26702e-07
2.82016e-07
2.22807e-07
1.75846e-07
1.76851e-07
4.0338e-07
-9.74844e-07
4.82131e-07
-1.46747e-06
4.93209e-07
-1.4967e-06
3.47949e-07
-1.31938e-06
-2.07643e-08
-8.66496e-07
-5.53e-07
-2.88315e-07
1.8421e-08
8.03772e-08
2.01244e-08
3.5525e-08
1.09598e-07
3.52704e-08
2.23061e-07
6.81346e-08
1.43987e-07
2.16589e-07
-1.1233e-06
2.68593e-07
-1.51947e-06
2.46255e-07
-1.47437e-06
-7.03941e-08
-1.00273e-06
-3.04675e-07
-6.32212e-07
-6.07419e-07
-2.50257e-07
-5.76195e-08
2.7015e-08
1.10982e-07
8.86364e-09
4.31144e-08
8.67162e-08
1.45209e-07
1.34462e-07
9.62412e-08
1.99706e-07
-1.18854e-06
2.11659e-07
-1.53143e-06
1.78418e-07
-1.44113e-06
-1.12108e-07
-7.12208e-07
-1.74585e-07
-5.69738e-07
-6.41383e-07
-1.40622e-07
-7.64771e-08
-2.20477e-08
1.2554e-07
8.41974e-09
-4.17826e-08
8.91477e-08
6.44812e-08
1.23323e-07
6.20657e-08
2.2743e-07
-1.29265e-06
2.10087e-07
-1.51409e-06
1.88668e-07
-1.41971e-06
3.79541e-08
-5.61487e-07
-4.97247e-08
-4.82056e-07
-6.02371e-07
-8.87382e-08
-3.21848e-08
-3.79755e-08
4.81124e-08
1.56919e-08
-8.96595e-08
5.36005e-08
2.65726e-08
4.50277e-08
7.06384e-08
1.46425e-07
-1.39405e-06
1.23937e-07
-1.4916e-06
3.93315e-08
-1.3351e-06
-3.31431e-08
-4.89015e-07
-8.23615e-08
-4.32839e-07
-5.60876e-07
-1.23852e-07
-5.63612e-08
-5.70933e-09
2.40952e-08
-4.3436e-08
-1.02585e-07
-5.84556e-08
4.15921e-08
-2.10334e-08
3.3216e-08
2.8394e-08
-1.44347e-06
8.45179e-09
-1.47166e-06
-9.72796e-08
-1.22937e-06
-1.21343e-07
-4.64951e-07
-1.57065e-07
-3.97115e-07
-5.22033e-07
-1.95904e-07
-3.78106e-07
-2.39223e-07
6.1162e-07
-2.7927e-07
-2.01421e-07
-3.65907e-07
1.28229e-07
1.71402e-08
-3.49831e-07
8.93136e-09
-1.43526e-06
-1.98468e-08
-1.44288e-06
-5.70364e-10
-1.24864e-06
-7.80242e-08
-3.875e-07
-1.79775e-07
-2.95362e-07
-4.68954e-07
-2.32853e-07
-1.45229e-06
-2.27177e-07
1.44024e-06
-1.45614e-06
-1.97568e-07
-1.023e-06
-3.04905e-07
2.58117e-08
-1.39865e-06
8.80257e-09
-1.41825e-06
-1.55327e-08
-1.41854e-06
2.91625e-08
-1.29334e-06
-1.02632e-07
-2.55707e-07
-1.52117e-07
-2.45878e-07
-4.07316e-07
-2.13757e-07
-5.7671e-07
-2.43816e-07
5.93349e-07
-3.81737e-07
-3.92529e-07
-2.85938e-08
-6.58047e-07
8.46117e-09
-1.43571e-06
1.187e-08
-1.42166e-06
9.2995e-09
-1.41597e-06
9.23759e-08
-1.37641e-06
1.97427e-09
-1.65305e-07
-6.73751e-08
-1.76526e-07
-3.42057e-07
-1.32633e-07
-1.25119e-07
-2.90718e-07
1.72022e-07
-6.34729e-08
-4.5417e-07
4.79522e-08
-7.69469e-07
2.18601e-08
-1.40962e-06
1.22456e-08
-1.41205e-06
1.47263e-08
-1.41846e-06
3.31895e-08
-1.39488e-06
-8.08421e-08
-5.12727e-08
-1.33571e-07
-1.23797e-07
-3.293e-07
-1.46326e-07
-7.31048e-08
-3.40164e-07
1.22551e-07
-5.75591e-08
-4.69721e-07
-1.50289e-08
-8.11997e-07
-2.08864e-08
-1.40376e-06
-1.62507e-08
-1.41668e-06
-2.40445e-08
-1.41066e-06
-2.06606e-08
-1.39826e-06
-4.06847e-08
-3.12483e-08
7.55395e-09
-1.72035e-07
-4.21972e-07
1.00224e-07
-4.40808e-08
-3.60871e-07
6.47905e-08
-2.45578e-08
-4.89248e-07
4.83906e-09
-8.41395e-07
-5.14624e-10
-1.39841e-06
-7.28016e-10
-1.41647e-06
-5.24966e-09
-1.40614e-06
-7.41554e-09
-1.39609e-06
3.86931e-07
-4.25595e-07
5.47947e-07
-3.33049e-07
-3.86587e-07
5.12562e-07
5.2151e-09
-3.67477e-07
1.39187e-09
3.22327e-08
-5.16248e-07
6.64546e-08
-8.75618e-07
6.11383e-08
-1.39309e-06
4.6609e-08
-1.40194e-06
5.56812e-08
-1.41521e-06
4.84489e-08
-1.38886e-06
3.73373e-07
-7.50519e-07
4.94731e-07
-4.54409e-07
-3.2166e-07
4.29805e-07
3.49459e-08
-3.66964e-07
-3.54575e-08
3.85586e-08
-5.19853e-07
1.08548e-08
-8.47916e-07
-2.76578e-09
-1.37947e-06
-4.91252e-09
-1.39979e-06
-1.86422e-08
-1.40148e-06
-2.72481e-08
-1.38026e-06
-2.65896e-08
-7.51178e-07
-3.8795e-08
-4.42203e-07
-3.08838e-07
-5.16161e-08
5.94432e-08
-3.76714e-07
-4.96913e-08
6.17131e-08
-5.22115e-07
2.07239e-08
-8.06925e-07
5.24803e-09
-1.364e-06
-5.26206e-09
-1.38928e-06
-1.91203e-08
-1.38762e-06
-4.05977e-08
-1.35878e-06
-7.23557e-08
-7.1942e-07
-1.09552e-07
-4.05006e-07
-3.52304e-07
-6.60866e-08
9.02613e-08
-4.06407e-07
-6.05682e-08
8.43641e-08
-5.16213e-07
4.9257e-08
-7.71816e-07
2.0622e-08
-1.33536e-06
1.55805e-09
-1.37022e-06
-1.38634e-08
-1.3722e-06
-5.02021e-08
-1.32244e-06
-6.97114e-08
-6.99915e-07
-7.01744e-08
-4.04541e-07
-4.14448e-07
-8.03379e-09
1.05084e-07
-4.29808e-07
-8.16829e-08
1.02359e-07
-5.13492e-07
5.81706e-08
-7.27626e-07
1.89842e-08
-1.29617e-06
-1.43382e-09
-1.3498e-06
-2.27143e-08
-1.35092e-06
-5.78628e-08
-1.28729e-06
-5.84045e-08
-6.99375e-07
-3.15832e-08
-4.31362e-07
-4.53113e-07
7.08411e-09
1.26573e-07
-4.19804e-07
-1.36578e-07
9.93992e-08
-4.86316e-07
5.06521e-08
-6.7888e-07
2.01753e-08
-1.2657e-06
-1.76757e-09
-1.32786e-06
-2.47491e-08
-1.32793e-06
-3.23537e-08
-1.27969e-06
-3.37466e-08
-6.97983e-07
-1.31525e-09
-4.63789e-07
-4.59968e-07
5.53883e-09
9.60432e-08
-3.84577e-07
-1.31272e-07
5.79769e-08
-4.48257e-07
2.68792e-08
-6.47785e-07
1.48986e-08
-1.25372e-06
-1.00501e-08
-1.30291e-06
-3.08063e-08
-1.30718e-06
-3.75486e-08
-1.27295e-06
-3.59751e-08
-6.99553e-07
-1.89932e-08
-4.80772e-07
-4.25335e-07
-5.36269e-08
7.7442e-08
-3.35952e-07
-1.26066e-07
4.81472e-08
-4.18966e-07
1.52764e-08
-6.1492e-07
1.05468e-08
-1.24899e-06
-8.55313e-09
-1.28381e-06
-3.30862e-08
-1.28264e-06
-4.56567e-08
-1.26038e-06
-6.27644e-08
-6.82445e-07
-8.48685e-08
-4.58671e-07
-4.11686e-07
-9.85165e-08
1.00222e-07
-2.91641e-07
-1.44534e-07
6.05432e-08
-3.79283e-07
2.22722e-08
-5.76644e-07
1.77892e-08
-1.2445e-06
-2.89486e-09
-1.26313e-06
-2.44242e-08
-1.26111e-06
-3.22186e-08
-1.25259e-06
-7.37288e-08
-6.40935e-07
-8.53618e-08
-4.47041e-07
-4.02828e-07
-9.42206e-08
8.80751e-08
-2.46931e-07
-1.32782e-07
4.18699e-08
-3.33085e-07
8.72532e-09
-5.43504e-07
1.6864e-08
-1.25265e-06
-4.09628e-10
-1.24585e-06
-1.47957e-08
-1.24673e-06
-1.25271e-08
-1.25485e-06
-5.27436e-08
-6.00717e-07
-7.87141e-08
-4.21073e-07
-3.88701e-07
-9.28431e-08
3.51743e-08
-2.22554e-07
-5.95513e-08
1.02142e-08
-3.08119e-07
1.46335e-08
-5.47921e-07
1.49376e-08
-1.25295e-06
-1.01862e-10
-1.23081e-06
-1.50948e-08
-1.23173e-06
-1.48592e-08
-1.25509e-06
-2.60688e-09
-6.1297e-07
-1.24898e-08
-4.1119e-07
-3.82452e-07
-1.87384e-08
1.64324e-08
-2.14374e-07
-2.46114e-08
2.97738e-09
-2.9467e-07
2.75705e-08
-5.7252e-07
1.21976e-08
-1.23758e-06
5.33635e-10
-1.21915e-06
-1.04182e-08
-1.22078e-06
-1.81489e-08
-1.24736e-06
-6.54536e-09
-6.24571e-07
-1.51391e-08
-4.02598e-07
-3.76887e-07
-2.07054e-08
4.39589e-08
-1.89036e-07
-6.92932e-08
6.27487e-09
-2.56974e-07
2.17347e-08
-5.87968e-07
7.98735e-10
-1.21664e-06
-7.70732e-09
-1.21064e-06
-1.86303e-08
-1.20986e-06
-4.86262e-08
-1.21736e-06
-3.5629e-08
-6.37568e-07
-5.89801e-08
-3.79248e-07
-3.48259e-07
-8.76076e-08
4.97328e-08
-1.73869e-07
-6.49003e-08
7.42318e-09
-2.14676e-07
1.67591e-08
-5.97313e-07
1.94617e-09
-1.20183e-06
-5.50204e-09
-1.2032e-06
-1.53059e-08
-1.20005e-06
-2.80328e-08
-1.20463e-06
-3.70587e-08
-6.28544e-07
-1.03229e-07
-3.13078e-07
-2.91256e-07
-1.60234e-07
3.88044e-08
-1.79548e-07
-3.31235e-08
1.69442e-08
-1.92804e-07
3.26045e-08
-6.12968e-07
2.06056e-08
-1.18983e-06
7.51491e-09
-1.1901e-06
-8.89978e-10
-1.19165e-06
-1.27937e-08
-1.19273e-06
-3.70407e-08
-6.04298e-07
-1.42187e-07
-2.07933e-07
-2.01494e-07
-2.3195e-07
4.38855e-08
-1.82565e-07
-4.08682e-08
3.0173e-08
-1.79085e-07
3.67877e-08
-6.19581e-07
2.10867e-08
-1.17412e-06
5.75845e-09
-1.17478e-06
-7.70919e-09
-1.17818e-06
-2.5592e-08
-1.17485e-06
-5.8637e-08
-5.71254e-07
-2.16334e-07
-5.02358e-08
-7.77131e-08
-3.40114e-07
1.132e-07
-1.62177e-07
-1.33587e-07
5.24276e-08
-1.18319e-07
3.10802e-08
-5.98237e-07
1.54176e-08
-1.15846e-06
3.87636e-10
-1.15975e-06
-1.77776e-08
-1.16002e-06
-3.34032e-08
-1.15922e-06
-2.54358e-08
-5.79222e-07
-1.82665e-07
1.06992e-07
2.04649e-08
-2.80845e-07
7.6521e-08
-1.0845e-07
-1.30248e-07
3.83797e-08
-8.01756e-08
3.32671e-08
-5.9312e-07
1.53413e-08
-1.14054e-06
-1.68202e-09
-1.14272e-06
-2.06081e-08
-1.14109e-06
-3.71472e-08
-1.14268e-06
3.58183e-08
-6.52186e-07
-2.24676e-08
1.65278e-07
1.10233e-07
-1.12237e-07
-1.86435e-09
-4.23244e-08
-6.42626e-08
2.71331e-08
-1.09175e-07
3.97293e-08
-6.05714e-07
2.59676e-08
-1.12678e-06
4.16435e-09
-1.12092e-06
-1.7438e-08
-1.11949e-06
-3.02649e-08
-1.12986e-06
6.31759e-09
-6.88771e-07
1.71217e-07
3.76214e-10
1.46217e-07
1.35234e-07
3.49134e-08
1.46781e-09
-7.87067e-08
6.88686e-08
-1.4314e-07
4.74982e-08
-5.84347e-07
3.66746e-08
-1.11596e-06
1.22217e-08
-1.09647e-06
-6.6438e-09
-1.10062e-06
-1.61473e-08
-1.12035e-06
-1.58563e-08
-6.89062e-07
1.3482e-07
-1.50301e-07
1.45864e-07
1.35171e-07
2.30934e-08
4.85038e-08
-7.0131e-08
4.95022e-08
-1.69549e-07
3.5748e-08
-5.70587e-07
2.17437e-08
-1.10195e-06
1.13627e-09
-1.07586e-06
-2.46868e-08
-1.0748e-06
-3.86028e-08
-1.10644e-06
-1.82239e-08
-7.09439e-07
1.73435e-08
-1.85867e-07
1.06583e-07
5.66243e-08
1.17437e-07
6.14509e-08
-1.30386e-07
6.44157e-08
-1.16539e-07
4.33845e-08
-5.49563e-07
2.39067e-08
-1.08247e-06
5.06953e-10
-1.05246e-06
-1.93057e-08
-1.05499e-06
-3.90379e-08
-1.0867e-06
-2.90497e-08
-7.19427e-07
-3.3325e-08
-1.81592e-07
4.30402e-08
3.02161e-08
7.80074e-08
5.40112e-08
-7.05664e-08
3.48302e-08
-7.33482e-08
3.57067e-08
-5.50434e-07
1.54926e-08
-1.06226e-06
-3.47593e-09
-1.03349e-06
-2.56056e-08
-1.03286e-06
-4.49426e-08
-1.06737e-06
-3.13394e-08
-7.33032e-07
-2.58868e-08
-1.87047e-07
6.0078e-09
1.11441e-08
2.78327e-08
6.20368e-08
-3.58586e-08
1.23637e-08
-5.78784e-08
3.68945e-08
-5.74964e-07
1.80774e-08
-1.04344e-06
6.70274e-10
-1.01608e-06
-1.50853e-08
-1.0171e-06
-3.47199e-08
-1.04773e-06
-3.44301e-08
-7.33323e-07
-3.8981e-08
-1.82498e-07
-2.26483e-08
-1.03244e-08
5.58098e-09
9.41364e-08
-3.768e-08
-1.62793e-08
-3.60241e-08
3.02158e-08
-6.21459e-07
1.52006e-08
-1.02842e-06
-4.7675e-10
-1.00041e-06
-1.588e-08
-1.0017e-06
-3.4143e-08
-1.02947e-06
-1.88658e-08
-7.48599e-07
4.07109e-09
-2.05436e-07
-6.71815e-08
4.86058e-08
3.69033e-08
3.33501e-08
2.38836e-08
4.35278e-08
-4.26535e-08
3.76175e-08
-6.15557e-07
1.56432e-08
-1.00645e-06
2.49748e-10
-9.85013e-07
-1.59438e-08
-9.85505e-07
-3.48955e-08
-1.01052e-06
-3.31789e-08
-7.50315e-07
-3.21144e-08
-2.065e-07
-1.10721e-07
1.14257e-08
-1.07156e-07
-3.28088e-08
1.73315e-07
2.58765e-08
-1.75667e-07
3.59864e-08
-6.2566e-07
1.64376e-08
-9.86901e-07
-3.23483e-10
-9.68252e-07
-1.6668e-08
-9.69161e-07
-3.68603e-08
-9.90327e-07
-3.12647e-08
-7.55911e-07
-7.53819e-09
-2.30227e-07
-1.23587e-07
5.32854e-09
1.03347e-08
-9.56726e-08
5.25278e-08
2.43788e-08
-1.89712e-07
3.76244e-08
-6.38907e-07
1.88413e-08
-9.68116e-07
7.05623e-10
-9.50116e-07
-1.72844e-08
-9.51171e-07
-3.65202e-08
-9.71091e-07
-4.15454e-08
-7.50888e-07
-3.96378e-08
-2.32134e-07
-1.10289e-07
-5.29374e-08
1.48424e-07
-1.55581e-07
-8.85146e-08
4.96742e-08
-9.09612e-08
3.81657e-08
-6.27398e-07
2.0133e-08
-9.50084e-07
1.04789e-09
-9.31031e-07
-1.80434e-08
-9.32079e-07
-3.79262e-08
-9.51208e-07
-5.10851e-08
-7.3773e-07
-6.39859e-08
-2.19232e-07
-9.43617e-08
-7.99142e-08
8.99424e-08
-1.65742e-07
-7.97799e-08
3.34437e-08
-3.44585e-08
4.09364e-08
-6.34888e-07
2.08449e-08
-9.29992e-07
4.5198e-10
-9.10638e-07
-2.02504e-08
-9.11377e-07
-3.9462e-08
-9.31996e-07
-4.96044e-08
-7.27587e-07
-5.09679e-08
-2.17867e-07
-9.08642e-08
-5.44646e-08
-3.58051e-08
-1.25112e-07
-4.82463e-09
1.10089e-08
-8.12732e-08
4.25155e-08
-6.66395e-07
2.20171e-08
-9.09494e-07
2.08508e-10
-8.8883e-07
-2.29957e-08
-8.88173e-07
-4.34538e-08
-9.11538e-07
-5.30948e-08
-7.17946e-07
-5.22345e-08
-2.18727e-07
-9.02474e-08
-5.28499e-08
2.30924e-08
-5.32359e-08
-9.49679e-08
5.46433e-08
-1.12824e-07
4.27064e-08
-6.54457e-07
2.23008e-08
-8.89087e-07
-3.64714e-10
-8.66164e-07
-2.25412e-08
-8.65996e-07
-4.34302e-08
-8.90649e-07
-5.36863e-08
-7.07689e-07
-4.92043e-08
-2.23211e-07
-1.0731e-07
-3.21415e-08
5.06641e-08
-1.45556e-08
-8.93443e-08
5.15206e-08
-1.1368e-07
4.46003e-08
-6.47537e-07
2.28197e-08
-8.67307e-07
-8.30018e-11
-8.43262e-07
-2.25686e-08
-8.43511e-07
-4.46829e-08
-8.68535e-07
-5.4194e-08
-6.98177e-07
-4.40015e-08
-2.33404e-07
-1.28463e-07
-2.28488e-08
1.40417e-07
8.15831e-09
-1.6313e-07
7.98228e-08
-5.30811e-08
4.6691e-08
-6.14402e-07
2.38566e-08
-8.44472e-07
2.10053e-10
-8.19615e-07
-2.31942e-08
-8.20106e-07
-4.63087e-08
-8.4542e-07
-5.009e-08
-6.94396e-07
-3.23802e-08
-2.51113e-07
-1.42383e-07
-1.84602e-08
8.7085e-08
6.26312e-08
-1.41558e-07
5.15799e-08
-1.7577e-08
4.71223e-08
-6.09946e-07
2.31117e-08
-8.20461e-07
5.44914e-10
-7.97048e-07
-2.28235e-08
-7.96738e-07
-4.65964e-08
-8.21647e-07
-5.9588e-08
-6.81405e-07
-5.57909e-08
-2.54909e-07
-1.5161e-07
-4.65628e-08
8.38059e-08
1.14078e-07
-1.35251e-07
5.80676e-08
8.16228e-09
4.91165e-08
-6.00994e-07
2.44062e-08
-7.95751e-07
3.11767e-10
-7.72954e-07
-2.44267e-08
-7.71999e-07
-4.91935e-08
-7.96881e-07
-6.54484e-08
-6.6515e-07
-7.38952e-08
-2.46461e-07
-1.57206e-07
-6.82988e-08
8.50555e-08
1.48036e-07
-1.19014e-07
6.30162e-08
3.02006e-08
4.88471e-08
-5.86824e-07
2.37339e-08
-7.70637e-07
-8.73909e-11
-7.49133e-07
-2.38335e-08
-7.48253e-07
-4.89779e-08
-7.71736e-07
-6.67374e-08
-6.4739e-07
-8.26962e-08
-2.30502e-07
-1.50166e-07
-8.97362e-08
7.91208e-08
1.7098e-07
-1.02065e-07
6.66453e-08
4.26769e-08
5.18896e-08
-5.72068e-07
2.5745e-08
-7.44493e-07
-3.44257e-10
-7.23043e-07
-2.59964e-08
-7.22601e-07
-5.20496e-08
-7.45683e-07
-7.83304e-08
-6.21108e-07
-1.19019e-07
-1.89815e-07
-1.17404e-07
-1.51782e-07
8.48023e-08
1.77432e-07
-9.12539e-08
7.02707e-08
5.72114e-08
5.25939e-08
-5.5439e-07
2.52869e-08
-7.17186e-07
-1.07204e-09
-6.96684e-07
-2.62565e-08
-6.97417e-07
-5.35464e-08
-7.18393e-07
-7.69265e-08
-5.97729e-07
-1.1727e-07
-1.49472e-07
-7.67102e-08
-1.57964e-07
1.05366e-07
1.65846e-07
-9.37796e-08
8.02437e-08
8.23363e-08
5.5025e-08
-5.29171e-07
2.65637e-08
-6.88724e-07
-1.6504e-09
-6.6847e-07
-2.90429e-08
-6.70024e-07
-5.72436e-08
-6.90192e-07
-7.85856e-08
-5.76387e-07
-1.05095e-07
-1.22963e-07
-4.25835e-08
-1.39221e-07
7.6248e-08
1.54059e-07
-6.44598e-08
6.65319e-08
9.20541e-08
5.52076e-08
-5.17846e-07
2.56778e-08
-6.59194e-07
-2.04338e-09
-6.40749e-07
-2.95762e-08
-6.42491e-07
-5.80763e-08
-6.61692e-07
-7.96721e-08
-5.54792e-07
-8.8709e-08
-1.13925e-07
-1.8019e-08
-1.13273e-07
6.78608e-08
1.4529e-07
-5.90918e-08
6.89171e-08
9.09993e-08
5.91883e-08
-5.08118e-07
2.78357e-08
-6.27842e-07
-1.06644e-09
-6.11847e-07
-3.07966e-08
-6.12761e-07
-6.21941e-08
-6.30295e-07
-8.11066e-08
-5.35879e-07
-5.93957e-08
-1.35635e-07
-1.59576e-08
-6.14567e-08
-7.47606e-10
1.45399e-07
6.3892e-10
5.9045e-08
3.12092e-08
6.238e-08
-5.11453e-07
2.95199e-08
-5.94982e-07
1.85225e-09
-5.84179e-07
-2.71151e-08
-5.83794e-07
-6.19028e-08
-5.95507e-07
-7.03366e-08
-5.27444e-07
-3.03347e-08
-1.75637e-07
-2.86432e-08
-1.76492e-08
-7.00188e-08
1.54015e-07
6.14035e-08
2.5783e-08
-6.45921e-08
6.40323e-08
-5.49702e-07
2.83487e-08
-5.59298e-07
3.40427e-09
-5.59235e-07
-2.83082e-08
-5.52081e-07
-6.03536e-08
-5.63462e-07
-2.15181e-08
-5.6628e-07
2.42981e-09
-1.99585e-07
-1.65611e-08
-9.65286e-09
5.99861e-09
1.2298e-07
2.50365e-08
8.52444e-08
-1.43838e-07
6.88867e-08
-5.33344e-07
4.02015e-08
-5.30613e-07
-6.77304e-10
-5.18356e-07
-2.16467e-08
-5.31112e-07
-6.00882e-08
-5.2502e-07
-9.44811e-08
-5.31887e-07
-7.68736e-08
-2.17193e-07
-2.55906e-08
-6.78441e-08
5.83672e-08
1.06392e-07
-4.17784e-08
1.04563e-07
-1.90031e-07
4.05786e-08
-4.69359e-07
-5.44731e-09
-4.84587e-07
-3.3778e-08
-4.90025e-07
-7.74378e-08
-4.87452e-07
-1.06411e-07
-4.96047e-07
-1.49214e-07
-4.89084e-07
-1.1414e-07
-2.52268e-07
-3.56519e-08
-1.04078e-07
1.08998e-07
7.89332e-08
-8.15391e-08
1.20577e-07
-2.01609e-07
9.22179e-08
-4.40999e-07
5.87595e-08
-4.51129e-07
2.3272e-08
-4.54538e-07
-1.38271e-08
-4.50353e-07
-6.29128e-08
-4.46961e-07
-1.15742e-07
-4.36254e-07
-1.29307e-07
-2.38702e-07
-4.27387e-08
-1.2222e-07
1.26152e-07
5.81762e-08
-1.05394e-07
1.39597e-07
-2.15056e-07
8.41252e-08
-3.85528e-07
2.74077e-08
-3.94411e-07
-2.22043e-08
-4.04926e-07
-6.25555e-08
-4.10002e-07
-1.00451e-07
-4.09066e-07
-1.45181e-07
-3.91524e-07
-1.41722e-07
-2.42161e-07
-7.05108e-08
-1.1395e-07
7.96938e-08
5.85343e-09
-2.73713e-08
1.45942e-07
-2.81303e-07
1.03803e-07
-3.43389e-07
7.11126e-08
-3.6172e-07
3.31321e-08
-3.66945e-07
-1.11194e-08
-3.6575e-07
-6.79964e-08
-3.52189e-07
-1.18049e-07
-3.41472e-07
-5.64919e-08
-3.03718e-07
-8.70633e-08
-3.99396e-08
1.34472e-07
-7.15632e-08
-5.70559e-08
1.29698e-07
-2.76527e-07
8.31566e-08
-2.96848e-07
2.87601e-08
-3.07324e-07
-2.35698e-08
-3.14615e-07
-7.19764e-08