/*--------------------------------*- C++ -*----------------------------------*\
  =========                 |
  \\      /  F ield         | OpenFOAM: The Open Source CFD Toolbox
   \\    /   O peration     | Website:  https://openfoam.org
    \\  /    A nd           | Version:  8
     \\/     M anipulation  |
\*---------------------------------------------------------------------------*/
FoamFile
{
    version     2.0;
    format      ascii;
    class       volScalarField;
    location    "0.75";
    object      p_rgh;
}
// * * * * * * * * * * * * * * * * * * * * * * * * * * * * * * * * * * * * * //

dimensions      [1 -1 -2 0 0 0 0];

internalField   nonuniform List<scalar> 
9150
(
1963.15
1962.14
1961.58
1961.09
1960.85
1960.84
1961.08
1961.57
1962.14
1963.15
1962.74
1962.2
1961.8
1961.47
1961.3
1961.32
1961.48
1961.81
1962.2
1962.74
1962.47
1962.16
1961.93
1961.7
1961.58
1961.59
1961.69
1961.92
1962.16
1962.47
1962.35
1962.16
1961.99
1961.83
1961.75
1961.75
1961.83
1961.99
1962.16
1962.35
1962.35
1962.15
1962.02
1961.89
1961.83
1961.81
1961.89
1962.02
1962.15
1962.35
1951.89
1950.69
1950.66
1951.22
1951.32
1951.32
1951.22
1950.65
1950.68
1951.88
1955.47
1954.8
1954.53
1954.44
1954.52
1954.53
1954.44
1954.52
1954.8
1955.46
1958.5
1957.76
1957.45
1957.12
1957.05
1957.05
1957.09
1957.44
1957.75
1958.5
1961.19
1960.08
1959.7
1959.04
1958.9
1958.89
1959.05
1959.71
1960.09
1961.2
1964.08
1961.85
1961.13
1960.36
1960.14
1960.13
1960.38
1961.15
1961.86
1964.09
1946.69
1945.21
1943.35
1942.38
1941.66
1941.63
1942.35
1943.32
1945.09
1946.33
1945.75
1945.64
1944.66
1944.39
1944.03
1943.99
1944.34
1944.6
1945.53
1945.59
1945.69
1945.75
1944.72
1945.17
1944.61
1944.6
1945.15
1944.65
1945.68
1945.59
1942.58
1945.18
1943.94
1945.61
1945.27
1945.27
1945.61
1943.9
1945.15
1942.54
1934.61
1945.55
1945.47
1947.42
1947.62
1947.62
1947.41
1945.45
1945.52
1934.57
249.88
379.598
502.113
557.445
452.551
245.775
120.326
72.5564
57.4771
61.1919
5.2651
26.7507
94.0048
185.491
165.942
59.787
33.1884
26.0386
22.2827
25.842
-4.21087
-1.97627
4.89017
42.5354
88.9732
84.4844
68.6596
64.9856
45.2886
31.5913
-5.76404
-5.62352
-4.96622
12.5237
64.7453
70.45
45.2041
56.7758
36.1621
33.0732
-5.95403
-5.94824
-5.903
16.8453
67.3876
72.0911
39.758
32.0128
29.3604
30.1309
-6.3704
-6.41337
-6.44388
23.0753
79.1596
84.1974
36.5916
24.6633
22.7657
20.9303
-7.15396
-7.1422
-7.11052
19.1157
91.7031
96.3341
43.7779
35.966
22.3093
18.7995
-8.14279
-8.10274
-7.92675
12.19
88.0697
107.83
61.2525
66.0242
62.9668
50.2974
-9.11743
-9.10304
-8.70028
9.46205
94.7093
116.252
66.3498
71.6179
77.5829
76.6057
-8.42979
-8.71803
-8.30797
8.43614
106.155
133.799
51.9913
76.5626
66.6346
50.1577
26.9503
-1.05254
5.24092
20.8422
129.449
168.608
50.2236
72.3971
38.7574
23.6072
74.8351
67.9782
67.5288
86.1566
191.634
202.544
59.7114
42.8789
32.9438
27.8892
117.562
151.15
171.986
174.868
282.868
221.101
168.853
118.602
103.703
89.1991
59.7355
132.771
139.006
165.047
257.498
212.668
173.07
176.962
173.353
170.529
7.17522
73.4798
46.4087
69.7945
210.43
198.174
179.706
178.956
145.872
97.6622
0.192836
9.7944
7.99149
9.83146
182.313
195.756
84.2087
106.897
66.1435
18.965
-0.103657
-0.00992305
0.413083
0.797364
207.955
199.952
10.5474
4.57177
3.6482
3.46883
-0.0922057
-0.00217434
1.03934
2.35363
218.284
214.446
2.92483
2.12871
1.7294
1.60054
0.0332281
0.412834
2.15154
2.11901
222.033
230.683
1.69801
1.69364
1.58706
1.51819
0.13223
0.649902
1.38699
1.72025
231.432
235.494
1.60636
1.58961
1.50975
1.63959
0.232367
0.363387
0.305047
0.16859
258.02
226.245
1.53965
1.50076
1.46506
1.61034
0.0948006
0.00629152
1.96501
-0.704692
256.145
255.874
1.42054
1.41899
1.40513
1.48594
-0.00448543
0.172508
9.34948
0.716924
273.839
274.818
1.38163
1.38411
1.37427
1.39657
0.00948831
5.61984
10.4131
0.977454
288.815
293.863
1.34877
1.3774
1.353
1.35274
5.06014
10.4975
10.0748
1.37086
306.618
306.794
1.30344
1.33533
1.30924
1.31453
10.5845
10.5196
10.501
1.46871
319.978
322.597
1.2257
1.25851
1.23584
1.2444
6.57727
10.4159
9.06068
0.839805
333.964
335.566
1.14253
1.15051
1.15415
1.2194
0.506162
4.3464
1.77877
0.129709
347.463
349.285
1.06464
1.07521
1.11595
1.16013
-0.609358
-0.596701
-0.499061
-0.471439
362.788
364.877
0.997412
1.01644
1.06562
1.08904
-0.694167
-0.692619
-0.656488
-0.674493
379.761
381.339
0.945576
0.967842
1.008
1.03756
-0.747937
-0.750964
-0.741563
-0.741361
395.288
397.147
0.91258
0.937795
1.00815
0.92372
-0.766442
-0.767363
-0.763581
-0.764569
410.34
411.78
0.889716
0.915608
0.99198
0.90856
-0.775605
-0.774643
-0.77227
-0.773571
425.669
427.196
0.861238
0.873867
0.92045
0.907911
-0.785525
-0.783121
-0.780492
-0.782261
442.24
443.626
0.839433
0.839751
0.849183
0.87694
-0.794311
-0.790551
-0.786944
-0.790283
458.216
458.747
0.825907
0.84107
0.83689
0.835171
-0.797715
-0.792485
-0.787172
-0.79204
473.025
473.201
0.81382
0.856885
0.943106
0.821105
-0.79332
-0.786744
-0.779355
-0.785071
488.101
488.17
0.795936
0.841014
1.04927
0.917318
-0.784239
-0.775027
-0.764192
-0.773382
502.836
502.87
0.763904
0.780337
0.995472
1.01959
-0.775969
-0.768903
-0.752031
-0.765478
518.362
518.969
0.703128
0.709608
0.737923
0.942911
-0.773793
-0.771456
-0.675403
-0.765572
534.045
535.822
0.642485
0.64983
0.646909
0.663791
-0.767897
-0.754798
-0.592675
-0.767159
552.865
554.094
0.590827
0.595106
0.607513
0.610719
-0.752223
-0.705271
-0.567727
-0.75019
570.714
571.645
0.524951
0.532524
0.572785
0.607412
-0.727951
-0.574381
-0.633173
-0.726366
589.255
590.574
0.427336
0.436968
0.458356
0.499919
-0.603605
-0.601543
-0.736236
-0.750949
609.347
610.284
0.321182
0.321617
0.315199
0.301718
-0.670548
-0.76744
-0.812223
-0.830091
628.315
629.255
0.247406
0.239596
0.224669
0.189659
-0.820575
-0.923806
-0.926917
-0.966678
646.499
647.268
0.243885
0.235301
0.224577
0.190029
-0.976329
-1.10771
-1.09704
-1.12591
665.505
665.967
0.321332
0.318165
0.303066
0.274905
-1.25457
-1.20755
-1.24475
-1.25079
680.225
680.802
0.410617
0.416646
0.429768
0.399509
-1.33246
-1.21933
-1.25678
-1.26324
701.825
701.472
0.491103
0.497606
0.519373
0.502286
-1.21782
-1.10527
-1.14952
-1.14931
715.118
716.343
0.540376
0.548654
0.575979
0.578652
-0.999246
-0.974218
-0.978107
-0.976375
740.95
742.394
0.572794
0.576279
0.605449
0.612982
-0.770276
-0.793338
-0.760343
-0.78876
755.794
756.04
0.56913
0.577737
0.596838
0.615305
-0.610829
-0.631529
-0.298375
-0.614223
786.812
787.231
0.56026
0.564569
0.566305
0.584375
-0.475461
-0.502037
0.697509
-0.396312
803.701
804.726
0.536951
0.540819
0.542631
0.546221
-0.391788
-0.411605
3.24912
5.73042
833.021
835.063
5.45771
0.510641
0.512002
0.514258
-0.350774
-0.351521
7.32187
8.3827
852.834
854.563
8.33604
0.476414
0.476673
0.478016
-0.316272
-0.316058
9.60152
14.3241
880.175
881.962
14.1873
0.440547
0.440127
0.440204
-0.305525
-0.149236
5.56352
17.3045
901.637
903.109
17.3493
0.404737
0.442928
0.403183
-0.180729
0.999164
0.631664
23.7272
928.333
929.48
23.9623
0.370841
0.600947
0.371382
6.13314
3.89627
0.640209
28.3184
950.447
951.618
28.2672
0.340414
0.57724
0.380874
6.39472
5.88164
0.898128
34.4112
974.578
975.749
34.2307
0.320483
0.557045
0.476085
5.73697
5.65938
0.100305
38.5814
996.274
997.066
38.842
0.310017
0.546431
0.531397
3.51293
1.82677
-0.133193
45.0224
1020.28
1020.89
45.4759
0.305714
0.491551
0.521999
-0.276654
-0.284938
-0.28073
48.8615
1040.45
1040.94
49.5424
0.298601
0.414764
0.508427
-0.301281
-0.287551
-0.295567
57.3509
1066.46
1066.93
57.9949
0.2921
0.405554
0.473733
-0.295861
-0.292974
-0.292628
61.9807
1087.06
1087.41
62.6235
0.289193
0.446062
0.459617
-0.284622
-0.283866
-0.282155
73.0252
1115.85
1116.3
73.7125
0.298148
0.497854
0.549026
-0.275146
-0.27462
-0.273663
79.2251
1138
1138.51
79.916
0.31149
0.523002
0.687487
-0.266567
-0.266077
-0.264089
93.5224
1169.46
1169.75
94.2897
0.321762
0.54945
0.70249
-0.25879
-0.2584
-0.257565
101.954
1193.23
1193.36
102.704
0.328327
0.588174
0.714298
-0.251124
-0.250795
-0.249
119.662
1226.1
1226
120.476
0.335037
0.686177
0.821476
-0.243723
-0.243529
-0.243004
130.151
1250.35
1250.29
130.93
0.342459
0.771659
0.93273
-0.236229
-0.236019
-0.234499
151.151
1283.77
1283.57
151.96
0.347131
0.8863
0.954629
-0.228845
-0.228788
-0.228625
163.57
1308.21
1308.05
164.279
0.346495
0.942927
0.955639
-0.221221
-0.221094
-0.219942
188.097
1342.19
1341.83
188.78
0.327936
0.948904
0.948113
-0.21362
-0.213643
-0.213774
202.626
1366.95
1366.59
203.246
0.296973
0.462863
0.894423
-0.205738
-0.2056
-0.205043
231.521
1401.41
1401.07
232.025
0.257399
0.26441
0.292764
-0.197841
-0.197831
-0.198118
248.825
1426.41
1426.17
249.171
0.206843
0.211759
0.204511
-0.189691
-0.1895
-0.189183
284.744
1461.54
1461.28
284.941
0.144013
0.145013
0.141052
-0.181608
-0.181549
-0.181988
307.308
1487.01
1486.91
307.322
0.0769056
0.0752953
0.0691368
-0.173319
-0.173103
-0.172989
353.488
1522.45
1522.48
353.405
0.0460693
0.0433091
0.0415306
-0.16513
-0.165047
-0.165727
384.606
1548.58
1548.67
384.47
0.0546552
0.0512197
0.0545071
-0.156704
-0.156429
-0.156658
445.211
1583.4
1583.51
445.129
0.074573
0.0732883
0.0686533
-0.148398
-0.148227
-0.149225
487.159
1608.97
1609.16
487.107
0.0943412
0.0934449
0.0909898
-0.139839
-0.139397
-0.140075
565.202
1641.25
1641.48
565.24
0.106111
0.105597
0.104701
-0.131478
-0.131138
-0.132563
620.49
1665.65
1665.92
620.608
0.108612
0.108806
0.108117
-0.122894
-0.122248
-0.123646
720.74
1694.32
1694.45
720.859
0.107184
0.107925
0.107126
-0.114527
-0.113952
-0.116268
794.538
1717.23
1717.31
794.708
0.101807
0.10361
0.102799
-0.1059
-0.105052
-0.107412
925.461
1741.32
1741.4
925.679
0.096592
0.0984761
0.0974472
-0.0977176
-0.0972662
-0.101403
1023.44
1762.47
1762.5
1023.7
0.0878043
0.0915691
0.0910277
-0.0890305
-0.0899229
-0.094338
1195.12
1780.64
1780.35
1195.27
0.0806885
0.0840414
0.0845602
-0.0810858
-0.0816546
-0.0775565
1321.31
1800.22
1799.95
1321.55
0.0840266
0.0765755
0.0770932
-0.0739572
-0.0726588
51.2353
1490
1817.65
1817.45
1490.1
50.6759
0.0699485
0.0681633
-0.0653447
-0.0647627
185.454
1603.79
1836.65
1837.65
1604.25
185.021
0.060932
0.0598406
-0.0564743
-0.0577832
407.155
1750.31
1855.24
1854.8
1750.39
401.87
0.0518146
0.0524262
-0.0484277
-0.0518876
772.902
1848.36
1874.07
1873.6
1826.45
709.33
0.0361128
0.0413487
-0.0394203
-0.0306515
1229.08
1891.42
1892.16
1892.13
1892.09
1277.84
0.0599864
0.0345518
-0.0322599
193.057
1667.3
1910.31
1911.66
1911.54
1910.03
1657.98
200.275
0.0206388
-0.014054
1135.89
1927.03
1926.96
1926.76
1926.82
1927.2
1927.32
1163.35
0.0276602
667.261
1883.55
1939.45
1937.51
1937.08
1937.08
1937.42
1939.24
1887.59
692.317
76.4176
95.7509
84.4797
45.6163
25.8587
31.0218
46.2446
55.1936
50.9492
43.331
36.5451
33.131
35.9659
38.7001
36.1736
22.2043
25.2271
31.6005
40.6291
37.6115
33.8337
31.7004
30.0401
31.3613
36.426
41.9686
42.7168
40.6404
38.1583
37.5113
36.9518
50.8742
73.2562
100.827
135.818
177.107
226.965
274.213
309.822
336.611
29.1004
29.4833
36.0935
24.7096
12.3443
12.3084
22.5755
48.1692
49.4621
42.4589
26.5526
24.7539
22.1736
18.6686
17.1772
17.4601
24.1053
23.3891
22.0795
19.0504
16.6159
15.6646
15.4455
14.9444
19.191
25.7401
28.5025
14.8203
24.5898
15.652
15.3948
16.3606
17.2395
19.3182
34.0532
70.2441
131.499
194.156
239.122
270.097
33.2957
22.5887
13.2394
11.7608
11.5678
11.472
12.5847
17.0871
20.0676
20.1808
20.5755
20.4904
18.784
16.9275
16.1321
16.1005
16.0978
16.1629
16.6035
18.3359
21.1894
18.61
16.0422
16.068
19.2514
42.7952
34.9696
18.0035
15.2348
15.2188
15.3937
15.4234
15.413
15.9154
17.6752
23.2553
69.9807
118.275
151.83
172.138
30.0642
25.2377
12.9289
11.7457
11.7016
11.859
12.1904
13.233
14.4753
16.1072
18.1752
17.5866
16.5482
16.005
15.7712
15.7483
15.7164
15.6616
15.5547
15.4086
15.2048
15.0718
15.1408
15.0541
14.9588
15.4971
15.9127
15.7031
15.4446
15.3307
15.2938
15.3043
15.2919
15.2809
15.2938
15.7506
44.5164
80.293
97.7774
108.157
29.2587
25.1801
18.6675
11.907
11.636
11.694
11.8191
12.1695
13.6676
27.1532
43.8996
41.6414
19.9854
15.7834
15.7061
15.6809
15.7202
15.6456
15.5389
15.451
15.4009
15.3596
15.388
15.3211
15.2882
15.318
15.3882
15.4203
15.4188
15.4118
15.4241
15.452
15.4835
15.5469
15.6586
15.898
38.1492
59.8333
74.61
77.4005
20.6682
22.7462
22.5222
17.628
11.0709
11.1267
11.2235
11.9854
39.757
70.4352
78.2837
79.3898
61.5356
21.9525
15.5554
15.5194
15.5295
15.5038
15.4566
15.4047
15.3552
15.315
15.2983
15.2842
15.2761
15.288
15.3107
15.3291
15.3458
15.3699
15.4139
15.4797
15.5619
15.6733
15.768
15.9573
38.8545
65.4777
71.1675
71.5044
18.596
17.6818
21.6604
19.5048
16.741
9.54718
8.91048
30.7227
83.7282
84.4567
84.727
86.3581
88.1945
70.5649
15.6045
15.4984
15.4912
15.4738
15.4433
15.4122
15.3776
15.3439
15.3142
15.2887
15.2702
15.267
15.2792
15.2975
15.3179
15.3493
15.399
15.4594
15.527
15.6024
15.6621
16.8571
45.6189
105.273
73.1849
75.9327
31.8588
13.3707
8.21145
7.29385
5.54965
4.91239
4.22255
15.6218
33.817
66.4134
90.5763
92.7619
95.0593
97.8628
55.5412
15.4974
15.4758
15.4657
15.4414
15.4248
15.4009
15.3679
15.3329
15.3009
15.2748
15.2642
15.2762
15.3012
15.3287
15.3574
15.3926
15.4356
15.4746
15.5125
15.5431
18.5886
60.1693
125.051
84.7028
85.5856
79.4561
67.4598
26.4649
4.86757
4.3435
3.84287
3.07959
1.97131
2.07904
2.51722
39.5802
96.3777
102.215
106.12
99.8652
19.1436
15.4752
15.4613
15.4489
15.4392
15.4185
15.3871
15.3647
15.3472
15.3438
15.3894
15.4145
15.3908
15.4126
15.4319
15.4769
15.4852
15.4812
15.4948
15.524
19.9688
87.5878
132.686
105.917
96.9564
20.5117
35.4987
35.7402
9.58816
3.07024
2.65195
2.23498
2.01864
1.99787
2.01709
2.09457
21.6565
102.086
116.117
120.415
82.2134
15.5161
15.5086
15.4633
15.4514
15.4607
15.3924
15.3617
15.3457
15.4504
15.605
15.5914
15.4461
15.4666
15.4914
15.5393
15.5561
15.5457
15.5395
15.5618
20.6493
107.169
139.325
138.739
136.825
21.9377
20.4262
66.0804
36.5853
3.13424
2.23798
2.09221
2.00544
1.9991
2.00367
2.013
2.10564
18.1023
111.296
133.491
137.234
86.4018
24.7508
15.4233
15.5753
16.2985
16.0327
17.405
18.0264
16.8605
16.1903
16.1026
15.6487
15.5916
15.5938
15.6069
15.617
15.6193
15.6129
15.642
19.4643
106.235
151.912
152.611
151.871
26.6245
94.9959
133.189
123.259
33.3305
2.11629
1.9766
2.03571
2.05268
2.05352
2.07254
2.07988
2.16333
18.0085
123.735
149.686
154.311
134.397
46.4044
16.5506
17.4834
23.3514
26.1371
27.7659
27.1041
27.9847
30.5337
60.2025
56.9362
23.7872
15.7328
15.7306
15.7104
15.7254
15.7643
17.1082
69.9044
163.044
163.79
163.163
103.046
130.391
131.675
97.446
29.4952
2.03113
1.97081
2.02956
2.09236
2.10957
2.11201
2.12973
2.12788
2.20487
20.3169
137.902
163.547
167.941
169.688
56.3475
17.614
17.8657
17.7478
20.5048
24.9374
40.5983
77.3624
121.048
147.53
118.263
34.386
15.7967
15.8033
15.8012
15.8277
16.2386
26.6702
150.53
169.861
173.298
161.289
100.256
38.8286
5.87391
5.35793
1.85409
2.01621
2.03916
2.11024
2.14831
2.15736
2.16356
2.1813
2.19969
2.26623
23.283
156.938
175.326
179.783
180.454
49.2869
17.7809
17.7355
17.5419
17.3877
50.4493
137.451
146.712
145.545
135.894
112.449
15.8142
15.823
15.8393
15.8458
15.902
15.9202
72.5419
177.055
183.063
51.5112
22.1591
5.15162
2.02761
2.01565
2.03496
2.02537
2.15455
3.0442
3.10785
2.31827
2.21089
2.23299
2.2669
2.30997
2.41589
43.885
181.925
186.142
188.666
176.526
37.1966
18.1076
17.8263
39.212
126.541
196.838
134.71
48.27
63.5585
128.947
21.0982
15.8106
15.8511
15.8746
15.8871
16.078
35.0975
189.326
192.04
1.17846
1.65377
1.78006
1.87503
1.86857
1.86958
1.87564
1.86039
3.01024
3.38287
3.52338
2.55992
2.24386
2.31121
2.36747
2.42648
15.6049
160.592
193.026
194.027
194.958
167.218
55.4783
75.5594
187.692
205.312
209.033
146.367
34.1807
35.5425
113.421
143.567
105.699
88.2137
50.6938
51.6348
16.205
59.2525
198.887
200.262
1.95302
1.67737
1.70249
1.72453
1.67866
1.69486
1.71891
1.73122
2.62845
3.36184
3.44155
2.69068
2.14836
2.23624
2.29527
2.32977
15.1988
159.78
204.817
204.713
205.249
198.402
166.781
194.872
216.542
218.429
220.319
220.126
100.337
35.3807
38.8386
176.858
224.89
218.716
212.142
160.722
31.9139
173.261
205.134
211.199
1.58382
1.6414
1.49992
1.47394
1.47604
1.50903
1.58288
1.64361
2.97931
3.26165
2.87353
2.0537
1.99279
2.05917
2.10104
2.1276
16.1232
172.018
222.196
219.543
129.657
48.5658
54.3763
157.297
223.522
233.016
233.956
236.368
222.665
46.3916
29.4457
29.4894
100.084
230.202
235.957
227.986
204.268
230.088
235.867
240.483
1.6831
1.61969
1.40933
1.30473
1.32682
1.38362
1.51267
2.17502
2.4211
2.00447
1.67777
1.72018
1.7919
1.87823
1.96809
2.02807
16.5624
183.06
238.211
225.026
48.4324
23.5721
23.5123
23.1163
42.2195
178.584
244.577
248.837
254.521
173.945
29.1159
29.0543
29.0324
108.848
257.191
254.637
256.495
262.276
267.213
268.866
1.71222
1.33058
1.24371
1.23696
1.2553
1.33549
2.04204
2.17869
1.45621
1.48817
1.55129
1.65976
1.78305
1.81624
1.81748
1.83115
2.33065
107.688
248.462
254.493
137.725
23.019
23.1764
23.2937
23.4328
24.1524
177.455
261.731
266.93
261.525
72.8489
28.9971
28.9668
29.7129
160.506
272.775
277.499
282.39
285.774
288.498
1.71483
1.28944
1.2636
1.251
1.27827
1.63089
2.0119
1.4066
1.37863
1.41178
1.54854
1.60132
1.60908
1.5635
1.44792
1.56163
1.61966
22.9804
208.104
263.082
265.214
95.1124
23.5157
23.6907
23.9536
24.1729
26.2978
198.145
279.377
288.179
216.501
29.3922
29.2733
29.3462
46.6661
236.836
290.328
296.742
301.688
301.649
1.73682
1.36328
1.30721
1.37057
1.72332
1.68544
1.39202
1.25471
1.30722
1.43454
1.44591
1.44973
1.28158
1.25979
1.25975
1.31618
1.21647
1.38375
68.0019
271.398
276.782
280.992
112.188
24.2431
24.4297
24.8658
25.3808
49.1629
257.635
291.237
292.873
129.154
29.2562
29.4975
30.0618
73.5007
257.23
307.102
313.152
314.712
1.60856
1.48258
1.36401
1.66709
1.79559
1.62697
1.23645
1.20815
1.31542
1.33605
1.31188
1.11537
1.1282
1.1354
1.13031
1.10848
1.07818
1.06507
1.2448
87.5791
285.123
290.283
293.713
147.028
26.0176
25.2357
26.2343
30.7758
181.051
291.91
296.464
294.53
120.378
55.1312
66.1798
95.2445
290.53
317.501
323.291
325.516
1.38957
1.51131
1.51896
1.84877
1.81819
1.6183
1.20168
1.15478
1.28417
1.24424
1.01068
0.985205
1.00566
1.08139
1.07548
1.00838
0.990494
0.966631
0.960977
1.74334
164.835
298.886
302.009
302.983
211.553
71.907
58.831
140.686
261.676
298.025
302.352
307.098
304.497
270.166
279.74
296.483
324.733
329.431
332.079
333.819
1.32234
1.37174
1.56721
1.77998
1.82283
1.69002
1.14004
1.08911
1.1903
1.11396
0.866082
0.830758
0.874907
0.917459
0.935907
0.951641
0.943589
0.894223
0.891098
0.962075
29.1687
280.827
311.424
312.42
314.059
308.966
292.044
311.863
309.825
309.667
314.531
321.532
327.323
333.48
267.532
255.636
339.52
342.048
342.157
288.01
1.25555
1.25664
1.34553
1.49899
1.78875
1.68752
1.07778
0.99431
1.09165
0.953321
0.733699
0.691654
0.686967
0.71689
0.787818
0.847508
0.874995
0.832652
0.84457
0.859744
0.988875
123.889
322.75
324.265
325.906
326.463
328.117
328.794
328.154
328.48
331.88
337.004
329.361
180.33
174.759
175.715
195.925
271.229
200.04
177.809
1.22601
1.15252
1.12925
1.14077
1.31664
1.33198
0.996894
0.913919
0.921811
0.791092
0.661497
0.627818
0.616873
0.636647
0.669012
0.768971
0.844091
0.804636
0.811984
0.813349
0.913546
36.5999
283.736
337.167
337.724
339.482
341.137
342.152
343.792
345.843
349.049
352.659
353.664
194.139
181.36
182.087
181.257
180.604
181.102
181.987
1.14135
1.0594
1.00036
0.985608
0.967058
0.956386
0.966758
0.866245
0.79358
0.730183
0.69393
0.673247
0.66658
0.676412
0.698344
0.737648
0.860186
0.808251
0.796754
0.785892
0.778858
0.833325
63.157
279.788
352.24
352.595
352.624
353.852
354.514
357.384
360.4
363.784
367.737
372.103
351.148
236.029
193.173
191.628
228.963
262.117
1.06778
0.997564
0.902339
0.889348
0.882402
0.897714
1.03496
0.936975
0.807897
0.777979
0.757595
0.748009
0.74633
0.753492
0.766666
0.78746
0.903263
0.829108
0.821832
0.900068
1.3596
1.15604
0.749615
1.69565
104.453
177.123
234.161
313.697
362.699
367.239
369.49
373.716
378.28
383.381
384.703
379.906
378.657
376.054
387.065
390.459
1.01869
0.95472
0.840512
0.825305
0.819013
0.921924
0.975047
0.961619
0.86222
0.792552
0.799371
0.80447
0.811169
0.818929
0.827017
0.844908
0.945991
0.872965
0.902553
1.98129
2.2915
1.13925
0.733006
0.722834
0.654448
0.629006
0.728702
12.5523
106.687
210.556
272.461
314.783
385.347
390.843
392.723
393.466
393.088
396.438
402.484
404.488
0.964988
0.947547
0.883177
0.794569
0.77852
0.904218
0.925278
0.929032
0.887923
0.801727
0.821237
0.834321
0.843096
0.85048
0.862568
0.938003
0.918885
0.923631
2.16357
2.45822
2.10201
0.701344
0.675883
0.649749
0.624703
0.619539
0.622291
0.621307
0.504245
0.399738
1.04138
74.1317
287.65
397.465
399.872
326.606
213.898
250.523
391.452
406.014
0.882619
0.940532
0.939197
0.892779
0.807136
0.87382
0.954039
0.889724
0.843247
0.814213
0.823047
0.828261
0.831278
0.835788
0.887664
0.922967
0.876218
1.91516
2.48078
1.87724
0.678587
0.678125
0.675799
0.645594
0.613984
0.656901
0.694202
0.616378
0.523175
0.512574
0.524575
0.481574
0.492877
49.0987
100.773
112.458
214.205
277.785
276.096
248.283
0.870452
0.864103
0.896159
0.938464
0.928575
0.904899
0.844003
0.830215
0.829007
0.824007
0.816122
0.827372
0.799005
0.827222
0.858275
0.849848
0.778079
1.50818
1.81581
0.650475
0.63247
0.633849
0.634242
0.586161
0.6143
0.817508
0.798844
0.776528
0.554112
0.500901
0.505006
0.50569
0.498984
0.490816
0.700355
21.9399
53.1102
45.0524
47.2725
72.7155
0.852501
0.855796
0.940783
0.879587
0.91183
0.92097
0.919382
0.904028
0.879222
0.819919
0.840182
0.867244
0.831914
0.789887
0.79411
0.754475
0.693594
1.00302
1.11481
0.624174
0.593429
0.574046
0.546582
0.523743
0.505644
0.61096
0.762703
0.621272
0.469442
0.48004
0.488195
0.49583
0.503575
0.536301
0.572916
0.579036
0.589275
0.620057
0.659958
0.660883
0.832354
0.871337
0.943305
0.838911
0.829018
0.862156
0.903018
0.900323
0.889103
0.869125
0.84433
0.820805
0.798253
0.705504
0.683555
0.647334
0.623139
0.671219
0.701206
0.59973
0.554229
0.56995
0.485572
0.4671
0.451575
0.439759
0.432814
0.42978
0.431379
0.456733
0.471169
0.481427
0.498093
0.503373
0.515314
0.532884
0.553699
0.622872
0.819696
0.760348
0.813435
0.847465
0.916093
0.893103
0.791532
0.774158
0.778995
0.813032
0.84083
0.813761
0.745873
0.724189
0.688904
0.628355
0.606462
0.588134
0.56814
0.561113
0.531494
0.508448
0.546537
0.527541
0.503111
0.420512
0.408572
0.400297
0.394867
0.391842
0.392216
0.401686
0.428017
0.442185
0.455448
0.47132
0.487539
0.485611
0.503731
0.571561
1.40592
1.7008
0.787726
0.781841
0.882974
0.875437
0.808658
0.727799
0.71306
0.70045
0.694566
0.675811
0.641682
0.617895
0.596415
0.576718
0.558053
0.537874
0.515534
0.497907
0.466112
0.448583
0.496401
0.48104
0.46556
0.405223
0.363139
0.353433
0.346728
0.343876
0.345905
0.350938
0.358482
0.36941
0.397582
0.423355
0.438077
0.435737
0.449587
0.459082
1.10115
1.79114
0.831538
0.749852
0.789984
0.838799
0.821636
0.714217
0.665186
0.650447
0.634144
0.614445
0.592477
0.569477
0.54892
0.529978
0.509308
0.487096
0.462556
0.437313
0.413121
0.393304
0.42895
0.431682
0.413532
0.324256
0.305964
0.294315
0.291241
0.29203
0.288615
0.293213
0.302217
0.314488
0.327724
0.341889
0.361799
0.378921
0.391036
0.399663
0.491865
1.76039
0.966521
0.758211
0.727893
0.768267
0.781848
0.690442
0.620183
0.602771
0.583929
0.565008
0.541929
0.522548
0.502452
0.48177
0.460099
0.439196
0.418841
0.388044
0.363676
0.340145
0.361504
0.377149
0.344168
0.254123
0.236126
0.240867
0.323351
0.370406
0.319379
0.309559
0.278188
0.252001
0.265335
0.279522
0.30007
0.32781
0.331513
0.341786
0.402005
1.73144
0.856155
0.923688
0.859854
0.672917
0.647781
0.606651
0.580691
0.605855
0.572826
0.518564
0.496208
0.477025
0.458139
0.436997
0.414322
0.397178
0.372169
0.340627
0.31334
0.285998
0.315172
0.315234
0.233291
0.1807
0.160984
0.267322
0.288475
0.284783
0.289394
0.301463
0.318274
0.262396
0.206788
0.211478
0.241699
0.261519
0.275187
0.282118
0.315541
1.508
0.610636
0.788832
0.856907
0.833098
0.597141
0.562095
0.546537
0.943182
0.613722
0.476541
0.457871
0.440419
0.468011
0.476406
0.410752
0.351742
0.326998
0.293213
0.262554
0.231573
0.279015
0.250742
0.13743
0.108906
0.0924964
0.215108
0.209052
0.205756
0.211362
0.213403
0.239238
0.259774
0.206277
0.148691
0.168165
0.204498
0.221052
0.219051
0.25383
1.06236
0.560338
0.564532
0.627524
0.898347
0.638475
0.510089
0.676394
0.903318
0.588019
0.443493
0.433239
0.501979
0.708759
0.692949
0.439583
0.310483
0.283127
0.252234
0.218875
0.210116
0.235179
0.163211
0.082719
0.0539511
0.0287249
0.116983
0.161866
0.1606
0.152142
0.0215675
0.0463082
0.130517
0.167283
0.103999
0.122612
0.144798
0.180489
0.173904
0.220623
1.43384
0.590357
0.513289
0.503761
0.800636
0.597166
0.420717
0.663193
0.845527
0.753592
0.422801
0.498491
0.701972
0.687387
0.664324
0.432214
0.282803
0.254735
0.221199
0.196505
0.232837
0.196777
0.114423
0.0450853
0.018042
-0.00572621
-0.0112671
0.125847
0.142239
0.0133797
-0.0135031
0.00191266
0.0203052
0.063931
0.0797364
0.0894556
0.109958
0.132321
0.142576
0.201437
1.5842
0.447024
0.664848
0.624872
0.606906
0.60394
0.320866
0.401612
0.781254
0.948111
0.398228
0.443998
0.680414
0.67153
0.654146
0.392781
0.270363
0.23918
0.201265
0.19
0.207782
0.169831
0.0915119
0.0277632
0.00176291
-0.0173207
-0.0335067
-0.0360787
0.045129
-0.0327117
-0.0326144
-0.0199863
-0.00198359
0.0193977
0.0480511
0.0671022
0.0889566
0.108614
0.125337
0.156103
1.60342
0.246536
0.433527
0.353897
0.337285
0.392368
0.338375
0.276598
0.622079
0.919578
0.467186
0.425082
0.615395
0.675729
0.602722
0.326772
0.273741
0.241507
0.201278
0.1601
0.175919
0.157197
0.0671633
0.0269988
0.0117069
-0.00211034
-0.0205586
-0.0341238
-0.0405766
-0.0394645
-0.0332784
-0.0226073
-0.00630304
0.014919
0.0384974
0.0663604
0.0895814
0.111892
0.131325
0.147715
1.63981
0.239471
0.379737
0.29124
0.283645
0.354539
0.302231
0.255578
0.686712
0.914872
0.927712
0.542625
0.554762
0.57476
0.392727
0.322528
0.29825
0.2646
0.224316
0.178758
0.136442
0.10338
0.0741363
0.0515699
0.0389851
0.0248203
0.0116144
-0.00351726
-0.0082709
-0.00931333
-0.00502893
0.00517201
0.0212178
0.0419855
0.0663291
0.120833
0.164328
0.147332
0.162028
0.173661
1.6175
0.37984
0.543736
0.48858
0.495084
0.501781
0.267885
0.355781
0.948314
0.98936
1.0105
1.01529
0.690189
0.394212
0.374808
0.357223
0.333124
0.301319
0.263798
0.222851
0.181818
0.145913
0.117685
0.0945213
0.0750839
0.0656096
0.0491426
0.0392813
0.0343361
0.0335513
0.0419654
0.054702
0.0704184
0.0925979
0.117985
0.17734
0.267286
0.218523
0.209902
0.221055
1.55335
0.406579
0.766055
0.775297
0.782841
0.452974
0.478079
0.500533
0.900805
1.10923
1.11238
1.10526
1.08659
0.890491
0.564428
0.391341
0.362879
0.330411
0.295244
0.309931
0.256702
0.183192
0.154461
0.131531
0.112451
0.0967117
0.0834491
0.0739282
0.0691204
0.0730938
0.0882637
0.108199
0.130505
0.155444
0.182121
0.224071
0.334981
0.306527
0.279399
0.290464
1.64613
0.49543
0.574237
0.977945
1.00118
0.709614
0.647221
0.650676
0.653917
1.01518
1.21244
1.19165
1.16727
1.13751
1.09915
0.956878
0.792427
0.77693
0.781954
0.705802
0.510741
0.280416
0.175851
0.154813
0.137216
0.122633
0.112471
0.109101
0.114952
0.130791
0.148152
0.171403
0.196661
0.22646
0.256132
0.285708
0.417851
0.401771
0.368598
0.38021
1.76881
0.568968
0.588065
0.625284
0.91681
0.952395
0.882947
0.820715
0.742111
0.734316
0.829102
0.93082
0.966621
1.19276
1.14681
1.10448
1.059
1.00533
0.954221
0.904781
0.646278
0.466521
0.223561
0.16835
0.152447
0.140264
0.134194
0.137669
0.151332
0.171272
0.197055
0.225924
0.259921
0.29625
0.33325
0.37015
0.505157
0.499112
0.467874
0.479122
1.89746
0.601155
0.609956
0.628299
0.650932
0.712946
0.858646
0.904332
0.905759
0.86529
0.837402
0.809287
0.781196
0.79058
0.746876
0.998491
1.09533
1.04102
0.98916
0.93852
0.792917
0.368878
0.234463
0.186687
0.163886
0.150678
0.151361
0.160625
0.177954
0.204422
0.239745
0.282765
0.329002
0.374965
0.420047
0.463974
0.545756
0.68006
0.586751
0.584118
2.0312
0.605289
0.607161
0.621189
0.637343
0.666489
0.696883
0.707974
0.737337
0.843432
0.85765
0.832122
0.821914
0.785986
0.716813
0.666394
0.608405
0.829649
1.0127
0.966797
0.917011
0.363132
0.2185
0.196121
0.186513
0.185796
0.193386
0.265537
0.371711
0.348286
0.328742
0.374631
0.423926
0.481648
0.527364
0.56967
0.620349
0.883527
0.732544
0.69196
1.77503
0.581362
0.586893
0.597102
0.607817
0.636007
0.695208
0.709195
0.709765
0.682145
0.635393
0.727816
0.787954
0.758186
0.724681
0.688081
0.577728
0.428143
0.422115
0.668347
0.66882
0.342869
0.223959
0.214374
0.215037
0.223364
0.253182
0.397651
0.451846
0.500814
0.553237
0.564457
0.533479
0.607328
0.667929
0.674461
0.728433
0.996917
0.88357
0.791386
1.07416
0.550723
0.556784
0.563343
0.569018
0.573068
0.591724
0.64491
0.649501
0.627723
0.566407
0.547061
0.535509
0.518668
0.506475
0.577499
0.512532
0.367166
0.311862
0.27396
0.247839
0.243697
0.221559
0.208341
0.217683
0.237196
0.288105
0.44212
0.497029
0.557167
0.620846
0.683581
0.657399
0.722906
0.761087
0.749693
0.795396
1.08368
1.01111
0.876389
1.04921
0.516834
0.519821
0.522931
0.524813
0.524673
0.521841
0.519143
0.510594
0.501001
0.488249
0.470888
0.448933
0.42299
0.393519
0.360883
0.329702
0.29413
0.253557
0.217324
0.188233
0.16923
0.164836
0.172803
0.192831
0.222861
0.26178
0.38452
0.510464
0.577968
0.645347
0.711295
0.720533
0.834782
0.814896
0.802185
0.874155
1.14088
1.05368
0.932238
1.41572
0.47892
0.479422
0.479377
0.477873
0.474544
0.468984
0.460336
0.450027
0.437606
0.421738
0.401308
0.379049
0.349952
0.3189
0.28603
0.247179
0.207938
0.170925
0.137925
0.112342
0.0987487
0.0999495
0.115307
0.143028
0.18074
0.226507
0.280126
0.452043
0.556627
0.632154
0.70882
0.779604
0.840082
0.843431
0.811683
0.908834
1.15168
1.06824
0.937662
1.67889
0.439561
0.438073
0.435252
0.430557
0.424029
0.416472
0.40538
0.389834
0.382013
0.426933
0.392974
0.319979
0.267832
0.23134
0.191112
0.148531
0.107364
0.06791
0.0351415
0.0118604
0.00311475
0.0104747
0.033355
0.0688696
0.114503
0.16897
0.230335
0.352499
0.518305
0.597279
0.673697
0.746011
0.812632
0.824021
0.792947
0.941886
1.13666
1.05543
0.919022
1.70492
0.400937
0.39782
0.392785
0.385547
0.376105
0.363467
0.349909
0.358677
0.536456
0.628648
0.501288
0.228057
0.181279
0.134551
0.0872906
0.0515549
0.0494199
-0.0116062
-0.0899216
-0.109996
-0.111858
-0.0963881
-0.0644644
-0.0194399
0.0354814
0.0989886
0.167714
0.266969