/*--------------------------------*- C++ -*----------------------------------*\
  =========                 |
  \\      /  F ield         | OpenFOAM: The Open Source CFD Toolbox
   \\    /   O peration     | Website:  https://openfoam.org
    \\  /    A nd           | Version:  8
     \\/     M anipulation  |
\*---------------------------------------------------------------------------*/
FoamFile
{
    version     2.0;
    format      ascii;
    class       surfaceScalarField;
    location    "4";
    object      alphaPhi0.water;
}
// * * * * * * * * * * * * * * * * * * * * * * * * * * * * * * * * * * * * * //

dimensions      [0 3 -1 0 0 0 0];

internalField   nonuniform List<scalar> 
18095
(
1.97344e-08
-1.72082e-07
1.52347e-07
2.3164e-08
-1.97993e-07
1.94563e-07
1.98807e-08
-2.05947e-07
2.09231e-07
1.07958e-08
-2.1067e-07
2.19755e-07
-1.23793e-10
-2.13472e-07
2.24392e-07
-1.10547e-08
-2.13259e-07
2.2419e-07
-1.99408e-08
-2.10606e-07
2.19492e-07
-2.31924e-08
-2.05914e-07
2.09165e-07
-1.97495e-08
-1.97992e-07
1.94549e-07
-1.72064e-07
1.52314e-07
1.5488e-08
-1.8757e-07
1.58075e-08
-1.98312e-07
1.19727e-08
-2.02113e-07
6.27875e-09
-2.04976e-07
-3.7207e-10
-2.06822e-07
-6.57259e-09
-2.07059e-07
-1.20044e-08
-2.05174e-07
-1.58101e-08
-2.02108e-07
-1.55024e-08
-1.983e-07
-1.87566e-07
6.81323e-09
-1.94383e-07
8.28822e-09
-1.99787e-07
7.2034e-09
-2.01028e-07
4.42083e-09
-2.02193e-07
3.99168e-10
-2.028e-07
-3.90329e-09
-2.02756e-07
-7.23255e-09
-2.01845e-07
-8.33111e-09
-2.0101e-07
-6.82124e-09
-1.9981e-07
-1.94388e-07
4.53491e-09
-1.98918e-07
4.67788e-09
-1.9993e-07
3.55512e-09
-1.99905e-07
1.79998e-09
-2.00438e-07
-2.44948e-10
-2.00755e-07
-2.17173e-09
-2.0083e-07
-3.65738e-09
-2.00359e-07
-4.68613e-09
-1.99981e-07
-4.53441e-09
-1.99961e-07
-1.98922e-07
1.08201e-09
1.15156e-09
1.2465e-09
8.08309e-10
5.3266e-11
-7.76414e-10
-1.13576e-09
-1.1166e-09
-1.07802e-09
-2.76912e-08
-1.96738e-07
2.2443e-07
-3.03508e-08
-1.99083e-07
2.01743e-07
-2.56158e-08
-2.01461e-07
1.96726e-07
-1.52234e-08
-2.01234e-07
1.90841e-07
-1.62559e-09
-2.01804e-07
1.88206e-07
1.26769e-08
-2.01971e-07
1.87669e-07
2.43259e-08
-2.01533e-07
1.89884e-07
2.96389e-08
-2.01246e-07
1.95933e-07
2.70068e-08
-1.98655e-07
2.01287e-07
-1.96275e-07
2.23282e-07
-9.89912e-09
-1.86839e-07
-1.56732e-08
-1.93309e-07
-1.45493e-08
-2.02585e-07
-7.67212e-09
-2.08111e-07
-1.04288e-09
-2.08433e-07
5.93109e-09
-2.08945e-07
1.34436e-08
-2.09045e-07
1.51033e-08
-2.02906e-07
9.64148e-09
-1.93193e-07
-1.86633e-07
-1.05875e-08
-1.76252e-07
-8.2407e-09
-1.95656e-07
-5.45838e-09
-2.05367e-07
-3.17054e-09
-2.10399e-07
1.20537e-09
-2.12809e-07
5.10059e-09
-2.1284e-07
6.07779e-09
-2.10022e-07
8.12659e-09
-2.04955e-07
1.04668e-08
-1.95534e-07
-1.76167e-07
-6.6293e-09
-1.69622e-07
-8.98861e-09
-1.93296e-07
-8.99391e-09
-2.05362e-07
-4.059e-09
-2.15334e-07
1.13445e-10
-2.16981e-07
3.92453e-09
-2.16651e-07
8.62597e-09
-2.14724e-07
8.83486e-09
-2.05164e-07
6.5731e-09
-1.93272e-07
-1.69594e-07
-1.7275e-08
-1.6008e-08
-1.21395e-08
-7.71824e-09
-3.0761e-10
7.23139e-09
1.2e-08
1.60018e-08
1.72791e-08
2.65565e-08
-1.61862e-07
1.35306e-07
3.2305e-08
-2.01685e-07
1.95937e-07
2.63444e-08
-2.12187e-07
2.18148e-07
1.31383e-08
-2.16091e-07
2.29297e-07
-3.26964e-09
-2.17578e-07
2.33986e-07
-1.95908e-08
-2.16973e-07
2.33294e-07
-3.33149e-08
-2.15441e-07
2.29165e-07
-4.2195e-08
-2.08869e-07
2.17749e-07
-3.78725e-08
-1.95558e-07
1.91235e-07
-1.53756e-07
1.15884e-07
1.40119e-08
-1.75874e-07
1.58704e-08
-2.03544e-07
1.24505e-08
-2.08767e-07
6.04309e-09
-2.09684e-07
-2.8621e-09
-2.08673e-07
-1.21511e-08
-2.07684e-07
-1.97553e-08
-2.07836e-07
-2.29188e-08
-2.05705e-07
-1.8806e-08
-1.99671e-07
-1.72562e-07
9.21802e-09
-1.85092e-07
7.76968e-09
-2.02095e-07
5.53016e-09
-2.06528e-07
-1.66926e-10
-2.03986e-07
-3.99739e-09
-2.04842e-07
-7.30161e-09
-2.04379e-07
-1.01384e-08
-2.05e-07
-1.10106e-08
-2.04833e-07
-1.05345e-08
-2.00147e-07
-1.83097e-07
7.02535e-09
-1.92117e-07
5.18926e-09
-2.00259e-07
5.84346e-09
-2.07182e-07
2.15229e-09
-2.00295e-07
5.84308e-10
-2.03274e-07
-1.34103e-09
-2.02454e-07
-7.21801e-09
-1.99123e-07
-6.80685e-09
-2.05244e-07
-7.72856e-09
-1.99225e-07
-1.90825e-07
3.23122e-08
3.37954e-08
2.33395e-08
1.38854e-08
-1.18284e-09
-1.59684e-08
-2.52074e-08
-3.45185e-08
-3.24563e-08
-2.13439e-07
-1.22278e-08
2.25955e-07
-2.10251e-07
-3.24531e-09
-2.1417e-07
3.92247e-09
-2.24842e-07
1.06743e-08
-2.39058e-07
1.42224e-08
-2.41582e-07
1.23578e-08
-2.48593e-07
6.76399e-09
-2.51739e-07
2.87102e-09
-2.59314e-07
5.23715e-09
1.08066e-08
-2.69812e-07
-3.10888e-07
-1.15776e-08
3.10228e-07
-3.14909e-07
4.68589e-10
-3.23926e-07
1.29403e-08
-3.38522e-07
2.52727e-08
-3.61262e-07
3.69656e-08
-3.89785e-07
4.09194e-08
-4.14177e-07
3.0968e-08
-4.29683e-07
1.85734e-08
-3.7378e-07
2.87559e-08
2.80739e-08
-3.99584e-07
-4.36665e-07
-1.07036e-08
4.35749e-07
-4.40937e-07
4.44778e-09
-4.49062e-07
2.1068e-08
-4.57059e-07
3.77528e-08
-3.94353e-07
5.03244e-08
-3.98444e-07
4.4296e-08
-4.04657e-07
3.60605e-08
-4.12433e-07
2.71678e-08
-4.08688e-07
2.42029e-08
1.7815e-08
-4.28035e-07
-5.36334e-07
-8.83629e-09
5.34594e-07
-5.23723e-07
7.84265e-09
-4.37773e-07
1.99678e-08
-4.30033e-07
2.97031e-08
-4.14272e-07
3.3835e-08
-4.08623e-07
3.79191e-08
-4.0307e-07
2.97796e-08
-3.97087e-07
2.0065e-08
-4.80295e-07
1.79151e-08
8.20163e-09
-4.70678e-07
-5.72183e-07
-9.34621e-09
5.7268e-07
-5.71487e-07
8.29619e-09
-5.69777e-07
2.86691e-08
-5.79772e-07
4.01812e-08
-5.67383e-07
4.44931e-08
-4.82246e-07
4.19888e-08
-4.83604e-07
3.00178e-08
-5.73523e-07
2.32681e-08
-5.72205e-07
1.65412e-08
1.79562e-09
-5.65831e-07
-5.60631e-07
-1.99079e-08
5.71083e-07
-5.50734e-07
-1.22361e-09
-5.44287e-07
2.15351e-08
-5.39684e-07
3.50252e-08
-5.36384e-07
4.11214e-08
-5.37894e-07
4.67252e-08
-4.95689e-07
4.49547e-08
-5.33247e-07
3.58742e-08
-5.69777e-07
2.80113e-08
1.54898e-08
-5.83531e-07
-5.08685e-07
-2.89741e-08
5.36686e-07
-4.97693e-07
-1.2628e-08
-4.85994e-07
9.4783e-09
-4.74846e-07
2.34435e-08
-4.64792e-07
3.05753e-08
-4.54921e-07
3.64039e-08
-4.66728e-07
4.33949e-08
-4.82982e-07
4.9104e-08
-5.04773e-07
4.97738e-08
4.56092e-08
-5.34978e-07
-4.64063e-07
-1.80277e-08
4.53219e-07
-4.5113e-07
-8.99477e-09
-4.52364e-07
1.0401e-08
-4.54758e-07
2.53112e-08
-4.65753e-07
3.04813e-08
-4.63176e-07
3.38276e-08
-4.59459e-07
3.96784e-08
-4.55295e-07
4.49404e-08
-4.52837e-07
4.72826e-08
4.74133e-08
-4.54635e-07
-3.65117e-07
2.44194e-08
3.21596e-07
-3.89115e-07
1.50098e-08
-3.92415e-07
2.6702e-08
-4.14809e-07
4.67592e-08
-4.5217e-07
5.66164e-08
-4.72431e-07
5.40889e-08
-4.83373e-07
5.06206e-08
-4.8456e-07
4.61279e-08
-4.79342e-07
4.20658e-08
4.1684e-08
-4.73611e-07
-2.59257e-07
1.02191e-07
1.81492e-07
-3.08727e-07
6.44812e-08
-3.46675e-07
6.46538e-08
-3.81584e-07
8.19328e-08
-4.25409e-07
1.00596e-07
-4.75804e-07
1.05076e-07
-5.2124e-07
9.60571e-08
-5.38501e-07
6.33898e-08
-5.49207e-07
5.27722e-08
5.08797e-08
-5.58402e-07
-2.04473e-07
1.53721e-07
9.37167e-08
-2.44268e-07
1.04277e-07
-2.77268e-07
9.76559e-08
-3.03021e-07
1.07689e-07
-3.31255e-07
1.28845e-07
-3.67058e-07
1.4587e-07
-4.39167e-07
1.34019e-07
-4.97289e-07
1.01244e-07
-5.15428e-07
7.09127e-08
6.77636e-08
-5.3231e-07
-1.40265e-07
1.9042e-07
5.81212e-08
-1.60172e-07
1.24185e-07
-1.7061e-07
1.08095e-07
-1.76738e-07
1.13819e-07
-1.88796e-07
1.40906e-07
-1.91379e-07
1.59878e-07
-2.09041e-07
1.47868e-07
-2.27446e-07
1.18911e-07
-2.87439e-07
9.53117e-08
8.45209e-08
-3.42814e-07
-1.09899e-07
2.30799e-07
3.11682e-08
-1.30335e-07
1.44622e-07
-1.35208e-07
1.12969e-07
-1.32063e-07
1.10671e-07
-1.08549e-07
1.24055e-07
-8.41226e-08
1.40246e-07
-8.71012e-08
1.50115e-07
-1.15603e-07
1.46723e-07
-1.46046e-07
1.25017e-07
9.23124e-08
-1.55119e-07
-3.38958e-09
2.55777e-07
-5.18779e-08
-8.37822e-08
2.25016e-07
-1.16028e-07
1.45216e-07
-1.25201e-07
1.19852e-07
-8.22903e-08
1.15074e-07
-5.33656e-08
1.10636e-07
-2.86508e-08
1.247e-07
-3.19425e-08
1.49249e-07
-3.60169e-08
1.75266e-07
1.01468e-07
-4.2962e-08
1.57178e-07
2.53225e-07
-1.54693e-07
1.20069e-07
2.24133e-07
4.19335e-08
2.00711e-07
6.57622e-09
1.5496e-07
1.03993e-09
1.26888e-07
2.80997e-08
1.20829e-07
6.40962e-08
1.30906e-07
1.22766e-07
1.32083e-07
1.39152e-07
1.25331e-07
6.62102e-08
1.16002e-07
2.58593e-07
2.34748e-07
-2.4017e-07
2.62691e-07
2.19899e-07
2.54954e-07
1.94553e-07
2.41143e-07
1.69933e-07
2.13609e-07
1.58802e-07
2.05405e-07
1.30891e-07
2.22178e-07
1.14988e-07
2.5532e-07
9.97478e-08
2.05096e-07
7.24395e-08
3.31299e-08
2.2485e-07
3.04653e-07
2.19306e-07
-2.89267e-07
3.1004e-07
2.15453e-07
3.03738e-07
2.0381e-07
3.98233e-07
1.89561e-07
4.04842e-07
1.73821e-07
4.09669e-07
1.26919e-07
4.26868e-07
9.8595e-08
4.57207e-07
7.02284e-08
2.98646e-07
2.86798e-08
5.63719e-09
3.24797e-07
3.42702e-07
2.00872e-07
-3.23118e-07
3.55376e-07
2.05738e-07
3.55519e-07
2.01616e-07
5.49547e-07
2.25001e-07
5.43009e-07
1.83987e-07
5.23679e-07
1.48107e-07
4.67836e-07
1.13541e-07
3.06407e-07
2.84175e-08
3.36653e-07
-3.48253e-09
-6.48084e-09
3.48386e-07
3.91964e-07
1.38953e-07
-3.30323e-07
4.39039e-07
1.5879e-07
4.72692e-07
1.73431e-07
6.83127e-07
1.90389e-07
7.25973e-07
1.57334e-07
5.47025e-07
1.14509e-07
5.19414e-07
9.67892e-08
6.12079e-07
6.33614e-08
6.47937e-07
3.27011e-08
3.6349e-09
6.39377e-07
3.72467e-07
6.10837e-08
-2.96038e-07
4.35813e-07
9.58708e-08
5.00298e-07
1.13661e-07
5.69679e-07
1.22164e-07
6.10517e-07
9.04774e-08
6.25668e-07
7.00233e-08
6.52556e-07
7.03419e-08
6.56475e-07
6.90042e-08
8.73617e-07
6.53818e-08
4.81057e-08
8.77566e-07
4.29582e-07
4.78376e-09
-3.98503e-07
3.69499e-07
4.08073e-08
4.36733e-07
4.78385e-08
5.11949e-07
4.88878e-08
5.69999e-07
3.1757e-08
6.20574e-07
1.9016e-08
6.67673e-07
2.31245e-08
7.01539e-07
3.55782e-08
1.10768e-06
4.62584e-08
1.49043e-08
1.15951e-06
6.29131e-07
-5.03597e-08
-5.74109e-07
6.86362e-07
-2.09459e-08
7.35782e-07
-1.92722e-09
7.96517e-07
-6.15448e-09
8.05688e-07
-1.70388e-08
6.99011e-07
-3.0014e-08
9.14933e-07
-3.08313e-08
1.12719e-06
-2.66913e-08
1.22083e-06
-4.09639e-08
-8.76206e-08
1.3275e-06
8.83761e-07
-1.15338e-07
-8.1871e-07
8.79154e-07
-8.21659e-08
9.08745e-07
-5.14118e-08
9.41705e-07
-4.83977e-08
9.92075e-07
-5.4117e-08
1.03165e-06
-5.77837e-08
1.05979e-06
-7.22706e-08
1.12499e-06
-9.57788e-08
1.1998e-06
-1.19835e-07
-1.77416e-07
1.28558e-06
1.02145e-06
-1.39342e-07
-9.96386e-07
9.64304e-07
-1.09538e-07
9.82471e-07
-7.8862e-08
9.89754e-07
-6.35635e-08
9.96901e-07
-6.88873e-08
1.01946e-06
-7.50627e-08
1.01467e-06
-9.83277e-08
1.0618e-06
-1.46966e-07
1.10491e-06
-1.67035e-07
-2.13732e-07
1.19036e-06
1.0455e-06
-1.51939e-07
-1.04058e-06
1.01974e-06
-8.50043e-08
9.94163e-07
-4.63583e-08
9.60001e-07
-2.82885e-08
9.11507e-07
-2.0207e-08
8.67741e-07
-3.11447e-08
8.38208e-07
-6.86443e-08
7.33825e-07
-4.24311e-08
5.98225e-07
-7.16755e-08
-1.40047e-07
6.18374e-07
6.84201e-07
-1.31095e-08
-5.9712e-07
7.87561e-07
-2.95897e-09
8.03242e-07
1.9794e-08
8.02619e-07
6.34571e-09
7.61375e-07
2.14653e-08
6.47811e-07
8.26093e-08
4.00237e-07
1.79081e-07
2.0857e-07
1.14615e-08
2.25223e-07
-1.6721e-07
-2.25718e-07
2.73221e-07
3.90099e-08
-1.58935e-08
-3.64323e-08
4.39274e-08
-8.16667e-09
7.5356e-08
-2.64883e-09
3.87525e-07
7.7124e-10
4.58582e-07
3.07639e-08
1.82615e-07
1.11986e-07
-1.15403e-07
2.01916e-07
-6.92601e-08
-4.36554e-08
9.49194e-08
-2.85701e-07
-2.70001e-07
1.8462e-07
-4.44097e-08
-1.51269e-08
4.28661e-08
-4.15083e-08
-1.12765e-08
-3.93789e-08
-5.55536e-09
-3.9911e-08
2.18464e-09
-4.79511e-08
1.2605e-08
-3.91921e-08
2.94754e-08
-1.65627e-08
2.96573e-08
-5.98622e-09
-8.94818e-08
4.87841e-08
-2.06081e-07
-4.04096e-08
3.08674e-08
-8.49152e-08
-1.37236e-08
8.21841e-08
-8.39809e-08
-1.2975e-08
-7.96748e-08
-1.12331e-08
-7.08958e-08
-9.17233e-09
-5.31025e-08
-9.24471e-09
-2.47861e-08
-3.93904e-09
-3.14846e-09
9.89997e-10
-2.51027e-10
-9.54013e-08
-8.26388e-09
-3.93671e-08
-2.64139e-08
-2.23962e-08
-2.75449e-07
-1.96533e-07
2.72216e-07
-1.59605e-07
-1.27134e-07
-1.07093e-07
-9.2792e-08
-9.31964e-08
-6.66739e-08
-7.93608e-08
-6.12349e-08
-2.98457e-08
-3.5135e-08
-7.72389e-09
-1.80277e-08
-1.70066e-08
-3.69081e-09
-2.63611e-08
-3.02373e-08
-2.16939e-08
-3.1114e-08
-6.2533e-07
-3.54958e-07
7.44227e-07
-4.95372e-07
-2.94878e-07
-4.06833e-07
-2.29799e-07
-3.89836e-07
-1.69221e-07
-2.7425e-07
-1.60437e-07
-7.11425e-08
-7.55538e-08
-3.71315e-08
-5.35728e-08
-1.23197e-08
-3.1746e-08
-1.32191e-08
-2.99017e-08
-2.33102e-08
-1.18269e-08
-8.89159e-07
-3.33635e-07
8.94407e-07
-8.61173e-07
-3.74326e-07
-7.4013e-07
-3.87477e-07
-6.08696e-07
-3.39546e-07
-3.97532e-07
-3.39629e-07
-1.64093e-07
-3.089e-07
-8.2045e-08
-2.91264e-07
-3.18448e-08
-2.69746e-07
-9.96334e-09
-1.60251e-07
-6.29774e-08
-1.53111e-09
-7.48468e-07
-3.79401e-07
8.33545e-07
-9.19316e-07
-3.58379e-07
-9.78252e-07
-4.00739e-07
-8.04466e-07
-5.1989e-07
-5.62873e-07
-5.85061e-07
-3.3435e-07
-5.89819e-07
-2.23433e-07
-5.62115e-07
-1.35946e-07
-5.15593e-07
-3.39738e-08
-4.24149e-07
-3.12589e-07
-1.71052e-09
-7.16443e-07
-3.46123e-07
7.4969e-07
-7.06414e-07
-3.5533e-07
-8.38688e-07
-4.05048e-07
-9.31567e-07
-5.58182e-07
-7.85571e-07
-7.35019e-07
-5.38567e-07
-8.41472e-07
-2.67209e-07
-8.37433e-07
-5.05374e-08
-7.30582e-07
7.36106e-08
-5.51689e-07
-2.8589e-07
4.67228e-08
-2.88732e-07
-4.05026e-07
3.59691e-07
-2.90065e-07
-4.08689e-07
-3.79876e-07
-3.95803e-07
-5.46582e-07
-4.93797e-07
-6.08934e-07
-6.77316e-07
-5.06722e-07
-9.47831e-07
-2.56627e-07
-1.08597e-06
-1.03762e-08
-8.57605e-07
1.51656e-07
-4.67945e-07
-2.35413e-07
1.18857e-07
-6.20772e-08
-1.3249e-07
5.03355e-08
-1.6207e-08
-4.81984e-07
2.21444e-08
-4.66267e-07
1.5073e-08
-4.70498e-07
-8.76212e-08
-5.59948e-07
-1.8591e-07
-8.53519e-07
-1.1397e-07
-1.19182e-06
1.0389e-08
-8.73866e-07
5.28862e-08
-1.66019e-07
-1.35993e-07
1.29929e-07
2.92836e-09
-6.38369e-08
5.7411e-09
6.32294e-08
-2.41906e-07
1.06389e-07
-4.38712e-07
1.27522e-07
-4.47104e-07
1.2206e-07
-5.44298e-07
5.5245e-08
-7.90594e-07
4.84356e-08
-1.18899e-06
3.5286e-08
-5.97698e-07
2.46795e-08
-1.06406e-07
-3.13375e-08
5.76983e-08
1.66249e-08
-6.53557e-08
-1.48915e-08
1.04317e-07
-1.14138e-07
1.77286e-07
-4.28611e-07
1.93371e-07
-5.21636e-07
2.00213e-07
-5.68733e-07
1.46794e-07
-7.41707e-07
8.66432e-08
-1.1334e-06
7.50231e-09
-4.81704e-07
1.53911e-08
-9.42552e-08
-1.33764e-08
7.35226e-09
3.1034e-08
-6.61118e-08
-3.00706e-08
1.27162e-07
-9.00607e-08
2.87473e-07
-4.70192e-07
2.89273e-07
-5.56434e-07
2.82744e-07
-5.76963e-07
2.50459e-07
-7.13114e-07
1.38627e-07
-1.0261e-06
1.22032e-08
-4.33113e-07
9.04246e-09
-9.34469e-08
-1.32895e-08
6.60304e-09
7.27135e-08
-8.15757e-08
-5.77555e-08
2.0508e-07
-2.16002e-07
3.31251e-07
-5.51392e-07
3.32875e-07
-5.60447e-07
3.274e-07
-5.74124e-07
3.3251e-07
-7.20972e-07
1.79872e-07
-8.83451e-07
2.69177e-08
-4.10335e-07
2.15135e-08
-9.11724e-08
-8.56692e-09
1.45968e-08
3.0063e-07
-3.29625e-07
-1.66285e-07
4.47858e-07
-4.74028e-07
4.16728e-07
-5.30025e-07
3.87492e-07
-5.33063e-07
3.86343e-07
-5.75459e-07
3.98008e-07
-7.35263e-07
1.50145e-07
-6.79949e-07
4.25489e-08
-4.6677e-07
3.23989e-08
-2.64299e-07
-4.69591e-09
2.5399e-08
6.40219e-07
-3.98967e-07
-7.24535e-07
5.66515e-07
-4.08215e-07
4.90054e-07
-4.54728e-07
4.25838e-07
-4.7034e-07
4.31622e-07
-5.83105e-07
3.40871e-07
-6.42571e-07
2.2711e-07
-6.04356e-07
2.64772e-07
-6.309e-07
1.08508e-07
-2.84983e-07
1.05864e-08
4.42269e-08
6.83532e-07
-3.36232e-07
-7.45734e-07
6.07655e-07
-3.32534e-07
4.94986e-07
-3.42853e-07
3.75543e-07
-3.52062e-07
4.27957e-07
-6.34914e-07
4.31153e-07
-6.91248e-07
3.78749e-07
-6.03949e-07
2.47904e-07
-4.56276e-07
5.57407e-09
-7.17526e-08
2.06982e-08
-9.63904e-09
6.03559e-07
-2.41627e-07
-6.97497e-07
4.97399e-07
-2.25841e-07
3.55731e-07
-2.01754e-07
2.08823e-07
-2.06601e-07
3.59556e-07
-8.61473e-07
3.72177e-07
-7.61425e-07
1.69539e-07
-4.53309e-07
-5.46971e-08
-1.51559e-07
-3.12786e-08
1.41159e-08
1.6572e-08
-2.83911e-08
3.4317e-07
-1.02762e-07
-4.86514e-07
2.02442e-07
-8.58606e-08
7.71138e-08
-6.57524e-08
7.53733e-08
-1.14523e-07
1.47172e-07
-1.00397e-06
2.37832e-07
-9.41601e-07
-6.84993e-08
-3.14785e-07
-1.47155e-07
-2.16838e-08
-2.95672e-08
2.47396e-08
9.72176e-09
-2.39337e-08
3.06467e-08
2.50947e-08
-1.62933e-07
-1.08406e-07
4.80766e-08
-7.30408e-08
1.31194e-08
1.15581e-08
-7.63668e-08
5.08306e-08
-1.02006e-06
2.8923e-08
-9.68127e-07
-2.1107e-07
-1.22493e-07
-2.05135e-07
-2.10202e-08
-1.58618e-07
1.29069e-08
1.75158e-08
-1.15516e-07
6.64604e-08
1.17253e-07
-1.88739e-07
-7.61195e-08
1.63718e-07
-5.82347e-08
1.04375e-07
-6.97792e-08
-8.99875e-08
-5.94772e-08
-1.03579e-06
-5.11195e-08
-1.0256e-06
-1.90016e-07
7.00583e-09
-2.86173e-07
8.16494e-08
-2.68845e-07
-9.07419e-09
-2.30523e-08
-2.34007e-07
9.57804e-08
1.10986e-07
-1.79019e-07
4.07856e-08
1.07325e-07
-5.11523e-08
1.92769e-07
-8.80975e-08
-8.09289e-08
-4.94437e-08
-1.07931e-06
-2.63988e-10
-1.06715e-06
3.57747e-08
-7.39578e-08
-1.37162e-08
9.84581e-09
-7.2818e-08
0
0
-1.10997e-07
1.38809e-08
4.7729e-09
-2.23812e-08
-3.19152e-08
5.37877e-09
0
1.87417e-08
-2.41197e-08
-1.07564e-07
-2.54397e-08
-1.08022e-06
-1.87868e-08
-1.06704e-06
4.49398e-09
-1.41219e-07
1.36702e-08
0
1.24839e-08
2.64997e-10
0
1.00701e-08
-4.69727e-09
4.72836e-09
1.99523e-09
-7.09385e-09
6.13708e-09
-6.70683e-10
3.71814e-09
1.75678e-08
-1.19365e-07
2.12694e-08
-1.07038e-06
3.42807e-08
-1.07639e-06
0
-1.16892e-07
8.56386e-11
-9.36491e-12
3.73211e-10
-9.35193e-12
0
3.23483e-10
-3.25864e-09
2.72189e-09
3.42375e-09
-7.57862e-10
2.80068e-09
6.83494e-10
1.54854e-09
2.43098e-09
-9.41469e-08
5.83074e-09
-1.06774e-06
1.77615e-09
-1.07288e-06
-2.9556e-11
-9.44274e-08
0
-1.19766e-11
4.54929e-11
-3.66057e-11
-9.61071e-12
3.97159e-11
-3.39122e-10
3.53962e-09
2.78529e-09
1.29046e-10
1.60243e-09
1.56783e-10
7.9257e-10
-1.27089e-09
-6.09172e-08
-6.79404e-09
-1.05948e-06
-5.56414e-09
-1.06467e-06
-1.00994e-12
-5.73749e-08
0
-1.41074e-11
1.6009e-11
-5.13843e-11
-1.72414e-11
3.29448e-12
4.01189e-09
3.76509e-09
-3.82003e-09
3.52361e-09
3.32155e-09
1.45623e-09
2.27509e-09
2.14572e-09
-3.38735e-08
-3.28834e-09
-1.02684e-06
-5.38744e-09
-1.03488e-06
-5.58268e-12
-3.06044e-08
-8.20621e-12
-1.34842e-11
-3.99729e-12
-5.35042e-11
-5.67425e-11
-1.89347e-11
4.2358e-09
4.86495e-09
-4.90924e-09
1.75585e-09
4.18538e-09
2.98769e-10
2.59839e-09
4.59212e-09
-1.72931e-08
1.34952e-10
-9.84897e-07
-3.76877e-09
-9.91189e-07
-6.51691e-12
-1.50338e-08
-8.26648e-12
-1.2039e-11
-2.59227e-11
-3.40775e-11
-6.69294e-11
-1.23705e-11
-2.60909e-10
5.60937e-09
-1.65088e-09
-7.7856e-10
3.41204e-09
5.40518e-10
2.35389e-09
5.05627e-09
-8.21853e-09
2.18083e-09
-9.4899e-07
-3.89672e-09
-9.51258e-07
-5.52218e-12
-9.12962e-09
-4.10248e-12
-1.09052e-11
-5.29126e-12
-1.45648e-11
-4.09077e-11
1.4553e-12
-1.29327e-09
8.26059e-09
4.78615e-12
-2.83575e-09
8.08091e-09
5.22001e-10
3.12597e-09
5.42342e-09
-4.62802e-09
1.31197e-09
-9.24483e-07
-4.11252e-09
-9.2229e-07
-2.84891e-12
-6.72818e-09
-1.41541e-12
-1.05795e-11
1.63191e-12
-5.86316e-12
-5.3098e-12
1.21165e-11
-3.40833e-09
8.68125e-09
3.05607e-09
-7.86995e-10
6.43242e-09
0
1.28016e-09
8.42489e-10
-2.89411e-09
-1.04688e-08
-9.05148e-07
-8.45239e-09
-9.04645e-07
-6.37839e-13
-7.12269e-09
-3.3824e-13
-1.09227e-11
9.72383e-13
-7.21076e-12
-6.71378e-12
2.31788e-12
-9.04273e-10
5.43358e-09
2.4524e-09
-2.1997e-10
9.45367e-10
3.6056e-11
1.718e-11
-1.2452e-09
-4.70663e-09
-1.32938e-08
-8.94661e-07
-1.05764e-08
-8.88573e-07
-8.24274e-13
-5.039e-09
-2.28287e-13
-1.14277e-11
7.2309e-13
-8.25334e-12
-8.26329e-12
2.15262e-12
-8.6414e-10
3.85905e-09
2.71284e-09
-3.36494e-11
6.00836e-11
-1.57837e-11
-6.78324e-13
8.31285e-09
-7.56223e-09
7.57958e-09
-9.02394e-07
-1.00875e-09
-9.02196e-07
-9.48078e-13
-5.40904e-09
-3.36e-13
-1.18272e-11
1.06505e-13
-8.78556e-12
-1.0869e-11
2.03896e-12
-9.12231e-10
3.07343e-09
2.09886e-09
-4.09557e-13
7.87585e-11
1.95774e-14
-1.10378e-12
4.88027e-09
-1.07753e-08
1.9013e-09
-9.27196e-07
-4.35038e-09
-9.29846e-07
-2.76442e-12
-1.0923e-08
-1.01807e-12
-1.3755e-11
-7.03558e-13
-9.33611e-12
-1.5776e-11
-3.16906e-11
-3.4258e-10
2.95931e-10
1.50208e-09
0
6.07363e-10
7.64305e-13
-1.87137e-12
4.68497e-09
-2.23659e-08
-9.83654e-10
-9.53222e-07
-5.33137e-09
-9.54136e-07
-1.20998e-11
-2.22722e-08
-4.93131e-12
-2.13372e-11
-2.12837e-13
-2.41859e-11
-8.89114e-12
-6.23685e-11
-4.32861e-10
6.81945e-11
6.46571e-10
0
6.17575e-11
6.26754e-13
-2.49445e-12
4.74583e-09
-3.99847e-08
-7.36779e-10
-9.69715e-07
-5.22848e-09
-9.70979e-07
-5.5112e-11
-3.91063e-08
-4.35423e-11
-3.38565e-11
-4.62509e-11
-2.57083e-10
-3.15817e-10
-9.98691e-11
-2.35462e-10
9.10914e-11
1.94757e-10
0
-7.16757e-11
2.26959e-12
-4.78444e-12
4.26358e-09
-5.74011e-08
-1.31093e-09
-9.7458e-07
-5.17019e-09
-9.72514e-07
-1.34295e-10
-5.74467e-08
-1.33409e-10
-3.89582e-11
-1.84391e-10
-3.34502e-10
-4.03863e-10
-9.74583e-11
2.17599e-12
5.86878e-11
1.18287e-11
0
2.11055e-11
7.41165e-12
-1.20333e-11
1.42282e-09
-7.08392e-08
-8.1354e-09
-9.65398e-07
-7.61146e-09
-9.63725e-07
-1.61718e-10
-7.13388e-08
-1.66483e-10
-4.296e-11
-1.64446e-10
-3.44427e-10
-4.37103e-10
-1.30823e-10
1.40905e-10
1.1235e-10
-1.0371e-10
8.21344e-11
1.49906e-10
8.22221e-11
-9.89492e-12
-9.77198e-09
-7.44817e-08
-1.93425e-08
-9.54721e-07
-1.41981e-08
-9.51818e-07
-1.55598e-10
-7.56795e-08
-1.32468e-10
-3.65385e-11
-1.69223e-10
-3.24865e-10
-3.86403e-10
-2.16542e-10
-1.53538e-10
4.75883e-11
1.31472e-10
0
2.21952e-11
2.17239e-11
-1.14758e-11
-3.55416e-09
-7.47138e-08
-1.82813e-08
-9.42191e-07
-1.2729e-08
-9.39651e-07
-1.90565e-10
-7.46787e-08
-1.35402e-10
-2.68492e-11
-2.15909e-10
-2.49955e-10
-2.86992e-10
-3.10298e-10
-1.88584e-11
1.531e-12
8.78144e-11
-1.01932e-13
-2.25408e-12
1.11345e-12
-1.40643e-11
-2.63327e-10
-7.69505e-08
-1.55987e-08
-9.2865e-07
-1.11388e-08
-9.22809e-07
-2.31686e-10
-6.72466e-08
-1.21522e-10
-7.95455e-12
-2.40898e-10
-1.32363e-10
-1.68389e-10
-3.56197e-10
-5.29323e-12
-1.24408e-12
3.88232e-11
4.59934e-13
-2.89023e-11
1.08443e-11
-5.18173e-11
1.02436e-09
-6.73671e-08
-7.71286e-09
-9.13825e-07
-8.09581e-09
-9.12458e-07
-5.98702e-11
-6.65572e-08
-7.10524e-11
-5.65626e-12
-1.9591e-10
1.3983e-11
-4.14529e-11
-3.17822e-10
-1.32606e-11
-2.71255e-11
5.12363e-12
4.72062e-12
-2.1137e-10
-5.68758e-11
-1.07423e-11
-1.2472e-08
-6.13369e-08
-2.79901e-08
-9.03892e-07
-2.25003e-08
-8.9621e-07
-5.01989e-11
-6.30896e-08
-5.30475e-11
-2.88231e-12
-1.43698e-10
1.46852e-10
1.2238e-10
-2.85992e-10
2.82227e-12
-1.77182e-10
5.38656e-12
2.88213e-11
-2.37571e-10
5.74669e-12
-1.3213e-11
1.49611e-08
-6.22245e-08
1.06816e-08
-8.85237e-07
-3.30439e-10
-8.90301e-07
-1.40113e-13
-6.31655e-08
0
-3.07341e-12
-7.67786e-11
2.135e-10
2.58869e-10
-2.00766e-10
3.60325e-11
-2.1457e-10
1.43272e-12
4.24999e-11
-2.44193e-10
2.77838e-11
-1.31785e-11
5.84785e-09
-7.25098e-08
-3.17772e-09
-8.82709e-07
-1.00301e-08
-8.82636e-07
-6.00332e-13
-7.18729e-08
0
-3.70518e-12
-1.00747e-10
1.95713e-10
3.39429e-10
-1.72884e-10
1.5815e-11
-2.36386e-10
6.0178e-12
2.01319e-11
-2.48413e-10
1.56255e-11
-1.44206e-11
8.48268e-09
-8.93303e-08
5.40014e-10
-8.83203e-07
-8.23601e-09
-8.83486e-07
-3.0579e-12
-8.89257e-08
-3.17582e-12
-3.60179e-12
-6.29396e-11
6.36424e-11
3.66708e-10
-8.07278e-11
1.23537e-11
-2.39666e-10
-8.9767e-12
7.35547e-12
-1.65108e-10
8.75865e-12
-1.63661e-11
8.70247e-09
-1.10247e-07
-4.77547e-10
-8.84112e-07
-8.91529e-09
-8.85795e-07
-3.30652e-13
-1.10252e-07
0
-3.94537e-12
1.07596e-11
9.83162e-12
2.09235e-10
-3.96361e-11
1.8496e-11
-2.30934e-10
-2.69425e-11
8.67304e-12
-1.13361e-10
1.21722e-11
-1.78446e-11
8.72709e-09
-1.32301e-07
1.28117e-10
-8.84389e-07
-9.04852e-09
-8.85267e-07
-2.96221e-13
-1.31831e-07
5.4089e-15
-4.2618e-12
6.10181e-12
3.72229e-12
1.43803e-10
-7.91411e-12
2.20828e-11
-2.11936e-10
-3.8731e-11
1.34867e-11
-8.31406e-11
1.25531e-11
-1.81948e-11
1.01985e-08
-1.51557e-07
1.2087e-09
-8.80264e-07
-8.77856e-09
-8.81058e-07
-5.08082e-13
-1.50541e-07
-2.95692e-13
-4.48711e-12
4.40345e-12
1.04959e-11
1.52481e-10
-2.27893e-11
2.05668e-11
-2.06909e-10
-2.06459e-11
1.34608e-11
-6.38311e-11
9.20266e-12
-1.82051e-11
8.96274e-09
-1.63263e-07
4.04959e-10
-8.72788e-07
-8.70733e-09
-8.73396e-07
-6.76083e-13
-1.62227e-07
-4.84419e-13
-4.68296e-12
9.92619e-12
9.08065e-12
1.27946e-10
-7.47383e-12
1.80154e-11
-1.4127e-10
-2.16874e-11
1.05369e-11
-4.92791e-11
7.56708e-12
-1.72728e-11
1.08262e-08
-1.69866e-07
9.262e-10
-8.60635e-07
-1.01741e-08
-8.60607e-07
-8.4481e-13
-1.68783e-07
-3.82247e-13
-5.14189e-12
6.1478e-12
5.93297e-12
2.19596e-11
7.63154e-11
1.11914e-11
-5.47528e-11
-6.43031e-12
8.49527e-12
-3.86201e-11
7.79274e-12
-1.65118e-11
1.07689e-08
-1.71185e-07
1.49062e-09
-8.46948e-07
-9.30072e-09
-8.46271e-07
-3.57148e-12
-1.70069e-07
-2.67266e-12
-6.02543e-12
1.42188e-11
-4.90043e-13
1.17205e-11
2.14656e-11
9.26492e-12
-2.58173e-11
-1.74711e-13
9.02023e-12
-2.58118e-11
8.44856e-12
-1.59159e-11
1.38623e-08
-1.73019e-07
1.97428e-09
-8.29853e-07
-1.15436e-08
-8.28436e-07
-8.78495e-12
-1.71626e-07
-6.8191e-12
-7.9112e-12
1.03358e-12
-4.45241e-12
6.92981e-12
3.05558e-12
6.65836e-12
-1.27601e-11
-2.28954e-13
1.04344e-11
-2.13976e-11
9.21687e-12
-1.47683e-11
1.19899e-08
-1.75124e-07
-6.28882e-11
-8.14081e-07
-1.25746e-08
-8.11736e-07
-2.13431e-11
-1.73879e-07
-2.12303e-11
-7.68492e-12
-1.69644e-11
-6.39298e-12
6.16142e-11
9.94891e-13
1.62288e-11
-1.01018e-11
-2.98315e-13
1.45414e-11
-1.98743e-11
1.31039e-11
-1.34574e-11
1.59391e-08
-1.85255e-07
-1.97062e-10
-7.95982e-07
-1.57593e-08
-7.94099e-07
-1.17582e-11
-1.83955e-07
-1.35761e-11
-6.06843e-12
-1.94925e-11
4.06359e-13
5.22624e-11
-1.30826e-11
2.20491e-11
2.59918e-12
-2.93781e-13
1.50473e-11
-1.10671e-11
1.33924e-11
-1.20156e-11
1.4627e-08
-2.00314e-07
-1.18626e-10
-7.81339e-07
-1.46786e-08
-7.79665e-07
-1.3325e-12
-1.99258e-07
-2.37563e-12
-5.80457e-12
-1.65313e-11
9.41093e-14
3.92148e-11
-6.36034e-12
1.09662e-11
2.79477e-11
-2.52455e-13
1.27994e-11
-4.31704e-12
1.15077e-11
-1.1133e-11
1.95422e-08
-2.24525e-07
2.08079e-11
-7.62881e-07
-1.85052e-08
-7.62492e-07
-6.00035e-13
-2.23058e-07
-6.73292e-13
-6.5152e-12
2.83123e-13
-1.64155e-12
4.2273e-12
3.31968e-13
1.36609e-11
5.31078e-11
-1.74774e-13
1.14835e-11
-4.45457e-13
1.00003e-11
-1.00593e-11
1.63445e-08
-2.46616e-07
-6.94821e-11
-7.47654e-07
-1.65966e-08
-7.47252e-07
-7.26582e-12
-2.45636e-07
-6.99544e-12
-7.56484e-12
0
-1.85033e-12
3.4225e-12
-8.84179e-13
1.99664e-11
5.33958e-11
-1.86397e-11
1.20241e-11
-4.08269e-13
1.05698e-11
-8.99315e-12
2.1906e-08
-2.74199e-07
-5.26004e-10
-7.26345e-07
-2.19652e-08
-7.26877e-07
-1.50633e-11
-2.73914e-07
-1.42087e-11
-9.14104e-12
-1.0801e-12
-8.20267e-12
1.82013e-12
-1.23459e-12
3.5771e-11
4.03092e-11
-2.11938e-11
2.43113e-11
2.87227e-12
2.30994e-11
-8.01487e-12
1.97266e-08
-2.99444e-07
-9.90937e-10
-7.06652e-07
-1.74546e-08
-7.11199e-07
-2.05125e-11
-2.99902e-07
-2.068e-11
-9.6266e-12
-1.45114e-11
-1.30244e-11
1.17326e-11
-6.27534e-13
5.3082e-11
2.20053e-11
-3.31204e-11
3.75642e-11
1.32897e-11
3.42745e-11
-4.7296e-12
2.6823e-08
-3.32496e-07
3.63613e-10
-6.8113e-07
-2.70584e-08
-6.84302e-07
-1.64106e-11
-3.35446e-07
-1.60789e-11
-1.05497e-11
-1.67913e-11
-1.56586e-11
2.93395e-12
-2.30127e-12
6.04933e-12
1.75231e-12
1.1186e-12
1.19947e-11
1.01014e-12
1.54996e-11
-8.58539e-12
2.03473e-08
-3.54116e-07
1.09499e-08
-6.72088e-07
-1.77555e-08
-6.55945e-07
-1.30516e-11
-3.5471e-07
-1.2088e-11
-1.21114e-11
-2.64303e-11
-5.61795e-12
2.70405e-12
-2.0509e-11
-2.96105e-13
-6.81962e-13
4.5663e-12
4.70037e-13
-2.70781e-14
6.58978e-11
-7.43623e-11
3.21741e-08
-3.78072e-07
-1.80795e-09
-6.38282e-07
-1.11091e-08
-6.4696e-07
-2.14334e-11
-3.58553e-07
-6.3719e-12
-2.77947e-11
-8.26445e-12
-2.95004e-12
1.78338e-14
-4.84415e-12
-2.03775e-16
-9.37825e-14
6.35777e-13
1.09448e-14
-3.91973e-14
5.03005e-10
-5.77357e-10
-1.85061e-08
-3.49174e-07
-4.03836e-08
-6.16412e-07
-7.28633e-08
-6.14355e-07
-1.47782e-10
-4.21251e-07
-1.15025e-11
-1.65005e-10
-3.69942e-12
-1.61721e-12
9.28457e-13
-6.48004e-13
2.21809e-14
-9.83192e-14
-1.89012e-14
4.97002e-14
-6.76697e-14
4.54596e-09
-5.12327e-09
5.66637e-08
-3.98512e-07
4.05727e-08
-6.00305e-07
6.01113e-09
-5.79775e-07
-1.21995e-09
-4.13515e-07
-7.09004e-12
-1.37585e-09
-2.99621e-12
-1.72163e-13
6.00569e-12
-3.54633e-13
2.58839e-13
-8.77152e-15
-1.92817e-12
2.94094e-13
-1.04181e-13
2.88867e-08
-3.40097e-08
1.06929e-07
-4.81565e-07
6.05404e-08
-5.539e-07
4.2582e-08
-5.61799e-07
1.23878e-09
-3.72024e-07
-6.11378e-13
-4.7441e-10
-2.13625e-12
-2.58603e-13
9.74837e-12
-1.19933e-12
5.88585e-14
-5.41537e-16
-6.80059e-14
1.18159e-12
-1.23652e-12
3.08833e-08
-6.49235e-08
2.94891e-08
-4.79064e-07
1.80691e-09
-5.26239e-07
-3.02021e-08
-5.29772e-07
-5.76507e-09
-3.94581e-07
-2.48243e-12
-6.23869e-09
-3.85233e-12
-5.52063e-13
3.86214e-12
-2.34281e-12
3.67171e-14
-3.11739e-16
-3.31244e-14
1.99798e-11
-2.11805e-11
5.6156e-08
-1.28237e-07
5.251e-08
-4.77628e-07
1.55626e-08
-4.89317e-07
-2.25214e-08
-4.91708e-07
-1.51876e-08
-3.95441e-07
-5.27603e-13
-1.69213e-08
-1.7358e-12
-1.00843e-12
1.40981e-12
-6.10884e-12
4.57912e-14
-4.61026e-14
-2.87398e-19
3.06374e-10
-3.27507e-10
5.09413e-08
-1.89129e-07
1.77351e-08
-4.46514e-07
-2.04324e-08
-4.51143e-07
-6.0298e-08
-4.51868e-07
-4.48973e-08
-4.05779e-07
-1.76132e-11
-5.92217e-08
-2.5722e-12
-1.77008e-11
6.43348e-13
-3.01899e-12
2.58414e-12
-2.63023e-12
-1.53446e-17
4.22256e-09
-4.54743e-09
7.20656e-08
-2.50635e-07
1.87423e-08
-3.93115e-07
-2.29766e-08
-4.09427e-07
-6.05831e-08
-4.14256e-07
-6.66288e-08
-4.02052e-07
-5.45742e-10
-1.28361e-07
-1.13691e-12
-5.63536e-10
3.06854e-13
-1.61858e-12
8.23019e-11
-8.49322e-11
-4.5193e-18
2.71546e-08
-3.16186e-08
8.11236e-08
-3.04127e-07
5.29e-08
-3.64893e-07
8.7779e-09
-3.65305e-07
-4.41698e-08
-3.6131e-07
-9.81892e-08
-3.48014e-07
-1.00685e-08
-2.16133e-07
-4.97024e-12
-1.06281e-08
-2.99961e-12
-2.47176e-12
2.77626e-09
-2.86119e-09
-4.00174e-18
7.90861e-08
-1.0349e-07
7.06937e-08
-2.93284e-07
1.64202e-08
-3.1062e-07
-3.42497e-08
-3.14635e-07
-8.04974e-08
-3.15062e-07
-1.16264e-07
-3.12251e-07
-5.10197e-08
-2.8616e-07
-6.21498e-10
-6.18759e-08
-6.17796e-10
-7.30981e-12
3.73148e-08
-4.0176e-08
-3.15364e-24
1.38529e-07
-2.06226e-07
1.03489e-07
-2.58246e-07
6.19042e-08
-2.69035e-07
1.47621e-08
-2.67493e-07
-3.75998e-08
-2.62701e-07
-9.59099e-08
-2.53941e-07
-1.3703e-07