/*--------------------------------*- C++ -*----------------------------------*\
  =========                 |
  \\      /  F ield         | OpenFOAM: The Open Source CFD Toolbox
   \\    /   O peration     | Website:  https://openfoam.org
    \\  /    A nd           | Version:  8
     \\/     M anipulation  |
\*---------------------------------------------------------------------------*/
FoamFile
{
    version     2.0;
    format      ascii;
    class       surfaceScalarField;
    location    "4";
    object      phi;
}
// * * * * * * * * * * * * * * * * * * * * * * * * * * * * * * * * * * * * * //

dimensions      [0 3 -1 0 0 0 0];

internalField   nonuniform List<scalar> 
18095
(
1.97337e-08
-1.72083e-07
1.52349e-07
2.31625e-08
-1.97992e-07
1.94563e-07
1.98796e-08
-2.05947e-07
2.0923e-07
1.0794e-08
-2.10666e-07
2.19752e-07
-1.24305e-10
-2.13471e-07
2.24389e-07
-1.10527e-08
-2.13262e-07
2.2419e-07
-1.99389e-08
-2.10608e-07
2.19494e-07
-2.31906e-08
-2.05914e-07
2.09166e-07
-1.97488e-08
-1.97991e-07
1.94549e-07
-1.72065e-07
1.52316e-07
1.54871e-08
-1.8757e-07
1.58073e-08
-1.98312e-07
1.19735e-08
-2.02113e-07
6.28384e-09
-2.04977e-07
-3.64745e-10
-2.06822e-07
-6.56812e-09
-2.07058e-07
-1.20041e-08
-2.05172e-07
-1.58103e-08
-2.02108e-07
-1.55016e-08
-1.983e-07
-1.87567e-07
6.81306e-09
-1.94383e-07
8.28803e-09
-1.99787e-07
7.2019e-09
-2.01027e-07
4.41901e-09
-2.02194e-07
3.96775e-10
-2.028e-07
-3.90578e-09
-2.02756e-07
-7.23327e-09
-2.01845e-07
-8.33105e-09
-2.0101e-07
-6.821e-09
-1.9981e-07
-1.94388e-07
4.53478e-09
-1.98918e-07
4.67785e-09
-1.9993e-07
3.55524e-09
-1.99905e-07
1.79892e-09
-2.00437e-07
-2.4651e-10
-2.00755e-07
-2.17173e-09
-2.00831e-07
-3.65636e-09
-2.0036e-07
-4.6858e-09
-1.99981e-07
-4.53429e-09
-1.99961e-07
-1.98922e-07
1.082e-09
1.15158e-09
1.24685e-09
8.09356e-10
5.4739e-11
-7.75886e-10
-1.13583e-09
-1.11663e-09
-1.07805e-09
-2.76892e-08
-1.96735e-07
2.24425e-07
-3.03477e-08
-1.99075e-07
2.01734e-07
-2.56136e-08
-2.01452e-07
1.96718e-07
-1.52277e-08
-2.01215e-07
1.90829e-07
-1.63324e-09
-2.018e-07
1.88205e-07
1.26766e-08
-2.01986e-07
1.87676e-07
2.43305e-08
-2.01556e-07
1.89902e-07
2.96384e-08
-2.01253e-07
1.95945e-07
2.70061e-08
-1.98653e-07
2.01285e-07
-1.96275e-07
2.23281e-07
-9.89594e-09
-1.8684e-07
-1.56603e-08
-1.93311e-07
-1.4523e-08
-2.02589e-07
-7.6272e-09
-2.08111e-07
-9.95383e-10
-2.08431e-07
5.95941e-09
-2.08941e-07
1.34375e-08
-2.09034e-07
1.50918e-08
-2.02907e-07
9.63849e-09
-1.93199e-07
-1.86637e-07
-1.0584e-08
-1.76256e-07
-8.23749e-09
-1.95657e-07
-5.45911e-09
-2.05367e-07
-3.1605e-09
-2.1041e-07
1.22367e-09
-2.12816e-07
5.11638e-09
-2.12834e-07
6.09129e-09
-2.10008e-07
8.1316e-09
-2.04948e-07
1.04665e-08
-1.95534e-07
-1.7617e-07
-6.62994e-09
-1.69626e-07
-8.99093e-09
-1.93296e-07
-9.00199e-09
-2.05356e-07
-4.07761e-09
-2.15334e-07
9.00455e-11
-2.16983e-07
3.90372e-09
-2.16647e-07
8.62029e-09
-2.14725e-07
8.83574e-09
-2.05163e-07
6.57378e-09
-1.93272e-07
-1.69597e-07
-1.72763e-08
-1.60093e-08
-1.21354e-08
-7.71741e-09
-3.11542e-10
7.23114e-09
1.20004e-08
1.60031e-08
1.72803e-08
2.65818e-08
-1.61863e-07
1.35281e-07
3.23939e-08
-2.0171e-07
1.95898e-07
2.65532e-08
-2.12215e-07
2.18056e-07
1.34478e-08
-2.16114e-07
2.2922e-07
-2.95163e-09
-2.17574e-07
2.33974e-07
-1.93624e-08
-2.16961e-07
2.33372e-07
-3.3241e-08
-2.15418e-07
2.29296e-07
-4.21591e-08
-2.0885e-07
2.17768e-07
-3.78735e-08
-1.95549e-07
1.91263e-07
-1.53745e-07
1.15872e-07
1.40081e-08
-1.75871e-07
1.58428e-08
-2.03544e-07
1.23952e-08
-2.08768e-07
5.94807e-09
-2.09667e-07
-2.97498e-09
-2.08651e-07
-1.22608e-08
-2.07676e-07
-1.98462e-08
-2.07832e-07
-2.29677e-08
-2.05729e-07
-1.88274e-08
-1.99689e-07
-1.72573e-07
9.22281e-09
-1.85094e-07
7.77949e-09
-2.02101e-07
5.54629e-09
-2.06534e-07
-1.34785e-10
-2.03986e-07
-3.94545e-09
-2.04841e-07
-7.24574e-09
-2.04375e-07
-1.00982e-08
-2.0498e-07
-1.09923e-08
-2.04834e-07
-1.05273e-08
-2.00154e-07
-1.831e-07
7.02724e-09
-1.92121e-07
5.18407e-09
-2.00258e-07
5.83449e-09
-2.07185e-07
2.16129e-09
-2.00313e-07
5.97577e-10
-2.03277e-07
-1.33005e-09
-2.02448e-07
-7.21046e-09
-1.99099e-07
-6.7993e-09
-2.05246e-07
-7.73003e-09
-1.99223e-07
-1.9083e-07
3.23036e-08
3.37794e-08
2.33122e-08
1.38285e-08
-1.24325e-09
-1.60145e-08
-2.52124e-08
-3.45128e-08
-3.24513e-08
-2.13228e-07
-1.16203e-08
2.24849e-07
-2.10654e-07
-2.57377e-09
-2.15393e-07
4.73865e-09
-2.26823e-07
1.14298e-08
-2.41698e-07
1.48747e-08
-2.5471e-07
1.30124e-08
-2.61645e-07
6.93467e-09
-2.6471e-07
3.06507e-09
-2.71362e-07
6.65196e-09
1.18108e-08
-2.83172e-07
-3.13076e-07
-1.04933e-08
3.11949e-07
-3.17513e-07
1.86266e-09
-3.27323e-07
1.45493e-08
-3.4327e-07
2.73767e-08
-3.67393e-07
3.89976e-08
-3.97073e-07
4.26922e-08
-4.20762e-07
3.06243e-08
-4.38133e-07
2.04355e-08
-4.64675e-07
3.31939e-08
3.5211e-08
-4.88075e-07
-4.40766e-07
-9.34259e-09
4.39616e-07
-4.45383e-07
6.47858e-09
-4.5474e-07
2.39067e-08
-4.69345e-07
4.19814e-08
-4.89608e-07
5.92611e-08
-5.03892e-07
5.69767e-08
-5.19141e-07
4.58729e-08
-5.35198e-07
3.6493e-08
-5.31682e-07
2.96769e-08
2.08128e-08
-5.17284e-07
-5.42311e-07
-7.18762e-09
5.40156e-07
-5.45888e-07
1.0055e-08
-5.46983e-07
2.50016e-08
-5.44451e-07
3.94494e-08
-5.295e-07
4.43101e-08
-5.21828e-07
4.93054e-08
-5.12813e-07
3.68572e-08
-5.0097e-07
2.46506e-08
-4.9094e-07
1.96464e-08
6.65941e-09
-4.76787e-07
-5.78551e-07
-7.3795e-09
5.78743e-07
-5.79642e-07
1.11456e-08
-5.85669e-07
3.10286e-08
-5.88532e-07
4.23128e-08
-5.90676e-07
4.64542e-08
-5.8659e-07
4.52188e-08
-5.84978e-07
3.52449e-08
-5.8474e-07
2.4413e-08
-5.81304e-07
1.62101e-08
1.14609e-10
-5.7476e-07
-5.65889e-07
-1.81927e-08
5.76702e-07
-5.56115e-07
1.37163e-09
-5.49898e-07
2.48116e-08
-5.45466e-07
3.78812e-08
-5.42359e-07
4.33478e-08
-5.44748e-07
4.76073e-08
-5.54896e-07
4.53929e-08
-5.70019e-07
3.95352e-08
-5.82429e-07
2.86208e-08
1.48292e-08
-5.97144e-07
-5.32698e-07
-2.81084e-08
5.42614e-07
-5.20849e-07
-1.04771e-08
-5.0858e-07
1.25424e-08
-4.97287e-07
2.65882e-08
-4.88008e-07
3.40685e-08
-4.80369e-07
3.99687e-08
-4.81891e-07
4.69141e-08
-4.9384e-07
5.14848e-08
-5.16703e-07
5.14831e-08
4.69679e-08
-5.48841e-07
-4.70302e-07
-1.78871e-08
4.60081e-07
-4.7339e-07
-7.38871e-09
-4.73851e-07
1.30034e-08
-4.75083e-07
2.78202e-08
-4.73445e-07
3.24301e-08
-4.69422e-07
3.59463e-08
-4.64861e-07
4.2353e-08
-4.61022e-07
4.76464e-08
-4.59334e-07
4.97944e-08
4.99615e-08
-4.62327e-07
-3.71292e-07
2.34484e-08
3.29956e-07
-3.94601e-07
1.59205e-08
-4.10519e-07
2.89218e-08
-4.33196e-07
5.04965e-08
-4.59621e-07
5.88554e-08
-4.79171e-07
5.54966e-08
-4.89345e-07
5.25277e-08
-4.89934e-07
4.82353e-08
-4.84686e-07
4.45462e-08
4.4571e-08
-4.79295e-07
-2.63267e-07
1.00335e-07
1.8638e-07
-3.13035e-07
6.56892e-08
-3.51307e-07
6.71933e-08
-3.86129e-07
8.53185e-08
-4.30771e-07
1.03498e-07
-4.86184e-07
1.1091e-07
-5.29987e-07
9.63307e-08
-5.46774e-07
6.5023e-08
-5.57914e-07
5.56854e-08
5.41288e-08
-5.67471e-07
-2.06384e-07
1.73523e-07
1.33197e-07
-2.47183e-07
1.06488e-07
-2.80793e-07
1.00802e-07
-3.07237e-07
1.11763e-07
-3.37982e-07
1.34243e-07
-3.88402e-07
1.61331e-07
-4.59704e-07
1.67633e-07
-5.07224e-07
1.12543e-07
-5.26318e-07
7.47788e-08
7.44902e-08
-5.46679e-07
-1.40594e-07
2.30119e-07
8.39972e-08
-1.603e-07
1.26195e-07
-1.70746e-07
1.11248e-07
-1.76782e-07
1.178e-07
-1.89735e-07
1.47196e-07
-2.30006e-07
2.01602e-07
-2.8206e-07
2.19686e-07
-3.43906e-07
1.74389e-07
-4.04275e-07
1.35147e-07
1.21117e-07
-4.50902e-07
-1.10016e-07
2.94108e-07
4.60273e-08
-1.29128e-07
1.45307e-07
-1.33002e-07
1.15123e-07
-1.28766e-07
1.13564e-07
-1.17331e-07
1.35761e-07
-1.1954e-07
2.03811e-07
-1.257e-07
2.25847e-07
-1.71605e-07
2.20294e-07
-2.21193e-07
1.84735e-07
1.35942e-07
-2.36018e-07
-4.17691e-09
3.83706e-07
-8.54212e-08
-8.37149e-08
2.24845e-07
-1.14412e-07
1.4582e-07
-1.23502e-07
1.22654e-07
-1.12046e-07
1.24305e-07
-7.33715e-08
1.65137e-07
-3.60218e-08
1.88497e-07
-3.8832e-08
2.23104e-07
-4.80991e-08
1.94002e-07
1.40904e-07
-5.30613e-08
2.2777e-07
4.1467e-07
-2.58734e-07
1.25925e-07
3.2669e-07
4.01746e-08
2.3157e-07
4.91613e-09
1.57912e-07
1.19004e-09
1.28031e-07
3.92971e-08
1.2703e-07
8.9089e-08
1.38705e-07
1.63412e-07
1.48781e-07
2.13605e-07
1.43808e-07
1.19283e-07
2.35227e-07
4.29204e-07
3.86383e-07
-4.00917e-07
3.96496e-07
3.59398e-07
3.16875e-07
3.11191e-07
2.51201e-07
2.23586e-07
2.15562e-07
1.63671e-07
2.09402e-07
1.33189e-07
2.29837e-07
1.1827e-07
2.74724e-07
1.03894e-07
3.31505e-07
8.70269e-08
6.0807e-08
3.89981e-07
5.10977e-07
3.5925e-07
-4.83844e-07
5.15388e-07
3.54988e-07
4.92573e-07
3.34005e-07
4.41734e-07
2.74425e-07
4.19502e-07
1.85903e-07
4.20019e-07
1.32672e-07
4.3591e-07
1.02379e-07
4.65624e-07
7.41803e-08
5.10344e-07
4.23074e-08
9.85554e-09
5.61295e-07
5.72463e-07
3.25915e-07
-5.39127e-07
5.9106e-07
3.36392e-07
5.93117e-07
3.31948e-07
5.77801e-07
2.89742e-07
5.65165e-07
1.98538e-07
5.44991e-07
1.52847e-07
5.21672e-07
1.25697e-07
5.29977e-07
6.58749e-08
5.72133e-07
1.50859e-10
-6.50186e-09
5.88491e-07
6.35703e-07
2.06677e-07
-5.16466e-07
7.17295e-07
2.548e-07
7.66789e-07
2.82455e-07
7.83634e-07
2.72897e-07
7.8932e-07
1.92852e-07
7.83349e-07
1.58817e-07
7.60139e-07
1.48908e-07
7.24445e-07
1.01568e-07
6.84927e-07
3.96693e-08
7.99207e-09
6.70433e-07
6.06184e-07
8.04949e-08
-4.80002e-07
7.12889e-07
1.48095e-07
8.12883e-07
1.8246e-07
8.99015e-07
1.86764e-07
9.45626e-07
1.4624e-07
9.93372e-07
1.11072e-07
1.03605e-06
1.06225e-07
1.03225e-06
1.05377e-07
9.80563e-07
9.13517e-08
5.71528e-08
9.31402e-07
4.90095e-07
9.92605e-10
-4.10593e-07
5.99116e-07
3.90742e-08
7.17775e-07
6.38e-08
8.27584e-07
7.6956e-08
9.21273e-07
5.25511e-08
1.00266e-06
2.96855e-08
1.08009e-06
2.87955e-08
1.13555e-06
4.99187e-08
1.17471e-06
5.2186e-08
2.42394e-08
1.20763e-06
6.33097e-07
-5.40659e-08
-5.78039e-07
6.97696e-07
-2.55249e-08
7.65247e-07
-3.75047e-09
8.47755e-07
-5.55184e-09
9.18157e-07
-1.78517e-08
9.80637e-07
-3.27946e-08
1.05057e-06
-4.11381e-08
1.13796e-06
-3.74665e-08
1.23607e-06
-4.59293e-08
-8.93826e-08
1.34969e-06
8.94116e-07
-1.19338e-07
-8.28844e-07
9.58318e-07
-8.97276e-08
1.01343e-06
-5.88657e-08
1.06128e-06
-5.34003e-08
1.10286e-06
-5.94321e-08
1.14149e-06
-7.14237e-08
1.18991e-06
-8.95576e-08
1.26343e-06
-1.10984e-07
1.34818e-06
-1.30683e-07
-1.77029e-07
1.43583e-06
1.06258e-06
-1.42662e-07
-1.03926e-06
1.08427e-06
-1.11412e-07
1.10645e-06
-8.10454e-08
1.11825e-06
-6.52053e-08
1.12798e-06
-6.91607e-08
1.13196e-06
-7.54063e-08
1.1395e-06
-9.71001e-08
1.17323e-06
-1.44715e-07
1.21073e-06
-1.68181e-07
-2.09792e-07
1.2435e-06
1.08319e-06
-1.52203e-07
-1.07365e-06
1.07285e-06
-1.01078e-07
1.03811e-06
-4.63056e-08
9.99302e-07
-2.63934e-08
9.48003e-07
-1.78609e-08
9.0154e-07
-2.89433e-08
8.71916e-07
-6.74764e-08
7.90225e-07
-6.3023e-08
7.48309e-07
-1.26266e-07
-2.35348e-07
7.73865e-07
1.01412e-06
-1.79762e-07
-9.86556e-07
9.67117e-07
-5.40792e-08
8.78065e-07
4.27472e-08
8.30283e-07
2.13885e-08
7.78891e-07
3.35302e-08
6.68913e-07
8.10353e-08
4.33203e-07
1.68233e-07
3.46746e-07
2.34339e-08
4.2836e-07
-2.0788e-07
-2.82526e-07
4.75539e-07
5.43901e-07
-2.43632e-07
-4.8003e-07
6.1973e-07
-1.29905e-07
6.87937e-07
-2.54613e-08
6.70587e-07
3.87376e-08
5.57223e-07
1.46894e-07
2.55838e-07
3.8242e-07
-1.83953e-07
6.08025e-07
-8.94941e-08
-7.10253e-08
1.17379e-07
-4.14753e-07
-4.17127e-07
2.5198e-07
-7.10255e-07
-2.07495e-07
6.74119e-07
-6.65871e-07
-1.74288e-07
-5.79581e-07
-1.11751e-07
-5.60345e-07
1.95011e-08
-5.45085e-07
1.31634e-07
-4.74292e-07
3.11626e-07
-2.66003e-07
3.99736e-07
-2.05904e-08
-3.16438e-07
6.84939e-08
-5.03837e-07
-4.27603e-07
7.89703e-08
-1.19109e-06
-1.38007e-07
1.1216e-06
-1.22447e-06
-1.40917e-07
-1.18699e-06
-1.49224e-07
-1.05049e-06
-1.16998e-07
-8.17531e-07
-1.01331e-07
-4.50377e-07
-5.55287e-08
-6.03872e-08
9.74559e-09
-2.77288e-08
-3.49097e-07
-1.20462e-07
-4.11104e-07
-2.78984e-07
-2.69082e-07
-7.99917e-07
-2.35324e-07
8.97234e-07
-7.56785e-07
-1.84049e-07
-7.24031e-07
-1.81978e-07
-6.60154e-07
-1.80876e-07
-5.67247e-07
-1.94238e-07
-3.58706e-07
-2.6407e-07
-8.31999e-08
-2.65762e-07
-1.81102e-07
-2.51196e-07
-2.82446e-07
-3.0976e-07
-2.31551e-07
-3.29879e-07
-7.14616e-07
-4.07511e-07
8.86803e-07
-5.62111e-07
-3.36555e-07
-4.92624e-07
-2.51465e-07
-4.67621e-07
-2.05879e-07
-4.32897e-07
-2.28962e-07
-3.90908e-07
-3.06059e-07
-2.48046e-07
-4.08625e-07
-1.20802e-07
-3.7844e-07
-1.22732e-07
-3.07829e-07
-2.46731e-07
-1.07554e-07
-1.07351e-06
-4.76438e-07
1.14244e-06
-9.51923e-07
-4.58142e-07
-7.95041e-07
-4.08346e-07
-6.28592e-07
-3.72328e-07
-4.70671e-07
-3.86883e-07
-3.44299e-07
-4.3243e-07
-2.27466e-07
-5.25458e-07
-1.1425e-07
-4.91657e-07
-5.15529e-08
-3.70525e-07
-2.93715e-07
-4.56949e-09
-1.17869e-06
-5.03469e-07
1.20573e-06
-1.14028e-06
-4.96554e-07
-1.0344e-06
-5.14226e-07
-8.43265e-07
-5.63467e-07
-6.02133e-07
-6.28015e-07
-3.78174e-07
-6.5639e-07
-2.46432e-07
-6.572e-07
-1.36891e-07
-6.01198e-07
-2.46348e-08
-4.82781e-07
-3.25761e-07
7.41087e-09
-1.02146e-06
-4.85609e-07
1.0036e-06
-1.0199e-06
-4.98112e-07
-9.98357e-07
-5.35767e-07
-9.45403e-07
-6.16421e-07
-8.06631e-07
-7.66788e-07
-5.605e-07
-9.0252e-07
-2.8127e-07
-9.3643e-07
-4.16965e-08
-8.40772e-07
9.58842e-08
-6.20362e-07
-2.915e-07
6.16231e-08
-4.22439e-07
-5.53142e-07
4.89972e-07
-4.09589e-07
-5.10961e-07
-4.32739e-07
-5.12618e-07
-5.07771e-07
-5.41388e-07
-5.79698e-07
-6.94861e-07
-5.07889e-07
-9.74329e-07
-2.73799e-07
-1.17052e-06
-1.09107e-08
-1.10366e-06
1.58695e-07
-7.89967e-07
-2.50121e-07
1.17315e-07
-8.61373e-08
-6.34852e-07
1.67848e-07
-8.63567e-09
-5.88463e-07
4.30951e-08
-5.64349e-07
4.40455e-08
-5.42339e-07
-5.21436e-08
-5.98672e-07
-1.60547e-07
-8.65925e-07
-1.01888e-07
-1.22918e-06
1.55925e-08
-1.22114e-06
9.73029e-08
-8.71677e-07
-2.66317e-07
1.13499e-07
1.07265e-08
-6.99418e-07
5.38396e-08
6.92363e-08
-6.46972e-07
1.13665e-07
-6.08778e-07
1.39348e-07
-5.68021e-07
1.31677e-07
-5.91001e-07
6.35758e-08
-7.97823e-07
4.71263e-08
-1.21273e-06
7.15878e-08
-1.2456e-06
1.20295e-07
-9.20384e-07
-2.17643e-07
7.16198e-08
1.75631e-07
-7.05678e-07
-1.69373e-07
1.88032e-07
-6.59371e-07
1.8612e-07
-6.06866e-07
2.00754e-07
-5.82656e-07
2.08352e-07
-5.98599e-07
1.57791e-07
-7.47262e-07
9.62214e-08
-1.15116e-06
5.34608e-08
-1.20284e-06
7.6174e-08
-9.43096e-07
-1.55303e-07
1.3837e-08
2.72285e-07
-6.51363e-07
-3.26603e-07
2.83167e-07
-6.70247e-07
2.87568e-07
-6.11268e-07
2.89702e-07
-5.84789e-07
2.89052e-07
-5.97949e-07
2.63353e-07
-7.21565e-07
1.93239e-07
-1.08105e-06
1.13617e-07
-1.12322e-06
5.11928e-08
-8.80673e-07
-1.59027e-07
5.49168e-08
4.09339e-07
-5.5628e-07
-5.04422e-07
3.59826e-07
-6.20732e-07
3.43443e-07
-5.94885e-07
3.38961e-07
-5.80307e-07
3.359e-07
-5.94888e-07
3.55326e-07
-7.40991e-07
3.37743e-07
-1.06346e-06
3.04774e-07
-1.09025e-06
1.96915e-07
-7.72812e-07
-9.09899e-08
1.2888e-07
5.87948e-07
-4.86392e-07
-6.57837e-07
4.83612e-07
-5.16396e-07
4.32273e-07
-5.43546e-07
3.99473e-07
-5.47507e-07
3.9951e-07
-5.94925e-07
4.84643e-07
-8.26124e-07
4.88189e-07
-1.06701e-06
4.04966e-07
-1.00703e-06
2.65031e-07
-6.32877e-07
-3.5629e-08
2.0967e-07
6.88805e-07
-4.14439e-07
-7.60758e-07
5.88323e-07
-4.15915e-07
5.06874e-07
-4.62097e-07
4.37669e-07
-4.78303e-07
4.63535e-07
-6.20789e-07
6.48434e-07
-1.01102e-06
6.7281e-07
-1.09138e-06
6.1097e-07
-9.45188e-07
5.31143e-07
-5.53048e-07
8.73411e-08
4.08173e-07
6.8794e-07
-3.49397e-07
-7.52981e-07
6.148e-07
-3.42774e-07
5.0072e-07
-3.48017e-07
3.78016e-07
-3.556e-07
5.72332e-07
-8.15105e-07
7.36104e-07
-1.1748e-06
6.962e-07
-1.05148e-06
3.7872e-07
-6.27709e-07
2.74169e-08
-2.01744e-07
2.23367e-07
-1.0861e-07
6.06651e-07
-2.50765e-07
-7.05284e-07
4.97547e-07
-2.33669e-07
3.54682e-07
-2.05152e-07
2.21135e-07
-2.22053e-07
5.27658e-07
-1.12163e-06
6.40755e-07
-1.28789e-06
3.5329e-07
-7.64015e-07
-9.82495e-08
-1.7617e-07
-3.52602e-07
5.26083e-08
1.82814e-07
-3.12047e-07
3.52305e-07
-1.11776e-07
-4.91293e-07
2.07526e-07
-8.88907e-08
7.20188e-08
-6.96449e-08
1.10439e-07
-2.60474e-07
2.73283e-07
-1.28447e-06
3.00405e-07
-1.31501e-06
-8.34674e-08
-3.80143e-07
-2.36356e-07
-2.32803e-08
-2.45128e-07
6.13794e-08
6.84091e-08
-1.30724e-07
3.09506e-08
2.97826e-08
-1.7251e-07
-1.16811e-07
5.88702e-08
-2.10809e-07
2.43536e-08
2.59078e-08
-4.9719e-07
4.70734e-08
-1.30564e-06
2.31786e-08
-1.29112e-06
-2.32897e-07
-1.24067e-07
-2.34369e-07
-2.18086e-08
-1.87758e-07
1.47685e-08
2.03528e-08
-1.39702e-07
7.45547e-08
1.45056e-07
-1.89828e-07
-9.87251e-08
2.3215e-07
-3.14394e-07
2.40023e-07
-1.05057e-07
-7.06528e-07
-8.59523e-08
-1.32475e-06
-7.65674e-08
-1.3005e-06
-1.97656e-07
-2.97885e-09
-3.21457e-07
1.01992e-07
-2.96476e-07
-1.02126e-08
-2.55827e-08
-2.50541e-07
1.26838e-07
2.55919e-07
-2.37702e-07
7.8983e-08
2.80005e-07
-1.67182e-07
4.86188e-07
-1.33279e-07
-7.40432e-07
-7.1538e-08
-1.38649e-06
5.12187e-09
-1.37716e-06
5.03524e-07
-5.0138e-07
-2.89209e-08
6.34436e-07
-3.2959e-07
2.90456e-07
6.35343e-08
-4.18706e-07
8.37189e-08
3.7504e-07
-2.0284e-07
-1.00455e-07
4.64179e-07
-3.69627e-07
7.5536e-07
-3.07353e-08
-1.07932e-06
-2.08486e-08
-1.39637e-06
-2.80441e-08
-1.36997e-06
8.52862e-07
-1.38228e-06
1.32589e-06
1.61408e-07
1.40054e-06
2.15802e-07
2.74117e-07
1.18996e-06
-2.73841e-07
5.04661e-07
1.44218e-07
-4.54614e-07
6.44949e-07
-1.8525e-07
4.85986e-07
5.38756e-08
-1.31845e-06
3.70544e-08
-1.37955e-06
5.07351e-08
-1.38365e-06
5.59896e-08
-1.38754e-06
6.05457e-07
-3.88058e-07
8.35369e-07
-1.4109e-08
2.79437e-08
1.08154e-06
-4.35974e-07
4.48634e-07
4.92002e-07
-2.29807e-07
4.38793e-07
4.97907e-08
2.06392e-07
4.05365e-08
-1.3092e-06
3.39395e-08
-1.37296e-06
3.35126e-08
-1.38322e-06
9.2288e-09
-1.36325e-06
3.99584e-07
-7.78415e-07
6.80483e-07
-2.95008e-07
-1.30742e-07
8.39171e-07
-1.03627e-07
3.42531e-07
2.09727e-07
1.81736e-09
3.33342e-07
4.58289e-08
1.62381e-07
-1.93583e-09
-1.26143e-06
-6.08812e-09
-1.3688e-06
-1.82744e-08
-1.37104e-06
-2.61743e-08
-1.35535e-06
8.6738e-08
-8.91329e-07
1.5998e-07
-3.68258e-07
-1.90754e-07
2.1999e-07
3.42358e-07
2.74673e-07
-2.745e-07
2.76596e-07
3.99101e-07
6.34804e-08
3.75493e-07
7.75577e-09
-1.20571e-06
-4.43969e-09
-1.35661e-06
-1.98168e-08
-1.35566e-06
-3.30032e-08
-1.34216e-06
-4.92414e-08
-8.75094e-07
-5.49414e-08
-3.6256e-07
-1.89162e-07
-5.65315e-08
3.21076e-07
3.26293e-07
-3.72696e-07
1.87807e-07
5.32373e-07
6.15191e-08
5.01783e-07
1.67955e-08
-1.16098e-06
-1.07632e-09
-1.33874e-06
-1.62597e-08
-1.34047e-06
-3.76902e-08
-1.32073e-06
-8.1008e-08
-8.31779e-07
-9.05266e-08
-3.53039e-07
-2.31393e-07
-4.82923e-08
-1.19043e-08
5.36107e-07
-1.97911e-07
-1.03627e-07
6.2409e-07
3.32237e-08
3.64929e-07
1.99727e-08
-1.14773e-06
2.00573e-09
-1.32077e-06
-1.65474e-08
-1.32192e-06
-4.3699e-08
-1.29358e-06
-6.55192e-08
-8.0996e-07
-5.11773e-08
-3.67376e-07
-2.86902e-07
4.3294e-09
-2.0644e-07
5.92005e-07
1.50543e-07
-1.39167e-07
5.56818e-07
1.67691e-08
2.08993e-07
2.12932e-08
-1.15226e-06
6.04218e-11
-1.29954e-06
-1.91793e-08
-1.30268e-06
-4.29343e-08
-1.26982e-06
-3.66231e-08
-8.16269e-07
4.18427e-08
-4.45845e-07
-3.50728e-07
1.05667e-07
-2.18094e-07
4.75582e-07
3.34517e-07
-5.47004e-08
3.93422e-07
-3.47326e-08
1.89024e-07
7.99456e-09
-1.19499e-06
-1.24327e-08
-1.27911e-06
-3.13579e-08
-1.28375e-06
-4.43832e-08
-1.2568e-06
-2.1109e-08
-8.39546e-07
7.80015e-08
-5.44955e-07
-4.39587e-07
1.66866e-07
-1.10521e-07
3.73201e-07
2.12901e-07
-6.53713e-08
3.48274e-07
-7.57081e-10
1.24411e-07
-1.75867e-08
-1.17816e-06
-2.94825e-08
-1.26721e-06
-5.8376e-08
-1.25486e-06
-5.7241e-08
-1.25793e-06
-2.00841e-08
-8.76698e-07
5.11271e-08
-6.16161e-07
-5.11423e-07
1.22968e-07
-1.1725e-07
3.51662e-07
1.3879e-07
-1.88928e-07
4.19945e-07
-1.20273e-08
-5.24979e-08
4.00667e-08
-1.23025e-06
1.21608e-08
-1.23931e-06
1.81344e-09
-1.24452e-06
-1.38387e-08
-1.24228e-06
-1.38313e-08
-8.76701e-07
6.26228e-09
-6.36253e-07
-5.24381e-07
1.922e-08
-1.36992e-07
3.50419e-07
1.38237e-07
-5.76271e-08
3.40576e-07
-8.17264e-09
-1.01958e-07
1.44982e-08
-1.25294e-06
-1.80259e-09
-1.22301e-06
-2.22017e-08
-1.22412e-06
-3.26398e-08
-1.23184e-06
-4.18603e-08
-8.67481e-07
-4.95274e-08
-6.28582e-07
-4.93956e-07
-7.99485e-08
-4.63759e-08
2.27405e-07
1.69389e-07
-1.00023e-08
3.04204e-07
6.20837e-08
-1.74039e-07
1.20221e-08
-1.20287e-06
-5.09652e-09
-1.20589e-06
-2.49364e-08
-1.20428e-06
-4.09264e-08
-1.21585e-06
-8.44749e-08
-8.23932e-07
-1.1592e-07
-5.97131e-07
-4.52277e-07
-1.57595e-07
-2.49165e-07
2.00587e-07
2.7598e-07
-3.66134e-08
9.16269e-08
2.99079e-08
-2.40581e-07
1.60955e-08
-1.18906e-06
-9.52e-10
-1.18884e-06
-1.66642e-08
-1.18856e-06
-3.54395e-08
-1.19707e-06
-1.14008e-07
-7.4536e-07
-1.47271e-07
-5.63864e-07
-4.1561e-07
-1.83937e-07
-3.12029e-07
2.17143e-07
2.95474e-07
-1.5495e-07
-6.54363e-08
1.62602e-08
-4.11788e-07
1.26785e-08
-1.18548e-06
-2.41556e-10
-1.17592e-06
-1.52056e-08
-1.1736e-06
-3.16999e-08
-1.18058e-06
-1.38547e-07
-6.38512e-07
-2.16255e-07
-4.86155e-07
-4.05294e-07
-2.2657e-07
1.21574e-08
1.75436e-07
2.95487e-08
-7.84648e-08
2.51989e-08
1.97772e-08
-5.10024e-07
1.71453e-08
-1.18284e-06
5.93931e-09
-1.16472e-06
-8.27152e-09
-1.15939e-06
-2.35952e-08
-1.16525e-06
-1.20907e-07
-5.41202e-07
-1.9817e-07
-4.08893e-07
-3.80396e-07
-2.23065e-07
1.65278e-07
9.08435e-08
-8.06862e-08
6.77814e-08
1.2268e-07
7.64791e-08
-5.18733e-07
4.35684e-08
-1.14994e-06
2.66498e-08
-1.1478e-06
1.66742e-08
-1.14941e-06
1.00913e-09
-1.14959e-06
-6.3288e-08
-4.76904e-07
-1.36685e-07
-3.35496e-07
-3.24239e-07
-1.92842e-07
-5.80069e-08
6.74729e-08
8.13782e-08
-6.71484e-08
1.31828e-07
4.20957e-08
-6.27957e-07
3.05701e-08
-1.13841e-06
1.81475e-08
-1.13537e-06
2.39057e-09
-1.13366e-06
-1.19217e-08
-1.13528e-06
-6.82792e-08
-4.20544e-07
-1.61232e-07
-2.42546e-07
-2.35634e-07
-2.49835e-07
-2.83894e-07
2.66821e-08
3.24682e-07
-5.38143e-08
-9.82739e-08
4.79429e-08
-7.29727e-07
3.49485e-08
-1.12542e-06
1.9225e-08
-1.11965e-06
4.64186e-09
-1.11907e-06
-9.41314e-09
-1.12122e-06
-5.54593e-08
-3.74495e-07
-1.77305e-07
-1.20703e-07
-1.35153e-07
-2.77786e-07
-1.56158e-07
-8.96773e-08
2.7252e-07
5.42258e-08
-3.08652e-07
6.32444e-08
-7.38741e-07
5.03734e-08
-1.11255e-06
2.70771e-08
-1.09635e-06
1.91591e-08
-1.11115e-06
4.93482e-09
-1.107e-06
-1.97109e-08
-3.49848e-07
-1.6239e-07
2.19751e-08
-3.10195e-08
-2.66524e-07
-1.02824e-07
-2.23627e-07
2.36768e-07
1.66337e-08
-4.28118e-07
-5.66701e-09
-7.16438e-07
-2.07214e-08
-1.09749e-06
-3.03035e-08
-1.08677e-06
-6.30741e-08
-1.07838e-06
-7.46676e-08
-1.0954e-06
-3.59874e-08
-3.88526e-07
-1.77639e-07
1.63627e-07
1.07303e-07
-3.15962e-07
1.09882e-08
-3.19628e-07
8.50117e-08
2.76259e-08
-4.44762e-07
3.24605e-08
-7.21272e-07
1.82951e-08
-1.08333e-06
-7.15535e-09
-1.06132e-06
-2.47665e-08
-1.06077e-06
-3.93421e-08
-1.08083e-06
5.87008e-09
-4.33737e-07
-1.12912e-07
2.82411e-07
2.18772e-07
-2.24382e-07
6.18117e-08
-3.84846e-07
3.40644e-09
4.93929e-08
-4.32343e-07
3.9714e-08
-7.11598e-07
2.14646e-08
-1.06508e-06
-1.22134e-09
-1.03864e-06
-2.14996e-08
-1.04049e-06
-3.88485e-08
-1.06348e-06
8.49646e-09
-4.81084e-07
-9.31466e-08
3.84055e-07
2.88962e-07
-1.63338e-07
2.32337e-08
-4.2251e-07
1.4431e-08
2.03757e-08
-4.29475e-07
4.06998e-08
-7.31913e-07
2.10016e-08
-1.04538e-06
6.6184e-10
-1.0183e-06
-2.06406e-08
-1.01919e-06
-3.95887e-08
-1.04453e-06
-6.21124e-09
-5.14461e-07
-7.06844e-08
4.48533e-07
3.27969e-07
-1.09691e-07
2.06537e-08
-4.2827e-07
-1.48966e-08
1.21051e-08
-4.20934e-07
3.58325e-08
-7.55647e-07
1.79587e-08
-1.02751e-06
-1.99921e-09
-9.98338e-07
-2.18545e-08
-9.99337e-07
-3.91463e-08
-1.02724e-06
1.42265e-08
-5.67835e-07
1.81163e-08
4.44645e-07
3.79407e-07
-3.332e-08
3.72081e-08
-4.0064e-07
-6.48365e-08
3.06094e-08
-4.14326e-07
3.56366e-08
-7.60662e-07
1.64746e-08
-1.00834e-06
-1.15634e-09
-9.80707e-07
-2.01467e-08
-9.80347e-07
-3.89796e-08
-1.00841e-06
4.30685e-09
-6.11122e-07
3.51894e-08
4.13765e-07
4.2011e-07
-5.51213e-09
9.86702e-08
-3.41619e-07
-1.57691e-07
5.95686e-08
-3.75232e-07
3.88173e-08
-7.39921e-07
1.86515e-08
-9.88183e-07
4.38412e-10
-9.62493e-07
-1.75894e-08
-9.62319e-07
-3.81389e-08
-9.87861e-07
-1.28072e-08
-6.36454e-07
1.75291e-08
3.83428e-07
4.54262e-07
-1.66196e-08
1.22554e-07
-2.75851e-07
-1.88321e-07
6.41456e-08
-3.16805e-07
3.73532e-08
-7.13113e-07
1.60706e-08
-9.66896e-07
6.5773e-11
-9.46489e-07
-1.61247e-08
-9.46129e-07
-3.77486e-08
-9.66236e-07
-1.79149e-08
-6.56286e-07
4.03132e-08
3.252e-07
5.03756e-07
-9.17672e-09
9.83283e-08
-2.41529e-07
-1.32651e-07
5.30657e-08
-2.71563e-07
3.80287e-08
-6.98089e-07
1.81301e-08
-9.47001e-07
-8.93901e-11
-9.28269e-07
-1.91879e-08
-9.2703e-07
-3.96151e-08
-9.45808e-07
-2.37165e-08
-6.72183e-07
1.44039e-07
1.57444e-07
5.20227e-07
1.27571e-07
6.37416e-08
-2.07839e-07
-9.74304e-08
4.30659e-08
-2.50873e-07
3.76237e-08
-6.92635e-07
1.68514e-08
-9.26224e-07
-2.6344e-10
-9.11154e-07
-1.83938e-08
-9.089e-07
-3.92941e-08
-9.24906e-07
-2.91589e-08
-6.82315e-07
1.33784e-07
-5.49955e-09
4.56592e-07
1.97421e-07
6.69238e-08
-1.62732e-07
-1.12032e-07
4.82974e-08
-2.32264e-07
4.18272e-08
-6.86174e-07
2.26137e-08
-9.07012e-07
8.98622e-10
-8.89439e-07
-2.13388e-08
-8.86663e-07
-4.11949e-08
-9.05049e-07
-2.91663e-08
-6.94343e-07
1.20939e-08
-4.67574e-08
3.25671e-07
1.43014e-07
1.0475e-07
-1.1718e-07
-1.503e-07
7.10766e-08
-1.98586e-07
4.17693e-08
-6.56858e-07
2.14063e-08
-8.86647e-07
4.92016e-10
-8.68525e-07
-2.0328e-08
-8.65842e-07
-4.20227e-08
-8.83354e-07
-8.25839e-08
-6.53782e-07
-9.91711e-08
-3.01675e-08
2.10562e-07
1.59388e-08
1.31681e-07
-5.3968e-08
-1.94894e-07
7.23325e-08
-1.39247e-07
4.46691e-08
-6.29197e-07
2.46331e-08
-8.6661e-07
-1.38012e-09
-8.42512e-07
-2.74011e-08
-8.39821e-07
-4.75046e-08
-8.63252e-07
-7.69826e-08
-6.24303e-07
-1.13325e-07
6.176e-09
1.48532e-07
-5.12944e-08
1.34204e-07
4.11409e-09
-1.92285e-07
6.9875e-08
-7.49136e-08
4.52976e-08
-6.04615e-07
2.2608e-08
-8.43919e-07
-3.32311e-10
-8.19571e-07
-2.27036e-08
-8.1745e-07
-4.51259e-08
-8.4083e-07
-5.94621e-08
-6.09967e-07
-6.334e-08
1.00558e-08
1.2881e-07
-4.36199e-08
1.03502e-07
6.48767e-08
-1.64264e-07
6.03853e-08
-3.17956e-08
5.06854e-08
-5.94915e-07
2.73904e-08
-8.20625e-07
-7.32453e-10
-7.91449e-07
-2.77018e-08
-7.90481e-07
-5.02164e-08
-8.18316e-07
-4.04305e-08
-6.19754e-07
3.40304e-09
-3.37763e-08
1.30971e-07
1.24328e-09
9.03284e-08
8.91753e-08
-1.14626e-07
6.6237e-08
-7.69784e-09
4.85716e-08
-5.77245e-07
2.20705e-08
-7.94125e-07
-1.44493e-10
-7.69234e-07
-2.21496e-08
-7.68476e-07
-4.73252e-08
-7.93141e-07
-4.90583e-08
-6.18021e-07
-1.55024e-08
-6.73322e-08
1.25064e-07
-9.59455e-09
6.91907e-08
1.02746e-07
-8.27618e-08
6.71606e-08
-5.67285e-09
5.35232e-08
-5.63608e-07
2.66147e-08
-7.67216e-07
-1.41973e-09
-7.41199e-07
-2.87162e-08
-7.41179e-07
-5.44227e-08
-7.67435e-07
-5.62852e-08
-6.16158e-07
-6.05646e-08
-6.30516e-08
9.87418e-08
-3.42441e-08
7.15777e-08
7.75605e-08
-4.63925e-08
6.28313e-08
3.06854e-09
5.267e-08
-5.53449e-07
2.21753e-08
-7.36723e-07
-1.97955e-09
-7.17044e-07
-2.16939e-08
-7.21465e-07
-5.10293e-08
-7.38101e-07
-8.58221e-08
-5.81364e-07
-8.90798e-08
-5.97944e-08
5.5309e-08
-4.56467e-08
1.07806e-07
4.09773e-08
-7.12232e-08
7.25895e-08
3.82857e-08
5.94078e-08
-5.40265e-07
2.95154e-08
-7.06832e-07
1.47666e-10
-6.87676e-07
-3.05395e-08
-6.90778e-07
-5.82372e-08
-7.10403e-07
-6.57632e-08
-5.73836e-07
-5.31712e-08
-7.23902e-08
1.32483e-08
-1.11076e-08
3.4985e-08
4.42881e-09
1.56257e-09
5.73085e-08
1.59541e-08
4.91497e-08
-5.32108e-07
2.21388e-08
-6.79822e-07
1.08913e-08
-6.76429e-07
-1.89564e-08
-6.6093e-07
-4.83906e-08
-6.80967e-07
-7.21878e-08
-5.50039e-07
-1.07253e-07
-3.73262e-08
1.476e-08
-1.08764e-07
-6.3691e-08
-1.36217e-08
8.17398e-08
4.33175e-08
-9.10661e-08
5.1091e-08
-5.39887e-07
3.31931e-08
-6.61926e-07
-2.76995e-09
-6.40466e-07
-1.29025e-08
-6.50797e-07
-3.26248e-08
-6.61244e-07
-5.44363e-08
-5.2823e-07
-7.22347e-08
-1.95264e-08
5.30336e-08
-1.1051e-07
-2.26072e-09
-1.82798e-08
6.91578e-09
3.61289e-08
-1.29462e-07
1.46813e-08
-5.18443e-07
-1.99567e-08
-6.27289e-07
-4.04349e-08
-6.19988e-07
-7.55457e-08
-6.15687e-07
-1.03406e-07
-6.33383e-07
-9.65924e-08
-5.35044e-07
-9.50653e-08
-2.10546e-08
7.0737e-08
-1.12769e-07
2.9866e-08
-2.30947e-08
-2.50555e-08
8.59752e-08
-1.85575e-07
9.16977e-08
-5.24167e-07
5.76666e-08
-5.93259e-07
4.09103e-08
-6.03232e-07
6.3895e-09
-5.81166e-07
-3.31246e-08
-5.9387e-07
-3.44117e-08
-5.33756e-07
-3.84552e-08
-1.70117e-08
9.55338e-08
-6.32525e-08
5.03196e-08
-1.80436e-08
-5.53734e-08
9.8578e-08
-2.33838e-07
1.31603e-07
-5.57191e-07
1.09085e-07
-5.7074e-07
6.06221e-08
-5.54769e-07
4.31646e-08
-5.63708e-07
4.90231e-09
-5.55607e-07
-2.18551e-08
-5.07e-07
-1.29073e-08
-2.59589e-08
9.67483e-08
-1.41232e-08
5.87993e-08
-3.14302e-08
-4.54126e-08
1.01328e-07
-2.76379e-07
7.04852e-08
-5.26349e-07
3.00508e-08
-5.30305e-07
1.80896e-09
-5.26527e-07
-3.12872e-08
-5.30612e-07
-6.38169e-08
-5.23077e-07
-7.35828e-08
-4.97236e-07
-3.71998e-08
-6.23422e-08
8.18519e-08
-2.23021e-08
1.07974e-07
-6.18472e-08
-7.75575e-08
1.33447e-07
-3.0186e-07
9.16417e-08
-4.84547e-07
5.30483e-08
-4.91712e-07
1.58036e-08
-4.89283e-07
-2.25805e-08
-4.92228e-07
-5.69714e-08
-4.88686e-07
-5.67238e-08
-4.97483e-07
-3.81887e-08
-8.08782e-08
9.48736e-08
-5.1213e-08
1.10143e-07
-8.08821e-08
-9.11129e-08
1.05276e-07
-2.96994e-07
5.93001e-08
-4.38573e-07
1.61232e-08
-4.48535e-07
-2.18986e-08
-4.51261e-07
-6.17028e-08
-4.52424e-07
-1.06109e-07
-4.4428e-07
-1.59802e-07
-4.4379e-07
-1.14391e-07
-1.2629e-07
6.4823e-08
-8.43448e-08
1.27684e-07
-1.24784e-07
-8.37842e-08
1.29727e-07
-2.99037e-07
7.4382e-08
-3.83231e-07
2.02867e-08
-3.9444e-07
-2.15556e-08
-4.09418e-07
-5.97213e-08
-4.14258e-07
-9.58894e-08
-4.08112e-07
-1.54128e-07
-3.85551e-07
-1.072e-07
-1.73219e-07
3.65798e-08
-7.89589e-08
6.33584e-08
-1.4397e-07
-4.41731e-08
1.14061e-07
-3.49728e-07
8.13158e-08
-3.50486e-07
5.23494e-08
-3.65474e-07
8.27364e-09
-3.65343e-07
-4.48841e-08
-3.611e-07
-1.03737e-07
-3.4926e-07
-1.55745e-07
-3.33543e-07
-8.81377e-08
-2.40826e-07
-1.3321e-08
-3.82376e-08
1.95753e-07
-1.6496e-07
-1.74765e-07
1.24342e-07
-2.78313e-07
7.13246e-08
-2.97468e-07
1.6542e-08
-3.10691e-07
-3.4072e-08
-3.14729e-07
-8.01149e-08
-3.15058e-07
-1.1712e-07
-3.12255e-07
-1.54234e-07
-2.96429e-07
-1.13364e-07
-2.81696e-07
-6.52867e-08
-6.14e-08
1.9373e-07
-2.36306e-07
-1.22386e-07
1.42313e-07
-2.26897e-07