/*--------------------------------*- C++ -*----------------------------------*\
  =========                 |
  \\      /  F ield         | OpenFOAM: The Open Source CFD Toolbox
   \\    /   O peration     | Website:  https://openfoam.org
    \\  /    A nd           | Version:  8
     \\/     M anipulation  |
\*---------------------------------------------------------------------------*/
FoamFile
{
    version     2.0;
    format      ascii;
    class       volVectorField;
    location    "4";
    object      U;
}
// * * * * * * * * * * * * * * * * * * * * * * * * * * * * * * * * * * * * * //

dimensions      [0 1 -1 0 0 0 0];

internalField   nonuniform List<vector> 
9150
(
(0.00496138 -0.078207 0)
(0.0130475 -0.097479 0)
(0.0108672 -0.104282 0)
(0.00857845 -0.10793 0)
(0.00226436 -0.10932 0)
(-0.00239702 -0.109241 0)
(-0.00861999 -0.107881 0)
(-0.0108895 -0.104271 0)
(-0.0130542 -0.0974629 0)
(-0.00496933 -0.0781901 0)
(0.00593855 -0.0920662 0)
(0.00855061 -0.100489 0)
(0.00732209 -0.102272 0)
(0.00436157 -0.104342 0)
(0.00180794 -0.105543 0)
(-0.00214124 -0.105355 0)
(-0.00437483 -0.10438 0)
(-0.00733189 -0.102271 0)
(-0.00855464 -0.100485 0)
(-0.00594791 -0.0920641 0)
(0.00176217 -0.095491 0)
(0.00457414 -0.0989853 0)
(0.00371884 -0.100945 0)
(0.00325001 -0.101669 0)
(0.00105869 -0.102348 0)
(-0.000631721 -0.102508 0)
(-0.00324208 -0.101742 0)
(-0.00375264 -0.10095 0)
(-0.0045744 -0.0989934 0)
(-0.00176809 -0.0954942 0)
(0.00175137 -0.0984376 0)
(0.00248079 -0.100395 0)
(0.00214939 -0.100273 0)
(0.00125576 -0.100881 0)
(0.000520433 -0.100881 0)
(-0.000787805 -0.100847 0)
(-0.00131417 -0.100735 0)
(-0.00218394 -0.100285 0)
(-0.00248099 -0.100408 0)
(-0.00175059 -0.09844 0)
(0.000187755 -0.099492 0)
(0.000731182 -0.0995681 0)
(0.000481419 -0.099954 0)
(0.00068285 -0.0998742 0)
(0.00015902 -0.1001 0)
(-0.000116105 -0.100115 0)
(-0.000620356 -0.0998707 0)
(-0.000446397 -0.0999944 0)
(-0.000729223 -0.0995736 0)
(-0.000186444 -0.0994911 0)
(0.0761765 -0.19515 2.05834e-26)
(0.0492634 -0.18525 0)
(0.0305657 -0.176506 0)
(0.0156103 -0.174573 0)
(0.00357548 -0.176084 0)
(-0.00526074 -0.175954 0)
(-0.0165412 -0.175057 0)
(-0.0308767 -0.176248 0)
(-0.0494634 -0.18473 0)
(-0.0761326 -0.194503 -2.02008e-26)
(0.0585025 -0.14653 5.36014e-27)
(0.0482764 -0.146679 0)
(0.0281474 -0.156708 0)
(0.0202045 -0.157074 0)
(0.00400386 -0.155745 0)
(-0.00502186 -0.156131 0)
(-0.020875 -0.157583 0)
(-0.0286281 -0.156754 0)
(-0.0483232 -0.146486 0)
(-0.0585371 -0.146327 -5.17868e-27)
(0.0477217 -0.121524 2.59652e-27)
(0.0422441 -0.131492 0)
(0.0299704 -0.134055 0)
(0.0182831 -0.137106 0)
(0.00659868 -0.140057 0)
(-0.00535316 -0.140308 0)
(-0.0177403 -0.137741 0)
(-0.0299756 -0.13403 0)
(-0.0423143 -0.131414 0)
(-0.0477088 -0.121446 -2.62176e-27)
(0.0373295 -0.0994431 4.01318e-27)
(0.039027 -0.11032 0)
(0.0221554 -0.12013 0)
(0.0170453 -0.12555 0)
(0.00438536 -0.125545 0)
(-0.00427453 -0.125268 0)
(-0.0172388 -0.124784 0)
(-0.0221565 -0.119835 0)
(-0.0390564 -0.110276 0)
(-0.037335 -0.0994144 -4.03126e-27)
(0.0248781 -0.0814607 -1.28252e-26)
(0.0281844 -0.101089 -1.51221e-26)
(0.0202824 -0.108303 -3.77583e-27)
(0.0112216 -0.113762 -3.34121e-27)
(0.0045708 -0.116801 -1.23458e-28)
(-0.00489935 -0.116725 -1.3064e-28)
(-0.0113294 -0.11366 -3.36292e-27)
(-0.0202991 -0.108274 -3.76993e-27)
(-0.0281646 -0.101089 -1.51284e-26)
(-0.0248868 -0.0814451 -1.28302e-26)
(0.018461 -0.145655 0)
(0.00895645 -0.206718 0)
(0.0200615 -0.217035 0)
(0.00739719 -0.223302 0)
(0.00594465 -0.225766 0)
(-0.00901422 -0.225543 0)
(-0.0100477 -0.223669 0)
(-0.0241468 -0.216638 0)
(-0.0153239 -0.201991 0)
(-0.0193944 -0.142358 0)
(0.0148717 -0.169044 0)
(0.000526108 -0.201751 0)
(0.0132639 -0.210387 0)
(0.000423516 -0.214201 0)
(0.00454115 -0.214998 0)
(-0.00713682 -0.214272 0)
(-0.00411636 -0.212809 0)
(-0.0173833 -0.207012 0)
(-0.00303732 -0.196576 0)
(-0.01712 -0.163373 0)
(0.0151976 -0.172932 0)
(-0.00437478 -0.204322 0)
(0.0101088 -0.209301 0)
(-0.00280861 -0.210073 0)
(0.00226284 -0.21028 0)
(-0.00561067 -0.209461 0)
(-0.000318843 -0.209288 0)
(-0.0118912 -0.207419 0)
(0.00325705 -0.202266 0)
(-0.0154307 -0.170578 0)
(0.0170743 -0.194892 0)
(-0.00680427 -0.205046 0)
(0.00921113 -0.211012 0)
(-0.000876975 -0.205788 0)
(0.00196811 -0.207333 0)
(-0.00119944 -0.207092 0)
(0.000622275 -0.207012 0)
(-0.0104333 -0.209356 0)
(0.00668714 -0.203228 0)
(-0.0177564 -0.193362 0)
(0.0351335 -0.218271 0)
(0.008675 -0.204413 0)
(0.0162606 -0.204083 0)
(0.0106612 -0.197664 0)
(0.00141159 -0.193192 0)
(-0.00249792 -0.192251 0)
(-0.0119952 -0.194946 0)
(-0.0166539 -0.202876 0)
(-0.00905834 -0.204027 0)
(-0.0348485 -0.216883 0)
(-0.109016 -0.0183897 0)
(-0.105591 -0.00865658 0)
(-0.106153 -0.0025421 0)
(-0.110184 0.00360963 0)
(-0.11732 0.00766676 0)
(-0.124277 0.00852264 0)
(-0.129196 0.00837811 0)
(-0.131447 0.00534736 0)
(-0.13374 0.00169611 0)
(-0.137896 -0.000682212 0)
(-0.156975 -0.00739073 0)
(-0.157485 0.0019676 0)
(-0.161119 0.0108878 0)
(-0.167453 0.0172253 0)
(-0.176648 0.0212537 0)
(-0.18978 0.0200061 0)
(-0.206537 0.00763594 0)
(-0.213324 0.00104387 0)
(-0.225285 0.0144154 0)
(-0.241822 0.0285062 0)
(-0.220907 -0.0126223 0)
(-0.222129 0.00193771 0)
(-0.224699 0.0181965 0)
(-0.230954 0.0366866 0)
(-0.240407 0.0557999 0)
(-0.245905 0.0584544 0)
(-0.25654 0.0485578 0)
(-0.265091 0.0416283 0)
(-0.267508 0.0440188 0)
(-0.263005 0.0338973 0)
(-0.271048 -0.00606446 0)
(-0.272558 0.0111648 0)
(-0.274853 0.0285787 0)
(-0.273622 0.0475879 0)
(-0.267202 0.0575566 0)
(-0.263298 0.0588032 0)
(-0.258747 0.0466848 0)
(-0.253122 0.0304345 0)
(-0.247707 0.0223193 0)
(-0.242397 0.0131726 0)
(-0.289262 -0.00618639 0)
(-0.289299 0.0102822 0)
(-0.291536 0.0258698 0)
(-0.294106 0.0353968 0)
(-0.295297 0.0385545 0)
(-0.294571 0.0398127 0)
(-0.292159 0.0279497 0)
(-0.292298 0.019428 0)
(-0.292281 0.0146182 0)
(-0.28888 -0.00128335 0)
(-0.285262 -0.0103369 0)
(-0.279292 0.0119746 0)
(-0.275336 0.0343302 0)
(-0.273098 0.0455766 0)
(-0.271417 0.0491299 0)
(-0.271303 0.0490121 0)
(-0.274573 0.0416047 0)
(-0.281393 0.0293594 0)
(-0.287819 0.0161402 0)
(-0.294137 0.000284007 0)
(-0.268816 -0.0292096 0)
(-0.262653 -0.0101295 0)
(-0.256447 0.0144102 0)
(-0.251418 0.0314547 0)
(-0.24677 0.040429 0)
(-0.241167 0.0473932 0)
(-0.239701 0.049926 0)
(-0.242667 0.0492398 0)
(-0.251603 0.0431251 0)
(-0.265585 0.032248 0)
(-0.231503 -0.0279749 0)
(-0.235169 -0.0110289 0)
(-0.235207 0.0100499 0)
(-0.237393 0.0201718 0)
(-0.237633 0.0257943 0)
(-0.236346 0.0329169 0)
(-0.234265 0.0437127 0)
(-0.231856 0.0533837 0)
(-0.229792 0.0576907 0)
(-0.229734 0.0584255 0)
(-0.176144 -0.00716491 0)
(-0.191685 -0.00190061 0)
(-0.199573 0.0169591 0)
(-0.210546 0.0378112 0)
(-0.222832 0.0419724 0)
(-0.237285 0.0403297 0)
(-0.244115 0.0424223 0)
(-0.245572 0.0442648 0)
(-0.244826 0.0452614 0)
(-0.241254 0.0456827 0)
(-0.125563 0.0613513 0)
(-0.144217 0.0375689 0)
(-0.165302 0.0445071 0)
(-0.184936 0.0656285 0)
(-0.201467 0.0770096 0)
(-0.228636 0.0735249 0)
(-0.259848 0.0672831 0)
(-0.273295 0.0558466 0)
(-0.276196 0.0458459 0)
(-0.282485 0.0432042 0)
(-0.101666 0.126887 0)
(-0.113821 0.086883 0)
(-0.130498 0.0843502 0)
(-0.146802 0.100579 0)
(-0.158034 0.125507 0)
(-0.177481 0.142683 0)
(-0.218668 0.124148 0)
(-0.250218 0.0768224 0)
(-0.254006 0.0603243 0)
(-0.264318 0.0587001 0)
(-0.0689067 0.206208 0)
(-0.0775147 0.120458 0)
(-0.0819102 0.110902 0)
(-0.084842 0.11645 0)
(-0.0873736 0.138049 0)
(-0.108318 0.176541 0)
(-0.120545 0.192621 0)
(-0.163347 0.128392 0)
(-0.187925 0.0846119 0)
(-0.219612 0.0935147 0)
(-0.0460627 0.242138 0)
(-0.0609536 0.128745 0)
(-0.0647205 0.113243 0)
(-0.0649578 0.118569 0)
(-0.0642698 0.149669 0)
(-0.0563175 0.217271 0)
(-0.0589149 0.240899 0)
(-0.0739455 0.229937 0)
(-0.0993159 0.191971 0)
(-0.119577 0.152621 0)
(0.0251962 0.339814 0)
(-0.027526 0.154273 0)
(-0.0502467 0.110081 0)
(-0.059756 0.105959 0)
(-0.0616249 0.123976 0)
(-0.0453318 0.193747 0)
(-0.023749 0.221964 0)
(-0.0159345 0.230861 0)
(-0.0280347 0.174761 0)
(-0.0282737 0.103959 0)
(0.128246 0.439629 0)
(0.0916276 0.301407 0)
(0.0384136 0.183409 0)
(0.00681415 0.133615 0)
(-0.00103594 0.119802 0)
(0.00315081 0.134612 0)
(0.0333822 0.153975 0)
(0.059861 0.193799 0)
(0.0970201 0.195497 0)
(0.102176 0.166017 0)
(0.20963 0.403568 0)
(0.213501 0.363865 0)
(0.184877 0.293721 0)
(0.134475 0.19816 0)
(0.114698 0.147369 0)
(0.105215 0.129261 0)
(0.107923 0.125978 0)
(0.119465 0.114229 0)
(0.154503 0.107311 0)
(0.176629 0.0908618 0)
(0.245816 0.366305 0)
(0.259332 0.353085 0)
(0.260141 0.320253 0)
(0.226435 0.241627 0)
(0.213789 0.17306 0)
(0.213078 0.132176 0)
(0.209503 0.113932 0)
(0.219068 0.0998376 0)
(0.249221 0.0709954 0)
(0.264562 0.0264901 0)
(0.277964 0.348415 0)
(0.293694 0.35148 0)
(0.297338 0.342196 0)
(0.287164 0.293663 0)
(0.287973 0.1892 0)
(0.283762 0.130023 0)
(0.265776 0.0897519 0)
(0.258232 0.041223 0)
(0.279303 0.00189578 0)
(0.290104 -0.0019731 0)
(0.286125 0.295374 0)
(0.338421 0.318075 0)
(0.373696 0.324648 0)
(0.385028 0.303296 0)
(0.396459 0.217224 0)
(0.394787 0.170231 0)
(0.388032 0.150385 0)
(0.376875 0.0849519 0)
(0.352648 0.000339705 0)
(0.335536 -0.0181768 0)
(0.272518 0.13237 0)
(0.330193 0.210456 0)
(0.380663 0.251543 0)
(0.424727 0.248316 0)
(0.463121 0.183049 0)
(0.487745 0.148665 0)
(0.504978 0.143038 0)
(0.522154 0.119257 0)
(0.508658 0.0846075 0)
(0.461997 0.0381061 0)
(0.21929 0.027177 0)
(0.264624 0.0744746 0)
(0.328347 0.10248 0)
(0.390023 0.12142 0)
(0.440071 0.0995285 0)
(0.484251 0.0747884 0)
(0.522223 0.0745311 0)
(0.557105 0.0886094 0)
(0.578761 0.0888863 0)
(0.588287 0.0705153 0)
(0.299123 -0.0216755 0)
(0.324936 0.0128671 0)
(0.363813 0.0278186 0)
(0.402522 0.0241354 0)
(0.442578 0.00679866 0)
(0.474783 -0.00950061 0)
(0.502672 -0.0073651 0)
(0.542798 0.0174765 0)
(0.590784 0.0224155 0)
(0.644963 -0.0197865 0)
(0.436442 -0.0888862 0)
(0.461103 -0.0644065 0)
(0.490701 -0.0357946 0)
(0.520486 -0.0326986 0)
(0.54129 -0.0439439 0)
(0.560164 -0.0613548 0)
(0.5801 -0.0778869 0)
(0.610843 -0.0897867 0)
(0.650443 -0.106565 0)
(0.694229 -0.147844 0)
(0.52616 -0.135806 0)
(0.536812 -0.110847 0)
(0.549111 -0.0861613 0)
(0.560641 -0.0770039 0)
(0.561703 -0.0799166 0)
(0.56939 -0.0888055 0)
(0.567379 -0.108529 0)
(0.577241 -0.139418 0)
(0.590772 -0.165369 0)
(0.607076 -0.219728 0)
(0.541541 -0.144603 0)
(0.548991 -0.101324 0)
(0.535537 -0.0592968 0)
(0.509243 -0.0422315 0)
(0.494086 -0.04632 0)
(0.465113 -0.0503835 0)
(0.441555 -0.0804439 0)
(0.424056 -0.144899 0)
(0.388852 -0.141609 0)
(0.35868 -0.169828 0)
(0.508785 -0.212077 0)
(0.519672 -0.14065 0)
(0.468756 -0.0591918 0)
(0.419917 -0.0197812 0)
(0.394786 0.0139596 0)
(0.373674 0.0085163 0)
(0.326412 -0.0181527 0)
(0.166309 0.0613671 0)
(0.149744 -0.0817767 0)
(0.222723 -0.263569 0)
(0.265644 -0.212921 0)
(0.306268 -0.00772208 0)
(0.330191 0.096221 0)
(0.351082 0.0414388 0)
(0.321618 0.0288794 0)
(0.24214 0.113776 0)
(0.0011974 0.287006 0)
(-0.141986 -0.0330841 0)
(0.0261163 -0.389257 0)
(0.0878685 -0.377953 0)
(-0.33175 -0.216281 0)
(-0.334077 -0.187943 0)
(-0.349704 -0.105232 0)
(-0.268451 0.0570078 0)
(-0.285098 0.246913 0)
(-0.190816 0.499955 0)
(-0.256046 0.648471 0)
(-0.0299615 -0.183648 0)
(0.00861798 -0.465424 0)
(0.0434995 -0.43959 0)
(-0.56773 -0.118708 0)
(-0.608276 -0.0954793 0)
(-0.607531 -0.0666951 0)
(-0.54445 0.0146806 0)
(-0.468375 0.0817362 0)
(-0.270268 0.249615 0)
(-0.121986 0.33411 0)
(0.0266922 -0.346091 0)
(-0.0324312 -0.487499 0)
(-0.115025 -0.364016 0)
(-0.405513 -0.165173 0)
(-0.382652 -0.157297 0)
(-0.360837 -0.206405 0)
(-0.361801 -0.227868 0)
(-0.284135 -0.255927 0)
(-0.241067 -0.325791 0)
(-0.0896284 -0.28557 0)
(-0.0266148 -0.280194 0)
(-0.137542 -0.34391 0)
(-0.159615 -0.221111 0)
(-0.398782 -0.34989 0)
(-0.301121 -0.267426 0)
(-0.255924 -0.199 0)
(-0.233213 -0.182412 0)
(-0.21407 -0.195671 0)
(-0.203587 -0.247116 0)
(-0.177207 -0.317871 0)
(-0.076289 -0.283399 0)
(-0.0671725 -0.283032 0)
(-0.0595708 -0.225192 0)
(-0.552672 -0.475382 0)
(-0.518705 -0.419155 0)
(-0.436284 -0.315425 0)
(-0.346333 -0.240269 0)
(-0.268905 -0.262692 0)
(-0.192191 -0.376116 0)
(-0.149653 -0.503547 0)
(-0.0910931 -0.477989 0)
(-0.0335719 -0.365237 0)
(-0.0121527 -0.294841 0)
(-0.59857 -0.495766 0)
(-0.592015 -0.492486 0)
(-0.555113 -0.488582 0)
(-0.468606 -0.49322 0)
(-0.350134 -0.492959 0)
(-0.240503 -0.469724 0)
(-0.155137 -0.520259 0)
(-0.0978022 -0.499383 0)
(-0.0305955 -0.419575 0)
(-0.000395356 -0.325049 0)
(-0.505177 -0.502238 0)
(-0.522446 -0.517106 0)
(-0.519183 -0.55634 0)
(-0.490544 -0.632136 0)
(-0.429704 -0.743787 0)
(-0.339224 -0.802763 0)
(-0.209124 -0.735642 0)
(-0.0838122 -0.620119 0)
(0.0325647 -0.477481 0)
(0.05103 -0.295496 0)
(-0.219385 -0.504095 0)
(-0.214875 -0.496366 0)
(-0.210447 -0.536234 0)
(-0.248459 -0.625084 0)
(-0.275166 -0.815089 0)
(-0.271863 -1.0123 0)
(-0.195692 -1.12815 0)
(-0.0703822 -1.03447 0)
(0.0491253 -0.722696 0)
(0.0936781 -0.258704 0)
(-0.0522265 -0.584148 0)
(-0.0208148 -0.531143 0)
(0.00779514 -0.511216 0)
(0.0277949 -0.505797 0)
(0.0076048 -0.619791 0)
(-0.056122 -0.968399 0)
(-0.0614996 -1.24542 0)
(-0.0184121 -1.20731 0)
(0.0144599 -0.876953 0)
(0.0802743 -0.255129 0)
(-0.0174955 -0.700057 0)
(0.0312321 -0.63399 0)
(0.0430798 -0.590601 0)
(0.0754051 -0.543139 0)
(0.0601784 -0.566256 0)
(0.0356139 -0.794018 0)
(0.0526734 -1.2338 0)
(0.0147928 -1.24094 0)
(0.0340836 -0.908563 0)
(0.0616657 -0.295488 0)
(0.0742863 -0.690572 0)
(0.104938 -0.644965 0)
(0.097174 -0.617282 0)
(0.094732 -0.587422 0)
(0.0963324 -0.596185 0)
(0.080225 -0.759606 0)
(0.107349 -1.18521 0)
(0.0218219 -1.23748 0)
(0.0246372 -0.929752 0)
(0.00798502 -0.174942 0)
(0.136627 -0.713112 0)
(0.132043 -0.684076 0)
(0.15922 -0.604822 0)
(0.138363 -0.583622 0)
(0.140888 -0.59787 0)
(0.121757 -0.723962 0)
(0.166847 -1.1087 0)
(0.0807227 -1.16995 0)
(0.0107641 -0.93965 0)
(0.0230199 -0.11824 0)
(0.236174 -0.659481 0)
(0.182784 -0.678991 0)
(0.18412 -0.625616 0)
(0.169308 -0.590716 0)
(0.165793 -0.595744 0)
(0.144247 -0.718723 0)
(0.233034 -1.05434 0)
(0.17088 -1.09721 0)
(0.108177 -0.793617 0)
(0.0661719 -0.174088 0)
(0.339481 -0.488384 0)
(0.270161 -0.565032 0)
(0.229937 -0.573306 0)
(0.205462 -0.576264 0)
(0.184703 -0.600387 0)
(0.195545 -0.767894 0)
(0.302776 -1.05932 0)
(0.243295 -1.03377 0)
(0.16447 -0.660219 0)
(0.0957874 0.058246 0)
(0.3833 -0.41421 0)
(0.325889 -0.437817 0)
(0.274032 -0.50286 0)
(0.231568 -0.519263 0)
(0.192777 -0.592628 0)
(0.26395 -0.871981 0)
(0.383868 -1.07111 0)
(0.331893 -0.995108 0)
(0.222818 -0.679358 0)
(0.282282 -0.180036 0)
(0.373818 -0.368991 0)
(0.327677 -0.364837 0)
(0.286638 -0.387954 0)
(0.215015 -0.406793 0)
(0.184381 -0.613999 0)
(0.338677 -1.09525 0)
(0.401049 -1.07031 0)
(0.29293 -0.863114 0)
(0.0695262 -0.411768 0)
(-0.0538244 0.270617 0)
(0.340608 -0.29842 0)
(0.278076 -0.289777 0)
(0.228853 -0.273499 0)
(0.142147 -0.277662 0)
(0.126151 -0.990961 0)
(0.310351 -1.27937 0)
(0.327287 -1.03585 0)
(0.0551197 -0.362122 0)
(-0.143274 0.0344355 0)
(-0.202893 0.295653 0)
(0.222059 -0.186853 0)
(0.153659 -0.161404 0)
(0.0517518 -0.120739 0)
(0.0401222 -0.179861 0)
(0.0906559 -1.25054 0)
(0.141251 -1.32637 0)
(0.0768817 -0.577738 0)
(-0.122763 -0.0242516 0)
(-0.12064 0.0771504 0)
(-0.116303 0.094842 0)
(0.0572415 -0.0375315 0)
(-0.0188002 -0.0271973 0)
(-0.11885 -0.0293156 0)
(-0.0155086 -0.248678 0)
(0.0145547 -1.31082 0)
(0.0236372 -1.2729 0)
(-0.0207412 -0.150745 0)
(-0.155306 -0.0114394 0)
(-0.100126 0.0462717 0)
(-0.0779788 0.0427583 0)
(0.0720905 0.103178 0)
(0.0165157 0.162398 0)
(-0.133157 0.0957048 0)
(-0.117797 -0.756873 0)
(-0.0219643 -1.31936 0)
(-0.0511141 -1.288 0)
(-0.0373029 -0.0404069 0)
(-0.149556 -0.0169136 0)
(-0.159647 -0.00806176 0)
(-0.126997 0.00133389 0)
(0.0716735 0.143102 0)
(0.0723333 0.231884 0)
(-0.000466134 0.308119 0)
(-0.142247 -0.801455 0)
(-0.0166734 -1.36909 0)
(-0.0576776 -1.3568 0)
(0.152118 0.0228414 0)
(0.128249 0.171953 0)
(-0.12825 -0.0300554 0)
(-0.195214 -0.079645 0)
(0.102675 0.264059 0)
(-0.00535753 0.341442 0)
(-0.138272 0.531215 0)
(-0.0814389 -0.781073 0)
(0.00230617 -1.3883 0)
(-0.00748699 -1.37408 0)
(-0.000369791 -1.20742 0)
(0.573463 0.372297 0)
(0.80285 0.515218 0)
(0.745905 0.354174 0)
(-0.0993593 0.529391 0)
(-0.212008 0.607632 0)
(-0.198415 0.692324 0)
(0.0282491 -1.23691 0)
(0.0167794 -1.38708 0)
(0.00993757 -1.37764 0)
(0.0277036 -1.36843 0)
(0.0783274 0.279964 0)
(0.364782 0.151179 0)
(0.524054 0.0295643 0)
(-0.244917 0.549483 0)
(-0.196461 0.595294 0)
(0.0119247 0.469084 0)
(0.0213383 -1.30037 0)
(0.0133217 -1.37695 0)
(0.00623171 -1.38385 0)
(0.0154749 -1.37078 0)
(0.0226807 -0.774253 0)
(0.314599 -0.263748 0)
(0.319023 -0.0600387 0)
(-0.078135 0.394212 0)
(-0.0426194 0.35976 0)
(0.0446405 0.044618 0)
(-0.00246183 -1.28777 0)
(0.00115345 -1.3727 0)
(-0.00687083 -1.37797 0)
(-0.00878253 -1.35653 0)
(-0.0065843 -0.849166 0)
(0.0698955 -0.331403 0)
(0.0793272 -0.168905 0)
(0.15817 0.25696 0)
(0.17272 0.339671 0)
(0.0777023 0.258563 0)
(0.00249984 -1.22263 0)
(0.00400898 -1.36284 0)
(-0.00654089 -1.36437 0)
(-0.0097899 -1.34911 0)
(-0.0273479 -0.875116 0)
(-0.0240653 -0.347764 0)
(-0.0279922 -0.164131 0)
(0.16746 0.280182 0)
(0.173119 0.400337 0)
(0.0330185 0.475284 0)
(0.0146138 -1.20038 0)
(0.00667958 -1.3492 0)
(-0.00682109 -1.34942 0)
(-0.00726143 -1.33184 0)
(-0.0365605 -0.842318 0)
(-0.0390291 -0.349754 0)
(-0.0468233 -0.20979 0)
(0.0692503 0.419066 0)
(-0.0633962 0.660552 0)
(-0.00491838 0.469019 0)
(0.0172608 -1.13809 0)
(0.00835517 -1.32904 0)
(-0.00701064 -1.33035 0)
(-0.0109679 -1.30784 0)
(-0.0349958 -0.81307 0)
(-0.027161 -0.352304 0)
(-0.0181659 -0.255162 0)
(-0.113753 0.621222 0)
(-0.116272 0.631477 0)
(0.00452899 0.337067 0)
(0.00986099 -1.13283 0)
(0.00726443 -1.30989 0)
(-0.00778295 -1.31196 0)
(-0.0111463 -1.28109 0)
(-0.0329506 -0.809817 0)
(0.00166975 -0.394315 0)
(0.0357386 -0.312274 0)
(-0.137376 0.571443 0)
(-0.0836566 0.443405 0)
(0.0026609 0.0362019 0)
(-0.0102702 -1.19123 0)
(0.00306773 -1.29029 0)
(-0.0117484 -1.29413 0)
(-0.0212767 -1.25917 0)
(-0.0253549 -0.831446 0)
(0.00893728 -0.510119 0)
(0.063031 -0.403482 0)
(-0.0685976 0.391341 0)
(-0.0539769 0.384579 0)
(-0.0113793 0.261141 0)
(-0.00898165 -1.17142 0)
(0.0010976 -1.27133 0)
(-0.0157048 -1.2682 0)
(-0.0349904 -1.25885 0)
(-0.0296607 -0.867289 0)
(8.5585e-05 -0.604793 0)
(0.0454946 -0.504077 0)
(-0.0681826 0.360621 0)
(-0.0788255 0.377806 0)
(-0.0472021 0.0150587 0)
(0.0214303 -1.22318 0)
(0.0115389 -1.25313 0)
(-0.00405479 -1.24971 0)
(0.00113229 -1.25195 0)
(-0.00661621 -0.880497 0)
(-0.0027519 -0.635227 0)
(0.0100432 -0.53403 0)
(-0.0786471 0.361022 0)
(-0.0458299 0.380013 0)
(-0.0152523 -0.0896437 0)
(0.00690531 -1.24562 0)
(0.00752859 -1.23101 0)
(-0.00934058 -1.23428 0)
(-0.0117764 -1.24037 0)
(-0.0192734 -0.879895 0)
(-0.0243489 -0.641416 0)
(-0.027412 -0.520104 0)
(-0.0639326 0.313597 0)
(-0.0046866 0.301059 0)
(0.0177831 -0.123581 0)
(0.00945589 -1.22026 0)
(0.00690606 -1.21384 0)
(-0.0091353 -1.21278 0)
(-0.0119922 -1.22694 0)
(-0.0279595 -0.855291 0)
(-0.0567828 -0.622458 0)
(-0.0651173 -0.461982 0)
(-0.159956 0.231901 0)
(-0.0579314 0.311723 0)
(0.0158502 -0.158526 0)
(0.00803965 -1.20413 0)
(0.00704526 -1.19736 0)
(-0.00802422 -1.19649 0)
(-0.00700204 -1.20723 0)
(-0.0270013 -0.798831 0)
(-0.0784965 -0.586844 0)
(-0.0820603 -0.418137 0)
(-0.174738 0.107772 0)
(-0.104565 -0.147065 0)
(-0.00632674 -0.402327 0)
(0.00819976 -1.19573 0)
(0.00696582 -1.1818 0)
(-0.00723331 -1.18022 0)
(-0.00629838 -1.18764 0)
(-0.0263766 -0.685437 0)
(-0.111236 -0.515058 0)
(-0.109426 -0.407043 0)
(0.020769 0.268038 0)
(-0.019607 -0.00479739 0)
(-0.00789156 -0.481174 0)
(0.00950513 -1.17937 0)
(0.00766666 -1.17037 0)
(-0.00450324 -1.1665 0)
(-0.00299059 -1.17154 0)
(-0.0185902 -0.567899 0)
(-0.101664 -0.440333 0)
(-0.105722 -0.404102 0)
(0.0726066 0.104409 0)
(0.0654427 0.0698168 0)
(0.0467838 -0.42177 0)
(0.0196433 -1.15933 0)
(0.0134629 -1.15513 0)
(0.00118325 -1.15415 0)
(0.00774876 -1.15568 0)
(0.00187395 -0.508951 0)
(-0.0626883 -0.374542 0)
(-0.0836004 -0.362581 0)
(-0.0250168 0.097744 0)
(-0.0497366 0.153666 0)
(0.0211169 -0.650073 0)
(0.0131774 -1.14669 0)
(0.0104723 -1.14152 0)
(-0.00142718 -1.1417 0)
(0.00151413 -1.14167 0)
(-0.00926715 -0.444726 0)
(-0.0608317 -0.283842 0)
(-0.104004 -0.268448 0)
(-0.153687 0.04786 0)
(-0.100533 0.065421 0)
(0.0386628 -0.684589 0)
(0.0161373 -1.13111 0)
(0.0111945 -1.12676 0)
(-0.00169516 -1.12574 0)
(0.00278108 -1.12736 0)
(-0.00193067 -0.382109 0)
(-0.0513285 -0.181555 0)
(-0.125453 -0.185472 0)
(-0.126152 0.00259067 0)
(0.0084466 -0.231029 0)
(0.0536231 -0.741821 0)
(0.0223625 -1.11842 0)
(0.0112113 -1.10956 0)
(-0.00196256 -1.11641 0)
(0.00342214 -1.11386 0)
(0.0191347 -0.3464 0)
(-0.0235269 -0.0535537 0)
(-0.123085 -0.0827887 0)
(-0.0928636 -0.1933 0)
(0.00495144 -0.4204 0)
(0.00332849 -0.731614 0)
(-0.00876344 -1.10543 0)
(-0.00321643 -1.09239 0)
(-0.0182621 -1.09531 0)
(-0.0303457 -1.10154 0)
(-0.0361367 -0.371588 0)
(-0.0179966 0.0956441 0)
(-0.139313 0.0288324 0)
(-0.0119352 -0.27898 0)
(0.0175098 -0.438551 0)
(0.0148595 -0.7194 0)
(0.00935922 -1.09095 0)
(0.00733862 -1.07268 0)
(-0.00835362 -1.06912 0)
(-0.0114751 -1.0892 0)
(-0.019633 -0.433043 0)
(0.0113455 0.211572 0)
(-0.107804 0.170163 0)
(0.0217933 -0.350431 0)
(0.0319732 -0.42952 0)
(0.0240159 -0.702071 0)
(0.0109482 -1.07604 0)
(0.007866 -1.04998 0)
(-0.0089806 -1.05079 0)
(-0.0122781 -1.07416 0)
(-0.0107522 -0.46651 0)
(0.0130164 0.322505 0)
(-0.0900104 0.249182 0)
(0.005369 -0.412101 0)
(0.0106144 -0.426978 0)
(0.0185706 -0.715929 0)
(0.0124165 -1.05554 0)
(0.00852399 -1.02822 0)
(-0.00819121 -1.0289 0)
(-0.0115676 -1.0545 0)
(-0.0185861 -0.488996 0)
(0.00466053 0.431284 0)
(-0.0611161 0.315582 0)
(0.0107913 -0.429273 0)
(0.00232988 -0.427236 0)
(0.0154223 -0.755705 0)
(0.0110962 -1.03743 0)
(0.00735136 -1.0079 0)
(-0.00867945 -1.00955 0)
(-0.0128937 -1.03652 0)
(-0.0192432 -0.539732 0)
(0.0284634 0.461415 0)
(-0.010915 0.360921 0)
(0.0262569 -0.425184 0)
(0.010965 -0.423292 0)
(0.0195685 -0.761833 0)
(0.0107451 -1.01906 0)
(0.00761826 -0.989112 0)
(-0.00804243 -0.9892 0)
(-0.0127198 -1.01875 0)
(-0.0219289 -0.583533 0)
(0.0254289 0.441235 0)
(0.005865 0.397718 0)
(0.0675615 -0.368581 0)
(0.0354711 -0.398487 0)
(0.0236888 -0.750703 0)
(0.0122455 -0.998688 0)
(0.00732615 -0.971324 0)
(-0.00690154 -0.971783 0)
(-0.0118203 -0.998965 0)
(-0.0256689 -0.626759 0)
(0.0167074 0.40041 0)
(-0.00239585 0.429891 0)
(0.0833227 -0.298097 0)
(0.0436985 -0.337326 0)
(0.0230911 -0.717727 0)
(0.0106 -0.977171 0)
(0.00680332 -0.954435 0)
(-0.00674557 -0.953915 0)
(-0.011234 -0.976922 0)
(-0.0324286 -0.644565 0)
(0.0218419 0.371186 0)
(0.0119264 0.49353 0)
(0.0577469 -0.255654 0)
(0.0363524 -0.288024 0)
(0.0208817 -0.705026 0)
(0.0123327 -0.956822 0)
(0.00691512 -0.937791 0)
(-0.00685271 -0.936847 0)
(-0.0134292 -0.956412 0)
(-0.0339211 -0.669249 0)
(0.0235627 0.282868 0)
(0.0906747 0.521862 0)
(0.0395366 -0.226896 0)
(0.0257272 -0.266638 0)
(0.0199908 -0.701983 0)
(0.0120638 -0.936416 0)
(0.00681704 -0.920332 0)
(-0.0068766 -0.91797 0)
(-0.0127822 -0.935069 0)
(-0.0221407 -0.690533 0)
(-4.07897e-05 0.0117971 0)
(0.113737 0.483025 0)
(0.0475143 -0.186152 0)
(0.02702 -0.250172 0)
(0.0221618 -0.69775 0)
(0.0154785 -0.916827 0)
(0.00827618 -0.900339 0)
(-0.00755875 -0.898344 0)
(-0.0151114 -0.914648 0)
(-0.0126659 -0.69553 0)
(-0.0340711 -0.0372013 0)
(0.0528306 0.418193 0)
(0.0672147 -0.140489 0)
(0.0448276 -0.218223 0)
(0.0241722 -0.667962 0)
(0.0146384 -0.897007 0)
(0.00813672 -0.879366 0)
(-0.00784387 -0.876222 0)
(-0.0141659 -0.89401 0)
(-0.0259789 -0.654319 0)
(-0.0645129 -0.0296108 0)
(-0.0308777 0.274894 0)
(0.0823411 -0.0880845 0)
(0.0529605 -0.162978 0)
(0.0226999 -0.634852 0)
(0.0172418 -0.876961 0)
(0.00885801 -0.855277 0)
(-0.00988864 -0.853334 0)
(-0.0182097 -0.873852 0)
(-0.0274466 -0.630638 0)
(-0.0537898 -0.0171664 0)
(-0.0545342 0.161372 0)
(0.0811164 -0.0247053 0)
(0.0509677 -0.106329 0)
(0.0242296 -0.617182 0)
(0.0157946 -0.8565 0)
(0.00848547 -0.831074 0)
(-0.00870311 -0.827943 0)
(-0.0157088 -0.85307 0)
(-0.0268498 -0.617768 0)
(-0.0325672 0.027673 0)
(-0.0327278 0.125757 0)
(0.0655876 0.036791 0)
(0.0399506 -0.0482771 0)
(0.0252775 -0.5972 0)
(0.0191322 -0.833165 0)
(0.0094234 -0.805604 0)
(-0.00999106 -0.804134 0)
(-0.0187486 -0.830762 0)
(-0.0273066 -0.622326 0)
(-0.00921318 -0.0133936 0)
(0.00962002 0.123419 0)
(0.0504996 0.0816881 0)
(0.0419574 -0.0111649 0)
(0.0270323 -0.587423 0)
(0.0166833 -0.808574 0)
(0.00747394 -0.779762 0)
(-0.00768445 -0.778888 0)
(-0.0162144 -0.806664 0)
(-0.0256806 -0.624485 0)
(-0.0244654 -0.055863 0)
(0.00325599 0.130016 0)
(0.035709 0.100006 0)
(0.0376636 -0.00613367 0)
(0.0294298 -0.57701 0)
(0.0204959 -0.781675 0)
(0.00811219 -0.755047 0)
(-0.00949009 -0.755398 0)
(-0.0200647 -0.780974 0)
(-0.0273652 -0.615656 0)
(-0.0374859 -0.0673284 0)
(-0.0191017 0.118669 0)
(0.0283385 0.0942783 0)
(0.0406992 -0.00627171 0)
(0.0280851 -0.556498 0)
(0.0178529 -0.75296 0)
(0.00523666 -0.728917 0)
(-0.00663042 -0.729869 0)
(-0.0175853 -0.753673 0)
(-0.0297407 -0.591999 0)
(-0.0558615 -0.0453276 0)
(-0.034263 0.0911563 0)
(0.0470957 0.0661296 0)
(0.0527023 0.0184874 0)
(0.0302436 -0.539225 0)
(0.0207014 -0.722141 0)
(0.00828441 -0.705479 0)
(-0.00774967 -0.705288 0)
(-0.0219435 -0.724871 0)
(-0.0303425 -0.585437 0)
(-0.0416324 -0.085109 0)
(-0.00932481 0.00889161 0)
(0.00713811 0.0238386 0)
(0.0321686 0.0540958 0)
(0.0271663 -0.53818 0)
(0.0172814 -0.690943 0)
(0.00757737 -0.679397 0)
(0.000413871 -0.680369 0)
(-0.0148656 -0.694233 0)
(-0.0258086 -0.555264 0)
(-0.0552787 -0.0492924 0)
(-0.060589 0.0155029 0)
(-0.0563021 -0.0150214 0)
(0.00851896 -0.0351274 0)
(0.0322767 -0.543688 0)
(0.0191659 -0.667156 0)
(0.00495953 -0.653173 0)
(-0.00624957 -0.654781 0)
(-0.0133437 -0.668458 0)
(-0.0159634 -0.543959 0)
(-0.0292926 -0.0330901 0)
(-0.0473755 0.0221567 0)
(-0.00533423 -0.0142952 0)
(0.0037314 -0.126116 0)
(0.0194855 -0.525336 0)
(0.00108551 -0.654113 0)
(-0.0141533 -0.641993 0)
(-0.026561 -0.634937 0)
(-0.0369901 -0.654989 0)
(-0.0566226 -0.528514 0)
(-0.0548174 -0.0135535 0)
(-0.0503832 0.0688821 0)
(0.0217352 -0.0267789 0)
(0.00387466 -0.152456 0)
(0.0649224 -0.513702 0)
(0.0393012 -0.60734 0)
(0.0315837 -0.605512 0)
(0.0112866 -0.593019 0)
(-0.00102842 -0.605596 0)
(-0.0194926 -0.531586 0)
(-0.0289226 -0.0162688 0)
(-0.0189888 0.085948 0)
(0.0211188 -0.0141364 0)
(0.0373522 -0.193212 0)
(0.0719203 -0.549137 0)
(0.0501476 -0.5828 0)
(0.0442467 -0.578238 0)
(0.0247109 -0.582544 0)
(0.00802589 -0.576653 0)
(-0.00154491 -0.535138 0)
(-0.0141094 -0.0261819 0)
(-0.0024049 0.0948924 0)
(0.0204654 -0.0217067 0)
(0.0437546 -0.276032 0)
(0.0550698 -0.548388 0)
(0.0199908 -0.549404 0)
(0.00874454 -0.544506 0)
(-0.00688378 -0.5422 0)
(-0.0316275 -0.545249 0)
(-0.0389683 -0.492867 0)
(-0.0244937 -0.0324136 0)
(-0.0118353 0.0883028 0)
(0.0506967 -0.0465516 0)
(0.0624697 -0.288273 0)
(0.0612179 -0.490104 0)
(0.0360405 -0.508974 0)
(0.0188651 -0.508483 0)
(-0.00238505 -0.511366 0)
(-0.0251469 -0.505392 0)
(-0.0429868 -0.510029 0)
(-0.00582948 -0.0799958 0)
(-0.0239021 0.0885685 0)
(0.0528823 -0.0690426 0)
(0.05067 -0.302098 0)
(0.0515994 -0.45562 0)
(0.0167834 -0.466691 0)
(-0.000759728 -0.467969 0)
(-0.0224182 -0.46784 0)
(-0.0435318 -0.461131 0)
(-0.0748244 -0.453017 0)
(-0.0681403 -0.0957074 0)
(-0.0474757 0.085403 0)
(0.0486131 -0.10445 0)
(0.0721357 -0.307466 0)
(0.0586514 -0.404629 0)
(0.0216373 -0.421886 0)
(-0.000361994 -0.433722 0)
(-0.0220744 -0.434771 0)
(-0.040424 -0.425127 0)
(-0.0663072 -0.399188 0)
(-0.0709108 -0.143805 0)
(-0.0456637 0.0553162 0)
(0.00262829 -0.125442 0)
(0.0666284 -0.33893 0)
(0.0536218 -0.364044 0)
(0.0341523 -0.378427 0)
(0.0199098 -0.379237 0)
(-0.010374 -0.381738 0)
(-0.0372306 -0.377071 0)
(-0.0749683 -0.355185 0)
(-0.0777876 -0.228302 0)
(-0.0118708 0.0175853 0)
(0.113085 -0.176177 0)
(0.0674455 -0.291911 0)
(0.0600636 -0.315986 0)
(0.018325 -0.332774 0)
(-0.00328684 -0.334022 0)
(-0.0315926 -0.331243 0)
(-0.0520303 -0.326455 0)
(-0.0717307 -0.30377 0)
(-0.077542 -0.265762 0)
(-0.048644 -0.040713 0)
(0.0910214 -0.228549 0)
(0.0687659 -0.234808 0)
(0.0676394 -0.265847 0)
(0.0405011 -0.28745 0)
(0.0212301 -0.288956 0)
(-0.00716789 -0.284359 0)
(-0.0289258 -0.275145 0)
(-0.0706812 -0.25827 0)
(-0.0765166 -0.211975 0)
(-0.104136 -0.158124 0)
(0.0502332 -0.148312 0)
(0.0506273 -0.197971 0)
(0.03563 -0.235587 0)
(0.00903721 -0.24682 0)
(-0.00346154 -0.25005 0)
(-0.0248453 -0.24867 0)
(-0.0350307 -0.242259 0)
(-0.051443 -0.228487 0)
(-0.05194 -0.189411 0)
(-0.0623416 -0.110806 0)
(-0.145934 0.00634575 0)
(-0.162032 0.0155704 0)
(-0.173142 0.0142985 0)
(-0.174405 -0.00121795 0)
(-0.159293 -0.0147387 0)
(-0.139178 -0.0135071 0)
(-0.124721 -0.00709992 0)
(-0.1146 -0.00279562 0)
(-0.105748 -0.000603255 0)
(-0.0971478 0.000640963 0)
(-0.089386 0.00138082 0)
(-0.0810433 0.00177417 0)
(-0.077485 0.000761273 0)
(-0.0797871 0.00186846 0)
(-0.0854353 0.0024912 0)
(-0.0914642 0.00312097 0)
(-0.0956618 0.00217006 0)
(-0.0986309 0.000331951 0)
(-0.10069 -0.00216572 0)
(-0.102687 -0.00361716 0)
(-0.107755 -0.00384643 0)
(-0.119763 -0.000524693 0)
(-0.140979 0.0107805 0)
(-0.172537 0.0308901 0)
(-0.206921 0.0351709 0)
(-0.228868 0.0250282 0)
(-0.254288 0.017711 0)
(-0.272281 0.00345686 0)
(-0.277406 0.000659708 0)
(-0.275567 -0.00647504 0)
(-0.267932 -0.0116956 0)
(-0.263283 -0.00962434 0)
(-0.264119 -0.00740225 0)
(-0.273163 0.00183757 0)
(-0.289795 0.0206083 0)
(-0.296809 0.0248513 0)
(-0.281383 0.00691237 0)
(-0.227928 -0.0183668 0)
(-0.138084 -0.0319203 0)
(-0.0610062 -0.0531633 0)
(-0.244029 0.0307067 0)
(-0.23558 0.0288365 0)
(-0.217461 0.0141962 0)
(-0.199061 -0.0260933 0)
(-0.186825 -0.0465108 0)
(-0.172615 -0.0472395 0)
(-0.156013 -0.036006 0)
(-0.139948 -0.0283076 0)
(-0.123702 -0.0298071 0)
(-0.10791 -0.0318889 0)
(-0.0920598 -0.0301228 0)
(-0.0802171 -0.0207339 0)
(-0.0755287 -0.000230912 0)
(-0.0743368 0.012355 0)
(-0.0764413 0.0154182 0)
(-0.0805935 0.0138375 0)
(-0.0841645 0.00970807 0)
(-0.0889792 0.0073325 0)