/*--------------------------------*- C++ -*----------------------------------*\
  =========                 |
  \\      /  F ield         | OpenFOAM: The Open Source CFD Toolbox
   \\    /   O peration     | Website:  https://openfoam.org
    \\  /    A nd           | Version:  8
     \\/     M anipulation  |
\*---------------------------------------------------------------------------*/
FoamFile
{
    version     2.0;
    format      ascii;
    class       volScalarField;
    location    "4.6";
    object      p;
}
// * * * * * * * * * * * * * * * * * * * * * * * * * * * * * * * * * * * * * //

dimensions      [1 -1 -2 0 0 0 0];

internalField   nonuniform List<scalar> 
9150
(
-204.635
-205.644
-206.265
-206.743
-206.978
-206.971
-206.733
-206.262
-205.653
-204.638
-224.689
-225.207
-225.625
-225.936
-226.11
-226.138
-225.964
-225.632
-225.211
-224.691
-244.583
-244.868
-245.123
-245.344
-245.455
-245.453
-245.332
-245.118
-244.868
-244.584
-264.323
-264.5
-264.669
-264.831
-264.91
-264.906
-264.825
-264.667
-264.499
-264.322
-283.944
-284.127
-284.263
-284.393
-284.453
-284.451
-284.386
-284.258
-284.124
-283.942
-118.589
-119.408
-119.128
-118.74
-118.575
-118.589
-118.781
-119.203
-119.459
-118.629
-134.136
-134.848
-135.022
-135.088
-134.986
-134.988
-135.089
-135.042
-134.86
-134.149
-150.615
-151.367
-151.671
-152.032
-152.093
-152.085
-152.024
-151.668
-151.367
-150.619
-167.474
-168.615
-169.061
-169.692
-169.876
-169.867
-169.706
-169.065
-168.624
-167.487
-184.471
-186.546
-187.292
-188.001
-188.281
-188.261
-188.005
-187.308
-186.554
-184.476
-24.4432
-26.1186
-28.1536
-29.3888
-30.1448
-30.2739
-29.8307
-28.7504
-26.8171
-25.6825
-45.1333
-45.4568
-46.5392
-46.9388
-47.4188
-47.5525
-47.1141
-46.7946
-45.8634
-45.6852
-65.2552
-65.1386
-66.2184
-65.895
-66.3327
-66.4452
-65.8677
-66.4071
-65.4118
-65.5741
-88.132
-85.3453
-86.3285
-84.8241
-85.0176
-85.1022
-84.8894
-86.5325
-85.4774
-88.3119
-113.978
-104.336
-103.906
-102.511
-102.105
-102.118
-102.468
-103.978
-104.399
-114.112
914.565
914.937
914.863
914.918
914.985
915.114
915.359
916.029
914.298
914.541
893.924
894.682
894.764
895.992
895.92
894.602
896.221
895.456
894.546
897.795
872.589
873.783
875.014
874.967
875.207
876.254
876.706
876.068
875.002
878.611
850.518
851.711
854.932
854.164
855.062
855.175
855.906
856.239
856.136
855.73
829.357
831.168
832.19
833.147
833.678
833.917
834.472
834.13
833.052
831.236
808.374
810.538
811.957
812.045
812.502
812.669
812.928
812.506
811.71
810.226
787.678
788.488
795.891
791.109
791.199
791.608
791.907
792.067
791.348
790.187
766.981
767.457
771.414
770.664
769.902
771.105
771.501
771.415
771.303
770.165
747.598
748.181
748.275
759.648
751.123
751.212
752.1
752.487
752.65
755.283
730.666
731.05
729.685
735.731
735.416
733.394
734.214
735.355
735.703
736.84
713.842
712.695
714.42
716.624
716.782
715.464
716.292
717.698
719.025
719.742
697.402
698.947
699.931
700.489
699.621
698.941
699.721
700.795
701.766
702.547
683.514
683.842
683.722
683.461
683.413
683.075
683.27
683.766
684.396
685.137
665.586
665.144
665.408
665.256
665.16
665.405
665.844
666.37
667.026
667.771
645.988
646.467
646.596
646.468
646.545
647.062
647.574
647.958
648.684
649.857
627.984
627.701
627.153
626.614
626.865
627.515
628.544
630.706
632.663
634.142
609.472
607.661
605.747
605.811
608.586
609.304
611.978
614.484
616.161
617.865
592.736
590.444
591.17
593.003
593.823
595.34
596.358
598.166
599.841
601.173
577.907
576.737
577.093
579.292
580.95
582.949
585.096
587.208
586.612
585.217
564.14
564.967
566.375
565.975
569.255
571.539
571.964
572.968
574.646
572.142
548.852
550.598
557.004
552.757
555.889
557.249
560.056
560.563
559.801
559.467
533.615
537.483
539.978
539.686
539.235
540.778
542.78
543.614
544.653
544.098
522.809
523.049
532.058
526.241
529.031
530.335
529.931
529.62
532.05
532.049
507.461
509.172
518.853
519.593
516.257
517.94
516.669
518.247
518.95
519.472
493.358
495.128
499.219
500.015
500.506
501.086
500.627
502.32
505.871
504.136
477.648
478.134
478.217
482.073
483.473
484.678
484.968
485.206
484.456
484.263
467.758
465.84
471.857
470.363
466.941
468.156
468.071
467.559
466.783
466.675
452.246
449.826
448.763
447.983
448.392
449.154
448.982
448.154
447.666
447.453
433.592
432.053
430.07
428.683
428.033
427.679
427.717
427.593
427.791
428.313
417.031
415.558
414.024
416.639
410.219
409.644
408.137
406.672
406.185
407.755
401.662
400.078
395.769
394.785
394.487
393.517
393.5
395.864
394.959
392.597
387.038
386.574
386.297
388.792
388.4
386.189
383.908
382.211
380.314
379.291
372.06
373.756
375.078
375.991
373.392
369.685
375.346
368.503
371.893
367.481
351.804
354.808
357.298
359.236
359.187
356.108
357.778
359.021
358.875
359.451
333.789
337.027
338.705
340.88
344.457
348.166
356.945
359.495
359.568
359.387
311.623
316.683
320.894
325.076
328.154
331.95
337.366
339.809
342.929
340.943
290.288
296.033
301.509
308.876
315.218
320.246
323.989
326.646
328.068
329.858
271.419
276.615
282.997
293.162
301.442
309.97
316.482
320.683
324.554
326.396
253.5
251.443
250.374
262.139
274.746
286.637
305.319
321.796
325.303
328.139
229.731
232.103
244.565
214.545
227.601
250.993
272.465
304.856
316.951
332.734
203.008
199.582
207.899
193.995
171.677
176.951
207.864
253.325
293.074
312.445
181.569
180.093
167.726
154.381
158.37
168.18
185.094
224.919
250.95
280.911
144.979
146.813
147.168
146.622
141.535
187.863
163.044
172.233
204.301
219.737
114.807
112.501
111.801
116.893
122.686
153.246
138.924
147.623
167.939
174.579
113.007
116.265
117.423
115.93
113.931
123.614
118.234
128.437
127.662
122.162
117.214
117.484
117.748
117.717
117.879
119.616
115.297
106.965
87.5336
86.765
117.898
118.203
118.053
117.739
117.917
120.037
108.254
84.2172
76.0796
74.5666
118.153
118.2
117.899
117.359
115.941
131.137
112.551
88.2247
82.5486
78.6403
117.181
118.684
118.7
118.357
119.292
123.89
96.1389
98.67
89.9869
83.0211
115.784
118.4
118.704
115.329
114.57
116.067
95.3997
108.691
87.8364
90.9854
91.2779
104.874
108.07
94.0343
102.679
99.5373
98.8037
106.629
82.5935
90.9755
80.2783
81.9587
86.1736
85.7406
96.0522
84.5962
86.6422
88.6129
62.435
72.3867
62.3557
64.777
67.9894
70.9455
79.3032
45.4563
66.3829
47.3076
46.9318
55.8234
38.4572
42.0165
46.9271
52.7056
55.9149
16.4798
47.9244
17.8386
29.5447
30.2579
6.06492
15.6848
27.8597
48.7147
37.3793
11.4242
23.0874
4.81387
3.70641
7.44154
-1.03037
-1.24011
-2.81693
23.165
28.4921
7.42216
2.4563
-3.20067
-0.988809
-0.245082
-0.475641
-0.67916
-0.177102
-1.03915
2.15729
36.2455
-6.43764
-3.88793
-1.19026
-0.289081
-0.853122
-0.81572
-0.797618
-1.65049
3.56313
39.6108
-4.81984
-0.713375
-0.591874
-0.515011
-1.13116
-1.06635
-0.971936
-0.841385
5.99201
41.5949
-1.80523
-0.498799
-0.436851
-0.385787
-1.43261
-1.41801
-1.4116
-1.52909
41.3656
7.10405
-0.470192
-0.319752
-0.407609
-0.409238
-1.6599
-1.66517
-1.67812
-1.7453
29.8407
18.559
-0.371063
-0.386537
-0.442732
-0.446826
-1.80447
-1.81512
-1.82825
-1.87361
27.165
21.6393
-0.366553
-0.392152
-0.401552
-0.420098
-1.8896
-1.90121
-1.94722
-2.09533
41.8656
6.25512
-0.1892
-0.336101
-0.375875
-0.406945
-1.90385
-1.90012
-1.90191
-1.88792
22.156
26.8616
-0.437589
-0.417529
-0.422258
-0.43804
-1.89581
-1.88469
-1.88301
-1.88715
24.019
26.6901
-0.473857
-0.45763
-0.460866
-0.467657
-1.88575
-1.87223
-1.86735
-1.86998
25.0909
27.5125
-0.485394
-0.469617
-0.473083
-0.479914
-1.8834
-1.86318
-1.859
-1.85549
27.129
26.1738
-0.481193
-0.481718
-0.488501
-0.495661
-1.89649
-1.88713
-1.89312
-1.86797
26.8887
25.8914
-0.493656
-0.497131
-0.519632
-0.516878
-1.95679
-1.96862
-1.9929
-2.04508
39.2395
12.4724
-0.392137
-0.480616
-0.522884
-0.538916
-1.99961
-2.02804
-2.06406
-2.14414
42.7426
8.47174
-0.382467
-0.486462
-0.533625
-0.565103
-2.02911
-2.05897
-2.09496
-2.17297
41.0546
10.509
-0.434124
-0.518748
-0.550479
-0.595974
-2.04114
-2.0696
-2.10363
-2.18513
40.0467
11.4428
-0.483657
-0.552483
-0.581375
-0.632844
-2.03466
-2.05935
-2.09282
-2.20328
41.7636
9.86037
-0.511648
-0.592762
-0.63005
-0.698126
-2.00759
-2.01652
-2.0223
-2.04178
26.251
24.6518
-0.730695
-0.707455
-0.73229
-0.785474
-1.98236
-1.9842
-1.9829
-1.99472
23.4817
27.6237
-0.846307
-0.810548
-0.82065
-0.869392
-1.9648
-1.9648
-1.96399
-1.96521
24.8042
26.1434
-0.912295
-0.904224
-0.919541
-0.941937
-1.95159
-1.95077
-1.94975
-1.93173
24.1892
26.2147
-0.996535
-1.00203
-1.02082
-1.01413
-1.94077
-1.93919
-1.93754
-1.92191
23.1137
26.5188
-1.10224
-1.09365
-1.09355
-1.0696
-1.9325
-1.93133
-1.9289
-1.93742
23.7488
24.9555
-1.1491
-1.13135
-1.12905
-1.12821
-1.92465
-1.9239
-1.91558
-1.93573
24.224
23.6469
-1.15132
-1.12793
-1.14998
-1.14886
-1.90903
-1.90116
-1.88589
-1.88818
23.6872
23.2308
-1.15269
-1.15492
-1.20732
-1.19792
-1.88003
-1.88187
-1.82729
-1.79217
21.1331
24.7175
-1.18697
-1.21347
-1.23907
-1.23455
-1.89693
-1.89698
-1.83152
-1.82432
21.2541
23.278
-1.28693
-1.29035
-1.2948
-1.30269
-1.90236
-1.89707
-1.82501
-1.90561
21.8675
21.386
-1.44486
-1.35294
-1.34948
-1.34587
-1.90566
-1.8963
-1.81067
-1.90197
22.6041
19.157
-1.53482
-1.38636
-1.38829
-1.3852
-1.93565
-1.9357
-1.83968
-1.9389
15.7381
22.9526
-1.41443
-1.41038
-1.41519
-1.41648
-1.93995
-1.91812
-1.90625
-2.18018
9.05966
22.3825
-1.02049
-1.42885
-1.43799
-1.4442
-1.93252
-1.91681
-1.93968
-2.05769
17.2789
8.29564
-1.37055
-1.50936
-1.49652
-1.50472
-1.96727
-1.96751
-1.94705
-1.04913
15.4788
3.24012
-2.19636
-1.55477
-1.54332
-1.5414
-1.97423
-1.97317
-1.9537
-1.20499
14.0416
3.28786
-2.20366
-1.56188
-1.57656
-1.57464
-1.95357
-1.93283
-1.9276
-2.21838
5.29725
9.91476
-1.92677
-1.6187
-1.61153
-1.61183
-1.91441
-1.90696
-1.87766
-2.72747
2.02372
6.2314
-1.12491
-1.64667
-1.64455
-1.64688
-1.93746
-1.91551
-1.8575
-2.42259
0.591945
3.33786
-1.85311
-1.72775
-1.6858
-1.68608
-1.9634
-1.93637
-1.94207
-2.48953
-0.172614
1.33938
-1.63436
-1.83958
-1.72283
-1.72232
-1.96406
-1.95526
-2.07815
-2.49547
-0.790953
0.0857542
-1.44099
-1.94901
-1.761
-1.75856
-1.97045
-1.97236
-2.22215
-2.25933
-1.12932
-0.740517
-1.00083
-2.25641
-1.79529
-1.79353
-1.96716
-1.96704
-3.19401
-1.77034
-0.840135
-1.06216
-1.94606
-3.32256
-1.79695
-1.82577
-1.96772
-2.1053
-4.59538
-3.20692
-1.97369
-1.50116
-1.84247
-3.86676
-2.83848
-1.86467
-1.9735
-3.68419
-4.82706
-5.02003
-5.39279
-5.73525
-6.04818
-6.17788
-4.67726
-1.89151
-2.67376
-9.71812
-13.3241
-15.0042
-15.6288
-15.528
-14.8026
-12.8972
-9.69947
-2.78494
913.691
908.362
906.664
902.604
899.378
893.019
888.456
882.896
878.639
874.304
869.521
866.583
867.039
867.914
869.305
870.74
875.007
882.117
889.698
897.158
904.913
912.085
917.385
920.981
922.983
922.714
924.951
923.604
923.476
923.669
923.747
923.251
923.445
924.425
925.273
925.614
925.129
924.934
925.039
925.109
892.684
889.978
886.087
881.286
881.196
872.897
865.847
859.819
855.669
849.477
843.121
839.222
841.531
843.464
843.853
845.858
849.229
855.825
865.541
875.299
883.184
889.808
895.748
898.615
901.547
903.415
904.382
905.541
907.886
908.028
907.386
907.352
907.399
905.005
904.686
905.192
905.51
905.304
905.464
905.546
871.401
867.176
862.16
857.831
854.002
848.258
846.73
835.986
835.458
825.74
827.04
820.539
811.887
823.63
824.803
832.873
835.398
834.705
838.571
845.536
854.389
863.945
871.012
876.266
880.108
882.71
884.436
885.955
887.073
886.824
890.327
890.176
888.98
889.548
887.848
886.536
886.78
886.892
886.73
886.932
851.179
842.159
838.789
835.357
832.439
828.381
826.061
826.047
817.93
813.064
807.413
801.696
798.815
799.251
817.366
812.759
818.227
823.777
829.227
833.771
834.522
841.602
848.271
853.67
858.065
861.276
864.029
865.738
866.901
867.619
868.126
868.043
867.907
868.413
866.818
867.14
867.061
867.233
866.881
867.563
829.861
822.309
817.955
814.543
812.839
811.585
808.257
806.103
802.461
798.039
793.06
789.058
786.738
786.486
795.307
800.985
801.197
804.146
811.702
810.926
816.39
823.379
827.619
832.184
836.334
839.822
843.122
845.264
846.582
847.438
847.889
848.05
847.943
847.851
847.796
847.773
847.892
847.905
847.994
848.702
807.878
804.245
799.437
795.427
792.823
792.742
791.972
790.366
788.718
785.05
781.372
779.055
778.216
777.931
779.423
784.372
787.2
789.756
792.324
795.485
799.292
803.572
807.66
811.503
815.164
818.683
821.795
824.263
825.7
826.705
827.523
827.876
827.996
828.15
828.223
828.316
828.383
828.455
828.533
828.578
787.603
784.954
782.87
779.279
776.695
776.928
778.055
780.127
780.739
777.177
774.69
772.925
772.085
771.37
770.408
770.951
773.768
773.797
775.744
778.282
780.841
784.454
787.916
790.935
794.041
797.262
800.22
802.718
804.183
805.192
806.241
807.205
807.85
808.38
808.718
808.852
808.908
809.015
809.378
809.431
769.955
768.486
766.788
765.044
764.006
763.247
765.609
767.062
768.105
767.156
766.263
765.112
763.906
762.883
760.912
760.261
759.139
759.834
760.522
762.203
764.444
766.528
769.173
771.209
773.337
776.095
778.574
780.183
781.39
782.409
783.505
784.768
786.263
787.652
788.104
788.414
789.164
789.729
790.954
790.517
752.608
751.326
751.848
751.562
751.117
750.699
751.882
753.379
755.453
754.15
756.147
756.447
755.764
752.179
749.47
748.236
745.506
745.726
746.158
747.302
748.946
750.359
751.469
752.306
753.173
754.808
755.508
756.438
757.165
757.441
758.128
760.587
764.338
767.223
769.425
769.758
770.213
771.506
772.177
772.301
736.246
735.142
733.814
734.299
734.793
735.434
735.987
737.14
737.977
737.242
736.195
739.558
738.435
733.21
731.728
731.138
731.191
731.689
732.631
733.945
734.935
735.318
735.303
735.002
733.634
732.305
737.846
735.679
738.268
738.72
739.575
744.522
749.686
754.257
754.574
753.776
753.372
753.979
754.737
755.463
719.406
718.932
718.568
718.252
717.98
718.615
719.102
719.798
720.29
720.37
720.193
719.528
718.694
718.232
717.84
717.731
717.678
718.184
719.158
722.245
721.541
721.612
721.208
719.68
716.643
716.145
720.325
719.218
720.927
721.318
724.686
729.113
733.417
734.866
736.8
737.52
737.496
737.533
738.734
739.601
702.73
702.543
702.842
702.936
702.614
702.332
702.887
703.437
703.917
704.038
704.115
703.978
703.918
703.806
703.729
703.762
703.971
704.603
705.745
708.944
708.644
709.6
709.501
706.665
704.827
702.372
702.807
704.278
703.397
707.498
709.649
710.274
711.901
713.104
713.699
715.281
718.187
720.617
722.281
723.353
685.727
686.418
687.12
687.549
687.307
686.515
686.784
687.211
687.512
687.77
688.127
688.318
688.46
688.64
688.973
689.477
690.186
691.5
692.919
694.603
695.166
695.368
695.805
693.676
693.823
692.755
691.879
691.303
688.233
686.97
685.181
685.202
682.418
681.181
682.199
685.871
689.256
692.454
694.172
697.109
668.845
671.1
671.713
671.278
670.838
670.965
670.603
671.49
671.735
671.859
672.17
672.322
672.499
672.942
673.545
674.381
675.31
676.467
677.892
679.037
679.51
680.046
681.299
680.885
681.695
681.843
679.387
676.274
671.808
666.315
658.873
658.511
645.584
641.11
643.164
649.133
656.207
662.208
666.01
670.737
651.625
656.35
654.491
654.729
655.364
654.634
655.008
655.483
655.795
656.035
656.175
656.467
656.43
656.733
657.542
658.559
659.522
660.189
661.068
662.028
664.072
664.795
665.143
665.583
665.956
671.623
668.522
658.372
654.484
647.021
639.445
632.467
622.352
617.366
617.82
623.814
633.512
636.68
640.802
644.027
635.694
636.733
637.557
638.089
638.305
638.321
638.986
639.511
639.899
640.175
640.325
640.35
640.402
640.199
640.85
641.921
643.04
643.644
643.615
647.066
645.492
648.358
647.499
646.638
646.835
647.795
649.617
640.956
637.792
628.334
623.242
615.489
606.379
601.37
601.937
611.139
616.094
618.063
621.734
622.654
619.274
620.266
620.963
621.415
621.689
622.012
622.512
623.005
623.712
624.057
623.959
623.521
622.837
622.596
622.746
623.357
623.883
624.317
626.705
625.259
626.305
626.585
627.024
627.548
629.114
629.146
626.091
622.6
619.494
614.663
611.201
606.299
601.168
597.192
596.357
601.776
601.11
606.3
608.614
614.452
602.487
603.36
603.986
604.435
604.781
605.051
605.329
605.742
605.831
606.015
605.432
604.85
604.445
604.206
604.144
604.323
604.61
605.21
610.869
605.412
606.03
606.704
607.791
608.56
608.487
608.106
607.367
604.745
603.55
601.298
599.763
598.725
596.89
593.952
593.375
593.658
595.537
597.876
599.598
604.723
586.153
587.067
587.445
587.542
587.699
587.67
587.548
587.504
587.435
587.146
586.598
585.812
585.011
584.344
584.31
584.932
585.913
588.173
589.065
588.22
587.846
588.423
589.476
590.082
589.198
589.532
590.468
589.967
588.719
588.125
589.782
590.128
588.289
586.253
586.259
587.018
588.364
590.261
591.418
595.586
572.327
571.774
571.551
571.031
571.241
570.505
570.835
570.899
569.672
569.05
567.837
566.277
564.412
562.925
562.738
563.958
566.102
568.214
569.31
571.039
572.181
572.393
571.604
571.852
572.739
573.124
573.641
575.089
574.924
575.187
575.619
576.97
579.093
578.54
578.414
578.059
578.265
578.955
579.325
583.519
558.52
557.331
555.954
554.829
554.548
553.908
553.547
554.634
555.608
555.359
553.531
549.832
545.399
541.169
539.714
541.555
544.94
548.432
549.726
549.652
549.722
550.455
551.908
552.502
553.672
555.846
556.845
557.558
558.367
560.647
562.142
560.641
561.955
562.547
563.092
563.525
564.99
565.688
565.869
568.349
544.001
542.896
542.326
543.169
538.988
536.031
534.415
534.238
535.451
535.667
533.163
528.089
522.13
521.158
516.334
516.915
520.136
522.775
525.18
525.988
526.415
527.174
528.688
532.19
535.876
535.925
538.797
539.58
539.615
540.338
541.264
542.349
543.437
544.462
545.649
546.615
547.275
547.878
551.488
550.783
531.663
532.553
532.506
531.807
529.883
527.14
524.502
519.45
514.161
510.197
505.289
500.29
495.307
493.451
494.612
489.051
488.326
487.856
490.173
492.46
493.315
496.661
502.675
507.499
513.984
515.235
517.917
520.083
522.251
524.007
525.254
526.305
527.308
528.725
531.951
532.051
533.03
533.831
534.438
534.484
520.433
520.281
520.461
520.523
519.544
517.441
511.788
501.418
494.166
486.376
477.826
468.622
464.81
464.206
463.186
462.225
456.644
453.937
457.016
462.001
467.41
467.726
470.686
478.994
488.071
493.732
498.624
502.793
506.41
509.91
512.172
513.574
514.708
515.465
518.149
517.768
518.801
519.032
519.274
522.371
503.97
505.988
506.813
504.327
503.69
500.609
494.77
486.422
475.371
467.94
462.401
456.784
460.81
462.861
461.751
459.189
456.254
453.478
451.319
451.45
452.77
453.761
453.826
457.135
466.599
472.446
479.589
486.032
491.839
496.06
499.276
501.317
502.574
502.481
503.525
503.077
503.851
503.57
503.17
505.758
485.157
486.156
485.92
484.919
482.893
479.394
474.294
467.736
460.078
461.333
465.723
463.849
460.7
458.718
457.005
454.911
452.232
449.914
447.143
444.105
443.238
443.99
445.301
446.966
448.92
451.692
459.916
467.664
474.54
479.315
482.329
485.206
486.807
486.192
490.149
486.576
487.92
487.437
487.543
488.054
467.095
466.972
465.797
464.003
461.944
459.453
455.929
451.192
447.004
444.035
441.937
441.271
439.756
440.858
442.86
441.132
444.217
443.329
436.892
435.605
435.569
436.073
437.227
438.706
440.144
441.556
445.352
454.175
456.471
458.29
460.766
464.095
467.567
467.544
471.651
468.379
470.957
469.132
472.614
471.455
447.079
446.388
445.415
443.806
441.481
439.43
437.459
435.571
434.084
432.74
431.561
430.778
431.635
432.778
433.434
433.301
434.619
434.727
432.988
430.785
429.946
430.128
430.633
431.42
432.435
433.008
435.622
443.081
440.648
439.772
438.228
440.257
443.069
447.291
452.234
450.454
454.859
450.977
453.166
453.626
428.834
428.703
427.299
424.036
421.333
419.265
418.941
419.292
419.787
420.224
419.468
418.958
419.643
419.568
418.954
419.205
419.974
420.005
420.098
419.582
421.051
424.273
426.288
426.555
426.737
427.159
427.755
428.284
431.096
433.394
434.547
429.827
424.699
430.474
434.865
436.557
439.486
436.652
438.074
437.41
411.302
412.954
416.594
422.565
400.171
393.885
396.01
399.348
404.633
407.415
409.241
406.868
404.445
403.379
404.519
403.956
405.261
407.069
405.78
408.296
409.008
410.797
413.245
416.291
418.893
419.29
422.869
424.03
424.836
425.933
426.82
422.057
420.008
422.175
423.605
427.574
427.496
426.859
428.49
428.628
395.943
397.743
397.225
389.943
394.705
393.586
380.051
378.21
381.861
391.251
394.105
390.577
389.935
388.919
390.396
391.937
388.979
391.115
392.703
393.162
395.246
397.841
399.844
402.589
405.571
406.847
408.125
412.156
417.185
418.207
416.049
412.588
412.767
413.406
417.106
415.712
415.393
417.646
414.987
414.826
382.377
381.184
377.832
373.932
371.488
383.71
382.778
373.4
367.563
369.962
368.724
365.106
363.804
365.403
368.328
369.821
369.882
370.869
372.28
376.327
374.274
376.081
378.02
380.207
382.282
384.415
386.48
388.569
390.477
392.586
395.126
398.769
398.892
401.67
403.052
402.041
401.777
399.386
399.828
399.009
360.707
367.584
370.093
369.038
375.377
378.064
375.858
359.079
345.598
338.366
330.085
331.473
333.482
337.583
340.661
340.95
342.948
345.758
348.211
348.929
350.4
351.586
353.058
354.684
356.434
358.035
360.102
363.98
367.833
371.553
374.834
377.444
381.517
383.076
380.765
382.071
381.37
380.735
379.042
378.269
365.267
366.684
364.587
360.167
359.348
360.22
353.473
340.296
324.094
310.099
305.497
305.487
308.578
312.855
316.429
318.755
318.899
321.608
322.464
322.698
324.183
325.736
325.973
328.539
332.469
332.189
334.555
337.559
341.025
345.653
349.884
351.346
354.822
353.901
353.453
352.964
353.316
354.194
354.001
353.813
358.971
352.168
348.408
350.74
348.249
342.245
331.976
320.023
306.702
294.751
288.098
286.626
289.628
294.93
298.711
300.969
299.47
302.797
294.66
295.825
300.166
305.498
308.157
306.61
306.346
305.483
305.719
307.674
310.991
314.571
316.736
317.458
316.713
316.841
318.397
321.246
323.238
325.177
326.707
327.397
340.226
341.157
339.751
336.408
331.478
324.998
316.793
306.997
298.941
293.209
288.715
284.609
281.398
284.175
285.202
285.171
283.876
281.424
278.037
283.795
286.949
289.736
290.307
287.034
284.735
281.905
280.886
281.934
289.867
289.112
286.859
286.183
285.542
284.448
287.354
293.45
299.712
299.045
301.505
302.731
330.561
330.131
327.254
323.798
318.576
311.157
302.225
295.951
293.012
283.091
282.868
278.497
276.215
279.383
272.451
272.135
270.215
270.299
268
270.368
272.183
272.898
271.324
269.887
267.377
263.409
264.36
266.89
268.739
269.01
268.567
265.53
265.878
265.794
267.772
271.334
274.114
276.399
278.52
279.697
325.901
323.24
318.881
313.177
306.977
299.909
292.088
287.487
281.153
274.814
269.683
265.785
262.767
260.359
259.005
257.892
257.063
256.783
256.72
256.463
260.926
255.222
255.2
254.585
250.351
252.529
253.339
254.324
254.904
254.76
252.891
247.081
249.002
248.768
249.401
250.197
253.77
256.123
258.565
259.693
325.947
320.46
312.589
304.33
296.511
289.546
282.915
279.112
273.522
268.558
264.433
259.314
255.551
251.195
247.816
245.17
242.686
241.441
241.929
242.887
246.955
236.158
238.766
240.165
235.909
239.522
240.386
240.113
239.161
237.394
235.717
234.576
232.093
233.602
230.293
233.679
238.463
241.45
243.744
244.337
320.908
315.626
306.555
296.857
288.084
280.175
273.636
268.572
265.205
262.11
257.566
250.728
247.097
241.35
236.641
232.777
228.824
224.655
222.901
232.84
228.831
225.302
224.665
224.283
223.708
225.335
225.924
222.994
218.607
217.222
215.134
214.431
215.074
217.316
220.6
224.391
228.029
230.133
231.528
232.311
309.531
300.021
291.058
282.264
274.624
269.154
264.235
258.726
254.517
252.728
248.318
240.452
234.282
228.222
224.567
222.538
219.905
212.016
213.38
216.026
210.104
209.459
208.142
207.219
206.983
206.757
205.902
203.301
197.456
193.641
193.195
195.55
199.621
203.999
209.525
216.778
220.955
221.344
221.411
221.506
288.509
271.518
263.326
257.846
253.35
251.172
249.275
247.763
244.653
241.05
235.619
226.721
224.866
223.972
218.007
211.321
214.081
201.032
201.816
196.536
195.8
192.817
190.293
189.397
189.602
188.607
183.223
172.676
160.258
151.519
156.204
171.326
187.753
198.334
204.319
212.393
210.537
212.035
212.913
212.861
245.189
226.452
218.82
220.448
222.307
223.459
224.854
226.075
228.143
227.339
222.159
214.931
214.532
209.5
204.689
200.242
195.601
191.199
185.191
181.392
177.91
173.61
169.784
167.595
166.573
161.4
147.193
135.152
135.66
140.761
145.429
146.855
148.63
152.206
158.348
168.43
177.295
185.273
189.955
191.919
179.205
181.463
168.775
176.73
184.152
188.894
195.637
197.987
202.151
204.989
205.361
201.556
197.613
194.167
190.232
186.406
182.204
176.248
167.852
160.547
153.297
145.378
140.058
137.749
136.731
134.136
130.745
140.131
140.225
140.341
140.16
139.734
135.975
126.802
119.231
124.789
140.8
151.007
157.77
164.484
124.927
129.567
134.986
144.003
155.515
161.014
165.916
173.664
174.021
179.23
183.016
184.079
181.478
178.301
173.927
170.447
166.197
160.418
152.586
143.088
131.58
121.203
113.928
111.876
116.293
124.267
127.158
136.55
139.092
139.174
139.013
138.242
136.523
133.133
125.037
118.986
126.051
133.703
135.905
138.201
86.4144
92.4449
103.14
116.421
129.3
134.68
138.463
145.541
148.717
152.646
157.257
160.634
162.154
160.134
156.491
153.466
151.37
147.61
139.687
127.154
116.765
109.573
105.266
106.134
110.957
116.945
119.936
121.713
126.509
132.745
134.646
132.805
129.775
124.656
115.922
116.72
118.805
119.822
113.633
118.912
74.1989
79.0948
87.6943
99.4583
109.792
114.886
115.575
121.956
124.794
128.06
132.5
135.572
137.05
138.17
138.56
136.692
133.771
127.818
122.042
111.841
100.903
90.749
88.0922
91.8765
92.4458
94.1864
98.4415
106.2
111.805
124.322
120.513
119.352
113.959
109.152
110.799
111.755
113.71
108.52
122.548
115.669
78.7617
80.8445
83.8538
90.4428
95.847
98.7771
99.1292
100.365
103.591
105.209
110.362
113.605
115.55
116.762
117.192
117.8
119.114
117.179
108.7
87.57
73.4643
60.5876
56.3505
65.3583
64.635
68.0154
78.0951
84.9017
95.2603
103.513
113.013
116.09
110.132
99.3788
100.454
98.8635
101.895
103.925
114.222
109.221
83.4944
83.3974
83.4467
83.4325
82.7992
84.6836
87.4388
82.7806
86.5383
88.9182
93.3818
97.006
99.33
100.232
100.333
99.2958
97.0536
91.2916
83.2884
69.7011
56.309
56.8794
53.7487
52.0052
50.6453
44.8695
53.2841
68.4175
77.776
87.0913
95.1029
98.0429
99.1917
96.3484
99.8269
102.516
102.922
102.337
105.297
115.185
79.6844
80.7327
79.4571
78.9901
77.8373
74.997
77.5545
80.0383
77.5719
81.5185
81.6296
84.3248
86.1793
85.3597
82.367
77.6295
71.0276
63.4665
58.1595
53.654
47.8581
49.2758
48.6868
48.2304
48.1002
48.1248
48.6496
44.999
55.2377
67.5043
76.7466
83.6074
90.3731
94.1558
97.7404
99.8758
99.3339
99.3979
100.387
117.575
86.291
70.6983
65.5747
82.6099
69.2243
66.1823
64.6243
66.6776
65.4125
69.5922
71.3456
71.6423
71.5311
68.4517
61.3557
51.0955
42.1754
39.8947
41.5583
43.9584
45.3834
47.2998
47.715
47.3084
47.2112
47.2727
47.3368
43.83
42.9371
54.9503
65.3636
75.0825
81.1997
86.998
91.3397
92.2959
91.6698
92.2205
92.134
110.084
68.5221
61.2817
61.7189
67.1409
54.2271
54.2982
51.0286
52.9954
53.4668
54.4395
55.7914
54.8737
53.9469
50.0357
42.1967
32.6549
40.7781
43.554
44.7468
45.7319
46.6951
47.5632
47.6686
47.0311
46.7854
47.1125
46.7389
38.4148
43.4611
48.4614
53.286
60.3002
66.9164
77.2526
76.0133
77.247
80.8089
78.3388
77.5179
88.6892
53.3455
46.8834
55.5476
57.8754
42.3093
42.1067
40.3069
38.6701
38.3784
38.2444
38.6129
38.717
37.6808
35.6808
32.5709
29.699
34.8184
41.8173
44.2985
45.4725
46.748
47.3402
47.1645
45.5181
41.3199
37.7059
34.1355
34.1844
27.1083
28.1341
28.7583
20.207
39.7654
47.5416
57.7762
62.7351
58.3512
63.6391
61.1632
69.7905
28.5081
31.0229
27.094
24.7693
24.1823
25.606
22.8119
21.548
21.1079
21.2191
21.7543
21.801
21.8992
22.2679
23.6103
26.9053
30.1639
29.9612
32.0527
36.9342
39.2801
40.9511
50.4288
52.9327
49.331
42.1594
29.4282
20.9087
17.6465
15.3036
12.1897
12.1687
17.8108
19.5506
24.0541
38.3767
43.5968
49.7414
48.8735
56.8277
4.65579
0.241469
5.24524
7.09888
7.28758
7.00356
8.25759
8.51478
7.90315
7.23635
6.45572
4.55334
3.03885
2.89982
4.92945
10.0594
17.1404
23.9589
27.719
29.9628
27.2955
18.8233
12.0522
12.4269
14.2013
16.8614
11.3309
4.80865
11.2216
12.5456
11.0707
12.7964
16.3074
18.143
20.5543
20.414
20.5704
30.5671
40.0441
44.5752
-0.130072
-0.146204
-0.147238
0.0270991
0.0589326
0.202888
1.06589
1.01783
1.08292
0.831657
0.353742
0.266612
0.339462
0.387678
0.338418
0.503527
1.47205
1.20844
0.235926
-0.208371
2.5731
6.25282
8.90678
9.02818
9.14289
7.15483
5.04404
4.53595
5.92205
5.44917
6.9863
11.2779
15.4742
17.1331
19.0859
23.1736
25.8428
28.1936
29.7655
31.9973
-0.261611
-0.245997
-0.245003
-0.241604
-0.252402
-0.287509
-0.286291
-0.150496
0.00722301
-0.0491216
-0.0968074
-0.131738
-0.00305717
0.0318445
-0.306017
-0.260636
-0.216061
-0.399289
-0.560292
-0.531465
-1.61861
0.491938
2.15963
0.571151
1.3269
1.17028
1.782
6.31088
9.96309
4.1811
6.49429
7.89658
12.4202
15.2704
17.0332
15.205
12.9033
12.5402
11.2184
12.2912
-0.387999
-0.346622
-0.337598
-0.286156
-0.283755
-0.317358
-0.331999
-0.378957
-0.272984
-0.486138
-0.378132
-0.392745
-0.354631
-0.411436
-0.460376
-0.538828
-0.437989
-0.491401
-0.46806
-0.570005
-0.585792
-0.458924
-0.34957
-0.153938
0.00413037
0.0162371
-0.0155402
-0.0840739
-0.173648
0.322986
0.847835
1.45904
3.3845
5.7217
7.1585
7.51037
7.51515
7.46882
7.43553
7.35363
-0.381915
-0.375662
-0.36339
-0.356079
-0.352326
-0.362767
-0.398419
-0.454919
-0.304207
-0.476415
-0.458656
-0.45117
-0.441436
-0.477158
-0.513274
-0.549045
-0.565683
-0.558221
-0.581248
-0.492112
-0.402607
-0.494683
-0.362033
-0.243345
-0.19401
-0.253308
-0.362501
-0.343186
-0.357486
-0.280097
0.237247
0.134573
1.92613
3.63817
4.65785
5.91586
6.53126
6.82565
6.91933
6.89889
-0.409119
-0.410716
-0.419905
-0.413353
-0.424641
-0.443516
-0.466942
-0.500134
-0.498335
-0.505728
-0.465047
-0.447014
-0.478359
-0.517256
-0.549912
-0.580891
-0.600915
-0.614212
-0.629448
-0.636069
-0.62598
-0.617554
-0.638717
-0.544061
-0.386593
-0.446197
-0.556103
-0.503262
-0.500632
-0.775475
-0.783317
-0.727723
-1.05672
-0.277934
1.61481
3.17475
4.25958
4.59578
4.87575
5.06308
-0.452426
-0.455834
-0.440964
-0.454179
-0.462104
-0.479032
-0.488497
-0.504603
-0.518363
-0.537173
-0.550202
-0.546643
-0.539057
-0.528599
-0.575517
-0.610768
-0.63872
-0.640648
-0.664849
-0.668104
-0.646999
-0.656692
-0.682852
-0.684017
-0.659796
-0.580201
-0.613353
-0.626254
-0.670869
-0.775301
-0.922347
-1.09377
-1.23317
-1.12425
-0.710193
-0.190135
0.74581
1.61603
2.13423
2.42086
-0.435872
-0.444442
-0.447228
-0.456413
-0.46733