/*--------------------------------*- C++ -*----------------------------------*\
  =========                 |
  \\      /  F ield         | OpenFOAM: The Open Source CFD Toolbox
   \\    /   O peration     | Website:  https://openfoam.org
    \\  /    A nd           | Version:  8
     \\/     M anipulation  |
\*---------------------------------------------------------------------------*/
FoamFile
{
    version     2.0;
    format      ascii;
    class       volScalarField;
    location    "1.95";
    object      p;
}
// * * * * * * * * * * * * * * * * * * * * * * * * * * * * * * * * * * * * * //

dimensions      [1 -1 -2 0 0 0 0];

internalField   nonuniform List<scalar> 
9150
(
-205.002
-205.99
-206.582
-207.075
-207.315
-207.311
-207.079
-206.594
-206.004
-205.01
-225.036
-225.557
-225.962
-226.287
-226.456
-226.474
-226.306
-225.972
-225.566
-225.043
-244.929
-245.219
-245.47
-245.69
-245.807
-245.806
-245.685
-245.468
-245.224
-244.933
-264.67
-264.85
-265.018
-265.177
-265.259
-265.263
-265.181
-265.02
-264.853
-264.673
-284.288
-284.477
-284.614
-284.743
-284.804
-284.804
-284.739
-284.612
-284.478
-284.29
-118.682
-119.74
-119.653
-119.142
-119.004
-119.016
-119.141
-119.68
-119.753
-118.699
-134.443
-135.153
-135.42
-135.488
-135.4
-135.391
-135.479
-135.409
-135.147
-134.436
-150.982
-151.721
-152.053
-152.398
-152.463
-152.459
-152.413
-152.057
-151.756
-151.016
-167.884
-168.98
-169.398
-170.052
-170.216
-170.221
-170.075
-169.434
-169.02
-167.929
-184.747
-186.86
-187.6
-188.351
-188.605
-188.592
-188.348
-187.613
-186.867
-184.751
-24.8383
-26.581
-28.6781
-29.8596
-30.3552
-30.3073
-29.721
-28.6851
-27.0807
-26.2402
-45.5371
-45.7381
-46.7486
-47.2043
-47.7061
-47.7423
-47.381
-47.1147
-46.2541
-46.1819
-65.4203
-65.4121
-66.3557
-66.0445
-66.5382
-66.6165
-66.2267
-66.6408
-65.6823
-65.7718
-88.2931
-85.6623
-86.7081
-85.2043
-85.4383
-85.4855
-85.1692
-86.8082
-85.7766
-88.4237
-115.094
-104.815
-104.574
-102.91
-102.645
-102.648
-102.926
-104.619
-104.869
-115.163
368.621
384.338
397.756
408.253
416.247
423.827
429.889
435.5
441.313
446.236
330.024
350.593
362.981
372.357
381.918
389.12
392.419
395.838
401.542
408.511
308.383
324.338
336.707
338.55
345.541
356.067
359.372
353.971
357.242
368.708
303.687
316.496
328.627
336.558
341.663
344.638
343.388
335.379
334.805
340.529
292.059
307.753
317.813
325.599
331.518
338.937
340.906
339.213
336.497
335.905
282.937
294.798
304.862
314.608
321.895
322.566
327.205
330.824
331.149
330.247
257.384
269.133
276.978
282.863
290.141
298.132
306.35
312.875
315.63
324.211
227.116
227.86
237.42
243.577
253.916
263.249
269.225
274.193
278.032
279.475
220.896
225.184
230.026
226.175
229.614
236.923
241.374
245.123
247.077
243.932
213.719
216.145
220.368
219.3
220.001
221.634
221.287
218.716
212.825
197.142
213.712
216.494
216.59
217.127
213.61
209.216
202.815
192.754
176.122
151.565
212.588
213.973
214.087
212.615
207.359
201.623
192.617
174.987
152.033
132.801
212.035
213.082
210.482
208.152
205.631
198.313
182.29
163.938
150.59
145.886
210.628
220.073
213.606
209.953
207.393
190.13
175.204
171.592
169.553
154.726
209.611
213.107
207.857
215.749
195.036
179.5
178.619
177.66
170.889
166.081
214.701
213.406
210.757
189.042
178.925
175.661
174.606
173.901
171.985
168.042
219.807
222.833
220.83
178.878
161.852
165.533
165.482
164.914
162.092
150.702
226.689
234.22
223.272
202.366
143.003
155.178
156.516
154.58
150.469
142.436
228.92
224.281
212.191
164.997
146.481
154.365
153.7
149.357
142.935
136.057
214.377
205.028
193.894
164.629
140.321
161.968
143.619
136.05
132.839
129.538
176.281
169.64
159.251
138.859
126.106
137.281
126.685
128.114
126.964
124.633
133.967
134.77
123.527
123.135
131.098
136.506
132.897
130.084
125.932
121.904
108.969
118.74
126.709
112.757
126.886
137.893
131.435
128.974
125.143
120.435
108.251
100.416
125.826
101.275
111.934
125.212
138.159
133.563
128.133
122.301
73.8096
68.4307
94.8358
73.1467
85.481
114.405
146.862
139.259
132.95
126.184
25.5919
19.7023
40.2827
28.5631
43.2879
98.9278
147.561
142.579
132.96
127.82
14.9145
4.23489
10.7342
9.17636
11.5255
70.0546
124.788
162.071
115.754
113.848
22.1174
4.97417
6.65738
5.72955
6.81899
43.621
63.8193
105.664
78.7755
83.6833
38.3634
4.93242
8.9909
7.90531
11.1364
28.1472
14.7435
33.3458
29.796
34.6226
18.5902
5.75081
8.38177
4.93553
10.3347
27.8326
0.51973
7.44931
5.50957
8.97669
4.35011
4.93725
5.7383
2.53516
7.61835
31.7989
-0.043388
4.68981
-4.95002
-0.71648
5.49749
5.08467
5.60557
4.03757
10.0408
37.864
2.88271
6.81746
-9.49545
-0.243135
5.83222
5.69985
5.15869
4.66836
27.0223
21.4128
1.48069
4.38915
-9.10412
0.852034
6.63476
6.44051
5.55403
0.908533
10.6055
7.24602
2.81705
3.45296
-3.33459
0.346153
4.39866
6.18795
10.6061
17.5508
3.57341
2.99743
4.40388
3.66888
2.49247
0.733121
10.7954
29
25.3777
32.7895
18.8719
4.27149
2.5535
1.77051
0.842982
0.432965
0.529376
13.7309
4.59601
24.2194
15.6582
25.0495
1.28736
1.30484
0.943508
0.273663
1.10611
-2.8603
-3.34036
5.11012
29.8718
29.4955
1.0233
1.13086
0.815775
0.327347
-0.981148
-0.944134
-0.749568
-0.606417
26.9259
31.3095
0.297954
0.550263
0.440015
0.276086
-1.20307
-1.28763
-1.41754
-2.85132
49.0939
3.66304
0.429571
0.305102
0.234557
0.152568
-1.28452
-1.3073
-1.34664
-1.64699
45.647
6.36992
0.317962
0.180426
0.119483
0.0719866
-1.33067
-1.32313
-1.26038
-1.15328
6.69279
44.3253
-0.182328
-0.0600087
-0.0429384
-0.0425789
-1.34604
-1.33741
-1.26038
-1.11695
8.28507
41.6983
-0.284063
-0.175371
-0.140123
-0.123472
-1.35279
-1.37062
-1.42154
-1.50272
41.228
8.31178
0.00109573
-0.139049
-0.167995
-0.174321
-1.38839
-1.41513
-1.48873
-1.53356
39.2096
11.3795
-0.101056
-0.212003
-0.232518
-0.245243
-1.39353
-1.41119
-1.4333
-1.42697
26.5509
25.8756
-0.324593
-0.331736
-0.330179
-0.346679
-1.39287
-1.39825
-1.38639
-1.38464
26.7088
26.9908
-0.420231
-0.417273
-0.426905
-0.435935
-1.37208
-1.38842
-1.29775
-1.38531
23.9231
24.1484
-0.472074
-0.465623
-0.488691
-0.489626
-1.36068
-1.36062
-1.30398
-1.29968
19.3693
20.0034
-0.493358
-0.488645
-0.515582
-0.509279
-1.35802
-1.35591
-1.27927
-1.27416
16.88
17.5702
-0.504021
-0.500775
-0.526904
-0.519561
-1.33578
-1.34114
-1.27084
-1.2688
15.2286
18.363
-0.50384
-0.499608
-0.525404
-0.521162
-1.29628
-1.3428
-1.30514
-1.30542
15.9961
17.4324
-0.482442
-0.480844
-0.509608
-0.510076
-1.34953
-1.35024
-1.33789
-1.33823
18.2778
18.0626
-0.454451
-0.455276
-0.486304
-0.485199
-1.35094
-1.35215
-1.35086
-1.34996
21.8579
21.9345
-0.43307
-0.438373
-0.469952
-0.465366
-1.36346
-1.36407
-1.36289
-1.36224
25.5274
25.1658
-0.455795
-0.447673
-0.473539
-0.462513
-1.37984
-1.37872
-1.35399
-1.37976
26.6209
27.5013
-0.490949
-0.458396
-0.4895
-0.480985
-1.40181
-1.40232
-1.34891
-1.35668
26.9942
27.3692
-0.52073
-0.494674
-0.51082
-0.529228
-1.42327
-1.43827
-1.36621
-1.39341
31.376
21.7997
-0.499675
-0.507768
-0.532515
-0.572639
-1.42727
-1.46498
-1.44284
-1.58806
45.9338
6.48092
-0.403782
-0.531146
-0.590589
-0.626483
-1.38522
-1.39692
-1.39071
-1.4329
31.6753
20.2325
-0.638495
-0.692088
-0.723291
-0.731762
-1.34084
-1.30849
-1.27421
-1.19701
15.143
36.4473
-0.949501
-0.870407
-0.854614
-0.838928
-1.3235
-1.28894
-1.24611
-1.25426
24.5134
27.325
-0.926768
-0.921711
-0.912277
-0.904193
-1.32018
-1.2764
-1.26348
-1.27081
25.9554
25.4161
-0.972379
-0.968281
-0.962329
-0.952749
-1.33114
-1.30369
-1.30103
-1.30182
23.7296
27.2048
-1.02031
-1.0232
-1.01891
-0.998468
-1.35803
-1.32713
-1.28682
-1.13543
4.58192
46.7795
-1.24919
-1.10107
-1.06973
-1.0418
-1.40969
-1.407
-1.4104
-1.47479
31.9914
18.393
-0.978111
-1.02826
-1.04687
-1.05168
-1.4363
-1.43404
-1.43049
-1.43544
25.5261
25.7768
-1.06142
-1.05146
-1.06004
-1.06979
-1.45431
-1.44943
-1.44586
-1.4475
25.7664
26.5714
-1.08615
-1.07814
-1.08495
-1.09278
-1.47209
-1.46927
-1.46557
-1.46571
25.6731
27.0353
-1.11285
-1.10616
-1.11899
-1.11977
-1.49372
-1.49173
-1.48829
-1.48704
25.855
26.6969
-1.10944
-1.10717
-1.12362
-1.1171
-1.51525
-1.51461
-1.51318
-1.51492
26.2476
25.9697
-1.13918
-1.13661
-1.14255
-1.15545
-1.53551
-1.53538
-1.53522
-1.53662
26.0009
25.8414
-1.21099
-1.20642
-1.21224
-1.21321
-1.5532
-1.55348
-1.55294
-1.54889
25.4384
26.0227
-1.25565
-1.25626
-1.25809
-1.25776
-1.56955
-1.56958
-1.5695
-1.56011
25.2141
25.8503
-1.28177
-1.28836
-1.2884
-1.28563
-1.58405
-1.58375
-1.58453
-1.57369
25.1258
25.5712
-1.30595
-1.31483
-1.31397
-1.31478
-1.59632
-1.59573
-1.59634
-1.58812
25.0091
25.4249
-1.31906
-1.32765
-1.33395
-1.33043
-1.60678
-1.60548
-1.60442
-1.59401
24.1152
26.1213
-1.34255
-1.3421
-1.3534
-1.348
-1.61732
-1.61617
-1.61516
-1.61148
24.3569
25.7481
-1.36488
-1.36026
-1.36884
-1.38225
-1.6282
-1.62788
-1.62873
-1.64812
25.7766
24.1263
-1.40482
-1.39332
-1.39489
-1.41276
-1.63878
-1.63764
-1.63686
-1.67096
24.8123
24.7283
-1.47681
-1.44061
-1.44025
-1.44511
-1.65115
-1.64937
-1.64731
-1.69868
24.2923
24.6596
-1.52519
-1.47273
-1.47275
-1.4739
-1.66572
-1.66378
-1.66123
-1.71615
23.5026
24.2313
-1.55503
-1.49834
-1.49887
-1.4993
-1.68271
-1.68132
-1.67904
-1.71264
22.3664
23.4656
-1.56118
-1.52442
-1.52419
-1.52409
-1.70163
-1.70071
-1.69926
-1.68932
21.0333
22.1006
-1.54408
-1.55027
-1.5491
-1.549
-1.72224
-1.72149
-1.72158
-1.67225
19.9024
20.4037
-1.53046
-1.57556
-1.5739
-1.57399
-1.74374
-1.74329
-1.74395
-1.68722
18.6205
18.7482
-1.54502
-1.601
-1.59938
-1.59971
-1.76379
-1.76286
-1.76354
-1.728
16.453
17.7449
-1.59512
-1.62858
-1.62613
-1.62621
-1.78271
-1.78167
-1.78349
-1.79704
14.9538
15.848
-1.6649
-1.65618
-1.65295
-1.653
-1.79988
-1.79873
-1.80016
-1.86002
14.7209
13.5705
-1.77362
-1.68238
-1.67853
-1.6789
-1.8145
-1.81245
-1.81557
-1.77644
17.0499
11.142
-2.03354
-1.7031
-1.70414
-1.70503
-1.82728
-1.8256
-1.82362
-2.09523
8.01066
13.6821
-2.08484
-1.749
-1.73231
-1.73236
-1.8437
-1.84377
-1.8477
-2.76475
3.52903
8.86489
-1.35255
-1.72499
-1.76012
-1.75429
-1.86473
-1.85644
-1.84783
-2.15558
1.59228
7.50126
-2.2682
-1.82764
-1.79082
-1.78775
-1.89616
-1.89623
-1.98659
-2.16357
2.71329
1.94178
-2.09215
-1.85653
-1.80664
-1.80709
-1.90636
-1.91016
-2.03731
-1.83048
1.3455
0.227112
-1.64696
-2.00932
-1.83121
-1.83069
-1.90274
-1.90491
-2.23743
-1.0692
-0.11506
-0.57989
-1.81455
-2.32636
-1.85837
-1.85469
-1.90472
-1.90376
-3.26468
-2.07005
-1.09704
-0.877997
-1.61128
-3.33449
-1.85775
-1.87591
-1.92592
-2.58729
-4.18967
-2.10445
-1.80365
-2.27849
-3.45085
-4.80761
-2.39069
-1.9008
-1.95
-4.3664
-6.31325
-5.97185
-5.685
-5.416
-4.97273
-4.9563
-3.85848
-1.93234
-2.68129
-9.13621
-12.4721
-14.5225
-15.3326
-15.4813
-14.9051
-13.2218
-10.169
-2.80569
451.575
458.803
467.383
475.773
479.347
495.118
513.975
545.527
557.451
557.036
552.116
544.158
529.173
508.067
488.476
473.404
465.298
450.165
438.235
429.73
424.574
420.439
421.989
446.817
468.867
471.199
480.551
493.471
504.779
515.728
511.271
520.416
520.579
518.871
527.506
524.475
521.79
520.151
518.639
517.977
414.639
423.835
429.79
436.775
444.657
452.353
462.711
478.267
490.42
502.018
509.041
506.92
494.186
481.351
470.656
458.996
447.401
435.915
423.528
404.967
373.137
329.653
328.103
339.824
342.582
375.541
435.805
460.093
468.873
478.158
482.73
485.954
494.308
499.677
502.394
512.671
500.063
499.265
498.808
498.193
380.473
387.369
391.263
394.763
395.786
393.752
390.07
384.191
384.901
399.66
426.949
450.232
464.157
453.799
435.975
422.195
421.334
401.539
385.736
353.606
304.193
249.555
211.113
215.554
258.326
284.424
315.008
364.786
407.069
431.358
443.202
452.301
460.623
469.745
478.099
490.634
480.946
477.432
476.414
475.692
340.252
338.333
339.85
342.926
342.977
335.79
321.943
303.971
288.402
288.185
318.579
361.419
400.68
412.555
394.48
378.238
365.027
349.966
329.93
300.127
258.238
218.169
212.914
212.299
225.504
244.698
266.588
310.498
357.367
384.246
398.869
410.574
420.089
436.147
444.813
452.857
456.6
451.043
451.337
450.784
336.44
337.469
326.976
321.528
318.27
310.353
295.69
273.643
251.699
237.802
238.118
250.524
247.512
281.982
287.113
298.749
298.31
291.287
278.502
259.841
236.1
224.075
225.337
226.621
232.355
240.904
251.347
265.273
303.899
332.688
351.472
364.116
377.675
407.287
407.861
419.132
417.804
421.528
418.405
420.661
330.106
326.022
311.974
296.35
284.763
272.861
256.246
233.916
209.886
192.793
174.232
155.557
143.022
162.167
163.209
175.652
217.995
229.607
229.84
227.825
226.19
228.607
231.689
234.174
236.693
237.809
244.63
254.36
279.519
294.842
307.427
322.73
350.018
359.907
368.567
376.268
380.746
384.965
387.044
385.195
314.969
300.955
281.944
262.245
243.72
221.697
195.942
174.436
152.12
131.881
123.089
125.467
126.033
128.343
132.824
137.004
153.783
170.443
187.185
199.992
212.365
226.617
231.66
235.082
233.438
230.658
234.933
247.954
260.187
269.878
283.12
298.671
308.842
317.767
327.608
334.658
341.213
349.537
354.171
352.364
272.497
261.076
236.707
206.057
182.388
160.849
136.871
122.669
118.932
118.877
118.882
119.123
119.512
121.713
125.178
127.334
128.786
133.206
157.14
176.549
193.974
210.176
221.159
221.591
221.233
218.88
220.863
234.539
247.037
253.173
266.961
276.436
274.891
282.236
291.96
297.633
304.66
311.06
322.074
323.319
224.573
194.673
170.924
142.067
124.896
119.647
118.983
116.905
116.826
117.326
117.672
118.111
119.033
121.107
124.01
124.843
121.522
123.76
138.299
151.905
164.599
177.628
189.329
189.129
202.029
208.131
208.188
218.565
226.764
234.247
253.785
251.568
248.076
249.078
257.846
263.441
269.74
277.746
284.527
289.977
168.746
135.169
119.47
119.6
117.664
116.195
115.476
115.179
115.164
115.71
116.71
118.008
119.911
121.591
123.371
124.58
112.777
110.671
108.704
113.178
119.671
129.878
138.358
148.958
171.032
184.265
188.567
199.021
208.217
217.24
223.603
227.818
231.209
229.675
231.185
249.153
246.792
248.383
255.677
259.932
123.89
121.535
118.602
117.798
117.161
116.295
115.474
114.906
114.859
115.165
116.209
118.084
119.821
120.486
118.952
120.732
103.004
80.0845
73.8876
69.1914
69.1931
71.2614
69.8148
109.784
138.491
121.686
154.899
172.213
185.458
196.195
204.962
208.245
211.492
214.636
220.514
228.41
232.101
230.763
235.887
238.718
125.781
122.759
119.421
117.745
117.614
117.229
117.1
117.118
117.445
117.532
116.593
116.751
117.741
120.686
112.663
99.254
85.0011
74.5512
71.5928
66.3613
62.6782
62.0721
52.8742
73.0572
103.433
119.723
146.068
161.866
173.309
182.388
190.517
197.958
203.256
204.616
209.969
215.807
219.334
217.857
222.438
225.308
136.068
121.509
119.398
118.2
117.793
116.944
117.889
118.462
119.59
119.055
116.75
116.737
110.304
98.0948
97.0195
95.5951
89.8544
82.5195
73.246
68.5546
64.8825
64.443
61.3754
55.79
105.273
136.217
149.243
161.345
171.152
185.059
186.683
186.231
191.506
192.598
199.016
205.935
205.61
203.107
208.889
211.271
147.138
130.458
117.49
117.698
117.483
118.092
121.943
119.992
114.271
113.053
114.859
106.975
106.259
102.086
98.7082
96.1066
93.0501
88.1681
80.5923
75.8107
75.7052
77.8285
81.2331
102.153
117.422
129.759
144.991
159.387
175.623
173.164
166.951
166.309
165.104
171.47
183.89
188.095
188.857
189.215
195.222
198.238
163.022
118.754
116.943
116.818
116.673
117.085
118.684
110.557
101.577
109.592
107.961
105.812
103.034
102.148
100.454
98.3628
95.7396
93.2077
91.2011
90.9143
93.0284
99.0811
109.878
124.916
137.913
152.181
163.89
162.826
161.377
174.004
155.725
160.533
163.867
164.228
168.371
177.114
178.87
180.445
183.915
187.582
145.56
115.407
116.013
115.753
115.351
115.055
115.756
108.146
104.113
102.549
101.704
102.824
102.826
101.829
100.732
99.9231
99.8447
99.3658
98.6464
99.3282
103.042
107.314
113.851
120.943
129.172
139.901
149.892
154.165
166.983
154.978
155.264
155.691
156.193
156.907
157.925
166.73
171.743
168.581
168.361
171.535
136.207
116.069
116.656
115.69
114.803
113.383
111.654
109.285
107.632
106.39
105.329
104.267
103.807
102.311
99.92
97.3657
96.9835
95.4693
92.0337
95.3619
106.141
122.89
130.139
128.573
127.65
129.599
133.721
139.966
146.466
152.061
155.126
155.746
157.437
159.096
157.486
158.824
159.843
158.643
159.656
157.056
133.203
122.352
118.432
116.707
114.579
113.089
110.92
109.018
107.444
106.263
105.268
104.122
103.609
102.297
101.487
98.4732
90.5344
92.9916
97.6727
101.487
105.164
108.834
111.119
110.735
110.016
112.406
115.682
127.661
134.933
150.099
155.155
156.923
159.592
161.782
159.553
159.098
156.7
156.926
159.312
159.585
129.968
123.803
118.285
117.098
115.769
112.589
110.424
108.155
106.881
105.756
104.786
104.628
109.29
108.355
106.452
103.754
99.8715
99.1915
99.509
100.336
101.501
103.268
104.489
102.005
103.371
103.12
104.69
109.392
120.822
134.968
144.674
150.798
156.149
159.927
156.087
157.093
157.746
161.654
164.961
164.669
125.387
121.607
118.705
114.959
112.844
110.721
108.822
107.339
105.677
105.284
104.909
105.438
108.256
104.989
102.163
100.366
98.505
97.2205
96.9176
96.9151
97.2041
97.6155
107.287
99.6617
101.611
101.31
100.773
103.776
110.973
122.685
134.585
144.349
153.667
157.909
161.593
163.719
166.151
173.914
173.563
179.678
121.355
117.835
114.72
109.487
108.809
108.599
106.603
105.792
104.753
104.779
104.488
104.247
102.708
101.076
99.4365
98.0717
96.5593
95.4654
93.9534
92.8672
92.8098
99.2789
102.606
100.48
101.877
104.714
105.375
107.292
112.174
120.389
131.635
143.611
152.79
159.099
170.747
172.822
171.874
177.685
176.864
179.541
117.517
112.76
109.372
105.225
106.496
106.918
105.72
105.512
105.045
104.955
104.77
103.128
98.0245
96.3853
95.0369
93.5984
92.0377
90.6869
89.7031
89.3323
90.212
93.367
95.2184
100.642
103.391
103.326
102.682
109.557
116.198
123.978
134.016
142.739
148.81
152.543
158.189
161.244
167.561
173.136
176.252
178.653
114.418
108.595
107.399
106.84
106.81
106.568
106.313
105.747
105.612
105.494
105.231
102.077
95.9162
91.8954
89.7683
87.9177
85.8364
84.6797
84.7908
85.264
86.7424
89.4391
92.5224
95.861
100.033
100.823
103.401
107.063
110.509
119.226
130.62
139.983
144.852
147.685
150.933
155.39
160.139
163.563
164.431
167.854
114.804
106.105
102.74
107.186
106.632
106.256
106.33
106.112
105.928
105.634
99.2952
92.61
88.0067
84.2012
81.3856
78.6865
77.4574
76.4024
75.9394
76.7496
78.3521
81.4525
85.7964
88.9361
91.7135
94.8948
97.82
102.095
107.246
108.697
119.228
129.059
133.74
136.43
138.213
141.374
145.544
147.814
152.387
152.321
117.811
108.875
100.201
106.17
102.608
102.941
105.038
104.851
97.9281
94.4207
89.5866
83.7611
78.4882
75.8123
71.9261
67.1489
65.3299
64.3712
64.3297
65.532
67.0846
68.4727
71.8764
76.3473
78.4507
86.8365
89.7719
91.205
94.2134
103.145
109.46
119.789
125.425
127.239
129.093
131.037
131.919
133.899
135.616
135.115
122.611
117.887
119.237
118.628
110.353
100.878
85.3112
83.277
77.8407
73.1631
68.5849
64.6669
60.8996
58.8536
54.2712
52.0508
50.961
50.2245
50.1298
50.7878
52.506
57.1517
57.3194
59.5052
66.2074
67.3394
69.5954
74.0306
79.5967
86.8886
94.15
101.386
112.584
108.774
108.861
107.862
108.072
109.052
109.749
109.166
113.24
113.373
122.113
118.413
100.701
90.0277
77.4543
68.549
59.1189
47.031
38.4309
34.6473
34.42
34.9002
34.3505
33.319
33.8002
35.2143
36.9487
38.8982
40.3986
42.6591
43.2842
43.7994
44.8614
47.6285
49.5326
52.0374
57.11
64.9748
73.7764
81.6231
87.3585
87.6347
84.4579
82.6723
82.205
82.1469
82.4643
82.3379
87.6018
91.8742
95.2423
104.266
90.7599
76.9387
63.539
52.5679
35.6209
21.4858
15.2262
13.0567
12.894
14.9912
9.42549
8.70113
14.9163
20.4104
23.1873
24.0655
25.6026
26.1421
24.7527
24.4877
24.9772
25.5698
27.9064
29.7908
34.1329
41.4809
50.8398
59.7664
64.1519
60.7804
59.3565
57.2047
55.7207
55.1707
54.4064
53.906
46.4444
58.8611
68.9029
73.1819
72.5836
65.1473
46.443
39.7091
13.3948
15.8273
11.2653
7.06897
3.73831
2.29227
2.53534
3.53698
3.45112
9.54061
12.1977
10.681
11.1267
12.9362
13.1594
13.4542
12.8531
14.4758
15.0526
16.9972
21.2101
26.4115
33.0155
40.1754
43.7857
43.2227
38.6252
35.0223
32.3904
27.3909
23.3177
22.4317
22.4986
33.6793
42.9113
49.3013
49.5966
48.4576
35.8724
28.5572
9.77897
6.68397
4.32034
2.3537
-0.0464647
-0.822762
0.25163
1.13109
1.72935
2.82619
4.25262
5.4668
6.05204
6.33593
5.73921
3.2012
2.07167
1.18705
4.03127
8.98431
13.4847
17.9101
22.6325
26.9982
28.5836
19.0723
14.8435
6.19357
1.16077
1.73759
1.22873
2.10473
10.5587
18.5538
24.23
27.1573
27.293
20.068
20.879
15.3033
8.21215
2.22072
2.04447
1.04942
-0.369816
-0.894242
-0.454237
0.373405
1.22357
2.14949
3.21047
4.24381
5.00756
5.35136
5.22564
4.82395
4.84536
1.00263
-5.28131
2.99557
8.96006
14.3802
17.5602
17.3805
15.3729
6.16223
-0.341708
-0.059819
0.303888
0.585952
0.586168
0.564311
6.85297
11.6248
14.3978
14.1698
10.3798
2.11167
-4.57541
-5.52901
7.65334
3.70276
3.30054
2.57402
1.50743
0.971159
1.23062
1.90681
2.83509
3.58479
4.13247
4.49387
4.63403
4.53037
4.13851
3.44261
3.47005
1.369
-3.11948
6.95889
10.157
10.8614
19.6681
16.9086
6.34156
2.58826
0.302852
0.488843
0.505545
0.500795
0.502699
0.500628
6.292
10.3052
11.2274
8.94649
4.22952
-3.9299
-16.1824
-5.4821
3.02627
5.47309
6.62213
5.78329
4.70604
3.87238
3.47878
3.46408
3.82787
4.0749
4.21443
4.39027
4.19658
4.10465
4.02661
3.93713
0.78196
6.52495
4.3979
0.348973
-2.64839
4.38752
11.8528
1.03072
0.832716
0.660516
0.491656
0.346969
0.379624
0.392496
0.400468
0.424989
4.41616
10.0255
6.32488
0.785193
-2.45059
-6.49073
-9.04926
-4.70399
3.35279
8.38033
9.99583
8.09668
6.43645
4.93947
4.01786
4.16983
4.87897
5.40139
5.81021
5.46444
4.02045
8.48167
14.7965
14.9514
8.38428
2.38791
0.569005
0.807653
0.775562
1.16363
2.72896
-0.277364
-0.105894
0.126771
0.178928
0.23303
0.28169
0.297063
0.295035
0.317984
0.481273
0.392331
-0.0142526
0.888718
0.410544
7.90022
12.3247
19.0816
28.1072
23.163
10.6175
5.14057
5.06352
3.77292
1.50595
1.30927
3.23454
6.39505
11.9083
12.3267
16.6867
14.3941
9.42114
-0.482282
1.2937
1.06238
0.388695
0.0935049
-0.0732027
-0.0312025
0.00546237
0.086129
-0.03106
0.102939
0.110817
0.096589
0.144928
0.160957
0.19319
0.205817
0.233881
0.0711492
-0.0567423
-0.152945
-0.234528
-0.202933
-0.117957
-0.0679467
0.857998
4.01082
13.3026
15.0491
13.5692
12.474
12.5951
10.9738
7.89127
4.25082
2.15157
1.83298
0.542856
-0.127794
0.288547
0.220968
0.0418081
0.0294381
-0.0069195
-0.0147519
-0.034129
0.0479086
-0.0311413
-0.116163
-0.0587396
-0.0587328
-0.0866306
0.0220265
0.0615706
0.144418
0.197698
0.21089
0.170371
0.0827214
-0.00163653
-0.0829306
-0.146438
-0.0897658
-0.0492469
-0.0351817
-0.0184117
0.00725914
-0.0653379
-0.239358
0.572503
1.2103
1.27967
0.952122
0.438126
-0.0582434
-0.163489
-0.195486
-0.205099
-0.212006
-0.220334
-0.222202
-0.254106
-0.131581
-0.131387
-0.00555943
0.101265
0.10464
-0.0197581
0.0159258
0.0199428
0.0313874
0.123486
0.145348
0.199692
0.255257
0.242903
0.260685
0.114544
0.0654751
0.0261385
-0.0180726
-0.0636679
-0.0872054
-0.102722
-0.106286
-0.109492
-0.117408
-0.149784
-0.177863
-0.176009
-0.166898
-0.163739
-0.190138
-0.207998
-0.209869
-0.196016
-0.201251
-0.188704
-0.176999
-0.166188
-0.172888
-0.185212
-0.147325
-0.115286
-0.117663
-0.144999
0.00455387
0.0148775
0.173393
0.0641123
0.171933
0.135511
0.123358
0.137227
0.180271
0.21233
0.185364
0.113913
0.0373149
0.00837005
-0.0248442
-0.0606138
-0.0894275
-0.108515
-0.123795
-0.138173
-0.153805
-0.175229
-0.201203
-0.225541
-0.267729
-0.261481
-0.255879
-0.254303
-0.221391
-0.21459
-0.20784
-0.191033
-0.189157
-0.176477
-0.148661
-0.148575
-0.117614
-0.102047
-0.121925
-0.150538
0.0821031
0.0306759
0.0439816
0.0381231
-0.00513258
-0.036655
-0.0346703
7.5215e-05
0.032188
0.0316708
0.104013
0.087868
0.0464644
0.0127368
-0.0265722
-0.0661934
-0.107075
-0.140118
-0.162127
-0.179997
-0.199119
-0.218102
-0.235323
-0.250372
-0.257657
-0.222905
-0.209714
-0.262526
-0.253636
-0.245543
-0.239516
-0.231586
-0.220915
-0.211745
-0.206018
-0.186964
-0.178085
-0.168737
-0.167424
-0.200688
-0.117552
-0.0059338
-0.0394357
-0.0484656
-0.119921
-0.115959
-0.0854536
-0.0778604
-0.0239791
-0.00591022
0.0428826
0.0344201
0.0018593
-0.0304271
-0.0588918
-0.083727
-0.12108
-0.160302
-0.199928
-0.222623
-0.243672
-0.260705
-0.276816
-0.291914
-0.303726
-0.312477
-0.280743
-0.300338
-0.290454
-0.281832
-0.272098
-0.261517
-0.252123
-0.245724
-0.242072
-0.234938
-0.219599
-0.223628
-0.218145
-0.229753
-0.220802
-0.205159
-0.17092
-0.155456
-0.157691
-0.137734
-0.117267
-0.0728581
-0.0992301
-0.0322693
0.000453061
-0.0508309
-0.0648346
-0.0836967
-0.110856
-0.145955
-0.179876
-0.211327
-0.240402
-0.266014
-0.286134
-0.304105
-0.333084
-0.343077
-0.347758
-0.349281
-0.351265
-0.341888
-0.330585
-0.322315
-0.312347
-0.30302
-0.29625
-0.286197
-0.27449
-0.269669
-0.262671
-0.249823
-0.25663
-0.250337
-0.247866
-0.241262
-0.222327
-0.216673
-0.213117
-0.20923
-0.198769
-0.189051
-0.088883
-0.0442696
-0.0458769
-0.118855
-0.125699
-0.144088
-0.179436
-0.218395
-0.2538
-0.285499
-0.314094
-0.337805
-0.355993
-0.372912
-0.393062
-0.399777
-0.405818
-0.407875
-0.408868
-0.404912
-0.380221
-0.368046
-0.365938
-0.349086
-0.344626
-0.326592
-0.320887
-0.306293
-0.307283
-0.285495
-0.279144
-0.27413
-0.266262
-0.260795
-0.255653
-0.247868
-0.245661
-0.247282
-0.251815
-0.23367
0.0229682
0.104358
0.0892985
-0.177824
-0.192581
-0.221538
-0.262564
-0.304754
-0.343726
-0.378147
-0.410017
-0.427774
-0.438924
-0.448824
-0.455358
-0.459982
-0.463978
-0.467143
-0.467127
-0.463074
-0.455956
-0.440332
-0.42506
-0.411405
-0.399272
-0.379275
-0.365636
-0.347495
-0.337264
-0.326727
-0.310647
-0.300095
-0.294075
-0.288693
-0.286488
-0.28786
-0.294313
-0.303446
-0.322932
-0.28691
-0.0759404
-0.171084
-0.133241
-0.257533
-0.282104
-0.322545
-0.364117
-0.404257
-0.43729
-0.460052
-0.480238
-0.495293
-0.507249
-0.517313
-0.524922
-0.52881
-0.530881
-0.532203
-0.530936
-0.525353
-0.515349
-0.503558
-0.490098
-0.473328
-0.455651
-0.434403
-0.411991
-0.39349
-0.375561
-0.365125
-0.343543
-0.330836
-0.323501
-0.320487
-0.321158
-0.325548
-0.333591
-0.347264
-0.370232
-0.382161
-0.358499
-0.314702
-0.348111
-0.362987
-0.386911
-0.429481
-0.457797
-0.484603
-0.510524
-0.532884
-0.552742
-0.570596
-0.585812
-0.597844
-0.605531
-0.609719
-0.61145
-0.610144
-0.604419
-0.594197
-0.58368
-0.571245
-0.557411
-0.534957
-0.512309
-0.489922
-0.457414
-0.438107
-0.411399
-0.399501
-0.379691
-0.361839
-0.350374
-0.345603
-0.340643
-0.341059
-0.342909
-0.347249
-0.348468
-0.34889
-0.343542
-0.328373
-0.319659
-0.449619
-0.486468
-0.50363
-0.525165
-0.549054
-0.573962
-0.598021
-0.62067
-0.6419
-0.660029
-0.673679
-0.684279
-0.689003
-0.69284
-0.691618
-0.683086
-0.674935
-0.663723
-0.645425
-0.626444
-0.598107
-0.56511
-0.542842
-0.500912
-0.477834
-0.448851
-0.432377
-0.408221
-0.387157
-0.374743
-0.361402
-0.347683
-0.345855
-0.339382
-0.344049
-0.341677
-0.339611
-0.335869
-0.331635
-0.31519
-0.52574
-0.539827
-0.556137
-0.576663
-0.600182
-0.62555
-0.651652
-0.677781
-0.703427
-0.726023
-0.743277
-0.754564
-0.757965
-0.762441
-0.768374
-0.767767
-0.760792
-0.749267
-0.730247
-0.702154
-0.657563
-0.621104
-0.58646
-0.5496
-0.516671
-0.486975
-0.458288
-0.432356
-0.410114
-0.390995
-0.37405
-0.365869
-0.350947
-0.348187
-0.34519
-0.345254
-0.341283
-0.335299
-0.333805
-0.296975
-0.557549
-0.569602
-0.58728
-0.608864
-0.633345
-0.660773
-0.691194
-0.723213
-0.755622
-0.784144
-0.806737
-0.822725
-0.832404
-0.837404
-0.838929
-0.836
-0.825269
-0.812344
-0.791614
-0.758948
-0.71727
-0.673295
-0.63054
-0.590522
-0.553231
-0.506575
-0.486307
-0.462346
-0.427508
-0.400132
-0.388237
-0.375446
-0.36354
-0.363036
-0.36577
-0.367715
-0.346961
-0.339904
-0.339515
-0.330748
-0.56863
-0.582147
-0.599471
-0.619642
-0.644302
-0.673598
-0.706428
-0.741381
-0.77757
-0.81158
-0.838569
-0.855677
-0.865352
-0.870717
-0.871469
-0.865691
-0.853117
-0.835564
-0.813568
-0.786216
-0.74514
-0.701011
-0.653889
-0.617843
-0.580176
-0.545321
-0.508792
-0.472996
-0.449329
-0.430969
-0.405635
-0.375923
-0.367958
-0.371704
-0.383844
-0.390931
-0.401286
-0.406921
-0.410713
-0.410727
-0.568847
-0.581575
-0.598368
-0.617942
-0.641411
-0.669873
-0.699723
-0.73516
-0.773292
-0.810277
-0.841735
-0.859888
-0.869004
-0.875524
-0.876492
-0.867972
-0.849916
-0.8283
-0.805765
-0.782812
-0.750347
-0.691757
-0.666842
-0.632818
-0.601175
-0.569209
-0.540221
-0.516286
-0.481097
-0.457557
-0.439083
-0.42861
-0.423842
-0.431473
-0.43272
-0.433998
-0.437276
-0.441811
-0.44482
-0.445248
-0.556617
-0.570176
-0.587895
-0.60837
-0.62862
-0.657132
-0.694566
-0.72526
-0.753233
-0.789086
-0.823811
-0.846395
-0.851142
-0.857424
-0.852168
-0.839628
-0.821541
-0.803887
-0.7867
-0.770949
-0.749891
-0.697288
-0.664875
-0.643386
-0.621727
-0.608559
-0.566922
-0.540769
-0.524014
-0.511157
-0.496324
-0.469834
-0.452503
-0.449515
-0.452957
-0.458895
-0.464897
-0.470326
-0.472803
-0.474361
-0.534881
-0.547043
-0.562148
-0.582495
-0.588264
-0.542817
-0.68396
-0.714947
-0.731421
-0.745716
-0.777615
-0.793979
-0.80385
-0.799074
-0.791638
-0.783184
-0.774645
-0.767179
-0.759379
-0.750354
-0.743117
-0.715679
-0.690077
-0.677703
-0.657393
-0.631823
-0.615163
-0.613885
-0.593568
-0.568475
-0.535395
-0.510067
-0.494149
-0.48591
-0.484445
-0.493045
-0.497765
-0.504315
-0.509304
-0.512353
-0.512719
-0.520499
-0.533482
-0.547201
-0.542152
-0.577515
-0.621571
-0.660553
-0.692013
-0.723093
-0.729224
-0.739882
-0.739577
-0.731551
-0.72786
-0.727893
-0.729821
-0.729825
-0.734204
-0.72337
-0.738279
-0.726071
-0.712328
-0.701154
-0.693953
-0.694131
-0.680713
-0.669089
-0.65768
-0.644161
-0.614808
-0.560798
-0.535501
-0.520202
-0.521277
-0.515481
-0.42819
-0.548443
-0.562055
-0.566283
-0.50638
-0.512946
-0.528942
-0.547033
-0.521162
-0.564921
-0.602571
-0.628673
-0.642203
-0.64733
-0.676019
-0.71393
-0.695636
-0.680854
-0.680656
-0.6927
-0.701434
-0.705756
-0.721349
-0.71768
-0.742042
-0.73244
-0.730711
-0.731867
-0.732523
-0.728608
-0.725454
-0.723661
-0.723018
-0.720355
-0.658574
-0.590824
-0.538234
-0.524754
-0.526768
-0.500337
-0.532398
-0.586628
-0.614728
-0.608072
-0.521363
-0.534935
-0.552184
-0.574428
-0.598723
-0.618166
-0.656013
-0.643812
-0.651145
-0.674147
-0.687981
-0.694946
-0.640407
-0.619489
-0.633762
-0.670556
-0.687672
-0.704928
-0.724986
-0.734163
-0.758733
-0.74868
-0.748309
-0.766528
-0.758038
-0.759902
-0.76481
-0.772018
-0.77845
-0.784501
-0.788192
-0.674306
-0.622509
-0.673826
-0.692139
-0.700101
-0.694453
-0.689546
-0.682709
-0.678657
-0.55591
-0.583196