/*--------------------------------*- C++ -*----------------------------------*\
  =========                 |
  \\      /  F ield         | OpenFOAM: The Open Source CFD Toolbox
   \\    /   O peration     | Website:  https://openfoam.org
    \\  /    A nd           | Version:  8
     \\/     M anipulation  |
\*---------------------------------------------------------------------------*/
FoamFile
{
    version     2.0;
    format      ascii;
    class       volVectorField;
    location    "7.4";
    object      U;
}
// * * * * * * * * * * * * * * * * * * * * * * * * * * * * * * * * * * * * * //

dimensions      [0 1 -1 0 0 0 0];

internalField   nonuniform List<vector> 
9150
(
(0.0048075 -0.0785475 0)
(0.0131087 -0.0973904 0)
(0.0108687 -0.104629 0)
(0.00874121 -0.107921 0)
(0.00237214 -0.109341 0)
(-0.0028195 -0.109255 0)
(-0.00924366 -0.107459 0)
(-0.0109251 -0.104568 0)
(-0.0131447 -0.0973421 0)
(-0.00478416 -0.0784992 0)
(0.00583941 -0.0919776 0)
(0.00854293 -0.100484 0)
(0.00744863 -0.102178 0)
(0.00427562 -0.104661 0)
(0.00160938 -0.105568 0)
(-0.00191035 -0.105556 0)
(-0.00424735 -0.104953 0)
(-0.00742368 -0.102289 0)
(-0.00857683 -0.100492 0)
(-0.00584296 -0.0919598 0)
(0.00169943 -0.0954525 0)
(0.0045449 -0.0989603 0)
(0.00372719 -0.101083 0)
(0.0033996 -0.10168 0)
(0.00126581 -0.10233 0)
(-0.000673234 -0.102511 0)
(-0.00341848 -0.101699 0)
(-0.00373179 -0.101088 0)
(-0.00455844 -0.0989595 0)
(-0.00169943 -0.0954431 0)
(0.00171809 -0.0984053 0)
(0.0024413 -0.100385 0)
(0.00220926 -0.100182 0)
(0.00129423 -0.100845 0)
(0.000333702 -0.100937 0)
(-0.000798165 -0.100888 0)
(-0.00128309 -0.100876 0)
(-0.00221694 -0.10018 0)
(-0.00244887 -0.100387 0)
(-0.00171566 -0.0984002 0)
(0.0001711 -0.0994848 0)
(0.000708418 -0.0995823 0)
(0.000484671 -0.100022 0)
(0.000708115 -0.0998548 0)
(0.000291979 -0.100106 0)
(-9.72805e-05 -0.100135 0)
(-0.000670119 -0.0998752 0)
(-0.000458281 -0.100061 0)
(-0.000713358 -0.0995807 0)
(-0.000170522 -0.0994836 0)
(0.0747117 -0.194022 3.29525e-26)
(0.0492895 -0.184383 0)
(0.0299917 -0.175737 0)
(0.0157326 -0.173718 0)
(0.00498595 -0.175473 0)
(-0.00439011 -0.175991 0)
(-0.0155699 -0.175402 0)
(-0.0301363 -0.175802 0)
(-0.0492851 -0.184366 0)
(-0.0747627 -0.193943 -3.27393e-26)
(0.0584294 -0.146709 8.26883e-27)
(0.0486489 -0.146556 0)
(0.028343 -0.156176 0)
(0.0205987 -0.156936 0)
(0.00440159 -0.155308 0)
(-0.0057177 -0.154707 0)
(-0.0213635 -0.155865 0)
(-0.0288986 -0.156277 0)
(-0.0486806 -0.146609 0)
(-0.058497 -0.146745 -8.09052e-27)
(0.0474171 -0.121296 3.63407e-27)
(0.0430956 -0.131186 0)
(0.0296242 -0.133409 0)
(0.0175365 -0.136817 0)
(0.00710716 -0.140025 0)
(-0.0049479 -0.140492 0)
(-0.0163262 -0.138624 0)
(-0.0291648 -0.133485 0)
(-0.0430117 -0.131236 0)
(-0.0474405 -0.121378 -3.68644e-27)
(0.036877 -0.0992555 7.10765e-27)
(0.0392249 -0.110123 0)
(0.0226167 -0.120701 0)
(0.0171953 -0.125645 0)
(0.003791 -0.12529 0)
(-0.00550132 -0.125189 0)
(-0.0181681 -0.123786 0)
(-0.0232264 -0.120804 0)
(-0.0393692 -0.110217 0)
(-0.0369693 -0.099308 -7.222e-27)
(0.0241679 -0.081742 -1.78038e-26)
(0.0277557 -0.101329 -2.15792e-26)
(0.0198122 -0.108446 -5.45023e-27)
(0.0109006 -0.113926 -4.65021e-27)
(0.00488314 -0.117084 -2.10802e-28)
(-0.00385415 -0.117254 -3.01363e-28)
(-0.00992597 -0.114719 -4.7477e-27)
(-0.019353 -0.108351 -5.34299e-27)
(-0.0275967 -0.101405 -2.15339e-26)
(-0.0241403 -0.0817571 -1.77948e-26)
(0.0182964 -0.145701 0)
(0.01263 -0.205402 0)
(0.0211688 -0.218927 0)
(0.00671042 -0.22551 0)
(0.0031541 -0.227544 0)
(-0.0115987 -0.22677 0)
(-0.0152371 -0.22252 0)
(-0.0250873 -0.215198 0)
(-0.0149746 -0.204391 0)
(-0.0199951 -0.145671 0)
(0.0165261 -0.166518 0)
(0.00194261 -0.199325 0)
(0.0157676 -0.20913 0)
(0.00406487 -0.213305 0)
(0.00651524 -0.215356 0)
(-0.00391446 -0.215171 0)
(-0.0024816 -0.214597 0)
(-0.0151809 -0.209415 0)
(-0.00206102 -0.198516 0)
(-0.0164436 -0.164991 0)
(0.0139672 -0.173053 0)
(-0.00455882 -0.204079 0)
(0.0101269 -0.209579 0)
(-0.0012559 -0.210815 0)
(0.00179741 -0.210548 0)
(-0.00420554 -0.209812 0)
(-0.000116724 -0.2093 0)
(-0.0110394 -0.208654 0)
(0.00431851 -0.203374 0)
(-0.0145246 -0.172184 0)
(0.0189489 -0.195789 0)
(-0.00731733 -0.204785 0)
(0.00914544 -0.210935 0)
(-0.00036044 -0.205822 0)
(0.0014685 -0.206775 0)
(-0.000346456 -0.206986 0)
(0.000439054 -0.207177 0)
(-0.00943888 -0.210472 0)
(0.00727222 -0.204272 0)
(-0.018947 -0.195353 0)
(0.0368069 -0.21683 0)
(0.0105848 -0.203612 0)
(0.0155624 -0.201805 0)
(0.0117212 -0.196607 0)
(0.000918976 -0.192757 0)
(-0.00310953 -0.192047 0)
(-0.0127807 -0.195055 0)
(-0.0158972 -0.201695 0)
(-0.0107006 -0.203589 0)
(-0.0369023 -0.21658 0)
(0.140905 0.0304355 0)
(0.119845 0.0341008 0)
(0.099894 0.0290078 0)
(0.07812 0.0212449 0)
(0.0569199 0.0178046 0)
(0.0418959 0.0113975 0)
(0.0336805 0.00449539 0)
(0.0272878 0.00203916 0)
(0.0261102 0.00513042 0)
(0.0178372 0.0186339 0)
(0.119851 0.0550665 0)
(0.106054 0.0470242 0)
(0.0923757 0.0522537 0)
(0.0788436 0.059628 0)
(0.0670424 0.0544726 0)
(0.0544886 0.0365281 0)
(0.0424112 0.0226838 0)
(0.0345984 0.0147582 0)
(0.031732 0.0131886 0)
(0.0328083 0.0186179 0)
(0.11915 0.0878173 0)
(0.0993987 0.0843229 0)
(0.085845 0.0770934 0)
(0.0823052 0.071621 0)
(0.0816541 0.068761 0)
(0.0766819 0.0658374 0)
(0.06014 0.0508074 0)
(0.0433039 0.0214319 0)
(0.0388061 0.0110038 0)
(0.0386838 0.0157059 0)
(0.102122 0.112399 0)
(0.0895912 0.114306 0)
(0.0817456 0.0987924 0)
(0.0796789 0.0674287 0)
(0.0825535 0.0669339 0)
(0.0806847 0.0812846 0)
(0.0724832 0.0851843 0)
(0.0646444 0.0549859 0)
(0.0533993 0.0201529 0)
(0.0473391 0.0199224 0)
(0.0697128 0.118901 0)
(0.0728478 0.119275 0)
(0.0765248 0.103317 0)
(0.0756913 0.0710138 0)
(0.0715573 0.0733459 0)
(0.0719173 0.0861453 0)
(0.0772385 0.0850501 0)
(0.0833162 0.0649407 0)
(0.0742198 0.0432765 0)
(0.0508164 0.043916 0)
(0.0483141 0.101864 0)
(0.0646841 0.104825 0)
(0.0823516 0.0887116 0)
(0.0896177 0.0707027 0)
(0.085051 0.0780229 0)
(0.0802686 0.072811 0)
(0.0791518 0.0722477 0)
(0.0735235 0.0683994 0)
(0.0498018 0.0724527 0)
(0.0348339 0.0781456 0)
(0.0592913 0.0459913 0)
(0.0741138 0.0440982 0)
(0.0799266 0.0599884 0)
(0.0733368 0.0735375 0)
(0.0691917 0.0876504 0)
(0.0687068 0.0830736 0)
(0.0668952 0.0935093 0)
(0.0445982 0.110888 0)
(0.0388811 0.106535 0)
(0.0336894 0.0900378 0)
(0.0290933 0.0590527 0)
(0.0349821 0.0467453 0)
(0.0454519 0.0706579 0)
(0.0443031 0.100208 0)
(0.0459058 0.0940798 0)
(0.0492078 0.0926675 0)
(0.0473301 0.127046 0)
(0.0372652 0.124785 0)
(0.0438687 0.0967056 0)
(0.0478146 0.094701 0)
(-0.00946013 0.00501545 0)
(-0.00072931 0.0502816 0)
(-0.0163414 0.0549643 0)
(0.0169899 0.0583979 0)
(0.0338412 0.059616 0)
(0.0332745 0.074508 0)
(0.0282109 0.132113 0)
(0.0254686 0.114348 0)
(0.0244497 0.0812034 0)
(0.0265236 0.0992765 0)
(-0.0722089 0.0209102 0)
(-0.0564476 0.0407837 0)
(-0.0486502 0.00961811 0)
(-0.0507662 0.0110771 0)
(-0.043909 0.082149 0)
(-0.0449739 0.113738 0)
(-0.037772 0.132614 0)
(-0.0243414 0.107206 0)
(-0.0255451 0.0976709 0)
(-0.0250246 0.109198 0)
(-0.127388 -0.0173564 0)
(-0.117364 0.0142169 0)
(-0.126679 0.036095 0)
(-0.131398 0.0418154 0)
(-0.118169 0.057094 0)
(-0.103776 0.0792269 0)
(-0.0864939 0.0941656 0)
(-0.0787908 0.0953809 0)
(-0.0741665 0.0917809 0)
(-0.0638353 0.101798 0)
(-0.172136 -0.030947 0)
(-0.165241 0.0151435 0)
(-0.161608 0.0327232 0)
(-0.1596 0.032359 0)
(-0.154735 0.0331101 0)
(-0.144505 0.04826 0)
(-0.129591 0.0646975 0)
(-0.115075 0.0752115 0)
(-0.100063 0.0723868 0)
(-0.0863284 0.0735924 0)
(-0.179003 -0.033997 0)
(-0.176069 -0.00812702 0)
(-0.162598 0.0195387 0)
(-0.152953 0.0256341 0)
(-0.145445 0.0247197 0)
(-0.137507 0.0262763 0)
(-0.127544 0.0328318 0)
(-0.113464 0.0383536 0)
(-0.0958122 0.0392283 0)
(-0.0815977 0.0396391 0)
(-0.115666 -0.0265814 0)
(-0.110964 -0.0217124 0)
(-0.110418 -0.00949102 0)
(-0.111058 0.000757886 0)
(-0.104842 0.00605527 0)
(-0.101307 0.00789612 0)
(-0.0948713 0.0072724 0)
(-0.083932 0.00526323 0)
(-0.0720344 0.00661328 0)
(-0.0618865 0.0119254 0)
(-0.0467771 -0.033257 0)
(-0.040201 -0.0307347 0)
(-0.0333843 -0.00361139 0)
(-0.031938 0.0097723 0)
(-0.0322184 0.010125 0)
(-0.0324784 0.0074083 0)
(-0.0327467 0.00256912 0)
(-0.0298692 -0.00279436 0)
(-0.0259597 -0.00431986 0)
(-0.0230074 -0.00348562 0)
(-0.0397289 -0.0448093 0)
(-0.0377259 -0.0418531 0)
(-0.0328586 -0.0259612 0)
(-0.0207127 -0.00254614 0)
(-0.0100216 0.00584094 0)
(-0.000951004 0.0098261 0)
(0.00727926 0.00412775 0)
(0.0126773 -0.00136336 0)
(0.0163607 -0.00657394 0)
(0.0179266 -0.00602055 0)
(-0.0215411 -0.0483382 0)
(-0.0148191 -0.0448433 0)
(-0.0112257 -0.0368133 0)
(-0.00814017 -0.0316269 0)
(-0.00204766 -0.0278202 0)
(0.00763865 -0.0267545 0)
(0.0163695 -0.0225685 0)
(0.0232406 -0.0193561 0)
(0.0284865 -0.0143893 0)
(0.031732 -0.0119093 0)
(0.00612067 -0.0660245 0)
(0.00694799 -0.059945 0)
(0.00861688 -0.0434909 0)
(0.0092381 -0.0311997 0)
(0.0112685 -0.0270571 0)
(0.0114333 -0.0298474 0)
(0.0119871 -0.0286007 0)
(0.0145445 -0.0285929 0)
(0.0187226 -0.0252386 0)
(0.0253506 -0.0244248 0)
(0.0210566 -0.0577208 0)
(0.0140502 -0.0539895 0)
(0.00776296 -0.0398306 0)
(0.0043703 -0.0341364 0)
(0.0059324 -0.0310704 0)
(0.00684952 -0.027984 0)
(0.0072325 -0.0271703 0)
(0.0071354 -0.0298099 0)
(0.00958586 -0.0345002 0)
(0.0153926 -0.0396407 0)
(-0.00345916 -0.0474329 0)
(-0.0121727 -0.0340432 0)
(-0.0147984 -0.0252122 0)
(-0.01618 -0.0299036 0)
(-0.0150426 -0.0316125 0)
(-0.0137944 -0.0303129 0)
(-0.0114804 -0.0305869 0)
(-0.00880369 -0.0339186 0)
(-0.00598517 -0.0417476 0)
(-0.00190725 -0.0513871 0)
(-0.0586612 -0.0296685 0)
(-0.0533807 -0.027706 0)
(-0.0467347 -0.0319166 0)
(-0.0432449 -0.03334 0)
(-0.0412392 -0.0321493 0)
(-0.0399282 -0.0326792 0)
(-0.0382335 -0.0345712 0)
(-0.0361247 -0.0386351 0)
(-0.0342083 -0.0470479 0)
(-0.0321382 -0.0589605 0)
(-0.0690451 -0.0501781 0)
(-0.0631939 -0.0497765 0)
(-0.0584145 -0.0455829 0)
(-0.0562769 -0.0389629 0)
(-0.056711 -0.0365231 0)
(-0.0580697 -0.0362651 0)
(-0.0620402 -0.0359956 0)
(-0.0666268 -0.0405079 0)
(-0.0731462 -0.0489453 0)
(-0.081555 -0.0546786 0)
(-0.0655631 -0.0555415 0)
(-0.0650154 -0.0542858 0)
(-0.0654918 -0.0490802 0)
(-0.067219 -0.0387486 0)
(-0.0708136 -0.0289767 0)
(-0.077694 -0.022248 0)
(-0.0870487 -0.0153515 0)
(-0.0997029 -0.0145307 0)
(-0.116146 -0.0186595 0)
(-0.132513 -0.018064 0)
(-0.076933 -0.0552144 0)
(-0.0773078 -0.0513616 0)
(-0.0797406 -0.0421649 0)
(-0.0844972 -0.030001 0)
(-0.0907384 -0.0180405 0)
(-0.0991946 -0.00448746 0)
(-0.1096 0.00816375 0)
(-0.121291 0.0137162 0)
(-0.135228 0.0125442 0)
(-0.150448 0.0131588 0)
(-0.105271 -0.0581679 0)
(-0.104366 -0.0485527 0)
(-0.10465 -0.0325162 0)
(-0.10686 -0.0146603 0)
(-0.110566 0.00244232 0)
(-0.116837 0.0177296 0)
(-0.122653 0.0293712 0)
(-0.128169 0.0365383 0)
(-0.136454 0.0398505 0)
(-0.148671 0.0423265 0)
(-0.129868 -0.0614183 0)
(-0.125963 -0.0510166 0)
(-0.122861 -0.0341702 0)
(-0.119797 -0.014189 0)
(-0.118783 0.00445405 0)
(-0.11916 0.0200158 0)
(-0.11922 0.0333132 0)
(-0.120036 0.0462458 0)
(-0.122512 0.0579283 0)
(-0.125869 0.0698102 0)
(-0.151893 -0.0744103 0)
(-0.143275 -0.0607775 0)
(-0.134141 -0.0433535 0)
(-0.125731 -0.0219481 0)
(-0.119981 0.00139456 0)
(-0.118441 0.0184916 0)
(-0.116888 0.0310932 0)
(-0.113038 0.0428802 0)
(-0.108232 0.0547323 0)
(-0.10408 0.0674559 0)
(-0.166169 -0.0876709 0)
(-0.160301 -0.0861255 0)
(-0.149896 -0.0715645 0)
(-0.134697 -0.0440146 0)
(-0.121188 -0.0106202 0)
(-0.115438 0.012072 0)
(-0.113165 0.0219017 0)
(-0.109267 0.0289631 0)
(-0.101438 0.0387417 0)
(-0.0921969 0.0503984 0)
(-0.16763 -0.0939124 0)
(-0.165659 -0.0980509 0)
(-0.158524 -0.0985145 0)
(-0.146898 -0.0851748 0)
(-0.131697 -0.0415577 0)
(-0.118717 0.00360088 0)
(-0.11553 0.0154032 0)
(-0.11397 0.0180411 0)
(-0.107504 0.019731 0)
(-0.0973808 0.0264915 0)
(-0.13904 -0.0926978 0)
(-0.148007 -0.103408 0)
(-0.150111 -0.106816 0)
(-0.149454 -0.100797 0)
(-0.139611 -0.0694246 0)
(-0.12328 -0.0179295 0)
(-0.105912 0.0104674 0)
(-0.0988084 0.0177246 0)
(-0.0839119 0.0109601 0)
(-0.0778812 0.00755563 0)
(-0.0261182 -0.0507795 0)
(-0.0433685 -0.0627455 0)
(-0.0606421 -0.0831672 0)
(-0.0785779 -0.094238 0)
(-0.0963686 -0.0885402 0)
(-0.110941 -0.0595619 0)
(-0.0946333 -0.0359318 0)
(-0.0806671 -0.024264 0)
(-0.061765 -0.0242259 0)
(-0.0517051 -0.000732531 0)
(0.0698732 -0.0162699 0)
(0.0660246 -0.030222 0)
(0.0579501 -0.0317346 0)
(0.0466124 -0.0426299 0)
(0.0351106 -0.0392093 0)
(0.00980045 -0.0187714 0)
(-0.00101943 -0.0255278 0)
(-0.0139247 -0.0404925 0)
(-0.0236751 -0.0361358 0)
(-0.0342837 -0.0378541 0)
(0.096739 -0.0216172 0)
(0.0936279 -0.0385824 0)
(0.0920815 -0.0352481 0)
(0.0859429 -0.0365071 0)
(0.0787158 -0.0279017 0)
(0.0720854 -0.010448 0)
(0.0679659 0.00311035 0)
(0.0636477 0.00750564 0)
(0.0632094 0.00602731 0)
(0.0655539 0.00826482 0)
(0.124076 -0.00464077 0)
(0.11222 -0.0169609 0)
(0.0959218 -0.0138731 0)
(0.0861983 -0.0135942 0)
(0.0786239 -0.00841968 0)
(0.076276 -0.00272849 0)
(0.0778742 -0.00246837 0)
(0.0817475 -0.00988402 0)
(0.0854108 -0.0321392 0)
(0.0879538 -0.0146615 0)
(0.132099 0.00281479 0)
(0.121135 0.0112134 0)
(0.105871 0.0116662 0)
(0.0945172 0.00219218 0)
(0.0866505 -0.00662764 0)
(0.0817828 -0.0101596 0)
(0.0781696 -0.0093799 0)
(0.0765951 -0.0102869 0)
(0.0781272 -0.0132167 0)
(0.0874707 -0.0170567 0)
(0.131507 0.0218447 0)
(0.11525 0.0344872 0)
(0.0953221 0.0393853 0)
(0.0824884 0.0288987 0)
(0.0708367 0.0177357 0)
(0.0570531 0.0137784 0)
(0.0440344 0.00889137 0)
(0.0371941 -0.00962557 0)
(0.0422898 -0.0434767 0)
(0.0567358 -0.0638177 0)
(0.0757119 0.0501079 0)
(0.066025 0.0676919 0)
(0.0652938 0.0657471 0)
(0.0707058 0.0468701 0)
(0.0720087 0.0365533 0)
(0.0665585 0.0390823 0)
(0.0457883 0.0358264 0)
(0.030397 -0.00902278 0)
(0.0361891 -0.0677959 0)
(0.0487046 -0.0962776 0)
(0.018724 0.0530089 0)
(0.0373458 0.0524945 0)
(0.0431897 0.0323697 0)
(0.0432293 0.0248705 0)
(0.0386029 0.0390542 0)
(0.0219739 0.0674662 0)
(0.0209997 0.0755862 0)
(0.0315382 0.0106381 0)
(0.0445899 -0.0776495 0)
(0.0509351 -0.107335 0)
(-0.0308822 -0.00775887 0)
(-0.0288278 0.0418072 0)
(-0.0322628 0.0524379 0)
(-0.0435769 0.068826 0)
(-0.0441032 0.0738355 0)
(-0.0262464 0.0610143 0)
(0.00396501 0.0253004 0)
(0.0297812 -0.0449952 0)
(0.037412 -0.0924316 0)
(0.0352327 -0.110558 0)
(-0.130741 0.0308875 0)
(-0.11386 0.0296639 0)
(-0.0895248 0.0341822 0)
(-0.0674162 0.0399959 0)
(-0.042911 0.0233613 0)
(-0.0194205 -0.0255545 0)
(0.00399918 -0.0474194 0)
(0.0206909 -0.0683614 0)
(0.0286403 -0.0936571 0)
(0.029016 -0.108613 0)
(-0.0792491 -0.00312114 0)
(-0.072859 -0.0261754 0)
(-0.0573861 -0.0340393 0)
(-0.0395321 -0.0241469 0)
(-0.0157836 -0.026775 0)
(0.0070027 -0.045363 0)
(0.0227076 -0.0713048 0)
(0.0402334 -0.0945483 0)
(0.0508203 -0.107402 0)
(0.0585355 -0.114848 0)
(-0.0253932 -0.0112282 0)
(-0.0160724 -0.0139474 0)
(-0.00233121 -0.037534 0)
(0.0139838 -0.0554483 0)
(0.0322989 -0.0684284 0)
(0.0511565 -0.0876933 0)
(0.0713211 -0.107776 0)
(0.0898583 -0.119556 0)
(0.104576 -0.120813 0)
(0.115857 -0.113083 0)
(0.0063859 -0.0444033 0)
(0.0267073 -0.0548834 0)
(0.0498104 -0.0780174 0)
(0.0707071 -0.0918478 0)
(0.0887528 -0.100509 0)
(0.108331 -0.116681 0)
(0.123806 -0.135823 0)
(0.13778 -0.150961 0)
(0.15222 -0.155339 0)
(0.168018 -0.144224 0)
(0.0977014 -0.096433 0)
(0.123529 -0.114281 0)
(0.148867 -0.13043 0)
(0.164322 -0.13433 0)
(0.174768 -0.147773 0)
(0.18201 -0.168143 0)
(0.188352 -0.185233 0)
(0.196257 -0.196458 0)
(0.206087 -0.202646 0)
(0.217268 -0.199408 0)
(0.244211 -0.149343 0)
(0.270685 -0.167242 0)
(0.293962 -0.170918 0)
(0.314675 -0.152926 0)
(0.329522 -0.13206 0)
(0.330853 -0.133266 0)
(0.320381 -0.156759 0)
(0.307501 -0.177801 0)
(0.296652 -0.187637 0)
(0.287297 -0.190537 0)
(0.38289 -0.17921 0)
(0.385884 -0.198263 0)
(0.388953 -0.202253 0)
(0.392064 -0.197515 0)
(0.401718 -0.170611 0)
(0.413122 -0.137151 0)
(0.411883 -0.13278 0)
(0.400184 -0.148131 0)
(0.388763 -0.161856 0)
(0.372746 -0.166701 0)
(0.431418 -0.165948 0)
(0.427019 -0.186527 0)
(0.425191 -0.193266 0)
(0.424729 -0.192029 0)
(0.425928 -0.183113 0)
(0.431514 -0.146349 0)
(0.430949 -0.11988 0)
(0.423521 -0.130681 0)
(0.415581 -0.138462 0)
(0.4027 -0.132365 0)
(0.425751 -0.165235 0)
(0.423572 -0.183905 0)
(0.422913 -0.194012 0)
(0.422655 -0.195526 0)
(0.42273 -0.191054 0)
(0.425769 -0.158283 0)
(0.42827 -0.114892 0)
(0.421369 -0.118841 0)
(0.416318 -0.116446 0)
(0.386204 -0.0888013 0)
(0.327846 -0.167027 0)
(0.325816 -0.179082 0)
(0.328286 -0.189787 0)
(0.325889 -0.19736 0)
(0.319544 -0.195171 0)
(0.318184 -0.177889 0)
(0.327168 -0.133588 0)
(0.321277 -0.117173 0)
(0.308365 -0.0818619 0)
(0.286816 -0.0148033 0)
(0.179895 -0.171368 0)
(0.163094 -0.164606 0)
(0.115906 -0.155538 0)
(0.0608508 -0.147326 0)
(0.024597 -0.165691 0)
(0.0120873 -0.139957 0)
(0.00925334 -0.088101 0)
(0.00696379 -0.0613321 0)
(0.00226613 -0.0590923 0)
(0.0157261 -0.0336918 0)
(-0.0338585 -0.0833122 0)
(-0.0570311 -0.0272055 0)
(-0.0559314 -0.0119148 0)
(-0.111667 -0.0918745 0)
(-0.116459 -0.122433 0)
(-0.123542 -0.109688 0)
(-0.113928 -0.0747205 0)
(-0.104705 -0.0710934 0)
(-0.103834 -0.0788885 0)
(-0.10645 -0.0772302 0)
(-0.124798 -0.0173702 0)
(-0.123942 -0.0375726 0)
(-0.131326 -0.0394734 0)
(-0.14198 -0.0924838 0)
(-0.152442 -0.120079 0)
(-0.149351 -0.135458 0)
(-0.131458 -0.141311 0)
(-0.100698 -0.109591 0)
(-0.0889272 -0.0803862 0)
(-0.0905782 -0.0652822 0)
(-0.067378 0.00393558 0)
(-0.0670195 -0.00903926 0)
(-0.0989096 0.0139848 0)
(-0.157585 -0.0358026 0)
(-0.174329 -0.123868 0)
(-0.185518 -0.165627 0)
(-0.167783 -0.189563 0)
(-0.147481 -0.187801 0)
(-0.120443 -0.145917 0)
(-0.0905989 -0.0845927 0)
(-0.0398932 0.0118123 0)
(-0.0491589 0.0354856 0)
(-0.0651323 0.0989708 0)
(-0.120362 0.0689302 0)
(-0.152139 -0.102781 0)
(-0.189038 -0.17505 0)
(-0.177219 -0.202151 0)
(-0.162708 -0.204225 0)
(-0.1497 -0.173427 0)
(-0.136295 -0.130543 0)
(0.118165 0.0113214 0)
(0.178039 0.059931 0)
(0.178932 0.130347 0)
(0.140527 0.210549 0)
(0.153533 0.116745 0)
(0.0720487 -0.0517863 0)
(-0.00511876 -0.170165 0)
(-0.0826974 -0.215182 0)
(-0.1112 -0.198212 0)
(-0.109402 -0.166284 0)
(-0.00137639 -0.144198 0)
(0.0368505 -0.0497821 0)
(0.0908545 0.0591397 0)
(0.0886423 0.154225 0)
(0.123036 0.0679664 0)
(0.143187 0.00987696 0)
(0.12515 0.00376816 0)
(0.040112 0.0043836 0)
(0.00567605 -0.11757 0)
(-0.00930219 -0.155101 0)
(-0.111625 -0.186824 0)
(-0.0833063 -0.0876712 0)
(-0.0546268 0.0306173 0)
(-0.0199849 0.0861205 0)
(-0.000445378 0.0322255 0)
(0.0185811 0.0651465 0)
(0.024524 0.0431537 0)
(0.0247268 0.0201473 0)
(0.0504534 -0.0783628 0)
(0.0269914 -0.0900919 0)
(-0.157096 -0.235998 0)
(-0.139412 -0.130827 0)
(-0.101159 -0.0492515 0)
(-0.0717881 -0.0277423 0)
(-0.0369628 -0.0497039 0)
(-0.00504886 -0.0454189 0)
(0.0254354 -0.038121 0)
(0.0551677 -0.0455655 0)
(0.0574313 -0.0704645 0)
(0.0373872 -0.0748106 0)
(-0.202376 -0.228815 0)
(-0.214044 -0.130054 0)
(-0.19653 -0.0759598 0)
(-0.192267 -0.0733937 0)
(-0.179341 -0.0852579 0)
(-0.161035 -0.0744139 0)
(-0.140362 -0.0684642 0)
(-0.122707 -0.05547 0)
(-0.112501 -0.0345435 0)
(-0.109876 -0.014787 0)
(-0.232294 -0.168737 0)
(-0.255854 -0.123014 0)
(-0.238849 -0.0763863 0)
(-0.22842 -0.0830213 0)
(-0.216808 -0.103783 0)
(-0.204538 -0.106121 0)
(-0.189476 -0.112648 0)
(-0.174449 -0.107534 0)
(-0.166353 -0.0855554 0)
(-0.165238 -0.0516675 0)
(-0.214037 -0.113532 0)
(-0.231667 -0.120365 0)
(-0.233107 -0.123142 0)
(-0.214916 -0.126439 0)
(-0.201052 -0.134524 0)
(-0.194506 -0.133103 0)
(-0.192113 -0.126522 0)
(-0.191897 -0.105556 0)
(-0.195141 -0.0629826 0)
(-0.199707 -0.0106814 0)
(-0.184945 -0.118834 0)
(-0.164525 -0.0789612 0)
(-0.149437 -0.122826 0)
(-0.173899 -0.130388 0)
(-0.183225 -0.133175 0)
(-0.186621 -0.129784 0)
(-0.197374 -0.123592 0)
(-0.201184 -0.101021 0)
(-0.203055 -0.0601221 0)
(-0.198368 -0.0121604 0)
(-0.21698 -0.309713 0)
(-0.151457 -0.172188 0)
(-0.102187 -0.116375 0)
(-0.0962421 -0.0798866 0)
(-0.123498 -0.0920187 0)
(-0.133628 -0.100456 0)
(-0.162288 -0.0927606 0)
(-0.178317 -0.0783643 0)
(-0.182072 -0.0642347 0)
(-0.175674 -0.0291903 0)
(-0.262827 -0.472723 0)
(-0.191269 -0.337691 0)
(-0.11785 -0.159956 0)
(-0.0694268 -0.0763575 0)
(0.00852202 -0.114674 0)
(0.0202539 -0.0133044 0)
(0.0328434 -0.0314468 0)
(-0.0634474 -0.0208375 0)
(-0.108194 -0.0706316 0)
(-0.13495 -0.0646686 0)
(-0.28034 -0.550446 0)
(-0.214174 -0.477396 0)
(-0.121771 -0.359006 0)
(-0.0255991 -0.290515 0)
(0.0324163 -0.276458 0)
(0.079372 -0.128496 0)
(0.130077 -0.0653817 0)
(0.181736 0.0945938 0)
(0.197351 0.151598 0)
(0.146012 0.0901383 0)
(-0.241061 -0.611119 0)
(-0.206824 -0.610941 0)
(-0.158622 -0.555157 0)
(-0.075352 -0.418261 0)
(-0.034069 -0.288401 0)
(0.00187265 -0.208472 0)
(0.0340027 -0.189675 0)
(0.0619553 -0.150038 0)
(0.154406 0.0582426 0)
(0.162018 0.271245 0)
(-0.186479 -0.61962 0)
(-0.189448 -0.659957 0)
(-0.163511 -0.66237 0)
(-0.119387 -0.592281 0)
(-0.0540951 -0.410864 0)
(-0.00694385 -0.277837 0)
(0.0112308 -0.209631 0)
(-0.0103436 -0.150809 0)
(0.00928246 0.0651708 0)
(0.0697072 0.226014 0)
(-0.0817554 -0.562586 0)
(-0.103601 -0.672804 0)
(-0.116046 -0.703869 0)
(-0.0952683 -0.663879 0)
(-0.0565354 -0.54532 0)
(-0.0211656 -0.332706 0)
(-0.00793994 -0.200522 0)
(-0.0362028 -0.127217 0)
(-0.0455878 -0.0671809 0)
(0.00653843 0.0676726 0)
(0.056224 -0.442919 0)
(0.0215106 -0.579509 0)
(0.00597458 -0.681981 0)
(-0.00968272 -0.67031 0)
(-0.0180205 -0.570683 0)
(-0.0220969 -0.341317 0)
(-0.00640505 -0.19445 0)
(-0.0248632 -0.0827005 0)
(-0.0411911 -0.0329036 0)
(-0.0378939 0.0193536 0)
(0.0871522 -0.428417 0)
(0.0697116 -0.542207 0)
(0.0850857 -0.644433 0)
(0.0667093 -0.648004 0)
(0.0602071 -0.547097 0)
(-0.0106352 -0.322302 0)
(0.00129957 -0.191726 0)
(-0.0168196 -0.0675166 0)
(-0.0143079 -0.0121443 0)
(-0.0218734 -0.0143897 0)
(0.0942617 -0.41859 0)
(0.091143 -0.542706 0)
(0.109215 -0.641679 0)
(0.0863652 -0.640526 0)
(0.0760127 -0.503094 0)
(0.00192679 -0.274203 0)
(-0.0120019 -0.160195 0)
(-0.0334351 -0.0741666 0)
(-0.00695991 -0.0062201 0)
(-0.0117755 -0.00587637 0)
(0.0388618 -0.424657 0)
(0.0629087 -0.557424 0)
(0.0783306 -0.62874 0)
(0.0319791 -0.557314 0)
(-0.0325877 -0.328921 0)
(-0.0902878 -0.176976 0)
(-0.0787005 -0.115567 0)
(-0.0933852 -0.0974172 0)
(-0.0553662 -0.0414078 0)
(-0.0444515 -0.0282519 0)
(-0.0982741 -0.514979 0)
(-0.088375 -0.596197 0)
(-0.102725 -0.590018 0)
(-0.107294 -0.423491 0)
(-0.108187 -0.226216 0)
(-0.127576 -0.164431 0)
(-0.115524 -0.130663 0)
(-0.109881 -0.120077 0)
(-0.0883204 -0.0830591 0)
(-0.0773573 -0.0624945 0)
(-0.187999 -0.517843 0)
(-0.213287 -0.566845 0)
(-0.204455 -0.574194 0)
(-0.152558 -0.432869 0)
(-0.097217 -0.24232 0)
(-0.100012 -0.171869 0)
(-0.096673 -0.15107 0)
(-0.0977221 -0.133534 0)
(-0.0954846 -0.0987493 0)
(-0.0942965 -0.0846052 0)
(-0.220036 -0.48787 0)
(-0.243129 -0.585988 0)
(-0.238858 -0.637499 0)
(-0.201538 -0.626232 0)
(-0.0845927 -0.425196 0)
(-0.0372148 -0.165035 0)
(-0.0573961 -0.140701 0)
(-0.0669428 -0.131405 0)
(-0.073344 -0.0890887 0)
(-0.080949 -0.0683572 0)
(-0.156452 -0.415893 0)
(-0.208173 -0.586503 0)
(-0.208538 -0.697439 0)
(-0.181603 -0.740254 0)
(-0.111507 -0.697986 0)
(0.00584206 -0.213449 0)
(-0.00265325 -0.0714187 0)
(-0.0551786 -0.0963507 0)
(-0.0523116 -0.0729416 0)
(-0.0545628 -0.0464397 0)
(-0.040443 -0.290305 0)
(-0.0769856 -0.456108 0)
(-0.14462 -0.680113 0)
(-0.146883 -0.775279 0)
(-0.107404 -0.766972 0)
(-0.0473233 -0.488584 0)
(0.0274288 0.0149 0)
(-0.0809108 -0.065214 0)
(-0.0515091 -0.090498 0)
(-0.045428 -0.0821342 0)
(-0.0147623 -0.265025 0)
(-0.0191871 -0.370095 0)
(-0.0613807 -0.52758 0)
(-0.109918 -0.762677 0)
(-0.101446 -0.781998 0)
(-0.122374 -0.618564 0)
(-0.0258508 0.103128 0)
(-0.0785959 -0.0778915 0)
(-0.0550436 -0.11305 0)
(-0.0514651 -0.129026 0)
(-0.0298724 -0.264326 0)
(-0.0313934 -0.336096 0)
(-0.0771762 -0.442215 0)
(-0.103526 -0.720607 0)
(-0.0880114 -0.781578 0)
(-0.100913 -0.731166 0)
(0.0412132 -0.000652733 0)
(0.0836234 0.0125026 0)
(0.0215291 -0.0686926 0)
(-0.0175546 -0.125381 0)
(-0.0407638 -0.263309 0)
(-0.0383377 -0.304217 0)
(-0.0818519 -0.384654 0)
(-0.111813 -0.703817 0)
(-0.0935856 -0.781904 0)
(-0.109655 -0.748907 0)
(-0.0680713 -0.344472 0)
(0.0386042 0.0561971 0)
(-0.0397552 -0.0025921 0)
(-0.023368 -0.091393 0)
(-0.0279343 -0.254539 0)
(-0.00600548 -0.274267 0)
(-0.0828148 -0.314158 0)
(-0.0934654 -0.698152 0)
(-0.0561468 -0.791898 0)
(-0.0557338 -0.771959 0)
(-0.047287 -0.517707 0)
(0.0444668 0.082982 0)
(-0.0382735 0.0123756 0)
(-0.00512736 -0.0847841 0)
(0.0357398 -0.236416 0)
(0.0751945 -0.22448 0)
(-0.0585711 -0.220175 0)
(-0.0380044 -0.773471 0)
(-0.016774 -0.806827 0)
(-0.0282043 -0.7766 0)
(-0.00542472 -0.576353 0)
(0.016236 0.0659205 0)
(-0.0132793 0.0617484 0)
(0.0215727 -0.0742024 0)
(0.111551 -0.248519 0)
(0.0802155 -0.185781 0)
(-0.0729406 -0.0142504 0)
(0.0142285 -0.832485 0)
(0.00665173 -0.800566 0)
(-0.000689586 -0.790772 0)
(0.0431662 -0.605115 0)
(0.000717996 0.126635 0)
(-0.0219847 -0.00339763 0)
(0.0452405 -0.0992049 0)
(-0.218841 0.000316885 0)
(-0.260187 0.0964029 0)
(0.0170461 -0.0280875 0)
(0.0141867 -0.83679 0)
(-0.00309017 -0.783859 0)
(-0.0138 -0.792162 0)
(-0.0213573 -0.695797 0)
(0.0202279 0.193861 0)
(-0.0056755 -0.0915993 0)
(0.0577324 -0.164644 0)
(-0.155103 0.159394 0)
(-0.102805 0.0351575 0)
(0.0230105 -0.824151 0)
(-0.0109986 -0.785862 0)
(-0.0100901 -0.760682 0)
(-0.0215659 -0.752365 0)
(-0.0332215 -0.742711 0)
(0.049069 0.154459 0)
(0.0885065 -0.055716 0)
(0.095949 -0.152055 0)
(-0.0727014 -0.0290206 0)
(0.0270866 -0.204349 0)
(0.0265747 -0.615383 0)
(0.0214666 -0.758538 0)
(0.00833295 -0.740026 0)
(-0.00646095 -0.733067 0)
(-0.0284416 -0.751499 0)
(0.0198816 0.022001 0)
(0.117494 -0.143308 0)
(0.0837042 -0.167373 0)
(0.00438171 -0.139685 0)
(0.050259 -0.200947 0)
(0.0372821 -0.602706 0)
(0.0266017 -0.73574 0)
(0.0119094 -0.711658 0)
(-0.00794865 -0.712803 0)
(-0.0128622 -0.747069 0)
(-0.0218965 -0.392332 0)
(0.187175 -0.124828 0)
(0.0533863 -0.102848 0)
(0.0163421 -0.200956 0)
(0.0446772 -0.248533 0)
(0.0224385 -0.583157 0)
(0.0138148 -0.702888 0)
(0.00160678 -0.681825 0)
(-0.0116745 -0.679542 0)
(-0.0274976 -0.69938 0)
(-0.0330476 -0.473438 0)
(-0.0278829 0.0394493 0)
(-0.0678709 0.117997 0)
(0.0349796 -0.213253 0)
(0.0490932 -0.256882 0)
(0.0341537 -0.553794 0)
(0.0265426 -0.678915 0)
(0.00968417 -0.658459 0)
(-0.00989436 -0.651943 0)
(-0.0238082 -0.676648 0)
(-0.0437806 -0.444906 0)
(-0.0832978 -0.0178833 0)
(-0.0281409 -0.0541788 0)
(0.0605792 -0.204953 0)
(0.0492748 -0.25845 0)
(0.0494689 -0.521329 0)
(0.023855 -0.641784 0)
(0.00883067 -0.627918 0)
(0.00249185 -0.630167 0)
(-0.0155076 -0.636978 0)
(-0.0132646 -0.448121 0)
(-0.0242842 0.0465772 0)
(-0.0259017 -0.109762 0)
(0.0582277 -0.180856 0)
(0.0108689 -0.243734 0)
(0.0473303 -0.50523 0)
(0.0219192 -0.611096 0)
(0.00858283 -0.596435 0)
(-0.00723582 -0.598528 0)
(-0.0212225 -0.614569 0)
(-0.0349437 -0.449391 0)
(0.0069173 0.0285662 0)
(-0.0388148 0.024714 0)
(0.0500616 -0.138496 0)
(-0.0155118 -0.236392 0)
(0.047128 -0.528055 0)
(0.0239984 -0.579258 0)
(0.00323784 -0.574982 0)
(-0.0050969 -0.572529 0)
(-0.028997 -0.574339 0)
(-0.0443798 -0.512773 0)
(0.0310746 0.0672346 0)
(-0.0210741 0.145242 0)
(0.0545884 -0.103087 0)
(0.0172661 -0.208773 0)
(0.0556174 -0.531795 0)
(0.0216188 -0.54683 0)
(0.00797382 -0.545294 0)
(-0.00607272 -0.544242 0)
(-0.024035 -0.548934 0)
(-0.0523348 -0.525894 0)
(0.00171541 0.00454711 0)
(0.00311675 0.179926 0)
(0.0718955 -0.0834145 0)
(0.0598148 -0.206738 0)
(0.06595 -0.48772 0)
(0.0414214 -0.509102 0)
(0.0230445 -0.506411 0)
(0.00143749 -0.504977 0)
(-0.018343 -0.507576 0)
(-0.0502392 -0.492882 0)
(-0.0458303 -0.0592721 0)
(-0.00756471 0.173702 0)
(0.071076 -0.0693725 0)
(0.0545005 -0.210271 0)
(0.0533347 -0.456956 0)
(0.0158575 -0.469192 0)
(-0.00262185 -0.472028 0)
(-0.0167922 -0.471987 0)
(-0.0398564 -0.465817 0)
(-0.0564839 -0.449883 0)
(-0.0374638 -0.147426 0)
(-0.0178551 0.129311 0)
(0.0555694 -0.0649815 0)
(0.0670021 -0.183719 0)
(0.0675843 -0.401312 0)
(0.0422514 -0.424477 0)
(0.0210881 -0.428089 0)
(-0.00294943 -0.429916 0)
(-0.026799 -0.425016 0)
(-0.0681202 -0.401665 0)
(-0.0673453 -0.153986 0)
(-0.0274692 0.0611428 0)
(-0.00827439 -0.0856672 0)
(0.0665213 -0.265321 0)
(0.0632344 -0.3655 0)
(0.0197564 -0.381563 0)
(-0.00233737 -0.385379 0)
(-0.0244048 -0.385425 0)
(-0.0446636 -0.379919 0)
(-0.062052 -0.35816 0)
(-0.0739453 -0.244111 0)
(-0.00284567 -0.0157959 0)
(0.0818297 -0.111562 0)
(0.0735977 -0.280742 0)
(0.0658533 -0.313664 0)
(0.0473946 -0.328731 0)
(0.025743 -0.333948 0)
(-0.00173565 -0.331504 0)
(-0.0283148 -0.328608 0)
(-0.067484 -0.316735 0)
(-0.0693506 -0.271227 0)
(-0.0546471 -0.0783225 0)
(0.0994616 -0.182188 0)
(0.072 -0.222288 0)
(0.0668405 -0.263524 0)
(0.0237676 -0.281733 0)
(0.000493692 -0.28812 0)
(-0.0261346 -0.289741 0)
(-0.0462516 -0.282469 0)
(-0.0708873 -0.261849 0)
(-0.0783792 -0.22067 0)
(-0.102881 -0.158467 0)
(0.0573926 -0.128112 0)
(0.0491935 -0.195731 0)
(0.0433853 -0.232165 0)
(0.0302964 -0.245642 0)
(0.0184294 -0.251269 0)
(-0.00270133 -0.251155 0)
(-0.0166756 -0.246751 0)
(-0.0440063 -0.235082 0)
(-0.0493858 -0.194 0)
(-0.0605918 -0.115246 0)
(0.00470609 0.0125768 0)
(-0.00758258 0.000870805 0)
(-0.0135369 0.00211222 0)
(-0.0206684 0.00173056 0)
(-0.0213185 0.00106171 0)
(-0.0285587 0.00757914 0)
(-0.038523 0.0109036 0)
(-0.0482073 0.00629078 0)
(-0.0509217 0.00288972 0)
(-0.05402 0.00300502 0)
(-0.0581389 0.00332572 0)
(-0.0629256 0.00235703 0)
(-0.0686028 0.00178385 0)
(-0.0762904 0.00437739 0)
(-0.0884265 0.00960238 0)
(-0.102181 0.0109611 0)
(-0.113653 0.00774762 0)
(-0.123577 0.00733795 0)
(-0.134457 0.00794534 0)
(-0.141625 0.00549477 0)
(-0.143997 0.00314948 0)
(-0.146045 0.00321182 0)
(-0.147856 0.00375715 0)
(-0.149605 0.00229076 0)
(-0.149513 0.00030108 0)
(-0.144869 -0.0035805 0)
(-0.136195 -0.00605611 0)
(-0.125875 -0.00854638 0)
(-0.111757 -0.0138827 0)
(-0.0933677 -0.0197522 0)
(-0.0736977 -0.0210201 0)
(-0.0547305 -0.0186757 0)
(-0.0372254 -0.0152902 0)
(-0.0198559 -0.0136904 0)
(-0.00284356 -0.0143916 0)
(0.0144104 -0.0122016 0)