/*--------------------------------*- C++ -*----------------------------------*\
  =========                 |
  \\      /  F ield         | OpenFOAM: The Open Source CFD Toolbox
   \\    /   O peration     | Website:  https://openfoam.org
    \\  /    A nd           | Version:  8
     \\/     M anipulation  |
\*---------------------------------------------------------------------------*/
FoamFile
{
    version     2.0;
    format      ascii;
    class       surfaceScalarField;
    location    "1.35";
    object      alphaPhi0.water;
}
// * * * * * * * * * * * * * * * * * * * * * * * * * * * * * * * * * * * * * //

dimensions      [0 3 -1 0 0 0 0];

internalField   nonuniform List<scalar> 
18095
(
1.97111e-08
-1.7204e-07
1.52329e-07
2.31586e-08
-1.98026e-07
1.94578e-07
1.95792e-08
-2.0578e-07
2.0936e-07
1.03486e-08
-2.10743e-07
2.19973e-07
-8.51325e-11
-2.13756e-07
2.2419e-07
-1.09809e-08
-2.13151e-07
2.24047e-07
-2.00701e-08
-2.10362e-07
2.19452e-07
-2.31913e-08
-2.05953e-07
2.09074e-07
-1.96975e-08
-1.98138e-07
1.94645e-07
-1.72051e-07
1.52353e-07
1.55059e-08
-1.87546e-07
1.58007e-08
-1.9832e-07
1.20619e-08
-2.02041e-07
6.17421e-09
-2.04855e-07
-8.04909e-10
-2.06777e-07
-6.94851e-09
-2.07007e-07
-1.20867e-08
-2.05224e-07
-1.57199e-08
-2.0232e-07
-1.55106e-08
-1.98348e-07
-1.87561e-07
6.82348e-09
-1.94369e-07
8.30296e-09
-1.998e-07
7.27489e-09
-2.01013e-07
4.49507e-09
-2.02075e-07
4.91869e-10
-2.02774e-07
-3.54801e-09
-2.02967e-07
-6.9101e-09
-2.01862e-07
-8.28129e-09
-2.00949e-07
-6.82948e-09
-1.998e-07
-1.94391e-07
4.54548e-09
-1.98915e-07
4.67486e-09
-1.99929e-07
3.5906e-09
-1.99929e-07
1.91652e-09
-2.00401e-07
-1.46107e-10
-2.00711e-07
-2.33552e-09
-2.00778e-07
-3.82063e-09
-2.00377e-07
-4.69628e-09
-2.00073e-07
-4.53213e-09
-1.99964e-07
-1.98923e-07
1.08524e-09
1.15598e-09
1.22707e-09
8.25968e-10
1.14682e-10
-6.63248e-10
-1.04033e-09
-1.11345e-09
-1.07722e-09
-2.68967e-08
-1.96622e-07
2.23519e-07
-2.96087e-08
-1.98962e-07
2.01674e-07
-2.49275e-08
-2.01209e-07
1.96528e-07
-1.43571e-08
-2.01188e-07
1.90618e-07
-4.31406e-10
-2.01936e-07
1.8801e-07
1.33777e-08
-2.01566e-07
1.87756e-07
2.47784e-08
-2.01218e-07
1.89817e-07
2.97422e-08
-2.01397e-07
1.96433e-07
2.72222e-08
-1.99054e-07
2.01574e-07
-1.96849e-07
2.24071e-07
-9.96326e-09
-1.86659e-07
-1.59232e-08
-1.93002e-07
-1.47359e-08
-2.02396e-07
-7.57146e-09
-2.08353e-07
-7.44926e-10
-2.08762e-07
6.45818e-09
-2.08769e-07
1.4213e-08
-2.08973e-07
1.56133e-08
-2.02797e-07
9.88201e-09
-1.93323e-07
-1.86967e-07
-1.06911e-08
-1.75968e-07
-8.38319e-09
-1.9531e-07
-5.53897e-09
-2.05241e-07
-3.53157e-09
-2.1036e-07
2.58665e-10
-2.12552e-07
4.19964e-09
-2.1271e-07
5.78058e-09
-2.10554e-07
8.32651e-09
-2.05343e-07
1.06687e-08
-1.95665e-07
-1.76298e-07
-6.50564e-09
-1.69462e-07
-8.61828e-09
-1.93197e-07
-8.56256e-09
-2.05296e-07
-4.09963e-09
-2.14823e-07
-2.87893e-11
-2.16623e-07
4.24278e-09
-2.16981e-07
8.83656e-09
-2.15147e-07
8.88251e-09
-2.05389e-07
6.65027e-09
-1.93433e-07
-1.69648e-07
-1.71332e-08
-1.57521e-08
-1.16889e-08
-6.53863e-09
1.0281e-09
8.09356e-09
1.23977e-08
1.6083e-08
1.72944e-08
3.72059e-08
-1.55441e-07
1.18235e-07
4.33614e-08
-1.96856e-07
1.907e-07
3.65301e-08
-2.0911e-07
2.15942e-07
2.34585e-08
-2.14801e-07
2.27873e-07
6.48272e-09
-2.16787e-07
2.33763e-07
-9.21282e-09
-2.17803e-07
2.33498e-07
-2.31654e-08
-2.17111e-07
2.31063e-07
-3.21132e-08
-2.12188e-07
2.21136e-07
-3.00444e-08
-2.00311e-07
1.98243e-07
-1.59592e-07
1.29547e-07
1.77111e-08
-1.73152e-07
2.12046e-08
-2.00349e-07
1.86362e-08
-2.06542e-07
1.30494e-08
-2.09214e-07
4.7342e-09
-2.08472e-07
-4.41623e-09
-2.08652e-07
-1.30975e-08
-2.0843e-07
-1.74706e-08
-2.07815e-07
-1.53921e-08
-2.0239e-07
-1.74984e-07
1.02566e-08
-1.83409e-07
1.03876e-08
-2.0048e-07
9.03926e-09
-2.05194e-07
4.19682e-09
-2.04372e-07
5.86348e-12
-2.04281e-07
-3.65276e-09
-2.04994e-07
-7.22199e-09
-2.0486e-07
-8.82202e-09
-2.06215e-07
-9.58498e-09
-2.01627e-07
-1.84569e-07
7.8785e-09
-1.91287e-07
7.08808e-09
-1.9969e-07
7.82867e-09
-2.05934e-07
3.47871e-09
-2.00022e-07
1.85808e-09
-2.0266e-07
-1.52205e-10
-2.02983e-07
-5.57608e-09
-1.99437e-07
-5.45572e-09
-2.06336e-07
-7.23238e-09
-1.9985e-07
-1.91801e-07
3.22313e-08
3.42153e-08
2.4809e-08
1.54051e-08
7.54853e-10
-1.4472e-08
-2.40913e-08
-3.39936e-08
-3.22696e-08
-7.79746e-07
-4.84562e-10
5.6921e-07
-7.41898e-07
-1.70543e-09
-6.85297e-07
-1.34235e-08
-4.98988e-07
-1.94719e-09
-3.9521e-07
-4.31223e-09
-6.17989e-07
-3.83198e-09
-5.50229e-07
-1.00651e-08
-3.60315e-07
-1.00152e-07
-7.53536e-08
-3.64299e-07
-4.05924e-07
1.85667e-07
-2.63523e-08
-2.24902e-08
2.84586e-08
-5.26701e-08
-7.92561e-09
-1.04209e-08
-7.16289e-08
-9.38106e-09
-3.42121e-09
-7.67059e-09
-6.43571e-09
-7.87251e-09
-4.3436e-09
-1.35233e-08
-5.36412e-09
2.03509e-09
-1.17463e-08
1.40824e-07
-3.08263e-07
-5.68213e-07
2.99936e-07
3.83234e-08
-7.65668e-08
1.45272e-08
7.77207e-08
-9.90547e-08
3.07533e-08
-7.41392e-08
1.3884e-08
-6.71115e-09
1.03401e-08
-3.5878e-09
9.59263e-09
-4.546e-09
8.474e-09
-5.19536e-09
6.89839e-09
-1.11206e-08
2.58364e-07
-2.11453e-07
-5.76404e-07
3.06072e-07
-1.87462e-08
-1.04347e-07
7.3887e-08
1.24309e-08
-6.90068e-08
8.00612e-09
-2.4468e-08
2.63235e-09
-8.85494e-09
6.5109e-09
-1.04274e-08
9.69386e-09
-8.82379e-09
1.70757e-08
-1.35271e-08
2.55092e-08
-1.62493e-08
3.06726e-07
-1.63183e-07
-5.67132e-07
2.87544e-07
-7.74691e-08
-1.1265e-07
1.89448e-07
-1.57316e-08
-6.39041e-09
4.76034e-09
-9.95087e-08
1.40925e-08
-6.6281e-08
2.72788e-08
-1.07762e-07
3.26863e-08
-1.26016e-07
4.59935e-08
-3.37188e-08
7.2448e-08
-3.9531e-08
4.11826e-07
-2.07036e-07
-4.97397e-07
3.79579e-07
-1.15445e-07
-2.23505e-07
1.57965e-07
-6.03399e-08
-3.52897e-07
5.61388e-09
-5.16517e-07
1.18221e-07
-4.7917e-07
2.19281e-07
-4.62273e-07
2.58468e-07
-4.68065e-07
9.82545e-08
-3.59273e-07
2.30009e-07
-1.6727e-07
5.81982e-07
-3.86857e-07
-4.63011e-07
5.53151e-07
-1.88157e-07
-4.21859e-07
1.35169e-07
-1.50025e-07
-5.4777e-07
1.6445e-08
-6.80192e-07
2.00523e-07
-6.60458e-07
3.84163e-07
-6.46177e-07
5.07969e-07
-5.8712e-07
4.58591e-07
-5.1441e-07
5.52786e-07
-3.59485e-07
5.99196e-07
-4.39082e-07
-4.51663e-07
5.91447e-07
-1.99955e-07
-4.70159e-07
3.00742e-07
-6.82173e-08
-6.56099e-07
9.2835e-08
-8.39339e-07
2.47256e-07
-8.11928e-07
3.27299e-07
-6.75478e-07
3.37288e-07
-3.30156e-07
3.93139e-07
-1.02203e-07
5.01263e-07
-1.3448e-07
5.20451e-07
-4.50977e-07
-4.5675e-07
5.27839e-07
-1.49531e-07
-4.42565e-07
2.32694e-07
-1.09859e-07
-6.36951e-07
-6.60324e-09
-9.39645e-07
4.33888e-08
-6.63307e-07
1.00111e-08
-7.42614e-08
2.14594e-08
-3.03555e-08
1.13366e-08
-7.71865e-09
1.00428e-07
-8.00359e-09
3.16058e-07
-3.38156e-07
-3.72618e-07
2.39217e-07
-2.21602e-07
-4.4665e-07
2.19581e-07
-2.66969e-07
-6.12364e-07
-2.60701e-07
-9.40411e-07
-4.66066e-08
-6.23951e-07
-9.31369e-09
-1.19377e-07
-4.9778e-09
-3.82811e-08
-4.167e-10
-1.37424e-08
1.77902e-09
-1.22292e-08
4.86765e-08
-7.44314e-08
-1.30816e-07
-1.76152e-09
-2.34305e-07
-4.10039e-07
1.88527e-07
-3.30739e-07
-6.15208e-07
-3.39378e-07
-9.17814e-07
-1.8408e-07
-8.09782e-07
-3.62912e-08
-2.93054e-07
-1.16043e-08
-7.13682e-08
-2.50638e-09
-2.64436e-08
-5.66926e-10
-7.55993e-09
0
-7.16027e-09
-4.80446e-08
-1.32405e-08
-7.13561e-08
-4.80311e-07
6.24884e-08
-2.41628e-07
-4.76263e-07
-4.43502e-07
-7.0342e-07
-4.51785e-07
-8.81004e-07
-1.93919e-07
-7.33786e-07
-3.88389e-08
-4.46229e-07
-9.43925e-09
-6.78661e-08
-1.24509e-09
-2.07422e-08
-5.11594e-09
-6.85185e-09
-6.02933e-09
-1.91548e-09
1.20094e-07
-3.26399e-07
-2.42044e-07
1.03099e-08
-3.09839e-07
-1.15569e-07
-4.5069e-07
-2.20779e-07
-6.79635e-07
-3.02603e-07
-7.97665e-07
-1.77935e-07
-9.82572e-07
-3.24299e-08
-6.10081e-07
-4.22893e-09
-9.5393e-08
-1.14563e-09
-1.40355e-08
-6.50505e-10
-9.51783e-09
5.00331e-07
-1.02734e-07
-4.08041e-07
5.06502e-07
-2.47852e-07
3.28443e-07
-2.34794e-07
1.03577e-07
-4.67387e-07
-1.83376e-08
-6.53904e-07
1.34346e-08
-1.00296e-06
5.62155e-08
-9.89349e-07
6.17178e-09
-5.50847e-07
4.60697e-11
-8.03657e-08
-8.6889e-10
2.9632e-10
3.98977e-07
-3.60546e-08
-3.20408e-08
7.70112e-07
-2.37282e-07
4.58519e-07
-3.53297e-07
3.41605e-07
-3.63973e-07
2.36528e-07
-5.6159e-07
2.3197e-07
-9.95789e-07
2.43718e-07
-9.95504e-07
1.16953e-07
-7.01891e-07
6.86448e-10
-1.62202e-07
-2.02624e-09
9.98912e-10
2.8002e-07
-6.25655e-08
-3.61477e-08
4.75435e-07
-2.77943e-07
4.64267e-07
-3.43135e-07
3.02684e-07
-2.71661e-07
3.4962e-07
-6.33707e-07
3.70828e-07
-1.03881e-06
2.85727e-07
-9.0494e-07
1.56307e-07
-6.21955e-07
1.95849e-09
-1.40103e-07
-6.28091e-10
3.27946e-10
3.35412e-07
-2.4173e-07
-9.49639e-08
3.44852e-07
-2.88116e-07
3.33937e-07
-3.31975e-07
3.07881e-07
-3.34422e-07
4.19878e-07
-8.0278e-07
3.93318e-07
-9.60612e-07
1.92639e-07
-5.7224e-07
4.97157e-08
-3.08015e-07
1.24346e-09
-8.7926e-08
5.09474e-10
-1.75851e-10
1.9603e-07
-2.44183e-07
-1.99338e-07
1.69539e-07
-2.61552e-07
1.33771e-07
-2.95833e-07
1.94604e-07
-5.53017e-07
3.78404e-07
-9.897e-07
2.34901e-07
-7.19341e-07
2.62503e-08
-2.33593e-07
2.22852e-08
-1.36259e-07
0
-6.14888e-08
7.61272e-10
-4.86243e-10
1.38521e-07
-1.26073e-07
-2.56533e-07
1.09902e-08
-1.33946e-07
-7.14992e-08
-2.13267e-07
6.57171e-08
-6.8986e-07
1.39769e-07
-1.0592e-06
6.85589e-08
-4.62194e-07
3.8382e-09
-1.79162e-07
2.25498e-09
-2.38599e-07
-3.93297e-10
-4.415e-08
6.05928e-10
-2.48373e-10
4.32664e-08
-7.60972e-09
-1.61619e-07
-9.53258e-08
4.74469e-09
-1.76126e-07
-1.32345e-07
-1.43617e-07
-7.20912e-07
-9.46494e-08
-1.10062e-06
-2.91121e-08
-5.10436e-07
-5.3318e-08
-1.65289e-07
-3.95888e-08
-2.41868e-07
-2.51103e-10
-6.70382e-08
5.27468e-10
-1.74285e-10
-1.62592e-08
3.38689e-08
-2.50997e-08
-6.36159e-08
5.2214e-08
-9.22407e-08
-8.98939e-08
-2.1834e-07
-2.94822e-07
-2.52116e-07
-9.19193e-07
-4.0269e-08
-8.66239e-07
-1.03481e-08
-2.05543e-07
-2.46134e-08
-2.14791e-07
-1.08389e-10
-1.17355e-07
4.35909e-10
-1.62676e-11
1.21581e-07
-8.89606e-09
-7.86952e-08
1.40664e-07
3.33217e-08
9.2167e-08
-5.34646e-08
-9.13648e-08
-2.05588e-07
-1.81099e-07
-8.23246e-07
-3.32873e-08
-1.05507e-06
4.64637e-09
-2.54018e-07
1.53058e-08
-2.12576e-07
-2.86887e-11
-1.08211e-07
3.62431e-10
4.40353e-11
2.34075e-07
-5.34925e-08
-1.8924e-07
2.70619e-07
-3.1047e-09
2.70114e-07
-5.25802e-08
7.41019e-08
-1.13225e-07
1.85319e-08
-7.83832e-07
2.52349e-08
-1.0589e-06
2.75572e-08
-2.73744e-07
2.41905e-08
-1.97829e-07
-1.52015e-11
-6.81247e-08
3.70247e-10
-2.1303e-11
1.83268e-07
-6.41489e-08
-1.72096e-07
2.11457e-07
-3.09139e-08
1.9513e-07
-3.74329e-08
9.35343e-08
-4.58241e-08
3.93173e-08
-7.40354e-07
2.42719e-08
-1.04114e-06
2.05824e-10
-3.63299e-07
6.11871e-09
-1.73126e-07
-5.97659e-11
-5.91991e-08
4.26826e-10
-1.12159e-10
1.44959e-07
-3.73835e-08
-1.65493e-07
1.34821e-07
-2.0119e-08
4.80312e-08
-7.06933e-09
1.52146e-08
-2.53529e-08
2.76055e-08
-7.433e-07
2.53162e-08
-1.03605e-06
1.77727e-09
-4.27833e-07
6.45445e-09
-1.39544e-07
-3.64652e-11
-2.74999e-08
5.65595e-10
-1.71732e-10
1.22036e-07
-1.35178e-08
-1.51436e-07
1.00487e-07
-2.91456e-08
4.2167e-08
9.14185e-09
2.85088e-08
-2.40399e-08
6.95236e-08
-7.73289e-07
4.59109e-08
-1.00985e-06
7.51049e-10
-3.44029e-07
1.09544e-08
-1.31939e-07
4.08944e-09
-4.3665e-08
4.84889e-09
-1.98949e-10
1.44494e-07
-3.38695e-08
-8.97381e-08
1.48426e-07
-5.32431e-08
1.38703e-07
-2.20691e-08
1.02808e-07
-1.86503e-09
1.2677e-07
-7.94664e-07
1.49464e-07
-1.02999e-06
6.49472e-08
-2.54649e-07
9.91094e-08
-1.5024e-07
8.37441e-08
-1.24624e-08
3.00896e-08
9.98329e-09
2.96028e-08
1.05851e-10
-9.38661e-09
5.06483e-08
-3.83643e-10
1.53959e-07
-3.85087e-09
9.39167e-08
3.03173e-08
1.65811e-07
-8.64008e-07
1.76906e-07
-1.03854e-06
9.38215e-08
-1.9664e-07
6.22548e-08
-9.74638e-08
1.37782e-08
3.93011e-08
2.41289e-08
-3.82638e-09
7.70197e-10
1.78743e-10
-8.92513e-10
2.80432e-10
6.37412e-11
3.04399e-08
-4.37689e-11
2.3829e-08
1.7607e-08
8.80893e-08
-9.25718e-07
9.28479e-08
-1.04075e-06
0
-1.18641e-07
-9.36048e-08
3.01494e-08
-2.01822e-08
5.1277e-08
4.56041e-09
-1.24152e-09
1.52636e-10
9.79453e-11
-1.14947e-10
5.97413e-11
1.15109e-10
-1.7936e-10
1.53805e-10
1.78348e-09
3.16444e-09
2.14446e-08
-9.4809e-07
1.432e-08
-1.03107e-06
-1.41345e-08
-8.63957e-08
-9.02343e-08
1.36941e-07
-2.71832e-09
8.01811e-08
2.09943e-09
-8.05343e-10
9.60159e-11
9.20909e-11
-1.14925e-10
1.43341e-10
3.21705e-10
-7.94705e-11
4.66496e-10
-1.32207e-08
1.62599e-09
4.21907e-10
-9.65001e-07
-8.81693e-09
-1.01146e-06
-2.04816e-08
-6.58636e-08
-1.11811e-07
1.26322e-07
-1.36508e-07
4.85349e-08
6.0256e-08
-1.40471e-08
-3.94025e-10
1.91437e-10
2.51666e-10
-7.37048e-10
7.20296e-10
-3.92179e-09
2.30519e-09
-4.84307e-09
-1.49049e-08
5.93911e-10
-9.81504e-07
-5.1799e-10
-1.00104e-06
0
-1.02914e-08
-1.61644e-08
5.49675e-09
-5.00654e-08
5.25336e-10
5.37263e-08
-7.10228e-09
-1.03884e-09
2.4905e-10
9.72971e-10
-1.07054e-09
1.1574e-09
0
7.25743e-10
4.07258e-09
-6.31259e-09
1.19703e-08
-9.85609e-07
6.09519e-09
-9.9186e-07
1.58313e-11
-8.62181e-09
1.10762e-09
1.57276e-09
-1.24663e-09
0
0
-9.4618e-10
-3.57732e-10
4.23736e-11
5.63974e-10
-1.05876e-09
2.33368e-10
0
-4.25695e-12
6.03172e-09
-1.70692e-10
1.66777e-08
-9.84473e-07
2.77311e-09
-9.83256e-07
1.46503e-11
-1.25841e-08
3.14247e-10
8.51099e-10
7.2009e-10
1.70913e-10
8.77261e-11
2.12169e-09
-4.95623e-11
1.19015e-11
7.97445e-11
-9.72867e-13
5.73013e-12
1.0462e-12
-6.61642e-12
5.33052e-10
-7.50771e-10
-1.25166e-09
-9.79758e-07
-4.381e-09
-9.77926e-07
-1.90937e-10
-1.00558e-08
3.82368e-11
5.20593e-10
4.06832e-10
5.70271e-10
1.14241e-09
9.51491e-10
-3.53796e-12
3.32761e-12
1.14038e-11
2.65899e-12
-1.18269e-12
3.33806e-12
-7.9617e-12
2.85556e-09
-1.89851e-11
4.06131e-08
-9.73999e-07
2.06529e-08
-9.81224e-07
-1.56047e-10
-6.78818e-11
1.02218e-10
3.21159e-10
1.27865e-10
4.43292e-10
1.08474e-09
-4.38174e-11
-5.0453e-13
-1.54325e-12
4.60176e-12
1.55867e-12
-4.03007e-12
1.8921e-12
-9.01084e-12
4.92017e-12
-2.21829e-11
3.68557e-10
-9.75156e-07
-1.39301e-10
-9.73926e-07
-5.35146e-11
-4.28429e-11
8.82658e-11
2.52817e-10
-7.01302e-12
6.0212e-10
4.53304e-11
-4.79982e-10
-4.18398e-15
-5.99488e-12
3.74541e-12
1.14651e-12
-5.96495e-12
4.03243e-12
-1.39704e-11
1.60437e-11
-3.10685e-11
-2.77421e-10
-9.74031e-07
-1.82665e-12
-9.72659e-07
-9.24175e-12
-4.77175e-11
6.00278e-11
2.02438e-10
2.87796e-11
5.31758e-10
3.01888e-11
-1.86799e-11
5.62327e-12
-1.36117e-11
-8.2212e-13
4.65459e-12
-7.06817e-12
3.39175e-11
-2.98428e-10
5.26279e-11
-2.98896e-11
-4.04306e-09
-9.73282e-07
-8.81714e-11
-9.73916e-07
-7.4029e-12
-6.90203e-11
1.26975e-10
3.63153e-11
9.28571e-11
1.76663e-10
3.81945e-11
8.35679e-11
2.48294e-10
-8.69967e-10
-1.83449e-10
1.19457e-10
-7.36402e-10
1.06841e-10
-8.91597e-10
1.03361e-10
-2.05997e-11
-7.13299e-10
-9.73025e-07
-2.33678e-10
-9.74001e-07
-1.71583e-12
-2.04314e-12
1.68489e-11
-4.28613e-13
9.34407e-11
1.15391e-11
1.5125e-11
1.36338e-10
4.79561e-10
-7.85298e-10
-5.45683e-10
3.23302e-10
-5.88198e-10
1.24516e-10
-6.73573e-10
1.12272e-10
-3.39815e-12
2.90877e-09
-9.73876e-07
-1.45634e-14
-9.73892e-07
-6.44519e-14
-2.00221e-12
3.25239e-13
-8.27263e-13
1.02627e-11
1.58515e-12
6.49738e-12
4.16783e-11
1.81715e-10
-7.26194e-10
-1.74888e-10
2.20142e-10
-6.07005e-10
2.33324e-11
-4.27897e-10
2.00834e-11
-1.49076e-13
-5.85909e-10
-9.76876e-07
-5.68076e-14
-9.75931e-07
-4.91173e-14
-2.01874e-12
8.00414e-14
-9.66786e-13
1.68222e-12
-4.22385e-14
1.71655e-12
1.93162e-11
-2.95941e-10
-4.94191e-14
2.00958e-10
-2.92488e-10
-4.45801e-14
0
-3.10463e-14
5.41202e-15
-1.54221e-13
3.36923e-10
-9.81076e-07
-1.90251e-13
-9.79777e-07
-1.60284e-13
-2.05907e-12
-3.40602e-14
-3.8544e-12
4.61301e-14
-1.61206e-13
2.50053e-14
2.92506e-13
-4.98451e-14
-4.58872e-14
4.80754e-14
-4.41705e-14
-5.02192e-14
-5.80736e-15
-6.94244e-14
1.47171e-15
-1.61226e-13
-2.17156e-09
-9.85025e-07
-4.28266e-13
-9.83676e-07
-4.36865e-13
-2.06751e-12
-8.78614e-14
-3.9738e-12
-2.35369e-14
-2.75604e-13
-3.00351e-14
2.90673e-14
-3.18869e-14
-5.07551e-14
3.66576e-14
-2.0827e-14
-6.13438e-14
4.72327e-16
-9.07302e-14
2.54437e-15
-1.63362e-13
-9.95957e-10
-9.88759e-07
-3.50431e-13
-9.87863e-07
-3.5674e-13
-2.08331e-12
-6.84407e-14
-4.03304e-12
0
-2.7034e-13
-7.45089e-14
6.60015e-14
-7.47901e-16
-5.22589e-14
0
-1.69819e-15
-6.04834e-14
1.67764e-15
-9.41707e-14
6.48859e-15
-1.68263e-13
-3.28921e-10
-9.92821e-07
-3.01468e-13
-9.91703e-07
-3.20256e-13
-2.08707e-12
-1.53228e-13
-3.96811e-12
0
-9.81232e-13
-1.07798e-13
2.94381e-14
8.05855e-15
-4.58649e-14
-1.79795e-14
4.08759e-15
-5.67708e-14
3.65052e-15
-9.38235e-14
2.31457e-14
-1.88017e-13
-5.98487e-10
-9.95798e-07
-1.50545e-13
-9.94745e-07
-1.58762e-13
-2.09857e-12
-8.50304e-14
-1.63899e-12
-1.73579e-14
-2.65741e-12
-1.19342e-13
-6.7927e-15
2.7468e-15
-6.05893e-14
0
4.31883e-15
-5.96227e-14
6.44998e-15
-9.62131e-14
9.79672e-14
-2.80814e-13
-3.27917e-10
-9.97703e-07
-1.73179e-13
-9.9691e-07
-8.48987e-14
-2.19774e-12
-1.13491e-13
-1.09259e-12
-9.76038e-15
-2.72929e-12
-1.23625e-13
-8.80761e-15
1.57838e-16
-1.3455e-13
8.32322e-15
7.57337e-15
-7.70605e-13
7.96237e-15
-1.09504e-13
4.17704e-13
-6.97289e-13
-3.1085e-10
-9.98525e-07
-5.04606e-13
-9.97854e-07
-7.24803e-14
-2.62723e-12
4.00948e-15
-1.09311e-12
7.53807e-14
-2.7674e-12
-1.14529e-13
-1.06026e-14
-4.42993e-14
-2.11218e-13
2.07198e-14
2.85693e-14
-4.48359e-12
1.20535e-14
-1.07822e-13
1.88434e-12
-2.58215e-12
-6.07341e-10
-9.97849e-07
-1.91027e-12
-9.97311e-07
-9.58913e-14
-4.39912e-12
1.69644e-15
-1.1515e-12
1.07617e-13
-2.84006e-12
-8.45226e-14
-5.69731e-15
-1.18554e-13
-2.8636e-13
5.15827e-15
2.44284e-14
-4.54285e-12
2.34679e-14
-1.04117e-13
8.75481e-12
-1.13112e-11
-6.67307e-10
-9.96022e-07
-7.51317e-12
-9.95287e-07
-1.04263e-13
-1.16153e-11
-4.78758e-14
-1.17049e-12
-5.39449e-15
-1.85303e-12
-6.88347e-14
-2.15371e-14
-2.31317e-13
-2.13245e-13
1.22982e-13
-1.56671e-16
-4.7031e-12
2.65416e-15
-1.07287e-13
4.05734e-11
-5.18823e-11
-6.79932e-10
-9.92872e-07
-3.30758e-11
-9.91979e-07
-1.06792e-13
-4.43749e-11
-3.92317e-14
-1.11723e-12
-6.83278e-15
0
-5.7855e-14
-1.83509e-14
-3.91514e-13
-4.42649e-13
7.98122e-13
-1.23916e-22
-3.29464e-12
4.35784e-15
-1.12032e-13
1.80862e-10
-2.32741e-10
-7.4069e-10
-9.88805e-07
-1.49778e-10
-9.87978e-07
-4.55349e-13
-1.94136e-10
-1.46081e-13
-2.03591e-12
-2.35147e-14
-7.51397e-12
-4.4662e-14
-2.77652e-14
-3.54269e-13
-7.28333e-12
6.45277e-12
-1.9493e-16
-4.27121e-12
1.47536e-14
-1.27343e-13
7.66093e-10
-9.98819e-10
-1.10616e-10
-9.84224e-07
-6.47005e-10
-9.82621e-07
-1.88303e-12
-8.41554e-10
-3.80386e-12
-3.84711e-12
-2.46831e-12
-3.54335e-11
-6.31995e-13
-4.65681e-14
-1.57632e-12
-8.10733e-11
7.01185e-12
-4.13827e-16
-1.12482e-11
7.61762e-14
-2.04039e-13
2.64654e-09
-3.33163e-09
-1.41921e-09
-9.77487e-07
-2.47227e-09
-9.76579e-07
-3.69707e-12
-3.31378e-09
-7.62628e-12
-3.92995e-12
-1.09068e-12
-3.68408e-11
-1.53546e-12
-7.97452e-14
6.22587e-13
-1.24632e-10
7.18865e-12
3.91356e-13
-1.58868e-11
4.79873e-13
-2.91177e-13
3.76861e-09
-5.97521e-09
-5.73748e-10
-9.70714e-07
-4.28492e-09
-9.6984e-07
-4.75152e-12
-5.5928e-09
-8.35844e-12
-4.21025e-12
-2.45301e-12
-3.74674e-11
-5.01697e-13
-4.68519e-13
4.79911e-12
-1.11627e-10
0
5.82065e-13
-1.22175e-11
6.38811e-13
-3.4112e-13
3.61713e-09
-9.52445e-09
-7.46908e-10
-9.65458e-07
-3.88283e-09
-9.65113e-07
-6.65692e-12
-9.01737e-09
-1.08614e-11
-3.97032e-12
-5.65536e-12
-3.75452e-11
-2.58068e-13
-6.6348e-13
3.36401e-12
-7.03688e-11
-2.8506e-12
4.23171e-13
-2.99924e-12
4.76527e-13
-3.59032e-13
4.39849e-09
-1.42687e-08
7.48536e-10
-9.62545e-07
-4.00361e-09
-9.61691e-07
-3.60156e-12
-1.37499e-08
-6.07602e-12
-4.21887e-12
-4.92235e-12
-2.09605e-11
-7.45228e-13
-9.34615e-13
0
-5.48616e-11
-1.42783e-11
1.34838e-13
-2.5647e-12
2.34536e-13
-4.05212e-13
4.58222e-09
-2.07407e-08
-3.80693e-10
-9.62009e-07
-4.5768e-09
-9.61166e-07
-7.89821e-12
-1.99631e-08
-9.03868e-12
-3.24063e-12
-2.02035e-11
-7.36586e-12
1.27504e-11
-2.45712e-12
0
-6.55307e-11
-5.30351e-11
2.01492e-13
-2.9148e-12
3.02635e-13
-4.806e-13
3.86097e-09
-2.82547e-08
-1.17817e-09
-9.6486e-07
-5.02842e-09
-9.6358e-07
-1.94197e-12
-2.77969e-08
-1.86426e-12
-3.64822e-12
-6.18557e-12
-7.3477e-12
4.18952e-11
-4.29791e-12
0
-9.55634e-11
-9.66847e-11
5.17209e-13
-2.64114e-12
5.70755e-13
-5.28843e-13
4.80399e-09
-3.83101e-08
-8.75609e-10
-9.69616e-07
-5.27638e-09
-9.68579e-07
-1.4125e-11
-3.77292e-08
-1.52247e-11
-2.93463e-12
-3.78974e-11
1.25522e-11
7.08043e-11
-2.83341e-12
2.61516e-13
-1.07771e-10
-1.00998e-10
5.59283e-13
-2.49155e-12
6.114e-13
-5.79682e-13
4.68755e-09
-4.96252e-08
-6.3368e-10
-9.76372e-07
-5.04885e-09
-9.75494e-07
-7.5328e-12
-4.92026e-08
-9.21349e-12
-2.45075e-12
-5.24629e-11
4.79921e-11
8.02556e-11
-4.99765e-11
2.81654e-12
-9.44026e-11
-1.11672e-10
6.38389e-13
-1.84847e-12
6.22801e-13
-5.74781e-13
4.86323e-09
-6.25115e-08
-9.63886e-10
-9.83196e-07
-5.85315e-09
-9.81631e-07
-1.7373e-13
-6.21709e-08
-2.13262e-12
-2.60923e-12
-2.82634e-11
1.8961e-11
7.99406e-11
-1.4971e-11
1.41664e-12
-4.38175e-11
-1.15311e-10
3.88444e-13
-9.11917e-13
3.48028e-13
-5.80246e-13
4.72161e-09
-7.53382e-08
-1.03801e-09
-9.8593e-07
-5.52795e-09
-9.84421e-07
-5.49547e-13
-7.44224e-08
0
-5.22802e-12
1.05101e-11
5.14219e-13
9.40028e-12
5.0116e-11
9.21102e-13
-1.16518e-11
-1.02921e-10
1.67601e-13
-4.05478e-13
2.20676e-13
-7.92924e-13
4.94436e-09
-8.71151e-08
-1.91757e-10
-9.79265e-07
-5.86265e-09
-9.78985e-07
-1.85812e-11
-8.56703e-08
-5.38918e-14
-2.59622e-11
1.04792e-12
-8.63872e-13
1.07574e-12
8.44275e-12
1.38073e-12
-2.34551e-12
-2.98965e-11
1.03114e-13
-2.02167e-13
1.55531e-12
-2.54444e-12
6.12152e-09
-8.95699e-08
5.09223e-09
-9.67047e-07
-4.5929e-09
-9.65672e-07
-1.73585e-10
-9.96864e-08
-1.16843e-12
-2.09877e-10
1.93969e-12
-2.09435e-11
5.97798e-13
9.65323e-13
8.66814e-13
-1.95253e-13
-1.4049e-11
1.88437e-13
-1.19304e-13
1.24954e-11
-1.59353e-11
2.771e-08
-9.24467e-08
3.89818e-08
-9.50899e-07
3.42827e-08
-9.58092e-07
2.26037e-10
-9.52302e-08
-5.73736e-13
-6.13615e-12
1.37477e-12
-9.02244e-11
4.17014e-13
1.1667e-13
6.48624e-13
1.46845e-13
0
4.11631e-14
-1.07569e-13
9.85295e-11
-1.14837e-10
1.00324e-08
-9.56876e-08
1.18854e-08
-9.36777e-07
3.72509e-10
-9.42102e-07
-3.7837e-12
-9.1366e-08
-2.17951e-11
-1.13815e-11
-1.0449e-11
-7.93196e-11
-1.0329e-11
6.37227e-13
1.30885e-13
3.57514e-13
0
1.37261e-13
-9.65135e-14
-1.14418e-10
-5.2092e-13
-2.28895e-08
-8.83105e-08
-2.92902e-08
-9.26749e-07
-2.44528e-08
-9.21466e-07
-6.64153e-11
-9.163e-08
-6.96561e-11
-1.14831e-11
-5.73548e-11
-5.64739e-11
-5.64808e-11
7.63509e-12
0
5.59745e-13
-2.09287e-14
5.9531e-14
-1.13581e-14
3.10393e-14
-6.73171e-13
3.24245e-09
-8.67499e-08
-1.04136e-08
-9.09581e-07
-2.66952e-09
-9.07701e-07
-2.8844e-11
-8.53465e-08
-1.9912e-11
-2.62504e-11
-9.34465e-12
-4.13745e-11
-1.57294e-11
-2.22162e-12
4.18417e-15
7.4624e-13
-1.19405e-12
1.15681e-13
-4.63225e-14
1.14372e-12
-1.46776e-12
4.38343e-09
-8.09774e-08
-1.59123e-09
-8.91711e-07
-8.04616e-09
-8.88984e-07
-1.29821e-10
-8.65601e-08
-9.65478e-12
-1.68919e-10
5.05903e-12
-7.03929e-11
-2.06448e-11
-1.37903e-13
6.48237e-13
2.3432e-13
-4.01669e-13
4.4945e-12
-8.55976e-13
7.95291e-12
-3.27414e-12
2.74808e-08
-7.83101e-08
3.27983e-08
-8.70396e-07
2.55554e-08
-8.80476e-07
1.38957e-10
-7.73428e-08
-5.33327e-11
-1.48971e-11
-3.14678e-11
-1.10691e-10
-5.85789e-11
-6.33933e-11
2.65281e-13
3.18182e-14
-6.68186e-14
1.36636e-11
-2.31357e-12
2.00078e-11
-4.6003e-12
1.49825e-09
-7.86639e-08
-1.09671e-08
-8.6594e-07
-1.65176e-08
-8.59587e-07
-6.57343e-11
-7.63688e-08
-7.07939e-11
-1.09974e-11
-9.74689e-11
-6.57464e-11
-8.08024e-11
-7.03129e-11
3.72261e-14
2.57579e-14
-3.55714e-14
1.86116e-11
-1.5967e-11
2.37776e-11
-3.66985e-12
9.90491e-09
-8.71133e-08
9.0083e-10
-8.56954e-07
-9.17142e-09
-8.57847e-07
-1.51008e-11
-8.83857e-08
-1.68201e-11
-9.81633e-12
-2.92295e-11
-7.58238e-12
-2.35848e-11
-5.41271e-11
2.56599e-11
1.46486e-11
-3.99427e-14
2.40734e-11
-3.22368e-11
2.25715e-11
-2.32722e-12
1.02401e-08
-1.08745e-07
-1.03267e-10
-8.5562e-07
-9.4376e-09
-8.54566e-07
-2.02558e-12
-1.07085e-07
-1.58844e-12
-1.04116e-11
-8.16142e-14
7.15595e-13
1.52966e-12
-3.88149e-11
2.07257e-11
1.01216e-12
-6.011e-12
1.58413e-11
-2.9415e-11
1.47393e-11
-1.16404e-12
1.06684e-08
-1.29782e-07
6.14604e-10
-8.52768e-07
-9.77857e-09
-8.52498e-07
-1.59295e-12
-1.29829e-07
-1.95649e-12
-1.02517e-11
0
3.27467e-13
1.10687e-11
-2.34562e-11
2.19007e-11
-2.3797e-11
3.7445e-12
7.96372e-12
-1.2365e-11
7.40494e-12
-6.03365e-13
9.73998e-09
-1.51493e-07
-9.73769e-10
-8.48879e-07
-1.17339e-08
-8.46915e-07
-1.59684e-12
-1.51608e-07
-1.88876e-12
-1.01248e-11
0
2.05698e-12
5.61598e-11
-1.38018e-10
-4.16375e-12
-2.83444e-11
4.73977e-11
3.60259e-12
-4.40623e-12
3.19712e-12
-1.60281e-13
1.1331e-08
-1.70128e-07
2.64341e-11
-8.40946e-07
-1.0343e-08
-8.4009e-07
-1.66357e-12
-1.70196e-07
-1.89479e-12
-1.00728e-11
0
4.94801e-12
1.37658e-10
-1.274e-10
-3.95455e-12
-3.36198e-13
1.12317e-11
2.83344e-13
-6.66271e-12
3.2497e-13
-1.68868e-13
1.15135e-08
-1.85332e-07
-4.21964e-10
-8.30387e-07
-1.23111e-08
-8.29106e-07
-2.25613e-12
-1.85651e-07
-2.6256e-12
-9.83757e-12
-8.62886e-12
8.83153e-12
1.88621e-10
-1.19763e-10
-1.95148e-13
-1.43692e-13
1.23138e-15
1.13017e-12
-2.46123e-12
1.04739e-12
-7.24992e-14
1.18761e-08
-1.96603e-07
-8.01317e-10
-8.17311e-07
-1.25932e-08
-8.16712e-07
-1.85022e-12
-1.97062e-07
-1.95656e-12
-9.82902e-12
-5.34489e-12
9.00767e-12
1.58732e-10
-5.63112e-11
6.53836e-14
-1.25127e-14
-1.70167e-14
8.27668e-14
-3.72963e-14
7.38387e-14
-6.48678e-14
1.41084e-08
-2.06757e-07
-1.06221e-10
-8.01656e-07
-1.4141e-08
-8.01451e-07
-1.8134e-12
-2.07255e-07
-1.82442e-12
-9.91076e-12
-2.36384e-13
1.05175e-11
7.88687e-11
-1.21797e-11
9.33363e-15
-1.15606e-14
-1.4692e-14
7.31375e-15
-3.65727e-14
4.6925e-15
-6.371e-14
1.48055e-08
-2.16487e-07
-2.17348e-10
-7.85151e-07
-1.47522e-08
-7.85696e-07
-2.38066e-12
-2.16814e-07
-2.40797e-12
-1.00032e-11
-1.36117e-14
9.19589e-12
5.65437e-12
-5.02952e-12
4.40846e-15
-7.66258e-15
-1.00363e-14
1.8671e-14
-3.06021e-14
1.78263e-14
-6.41621e-14
1.68586e-08
-2.29459e-07
-3.0294e-10
-7.67185e-07
-1.76861e-08
-7.67498e-07
-4.87092e-12
-2.29636e-07
-5.39274e-12
-9.62087e-12
-2.15683e-12
6.93163e-12
6.2159e-12
-2.99618e-12
2.95386e-14
-2.56414e-15
-7.05275e-17
3.82764e-14
-4.32185e-14
3.64329e-14
-6.3437e-14
1.68692e-08
-2.45947e-07
-1.05627e-09
-7.49421e-07
-1.88706e-08
-7.49514e-07
-2.77476e-12
-2.46346e-07
-3.22253e-12
-9.30832e-12
-1.9154e-12
5.29841e-12
6.40777e-12
-2.22022e-12
3.43557e-14
4.87948e-15
-8.93797e-15
3.14128e-14
-1.63455e-14
2.92714e-14
-6.09751e-14
1.96353e-08
-2.70117e-07
-7.92786e-10
-7.29852e-07
-2.14253e-08
-7.29245e-07
-1.01656e-12
-2.70699e-07
-1.40563e-12
-9.04748e-12
-1.50169e-12
5.25925e-12
7.00165e-12
-2.23207e-12
1.78835e-14
4.8007e-15
-6.2283e-15
1.1543e-14
-9.68659e-15
3.39865e-14
-8.3064e-14
2.01352e-08
-2.998e-07
-3.78749e-10
-7.10456e-07
-2.13369e-08
-7.0876e-07
-1.13309e-12
-2.99792e-07
-1.21341e-12
-9.10211e-12
-1.38947e-12
5.30708e-12
7.98861e-12
-2.50329e-12
7.23108e-15
1.30434e-15
-6.82613e-15
1.47679e-14
-1.69496e-14
2.36667e-13
-3.04661e-13
2.26986e-08
-3.33555e-07
5.21772e-10
-6.88886e-07
-2.45947e-08
-6.84002e-07
-6.16828e-12
-3.32253e-07
-6.07171e-12
-9.32692e-12
0
1.63616e-11
1.44989e-11
-4.77522e-12
3.00542e-14
3.09507e-14
0
4.84059e-14
-1.24711e-14
1.94132e-12
-2.1955e-12
2.16677e-08
-3.59938e-07
-2.02993e-10
-6.66681e-07
-2.2494e-08
-6.62083e-07
-9.30746e-12
-3.575e-07
-8.23209e-12
-1.04117e-11
0
2.89445e-11
2.08198e-11
-2.73319e-11
7.90117e-14
4.6833e-14
0
7.25616e-14
-1.29015e-14
1.75296e-11
-1.96549e-11
2.47826e-08
-3.80629e-07
-5.56117e-09
-6.35988e-07
-2.53695e-08
-6.42526e-07
-1.92336e-11
-3.78004e-07
-6.47774e-12
-2.29578e-11
0
3.28268e-11
1.21798e-11
-4.00846e-12
7.62551e-15
3.46828e-14
3.07311e-13
1.33585e-14
-2.55149e-14
1.66346e-10
-1.85994e-10
1.34097e-08
-3.86209e-07
-3.36989e-10
-6.21644e-07
-3.18001e-08
-6.11652e-07
-1.45891e-10
-3.99975e-07
-1.02395e-11
-1.58204e-10
-2.57977e-12
3.39029e-11
8.11162e-12
-2.77921e-12
0
0
6.06916e-13
2.2158e-14
-5.45535e-14
1.58774e-09
-1.77372e-09
6.21431e-08
-4.37998e-07
3.11885e-08
-5.90691e-07
1.5922e-09
-5.8265e-07
-1.23792e-09
-3.9097e-07
-1.08739e-11
-1.38424e-09
-1.92216e-12
3.44799e-11
7.95811e-12
-6.95904e-13
-1.97676e-17
0
1.99241e-13
2.40582e-13
-3.03025e-13
8.97514e-09
-1.07486e-08
1.04451e-08
-4.39921e-07
-3.05173e-08
-5.49524e-07
-4.26694e-08
-5.70524e-07
-9.73032e-09
-4.14158e-07
-3.08511e-11
-1.10837e-08
3.97504e-15
3.40087e-12
8.4156e-12
6.44253e-13
3.72054e-12
-1.22107e-11
-1.95812e-12
4.92494e-12
-1.52454e-12
1.25835e-08
-1.9357e-08
-2.4533e-09
-4.17568e-07
-2.91341e-08
-5.22712e-07
-7.45978e-08
-5.25093e-07
-3.08722e-08
-4.62809e-07
-2.10124e-12
-3.93941e-08
5.03237e-13
5.11273e-13
7.68013e-12
8.73539e-13
3.34335e-11
-6.13094e-12
-4.12935e-11
3.44828e-11
-2.72715e-12
2.67619e-08
-4.6942e-08
3.72445e-08
-4.31361e-07
6.2173e-09
-4.91677e-07
-3.02699e-08
-4.88692e-07
-3.92768e-08
-4.53825e-07
-4.12147e-12
-7.95278e-08
0
-3.83416e-12
3.61459e-11
7.94693e-12
3.90065e-11
-3.44547e-13
-4.02803e-11
6.16974e-11
-2.56958e-11
3.54075e-08
-7.76349e-08
2.13782e-08
-4.12805e-07
-1.9785e-08
-4.506e-07
-5.87029e-08
-4.4977e-07
-6.76808e-08
-4.49263e-07
-1.30123e-10
-1.59383e-07
-1.09048e-11
-1.23249e-10
6.54243e-11
8.96526e-12
4.40529e-11
3.16349e-12
-3.47727e-11
7.3025e-10
-7.12081e-10
9.03004e-08
-1.69688e-07
7.76769e-08
-3.98978e-07
3.55056e-08
-4.08429e-07
-2.07496e-09
-4.12182e-07
-4.98882e-08
-4.01617e-07
-2.38542e-09
-2.08439e-07
-4.63686e-11
-2.46268e-09
4.01588e-11
-8.06088e-13
3.52781e-11
2.59399e-12
-2.23149e-11
1.12803e-08
-1.19549e-08
8.50088e-08
-2.46287e-07
4.43334e-08
-3.58304e-07
6.06245e-10
-3.64698e-07
-4.73408e-08
-3.6424e-07
-9.25719e-08
-3.5638e-07
-2.4305e-08
-2.71473e-07
-1.00291e-11
-2.67663e-08
1.27785e-11
0
5.47523e-10
-5.15974e-10
-2.28567e-11
5.04798e-08
-5.89347e-08
9.75963e-08
-2.85979e-07
4.8512e-08
-3.09217e-07
-3.72504e-09
-3.12461e-07
-5.37858e-08
-3.14179e-07
-9.49562e-08
-3.15214e-07
-7.74103e-08
-2.96546e-07
-1.38553e-09
-1.10173e-07
-1.38199e-09
0
2.72761e-08
-2.77592e-08
-3.35839e-11
1.50995e-07
-1.83082e-07
1.20563e-07
-2.55496e-07
7.80752e-08
-2.6673e-07
3.22241e-08
-2.6661e-07
-1.85034e-08
-2.63452e-07
-7.57574e-08
-2.5796e-07
-1.23657e-07
-2.48645e-07
-3.32146e-08
-1.99501e-07
-3.45541e-08