/*--------------------------------*- C++ -*----------------------------------*\
  =========                 |
  \\      /  F ield         | OpenFOAM: The Open Source CFD Toolbox
   \\    /   O peration     | Website:  https://openfoam.org
    \\  /    A nd           | Version:  8
     \\/     M anipulation  |
\*---------------------------------------------------------------------------*/
FoamFile
{
    version     2.0;
    format      ascii;
    class       volScalarField;
    location    "1.35";
    object      p;
}
// * * * * * * * * * * * * * * * * * * * * * * * * * * * * * * * * * * * * * //

dimensions      [1 -1 -2 0 0 0 0];

internalField   nonuniform List<scalar> 
9150
(
-204.577
-205.584
-206.182
-206.661
-206.903
-206.907
-206.669
-206.194
-205.584
-204.576
-224.622
-225.146
-225.56
-225.89
-226.06
-226.051
-225.886
-225.561
-225.146
-224.623
-244.516
-244.803
-245.052
-245.272
-245.392
-245.384
-245.275
-245.058
-244.806
-244.517
-264.255
-264.434
-264.601
-264.758
-264.84
-264.847
-264.761
-264.603
-264.435
-264.256
-283.874
-284.06
-284.198
-284.325
-284.385
-284.397
-284.322
-284.194
-284.061
-283.875
-118.397
-119.31
-119.109
-118.702
-118.542
-118.554
-118.705
-119.159
-119.342
-118.427
-134.053
-134.753
-134.974
-135.04
-134.953
-134.959
-135.058
-134.997
-134.786
-134.087
-150.569
-151.316
-151.632
-151.969
-152.042
-152.048
-151.992
-151.643
-151.335
-150.584
-167.447
-168.57
-168.996
-169.641
-169.801
-169.809
-169.639
-168.994
-168.572
-167.445
-184.361
-186.48
-187.214
-187.939
-188.186
-188.19
-187.931
-187.209
-186.478
-184.357
-24.5445
-26.2604
-28.4282
-29.5541
-30.0461
-29.987
-29.3732
-28.2678
-26.5073
-25.146
-45.143
-45.3675
-46.4295
-46.8633
-47.3761
-47.4024
-46.9834
-46.6827
-45.7464
-45.5782
-65.1181
-65.0449
-66.0858
-65.7312
-66.1757
-66.3511
-65.8389
-66.3175
-65.2541
-65.3787
-88.0146
-85.2863
-86.3542
-84.8279
-85
-85.1021
-84.7635
-86.484
-85.362
-88.1255
-114.323
-104.313
-104.048
-102.466
-102.116
-102.167
-102.463
-104.132
-104.377
-114.44
242.275
257.478
260.969
244.043
239.193
242.843
254.182
288.669
372.285
429.664
205.28
208.21
220.493
225.709
226.42
226.922
227.335
229.921
245.234
292.401
213.551
230.817
227.835
229.615
230.114
229.739
229.768
229.647
228.577
233.529
227.456
231.122
229.393
230.891
230.516
229.865
229.06
228.513
226.762
225.123
222.714
228.036
231.204
230.264
227.996
227.072
226.891
226.532
220.033
214.369
211.967
216.205
216.469
220.312
222.32
216.939
205.744
216.245
189.933
179.154
178.604
194.362
199.935
195.745
184.558
165.705
148.591
147.923
137.788
125.629
135.586
140.819
134.377
108.801
75.281
44.6363
23.0174
41.5293
63.2044
59.6418
91.812
91.2703
86.538
33.796
23.8162
26.2031
27.3721
24.3099
18.9844
26.5043
39.047
43.8528
54.4467
23.4759
24.5808
24.3642
24.7871
24.4335
25.0708
10.7907
-13.8049
-12.3158
8.62186
10.6035
20.6532
23.5887
23.992
23.3549
23.112
21.6683
-59.8111
-59.3987
-46.8548
-26.8284
-1.16279
15.6605
21.4576
23.476
24.256
23.6743
-65.1363
-67.7361
-72.2265
-65.3447
-39.0741
-11.6098
15.2154
23.4037
25.8927
25.5162
-26.7251
-48.3569
-60.8189
-53.8613
-35.4563
-0.205804
27.2362
25.5989
24.0775
24.5388
-3.32453
-7.11794
7.8977
8.95483
3.59476
6.6316
32.887
33.6187
24.1485
23.5893
-0.241603
1.96642
36.8166
43.9215
49.1282
27.8687
29.0548
28.6581
22.8147
22.5158
2.25622
27.7715
64.7222
86.8894
78.6319
47.6126
28.5274
21.0981
21.0279
20.8894
37.8322
68.6643
98.5232
130.224
106.235
51.6173
27.4054
18.9468
19.5226
19.5659
70.7946
93.4762
116.117
139.616
91.0837
41.6537
24.6642
23.6438
18.5028
18.6305
43.541
51.4793
55.6061
63.0119
49.7298
27.5634
37.1646
41.3222
17.9542
18.0772
-5.47632
-22.1317
-44.0087
-53.1118
-23.7673
4.02405
39.6733
39.3308
18.093
17.6832
-20.0798
-48.5667
-84.5106
-78.5728
-57.2995
-6.16528
35.0759
33.2814
18.0275
17.2404
-10.6055
-25.2538
-40.0679
-22.7566
-17.2701
-2.82249
28.4151
27.8488
16.9181
16.7938
-0.343808
0.637339
2.34759
26.7252
30.8109
21.8984
16.7267
15.8741
16.3451
16.508
8.31896
17.2945
7.66399
29.6363
6.56057
28.1788
10.2293
15.0468
15.8252
16.4369
21.8236
14.7073
10.2473
12.5354
-7.58682
23.7227
20.6191
32.3267
15.7146
15.9396
18.6344
18.828
8.74917
25.6704
25.1091
4.11239
33.7903
38.7939
21.9076
10.044
-0.709252
-1.56616
-2.54354
6.40709
34.2654
-6.71688
10.8663
-3.07703
3.52628
-2.78103
-0.125831
-0.101258
-1.10421
1.17088
37.0875
3.38103
-1.64108
-8.85806
-2.92918
-0.608177
-0.28752
-0.220821
-0.243637
-0.827284
24.7675
-3.24264
12.9056
12.9965
1.21627
2.439
-0.48447
-0.438302
-0.385611
-0.668383
27.7463
4.85173
27.2649
11.2851
11.8177
2.02514
-0.67848
-0.721024
-0.671788
0.0861661
34.0151
9.36716
11.7292
-1.56541
-0.0847234
3.52236
-0.707282
-0.941087
-1.30927
-1.48477
38.6935
3.96734
3.06406
2.21421
1.68086
1.29591
-0.687599
-0.85444
-0.894451
-0.914204
0.312564
42.0943
0.513566
0.902863
0.858384
0.784165
-0.71883
-0.750148
-0.720052
-0.671428
0.87694
41.0468
0.393498
0.645443
0.616224
0.391957
-0.647538
-0.647264
-0.639457
-0.557618
4.05483
38.5718
-0.0309575
0.430877
0.372709
0.445091
-0.619421
-0.622799
-0.627261
-0.629179
27.503
16.0569
0.183166
0.203906
0.169586
0.199162
-0.668033
-0.666393
-0.662517
-0.665252
23.1774
20.5252
0.132704
0.0802054
0.0573011
-0.00376833
-0.714887
-0.702022
-0.692558
-0.690653
22.9676
20.9923
0.0215717
0.00898739
-0.0508685
-0.105283
-0.742886
-0.733272
-0.741143
-0.677199
19.0937
25.2572
-0.050443
-0.0220537
-0.0928269
-0.151058
-0.779723
-0.781467
-0.804211
-0.656129
22.5664
22.1202
-0.0747807
-0.0771484
-0.0976799
-0.100467
-0.935065
-0.930141
-0.938879
-0.749291
23.6034
21.4218
-0.114467
-0.125077
-0.111754
-0.0985321
-1.06675
-1.03611
-0.981693
-0.909033
23.6611
21.8255
-0.15501
-0.156777
-0.152218
-0.142233
-1.11963
-1.09778
-1.04467
-1.05979
23.9598
21.9963
-0.196306
-0.197443
-0.19833
-0.198325
-1.15717
-1.15259
-1.13687
-1.13957
23.2315
23.1661
-0.250066
-0.249549
-0.251521
-0.253663
-1.17641
-1.18199
-1.17401
-1.17646
24.1288
22.8386
-0.301877
-0.302418
-0.305486
-0.307165
-1.18359
-1.18627
-1.1868
-1.18974
24.4293
23.1089
-0.352576
-0.35307
-0.356976
-0.359135
-1.19478
-1.19545
-1.19665
-1.20041
24.4367
23.5837
-0.4046
-0.403262
-0.408202
-0.411059
-1.21103
-1.21373
-1.21414
-1.21797
24.6272
23.8918
-0.454636
-0.452896
-0.457098
-0.460632
-1.23397
-1.23616
-1.23656
-1.24121
24.704
24.1726
-0.501112
-0.499638
-0.503379
-0.506007
-1.25954
-1.26102
-1.2621
-1.26671
24.9649
24.3141
-0.543065
-0.542391
-0.545359
-0.547793
-1.28718
-1.28879
-1.29036
-1.29568
25.1933
24.3016
-0.582848
-0.581913
-0.583705
-0.585349
-1.31692
-1.31915
-1.32063
-1.32529
25.5113
24.3352
-0.61464
-0.614455
-0.617369
-0.619367
-1.34827
-1.35024
-1.35205
-1.35832
25.9651
24.0228
-0.639132
-0.637578
-0.638402
-0.650446
-1.37627
-1.37525
-1.37426
-1.37632
26.6363
23.6813
-0.659165
-0.664674
-0.66283
-0.679106
-1.39805
-1.38639
-1.38428
-1.38752
25.9288
24.3395
-0.689743
-0.699149
-0.699843
-0.706202
-1.40679
-1.39193
-1.38787
-1.38917
24.9273
25.4844
-0.731514
-0.734395
-0.735501
-0.736945
-1.4037
-1.39011
-1.38726
-1.39207
25.7369
24.8151
-0.758499
-0.76347
-0.769911
-0.769825
-1.38949
-1.37757
-1.37544
-1.3804
25.8318
25.0328
-0.783379
-0.782267
-0.790145
-0.792744
-1.36168
-1.34807
-1.34628
-1.35248
26.3694
24.9119
-0.821311
-0.822624
-0.833259
-0.837126
-1.31765
-1.29975
-1.29771
-1.29848
25.8266
25.9234
-0.869667
-0.859504
-0.884261
-0.887757
-1.26945
-1.24738
-1.24613
-1.24933
26.5098
25.773
-0.913738
-0.903616
-0.946753
-0.932027
-1.2209
-1.19624
-1.1948
-1.19762
26.6889
26.0377
-0.988781
-0.980566
-1.01196
-1.02751
-1.17416
-1.15181
-1.15016
-1.15302
26.8188
26.1486
-1.08555
-1.08643
-1.09014
-1.10236
-1.12808
-1.11004
-1.10564
-1.11152
24.9788
27.6353
-1.18628
-1.19254
-1.18496
-1.18267
-1.09076
-1.06685
-1.03463
-0.93023
7.39435
44.5183
-1.40053
-1.30284
-1.27699
-1.26168
-1.09202
-1.06592
-1.02446
-0.921009
6.84168
44.6762
-1.51539
-1.40172
-1.35415
-1.3143
-1.12478
-1.10845
-1.08796
-1.0483
22.0956
29.6713
-1.43724
-1.39828
-1.37219
-1.34296
-1.16789
-1.16887
-1.19601
-1.30884
41.8125
9.53375
-1.17672
-1.29612
-1.35391
-1.34543
-1.18663
-1.17348
-1.15838
-1.08188
9.96335
40.5125
-1.49149
-1.4014
-1.39326
-1.38007
-1.2107
-1.19539
-1.17982
-1.14853
16.4585
34.647
-1.46183
-1.43269
-1.42794
-1.41338
-1.23632
-1.21716
-1.18136
-1.07042
7.50914
43.689
-1.56984
-1.45767
-1.4554
-1.42807
-1.28185
-1.28147
-1.28768
-1.35393
33.6752
17.3882
-1.31718
-1.3549
-1.41171
-1.40326
-1.31347
-1.3122
-1.3143
-1.34914
28.9729
22.6841
-1.35972
-1.34268
-1.37852
-1.38914
-1.33812
-1.33294
-1.31708
-1.31765
22.4461
29.4495
-1.40681
-1.3734
-1.389
-1.37273
-1.37496
-1.3772
-1.3492
-1.36416
27.8768
23.8858
-1.36267
-1.36873
-1.37069
-1.37884
-1.41793
-1.41944
-1.38952
-1.39021
25.1622
25.9879
-1.37974
-1.37832
-1.38063
-1.39804
-1.46975
-1.45579
-1.44553
-1.43995
25.3124
25.001
-1.38168
-1.38797
-1.39029
-1.41215
-1.5156
-1.50696
-1.51012
-1.50422
25.1395
24.1614
-1.39422
-1.40366
-1.40792
-1.44188
-1.54894
-1.54643
-1.54895
-1.54524
24.4149
23.9765
-1.43069
-1.43675
-1.438
-1.47394
-1.5707
-1.56887
-1.56937
-1.57405
23.8027
23.5732
-1.48672
-1.48305
-1.48345
-1.50891
-1.58496
-1.58381
-1.5838
-1.60147
23.4342
22.926
-1.54671
-1.52984
-1.53207
-1.54204
-1.59799
-1.59734
-1.59769
-1.63154
22.9479
22.1684
-1.58904
-1.55739
-1.55813
-1.55852
-1.61289
-1.61246
-1.61303
-1.6637
21.8814
21.6857
-1.62333
-1.57205
-1.57236
-1.57244
-1.63147
-1.63066
-1.63112
-1.69189
20.2614
21.1702
-1.65062
-1.58738
-1.58706
-1.58776
-1.65141
-1.65111
-1.65199
-1.70155
18.8463
19.797
-1.65684
-1.6067
-1.60554
-1.60629
-1.67221
-1.67281
-1.67477
-1.68049
18.0043
17.0604
-1.63257
-1.6293
-1.63146
-1.63001
-1.69414
-1.69435
-1.69756
-1.65629
16.7641
14.2031
-1.60535
-1.65103
-1.65538
-1.65544
-1.71904
-1.71657
-1.72089
-1.67945
13.8547
12.8925
-1.6277
-1.67758
-1.67937
-1.68191
-1.74555
-1.74012
-1.7453
-1.87318
10.5301
13.4155
-1.61618
-1.7091
-1.70761
-1.70928
-1.76753
-1.76543
-1.78017
-2.00567
11.8067
8.89814
-1.91699
-1.72238
-1.73438
-1.73774
-1.78369
-1.78675
-1.76111
-1.63745
9.01306
4.34557
-2.48984
-1.75466
-1.76586
-1.76663
-1.80312
-1.8004
-1.81328
-1.8829
3.99107
5.93626
-2.71942
-1.83903
-1.79382
-1.8058
-1.81604
-1.80322
-1.84375
-2.24514
1.8829
2.99766
-2.25067
-1.95704
-1.84277
-1.86175
-1.8321
-1.81807
-2.00875
-1.55897
0.54752
1.48501
-1.63448
-1.97518
-1.90299
-1.89719
-1.85396
-1.84191
-2.18818
-2.16552
-0.691327
0.214411
-0.32642
-2.33195
-1.88723
-1.88827
-1.87431
-1.85314
-2.78146
-1.30946
-1.02506
-0.653844
-2.21995
-4.01072
-1.88041
-1.86996
-1.90375
-2.2047
-4.54264
-2.54894
-1.65208
-2.00817
-2.80266
-4.27402
-2.64197
-1.90246
-1.92885
-3.98691
-6.07541
-6.05757
-5.82085
-5.48446
-5.07917
-4.71244
-3.9145
-1.95937
-2.6328
-9.04967
-12.3806
-14.3659
-15.2035
-15.3317
-14.7784
-13.2567
-10.0831
-2.95859
418.15
357.99
298.312
257.966
234.946
215.008
189.176
178.825
172.292
166.733
159.336
158.637
159.115
158.87
169.007
174.695
176.616
177.946
182.107
183.206
186.8
189.618
195.183
203.071
212.852
223.145
232.253
250.835
267.246
281.341
292.218
305.118
320.703
337.053
357.32
381.281
401.936
418.414
428.811
426.546
278.901
243.616
222.618
206.562
193.985
182.234
171.809
160.764
150.489
145.281
144.533
145.622
147.951
150.407
154.619
158.874
161.178
162.433
163.326
165.603
165.195
171.08
171.811
182.27
183.675
199.634
219.91
240.987
262.969
277.903
287.025
296.49
306.678
318.033
332.892
346.897
376.013
386.278
395.808
392.838
230.15
215.063
209.018
201.391
193.64
185.791
176.277
165.961
155.742
148.409
146.173
147.247
149.286
151.989
155.041
150.626
152.832
154.558
151.935
146.494
152.146
156.908
157.794
165.969
173.523
183.425
197.135
212.053
226.733
242.027
261.527
264.182
275.474
292.374
306.767
324.282
345.321
357.054
362.702
364.214
224.262
215.463
200.53
186.17
175.516
166.76
162.005
154.847
146.638
138.226
133.889
134.195
134.012
137.494
140.561
131.796
127.295
125.409
124.024
124.876
129.113
143.573
142.807
147.598
152.423
160.218
169.106
178.846
191.112
202.863
213.771
224.649
236.312
250.506
266.254
282.94
300.254
319.998
330.479
340.501
210.456
206.904
192.9
177.083
163.76
152.977
144.863
137.757
129.948
124.041
119.145
112.923
112.346
109.639
108.118
108.065
104.438
103.629
104.09
107.199
110.743
118.812
115.909
125.576
130.808
134.239
140.116
143.416
152.282
162.064
170.007
177.623
185.844
193.562
201.135
217.615
233.629
259.19
274.515
295.081
175.401
174.138
163.04
147.47
135.196
125.799
117.244
110.033
103.352
98.1336
94.7067
92.4995
92.8841
91.4669
85.3828
76.4114
71.9708
76.3074
80.7272
87.3526
92.9116
98.0596
103.534
108.818
121.487
129.489
131.529
133.346
130.406
127.759
131.037
131.129
129.308
128.64
135.687
156.413
160.903
188.445
206.43
232.198
112.395
109.096
108.186
103.761
98.8254
94.4239
88.4633
81.2052
71.5317
69.9431
69.0281
67.451
61.782
53.8994
45.1949
41.2484
48.1959
51.427
49.7185
53.554
68.0276
84.3447
96.7346
103.408
116.77
121.6
120.491
115.007
108.363
100.713
94.6812
91.3798
96.2627
99.8521
100.665
104.634
111.784
135.28
151.548
169.098
48.5372
63.7127
59.9203
63.5339
64.8678
63.7692
66.079
60.7251
52.2137
50.2216
46.7494
29.6905
14.3164
12.0567
11.1872
11.0886
13.2062
23.8877
16.6952
12.3258
17.7532
35.2077
66.7009
94.3279
102.642
101.408
99.5122
93.925
86.4743
82.4636
86.2703
88.6729
83.2572
86.0832
86.7756
91.2257
96.7997
106.658
113.497
121.308
16.0455
20.8001
30.2584
36.4994
37.3208
36.8641
51.0521
47.153
37.3623
33.5206
33.1401
12.5402
12.9412
11.4063
11.5723
11.6091
11.4149
11.178
11.0145
11.5722
13.4037
14.6981
32.381
55.8901
72.8968
76.8258
75.6618
72.1462
69.1356
73.3597
80.6545
75.5845
86.1622
84.001
89.1663
93.7991
97.1381
98.913
100.242
111.035
8.76648
15.3988
23.4397
22.6159
21.0448
36.5797
28.361
30.3546
31.9784
29.4111
22.5044
10.8895
10.083
11.5763
11.5596
11.5773
11.4515
11.17
11.0176
11.0856
11.3656
11.8239
12.2063
22.3862
32.1747
41.8268
46.0023
45.5496
39.6828
63.8047
61.2903
63.8075
71.2204
78.99
87.311
94.7281
102.44
103.379
94.1601
98.2434
20.8877
24.5925
32.2351
25.9352
22.099
26.8753
23.6027
24.3038
27.1411
25.8677
21.699
15.8125
11.4731
11.4933
11.5915
11.5921
11.4567
11.2534
11.1629
11.246
11.48
11.768
13.4814
14.8689
16.0584
17.9458
20.6556
37.3422
21.9193
41.102
40.0935
46.8834
57.7988
67.8645
78.249
85.0689
88.1783
104.016
81.9282
84.5511
23.4527
26.0965
25.9205
23.063
23.3814
23.4423
22.8643
23.3863
21.04
18.6542
21.0139
19.0953
16.653
11.8395
11.8993
11.811
11.7908
11.7832
11.7709
11.8485
12.0617
12.7222
14.1541
15.2502
16.1475
16.5163
16.8689
27.7919
18.1543
24.7387
25.17
29.838
40.2213
48.7774
55.7263
62.5789
67.1978
82.9254
66.7871
69.7542
24.6119
28.2129
24.325
23.6604
23.6663
23.3914
22.3757
21.0797
19.3683
17.5054
15.1111
10.5273
16.0671
16.0198
13.8003
12.0411
12.1222
12.1892
12.2796
12.3749
12.4274
12.4568
13.0597
13.8497
13.0763
9.34013
11.8899
21.5684
16.4143
20.8565
18.4417
22.5813
24.6008
25.0729
24.7663
25.1089
29.8979
40.2764
44.467
47.8645
24.334
24.1309
23.991
23.9083
23.9094
23.7241
22.2284
15.6343
13.6543
13.3207
13.148
13.5739
14.3104
12.3372
21.6569
12.5691
12.3556
12.449
12.5149
12.5595
12.6394
12.6703
10.2617
17.8789
22.6169
15.0605
14.1222
12.833
15.5469
22.4555
24.0577
17.9887
10.3949
10.4033
13.2668
17.167
17.1003
21.7983
28.1566
32.2588
23.5227
23.582
23.8258
24.2734
24.0917
24.0333
28.0909
22.0401
13.591
12.4304
12.3609
12.4266
12.2619
12.3138
12.5988
13.4254
14.4683
13.6823
12.1403
14.7088
11.3783
11.7022
16.3926
19.1825
21.2492
21.9328
19.3134
21.635
19.8413
17.2445
13.0676
10.9272
9.07058
8.39239
8.69529
11.7066
11.9905
17.325
25.4909
29.4442
22.6215
22.9188
23.3158
23.5007
24.2602
24.3389
24.2508
21.9844
15.9493
12.4577
12.0656
12.1152
12.1908
12.1883
12.2399
12.2849
12.1876
12.0119
13.1859
15.4577
15.8846
18.547
16.9409
16.1211
15.9626
18.3695
17.3544
18.1537
17.0517
11.5311
11.5946
11.3167
10.4055
10.6537
13.1208
14.9344
18.5178
27.2422
33.248
36.3729
21.0761
21.1945
21.4592
21.4087
25.0233
24.7779
22.5497
19.7597
16.545
14.5704
12.7044
12.1673
12.0168
11.9896
12.0649
12.0747
12.0406
11.998
11.819
11.8554
11.2101
11.0067
9.91062
11.8287
12.0265
11.6996
12.5625
13.5117
13.6567
13.6809
13.6519
13.7594
14.5431
15.7572
19.145
26.5995
33.2457
40.2138
48.2257
53.1401
19.5936
19.3994
19.0737
19.0509
22.8269
23.483
21.6732
19.1779
16.4592
14.5457
14.0353
11.9869
11.9225
11.8996
11.919
11.9559
11.918
11.8535
11.9171
11.9865
11.9964
11.6672
6.04983
10.2164
7.74059
10.6079
12.0085
13.6082
14.6509
15.2575
15.8824
16.5525
18.6903
23.9077
30.6336
38.0447
45.3019
53.4413
60.0001
63.4493
18.5928
18.3773
18.0242
18.0171
20.4478
20.196
18.0675
16.4815
15.1544
14.3384
14.2095
11.5924
12.0004
11.8705
11.8681
11.868
11.9081
11.9155
11.922
11.9338
11.9308
11.7248
7.70814
18.6037
8.37916
11.0279
13.3571
14.8687
15.7989
17.0307
18.288
19.9649
26.2319
31.7475
38.2894
44.8131
52.2103
60.3533
63.9874
65.2948
18.0126
17.8506
17.5868
17.4379
17.453
16.9808
16.3095
15.6002
14.5721
13.9277
13.1737
10.7329
11.259
11.6906
11.6724
11.6832
11.72
11.8071
11.8666
11.7986
11.7784
11.3875
11.9935
19.3096
10.9112
13.902
16.0488
17.4079
18.0659
19.1902
20.3537
22.7321
31.348
37.8272
41.5504
48.8267
55.2606
61.5225
65.521
65.3481
17.5784
17.4554
17.3076
17.1526
17.0035
17.2544
17.6492
16.8939
16.1798
14.6197
12.718
10.6215
9.58202
11.6177
11.7001
11.5975
11.659
11.7448
11.8166
11.8528
11.4735
11.8912
12.3467
13.6094
13.3506
15.3901
19.4887
21.2534
22.5168
20.5195
28.2547
31.3685
29.8268
37.2294
40.4652
43.5656
48.7732
53.6434
56.164
57.9699
17.1719
17.0986
17.0142
16.8997
16.8294
16.6896
17.6145
17.7642
17.5499
15.5469
13.514
12.3167
11.2342
10.4731
11.4214
11.6205
11.6567
11.7549
11.8195
11.722
10.4765
11.9878
12.5673
12.7032
12.7475
12.8438
11.6368
17.0921
20.0305
24.3313
28.5565
28.8744
38.3442
39.13
36.6842
36.737
39.4902
42.1531
53.5822
52.3338
16.7908
16.7961
16.7961
16.7346
16.7599
16.3966
14.7852
16.5056
19.4168
19.3864
16.8256
13.9076
11.7764
9.42643
8.47539
8.85936
11.4695
11.3689
11.4344
5.9775
5.64378
10.0146
13.1181
15.4562
17.6314
19.3006
20.8446
22.2698
24.2598
24.9442
25.3137
25.8051
29.7366
30.1041
31.1303
29.9488
32.0761
34.8975
42.1741
45.0151
16.5091
16.5209
16.5254
16.4815
16.534
16.3609
13.2499
17.5706
26.1311
25.3385
17.6755
10.8634
7.61335
4.66701
3.82931
3.36242
-4.95943
-9.53385
-7.49483
-3.61703
1.56042
8.45543
15.2217
20.0661
23.8284
25.1931
25.7798
26.8237
26.8324
26.4346
26.141
27.6252
32.0493
33.9725
34.69
33.8881
33.5833
34.5504
37.4893
38.4746
16.2764
16.2219
16.2692
16.2101
16.1472
14.9344
11.3155
14.7539
29.2302
11.7393
2.44531
-1.50583
0.863569
4.10065
7.60307
8.05985
6.88185
5.22076
11.5288
12.6463
15.3555
18.2844
22.1584
25.7597
35.0622
37.643
37.028
30.7938
26.8837
28.1578
27.0261
23.8208
25.246
27.3096
24.6806
23.6699
26.0423
26.7502
28.3873
29.5289
15.8075
15.6124
15.8035
16.019
18.9523
22.3528
3.13733
5.37806
2.70617
1.24349
0.768651
0.927077
1.05624
5.11797
6.00457
2.08392
2.04675
4.59983
9.6276
13.5773
17.935
22.0171
24.9822
30.2996
35.6323
37.0122
33.7973
34.3282
28.9381
26.0682
25.9779
28.1287
28.8663
29.803
30.5836
31.7243
31.0274
22.3567
23.7378
23.8415
12.8335
12.7127
13.0514
7.65858
3.28853
1.1669
0.804747
0.89597
0.820017
0.713815
0.645689
0.5934
0.557307
0.414327
0.214491
0.903127
0.410166
4.83079
6.75256
11.3006
16.07
17.3027
18.3989
21.3689
20.611
20.5224
20.8822
22.0921
21.6923
23.2322
27.2817
26.3885
25.9282
26.75
28.4794
30.0181
22.4147
18.6584
20.5498
21.1711
3.33899
4.70735
6.71951
1.51533
0.749676
0.688279
0.652497
0.637323
0.629224
0.606031
0.584849
0.552736
0.502585
0.458099
0.409515
0.35099
0.149543
0.189261
0.613272
1.31059
8.79283
10.5831
10.5104
11.0678
12.786
14.1959
16.0158
17.7904
18.6107
18.3948
17.1789
17.7906
19.1785
17.6966
17.865
18.1131
18.6915
18.6002
17.9354
19.8454
0.254706
0.467165
4.03534
0.623729
0.587132
0.554752
0.610071
0.589779
0.559959
0.526613
0.496551
0.455169
0.391363
0.312505
0.23759
0.178458
0.156733
0.155981
0.0688379
-0.491294
-0.643414
0.380765
2.17073
1.86842
2.75257
5.25726
8.13753
9.48985
11.3785
14.4687
17.2794
18.8058
20.3958
21.1344
19.7631
17.9554
16.2216
15.1318
14.3629
13.8715
2.65211
2.3693
1.04557
0.366724
0.539893
0.612247
0.60375
0.555172
0.515836
0.465672
0.419819
0.36402
0.283257
0.185165
0.0864297
-0.00415232
-0.0854391
-0.163959
-0.227251
-0.237416
-0.20318
-0.150899
-0.0460869
0.0828644
0.148324
0.146064
0.408976
0.839661
2.52114
3.39884
5.7646
10.1633
13.0455
12.8805
12.1759
11.091
9.90528
8.93382
8.13249
7.40689
6.27608
5.13777
3.20852
0.490646
0.577149
0.561324
0.543851
0.506612
0.465172
0.412824
0.348562
0.263462
0.149875
0.0387226
-0.0696377
-0.165003
-0.245147
-0.311616
-0.35388
-0.339015
-0.269249
-0.1609
-0.048887
0.0552915
0.14529
0.235987
0.320225
0.362484
0.429211
0.521661
0.667551
0.854133
1.38619
2.79869
4.48143
5.51796
5.67414
5.43354
5.24978
5.21479
8.81165
7.46505
6.12282
1.38897
-0.282671
0.592884
0.547752
0.490409
0.434795
0.358558
0.279688
0.195389
0.0888105
-0.0290688
-0.142141
-0.233554
-0.304325
-0.361103
-0.393222
-0.37356
-0.297199
-0.184508
-0.0753146
0.0242684
0.115679
0.196328
0.27638
0.368162
0.454498
0.535338
0.594939
0.717077
0.925403
1.11335
1.23943
1.31908
1.36682
1.38886
1.38235
1.39273
1.97761
5.54325
4.72343
3.69521
-0.145771
-1.77118
-0.138087
-0.0221357
0.53681
0.31298
0.199318
0.131952
0.0606099
-0.0546295
-0.15521
-0.225118
-0.269052
-0.299035
-0.314077
-0.300274
-0.250204
-0.168195
-0.0813325
-0.00381415
0.0755598
0.143445
0.233641
0.33875
0.410265
0.474059
0.537192
0.611884
0.664831
0.955715
1.16277
1.38075
1.42737
1.43064
1.3427
1.32869
0.695485
0.482011
-0.391616
0.511476
0.726432
1.81708
2.07146
1.57614
1.23552
-0.314318
-0.0646273
0.0568481
-0.0369449
-0.0966269
-0.128438
-0.172794
-0.213218
-0.241266
-0.252397
-0.240426
-0.212408
-0.163527
-0.0978681
-0.0107791
0.0596662
0.0951889
0.35026
0.408062
0.337633
0.416136
0.451532
0.502666
0.663496
0.878534
1.06454
1.22504
1.31641
1.33797
1.34749
1.32021
0.487854
0.159753
0.237286
0.445145
0.17114
1.55139
3.06224
3.85074
3.8274
4.18654
3.83952
2.5954
-0.00389763
-0.0900244
-0.133399
-0.154934
-0.184071
-0.200643
-0.200211
-0.20022
-0.20291
-0.065021
-0.00453967
0.0729212
0.021379
0.13937
0.200433
0.241102
0.208878
0.278554
0.268067
0.202598
0.228684
0.315955
0.543815
0.759965
0.954294
1.08828
1.21148
1.21618
0.496044
0.235631
0.294295
0.284916
0.281197
0.404872
0.474784
0.83689
2.24867
1.99047
1.21203
0.90202
0.0139651
-0.0922887
-0.132811
-0.159594
-0.17985
-0.192793
-0.190952
-0.12638
-0.0702259
-0.0171052
0.0224909
0.0569803
0.0566655
0.058563
0.0157992
0.028767
0.0910037
0.0972263
-0.00780256
-0.0587765
-0.0674293
-0.0381122
-0.0283941
0.154416
0.322119
0.604779
0.830103
0.810352
0.0928936
0.152878
0.172356
0.133575
0.103607
0.0598502
0.0262422
-0.0415961
-0.132869
-0.206057
-0.229868
-0.223107
-0.208515
-0.206173
-0.215569
-0.221042
-0.219351
-0.207201
-0.190415
-0.183799
-0.0824182
-0.0603761
-0.0740065
-0.0606833
-0.0240379
-0.0845673
0.0149567
0.0179447
-0.00235216
-0.030714
-0.194118
-0.185142
-0.215115
-0.282191
-0.318329
-0.280773
-0.147901
0.134004
0.302921
0.333155
-0.0828297
-0.0648423
0.0232587
-0.0249571
-0.0329624
-0.0653665
-0.110435
-0.152408
-0.18705
-0.21483
-0.237771
-0.256226
-0.274888
-0.292009
-0.301079
-0.294552
-0.280893
-0.27058
-0.270705
-0.275884
-0.255973
-0.149969
-0.200727
-0.170808
-0.144694
-0.115324
-0.0902761
-0.140247
-0.112193
-0.162168
-0.217697
-0.214932
-0.286065
-0.344833
-0.443011
-0.426352
-0.32522
-0.213386
-0.12285
-0.0350283
-0.251308
-0.254196
-0.218513
-0.178956
-0.161412
-0.161726
-0.175988
-0.196415
-0.21951
-0.24534
-0.271051
-0.291975
-0.310333
-0.325244
-0.329782
-0.329737
-0.323548
-0.315483
-0.306648
-0.29672
-0.296991
-0.291814
-0.275259
-0.242726
-0.222696
-0.201029
-0.195437
-0.166751
-0.161639
-0.211474
-0.232386
-0.240228
-0.301855
-0.350574
-0.370497
-0.37292
-0.336284
-0.33419
-0.31993
-0.246516
-0.216371
-0.290906
-0.251737
-0.211384
-0.199657
-0.205348
-0.221279
-0.240858
-0.261333
-0.282348
-0.302856
-0.322462
-0.339432
-0.352614
-0.360263
-0.362313
-0.35986
-0.354382
-0.347774
-0.339077
-0.336712
-0.327774
-0.316853
-0.305405
-0.301165
-0.24725
-0.234923
-0.2545
-0.271567
-0.271023
-0.254386
-0.264844
-0.287585
-0.306267
-0.301968
-0.293435
-0.29892
-0.32008
-0.346639
-0.26902
-0.118372
-0.1552
-0.176249
-0.194179
-0.219339
-0.241406
-0.26057
-0.280941
-0.301781
-0.32265
-0.342741
-0.361841
-0.378608
-0.391672
-0.39989
-0.403154
-0.403024
-0.401835
-0.397929
-0.391652
-0.383818
-0.375703
-0.366266
-0.360587
-0.358432
-0.372759
-0.301925
-0.394852
-0.364909
-0.327406
-0.308689
-0.313037
-0.300417
-0.292792
-0.287475
-0.286134
-0.288398
-0.291271
-0.308368
-0.249813
-0.0882576
-0.09606
-0.130504
-0.176634
-0.235527
-0.274819
-0.296545
-0.318088
-0.339704
-0.360396
-0.380044
-0.397132
-0.413674
-0.427583
-0.436494
-0.441926
-0.444437
-0.444837
-0.442796
-0.437382
-0.428771
-0.418349
-0.408349
-0.401992
-0.395382
-0.407289
-0.427202
-0.426533
-0.411898
-0.384969
-0.36642
-0.347368
-0.331313
-0.320473
-0.310587
-0.30512
-0.301975
-0.297393
-0.298831
-0.239608
-0.130951
-0.132767
-0.154806
-0.152149
-0.252604
-0.310615
-0.334295
-0.355021
-0.3755
-0.394925
-0.413344
-0.430672
-0.446153
-0.459064
-0.468939
-0.475981
-0.480618
-0.483428
-0.483622
-0.479536
-0.471246
-0.460218
-0.44335
-0.432671
-0.4277
-0.432453
-0.434308
-0.424153
-0.411371
-0.39792
-0.390085
-0.380383
-0.356904
-0.346251
-0.337229
-0.329152
-0.322073
-0.315708
-0.310783
-0.257079
-0.198333
-0.201535
-0.217494
-0.237133
-0.304755
-0.348222
-0.372915
-0.392104
-0.410574
-0.428012
-0.444501
-0.460227
-0.47477
-0.487228
-0.496989
-0.504363
-0.509764
-0.513498
-0.514501
-0.511375
-0.50274
-0.490742
-0.479298
-0.469074
-0.458367
-0.445426
-0.437889
-0.428258
-0.424132
-0.41277
-0.39769
-0.389461
-0.381861
-0.370474
-0.359719
-0.348908
-0.340758
-0.338379
-0.336056
-0.296111
-0.257374
-0.263624
-0.279599
-0.304781
-0.356039
-0.394706
-0.416515
-0.431691
-0.446693
-0.461167
-0.474951
-0.488289
-0.500994
-0.511964
-0.520569
-0.526464
-0.530383
-0.533795
-0.534245
-0.531666
-0.526128
-0.518293
-0.507651
-0.486478
-0.474765
-0.463041
-0.4516
-0.441204
-0.427472
-0.415869
-0.418954
-0.409819
-0.399241
-0.38732
-0.376779
-0.366611
-0.357622
-0.356132
-0.360808
-0.335566
-0.310694
-0.316253
-0.333167
-0.357839
-0.401408
-0.441323
-0.460531
-0.471226
-0.482782
-0.494197
-0.504966
-0.515354
-0.525824
-0.534586
-0.541237
-0.54407
-0.546786
-0.549516
-0.549347
-0.547069
-0.54292
-0.538436
-0.528571
-0.512344
-0.509601
-0.501381
-0.48943
-0.484304
-0.478104
-0.47167
-0.449977
-0.429485
-0.416988
-0.4026
-0.388866
-0.376222
-0.368427
-0.362354
-0.37254
-0.360722
-0.362783
-0.366425
-0.379121
-0.412037
-0.445208
-0.479257
-0.498591
-0.507674
-0.516926
-0.526107
-0.534453
-0.542509
-0.550402
-0.557238
-0.562273
-0.564961
-0.566064
-0.566471
-0.565466
-0.562919
-0.560819
-0.560599
-0.55225
-0.548225
-0.545076
-0.541414
-0.534421
-0.532879
-0.513923
-0.48536
-0.468314
-0.452363
-0.433878
-0.411735
-0.396262
-0.391313
-0.392439
-0.378432
-0.368536
-0.367328
-0.416165
-0.421578
-0.432996
-0.457376
-0.486033
-0.513525
-0.533931
-0.54261
-0.549648
-0.557127
-0.563515
-0.569508
-0.575394
-0.580644
-0.584769
-0.587093
-0.58767
-0.586764
-0.585432
-0.581763
-0.580258
-0.577084
-0.57509
-0.570197
-0.564547
-0.562096
-0.560516
-0.552301
-0.537323
-0.518296
-0.502068
-0.482253
-0.45954
-0.442443
-0.42222
-0.41999
-0.412577
-0.367142
-0.365231
-0.383589
-0.466077
-0.4711
-0.481333
-0.497669
-0.523244
-0.547266
-0.56634
-0.574705
-0.580301
-0.586513
-0.591601
-0.596114
-0.600504
-0.604493
-0.607797
-0.610034
-0.609738
-0.608806
-0.607455
-0.604366
-0.601079
-0.597938
-0.5946
-0.588867
-0.584648
-0.583496
-0.580232
-0.571392
-0.565923
-0.55213
-0.53518
-0.520882
-0.505977
-0.494773
-0.489211
-0.491148
-0.458432
-0.435542
-0.415285
-0.406487
-0.510725
-0.515443
-0.524815
-0.535031
-0.554021
-0.576313
-0.594401
-0.601565
-0.607471
-0.613368
-0.617957
-0.621692
-0.625072
-0.627864
-0.630286
-0.632239
-0.632528
-0.632084
-0.629315
-0.62648
-0.624039
-0.620406
-0.616345
-0.612954
-0.610745
-0.608466
-0.606925
-0.606883
-0.601216
-0.592298
-0.585577
-0.588599
-0.594132
-0.581518
-0.558466
-0.530443
-0.499053
-0.465239
-0.43686
-0.421928
-0.551588
-0.556681
-0.564836
-0.576313
-0.570298
-0.597023
-0.617972
-0.626856
-0.632747
-0.638615
-0.642947
-0.646244
-0.648729
-0.650307
-0.651408
-0.652188
-0.652241
-0.651525
-0.650288
-0.648484
-0.646454
-0.643514
-0.640989
-0.638646
-0.637095
-0.636362
-0.633811
-0.634533
-0.638155
-0.64252
-0.643708
-0.637389
-0.633211
-0.628812
-0.621476
-0.607898
-0.58614
-0.557833
-0.522194
-0.505979
-0.588234
-0.59261
-0.599064
-0.609655
-0.59208
-0.60458
-0.645056
-0.651943
-0.657409
-0.662848
-0.667056
-0.670282
-0.672133
-0.672437
-0.672194
-0.671864
-0.671194
-0.66991
-0.658916
-0.66621
-0.66787
-0.665895
-0.663875
-0.662777
-0.662885
-0.660341
-0.650289
-0.655508
-0.666662
-0.673829
-0.673781
-0.674876
-0.676399
-0.681758
-0.693798
-0.706538
-0.681116
-0.60258
-0.573313
-0.556868
-0.621629
-0.625439
-0.630595
-0.637015
-0.635414
-0.607916
-0.670329
-0.676278
-0.681089
-0.686842
-0.691406
-0.694261
-0.695584
-0.694715
-0.693393
-0.692624
-0.69281
-0.691256
-0.689453
-0.687336
-0.689166
-0.687274
-0.685727
-0.685412
-0.685676
-0.674654
-0.652175
-0.681044
-0.700118
-0.705266
-0.706426
-0.709672
-0.717699
-0.732259
-0.75442
-0.781874
-0.781588
-0.713472
-0.703383
-0.685738
-0.651621
-0.653867
-0.657492
-0.66406
-0.671542
-0.628887
-0.687973
-0.697503
-0.702318
-0.708555
-0.713807
-0.716959
-0.718238
-0.717205
-0.716404
-0.715881
-0.716411
-0.716676
-0.715032
-0.712413
-0.712742
-0.708885
-0.706367
-0.706014
-0.705246
-0.70452
-0.716606
-0.72106
-0.724536
-0.728264
-0.733667
-0.740101
-0.748483
-0.761162
-0.781394
-0.803508
-0.813207
-0.804002
-0.792534
-0.765306
-0.678375
-0.679817
-0.681773
-0.683671
-0.690187
-0.695672
-0.694476
-0.720013
-0.722881
-0.7279
-0.73322
-0.736283
-0.738711
-0.739306
-0.740977
-0.74308
-0.742516
-0.741053
-0.738974
-0.734098
-0.728676
-0.724007
-0.722141
-0.722105
-0.725321
-0.731182
-0.734732
-0.737534
-0.740623
-0.744878
-0.75042
-0.756196
-0.763285
-0.771954
-0.782099
-0.791873
-0.799774