/*--------------------------------*- C++ -*----------------------------------*\
  =========                 |
  \\      /  F ield         | OpenFOAM: The Open Source CFD Toolbox
   \\    /   O peration     | Website:  https://openfoam.org
    \\  /    A nd           | Version:  8
     \\/     M anipulation  |
\*---------------------------------------------------------------------------*/
FoamFile
{
    version     2.0;
    format      ascii;
    class       volScalarField;
    location    "1.35";
    object      p_rgh;
}
// * * * * * * * * * * * * * * * * * * * * * * * * * * * * * * * * * * * * * //

dimensions      [1 -1 -2 0 0 0 0];

internalField   nonuniform List<scalar> 
9150
(
1963.43
1962.43
1961.83
1961.35
1961.11
1961.1
1961.34
1961.82
1962.43
1963.43
1963.01
1962.48
1962.07
1961.74
1961.57
1961.58
1961.74
1962.07
1962.48
1963.01
1962.73
1962.45
1962.2
1961.98
1961.86
1961.87
1961.97
1962.19
1962.44
1962.73
1962.62
1962.44
1962.27
1962.11
1962.03
1962.02
1962.11
1962.27
1962.43
1962.61
1962.62
1962.43
1962.29
1962.17
1962.11
1962.09
1962.17
1962.3
1962.43
1962.62
1951.81
1950.9
1951.1
1951.51
1951.67
1951.65
1951.5
1951.05
1950.87
1951.78
1955.73
1955.03
1954.81
1954.74
1954.83
1954.82
1954.72
1954.79
1955
1955.69
1958.8
1958.05
1957.74
1957.4
1957.33
1957.32
1957.38
1957.72
1958.03
1958.78
1961.52
1960.39
1959.97
1959.32
1959.16
1959.15
1959.32
1959.97
1960.39
1961.52
1964.2
1962.08
1961.35
1960.62
1960.38
1960.37
1960.63
1961.35
1962.08
1964.2
1947.27
1945.55
1943.38
1942.26
1941.76
1941.82
1942.44
1943.54
1945.3
1946.66
1946.29
1946.06
1945
1944.57
1944.05
1944.03
1944.45
1944.75
1945.68
1945.85
1945.93
1946.01
1944.96
1945.32
1944.87
1944.7
1945.21
1944.73
1945.8
1945.67
1942.66
1945.38
1944.32
1945.84
1945.67
1945.57
1945.91
1944.19
1945.31
1942.54
1935.97
1945.98
1946.24
1947.82
1948.17
1948.12
1947.83
1946.16
1945.91
1935.85
246.371
261.575
265.065
247.641
241.608
247.574
259.492
294.056
378.314
435.996
206.584
209.622
221.744
226.255
226.965
227.466
227.875
231.485
258.318
311.767
230.43
253.802
244.991
232.037
231.02
230.639
230.668
230.547
241.411
266.145
263.602
265.556
246.036
232.494
231.928
231.139
230.32
229.774
241.596
273.902
241.929
237.002
236.492
233.84
232.934
232.778
228.706
228.258
240.7
280.762
236.382
249.2
262.1
270.538
282.964
278.572
239.418
223.593
242.94
260.833
236.694
283.148
288.957
284.781
273.439
253.632
233.898
216.673
230.691
221.013
239.423
243.78
237.146
211.496
175.619
129.548
93.2058
129.32
171.432
168.594
166.919
179.039
202.926
136.772
65.3429
36.4787
29.4387
30.4282
112.62
149.163
122.727
129.799
183.906
100.289
27.3543
26.674
27.0316
26.6825
64.9711
87.434
78.964
96.2939
148.763
109.475
29.9349
26.654
26.5449
25.8329
27.5068
39.5566
47.7946
62.4384
101.79
116.551
88.0908
37.0466
24.2442
25.4337
25.9894
35.9499
44.2304
42.4151
40.1213
72.7195
116.011
118.719
60.749
27.6121
27.2926
26.3703
51.569
73.4682
61.1749
72.1384
136.552
174.371
192.613
109.167
32.3503
25.0829
21.975
139.802
202.517
145.081
142.076
197.214
220.908
209.6
64.6909
24.3556
17.333
179.313
257.771
198.082
199.4
233.98
233.582
226.587
80.7212
23.2159
117.633
263.301
300.374
260.898
304.043
271.035
229.648
163.416
65.406
21.5752
287.702
318.647
348.456
379.691
353.731
285.46
100.407
102.369
58.564
20.2659
335.062
357.743
380.385
403.831
353.792
153.559
82.2061
156.032
60.4237
19.3262
322.093
330.034
334.149
341.039
325.51
120.667
96.831
231.03
57.8039
18.8091
287.362
270.709
245.76
114.591
235.217
187.779
102.4
239.293
112.823
18.4524
287.045
258.546
209.024
56.0308
153.87
253.579
100.9
243.013
153.346
18.0472
310.782
296.157
281.218
116.172
235.781
273.732
98.3664
247.335
156.175
17.6381
335.079
336.202
337.841
156.198
300.275
310.851
120.447
230.115
139.971
17.3899
357.022
366.88
202.29
129.001
278.193
329.433
138.076
237.58
189.406
17.3566
380.807
372.931
137.292
115.956
291.991
337.365
126.43
263.28
156.282
16.8925
377.798
387.216
347.494
134.056
351.051
330.141
107.62
286.204
267.986
56.6004
45.5143
39.4845
136.298
223.526
372.597
331.614
75.5923
247.129
255.378
27.6846
0.698535
0.712383
37.087
125.636
387.722
354.015
52.5001
239.839
132.83
1.61256
0.555344
0.623465
0.600649
43.8985
381.807
359.695
48.6577
268.812
162.316
4.68727
0.387512
0.499699
0.571874
38.2706
395.487
378.04
58.1732
240.469
229.005
80.8424
0.293497
0.249993
0.571845
40.3392
413.245
394.367
34.3015
65.2344
93.7185
119.019
0.0403414
1.29637
4.58251
6.08593
433.637
398.716
7.29445
5.08745
5.75597
38.6589
-0.0085833
1.0185
1.77067
0.914709
406.31
449.838
4.74031
2.22271
3.10323
4.84047
-0.0333668
-0.0227712
-0.0359858
0.0194
420.223
461.783
6.22811
1.81983
1.86984
4.29741
0.0564933
0.0566654
0.064414
0.146356
435.323
474.837
3.32012
1.60887
1.58114
4.41855
0.1044
0.101023
0.096497
0.0953662
478.914
465.393
0.92164
1.40768
1.5758
2.75322
0.0756619
0.0772594
0.0820696
0.0797863
488.989
485.798
0.89141
1.45481
1.49803
0.816569
0.0503245
0.0624196
0.206562
0.0753821
505.33
502.816
0.789167
1.22606
1.32892
0.683119
0.762077
0.435311
1.62806
0.105063
517.987
525.265
0.725679
0.778088
0.75633
0.646379
1.91914
1.9185
1.89465
0.139588
539.058
538.385
0.72099
0.718622
0.698096
0.7149
1.82999
1.83536
1.82794
0.0650347
558.929
555.965
0.700952
0.690343
0.703732
0.742774
1.10048
1.24082
0.982115
-0.0750851
578.994
576.347
0.680059
0.6805
0.682982
0.694309
-0.266064
-0.244206
-0.1911
-0.20622
600.182
597.327
0.658423
0.664087
0.656913
0.656086
-0.283983
-0.279394
-0.263682
-0.266373
619.754
619.381
0.624338
0.631785
0.624643
0.620643
-0.283598
-0.289179
-0.281193
-0.28365
642.486
640.479
0.592204
0.598722
0.5909
0.586746
-0.271152
-0.273837
-0.274363
-0.2773
664.406
662.422
0.561175
0.564659
0.569295
0.55434
-0.262631
-0.263394
-0.264589
-0.268348
685.364
684.024
0.528817
0.531052
0.540147
0.522059
-0.259036
-0.261808
-0.262456
-0.266283
707.019
705.882
0.498448
0.500765
0.511217
0.492255
-0.262298
-0.2583
-0.265239
-0.269895
727.101
726.256
0.471673
0.473743
0.484902
0.46655
-0.268038
-0.261583
-0.271166
-0.275769
748.169
747.225
0.449584
0.450668
0.46197
0.444173
-0.275914
-0.269549
-0.2798
-0.285129
767.062
765.849
0.429773
0.430762
0.428397
0.426261
-0.285874
-0.280867
-0.290452
-0.295109
787.814
786.287
0.418071
0.418299
0.421458
0.411886
-0.297088
-0.294715
-0.302252
-0.308516
806.46
804.036
0.415065
0.417708
0.596584
0.402551
-0.229435
-0.293813
-0.30484
-0.306882
827.612
824.015
0.417204
0.41238
0.646577
0.424468
-0.0735034
-0.274632
-0.295219
2.90878
844.47
843.046
3.02073
0.397789
0.633689
0.444592
-0.0529313
-0.256123
-0.279132
5.95714
864.403
865.121
6.42948
0.382556
0.621958
0.391237
-0.0571397
-0.248159
-0.258794
9.66415
887.201
886.09
9.94914
0.373247
0.510941
0.396917
-0.136186
-0.225815
-0.227267
15.0717
913.187
912.076
15.315
0.373562
0.489997
0.626905
-0.0691982
-0.177205
-0.17844
22.3942
942.82
940.662
22.424
0.352532
0.455056
0.607054
0.0880846
-0.10992
-0.110199
31.2465
973.605
973.602
31.5591
0.334262
0.68609
0.760895
0.268248
-0.0393019
-0.0389135
43.3663
1009.45
1008.14
43.4292
0.309167
0.873184
1.14806
0.38753
0.0313222
0.0321556
56.9725
1044.83
1043.59
57.0882
0.251937
0.608361
1.08361
0.391455
0.0949474
0.0965269
72.5489
1078.52
1077.48
72.4882
0.165795
0.175758
0.250087
0.283961
0.156388
0.160753
87.6611
1102.96
1106.47
87.251
0.0794276
0.0888832
0.0903986
0.252946
0.219427
0.251433
98.2035
1104.52
1144.04
101.934
-0.0086362
0.0302257
0.0310825
0.233686
0.239855
0.281451
101.504
1117.43
1161.16
114.687
-0.0844292
0.538695
-0.00178371
0.206175
0.216963
0.237404
110.458
1152.64
1161.03
109.836
-0.0593344
0.711953
0.328535
0.182971
0.176135
0.148938
115.773
1188.67
1151.43
108.58
0.0616378
0.738963
0.820082
0.185574
0.1912
0.206203
109.56
1169.29
1199.74
113.68
-0.0175797
0.420208
0.612251
0.188904
0.189048
0.204389
110.024
1189.72
1210.42
109.321
-0.022323
0.502076
0.0970675
0.171488
0.234286
0.222646
103.497
1191.77
1235.82
113.623
-0.0211772
0.923553
0.847986
0.141377
0.369565
0.136973
106.105
1249.55
1224.97
102.48
0.0953033
1.03057
1.09426
0.129392
0.514306
0.132735
114.603
1276.77
1267.6
111.286
0.125649
0.679568
1.10328
0.47942
0.595487
0.148539
141.129
1308.14
1320.62
144.932
0.114793
0.458385
0.214703
0.825432
0.677798
0.134085
183.763
1361.34
1354.54
180.965
0.139443
0.13983
0.220238
0.811982
0.619787
0.112247
222.553
1398.77
1399.37
224.081
0.149814
0.149406
0.393305
0.699821
0.296895
0.0753751
263.867
1437.05
1435.41
264.896
0.160002
0.167479
0.621717
0.0851694
0.06538
0.0303013
301.793
1470.3
1467.52
302.805
0.164037
0.191008
0.988624
0.0110043
0.0437299
0.0109861
336.217
1499.76
1497.58
337.767
0.150723
0.181153
1.01903
0.00981107
0.0111444
0.0101836
367.679
1527.1
1525.29
369.22
0.124211
0.169321
0.808538
0.0142145
0.0153622
0.0153775
401.957
1554.68
1552.93
402.899
0.0970503
0.15562
0.266065
0.0208123
0.0215491
0.0211076
440.777
1582.41
1580.89
440.877
0.0891074
0.150541
0.0891132
0.0260518
0.0264407
0.0253867
492.787
1611.47
1611.14
492.726
0.0943244
0.109625
0.094653
0.0272099
0.0278108
0.026924
559.384
1640.28
1641.31
560.151
0.0989705
0.0992676
0.0989383
0.0267343
0.0265489
0.0256703
650.44
1669.59
1670.06
651.765
0.0995857
0.100775
0.100047
0.0250579
0.0244676
0.0225123
757.353
1696.72
1694.62
757.884
0.0969693
0.158184
0.108894
0.0244273
0.0227959
0.0193794
873.19
1720.38
1716.48
872.985
0.095707
0.180578
0.144411
0.0186584
0.0201425
0.0157869
976.953
1740.03
1738.53
976.638
0.0902888
0.13845
0.101984
0.013465
0.0162185
0.0110376
1077.24
1757.95
1762.11
1078.37
0.0819273
0.22231
0.0770327
0.0161137
0.0105336
-0.00421099
1176.73
1784.58
1777.59
1178.48
0.107859
0.215529
0.0682509
0.0121789
0.00884072
0.034519
1387.4
1801.93
1796.63
1229.3
0.0570065
0.0400486
0.0459603
0.0763769
0.0148599
52.4114
1458.64
1816.65
1818.77
1465.31
43.0695
0.0313377
0.0189523
0.334094
0.0326011
116.725
1525.57
1834.6
1836.37
1666.13
255.213
0.00261484
0.126085
0.360461
0.0427703
298.392
1708.3
1853.49
1855.43
1770.95
502.587
-0.0372933
0.272147
0.316543
0.0504783
573.532
1795.45
1872.88
1873.79
1866.52
947.774
0.0224689
0.268618
0.326805
0.202048
1197.31
1891.91
1892.24
1892.64
1890.99
1283.63
0.172992
0.287964
0.187892
88.3183
1628.1
1910.36
1911.29
1910.94
1910.11
1719.5
330.741
0.149495
0.0396512
979.533
1913.18
1926.5
1926.75
1927.09
1927.49
1927.74
1299.04
-0.0187149
589.212
1868.85
1939.81
1937.82
1936.99
1936.86
1937.41
1938.93
1895.15
721.366
424.276
362.917
303.073
262.989
239.969
220.023
191.973
181.144
175.526
169.95
161.729
159.628
160.104
160.169
173.416
179.637
181.6
182.942
187.105
188.204
191.799
193.644
198.635
206.511
216.297
226.806
239.561
258.42
274.677
288.771
298.914
311.611
327.583
343.957
364.24
388.362
409.11
422.461
432.522
432.137
296.663
250.165
226.007
209.825
197.179
185.318
174.852
163.78
153.484
148.263
147.505
148.589
150.914
153.37
157.619
161.903
164.211
165.462
166.354
168.631
168.582
189.313
187.103
192.625
198.513
222.441
242.913
263.78
275.181
289.222
298.316
307.781
317.969
329.33
344.223
358.294
397.964
398.197
406.934
409.599
260.441
238.601
221.75
208.687
198.936
190.946
182.02
172.284
162.613
154.56
151.122
152.185
154.223
156.927
159.979
169.494
188.855
191.516
187.191
182.05
188.405
193.125
193.404
189.358
197.147
207.874
235.766
251.624
266.324
269.141
280.39
287.504
313.492
332.004
334.775
350.647
384.414
391.047
381.246
383.317
276.674
267.894
252.394
231.441
208.262
199.608
202.906
198.594
192.723
183.528
173.339
165.337
167.951
182.712
191.961
183.564
179.114
177.24
175.861
176.707
179.366
180.44
191.501
199.453
204.158
215
224.505
234.273
246.594
258.39
267.662
279.88
291.93
306.126
321.866
338.288
355.136
374.709
362.821
367.513
277.866
274.364
260.371
244.555
231.232
220.449
212.335
205.228
197.415
191.499
182.992
153.003
151.961
148.632
161.833
174.529
171.073
170.275
170.734
173.785
158.741
166.131
171.641
192.638
197.727
192.707
193.275
211.573
223.711
233.53
241.502
249.132
257.356
265.071
272.644
277.314
301.226
329.291
339.891
329.948
257.49
256.53
245.491
229.934
217.662
208.266
199.708
192.493
185.8
180.557
172.739
152.86
147.608
137.782
130.553
121.77
121.893
139.906
138.117
141.917
147.735
167.165
175.263
179.016
160.808
164.038
166.688
169.159
174.359
213.87
218.394
218.523
216.708
210.904
181.608
191.253
230.152
273.763
291.178
275.468
208.919
192.332
203.064
201.197
196.282
191.88
185.872
178.587
161.599
129.61
131.938
146.739
141.387
133.867
124.919
101.271
85.7309
90.4113
102.036
120.842
152.5
169.137
181.372
161.895
157.56
162.43
171.72
211.912
211.458
203.808
197.716
179.984
146.356
140.884
141.489
145.495
173.774
235.505
250.962
225.369
131.622
127.126
153.084
175.845
177.294
176.138
144.05
128.179
97.944
96.2123
92.7401
100.502
89.2103
66.8745
40.0224
35.9704
56.7235
75.297
68.2835
40.3135
48.3238
100.782
152.547
162.183
181.181
206.516
218.632
213.09
205.502
200.305
157.084
155.852
164.216
133.188
133.825
138.301
144.388
215.144
214.773
223.769
79.4039
92.3748
154.866
163.469
163.632
87.2079
82.3169
87.294
88.8677
92.3427
98.0049
45.6633
13.4025
11.8167
12.0916
12.0182
11.7591
11.5334
11.3568
11.9144
14.0736
37.8461
78.1535
161.233
207.701
211.857
210.715
207.199
196.399
147.248
146.203
166.768
203.462
175.716
142.518
147.145
150.49
162.877
194.701
229.454
74.7101
136.755
164.705
164.291
83.1764
40.7243
64.3328
115.998
117.683
115.116
108.209
86.5758
23.9751
11.9677
11.9444
11.9621
11.8362
11.5547
11.4023
11.4681
11.8475
12.8954
43.3492
107.352
148.381
192.642
196.944
196.492
159.7
119.516
134.247
194.999
202.485
210.173
203.56
173.25
162.6
164.808
202.43
230.649
95.268
139.989
187.405
137.64
46.7756
29.661
38.8944
61.023
121.595
120.594
116.111
109.866
85.8436
14.5291
12.0171
12.0173
11.8819
11.6787
11.5881
11.6728
11.9252
14.4637
24.3349
24.1307
45.2335
84.5685
128.309
204.172
120.69
102.399
116.066
191.972
202.894
212.954
223.298
229.838
217.805
174.233
201.065
231.063
42.5396
72.8966
84.6854
27.1067
23.9892
24.4656
23.7419
24.2578
35.5107
97.5072
124.025
120.957
116.312
78.2597
13.7908
12.2769
12.2566
12.2491
12.2376
12.3193
12.6804
14.9322
16.4071
17.828
19.0474
23.1032
24.7816
160.479
91.0179
91.874
94.7768
188.751
199.135
207.691
214.634
221.442
225.83
161.512
207.393
230.438
33.0489
56.6456
36.2515
24.3075
24.3074
24.05
23.1872
22.1663
20.5945
18.7316
33.2388
73.5958
99.3747
98.1093
77.875
12.5477
12.6286
12.6959
12.7868
12.8839
12.9446
13.8216
19.5149
19.139
28.698
82.1475
65.9271
156.626
89.4428
93.8296
103.123
195.306
197.333
194.563
160.76
163.379
195.365
199.627
219.179
222.649
24.8562
24.6525
24.5119
24.7911
24.6218
24.6984
29.0926
22.3604
16.2666
14.7416
14.0972
14.4087
15.115
56.2081
89.9209
29.543
12.9034
12.997
13.0701
13.121
13.2075
14.7419
116.566
173.941
199.689
135.581
70.7736
79.7045
129.98
147.905
158.178
161.047
105.192
70.1374
68.1289
74.6954
115.273
210.767
217.291
221.384
24.0924
24.1413
24.3856
24.8458
26.6899
83.718
177.162
170.64
65.6024
13.5832
13.3069
13.2568
13.041
13.0871
13.3802
28.199
32.3126
14.6522
26.9067
90.1341
144.375
191.777
207.678
210.478
212.534
200.424
87.6214
83.2038
143.512
127.359
99.2053
68.6613
66.7921
66.4239
67.1401
70.6331
124.463
220.491
228.681
232.631
23.2599
23.5277
23.9139
25.1099
98.1034
247.442
265.671
263.338
239.775
83.9065
12.9536
12.9491
13.0174
13.0139
13.0657
13.1106
13.1095
14.5056
53.724
91.4758
120.924
204.151
221.429
220.61
220.451
214.193
78.6528
79.5057
113.705
72.8078
72.9305
72.894
72.1249
72.4218
75.1493
149.592
233.586
244.45
250.459
253.583
21.7317
21.8729
22.4089
44.2609
227.083
281.775
279.552
276.756
273.47
270.704
113.215
13.0504
12.8957
12.8683
12.9433
12.9532
12.9196
13.926
13.6823
13.6607
57.5951
133.488
216.977
229.51
229.58
134.355
77.7367
78.7598
78.8756
78.9366
78.9719
79.1157
80.0158
106.922
225.189
257.492
264.467
271.439
279.451
284.365
20.2632
20.0937
20.13
54.6892
260.241
296.061
294.252
291.756
289.023
286.959
274.335
66.549
12.8561
12.8313
12.8507
12.8876
13.1123
13.7885
14.1323
13.891
13.9112
18.0319
118.808
198.956
95.1484
79.8042
81.2039
82.8045
83.8534
84.3805
84.831
85.6143
178.548
267.343
275.472
283.233
290.541
298.68
305.239
308.688
19.29
19.1106
19.0531
36.2277
234.351
308.351
306.222
304.635
303.301
302.432
301.629
182.483
13.0474
12.8574
12.8531
12.9968
14.0824
14.0889
13.783
13.9084
14.8084
17.8475
126.915
233.06
81.5839
84.1775
86.5071
88.0183
88.9483
90.0783
91.2912
187.505
281.807
287.733
295.634
292.964
231.616
229.741
210.937
197.529
18.7449
18.59
18.7317
19.0004
134.431
320.704
320.039
319.329
318.299
317.616
316.954
269.773
43.636
12.7941
12.7138
12.76
13.2456
13.94
13.2004
14.0036
14.8551
76.2766
271.478
305.73
199.126
91.0083
93.1505
94.5143
95.2068
96.3614
158.424
294.092
299.183
307.218
183.369
138.361
144.776
151.214
157.839
157.49
18.3478
18.225
18.2049
18.1029
51.2494
294.558
336.954
336.195
335.483
333.947
331.997
329.9
224.95
28.1867
12.8718
12.7476
12.8257
12.9283
13.0246
13.2854
41.5886
259.812
314.499
315.693
314.697
229.504
101.912
102.349
103.911
230.21
327.128
323.677
228.059
138.923
134.121
137.186
142.633
147.749
166.097
155.284
17.9787
17.9054
17.822
17.7579
18.8287
175.659
352.519
352.642
352.431
350.422
348.397
347.282
346.163
273.271
49.1307
12.8886
12.898
13.022
13.1344
14.0718
173.791
328.9
329.485
329.604
329.722
329.326
290.219
237.761
283.069
340.538
344.609
292.044
137.064
137.354
134.882
134.961
137.714
185.354
350.285
306.501
17.6352
17.6407
17.6408
17.5829
17.6675
42.8424
303.261
366.962
369.867
369.837
367.29
364.114
362.339
359.603
349.409
106.281
20.5188
18.7
16.7903
127.368
337.296
341.679
344.781
347.114
349.273
350.968
352.047
353.192
355.327
356.094
356.438
353.12
269.76
249.015
240.164
204.064
232.579
319.333
368.734
371.561
17.3912
17.403
17.4076
17.3643
17.4236
17.3323
133.916
383.44
392.104
391.234
382.307
376.807
373.531
369.86
368.474
367.743
329.061
247.777
290.693
342.699
347.966
354.86
361.627
366.47
370.294
371.574
366.773
372.604
372.7
372.313
372.009
373.466
377.713
372.612
370.732
372.81
374.356
375.625
378.563
379.549
17.1961
17.1413
17.1873
17.1299
25.9926
26.857
90.624
232.349
390.583
239.305
147
291.071
373.223
384.248
387.546
385.65
382.398
379.519
334.529
373.672
376.442
379.431
383.306
365.598
267.789
269.57
271.699
306.494
337.689
388.751
387.619
327.685
193.291
144.802
187.706
248.743
304.782
369.757
383.975
385.109
16.7651
16.5656
16.7584
46.1591
192.088
196.462
151.194
143.75
73.871
27.0415
7.01089
1.43321
56.2504
213.042
315.982
341.432
328.753
361.413
385.294
389.29
393.696
397.793
400.388
293.78
275.773
277.11
286.776
409.53
388.691
270.124
244.444
114.323
91.3947
92.3409
93.1839
96.0534
105.883
320.531
393.796
389.902
13.8337
14.0596
66.7682
100.847
97.0877
64.9667
3.36752
5.38244
1.81149
1.32578
1.17249
1.11741
1.08156
0.940392
0.75241
1.51185
122.579
333.172
395.749
401.69
406.517
407.656
408.695
410.869
364.48
385.043
411.025
412.245
409.653
179.653
92.2974
91.3689
90.9086
91.7304
93.4697
95.0734
237.041
386.741
394.272
376.5
4.95767
10.3842
66.0722
57.9926
2.03485
1.23731
1.25711
1.31034
1.20268
1.15431
1.12863
1.0965
1.04636
1.00192
0.95361
0.896483
0.700311
0.762394
16.8761
257.825
413.875
415.592
415.49
415.78
409.563
419.061
420.89
422.701
423.532
420.905
244.225
160.591
138.588
203.889
299.008
382.935
423.986
423.919
408.587
388.6
2.42782
4.78107
55.7049
17.6486
1.15612
1.12338
1.17785
1.1738
1.12525
1.09036
1.06009
1.01871
0.954903
0.87605
0.801184
0.742336
0.721052
0.719963
0.633044
0.0734386
0.262179
57.639
117.805
149.584
205.709
315.874
421.131
429.146
431.024
434.135
436.65
435.786
435.24
441.134
439.804
438.016
436.285
435.196
434.426
433.283
4.92477
4.49524
2.64381
1.47224
1.20169
1.19694
1.18764
1.13889
1.09929
1.04902
1.00314
0.947335
0.866614
0.771125
0.684947
0.588024
0.49905
0.420516
0.357221
0.347069
0.381411
0.434142
0.540526
0.672455
0.734205
0.732311
1.22759
64.2645
136.741
204.905
289.847
381.171
434.444
447.636
446.948
445.894
444.708
443.736
442.935
442.023
8.62578
23.6527
63.6197
1.12399
1.18176
1.16501
1.14736
1.10986
1.0683
1.01594
0.951674
0.867513
0.755128
0.64307
0.549844
0.460913
0.379141
0.292669
0.250398
0.265257
0.335035
0.443723
0.564667
0.666801
0.750824
0.841728
0.926346
0.970307
1.04122
1.14962
1.3891
9.82266
43.7521
100.879
155.602
193.13
212.942
221.817
226.051
225.241
125.314
125.201
127.518
105.296
23.0861
1.21732
1.17103
1.1134
1.05769
0.981445
0.902575
0.818276
0.711871
0.594113
0.489285
0.412884
0.338155
0.26312
0.230862
0.250525
0.326885
0.439588
0.549009
0.648963
0.740755
0.821715
0.91946
1.01499
1.15336
1.36002
1.4774
1.51308
1.6721
1.83276
1.94434
2.02246
2.07018
2.09224
2.08572
3.28808
69.377
130.736
129.711
125.956
111.988
113.404
97.2451
35.5731
1.17957
0.95565
0.841979
0.77467
0.703535
0.589375
0.490943
0.421337
0.375271
0.344898
0.329832
0.343623
0.393702
0.475887
0.563185
0.641103
0.7208
0.801499
1.38027
1.5089
1.3472
1.30766
1.37079
1.43692
3.32834
4.02293
3.45299
2.14057
2.15307
2.15634
2.97189
3.38487
8.47148
25.2736
52.6799
20.782
113.33
131.646
133.269
134.238
133.767
85.0166
6.20284
1.49186
0.628721
0.570881
0.54462
0.491533
0.450784
0.422604
0.411361
0.423295
0.461628
0.728513
0.864181
0.711268
0.728599
1.82316
5.09798
4.55163
1.46015
1.28301
1.31078
1.94284
3.82509
4.06722
4.25823
4.42013
3.80607
2.12153
2.23817
2.71847
8.54961
5.7919
5.31514
3.48696
23.8111
84.3035
139.684
140.573
140.549
140.908
139.753
107.176
7.3133
0.633799
0.563248
0.531123
0.499813
0.49561
0.514588
0.507937
0.866541
4.58513
4.80041
1.68892
3.96933
5.16318
5.14075
5.13054
2.36128
1.25042
1.16492
2.86732
3.49655
3.60329
3.83428
4.05043
4.24476
2.58057
2.10565
3.05688
6.85869
1.72181
1.74087
2.4806
2.6896
3.54585
16.9515
47.3083
78.8722
72.7352
50.4354
27.4758
3.71268
0.751259
0.579994
0.550726
0.521617
0.506226
0.507073
3.77847
5.0916
5.18109
5.22718
5.26167
5.26136
5.26241
5.13663
2.06678
2.33996
3.16046
2.46393
0.806811
0.775296
0.845334
2.64209
3.54026
3.68683
1.97936
1.75019
3.05555
1.94913
1.6345
1.6262
1.56024
1.10354
1.24576
1.68697
1.56179
1.62923
0.657775
0.486734
0.493513
0.508126
0.511618
0.509446
0.517821
0.50669
0.510403
0.527025
1.42177
5.02349
5.2508
5.27062
5.29062
5.32616
1.73059
0.821077
1.0103
3.31013
3.27653
0.935597
0.631308
0.634543
1.43638
3.04011
3.14282
2.30781
1.0499
1.3799
2.64316
0.901377
1.7253
1.81718
1.53467
0.735696
0.670998
0.625794
0.583794
0.549149
0.521385
0.498454
0.480009
0.461365
0.444267
0.436546
0.445256
0.45754
0.466531
0.466361
0.461045
1.44368
3.40331
1.75464
0.610747
0.594583
0.626214
0.655249
2.96608
3.40697
3.33372
0.922297
0.606589
0.978873
1.35544
1.05498
1.06275
0.552748
0.582221
1.39538
2.33826
1.02003
1.58554
1.00259
0.577964
0.594589
0.594136
0.579846
0.559415
0.53632
0.51049
0.484799
0.463907
0.446012
0.433705
0.429297
0.429014
0.434625
0.441432
0.450128
0.459762
0.459467
0.464639
0.481193
0.513727
0.53479
0.557168
2.70217
3.46361
3.45146
2.77504
0.651504
0.598947
0.763586
0.518841
0.411853
0.401424
0.434506
0.46766
0.964475
2.17252
1.03204
0.755744
0.52778
0.566092
0.576691
0.570304
0.554495
0.534607
0.514129
0.493167
0.489816
0.471447
0.461862
0.460402
0.452705
0.450694
0.453181
0.458266
0.433441
0.437125
0.4394
0.448326
0.459245
0.470695
0.574237
3.23353
3.49114
3.47015
3.25059
0.891204
0.589762
0.591697
0.830367
0.565633
0.492493
0.491799
0.485623
0.483494
0.50814
2.12654
0.739014
0.661871
0.624996
0.605651
0.578219
0.567964
0.537171
0.514168
0.493304
0.475259
0.489439
0.471806
0.455039
0.441975
0.433615
0.430462
0.43055
0.406985
0.397832
0.404096
0.411928
0.420042
0.429479
0.435158
0.437315
1.24325
3.13621
1.68035
0.741508
0.511175
0.548505
0.765105
0.88615
0.868392
0.5932
0.517441
0.514928
0.512423
0.496928
2.19303
0.756205
0.720799
0.68747
0.858033
0.766347
0.580805
0.518418
0.49663
0.474996
0.454303
0.4413
0.454421
0.435735
0.395799
0.379168
0.373711
0.371155
0.370571
0.372598
0.378011
0.386623
0.397044
0.407045
0.413402
0.64086
0.788499
0.585091
0.434032
0.445909
0.472233
0.519129
0.868498
0.884552
0.895392
0.804997
0.518041
0.521052
0.525768
0.524581
2.35108
0.703818
0.702005
0.744543
1.76606
1.28949
0.538283
0.500213
0.479317
0.458829
0.439404
0.420985
0.403657
0.388176
0.376783
0.369387
0.360243
0.354426
0.351613
0.351419
0.355506
0.363795
0.374824
0.391691
0.407831
0.463819
0.525096
0.478347
0.454324
0.466337
0.480319
0.487681
0.795676
0.888259
0.835571
0.683504
0.527702
0.520786
0.52715
0.649694
2.47274
0.656078
0.652875
1.35958
1.73374
1.6114
0.58947
0.481374
0.461863
0.443387
0.425948
0.409459
0.393733
0.379191
0.370265
0.361056
0.351445
0.344926
0.341191
0.340189
0.343315
0.35195
0.363948
0.375401
0.479679
1.08985
1.22689
1.19133
0.794061
0.747856
0.768174
0.815363
0.515573
0.635471
0.527431
0.516771
0.544291
0.522056
0.524412
1.25886
2.51387
0.616678
0.610429
1.53961
1.71362
1.66241
0.810603
0.45793
0.441907
0.426899
0.412425
0.398641
0.385303
0.372598
0.361639
0.354036
0.355917
0.359491
0.340846
0.340092
0.342672
0.34822
0.356418
0.604054
1.22064
1.23599
1.24972
1.26317
1.27281
1.27559
1.26314
0.89242
0.477784
0.487387
0.498163
0.507683
0.522473
0.525069
0.52667
2.11234
2.54006
0.583001
0.577448
1.52119
1.70599
1.66242
1.27562
0.44189
0.421999
0.410441
0.399026
0.388257
0.377869
0.367399
0.358637
0.361138
0.398242
0.395147
0.351732
0.34464
0.346923
0.351168
0.361668
0.910228
1.23205
1.23855
1.25115
1.2631
1.269
1.27442
0.820137
0.523824
0.477068
0.488243
0.501737
0.514503
0.526419
0.534125
0.540286
2.54724
2.57968
0.55083
0.585489
1.51083
1.69715
1.66398
1.62993
0.483551
0.405179
0.395928
0.386747
0.378401
0.370345
0.362452
0.355622
0.371382
0.397977
0.396969
0.38599
0.348175
0.350721
0.352971
0.392388
0.684587
0.772873
0.627605
0.591843
1.06995
0.953561
0.515881
0.446117
0.459388
0.475014
0.492599
0.513391
0.539823
0.643025
0.885034
1.83402
2.63649
2.63771
0.516914
0.533491
1.23592
1.69717
1.66851
1.64093
0.766258
0.389876
0.382838
0.375358
0.36897
0.362977
0.357092
0.351846
0.354906
0.396633
0.39605
0.396932
0.370378
0.351491
0.355068
0.385222
0.375275
0.364177
0.370438
0.384466
0.421886
0.429834
0.447447
0.449793
0.630993
1.34631
1.65939
1.69752
1.69769
1.80786
1.9748
2.70234
2.70442
2.68606
0.486616
0.481609
0.887899
1.70212
1.67656
1.65226
0.88032
0.377411
0.371815
0.365604
0.360516
0.356002
0.351613
0.347625
0.344575
0.3736
0.394668
0.395581
0.358121
0.34852
0.352009
0.3557
0.35841
0.364247
0.369055
0.370975
0.375667
0.389805
0.613545
1.61822
1.80859
1.83103
1.84594
1.85714
1.84136
1.02889
0.761981
0.978195
1.31747
1.07966
0.461601
0.456891
0.650935
1.7094
1.69086
1.66795
0.707808
0.370183
0.364278
0.358381
0.353792
0.350056
0.346676
0.343885
0.341479
0.347118
0.366917
0.354293
0.343221
0.346056
0.348494
0.35213
0.356223
0.359706
0.362021
0.364712
0.370034
1.14655
1.77738
1.79116
1.79791
1.7785
1.17984
0.915874
0.571949
0.473027
0.529471
0.575122
0.612824
0.648642
0.440378
0.435288
0.456116
1.2846
1.71931
1.68533
0.591167
0.364524
0.358936
0.355415
0.349871
0.345136
0.342652
0.341074
0.339974
0.339215
0.339369
0.340718
0.342294
0.344302
0.345727
0.348665
0.351195
0.35357
0.355517
0.372587
1.33966
1.78845
1.78349
1.78413
0.760193
0.438869
0.371138
0.368618
0.385924
0.406214
0.436876
1.59929
2.69196
2.85653
0.423376
0.419
0.412684
0.6819
1.74051
1.70607
0.691814
0.359079
0.357181
0.357632
0.352512
0.340729
0.338879
0.338576
0.338823
0.339205
0.340529
0.523813
0.755261
0.567213
0.343958
0.345936
0.347967
0.349215
0.351616
0.999875
1.82068
1.81546
1.8043
0.595974
0.339258
0.33901
0.337672
0.332531
0.322932
0.326291
2.39339
4.14124
4.17066
4.18639
0.409624
0.405815
0.410418
0.5238
1.2646
1.71991
0.797565
0.354465
0.354765
0.353454
0.348207
0.336385
0.335059
0.335933
0.337309
0.344455
0.665945
0.761976
0.761161
0.760163
0.454628
0.344215
0.345784
0.346396
0.410866
1.38491
1.85163
1.57595
0.648578
0.327101
0.325332
0.32338
0.315875
0.301502
0.280153
0.303135
2.56591
4.11879
4.13195
4.1489
0.399275
0.397031
0.424015
0.510338
0.535067
1.62206
0.637331
0.353039
0.352353
0.351555
0.344454
0.333379
0.332044
0.33317
0.416268
0.762271
0.764501
0.764236
0.76588
0.714826
0.338518
0.342274
0.344893
0.364791
0.579521
0.804202
0.703328
0.435999
0.327495
0.323082
0.317638
0.312818
0.30984
0.298283
0.278472
0.252813
0.556924
0.590822
1.04737
2.53529
0.392166
0.390729
0.467337
0.551348
0.46547
0.598159
0.860223
0.354453
0.34871
0.351977
0.343733
0.333812
0.331974
0.541013
0.76359
0.761584
0.764101
0.767539
0.501854
0.364343
0.342405
0.346903
0.349246
0.387578
0.412124
0.341933
0.337322
0.333921
0.330375
0.326073
0.320528
0.314797
0.30909
0.300633
0.292455
0.283269
0.292091
0.292895
0.300995
0.322302
0.385271
0.384942
0.459109
0.548602
0.458221
0.694857
0.86978
0.350114
0.347502
0.343596
0.341661
0.34003
0.442782
0.772996
0.770597
0.767811
0.546013
0.344996
0.333343
0.3383
0.344483
0.349215
0.35127
0.354643
0.350639
0.349471
0.347336
0.345249
0.341102
0.335675
0.329295
0.322386
0.314922
0.320301
0.304206
0.297695
0.303888
0.753637
0.985433
0.743395
0.373584
0.37531
0.410515
0.408281
0.440738
0.793552
0.867573
0.351319
0.348071
0.345074
0.341366
0.339072
0.409553
0.78294
0.78319
0.456527
0.325896
0.3262
0.329399
0.335738
0.34215
0.347103
0.350361
0.348915
0.350495
0.35649
0.353168
0.353162
0.351766
0.356047
0.473449
0.655205
0.670925
0.721973
0.482197
0.732695
1.10638
1.11065
1.1143
1.12906
0.361069
0.371643
0.388164
0.387781
0.418497
0.754502
0.85684
0.344014
0.343681
0.342234
0.340368
0.339501
0.385584
0.48118
0.441132
0.323864
0.320184
0.317506
0.318608
0.326
0.339039
1.14927
2.27311
2.27167
1.8316
0.59101
0.351169
0.353515
0.354852
0.625081
0.905281
0.898027
0.88382
0.802487
0.634362
0.470292
0.317484
0.352695
0.523007
0.524937
0.341206
0.350044
0.412239
0.421585
0.474018
0.847469
0.689205
0.340632
0.340137
0.340301
0.340243
0.34061
0.342052
0.338994
0.331018
0.319649
0.308137
0.297783
0.292862
0.760552
2.2714
2.28014
2.28806
2.29737
1.80201
0.335826
0.346614
0.35233
0.358073
0.518815
0.594789
0.445309
0.423229
0.40237
0.409613
0.301987
0.300758
0.310085
0.308669
0.312615
0.318186
0.341963
0.428545
0.437131
0.495435
0.830549
0.826777
0.423613
0.334355
1.27735
3.76576
1.91289
0.350196
0.340925
0.323503
0.304279
0.286324
0.273784
0.41423
2.07187
2.27219
2.28204
2.2481