/*--------------------------------*- C++ -*----------------------------------*\
  =========                 |
  \\      /  F ield         | OpenFOAM: The Open Source CFD Toolbox
   \\    /   O peration     | Website:  https://openfoam.org
    \\  /    A nd           | Version:  8
     \\/     M anipulation  |
\*---------------------------------------------------------------------------*/
FoamFile
{
    version     2.0;
    format      ascii;
    class       surfaceScalarField;
    location    "1.35";
    object      phi;
}
// * * * * * * * * * * * * * * * * * * * * * * * * * * * * * * * * * * * * * //

dimensions      [0 3 -1 0 0 0 0];

internalField   nonuniform List<scalar> 
18095
(
1.97075e-08
-1.72041e-07
1.52334e-07
2.31551e-08
-1.98027e-07
1.94579e-07
1.95772e-08
-2.05776e-07
2.09354e-07
1.03369e-08
-2.10736e-07
2.19976e-07
-1.02625e-10
-2.13756e-07
2.24196e-07
-1.09926e-08
-2.13151e-07
2.24041e-07
-2.00715e-08
-2.10367e-07
2.19446e-07
-2.31876e-08
-2.05957e-07
2.09073e-07
-1.96943e-08
-1.98138e-07
1.94645e-07
-1.72051e-07
1.52357e-07
1.55045e-08
-1.87546e-07
1.57993e-08
-1.98322e-07
1.20657e-08
-2.02042e-07
6.18357e-09
-2.04854e-07
-7.96787e-10
-2.06776e-07
-6.93921e-09
-2.07009e-07
-1.20802e-08
-2.05226e-07
-1.57186e-08
-2.02318e-07
-1.55093e-08
-1.98348e-07
-1.87561e-07
6.82328e-09
-1.94369e-07
8.30178e-09
-1.998e-07
7.27315e-09
-2.01014e-07
4.49597e-09
-2.02076e-07
4.93977e-10
-2.02774e-07
-3.54794e-09
-2.02967e-07
-6.91205e-09
-2.01862e-07
-8.28213e-09
-2.00948e-07
-6.82958e-09
-1.998e-07
-1.9439e-07
4.54562e-09
-1.98915e-07
4.67482e-09
-1.99929e-07
3.59003e-09
-1.99929e-07
1.91483e-09
-2.00401e-07
-1.47484e-10
-2.00711e-07
-2.33606e-09
-2.00778e-07
-3.82103e-09
-2.00377e-07
-4.6963e-09
-2.00073e-07
-4.53236e-09
-1.99964e-07
-1.98923e-07
1.08544e-09
1.15612e-09
1.22734e-09
8.26185e-10
1.14793e-10
-6.63481e-10
-1.04032e-09
-1.11344e-09
-1.07742e-09
-2.68764e-08
-1.96624e-07
2.23501e-07
-2.95984e-08
-1.98943e-07
2.01665e-07
-2.49363e-08
-2.01197e-07
1.96535e-07
-1.43751e-08
-2.01182e-07
1.90621e-07
-4.52138e-10
-2.01942e-07
1.88019e-07
1.33645e-08
-2.01581e-07
1.87764e-07
2.47806e-08
-2.01237e-07
1.89821e-07
2.97316e-08
-2.01398e-07
1.96447e-07
2.72019e-08
-1.99041e-07
2.01571e-07
-1.96855e-07
2.24057e-07
-9.96762e-09
-1.86657e-07
-1.59136e-08
-1.92997e-07
-1.47086e-08
-2.02402e-07
-7.54475e-09
-2.08346e-07
-7.3103e-10
-2.08756e-07
6.45962e-09
-2.08772e-07
1.4197e-08
-2.08974e-07
1.56034e-08
-2.02804e-07
9.88597e-09
-1.93324e-07
-1.86969e-07
-1.06848e-08
-1.75972e-07
-8.37145e-09
-1.9531e-07
-5.52986e-09
-2.05243e-07
-3.51856e-09
-2.10357e-07
2.74261e-10
-2.12549e-07
4.21155e-09
-2.12709e-07
5.78631e-09
-2.10549e-07
8.32444e-09
-2.05342e-07
1.06677e-08
-1.95667e-07
-1.76301e-07
-6.50703e-09
-1.69465e-07
-8.61811e-09
-1.93199e-07
-8.5649e-09
-2.05297e-07
-4.09452e-09
-2.14828e-07
-2.00754e-11
-2.16623e-07
4.24966e-09
-2.16979e-07
8.84484e-09
-2.15144e-07
8.88943e-09
-2.05387e-07
6.65455e-09
-1.93432e-07
-1.69647e-07
-1.71311e-08
-1.57512e-08
-1.1694e-08
-6.54585e-09
1.02662e-09
8.08918e-09
1.23911e-08
1.60772e-08
1.72898e-08
3.72156e-08
-1.55457e-07
1.18242e-07
4.34377e-08
-1.96891e-07
1.90669e-07
3.67058e-08
-2.09144e-07
2.15876e-07
2.37412e-08
-2.14847e-07
2.27811e-07
6.78347e-09
-2.16796e-07
2.33753e-07
-9.01015e-09
-2.17802e-07
2.33596e-07
-2.31103e-08
-2.17091e-07
2.31192e-07
-3.21464e-08
-2.12154e-07
2.2119e-07
-3.01207e-08
-2.00281e-07
1.98255e-07
-1.59536e-07
1.29415e-07
1.76892e-08
-1.73147e-07
2.11577e-08
-2.0036e-07
1.85623e-08
-2.06549e-07
1.29355e-08
-2.0922e-07
4.60569e-09
-2.08466e-07
-4.55891e-09
-2.08637e-07
-1.3221e-08
-2.08429e-07
-1.75539e-08
-2.07821e-07
-1.54334e-08
-2.02401e-07
-1.74969e-07
1.02709e-08
-1.83418e-07
1.04038e-08
-2.00493e-07
9.04804e-09
-2.05193e-07
4.18994e-09
-2.04362e-07
-1.9528e-12
-2.04274e-07
-3.65576e-09
-2.04984e-07
-7.22431e-09
-2.04861e-07
-8.83447e-09
-2.06211e-07
-9.60471e-09
-2.01631e-07
-1.84574e-07
7.89711e-09
-1.91315e-07
7.09743e-09
-1.99693e-07
7.83141e-09
-2.05927e-07
3.49531e-09
-2.00026e-07
1.87748e-09
-2.02656e-07
-1.35391e-10
-2.02971e-07
-5.57846e-09
-1.99418e-07
-5.47089e-09
-2.06318e-07
-7.25194e-09
-1.9985e-07
-1.91826e-07
3.21859e-08
3.41579e-08
2.47654e-08
1.53603e-08
7.23623e-10
-1.44828e-08
-2.408e-08
-3.39519e-08
-3.22309e-08
-1.86356e-06
-1.31005e-08
1.87666e-06
-1.79641e-06
-6.7151e-08
-1.64274e-06
-1.5367e-07
-1.61868e-06
-2.4061e-08
-1.49989e-06
-1.18784e-07
-1.2905e-06
-2.09395e-07
-1.13213e-06
-1.58369e-07
-7.77238e-07
-3.54892e-07
-1.92886e-07
-5.84352e-07
-6.32731e-07
4.39845e-07
-5.81835e-07
-8.41774e-08
6.52912e-07
-6.14854e-07
-3.41305e-08
-5.27328e-07
-2.41196e-07
-5.07796e-07
-4.35938e-08
-4.14367e-07
-2.12214e-07
-3.87681e-07
-2.36079e-07
-2.54133e-07
-2.91918e-07
-2.95083e-10
-6.08731e-07
2.43932e-07
-8.2858e-07
-8.81241e-07
4.92442e-07
6.83556e-08
-2.22914e-07
7.03814e-08
2.59518e-07
-2.25293e-07
2.61601e-07
-2.43279e-07
4.95512e-07
-2.77505e-07
5.31258e-07
-2.47958e-07
5.3743e-07
-2.42252e-07
5.10954e-07
-2.65443e-07
3.95656e-07
-4.93432e-07
3.86241e-07
-8.19165e-07
-8.61638e-07
3.66637e-07
-4.26492e-08
-3.34149e-07
1.53885e-07
3.21489e-08
-3.00092e-07
1.02783e-07
-3.13912e-07
2.44144e-07
-4.18865e-07
3.58134e-07
-3.61947e-07
4.89636e-07
-3.73756e-07
6.42302e-07
-4.18109e-07
6.26653e-07
-4.77784e-07
5.18562e-07
-7.11073e-07
-7.72896e-07
4.2982e-07
-3.07142e-07
-4.68589e-07
4.41582e-07
-1.31016e-07
-4.76217e-07
1.17252e-07
-5.6218e-07
2.83971e-07
-5.85584e-07
4.19869e-07
-4.97846e-07
5.43663e-07
-4.97548e-07
7.0725e-07
-5.81696e-07
7.64333e-07
-5.34867e-07
6.70959e-07
-6.17698e-07
-6.59467e-07
5.57531e-07
-4.55719e-07
-6.44932e-07
6.32062e-07
-2.15865e-07
-7.16071e-07
1.53696e-09
-7.79581e-07
2.01481e-07
-7.85527e-07
4.43675e-07
-7.4004e-07
7.02324e-07
-7.56198e-07
8.0788e-07
-6.87251e-07
8.22684e-07
-5.4967e-07
8.04667e-07
-5.99682e-07
-6.10812e-07
7.56012e-07
-3.85149e-07
-7.35335e-07
4.75552e-07
-2.01336e-07
-8.99884e-07
4.03862e-08
-1.0213e-06
3.03692e-07
-1.04883e-06
5.87025e-07
-1.02337e-06
8.07187e-07
-9.76359e-07
7.7359e-07
-6.53654e-07
8.11318e-07
-5.87397e-07
8.25331e-07
-6.13694e-07
-6.07461e-07
8.2198e-07
-2.75748e-07
-8.80827e-07
4.2124e-07
-9.04069e-08
-1.08523e-06
1.36538e-07
-1.24825e-06
3.77432e-07
-1.28973e-06
6.06923e-07
-1.25286e-06
7.0155e-07
-1.07099e-06
6.1966e-07
-5.71765e-07
6.46219e-07
-6.13957e-07
7.0516e-07
-6.72635e-07
-6.40008e-07
7.37708e-07
-3.50013e-07
-9.75196e-07
4.44382e-07
-2.12831e-07
-1.22241e-06
-8.66801e-08
-1.3744e-06
4.58167e-08
-1.42222e-06
1.76379e-07
-1.38343e-06
2.25772e-07
-1.12038e-06
2.00511e-07
-5.46505e-07
3.27459e-07
-7.40903e-07
4.08584e-07
-7.53761e-07
-5.96735e-07
3.65312e-07
-4.83311e-07
-9.73888e-07
4.82003e-07
-4.93589e-07
-1.21213e-06
-5.03052e-07
-1.36494e-06
-4.98375e-07
-1.4269e-06
-4.84816e-07
-1.39699e-06
-3.88421e-07
-1.21677e-06
-4.53991e-08
-8.89532e-07
1.41597e-07
-9.27899e-07
8.1105e-08
-6.9327e-07
-4.88357e-07
-2.72738e-08
-4.72535e-07
-8.59524e-07
3.58171e-07
-5.69648e-07
-1.11501e-06
-6.20166e-07
-1.31442e-06
-6.30981e-07
-1.41609e-06
-5.84939e-07
-1.44303e-06
-4.15705e-07
-1.38601e-06
-1.74631e-07
-1.1306e-06
-8.85679e-08
-1.01396e-06
-9.8643e-08
-6.83196e-07
-4.33151e-07
-1.53849e-07
-2.05731e-07
-6.57492e-07
3.69873e-09
-4.18896e-07
-9.0185e-07
-5.70802e-07
-1.16251e-06
-6.22968e-07
-1.36392e-06
-5.91484e-07
-1.47451e-06
-5.04054e-07
-1.47344e-06
-3.77765e-07
-1.25689e-06
-3.19335e-07
-1.0724e-06
-1.15762e-07
-8.86771e-07
-3.90996e-07
-1.57916e-07
4.39456e-07
-5.33924e-07
-5.63023e-07
1.76661e-07
-6.39055e-07
-1.43475e-07
-8.42376e-07
-3.50263e-07
-1.15713e-06
-3.86546e-07
-1.43823e-06
-3.02528e-07
-1.55746e-06
-1.45233e-07
-1.41419e-06
-8.90483e-08
-1.12858e-06
-1.43409e-07
-8.32414e-07
-5.06491e-08
-4.83753e-07
9.46403e-07
-5.26151e-07
-9.54177e-07
8.42135e-07
-5.34787e-07
6.11926e-07
-6.12168e-07
3.01304e-07
-8.46511e-07
8.79972e-08
-1.22492e-06
1.05977e-07
-1.57544e-06
2.11503e-07
-1.51971e-06
2.69491e-07
-1.18657e-06
3.37112e-07
-9.00035e-07
-1.15667e-07
4.02125e-07
9.90129e-07
-5.01447e-07
-1.01483e-06
9.27635e-07
-4.72293e-07
8.43403e-07
-5.27937e-07
6.76503e-07
-6.7961e-07
4.97299e-07
-1.04572e-06
4.05004e-07
-1.48314e-06
4.07054e-07
-1.52176e-06
3.91016e-07
-1.17053e-06
4.03433e-07
-9.12451e-07
-2.54828e-07
5.42595e-07
7.65794e-07
-4.76304e-07
-7.90937e-07
7.21222e-07
-4.27721e-07
6.67295e-07
-4.74011e-07
6.05794e-07
-6.18108e-07
5.85646e-07
-1.02557e-06
5.5648e-07
-1.45398e-06
5.00704e-07
-1.46599e-06
3.99397e-07
-1.06922e-06
3.20079e-07
-8.33133e-07
-7.32476e-08
1.38502e-07
4.43925e-07
-4.28303e-07
-4.91926e-07
4.26217e-07
-4.10013e-07
4.10739e-07
-4.58532e-07
4.51078e-07
-6.58447e-07
6.01459e-07
-1.17595e-06
6.25516e-07
-1.47803e-06
5.55774e-07
-1.39624e-06
3.4472e-07
-8.5817e-07
1.88505e-07
-6.76915e-07
2.72104e-07
-1.56845e-07
2.32076e-07
-3.3918e-07
-3.21199e-07
1.81592e-07
-3.59528e-07
1.28995e-07
-4.05936e-07
2.93236e-07
-8.22688e-07
5.2528e-07
-1.408e-06
5.94663e-07
-1.54742e-06
4.14714e-07
-1.2163e-06
1.798e-07
-6.23256e-07
6.11055e-09
-5.03227e-07
5.97649e-07
-3.19436e-07
1.65718e-07
-1.65095e-07
-3.39803e-07
-2.37569e-08
-1.70052e-07
-1.40411e-07
-2.89282e-07
4.54287e-08
-1.00853e-06
1.54146e-07
-1.51671e-06
1.87807e-07
-1.58108e-06
2.5349e-08
-1.05384e-06
-2.52226e-08
-5.72684e-07
-9.60992e-08
-4.32351e-07
6.87317e-07
-1.85773e-07
4.91241e-08
-5.67249e-09
-2.08546e-07
-1.37967e-07
1.70381e-08
-2.44577e-07
-1.82671e-07
-1.97856e-07
-1.05525e-06
-2.05594e-07
-1.50897e-06
-1.77821e-07
-1.60885e-06
-1.29802e-07
-1.10186e-06
-1.9976e-07
-5.02724e-07
-2.09493e-07
-4.22618e-07
6.22585e-07
-1.44765e-07
-4.24162e-09
4.59575e-08
-4.73884e-08
-6.03967e-08
7.31935e-08
-1.19189e-07
-1.23879e-07
-3.2717e-07
-8.47268e-07
-3.27754e-07
-1.50839e-06
-2.69754e-07
-1.66685e-06
-1.83113e-08
-1.3533e-06
-8.73092e-08
-4.33727e-07
-1.04464e-07
-4.05463e-07
5.13355e-07
4.76844e-09
1.96356e-07
-2.22859e-08
-1.28113e-07
2.35708e-07
3.38415e-08
1.90937e-07
-7.91073e-08
-1.31298e-07
-5.25034e-07
-1.89935e-07
-1.44975e-06
-1.47225e-07
-1.70956e-06
3.34782e-08
-1.534e-06
3.94112e-08
-4.39661e-07
-2.33693e-08
-3.42683e-07
4.21457e-07
6.85285e-08
3.35658e-07
-8.54739e-08
-2.7247e-07
3.86559e-07
-1.706e-08
3.85721e-07
-7.82683e-08
1.55304e-07
-2.94617e-07
6.291e-08
-1.35736e-06
5.49862e-08
-1.70164e-06
1.0482e-07
-1.58383e-06
7.17522e-08
-4.06593e-07
-1.77344e-08
-2.53197e-07
4.1685e-07
-1.31278e-08
2.52851e-07
-9.63553e-08
-2.41969e-07
2.88527e-07
-5.27357e-08
2.93121e-07
-8.28624e-08
1.77319e-07
-1.78815e-07
1.09175e-07
-1.28921e-06
6.61685e-08
-1.65863e-06
7.47856e-08
-1.59245e-06
2.29335e-08
-3.5474e-07
-6.1746e-08
-1.68518e-07
4.60428e-07
-1.05322e-07
1.93403e-07
-6.02692e-08
-2.2949e-07
1.74865e-07
-3.41971e-08
1.22274e-07
-3.02717e-08
5.71341e-08
-1.13675e-07
4.33289e-08
-1.27541e-06
3.15191e-08
-1.64682e-06
6.95704e-08
-1.6305e-06
2.82034e-08
-3.13374e-07
-3.27771e-08
-1.07537e-07
5.44453e-07
-1.16801e-07
2.18156e-07
-2.294e-08
-2.55486e-07
2.24921e-07
-4.09614e-08
1.69401e-07
2.52484e-08
1.52051e-07
-9.63247e-08
1.30907e-07
-1.25426e-06
9.13261e-08
-1.60724e-06
8.13125e-08
-1.62049e-06
8.00584e-08
-3.1212e-07
7.63894e-08
-1.03868e-07
7.45452e-07
-1.24613e-07
1.87023e-07
-9.55909e-08
-1.14372e-07
2.93378e-07
-1.47316e-07
3.62124e-07
-4.34974e-08
2.70926e-07
-5.12554e-09
2.91365e-07
-1.2747e-06
3.24997e-07
-1.64087e-06
2.3388e-07
-1.52937e-06
2.83421e-07
-3.61659e-07
2.13724e-07
-3.41711e-08
3.44121e-07
6.15054e-07
2.72895e-07
6.16809e-08
-4.30166e-07
2.78941e-07
-1.53363e-07
2.61795e-07
-2.63514e-08
1.79289e-07
7.73806e-08
3.08215e-07
-1.40363e-06
3.29075e-07
-1.66173e-06
2.95566e-07
-1.49586e-06
1.64921e-07
-2.31014e-07
3.74109e-08
9.33383e-08
5.19113e-07
-1.3758e-07
4.30995e-07
1.83705e-07
-5.5302e-07
1.30553e-07
1.47083e-07
1.22956e-07
-1.87567e-08
5.26933e-08
1.47643e-07
1.62905e-07
-1.51384e-06
1.59772e-07
-1.6586e-06
1.06534e-07
-1.44263e-06
-1.88419e-07
6.39384e-08
-3.09243e-07
2.14162e-07
5.65887e-07
-3.56016e-07
2.10026e-07
2.15041e-07
-2.4136e-07
9.99333e-08
2.57169e-07
-1.10576e-07
1.91753e-07
2.29902e-08
1.40731e-08
6.16119e-08
-1.55246e-06
5.79116e-08
-1.6549e-06
-3.93149e-08
-1.3454e-06
-2.74312e-07
2.98935e-07
-3.24365e-07
2.64216e-07
5.38228e-07
-2.96708e-07
1.59351e-07
2.3453e-07
-1.78843e-07
7.23062e-08
3.44209e-07
-6.60462e-08
3.30108e-07
4.38102e-09
-5.63535e-08
3.96179e-08
-1.5877e-06
7.54849e-09
-1.62283e-06
-7.487e-08
-1.26298e-06
-3.57299e-07
5.81364e-07
-3.4703e-07
2.53947e-07
4.01103e-07
-2.09905e-07
-5.34915e-07
4.07182e-07
3.6226e-07
-6.43293e-07
4.5258e-07
-6.86076e-07
3.72886e-07
4.01104e-08
-7.82542e-07
4.94835e-08
-1.59707e-06
4.15273e-08
-1.61487e-06
1.52362e-07
-1.37382e-06
-2.50536e-07
9.84262e-07
-2.98742e-07
3.02153e-07
3.15242e-07
-2.12882e-07
-1.06558e-06
4.95443e-07
9.77319e-07
-1.00707e-06
3.9408e-07
-7.12705e-07
7.85252e-08
6.37107e-08
-1.55896e-06
5.53637e-08
-1.58873e-06
5.38978e-08
-1.61341e-06
1.65408e-07
-1.48533e-06
1.11001e-07
1.03867e-06
-1.13927e-07
5.27079e-07
2.79326e-07
-7.80107e-08
-6.58265e-07
5.93515e-07
5.60195e-07
-5.9949e-07
3.35299e-07
-1.21412e-07
-3.99551e-07
-4.99731e-08
-1.6304e-06
-4.67277e-08
-1.59197e-06
-7.41045e-08
-1.58603e-06
-4.35992e-09
-1.55507e-06
1.07148e-07
9.27163e-07
1.3932e-07
4.94908e-07
2.55234e-07
1.63411e-07
-3.07066e-07
4.70524e-07
4.30057e-07
-1.24982e-07
1.53199e-07
6.5958e-08
-5.9048e-07
-3.02831e-08
-1.53415e-06
-3.69929e-08
-1.58526e-06
-5.17173e-08
-1.57131e-06
-8.19771e-08
-1.52481e-06
1.57685e-07
6.87499e-07
8.70671e-08
5.65524e-07
2.74696e-07
6.76048e-08
-1.86803e-07
2.36602e-07
4.20724e-07
8.76495e-08
-1.21282e-07
8.7041e-08
-5.89878e-07
1.78841e-08
-1.465e-06
-2.9786e-09
-1.5644e-06
-9.60685e-09
-1.56468e-06
-7.87556e-08
-1.45566e-06
1.03169e-07
5.05574e-07
8.17305e-08
5.86962e-07
3.60956e-07
-4.53126e-09
-4.171e-08
-1.10601e-07
3.88908e-07
1.40661e-07
-3.03658e-07
8.67685e-08
-5.35986e-07
2.69756e-08
-1.40521e-06
1.14301e-08
-1.54886e-06
-1.15828e-09
-1.55209e-06
-8.30772e-08
-1.37374e-06
5.23587e-08
3.7014e-07
5.1032e-09
6.34217e-07
5.82589e-07
-2.16531e-07
-1.56502e-09
-3.36753e-07
2.27714e-07
7.37134e-08
-3.78934e-07
6.0055e-08
-5.22329e-07
1.3833e-08
-1.35899e-06
1.18573e-09
-1.53621e-06
-1.29898e-08
-1.53792e-06
-6.72827e-09
-1.38001e-06
6.01986e-08
3.03216e-07
4.51881e-08
6.49226e-07
7.20745e-07
-9.29658e-08
8.36904e-08
-3.99069e-07
-2.13761e-08
8.51092e-08
-3.80352e-07
6.87454e-08
-5.05967e-07
1.12724e-08
-1.30151e-06
-2.34778e-09
-1.52259e-06
-1.69897e-08
-1.52327e-06
-4.06811e-09
-1.39293e-06
1.47653e-07
1.51493e-07
2.10339e-07
5.86541e-07
7.09806e-07
2.21279e-07
2.0425e-07
-3.94302e-07
-2.0902e-07
1.44456e-07
-3.20562e-07
2.80915e-08
-3.89603e-07
5.24101e-09
-1.27867e-06
-5.76112e-09
-1.51159e-06
-1.94107e-08
-1.50963e-06
-1.7142e-08
-1.3952e-06
2.88979e-07
-1.54626e-07
4.55968e-07
4.19553e-07
5.16756e-07
6.49017e-07
1.97378e-07
-3.75274e-07
-2.16406e-07
1.55316e-07
-2.78499e-07
3.69489e-08
-2.71237e-07
1.90427e-08
-1.26076e-06
4.15731e-09
-1.49671e-06
-8.08159e-09
-1.49739e-06
-3.59058e-08
-1.36737e-06
1.92691e-07
-3.83224e-07
4.41979e-07
1.70262e-07
2.75573e-07
6.8316e-07
6.586e-08
-3.78884e-07
-6.22505e-08
9.44718e-08
-3.07114e-07
2.67229e-09
-1.79437e-07
1.47403e-08
-1.27283e-06
1.48878e-09
-1.48346e-06
-1.18216e-08
-1.48408e-06
-1.96656e-08
-1.35953e-06
2.57065e-08
-4.286e-07
2.19978e-07
-2.40122e-08
8.51088e-08
4.10441e-07
-2.05984e-07
-3.81128e-07
2.08226e-07
-1.30875e-07
-3.82224e-07
-2.85289e-08
-2.81786e-07
1.57177e-08
-1.31707e-06
1.73035e-09
-1.46947e-06
-1.22003e-08
-1.47015e-06
-2.30241e-08
-1.34871e-06
-2.37711e-08
-4.27854e-07
2.57934e-08
-7.35754e-08
2.64269e-08
8.44731e-08
-4.29641e-07
-3.67085e-07
4.15596e-07
-3.76528e-07
-4.35337e-07
-4.4999e-08
-6.13316e-07
1.17531e-08
-1.37383e-06
-3.75383e-10
-1.45734e-06
-1.35288e-08
-1.45699e-06
-2.74706e-08
-1.33477e-06
-3.27365e-08
-4.22592e-07
-1.06719e-08
-9.5642e-08
-1.12532e-08
2.70054e-08
-2.49354e-07
-3.77211e-07
2.59481e-07
-1.61062e-07
-5.23628e-07
4.36644e-09
-7.78744e-07
1.3076e-08
-1.38254e-06
-5.84742e-10
-1.44368e-06
-1.40986e-08
-1.44348e-06
-2.27039e-08
-1.32616e-06
-1.62884e-08
-4.29009e-07
1.44498e-08
-1.26382e-07
-4.88799e-08
5.20766e-08
5.4541e-09
-3.46578e-07
-3.60869e-08
-7.2537e-09
-5.10932e-07
1.63205e-08
-8.0232e-07
1.48683e-08
-1.38109e-06
1.11456e-09
-1.42992e-06
-1.2425e-08
-1.42994e-06
-2.00703e-08
-1.31852e-06
-1.38015e-08
-4.35281e-07
7.94935e-09
-1.48134e-07
-8.00399e-08
3.91076e-08
6.30154e-08
-3.04724e-07
-1.04873e-07
3.74968e-08
-4.85423e-07
3.01649e-08
-7.94991e-07
1.3166e-08
-1.36409e-06
7.3363e-10
-1.41749e-06
-1.17841e-08
-1.41742e-06
-2.11842e-08
-1.30912e-06
-1.3688e-08
-4.42777e-07
-1.12158e-08
-1.50608e-07
-8.89959e-08
-2.2639e-09
3.59027e-08
-2.88931e-07
-5.16985e-08
3.54617e-08
-4.84983e-07
3.3552e-08
-7.93082e-07
1.50531e-08
-1.34559e-06
5.61683e-10
-1.403e-06
-1.3951e-08
-1.40291e-06
-2.10795e-08
-1.30199e-06
-4.01676e-09
-4.59843e-07
-4.10258e-09
-1.50526e-07
-8.4568e-08
-8.53317e-09
-9.87486e-10
-3.12948e-07
2.50036e-08
1.63113e-08
-5.02277e-07
2.76077e-08
-8.04373e-07
1.21848e-08
-1.33016e-06
4.65855e-10
-1.39128e-06
-1.13195e-08
-1.39112e-06
-1.86351e-08
-1.29468e-06
3.54179e-09
-4.82022e-07
6.79691e-09
-1.53783e-07
-7.64615e-08
-1.31072e-09
-1.09054e-08
-3.56793e-07
5.47499e-08
8.39495e-09
-5.21581e-07
2.65477e-08
-8.22531e-07
1.54757e-08
-1.31909e-06
4.64909e-11
-1.37585e-06
-1.54651e-08
-1.37561e-06
-2.20359e-08
-1.28811e-06
1.69826e-09
-5.05755e-07
8.19862e-09
-1.60283e-07
-6.80723e-08
-1.90463e-10
-1.2928e-08
-3.91647e-07
4.77838e-08
4.04403e-09
-5.38548e-07
2.33053e-08
-8.41792e-07
1.1519e-08
-1.30731e-06
2.8507e-10
-1.36462e-06
-1.12522e-08
-1.36407e-06
-2.13766e-08
-1.27799e-06
-4.16263e-09
-5.22969e-07
3.52345e-10
-1.64799e-07
-5.57617e-08
-1.19599e-08
-2.65765e-08
-4.209e-07
5.58287e-08
2.09326e-10
-5.65335e-07
2.29064e-08
-8.64488e-07
1.65983e-08
-1.301e-06
4.79659e-10
-1.3485e-06
-1.58517e-08
-1.34774e-06
-2.32984e-08
-1.27054e-06
-9.65178e-09
-5.36617e-07
-3.8313e-09
-1.7062e-07
-4.68467e-08
-1.27465e-08
-2.90057e-08
-4.58087e-07
6.61918e-08
-8.73741e-10
-5.93471e-07
1.79395e-08
-8.83303e-07
1.26989e-08
-1.29576e-06
7.55095e-10
-1.33656e-06
-1.12108e-08
-1.33578e-06
-1.96369e-08
-1.26211e-06
-1.17953e-08
-5.44458e-07
-1.11169e-08
-1.71297e-07
-3.75374e-08
-2.04253e-08
-2.81498e-08
-5.00119e-07
7.01825e-08
1.05588e-09
-6.22671e-07
1.73597e-08
-8.99607e-07
1.86249e-08
-1.29703e-06
2.03898e-09
-1.31997e-06
-1.46569e-08
-1.31908e-06
-2.01021e-08
-1.25667e-06
-2.823e-08
-5.36328e-07
-3.05921e-08
-1.68933e-07
-3.59223e-08
-3.22075e-08
-2.46642e-08
-5.35855e-07
6.04011e-08
1.03927e-09
-6.4837e-07
1.13568e-08
-9.09924e-07
1.58167e-08
-1.30148e-06
1.59459e-09
-1.30575e-06
-1.2072e-08
-1.30541e-06
-7.23942e-09
-1.2615e-06
-2.12882e-08
-5.22277e-07
-2.41327e-08
-1.66086e-07
-2.71143e-08
-3.294e-08
9.67442e-09
-5.68219e-07
2.26901e-08
2.02585e-08
-6.58949e-07
2.36053e-08
-9.13267e-07
1.77141e-08
-1.29559e-06
1.22896e-09
-1.28926e-06
-1.5757e-08
-1.28843e-06
-1.1171e-08
-1.26608e-06
-2.20244e-08
-5.11423e-07
-3.09632e-08
-1.57145e-07
-2.33657e-08
-3.47105e-08
2.07363e-08
-5.89614e-07
6.60936e-10
2.37993e-08
-6.62008e-07
2.60317e-08
-9.15499e-07
1.41931e-08
-1.28375e-06
-9.68703e-10
-1.2741e-06
-1.61914e-08
-1.2732e-06
-1.79773e-08
-1.2643e-06
-3.0952e-08
-4.98447e-07
-4.9944e-08
-1.38154e-07
-1.80387e-08
-5.52698e-08
3.50537e-08
-5.93668e-07
-3.0997e-08
2.96922e-08
-6.56641e-07
3.09594e-08
-9.16765e-07
1.82872e-08
-1.27108e-06
1.78646e-09
-1.2576e-06
-1.47144e-08
-1.2567e-06
-2.24059e-08
-1.2566e-06
-2.76733e-08
-4.93178e-07
-3.62183e-08
-1.29609e-07
-1.97465e-10
-5.40586e-08
4.18693e-08
-5.67576e-07
-6.79608e-08
2.94284e-08
-6.44201e-07
3.01256e-08
-9.1746e-07
1.77917e-08
-1.25874e-06
2.32644e-10
-1.24004e-06
-1.66023e-08
-1.23987e-06
-3.45332e-08
-1.23867e-06
-7.09867e-08
-4.56725e-07
-1.17261e-07
-8.33352e-08
3.60968e-08
-1.53556e-07
7.07758e-08
-5.24965e-07
-1.13388e-07
4.28084e-08
-6.1623e-07
3.0285e-08
-9.04934e-07
1.56659e-08
-1.24412e-06
1.48861e-10
-1.22452e-06
-1.60658e-08
-1.22365e-06
-2.40792e-08
-1.23066e-06
-1.59889e-08
-4.64816e-07
-4.65743e-08
-5.27513e-08
1.00536e-07
-1.11013e-07
1.34797e-07
-4.47679e-07
-2.12082e-07
6.94254e-08
-5.50856e-07
3.20179e-08
-8.67527e-07
1.61474e-08
-1.22825e-06
-7.80557e-10
-1.2076e-06
-1.77126e-08
-1.20672e-06
-3.14557e-08
-1.21692e-06
-3.3104e-08
-4.63168e-07
-1.15046e-07
2.91918e-08
1.39582e-07
-1.54091e-07
1.36978e-07
-3.7291e-07
-2.11745e-07
6.39526e-08
-4.77825e-07
3.09801e-08
-8.34552e-07
1.56172e-08
-1.21289e-06
5.34706e-11
-1.19203e-06
-1.4844e-08
-1.19182e-06
-2.73816e-08
-1.20438e-06
-1.5605e-08
-4.74945e-07
-1.01495e-07
1.15084e-07
1.40321e-07
-1.02232e-07
1.47895e-07
-3.01377e-07
-2.19429e-07
6.60063e-08
-3.95939e-07
3.16472e-08
-8.00192e-07
1.51256e-08
-1.19637e-06
-3.10364e-10
-1.1766e-06
-1.62211e-08
-1.17591e-06
-3.30509e-08
-1.18755e-06
-6.04244e-09
-5.01951e-07
-4.78344e-08
1.56875e-07
1.27668e-07
-3.51822e-08
1.3342e-07
-2.28921e-07
-2.05876e-07
5.18129e-08
-3.14333e-07
3.05122e-08
-7.78892e-07
1.38896e-08
-1.17975e-06
-5.32513e-10
-1.16217e-06
-1.41713e-08
-1.16228e-06
-2.60487e-08
-1.17567e-06
4.44766e-08
-5.72474e-07
1.4618e-07
5.5172e-08
1.51845e-07
1.22003e-07
1.15778e-07
-1.46136e-07
-1.98562e-07
4.25314e-08
-2.41075e-07
3.02526e-08
-7.66608e-07
1.261e-08
-1.1621e-06
-3.96141e-09
-1.1456e-06
-1.62231e-08
-1.15001e-06
-3.43435e-08
-1.15755e-06
-1.27754e-08
-5.94043e-07
9.72161e-08
-5.48186e-08
1.40693e-07
1.08369e-07
8.42017e-08
-7.34464e-08
-1.56891e-07
2.14884e-08
-1.78365e-07
-4.31107e-09
-7.40809e-07
-2.18471e-08
-1.14457e-06
-2.81262e-08
-1.13932e-06
-4.82333e-08
-1.12991e-06
-6.38312e-08
-1.14196e-06
-3.7495e-08
-6.20378e-07
5.75018e-08
-1.49814e-07
1.03035e-07
9.51618e-08
7.82672e-08
-1.87081e-08
-1.33004e-07
4.23919e-08
-1.4249e-07
4.10731e-08
-7.39491e-07
2.34779e-08
-1.12697e-06
3.19265e-09
-1.11904e-06
-6.02695e-09
-1.12069e-06
-2.46477e-08
-1.12334e-06
-2.81042e-08
-6.16921e-07
-2.04107e-08
-1.57505e-07
6.08516e-08
2.17745e-08
5.74016e-08
2.95552e-08
-1.05664e-07
3.62443e-08
-1.21325e-07
3.22862e-08
-7.35529e-07
1.47844e-08
-1.10947e-06
-1.0597e-09
-1.1032e-06
-1.58452e-08
-1.1059e-06
-3.06033e-08
-1.10858e-06
-4.40591e-08
-6.03464e-07
-5.46625e-08
-1.46899e-07
-2.0921e-08
2.71118e-08
4.11883e-08
5.79088e-08
-6.95421e-08
3.76737e-08
-1.17813e-07
3.36112e-08
-7.31468e-07
1.78692e-08
-1.09373e-06
-6.62792e-10
-1.08466e-06
-1.49141e-08
-1.09165e-06
-3.3201e-08
-1.09029e-06
-7.7589e-08
-5.59075e-07
-9.3309e-08
-1.31177e-07
-1.22567e-07
8.33845e-09
2.42131e-08
7.31441e-08
-3.94471e-08
2.41155e-08
-1.17711e-07
-5.85687e-09
-7.01493e-07
-2.51702e-08
-1.07441e-06
-3.69791e-08
-1.07285e-06
-6.12164e-08
-1.06741e-06
-8.1022e-08
-1.07048e-06
-6.24279e-08
-5.77668e-07
-3.9541e-08
-1.54064e-07
-9.45716e-08
-6.75369e-08
2.55037e-08
7.55448e-08
-2.79034e-08
3.41673e-08
-1.26377e-07
1.70806e-08
-6.84406e-07
2.81692e-09
-1.06015e-06
-1.43996e-08
-1.05564e-06
-3.30216e-08
-1.04879e-06
-4.56962e-08
-1.05781e-06
-2.35713e-08
-5.99792e-07
1.37203e-08
-1.91356e-07
-7.00645e-08
-1.07874e-08
4.46015e-08
7.20968e-08
-4.11529e-08
5.0742e-08
-1.32516e-07
3.31855e-08
-6.66847e-07
2.19393e-08
-1.0489e-06
-1.68687e-09
-1.03201e-06
-1.80922e-08
-1.03239e-06
-2.9831e-08
-1.04607e-06
-6.63817e-08
-5.63242e-07
-9.23088e-08
-1.6543e-07
-8.44642e-08
-7.79091e-08
6.60452e-08
5.67378e-08
-5.06858e-08
6.08417e-08
-1.27314e-07
4.32731e-08
-6.4928e-07
2.78039e-08
-1.03343e-06
4.09245e-09
-1.0083e-06
-1.94937e-08
-1.0088e-06
-3.65348e-08
-1.02903e-06
-6.54396e-08
-5.34338e-07
-1.29814e-07
-1.01055e-07
-1.16532e-07
-9.77459e-08
6.15343e-08
4.67553e-08
-5.155e-08
4.70338e-08
-1.12806e-07
4.64372e-08
-6.48678e-07
2.83564e-08
-1.01535e-06
4.86561e-09
-9.84809e-07
-1.87292e-08
-9.85204e-07
-3.69372e-08
-1.01082e-06
-3.0343e-08
-5.40932e-07
-1.14167e-07
-1.72302e-08
-7.88975e-08
-1.51801e-07
6.79144e-08
4.52515e-08
-6.64101e-08
4.46897e-08
-8.95887e-08
3.85506e-08
-6.42544e-07
1.65703e-08
-9.93375e-07
-4.04914e-09
-9.6419e-07
-2.78303e-08
-9.61423e-07
-4.74013e-08
-9.91251e-07
-8.55817e-09
-5.79774e-07
-4.25307e-08
1.67425e-08
2.23939e-08
-1.43822e-07
5.49372e-08
4.47056e-09
-1.41564e-08
3.29835e-08
-6.76296e-08
4.62965e-08
-6.5585e-07
2.58881e-08
-9.72963e-07
2.87542e-09
-9.41177e-07
-1.61859e-08
-9.42362e-07
-3.74019e-08
-9.70035e-07
-4.84806e-08
-5.68694e-07
-5.70473e-08
2.53081e-08
1.03569e-07
-1.38223e-07
4.83444e-08
-5.1462e-08
7.58644e-09
1.75771e-08
-3.68736e-08
3.64381e-08
-6.74717e-07
1.71345e-08
-9.5366e-07
-1.60612e-09
-9.22437e-07
-2.33087e-08
-9.20659e-07
-4.2499e-08
-9.50845e-07
-4.79981e-08
-5.63195e-07
-1.07016e-07
8.43245e-08
1.75538e-07
-1.78987e-07
-9.40105e-09
-1.1196e-07
6.98992e-08
2.41363e-08
-7.04058e-08
4.26816e-08
-6.93261e-07
2.03809e-08
-9.31361e-07
3.75079e-10
-9.02431e-07
-1.77466e-08
-9.02538e-07
-3.94533e-08
-9.29138e-07
-4.37005e-08
-5.5895e-07
-1.04715e-07
1.45338e-07
2.61715e-07
-1.90891e-07
-8.82071e-08
-1.39542e-07
1.15789e-07
1.36253e-08
-1.7224e-07
4.22793e-08
-7.21916e-07
2.00902e-08
-9.09172e-07
2.89327e-10
-8.8263e-07
-1.96448e-08
-8.82604e-07
-4.17114e-08
-9.07072e-07
-4.97772e-08
-5.50885e-07
-1.06606e-07
2.02168e-07
3.04147e-07
-1.49037e-07
-8.16616e-09
-1.38953e-07
7.57612e-09
3.89343e-08
-2.19349e-07
4.14648e-08
-7.24448e-07
1.93062e-08
-8.87013e-07
-4.86473e-10
-8.62837e-07
-1.97807e-08
-8.63309e-07
-4.16332e-08
-8.85219e-07
-4.00196e-08
-5.52498e-07
-5.68239e-08
2.18974e-07
3.17415e-07
-7.00915e-08
7.83287e-08
-1.16206e-07
-1.01077e-07
6.21424e-08
-2.03167e-07
4.46616e-08
-7.06967e-07
2.18956e-08
-8.64247e-07
8.0026e-11
-8.41022e-07
-2.16323e-08
-8.41597e-07
-4.33365e-08
-8.63515e-07
-3.50906e-08
-5.60742e-07
-2.03572e-08
2.04242e-07
3.13226e-07
-1.61692e-08
1.00819e-07
-8.54849e-08
-1.31541e-07
6.60248e-08
-1.68374e-07
4.54253e-08
-6.86368e-07
2.23742e-08
-8.41196e-07
1.82653e-10
-8.1883e-07
-2.14812e-08
-8.19933e-07
-4.35797e-08
-8.41416e-07
-3.55016e-08
-5.6882e-07
-1.24158e-08
1.81156e-07
3.26989e-07
-2.61782e-08
1.03332e-07
-4.24777e-08
-1.46339e-07
6.60711e-08
-1.3111e-07
4.77853e-08
-6.68083e-07
2.46485e-08
-8.1806e-07
2.81591e-10
-7.94463e-07
-2.44992e-08
-7.95152e-07
-4.72558e-08
-8.1866e-07
-5.69558e-08
-5.59121e-07
-7.3333e-08
1.97533e-07
3.467e-07
-9.30436e-08
8.82783e-08
-5.72055e-09
-1.25035e-07
6.3608e-08
-1.06436e-07
4.69745e-08
-6.51448e-07
2.29433e-08
-7.94028e-07
-9.3262e-10
-7.70587e-07
-2.53064e-08
-7.70779e-07
-4.93724e-08
-7.94594e-07
-6.42023e-08
-5.44291e-07
-9.36901e-08
2.27022e-07
3.65863e-07
-1.12852e-07
7.20758e-08
1.01405e-08
-8.7937e-08
6.34305e-08
-9.77955e-08
4.90337e-08
-6.37054e-07
2.43319e-08
-7.69326e-07
-1.31175e-09
-7.44944e-07
-2.78355e-08
-7.44255e-07
-5.32921e-08
-7.69137e-07
-6.89964e-08
-5.28586e-07
-9.8832e-08
2.56859e-07
3.85741e-07
-1.18709e-07
7.25907e-08
1.00078e-08
-7.24573e-08
6.67765e-08
-9.19744e-08
4.97743e-08
-6.20049e-07
2.3434e-08
-7.42985e-07
-6.44876e-10
-7.20865e-07
-2.56845e-08
-7.19215e-07
-5.3346e-08
-7.41476e-07
-6.65376e-08
-5.15393e-07
-8.26497e-08
2.72973e-07
4.07831e-07
-1.04739e-07
8.5087e-08
9.83917e-09
-8.49184e-08
7.32093e-08
-8.00954e-08
5.32196e-08
-6.00059e-07
2.60814e-08
-7.15847e-07
1.36032e-09
-6.96144e-07
-2.63965e-08
-6.91458e-07
-5.5133e-08
-7.12739e-07
-6.52702e-08
-5.05255e-07
-8.65255e-08
2.94229e-07
4.23488e-07
-1.02182e-07
9.83428e-08
2.04807e-08
-1.08983e-07
7.78381e-08
-5.95856e-08
5.43264e-08
-5.76545e-07
2.56822e-08
-6.87202e-07
1.41517e-09
-6.71877e-07
-2.19447e-08
-6.68098e-07
-5.21456e-08
-6.82538e-07
-6.89145e-08
-4.88486e-07
-1.06255e-07
3.3157e-07
4.45307e-07
-1.28074e-07
6.87163e-08
3.51848e-08
-8.3419e-08
7.46626e-08
-6.55268e-08
5.61057e-08
-5.57986e-07
2.768e-08
-6.58776e-07
-4.48983e-09
-6.39707e-07
-2.57934e-08
-6.46795e-07
-5.3242e-08
-6.55089e-07
-7.41828e-08
-4.67544e-07
-8.01821e-08
3.3757e-07
4.76497e-07
-1.11372e-07
3.32867e-09
1.84798e-08
1.33779e-08
6.69332e-08
-1.29129e-07
4.69772e-08
-5.38031e-07
1.51542e-08
-6.26953e-07
-1.15713e-10
-6.24437e-07
-3.26193e-08
-6.14291e-07
-6.14869e-08
-6.26222e-07
-6.03376e-08
-4.68693e-07
-7.92277e-08
3.5646e-07
4.99165e-07
-1.01895e-07
8.14666e-10
-5.37273e-08
7.13943e-08
9.22235e-08
-2.2053e-07
9.33567e-08
-5.39161e-07
6.44913e-08
-5.98087e-07
3.15987e-08
-5.91544e-07
2.16889e-09
-5.84862e-07
-2.86483e-08
-5.95405e-07
-2.84409e-08
-4.68901e-07
-2.51892e-08
3.53208e-07
5.14375e-07
-4.03995e-08
-1.02397e-08
-1.04871e-07
6.13844e-08
1.91291e-08
-2.49901e-07
4.54936e-08
-5.65525e-07
1.11313e-08
-5.63725e-07
-3.04902e-08
-5.49923e-07
-4.26271e-08
-5.72725e-07
-7.39597e-08
-5.64072e-07
-2.77159e-08
-5.15145e-07
4.67531e-08
2.78739e-07
5.28641e-07
3.24861e-08
9.99302e-08
-1.07446e-07
-9.73546e-08
9.98873e-08
-2.49857e-07
3.99178e-08
-5.05556e-07
-4.30966e-09
-5.19497e-07
-3.07592e-08
-5.23473e-07
-7.8299e-08
-5.25185e-07
-1.05525e-07
-5.36846e-07
-8.56817e-08
-5.34988e-07
1.05616e-07
8.74401e-08
5.04257e-07
1.3e-07
1.43319e-07
-3.88225e-08
-2.11941e-07
8.86055e-08
-1.95139e-07
7.02999e-08
-4.8725e-07
3.70759e-08
-4.86273e-07
5.58341e-09
-4.91981e-07
-3.10508e-08
-4.88551e-07
-7.73128e-08
-4.90584e-07
-1.30823e-07
-4.81478e-07
7.70907e-08
-1.20474e-07
4.42872e-07
1.38475e-07
1.49411e-07
-1.64134e-09
-1.86591e-07
1.17182e-07
-1.62905e-07
6.47686e-08
-4.34833e-07
2.20672e-08
-4.43572e-07
-1.91069e-08
-4.50807e-07
-5.78323e-08
-4.49825e-07
-9.42841e-08
-4.54132e-07
-1.37528e-07
-4.38235e-07
-3.72858e-08
-2.20717e-07
3.50877e-07
5.47097e-08
1.37779e-07
1.98786e-08
-1.59298e-07
1.70512e-07
-1.9565e-07
1.20049e-07
-3.84371e-07
7.8307e-08
-4.0183e-07
3.60743e-08
-4.08574e-07
-1.49349e-09
-4.12257e-07
-5.25872e-08
-4.03038e-07
-1.01827e-07
-3.88995e-07
-8.5798e-08
-2.36745e-07
2.66598e-07
-1.51869e-09
6.09029e-08
1.53363e-08
-5.63579e-08
1.27894e-07
-2.62631e-07
8.58267e-08
-3.42304e-07
4.31601e-08
-3.59164e-07
-6.63341e-10
-3.64751e-07
-4.88334e-08
-3.64087e-07
-9.47456e-08
-3.57126e-07
-1.41066e-07
-3.42674e-07
-6.40262e-08
-3.13785e-07
9.33725e-08
1.092e-07
1.25249e-07
-5.55151e-08
-5.43979e-08
1.43861e-07
-2.81236e-07
9.92493e-08
-2.97693e-07
4.95557e-08
-3.0947e-07
-2.67027e-09
-3.12525e-07
-5.25902e-08
-3.14167e-07