/*--------------------------------*- C++ -*----------------------------------*\
  =========                 |
  \\      /  F ield         | OpenFOAM: The Open Source CFD Toolbox
   \\    /   O peration     | Website:  https://openfoam.org
    \\  /    A nd           | Version:  8
     \\/     M anipulation  |
\*---------------------------------------------------------------------------*/
FoamFile
{
    version     2.0;
    format      ascii;
    class       surfaceScalarField;
    location    "3.1";
    object      alphaPhi0.water;
}
// * * * * * * * * * * * * * * * * * * * * * * * * * * * * * * * * * * * * * //

dimensions      [0 3 -1 0 0 0 0];

internalField   nonuniform List<scalar> 
18095
(
1.95739e-08
-1.71957e-07
1.52383e-07
2.31086e-08
-1.98217e-07
1.94683e-07
1.94536e-08
-2.05689e-07
2.09344e-07
9.64362e-09
-2.10169e-07
2.19979e-07
-1.6977e-09
-2.13289e-07
2.24631e-07
-1.23945e-08
-2.13626e-07
2.24323e-07
-2.04279e-08
-2.11113e-07
2.19146e-07
-2.32268e-08
-2.06033e-07
2.08832e-07
-1.96038e-08
-1.98076e-07
1.94453e-07
-1.71831e-07
1.52227e-07
1.55549e-08
-1.87512e-07
1.57197e-08
-1.98382e-07
1.24418e-08
-2.02411e-07
7.39064e-09
-2.05118e-07
9.27624e-10
-2.06826e-07
-5.90023e-09
-2.06798e-07
-1.17406e-08
-2.05272e-07
-1.5819e-08
-2.01955e-07
-1.56125e-08
-1.98283e-07
-1.87443e-07
6.85343e-09
-1.94365e-07
8.26856e-09
-1.99797e-07
6.8495e-09
-2.00992e-07
3.70207e-09
-2.01971e-07
-1.97425e-10
-2.02927e-07
-4.29464e-09
-2.02701e-07
-7.42763e-09
-2.0214e-07
-8.37855e-09
-2.01004e-07
-6.88422e-09
-1.99777e-07
-1.94327e-07
4.55275e-09
-1.98918e-07
4.70664e-09
-1.99951e-07
3.71505e-09
-2e-07
2.14296e-09
-2.00398e-07
1.42694e-11
-2.00798e-07
-1.9747e-09
-2.00712e-07
-3.66796e-09
-2.00446e-07
-4.7364e-09
-1.99935e-07
-4.58286e-09
-1.99931e-07
-1.9891e-07
1.08205e-09
1.13105e-09
1.13106e-09
7.32637e-10
-6.55054e-11
-7.77469e-10
-1.22371e-09
-1.15906e-09
-1.08986e-09
-2.675e-08
-1.96971e-07
2.23721e-07
-2.92052e-08
-1.98975e-07
2.0143e-07
-2.45804e-08
-2.01471e-07
1.96847e-07
-1.42747e-08
-2.00997e-07
1.90692e-07
-1.29593e-09
-2.01563e-07
1.88584e-07
1.21356e-08
-2.01666e-07
1.88234e-07
2.33214e-08
-2.01067e-07
1.89882e-07
2.86224e-08
-2.01548e-07
1.96247e-07
2.63386e-08
-1.98912e-07
2.01196e-07
-1.96829e-07
2.23168e-07
-9.84964e-09
-1.87121e-07
-1.54827e-08
-1.93342e-07
-1.44012e-08
-2.02553e-07
-7.28569e-09
-2.08113e-07
-6.39388e-10
-2.08209e-07
6.36225e-09
-2.08667e-07
1.39905e-08
-2.08696e-07
1.52756e-08
-2.02833e-07
9.76137e-09
-1.93398e-07
-1.87068e-07
-1.08727e-08
-1.76249e-07
-8.75838e-09
-1.95456e-07
-6.01778e-09
-2.05293e-07
-3.33145e-09
-2.10799e-07
1.1269e-09
-2.12668e-07
5.15011e-09
-2.1269e-07
6.51046e-09
-2.10056e-07
8.6919e-09
-2.05015e-07
1.08039e-08
-1.9551e-07
-1.76264e-07
-6.77461e-09
-1.69474e-07
-8.86415e-09
-1.93367e-07
-8.83097e-09
-2.05327e-07
-4.76216e-09
-2.14868e-07
-8.62178e-10
-2.16568e-07
3.12879e-09
-2.16681e-07
8.29061e-09
-2.15218e-07
9.03204e-09
-2.05756e-07
6.87272e-09
-1.93351e-07
-1.69391e-07
-1.70911e-08
-1.57751e-08
-1.17581e-08
-6.64704e-09
1.416e-09
9.05745e-09
1.29858e-08
1.60616e-08
1.71642e-08
3.08798e-08
-1.59515e-07
1.28635e-07
3.60035e-08
-2.00498e-07
1.95374e-07
2.94998e-08
-2.1129e-07
2.17793e-07
1.62324e-08
-2.15729e-07
2.28996e-07
-3.72211e-11
-2.17322e-07
2.33592e-07
-1.61409e-08
-2.17072e-07
2.33176e-07
-3.00699e-08
-2.15741e-07
2.2967e-07
-3.85627e-08
-2.09786e-07
2.18279e-07
-3.35337e-08
-1.97293e-07
1.92264e-07
-1.55754e-07
1.2222e-07
1.57323e-08
-1.75247e-07
1.78451e-08
-2.0261e-07
1.46395e-08
-2.08084e-07
8.52173e-09
-2.09611e-07
-2.73633e-10
-2.08527e-07
-9.45628e-09
-2.0789e-07
-1.72495e-08
-2.07948e-07
-2.0873e-08
-2.06163e-07
-1.77455e-08
-2.00421e-07
-1.735e-07
9.79049e-09
-1.85038e-07
8.46144e-09
-2.01281e-07
6.27776e-09
-2.059e-07
1.12903e-09
-2.04463e-07
-2.65546e-09
-2.04742e-07
-6.13534e-09
-2.0441e-07
-9.33582e-09
-2.04747e-07
-1.04892e-08
-2.05009e-07
-1.05076e-08
-2.00402e-07
-1.84007e-07
6.97997e-09
-1.92018e-07
5.44945e-09
-1.99751e-07
5.78955e-09
-2.0624e-07
1.0841e-09
-1.99757e-07
-4.64393e-10
-2.03194e-07
-1.92824e-09
-2.02946e-07
-6.70014e-09
-1.99975e-07
-6.29441e-09
-2.05415e-07
-7.39895e-09
-1.99298e-07
-1.91406e-07
3.17033e-08
3.33825e-08
2.39886e-08
1.4923e-08
3.13285e-10
-1.43986e-08
-2.44921e-08
-3.36599e-08
-3.17615e-08
3.33183e-08
1.69118e-08
-5.02312e-08
1.87437e-08
1.45696e-08
1.01319e-08
8.60414e-09
6.69293e-09
3.38617e-09
8.15587e-09
-1.57812e-09
1.88717e-08
-1.07161e-08
4.38393e-08
-2.49663e-08
8.51906e-08
-4.13507e-08
1.31964e-07
-4.67725e-08
-4.69362e-08
1.78901e-07
4.68531e-08
3.48388e-08
-6.47808e-08
3.05274e-08
3.08916e-08
1.71774e-08
2.19556e-08
1.71924e-08
3.27974e-09
2.76246e-08
-1.21155e-08
4.18361e-08
-2.50345e-08
6.2421e-08
-4.55498e-08
1.00263e-07
-7.91916e-08
1.47373e-07
-9.38817e-08
-9.2606e-08
1.92978e-07
1.36777e-07
3.55423e-08
-1.3748e-07
1.37185e-07
3.04829e-08
1.28965e-07
1.76306e-08
1.33633e-07
-2.54031e-09
1.55701e-07
-2.40856e-08
1.69558e-07
-2.71089e-08
1.79046e-07
-4.26916e-08
2.03946e-07
-1.04084e-07
2.29998e-07
-1.20011e-07
-9.52895e-08
2.35305e-07
2.30493e-07
2.86165e-08
-2.23567e-07
1.99262e-07
1.34782e-08
2.23077e-07
-9.55398e-09
2.477e-07
-3.09323e-08
2.5963e-07
-4.01125e-08
2.71748e-07
-4.36452e-08
2.77075e-07
-5.24359e-08
3.12454e-07
-8.73004e-08
2.72047e-07
-8.19127e-08
-5.45339e-08
2.08572e-07
3.04258e-07
3.53567e-08
-3.11e-07
3.01232e-07
1.48064e-08
3.06728e-07
-1.39646e-08
3.08487e-07
-3.39692e-08
3.14624e-07
-4.7137e-08
2.79723e-07
-5.34965e-08
2.73841e-07
-5.87936e-08
2.37069e-07
-6.24421e-08
2.12861e-07
-5.99694e-08
-4.96828e-08
2.05748e-07
3.77011e-07
4.85996e-08
-3.88123e-07
3.55741e-07
3.54763e-08
3.21528e-07
1.94634e-08
2.94345e-07
-7.8971e-09
2.77227e-07
-3.14797e-08
2.71991e-07
-4.92343e-08
2.72449e-07
-5.9705e-08
2.07218e-07
-5.64187e-08
1.93637e-07
-4.86504e-08
-2.57805e-08
1.67475e-07
5.02662e-07
4.45291e-08
-5.03582e-07
4.80522e-07
5.51347e-08
4.48877e-07
6.45994e-08
3.81551e-07
5.78813e-08
3.12243e-07
3.70596e-08
2.77933e-07
-1.53765e-08
2.63112e-07
-4.51234e-08
1.89574e-07
-3.64644e-08
1.66702e-07
-2.92973e-08
1.14456e-08
1.52273e-07
5.6534e-07
6.07187e-08
-5.81442e-07
5.36216e-07
8.43411e-08
4.91077e-07
1.09775e-07
3.53672e-07
1.00465e-07
3.06896e-07
8.0453e-08
3.17719e-07
2.66417e-08
2.75998e-07
-3.41247e-09
2.0248e-07
-5.26433e-09
1.67174e-07
4.81761e-10
5.24865e-08
1.66525e-07
4.91771e-07
1.14501e-07
-5.45478e-07
4.30133e-07
1.46066e-07
3.07944e-07
1.40038e-07
2.75084e-07
1.29903e-07
2.72047e-07
8.00686e-08
3.28322e-07
2.9916e-08
3.2816e-07
2.38092e-08
2.57435e-07
3.60515e-08
1.94959e-07
6.49575e-08
1.22612e-07
1.3985e-07
2.1557e-07
1.57607e-07
-3.19528e-07
1.82402e-07
1.43477e-07
1.96106e-07
1.20607e-07
2.13732e-07
1.0772e-07
2.90474e-07
6.65087e-08
3.35844e-07
1.22962e-08
3.30068e-07
2.17019e-08
2.65531e-07
8.69575e-08
1.27332e-07
2.03273e-07
2.11115e-07
3.88135e-08
5.91959e-08
1.18371e-07
-2.68615e-08
7.78109e-08
1.17844e-07
1.30371e-07
1.09785e-07
1.7876e-07
8.95051e-08
2.12842e-07
3.15783e-08
2.65884e-07
-3.94842e-08
2.83975e-07
-3.17316e-09
1.19022e-07
1.18444e-07
1.08191e-08
2.5984e-07
2.37725e-07
-1.57966e-08
-2.06699e-08
8.7339e-08
5.90507e-08
4.45224e-08
7.97282e-08
7.54946e-08
8.15492e-08
5.24822e-08
1.14145e-07
6.21928e-08
1.3532e-08
5.69069e-08
-4.49698e-08
1.12017e-08
4.82097e-09
1.39609e-08
9.42347e-08
3.50605e-08
1.27212e-07
1.08989e-07
3.5492e-08
-5.165e-08
3.78188e-08
1.01725e-07
-1.27838e-08
4.17964e-08
-1.68676e-08
8.21912e-08
-5.64823e-08
8.07402e-08
-1.03513e-07
4.46808e-08
-1.00525e-07
-3.07392e-09
-5.02985e-08
1.4694e-08
-1.95498e-08
5.38524e-08
2.08375e-08
7.49319e-08
6.40837e-08
4.63409e-08
-1.58532e-07
1.039e-08
1.8617e-07
-1.39911e-07
2.79149e-08
-1.38897e-07
7.83361e-08
-8.22194e-08
5.50318e-08
-1.2591e-07
4.81892e-08
-1.94104e-07
3.36073e-08
-1.20707e-07
1.82407e-08
-4.46273e-08
4.91977e-08
1.79653e-08
5.90259e-08
4.18654e-08
4.40286e-08
-2.41372e-07
-1.84851e-08
2.70444e-07
-2.21574e-07
8.4512e-09
-1.52099e-07
5.53094e-08
-7.59841e-08
6.19377e-08
-1.37086e-07
5.87566e-08
-1.28084e-07
-1.78138e-09
-4.17503e-08
-3.92028e-08
6.01064e-08
-2.92469e-08
1.39733e-07
-9.04878e-09
-5.39887e-09
1.94276e-07
-4.61703e-07
-2.55165e-08
4.76882e-07
-3.81195e-07
-7.6191e-09
-1.95946e-07
5.37639e-09
-1.54105e-07
1.07683e-08
-1.04778e-07
7.6061e-11
-3.22068e-08
-8.51438e-08
4.12931e-08
-1.30335e-07
1.59955e-07
-9.95069e-08
3.00219e-07
-7.42826e-08
-4.45892e-08
3.44896e-07
-5.00894e-07
-7.21185e-08
5.34735e-07
-4.06371e-07
-1.14347e-07
-3.35561e-07
-1.09076e-07
-3.52608e-07
-9.78451e-08
-2.64049e-07
-1.13158e-07
-1.56881e-07
-1.69246e-07
-6.18144e-08
-2.13009e-07
5.44515e-08
-2.43526e-07
1.90285e-07
-2.42973e-07
-1.64396e-07
3.34229e-07
-6.00347e-07
-1.30528e-07
6.46738e-07
-6.86892e-07
-1.45523e-07
-6.73831e-07
-9.61435e-08
-6.02054e-07
-1.41719e-07
-5.15677e-07
-1.83062e-07
-4.44002e-07
-2.67003e-07
-3.34457e-07
-4.09059e-07
-1.97005e-07
-5.03945e-07
1.83061e-08
-5.83259e-07
-3.90701e-07
2.56443e-07
-6.86997e-07
-6.7851e-08
8.2237e-07
-4.77789e-07
-6.39526e-08
-3.46759e-07
-6.72865e-08
-4.72395e-07
-8.50016e-08
-5.40915e-07
-1.00809e-07
-4.78233e-07
-1.34093e-07
-4.25728e-07
-2.15326e-07
-3.33332e-07
-5.17882e-07
-1.14865e-07
-6.33102e-07
-3.92571e-07
8.16128e-08
-1.3483e-07
-1.11695e-07
2.34007e-07
-1.09973e-07
-9.2958e-08
-9.35392e-08
-8.41014e-08
-8.69138e-08
-9.40876e-08
-7.93268e-08
-1.12865e-07
-8.45671e-08
-1.31117e-07
-1.31844e-07
-1.77594e-07
-1.34707e-07
-2.35848e-07
-1.18666e-07
-2.93283e-07
-3.34778e-07
-1.34298e-08
2.39471e-07
-2.00993e-07
-2.10067e-07
1.31342e-07
-2.31631e-07
9.22702e-08
-2.11694e-07
1.30871e-07
-1.63142e-07
1.40324e-07
-1.66685e-07
1.31971e-07
-1.37959e-07
9.15104e-08
-1.4359e-07
4.4974e-08
-1.9213e-07
3.02563e-08
-2.847e-07
-5.3607e-07
5.96049e-08
4.40046e-07
-2.16702e-07
-4.24397e-07
4.65079e-07
-2.56544e-07
4.63174e-07
-2.85967e-07
3.91991e-07
-2.90569e-07
3.24295e-07
-3.05091e-07
1.61662e-07
-3.38085e-07
1.39256e-07
-1.87306e-07
1.09558e-07
-1.68936e-07
1.03604e-07
-2.62179e-07
-5.68758e-07
1.53022e-07
5.93676e-07
-2.22461e-07
-5.87534e-07
5.74758e-07
-2.37524e-07
5.39759e-07
-2.50938e-07
5.142e-07
-2.6497e-07
4.97867e-07
-2.8869e-07
4.94738e-07
-3.34919e-07
2.09825e-07
-2.0791e-07
1.9441e-07
-1.63326e-07
1.89703e-07
-2.36099e-07
-5.51683e-07
1.98737e-07
6.12911e-07
-2.43591e-07
-5.89778e-07
6.20595e-07
-2.38901e-07
6.1743e-07
-2.47634e-07
6.06635e-07
-2.54107e-07
5.86306e-07
-2.68279e-07
5.4353e-07
-2.92075e-07
2.60886e-07
-1.9455e-07
2.32981e-07
-1.59444e-07
2.92445e-07
-2.80401e-07
-5.75274e-07
3.79933e-07
5.11774e-07
-2.7135e-07
-4.87523e-07
5.39985e-07
-2.69121e-07
5.81322e-07
-2.74681e-07
6.01242e-07
-2.73853e-07
6.10512e-07
-2.77464e-07
4.17226e-07
-2.93854e-07
1.87737e-07
-1.68167e-07
3.29313e-07
-3.38963e-07
4.73211e-07
-4.91891e-07
-5.10317e-07
3.56767e-07
3.87509e-07
-3.384e-07
-3.2271e-07
4.59905e-07
-3.43526e-07
5.31484e-07
-3.42418e-07
5.82943e-07
-3.25253e-07
6.42707e-07
-3.37103e-07
4.67135e-07
-3.67529e-07
4.92274e-07
-3.79351e-07
6.08612e-07
-4.4748e-07
5.02718e-07
-4.94219e-07
-4.97171e-07
3.40593e-07
3.27596e-07
-4.37312e-07
-2.33764e-07
4.2163e-07
-4.42742e-07
5.22039e-07
-4.42712e-07
6.23847e-07
-4.26981e-07
7.05801e-07
-4.18998e-07
6.80306e-07
-3.94925e-07
7.06684e-07
-4.05261e-07
7.05173e-07
-4.45531e-07
5.66837e-07
-4.93939e-07
-4.14855e-07
4.43218e-07
2.92383e-07
-5.23231e-07
-2.0636e-07
4.02232e-07
-5.52488e-07
5.25837e-07
-5.66201e-07
6.38104e-07
-5.3914e-07
6.7092e-07
-4.51666e-07
6.86148e-07
-4.09795e-07
6.96136e-07
-4.14787e-07
7.15252e-07
-4.64243e-07
5.76171e-07
-4.55767e-07
-3.51385e-07
4.80035e-07
2.96953e-07
-6.17481e-07
-2.02667e-07
4.2399e-07
-6.7942e-07
5.32631e-07
-6.74737e-07
5.81951e-07
-5.88371e-07
6.03583e-07
-4.50406e-07
6.16183e-07
-4.05576e-07
6.28661e-07
-4.26789e-07
6.12569e-07
-4.47698e-07
4.36748e-07
-3.62698e-07
-2.40038e-07
2.97296e-07
2.83478e-07
-7.43581e-07
-1.57276e-07
4.1302e-07
-8.0878e-07
4.98852e-07
-7.60481e-07
5.08666e-07
-5.92313e-07
4.88732e-07
-4.38607e-07
4.74729e-07
-3.89803e-07
4.45233e-07
-3.89482e-07
3.23964e-07
-3.25929e-07
1.74235e-07
-2.34007e-07
-1.75009e-07
8.31587e-08
1.05403e-07
-8.85872e-07
3.79849e-08
2.24134e-07
-9.18801e-07
2.79179e-07
-8.1559e-07
2.18228e-07
-5.39498e-07
1.59133e-07
-3.87652e-07
6.80915e-08
-3.06447e-07
-3.40769e-08
-2.74222e-07
-1.0351e-07
-2.16462e-07
-1.10576e-07
-1.96295e-07
-1.59297e-07
-4.67492e-08
-3.27273e-07
-8.28917e-07
3.24334e-07
-2.80473e-07
-9.93351e-07
-2.80797e-07
-8.31607e-07
-3.34791e-07
-5.03757e-07
-3.84009e-07
-3.67621e-07
-3.89442e-07
-2.96769e-07
-3.48565e-07
-2.49507e-07
-2.61422e-07
-2.16838e-07
-2.26995e-07
-2.38939e-07
-2.53879e-07
-1.57959e-07
-6.27421e-07
-3.70022e-07
2.07952e-07
-6.97673e-07
-9.22775e-07
-6.02972e-07
-9.25984e-07
-4.99916e-07
-6.06454e-07
-4.70892e-07
-3.96236e-07
-4.4131e-07
-3.25857e-07
-3.31702e-07
-2.95824e-07
-3.11743e-07
-2.48755e-07
-3.15195e-07
-2.44208e-07
-3.28837e-07
-3.48112e-07
-2.2881e-07
-4.32161e-08
4.10887e-08
-7.51182e-07
-2.67306e-07
-7.45611e-07
-9.31722e-07
-4.78822e-07
-8.72836e-07
-3.57176e-07
-5.17387e-07
-3.39234e-07
-3.43224e-07
-3.39348e-07
-2.94905e-07
-3.15171e-07
-2.58088e-07
-3.74679e-07
-2.26297e-07
-3.17281e-07
-4.09224e-07
-5.21527e-08
-7.50381e-09
1.71863e-08
-2.46402e-07
-4.83092e-08
-7.51639e-07
-4.25005e-07
-6.14268e-07
-1.0103e-06
-3.23107e-07
-8.07971e-07
-2.79517e-07
-3.8601e-07
-3.00828e-07
-2.72764e-07
-3.4085e-07
-2.19135e-07
-4.24922e-07
-1.8095e-07
-2.44314e-07
-5.51082e-07
-1.19393e-08
4.00328e-10
4.32569e-09
-4.36516e-08
-1.5851e-08
-3.59868e-07
-1.24599e-07
-5.75896e-07
-8.50675e-07
-4.08175e-07
-9.98692e-07
-2.46973e-07
-5.46382e-07
-2.73812e-07
-2.45095e-07
-3.22424e-07
-1.70118e-07
-3.93457e-07
-1.1238e-07
-1.2995e-07
-5.49352e-07
-2.82006e-09
2.57535e-09
7.4386e-10
-1.03758e-08
-8.09571e-09
-8.33712e-08
-3.91753e-08
-2.88968e-07
-6.09361e-07
-3.46808e-07
-9.92025e-07
-2.6139e-07
-7.15589e-07
-3.2097e-07
-1.8511e-07
-3.88273e-07
-1.02821e-07
-4.466e-07
-3.30454e-08
-3.99382e-08
-5.76741e-07
-9.73204e-10
4.85753e-09
-1.36695e-09
-4.7162e-09
-4.3448e-09
-2.3543e-08
-1.54432e-08
-2.06086e-07
-3.76604e-07
-2.49734e-07
-9.86143e-07
-2.3928e-07
-7.99875e-07
-3.74459e-07
-1.06234e-07
-4.50384e-07
-2.68884e-08
-5.32469e-07
4.90451e-08
4.10696e-08
-6.19076e-07
-8.48945e-11
4.24635e-09
6.32234e-10
-4.94194e-10
-3.99315e-09
-7.77638e-09
-8.15296e-09
-1.77234e-07
-2.01556e-07
-1.82218e-07
-9.8085e-07
-1.42161e-07
-7.98486e-07
-3.38273e-07
-2.90378e-09
-4.26596e-07
6.14419e-08
-5.40525e-07
1.62985e-07
1.73565e-07
-6.73015e-07
8.7371e-10
2.15954e-09
1.20741e-09
2.07531e-09
-5.26655e-09
4.10223e-09
-1.03256e-08
-6.83559e-08
-1.66582e-07
-5.10245e-08
-9.89914e-07
-8.30533e-08
-7.31857e-07
-3.68877e-07
1.53078e-07
-3.9671e-07
8.92838e-08
-3.60615e-07
1.26896e-07
2.26969e-07
-4.14044e-07
0
3.75187e-10
1.77203e-09
6.54744e-10
-6.77137e-09
-6.21341e-10
-6.92984e-08
2.12269e-08
-5.54398e-07
9.26019e-09
-9.70306e-07
4.45164e-09
-6.45176e-07
-2.57016e-08
5.31408e-08
-2.40023e-07
4.93498e-08
-2.57526e-07
7.63049e-08
1.73629e-07
-2.02506e-07
-1.50674e-09
7.19546e-10
2.81734e-09
-3.92131e-09
-2.43788e-09
-1.15612e-07
-2.47471e-07
-2.22912e-08
-8.40327e-07
-1.72748e-08
-9.67846e-07
-3.50206e-08
-5.62106e-07
3.93379e-09
3.16567e-08
1.49845e-08
3.66785e-08
3.9378e-08
1.08301e-08
1.03251e-07
5.01369e-08
4.73614e-10
6.41154e-09
-2.74202e-09
-1.54789e-08
9.74619e-09
-1.61873e-07
-2.31851e-07
-1.35713e-07
-8.58721e-07
-1.21645e-07
-9.73557e-07
-3.19109e-08
-5.70286e-07
-7.36295e-09
4.07517e-09
3.83656e-09
2.57045e-08
1.46579e-08
1.74291e-08
7.96808e-09
5.63692e-11
-5.95511e-10
4.01729e-08
-8.89426e-09
-4.29571e-09
3.42858e-08
-4.91708e-08
-1.19719e-07
-1.86757e-07
-5.31822e-07
-1.59761e-07
-9.9291e-07
-5.52455e-08
-7.10261e-07
-4.84389e-08
1.19973e-08
-3.14935e-08
7.79773e-09
-1.44585e-08
6.85025e-09
7.34857e-09
-1.57404e-08
-6.19311e-09
4.79961e-08
9.22754e-09
-4.84695e-09
1.77118e-08
-7.17764e-09
-4.06421e-08
-1.73138e-07
-3.08975e-07
-1.47805e-07
-1.01058e-06
-3.57754e-08
-8.25748e-07
-2.71909e-08
1.63904e-08
-1.61627e-08
1.12609e-08
-5.91715e-09
5.61417e-09
4.87591e-09
-5.40244e-09
6.0827e-09
4.18891e-09
3.60446e-09
1.23273e-08
1.47482e-08
-2.43656e-10
1.3535e-09
-1.15833e-07
-1.69735e-07
-1.13402e-07
-1.00536e-06
-4.02092e-08
-8.81037e-07
-2.28559e-08
2.09438e-08
-4.15581e-09
1.45459e-08
-6.36915e-09
5.86956e-09
8.63898e-09
-1.2191e-08
2.98291e-09
1.08283e-09
-1.88343e-09
1.15068e-08
1.16215e-08
0
8.72914e-09
-7.6161e-08
-7.29571e-08
-8.66099e-08
-9.87251e-07
-2.07271e-08
-9.24719e-07
7.99008e-10
1.26852e-09
-2.86237e-09
3.48521e-08
-2.35743e-09
9.44152e-09
1.11215e-08
-8.57958e-09
1.15144e-10
3.99175e-09
-5.1148e-11
3.98752e-09
1.62993e-09
0
5.02283e-10
-7.98195e-08
-1.47884e-09
-7.61462e-08
-9.88849e-07
-3.58813e-08
-9.41587e-07
0
-5.93711e-09
1.79773e-08
3.37505e-08
2.4269e-09
2.18333e-08
1.03363e-08
0
-1.14387e-09
6.1491e-10
3.74929e-09
-2.96876e-10
9.19023e-11
1.77801e-10
-7.04976e-13
2.98204e-09
-2.90848e-10
-8.84763e-09
-9.56844e-07
-3.92278e-09
-9.46464e-07
0
-8.31664e-11
2.60884e-08
1.10398e-09
1.55443e-08
3.87705e-09
8.65647e-09
2.02659e-09
-1.3629e-10
2.57977e-13
5.91156e-10
-3.8668e-11
-3.40305e-11
1.19999e-11
-7.96836e-11
5.73407e-10
-1.72649e-10
1.5164e-09
-9.49066e-07
-4.76941e-12
-9.49475e-07
7.23845e-13
-1.18919e-10
1.02353e-09
5.09196e-11
2.6711e-09
0
0
6.01998e-09
-1.03922e-10
-8.53857e-11
9.50588e-11
-2.22414e-11
-4.33187e-10
8.18417e-12
-1.39546e-10
5.89085e-11
-2.29774e-10
-2.06519e-09
-9.69335e-07
-1.07255e-10
-9.66389e-07
-2.75365e-11
-2.2731e-10
5.04371e-12
-2.71074e-11
2.26411e-10
7.19871e-12
0
1.20776e-09
2.41909e-11
-4.2172e-10
7.46772e-12
5.01246e-11
-4.34282e-10
7.3347e-12
-1.46547e-10
2.19196e-10
-4.84342e-10
-2.09326e-09
-9.87772e-07
-5.50766e-10
-9.87365e-07
-2.50947e-11
-8.08203e-10
-1.09286e-10
-1.03476e-11
-1.59502e-10
9.3515e-11
-6.89967e-11
-5.05933e-11
7.96171e-11
-4.75368e-10
3.4335e-12
4.42817e-11
-3.75261e-10
4.85584e-12
-1.81179e-11
6.17268e-10
-1.38791e-09
-4.19456e-09
-9.99162e-07
-2.36237e-09
-9.95346e-07
5.69927e-12
-3.22529e-09
1.86044e-11
-5.88111e-11
3.60374e-10
1.14699e-11
8.87561e-11
2.37971e-10
-2.04355e-10
-1.23884e-10
1.07067e-10
-2.03678e-11
-1.55861e-10
-2.36022e-11
-1.56685e-11
3.3821e-09
-5.18307e-09
1.93534e-10
-1.00449e-06
-3.20473e-09
-9.95737e-07
8.0409e-12
-9.80259e-09
2.52339e-12
-6.56703e-11
2.06269e-11
-6.74611e-12
1.71631e-12
9.57907e-11
-2.02531e-11
-6.76761e-12
8.1956e-12
0
-1.14973e-11
-3.4287e-12
-1.23669e-11
3.40074e-09
-1.37128e-08
-1.3043e-09
-1.00559e-06
-3.69999e-09
-9.97484e-07
0
-1.75166e-08
3.35623e-12
-9.08217e-10
6.61985e-12
-1.00089e-11
-1.19158e-12
1.00417e-11
-2.51167e-12
-7.84422e-12
3.36449e-12
-3.85432e-13
-1.37611e-11
3.91852e-13
-1.32713e-11
3.2189e-09
-1.88778e-08
-1.68012e-10
-1.00522e-06
-3.82875e-09
-9.95389e-07
-2.64639e-10
-2.22112e-08
2.58834e-12
-8.04613e-09
9.74503e-13
-1.16789e-11
-2.43715e-12
2.16982e-12
-9.86631e-14
-8.6209e-12
6.54719e-13
1.00657e-12
-1.50442e-11
1.27826e-12
-1.36729e-11
3.26462e-09
-2.31797e-08
2.67008e-09
-9.96301e-07
-2.94978e-09
-9.92588e-07
-6.50979e-10
-2.55927e-08
-2.20118e-10
-1.16319e-08
-1.48018e-12
-2.30367e-10
-3.80443e-12
-2.27594e-13
7.66451e-14
-7.43252e-12
-3.71712e-12
6.38043e-12
-1.90947e-11
6.15237e-12
-1.36228e-11
7.16933e-09
-2.53167e-08
1.57659e-08
-9.8533e-07
2.20579e-09
-9.84415e-07
0
-2.91377e-08
-1.18243e-09
-1.14475e-08
-1.10309e-11
-1.27073e-09
-6.42455e-12
-8.46101e-12
0
-1.38733e-13
-1.73554e-11
9.89477e-12
-2.38424e-11
8.76434e-12
-1.30057e-11
1.05534e-08
-2.78857e-08
1.62145e-08
-9.74666e-07
5.91347e-09
-9.74824e-07
3.09903e-12
-2.9697e-08
-2.19093e-09
-1.06674e-08
-7.79977e-11
-3.9519e-09
-6.56554e-11
-1.74806e-11
4.16163e-12
-7.91888e-12
-3.32941e-12
5.68772e-12
-2.00545e-11
4.48549e-12
-1.25017e-11
-8.42686e-09
-2.72192e-08
-1.63559e-08
-9.69409e-07
-1.07998e-08
-9.61705e-07
-1.08659e-09
-2.86476e-08
-2.23498e-09
-8.29405e-09
-1.01638e-09
-3.51181e-09
-1.46942e-10
-1.21912e-10
6.81042e-12
-5.16702e-12
-7.2314e-12
6.74216e-12
-1.36434e-11
6.91099e-12
-1.24041e-11
1.20239e-08
-2.9353e-08
1.43517e-08
-9.54713e-07
3.04339e-09
-9.56389e-07
-6.01858e-10
-2.83478e-08
-3.58512e-09
-7.38383e-10
-1.09641e-09
-2.96179e-09
-1.2689e-10
-2.00556e-10
5.30703e-12
-3.09426e-12
-1.05433e-11
4.32103e-12
-9.61713e-12
3.6969e-12
-1.17547e-11
4.69619e-10
-3.1847e-08
-8.62467e-09
-9.49194e-07
-8.82515e-09
-9.46874e-07
1.22999e-10
-3.13959e-08
0
-4.51239e-13
-2.67356e-10
-3.11135e-10
-1.47876e-10
-1.90935e-10
2.64647e-12
2.25907e-12
-3.73549e-12
3.17532e-12
-8.5897e-12
2.62667e-12
-1.19389e-11
6.15056e-09
-3.61666e-08
2.04849e-09
-9.42834e-07
-3.77678e-09
-9.42989e-07
-3.00391e-13
-3.59408e-08
0
-9.51139e-13
1.28244e-10
-2.23047e-10
-2.60963e-11
4.99405e-11
2.86452e-12
1.49016e-11
-2.84558e-12
3.03036e-12
-7.71855e-12
3.23737e-12
-1.21224e-11
5.06518e-09
-4.38004e-08
-2.36096e-09
-9.40955e-07
-6.94864e-09
-9.4054e-07
-7.35086e-13
-4.37432e-08
0
-1.71561e-12
1.29308e-10
-1.20401e-10
8.65413e-11
0
2.83382e-12
1.73476e-11
-1.17063e-12
2.5652e-12
-5.42587e-12
3.12294e-12
-1.22453e-11
4.76615e-09
-5.18497e-08
-1.12594e-09
-9.41028e-07
-5.72672e-09
-9.40622e-07
-5.85082e-12
-5.19703e-08
0
-7.80803e-12
-8.95774e-12
1.01643e-10
7.29953e-11
-2.09875e-11
1.11715e-12
1.51353e-11
1.82842e-12
1.76372e-12
-5.4686e-12
2.20813e-12
-1.25221e-11
5.70261e-09
-6.13399e-08
-1.1366e-09
-9.39985e-07
-6.42448e-09
-9.39904e-07
-5.84627e-11
-6.1406e-08
-6.53669e-11
-8.86753e-13
-7.11488e-12
4.73013e-12
6.52815e-12
1.40514e-10
-6.42199e-13
1.98036e-11
3.35718e-12
1.91664e-12
-1.60584e-11
2.00591e-12
-1.26512e-11
5.28945e-09
-7.02647e-08
-1.12941e-09
-9.38213e-07
-6.52825e-09
-9.37464e-07
-5.2903e-14
-7.04095e-08
0
-9.30205e-13
3.17918e-12
-2.12015e-12
-2.54001e-12
3.08984e-11
1.46521e-12
2.23966e-11
-4.44958e-12
3.95923e-12
-2.40378e-11
4.59291e-12
-1.31991e-11
6.01096e-09
-7.86524e-08
-1.36866e-09
-9.33462e-07
-6.88108e-09
-9.33515e-07
-1.45009e-13
-7.89209e-08
-1.05848e-13
-9.58264e-13
1.40238e-12
-2.60894e-12
-8.35305e-12
8.14859e-12
1.19037e-11
1.66407e-11
-1.76216e-12
1.2972e-11
-1.75308e-11
1.14697e-11
-1.19029e-11
6.07101e-09
-8.58835e-08
-1.18683e-09
-9.27301e-07
-7.00696e-09
-9.27687e-07
-2.255e-13
-8.61625e-08
-2.43112e-13
-9.40822e-13
-3.63683e-13
-3.92972e-13
-2.63271e-13
7.42991e-14
8.05922e-13
1.19371e-11
6.44666e-12
7.04528e-12
-2.07711e-11
6.04459e-12
-1.12984e-11
6.71031e-09
-9.27945e-08
-1.17029e-09
-9.19464e-07
-7.65221e-09
-9.2037e-07
-4.55146e-14
-9.31411e-08
-4.57111e-14
-9.41035e-13
-5.34838e-14
-3.85596e-13
-2.32518e-13
-1.10348e-13
-3.15107e-12
1.24546e-11
-9.33939e-12
7.6536e-12
-4.26057e-11
7.73729e-12
-1.19248e-11
7.0194e-09
-9.97982e-08
-5.36462e-10
-9.11706e-07
-7.6253e-09
-9.12532e-07
-4.72271e-14
-1.00034e-07
-5.89188e-14
-9.2974e-13
-8.55709e-14
-3.59565e-13
-2.17672e-13
-1.01132e-13
3.93207e-11
3.19846e-11
-5.72977e-11
3.72957e-11
-3.45475e-11
3.45347e-11
-9.52576e-12
7.79793e-09
-1.082e-07
-5.3987e-10
-9.0364e-07
-8.14595e-09
-9.04848e-07
-8.6799e-14
-1.082e-07
-7.87879e-14
-9.38056e-13
-8.40667e-14
-3.54965e-13
-2.02108e-13
-1.00252e-13
3.85601e-11
2.8401e-11
-3.49658e-11
3.72716e-11
-2.74398e-11
3.40639e-11
-6.45323e-12
8.3143e-09
-1.18673e-07
-5.21946e-10
-8.96029e-07
-9.02339e-09
-8.97272e-07
-2.44871e-13
-1.18641e-07
-1.72655e-13
-1.0113e-12
-8.61567e-14
-1.18544e-12
-2.1966e-13
-6.92836e-14
6.42926e-12
1.37599e-11
8.2199e-12
1.36809e-11
-3.49286e-11
1.35028e-11
-6.31818e-12
8.49997e-09
-1.30139e-07
-6.1985e-10
-8.8836e-07
-9.1964e-09
-8.89866e-07
-9.61414e-13
-1.29978e-07
-9.14191e-13
-1.06376e-12
-4.4429e-13
-3.5222e-12
-9.31734e-13
-3.24729e-16
3.67658e-11
-6.52773e-12
-1.64701e-11
2.8269e-11
-2.57642e-11
2.63032e-11
-4.56209e-12
9.1306e-09
-1.40891e-07
-8.97171e-10
-8.7882e-07
-9.76725e-09
-8.81315e-07
-1.03442e-12
-1.40707e-07
-9.90475e-13
-1.12306e-12
-5.69906e-13
-3.39145e-12
-1.73473e-12
0
3.62949e-11
-2.69496e-11
-1.5865e-11
2.24232e-11
-1.09539e-11
2.11965e-11
-3.62583e-12
9.61283e-09
-1.4863e-07
-4.16849e-11
-8.67879e-07
-9.87333e-09
-8.6997e-07
-1.03835e-12
-1.48068e-07
-1.06727e-12
-1.11559e-12
-6.46194e-13
-3.0644e-12
-1.55001e-12
-1.44492e-13
4.96942e-11
-3.31249e-11
-4.35047e-11
2.26342e-11
1.30776e-11
2.08047e-11
-1.93241e-12
1.01691e-08
-1.52313e-07
-1.59983e-10
-8.54149e-07
-1.06274e-08
-8.55876e-07
-3.37185e-13
-1.51523e-07
-3.66734e-13
-1.10769e-12
-2.25542e-13
-7.78764e-13
-2.24573e-13
-2.08054e-13
9.3504e-12
1.55589e-12
-6.36999e-11
5.55435e-12
1.30415e-12
4.99991e-12
-1.38351e-12
1.1397e-08
-1.52563e-07
1.09084e-09
-8.38455e-07
-1.04359e-08
-8.39535e-07
-1.69066e-13
-1.51662e-07
-1.80308e-13
-1.10357e-12
-3.87913e-13
-4.19991e-13
-1.17125e-12
-1.16775e-13
3.64241e-12
9.84531e-12
-2.47459e-11
1.60469e-12
6.37591e-13
1.48346e-12
-1.24218e-12
1.27224e-08
-1.51938e-07
1.22836e-09
-8.21083e-07
-1.13463e-08
-8.21541e-07
-2.71874e-13
-1.50864e-07
-2.12066e-13
-1.15592e-12
0
-6.96081e-13
-1.0156e-11
-2.02422e-12
2.67858e-12
1.40011e-11
-2.27557e-11
1.77357e-12
8.94455e-13
1.67689e-12
-1.13079e-12
1.23339e-08
-1.53087e-07
-7.12416e-10
-8.04243e-07
-1.38997e-08
-8.0339e-07
-7.01886e-13
-1.52201e-07
-5.67841e-13
-1.28475e-12
-2.21513e-12
-3.96211e-12
-2.25318e-11
-2.44002e-11
5.78523e-12
7.83956e-12
-2.09489e-11
2.41841e-12
1.8379e-12
2.20225e-12
-9.1368e-13
1.50048e-08
-1.6375e-07
1.16949e-10
-7.88805e-07
-1.46111e-08
-7.87983e-07
-1.56481e-12
-1.62909e-07
-1.53156e-12
-1.35032e-12
-9.98463e-12
-4.06002e-12
-2.63961e-11
-2.80759e-11
2.47945e-12
2.86198e-13
-1.84268e-12
1.06215e-12
4.89059e-13
9.60573e-13
-8.15976e-13
1.54506e-08
-1.90911e-07
-9.49318e-10
-7.76507e-07
-1.68889e-08
-7.75273e-07
-1.44751e-12
-1.90054e-07
-1.50804e-12
-1.39314e-12
-9.7365e-12
-2.05232e-12
-1.99411e-11
-3.03374e-11
1.43446e-13
2.8118e-13
-1.42599e-13
1.6466e-13
1.19591e-13
1.63857e-13
-8.18155e-13
1.75542e-08
-2.32629e-07
-5.42596e-10
-7.63658e-07
-1.82393e-08
-7.62546e-07
-9.35888e-13
-2.31572e-07
-8.99201e-13
-1.5794e-12
-9.44646e-13
-1.95926e-12
-2.86182e-12
-2.65512e-11
7.39016e-14
2.67824e-13
-6.13351e-14
7.7137e-14
1.14839e-13
7.85963e-14
-8.22083e-13
1.68209e-08
-2.74113e-07
-7.32227e-10
-7.49479e-07
-1.84563e-08
-7.47931e-07
-2.3168e-12
-2.72898e-07
-2.32513e-12
-1.722e-12
0
-3.22789e-12
3.41089e-13
-6.88248e-12
4.46249e-14
2.73271e-13
-5.04876e-14
7.48812e-14
8.37929e-14
1.0384e-13
-8.52828e-13
1.76933e-08
-3.03939e-07
-9.01021e-10
-7.31532e-07
-1.82511e-08
-7.3119e-07
-4.65674e-12
-3.02975e-07
-4.89179e-12
-1.51059e-12
-9.71692e-13
-5.02519e-12
8.54982e-13
-3.23127e-12
3.90428e-14
2.35493e-13
-1.6615e-15
4.22546e-13
2.88919e-13
5.19072e-13
-9.51145e-13
1.77779e-08
-3.17761e-07
-1.05671e-09
-7.11876e-07
-1.77558e-08
-7.13571e-07
-4.70553e-12
-3.17091e-07
-5.10223e-12
-1.12099e-12
-2.35829e-12
-6.0659e-12
1.62537e-12
-1.08156e-12
5.62844e-14
1.75797e-13
3.00266e-15
1.05598e-12
-4.88207e-14
1.51671e-12
-1.41122e-12
2.05674e-08
-3.22133e-07
-1.14017e-10
-6.90467e-07
-2.0293e-08
-6.92531e-07
-4.31345e-12
-3.21766e-07
-4.65175e-12
-7.68035e-13
-6.15337e-12
-5.87969e-12
-8.53581e-14
-3.11824e-12
4.34921e-13
1.68421e-12
-2.52592e-13
1.06806e-12
-1.74293e-13
4.87667e-12
-5.21864e-12
2.44067e-08
-3.27078e-07
3.49337e-09
-6.69428e-07
-2.40566e-08
-6.64409e-07
-2.38101e-12
-3.26697e-07
-2.66889e-12
-4.59411e-13
-8.24544e-12
-8.02508e-13
-6.60551e-15
-6.9998e-12
1.23403e-12
1.36503e-12
-3.69191e-13
9.40543e-13
-8.59971e-15
3.99524e-11
-4.42642e-11
2.97193e-08
-3.49128e-07
1.76799e-09
-6.41763e-07
-2.82469e-08
-6.34252e-07
-1.55051e-12
-3.4516e-07
-1.58867e-13
-1.83969e-12
-1.2354e-12
-1.93003e-14
4.47584e-15
-2.05648e-12
2.87739e-13
5.69927e-14
-3.21659e-14
2.89142e-13
-1.08278e-14
3.94452e-10
-4.3843e-10
2.14635e-08
-3.78878e-07
-1.4384e-08
-6.05912e-07
-3.50813e-08
-6.13976e-07
-1.5139e-11
-3.87829e-07
-1.80793e-14
-1.69609e-11
-2.3205e-14
-1.48545e-14
1.18768e-14
-3.07236e-14
-4.87518e-17
0
4.12807e-15
7.54255e-15
-1.91933e-14
3.09371e-09
-3.53214e-09
1.98778e-08
-3.97953e-07
6.09238e-09
-5.92597e-07
-3.12912e-08
-5.76597e-07
-1.51354e-10
-4.32246e-07
-3.22661e-14
-1.68282e-10
-1.13692e-14
-3.67629e-14
1.22293e-14
-1.25677e-14
2.28264e-14
2.91993e-14
0
3.54497e-14
-3.26552e-14
2.36197e-08
-2.71518e-08
9.21244e-08
-4.66075e-07
5.64059e-08
-5.56929e-07
3.25313e-08
-5.52773e-07
-6.41557e-10
-3.97039e-07
-1.43925e-12
-8.08356e-10
-1.40024e-12
-7.55457e-14
2.02758e-12
-6.79946e-15
4.01989e-14
1.45425e-14
-1.09356e-14
3.50697e-13
-3.40518e-13
3.12385e-08
-6.13852e-08
4.05659e-08
-4.78351e-07
5.78857e-09
-5.22103e-07
-1.8454e-08
-5.28623e-07
-9.57503e-09
-3.92633e-07
-3.3693e-12
-1.038e-08
-3.1872e-12
-1.7689e-13
4.97316e-12
-1.09438e-12
2.82391e-14
7.36457e-16
-8.51535e-15
6.85016e-12
-7.15624e-12
4.60528e-08
-1.07659e-07
3.40322e-08
-4.6555e-07
-1.20423e-09
-4.86898e-07
-3.67077e-08
-4.93072e-07
-1.96057e-08
-4.17414e-07
-6.5037e-12
-2.86586e-08
-5.70022e-12
-9.52888e-13
1.38727e-12
-4.52452e-12
2.04741e-14
-9.59624e-16
-1.22655e-14
1.34468e-10
-1.41597e-10
6.45772e-08
-1.76792e-07
4.53667e-08
-4.48118e-07
8.56916e-09
-4.50095e-07
-2.99464e-08
-4.54588e-07
-3.57292e-08
-4.09011e-07
-2.93585e-11
-6.20218e-08
-1.0993e-12
-2.91977e-11
-7.43258e-14
-3.71784e-13
5.66196e-13
-5.63899e-13
-3.17826e-15
2.51455e-09
-2.65559e-09
6.47002e-08
-2.32985e-07
8.78651e-09
-3.92012e-07
-3.20902e-08
-4.09216e-07
-7.11764e-08
-4.15497e-07
-7.47114e-08
-4.0636e-07
-8.25577e-10
-1.39765e-07
-4.95011e-13
-8.54288e-10
-2.36994e-13
-3.93701e-13
3.6514e-11
-3.70777e-11
-2.30512e-16
2.40004e-08
-2.66196e-08
9.1436e-08
-2.93844e-07
6.33554e-08
-3.6393e-07
1.87095e-08
-3.6457e-07
-3.55293e-08
-3.61261e-07
-9.32286e-08
-3.49317e-07
-1.3181e-08
-2.28888e-07
-1.2152e-11
-1.40229e-08
-1.20708e-11
-2.68727e-13
1.75856e-09
-1.79563e-09
-2.87984e-16
6.95286e-08
-8.92709e-08
7.39119e-08
-2.95473e-07
2.13015e-08
-3.11319e-07
-2.86668e-08
-3.14602e-07
-7.55128e-08
-3.14415e-07
-1.12838e-07
-3.11993e-07
-5.7727e-08
-2.89355e-07
-9.78807e-10
-7.3268e-08
-9.90772e-10
-1.05765e-13
3.41816e-08
-3.59772e-08
1.11722e-26
1.45889e-07
-2.02142e-07
1.08847e-07
-2.58433e-07
6.59759e-08
-2.68448e-07
1.86223e-08
-2.67248e-07
-3.29699e-08
-2.62823e-07
-9.02921e-08
-2.54671e-07