/*--------------------------------*- C++ -*----------------------------------*\
  =========                 |
  \\      /  F ield         | OpenFOAM: The Open Source CFD Toolbox
   \\    /   O peration     | Website:  https://openfoam.org
    \\  /    A nd           | Version:  8
     \\/     M anipulation  |
\*---------------------------------------------------------------------------*/
FoamFile
{
    version     2.0;
    format      ascii;
    class       volVectorField;
    location    "3.1";
    object      U;
}
// * * * * * * * * * * * * * * * * * * * * * * * * * * * * * * * * * * * * * //

dimensions      [0 1 -1 0 0 0 0];

internalField   nonuniform List<vector> 
9150
(
(0.00496285 -0.0779935 0)
(0.0129999 -0.0974919 0)
(0.0108483 -0.104214 0)
(0.00813165 -0.108096 0)
(0.00162849 -0.109555 0)
(-0.00338957 -0.10914 0)
(-0.00907439 -0.107304 0)
(-0.0108693 -0.104105 0)
(-0.0130702 -0.0973488 0)
(-0.00493231 -0.0778992 0)
(0.00599204 -0.0920578 0)
(0.00862235 -0.10053 0)
(0.00725472 -0.102304 0)
(0.00487726 -0.103865 0)
(0.0024995 -0.105053 0)
(-0.00153299 -0.10558 0)
(-0.00425226 -0.104794 0)
(-0.00727197 -0.102234 0)
(-0.00866789 -0.100475 0)
(-0.00600294 -0.0920175 0)
(0.00179997 -0.0954683 0)
(0.00459865 -0.09899 0)
(0.00367873 -0.101093 0)
(0.00297044 -0.102072 0)
(0.00063192 -0.102573 0)
(-0.000826814 -0.102347 0)
(-0.00342144 -0.101602 0)
(-0.00378647 -0.100891 0)
(-0.00462562 -0.0989625 0)
(-0.00180279 -0.0954482 0)
(0.00178181 -0.0984447 0)
(0.00248394 -0.100408 0)
(0.00221149 -0.100234 0)
(0.00134957 -0.100648 0)
(0.000749197 -0.100848 0)
(-0.000729203 -0.100817 0)
(-0.00127883 -0.10085 0)
(-0.0022254 -0.100274 0)
(-0.00251085 -0.100404 0)
(-0.00178479 -0.0984366 0)
(0.000196125 -0.0995006 0)
(0.000729894 -0.0995719 0)
(0.000465368 -0.0999716 0)
(0.000594706 -0.0999662 0)
(0.000103272 -0.100125 0)
(-0.000153353 -0.10009 0)
(-0.000662181 -0.0998668 0)
(-0.00047893 -0.0999774 0)
(-0.000738277 -0.0995657 0)
(-0.00019649 -0.0995 0)
(0.0767508 -0.195164 1.71104e-26)
(0.049448 -0.185536 0)
(0.0314577 -0.177086 0)
(0.0161648 -0.17525 0)
(0.00391757 -0.176164 0)
(-0.00525264 -0.175778 0)
(-0.0168845 -0.174313 0)
(-0.0317754 -0.176984 0)
(-0.0495597 -0.18533 0)
(-0.0768381 -0.194906 -1.69673e-26)
(0.0584717 -0.146456 4.56978e-27)
(0.0483012 -0.146544 0)
(0.028007 -0.156283 0)
(0.0202216 -0.15635 0)
(0.00421373 -0.155453 0)
(-0.00480707 -0.155889 0)
(-0.0205987 -0.157441 0)
(-0.0282614 -0.156386 0)
(-0.0482863 -0.146562 0)
(-0.0585727 -0.146455 -4.55846e-27)
(0.0477709 -0.121697 2.28567e-27)
(0.0420154 -0.131477 0)
(0.0296735 -0.134194 0)
(0.018216 -0.137753 0)
(0.00654117 -0.140187 0)
(-0.00543164 -0.140489 0)
(-0.0176392 -0.137831 0)
(-0.0297259 -0.134242 0)
(-0.0420845 -0.131585 0)
(-0.0478118 -0.121713 -2.27048e-27)
(0.0374547 -0.0996045 3.31518e-27)
(0.0389095 -0.110359 0)
(0.0223746 -0.120313 0)
(0.0170932 -0.125462 0)
(0.00362882 -0.125194 0)
(-0.00454384 -0.125016 0)
(-0.0175924 -0.124584 0)
(-0.0222288 -0.120055 0)
(-0.0388085 -0.110342 0)
(-0.037426 -0.0995807 -3.35859e-27)
(0.0251452 -0.0813616 -1.14455e-26)
(0.0282171 -0.101057 -1.35485e-26)
(0.0203227 -0.108241 -3.41151e-27)
(0.0115779 -0.113631 -2.95709e-27)
(0.00521418 -0.116672 -1.15919e-28)
(-0.00388953 -0.116958 -1.03686e-28)
(-0.0105968 -0.11393 -3.07132e-27)
(-0.0200653 -0.108079 -3.41906e-27)
(-0.0281568 -0.100985 -1.34911e-26)
(-0.0250729 -0.0812966 -1.14337e-26)
(0.0175273 -0.14487 0)
(0.0116225 -0.205796 0)
(0.0215517 -0.216652 0)
(0.0089641 -0.22278 0)
(0.00772081 -0.225527 0)
(-0.00749794 -0.225445 0)
(-0.0079819 -0.223866 0)
(-0.022585 -0.217133 0)
(-0.01345 -0.203359 0)
(-0.0177321 -0.142934 0)
(0.0155629 -0.16788 0)
(0.00146906 -0.200591 0)
(0.0143274 -0.209523 0)
(0.00143745 -0.213824 0)
(0.00603792 -0.214612 0)
(-0.00631254 -0.214117 0)
(-0.00243325 -0.2128 0)
(-0.016212 -0.207575 0)
(-0.0024791 -0.197806 0)
(-0.0166031 -0.165139 0)
(0.0151201 -0.172612 0)
(-0.00391026 -0.203408 0)
(0.0104789 -0.208517 0)
(-0.00254464 -0.210184 0)
(0.00310346 -0.20982 0)
(-0.00540388 -0.209254 0)
(0.00044618 -0.208937 0)
(-0.0116312 -0.207315 0)
(0.0033141 -0.202492 0)
(-0.0152967 -0.171428 0)
(0.0166555 -0.193866 0)
(-0.00666764 -0.204083 0)
(0.00950803 -0.210236 0)
(-0.00142514 -0.205912 0)
(0.00187272 -0.207363 0)
(-0.00216332 -0.207126 0)
(0.00114247 -0.207068 0)
(-0.0101937 -0.20945 0)
(0.0066732 -0.203248 0)
(-0.017129 -0.193239 0)
(0.0342041 -0.218068 0)
(0.00839637 -0.204154 0)
(0.0166148 -0.204417 0)
(0.0108571 -0.197156 0)
(0.00231425 -0.19394 0)
(-0.00192839 -0.193779 0)
(-0.011042 -0.196411 0)
(-0.0167752 -0.203662 0)
(-0.00856943 -0.203981 0)
(-0.0340669 -0.217366 0)
(0.0207543 0.00146089 0)
(0.0115783 0.00191908 0)
(0.00549397 0.000819406 0)
(0.00323412 0.00310415 0)
(0.00186171 0.000824259 0)
(0.00418399 -0.00391364 0)
(0.0128948 -0.0127519 0)
(0.0309056 -0.025538 0)
(0.0536486 -0.0279676 0)
(0.0783385 -0.027194 0)
(0.0272619 0.0326045 0)
(0.0187893 0.0273191 0)
(0.00995222 0.0164224 0)
(0.00689142 0.00435103 0)
(0.0101984 -0.00401585 0)
(0.0163741 -0.02002 0)
(0.0251962 -0.0420842 0)
(0.0406012 -0.0650948 0)
(0.0621654 -0.0757192 0)
(0.0850698 -0.0766927 0)
(0.0680699 0.0357669 0)
(0.0682017 0.032981 0)
(0.0697551 0.0272242 0)
(0.0744563 0.00478748 0)
(0.0794655 -0.023635 0)
(0.0842682 -0.0336082 0)
(0.0884059 -0.0571462 0)
(0.100817 -0.110131 0)
(0.115506 -0.123695 0)
(0.117982 -0.110067 0)
(0.115322 0.0411484 0)
(0.117633 0.0304826 0)
(0.13097 0.0116818 0)
(0.149478 -0.0118617 0)
(0.161013 -0.0300341 0)
(0.165057 -0.0359272 0)
(0.173986 -0.0462688 0)
(0.170803 -0.0910704 0)
(0.15779 -0.117354 0)
(0.150597 -0.0950286 0)
(0.157756 0.0186537 0)
(0.155628 0.00168897 0)
(0.157127 -0.0278199 0)
(0.159362 -0.0447617 0)
(0.160499 -0.0532064 0)
(0.160651 -0.0585246 0)
(0.168977 -0.0641704 0)
(0.167966 -0.0828393 0)
(0.153115 -0.093472 0)
(0.145117 -0.0698999 0)
(0.198301 0.0565311 0)
(0.189698 0.0302885 0)
(0.174856 -0.00213463 0)
(0.157644 -0.0291288 0)
(0.145076 -0.0449156 0)
(0.140981 -0.0552439 0)
(0.143066 -0.0627558 0)
(0.138851 -0.0721104 0)
(0.134946 -0.075074 0)
(0.131579 -0.0657462 0)
(0.268245 0.0479223 0)
(0.266323 0.0474449 0)
(0.25068 0.0465168 0)
(0.219089 0.0182215 0)
(0.175855 -0.0120336 0)
(0.150694 -0.0484748 0)
(0.141899 -0.0658462 0)
(0.131923 -0.0642157 0)
(0.11976 -0.0606461 0)
(0.102495 -0.0108825 0)
(0.301854 0.0484393 0)
(0.289057 0.0659144 0)
(0.275652 0.089354 0)
(0.248139 0.103736 0)
(0.209103 0.0915265 0)
(0.176968 0.0231123 0)
(0.161804 -0.0228324 0)
(0.141242 -0.0299019 0)
(0.11725 -0.0278127 0)
(0.0963893 0.0324697 0)
(0.281383 0.0723014 0)
(0.245832 0.102121 0)
(0.214246 0.134522 0)
(0.183992 0.150284 0)
(0.176876 0.1251 0)
(0.18008 0.044639 0)
(0.168767 0.0166326 0)
(0.16039 0.0182494 0)
(0.135379 0.0258151 0)
(0.0799399 0.0830095 0)
(0.157047 0.154781 0)
(0.126586 0.184342 0)
(0.117612 0.188168 0)
(0.132663 0.171714 0)
(0.14715 0.0973738 0)
(0.159305 0.0383259 0)
(0.162906 0.0380562 0)
(0.168975 0.0644925 0)
(0.11957 0.105315 0)
(0.0203284 0.163472 0)
(0.0246638 0.185676 0)
(0.039277 0.187854 0)
(0.0533969 0.141069 0)
(0.0882243 0.114177 0)
(0.0976593 0.0494715 0)
(0.121031 -0.014004 0)
(0.138504 0.00211813 0)
(0.145776 0.112363 0)
(0.0258859 0.280206 0)
(-0.0179349 0.24439 0)
(-0.0325359 0.127331 0)
(0.00104878 0.119254 0)
(0.0362836 0.100055 0)
(0.0332706 0.0896945 0)
(0.0332679 0.0184087 0)
(0.0286501 -0.0720341 0)
(0.0422608 -0.018733 0)
(0.0326389 0.335556 0)
(0.0132301 0.354954 0)
(0.0145999 0.269225 0)
(-0.0408508 0.0541291 0)
(-0.01656 0.0486599 0)
(-0.0024246 0.0765916 0)
(-0.0200193 0.147465 0)
(-0.0446108 0.014557 0)
(-0.0702692 -0.0320816 0)
(-0.103414 0.0512303 0)
(-0.051559 0.302257 0)
(0.00484124 0.317558 0)
(0.0547498 0.231431 0)
(-0.0956141 0.0236305 0)
(-0.0745243 0.0416165 0)
(-0.0896077 0.118634 0)
(-0.083968 0.159231 0)
(-0.0682728 0.066953 0)
(-0.0974229 0.0182815 0)
(-0.103726 0.0226905 0)
(-0.0817173 0.0997798 0)
(0.0020686 0.108412 0)
(0.044084 0.0946213 0)
(-0.141682 -0.00797174 0)
(-0.123693 0.011056 0)
(-0.104906 0.0952346 0)
(-0.0868745 0.120785 0)
(-0.0947932 0.0871059 0)
(-0.0880096 0.0397802 0)
(-0.0486086 0.00693559 0)
(0.00059487 0.0168058 0)
(0.0562187 0.0271562 0)
(0.0921175 0.0205005 0)
(-0.258625 -0.0302471 0)
(-0.237397 0.0180389 0)
(-0.207092 0.0740403 0)
(-0.187231 0.0948456 0)
(-0.139763 0.0753136 0)
(-0.0825569 -0.0593159 0)
(-0.0101456 -0.153544 0)
(0.0583294 -0.101096 0)
(0.124376 -0.0521456 0)
(0.168711 -0.0371075 0)
(-0.509421 -0.05147 0)
(-0.433301 -0.0381058 0)
(-0.369087 -0.0415524 0)
(-0.298798 -0.035186 0)
(-0.208069 -0.07866 0)
(-0.172621 -0.2063 0)
(-0.110546 -0.27631 0)
(-0.0281123 -0.287083 0)
(0.0838096 -0.227793 0)
(0.167552 -0.112278 0)
(-0.516645 -0.17126 0)
(-0.485068 -0.211333 0)
(-0.454969 -0.215817 0)
(-0.412379 -0.21695 0)
(-0.373915 -0.240648 0)
(-0.339096 -0.294387 0)
(-0.289507 -0.400777 0)
(-0.199676 -0.421404 0)
(-0.0701173 -0.400492 0)
(0.0672489 -0.238476 0)
(-0.458924 -0.211166 0)
(-0.455508 -0.227345 0)
(-0.460793 -0.22496 0)
(-0.455974 -0.283182 0)
(-0.441578 -0.334302 0)
(-0.414152 -0.443589 0)
(-0.339225 -0.624223 0)
(-0.252953 -0.776715 0)
(-0.155872 -0.824995 0)
(-0.042754 -0.609254 0)
(-0.14926 -0.116715 0)
(-0.116076 -0.16307 0)
(-0.148964 -0.190885 0)
(-0.0990041 -0.281631 0)
(-0.0843166 -0.333825 0)
(-0.096625 -0.444903 0)
(-0.114897 -0.638125 0)
(-0.193238 -0.841692 0)
(-0.148032 -0.934669 0)
(-0.0835995 -0.865582 0)
(0.125722 -0.150982 0)
(0.180431 -0.172528 0)
(0.218588 -0.211214 0)
(0.223069 -0.25035 0)
(0.240927 -0.298312 0)
(0.219751 -0.326327 0)
(0.184052 -0.400148 0)
(0.129592 -0.630478 0)
(0.0638648 -0.932728 0)
(0.0674578 -0.963238 0)
(0.225958 -0.24447 0)
(0.232029 -0.272381 0)
(0.257389 -0.298603 0)
(0.254543 -0.311608 0)
(0.248654 -0.321082 0)
(0.239689 -0.345287 0)
(0.207131 -0.371674 0)
(0.199137 -0.494461 0)
(0.169911 -0.823588 0)
(0.155921 -0.944349 0)
(0.308213 -0.218815 0)
(0.310474 -0.24745 0)
(0.293074 -0.274594 0)
(0.276493 -0.28845 0)
(0.26609 -0.3079 0)
(0.25104 -0.345291 0)
(0.247904 -0.382825 0)
(0.27364 -0.478407 0)
(0.256992 -0.777768 0)
(0.210056 -0.905344 0)
(0.307627 -0.243156 0)
(0.320044 -0.242176 0)
(0.322455 -0.245767 0)
(0.317698 -0.254041 0)
(0.307469 -0.270418 0)
(0.297493 -0.316381 0)
(0.286816 -0.386698 0)
(0.325954 -0.48162 0)
(0.315386 -0.676355 0)
(0.258325 -0.795637 0)
(0.256754 -0.277893 0)
(0.279197 -0.278629 0)
(0.294032 -0.279323 0)
(0.308373 -0.275231 0)
(0.312955 -0.278097 0)
(0.323223 -0.311293 0)
(0.330979 -0.418333 0)
(0.351322 -0.484098 0)
(0.329289 -0.625602 0)
(0.284331 -0.730201 0)
(0.178551 -0.326198 0)
(0.222387 -0.319663 0)
(0.252929 -0.317343 0)
(0.281723 -0.307029 0)
(0.318795 -0.314468 0)
(0.356705 -0.379675 0)
(0.369639 -0.415492 0)
(0.361852 -0.467708 0)
(0.343936 -0.57996 0)
(0.304027 -0.680532 0)
(0.134896 -0.412162 0)
(0.191809 -0.409173 0)
(0.234668 -0.405925 0)
(0.288319 -0.383587 0)
(0.349273 -0.393958 0)
(0.372497 -0.407174 0)
(0.367234 -0.418985 0)
(0.36772 -0.451062 0)
(0.382213 -0.539716 0)
(0.341467 -0.585265 0)
(0.120963 -0.502552 0)
(0.175412 -0.516811 0)
(0.230472 -0.519467 0)
(0.295012 -0.510323 0)
(0.346654 -0.458109 0)
(0.356067 -0.421262 0)
(0.35706 -0.418204 0)
(0.365563 -0.449508 0)
(0.368067 -0.525184 0)
(0.349555 -0.527678 0)
(0.1214 -0.621086 0)
(0.181007 -0.662414 0)
(0.248618 -0.672362 0)
(0.289884 -0.614291 0)
(0.314561 -0.491536 0)
(0.318624 -0.432575 0)
(0.31707 -0.434181 0)
(0.321843 -0.484184 0)
(0.306553 -0.486228 0)
(0.243251 -0.445603 0)
(0.0944861 -0.710935 0)
(0.177183 -0.792702 0)
(0.232824 -0.757785 0)
(0.263436 -0.647391 0)
(0.273242 -0.49632 0)
(0.25131 -0.444793 0)
(0.23702 -0.450197 0)
(0.201743 -0.438164 0)
(0.141428 -0.370734 0)
(0.0563511 -0.251877 0)
(-0.0197987 -0.838925 0)
(0.0775279 -0.908511 0)
(0.104837 -0.837659 0)
(0.119724 -0.636978 0)
(0.0908119 -0.468895 0)
(0.0463329 -0.39245 0)
(-0.0110407 -0.337726 0)
(-0.0691619 -0.274108 0)
(-0.0715594 -0.236519 0)
(-0.0633075 -0.242379 0)
(-0.246542 -0.993633 0)
(-0.232262 -1.03735 0)
(-0.187689 -0.874522 0)
(-0.164226 -0.534338 0)
(-0.204866 -0.383764 0)
(-0.210796 -0.288943 0)
(-0.207338 -0.26388 0)
(-0.19865 -0.297287 0)
(-0.188623 -0.333951 0)
(-0.145528 -0.333005 0)
(-0.452389 -0.991109 0)
(-0.447158 -1.03984 0)
(-0.374066 -0.838812 0)
(-0.232612 -0.502123 0)
(-0.251171 -0.367936 0)
(-0.231259 -0.32472 0)
(-0.221236 -0.316004 0)
(-0.212239 -0.338683 0)
(-0.211599 -0.361753 0)
(-0.198542 -0.368094 0)
(-0.520889 -0.961058 0)
(-0.526614 -1.11952 0)
(-0.471222 -1.09026 0)
(-0.270346 -0.735951 0)
(-0.202621 -0.439088 0)
(-0.171155 -0.3468 0)
(-0.171723 -0.317212 0)
(-0.182257 -0.31122 0)
(-0.208601 -0.362177 0)
(-0.214519 -0.382442 0)
(-0.456189 -0.769399 0)
(-0.510104 -1.19631 0)
(-0.493547 -1.24828 0)
(-0.388968 -1.14964 0)
(-0.228359 -0.647029 0)
(-0.141373 -0.356647 0)
(-0.142676 -0.285265 0)
(-0.164577 -0.251964 0)
(-0.200667 -0.264899 0)
(-0.255614 -0.333503 0)
(-0.32777 -0.154903 0)
(-0.396178 -1.10068 0)
(-0.383536 -1.31299 0)
(-0.373048 -1.30337 0)
(-0.315484 -1.11679 0)
(-0.15757 -0.449919 0)
(-0.119547 -0.271923 0)
(-0.16566 -0.205934 0)
(-0.175746 -0.174906 0)
(-0.242154 -0.215261 0)
(-0.0791255 0.305334 0)
(-0.27829 -0.762425 0)
(-0.279826 -1.23074 0)
(-0.275488 -1.33668 0)
(-0.286677 -1.30625 0)
(-0.187443 -0.72189 0)
(-0.133537 -0.232033 0)
(-0.206698 -0.145103 0)
(-0.211953 -0.0847309 0)
(-0.272963 -0.101861 0)
(0.0999854 0.513822 0)
(-0.17421 -0.584911 0)
(-0.21283 -1.06479 0)
(-0.224954 -1.29536 0)
(-0.200539 -1.36075 0)
(-0.201975 -0.904258 0)
(-0.159238 -0.163027 0)
(-0.232926 -0.0685444 0)
(-0.245855 0.0008465 0)
(-0.29329 -0.00481633 0)
(0.0177272 0.626416 0)
(0.00826295 -0.469589 0)
(-0.0606183 -0.904656 0)
(-0.184428 -1.2525 0)
(-0.141929 -1.38503 0)
(-0.124042 -1.01302 0)
(-0.161163 -0.0388902 0)
(-0.21013 0.0413421 0)
(-0.243037 0.106478 0)
(-0.311415 0.0881256 0)
(-0.0337616 0.485215 0)
(0.123857 -0.512694 0)
(0.0612139 -0.666243 0)
(-0.0689782 -1.01407 0)
(-0.0283205 -1.40554 0)
(-0.0343802 -1.08888 0)
(-0.151498 0.0514519 0)
(-0.198642 0.099963 0)
(-0.180881 0.210696 0)
(-0.202124 0.222071 0)
(-0.00335352 0.185057 0)
(0.095929 -0.50996 0)
(-0.127647 -0.644456 0)
(0.00552214 -0.971393 0)
(0.0152011 -1.38605 0)
(0.000487774 -1.12739 0)
(-0.00712627 0.360364 0)
(-0.141135 0.10025 0)
(-0.138191 0.0687507 0)
(-0.122854 0.265163 0)
(0.0428008 -0.0513724 0)
(-0.184478 -0.245135 0)
(-0.201734 -0.683734 0)
(-0.043715 -1.18982 0)
(-0.0354824 -1.38472 0)
(-0.0352511 -1.01249 0)
(-0.0568021 0.438229 0)
(0.0619299 0.366357 0)
(-0.00776666 0.128907 0)
(0.0653423 0.163689 0)
(0.129899 0.211852 0)
(-0.0850437 0.10328 0)
(-0.172801 -0.751322 0)
(-0.123687 -1.40662 0)
(-0.116537 -1.39296 0)
(-0.0913536 -0.975841 0)
(-0.129529 0.0424883 0)
(0.0889543 0.279134 0)
(-0.0521602 0.0120779 0)
(0.0736352 0.180695 0)
(0.0447526 0.241676 0)
(0.00718855 0.172259 0)
(-0.138142 -0.608556 0)
(-0.149344 -1.46255 0)
(-0.122128 -1.39496 0)
(-0.101085 -1.00968 0)
(-0.0601482 0.0693363 0)
(-0.0396644 0.161139 0)
(-0.0999148 0.117845 0)
(-0.0213295 0.332822 0)
(-0.0314591 0.27307 0)
(0.0469173 0.304851 0)
(-0.149823 -0.335573 0)
(-0.118874 -1.49849 0)
(-0.0812818 -1.43771 0)
(-0.0961918 -1.20215 0)
(0.00120831 0.104209 0)
(-0.0739162 0.15882 0)
(-0.0893419 0.0936009 0)
(-0.113685 0.356477 0)
(-0.0393184 0.270486 0)
(0.135368 0.283022 0)
(-0.0232572 -0.0946549 0)
(-0.0653488 -1.4976 0)
(-0.0528261 -1.44841 0)
(-0.077713 -1.31408 0)
(-0.0116011 0.113703 0)
(-0.0957293 0.179181 0)
(-0.0609579 0.27242 0)
(-0.183287 0.421134 0)
(0.0204273 0.130902 0)
(0.107714 0.246943 0)
(-0.035419 0.201133 0)
(-0.0331937 -1.47227 0)
(-0.0325497 -1.43267 0)
(-0.0610241 -1.38176 0)
(0.0557284 0.249859 0)
(-0.00815701 0.236528 0)
(-0.0292881 0.347026 0)
(-0.117031 0.52813 0)
(-0.0132339 0.345581 0)
(0.0349444 0.291963 0)
(0.0255184 0.21258 0)
(-0.0876239 -1.46181 0)
(-0.035506 -1.42964 0)
(-0.0595006 -1.40826 0)
(-0.00536157 -0.174448 0)
(0.268965 0.424652 0)
(0.138447 0.440348 0)
(0.110697 0.753835 0)
(-0.109548 0.30712 0)
(-0.13736 0.129415 0)
(-0.0198782 0.412183 0)
(0.02329 -1.31939 0)
(-0.00397536 -1.42213 0)
(-0.0224025 -1.3969 0)
(0.0103798 -1.07458 0)
(0.326696 0.473727 0)
(0.316973 0.453961 0)
(0.339002 0.575904 0)
(-0.371912 0.182789 0)
(-0.247888 0.0404264 0)
(0.00919532 -0.356171 0)
(0.0277844 -1.27158 0)
(0.00882785 -1.388 0)
(-0.00455227 -1.382 0)
(-0.023716 -1.18268 0)
(0.213778 0.453364 0)
(0.301366 0.302606 0)
(0.36058 0.384467 0)
(-0.192217 -0.195791 0)
(-0.08156 -0.297152 0)
(-0.0077272 -0.468184 0)
(0.00654946 -1.23883 0)
(0.00667128 -1.36911 0)
(-0.00843488 -1.36583 0)
(-0.0281368 -1.16512 0)
(-0.0921202 -0.221354 0)
(0.113896 0.00773524 0)
(0.15488 0.0188689 0)
(-0.00438427 -0.250627 0)
(0.0253241 -0.313163 0)
(0.00733365 -0.483978 0)
(0.00177658 -1.23275 0)
(0.00609089 -1.34973 0)
(-0.00768008 -1.34744 0)
(-0.00931006 -1.06453 0)
(-0.0409785 -0.0761094 0)
(-0.0125641 0.0208351 0)
(-0.0408744 -0.00225952 0)
(0.0147264 -0.360653 0)
(0.0286243 -0.317246 0)
(0.00242974 -0.429239 0)
(-0.00048511 -1.23104 0)
(0.00687241 -1.33887 0)
(-0.0087865 -1.33338 0)
(-0.00735343 -1.06531 0)
(0.0355545 -0.19849 0)
(0.108499 0.084702 0)
(0.0589082 -0.0186235 0)
(-0.0568805 -0.398442 0)
(-0.0699476 -0.290547 0)
(-0.0391712 -0.503617 0)
(0.00865091 -1.2793 0)
(0.0075928 -1.32475 0)
(-0.00597768 -1.32253 0)
(-0.00275512 -1.15079 0)
(0.0660238 -0.482267 0)
(0.184163 -0.00616098 0)
(0.241793 0.141335 0)
(-0.116272 -0.361835 0)
(-0.107524 -0.316975 0)
(-0.0170131 -0.705858 0)
(0.0097077 -1.29718 0)
(0.00795713 -1.31024 0)
(-0.00754979 -1.30757 0)
(-0.00236821 -1.17534 0)
(0.0182916 -0.645749 0)
(0.0679862 -0.306908 0)
(0.211089 -0.00327965 0)
(-0.0955947 -0.398286 0)
(-0.035672 -0.464037 0)
(0.0154448 -0.757377 0)
(0.00720905 -1.29833 0)
(0.00766822 -1.29609 0)
(-0.00634636 -1.29617 0)
(-0.00378658 -1.18004 0)
(-0.00445299 -0.669661 0)
(0.010654 -0.382495 0)
(0.0424409 -0.144323 0)
(-0.0152921 -0.472869 0)
(0.00651193 -0.524465 0)
(0.0154338 -0.772829 0)
(0.00317229 -1.2845 0)
(0.00479786 -1.2819 0)
(-0.00984238 -1.28288 0)
(-0.0100484 -1.16962 0)
(-0.0188866 -0.593377 0)
(-0.0830798 -0.377546 0)
(-0.0450215 -0.223887 0)
(0.0758957 -0.424992 0)
(0.0305408 -0.503201 0)
(0.00124243 -0.752413 0)
(-0.00857475 -1.26747 0)
(2.71858e-05 -1.26762 0)
(-0.0140311 -1.26877 0)
(-0.025362 -1.17402 0)
(-0.0225484 -0.495033 0)
(-0.106214 -0.377903 0)
(-0.0558726 -0.245783 0)
(0.102084 -0.323906 0)
(0.0523527 -0.393055 0)
(-0.000144043 -0.67764 0)
(-0.00961326 -1.25255 0)
(0.000741482 -1.25798 0)
(-0.013364 -1.25108 0)
(-0.0244798 -1.18616 0)
(-0.0159021 -0.420065 0)
(-0.0881611 -0.380996 0)
(-0.0504629 -0.235484 0)
(0.0886362 -0.260666 0)
(0.0412306 -0.323654 0)
(0.029361 -0.657772 0)
(0.0154483 -1.24026 0)
(0.0100255 -1.24079 0)
(-0.00352489 -1.23858 0)
(0.00619696 -1.18133 0)
(-0.00991517 -0.339699 0)
(-0.0838613 -0.328139 0)
(-0.0755387 -0.198513 0)
(0.089013 -0.166558 0)
(0.0362054 -0.260261 0)
(0.0237496 -0.631113 0)
(0.00754963 -1.22845 0)
(0.00761437 -1.22298 0)
(-0.00689746 -1.22276 0)
(-0.00566355 -1.17568 0)
(-0.0245033 -0.247589 0)
(-0.0814232 -0.287091 0)
(-0.096921 -0.213767 0)
(0.0919121 -0.0675611 0)
(0.0431765 -0.178567 0)
(0.0265152 -0.604708 0)
(0.0103998 -1.214 0)
(0.00823768 -1.20645 0)
(-0.00652158 -1.20668 0)
(-0.00506415 -1.20681 0)
(0.0529602 -0.188653 0)
(-0.0335685 -0.189627 0)
(-0.0892946 -0.249916 0)
(0.0492237 -0.0130195 0)
(0.0190896 -0.140687 0)
(0.018773 -0.595188 0)
(0.0101705 -1.19725 0)
(0.00752466 -1.18958 0)
(-0.00695171 -1.18967 0)
(-0.0125939 -1.19852 0)
(-0.00402939 -0.231647 0)
(0.137269 -0.0238515 0)
(0.0854899 -0.148234 0)
(0.0389994 0.042655 0)
(0.014887 -0.0952422 0)
(0.0191712 -0.589865 0)
(0.0105337 -1.18333 0)
(0.00739222 -1.1715 0)
(-0.00827449 -1.17165 0)
(-0.0122136 -1.18686 0)
(-0.0163286 -0.59151 0)
(0.101139 -0.129435 0)
(0.0022351 0.057039 0)
(0.0229169 0.0826166 0)
(0.0132366 -0.0762373 0)
(0.0188475 -0.591483 0)
(0.00910263 -1.16845 0)
(0.00710557 -1.15488 0)
(-0.00725363 -1.15422 0)
(-0.00883885 -1.17041 0)
(0.00414006 -0.685643 0)
(0.072394 -0.02816 0)
(-0.0701938 0.107935 0)
(-0.000304224 0.086437 0)
(0.00562671 -0.0820754 0)
(0.0193099 -0.598967 0)
(0.0113957 -1.15295 0)
(0.00759908 -1.13644 0)
(-0.00768564 -1.13728 0)
(-0.00974285 -1.15809 0)
(-0.0377724 -0.65924 0)
(-0.0128453 0.133114 0)
(-0.0128982 0.117407 0)
(-0.00593232 0.0470923 0)
(0.00473054 -0.125559 0)
(0.0188539 -0.61846 0)
(0.00948636 -1.13783 0)
(0.00696347 -1.12045 0)
(-0.00709248 -1.12039 0)
(-0.0106662 -1.13951 0)
(-0.026121 -0.743104 0)
(0.034587 -0.0912408 0)
(0.142427 -0.0962833 0)
(0.00903158 0.0652181 0)
(0.00357282 -0.13632 0)
(0.0159052 -0.624179 0)
(0.0110128 -1.12112 0)
(0.00712636 -1.10328 0)
(-0.00755522 -1.10366 0)
(-0.0101794 -1.1242 0)
(-0.0164813 -0.748844 0)
(0.0101857 -0.278219 0)
(0.0874336 -0.192755 0)
(0.0459983 0.0669001 0)
(0.0367559 -0.0877235 0)
(0.0223434 -0.608487 0)
(0.0106172 -1.10424 0)
(0.00684133 -1.08631 0)
(-0.00695235 -1.08729 0)
(-0.0105675 -1.10837 0)
(-0.0202496 -0.763751 0)
(-0.0101749 -0.309233 0)
(0.00383615 -0.198864 0)
(-0.00269145 0.0253073 0)
(0.00675179 -0.112621 0)
(0.0235826 -0.626164 0)
(0.0113847 -1.0876 0)
(0.00705129 -1.06953 0)
(-0.00725868 -1.07053 0)
(-0.01124 -1.08973 0)
(-0.0202798 -0.76605 0)
(-0.0174147 -0.314391 0)
(-0.0249243 -0.197559 0)
(-0.00790305 0.0283533 0)
(0.00489652 -0.171142 0)
(0.0175909 -0.634024 0)
(0.0115503 -1.0702 0)
(0.00701215 -1.05162 0)
(-0.00685483 -1.05244 0)
(-0.0113073 -1.07476 0)
(-0.019571 -0.75571 0)
(-0.0310694 -0.293137 0)
(-0.0387173 -0.181703 0)
(0.0697887 0.0602228 0)
(0.0564824 -0.0926457 0)
(0.0198998 -0.590338 0)
(0.0125697 -1.05242 0)
(0.00713048 -1.03362 0)
(-0.00705187 -1.03534 0)
(-0.0119211 -1.05462 0)
(-0.0203851 -0.746949 0)
(-0.0264652 -0.272295 0)
(-0.0391268 -0.173252 0)
(0.0443673 0.0507742 0)
(0.0351852 -0.0538001 0)
(0.0237929 -0.580289 0)
(0.0126139 -1.03412 0)
(0.00720581 -1.01488 0)
(-0.00712023 -1.01653 0)
(-0.0124411 -1.03896 0)
(-0.0205922 -0.741938 0)
(-0.0248579 -0.247156 0)
(-0.0378422 -0.150153 0)
(0.00082628 0.0289125 0)
(0.00624946 -0.0735335 0)
(0.0183042 -0.597978 0)
(0.012457 -1.016 0)
(0.0069787 -0.996096 0)
(-0.00713207 -0.997658 0)
(-0.0124048 -1.01883 0)
(-0.0215093 -0.738079 0)
(-0.0229384 -0.231871 0)
(-0.0302533 -0.129498 0)
(0.0253305 0.0151598 0)
(0.023408 -0.045615 0)
(0.0191022 -0.588563 0)
(0.0124371 -0.996498 0)
(0.00671644 -0.978169 0)
(-0.00737349 -0.979595 0)
(-0.0130796 -0.999985 0)
(-0.021875 -0.736625 0)
(-0.0224036 -0.227249 0)
(-0.0229527 -0.119177 0)
(0.0299629 -0.0337886 0)
(0.017637 -0.0401054 0)
(0.0179344 -0.604728 0)
(0.0123131 -0.977229 0)
(0.00715466 -0.959052 0)
(-0.00716569 -0.96026 0)
(-0.0130475 -0.980338 0)
(-0.0233157 -0.731724 0)
(-0.0247617 -0.226533 0)
(-0.0205241 -0.118534 0)
(0.0525825 -0.0573523 0)
(0.0275542 0.00856157 0)
(0.0186387 -0.604908 0)
(0.0132492 -0.957147 0)
(0.00737022 -0.941267 0)
(-0.00715174 -0.941553 0)
(-0.013249 -0.958946 0)
(-0.0233853 -0.725671 0)
(-0.0269866 -0.233127 0)
(-0.0170416 -0.130715 0)
(0.0295375 -0.0290265 0)
(0.011681 0.0569593 0)
(0.0243494 -0.614499 0)
(0.014182 -0.937185 0)
(0.00804732 -0.921127 0)
(-0.00696517 -0.921536 0)
(-0.0135296 -0.939222 0)
(-0.0233918 -0.713865 0)
(-0.0312271 -0.23911 0)
(-0.0223875 -0.149817 0)
(0.021642 0.0425935 0)
(0.0148927 0.0295555 0)
(0.027885 -0.610446 0)
(0.0156787 -0.917648 0)
(0.00883791 -0.900668 0)
(-0.00769392 -0.900281 0)
(-0.0146082 -0.917726 0)
(-0.0237938 -0.697072 0)
(-0.0365034 -0.238414 0)
(-0.0317076 -0.158966 0)
(0.023385 0.0870209 0)
(0.0296508 0.0188878 0)
(0.0241253 -0.599695 0)
(0.016524 -0.897945 0)
(0.00885449 -0.877419 0)
(-0.00852269 -0.876732 0)
(-0.0164509 -0.897639 0)
(-0.0243667 -0.672118 0)
(-0.0437003 -0.220968 0)
(-0.0484616 -0.149428 0)
(0.0350029 0.119114 0)
(0.0314299 0.0360726 0)
(0.0231691 -0.595457 0)
(0.0177217 -0.878821 0)
(0.00931274 -0.852639 0)
(-0.00929961 -0.851598 0)
(-0.017896 -0.877369 0)
(-0.0243314 -0.648532 0)
(-0.0448657 -0.184095 0)
(-0.0565906 -0.129118 0)
(0.0305157 0.143596 0)
(0.0200741 0.0439942 0)
(0.0228287 -0.603432 0)
(0.0175844 -0.858687 0)
(0.00904959 -0.82705 0)
(-0.00954022 -0.824899 0)
(-0.0182651 -0.856332 0)
(-0.0244502 -0.640848 0)
(-0.0390101 -0.143921 0)
(-0.0573838 -0.104158 0)
(0.0351335 0.175942 0)
(0.0248544 0.0599197 0)
(0.0249948 -0.608188 0)
(0.0178412 -0.835728 0)
(0.00872437 -0.800556 0)
(-0.00900363 -0.799476 0)
(-0.018001 -0.833767 0)
(-0.0258872 -0.640679 0)
(-0.0292465 -0.11035 0)
(-0.045748 -0.0630542 0)
(0.0338946 0.198999 0)
(0.0259561 0.0750659 0)
(0.0264945 -0.613971 0)
(0.0164351 -0.809614 0)
(0.00737391 -0.777089 0)
(-0.00780854 -0.774884 0)
(-0.0167083 -0.807394 0)
(-0.0267246 -0.642956 0)
(-0.0277276 -0.0934941 0)
(-0.0318381 -0.011351 0)
(0.0134394 0.209876 0)
(0.025036 0.067588 0)
(0.0275993 -0.614355 0)
(0.0168951 -0.781092 0)
(0.00640319 -0.754431 0)
(-0.00705948 -0.75411 0)
(-0.0163997 -0.780046 0)
(-0.0257582 -0.641024 0)
(-0.031786 -0.0881415 0)
(-0.0249018 0.0204484 0)
(0.00473147 0.19765 0)
(0.0304177 0.0403514 0)
(0.0272029 -0.606561 0)
(0.0167258 -0.752628 0)
(0.00557092 -0.733747 0)
(-0.00625239 -0.73238 0)
(-0.0167716 -0.75202 0)
(-0.0261683 -0.622591 0)
(-0.0438687 -0.0848757 0)
(-0.0301057 0.0257871 0)
(0.0063501 0.162166 0)
(0.0419724 0.0079762 0)
(0.027275 -0.586947 0)
(0.0183693 -0.72551 0)
(0.00684898 -0.712625 0)
(-0.0065123 -0.712045 0)
(-0.0185171 -0.725892 0)
(-0.0254387 -0.610852 0)
(-0.0410234 -0.0983771 0)
(-0.019645 0.00131216 0)
(0.0206586 0.113656 0)
(0.0517435 -0.0120169 0)
(0.0291922 -0.561289 0)
(0.0210907 -0.699811 0)
(0.00937937 -0.687183 0)
(-0.00583259 -0.686846 0)
(-0.0191913 -0.700578 0)
(-0.0281931 -0.585049 0)
(-0.0501701 -0.0915591 0)
(-0.0414952 -0.00607786 0)
(0.0234817 0.078344 0)
(0.0473497 -0.0223249 0)
(0.0332473 -0.537234 0)
(0.0244027 -0.673528 0)
(0.00966201 -0.658252 0)
(-0.0076541 -0.660101 0)
(-0.0201031 -0.674466 0)
(-0.0308515 -0.571024 0)
(-0.0478364 -0.0890103 0)
(-0.0372306 0.00479568 0)
(0.00602758 0.0638836 0)
(0.024681 -0.0463851 0)
(0.0338338 -0.520901 0)
(0.018587 -0.643075 0)
(0.000913258 -0.628662 0)
(-0.0140067 -0.62404 0)
(-0.0251851 -0.642957 0)
(-0.0389731 -0.545505 0)
(-0.0565171 -0.0780939 0)
(-0.0429903 0.0294829 0)
(0.00632126 0.0489189 0)
(-0.0160836 -0.106303 0)
(0.0467446 -0.515663 0)
(0.0205541 -0.608669 0)
(0.00883323 -0.600826 0)
(-0.00303654 -0.588412 0)
(-0.0190593 -0.604446 0)
(-0.0339565 -0.523752 0)
(-0.0486593 -0.0853255 0)
(-0.026597 0.0342188 0)
(0.00981916 0.0552546 0)
(0.0236669 -0.141593 0)
(0.06882 -0.545485 0)
(0.0510808 -0.59158 0)
(0.0374708 -0.584462 0)
(0.0222363 -0.578652 0)
(0.00628055 -0.584686 0)
(-0.0127563 -0.506547 0)
(-0.00315543 -0.106531 0)
(-0.0178941 0.0442773 0)
(0.0192518 0.0534743 0)
(0.042592 -0.226734 0)
(0.0570338 -0.550167 0)
(0.0253689 -0.543663 0)
(0.00933512 -0.53449 0)
(-0.00202266 -0.539986 0)
(-0.0238156 -0.540243 0)
(-0.042894 -0.504186 0)
(0.00799458 -0.108619 0)
(-0.0278535 0.0558557 0)
(0.0465956 0.0374341 0)
(0.0635992 -0.253172 0)
(0.0579901 -0.496803 0)
(0.0261131 -0.509206 0)
(0.0115402 -0.509676 0)
(-0.0108025 -0.510419 0)
(-0.0318174 -0.506135 0)
(-0.0403909 -0.507397 0)
(-0.0303744 -0.112842 0)
(-0.0266551 0.0480992 0)
(0.0657719 0.0159588 0)
(0.0644673 -0.256801 0)
(0.057246 -0.453155 0)
(0.0327343 -0.466486 0)
(0.0134924 -0.466658 0)
(-0.0068442 -0.471377 0)
(-0.0259514 -0.464866 0)
(-0.0615605 -0.457564 0)
(-0.0597866 -0.168183 0)
(-0.0389046 -0.00070198 0)
(0.043606 -0.045775 0)
(0.0684207 -0.250765 0)
(0.0584213 -0.405205 0)
(0.0147877 -0.422307 0)
(-0.0051123 -0.431641 0)
(-0.0268121 -0.434576 0)
(-0.0482652 -0.42654 0)
(-0.0686786 -0.398468 0)
(-0.0786577 -0.175001 0)
(-0.0516929 -0.0428495 0)
(-0.0125578 -0.0808459 0)
(0.0714375 -0.29416 0)
(0.0572392 -0.363337 0)
(0.0407807 -0.376732 0)
(0.025303 -0.381024 0)
(-0.00505036 -0.385221 0)
(-0.0323856 -0.380036 0)
(-0.0712772 -0.356225 0)
(-0.0740811 -0.249205 0)
(-0.0067962 -0.063471 0)
(0.0989367 -0.130015 0)
(0.0670508 -0.292364 0)
(0.0614022 -0.318948 0)
(0.0199809 -0.333976 0)
(-0.000663911 -0.332692 0)
(-0.0284937 -0.329088 0)
(-0.0497156 -0.326243 0)
(-0.0700106 -0.308055 0)
(-0.076641 -0.272549 0)
(-0.076202 -0.0927904 0)
(0.0939671 -0.200675 0)
(0.0732422 -0.228906 0)
(0.0707845 -0.266933 0)
(0.0426976 -0.286735 0)
(0.0230722 -0.288674 0)
(-0.00511918 -0.284743 0)
(-0.0264242 -0.276165 0)
(-0.0675895 -0.257857 0)
(-0.0746315 -0.215424 0)
(-0.0978881 -0.179868 0)
(0.0546646 -0.134273 0)
(0.0491513 -0.198233 0)
(0.037194 -0.234507 0)
(0.0108186 -0.246187 0)
(-0.00186937 -0.249796 0)
(-0.0234324 -0.248635 0)
(-0.0335156 -0.243039 0)
(-0.0497738 -0.22915 0)
(-0.0522678 -0.19009 0)
(-0.059548 -0.122497 0)
(0.101317 -0.0336131 0)
(0.132641 -0.0402323 0)
(0.162399 -0.0466648 0)
(0.195899 -0.0324446 0)
(0.206605 0.015812 0)
(0.166149 0.0701456 0)
(0.0946956 0.0554421 0)
(0.0456303 0.0184915 0)
(0.0302763 0.00270221 0)
(0.0239467 0.0117104 0)
(0.000436394 0.0235553 0)
(-0.0183981 0.00850646 0)
(-0.0231896 -0.00993268 0)
(-0.0234858 -0.0147234 0)
(-0.0139219 -0.0194041 0)
(-0.0132678 -0.0131511 0)
(-0.0246635 -0.00377201 0)
(-0.030189 -0.0106778 0)
(-0.0218991 -0.0209535 0)
(-0.0102222 -0.0191174 0)
(-0.00347899 -0.00101345 0)
(-0.0214443 0.00404139 0)
(-0.0480799 0.0180319 0)
(-0.0878174 0.0283333 0)
(-0.137295 0.050987 0)
(-0.186681 0.0714499 0)
(-0.250434 0.0821158 0)
(-0.317498 0.0659487 0)
(-0.371214 0.0292921 0)
(-0.405638 0.00446653 0)
(-0.420179 -0.0233294 0)
(-0.427671 -0.0554867 0)
(-0.420167 -0.0696593 0)
(-0.408646 -0.0765197 0)
(-0.382458 -0.0879746 0)
(-0.345229 -0.0912244 0)
(-0.310924 -0.110484 0)
(-0.230316 -0.130699 0)
(-0.134625 -0.147581 0)
(-0.0745405 -0.0976319 0)
(0.10971 -0.0755028 0)
(0.127244 -0.0745754 0)
(0.141382 -0.0668566 0)
(0.150068 -0.0420261 0)
(0.153452 0.0226394 0)
(0.131768 0.108274 0)
(0.101046 0.133398 0)
(0.0771705 0.0947289 0)
(0.0530443 0.04243 0)
(0.0318009 0.0420102 0)
(0.0182117 0.0504165 0)
(-0.00495206 0.0380568 0)
(-0.0132715 0.0251854 0)
(-0.0415851 0.00275295 0)
(-0.0752436 -0.00419894 0)
(-0.132687 0.0610131 0)