/*--------------------------------*- C++ -*----------------------------------*\
  =========                 |
  \\      /  F ield         | OpenFOAM: The Open Source CFD Toolbox
   \\    /   O peration     | Website:  https://openfoam.org
    \\  /    A nd           | Version:  8
     \\/     M anipulation  |
\*---------------------------------------------------------------------------*/
FoamFile
{
    version     2.0;
    format      ascii;
    class       volScalarField;
    location    "8.55";
    object      p_rgh;
}
// * * * * * * * * * * * * * * * * * * * * * * * * * * * * * * * * * * * * * //

dimensions      [1 -1 -2 0 0 0 0];

internalField   nonuniform List<scalar> 
9150
(
1963.91
1962.9
1962.25
1961.8
1961.56
1961.56
1961.79
1962.26
1962.91
1963.91
1963.47
1962.96
1962.53
1962.2
1962.02
1962.05
1962.23
1962.53
1962.97
1963.47
1963.2
1962.93
1962.67
1962.45
1962.34
1962.33
1962.44
1962.67
1962.93
1963.2
1963.08
1962.91
1962.74
1962.59
1962.5
1962.5
1962.58
1962.74
1962.91
1963.08
1963.08
1962.91
1962.77
1962.64
1962.58
1962.58
1962.63
1962.76
1962.9
1963.08
1951.85
1951.25
1951.69
1952.03
1952.23
1952.23
1952.05
1951.7
1951.26
1951.86
1956.14
1955.42
1955.32
1955.27
1955.36
1955.37
1955.28
1955.35
1955.45
1956.16
1959.33
1958.56
1958.25
1957.91
1957.83
1957.82
1957.89
1958.25
1958.57
1959.34
1962.09
1960.9
1960.4
1959.8
1959.62
1959.61
1959.82
1960.41
1960.91
1962.1
1964.51
1962.52
1961.73
1961.08
1960.81
1960.79
1961.09
1961.74
1962.52
1964.51
1947.57
1945.91
1944.03
1942.88
1942.29
1942.19
1942.79
1943.99
1946.08
1947.58
1946.7
1946.31
1945.26
1944.91
1944.42
1944.52
1945.03
1945.44
1946.41
1946.87
1945.95
1946.18
1945.14
1945.63
1945.05
1945.1
1945.52
1945.2
1946.29
1946.02
1942.76
1945.74
1944.8
1946.3
1946.22
1946.28
1946.3
1944.92
1945.77
1942.84
1937.62
1946.53
1947.24
1948.43
1948.9
1948.92
1948.43
1947.3
1946.57
1937.66
1672.3
1672.3
1672.29
1672.33
1672.23
1672.35
1672.35
1672.32
1672.29
1672.25
1672.54
1672.34
1672.26
1672.21
1672.17
1672.45
1672.42
1672.38
1672.34
1672.29
1672.52
1672.43
1672.19
1672.17
1672.14
1672.11
1672.16
1672.34
1672.38
1672.28
1672.38
1672.48
1672.43
1672.06
1672.04
1672.03
1672
1672.41
1672.45
1672.14
1672.25
1672.41
1672.5
1671.97
1671.97
1671.96
1672.02
1672.46
1672.38
1671.95
1672.13
1672.23
1671.92
1671.85
1671.95
1672.03
1672.06
1672.45
1672.3
1671.81
1672.06
1671.6
1671.71
1671.74
1672.46
1672.51
1672.33
1672.35
1672.2
1671.85
1671.48
1671.66
1671.62
1672.12
1672.36
1672.34
1672.28
1672.2
1672.04
1671.86
1671.44
1672.25
1672.17
1672.35
1672.32
1672.06
1672.19
1672.11
1671.99
1671.81
1671.82
1672.36
1672.41
1672.42
1672.4
1672
1671.93
1672.18
1672.06
1671.9
1672.52
1672.58
1672.61
1672.62
1672.6
1672.09
1672.02
1672.17
1672.23
1672.1
1672.89
1672.94
1672.91
1672.88
1672.85
1672.67
1672.2
1672.14
1672.19
1672.37
1673.3
1673.26
1672.39
1672.66
1673.18
1673.16
1673.05
1672.41
1672.34
1672.29
1673.95
1672.72
1672.51
1672.44
1673.4
1673.52
1673.47
1673.36
1672.77
1672.97
1673.47
1672.92
1672.85
1672.72
1673.85
1673.87
1673.81
1673.74
1673.65
1673.53
1673.47
1673.39
1673.27
1673.43
1674.37
1674.26
1674.18
1674.08
1673.98
1673.85
1674.36
1674.18
1674.6
1675.04
1674.86
1674.71
1674.59
1674.48
1674.35
1674.2
1676.26
1676.02
1675.74
1675.46
1675.25
1675.05
1674.89
1674.82
1674.73
1674.61
1676.21
1675.84
1675.76
1675.74
1675.72
1673.19
1667.08
1668.14
1672.39
1675.07
1678.27
1672.23
1667.63
1667.62
1667.18
1666.72
1666.74
1666.67
1666.51
1666.27
1678.76
1678.47
1676.35
1674.8
1673.61
1671.92
1670.16
1671.04
1672.64
1672.48
1679.81
1679.56
1679.3
1679.03
1678.78
1678.48
1678.12
1677.84
1677.45
1676.11
1680.76
1680.45
1680.1
1679.72
1679.34
1679.02
1673.73
1670.83
1670.74
1670.64
1681.87
1681.62
1681.3
1680.94
1675.58
1671.85
1671.59
1671.78
1679.01
1679.03
1682.83
1682.63
1682.38
1681.67
1674.46
1672.53
1675.25
1679.5
1679.32
1679.26
1683.3
1682.97
1682.37
1681.7
1678.02
1676.18
1679.07
1678.55
1678.31
1678.31
1682.62
1682.01
1681.32
1680.72
1680.15
1679.14
1677.69
1676.27
1674.02
1676.41
1646.97
1658.98
1680.24
1679.68
1678.95
1677.79
1669.48
1622.44
1642.03
1674.52
1623.09
1622.15
1632.53
1653.72
1670.09
1658.15
1619.76
1617.98
1616.9
1652.04
1621.15
1620.8
1620.2
1619.53
1619.46
1619.6
1619.13
1618.44
1624.22
1671.15
1634.77
1619.63
1619.41
1618.96
1618.62
1624.61
1621.67
1639.07
1669.53
1680.72
1670.92
1655.55
1648.77
1660.41
1672.84
1675.48
1675.65
1680.48
1682.21
1681.94
1681.6
1681.31
1680.2
1682.04
1682.6
1682.86
1682.95
1682.82
1682.57
1682.38
1681.26
1681.72
1680.37
1681.6
1681.7
1681.67
1679.58
1679.81
1682.5
1682.44
1681.4
1681.91
1681.68
1680.56
1680.7
1681.73
1679.17
1678.96
1681.47
1682.64
1680.24
1682.86
1683.21
1681.39
1681.25
1681.6
1683.05
1681.87
1680.31
1664.5
1680.11
1683.85
1684.6
1684.59
1682.99
1683.9
1685.11
1685.01
1676.06
1652.9
1683.29
1685.77
1686.06
1686.24
1686
1686.34
1686.3
1685.92
1683.02
1658.28
1687.43
1687.21
1687.2
1687.26
1687.3
1687.07
1686.54
1685.88
1685.2
1681.35
1688.53
1688.08
1687.94
1687.87
1687.47
1687.22
1686.54
1685.25
1684.4
1683.92
1689.14
1688.45
1688.33
1688.03
1687.54
1687
1686.16
1684.86
1683.29
1682.19
1615.76
1602.1
1616.53
1630.5
1654.66
1688.21
1687.44
1685.36
1647.88
1648.83
1602.92
1602.2
1601.63
1600.88
1599.83
1608.66
1664.56
1640.57
1596.84
1595.52
1616.15
1603.95
1602.79
1601.98
1601.12
1600.08
1599.15
1598.74
1597.85
1596.59
1690.56
1687.92
1676.63
1663.28
1654.52
1663.58
1670.2
1659.79
1599.21
1598.42
1694.15
1693.97
1693.14
1692.23
1690.96
1689.59
1688.3
1687.09
1680.06
1662.96
1658.35
1681.83
1692.85
1690.75
1687.47
1682.83
1681.72
1683.09
1680.1
1689.36
1698.57
1697.65
1683.59
1541.17
1503.03
1497.98
1495.37
1496.4
1639.91
1690.24
1695.31
1694.44
1693.51
1693.04
1573.58
1492.13
1491.51
1490.93
1490.48
1491.26
1692.05
1691.49
1691.25
1691.33
1673.02
1495.46
1488.11
1487.4
1542.12
1613.03
1689.84
1689.03
1688.93
1657.55
1577.16
1569.29
1647.41
1684.26
1689.37
1686.59
1688.26
1672.06
1576.34
1577.15
1619.84
1689.83
1690.48
1689.73
1688.64
1680.84
1687.23
1593.31
1547.2
1647.83
1690.38
1690.92
1690.5
1689.02
1554.94
1401.86
1683.12
1548.29
1542.49
1565.29
1674.75
1692.15
1693.28
1693.56
1490.34
1403.54
1693.19
1609.21
1542.85
1542.54
1542.16
1622.51
1697.01
1697.13
1611.75
1410.82
1696.97
1698.1
1670.3
1545.87
1544.28
1605.66
1695.05
1695.21
1693.85
1423.8
1697.47
1698.35
1697.63
1671.42
1583.06
1664.81
1696.71
1696.63
1696.42
1461.87
1595.45
1643.08
1696.21
1695.89
1666.05
1676.34
1697.14
1697.05
1696.1
1468.51
1544.45
1549.85
1675.73
1694.16
1694.6
1692.3
1696.98
1697.72
1697.73
1574.14
1539.8
1539.48
1618.83
1693.95
1693.79
1694.76
1696.13
1697.5
1698.6
1700
1530.57
1531.51
1532.16
1554.62
1673.51
1693.51
1695.25
1696.94
1698.27
1698.56
1677.37
1685.16
1582.51
1544.76
1547.23
1637.91
1693.61
1695.02
1681.76
1671.71
1676.34
1677.91
1679.09
1679.26
1674.2
1656.74
1667.25
1687.47
1691.72
1690.88
1668.08
1669.67
1671.47
1672.94
1675.24
1678.29
1677.73
1683.17
1686.34
1687.38
1650.28
1658.3
1659.63
1661.58
1664.27
1667.37
1670.7
1674.48
1677.89
1681.11
1358.3
1591.69
1647.4
1647.52
1648.17
1653.7
1656.51
1659.95
1665.59
1671.13
1594.26
1587.01
1472.23
1488.12
1614.14
1636.69
1611.79
1402.06
1447.42
1629.26
1265.56
1427.57
1325.13
1194.37
1239.23
1213.69
1114.97
1113.95
1271.53
1643.65
877.94
1018.58
1136.26
1127.86
1118.21
1104.87
1106.92
1109.38
1110.86
1111.87
878.595
884.413
996.555
1179.48
1258.14
1280.6
1190.76
1109.72
1104.77
1104.06
1070.29
1540.2
1653.99
1653.77
1654.04
1653.69
1653.2
1649.3
1626.35
1480.85
1659.17
1657.5
1655.61
1653.75
1651.79
1649.77
1647.59
1646.33
1645.31
1585.9
1662.37
1660.97
1658.96
1656.6
1654.21
1651.81
1650.03
1647.48
1458.52
1101.6
1665.33
1665.85
1665.84
1665.24
1664.37
1661.98
1645.78
1385.97
1187.2
1163.36
1672.3
1674.01
1676.04
1678.86
1680.73
1679.24
1625.73
1603.59
1654.26
1674.38
1687.83
1690.84
1693.24
1695.59
1697.9
1698.46
1700.31
1703.18
1706.16
1709.5
1704.46
1706.97
1709.43
1711.95
1714.6
1717.23
1719.69
1721.9
1723.94
1719.06
1719.62
1722.44
1725.73
1728.79
1731.96
1735.08
1728.89
1724.04
1729.38
1693.26
1687.85
1731.68
1730.54
1744.1
1748.19
1751.39
1738.28
1512.41
1408.86
1517.59
1480.38
1480.74
1488.34
1729.25
1744.42
1717.61
1643.01
1415.53
1416.56
1417.02
1694.2
1498.76
1477.98
1484.45
1470.18
1467.37
1456.58
1426.53
1427.88
1428.72
1734.83
1741.91
1749.64
1760.86
1762.66
1586.6
1511.51
1488.74
1437.7
1438.29
1726.58
1704.05
1701.51
1758.66
1775.48
1789.66
1801.44
1809.04
1770.52
1513.84
1714.13
1596.11
1564.92
1600.64
1735.21
1780.63
1798.8
1812.86
1820.8
1824.57
1648.01
1698.48
1555.65
1545.65
1554.67
1699.03
1788.52
1806.74
1820.4
1810.47
1738.51
1743.76
1748.82
1589.48
1548.44
1556.51
1758.21
1795.91
1804.48
1742.04
1747.95
1751.92
1755.23
1757.03
1554.66
1604.47
1757.8
1779.9
1786.14
1774.91
1753
1765.43
1767.96
1768.5
1582.24
1743.06
1766.79
1768.31
1682.75
1537.96
1718.47
1784.15
1786.65
1777.31
1709.78
1775.3
1773.93
1707.04
1230.05
1233.6
1555.17
1801.72
1805.75
1682.13
1738.1
1794.07
1780.25
1135.49
1144.73
1380.28
1810.42
1816.72
1821.07
1698.17
1748.38
1803.42
1736.91
845.92
1165.26
1467.45
1819.45
1820.45
1820.6
1702.1
1813.47
1812.87
1391.52
697.297
797.061
668.884
1577.71
1798.26
1736.32
1696.54
1831.63
1822.66
1384.52
355.724
580.993
86.1836
999.225
1210.46
1053.2
1743.21
1841.4
1835.14
1552.6
209.939
153.335
75.4783
368.324
621.27
845.836
1772.68
1851.93
1850.51
1725.63
373.353
2.82655
24.3692
4.70962
21.3971
707.097
1840.78
1869.72
1870.11
1815.06
597.862
2.05695
1.19387
0.25558
2.03653
1193.43
1887.89
1890.47
1891.1
1890.51
1218.16
1.18535
1.09705
0.0966407
157.872
1677.38
1909.37
1910.61
1911.14
1910.04
1640.55
128.923
1.17678
0.198601
1111.62
1925.52
1926.44
1926.23
1926.45
1926.86
1925.17
1078.25
1.38688
602.201
1875.49
1939.27
1937.35
1936.66
1936.89
1937.41
1939.14
1868.96
578.599
1672.2
1672.14
1672.05
1671.96
1671.86
1671.85
1672
1671.62
1671.3
1671.04
1670.74
1670.42
1670.09
1669.7
1669.29
1669.06
1668.83
1668.44
1667.76
1666.93
1666.12
1665.46
1665.15
1665.23
1665.4
1665.57
1665.72
1665.87
1665.96
1665.98
1666.05
1666.16
1666.06
1666.15
1666.21
1666.23
1666.24
1666.19
1666.13
1666.15
1672.25
1672.18
1672.06
1671.87
1671.63
1671.42
1671.19
1671.04
1670.8
1670.62
1670.41
1670.18
1669.9
1669.48
1669.31
1668.62
1668.18
1667.35
1666.43
1665.45
1664.57
1664.08
1664.15
1664.69
1665.15
1665.45
1665.65
1665.87
1666
1665.72
1665.95
1666.04
1666.14
1666.18
1666.18
1666.2
1666.26
1666.33
1666.36
1666.34
1672.21
1672.08
1672
1671.83
1671.63
1671.34
1670.62
1670.13
1669.79
1670.5
1670.63
1670
1669.68
1669.4
1668.92
1668.9
1668.22
1666.9
1665.39
1664.06
1663.49
1663.5
1663.68
1664.12
1664.17
1664.35
1664.43
1665.15
1665.83
1666.14
1666.45
1666.41
1666.23
1666.07
1665.95
1665.88
1665.87
1665.94
1665.88
1666.06
1672.05
1671.94
1671.96
1671.86
1671.73
1671.53
1669.35
1668.96
1668.92
1669.66
1671.31
1670.53
1669.66
1669.72
1669.33
1668.24
1666.76
1664.98
1664.18
1663.28
1663.02
1664.83
1665.68
1666.3
1664.27
1663.89
1663.98
1663.95
1665.3
1666.53
1666.36
1666.33
1666.11
1665.89
1665.64
1664.92
1665.04
1665.15
1665.56
1666.45
1671.87
1671.79
1671.88
1671.82
1671.72
1671.53
1668.5
1667.83
1667.62
1670.1
1670.82
1670.02
1669.05
1667.84
1666.49
1665.42
1664.47
1663.36
1662.83
1663.09
1663.31
1663.99
1664.97
1665.82
1666.21
1663.86
1663.93
1664.17
1663.81
1665.46
1663.54
1663.75
1665.13
1665.48
1665.49
1664.87
1664.83
1665.13
1665.89
1666.28
1671.71
1671.65
1671.72
1671.64
1671.59
1670.92
1666.05
1666.06
1666.72
1669.83
1668.95
1667.72
1666.34
1664.72
1662.81
1661.21
1660.13
1659.75
1659.6
1659.75
1659.91
1661.05
1662.64
1664.02
1665.33
1666.56
1665.74
1663.56
1662.79
1661.67
1661.03
1660.67
1661.23
1664.65
1665.71
1665.38
1664.26
1663.44
1664.42
1665.61
1671.6
1671.63
1671.49
1671.32
1670.16
1664.86
1664.49
1664.31
1668.6
1667.98
1666.55
1664.76
1662.79
1660.53
1657.77
1655.14
1653.41
1653.44
1654.43
1654.27
1655.15
1656.5
1658.22
1661.42
1663.2
1664.47
1665.63
1666.7
1666.99
1664.97
1660.29
1660.02
1660.11
1660.14
1659.98
1661.28
1666.18
1661.36
1660.84
1660.96
1671.6
1671.4
1671.12
1670.58
1665.49
1662.86
1662.8
1668.36
1667.54
1665.93
1664.11
1661.88
1659.55
1656.89
1644.79
1636.74
1634.24
1640.58
1649.4
1651.01
1653.11
1653.82
1655.88
1657.88
1659.87
1662.38
1662.98
1663.67
1665.39
1665.66
1666.08
1661.78
1659.94
1663.49
1666.91
1666.99
1666.36
1662.69
1661.48
1661.63
1671.59
1671.34
1671.07
1668.94
1661.47
1661
1662.05
1667.56
1666.22
1664.6
1662.75
1660.6
1658.26
1655.57
1640.48
1635.15
1632.66
1631.38
1631.45
1641.85
1652.89
1655.65
1656.75
1657.71
1658.42
1659.82
1660.02
1651.96
1659.14
1665.23
1665.88
1667.09
1667.24
1666.72
1667.4
1667.59
1667.67
1667.2
1666.21
1665.79
1671.7
1671.46
1671.23
1668.67
1660.38
1659.45
1658.78
1666.95
1665.59
1664.16
1662.51
1660.76
1658.91
1657.34
1652.42
1646.27
1633.23
1632.23
1631.94
1632.28
1653.97
1656.26
1658.34
1660.34
1662.11
1663.89
1663.61
1648.21
1648.37
1657.73
1665.18
1664.87
1668.01
1668.44
1666.7
1666.31
1666.27
1666.92
1667.9
1667.96
1671.9
1671.64
1671.45
1668.89
1659.76
1658.44
1657.34
1658.16
1665.33
1664.19
1662.89
1661.64
1660.44
1659.55
1659.05
1658.81
1648.84
1634.25
1634.01
1633.9
1653.77
1657.95
1659.79
1661.58
1663.11
1664.98
1665.62
1647.61
1645.8
1649.7
1666.5
1660.95
1660.87
1667.7
1667.51
1667.21
1667.2
1666.22
1665.25
1667.71
1672.17
1671.91
1671.68
1667.25
1659.5
1658.2
1658.86
1656.82
1655.94
1659.99
1663.73
1662.68
1661.79
1661.09
1660.65
1660.46
1650.69
1635.34
1635.42
1637.5
1657.84
1660.42
1662.01
1662.31
1663.34
1666.11
1667.16
1653.23
1646.39
1657.75
1667.43
1661.36
1659.03
1665.5
1666.36
1666.41
1666.62
1664.03
1664.34
1665.04
1672.54
1672.18
1671.77
1667.19
1659.82
1660.24
1669.92
1660.9
1656.2
1655.03
1654.23
1660.67
1663.13
1662.51
1662.07
1661.78
1661.58
1643.93
1636.71
1642.66
1660.44
1662.68
1663.85
1663.55
1664.7
1666.81
1666.61
1647.32
1645.9
1667.73
1667.01
1659.25
1657.96
1664.69
1662.53
1660.74
1665.83
1666.76
1665.9
1664
1672.95
1672.62
1672.25
1671.3
1661.54
1660.93
1669.09
1670.31
1661.06
1655.38
1654.63
1655.09
1664.17
1663.99
1663.5
1663.15
1662.91
1661.24
1662.15
1663.26
1663.81
1664.68
1665.65
1665.1
1666.61
1667.84
1663.31
1645.47
1645.44
1670
1664.51
1655.75
1659.15
1667
1659.91
1658.39
1663.47
1668.72
1666.24
1663.56
1673.34
1673
1672.76
1672.38
1669.5
1666.34
1669.41
1670.2
1669.16
1663.52
1657.54
1660.66
1665.77
1665.32
1664.87
1664.57
1663.73
1662.69
1663.79
1665.06
1665.69
1666.53
1667.06
1666.64
1668.47
1669.53
1657.81
1645.55
1662.88
1671.85
1661.57
1656.67
1662.15
1667.4
1663.2
1658.07
1658.52
1658.96
1658.79
1659.08
1673.69
1673.39
1673.18
1672.97
1672.56
1671.84
1670.93
1670.49
1669.78
1669.04
1668.03
1667.5
1666.85
1666.31
1665.91
1665.64
1665.31
1663.83
1664.83
1666.32
1666.97
1667.81
1667.77
1667.83
1669.66
1670.89
1657.15
1652.16
1670.67
1670.97
1664.2
1654.34
1653.73
1657.71
1657.15
1666.34
1670.11
1665.98
1665.38
1659.34
1674.04
1673.85
1673.64
1673.37
1672.99
1672.45
1671.83
1670.96
1669.77
1669.03
1668.4
1667.77
1667.21
1666.7
1666.15
1666.32
1666.46
1666.61
1666.81
1667.27
1667.78
1668.35
1667.88
1667.82
1669.94
1671.05
1665.31
1651.44
1668.46
1669.25
1669.91
1661.01
1653.85
1653.71
1654.78
1657.97
1670.87
1673.35
1673.38
1663.29
1674.45
1674.26
1674.05
1673.77
1673.35
1672.81
1672.22
1671.54
1670.49
1662
1656.32
1658.88
1661
1663.34
1666.36
1667.04
1666.86
1666.62
1667.39
1668.21
1668.35
1668.49
1667.78
1666.09
1666.97
1667.52
1652.67
1651.33
1666.78
1668.27
1669.4
1670.38
1670.94
1669.68
1666.23
1668.66
1669.65
1673.48
1673.6
1669.89
1674.79
1674.5
1674.49
1674.18
1673.74
1673.27
1672.8
1672.3
1661.43
1657.15
1656.55
1655.85
1655.09
1654.56
1656.58
1661.07
1656.27
1659.81
1668.2
1669.35
1669.25
1668.64
1667.99
1666.14
1638.91
1627.96
1626.91
1650.52
1665.7
1667.31
1668.65
1669.92
1671
1671.63
1672.21
1672.81
1673.46
1673.96
1674.2
1670.76
1669.63
1674.21
1675.14
1674.76
1674.35
1673.94
1673.78
1672.77
1658.83
1658.44
1657.83
1657.25
1656.8
1656.4
1656.09
1655.98
1655.96
1664.84
1670.62
1670.53
1670.22
1669.83
1666.05
1628.99
1625.32
1625.28
1624.7
1630.09
1663.78
1667.54
1668.93
1670.22
1671.32
1672.26
1673.03
1673.69
1674.25
1674.8
1675.18
1673.77
1673.74
1674.62
1674.96
1674.59
1673.22
1673.25
1674.68
1674.16
1670.73
1663.61
1666.07
1669.5
1658.01
1657.44
1656.97
1659.29
1665.66
1665.88
1667.67
1671.78
1671.12
1663.29
1626.56
1624.96
1624.71
1624.53
1624.23
1633.85
1666.76
1668.75
1669.8
1670.97
1672.04
1672.96
1673.8
1674.55
1675.15
1675.67
1676.03
1676.18
1670.33
1670.22
1670.05
1669.73
1669.62
1669.56
1674.37
1676.16
1676.25
1676.11
1675.89
1670.89
1659.4
1661.3
1671.17
1674.21
1668.19
1666.06
1665.46
1671.5
1671.77
1657.02
1623.3
1623.31
1623.08
1632.15
1632.6
1645.39
1667.48
1669.92
1670.87
1671.77
1672.5
1673.44
1674.17
1674.98
1675.72
1676.35
1676.82
1677.05
1670.48
1670.95
1677.14
1674.01
1673.14
1675.95
1676.84
1676.88
1676.73
1676.51
1676.11
1673.35
1672.69
1674.33
1674.66
1674.28
1673.79
1671.85
1665.95
1660.36
1655.78
1648.4
1628.14
1633.31
1655.63
1669.51
1669.6
1669.04
1668.92
1668.34
1663.82
1665.19
1671.84
1673.35
1674.03
1674.97
1675.8
1676.53
1677.12
1677.5
1678.18
1678.41
1677.8
1676.58
1675.99
1676.98
1677.42
1677.08
1675.19
1674.06
1674.93
1674.44
1674.06
1674.16
1674.86
1674.76
1674.43
1673.89
1666.05
1631.23
1629
1627.94
1648.13
1664.32
1669.75
1670.44
1669.82
1669.13
1668.56
1662.09
1611.49
1645.9
1671.92
1672.8
1673.68
1674.75
1675.71
1676.53
1677.19
1677.68
1679.14
1679.01
1669.36
1657.48
1657.63
1657.62
1657.9
1657.86
1658.64
1670.8
1663.86
1657.39
1657.15
1657.59
1671.69
1675.38
1675.24
1674.96
1640.09
1628.72
1627.92
1627.18
1626.71
1626.73
1651.49
1669.97
1669.84
1669.59
1649.71
1597.86
1598.9
1601.11
1659.35
1671.73
1672.8
1673.87
1674.96
1676.07
1677.12
1678.12
1678.36
1676.81
1660.16
1656.95
1659.54
1671.87
1676.26
1675.2
1669.23
1664.58
1655.85
1656.17
1656.45
1670.73
1673.82
1658.46
1630.52
1629.88
1629.62
1629.55
1628.98
1627.98
1626.81
1630.97
1665.33
1668.24
1664.56
1603.04
1596.08
1596.31
1597
1597.18
1645.16
1670.18
1670.39
1671.11
1672.05
1673.22
1674.77
1676.74
1676.85
1677.27
1677.62
1677.84
1678.12
1678.01
1677.36
1675.8
1668.29
1661.96
1666.33
1671.13
1672.34
1672.8
1672.47
1666.92
1661.13
1646.16
1665.7
1666.96
1636.42
1627.83
1651
1664.56
1663.75
1601.54
1593.16
1593.31
1594.03
1594.28
1602.66
1665.3
1670.48
1668.45
1667.4
1666.54
1666.61
1667.55
1669.19
1671.33
1675.74
1676.55
1677.04
1677.39
1677.57
1677.47
1674.82
1641.11
1602.75
1596.69
1597.68
1619.69
1647.64
1649.47
1652.32
1656.02
1646.5
1647.8
1666.18
1665.78
1664.47
1652.46
1663.48
1653.37
1629.46
1632.61
1655.28
1648.65
1658.97
1653.12
1667.45
1670.09
1667.31
1664.07
1660.86
1658.41
1650.4
1636.29
1660.96
1663.65
1676.46
1673.31
1677.52
1677.97
1678.24
1678.46
1663.68
1595.74
1595.98
1596.27
1596.49
1622.38
1676.03
1676.29
1675.6
1654.95
1646.67
1651.02
1665.59
1664.78
1661
1648.25
1663.56
1658.41
1641.85
1634.44
1646.49
1672.95
1672.48
1671.78
1670.68
1668.64
1665.44
1660.75
1647.99
1566.39
1526.39
1538.98
1650.11
1662.02
1676.02
1673.44
1675.97
1679.06
1679.22
1679.41
1674.51
1608.76
1594.84
1618.15
1677.81
1677.3
1676.7
1675.86
1651.55
1644.73
1644.86
1644.87
1654.71
1655.63
1648.46
1647.99
1648.22
1669.96
1674.9
1674.56
1674.33
1673.9
1672.74
1670.92
1665.19
1660.53
1661.23
1640.62
1537.32
1520.49
1521.92
1525.74
1561.27
1656.4
1679.34
1675.03
1679.16
1680.34
1680.37
1680.47
1680.22
1651
1630.22
1677.85
1667.34
1653.63
1653.29
1656.18
1662.53
1663.38
1658.3
1644.4
1644.87
1644.36
1666.31
1676.39
1675.71
1674.9
1673.3
1665.9
1662.02
1665.99
1669.96
1646.88
1622.86
1630.55
1646.84
1562.62
1528.35
1529.31
1532.28
1535.6
1538.56
1542.16
1681.48
1680.75
1681.57
1681.48
1681.41
1681.36
1680.09
1657.09
1650.46
1678.43
1662.49
1651.02
1649.63
1656.27
1657.35
1656.53
1650.91
1653.96
1654.08
1644.78
1646.11
1676.31
1676.79
1670.21
1642.91
1632.06
1632.54
1636.16
1660.2
1622.89
1623.06
1624.66
1648.15
1627.89
1539.7
1535.72
1538.53
1545.52
1607.4
1614.26
1682.3
1682.14
1682.06
1681.94
1681.83
1681.93
1681.45
1661.13
1651.45
1676.14
1672.77
1658.7
1653.38
1651.84
1649.29
1646.09
1640.81
1634.71
1625.68
1654.62
1665.85
1664.64
1642.17
1632.41
1631.5
1631.15
1633.43
1672.83
1675.97
1651.66
1624.36
1624.66
1625.59
1629.41
1646.99
1653.74
1655.77
1660.07
1664.68
1654.03
1682.37
1682.19
1682
1681.68
1680.83
1681.74
1681.63
1661.67
1651.46
1676.24
1674.35
1672.43
1670.18
1670.82
1670.92
1671.43
1666.06
1598.94
1564.07
1675.84
1676.5
1666.31
1631.65
1631.2
1630.78
1630.24
1632.59
1672.37
1674.61
1674.7
1675.17
1675.39
1676.16
1677.85
1679.91
1682.05
1684.05
1685.37
1667.62
1655.28
1682.54
1682.39
1667.06
1653.01
1674.68
1681.78
1682.32
1678.18
1668.8
1670.98
1675.71
1674.03
1673.04
1672.37
1669.3
1649.87
1530.51
1470.37
1492.24
1673.15
1673.2
1673.07
1672.93
1657.67
1628.98
1642.75
1671.53
1671.36
1671.48
1674.12
1675.14
1674.86
1675.44
1676.76
1678.39
1680.09
1679.87
1682.6
1683.74
1683.77
1665.02
1661.3
1651.79
1651.68
1651.09
1675.25
1682.3
1682.13
1681
1677.65
1677.59
1676.25
1670.59
1657.06
1666.98
1533.31
1292.62
1295.51
1518.08
1672.58
1672.33
1672.05
1672.04
1672.1
1672.03
1671.49
1666.27
1659.95
1670.54
1673.34
1674.66
1675.18
1675.3
1676.32
1677.47
1676.13
1673.29
1677.56
1681.65
1682.68
1652.66
1652.23
1652.11
1651.96
1669.28
1682.74
1682.45
1682.02
1680.97
1680.21
1679.55
1678.02
1613.78
1606.29
1639.72
1454.41
1293.02
1287.77
1554.99
1674.19
1670.25
1668.16
1667.43
1667.29
1667.55
1667.02
1652.06
1602.55
1600.73
1639.61
1651.49
1634.9
1641.09
1656.86
1661.1
1665.32
1671.53
1679.07
1680.38
1681.46
1653.01
1653.88
1674.99
1681.53
1684.07
1683.57
1683.1
1682.57
1670.75
1665.67
1646.81
1610.62
1609.63
1610.72
1612.78
1617.05
1291.01
1285.46
1451.71
1664.45
1662.01
1660.36
1659.33
1658.74
1659.15
1659.35
1600.71
1449.47
1450.03
1628.93
1647.8
1580.26
1582.21
1601.47
1621.17
1669.5
1676.84
1677.74
1678.21
1679.16
1676.11
1681.55
1684.43
1684.39
1684.22
1684
1683.76
1683.6
1669.85
1655.49
1634.07
1611.04
1613.18
1611.48
1635.75
1676.66
1644.02
1280.72
1271.85
1581.54
1645.45
1644.11
1628.85
1609.77
1594.64
1536.18
1427.03
1385.63
1385.05
1477.66
1566.52
1563.1
1580.84
1626.42
1648.08
1675.69
1676.62
1659.56
1665.93
1677.38
1683.64
1683.56
1683.65
1683.78
1683.9
1684.09
1684.25
1684.37
1683.31
1670.51
1663.25
1662.29
1670.51
1674.91
1684.56
1684.46
1683.32
1590.19
1406.8
1240.86
1411.06
1570.8
1433.98
1292.77
1264.63
1254.86
1297.8
1397.52
1380.74
1382.5
1392.21
1571.63
1601.02
1641.58
1676.89
1676.76
1676.94
1650.62
1612.34
1615.08
1682.49
1682.69
1683.02
1683.44
1683.93
1684.33
1684.68
1685.05
1685.37
1683.74
1665.24
1663.49
1656.54
1664.66
1682.85
1681.49
1679.45
1676.46
1559.25
1203.92
1201.15
1210.61
1199.38
1200.32
1201.55
1256.62
1409.95
1657.11
1517.06
1383.81
1386.54
1465.14
1560.24
1576.93
1676.76
1680.45
1680.68
1652.52
1612.07
1612.88
1678
1677.65
1679.38
1684.01
1684.62
1685.19
1685.71
1685.98
1686.21
1668.77
1656.76
1657.12
1656.9
1660.78
1683.99
1663.45
1683.1
1668.78
1395.09
1201.66
1205.01
1204.55
1203.22
1202.34
1315.24
1676.65
1685.43
1687.02
1687.24
1514.26
1387.23
1394.07
1540.93
1545.9
1619.81
1685.25
1685.8
1677.04
1624.91
1616.59
1629.18
1679.14
1683.89
1685.97
1686.42
1686.69
1686.72
1686.68
1686.91
1680.91
1657.09
1657.63
1673.79
1687.07
1685.66
1627.03
1642.86
1625.37
1434.52
1205.62
1207.32
1247.12
1346.53
1579.42
1693.89
1691.66
1690.3
1689.63
1689.49
1683.19
1419.37
1390.89
1540.8
1546.03
1554.4
1634.44
1678.12
1682.24
1682.74
1644.34
1595.08
1674.57
1687.63
1688.08
1688.17
1687.92
1687.61
1687.29
1686.97
1687.25
1683.34
1675.39
1687
1687.63
1686.67
1577.28
1492.69
1480.49
1462.27
1439.56
1442.35
1489.93
1496.5
1608.44
1696.95
1695.01
1692.87
1689.44
1660.87
1446.82
1357.55
1379.01
1555.74
1583.49
1552.95
1554.36
1563.71
1669.7
1672.39
1627.61
1614.67
1685.52
1689.13
1688.67
1679.06
1680.8
1688.02
1686.55
1685.98
1686.38
1687.27
1678.35
1682.48
1690.57
1691.94
1662.53
1516.81
1501.21
1521.96
1570.99
1553.31
1523.7
1615.84
1699.25
1698.87
1697.33
1694.67
1619.12
1355.65
1354.04
1353.59
1351.89
1404.2
1581.35
1609.61
1585.51
1559.26
1561.43
1606.52
1632.78
1667.21
1685.49
1690.38
1690.43
1689.98
1689.31
1631.75
1461.34
1527.69
1666.77
1685.4
1687.83
1690.33
1683.02
1682.22
1684.66
1671.52
1630.42
1628.04
1658.7
1672.32
1696.46
1700.68
1701.21
1701.22
1700.53
1687.41
1538.09
1358.42
1352.53
1352.77
1352.57
1352.17
1351.43
1563.21
1666.02
1626
1566.27
1606.97
1669.02
1691.68
1691.12
1690.73
1690.72
1690.7
1690.43
1503.78
1433.37
1431.75
1440.23
1577.19
1616.26
1658.47
1684.69
1688.08
1683.88
1679.87
1691.07
1699.38
1688.92
1687.85
1701.42
1702.8
1703.39
1703.62
1702.64
1671.07
1695.2
1644.56
1483.51
1366.53
1352
1352.31
1352.24
1374.68
1660.23
1702.36
1603.76
1642.48
1672.64
1690.49
1690.39
1690.16
1690.5
1690.22
1646.35
1429.5
1425.33
1426.4
1506.84
1665.07
1605.67
1545.61
1608.3
1691.93
1695.21
1682.67
1688.78
1702.23
1699.85
1690.37
1690.98
1692.67
1704.91
1705.38
1702.93
1704.52
1704.78
1706.05
1707.86
1709.02
1655.14
1425.27
1523.07
1692.8
1699.37
1700.41
1679.08
1644.85
1674.22
1570.7
1688.58
1689.78
1689.09
1688.92
1480.65
1420.42
1421.72
1470.97
1659.27
1667.04
1665.44
1539.3
1578.23
1687.61
1698.31
1697.4
1698.31
1703.28
1703.96
1703.95
1693.06
1700.6
1706.62
1706.76
1706.24
1705.35
1696.95
1691.69
1689.28
1691.24
1689.45
1688.05
1678.56
1643.91
1684.68
1698.9
1690.57
1647.88
1658.16
1585.52
1612.96
1679.6
1640.15
1451.12
1413.15
1415.95
1418.25
1544.69
1668.4
1669.14
1669.29
1531.11
1615.6
1697.59
1700.56
1702.05
1702.47
1704.25
1704.87
1705.6
1706.19
1707.68
1708.42
1707.96
1707.29
1706.19
1557.63
1503.44
1597.91
1629.42
1636.55
1665.73
1659.71
1642.68
1642.21
1671.43
1691.88
1674.12
1685.75
1683.98
1634.73
1429.01
1409.18
1409.91
1411.57
1413.77
1415.27
1612.2
1670.38
1670.06
1640.84
1504.27
1618.73
1698.92
1700.44
1689.96
1687.7
1698.68
1705.06
1705.48
1706.2
1707.45
1707.77
1707.06
1708.13
1648.57
1457.3
1455.13
1557.06
1644.61
1638.08
1689.26
1695.17
1676.66
1659.71
1689.8
1690.82
1691.41
1692.08
1506.03
1402.11
1405.36
1407.03
1408.51
1410.63
1442.22
1632.06
1669.25
1668.08
1574.89
1493.39
1495.96
1557.93
1689.96
1698.28
1687.03
1687.66
1698.43
1704.9
1704.86
1704.3
1668.67
1599.61
1648.32
1711.58
1615.68
1448.61
1447.14
1466.06
1655.71
1682.74
1696.26
1695.6
1690.24
1581
1649.25
1688.23
1689.74
1638.8
1400.37
1401.93
1404.36
1409.1
1498.68
1590.15
1600.39
1566.99
1498.57
1492.35
1489.33
1489.73
1491.71
1519.89
1682.22
1700.78
1702.09
1703.72
1705.84
1705.55
1704.64
1583.61
1508.09
1515
1548.32
1702.05
1590.07
1447.53
1447.61
1447.21
1617.72
1698.76
1698.47
1697.57
1693.45
1634.49
1477.37
1478.22
1501.81
1502.76
1403.57
1461.41
1580.1
1663.42
1687.46
1661.36
1590.7
1526.73
1502.47
1487.56
1486.97
1488.16
1503.24
1550.52
1671.98
1706.84
1707.37
1707.12
1706.78
1653.87
1527.31
1502
1506.07
1557.74
1650.53
1485.97
1447.66
1448.21
1448.81
1457.64
1663.21
1702.13
1694.78
1655.99
1581.96
1530.93
1467.86
1469.77
1471.39
1547.43
1534.51
1675.13
1697.99
1698.03
1698.12
1683.63
1679.38
1679.49
1672.58
1644.53
1625.21
1587.35
1490.02
1492.82
1517.46
1657.2
1674.81
1621.84
1566.65
1495.27
1495.97
1499.46
1585.3
1707.73
1717.95
1717.37
1510.61
1448.88
1449.53
1681.51
1676.3
1655.23
1618.45
1528.87
1472.36
1471.73
1472
1472.39
1613.1
1619.55
1539.5
1697.47
1697.57
1697.53
1697.38
1697.05
1696.66
1696.18
1695.67
1695.29
1670.45
1496.53
1487.23
1490.02
1491.25
1491.07
1491.79
1490.7
1491.65
1492.89
1493.65
1590.45
1707.44
1715.79
1717.57
1709.8
1489.33
1449.69
1677.1
1723.22
1575.25
1556.59
1556.45
1605.88
1537.41
1473.59
1474.5
1504.22
1620.32
1620.95
1428.37
1515.74
1688.58
1695.13
1694.85
1694.48
1694.58
1695.06
1695.36
1682.79
1677.99
1553.28
1486.6
1488.47
1503.17
1488.33
1489.36
1490.38
1491.62
1492.88
1492.05
1651.81
1712.18
1714.52
1716.37
1622.63
1453.15
1452.2
1693.31
1727.4
1629.04
1559.55
1609.32
1719.09
1719.2
1654.94
1588.09
1606.85
1590.54
1569.1
1419.98
1417.74
1442.05
1546.69
1595.9
1591.97
1595.95
1610.63
1571.52
1557.73
1558.51
1618.27
1673.34
1678.05
1686.36
1639.46
1589.3
1566.04
1551.86
1493.28
1493.54
1621.71
1714.65
1716.54
1718.51
1711.21
1464.57
1508
1723.94
1727.16
1714.48
1710.5
1716.22
1717.53
1718.04
1698.27
1659.67
1685.8
1690.43
1690.05
1414.67
1414.97
1414.81
1415.39
1441.55
1602.41
1667.46
1628.42
1561
1555.35
1555.8
1556.59
1612.5
1704.55
1707.16
1709.58
1712.04
1713.87
1712.98
1681.57
1680.24
1671.53
1660.5
1682.63
1721.71
1706.65
1470.29
1632.01
1729.09
1728.31
1710.28
1686.68
1685.5
1684.92
1685.02
1699.56
1725.35
1714.37
1639.81
1566.37
1585.95
1421.25
1412.75
1430.09
1601.87
1665.32
1666.56
1668.55
1662.93
1626.4
1574.33
1553.9
1589.77
1699.85
1703.82
1706.69
1709.87
1713.24
1716.26
1718.69
1720.31
1663.88
1660.57
1672.88
1723.3
1702.75
1468.72
1617.02
1728.67
1727.28
1725.41
1714.21
1683.83
1681.6
1681.73
1705.99
1723.38
1704.31
1615.52
1519.51
1697.42
1668.56
1609.99
1637.49
1638.01
1615.7
1624.83
1666.42
1671.13
1673.65
1613.63
1551.63
1636.09
1695.31
1698.85
1702.02
1706.11
1710.22
1713.98
1717.26
1663.9
1659.49
1660.74
1689.05
1726.69
1666.26
1466.93
1531.27
1721.44
1726.65
1724.6
1721.94
1704.18
1708.92
1709.97
1717.77
1720.49
1716.36
1719.71
1529.2
1679.08
1679.6
1679.28
1609.16
1458.02
1358.23
1359.25
1546.83
1669.02
1671.72
1675.17
1672.09
1636.33
1544.16
1595.48
1701.94
1705.62
1709.78
1714.07
1717.83
1662.07
1659.97
1661.32
1711.79
1727.72
1678.21
1468.94
1588.44
1727.78
1726.93
1724.79
1721.72
1709.4
1462.35
1584.62
1706.16
1721.87
1725.7
1727.62
1707.47
1691.81
1635.23
1480.34
1355.39
1350.04
1349.27
1348.13
1346.38
1562.27
1671.65
1675.88
1679.56
1682.91
1560.19
1452.32
1467.06
1659.28
1714.15
1717.74
1720.62
1714.31
1662.53
1696.58
1727.76
1728.47
1688.69
1682.11
1726.74
1730.01
1730.14
1729.28
1727.02
1489.42
1358.72
1359.76
1654.1
1728.31
1730.73
1732
1733.26
1688.86
1651.28
1354.85
1344.52
1343.8
1343.74
1343.37
1343.21
1344.44
1612.71
1678.74
1683.28
1686.93
1656.41
1441.79
1441.03
1462.16
1685.7
1723.09
1725.04
1726.1
1725.43
1728.46
1729.43
1730.23
1726.29
1666.49
1612.64
1636.09
1659.72
1665.11
1445.38
1362.71
1361.35
1359.67
1650.56
1725.96
1736.49
1738.01
1732.68
1683.66
1679.68
1649.23
1381.56
1338.14
1339.51
1340.88
1342.53
1344.51
1524.85