/*--------------------------------*- C++ -*----------------------------------*\
  =========                 |
  \\      /  F ield         | OpenFOAM: The Open Source CFD Toolbox
   \\    /   O peration     | Website:  https://openfoam.org
    \\  /    A nd           | Version:  8
     \\/     M anipulation  |
\*---------------------------------------------------------------------------*/
FoamFile
{
    version     2.0;
    format      ascii;
    class       volVectorField;
    location    "8.55";
    object      U;
}
// * * * * * * * * * * * * * * * * * * * * * * * * * * * * * * * * * * * * * //

dimensions      [0 1 -1 0 0 0 0];

internalField   nonuniform List<vector> 
9150
(
(0.00480467 -0.0787631 0)
(0.0131072 -0.0974565 0)
(0.010965 -0.104706 0)
(0.00869356 -0.108022 0)
(0.00154242 -0.109935 0)
(-0.00374419 -0.109439 0)
(-0.00946452 -0.107606 0)
(-0.0110026 -0.104513 0)
(-0.0131717 -0.0973159 0)
(-0.00478025 -0.0786646 0)
(0.00579909 -0.0920068 0)
(0.00849622 -0.100502 0)
(0.00747905 -0.102251 0)
(0.00450009 -0.104355 0)
(0.00260789 -0.105306 0)
(-0.000808151 -0.10566 0)
(-0.00426931 -0.105028 0)
(-0.00741948 -0.102389 0)
(-0.00855177 -0.100424 0)
(-0.00581463 -0.0919542 0)
(0.00167273 -0.0954765 0)
(0.00450927 -0.0989727 0)
(0.00367011 -0.101163 0)
(0.00319295 -0.101858 0)
(0.000723689 -0.102543 0)
(-0.00122319 -0.10237 0)
(-0.00348811 -0.101698 0)
(-0.00384318 -0.100925 0)
(-0.00453644 -0.0989401 0)
(-0.00167906 -0.0954517 0)
(0.00169377 -0.0984083 0)
(0.00241672 -0.100382 0)
(0.00218815 -0.100166 0)
(0.00129958 -0.100792 0)
(0.00040223 -0.100901 0)
(-0.000527305 -0.100885 0)
(-0.00126851 -0.100914 0)
(-0.00222147 -0.100263 0)
(-0.00244682 -0.10038 0)
(-0.00169877 -0.0983979 0)
(0.000162864 -0.0994801 0)
(0.000700765 -0.0995873 0)
(0.000470753 -0.100045 0)
(0.000681882 -0.0998626 0)
(0.000271364 -0.100113 0)
(-0.000111044 -0.100122 0)
(-0.000667606 -0.0998795 0)
(-0.000463465 -0.100026 0)
(-0.000708678 -0.0995819 0)
(-0.000163485 -0.0994791 0)
(0.0741806 -0.193731 3.93428e-26)
(0.0492452 -0.184113 0)
(0.0294105 -0.17519 0)
(0.0148097 -0.174824 0)
(0.00439359 -0.175124 0)
(-0.00550647 -0.175169 0)
(-0.0154525 -0.17432 0)
(-0.0296407 -0.175452 0)
(-0.0493366 -0.184325 0)
(-0.074276 -0.193823 -3.93012e-26)
(0.0584216 -0.146798 9.70455e-27)
(0.0487892 -0.146656 0)
(0.0284678 -0.156019 0)
(0.0211672 -0.155609 0)
(0.00522341 -0.155244 0)
(-0.0043724 -0.155396 0)
(-0.0205488 -0.157087 0)
(-0.0282463 -0.156257 0)
(-0.0487367 -0.14669 0)
(-0.0583859 -0.146806 -9.91764e-27)
(0.0473101 -0.121184 4.21067e-27)
(0.04319 -0.131125 0)
(0.029459 -0.133526 0)
(0.0175065 -0.138105 0)
(0.00691406 -0.140187 0)
(-0.00565248 -0.14035 0)
(-0.0166039 -0.137252 0)
(-0.0292214 -0.133341 0)
(-0.0431142 -0.131086 0)
(-0.0472385 -0.121111 -4.08672e-27)
(0.0367946 -0.0991274 8.65661e-27)
(0.0393627 -0.1101 0)
(0.0229248 -0.120731 0)
(0.017251 -0.125242 0)
(0.0036207 -0.125208 0)
(-0.00558525 -0.125134 0)
(-0.017949 -0.124466 0)
(-0.0228414 -0.120568 0)
(-0.0392764 -0.110014 0)
(-0.0367125 -0.0990173 -8.74512e-27)
(0.0239524 -0.0818477 -2.0124e-26)
(0.0276478 -0.101432 -2.45193e-26)
(0.01979 -0.108495 -6.12511e-27)
(0.0107057 -0.114124 -5.14403e-27)
(0.00505775 -0.116847 -2.88164e-28)
(-0.0036584 -0.117263 -2.72564e-28)
(-0.0101384 -0.114716 -5.3543e-27)
(-0.0196778 -0.108356 -6.11907e-27)
(-0.0276745 -0.101302 -2.44136e-26)
(-0.0238741 -0.0817453 -2.0089e-26)
(0.0192245 -0.148857 0)
(0.0125848 -0.206298 0)
(0.0208815 -0.2199 0)
(0.00760838 -0.224768 0)
(0.00268216 -0.228082 0)
(-0.0120733 -0.226895 0)
(-0.012424 -0.222634 0)
(-0.0248511 -0.216172 0)
(-0.0151693 -0.205684 0)
(-0.0223588 -0.150771 0)
(0.0162086 -0.166608 0)
(0.00160932 -0.199782 0)
(0.0152595 -0.209756 0)
(0.00338003 -0.214005 0)
(0.00608682 -0.216013 0)
(-0.00457693 -0.215651 0)
(-0.00282942 -0.214285 0)
(-0.0151777 -0.209339 0)
(-0.00214558 -0.19815 0)
(-0.0150408 -0.16422 0)
(0.0138077 -0.173123 0)
(-0.00501788 -0.20417 0)
(0.0097403 -0.209977 0)
(-0.00155288 -0.211245 0)
(0.00160856 -0.210918 0)
(-0.00366304 -0.210649 0)
(-0.000333474 -0.209527 0)
(-0.0110786 -0.208917 0)
(0.00477173 -0.203449 0)
(-0.0152125 -0.172458 0)
(0.0189793 -0.195809 0)
(-0.00750944 -0.204974 0)
(0.00883183 -0.211294 0)
(-0.000417286 -0.206004 0)
(0.000289651 -0.20691 0)
(-0.00111172 -0.206709 0)
(-0.000338785 -0.20724 0)
(-0.00953381 -0.210824 0)
(0.00749496 -0.204543 0)
(-0.0191213 -0.195689 0)
(0.0379911 -0.216572 0)
(0.0112374 -0.203693 0)
(0.0155615 -0.201616 0)
(0.0126871 -0.19533 0)
(0.00226016 -0.191987 0)
(-0.00192665 -0.192037 0)
(-0.0127343 -0.194997 0)
(-0.01579 -0.201548 0)
(-0.0113078 -0.204028 0)
(-0.0380379 -0.216462 0)
(0.0196125 0.000480467 0)
(0.0190848 -0.00282457 0)
(0.0190305 -0.00222373 0)
(0.0178753 0.00027008 0)
(0.0135124 0.00480873 0)
(0.0100987 0.00307451 0)
(0.00880133 0.00176686 0)
(0.00818802 0.000191896 0)
(0.00899117 -0.00135369 0)
(0.00893649 -0.00123653 0)
(0.0200612 0.0095809 0)
(0.0128655 0.00309239 0)
(0.0101591 0.00656029 0)
(0.00699082 0.0100067 0)
(0.00576891 0.0101094 0)
(0.00431372 0.00609925 0)
(0.00349732 0.00209225 0)
(0.00292884 -0.000246072 0)
(0.00195503 -0.000100963 0)
(-0.00113776 0.00525646 0)
(0.025762 0.0290324 0)
(0.0163924 0.0154463 0)
(0.00985664 0.0115917 0)
(0.00695706 0.010786 0)
(0.00525835 0.0102799 0)
(0.00448193 0.00710441 0)
(0.00288307 0.00457311 0)
(0.00145809 0.00277197 0)
(-0.00152953 0.00637209 0)
(-0.00757446 0.0185463 0)
(0.0309316 0.0444107 0)
(0.0257021 0.0354348 0)
(0.0170007 0.0249304 0)
(0.0127838 0.0179645 0)
(0.00960777 0.0140465 0)
(0.00772031 0.0105133 0)
(0.00605967 0.00892424 0)
(0.00320353 0.00880744 0)
(-0.0042584 0.0182397 0)
(-0.00978454 0.030111 0)
(0.0304616 0.0521169 0)
(0.0261328 0.0455858 0)
(0.0196498 0.0368207 0)
(0.0144546 0.0275586 0)
(0.00971387 0.0210761 0)
(0.00505334 0.0146215 0)
(0.00205115 0.0142219 0)
(-0.0014805 0.0224715 0)
(-0.00967152 0.0315002 0)
(-0.0123817 0.0377454 0)
(0.0264404 0.0578659 0)
(0.0244498 0.0545067 0)
(0.0207926 0.0461574 0)
(0.0182127 0.0376699 0)
(0.013181 0.0333977 0)
(0.00501319 0.0270427 0)
(-0.00181354 0.0230764 0)
(-0.00555657 0.033065 0)
(-0.0100554 0.0390661 0)
(-0.0115788 0.0405572 0)
(0.0188374 0.065014 0)
(0.0176733 0.0593557 0)
(0.0147547 0.0489793 0)
(0.0119775 0.0439671 0)
(0.0089892 0.0444429 0)
(0.00570069 0.0407342 0)
(0.00124625 0.0333616 0)
(-0.00226094 0.0380851 0)
(-0.00460382 0.04324 0)
(-0.00741516 0.0429107 0)
(0.0099912 0.0680407 0)
(0.0108672 0.0620538 0)
(0.00868454 0.0555105 0)
(0.00689633 0.0491328 0)
(0.006087 0.0484876 0)
(0.00571618 0.044401 0)
(0.00304384 0.039861 0)
(0.00121867 0.043187 0)
(-0.00114442 0.0490059 0)
(-0.00391238 0.0477702 0)
(0.00283294 0.0655646 0)
(0.00454478 0.0625825 0)
(0.0052252 0.0567412 0)
(0.00579714 0.0493738 0)
(0.00632166 0.0477754 0)
(0.00685891 0.0464901 0)
(0.00471461 0.0438208 0)
(0.00301564 0.0464984 0)
(0.00275491 0.0538587 0)
(0.000466908 0.0535783 0)
(-0.0035649 0.0603523 0)
(-1.04927e-05 0.0581979 0)
(0.00316831 0.0534378 0)
(0.00341569 0.0479227 0)
(0.00483379 0.0455889 0)
(0.00574951 0.0474765 0)
(0.00504546 0.0471342 0)
(0.00421589 0.0481763 0)
(0.00442685 0.0538341 0)
(0.00542265 0.057919 0)
(-0.00383164 0.0520464 0)
(0.000607767 0.0506816 0)
(0.00316731 0.0496888 0)
(0.00268379 0.0472622 0)
(0.00295188 0.0431461 0)
(0.00427673 0.0462982 0)
(0.00477115 0.0473597 0)
(0.00527456 0.0479133 0)
(0.00505241 0.0515362 0)
(0.00914478 0.0570036 0)
(0.000378262 0.0410101 0)
(0.00398241 0.0439452 0)
(0.00476093 0.0496398 0)
(0.00366414 0.0479528 0)
(0.0032741 0.0427527 0)
(0.00402992 0.043715 0)
(0.00517946 0.0459278 0)
(0.00689728 0.0456738 0)
(0.00923804 0.0471164 0)
(0.0122804 0.0508423 0)
(0.00332083 0.0323286 0)
(0.00522535 0.0390821 0)
(0.00722167 0.0502019 0)
(0.00698368 0.0496947 0)
(0.00649199 0.04393 0)
(0.00765475 0.0419102 0)
(0.00993886 0.0425707 0)
(0.012474 0.0411135 0)
(0.0164705 0.0414814 0)
(0.0172225 0.0443939 0)
(0.00687753 0.0297236 0)
(0.00692099 0.0356863 0)
(0.00805169 0.0476805 0)
(0.00957224 0.0477587 0)
(0.0113391 0.0418879 0)
(0.0144448 0.0363521 0)
(0.0173526 0.0349377 0)
(0.0212328 0.0346347 0)
(0.0242737 0.035903 0)
(0.0266143 0.040382 0)
(0.0151859 0.0337786 0)
(0.0131123 0.0366893 0)
(0.013675 0.043911 0)
(0.015746 0.0439614 0)
(0.0196376 0.0359803 0)
(0.023398 0.0288266 0)
(0.0258289 0.0267274 0)
(0.0290633 0.0269947 0)
(0.0308708 0.029645 0)
(0.0339634 0.036924 0)
(0.0209262 0.034615 0)
(0.0220959 0.0380975 0)
(0.025072 0.0402618 0)
(0.028951 0.0368961 0)
(0.0337045 0.0294697 0)
(0.0353701 0.0247681 0)
(0.0353765 0.0236748 0)
(0.035965 0.0242838 0)
(0.0357679 0.0268117 0)
(0.0372159 0.0334104 0)
(0.0263373 0.0274706 0)
(0.0322459 0.0296333 0)
(0.0377891 0.0300497 0)
(0.0418766 0.0277424 0)
(0.043516 0.0256781 0)
(0.0434346 0.0253405 0)
(0.0421335 0.0259796 0)
(0.0387131 0.0264056 0)
(0.0361026 0.0283273 0)
(0.0363257 0.0328302 0)
(0.0306849 0.0116203 0)
(0.0375276 0.0163446 0)
(0.0433562 0.0222601 0)
(0.0454816 0.0242052 0)
(0.0451253 0.0243622 0)
(0.0451213 0.0267302 0)
(0.0426552 0.0341167 0)
(0.0362714 0.0350233 0)
(0.0324829 0.0308714 0)
(0.0331659 0.0306734 0)
(0.00957723 -0.00347259 0)
(0.0164581 -0.00118408 0)
(0.0231923 0.0118465 0)
(0.0271796 0.0261278 0)
(0.028365 0.0248592 0)
(0.0307082 0.0284933 0)
(0.0301043 0.0437492 0)
(0.0278938 0.0432186 0)
(0.0278645 0.0350675 0)
(0.0283506 0.0295769 0)
(-0.0302045 -0.0149367 0)
(-0.0275218 -0.00060448 0)
(-0.0198793 0.00416006 0)
(-0.00647708 0.00810175 0)
(0.00152093 0.0178785 0)
(0.0049456 0.0321525 0)
(0.00952883 0.0409569 0)
(0.0151932 0.0372118 0)
(0.0233837 0.028745 0)
(0.0276739 0.0268314 0)
(-0.0345406 -0.019411 0)
(-0.0276308 -0.0210494 0)
(-0.0211503 -0.0240081 0)
(-0.0167747 -0.0194054 0)
(-0.00938888 0.00299064 0)
(-0.00176928 0.0160554 0)
(0.00727547 0.0235784 0)
(0.0147769 0.0178884 0)
(0.0221071 0.0142972 0)
(0.0261244 0.0192806 0)
(-0.0214599 -0.0347788 0)
(-0.0167424 -0.0279697 0)
(-0.0152218 -0.023117 0)
(-0.0147985 -0.0184799 0)
(-0.0122277 -0.0125923 0)
(-0.00623382 -0.00440017 0)
(0.000901648 0.00109691 0)
(0.00507231 0.000249708 0)
(0.00311304 0.00208934 0)
(0.00607388 0.0125746 0)
(-0.016976 -0.0432694 0)
(-0.014787 -0.0341197 0)
(-0.0143859 -0.0275602 0)
(-0.0150682 -0.021796 0)
(-0.0182851 -0.017551 0)
(-0.0249576 -0.00989194 0)
(-0.0319339 0.004753 0)
(-0.0422219 0.01563 0)
(-0.0484874 0.0183189 0)
(-0.0480524 0.0217781 0)
(-0.0111623 -0.0424794 0)
(-0.0162522 -0.0304619 0)
(-0.0242706 -0.018944 0)
(-0.0362845 -0.00727259 0)
(-0.0528849 0.00981169 0)
(-0.0714495 0.028442 0)
(-0.0796413 0.033065 0)
(-0.0828924 0.0312778 0)
(-0.0820491 0.019443 0)
(-0.0727858 0.00695051 0)
(-0.00948017 -0.0303505 0)
(-0.021084 -0.00999301 0)
(-0.0390606 0.013253 0)
(-0.0609066 0.0369692 0)
(-0.078869 0.0439784 0)
(-0.0887976 0.0420243 0)
(-0.0935191 0.0392184 0)
(-0.0937824 0.017413 0)
(-0.084182 -0.00535317 0)
(-0.0773011 -0.02088 0)
(-0.00689928 -0.00945365 0)
(-0.0299879 0.031148 0)
(-0.0509988 0.0606656 0)
(-0.0609378 0.0683703 0)
(-0.0711582 0.0650449 0)
(-0.0851978 0.0531394 0)
(-0.0918048 0.0392505 0)
(-0.0947297 0.0125859 0)
(-0.0924988 -0.00946665 0)
(-0.0894842 -0.0176435 0)
(-0.0105711 0.0329428 0)
(-0.0429323 0.0718734 0)
(-0.0523366 0.0752257 0)
(-0.0509043 0.0772582 0)
(-0.0467541 0.0812628 0)
(-0.0510676 0.0780803 0)
(-0.064974 0.0570813 0)
(-0.0869433 0.0255295 0)
(-0.0972091 -0.0126465 0)
(-0.0909602 -0.0301758 0)
(-0.0213171 0.0872877 0)
(-0.033869 0.106813 0)
(-0.0441078 0.0775458 0)
(-0.0404038 0.0626451 0)
(-0.0314365 0.0615251 0)
(-0.0229366 0.0868926 0)
(-0.0269148 0.0985488 0)
(-0.0513155 0.0840584 0)
(-0.0704381 0.00642872 0)
(-0.0674521 -0.0368573 0)
(-0.0242722 0.0939247 0)
(-0.0184117 0.112209 0)
(-0.016251 0.0871376 0)
(-0.0170602 0.0626471 0)
(-0.0209881 0.0531846 0)
(-0.0272183 0.0874555 0)
(-0.026319 0.10396 0)
(-0.025746 0.106458 0)
(-0.0296726 0.0427411 0)
(-0.0295366 -0.0287113 0)
(-0.0359288 0.0867462 0)
(-0.0270914 0.0987257 0)
(-0.0195129 0.082669 0)
(-0.0186183 0.0681224 0)
(-0.0208509 0.0655684 0)
(-0.0239984 0.0887402 0)
(-0.019632 0.0966228 0)
(-0.0111653 0.0934893 0)
(0.00165719 0.0409189 0)
(0.00156809 -0.0116035 0)
(-0.0502076 0.0694695 0)
(-0.0420439 0.0721297 0)
(-0.0306636 0.0610958 0)
(-0.024435 0.0626982 0)
(-0.0242451 0.0784777 0)
(-0.0252731 0.0858461 0)
(-0.019648 0.0800805 0)
(-0.00367585 0.0559438 0)
(0.00893262 0.0197717 0)
(0.00585424 -0.00154556 0)
(-0.0452425 0.0683639 0)
(-0.0425298 0.0599859 0)
(-0.0425836 0.0509113 0)
(-0.0419878 0.0554418 0)
(-0.0349286 0.0719989 0)
(-0.0276068 0.0743474 0)
(-0.0132452 0.0513564 0)
(-0.00155925 0.0296645 0)
(0.00319423 0.0173595 0)
(-0.000792362 0.0124283 0)
(-0.0323845 0.0709719 0)
(-0.031928 0.0667727 0)
(-0.0383957 0.0550543 0)
(-0.0411595 0.0500041 0)
(-0.039631 0.0499939 0)
(-0.0319659 0.0441204 0)
(-0.020064 0.0271233 0)
(-0.0132566 0.0177867 0)
(-0.00740463 0.0175681 0)
(-0.0076664 0.0250993 0)
(-0.021256 0.0626293 0)
(-0.0168309 0.0667569 0)
(-0.0158174 0.0710135 0)
(-0.0215159 0.0642643 0)
(-0.0276289 0.0476973 0)
(-0.026098 0.0300772 0)
(-0.0250044 0.0118616 0)
(-0.0204968 0.00403054 0)
(-0.012384 0.00639821 0)
(-0.00871884 0.0328641 0)
(-0.00310365 0.0541764 0)
(0.000347741 0.0573015 0)
(0.00498523 0.0626377 0)
(0.010487 0.0711175 0)
(0.00819446 0.0665117 0)
(0.0013234 0.0496724 0)
(-0.00951555 0.0141736 0)
(-0.00988222 -0.00806106 0)
(-0.00660742 -0.00777192 0)
(-0.00627836 0.0331733 0)
(0.0191576 0.05782 0)
(0.0177465 0.0531328 0)
(0.0187892 0.0539188 0)
(0.0233793 0.0575828 0)
(0.0252632 0.0669009 0)
(0.025408 0.0643922 0)
(0.015112 0.0463045 0)
(0.00774805 -0.00268513 0)
(0.00343989 -0.00614809 0)
(-0.00120389 0.0361397 0)
(0.0381167 0.0710259 0)
(0.0342148 0.0586196 0)
(0.0299107 0.0532495 0)
(0.0301643 0.0543191 0)
(0.0286169 0.0668215 0)
(0.0229245 0.0722541 0)
(0.0155956 0.0575438 0)
(0.00618304 0.011743 0)
(-0.00622146 0.0141148 0)
(-0.0112909 0.0443016 0)
(0.0496731 0.0838698 0)
(0.0466808 0.0689445 0)
(0.0418615 0.0599526 0)
(0.0351056 0.059672 0)
(0.0331421 0.0746961 0)
(0.0227472 0.085891 0)
(0.010313 0.0729822 0)
(-0.00402102 0.0348718 0)
(-0.0148787 0.0315594 0)
(-0.0181474 0.0379932 0)
(0.0590633 0.0883545 0)
(0.0600641 0.0770087 0)
(0.0553763 0.0701288 0)
(0.0456647 0.0718949 0)
(0.0437412 0.0870052 0)
(0.0304447 0.118939 0)
(0.0166268 0.104222 0)
(-0.00446498 0.0563118 0)
(-0.0170047 0.0463266 0)
(-0.0187579 0.0397431 0)
(0.0723341 0.0838272 0)
(0.072502 0.0837176 0)
(0.064784 0.0832965 0)
(0.0520267 0.088094 0)
(0.0464491 0.101361 0)
(0.0507348 0.135018 0)
(0.0363706 0.144919 0)
(0.016734 0.104208 0)
(-0.00813578 0.0595327 0)
(-0.0132138 0.0473688 0)
(0.0755088 0.0736958 0)
(0.0727081 0.0962385 0)
(0.0591182 0.104505 0)
(0.0530574 0.104419 0)
(0.04988 0.10908 0)
(0.0532179 0.129468 0)
(0.0627872 0.160441 0)
(0.0548847 0.157329 0)
(0.0270651 0.108198 0)
(0.00757689 0.0531754 0)
(0.0582622 0.0848828 0)
(0.0564167 0.116312 0)
(0.0544988 0.113699 0)
(0.0559258 0.106608 0)
(0.0549885 0.109017 0)
(0.0590903 0.1142 0)
(0.0683053 0.142741 0)
(0.0774008 0.169383 0)
(0.0659967 0.165873 0)
(0.0479889 0.103231 0)
(0.0298125 0.0742269 0)
(0.0452421 0.110877 0)
(0.0487459 0.109355 0)
(0.0566505 0.101957 0)
(0.0621322 0.101551 0)
(0.0676847 0.103164 0)
(0.0717407 0.123723 0)
(0.077286 0.164646 0)
(0.0808973 0.171783 0)
(0.0824229 0.135661 0)
(0.00664097 0.039767 0)
(0.0193416 0.0780908 0)
(0.0358898 0.0866137 0)
(0.0495514 0.0833696 0)
(0.058793 0.0897525 0)
(0.0632034 0.0948924 0)
(0.0641014 0.1131 0)
(0.0748219 0.148699 0)
(0.0893172 0.155047 0)
(0.106936 0.128266 0)
(0.0240524 0.0349662 0)
(0.0317016 0.0430575 0)
(0.0441121 0.0538867 0)
(0.0565202 0.0594654 0)
(0.0639038 0.0793493 0)
(0.0714183 0.094103 0)
(0.0791383 0.105961 0)
(0.0906136 0.110107 0)
(0.106124 0.107911 0)
(0.12678 0.0982608 0)
(0.0678955 0.0327501 0)
(0.0737799 0.0309292 0)
(0.0771082 0.0338507 0)
(0.081745 0.0420137 0)
(0.0864689 0.0544091 0)
(0.0954126 0.0687466 0)
(0.114402 0.0782309 0)
(0.134148 0.0814496 0)
(0.152243 0.0786686 0)
(0.168758 0.0751877 0)
(0.117473 0.0251133 0)
(0.122821 0.0311685 0)
(0.122528 0.036672 0)
(0.117461 0.0419969 0)
(0.112072 0.0396247 0)
(0.107873 0.0275101 0)
(0.111824 0.0229983 0)
(0.120817 0.0256527 0)
(0.135603 0.022567 0)
(0.157824 0.0271525 0)
(0.157068 -0.00429201 0)
(0.173514 0.014727 0)
(0.188997 0.0343113 0)
(0.202364 0.0580731 0)
(0.207509 0.0728105 0)
(0.204085 0.0701291 0)
(0.189676 0.0575384 0)
(0.173942 0.0326257 0)
(0.162025 0.00864167 0)
(0.155107 -0.0040695 0)
(0.146106 -0.0351173 0)
(0.158611 -0.0258917 0)
(0.171125 -0.017224 0)
(0.180837 0.00676271 0)
(0.187714 0.0512449 0)
(0.191417 0.0730084 0)
(0.195191 0.0771239 0)
(0.194811 0.0747275 0)
(0.194762 0.0582294 0)
(0.189197 0.043302 0)
(0.132736 -0.0534687 0)
(0.14068 -0.0285837 0)
(0.141427 -0.00284441 0)
(0.140036 0.020015 0)
(0.14563 0.0383538 0)
(0.162576 0.0456703 0)
(0.1823 0.0456321 0)
(0.200288 0.0423253 0)
(0.21167 0.0358978 0)
(0.216057 0.043836 0)
(0.102502 -0.0669746 0)
(0.116182 -0.0472824 0)
(0.121836 -0.0160216 0)
(0.112835 0.00652266 0)
(0.110978 0.0113066 0)
(0.115667 0.0101293 0)
(0.130491 0.00872759 0)
(0.150756 0.0116041 0)
(0.17142 0.0181692 0)
(0.192616 0.0247847 0)
(0.0840146 -0.0961427 0)
(0.0872403 -0.0444718 0)
(0.0817215 0.0116734 0)
(0.0760612 0.0284158 0)
(0.0782795 0.020425 0)
(0.0881115 -0.0143338 0)
(0.103357 -0.034424 0)
(0.119137 -0.0388504 0)
(0.128004 -0.0333703 0)
(0.132026 -0.0131114 0)
(0.0762018 -0.11893 0)
(0.0788057 -0.0325506 0)
(0.0653055 0.016637 0)
(0.062834 0.0103448 0)
(0.0721219 -0.0134123 0)
(0.0794583 -0.0388373 0)
(0.0812537 -0.0477186 0)
(0.0854933 -0.0413995 0)
(0.0811466 -0.0116439 0)
(0.0624819 0.0479791 0)
(0.0584867 -0.119509 0)
(0.0627412 -0.0148882 0)
(0.0689006 0.0266314 0)
(0.0726823 0.0153018 0)
(0.0760823 -0.013898 0)
(0.071055 -0.0345036 0)
(0.060881 -0.0458272 0)
(0.0607645 -0.036083 0)
(0.0487643 0.0316334 0)
(0.0347161 0.0745174 0)
(0.0613613 -0.110267 0)
(0.0611518 -0.042615 0)
(0.075687 -0.00020984 0)
(0.0884488 -0.00343082 0)
(0.0989333 -0.00969667 0)
(0.0977564 -0.0158778 0)
(0.0837369 -0.0238915 0)
(0.0711647 -0.0179019 0)
(0.0701481 0.0417201 0)
(0.0385482 0.109125 0)
(0.105204 -0.0851253 0)
(0.0923242 -0.0590832 0)
(0.0977768 -0.0315218 0)
(0.109163 -0.0306893 0)
(0.113349 -0.0277949 0)
(0.113332 -0.00962633 0)
(0.105158 -0.00458381 0)
(0.0923171 0.00438646 0)
(0.0973016 0.0352729 0)
(0.0920281 0.153293 0)
(0.163104 -0.0439616 0)
(0.139094 -0.0354241 0)
(0.131357 -0.0321114 0)
(0.129724 -0.0267728 0)
(0.120996 -0.0168969 0)
(0.10731 0.00894482 0)
(0.0923466 0.0121712 0)
(0.0768729 0.0179906 0)
(0.073741 0.046292 0)
(0.0691912 0.190464 0)
(0.157008 0.00173789 0)
(0.138528 0.00549837 0)
(0.127444 -0.008603 0)
(0.125179 -0.00694327 0)
(0.120983 0.0128459 0)
(0.103587 0.0465731 0)
(0.0863166 0.0440239 0)
(0.0636369 0.0409346 0)
(0.0537687 0.0656713 0)
(0.0602573 0.187947 0)
(0.147716 0.0656263 0)
(0.142061 0.0291304 0)
(0.131368 -0.00460134 0)
(0.1243 -0.00536136 0)
(0.112447 0.0215999 0)
(0.0965684 0.0721644 0)
(0.0824381 0.087376 0)
(0.058169 0.0761413 0)
(0.0426079 0.0869087 0)
(0.0413143 0.165815 0)
(0.0804837 0.0394404 0)
(0.0771468 0.0363163 0)
(0.0697801 0.0313701 0)
(0.0664852 0.0407249 0)
(0.066015 0.0656489 0)
(0.0667079 0.0943695 0)
(0.0762713 0.108173 0)
(0.0718687 0.112694 0)
(0.057212 0.108884 0)
(0.0529821 0.136117 0)
(0.0196729 0.0487891 0)
(0.027038 0.0270663 0)
(0.0316928 0.0160321 0)
(0.0337694 0.0167984 0)
(0.0437372 0.027645 0)
(0.0535794 0.0629548 0)
(0.06936 0.0940499 0)
(0.0874122 0.115277 0)
(0.0875705 0.132836 0)
(0.0772435 0.14604 0)
(0.115717 0.0396887 0)
(0.108853 0.0170698 0)
(0.101001 0.0163904 0)
(0.0920495 0.0147093 0)
(0.088788 0.0263931 0)
(0.0913992 0.0317555 0)
(0.0969679 0.0446791 0)
(0.106151 0.0748347 0)
(0.120919 0.119143 0)
(0.129356 0.147648 0)
(0.244664 0.0706856 0)
(0.230171 0.0656005 0)
(0.210772 0.0599309 0)
(0.190562 0.0396291 0)
(0.171008 0.0360862 0)
(0.160573 0.0357694 0)
(0.145275 0.0476031 0)
(0.136666 0.0719968 0)
(0.140906 0.0939842 0)
(0.142988 0.129281 0)
(0.281555 0.075084 0)
(0.278926 0.0783007 0)
(0.277095 0.0842766 0)
(0.272472 0.0858084 0)
(0.261333 0.087698 0)
(0.240443 0.0861578 0)
(0.218703 0.0903752 0)
(0.196654 0.0997383 0)
(0.176418 0.105047 0)
(0.171053 0.123075 0)
(0.25841 0.0651749 0)
(0.270351 0.0619163 0)
(0.286389 0.0730389 0)
(0.294115 0.0890657 0)
(0.289069 0.0987942 0)
(0.284076 0.106762 0)
(0.275908 0.12596 0)
(0.25763 0.142042 0)
(0.234328 0.150433 0)
(0.205604 0.154125 0)
(0.246372 0.0549484 0)
(0.280517 0.0349476 0)
(0.292676 0.0450823 0)
(0.293652 0.0817936 0)
(0.287625 0.0994352 0)
(0.287032 0.109156 0)
(0.287534 0.128416 0)
(0.2703 0.17298 0)
(0.229553 0.198021 0)
(0.189895 0.19576 0)
(0.176343 -0.041033 0)
(0.206545 -0.0350023 0)
(0.232443 0.0269633 0)
(0.229093 0.0828252 0)
(0.224947 0.0900285 0)
(0.226843 0.104022 0)
(0.226544 0.163488 0)
(0.193679 0.259304 0)
(0.165821 0.282693 0)
(0.162688 0.252895 0)
(0.0232005 -0.051355 0)
(0.0305606 -0.0372141 0)
(0.0511882 0.0601703 0)
(0.069786 0.102054 0)
(0.0927251 0.116882 0)
(0.0989364 0.13915 0)
(0.114214 0.208969 0)
(0.144795 0.277783 0)
(0.160401 0.276572 0)
(0.177283 0.219449 0)
(-0.0786036 -0.0694986 0)
(-0.0759611 -0.0562136 0)
(-0.0512756 -0.02229 0)
(-0.0265064 -0.0256362 0)
(0.021432 0.0105768 0)
(0.0402772 0.041158 0)
(0.081876 0.121914 0)
(0.124001 0.191395 0)
(0.161258 0.215232 0)
(0.182247 0.192264 0)
(-0.203288 -0.0543968 0)
(-0.183478 -0.0811588 0)
(-0.155415 -0.0835234 0)
(-0.134728 -0.0594595 0)
(-0.105676 0.00125889 0)
(-0.0778053 0.0348401 0)
(-0.048049 0.0418902 0)
(0.00576711 0.0794274 0)
(0.0689203 0.126422 0)
(0.110321 0.130591 0)
(-0.165387 -0.109233 0)
(-0.149022 -0.131848 0)
(-0.139342 -0.131105 0)
(-0.126113 -0.11507 0)
(-0.104855 -0.0872807 0)
(-0.0808783 -0.0599761 0)
(-0.0586212 -0.0531395 0)
(-0.0367699 -0.0394581 0)
(-0.0085644 -0.0115074 0)
(0.00741258 0.0223339 0)
(-0.129552 -0.13915 0)
(-0.124315 -0.145421 0)
(-0.118947 -0.14374 0)
(-0.113049 -0.131383 0)
(-0.103671 -0.110794 0)
(-0.0964714 -0.089985 0)
(-0.0938042 -0.0590704 0)
(-0.0937283 -0.0217922 0)
(-0.104336 0.0104066 0)
(-0.114714 0.0538912 0)
(-0.145841 -0.142819 0)
(-0.152547 -0.148641 0)
(-0.161235 -0.147409 0)
(-0.172097 -0.137155 0)
(-0.184511 -0.114716 0)
(-0.196322 -0.0803752 0)
(-0.204004 -0.0424465 0)
(-0.208293 -0.00620527 0)
(-0.214636 0.0226839 0)
(-0.216861 0.0428009 0)
(-0.220734 -0.129674 0)
(-0.241134 -0.123804 0)
(-0.266525 -0.108277 0)
(-0.291345 -0.0867524 0)
(-0.313925 -0.0649846 0)
(-0.327294 -0.0459521 0)
(-0.330537 -0.0277599 0)
(-0.325941 -0.0116891 0)
(-0.322729 0.0106156 0)
(-0.321777 0.0456225 0)
(-0.383799 -0.0894763 0)
(-0.396004 -0.0700634 0)
(-0.405452 -0.0532958 0)
(-0.408694 -0.0479116 0)
(-0.411707 -0.0473838 0)
(-0.411221 -0.0445988 0)
(-0.407578 -0.0322594 0)
(-0.402176 -0.011783 0)
(-0.398442 0.0128424 0)
(-0.39019 0.0445179 0)
(-0.463639 -0.0667365 0)
(-0.462383 -0.0645573 0)
(-0.458856 -0.0640101 0)
(-0.451682 -0.0634715 0)
(-0.443489 -0.0628909 0)
(-0.435551 -0.0604339 0)
(-0.427109 -0.0543288 0)
(-0.413295 -0.0432277 0)
(-0.395744 -0.0274919 0)
(-0.374736 -0.00693772 0)
(-0.461488 -0.084351 0)
(-0.457026 -0.0796803 0)
(-0.45395 -0.0785045 0)
(-0.449833 -0.0790565 0)
(-0.444036 -0.0812045 0)
(-0.435728 -0.0844454 0)
(-0.42662 -0.0842741 0)
(-0.414819 -0.0803098 0)
(-0.402883 -0.0697094 0)
(-0.384794 -0.050962 0)
(-0.446856 -0.0926627 0)
(-0.4403 -0.0854966 0)
(-0.433174 -0.0830266 0)
(-0.428087 -0.0855118 0)
(-0.423126 -0.0896087 0)
(-0.420046 -0.0923026 0)
(-0.418661 -0.0915668 0)
(-0.420063 -0.0855806 0)
(-0.42353 -0.078099 0)
(-0.422858 -0.0676369 0)
(-0.397839 -0.10061 0)
(-0.395544 -0.0959246 0)
(-0.386168 -0.0983712 0)
(-0.37794 -0.0975202 0)
(-0.373789 -0.0958064 0)
(-0.367259 -0.0929603 0)
(-0.361304 -0.0845362 0)
(-0.366638 -0.0690883 0)
(-0.386025 -0.0612149 0)
(-0.396333 -0.0627014 0)
(-0.366172 -0.120562 0)
(-0.352917 -0.119865 0)
(-0.335244 -0.122862 0)
(-0.32172 -0.11751 0)
(-0.312679 -0.11009 0)
(-0.305838 -0.106804 0)
(-0.29214 -0.089456 0)
(-0.2793 -0.0545587 0)
(-0.276983 -0.0403351 0)
(-0.278732 -0.0440405 0)
(-0.353811 -0.151093 0)
(-0.333786 -0.147963 0)
(-0.317347 -0.151458 0)
(-0.290709 -0.151491 0)
(-0.26441 -0.15057 0)
(-0.239031 -0.138768 0)
(-0.229786 -0.122671 0)
(-0.22049 -0.0967755 0)
(-0.200446 -0.0526752 0)
(-0.185224 -0.0346956 0)
(-0.362523 -0.198091 0)
(-0.338059 -0.193895 0)
(-0.309878 -0.194355 0)
(-0.27201 -0.201478 0)
(-0.232353 -0.202493 0)
(-0.190603 -0.187781 0)
(-0.15403 -0.153727 0)
(-0.137627 -0.120942 0)
(-0.112163 -0.113199 0)
(-0.0975435 -0.0911872 0)
(-0.326795 -0.248055 0)
(-0.317864 -0.260257 0)
(-0.298353 -0.269393 0)
(-0.267341 -0.303824 0)
(-0.22753 -0.308307 0)
(-0.182272 -0.278268 0)
(-0.124237 -0.225285 0)
(-0.0975344 -0.15699 0)
(-0.053439 -0.142688 0)
(-0.0440581 -0.124144 0)
(-0.219129 -0.263705 0)
(-0.212993 -0.290019 0)
(-0.225596 -0.31046 0)
(-0.229112 -0.364361 0)
(-0.213146 -0.406072 0)
(-0.178933 -0.420411 0)
(-0.121012 -0.38156 0)
(-0.0647709 -0.247989 0)
(0.00436313 -0.159708 0)
(0.00626377 -0.0971869 0)
(-0.0166136 -0.229427 0)
(-0.0243046 -0.253167 0)
(-0.0314695 -0.266356 0)
(-0.0489354 -0.301867 0)
(-0.0826736 -0.404509 0)
(-0.0951819 -0.4748 0)
(-0.0895821 -0.490343 0)
(-0.0402586 -0.444668 0)
(0.0190117 -0.28981 0)
(0.0691889 -0.0850016 0)
(0.0635572 -0.207911 0)
(0.0552607 -0.224645 0)
(0.0584323 -0.237892 0)
(0.0535848 -0.242987 0)
(0.0288658 -0.290564 0)
(0.043818 -0.433704 0)
(0.0403737 -0.505809 0)
(0.0554844 -0.498017 0)
(0.0557901 -0.425558 0)
(0.113082 -0.19463 0)
(0.11965 -0.206961 0)
(0.102975 -0.241427 0)
(0.0970858 -0.256141 0)
(0.0852773 -0.259501 0)
(0.0746386 -0.298359 0)
(0.103077 -0.437674 0)
(0.119363 -0.516376 0)
(0.131644 -0.502891 0)
(0.132092 -0.441571 0)
(0.122116 -0.275383 0)
(0.179198 -0.125486 0)
(0.153484 -0.189395 0)
(0.13521 -0.223961 0)
(0.108929 -0.243964 0)
(0.108657 -0.306722 0)
(0.150179 -0.481878 0)
(0.155381 -0.544954 0)
(0.163764 -0.527408 0)
(0.157241 -0.444263 0)
(0.116966 -0.232778 0)
(0.200798 -0.0878631 0)
(0.18375 -0.140993 0)
(0.159624 -0.163016 0)
(0.123276 -0.204103 0)
(0.137724 -0.330408 0)
(0.179711 -0.50906 0)
(0.174275 -0.547315 0)
(0.183404 -0.516799 0)
(0.160847 -0.359288 0)
(0.0577358 -0.123531 0)
(0.172716 -0.0591869 0)
(0.161005 -0.106785 0)
(0.114422 -0.122557 0)
(0.108184 -0.197132 0)
(0.152639 -0.414416 0)
(0.185096 -0.550346 0)
(0.177262 -0.560781 0)
(0.175048 -0.480662 0)
(0.0761956 -0.170839 0)
(0.0149158 -0.0196939 0)
(0.170363 -0.0179413 0)
(0.133678 -0.0359172 0)
(0.0714952 -0.0393053 0)
(0.0630739 -0.327362 0)
(0.129469 -0.513738 0)
(0.14266 -0.574886 0)
(0.143027 -0.58318 0)
(0.139949 -0.392925 0)
(-0.0190566 -0.0246211 0)
(0.00743443 -0.0541065 0)
(0.0731655 0.050458 0)
(0.0752733 0.0460465 0)
(0.0382543 0.0279173 0)
(0.0358943 -0.435723 0)
(0.0548635 -0.529396 0)
(0.057852 -0.55859 0)
(0.0309169 -0.56334 0)
(-0.0197839 -0.00557751 0)
(-0.0948169 -0.00470455 0)
(-0.0564946 -0.0324714 0)
(-0.0079337 0.0115925 0)
(0.00831184 0.0331941 0)
(-0.015145 0.140228 0)
(0.0337683 -0.476464 0)
(0.0179205 -0.515457 0)
(0.0280303 -0.526937 0)
(-0.0130925 -0.529842 0)
(0.0914116 0.0802684 0)
(0.0464598 -0.0542479 0)
(0.0856791 -0.0703185 0)
(-0.080401 0.0143992 0)
(-0.130873 0.0686912 0)
(-0.0279291 -0.0495869 0)
(0.0219991 -0.48876 0)
(-6.58539e-05 -0.498965 0)
(-0.0108336 -0.50998 0)
(-0.0333026 -0.510621 0)
(-0.0388419 -0.350411 0)
(0.183302 0.0699814 0)
(-0.0175062 0.0804582 0)
(-0.0874351 0.124627 0)
(-0.165267 0.0822608 0)
(0.0131453 -0.374034 0)
(0.0121811 -0.469135 0)
(0.00460556 -0.472295 0)
(-0.0174685 -0.475533 0)
(-0.0334907 -0.470363 0)
(-0.0604132 -0.461268 0)
(0.0416397 0.0589911 0)
(-0.00845174 0.112301 0)
(-0.00143787 0.281227 0)
(-0.0395253 0.120749 0)
(0.0487722 -0.411113 0)
(0.0315843 -0.447519 0)
(-0.00654526 -0.436286 0)
(-0.0233799 -0.433943 0)
(-0.0487969 -0.426856 0)
(-0.0801044 -0.404474 0)
(-0.0829397 -0.0114859 0)
(0.0106372 0.249501 0)
(-0.0977604 0.253106 0)
(0.0884028 -0.244215 0)
(0.0666596 -0.390483 0)
(0.0337824 -0.384262 0)
(0.00526438 -0.388421 0)
(-0.0172734 -0.393324 0)
(-0.0335784 -0.384921 0)
(-0.0615278 -0.350944 0)
(-0.0667467 -0.228065 0)
(0.0578006 0.092494 0)
(0.00599933 0.203129 0)
(0.0793165 -0.277908 0)
(0.0688681 -0.308982 0)
(0.0446427 -0.33204 0)
(0.0176569 -0.336499 0)
(-0.017258 -0.335643 0)
(-0.0495664 -0.333447 0)
(-0.0726382 -0.316501 0)
(-0.0641905 -0.258793 0)
(-0.0086396 0.0411044 0)
(0.0980098 -0.168042 0)
(0.0738807 -0.222286 0)
(0.0698738 -0.273204 0)
(0.0382514 -0.284007 0)
(0.0110892 -0.284503 0)
(-0.010742 -0.286982 0)
(-0.0311454 -0.284497 0)
(-0.0701892 -0.261051 0)
(-0.0722534 -0.215119 0)
(-0.0974985 -0.126434 0)
(0.0587391 -0.123042 0)
(0.0480081 -0.201433 0)
(0.0431599 -0.232263 0)
(0.0200744 -0.249371 0)
(0.0132302 -0.252095 0)
(-0.00952896 -0.24915 0)
(-0.0267289 -0.242354 0)
(-0.046702 -0.236854 0)
(-0.0510052 -0.192742 0)
(-0.0583774 -0.106104 0)
(0.0073917 -0.000520149 0)
(0.00323072 0.000727594 0)
(-0.000216418 0.0029179 0)
(-0.00485068 0.00201908 0)
(-0.0068302 0.00129906 0)
(-0.0116071 0.00632623 0)
(-0.0215109 0.0150127 0)
(-0.0391976 0.0127485 0)
(-0.0543037 0.00799583 0)
(-0.0582627 0.00785327 0)
(-0.0579538 -0.000358209 0)
(-0.0525421 -0.0051012 0)
(-0.0472115 -0.00381622 0)
(-0.0454999 -0.00244358 0)
(-0.0438262 -0.00340558 0)
(-0.0386974 -0.00904956 0)
(-0.0255422 -0.0185211 0)
(-0.00930079 -0.0237352 0)
(0.00640348 -0.0210187 0)
(0.0206819 -0.017202 0)
(0.0325659 -0.0135577 0)
(0.0414245 -0.00744699 0)
(0.0456697 -0.00017092 0)
(0.0425407 0.00257063 0)
(0.0369955 0.00367988 0)
(0.0304881 0.00284275 0)
(0.0266827 -0.000814643 0)
(0.0269808 -0.00316815 0)
(0.0289712 -0.00299147 0)
(0.0307393 0.00271356 0)
(0.0264264 0.0106002 0)
(0.0202052 0.00973452 0)
(0.0157438 0.00608997 0)
(0.014578 0.00689486 0)
(0.01036 0.00984055 0)
(0.00600636 0.00516773 0)
(0.00166391 0.00200011 0)
(-0.0042222 -4.20976e-05 0)
(-0.00395673 -0.0060083 0)
(-0.000948986 -0.00667773 0)
(-0.00765656 0.0106029 0)
(-0.0166892 0.0137551 0)
(-0.0223187 0.0112668 0)
(-0.0252604 0.00876915 0)
(-0.0289119 0.0108928 0)