/*--------------------------------*- C++ -*----------------------------------*\
  =========                 |
  \\      /  F ield         | OpenFOAM: The Open Source CFD Toolbox
   \\    /   O peration     | Website:  https://openfoam.org
    \\  /    A nd           | Version:  8
     \\/     M anipulation  |
\*---------------------------------------------------------------------------*/
FoamFile
{
    version     2.0;
    format      ascii;
    class       volScalarField;
    location    "9.1";
    object      p;
}
// * * * * * * * * * * * * * * * * * * * * * * * * * * * * * * * * * * * * * //

dimensions      [1 -1 -2 0 0 0 0];

internalField   nonuniform List<scalar> 
9150
(
-206.795
-207.843
-208.472
-208.929
-209.154
-209.143
-208.887
-208.432
-207.813
-206.769
-226.853
-227.386
-227.811
-228.13
-228.297
-228.281
-228.104
-227.79
-227.363
-226.831
-246.747
-247.036
-247.292
-247.508
-247.613
-247.609
-247.497
-247.274
-247.018
-246.729
-266.485
-266.664
-266.832
-266.988
-267.073
-267.062
-266.98
-266.819
-266.649
-266.469
-286.108
-286.289
-286.425
-286.551
-286.614
-286.611
-286.55
-286.416
-286.277
-286.094
-121.077
-121.757
-121.376
-120.982
-120.733
-120.67
-120.776
-121.031
-121.403
-120.728
-136.438
-137.142
-137.204
-137.239
-137.097
-137.069
-137.14
-137.042
-136.96
-136.252
-152.791
-153.568
-153.822
-154.191
-154.236
-154.199
-154.105
-153.728
-153.45
-152.675
-169.59
-170.812
-171.24
-171.864
-172.039
-172.02
-171.84
-171.186
-170.742
-169.525
-186.638
-188.764
-189.508
-190.168
-190.448
-190.462
-190.169
-189.478
-188.736
-186.616
-30.0784
-31.3403
-32.9284
-33.5093
-33.8594
-33.2773
-31.8626
-29.6428
-26.2215
-22.5017
-49.3757
-49.7356
-50.4867
-50.2603
-50.5299
-49.8062
-48.8517
-47.9826
-45.821
-44.6497
-69.256
-68.6886
-69.7351
-68.8079
-69.2138
-68.6513
-67.9687
-67.8303
-66.2765
-66.183
-91.5278
-88.1776
-89.4498
-87.4147
-87.4576
-87.0702
-86.9671
-87.9771
-86.9929
-89.7112
-116.384
-106.83
-106.379
-104.788
-104.25
-104.18
-104.607
-105.633
-106.093
-115.298
1769.02
1769.11
1769.23
1769.29
1769.29
1769.26
1769.21
1769.15
1769.11
1769.06
1749.4
1749.56
1749.65
1749.68
1749.68
1749.67
1749.65
1749.62
1749.62
1749.57
1729.51
1729.49
1729.64
1729.95
1730.11
1730.26
1730.36
1730.22
1730.2
1730.06
1710.22
1710.69
1710.98
1710.97
1710.93
1711.08
1711.06
1711.03
1710.98
1710.7
1690.7
1691.1
1691.48
1691.85
1691.65
1691.7
1691.66
1691.58
1691.47
1691.05
1670.52
1671.12
1676.19
1672.61
1672.49
1672.56
1672.47
1672.29
1672
1671.98
1651.32
1653.75
1654.82
1653.97
1653.98
1654.01
1653.85
1653.79
1653.51
1652.97
1633.91
1635.21
1635.38
1635.24
1635.32
1635.32
1635.29
1634.88
1634.64
1634.29
1615.82
1616.13
1616.35
1616.34
1616.3
1616.25
1616.01
1615.72
1615.37
1615.08
1596.2
1596.65
1596.76
1596.73
1596.7
1596.65
1596.5
1596.17
1595.82
1595.47
1576.55
1576.84
1577
1577.03
1577.05
1577.07
1577.01
1576.68
1576.28
1575.87
1557.06
1557.28
1557.39
1557.44
1557.49
1557.5
1557.5
1557.41
1556.68
1556
1537.65
1537.77
1537.85
1537.9
1537.95
1537.97
1537.83
1537.69
1537.1
1536.69
1518.27
1518.27
1518.34
1518.4
1518.43
1518.4
1518.26
1517.95
1517.7
1517.15
1499
1498.91
1498.93
1499
1499.05
1499.07
1499.04
1498.93
1499.13
1499.72
1479.29
1479.42
1479.52
1479.65
1479.78
1479.88
1479.95
1480.01
1480.27
1480.38
1459.85
1460.03
1460.23
1460.43
1460.6
1460.74
1460.83
1460.96
1461.11
1461.19
1440.04
1440.29
1440.6
1440.98
1441.32
1441.58
1441.71
1441.77
1441.76
1441.62
1420.52
1420.8
1421.22
1421.75
1422.28
1422.31
1422.21
1422.1
1421.96
1421.74
1400.09
1400.2
1400.5
1401.31
1400.72
1400.95
1401
1400.9
1400.7
1400.35
1379.16
1379.18
1379.69
1379.36
1379.46
1379.47
1379.13
1378.81
1379.5
1379.09
1357.81
1358.49
1357.03
1357.36
1357.89
1358.41
1358.75
1360.3
1361.48
1361.43
1337.04
1337.73
1333.34
1334.31
1335.93
1337.32
1338.59
1340.99
1341.6
1341.77
1317.35
1316.06
1314.43
1315.13
1316.16
1317.7
1319.25
1321.03
1322.77
1323.38
1298.46
1297.71
1297.09
1297.05
1297.48
1297.48
1299.47
1301.11
1302.23
1304.13
1278.85
1278.51
1278.01
1277.6
1277.83
1278.1
1279.58
1280.97
1282.27
1283.4
1259.05
1259.36
1259.09
1258.72
1258.01
1258.57
1259.26
1260.15
1261.32
1262.67
1238.53
1240.22
1238.45
1238.51
1238.45
1238.34
1239.65
1239.67
1240.32
1241.42
1218.55
1218.46
1218.72
1219.22
1219.57
1219.99
1221.14
1221.65
1221.49
1221.36
1199.4
1199.16
1199.65
1200.25
1200.93
1201.62
1202.33
1202.57
1203.02
1203.3
1181.6
1181.28
1181.52
1182.16
1182.93
1183.72
1184.38
1184.81
1184.81
1185.68
1164.5
1164.34
1164.78
1165.36
1166
1166.69
1167.3
1167.75
1168.25
1168.37
1148.09
1148.39
1148.75
1149.15
1149.61
1150.1
1150.55
1150.88
1152.22
1152.26
1132.24
1132.47
1132.76
1133.08
1133.41
1133.77
1134.07
1134.52
1135.01
1135.25
1116.33
1116.44
1116.55
1116.71
1116.95
1117.21
1117.42
1117.55
1118.06
1118.02
1100
1099.79
1099.6
1099.5
1099.42
1099.35
1099.37
1099.41
1099.18
1098.6
1082.23
1081.84
1081.59
1081.39
1081.04
1080.82
1081.32
1081.11
1080.35
1084.78
1063.41
1063.51
1063.34
1063.27
1063.13
1063.02
1064.99
1065.09
1064.42
1064.33
1044.65
1044.61
1044.44
1044.63
1044.87
1045.02
1046.01
1044.98
1044.91
1045.07
1025.11
1025.12
1025.14
1025.35
1025.77
1026.63
1025.93
1026.26
1026.45
1026.21
1005.77
1006.6
1006.93
1007.38
1007.87
1007.75
1006.71
1007.82
1007.21
1007.16
987.024
987.631
989.38
989.987
990.242
989.992
988.807
989.23
987.999
988.402
967.472
968.016
969.699
969.529
970.115
969.61
969.532
969.065
968.551
968.826
950.903
949.877
950.412
950.3
950.07
949.696
949.144
948.553
948.084
947.931
931.218
931.148
931.08
930.575
929.888
929.11
928.441
927.897
927.409
926.912
911.655
911.463
911.044
910.369
909.474
908.491
907.343
906.359
905.609
905.035
891.099
890.515
889.727
888.549
887.241
886.207
885.359
884.487
883.872
884.434
870.39
869.531
868.568
867.401
866.205
864.821
863.616
862.978
863.023
863.456
852.283
851.777
850.589
848.911
847.174
845.764
844.743
844.179
844.032
844.223
834.85
834.025
832.552
831.148
830.874
829.881
828.518
828.683
827.751
827.782
815.881
815.937
814.506
813.963
813.293
812.537
811.811
811.035
810.714
809.814
796.395
796.494
796.3
796.002
795.666
795.172
794.523
794.054
793.599
792.743
777.003
777.587
777.816
777.968
777.99
777.805
777.425
777.265
777.461
776.169
759.2
758.762
759.455
759.877
760.222
760.454
760.45
760.197
759.731
759.516
742.02
741.479
741.447
742.003
742.347
742.981
743.39
743.125
742.829
742.688
728.137
727.695
727.241
726.811
725.818
726.32
726.722
726.094
725.623
725.503
713.231
712.904
712.539
712.08
710.014
709.387
708.873
708.295
707.969
707.538
696.695
695.817
694.832
694.215
693.328
692.21
691.417
690.557
690.104
689.787
677.272
676.284
675.826
675.578
675.212
674.777
674.464
674.083
673.663
673.014
655.794
655.568
655.604
655.889
656.16
656.325
656.322
656.062
655.449
654.625
632.208
632.731
633.586
634.682
635.704
636.21
636.372
636.148
635.115
633.929
612.062
613.563
612.955
613.202
614.168
614.29
614.62
614.077
612.716
610.006
589.998
590.53
590.473
589.956
589.138
588.596
588.163
586.643
583.943
578.836
568.38
568.409
568.015
567.058
565.737
562.835
559.758
554.86
548.672
541
543.284
544.475
545.281
545.133
543.721
538.912
531.805
522.702
512.286
500.324
514.332
516.851
518.237
518.429
516.95
511.296
502.938
493.016
482.012
469.188
482.903
486.963
489.958
488.039
486.697
481.806
475.621
468.242
458.577
447.467
452.085
455.29
463.092
458.256
457.377
455.008
451.402
446.439
439.737
433.668
423.526
425.773
427.361
428.115
428.324
427.922
426.436
424.405
421.757
420.48
396.458
396.396
394.97
394.495
395.523
398.164
399.943
402.422
405.105
407.624
371.274
368.832
372.468
371.786
364.662
369.32
374.102
378.985
383.363
387.872
350.329
349.076
350.912
349.199
348.563
348.241
349.891
354.534
360.958
367.624
333.688
335.056
334.877
333.12
333.364
334.68
335.947
337.19
341.902
349.703
321.769
323.25
323.847
322.782
322.734
323.841
325.027
326.944
329.914
333.678
312.734
314.762
314.951
314.519
314.613
315.323
316.866
318.345
321.242
322.312
307.52
305.303
306.285
306.906
306.957
307.53
308.493
309.918
311.924
314.659
297.983
296.334
298.979
299.036
298.67
297.743
298.064
297.25
298.163
305.533
284.973
288.586
289.703
284.917
284.917
286.337
287.222
288.122
289.341
293.112
276.078
282.46
267.222
267.963
267.799
267.732
268.363
269.076
271.71
275.881
267.125
243.213
244.645
244.96
245.325
245.388
247.447
251.387
253.521
255.566
215.654
217.121
218.81
221.42
224.311
228.449
233.313
234.262
235.687
239.131
195.591
194.705
195.502
198.761
203.425
210.544
216.758
218.669
220.137
223.123
179.681
175.498
172.138
175.132
183.159
192.06
198.497
203.196
207.028
210.037
178.005
175.139
183.043
171.399
173.854
182.425
189.819
195.685
196.78
199.356
182.611
182.036
182.359
177.982
174.744
178.574
182.771
186.564
186.784
190.267
174.772
181.703
169.956
171.438
172.568
174.575
177.263
179.131
179.944
181.484
169.331
168.077
169.214
169.983
170.205
170.158
171.494
172.156
174.001
167.429
163.065
162.615
162.355
161.747
161.875
160.622
166.273
164.49
159.084
157.499
150.469
149.637
148.879
148.074
149.592
150.564
151.439
149.312
147.349
144.966
136.733
136.233
137.563
137.864
138.168
137.249
136.105
134.911
133.525
132.222
124.439
125.179
125.736
125.936
124.52
123.043
121.297
119.576
117.912
116.159
114.737
114.92
114.675
113.021
111.224
107.681
104.451
102.291
101.093
101.673
106.76
99.8823
101.639
99.4212
94.6069
88.7924
82.9589
77.7066
73.6536
74.194
85.799
88.867
83.8008
78.8262
72.7119
65.43
57.0827
48.1562
43.7117
46.73
59.1773
59.2413
57.5444
52.4463
45.7849
38.9527
31.6693
31.8912
31.1172
18.3532
20.9408
23.6693
24.1522
22.9527
21.2095
15.6384
5.38679
27.3944
8.97927
13.9861
-7.94401
1.9974
0.755259
3.51332
3.78929
0.450482
-5.83604
12.3544
1.08407
-0.724346
3.95356
-8.76835
-6.91021
-4.61616
-4.70203
-6.45627
-9.40677
-10.2411
-12.041
-4.4481
-3.91601
-14.1277
-13.1364
-10.9376
-10.5518
-10.9489
-12.3684
-13.1257
-6.79492
-2.4615
-8.32754
-16.7733
-19.2183
-19.9806
-20.2355
-19.8139
-18.7218
-16.9798
-12.4237
-3.02877
1769.04
1768.94
1768.93
1768.89
1768.84
1768.77
1768.67
1768.56
1768.45
1768.33
1768.23
1768.17
1768.18
1768.26
1768.4
1768.59
1768.83
1769.11
1769.4
1769.81
1770.14
1770.47
1770.85
1771.11
1771.47
1771.48
1771.54
1771.68
1771.82
1772.03
1772.16
1772.25
1772.31
1772.34
1772.39
1772.44
1772.53
1772.58
1772.6
1772.6
1749.48
1749.41
1749.33
1749.22
1749.17
1749.09
1749
1748.9
1748.77
1748.6
1748.44
1748.37
1748.41
1748.49
1748.68
1748.86
1749.19
1749.45
1749.8
1750.15
1750.38
1750.78
1751.32
1751.64
1751.93
1752.07
1751.97
1752.06
1752.23
1752.45
1752.59
1752.65
1752.67
1752.73
1752.74
1752.81
1752.88
1752.94
1752.95
1752.98
1729.96
1729.86
1729.79
1729.68
1729.63
1729.54
1729.43
1729.37
1729.28
1729.04
1728.71
1728.46
1728.31
1728.28
1728.54
1729.05
1729.3
1729.27
1729.97
1730.49
1730.74
1731.54
1732.09
1732.18
1732.45
1732.55
1732.56
1732.63
1732.82
1733.1
1733.21
1733.55
1733.41
1733.1
1733.13
1733.17
1733.24
1733.31
1733.34
1733.37
1710.6
1710.47
1710.31
1710.1
1710.07
1710
1709.75
1709.75
1709.85
1709.65
1708.92
1708.45
1707.99
1708.48
1708.56
1709.04
1709.8
1710.13
1710.87
1710.25
1710.81
1711.29
1711.87
1712.2
1712.48
1712.68
1712.87
1713.11
1713.42
1713.7
1713.86
1713.87
1713.96
1714
1713.64
1713.67
1713.58
1713.64
1713.74
1713.79
1690.71
1690.58
1690.43
1690.43
1690.59
1690.68
1690.58
1690.9
1690.67
1690.08
1689.44
1688.85
1688.38
1688.16
1689.06
1689.65
1690.06
1690.52
1690.92
1691.03
1691.3
1691.62
1691.96
1692.33
1692.71
1693.04
1693.3
1693.99
1694.32
1694.04
1694.18
1694.21
1694.18
1694.26
1694.36
1694.5
1694.42
1694.31
1694.37
1694.41
1671.73
1671.42
1670.92
1670.72
1671.29
1671.29
1670.91
1670.77
1670.59
1670.21
1669.74
1669.24
1668.98
1668.83
1669
1670.03
1670.48
1670.81
1670.88
1671.02
1671.35
1671.78
1672.14
1672.93
1673.32
1673.64
1674.01
1674.16
1674.27
1674.35
1674.27
1674.17
1674.15
1674.28
1674.61
1675.05
1675.03
1674.97
1675
1675.07
1652.77
1652.51
1652.25
1652.2
1652.27
1651.87
1651.59
1651.25
1650.76
1650.27
1649.93
1649.93
1650.61
1648.94
1649.64
1649.58
1649.99
1650.44
1650.92
1651.21
1651.32
1651.55
1652.2
1652.65
1652.76
1653.27
1653.57
1653.84
1654.03
1654.11
1654.15
1654.22
1654.38
1654.88
1655.33
1655.65
1655.67
1655.39
1655.41
1655.58
1633.95
1633.61
1633.6
1633.19
1632.82
1632.51
1632.07
1631.65
1631.04
1630.65
1630.91
1630.84
1630.46
1629.67
1629.9
1629.91
1630.02
1630.19
1630.4
1630.84
1631.1
1631.03
1631.32
1631.68
1631.95
1632.2
1632.48
1632.8
1633.13
1633.49
1633.9
1634.35
1634.8
1635.43
1635.94
1636.25
1636.16
1636.23
1636.38
1636.66
1614.68
1614.38
1614.42
1613.86
1613.14
1612.68
1612.45
1612.19
1611.72
1611.15
1611.14
1610.76
1610.2
1609.97
1609.84
1609.67
1609.59
1609.52
1609.55
1609.66
1609.9
1610.19
1610.5
1610.72
1611.04
1611.18
1611.5
1611.86
1612.25
1612.7
1613.24
1613.84
1614.54
1615.33
1616.1
1616.67
1616.67
1616.31
1616.43
1616.86
1595.08
1594.69
1594.81
1594.48
1593.27
1592.86
1592.71
1592.76
1592.75
1591.95
1592.09
1589.69
1590.21
1589.4
1588.85
1588.79
1588.83
1588.82
1588.82
1588.92
1589.13
1589.38
1589.55
1589.8
1590.11
1590.36
1590.74
1591.14
1591.57
1592.08
1592.66
1593.33
1594.09
1594.91
1595.68
1596.36
1596.54
1596.18
1596.55
1596.66
1575.42
1574.98
1574.54
1574.01
1573.44
1572.97
1572.78
1572.57
1572.37
1571.92
1571.3
1570.76
1568.92
1568.73
1568.16
1568.22
1568.19
1567.94
1567.36
1567.32
1567.65
1568.11
1568.45
1568.81
1569.35
1569.94
1570.54
1571.19
1571.75
1572.37
1573
1573.69
1574.36
1575.04
1575.58
1575.92
1576.3
1576.93
1577.03
1576.88
1555.57
1555.14
1554.8
1554.31
1553.49
1552.78
1552.28
1552.42
1552.6
1552.54
1551.46
1551.13
1550.45
1550.1
1549.49
1548.75
1548.17
1547.83
1547.6
1547.31
1547.11
1547.94
1548.16
1548.95
1549.48
1549.91
1550.85
1551.82
1552.66
1553.21
1553.78
1554.43
1555.01
1555.5
1556.04
1556.51
1557.28
1557.62
1557.76
1557.78
1535.98
1535.3
1534.94
1534.77
1535.01
1535.77
1533.45
1534.43
1534.74
1534.29
1534.34
1532.61
1531.84
1531.68
1531.16
1530.52
1530.12
1529.28
1527.67
1526.78
1527.23
1527.99
1528.77
1529.4
1530.09
1530.86
1531.68
1532.8
1533.44
1534.2
1534.86
1535.41
1535.89
1536.31
1536.78
1537.33
1538.2
1538.5
1538.73
1539.91
1516.7
1516.58
1516.39
1516.38
1516.52
1516.49
1516.7
1517.5
1517.46
1517.42
1516.76
1514.69
1514.25
1513.76
1512.62
1511.01
1510.02
1509.08
1508.63
1508.16
1508.43
1509.25
1510.02
1510.81
1511.57
1512.28
1512.99
1513.93
1514.58
1515.24
1515.93
1516.36
1516.76
1517.24
1517.69
1518.11
1518.84
1519.76
1520.09
1520.37
1499.6
1499.13
1498.76
1498.32
1497.97
1498.15
1497.71
1497.31
1497.39
1497.66
1497.33
1496.26
1494.51
1494.76
1492.75
1492.5
1490.28
1491.07
1490.56
1489.95
1489.87
1490.72
1491.63
1492.34
1493.13
1493.83
1494.43
1495.03
1495.68
1496.29
1496.81
1497.36
1497.91
1498.23
1498.6
1499.21
1499.68
1500
1501.91
1500.86
1480.22
1479.88
1479.34
1479.04
1478.83
1478.71
1478.57
1478.42
1478.26
1477.98
1477.57
1477
1476.72
1476.19
1475.48
1474.61
1473.66
1473.33
1473.59
1473.97
1474.32
1472.42
1473.85
1474.34
1475.1
1475.72
1475.85
1476.38
1476.89
1477.39
1477.89
1478.37
1478.76
1479.37
1479.75
1480.08
1480.63
1481.15
1483.41
1482.37
1460.89
1460.37
1459.92
1459.64
1459.45
1459.29
1459.12
1458.94
1458.78
1458.6
1458.35
1458.18
1458.07
1458.84
1458.61
1458.11
1457.66
1457.1
1456.94
1457.2
1456.92
1455.41
1455.96
1456.42
1456.73
1457.05
1457.37
1457.72
1458.1
1458.5
1458.92
1459.35
1459.76
1460.17
1460.76
1461.12
1461.91
1462.33
1463.94
1463.27
1441.04
1440.41
1440.04
1439.88
1439.72
1439.6
1439.49
1439.38
1439.29
1439.26
1439.19
1439.16
1439.39
1439.94
1440.45
1440.7
1440.66
1440.55
1438.55
1438.32
1438.26
1438.05
1438.17
1438.35
1438.46
1438.59
1438.73
1438.93
1439.2
1439.52
1439.88
1440.27
1440.67
1441.09
1441.77
1442.17
1442.81
1443.28
1443.73
1443.65
1420.78
1419.8
1419.73
1419.81
1419.86
1419.8
1419.85
1419.72
1420.01
1419.86
1420.09
1420.36
1420.77
1421.39
1422.18
1422.68
1422.29
1421.25
1420.33
1419.92
1419.78
1419.75
1419.8
1419.85
1419.88
1419.92
1419.98
1420.06
1420.2
1420.4
1420.69
1421.03
1421.39
1421.77
1422.55
1422.83
1423.28
1424.16
1424.12
1424.42
1399.19
1398.91
1398.95
1399.7
1400.01
1400.01
1399.94
1399.99
1400.12
1400.24
1400.56
1400.65
1400.67
1401.3
1401.26
1401.51
1401.66
1401.18
1400.72
1400.62
1400.74
1400.91
1401.01
1401.03
1400.99
1400.94
1401.12
1400.98
1400.9
1401.05
1401.26
1401.56
1401.89
1402.19
1403
1403.24
1403.89
1404.47
1404.82
1404.61
1378.12
1378.55
1380.8
1380.23
1380.73
1380.27
1380.1
1380.03
1380.32
1380.94
1381.55
1381.76
1383.05
1383.53
1383.64
1382.35
1382.37
1381.95
1381.69
1381.7
1381.9
1382.17
1382.34
1382.27
1382.54
1382.54
1382.48
1381.96
1381.67
1381.58
1381.56
1381.66
1381.89
1382.29
1383.09
1383.29
1383.9
1383.95
1384.27
1384.17
1360.52
1359.72
1360.67
1361.59
1360.58
1359.76
1358.56
1358.19
1359.98
1361.28
1363.21
1364.37
1365.65
1366.01
1365.12
1364.08
1363.77
1363.34
1363.16
1363.29
1363.46
1364.1
1364.16
1363.99
1363.75
1363.43
1362.92
1362.58
1362.15
1361.73
1361.5
1361.54
1361.7
1361.99
1362.32
1362.7
1363.03
1363.16
1363.45
1363.51
1341.58
1341.55
1342.41
1342.7
1342
1341
1342.51
1343.02
1343.88
1345.02
1346.14
1347.03
1346.82
1347.85
1347.34
1346.22
1345.58
1345.35
1345.02
1344.68
1344.56
1344.64
1344.53
1344.17
1343.77
1343.58
1343.33
1342.97
1342.56
1342.22
1342.16
1341.89
1342.03
1342.29
1342.46
1342.56
1342.64
1344.46
1342.63
1343.2
1322
1322.62
1322.96
1323.04
1322.81
1323.53
1323.17
1323.55
1324.42
1325.35
1325.98
1326.82
1326.95
1326.67
1326.72
1326.32
1325.84
1325.5
1325.27
1325.1
1325.08
1324.91
1324.63
1324.36
1324.22
1324.03
1323.77
1323.48
1323.14
1323.12
1323.07
1323.04
1323.09
1323.15
1323.21
1323.19
1323.43
1324.13
1322.99
1324.09
1304.82
1302.46
1303.38
1303.76
1303.85
1303.64
1303.85
1304.51
1305.34
1306.26
1306.8
1307.88
1307.73
1308.02
1307.64
1307.07
1306.6
1305.97
1305.56
1305.43
1305.44
1305.48
1305.51
1305.27
1304.86
1304.84
1304.66
1304.35
1304.1
1304.2
1303.99
1303.87
1303.88
1303.91
1303.98
1304.14
1304.47
1304.86
1304.84
1305.57
1283.62
1286.86
1284.87
1285.34
1285.27
1284.23
1284.76
1284.4
1285.45
1286.24
1287.51
1288.34
1287.98
1288.36
1288.03
1287.26
1286.74
1286.24
1285.86
1285.85
1286.2
1286.58
1287.21
1287.91
1286.13
1285.87
1285.65
1285.33
1285.11
1284.89
1284.75
1284.62
1284.57
1284.57
1284.56
1284.98
1285.42
1285.92
1285.97
1286.42
1264.18
1265.72
1271.04
1265.2
1264.88
1263.46
1263.7
1264.42
1265.61
1266.97
1267.95
1268.62
1268.79
1269.04
1269.92
1269.62
1268.74
1268.13
1267.64
1266.99
1267.38
1268.08
1268.15
1268.65
1266.62
1266.66
1266.52
1266.13
1265.67
1265.14
1264.91
1264.78
1264.72
1264.88
1265.11
1265.67
1266.19
1266.69
1266.61
1266.66
1243.08
1245.2
1249.37
1246.08
1245
1242.67
1241.31
1242.47
1244.07
1245.57
1246.9
1247.78
1248.02
1248.18
1248.28
1248.01
1248.9
1248.97
1248.74
1248.39
1247.66
1248.62
1249.38
1248.72
1249.18
1248.21
1247.6
1247.24
1246.67
1245.95
1245.53
1245.28
1245.22
1245.48
1245.94
1246.43
1246.88
1247.17
1247.07
1247.13
1221.65
1223.76
1224.25
1223.18
1221.04
1219.1
1216.73
1217.61
1219.24
1222.56
1225.01
1226.36
1226.87
1227.18
1227.45
1227.63
1227.73
1227.39
1228.34
1226.68
1226.64
1226.62
1226.81
1227.2
1227.67
1229.19
1230.39
1230.68
1228.91
1227.4
1227.4
1227.16
1226.98
1227.07
1227.17
1227.37
1227.6
1227.71
1227.65
1227.67
1201.91
1202.69
1201.72
1199.66
1199.59
1200.38
1200.19
1200.14
1199
1202.9
1205.47
1206.48
1206.82
1207.24
1207.4
1207.52
1207.44
1206.88
1206.16
1205.5
1204.92
1205.83
1204.99
1204.96
1205.57
1207.12
1209.04
1209.8
1209.25
1208.38
1208.49
1208.29
1208.33
1208.27
1208.21
1208.16
1208.3
1208.29
1208.19
1208.17
1184.15
1183.55
1181.27
1181.51
1183.81
1185.75
1185.81
1185.33
1183.14
1185.54
1187.05
1188.82
1189.22
1188.61
1188.21
1188.22
1187.44
1186.78
1185.3
1184.44
1183.72
1183.01
1182.39
1181.65
1182.23
1181.89
1183.3
1193.09
1187.22
1190.56
1188.95
1188.89
1189
1188.95
1188.94
1189.1
1189.07
1189.13
1188.99
1189.21
1168.46
1167.41
1166.76
1167.21
1169.25
1171.5
1171.52
1169.17
1168.23
1166.9
1167.97
1172.14
1170.58
1169.34
1168.55
1168.07
1167.1
1165.84
1164.59
1163.22
1161.8
1160.69
1157.9
1156.58
1156.37
1157.59
1163.47
1170.01
1167.14
1168.55
1169.37
1169.45
1169.93
1169.87
1170.95
1170.99
1170.53
1171.25
1171.16
1170.84
1152.29
1152.41
1152.71
1152.96
1153.88
1154.61
1154.42
1152.1
1149.38
1146.48
1152.02
1147.81
1147.89
1147.28
1146.62
1146.46
1146.1
1145.21
1144.36
1143
1141.42
1139.63
1137.2
1134.77
1137.28
1140.04
1143.86
1147.28
1148.24
1148.96
1150.14
1150.2
1150.77
1150.98
1150.91
1151.53
1152.36
1152.25
1152.14
1152.15
1135.22
1136.36
1136.14
1136.19
1136.28
1136.53
1135.26
1132.88
1129.87
1127.93
1129.27
1126.87
1126.74
1126.73
1127.64
1125.04
1126.07
1126.07
1125.71
1124.86
1124.09
1123.73
1122.33
1122.8
1124.89
1126.82
1128.79
1130.2
1130.29
1130.96
1131.82
1131.97
1131.79
1132.26
1133.12
1130.81
1131.98
1131.85
1131.76
1131.35
1118.72
1119.18
1119.04
1118.23
1117.74
1117.09
1115.76
1113.91
1111.56
1110.64
1110.77
1110.25
1109.1
1109.42
1109.16
1107.79
1108.84
1108.66
1108.47
1108.04
1107.72
1107.75
1107.93
1109.68
1111.98
1113.29
1114.46
1115.4
1114.15
1113.91
1114.02
1113.45
1113.33
1113.7
1112.48
1110.23
1111.91
1110.25
1112.84
1113.43
1105.64
1098.21
1099.09
1098.16
1097.88
1097.66
1096.81
1095.99
1094.43
1093.14
1093.59
1094.12
1094.04
1093.73
1093.37
1092.2
1092.22
1092.53
1092.15
1091.63
1091.41
1091.19
1091.62
1093.69
1097.91
1098.78
1097.69
1097.52
1096.97
1096.63
1095.63
1096.11
1095.75
1094.63
1093.18
1092.53
1092.04
1092.49
1094.68
1094
1083.97
1081.21
1081.99
1080.61
1079.81
1078.73
1078.39
1078.13
1077.69
1077.06
1077.57
1078.05
1078.21
1077.84
1077.41
1076.11
1076.24
1076.37
1076.26
1075.73
1075.44
1074.47
1074.83
1075.16
1076.31
1077.69
1077.52
1077.98
1077.91
1077.63
1077.47
1079.62
1077.66
1076.88
1076.04
1076.35
1075.48
1075.97
1075.55
1076.42
1064.03
1063.45
1062.75
1061.08
1061.26
1059.67
1060.11
1059.94
1059.82
1059.66
1061.03
1061.97
1062
1061.72
1060.04
1059.82
1059.77
1058.68
1059.21
1057.97
1058.42
1057.68
1059.38
1057.81
1058.15
1058.3
1058.38
1058.34
1058.17
1058
1057.95
1057.8
1057.81
1057.73
1056.78
1055.98
1055.19
1058.4
1056.24
1055.74
1044.95
1044.5
1044.2
1043.94
1043.37
1042.04
1042.4
1042
1042.25
1042.36
1041.96
1042.75
1042.82
1042.2
1041.42
1040.74
1040.3
1039.78
1041.39
1039.47
1039.93
1039.33
1040
1039.37
1039.49
1039.44
1039.33
1039.11
1038.54
1038.1
1037.87
1037.87
1037.59
1037.46
1037.13
1038.83
1037.95
1036.21
1037.78
1040.76
1025.38
1025.06
1024.95
1024.72
1024.38
1024.28
1024.33
1024.02
1024.34
1024.25
1022.73
1023.28
1023.17
1022.71
1021.9
1021.16
1020.36
1019.91
1020.6
1019.86
1020.51
1020.34
1021.4
1020.87
1020.9
1020.94
1020.84
1020.75
1020.42
1020.05
1019.98
1020.29
1020.2
1020.01
1021.92
1023.48
1023.25
1026.48
1021.03
1024.36
1006.31
1005.49
1005.34
1005.24
1005.05
1005.02
1005
1004.68
1005.87
1003.91
1003.59
1003.14
1003.13
1003.18
1003.08
1002.73
1003.44
1001.78
1001.75
1001.62
1001.82
1002.18
1002.75
1002.24
1002.35
1002.51
1002.55
1002.64
1002.54
1002.34
1001.72
1001.06
1003.02
1002.03
1003.57
1006
1007.29
1007.18
1008.46
1008.92
988.238
987.691
986.218
985.322
985.268
985.132
984.934
984.424
985.092
983.287
982.977
982.869
982.93
984.069
985.125
985.719
986.075
987.593
984.892
984.668
984.267
984.476
984.317
983.521
983.516
983.625
983.664
983.646
983.654
983.482
983.018
983.228
984.125
984.648
985.126
990.081
989.064
991.227
991.933
992.408
968.808
968.474
967.668
965.748
965.119
964.475
964.722
964.036
964.631
964.289
963.999
963.123
963.36
965.291
967.017
968.1
968.148
970.219
967.696
966.859
966.046
965.376
964.715
964.36
964.203
964.188
964.172
964.151
964.166
964.146
964.41
966.07
965.409
965.085
966.848
969.373
970.898
971.912
972.626
975.572
947.542
946.791
946.204
945.655
945.048
945.734
946.301
946.382
946.43
946.253
945.864
945.726
945.601
945.465
946.769
946.993
948.654
949.139
950.44
947.27
946.738
946.053
945.288
944.771
944.577
944.626
944.738
944.878
945.217
946.333
949.36
949.413
948.664
947.844
949.789
951.403
952.611
952.911
953.291
953.765
926.273
925.755
925.347
925.006
924.696
924.589
924.858
927.216
926.452
925.959
926.742
925.866
926.643
925.438
928.736
929.321
927.297
929.118
929.443
927.368
926.933
926.353
925.746
925.127
924.712
924.652
925.118
925.534
925.665
927.708
929.514
928.271
930.274
930.724
931.301
932.292
933.315
933.726
934.241
934.709
904.612
904.316
904.095
903.877
903.762
903.833
903.983
904.151
904.466
904.917
905.21
905.326
905.214
905.586
907.486
908.584
906.79
907.651
907.55
906.702
907.076
906.644
906.138
905.924
905.713
905.452
905.899
906.616
907.551
908.084
909.333
909.281
911.036
912.075
912.127
913.658
914.06
915.007
915.27
915.881
883.803
883.212
882.935
882.611
882.679
882.756
882.946
883.3
883.768
884.319
884.645
884.92
886.423
886.277
885.951
886.073
885.195
886.072
885.811
886.606
887.426
887.811
886.721
886.756
887.171
889.271
888.777
888.118
888.118
889.192
889.887
890.684
891.413
892.356
893.623
894.646
895.54
896.939
897.37
898.325
863.736
863.171
862.514
861.934
861.891
861.57
861.793
862.38
863.016
863.477
864.095
865.653
865.127
864.791
865.68
865.611
865.268
865.647
866.182
869.979
870.108
869.972
870.56
870.429
868.547
868.027
868.063
868.039
867.952
868.538
869.618
870.918
871.937
873.338
874.73
876.009
877.619
878.621
879.305
880.299
844.539
844.207
843.117
841.926
840.774
840.224
840.685
841.827
843.107
844.326
846.01
846.503
847.273
847.78
848.162
848.226
848.484
850.239
852.587
854.386
854.755
854.383
852.433
850.514
849.257
848.268
847.573
846.728
846.221
846.322
847.21
849.008
851.282
853.232
855.286
857.091
858.498
859.544
860.559
861.27
827.261
825.829
823.797
821.198
818.184
816.785
819.12
821.741
823.552
824.891
826.07
827.322
828.958
830.812
832.292
833.563
835.158
836.708
840.416
841.718
840.603
838.118
836.198
833.956
830.929
828.567
827.144
825.503
823.564
821.384
821.417
824.455
828.59
832.357
835.02
837.103
838.499
839.383
840.402
841.466
809.214
808.237
807.086
804.4
799.686
801.363
800.275
801.934
803.628
805.075
806.369
808.316
810.959
813.897
816.648
818.377
820.172
821.722
822.608
824.561
825.6
824.12
821.835
817.707
812.954
809.308
807.324
805.646
807.05
806.547
806.8
806.667
810.358
814.35
816.678
818.009
818.564
819.187
819.999
821.952
792.365
791.654
792.439
791.052
788.877
788.63
787.142
787.549
787.465
788.193
790.348
793.325
796.096
797.492
800.936
804.035
805.643
805.326
805.131
804.52
804.96
805.695
803.458
799.777
802.64
801.124
800.652
799.095
798.421
797.71
796.949
797.604
795.79
797.546
799.672
801.287
801.143
800.059
799.734
801.461
776.619
777.505
781.862
784.677
779.102
773.06
772.27
771.352
768.881
771.452
767.832
770.671
774.71
777.646
781.112
782.955
783.652
784.221
783.827
783.367
782.73
782.393
782.616
784.402
780.226
781.843
779.481
780.767
782.834
783.085
783.619
781.206
779.048
778.42
777.275
785.412
781.937
780.604
778.756
779.656
759.926
761.183
762.695
763.447
764.856
760.77
751.529
753.947
749.693
748.065
743.446
745.656
748.652
752.656
757.326
759.947
760.037
759.55
760.208
759.087
758.507
758.162
759.408
758.846
758.938
758.558
759.018
760.111
762.321
763.335
763.611
764.149
763.041
759.946
761.894
764.503
760.003
761.092
762.251
760.447
742.538
742.627
743.136
744.356
741.121
736.58
733.2
731.564
730.548
726.74
725.258
725.742
728.579
731.359
734.245
736.689
737.483
738.908
738.732
737.62
736.639
736.185
735.208
736.122
736.664
737.608
738.515
740.718
742.157
745.347
743.915
745.671
744.299
743.207
744.122
744.941
744.505
741.176
741.209
742.757
725.017
724.315
725.658
725.548
722.948
722.336
720.158
717.505
715.249
713.461
711.269
709.163
711.138
713.012
714.441
715.504
716.043
716.561
716.765
715.809
714.499
712.922
710.102
709.204
708.429
710.223
715.99
720.369
722.792
723.91
726.386
726.061
725.688
727.127
728.153
729.408
728.368
725.178
723.343
725.203
706.967
707.095
705.986
707.12
706.435
708.011
705.477
703.119
700.903
698.567
695.753
694.024
694.002
694.286
694.91
695.06
694.814
695.15
695.487
694.018
691.181
686.834
684.543
681.165
681.736
689.085
696.458
696.19
699.8
702.182
703.973
705.162
713.038
709.403
711.522
712.259
710.079
709.333
708.904
710.136
689.413
689.026
688.758
687.6
687.268
686.231
686.641
687.246
685.447
679.621
677.357
675.656
674.709
673.863
673.439
674.21
674.519
674.674
676.763
674.972
671.455
667.43
662.101
662.399
665.777
669.707
672.415
676.247
679.084
681.102
683.036
684.707
692.867
686.05
689.671
690.777
688.616
687.815
687.739
688.837
672.248
671.251
669.939
668.627
666.564
665.322
663.044
660.593
658.594
655.952
654.637
653.865
653.404
655.292
652.66
653.573
654.24
654.667
656.262
656.769
655.425
651.107
650.46
651.884
653.726
654.986
656.469
658.103
659.427
660.841
662.506
663.386
666.414
667.013
667.558
666.043
667.367
666.211
665.815
668.089
653.313
651.756
649.518
646.894
644.505
642.012
639.566
637.154
635.072
633.822
633.316
633.945
634.761
638.116
639.344
636.237
636.86
639.412
641.286
640.791
640.013
639.264
639.571
639.998
640.003
641.036
640.934
641.011
641.721
642.778
644.892
651.285
650.952
651.905
651.189
652.349
652.835
652.859
653.289
653.887
632.211
628.834
625.279
621.994
618.874
616.297
614.147
612.618
611.766
611.43
612.568
615.408
617.217
618.801
620.632
621.39
622.412
623.847
625.609
624.174
625.988
626.541
626.194
626.074
625.489
625.478
625.738
625.782
626.189
627.833
632.149
636.03
638.743
638.584
638.378
637.692
638.127
639.021
637.363
637.903
606.01
600.698
595.196
591.397
588.621
586.667
585.327
585.105
586.555
588.329
591.504
595.447
598.322
600.284
602.748
605.167
606.582
607.297
608.484
607.452
608.821
608.32
610.584
610
609.392
608.993
609.149
609.341
609.738
611.236
618.232
619.858
618.236
619.595
618.582
618.496
618.995
619.195
618.304
618.462
572.994
565.032
557.932
553.475
551.852
551.744
552.535
554.727
558.741
563.088
568.6
573.202
577.311
581
584.144
586.965
589.116
589.762
589.484
588.133
590.078
592.075
592.817
591.97
591.181
591.245
590.857
589.881
590.223
594.17
594.611
597.263
598.742
598.93
598.691
598.538
598.673
598.764
598.401
598.443
531.234
520.382
513.199
511.41
512.325
513.568
515.777
520.742
528.465
536.022
542.976
549.219
555.451
560.112
564.102
567.447
569.889
571.977
572.596
569.548
570.972
576.342
572.948
572.077
572.09
570.993
571.018
571.637