/*--------------------------------*- C++ -*----------------------------------*\
  =========                 |
  \\      /  F ield         | OpenFOAM: The Open Source CFD Toolbox
   \\    /   O peration     | Website:  https://openfoam.org
    \\  /    A nd           | Version:  8
     \\/     M anipulation  |
\*---------------------------------------------------------------------------*/
FoamFile
{
    version     2.0;
    format      ascii;
    class       surfaceScalarField;
    location    "5.25";
    object      alphaPhi0.water;
}
// * * * * * * * * * * * * * * * * * * * * * * * * * * * * * * * * * * * * * //

dimensions      [0 3 -1 0 0 0 0];

internalField   nonuniform List<scalar> 
18095
(
1.98868e-08
-1.72026e-07
1.52139e-07
2.31563e-08
-1.976e-07
1.94331e-07
2.00482e-08
-2.06185e-07
2.09293e-07
1.19757e-08
-2.11442e-07
2.19515e-07
9.08936e-10
-2.13544e-07
2.24611e-07
-1.11237e-08
-2.12907e-07
2.2494e-07
-2.0348e-08
-2.1038e-07
2.19604e-07
-2.32105e-08
-2.06104e-07
2.08966e-07
-1.9857e-08
-1.97736e-07
1.94383e-07
-1.72076e-07
1.52219e-07
1.55444e-08
-1.87571e-07
1.60941e-08
-1.9815e-07
1.17948e-08
-2.01886e-07
5.57194e-09
-2.05219e-07
-1.22423e-09
-2.06748e-07
-7.01215e-09
-2.07119e-07
-1.20645e-08
-2.05327e-07
-1.60293e-08
-2.02139e-07
-1.55367e-08
-1.98229e-07
-1.87612e-07
6.81821e-09
-1.94389e-07
8.41652e-09
-1.99748e-07
7.4686e-09
-2.00938e-07
4.61238e-09
-2.02363e-07
5.37854e-10
-2.02673e-07
-3.78837e-09
-2.02793e-07
-7.14668e-09
-2.01969e-07
-8.35158e-09
-2.00934e-07
-6.80624e-09
-1.99774e-07
-1.94419e-07
4.53516e-09
-1.98924e-07
4.72773e-09
-1.99941e-07
3.66538e-09
-1.99875e-07
1.77098e-09
-2.00469e-07
-1.68954e-10
-2.00733e-07
-2.10611e-09
-2.00856e-07
-3.68305e-09
-2.00392e-07
-4.70955e-09
-1.99908e-07
-4.51227e-09
-1.99971e-07
-1.98931e-07
1.07604e-09
1.13524e-09
1.25996e-09
7.91131e-10
5.79582e-11
-7.98018e-10
-1.19023e-09
-1.09783e-09
-1.06913e-09
-2.79528e-08
-1.9623e-07
2.24183e-07
-3.03967e-08
-1.99206e-07
2.0165e-07
-2.49157e-08
-2.01693e-07
1.96212e-07
-1.30607e-08
-2.02474e-07
1.90619e-07
1.47336e-09
-2.02361e-07
1.87827e-07
1.52236e-08
-2.01545e-07
1.87795e-07
2.55707e-08
-2.0073e-07
1.90382e-07
3.04969e-08
-2.00712e-07
1.95786e-07
2.80276e-08
-1.98883e-07
2.01352e-07
-1.96166e-07
2.24194e-07
-9.53024e-09
-1.867e-07
-1.52504e-08
-1.93486e-07
-1.36872e-08
-2.03256e-07
-7.99015e-09
-2.08171e-07
-2.12329e-09
-2.08228e-07
4.28952e-09
-2.07958e-07
1.19748e-08
-2.08415e-07
1.49062e-08
-2.03644e-07
9.50392e-09
-1.9348e-07
-1.86662e-07
-1.03317e-08
-1.76368e-07
-8.47363e-09
-1.95344e-07
-6.96671e-09
-2.04763e-07
-5.09975e-09
-2.10038e-07
-1.72795e-10
-2.13155e-07
5.03226e-09
-2.13163e-07
6.79725e-09
-2.1018e-07
8.04633e-09
-2.04893e-07
1.00421e-08
-1.95476e-07
-1.7662e-07
-6.55704e-09
-1.69811e-07
-8.70656e-09
-1.93195e-07
-8.52635e-09
-2.04943e-07
-4.32134e-09
-2.14243e-07
-1.0485e-09
-2.16428e-07
2.65837e-09
-2.1687e-07
7.6211e-09
-2.15143e-07
8.14573e-09
-2.05418e-07
6.39164e-09
-1.93722e-07
-1.70228e-07
-1.76719e-08
-1.65359e-08
-1.21861e-08
-6.91418e-09
1.26837e-09
9.33872e-09
1.38003e-08
1.73491e-08
1.80096e-08
3.7253e-08
-1.56345e-07
1.19093e-07
4.22426e-08
-1.97462e-07
1.92472e-07
3.58454e-08
-2.10107e-07
2.16504e-07
2.50421e-08
-2.15434e-07
2.26237e-07
8.89464e-09
-2.17218e-07
2.33365e-07
-9.03149e-09
-2.1764e-07
2.35566e-07
-2.50305e-08
-2.15701e-07
2.317e-07
-3.42589e-08
-2.10234e-07
2.19462e-07
-2.84944e-08
-1.99712e-07
1.93948e-07
-1.60148e-07
1.31653e-07
1.74866e-08
-1.73832e-07
2.01276e-08
-2.00103e-07
1.60213e-08
-2.06e-07
8.06906e-09
-2.07482e-07
-1.48696e-09
-2.07662e-07
-1.04095e-08
-2.08718e-07
-1.58889e-08
-2.10222e-07
-1.80175e-08
-2.08105e-07
-1.54962e-08
-2.02234e-07
-1.75644e-07
9.25197e-09
-1.83084e-07
1.02011e-08
-2.01052e-07
9.72306e-09
-2.05522e-07
6.74795e-09
-2.04506e-07
3.63436e-09
-2.04548e-07
-2.95335e-10
-2.04788e-07
-6.06418e-09
-2.04453e-07
-7.77838e-09
-2.06391e-07
-7.95854e-09
-2.02053e-07
-1.83602e-07
7.74889e-09
-1.90833e-07
5.97535e-09
-1.99278e-07
6.8954e-09
-2.06442e-07
1.78601e-09
-1.99397e-07
1.51943e-10
-2.02914e-07
-1.19755e-09
-2.03438e-07
-5.79981e-09
-1.9985e-07
-5.1072e-09
-2.07083e-07
-7.60214e-09
-1.99558e-07
-1.91205e-07
3.33501e-08
3.57221e-08
2.54917e-08
1.67134e-08
1.62653e-09
-1.40174e-08
-2.34853e-08
-3.47825e-08
-3.2989e-08
-1.49425e-07
-8.14875e-10
1.50239e-07
-1.49743e-07
3.17124e-10
-1.6374e-07
1.39957e-08
-1.93692e-07
2.90641e-08
-2.30174e-07
3.45265e-08
-2.41211e-07
1.05456e-08
-2.26233e-07
-1.49766e-08
-2.03375e-07
-2.28566e-08
-1.80641e-07
-2.27329e-08
-1.92194e-08
-1.61419e-07
-1.82193e-07
6.60616e-10
1.79588e-07
-1.86988e-07
5.11095e-09
-1.90545e-07
2.59706e-08
-1.94031e-07
4.25364e-08
-1.99824e-07
3.90881e-08
-2.23287e-07
8.21385e-09
-2.15898e-07
-2.23645e-08
-2.04738e-07
-3.40163e-08
-1.91677e-07
-3.57912e-08
-3.36559e-08
-1.74121e-07
-2.32634e-07
2.55974e-08
2.0329e-07
-2.65528e-07
3.82416e-08
-2.51705e-07
3.93076e-08
-2.5465e-07
4.43622e-08
-2.37787e-07
2.11257e-08
-2.36137e-07
1.32539e-09
-2.69927e-07
-1.74624e-08
-2.78486e-07
-2.54572e-08
-2.82698e-07
-3.15776e-08
-4.0951e-08
-2.72463e-07
-3.09741e-07
4.56783e-08
2.89306e-07
-3.18759e-07
4.66092e-08
-3.30083e-07
4.45841e-08
-3.61367e-07
3.62091e-08
-3.54136e-07
1.39357e-08
-3.46087e-07
-6.72338e-09
-3.48517e-07
-1.50328e-08
-3.51627e-07
-2.23473e-08
-3.49419e-07
-3.37856e-08
-4.86068e-08
-3.41742e-07
-3.04203e-07
5.53296e-08
2.94439e-07
-3.19993e-07
5.59151e-08
-3.63753e-07
5.11353e-08
-3.56489e-07
2.8943e-08
-3.51202e-07
8.64779e-09
-3.53444e-07
-4.48091e-09
-3.56179e-07
-1.22979e-08
-3.5645e-07
-2.20767e-08
-3.54222e-07
-3.60126e-08
-5.20621e-08
-3.51154e-07
-2.54365e-07
5.21829e-08
2.57415e-07
-2.72503e-07
5.6674e-08
-2.98941e-07
5.38461e-08
-3.08716e-07
3.8718e-08
-3.18918e-07
1.88505e-08
-3.21521e-07
-1.87827e-09
-3.19529e-07
-1.42906e-08
-3.16898e-07
-2.47081e-08
-3.14142e-07
-3.87727e-08
-5.34196e-08
-3.14306e-07
-1.98723e-07
2.07557e-08
2.30013e-07
-1.71636e-07
2.93959e-08
-1.81851e-07
4.32804e-08
-2.03579e-07
4.53418e-08
-2.22997e-07
3.82688e-08
-2.40238e-07
1.53623e-08
-2.55094e-07
5.65678e-10
-2.51209e-07
-2.8593e-08
-2.44565e-07
-4.54168e-08
-5.40098e-08
-2.43969e-07
-2.07875e-07
-2.40444e-08
2.57384e-07
-1.5369e-07
-1.63291e-08
-9.95449e-08
-4.21147e-09
-6.09521e-08
4.04655e-09
-7.79547e-08
5.24222e-08
-1.26972e-07
5.31103e-08
-1.47674e-07
2.12677e-08
-1.49155e-07
-2.71122e-08
-1.55478e-07
-3.90923e-08
-3.73221e-08
-1.70173e-07
-1.29199e-07
-5.09963e-08
1.561e-07
-7.8969e-08
-6.6603e-08
-6.57519e-09
-7.65867e-08
6.18608e-08
-6.61271e-08
3.778e-08
7.08569e-08
-5.93808e-09
9.57116e-08
-2.17879e-08
3.6264e-08
-3.94573e-08
-9.9064e-09
-6.17956e-08
-1.47134e-08
-1.70407e-08
-6.82522e-08
-3.94099e-08
-4.69053e-08
3.52745e-08
-3.48389e-08
-7.12424e-08
-3.91946e-09
-1.07575e-07
3.73087e-08
-1.10042e-07
8.20265e-08
2.40443e-08
9.61885e-08
7.78631e-08
8.28802e-08
4.58219e-08
4.17689e-08
2.46044e-08
5.95754e-09
1.4941e-08
-9.76139e-09
2.31772e-09
2.85927e-08
-3.10127e-08
-4.42769e-08
2.32332e-09
-4.50424e-08
-3.45644e-08
-7.07599e-08
-6.88035e-08
-7.29623e-08
2.89161e-11
-4.1859e-08
5.34188e-08
1.2165e-08
6.81183e-08
1.95457e-08
7.02154e-08
1.90217e-08
6.69565e-08
1.81551e-08
-7.15116e-10
5.78699e-08
5.65482e-08
-2.95637e-08
-5.80385e-08
4.82705e-08
-3.68282e-08
1.35785e-08
-3.61068e-08
-3.18178e-08
-2.75959e-08
-4.42537e-08
-2.65856e-08
-1.25718e-08
-1.31102e-08
1.73112e-08
-1.77903e-08
2.96551e-08
6.77049e-09
3.35403e-08
1.57096e-08
-5.9434e-09
3.87248e-08
5.59751e-08
-3.29402e-08
-5.2628e-08
5.744e-08
-3.83344e-08
5.98417e-08
-3.85386e-08
6.03942e-08
-2.81755e-08
2.08221e-08
1.15458e-08
-1.85614e-08
2.55775e-08
-3.35574e-08
-2.54897e-09
-1.6215e-08
-9.3397e-09
-5.78265e-10
3.54825e-09
-1.02359e-08
2.67125e-09
3.77366e-08
-3.20009e-08
-3.87006e-08
4.43885e-08
-4.50157e-08
5.0717e-08
-4.48931e-08
6.02896e-08
-3.77744e-08
7.02245e-08
-1.72226e-09
7.5461e-08
1.98812e-08
5.04982e-08
2.42792e-08
2.42679e-08
1.70898e-08
1.46929e-08
1.31243e-08
-1.02698e-08
1.47279e-08
1.77294e-07
3.01997e-08
-2.33793e-07
1.21857e-07
1.03979e-08
9.50549e-08
-1.81161e-08
8.95506e-08
-3.2295e-08
9.72872e-08
-1.36388e-08
1.1327e-07
3.48868e-09
1.21646e-07
1.54877e-08
1.09788e-07
2.85328e-08
8.98586e-08
3.70338e-08
1.67937e-08
6.27962e-08
2.73004e-07
5.05662e-08
-2.94019e-07
2.54867e-07
5.47709e-08
2.5394e-07
4.93437e-08
1.92102e-07
2.95412e-08
1.67736e-07
1.08318e-08
1.63313e-07
8.13031e-09
1.62564e-07
1.14054e-08
1.66984e-07
2.37021e-08
1.64531e-07
4.39175e-08
5.33985e-08
1.29183e-07
2.98105e-07
4.49283e-08
-2.92971e-07
3.03986e-07
4.82823e-08
2.90892e-07
6.20511e-08
3.38657e-07
7.97687e-08
2.65202e-07
8.67261e-08
2.20376e-07
5.31748e-08
1.99289e-07
3.1272e-08
1.97269e-07
2.57087e-08
2.11298e-07
3.05926e-08
5.25638e-08
2.07785e-07
4.42226e-07
4.59696e-08
-4.43363e-07
3.58937e-07
5.78732e-08
3.58526e-07
6.24041e-08
3.95045e-07
1.17301e-07
3.56735e-07
1.62069e-07
2.69583e-07
1.40463e-07
2.17159e-07
8.371e-08
1.98619e-07
4.42558e-08
2.01476e-07
2.77409e-08
3.0828e-08
2.17103e-07
5.07383e-07
9.48356e-09
-4.70899e-07
5.23801e-07
4.14258e-08
4.28884e-07
9.64048e-08
4.41504e-07
1.63675e-07
4.42684e-07
2.09242e-07
3.59053e-07
2.244e-07
2.6242e-07
1.80366e-07
2.00504e-07
1.06177e-07
1.79196e-07
4.90531e-08
2.31822e-08
1.86845e-07
4.92344e-07
-1.37093e-08
-4.69144e-07
4.9788e-07
3.58765e-08
4.96256e-07
9.80099e-08
4.87267e-07
1.72996e-07
4.69515e-07
2.40215e-07
4.28232e-07
2.66564e-07
3.46702e-07
2.61911e-07
2.43928e-07
2.08954e-07
1.81904e-07
1.1108e-07
3.97575e-08
1.65332e-07
3.97447e-07
-2.40652e-08
-3.87103e-07
3.91912e-07
4.13931e-08
3.89426e-07
1.00474e-07
4.07492e-07
1.54886e-07
4.19118e-07
2.28517e-07
3.99622e-07
2.8645e-07
3.61916e-07
2.8426e-07
3.02256e-07
2.06549e-07
2.51094e-07
1.30772e-07
7.49724e-08
2.15882e-07
2.07479e-07
-1.40815e-08
-2.32862e-07
1.66625e-07
3.64906e-08
1.73281e-07
6.77015e-08
2.03833e-07
9.40742e-08
2.1922e-07
1.49485e-07
2.09122e-07
1.67311e-07
1.49132e-07
1.47114e-07
1.63777e-07
1.31843e-07
1.98535e-07
9.55607e-08
6.08899e-08
2.11224e-07
-6.96968e-09
-8.63881e-10
-7.62408e-09
9.12095e-09
1.87028e-08
2.49628e-08
5.09883e-08
3.82614e-08
7.00666e-08
6.13906e-08
9.12317e-08
1.03742e-07
9.19212e-08
1.53412e-07
9.70747e-08
1.97208e-07
8.7848e-08
2.24195e-07
6.8462e-08
4.46613e-08
2.4034e-07
-7.59985e-08
6.43902e-09
8.2434e-08
-5.75041e-08
3.3441e-08
-4.99792e-08
4.2564e-08
-2.79422e-08
4.69213e-08
1.83727e-08
4.38793e-08
9.22433e-08
1.75896e-08
1.68021e-07
2.10978e-08
2.19575e-07
3.61818e-08
2.47381e-07
4.05802e-08
2.79582e-08
2.64048e-07
-1.47192e-07
-1.64088e-08
1.69273e-07
-1.09034e-07
1.28537e-08
-6.57748e-08
2.94506e-08
-3.5569e-08
4.87462e-08
1.01159e-08
1.34455e-08
5.63128e-08
-3.78679e-08
1.2627e-07
-4.93279e-08
1.89624e-07
-2.73721e-08
3.36224e-07
-2.83698e-09
-3.61395e-09
4.38327e-07
-2.44495e-07
-4.70683e-08
2.73388e-07
-1.88635e-07
-3.90177e-08
-1.20258e-07
-3.54268e-08
-5.46742e-08
-1.46397e-08
5.26729e-09
-4.34082e-08
2.95074e-08
-7.80141e-08
7.46025e-08
-1.04381e-07
1.83966e-07
-1.21761e-07
3.05098e-07
-1.18781e-07
-1.03003e-07
4.07366e-07
-2.97641e-07
-7.39663e-08
3.26348e-07
-2.44862e-07
-8.32486e-08
-2.01102e-07
-8.09796e-08
-1.42004e-07
-5.71968e-08
-8.11609e-08
-8.20534e-08
4.63887e-09
-1.42541e-07
1.22398e-07
-2.02047e-07
2.33339e-07
-2.16088e-07
3.15693e-07
-1.85416e-07
-1.73565e-07
4.19833e-07
-3.88403e-07
-8.19418e-08
3.90064e-07
-3.82241e-07
-8.622e-08
-2.74414e-07
-8.52092e-08
-2.2756e-07
-9.12044e-08
-1.94235e-07
-1.25349e-07
-1.3103e-07
-1.93335e-07
-6.31262e-08
-2.75111e-07
4.51039e-08
-2.68516e-07
1.47106e-07
-3.20918e-07
-3.14078e-07
2.7873e-07
-6.25316e-07
-7.10544e-08
6.15224e-07
-5.06752e-07
-9.60915e-08
-4.9531e-07
-1.13437e-07
-4.66991e-07
-1.33703e-07
-4.07362e-07
-1.96812e-07
-3.32845e-07
-2.89322e-07
-3.07603e-07
-4.09407e-07
-1.91474e-07
-5.44465e-07
1.23472e-08
-6.44497e-07
-6.5937e-07
2.26039e-07
-6.78299e-07
-1.00536e-07
7.08065e-07
-6.48917e-07
-1.25259e-07
-5.78877e-07
-1.50412e-07
-4.87452e-07
-1.95834e-07
-4.99369e-07
-2.65672e-07
-4.4856e-07
-3.35402e-07
-3.77481e-07
-4.76509e-07
-2.83955e-07
-6.37101e-07
-1.40647e-07
-7.86715e-07
-8.41368e-07
4.23458e-08
-5.4333e-07
-1.72178e-07
6.15483e-07
-4.83348e-07
-1.80658e-07
-4.2572e-07
-1.47701e-07
-3.41045e-07
-1.70115e-07
-2.71729e-07
-1.7921e-07
-2.50835e-07
-1.09296e-07
-2.50771e-07
-3.37293e-07
-2.16012e-07
-6.28601e-07
-1.2232e-07
-8.79322e-07
-9.47284e-07
-1.5314e-08
-2.74814e-07
-2.48362e-07
4.01428e-07
-1.3302e-07
-2.2773e-07
-4.51059e-08
-1.79247e-07
1.37492e-09
-1.51383e-07
-3.86607e-09
-9.00736e-08
-2.10429e-08
-9.42744e-08
-2.59488e-08
-1.51794e-07
-5.41517e-08
-4.22324e-07
-4.09395e-08
-8.90304e-07
-9.82021e-07
-4.76977e-09
-9.88168e-08
-2.83352e-07
1.78868e-07
-2.04538e-08
-2.65517e-07
2.63408e-08
-3.50749e-07
5.28803e-08
-3.03391e-07
5.08999e-08
-9.02851e-08
4.52362e-08
-9.0684e-08
2.94229e-08
-1.3818e-07
7.06207e-08
-4.7389e-07
8.12522e-08
-8.91502e-07
-9.42888e-07
4.79585e-08
-5.16701e-08
-4.45582e-07
7.30565e-08
-4.63149e-08
-4.1244e-07
-1.94896e-08
-3.76909e-07
1.39389e-09
-3.91216e-07
1.17937e-08
-1.18808e-07
1.5769e-08
-9.68943e-08
4.46821e-08
-1.6959e-07
1.03045e-07
-7.30997e-07
1.19148e-07
-9.05304e-07
-6.93909e-07
5.96639e-08
-9.30884e-08
-4.67971e-07
1.1578e-07
-6.28512e-08
-4.42394e-07
-4.06923e-08
-3.9876e-07
-4.22576e-08
-3.86474e-07
-2.74081e-08
-1.12364e-07
-2.15942e-08
-1.05205e-07
5.53611e-09
-4.73975e-07
4.78996e-08
-8.04409e-07
4.61172e-08
-9.03594e-07
-4.39013e-07
2.27714e-08
-2.84937e-08
-4.72138e-07
3.29287e-08
-2.47989e-08
-4.45781e-07
-2.95223e-08
-3.93407e-07
-4.60535e-08
-2.67988e-07
-1.42114e-08
-8.27502e-08
-9.32769e-08
-1.26903e-07
-5.34644e-08
-6.70368e-07
-3.1621e-08
-8.23261e-07
-3.57286e-08
-8.76356e-07
-3.75559e-07
-4.09712e-08
3.33796e-08
-4.64722e-07
-4.05877e-08
1.65365e-08
-4.28308e-07
-1.70515e-09
-3.43948e-07
-1.17652e-08
-1.02606e-07
-4.18323e-08
-6.62795e-08
-9.30542e-08
-1.54723e-07
-1.00572e-07
-6.59054e-07
-1.18215e-07
-8.02151e-07
-1.47819e-07
-8.55075e-07
-6.3848e-07
-1.22874e-07
4.02682e-08
-4.42947e-07
-6.21858e-08
1.40553e-09
-3.33057e-07
-2.04088e-08
-1.82159e-07
-3.78158e-08
-8.20557e-08
-5.04665e-08
-6.80835e-08
-9.32232e-08
-1.64282e-07
-1.44988e-07
-6.0321e-07
-1.96585e-07
-7.46842e-07
-2.36086e-07
-8.27554e-07
-8.32447e-07
-2.13572e-07
9.08578e-09
-3.38454e-07
-6.79301e-08
-2.50895e-08
-2.70208e-07
-2.64175e-08
-1.24013e-07
-2.17901e-08
-9.56571e-08
-1.92511e-08
-8.23393e-08
-3.17486e-08
-1.31048e-07
-1.11261e-07
-4.59916e-07
-1.88621e-07
-6.6429e-07
-2.43796e-07
-7.67897e-07
-8.05642e-07
-2.58784e-07
-2.37848e-08
-3.02346e-07
-2.69145e-08
-1.46863e-08
-3.25994e-07
3.35513e-10
-2.43701e-07
2.24479e-08
-2.49479e-07
4.67856e-08
-1.15653e-07
7.63799e-08
-7.71779e-08
4.57134e-08
-2.62956e-07
-4.20754e-08
-3.99451e-07
-1.41756e-07
-5.57726e-07
-7.39517e-07
-1.95203e-07
-3.42756e-08
-3.30715e-07
-5.77762e-09
-5.20961e-08
-3.72336e-07
-2.87358e-08
-3.55794e-07
2.04351e-08
-3.68039e-07
2.72257e-08
-3.03732e-07
8.39791e-08
-2.17224e-07
1.18033e-07
-1.91152e-07
1.14561e-07
-2.71942e-07
6.49444e-08
-3.03723e-07
-4.699e-07
2.58057e-09
-7.27342e-08
-2.93423e-07
3.57856e-08
-9.59788e-08
-3.48735e-07
-5.27776e-08
-3.98638e-07
2.89155e-09
-4.37686e-07
6.40177e-08
-4.57213e-07
7.87696e-08
-4.91993e-07
1.09291e-07
-3.07355e-07
1.12245e-07
-2.87208e-07
1.1387e-07
-3.0892e-07
-3.66369e-07
1.63615e-07
-2.37892e-08
-2.45087e-07
-2.41896e-08
-4.07083e-08
-3.31476e-07
-2.68327e-08
-4.12304e-07
-1.35023e-08
-4.52489e-07
3.73092e-08
-5.12338e-07
9.33686e-08
-5.60661e-07
8.46051e-08
-5.3811e-07
1.01473e-07
-3.07101e-07
1.27224e-07
-3.38456e-07
-4.22599e-07
1.78851e-07
1.50506e-07
-1.82051e-07
-1.95464e-07
1.35624e-07
-3.15907e-07
1.22421e-07
-3.9894e-07
9.09586e-08
-3.86861e-07
8.96858e-08
-4.65525e-07
1.02591e-07
-5.98934e-07
1.03871e-07
-5.89959e-07
9.52141e-08
-3.51582e-07
1.58401e-07
-4.06247e-07
-6.10424e-07
3.07054e-07
3.67295e-07
-1.15356e-07
-2.6177e-07
3.63621e-07
-1.80787e-07
3.31465e-07
-3.65091e-07
2.32656e-07
-3.55889e-07
2.63024e-07
-3.8136e-07
2.52446e-07
-5.18183e-07
2.35498e-07
-5.72702e-07
1.46969e-07
-4.57716e-07
2.89249e-07
-7.01996e-07
-8.34845e-07
4.04803e-07
3.20131e-07
-1.26587e-07
-3.11055e-07
3.03098e-07
-1.68057e-07
3.99803e-07
-2.56237e-07
3.32107e-07
-3.22027e-07
3.05916e-07
-3.58967e-07
3.48196e-07
-4.25766e-07
3.8961e-07
-4.74949e-07
3.55679e-07
-6.0026e-07
4.297e-07
-8.02167e-07
-8.71775e-07
4.41719e-07
3.32451e-07
-1.28184e-07
-3.36615e-07
3.18091e-07
-1.47421e-07
4.04082e-07
-2.14408e-07
3.12311e-07
-2.80732e-07
3.08089e-07
-3.58048e-07
2.929e-07
-4.13703e-07
2.98281e-07
-4.83366e-07
4.26325e-07
-7.26588e-07
4.71594e-07
-8.63496e-07
-6.77685e-07
3.43919e-07
3.16362e-07
-1.02355e-07
-3.54759e-07
3.43479e-07
-1.38293e-07
3.3197e-07
-2.01737e-07
2.83491e-07
-2.49595e-07
2.85295e-07
-3.62979e-07
2.68939e-07
-4.00407e-07
3.30671e-07
-5.77266e-07
4.18364e-07
-8.34351e-07
3.34192e-07
-7.37695e-07
-4.89832e-07
2.32796e-07
2.96865e-07
-8.24665e-08
-3.37569e-07
3.76391e-07
-1.20498e-07
2.93593e-07
-1.85168e-07
2.48941e-07
-2.52802e-07
2.20978e-07
-3.38544e-07
2.0998e-07
-3.92534e-07
2.90875e-07
-6.82151e-07
2.80405e-07
-8.36896e-07
1.70566e-07
-5.00391e-07
-4.01811e-07
6.63454e-08
3.71215e-07
-4.09585e-08
-3.65744e-07
3.38074e-07
-8.58209e-08
3.20497e-07
-1.66137e-07
2.28267e-07
-2.77451e-07
1.82246e-07
-2.97742e-07
1.60475e-07
-4.07915e-07
2.15435e-07
-7.37014e-07
1.52026e-07
-6.74273e-07
6.36984e-08
-4.37659e-07
-3.32564e-07
-3.04883e-08
4.24523e-07
1.27022e-08
-4.2345e-07
3.87876e-07
-4.76388e-08
3.50989e-07
-1.2807e-07
2.48919e-07
-2.26364e-07
1.61531e-07
-2.19766e-07
1.35174e-07
-3.90492e-07
1.38719e-07
-7.40217e-07
7.20235e-08
-6.28933e-07
1.40916e-08
-4.04497e-07
-2.90789e-07
-9.05213e-08
4.33749e-07
4.13075e-08
-3.07043e-07
3.97884e-07
-1.05505e-08
3.48176e-07
-7.76632e-08
2.98011e-07
-1.75684e-07
1.98747e-07
-1.69614e-07
1.37068e-07
-3.30746e-07
1.1938e-07
-7.21971e-07
4.62352e-08
-7.20637e-07
5.28838e-09
-3.81654e-07
-2.92332e-07
-6.41015e-08
4.23116e-07
5.15897e-08
-2.23445e-07
3.90324e-07
2.33934e-08
3.49516e-07
-3.64752e-08
2.74328e-07
-9.97966e-08
1.54441e-07
-1.02102e-07
8.21677e-08
-2.59089e-07
2.1348e-08
-6.60517e-07
-1.18144e-08
-7.85466e-07
-1.44244e-08
-4.02694e-07
-2.79954e-07
-2.94214e-08
3.99716e-07
7.14001e-08
-3.48655e-07
3.81697e-07
4.17821e-08
3.48174e-07
-2.88009e-09
2.36896e-07
-1.57131e-08
1.61228e-07
-2.75895e-08
9.26046e-08
-1.89694e-07
3.20578e-08
-5.99336e-07
-5.17172e-09
-7.62469e-07
-8.04173e-09
-6.79506e-07
-2.78707e-07
2.77275e-08
3.83867e-07
6.64557e-08
-3.78673e-07
3.85693e-07
4.00178e-08
3.57486e-07
2.53714e-08
2.68097e-07
3.5413e-08
2.51471e-07
1.05394e-08
2.24708e-07
-1.62159e-07
2.04942e-07
-5.78935e-07
1.88132e-07
-7.44886e-07
1.52054e-07
-7.36608e-07
-3.89692e-07
1.35532e-07
3.90189e-07
5.21121e-08
-3.75784e-07
3.95503e-07
3.47404e-08
3.64524e-07
5.63978e-08
2.71928e-07
9.35356e-08
2.72279e-07
2.71597e-08
4.31731e-07
-3.13501e-07
5.52396e-07
-6.98827e-07
5.69656e-07
-7.61212e-07
5.14872e-07
-6.80098e-07
-3.61543e-07
1.76972e-07
2.99785e-07
9.18388e-08
-3.39411e-07
1.97961e-07
1.33237e-07
3.76241e-08
1.29394e-07
4.94497e-08
4.27976e-08
2.94716e-07
-1.70082e-07
6.61316e-07
-6.72175e-07
7.57715e-07
-7.9353e-07
7.35846e-07
-7.37625e-07
5.87424e-07
-5.44376e-07
-1.47729e-07
1.81472e-07
-1.15234e-07
1.03688e-07
3.72456e-08
-1.69682e-07
1.29798e-07
-1.28207e-07
3.0346e-08
-8.39757e-09
-1.01426e-07
4.60356e-07
-6.11264e-07
7.26443e-07
-9.25259e-07
7.54515e-07
-7.70863e-07
5.62257e-07
-4.79225e-07
2.07969e-07
-1.9546e-07
-2.67456e-08
8.02542e-08
-1.97963e-07
7.81447e-08
1.08209e-07
-2.13536e-07
1.97537e-08
-7.56072e-08
-1.28762e-07
6.77674e-08
-1.72415e-07
3.5579e-07
-8.26643e-07
3.94409e-07
-9.23645e-07
1.40008e-07
-4.13159e-07
4.06056e-08
-2.09591e-07
-4.9507e-09
-7.58831e-08
1.77282e-08
-1.43659e-08
-2.95437e-07
2.01481e-10
2.02537e-07
-1.42811e-07
-1.17973e-07
-1.02367e-07
-1.25465e-07
3.84386e-08
-1.0767e-07
1.36072e-07
-9.11258e-07
7.60626e-08
-8.8743e-07
-7.01578e-08
-2.5944e-07
-1.00393e-07
-8.16125e-08
-2.36004e-08
-2.35697e-08
3.91487e-08
-6.56018e-08
-4.76945e-08
-5.81356e-08
4.99274e-08
-9.16071e-08
-6.00166e-08
-5.10117e-08
-1.46172e-08
-5.29444e-08
-1.18931e-07
-3.50806e-08
-9.36219e-07
-5.32436e-08
-8.77101e-07
-1.1336e-07
-1.53645e-07
-6.36983e-08
-6.93387e-08
-7.1916e-08
-1.80776e-08
1.40525e-08
-4.9942e-08
1.44319e-08
3.81031e-08
-9.28526e-08
-7.22322e-08
4.52943e-08
-6.02945e-08
2.26466e-08
-1.26878e-07
-6.45141e-08
-8.07873e-08
-9.77322e-07
-5.40579e-08
-8.90172e-07
-5.75089e-08
-9.27626e-08
-4.33319e-08
-9.39071e-08
-4.42478e-08
-2.03319e-08
-6.50882e-09
-2.61193e-08
-1.71623e-08
9.53661e-08
-2.86951e-08
-8.91965e-09
2.47363e-08
-3.56641e-10
1.07241e-08
5.08199e-09
-5.40347e-08
-2.11592e-08
-9.41782e-07
-1.87731e-08
-8.85273e-07
-5.66735e-08
-4.86285e-08
-1.17607e-07
-2.15478e-08
-8.82212e-08
-3.8318e-08
-2.07231e-08
-3.57762e-08
-1.46934e-08
2.39863e-09
4.62786e-08
4.70452e-08
-3.57484e-08
1.62535e-09
7.13567e-08
3.98373e-09
-5.13274e-08
2.45998e-08
-9.563e-07
3.27003e-08
-9.06267e-07
6.50342e-09
-2.81174e-08
-5.98786e-08
5.00282e-08
-4.65691e-08
-4.0435e-08
-5.41184e-08
-2.1432e-09
1.66212e-09
-5.62102e-11
-4.17557e-10
-1.04615e-08
7.28441e-12
0
6.2967e-08
1.35661e-08
-6.60698e-08
-7.74612e-09
-9.3918e-07
-1.85398e-08
-9.03913e-07
4.71758e-09
-4.9479e-08
4.47905e-08
1.10141e-08
2.76418e-08
6.01107e-09
-2.1141e-08
1.04703e-08
5.75575e-10
-8.20278e-11
0
-2.4717e-09
4.05012e-10
0
3.83182e-09
8.28964e-10
-6.94768e-08
-1.20098e-09
-9.43039e-07
-4.10179e-09
-9.0885e-07
1.99111e-08
-7.16372e-08
2.74664e-08
4.76515e-09
6.86683e-08
7.36405e-09
4.04816e-10
6.19098e-08
-1.20958e-10
-8.56875e-13
3.97055e-11
0
-4.79314e-12
3.04097e-10
-2.14889e-14
-2.67856e-09
-6.96797e-08
-7.85361e-09
-9.41507e-07
-2.08969e-09
-9.20299e-07
9.73474e-09
-8.14493e-08
1.25412e-08
3.53527e-09
1.56323e-08
2.04009e-09
2.82476e-10
4.20263e-09
-5.39197e-13
-6.33671e-13
2.67242e-13
-6.80614e-14
-5.31817e-12
1.45365e-14
-1.5837e-13
1.05294e-08
-7.91594e-08
5.08425e-09
-9.33094e-07
-1.10616e-09
-9.24215e-07
-1.76393e-11
-8.33729e-08
-1.75856e-09
8.90711e-09
-2.38785e-10
1.4431e-10
-1.94556e-10
1.15491e-10
-1.81161e-12
-1.25134e-12
1.95488e-13
0
-1.38762e-11
3.47488e-13
-5.58568e-13
3.21456e-09
-8.38265e-08
-5.55091e-09
-9.26054e-07
-5.12038e-09
-9.22617e-07
-4.57159e-09
-8.49083e-08
-4.13541e-10
8.9939e-09
-6.37404e-11
1.5649e-10
-6.87013e-10
0
-3.38335e-12
-4.04815e-13
0
1.20989e-12
-9.5654e-11
2.28251e-12
-1.63445e-12
6.90748e-09
-9.2162e-08
-3.59634e-09
-9.17045e-07
-9.30228e-09
-9.14359e-07
-2.05304e-09
-9.21834e-08
3.52949e-11
6.67707e-10
-1.24419e-09
1.06407e-09
-8.47761e-10
-1.14591e-09
-2.63707e-13
-4.64971e-13
6.80331e-15
6.26686e-12
-9.95672e-11
7.72562e-12
-2.76947e-12
4.40904e-09
-9.6401e-08
-3.98388e-09
-9.08219e-07
-8.09551e-09
-9.08419e-07
-6.29469e-10
-9.72286e-08
0
-3.55568e-12
-2.47688e-10
4.37628e-10
-1.5809e-10
-7.05762e-10
1.00898e-13
-1.00646e-12
1.12659e-15
8.47947e-12
-1.05581e-10
1.03495e-11
-3.88819e-12
8.87088e-09
-1.0268e-07
1.20194e-09
-8.97887e-07
-7.83104e-09
-8.97847e-07
-6.05446e-12
-1.02525e-07
2.5638e-13
-9.86752e-12
3.48951e-10
7.13999e-11
2.49932e-10
-3.35183e-11
4.82314e-13
-1.83536e-12
0
9.09026e-12
-1.11571e-10
1.05648e-11
-4.72207e-12
1.10677e-08
-1.10238e-07
4.13785e-09
-8.88325e-07
-5.83271e-09
-8.88413e-07
-3.31749e-12
-1.0924e-07
1.36334e-12
-1.45495e-11
6.32088e-11
9.55545e-12
1.50437e-11
1.62188e-10
0
-1.59609e-11
-6.28621e-13
7.56133e-12
-5.93437e-11
8.4671e-12
-5.85309e-12
7.30013e-09
-1.17709e-07
-2.01035e-09
-8.79333e-07
-1.03005e-08
-8.78418e-07
-9.13867e-13
-1.17623e-07
1.00618e-14
-1.54744e-11
6.62988e-12
2.93677e-12
5.69634e-12
1.57864e-11
0
-9.9986e-11
-7.6782e-12
5.46267e-12
-7.09371e-11
7.38944e-12
-8.74171e-12
8.32222e-09
-1.27306e-07
-2.04219e-09
-8.69822e-07
-1.07396e-08
-8.68644e-07
-1.2382e-12
-1.26994e-07
-1.89173e-12
-1.48209e-11
2.19998e-12
-1.15317e-12
3.33385e-12
4.55065e-12
1.6576e-11
-1.11317e-10
-1.53534e-12
1.8924e-11
-1.37036e-10
2.06502e-11
-1.11653e-11
1.13375e-08
-1.38245e-07
1.41579e-09
-8.59723e-07
-9.03231e-09
-8.59371e-07
-1.81082e-12
-1.37993e-07
-1.27547e-12
-1.53544e-11
2.07065e-13
-2.64763e-12
2.27831e-12
1.24905e-12
2.42496e-11
-1.14658e-10
-1.52851e-11
2.73941e-11
-1.29759e-10
2.8885e-11
-1.3034e-11
8.15246e-09
-1.49151e-07
-3.10922e-09
-8.49674e-07
-1.35852e-08
-8.48841e-07
-6.50526e-12
-1.50764e-07
-4.55311e-12
-1.72906e-11
-1.04485e-12
-7.41302e-13
1.86056e-12
-6.27142e-13
1.96999e-11
-1.07471e-10
-1.53952e-11
2.77336e-11
-1.21653e-10
2.74377e-11
-1.25705e-11
1.74544e-08
-1.63195e-07
7.96524e-09
-8.37881e-07
-5.72536e-09
-8.38304e-07
-2.11099e-11
-1.61768e-07
-1.90765e-11
-1.92255e-11
-1.27748e-12
-1.25631e-11
1.56058e-12
-9.77351e-13
1.40662e-11
-1.0059e-10
-1.12726e-11
2.58e-11
-1.1574e-10
2.50188e-11
-1.02318e-11
1.42282e-08
-1.7587e-07
2.82664e-09
-8.25955e-07
-1.0457e-08
-8.26179e-07
-2.94407e-11
-1.74796e-07
-2.35177e-11
-2.46655e-11
-9.0942e-13
-3.17685e-11
1.50482e-12
-8.53536e-13
1.96888e-11
-9.09059e-11
-1.82702e-11
2.81008e-11
-1.13224e-10
2.68047e-11
-7.69081e-12
1.05079e-08
-1.88277e-07
-2.06927e-09
-8.1432e-07
-1.5066e-08
-8.12422e-07
-4.74107e-11
-1.87612e-07
-4.51894e-11
-2.52868e-11
-2.63731e-11
-4.78126e-11
1.74684e-11
-3.03759e-11
2.02891e-11
-8.49522e-11
-1.37209e-11
2.63443e-11
-1.04751e-10
2.52513e-11
-5.37013e-12
1.77103e-08
-2.03583e-07
2.43212e-09
-7.98758e-07
-1.08235e-08
-7.99381e-07
-3.9798e-11
-2.00015e-07
-3.48641e-11
-2.8116e-11
-2.44925e-11
-6.03865e-11
-1.9497e-11
1.26207e-11
2.06732e-11
-7.89666e-11
-1.30229e-11
1.78378e-11
-7.25735e-11
1.68728e-11
-3.56849e-12
6.6541e-09
-2.15928e-07
-1.026e-08
-7.84308e-07
-2.39416e-08
-7.82996e-07
-3.9065e-11
-2.16987e-07
-3.68325e-11
-2.86931e-11
-3.80958e-11
-4.85861e-11
-5.74711e-11
7.63032e-15
1.65565e-11
-3.85e-11
-8.41511e-12
1.33049e-11
-5.59574e-11
1.23054e-11
-2.29623e-12
1.13229e-08
-2.30532e-07
-5.60885e-09
-7.67737e-07
-2.21309e-08
-7.66078e-07
-1.69317e-11
-2.34408e-07
-1.55167e-11
-2.99484e-11
-1.35941e-11
-3.19115e-11
-5.44039e-11
-1.65134e-11
1.08877e-11
-1.33864e-12
-3.20975e-12
1.23233e-11
-2.41803e-11
1.1294e-11
-1.1994e-12
2.985e-08
-2.50507e-07
1.21938e-08
-7.47303e-07
-5.55173e-09
-7.50743e-07
-1.37432e-11
-2.48894e-07
-1.68137e-11
-2.93887e-11
-2.23007e-11
-1.98786e-11
-1.38321e-12
-1.68537e-11
2.89185e-13
-4.45226e-13
-1.21823e-12
2.50899e-12
-3.12902e-13
2.27532e-12
-9.72459e-13
2.40616e-08
-2.7095e-07
5.92311e-09
-7.2896e-07
-1.39409e-08
-7.31137e-07
-1.58698e-11
-2.66557e-07
-1.91619e-11
-2.94711e-11
-2.44213e-11
-5.84149e-12
3.40263e-12
-2.93872e-12
2.0618e-13
-1.15068e-13
-5.42792e-13
1.06904e-13
-2.18031e-13
1.34515e-13
-1.00652e-12
1.34102e-08
-2.91098e-07
-6.82547e-09
-7.09552e-07
-2.89156e-08
-7.0829e-07
-2.41652e-11
-2.89691e-07
-2.53437e-11
-2.77743e-11
-2.55052e-11
2.87104e-12
7.76229e-12
-1.40524e-12
1.48713e-13
-8.65047e-14
-1.81681e-13
1.13634e-13
-1.87358e-13
6.16992e-13
-1.51429e-12
1.99886e-08
-3.13754e-07
-2.55149e-09
-6.87537e-07
-2.52789e-08
-6.85377e-07
-2.25858e-11
-3.13638e-07
-2.44299e-11
-2.52849e-11
-2.05129e-11
9.31823e-12
4.58698e-12
-2.00697e-12
1.63768e-13
-7.52233e-14
-1.79678e-13
1.27263e-13
-1.55258e-13
4.11172e-12
-5.50337e-12
2.76126e-08
-3.38532e-07
1.85844e-09
-6.62793e-07
-1.81135e-08
-6.64534e-07
-1.01888e-11
-3.35179e-07
-8.13941e-12
-2.66041e-11
-5.62185e-12
8.06778e-12
1.77469e-11
-7.95894e-12
2.10657e-13
-7.68036e-14
-2.18587e-13
1.69354e-13
-1.18583e-13
3.07055e-11
-3.60491e-11
1.46616e-08
-3.64128e-07
-9.50498e-09
-6.38724e-07
-3.82924e-08
-6.35609e-07
-3.53975e-11
-3.62751e-07
-4.22229e-12
-5.73966e-11
-5.71927e-12
9.80805e-12
2.0485e-11
-8.98311e-12
6.65721e-13
8.46211e-14
-8.76981e-13
6.446e-13
-1.06972e-13
2.46047e-10
-2.81501e-10
2.88697e-08
-3.9211e-07
-4.71381e-10
-6.09636e-07
-2.71318e-08
-6.08675e-07
-2.63669e-10
-3.90882e-07
-1.97776e-11
-3.00451e-10
-8.4308e-12
6.90462e-11
3.00339e-11
-6.63363e-12
9.48476e-13
1.87665e-12
-1.79247e-12
9.20585e-13
-1.28916e-13
1.83638e-09
-2.11701e-09
2.47546e-08
-4.17142e-07
-2.68699e-09
-5.82276e-07
-2.94266e-08
-5.81822e-07
-1.86902e-09
-4.163e-07
-4.98288e-11
-2.11684e-09
-5.08196e-11
9.77936e-11
8.41481e-11
-1.71401e-11
2.12358e-14
3.97814e-12
0
9.61844e-14
-2.0998e-13
9.51533e-09
-1.16322e-08
2.81904e-08
-4.36197e-07
-8.21239e-10
-5.53114e-07
-2.95792e-08
-5.53201e-07
-9.73735e-09
-4.35073e-07
-5.26444e-11
-1.18067e-08
4.08321e-13
3.21108e-11
1.1008e-10
8.44624e-12
1.40293e-12
5.24338e-12
-3.03477e-13
1.94595e-12
-7.04373e-13
2.05456e-08
-3.17548e-08
3.20523e-08
-4.46366e-07
2.48806e-09
-5.23566e-07
-3.08499e-08
-5.19836e-07
-1.94377e-08
-4.47156e-07
-3.13597e-11
-3.13e-08
0
6.37166e-14
7.28403e-12
5.95018e-11
9.12707e-12
7.53167e-14
-1.24752e-12
1.22294e-11
-3.74075e-12
3.3756e-08
-6.51914e-08
3.60748e-08
-4.48387e-07
-1.0464e-09
-4.86437e-07
-3.09929e-08
-4.89889e-07
-3.32436e-08
-4.44299e-07
-6.00911e-12
-6.34703e-08
3.73008e-14
-6.64967e-12
2.36359e-12
4.41697e-12
2.38525e-12
-1.20864e-15
-5.27531e-14
6.07338e-11
-6.19608e-11
4.35261e-08
-1.07161e-07
2.59138e-08
-4.30331e-07
-9.14031e-09
-4.51378e-07
-4.80066e-08
-4.51025e-07
-5.20388e-08
-4.39905e-07
-1.13385e-10
-1.14235e-07
-1.65322e-12
-1.1864e-10
7.39051e-13
4.46683e-14
1.01531e-12
-1.23076e-13
-4.84055e-13
1.14955e-09
-1.21008e-09
7.88182e-08
-1.81243e-07
5.15722e-08
-4.02852e-07
1.11036e-08
-4.10903e-07
-3.11991e-08
-4.08728e-07
-7.05486e-08
-4.00474e-07
-1.92678e-09
-1.83894e-07
-1.39991e-12
-2.04393e-09
1.91119e-13
-6.26415e-13
1.12369e-11
-1.01091e-11
-9.9682e-13
1.3354e-08
-1.45527e-08
7.98396e-08
-2.41577e-07
3.39291e-08
-3.56937e-07
-1.10754e-08
-3.65896e-07
-5.27927e-08
-3.67011e-07
-9.34629e-08
-3.5981e-07
-1.85697e-08
-2.64342e-07
-3.66849e-11
-2.05767e-08
-3.64475e-11
8.03717e-15
9.22183e-10
-9.30403e-10
-1.86076e-12
5.82984e-08
-7.14118e-08
1.10924e-07
-2.92652e-07
6.92272e-08
-3.15237e-07
1.95719e-08
-3.16241e-07
-3.22948e-08
-3.15144e-07
-8.17775e-08
-3.10328e-07
-5.8268e-08
-2.89626e-07
-2.13349e-09
-7.98488e-08
-2.16867e-09
-1.2553e-12
2.77196e-08
-2.86494e-08
-5.36275e-13
1.39401e-07
-1.83818e-07
9.97043e-08
-2.53019e-07
4.94813e-08
-2.65015e-07