/*--------------------------------*- C++ -*----------------------------------*\
  =========                 |
  \\      /  F ield         | OpenFOAM: The Open Source CFD Toolbox
   \\    /   O peration     | Website:  https://openfoam.org
    \\  /    A nd           | Version:  8
     \\/     M anipulation  |
\*---------------------------------------------------------------------------*/
FoamFile
{
    version     2.0;
    format      ascii;
    class       volVectorField;
    location    "5.25";
    object      U;
}
// * * * * * * * * * * * * * * * * * * * * * * * * * * * * * * * * * * * * * //

dimensions      [0 1 -1 0 0 0 0];

internalField   nonuniform List<vector> 
9150
(
(0.00488688 -0.0783256 0)
(0.0131129 -0.0973884 0)
(0.0108405 -0.104472 0)
(0.00880215 -0.107925 0)
(0.00300744 -0.109294 0)
(-0.00210128 -0.109347 0)
(-0.00903445 -0.107582 0)
(-0.0108944 -0.104481 0)
(-0.0131075 -0.0974122 0)
(-0.004862 -0.0783326 0)
(0.00589493 -0.0919843 0)
(0.0085687 -0.10047 0)
(0.00735562 -0.102251 0)
(0.004244 -0.104762 0)
(0.00118578 -0.1057 0)
(-0.002456 -0.105254 0)
(-0.0043818 -0.104526 0)
(-0.00737729 -0.102299 0)
(-0.0085618 -0.100526 0)
(-0.00589552 -0.0920093 0)
(0.00173176 -0.0954472 0)
(0.0045711 -0.0989609 0)
(0.00376838 -0.100959 0)
(0.00343355 -0.101693 0)
(0.00112128 -0.102331 0)
(-0.000547847 -0.102636 0)
(-0.00318966 -0.101822 0)
(-0.00370095 -0.101086 0)
(-0.00456035 -0.0989884 0)
(-0.00173111 -0.0954652 0)
(0.00173784 -0.0984101 0)
(0.00247015 -0.10039 0)
(0.00220848 -0.100231 0)
(0.00127442 -0.100894 0)
(0.000531624 -0.100856 0)
(-0.000727069 -0.100861 0)
(-0.00130704 -0.100788 0)
(-0.00220278 -0.100187 0)
(-0.00245272 -0.100403 0)
(-0.00173274 -0.098418 0)
(0.000180314 -0.0994879 0)
(0.000721808 -0.0995755 0)
(0.000476964 -0.100012 0)
(0.000687566 -0.0998726 0)
(0.000147011 -0.100102 0)
(-0.00010153 -0.100128 0)
(-0.00066321 -0.0998651 0)
(-0.000444821 -0.10005 0)
(-0.000716836 -0.0995821 0)
(-0.000178559 -0.0994876 0)
(0.0754755 -0.194539 2.54559e-26)
(0.049437 -0.184924 0)
(0.0307184 -0.176673 0)
(0.0161228 -0.175747 0)
(0.00543727 -0.17606 0)
(-0.00394115 -0.17554 0)
(-0.0154299 -0.173876 0)
(-0.0303362 -0.175901 0)
(-0.0493198 -0.184567 0)
(-0.0753855 -0.1944 -2.55661e-26)
(0.0584256 -0.14659 6.65008e-27)
(0.0486253 -0.146624 0)
(0.0283673 -0.156529 0)
(0.0201677 -0.157135 0)
(0.00371893 -0.155629 0)
(-0.0059102 -0.154931 0)
(-0.0213815 -0.156107 0)
(-0.0287485 -0.156358 0)
(-0.048525 -0.146572 0)
(-0.0585069 -0.146618 -6.3172e-27)
(0.0474569 -0.121361 3.12905e-27)
(0.0425378 -0.131229 0)
(0.0293042 -0.133509 0)
(0.0171556 -0.136857 0)
(0.00589671 -0.140156 0)
(-0.00601348 -0.140368 0)
(-0.0172634 -0.138314 0)
(-0.029618 -0.133743 0)
(-0.0427917 -0.131374 0)
(-0.0475992 -0.121545 -3.12412e-27)
(0.0370686 -0.0992728 5.43366e-27)
(0.0391271 -0.110134 0)
(0.0223775 -0.12025 0)
(0.0172392 -0.125101 0)
(0.0039594 -0.125327 0)
(-0.00497947 -0.125347 0)
(-0.0176922 -0.124738 0)
(-0.0228495 -0.120614 0)
(-0.039319 -0.110309 0)
(-0.0372039 -0.0994981 -5.33155e-27)
(0.024505 -0.0815489 -1.50548e-26)
(0.0279905 -0.101175 -1.79838e-26)
(0.0201437 -0.108411 -4.54532e-27)
(0.0112966 -0.113681 -4.00266e-27)
(0.00531684 -0.117067 -1.53879e-28)
(-0.00398687 -0.117306 -2.01217e-28)
(-0.0102952 -0.114434 -3.95528e-27)
(-0.0196464 -0.10827 -4.46843e-27)
(-0.0277143 -0.101331 -1.79513e-26)
(-0.0245271 -0.0816759 -1.50585e-26)
(0.019344 -0.144815 0)
(0.0145523 -0.203683 0)
(0.0241049 -0.214987 0)
(0.013491 -0.221343 0)
(0.0116966 -0.226072 0)
(-0.00279516 -0.227338 0)
(-0.00586354 -0.224938 0)
(-0.0204685 -0.217042 0)
(-0.0102261 -0.205751 0)
(-0.0182133 -0.143555 0)
(0.0164842 -0.164724 0)
(0.00224016 -0.198102 0)
(0.01536 -0.20864 0)
(0.0024136 -0.213764 0)
(0.00463098 -0.214784 0)
(-0.00607147 -0.215132 0)
(-0.00308427 -0.213823 0)
(-0.0143702 -0.209354 0)
(-0.001159 -0.200298 0)
(-0.0157841 -0.168111 0)
(0.0148975 -0.171703 0)
(-0.00387069 -0.203027 0)
(0.011543 -0.207906 0)
(0.000432919 -0.208645 0)
(0.00495947 -0.209592 0)
(-0.00176619 -0.210367 0)
(0.00194754 -0.210924 0)
(-0.00997446 -0.209372 0)
(0.00445401 -0.204199 0)
(-0.0140661 -0.172941 0)
(0.0184704 -0.194601 0)
(-0.00704028 -0.203929 0)
(0.00991678 -0.21002 0)
(-0.000335448 -0.206882 0)
(0.00123512 -0.206974 0)
(-0.00119539 -0.207156 0)
(0.000816532 -0.205722 0)
(-0.00921716 -0.210794 0)
(0.00708366 -0.204748 0)
(-0.0183871 -0.195178 0)
(0.0357746 -0.217007 0)
(0.00994686 -0.203878 0)
(0.016372 -0.20254 0)
(0.0124972 -0.195251 0)
(0.00281009 -0.192388 0)
(-0.0012713 -0.192809 0)
(-0.0111726 -0.196731 0)
(-0.01575 -0.202493 0)
(-0.00968792 -0.203622 0)
(-0.0356317 -0.217192 0)
(-0.0751631 -0.00168843 0)
(-0.0744795 -0.000880134 0)
(-0.076825 0.00415291 0)
(-0.0897986 0.0158069 0)
(-0.109748 0.0228761 0)
(-0.123082 0.00592931 0)
(-0.119049 -0.010999 0)
(-0.106833 -0.0166121 0)
(-0.0948786 -0.0142889 0)
(-0.0844561 -0.0111808 0)
(-0.090757 0.00049572 0)
(-0.0922719 0.00197548 0)
(-0.0973457 0.0239386 0)
(-0.105554 0.0469893 0)
(-0.112164 0.0457386 0)
(-0.115455 0.00973051 0)
(-0.11054 -0.0229899 0)
(-0.106566 -0.0331031 0)
(-0.100467 -0.0345818 0)
(-0.092778 -0.0293307 0)
(-0.110116 0.00272305 0)
(-0.129215 0.0142293 0)
(-0.146296 0.039064 0)
(-0.147633 0.0512587 0)
(-0.140108 0.0378266 0)
(-0.133153 0.0060302 0)
(-0.134976 -0.0211 0)
(-0.139975 -0.0298344 0)
(-0.143988 -0.0316045 0)
(-0.143292 -0.0346856 0)
(-0.176663 0.0513522 0)
(-0.188296 0.0603186 0)
(-0.191652 0.0561124 0)
(-0.186587 0.0460587 0)
(-0.178707 0.014291 0)
(-0.174377 -0.00702436 0)
(-0.173353 -0.0174671 0)
(-0.176863 -0.0252272 0)
(-0.178822 -0.0359351 0)
(-0.173667 -0.0508015 0)
(-0.177124 0.0628245 0)
(-0.18149 0.0618494 0)
(-0.185218 0.0474347 0)
(-0.182112 0.0288443 0)
(-0.17711 0.00702609 0)
(-0.176235 -0.00798547 0)
(-0.178179 -0.0147974 0)
(-0.179986 -0.0219845 0)
(-0.179616 -0.0346202 0)
(-0.177703 -0.0511938 0)
(-0.149575 0.071332 0)
(-0.148706 0.0687121 0)
(-0.150122 0.0509479 0)
(-0.155375 0.0242778 0)
(-0.159948 0.00655742 0)
(-0.161591 -0.00113242 0)
(-0.160394 -0.00878434 0)
(-0.160789 -0.0218567 0)
(-0.158669 -0.0391333 0)
(-0.156879 -0.0578856 0)
(-0.122318 0.0487021 0)
(-0.105003 0.0514307 0)
(-0.0993617 0.0517843 0)
(-0.100448 0.0458284 0)
(-0.108263 0.0304798 0)
(-0.118994 -0.00461866 0)
(-0.127995 -0.02376 0)
(-0.129584 -0.0329456 0)
(-0.121692 -0.0447042 0)
(-0.121089 -0.054168 0)
(-0.116926 0.00654373 0)
(-0.0901821 0.0266358 0)
(-0.05991 0.0542075 0)
(-0.0376261 0.0541559 0)
(-0.0353193 0.0474741 0)
(-0.0544551 0.0328396 0)
(-0.0751062 0.024208 0)
(-0.0715544 -0.0229956 0)
(-0.070625 -0.0417725 0)
(-0.0825581 -0.0492647 0)
(-0.0711105 -0.0571619 0)
(-0.0536956 -0.0626333 0)
(-0.0185484 -0.064763 0)
(0.0146357 -0.045921 0)
(0.0436024 0.0849929 0)
(0.00282652 0.0851463 0)
(-0.0106432 0.00932202 0)
(-0.0107177 -0.0403541 0)
(-0.0251561 -0.0437131 0)
(-0.0342022 -0.0289225 0)
(-0.0163714 -0.0551859 0)
(-0.0226029 -0.0838804 0)
(-0.00538991 -0.103595 0)
(0.000176961 -0.107782 0)
(0.0449779 0.0677371 0)
(0.0499012 0.108637 0)
(0.0493609 0.0682441 0)
(0.035181 0.022646 0)
(0.0118731 0.0153838 0)
(-0.000191598 -0.0211144 0)
(0.0190697 -0.0315643 0)
(0.00988066 -0.0481597 0)
(-0.00682932 -0.0976998 0)
(-0.032445 -0.105171 0)
(-0.0371061 -0.00546813 0)
(0.0374425 0.0851123 0)
(0.0501627 0.0487852 0)
(0.0538949 0.0350257 0)
(0.0529954 0.0269411 0)
(0.0530662 -0.00243241 0)
(0.0285185 -0.029269 0)
(0.026507 -0.0403836 0)
(0.018214 -0.0407322 0)
(-0.00348465 -0.0369313 0)
(-0.0288453 -0.0687284 0)
(-0.0236862 -0.0452637 0)
(0.00409203 -0.0057963 0)
(0.0218884 0.0213466 0)
(0.027059 0.0238317 0)
(0.0280602 -0.00156037 0)
(0.0258284 -0.0319815 0)
(0.0279526 -0.0376192 0)
(0.0279652 -0.0371363 0)
(0.0329817 -0.025572 0)
(0.0245541 0.0111825 0)
(-0.00241359 0.0145226 0)
(-0.0195432 -0.0282472 0)
(-0.0126644 -0.0104276 0)
(-0.00275505 0.0118076 0)
(0.000753956 -0.00976701 0)
(0.0183389 -0.0421614 0)
(0.0193015 -0.0447556 0)
(0.0228109 -0.0434774 0)
(0.0270485 -0.0340022 0)
(0.034506 0.00759575 0)
(0.0375155 0.0308417 0)
(0.0368132 0.0214466 0)
(0.0178269 -0.00478767 0)
(0.00525186 -0.00436384 0)
(0.00803282 -0.014006 0)
(0.110862 -0.0109528 0)
(0.0726438 -0.0446202 0)
(0.0528 -0.0512976 0)
(0.0464125 -0.043836 0)
(0.0424576 -0.0136701 0)
(0.0562947 0.00990013 0)
(0.0654061 0.0272645 0)
(0.0611267 0.034641 0)
(0.0536543 0.0285448 0)
(0.0366562 -0.00854642 0)
(0.220443 0.0735903 0)
(0.193161 0.07122 0)
(0.146225 0.022664 0)
(0.110017 -0.0175639 0)
(0.0876169 -0.017436 0)
(0.0801619 -0.00391502 0)
(0.0828536 0.00541178 0)
(0.0900275 0.0260181 0)
(0.0849614 0.051349 0)
(0.0797172 0.0463945 0)
(0.222434 0.0726604 0)
(0.228055 0.086648 0)
(0.223827 0.0887781 0)
(0.204366 0.0835896 0)
(0.149424 0.0432384 0)
(0.117089 0.0203223 0)
(0.105286 0.0157185 0)
(0.0988485 0.021606 0)
(0.102483 0.0336381 0)
(0.110468 0.0612745 0)
(0.227981 0.0594107 0)
(0.236414 0.0713933 0)
(0.244913 0.0933731 0)
(0.231853 0.133376 0)
(0.209758 0.135583 0)
(0.156306 0.0923129 0)
(0.118846 0.0497628 0)
(0.102646 0.0292817 0)
(0.10039 0.0275122 0)
(0.104763 0.0388935 0)
(0.246222 0.0227905 0)
(0.261123 0.044765 0)
(0.265574 0.0821839 0)
(0.261828 0.157964 0)
(0.236888 0.199928 0)
(0.212628 0.192208 0)
(0.153875 0.125799 0)
(0.111581 0.0643822 0)
(0.0940447 0.0309768 0)
(0.0904901 0.0252363 0)
(0.245037 -0.0110365 0)
(0.251603 0.0242963 0)
(0.254527 0.0798159 0)
(0.251041 0.15341 0)
(0.245005 0.224938 0)
(0.22952 0.245937 0)
(0.204809 0.232256 0)
(0.147947 0.150883 0)
(0.102119 0.0682258 0)
(0.0849991 0.0218546 0)
(0.195346 -0.0263381 0)
(0.204537 0.0319634 0)
(0.199371 0.098915 0)
(0.206552 0.158917 0)
(0.215116 0.227432 0)
(0.206807 0.277442 0)
(0.19204 0.288181 0)
(0.172864 0.264096 0)
(0.143381 0.160547 0)
(0.117618 0.0600183 0)
(0.115513 -0.0328994 0)
(0.116407 0.0532032 0)
(0.104795 0.112499 0)
(0.106714 0.166855 0)
(0.120116 0.232669 0)
(0.132512 0.281368 0)
(0.14589 0.292413 0)
(0.159271 0.266851 0)
(0.16595 0.185787 0)
(0.160152 0.112553 0)
(-0.00869682 -0.0167966 0)
(-0.00155389 0.0389193 0)
(0.0149659 0.106849 0)
(0.0265305 0.134876 0)
(0.0424525 0.199141 0)
(0.0681308 0.236574 0)
(0.111077 0.254282 0)
(0.154084 0.228218 0)
(0.1909 0.167893 0)
(0.212309 0.114286 0)
(-0.045357 0.00936814 0)
(-0.0534634 0.0356927 0)
(-0.057029 0.0794612 0)
(-0.0442169 0.0963177 0)
(-0.0125885 0.110526 0)
(0.0400056 0.0957278 0)
(0.10994 0.112685 0)
(0.17606 0.114084 0)
(0.215717 0.096551 0)
(0.236304 0.0622657 0)
(-0.0826976 -0.0022621 0)
(-0.0711645 0.0383685 0)
(-0.053193 0.0634946 0)
(-0.032347 0.0679228 0)
(-0.0163816 0.0314033 0)
(0.0279266 -0.0503341 0)
(0.0708805 -0.0578259 0)
(0.127648 -0.00521439 0)
(0.175683 0.0385028 0)
(0.207237 0.0383628 0)
(-0.135072 -0.0288152 0)
(-0.113579 -0.00796287 0)
(-0.0807757 0.00152985 0)
(-0.0475714 0.0247213 0)
(-0.0137807 -0.00815958 0)
(0.00745713 -0.0614886 0)
(0.0225529 -0.0718639 0)
(0.0617604 -0.0690965 0)
(0.118845 -0.0535014 0)
(0.174564 -0.0500012 0)
(-0.162429 -0.0649157 0)
(-0.145927 -0.0722306 0)
(-0.121782 -0.0683329 0)
(-0.0980694 -0.0492431 0)
(-0.0651838 -0.0796909 0)
(-0.0323355 -0.121002 0)
(0.0254685 -0.172328 0)
(0.0885141 -0.207804 0)
(0.15344 -0.186003 0)
(0.20976 -0.157533 0)
(-0.212673 -0.0768202 0)
(-0.20439 -0.085254 0)
(-0.205248 -0.0879377 0)
(-0.176985 -0.0789038 0)
(-0.147666 -0.120191 0)
(-0.132898 -0.214739 0)
(-0.0838145 -0.297213 0)
(-0.0142918 -0.323728 0)
(0.0669787 -0.313133 0)
(0.174205 -0.296558 0)
(-0.349504 -0.0785818 0)
(-0.347175 -0.0934883 0)
(-0.341918 -0.113234 0)
(-0.32538 -0.147707 0)
(-0.30033 -0.202288 0)
(-0.281222 -0.287515 0)
(-0.234317 -0.385894 0)
(-0.160882 -0.494672 0)
(-0.0661058 -0.561171 0)
(0.0611506 -0.570317 0)
(-0.362359 -0.0833292 0)
(-0.343004 -0.11932 0)
(-0.323776 -0.149006 0)
(-0.305656 -0.186874 0)
(-0.287893 -0.25458 0)
(-0.255339 -0.376843 0)
(-0.209783 -0.526215 0)
(-0.158256 -0.680635 0)
(-0.108734 -0.804633 0)
(-0.0254815 -0.855197 0)
(-0.286716 -0.140454 0)
(-0.250725 -0.158252 0)
(-0.227329 -0.193751 0)
(-0.189245 -0.27449 0)
(-0.170691 -0.352723 0)
(-0.169532 -0.464887 0)
(-0.154162 -0.620409 0)
(-0.111386 -0.779413 0)
(-0.0718445 -0.92203 0)
(-0.0300381 -0.984202 0)
(-0.156775 -0.263981 0)
(-0.0912742 -0.274352 0)
(-0.0357416 -0.257532 0)
(0.00855774 -0.29206 0)
(0.0311994 -0.273813 0)
(0.0110653 -0.372887 0)
(-0.0284726 -0.59355 0)
(-0.0189429 -0.79517 0)
(-0.00352765 -0.953876 0)
(-0.00686838 -1.02667 0)
(-0.0748322 -0.37387 0)
(-0.0333106 -0.386717 0)
(0.0114417 -0.349704 0)
(0.0404752 -0.392339 0)
(0.0925159 -0.269179 0)
(0.0930989 -0.303615 0)
(0.0689305 -0.472068 0)
(0.0372467 -0.75835 0)
(0.0518104 -0.933757 0)
(0.0497646 -1.01222 0)
(-0.0573318 -0.479648 0)
(-0.039418 -0.451352 0)
(-0.0238363 -0.416163 0)
(-0.00804727 -0.44593 0)
(-0.00869308 -0.332755 0)
(0.0156571 -0.342904 0)
(0.0372136 -0.459678 0)
(0.0431842 -0.76642 0)
(0.0637926 -0.942975 0)
(0.0643508 -1.00019 0)
(-0.0526397 -0.520477 0)
(-0.0472886 -0.483083 0)
(-0.0298436 -0.438288 0)
(-0.0229561 -0.43611 0)
(-0.0509152 -0.342643 0)
(-0.0598155 -0.354262 0)
(-0.027365 -0.597967 0)
(0.00984154 -0.821494 0)
(0.0155138 -0.970938 0)
(0.0218177 -0.998914 0)
(0.000449804 -0.534595 0)
(-0.0199217 -0.500801 0)
(-0.00763182 -0.445232 0)
(-0.0197373 -0.401832 0)
(-0.0547608 -0.306645 0)
(-0.0811387 -0.353534 0)
(-0.0396763 -0.693418 0)
(-0.0227851 -0.859951 0)
(-0.0315694 -0.967719 0)
(-0.0512004 -0.971522 0)
(0.0281064 -0.521242 0)
(0.00832065 -0.49875 0)
(0.00403915 -0.438139 0)
(-0.0133972 -0.361905 0)
(-0.0461506 -0.230481 0)
(-0.0638385 -0.36272 0)
(-0.0406667 -0.702275 0)
(-0.0679305 -0.846175 0)
(-0.0891764 -0.90731 0)
(-0.11525 -0.909509 0)
(0.034549 -0.50215 0)
(0.00877206 -0.453968 0)
(-0.0113334 -0.375681 0)
(-0.0662001 -0.281577 0)
(-0.0649867 -0.220487 0)
(-0.0639389 -0.370384 0)
(-0.0467681 -0.670711 0)
(-0.101128 -0.801291 0)
(-0.124485 -0.870755 0)
(-0.134792 -0.889205 0)
(0.0186552 -0.463618 0)
(-0.0131494 -0.403651 0)
(-0.0202735 -0.316745 0)
(-0.0424875 -0.263522 0)
(-0.0134473 -0.253005 0)
(-0.0176971 -0.368127 0)
(-0.0147733 -0.604748 0)
(-0.0811999 -0.735959 0)
(-0.119613 -0.836612 0)
(-0.138759 -0.878935 0)
(-0.00876484 -0.392294 0)
(-0.0165124 -0.39706 0)
(-0.00401042 -0.321966 0)
(0.00841918 -0.304116 0)
(0.0635395 -0.296272 0)
(0.0618717 -0.34994 0)
(0.0734018 -0.501501 0)
(0.016466 -0.623978 0)
(-0.0421291 -0.749206 0)
(-0.0909783 -0.842589 0)
(-0.0130188 -0.341983 0)
(-0.0330793 -0.380866 0)
(-0.0231734 -0.345892 0)
(-0.0084281 -0.361607 0)
(0.0377676 -0.361525 0)
(0.073062 -0.395711 0)
(0.110908 -0.479989 0)
(0.101455 -0.549166 0)
(0.0836142 -0.627361 0)
(0.0318268 -0.76136 0)
(-0.0310423 -0.320174 0)
(-0.0439834 -0.363907 0)
(-0.0419288 -0.389331 0)
(-0.0170479 -0.440159 0)
(0.0182546 -0.446441 0)
(0.0515115 -0.50025 0)
(0.0917261 -0.527261 0)
(0.112127 -0.5572 0)
(0.120321 -0.614707 0)
(0.105022 -0.705689 0)
(0.00148233 -0.280846 0)
(-0.011052 -0.35317 0)
(-0.0101502 -0.432236 0)
(-0.0104775 -0.467118 0)
(0.00325047 -0.538576 0)
(0.0373054 -0.596862 0)
(0.0569982 -0.603603 0)
(0.088853 -0.607171 0)
(0.111613 -0.651156 0)
(0.128835 -0.745656 0)
(0.0887625 -0.238312 0)
(0.0908639 -0.352 0)
(0.0806035 -0.435321 0)
(0.0682791 -0.466739 0)
(0.0577453 -0.557003 0)
(0.0589432 -0.62601 0)
(0.073633 -0.635832 0)
(0.0816968 -0.665958 0)
(0.111407 -0.746766 0)
(0.177241 -0.880184 0)
(0.205626 -0.181121 0)
(0.22104 -0.311771 0)
(0.192323 -0.406657 0)
(0.182192 -0.430366 0)
(0.183704 -0.498373 0)
(0.15911 -0.610398 0)
(0.161308 -0.650209 0)
(0.147764 -0.707549 0)
(0.17448 -0.834531 0)
(0.241459 -1.00985 0)
(0.255254 -0.1915 0)
(0.277755 -0.275036 0)
(0.248435 -0.358006 0)
(0.210599 -0.396278 0)
(0.208013 -0.476624 0)
(0.207946 -0.583376 0)
(0.199017 -0.637361 0)
(0.189689 -0.714915 0)
(0.2394 -0.902174 0)
(0.278996 -1.0558 0)
(0.253412 -0.215112 0)
(0.27252 -0.268161 0)
(0.240668 -0.298906 0)
(0.206334 -0.355569 0)
(0.207481 -0.48236 0)
(0.209365 -0.5775 0)
(0.198632 -0.63506 0)
(0.194977 -0.758357 0)
(0.261107 -1.00027 0)
(0.28783 -1.07369 0)
(0.255118 -0.205423 0)
(0.24812 -0.229762 0)
(0.203153 -0.251255 0)
(0.191397 -0.332311 0)
(0.193372 -0.486737 0)
(0.188851 -0.558132 0)
(0.184247 -0.638647 0)
(0.199813 -0.858612 0)
(0.254327 -1.0584 0)
(0.257948 -1.08038 0)
(0.239419 -0.139285 0)
(0.208119 -0.154925 0)
(0.175366 -0.199048 0)
(0.16694 -0.331669 0)
(0.161921 -0.480185 0)
(0.137119 -0.530354 0)
(0.139276 -0.677474 0)
(0.161114 -0.958211 0)
(0.186389 -1.07838 0)
(0.151323 -0.99379 0)
(0.206561 -0.0809736 0)
(0.185971 -0.115049 0)
(0.168723 -0.178577 0)
(0.160729 -0.317198 0)
(0.140095 -0.445078 0)
(0.0917826 -0.502818 0)
(0.105188 -0.750798 0)
(0.100089 -0.976581 0)
(0.0863838 -1.00296 0)
(0.0209131 -0.750175 0)
(0.2295 -0.00346551 0)
(0.210489 -0.0519534 0)
(0.190405 -0.135863 0)
(0.173721 -0.255083 0)
(0.12509 -0.359613 0)
(0.0649798 -0.455255 0)
(0.0931723 -0.763472 0)
(0.0469745 -0.917231 0)
(0.0490633 -0.895801 0)
(-0.0180066 -0.557807 0)
(0.225365 0.0435253 0)
(0.223187 -0.0269807 0)
(0.189036 -0.0966095 0)
(0.174284 -0.199299 0)
(0.13814 -0.266817 0)
(0.0849619 -0.363677 0)
(0.0625747 -0.729163 0)
(0.0357719 -0.86805 0)
(0.0151882 -0.840106 0)
(-0.00209456 -0.482373 0)
(0.21885 0.0627939 0)
(0.215989 0.0146819 0)
(0.190149 -0.0397844 0)
(0.17703 -0.118151 0)
(0.115887 -0.160466 0)
(0.0579681 -0.285128 0)
(0.0202547 -0.692735 0)
(-0.00108028 -0.851436 0)
(-0.0248935 -0.816799 0)
(-0.00177302 -0.465197 0)
(0.212717 0.0705692 0)
(0.191717 0.0396519 0)
(0.200661 -0.0185092 0)
(0.172243 -0.06493 0)
(0.103705 -0.0784896 0)
(0.0554344 -0.233624 0)
(0.0390707 -0.635567 0)
(0.0160634 -0.785479 0)
(-0.0178116 -0.782198 0)
(0.0196706 -0.486885 0)
(0.189745 0.0736057 0)
(0.19659 0.0402341 0)
(0.196884 0.0100895 0)
(0.179802 0.0188722 0)
(0.142293 0.000741715 0)
(0.0989758 -0.16196 0)
(0.133746 -0.590868 0)
(0.140972 -0.74491 0)
(0.121474 -0.739459 0)
(0.122326 -0.555542 0)
(0.185776 0.0591011 0)
(0.193473 0.0358909 0)
(0.201009 0.0361728 0)
(0.171464 0.0531359 0)
(0.143728 0.0229971 0)
(0.120481 -0.162406 0)
(0.292645 -0.583827 0)
(0.341644 -0.757488 0)
(0.329078 -0.730592 0)
(0.270051 -0.578103 0)
(0.154607 0.0388146 0)
(0.128082 0.0323248 0)
(0.0789584 0.0799025 0)
(-0.0114501 0.166665 0)
(0.0802155 0.0458005 0)
(0.203845 -0.44175 0)
(0.425118 -0.784303 0)
(0.419642 -0.787141 0)
(0.393361 -0.716544 0)
(0.321572 -0.494407 0)
(-0.078215 0.174722 0)
(-0.145999 0.254597 0)
(-0.17518 0.243057 0)
(-0.0817073 -0.0539565 0)
(0.0884133 -0.458202 0)
(0.307366 -0.970729 0)
(0.434389 -0.923897 0)
(0.408611 -0.835192 0)
(0.339282 -0.606482 0)
(0.132199 -0.157896 0)
(-0.34484 0.306551 0)
(-0.202271 0.172561 0)
(-0.0803371 -0.118395 0)
(-0.02638 -0.217088 0)
(0.139068 -0.997154 0)
(0.234578 -1.14215 0)
(0.295507 -0.948094 0)
(0.0859485 -0.515016 0)
(0.0273269 -0.137384 0)
(-0.0868614 0.0190386 0)
(-0.211637 0.0537866 0)
(-0.0872216 -0.114426 0)
(-0.093392 -0.176079 0)
(-0.0261446 -0.314476 0)
(0.066636 -1.14204 0)
(0.0287649 -1.14358 0)
(0.0293683 -0.50822 0)
(-0.126705 -0.283523 0)
(-0.0969886 -0.0816548 0)
(-0.187803 0.195264 0)
(-0.0228772 -0.0740826 0)
(-0.0366535 -0.129488 0)
(-0.108601 -0.111374 0)
(-0.0999357 -0.73612 0)
(-0.0267855 -1.17085 0)
(-0.0456413 -1.11169 0)
(-0.0288578 -0.35556 0)
(-0.161249 -0.295 0)
(-0.139901 -0.0871228 0)
(-0.154435 0.144307 0)
(0.0566567 -0.0323922 0)
(-0.0320943 0.00574021 0)
(-0.101089 0.0398672 0)
(-0.123556 -0.871752 0)
(-0.0413394 -1.19459 0)
(-0.0693185 -1.13411 0)
(-0.0312228 -0.320733 0)
(-0.0758549 -0.196002 0)
(-0.0829296 -0.0851689 0)
(-0.0969958 -0.0460348 0)
(0.0202844 0.103777 0)
(-0.026777 0.0743711 0)
(-0.000240058 0.105677 0)
(0.00213231 -0.571804 0)
(0.00750689 -1.19848 0)
(-0.0243602 -1.16186 0)
(-0.0186801 -0.288795 0)
(-0.0996585 -0.0513573 0)
(-0.0887108 0.00315464 0)
(-0.0956099 -0.0152017 0)
(-0.054882 0.0992066 0)
(0.0419105 0.0465536 0)
(0.0590615 0.161124 0)
(-0.0447239 -0.824712 0)
(0.0186678 -1.17057 0)
(-0.0118528 -1.15971 0)
(0.0634483 -0.404921 0)
(-0.0582414 -0.0276311 0)
(-0.0390789 -0.148482 0)
(-0.022074 -0.0552074 0)
(0.0393713 0.00350061 0)
(0.0161453 -0.237757 0)
(-0.079085 0.327716 0)
(-0.0242474 -0.960213 0)
(0.00833824 -1.14909 0)
(-0.0163103 -1.14849 0)
(0.0144537 -0.295135 0)
(0.15627 0.20501 0)
(0.128953 -0.00711026 0)
(-0.0364 -0.109557 0)
(0.027357 -0.0543434 0)
(0.0179113 0.267746 0)
(-0.0578841 0.446922 0)
(-0.0048289 -1.1141 0)
(0.00295071 -1.13126 0)
(-0.00386703 -1.13504 0)
(0.00437174 -0.904028 0)
(0.195235 0.00179953 0)
(0.187244 0.121576 0)
(0.123086 0.0481687 0)
(-0.493018 -0.217772 0)
(-0.308463 0.0162642 0)
(-0.0585669 0.419649 0)
(-0.00207693 -1.13897 0)
(0.00212243 -1.12382 0)
(-0.00924982 -1.11826 0)
(0.000456559 -0.987387 0)
(0.106023 0.0264144 0)
(0.0849991 0.120627 0)
(0.109414 0.0359984 0)
(-0.363616 -0.359217 0)
(-0.311579 -0.410049 0)
(-0.00525322 -0.589606 0)
(0.0133747 -1.1353 0)
(0.00814981 -1.10377 0)
(-0.0053245 -1.10539 0)
(-0.0228392 -1.03183 0)
(0.025416 0.0655612 0)
(-0.0616634 -0.0509165 0)
(-0.00206506 0.073782 0)
(-0.133322 -0.227996 0)
(-0.0858446 -0.375757 0)
(0.000462599 -0.71397 0)
(0.00805733 -1.10553 0)
(0.0044089 -1.09099 0)
(-0.00872667 -1.08832 0)
(-0.0155354 -1.04951 0)
(-0.00549038 0.0998225 0)
(-0.0214434 0.0327616 0)
(0.00230598 -0.163345 0)
(-0.0330626 -0.308936 0)
(-0.0030483 -0.458299 0)
(0.0118419 -0.770345 0)
(0.0120425 -1.09221 0)
(0.00598154 -1.07044 0)
(-0.00794439 -1.07275 0)
(-0.0164657 -1.06747 0)
(0.00371186 0.0886717 0)
(-0.000912109 0.00496325 0)
(-0.0663001 -0.133423 0)
(-0.00903026 -0.344854 0)
(0.00645612 -0.492186 0)
(0.0147688 -0.796917 0)
(0.00592357 -1.0726 0)
(0.00432357 -1.05384 0)
(-0.00799048 -1.05128 0)
(-0.0131813 -1.06982 0)
(0.0551036 0.0643066 0)
(0.0465315 0.176622 0)
(-0.0726389 -0.189717 0)
(0.00369252 -0.400228 0)
(0.0120952 -0.502521 0)
(0.0155056 -0.807636 0)
(0.0119097 -1.05707 0)
(0.00628513 -1.03841 0)
(-0.00743953 -1.03776 0)
(-0.0149406 -1.05803 0)
(-0.0030444 -0.442993 0)
(0.123505 0.461619 0)
(0.0775592 0.136729 0)
(0.00319649 -0.42616 0)
(0.0108833 -0.512612 0)
(0.0232197 -0.826096 0)
(0.0131143 -1.03858 0)
(0.00794472 -1.01618 0)
(-0.0057457 -1.01459 0)
(-0.00988383 -1.03277 0)
(-0.00583791 -0.613794 0)
(0.162534 0.400161 0)
(0.159243 0.238423 0)
(0.00142013 -0.435381 0)
(0.0144415 -0.540514 0)
(0.0244677 -0.834724 0)
(0.0142346 -1.02097 0)
(0.00707019 -0.999314 0)
(-0.00568303 -0.999048 0)
(-0.0105096 -1.02066 0)
(-0.0389546 -0.675112 0)
(0.0614805 0.310329 0)
(0.11988 0.259747 0)
(0.0129461 -0.444941 0)
(0.0300694 -0.561849 0)
(0.0218427 -0.829786 0)
(0.0101205 -1.00096 0)
(0.00623992 -0.977168 0)
(-0.00822693 -0.978046 0)
(-0.0143517 -0.996846 0)
(-0.0381656 -0.688819 0)
(-0.023207 -0.0280356 0)
(0.0981187 0.183536 0)
(0.0418353 -0.448429 0)
(0.0451119 -0.554123 0)
(0.0248586 -0.798638 0)
(0.0139295 -0.982716 0)
(0.00696719 -0.959811 0)
(-0.00605676 -0.957471 0)
(-0.0121707 -0.980657 0)
(-0.0209666 -0.687281 0)
(-0.0188691 -0.101122 0)
(0.0268686 0.112764 0)
(0.0593764 -0.435001 0)
(0.0489488 -0.511446 0)
(0.0191146 -0.766868 0)
(0.0104666 -0.961781 0)
(0.00565793 -0.9372 0)
(-0.00855788 -0.937883 0)
(-0.0147206 -0.960321 0)
(-0.029226 -0.669638 0)
(-0.0335059 -0.10762 0)
(-0.0188123 0.101237 0)
(0.0580338 -0.4145 0)
(0.042092 -0.474055 0)
(0.0255892 -0.747509 0)
(0.0146389 -0.942042 0)
(0.00790422 -0.919384 0)
(-0.00517708 -0.916492 0)
(-0.0120529 -0.93978 0)
(-0.0238839 -0.662578 0)
(-0.032663 -0.117135 0)
(-0.0295437 0.0764354 0)
(0.0542715 -0.384854 0)
(0.0426464 -0.444913 0)
(0.0320691 -0.730589 0)
(0.0175842 -0.920537 0)
(0.00976882 -0.895636 0)
(-0.00426391 -0.896326 0)
(-0.00903458 -0.919403 0)
(-0.0160408 -0.648944 0)
(-0.0209201 -0.118526 0)
(-0.021368 0.0693186 0)
(0.0591343 -0.349588 0)
(0.0473808 -0.408454 0)
(0.0249689 -0.705578 0)
(0.0140249 -0.899099 0)
(0.00661337 -0.875428 0)
(-0.0065154 -0.875811 0)
(-0.0148934 -0.897526 0)
(-0.0312545 -0.605768 0)
(-0.0548274 -0.0857071 0)
(-0.0413671 0.0555088 0)
(0.0496773 -0.33386 0)
(0.0441549 -0.387449 0)
(0.0307541 -0.690997 0)
(0.0180732 -0.877448 0)
(0.00910248 -0.853372 0)
(-0.0049608 -0.853624 0)
(-0.0117083 -0.876471 0)
(-0.0196797 -0.598713 0)
(-0.0285847 -0.113868 0)
(-0.00213691 0.00363727 0)
(0.0620091 -0.313568 0)
(0.0470969 -0.356223 0)
(0.0245287 -0.667479 0)
(0.0132244 -0.854427 0)
(0.00514124 -0.829748 0)
(-0.00769372 -0.83271 0)
(-0.0159775 -0.853514 0)
(-0.02466 -0.584756 0)
(-0.0328384 -0.109554 0)
(-0.0131396 -0.0728937 0)
(0.0774384 -0.267216 0)
(0.0469534 -0.298443 0)
(0.0133037 -0.637304 0)
(0.00966917 -0.831713 0)
(0.00213215 -0.808904 0)
(-0.0114389 -0.807453 0)
(-0.02154 -0.831296 0)
(-0.0357059 -0.596617 0)
(-0.0240364 -0.126545 0)
(-0.0150103 -0.123635 0)
(0.087143 -0.2005 0)
(0.0431343 -0.224348 0)
(0.0264984 -0.62298 0)
(0.019322 -0.807827 0)
(0.00938929 -0.785879 0)
(-0.00392445 -0.782946 0)
(-0.012895 -0.807373 0)
(-0.0213829 -0.588033 0)
(-0.0324376 -0.0990242 0)
(-0.0809202 -0.0451543 0)
(0.0654292 -0.146349 0)
(0.0392995 -0.186677 0)
(0.0383001 -0.625501 0)
(0.022334 -0.783279 0)
(0.0124618 -0.759719 0)
(-0.000932469 -0.760799 0)
(-0.0110649 -0.782928 0)
(-0.0123601 -0.577237 0)
(-0.0357509 -0.0600892 0)
(-0.0800861 0.0283957 0)
(0.0618385 -0.0857247 0)
(0.0490216 -0.154552 0)
(0.029576 -0.610484 0)
(0.0187484 -0.757584 0)
(0.00748424 -0.734118 0)
(-0.00617144 -0.736624 0)
(-0.0178938 -0.757269 0)
(-0.0238339 -0.549051 0)
(-0.0501588 0.0129041 0)
(-0.0935209 0.11057 0)
(0.0505525 -0.0587887 0)
(0.0517224 -0.129602 0)
(0.0257396 -0.584488 0)
(0.0184149 -0.730855 0)
(0.00636003 -0.710016 0)
(-0.00783625 -0.70978 0)
(-0.0205368 -0.73057 0)
(-0.0280964 -0.532927 0)
(-0.0496464 0.0773422 0)
(-0.0951938 0.161126 0)
(0.055782 -0.0474118 0)
(0.058628 -0.107288 0)
(0.0335216 -0.560989 0)
(0.0227256 -0.703142 0)
(0.00981302 -0.683908 0)
(-0.00387026 -0.683417 0)
(-0.0170105 -0.702587 0)
(-0.0217242 -0.515529 0)
(-0.0450962 0.131483 0)
(-0.0823023 0.208477 0)
(0.0645861 -0.0333068 0)
(0.059074 -0.0807481 0)
(0.0293657 -0.532419 0)
(0.0208576 -0.674416 0)
(0.00689394 -0.656623 0)
(-0.00770314 -0.657017 0)
(-0.0223046 -0.673771 0)
(-0.0288078 -0.493258 0)
(-0.0498702 0.174599 0)
(-0.0731536 0.259948 0)
(0.0556962 -0.00525155 0)
(0.0453837 -0.0560148 0)
(0.0333133 -0.503861 0)
(0.0245759 -0.64424 0)
(0.00832468 -0.629568 0)
(-0.00757838 -0.62904 0)
(-0.023635 -0.643329 0)
(-0.027534 -0.466698 0)
(-0.0488952 0.22195 0)
(-0.059322 0.328268 0)
(0.0311635 0.0215333 0)
(0.00856082 -0.0563704 0)
(0.0417342 -0.494776 0)
(0.0239419 -0.612976 0)
(0.00717067 -0.601963 0)
(-0.00692482 -0.600674 0)
(-0.0236722 -0.61189 0)
(-0.0320252 -0.457208 0)
(-0.0246146 0.263118 0)
(-0.0433949 0.34722 0)
(0.0150003 0.0443677 0)
(-0.020259 -0.0709394 0)
(0.0464306 -0.527789 0)
(0.0248505 -0.580586 0)
(0.00662549 -0.571894 0)
(-0.00840301 -0.57093 0)
(-0.0266379 -0.579664 0)
(-0.0479885 -0.515617 0)
(0.0347978 0.260983 0)
(0.00245509 0.371476 0)
(-0.00157628 0.0404165 0)
(0.00768722 -0.139674 0)
(0.0505391 -0.535232 0)
(0.0279465 -0.54629 0)
(0.00867204 -0.541216 0)
(-0.00657664 -0.540686 0)
(-0.0271019 -0.545527 0)
(-0.0492452 -0.529726 0)
(0.0163952 0.160066 0)
(0.0910712 0.344263 0)
(0.0348654 0.0405191 0)
(0.0570647 -0.175997 0)
(0.0552744 -0.494022 0)
(0.0285139 -0.507477 0)
(0.00817158 -0.506504 0)
(-0.00920691 -0.507433 0)
(-0.0264805 -0.507322 0)
(-0.0570642 -0.494292 0)
(-0.0435589 -0.152021 0)
(0.0873765 0.266747 0)
(0.0571554 0.0118971 0)
(0.055978 -0.207411 0)
(0.0542122 -0.452788 0)
(0.0255705 -0.46735 0)
(0.00391607 -0.470505 0)
(-0.0140792 -0.468898 0)
(-0.0341573 -0.468451 0)
(-0.0598351 -0.450835 0)
(-0.0610151 -0.190906 0)
(-0.0212813 0.176927 0)
(0.0583039 -0.0135547 0)
(0.067785 -0.18002 0)
(0.0676735 -0.400243 0)
(0.0374183 -0.422614 0)
(0.0172923 -0.429393 0)
(-0.00532775 -0.429931 0)
(-0.0281324 -0.42465 0)
(-0.0642447 -0.403102 0)
(-0.0680741 -0.208187 0)
(-0.0435565 0.064115 0)
(-0.005304 -0.038946 0)
(0.0713816 -0.252352 0)
(0.0618837 -0.362845 0)
(0.028382 -0.379734 0)
(0.00646098 -0.382951 0)
(-0.0169926 -0.383001 0)
(-0.0383506 -0.380037 0)
(-0.0654589 -0.356466 0)
(-0.0692714 -0.279564 0)
(-0.00219418 -0.00242836 0)
(0.0717687 -0.0597165 0)
(0.0742024 -0.276319 0)
(0.0737895 -0.313369 0)
(0.0474183 -0.328964 0)
(0.0238183 -0.333867 0)
(-0.0034147 -0.332786 0)
(-0.0277114 -0.326903 0)
(-0.0629103 -0.310272 0)
(-0.0678345 -0.288983 0)
(-0.0859686 -0.143079 0)
(0.102202 -0.162329 0)
(0.0762545 -0.219676 0)
(0.0666625 -0.259889 0)
(0.0357371 -0.282907 0)
(0.013812 -0.285282 0)
(-0.0166642 -0.28354 0)
(-0.0419065 -0.278985 0)
(-0.0708162 -0.261524 0)
(-0.0735419 -0.224797 0)
(-0.102238 -0.217095 0)
(0.061044 -0.116242 0)
(0.0494594 -0.193282 0)
(0.0467043 -0.233568 0)
(0.0204053 -0.242492 0)
(0.00692962 -0.247727 0)
(-0.0127992 -0.247935 0)
(-0.0194896 -0.245639 0)
(-0.0398334 -0.235515 0)
(-0.0508979 -0.192661 0)
(-0.0505486 -0.14383 0)
(-0.0764365 -0.00992353 0)
(-0.0700428 -0.00862341 0)
(-0.0624434 -0.00919796 0)
(-0.0523858 -0.00992081 0)
(-0.0416004 -0.00920415 0)
(-0.0340813 -0.0073115 0)
(-0.0263477 -0.00929968 0)
(-0.0173151 -0.00993336 0)
(-0.00940524 -0.00785029 0)
(-0.00605111 -0.00452138 0)
(-0.00444948 -0.00380414 0)
(-0.00302197 -0.00124832 0)
(-0.00324782 0.00506077 0)
(-0.00732514 0.0101151 0)
(-0.013701 0.0144952 0)
(-0.0220297 0.0141729 0)
(-0.0275223 0.00516076 0)
(-0.025204 -0.00493732 0)
(-0.0220523 -0.010818 0)
(-0.0238824 -0.0128854 0)
(-0.0311622 -0.00753332 0)
(-0.0483814 0.00743596 0)
(-0.0630604 0.00793152 0)
(-0.0703081 -0.0050108 0)
(-0.0715576 -0.00771055 0)
(-0.0759582 -0.00712272 0)
(-0.0834453 -0.000376968 0)
(-0.0981222 0.0264441 0)
(-0.112858 0.0390354 0)
(-0.127208 0.0244768 0)
(-0.124546 -0.00833706 0)
(-0.112166 -0.0164939 0)
(-0.0942852 -0.00817379 0)
(-0.0886934 -0.00135063 0)
(-0.0808039 -0.00631196 0)
(-0.0629604 -0.0248064 0)
(-0.0426872 -0.0276392 0)
(-0.0207268 -0.0240087 0)
(-0.00809674 0.000995826 0)
(-0.00464373 -0.0051958 0)
(-0.0841773 -0.0203469 0)
(-0.0744473 -0.0141883 0)
(-0.065572 -0.0182526 0)
(-0.056586 -0.0264389 0)
(-0.04748 -0.0260938 0)
(-0.0373509 -0.0187727 0)
(-0.0278307 -0.0199217 0)
(-0.0194602 -0.021523 0)