/*--------------------------------*- C++ -*----------------------------------*\
  =========                 |
  \\      /  F ield         | OpenFOAM: The Open Source CFD Toolbox
   \\    /   O peration     | Website:  https://openfoam.org
    \\  /    A nd           | Version:  8
     \\/     M anipulation  |
\*---------------------------------------------------------------------------*/
FoamFile
{
    version     2.0;
    format      ascii;
    class       surfaceScalarField;
    location    "1";
    object      alphaPhi0.water;
}
// * * * * * * * * * * * * * * * * * * * * * * * * * * * * * * * * * * * * * //

dimensions      [0 3 -1 0 0 0 0];

internalField   nonuniform List<scalar> 
18095
(
1.59493e-07
-9.6424e-07
8.04747e-07
1.66072e-07
-1.24849e-06
1.24191e-06
1.22646e-07
-1.24254e-06
1.28596e-06
6.55343e-08
-1.2638e-06
1.32091e-06
-4.30115e-13
-1.28094e-06
1.34647e-06
-6.55351e-08
-1.28094e-06
1.34647e-06
-1.22647e-07
-1.2638e-06
1.32091e-06
-1.66072e-07
-1.24254e-06
1.28596e-06
-1.59493e-07
-1.24849e-06
1.24191e-06
-9.6424e-07
8.04747e-07
1.1134e-07
-1.07558e-06
9.98422e-08
-1.23699e-06
7.31651e-08
-1.21586e-06
4.01913e-08
-1.23082e-06
-2.88387e-13
-1.24074e-06
-4.01919e-08
-1.24074e-06
-7.31655e-08
-1.23082e-06
-9.98425e-08
-1.21586e-06
-1.1134e-07
-1.23699e-06
-1.07558e-06
6.75054e-08
-1.14309e-06
5.30814e-08
-1.22257e-06
4.23809e-08
-1.20516e-06
2.39867e-08
-1.21243e-06
-1.92967e-13
-1.21676e-06
-2.3987e-08
-1.21676e-06
-4.23811e-08
-1.21243e-06
-5.30816e-08
-1.20516e-06
-6.75055e-08
-1.22257e-06
-1.14309e-06
3.98516e-08
-1.18294e-06
2.67998e-08
-1.20952e-06
2.21571e-08
-1.20052e-06
1.26151e-08
-1.20289e-06
-1.1803e-13
-1.20414e-06
-1.26153e-08
-1.20414e-06
-2.21573e-08
-1.20289e-06
-2.67999e-08
-1.20052e-06
-3.98517e-08
-1.20952e-06
-1.18294e-06
1.7063e-08
7.54591e-09
7.02771e-09
4.14147e-09
-4.76549e-14
-4.14155e-09
-7.02775e-09
-7.54592e-09
-1.7063e-08
-1.77083e-07
-1.16213e-06
1.33921e-06
-2.21696e-07
-1.21675e-06
1.26136e-06
-1.66903e-07
-1.21335e-06
1.15856e-06
-8.77227e-08
-1.20457e-06
1.12539e-06
-4.63398e-12
-1.20321e-06
1.11549e-06
8.77137e-08
-1.20321e-06
1.11549e-06
1.66895e-07
-1.20457e-06
1.12539e-06
2.21688e-07
-1.21335e-06
1.15856e-06
1.77077e-07
-1.21675e-06
1.26136e-06
-1.16212e-06
1.3392e-06
-9.2477e-08
-1.06965e-06
-9.55802e-08
-1.21365e-06
-7.95283e-08
-1.2294e-06
-4.44164e-08
-1.23968e-06
-2.56869e-12
-1.24762e-06
4.44115e-08
-1.24762e-06
7.95239e-08
-1.23968e-06
9.55769e-08
-1.2294e-06
9.24751e-08
-1.21364e-06
-1.06965e-06
-5.81129e-08
-1.01154e-06
-5.51804e-08
-1.21658e-06
-4.65275e-08
-1.23806e-06
-2.71561e-08
-1.25905e-06
-1.53874e-12
-1.27477e-06
2.71532e-08
-1.27477e-06
4.65251e-08
-1.25905e-06
5.51787e-08
-1.23806e-06
5.81122e-08
-1.21658e-06
-1.01154e-06
-7.52518e-08
-9.36286e-07
-6.23066e-08
-1.22952e-06
-4.86114e-08
-1.25175e-06
-2.77352e-08
-1.27993e-06
-9.70711e-13
-1.30251e-06
2.77334e-08
-1.30251e-06
4.86099e-08
-1.27993e-06
6.23057e-08
-1.25175e-06
7.52514e-08
-1.22952e-06
-9.36285e-07
-1.31538e-07
-1.19151e-07
-8.49381e-08
-4.39614e-08
-6.42245e-13
4.39602e-08
8.49371e-08
1.1915e-07
1.31538e-07
-6.66968e-08
-9.4872e-07
1.01542e-06
-6.33599e-09
-1.335e-06
1.27464e-06
7.6248e-09
-1.26951e-06
1.25555e-06
3.26083e-09
-1.22491e-06
1.22928e-06
-4.58283e-11
-1.22194e-06
1.22525e-06
-3.35397e-09
-1.22194e-06
1.22525e-06
-7.72931e-09
-1.22491e-06
1.22928e-06
6.20995e-09
-1.26951e-06
1.25557e-06
6.65546e-08
-1.33498e-06
1.27463e-06
-9.48579e-07
1.01513e-06
3.51591e-09
-9.52236e-07
1.23659e-08
-1.34385e-06
9.53595e-09
-1.26668e-06
5.4376e-09
-1.22082e-06
-3.68815e-11
-1.21647e-06
-5.51244e-09
-1.21647e-06
-9.60722e-09
-1.22081e-06
-1.24396e-08
-1.26668e-06
-3.58389e-09
-1.34383e-06
-9.52162e-07
2.41386e-08
-9.76374e-07
1.68124e-08
-1.33652e-06
8.20872e-09
-1.25808e-06
4.83974e-09
-1.21745e-06
-2.10146e-11
-1.21161e-06
-4.87879e-09
-1.21161e-06
-8.24913e-09
-1.21744e-06
-1.68525e-08
-1.25807e-06
-2.417e-08
-1.33651e-06
-9.76332e-07
7.88426e-08
-1.05522e-06
5.4794e-08
-1.31248e-06
3.56122e-08
-1.2389e-06
2.08573e-08
-1.20269e-06
-1.30816e-11
-1.19074e-06
-2.08832e-08
-1.19074e-06
-3.56379e-08
-1.20269e-06
-5.48212e-08
-1.23889e-06
-7.88649e-08
-1.31247e-06
-1.0552e-06
2.83993e-07
2.3288e-07
1.52543e-07
7.52428e-08
-7.90735e-12
-7.52583e-08
-1.52556e-07
-2.32891e-07
-2.84003e-07
-6.07847e-07
-1.47756e-07
7.55604e-07
-4.56521e-07
-1.51327e-07
-3.02915e-07
-1.53606e-07
-1.48104e-07
-1.54811e-07
6.78353e-09
-1.54887e-07
1.61606e-07
-1.54822e-07
3.16177e-07
-1.54571e-07
4.69334e-07
-1.53158e-07
6.20009e-07
-1.50675e-07
-1.4691e-07
7.66919e-07
-4.82637e-07
-2.62331e-07
5.97214e-07
-3.64181e-07
-2.69782e-07
-2.42885e-07
-2.74901e-07
-1.19636e-07
-2.7806e-07
4.95493e-09
-2.79478e-07
1.2948e-07
-2.79347e-07
2.52569e-07
-2.7766e-07
3.73636e-07
-2.74224e-07
4.91779e-07
-2.68818e-07
-2.61081e-07
6.05951e-07
-3.85468e-07
-3.54251e-07
4.77388e-07
-2.90561e-07
-3.6469e-07
-1.93448e-07
-3.72015e-07
-9.48804e-08
-3.76626e-07
4.44186e-09
-3.78801e-07
1.03759e-07
-3.78665e-07
2.02312e-07
-3.76213e-07
2.99397e-07
-3.71307e-07
3.94242e-07
-3.63664e-07
-3.52877e-07
4.86038e-07
-3.0757e-07
-4.28424e-07
3.81743e-07
-2.31315e-07
-4.40946e-07
-1.5352e-07
-4.4981e-07
-7.4698e-08
-4.55448e-07
4.65335e-09
-4.58152e-07
8.40409e-08
-4.58052e-07
1.62967e-07
-4.5514e-07
2.4092e-07
-4.4926e-07
3.17361e-07
-4.40105e-07
-4.27215e-07
3.91699e-07
-2.41954e-07
-4.87593e-07
3.01123e-07
-1.81454e-07
-5.01446e-07
-1.1993e-07
-5.11333e-07
-5.7695e-08
-5.17686e-07
4.93208e-09
-5.20779e-07
6.76243e-08
-5.20744e-07
1.30053e-07
-5.1757e-07
1.91892e-07
-5.111e-07
2.52815e-07
-5.01028e-07
-4.86882e-07
3.12482e-07
-1.89881e-07
-5.3495e-07
2.37238e-07
-1.41906e-07
-5.49423e-07
-9.3397e-08
-5.59842e-07
-4.44887e-08
-5.66595e-07
4.64665e-09
-5.69914e-07
5.38198e-08
-5.69917e-07
1.02844e-07
-5.66594e-07
1.5155e-07
-5.59806e-07
1.99811e-07
-5.49289e-07
-5.34618e-07
2.47547e-07
-1.54522e-07
-5.74759e-07
1.94332e-07
-1.14925e-07
-5.89021e-07
-7.54089e-08
-5.9936e-07
-3.59218e-08
-6.06082e-07
3.53053e-09
-6.09366e-07
4.29146e-08
-6.09302e-07
8.21992e-08
-6.05877e-07
1.21389e-07
-5.98997e-07
1.60566e-07
-5.88467e-07
-5.73986e-07
1.99935e-07
-1.35263e-07
-6.11111e-07
1.71615e-07
-9.99914e-08
-6.24291e-07
-6.54743e-08
-6.33877e-07
-3.14698e-08
-6.40085e-07
2.21156e-09
-6.43048e-07
3.57317e-08
-6.42822e-07
6.92603e-08
-6.39405e-07
1.03018e-07
-6.32754e-07
1.37322e-07
-6.22771e-07
-6.0931e-07
1.72646e-07
-1.25126e-07
-6.45765e-07
1.5978e-07
-9.20588e-08
-6.57357e-07
-6.01302e-08
-6.65804e-07
-2.89648e-08
-6.7125e-07
1.76855e-09
-6.73781e-07
3.23837e-08
-6.73437e-07
6.32095e-08
-6.70231e-07
9.46251e-08
-6.6417e-07
1.27092e-07
-6.55238e-07
-6.43417e-07
1.61198e-07
-1.17524e-07
-6.78627e-07
1.50386e-07
-8.62615e-08
-6.8862e-07
-5.61092e-08
-6.95956e-07
-2.66528e-08
-7.00706e-07
2.47894e-09
-7.02913e-07
3.16452e-08
-7.02603e-07
6.12181e-08
-6.99804e-07
9.15971e-08
-6.9455e-07
1.23221e-07
-6.86862e-07
-6.76762e-07
1.56567e-07
-1.11467e-07
-7.09892e-07
1.42732e-07
-8.16675e-08
-7.18419e-07
-5.28481e-08
-7.24776e-07
-2.46042e-08
-7.2895e-07
3.4254e-09
-7.30942e-07
3.15837e-08
-7.30761e-07
6.02088e-08
-7.28429e-07
8.96369e-08
-7.23978e-07
1.20196e-07
-7.17421e-07
-7.08734e-07
1.52168e-07
-1.07356e-07
-7.40005e-07
1.37469e-07
-7.85589e-08
-7.47216e-07
-5.0696e-08
-7.52639e-07
-2.34042e-08
-7.56242e-07
3.65543e-09
-7.58002e-07
3.07988e-08
-7.57905e-07
5.8321e-08
-7.55951e-07
8.64963e-08
-7.52153e-07
1.15559e-07
-7.46483e-07
-7.38849e-07
1.45674e-07
-1.03564e-07
-7.68751e-07
1.3231e-07
-7.59047e-08
-7.74875e-07
-4.91048e-08
-7.79439e-07
-2.28882e-08
-7.82462e-07
3.03315e-09
-7.83924e-07
2.89336e-08
-7.83805e-07
5.50686e-08
-7.82086e-07
8.1669e-08
-7.78752e-07
1.08932e-07
-7.73747e-07
-7.66948e-07
1.37031e-07
-9.76123e-08
-7.95227e-07
1.24088e-07
-7.18977e-08
-8.0059e-07
-4.68265e-08
-8.0451e-07
-2.22283e-08
-8.07061e-07
2.09551e-09
-8.08247e-07
2.63539e-08
-8.08064e-07
5.07516e-08
-8.06484e-07
7.54864e-08
-8.03486e-07
1.00752e-07
-7.99012e-07
-7.92967e-07
1.2677e-07
-8.95385e-08
-8.18994e-07
1.13305e-07
-6.6313e-08
-8.23816e-07
-4.35182e-08
-8.27305e-07
-2.10443e-08
-8.29532e-07
1.23926e-09
-8.30531e-07
2.3475e-08
-8.303e-07
4.5814e-08
-8.28824e-07
6.84196e-08
-8.26092e-07
9.1476e-08
-8.22068e-07
-8.16711e-07
1.15221e-07
-8.06865e-08
-8.40145e-07
1.01838e-07
-5.99914e-08
-8.44512e-07
-3.96152e-08
-8.47682e-07
-1.94485e-08
-8.49696e-07
6.12837e-10
-8.50592e-07
2.0675e-08
-8.50362e-07
4.08564e-08
-8.49006e-07
6.12926e-08
-8.46528e-07
8.21524e-08
-8.42927e-07
-8.38227e-07
1.03668e-07
-7.25185e-08
-8.59094e-07
9.14675e-08
-5.40307e-08
-8.62999e-07
-3.58454e-08
-8.65867e-07
-1.78366e-08
-8.67705e-07
1.02469e-10
-8.68531e-07
1.80773e-08
-8.68337e-07
3.62012e-08
-8.67128e-07
5.45984e-08
-8.64925e-07
7.34117e-08
-8.61741e-07
-8.57622e-07
9.28066e-08
-6.52884e-08
-8.76057e-07
8.22515e-08
-4.87428e-08
-8.79544e-07
-3.25004e-08
-8.82106e-07
-1.64476e-08
-8.83758e-07
-4.71427e-10
-8.84507e-07
1.554e-08
-8.84348e-07
3.16979e-08
-8.83285e-07
4.81146e-08
-8.81342e-07
6.48926e-08
-8.78519e-07
-8.74814e-07
8.20848e-08
-5.80222e-08
-8.90915e-07
7.28803e-08
-4.34918e-08
-8.94074e-07
-2.9209e-08
-8.96389e-07
-1.50864e-08
-8.9788e-07
-1.0271e-09
-8.98567e-07
1.30666e-08
-8.98442e-07
2.72902e-08
-8.97509e-07
4.17336e-08
-8.95788e-07
5.64725e-08
-8.93258e-07
-8.89906e-07
7.15643e-08
-5.08916e-08
-9.03795e-07
6.37722e-08
-3.83265e-08
-9.06639e-07
-2.59709e-08
-9.08745e-07
-1.37373e-08
-9.10114e-07
-1.54774e-09
-9.10756e-07
1.06759e-08
-9.10665e-07
2.30093e-08
-9.09842e-07
3.55219e-08
-9.08301e-07
4.82748e-08
-9.06011e-07
-9.02966e-07
6.13349e-08
-4.45194e-08
-9.14939e-07
5.56635e-08
-3.36858e-08
-9.17473e-07
-2.30548e-08
-9.19376e-07
-1.25392e-08
-9.2063e-07
-2.06199e-09
-9.21234e-07
8.44523e-09
-9.21173e-07
1.90479e-08
-9.20445e-07
2.98139e-08
-9.19064e-07
4.08156e-08
-9.17013e-07
-9.14292e-07
5.2142e-08
-3.91105e-08
-9.24583e-07
4.87539e-08
-2.97512e-08
-9.26833e-07
-2.05902e-08
-9.28538e-07
-1.15448e-08
-9.29675e-07
-2.54127e-09
-9.30237e-07
6.48721e-09
-9.30201e-07
1.56067e-08
-9.29564e-07
2.48869e-08
-9.28342e-07
3.44086e-08
-9.26534e-07
-9.24148e-07
4.4264e-08
-3.4446e-08
-9.32857e-07
4.27198e-08
-2.63938e-08
-9.34885e-07
-1.84984e-08
-9.36434e-07
-1.0696e-08
-9.37478e-07
-2.92671e-09
-9.38007e-07
4.86721e-09
-9.37995e-07
1.27434e-08
-9.37441e-07
2.07651e-08
-9.36364e-07
2.90027e-08
-9.34772e-07
-9.32686e-07
3.75405e-08
-3.03769e-08
-9.39873e-07
3.7393e-08
-2.34878e-08
-9.41773e-07
-1.66785e-08
-9.43241e-07
-9.91092e-09
-9.44246e-07
-3.14915e-09
-9.44768e-07
3.64076e-09
-9.44785e-07
1.04954e-08
-9.44297e-07
1.74551e-08
-9.43323e-07
2.45732e-08
-9.4189e-07
-9.40027e-07
3.1914e-08
-2.72661e-08
-9.45936e-07
3.33299e-08
-2.12496e-08
-9.47789e-07
-1.52426e-08
-9.49248e-07
-9.22294e-09
-9.50266e-07
-3.17906e-09
-9.50812e-07
2.89624e-09
-9.5086e-07
9.0107e-09
-9.50408e-07
1.51815e-08
-9.49498e-07
2.14356e-08
-9.48144e-07
-9.4641e-07
2.78186e-08
-2.52893e-08
-9.51345e-07
3.06985e-08
-1.98236e-08
-9.53254e-07
-1.42821e-08
-9.54789e-07
-8.66675e-09
-9.55883e-07
-2.99402e-09
-9.56485e-07
2.71141e-09
-9.56566e-07
8.42642e-09
-9.56123e-07
1.41336e-08
-9.55206e-07
1.98301e-08
-9.53841e-07
-9.52106e-07
2.5526e-08
-2.4437e-08
-9.56364e-07
2.94558e-08
-1.92206e-08
-9.58471e-07
-1.38105e-08
-9.60199e-07
-8.24481e-09
-9.61448e-07
-2.57654e-09
-9.62153e-07
3.13421e-09
-9.62276e-07
8.82694e-09
-9.61816e-07
1.44495e-08
-9.60825e-07
1.99631e-08
-9.59354e-07
-9.57503e-07
2.53606e-08
-2.46594e-08
-9.61218e-07
2.95131e-08
-1.94105e-08
-9.6372e-07
-1.38164e-08
-9.65793e-07
-7.96432e-09
-9.67298e-07
-1.95432e-09
-9.68163e-07
4.109e-09
-9.6834e-07
1.01205e-08
-9.67827e-07
1.59791e-08
-9.6668e-07
2.15924e-08
-9.64967e-07
-9.62793e-07
2.68818e-08
-2.60236e-08
-9.66161e-07
3.0967e-08
-2.04253e-08
-9.69319e-07
-1.43338e-08
-9.71885e-07
-7.8984e-09
-9.73734e-07
-1.26874e-09
-9.74793e-07
5.40744e-09
-9.75016e-07
1.19822e-08
-9.74402e-07
1.83022e-08
-9.73e-07
2.42051e-08
-9.7087e-07
-9.68116e-07
2.9528e-08
-2.86262e-08
-9.71657e-07
3.41217e-08
-2.2274e-08
-9.75671e-07
-1.53584e-08
-9.78804e-07
-8.08951e-09
-9.81002e-07
-6.42556e-10
-9.8224e-07
6.81704e-09
-9.82476e-07
1.41239e-08
-9.81709e-07
2.11016e-08
-9.79978e-07
2.75486e-08
-9.77317e-07
-9.73786e-07
3.32192e-08
-3.24009e-08
-9.78667e-07
3.94113e-08
-2.47402e-08
-9.83332e-07
-1.6677e-08
-9.86867e-07
-8.39602e-09
-9.89284e-07
-3.43212e-11
-9.90601e-07
8.28949e-09
-9.90799e-07
1.64559e-08
-9.89876e-07
2.4328e-08
-9.87852e-07
3.17342e-08
-9.84723e-07
-9.80479e-07
3.84268e-08
-3.49255e-08
-9.87059e-07
4.3318e-08
-2.61493e-08
-9.92108e-07
-1.71988e-08
-9.95815e-07
-8.18941e-09
-9.98293e-07
8.15308e-10
-9.99606e-07
9.77345e-09
-9.99758e-07
1.86459e-08
-9.98748e-07
2.73814e-08
-9.96591e-07
3.58872e-08
-9.93229e-07
-9.88597e-07
4.40055e-08
-3.51662e-08
-9.96386e-07
4.4493e-08
-2.5824e-08
-1.00145e-06
-1.65426e-08
-1.00509e-06
-7.34423e-09
-1.00749e-06
1.7855e-09
-1.00874e-06
1.08781e-08
-1.00885e-06
1.99689e-08
-1.00784e-06
2.90841e-08
-1.00571e-06
3.82219e-08
-1.00237e-06
-9.97701e-07
4.7326e-08
-3.30142e-08
-1.00561e-06
4.22364e-08
-2.38988e-08
-1.01057e-06
-1.4933e-08
-1.01406e-06
-6.08684e-09
-1.01634e-06
2.68457e-09
-1.01751e-06
1.14332e-08
-1.0176e-06
2.02136e-08
-1.01662e-06
2.90779e-08
-1.01457e-06
3.80608e-08
-1.01135e-06
-1.0067e-06
4.70635e-08
-3.31613e-08
-1.0157e-06
4.32576e-08
-2.36121e-08
-1.02011e-06
-1.44423e-08
-1.02323e-06
-5.50392e-09
-1.02528e-06
3.31887e-09
-1.02633e-06
1.21318e-08
-1.02641e-06
2.10445e-08
-1.02554e-06
3.01829e-08
-1.0237e-06
3.97129e-08
-1.02088e-06
-1.01674e-06
4.97487e-08
-3.50484e-08
-1.02623e-06
4.55697e-08
-2.49369e-08
-1.03023e-06
-1.52153e-08
-1.03295e-06
-5.72696e-09
-1.03477e-06
3.64818e-09
-1.03571e-06
1.30132e-08
-1.03578e-06
2.24747e-08
-1.03499e-06
3.21651e-08
-1.03339e-06
4.22637e-08
-1.03098e-06
-1.02706e-06
5.25883e-08
-4.10362e-08
-1.03845e-06
5.32601e-08
-2.92691e-08
-1.04199e-06
-1.80106e-08
-1.04421e-06
-7.05687e-09
-1.04572e-06
3.74308e-09
-1.04651e-06
1.45191e-08
-1.04655e-06
2.54021e-08
-1.04588e-06
3.65439e-08
-1.04454e-06
4.81504e-08
-1.04258e-06
-1.03845e-06
5.95406e-08
-4.81983e-08
-1.0517e-06
6.1453e-08
-3.46446e-08
-1.05555e-06
-2.16073e-08
-1.05725e-06
-8.9001e-09
-1.05843e-06
3.62352e-09
-1.05903e-06
1.60955e-08
-1.05902e-06
2.8643e-08
-1.05843e-06
4.13995e-08
-1.05729e-06
5.45229e-08
-1.05571e-06
-1.04957e-06
6.56351e-08
-5.33039e-08
-1.06402e-06
6.56225e-08
-3.87454e-08
-1.07011e-06
-2.44895e-08
-1.07151e-06
-1.04574e-08
-1.07246e-06
3.43054e-09
-1.07292e-06
1.72509e-08
-1.07285e-06
3.10749e-08
-1.07225e-06
4.49644e-08
-1.07118e-06
5.8962e-08
-1.06971e-06
-1.05776e-06
6.71548e-08
-5.64949e-08
-1.0732e-06
6.56683e-08
-4.14364e-08
-1.08516e-06
-2.64634e-08
-1.08648e-06
-1.15862e-08
-1.08734e-06
3.20234e-09
-1.08771e-06
1.7916e-08
-1.08756e-06
3.25643e-08
-1.0869e-06
4.71411e-08
-1.08576e-06
6.16069e-08
-1.08417e-06
-1.0595e-06
6.3344e-08
-5.8197e-08
-1.07579e-06
6.07824e-08
-4.29441e-08
-1.10042e-06
-2.76133e-08
-1.10181e-06
-1.22772e-08
-1.10267e-06
3.01771e-09
-1.103e-06
1.82369e-08
-1.10278e-06
3.33463e-08
-1.10201e-06
4.82994e-08
-1.10071e-06
6.30174e-08
-1.09889e-06
-1.05204e-06
5.67672e-08
-5.90404e-08
-1.07026e-06
5.43536e-08
-4.36901e-08
-1.11577e-06
-2.81766e-08
-1.11732e-06
-1.25965e-08
-1.11825e-06
2.97865e-09
-1.11858e-06
1.84876e-08
-1.11829e-06
3.38715e-08
-1.1174e-06
4.90713e-08
-1.11591e-06
6.40354e-08
-1.11385e-06
-1.0392e-06
5.14968e-08
-5.97247e-08
-1.05981e-06
4.95995e-08
-4.4203e-08
-1.13129e-06
-2.85199e-08
-1.133e-06
-1.27395e-08
-1.13403e-06
3.06552e-09
-1.13438e-06
1.88217e-08
-1.13404e-06
3.4457e-08
-1.13302e-06
4.99016e-08
-1.13136e-06
6.50875e-08
-1.12904e-06
-1.02228e-06
4.82627e-08
-6.06544e-08
-1.04566e-06
4.67347e-08
-4.49305e-08
-1.14701e-06
-2.9011e-08
-1.14892e-06
-1.29654e-08
-1.15008e-06
3.13058e-09
-1.15048e-06
1.91948e-08
-1.15011e-06
3.51418e-08
-1.14897e-06
5.0886e-08
-1.1471e-06
6.6343e-08
-1.1445e-06
-1.00054e-06
4.43508e-08
-6.2101e-08
-1.02706e-06
4.34878e-08
-4.61081e-08
-1.16301e-06
-2.9869e-08
-1.16516e-06
-1.34587e-08
-1.16649e-06
3.03791e-09
-1.16697e-06
1.95265e-08
-1.1666e-06
3.59054e-08
-1.16535e-06
5.20685e-08
-1.16327e-06
6.78986e-08
-1.16033e-06
-9.73593e-07
4.0296e-08
-6.42986e-08
-1.00339e-06
4.02948e-08
-4.795e-08
-1.17935e-06
-3.12794e-08
-1.18183e-06
-1.43831e-08
-1.18338e-06
2.6416e-09
-1.184e-06
1.96885e-08
-1.18364e-06
3.66424e-08
-1.1823e-06
5.33765e-08
-1.18e-06
6.97313e-08
-1.17668e-06
-9.40977e-07
3.59881e-08
-6.7316e-08
-9.73822e-07
3.69643e-08
-5.05054e-08
-1.19616e-06
-3.32926e-08
-1.19905e-06
-1.58071e-08
-1.20087e-06
1.84155e-09
-1.20165e-06
1.95427e-08
-1.20134e-06
3.71781e-08
-1.19994e-06
5.46118e-08
-1.19743e-06
7.16459e-08
-1.19371e-06
-9.02355e-07
3.13671e-08
-7.09281e-08
-9.37524e-07
3.32687e-08
-5.35571e-08
-1.21354e-06
-3.57286e-08
-1.21688e-06
-1.76094e-08
-1.21899e-06
6.89953e-10
-1.21995e-06
1.90696e-08
-1.21972e-06
3.74276e-08
-1.2183e-06
5.56464e-08
-1.21565e-06
7.35011e-08
-1.21157e-06
-8.57495e-07
2.64501e-08
-7.48434e-08
-8.93791e-07
2.90426e-08
-5.68054e-08
-1.23157e-06
-3.83165e-08
-1.23536e-06
-1.95749e-08
-1.23773e-06
-6.68813e-10
-1.23885e-06
1.83333e-08
-1.23873e-06
3.73696e-08
-1.23734e-06
5.63745e-08
-1.23466e-06
7.51052e-08
-1.2303e-06
-8.06368e-07
2.13003e-08
-7.85916e-08
-8.42231e-07
2.41777e-08
-5.98485e-08
-1.25032e-06
-4.07168e-08
-1.2545e-06
-2.14316e-08
-1.25702e-06
-2.03103e-09
-1.25825e-06
1.74646e-08
-1.25822e-06
3.7046e-08
-1.25692e-06
5.67173e-08
-1.25433e-06
7.61506e-08
-1.24973e-06
-7.49423e-07
1.60458e-08
-8.1602e-08
-7.83046e-07
1.8748e-08
-6.23231e-08
-1.2696e-06
-4.26678e-08
-1.27415e-06
-2.29874e-08
-1.27669e-06
-3.25781e-09
-1.27798e-06
1.65484e-08
-1.27803e-06
3.64665e-08
-1.27683e-06
5.65507e-08
-1.27441e-06
7.60679e-08
-1.26925e-06
-6.87826e-07
1.08595e-08
-8.33994e-08
-7.17041e-07
1.30796e-08
-6.40855e-08
-1.28891e-06
-4.41091e-08
-1.29413e-06
-2.42278e-08
-1.29657e-06
-4.36844e-09
-1.29784e-06
1.55293e-08
-1.29793e-06
3.55273e-08
-1.29683e-06
5.57018e-08
-1.29459e-06
7.42953e-08
-1.28784e-06
-6.2393e-07
6.24049e-09
-8.30955e-08
-6.46369e-07
7.69071e-09
-6.4797e-08
-1.30721e-06
-4.48345e-08
-1.31409e-06
-2.50277e-08
-1.31638e-06
-5.29039e-09
-1.31758e-06
1.44425e-08
-1.31766e-06
3.42323e-08
-1.31662e-06
5.41502e-08
-1.3145e-06
7.0319e-08
-1.30401e-06
-5.62242e-07
4.39687e-09
-7.99639e-08
-5.76336e-07
5.3567e-09
-6.43005e-08
-1.32287e-06
-4.46991e-08
-1.33369e-06
-2.5221e-08
-1.33586e-06
-5.80044e-09
-1.337e-06
1.36101e-08
-1.33707e-06
3.30522e-08
-1.33606e-06
5.25742e-08
-1.33403e-06
6.44057e-08
-1.31584e-06
-5.05222e-07
2.93002e-09
-7.4118e-08
-5.10258e-07
3.57696e-09
-6.31857e-08
-1.3338e-06
-4.40733e-08
-1.3528e-06
-2.50158e-08
-1.35492e-06
-5.98051e-09
-1.35603e-06
1.30564e-08
-1.35611e-06
3.21154e-08
-1.35512e-06
5.12108e-08
-1.35312e-06
5.46353e-08
-1.31922e-06
-4.56547e-07
2.45549e-09
-6.39588e-08
-4.53329e-07
2.94554e-09
-6.17448e-08
-1.33597e-06
-4.31307e-08
-1.37142e-06
-2.4509e-08
-1.37355e-06
-5.88512e-09
-1.37466e-06
1.27463e-08
-1.37474e-06
3.13939e-08
-1.37378e-06
5.00739e-08
-1.3718e-06
4.9495e-08
-1.3216e-06
-4.1254e-07
2.09731e-09
-5.61501e-08
-4.0291e-07
2.18101e-09
-5.98688e-08
-1.33473e-06
-4.17469e-08
-1.38954e-06
-2.35992e-08
-1.39169e-06
-5.43325e-09
-1.39282e-06
1.2751e-08
-1.39292e-06
3.09632e-08
-1.39199e-06
4.92197e-08
-1.39006e-06
4.59544e-08
-1.31948e-06
-3.71483e-07
1.56206e-09
-5.05222e-08
-3.57525e-07
1.73568e-09
-5.77186e-08
-1.32884e-06
-4.00695e-08
-1.40719e-06
-2.24296e-08
-1.40933e-06
-4.78088e-09
-1.41047e-06
1.28882e-08
-1.41059e-06
3.05934e-08
-1.40969e-06
4.83551e-08
-1.40782e-06
4.29733e-08
-1.31566e-06
-3.32996e-07
1.27277e-09
-4.61391e-08
-3.16054e-07
1.45716e-09
-5.5339e-08
-1.32131e-06
-3.82349e-08
-1.42429e-06
-2.116e-08
-1.4264e-06
-4.09557e-09
-1.42754e-06
1.29772e-08
-1.42766e-06
3.00749e-08
-1.42679e-06
4.72197e-08
-1.42496e-06
3.97525e-08
-1.30981e-06
-2.97328e-07
1.12492e-09
-4.16868e-08
-2.78567e-07
1.26887e-09
-5.27949e-08
-1.31194e-06
-3.62967e-08
-1.44079e-06
-1.98452e-08
-1.44285e-06
-3.41706e-09
-1.44397e-06
1.30087e-08
-1.44409e-06
2.94517e-08
-1.44323e-06
4.59268e-08
-1.44144e-06
3.655e-08
-1.30216e-06
-2.64512e-07
9.8455e-10
-3.74647e-08
-2.4487e-07
1.07527e-09
-5.01159e-08
-1.30114e-06
-3.42775e-08
-1.45663e-06
-1.85109e-08
-1.45862e-06
-2.78372e-09
-1.45969e-06
1.29355e-08
-1.45981e-06
2.86762e-08
-1.45897e-06
4.44638e-08
-1.45723e-06
3.34574e-08
-1.29298e-06
-2.34474e-07
8.63076e-10
-3.35326e-08
-2.14789e-07
9.75359e-10
-4.73463e-08
-1.28926e-06
-3.22096e-08
-1.47177e-06
-1.71882e-08
-1.47365e-06
-2.22516e-09
-1.47466e-06
1.27257e-08
-1.47476e-06
2.77093e-08
-1.47396e-06
4.27784e-08
-1.47229e-06
3.04693e-08
-1.28258e-06
-2.07187e-07
8.10363e-10
-2.96945e-08
-1.88228e-07
8.52934e-10
-4.43641e-08
-1.27661e-06
-3.00551e-08
-1.48608e-06
-1.58679e-08
-1.48783e-06
-1.74444e-09
-1.48878e-06
1.23654e-08
-1.48887e-06
2.65109e-08
-1.48811e-06
4.07467e-08
-1.48653e-06
2.74002e-08
-1.27122e-06
-1.82714e-07
7.30326e-10
-2.60237e-08
-1.6501e-07
7.01329e-10
-4.11792e-08
-1.26353e-06
-2.78125e-08
-1.49944e-06
-1.45501e-08
-1.50109e-06
-1.34852e-09
-1.50198e-06
1.18391e-08
-1.50206e-06
2.50587e-08
-1.50132e-06
3.83507e-08
-1.49982e-06
2.43276e-08
-1.25925e-06
-1.61038e-07
6.17575e-10
-2.26514e-08
-1.44898e-07
5.94815e-10
-3.78399e-08
-1.25048e-06
-2.54798e-08
-1.5118e-06
-1.32249e-08
-1.51335e-06
-1.03061e-09
-1.51418e-06
1.11501e-08
-1.51424e-06
2.33641e-08
-1.51353e-06
3.56537e-08
-1.51211e-06
2.14141e-08
-1.24711e-06
-1.42045e-07
5.36859e-10
-1.94948e-08
-1.27704e-07
5.01884e-10
-3.43068e-08
-1.23786e-06
-2.30435e-08
-1.52307e-06
-1.18815e-08
-1.52451e-06
-7.78871e-10
-1.52528e-06
1.03113e-08
-1.52533e-06
2.14355e-08
-1.52466e-06
3.26351e-08
-1.52331e-06
1.86009e-08
-1.23522e-06
-1.25651e-07
4.62586e-10
-1.65805e-08
-1.13212e-07
4.17178e-10
-3.0643e-08
-1.22601e-06
-2.05501e-08
-1.53316e-06
-1.05378e-08
-1.53453e-06
-5.81324e-10
-1.53523e-06
9.36415e-09
-1.53527e-06
1.93431e-08
-1.53464e-06
2.93797e-08
-1.53335e-06
1.59397e-08
-1.22395e-06
-1.11724e-07
3.91044e-10
-1.39007e-08
-1.01206e-07
3.44214e-10
-2.68524e-08
-1.21528e-06
-1.79977e-08
-1.54202e-06
-9.18961e-09
-1.54333e-06
-4.31599e-10
-1.54399e-06
8.31701e-09
-1.54402e-06
1.70968e-08
-1.54342e-06
2.59021e-08
-1.54216e-06
1.34422e-08
-1.21366e-06
-1.00114e-07
3.26509e-10
-1.14378e-08
-9.14955e-08
2.82631e-10
-2.29349e-08
-1.206e-06
-1.5391e-08
-1.54956e-06
-7.83487e-09
-1.55089e-06
-3.22743e-10
-1.5515e-06
7.18167e-09
-1.55153e-06
1.47146e-08
-1.55095e-06
2.22164e-08
-1.54966e-06
1.11091e-08
-1.20472e-06
-9.06876e-08
2.70749e-10
-9.17416e-09
-8.38833e-08
2.34354e-10
-1.88982e-08
-1.19848e-06
-1.27443e-08
-1.55571e-06
-6.47475e-09
-1.55716e-06
-2.43639e-10
-1.55774e-06
5.98134e-09
-1.55775e-06
1.22326e-08
-1.5572e-06
1.83508e-08
-1.55578e-06
8.93744e-09
-1.19745e-06
-8.32788e-08
2.26543e-10
-7.0668e-09
-7.82677e-08
1.96853e-10
-1.47198e-08
-1.19295e-06
-1.00618e-08
-1.56037e-06
-5.10663e-09
-1.56211e-06
-1.83842e-10
-1.56266e-06
4.7343e-09
-1.56267e-06
9.67564e-09
-1.56215e-06
1.43017e-08
-1.5604e-06
6.89594e-09
-1.19212e-06
-7.78083e-08
1.91547e-10
-5.08291e-09
-7.44889e-08
1.64733e-10
-1.03556e-08
-1.18981e-06
-7.35862e-09
-1.56337e-06
-3.73553e-09
-1.56574e-06
-1.38501e-10
-1.56626e-06
3.45512e-09
-1.56626e-06
7.06807e-09
-1.56576e-06
1.00245e-08
-1.56336e-06
4.95948e-09
-1.18914e-06
-7.41213e-08
1.61084e-10
-3.18639e-09
-7.2589e-08
1.32719e-10
-6.21925e-09
-1.18877e-06
-4.6423e-09
-1.565e-06
-2.36338e-09
-1.56802e-06
-1.05814e-10
-1.56851e-06
2.1493e-09
-1.56852e-06
4.4209e-09
-1.56803e-06
6.00912e-09
-1.565e-06
3.09622e-09
-1.18817e-06
-7.22779e-08
1.29671e-10
-1.33033e-09
-7.24189e-08
7.40989e-11
-2.5747e-09
-1.1895e-06
-1.92239e-09
-1.56566e-06
-9.93571e-10
-1.56895e-06
-8.30499e-11
-1.56942e-06
8.25737e-10
-1.56943e-06
1.74949e-09
-1.56895e-06
2.4126e-09
-1.56567e-06
1.26297e-09
-1.18895e-06
-7.21396e-08
7.08836e-11
4.97357e-10
-7.40005e-08
-2.35721e-20
1.18038e-09
-1.19196e-06
7.90772e-10
-1.56527e-06
3.70083e-10
-1.56852e-06
-6.7198e-11
-1.56899e-06
-5.05683e-10
-1.56899e-06
-9.2992e-10
-1.56853e-06
-1.32522e-09
-1.56527e-06
-5.46738e-10
-1.19146e-06
-7.37432e-08
-2.47361e-20
2.3039e-09
-7.73468e-08
-2.16434e-20
5.22878e-09
-1.19664e-06
3.48868e-09
-1.56353e-06
1.72326e-09
-1.56676e-06
-5.57329e-11
-1.56721e-06
-1.83553e-09
-1.56721e-06
-3.60329e-09
-1.56676e-06
-5.34702e-09
-1.56352e-06
-2.3423e-09
-1.19618e-06
-7.71065e-08
-2.65226e-20
4.15424e-09
-8.25019e-08
-2.27473e-20
9.2329e-09
-1.20336e-06
6.15574e-09
-1.56045e-06
3.05956e-09
-1.56366e-06
-4.69698e-11
-1.5641e-06
-3.15404e-09
-1.5641e-06
-6.25177e-09
-1.56366e-06
-9.33123e-09
-1.56044e-06
-4.18448e-09
-1.20292e-06
-8.22627e-08
-4.01791e-20
6.08819e-09
-8.95775e-08
-1.36947e-20
1.3169e-08
-1.21199e-06
8.77639e-09
-1.55605e-06
4.37162e-09
-1.55926e-06
-3.99727e-11
-1.55969e-06
-4.45196e-09
-1.55969e-06
-8.85781e-09
-1.55926e-06
-1.3252e-08
-1.55604e-06
-6.11186e-09
-1.21156e-06
-8.93349e-08
-5.26882e-20
8.12559e-09
-9.86683e-08
-4.25813e-21
1.70123e-08
-1.22232e-06
1.13342e-08
-1.55037e-06
5.65141e-09
-1.55358e-06
-3.4301e-11
-1.554e-06
-5.72033e-09
-1.554e-06
-1.1404e-08
-1.55358e-06
-1.70834e-08
-1.55036e-06
-8.14411e-09
-1.22189e-06
-9.84149e-08
-7.03979e-20
1.02967e-08
-1.09921e-07
-1.52934e-21
2.07385e-08
-1.2341e-06
1.38129e-08
-1.54344e-06
6.89091e-09
-1.54665e-06
-2.97599e-11
-1.54708e-06
-6.95073e-09
-1.54708e-06
-1.38736e-08
-1.54665e-06
-2.08004e-08
-1.54343e-06
-1.03108e-08
-1.23367e-06
-1.09649e-07
-9.19831e-20
1.26303e-08
-1.23502e-07
-2.24863e-21
2.43315e-08
-1.24704e-06
1.62019e-08
-1.53531e-06
8.08481e-09
-1.53854e-06
-2.6218e-11
-1.53897e-06
-8.13757e-09
-1.53897e-06
-1.62555e-08
-1.53853e-06
-2.43865e-08
-1.5353e-06
-1.26405e-08
-1.24661e-06
-1.23205e-07
-1.17443e-19
1.51618e-08
-1.39615e-07
-4.59212e-21
2.77873e-08
-1.2608e-06
1.84982e-08
-1.52602e-06
9.23179e-09
-1.52927e-06
-2.35308e-11
-1.52972e-06
-9.27918e-09
-1.52972e-06
-1.85466e-08
-1.52927e-06
-2.78371e-08
-1.52601e-06
-1.51683e-08
-1.26036e-06
-1.39286e-07
-1.43052e-19
1.79343e-08
-1.58506e-07
-7.68764e-21
3.10686e-08
-1.27496e-06
2.07081e-08
-1.51566e-06
1.03349e-08
-1.5189e-06
-2.15935e-11
-1.51936e-06
-1.03784e-08
-1.51936e-06
-2.07526e-08
-1.51889e-06
-3.11146e-08
-1.51564e-06
-1.79373e-08
-1.27451e-06
-1.58137e-07
-1.62283e-19
2.10005e-08
-1.80468e-07
-1.10568e-20
3.42293e-08
-1.28911e-06
2.28455e-08
-1.50427e-06
1.14012e-08
-1.50745e-06
-2.03278e-11
-1.50794e-06
-1.14422e-08
-1.50794e-06
-2.28876e-08
-1.50745e-06
-3.42734e-08
-1.50426e-06
-2.1e-08
-1.28865e-06
-1.80049e-07
-1.69283e-19
2.44237e-08
-2.05852e-07
-1.49723e-20
3.73561e-08
-1.30285e-06
2.49299e-08
-1.49185e-06
1.24405e-08
-1.49496e-06
-1.97629e-11
-1.49548e-06
-1.24804e-08
-1.49548e-06
-2.4971e-08
-1.49496e-06
-3.73993e-08
-1.49183e-06
-2.44198e-08
-1.30239e-06
-2.05375e-07
-1.63315e-19
2.82781e-08
-2.35082e-07
-1.79702e-20
4.04131e-08
-1.31567e-06
2.6984e-08
-1.47842e-06
1.3464e-08
-1.48144e-06
-2.00284e-11
-1.48199e-06
-1.35045e-08
-1.48199e-06
-2.70258e-08
-1.48144e-06
-4.04571e-08
-1.4784e-06
-2.82713e-08
-1.31522e-06
-2.34538e-07
-1.43616e-19
3.26482e-08
-2.68656e-07
-1.72473e-20
4.34751e-08
-1.32706e-06
2.90316e-08
-1.46398e-06
1.44834e-08
-1.4669e-06
-2.13547e-11
-1.46749e-06
-1.45266e-08
-1.46749e-06
-2.90763e-08
-1.46689e-06
-4.35223e-08
-1.46396e-06
-3.26398e-08
-1.32662e-06
-2.68042e-07
-1.08183e-19
3.76283e-08
-3.07166e-07
-1.73159e-20
4.6578e-08
-1.33645e-06
3.1097e-08
-1.4485e-06
1.55104e-08
-1.45131e-06
-2.40581e-11
-1.45196e-06
-1.55591e-08
-1.45195e-06
-3.11474e-08
-1.4513e-06
-4.66311e-08
-1.44847e-06
-3.76204e-08
-1.33604e-06
-3.06479e-07
-1.05222e-19
4.33193e-08
-3.51299e-07
-2.19927e-20
4.97595e-08
-1.34322e-06
3.32057e-08
-1.43194e-06
1.65583e-08
-1.43466e-06
-2.8515e-11
-1.43537e-06
-1.6616e-08
-1.43536e-06
-3.32654e-08
-1.43465e-06
-4.9822e-08
-1.43192e-06
-4.33152e-08
-1.34285e-06
-3.50544e-07
-1.36649e-19
4.98218e-08
-4.01842e-07
-2.55803e-20
5.306e-08
-1.34669e-06
3.53878e-08
-1.41427e-06
1.76423e-08
-1.41692e-06
-3.51404e-11
-1.41769e-06
-1.77133e-08
-1.41769e-06
-3.54609e-08
-1.4169e-06
-5.31361e-08
-1.41424e-06
-4.98268e-08
-1.34637e-06
-4.01032e-07
-1.73491e-19
5.72119e-08
-4.59667e-07
-2.75946e-20
5.65134e-08
-1.34614e-06
3.76683e-08
-1.39543e-06
1.87748e-08
-1.39802e-06
-4.42928e-11
-1.39887e-06
-1.88641e-08
-1.39887e-06
-3.77597e-08
-1.39801e-06
-5.66075e-08
-1.39539e-06
-5.72327e-08
-1.34587e-06
-4.58818e-07
-2.12312e-19
6.54798e-08
-5.25646e-07
-2.78923e-20
6.0102e-08
-1.34085e-06
4.00344e-08
-1.37536e-06
1.99455e-08
-1.37793e-06
-5.62449e-11
-1.37887e-06
-2.00584e-08
-1.37886e-06
-4.01489e-08
-1.37791e-06
-6.02183e-08
-1.37532e-06
-6.55244e-08
-1.34064e-06
-5.24784e-07
-2.42769e-19
7.43845e-08
-6.00433e-07
-2.8264e-20
6.36728e-08
-1.33018e-06
4.23535e-08
-1.35404e-06
2.10727e-08
-1.35665e-06
-7.07072e-11
-1.35773e-06
-2.1214e-08
-1.35772e-06
-4.24946e-08
-1.35663e-06
-6.38132e-08
-1.35401e-06
-7.44589e-08
-1.33004e-06
-5.99586e-07
-2.40047e-19
8.31748e-08
-6.83951e-07
-2.65022e-20
6.67005e-08
-1.31372e-06
4.42114e-08
-1.33155e-06
2.19164e-08
-1.33436e-06
-8.56156e-11
-1.33572e-06
-2.20867e-08
-1.33572e-06
-4.4379e-08
-1.33434e-06
-6.68626e-08
-1.33152e-06
-8.32796e-08
-1.31363e-06
-6.83145e-07
-1.77868e-19
8.7787e-08
-7.72055e-07
-2.02688e-20
6.81451e-08
-1.2941e-06
4.47944e-08
-1.3082e-06
2.20505e-08
-1.31161e-06
-9.59333e-11
-1.31358e-06
-2.2241e-08
-1.31357e-06
-4.49803e-08
-1.3116e-06
-6.83206e-08
-1.30818e-06
-8.79271e-08
-1.29404e-06
-7.71326e-07
-8.37465e-20
8.74227e-08
-8.59789e-07
-1.01255e-20
6.63156e-08
-1.27299e-06
4.30259e-08
-1.28491e-06
2.11148e-08
-1.2897e-06
-9.57123e-11
-1.29237e-06
-2.13055e-08
-1.29236e-06
-4.32127e-08
-1.2897e-06
-6.64921e-08
-1.2849e-06
-8.75737e-08
-1.27296e-06
-8.59148e-07
-2.33612e-20
8.05815e-08
-9.4065e-07
-2.16973e-21
5.89313e-08
-1.25134e-06
3.82506e-08
-1.26423e-06
1.94441e-08
-1.2709e-06
-8.44327e-11
-1.27284e-06
-1.96129e-08
-1.27284e-06
-3.84168e-08
-1.27089e-06
-5.90921e-08
-1.26423e-06
-8.07309e-08
-1.25132e-06
-9.40104e-07
-3.1026e-21
6.33409e-08
-1.00421e-06