/*--------------------------------*- C++ -*----------------------------------*\
  =========                 |
  \\      /  F ield         | OpenFOAM: The Open Source CFD Toolbox
   \\    /   O peration     | Website:  https://openfoam.org
    \\  /    A nd           | Version:  8
     \\/     M anipulation  |
\*---------------------------------------------------------------------------*/
FoamFile
{
    version     2.0;
    format      ascii;
    class       volScalarField;
    location    "1";
    object      epsilon;
}
// * * * * * * * * * * * * * * * * * * * * * * * * * * * * * * * * * * * * * //

dimensions      [0 2 -3 0 0 0 0];

internalField   nonuniform List<scalar> 
9150
(
0.0314714
0.0125764
0.00321552
0.00110443
0.000693153
0.000693153
0.00110444
0.00321553
0.0125764
0.0314714
0.0303734
0.00887436
0.0018255
0.000738595
0.000536325
0.000536325
0.000738595
0.0018255
0.00887437
0.0303733
0.0285744
0.00706792
0.00119985
0.000619608
0.00048602
0.00048602
0.000619608
0.00119985
0.00706792
0.0285744
0.026636
0.00613026
0.000913302
0.000584546
0.000471504
0.000471504
0.000584546
0.000913303
0.00613026
0.026636
0.0246259
0.00573312
0.000769502
0.000577605
0.000470131
0.000470131
0.000577605
0.000769502
0.00573312
0.0246259
0.125759
0.0545848
0.0262836
0.01815
0.0151559
0.0151558
0.0181497
0.026283
0.0545835
0.125759
0.07668
0.0235006
0.014794
0.0113726
0.00949331
0.00949327
0.0113725
0.0147938
0.0235004
0.0766799
0.0556318
0.0180845
0.00830017
0.00580877
0.00467647
0.00467646
0.00580874
0.00830011
0.0180845
0.0556318
0.0427243
0.0153784
0.00508568
0.00284953
0.00211723
0.00211723
0.00284952
0.00508567
0.0153784
0.0427243
0.0358085
0.013836
0.00367727
0.00156534
0.00106186
0.00106186
0.00156534
0.00367727
0.0138361
0.0358085
1.86792
0.201324
0.0572515
0.0264891
0.0185334
0.0185348
0.0264983
0.057302
0.201734
1.87084
0.2862
0.120954
0.0509556
0.0259126
0.018668
0.0186685
0.0259141
0.0509597
0.120984
0.286204
0.239711
0.106838
0.0504483
0.0257519
0.0188522
0.0188522
0.0257523
0.050449
0.106846
0.239706
0.200434
0.0955743
0.0499239
0.0255477
0.019032
0.0190318
0.0255475
0.0499235
0.0955743
0.200432
0.158859
0.0900204
0.0458988
0.0241928
0.0186011
0.0186009
0.0241924
0.0458979
0.0900182
0.158858
381.912
384.866
386.575
387.271
387.208
386.815
386.107
384.621
382.115
378.371
157.473
158.556
159.263
159.642
159.733
159.568
159.151
158.448
157.418
156.016
118.565
119.22
119.656
119.892
119.941
119.809
119.497
119
118.302
117.386
106.043
106.399
106.623
106.723
106.708
106.581
106.342
105.986
105.506
104.89
102.237
102.311
102.326
102.287
102.201
102.069
101.89
101.661
101.376
101.026
102.715
102.503
102.304
102.122
101.96
101.818
101.695
101.589
101.495
101.406
105.73
105.23
104.816
104.49
104.25
104.097
104.03
104.045
104.14
104.313
110.361
109.583
108.962
108.496
108.183
108.022
108.01
108.145
108.425
108.848
116.041
115.002
114.187
113.592
113.213
113.048
113.093
113.346
113.805
114.465
122.401
121.117
120.121
119.407
118.97
118.807
118.915
119.289
119.928
120.827
129.188
127.673
126.505
125.679
125.19
125.035
125.211
125.715
126.545
127.699
136.233
134.484
133.144
132.208
131.67
131.528
131.78
132.423
133.459
134.889
143.395
141.397
139.878
138.828
138.243
138.118
138.451
139.243
140.498
142.222
150.521
148.263
146.56
145.398
144.767
144.661
145.08
146.026
147.505
149.528
157.449
154.939
153.06
151.792
151.121
151.039
151.544
152.641
154.34
156.657
164.033
161.301
159.27
157.912
157.211
157.156
157.747
158.989
160.894
163.485
170.171
167.265
165.114
163.689
162.97
162.947
163.619
164.993
167.085
169.922
175.817
172.787
170.554
169.087
168.364
168.376
169.122
170.61
172.861
175.904
180.97
177.868
175.59
174.104
173.39
173.438
174.248
175.829
178.204
181.406
185.672
182.545
180.255
178.773
178.078
178.161
179.022
180.673
183.137
186.447
190.002
186.889
184.616
183.153
182.483
182.598
183.499
185.198
187.716
191.088
194.068
190.995
188.756
187.324
186.682
186.825
187.753
189.479
192.025
195.422
197.987
194.968
192.772
191.376
190.764
190.929
191.874
193.611
196.161
199.556
201.869
198.911
196.766
195.41
194.825
195.007
195.959
197.692
200.228
203.599
205.811
202.927
200.842
199.53
198.974
199.168
200.115
201.828
204.33
207.654
209.906
207.121
205.114
203.856
203.331
203.532
204.462
206.135
208.575
211.818
214.275
211.627
209.722
208.532
208.041
208.243
209.142
210.751
213.093
216.206
219.097
216.624
214.843
213.732
213.278
213.477
214.332
215.854
218.063
220.99
224.629
222.347
220.696
219.664
219.245
219.436
220.242
221.668
223.727
226.437
231.189
229.065
227.516
226.542
226.147
226.331
227.096
228.443
230.375
232.893
239.09
237.03
235.514
234.555
234.163
234.341
235.092
236.41
238.288
240.712
248.553
246.413
244.829
243.821
243.404
243.583
244.359
245.727
247.671
250.168
259.64
257.261
255.495
254.366
253.89
254.076
254.925
256.431
258.582
261.355
272.314
269.515
267.445
266.12
265.551
265.746
266.706
268.432
270.918
274.155
286.318
282.974
280.51
278.933
278.243
278.445
279.541
281.536
284.439
288.252
301.39
297.388
294.476
292.616
291.791
291.996
293.233
295.516
298.875
303.361
316.857
312.386
309.102
306.989
306.038
306.241
307.603
310.131
313.84
318.745
333.102
328.056
324.364
321.989
320.909
321.116
322.611
325.405
329.52
334.991
349.814
344.255
340.178
337.55
336.349
336.566
338.202
341.271
345.801
351.839
367.118
361.018
356.544
353.656
352.331
352.56
354.345
357.696
362.64
369.21
385.022
378.364
373.468
370.3
368.843
369.089
371.042
374.716
380.136
387.337
403.697
396.363
390.965
387.467
385.853
386.115
388.261
392.308
398.288
406.243
423.118
414.976
408.979
405.088
403.281
403.551
405.908
410.375
416.995
425.826
443.16
434.077
427.386
423.036
420.995
421.255
423.829
428.749
436.073
445.883
463.613
453.472
446.006
441.139
438.827
439.052
441.83
447.204
455.255
466.101
484.176
472.907
464.624
459.213
456.605
456.77
459.718
465.502
474.221
486.03
504.427
492.091
483.035
477.107
474.209
474.299
477.377
483.498
492.765
505.346
524.08
510.851
501.139
494.767
491.622
491.646
494.834
501.233
510.952
524.169
543.212
529.244
518.999
512.277
508.947
508.94
512.24
518.884
528.968
542.661
561.908
547.422
536.789
529.818
526.381
526.406
529.869
536.792
547.241
561.339
580.695
565.776
554.817
547.65
544.169
544.308
548.044
555.387
566.384
581.13
600.222
584.756
573.391
565.998
562.491
562.823
566.974
574.951
586.788
602.541
620.971
604.659
592.675
584.928
581.359
581.939
586.662
595.546
608.639
626.017
643.24
625.548
612.583
604.261
600.532
601.375
606.798
616.834
631.551
651.058
666.607
646.985
632.652
623.507
619.49
620.586
626.81
638.206
654.852
676.848
690.133
668.164
652.115
641.9
637.463
638.79
645.913
658.907
677.892
703.027
713.345
688.26
670.032
658.469
653.458
654.966
663.036
677.781
699.407
728.218
734.006
705.629
685.046
671.99
666.302
667.932
676.923
693.414
717.632
749.869
750.544
718.889
695.879
681.251
674.82
676.52
686.413
704.694
731.705
767.933
762.619
727.041
701.376
685.093
677.859
679.543
690.201
710.074
739.597
779.383
766.465
727.783
699.968
682.314
674.387
676.007
687.229
708.351
739.931
782.817
760.426
719.969
690.82
672.263
663.839
665.35
676.848
698.636
731.284
775.626
745.378
703.947
674.068
654.999
646.26
647.636
659.172
681.173
714.21
759.118
721.969
680.265
650.188
630.962
622.081
623.315
634.704
656.557
689.455
734.251
690.863
649.575
619.838
600.817
591.976
593.072
604.14
625.498
657.756
701.828
652.409
612.569
583.844
565.437
556.833
557.796
568.356
588.815
619.752
662.033
608.309
570.681
543.48
526.006
517.796
518.634
528.547
547.805
576.923
616.654
560.849
525.666
500.213
483.84
476.118
476.845
486.045
503.966
531.081
568.087
511.375
478.843
455.3
440.141
432.971
433.601
442.052
458.553
483.541
517.661
461.05
431.353
409.847
395.987
389.414
389.958
397.638
412.659
435.417
466.493
411.014
384.27
364.871
352.351
346.399
346.866
353.771
367.292
387.774
415.715
362.511
338.631
321.292
310.091
304.755
305.154
311.304
323.365
341.637
366.557
316.356
295.192
279.823
269.89
265.151
265.489
270.917
281.579
297.743
319.798
273.04
254.465
240.982
232.267
228.102
228.384
233.123
242.448
256.598
275.92
232.913
216.83
205.159
197.613
194.002
194.233
198.316
206.362
218.583
235.283
196.3
182.605
172.663
166.23
163.145
163.331
166.795
173.631
184.018
198.213
163.522
152.059
143.725
138.326
135.731
135.877
138.769
144.485
153.169
165.03
134.816
125.356
118.467
113.996
111.841
111.952
114.334
119.048
126.207
135.972
110.236
102.505
96.8632
93.1944
91.4202
91.5026
93.4455
97.2949
103.138
111.097
89.627
83.3361
78.7351
75.7371
74.2821
74.3415
75.9182
79.0468
83.7931
90.2498
72.656
67.5319
63.7764
61.324
60.1295
60.1711
61.4511
63.9955
67.8536
73.095
58.8811
54.6832
51.5999
49.5819
48.5953
48.6238
49.669
51.7502
54.9044
59.1837
47.8169
44.3431
41.7856
40.1079
39.2846
39.3037
40.1665
41.8869
44.4926
48.0222
38.9866
36.0723
33.9211
32.5065
31.8099
31.8226
32.5455
33.9887
36.1725
39.1248
31.9548
29.4689
27.6288
26.4155
25.816
25.8245
26.4415
27.6741
29.5365
32.0485
26.3443
24.1843
22.5801
21.5194
20.9937
20.9995
21.5371
22.611
24.2308
26.4095
21.8407
19.927
18.5006
17.5547
17.0846
17.0887
17.5673
18.5227
19.9604
21.8879
18.1888
16.461
15.1683
14.3085
13.8802
13.8833
14.3181
15.1852
16.4865
18.2249
15.1864
13.6002
12.4088
11.614
11.2172
11.2199
11.6222
12.423
13.6212
15.2155
12.6761
11.201
10.0888
9.34475
8.97276
8.97557
9.35317
10.1028
11.2206
12.7016
10.5377
9.15583
8.11041
7.40913
7.05821
7.06168
7.41937
8.12694
9.1778
10.5639
8.68183
7.3876
6.40554
5.74496
5.41424
5.41891
5.75875
6.42773
7.41674
8.7155
7.04516
5.84452
4.93125
4.31478
4.00581
4.012
4.33325
4.9616
5.88558
7.09441
5.58643
4.49636
3.6654
3.1011
2.817
2.82446
3.12378
3.70393
4.55104
5.65657
4.28408
3.33074
2.60181
2.1006
1.84488
1.85271
2.1249
2.6447
3.39484
4.37199
3.13519
2.3498
1.74385
1.31637
1.0916
1.09846
1.33826
1.78424
2.41349
3.22809
2.15729
1.56591
1.09476
0.746938
0.554995
0.559722
0.762763
1.12583
1.61807
2.23813
1.38817
0.99297
0.643395
0.373317
0.221201
0.223466
0.381737
0.661847
1.0268
1.44414
0.880642
0.630844
0.350871
0.153981
0.061919
0.0624687
0.156663
0.35831
0.646838
0.909138
0.76186
0.435594
0.157986
0.0482243
0.0212783
0.0213123
0.0485187
0.15935
0.439903
0.770749
372.694
365.061
355.335
343.365
329.12
312.715
294.43
274.722
254.491
236.462
219.472
203.208
187.654
172.879
158.949
145.901
133.74
122.441
111.961
102.247
93.2449
84.8975
77.1525
69.9614
63.2796
57.0665
51.2847
45.8996
40.8785
36.1906
31.8055
27.6924
23.8174
20.1214
16.5264
13.1613
9.88293
6.75878
4.0087
1.97606
154.083
151.511
148.355
144.599
140.256
135.375
130.042
124.388
118.635
113.18
107.718
102.113
96.3422
90.4515
84.5207
78.6371
72.8805
67.3149
61.9867
56.926
52.149
47.6615
43.4613
39.5407
35.8885
32.491
29.3332
26.3996
23.6743
21.1417
18.7868
16.5955
14.5549
12.6545
10.894
9.29282
7.8873
6.79215
6.38638
10.0135
116.161
114.551
112.601
110.303
107.661
104.701
101.468
98.0209
94.4305
90.7792
87.0051
83.0676
78.9611
74.7123
70.3681
65.9855
61.6221
57.3308
53.1558
49.1319
45.2841
41.6291
38.1762
34.929
31.8867
29.0452
26.398
23.9376
21.6554
19.543
17.5928
15.799
14.159
12.6758
11.3634
10.2573
9.43826
9.11821
10.0977
19.9673
104.075
103.003
101.694
100.122
98.2654
96.1127
93.6637
90.9328
87.9594
84.7928
81.4373
77.9026
74.2096
70.3918
66.4923
62.5584
58.636
54.7674
50.9889
47.3305
43.8153
40.4602
37.2766
34.271
31.446
28.8016
26.3352
24.0432
21.9213
19.9655
18.1727
16.5424
15.0786
13.7926
12.7101
11.8861
11.4442
11.7188
14.0352
30.2282
100.57
99.9669
99.2084
98.2492
97.029
95.4772
93.522
91.1209
88.304
85.1521
81.7464
78.148
74.4065
70.5662
66.6713
62.7667
58.8945
55.0912
51.3874
47.8076
44.3711
41.0919
37.98
35.0413
32.2789
29.6935
27.2841
25.0487
22.9852
21.0919
19.3689
17.8193
16.4516
15.2842
14.3535
13.7342
13.5939
14.3905
17.9526
40.4457
101.308
101.181
100.998
100.702
100.199
99.3635
98.0131
95.9333
92.9443
89.4474
85.6892
81.7289
77.6297
73.4656
69.2919
65.153
61.0867
57.1255
53.2947
49.6135
46.0961
42.7525
39.5892
36.6099
33.8158
31.2068
28.7814
26.538
24.4748
22.5915
20.8898
19.3753
18.0604
16.9693
16.1487
15.6928
15.8131
17.0878
21.8242
50.2699
104.573
104.931
105.349
105.797
106.246
106.606
106.045
103.69
100.54
96.7847
92.5848
88.0224
83.2706
78.4998
73.7864
69.1826
64.7206
60.4233
56.3081
52.3868
48.6668
45.1521
41.8444
38.7432
35.8469
33.1526
30.6576
28.3587
26.2541
24.3434
22.6292
21.1187
19.8276
18.7853
18.0486
17.7311
18.0875
19.8142
25.6835
59.8805
109.446
110.25
111.21
112.329
113.623
114.894
114.823
112.627
109.368
105.482
101.207
96.4193
91.018
85.3598
79.8505
74.5696
69.5329
64.7473
60.2161
55.9399
51.9171
48.144
44.6157
41.3265
38.2703
35.4408
32.8324
30.4401
28.2606
26.293
24.5399
23.01
21.7212
20.7083
20.0376
19.8419
20.4187
22.5805
29.5526
69.3375
115.376
116.577
117.999
119.641
121.486
123.204
123.748
122.174
118.768
114.336
109.622
104.84
99.6296
93.5522
87.1693
81.0578
75.3101
69.9159
64.8629
60.1389
55.7317
51.6286
47.8172
44.2853
41.0215
38.0153
35.2574
32.7402
30.4584
28.4098
26.5969
25.0288
23.7261
22.7281
22.1106
22.0254
22.8124
25.3978
33.4507
78.6981
122.053
123.662
125.573
127.783
130.274
132.739
134.194
133.231
129.662
124.503
118.885
113.467
108.149
102.325
95.4256
88.4035
81.8543
75.7643
70.1096
64.8659
60.0103
55.5207
51.3764
47.5581
44.0484
40.8318
37.895
35.2273
32.8209
30.672
28.7823
27.1616
25.8323
24.8385
24.265
24.2826
25.2729
28.2749
37.3941
88.0218
129.266
131.328
133.798
136.687
139.986
143.465
146.057
145.697
141.89
135.921
129.269
122.936
117.132
111.272
104.28
96.4198
88.9939
82.1404
75.8234
70.0063
64.6552
59.7373
55.223
51.0853
47.3006
43.848
40.7098
37.8718
35.3235
33.0593
31.0799
29.3954
28.0301
27.0326
26.4968
26.6121
27.8018
31.2168
41.3965
97.3736
136.829
139.39
142.478
146.108
150.28
154.937
158.999
159.367
155.222
148.315
140.551
133.205
126.68
120.468
113.435
104.903
96.5392
88.8762
81.8605
75.4392
69.5641
64.192
59.284
54.8055
50.7259
47.0196
43.6645
40.6424
37.9401
35.5499
33.4716
31.7155
30.3076
29.3011
28.799
29.0092
30.3967
34.2243
45.4641
106.791
144.56
147.659
151.412
155.838
160.985
166.906
172.594
173.921
169.396
161.396
152.404
143.972
136.651
130.002
122.796
113.564
104.266
95.7889
88.0661
81.0309
74.6226
68.7871
63.4765
58.6484
54.2663
50.2985
46.7185
43.5048
40.6414
38.119
35.9363
34.1039
32.6497
31.6314
31.1615
31.4665
33.0535
37.2974
49.6049
116.294
152.275
155.926
160.363
165.617
171.776
178.962
186.368
188.837
183.795
174.573
164.296
154.793
146.717
139.657
132.207
122.207
111.979
102.701
94.2863
86.6498
79.7181
73.4263
67.7177
62.5429
57.8591
53.6299
49.8244
46.4181
43.3924
40.7363
38.448
36.5382
35.0372
34.0074
33.5709
33.9742
35.7685
40.4474
53.8741
126.098
159.8
163.985
169.081
175.129
182.209
190.44
199.42
203.302
197.459
186.968
175.518
165.106
156.431
149.044
141.304
130.529
119.436
109.417
100.358
92.1604
84.7365
78.0127
71.9247
66.4173
61.4427
56.9601
52.9353
49.3409
46.1563
43.3691
40.977
38.9914
37.4449
36.4049
36.0035
36.5074
38.512
43.6301
58.1811
135.971
166.999
171.678
177.382
184.175
192.158
201.445
211.607
215.983
209.413
197.973
185.629
174.493
165.338
157.691
149.625
138.171
126.381
115.742
106.13
97.4368
89.5716
82.455
76.0186
70.2029
64.9566
60.2359
56.004
52.2313
48.8955
45.9834
43.4923
41.4348
39.8458
38.7981
38.4337
39.0394
41.2553
46.8122
62.4853
145.865
173.766
178.89
185.149
192.646
201.526
211.947
222.85
226.362
219.43
207.558
194.593
182.818
173.177
165.261
156.849
144.932
132.665
121.552
111.491
102.382
94.1359
86.6748
79.9287
73.8362
68.3441
63.4065
58.9848
55.0479
51.5726
48.5449
45.9625
43.839
42.2122
41.1601
40.8351
41.544
43.9707
49.9639
66.7519
155.722
180.024
185.519
192.245
200.335
209.967
221.343
232.346
234.547
227.459
215.468
202.171
189.913
179.797
171.564
163.051
150.992
138.331
126.826
116.391
106.932
98.3638
90.608
83.5946
77.2613
71.5538
66.4249
61.8349
57.7517
54.1516
51.0206
48.3567
46.1752
44.5167
43.4648
43.1819
43.9948
46.6311
53.0555
70.9445
165.468
185.735
191.503
198.564
207.063
217.192
229.157
239.769
240.581
233.243
221.303
207.963
195.501
185.053
176.472
167.918
156.275
143.369
131.529
120.782
111.034
102.199
94.1995
86.9636
80.4288
74.5397
69.2486
64.515
60.3065
56.5993
53.3795
50.6461
48.4161
46.7332
45.6867
45.449
46.3666
49.2099
56.0572
75.0245
175.018
190.912
196.85
204.102
212.806
223.145
235.279
245.361
245.128
237.326
225.318
212.037
199.565
188.95
180.086
171.508
160.599
147.707
135.598
124.604
114.631
105.589
97.3995
89.9895
83.2956
77.262
71.8406
66.9909
62.6805
58.8859
55.5938
52.8045
50.5367
48.8379
47.8025
47.6134
48.6359
51.6819
58.94
78.9529
184.278
195.625
201.643
208.974
217.742
228.106
240.162
249.636
248.496
240.149
227.986
214.756
202.344
191.658
182.577
173.919
163.815
151.251
138.951
127.79
117.666
108.485
100.165
92.6334
85.8262
79.6878
74.1705
69.2342
64.847
60.9863
57.6397
54.8092
52.5156
50.8097
49.7918
49.6544
50.7812
54.0241
61.677
82.6921
193.153
199.982
206.015
213.343
222.083
232.377
244.249
253.029
250.994
242.052
229.674
216.479
204.161
193.486
184.316
175.668
166.023
153.797
141.479
130.273
120.093
110.85
102.466
94.8682
87.9956
81.7937
76.2159
71.2235
66.7858
62.881
59.4987
56.6422
54.3351
52.6315
51.6375
51.5547
52.7847
56.2167
64.2446
86.2077
201.55
204.104
210.109
217.386
226.042
236.202
247.874
255.917
252.8
243.177
230.567
217.427
205.25
194.657
185.478
176.863
167.45
155.444
143.212
132.057
121.906
112.675
104.289
96.681
89.7907
83.5665
77.964
72.946
68.4837
64.5572
61.1576
58.2906
55.9823
54.2905
53.3265
53.3011
54.6325
58.245
66.625
89.4727
209.38
208.111
214.064
221.271
229.829
239.841
251.242
258.319
254.014
243.709
230.888
217.822
205.819
195.364
186.228
177.589
168.179
156.27
144.199
133.176
123.127
113.973
105.643
98.0746
91.2107
85.0027
79.4088
74.3944
69.9326
66.0058
62.6073
59.745
57.4477
55.7771
54.8496
54.8848
56.3161
60.1012
68.8135
92.4911
216.664
212.106
217.987
225.124
233.618
243.584
254.594
259.933
254.646
243.85
230.874
217.858
206.001
195.69
186.613
177.883
168.219
156.336
144.503
133.68
123.795
114.773
106.55
99.0654
92.2672
86.1101
80.5552
75.5708
71.1325
67.2252
63.8444
61.0007
58.7256
57.0845
56.1991
56.2967
57.8257
61.7743
70.7972
95.2457
223.319
216.168
221.935
228.965
237.395
247.404
257.662
260.652
254.642
243.578
230.523
217.546
205.787
195.572
186.528
177.699
167.662
155.741
144.195
133.627
123.959
115.119
107.045
99.6823
92.9833
86.9066
81.4167
76.4851
72.0903
68.2196
64.8712
62.0581
59.8149
58.2102
57.3706
57.531
59.1528
63.2516
72.5538
97.6881
229.221
220.383
225.931
232.718
240.897
250.711
259.836
260.673
253.888
242.595
229.564
216.723
205.129
195.046
186.067
177.161
166.338
154.412
143.303
133.078
123.684
115.067
107.176
99.9654
93.3917
87.4186
82.0145
77.1541
72.8189
68.9989
65.6949
62.9223
60.7186
59.1556
58.3642
58.586
60.2937
64.5269
74.0739
99.8028
234.334
224.908
230.098
236.417
243.998
253.146
260.937
259.829
252.099
240.582
227.731
215.232
203.974
194.107
185.086
175.741
164.401
152.815
142.09
132.194
123.079
114.699
107.008
99.9652
93.5334
87.6796
82.3758
77.6
73.3365
69.5778
66.3272
63.6025
61.4438
59.9259
59.1835
59.4637
61.2493
65.5997
75.3551
101.585
238.643
230.038
234.757
240.386
246.959
254.804
260.924
258.276
249.601
237.911
225.345
213.291
202.439
192.819
183.789
173.929
162.352
151.075
140.672
131.077
122.231
114.087
106.601
99.7337
93.4521
87.7264
82.5318
77.849
73.6649
69.9746
66.7833
64.1114
62.0011
60.5297
59.8354
60.17
62.0242
66.4735
76.4004
103.037
242.14
236.196
240.443
245.263
250.505
256.678
260.482
256.081
246.816
235.158
222.946
211.308
200.767
191.298
182.238
171.534
159.916
149.087
139.056
129.776
121.202
113.294
106.012
99.3211
93.1918
87.5972
82.5154
77.9294
73.8286
70.21
67.0812
64.4643
62.4035
60.9784
60.3299
60.7134
62.6259
67.1554
77.2162
104.164
244.833
243.846
247.78
251.77
255.259
259.218
260.117
254.188
244.472
232.863
220.903
209.517
199.055
189.365
179.771
168.746
157.511
147.063
137.367
128.382
120.066
112.383
105.297
98.7775
92.7967
87.3309
82.3605
77.8708
73.8533
70.3069
67.2407
64.6785
62.6663
61.2855
60.6789
61.1048
63.0647
67.6551
77.8126
104.978
246.742
253.37
257.329
260.509
261.698
263.101
260.978
253.563
243.202
231.328
219.303
207.902
197.324
187.307
177.201
166.118
155.226
145.1
135.698
126.976
118.894
111.417
104.512
98.152
92.3103
86.9658
82.1011
77.7034
73.7658
70.2886
67.2825
64.7727
62.8063
61.4661
60.8964
61.3572
63.3529
67.985
78.2027
105.496
247.897
264.923
269.349
271.744
269.398
266.217
261.624
253.843
242.724
230.319
217.996
206.368
195.521
185.17
174.696
163.665
153.092
143.257
134.116
125.626
117.75
110.454
103.711
97.4917
91.7746
86.5397
81.7709
77.4572
73.5927
70.1792
67.2284
64.7664
62.8412
61.5366
60.9975
61.4851
63.5046
68.1593
78.402
105.736
248.341
278.375
283.727
285.306
278.76
271.156
263.928
254.687
242.48
229.631
217.083
205.206
194.013
183.28
172.369
161.444
151.187
141.615
132.697
124.401
116.696
109.552
102.942
96.8418
91.2301
86.0884
81.4022
77.1611
73.3603
70.0025
67.0999
64.6793
62.7893
61.5138
60.9983
61.5038
63.5351
68.1939
78.4282
105.723
248.13
293.264
299.636
301.463
291.556
279.787
269.088
257.081
243.571
230.089
217.109
204.788
193.051
181.722
170.521
159.767
149.701
140.301
131.536
123.378
115.796
108.763
102.253
96.244
90.7139
85.6457
81.0252
76.8426
73.0937
69.7813
66.9181
64.5309
62.6687
61.4152
60.9154
61.4297
63.4609
68.1061
78.3008
105.482
247.311
309.432
317.677
319.723
306.151
290.33
275.939
261.251
246.157
231.664
217.916
204.94
192.614
180.779
169.418
158.721
148.723
139.395
130.703
122.615
115.101
108.134
101.686
95.7345
90.2589
85.2412
80.6671
76.5268
72.8159
69.5371
66.7029
64.3402
62.4973
61.2577
60.7656
61.2794
63.2989
67.9142
78.0415
105.042
245.972
325.232
333.545
338.225
323.047
302.041
283.352
266.379
249.969
234.218
219.483
205.749
192.823
180.592
169.085
158.328
148.292
138.941
130.239
122.153
114.649
107.697
101.27
95.3424
89.892
84.9
80.3514
76.2356
72.5475
69.2893
66.473
64.1247
62.2923
61.0582
60.5651
61.0696
63.0667
67.6373
77.6728
104.438
244.195
342.296
351.894
355.939
336.703
313.21
291.888
272.456
254.563
237.822
222.135
207.579
194.011
181.369
169.59
158.626
148.432
138.96
130.167
122.013
114.461
107.476
101.028
95.0887
89.6335
84.6419
80.0972
75.9874
72.3063
69.055
66.2447
63.9006
62.0693
60.8321
60.3299
60.8163
62.7812
67.2943
77.2176
103.702
242.069
359.931
370.636
373.781
350.856
325.101
301.623
280.195
260.577
242.534
225.884
210.486
196.25
183.078
170.882
159.586
149.127
139.444
130.485
122.199
114.545
107.48
100.972
94.9865
89.4974
84.4812
79.9188
75.7965
72.1066
68.8486
66.0324
63.6819
61.8425
60.5939
60.0747
60.5351
62.4592
66.9041
76.6989
102.868
239.681
377.968
389.412
391.868
366.055
337.956
312.406
289.138
267.907
248.496
230.711
214.387
199.384
185.578
172.861
161.139
150.331
140.365
131.174
122.701
114.895
107.71
101.104
95.0412
89.4909
84.4264
79.8259
75.6735
71.9594
68.6814
65.8477
63.4809
61.6246
60.3565
59.813
60.2406
62.1167
66.4852
76.1396
101.968
237.116
396.932
409.465
410.764
381.828
351.532
323.993
298.948
276.15
255.375
236.419
219.098
203.251
188.735
175.423
163.206
151.985
141.676
132.202
123.496
115.498
108.155
101.419
95.2516
89.6155
84.4811
79.8237
75.6248
71.8721
68.5617
65.6998
63.3072
61.4257
60.1311
59.5572
59.9464
61.7696
66.0566
75.5643
101.039
234.458
416.856
430.734
430.517
398.289
365.767
336.233
309.413
285.051
262.906
242.758
224.408
207.677
192.406
178.454
165.694
154.017
143.323
133.527
124.551
116.328
108.797
101.906
95.6093
89.8663
84.6433
79.9126
75.6525
71.8485
68.4944
65.5946
63.1677
61.2539
59.9267
59.3173
59.6645
61.4328
65.6392
75.0079
100.158
231.937
437.632
453.103
451.079
415.398
380.553
348.967
320.346
294.406
270.881
249.531
230.138
212.505
196.457
181.839
168.51
156.347
145.242
135.096
125.825
117.352
109.612
102.545
96.0997
90.2326
84.9055
80.0874
75.7538
71.8875
68.48
65.5335
63.065
61.1124
59.7473
59.0982
59.4001
61.1115
65.2369
74.4685
99.3006
229.465
459.051
476.371
472.214
432.942
395.672
361.981
331.537
304.012
279.109
256.56
236.126
217.591
200.763
185.471
171.562
158.901
147.368
136.857
127.275
118.537
110.571
103.312
96.705
90.7005
85.2572
80.3406
75.9232
71.9854
68.5163
65.5161
62.9995
61.0028
59.5951
58.9025
59.1563
60.8089
64.8529
73.9491
98.4701
227.078
480.759
500.202
493.415
450.491
410.768
374.978
342.73
313.647
287.394
263.675
242.223
222.804
205.209
189.251
174.765
161.605
149.641
138.759
128.857
119.845
111.644
104.184
97.4055
91.2543
85.6857
80.6621
76.1531
72.1366
68.5993
65.5394
62.9698
60.9243
59.4704
58.7313
58.9349
60.5276
64.4906
73.4547
97.6772
224.815
502.086
523.532
513.763
467.481
425.402
387.611
353.648
323.086
295.552
270.718
248.296
228.031
209.696
193.093
178.045
164.396
152.007
140.755
130.533
121.244
112.803
105.138
98.181
91.8771
86.1772
81.0407
76.4344
72.3338
68.7235
65.5994
62.9726
60.8751
59.372
58.5842
58.7361
60.2688
64.1523
72.9894
96.9296
222.698
522.47
545.182
532.268
483.289
439.128
399.55
364.039
332.132
303.424
277.563
254.238
233.179
214.147
196.931
181.344
167.222
154.418
142.805
132.266
122.702
114.023
106.149
99.0123
92.5525
86.7177
81.4645
76.7572
72.5688
68.882
65.6906
63.0037
60.8516
59.2974
58.4595
58.5592
60.0323
63.8385
72.5548
96.2308
220.739
542.2
565.881
548.793
497.553
451.661
410.578
373.744
340.665
310.917
284.131
259.984
238.193
218.51
200.717
184.619
170.044
156.842
144.877
134.03
124.195
115.278
107.198
99.8812
93.2645
87.2934
81.9216
77.1111
72.8328
69.0672
65.8065
63.0577
60.8495
59.243
58.3543
58.4017
59.8162
63.548
72.15
95.5801
218.935
561.303
584.922
562.893
510.11
462.919
420.657
382.742
348.674
318.022
290.413
265.52
243.056
222.767
204.431
187.847
172.84
159.254
146.948
135.801
125.701
116.552
108.267
100.772
93.9986
87.891
82.4001
77.4857
73.1166
69.2712
65.9401
63.1286
60.8635
59.2042
58.2647
58.2604
59.6178
63.2783
71.7725
94.9741
217.269
580.372
602.259
574.778
521.182
473.133
429.991
391.2
356.285
324.83
296.473
270.889
247.793
226.93
208.074
191.024
175.6
161.641
149.005
137.564
127.204
117.827
109.341
101.669
94.741
88.498
82.8886
77.8705
73.4105
69.4854
66.0837
63.2094
60.8875
59.1757
58.1859
58.1309
59.433
63.0254
71.4183
94.4066
215.718
600.92
619.477
585.348
531.585
482.961
439.073
399.477
363.756
331.526
302.438
276.177
252.46
231.033
211.667
194.158
178.323
163.998
151.036
139.306
128.692
119.089
110.405
102.559
95.4788
89.102
83.3755
78.2549
73.705
69.7009
66.2295
63.293
60.915
59.1515
58.1125
58.0083
59.2572
62.7852
71.0834
93.873
214.254
623.501
638.82
598.28
543.288
493.558
448.629
408.051
371.411
338.33
308.46
281.487
257.126
235.119
215.233
197.26
181.012
166.32
153.034
141.018
130.151
120.326
111.447
103.429
96.1989
89.6909
83.8494
78.6282
73.9902
69.9086
66.3689
63.3716
60.9389
59.125
58.0383
57.8866
59.0848
62.5524
70.7633
93.3731
212.894
649.124
661.024
613.471
556.709
505.404
459.07
417.241
379.486
345.411
314.657
286.899
261.842
239.218
218.788
200.335
183.664
168.6
154.987
142.685
131.567
121.522
112.451
104.265
96.888
90.2517
84.2984
78.9793
74.2557
70.099
66.4931
63.437
60.9515
59.0892
57.9566
57.7594
58.9089
62.3183
70.445
92.8797
211.851
677.027
685.77
631.434
572.166
518.734
470.583
427.191
388.087
352.845
321.079
292.442
266.621
243.334
222.327
203.372
186.264
170.821
156.878
144.289
132.921
122.659
113.4
105.05
97.5309
90.7707
84.7095
79.2965
74.4908
70.2622
66.593
63.4809
60.9449
59.0365
57.8604
57.6197
58.7224
62.0742
70.1165
92.3948
210.828
705.987
712.266
651.892
589.482
533.437
483.092
437.848
397.172
360.593
327.688
298.079
271.427
247.429
225.813
206.336
188.78
172.952
158.677
145.802
134.189
123.716
114.274
105.767
98.1106
91.2325
85.0691
79.5674
74.6844
70.3883
66.6597
63.495
60.9117
58.96
57.7429
57.4614
58.5196
61.8157
69.7753
91.8948
209.619
736.408
740.548
673.899
608.075
549.122
496.315
448.991
406.563
368.507
334.359
303.703
276.168
251.424
229.177
209.166
191.157
174.945
160.343
147.19
135.339
124.663
115.047
106.391
98.6077
91.6199
85.362
79.7786
74.8249
70.4671
66.6843
63.4715
60.8449
58.8533
57.5981
57.2781
58.2937
61.5362
69.4123
91.3437
208.296
766.909
769.783
696.959
627.494
565.372
509.873
460.287
415.97
376.341
340.883
309.137
280.695
255.194
232.315
211.774
193.322
176.737
161.822
148.405
136.331
125.466
115.69
106.899
99.0001
91.9139
85.5718
79.9161
74.8999
70.4879
66.6576
63.4025
60.7377
58.7103
57.4204
57.0645
58.0395
61.2291
69.0197
90.7556
206.789
792.912
797.306
721.03
647.374
581.692
523.253
471.259
424.977
383.742
346.968
314.141
284.81
258.575
235.091
214.049
195.181
178.251
163.049
149.392
137.118
126.086
116.171
107.261
99.2635
92.0936
85.6806
79.9645
74.8965
70.4396
66.57
63.2798
60.5829
58.5252
57.205
56.8169
57.7544
60.8949
68.6072
90.1512
204.782
816.857
828.716
745.059
666.83
597.075
535.561
481.182
433.006
390.25
352.245
318.419
288.274
261.376
237.348
215.862
196.629
179.399
163.951
150.092
137.651
126.482
116.452
107.449
99.3726
92.1376
85.6701
79.908
74.801
70.3106
66.4116
63.095
60.3736
58.2919
56.947
56.5313
57.4352
60.5304
68.1719
89.5613
203.309
833.304
849.819
762.505
681.58
609.137
545.335
489.065
439.343
395.329
356.304
321.649
290.832
263.389
238.92
217.077
197.555
180.091
164.454
150.441
137.878
126.608
116.499
107.43
99.3018
92.0242
85.5219
79.7313
74.6005
70.0898
66.1729
62.84
60.1028
58.0047
56.6415
56.2035
57.0777
60.1285
67.6916
88.9045
202.177
841.62
863.292
774.304
691.55
617.255
551.872
494.271
443.445
398.528
358.77
323.524
292.232
264.411
239.64
217.558
197.847
180.235
164.483
150.381
137.748
126.426
116.276
107.178
99.027
91.7332
85.2191
79.4199
74.2827
69.7668
65.8454
62.5077
59.7646
57.6589
56.2848
55.8313
56.682
59.695
67.1901
88.251
201.011
836.265
861.835
777.281
696.087
620.993
554.735
496.365
444.91
399.491
359.341
323.79
292.265
264.266
239.364
217.185
197.408
179.75
163.969
149.852
137.214
125.893
115.75
106.663
98.5244
91.2444
84.7445
78.9592
73.8351
69.331
65.4196
62.0899
59.3523
57.2488
55.873
55.4122
56.2476
59.2316
66.6701
87.5976
199.826
820.533
851.931
776.332
694.673
620.754
553.725
495.007
443.404
397.931
357.775
322.248
290.764
262.819
237.978
215.866
196.158
178.571
162.859
148.81
136.237
124.979
114.895
105.862
97.7746
90.5414
84.0841
78.3372
73.2472
68.7732
64.8877
61.5796