/*--------------------------------*- C++ -*----------------------------------*\
  =========                 |
  \\      /  F ield         | OpenFOAM: The Open Source CFD Toolbox
   \\    /   O peration     | Website:  https://openfoam.org
    \\  /    A nd           | Version:  8
     \\/     M anipulation  |
\*---------------------------------------------------------------------------*/
FoamFile
{
    version     2.0;
    format      ascii;
    class       volScalarField;
    location    "1";
    object      k;
}
// * * * * * * * * * * * * * * * * * * * * * * * * * * * * * * * * * * * * * //

dimensions      [0 2 -2 0 0 0 0];

internalField   nonuniform List<scalar> 
9150
(
0.00183373
0.000950186
0.000509445
0.000372417
0.000305759
0.000305759
0.000372417
0.000509445
0.000950186
0.00183373
0.00179083
0.000755931
0.000433445
0.000321886
0.000260169
0.000260169
0.000321886
0.000433445
0.000755931
0.00179083
0.0017194
0.000660541
0.000401394
0.000299762
0.000242622
0.000242622
0.000299762
0.000401394
0.000660541
0.0017194
0.00164073
0.000610601
0.000388993
0.000291358
0.000236466
0.000236466
0.000291358
0.000388993
0.000610601
0.00164073
0.00155711
0.000589273
0.000384667
0.000288673
0.000234898
0.000234898
0.000288673
0.000384667
0.000589273
0.00155711
0.00288278
0.00272095
0.00222162
0.00218426
0.00209436
0.00209435
0.00218423
0.00222158
0.0027209
0.00288277
0.00231591
0.00155301
0.00148527
0.00161052
0.00154777
0.00154777
0.00161051
0.00148526
0.001553
0.00231591
0.00205639
0.00127649
0.000999914
0.00105868
0.000999085
0.000999083
0.00105867
0.000999909
0.00127649
0.00205639
0.00187421
0.00112748
0.000715704
0.000682744
0.000617923
0.000617922
0.000682742
0.000715703
0.00112748
0.00187421
0.00179403
0.00103335
0.000568485
0.000468708
0.000403524
0.000403524
0.000468708
0.000568485
0.00103335
0.00179403
0.0175791
0.00782595
0.00361142
0.00257085
0.00234045
0.00234051
0.00257142
0.00361432
0.0078373
0.0175972
0.00503282
0.00397394
0.00294082
0.00249763
0.00235149
0.00235148
0.0024976
0.0029408
0.00397445
0.00503286
0.00447187
0.00360696
0.00292323
0.00249933
0.00237323
0.0023732
0.00249928
0.00292316
0.00360706
0.00447181
0.00396897
0.00334676
0.00290969
0.00249751
0.00239423
0.00239421
0.00249746
0.00290962
0.00334671
0.00396895
0.00339916
0.00328999
0.00279311
0.0024459
0.00236809
0.00236807
0.00244585
0.00279305
0.00328991
0.00339915
0.970308
0.975246
0.978098
0.979257
0.979155
0.978508
0.977334
0.974856
0.970663
0.964373
1.95887
1.97074
1.97895
1.98379
1.98545
1.98402
1.97953
1.97187
1.96083
1.94611
2.41784
2.43029
2.4389
2.4439
2.44546
2.44364
2.43846
2.42982
2.41755
2.4014
2.73459
2.74517
2.75234
2.75629
2.75718
2.75505
2.74991
2.74167
2.73017
2.71517
2.99791
3.00512
3.00973
3.01191
3.01177
3.00935
3.00464
2.99757
2.98799
2.9757
3.23829
3.24116
3.24251
3.24245
3.24106
3.23835
3.23432
3.22889
3.22196
3.21336
3.46777
3.46582
3.46356
3.46106
3.45832
3.45536
3.45215
3.44864
3.44476
3.44041
3.69051
3.68376
3.67792
3.67299
3.66897
3.66582
3.66354
3.66206
3.66133
3.66129
3.90743
3.89618
3.887
3.87984
3.87467
3.87146
3.87016
3.87073
3.87308
3.87714
4.11827
4.10295
4.09074
4.0816
4.07547
4.07231
4.07208
4.07472
4.08014
4.08825
4.32259
4.30357
4.28861
4.27768
4.27074
4.26776
4.26869
4.27347
4.28206
4.29436
4.52009
4.49748
4.47987
4.46724
4.45958
4.45686
4.45904
4.46609
4.478
4.49472
4.71022
4.68387
4.66356
4.64926
4.64091
4.6385
4.64201
4.65142
4.66677
4.68808
4.89177
4.86156
4.83852
4.82255
4.81357
4.81151
4.81637
4.82817
4.84698
4.87288
5.06306
5.02913
5.0035
4.98599
4.97644
4.97478
4.98098
4.9951
5.01724
5.04754
5.22239
5.18524
5.1574
5.13859
5.12862
5.12741
5.13491
5.15121
5.17643
5.21078
5.36864
5.329
5.29946
5.2797
5.26952
5.2688
5.27753
5.29579
5.32374
5.36167
5.50149
5.46012
5.42944
5.40912
5.39892
5.39874
5.40858
5.42852
5.45877
5.49966
5.62118
5.57886
5.54762
5.52709
5.51707
5.51745
5.52823
5.54952
5.58156
5.62469
5.72862
5.68607
5.65476
5.63436
5.62467
5.62559
5.63713
5.65942
5.69269
5.7373
5.82524
5.78304
5.75208
5.73206
5.72279
5.72421
5.73633
5.75927
5.79328
5.83868
5.9129
5.87143
5.84108
5.8216
5.81281
5.81466
5.82718
5.85049
5.88481
5.93046
5.99358
5.95304
5.92344
5.90456
5.89626
5.89847
5.91123
5.93466
5.96897
6.01448
6.0691
6.02959
6.00083
5.98261
5.97477
5.97725
5.9901
6.01345
6.0475
6.09256
6.14106
6.10272
6.07493
6.05742
6.05003
6.05272
6.06552
6.08855
6.12206
6.16637
6.21089
6.17407
6.14746
6.1308
6.1239
6.12672
6.13928
6.16173
6.19432
6.23742
6.28032
6.24554
6.22048
6.20485
6.19849
6.20135
6.21347
6.23498
6.26614
6.30733
6.35185
6.31968
6.29649
6.28206
6.27629
6.27912
6.29059
6.31083
6.34003
6.37851
6.42904
6.39974
6.37854
6.36534
6.36012
6.36286
6.3736
6.3924
6.41936
6.45463
6.51627
6.48944
6.46988
6.45767
6.45286
6.4555
6.46559
6.48313
6.50809
6.54043
6.61769
6.59212
6.57334
6.56156
6.55691
6.55947
6.56923
6.58613
6.61003
6.64068
6.73594
6.70985
6.69061
6.67849
6.67366
6.67621
6.68615
6.70337
6.72768
6.75876
6.87124
6.84281
6.82181
6.80854
6.80317
6.80579
6.81644
6.83504
6.86143
6.89534
7.02251
6.98979
6.96573
6.9505
6.94421
6.94693
6.9587
6.97952
7.00935
7.0481
7.18581
7.14771
7.1198
7.10209
7.09462
7.09739
7.11045
7.13388
7.16778
7.21222
7.35751
7.31309
7.28095
7.26061
7.25185
7.25459
7.26888
7.29489
7.33297
7.38378
7.52872
7.48092
7.4459
7.42352
7.41368
7.41633
7.43147
7.45922
7.4997
7.55306
7.70456
7.6524
7.61433
7.58998
7.57914
7.58172
7.59772
7.62725
7.67052
7.72784
7.88123
7.82582
7.78524
7.75921
7.74752
7.7501
7.76696
7.79822
7.84413
7.90509
8.06033
8.00166
7.95866
7.93102
7.91856
7.92118
7.93891
7.97182
8.02008
8.08395
8.24199
8.18018
8.13473
8.10544
8.09218
8.09492
8.11367
8.14853
8.19965
8.26726
8.4282
8.36226
8.31371
8.28236
8.26813
8.27099
8.29099
8.32824
8.38292
8.45532
8.61866
8.54747
8.49502
8.46109
8.44559
8.44849
8.46988
8.50991
8.56884
8.64703
8.81195
8.73443
8.67729
8.64023
8.62311
8.6259
8.6487
8.69174
8.75541
8.84022
9.00582
8.92105
8.85855
8.81789
8.79881
8.80124
8.8253
8.87131
8.93982
9.03161
9.19714
9.10462
9.03647
8.99199
8.97073
8.97254
8.9975
9.04599
9.11867
9.21661
9.38167
9.28209
9.20879
9.16075
9.13738
9.1384
9.16383
9.21403
9.28967
9.39184
9.55656
9.45161
9.37425
9.32337
9.29825
9.29853
9.32418
9.37549
9.45315
9.55828
9.72241
9.61349
9.5332
9.48031
9.45399
9.45381
9.47965
9.5317
9.61051
9.71708
9.8798
9.76889
9.68702
9.63305
9.60622
9.60609
9.63249
9.68545
9.76527
9.87255
10.0332
9.92116
9.83831
9.78379
9.75703
9.75764
9.78546
9.84043
9.92269
10.0326
10.1881
10.074
9.98972
9.93451
9.90802
9.91002
9.94038
9.999
10.0859
10.2011
10.3481
10.23
10.1426
10.0858
10.0593
10.0632
10.0973
10.1617
10.2564
10.3816
10.5156
10.3893
10.2962
10.2362
10.209
10.2148
10.2536
10.3255
10.4306
10.5695
10.6867
10.5483
10.4467
10.3815
10.3527
10.3604
10.4045
10.4852
10.6028
10.7574
10.8534
10.7002
10.5875
10.5155
10.4841
10.4933
10.5435
10.6347
10.7677
10.9427
11.0121
10.8382
10.7111
10.6301
10.5948
10.6053
10.6618
10.7647
10.915
11.1142
11.1448
10.9491
10.8063
10.7152
10.6754
10.6866
10.7492
10.8636
11.0309
11.2519
11.2394
11.0221
10.8629
10.7611
10.7161
10.7278
10.7964
10.923
11.109
11.3564
11.2945
11.0499
10.8719
10.7583
10.7074
10.7189
10.7929
10.9306
11.134
11.4056
11.2816
11.0145
10.8206
10.6966
10.6404
10.6514
10.7297
10.8768
11.0953
11.3893
11.1879
10.9064
10.7013
10.5696
10.5093
10.5195
10.6004
10.7534
10.9812
11.2873
11.0187
10.7267
10.5136
10.3764
10.3129
10.3221
10.4043
10.5609
10.7943
11.1081
10.777
10.4779
10.2595
10.1185
10.0526
10.0609
10.1435
10.3018
10.5384
10.8569
10.4659
10.1629
9.94192
9.79909
9.73193
9.73931
9.82138
9.97967
10.217
10.5376
10.0854
9.78479
9.56524
9.42304
9.35577
9.36229
9.44276
9.59863
9.83264
10.1487
9.6455
9.35222
9.13736
8.99782
8.93143
8.93716
9.01517
9.16673
9.39426
9.70108
9.16184
8.87707
8.66826
8.53243
8.46753
8.47259
8.54771
8.69413
8.9141
9.21079
8.64304
8.36833
8.16679
8.03556
7.97266
7.97712
8.04907
8.18968
8.40113
8.68647
8.09707
7.83427
7.64134
7.51557
7.45511
7.45906
7.52754
7.66164
7.8634
8.1357
7.53259
7.2835
7.10032
6.98073
6.92308
6.92659
6.99135
7.11836
7.30944
7.56707
6.96041
6.72533
6.55229
6.4392
6.38456
6.38767
6.44861
6.56831
6.74844
6.99125
6.38863
6.16757
6.00483
5.89842
5.84692
5.84965
5.9067
6.01894
6.18798
6.41596
5.82316
5.61658
5.46454
5.36511
5.31691
5.31928
5.3723
5.47681
5.63436
5.84702
5.26939
5.07826
4.93762
4.84561
4.80094
4.80296
4.85175
4.94812
5.09351
5.2899
4.73338
4.55882
4.43031
4.34618
4.30525
4.30694
4.35133
4.43913
4.57165
4.7507
4.22224
4.06491
3.94894
3.87291
3.83583
3.83721
3.87711
3.95615
4.07544
4.23651
3.74327
3.60294
3.49931
3.43126
3.39798
3.39906
3.43458
3.50503
3.61132
3.75466
3.30243
3.17803
3.08596
3.02539
2.99567
2.99649
3.02792
3.09033
3.18445
3.31121
2.90339
2.79324
2.71156
2.65769
2.63118
2.63178
2.65954
2.71476
2.79797
2.90989
2.54725
2.44942
2.37671
2.32865
2.30492
2.30534
2.32994
2.37895
2.45276
2.55186
2.23287
2.14537
2.08019
2.03702
2.01562
2.0159
2.03787
2.08168
2.14762
2.23601
1.95745
1.87841
1.81937
1.78018
1.76069
1.76086
1.78071
1.82031
1.87985
1.9595
1.71716
1.64486
1.5907
1.55466
1.53669
1.53679
1.55497
1.59126
1.64573
1.71844
1.50767
1.44059
1.39019
1.35656
1.33975
1.3398
1.35673
1.39051
1.44112
1.50847
1.32462
1.26144
1.2138
1.18192
1.16595
1.16598
1.18201
1.21398
1.26176
1.32513
1.16385
1.10343
1.05769
1.027
1.01159
1.0116
1.02705
1.05781
1.10366
1.16422
1.0216
0.962994
0.918427
0.888419
0.873323
0.873342
0.888479
0.918546
0.963199
1.02193
0.894618
0.837043
0.793047
0.763314
0.748327
0.748356
0.763405
0.793207
0.837284
0.894962
0.780131
0.723018
0.67913
0.649346
0.634303
0.634357
0.649506
0.679388
0.723362
0.780551
0.675904
0.618908
0.574827
0.54476
0.529539
0.529637
0.545043
0.57527
0.619466
0.676516
0.580208
0.523266
0.47888
0.448401
0.432925
0.433089
0.448879
0.47963
0.524212
0.581237
0.491836
0.435225
0.390649
0.359736
0.343953
0.344202
0.360472
0.391829
0.436766
0.493602
0.410115
0.354516
0.310131
0.278858
0.262706
0.263041
0.279861
0.311788
0.356776
0.412881
0.334908
0.281456
0.237938
0.206449
0.1898
0.190189
0.207633
0.239952
0.284326
0.33864
0.266634
0.21686
0.175135
0.14365
0.12628
0.126658
0.144825
0.177204
0.219943
0.270866
0.206339
0.161758
0.122744
0.0917111
0.0735594
0.0738511
0.0926503
0.124478
0.164485
0.210308
0.155609
0.116583
0.0806026
0.0513445
0.0337368
0.0338945
0.0518939
0.0817088
0.118471
0.158569
0.11546
0.0794359
0.0461599
0.0223293
0.0100996
0.0101443
0.0225182
0.0466152
0.0803305
0.117017
0.0826926
0.0438337
0.0173484
0.00587543
0.00286137
0.00286474
0.00589769
0.017421
0.044007
0.0830193
0.95479
0.941827
0.92517
0.904454
0.879472
0.850233
0.817011
0.780382
0.741653
0.706323
0.67221
0.638711
0.605815
0.573698
0.542556
0.512542
0.483741
0.456182
0.429847
0.404689
0.380642
0.357635
0.335596
0.314452
0.294137
0.274585
0.255734
0.237518
0.219873
0.202726
0.185997
0.169586
0.153359
0.137038
0.120163
0.103218
0.0852446
0.0661202
0.0466476
0.0198406
1.9262
1.89987
1.86772
1.82952
1.78528
1.7354
1.68062
1.62194
1.56043
1.49683
1.43242
1.36802
1.30425
1.24157
1.18032
1.12073
1.06296
1.00708
0.953098
0.901014
0.850788
0.802366
0.755684
0.710672
0.667249
0.62533
0.584823
0.545623
0.507616
0.470671
0.434633
0.399316
0.364489
0.329855
0.295044
0.259797
0.223307
0.184074
0.136692
0.058595
2.3798
2.35129
2.31663
2.2755
2.22784
2.17392
2.11443
2.05033
1.98274
1.91236
1.83999
1.76629
1.6919
1.61741
1.54335
1.47019
1.39828
1.32794
1.25938
1.19274
1.12812
1.06558
1.00512
0.94671
0.890312
0.835852
0.783237
0.732357
0.68308
0.635256
0.588705
0.543218
0.498537
0.454342
0.410219
0.365586
0.319375
0.269019
0.205796
0.0928464
2.6952
2.66882
2.63658
2.5979
2.55233
2.49969
2.44013
2.37427
2.30322
2.22794
2.14943
2.06857
1.98615
1.90288
1.81944
1.73644
1.65438
1.57369
1.49468
1.41762
1.34268
1.26998
1.19957
1.13147
1.06567
1.0021
0.940698
0.881342
0.823903
0.768222
0.714107
0.66133
0.609607
0.558566
0.507685
0.456138
0.402371
0.342799
0.266334
0.122411
2.95944
2.93794
2.91143
2.87899
2.83952
2.7919
2.73514
2.66899
2.59456
2.51347
2.42773
2.3388
2.24775
2.15549
2.06278
1.97036
1.87885
1.78875
1.70045
1.61426
1.53039
1.44898
1.37012
1.29383
1.22012
1.14892
1.08017
1.01374
0.949491
0.887256
0.826822
0.767928
0.710241
0.653311
0.596478
0.53866
0.477836
0.409468
0.319967
0.148641
3.20223
3.18765
3.16956
3.14683
3.11777
3.08023
3.03121
2.96776
2.88751
2.79749
2.70229
2.60317
2.50135
2.39823
2.29484
2.192
2.09035
1.99047
1.89276
1.79753
1.70498
1.61526
1.52844
1.44453
1.36352
1.28533
1.20987
1.13702
1.0666
0.998411
0.932219
0.867713
0.804498
0.742029
0.679498
0.615586
0.547854
0.470918
0.368896
0.171833
3.43516
3.42859
3.42049
3.4102
3.39706
3.37939
3.34294
3.27362
3.18915
3.09305
2.9883
2.87644
2.76047
2.64341
2.52671
2.41139
2.29811
2.18733
2.07942
1.97463
1.8731
1.77492
1.68012
1.58867
1.50051
1.41554
1.33363
1.25462
1.17829
1.10442
1.03271
0.96281
0.894241
0.826364
0.758229
0.688296
0.613749
0.52844
0.414381
0.193093
3.66187
3.66301
3.66432
3.6657
3.66724
3.66529
3.63712
3.57004
3.48296
3.38381
3.2769
3.16007
3.03133
2.8967
2.76349
2.63329
2.50653
2.3835
2.26436
2.14923
2.03815
1.93112
1.82808
1.72894
1.63356
1.54181
1.45348
1.36837
1.28623
1.20677
1.12964
1.05443
0.980576
0.90735
0.833662
0.757767
0.6765
0.583002
0.457312
0.212923
3.88313
3.89114
3.90044
3.91089
3.92198
3.92777
3.9103
3.85404
3.7644
3.65564
3.5408
3.42376
3.29802
3.15532
3.00533
2.85853
2.71689
2.58043
2.44913
2.32293
2.20173
2.08541
1.9738
1.86673
1.76399
1.66534
1.57055
1.47933
1.39138
1.30635
1.22383
1.14334
1.06425
0.985719
0.906529
0.824739
0.736852
0.635336
0.498347
0.231676
4.09956
4.11445
4.13196
4.15194
4.17383
4.19215
4.19018
4.14469
4.05302
3.93254
3.80266
3.67484
3.54733
3.40921
3.24982
3.08589
2.92858
2.77795
2.63383
2.496
2.36424
2.23827
2.11782
2.00262
1.89236
1.78672
1.6854
1.58804
1.49427
1.40368
1.3158
1.23007
1.14578
1.06199
0.977363
0.889757
0.795359
0.685985
0.537972
0.249624
4.31126
4.33353
4.36014
4.39111
4.42605
4.46083
4.47753
4.4425
4.34807
4.21553
4.06947
3.92693
3.79163
3.65331
3.49268
3.31382
3.14027
2.97499
2.81765
2.66787
2.52528
2.38948
2.26005
2.13661
2.01876
1.90609
1.79822
1.69472
1.59515
1.49903
1.40583
1.31491
1.22548
1.13651
1.04652
0.953193
0.852403
0.735328
0.576539
0.266989
4.51754
4.54772
4.58406
4.62659
4.67508
4.72825
4.76824
4.74537
4.64696
4.50112
4.33864
4.18066
4.03415
3.8905
3.72988
3.53981
3.34967
3.16958
2.99899
2.83729
2.68392
2.53831
2.39994
2.2683
2.1429
2.02325
1.90889
1.79931
1.69402
1.59245
1.494
1.39797
1.30349
1.20944
1.11419
1.01526
0.908214
0.7836
0.614267
0.283917
4.71709
4.75558
4.80209
4.85667
4.9198
4.99195
5.05664
5.04901
4.94631
4.7855
4.60562
4.43185
4.27349
4.12344
3.9607
3.75949
3.55355
3.35921
3.1758
3.00253
2.83868
2.68355
2.53649
2.39689
2.26416
2.13773
2.01705
1.90155
1.79067
1.68379
1.58023
1.47922
1.37982
1.2808
1.18044
1.07605
0.962891
0.830912
0.651254
0.300501
4.9081
4.95491
5.01165
5.07844
5.15633
5.24675
5.33651
5.34621
5.23727
5.06013
4.86271
4.67401
4.505
4.34924
4.18334
3.97024
3.74918
3.54139
3.34592
3.16177
2.98804
2.82392
2.66862
2.52145
2.38173
2.24883
2.1221
2.00093
1.88469
1.7727
1.66423
1.55843
1.45429
1.35049
1.24519
1.13552
1.01644
0.877298
0.687569
0.317125
5.08868
5.14335
5.20969
5.28789
5.37873
5.48349
5.59528
5.62561
5.50629
5.31255
5.09976
4.89909
4.72217
4.56221
4.39242
4.16767
3.93309
3.71331
3.50703
3.31308
3.13039
2.95804
2.79517
2.64099
2.49477
2.3558
2.2234
2.0969
1.9756
1.85877
1.74563
1.63528
1.52663
1.41827
1.30823
1.1935
1.06873
0.922678
0.72319
0.333423
5.25733
5.31916
5.39415
5.4828
5.58612
5.70517
5.83263
5.86932
5.74078
5.53531
5.31143
5.10162
4.91864
4.75555
4.58128
4.34668
4.1017
3.87227
3.65703
3.45471
3.26424
3.08463
2.915
2.75451
2.60239
2.45789
2.32028
2.18885
2.06285
1.94152
1.82402
1.7094
1.59649
1.48381
1.3693
1.24974
1.11955
0.966885
0.758002
0.34935
5.41299
5.48114
5.56392
5.66237
5.77801
5.91245
6.04893
6.07227
5.93961
5.72973
5.49855
5.28067
5.09136
4.92484
4.74576
4.5049
4.25329
4.01684
3.79457
3.58543
3.38843
3.20263
3.02713
2.86112
2.70378
2.55434
2.41205
2.27616
2.14589
2.02044
1.89893
1.78035
1.66349
1.54678
1.42807
1.30398
1.16866
1.00971
0.791844
0.364849
5.55491
5.62827
5.71752
5.8241
5.94991
6.09712
6.23339
6.23734
6.1032
5.89299
5.65842
5.43453
5.2389
5.06815
4.88824
4.64629
4.38935
4.14724
3.91929
3.70458
3.50218
3.3112
3.13076
2.96002
2.79819
2.64446
2.49807
2.35824
2.22417
2.09503
1.96989
1.84771
1.72722
1.60681
1.4842
1.35589
1.21576
1.0509
0.824518
0.379839
5.68283
5.75995
5.85373
5.96574
6.09807
6.25281
6.38219
6.36607
6.22872
6.02007
5.78583
5.55981
5.35985
5.18431
5.00448
4.77029
4.51035
4.26346
4.03084
3.81161
3.60484
3.40965
3.22517
3.05054
2.88497
2.72764
2.57776
2.43455
2.29718
2.16479
2.03644
1.91105
1.78731
1.66353
1.53736
1.40516
1.26058
1.09019
0.855808
0.394228
5.79727
5.87661
5.97282
6.08733
6.22206
6.37838
6.49932
6.46819
6.32445
6.11526
5.88247
5.65691
5.45495
5.27553
5.09596
4.87438
4.61551
4.3648
4.12855
3.90586
3.69577
3.49737
3.30976
3.1321
2.96356
2.80333
2.65061
2.50459
2.36445
2.22931
2.0982
1.97
1.84338
1.7166
1.58721
1.45148
1.30282
1.12734
0.885492
0.407917
5.89953
5.97978
6.07679
6.19178
6.32631
6.48082
6.5925
6.54844
6.39709
6.18595
5.95427
5.72997
5.52727
5.34485
5.16451
4.95645
4.70357
4.45017
4.21153
3.9866
3.77434
3.57379
3.38404
3.20422
3.03352
2.87112
2.71621
2.56799
2.42563
2.28822
2.1548
2.02422
1.89512
1.7657
1.63348
1.49458
1.34222
1.16209
0.913358
0.420808
5.99147
6.07167
6.16831
6.28249
6.41551
6.56682
6.66822
6.61147
6.45179
6.23778
6.00686
5.78422
5.58192
5.3984
5.21855
5.01821
4.77128
4.51794
4.27886
4.05325
3.84013
3.63856
3.44767
3.26661
3.09456
2.93071
2.77429
2.62447
2.48043
2.34126
2.20599
2.07346
1.94227
1.81061
1.67591
1.53422
1.37856
1.19422
0.939208
0.432806
6.07514
6.15469
6.25029
6.36285
6.49351
6.64145
6.73207
6.66009
6.49088
6.27371
6.04379
5.82343
5.62254
5.43904
5.25991
5.06352
4.82041
4.56872
4.33075
4.10584
3.8931
3.69162
3.50058
3.31916
3.14656
2.982
2.8247
2.67388
2.5287
2.38827
2.2516
2.11753
1.98466
1.85113
1.71433
1.57021
1.41165
1.22356
0.962881
0.443829
6.15255
6.23114
6.32546
6.43627
6.56441
6.70804
6.78472
6.69609
6.51736
6.29727
6.06855
5.85089
5.65219
5.46942
5.29001
5.09378
4.85236
4.60349
4.3679
4.1449
3.93362
3.73324
3.54296
3.36199
3.18958
3.02498
2.86743
2.71616
2.57035
2.42912
2.2915
2.15631
2.02215
1.88712
1.74859
1.60243
1.44137
1.24999
0.984279
0.453934
6.2254
6.30281
6.3959
6.50556
6.63274
6.77038
6.82237
6.71995
6.53433
6.31208
6.08414
5.86869
5.67219
5.49035
5.3095
5.1092
4.86822
4.62338
4.39128
4.1712
3.96235
3.76394
3.57521
3.39543
3.22389
3.05985
2.90261
2.7514
2.60544
2.46387
2.3257
2.18978
2.05468
1.91852
1.77861
1.63076
1.46758
1.27336
1.00323
0.463062
6.29492
6.37058
6.46205
6.57065
6.69827
6.82483
6.84366
6.73099
6.5415
6.31809
6.09071
5.87669
5.68162
5.50022
5.31773
5.11137
4.86969
4.62968
4.40199
4.18575
3.98016
3.78447
3.59799
3.42003
3.24992
3.08698
2.93053
2.77985
2.63416
2.49263
2.35429
2.21799
2.0823
1.94533
1.80437
1.65518
1.49024
1.29362
1.01969
0.471063
6.3623
6.43479
6.52272
6.62767
6.75237
6.86262
6.85109
6.72736
6.53448
6.3113
6.08584
5.87421
5.68108
5.50058
5.31674
5.09758
4.85569
4.62303
4.4012
4.18976
3.98816
3.79582
3.61213
3.43648
3.26827
3.10687
2.95162
2.80184
2.65679
2.51564
2.37745
2.24108
2.10511
1.96764
1.82593
1.67572
1.50938
1.31078
1.03368
0.477919
6.42972
6.49705
6.57825
6.6746
6.78977
6.88106
6.84214
6.70488
6.50858
6.2878
6.06722
5.86054
5.67057
5.48926
5.29826
5.07055
4.83417
4.60796
4.39178
4.18526
3.9879
3.79921
3.61864
3.44565
3.27968
3.12013
2.96639
2.81782
2.67369
2.53321
2.39545
2.25928
2.1233
1.98559
1.84342
1.69246
1.52506
1.3249
1.04522
0.483635
6.50119
6.56173
6.63306
6.71502
6.81165
6.87943
6.8189
6.66817
6.46918
6.25235
6.0382
5.83749
5.65118
5.46956
5.2702
5.03848
4.80723
4.58649
4.37557
4.17384
3.98077
3.79585
3.61858
3.44844
3.28491
3.12743
2.97543
2.82828
2.6853
2.54571
2.4086
2.27286
2.13709
1.99938
1.85698
1.70556
1.5374
1.33605
1.05438
0.488225
6.58256
6.63625
6.69605
6.75905
6.83201
6.86727
6.78218
6.62311
6.42455
6.21282
6.00476
5.80867
5.62456
5.44238
5.22937
4.9969
4.77321
4.55886
4.35349
4.15666
3.96793
3.78685
3.61294
3.44575
3.28477
3.12949
2.97937
2.8338
2.69212
2.55359
2.41729
2.28216
2.14677
2.00925
1.86684
1.7152
1.54655
1.34437
1.06123
0.491715
6.68005
6.72904
6.77701
6.81518
6.8568
6.85136
6.74508
6.5799
6.38227
6.17442
5.97021
5.77531
5.58774
5.3971
5.17897
4.9529
4.73574
4.5273
4.32723
4.13514
3.95065
3.77332
3.60275
3.43849
3.28009
3.12705
2.97886
2.83495
2.69467
2.55729
2.42193
2.28752
2.15267
2.0155
1.87325
1.72158
1.55269
1.35
1.06589
0.494147
6.79842
6.84717
6.88356
6.88954
6.89528
6.84764
6.72099
6.54728
6.34644
6.13814
5.93409
5.7377
5.54527
5.34678
5.128
4.90792
4.69651
4.49342
4.29826
4.11062
3.93012
3.75638
3.58901
3.42759
3.27169
3.12086
2.97459
2.83234
2.69349
2.55732
2.42296
2.28936
2.15515
2.01844
1.87649
1.72495
1.55604
1.35312
1.0685
0.49557
6.9389
6.99284
7.01774
6.97499
6.91723
6.83554
6.70454
6.52105
6.31352
6.10168
5.89494
5.69504
5.49795
5.29418
5.0768
4.8626
4.65663
4.45853
4.26788
4.08433
3.90751
3.73709
3.57268
3.41392
3.26038
3.11164
2.96722
2.82659
2.68914
2.55417
2.42084
2.28809
2.15457
2.0184
1.87686
1.7256
1.55684
1.35394
1.06921
0.496048
7.09862
7.16281
7.17519
7.07584
6.95818
6.84096
6.69078
6.49328
6.28073
6.06683
5.85746
5.65322
5.45107
5.24121
5.02647
4.81836
4.61762
4.42407
4.23746
4.05753
3.88398
3.7165
3.55474
3.39836
3.24696
3.10014
2.95743
2.8183
2.68218
2.54837
2.41604
2.28415
2.15135
2.01577
1.87471
1.72382
1.55535
1.35268
1.0682
0.495657
7.27059
7.34476
7.3582
7.21554
7.04355
6.88056
6.69391
6.48009
6.26041
6.04197
5.82749
5.61634
5.40621
5.19304
4.98237
4.77863
4.58184
4.39186
4.20849
4.03151
3.86064
3.69561
3.53609
3.38175
3.23221
3.08706
2.94586
2.80809
2.67318
2.54044
2.40905
2.27797
2.14588
2.01091
1.87037
1.71993
1.55185
1.34959
1.06566
0.494462
7.45262
7.54651
7.55939
7.37117
7.14842
6.93821
6.71732
6.48401
6.2524
6.02501
5.80282
5.58459
5.36839
5.15442
4.94633
4.74518
4.5509
4.36332
4.18222
4.00737
3.83851
3.67535
3.51758
3.36486
3.21682
3.07306
2.93313
2.79652
2.66266
2.53087
2.40033
2.27001
2.13858
2.00421
1.8642
1.71425
1.54666
1.34494
1.0618
0.492575
7.62339
7.71309
7.75506
7.54874
7.26273
6.99902
6.75038
6.50193
6.25538
6.01639
5.78545
5.56048
5.34035
5.12619
4.91905
4.71898
4.52584
4.33946
4.15959
3.986
3.81839
3.65647
3.49991
3.34836
3.20144
3.05874
2.91981
2.78414
2.65114
2.52015
2.39034
2.26069
2.12988
1.99606
1.85657
1.70713
1.54007
1.33899
1.05685
0.490104
7.80417
7.90419
7.93414
7.68059
7.36694
7.07245
6.79434
6.52887
6.27159
6.02192
5.78174
5.54978
5.3259
5.10985
4.90155
4.70079
4.50734
4.32092
4.14126
3.96803
3.80092
3.63959
3.48368
3.33283
3.18662
3.04464
2.90642
2.77143
2.6391
2.50874
2.37952
2.25044
2.12015
1.98684
1.84785
1.69891
1.53241
1.33204
1.05104
0.487162
7.98657
8.09408
8.10916
7.81472
7.47753
7.1596
6.85915
6.57411
6.30235
6.04237
5.79308
5.55415
5.32496
5.10494
4.89365
4.69065
4.49556
4.30799
4.12754
3.95384
3.7865
3.62513
3.46933
3.3187
3.17281
3.0312
2.89339
2.75884
2.62696
2.49705
2.36828
2.23963
2.10978
1.97691
1.83837
1.68991
1.52397
1.32436
1.04461
0.483864
8.16874
8.27896
8.28228
7.95812
7.5977
7.25855
6.93873
6.63638
6.34983
6.07758
5.81843
5.57136
5.33552
5.11012
4.89451
4.68807
4.49026
4.30057
4.11849
3.94357
3.77534
3.61336
3.45717
3.30632
3.16035
3.01877
2.88108
2.74672
2.61507
2.48543
2.35696
2.22864
2.09913
1.96661
1.82846
1.68046
1.51507
1.31622
1.03777
0.480319
8.35692
8.47334
8.46022
8.10521
7.7244
7.36606
7.02853
6.71016
6.40942
6.12485
5.85513
5.59908
5.35567
5.12394
4.90307
4.6923
4.49094
4.29835
4.11395
3.93718
3.76749
3.60438
3.44734
3.29588
3.14947
3.00762
2.86978
2.73537
2.60375
2.47421
2.34589
2.21776
2.08848
1.95625
1.81843
1.67083
1.50596
1.30787
1.03074
0.476639
8.55142
8.67631
8.64356
8.25731
7.85679
7.48007
7.12564
6.79194
6.47743
6.18064
5.9002
5.63484
5.38338
5.14478
4.91806
4.70235
4.49685
4.30081
4.11355
3.93442
3.76281
3.59816
3.43989
3.28745
3.14031
2.9979
2.85966
2.72498
2.59321
2.4636
2.33529
2.20724
2.0781
1.94607
1.80852
1.66128
1.49691
1.29954
1.02371
0.473123
8.75102
8.88638
8.83176
8.41398
7.99354
7.5986
7.22761
6.87896
6.55102
6.24223
5.95115
5.67641
5.41676
5.17103
4.93816
4.71716
4.50714
4.30726
4.11675
3.9349
3.76103
3.5945
3.43468
3.281
3.13286
2.98966
2.85082
2.71568
2.58358
2.45376
2.32534
2.19725
2.06816
1.93626
1.79891
1.65198
1.48806
1.2914
1.01682
0.469676
8.95343
9.10125
9.02237
8.57292
8.13222
7.7191
7.33187
6.96865
6.62766
6.30721
6.00575
5.72181
5.45403
5.20116
4.96205
4.73562
4.52089
4.31695
4.12297
3.93816
3.76177
3.59313
3.43155
3.2764
3.12705
2.98288
2.84325
2.7075
2.57494
2.44478
2.31613
2.18792
2.0588
1.92695
1.78976
1.64309
1.47958
1.28357
1.0102
0.466339
9.155
9.31747
9.21039
8.72975
8.26909
7.83836
7.4355
7.05836
6.70493
6.37339
6.06201
5.76924
5.4936
5.23377
4.98851
4.75667
4.53721
4.32914
4.13158
3.94367
3.76463
3.59371
3.43021
3.27344
3.12274
2.97744
2.8369
2.70042
2.56728
2.43669
2.30772
2.17931
2.05009
1.91824
1.78114
1.63469
1.47155
1.27616
1.00395
0.463162
9.34906
9.52458
9.387
8.87897
8.39972
7.95271
7.53545
7.14548
6.78059
6.43876
6.11817
5.81711
5.53407
5.26761
5.01644
4.77936
4.55526
4.34311
4.14196
3.95092
3.76916
3.59589
3.43037
3.27189
3.11973
2.97322
2.83167
2.69437
2.56057
2.42946
2.30011
2.17143
2.04205
1.91015
1.77312
1.62685
1.46405
1.26924
0.998125
0.460182
9.53009
9.71153
9.54324
9.01469
8.51972
8.05876
7.629
7.22779
6.85274
6.50171
6.17277
5.86416
5.57428
5.30165
5.04492
4.80285
4.57429
4.35818
4.15352
3.95939
3.77491
3.59928
3.43172
3.27146
3.1178
2.97002
2.8274
2.68921
2.5547
2.42302
2.29324
2.16425
2.03468
1.90269
1.76569
1.61958
1.45709
1.26283
0.992746
0.457416
9.70086
9.88559
9.67814
9.13341
8.62623
8.15423
7.71434
7.3038
6.92013
6.56114
6.22486
5.90949
5.6134
5.3351
5.07321
4.82646
4.59369
4.37379
4.16574
3.96861
3.78148
3.60351
3.43391
3.27188
3.1167
2.96762
2.8239
2.68481
2.54954
2.41727
2.28702
2.1577
2.02791
1.89582
1.75883
1.61285
1.45066
1.25692
0.987803
0.454862
9.86135
10.0401
9.78772
9.23359
8.71835
8.23856
7.79108
7.37316
6.98241
6.61666
6.27399
5.95262
5.65095
5.36747
5.10081
4.8497
4.61296
4.38946
4.17819
3.97816
3.78846
3.60822
3.43662
3.27285
3.11616
2.96579
2.82098
2.68096
2.54494
2.41206
2.28135
2.15168
2.02166
1.88946
1.75247
1.60662
1.4447
1.25145
0.983252
0.4525
10.0165
10.1746
9.8738
9.3171
8.79804
8.31345
7.86053
7.43685
7.04021
6.66865
6.32033
5.99355
5.68677
5.3985
5.12741
4.87221
4.63172
4.40482
4.19046
3.98767
3.79549
3.61306
3.43953
3.27407
3.11591
2.96428
2.81839
2.67748
2.54071
2.40723
2.27606
2.14605
2.01581
1.8835
1.74652
1.60079
1.43914
1.24637
0.979031
0.450299
10.1792
10.3026
9.94415
9.39106
8.87109
8.38326
7.92586
7.49707
7.09507
6.71809
6.36447
6.03259
5.72096
5.42816
5.15284
4.89374
4.64968
4.41953
4.20223
3.99679
3.80225
3.61772
3.44233
3.27525
3.11568
2.96283
2.81591
2.67413
2.53666
2.40261
2.27099
2.14067
2.01023
1.87783
1.74086
1.59527
1.4339
1.24159
0.975072
0.448222
10.3534
10.4436
10.0314
9.47298
8.94778
8.45444
7.9913
7.55666
7.14886
6.76623
6.40719
6.07018
5.75374
5.45646
5.177
4.91411
4.66659
4.4333
4.21318
4.0052
3.8084
3.62187
3.44471
3.27609
3.11518
2.96118
2.81329
2.6707
2.53256
2.39798
2.26597
2.13537
2.00476
1.87231
1.73539
1.58997
1.4289
1.23708
0.971381
0.446279
10.5472
10.6031
10.134
9.56621
9.03219
8.53055
8.0596
7.61764
7.203
6.81401
6.44907
6.10662
5.78519
5.48335
5.19974
4.93309
4.68217
4.44583
4.22298
4.01257
3.81361
3.62518
3.44636
3.27629
3.11414
2.95907
2.81029
2.66695
2.52821
2.39316
2.2608
2.12996
1.99924
1.86677
1.72996
1.58477
1.42409
1.23288
0.968264
0.444761
10.7534
10.7778
10.2561
9.67324
9.12618
8.61304
8.13189
7.68083
7.25804
6.86173
6.49022
6.14188
5.81516
5.50859
5.22075
4.95033
4.69605
4.45673
4.23124
4.01851
3.81752
3.62731
3.44695
3.27555
3.11225
2.95623
2.80663
2.66264
2.52337
2.38792
2.25527
2.12426
1.99346
1.86104
1.72439
1.5795
1.41929
1.22879
0.965198
0.443303
10.9609
10.9608
10.3947
9.7922
9.22849
8.70107
8.20753
7.74569
7.31346
6.90889
6.53014
6.17544
5.84314
5.53166
5.23952
4.96532
4.70774
4.46554
4.23753
4.02261
3.81972
3.62788
3.44611
3.27352
3.10922
2.95236
2.80208
2.65754
2.51784
2.38208
2.24922
2.1181
1.98729
1.85495
1.71849
1.57392
1.41418
1.22434
0.961677
0.441589
11.1734
11.1519
10.5414
9.91774
9.33549
8.79192
8.28439
7.81044
7.36776
6.95419
6.56766
6.20626
5.86818
5.55171
5.25527
4.97737
4.7166
4.47165
4.24129
4.02436
3.81976
3.62646
3.44348
3.26987
3.10473
2.94719
2.79637
2.65141
2.51142
2.37546
2.24249
2.11135
1.98059
1.8484
1.71217
1.56792
1.40862
1.21941
0.957802
0.439729
11.3799
11.3444
10.6918
10.0458
9.44339
8.88214
8.35936
7.87236
7.41857
6.99554
6.601
6.23279
5.88893
5.56757
5.26698
4.98556
4.72182
4.47436
4.24189
4.02319
3.81712
3.62261
3.43863
3.26422
3.09845
2.94042
2.78924
2.64404
2.5039
2.36788
2.23494
2.10389
1.9733
1.84133
1.70539
1.5615
1.40265
1.21405
0.953432
0.437591
11.5443
11.5172
10.8455
10.1734
9.54795
8.96727
8.42823
7.9277
7.46263
7.0302
6.6278
6.25304
5.90371
5.57779
5.2734
4.98882
4.72247
4.47285
4.23861
4.01848
3.81125
3.61582
3.43113
3.25618
3.09002
2.93174
2.78042
2.63516
2.49507
2.35916
2.2264
2.09559
1.96531
1.83369
1.69815
1.5547
1.39632
1.20824
0.948273
0.434811
11.6872
11.7133
10.9937
10.2932
9.641
9.03992
8.48486
7.97143
7.49583
7.05476
6.64526
6.26467
5.91055
5.58071
5.27312
4.98595
4.71751
4.46623
4.23069
4.00954
3.80156
3.60558
3.42052
3.24535
3.0791
2.92082
2.76961
2.62454
2.48469
2.3491
2.2167
2.08632
1.95649
1.82538
1.69041
1.54757
1.38989
1.20262
0.943735
0.432575
11.7693
11.8275
11.0876
10.3724
9.70391
9.08843
8.52114
7.9975
7.51348
7.06549
6.65035
6.26517
5.90737
5.57458
5.26467
4.9757
4.70588
4.45359
4.21732
3.9957
3.78745
3.59136
3.40634
3.23132
3.06531
2.90736
2.75654
2.61191
2.47256
2.33749
2.20567
2.07589
1.94671
1.8163
1.68207
1.54006
1.38333
1.19726
0.940061
0.430938
11.7874
11.8822
11.1356
10.4113
9.73222
9.10733
8.53188
8.00133
7.5116
7.05899
6.64016
6.2521
5.89209
5.55766
5.24657
4.95681
4.68652
4.43402
4.19775
3.9763
3.76835
3.57268
3.38816
3.21372
3.04834
2.89106
2.74094
2.59705
2.45844
2.32415
2.19312
2.06415
1.93581
1.80626
1.67295
1.53194
1.37633
1.19158
0.936116
0.429259
11.7003
11.825
11.1148