/*--------------------------------*- C++ -*----------------------------------*\
  =========                 |
  \\      /  F ield         | OpenFOAM: The Open Source CFD Toolbox
   \\    /   O peration     | Website:  https://openfoam.org
    \\  /    A nd           | Version:  8
     \\/     M anipulation  |
\*---------------------------------------------------------------------------*/
FoamFile
{
    version     2.0;
    format      ascii;
    class       volScalarField;
    location    "1";
    object      nut;
}
// * * * * * * * * * * * * * * * * * * * * * * * * * * * * * * * * * * * * * //

dimensions      [0 2 -1 0 0 0 0];

internalField   nonuniform List<scalar> 
9150
(
9.61608e-06
6.46104e-06
7.26415e-06
1.13022e-05
1.21387e-05
1.21387e-05
1.13021e-05
7.26415e-06
6.46104e-06
9.61608e-06
9.50291e-06
5.79521e-06
9.26249e-06
1.26253e-05
1.13586e-05
1.13586e-05
1.26253e-05
9.26247e-06
5.79521e-06
9.5029e-06
9.31146e-06
5.55586e-06
1.20853e-05
1.30521e-05
1.09006e-05
1.09006e-05
1.3052e-05
1.20853e-05
5.55586e-06
9.31146e-06
9.09594e-06
5.47367e-06
1.49111e-05
1.307e-05
1.06732e-05
1.06732e-05
1.307e-05
1.49111e-05
5.47367e-06
9.09594e-06
8.86111e-06
5.45111e-06
1.73062e-05
1.29845e-05
1.05628e-05
1.05628e-05
1.29844e-05
1.73062e-05
5.45111e-06
8.86111e-06
5.94737e-06
1.22071e-05
1.69004e-05
2.36578e-05
2.60473e-05
2.60472e-05
2.36576e-05
1.69002e-05
1.2207e-05
5.94736e-06
6.29511e-06
9.23658e-06
1.34206e-05
2.05265e-05
2.27111e-05
2.27111e-05
2.05265e-05
1.34205e-05
9.23654e-06
6.29511e-06
6.8412e-06
8.10907e-06
1.08413e-05
1.73655e-05
1.92101e-05
1.92101e-05
1.73654e-05
1.08413e-05
8.10906e-06
6.8412e-06
7.39952e-06
7.43958e-06
9.06485e-06
1.47226e-05
1.62309e-05
1.62309e-05
1.47226e-05
9.06483e-06
7.43958e-06
7.39952e-06
8.08935e-06
6.94588e-06
7.90961e-06
1.2631e-05
1.38011e-05
1.38011e-05
1.2631e-05
7.90959e-06
6.94589e-06
8.08935e-06
1.48894e-05
2.73792e-05
2.05028e-05
2.24558e-05
2.66002e-05
2.65995e-05
2.2458e-05
2.05175e-05
2.74029e-05
1.48968e-05
7.96518e-06
1.17508e-05
1.52752e-05
2.16666e-05
2.66582e-05
2.66572e-05
2.16647e-05
1.52738e-05
1.17508e-05
7.96521e-06
7.50816e-06
1.09598e-05
1.52448e-05
2.18313e-05
2.6888e-05
2.68874e-05
2.18301e-05
1.52438e-05
1.09595e-05
7.5081e-06
7.07338e-06
1.05475e-05
1.52626e-05
2.19738e-05
2.71076e-05
2.71073e-05
2.1973e-05
1.5262e-05
1.05472e-05
7.07335e-06
6.54596e-06
1.08216e-05
1.52974e-05
2.22552e-05
2.71332e-05
2.7133e-05
2.22548e-05
1.52971e-05
1.08213e-05
6.54594e-06
0.00022187
0.000222414
0.000222727
0.000222855
0.000222844
0.000222776
0.000222649
0.000222377
0.000221914
0.000221215
0.00219303
0.00220455
0.00221309
0.00221864
0.00222109
0.00222019
0.00221594
0.00220857
0.00219819
0.00218478
0.00443752
0.00445873
0.00447399
0.00448352
0.00448743
0.0044857
0.00447831
0.00446523
0.00444635
0.00442138
0.00634666
0.00637446
0.00639435
0.00640671
0.00641173
0.00640949
0.00639994
0.00638297
0.00635834
0.00632563
0.00791175
0.00794408
0.00796735
0.00798187
0.00798785
0.00798535
0.00797435
0.00795471
0.00792618
0.00788836
0.00918839
0.00922375
0.00924938
0.00926552
0.00927229
0.00926971
0.00925777
0.00923636
0.0092053
0.00916429
0.0102363
0.0102734
0.0103006
0.0103178
0.0103251
0.0103226
0.0103101
0.0102877
0.0102551
0.0102124
0.0111071
0.0111451
0.0111731
0.011191
0.0111988
0.0111963
0.0111836
0.0111606
0.0111274
0.0110839
0.0118416
0.01188
0.0119084
0.0119268
0.0119348
0.0119325
0.0119197
0.0118965
0.011863
0.0118193
0.0124706
0.0125092
0.012538
0.0125566
0.0125649
0.0125627
0.0125499
0.0125267
0.0124932
0.0124495
0.013017
0.0130558
0.0130848
0.0131038
0.0131123
0.0131102
0.0130975
0.0130743
0.0130408
0.0129973
0.0134975
0.0135366
0.013566
0.0135852
0.0135939
0.0135919
0.0135793
0.0135561
0.0135227
0.0134794
0.0139249
0.0139641
0.0139936
0.014013
0.0140219
0.01402
0.0140074
0.0139843
0.013951
0.0139081
0.014308
0.014347
0.0143765
0.0143959
0.0144048
0.014403
0.0143904
0.0143674
0.0143344
0.0142919
0.0146531
0.0146916
0.0147208
0.01474
0.0147488
0.0147469
0.0147344
0.0147116
0.0146789
0.014637
0.0149641
0.0150018
0.0150304
0.0150492
0.0150578
0.0150559
0.0150435
0.0150209
0.0149886
0.0149475
0.0152436
0.0152802
0.0153081
0.0153265
0.0153348
0.0153327
0.0153204
0.0152981
0.0152665
0.0152263
0.0154932
0.0155287
0.0155557
0.0155735
0.0155814
0.0155793
0.0155672
0.0155453
0.0155144
0.0154753
0.0157141
0.0157484
0.0157745
0.0157916
0.0157992
0.015797
0.0157851
0.0157639
0.0157338
0.015696
0.0159073
0.0159404
0.0159655
0.0159819
0.0159892
0.015987
0.0159754
0.0159548
0.0159258
0.0158892
0.0160736
0.0161054
0.0161296
0.0161454
0.0161523
0.0161502
0.016139
0.0161192
0.0160912
0.016056
0.016214
0.0162446
0.0162678
0.016283
0.0162896
0.0162876
0.0162769
0.0162579
0.0162312
0.0161974
0.0163297
0.016359
0.0163812
0.0163957
0.0164021
0.0164002
0.0163901
0.0163721
0.0163466
0.0163145
0.0164218
0.0164497
0.0164708
0.0164846
0.0164907
0.016489
0.0164796
0.0164627
0.0164388
0.0164084
0.0164915
0.0165177
0.0165375
0.0165504
0.0165562
0.0165548
0.0165462
0.0165306
0.0165084
0.0164802
0.0165396
0.0165638
0.0165821
0.0165941
0.0165995
0.0165984
0.0165907
0.0165766
0.0165564
0.0165306
0.0165666
0.0165887
0.0166053
0.0166162
0.0166213
0.0166205
0.0166138
0.0166013
0.0165834
0.0165603
0.0165732
0.016593
0.016608
0.0166179
0.0166227
0.0166222
0.0166165
0.0166056
0.0165899
0.0165695
0.0165603
0.0165782
0.0165917
0.0166007
0.0166052
0.016605
0.0166002
0.0165908
0.016577
0.0165591
0.01653
0.0165462
0.0165586
0.016567
0.0165713
0.0165714
0.0165672
0.016559
0.0165468
0.016531
0.0164852
0.0165002
0.0165119
0.0165201
0.0165243
0.0165246
0.0165209
0.0165134
0.0165024
0.016488
0.0164293
0.0164439
0.0164555
0.0164637
0.0164681
0.0164686
0.0164651
0.016458
0.0164475
0.016434
0.016366
0.0163809
0.0163931
0.0164018
0.0164066
0.0164073
0.0164039
0.0163966
0.016386
0.0163728
0.0162989
0.016315
0.0163284
0.016338
0.0163433
0.0163442
0.0163405
0.0163328
0.0163215
0.0163076
0.016231
0.0162492
0.0162641
0.0162748
0.0162808
0.0162817
0.0162777
0.016269
0.0162564
0.0162408
0.016165
0.0161853
0.016202
0.016214
0.0162206
0.0162215
0.0162168
0.0162068
0.0161924
0.0161748
0.0160998
0.0161236
0.0161427
0.0161562
0.0161635
0.0161643
0.0161585
0.0161467
0.0161296
0.0161081
0.0160384
0.0160654
0.016087
0.0161021
0.0161102
0.0161107
0.0161039
0.0160899
0.0160698
0.0160445
0.0159806
0.0160111
0.0160354
0.0160523
0.0160612
0.0160616
0.0160535
0.0160374
0.0160142
0.015985
0.0159273
0.0159615
0.0159886
0.0160074
0.0160171
0.0160173
0.016008
0.0159898
0.0159634
0.01593
0.0158789
0.0159169
0.0159469
0.0159677
0.0159784
0.0159785
0.0159681
0.0159477
0.0159182
0.0158809
0.0158364
0.015878
0.0159109
0.0159337
0.0159454
0.0159456
0.0159342
0.0159119
0.0158795
0.0158386
0.0158001
0.0158451
0.0158807
0.0159054
0.0159182
0.0159185
0.0159063
0.0158822
0.0158473
0.0158032
0.0157698
0.0158178
0.0158559
0.0158824
0.0158962
0.0158966
0.0158838
0.0158582
0.0158211
0.0157742
0.0157446
0.0157951
0.0158353
0.0158634
0.015878
0.0158787
0.0158652
0.0158384
0.0157996
0.0157505
0.0157233
0.0157758
0.0158175
0.0158467
0.015862
0.0158627
0.0158488
0.015821
0.0157806
0.0157297
0.0157038
0.0157576
0.0158004
0.0158303
0.0158459
0.0158464
0.015832
0.0158033
0.0157617
0.0157092
0.0156837
0.0157384
0.0157818
0.015812
0.0158275
0.0158277
0.0158127
0.0157831
0.0157404
0.0156867
0.0156611
0.0157162
0.0157599
0.01579
0.0158052
0.0158049
0.015789
0.0157584
0.0157147
0.0156598
0.0156341
0.0156896
0.0157333
0.0157632
0.0157778
0.0157767
0.0157598
0.0157281
0.0156831
0.015627
0.0156018
0.0156575
0.0157012
0.0157309
0.015745
0.015743
0.0157249
0.0156919
0.0156455
0.0155881
0.0155638
0.0156198
0.0156638
0.0156935
0.0157073
0.0157043
0.015685
0.0156504
0.0156023
0.0155435
0.0155201
0.0155769
0.0156216
0.0156516
0.0156653
0.0156616
0.015641
0.0156047
0.015555
0.0154948
0.0154718
0.0155295
0.0155753
0.015606
0.0156198
0.0156156
0.0155938
0.0155558
0.0155044
0.0154429
0.0154193
0.015478
0.0155251
0.0155569
0.0155711
0.0155665
0.0155434
0.0155037
0.0154505
0.0153876
0.0153619
0.015422
0.0154706
0.0155037
0.0155184
0.0155135
0.0154894
0.015448
0.015393
0.0153291
0.0152997
0.0153604
0.0154103
0.0154447
0.0154602
0.0154551
0.0154299
0.0153871
0.0153308
0.0152665
0.0152295
0.0152906
0.0153418
0.0153774
0.0153936
0.0153884
0.0153622
0.015318
0.0152603
0.0151954
0.0151478
0.0152094
0.0152617
0.0152985
0.0153154
0.0153102
0.0152833
0.0152379
0.0151794
0.0151148
0.0150545
0.0151147
0.0151672
0.0152047
0.0152221
0.0152169
0.0151895
0.0151436
0.0150851
0.0150219
0.014945
0.0150028
0.0150545
0.015092
0.0151095
0.0151044
0.015077
0.0150312
0.0149738
0.0149133
0.0148144
0.0148692
0.0149194
0.0149563
0.0149737
0.0149686
0.0149415
0.0148965
0.0148408
0.0147834
0.0146597
0.0147107
0.0147586
0.0147944
0.0148114
0.0148064
0.0147799
0.0147361
0.0146827
0.014629
0.0144785
0.0145248
0.0145698
0.014604
0.0146203
0.0146154
0.0145897
0.0145477
0.0144972
0.0144481
0.0142694
0.0143104
0.0143517
0.0143837
0.0143991
0.0143943
0.0143698
0.0143301
0.0142832
0.0142395
0.0140315
0.0140667
0.0141038
0.0141332
0.0141474
0.0141427
0.0141195
0.0140826
0.0140399
0.0140019
0.0137648
0.0137936
0.0138261
0.0138524
0.0138652
0.0138606
0.0138391
0.0138053
0.0137673
0.0137354
0.0134698
0.0134918
0.0135192
0.0135421
0.0135532
0.0135487
0.013529
0.0134988
0.0134659
0.0134407
0.0131473
0.0131621
0.013184
0.0132033
0.0132126
0.0132082
0.0131905
0.013164
0.0131366
0.0131185
0.0127982
0.0128058
0.0128221
0.0128376
0.0128451
0.0128408
0.0128251
0.0128025
0.0127808
0.0127699
0.0124244
0.0124247
0.0124354
0.0124471
0.0124528
0.0124486
0.0124349
0.0124163
0.0124003
0.0123966
0.0120279
0.0120211
0.0120262
0.0120342
0.012038
0.0120339
0.0120223
0.0120076
0.0119973
0.0120008
0.0116113
0.0115976
0.0115974
0.0116018
0.0116039
0.0115999
0.0115903
0.0115793
0.0115744
0.0115848
0.0111772
0.0111573
0.0111523
0.0111535
0.011154
0.0111502
0.0111423
0.0111347
0.0111347
0.0111514
0.0107293
0.0107042
0.0106951
0.0106936
0.0106927
0.010689
0.0106828
0.0106781
0.0106822
0.010704
0.0102722
0.0102432
0.0102309
0.010227
0.010225
0.0102214
0.0102165
0.0102144
0.0102219
0.0102477
0.00981187
0.00977989
0.00976497
0.00975918
0.00975624
0.00975281
0.00974914
0.00974911
0.00975934
0.00978805
0.00935413
0.00931989
0.00930274
0.00929523
0.00929144
0.00928817
0.00928568
0.0092876
0.00930019
0.00933116
0.00890401
0.0088677
0.00884841
0.00883923
0.0088346
0.00883153
0.00883023
0.0088341
0.008849
0.00888205
0.00846475
0.0084261
0.00840448
0.0083935
0.008388
0.00838514
0.00838512
0.00839112
0.00840857
0.00844401
0.00803735
0.00799576
0.00797137
0.00795833
0.00795183
0.00794921
0.00795064
0.00795908
0.00797955
0.00801807
0.00762066
0.00757521
0.00754743
0.00753196
0.00752431
0.00752195
0.00752503
0.00753632
0.00756049
0.00760303
0.00721177
0.00716138
0.00712948
0.00711113
0.00710212
0.00710003
0.00710499
0.0071196
0.00714825
0.00719597
0.00680688
0.00675033
0.00671348
0.00669178
0.00668118
0.00667937
0.00668642
0.00670485
0.00673883
0.00679298
0.00640209
0.00633813
0.00629548
0.0062699
0.0062575
0.00625594
0.0062653
0.00628806
0.00632822
0.00639009
0.0059943
0.00592164
0.00587232
0.00584237
0.00582793
0.00582661
0.00583848
0.00586604
0.00591325
0.00598413
0.00558173
0.00549909
0.00544221
0.00540737
0.00539065
0.00538955
0.00540412
0.00543698
0.00549212
0.00557327
0.00516421
0.00507029
0.00500489
0.0049646
0.00494536
0.00494446
0.00496194
0.00500063
0.00506461
0.00515732
0.0047431
0.00463652
0.00456153
0.0045151
0.00449304
0.00449231
0.00451297
0.00455814
0.00463204
0.00473768
0.00432108
0.00420035
0.00411443
0.00406094
0.00403561
0.00403504
0.00405929
0.00411185
0.004197
0.00431706
0.00390183
0.00376528
0.00366669
0.00360483
0.00357556
0.00357513
0.00360361
0.00366488
0.00376304
0.00389919
0.00348978
0.00333568
0.00322211
0.00314984
0.00311552
0.00311519
0.003149
0.00322105
0.0033346
0.00348864
0.00309025
0.0029169
0.00278522
0.0026993
0.00265797
0.00265772
0.0026988
0.00278493
0.0029171
0.00309087
0.00270969
0.00251567
0.00236163
0.0022568
0.00220493
0.00220472
0.00225656
0.0023621
0.00251723
0.00271231
0.00235633
0.00214054
0.00195836
0.00182611
0.00175738
0.00175713
0.00182598
0.00195935
0.00214317
0.00236069
0.00204084
0.00180125
0.00158299
0.00141082
0.00131476
0.00131439
0.00141055
0.00158393
0.00180391
0.00204553
0.00177623
0.00150386
0.00123858
0.00101345
0.000877465
0.00087697
0.00101285
0.00123866
0.00150486
0.00177855
0.0015699
0.0012319
0.000908789
0.000635553
0.000463087
0.00046269
0.000634908
0.000907869
0.00123021
0.001567
0.0013624
0.000900232
0.000546544
0.000291423
0.000148259
0.00014826
0.000291301
0.000545806
0.000897859
0.00135553
0.000807795
0.000396987
0.000171453
6.44252e-05
3.46301e-05
3.46563e-05
6.45204e-05
0.000171411
0.000396214
0.0008048
0.000220143
0.000218685
0.000216794
0.000214417
0.000211511
0.000208051
0.00020404
0.000199509
0.000194523
0.000189884
0.000185299
0.000180681
0.000176021
0.000171343
0.000166677
0.000162047
0.000157473
0.000152966
0.000148527
0.000144156
0.000139846
0.00013559
0.000131379
0.000127202
0.000123049
0.000118909
0.000114771
0.000110618
0.000106436
0.000102204
9.7893e-05
9.34675e-05
8.88721e-05
8.39979e-05
7.86328e-05
7.28549e-05
6.61744e-05
5.8216e-05
4.88537e-05
1.79288e-05
0.00216716
0.00214411
0.00211624
0.00208329
0.00204519
0.00200217
0.00195477
0.00190342
0.00184722
0.00178162
0.00171434
0.00164949
0.00158909
0.00153379
0.00148346
0.00143754
0.0013953
0.00135599
0.00131892
0.0012835
0.00124922
0.00121568
0.00118255
0.00114957
0.00111651
0.00108318
0.00104938
0.00101492
0.000979571
0.000943054
0.00090497
0.000864742
0.000821493
0.000773828
0.000719165
0.000653676
0.000569011
0.000448975
0.000263316
3.08586e-05
0.00438796
0.00434366
0.00428955
0.00422484
0.00414908
0.00406237
0.0039655
0.00385985
0.00374679
0.00362574
0.0035021
0.00338015
0.00326271
0.00315131
0.00304647
0.00294807
0.0028556
0.0027683
0.00268536
0.00260597
0.00252936
0.00245481
0.00238167
0.00230935
0.00223726
0.00216485
0.0020915
0.00201654
0.00193919
0.00185844
0.00177298
0.00168097
0.00157981
0.00146566
0.0013328
0.0011727
0.00097264
0.000714331
0.00037748
3.88556e-05
0.0062817
0.00622341
0.00615214
0.00606676
0.00596644
0.00585103
0.00572135
0.00557932
0.00542792
0.00526852
0.00510581
0.00494348
0.00478418
0.00462962
0.00448073
0.00433787
0.00420096
0.00406964
0.00394335
0.00382141
0.00370309
0.00358762
0.0034742
0.00336204
0.00325028
0.00313799
0.00302417
0.00290763
0.00278694
0.00266034
0.00252552
0.00237946
0.0022181
0.00203585
0.00182508
0.00157542
0.00127324
0.000902477
0.00045486
4.46142e-05
0.00783776
0.00777092
0.00768963
0.00759263
0.00747879
0.00734755
0.00719928
0.00703585
0.00686105
0.00667721
0.00648896
0.00629954
0.00611122
0.00592566
0.00574396
0.00556681
0.00539451
0.00522708
0.00506426
0.00490563
0.00475059
0.00459846
0.00444841
0.00429952
0.00415077
0.00400096
0.00384871
0.00369239
0.00353001
0.00335911
0.00317659
0.00297846
0.00275959
0.00251328
0.00223086
0.00190138
0.00151167
0.00104859
0.000513243
4.9164e-05
0.00910975
0.00903829
0.00895215
0.0088502
0.00873112
0.00859373
0.00843702
0.00826286
0.0080736
0.0078743
0.00766973
0.00746226
0.00725375
0.00704595
0.00684015
0.00663724
0.00643776
0.00624199
0.00604992
0.0058613
0.0056757
0.00549248
0.00531083
0.00512979
0.00494816
0.00476456
0.0045773
0.00438438
0.00418333
0.00397115
0.00374407
0.00349741
0.00322526
0.00292026
0.00257325
0.0021733
0.00170826
0.00116801
0.000561192
5.28628e-05
0.0101559
0.0100825
0.00999514
0.00989299
0.00977542
0.00964133
0.00948436
0.00930175
0.00910442
0.00889633
0.00868065
0.00845981
0.008236
0.00801129
0.0077871
0.0075645
0.00734413
0.00712635
0.00691125
0.00669869
0.00648829
0.00627945
0.00607134
0.00586291
0.00565288
0.00543964
0.00522129
0.00499548
0.00475937
0.00450951
0.00424164
0.00395053
0.0036298
0.00327165
0.00286682
0.00240469
0.00187433
0.00126841
0.00060171
5.60389e-05
0.0110267
0.0109532
0.0108664
0.0107662
0.0106526
0.0105236
0.0103688
0.0101846
0.00998274
0.00976959
0.00954901
0.0093212
0.00908617
0.00884703
0.00860759
0.00836907
0.00813204
0.00789679
0.00766339
0.00743166
0.00720121
0.00697139
0.00674132
0.00650986
0.00627558
0.0060367
0.00579108
0.00553612
0.00526865
0.00498484
0.00468005
0.00434869
0.00398401
0.00357806
0.0031216
0.00260455
0.0020172
0.00135472
0.000636901
5.88464e-05
0.0117622
0.0116891
0.0116036
0.0115057
0.0113953
0.0112697
0.0111205
0.010942
0.0107383
0.0105192
0.0102931
0.0100629
0.00982564
0.00957801
0.0093253
0.00907264
0.00882131
0.0085714
0.00832283
0.00807531
0.00782833
0.00758113
0.00733273
0.00708183
0.00682685
0.00656584
0.00629643
0.00601576
0.0057204
0.0054062
0.00506823
0.0047006
0.00429639
0.00384756
0.00334507
0.0027794
0.00214206
0.00143039
0.000668192
6.13817e-05
0.0123928
0.0123205
0.0122366
0.0121414
0.0120353
0.0119157
0.0117754
0.0116044
0.0114021
0.0111792
0.0109469
0.0107115
0.0104719
0.0102228
0.00996082
0.00969465
0.00943005
0.00916698
0.00890514
0.00864404
0.00838298
0.00812104
0.00785704
0.00758954
0.00731676
0.00703654
0.00674631
0.00644297
0.00612282
0.00578147
0.00541375
0.00501355
0.00457384
0.00408658
0.00354301
0.0029342
0.00225275
0.00149786
0.00069656
6.37123e-05
0.0129409
0.0128697
0.0127878
0.0126959
0.0125948
0.0124832
0.0123537
0.0121913
0.0119918
0.0117669
0.0115299
0.0112894
0.0110463
0.0107952
0.0105284
0.0102502
0.00997281
0.00969742
0.0094235
0.00915028
0.00887685
0.00860207
0.00832454
0.00804262
0.00775433
0.0074573
0.00714874
0.00682531
0.0064831
0.00611748
0.00572307
0.00529362
0.00482202
0.00430031
0.00372
0.00307274
0.00235212
0.00155889
0.000722663
6.58851e-05
0.0134236
0.0133536
0.0132738
0.0131854
0.0130893
0.0129864
0.0128696
0.0127169
0.0125206
0.0122941
0.0120536
0.011809
0.0115621
0.0113079
0.0110379
0.0107501
0.0104603
0.0101733
0.00988822
0.00960404
0.00931955
0.00903337
0.00874391
0.00844929
0.00814732
0.00783543
0.00751061
0.0071693
0.00680738
0.00642
0.00600162
0.00554586
0.00504556
0.00449288
0.00387959
0.00319789
0.00244226
0.00161472
0.000746945
6.79347e-05
0.013853
0.0137844
0.013707
0.0136222
0.0135317
0.0134373
0.0133334
0.0131918
0.0129987
0.0127704
0.0125263
0.0122782
0.012028
0.0117709
0.0114975
0.011201
0.0108999
0.0106024
0.0103072
0.0100131
0.00971862
0.00942225
0.00912215
0.00881623
0.0085021
0.00817699
0.00783766
0.00748037
0.00710076
0.00669383
0.00625386
0.00577437
0.00524818
0.00466753
0.00402449
0.00331174
0.00252453
0.00166599
0.000769517
6.98835e-05
0.0142378
0.0141709
0.0140961
0.0140152
0.0139303
0.013844
0.0137526
0.0136222
0.0134313
0.0132004
0.0129531
0.012702
0.0124494
0.0121901
0.0119133
0.0116085
0.0112974
0.0109904
0.0106862
0.0103833
0.01008
0.0097745
0.00946487
0.00914885
0.00882383
0.00848686
0.00813451
0.00776284
0.0073673
0.00694273
0.00648326
0.00598232
0.0054327
0.00482674
0.00415671
0.0034157
0.0025996
0.00171256
0.00078976
7.17788e-05
0.0145839
0.0145188
0.0144468
0.0143698
0.01429
0.0142102
0.0141292
0.0140101
0.0138192
0.0135857
0.0133359
0.0130831
0.0128293
0.0125684
0.0122885
0.0119763
0.0116567
0.0113418
0.0110298
0.0107192
0.010408
0.0100945
0.00977641
0.00945136
0.00911659
0.00876898
0.00840492
0.00802029
0.0076104
0.0071699
0.00669281
0.00617247
0.00560165
0.00497276
0.00427826
0.00351159
0.00266921
0.00175613
0.000809031
7.35847e-05
0.0148956
0.0148324
0.0147631
0.0146898
0.0146152
0.0145419
0.0144691
0.0143548
0.0141638
0.013929
0.0136779
0.013424
0.0131693
0.0129073
0.0126244
0.0123067
0.0119808
0.0116596
0.0113413
0.0110241
0.0107062
0.0103856
0.01006
0.00972695
0.00938348
0.00902634
0.00865176
0.00825548
0.00783265
0.00737779
0.00688478
0.00634692
0.00575693
0.00510729
0.00439062
0.00360066
0.00273433
0.00179735
0.000827572
7.53032e-05
0.0151758
0.0151147
0.0150482
0.0149788
0.0149097
0.0148439
0.014777
0.0146603
0.0144698
0.0142355
0.0139834
0.0137278
0.0134716
0.0132086
0.0129233
0.0126023
0.0122726
0.0119467
0.0116233
0.0113007
0.010977
0.0106503
0.0103182
0.00997802
0.00962683
0.00926118
0.00887719
0.00847046
0.00803599
0.00756819
0.00706085
0.00650717
0.00589988
0.00523149
0.00449474
0.00368363
0.00279545
0.00183643
0.000845392
7.6934e-05
0.0154264
0.0153675
0.0153039
0.0152385
0.0151745
0.0151157
0.0150507
0.0149283
0.0147385
0.0145055
0.0142532
0.0139963
0.0137385
0.0134746
0.0131894
0.0128677
0.012535
0.0122054
0.0118779
0.0115508
0.0112224
0.0108904
0.0105527
0.0102063
0.00984835
0.00947516
0.0090828
0.00866671
0.00822181
0.0077424
0.00722217
0.00665426
0.00603139
0.00534608
0.00459119
0.00376089
0.00285274
0.0018734
0.000862431
7.84744e-05
0.0156487
0.0155921
0.0155313
0.0154693
0.0154093
0.0153553
0.0152894
0.0151609
0.0149704
0.0147386
0.0144873
0.0142303
0.0139718
0.0137072
0.0134234
0.0131052
0.0127705
0.0124378
0.0121069
0.0117762
0.0114437
0.0111074
0.0107649
0.0104132
0.0100493
0.00966951
0.00926973
0.00884533
0.00839113
0.00790133
0.00736955
0.00678888
0.00615201
0.00545148
0.00468023
0.00383255
0.00290622
0.00190818
0.000878603
7.99202e-05
0.0158437
0.0157893
0.015731
0.0156716
0.0156143
0.0155625
0.0154943
0.0153609
0.0151685
0.0149375
0.0146876
0.0144317
0.0141735
0.0139089
0.0136273
0.0133149
0.0129802
0.012645
0.0123114
0.0119777
0.0116421
0.0113023
0.0109558
0.0105997
0.0102307
0.00984511
0.00943882
0.00900709
0.00854463
0.00804558
0.0075035
0.00691143
0.00626204
0.00554788
0.00476194
0.00389859
0.00295577
0.00194063
0.000893808
8.1267e-05
0.0160123
0.0159599
0.0159037
0.0158464
0.0157909
0.0157397
0.0156688
0.015531
0.0153365
0.0151059
0.0148578
0.0146035
0.0143462
0.0140821
0.0138024
0.0134967
0.0131644
0.0128273
0.0124919
0.0121562
0.0118183
0.0114758
0.0111261
0.0107663
0.0103931
0.0100026
0.00959068
0.00915252
0.00868279
0.00817556
0.00762435
0.00702216
0.00636164
0.00563534
0.00483629
0.00395892
0.00300126
0.0019706
0.000907948
8.25104e-05
0.0161554
0.016105
0.0160508
0.0159952
0.0159409
0.0158898
0.0158158
0.0156738
0.0154773
0.0152472
0.0150011
0.0147489
0.0144931
0.0142301
0.0139524
0.0136513
0.0133219
0.0129847
0.0126487
0.0123121
0.0119728
0.0116285
0.0112765
0.0109138
0.0105371
0.0101425
0.00972574
0.00928203
0.00880595
0.00829156
0.00773231
0.0071212
0.00645084
0.00571382
0.00490316
0.00401336
0.00304248
0.00199792
0.000920916
8.36464e-05
0.0162744
0.016226
0.0161737
0.0161197
0.0160664
0.0160154
0.0159383
0.0157916
0.0155929
0.0153637
0.0151199
0.0148702
0.0146163
0.0143547
0.0140787
0.0137804
0.0134536
0.0131176
0.0127822
0.0124458
0.0121061
0.0117608
0.0114073
0.0110425
0.0106631
0.0102651
0.00984436
0.00939592
0.00891439
0.00839377
0.00782753
0.00720861
0.00652967
0.00578326
0.00496243
0.0040617
0.0030792
0.00202236
0.000932603
8.46719e-05
0.0163704
0.0163243
0.0162742
0.0162221
0.01617
0.0161191
0.016038
0.0158865
0.0156861
0.0154578
0.0152164
0.0149693
0.0147174
0.0144571
0.0141821
0.0138852
0.0135604
0.0132268
0.0128932
0.0125579
0.0122187
0.0118733
0.0115191
0.0111529
0.0107715
0.0103709
0.0099469
0.0094945
0.00900833
0.00848236
0.00791007
0.0072844
0.00659799
0.00584344
0.00501381
0.00410364
0.00311106
0.00204355
0.000942712
8.55938e-05
0.0164446
0.0164013
0.016354
0.0163045
0.0162547
0.0162039
0.0161158
0.0159602
0.0157587
0.0155315
0.0152921
0.0150472
0.0147971
0.0145379
0.0142631
0.0139661
0.0136434
0.0133133
0.0129825
0.0126492
0.0123114
0.0119667
0.0116125
0.0112457
0.0108629
0.0104604
0.0100338
0.00957817
0.00908812
0.00855765
0.00798021
0.00734877
0.006656
0.00589448
0.00505732
0.00413907
0.00313787
0.00206124
0.000951029
8.64164e-05
0.016498
0.016458
0.016414
0.0163677
0.0163215
0.0162696
0.0161718
0.0160129
0.015811
0.0155848
0.0153471
0.0151039
0.0148552
0.0145968
0.0143222
0.0140243
0.0137039
0.0133781
0.013051
0.0127207
0.012385
0.0120417
0.0116881
0.0113213
0.0109379
0.0105341
0.0101055
0.00964736
0.00915417
0.00861998
0.00803827
0.00740203
0.00670394
0.00593663
0.00509322
0.00416828
0.00315997
0.00207584
0.000957942
8.71258e-05
0.0165308
0.0164944
0.016454
0.0164109
0.0163675
0.0163126
0.0162056
0.0160432
0.015841
0.0156163
0.0153807
0.0151396
0.0148924
0.0146349
0.0143604
0.0140598
0.0137425
0.0134227
0.0131002
0.0127735
0.0124405
0.0120991
0.0117468
0.0113805
0.010997
0.0105925
0.0101626
0.00970254
0.00920691
0.00866978
0.00808463
0.00744451
0.00674214
0.00597017
0.00512176
0.00419151
0.00317759
0.00208755
0.000963546
8.77234e-05
0.0165433
0.0165106
0.0164735
0.0164326
0.0163901
0.0163312
0.0162158
0.0160492
0.0158472
0.0156249
0.0153927
0.0151545
0.0149092
0.014652
0.014376
0.0140749
0.0137633
0.0134492
0.0131315
0.0128086
0.0124788
0.0121399
0.0117892
0.011424
0.0110409
0.0106362
0.0102056
0.00974424
0.00924684
0.00870749
0.00811972
0.00747662
0.00677095
0.00599543
0.00514324
0.00420901
0.00319092
0.00209649
0.000967897
8.82124e-05
0.016536
0.0165067
0.0164726
0.0164328
0.0163885
0.0163243
0.0162027
0.0160328
0.0158317
0.0156128
0.0153845
0.0151496
0.0149063
0.0146497
0.0143722
0.0140729
0.013767
0.0134585
0.0131457
0.0128271
0.0125008
0.0121647
0.0118162
0.0114525
0.0110703
0.0106659
0.010235
0.00977299
0.00927448
0.00873361
0.00814399
0.00749877
0.00679077
0.00601275
0.00515795
0.00422102
0.00320014
0.00210278
0.000971049
8.85962e-05
0.0165105
0.0164845
0.0164531
0.0164134
0.0163663
0.0162942
0.016166
0.0159953
0.0157967
0.0155819
0.0153574
0.0151253
0.0148837
0.0146279
0.014348
0.0140525
0.0137538
0.0134514
0.0131439
0.0128298
0.0125073
0.0121743
0.0118283
0.0114665
0.0110857
0.0106821
0.0102515
0.0097894
0.00929038
0.00874868
0.00815797
0.00751146
0.00680203
0.00602253
0.00516623
0.00422782
0.00320546
0.00210654
0.000973067
8.8879e-05
0.0164697
0.0164468
0.0164178
0.0163763
0.0163237
0.0162416
0.0161087
0.0159387
0.0157432
0.0155322
0.0153109
0.0150806
0.0148393
0.0145829
0.0143052
0.0140169
0.0137251
0.0134288
0.0131268
0.0128175
0.0124991
0.0121696
0.0118264
0.0114669
0.0110878
0.0106855
0.0102558
0.00979408
0.00929515
0.00875327
0.00816219
0.00751518
0.0068052
0.00602518
0.00516844
0.0042297
0.0032071
0.00210795
0.000974023
8.90659e-05
0.0164174
0.0163975
0.0163699
0.0163238
0.0162639
0.0161704
0.0160333
0.0158635
0.0156702
0.0154622
0.0152437
0.0150154
0.0147752
0.0145198
0.0142469
0.0139661
0.0136812
0.0133913
0.013095
0.0127908
0.0124768
0.012151
0.0118111
0.0114543
0.0110774
0.0106768
0.0102484
0.00978767
0.00928942
0.008748
0.00815724
0.00751049
0.00680081
0.00602117
0.00516498
0.00422699
0.00320532
0.00210715
0.000973996
8.91622e-05
0.016357
0.0163393
0.0163109
0.0162531
0.016176
0.0160735
0.0159373
0.0157676
0.015576
0.0153707
0.0151551
0.0149294
0.0146918
0.0144397
0.0141732
0.0139004
0.0136229
0.0133397
0.0130493
0.0127504
0.0124412
0.0121195
0.0117832
0.0114294
0.0110551
0.0106567
0.0102301
0.00977087
0.00927387
0.00873353
0.00814376
0.007498
0.00678939
0.00601101
0.00515631
0.00422007
0.0032004
0.00210434
0.000973074
8.91744e-05
0.0162915
0.0162745
0.0162404
0.0161647
0.01607
0.0159584
0.0158194
0.0156493
0.0154608
0.0152595
0.0150477
0.0148252
0.0145912
0.0143432
0.0140846
0.0138207
0.013551
0.0132747
0.0129906
0.0126973
0.012393
0.0120758
0.0117434
0.0113931
0.0110218
0.010626
0.0102017
0.00974444
0.00924924
0.00871058
0.00812244
0.00747836
0.00677158
0.00599525
0.00514289
0.00420934
0.00319265
0.00209973
0.000971354
8.911e-05
0.0162227
0.0162033
0.0161641
0.0160716
0.0159587
0.0158342
0.0156867
0.015516
0.0153304
0.0151329
0.0149246
0.0147054
0.0144751
0.0142334
0.0139839
0.0137286
0.0134667
0.0131975
0.0129198
0.0126323
0.0123333
0.0120209
0.0116927
0.0113462
0.0109783
0.0105855
0.010164
0.00970922
0.00921635
0.00867993
0.00809403
0.00745229
0.00674803
0.00597449
0.00512528
0.00419524
0.00318242
0.00209355
0.000968949
8.89745e-05
0.0161546
0.0161342
0.0160858
0.0159728
0.0158406
0.0157009
0.0155445
0.0153716
0.0151872
0.0149923
0.0147875
0.0145726
0.0143477
0.0141137
0.0138731
0.013626
0.0133718
0.0131096
0.0128384
0.0125568
0.0122633
0.0119558
0.0116322
0.0112898
0.0109256
0.0105363
0.0101179
0.00966613
0.00917609
0.00864245
0.00805936
0.00742056
0.00671946
0.00594939
0.00510403
0.00417826
0.00317007
0.00208603
0.000965964
8.87773e-05
0.0160822
0.0160526
0.0160032
0.0158754
0.0157173
0.0155593
0.0153957
0.0152209
0.0150359
0.0148427
0.0146413
0.0144314
0.0142129
0.0139871
0.0137546
0.0135152
0.0132682
0.0130128
0.012748
0.0124723
0.0121842
0.0118819
0.011563
0.011225
0.0108649
0.0104794
0.0100645
0.00961616
0.00912942
0.00859905
0.0080193
0.00738399
0.00668663
0.00592063
0.00507975
0.00415889
0.003156
0.00207745
0.000962516
8.85281e-05
0.0160138
0.0159788
0.0159172
0.0157683
0.0155948
0.0154229
0.015249
0.0150704
0.0148849
0.0146925
0.0144936
0.0142879
0.0140755
0.0138567
0.0136312
0.0133985
0.0131581
0.0129091
0.0126503
0.0123804
0.0120978
0.0118006
0.0114866
0.0111531
0.0107974
0.0104159
0.010005
0.00956039
0.00907736
0.00855071
0.00797477
0.00734344
0.00665033
0.00588893
0.00505306
0.00413765
0.00314059
0.00206805
0.000958727
8.82369e-05
0.0159494
0.0159085
0.0158335
0.0156654
0.0154789
0.0152952
0.015112
0.0149273
0.0147393
0.0145469
0.0143496
0.0141471
0.0139392
0.0137255
0.0135055
0.0132786
0.013044
0.0128006
0.0125475
0.012283
0.0120057
0.0117136
0.0114044
0.0110756
0.0107243
0.0103472
0.00994045
0.00949993
0.00902097
0.00849842
0.00792669
0.00729977
0.00661135
0.00585499
0.00502457
0.00411505
0.00312424
0.00205809
0.000954709
8.79135e-05
0.0158891
0.0158411
0.0157544
0.015571
0.0153726
0.0151783
0.0149864
0.0147952
0.0146031
0.0144091
0.014212
0.0140112
0.0138061
0.0135959
0.0133801
0.0131577
0.0129279
0.0126896
0.0124414
0.012182
0.0119097
0.0116224
0.011318
0.0109939
0.0106472
0.0102745
0.0098721
0.00943592
0.0089613
0.00844317
0.00787599
0.00725384
0.00657045
0.00581949
0.00499487
0.00409155
0.00310729
0.00204781
0.000950569
8.75671e-05
0.015835
0.015781
0.0156824
0.0154847
0.0152759
0.0150722
0.0148722
0.0146745
0.0144778
0.0142808
0.0140824
0.0138817
0.0136779
0.0134699
0.013257
0.013038
0.0128121
0.0125779
0.0123341
0.0120792
0.0118114
0.0115288
0.011229
0.0109094
0.0105672
0.010199
0.00980111
0.00936943
0.00889938
0.00838591
0.00782355
0.00720643
0.00652836
0.00578305
0.00496445
0.00406753
0.00308998
0.0020373
0.000946351
8.72081e-05
0.0157882
0.0157291
0.0156184
0.0154071
0.015189
0.0149766
0.014769
0.0145649
0.0143631
0.0141624
0.0139617
0.01376
0.0135561
0.0133491