/*--------------------------------*- C++ -*----------------------------------*\
  =========                 |
  \\      /  F ield         | OpenFOAM: The Open Source CFD Toolbox
   \\    /   O peration     | Website:  https://openfoam.org
    \\  /    A nd           | Version:  8
     \\/     M anipulation  |
\*---------------------------------------------------------------------------*/
FoamFile
{
    version     2.0;
    format      ascii;
    class       volScalarField;
    location    "1";
    object      p;
}
// * * * * * * * * * * * * * * * * * * * * * * * * * * * * * * * * * * * * * //

dimensions      [1 -1 -2 0 0 0 0];

internalField   nonuniform List<scalar> 
9150
(
367.976
341.158
315.501
298.266
289.904
289.904
298.266
315.501
341.159
367.977
339.123
319.732
303.935
292.122
286.091
286.091
292.122
303.935
319.732
339.123
309.87
296.45
287.753
280.019
275.866
275.866
280.019
287.753
296.45
309.87
285.115
275.293
269.657
264.331
261.333
261.333
264.331
269.657
275.293
285.115
263.759
255.155
250.356
246.202
243.754
243.754
246.202
250.356
255.155
263.759
1.85252
-3.1667
22.0841
36.5029
42.903
42.9039
36.5055
22.088
-3.16152
1.85868
171.854
147.319
141.898
140.601
140.475
140.475
140.602
141.9
147.322
171.857
276.743
244.738
228.566
218.627
213.772
213.772
218.628
228.567
244.74
276.744
357.12
314.459
286.284
268.941
260.338
260.338
268.942
286.285
314.46
357.121
405.533
354.22
315.561
293.52
283.322
283.322
293.52
315.562
354.221
405.534
-85.6577
-44.2837
-51.6479
-45.4579
-49.1628
-49.1566
-45.4422
-51.6168
-44.2349
-85.5774
-78.8228
-56.9407
-75.2109
-69.0005
-70.8757
-70.8688
-68.9905
-75.1843
-56.8988
-78.7634
-124.116
-89.6863
-116.411
-112.316
-107.702
-107.699
-112.306
-116.392
-89.6594
-124.081
-302.215
-176.656
-153.007
-136.044
-120.589
-120.587
-136.036
-152.992
-176.639
-302.191
-434.083
-206.042
-106.889
-76.6202
-61.7625
-61.7611
-76.6156
-106.882
-206.033
-434.066
2041.15
2085.17
2118.32
2140.14
2150.5
2149.7
2137.75
2114.37
2079.77
2034.45
1786.43
1823.87
1853.24
1873.58
1884.13
1883.42
1871.55
1850
1819.52
1781.1
1522.03
1546.41
1565.63
1578.77
1585.3
1584.87
1577.47
1563.49
1543.45
1518.27
1386.65
1401.93
1413.9
1422.08
1426.09
1425.75
1421.05
1412.14
1399.35
1383.18
1330.35
1335.67
1340.22
1343.51
1345.17
1344.97
1342.87
1339.02
1333.75
1327.4
1323.95
1319.34
1316.55
1315.06
1314.52
1314.67
1315.51
1317.29
1320.36
1325.15
1338.61
1326.81
1318.59
1313.5
1311.38
1312.08
1315.71
1322.65
1333.27
1348.55
1351.73
1336.81
1326.23
1319.34
1316.26
1317.03
1321.81
1330.8
1344.3
1364.09
1361.43
1342.83
1330.71
1322.64
1318.51
1318.41
1322.36
1330.29
1342.36
1361.18
1364.27
1340.2
1326.68
1317.96
1312.96
1311.64
1313.83
1319.23
1328.12
1344.2
1341.9
1319.09
1307.72
1300.84
1296.66
1295.12
1296.04
1299.05
1304.87
1317.95
1295.12
1281.58
1275.93
1273.13
1271.43
1270.93
1271.65
1273.43
1277.91
1289.66
1251.56
1244.86
1242.54
1242.54
1242.89
1243.53
1244.61
1246.53
1252.18
1264.36
1222.88
1216.61
1213.27
1213.43
1214.26
1215.21
1216.36
1218.65
1225.73
1237.88
1198.64
1190.25
1184.87
1184.24
1184.83
1185.62
1186.62
1189.17
1197.28
1208.4
1168.23
1159.97
1153.81
1152.83
1153.21
1153.64
1154.13
1156.15
1163.57
1170.55
1127.4
1123.89
1119.18
1118.83
1119.49
1119.78
1119.7
1120.76
1126.02
1127.76
1087.1
1087.98
1084.82
1085.15
1086.19
1086.54
1086.26
1086.76
1090.56
1088.84
1054.5
1057.16
1054.01
1054.2
1055.23
1055.65
1055.49
1056.22
1059.93
1056.04
1024.2
1028.19
1025.1
1025.07
1026.09
1026.64
1026.75
1027.95
1032.16
1028.15
993.39
998.792
996.544
996.818
997.977
998.674
998.927
1000.2
1004.05
999.146
962.722
969.926
969.029
969.829
971.231
972.029
972.287
973.307
976.248
970.098
937.162
944.579
944.257
945.277
946.726
947.568
947.829
948.711
951.15
944.684
915.215
922.196
922.05
923.09
924.52
925.357
925.635
926.436
928.533
922.308
893.984
901.121
901.525
902.769
904.23
905.054
905.253
905.763
907.163
900.94
875.324
882.401
883.376
884.844
886.345
887.124
887.193
887.348
888.034
881.901
859.322
866.274
867.839
869.614
871.187
871.89
871.704
871.303
870.991
864.127
844.555
852.151
854.899
857.378
859.305
860.14
859.876
859.071
857.948
851.115
831.198
840.483
845.224
848.892
851.425
852.508
852.16
850.8
848.562
841.375
826.163
836.268
842.068
846.451
849.361
850.557
850.036
848.071
844.782
837.076
819.884
835.93
843.843
849.554
853.303
854.87
854.313
851.985
848.036
838.465
836.638
852.11
858.705
863.548
866.805
868.09
867.426
865.256
861.786
851.075
868.79
880.786
883.666
886.137
888.121
888.916
888.498
887.479
886.114
876.856
918.709
922.774
918.123
916.011
915.775
916.131
917.051
919.72
924.836
922.282
945.016
952.4
944.265
939.498
938.002
937.928
939.288
943.971
951.906
943.059
977.592
983.339
968.639
959.703
956.385
955.901
958.294
966.373
979.641
969.35
969.667
988.387
973.521
963.821
960.347
959.577
961.543
969.652
981.717
956.815
939.169
974.064
964.117
956.118
953.514
952.782
953.976
960.44
967.642
928.257
912.716
957.324
950.811
943.919
941.831
941.111
941.787
947.03
950.578
902.241
886.968
938.488
934.833
928.879
927.249
926.676
927.206
931.864
932.998
878.371
863.956
920.653
918.835
913.257
911.844
911.495
912.332
917.289
917.039
857.069
842.842
904.23
903.572
897.603
895.929
895.627
896.886
902.316
899.608
833.054
819.215
886.485
887.827
881.116
878.798
878.268
879.677
885.275
880.166
807.188
793.94
866.946
870.052
862.698
859.774
858.981
860.465
866.032
857.803
777.587
764.955
844.478
849.998
842.166
838.672
837.605
839.104
844.397
832.205
743.924
731.546
818.449
827.342
819.41
815.519
814.286
815.85
820.722
803.621
705.935
693.268
788.927
802.412
794.859
790.862
789.74
791.711
796.497
774.025
665.269
651.741
757.824
776.667
769.558
765.532
764.739
767.527
772.753
744.423
622.282
607.033
725.954
750.948
744.11
739.99
739.695
743.756
750.055
715.27
576.959
559.576
693.887
725.75
718.738
714.212
714.369
719.849
727.344
685.26
529.517
510.553
661.409
700.67
693.015
687.636
687.924
694.344
701.992
652.16
485.205
461.038
625.222
672.862
665.297
659.253
659.609
666.54
673.399
616.666
447.076
417.606
586.474
641.957
635.494
629.284
629.94
637.539
644.001
582.672
415.101
382.632
548.943
609.753
604.22
597.704
598.311
606.024
611.346
545.55
381.858
347.85
508.943
574.56
570.565
564.084
564.684
572.314
576.082
505.965
346.336
310.767
466.896
537.289
535.324
529.236
530.095
537.793
539.492
465.262
310.187
275.002
425.736
500.222
500.328
494.28
495.036
502.405
501.458
423.05
273.03
239.911
384.261
462.904
465.637
459.575
460.058
466.977
463.713
381.803
236.603
206.779
345.789
427.11
431.646
425.613
425.957
432.586
427.577
344.103
205.297
177.376
309.858
392.463
398.493
392.472
392.625
398.819
392.135
308.458
177.914
150.687
276.073
359.105
366.388
360.383
360.394
366.287
358.254
274.519
151.065
124.018
243.295
326.544
334.974
329.065
329.021
334.745
325.698
242.053
124.33
102.604
212.841
294.212
303.713
298.148
298.061
303.37
293.342
211.868
103.106
85.3344
184.764
262.451
272.81
267.782
267.678
272.434
261.659
184.116
86.0574
68.8908
158.753
232.218
242.968
238.415
238.305
242.593
231.517
158.287
69.5565
55.6364
135.54
203.539
214.204
210.113
210.01
213.862
202.954
135.234
56.2466
44.7748
114.219
175.701
186.065
182.551
182.456
185.756
175.206
114.027
45.3456
35.7782
94.9017
149.139
158.9
155.99
155.908
158.635
148.739
94.808
36.3262
28.4007
77.5557
124.049
132.908
130.589
130.526
132.71
123.77
77.556
28.9022
22.1558
61.8671
100.408
108.149
106.406
106.365
108.022
100.246
61.9477
22.6092
17.2014
47.8001
78.2265
84.7062
83.5275
83.504
84.6341
78.1506
47.9278
17.6074
13.1329
35.1038
57.5006
62.6395
62.0124
62.0015
62.6064
57.4802
35.2458
13.4751
9.80885
23.7085
38.3319
42.1171
42.0085
42.0077
42.1153
38.3538
23.851
10.0825
6.94819
13.4256
20.767
23.2236
23.5818
23.5892
23.2469
20.8228
13.5687
7.17135
4.5392
4.16461
4.7683
5.9787
6.75897
6.77295
6.0216
4.85082
4.30902
4.72441
2.46651
-4.18238
-9.70618
-9.61024
-8.4447
-8.42557
-9.55141
-9.60213
-4.0361
2.62261
0.680195
-11.7057
-22.6895
-23.5417
-22.0271
-22.0041
-23.4711
-22.5697
-11.5584
0.813727
-0.903593
-18.4931
-34.2031
-35.8123
-33.9864
-33.9608
-35.7337
-34.0727
-18.3452
-0.785951
-2.34672
-24.5986
-44.2668
-46.4304
-44.332
-44.3048
-46.3469
-44.1296
-24.4502
-2.24036
-3.71278
-30.095
-52.9296
-55.4334
-53.0981
-53.0702
-55.3478
-52.7889
-29.9461
-3.61417
-5.04515
-35.0343
-60.2476
-62.8767
-60.3363
-60.3087
-62.7917
-60.107
-34.8859
-4.95216
-6.37577
-39.4617
-66.2873
-68.8326
-66.114
-66.0874
-68.7504
-66.1496
-39.315
-6.28701
-7.72419
-43.406
-71.1125
-73.3814
-70.5088
-70.4838
-73.304
-70.9808
-43.2625
-7.6389
-9.10018
-46.8799
-74.7817
-76.6035
-73.5985
-73.5756
-76.5322
-74.6582
-46.7413
-9.01776
-10.5055
-49.8819
-77.3417
-78.5718
-75.4574
-75.4367
-78.5074
-77.2279
-49.7492
-10.4252
-11.9349
-52.3957
-78.8283
-79.3524
-76.1505
-76.1322
-79.2953
-78.7255
-52.2701
-11.8561
-13.3772
-54.3926
-79.2655
-78.9995
-75.7331
-75.7172
-78.9498
-79.1743
-54.275
-13.2994
-14.8149
-55.8315
-78.6669
-77.5574
-74.2498
-74.2361
-77.5147
-78.5871
-55.7226
-14.7382
-16.2227
-56.6598
-77.0377
-75.0638
-71.7389
-71.7271
-75.0271
-76.9686
-56.5598
-16.1472
-17.5638
-56.8067
-74.3789
-71.5589
-68.2426
-68.2322
-71.5276
-74.3199
-56.7164
-17.4899
-18.7839
-56.1992
-70.7104
-67.1062
-63.8261
-63.8171
-67.0797
-70.6618
-56.1201
-18.7126
-19.814
-54.7613
-66.0978
-61.8254
-58.6066
-58.5985
-61.8032
-66.06
-54.6961
-19.7458
-20.5704
-52.5316
-60.7592
-55.9628
-52.811
-52.8031
-55.9434
-60.7316
-52.4818
-20.5052
-21.0331
-49.7291
-55.126
-49.9449
-46.8055
-46.7966
-49.9252
-55.1055
-49.695
-20.9723
-21.2593
-46.807
-49.7055
-44.1182
-40.8642
-40.8538
-44.0965
-49.6881
-46.7864
-21.2083
-21.5269
-44.483
-45.0882
-39.043
-35.7394
-35.7285
-39.0197
-45.0712
-44.4727
-21.4906
-23.2623
-44.8424
-42.7036
-36.4018
-33.5591
-33.5497
-36.3792
-42.6827
-44.8338
-23.2402
-29.4172
-47.257
-40.5664
-35.6087
-33.6769
-33.6708
-35.5905
-40.5394
-47.2264
-29.3849
-42.2394
-36.3218
-29.9376
-32.8201
-33.5653
-33.562
-32.8104
-29.9231
-36.273
-42.1335
-51.4343
-14.6099
-25.4491
-33.9182
-38.0379
-38.034
-33.9097
-25.442
-14.5911
-51.3156
1975.76
1903.67
1823.58
1738.33
1651.47
1566.86
1488.23
1418.74
1360.48
1311.69
1270.25
1235.11
1205.9
1182.03
1162.73
1147.27
1135.02
1125.5
1118.28
1113.02
1109.42
1107.27
1106.35
1106.51
1107.6
1109.49
1112.09
1115.29
1119.01
1123.14
1127.61
1132.31
1137.2
1142.39
1151.68
1156.15
1159.11
1161.25
1162.11
1167.84
1733.29
1674.38
1610.54
1545.13
1481.4
1422.45
1370.74
1327.33
1291.99
1266.38
1246.6
1230.4
1216.38
1203.7
1191.92
1180.96
1170.88
1161.78
1153.75
1146.87
1141.15
1136.57
1133.08
1130.61
1129.09
1128.43
1128.51
1129.24
1130.49
1132.13
1134.03
1136.02
1137.93
1139.98
1142.98
1145.37
1147.3
1146.93
1146.69
1152.56
1487.16
1449.33
1409.32
1369.86
1333.43
1302.35
1277.98
1260.56
1249.15
1242.24
1237.48
1232.32
1226.16
1219.2
1211.54
1203.37
1194.99
1186.74
1178.88
1171.6
1165.02
1159.2
1154.19
1149.95
1146.46
1143.65
1141.44
1139.72
1138.4
1137.33
1136.39
1135.44
1134.37
1133.24
1132.29
1131.54
1130.45
1131.45
1139.44
1141.49
1363.03
1339.37
1314.75
1290.87
1269.32
1250.11
1227.82
1201.54
1181.97
1179.16
1188.12
1194.58
1194.35
1191.52
1187.86
1183.89
1179.4
1174.43
1169.2
1163.94
1158.83
1153.97
1149.45
1145.32
1141.58
1138.2
1135.15
1132.37
1129.78
1127.32
1124.92
1122.55
1120.2
1118.04
1116.29
1115.23
1115.41
1118.68
1126.86
1136.73
1320
1312.52
1308.11
1309.06
1306.25
1273.32
1178.27
1040.08
964.248
973.273
1023.08
1084.1
1124.47
1139.18
1141.7
1142.28
1142.58
1142.19
1140.95
1139
1136.58
1133.88
1131.03
1128.13
1125.21
1122.32
1119.47
1116.66
1113.86
1111.08
1108.32
1105.63
1103.13
1101.03
1099.67
1099.54
1101.74
1108.51
1120.85
1132.82
1333.5
1350.93
1384.94
1420.29
1360.99
1134.15
919.762
863.408
846.078
840.697
847.28
880.112
953.812
1031.51
1072.7
1086.61
1093.06
1098.04
1101.8
1104.14
1105.27
1105.49
1105.03
1104.06
1102.69
1101.01
1099.09
1096.98
1094.72
1092.38
1090.02
1087.76
1085.79
1084.38
1083.93
1085.01
1088.8
1097.47
1111.52
1124.13
1374.32
1425.25
1496.08
1465.52
1185.3
914.833
847.779
835.978
832.823
829.586
827.38
826.779
836.622
891.08
971.395
1022.9
1041.86
1050.86
1058.39
1064.71
1069.47
1072.82
1075.03
1076.33
1076.9
1076.87
1076.35
1075.44
1074.23
1072.83
1071.37
1069.99
1068.94
1068.51
1069.12
1071.3
1076.16
1085.58
1099.61
1111.53
1399.98
1464.42
1495.02
1289.34
946.934
847.595
831.33
827.728
826.392
825.452
824.788
824.415
824.395
826.75
866.084
937.622
986.363
1004.93
1015.29
1024.55
1032.53
1038.88
1043.74
1047.39
1050.03
1051.84
1052.95
1053.5
1053.62
1053.45
1053.12
1052.83
1052.82
1053.38
1054.88
1057.81
1063.1
1072.24
1085.04
1095.63
1396.85
1447.22
1400.91
1117.24
871.192
831.435
825.212
823.885
823.343
823.061
822.841
822.516
822.144
822.53
825.532
860.281
921.824
958.968
974.781
986.246
996.721
1005.69
1012.99
1018.85
1023.5
1027.14
1029.93
1032.02
1033.56
1034.69
1035.57
1036.39
1037.38
1038.79
1040.94
1044.22
1049.35
1057.47
1068.25
1077.01
1373.61
1387.82
1265.98
995.463
841.567
825.073
822.223
821.502
821.213
821.091
820.992
820.811
820.587
820.5
820.859
826.168
864.69
912.677
936.696
950.956
963.412
974.495
983.884
991.694
998.16
1003.49
1007.86
1011.42
1014.32
1016.7
1018.73
1020.58
1022.43
1024.51
1027.05
1030.34
1034.91
1041.54
1049.86
1056.5
1339.08
1316.06
1148.43
923.401
831.6
822.53
820.558
819.883
819.569
819.411
819.305
819.184
819.018
818.769
818.532
819.832
836.182
873.838
901.65
919.099
933.413
946.106
957.111
966.501
974.483
981.257
986.995
991.848
995.957
999.462
1002.5
1005.21
1007.76
1010.3
1013.01
1016.07
1019.82
1024.71
1030.44
1034.85
1300.42
1234.08
1047.36
889.728
831.287
821.134
818.805
818.11
817.84
817.692
817.594
817.51
817.398
817.226
817.215
818.088
822.334
843.341
870.685
890.868
906.902
920.803
932.968
943.532
952.675
960.582
967.418
973.323
978.427
982.85
986.706
990.11
993.169
995.995
998.691
1001.36
1004.17
1007.3
1010.52
1012.63
1257.32
1144.42
970.667
872.156
831.714
818.779
816.787
816.141
815.923
815.809
815.744
815.704
815.673
815.651
815.777
816.284
815.77
824.505
847.285
867.91
884.65
899.04
911.744
922.956
932.821
941.489
949.099
955.774
961.619
966.733
971.203
975.105
978.509
981.474
984.046
986.258
988.127
989.617
990.58
990.906
1213.78
1073.31
922.167
855.387
828.347
816.49
815.22
814.271
813.91
813.767
813.703
813.683
813.696
813.744
813.873
814.133
811.651
813.783
830.761
849.982
866.37
880.559
893.237
904.613
914.782
923.847
931.912
939.07
945.404
950.981
955.858
960.083
963.684
966.676
969.058
970.806
971.829
971.908
970.967
969.823
1170.34
1020.23
889.474
843.376
825.643
815.39
812.963
811.694
811.403
811.36
811.357
811.388
811.456
811.567
811.709
811.778
807.949
805.79
818.024
835.472
851.032
864.637
876.933
888.13
898.279
907.44
915.682
923.067
929.652
935.479
940.579
944.968
948.643
951.584
953.752
955.079
955.393
954.344
951.923
949.636
1119.63
973.994
874.623
843.316
829.512
812.492
808.21
807.978
808.277
808.513
808.672
808.814
808.965
809.157
809.349
809.237
804.445
799.09
807.335
823.064
837.72
850.598
862.326
873.124
883.022
892.045
900.233
907.627
914.259
920.151
925.31
929.728
933.381
936.221
938.182
939.167
938.95
937.093
933.646
930.584
1069.1
937.9
865.195
844.085
827.502
807.148
804.108
804.628
805.288
805.684
805.925
806.105
806.256
806.415
806.539
806.297
802.047
794.519
798.326
812.013
825.807
837.965
849.034
859.293
868.773
877.478
885.429
892.649
899.155
904.95
910.03
914.372
917.932
920.645
922.432
923.178
922.629
920.302
916.288
912.816
1028.99
914.096
855.7
838.613
817.999
803.466
801.722
802.226
802.804
803.131
803.311
803.411
803.452
803.438
803.21
802.368
800.794
792.826
791.214
801.858
814.857
826.411
836.803
846.429
855.366
863.611
871.173
878.067
884.3
889.869
894.759
898.935
902.351
904.934
906.596
907.219
906.543
904.079
899.935
896.392
996.02
893.695
844.454
827.645
808.465
801.09
800.108
800.36
800.677
800.841
800.91
800.904
800.827
800.642
800.163
799.318
799.773
793.314
785.885
792.404
804.639
815.754
825.491
834.418
842.707
850.371
857.415
863.853
869.69
874.921
879.528
883.474
886.715
889.176
890.772
891.391
890.785
888.495
884.619
881.306
969.297
872.384
833.868
818.186
802.712
798.84
798.442
798.558
798.675
798.719
798.706
798.636
798.499
798.247
797.761
797.191
797.96
794.183
783.167
785.051
795.824
806.283
815.241
823.328
830.823
837.764
844.157
850.015
855.344
860.142
864.391
868.062
871.106
873.463
875.054
875.78
875.425
873.58
870.319
867.494
942.855
855.097
821.556
807.932
799.369
796.902
796.664
796.703
796.725
796.705
796.657
796.577
796.45
796.242
795.9
795.609
796.057
794.166
782.537
780.476
788.994
798.294
806.191
813.227
819.746
825.805
831.409
836.569
841.292
845.576
849.407
852.761
855.6
857.873
859.518
860.451
860.5
859.332
856.968
854.842
917.48
839.953
810.424
802.387
797.448
795.46
794.959
794.868
794.825
794.772
794.714
794.647
794.556
794.423
794.25
794.173
794.255
793.318
782.606
778.144
784.178
791.802
798.304
804.066
809.433
814.463
819.155
823.514
827.547
831.252
834.618
837.63
840.26
842.472
844.221
845.447
846.027
845.719
844.478
843.245
896.607
828.456
803.802
798.943
795.192
793.579
793.021
792.89
792.845
792.811
792.782
792.752
792.707
792.639
792.558
792.557
792.589
791.92
782.5
777.376
781.061
786.588
791.394
795.697
799.77
803.655
807.338
810.82
814.101
817.179
820.05
822.703
825.125
827.296
829.189
830.769
831.972
832.655
832.687
832.41
879.068
819.652
800.31
795.922
791.827
790.365
790.565
790.665
790.723
790.775
790.823
790.857
790.874
790.868
790.841
790.814
790.799
790.018
781.862
777.261
778.877
782.122
785.085
787.84
790.551
793.231
795.857
798.42
800.917
803.345
805.704
807.993
810.211
812.356
814.419
816.391
818.269
820.014
821.405
822.144
863.103
812.704
796.31
791.855
788.669
787.155
787.996
788.409
788.613
788.762
788.887
788.984
789.054
789.104
789.13
789.065
788.681
787.769
781.293
777.21
776.893
777.877
778.988
780.194
781.542
783.014
784.579
786.222
787.934
789.712
791.561
793.49
795.511
797.638
799.884
802.261
804.83
807.654
810.42
812.187
848.822
805.135
788.489
783.646
786.425
785.493
786.075
786.494
786.736
786.917
787.078
787.225
787.365
787.53
787.792
787.998
787.064
785.325
779.982
775.727
773.927
773.09
772.588
772.384
772.467
772.803
773.359
774.119
775.074
776.225
777.583
779.164
780.994
783.106
785.529
788.3
791.539
795.406
799.501
802.222
833.097
792.391
774.37
775.18
784.91
784.647
784.745
784.893
785.029
785.162
785.301
785.443
785.593
785.754
786.087
786.934
785.891
782.997
777.956
773.093
769.929
767.579
765.694
764.231
763.167
762.461
762.084
762.022
762.269
762.83
763.721
764.97
766.617
768.709
771.293
774.43
778.286
783.12
788.45
792.075
824.972
788.931
761.285
759.964
783.015
783.544
783.352
783.243
783.262
783.336
783.427
783.528
783.623
783.703
783.74
783.865
783.962
781.715
775.719
769.648
765.032
761.321
758.21
755.623
753.527
751.882
750.662
749.852
749.45
749.467
749.926
750.864
752.331
754.391
757.105
760.554
764.951
770.635
777.056
781.497
820.264
788.854
752.911
746.911
779.622
781.422
781.398
781.276
781.321
781.428
781.546
781.675
781.848
782.146
782.401
781.243
781.602
778.548
771.093
764.276
758.738
754.014
749.915
746.394
743.421
740.967
739.009
737.54
736.562
736.09
736.153
736.8
738.091
740.099
742.9
746.593
751.427
757.81
765.136
770.261
819.143
787.77
732.222
719.857
776.362
779.195
779.264
779.171
779.275
779.427
779.562
779.675
779.781
780.078
781.206
780.283
779.36
773.786
765.18
757.736
751.413
745.826
740.879
736.557
732.834
729.683
727.09
725.05
723.567
722.663
722.372
722.747
723.861
725.791
728.628
732.478
737.626
744.521
752.532
758.184
815.615
774.143
694.742
683.191
772.358
777.341
777.423
777.183
777.265
777.414
777.504
777.523
777.463
777.305
777.131
777.904
777.192
768.896
758.836
750.433
743.234
736.826
731.124
726.106
721.742
718.004
714.877
712.354
710.446
709.171
708.565
708.691
709.622
711.446
714.255
718.17
723.484
730.681
739.126
745.127
820.115
761.328
641.342
617.939
764.353
774.873
775.813
775.394
775.402
775.566
775.664
775.675
775.602
775.352
774.63
775.971
772.841
761.787
750.81
741.745
733.865
726.81
720.515
714.955
710.091
705.893
702.345
699.441
697.193
695.611
694.734
694.631
695.375
697.056
699.768
703.632
708.949
716.231
724.84
730.998
843.022
774.627
623.99
556.805
733.709
770.659
774.547
774.087
773.865
773.994
774.129
774.212
774.301
774.3
773.463
772.912
765.101
752.042
740.866
731.513
723.189
715.693
708.998
703.066
697.856
693.337
689.492
686.313
683.803
681.982
680.888
680.579
681.13
682.628
685.165
688.863
694.014
701.146
709.635
715.751
891.083
826.034
679.21
523.527
588.734
769.142
772.814
772.676
772.474
772.572
772.704
772.769
772.878
773.266
772.479
767.873
754.777
740.553
729.388
719.847
711.239
703.485
696.568
690.435
685.037
680.341
676.326
672.98
670.301
668.31
667.044
666.549
666.902
668.176
670.464
673.876
678.697
685.442
693.519
699.411
882.408
804.382
720.03
597.107
492.494
764.207
770.388
770.919
770.891
771.091
771.266
771.305
771.188
770.977
769.879
759.26
741.508
727.126
716.166
706.581
697.901
690.115
683.185
677.04
671.626
666.904
662.85
659.451
656.695
654.613
653.208
652.553
652.696
653.714
655.687
658.715
663.061
669.207
676.621
682.195
893.13
816.592
766.669
666.05
447.331
762.15
769.235
770.092
770.004
770.155
770.352
770.435
770.301
769.457
762.945
742.992
723.773
710.985
700.73
691.442
683.023
675.499
668.802
662.858
657.609
653.017
649.055
645.716
642.969
640.852
639.369
638.57
638.502
639.229
640.822
643.369
647.103
652.447
658.947
663.873
845.372
757.727
751.352
735.544
442.377
547.269
767.627
769.962
770.104
769.981
770.07
770.089
770.001
765.909
744.48
718.932
703.269
692.623
683.176
674.477
666.648
659.664
653.435
647.891
642.98
638.665
634.921
631.732
629.085
626.995
625.474
624.553
624.272
624.683
625.844
627.828
630.831
635.205
640.585
644.71
805.105
728.291
725.44
721.555
551.641
473.815
666.67
764.531
768.693
769.272
769.368
769.7
764.2
741.167
710.967
692.139
681.178
672.028
663.519
655.785
648.865
642.67
637.119
632.154
627.734
623.826
620.408
617.463
614.985
612.978
611.452
610.429
609.943
610.018
610.712
612.078
614.263
617.543
621.658
624.878
778.359
713.21
711.2
710.15
637.674
512.355
527.527
673.665
753.169
766.561
763.992
752.122
725.316
695.226
675.898
665.158
656.733
648.985
641.904
635.532
629.792
624.601
619.907
615.672
611.867
608.471
605.466
602.84
600.588
598.711
597.214
596.11
595.421
595.168
595.383
596.101
597.423
599.541
602.291
604.547
756.166
701.769
699.968
699.664
657.852
549.55
500.955
540.176
623.837
680.367
682.336
664.913
650.123
642.23
637.752
633.275
628.318
623.287
618.445
613.871
609.581
605.588
601.893
598.498
595.397
592.585
590.055
587.8
585.818
584.108
582.671
581.513
580.642
580.069
579.809
579.88
580.332
581.271
582.63
583.895
735.281
687.713
685.881
685.769
649.754
565.639
528.075
537.668
560.284
583.09
597.275
603.211
605.434
606.127
605.354
603.408
600.803
597.903
594.891
591.868
588.906
586.052
583.339
580.786
578.404
576.197
574.165
572.307
570.622
569.105
567.755
566.567
565.538
564.67
563.955
563.397
563
562.78
562.757
562.912
712.399
670.519
668.684
668.69
631.471
554.715
525.768
534.864
547.179
556.942
564.786
570.437
573.814
575.441
575.856
575.452
574.492
573.155
571.57
569.837
568.029
566.203
564.398
562.643
560.954
559.341
557.808
556.355
554.979
553.675
552.432
551.24
550.084
548.95
547.822
546.681
545.483
544.167
542.839
542.022
686.754
650.105
648.303
648.428
610.298
535.799
508.829
516.268
525.558
532.147
537.413
541.686
544.858
547.021
548.374
549.087
549.296
549.116
548.643
547.957
547.122
546.188
545.193
544.165
543.121
542.071
541.018
539.964
538.901
537.819
536.7
535.526
534.273
532.912
531.416
529.748
527.82
525.494
522.961
521.265
657.871
626.397
624.649
624.853
586.878
513.439
487.387
493.982
501.734
506.887
511.107
514.869
518.049
520.596
522.562
524.026
525.063
525.746
526.139
526.298
526.272
526.101
525.815
525.437
524.98
524.452
523.854
523.182
522.422
521.562
520.577
519.441
518.119
516.57
514.756
512.624
510.051
506.83
503.227
500.744
625.546
599.441
597.902
598.168
560.189
488.208
463.444
470.039
477.238
481.837
485.679
489.301
492.581
495.429
497.849
499.877
501.553
502.916
504.006
504.861
505.515
505.998
506.332
506.531
506.605
506.555
506.377
506.059
505.588
504.942
504.094
503.008
501.64
499.94
497.859
495.335
492.211
488.228
483.713
480.558
588.864
568.072
567.452
568.262
530.049
460.522
438.069
445.036
452.162
456.724
460.597
464.335
467.835
471.01
473.849
476.366
478.58
480.512
482.188
483.634
484.873
485.926
486.803
487.516
488.063
488.443
488.646
488.651
488.446
488.002
487.285
486.254
484.858
483.04
480.746
477.905
474.334
469.731
464.479
460.779
547.807
530.861
531.116
532.464
494.699
430.349
411.935
419.496
426.722
431.518
435.675
439.709
443.539
447.09
450.35
453.323
456.021
458.456
460.647
462.611
464.366
465.92
467.281
468.448
469.417
470.177
470.72
471.017
471.048
470.785
470.189
469.213
467.807
465.908
463.455
460.372
456.464
451.394
445.583
441.47
502.239
488.071
488.7
489.689
453.945
398.636
385.745
393.866
401.174
406.324
410.909
415.353
419.587
423.553
427.241
430.656
433.807
436.707
439.368
441.808
444.025
446.021
447.813
449.379
450.72
451.815
452.653
453.206
453.447
453.344
452.856
451.939
450.536
448.586
446.028
442.79
438.669
433.292
427.092
422.685
452.235
440.909
443.297
443.428
410.648
366.799
359.829
368.345
375.7
381.266
386.353
391.266
395.946
400.347
404.469
408.319
411.909
415.25
418.353
421.221
423.856
426.259
428.427
430.349
432.014
433.408
434.509
435.288
435.714
435.752
435.361
434.496
433.104
431.129
428.518
425.207
420.994
415.456
409.042
404.457
399.519
392.278
398.439
398.601
368.509
335.667
333.972
342.864
350.365
356.417
362.048
367.464
372.611
377.463
382.025
386.31
390.33
394.095
397.609
400.874
403.89
406.653
409.155
411.388
413.345
415.008
416.35
417.336
417.931
418.097
417.791
416.966
415.573
413.571
410.93
407.611
403.425
397.934
391.484
386.818
358.642
352.759
359.323
359.228
330.509
305.688
308.024
317.428
325.255
331.858
338.059
343.995
349.627
354.94
359.943
364.656
369.092
373.255
377.151
380.78
384.14
387.227
390.031
392.539
394.775
396.682
398.265
399.454
400.215
400.506
400.278
399.477
398.054
396.001
393.262
389.963
385.967
380.77
374.498
369.836
331.247
323.501
327.228
325.506
295.892
276.284
281.903
292.112
300.467
307.681
314.474
320.944
327.065
332.833
338.27
343.395
348.219
352.751
356.995
360.955
364.631
368.022
371.114
373.934
376.492
378.552
380.366
381.768
382.709
383.14
382.994
382.198
380.674
378.397
375.322
371.804
368.094
363.636
357.996
353.567
311.157
301.066
300.492
294.118
261.967
246.93
255.853
267.161
276.196
284.062
291.449
298.441
305.03
311.231
317.069
322.566
327.739
332.599
337.154
341.413
345.379
349.049
352.434
355.518
358.285
360.699
362.749
364.405
365.577
366.205
366.197
365.445
363.811
361.095
357.143
352.583
348.863
345.966
341.915
338.23
291.661
282.946
280.393
268.165
232.88
220.497
231.448
243.511
253.055
261.42
269.276
276.694
283.669
290.228
296.405
302.219
307.684
312.825
317.652
322.178
326.407
330.347
334.005
337.352
340.397
343.126
345.497
347.489
349.024
350.033
350.419
350.084
348.868
346.241
341.379
336.807
336.903
332.377
330.035
328.227
268.012
261.738
259.865
246.696
210.157
197.789
209.093
221.456
231.285
239.945
248.098
255.802
263.053
269.883
276.312
282.376
288.079
293.454
298.512
303.267
307.732
311.923
315.841
319.455
322.788
325.839
328.59
331.008
333.06
334.701
335.889
336.634
336.856
335.61
331.627
330.85
327.51
323.692
320.51
319.554
240.506
236.034
234.766
223.654
189.877
177.655
188.537
200.858
210.797
219.595
227.9
235.769
243.196
250.204
256.816
263.057
268.946
274.503
279.744
284.687
289.347
293.744
297.936
301.802
305.343
308.699
311.799
314.628
317.17
319.404
321.326
322.996
324.409
324.662
322.38
321.96
318.565
315.586
312.546
310.611
211.773
209.104
208.426
201.29
173.295
160.848
170.109
181.801
191.575
200.33
208.64
216.563
224.075
231.185
237.912
244.274
250.29
255.978
261.356
266.441
271.25
275.798
280.121
284.213
287.986
291.59
294.964
298.11
301.029
303.716
306.175
308.46
310.625
312.19
311.947
312.333
310.415
307.791
304.217
301.193
183.184
181.303
178.213
176.795
158.173
145.703
152.72
163.596
173.176
181.854
190.132
198.065
205.619
212.788
219.585
226.024
232.122
237.898
243.371
248.558
253.476
258.14
262.565
266.76
270.727
274.476
278.013
281.343
284.472
287.403
290.141
292.701
295.122
297.303
298.765
299.21
301.025
300.236
294.866
292.25
158.359
157.042
156.214
156.868
140.378
127.478
133.753
144.982
154.902
163.753
172.133
180.138
187.752
194.975
201.822
208.311
214.459
220.288
225.816
231.062
236.042
240.77
245.256
249.51
253.54
257.354
260.961
264.367
267.582
270.609
273.449
276.093
278.531
280.749
282.569
283.557
283.71
282.736
281.399
279.21
137.455
136.143
136.083
136.472
120.93
108.243
114.397
126.499
137.042
146.212
154.757
162.856
170.527
177.787
184.659
191.17
197.333
203.178
208.72
213.978
218.967
223.7
228.186
232.436
236.458
240.266
243.869
247.283
250.518
253.582
256.476
259.188
261.7
263.962
265.911
267.485
268.628
268.893
267.671
266.02
116.142
115.181
115.259
115.558
105.111
94.6739
98.8128
110.18
120.676
129.858
138.376
146.442
154.084
161.315
168.161
174.643
180.779
186.593
192.102
197.323
202.269
206.953
211.387
215.582
219.55
223.312
226.866
230.245
233.457
236.514
239.425
242.189
244.8
247.219
249.429
251.389
253.031
254.011
254.475
254.564
93.9094
94.0161
93.2625
88.3451
87.6227
84.7616
86.7638
95.8774
105.704
114.655
122.991
130.91
138.439
145.577
152.342
158.747
164.811
170.552
175.985
181.125
185.986
190.581
194.924
199.029
202.912
206.594
210.087
213.411
216.57
219.577
222.476
225.28
227.993
230.649
233.296
235.865
238.409
240.85
242.797
243.883
77.5314
77.3949
76.8558
75.5926
76.603
72.5438
72.5589
80.8124
90.8521
99.9212
108.219
116.052
123.484
130.522
137.183
143.485
149.445
155.08
160.405
165.433
170.179
174.655
178.878
182.865
186.634
190.215
193.661
196.83
199.78
202.687
205.588
208.444
211.281
214.229
217.509
220.912
224.326
227.912
231.398
233.593
65.2129
64.8596
64.882
64.8241
65.3495
59.0131
58.3836
66.27
76.659
85.9182