/*--------------------------------*- C++ -*----------------------------------*\
  =========                 |
  \\      /  F ield         | OpenFOAM: The Open Source CFD Toolbox
   \\    /   O peration     | Website:  https://openfoam.org
    \\  /    A nd           | Version:  8
     \\/     M anipulation  |
\*---------------------------------------------------------------------------*/
FoamFile
{
    version     2.0;
    format      ascii;
    class       volVectorField;
    location    "1";
    object      U;
}
// * * * * * * * * * * * * * * * * * * * * * * * * * * * * * * * * * * * * * //

dimensions      [0 1 -1 0 0 0 0];

internalField   nonuniform List<vector> 
9150
(
(0.0532889 -0.429206 0)
(0.0877581 -0.62263 0)
(0.0735859 -0.631671 0)
(0.0487377 -0.643915 0)
(0.0171059 -0.654685 0)
(-0.0171063 -0.654685 0)
(-0.0487381 -0.643915 0)
(-0.0735862 -0.631671 0)
(-0.0877583 -0.622629 0)
(-0.053289 -0.429206 0)
(0.0400814 -0.522145 0)
(0.0570891 -0.625841 0)
(0.0424576 -0.613322 0)
(0.0294331 -0.622542 0)
(0.0105516 -0.62902 0)
(-0.0105519 -0.62902 0)
(-0.0294334 -0.622542 0)
(-0.0424578 -0.613322 0)
(-0.0570892 -0.625841 0)
(-0.0400814 -0.522145 0)
(0.0247498 -0.557651 0)
(0.0323222 -0.614082 0)
(0.0233064 -0.604535 0)
(0.017268 -0.610018 0)
(0.00628427 -0.613286 0)
(-0.00628447 -0.613286 0)
(-0.0172682 -0.610018 0)
(-0.0233065 -0.604535 0)
(-0.0323223 -0.614082 0)
(-0.0247498 -0.55765 0)
(0.0149945 -0.584488 0)
(0.0173251 -0.607649 0)
(0.0119254 -0.601165 0)
(0.00887004 -0.603278 0)
(0.00325989 -0.60444 0)
(-0.00326 -0.60444 0)
(-0.00887014 -0.603278 0)
(-0.0119255 -0.601165 0)
(-0.0173252 -0.607649 0)
(-0.0149945 -0.584488 0)
(0.00611581 -0.597086 0)
(0.00549664 -0.601477 0)
(0.00367012 -0.600047 0)
(0.00268093 -0.600347 0)
(0.000996879 -0.600493 0)
(-0.00099689 -0.600493 0)
(-0.00268093 -0.600347 0)
(-0.00367012 -0.600047 0)
(-0.00549664 -0.601477 0)
(-0.00611581 -0.597086 0)
(0.466504 -1.15773 2.02339e-24)
(0.282766 -1.08625 0)
(0.162595 -1.06936 0)
(0.0913541 -1.05777 0)
(0.0302204 -1.05344 0)
(-0.0302254 -1.05344 0)
(-0.0913585 -1.05777 0)
(-0.162598 -1.06935 0)
(-0.282768 -1.08625 0)
(-0.466502 -1.15772 -2.02332e-24)
(0.333121 -0.843283 5.77688e-25)
(0.287832 -0.9365 0)
(0.188627 -0.936899 0)
(0.107805 -0.937072 0)
(0.0356935 -0.939616 0)
(-0.0356962 -0.939616 0)
(-0.107807 -0.93707 0)
(-0.188628 -0.936897 0)
(-0.287833 -0.936498 0)
(-0.333121 -0.84328 -5.77668e-25)
(0.276803 -0.700656 7.74874e-26)
(0.259089 -0.804557 0)
(0.178682 -0.817501 0)
(0.104397 -0.82861 0)
(0.0348483 -0.836903 0)
(-0.03485 -0.836902 0)
(-0.104398 -0.828609 0)
(-0.178683 -0.8175 0)
(-0.25909 -0.804556 0)
(-0.276803 -0.700655 -7.74801e-26)
(0.197069 -0.552968 4.11119e-25)
(0.215899 -0.709535 0)
(0.154849 -0.726035 0)
(0.0912927 -0.742299 0)
(0.0305707 -0.754315 0)
(-0.0305718 -0.754315 0)
(-0.0912935 -0.742299 0)
(-0.154849 -0.726034 0)
(-0.215899 -0.709535 0)
(-0.197069 -0.552968 -4.11122e-25)
(0.116301 -0.445925 -6.15124e-25)
(0.155028 -0.644698 -8.66537e-25)
(0.117135 -0.664042 -2.99008e-25)
(0.0709882 -0.681468 -1.96018e-25)
(0.0240216 -0.694524 -1.13915e-26)
(-0.0240222 -0.694523 -1.13929e-26)
(-0.0709887 -0.681468 -1.96022e-25)
(-0.117135 -0.664042 -2.9901e-25)
(-0.155028 -0.644698 -8.66539e-25)
(-0.116301 -0.445924 -6.15124e-25)
(0.0157302 -0.942839 0)
(-0.0441373 -1.32724 0)
(0.018047 -1.26425 0)
(-0.00269529 -1.22278 0)
(0.0014067 -1.22102 0)
(-0.00145364 -1.22102 0)
(0.00263958 -1.22278 0)
(-0.0181014 -1.26426 0)
(0.044054 -1.32722 0)
(-0.0157692 -0.942603 0)
(0.0524458 -0.914305 0)
(-0.0274288 -1.33029 0)
(0.0184453 -1.26747 0)
(0.00196588 -1.22413 0)
(-0.000473947 -1.22118 0)
(0.000440911 -1.22118 0)
(-0.00200208 -1.22412 0)
(-0.0184799 -1.26746 0)
(0.0273831 -1.33027 0)
(-0.0524656 -0.914216 0)
(0.081697 -0.951512 0)
(-0.0245219 -1.34548 0)
(0.0110088 -1.27403 0)
(0.00732354 -1.23207 0)
(-0.000103184 -1.22608 0)
(7.99402e-05 -1.22608 0)
(-0.0073475 -1.23207 0)
(-0.0110271 -1.27402 0)
(0.0244968 -1.34546 0)
(-0.0817027 -0.95145 0)
(0.151094 -1.08196 0)
(0.00692652 -1.36588 0)
(0.0106409 -1.27021 0)
(0.0215828 -1.22609 0)
(0.00654785 -1.21471 0)
(-0.0065629 -1.21471 0)
(-0.0215968 -1.22608 0)
(-0.0106517 -1.2702 0)
(-0.00694212 -1.36587 0)
(-0.151098 -1.08193 0)
(0.303253 -1.21489 0)
(0.133434 -1.32139 0)
(0.0676725 -1.20969 0)
(0.0550208 -1.16855 0)
(0.0200593 -1.15681 0)
(-0.0200679 -1.1568 0)
(-0.0550282 -1.16855 0)
(-0.0676793 -1.20968 0)
(-0.133441 -1.32138 0)
(-0.303254 -1.21488 0)
(-0.339588 -0.118199 0)
(-0.26493 -0.121503 0)
(-0.188871 -0.124267 0)
(-0.112016 -0.126398 0)
(-0.0349111 -0.127646 0)
(0.0421546 -0.127538 0)
(0.119194 -0.126096 0)
(0.195895 -0.123798 0)
(0.271696 -0.120873 0)
(0.345991 -0.117414 0)
(-0.269374 -0.215496 0)
(-0.211142 -0.221474 0)
(-0.151295 -0.225651 0)
(-0.0902523 -0.228279 0)
(-0.0283903 -0.229503 0)
(0.0337775 -0.229378 0)
(0.0955846 -0.227905 0)
(0.156533 -0.225021 0)
(0.21625 -0.220582 0)
(0.27431 -0.21434 0)
(-0.215339 -0.310923 0)
(-0.168654 -0.31992 0)
(-0.120697 -0.326191 0)
(-0.0718351 -0.330112 0)
(-0.0224209 -0.331938 0)
(0.0271828 -0.331808 0)
(0.0765968 -0.329715 0)
(0.125458 -0.325512 0)
(0.173405 -0.318938 0)
(0.220065 -0.309614 0)
(-0.172115 -0.393858 0)
(-0.134534 -0.405428 0)
(-0.0960497 -0.413585 0)
(-0.0569262 -0.418752 0)
(-0.017415 -0.421211 0)
(0.0222392 -0.421099 0)
(0.0617889 -0.418407 0)
(0.100985 -0.412979 0)
(0.13957 -0.404519 0)
(0.177266 -0.392583 0)
(-0.135839 -0.459874 0)
(-0.105919 -0.473141 0)
(-0.075401 -0.48257 0)
(-0.0444488 -0.488604 0)
(-0.0132231 -0.491525 0)
(0.0181134 -0.491469 0)
(0.049396 -0.488425 0)
(0.080463 -0.482236 0)
(0.111154 -0.47259 0)
(0.141302 -0.459017 0)
(-0.107193 -0.512254 0)
(-0.0833118 -0.526531 0)
(-0.0591229 -0.536762 0)
(-0.0346966 -0.543359 0)
(-0.0101249 -0.546594 0)
(0.0145025 -0.546593 0)
(0.03909 -0.543349 0)
(0.0635499 -0.536713 0)
(0.0878007 -0.526391 0)
(0.111773 -0.511927 0)
(-0.0876775 -0.554945 0)
(-0.0678044 -0.569456 0)
(-0.0479476 -0.579931 0)
(-0.0281104 -0.58672 0)
(-0.00829375 -0.590044 0)
(0.0114857 -0.590014 0)
(0.0312132 -0.58662 0)
(0.050877 -0.579744 0)
(0.0704786 -0.569145 0)
(0.0900437 -0.554448 0)
(-0.0766513 -0.592428 0)
(-0.0588667 -0.606265 0)
(-0.0414554 -0.616299 0)
(-0.0243159 -0.622791 0)
(-0.00736947 -0.625912 0)
(0.0094647 -0.625735 0)
(0.0262624 -0.622265 0)
(0.043109 -0.615424 0)
(0.0601055 -0.605066 0)
(0.0773929 -0.590969 0)
(-0.070401 -0.627524 0)
(-0.0537449 -0.640028 0)
(-0.0376956 -0.649098 0)
(-0.0220413 -0.65494 0)
(-0.00664069 -0.657668 0)
(0.00864841 -0.657348 0)
(0.023972 -0.653991 0)
(0.0394865 -0.647576 0)
(0.0553554 -0.638047 0)
(0.0718309 -0.62534 0)
(-0.0660086 -0.660907 0)
(-0.0501521 -0.671811 0)
(-0.0350484 -0.679779 0)
(-0.0203162 -0.68492 0)
(-0.00579226 -0.687309 0)
(0.00868266 -0.686985 0)
(0.0232749 -0.683978 0)
(0.0381532 -0.6783 0)
(0.0534899 -0.669964 0)
(0.0696035 -0.658975 0)
(-0.0631212 -0.692759 0)
(-0.0477831 -0.702059 0)
(-0.0332702 -0.708986 0)
(-0.0191153 -0.713534 0)
(-0.00513419 -0.715699 0)
(0.00883072 -0.715506 0)
(0.0229376 -0.712973 0)
(0.0373378 -0.708127 0)
(0.0521835 -0.700991 0)
(0.0678104 -0.691568 0)
(-0.0614368 -0.723574 0)
(-0.0464415 -0.731406 0)
(-0.0322744 -0.737335 0)
(-0.0185106 -0.741286 0)
(-0.00494567 -0.743225 0)
(0.00856955 -0.743137 0)
(0.0221838 -0.741032 0)
(0.0360225 -0.736908 0)
(0.0502541 -0.730757 0)
(0.0652153 -0.722504 0)
(-0.0593535 -0.753254 0)
(-0.0449357 -0.759913 0)
(-0.0312941 -0.764901 0)
(-0.0180658 -0.768219 0)
(-0.00505506 -0.769838 0)
(0.00787339 -0.769743 0)
(0.0208341 -0.767912 0)
(0.0339448 -0.764325 0)
(0.047397 -0.75893 0)
(0.0615844 -0.751611 0)
(-0.0557319 -0.780963 0)
(-0.0423363 -0.786764 0)
(-0.029622 -0.791012 0)
(-0.0172766 -0.793777 0)
(-0.00510047 -0.79508 0)
(0.00699561 -0.794904 0)
(0.0191004 -0.793232 0)
(0.031307 -0.790026 0)
(0.0438391 -0.78523 0)
(0.0571204 -0.778748 0)
(-0.0510218 -0.805991 0)
(-0.0388585 -0.811182 0)
(-0.0273273 -0.814927 0)
(-0.0160922 -0.81732 0)
(-0.0049704 -0.818396 0)
(0.00610859 -0.818162 0)
(0.0171937 -0.816603 0)
(0.0283718 -0.813699 0)
(0.0398687 -0.80941 0)
(0.052098 -0.803692 0)
(-0.0461428 -0.828368 0)
(-0.0351905 -0.833032 0)
(-0.024826 -0.836421 0)
(-0.014732 -0.83857 0)
(-0.00470658 -0.83952 0)
(0.00530269 -0.839278 0)
(0.0153409 -0.837845 0)
(0.0254798 -0.83522 0)
(0.0359627 -0.831402 0)
(0.047093 -0.826427 0)
(-0.0417377 -0.848513 0)
(-0.0318625 -0.852651 0)
(-0.0225229 -0.855693 0)
(-0.0134493 -0.857646 0)
(-0.00444898 -0.858515 0)
(0.00455183 -0.858309 0)
(0.0135901 -0.857034 0)
(0.0227507 -0.854704 0)
(0.0322386 -0.851343 0)
(0.042297 -0.847019 0)
(-0.0376064 -0.866609 0)
(-0.0287801 -0.870296 0)
(-0.0203985 -0.873014 0)
(-0.0122869 -0.874764 0)
(-0.00424861 -0.875555 0)
(0.00378465 -0.875389 0)
(0.0118595 -0.874276 0)
(0.0200458 -0.872224 0)
(0.0285358 -0.86925 0)
(0.037456 -0.865358 0)
(-0.0333726 -0.882584 0)
(-0.0256411 -0.885932 0)
(-0.0182565 -0.888384 0)
(-0.0111168 -0.889961 0)
(-0.00404665 -0.890678 0)
(0.0030262 -0.890546 0)
(0.0101305 -0.889569 0)
(0.017338 -0.887748 0)
(0.0248169 -0.885067 0)
(0.0325958 -0.881496 0)
(-0.0293075 -0.896531 0)
(-0.0226059 -0.899543 0)
(-0.0161835 -0.901771 0)
(-0.0099867 -0.90321 0)
(-0.00384999 -0.903877 0)
(0.00228788 -0.903777 0)
(0.00845465 -0.902912 0)
(0.0147101 -0.901275 0)
(0.021218 -0.898848 0)
(0.0279732 -0.895605 0)
(-0.0257075 -0.908651 0)
(-0.0199162 -0.911327 0)
(-0.0143452 -0.913334 0)
(-0.00899016 -0.91465 0)
(-0.00369291 -0.915272 0)
(0.00160276 -0.9152 0)
(0.00692468 -0.914432 0)
(0.0123322 -0.912962 0)
(0.0179806 -0.910776 0)
(0.0238467 -0.907881 0)
(-0.0226137 -0.919185 0)
(-0.0176135 -0.921549 0)
(-0.0127851 -0.923339 0)
(-0.00814674 -0.924526 0)
(-0.00357209 -0.925099 0)
(0.00100178 -0.925051 0)
(0.00559984 -0.924378 0)
(0.0102833 -0.923077 0)
(0.0151952 -0.921151 0)
(0.0202892 -0.918605 0)
(-0.0198525 -0.928255 0)
(-0.0155807 -0.930379 0)
(-0.0114114 -0.93199 0)
(-0.00740688 -0.933066 0)
(-0.00344681 -0.933595 0)
(0.000511207 -0.933569 0)
(0.00449477 -0.932986 0)
(0.00855457 -0.931847 0)
(0.0128192 -0.930158 0)
(0.0172164 -0.927943 0)
(-0.0174879 -0.935995 0)
(-0.0138274 -0.937948 0)
(-0.0102287 -0.939441 0)
(-0.00674819 -0.94045 0)
(-0.00329837 -0.940958 0)
(0.000162171 -0.94096 0)
(0.00364151 -0.940455 0)
(0.00718416 -0.939446 0)
(0.0108939 -0.937954 0)
(0.0146917 -0.936009 0)
(-0.0156918 -0.942663 0)
(-0.0124998 -0.944502 0)
(-0.0093172 -0.945939 0)
(-0.00621921 -0.946928 0)
(-0.00312582 -0.947445 0)
(-1.87039e-05 -0.947479 0)
(0.003106 -0.947028 0)
(0.0062719 -0.94611 0)
(0.00956149 -0.944748 0)
(0.0128866 -0.942998 0)
(-0.0144912 -0.948534 0)
(-0.0116246 -0.950353 0)
(-0.00871341 -0.951803 0)
(-0.00583192 -0.952826 0)
(-0.00293213 -0.953379 0)
(-6.6656e-06 -0.953445 0)
(0.00292922 -0.953026 0)
(0.00588345 -0.952136 0)
(0.00891061 -0.950823 0)
(0.0119152 -0.949131 0)
(-0.0138982 -0.953853 0)
(-0.0112225 -0.95578 0)
(-0.00842648 -0.957355 0)
(-0.00559797 -0.958483 0)
(-0.00271483 -0.959115 0)
(0.000208398 -0.959223 0)
(0.00313833 -0.958805 0)
(0.00606435 -0.957895 0)
(0.0090109 -0.956534 0)
(0.0118821 -0.954832 0)
(-0.013951 -0.958886 0)
(-0.0113222 -0.961084 0)
(-0.00848397 -0.962913 0)
(-0.00554193 -0.964246 0)
(-0.00250644 -0.965009 0)
(0.000579657 -0.965167 0)
(0.00366558 -0.964725 0)
(0.0067086 -0.963708 0)
(0.00970277 -0.962199 0)
(0.0125218 -0.96028 0)
(-0.014692 -0.963902 0)
(-0.01196 -0.966584 0)
(-0.00891035 -0.968815 0)
(-0.00569145 -0.970442 0)
(-0.00235468 -0.971377 0)
(0.00103857 -0.971586 0)
(0.0044109 -0.971061 0)
(0.00770372 -0.969844 0)
(0.0108651 -0.967991 0)
(0.0137463 -0.965651 0)
(-0.0161251 -0.969 0)
(-0.0130863 -0.972536 0)
(-0.00964606 -0.975338 0)
(-0.00601743 -0.977335 0)
(-0.00226539 -0.978467 0)
(0.00152757 -0.978702 0)
(0.0052871 -0.978044 0)
(0.00893378 -0.976513 0)
(0.0124097 -0.974177 0)
(0.0155368 -0.97112 0)
(-0.0184672 -0.975348 0)
(-0.0146995 -0.97963 0)
(-0.0106105 -0.98294 0)
(-0.00643188 -0.985233 0)
(-0.00220079 -0.986493 0)
(0.00204091 -0.986709 0)
(0.00623152 -0.985879 0)
(0.0103268 -0.984022 0)
(0.0142862 -0.981157 0)
(0.0179262 -0.977344 0)
(-0.0199691 -0.983252 0)
(-0.0155973 -0.988073 0)
(-0.0110277 -0.991671 0)
(-0.00647402 -0.994097 0)
(-0.00192084 -0.995388 0)
(0.002617 -0.99555 0)
(0.00712419 -0.994592 0)
(0.0115869 -0.992505 0)
(0.0160296 -0.989282 0)
(0.0202717 -0.984891 0)
(-0.0201345 -0.99238 0)
(-0.0154601 -0.997394 0)
(-0.010699 -1.00103 0)
(-0.00604646 -1.00344 0)
(-0.00144459 -1.00469 0)
(0.00313624 -1.00481 0)
(0.00770665 -1.00382 0)
(0.0122959 -1.00169 0)
(0.0169723 -0.998393 0)
(0.0215791 -0.993838 0)
(-0.0191325 -1.00148 0)
(-0.0144914 -1.00657 0)
(-0.00982023 -1.01018 0)
(-0.00532388 -1.01252 0)
(-0.000896825 -1.01371 0)
(0.00350897 -1.0138 0)
(0.00791721 -1.01282 0)
(0.0123756 -1.01073 0)
(0.016988 -1.00745 0)
(0.0215628 -1.00283 0)
(-0.0193905 -1.01134 0)
(-0.0144672 -1.01594 0)
(-0.00958324 -1.01923 0)
(-0.00500909 -1.02137 0)
(-0.00056024 -1.02246 0)
(0.00385875 -1.02255 0)
(0.0083002 -1.02164 0)
(0.0128653 -1.01972 0)
(0.0177472 -1.01673 0)
(0.0226412 -1.01255 0)
(-0.0202987 -1.02135 0)
(-0.0151852 -1.02552 0)
(-0.00999264 -1.02849 0)
(-0.00516708 -1.03042 0)
(-0.000483245 -1.03141 0)
(0.00417297 -1.0315 0)
(0.00885216 -1.03069 0)
(0.0136776 -1.029 0)
(0.0188805 -1.02638 0)
(0.0239381 -1.02277 0)
(-0.0236471 -1.03299 0)
(-0.0177749 -1.03628 0)
(-0.0117036 -1.03876 0)
(-0.0061298 -1.04043 0)
(-0.000759351 -1.0413 0)
(0.00456746 -1.04137 0)
(0.00991961 -1.04067 0)
(0.0154611 -1.03923 0)
(0.0214707 -1.03709 0)
(0.0271326 -1.03432 0)
(-0.0274576 -1.04656 0)
(-0.0209424 -1.04896 0)
(-0.0139388 -1.05089 0)
(-0.00746631 -1.05222 0)
(-0.00123898 -1.05291 0)
(0.00492262 -1.05295 0)
(0.0111015 -1.05235 0)
(0.0174732 -1.05116 0)
(0.0242852 -1.04947 0)
(0.0304032 -1.04743 0)
(-0.030043 -1.06128 0)
(-0.0233022 -1.0631 0)
(-0.0157173 -1.06459 0)
(-0.00858422 -1.06563 0)
(-0.0016797 -1.06614 0)
(0.00515917 -1.06611 0)
(0.0119989 -1.06556 0)
(0.0189939 -1.06451 0)
(0.0263212 -1.06306 0)
(0.0325875 -1.06135 0)
(-0.0315559 -1.07628 0)
(-0.0248182 -1.07791 0)
(-0.0169203 -1.07921 0)
(-0.0093751 -1.08009 0)
(-0.00202448 -1.08048 0)
(0.00526759 -1.08038 0)
(0.0125455 -1.07979 0)
(0.019939 -1.07873 0)
(0.0275627 -1.07724 0)
(0.0338225 -1.07544 0)
(-0.032279 -1.09126 0)
(-0.0256549 -1.093 0)
(-0.0176143 -1.09432 0)
(-0.00984598 -1.09516 0)
(-0.00224572 -1.0955 0)
(0.00530367 -1.09532 0)
(0.0128317 -1.09462 0)
(0.0204563 -1.09343 0)
(0.0282367 -1.09174 0)
(0.0344468 -1.08962 0)
(-0.0325856 -1.10618 0)
(-0.0260683 -1.10819 0)
(-0.0179645 -1.10966 0)
(-0.010071 -1.11054 0)
(-0.00233355 -1.11086 0)
(0.0053601 -1.1106 0)
(0.0130388 -1.10979 0)
(0.0208214 -1.10841 0)
(0.0286775 -1.10648 0)
(0.0348941 -1.10401 0)
(-0.032841 -1.12123 0)
(-0.0263471 -1.12352 0)
(-0.0182049 -1.12514 0)
(-0.0101948 -1.12611 0)
(-0.00234292 -1.12643 0)
(0.00546984 -1.12612 0)
(0.0132801 -1.12518 0)
(0.02121 -1.12362 0)
(0.029154 -1.12145 0)
(0.035343 -1.11865 0)
(-0.0332128 -1.13649 0)
(-0.0267532 -1.13903 0)
(-0.0185289 -1.14082 0)
(-0.0103726 -1.1419 0)
(-0.0023767 -1.14226 0)
(0.005585 -1.1419 0)
(0.0135579 -1.14084 0)
(0.021667 -1.13908 0)
(0.0297124 -1.13664 0)
(0.0358842 -1.13347 0)
(-0.0338395 -1.15192 0)
(-0.027396 -1.15476 0)
(-0.0190629 -1.15677 0)
(-0.0107111 -1.15799 0)
(-0.00251732 -1.15841 0)
(0.00565038 -1.15803 0)
(0.013847 -1.15686 0)
(0.022198 -1.15489 0)
(0.0303889 -1.15215 0)
(0.0365775 -1.14853 0)
(-0.0348417 -1.16758 0)
(-0.0283887 -1.17081 0)
(-0.0199075 -1.17309 0)
(-0.011299 -1.17451 0)
(-0.00284309 -1.17503 0)
(0.00559669 -1.17466 0)
(0.0140882 -1.17338 0)
(0.0227595 -1.17119 0)
(0.0311591 -1.1681 0)
(0.0374191 -1.16389 0)
(-0.0362576 -1.1835 0)
(-0.0297603 -1.18727 0)
(-0.0210887 -1.1899 0)
(-0.0121656 -1.19157 0)
(-0.00339555 -1.19224 0)
(0.00536436 -1.19191 0)
(0.0142032 -1.19054 0)
(0.0232605 -1.18813 0)
(0.031932 -1.18464 0)
(0.0383238 -1.1797 0)
(-0.0379865 -1.19974 0)
(-0.0314079 -1.20423 0)
(-0.0225104 -1.2073 0)
(-0.0132365 -1.20926 0)
(-0.00413274 -1.21011 0)
(0.00495984 -1.20984 0)
(0.0141645 -1.20843 0)
(0.0236491 -1.20582 0)
(0.032641 -1.20198 0)
(0.0392196 -1.19626 0)
(-0.0398875 -1.21655 0)
(-0.033187 -1.22185 0)
(-0.0240339 -1.22535 0)
(-0.0143925 -1.2276 0)
(-0.00496719 -1.22864 0)
(0.00443205 -1.22846 0)
(0.0139799 -1.22705 0)
(0.0238925 -1.22433 0)
(0.0332125 -1.22023 0)
(0.0399935 -1.21385 0)
(-0.0417253 -1.2342 0)
(-0.0348861 -1.24022 0)
(-0.0254789 -1.24407 0)
(-0.0154838 -1.24656 0)
(-0.00578236 -1.24774 0)
(0.0038626 -1.24767 0)
(0.0136904 -1.24632 0)
(0.0239743 -1.24363 0)
(0.0335523 -1.23951 0)
(0.0405055 -1.2329 0)
(-0.0432209 -1.253 0)
(-0.0362772 -1.25943 0)
(-0.0266835 -1.26342 0)
(-0.0163942 -1.26601 0)
(-0.00649244 -1.26729 0)
(0.00331256 -1.26731 0)
(0.0133226 -1.26607 0)
(0.0238462 -1.26353 0)
(0.0334943 -1.25965 0)
(0.0405315 -1.25335 0)
(-0.0441955 -1.27309 0)
(-0.0372069 -1.27939 0)
(-0.0275733 -1.28325 0)
(-0.0170975 -1.2858 0)
(-0.00709114 -1.28709 0)
(0.00277298 -1.28717 0)
(0.0128448 -1.28605 0)
(0.0234391 -1.28369 0)
(0.0329477 -1.28009 0)
(0.0399973 -1.27411 0)
(-0.0443958 -1.29373 0)
(-0.037449 -1.29967 0)
(-0.0280009 -1.30327 0)
(-0.0175127 -1.30568 0)
(-0.00753231 -1.30691 0)
(0.00226832 -1.307 0)
(0.0122648 -1.30596 0)
(0.0227587 -1.30376 0)
(0.0319562 -1.30041 0)
(0.0388466 -1.29471 0)
(-0.043714 -1.31408 0)
(-0.0369604 -1.31972 0)
(-0.0278888 -1.32308 0)
(-0.0175575 -1.32533 0)
(-0.00771827 -1.32649 0)
(0.00193321 -1.32656 0)
(0.0117781 -1.32556 0)
(0.0220905 -1.32348 0)
(0.0309048 -1.32034 0)
(0.0375391 -1.31498 0)
(-0.0425764 -1.33395 0)
(-0.0361049 -1.33927 0)
(-0.0274777 -1.34244 0)
(-0.0173723 -1.34459 0)
(-0.00771663 -1.3457 0)
(0.0017561 -1.34576 0)
(0.0114277 -1.34478 0)
(0.0215349 -1.34274 0)
(0.0299702 -1.33967 0)
(0.0363279 -1.33433 0)
(-0.041265 -1.35281 0)
(-0.0350903 -1.35813 0)
(-0.0268929 -1.36127 0)
(-0.0170275 -1.3634 0)
(-0.00756841 -1.3645 0)
(0.00171304 -1.36458 0)
(0.0111984 -1.36361 0)
(0.021065 -1.3616 0)
(0.0291928 -1.35856 0)
(0.0353395 -1.35325 0)
(-0.0398081 -1.37115 0)
(-0.0339061 -1.37646 0)
(-0.0260762 -1.37962 0)
(-0.016482 -1.38177 0)
(-0.00723728 -1.38289 0)
(0.00183363 -1.38297 0)
(0.0111177 -1.38203 0)
(0.020729 -1.38006 0)
(0.0285705 -1.37706 0)
(0.0345318 -1.37168 0)
(-0.0383346 -1.38877 0)
(-0.0326288 -1.3943 0)
(-0.0251088 -1.3975 0)
(-0.0158106 -1.39967 0)
(-0.00679722 -1.4008 0)
(0.0020346 -1.40091 0)
(0.0110835 -1.40001 0)
(0.0204172 -1.39809 0)
(0.0279356 -1.39515 0)
(0.0336646 -1.38971 0)
(-0.0366895 -1.40597 0)
(-0.0312331 -1.41171 0)
(-0.0240519 -1.41491 0)
(-0.0150629 -1.41705 0)
(-0.0063198 -1.41818 0)
(0.00223128 -1.41831 0)
(0.0109919 -1.41744 0)
(0.019985 -1.41558 0)
(0.0271382 -1.41271 0)
(0.0325684 -1.40732 0)
(-0.0349072 -1.42286 0)
(-0.0297272 -1.4286 0)
(-0.0229017 -1.43174 0)
(-0.0142616 -1.43385 0)
(-0.00582501 -1.43495 0)
(0.00241313 -1.43508 0)
(0.010853 -1.43423 0)
(0.0194688 -1.43242 0)
(0.0262465 -1.42959 0)
(0.0313727 -1.42419 0)
(-0.0330348 -1.43901 0)
(-0.0281527 -1.44482 0)
(-0.0216938 -1.44793 0)
(-0.0134324 -1.44998 0)
(-0.00533615 -1.45106 0)
(0.00255695 -1.45118 0)
(0.0106485 -1.45034 0)
(0.018876 -1.44855 0)
(0.0252832 -1.44571 0)
(0.0301117 -1.44007 0)
(-0.0311282 -1.45482 0)
(-0.0265404 -1.46048 0)
(-0.020454 -1.46345 0)
(-0.0125941 -1.4654 0)
(-0.00487035 -1.46643 0)
(0.00264543 -1.46654 0)
(0.0103591 -1.46573 0)
(0.0181809 -1.46401 0)
(0.0242166 -1.46127 0)
(0.0287465 -1.45578 0)
(-0.0290651 -1.4703 0)
(-0.0248084 -1.47549 0)
(-0.019131 -1.47823 0)
(-0.011731 -1.48005 0)
(-0.00442482 -1.48101 0)
(0.00267716 -1.4811 0)
(0.00997028 -1.48034 0)
(0.0173314 -1.47873 0)
(0.0229608 -1.47618 0)
(0.027164 -1.47117 0)
(-0.0268618 -1.48455 0)
(-0.0229672 -1.48951 0)
(-0.0177288 -1.4921 0)
(-0.0108411 -1.4938 0)
(-0.00400018 -1.4947 0)
(0.00264657 -1.49478 0)
(0.00947299 -1.49405 0)
(0.0163225 -1.49252 0)
(0.0215167 -1.49009 0)
(0.0253598 -1.48525 0)
(-0.0245828 -1.49773 0)
(-0.0210538 -1.50254 0)
(-0.0162663 -1.505 0)
(-0.00992179 -1.5066 0)
(-0.00359114 -1.50743 0)
(0.00255537 -1.5075 0)
(0.00887168 -1.5068 0)
(0.0151818 -1.50534 0)
(0.0199313 -1.50301 0)
(0.0234169 -1.49828 0)
(-0.0221938 -1.5101 0)
(-0.0190458 -1.51458 0)
(-0.01473 -1.51686 0)
(-0.00896768 -1.51834 0)
(-0.00319326 -1.51911 0)
(0.00240932 -1.51917 0)
(0.00817029 -1.51851 0)
(0.0139025 -1.51714 0)
(0.0181861 -1.51496 0)
(0.0212979 -1.51055 0)
(-0.0197568 -1.52131 0)
(-0.0169837 -1.52547 0)
(-0.0131479 -1.52759 0)
(-0.00799531 -1.52896 0)
(-0.00280856 -1.52967 0)
(0.00222179 -1.52971 0)
(0.00739641 -1.52909 0)
(0.0125232 -1.5278 0)
(0.0163322 -1.52577 0)
(0.0190757 -1.52166 0)
(-0.0172687 -1.53126 0)
(-0.0148697 -1.53516 0)
(-0.0115234 -1.53713 0)
(-0.00700345 -1.5384 0)
(-0.00243398 -1.53906 0)
(0.00199656 -1.53909 0)
(0.00655548 -1.5385 0)
(0.0110537 -1.53729 0)
(0.0143782 -1.53539 0)
(0.0167537 -1.53152 0)
(-0.0147413 -1.53992 0)
(-0.0127123 -1.54359 0)
(-0.0098616 -1.54543 0)
(-0.00599264 -1.54661 0)
(-0.00206685 -1.54722 0)
(0.00173856 -1.54725 0)
(0.00565553 -1.54668 0)
(0.00950697 -1.54555 0)
(0.0123404 -1.54376 0)
(0.014351 -1.5401 0)
(-0.0121912 -1.54731 0)
(-0.0105261 -1.55073 0)
(-0.00817403 -1.55245 0)
(-0.00496746 -1.55355 0)
(-0.00170499 -1.55412 0)
(0.00145618 -1.55414 0)
(0.00471157 -1.55361 0)
(0.00790455 -1.55254 0)
(0.0102433 -1.55085 0)
(0.0118944 -1.54743 0)
(-0.00962456 -1.55338 0)
(-0.00831433 -1.55656 0)
(-0.00646267 -1.55816 0)
(-0.00392922 -1.55919 0)
(-0.00134565 -1.55973 0)
(0.00115668 -1.55974 0)
(0.00373477 -1.55923 0)
(0.00625795 -1.55822 0)
(0.0080996 -1.55665 0)
(0.00939912 -1.55346 0)
(-0.00704365 -1.55808 0)
(-0.00608696 -1.56104 0)
(-0.004738 -1.56254 0)
(-0.00288308 -1.56352 0)
(-0.000988775 -1.56402 0)
(0.000845038 -1.56403 0)
(0.00273526 -1.56354 0)
(0.0045827 -1.56259 0)
(0.0059245 -1.5611 0)
(0.0068735 -1.55812 0)
(-0.00446471 -1.56137 0)
(-0.00385206 -1.56415 0)
(-0.00300401 -1.56557 0)
(-0.00183166 -1.5665 0)
(-0.000634275 -1.56698 0)
(0.000523473 -1.56698 0)
(0.00171791 -1.56652 0)
(0.00288504 -1.5656 0)
(0.00372806 -1.56418 0)
(0.00433507 -1.56139 0)
(-0.00187754 -1.56328 0)
(-0.00161362 -1.56589 0)
(-0.00126795 -1.56725 0)
(-0.000779025 -1.56814 0)
(-0.000282415 -1.56859 0)
(0.000194854 -1.5686 0)
(0.000689423 -1.56815 0)
(0.0011748 -1.56727 0)
(0.00151709 -1.56591 0)
(0.0017772 -1.56329 0)
(0.00070051 -1.56383 0)
(0.000621096 -1.56627 0)
(0.000465288 -1.56757 0)
(0.000270828 -1.56843 0)
(6.63677e-05 -1.56886 0)
(-0.00013758 -1.56887 0)
(-0.00034341 -1.56843 0)
(-0.000540151 -1.56758 0)
(-0.000698124 -1.56628 0)
(-0.000780072 -1.56382 0)
(0.00326793 -1.56301 0)
(0.00284493 -1.56529 0)
(0.00218939 -1.56654 0)
(0.00131367 -1.56737 0)
(0.000411353 -1.56779 0)
(-0.000470688 -1.56779 0)
(-0.00137389 -1.56737 0)
(-0.00225098 -1.56655 0)
(-0.00290783 -1.5653 0)
(-0.00333247 -1.563 0)
(0.0058158 -1.56082 0)
(0.00504901 -1.56296 0)
(0.00389621 -1.56417 0)
(0.00234387 -1.56497 0)
(0.000751227 -1.56538 0)
(-0.000801488 -1.56538 0)
(-0.0023947 -1.56497 0)
(-0.0039478 -1.56417 0)
(-0.00510136 -1.56296 0)
(-0.00586914 -1.56082 0)
(0.00833652 -1.55729 0)
(0.0072235 -1.55929 0)
(0.00557643 -1.56046 0)
(0.00335517 -1.56125 0)
(0.00108428 -1.56165 0)
(-0.0011273 -1.56165 0)
(-0.00339856 -1.56125 0)
(-0.00562023 -1.56046 0)
(-0.00726773 -1.55929 0)
(-0.00838129 -1.55728 0)
(0.0108198 -1.55242 0)
(0.00935705 -1.5543 0)
(0.00722003 -1.55546 0)
(0.00434091 -1.55624 0)
(0.00140853 -1.55663 0)
(-0.00144567 -1.55663 0)
(-0.00437835 -1.55624 0)
(-0.0072577 -1.55546 0)
(-0.00939501 -1.5543 0)
(-0.010858 -1.55241 0)
(0.0132549 -1.54625 0)
(0.0114383 -1.54804 0)
(0.00881678 -1.54918 0)
(0.00529443 -1.54996 0)
(0.00172187 -1.55035 0)
(-0.00175431 -1.55035 0)
(-0.00532716 -1.54996 0)
(-0.00884968 -1.54918 0)
(-0.0114714 -1.54803 0)
(-0.0132881 -1.54625 0)
(0.0156349 -1.53882 0)
(0.0134599 -1.54053 0)
(0.0103597 -1.54168 0)
(0.00621108 -1.54246 0)
(0.00202287 -1.54286 0)
(-0.00205163 -1.54286 0)
(-0.00624015 -1.54246 0)
(-0.0103889 -1.54168 0)
(-0.0134893 -1.54053 0)
(-0.0156642 -1.53881 0)
(0.0179584 -1.53017 0)
(0.0154201 -1.53183 0)
(0.0118464 -1.53299 0)
(0.00708919 -1.5338 0)
(0.00231105 -1.5342 0)
(-0.00233703 -1.5342 0)
(-0.00711554 -1.53379 0)
(-0.0118729 -1.53299 0)
(-0.0154469 -1.53182 0)
(-0.017985 -1.53016 0)
(0.0202322 -1.52034 0)
(0.0173248 -1.52197 0)
(0.0132801 -1.52317 0)
(0.00793057 -1.524 0)
(0.00258705 -1.52442 0)
(-0.00261106 -1.52441 0)
(-0.00795498 -1.52399 0)
(-0.0133047 -1.52316 0)
(-0.0173496 -1.52197 0)
(-0.0202567 -1.52033 0)
(0.0224702 -1.50937 0)
(0.019186 -1.511 0)
(0.014669 -1.51224 0)
(0.00874029 -1.51311 0)
(0.00285258 -1.51355 0)
(-0.00287535 -1.51355 0)
(-0.00876351 -1.51311 0)
(-0.0146925 -1.51224 0)
(-0.0192096 -1.51099 0)
(-0.0224935 -1.50935 0)
(0.0246917 -1.49728 0)
(0.0210214 -1.49894 0)
(0.0160254 -1.50025 0)
(0.00952565 -1.50117 0)
(0.0031101 -1.50163 0)
(-0.00313235 -1.50163 0)
(-0.00954843 -1.50116 0)
(-0.0160486 -1.50024 0)
(-0.0210446 -1.49893 0)
(-0.0247146 -1.49727 0)
(0.0269198 -1.48409 0)
(0.0228513 -1.48581 0)
(0.0173633 -1.4872 0)
(0.0102952 -1.48819 0)
(0.00336234 -1.48869 0)
(-0.00338497 -1.48868 0)
(-0.0103185 -1.48818 0)
(-0.017387 -1.48719 0)
(-0.022875 -1.4858 0)
(-0.0269432 -1.48408 0)
(0.0291789 -1.46982 0)
(0.0246976 -1.47162 0)
(0.0186972 -1.47312 0)
(0.0110579 -1.47418 0)
(0.00361221 -1.47472 0)
(-0.00363634 -1.47472 0)
(-0.0110828 -1.47417 0)
(-0.0187227 -1.4731 0)
(-0.0247231 -1.4716 0)
(-0.0292042 -1.46979 0)
(0.031494 -1.45443 0)
(0.0265832 -1.45635 0)
(0.0200421 -1.45798 0)
(0.011823 -1.45915 0)
(0.00386269 -1.45974 0)
(-0.00388979 -1.45973 0)
(-0.011851 -1.45914 0)
(-0.0200709 -1.45796 0)
(-0.026612 -1.45633 0)
(-0.0315228 -1.4544 0)
(0.0338896 -1.43792 0)
(0.028532 -1.44 0)
(0.0214137 -1.44178 0)
(0.0126007 -1.44307 0)
(0.00411718 -1.44371 0)
(-0.00414915 -1.44371 0)
(-0.0126337 -1.44306 0)
(-0.0214477 -1.44176 0)
(-0.028566 -1.43997 0)
(-0.0339237 -1.43788 0)
(0.0363898 -1.42025 0)
(0.0305697 -1.42252 0)
(0.022829 -1.42449 0)
(0.0134029 -1.42591 0)
(0.00437962 -1.42662 0)
(-0.00441883 -1.42662 0)
(-0.0134432 -1.4259 0)
(-0.0228705 -1.42447 0)
(-0.0306111 -1.42249 0)
(-0.0364315 -1.42021 0)
(0.0390092 -1.40141 0)
(0.0327173 -1.4039 0)
(0.024302 -1.40606 0)
(0.0142395 -1.40763 0)
(0.00465327 -1.40842 0)
(-0.00470251 -1.40841 0)
(-0.0142898 -1.40761 0)
(-0.0243536 -1.40604 0)
(-0.0327684 -1.40386 0)
(-0.0390606 -1.40137 0)
(0.0417361 -1.3814 0)
(0.0349712 -1.38409 0)
(0.0258244 -1.38646 0)
(0.0151051 -1.38817 0)
(0.00493544 -1.38904 0)
(-0.00499768 -1.38904 0)
(-0.0151682 -1.38815 0)
(-0.0258884 -1.38643 0)
(-0.0350339 -1.38405 0)
(-0.0417986 -1.38135 0)
(0.0444711 -1.36027 0)
(0.0372491 -1.3631 0)
(0.0273202 -1.36562 0)
(0.0159431 -1.36749 0)
(0.00520445 -1.36846 0)
(-0.00528204 -1.36846 0)
(-0.016021 -1.36747 0)
(-0.0273981 -1.36559 0)
(-0.037324 -1.36306 0)
(-0.0445442 -1.36022 0)
(0.0469459 -1.33812 0)
(0.0392914 -1.34092 0)
(0.0285484 -1.34355 0)
(0.0165846 -1.34564 0)
(0.00539837 -1.3468 0)
(-0.00549111 -1.34679 0)
(-0.016677 -1.34563 0)
(-0.0286393 -1.34352 0)
(-0.0393762 -1.34088 0)
(-0.0470257 -1.33808 0)
(0.048536 -1.31503 0)
(0.0405152 -1.31756 0)
(0.0290286 -1.32036 0)
(0.0167133 -1.32291 0)
(0.00541266 -1.32446 0)
(-0.00551476 -1.32446 0)
(-0.0168151 -1.3229 0)
(-0.0291276 -1.32034 0)
(-0.0406053 -1.31754 0)
(-0.0486179 -1.31499 0)
(0.0482724 -1.29087 0)
(0.0399894 -1.2931 0)
(0.028038 -1.2965 0)
(0.0159965 -1.30009 0)
(0.00518552 -1.30243 0)
(-0.00528523 -1.30243 0)
(-0.0160968 -1.30009 0)
(-0.0281362 -1.29649 0)
(-0.0400795 -1.29309 0)
(-0.0483549 -1.29086 0)
(0.044693 -1.26521 0)
(0.0364659 -1.26807 0)
(0.0248311 -1.27368 0)
(0.014469 -1.27922 0)
(0.00490057 -1.28221 0)
(-0.00498688 -1.2822 0)
(-0.014556 -1.27921 0)
(-0.0249172 -1.27368 0)
(-0.0365507 -1.26808 0)
(-0.0447789 -1.26521 0)
(0.035612 -1.2357 0)
(0.028591 -1.24372 0)
(0.0196711 -1.25554 0)
(0.0130617 -1.26285 0)
(0.00513847 -1.26363 0)
(-0.00521054 -1.26363 0)
(-0.013133 -1.26285 0)
(-0.0197403 -1.25554 0)
(-0.028661 -1.24371 0)
(-0.0356945 -1.23566 0)
(0.0214561 -1.19268 0)
(0.0158779 -1.22351 0)
(0.0159996 -1.24719 0)
(0.0123103 -1.24997 0)
(0.00594662 -1.24408 0)
(-0.00600973 -1.24408 0)
(-0.0123724 -1.24998 0)
(-0.016064 -1.2472 0)
(-0.0159247 -1.22348 0)
(-0.0215145 -1.19251 0)
(0.0132204 -1.10416 0)
(-0.00622131 -1.23527 0)
(0.0174862 -1.25502 0)
(0.00658499 -1.23484 0)
(0.00453832 -1.22797 0)
(-0.00459353 -1.22796 0)
(-0.00664422 -1.23485 0)
(-0.0175508 -1.25504 0)
(0.00618345 -1.23527 0)
(-0.0132622 -1.10382 0)
(0.422227 -0.113095 0)
(0.498902 -0.106982 0)
(0.570446 -0.0989387 0)
(0.635299 -0.0888026 0)
(0.691623 -0.076432 0)
(0.737556 -0.0618044 0)
(0.771416 -0.0451145 0)
(0.791966 -0.0267713 0)
(0.799455 -0.00739792 0)
(0.791778 0.0110803 0)
(0.772255 0.0269488 0)
(0.743863 0.0392596 0)
(0.709002 0.0478818 0)
(0.669816 0.0532282 0)
(0.628166 0.0559441 0)
(0.585501 0.0567051 0)
(0.542854 0.0561166 0)
(0.500917 0.0546709 0)
(0.460129 0.0527405 0)
(0.420741 0.0505891 0)
(0.382864 0.0483947 0)
(0.34652 0.0462707 0)
(0.311664 0.0442842 0)
(0.278219 0.0424687 0)
(0.246089 0.0408356 0)
(0.215171 0.0393799 0)
(0.185369 0.038083 0)
(0.156607 0.0369127 0)
(0.128831 0.035821 0)
(0.102035 0.0347388 0)
(0.0762591 0.0335746 0)
(0.0515607 0.032216 0)
(0.0281107 0.0304956 0)
(0.00717381 0.0282681 0)
(-0.0122699 0.0268314 0)
(-0.0304399 0.0209728 0)
(-0.0437359 0.0114157 0)
(-0.048702 -0.0078495 0)
(-0.0410869 -0.0323956 0)
(-0.0178173 -0.0463831 0)
(0.333795 -0.205441 0)
(0.393347 -0.192784 0)
(0.448167 -0.176271 0)
(0.497001 -0.155405 0)
(0.538535 -0.129963 0)
(0.571487 -0.100245 0)
(0.594869 -0.0672539 0)
(0.608297 -0.0327789 0)
(0.612258 0.00088759 0)
(0.609025 0.0311637 0)
(0.599595 0.0561826 0)
(0.585074 0.0754488 0)
(0.566472 0.0893042 0)
(0.544676 0.0984744 0)
(0.52046 0.103824 0)
(0.494492 0.106212 0)
(0.467343 0.106413 0)
(0.439498 0.105079 0)
(0.411352 0.102724 0)
(0.383219 0.0997474 0)
(0.355339 0.0964423 0)
(0.327885 0.0930203 0)
(0.30098 0.0896242 0)
(0.274704 0.0863439 0)
(0.249107 0.083227 0)
(0.224222 0.0802862 0)
(0.200071 0.0775027 0)
(0.176678 0.0748266 0)
(0.154074 0.0721754 0)