/*--------------------------------*- C++ -*----------------------------------*\
  =========                 |
  \\      /  F ield         | OpenFOAM: The Open Source CFD Toolbox
   \\    /   O peration     | Website:  https://openfoam.org
    \\  /    A nd           | Version:  8
     \\/     M anipulation  |
\*---------------------------------------------------------------------------*/
FoamFile
{
    version     2.0;
    format      ascii;
    class       volScalarField;
    location    "8.75";
    object      alpha.water;
}
// * * * * * * * * * * * * * * * * * * * * * * * * * * * * * * * * * * * * * //

dimensions      [0 0 0 0 0 0 0];

internalField   nonuniform List<scalar> 
9150
(
1
1
1
1
1
1
1
1
1
1
1
1
1
1
1
1
1
1
1
1
1
1
1
1
1
1
1
1
1
1
1
1
1
1
1
1
1
1
1
1
1
1
1
1
1
1
1
1
1
1
1
1
1
1
1
1
1
1
1
1
1
1
1
1
1
1
1
1
1
1
1
1
1
1
1
1
1
1
1
1
1
1
1
1
1
1
1
1
1
1
1
1
1
1
1
1
1
1
1
1
1
1
1
1
1
1
1
1
1
1
1
1
1
1
1
1
1
1
1
1
1
1
1
1
1
1
1
1
1
1
1
1
1
1
1
1
1
1
1
1
1
1
1
1
1
1
1
1
1
1
0.995533
0.997976
0.998703
0.99817
0.991159
0.991109
0.993839
0.998786
0.998786
0.998786
0.995521
0.998517
0.998706
0.997445
0.991109
0.991108
0.99529
0.998785
0.998786
0.998786
0.996137
0.998706
0.998709
0.997829
0.991108
0.991108
0.991979
0.998506
0.998786
0.998786
0.996141
0.997863
0.998715
0.998718
0.992354
0.991105
0.991102
0.994336
0.998786
0.998786
0.996374
0.996915
0.998718
0.998719
0.994399
0.991102
0.991102
0.992795
0.998569
0.998786
0.99789
0.998238
0.998719
0.998719
0.996886
0.991108
0.991102
0.994542
0.99847
0.997482
0.998718
0.998718
0.998719
0.998719
0.997408
0.991167
0.991107
0.996561
0.998465
0.996099
0.998719
0.998719
0.998719
0.998719
0.995331
0.991126
0.991118
0.998225
0.997231
0.996094
0.998719
0.998719
0.998719
0.998718
0.99114
0.991126
0.994859
0.998796
0.99698
0.996094
0.998471
0.998719
0.998515
0.992893
0.99115
0.991898
0.998738
0.998796
0.99853
0.996094
0.998092
0.996032
0.992666
0.992666
0.993628
0.997669
0.998796
0.998796
0.998796
0.998055
0.998356
0.99554
0.995535
0.998056
0.99875
0.99878
0.998697
0.996937
0.998632
0.998623
0.998765
0.998487
0.998778
0.998779
0.99878
0.99878
0.998182
0.996793
0.996773
0.996764
0.998771
0.998778
0.998778
0.998777
0.99878
0.99878
0.99878
0.998478
0.996757
0.996756
0.995945
0.997607
0.998778
0.998075
0.996176
0.998047
0.998765
0.998756
0.998754
0.998739
0.993232
0.996346
0.998777
0.998777
0.995291
0.991504
0.991502
0.993288
0.998652
0.998753
0.998776
0.998776
0.998777
0.998777
0.998777
0.998777
0.998777
0.98915
0.987483
0.987534
0.996319
0.998776
0.998776
0.998777
0.998777
0.998777
0.991637
0.987517
0.987314
0.987074
0.985007
0.998175
0.998495
0.998505
0.998771
0.998777
0.997144
0.988789
0.987074
0.986992
0.984212
0.992725
0.990045
0.992547
0.997429
0.998775
0.99871
0.997778
0.990243
0.985844
0.993218
0.989299
0.98928
0.991546
0.997523
0.994864
0.989758
0.990768
0.991766
0.978778
0.99323
0.989281
0.991421
0.998735
0.998134
0.981011
0.973908
0.973905
0.977853
0.975382
0.993218
0.989597
0.99863
0.99874
0.998398
0.981811
0.973905
0.973908
0.974215
0.976545
0.992079
0.990874
0.998361
0.998741
0.998741
0.998058
0.991392
0.988382
0.993135
0.992576
0.988015
0.994426
0.997326
0.998741
0.998741
0.998741
0.998736
0.998251
0.994897
0.986871
0.991238
0.995123
0.997323
0.99874
0.998741
0.998575
0.992598
0.946499
0.902044
0.952594
0.992792
0.992875
0.997711
0.998737
0.99874
0.998361
0.977719
0.865549
0.859873
0.951314
0.991923
0.992842
0.997731
0.998736
0.998731
0.998617
0.977162
0.860898
0.85979
0.859702
0.990844
0.989247
0.989016
0.995447
0.998715
0.998682
0.998693
0.956585
0.859702
0.859702
0.968396
0.989433
0.986661
0.986668
0.994949
0.998693
0.998695
0.998694
0.996608
0.929497
0.953652
0.990523
0.990416
0.986208
0.986967
0.998233
0.998703
0.998256
0.990783
0.998783
0.972108
0.990672
0.987994
0.986182
0.988292
0.998647
0.998709
0.998709
0.994367
0.998784
0.99789
0.992111
0.98722
0.989788
0.9983
0.998709
0.99871
0.998709
0.973041
0.998621
0.99857
0.996948
0.993519
0.995215
0.997555
0.973856
0.959102
0.927466
0.926103
0.98633
0.99856
0.99857
0.997421
0.947284
0.918355
0.917552
0.917136
0.917141
0.93247
0.996286
0.983595
0.965873
0.955733
0.947874
0.949532
0.959811
0.949517
0.93657
0.986673
0.998784
0.922498
0.925797
0.989719
0.997374
0.997959
0.997793
0.997963
0.996497
0.996692
0.998786
0.9211
0.982464
0.998846
0.998735
0.998657
0.997836
0.998049
0.997893
0.992199
0.979394
0.986292
0.998861
0.99887
0.997736
0.997716
0.998207
0.996177
0.966257
0.960515
0.960471
0.998862
0.998872
0.998875
0.998574
0.997786
0.99887
0.992018
0.960593
0.960565
0.960515
0.998872
0.99887
0.998876
0.998876
0.998876
0.998875
0.998745
0.997025
0.994558
0.994135
0.998873
0.998107
0.998876
0.998876
0.998876
0.998876
0.998879
0.998883
0.998883
0.998883
0.99888
0.998839
0.998879
0.988561
0.960349
0.982392
0.988977
0.998382
0.998883
0.998883
0.99888
0.99888
0.998879
0.975431
0.884311
0.883033
0.893386
0.985921
0.998878
0.998883
0.99888
0.99888
0.979457
0.887348
0.883016
0.882999
0.883033
0.964969
0.998788
0.998871
0.967888
0.911847
0.883309
0.883016
0.883004
0.883016
0.938732
0.997754
0.998407
0.998175
0.884505
0.883997
0.883948
0.902505
0.971981
0.997865
0.998098
0.998098
0.998105
0.969034
0.886021
0.906178
0.961579
0.994948
0.998246
0.998243
0.99749
0.990863
0.981929
0.967297
0.969661
0.987419
0.998212
0.998252
0.998249
0.998246
0.996742
0.993014
0.9928
0.992247
0.997674
0.998246
0.998265
0.998257
0.998203
0.997292
0.983388
0.978817
0.993332
0.995898
0.998253
0.998265
0.998266
0.997519
0.992912
0.997072
0.995742
0.978246
0.972874
0.995896
0.998265
0.998266
0.998267
0.998267
0.996462
0.989981
0.990409
0.962665
0.960235
0.960234
0.998264
0.998267
0.998267
0.998267
0.998266
0.998257
0.975226
0.960277
0.960234
0.960231
0.998258
0.998267
0.998267
0.998267
0.998267
0.998266
0.99826
0.976025
0.960277
0.960234
0.998128
0.998258
0.998267
0.998267
0.998267
0.998266
0.998266
0.994054
0.993716
0.993573
0.877244
0.970546
0.998248
0.998266
0.998266
0.998264
0.998158
0.998245
0.998201
0.967664
0.855024
0.8572
0.936789
0.992399
0.998263
0.998265
0.998255
0.99825
0.9837
0.950128
0.854842
0.855107
0.855562
0.929246
0.998103
0.998257
0.99825
0.99271
0.955809
0.954853
0.854993
0.855037
0.855144
0.912683
0.997239
0.998224
0.997621
0.9639
0.955936
0.993486
0.854949
0.854987
0.855738
0.959377
0.996865
0.996081
0.989539
0.970169
0.986539
0.996279
0.854924
0.858792
0.959517
0.996096
0.996831
0.996678
0.986814
0.968898
0.98597
0.93131
0.902243
0.977039
0.996762
0.996831
0.996831
0.996831
0.99466
0.977055
0.866006
0.712778
0.995094
0.996707
0.996772
0.996787
0.996831
0.996791
0.92436
0.823493
0.711317
0.711373
0.996221
0.996368
0.996707
0.995606
0.851129
0.711484
0.711133
0.711136
0.711156
0.711278
0.996017
0.95036
0.744981
0.711245
0.711223
0.711133
0.711133
0.711133
0.711136
0.711159
0.722334
0.712313
0.711956
0.71203
0.711671
0.711223
0.711133
0.741877
0.966432
0.987878
0.712193
0.712468
0.712455
0.711898
0.71203
0.742977
0.973238
0.990394
0.99073
0.99066
0.713522
0.712382
0.71246
0.716354
0.888483
0.987493
0.990758
0.990747
0.990733
0.99073
0.958154
0.961236
0.958606
0.949459
0.960417
0.990758
0.990758
0.990758
0.990747
0.988929
0.970585
0.970642
0.970642
0.970642
0.962158
0.947016
0.989724
0.990747
0.990621
0.98021
0.731818
0.736721
0.75201
0.835091
0.907242
0.947003
0.962926
0.970267
0.976642
0.986152
0.920314
0.969598
0.986361
0.994229
0.994393
0.993297
0.991359
0.995538
0.996852
0.99697
0.996531
0.996335
0.99599
0.995561
0.994925
0.993376
0.98081
0.966723
0.978051
0.994002
0.976522
0.957209
0.953227
0.954429
0.948633
0.913663
0.876217
0.886453
0.931446
0.989185
0.918909
0.828251
0.828251
0.828251
0.82836
0.830511
0.869915
0.913552
0.962624
0.995332
0.964553
0.865084
0.828251
0.82836
0.875256
0.963518
0.989542
0.99236
0.993318
0.994458
0.988318
0.988316
0.957443
0.925346
0.983986
0.98567
0.987434
0.959944
0.98898
0.993318
0.988316
0.974564
0.964436
0.981778
0.98358
0.983986
0.944528
0.900805
0.97671
0.959523
0.988303
0.931681
0.898273
0.959016
0.957171
0.974865
0.900805
0.900805
0.958984
0.873704
0.988435
0.919701
0.895387
0.894285
0.811794
0.913153
0.93613
0.899005
0.913848
0.872537
0.922514
0.908473
0.922351
0.723494
0.806338
0.970209
0.95052
0.89971
0.872457
0.872435
0.854581
0.911828
0.95626
0.705515
0.870057
0.974545
0.913054
0.952277
0.872218
0.87218
0.855099
0.969666
0.957367
0.703754
0.869205
0.975263
0.913181
0.977697
0.871961
0.871782
0.952122
0.971768
0.896801
0.703754
0.83069
0.9758
0.918791
0.97815
0.887136
0.871797
0.971768
0.971768
0.94799
0.703754
0.818411
0.977128
0.980054
0.978786
0.96876
0.871783
0.971768
0.971768
0.971768
0.708306
0.817968
0.980638
0.980197
0.980054
0.979031
0.903613
0.971763
0.971768
0.959257
0.684087
0.838674
0.985669
0.98191
0.980197
0.979466
0.953259
0.971756
0.971763
0.955599
0.666631
0.876207
0.991996
0.986636
0.778849
0.943822
0.976398
0.971644
0.971685
0.937778
0.659147
0.912989
0.995076
0.955742
0.319472
0.889173
0.976398
0.842586
0.905352
0.797371
0.652177
0.959941
0.996133
0.818281
0.192591
0.734945
0.702684
0.426388
0.366824
0.560149
0.646048
0.985994
0.99646
0.701866
0.168304
0.441005
0.243416
0.154934
0.206002
0.110243
0.700343
0.99646
0.997218
0.685246
0.0204402
0.0411623
0.0302695
0.104252
0.0969195
0.10418
0.817669
0.996891
0.997974
0.82417
0.0185672
0.00415791
0.0051102
0.147262
0.0945195
0.136437
0.893669
0.999079
0.99811
0.893098
0.108532
0.00213245
0.00186623
0.146719
0.0933407
0.340549
0.96748
0.999525
0.999184
0.925844
0.171232
0.0016724
0.00130589
0.10667
0.0251773
0.468511
0.992259
0.999706
0.999714
0.98071
0.367296
0.00123367
0.00122348
0.00666114
0.0114446
0.616009
0.999728
0.999875
0.999883
0.999754
0.646223
0.000978198
0.000873406
0.000550112
0.074707
0.868557
0.999882
0.999986
0.999987
0.999905
0.876103
0.0712333
0.000656173
0.000691052
0.547936
0.997723
0.999982
1
1
0.999982
0.997775
0.55205
0.00032902
0.289425
0.961188
1
1
1
1
1
1
0.960823
0.287493
0.998784
0.998784
0.998784
0.997624
0.996746
0.996747
0.998699
0.998715
0.998715
0.998715
0.998383
0.997764
0.997424
0.987968
0.993962
0.996522
0.996523
0.996522
0.99333
0.99388
0.998018
0.998652
0.998657
0.998658
0.99881
0.998811
0.998811
0.998811
0.998811
0.99881
0.99881
0.998809
0.997094
0.99076
0.997226
0.998453
0.998453
0.998454
0.99555
0.994336
0.998777
0.998428
0.998725
0.997136
0.996788
0.998707
0.998544
0.996416
0.996791
0.996122
0.985826
0.985822
0.985838
0.98791
0.995755
0.995786
0.995572
0.993988
0.993414
0.99308
0.994555
0.993143
0.993161
0.996702
0.996778
0.99819
0.998811
0.998811
0.998811
0.998811
0.998021
0.991243
0.99076
0.990771
0.993962
0.998453
0.998454
0.998454
0.998454
0.995476
0.998786
0.998785
0.998785
0.99834
0.998208
0.998701
0.989711
0.983421
0.983399
0.987064
0.998677
0.99867
0.998566
0.99468
0.972997
0.931164
0.931172
0.931238
0.970136
0.996529
0.996572
0.996617
0.99665
0.996694
0.991287
0.983907
0.987242
0.995882
0.998811
0.998811
0.998664
0.995664
0.994117
0.993878
0.997879
0.998453
0.998454
0.998454
0.998454
0.99693
0.998786
0.998786
0.998786
0.998774
0.991194
0.988067
0.98806
0.996182
0.997704
0.99806
0.998694
0.998666
0.992667
0.935241
0.931164
0.931164
0.931164
0.931172
0.931238
0.947773
0.992479
0.991886
0.996617
0.996326
0.995394
0.973954
0.960188
0.977986
0.97826
0.977606
0.983462
0.998266
0.998325
0.998329
0.998453
0.998453
0.998454
0.998454
0.998454
0.996795
0.99764
0.998786
0.998785
0.993288
0.98803
0.98803
0.997661
0.99873
0.99872
0.99871
0.998709
0.998633
0.998502
0.989019
0.935091
0.931164
0.931172
0.931238
0.936793
0.937323
0.937721
0.938527
0.969824
0.956784
0.982121
0.971259
0.948118
0.947979
0.947786
0.947725
0.947756
0.960826
0.97748
0.988383
0.995933
0.998453
0.998453
0.998454
0.996321
0.995431
0.997367
0.998781
0.99878
0.991944
0.98803
0.991907
0.998741
0.998735
0.99873
0.998718
0.982008
0.93595
0.943076
0.981266
0.981598
0.985942
0.989352
0.989893
0.991624
0.993465
0.986968
0.985783
0.937006
0.937007
0.937889
0.980559
0.980495
0.947786
0.947725
0.947725
0.947725
0.94783
0.947961
0.951631
0.987554
0.997888
0.998453
0.99744
0.994803
0.995924
0.99766
0.998778
0.998778
0.998656
0.994457
0.991933
0.998741
0.998741
0.998725
0.987625
0.901252
0.889144
0.889144
0.889144
0.889211
0.926982
0.962642
0.959266
0.989092
0.998852
0.998853
0.998852
0.99878
0.947067
0.91777
0.974577
0.998951
0.998863
0.980661
0.961133
0.984921
0.99652
0.995891
0.998241
0.987006
0.975644
0.998448
0.998206
0.995704
0.995928
0.997456
0.998778
0.99815
0.996396
0.990767
0.995263
0.998741
0.998742
0.998733
0.978749
0.889146
0.889145
0.889143
0.889152
0.905702
0.895964
0.893797
0.893797
0.912637
0.998853
0.998852
0.998822
0.98977
0.946283
0.916022
0.968241
0.998952
0.998952
0.998952
0.998953
0.998954
0.998955
0.998954
0.998168
0.972041
0.964126
0.993437
0.998174
0.997707
0.992942
0.996234
0.998777
0.998155
0.974998
0.972544
0.998227
0.998259
0.998736
0.997912
0.995765
0.94292
0.889146
0.889148
0.936144
0.99891
0.983138
0.895346
0.894138
0.910035
0.998718
0.998863
0.995135
0.929171
0.914873
0.914909
0.962827
0.998952
0.998952
0.998952
0.998952
0.998934
0.998957
0.998955
0.995859
0.965405
0.964118
0.964664
0.979621
0.974439
0.974439
0.996096
0.998627
0.998824
0.97488
0.972461
0.98565
0.998227
0.998014
0.998366
0.998853
0.997277
0.974644
0.981044
0.998916
0.998916
0.998916
0.980443
0.933655
0.988764
0.998915
0.998909
0.991723
0.916396
0.914873
0.914873
0.920133
0.996363
0.998952
0.998951
0.99895
0.998807
0.998957
0.998959
0.998832
0.977508
0.964126
0.964121
0.96415
0.982276
0.982252
0.996098
0.998311
0.998826
0.995549
0.972461
0.972619
0.977444
0.995472
0.998853
0.99886
0.998883
0.998908
0.998916
0.998916
0.998916
0.998916
0.998916
0.998916
0.998916
0.998916
0.998915
0.998222
0.945691
0.914873
0.914874
0.914874
0.954937
0.998947
0.997612
0.996056
0.998962
0.998971
0.998967
0.996475
0.989993
0.984524
0.988953
0.98899
0.983723
0.97963
0.998153
0.998826
0.998826
0.998826
0.994058
0.972943
0.973223
0.973337
0.98561
0.998883
0.998907
0.998915
0.998916
0.998916
0.998916
0.998916
0.998916
0.998916
0.998916
0.998916
0.998916
0.998907
0.991291
0.923157
0.914874
0.915014
0.921751
0.989231
0.978446
0.977363
0.998968
0.998981
0.998975
0.988875
0.975372
0.97537
0.988837
0.974359
0.958335
0.958335
0.998649
0.998826
0.998826
0.998826
0.998825
0.995706
0.991597
0.974886
0.975114
0.97753
0.997318
0.998909
0.998916
0.998916
0.998916
0.998905
0.998883
0.998897
0.998916
0.998917
0.998849
0.997744
0.998559
0.998876
0.943877
0.9152
0.946392
0.979874
0.963312
0.960873
0.981525
0.998981
0.998981
0.998981
0.992265
0.975731
0.976026
0.977001
0.976071
0.958461
0.996756
0.996777
0.998342
0.998825
0.998822
0.998834
0.99885
0.998853
0.983602
0.977876
0.980229
0.997141
0.998909
0.998916
0.998916
0.998916
0.998894
0.998891
0.998916
0.998917
0.998765
0.997744
0.998194
0.998886
0.998888
0.998889
0.982751
0.960734
0.960734
0.960734
0.970713
0.998981
0.998981
0.998981
0.998981
0.998981
0.99898
0.99898
0.99898
0.991827
0.99752
0.996797
0.996812
0.996823
0.997104
0.99885
0.998855
0.998857
0.998857
0.984549
0.980478
0.993654
0.998897
0.998915
0.998916
0.998916
0.998916
0.998916
0.998917
0.998917
0.998917
0.998134
0.997667
0.998499
0.998889
0.998889
0.998829
0.99643
0.975818
0.974497
0.996105
0.998981
0.998981
0.998981
0.998981
0.99898
0.99898
0.99898
0.99898
0.998978
0.998759
0.998778
0.997227
0.996839
0.996975
0.998855
0.998857
0.998858
0.998858
0.998721
0.998533
0.982145
0.982654
0.995837
0.998916
0.998917
0.998918
0.998917
0.998917
0.998917
0.998917
0.998917
0.998332
0.998052
0.998605
0.998889
0.998583
0.996764
0.998541
0.99898
0.998981
0.998981
0.998981
0.998981
0.998806
0.998918
0.998979
0.99898
0.998851
0.998192
0.995201
0.99882
0.998838
0.99835
0.998718
0.998857
0.998858
0.998858
0.998858
0.998858
0.998859
0.99467
0.956435
0.953283
0.957815
0.989266
0.998918
0.998918
0.998917
0.993241
0.992548
0.998541
0.998879
0.998878
0.998749
0.998887
0.998884
0.995122
0.990625
0.995707
0.99898
0.998981
0.998981
0.998981
0.99827
0.99305
0.996155
0.998979
0.998683
0.997128
0.991148
0.998817
0.998855
0.998858
0.998858
0.998857
0.99885
0.99885
0.99885
0.998859
0.998859
0.998859
0.968752
0.952654
0.952229
0.951717
0.95843
0.994965
0.99096
0.953383
0.950697
0.950675
0.98005
0.99888
0.998882
0.998884
0.997763
0.993537
0.990579
0.989102
0.99535
0.99898
0.998981
0.998979
0.998581
0.991833
0.991824
0.998207
0.99897
0.99778
0.996308
0.998852
0.998858
0.998858
0.998858
0.998859
0.998859
0.998859
0.998859
0.998859
0.998859
0.998859
0.998857
0.969565
0.951717
0.951628
0.951329
0.952714
0.950913
0.950697
0.950675
0.950669
0.950668
0.958924
0.996396
0.998882
0.998829
0.986406
0.958682
0.958585
0.981506
0.997316
0.998941
0.998979
0.998971
0.992754
0.991824
0.994191
0.998972
0.998975
0.995151
0.99877
0.992982
0.975673
0.983968
0.998513
0.998855
0.998859
0.99883
0.998859
0.998859
0.998859
0.998859
0.996511
0.993425
0.970614
0.950955
0.950881
0.950882
0.952083
0.950669
0.950668
0.950668
0.950668
0.959628
0.997242
0.998815
0.98815
0.958585
0.958532
0.95852
0.958519
0.972416
0.998241
0.99897
0.997724
0.991824
0.992368
0.998913
0.998975
0.976344
0.976377
0.975633
0.97561
0.97561
0.975637
0.975715
0.985853
0.998823
0.998858
0.998859
0.998849
0.998856
0.998855
0.998837
0.998744
0.998653
0.958525
0.950882
0.984871
0.997986
0.968075
0.950668
0.950769
0.954382
0.995517
0.998758
0.998826
0.977933
0.958559
0.958519
0.958517
0.958517
0.972277
0.99878
0.998919
0.992823
0.994503
0.998968
0.998975
0.978441
0.987452
0.995621
0.992868
0.977034
0.975726
0.975775
0.975792
0.992167
0.99884
0.991665
0.988964
0.9937
0.998837
0.998836
0.998837
0.998837
0.996044
0.995282
0.998313
0.998836
0.998825
0.983105
0.957184
0.980332
0.99879
0.998834
0.998833
0.996549
0.960396
0.958525
0.958517
0.958517
0.970556
0.998593
0.998957
0.99711
0.998145
0.998976
0.998976
0.97635
0.979995
0.995657
0.996206
0.996206
0.996206
0.988937
0.978536
0.97855
0.978741
0.979149
0.991259
0.998833
0.998836
0.998837
0.998837
0.998837
0.998839
0.998839
0.99884
0.99884
0.99884
0.998833
0.998094
0.998537
0.998836
0.998839
0.998834
0.990944
0.958734
0.958524
0.958518
0.958517
0.985464
0.998957
0.998975
0.998976
0.998976
0.998976
0.998976
0.982975
0.980101
0.988718
0.996203
0.996206
0.996206
0.995407
0.98062
0.97874
0.991262
0.9988
0.998832
0.998834
0.998834
0.998804
0.998769
0.998834
0.998839
0.99884
0.99884
0.99884
0.99884
0.99884
0.99884
0.99884
0.99884
0.99884
0.998748
0.964667
0.958559
0.958531
0.958524
0.982588
0.998944
0.998974
0.998976
0.998976
0.998976
0.998976
0.99896
0.985978
0.985476
0.991073
0.995707
0.996203
0.996204
0.995754
0.985353
0.991202
0.993612
0.993697
0.98487
0.98684
0.993688
0.994658
0.995517
0.997486
0.998804
0.99884
0.99884
0.99884
0.99884
0.99884
0.99884
0.99884
0.99884
0.99884
0.981566
0.957649
0.958477
0.976228
0.991781
0.998962
0.998973
0.998976
0.998976
0.998976
0.998973
0.998958
0.998958
0.993857
0.993869
0.990722
0.979757
0.972241
0.969346
0.981726
0.996272
0.996206
0.98204
0.973328
0.967433
0.967429
0.967452
0.971449
0.993757
0.997472
0.996156
0.994929
0.978535
0.970088
0.969433
0.969021
0.983534
0.998758
0.99884
0.99884
0.973309
0.956132
0.986184
0.998565
0.998952
0.998973
0.998976
0.998976
0.998976
0.998976
0.998976
0.998971
0.998958
0.990969
0.993826
0.956146
0.932019
0.931982
0.933236
0.989585
0.996285
0.996272
0.985526
0.970141
0.96952
0.971639
0.987728
0.995647
0.995659
0.997203
0.996709
0.993893
0.993723
0.994241
0.994217
0.96894
0.95663
0.956268
0.977594
0.965016
0.956088
0.956078
0.97235
0.998832
0.99897
0.998976
0.998976
0.998976
0.998976
0.998976
0.998976
0.998976
0.998972
0.859831
0.94073
0.974986
0.931975
0.932181
0.984952
0.996287
0.996297
0.996276
0.990056
0.986604
0.990291
0.994796
0.99519
0.995487
0.995509
0.99514
0.994848
0.994403
0.994336
0.994277
0.994241
0.972747
0.956268
0.956268
0.956182
0.956088
0.956073
0.956088
0.981448
0.998936
0.998974
0.998976
0.998976
0.998976
0.998976
0.998976
0.998505
0.998976
0.998976
0.859702
0.90031
0.991231
0.974214
0.958587
0.99629
0.996297
0.996281
0.991494
0.944918
0.906105
0.928117
0.950344
0.971148
0.969418
0.959365
0.951068
0.968423
0.98622
0.982762
0.986147
0.993348
0.992749
0.991216
0.990704
0.983738
0.961511
0.963166
0.990421
0.998242
0.99861
0.969894
0.967181
0.995287
0.998976
0.979978
0.922999
0.982126
0.998976
0.998976
0.860045
0.870929
0.995369
0.995469
0.992379
0.996297
0.996286
0.991032
0.971338
0.929022
0.897224
0.88819
0.872293
0.83721
0.806801
0.802512
0.781874
0.836957
0.963245
0.977686
0.977315
0.960471
0.947857
0.987024
0.995817
0.996094
0.995338
0.992079
0.969614
0.962763
0.939673
0.864174
0.860972
0.929483
0.978723
0.868435
0.861739
0.968737
0.998976
0.998976
0.967406
0.871073
0.921128
0.996216
0.996258
0.996286
0.996123
0.978864
0.965358
0.97556
0.991527
0.975555
0.838822
0.765391
0.765391
0.765391
0.765393
0.765422
0.765747
0.839329
0.93927
0.880545
0.869412
0.869412
0.929166
0.997722
0.99772
0.987498
0.924898
0.881827
0.856745
0.858254
0.859132
0.869168
0.86033
0.85661
0.860951
0.986624
0.998975
0.998976
0.998783
0.970202
0.921381
0.923065
0.975825
0.974519
0.972054
0.989662
0.969897
0.987595
0.994218
0.988605
0.822283
0.765394
0.765391
0.765393
0.76542
0.765607
0.767554
0.871443
0.996827
0.998373
0.997977
0.997438
0.996137
0.997726
0.997722
0.997478
0.917015
0.854643
0.855415
0.896984
0.904181
0.900916
0.856363
0.856462
0.888488
0.990458
0.998975
0.998975
0.998784
0.998784
0.965459
0.923382
0.923775
0.924047
0.94716
0.996521
0.995632
0.984785
0.994339
0.993383
0.969191
0.79776
0.765394
0.76542
0.792927
0.980086
0.998373
0.998373
0.998373
0.998373
0.998373
0.998373
0.998369
0.998166
0.99459
0.901021
0.854578
0.854559
0.854643
0.898322
0.90671
0.895236
0.856342
0.856363
0.868588
0.98546
0.998976
0.998975
0.998784
0.998785
0.997617
0.943845
0.926738
0.947704
0.98507
0.996911
0.998861
0.995094
0.996807
0.983513
0.982515
0.998372
0.995274
0.975133
0.962274
0.976125
0.998373
0.998373
0.998373
0.998373
0.998373
0.998372
0.998367
0.998322
0.992113
0.88342
0.854559
0.854549
0.854559
0.85471
0.882313
0.856099
0.85632
0.856352
0.88841
0.989478
0.997599
0.998976
0.998785
0.998786
0.998786
0.995307
0.989668
0.993955
0.998861
0.998861
0.998861
0.998861
0.998861
0.998861
0.976838
0.998373
0.998373
0.998373
0.998373
0.998373
0.998373
0.998373
0.998372
0.997729
0.998372
0.998367
0.998351
0.998336
0.998276
0.992677
0.902247
0.854559
0.854554
0.854566
0.854717
0.855388
0.871245
0.914052
0.985426
0.993821
0.993769
0.994317
0.998786
0.998786
0.998786
0.998786
0.967563
0.971548
0.997444
0.998861
0.998861
0.998861
0.998861
0.996448
0.954056
0.955405
0.998373
0.998373
0.998373
0.99814
0.998373
0.998373
0.998367
0.996457
0.995925
0.995946
0.997187
0.998264
0.998262
0.998236
0.997147
0.966599
0.906525
0.863824
0.924222
0.978827
0.99189
0.995501
0.996696
0.996703
0.99671
0.99671
0.998785
0.988646
0.981272
0.964761
0.96479
0.970554
0.996458
0.998858
0.998861
0.998861
0.998858
0.977771
0.897274
0.897349
0.936607
0.996742
0.998367
0.997265
0.986442
0.984395
0.998296
0.997587
0.982769
0.982639
0.983306
0.998262
0.998266
0.998262
0.998236
0.997852
0.995054
0.993329
0.995607
0.996545
0.996566
0.996581
0.996638
0.996696
0.996687
0.996684
0.964354
0.961288
0.961309
0.964376
0.988936
0.99887
0.998712
0.998773
0.998809
0.998722
0.998781
0.942808
0.897253
0.897274
0.897349
0.963965
0.998337
0.95843
0.890803
0.954745
0.998189
0.997871
0.994541
0.995795
0.995859
0.998266
0.998264
0.998265
0.998259
0.997615
0.996039
0.995862
0.99581
0.996307
0.996545
0.996566
0.972261
0.91315
0.912511
0.900225
0.960477
0.961829
0.998251
0.998878
0.998878
0.998878
0.995294
0.955561
0.973753
0.99871
0.99872
0.964396
0.897274
0.897253
0.955261
0.989651
0.975836
0.890803
0.890456
0.907118
0.996738
0.903989
0.867049
0.907276
0.996883
0.998024
0.91114
0.822268
0.866547
0.976057
0.986625
0.974318
0.946679
0.943307
0.971228
0.986587
0.923301
0.816435
0.816262
0.816399
0.968991
0.998878
0.998878
0.998878
0.998878
0.998873
0.979977
0.889875
0.888688
0.937471
0.998003
0.993228
0.978252
0.976359
0.994942
0.994936
0.986064
0.894057
0.890697
0.899622
0.919197
0.932498
0.880405
0.780254
0.779582
0.769313
0.72012
0.720051
0.741966
0.874341
0.893075
0.914467
0.918963
0.913199
0.913199
0.91622
0.910131
0.915486
0.839518
0.816262
0.997441
0.998877
0.998878
0.998878
0.998878
0.998124
0.982157
0.901305
0.888688
0.888688
0.907827
0.993174
0.994764
0.994941
0.994936
0.994942
0.994936
0.961486
0.894824
0.870774
0.870769
0.886966
0.941638
0.943219
0.794044
0.72012
0.720051
0.720051
0.720051
0.720863
0.747364
0.882465
0.930335
0.951201
0.951966
0.95231
0.952293
0.927224
0.935543
0.882824
0.998883
0.998832
0.998546
0.998875
0.99881
0.994599
0.99465
0.998607
0.936185
0.889009
0.888894
0.892546
0.932898
0.919785
0.904618
0.905897
0.895811
0.902136
0.870769
0.870743
0.870742
0.884181
0.933197
0.995145
0.969347
0.941588
0.930703
0.803137
0.834621
0.911195
0.810983
0.807356
0.807507
0.921384
0.951974
0.952283
0.92631
0.696256
0.943033
0.981031
0.998883
0.998883
0.998766
0.998565
0.998818
0.998886
0.998886
0.998886
0.998871
0.978826
0.939086
0.930841
0.948553
0.933497
0.883723
0.871339
0.871031
0.870769
0.870743
0.870742
0.870743
0.880648
0.97608
0.996656
0.99693
0.996934
0.996526
0.996366
0.996327
0.940161
0.808691
0.807708
0.807474
0.922221
0.950589
0.691766
0.575001
0.646898
0.912583
0.98114
0.998883
0.998883
0.998883
0.998565
0.998822
0.998886
0.998886
0.998886
0.998857
0.998881
0.998886
0.998886
0.998886
0.995758
0.981857
0.974163
0.966043
0.913509
0.870769
0.890253
0.927004
0.957792
0.993627
0.996938
0.996944
0.996937
0.985907
0.99555
0.945968
0.816205
0.813503
0.8413
0.897844
0.898505
0.578696
0.557511
0.563473
0.891839
0.961508
0.98115
0.998882
0.998883
0.998884
0.99888
0.998886
0.998886
0.998886
0.998886
0.998882
0.998886
0.998886
0.998886
0.998886
0.95557
0.946957
0.946704
0.946957
0.969809
0.990117
0.992796
0.995785
0.996871
0.996938
0.996944
0.996943
0.8888
0.864489
0.863724
0.86361
0.866841
0.892071
0.89137
0.879288
0.671819
0.552408
0.552408
0.764533
0.983074
0.983115
0.983114
0.991421
0.998883
0.998885
0.998886
0.998886
0.998886
0.998886
0.998886
0.998887
0.998887
0.998886
0.998886
0.998883
0.909505
0.966257
0.995653
0.99588
0.995897
0.995897
0.995897
0.971375
0.891521
0.871498
0.869646
0.869465
0.884778
0.994123
0.99474
0.98248
0.927715
0.654302
0.582047
0.550527
0.547615
0.590249
0.822584
0.935264
0.935975
0.981382
0.983115
0.914242
0.913865
0.952763
0.998886
0.998886
0.998886
0.998886
0.998887
0.998887
0.998887
0.998885
0.998883
0.977722
0.906781
0.991052
0.987051
0.917819
0.911681
0.912935
0.915062
0.932679
0.975225
0.980768
0.991551
0.996078
0.996127
0.996142
0.996125
0.886704
0.54644
0.546421
0.546431
0.546445
0.546546
0.590797
0.915625
0.934717
0.857344
0.970733
0.983113
0.913627
0.913627
0.913627
0.917828
0.943819
0.940876
0.945045
0.973186
0.995582
0.989534
0.992958
0.987838
0.943007
0.906544
0.981022
0.94109
0.911324
0.911187
0.917661
0.992787
0.992377
0.995918
0.995917
0.995916
0.99574
0.996113
0.996125
0.996027
0.95251
0.615535
0.546431
0.546421
0.546423
0.546432
0.54652
0.630296
0.633449
0.856239
0.983021
0.98307
0.949472
0.935427
0.913635
0.913627
0.913635
0.913883
0.914174
0.914359
0.914705
0.915014
0.958356
0.987661
0.952886
0.914225
0.98399
0.981734
0.911628
0.924995
0.994521
0.995906
0.995918
0.995918
0.995918
0.993585
0.991446
0.991408
0.995157
0.995902
0.995852
0.995776
0.845056
0.546423
0.546432
0.546431
0.546432
0.546508
0.694066
0.977974
0.982991
0.983021
0.995898
0.992583
0.953581
0.931951
0.950015
0.947824
0.914479
0.914616
0.914705
0.931221
0.991233
0.959409
0.95302
0.959655
0.991852
0.992224
0.986168
0.989627
0.995893
0.995893
0.995906
0.995914
0.99021
0.993555
0.992691
0.991481
0.991572
0.995035
0.995743
0.995714
0.995746
0.974815
0.86817
0.701398
0.706317
0.784427
0.918745
0.977138
0.978172
0.977693
0.99588
0.995824
0.995465
0.994801
0.994338
0.994001
0.990375
0.986905
0.987808
0.995485
0.997506
0.982708
0.953121
0.965511
0.988644
0.993696
0.9952
0.995717
0.995768
0.96243
0.946906
0.975718
0.86351
0.934715
0.994638
0.994751
0.993995
0.993275
0.99327
0.994771
0.995746
0.995746
0.99534
0.989124
0.991169
0.994979
0.99462
0.938489
0.975172
0.962252
0.96747
0.994235
0.987688
0.968551
0.967318
0.977017
0.993051
0.997499
0.997506
0.997506
0.997506
0.997506
0.987612
0.977349
0.940618
0.993145
0.99421
0.964249
0.76595
0.543081
0.506323
0.527957
0.497629
0.633138
0.962583
0.994987
0.995008
0.994934
0.994783
0.995627
0.995746
0.962364
0.984982
0.995303
0.995439
0.995388
0.994691
0.93844
0.980749
0.963589
0.960233
0.980937
0.984562
0.939468
0.93936
0.93936
0.958868
0.997067
0.997499
0.997506
0.997506
0.990661
0.964431
0.97705
0.82177
0.77949
0.76272
0.57791
0.497206
0.496229
0.496089
0.49609
0.496944
0.519566
0.910232
0.994253
0.994989
0.995012
0.995234
0.995482
0.993479
0.882557
0.939567
0.995437
0.995412
0.995422
0.992087
0.965974
0.984757
0.984756
0.960233
0.980331
0.962439
0.939615
0.93936
0.972241
0.996525
0.947355
0.950714
0.992759
0.997506
0.975731
0.959873
0.975738
0.744024
0.514305
0.50162
0.497207
0.496229
0.49609
0.49609
0.496089
0.5157
0.877538
0.96673
0.967786
0.991459
0.994987
0.995012
0.995
0.842216
0.737674
0.852358
0.958813
0.948969
0.908746
0.82734
0.973232
0.984756
0.984759
0.978565
0.941593
0.941225
0.940522
0.968576
0.996868
0.996679
0.845676
0.855372
0.989659
0.997434
0.986536
0.959852
0.978223
0.881006
0.636018
0.647534
0.592599
0.5747
0.604744
0.709811
0.848125
0.96445
0.965862
0.928218
0.943947
0.991491
0.994732
0.979443
0.82768
0.737559
0.737523
0.737409
0.745878
0.74832
0.754226
0.812178
0.929411
0.976496
0.984752
0.942478
0.94226
0.978297
0.996768
0.996871
0.99687
0.996868
0.828197
0.744172
0.936115
0.99738
0.993808
0.959873
0.98395
0.994365
0.975669
0.974716
0.95826
0.956159
0.970032
0.984162
0.983177
0.981993
0.915097
0.927267
0.986284
0.989291
0.92855
0.752138
0.737637
0.737587
0.737624
0.737428
0.737211
0.754588
0.937639
0.954281
0.920879
0.918027
0.952939
0.96741
0.996601
0.996871
0.996871
0.996871
0.996871
0.969722
0.751985
0.742474
0.927184
0.997199
0.997017
0.986499
0.995739
0.996331
0.996331
0.99546
0.993967
0.992627
0.991447
0.990678
0.975444
0.941941