/*--------------------------------*- C++ -*----------------------------------*\
  =========                 |
  \\      /  F ield         | OpenFOAM: The Open Source CFD Toolbox
   \\    /   O peration     | Website:  https://openfoam.org
    \\  /    A nd           | Version:  8
     \\/     M anipulation  |
\*---------------------------------------------------------------------------*/
FoamFile
{
    version     2.0;
    format      ascii;
    class       surfaceScalarField;
    location    "8.75";
    object      phi;
}
// * * * * * * * * * * * * * * * * * * * * * * * * * * * * * * * * * * * * * //

dimensions      [0 3 -1 0 0 0 0];

internalField   nonuniform List<scalar> 
18095
(
2.02115e-08
-1.72077e-07
1.51865e-07
2.34893e-08
-1.97151e-07
1.93873e-07
2.09051e-08
-2.06192e-07
2.08776e-07
1.25792e-08
-2.11674e-07
2.2e-07
8.39536e-10
-2.13071e-07
2.24811e-07
-1.11923e-08
-2.13183e-07
2.25214e-07
-2.00072e-08
-2.11143e-07
2.19958e-07
-2.32851e-08
-2.06165e-07
2.09443e-07
-2.0205e-08
-1.97187e-07
1.94107e-07
-1.72158e-07
1.51953e-07
1.56085e-08
-1.87685e-07
1.64702e-08
-1.98013e-07
1.21413e-08
-2.01863e-07
6.14941e-09
-2.05682e-07
8.19907e-11
-2.07004e-07
-6.1976e-09
-2.06903e-07
-1.20292e-08
-2.05311e-07
-1.63832e-08
-2.01811e-07
-1.55533e-08
-1.98017e-07
-1.87712e-07
6.77362e-09
-1.94459e-07
8.45801e-09
-1.99697e-07
7.48082e-09
-2.00886e-07
4.26924e-09
-2.02471e-07
-1.64718e-10
-2.0257e-07
-4.55336e-09
-2.02514e-07
-7.49886e-09
-2.02366e-07
-8.44587e-09
-2.00864e-07
-6.75934e-09
-1.99704e-07
-1.94471e-07
4.48176e-09
-1.98941e-07
4.74264e-09
-1.99958e-07
3.6962e-09
-1.99839e-07
1.69758e-09
-2.00472e-07
-6.87961e-11
-2.00803e-07
-1.80059e-09
-2.00782e-07
-3.72197e-09
-2.00444e-07
-4.73888e-09
-1.99847e-07
-4.47333e-09
-1.99969e-07
-1.98944e-07
1.05928e-09
1.10137e-09
1.26211e-09
7.90098e-10
-1.31098e-11
-7.95459e-10
-1.2396e-09
-1.08641e-09
-1.05566e-09
-2.98018e-08
-1.95341e-07
2.25143e-07
-3.21628e-08
-1.99414e-07
2.01775e-07
-2.58159e-08
-2.01021e-07
1.94674e-07
-1.5519e-08
-2.00641e-07
1.90344e-07
-4.26286e-10
-2.02111e-07
1.87019e-07
1.51012e-08
-2.02732e-07
1.87204e-07
2.61455e-08
-2.0206e-07
1.91016e-07
3.24007e-08
-2.01537e-07
1.95281e-07
2.98792e-08
-1.99662e-07
2.02184e-07
-1.95483e-07
2.25362e-07
-9.16118e-09
-1.8618e-07
-1.48542e-08
-1.93721e-07
-1.15632e-08
-2.04311e-07
-4.18203e-09
-2.08022e-07
1.32062e-09
-2.07614e-07
6.22172e-09
-2.07633e-07
1.25947e-08
-2.08433e-07
1.52195e-08
-2.04162e-07
9.23772e-09
-1.9368e-07
-1.86245e-07
-9.14262e-09
-1.77037e-07
-7.65703e-09
-1.95207e-07
-7.50459e-09
-2.04464e-07
-5.87379e-09
-2.09652e-07
1.77495e-10
-2.13665e-07
6.10157e-09
-2.13557e-07
8.06305e-09
-2.10394e-07
8.27623e-09
-2.04375e-07
9.47646e-09
-1.94881e-07
-1.76769e-07
-6.34372e-09
-1.70693e-07
-7.68918e-09
-1.93861e-07
-6.80357e-09
-2.0535e-07
-1.41879e-09
-2.15037e-07
1.61725e-09
-2.16701e-07
3.87451e-09
-2.15814e-07
7.07794e-09
-2.13598e-07
7.6455e-09
-2.04942e-07
6.26996e-09
-1.93505e-07
-1.70499e-07
-1.8828e-08
-1.88162e-08
-1.53897e-08
-1.04268e-08
-2.31716e-09
7.08289e-09
1.34426e-08
1.7943e-08
1.85452e-08
3.82734e-08
-1.58664e-07
1.2039e-07
4.05611e-08
-1.98441e-07
1.96153e-07
3.19561e-08
-2.10467e-07
2.19072e-07
1.37382e-08
-2.14406e-07
2.32623e-07
-4.75113e-09
-2.17748e-07
2.36237e-07
-2.0627e-08
-2.16787e-07
2.32662e-07
-3.27314e-08
-2.15312e-07
2.27416e-07
-4.16024e-08
-2.10863e-07
2.19734e-07
-3.83961e-08
-1.98629e-07
1.95423e-07
-1.58683e-07
1.20287e-07
1.71073e-08
-1.75771e-07
1.98364e-08
-2.0117e-07
1.7217e-08
-2.07848e-07
1.21631e-08
-2.09352e-07
2.80577e-09
-2.08391e-07
-6.94515e-09
-2.07036e-07
-1.52152e-08
-2.07042e-07
-1.91632e-08
-2.06915e-07
-1.69066e-08
-2.00886e-07
-1.7559e-07
6.56872e-09
-1.82339e-07
7.39111e-09
-2.01992e-07
6.26469e-09
-2.06721e-07
9.91785e-10
-2.04079e-07
-2.86441e-09
-2.04535e-07
-5.23166e-09
-2.04668e-07
-7.67862e-09
-2.04595e-07
-7.97223e-09
-2.06622e-07
-6.86768e-09
-2.0199e-07
-1.82458e-07
7.15353e-09
-1.89492e-07
4.40551e-09
-1.99244e-07
5.66348e-09
-2.07979e-07
1.54532e-09
-1.99961e-07
3.99663e-10
-2.03389e-07
-9.84274e-10
-2.03285e-07
-5.78678e-09
-1.99792e-07
-4.38041e-09
-2.08028e-07
-7.03837e-09
-1.99332e-07
-1.89496e-07
3.56499e-08
3.81808e-08
2.48752e-08
1.52577e-08
-1.11309e-09
-1.71934e-08
-2.59704e-08
-3.87169e-08
-3.58657e-08
2.52115e-08
1.22128e-08
-3.74243e-08
2.2095e-08
3.11575e-09
2.36781e-08
-1.58294e-09
2.58079e-08
-2.1297e-09
2.49862e-08
8.21715e-10
2.0565e-08
4.4213e-09
1.80609e-08
2.50427e-09
1.96489e-08
-1.58792e-09
2.3635e-08
-3.98606e-09
-4.19819e-09
2.78333e-08
6.08777e-08
3.1979e-08
-8.06437e-08
4.70801e-08
1.69142e-08
3.9598e-08
5.89952e-09
3.51755e-08
2.29313e-09
2.89643e-08
7.03326e-09
2.3774e-08
9.6119e-09
2.04183e-08
5.86024e-09
1.9401e-08
-5.704e-10
1.95318e-08
-4.11673e-09
-1.5785e-09
1.69123e-08
7.77123e-08
5.39931e-08
-9.97263e-08
5.64852e-08
3.81418e-08
4.03669e-08
2.20179e-08
2.91386e-08
1.35216e-08
2.05396e-08
1.56324e-08
1.46251e-08
1.55266e-08
9.82772e-09
1.06577e-08
5.78525e-09
3.47224e-09
2.82886e-09
-1.16019e-09
4.41438e-09
-3.16388e-09
7.21171e-08
7.21951e-08
-9.03189e-08
5.66962e-08
5.35631e-08
4.14956e-08
3.72187e-08
2.9428e-08
2.55894e-08
2.11809e-08
2.38797e-08
1.54441e-08
2.12635e-08
9.00296e-09
1.70991e-08
2.34179e-09
1.01336e-08
-4.1811e-09
5.36285e-09
1.19039e-08
-1.16705e-08
5.3592e-08
8.15195e-08
-6.29162e-08
4.5224e-08
6.19313e-08
3.51549e-08
4.72879e-08
2.47736e-08
3.59709e-08
1.64826e-08
3.21708e-08
1.08855e-08
2.68607e-08
5.90208e-09
2.20826e-08
-2.27074e-09
1.83065e-08
-1.48633e-08
1.79555e-08
2.35489e-08
-2.65081e-08
3.05986e-08
8.32865e-08
-3.23656e-08
2.74127e-08
6.51175e-08
2.09501e-08
5.37506e-08
1.22452e-08
4.46759e-08
4.2065e-09
4.02097e-08
-7.398e-10
3.18072e-08
-5.56718e-09
2.69101e-08
-1.31762e-08
2.59157e-08
-2.70594e-08
3.18387e-08
3.46791e-08
-3.81895e-08
8.35225e-09
7.72684e-08
-2.33406e-09
9.04674e-09
6.44233e-08
6.19302e-09
5.66045e-08
2.25946e-09
4.86095e-08
-7.35296e-10
4.32045e-08
-5.17993e-09
3.62519e-08
-1.19919e-08
3.37222e-08
-1.64073e-08
3.03312e-08
-2.18177e-08
3.72492e-08
4.09109e-08
-2.80494e-08
-1.33684e-08
6.80147e-08
2.26222e-08
-9.30724e-09
6.03622e-08
-7.34879e-09
5.46461e-08
-6.8033e-09
4.80641e-08
-5.96308e-09
4.23644e-08
-8.70996e-09
3.89988e-08
-1.1557e-08
3.65693e-08
-1.5034e-08
3.38082e-08
-1.68934e-08
3.91086e-08
4.02093e-08
-1.61918e-08
-2.76644e-08
5.67453e-08
3.89338e-08
-1.79757e-08
5.06736e-08
-1.43196e-08
5.099e-08
-1.28164e-08
4.65609e-08
-1.14411e-08
4.09891e-08
-1.11492e-08
3.87069e-08
-7.78587e-09
3.32059e-08
-8.3192e-09
3.43415e-08
-6.40663e-09
3.7196e-08
3.84417e-08
-4.63903e-09
-3.58725e-08
4.34279e-08
4.91899e-08
-2.64118e-08
4.1213e-08
-1.91064e-08
4.36846e-08
-1.27432e-08
4.01977e-08
-8.17259e-09
3.64185e-08
-4.5526e-09
3.50869e-08
-1.78483e-09
3.04381e-08
1.43973e-09
3.1117e-08
3.86709e-09
3.47686e-08
3.82352e-08
4.07358e-09
-3.78293e-08
3.55355e-08
4.57217e-08
-2.78225e-08
3.12061e-08
-1.55392e-08
3.14012e-08
-6.24965e-09
3.09081e-08
-7.30078e-10
3.08989e-08
5.19681e-09
2.916e-08
7.65385e-09
2.79811e-08
9.6818e-09
2.9089e-08
1.33697e-08
3.10807e-08
3.4939e-08
1.66659e-08
-3.2643e-08
2.49626e-08
4.32159e-08
-2.26847e-08
2.12477e-08
-1.2344e-08
2.10604e-08
-2.09629e-09
2.06604e-08
8.60549e-09
2.01971e-08
1.77844e-08
1.9981e-08
2.28781e-08
2.28874e-08
2.47626e-08
2.72043e-08
2.68548e-08
2.89884e-08
2.98911e-08
3.19026e-08
-2.38815e-08
7.32258e-09
4.15215e-08
-8.278e-09
5.64402e-09
3.57152e-09
9.21078e-09
1.1671e-08
1.25608e-08
1.90059e-08
1.28621e-08
2.55081e-08
1.34788e-08
3.12073e-08
1.71881e-08
3.77124e-08
2.06992e-08
4.30215e-08
2.36792e-08
2.61443e-08
4.67682e-08
-2.39122e-08
-1.41927e-08
4.54274e-08
-1.71778e-09
-1.65505e-08
1.80673e-08
-1.05743e-08
2.91012e-08
1.52684e-09
3.27254e-08
9.23779e-09
3.42092e-08
1.19949e-08
3.78338e-08
1.35634e-08
4.32664e-08
1.52666e-08
4.83219e-08
1.86236e-08
2.08462e-08
5.36199e-08
-1.20341e-08
-3.00631e-08
2.79045e-08
2.51727e-09
-3.11019e-08
1.88116e-08
-2.68687e-08
3.70706e-08
-1.67323e-08
4.76368e-08
-1.32841e-09
5.07284e-08
8.9032e-09
5.23683e-08
1.19234e-08
5.4637e-08
1.29978e-08
5.79731e-08
1.52874e-08
1.76772e-08
6.1142e-08
1.46742e-08
-4.76146e-08
2.87734e-09
3.03217e-08
-4.67494e-08
3.86319e-08
-3.51789e-08
5.004e-08
-2.81405e-08
6.555e-08
-1.68384e-08
8.19795e-08
-7.52634e-09
9.13095e-08
2.5933e-09
9.17505e-08
1.25568e-08
8.83858e-08
1.8652e-08
1.90054e-08
8.70575e-08
4.38697e-09
-6.86465e-08
1.66448e-08
2.6246e-08
-6.86083e-08
4.73463e-08
-5.62793e-08
6.24711e-08
-4.32654e-08
7.87314e-08
-3.30988e-08
9.67614e-08
-2.55564e-08
1.12259e-07
-1.2904e-08
1.2204e-07
2.77568e-09
1.26278e-07
1.4414e-08
1.85335e-08
1.2675e-07
-4.06492e-09
-8.34379e-08
1.88563e-08
1.43738e-08
-8.7047e-08
3.4216e-08
-7.61214e-08
5.17851e-08
-6.08344e-08
6.87689e-08
-5.00826e-08
8.63968e-08
-4.31844e-08
1.03998e-07
-3.05056e-08
1.20991e-07
-1.42171e-08
1.35649e-07
-2.43693e-10
8.4537e-09
1.45729e-07
6.50697e-09
-8.94087e-08
-5.36137e-10
1.44327e-08
-9.49726e-08
2.25494e-08
-8.42381e-08
3.15449e-08
-6.98299e-08
4.376e-08
-6.22976e-08
5.79736e-08
-5.7398e-08
7.17892e-08
-4.43212e-08
8.73688e-08
-2.97967e-08
1.04813e-07
-1.76878e-08
-1.05406e-08
1.23807e-07
6.39925e-09
-9.34053e-08
-2.40258e-09
5.05927e-09
-9.36325e-08
1.796e-09
-8.09747e-08
5.1772e-09
-7.32111e-08
1.46547e-08
-7.1775e-08
2.44454e-08
-6.71886e-08
3.56279e-08
-5.55035e-08
5.1844e-08
-4.60127e-08
6.80987e-08
-3.39424e-08
-2.61963e-08
8.37545e-08
-1.95554e-08
-8.94068e-08
1.5557e-08
-2.90019e-08
-8.41858e-08
-3.14472e-08
-7.85293e-08
-2.70707e-08
-7.75875e-08
-1.97056e-08
-7.914e-08
-1.25388e-08
-7.43553e-08
-4.36305e-09
-6.36791e-08
7.31871e-09
-5.76943e-08
1.76468e-08
-4.42703e-08
-3.52089e-08
2.66596e-08
-3.39966e-08
-8.16889e-08
2.62788e-08
-4.0351e-08
-7.78312e-08
-3.88968e-08
-7.99833e-08
-3.72592e-08
-7.9225e-08
-3.72397e-08
-7.91593e-08
-3.25407e-08
-7.90542e-08
-2.14497e-08
-7.47699e-08
-8.89568e-09
-7.02481e-08
2.33925e-10
-5.33997e-08
-3.76444e-08
2.66965e-09
-3.13442e-08
-7.53626e-08
2.5018e-08
-3.66106e-08
-7.25645e-08
-3.75258e-08
-7.9068e-08
-3.88645e-08
-7.78861e-08
-3.96462e-08
-7.83775e-08
-3.39294e-08
-8.47708e-08
-1.80192e-08
-9.06799e-08
-1.65173e-10
-8.81019e-08
1.1448e-08
-6.50126e-08
-4.32591e-08
1.70629e-08
3.65096e-09
-7.3385e-08
-5.62852e-09
-1.63067e-09
-6.72826e-08
-1.17369e-08
-6.89616e-08
-1.6575e-08
-7.30479e-08
-1.36933e-08
-8.1259e-08
-1.07149e-09
-9.73925e-08
1.28603e-08
-1.04612e-07
1.84261e-08
-9.36675e-08
2.03582e-08
-6.69445e-08
-4.67832e-08
2.38825e-08
4.00069e-08
-6.45721e-08
-4.88196e-08
2.86704e-08
-5.59458e-08
1.18621e-08
-5.21531e-08
1.3108e-11
-6.11987e-08
2.66833e-09
-8.39141e-08
1.47903e-08
-1.09514e-07
2.39001e-08
-1.13721e-07
1.31315e-08
-8.28987e-08
-1.3403e-08
-4.04098e-08
-2.85914e-08
-3.15945e-08
4.37127e-08
-4.59309e-08
-6.23539e-08
2.48661e-08
-3.70992e-08
8.01931e-09
-3.53063e-08
-3.97924e-09
-4.92001e-08
-3.55249e-09
-8.43408e-08
-2.23593e-09
-1.10831e-07
-1.10416e-08
-1.04915e-07
-5.49677e-08
-3.89724e-08
-1.10604e-07
1.52268e-08
-1.1404e-08
-1.27791e-07
5.72263e-08
-1.34385e-08
-8.97187e-08
2.54251e-08
-5.29782e-09
-1.95652e-09
-7.92474e-09
-2.23596e-08
-2.87969e-08
-3.89498e-08
-6.77506e-08
-5.93534e-08
-9.04271e-08
-7.80638e-08
-8.62048e-08
-1.04096e-07
-1.294e-08
-1.21586e-07
3.27167e-08
3.16733e-10
-1.33306e-07
7.58592e-08
1.10619e-08
-1.0036e-07
5.55806e-08
1.49808e-08
2.94795e-08
1.81763e-08
-4.15239e-09
4.83494e-09
-4.9492e-08
-2.24109e-08
-8.12361e-08
-5.8683e-08
-9.48516e-08
-7.25892e-08
-7.5429e-08
-3.23625e-08
-5.958e-08
1.68678e-08
1.48814e-08
-7.41446e-08
1.0875e-07
3.94069e-08
-1.37095e-07
9.53153e-08
2.84151e-08
8.26799e-08
3.08116e-08
5.71024e-08
3.04124e-08
1.18403e-08
2.28511e-08
-4.00398e-08
-6.80288e-09
-7.86745e-08
-3.39545e-08
-7.30206e-08
-3.80163e-08
-5.33859e-08
-2.76684e-09
1.01981e-08
-4.87026e-08
1.39597e-07
6.03805e-08
-1.60571e-07
1.24899e-07
4.31136e-08
1.10969e-07
4.47413e-08
9.27011e-08
4.86801e-08
6.83811e-08
4.71712e-08
2.74198e-08
3.41584e-08
-2.16995e-08
1.51647e-08
-5.1309e-08
-8.40677e-09
-4.26114e-08
-1.14646e-08
1.61766e-09
-3.4031e-08
1.43415e-07
6.70325e-08
-1.50067e-07
1.3279e-07
5.37374e-08
1.21164e-07
5.63679e-08
1.00841e-07
6.90023e-08
7.76361e-08
7.03765e-08
5.29399e-08
5.88545e-08
2.94372e-08
3.86673e-08
1.40304e-09
1.96273e-08
-7.62329e-09
-2.43837e-09
-1.80703e-08
1.20646e-08
1.33258e-07
7.13028e-08
-1.37528e-07
1.19158e-07
6.78371e-08
1.01805e-07
7.37202e-08
8.75935e-08
8.32141e-08
7.76157e-08
8.03542e-08
6.95155e-08
6.69547e-08
5.56492e-08
5.25336e-08
2.09435e-08
5.43328e-08
-7.92365e-09
2.64287e-08
-2.33164e-08
-2.67776e-09
1.0206e-07
8.35886e-08
-1.14346e-07
8.49559e-08
8.49407e-08
7.38742e-08
8.48019e-08
7.33249e-08
8.37634e-08
7.48553e-08
7.88237e-08
7.65692e-08
6.52407e-08
6.46257e-08
6.4477e-08
2.15675e-08
9.7391e-08
-1.54414e-08
6.34374e-08
-2.07397e-08
-1.80183e-08
4.63047e-08
8.68998e-08
-4.96159e-08
4.98672e-08
8.1378e-08
5.3196e-08
8.1473e-08
5.17728e-08
8.51864e-08
5.1564e-08
7.90325e-08
4.71864e-08
6.96182e-08
3.71826e-08
7.44806e-08
2.92365e-08
1.05337e-07
3.3011e-08
5.96627e-08
-6.77964e-09
1.90507e-08
-1.10329e-08
9.39225e-08
4.01004e-09
-1.99894e-08
9.03343e-08
-3.09588e-08
9.24422e-08
-3.35776e-08
8.78049e-08
-3.01881e-08
7.56428e-08
-2.19483e-08
6.13781e-08
-1.38993e-11
5.25459e-08
2.27996e-08
8.25231e-08
4.92703e-08
3.31917e-08
1.07518e-09
4.14153e-08
-8.29895e-08
1.22498e-07
5.4414e-08
-9.37957e-08
1.0114e-07
-8.32029e-08
8.18491e-08
-7.90176e-08
8.36193e-08
-7.12592e-08
6.78841e-08
-5.41218e-08
4.42403e-08
-3.19489e-08
3.03725e-08
1.08157e-08
3.97582e-08
3.94411e-08
4.56605e-09
5.74512e-10
3.99415e-08
-1.17776e-07
1.22034e-07
1.1824e-07
-1.09397e-07
9.27604e-08
-9.85621e-08
7.10143e-08
-7.93608e-08
6.44178e-08
-6.38969e-08
5.24199e-08
-4.71668e-08
2.75099e-08
-2.88336e-08
1.2039e-08
5.91576e-09
5.00859e-09
9.7144e-09
7.67147e-10
4.38564e-09
5.90305e-09
-1.16952e-07
1.06565e-07
1.32421e-07
-1.02724e-07
7.85326e-08
-8.31469e-08
5.14368e-08
-6.07116e-08
4.19823e-08
-4.062e-08
3.2328e-08
-2.73434e-08
1.4233e-08
-1.94944e-08
4.18967e-09
-1.3077e-08
-1.40908e-09
-2.17513e-08
9.44119e-09
1.63504e-08
-3.37162e-08
-9.15501e-08
8.15733e-08
1.16542e-07
-7.73354e-08
6.43171e-08
-6.84069e-08
4.2508e-08
-5.69817e-08
3.05569e-08
-4.66189e-08
2.19649e-08
-4.54247e-08
1.30385e-08
-4.58165e-08
4.58115e-09
-5.0788e-08
3.56207e-09
-4.83463e-08
6.99916e-09
8.14204e-09
-4.01383e-08
-6.71012e-08
7.22857e-08
7.63886e-08
-6.40018e-08
6.12173e-08
-6.76609e-08
4.6167e-08
-7.17117e-08
3.46074e-08
-7.68702e-08
2.71233e-08
-8.24067e-08
1.85749e-08
-8.61248e-08
8.29894e-09
-8.37708e-08
1.2078e-09
-7.03264e-08
-6.44561e-09
-5.50102e-09
-5.66838e-08
-5.5807e-08
7.86536e-08
4.94389e-08
-6.35421e-08
6.89523e-08
-7.42172e-08
5.68419e-08
-8.45987e-08
4.49888e-08
-8.89527e-08
3.1477e-08
-8.68734e-08
1.64953e-08
-8.34058e-08
4.83103e-09
-7.91564e-08
-3.04194e-09
-7.60544e-08
-9.54803e-09
-9.05601e-09
-7.24998e-08
-2.91442e-08
8.67583e-08
2.10393e-08
-4.02806e-08
8.00886e-08
-5.51111e-08
7.16724e-08
-7.5308e-08
6.51856e-08
-8.85349e-08
4.47037e-08
-7.96675e-08
7.62769e-09
-6.43716e-08
-1.04654e-08
-4.77386e-08
-1.96754e-08
-3.58747e-08
-2.14126e-08
-1.63954e-08
-2.85359e-08
5.99125e-08
8.30491e-08
-5.62034e-08
5.88353e-08
8.11656e-08
4.8868e-08
8.16397e-08
2.39383e-08
9.01152e-08
-1.15675e-08
8.02095e-08
-4.10877e-08
3.71477e-08
-3.84275e-08
-1.3126e-08
-1.7952e-08
-4.01514e-08
1.47983e-09
-4.0845e-08
-3.27535e-08
1.78372e-08
1.32007e-07
7.02058e-08
-1.19164e-07
1.39003e-07
7.4169e-08
1.38045e-07
8.25984e-08
1.36731e-07
9.14287e-08
1.26654e-07
9.02861e-08
9.84585e-08
6.53436e-08
7.99857e-08
5.34664e-09
7.579e-08
-3.59561e-08
7.66704e-08
-4.17259e-08
-3.77244e-08
8.16407e-08
1.3175e-07
6.51274e-08
-1.26672e-07
1.32344e-07
7.35738e-08
1.32755e-07
8.21873e-08
1.38693e-07
8.54902e-08
1.51403e-07
7.75754e-08
1.71116e-07
4.56309e-08
1.76214e-07
2.48891e-10
1.69414e-07
-2.91569e-08
1.6081e-07
-3.31221e-08
-2.83754e-08
1.5146e-07
1.08275e-07
6.9702e-08
-1.1285e-07
1.0909e-07
7.27574e-08
1.1781e-07
7.34672e-08
1.37847e-07
6.54529e-08
1.73071e-07
4.23505e-08
2.08231e-07
1.04705e-08
2.24263e-07
-1.5783e-08
2.22187e-07
-2.70814e-08
2.14825e-07
-2.57597e-08
-1.36974e-08
2.00146e-07
1.01607e-07
6.68434e-08
-9.87489e-08
1.05596e-07
6.87674e-08
1.13729e-07
6.53337e-08
1.32191e-07
4.699e-08
1.53408e-07
2.11334e-08
1.62944e-07
9.33839e-10
1.59327e-07
-1.21653e-08
1.51996e-07
-1.97505e-08
1.41911e-07
-1.56753e-08
-1.66391e-09
1.29877e-07
8.80935e-08
7.21946e-08
-9.34456e-08
8.11321e-08
7.57282e-08
7.69158e-08
6.95496e-08
6.9847e-08
5.40583e-08
5.19031e-08
3.90771e-08
3.51571e-08
1.76798e-08
2.65267e-08
-3.53467e-09
2.54277e-08
-1.86513e-08
2.88555e-08
-1.91029e-08
-6.69608e-09
3.38876e-08
6.49789e-08
1.0061e-07
-9.33946e-08
4.15751e-08
9.91316e-08
1.66902e-08
9.44338e-08
-1.52567e-08
8.60045e-08
-3.8262e-08
6.2082e-08
-4.6285e-08
2.57028e-08
-5.49406e-08
5.12137e-09
-5.83251e-08
-1.52663e-08
-5.45774e-08
-2.285e-08
-1.67551e-08
-4.4518e-08
5.53737e-08
1.40101e-07
-9.48649e-08
1.95226e-08
1.34983e-07
-1.34088e-08
1.27365e-07
-4.72291e-08
1.19824e-07
-7.81941e-08
9.30469e-08
-1.05456e-07
5.29647e-08
-1.23709e-07
2.33754e-08
-1.29002e-07
-9.97282e-09
-1.33605e-07
-1.82458e-08
-1.86858e-08
-1.31674e-07
8.75064e-08
1.76838e-07
-1.24244e-07
4.99264e-08
1.72563e-07
1.66062e-08
1.60685e-07
-1.12928e-08
1.47723e-07
-4.34654e-08
1.2522e-07
-8.29514e-08
9.24512e-08
-1.18126e-07
5.8551e-08
-1.48202e-07
2.01041e-08
-1.74284e-07
7.837e-09
-2.49651e-09
-1.90472e-07
1.46762e-07
1.87205e-07
-1.57128e-07
1.36424e-07
1.82903e-07
1.26879e-07
1.70229e-07
1.23525e-07
1.51077e-07
1.18462e-07
1.30283e-07
1.0497e-07
1.05943e-07
8.62435e-08
7.7278e-08
6.61551e-08
4.01931e-08
5.11013e-08
2.28915e-08
1.25275e-08
3.6078e-08
1.7153e-07
2.0415e-07
-1.88475e-07
1.65326e-07
1.8911e-07
1.64169e-07
1.71387e-07
1.66796e-07
1.4845e-07
1.70786e-07
1.26293e-07
1.73308e-07
1.03421e-07
1.72816e-07
7.77708e-08
1.67089e-07
4.59204e-08
1.72468e-07
1.7513e-08
3.79771e-09
1.81198e-07
1.70893e-07
2.36429e-07
-2.03171e-07
1.60693e-07
1.99312e-07
1.58701e-07
1.73379e-07
1.60928e-07
1.46223e-07
1.65475e-07
1.21746e-07
1.72369e-07
9.65271e-08
1.79441e-07
7.06982e-08
1.86524e-07
3.88384e-08
1.85108e-07
1.89287e-08
2.73573e-09
1.86171e-07
1.78818e-07
2.71861e-07
-2.14249e-07
1.49574e-07
2.28556e-07
1.39632e-07
1.83321e-07
1.36234e-07
1.4962e-07
1.39173e-07
1.18807e-07
1.46214e-07
8.94863e-08
1.55529e-07
6.13824e-08
1.59885e-07
3.44826e-08
1.61846e-07
1.69682e-08
-2.38687e-09
1.66969e-07
1.76346e-07
2.88875e-07
-1.93359e-07
1.49608e-07
2.55294e-07
1.29394e-07
2.03535e-07
1.17557e-07
1.61458e-07
1.1356e-07
1.22804e-07
1.11687e-07
9.13597e-08
1.13512e-07
5.95573e-08
1.07732e-07
4.02618e-08
9.47286e-08
2.99715e-08
1.22747e-08
8.00668e-08
1.45741e-07
2.87616e-07
-1.44482e-07
1.31773e-07
2.69263e-07
1.03255e-07
2.32053e-07
8.65978e-08
1.78115e-07
8.4906e-08
1.24496e-07
8.97214e-08
8.65446e-08
8.67279e-08
6.25509e-08
7.66343e-08
5.03554e-08
5.82932e-08
4.83127e-08
3.71778e-08
3.33903e-08
6.91889e-08
2.8557e-07
-6.71426e-08
6.60016e-08
2.72449e-07
5.58011e-08
2.42253e-07
5.76953e-08
1.76221e-07
6.44162e-08
1.17775e-07
6.58874e-08
8.50736e-08
5.72383e-08
7.12001e-08
3.86667e-08
6.89272e-08
2.16065e-08
6.53733e-08
2.26005e-08
3.61845e-08
-1.23818e-08
2.76972e-07
2.09789e-08
-1.9873e-09
2.62054e-07
1.83847e-08
2.2188e-07
4.35803e-08
1.51025e-07
5.48138e-08
1.06542e-07
4.66287e-08
9.32587e-08
1.88984e-08
9.89304e-08
-8.73516e-09
9.65606e-08
-5.02017e-11
5.66884e-08
-3.46657e-08
5.72162e-08
-5.10315e-08
2.58205e-07
6.97976e-08
-2.67411e-08
2.3776e-07
9.04253e-09
1.86096e-07
2.50366e-08
1.35031e-07
1.39324e-08
1.17646e-07
-1.13911e-08
1.18583e-07
-3.24318e-08
1.19971e-07
-4.10471e-08
1.05176e-07
2.79914e-08
-1.23499e-08
-7.65328e-08
6.98588e-08
-8.85996e-08
2.28501e-07
1.18301e-07
-4.81117e-08
1.97271e-07
-1.82047e-08
1.56188e-07
-1.60738e-08
1.32899e-07
-2.42454e-08
1.25817e-07
-2.97408e-08
1.24078e-07
-2.29923e-08
1.13223e-07
1.62484e-08
6.59355e-08
6.4784e-08
-6.08859e-08
-3.97156e-08
2.79667e-08
-1.19832e-07
1.87758e-07
1.60574e-07
-8.51584e-08
1.62598e-07
-7.30656e-08
1.44095e-07
-7.55894e-08
1.35423e-07
-7.83972e-08
1.28624e-07
-6.01575e-08
1.05838e-07
6.78432e-09
4.62812e-08
9.72081e-08
-2.44879e-08
6.32565e-08
-2.69345e-08
2.5556e-08
-2.01613e-09
-1.85314e-07
1.68149e-07
2.04923e-07
-1.81599e-07
1.58884e-07
-1.77765e-07
1.40263e-07
-1.50346e-07
1.08005e-07
-1.08212e-07
8.64888e-08
-6.70932e-08
6.47182e-08
-2.23717e-08
1.56005e-09
-8.55001e-09
-3.83082e-08
-4.5966e-08
1.04824e-08
2.98222e-08
-5.02319e-08
-2.97845e-07
1.51873e-07
3.14121e-07
-2.68223e-07
1.29265e-07
-2.36452e-07
1.08493e-07
-2.09837e-07
8.13913e-08
-1.81961e-07
5.86129e-08
-1.75319e-07
5.80752e-08
-2.09821e-07
3.60608e-08
-2.82981e-07
3.4853e-08
-3.07114e-07
3.46155e-08
3.75887e-08
-3.14881e-07
-3.6079e-07
1.32345e-07
3.8032e-07
-3.50745e-07
1.19222e-07
-3.52255e-07
1.10001e-07
-3.75516e-07
1.04654e-07
-4.13993e-07
9.70884e-08
-4.43431e-07
8.75119e-08
-4.72591e-07
6.52211e-08
-4.87751e-07
5.00133e-08
-4.98119e-07
4.49826e-08
3.87734e-08
-4.99303e-07
-4.70882e-07
1.43559e-07
4.59669e-07
-4.91533e-07
1.39878e-07
-5.16125e-07
1.34592e-07
-5.35163e-07
1.23693e-07
-5.45642e-07
1.07566e-07
-5.49927e-07
9.17944e-08
-5.48818e-07
6.41121e-08
-5.40091e-07
4.12874e-08
-5.22455e-07
2.73464e-08
1.66337e-08
-5.00315e-07
-5.98247e-07
1.58568e-07
5.83239e-07
-6.07111e-07
1.48751e-07
-5.93096e-07
1.20573e-07
-5.61198e-07
9.17961e-08
-5.3376e-07
8.01242e-08
-5.16581e-07
7.4612e-08
-5.06514e-07
5.40449e-08
-4.94415e-07
2.91895e-08
-4.74028e-07
6.96016e-09
-7.79451e-09
-4.49599e-07
-6.16133e-07
1.48584e-07
6.26119e-07
-6.03798e-07
1.36422e-07
-5.95098e-07
1.11872e-07
-5.60448e-07
5.71456e-08
-5.17516e-07
3.7189e-08
-4.80619e-07
3.77128e-08
-4.52691e-07
2.61161e-08
-4.27321e-07
3.81776e-09
-4.08878e-07
-1.14831e-08
-1.57596e-08
-4.00914e-07
-5.45521e-07
1.08822e-07
5.85284e-07
-5.01689e-07
9.25882e-08
-4.55971e-07
6.61528e-08
-4.24171e-07
2.5346e-08
-4.00333e-07
1.33504e-08
-3.72522e-07
9.90184e-09
-3.44477e-07
-1.92733e-09
-3.12285e-07
-2.83722e-08
-2.78688e-07
-4.50787e-08
-4.52468e-08
-2.492e-07
-4.44704e-07
5.80687e-08
4.95458e-07
-3.96409e-07
4.42807e-08
-3.64248e-07
3.39907e-08
-3.40312e-07
1.4061e-09
-3.1458e-07
-1.23847e-08
-2.93664e-07
-1.10154e-08
-2.74425e-07
-2.1168e-08
-2.54165e-07
-4.8634e-08
-2.19129e-07
-8.01153e-08
-8.90803e-08
-1.75296e-07
-4.03021e-07
1.304e-08
4.48047e-07
-3.55396e-07
-3.35194e-09
-3.06036e-07
-1.53682e-08
-2.68717e-07
-3.59135e-08
-2.34597e-07
-4.65035e-08
-1.98966e-07
-4.66456e-08
-1.66088e-07
-5.40455e-08
-1.40551e-07
-7.41718e-08
-1.13481e-07
-1.07186e-07
-1.26992e-07
-7.55703e-08
-2.37182e-07
-1.98913e-08
2.7011e-07
-2.19026e-07
-2.1515e-08
-2.03878e-07
-3.05187e-08
-1.94868e-07
-4.49253e-08
-1.89304e-07
-5.20683e-08
-1.76487e-07
-5.94637e-08
-1.51404e-07
-7.91292e-08
-1.15447e-07
-1.10129e-07
-7.64496e-08
-1.46185e-07
-1.66488e-07
-3.69555e-08
-2.55116e-07
-3.56785e-08
2.70902e-07
-2.47272e-07
-2.93592e-08
-2.43475e-07
-3.43162e-08
-2.3604e-07
-5.23594e-08
-2.21893e-07
-6.62162e-08
-2.00926e-07
-8.04322e-08
-1.73938e-07
-1.06119e-07
-1.28032e-07
-1.56037e-07
-6.27367e-08
-2.11483e-07
-2.43481e-07
1.42533e-08
-2.37028e-07
-5.54457e-08
2.56795e-07
-2.38272e-07
-2.81162e-08
-2.46056e-07
-2.65318e-08
-2.38144e-07
-6.02713e-08
-2.13273e-07
-9.10878e-08
-1.54273e-07
-1.39434e-07
-7.58179e-08
-1.84576e-07
2.91741e-08
-2.61032e-07
1.43421e-07
-3.25734e-07
-3.38495e-07
2.38432e-07
-1.72296e-07
-8.80597e-08
2.0491e-07
-1.53065e-07
-4.73473e-08
-1.41765e-07
-3.78326e-08
-1.45007e-07
-5.70296e-08
-1.29672e-07
-1.06423e-07
-3.21862e-08
-2.36921e-07
1.15394e-07
-3.32158e-07
2.46499e-07
-3.92138e-07
3.3798e-07
-4.17217e-07
-3.90347e-07
3.8983e-07
-1.18206e-07
-1.17293e-07
1.4744e-07
-9.1975e-08
-7.35787e-08
-6.40919e-08
-6.57158e-08
-2.80649e-08
-9.3057e-08
2.12915e-08
-1.55781e-07
1.3152e-07
-3.47152e-07
2.46316e-07
-4.46956e-07
3.32431e-07
-4.78255e-07
3.78052e-07
-4.62839e-07
-4.1991e-07
4.07615e-07
-8.31139e-09
-1.75081e-07
6.60986e-08
3.58829e-08
-1.17773e-07
4.45835e-08
-7.44169e-08
3.892e-08
-8.73937e-08
8.74764e-08
-2.04337e-07
1.91424e-07
-4.511e-07
2.66334e-07
-5.21868e-07
3.08772e-07
-5.20693e-07
3.3666e-07
-4.90727e-07
-4.05631e-07
3.22382e-07
7.68407e-08
-2.00401e-07
-5.15203e-08
1.07711e-07
-1.48642e-07
1.1067e-07
-7.73761e-08
1.26136e-07
-1.0286e-07
1.60107e-07
-2.38309e-07
2.12362e-07
-5.03354e-07
2.45476e-07
-5.54982e-07
2.61865e-07
-5.37081e-07
2.42552e-07
-4.71413e-07
-3.19696e-07
1.56619e-07
1.39375e-07
-2.00006e-07
-1.3977e-07
1.38911e-07
-1.48175e-07
1.4221e-07
-8.06765e-08
1.47582e-07
-1.08231e-07
1.83691e-07
-2.74418e-07
2.13401e-07
-5.33066e-07
2.27457e-07
-5.69038e-07
2.18463e-07
-5.28088e-07
1.41405e-07
-3.94356e-07
-2.53084e-07
7.47938e-08
1.59664e-07
-1.79919e-07
-1.79751e-07
1.30171e-07
-1.1868e-07
1.35017e-07
-8.55221e-08
1.35511e-07
-1.08726e-07
1.88678e-07
-3.27585e-07
2.18826e-07
-5.63214e-07
2.21579e-07
-5.71792e-07
1.77961e-07
-4.84471e-07
9.76538e-08
-3.1405e-07
-2.1475e-07
5.93185e-08
1.56305e-07
-1.31606e-07
-2.04618e-07
1.04512e-07
-6.68883e-08
9.38383e-08
-7.48481e-08
9.1302e-08
-1.06191e-07
1.69052e-07
-4.05335e-07
1.69904e-07
-5.64065e-07
1.62213e-07
-5.641e-07
8.06136e-08
-4.02872e-07
1.94809e-08
-2.52919e-07
-2.02669e-07
7.39861e-09
1.37396e-07
-6.09467e-08
-2.08056e-07
8.54326e-08
-1.49272e-08
6.34818e-08
-5.28969e-08
6.41765e-08
-1.06885e-07
1.05254e-07
-4.46411e-07
9.31679e-08
-5.51978e-07
8.19322e-08
-5.52862e-07
3.24228e-08
-3.53362e-07
2.01049e-09
-2.22508e-07
-2.04358e-07
3.69718e-09
4.81743e-09
-1.60252e-08
-4.97395e-08
1.72213e-08
-2.73329e-08
3.17886e-08
-6.74634e-08
3.66608e-08
-1.11757e-07
4.39738e-08
-4.53722e-07
4.65388e-08
-5.54542e-07
4.14697e-08
-5.47792e-07
2.20408e-08
-3.33932e-07
4.68237e-09
-2.0515e-07
-1.79366e-07
-2.03108e-08
-1.02643e-07
-3.12714e-08
1.17889e-07
-5.21803e-08
-7.77962e-08
-1.85541e-08
-1.01088e-07
1.89159e-08
-1.49224e-07
2.53197e-08
-4.60126e-07
2.98495e-08
-5.59072e-07
3.16647e-08
-5.49607e-07
5.08468e-08
-3.53114e-07
4.2374e-08
-1.96677e-07
-1.58889e-07
2.18961e-08
2.91892e-08
-7.49792e-08
1.45182e-08
4.56696e-08
-9.4277e-08
4.51999e-08
-1.00616e-07
4.67645e-08
-1.50786e-07
3.48239e-08
-4.48184e-07
4.02273e-08
-5.64478e-07
5.03532e-08
-5.59737e-07
9.08325e-08
-3.93596e-07
1.00979e-07
-2.06825e-07
-1.23615e-07
6.57041e-08
1.0731e-07
-9.52246e-08
-8.7065e-08
1.11971e-07
-9.89395e-08
9.60955e-08
-8.47419e-08
8.12389e-08
-1.35929e-07
8.16092e-08
-4.48551e-07
9.26904e-08
-5.75559e-07
1.04674e-07
-5.71724e-07
1.36109e-07
-4.25035e-07
1.08206e-07
-1.78923e-07
-6.8972e-08
5.35631e-08
1.1739e-07
-1.01654e-07
-1.10961e-07
1.15237e-07
-9.67857e-08
9.24317e-08
-6.19385e-08
1.11609e-07
-1.55108e-07
1.50665e-07
-4.87605e-07
1.64806e-07
-5.89698e-07
1.72212e-07
-5.7913e-07
1.52861e-07
-4.05685e-07
9.49663e-08
-1.21029e-07
-3.05628e-08
5.6559e-08
1.09218e-07
-9.77111e-08
-1.13161e-07
1.09349e-07
-9.6912e-08
7.6948e-08
-2.95382e-08
1.57667e-07
-2.3583e-07
2.0249e-07
-5.32429e-07
2.0737e-07
-5.94575e-07
2.16848e-07
-5.88606e-07
1.04532e-07
-2.93369e-07
3.12077e-08
-4.77044e-08
-1.01056e-08
1.07506e-08
2.06345e-08
-8.23884e-08
-3.59568e-08
3.20136e-08
-1.08285e-07
3.25862e-08
-3.01089e-08
1.36766e-07
-3.40013e-07
1.77045e-07
-5.72709e-07
1.88238e-07
-6.05769e-07
1.94259e-07
-5.94631e-07
9.55895e-09
-1.08672e-07
-5.50437e-08
1.68912e-08
-1.03788e-08
-5.47723e-08
-1.2543e-08
4.68512e-08
-1.16697e-07
-6.09063e-08
-5.99225e-08
-4.64885e-08
-4.45212e-08
7.6224e-08
-4.62727e-07
1.03165e-07
-5.99643e-07
1.14687e-07
-6.17287e-07
1.43518e-07
-6.23465e-07
-3.74401e-10
3.52122e-08
-5.84926e-08
7.50191e-08
4.25949e-08
-1.11463e-07
2.42695e-07
2.33135e-07
-4.28987e-07
5.66793e-08
1.26085e-07
1.80177e-08
-5.86678e-09
7.95372e-08
-5.24259e-07
7.1021e-08
-5.91126e-07
3.75193e-08
-5.83789e-07
4.61238e-08
-6.3207e-07
1.05275e-07
-2.3939e-08
-1.77174e-07
3.57495e-07
2.67993e-07
-4.02558e-07
1.67763e-07
2.60607e-07
-1.95242e-07
2.74364e-08
2.66461e-07
6.8843e-08
-4.72597e-08
1.0036e-07
-5.55775e-07
5.10935e-08
-5.41861e-07
3.11241e-08
-5.63822e-07
-4.35532e-08
-5.57387e-07
1.70463e-07
-2.37942e-07
-9.17409e-08
6.19685e-07
6.69551e-07
-4.93303e-07
-1.39707e-07
2.37582e-07
1.62735e-07
-9.07786e-08
2.175e-07
7.66394e-08
-2.14668e-07
2.29215e-08
-5.02054e-07
-8.70107e-10
-5.18067e-07
-4.13616e-08
-5.23329e-07
-6.72996e-08
-5.31447e-07
1.68137e-07
-4.73415e-07
1.62021e-07
6.25933e-07
8.26632e-07
4.86255e-09
-1.19697e-08
1.74389e-07
7.51667e-08
-3.15145e-08
2.37033e-07
8.95609e-08
-3.35746e-07
6.65723e-08
-4.79066e-07
3.62569e-08
-4.87752e-07
5.77549e-09
-4.92847e-07
-3.60868e-08
-4.89588e-07
-2.73045e-08
-4.82168e-07
9.1562e-08
5.06928e-07
6.3211e-07
2.86058e-07
-3.92787e-09
2.20861e-07
-4.25377e-08
2.33017e-08
2.09815e-07
6.31119e-08
-3.75558e-07
3.43436e-08
-4.50298e-07
-4.8179e-09
-4.48593e-07
-4.55414e-08
-4.52123e-07
-8.33077e-08
-4.5181e-07
-1.25077e-07
-4.40371e-07
1.52349e-07
2.29325e-07
4.53404e-07
3.31133e-07
-6.74178e-08
4.38878e-07
-1.50599e-07
6.01192e-08
8.22813e-08
6.85629e-08
-3.84006e-07
2.97359e-08
-4.11471e-07
-6.08543e-09
-4.12772e-07
-4.76672e-08
-4.10542e-07
-8.98779e-08
-4.09595e-07
-1.4494e-07
-3.85307e-07
1.78919e-07
-9.45603e-08
3.65447e-07
2.66966e-07
-1.05143e-07
3.77046e-07
1.66968e-07
1.30054e-07
-1.52915e-07
8.84152e-08
-3.4237e-07
4.0092e-08
-3.63153e-07
-3.39273e-09
-3.69289e-07
-4.32067e-08
-3.70727e-07
-9.2423e-08
-3.60378e-07
-1.3489e-07
-3.42841e-07
1.72686e-08
-2.46788e-07
2.92591e-07
9.00439e-08
-4.34006e-09
1.9722e-07
1.84121e-07
1.33921e-07
-2.91045e-07
9.95332e-08
-3.07981e-07
5.27855e-08
-3.16404e-07
-8.03826e-11
-3.16424e-07
-5.44979e-08
-3.16309e-07
-9.58665e-08
-3.19009e-07
-1.32839e-07
-3.05868e-07
-9.16178e-08
-2.88e-07
9.06248e-08
1.10257e-07
2.24232e-07
-1.69152e-07
1.42131e-07
1.575e-07
-2.24318e-07
1.06198e-07
-2.56678e-07
5.11441e-08
-2.61347e-07
3.89184e-10
-2.65669e-07
-4.99629e-08
-2.65957e-07
-1.06105e-07
-2.62867e-07
-1.55543e-07
-2.5643e-07
-2.18873e-07
-2.24669e-07
-1.81169e-07
5.29633e-08
1.28838e-07
-1.77594e-07
1.00673e-07
6.30669e-08
3.43429e-08
4.91055e-09