/*--------------------------------*- C++ -*----------------------------------*\
  =========                 |
  \\      /  F ield         | OpenFOAM: The Open Source CFD Toolbox
   \\    /   O peration     | Website:  https://openfoam.org
    \\  /    A nd           | Version:  8
     \\/     M anipulation  |
\*---------------------------------------------------------------------------*/
FoamFile
{
    version     2.0;
    format      ascii;
    class       volScalarField;
    location    "0.75";
    object      alpha.water;
}
// * * * * * * * * * * * * * * * * * * * * * * * * * * * * * * * * * * * * * //

dimensions      [0 0 0 0 0 0 0];

internalField   nonuniform List<scalar> 
9150
(
1
1
1
1
1
1
1
1
1
1
1
1
1
1
1
1
1
1
1
1
1
1
1
1
1
1
1
1
1
1
1
1
1
1
1
1
1
1
1
1
1
1
1
1
1
1
1
1
1
1
1
1
1
1
1
1
1
1
1
1
1
1
1
1
1
1
1
1
1
1
1
1
1
1
1
1
1
1
1
1
1
1
1
1
1
1
1
1
1
1
1
1
1
1
1
1
1
1
1
1
1
1
1
1
1
1
1
1
1
1
1
1
1
1
1
1
1
1
1
1
1
1
1
1
1
1
1
1
1
1
1
1
1
1
1
1
1
1
1
1
1
1
1
1
1
1
1
1
1
1
0.999997
0.999997
0.999997
0.999996
0.999996
0.999996
0.999996
0.999997
0.999997
0.999997
0.999999
0.999999
0.999999
0.999997
0.999996
0.999996
0.999997
0.999999
0.999999
0.999999
0.999999
0.999999
0.999999
0.999998
0.999997
0.999997
0.999999
0.999999
0.999999
0.999999
0.999999
0.999999
0.999999
0.999999
0.999998
0.999998
0.999999
0.999999
0.999999
0.999999
0.999999
0.999999
0.999999
0.999998
0.999998
0.999998
0.999998
0.999999
0.999999
0.999999
0.999999
0.999999
0.999999
0.999998
0.999998
0.999998
0.999998
0.999999
0.999999
0.999999
0.999999
0.999999
0.999999
0.999998
0.999998
0.999998
0.999998
0.999999
0.999999
0.999999
1
0.999999
0.999999
0.999999
0.999998
0.999998
0.999998
0.999999
0.999999
1
0.999999
0.999999
0.999999
0.999999
0.999998
0.999998
0.999999
0.999999
0.999999
0.999999
1.00001
0.999999
0.999999
0.999998
0.999998
0.999998
0.999999
0.999999
0.999999
1.00001
1.00002
0.999999
0.999999
0.999998
0.999998
0.999998
0.999998
0.999999
0.999999
1.00003
0.999999
0.999999
0.999999
0.999999
0.999998
0.999998
0.999999
0.999999
0.999999
0.999999
1
0.999999
0.999999
0.999999
0.999998
0.999998
0.999999
0.999999
0.999999
1
1.00007
1
0.999999
0.999999
0.999998
0.999998
0.999999
0.999999
1
1.00006
0.881699
1
0.999999
0.999998
0.999998
0.999998
0.999998
0.999999
1
0.891231
0.779592
0.999999
0.999999
0.999998
0.999998
0.999998
0.999998
0.999999
0.999999
0.785642
0.672537
0.999999
0.999999
0.999998
0.999998
0.999998
0.999999
0.999999
0.999999
0.6807
0.562823
1
0.999999
0.999999
0.999998
0.999998
0.999999
0.999999
1
0.571894
0.459201
1
0.999999
0.999999
0.999998
0.999998
0.999999
0.999999
1
0.468107
0.370045
1.00002
0.999999
0.999999
0.999998
0.999998
0.999998
0.999999
1.00002
0.377954
0.302241
0.976411
0.999999
0.999998
0.999998
0.999998
0.999998
0.999999
0.980353
0.308672
0.248608
0.938052
0.999999
0.999998
0.999998
0.999998
0.999998
0.999999
0.941011
0.254492
0.204849
0.912853
0.999999
0.999999
0.999998
0.999998
0.999999
0.999999
0.916418
0.210205
0.168432
0.884831
0.999999
0.999999
0.999998
0.999998
0.999999
0.999999
0.888775
0.173226
0.138612
0.857156
0.999999
0.999999
0.999998
0.999998
0.999999
0.999999
0.861462
0.142909
0.11413
0.829993
0.999999
0.999998
0.999998
0.999998
0.999999
0.999999
0.834613
0.117978
0.0940135
0.803634
0.999999
0.999998
0.999998
0.999998
0.999998
0.999999
0.808556
0.0974768
0.0774335
0.778255
0.999999
0.999998
0.999998
0.999998
0.999998
0.999999
0.783499
0.0805808
0.0636938
0.753883
0.999999
0.999998
0.999998
0.999998
0.999998
0.999999
0.759493
0.0665809
0.0522618
0.730507
0.999999
0.999999
0.999998
0.999998
0.999998
0.999999
0.736528
0.0549239
0.0427391
0.708118
0.999999
0.999999
0.999998
0.999998
0.999999
0.999999
0.714601
0.0451994
0.0348009
0.6867
0.999999
0.999999
0.999998
0.999998
0.999999
0.999999
0.693688
0.0370747
0.0281777
0.666244
0.999999
0.999998
0.999998
0.999998
0.999998
0.999999
0.673751
0.0302715
0.0226515
0.646748
0.999999
0.999998
0.999998
0.999998
0.999998
0.999999
0.65475
0.0245669
0.0180526
0.628213
0.999999
0.999998
0.999998
0.999998
0.999998
0.999999
0.636664
0.0197902
0.0142441
0.610659
0.999999
0.999998
0.999998
0.999998
0.999998
0.999999
0.619523
0.0158059
0.0111082
0.594105
0.999999
0.999998
0.999998
0.999998
0.999998
0.999999
0.603362
0.0124982
0.00854418
0.578559
0.999998
0.999998
0.999998
0.999998
0.999998
0.999999
0.588191
0.00976671
0.00647043
0.564064
0.999998
0.999998
0.999998
0.999998
0.999998
0.999998
0.574028
0.00752947
0.00481642
0.550685
0.999998
0.999998
0.999998
0.999998
0.999998
0.999998
0.560895
0.00571643
0.00351846
0.538514
0.999998
0.999998
0.999998
0.999998
0.999998
0.999998
0.548832
0.00426561
0.00252017
0.52764
0.999998
0.999998
0.999998
0.999998
0.999998
0.999998
0.53791
0.00312328
0.00177193
0.518138
0.999998
0.999998
0.999998
0.999998
0.999998
0.999998
0.528208
0.00224234
0.00122617
0.510078
0.999998
0.999998
0.999998
0.999998
0.999998
0.999998
0.519829
0.00158009
0.000830192
0.503619
0.999999
0.999998
0.999998
0.999998
0.999998
0.999998
0.512816
0.00109322
0.000535571
0.499014
0.999094
0.999998
0.999998
0.999998
0.999998
1
0.507339
0.000732071
0.000313614
0.495742
0.997421
0.999998
0.999998
0.999998
0.999998
0.998815
0.50354
0.000460894
0.000176555
0.493478
0.996744
0.999998
0.999998
0.999998
0.999998
0.997507
0.500743
0.000254186
0.000122526
0.491988
0.996243
0.999996
0.999998
0.999998
0.999998
0.996904
0.499008
0.000153283
7.47153e-05
0.491495
0.995929
0.999992
0.999998
0.999998
0.999995
0.996501
0.49775
0.000102381
3.25465e-05
0.491544
0.99581
0.999991
0.999998
0.999998
0.999991
0.996237
0.497421
5.53932e-05
1.02121e-12
0.492549
0.995829
0.99999
0.999998
0.999998
0.99999
0.996173
0.49802
1.31188e-05
1.00186e-12
0.494109
0.996089
0.999991
0.999998
0.999998
0.99999
0.99632
0.499043
1.00154e-12
9.92512e-13
0.496447
0.996325
0.999992
0.999998
0.999998
0.999991
0.99653
0.500969
9.49615e-13
9.89269e-13
0.499462
0.996593
0.999992
0.999998
0.999998
0.999992
0.996774
0.503528
9.18497e-13
9.87171e-13
0.503123
0.996883
0.999993
0.999998
0.999998
0.999992
0.997036
0.506804
9.03108e-13
9.85754e-13
0.507422
0.997191
0.999993
0.999998
0.999998
0.999993
0.997321
0.510756
8.92339e-13
9.84949e-13
0.51235
0.997512
0.999994
0.999998
0.999998
0.999993
0.997621
0.515375
8.84949e-13
9.84624e-13
0.517906
0.99784
0.999994
0.999998
0.999998
0.999994
0.997931
0.520659
8.80253e-13
9.84543e-13
0.52409
0.998169
0.999994
0.999998
0.999998
0.999994
0.998245
0.526607
8.77583e-13
9.84565e-13
0.530906
0.998491
0.999994
0.999998
0.999998
0.999994
0.998554
0.533223
8.76728e-13
9.84694e-13
0.538363
0.998801
0.999994
0.999998
0.999998
0.999994
0.998852
0.540512
8.76769e-13
9.85082e-13
0.54647
0.99909
0.999995
0.999998
0.999998
0.999995
0.999132
0.54848
8.7713e-13
9.86203e-13
0.555233
0.999349
0.999995
0.999998
0.999998
0.999995
0.999383
0.557135
8.78151e-13
9.87754e-13
0.56466
0.999573
0.999995
0.999998
0.999998
0.999995
0.999598
0.566477
8.74545e-13
9.55202e-13
0.57475
0.999744
0.999995
0.999998
0.999998
0.999995
0.999767
0.576504
8.1719e-13
2.35508e-13
0.585498
0.999879
0.999996
0.999998
0.999998
0.999996
0.999891
0.587206
3.37709e-14
-4.7164e-12
0.596904
0.999941
0.999996
0.999998
0.999998
0.999996
0.999946
0.598575
-6.55399e-12
-9.09154e-11
0.608939
0.999962
0.999996
0.999998
0.999998
0.999996
0.999962
0.610578
-1.21483e-10
-1.60059e-09
0.621546
0.999972
0.999997
0.999998
0.999998
0.999997
0.999973
0.623145
-2.12737e-09
-2.75496e-08
0.634701
0.99998
0.999997
0.999998
0.999998
0.999997
0.999981
0.636244
-3.64172e-08
-4.45617e-07
0.64825
0.999984
0.999997
0.999998
0.999998
0.999997
0.999984
0.649717
-5.82333e-07
-6.14683e-06
0.661751
0.999984
0.999997
0.999998
0.999998
0.999998
0.999985
0.663028
-7.83545e-06
0.00187768
0.674187
0.999985
0.999998
0.999998
0.999999
0.999998
0.999985
0.675228
0.00255877
0.00967235
0.685878
0.999984
0.999998
0.999999
0.999999
0.999998
0.999985
0.686901
0.00999896
0.0137266
0.698269
0.999984
0.999998
0.999999
0.999999
0.999998
0.999984
0.699207
0.0140904
0.0189708
0.710998
0.999984
0.999998
0.999998
0.999999
0.999998
0.999984
0.711837
0.0193107
0.0245071
0.724052
0.999984
0.999998
0.999998
0.999999
0.999998
0.999984
0.724785
0.0248313
0.0306549
0.737468
0.999984
0.999999
0.999999
0.999999
0.999999
0.999984
0.738088
0.0309526
0.0374263
0.75124
0.999983
0.999999
0.999999
0.999999
0.999999
0.999984
0.751747
0.0376923
0.0449206
0.765371
0.999983
0.999999
0.999999
0.999999
0.999999
0.999984
0.765767
0.0451497
0.0532326
0.779853
0.999983
0.999999
0.999999
0.999999
0.999999
0.999983
0.780148
0.0534211
0.0624764
0.794676
0.999983
0.999999
0.999999
0.999999
0.999999
0.999983
0.794881
0.0626228
0.0727861
0.809827
0.999983
0.999999
0.999999
0.999999
0.999999
0.999983
0.809955
0.0728907
0.0843257
0.825292
0.999983
0.999999
0.999999
0.999999
0.999999
0.999983
0.82536
0.084391
0.0973036
0.841061
0.999983
0.999999
0.999999
0.999999
0.999999
0.999983
0.841085
0.0973342
0.111991
0.857122
0.999984
0.999999
0.999999
0.999999
0.999999
0.999984
0.857117
0.111993
0.128742
0.873448
0.999984
0.999999
0.999999
0.999999
0.999999
0.999984
0.873426
0.128724
0.148015
0.889989
0.999984
0.999999
0.999999
0.999999
0.999999
0.999984
0.889962
0.147985
0.170404
0.906657
0.999985
0.999999
1
1
0.999999
0.999985
0.906632
0.170368
0.196694
0.923309
0.999986
1
1
1
1
0.999986
0.92329
0.196661
0.228005
0.939725
0.999987
1
1
1
1
0.999987
0.939713
0.227979
0.266017
0.95554
0.999988
1
1
1
1
0.999988
0.955535
0.266002
0.313208
0.970392
0.999989
1
1
1
1
0.999989
0.970391
0.313203
0.373188
0.983415
0.999989
1
1
1
1
0.999989
0.983416
0.373191
0.45023
0.993992
0.999991
1
1
1
1
0.999991
0.993993
0.450236
0.549709
0.998041
0.999993
1
1
1
1
0.999993
0.998041
0.54971
0.665569
0.999805
0.999997
1
1
1
1
0.999997
0.999805
0.665561
0.796016
0.999948
0.999999
1
1
1
1
0.999999
0.999948
0.796001
0.911128
1
1
1
1
1
1
1
1
0.911117
0.999997
0.999999
0.999998
0.999998
0.999998
0.999996
0.999995
0.999993
0.999993
0.999993
0.999993
0.999992
0.999992
0.999992
0.999992
0.999991
0.999991
0.999991
0.999991
0.999991
0.999991
0.999991
0.999991
0.999989
0.999989
0.999989
0.999989
0.999989
0.999988
0.999988
0.999984
0.999971
0.999972
0.946886
0.857392
0.764697
0.700679
0.703663
0.90277
0.909697
0.999999
0.999999
0.999999
0.999998
0.999997
0.999992
0.99996
0.999958
0.999981
0.999979
0.99994
0.99994
0.999964
0.999992
0.999992
0.999989
0.999952
0.999947
0.999974
0.999987
0.999948
0.999957
0.999991
0.99999
0.999956
0.999926
0.999981
0.999988
0.999988
0.999988
0.999974
0.999973
0.999972
0.995543
0.973336
0.917484
0.700432
0.700426
0.700429
0.909277
0.999999
0.999999
0.999995
0.999973
0.999956
0.999905
0.999433
0.999142
0.999216
0.999825
0.999979
0.999986
0.999989
0.999991
0.999991
0.999962
0.999947
0.999947
0.999947
0.999947
0.999947
0.999959
0.999988
0.999976
0.999919
0.999919
0.999943
0.999988
0.999988
0.999975
0.999952
0.999972
0.999972
0.999971
0.999971
0.999965
0.959995
0.859872
0.700427
0.938491
0.999999
0.999999
0.999929
0.999471
0.999218
0.987531
0.968073
0.995359
0.999678
0.999925
0.999977
0.999987
0.999989
0.999989
0.99999
0.999968
0.999947
0.999947
0.999947
0.999947
0.999952
0.999972
0.999975
0.999919
0.999918
0.999919
0.999951
0.999954
0.999954
0.999975
0.999973
0.999857
0.999919
0.999962
0.999981
0.999987
0.999976
0.996479
0.963919
0.978521
0.999999
0.999993
0.999578
0.945153
0.717465
0.505862
0.28796
0.286188
0.384415
0.620037
0.97213
0.999998
0.999988
0.999989
0.999989
0.999965
0.999947
0.999947
0.99996
0.999983
0.999981
0.999948
0.999918
0.999918
0.999918
0.999958
0.999957
0.999903
0.999886
0.999956
0.99997
0.999818
0.999782
0.999901
0.999987
0.999989
0.99999
0.999988
0.999982
0.985743
1
0.999961
0.960767
0.372058
0.0059511
0.00197894
0.00168566
0.000530097
0.000762337
0.0226637
0.206717
0.611062
0.999306
0.999899
0.999956
0.999976
0.999981
0.999989
0.999997
0.999995
0.999944
0.999918
0.999918
0.999918
0.999948
0.999964
0.99994
0.999885
0.999885
0.99994
0.999964
0.999849
0.999778
0.999808
0.999977
0.999989
0.99999
0.99999
0.99999
0.99174
1
0.999861
0.45765
0.00687502
0.00204427
0.00106087
0.000258528
7.09339e-05
0.000105886
0.000168967
0.000677686
0.0400235
0.470436
0.969902
0.999687
0.999964
0.999993
0.999997
0.999997
0.999995
0.999919
0.999918
0.999918
0.99995
0.99997
0.999964
0.999885
0.999885
0.999885
0.999955
0.999961
0.999869
0.999774
0.999774
0.999918
0.99999
0.99999
0.99999
0.99999
0.992253
1.00003
0.865097
0.115409
0.00223924
0.000710765
0.00035706
9.57294e-05
2.06242e-05
1.41692e-05
3.93705e-05
0.000167441
0.000428204
0.00214256
0.558788
0.996234
0.999934
0.999993
0.999997
0.999997
0.999998
0.999959
0.999919
0.999962
0.999988
0.999969
0.999886
0.999885
0.999885
0.999941
0.999954
0.999955
0.999793
0.999773
0.999773
0.999874
0.99999
0.99999
0.99999
0.99999
0.991901
1.00006
0.475868
0.00867285
0.000827785
0.000173743
8.23011e-05
3.95318e-05
7.06485e-06
2.77218e-06
7.47611e-06
3.29661e-05
4.31509e-05
0.000250451
0.147974
0.846465
0.999924
0.999992
0.999997
0.999998
0.999998
0.999996
0.999993
0.999997
0.999991
0.999891
0.999885
0.999894
0.999947
0.999947
0.999932
0.999793
0.999773
0.999773
0.999773
0.999901
0.999991
0.99999
0.99999
0.99999
0.991903
0.999957
0.217199
0.00219441
0.000292255
5.86245e-05
2.60725e-05
1.20906e-05
3.12149e-06
7.20101e-07
1.87894e-06
7.95367e-06
1.64213e-05
0.000439467
0.0134396
0.58452
0.980757
0.999547
0.999997
0.999998
0.999998
0.999998
0.999998
0.999998
0.999988
0.999896
0.999908
0.999951
0.999949
0.999904
0.999775
0.999773
0.999773
0.999773
0.999791
0.999971
0.999993
0.999939
0.999983
0.99999
0.997114
0.786102
0.068123
0.000909264
0.000103447
1.99523e-05
1.10207e-05
6.53341e-06
1.38053e-06
2.69896e-07
7.81998e-07
2.34007e-06
1.39037e-05
0.000264002
0.000474544
0.341824
0.950587
0.999995
0.999995
0.999998
0.999998
0.999998
0.999998
0.999998
0.999991
0.999984
0.999994
0.999954
0.999852
0.999844
0.999868
0.99991
0.999774
0.999773
0.999907
0.999993
0.999993
0.999855
0.999905
0.999987
0.999987
0.579375
0.01701
0.000389097
3.62112e-05
6.7346e-06
4.55542e-06
4.03571e-06
8.26679e-07
2.28394e-07
5.34146e-07
1.4347e-06
1.00135e-05
6.15527e-05
0.000254535
0.238338
0.927459
0.999992
0.999975
0.999734
0.999986
0.999998
0.999998
0.999997
0.999997
0.999998
0.999997
0.999923
0.999843
0.999843
0.99998
0.999997
0.999934
0.99989
0.99999
0.999993
0.999941
0.999854
0.999854
0.999984
0.999987
0.386253
0.00209613
0.000194572
1.57335e-05
2.47767e-06
1.71969e-06
1.86716e-06
3.53501e-07
2.20796e-07
2.41298e-07
6.71271e-07
4.25307e-06
1.3031e-05
0.000264464
0.200153
0.903502
0.999989
0.999881
0.999605
0.999826
0.999998
0.999998
0.999998
0.999998
0.999998
0.999994
0.999948
0.999909
0.999957
0.999997
0.999997
0.999997
0.999997
0.999996
0.999984
0.999854
0.999854
0.999896
0.999986
0.999988
0.23403
0.00126325
0.000102161
7.37096e-06
9.84065e-07
6.65089e-07
2.89049e-07
2.13258e-07
2.17654e-07
2.20448e-07
2.69924e-07
1.42407e-06
2.037e-05
0.000423242
0.24354
0.933228
0.999989
0.999813
0.999605
0.999669
0.999998
0.999998
0.999998
0.999998
0.999998
0.999995
0.999995
0.999997
0.999997
0.999998
0.999998
0.999997
0.999997
0.99999
0.999873
0.999854
0.99988
0.999976
0.999984
0.999988
0.131575
0.000671255
4.82947e-05
2.9304e-06
5.13335e-07
4.18865e-07
1.94227e-07
2.05344e-07
2.11017e-07
2.19743e-07
3.43259e-07
3.06622e-06
5.00934e-05
0.000763743
0.359471
0.993358
0.999993
0.999843
0.999605
0.9997
0.999998
0.999998
0.999998
0.999998
0.999998
0.999998
0.999997
0.999997
0.999998
0.999998
0.999997
0.999997
0.999994
0.999925
0.999864
0.99989
0.999982
0.999988
0.999988
0.999988
0.0688211
0.000322892
1.87375e-05
9.96879e-07
4.65489e-07
4.65202e-07
1.87524e-07
1.94427e-07
2.04857e-07
2.44469e-07
8.96136e-07
1.04739e-05
0.000141087
0.018739
0.600316
0.999994
0.999995
0.999942
0.999646
0.999797
0.999998
0.999998
0.999998
0.999998
0.999998
0.999996
0.999996
0.999998
0.999998
0.999998
0.999998
0.999992
0.999937
0.999921
0.999927
0.999937
0.999941
0.999988
0.999988
0.999988
0.0305599
0.000129961
4.40112e-06
3.07177e-07
5.59321e-07
4.63372e-07
1.83759e-07
1.83893e-07
2.09461e-07
4.39763e-07
3.46062e-06
4.23145e-05
0.000498015
0.143592
0.878369
0.999996
0.999996
0.999991
0.999914
0.999886
0.999998
0.999998
0.999998
0.999998
0.999996
0.999996
0.999996
0.999996
0.999997
0.999998
0.999998
0.999984
0.999943
0.999942
0.999942
0.999903
0.999851
0.999949
0.999988
0.999988
0.0100743
4.44645e-05
2.25876e-07
4.81542e-08
1.11951e-07
1.6123e-07
1.56269e-07
1.83759e-07
2.88626e-07
1.46666e-06
1.43676e-05
0.00015444
0.00755918
0.528336
0.999997
0.999997
0.999996
0.999996
0.999951
0.999887
0.999998
0.999998
0.999998
0.999998
0.999998
0.999996
0.999996
0.999996
0.999996
0.999998
0.999998
0.99999
0.999983
0.999929
0.99987
0.99985
0.99985
0.999873
0.999988
0.999988
0.00317056
2.03952e-05
4.80917e-08
4.81013e-08
4.8068e-08
5.38097e-08
9.54372e-08
2.20933e-07
1.26136e-06
1.07974e-05
0.000106048
0.000638198
0.227916
0.941878
0.999998
0.999997
0.999997
0.999943
0.999912
0.999918
0.999998
0.999998
0.999998
0.999998
0.999998
0.999996
0.999996
0.999997
0.999998
0.999998
0.999998
0.999998
0.999996
0.9999
0.99985
0.99985
0.99985
0.999935
0.999988
0.999988
0.000767312
1.55226e-05
4.80917e-08
4.81446e-08
4.80671e-08
5.43246e-08
1.1924e-07
6.42352e-07
5.03225e-06
4.62232e-05
0.000427423
0.0659439
0.739048
0.999998
0.999999
0.999998
0.999971
0.99991
0.999911
0.999957
0.999998
0.999998
0.999998
0.999993
0.999991
0.999997
0.999998
0.999998
0.999998
0.999998
0.999998
0.999998
0.999998
0.999954
0.99985
0.99985
0.999887
0.999988
0.999988
0.999987
0.000555959
1.24848e-05
4.95221e-08
4.81522e-08
4.91156e-08
7.26971e-08
3.08876e-07
2.37359e-06
2.07594e-05
0.000190029
0.00382177
0.479655
0.999941
0.999999
0.999999
0.999999
0.999972
0.99991
0.999917
0.999998
0.999998
0.999997
0.99999
0.99999
0.999991
0.999998
0.999998
0.999998
0.999998
0.999998
0.999998
0.999998
0.999984
0.999841
0.999916
0.999941
0.999971
0.999953
0.999979
0.999987
0.000398572
7.34868e-06
6.27011e-08
4.95744e-08
5.7272e-08
1.90552e-07
1.42708e-06
1.30106e-05
0.000123409
0.000884006
0.209429
0.925862
0.999997
0.999999
0.999999
0.999999
0.99999
0.999966
0.999973
0.999995
0.999995
0.99999
0.99999
0.99999
0.999997
0.999998
0.999998
0.999998
0.999998
0.999998
0.999998
0.999944
0.999823
0.999819
0.999877
0.999989
0.999987
0.999953
0.999987
0.999987
0.00028444
4.04192e-06
1.11097e-07
5.98572e-08
8.27639e-08
4.54826e-07
4.39669e-06
3.99902e-05
0.000359119
0.0391962
0.659387
0.999992
0.999999
0.999999
0.999999
0.999999
0.999999
0.999998
0.999991
0.999989
0.99999
0.99999
0.999991
0.999997
0.999998
0.999998
0.999998
0.999998
0.999998
0.999971
0.999857
0.999817
0.999817
0.999818
0.999892
0.999989
0.999989
0.999988
0.999987
0.999715
0.000202796
2.18504e-06
3.44442e-07
9.13489e-08
1.48732e-07
1.15698e-06
1.24236e-05
0.000126797
0.000991
0.284648
0.978798
0.999999
0.999999
0.999999
0.999999
0.999999
0.999996
0.99999
0.999989
0.999989
0.99999
0.999997
0.999998
0.999998
0.999998
0.999998
0.999998
0.99994
0.999852
0.999816
0.999816
0.999816
0.999817
0.999862
0.999979
0.999989
0.999989
0.999851
0.997332
0.996632
0.000145281
1.53017e-06
5.99746e-07
1.76294e-07
3.72605e-07
2.94334e-06
3.35047e-05
0.000347017
0.0411019
0.671694
0.999996
0.999999
0.999999
0.999999
0.999999
0.999997
0.999989
0.999989
0.999989
0.999992
0.999997
0.999997
0.999997
0.999998
0.999966
0.999875
0.999824
0.999816
0.999816
0.999816
0.999816
0.999816
0.999926
0.999987
0.999995
0.999994
0.999086
0.99594
0.995833
0.995845
0.000103393
1.63419e-06
1.30126e-06
3.84401e-07
7.43206e-07
6.14619e-06
7.31278e-05
0.000788387
0.20609
0.926066
0.999999
0.999999
0.999999
0.999999
0.999999
0.999998
0.99999
0.999989
0.999992
0.999997
0.999997
0.999997
0.999933
0.999859
0.999817
0.999816
0.999816
0.999816
0.999816
0.999816
0.999925
0.999969
0.999996
0.999996
0.999996
0.999988
0.99902
0.996356
0.995844
0.996756
7.30646e-05
1.79249e-06
1.55418e-06
7.54652e-07
1.58947e-06
1.28152e-05
0.000154287
0.00360603
0.47078
0.999998
0.999999
0.999999
0.999999
0.999999
0.999999
0.999999
0.999998
0.999997
0.999997
0.999997
0.999909
0.999855
0.999855
0.999857
0.999887
0.999961
0.999899
0.999816
0.999833
0.99997
0.999996
0.999996
0.999996
0.999996
0.999989
0.999962
0.999961
0.999871
0.999284
0.997794
5.30391e-05
1.95003e-06
1.62908e-06
1.41661e-06
3.27779e-06
3.02022e-05
0.000333681
0.044122
0.696362
0.999999
0.999999
0.999999
0.999999
0.999999
0.999999
0.999999
0.999999
0.999999
0.999982
0.99987
0.999854
0.999854
0.999854
0.999905
0.999971
0.999968
0.999968
0.999941
0.999983
0.999996
0.999996
0.999996
0.999996
0.999996
0.999996
0.999579
0.997114
0.99861
0.999587
0.998771
3.94002e-05
2.07999e-06
1.77945e-06
1.93039e-06
4.43856e-06
4.32107e-05
0.000499805
0.124676
0.842484
0.999999
0.999999
0.999999
0.999999
0.999999
0.999999
0.999999
0.999999
0.999996
0.999896
0.999854
0.999854
0.999854
0.99994
0.999976
0.999973
0.999842
0.999766
0.999996
0.999996
0.999996
0.999996
0.999996
0.999996
0.999996
0.999996
0.999943
0.98025
0.936413
0.958729
0.992251
2.92614e-05
2.51338e-06
2.14714e-06
2.24041e-06
3.97014e-06
4.34814e-05
0.000659615
0.226666
0.927981
0.999999
0.999999
0.999999
0.999999
0.999999
0.999999
0.999999
0.999999
0.999998
0.999912
0.999854
0.999854
0.999971
0.999981
0.999978
0.99977
0.999666
0.999666
0.999798
0.999996
0.999996
0.999996
0.999996
0.999996
0.999996
0.999996
0.999887
0.985501
0.934209
0.847963
0.7009
2.11703e-05
2.94821e-06
2.94211e-06
2.85935e-06
4.58259e-06
4.04697e-05
0.000701211
0.245651
0.932845
0.999999
0.999999
0.999999
0.999999
0.999999
0.999999
0.999999
0.999999
0.999999
0.999978
0.999945
0.999963
0.999989
0.999983
0.999811
0.999666
0.999666
0.999666
0.999666
0.999899
0.999996
0.999996
0.999996
0.999996
0.999996
0.999996
0.999894
0.994319
0.930686
0.702439
0.650944
1.47342e-05
2.90212e-06
3.15838e-06
3.2998e-06
1.11251e-05
4.60094e-05
0.00065913
0.227572
0.920844
0.999999
0.999999
0.999999
0.999999
0.999999
0.999999
0.999999
0.999999
0.999999
0.999999
0.999998
0.999997
0.999992
0.999935
0.999667
0.999666
0.999666
0.999666
0.999744
0.999994
0.999996
0.999996
0.999996
0.999996
0.999996
0.999993
0.999739
0.997223
0.836012
0.650936
0.650952
1.04997e-05
2.2188e-06
2.38483e-06
3.93449e-06
2.50602e-05
0.000181659
0.000600791
0.17371
0.879463
0.999999
0.999999
0.999999
0.999999
0.999999
0.999999
0.999999
0.999999
0.999999
0.999999
0.99999
0.999905
0.999872
0.999869
0.999861
0.999856
0.999808
0.999845
0.999966
0.999992
0.999996
0.999786
0.999339
0.999996
0.999996
0.999996
0.999207
0.968745
0.704109
0.650939
0.650924
7.47188e-06
1.6324e-06
1.26958e-06
3.37544e-06
2.58817e-05
0.000415322
0.000497087
0.0911313
0.779885
0.999999
0.999999
0.999999
0.999999
0.999999
0.999999
0.999999
0.999999
0.999999
0.999967
0.999872
0.999872
0.999872
0.999872
0.999984
0.999999
0.999999
0.999997
0.999995
0.999994
0.998503
0.995615
0.995617
0.997929
0.999996
0.999983
0.999423
0.960521
0.696153
0.650964
0.65094
4.79339e-06
1.28248e-06
1.17042e-06
1.45257e-06
1.7454e-05
0.000244896
0.000617488
0.0205679
0.581032
0.999999
0.999999
0.999999
0.999999
0.999999
0.999999
0.999999
0.999999
0.999985
0.999876
0.999872
0.999872
0.999872
0.999928
0.999999
0.999999
0.999999
0.999999
0.999998
0.998624
0.995616
0.995616
0.995616
0.995617
0.997909
0.999996
0.999863
0.957186
0.69486
0.650739
0.650987
3.13699e-06
1.17042e-06
1.1426e-06
1.16368e-06
9.01675e-06
9.68196e-06
0.00121119
0.00231223
0.307089
0.958966
0.999999
0.999999
0.999999
0.999999
0.999999
0.999999
0.999999
0.999988
0.999881
0.999872
0.999871
0.999894
0.999999
0.999999
0.999999
0.999999
0.999999
0.999997
0.998872
0.995616
0.995616
0.995616
0.995714
0.999509
0.999998
0.999996
0.964912
0.712026
0.650988
0.650817
1.94045e-06
1.07332e-06
1.14371e-06
1.1473e-06
2.49289e-06
4.1644e-06
0.00135123
0.00194405
0.0961448
0.784601
0.999999
0.999999
0.999999
0.999999
0.999999
0.999999
0.999999
0.999998
0.999967
0.999896
0.999901
0.999988
0.999999
0.999999
0.999999
0.999999
0.999999
0.999998
0.999933
0.998896
0.996208
0.995805
0.999494
0.999999
0.999998
0.999981
0.99671
0.845306
0.679084
0.651026
1.13224e-06
6.26916e-07
1.22395e-06
1.18528e-06
9.9088e-07
1.71929e-06
0.000638358
0.002365
0.0077044
0.455119
0.999435
0.999999
0.999999
0.999999
0.999999
0.999999
0.999999
0.999999
0.999998
0.999995
0.999994
0.999999
0.999999
0.999999
0.999999
0.999999
0.999999
0.999998
0.999996
0.999833
0.999617
0.99965
0.999999
0.999999
0.999998
0.999986
0.999454
0.980629
0.843202
0.651068
5.89631e-07
3.60577e-07
9.16146e-07
1.38735e-06
7.08522e-07
9.4109e-07
1.13472e-06
0.00228441
0.00286647
0.14325
0.846055
0.999999
0.999999
0.999999
0.999999
0.999998
0.999998
0.999999
0.999999
0.999999
0.999999
0.999999
0.999999
0.999999
0.999999
0.999999
0.999999
0.999997
0.999989
0.999881
0.999864
0.999999
0.999999
0.999999
0.999998
0.999987
0.99976
0.945409
0.702762
0.651144
3.50811e-07
2.37321e-07
3.65988e-07
1.02688e-06
2.42038e-07
3.33052e-07
6.29909e-07
0.000816166
0.00344988
0.00844163
0.432408
0.98841
0.999999
0.999999
0.999999
0.999998
0.999998
0.999998
0.999999
0.999999
0.999999
0.999999
0.999999
0.999999
0.999999
0.999999
0.999999
0.999999
0.999973
0.999945
0.999991
0.999999
0.999999
0.999999
0.999999
0.999988
0.999424
0.823928
0.66436
0.667506
1.54312e-07
1.31677e-07
5.56492e-08
1.38919e-07
7.6175e-08
1.36061e-07
2.31904e-07
5.17614e-06
0.00209345
0.00416115
0.0603701
0.681603
0.999999
0.999999
0.999999
0.999999
0.999998
0.999998
0.999998
0.999999
0.999999
0.999999
0.999965
0.999892
0.999973
0.999999
0.999999
0.999998
0.999994
0.999997
0.999999
0.999999
0.999999
0.999999
0.999999
0.999983
0.997935
0.84235
0.697996
0.95015
1.53986e-07
9.49289e-08
3.14016e-08
2.60587e-08
2.956e-08
5.09175e-08
7.82505e-08
1.57638e-06
6.72987e-05
0.00278334
0.00485307
0.132722
0.785274
0.999999
0.999999
0.999999
0.999999
0.999999
0.999999
0.999999
0.999999
0.999919
0.999835
0.999836
0.99987
0.999999
0.999999
0.999999
0.999999
0.999999
0.999999
0.999999
0.999999
0.999998
0.999995
0.999699
0.991886
0.973227
0.999824
0.993153
1.52138e-07
3.1676e-08
2.72721e-08
1.05293e-08
1.19432e-08
1.92765e-08
3.68128e-08
4.88425e-07
5.80806e-06
0.000172542
0.0016217
0.00281862
0.158442
0.791487
0.999999
0.999999
0.999999
0.999999
0.999999
0.999999
0.999991
0.99986
0.999835
0.999835
0.99993
0.999999
0.999999
0.999999
0.999999
0.999999
0.999999
0.999999
0.999999
0.999995
0.999962
0.998954
0.997821
0.99991
0.999863
0.990648
1.32527e-07
1.70306e-08
1.51134e-08
6.07996e-09
6.07462e-09
8.83277e-09
1.73348e-08
1.57599e-07
1.64659e-06
1.17396e-05
5.29279e-05
0.000302881
0.000804668
0.104572
0.637428
0.983032
0.999999
0.999999
0.999999
0.999999
0.999999
0.999965
0.999896
0.999893
0.999986
0.999999
0.999996
0.999998
0.999999
0.999999
0.999999
0.999999
0.999999
0.999983
0.999927
0.99995
0.999993
0.999719
0.99209
0.980054
7.54449e-08
7.98345e-09
6.18252e-09
4.69804e-09
4.49549e-09
5.30398e-09
9.01195e-09
5.17479e-08
4.80744e-07
2.73555e-06
1.39816e-05
3.8096e-05
0.000234232
0.00066678
0.0256827
0.275988
0.80241
0.999999
0.999999
0.999999
0.999999
0.999999
0.999995
0.999958
0.999945
0.999945
0.999975
0.999999
0.999999
0.999999
0.999999
0.999999
0.999996
0.999995
0.999998
0.999998
0.999995
0.99725
0.98021
0.980053
3.69585e-08
5.34363e-09
4.69804e-09
4.53319e-09
3.9026e-09
4.1303e-09
5.36867e-09
1.80438e-08
1.54798e-07
9.85118e-07
4.67696e-06
1.56724e-05
5.98922e-05
0.000140977
0.000647385
0.122852
0.825059
0.999999
0.999999
0.999999
0.999999
0.999997
0.999955
0.999945
0.999945
0.999968
0.999999
0.999999
0.999999
0.999998
0.999997
0.999997
0.999998
0.999998
0.999998
0.999997
0.999858
0.995814
0.981359
0.980433
1.24161e-08
3.98908e-09
1.24241e-08
4.59753e-09
3.6525e-09
3.77102e-09
4.11872e-09
8.74528e-09
6.38133e-08
3.75495e-07
1.85e-06
1.09585e-05
1.38713e-05
4.66561e-05
0.00227134
0.450119
0.999999
0.999999
0.999999
0.999999
0.999999
0.999999
0.999986
0.999965
0.999987
0.999999
0.999999
0.999999
0.999997
0.999997
0.999997
0.999998
0.999998
0.999998
0.999998
0.999986
0.999514
0.99699
0.996707
0.997372
2.1507e-09
3.55434e-10
1.48115e-08
4.8064e-09
3.59872e-09
3.58341e-09
3.70623e-09
5.05241e-09
2.29617e-08
2.25273e-07
1.21224e-06
6.59362e-06
1.87678e-05
0.000253017
0.000620846
0.321168
0.959512
0.999999
0.999999
0.999999
0.999999
0.999999
0.999998
0.999999
0.999999
0.999999
0.999999
0.999997
0.999997
0.999998
0.999998
0.999998
0.999998
0.999998
0.999998
0.999973
0.999426
0.997898
0.997855
0.997763
1.86746e-10
4.99662e-12
1.41438e-08
5.60846e-09
3.56926e-09
3.49873e-09
3.53611e-09
4.82437e-09
2.58225e-08
2.08911e-07
1.03236e-06
4.87869e-06
2.06757e-05
0.00029951
0.00108342
0.00884303
0.389927
0.976669
0.999999
0.999999
0.999999
0.999999
0.999999
0.999999
0.999997
0.999989
0.999988
0.999997
0.999997
0.999997
0.999998
0.999998
0.999986
0.999942
0.99993
0.999969
0.999783
0.9948
0.992493
0.99474
5.13115e-12
4.81685e-12
4.74527e-09
9.1014e-09
3.66743e-09
3.46356e-09
3.48033e-09
5.80018e-09
3.3359e-08
2.20686e-07
8.94978e-07
4.09256e-06
1.8568e-05
0.000129318
0.000479181
0.0256382
0.622534
0.999999
0.999999
0.999999
0.999999
0.999999
0.999999
0.999999
0.999995
0.999949
0.999944
0.999974
0.999989
0.999949
0.999991
0.999994
0.999894
0.999598
0.999772
0.999961
0.998654
0.986076
0.968868
0.965538
4.04225e-12
4.62973e-12
5.25191e-11
9.50927e-09
3.79413e-09
3.4372e-09
3.45253e-09
6.52563e-09
4.00751e-08
2.43808e-07
8.3498e-07
2.83816e-06
8.06662e-06
2.52002e-05
0.000441649
0.269527
0.944824
0.999999
0.999999
0.999999
0.999999
0.999999
0.999999
0.999999
0.999999
0.999986
0.999945
0.999903
0.999909
0.992213
0.975477
0.983171
0.99989
0.999604
0.999617
0.987558
0.965944
0.951127
0.944997
0.944997
1.04401e-12
4.32767e-12
4.24837e-12
8.50514e-09
4.00886e-09
3.42904e-09
3.45105e-09
5.85761e-09
3.50932e-08
2.33267e-07
7.682e-07
2.1887e-06
8.99777e-06
1.88306e-05
0.000736305
0.41948
0.999999
0.999999
0.999999
0.999999
0.999999
0.999999
0.999999
0.999999
0.999999
0.999999
0.999999
0.99989
0.993279
0.949488
0.937559
0.937566
0.983574
0.999588
0.989755
0.945343
0.944702
0.944702
0.94485
0.945005
1.00222e-12
7.36927e-12
4.2512e-12
3.65867e-09
3.79886e-09
3.43221e-09
3.7505e-09
4.28549e-09
1.81233e-08
1.56193e-07
5.56177e-07
1.34064e-06
4.9322e-06
0.000119445
0.000644057
0.239819