/*--------------------------------*- C++ -*----------------------------------*\
  =========                 |
  \\      /  F ield         | OpenFOAM: The Open Source CFD Toolbox
   \\    /   O peration     | Website:  https://openfoam.org
    \\  /    A nd           | Version:  8
     \\/     M anipulation  |
\*---------------------------------------------------------------------------*/
FoamFile
{
    version     2.0;
    format      ascii;
    class       volScalarField;
    location    "0.75";
    object      epsilon;
}
// * * * * * * * * * * * * * * * * * * * * * * * * * * * * * * * * * * * * * //

dimensions      [0 2 -3 0 0 0 0];

internalField   nonuniform List<scalar> 
9150
(
0.0319947
0.0128274
0.00332296
0.00120265
0.000816925
0.000816925
0.00120265
0.00332296
0.0128274
0.0319947
0.030895
0.00906463
0.00190305
0.0008169
0.000635748
0.000635748
0.0008169
0.00190305
0.00906463
0.030895
0.0290733
0.00723677
0.00126329
0.000691255
0.000577587
0.000577587
0.000691255
0.00126329
0.00723677
0.0290733
0.0271093
0.00628986
0.000969174
0.000654404
0.000560939
0.000560939
0.000654403
0.000969174
0.00628986
0.0271093
0.0250706
0.00589087
0.000820321
0.000647276
0.000559434
0.000559434
0.000647276
0.000820321
0.00589088
0.0250706
0.129218
0.0575779
0.0285433
0.0206542
0.0179767
0.0179767
0.0206542
0.0285432
0.057578
0.129218
0.0781122
0.0242051
0.0158883
0.0128568
0.0112708
0.0112708
0.0128568
0.0158883
0.0242051
0.0781122
0.0566382
0.0185279
0.00882659
0.00652638
0.00555977
0.00555977
0.00652638
0.00882659
0.0185279
0.0566382
0.0434846
0.01572
0.00535605
0.00317437
0.00251459
0.00251459
0.00317437
0.00535605
0.01572
0.0434846
0.0364234
0.0141422
0.00383347
0.00172348
0.00125626
0.00125626
0.00172348
0.00383347
0.0141422
0.0364234
2.17393
0.271736
0.081851
0.0407528
0.0289129
0.0289176
0.0407703
0.0818931
0.271856
2.17461
0.293403
0.126913
0.0545045
0.0292652
0.0220151
0.0220152
0.0292654
0.0545051
0.126914
0.293406
0.244955
0.110679
0.0533708
0.0289124
0.0221343
0.0221343
0.0289124
0.0533707
0.110679
0.244955
0.205265
0.0983853
0.0526355
0.028618
0.0223561
0.0223561
0.0286179
0.0526355
0.0983854
0.205265
0.163102
0.0932246
0.0484987
0.0271151
0.0219192
0.0219192
0.027115
0.0484987
0.0932249
0.163102
1628.49
1654.17
1671.9
1682.59
1687.19
1687.2
1682.63
1671.97
1654.28
1628.65
678.886
687.903
694.466
698.72
700.799
700.8
698.723
694.473
687.915
678.905
516.542
522.521
526.961
529.898
531.358
531.355
529.888
526.946
522.501
516.519
468.273
472.889
476.333
478.619
479.757
479.75
478.597
476.298
472.842
468.215
458.892
462.63
465.424
467.281
468.204
468.193
467.247
465.368
462.553
458.797
469.724
472.804
475.118
476.663
477.429
477.412
476.613
475.037
472.692
469.585
493.673
496.316
498.315
499.652
500.314
500.291
499.585
498.204
496.163
493.48
527.362
529.898
531.791
533.048
533.663
533.633
532.959
531.645
529.695
527.106
569.564
572.183
574.114
575.381
575.994
575.956
575.267
573.925
571.922
569.235
619.938
622.72
624.756
626.081
626.715
626.666
625.935
624.516
622.389
619.52
678.605
681.546
683.692
685.08
685.737
685.675
684.895
683.388
681.126
678.074
745.929
748.976
751.197
752.624
753.292
753.213
752.39
750.81
748.443
745.255
822.457
825.509
827.734
829.156
829.809
829.71
828.859
827.243
824.831
821.599
908.775
911.736
913.883
915.24
915.845
915.72
914.864
913.261
910.876
907.685
1005.67
1008.39
1010.34
1011.54
1012.05
1011.9
1011.07
1009.55
1007.31
1004.29
1113.99
1116.28
1117.86
1118.8
1119.15
1118.96
1118.21
1116.89
1114.92
1112.27
1234.78
1236.33
1237.3
1237.78
1237.87
1237.62
1237.04
1236.08
1234.65
1232.64
1369.29
1369.54
1369.44
1369.16
1368.84
1368.53
1368.25
1367.93
1367.44
1366.62
1518.67
1516.71
1514.89
1513.42
1512.46
1512.09
1512.3
1513.03
1514.12
1515.37
1683.37
1678.09
1673.76
1670.58
1668.72
1668.26
1669.21
1671.49
1674.94
1679.35
1862.95
1853.32
1845.62
1840.15
1837.08
1836.53
1838.49
1842.87
1849.49
1858.08
2057.22
2041.73
2029.58
2021.09
2016.46
2015.79
2019.09
2026.26
2037.1
2051.33
2264.84
2241.81
2223.97
2211.63
2205.01
2204.2
2209.21
2219.94
2236.2
2257.69
2483.55
2451.07
2426.16
2409.09
2400.03
2399.06
2406.18
2421.31
2444.27
2474.79
2709.77
2665.88
2632.49
2609.77
2597.82
2596.69
2606.35
2626.74
2657.73
2699.12
2938.45
2881.25
2838.07
2808.89
2793.68
2792.42
2805.06
2831.57
2871.9
2925.96
3162.84
3090.77
3036.81
3000.62
2981.94
2980.63
2996.65
3030.04
3080.94
3149.54
3373.68
3286.45
3221.58
3178.33
3156.22
3154.97
3174.57
3215.18
3277.21
3361.3
3561.11
3460.04
3385.13
3335.37
3310.11
3309.01
3332.06
3379.54
3452.07
3550.61
3718.14
3605.17
3521.51
3466.05
3438.05
3437.11
3463.25
3516.79
3598.49
3709.44
3840.72
3717.46
3626.28
3565.94
3535.6
3534.83
3563.62
3622.37
3711.91
3833.48
3925.46
3793.44
3695.99
3631.65
3599.42
3598.8
3629.77
3692.82
3788.92
3919.51
3968.66
3829.91
3727.85
3660.66
3627.13
3626.66
3659.24
3725.42
3826.39
3963.93
3966.12
3824.16
3720.03
3651.65
3617.65
3617.36
3650.75
3718.46
3821.8
3962.79
3916.36
3775.87
3672.84
3605.24
3571.73
3571.67
3605.02
3672.4
3775.09
3915.03
3824.13
3688.88
3589.57
3524.43
3492.26
3492.47
3525.05
3590.56
3690.17
3825.6
3697.21
3569.3
3475.39
3413.86
3383.62
3384.13
3415.39
3477.95
3572.87
3701.79
3542.11
3423.2
3335.94
3278.84
3250.94
3251.73
3281.24
3339.97
3428.92
3549.59
3365.28
3256.72
3177.06
3125.02
3099.73
3100.77
3128.16
3182.36
3264.27
3375.22
3173.77
3076.33
3004.86
2958.22
2935.69
2936.92
2961.92
3011.11
3085.28
3185.61
2974.32
2888.35
2825.29
2784.2
2764.46
2765.79
2788.22
2832.11
2898.13
2987.28
2773.25
2698.76
2644.07
2608.45
2591.43
2592.78
2612.55
2651.02
2708.72
2786.48
2576.73
2513.24
2466.51
2436.05
2421.55
2422.85
2439.99
2473.18
2522.8
2589.41
2390.61
2336.94
2297.29
2271.39
2259.08
2260.26
2274.97
2303.34
2345.6
2402.08
2219.5
2173.83
2139.95
2117.77
2107.21
2108.23
2120.85
2145.14
2181.23
2229.26
2065.84
2026.08
1996.51
1977.09
1967.8
1968.63
1979.58
2000.7
2032.04
2073.66
1929.81
1893.99
1867.33
1849.78
1841.33
1841.96
1851.68
1870.51
1898.5
1935.68
1809.76
1776.32
1751.43
1735.02
1727.05
1727.49
1736.36
1753.67
1779.48
1813.85
1703
1670.85
1646.93
1631.13
1623.39
1623.67
1631.97
1648.32
1672.8
1705.5
1606.54
1574.95
1551.47
1535.95
1528.29
1528.43
1536.36
1552.13
1575.84
1607.62
1517.17
1485.82
1462.56
1447.19
1439.56
1439.6
1447.28
1462.67
1485.91
1517.16
1431.91
1400.88
1377.9
1362.73
1355.17
1355.13
1362.6
1377.66
1400.46
1431.23
1348.34
1318.03
1295.62
1280.82
1273.43
1273.37
1280.6
1295.23
1317.41
1347.42
1265.02
1235.96
1214.49
1200.31
1193.24
1193.18
1200.1
1214.11
1235.37
1264.16
1181.39
1154.13
1133.98
1120.68
1114.05
1114.01
1120.54
1133.72
1153.73
1180.81
1097.73
1072.69
1054.17
1041.94
1035.85
1035.84
1041.89
1054.08
1072.55
1097.52
1014.87
992.28
975.546
964.496
959.01
959.029
964.552
975.638
992.405
1015.02
933.861
913.764
898.856
889.008
884.131
884.18
889.154
899.101
914.113
934.322
855.737
838.02
824.863
816.172
811.877
811.947
816.383
825.221
838.531
856.414
781.33
765.793
754.245
746.616
742.856
742.939
746.868
754.671
766.401
782.135
711.23
697.628
687.513
680.833
677.547
677.636
681.103
687.969
698.278
712.086
645.777
633.863
625.002
619.15
616.277
616.367
619.421
625.458
634.511
646.628
585.108
574.651
566.874
561.74
559.222
559.308
561.999
567.31
575.269
585.916
529.202
519.999
513.155
508.638
506.425
506.505
508.878
513.558
520.57
529.946
477.93
469.806
463.766
459.779
457.827
457.9
459.997
464.13
470.322
478.6
431.091
423.899
418.55
415.021
413.293
413.357
415.215
418.875
424.357
431.686
388.442
382.054
377.304
374.17
372.635
372.692
374.341
377.59
382.457
388.964
349.714
344.024
339.793
337.001
335.633
335.683
337.15
340.043
344.376
350.169
314.63
309.547
305.767
303.272
302.05
302.093
303.402
305.983
309.851
315.025
282.91
278.356
274.97
272.735
271.638
271.676
272.846
275.157
278.619
283.251
254.28
250.19
247.148
245.141
244.156
244.187
245.237
247.309
250.415
254.573
228.474
224.794
222.057
220.251
219.364
219.391
220.333
222.195
224.986
228.724
205.245
201.93
199.466
197.84
197.04
197.064
197.91
199.584
202.095
205.458
184.352
181.377
179.162
177.696
176.975
176.996
177.757
179.263
181.518
184.532
165.656
162.966
160.959
159.63
158.976
158.994
159.685
161.05
163.094
165.822
148.981
146.51
144.669
143.45
142.85
142.867
143.501
144.753
146.629
149.135
134.085
131.794
130.088
128.96
128.405
128.42
129.006
130.166
131.903
134.227
120.751
118.614
117.023
115.97
115.452
115.466
116.013
117.094
118.714
120.881
108.792
106.787
105.295
104.307
103.821
103.834
104.346
105.36
106.879
108.911
98.0443
96.1539
94.746
93.8144
93.3553
93.367
93.8496
94.8049
96.2371
98.1525
88.3635
86.5708
85.2351
84.351
83.9149
83.9254
84.3826
85.288
86.6455
88.4607
79.6201
77.9103
76.6359
75.7919
75.3752
75.3845
75.8199
76.6828
77.9765
79.706
71.6986
70.0586
68.8356
68.0253
67.6248
67.6331
68.0501
68.877
70.1166
71.7733
64.4962
62.9145
61.7343
60.9519
60.5649
60.5724
60.9742
61.7713
62.9659
64.5616
57.9219
56.3883
55.2433
54.4838
54.1078
54.1148
54.5047
55.2778
56.436
57.9821
51.8962
50.4013
49.2843
48.543
48.176
48.1829
48.5637
49.3187
50.4489
51.9564
46.3498
44.8847
43.7889
43.0612
42.7008
42.7079
43.0826
43.8246
44.9346
46.4138
41.2231
39.7788
38.6971
37.9781
37.6219
37.6292
38.0002
38.7343
39.8313
41.2916
36.4642
35.0313
33.9564
33.241
32.8864
32.8938
33.2633
33.994
35.0849
36.5349
32.0278
30.5966
29.5211
28.8044
28.4486
28.4557
28.8257
29.5572
30.6483
32.0965
27.8727
26.4344
25.3519
24.6295
24.2702
24.2766
24.6486
25.3844
26.481
27.9348
23.9606
22.5097
21.4164
20.6859
20.3219
20.3272
20.7019
21.4436
22.5487
24.0124
20.2568
18.7941
17.6916
16.9545
16.5866
16.5907
16.967
17.7128
18.8242
20.2962
16.7315
15.2695
14.1688
13.433
13.0654
13.0684
13.4422
14.1841
15.2909
16.7589
13.3647
11.9342
10.8605
10.1435
9.78502
9.78717
10.1499
10.8709
11.9485
13.3823
10.1553
8.8139
7.81069
7.1411
6.80591
6.80739
7.14546
7.81773
8.82323
10.1663
7.14387
5.97934
5.10642
4.52104
4.22712
4.22812
4.52399
5.11116
5.98559
7.15113
4.4522
3.56658
2.88094
2.4154
2.18162
2.18225
2.41726
2.88398
3.57069
4.4572
2.32376
1.77216
1.28585
0.963538
0.808351
0.80865
0.964447
1.28739
1.77435
2.32664
1.19339
0.758053
0.394961
0.227587
0.163885
0.163958
0.227824
0.3954
0.758733
1.19432
1591.38
1542.16
1481.39
1409.52
1328.07
1239.71
1148.76
1067.53
993.731
924.992
860.925
801.543
746.771
696.356
649.905
606.964
567.074
529.814
494.818
461.78
430.446
400.613
372.111
344.804
318.578
293.336
268.997
245.49
222.751
200.721
179.341
158.553
138.284
118.37
98.4794
79.1312
59.7252
40.426
23.0539
10.286
666.593
650.48
631.237
609.122
584.627
558.5
531.854
506.51
481.751
456.973
432.107
407.383
383.124
359.62
337.078
315.613
295.267
276.027
257.845
240.658
224.392
208.975
194.338
180.416
167.149
154.485
142.373
130.771
119.639
108.942
98.6506
88.7392
79.1906
69.9995
61.1983
52.9258
45.4283
39.3723
37.0018
57.907
508.507
498.102
485.809
471.787
456.312
439.758
422.574
405.233
387.728
369.963
351.955
333.834
315.793
298.031
280.718
263.981
247.902
232.526
217.868
203.922
190.668
178.075
166.112
154.743
143.935
133.653
123.87
114.557
105.693
97.2611
89.2544
81.6761
74.5485
67.925
61.9166
56.7483
52.897
51.592
57.4792
113.331
462.038
453.989
444.403
433.29
420.718
406.853
392.053
376.712
360.998
345.019
328.875
312.68
296.568
280.68
265.145
250.061
235.501
221.509
208.113
195.319
183.125
171.52
160.486
150.004
140.054
130.614
121.668
113.2
105.202
97.6706
90.6149
84.0597
78.0552
72.6947
68.1497
64.7509
63.21
65.4113
78.7268
168.612
453.787
447.22
439.269
429.748
418.414
405.139
390.459
374.993
359.111
343.042
326.942
310.943
295.143
279.636
264.515
249.854
235.708
222.111
209.085
196.636
184.765
173.466
162.728
152.539
142.884
133.751
125.131
117.015
109.405
102.308
95.7458
89.7603
84.4249
79.8675
76.317
74.2119
74.5023
79.7295
99.9044
223.091
465.469
460.088
453.572
445.698
435.717
422.025
405.569
388.484
371.19
353.97
336.894
320.075
303.624
287.623
272.124
257.17
242.794
229.013
215.837
203.265
191.295
179.917
169.122
158.899
149.236
140.126
131.561
123.54
116.07
109.167
102.862
97.2122
92.3108
88.3187
85.5206
84.4621
86.3295
94.3054
120.931
275.76
489.964
485.508
480.524
475.361
464.916
447.8
429.939
411.715
392.91
373.929
355.195
336.814
319.003
301.867
285.424
269.673
254.613
240.239
226.544
213.517
201.145
189.415
178.315
167.83
157.949
148.665
139.974
131.875
124.381
117.513
111.312
105.845
101.228
97.652
95.457
95.2954
98.5884
109.153
142.011
327.736
523.655
519.191
513.997
507.775
496.7
478.903
459.186
439.073
418.861
398.819
378.932
359.131
339.651
320.939
303.15
286.233
270.15
254.871
240.37
226.625
213.613
201.314
189.708
178.778
168.512
158.9
149.936
141.626
133.98
127.026
120.813
115.419
110.978
107.713
106.019
106.655
111.276
124.327
163.278
379.375
565.631
560.951
555.41
547.796
535.155
516.371
494.328
471.415
448.811
426.999
405.948
385.319
364.403
343.941
324.565
306.223
288.859
272.425
256.884
242.201
228.345
215.288
203.004
191.471
180.674
170.599
161.24
152.602
144.697
137.558
131.238
125.828
121.479
118.445
117.177
118.54
124.424
139.898
184.858
431.022
615.675
610.699
604.761
596.161
581.505
560.265
535.308
509.282
483.838
459.748
437.06
415.153
392.784
370.474
349.31
329.319
310.447
292.64
275.85
260.034
245.151
231.166
218.047
205.768
194.305
183.645
173.779
164.709
156.451
149.038
142.53
137.028
132.702
129.835
128.936
130.976
138.079
155.939
206.876
483.073
673.986
668.671
662.18
652.265
634.684
610.091
581.715
552.353
523.851
497.126
472.249
448.497
424.682
400.475
377.25
355.371
334.772
315.383
297.147
280.011
263.929
248.857
234.756
221.592
209.34
197.979
187.5
177.902
169.202
161.434
154.665
149.005
144.642
141.891
141.314
143.993
152.287
172.52
229.45
535.874
740.986
735.393
728.276
716.395
694.973
666.314
633.973
600.879
568.994
539.29
511.806
485.791
460.037
433.686
408.227
384.265
361.736
340.571
320.705
302.076
284.63
268.315
253.088
238.907
225.742
213.569
202.375
192.157
182.931
174.734
167.636
161.759
157.307
154.626
154.336
157.627
167.097
189.71
252.692
589.768
817.294
811.673
803.683
788.333
762.585
729.368
692.515
655.204
619.528
586.506
556.092
527.431
499.203
470.283
442.318
416.028
391.345
368.193
346.499
326.194
307.215
289.504
273.008
257.681
243.486
230.394
218.388
207.461
197.63
188.931
181.441
175.291
170.703
168.055
168.023
171.911
182.559
207.582
276.72
645.038
903.429
897.808
888.845
869.611
838.441
799.662
757.549
715.526
675.771
639.187
605.569
573.833
542.405
510.392
479.62
450.728
423.64
398.272
374.54
352.366
331.679
312.41
294.499
277.894
262.549
248.43
235.513
223.791
213.276
204.009
196.069
189.597
184.832
182.187
182.396
186.88
198.735
226.254
301.809
702.527
1000.26
994.87
984.672
960.221
922.533
877.267
829.262
782.156
738.047
697.658
660.519
625.226
589.867
554.183
520.242
488.44
458.673
430.84
404.846
380.599
358.018
337.024
317.548
299.527
282.909
267.652
253.727
241.122
229.849
219.946
211.498
204.655
199.677
197.007
197.445
202.531
215.629
245.745
328.001
762.356
1108.65
1103.68
1091.69
1060.74
1015.42
962.668
908.154
855.566
806.863
762.458
721.467
681.996
641.486
601.635
564.233
529.22
496.488
465.927
437.429
410.893
386.222
363.328
342.129
322.552
304.535
288.028
272.996
259.422
247.312
236.708
227.696
220.436
215.207
212.486
213.138
218.827
233.194
265.977
355.126
824.188
1229.76
1225.41
1210.73
1171.74
1117.49
1056.49
994.908
936.517
882.996
834.206
788.531
743.362
697.273
653.094
611.769
573.161
537.13
503.548
472.287
443.23
416.264
391.286
368.2
346.923
327.379
309.511
293.272
278.641
265.62
254.249
244.617
236.895
231.378
228.581
229.433
235.727
251.386
286.905
383.15
888.098
1365.15
1361.78
1342.75
1294.35
1230.15
1160.02
1090.76
1026.19
967.531
913.779
862.238
809.559
757.438
708.533
662.864
620.27
580.592
543.678
509.38
477.559
448.084
420.834
395.696
372.572
351.374
332.03
314.487
298.714
284.708
272.506
262.201
253.973
248.134
245.236
246.274
253.176
270.153
308.48
412.031
954.076
1516.53
1514.39
1488.49
1430.02
1354.78
1274.54
1196.88
1125.58
1061.07
1001.03
941.366
880.34
822.214
768.008
717.507
670.505
626.811
586.24
548.62
513.787
481.585
451.871
424.515
399.399
376.42
355.492
336.55
319.552
304.49
291.398
280.37
271.593
265.401
262.381
263.594
271.106
289.428
330.633
441.697
1022
1684.73
1683.53
1648.13
1578.56
1491.41
1400.36
1313.93
1235.59
1164.36
1095.84
1024.88
955.825
891.39
831.382
775.572
723.734
675.644
631.087
589.857
551.761
516.616
484.253
454.517
427.27
402.389
379.773
359.341
341.042
324.859
310.822
299.026
289.665
283.09
279.927
281.307
289.433
309.124
353.275
472.039
1091.67
1868.86
1869.73
1824.51
1741.2
1640.37
1537.83
1442.57
1356.82
1276.74
1195.28
1113.45
1036.54
964.989
898.524
836.865
779.733
726.86
677.985
632.863
591.263
552.968
517.779
485.512
456.005
429.113
404.714
382.714
363.047
345.686
330.656
318.051
308.074
301.094
297.772
299.311
308.055
329.136
376.288
502.913
1162.77
2069.58
2074.06
2017.34
1917.74
1801.71
1687.36
1583.37
1489.36
1397.04
1300.27
1207.79
1122.05
1042.59
969.031
900.993
838.126
780.098
726.595
677.319
631.994
590.363
552.191
517.261
485.383
456.385
430.126
406.491
385.4
366.815
350.753
337.31
326.692
319.287
315.794
317.486
326.852
349.34
399.535
534.139
1234.88
2285.63
2295.24
2225.47
2107.36
1974.97
1848.96
1736.45
1631.56
1520.22
1409.41
1306.56
1211.38
1123.42
1042.23
967.351
898.362
834.857
776.455
722.802
673.568
628.448
587.166
549.469
515.133
483.959
455.78
430.462
407.907
388.066
370.948
356.644
345.369
337.529
333.856
335.699
345.688
369.593
422.855
565.505
1307.54
2514.84
2531.2
2446.76
2308.65
2159.5
2022.16
1899.96
1778.4
1647.93
1523.64
1409.13
1303.66
1206.57
1117.26
1035.15
959.726
890.489
826.985
768.788
715.511
666.797
622.32
581.788
544.94
511.547
481.416
454.389
430.352
409.239
391.052
375.881
363.943
355.662
351.808
353.8
364.413
389.736
446.07
596.775
1380.18
2753.81
2778.51
2677.85
2518.63
2353.35
2206.22
2073.37
1927.17
1777.73
1640.05
1513.51
1397.33
1290.73
1192.98
1103.39
1021.33
946.208
877.482
814.654
757.27
704.913
657.208
613.82
574.447
538.83
506.744
478.01
452.493
430.114
410.864
394.831
382.236
373.52
369.488
371.63
382.865
409.598
468.983
627.687
1452.19
2997.73
3032.16
2914.08
2733.38
2552.84
2395.47
2244.89
2075.1
1909.07
1757.06
1617.97
1490.74
1374.4
1268.06
1170.9
1082.14
1001.1
927.144
859.691
798.216
742.242
691.34
645.128
603.266
565.457
531.451
501.041
474.074
450.456
430.169
413.295
400.061
390.924
386.724
389.021
400.874
429
491.389
657.965
1522.92
3241.36
3288.08
3152.25
2950.32
2756.32
2590.23
2416.26
2220.82
2038.2
1871.78
1720.09
1581.83
1455.82
1340.98
1236.33
1140.99
1054.15
975.084
903.123
837.671
778.187
724.19
675.248
630.983
591.063
555.208
523.188
494.83
470.025
448.745
431.069
417.229
407.695
403.344
405.802
418.265
447.756
513.08
687.329
1591.67
3474.91
3535.4
3381.75
3159.8
2954.6
2780.25
2576.44
2359.14
2161.08
1980.96
1817.2
1668.35
1533.04
1410.05
1298.26
1196.65
1104.29
1020.37
944.142
874.928
812.131
755.215
703.704
657.178
615.275
577.684
544.155
514.494
488.578
466.372
447.949
433.547
423.652
419.173
421.802
434.867
465.681
533.838
715.488
1657.84
3684.24
3756.87
3587.5
3349.03
3134.72
2949.97
2723.62
2488.35
2275.12
2081.91
1906.79
1748.05
1604.13
1473.61
1355.23
1247.85
1150.44
1062.07
981.937
909.286
843.463
783.882
730.026
681.44
637.728
598.557
563.652
532.806
505.882
482.835
463.739
448.834
438.623
434.046
436.857
450.509
482.593
553.442
742.113
1721.01
3859.71
3942.01
3761.56
3512.08
3292.49
3099.64
2854.37
2603.14
2376.28
2171.35
1986.14
1818.65
1667.13
1529.99
1405.83
1293.39
1191.55
1099.3
1015.74
940.077
871.604
809.689
753.777
703.382
658.083
617.524
581.412
549.525
521.717
497.936
478.254
462.919
452.447
447.808
450.817
465.043
498.337
571.723
766.939
1779.78
3997.99
4088.84
3901.45
3644.49
3420.69
3221.71
2962.91
2698.64
2460.62
2246.1
2052.61
1877.96
1720.22
1577.66
1448.77
1332.18
1226.7
1131.24
1044.86
966.711
896.042
832.189
774.566
722.664
676.039
634.319
597.196
564.438
535.89
511.498
491.334
475.65
464.979
460.321
463.545
478.332
512.775
588.55
789.876
1832.27
4096.36
4194.93
4003.75
3741.71
3514.49
3311.83
3044.56
2770.9
2524.88
2303.47
2104.02
1924.18
1761.9
1615.37
1482.98
1363.32
1255.11
1157.25
1068.74
988.703
916.357
851.016
792.074
739.003
691.347
648.72
610.806
577.365
548.24
523.374
502.84
486.9
476.099
471.467
474.924
490.25
525.758
603.701
810.527
1880.58
4150.7
4255.94
4064.18
3799.26
3569.15
3364.2
3095.05
2816.9
2566.78
2341.67
2138.9
1956.09
1791.16
1642.25
1507.74
1386.17
1276.26
1176.87
1086.98
1005.71
932.247
865.906
806.066
752.192
703.821
660.561
622.092
588.172
558.642
533.447
512.666
496.566
485.71
481.152
484.86
500.705
537.191
617.09
828.853
1924.19
4154.52
4263.41
4076.18
3813.14
3582.39
3377.87
3114.04
2836.23
2585.79
2360.13
2156.69
1973.17
1807.52
1657.9
1522.69
1400.44
1289.87
1189.85
1099.37
1017.53
943.542
876.705
816.405
762.107
713.348
669.738
630.959
596.769
567.014
541.642
520.737
504.579
493.744
489.31
493.288
509.628
547.008
628.655
844.779
1962.03
4104.65
4212.04
4035.45
3781.36
3554.36
3354.64
3104.36
2830.75
2582.82
2359.3
2157.65
1975.58
1811.09
1662.37
1527.85
1406.13
1295.95
1196.19
1105.89
1024.15
950.212
883.381
823.055
768.709
719.888
676.211
637.365
603.116
573.314
547.916
527.014
510.898
500.159
495.898
500.163
516.974
555.155
638.319
858.166
1994.02
4008.02
4110.24
3947.76
3706.47
3483.46
3285.15
3058.16
2800.78
2558.56
2340.01
2142.57
1964.03
1802.46
1656.17
1523.65
1403.58
1294.75
1196.11
1106.71
1025.71
952.364
886.015
826.078
772.045
723.476
680.003
641.326
607.219
577.545
552.267
531.49
515.513
504.943
500.901
505.468
522.721
561.606
646.048
868.96
2019.97
3874.58
3970.53
3824.36
3598.83
3383.46
3192.4
2984.7
2746.43
2514.44
2303.89
2112.96
1939.8
1782.72
1640.19
1510.83
1393.4
1286.79
1190.01
1102.17
1022.48
950.228
884.797
825.628
772.239
724.213
681.196
642.907
609.132
579.747
554.728
534.189
518.443
508.11
504.33
509.21
526.876
566.368
651.863
877.206
2039.5
3710.31
3798.65
3671.19
3465.08
3260
3078.28
2889.56
2674.37
2455.82
2254.4
2071.3
1904.81
1753.4
1615.69
1490.41
1376.44
1272.77
1178.48
1092.75
1014.86
944.136
880
821.934
769.483
722.255
679.921
642.217
608.946
579.998
555.362
535.166
519.733
509.698
506.216
511.418
529.462
569.464
655.776
882.903
2053.86
3521.64
3600.76
3493.1
3309.71
3119.05
2948.01
2778.6
2586.77
2384.91
2194.02
2019.88
1861.06
1716.21
1584.09
1463.59
1353.7
1253.52
1162.22
1079.05
1003.34
934.494
871.967
815.281
764.015
717.806
676.349
639.4
606.783
578.401
554.259
534.497
519.45
509.766
506.612
512.136
530.523
570.935
657.849
886.238
2062.33
3316.53
3385.76
3297.67
3138.45
2964.55
2803.57
2652.05
2485.34
2303.86
2125.73
1961.21
1810.68
1672.94
1546.92
1431.66
1326.27
1229.96
1141.98
1061.69
988.459
921.753
861.075
805.989
756.108
711.097
670.678
634.628
602.79
575.084
551.529
532.278
517.679
508.388
505.584
511.425
530.109
570.818
658.065
886.978
2066.27
3101.99
3160.96
3091.03
2956.4
2801.59
2652.34
2514.78
2373.25
2214.82
2051.9
1897.72
1755.82
1625.44
1505.74
1395.91
1295.22
1202.98
1118.54
1041.31
970.752
906.37
847.717
794.394
746.048
702.376
663.121
628.085
597.128
570.188
547.298
528.622
514.52
505.656
503.217
509.366
528.302
569.204
656.567
885.439
2063.63
2884.69
2933.05
2878.55
2767.3
2633.1
2497.71
2370.79
2249.4
2118.4
1975.19
1832.5
1698.87
1575.6
1462.05
1357.58
1261.57
1173.43
1092.58
1018.51
950.731
888.784
832.27
780.823
734.123
691.891
653.897
619.963
589.967
563.864
541.698
523.648
510.082
501.671
499.606
506.048
525.191
566.186
653.457
881.725
2054.8
2671.62
2709.35
2666.47
2575.48
2461.56
2342.16
2226.88
2117.59
2008.98
1891.49
1766.37
1641.75
1524.92
1417.04
1317.62
1226.11
1141.98
1064.7
993.807
928.839
869.387
815.08
765.583
720.602
679.884
643.222
610.455
581.48
556.266
534.873
517.487
504.485
496.543
494.852
501.569
520.866
561.845
648.781
875.81
2042.15
2469.89
2497.78
2462.65
2387.61
2291.49
2188.1
2085.85
1987.86
1892.58
1795.51
1692.29
1583.81
1474.28
1371.36
1276.56
1189.32
1109.07
1035.31
967.576
905.438
848.512
796.452
748.951
705.739
666.585
631.302
599.749
571.838
547.553
526.965
510.27
497.85
490.385
489.065
496.033
515.434
556.298
642.7
867.989
2024.76
2285.24
2304.95
2274.68
2211.4
2129.52
2040.06
1950.24
1863.38
1779.28
1695.34
1608.49
1516.8
1420.9
1324.61
1234.34
1151.3
1074.92
1004.68
940.112
880.821
826.444
776.658
731.182
689.77
652.211
618.339
588.028
561.21
537.88
518.118
502.129
490.302
483.317
482.357
489.552
509.006
549.661
635.34
858.403
2002.93
2120.78
2134.42
2107.39
2052.72
1981.72
1903.37
1823.87
1746.5
1671.77
1598.13
1523.06
1444.37
1361.12
1274.97
1190.61
1112.05
1039.68
973.031
911.681
855.264
803.453
755.956
712.52
672.92
636.972
604.525
575.474
549.763
527.399
508.473
493.198
481.965
475.455
474.842
482.236
501.695
542.05
626.828
847.216
1977.19
1976.7
1986.33
1961.8
1913.63
1850.9
1781.13
1709.71
1639.79
1572.35
1506.65
1440.87
1372.89
1301.03
1224.14
1145.76
1071.99
1003.76
940.752
882.628
829.08
779.826
734.61
693.205
655.414
621.074
590.053
562.262
537.659
516.261
498.172
483.608
472.964
466.918
466.636
474.199
493.615
533.589
617.311
834.636
1948
1851.02
1858.33
1836.1
1792.98
1736.63
1673.49
1608.37
1544.29
1482.6
1423.12
1364.6
1305.11
1242.27
1174.26
1101.71
1032.21
967.865
908.349
853.356
802.611
755.863
712.887
673.481
637.473
604.72
575.108
548.563
525.055
504.614
487.351
473.488
463.421
457.825
457.851
465.555
484.883
524.403
606.932
820.859
1915.96
1740.48
1746.86
1726.8
1687.82
1636.6
1578.76
1518.67
1459.3
1402.25
1347.84
1295.23
1242.56
1186.89
1125.08
1058.03
992.91
932.331
876.179
824.203
776.165
731.843
691.039
653.578
619.308
588.103
559.867
534.54
512.103
492.599
476.142
462.963
453.455
448.289
448.602
456.417
475.614
514.617
595.838
806.098
1881.63
1641.49
1647.9
1630.06
1594.77
1547.94
1494.59
1438.71
1383.2
1329.87
1279.39
1231.29
1183.93
1134.3
1078.75
1016.09
954.657
897.557
844.574
795.466
750.013
708.016
669.301
633.712
601.116
571.404
544.497
520.347
498.948
480.348
464.673
452.151
443.18
438.421
438.995
446.892
465.922
504.353
584.174
790.553
1845.59
1550.52
1557.54
1542.11
1510.4
1467.68
1418.44
1366.33
1314.16
1263.86
1216.42
1171.77
1128.59
1084.04
1033.92
975.281
917.477
863.718
813.762
767.385
724.392
684.608
647.88
614.073
583.073
554.787
529.149
506.125
485.718
467.986
453.057
441.165
432.703
428.324
429.133
437.084
455.914
493.727
572.075
774.422
1808.36
1464.23
1472.22
1459.43
1431.4
1392.82
1347.68
1299.28
1250.28
1202.65
1157.64
1115.61
1075.7
1035.44
990.034
935.691
881.549
831.042
783.985
740.2
699.529
661.829
626.969
594.838
565.34
538.397
513.959
491.999
472.533
455.623
441.401
430.103
422.119
418.094
419.112
427.09
445.691
482.85
559.67
757.877
1770.42
1379.85
1389.02
1379.01
1354.81
1320.54
1279.7
1235.24
1189.57
1144.64
1101.81
1061.81
1024.44
987.875
947.696
898.08
847.384
799.927
755.567
714.18
675.652
639.872
606.739
576.159
548.053
522.361
499.04
478.076
459.491
443.352
429.795
419.055
411.518
407.818
409.02
417.003
435.351
471.832
547.096
741.11
1731.82
1295.57
1305.85
1298.63
1278.33
1248.52
1212.23
1172.04
1130.1
1088.18
1047.67
1009.48
973.914
940.196
905.169
862.519
815.519
770.836
728.858
689.587
652.963
618.905
587.328
558.155
531.32
506.772
484.481
464.439
446.671
431.251
418.315
408.095
400.973
397.572
398.936
406.903
424.982
460.772
534.467
724.276
1693.16
1210.64
1221.76
1217.16
1200.69
1175.34
1143.72
1108.04
1070.19
1031.74
993.979
957.82
923.75
891.62
860.102
826.003
786.476
744.408
704.155
666.585
631.58
599.024
568.821
540.9
515.204
491.692
470.338
451.141
434.13
419.377
407.018
397.283
390.547
387.421
388.928
396.865
414.665
449.756
521.886
707.531
1655.17
1125.28
1136.87
1134.61
1121.7
1100.63
1073.6
1042.5
1008.93
974.292
939.715
906.059
873.841
843.136
813.425
783.514
751.807
717.178
680.725
644.982
611.455
580.247
551.246
524.414
499.721
477.134
456.63
438.208
421.895
407.763
395.945
386.666
380.294
377.425
379.06
386.958
404.474
438.871
509.455
691.022
1618.33
1040.39
1052.09
1051.76
1042.01
1024.97
1002.33
975.688
946.422
915.731
884.616
853.854
823.962
795.133
767.194
739.621
711.717
683.01
653.289
622.589
592.03
562.567
534.617
508.663
484.825
463.06
443.331
425.627
409.97
396.426
385.122
376.279
370.254
367.632
369.391
377.252
394.494
428.219
497.303
674.906
1582.93
957.174
968.695
969.932
962.949
949.507
930.913
908.483
883.379
856.618
829.072
801.441
774.232
747.728
721.971
696.785
671.856
646.873
621.597
595.881
569.803
543.683
518.111
493.383
470.34
449.352
430.367
413.358
398.337
385.365
374.565
366.149
360.467
358.091
359.98
367.817
384.819
417.944
485.703
659.876
1550.82
876.801
887.926
890.376
885.749
875.444
860.495
841.952
820.769
797.801
773.793
749.365
724.999
701.017
677.579
654.692
632.245
610.065
587.965
565.787
543.476
521.144
499.08
477.486
456.002
435.861
417.656
401.356
386.979
374.583
364.289
356.304
350.972
348.851
350.882
358.716
375.504
408.072
474.588
645.584
1521.32
800.216
810.809
814.154
811.457
803.795
792.109
777.09
759.526
740.125
719.52
698.249
676.753
655.356
634.268
613.587
593.317
573.397
553.731
534.235
514.874
495.707
476.875
458.514
440.557
422.45
405.197
389.617
375.899
364.097
354.323
346.783
341.812
339.96
342.149
350
366.598
398.616
463.796
630.902
1484.62
728.081
738.074
742.063
740.948
735.555
726.639
714.718
700.409
684.285
666.869
648.621
629.931
611.105
592.367
573.86
555.652
537.759
520.161
502.837
485.785
469.052
452.727
436.913
421.653
406.799
392.142
378.014
365.113
353.945
344.72
337.646
333.052
331.484
333.856
341.768
358.269
389.952
454.368
619.515
1453.98
660.773
670.142
674.566
674.709
671.188
664.579
655.368
643.942
630.768
616.275
600.85
584.83
568.497
552.069
535.707
519.516
503.559
487.867
472.46
457.365
442.621
428.286
414.425
401.08
388.256
375.969
364.282
353.302
343.485
335.211
328.805
324.678
323.432
326.007
333.997
350.409
381.72
445.121
606.602
1417.42
598.439
607.184
611.877
612.999
611.007
606.336
599.403
590.468
579.89
568.016
555.165
541.625
527.644
513.431
499.147
484.916
470.827
456.942
443.311
429.977
416.986
404.388
392.234
380.568
369.43
358.866
348.955
339.818
331.645
324.686
319.289
315.921
315.227
318.171
326.348
342.74
373.733
436.254
595.637