/*--------------------------------*- C++ -*----------------------------------*\
  =========                 |
  \\      /  F ield         | OpenFOAM: The Open Source CFD Toolbox
   \\    /   O peration     | Website:  https://openfoam.org
    \\  /    A nd           | Version:  8
     \\/     M anipulation  |
\*---------------------------------------------------------------------------*/
FoamFile
{
    version     2.0;
    format      ascii;
    class       volScalarField;
    location    "0.75";
    object      k;
}
// * * * * * * * * * * * * * * * * * * * * * * * * * * * * * * * * * * * * * //

dimensions      [0 2 -2 0 0 0 0];

internalField   nonuniform List<scalar> 
9150
(
0.00185391
0.000964331
0.000534317
0.000412673
0.000361357
0.000361357
0.000412673
0.000534317
0.000964331
0.00185391
0.00181121
0.000767859
0.000458097
0.000358478
0.000308474
0.000308474
0.000358478
0.000458097
0.00076786
0.00181121
0.00173928
0.000671821
0.000426332
0.000335017
0.000288286
0.000288286
0.000335017
0.000426332
0.000671821
0.00173928
0.00166004
0.000621515
0.00041421
0.000326258
0.000281298
0.000281298
0.000326258
0.00041421
0.000621516
0.00166004
0.00157573
0.000599975
0.000410059
0.000323508
0.000279546
0.000279546
0.000323507
0.000410059
0.000599975
0.00157573
0.00293574
0.00286277
0.00243162
0.002489
0.00247412
0.00247412
0.002489
0.00243162
0.00286277
0.00293574
0.00234459
0.00159986
0.00160928
0.00182634
0.00183144
0.00183144
0.00182634
0.00160928
0.00159986
0.00234459
0.00208111
0.00130585
0.00107404
0.00119566
0.0011842
0.0011842
0.00119567
0.00107404
0.00130585
0.00208111
0.00189636
0.00114973
0.000762814
0.000767328
0.00073269
0.00073269
0.000767328
0.000762813
0.00114973
0.00189636
0.00181444
0.00105229
0.000601014
0.000523199
0.000477824
0.000477824
0.000523199
0.000601014
0.00105229
0.00181444
0.0194349
0.0112098
0.00617736
0.00448851
0.00391543
0.00391597
0.00449037
0.00618096
0.0112152
0.019439
0.00511652
0.00419201
0.00320767
0.00285516
0.00277029
0.0027703
0.0028552
0.00320773
0.00419209
0.00511656
0.00453643
0.00374844
0.00314967
0.00283513
0.00277852
0.00277852
0.00283513
0.00314967
0.00374844
0.00453643
0.00403241
0.0034642
0.00312957
0.00283162
0.00280673
0.00280673
0.00283162
0.00312957
0.00346421
0.00403241
0.00345983
0.0034195
0.00300667
0.00277139
0.00278419
0.00278419
0.00277139
0.00300667
0.00341951
0.00345983
2.547
2.57367
2.592
2.60302
2.60777
2.60778
2.60307
2.59208
2.57378
2.54716
5.19372
5.24846
5.28883
5.31541
5.32863
5.32863
5.31544
5.28888
5.24853
5.19383
6.45849
6.51972
6.56519
6.59527
6.61026
6.61025
6.59524
6.56513
6.51966
6.45843
7.36877
7.43005
7.47563
7.50584
7.52089
7.52085
7.50572
7.47543
7.42978
7.36845
8.15959
8.21795
8.26145
8.29032
8.30469
8.30461
8.29008
8.26106
8.21743
8.15895
8.91274
8.9668
9.00726
9.03419
9.0476
9.04748
9.03382
9.00664
8.96595
8.9117
9.66202
9.71225
9.75002
9.77522
9.78775
9.78757
9.77468
9.74913
9.71103
9.66048
10.4223
10.4714
10.5081
10.5324
10.5445
10.5443
10.5317
10.5069
10.4697
10.4202
11.2067
11.2564
11.2932
11.3176
11.3296
11.3293
11.3166
11.2917
11.2542
11.204
12.0258
12.0768
12.1144
12.1392
12.1514
12.151
12.138
12.1125
12.0741
12.0224
12.8883
12.9405
12.9791
13.0044
13.0168
13.0163
13.003
12.9767
12.9371
12.884
13.8013
13.8544
13.8937
13.9193
13.9318
13.9312
13.9175
13.8906
13.8502
13.796
14.7711
14.8243
14.8636
14.8893
14.9017
14.901
14.887
14.8598
14.819
14.7645
15.8023
15.8549
15.8937
15.9191
15.9312
15.9303
15.9163
15.889
15.8483
15.794
16.8996
16.9507
16.9884
17.0128
17.0244
17.0232
17.0093
16.9826
16.9427
16.8894
18.0673
18.1158
18.1514
18.1742
18.1848
18.1834
18.17
18.1444
18.1061
18.0549
19.3102
19.3544
19.3863
19.4064
19.4155
19.4138
19.4013
19.3778
19.3427
19.2953
20.6338
20.6702
20.6956
20.7112
20.7178
20.7157
20.7051
20.6855
20.6561
20.6158
22.0419
22.0647
22.0797
22.0881
22.0908
22.0884
22.0808
22.0676
22.0479
22.0203
23.5318
23.5347
23.5347
23.5329
23.5304
23.5275
23.5244
23.5205
23.5149
23.5066
25.0944
25.0721
25.0527
25.0378
25.0284
25.025
25.0277
25.0361
25.0489
25.0648
26.7226
26.6675
26.6232
26.5914
26.5732
26.5693
26.5796
26.6037
26.6403
26.688
28.4023
28.3061
28.2308
28.1781
28.1491
28.1445
28.1642
28.2078
28.2741
28.3616
30.1145
29.9681
29.8552
29.7773
29.7354
29.7299
29.761
29.828
29.93
30.0656
31.833
31.6275
31.4706
31.3633
31.3064
31.3001
31.3445
31.4389
31.5827
31.7745
33.5249
33.2521
33.0454
32.9053
32.8318
32.8249
32.8845
33.0102
33.2014
33.4574
35.1497
34.8031
34.5427
34.3676
34.2768
34.2699
34.3465
34.5068
34.751
35.0794
36.6549
36.2348
35.9213
35.7118
35.6043
35.5979
35.6925
35.8885
36.1876
36.5919
37.9878
37.5024
37.1412
36.9006
36.7782
36.7728
36.8844
37.1139
37.4637
37.9372
39.1138
38.5732
38.1709
37.9034
37.7681
37.7638
37.8905
38.1493
38.5427
39.0745
40.0148
39.4259
38.9879
38.6971
38.5508
38.5474
38.6872
38.9713
39.4024
39.9844
40.6755
40.0439
39.575
39.2643
39.1086
39.1062
39.257
39.5627
40.0264
40.6528
41.0781
40.4111
39.9177
39.5918
39.4291
39.4275
39.587
39.9096
40.3994
41.0622
41.2004
40.513
40.0059
39.6718
39.5056
39.505
39.6699
40.0025
40.5074
41.192
41.0327
40.3461
39.8398
39.5064
39.3412
39.3419
39.5082
39.8423
40.3489
41.0347
40.5974
39.9288
39.4351
39.1102
38.9499
38.952
39.1165
39.4454
39.9426
40.6141
39.9331
39.2915
38.8179
38.5066
38.3538
38.3576
38.5179
38.8367
39.3177
39.9666
39.0716
38.4646
38.0169
37.7232
37.5799
37.5853
37.7394
38.044
38.5028
39.1212
38.0448
37.4794
37.0627
36.7898
36.6576
36.6644
36.8103
37.0971
37.5282
38.1084
36.889
36.3703
35.9883
35.7387
35.6185
35.6264
35.7626
36.0286
36.4276
36.9641
35.6408
35.1726
34.8279
34.6031
34.4956
34.5043
34.6293
34.872
35.2353
35.7234
34.337
33.9219
33.6162
33.417
33.3223
33.3312
33.4439
33.6616
33.9865
34.4222
33.0166
32.6549
32.3879
32.2138
32.1314
32.14
32.2399
32.432
32.7178
33.0995
31.7202
31.4078
31.1761
31.0248
30.9531
30.9611
31.0488
31.2167
31.4655
31.7964
30.4838
30.2115
30.0087
29.8758
29.8127
29.8196
29.8966
30.0438
30.2614
30.5494
29.3306
29.0866
28.9043
28.7844
28.7272
28.7328
28.8014
28.9329
29.1271
29.3835
28.2685
28.0409
27.8706
27.7582
27.704
27.7083
27.771
27.8921
28.0713
28.308
27.2916
27.0703
26.9047
26.7951
26.7418
26.7447
26.8039
26.9194
27.091
27.3184
26.3845
26.1623
25.9961
25.8859
25.8317
25.8334
25.891
26.0045
26.1739
26.3994
25.5278
25.2998
25.1295
25.0165
24.9604
24.961
25.0183
25.1323
25.3033
25.5318
24.6987
24.4628
24.2871
24.1705
24.1123
24.112
24.1697
24.2855
24.46
24.6941
23.8741
23.6315
23.4512
23.3316
23.2717
23.2709
23.3292
23.4469
23.6248
23.8642
23.0344
22.789
22.6068
22.4861
22.4256
22.4246
22.4831
22.6015
22.7809
23.0229
22.1674
21.9243
21.744
21.6246
21.5648
21.5639
21.6218
21.7391
21.9169
22.1569
21.2682
21.0329
20.8584
20.7429
20.6851
20.6844
20.7408
20.8549
21.0276
21.2607
20.3394
20.1166
19.9512
19.8417
19.7871
19.7868
19.8408
19.9496
20.1142
20.3359
19.3892
19.182
19.028
18.9261
18.8753
18.8754
18.9263
19.0284
19.1825
19.3898
18.4287
18.2386
18.0971
18.0033
17.9569
17.9573
18.0046
18.0992
18.2417
18.4328
17.4697
17.2965
17.1675
17.0821
17.0399
17.0406
17.0843
17.1711
17.3017
17.4764
16.5225
16.3655
16.2484
16.1709
16.1327
16.1336
16.1736
16.253
16.372
16.5311
15.5961
15.4536
15.3474
15.2771
15.2426
15.2436
15.2802
15.3525
15.4609
15.6056
14.6968
14.5674
14.4709
14.407
14.3757
14.3767
14.4102
14.4762
14.5749
14.7067
13.8295
13.7115
13.6235
13.5653
13.5368
13.5378
13.5685
13.6288
13.719
13.8392
12.9971
12.8891
12.8086
12.7553
12.7292
12.7302
12.7583
12.8136
12.8962
13.0064
12.2014
12.1022
12.0282
11.9793
11.9553
11.9563
11.9821
12.0329
12.1089
12.2101
11.4434
11.3518
11.2836
11.2385
11.2164
11.2172
11.2411
11.288
11.358
11.4514
10.7231
10.6383
10.5751
10.5334
10.5129
10.5137
10.5358
10.5792
10.644
10.7304
10.0403
9.96152
9.90282
9.86402
9.84501
9.84574
9.8662
9.90646
9.96664
10.0469
9.39416
9.32077
9.26606
9.22989
9.21216
9.21282
9.23186
9.26935
9.32539
9.40012
8.78379
8.71518
8.66403
8.63022
8.61363
8.61422
8.63198
8.66698
8.71932
8.78914
8.20793
8.14361
8.09568
8.06398
8.04842
8.04895
8.06556
8.09831
8.14731
8.21271
7.66517
7.60479
7.55979
7.53003
7.51541
7.51587
7.53143
7.56213
7.60807
7.66941
7.15412
7.09738
7.05511
7.02716
7.01341
7.01383
7.02841
7.0572
7.10031
7.15788
6.67318
6.6201
6.58045
6.55419
6.54126
6.54164
6.55532
6.58233
6.6227
6.67647
6.22238
6.17232
6.13488
6.11004
6.0978
6.09816
6.1111
6.13665
6.17481
6.22557
5.8009
5.75295
5.7171
5.69334
5.68163
5.68197
5.69436
5.71881
5.75534
5.80399
5.40628
5.3599
5.32526
5.30229
5.29098
5.2913
5.30327
5.32688
5.36219
5.40924
5.0361
4.99098
4.95728
4.93494
4.92393
4.92424
4.93587
4.95883
4.99316
5.03892
4.68824
4.64413
4.61117
4.58932
4.57854
4.57883
4.5902
4.61264
4.64619
4.69092
4.36075
4.3174
4.28501
4.26352
4.25291
4.25319
4.26434
4.28639
4.31935
4.36327
4.05181
4.009
3.97698
3.95574
3.94524
3.9455
3.95651
3.97827
4.01081
4.05416
3.7597
3.71719
3.68538
3.66426
3.65381
3.65405
3.66497
3.68656
3.71885
3.76185
3.48277
3.44033
3.40856
3.38745
3.377
3.37722
3.3881
3.40964
3.44184
3.4847
3.21945
3.17688
3.14498
3.12377
3.11326
3.11346
3.12437
3.14598
3.17826
3.22121
2.9683
2.92537
2.89317
2.87175
2.86113
2.86133
2.87234
2.89414
2.9267
2.96997
2.72795
2.68444
2.65178
2.63004
2.61925
2.61945
2.63064
2.65278
2.68582
2.72968
2.49718
2.45285
2.41954
2.39734
2.38632
2.38653
2.39798
2.4206
2.45434
2.49908
2.27488
2.22945
2.19526
2.17245
2.16112
2.16135
2.17313
2.1964
2.23106
2.27697
2.06003
2.01317
1.97784
1.95424
1.9425
1.94274
1.95495
1.97904
2.01487
2.06224
1.85169
1.80304
1.76627
1.74166
1.72941
1.72964
1.74236
1.76745
1.80473
1.85392
1.64897
1.59811
1.55959
1.53376
1.52087
1.52109
1.53442
1.5607
1.5997
1.65106
1.45098
1.39756
1.35699
1.32974
1.31611
1.31631
1.33032
1.35797
1.39894
1.4528
1.25689
1.20068
1.15791
1.12911
1.11467
1.11483
1.12959
1.15871
1.20181
1.25836
1.06602
1.00712
0.962199
0.931889
0.916656
0.916782
0.932265
0.962822
1.00798
1.06712
0.878067
0.81714
0.77057
0.739054
0.723167
0.723263
0.739339
0.771035
0.81777
0.878842
0.69353
0.632204
0.585116
0.553073
0.536845
0.536917
0.553286
0.585458
0.632659
0.694071
0.514749
0.455925
0.410191
0.378718
0.362665
0.362719
0.378875
0.410443
0.456258
0.51514
0.347806
0.295356
0.253333
0.224049
0.209073
0.209111
0.224158
0.25351
0.29559
0.348088
0.204284
0.161227
0.125497
0.101469
0.0895945
0.0896151
0.10153
0.125596
0.161359
0.204448
0.0994398
0.06458
0.0397524
0.0269825
0.0216265
0.0216328
0.0270016
0.0397834
0.0646173
0.0994751
2.50822
2.45631
2.39147
2.31362
2.22376
2.12415
2.01907
1.92275
1.83314
1.74767
1.66607
1.5886
1.51543
1.44646
1.38143
1.3199
1.26143
1.20557
1.15188
1.10003
1.04969
1.00062
0.952582
0.905397
0.858891
0.81291
0.767308
0.721938
0.67665
0.631277
0.585626
0.53946
0.492458
0.443981
0.392741
0.339457
0.281417
0.216951
0.149154
0.0593112
5.1198
5.02276
4.90669
4.77286
4.62391
4.46374
4.29671
4.12647
3.95745
3.79236
3.63279
3.47955
3.33289
3.19265
3.05846
2.92978
2.80604
2.6867
2.57121
2.45909
2.34991
2.24327
2.13884
2.03628
1.9353
1.83561
1.73694
1.63902
1.54153
1.44417
1.34657
1.24828
1.14875
1.04728
0.9429
0.834486
0.719781
0.594274
0.44132
0.187826
6.3762
6.26863
6.14044
5.99279
5.8282
5.65051
5.46429
5.2738
5.08207
4.89155
4.70382
4.52
4.34081
4.16668
3.99778
3.83406
3.67535
3.52138
3.37182
3.22632
3.08453
2.94609
2.81065
2.67787
2.54743
2.41899
2.29222
2.16679
2.04235
1.91851
1.79483
1.67081
1.54582
1.41907
1.28943
1.15513
1.01285
0.854779
0.654717
0.293875
7.28619
7.17832
7.04909
6.89859
6.72803
6.54032
6.34069
6.13443
5.92498
5.71525
5.50703
5.30149
5.09947
4.90162
4.70839
4.52001
4.33653
4.15787
3.98387
3.8143
3.64889
3.48735
3.32937
3.17462
3.0228
2.87356
2.72656
2.58145
2.43784
2.29532
2.15342
2.01157
1.86906
1.72492
1.57769
1.42494
1.26194
1.07767
0.837707
0.382968
8.08062
7.97766
7.85322
7.70547
7.53255
7.33483
7.12008
6.8953
6.66612
6.43606
6.20722
5.98097
5.7581
5.53921
5.32481
5.11525
4.91072
4.71121
4.51666
4.32688
4.14167
3.96078
3.78392
3.6108
3.44111
3.27451
3.11065
2.94917
2.78965
2.63164
2.47461
2.3179
2.16067
2.00169
1.83911
1.66974
1.48746
1.27831
0.999965
0.461541
8.8394
8.74465
8.63029
8.49383
8.32749
8.11801
7.8768
7.62624
7.37224
7.11881
6.86699
6.618
6.37295
6.1326
5.89731
5.66733
5.44284
5.22384
5.01024
4.80189
4.59858
4.40006
4.20606
4.01629
3.83042
3.64812
3.46902
3.29273
3.11878
2.94669
2.77583
2.60542
2.43445
2.26142
2.08403
1.89839
1.69711
1.46361
1.14843
0.531576
9.5936
9.50757
9.40825
9.29908
9.12594
8.87662
8.61595
8.34841
8.07233
7.79296
7.51539
7.24058
6.97079
6.70718
6.44997
6.19911
5.95456
5.71623
5.48396
5.25753
5.03672
4.82126
4.61085
4.40517
4.20388
4.00663
3.81301
3.62258
3.43484
3.24922
3.06499
2.88126
2.6968
2.50984
2.31768
2.11575
1.8955
1.63797
1.28724
0.596421
10.3541
10.2682
10.1669
10.0468
9.86711
9.60945
9.32657
9.03604
8.74193
8.44785
8.15367
7.85824
7.56387
7.27554
6.99535
6.72287
6.45776
6.19976
5.94861
5.70404
5.46575
5.23343
5.00674
4.78533
4.56884
4.35684
4.1489
3.94453
3.74316
3.54412
3.34659
3.14953
2.95152
2.75053
2.54344
2.32508
2.08584
1.80456
1.41919
0.657522
11.1368
11.0492
10.9451
10.8111
10.6163
10.3495
10.0423
9.72132
9.40042
9.08564
8.77688
8.47008
8.15635
7.84378
7.54037
7.24577
6.95956
6.68138
6.41089
6.14777
5.89167
5.64222
5.39904
5.16175
4.9299
4.70305
4.48069
4.26227
4.04715
3.83457
3.6236
3.41304
3.20129
2.98604
2.76383
2.52888
2.27059
1.96571
1.54636
0.715917
11.9532
11.8634
11.7561
11.6134
11.3999
11.1103
10.7749
10.4227
10.0723
9.73321
9.40628
9.08452
8.75302
8.41714
8.09015
7.7728
7.46478
7.16572
6.87525
6.59297
6.31851
6.05145
5.79136
5.53778
5.29023
5.04821
4.81114
4.5784
4.34926
4.12288
3.8982
3.67388
3.44812
3.21838
2.98081
2.7291
2.45166
2.12324
1.67032
0.772455
12.8129
12.7204
12.6086
12.4544
12.214
11.8939
11.5271
11.1435
10.7636
10.3981
10.0484
9.70665
9.35896
9.00097
8.64893
8.30773
7.97695
7.65614
7.34485
7.04266
6.74915
6.46384
6.18625
5.91585
5.65211
5.39446
5.14226
4.89481
4.6513
4.41078
4.17206
3.93367
3.69362
3.44911
3.19595
2.92728
2.63057
2.27861
1.79232
0.827773
13.7236
13.629
13.512
13.3402
13.0652
12.7091
12.3075
11.8906
11.4797
11.0859
10.7104
10.3454
9.97727
9.59584
9.21838
8.85259
8.4982
8.15477
7.82185
7.49897
7.18565
6.88136
6.58558
6.29773
6.01721
5.74338
5.47556
5.21295
4.95465
4.6996
4.44649
4.1937
3.93906
3.67951
3.41051
3.12467
2.80853
2.43293
1.91332
0.882399
14.6919
14.5975
14.473
14.2697
13.9571
13.5624
13.1225
12.6695
12.2253
11.8014
11.3983
11.0073
10.6142
10.2059
9.80153
9.40986
9.03066
8.6635
8.30789
7.96334
7.6293
7.30522
6.9905
6.68453
6.38663
6.09609
5.81213
5.53388
5.26034
4.99035
4.72249
4.45496
4.1854
3.91052
3.62544
3.32223
2.98648
2.5871
2.03408
0.936726
15.7218
15.6273
15.4943
15.2572
14.8987
14.4579
13.9748
13.4829
13.0044
12.5497
12.1177
11.6976
11.2729
10.8337
10.4006
9.98145
9.576
9.18379
8.80429
8.43696
8.08121
7.73641
7.40192
7.07706
6.76107
6.45318
6.15252
5.85812
5.5689
5.28357
5.00058
4.718
4.43326
4.14284
3.84147
3.52068
3.16516
2.74184
2.15524
0.99161
16.8185
16.7256
16.5816
16.3003
15.8883
15.3954
14.8657
14.3334
13.8199
13.3336
12.871
12.4183
11.9561
11.4814
11.0172
10.5687
10.1354
9.71667
9.31195
8.92062
8.54204
8.17553
7.82036
7.47579
7.14098
6.81508
6.49712
6.18605
5.88068
5.57959
5.28112
4.98317
4.68298
4.37675
4.05888
3.72035
3.34489
2.89747
2.27709
1.04717
17.9865
17.8958
17.7361
17.4015
16.9291
16.3782
15.7986
15.2245
14.6756
14.1573
13.6622
13.1724
12.6618
12.1484
11.6519
11.1724
10.7095
10.2627
9.83129
9.41465
9.01206
8.62277
8.24597
7.88083
7.52644
7.18184
6.84599
6.51772
6.19573
5.87849
5.56419
5.25055
4.93464
4.61239
4.27784
3.92141
3.52587
3.05421
2.3999
1.1031
19.2309
19.1432
18.9604
18.5624
18.0221
17.4096
16.778
16.1614
15.5767
15.0243
14.4903
13.9501
13.3896
12.838
12.3061
11.7932
11.2987
10.822
10.3623
9.91896
9.49111
9.07791
8.67849
8.29191
7.91716
7.5532
7.19886
6.85287
6.51381
6.18003
5.84956
5.51997
5.18811
4.84965
4.49825
4.1238
3.70809
3.21212
2.52376
1.15946
20.5599
20.4769
20.258
19.789
19.176
18.4981
17.812
17.1519
16.5304
15.9403
15.3581
14.7527
14.1407
13.5491
12.9793
12.4307
11.9025
11.3941
10.9045
10.4329
9.97852
9.54029
9.11725
8.70835
8.3125
7.92851
7.55511
7.19092
6.83437
6.4837
6.13677
5.79099
5.44298
5.08816
4.71982
4.32728
3.89135
3.37104
2.64857
1.21625
21.9808
21.903
21.6298
21.0885
20.3983
19.6507
18.9072
18.201
17.538
16.9
16.2515
15.5768
14.9164
14.2813
13.6708
13.084
12.5199
11.9778
11.4566
10.9554
10.4731
10.0087
9.56111
9.12908
8.71139
8.30676
7.91379
7.53096
7.15657
6.7887
6.42508
6.06292
5.69863
5.32736
4.94202
4.53136
4.07524
3.53064
2.77409
1.27337
23.493
23.4162
23.0715
22.4539
21.6844
20.8655
20.0646
19.3119
18.6018
17.8992
17.1597
16.4225
15.7135
15.0324
14.3785
13.751
13.1489
12.5712
12.0168
11.4845
10.9732
10.4816
10.0085
9.55255
9.1124
8.6866
8.27361
7.87177
7.47926
7.09397
6.71349
6.33482
5.95418
5.56643
5.16411
4.73539
4.25917
3.6904
2.89991
1.33066
25.0825
25.0131
24.5984
23.8898
23.0322
22.1407
21.2847
20.4843
19.7116
18.91
18.0885
17.2937
16.5311
15.8002
15.0999
14.4292
13.7869
13.1717
12.5825
12.0178
11.4763
10.9566
10.4573
9.97681
9.51367
9.06628
8.63294
8.21185
7.80101
7.39817
7.00074
6.60555
6.20857
5.80439
5.38518
4.93854
4.44239
3.84967
3.0255
1.38789
26.7479
26.6945
26.2015
25.3891
24.4376
23.4749
22.5669
21.714
20.8546
19.9404
19.0432
18.1851
17.3646
16.5803
15.8307
15.1144
14.4299
13.7757
13.1504
12.5522
11.9796
11.4311
10.9049
10.3994
9.91297
9.44372
8.98985
8.54937
8.12013
7.69973
7.28538
6.87373
6.46052
6.04006
5.60413
5.1398
4.62399
4.00765
3.15023
1.44478
28.4744
28.4446
27.867
26.9415
25.8928
24.8633
23.9065
22.9832
21.9892
20.9784
20.0111
19.0875
18.2064
17.3661
16.565
15.8012
15.0731
14.3787
13.7162
13.0838
12.4795
11.9017
11.3484
10.8177
10.3077
9.81652
9.34209
8.88226
8.43471
7.99686
7.56575
7.13782
6.7086
6.2721
5.81975
5.33804
4.80295
4.16344
3.27336
1.50098
30.2428
30.2439
29.5759
28.5334
27.3896
26.2979
25.2852
24.252
23.1298
22.0312
20.9866
19.9932
19.0484
18.15
17.2958
16.4833
15.7106
14.9752
14.2751
13.608
12.9719
12.3647
11.7841
11.2283
10.6949
10.182
9.68719
9.20824
8.74263
8.28761
7.84003
7.39614
6.95124
6.49908
6.0307
5.53204
4.97817
4.31607
3.39411
1.55615
32.0274
32.0665
31.3027
30.142
28.9113
27.7695
26.6954
25.5014
24.258
23.0758
21.9538
20.8895
19.88
18.9227
18.0146
17.1531
16.3355
15.5591
14.8214
14.1199
13.4522
12.8158
12.2085
11.6278
11.0715
10.5372
10.0225
9.52485
9.04163
8.56989
8.10629
7.6469
7.1868
6.71946
6.23556
5.72051
5.14846
4.46451
3.51166
1.60989
33.7962
33.8787
33.0164
31.7402
30.4308
29.2362
28.0546
26.714
25.371
24.1009
22.8998
21.7639
20.6898
19.6736
18.7122
17.8022
16.9403
16.1236
15.3491
14.614
13.9154
13.2507
12.6173
12.0126
11.4341
10.8791
10.3452
9.82955
9.32936
8.84153
8.36254
7.88826
7.41356
6.93166
6.43288
5.90212
5.31263
4.60771
3.62514
1.66183
35.5176
35.656
34.6976
33.3119
31.9372
30.6999
29.3778
27.8828
26.443
25.0865
23.8078
22.6021
21.4648
20.3916
19.3785
18.4216
17.5171
16.6617
15.8519
15.0845
14.3565
13.6648
13.0065
12.379
11.7793
11.2047
10.6525
10.1197
9.60346
9.10036
8.60677
8.11837
7.62983
7.1341
6.6212
6.07552
5.46948
4.7446
3.7337
1.71154
37.1363
37.3367
36.2848
34.7996
33.3732
32.0951
30.5964
28.9759
27.4487
26.0119
24.6603
23.3887
22.1918
21.0649
20.0031
19.0021
18.0578
17.1661
16.3233
15.5258
14.7702
14.0533
13.372
12.7231
12.1037
11.5108
10.9416
10.3929
9.86161
9.34426
8.83703
8.33543
7.83393
7.32526
6.79911
6.23943
5.61783
4.87419
3.83661
1.75872
38.5762
38.8284
37.6963
36.1316
34.6644
33.3316
31.7058
29.9863
28.3737
26.8611
25.4418
24.1094
22.858
21.682
20.5759
19.5349
18.5544
17.6298
16.757
15.9323
15.1518
14.412
13.7097
13.0414
12.4041
11.7947
11.2099
10.6467
10.1016
9.57123
9.05148
8.53773
8.02429
7.50366
6.96525
6.39258
5.75654
4.99551
3.93323
1.80318
39.7902
40.082
38.8952
37.2806
35.7928
34.4184
32.689
30.8829
29.1942
27.6144
26.1354
24.7499
23.4509
22.232
21.0874
20.0116
18.9995
18.0462
17.1474
16.2989
15.4966
14.7368
14.016
13.3308
12.6777
12.0535
11.455
10.8788
10.3215
9.77946
9.24846
8.72376
8.1995
7.66799
7.11838
6.53378
5.88442
5.10726
4.02211
1.84407
40.7662
41.0939
39.8738
38.2263
36.7214
35.3161
33.5147
31.6384
29.8879
28.2534
26.7258
25.2969
23.959
22.7053
21.5291
20.4248
19.3867
18.4099
17.4895
16.6212
15.8007
15.0242
14.288
13.5883
12.9219
12.2852
11.6749
11.0875
10.5196
9.96739
9.42654
8.8922
8.35836
7.81716
7.25749
6.66211
6.00056
5.20845
4.10168
1.88019
41.4941
41.8561
40.6177
38.9471
37.4269
36.0036
34.1584
32.2315
30.4367
28.7629
27.2003
25.7398
24.3735
23.0939
21.8943
20.7686
19.711
18.7162
17.7793
16.8957
16.0611
15.2715
14.523
13.8119
13.1346
12.4877
11.8678
11.2713
10.6946
10.1338
9.58457
9.042
8.49991
7.9503
7.38186
6.777
6.10473
5.29945
4.17379
1.91311
41.9548
42.3491
41.1069
39.4212
37.8856
36.4507
34.5974
32.6464
30.8285
29.1332
27.5506
26.0716
24.6882
23.3928
22.1785
21.0391
19.9688
18.9621
18.0141
17.12
16.2756
15.4766
14.7193
13.9998
13.3145
12.6599
12.0326
11.4289
10.8453
10.2776
9.7217
9.17238
8.62345
8.06679
7.49092
6.87799
6.19652
5.37994
4.23798
1.94258
42.1148
42.5295
41.3078
39.6281
38.0866
36.6537
34.8317
32.8819
31.0614
29.3618
27.7742
26.2898
24.9008
23.5997
22.3797
21.2346
20.1586
19.1462
18.1925
17.2929
16.443
15.6386
14.8759
14.1512
13.4607
12.801
12.1686
11.5598
10.9711
10.3984
9.83736
9.28281
8.72849
8.16617
7.58425
6.96464
6.27547
5.44929
4.29332
1.96796
41.9553
42.3674
41.1963
39.5571
38.031
36.6236
34.8788
32.9504
31.1415
29.4522
27.8731
26.3958
25.0123
23.7154
22.4985
21.3554
20.2805
19.2686
18.3147
17.4144
16.5633
15.7574
14.9928
14.2659
13.573
12.9107
12.2755
11.6638
11.0719
10.4959
9.93131
9.37306
8.81479
8.24821
7.66161
7.03672
6.34136
5.50734
4.33974
1.98927
41.5096
41.903
40.8002
39.2195
37.7064
36.3019
34.6903
32.8538
31.0731
29.4093
27.8525
26.3943
25.0269
23.7435
22.5378
21.4041
20.3368
19.3311
18.3822
17.4857
16.6375
15.8337
15.0705
14.3444
13.6518
12.9893
12.3535
11.7408
11.1477
10.5701
10.0036
9.44314
8.88234
8.31289
7.72297
7.0942
6.39412
5.55398
4.37714
2.00644
40.8271
41.1988
40.1773
38.6705
37.1892
35.8199
34.317
32.589
30.8632
29.2426
27.7215
26.2934
24.9516
23.69
22.503
21.385
20.3312
19.3368
18.3975
17.509
16.6675
15.8691
15.1104
14.3879
13.6981
13.0377
12.4033
11.7916
11.1989
10.6214
10.0545
9.49332
8.93139
8.36039
7.76848
7.13719
6.43383
5.5892
4.40531
2.01927
39.9356
40.2803
39.3554
37.9436
36.508
35.1849
33.7896
32.1953
30.5442
28.9731
27.4956
26.1054
24.7965
23.5635
22.401
21.3044
20.2689
19.2903
18.3644
17.4876
16.6559
15.8661
15.1145
14.398
13.7132
13.057
12.4261
11.8171
11.2265
10.6505
10.0847
9.52411
8.96234
8.39109
7.79849
7.166
6.46083
5.61348
4.42515
2.02862
38.8648
39.1744
38.3558
37.0601
35.6941
34.4244
33.14
31.683
30.1286
28.6158
27.189
25.8431
24.5729
23.3735
22.2404
21.1692
20.1559
19.1965
18.2875
17.4252
16.6062
15.8272
15.0851
14.3768
13.699
13.0488
12.423
11.8183
11.2313
10.6583
10.0949
9.53617
8.97581
8.40552
7.81344
7.18104
6.47547
5.62702
4.43627
2.03409
37.6547
37.9248
37.2154
36.0481
34.7668
33.5458
32.3647
31.0599
29.6281
28.1894
26.8179
25.5206
24.2929
23.1307
22.0301
20.9874
19.999
19.0614
18.1715
17.326
16.5218
15.7558
15.025
14.3266
13.6575
13.0149
12.3956
11.7967
11.2146
10.6458
10.086
9.53033
8.97251
8.40431
7.81392
7.18282
6.47823
5.63048
4.44019
2.03659
36.3414
36.5682
35.9648
34.9337
33.7543
32.5925
31.4904
30.3424
29.0548
27.7089
26.3984
25.1526
23.9695
22.8462
21.7796
20.7668
19.8049
18.8907
18.0215
17.1944
16.4065
15.6549
14.937
14.2499
13.5909
12.9571
12.3457
11.7537
11.1777
10.6142
10.0591
9.50754
8.95329
8.3882
7.80054
7.17185
6.46939
5.62363
4.43533
2.03472
34.962
35.1405
34.6314
33.7353
32.6715
31.5842
30.5394
29.5177
28.4099
27.1917
25.9524
24.7562
23.6163
22.5309
21.4979
20.5151
19.5799
18.6898
17.8422
17.0344
16.2638
15.5278
14.8238
14.1492
13.5013
12.8775
12.275
11.6909
11.122
10.5649
10.0154
9.46882
8.91907
8.35804
7.77406
7.14876
6.4495
5.60689
4.42212
2.02879
33.5592
33.6857
33.2512
32.4767
31.5319
30.536
29.5564
28.6066
27.6478
26.6058
25.4854
24.3458
23.2445
22.1937
21.1923
20.2382
19.3293
18.4632
17.6374
16.8495
16.0969
15.3772
14.688
14.0268
13.3909
12.778
12.1853
11.61
11.049
10.499
9.956
9.41528
8.87088
8.31475
7.73533
7.11438
6.41945
5.58149
4.40269
2.02032
32.1812
32.2568
31.875
31.1997
30.3633
29.4636
28.5613
27.6795
26.8062
25.9057
24.9412
23.916
22.8611
21.8396
20.8665
19.9396
19.0562
18.214
17.4102
16.6425
15.9085
15.2058
14.5321
13.8848
13.2618
12.6604
12.0782
11.5125
10.9602
10.418
9.88222
9.3481
8.80976
8.25929
7.68523
7.06949
6.37986
5.54774
4.37656
2.0087
30.8717
30.9038
30.5574
29.958
29.2111
28.398
27.5726
26.7603
25.9592
25.148
24.3004
23.398
22.4429
21.4651
20.5197
19.6198
18.7622
17.9441
17.1628
16.4159
15.701
15.0158
14.3581
13.7255
13.1158
12.5267
11.9556
11.4
10.857
10.3234
9.79536
9.26845
8.73683
8.19268
7.62468
7.01491
6.33143
5.5062
4.3441
1.99409
29.6596
29.6598
29.3392
28.7978
28.1215
27.3794
26.6194
25.8675
25.1277
24.387
23.6234
22.8165
21.9559
21.0532
20.1483
19.2781
18.448
17.6552
16.8973
16.1718
15.4766
14.8094
14.1682
13.5508
12.955
12.3786
11.8191
11.2742
10.741
10.2164
9.69674
9.17759
8.65324
8.11599
7.55466
6.95153
6.27498
5.45757
4.30594
1.97683
28.5547
28.5352
28.2364
27.7408
27.1203
26.4346
25.7269
25.0231
24.3314
23.6454
22.9489
22.2225
21.4492
20.6164
19.7539
18.9172
18.1165
17.3502
16.6163
15.9128
15.2377
14.589
13.9647
13.3628
12.7813
12.2179
11.6706
11.1367
10.6137
10.0986
9.58771
9.07677
8.56017
8.03033
7.47621
6.88031
6.21136
5.4026
4.26266
1.95718
27.5498
27.5217
27.2437
26.7857
26.2102
25.5696
24.9038
24.2386
23.5854
22.9431
22.3001
21.6385
20.9356
20.1725
19.3527
18.5459
17.7734
17.0332
16.3233
15.6419
14.9871
14.357
13.7499
13.1637
12.5967
12.0467
11.5117
10.9892
10.4767
9.97138
9.46966
8.9673
8.45884
7.93683
7.39039
6.80224
6.14148
5.34215
4.21501
1.93553
26.6266
26.5996
26.3421
25.9167
25.3789
24.7759
24.1448
23.5117
22.8907
22.2849
21.6867
21.0788
20.4329
19.7179
18.9398
18.1656
17.4214
16.7072
16.0211
15.3617
14.7272
14.1158
13.5259
12.9556
12.4032
11.8667
11.3442
10.8333
10.3316
9.83626
9.34394
8.85047
8.35048
7.83664
7.29827
6.71833
6.0663
5.27705
4.16368
1.91221
25.7622
25.7432
25.5072
25.1121
24.6083
24.0387
23.4379
22.832
22.2375
21.6607
21.0975
20.5322
19.9359
19.2724
18.5277
17.7812
17.0641
16.3751
15.7126
15.075
14.4605
13.8677
13.2949
12.7405
12.2027
11.6798
11.1698
10.6706
10.1798
9.69465
9.21192
8.72755
8.23627
7.73092
7.20095
6.62959
5.98675
5.20817
4.10943
1.8876
24.9316
24.925
24.7128
24.3484
23.8779
23.3404
22.7682
22.1869
21.6146
21.0606
20.5245
19.9938
19.4408
18.8235
18.1107
17.393
16.7031
16.0395
15.4003
14.7842
14.1896
13.6151
13.0592
12.5205
11.9972
11.4877
10.9902
10.5027
10.0228
9.5479
9.07489
8.59977
8.11741
7.62076
7.09946
6.53701
5.90376
5.13636
4.05295
1.86201
24.1097
24.1185
23.9324
23.6008
23.1652
22.6613
22.1188
21.5621
21.0101
20.4747
19.9597
19.457
18.9419
18.3663
17.6901
17.0033
16.3413
15.703
15.0869
14.4919
13.9168
13.3602
12.8208
12.2974
11.7883
11.2921
10.8069
10.3309
9.86192
9.39733
8.93407
8.4683
7.99498
7.50721
6.9948
6.44153
5.81819
5.06237
3.9949
1.83577
23.274
23.3
23.142
22.8454
22.4476
21.9804
21.471
20.9419
20.4115
19.8934
19.3951
18.9145
18.4337
17.9072
17.2743
16.618
15.9834
15.3696
14.7757
14.2011
13.6445
13.1051
12.5817
12.073
11.5778
11.0944
10.6213
10.1567
9.69847
9.24409
8.79059
8.33421
7.87002
7.39125
6.88789
6.34398
5.73078
4.98681
3.93556
1.80889
22.4094
22.4522
22.3229
22.063
21.7054
21.2786
20.8065
20.3096
19.8049
19.3063
18.8232
18.3586
17.9048
17.4291
16.8648
16.2436
15.635
15.0438
14.4703
13.9144
13.3752
12.852
12.3436
11.849
11.3669
10.896
10.4346
9.98117
9.5335
9.08924
8.64545
8.19847
7.74347
7.27379
6.77962
6.24523
5.64234
4.91044
3.87567
1.78179
21.5091
21.5664
21.4652
21.2422
20.9261
20.5419
20.1106
19.6505
19.1769
18.7028
18.2374
17.7861
17.3473
16.907
16.4309
15.8869
15.3042
14.7297
14.1732
13.6339
13.1105
12.6021
12.1078
11.6263
11.1568
10.6978
10.2478
9.80516
9.3679
8.93364
8.49953
8.06196
7.61619
7.15569
6.67082
6.1461
5.55373
4.83414
3.81616
1.75498
20.5749
20.6437
20.5685
20.3811
20.1062
19.7652
19.3765
18.9562
18.5179
18.0733
17.6312
17.197
16.7716
16.3493
15.917
15.4565
14.954
14.4204
13.8833
13.3599
12.8514
12.3566
11.875
11.4058
10.948
10.5003
10.0613
9.62931
9.20231
8.778
8.35355
7.92542
7.48895
7.03773
6.56228
6.0474
5.46574
4.7587
3.75776
1.7288
19.6155
19.6924
19.6403
19.4859
19.251
18.9526
18.6069
18.2278
17.8274
17.416
17.0018
16.5902
16.1832
15.7788
15.3709
14.9515
14.5143
14.0561
13.5762
13.0869
12.5986
12.1163
11.6455
11.1872
10.7404
10.3037
9.87547
9.45396
9.03719
8.62284
8.20811
7.7895
7.36244
6.92061
6.4547
5.94979
5.37899
4.68467
3.70095
1.70346
18.6431
18.7253
18.6934
18.5693
18.3716
18.1141
17.8104
17.4725
17.1111
16.7352
16.3522
15.9676
15.5844
15.2028
14.8206
14.434
14.0387
13.6313
13.2094
12.7729
12.3249
11.8718
11.4165
10.969
10.5332
10.1074
9.69007
9.27921
8.87283
8.46861
8.06376
7.65482
7.2373
6.80497
6.34869
5.85379
5.29387
4.61225
3.64567
1.68039
17.6706
17.7557
17.7411
17.6444
17.4808
17.2616
16.9982
16.7006
16.3781
16.0386
15.6887
15.3337
14.9771
14.6204
14.2634
13.9047
13.5416
13.1714
12.7915
12.4006
11.9992
11.5901
11.1749
10.7482
10.3247
9.91089
9.50498
9.10522
8.70961
8.31583
7.92113
7.52209
7.11425
6.69153
6.24492
5.76002
5.21089
4.54183
3.59228
1.65897
16.7095
16.796
16.7959
16.7231
16.5899
16.4066
16.1812
15.9224
15.6379
15.3347
15.0186
14.6946
14.3661
14.0353
13.7032
13.3694
13.0328
12.6918
12.3447
11.9906
11.6293
11.2619
10.8891
10.5091
10.1137
9.71445
9.32057
8.93249
8.5482
8.16535
7.78118
7.39231
6.99435
6.58128
6.14427
5.6691
5.13019
4.47265
3.53828
1.6316
15.7693
15.8561
15.8682
15.8165
15.7107
15.5595
15.3692
15.1468
14.8987
14.6308
14.3484
14.0557
13.7562
13.4523
13.1454
12.8359
12.5238
12.2083
11.8886
11.5642
11.2349
10.901
10.5629
10.2203
9.86984
9.50737
9.13566
8.76181
8.38976
8.01849
7.64538
7.26702
6.87908
6.47565
6.04801
5.5821
5.05247
4.40439
3.4809
1.61058
14.8571
14.9434
14.9656
14.9321
14.8504
14.7276
14.5695
14.3808
14.1669
13.9328
13.6831
13.4214
13.1511
12.8745
12.5933
12.3085
12.0205
11.7292
11.4345
11.1361
10.8338
10.5276
10.2175
9.90282
9.58251
9.25521
8.91999
8.57607
8.22664
7.87295
7.514
7.14759
6.77027
6.3766
5.95808
5.5007
4.97901
4.33834
3.4247
1.58183
13.9778
14.0631
14.0935
14.0755
14.015