/*--------------------------------*- C++ -*----------------------------------*\
  =========                 |
  \\      /  F ield         | OpenFOAM: The Open Source CFD Toolbox
   \\    /   O peration     | Website:  https://openfoam.org
    \\  /    A nd           | Version:  8
     \\/     M anipulation  |
\*---------------------------------------------------------------------------*/
FoamFile
{
    version     2.0;
    format      ascii;
    class       volScalarField;
    location    "0.75";
    object      p_rgh;
}
// * * * * * * * * * * * * * * * * * * * * * * * * * * * * * * * * * * * * * //

dimensions      [1 -1 -2 0 0 0 0];

internalField   nonuniform List<scalar> 
9150
(
2504.75
2477.62
2452.16
2434.9
2426.52
2426.52
2434.9
2452.16
2477.62
2504.75
2495.58
2475.82
2460.18
2448.34
2442.31
2442.31
2448.34
2460.18
2475.82
2495.58
2485.89
2472.13
2463.62
2455.82
2451.69
2451.69
2455.82
2463.61
2472.13
2485.89
2480.78
2470.58
2465.14
2459.74
2456.76
2456.76
2459.74
2465.14
2470.58
2480.78
2479.12
2469.98
2465.44
2461.24
2458.78
2458.78
2461.24
2465.44
2469.98
2479.12
2040.23
2036.47
2061.27
2074.83
2081.05
2081.05
2074.83
2061.27
2036.47
2040.23
2230.02
2205.92
2200.49
2198.8
2198.52
2198.52
2198.8
2200.49
2205.92
2230.02
2354.09
2322.63
2306.74
2296.55
2291.59
2291.59
2296.55
2306.74
2322.63
2354.09
2454.15
2411.83
2384.11
2366.58
2357.88
2357.88
2366.58
2384.11
2411.83
2454.15
2524.87
2471.55
2432.94
2410.79
2400.52
2400.52
2410.79
2432.94
2471.55
2524.87
1857.16
1897.81
1888.71
1892.79
1887.37
1887.37
1892.79
1888.7
1897.8
1857.15
1882.67
1905.63
1884.21
1892.22
1887.4
1887.4
1892.22
1884.21
1905.63
1882.66
1860.7
1893.34
1860.24
1869.23
1872.02
1872.02
1869.23
1860.24
1893.34
1860.7
1701.86
1828.11
1842.71
1861.84
1878.03
1878.03
1861.84
1842.71
1828.11
1701.86
1573.52
1815.67
1910.59
1940.26
1955.83
1955.83
1940.26
1910.59
1815.67
1573.51
2760.77
2867.21
2949.17
3004.48
3031.98
3031.97
3004.44
2949.09
2867.08
2760.58
2246.87
2329.49
2395.97
2442.96
2468.17
2468.12
2442.81
2395.7
2329.1
2246.33
1756.55
1801.62
1838.46
1864.39
1877.83
1877.73
1864.09
1837.94
1800.87
1755.57
1592.52
1613.12
1629.84
1641.59
1647.6
1647.46
1641.15
1629.09
1612.06
1591.17
1641.26
1627.83
1620.44
1616.07
1613.98
1613.77
1615.47
1619.42
1626.4
1639.36
1818.29
1758.41
1724.53
1703.84
1693.51
1693.26
1703.09
1723.28
1756.6
1815.74
2014.36
1909.95
1856.12
1826.33
1811.63
1811.33
1825.46
1854.65
1907.72
2011.09
2147.34
2029.12
1964.27
1932.91
1918.48
1918.17
1931.96
1962.6
2026.44
2143.68
2189.78
2099.93
2033.22
2004.53
1993.35
1993.1
2003.78
2031.9
2097.94
2187.84
2158.33
2128.47
2069.32
2044.27
2036.67
2036.41
2043.45
2067.82
2126.29
2156.9
2078.85
2150.08
2097.74
2069.32
2062.13
2061.79
2068.19
2095.51
2146.98
2078.74
1986.5
2151.33
2110.2
2078.64
2071.07
2070.81
2077.78
2108.58
2149.48
1987.42
1870.04
2124.94
2103.68
2072.49
2065.09
2064.92
2071.92
2102.7
2124.46
1873
1757.83
2091.01
2092.88
2062.13
2053.8
2053.55
2061.28
2091.42
2090.11
1760.41
1601.06
2046.62
2090.22
2057.98
2045.32
2044.9
2056.55
2087.91
2046.56
1608.49
1466.62
1999.81
2082.94
2050.94
2034.41
2034.01
2049.63
2080.95
1999.72
1471.57
1337.84
1947.13
2069.12
2039.31
2019.63
2019.25
2038.08
2067.41
1947.84
1343.92
1219.35
1891.71
2049.71
2023.21
2000.88
2000.52
2022.06
2048.23
1892.83
1225.15
1113.92
1831.19
2020.87
1999.93
1976.25
1975.97
1999.08
2020.07
1833.13
1119.6
1021.04
1767.72
1983.61
1970.21
1946.41
1946.15
1969.46
1983.12
1769.8
1025.83
946.001
1696.02
1942.33
1939.47
1915.91
1915.54
1938.48
1942.03
1699.87
949.612
883.305
1622.16
1900.56
1908.85
1885.66
1885.29
1907.87
1900.15
1625.23
886.462
827.999
1559.42
1858.87
1875.65
1853.21
1852.85
1874.72
1858.6
1562.84
830.816
777.269
1496.96
1816.28
1840.86
1819.4
1819.07
1840.02
1816.17
1500.62
779.727
730.191
1436.64
1773.57
1804.91
1784.51
1784.23
1804.24
1773.77
1440.71
732.425
685.223
1377.38
1730.22
1767.49
1748.31
1748.09
1767.04
1730.78
1381.94
687.388
641.361
1319.02
1686.52
1728.94
1711.08
1710.92
1728.69
1687.42
1324.24
644.089
596.691
1261.55
1643.5
1690.18
1673.49
1673.39
1690.06
1644.62
1267.45
600.167
551.619
1205.36
1601.78
1651.83
1636.09
1636.03
1651.84
1603.12
1211.74
555.131
507.253
1150.03
1560.5
1613.38
1598.61
1598.62
1613.62
1562.24
1157.07
510.736
463.543
1095.12
1519.04
1574.42
1560.74
1560.82
1574.9
1521.18
1102.83
467.049
420.456
1041.02
1478.03
1535.47
1522.88
1523.01
1536.12
1480.47
1049.42
424.032
377.471
988.224
1438.47
1497.34
1485.64
1485.8
1498.11
1441.15
997.292
381.149
333.879
936.366
1400.32
1460.05
1449.05
1449.21
1460.82
1403.03
946.017
337.73
291.305
885.404
1362.47
1422.79
1412.58
1412.71
1423.46
1365.08
895.627
295.547
252.922
837.289
1325.61
1385.96
1376.67
1376.78
1386.57
1328.16
848.022
257.41
217.854
792.344
1290.75
1350.42
1342
1342.1
1351.03
1293.28
803.468
222.252
186.001
750.681
1258.06
1316.38
1308.74
1308.84
1316.96
1260.52
762.065
190.134
158.208
712.718
1227.5
1283.8
1276.94
1277.03
1284.32
1229.79
724.211
161.936
134.362
678.572
1199.22
1252.85
1246.77
1246.84
1253.32
1201.33
690.032
137.537
114.4
648.38
1173.34
1223.67
1218.36
1218.42
1224.11
1175.25
659.62
116.86
98.0731
622.093
1149.81
1196.3
1191.75
1191.82
1196.73
1151.54
632.969
99.7876
85.2023
599.782
1128.71
1170.86
1167.07
1167.14
1171.27
1130.21
610.153
86.2299
75.3379
581.39
1110.13
1147.55
1144.48
1144.53
1147.86
1111.31
591.111
75.7733
67.7452
566.805
1094.24
1126.64
1124.21
1124.21
1126.77
1094.99
575.666
67.7503
61.7083
555.911
1080.25
1108.33
1106.47
1106.41
1108.27
1081.37
563.65
61.3995
56.6888
547.783
1068.01
1092.64
1091.3
1091.21
1092.45
1069.3
554.847
56.1142
52.2752
541.738
1058.92
1079.48
1078.63
1078.52
1079.21
1059.44
548.22
51.5184
48.036
537.471
1052.34
1068.97
1068.52
1068.38
1068.59
1052.53
543.647
47.2965
43.7037
535.07
1048.22
1061.09
1060.95
1060.81
1060.67
1048.2
540.541
43.0693
39.2975
533.856
1046.18
1055.54
1055.7
1055.58
1055.19
1046.1
539.145
38.7526
34.8519
534.173
1045.95
1052.09
1052.54
1052.45
1051.82
1045.89
539.274
34.4273
30.4209
535.72
1047.62
1050.64
1051.34
1051.27
1050.4
1047.49
540.457
30.1503
26.0944
538.837
1050.86
1051.06
1051.96
1051.89
1050.84
1050.74
543.309
25.9729
22.0791
543.439
1055.46
1053.07
1054.17
1054.12
1052.91
1055.39
547.594
22.0525
18.5081
549.559
1061.29
1056.5
1057.81
1057.78
1056.4
1061.27
553.437
18.5381
15.4369
557.224
1068.27
1061.25
1062.77
1062.76
1061.2
1068.28
560.829
15.493
12.8584
566.427
1076.3
1067.22
1068.95
1068.95
1067.21
1076.35
569.769
12.9195
10.7244
577.144
1085.33
1074.33
1076.27
1076.28
1074.34
1085.38
580.242
10.7795
8.9696
589.348
1095.27
1082.52
1084.66
1084.68
1082.55
1095.33
592.227
9.01399
7.52733
603.014
1106.08
1091.74
1094.08
1094.1
1091.78
1106.13
605.704
7.56005
6.33833
618.131
1117.68
1101.94
1104.47
1104.49
1101.99
1117.73
620.663
6.36044
5.35325
634.696
1130.01
1113.06
1115.78
1115.8
1113.12
1130.07
637.103
5.36713
4.53291
652.713
1143.02
1125.06
1127.96
1127.98
1125.13
1143.08
655.027
4.54056
3.84705
672.191
1156.64
1137.87
1140.94
1140.98
1137.94
1156.7
674.438
3.84961
3.27277
693.141
1170.81
1151.44
1154.68
1154.72
1151.52
1170.86
695.341
3.27091
2.79047
715.565
1185.48
1165.71
1169.12
1169.15
1165.79
1185.53
717.737
2.78473
2.38375
739.477
1200.59
1180.63
1184.2
1184.23
1180.71
1200.62
741.631
2.37465
2.03936
764.859
1216.11
1196.15
1199.86
1199.89
1196.22
1216.12
766.997
2.02767
1.74625
791.659
1232.05
1212.21
1216.05
1216.08
1212.27
1232.05
793.765
1.73288
1.49157
819.864
1248.4
1228.76
1232.72
1232.73
1228.8
1248.38
821.914
1.47658
1.2934
849.185
1264.93
1245.63
1249.73
1249.74
1245.63
1264.86
851.123
1.28379
1.38036
878.628
1281.12
1262.47
1266.87
1266.86
1262.42
1280.95
880.263
1.42486
3.90084
907.107
1298.11
1280.21
1284.86
1284.88
1280.28
1298.12
908.458
4.76352
13.46
935.291
1317.08
1299.73
1304.24
1304.28
1299.85
1317.21
936.76
13.7782
18.2727
965.512
1336.31
1319.51
1323.89
1323.9
1319.53
1336.28
966.769
18.7262
25.3407
996.116
1354.79
1338.87
1343.34
1343.33
1338.84
1354.69
997.202
25.7736
33.0863
1027.74
1373.39
1358.4
1362.96
1362.95
1358.35
1373.27
1028.68
33.5045
41.9528
1060.51
1392.25
1378.19
1382.82
1382.81
1378.14
1392.12
1061.29
42.3392
51.9894
1094.4
1411.32
1398.24
1402.93
1402.91
1398.18
1411.2
1095.04
52.3352
63.3799
1129.43
1430.6
1418.53
1423.27
1423.26
1418.48
1430.49
1129.92
63.6766
76.3131
1165.6
1450.06
1439.06
1443.86
1443.84
1439.02
1449.97
1165.96
76.5546
91.0166
1202.92
1469.73
1459.84
1464.68
1464.67
1459.8
1469.66
1203.16
91.2009
107.76
1241.38
1489.6
1480.86
1485.76
1485.75
1480.83
1489.55
1241.52
107.89
126.873
1280.99
1509.7
1502.16
1507.11
1507.11
1502.14
1509.66
1281.06
126.957
148.772
1321.77
1530.04
1523.76
1528.77
1528.77
1523.74
1530.02
1321.78
148.817
173.993
1363.71
1550.67
1545.7
1550.78
1550.77
1545.69
1550.65
1363.68
174.004
203.231
1406.79
1571.61
1568.03
1573.19
1573.19
1568.02
1571.6
1406.75
203.214
237.383
1450.96
1592.92
1590.83
1596.1
1596.1
1590.83
1592.92
1450.92
237.345
277.605
1496.08
1614.69
1614.22
1619.64
1619.64
1614.22
1614.69
1496.04
277.555
325.434
1541.93
1637.03
1638.37
1644.01
1644.01
1638.37
1637.03
1541.9
325.381
383.053
1588.21
1660.19
1663.56
1669.49
1669.49
1663.56
1660.19
1588.19
383.006
453.796
1634.5
1684.58
1690.17
1696.45
1696.45
1690.17
1684.58
1634.48
453.761
542.701
1680.62
1710.74
1718.58
1725.16
1725.16
1718.57
1710.73
1680.61
542.681
657.315
1725.73
1739.16
1748.88
1755.57
1755.56
1748.88
1739.15
1725.72
657.307
806.957
1769.25
1769.81
1780.52
1786.89
1786.88
1780.51
1769.79
1769.23
806.953
1002.03
1800.71
1799.74
1810.48
1815.9
1815.9
1810.48
1799.72
1800.68
1002.02
1227.5
1824.14
1827.61
1836.63
1839.7
1839.7
1836.63
1827.6
1824.12
1227.47
1480.05
1860.72
1866.37
1864.17
1861.81
1861.81
1864.17
1866.36
1860.7
1480
1717.88
1911.91
1897.28
1884.56
1878.23
1878.23
1884.56
1897.27
1911.9
1717.86
2624.89
2462.47
2288.75
2113.01
1944.99
1793
1662.53
1551.33
1454.93
1370.2
1296.3
1232.54
1177.83
1131.04
1091.19
1057.45
1029.1
1005.52
986.158
970.549
958.299
949.069
942.572
938.564
936.836
937.204
939.502
943.576
949.279
956.452
964.919
974.484
985.017
996.163
1008.21
1019.23
1031.03
1035.77
1041.57
1042.94
2146.17
2027.5
1906.47
1792.53
1692.71
1610.04
1543.56
1493.91
1451.98
1412.34
1372.21
1331.27
1290.33
1250.41
1212.51
1177.43
1145.67
1117.47
1092.87
1071.79
1054.1
1039.59
1028.07
1019.32
1013.13
1009.28
1007.54
1007.69
1009.46
1012.58
1016.71
1021.45
1026.39
1031.28
1035.92
1039.18
1037.81
1037.19
1036.45
1050.11
1702.14
1640.8
1582.39
1532.93
1494.76
1467.11
1450.48
1445.06
1445.5
1441.21
1425.03
1399.52
1369.78
1337.97
1305.39
1273.24
1242.52
1213.93
1187.84
1164.46
1143.85
1125.97
1110.75
1098.03
1087.65
1079.4
1073.04
1068.31
1064.91
1062.51
1060.73
1059.18
1057.48
1055.38
1052.84
1050.22
1046.68
1043.11
1054.08
1070.09
1567.58
1546.15
1531.47
1505.71
1437.53
1325.66
1232.64
1204.73
1253.26
1328.29
1367.72
1367.37
1352.53
1332.28
1310.47
1287.66
1264.34
1241.31
1219.23
1198.55
1179.52
1162.27
1146.84
1133.22
1121.32
1111
1102.1
1094.41
1087.72
1081.77
1076.33
1071.22
1066.34
1061.81
1057.98
1055.67
1056.6
1064.04
1080.11
1101.86
1669.62
1730.89
1780.87
1659.34
1265.01
868.874
756.263
745.041
782.07
915.809
1117
1249.44
1294.89
1290.97
1278.15
1264.86
1250.57
1235.03
1218.87
1202.78
1187.21
1172.43
1158.61
1145.82
1134.08
1123.35
1113.57
1104.62
1096.4
1088.8
1081.73
1075.21
1069.4
1064.66
1061.64
1061.42
1066.42
1081.35
1108.38
1132.81
1928.48
2058.03
1890.24
1233.87
756.457
676.001
653.975
649.103
651.201
663.537
737.555
942.564
1161.06
1236.43
1238.96
1229.39
1221.11
1212.49
1202.45
1191.4
1179.92
1168.41
1157.1
1146.15
1135.66
1125.69
1116.23
1107.3
1098.9
1091.03
1083.77
1077.27
1071.88
1068.1
1066.73
1068.93
1077.21
1096.32
1127.36
1154.01
2162.38
2080.75
1332.08
702.006
666.16
656.339
653.068
651.869
651.663
651.872
652.61
672.885
866.505
1116.98
1196.12
1195.73
1187.76
1182.95
1178.08
1171.81
1164.42
1156.4
1148.03
1139.5
1130.95
1122.5
1114.23
1106.24
1098.6
1091.43
1084.9
1079.28
1074.99
1072.63
1073.01
1077.25
1087.67
1108.47
1139.8
1165.44
2203.84
1723.93
864.113
663.165
652.11
650.944
650.67
650.374
650.069
649.612
649.464
651.539
663.652
878.873
1108.43
1157.93
1155.15
1151.54
1150.48
1148.64
1145.28
1140.76
1135.47
1129.62
1123.39
1116.93
1110.39
1103.89
1097.6
1091.67
1086.36
1081.96
1078.96
1077.92
1079.59
1084.99
1096.1
1116.39
1145.46
1168.27
2041.66
1241.37
678.983
650.691
647.657
648.028
648.261
648.284
648.257
648.166
648.029
648.158
649.768
709.128
968.535
1101.4
1121.05
1120.93
1122.72
1124.8
1125.29
1124.22
1121.99
1118.89
1115.12
1110.86
1106.29
1101.57
1096.88
1092.43
1088.48
1085.37
1083.51
1083.43
1085.78
1091.39
1101.86
1119.96
1145.03
1163.95
1811.42
944.491
656.984
645.978
645.243
645.861
646.118
646.186
646.216
646.214
646.117
645.742
645.301
652.965
844.069
1040.1
1087.62
1093.75
1097.82
1102.85
1106.59
1108.61
1109.22
1108.73
1107.34
1105.28
1102.71
1099.81
1096.77
1093.8
1091.18
1089.18
1088.18
1088.62
1091.03
1096.01
1104.8
1119.51
1139.43
1154.53
1509.15
757.938
649.242
643.092
643.187
643.763
643.984
644.071
644.125
644.131
644.01
643.62
643.403
645.297
759.424
986.752
1055.36
1068.98
1075.98
1083.58
1090.09
1094.8
1097.95
1099.82
1100.65
1100.63
1099.93
1098.73
1097.24
1095.65
1094.17
1093.01
1092.53
1093.07
1094.98
1098.7
1105.09
1115.66
1129.84
1140.72
1274.93
677.511
642.26
640.182
640.981
641.543
641.783
641.938
642.066
642.151
642.155
642.052
642.133
643.177
720.658
952.462
1028.21
1047.48
1057.65
1067.61
1076.38
1083.32
1088.59
1092.49
1095.23
1097
1097.95
1098.25
1098.1
1097.66
1097.07
1096.51
1096.22
1096.46
1097.44
1099.45
1103.02
1109.05
1117.27
1123.45
1077.49
648.626
638.676
638.27
639.061
639.456
639.647
639.815
639.979
640.118
640.216
640.261
640.319
640.696
704.493
934.132
1010.23
1031.48
1043.88
1055.48
1065.85
1074.41
1081.31
1086.81
1091.09
1094.31
1096.62
1098.16
1099.08
1099.49
1099.52
1099.29
1098.92
1098.56
1098.32
1098.34
1098.89
1100.35
1102.68
1104.35
925.355
644.509
636.976
636.621
637.114
637.328
637.455
637.617
637.807
638.001
638.191
638.372
638.44
638.244
713.831
940.151
999.819
1020.24
1034.12
1046.85
1058.28
1067.93
1075.97
1082.62
1088.05
1092.37
1095.71
1098.19
1099.88
1100.88
1101.27
1101.09
1100.39
1099.22
1097.57
1095.52
1093.03
1090.06
1086.82
1084.3
812.958
640.73
634.512
634.305
634.703
634.863
634.998
635.209
635.483
635.799
636.185
636.717
637.217
636.316
745.01
958.62
993.851
1013.16
1027.96
1041.38
1053.34
1063.59
1072.32
1079.7
1085.87
1090.94
1094.98
1098.07
1100.26
1101.59
1102.08
1101.73
1100.52
1098.38
1095.27
1091.14
1085.73
1078.58
1070.25
1063.96
735.443
636.859
631.642
631.515
631.839
631.984
632.155
632.429
632.78
633.177
633.625
634.239
635.411
639.493
820.28
967.631
993.378
1011.16
1025.78
1039.03
1050.86
1061.18
1070.12
1077.81
1084.34
1089.78
1094.19
1097.6
1100.01
1101.43
1101.81
1101.11
1099.23
1096.07
1091.5
1085.35
1077.19
1066.3
1053.48
1043.91
680.404
631.16
627.864
628.006
628.329
628.537
628.814
629.195
629.648
630.175
630.799
631.27
630.126
673.673
917.443
978.183
997.702
1013.2
1026.79
1039.17
1050.35
1060.28
1069.02
1076.64
1083.19
1088.69
1093.17
1096.61
1099
1100.28
1100.38
1099.19
1096.57
1092.36
1086.37
1078.34
1067.73
1053.58
1036.96
1024.66
644.849
623.747
623.007
623.675
624.123
624.495
624.956
625.521
626.17
626.905
627.698
628.484
628.461
801.4
970.978
988.39
1003.98
1017.4
1029.6
1040.83
1051.12
1060.37
1068.61
1075.87
1082.14
1087.44
1091.74
1094.99
1097.15
1098.12
1097.79
1096.02
1092.63
1087.36
1080.03
1070.36
1057.66
1040.75
1021.03
1006.56
628.376
617.163
617.729
618.777
619.391
619.944
620.613
621.407
622.379
623.612
624.675
623.506
698.046
952.32
984.096
998.514
1011.31
1022.78
1033.46
1043.43
1052.65
1061.01
1068.54
1075.22
1081.01
1085.89
1089.81
1092.69
1094.45
1094.98
1094.12
1091.71
1087.52
1081.26
1072.74
1061.65
1047.21
1028.13
1005.97
989.875
620.032
612.787
612.938
613.709
614.236
614.821
615.597
616.557
617.695
619.126
621.015
640.714
886.77
987.702
998.393
1009.45
1019.47
1028.91
1037.96
1046.54
1054.54
1061.89
1068.56
1074.5
1079.65
1083.96
1087.35
1089.72
1090.97
1090.95
1089.5
1086.42
1081.45
1074.31
1064.74
1052.47
1036.65
1015.92
991.987
974.769
614.209
607.93
607.458
607.799
608.182
608.783
609.689
610.937
612.443
613.455
610.899
794.169
998.479
1003.48
1011.55
1019.5
1027.24
1034.88
1042.38
1049.6
1056.39
1062.69
1068.44
1073.56
1077.98
1081.62
1084.38
1086.16
1086.81
1086.19
1084.1
1080.34
1074.63
1066.65
1056.28
1043.07
1026.22
1004.29
979.217
961.346
606.224
600.42
599.897
600.214
600.699
601.517
602.812
604.822
607.427
607.711
684.594
974.858
1007.46
1014.36
1021.1
1027.42
1033.72
1040.02
1046.23
1052.22
1057.9
1063.2
1068.03
1072.31
1075.97
1078.89
1080.98
1082.1
1082.11
1080.85
1078.12
1073.67
1067.23
1058.62
1047.54
1033.66
1016.08
993.426
967.769
949.647
596.276
590.777
590.273
590.608
591.161
592.085
593.457
595.524
599.475
612.073
873.263
1017.5
1020.62
1025.41
1029.99
1034.66
1039.56
1044.56
1049.53
1054.39
1059.03
1063.37
1067.31
1070.78
1073.66
1075.85
1077.23
1077.68
1077.04
1075.12
1071.7
1066.63
1059.65
1050.45
1038.82
1024.43
1006.42
983.466
957.682
939.548
584.295
578.992
578.533
578.972
579.738
581.15
583.645
586.241
582.039
704.478
1017.76
1027.75
1030.54
1033.58
1036.82
1040.37
1044.18
1048.12
1052.09
1055.98
1059.7
1063.17
1066.3
1068.98
1071.11
1072.59
1073.28
1073.03
1071.7
1069.15
1065.19
1059.57
1052.05
1042.39
1030.38
1015.63
997.433
974.445
947.818
929.919
569.599
564.532
564.117
564.635
565.51
566.973
569.859
576.539
590.467
880.071
1032.84
1034.99
1037.35
1039.51
1041.94
1044.69
1047.67
1050.78
1053.92
1057
1059.94
1062.65
1065.03
1066.99
1068.42
1069.17
1069.19
1068.33
1066.43
1063.31
1058.8
1052.66
1044.73
1034.68
1022.31
1007.38
988.73
964.663
939.809
922.832
551.876
547.065
546.64
547.16
548.235
550.191
552.302
549.536
650.547
1009.32
1044.46
1043.52
1043.6
1044.54
1046.1
1048.07
1050.31
1052.7
1055.14
1057.55
1059.82
1061.86
1063.56
1064.85
1065.64
1065.83
1065.27
1063.84
1061.38
1057.74
1052.78
1046.2
1037.81
1027.38
1014.75
999.706
981.132
957.77
933.622
917.86
531.436
526.688
526.334
527.096
528.712
532.148
537.49
533.103
764.386
1037.88
1042.12
1044.01
1045.13
1046.47
1048.08
1049.88
1051.8
1053.78
1055.75
1057.65
1059.34
1060.82
1062.01
1062.8
1063.09
1062.79
1061.68
1059.71
1056.78
1052.75
1047.3
1040.29
1031.52
1020.79
1007.91
992.719
974.788
953.318
930.25
914.189
506.266
502.07
501.757
502.354
503.449
506.512
515.226
533.167
873.38
1037.2
1042.28
1044.95
1046.47
1047.91
1049.45
1051.07
1052.73
1054.4
1056
1057.43
1058.75
1059.83
1060.58
1060.95
1060.82
1060.04
1058.54
1056.19
1052.88
1048.41
1042.6
1035.28
1026.25
1015.3
1002.25
986.599
967.136
946.811
925.991
911.612
476.596
473.44
473.217
473.484
473.915
474.706
475.775
548.295
957.206
1048.93
1048.94
1048.58
1048.87
1049.69
1050.79
1052.06
1053.42
1054.79
1056.05
1057.21
1058.22
1058.96
1059.43
1059.45
1058.93
1057.73
1055.87
1053.35
1049.73
1044.99
1038.97
1031.48
1022.33
1011.35
998.334
982.656
952.677
908.533
899.05
905.988
445.113
442.755
442.72
442.949
443.2
443.631
444.502
582.173
1003.36
1051.11
1050
1049.01
1049.24
1050.07
1051.18
1052.4
1053.68
1054.94
1056.05
1057.03
1057.82
1058.42
1058.6
1058.34
1057.45
1056.02
1053.97
1051.19
1047.52
1042.65
1036.57
1029.1
1020.06
1009.29
996.632
981.491
954.61
903.227
833.868
743.633
412.394
410.586
410.668
410.904
411.057
411.192
412.175
565.247
995.372
1046.05
1047
1047.03
1047.99
1049.37
1050.83
1052.29
1053.69
1055
1056.13
1057.06
1057.77
1058.18
1058.19
1057.66
1056.63
1055.11
1052.9
1049.93
1046.22
1041.42
1035.44
1028.19
1019.53
1009.35
997.608
983.894
963.719
905.262
751.594
713.836
378.623
377.262
377.469
377.865
378.158
377.736
377.867
522.849
972.287
1037.45
1042.01
1043.85
1045.96
1048.17
1050.22
1052.08
1053.75
1055.22
1056.45
1057.42
1058.09
1058.41
1058.29
1057.59
1056.53
1054.9
1052.62
1049.64
1045.93
1041.12
1035.27
1028.3
1020.06
1010.47
999.538
986.59
968.459
849.39
719.536
711.358
343.45
342.708
343.135
343.735
344.274
343.396
341.952
454.701
928.581
1029.78
1038.24
1041.4
1044.42
1047.39
1050.01
1052.27
1054.22
1055.88
1057.23
1058.24
1058.86
1059.14
1059
1058.38
1057.25
1055.52
1053.21
1050.25
1046.41
1041.68
1035.86
1028.9
1021.52
1012.56
1002.36
989.411
952.817
765.919
717.676
710.031
306.561
306.784
307.36
307.619
307.626
306.737
302.057
365.154
851.378
1031.25
1040.79
1042.59
1045.08
1048.11
1050.91
1053.35
1055.46
1057.24
1058.66
1059.67
1060.35
1060.62
1060.44
1059.85
1058.68
1056.95
1054.6
1051.57
1047.75
1042.1
1034.73
1028.3
1022.34
1015.25
1005.64
993.304
951.064
759.806
716.421
709.217
270.015
271.083
271.61
271.233
270.168
267.732
256.328
275.382
701.853
1034.52
1045.72
1045.44
1046.82
1049.63
1052.53
1055.13
1057.41
1059.32
1060.78
1061.91
1062.61
1062.86
1062.67
1062
1060.76
1058.98
1056.61
1053.57
1048.81
1042.2
1036.8
1030.53
1023.35
1016.75
1009.1
997.591
952.703
758.396
715.495
708.804
236.547
238.08
238.837
238.67
237.733
234.964
228.355
233.029
474.076
983.028
1039.47
1044.25
1046.63
1050.27
1054.01
1057.24
1059.95
1062.14
1063.78
1064.98
1065.7
1065.93
1065.7
1064.89
1063.55
1061.67
1059.22
1056.13
1051.5
1044.65
1039.29
1033.16
1026.24
1020.98
1012.56
1001.83
962.459
770.599
715.271
708.462
205.346
207.299
208.259
208.21
207.293
204.759
202.081
193.62
274.544
829.463
1035.65
1046.96
1049.05
1052.67
1056.94
1060.69
1063.75
1066.17
1067.97
1069.16
1069.83
1069.99
1069.56
1068.59
1067.08
1065.02
1062.41
1059.19
1055.26
1049.87
1042.61
1036.25
1031.92
1024.53
1015.87
1005.9
990.608
867.1
734.425
708.366
176.583
178.885
179.923
179.672
178.268
175.33
173.45
169.529
182.98
556.408
1021.5
1047.48
1052.03
1055.88
1060.8
1065.28
1068.84
1071.53
1073.44
1074.64
1075.16
1075.07
1074.39
1073.16
1071.4
1069.09
1066.24
1062.82
1058.78
1053.96
1048.4
1042.31
1035.68
1027.95
1019.32
1009.65
997.902
970.318
853.858
709.312
151.154
153.676
154.849
154.681
153.439
151.049
148.015
147.537
143.967
270.822
871.463
1042.78
1056.73
1061.3
1066.6
1071.83
1075.93
1078.81
1080.66
1081.64
1081.85
1081.38
1080.31
1078.69
1076.56
1073.93
1070.79
1067.12
1062.89
1057.99
1052.53
1046.52
1039.69
1032.1
1023.76
1014.51
1003.3
948.872
752.999
710.305
129.076
131.692
132.993
132.988
131.986
129.877
126.062
124.572
124.284
136.041
507.728
1015.51
1062.69
1071.24
1076.02
1081.36
1085.81
1088.7
1090.2
1090.61
1090.18
1089.07
1087.38
1085.2
1082.57
1079.5
1075.99
1072.03
1067.56
1062.55
1057.03
1050.86
1044
1036.45
1028.24
1019.06
1006.91
857.797
727.812
723.868
110.347
112.923
114.285
114.359
113.451
111.573
108.548
104.924
105.293
105.127
163.672
727.67
1060.18
1087.71
1092.12
1095.53
1099.46
1101.94
1102.61
1101.93
1100.37
1098.21
1095.58
1092.55
1089.32
1085.73
1081.79
1077.48
1072.76
1067.59
1061.89
1055.61
1048.67
1041.05
1032.79
1023.57
1010.36
876.067
757.597
947.884
94.9194
97.3227
98.6713
98.8025
97.9877
96.2766
93.5813
89.8509
86.2825
85.5674
87.5122
226.552
850.15
1099.39
1118.37
1118.82
1119.26
1119.7
1118.49
1115.86
1112.46
1108.64
1104.66
1100.66
1096.59
1092.46
1088.05
1083.4
1078.44
1073.08
1067.26
1060.89
1053.89
1046.23
1037.87
1028.43
1011.8
985.439
995.596
983.627
82.6783
84.784
86.0508
86.2543
85.6212
84.2268
82.0121
78.8417
74.8923
72.4079
72.6663
74.465
240.186
867.291
1124.17
1149.96
1150.07
1144.49
1138.06
1131.78
1125.69
1119.73
1114.19
1109.01
1104.14
1099.37
1094.56
1089.64
1084.5
1079.03
1073.13
1066.69
1059.63
1051.86
1043.29
1033.12
1021.89
1012.07
1000.24
984.838
73.1948
74.9217
76.041
76.306
75.8982
74.8951
73.2876
70.9945
67.9822
65.0258
63.9834
64.2115
64.6949
169.454
720.116
1140.45
1204.9
1191.51
1167.97
1151.36
1139.97
1131.01
1123.45
1116.99
1111.34
1106.08
1101.02
1096
1090.84
1085.4
1079.55
1073.15
1066.11
1058.3
1049.66
1040.21
1029.69
1017.39
998.537
980.869
65.8277
67.1674
68.1112
68.4221
68.2458
67.6593
66.6924
65.3641
63.7021
61.8652
60.2634
59.1621
58.6376
61.0944
113.644
442.481
1021.01
1220.45
1191.54
1164.69
1148.71
1138.04
1129.73
1122.86
1117.02
1111.83
1106.98
1102.2
1097.28
1092.08
1086.44
1080.23
1073.31
1065.58
1056.98
1047.41
1036.59
1021.67
994.252
986.052
59.9097
60.9062
61.6695
61.9878
61.9769
61.7066
61.2144
60.5483
59.7774
58.9938
58.2982
57.7706
57.7428
59.351
65.415
212.147
957.716
1178.26
1169.81
1152.59
1142.23
1135.37
1129.65
1124.66
1120.2
1116.08
1112.07
1107.96
1103.62
1098.91
1093.69
1087.81
1081.16
1073.58
1065.01
1055.34
1044.11
1027.48
1001.45
992.019
54.9414
55.6458
56.2327
56.5192
56.595
56.5162
56.313
56.024
55.7032
55.4193
55.2497
55.2796
55.5644
56.1859
60.945
511.009
1096.59
1136.44
1138.1
1134.07
1131.51
1129.39
1127.05
1124.55
1122.01
1119.37
1116.52
1113.38
1109.85
1105.82
1101.19
1095.8
1089.52
1082.19
1073.71
1063.96
1052.16
1036.36
1021.82
1013.11
50.6434
51.0648
51.4586
51.6746
51.7697
51.7794
51.7214
51.6167
51.4915
51.3784
51.3293
51.3781
51.3602
50.7395
49.4479
369.862
1034.61
1118.05
1125.41
1124.39
1124.32
1124.72
1124.74
1124.31
1123.49
1122.29
1120.67
1118.58
1115.95
1112.7
1108.77
1104.02
1098.25
1091.28
1082.98
1073.21
1061.11
1045.66
1030.56
1020.43
46.6448
46.8363
47.0584
47.1983
47.2818
47.3264
47.3403
47.3355
47.3283
47.3378
47.3838
47.454
47.4581
47.7582
49.0492
59.119
456.189
1070.8
1116.07
1117.37
1118.31
1120.53
1122.57
1123.98
1124.79
1124.99
1124.59
1123.53
1121.74
1119.25
1116.1
1112.18
1107.13
1100.6
1092.54
1082.89
1070.99
1051.84
1033.95
1025.41
42.5799
42.6689
42.8023
42.8987
42.9704
43.0265
43.0718
43.1152
43.1713
43.2575
43.3743
43.4757
43.6152
44.7282
48.2786
74.8445
671.708
1073.95
1095.57
1103.94
1110.03
1115.53
1120.03
1123.46
1125.94
1127.5
1128.25
1128.1
1126.96
1125.02
1122.9
1120.24
1116.13
1109.92
1102.31
1093.03
1080.29
1053.57
1020.94
1006.73
38.443
38.5143
38.6164
38.6939
38.7546
38.8047
38.8487
38.8956
38.9607
39.0648
39.2199
39.4411
39.8021
40.7449
42.9235
307.622
984.781
1061.61
1081.72
1095.15
1104.97
1112.75
1118.98
1123.9
1127.71
1130.49
1132.24
1132.86
1132.26
1123.35
1105.8
1111.9
1125.65
1120.31
1112.71
1091.49
1058.89
1030.19
1008.58
997.676
34.3639
34.4354
34.515
34.5763
34.6183
34.6424
34.6523
34.6566
34.671
34.7194
34.8432
35.1105
35.5972
36.1975
37.7297
449.71
1041.35
1061.32
1080.99
1094.79
1104.98
1113.18
1120.01
1125.7
1130.42
1134.25
1137.18
1138.83
1132.54
1088.09
1075.49
1074.08
1118.35
1131.57
1114.02
1060.24
1048.65
1034.58
1018.89
1008.4
30.3558
30.4477
30.5136
30.56
30.5747
30.551
30.4882
30.3895
30.2615
30.1161
29.995
29.9972
30.1674
29.9394
27.5909
257.06
972.663
1075.31
1093.18
1103.49
1110.45
1116.6
1122.62
1128.29
1133.47
1138.13
1142.14
1144.29
1106.06
1082.44
1081.97
1080.69
1078.74
1113.49
1092.57
1069.97
1058.96
1059.78
1063.42
1063.46
26.4286
26.5776
26.6555
26.6993
26.6893
26.6123
26.4623
26.2346
25.9232
25.5207
25.0449
24.5876
24.1212
22.4878
17.813
22.1025
268.021
952.658
1105.88
1118.46
1121.13
1122.79
1126.4
1131.01
1136.02
1141.1
1145.88
1148.6
1108.15
1086.78
1087.07
1086.59
1098.01
1094.21
1089.29
1098.28
1115.16
1113.95
1099.98
1090.16
22.7174
22.9332
23.0368
23.0886
23.0653
22.9495
22.7317
22.4005
21.9399
21.3286
20.5458
19.5549
18.1993
16.1159
14.2446
13.8545
14.2498
22.6144
257.703
822.686
1003.28
1075.72
1123.14
1129.95
1135.89
1141.67
1147.09
1151.65
1146.66
1102.8
1090.1
1127.36
1154.91
1151.91
1147.87
1142.33
1135.09
1125.22
1113.35
1104.81
19.354
19.6209
19.7502
19.8181
19.8001
19.6791
19.4468
19.0944
18.6096
17.9773
17.1799
16.186
14.9216
13.3199
11.6843
10.5439
10.2488
9.15163
5.46098
-1.55289
3.50195
456.958
973.345
1120.07
1131.78
1140.11
1146.53
1151.53
1155.02
1156.38
1148.01
1157.59
1157.37
1155.96
1153.23
1149.19
1143.51
1135.69
1126.67
1120.37
16.3982
16.6935
16.8414
16.9274
16.9266
16.823
16.6115
16.2877
15.8454
15.2781
14.5792
13.7408
12.7502
11.602
10.3477
9.09964
7.87286
6.67177
5.80087
5.67565
6.44391
7.0415
68.4611
772.622
1126.85
1139.73
1147.44
1152.41
1155.75
1157.83
1159.07
1159.63
1159.6
1158.74
1156.94
1154.02
1149.69
1144.11
1138.82
1135.64
13.8602
14.162
14.319
14.4208
14.4415
14.3665
14.1937
13.9226
13.5524
13.083
12.5162
11.8565
11.1129
10.3035
9.4608
8.62099
7.79372
7.02916
6.52056
6.481
6.78956
7.27731
7.17279
76.5045
731.752
1118.42
1152.81
1156.63
1158.64
1159.59
1159.92
1159.84
1159.58
1159.13
1158.38
1157
1154.49
1150.8
1147.51
1147.17
11.7159
12.0067
12.1633
12.2752
12.3154
12.2705
12.1403
11.9268
11.632
11.259
10.8128
10.3012
9.73591
9.1343
8.52065
7.92156
7.35879
6.86054
6.48438
6.29733
6.32434
6.54217
6.72371
6.34996
41.1367
433.259
772.677
910.73
1000.04
1062.48
1093.42
1099.33
1093.26
1087.11
1086.81
1071.29
1080.7
1037.2
846
854.838
9.9217
10.1901
10.3385
10.4541
10.5091
10.4906
10.3994
10.2386
10.0114
9.72172
9.37524
8.97959
8.54482
8.08386
7.61253
7.1483
6.7084
6.31027
5.97314
5.7131
5.5336
5.42349
5.3722
5.23576
4.56803
1.1127
21.7862
91.3022
166.486
246.523
305.069
322.369
311.298
299.027
297.998
269.903
288.668
242.044
84.0681
80.8634
8.42725
8.66724
8.80246
8.91644
8.9808
8.98279
8.92376
8.80679
8.635
8.41228
8.14365
7.83542
7.49533
7.13238
6.7566
6.37825
6.00707
5.65151
5.31753
5.00535
4.70567
4.39758
4.04639
3.5941
3.08321
3.12158
2.76532
0.662388
-1.12155
-0.993304
-0.279283
0.283995
0.652598
0.916637
1.14153
1.41529
1.76653
2.14198
2.28754
1.9694
7.18395
7.39337
7.51283
7.62156
7.6905
7.70721
7.67278
7.59004
7.4617
7.29099
7.08197
6.83966
6.56966
6.27816
5.97156
5.6561
5.33713
5.01857
4.70208
4.3858
4.06285
3.71974
3.33525
2.88832
2.39628
1.94831
1.3214
0.855493
0.673002
0.738011
0.89957
1.06905
1.22663
1.37486
1.5183
1.66137
1.8026
1.92136
1.98075
1.98568
6.14853
6.32816
6.43101
6.53222
6.60215
6.6283
6.61167
6.55478
6.45978
6.32902
6.1657
5.97369
5.75715
5.52036
5.26762
5.0029
4.72959
4.45012
4.16573
3.87605
3.57843
3.26943
2.94442
2.60099
2.2438
1.88437
1.527
1.26066
1.10473
1.04997
1.08108
1.16938
1.28575
1.41763
1.55707
1.69982
1.83482
1.94314
2.00723
2.02904
5.284
5.43699
5.52349
5.61601
5.68435
5.71583
5.71159
5.67379
5.60411
5.50366
5.37513
5.22199
5.04721
4.85375
4.64463
4.42266
4.19022
3.9494
3.70165
3.44789
3.18788
2.92179
2.6509
2.37797
2.10848
1.85138
1.61854
1.42942
1.3012
1.24024
1.23973
1.28412
1.3593
1.45979
1.57164
1.69274
1.81273
1.92915
2.02516
2.07754
4.56041
4.6908
4.76195