/*--------------------------------*- C++ -*----------------------------------*\
  =========                 |
  \\      /  F ield         | OpenFOAM: The Open Source CFD Toolbox
   \\    /   O peration     | Website:  https://openfoam.org
    \\  /    A nd           | Version:  8
     \\/     M anipulation  |
\*---------------------------------------------------------------------------*/
FoamFile
{
    version     2.0;
    format      ascii;
    class       surfaceScalarField;
    location    "0.75";
    object      phi;
}
// * * * * * * * * * * * * * * * * * * * * * * * * * * * * * * * * * * * * * //

dimensions      [0 3 -1 0 0 0 0];

internalField   nonuniform List<scalar> 
18095
(
1.58553e-07
-9.64669e-07
8.06116e-07
1.6571e-07
-1.24821e-06
1.24106e-06
1.22574e-07
-1.24246e-06
1.28559e-06
6.5539e-08
-1.26375e-06
1.32078e-06
-9.94928e-14
-1.28091e-06
1.34645e-06
-6.55392e-08
-1.28091e-06
1.34645e-06
-1.22574e-07
-1.26375e-06
1.32078e-06
-1.65711e-07
-1.24246e-06
1.28559e-06
-1.58553e-07
-1.24821e-06
1.24106e-06
-9.64668e-07
8.06115e-07
1.11214e-07
-1.07588e-06
9.97309e-08
-1.23673e-06
7.3139e-08
-1.21587e-06
4.01998e-08
-1.23081e-06
-1.03672e-13
-1.24071e-06
-4.02001e-08
-1.24071e-06
-7.31393e-08
-1.23081e-06
-9.97312e-08
-1.21587e-06
-1.11214e-07
-1.23673e-06
-1.07588e-06
6.7421e-08
-1.1433e-06
5.30341e-08
-1.22235e-06
4.23383e-08
-1.20517e-06
2.39779e-08
-1.21245e-06
-1.1184e-13
-1.21673e-06
-2.39781e-08
-1.21673e-06
-4.23385e-08
-1.21245e-06
-5.30342e-08
-1.20517e-06
-6.74211e-08
-1.22235e-06
-1.1433e-06
3.98861e-08
-1.18319e-06
2.68149e-08
-1.20927e-06
2.21396e-08
-1.20049e-06
1.26106e-08
-1.20292e-06
-1.10548e-15
-1.20412e-06
-1.26107e-08
-1.20412e-06
-2.21397e-08
-1.20292e-06
-2.6815e-08
-1.20049e-06
-3.98862e-08
-1.20927e-06
-1.18319e-06
1.68106e-08
7.53643e-09
7.04182e-09
4.12217e-09
1.05723e-13
-4.12196e-09
-7.04161e-09
-7.53635e-09
-1.68106e-08
-1.75506e-07
-1.16282e-06
1.33832e-06
-2.19383e-07
-1.21567e-06
1.25955e-06
-1.65518e-07
-1.2128e-06
1.15894e-06
-8.73866e-08
-1.20486e-06
1.12673e-06
2.04523e-13
-1.20385e-06
1.11646e-06
8.7387e-08
-1.20385e-06
1.11646e-06
1.65518e-07
-1.20486e-06
1.12673e-06
2.19384e-07
-1.2128e-06
1.15894e-06
1.75506e-07
-1.21567e-06
1.25955e-06
-1.16282e-06
1.33833e-06
-9.29781e-08
-1.06984e-06
-9.56709e-08
-1.21298e-06
-7.92671e-08
-1.2292e-06
-4.42338e-08
-1.23989e-06
7.53534e-14
-1.24808e-06
4.42339e-08
-1.24808e-06
7.92672e-08
-1.23989e-06
9.56712e-08
-1.22921e-06
9.29782e-08
-1.21298e-06
-1.06984e-06
-5.78767e-08
-1.01196e-06
-5.50104e-08
-1.21585e-06
-4.63188e-08
-1.2379e-06
-2.69959e-08
-1.25921e-06
8.78425e-14
-1.27508e-06
2.6996e-08
-1.27508e-06
4.63189e-08
-1.25921e-06
5.50102e-08
-1.2379e-06
5.78766e-08
-1.21585e-06
-1.01196e-06
-7.47888e-08
-9.37175e-07
-6.17982e-08
-1.22884e-06
-4.8295e-08
-1.2514e-06
-2.75676e-08
-1.27994e-06
1.05611e-13
-1.30265e-06
2.75677e-08
-1.30265e-06
4.82951e-08
-1.27994e-06
6.17982e-08
-1.2514e-06
7.47891e-08
-1.22884e-06
-9.37175e-07
-1.31059e-07
-1.1884e-07
-8.46459e-08
-4.38038e-08
-3.92021e-14
4.38038e-08
8.46458e-08
1.1884e-07
1.3106e-07
-6.25487e-08
-9.46312e-07
1.00886e-06
4.83351e-10
-1.33215e-06
1.26912e-06
1.52795e-08
-1.26906e-06
1.25427e-06
7.60295e-09
-1.22786e-06
1.23554e-06
5.01644e-12
-1.2246e-06
1.2322e-06
-7.59366e-09
-1.2246e-06
1.2322e-06
-1.52726e-08
-1.22786e-06
1.23554e-06
-4.79123e-10
-1.26907e-06
1.25427e-06
6.25509e-08
-1.33215e-06
1.26912e-06
-9.4632e-07
1.00887e-06
5.29934e-09
-9.51612e-07
1.67363e-08
-1.34359e-06
1.36605e-08
-1.26599e-06
6.63535e-09
-1.22084e-06
2.72574e-12
-1.21797e-06
-6.63023e-09
-1.21797e-06
-1.36574e-08
-1.22084e-06
-1.67338e-08
-1.26599e-06
-5.29565e-09
-1.34359e-06
-9.51616e-07
2.51645e-08
-9.76776e-07
1.81469e-08
-1.33657e-06
1.09482e-08
-1.25879e-06
6.23237e-09
-1.21612e-06
1.535e-12
-1.21174e-06
-6.22964e-09
-1.21174e-06
-1.09456e-08
-1.21612e-06
-1.81448e-08
-1.25879e-06
-2.51629e-08
-1.33657e-06
-9.76779e-07
7.75567e-08
-1.05433e-06
5.19748e-08
-1.31099e-06
3.34965e-08
-1.24031e-06
2.06434e-08
-1.20327e-06
1.16602e-12
-1.1911e-06
-2.0641e-08
-1.1911e-06
-3.34939e-08
-1.20327e-06
-5.19723e-08
-1.24031e-06
-7.75552e-08
-1.31099e-06
-1.05433e-06
2.83992e-07
2.32554e-07
1.51178e-07
7.46373e-08
6.78388e-13
-7.46359e-08
-1.51177e-07
-2.32552e-07
-2.83991e-07
-8.91246e-07
-2.07513e-07
1.09876e-06
-6.74894e-07
-2.16351e-07
-4.5261e-07
-2.22285e-07
-2.26817e-07
-2.25792e-07
7.59102e-11
-2.26893e-07
2.2698e-07
-2.26904e-07
4.52804e-07
-2.25824e-07
6.75144e-07
-2.2234e-07
8.91578e-07
-2.16434e-07
-2.07627e-07
1.0992e-06
-6.70816e-07
-3.60548e-07
8.23851e-07
-5.09892e-07
-3.77276e-07
-3.43242e-07
-3.88934e-07
-1.72759e-07
-3.96276e-07
1.34839e-10
-3.99787e-07
1.73038e-07
-3.99807e-07
3.43551e-07
-3.96337e-07
5.10251e-07
-3.8904e-07
6.71247e-07
-3.7743e-07
-3.60759e-07
8.24379e-07
-5.15445e-07
-4.79315e-07
6.34213e-07
-3.9117e-07
-5.01551e-07
-2.62899e-07
-5.17205e-07
-1.32025e-07
-5.2715e-07
1.77875e-10
-5.3199e-07
1.32387e-07
-5.32016e-07
2.63282e-07
-5.27232e-07
3.91587e-07
-5.17345e-07
5.15912e-07
-5.01756e-07
-4.79591e-07
6.34745e-07
-3.98407e-07
-5.72608e-07
4.917e-07
-3.01623e-07
-5.98335e-07
-2.02354e-07
-6.16474e-07
-1.01468e-07
-6.28036e-07
2.16516e-10
-6.33674e-07
1.01905e-07
-6.33705e-07
2.02803e-07
-6.2813e-07
3.02092e-07
-6.16634e-07
3.98904e-07
-5.98567e-07
-5.72921e-07
4.92233e-07
-3.04413e-07
-6.45038e-07
3.76843e-07
-2.29984e-07
-6.72765e-07
-1.54072e-07
-6.92385e-07
-7.71625e-08
-7.04946e-07
2.51819e-10
-7.11089e-07
7.76681e-08
-7.11121e-07
1.54584e-07
-7.05046e-07
2.30504e-07
-6.92554e-07
3.04946e-07
-6.73008e-07
-6.45365e-07
3.7739e-07
-2.36415e-07
-7.03333e-07
2.9471e-07
-1.77811e-07
-7.31369e-07
-1.18783e-07
-7.51413e-07
-5.93673e-08
-7.64362e-07
2.72437e-10
-7.70728e-07
5.99123e-08
-7.70761e-07
1.19327e-07
-7.64461e-07
1.78354e-07
-7.51581e-07
2.36953e-07
-7.31607e-07
-7.03651e-07
2.95239e-07
-1.9886e-07
-7.55748e-07
2.51275e-07
-1.48091e-07
-7.82138e-07
-9.82705e-08
-8.01234e-07
-4.89119e-08
-8.1372e-07
2.69156e-10
-8.19909e-07
4.9449e-08
-8.19941e-07
9.8803e-08
-8.13815e-07
1.48613e-07
-8.01391e-07
1.99362e-07
-7.82356e-07
-7.5603e-07
2.51741e-07
-1.85719e-07
-8.07868e-07
2.3784e-07
-1.36905e-07
-8.30953e-07
-9.01854e-08
-8.47953e-07
-4.46957e-08
-8.5921e-07
2.34398e-10
-8.64839e-07
4.51622e-08
-8.64869e-07
9.06452e-08
-8.59298e-07
1.37352e-07
-8.48098e-07
1.86147e-07
-8.31152e-07
-8.08115e-07
2.38232e-07
-1.85435e-07
-8.60765e-07
2.38332e-07
-1.36226e-07
-8.80162e-07
-8.94662e-08
-8.94713e-07
-4.42696e-08
-9.04406e-07
1.65589e-10
-9.09275e-07
4.45953e-08
-9.09299e-07
8.97751e-08
-9.04478e-07
1.36508e-07
-8.9483e-07
1.85682e-07
-8.80326e-07
-8.60973e-07
2.38541e-07
-1.88729e-07
-9.13647e-07
2.41611e-07
-1.38788e-07
-9.30103e-07
-9.11739e-08
-9.42327e-07
-4.5137e-08
-9.50443e-07
1.10663e-10
-9.54522e-07
4.53535e-08
-9.54541e-07
9.13752e-08
-9.50499e-07
1.38962e-07
-9.42417e-07
1.88864e-07
-9.30228e-07
-9.13823e-07
2.41713e-07
-1.89186e-07
-9.6627e-07
2.41809e-07
-1.39526e-07
-9.79763e-07
-9.18851e-08
-9.89968e-07
-4.55727e-08
-9.96756e-07
7.10934e-11
-1.00017e-06
4.5714e-08
-1.00018e-06
9.20238e-08
-9.96809e-07
1.3966e-07
-9.90053e-07
1.89301e-07
-9.79869e-07
-9.66365e-07
2.41844e-07
-1.86696e-07
-1.01713e-06
2.37552e-07
-1.382e-07
-1.02826e-06
-9.12843e-08
-1.03688e-06
-4.53828e-08
-1.04266e-06
1.12051e-11
-1.04556e-06
4.54036e-08
-1.04558e-06
9.13005e-08
-1.04271e-06
1.38209e-07
-1.03696e-06
1.86696e-07
-1.02836e-06
-1.01722e-06
2.37547e-07
-1.82173e-07
-1.06534e-06
2.30391e-07
-1.35448e-07
-1.07498e-06
-8.9739e-08
-1.08259e-06
-4.47091e-08
-1.08769e-06
-3.28556e-11
-1.09024e-06
4.464e-08
-1.09025e-06
8.96612e-08
-1.08773e-06
1.35361e-07
-1.08266e-06
1.82089e-07
-1.07508e-06
-1.06547e-06
2.30339e-07
-1.75821e-07
-1.11049e-06
2.20963e-07
-1.31214e-07
-1.11959e-06
-8.70975e-08
-1.12671e-06
-4.34339e-08
-1.13135e-06
-2.80743e-11
-1.13364e-06
4.33753e-08
-1.13365e-06
8.70319e-08
-1.13138e-06
1.3114e-07
-1.12677e-06
1.75754e-07
-1.1197e-06
-1.11065e-06
2.20943e-07
-1.68238e-07
-1.15394e-06
2.11688e-07
-1.25457e-07
-1.16237e-06
-8.33119e-08
-1.16885e-06
-4.15593e-08
-1.1731e-06
-7.003e-12
-1.17519e-06
4.1545e-08
-1.1752e-06
8.32962e-08
-1.17314e-06
1.25433e-07
-1.16891e-06
1.68171e-07
-1.16244e-06
-1.15401e-06
2.11526e-07
-1.59926e-07
-1.19533e-06
2.01316e-07
-1.19219e-07
-1.20308e-06
-7.91521e-08
-1.20892e-06
-3.94856e-08
-1.21277e-06
-1.52927e-11
-1.21466e-06
3.94537e-08
-1.21467e-06
7.91146e-08
-1.2128e-06
1.1917e-07
-1.20896e-06
1.59861e-07
-1.20313e-06
-1.19538e-06
2.01235e-07
-1.51238e-07
-1.23453e-06
1.90438e-07
-1.12728e-07
-1.24159e-06
-7.48411e-08
-1.24681e-06
-3.73442e-08
-1.25027e-06
-3.58641e-11
-1.25197e-06
3.72718e-08
-1.25198e-06
7.47663e-08
-1.25029e-06
1.12648e-07
-1.24684e-06
1.51147e-07
-1.24163e-06
-1.23456e-06
1.90324e-07
-1.4235e-07
-1.27158e-06
1.79404e-07
-1.06099e-07
-1.27784e-06
-7.04567e-08
-1.28245e-06
-3.51748e-08
-1.28555e-06
-6.06408e-11
-1.28709e-06
3.50541e-08
-1.2871e-06
7.03379e-08
-1.28557e-06
1.05982e-07
-1.28249e-06
1.42232e-07
-1.27788e-06
-1.2716e-06
1.79273e-07
-1.33487e-07
-1.30625e-06
1.68154e-07
-9.95831e-08
-1.31175e-06
-6.61816e-08
-1.31585e-06
-3.30693e-08
-1.31866e-06
-8.98295e-11
-1.32007e-06
3.28903e-08
-1.32008e-06
6.60051e-08
-1.31869e-06
9.9413e-08
-1.31589e-06
1.3333e-07
-1.31179e-06
-1.30628e-06
1.68008e-07
-1.24816e-07
-1.33838e-06
1.56951e-07
-9.32905e-08
-1.34327e-06
-6.20755e-08
-1.34707e-06
-3.10421e-08
-1.34969e-06
-1.02905e-10
-1.35101e-06
3.08364e-08
-1.35102e-06
6.18712e-08
-1.34972e-06
9.30947e-08
-1.34712e-06
1.24643e-07
-1.34334e-06
-1.33845e-06
1.56812e-07
-1.16505e-07
-1.36799e-06
1.46119e-07
-8.71598e-08
-1.37262e-06
-5.80179e-08
-1.37621e-06
-2.90213e-08
-1.37869e-06
-9.82269e-11
-1.37993e-06
2.8826e-08
-1.37994e-06
5.78252e-08
-1.37872e-06
8.6966e-08
-1.37626e-06
1.16308e-07
-1.37268e-06
-1.36808e-06
1.45943e-07
-1.08539e-07
-1.39538e-06
1.3592e-07
-8.11863e-08
-1.39997e-06
-5.40352e-08
-1.40336e-06
-2.70365e-08
-1.40569e-06
-1.04259e-10
-1.40686e-06
2.68286e-08
-1.40687e-06
5.38288e-08
-1.40572e-06
8.09822e-08
-1.40341e-06
1.08337e-07
-1.40004e-06
-1.39547e-06
1.35723e-07
-1.00812e-07
-1.42068e-06
1.26114e-07
-7.54671e-08
-1.42532e-06
-5.02605e-08
-1.42857e-06
-2.51647e-08
-1.43079e-06
-1.22346e-10
-1.4319e-06
2.49209e-08
-1.43192e-06
5.00193e-08
-1.43082e-06
7.52291e-08
-1.42862e-06
1.00577e-07
-1.42539e-06
-1.42078e-06
1.25884e-07
-9.35655e-08
-1.44402e-06
1.16912e-07
-7.0095e-08
-1.44879e-06
-4.67142e-08
-1.45195e-06
-2.34149e-08
-1.45408e-06
-1.543e-10
-1.45516e-06
2.31074e-08
-1.45518e-06
4.64101e-08
-1.45412e-06
6.97957e-08
-1.45201e-06
9.32717e-08
-1.44886e-06
-1.44414e-06
1.16631e-07
-8.68599e-08
-1.46556e-06
1.08395e-07
-6.51183e-08
-1.47053e-06
-4.34311e-08
-1.47363e-06
-2.18027e-08
-1.47571e-06
-2.01636e-10
-1.47676e-06
2.14008e-08
-1.47678e-06
4.30335e-08
-1.47576e-06
6.47277e-08
-1.4737e-06
8.64813e-08
-1.47062e-06
-1.4657e-06
1.08048e-07
-8.07241e-08
-1.48541e-06
1.00578e-07
-6.05736e-08
-1.49068e-06
-4.04392e-08
-1.49377e-06
-2.03418e-08
-1.49581e-06
-2.61647e-10
-1.49685e-06
1.98199e-08
-1.49686e-06
3.99219e-08
-1.49586e-06
6.0065e-08
-1.49384e-06
8.02339e-08
-1.49079e-06
-1.48562e-06
1.00146e-07
-7.51775e-08
-1.50371e-06
9.34704e-08
-5.64712e-08
-1.50938e-06
-3.77414e-08
-1.5125e-06
-1.90298e-08
-1.51452e-06
-3.27614e-10
-1.51555e-06
1.83755e-08
-1.51556e-06
3.70902e-08
-1.51457e-06
5.58255e-08
-1.51258e-06
7.45426e-08
-1.5095e-06
-1.50394e-06
9.28648e-08
-7.02414e-08
-1.52074e-06
8.72774e-08
-5.27947e-08
-1.52683e-06
-3.53161e-08
-1.52998e-06
-1.78497e-08
-1.53199e-06
-3.89716e-10
-1.53301e-06
1.70708e-08
-1.53303e-06
3.45386e-08
-1.53204e-06
5.2018e-08
-1.53006e-06
6.94614e-08
-1.52695e-06
-1.52095e-06
8.64698e-08
-6.58435e-08
-1.53677e-06
8.18751e-08
-4.94926e-08
-1.54318e-06
-3.31291e-08
-1.54634e-06
-1.67825e-08
-1.54834e-06
-4.4355e-10
-1.54935e-06
1.58961e-08
-1.54936e-06
3.22443e-08
-1.54839e-06
4.86091e-08
-1.54642e-06
6.49591e-08
-1.5433e-06
-1.53697e-06
8.09816e-08
-6.18889e-08
-1.55186e-06
7.69768e-08
-4.65259e-08
-1.55854e-06
-3.11627e-08
-1.5617e-06
-1.5822e-08
-1.56368e-06
-4.91125e-10
-1.56468e-06
1.48404e-08
-1.5647e-06
3.01832e-08
-1.56373e-06
4.55497e-08
-1.56179e-06
6.09187e-08
-1.55867e-06
-1.55207e-06
7.60228e-08
-5.83168e-08
-1.56604e-06
7.24987e-08
-4.38574e-08
-1.573e-06
-2.93953e-08
-1.57616e-06
-1.49565e-08
-1.57811e-06
-5.2914e-10
-1.5791e-06
1.3899e-08
-1.57912e-06
2.83407e-08
-1.57817e-06
4.28088e-08
-1.57626e-06
5.72803e-08
-1.57314e-06
-1.56629e-06
7.14929e-08
-5.50613e-08
-1.57937e-06
6.83853e-08
-4.1427e-08
-1.58664e-06
-2.7782e-08
-1.58981e-06
-1.41605e-08
-1.59174e-06
-5.52835e-10
-1.59271e-06
1.30557e-08
-1.59273e-06
2.66804e-08
-1.5918e-06
4.03329e-08
-1.58991e-06
5.39829e-08
-1.58679e-06
-1.57965e-06
6.73456e-08
-5.20783e-08
-1.59197e-06
6.46848e-08
-3.9176e-08
-1.59954e-06
-2.62751e-08
-1.60271e-06
-1.34073e-08
-1.6046e-06
-5.58992e-10
-1.60556e-06
1.22898e-08
-1.60558e-06
2.51597e-08
-1.60467e-06
3.80667e-08
-1.60282e-06
5.09845e-08
-1.5997e-06
-1.5923e-06
6.36357e-08
-4.93429e-08
-1.60414e-06
6.15119e-08
-3.70688e-08
-1.61181e-06
-2.48488e-08
-1.61493e-06
-1.26834e-08
-1.61677e-06
-5.46934e-10
-1.6177e-06
1.15892e-08
-1.61772e-06
2.3754e-08
-1.61683e-06
3.59756e-08
-1.61504e-06
4.82581e-08
-1.61199e-06
-1.6045e-06
6.04624e-08
-4.67538e-08
-1.61598e-06
5.8587e-08
-3.50626e-08
-1.62351e-06
-2.34838e-08
-1.62651e-06
-1.19823e-08
-1.62827e-06
-5.19451e-10
-1.62916e-06
1.0942e-08
-1.62918e-06
2.24396e-08
-1.62833e-06
3.40125e-08
-1.62661e-06
4.56958e-08
-1.62367e-06
-1.61632e-06
5.75132e-08
-4.41385e-08
-1.62723e-06
5.53929e-08
-3.30699e-08
-1.63457e-06
-2.21319e-08
-1.63745e-06
-1.12825e-08
-1.63912e-06
-4.78455e-10
-1.63996e-06
1.03232e-08
-1.63998e-06
2.11654e-08
-1.63917e-06
3.20912e-08
-1.63754e-06
4.31393e-08
-1.63472e-06
-1.62752e-06
5.43431e-08
-4.14961e-08
-1.63793e-06
5.2192e-08
-3.10539e-08
-1.64502e-06
-2.07616e-08
-1.64774e-06
-1.05676e-08
-1.64931e-06
-4.24364e-10
-1.65011e-06
9.71573e-09
-1.65012e-06
1.99005e-08
-1.64936e-06
3.01771e-08
-1.64782e-06
4.05949e-08
-1.64514e-06
-1.63817e-06
5.12389e-08
-3.88165e-08
-1.64812e-06
4.9014e-08
-2.89994e-08
-1.65483e-06
-1.93609e-08
-1.65738e-06
-9.83124e-09
-1.65884e-06
-3.57204e-10
-1.65958e-06
9.11352e-09
-1.65959e-06
1.86332e-08
-1.65888e-06
2.82549e-08
-1.65744e-06
3.80455e-08
-1.65493e-06
-1.64831e-06
4.81868e-08
-3.60529e-08
-1.65774e-06
4.56717e-08
-2.68902e-08
-1.664e-06
-1.79233e-08
-1.66635e-06
-9.07173e-09
-1.6677e-06
-2.78814e-10
-1.66837e-06
8.51099e-09
-1.66838e-06
1.73531e-08
-1.66772e-06
2.63038e-08
-1.66639e-06
3.54394e-08
-1.66406e-06
-1.65787e-06
4.49948e-08
-3.31947e-08
-1.66674e-06
4.21901e-08
-2.47154e-08
-1.67248e-06
-1.64425e-08
-1.67462e-06
-8.28783e-09
-1.67585e-06
-1.92771e-10
-1.67647e-06
7.89974e-09
-1.67647e-06
1.60466e-08
-1.67587e-06
2.43055e-08
-1.67465e-06
3.27602e-08
-1.67252e-06
-1.6668e-06
4.16924e-08
-3.02353e-08
-1.67505e-06
3.85509e-08
-2.24713e-08
-1.68024e-06
-1.49169e-08
-1.68217e-06
-7.47979e-09
-1.68329e-06
-1.01301e-10
-1.68385e-06
7.27541e-09
-1.68385e-06
1.47071e-08
-1.6833e-06
2.2252e-08
-1.68219e-06
2.99992e-08
-1.68026e-06
-1.67507e-06
3.827e-08
-2.71861e-08
-1.68263e-06
3.47648e-08
-2.01674e-08
-1.68726e-06
-1.33536e-08
-1.68899e-06
-6.6521e-09
-1.68999e-06
-6.22351e-12
-1.69049e-06
6.63874e-09
-1.6905e-06
1.33374e-08
-1.69e-06
2.01468e-08
-1.689e-06
2.71579e-08
-1.68728e-06
-1.68263e-06
3.47167e-08
-2.40602e-08
-1.6894e-06
3.08228e-08
-1.78178e-08
-1.6935e-06
-1.17631e-08
-1.69504e-06
-5.81091e-09
-1.69594e-06
9.09604e-11
-1.6964e-06
5.99251e-09
-1.6964e-06
1.19441e-08
-1.69595e-06
1.79983e-08
-1.69506e-06
2.42413e-08
-1.69352e-06
-1.68939e-06
3.10058e-08
-2.08937e-08
-1.69528e-06
2.67744e-08
-1.54483e-08
-1.69895e-06
-1.01628e-08
-1.70033e-06
-4.96562e-09
-1.70114e-06
1.88173e-10
-1.70155e-06
5.34224e-09
-1.70155e-06
1.05402e-08
-1.70115e-06
1.58276e-08
-1.70034e-06
2.12778e-08
-1.69897e-06
-1.69529e-06
2.71745e-08
-1.7743e-08
-1.70027e-06
2.27325e-08
-1.30951e-08
-1.70359e-06
-8.57578e-09
-1.70485e-06
-4.12914e-09
-1.70559e-06
2.82075e-10
-1.70596e-06
4.69352e-09
-1.70596e-06
9.14125e-09
-1.70559e-06
1.36624e-08
-1.70486e-06
1.83141e-08
-1.70362e-06
-1.70029e-06
2.33151e-08
-1.46702e-08
-1.7044e-06
1.88004e-08
-1.08002e-08
-1.70746e-06
-7.02957e-09
-1.70862e-06
-3.31692e-09
-1.7093e-06
3.67332e-10
-1.70964e-06
4.05158e-09
-1.70965e-06
7.76421e-09
-1.70931e-06
1.15344e-08
-1.70863e-06
1.54045e-08
-1.70749e-06
-1.70442e-06
1.95361e-08
-1.17331e-08
-1.7077e-06
1.50371e-08
-8.60791e-09
-1.71059e-06
-5.55592e-09
-1.71167e-06
-2.54894e-09
-1.7123e-06
4.35076e-10
-1.71263e-06
3.41869e-09
-1.71263e-06
6.4238e-09
-1.71231e-06
9.47272e-09
-1.71168e-06
1.25954e-08
-1.71061e-06
-1.70774e-06
1.59128e-08
-8.97605e-09
-1.71021e-06
1.14868e-08
-6.55445e-09
-1.71301e-06
-4.18129e-09
-1.71404e-06
-1.84203e-09
-1.71464e-06
4.7936e-10
-1.71495e-06
2.79968e-09
-1.71495e-06
5.13609e-09
-1.71465e-06
7.50436e-09
-1.71405e-06
9.92269e-09
-1.71303e-06
-1.71027e-06
1.24585e-08
-6.42691e-09
-1.71203e-06
8.24189e-09
-4.65407e-09
-1.71478e-06
-2.91402e-09
-1.71578e-06
-1.19956e-09
-1.71636e-06
5.00911e-10
-1.71665e-06
2.20046e-09
-1.71665e-06
3.91187e-09
-1.71636e-06
5.64632e-09
-1.71579e-06
7.41116e-09
-1.7148e-06
-1.71208e-06
9.22247e-09
-4.0935e-09
-1.71325e-06
5.31764e-09
-2.91089e-09
-1.71597e-06
-1.75562e-09
-1.71694e-06
-6.21324e-10
-1.71749e-06
5.0155e-10
-1.71777e-06
1.62353e-09
-1.71777e-06
2.75491e-09
-1.71749e-06
3.90444e-09
-1.71694e-06
5.07703e-09
-1.71597e-06
-1.71329e-06
6.28039e-09
-1.96865e-09
-1.71394e-06
2.66019e-09
-1.32405e-09
-1.71661e-06
-7.04867e-10
-1.71756e-06
-1.04476e-10
-1.71809e-06
4.85747e-10
-1.71836e-06
1.07489e-09
-1.71836e-06
1.67204e-09
-1.71809e-06
2.28552e-09
-1.71755e-06
2.92216e-09
-1.71661e-06
-1.71397e-06
3.60459e-09
-3.09729e-11
-1.71414e-06
2.32996e-10
1.22058e-10
-1.71676e-06
2.50447e-10
-1.71768e-06
3.60941e-10
-1.7182e-06
4.61539e-10
-1.71846e-06
5.60982e-10
-1.71846e-06
6.6798e-10
-1.7182e-06
7.90802e-10
-1.71767e-06
9.3705e-10
-1.71675e-06
-1.71417e-06
1.13522e-09
1.74604e-09
-1.71391e-06
-1.97495e-09
1.45085e-09
-1.71647e-06
1.12742e-09
-1.71736e-06
7.85261e-10
-1.71786e-06
4.3288e-10
-1.71811e-06
7.9376e-11
-1.71811e-06
-2.66127e-10
-1.71785e-06
-5.95138e-10
-1.71734e-06
-8.9862e-10
-1.71645e-06
-1.71393e-06
-1.14083e-09
3.39247e-09
-1.71331e-06
-3.99637e-09
2.6844e-09
-1.71576e-06
1.94056e-09
-1.71662e-06
1.17576e-09
-1.7171e-06
3.99905e-10
-1.71734e-06
-3.76973e-10
-1.71733e-06
-1.14495e-09
-1.71708e-06
-1.89439e-09
-1.71659e-06
-2.6119e-09
-1.71573e-06
-1.7133e-06
-3.23802e-09
4.939e-09
-1.71235e-06
-5.90343e-09
3.84138e-09
-1.71466e-06
2.70148e-09
-1.71548e-06
1.53845e-09
-1.71593e-06
3.63486e-10
-1.71616e-06
-8.12427e-10
-1.71616e-06
-1.97837e-09
-1.71592e-06
-3.12339e-09
-1.71545e-06
-4.22958e-09
-1.71462e-06
-1.71232e-06
-5.21337e-09
6.4149e-09
-1.71102e-06
-7.73706e-09
4.94206e-09
-1.71319e-06
3.42349e-09
-1.71396e-06
1.88077e-09
-1.71439e-06
3.25735e-10
-1.71461e-06
-1.23008e-09
-1.7146e-06
-2.77514e-09
-1.71437e-06
-4.29771e-09
-1.71393e-06
-5.7771e-09
-1.71315e-06
-1.71098e-06
-7.11454e-09
7.84126e-09
-1.70934e-06
-9.52291e-09
6.00264e-09
-1.71135e-06
4.1178e-09
-1.71207e-06
2.20907e-09
-1.71248e-06
2.88234e-10
-1.71268e-06
-1.63314e-09
-1.71268e-06
-3.54347e-09
-1.71246e-06
-5.43096e-09
-1.71204e-06
-7.2739e-09
-1.7113e-06
-1.70929e-06
-8.96645e-09
9.23149e-09
-1.7073e-06
-1.12747e-08
7.03408e-09
-1.70915e-06
4.79227e-09
-1.70983e-06
2.52781e-09
-1.71022e-06
2.51965e-10
-1.71041e-06
-2.02417e-09
-1.7104e-06
-4.28946e-09
-1.7102e-06
-6.53258e-09
-1.70979e-06
-8.73221e-09
-1.7091e-06
-1.70724e-06
-1.0782e-08
1.05927e-08
-1.70489e-06
-1.2997e-08
8.04265e-09
-1.7066e-06
5.45154e-09
-1.70724e-06
2.83967e-09
-1.70761e-06
2.17433e-10
-1.70779e-06
-2.40485e-09
-1.70778e-06
-5.01684e-09
-1.70758e-06
-7.60807e-09
-1.7072e-06
-1.01585e-08
-1.70655e-06
-1.70483e-06
-1.25658e-08
1.19277e-08
-1.70213e-06
-1.46898e-08
9.03135e-09
-1.70371e-06
6.09796e-09
-1.70431e-06
3.14601e-09
-1.70465e-06
1.84866e-10
-1.70483e-06
-2.77613e-09
-1.70482e-06
-5.72758e-09
-1.70463e-06
-8.66007e-09
-1.70427e-06
-1.15553e-08
-1.70366e-06
-1.70207e-06
-1.43176e-08
1.32372e-08
-1.69902e-06
-1.63514e-08
1.00013e-08
-1.70047e-06
6.7325e-09
-1.70104e-06
3.44744e-09
-1.70137e-06
1.54362e-10
-1.70153e-06
-3.13838e-09
-1.70153e-06
-6.42244e-09
-1.70135e-06
-9.68947e-09
-1.701e-06
-1.2923e-08
-1.70042e-06
-1.69896e-06
-1.60351e-08
1.45211e-08
-1.69556e-06
-1.79801e-08
1.09527e-08
-1.6969e-06
7.35553e-09
-1.69744e-06
3.74421e-09
-1.69776e-06
1.26027e-10
-1.69791e-06
-3.49167e-09
-1.69791e-06
-7.10155e-09
-1.69774e-06
-1.06963e-08
-1.69741e-06
-1.42613e-08
-1.69686e-06
-1.6955e-06
-1.77164e-08
1.57797e-08
-1.69176e-06
-1.95754e-08
1.18861e-08
-1.69301e-06
7.9674e-09
-1.69352e-06
4.03662e-09
-1.69383e-06
1.00056e-10
-1.69398e-06
-3.8359e-09
-1.69397e-06
-7.76486e-09
-1.69381e-06
-1.16805e-08
-1.69349e-06
-1.55699e-08
-1.69297e-06
-1.69171e-06
-1.93602e-08
1.70139e-08
-1.68764e-06
-2.11379e-08
1.28021e-08
-1.6888e-06
8.56872e-09
-1.68929e-06
4.32514e-09
-1.68958e-06
7.67619e-11
-1.68973e-06
-4.17091e-09
-1.68972e-06
-8.41235e-09
-1.68957e-06
-1.26422e-08
-1.68926e-06
-1.68488e-08
-1.68876e-06
-1.68759e-06
-2.09664e-08
1.82252e-08
-1.68319e-06
-2.26696e-08
1.37021e-08
-1.68428e-06
9.16053e-09
-1.68475e-06
4.61048e-09
-1.68503e-06
5.65326e-11
-1.68518e-06
-4.49663e-09
-1.68517e-06
-9.04429e-09
-1.68502e-06
-1.35819e-08
-1.68473e-06
-1.80992e-08
-1.68425e-06
-1.68316e-06
-2.25362e-08
1.94163e-08
-1.67844e-06
-2.41739e-08
1.45882e-08
-1.67945e-06
9.74434e-09
-1.6799e-06
4.89362e-09
-1.68018e-06
3.98064e-11
-1.68032e-06
-4.81316e-09
-1.68032e-06
-9.66131e-09
-1.68017e-06
-1.45008e-08
-1.67989e-06
-1.93226e-08
-1.67942e-06
-1.67841e-06
-2.40721e-08
2.05904e-08
-1.67337e-06
-2.56547e-08
1.54629e-08
-1.67432e-06
1.0322e-08
-1.67476e-06
5.17574e-09
-1.67504e-06
2.70142e-11
-1.67517e-06
-5.12084e-09
-1.67517e-06
-1.02645e-08
-1.67503e-06
-1.54008e-08
-1.67475e-06
-2.05218e-08
-1.6743e-06
-1.67335e-06
-2.55774e-08
2.17517e-08
-1.66801e-06
-2.71169e-08
1.63295e-08
-1.6689e-06
1.0896e-08
-1.66933e-06
5.45818e-09
-1.6696e-06
1.84882e-11
-1.66973e-06
-5.42035e-09
-1.66973e-06
-1.08556e-08
-1.66959e-06
-1.62846e-08
-1.66932e-06
-2.17002e-08
-1.66889e-06
-1.66799e-06
-2.70565e-08
2.29048e-08
-1.66235e-06
-2.85656e-08
1.71919e-08
-1.66319e-06
1.14689e-08
-1.66361e-06
5.74246e-09
-1.66387e-06
1.44399e-11
-1.66401e-06
-5.7128e-09
-1.664e-06
-1.14369e-08
-1.66387e-06
-1.71556e-08
-1.6636e-06
-2.28624e-08
-1.66318e-06
-1.66234e-06
-2.85146e-08
2.40545e-08
-1.6564e-06
-3.00055e-08
1.80539e-08
-1.65718e-06
1.20435e-08
-1.6576e-06
6.02988e-09
-1.65786e-06
1.48862e-11
-1.65799e-06
-5.99948e-09
-1.65799e-06
-1.20112e-08
-1.65786e-06
-1.8018e-08
-1.6576e-06
-2.40132e-08
-1.65718e-06
-1.6564e-06
-2.99564e-08
2.52036e-08
-1.65017e-06
-3.14334e-08
1.89179e-08
-1.6509e-06
1.26202e-08
-1.6513e-06
6.32e-09
-1.65156e-06
1.95785e-11
-1.65169e-06
-6.28044e-09
-1.65169e-06
-1.25793e-08
-1.65156e-06
-1.88747e-08
-1.6513e-06
-2.51564e-08
-1.6509e-06
-1.65018e-06
-3.13787e-08
2.63569e-08
-1.64366e-06
-3.28597e-08
1.97757e-08
-1.64432e-06
1.31881e-08
-1.64471e-06
6.60583e-09
-1.64498e-06
2.77317e-11
-1.64511e-06
-6.54997e-09
-1.64511e-06
-1.31313e-08
-1.64498e-06
-1.97181e-08
-1.64471e-06
-2.62993e-08
-1.64432e-06
-1.64368e-06
-3.27988e-08
2.75059e-08
-1.63669e-06
-3.4484e-08
2.05947e-08
-1.63741e-06
1.3723e-08
-1.63784e-06
6.87403e-09
-1.63813e-06
3.56064e-11
-1.63827e-06
-6.80203e-09
-1.63827e-06
-1.36488e-08
-1.63813e-06
-2.05186e-08
-1.63784e-06
-2.74341e-08
-1.63741e-06
-1.63666e-06
-3.44503e-08
2.8637e-08
-1.62921e-06
-3.61133e-08
2.14111e-08
-1.63018e-06
1.42621e-08
-1.63069e-06
7.14397e-09
-1.63101e-06
3.74304e-11
-1.63117e-06
-7.06872e-09
-1.63117e-06
-1.41855e-08
-1.63101e-06
-2.13311e-08
-1.6307e-06
-2.8549e-08
-1.63019e-06
-1.6292e-06
-3.60058e-08
2.97366e-08
-1.62177e-06
-3.71764e-08
2.2292e-08
-1.62274e-06
1.48637e-08
-1.62326e-06
7.45053e-09
-1.6236e-06
4.52532e-11
-1.62376e-06
-7.35999e-09
-1.62376e-06
-1.47726e-08
-1.6236e-06
-2.21982e-08
-1.62327e-06
-2.96328e-08
-1.62275e-06
-1.62181e-06
-3.70298e-08
3.08826e-08
-1.61417e-06
-3.84824e-08
2.3183e-08
-1.61504e-06
1.54731e-08
-1.61555e-06
7.7673e-09
-1.61589e-06
6.54286e-11
-1.61606e-06
-7.63614e-09
-1.61606e-06
-1.53409e-08
-1.6159e-06
-2.30487e-08
-1.61556e-06
-3.07459e-08
-1.61506e-06
-1.6142e-06
-3.83498e-08
3.20426e-08
-1.60621e-06
-3.99978e-08
2.405e-08
-1.60704e-06
1.60573e-08
-1.60756e-06
8.06955e-09
-1.6079e-06
8.4937e-11
-1.60808e-06
-7.89964e-09
-1.60808e-06
-1.58874e-08
-1.60791e-06
-2.38809e-08
-1.60757e-06
-3.18764e-08
-1.60706e-06
-1.60624e-06
-3.98401e-08
3.32562e-08
-1.59791e-06
-4.1556e-08
2.49502e-08
-1.59874e-06
1.66575e-08
-1.59927e-06
8.37586e-09
-1.59962e-06
9.93135e-11
-1.5998e-06
-8.17762e-09
-1.5998e-06
-1.64606e-08
-1.59963e-06
-2.4756e-08
-1.59928e-06
-3.30668e-08
-1.59875e-06
-1.59793e-06
-4.13744e-08
3.45334e-08
-1.58928e-06
-4.3171e-08
2.59015e-08
-1.59011e-06
1.72905e-08
-1.59066e-06
8.69562e-09
-1.59103e-06
1.08291e-10
-1.59121e-06
-8.47967e-09
-1.59121e-06
-1.70765e-08
-1.59103e-06
-2.56912e-08
-1.59066e-06
-3.43288e-08
-1.59011e-06
-1.58929e-06
-4.29747e-08
3.58847e-08
-1.58029e-06
-4.48748e-08
2.69087e-08
-1.58113e-06
1.79595e-08
-1.58171e-06
9.03076e-09
-1.5821e-06
1.11762e-10
-1.58229e-06
-8.80795e-09
-1.58229e-06
-1.77389e-08
-1.5821e-06
-2.6692e-08
-1.58171e-06
-3.56739e-08
-1.58113e-06
-1.58029e-06
-4.46725e-08
3.73225e-08
-1.57092e-06
-4.66882e-08
2.79793e-08
-1.57179e-06
1.86689e-08
-1.5724e-06
9.38336e-09
-1.57281e-06
1.09877e-10
-1.57302e-06
-9.1643e-09
-1.57302e-06
-1.84519e-08
-1.57281e-06
-2.7766e-08
-1.57239e-06
-3.71148e-08
-1.57178e-06
-1.57091e-06
-4.6488e-08
3.88631e-08
-1.56115e-06
-4.8633e-08
2.91247e-08
-1.56205e-06
1.9426e-08
-1.5627e-06
9.75727e-09
-1.56314e-06
1.03127e-10
-1.56336e-06
-9.55163e-09
-1.56336e-06
-1.92223e-08
-1.56314e-06
-2.89241e-08
-1.56269e-06
-3.86672e-08
-1.56204e-06
-1.56114e-06
-4.84428e-08
4.05271e-08
-1.55094e-06
-5.07356e-08
3.036e-08
-1.55188e-06
2.0241e-08
-1.55258e-06
1.01578e-08
-1.55306e-06
9.23603e-11
-1.5533e-06
-9.97361e-09
-1.5533e-06
-2.00583e-08
-1.55305e-06
-3.01799e-08
-1.55257e-06
-4.03505e-08
-1.55187e-06
-1.55093e-06
-5.05627e-08
4.23394e-08
-1.54025e-06
-5.30279e-08
3.17036e-08
-1.54125e-06
2.11259e-08
-1.542e-06
1.05916e-08
-1.54252e-06
7.86745e-11
-1.54279e-06
-1.04346e-08
-1.54278e-06
-2.09702e-08
-1.54252e-06
-3.15498e-08
-1.54199e-06
-4.21881e-08
-1.54123e-06
-1.54024e-06
-5.28788e-08
4.43299e-08
-1.52903e-06
-5.55491e-08
3.31773e-08
-1.53009e-06
2.20955e-08
-1.53092e-06
1.10662e-08
-1.5315e-06
6.32365e-11
-1.53178e-06
-1.094e-08
-1.53178e-06
-2.19702e-08
-1.53149e-06
-3.30536e-08
-1.53091e-06
-4.42081e-08
-1.53008e-06
-1.52901e-06
-5.54293e-08
4.65352e-08
-1.51722e-06
-5.83473e-08
3.48073e-08
-1.51836e-06
2.31665e-08
-1.51928e-06
1.15905e-08
-1.51992e-06
4.71052e-11
-1.52024e-06
-1.14965e-08
-1.52024e-06
-2.30732e-08
-1.51991e-06
-3.47152e-08
-1.51927e-06
-4.64447e-08
-1.51835e-06
-1.5172e-06
-5.82593e-08
4.90001e-08
-1.50474e-06
-6.14826e-08
3.66251e-08
-1.50599e-06
2.4359e-08
-1.50701e-06
1.21744e-08
-1.50773e-06
3.11918e-11
-1.5081e-06
-1.21122e-08
-1.50809e-06
-2.42972e-08
-1.50773e-06
-3.6564e-08
-1.507e-06
-4.89402e-08
-1.50597e-06
-1.50471e-06
-6.14252e-08
5.17808e-08
-1.49149e-06
-6.50325e-08
3.8669e-08
-1.49288e-06
2.56968e-08
-1.49404e-06
1.28297e-08
-1.49487e-06
1.63941e-11
-1.49528e-06
-1.27969e-08
-1.49528e-06
-2.56642e-08
-1.49486e-06
-3.86366e-08
-1.49403e-06
-5.17487e-08
-1.49286e-06
-1.49146e-06
-6.50016e-08
5.49502e-08
-1.47734e-06
-6.90999e-08
4.09876e-08
-1.47892e-06
2.72092e-08
-1.48026e-06
1.35704e-08
-1.48123e-06
3.65267e-12
-1.48172e-06
-1.3563e-08
-1.48171e-06
-2.72016e-08
-1.48122e-06
-4.09795e-08
-1.48025e-06
-5.49414e-08
-1.4789e-06
-1.47731e-06
-6.90905e-08
5.86077e-08
-1.46212e-06
-7.38284e-08
4.3646e-08
-1.46395e-06
2.89352e-08
-1.46555e-06
1.4415e-08
-1.46671e-06
-6.25917e-12
-1.4673e-06
-1.44274e-08
-1.46729e-06
-2.89469e-08
-1.4667e-06
-4.36565e-08
-1.46554e-06
-5.86163e-08
-1.46394e-06
-1.46209e-06
-7.38346e-08
6.28989e-08
-1.44559e-06
-7.94261e-08
4.67418e-08
-1.4478e-06
3.09353e-08
-1.44974e-06
1.53929e-08
-1.45117e-06
-1.28973e-11
-1.45189e-06
-1.54183e-08
-1.45189e-06
-3.09597e-08
-1.45116e-06
-4.67643e-08
-1.44973e-06
-6.29185e-08
-1.44778e-06
-1.44557e-06
-7.94415e-08
6.80537e-08
-1.42744e-06
-8.6204e-08
5.04402e-08
-1.43018e-06
3.33186e-08
-1.43262e-06
1.65588e-08
-1.43441e-06
-1.61924e-11
-1.43531e-06
-1.65907e-08
-1.43531e-06
-3.33491e-08
-1.4344e-06
-5.04682e-08
-1.43261e-06
-6.80778e-08
-1.43017e-06
-1.42743e-06
-8.62225e-08
7.44502e-08
-1.40727e-06
-9.46241e-08
5.50383e-08
-1.41077e-06
3.62939e-08
-1.41388e-06
1.80209e-08
-1.41613e-06
-1.64396e-11
-1.41728e-06
-1.80532e-08
-1.41728e-06
-3.63244e-08
-1.41613e-06
-5.50658e-08
-1.41387e-06
-7.44732e-08
-1.41077e-06
-1.40726e-06
-9.46404e-08
8.26865e-08
-1.38462e-06
-1.05336e-07
6.10385e-08
-1.38912e-06
4.02232e-08
-1.39306e-06
1.99679e-08
-1.39588e-06
-1.42459e-11
-1.3973e-06
-1.99957e-08
-1.39729e-06
-4.02489e-08
-1.39588e-06
-6.10608e-08
-1.39306e-06
-8.27038e-08
-1.38912e-06
-1.38462e-06
-1.05346e-07
9.35341e-08
-1.35907e-06
-1.1908e-07
6.91012e-08
-1.36469e-06
4.55687e-08
-1.36953e-06
2.26337e-08
-1.37294e-06
-1.03693e-11
-1.37465e-06
-2.26536e-08
-1.37465e-06
-4.55863e-08
-1.37294e-06
-6.91148e-08
-1.36953e-06
-9.35424e-08
-1.36469e-06
-1.35908e-06
-1.19081e-07
1.0748e-07
-1.33025e-06
-1.36301e-07
7.95003e-08
-1.33671e-06
5.24411e-08
-1.34247e-06
2.60593e-08
-1.34656e-06
-5.70194e-12
-1.34859e-06
-2.60698e-08
-1.34859e-06
-5.24489e-08
-1.34657e-06
-7.95036e-08
-1.34248e-06
-1.07478e-07
-1.33672e-06
-1.33026e-06
-1.36292e-07
1.22887e-07
-1.29662e-06
-1.56518e-07
9.01367e-08
-1.30396e-06
5.93339e-08
-1.31167e-06
2.95817e-08
-1.31681e-06
-1.04109e-12
-1.319e-06
-2.95829e-08
-1.31901e-06
-5.93325e-08
-1.31682e-06
-9.01309e-08
-1.31168e-06
-1.22875e-07
-1.30398e-06
-1.29664e-06
-1.56499e-07
1.29537e-07
-1.25008e-06
-1.76078e-07