/*--------------------------------*- C++ -*----------------------------------*\
  =========                 |
  \\      /  F ield         | OpenFOAM: The Open Source CFD Toolbox
   \\    /   O peration     | Website:  https://openfoam.org
    \\  /    A nd           | Version:  8
     \\/     M anipulation  |
\*---------------------------------------------------------------------------*/
FoamFile
{
    version     2.0;
    format      ascii;
    class       surfaceScalarField;
    location    "7.9";
    object      alphaPhi0.water;
}
// * * * * * * * * * * * * * * * * * * * * * * * * * * * * * * * * * * * * * //

dimensions      [0 3 -1 0 0 0 0];

internalField   nonuniform List<scalar> 
18095
(
1.98216e-08
-1.71988e-07
1.52166e-07
2.31537e-08
-1.97581e-07
1.94249e-07
2.04132e-08
-2.06198e-07
2.08938e-07
1.21258e-08
-2.11326e-07
2.19614e-07
5.53944e-10
-2.13213e-07
2.24785e-07
-1.16322e-08
-2.13047e-07
2.25233e-07
-2.05305e-08
-2.10967e-07
2.19866e-07
-2.31852e-08
-2.06125e-07
2.0878e-07
-1.98259e-08
-1.9757e-07
1.94211e-07
-1.71986e-07
1.5216e-07
1.55728e-08
-1.87561e-07
1.61496e-08
-1.98158e-07
1.18314e-08
-2.01879e-07
5.95386e-09
-2.05449e-07
-4.76628e-10
-2.06782e-07
-6.53788e-09
-2.06986e-07
-1.20011e-08
-2.05504e-07
-1.62066e-08
-2.0192e-07
-1.55863e-08
-1.98191e-07
-1.87572e-07
6.82379e-09
-1.94385e-07
8.40425e-09
-1.99738e-07
7.42056e-09
-2.00896e-07
4.43208e-09
-2.0246e-07
3.03709e-10
-2.02654e-07
-4.17912e-09
-2.02503e-07
-7.4165e-09
-2.02267e-07
-8.39911e-09
-2.00937e-07
-6.82115e-09
-1.99769e-07
-1.94393e-07
4.53572e-09
-1.9892e-07
4.73756e-09
-1.9994e-07
3.69332e-09
-1.99851e-07
1.60612e-09
-2.00373e-07
-2.71326e-10
-2.00776e-07
-1.90785e-09
-2.00866e-07
-3.67732e-09
-2.00497e-07
-4.73025e-09
-1.99884e-07
-4.52966e-09
-1.99969e-07
-1.98922e-07
1.07992e-09
1.13963e-09
1.28807e-09
9.15043e-10
1.39019e-10
-7.26899e-10
-1.22412e-09
-1.10847e-09
-1.07762e-09
-2.78392e-08
-1.96316e-07
2.24156e-07
-3.00103e-08
-1.99139e-07
2.01309e-07
-2.45509e-08
-2.01722e-07
1.96262e-07
-1.30771e-08
-2.02081e-07
1.90607e-07
1.43623e-09
-2.02465e-07
1.87952e-07
1.52083e-08
-2.01842e-07
1.8807e-07
2.56198e-08
-2.00943e-07
1.90532e-07
3.02862e-08
-2.00699e-07
1.96032e-07
2.78872e-08
-1.98676e-07
2.01076e-07
-1.96121e-07
2.24008e-07
-9.62656e-09
-1.8669e-07
-1.5203e-08
-1.93562e-07
-1.30611e-08
-2.03864e-07
-6.62052e-09
-2.08522e-07
-1.02387e-09
-2.08062e-07
4.79815e-09
-2.07664e-07
1.17617e-08
-2.07907e-07
1.49036e-08
-2.0384e-07
9.62631e-09
-1.93399e-07
-1.86495e-07
-9.89265e-09
-1.76797e-07
-8.24001e-09
-1.95215e-07
-7.46626e-09
-2.04638e-07
-5.97635e-09
-2.10011e-07
-4.21571e-10
-2.13616e-07
5.40487e-09
-2.1349e-07
7.08794e-09
-2.0959e-07
7.8578e-09
-2.0461e-07
9.6771e-09
-1.95219e-07
-1.76817e-07
-6.77806e-09
-1.70019e-07
-8.61934e-09
-1.93374e-07
-7.89321e-09
-2.05364e-07
-3.25219e-09
-2.14652e-07
-8.61879e-10
-2.16006e-07
1.85181e-09
-2.16204e-07
7.0951e-09
-2.14833e-07
8.13666e-09
-2.05652e-07
6.61565e-09
-1.93698e-07
-1.70202e-07
-1.78523e-08
-1.6977e-08
-1.34025e-08
-8.44075e-09
3.38336e-10
9.36806e-09
1.44005e-08
1.75286e-08
1.8042e-08
2.96496e-08
-1.58925e-07
1.29275e-07
3.61821e-08
-1.99386e-07
1.92853e-07
3.05073e-08
-2.10535e-07
2.1621e-07
1.60036e-08
-2.13627e-07
2.28131e-07
-3.82273e-10
-2.16581e-07
2.32967e-07
-1.58259e-08
-2.16354e-07
2.31798e-07
-2.98849e-08
-2.14771e-07
2.28829e-07
-3.58402e-08
-2.11032e-07
2.16987e-07
-2.90716e-08
-1.99576e-07
1.92808e-07
-1.59218e-07
1.30147e-07
1.55857e-08
-1.74511e-07
1.79196e-08
-2.0172e-07
1.44197e-08
-2.07035e-07
8.76656e-09
-2.07974e-07
-7.49092e-12
-2.07807e-07
-8.60649e-09
-2.07755e-07
-1.45661e-08
-2.08811e-07
-1.8167e-08
-2.07431e-07
-1.56177e-08
-2.02125e-07
-1.74836e-07
8.52724e-09
-1.83038e-07
8.6893e-09
-2.01882e-07
7.51795e-09
-2.05864e-07
2.79176e-09
-2.03248e-07
-1.03284e-10
-2.04912e-07
-2.94688e-09
-2.04911e-07
-7.31521e-09
-2.04442e-07
-8.4114e-09
-2.06335e-07
-8.3834e-09
-2.02153e-07
-1.8322e-07
8.33545e-09
-1.91374e-07
5.7858e-09
-1.99332e-07
6.82044e-09
-2.06898e-07
3.3855e-09
-1.99812e-07
1.31649e-09
-2.02843e-07
-6.59069e-10
-2.02936e-07
-5.83988e-09
-1.99261e-07
-5.40104e-09
-2.06773e-07
-8.19292e-09
-1.99361e-07
-1.91413e-07
3.27824e-08
3.47593e-08
2.41227e-08
1.49177e-08
2.69261e-11
-1.48385e-08
-2.35685e-08
-3.43097e-08
-3.25956e-08
-2.26699e-09
-3.47946e-09
5.75015e-09
3.14026e-09
-5.38678e-09
3.73501e-09
-6.01213e-10
-6.37851e-09
1.00956e-08
-1.40247e-08
7.5799e-09
-1.12569e-08
-2.76771e-09
-6.80312e-09
-4.45377e-09
-3.14896e-09
-3.65412e-09
-1.82378e-09
-1.32515e-09
2.01573e-09
-3.82731e-09
-1.22693e-08
8.56354e-09
2.46988e-10
-1.42327e-08
-3.32962e-09
-1.13943e-08
-3.4396e-09
-3.54361e-09
2.24486e-09
2.03326e-09
1.96981e-09
2.36821e-09
-3.10498e-09
-2.24667e-09
1.61135e-10
-1.09687e-08
5.06793e-09
-2.21556e-08
9.8617e-09
1.4255e-08
-3.43688e-08
-1.9284e-08
1.66468e-08
1.11729e-08
-2.0106e-08
-2.38522e-09
-1.81026e-08
-5.44303e-09
-1.41174e-08
-1.87018e-09
-1.13959e-08
-7.4323e-10
-1.71485e-08
2.65624e-09
-2.81561e-08
1.11814e-08
-3.99508e-08
1.6848e-08
-5.20329e-08
2.18832e-08
3.21091e-08
-6.98881e-08
-2.53415e-08
2.05383e-08
2.1414e-08
-2.8972e-08
1.26285e-09
-3.07897e-08
-3.64846e-09
-3.15318e-08
-1.14549e-09
-3.501e-08
2.84494e-09
-4.26202e-08
1.02669e-08
-4.86599e-08
1.72245e-08
-5.4501e-08
2.25967e-08
-6.83959e-08
3.57759e-08
4.91996e-08
-8.5488e-08
-2.76174e-08
2.64703e-08
2.16903e-08
-3.1698e-08
5.31416e-09
-3.50664e-08
-2.7993e-10
-3.65118e-08
3.79848e-10
-3.87264e-08
5.05658e-09
-4.30956e-08
1.4634e-08
-4.84133e-08
2.24509e-08
-5.80639e-08
3.2246e-08
-7.0804e-08
4.85127e-08
5.72786e-08
-7.88843e-08
-3.63179e-08
2.93687e-08
3.3395e-08
-3.82274e-08
7.19442e-09
-4.06447e-08
2.13739e-09
-4.16379e-08
1.46191e-09
-4.09353e-08
4.35166e-09
-4.26811e-08
1.63107e-08
-4.93054e-08
2.90746e-08
-6.44915e-08
4.74294e-08
-7.48141e-08
5.88284e-08
6.04031e-08
-7.79424e-08
-4.1415e-08
3.13336e-08
3.94257e-08
-4.42246e-08
9.96087e-09
-4.6274e-08
4.18675e-09
-4.74561e-08
2.64398e-09
-4.68771e-08
3.78624e-09
-4.29513e-08
1.24128e-08
-4.55167e-08
3.15293e-08
-5.96848e-08
6.15924e-08
-7.11285e-08
7.02734e-08
6.25345e-08
-7.32639e-08
-4.23892e-08
3.86467e-08
3.50758e-08
-4.98038e-08
1.73755e-08
-5.56824e-08
1.00654e-08
-5.81818e-08
5.14332e-09
-5.71831e-08
2.78757e-09
-5.09194e-08
6.14905e-09
-4.3223e-08
2.40683e-08
-4.04461e-08
5.79021e-08
-4.02055e-08
6.73059e-08
5.73324e-08
-3.6642e-08
-3.42847e-08
5.27135e-08
1.96261e-08
-5.0026e-08
3.29098e-08
-6.24472e-08
2.24865e-08
-7.26511e-08
1.53472e-08
-7.60507e-08
6.18714e-09
-7.45858e-08
4.71076e-09
-6.23264e-08
1.37212e-08
-4.40089e-08
3.95348e-08
-2.80468e-08
5.13258e-08
4.79451e-08
-1.95594e-08
1.87063e-08
5.0327e-08
-1.69557e-08
2.59192e-09
4.82327e-08
-1.87651e-08
4.34563e-08
-4.03903e-08
3.58919e-08
-5.91452e-08
2.44757e-08
-7.08873e-08
1.63571e-08
-7.07115e-08
1.36516e-08
-5.3011e-08
2.48915e-08
-3.6464e-08
3.47392e-08
3.50172e-08
-2.35542e-08
8.31272e-08
3.67864e-08
-6.84621e-08
8.23178e-08
4.88914e-08
7.77585e-08
4.79774e-08
6.40407e-08
4.95637e-08
4.48924e-08
4.35894e-08
1.98264e-08
4.08752e-08
-2.93998e-09
3.62682e-08
-1.11573e-08
3.29369e-08
-8.28071e-09
3.31464e-08
3.27747e-08
-4.78314e-09
1.27302e-07
3.07926e-08
-1.20179e-07
1.32119e-07
4.42111e-08
1.26539e-07
5.37537e-08
1.19515e-07
5.60436e-08
1.1099e-07
5.19985e-08
9.42764e-08
5.74782e-08
6.95768e-08
6.25671e-08
4.06147e-08
6.11734e-08
2.47026e-08
4.83522e-08
3.9925e-08
1.75726e-08
1.43277e-07
2.89506e-08
-1.41316e-07
1.41779e-07
4.58289e-08
1.36606e-07
5.90389e-08
1.29656e-07
6.30559e-08
1.13822e-07
6.73228e-08
9.82925e-08
7.40435e-08
8.33825e-08
7.8412e-08
6.66946e-08
7.78023e-08
4.76072e-08
6.73968e-08
5.27978e-08
3.48124e-08
1.19661e-07
2.42249e-08
-1.14878e-07
1.16707e-07
4.86795e-08
1.10418e-07
6.50355e-08
1.01701e-07
7.17986e-08
8.95194e-08
7.95401e-08
7.22978e-08
9.12837e-08
5.79935e-08
9.2081e-08
4.7628e-08
8.81286e-08
3.85193e-08
7.64628e-08
6.23325e-08
2.97681e-08
1.62861e-08
2.52009e-08
-1.72772e-08
1.52624e-08
4.98501e-08
1.36312e-08
6.64558e-08
6.3225e-09
7.91335e-08
-3.32643e-09
8.85075e-08
-6.32725e-09
9.32857e-08
-4.21809e-09
9.00139e-08
-7.78111e-10
8.46652e-08
5.16742e-09
7.19785e-08
5.86866e-08
9.12272e-09
-9.75047e-08
3.53275e-08
8.74599e-08
-9.97428e-08
5.20934e-08
-9.90419e-08
6.56484e-08
-9.64803e-08
7.59365e-08
-8.65741e-08
7.9609e-08
-7.17743e-08
8.03017e-08
-5.99924e-08
7.87201e-08
-4.42036e-08
6.97858e-08
-2.94572e-08
5.72412e-08
4.5386e-08
-1.61567e-08
-1.4286e-07
4.37029e-08
1.35237e-07
-1.40762e-07
4.99061e-08
-1.31939e-07
5.67364e-08
-1.20999e-07
6.46699e-08
-1.06845e-07
6.54253e-08
-9.20291e-08
6.58041e-08
-7.71542e-08
6.38729e-08
-6.23382e-08
5.49696e-08
-4.8941e-08
4.38437e-08
3.22035e-08
-3.57585e-08
-1.39739e-07
4.85499e-08
1.36082e-07
-1.41441e-07
5.15183e-08
-1.35645e-07
5.09163e-08
-1.20909e-07
4.99274e-08
-1.06439e-07
5.09543e-08
-9.25701e-08
5.19355e-08
-7.79947e-08
4.92976e-08
-6.5777e-08
4.27519e-08
-5.59445e-08
3.4011e-08
2.43944e-08
-4.81355e-08
-1.18407e-07
5.87683e-08
1.08176e-07
-1.22473e-07
5.58158e-08
-1.21306e-07
4.97486e-08
-1.12751e-07
4.13722e-08
-1.00638e-07
3.88412e-08
-8.71527e-08
3.84501e-08
-7.57148e-08
3.78592e-08
-6.70041e-08
3.40406e-08
-6.06799e-08
2.76865e-08
2.04866e-08
-5.67722e-08
-4.5041e-08
7.01624e-08
3.36462e-08
-5.70241e-08
6.77981e-08
-7.06752e-08
6.3399e-08
-7.88409e-08
4.95374e-08
-7.79098e-08
3.79099e-08
-6.87995e-08
2.93515e-08
-6.13425e-08
3.03146e-08
-5.73118e-08
3.00103e-08
-5.48984e-08
2.52726e-08
2.03764e-08
-5.47886e-08
1.18987e-08
5.90042e-08
-5.69726e-09
1.6265e-08
5.83057e-08
1.43667e-08
6.32331e-08
1.51398e-09
6.23893e-08
-1.13199e-08
5.07433e-08
-1.90534e-08
3.71209e-08
-2.12487e-08
3.2482e-08
-2.38157e-08
3.25167e-08
-3.09878e-08
3.22598e-08
2.89476e-08
-3.9559e-08
4.2137e-08
5.19019e-08
-3.41678e-08
4.77838e-08
5.72231e-08
5.5752e-08
5.44192e-08
5.86014e-08
5.8268e-08
5.46992e-08
5.4644e-08
4.31741e-08
4.86383e-08
3.31905e-08
4.25029e-08
2.69135e-08
3.87258e-08
2.22659e-08
3.68394e-08
3.58628e-08
1.52775e-08
1.1624e-07
5.28656e-08
-1.13948e-07
1.14653e-07
6.22174e-08
1.07736e-07
6.63343e-08
1.0015e-07
6.72725e-08
9.21473e-08
6.25514e-08
8.22187e-08
5.85538e-08
6.98819e-08
5.48135e-08
5.6886e-08
5.17175e-08
4.70756e-08
4.65393e-08
4.23781e-08
4.04868e-08
1.95336e-07
2.12368e-08
-1.63913e-07
1.76478e-07
6.76848e-08
1.72937e-07
7.75061e-08
1.6401e-07
7.99639e-08
1.50616e-07
7.5876e-08
1.36993e-07
7.21445e-08
1.18463e-07
7.32919e-08
9.40733e-08
7.55566e-08
6.97348e-08
7.07292e-08
5.69366e-08
5.54047e-08
1.97077e-07
-2.88447e-09
-1.73099e-07
1.78122e-07
7.04769e-08
1.71225e-07
8.48681e-08
1.6792e-07
8.76304e-08
1.65463e-07
7.82669e-08
1.6246e-07
7.50955e-08
1.57499e-07
7.81875e-08
1.41417e-07
8.96924e-08
1.19786e-07
9.2055e-08
8.06407e-08
9.67606e-08
1.09652e-07
-8.23957e-09
-1.14662e-07
1.27806e-07
4.58649e-08
1.51067e-07
6.82197e-08
1.66746e-07
7.2612e-08
1.73717e-07
7.12346e-08
1.74406e-07
7.43465e-08
1.66853e-07
8.56791e-08
1.55789e-07
9.96524e-08
1.48559e-07
9.90195e-08
9.0858e-08
1.38066e-07
5.99042e-08
-5.01788e-09
-5.94329e-08
7.61865e-08
2.8537e-08
1.11657e-07
4.58717e-08
1.61365e-07
2.7985e-08
1.7546e-07
5.52206e-08
1.59227e-07
9.05392e-08
1.40277e-07
1.04606e-07
1.38061e-07
1.01862e-07
1.42742e-07
9.46302e-08
8.40239e-08
1.50826e-07
-5.27041e-09
-1.87674e-08
1.90201e-08
2.27171e-08
5.49565e-10
5.70888e-08
1.1556e-08
6.70177e-08
2.16696e-08
6.76142e-08
4.94236e-08
6.68143e-08
8.09807e-08
7.40815e-08
8.34408e-08
1.01163e-07
7.47681e-08
1.37819e-07
5.76613e-08
6.74567e-08
1.54071e-07
-1.17292e-07
-2.82681e-08
1.26793e-07
-1.03458e-07
-1.32857e-08
-9.94972e-08
7.65201e-09
-1.03451e-07
2.57396e-08
-9.35346e-08
3.96006e-08
-5.91231e-08
4.69416e-08
-1.88154e-08
4.41843e-08
1.17773e-08
3.44113e-08
5.69651e-08
5.84165e-09
5.07646e-09
1.07412e-07
-2.19376e-07
-2.82305e-08
2.16887e-07
-2.31764e-07
-1.27087e-08
-2.13617e-07
-3.95317e-09
-1.81305e-07
-6.47944e-09
-1.30449e-07
-1.08931e-08
-7.96679e-08
-1.11242e-08
-2.73196e-08
-1.43945e-08
1.77785e-08
-1.23491e-08
5.01241e-08
-2.42263e-08
-3.33505e-08
8.97272e-08
-2.84983e-07
-3.26052e-08
2.54994e-07
-2.75732e-07
-2.23358e-08
-2.59885e-07
-2.00622e-08
-2.40201e-07
-2.63026e-08
-2.14117e-07
-3.74701e-08
-1.80542e-07
-4.46955e-08
-1.48699e-07
-4.62349e-08
-1.17261e-07
-4.37847e-08
-9.55425e-08
-4.5808e-08
-4.64082e-08
-8.15328e-08
-2.87361e-07
-2.41055e-08
2.67209e-07
-2.8462e-07
-2.52983e-08
-2.76587e-07
-2.83068e-08
-2.65658e-07
-3.73875e-08
-2.47993e-07
-5.51975e-08
-2.21713e-07
-7.09728e-08
-1.92255e-07
-7.56894e-08
-1.61685e-07
-7.43515e-08
-1.37492e-07
-6.94333e-08
-6.97805e-08
-1.14862e-07
-2.00961e-07
-1.6609e-08
1.93464e-07
-2.07998e-07
-1.65233e-08
-2.12069e-07
-2.11087e-08
-2.11137e-07
-3.5299e-08
-2.00307e-07
-6.63463e-08
-1.76156e-07
-9.47018e-08
-1.43745e-07
-1.0787e-07
-1.0446e-07
-1.11676e-07
-7.63436e-08
-9.47914e-08
-9.90971e-08
-4.61266e-08
-1.98422e-07
-1.22564e-08
1.95196e-07
-1.95693e-07
-1.7512e-08
-1.80227e-07
-3.14573e-08
-1.4953e-07
-6.10942e-08
-1.20692e-07
-9.13447e-08
-9.88384e-08
-1.21634e-07
-7.09965e-08
-1.36767e-07
-3.60789e-08
-1.45434e-07
6.54382e-09
-1.38223e-07
-1.37589e-07
4.42263e-08
-1.66709e-07
-9.92197e-09
1.64675e-07
-1.3103e-07
-4.94211e-08
-8.51073e-08
-7.08958e-08
-3.1079e-08
-1.21701e-07
1.81781e-08
-1.46086e-07
5.29912e-08
-1.59601e-07
7.85443e-08
-1.64035e-07
1.03127e-07
-1.7166e-07
1.34767e-07
-1.71133e-07
-1.66633e-07
1.62564e-07
1.45187e-08
-1.01022e-08
-1.1793e-08
3.51528e-08
-6.10456e-08
7.19051e-08
-9.30704e-08
1.15482e-07
-1.62477e-07
1.53125e-07
-1.82411e-07
1.71794e-07
-1.76968e-07
1.86261e-07
-1.73481e-07
1.98237e-07
-1.81347e-07
2.11222e-07
-1.84284e-07
-1.79871e-07
2.24382e-07
1.36138e-07
-5.22576e-08
-9.13435e-08
1.55665e-07
-7.76035e-08
1.84937e-07
-1.21551e-07
1.92213e-07
-1.66646e-07
1.93337e-07
-1.82223e-07
1.96855e-07
-1.81834e-07
2.07055e-07
-1.84204e-07
2.25303e-07
-1.93713e-07
2.40227e-07
-1.98206e-07
-1.90599e-07
2.50922e-07
1.38173e-07
-1.04297e-07
-9.25595e-08
1.73136e-07
-1.15978e-07
1.94486e-07
-1.43683e-07
1.91676e-07
-1.66608e-07
1.82142e-07
-1.72472e-07
1.86818e-07
-1.86942e-07
2.06413e-07
-2.04321e-07
2.28405e-07
-2.16871e-07
2.41139e-07
-2.10946e-07
-1.99526e-07
2.5005e-07
9.05763e-08
-1.22265e-07
-7.27041e-08
1.13968e-07
-1.39533e-07
1.0938e-07
-1.3978e-07
8.93206e-08
-1.48182e-07
8.44682e-08
-1.68411e-07
1.06119e-07
-2.08535e-07
1.36893e-07
-2.37953e-07
1.6155e-07
-2.41526e-07
1.84258e-07
-2.33651e-07
-2.19441e-07
2.04174e-07
3.63032e-08
-1.26256e-07
-3.34447e-08
2.16453e-08
-1.26957e-07
1.06418e-08
-1.2929e-07
4.84614e-09
-1.32342e-07
2.52058e-08
-1.89567e-07
6.28547e-08
-2.48183e-07
9.16482e-08
-2.66743e-07
1.16118e-07
-2.65992e-07
1.40956e-07
-2.58486e-07
-2.44082e-07
1.65615e-07
-1.86511e-08
-1.19256e-07
1.1937e-08
-3.14467e-08
-1.13722e-07
-4.58578e-08
-9.21474e-08
-3.924e-08
-1.41066e-07
-1.2944e-09
-2.32822e-07
2.792e-08
-2.7854e-07
4.41933e-08
-2.83013e-07
5.75995e-08
-2.79394e-07
7.53036e-08
-2.76187e-07
-2.64601e-07
9.65236e-08
-8.48053e-08
-5.04482e-08
6.12103e-08
-1.01744e-07
-5.70436e-08
-1.21039e-07
-9.69737e-08
-8.53881e-08
-1.91632e-07
-6.78353e-08
-2.54606e-07
-7.51872e-08
-2.71183e-07
-8.52738e-08
-2.72923e-07
-8.42647e-08
-2.804e-07
-7.75142e-08
-2.82942e-07
-2.31737e-07
-6.69495e-08
-1.38789e-07
-3.98563e-08
1.19573e-07
-1.17677e-07
-8.40343e-08
-1.46944e-07
-1.63861e-07
-1.19198e-07
-2.19392e-07
-1.35047e-07
-2.38752e-07
-1.6283e-07
-2.43401e-07
-1.8217e-07
-2.53579e-07
-1.9542e-07
-2.67144e-07
-2.06052e-07
-2.66752e-07
-2.00303e-07
-1.53815e-07
-1.65804e-07
-1.11833e-07
1.67681e-07
-2.02355e-07
-1.53307e-07
-1.75161e-07
-1.91091e-07
-1.85149e-07
-2.09445e-07
-2.1251e-07
-2.11419e-07
-2.39065e-07
-2.1684e-07
-2.63329e-07
-2.2836e-07
-2.87399e-07
-2.43331e-07
-2.97708e-07
-2.44898e-07
-1.90557e-07
-2.17539e-07
-2.63703e-07
-1.27191e-07
2.78801e-07
-2.67703e-07
-1.49347e-07
-2.86435e-07
-1.72402e-07
-3.11403e-07
-1.84513e-07
-3.32918e-07
-1.89888e-07
-3.48093e-07
-1.94868e-07
-3.73539e-07
-2.03648e-07
-4.01413e-07
-2.19272e-07
-4.2279e-07
-2.24184e-07
-1.9305e-07
-3.12734e-07
-3.95824e-07
-7.4089e-08
3.4854e-07
-4.46853e-07
-1.24332e-07
-4.54657e-07
-1.64638e-07
-4.56497e-07
-1.82709e-07
-4.532e-07
-1.88215e-07
-4.5972e-07
-1.8855e-07
-4.71037e-07
-1.92795e-07
-4.92915e-07
-2.0377e-07
-5.08151e-07
-2.10172e-07
-2.01e-07
-4.38214e-07
-5.81795e-07
-4.36198e-08
4.38655e-07
-5.9475e-07
-1.44847e-07
-5.75502e-07
-1.83921e-07
-5.62311e-07
-1.96012e-07
-5.48048e-07
-1.99137e-07
-5.40378e-07
-1.96422e-07
-5.38121e-07
-1.95541e-07
-5.48254e-07
-2.02404e-07
-5.51868e-07
-2.06431e-07
-2.09624e-07
-5.14963e-07
-6.80772e-07
-5.61076e-08
5.18829e-07
-6.68364e-07
-1.57455e-07
-6.59369e-07
-1.93029e-07
-6.46635e-07
-2.08945e-07
-6.29254e-07
-2.16732e-07
-6.06768e-07
-2.16381e-07
-5.89403e-07
-2.13488e-07
-5.82385e-07
-2.12763e-07
-5.72847e-07
-2.1598e-07
-2.20392e-07
-5.60973e-07
-7.12745e-07
-5.75672e-08
5.04783e-07
-7.2137e-07
-1.49044e-07
-7.21686e-07
-1.92913e-07
-7.18388e-07
-2.12464e-07
-7.10906e-07
-2.24515e-07
-6.94928e-07
-2.32653e-07
-6.71601e-07
-2.37007e-07
-6.43857e-07
-2.40537e-07
-6.17134e-07
-2.4273e-07
-2.44098e-07
-5.93446e-07
-6.93495e-07
-3.97781e-08
5.11507e-07
-7.13556e-07
-1.29286e-07
-7.26295e-07
-1.80394e-07
-7.30714e-07
-2.08339e-07
-7.30419e-07
-2.25168e-07
-7.27499e-07
-2.35784e-07
-7.23654e-07
-2.40944e-07
-7.07495e-07
-2.56747e-07
-6.78263e-07
-2.72041e-07
-2.7944e-07
-6.42946e-07
-5.58155e-07
-2.61336e-08
4.18404e-07
-5.83399e-07
-1.04452e-07
-6.16278e-07
-1.46241e-07
-6.52932e-07
-1.72136e-07
-6.73149e-07
-2.05169e-07
-6.86037e-07
-2.22929e-07
-7.0383e-07
-2.23188e-07
-7.12757e-07
-2.47911e-07
-6.98468e-07
-2.86363e-07
-3.08633e-07
-6.69368e-07
-1.09672e-07
-3.06397e-08
1.11109e-07
-1.33064e-07
-4.87138e-08
-1.80735e-07
-5.67291e-08
-2.70249e-07
-6.03346e-08
-3.67112e-07
-9.4087e-08
-4.12531e-07
-1.63288e-07
-4.68204e-07
-1.51826e-07
-5.62815e-07
-1.33612e-07
-6.14935e-07
-2.19179e-07
-3.04397e-07
-6.20175e-07
1.28272e-07
-5.22102e-08
-1.55715e-07
1.40118e-07
-9.88559e-08
1.56203e-07
-1.10326e-07
1.44217e-07
-8.5915e-08
1.45949e-07
-4.71115e-08
3.64788e-08
-4.34037e-08
-4.14908e-08
-3.47329e-08
-1.25057e-07
7.309e-09
-2.47403e-07
-2.19206e-08
-1.36883e-07
-3.7323e-07
2.63911e-07
-6.29852e-08
-2.84068e-07
2.46765e-07
-7.60102e-08
2.28223e-07
-8.76926e-08
2.20923e-07
-7.73308e-08
2.0257e-07
-2.75829e-08
7.49649e-08
5.56954e-09
6.31453e-09
2.17304e-08
-2.57004e-08
5.17119e-08
-4.39523e-08
-7.04053e-09
-1.1197e-07
-7.37979e-08
1.3434e-07
-7.85152e-08
-1.16764e-07
1.61378e-07
-1.02019e-07
1.49063e-07
-7.40153e-08
7.93684e-08
-6.26802e-09
2.82938e-08
1.62064e-08
-3.41802e-08
5.87262e-08
-4.27942e-08
6.055e-08
-4.79884e-08
5.08043e-08
-1.00749e-08
-5.27359e-08
-2.87836e-07
8.57918e-10
-9.52138e-08
-1.17554e-08
5.26035e-08
-1.92266e-07
-2.00591e-08
-2.43094e-07
-1.14764e-08
-1.27639e-07
1.61581e-08
-1.19923e-07
7.07275e-09
-7.55286e-08
7.56602e-09
-4.46261e-08
2.35836e-08
-6.49341e-09
5.74577e-09
5.31967e-08
-2.20316e-07
-3.37756e-07
6.88177e-08
-1.08873e-07
-3.1779e-09
9.89035e-08
-1.18988e-07
-1.13359e-08
-1.19673e-07
-1.22452e-08
-9.44827e-08
-9.88565e-09
-7.9445e-08
-4.78102e-09
-3.37136e-08
-3.95664e-08
-1.92394e-08
-2.82171e-08
7.27263e-08
-1.14573e-07
8.70976e-08
-2.37073e-07
-3.38597e-07
8.62246e-08
-8.11859e-08
-6.25346e-08
1.07932e-07
-5.73169e-08
-7.18161e-08
-4.04361e-08
-6.22444e-08
-7.15765e-09
-1.11573e-07
1.11381e-08
-4.07781e-08
3.14564e-08
-9.24785e-08
6.9737e-08
-7.56394e-08
7.53219e-08
-1.20461e-07
8.22012e-08
-2.42053e-07
-3.34479e-07
7.56975e-08
-5.15078e-08
-1.17379e-07
1.06352e-07
-9.08117e-09
-1.14243e-07
2.07954e-08
-1.10669e-07
2.61818e-08
-1.17033e-07
3.96997e-08
-8.3871e-08
4.55497e-08
-1.02813e-07
6.65368e-08
-9.83096e-08
6.11552e-08
-1.0235e-07
7.27201e-08
-2.36891e-07
-3.19429e-07
7.21573e-08
1.71251e-08
-1.58871e-07
2.43662e-08
4.68928e-08
-1.44011e-07
6.9996e-08
-1.33772e-07
7.91062e-08
-1.26157e-07
1.091e-07
-1.13938e-07
1.03727e-07
-1.00658e-07
9.99934e-08
-8.98315e-08
1.05747e-07
-1.10054e-07
1.2724e-07
-2.54675e-07
-3.03108e-07
1.08226e-07
8.23547e-08
-1.91209e-07
-5.00177e-08
1.06475e-07
-1.68132e-07
1.29383e-07
-1.56695e-07
1.60644e-07
-1.57492e-07
1.99467e-07
-1.52887e-07
1.95256e-07
-1.24225e-07
2.2937e-07
-1.25858e-07
2.6802e-07
-1.50993e-07
2.77056e-07
-2.46e-07
-2.92009e-07
2.15781e-07
1.79414e-07
-2.06658e-07
-1.63966e-07
1.87717e-07
-1.77674e-07
1.9391e-07
-1.51404e-07
2.18788e-07
-1.69465e-07
2.59116e-07
-1.93295e-07
2.67098e-07
-1.92046e-07
3.26019e-07
-1.87502e-07
3.78156e-07
-2.05305e-07
4.1213e-07
-2.5081e-07
-2.74454e-07
3.89096e-07
2.07258e-07
-2.08934e-07
-2.0499e-07
2.00873e-07
-1.77197e-07
2.14553e-07
-1.63041e-07
2.41399e-07
-1.78323e-07
2.82633e-07
-2.28886e-07
3.54269e-07
-2.63678e-07
3.95083e-07
-2.8327e-07
4.55012e-07
-2.73036e-07
4.76926e-07
-2.67857e-07
-2.70854e-07
4.69734e-07
2.01636e-07
-2.04092e-07
-2.24163e-07
2.01672e-07
-1.78608e-07
2.15736e-07
-1.77263e-07
2.57671e-07
-2.12036e-07
3.14586e-07
-2.80241e-07
3.64743e-07
-3.13834e-07
4.01996e-07
-3.20612e-07
4.43325e-07
-3.14584e-07
4.70272e-07
-2.95045e-07
-2.71805e-07
4.70752e-07
1.96353e-07
-2.02559e-07
-2.19948e-07
2.24084e-07
-1.84705e-07
2.44497e-07
-2.10641e-07
2.85609e-07
-2.53921e-07
3.16417e-07
-3.11049e-07
3.42216e-07
-3.3963e-07
3.70633e-07
-3.49029e-07
3.98151e-07
-3.42192e-07
4.01295e-07
-2.96702e-07
-1.54342e-07
2.96243e-07
2.18668e-07
-1.43904e-07
-1.9439e-07
2.66083e-07
-2.14505e-07
2.97189e-07
-2.41803e-07
3.15827e-07
-2.72559e-07
3.30037e-07
-3.25257e-07
3.5174e-07
-3.61331e-07
3.71984e-07
-3.6927e-07
3.15404e-07
-3.04159e-07
1.96139e-07
-1.61658e-07
-1.23562e-07
1.63195e-07
2.57267e-07
-1.00675e-07
-1.57688e-07
3.52694e-07
-1.70363e-07
3.65169e-07
-2.51109e-07
3.6845e-07
-2.75891e-07
3.72181e-07
-3.28989e-07
3.80809e-07
-3.69956e-07
3.79391e-07
-3.67853e-07
1.79865e-07
-2.10925e-07
1.60592e-07
-1.41328e-07
-1.34171e-07
1.70341e-07
2.36913e-07
-7.8546e-08
-2.59057e-07
4.01186e-07
-1.20611e-07
4.49353e-07
-2.22065e-07
4.33929e-07
-2.60622e-07
4.18961e-07
-3.14451e-07
4.04785e-07
-3.5578e-07
2.9754e-07
-3.35299e-07
1.59891e-07
-1.59593e-07
1.60622e-07
-1.40925e-07
-1.59515e-07
1.87023e-07
2.65777e-07
-5.75397e-08
-2.86775e-07
4.19437e-07
-1.02465e-07
4.93669e-07
-2.00174e-07
4.71066e-07
-2.38857e-07
4.47417e-07
-2.91977e-07
4.16215e-07
-3.25043e-07
1.79767e-07
-2.31758e-07
1.56507e-07
-1.45445e-07
1.73052e-07
-1.57692e-07
-2.8832e-07
3.02951e-07
2.94762e-07
-7.97271e-08
-2.72537e-07
5.24156e-07
-1.38401e-07
4.97677e-07
-1.72496e-07
4.74014e-07
-2.15479e-07
4.5168e-07
-2.71031e-07
3.60005e-07
-2.34557e-07
1.87104e-07
-1.49029e-07
1.75773e-07
-1.3047e-07
2.91213e-07
-2.75242e-07
-5.32294e-07
5.12616e-07
5.04781e-07
-1.05468e-07
-3.60339e-07
4.91607e-07
-1.25222e-07
4.70399e-07
-1.51278e-07
4.66199e-07
-2.11296e-07
4.32254e-07
-2.37372e-07
2.24958e-07
-1.64969e-07
2.13481e-07
-1.21815e-07
2.6264e-07
-1.64434e-07
4.71432e-07
-4.8604e-07
-5.95981e-07
5.1847e-07
4.77111e-07
-9.54924e-08
-4.87082e-07
4.58604e-07
-1.06706e-07
4.50528e-07
-1.43192e-07
4.36887e-07
-1.97647e-07
3.18613e-07
-1.91685e-07
1.71778e-07
-9.91887e-08
1.56905e-07
-9.74337e-08
3.92778e-07
-3.1085e-07
4.66458e-07
-5.66791e-07
-6.09782e-07
4.60943e-07
3.99163e-07
-1.05698e-07
-3.88972e-07
4.10683e-07
-1.18218e-07
4.19461e-07
-1.51961e-07
4.00635e-07
-1.78811e-07
2.17225e-07
-1.11033e-07
1.88634e-07
-8.19978e-08
2.10987e-07
-1.25862e-07
4.6305e-07
-4.42709e-07
4.78517e-07
-5.9405e-07
-6.01737e-07
4.54426e-07
3.76828e-07
-1.21518e-07
-3.40508e-07
3.99933e-07
-1.41337e-07
4.04544e-07
-1.56563e-07
2.59495e-07
-1.30867e-07
1.72125e-07
-7.67743e-08
1.59812e-07
-8.10843e-08
3.64286e-07
-2.03936e-07
5.12321e-07
-5.37907e-07
5.03317e-07
-6.00964e-07
-5.88172e-07
4.74798e-07
3.92837e-07
-1.6088e-07
-3.31629e-07
4.0543e-07
-1.41054e-07
3.39822e-07
-9.09739e-08
1.86782e-07
-6.28724e-08
1.61272e-07
-6.16431e-08
2.03751e-07
-1.34962e-07
5.05349e-07
-4.30057e-07
5.32626e-07
-5.78895e-07
5.03395e-07
-5.89056e-07
-5.19119e-07
4.18842e-07
2.81176e-07
-1.2211e-07
-2.76285e-07
1.80855e-07
-7.98732e-09
9.82909e-08
-4.50949e-08
1.00264e-07
-5.59006e-08
1.33779e-07
-9.91377e-08
3.62107e-07
-3.57689e-07
5.06541e-07
-5.73881e-07
5.16093e-07
-6.01746e-07
4.61358e-07
-5.49193e-07
-3.60288e-07
2.40962e-07
1.28319e-08
-1.08554e-08
-1.14378e-07
-3.47073e-09
6.61198e-09
1.5704e-08
-8.4579e-08
4.63411e-08
-1.02292e-07
1.95196e-07
-2.86915e-07
4.00945e-07
-5.7283e-07
4.53664e-07
-6.34041e-07
4.27803e-07
-5.88789e-07
2.57187e-07
-3.89892e-07
-2.06347e-07
8.28586e-08
-5.81851e-08
2.72585e-08
1.94382e-08
-2.52317e-08
-6.13897e-08
1.21115e-08
-1.38685e-07
8.51707e-08
-1.71819e-07
2.58637e-07
-4.86126e-07
3.46597e-07
-6.59521e-07
3.32035e-07
-6.20229e-07
2.05173e-07
-4.44095e-07
4.58393e-08
-2.29878e-07
-1.12293e-07
1.84632e-08
8.85944e-09
1.27385e-08
4.97423e-09
4.34981e-08
-1.08022e-07
1.57887e-08
-1.22597e-07
8.5744e-08
-2.11452e-07
1.89928e-07
-5.80109e-07
2.10646e-07
-6.78416e-07
1.38846e-07
-5.00998e-07
2.63572e-08
-2.98449e-07
-3.02735e-09
-1.82226e-07
-5.47059e-08
-1.90833e-08
7.30501e-08
-6.39954e-08
7.49599e-09
4.52184e-08
-8.02212e-08
1.68298e-08
-7.99959e-08
4.13568e-08
-2.36127e-07
9.75342e-08
-6.30334e-07
9.42869e-08
-6.73266e-07
2.49714e-08
-3.95821e-07
-3.98554e-08
-2.22075e-07
-2.16834e-08
-1.61914e-07
-3.56278e-08
-4.0784e-08
-2.20356e-08
-7.77926e-08
3.58381e-08
-3.02157e-08
-7.06516e-08
-3.07737e-08
-6.89462e-08
2.42166e-08
-2.91266e-07
4.80592e-08
-6.61277e-07
5.40246e-08
-6.77328e-07
1.54099e-08
-3.58382e-07
-2.74307e-08
-1.72105e-07
-2.46544e-08
-1.39555e-07
-2.21226e-08
-3.81821e-08
-1.24752e-08
-8.48243e-08
1.95061e-08
-1.11886e-09
-8.03834e-08
-1.0928e-08
-6.16172e-08
-5.75397e-09
-2.96633e-07
-3.23859e-09
-6.65326e-07
-1.65204e-09
-6.74046e-07
-1.81427e-08
-3.45286e-07
-6.38805e-08
-1.19067e-07
-3.82696e-08
-1.20837e-07
-1.3629e-08
-4.67856e-08
-3.58657e-08
-9.11632e-08
4.22067e-08
-4.1996e-08
-7.43275e-08
-1.80087e-08
-9.67591e-08
-1.00007e-08
-3.04617e-07
-1.62575e-08
-6.58455e-07
-2.61016e-08
-6.59032e-07
-3.73875e-08
-3.37638e-07
-1.37992e-07
-4.30827e-08
-1.61989e-07
-5.98506e-08
-3.45601e-08
-6.29097e-08
-2.82708e-08
-9.18418e-08
2.89515e-08
-3.19023e-08
-7.15564e-08
-8.26236e-09
-1.20059e-07
-1.4362e-08
-2.9958e-07
-2.43616e-08
-6.49692e-07
-2.68903e-08
-6.51936e-07
-1.6595e-08
-3.51328e-07
-2.24058e-09
-4.90634e-08
-2.18359e-08
-2.84155e-08
-1.94425e-08
-2.65994e-08
-3.03078e-09
-9.26302e-08
4.0449e-09
-5.54753e-10
-7.39214e-08
-5.3977e-09
-1.09266e-07
5.4468e-10
-3.05547e-07
2.30536e-09
-6.53242e-07
-1.11893e-09
-6.5009e-07
1.46529e-08
-3.69174e-07
7.62734e-08
-1.02703e-07
8.05942e-08
-2.6275e-08
7.42724e-09
5.28467e-08
4.76809e-09
-8.63497e-08
-1.147e-08
7.67421e-09
-8.00864e-08
-1.46863e-08
-8.3909e-08
8.90308e-09
-3.29159e-07
9.3312e-09
-6.56011e-07
7.19181e-09
-6.4969e-07
8.23679e-09
-3.69245e-07
-8.98812e-09
-7.96515e-08
-2.12002e-08
-8.63898e-09
2.7389e-08
-5.91683e-08
1.85146e-08
-8.35124e-08
-2.13949e-08
2.21694e-08
-8.38634e-08
-3.05388e-09
-5.91026e-08
1.10367e-08
-3.43257e-07
-1.19426e-09
-6.43975e-07
-4.95351e-09
-6.48438e-07
-8.68136e-09
-3.63678e-07
-4.32637e-08
-4.25962e-08
-5.55781e-08
-5.90007e-09
9.98826e-09
-4.78705e-08
6.05853e-08
-5.85471e-08
-8.56728e-08
1.99957e-08
-4.17496e-08
-2.48292e-08
-1.01927e-08
-9.58212e-09
-3.56555e-07
-1.14931e-08
-6.42739e-07
-2.09604e-08
-6.38552e-07
-1.74479e-08
-3.64146e-07
-4.45282e-08
-1.42397e-08
-9.00983e-09
-4.74884e-08
-1.26078e-08
7.58568e-09
9.82255e-08
-9.27539e-09
-1.37097e-07
4.22347e-08
4.38845e-09
-8.32463e-09
3.39318e-08
1.53572e-08
-3.79421e-07
-9.15925e-11
-6.27801e-07
-1.1242e-08
-6.27212e-07
1.11924e-09
-3.76506e-07
-1.52924e-08
3.68103e-09
-2.95395e-08
-3.50386e-08
1.01223e-09
-5.57472e-08
-1.62214e-08
-8.74206e-09
6.15006e-09
-1.35742e-08
9.35176e-12
-4.93832e-09
6.83672e-09
2.8378e-10
-3.85695e-07
-2.84499e-09
-6.25712e-07
-3.48339e-09
-6.27847e-07
7.60679e-09
-3.87681e-07
2.96766e-09
1.0107e-08
-3.0564e-08
2.97352e-09
3.94319e-09
-2.93619e-08
-1.48736e-08
-4.81045e-10
0
-7.20921e-09
8.94816e-10
1.93976e-08
-2.56994e-09
3.00958e-08
-3.87774e-07
1.42045e-09
-5.98271e-07
-3.47006e-08
-5.92878e-07
-1.28409e-08
-4.02602e-07
6.17863e-09
-2.07421e-09
-3.98344e-09
4.87602e-10
0
-2.70357e-10
1.28967e-09
-1.08428e-09
-4.54992e-10
0
0
1.36402e-09
-6.32216e-09
4.53006e-08
-4.31264e-07
5.69502e-09
-5.59864e-07
-2.94455e-08
-5.58808e-07
-1.02183e-08
-4.23181e-07
8.55088e-12
-7.30662e-09
1.18901e-09
1.1016e-10
1.49516e-09
1.65917e-09
-2.56471e-11
9.4952e-10
-1.41768e-10
0
1.45394e-09
2.22622e-08
-3.22257e-08
3.53487e-08
-4.45225e-07
-6.48245e-09
-5.18695e-07
-4.18739e-08
-5.24069e-07
-2.21264e-08
-4.43503e-07
-1.2528e-10
-3.26622e-08
0
1.89418e-12
6.20842e-12
4.66476e-10
0
9.19089e-10
-6.01408e-10
1.88442e-09
2.86746e-10
3.44125e-08
-6.49223e-08
3.88487e-08
-4.49429e-07
6.69204e-09
-4.8689e-07
-3.21444e-08
-4.85576e-07
-3.14395e-08
-4.44058e-07
-1.57589e-11
-6.40998e-08
2.80265e-14
-4.37818e-12
-7.07347e-13
1.05286e-11
0
0
2.78385e-10
3.66396e-10
1.89932e-11
4.79461e-08
-1.10355e-07
3.25598e-08
-4.32623e-07
-2.77411e-09
-4.51754e-07
-3.8104e-08
-4.50432e-07
-4.74911e-08
-4.33073e-07
-3.38031e-11
-1.10425e-07
-4.84911e-12
-2.33915e-11
-2.56863e-12
-1.59091e-12
0
2.91197e-13
7.20367e-12
7.06591e-10
-6.88667e-10
7.90288e-08
-1.90585e-07
5.15691e-08
-4.04789e-07
4.83644e-09
-4.05083e-07
-4.27693e-08
-4.02891e-07
-7.36658e-08
-4.02088e-07
-8.74075e-10
-1.85756e-07
-8.58066e-12
-8.82575e-10
-5.03766e-13
-4.99841e-13
9.79493e-12
-9.49607e-12
1.35143e-15
1.59316e-08
-1.661e-08
8.07063e-08
-2.53502e-07
3.18392e-08
-3.56002e-07
-7.9486e-09
-3.65317e-07
-4.47644e-08
-3.66094e-07
-8.75826e-08
-3.59356e-07
-1.65963e-08
-2.56535e-07
-2.19034e-11
-1.74554e-08
-2.17753e-11
-1.01039e-13
1.0965e-09
-1.106e-09
-2.30597e-16
6.55926e-08
-8.45036e-08
1.05951e-07
-2.92455e-07
6.24664e-08
-3.12573e-07
7.2897e-09
-3.10143e-07
-4.96484e-08
-3.09161e-07
-9.89875e-08
-3.10063e-07
-6.33647e-08
-2.92149e-07
-1.19615e-09
-8.3086e-08
-1.2141e-09
-3.815e-12
3.21789e-08
-3.32849e-08
-1.36497e-17
1.38452e-07
-1.90814e-07
9.8005e-08
-2.52018e-07
4.30915e-08
-2.57663e-07
-3.77774e-09