/*--------------------------------*- C++ -*----------------------------------*\
  =========                 |
  \\      /  F ield         | OpenFOAM: The Open Source CFD Toolbox
   \\    /   O peration     | Website:  https://openfoam.org
    \\  /    A nd           | Version:  8
     \\/     M anipulation  |
\*---------------------------------------------------------------------------*/
FoamFile
{
    version     2.0;
    format      ascii;
    class       volScalarField;
    location    "7.9";
    object      p;
}
// * * * * * * * * * * * * * * * * * * * * * * * * * * * * * * * * * * * * * //

dimensions      [1 -1 -2 0 0 0 0];

internalField   nonuniform List<scalar> 
9150
(
-206.296
-207.551
-208.024
-208.486
-208.71
-208.707
-208.489
-208.035
-207.556
-206.3
-226.349
-227.028
-227.407
-227.719
-227.898
-227.909
-227.735
-227.413
-227.033
-226.353
-246.283
-246.668
-246.914
-247.14
-247.248
-247.251
-247.146
-246.918
-246.673
-246.287
-266.044
-266.284
-266.452
-266.627
-266.705
-266.711
-266.634
-266.456
-266.287
-266.047
-285.665
-285.909
-286.044
-286.195
-286.252
-286.249
-286.199
-286.048
-285.913
-285.669
-119.436
-120.746
-120.791
-120.539
-120.443
-120.43
-120.503
-120.742
-120.707
-119.414
-135.985
-136.542
-136.538
-136.722
-136.598
-136.596
-136.741
-136.547
-136.554
-135.984
-152.357
-153.164
-153.222
-153.703
-153.686
-153.692
-153.721
-153.226
-153.192
-152.382
-169.123
-170.485
-170.632
-171.417
-171.48
-171.492
-171.436
-170.642
-170.509
-169.142
-185.42
-188.31
-188.824
-189.711
-189.976
-189.963
-189.68
-188.823
-188.298
-185.409
-27.5099
-28.2069
-30.2874
-30.8707
-31.2803
-31.2829
-30.9088
-30.3559
-28.3038
-27.8189
-47.3709
-47.4491
-48.6748
-48.8244
-49.2804
-49.2681
-48.8528
-48.7286
-47.522
-47.4746
-67.3709
-66.8971
-68.7057
-67.7152
-68.7001
-68.7051
-67.7161
-68.739
-66.9279
-67.4206
-90.2653
-86.6745
-89.3633
-86.9457
-87.6283
-87.6633
-86.9062
-89.4043
-86.6873
-90.2881
-119.712
-106.022
-107.487
-105.04
-104.669
-104.701
-105.029
-107.541
-106.018
-119.695
1540.6
1540.55
1540.45
1540.44
1540.41
1540.35
1540.37
1540.39
1540.39
1540.41
1521.51
1521.03
1520.94
1520.94
1520.83
1520.76
1520.79
1520.77
1520.79
1520.76
1501.73
1501.47
1501.82
1501.65
1501.42
1501.29
1501.2
1501.27
1501.21
1501.17
1481.79
1481.73
1481.72
1481.72
1481.64
1481.62
1481.61
1481.57
1481.56
1481.46
1462.32
1462.42
1462.43
1462.33
1462.32
1462.27
1462.16
1462.1
1462
1461.85
1443.06
1442.97
1443.01
1442.81
1442.82
1442.76
1442.7
1442.58
1442.45
1442.3
1423.59
1423.46
1423.41
1423.34
1423.28
1423.23
1423.19
1423.08
1422.96
1422.84
1404.03
1404.03
1403.98
1403.86
1403.72
1403.6
1403.53
1404.52
1404.18
1403.81
1384.31
1384.35
1384.49
1384.52
1384.68
1384.8
1384.93
1385.58
1385.76
1385.48
1366.1
1365.54
1365.51
1365.08
1365.36
1365.74
1366.23
1366.84
1367.32
1367.27
1346.72
1346.62
1346.37
1346.28
1346.46
1346.81
1347.25
1347.73
1347.43
1347.73
1326.97
1326.64
1326.54
1326.4
1327.11
1327.49
1327.49
1327.83
1327.97
1328.47
1305.47
1305.49
1305.61
1305.86
1306.37
1306.94
1307.55
1308.28
1308.52
1308.62
1282.98
1283.21
1283.84
1284.72
1285.51
1286.44
1287.21
1288.45
1288.95
1288.95
1260.23
1260.72
1262.08
1263.46
1264.65
1266.31
1267.67
1268.42
1269
1268.92
1243.62
1243.61
1244.17
1244.97
1246.13
1247.27
1247.92
1248.55
1248.75
1248.62
1227.23
1227.27
1227.5
1227.79
1228.24
1228.63
1228.95
1229.12
1229.04
1228.74
1209.47
1209.76
1209.47
1209.53
1209.7
1209.87
1209.92
1209.88
1209.73
1209.44
1191.03
1190.64
1190.57
1190.62
1190.69
1190.77
1190.76
1190.74
1190.7
1190.64
1172.54
1171.99
1171.18
1170.78
1171.03
1171.35
1171.5
1171.53
1171.65
1171.82
1154.03
1153.26
1152.84
1152.46
1152.08
1152.18
1152.49
1152.7
1152.71
1152.99
1138.49
1137.34
1135.64
1134.31
1133.65
1133.56
1133.77
1133.94
1134.04
1134.19
1118.68
1117.53
1117.14
1115.53
1114.97
1114.82
1114.82
1114.95
1115.08
1115.37
1099.58
1097.37
1096.72
1095.19
1095.22
1095.39
1095.75
1096.08
1096.04
1095.88
1075.1
1075.35
1075.27
1074.28
1074.98
1075.46
1075.84
1076.38
1076.9
1076.62
1051.93
1052.36
1054.45
1053.51
1054.8
1055.62
1056.42
1057.03
1057.74
1057.63
1032.33
1033.19
1035.69
1034.61
1035.8
1036.21
1037.66
1039.11
1039.47
1039.41
1012.63
1012.1
1014.34
1014.33
1013.77
1016.43
1019.16
1021.74
1022.46
1022.53
997.915
997.967
998.679
999.374
1001.32
1004.61
1007.9
1009.1
1010.26
1010.46
982.759
983.586
984.757
987.116
990.138
992.01
992.895
994.362
992.366
992.373
967.982
968.92
969.333
970.431
971.927
973.139
973.795
974.078
973.545
972.078
946.668
947.183
947.39
947.975
949.291
951.087
952.782
954.044
954.469
954.478
926.189
925.925
926.376
926.948
927.87
929.808
932.173
933.974
935.493
936.416
906.044
905.482
905.534
906.218
906.957
908.396
910.612
913.262
915.944
917.179
880.82
879.938
881.168
881.275
883.559
885.949
888.704
891.222
893.326
894.541
860.169
860.229
861.5
861.427
864.69
866.467
867.3
868.189
869.349
870.09
856.96
854.64
851.744
849.144
849.75
848.943
849.185
848.503
847.76
847.233
841.029
838.763
837.773
836.003
833.595
832.648
831.128
828.763
826.177
824.02
821.346
820.604
819.378
817.502
816.852
814.346
811.251
807.694
803.956
800.341
801.678
800.305
799.384
797.881
798.38
794.648
790.21
785.696
780.843
775.914
780.938
780.694
781.037
782.963
778.786
773.716
768.847
763.29
757.209
750.583
761.636
765.203
767.493
762.958
759.947
755.635
749.996
743.995
737.439
730.789
757.136
755.492
748.959
745.955
743.173
738.876
733.856
728.727
722.697
716.92
737.048
733.486
731.583
729.567
726.224
722.511
718.827
714.523
708.872
704.948
718.385
717.631
715.509
711.672
707.406
704.174
701.446
697.799
694.027
691.882
698.431
696.851
691.703
687.582
684.097
682.069
680.028
677.71
675.607
674.449
673.981
665.753
663.365
660.633
658.518
657.488
656.417
655.493
655.432
655.868
633.949
633.373
632.601
630.967
630.047
629.981
630.666
630.702
631.922
633.508
597.027
597.688
597.906
598.185
598.961
600.113
601.509
603.639
606.354
609.862
557.59
557.087
557.712
559.612
562.665
565.874
569.071
573.381
578.73
584.88
507.651
510.296
513.925
518.841
524.768
530.731
535.451
540.495
546.896
554.892
477.544
478.531
484.147
487.316
491.767
502.534
508.697
506.413
507.76
515.863
479.351
482.292
483.414
484.239
480.773
487.816
490.189
488.162
483.586
480.477
463.599
464.573
466.339
467.908
472.382
469.146
472.194
479.428
481.614
472.812
456.134
450.385
440.457
440.46
449.697
454.87
453.305
462.145
464.458
459.459
441.777
441.787
443.557
432.299
439.118
443.367
446.609
446.971
443.685
448.665
441.673
439.625
439.278
439.217
439.739
443.992
441.333
439.385
436.441
437.314
428.652
427.277
426.967
427.9
428.96
421.656
423.661
417.746
417.002
416.859
407.285
405.806
405.793
403.324
402.531
398.399
397.118
390.539
389.015
389.918
383.045
383.559
383.104
381.352
379.361
375.138
370.499
367.886
362.904
364.889
360.546
362.293
362.035
361.094
359.189
355.442
354.12
347.865
350.26
350.233
340.522
342.217
344.066
343.566
344.065
341.372
343.954
339.388
341.048
339.56
324.902
326.281
329.798
329.498
330.16
331.528
329.726
328.322
329.356
328.278
309.833
311.001
312.964
313.534
313.9
315.575
315.42
314.24
313.553
313.261
291.362
294.142
295.24
295.877
296.751
297.959
298.754
298.564
298.141
297.883
275.462
275.437
278.266
279.715
280.459
281.668
282.78
283.072
283.331
285.013
267.667
265.658
266.587
267.546
268.341
269.956
271.121
272.479
274.391
275.474
261.307
260.714
258.845
259.038
260.02
261.436
262.397
263.223
265.088
266.104
257.961
257.007
253.175
252.495
252.918
253.417
253.267
254.458
255.658
255.965
252.226
249.724
246.783
245.525
244.207
242.702
240.807
249.335
249.089
244.943
242.417
240.683
238.938
237.05
234.478
230.574
243.97
241.005
239.573
233.952
233.582
232.237
230.997
229.678
227.892
229.897
236.228
223.262
223.284
222.304
219.568
219.282
218.542
216.147
211.929
222.668
218.19
215.485
211.742
209.816
207.376
209.134
209.662
209.656
210.843
213.204
206.07
201.184
196.475
192.398
193.312
200.628
200.992
198.087
210.096
209.624
205.301
194.083
183.991
177.105
181.466
183.878
193.529
203.184
203.677
204.17
192.552
177.922
163.825
154.296
181.734
190.023
192.034
189.517
195.791
189.455
171.792
154.842
140.731
132.579
170.845
171.133
170.717
176.763
179.793
167.891
149.682
131.154
122.986
120.167
166.589
165.397
168.827
172.266
161.092
151.441
129.15
114.014
114.871
114.679
149.437
164.154
157.33
172.656
147.746
141.157
115.958
111.744
111.819
110.644
146.153
144.452
144.757
152.291
132.832
125.591
102.348
104.219
104.845
105.304
125.191
123.594
126.919
133.617
116.488
116.366
94.2396
95.9447
96.8747
99.7499
101.713
102.452
104.685
113.558
106.152
102.618
99.2747
95.5441
95.2299
94.8469
80.4594
82.0343
84.1515
102.892
88.3832
93.7339
82.7637
83.7007
83.4868
85.957
61.5791
66.0885
67.7744
89.6892
67.0994
76.7817
57.0746
59.4175
56.4603
65.21
46.6205
53.1226
50.1331
74.1718
54.0563
58.2385
40.1217
40.0148
39.3616
46.3371
32.7233
36.3877
33.4162
56.5848
45.8032
43.5057
36.7312
35.0193
34.7008
35.6726
19.7991
21.6851
17.9653
31.6933
30.7826
30.0172
31.8876
27.3664
22.2819
16.836
3.50598
6.92204
-2.02587
7.02594
15.9867
18.3896
13.56
8.61802
8.51811
6.80972
-5.76719
-7.62942
-8.42128
-10.819
7.30149
8.84424
-8.12995
-7.22826
-3.72331
-3.36107
-2.10676
-4.00556
-0.725457
-10.5027
6.47427
5.92791
-12.2311
-1.67834
-4.08543
-2.14316
-2.18496
-2.80122
-0.000434559
-5.5959
3.77625
5.16908
-5.99424
-1.77501
-1.89944
-1.91985
-1.68558
-1.52029
-2.06303
-3.17548
3.84533
3.93674
-3.02534
-2.09313
-1.72997
-1.78526
-1.77871
-1.60864
-2.6721
-2.2787
2.34538
2.25577
-1.61059
-1.83642
-1.74736
-1.76126
-1.82511
-1.63575
-1.98134
-1.65814
1.785
1.68636
-1.37456
-1.99631
-1.82937
-1.82812
-1.80568
-1.7527
-2.20321
-0.899203
0.643841
0.83148
-0.710769
-2.33171
-1.87724
-1.87325
-1.85531
-1.82213
-3.29456
-0.906083
-0.207202
-0.39468
-1.2606
-3.39037
-1.87235
-1.8987
-1.9107
-2.47065
-5.005
-2.59377
-0.788578
-0.539004
-2.16027
-4.69296
-2.50645
-1.93587
-1.87142
-3.87508
-5.16345
-5.23129
-5.63894
-5.71038
-5.40338
-5.51762
-4.12433
-1.92075
-2.87519
-10.4199
-13.2384
-15.1074
-15.7948
-15.8202
-15.1799
-13.3224
-10.5485
-2.85393
1540.58
1540.61
1540.75
1541
1540.75
1540.33
1539.95
1539.69
1539.54
1539.49
1539.4
1539.22
1538.98
1539.08
1539.17
1539.46
1539.58
1539.53
1539.5
1539.57
1539.65
1539.77
1539.89
1540.05
1540.14
1540.2
1540.26
1540.32
1540.39
1540.5
1540.63
1540.87
1541.25
1541.89
1542.4
1542.87
1543.21
1543.44
1543.53
1543.62
1520.83
1520.64
1520.5
1520.22
1520.36
1519.88
1519.58
1519.33
1519.24
1519.33
1519.46
1519.52
1519.65
1520.32
1521.3
1521.55
1521.25
1521.08
1521.27
1520.39
1520.64
1520.57
1520.49
1520.41
1520.34
1520.35
1520.31
1520.3
1520.68
1520.9
1520.63
1520.77
1521.27
1521.85
1522.41
1523
1523.34
1523.73
1523.99
1524.12
1501.01
1500.77
1500.56
1500.39
1499.99
1499.48
1498.97
1498.61
1498.8
1499.42
1499.84
1499.82
1499.99
1500.43
1500.55
1500.68
1500.92
1501.58
1502.08
1502.03
1501.98
1501.84
1501.34
1500.85
1500.95
1500.87
1500.86
1501.06
1500.96
1500.84
1500.77
1500.57
1500.39
1500.28
1501.12
1501.95
1502.71
1503.64
1504.14
1504.38
1481.24
1480.94
1480.61
1480.31
1479.79
1479.31
1479.02
1478.75
1478.86
1479.38
1480.01
1480.71
1479.71
1479.94
1480.6
1481.23
1481.87
1482.46
1482.57
1482.4
1482.26
1482.07
1482.56
1482.72
1482.66
1482.41
1482.09
1483.14
1482.74
1482.8
1482.96
1483
1483.13
1483.3
1483.54
1483.86
1483.65
1484.17
1484.76
1484.76
1461.62
1461.29
1460.88
1460.48
1460.25
1460.08
1459.84
1459.85
1459.68
1460.18
1460.87
1461.33
1460.72
1460.5
1460.88
1461.46
1462.01
1462.39
1462.72
1463.58
1462.56
1463.1
1462.53
1462.66
1462.66
1463.01
1463.38
1463.6
1463.6
1463.81
1464.25
1464.37
1465.1
1465.34
1465.87
1465.97
1465.53
1465.24
1465.53
1465.59
1442.16
1441.94
1441.63
1441.26
1441.05
1440.84
1440.85
1440.79
1440.56
1440.19
1440.78
1440.47
1439.75
1439.56
1439.84
1440.43
1441.02
1441.47
1441.81
1441.93
1441.91
1442.25
1443.33
1442.15
1441.96
1442.9
1443.21
1443.5
1444.21
1445.08
1445.26
1445.62
1445.97
1445.93
1446.69
1447.12
1446.38
1446.3
1446.47
1446
1422.67
1422.38
1421.96
1421.27
1421.43
1421.18
1421.25
1420.72
1419.94
1419.33
1418.37
1417.59
1417.24
1417.28
1417.71
1418.98
1419.93
1420.44
1420.82
1421.05
1421.44
1421.94
1422.45
1422.46
1423.23
1423.95
1424.7
1424.88
1425.03
1425.43
1426.03
1426.56
1426.8
1427.14
1427
1427.4
1426.92
1427
1426.95
1428.31
1403.61
1403.54
1403.58
1403.54
1403.55
1403.55
1402.36
1401.74
1399.11
1396.66
1394.66
1394.21
1394.91
1398.33
1397.47
1398.18
1399.03
1399.73
1400.22
1400.54
1401.09
1402.6
1403.74
1404.63
1405.54
1405.94
1406.31
1406.71
1407.14
1407.03
1407.33
1407.64
1407.91
1408.11
1408.11
1408.2
1408.28
1408.3
1408.11
1408.73
1385.73
1386.08
1386.19
1386.76
1386.35
1386.34
1386.42
1385.3
1382.86
1383.3
1381.54
1379.25
1378.84
1379.09
1380.31
1379.09
1379
1379.25
1379.36
1379.88
1380.98
1382.99
1384.02
1385.64
1387.02
1387.45
1388.09
1387.86
1388.19
1388.45
1388.86
1389.18
1389.35
1389.44
1389.38
1389.36
1389.4
1389.49
1389.31
1389.82
1367.35
1367.61
1367.95
1368.09
1368.51
1368.67
1368.35
1366.84
1365.85
1369.27
1361.16
1362.63
1362.32
1362.62
1365.27
1362.06
1361.48
1361.07
1360.77
1360.82
1361.38
1362.45
1364.1
1366.37
1368.34
1369.27
1369.49
1369.55
1369.61
1369.82
1370.19
1370.39
1370.6
1370.49
1370.18
1370.02
1369.8
1369.71
1370.89
1370.98
1348
1348.28
1348.64
1349.07
1349.68
1350.23
1350.76
1350.4
1349.02
1347
1344.4
1342.35
1340.86
1340.17
1340.34
1340.12
1339.37
1338.4
1337.48
1337.61
1338.94
1341.35
1345.51
1347.79
1349.78
1350.46
1350.31
1350.25
1350.38
1351
1351.37
1351.82
1352
1351.83
1351.49
1351.49
1351.89
1352.47
1352.1
1352.45
1328.58
1328.82
1329.17
1329.69
1330.41
1331.22
1332.08
1332.88
1332.02
1330.36
1328.36
1326.21
1324.46
1322.77
1321.43
1320.1
1318.4
1316.41
1317.21
1317.92
1318.97
1321.33
1322.73
1325.59
1328.27
1329.19
1329.8
1330.24
1330.93
1331.76
1332.34
1332.67
1333.01
1333.26
1333.29
1333.21
1333.47
1333.77
1334.14
1334.44
1308.87
1309.14
1309.47
1310.03
1310.88
1311.88
1313.15
1313.82
1312.64
1310.48
1308.24
1305.56
1303.02
1301.09
1299.75
1298.57
1297.3
1295.27
1297.82
1298.74
1299.95
1302.48
1305.01
1305.93
1310.07
1310.49
1312.63
1313.84
1313.63
1313.39
1313.33
1313.36
1313.83
1314.63
1314.98
1314.62
1313.88
1314.31
1315.58
1316.83
1288.93
1288.94
1289.08
1289.43
1290.17
1291.01
1293.22
1292.88
1290.31
1287.46
1285
1282.19
1279.55
1277.26
1276.47
1277.36
1271.04
1272.83
1273.07
1274.43
1279.28
1282
1282.43
1285.34
1287.69
1288.76
1292.36
1293.76
1294.58
1295.31
1296.26
1296.51
1295.88
1296.31
1296.52
1297.61
1300.47
1298.22
1298.1
1298.85
1268.82
1268.51
1268.17
1267.82
1267.72
1268.03
1269.19
1268.43
1265.48
1262.55
1260.69
1258.39
1255.54
1252.94
1251.28
1249.62
1246.32
1244.16
1244.17
1245.78
1249.42
1252.71
1256.37
1260.04
1263.42
1266.23
1269.05
1271.53
1273.24
1274.21
1275.38
1276.7
1277.68
1278.9
1279.1
1279.69
1281.14
1281.8
1281.89
1285.31
1248.25
1247.39
1246.02
1244.14
1242.47
1241.25
1243.29
1241.72
1238.26
1236.57
1235.88
1235.07
1233.28
1231.16
1229.27
1228.21
1226.31
1224.31
1223.81
1223.8
1224.9
1226.85
1231.67
1235.6
1239.55
1242.77
1245.71
1248.48
1250.92
1252.82
1254.42
1255.52
1256.31
1257.09
1258.15
1259.77
1260.9
1259.84
1263.03
1261.93
1228.12
1227.12
1225.4
1222.14
1220.74
1224.08
1220.63
1219.05
1213.23
1209.53
1210.09
1212.05
1212.44
1211.11
1208.94
1206.87
1204.94
1203.86
1203.32
1203.71
1204.63
1205
1208.71
1213.08
1217.18
1220.96
1224.35
1227.23
1229.6
1231.74
1233.55
1234.99
1235.97
1237.16
1238.26
1239.36
1240.19
1240.25
1242.41
1243.28
1208.91
1208.04
1206.53
1204.01
1203.33
1204.87
1204.46
1200.5
1197.88
1193.9
1187.46
1188.71
1193.39
1192.77
1190.66
1188.57
1186.23
1183.83
1183.04
1183.83
1184.87
1188.6
1190.69
1192.46
1196.75
1200.54
1203.73
1206.54
1209.08
1211.35
1213.33
1215.12
1216.5
1217.54
1218.43
1219.46
1220.16
1220.51
1221.26
1222.03
1190.52
1190.35
1189.91
1189.44
1189.6
1192.21
1191.55
1188.99
1185.88
1182
1178.29
1176.42
1177.73
1177.17
1175.85
1174.58
1173.4
1172.38
1172.13
1172.5
1173.24
1173.37
1175.77
1174.46
1178.31
1181.5
1184.25
1186.84
1189.26
1191.45
1193.51
1195.36
1197.03
1198.26
1198.94
1200.1
1200.82
1201.82
1203.1
1203.25
1172
1172.2
1172.48
1172.84
1173.71
1175.95
1176.81
1176.71
1174.83
1172.08
1167.19
1164.69
1163.1
1161.46
1160.28
1159.25
1158.4
1157.56
1156.92
1156.69
1155.41
1158.3
1158.4
1158.74
1161.84
1164.58
1166.38
1167.92
1169.89
1171.87
1173.82
1175.67
1177.22
1178.89
1179.4
1180.51
1181.35
1182.14
1183.51
1184.1
1153.24
1153.52
1154.16
1154.48
1155.49
1156.7
1157.41
1156.71
1157.95
1155.49
1150.41
1147.93
1146.24
1144.73
1143.81
1143.03
1142.05
1141.02
1140.23
1140.67
1140.97
1141.55
1142.47
1143.7
1144.93
1145.95
1147.44
1148.28
1150.4
1152.54
1154.53
1156.4
1157.83
1159.15
1159.66
1160.24
1160.27
1160.48
1159.57
1162.62
1134.64
1135
1135.5
1135.91
1136.26
1137.02
1137.62
1137.55
1137.05
1136.54
1134.8
1133.13
1131.91
1130.27
1128.76
1127.15
1126.15
1126.09
1125.65
1125.66
1125.71
1126.01
1127.13
1127.51
1127.94
1130.27
1131.81
1130.74
1131.7
1133.83
1135.81
1137.68
1139.15
1140.04
1140.35
1140.22
1139.57
1139.28
1135.78
1145.38
1115.42
1115.82
1116.29
1116.75
1117.24
1117.63
1117.71
1117.63
1117.61
1117.04
1115.79
1114.47
1113.42
1112.43
1111.51
1112.32
1111.25
1110.41
1111.01
1110.28
1108.3
1108.83
1109.07
1109.23
1110.47
1111.7
1112.85
1113.81
1113.92
1116.03
1118.07
1119.84
1121.3
1122.26
1122.87
1122.86
1122.2
1121.36
1117.88
1123.64
1096.12
1096.5
1096.97
1097.4
1097.7
1097.93
1097.92
1097.66
1097.34
1096.89
1096.33
1095.79
1095.17
1094.49
1093.68
1092.66
1091.94
1091.47
1091.25
1090.29
1090.87
1090.98
1091.83
1092.67
1093.44
1094.44
1095.39
1095.83
1096.48
1098.04
1099.8
1101.4
1102.81
1103.93
1104.91
1105.67
1106.26
1105.89
1106.54
1108.09
1076.41
1076.75
1077.37
1078
1078.46
1078.54
1078.35
1078.01
1077.7
1077.41
1077.07
1076.71
1076.29
1075.85
1075.38
1074.9
1073.85
1073.62
1073.04
1073.03
1072.78
1073.14
1073.92
1074.53
1075.34
1075.72
1076.8
1077.47
1078.05
1079.24
1080.88
1082.47
1083.86
1085.15
1086.74
1088.39
1089.46
1089.71
1091.13
1093.52
1057.35
1057.75
1058.38
1059.11
1059.7
1060.02
1059.63
1059.01
1058.51
1058.28
1058.03
1057.76
1057.46
1057.08
1056.62
1056.46
1055.75
1054.78
1055.15
1054.3
1053.47
1055.33
1055.65
1055.33
1056.57
1056.96
1057.41
1058
1058.87
1060.03
1061.33
1062.76
1064.24
1065.72
1067.68
1069.62
1071.26
1072.34
1073.75
1078.77
1039.24
1039.33
1039.7
1040.13
1040.14
1039.82
1039.53
1039
1038.58
1038.72
1038.76
1038.67
1038.51
1038.26
1037.99
1038.29
1037.81
1037.38
1036.86
1035.68
1036.59
1036.93
1035.87
1036.76
1037.05
1037.32
1037.75
1038.41
1039.67
1040.26
1041.14
1042.5
1043.92
1045.37
1047.63
1049.57
1050.42
1051.66
1053.08
1060.3
1021.54
1021.05
1020.66
1020.83
1021.02
1020.66
1021.15
1022.46
1020.84
1019.49
1019.4
1019.55
1019.57
1019.59
1019.51
1019.39
1019.2
1018.74
1018.58
1018.59
1018.81
1017.76
1018.06
1018.1
1018.02
1017.85
1018.03
1018.32
1018.93
1019.58
1020.22
1021.82
1023.22
1024.49
1027.37
1029.04
1028.52
1029.81
1030.92
1038.8
1010.94
1008.87
1004.59
1007.64
1003.84
1003.64
1003.8
1004
1003.57
1002.89
1001.38
1001.4
1001.24
1001.08
1000.77
1000.44
1000.13
1000.26
1000.98
1001.1
1001.22
1001.07
1000.07
998.847
998.311
997.707
997.894
998.024
998.231
998.521
999.173
1001.31
1002.85
1003.97
1006.25
1006.65
1006.02
1006.94
1007.79
1017.23
990.462
987.54
986.114
985.659
986.311
986.924
987.159
987.497
987.444
985.486
984.537
983.668
982.93
982.147
981.94
981.664
981.189
982.385
982.522
982.284
982.403
981.937
979.93
978.102
977.137
976.39
976.151
976.033
975.767
975.362
975.819
977.003
978.599
980.265
982.412
983.288
983.209
984.327
986.048
995.65
970.752
970.037
969.712
969.185
971.064
971.016
970.917
970.312
969.436
968.293
966.491
965.638
964.823
964.331
963.747
962.45
961.511
961.214
961.134
961.951
961.041
959.432
958.081
956.463
954.804
953.244
951.741
950.04
948.417
947.394
946.335
948.815
953.207
954.177
957.11
960.224
961.871
963.995
964.804
968.119
955.115
955.701
955.648
957.148
955.746
953.869
952.739
951.37
949.85
948.33
947.07
945.817
944.54
943.3
942.78
942.287
941.544
940.942
940.619
940.63
939.615
938.369
936.676
934.414
931.737
928.374
923.958
918.329
912.987
909.635
908.353
913.238
917.193
922.613
926.593
940.383
940.033
946.218
949.469
953.459
937.411
937.792
937.876
937.644
937.549
935.872
933.931
931.664
929.67
928.146
926.641
925.087
924.739
922.707
920.195
920.352
920.002
920.76
919.847
919.178
918.794
917.7
916.188
914.084
911.457
907.861
903.251
897.427
891.574
886.093
881.597
884.992
889.864
896.051
903.977
911.844
916.565
923.014
928.691
933.663
918.38
918.861
918.776
918.335
917.682
916.371
913.909
911.587
909.733
908.535
907.619
906.845
905.895
904.195
902.876
903.682
901.932
901.877
901.521
900.854
899.422
898.386
897.079
895.295
892.941
890.109
888.056
885.319
880.273
876.191
875.631
876.223
876.431
880.083
885.032
889.59
894.81
900.923
903.448
910.554
895.421
896.153
895.848
895.294
894.201
893.385
892.123
890.112
888.578
887.552
885.902
886.295
886.33
885.191
885.23
884.759
884.189
884.096
883.835
882.942
881.026
880.015
878.816
877.273
875.21
872.664
875.04
871.315
866.255
861.105
863.113
865.715
866.521
867.559
867.745
867.199
868.309
873.854
880.647
882.571
870.585
870.56
870.611
870.112
869.335
869.381
868.735
870.526
870.766
870.983
870.386
868.394
866.345
865.378
864.545
864.105
864.009
863.682
864.327
862.898
862.26
861.544
860.813
859.948
858.817
857.779
861.288
860.95
854.885
851.188
852.369
853.301
853.644
853.22
851.423
844.594
836.884
835.482
846.047
850.039
846.392
845.614
845.041
844.303
843.662
843.043
843.174
843.629
843.396
842.169
842.496
844.131
844.34
842.014
842.454
841.282
840.977
841.745
842.764
843.18
843.227
842.953
842.512
841.94
841.921
843.286
847.507
847.203
842.952
839.406
839.695
840.531
840.47
839.048
837.564
834.013
829.75
825.219
830.197
832.619
821.93
820.251
818.868
817.455
816.306
815.634
815.018
814.297
813.36
812.914
813.763
815.698
816.868
817.152
824.529
827.634
825.092
823.313
824.619
825.118
825.11
824.619
823.581
822.05
820.492
819.483
820.404
826.849
821.525
820.655
820.086
821.473
824.035
827.031
829.29
829.24
826.272
828.347
822.272
827.336
796.947
793.706
791.188
788.829
787.38
786.804
786.751
787.069
787.024
785.789
784.65
785.311
790.964
797.207
804.774
808.592
810.891
811.029
810.075
809.602
808.95
807.803
805.718
802.598
798.481
795.908
795.232
798.615
799.353
797.668
795.095
803.01
806.757
810.443
815.335
818.551
821.318
819.839
813.82
815.307
770.863
766.012
761.362
758.426
757.253
757.94
757.289
755.972
752.801
749.786
749.805
756.215
767.109
776.169
785.01
792.462
796.718
796.493
795.432
794.472
793.371
792.23
790.108
786.526
780.734
775.487
782.357
781.978
783.014
782.5
779.145
779.178
783.761
785.495
790.406
794.799
796.651
796.115
794.546
795.321
744.037
740.239
738.246
739.008
739.723
738.712
737.051
735.279
734.23
728.682
730.481
736.689
748.351
758.534
767.646
774.879
779.078
779.367
780.054
779.802
779.407
778.536
776.754
773.699
769.464
767.687
771.534
772.47
771.445
770.045
769.808
768.858
766.403
761.48
759.077
766.982
772.373
774.376
775.148
776.297
726.511
724.014
722.817
723.771
725.686
725.288
724.645
723.545
722.273
727.122
727.045
734.296
741.115
747.889
754.063
760.052
764.58
766.25
766.004
766.023
765.15
764.656
763.908
762.788
761.081
760.288
764.246
763.586
763.014
761.891
762.01
761.351
760.314
757.969
753.296
756.181
759.029
759.987
760.431
760.935
714.335
713.433
712.658
712.669
713.307
711.984
709.443
707.908
708.824
710.699
723.597
724.46
731.734
737.606
742.254
746.717
750.353
752.08
751.249
751.387
750.65
750.69
750.82
751.084
751.32
751.488
755.636
756.605
756.391
755.192
755.666
754.247
753.647
750.033
745.787
744.794
746.649
745.363
746.064
746.109
703.062
701.67
700.533
700.517
703.928
699.197
697.704
695.617
693.022
697.108
707.397
711.746
718.228
724.244
726.454
730.524
735.909
737.607
737.117
736.23
735.874
735.895
736.26
737.061
737.963
738.654
739.726
742.075
743.276
745.982
749.431
745.647
743.78
739.105
736.877
733.435
732.913
731.742
731.285
731.559
691.809
691.781
688.03
692.791
694.994
692.687
693.797
695.581
694.943
697.351
702.879
707.719
710.533
712.95
715.663
717.726
717.973
721.547
717.474
718.256
718.702
718.907
719.346
720.261
721.616
722.778
723.715
724.788
725.875
727.093
729.653
726.966
726.487
724.122
722.831
719.345
717.983
716.608
716.265
716.276
682.177
682.526
675.985
677.917
679.794
680.311
682.083
684.376
689.552
693.636
696.525
697.887
700.436
702.675
702.22
703.861
704.905
704.012
702.334
702.937
702.627
701.916
701.268
701.358
702.877
704.517
705.514
705.604
704.575
705.989
705.176
706.062
705.542
704.389
702.951
701.013
699.823
699.266
698.391
698.484
662.183
669.284
658.484
660.648
662.448
664.405
666.902
670.012
673.782
677.201
679.957
688.478
690.873
693.169
696.035
697.198
693.359
692.467
690.668
689.369
687.886
685.953
685.658
688.123
688.427
686.702
685.803
686.67
684.466
682.965
682.974
682.297
681.531
680.989
680.226
679.128
677.849
678.324
679.029
679.299
636.86
641.255
640.044
643.374
646.669
650.191
653.839
657.222
660.239
663.186
666.199
669.117
671.122
672.542
674.405
675.798
675.931
675.937
675.349
674.618
673.956
673.06
674.399
674.077
673.024
671.093
668.835
666.541
663.492
660.712
659.329
658.265
656.961
656.839
657.976
658.998
661.984
660.827
661.509
661.753
614.261
619.063
623.677
628.324
632.78
637.569
642.25
646.154
649.779
653.364
656.491
658.536
659.732
660.297
661.003
661.344
661.369
661.169
661.193
660.823
660.504
660.019
661.181
661.253
659.248
656.401
653.991
650.612
646.784
641.673
641.34
640.327
639.179
639.993
641.649
642.333
645.031
644.936
644.483
644.879
591.798
599.202
606.88
615.961
621.547
624.755
630.823
635.096
638.538
641.271
645.054
648.314
649.03
648.011
646.7
645.844
645.044
645.232
645.595
646.129
646.805
648.084
649.112
648.629
646.85
643.345
640.796
637.491
634.157
629.214
626.607
624.787
623.882
624.238
625.401
626.352
627.838
628.447
628.449
629.222
564.955
576.23
587.02
597.791
607.708
612.93
616.293
620.496
624.134
626.149
629.64
632.955
633.175
631.133
630.184
628.479
627.81
627.772
628.168
628.762
629.531
630.008
631.759
631.2
630.048
627.904
626.622
623.955
618.969
613.858
610.37
607.907
606.746
607.408
608.356
610.757
611.511
612.336
613.992
614.739
529.008
545.121
560.736
574.929
586.546
595.943
602.573
606.904
608.874
609.502
611.584
614.153
614.43
613.437
611.697
610.777
610.155
609.555
609.923
610.467
610.848
610.99
611.197
610.716
609.697
607.83
605.704
603.477
600.176
597.204
594.589
592.6
591.836
592.337
593.491
594.831
596.167
597.065
598.329
598.51
491.871
511.421
531.651
550.319
566.577
577.671
584.528
590.417
592.435
594.504
596.356
596.753
599.064
597.77
594.232
592.901
592.053
591.502
591.23
591.223
591.224
591.312
591.489
591.27
589.991
588.358
586.348
585.241
583.177
581.043
579.172
577.721
576.72
576.908
578.132
579.018
580.333
581.101
581.627
582.325
473.628
492.897
510.449
525.573
539.169
552.146
562.755
571.715
576.346
579.857
580.789
579.952
580.073
579.601
576.457
573.943
572.675
571.853
571.316
571.06
570.685
570.387
570.192
570.25
569.488
568.871
566.63
565.635
564.308
563.046
561.813
561.444
562.27
562.18
562.407
564.493
565.409
565.091
565.331
564.265
464.598
477.225
491.483
503.662
513.799
526.323
538.556
549.247
556.577
565.459
563.226
565.489
562.983
559.903
558.264
557.01
555.146
551.662
550.256
549.993
549.491
548.989
548.664
548.258
547.525
546.352
545.423
546.464
544.531
544.627
543.35
544.387
544.614
543.704
545.704
547.176
546.725
544.859
545.605
544.465
454.178
461.497
471.645
481.86
491.331
502.441
514.645
525.879
535.215
540.707
543.326
541.273
541.094
539.424
537.24
535.408
534.11
532.858
531.547
530.327
527.948
526.71
525.831
525.397
524.645
523.486
524.327
525.17
525.364
524.941
524.182
523.352
522.678
522.416
522.244
525.426
523.491
522.83
522.33
522.33
439.586
443.686
449.851
457.265
465.262
475.764
488.812
499.617
508.266
514.804
518.24
520.41
515.01
515.77
515.044
513.742
512.535
510.558
510.624
509.843
509.711
509.267
507.294
507.248
506.47
504.213
503.822
505.042
505.636
504.914
503.371
501.734
500.63
500.146
502.194
504.925
501.451
501.72
501.756
501.108
417.192
418.596
420.411
422.413
427.963
439.949
452.634
463.902
472.967
478.749
483.868
493.879
493.399
488.597
490.057
489.58
489.025
488.449
487.839
486.29
486.497
486.88
484.345
483.822
483.83
483.637
482.983
481.472
479.508
480.801
480.564
477.469
475.747
477.564
479.824
481.756
481.873
482.914
486.465
485.97
390.433
389.206
389.239
392.778
400.46
400.278
410.607
423.923
433.527
441.402
446.316
450.068
457.563
456.611
459.817
464.473
465.944
465.721
465.103
464.363
464.147
463.339
463.931
463.196
462.101
463.406
465.094
463.711
462.941
462.457
461.009
458.801
457.884
458.462
460.329
462.387
463.941
465.1
466.01
467.04
367.869
369.035
368.511
368.261
367.743
368.653
380.288
394.265
403.26
410.042
411.598
412.451
414.945
426.808
425.482
431.328
436.538
438.6
440.433
442
442.776
443.854
445.056
444.367
439.872
442.389
443.994
443.543
445.524
446.197
447.3
447.275
441.574
441.737
443.98
445.29
446.438
447.486
447.969
448.874
352.987
352.646
348.219
344.864
345.729
347.814
359.422
373.666
384.761
389.139
400.438
388.076
389.548
393.586
399.717
399.792
406.787
410.864
413.728
416.18
418.118
419.421
421.059
420.549
429.653
417.417
419.725
423.935
427.583
428.608
429.695
430.979
426.996
427.892
428.455
429.167
429.813
430.161
430.809
432.461
337.788
336.415
332.455
327.766
328.447
333.875
346.675
361.65
375.245
383.628
390.978
396.479
387.428
390.669
393.31
385.27
386.539
390.324
393.523
395.948
398.031
399.675
400.917
400.509
404.963
405.124
404.51
402.879
406.87
410.922
413.774
412.939
411.594
412.11
412.373
412.521
413.724
413.34
414.824
417.73
325.673
321.937
322.405
315.309
319.106
325.332
335.246
349.399
365.349
378.144
383.826
390.765
390.097
387.1
381.973
377.008
374.978
375.907
376.542
377.59
377.787
378.315
378.903
382.571
385.414
386.804
388.285
387.775
394.525
395.638
395.782
393.814
393.735
394.376
395.431
395.935
396.988
396.369
398.001
399.671
311.705
308.994
310.536
302.966
305.85
313.043
322.369
333.803
347.695
362.265
369.158
367.206
369.133
370.205
369.839