/*--------------------------------*- C++ -*----------------------------------*\
  =========                 |
  \\      /  F ield         | OpenFOAM: The Open Source CFD Toolbox
   \\    /   O peration     | Website:  https://openfoam.org
    \\  /    A nd           | Version:  8
     \\/     M anipulation  |
\*---------------------------------------------------------------------------*/
FoamFile
{
    version     2.0;
    format      ascii;
    class       volScalarField;
    location    "7.9";
    object      p_rgh;
}
// * * * * * * * * * * * * * * * * * * * * * * * * * * * * * * * * * * * * * //

dimensions      [1 -1 -2 0 0 0 0];

internalField   nonuniform List<scalar> 
9150
(
1961.71
1960.46
1959.99
1959.52
1959.3
1959.3
1959.52
1959.98
1960.45
1961.71
1961.28
1960.6
1960.22
1959.91
1959.73
1959.72
1959.9
1960.22
1960.6
1961.28
1960.97
1960.58
1960.34
1960.11
1960
1960
1960.1
1960.33
1960.58
1960.96
1960.83
1960.59
1960.42
1960.24
1960.16
1960.16
1960.24
1960.41
1960.58
1960.82
1960.82
1960.58
1960.45
1960.29
1960.24
1960.24
1960.29
1960.44
1960.58
1960.82
1950.77
1949.46
1949.42
1949.67
1949.76
1949.78
1949.7
1949.47
1949.5
1950.79
1953.8
1953.24
1953.24
1953.06
1953.18
1953.19
1953.04
1953.23
1953.23
1953.8
1957.01
1956.2
1956.15
1955.66
1955.68
1955.68
1955.65
1956.14
1956.18
1956.99
1959.84
1958.48
1958.33
1957.54
1957.48
1957.47
1957.53
1958.32
1958.45
1959.82
1963.14
1960.25
1959.74
1958.85
1958.59
1958.6
1958.88
1959.74
1960.26
1963.15
1944.3
1943.6
1941.52
1940.94
1940.53
1940.53
1940.9
1941.45
1943.51
1943.99
1944.06
1943.98
1942.75
1942.61
1942.15
1942.16
1942.58
1942.7
1943.91
1943.96
1943.68
1944.15
1942.34
1943.33
1942.35
1942.34
1943.33
1942.31
1944.12
1943.63
1940.4
1944
1941.31
1943.72
1943.04
1943.01
1943.76
1941.27
1943.98
1940.38
1930.58
1944.27
1942.8
1945.25
1945.62
1945.59
1945.26
1942.75
1944.27
1930.6
1550.4
1550.34
1550.23
1550.19
1550.17
1550.14
1550.17
1550.19
1550.19
1550.2
1550.88
1550.17
1550.06
1550.05
1549.98
1550.11
1550.17
1550.16
1550.17
1550.09
1550.7
1550.3
1550.35
1550.26
1550.39
1550.26
1550.15
1550.15
1550.1
1550.15
1550.35
1550.28
1550.27
1550.27
1550.03
1549.98
1549.97
1550.1
1550.13
1550.04
1550.38
1550.41
1550.59
1550.32
1550.21
1550.16
1550.16
1550.27
1550.17
1550.02
1550.6
1550.51
1550.77
1550.33
1550.24
1550.19
1550.46
1550.34
1550.22
1550.07
1550.68
1550.68
1550.75
1550.69
1550.61
1550.55
1550.51
1550.43
1550.32
1550.2
1550.97
1550.96
1550.91
1550.79
1550.66
1550.53
1549.3
1547.48
1547.66
1550.47
1550.32
1550.88
1551.02
1551.04
1551.2
1551.32
1548.09
1546.4
1546.56
1546.55
1547.24
1546.67
1547.54
1549.02
1551.47
1551.84
1552.03
1550.07
1547.05
1547
1548.92
1546.66
1546.4
1546.3
1546.47
1547.22
1552.06
1552.53
1551.25
1549.62
1551.65
1551.18
1551.12
1547.62
1546.15
1546.52
1548.86
1550.56
1551.4
1553.75
1550.1
1550.12
1550.24
1550.5
1548.72
1548.87
1548.83
1548.22
1548.45
1552.1
1545.68
1545.94
1547.68
1548.93
1549.71
1550.63
1548.18
1547.58
1548.07
1551.86
1543.41
1544.01
1545.86
1547.24
1547.34
1546.2
1545.99
1546.75
1550.26
1552.81
1547.22
1545.08
1545.14
1546.43
1545.86
1546.61
1548.19
1551.01
1552.45
1552.32
1547.77
1547.65
1547.88
1548.59
1551.52
1551.84
1552.24
1552.41
1552.33
1552.03
1551.07
1549.55
1551.28
1552.41
1552.59
1552.76
1552.81
1552.77
1552.62
1552.33
1553.52
1552.96
1553.05
1553.11
1553.18
1553.25
1553.25
1553.23
1553.19
1553.12
1554.62
1554.06
1553.26
1552.86
1553.11
1553.41
1553.22
1553.61
1553.73
1553.89
1528.54
1540.5
1551.1
1554.13
1553.75
1553.82
1552.55
1552.76
1553.51
1554.66
1519.57
1518.5
1529.89
1547.52
1554.92
1554.82
1554.48
1553.52
1553.62
1553.81
1540.2
1538.57
1534.58
1543.5
1554.86
1555.68
1555.67
1555.79
1554.94
1554.5
1559.99
1544.79
1539.48
1551.03
1555.66
1555.84
1556.19
1556.19
1554.33
1555.16
1555.11
1528.64
1527.98
1551.8
1555.01
1555.5
1555.88
1552.32
1551.03
1551.91
1534.28
1502.41
1500.67
1528.8
1554.42
1555.25
1556.05
1552.7
1551.21
1551.11
1494.1
1499.25
1482.99
1509.04
1554.22
1555.42
1556.87
1558.32
1556.27
1556.55
1454.01
1453.48
1455.73
1484.26
1467.01
1488.69
1532.85
1560.51
1561.15
1561.17
1455.34
1455.39
1456.12
1456.82
1458.81
1462.18
1465.87
1478.1
1480.66
1484.1
1456.69
1474.45
1465.26
1460.66
1463.76
1475.56
1507.69
1496.96
1530.14
1565.41
1554.16
1566.19
1566.61
1567.46
1569.23
1570.62
1571.28
1571.56
1570.77
1561.7
1557.13
1564.06
1564.3
1564.94
1566.33
1568.16
1569.86
1571.12
1568.64
1550.71
1562.98
1559.15
1551.18
1547.87
1555.48
1561.75
1566.53
1565.77
1561.95
1568.41
1559.03
1535.49
1524.42
1525.27
1527.48
1537.1
1552.17
1554.1
1554.49
1555.73
1550.4
1529.98
1515.29
1534.15
1543.53
1547.23
1548.72
1551.23
1554.67
1558.46
1486.51
1469.32
1474.58
1544.41
1553.01
1554.8
1552.29
1558.96
1562.51
1563.26
1420.78
1418.82
1447.49
1548.46
1557.47
1542.71
1541.58
1542.13
1560.2
1559.94
1475.55
1536.05
1571.09
1568.55
1547.9
1544.06
1542.49
1547.78
1558.42
1556.26
1574.6
1573.84
1572.46
1560.1
1545.32
1544.87
1557.65
1559.46
1555.73
1552.11
1573.55
1561.89
1553.81
1547.78
1545.78
1561.95
1561.51
1556.99
1552.14
1547.21
1548.25
1543.67
1534.2
1520.26
1548.03
1563.56
1559.67
1554.11
1548.03
1541.18
1469.02
1434.2
1436
1520.68
1570.21
1565.98
1560.34
1554.34
1547.67
1489.61
1238.02
1253.67
1474.49
1575.83
1573.05
1568.75
1563.73
1558.6
1551.09
1391.29
1246.7
1504.2
1580.98
1578.96
1575.62
1571.91
1567.62
1563.85
1553.41
1375.76
1587.07
1586.55
1584.43
1580.59
1576.32
1566.16
1559.36
1563.58
1557.66
1444.62
1535.06
1560.86
1580.14
1576.02
1567.19
1559.12
1557.08
1561.53
1561.42
1499.04
1383.38
1531.56
1571.32
1568.58
1564.48
1553.82
1552.87
1559.45
1563.09
1545.7
1390.58
1560.83
1560.07
1558.43
1557.49
1556.34
1549.06
1558.05
1559.26
1560.72
1479.82
1544.66
1544.89
1545.16
1545.91
1547.02
1548.4
1550.51
1553.22
1556.73
1482.98
1523.57
1524.21
1526.09
1529.11
1532.3
1535.48
1539.78
1545.13
1551.27
1355.79
1496.25
1499.48
1504.75
1510.7
1516.65
1521.36
1526.41
1532.8
1540.8
1095.44
1241.56
1215.58
1345.93
1444.25
1497.16
1495.02
1487
1497.06
1521.18
1052.08
1031.35
1031.9
1032.89
1069.27
1318.66
1196.39
1050.69
1048.52
1328.89
1380.82
1373.09
1418.76
1425.35
1429.9
1294.63
961.54
789.536
758.213
846.299
1426.25
1425.21
1415.64
1415.78
1412.74
1301.43
837.576
742.237
744.767
1074.48
1028.75
1248.02
1379.95
1040.3
727.832
730.09
731.84
732.31
1121.44
1512.74
735.737
733.689
733.554
733.858
734.929
738.108
832.981
1207.79
1535.71
1536.68
917.303
889.24
861.03
871.672
806.7
1210.49
1410.95
1533.75
1534.51
1535.59
1551.73
1550.25
1544.2
1547.75
1442.68
1519.99
1516.6
1439.65
1458.17
1517.02
1547.05
1547.56
1547.11
1545.35
1543.35
1518.28
1376.6
1328.87
1424.38
1460.97
1544.11
1545.86
1545.59
1544.64
1542.73
1386.48
1331.23
1325.18
1470.86
1487.13
1543.65
1539.49
1494.59
1525.03
1547.15
1445.5
1337.88
1332.84
1511.51
1537.73
1547.59
1478.36
1435.69
1448.05
1543.32
1551.49
1462.28
1473.53
1546.77
1546.73
1536.78
1434.38
1436.38
1448.09
1545.76
1555.24
1555.07
1553.88
1553.14
1552.57
1471.18
1429.97
1441.38
1538.92
1555.94
1557.15
1557.94
1557.74
1554.32
1465.14
1255.17
1431.66
1556.92
1558.43
1559.17
1560.38
1561.5
1531.06
1201.25
819.774
937.219
1423.49
1563.3
1565.77
1566.58
1568.19
1569.36
1153.97
817.927
818.672
882.92
1028.33
1532.89
1576.69
1577.83
1579.2
1567.31
895.605
817.633
817.813
888.782
972.194
1518.26
1589.75
1590.34
1590.76
1364.57
824.334
818.824
816.669
892.26
1281.27
1603.44
1603.15
1601.43
1599.65
1034.26
835.354
828.49
1299.2
1367.26
1617.89
1616.16
1614.24
1611.64
1285.82
860.057
851.38
1377.77
1542.92
1630.33
1628.99
1627.75
1626.43
1597.09
930.283
874.887
1177.85
1548.5
1552.59
1635.83
1635.57
1634.83
1632.43
1169.19
865.811
865.993
1410.56
1563.29
1560.14
1620.11
1644.93
1645.48
1559.02
886.379
865.219
971.321
1531.22
1570.62
1564.37
1479.81
1647.51
1656.23
1078.73
873.726
870.509
1319.67
1594.43
1581.45
1569.64
1432
1558.42
1044.59
884.118
881.245
1117.2
1606.69
1601.54
1584.2
1445.49
822.174
777.033
803.345
910.022
1095.57
1629.82
1619.28
1599.89
1506.92
1167.98
721.869
844.836
1442.15
1365.98
1567.23
1639.17
1619.61
1559.39
1212.81
823.971
724.832
1460.43
1462.93
1216.08
1603.9
1642.28
1523.75
1264.96
1112.49
627.073
1087.48
1640.26
1399.9
1152.4
1581.69
1651.25
1178.55
1191.32
1158.62
559.112
1701.23
1639.89
1162.52
1144.36
1636.99
1654.68
1108.38
1340.8
1201.11
559.414
1699.61
1665.7
1254.02
1138.01
1665
1662.16
1112.09
1347.78
1303.37
559.5
1695.46
1634.26
1366.05
1131.93
1673.67
1657.14
1129.48
1324.57
1388.4
727.057
1693.52
1641.85
1578.8
1133.76
1674.25
1672.18
1125.59
1151.34
1415.76
1404.44
1693.58
1652.04
1584.96
1131.83
1668.21
1689.13
1114.08
1089.39
1088.26
1393.79
1692.87
1661.13
1523.01
1128.64
1687.44
1692
1102.22
1081.57
1082.43
1358.58
1703.73
1707.37
1578.23
1123.43
1713.22
1696.81
1102.97
1087.86
1130.7
1560.72
1710.1
1653.55
1492.82
1133.11
1721.94
1718.11
1108.83
1091.02
1335.26
1330.23
1379.38
1055.71
1274.11
1104.06
1726.58
1735.56
1099.42
1083.28
1306.43
1392.42
375.539
698.679
760.476
1097.56
1751.07
1751.4
1098.8
1078.35
718.109
513.166
122.557
384.8
308.971
1107.25
1773.17
1774.15
1105.52
253.719
238.14
0.00135745
0.166811
145.71
29.6649
1260.61
1794.63
1795.71
1261.88
3.65088
0.384067
10.6192
16.6377
1.47473
27.776
1486.8
1816.18
1816.48
1486.39
29.573
0.13284
2.86495
15.9219
0.425294
227.685
1635.06
1835.63
1835.52
1635.7
203.8
0.134386
0.121962
1.54558
0.352701
396.359
1749.03
1855.33
1855.3
1749.3
396.092
0.0661377
0.0750179
0.102274
0.160417
747.515
1842.38
1874.22
1874.4
1842.64
740.185
0.0173009
0.0334794
0.0380482
0.072826
1249.08
1892.34
1893.05
1892.88
1891.99
1234.44
0.024904
-0.00447319
0.00225043
184.794
1648.94
1910.32
1912.16
1912.41
1910.76
1668.59
191.635
-0.0225203
0.0611516
1153.22
1927.33
1927.34
1926.93
1926.86
1927.16
1926.97
1144.51
0.0118262
674.462
1889.38
1938.95
1937.08
1936.39
1936.37
1937.01
1938.87
1888.01
673.045
1550.34
1550.37
1550.54
1550.8
1550.55
1550.12
1549.74
1549.49
1549.34
1549.28
1549.19
1549.01
1548.75
1548.74
1548.86
1549.24
1549.36
1549.31
1549.28
1549.34
1549.44
1549.56
1549.68
1549.84
1549.94
1549.99
1550.05
1550.12
1550.18
1550.29
1550.39
1550.63
1551
1551.66
1552.15
1552.62
1552.96
1553.19
1553.3
1553.4
1550.11
1550.03
1549.89
1549.54
1549.49
1549.14
1548.97
1548.72
1548.6
1548.68
1548.84
1548.9
1548.97
1548.45
1549.02
1549.27
1548.97
1548.8
1548.99
1548.92
1550.01
1549.94
1549.86
1549.79
1549.72
1549.73
1549.68
1549.67
1550.05
1550.27
1550
1550.15
1550.64
1551.21
1551.78
1552.36
1552.61
1552.98
1553.24
1553.37
1549.99
1549.75
1549.4
1548.95
1548.55
1548.04
1547.54
1547.18
1547.37
1548.32
1548.8
1548.77
1548.95
1549.39
1549.5
1549.63
1549.71
1548.2
1548.27
1548.22
1548.18
1548.04
1547.94
1549.28
1549.91
1549.83
1549.82
1550.02
1549.91
1549.62
1549.23
1548.34
1547.66
1547.84
1549.22
1550.62
1551.62
1552.61
1553.08
1553.22
1549.81
1549.51
1549
1548.29
1547.77
1547.41
1547.42
1547.16
1547.27
1547.79
1548.13
1547.77
1547.32
1548.38
1549.13
1549.77
1550.39
1550.99
1551.07
1550.84
1550.7
1549.05
1547.45
1547.61
1547.62
1548.05
1548.13
1548.84
1548.44
1549.6
1548.24
1547.26
1547.39
1547.55
1547.79
1548.21
1550.2
1552.73
1553.33
1553.32
1549.79
1549.46
1549.04
1548.46
1548.17
1548.06
1547.74
1547.2
1546.74
1546.93
1547.31
1547.17
1546.56
1546.73
1548.95
1549.58
1550.13
1550.51
1550.23
1550.54
1550.41
1551.07
1550.1
1548.68
1549.92
1550.9
1551.27
1551.49
1551.49
1551.92
1552.41
1549.94
1547.71
1547.95
1548.49
1548.59
1549.02
1553.23
1553.68
1553.64
1549.93
1549.7
1549.39
1549.02
1548.81
1548.33
1546.08
1545.66
1545.43
1545.06
1546.57
1545.39
1544.85
1546.29
1547.53
1548.13
1548.72
1549.17
1549.48
1549.53
1549.6
1547.74
1547.54
1549.17
1548.99
1549.92
1549.88
1550.54
1551.95
1552.82
1553
1553.37
1553.26
1548.17
1547.66
1548.1
1551.19
1554.05
1554.21
1551.45
1550.03
1549.73
1549.32
1548.62
1548.63
1546.48
1545.27
1544.72
1544.99
1545.06
1544.17
1543.45
1543.17
1543.27
1544.68
1546.26
1547.2
1547.72
1548.1
1548.33
1548.72
1544.72
1544.84
1544.86
1547.93
1547.29
1547.72
1547.91
1549.8
1552.42
1553.36
1553.9
1554.13
1554.47
1553.41
1552.6
1553.96
1554.34
1554.09
1551.26
1550.56
1550.49
1550.4
1549.54
1547.27
1547.27
1547.33
1548.66
1545.93
1539.12
1529.76
1524.1
1522.05
1518.93
1528.38
1541.43
1545.84
1546.59
1547.08
1547.4
1546.8
1543.82
1544.97
1545.85
1546.76
1547.5
1548.43
1548.67
1549.09
1551.86
1554.26
1554.56
1554.83
1555.03
1555.04
1555.12
1555.2
1555.22
1551.6
1550.13
1547.78
1547.98
1547.41
1547.98
1547.78
1551.45
1552.96
1551.81
1541.08
1518.51
1515.31
1512.97
1512.53
1512.78
1514
1525.11
1545.3
1544.62
1543.57
1543.33
1543.52
1543.37
1544.8
1549.38
1551.49
1549.18
1549.15
1550.87
1554.68
1554.96
1555.37
1555.69
1555.87
1555.95
1555.89
1555.87
1555.91
1556
1551.12
1550.71
1547.08
1547.34
1547.68
1552.22
1554.65
1554.81
1554.49
1552.64
1534.58
1522.89
1534.57
1548.69
1546.61
1534.27
1530.27
1542.84
1547.31
1546.88
1546.58
1546.61
1547.07
1547.95
1549.08
1550.67
1552.37
1553.99
1555.23
1555.59
1555.64
1555.63
1555.77
1556.29
1556.7
1556.59
1556.28
1556.03
1555.13
1552.89
1549.96
1552.96
1549.55
1550.76
1553.08
1554.81
1555.41
1555.97
1555.92
1555.27
1554.75
1552.73
1550.13
1548
1545.88
1545.35
1545.53
1545.34
1544.74
1543.77
1542.41
1540.45
1539.59
1538.15
1538.34
1545.02
1553.61
1555.74
1555.6
1555.54
1554.29
1554.91
1555.4
1557.46
1557.69
1557.53
1556.43
1552.65
1549.32
1549.9
1549.53
1553.49
1553.89
1554.15
1554.5
1555.02
1555.74
1556.55
1557.26
1557.27
1557.01
1555.68
1553.69
1551.53
1549.78
1548.09
1546.36
1544.93
1543.3
1539.18
1518.39
1514
1515.05
1517.42
1533.52
1549.88
1552.62
1553.11
1551.8
1550.92
1553.81
1556.4
1557.54
1557.95
1558.29
1558.54
1556.45
1551.27
1550.36
1552.11
1550.37
1554.57
1553.8
1554.06
1554.39
1554.95
1555.8
1556.8
1558.07
1558.68
1557.36
1555.2
1553.11
1550.48
1547.94
1545.2
1542.99
1542.78
1541.59
1521.88
1510.97
1511.86
1513.07
1515.6
1518.15
1527.84
1554.5
1551.63
1535.45
1536.67
1537.97
1549.99
1550.36
1553.68
1557.56
1559.46
1559.34
1556.62
1552.6
1552.96
1555.22
1560.68
1553.44
1553.46
1553.6
1553.95
1554.69
1555.52
1557.74
1557.4
1554.82
1551.96
1549.45
1546.7
1544.06
1541.76
1527.25
1511.49
1527.43
1533.66
1533.89
1526.07
1509.45
1512.19
1530.15
1549.9
1551.84
1540.35
1534.14
1535.11
1535.42
1534.91
1535.84
1536.09
1538.56
1547.99
1544.66
1539.62
1532.87
1538.73
1559.4
1562.21
1552.93
1552.62
1552.28
1551.93
1551.83
1552.14
1553.29
1552.54
1549.59
1546.66
1544.8
1542.5
1539.65
1536.35
1511.39
1501.07
1497.73
1495.57
1496.34
1524.93
1532.86
1536.6
1540.52
1544.2
1547.52
1550.41
1553.23
1555.71
1557.42
1551.68
1544.15
1538.46
1536.76
1535.76
1535.87
1536.46
1531.71
1529.51
1530.1
1565.07
1551.95
1551.09
1549.72
1547.84
1539.39
1538.72
1546.99
1545.42
1541.96
1540.27
1539.59
1538.77
1536.98
1534.84
1526.63
1499.92
1495.06
1493.06
1492.55
1492.55
1493.65
1517.28
1535.42
1539.35
1543.1
1546.55
1549.49
1552.26
1554.71
1556.6
1558.2
1559.3
1560.09
1560.86
1561.91
1563.53
1564.65
1539.86
1528.42
1539.74
1551.42
1550.41
1548.69
1543.84
1489.38
1462.19
1485.47
1513.61
1506.16
1521.65
1533.38
1535.34
1535.74
1534.28
1531.8
1526.85
1516.63
1514.04
1510.22
1491.99
1490.98
1497.44
1529.2
1536.27
1540.28
1544.06
1547.73
1550.61
1552.98
1555.12
1556.93
1557.26
1558.18
1560.17
1561.59
1562.71
1563.53
1563.6
1536.44
1536.37
1551.8
1550.93
1549.42
1543.81
1474.79
1452.76
1452.31
1448.33
1445.67
1446.28
1476.24
1528.07
1535.73
1535.11
1533.24
1531.28
1528.94
1526.54
1525.75
1526.54
1525.64
1496.35
1499.36
1530.65
1539.66
1543.52
1546.71
1549.52
1552.06
1554.33
1556.31
1555.1
1555.96
1557.04
1560.95
1562.36
1563.04
1563.41
1561.55
1554.65
1553.01
1552.83
1551.71
1551.12
1529.84
1454.23
1453.54
1450.94
1447.81
1443.93
1447.57
1529.78
1540.01
1539.46
1538.14
1536.87
1535.69
1534.67
1534.42
1534.79
1535.53
1500.04
1497.83
1524.58
1540.89
1544.07
1546.83
1549.42
1551.84
1554.03
1556.09
1557.78
1555.97
1557.1
1560.2
1562.5
1561.84
1564.27
1564.1
1564.26
1554.08
1554.26
1552.85
1553.1
1555.57
1531.72
1471.15
1452.8
1450.92
1448.17
1483.82
1546.12
1544.98
1543.33
1542.15
1541.12
1540.28
1539.44
1538.8
1538.56
1508.71
1495.33
1497.73
1535.38
1543.89
1546.76
1548.56
1550.1
1552.07
1554.05
1556
1557.85
1558.52
1557.13
1560.07
1562.48
1560.08
1563.25
1564.8
1564.99
1554.91
1553.31
1552.69
1553.68
1556.95
1558.16
1549.76
1520.45
1478.34
1486.26
1521.63
1523.05
1521.94
1532.18
1542.53
1544.49
1543.51
1542.48
1506.16
1494.84
1495.14
1495.73
1525.33
1545.14
1546.5
1541
1539
1547.3
1552.18
1554.32
1556.3
1558.17
1559.6
1558.01
1560.66
1561.79
1558.48
1559.42
1558.15
1517.26
1555.87
1555.97
1553.47
1553.87
1554.83
1558.02
1558.62
1558.73
1555.64
1555.92
1546.95
1511
1509.78
1508.13
1506.66
1508.4
1505.27
1497.55
1497.09
1497.1
1498.16
1539.78
1546.92
1547.52
1543.7
1508.38
1509.13
1523.42
1551.39
1555.2
1557.19
1559.05
1560.52
1561.41
1561.38
1561.25
1558.61
1557.89
1531.91
1450.15
1555.78
1556.56
1556.96
1554.64
1554.88
1555.28
1556.48
1558.43
1558.44
1557.9
1555.64
1545.5
1532.48
1527.05
1526.26
1508.26
1507.21
1528.87
1499.73
1502.7
1541.17
1545.24
1545.49
1522.16
1505.34
1506.57
1507.72
1508.68
1546.15
1557.01
1559.04
1560.81
1562.28
1563.23
1563.48
1563.32
1561.42
1556.98
1467.69
1442.41
1555.96
1556.83
1557.3
1557.73
1556.77
1555.03
1555.03
1554.93
1557.68
1557.34
1556.78
1556.24
1555.62
1554.9
1553.98
1550.04
1548.96
1544.9
1536.56
1545.27
1548.07
1545.88
1505.57
1505.11
1505.86
1506.86
1507.81
1532.19
1556.98
1558.61
1560.37
1561.97
1563.38
1564.51
1565.36
1564.04
1565.39
1565.05
1449.03
1441.02
1556.02
1556.69
1557
1557.64
1558.47
1558.22
1556.05
1556.38
1557.75
1557.45
1557.11
1556.76
1556.33
1555.9
1555.42
1554.95
1545.42
1543.96
1550.87
1551.94
1551.1
1506.8
1504.07
1504.53
1505.32
1521.67
1555.8
1557.59
1558.2
1559.41
1561.05
1562.64
1564.03
1565.32
1566.91
1564.92
1568.21
1568.41
1479.91
1440.62
1555.43
1557.3
1557.96
1558.33
1559.3
1559.65
1559.26
1558.65
1558.15
1557.92
1557.67
1557.4
1557.1
1556.72
1554.89
1545.22
1544.37
1544.25
1553.66
1552.78
1524.8
1503.4
1503.47
1527.46
1556.15
1556.54
1556.98
1557.09
1554.33
1557.83
1561.09
1562.53
1564.01
1565.49
1567.45
1565.46
1569.58
1571.16
1555.28
1440.04
1558.18
1558.53
1558.91
1559.33
1559.35
1559.03
1554.48
1550.53
1557.81
1557.95
1557.99
1557.91
1557.74
1557.5
1552.94
1546.3
1545.85
1555.3
1554.92
1547.11
1507.17
1507.3
1545.11
1555.95
1556.26
1556.5
1556.92
1549.69
1547.09
1550.6
1560.2
1561.86
1563.29
1564.74
1564.2
1560.97
1567.63
1570.09
1571.52
1441.52
1560.17
1559.68
1558.11
1559.33
1559.81
1557.5
1502.91
1487.55
1497.52
1544.12
1558.23
1558.38
1558.4
1558.41
1558.33
1558.21
1558.02
1557.56
1549.62
1506.87
1506.47
1513.38
1550.66
1556.89
1556.84
1556.65
1549.82
1544.89
1545.5
1546.14
1554.88
1560.79
1562.19
1557.31
1543.84
1545.52
1563.86
1567.81
1568.93
1438.98
1481.62
1479.64
1505.57
1565.7
1540.16
1489.06
1485.8
1486.01
1485.58
1487.07
1548.79
1559.82
1559.67
1559.49
1559.18
1558.85
1558.54
1528.53
1506.38
1506.5
1506.61
1506.46
1520.65
1556.62
1556.75
1553.07
1543.62
1543.74
1543.95
1544.24
1551.18
1559.87
1561.41
1550.14
1541.55
1543.76
1562.8
1564.51
1565.36
1431.9
1564.26
1561.35
1560.58
1562.3
1497.21
1485.84
1486.07
1486.41
1486.36
1529.71
1557.65
1557.09
1554.84
1558.58
1559.94
1559.67
1552.33
1509.43
1505.69
1505.42
1505.53
1505.06
1528.27
1556.08
1555.17
1554.36
1545.01
1540.9
1540.63
1544.11
1553.18
1555.16
1556.75
1558.41
1544.73
1558.31
1560.33
1561.45
1561.15
1433.01
1562.07
1563.34
1563.28
1529.82
1486.89
1486.84
1486.75
1502.51
1535.52
1550.11
1539.74
1538.33
1537.52
1556.47
1561.27
1558.47
1554.85
1552.5
1546.46
1514.68
1520.58
1547.85
1555.71
1554.1
1552.44
1550.88
1549.2
1546.31
1543.73
1543.22
1543.13
1510.35
1511.61
1543.32
1551.11
1554.86
1555
1560.68
1559.51
1514.37
1540.09
1532.52
1528.81
1518.62
1516.97
1541.09
1556.39
1563.32
1564.37
1562.92
1561.84
1560.59
1559.31
1557.52
1550.27
1551.04
1554.07
1553.23
1554.66
1557.84
1556.84
1555.6
1553.9
1551.64
1548.96
1545.6
1541.18
1533.52
1527.64
1521.83
1476.25
1480.14
1507.09
1533.44
1509.99
1434.28
1542.59
1562.43
1559.95
1529.76
1570.36
1570.91
1563.82
1560.69
1563.17
1569.49
1569.75
1567.49
1565.5
1563.97
1561.7
1551.89
1520.52
1521.42
1538.4
1548.46
1536.33
1522.72
1528.51
1543.37
1554.15
1554.52
1553.01
1550.91
1548.28
1544.68
1540.07
1514.73
1507.76
1502.27
1489.52
1495.3
1500.17
1489.36
1380.09
1387.2
1420.81
1526.06
1530.48
1549.02
1570.23
1572.48
1572.39
1571.4
1569.9
1570.69
1569.3
1566.98
1565.12
1563.93
1560.13
1511.27
1507.15
1505.46
1504.15
1548.88
1524.89
1522.33
1521.98
1521.31
1541.84
1554.8
1553.49
1551.71
1549.36
1546.52
1515.24
1512.59
1519.91
1516.32
1515.77
1499.47
1424.02
1369.99
1374.88
1379.49
1384.79
1395.91
1506.7
1563.67
1563.95
1569.28
1568.18
1566.97
1558.96
1549.98
1548.74
1557.64
1563.24
1562.51
1541.37
1505.49
1505.53
1520.46
1556.57
1556.33
1553.31
1524.85
1522.81
1521.92
1548.26
1556.02
1554.82
1553.28
1551.22
1548.67
1501.78
1529.41
1525.86
1504.6
1405.27
1370.6
1371.05
1372.03
1372.21
1371.67
1374.05
1527.05
1553.26
1555.18
1563.75
1562.89
1542.27
1541.56
1550.32
1552.5
1546.66
1496.07
1496.17
1496.36
1495.79
1506.68
1553.91
1556.43
1555.6
1555.16
1555.04
1553.65
1534.55
1553.18
1557.85
1557.14
1556.4
1555.55
1554.42
1553.3
1506.14
1539.88
1533.81
1441.46
1371.73
1372.52
1372.81
1372.37
1370.51
1407.68
1484.94
1519.5
1529.89
1542.14
1559.09
1542.44
1535.4
1534.66
1534.02
1533.45
1553.88
1556.14
1550.93
1544.79
1549.86
1525.41
1514
1529.4
1545.44
1529.78
1536.33
1556.39
1557.95
1558.37
1558.42
1558.14
1557.47
1556.94
1557.12
1558.48
1524.02
1545.26
1541.01
1520.66
1377.53
1374.52
1376.11
1470.91
1511.18
1524.59
1521.45
1464.02
1478.81
1543.9
1554.17
1531.85
1528.23
1526.73
1525.59
1539.14
1547.4
1546.69
1545.75
1545.31
1546.16
1548.09
1549.16
1500.32
1350.07
1342.6
1376.35
1518.59
1559.31
1559.9
1559.89
1559.31
1558.13
1556.84
1555.28
1543.76
1507.7
1544.03
1538.71
1531.56
1498.73
1488.39
1527.6
1545.84
1547.86
1547.37
1498.6
1457.88
1481.71
1557.65
1548.71
1541.81
1521.11
1534.78
1539.04
1538.7
1538.67
1538.99
1538.95
1537.71
1536.57
1537.23
1542.89
1421.26
1333.48
1337.23
1339.53
1417.52
1562.02
1563.98
1563.33
1561.95
1559.86
1556.98
1552.87
1468.73
1447.29
1496.69
1217.78
1221.91
1509.13
1540.82
1544.73
1548.42
1553.31
1527.78
1495.22
1493.53
1555.44
1566.2
1542.15
1535.85
1519.77
1460.95
1473.07
1506.6
1525.57
1527.42
1524.26
1521.06
1521.26
1527.67
1499.86
1321.57
1327.38
1334.83
1339.08
1478.7
1569.13
1568.36
1567.17
1566.18
1563.95
1560.46
1554.31
1358.56
1115.61
1139.92
1061.06
1060.52
1112.91
1364.17
1531.48
1542.64
1535.96
1565.2
1567.06
1566.52
1564.95
1565.72
1506.96
1409.44
1336.88
1269.2
1272.73
1337.28
1374.07
1452.74
1523.46
1466.71
1401.72
1375.11
1311.95
1314.63
1323.74
1330.97
1335.17
1523.28
1571.39
1567.38
1569.61
1572.09
1570.3
1567.25
1558.59
1266.15
1056.66
1057.51
1056.41
1055.01
1054.79
1054
1116.07
1262.94
1428.03
1551.4
1562.28
1564.28
1564.37
1565.99
1304.12
1267.29
1266.09
1267.05
1268.97
1268.58
1267.96
1269.13
1381.7
1448.76
1326.73
1304.23
1310.94
1317.71
1323.89
1329.88
1414.42
1575.14
1576.34
1567.48
1574.46
1577.8
1577.05
1575.93
1573.63
1357.81
1056.33
1055.59
1055.01
1053.89
1054.01
1053.35
1052.34
1094.93
1405.26
1531.31
1568.44
1568.46
1542.99
1543.29
1270.7
1269.8
1269.02
1269.04
1269.7
1268.39
1265.86
1264.36
1265.31
1329.43
1501.81
1311.81
1315.29
1321.16
1325.81
1369.46
1569.72
1582.48
1573.29
1572.16
1580.88
1583.43
1583.56
1583.82
1583.83
1548.64
1182.55
1055.64
1055.43
1054.23
1054.7
1053.28
1052.69
1217.18
1459.1
1546.74
1575.56
1558.63
1538.26
1538.31
1272.52
1271.13
1270.03
1319.21
1425.38
1310.39
1267.25
1265.19
1273.17
1510.77
1549.56
1512.32
1429.11
1399.45
1462.89
1561.2
1585.8
1587.54
1575.03
1586.67
1587.55
1588.23
1588.59
1589.39
1590.29
1590.97
1530.05
1268.13
1166.73
1115.16
1056.2
1082.65
1230.32
1421.13
1550.39
1571.39
1569.23
1547.96
1542.12
1542.4
1274.37
1274.41
1344.38
1564.45
1566.65
1527.24
1298.57
1278.52
1296.64
1538.67
1564.37
1569.24
1571.7
1572.63
1573.99
1574.97
1526.33
1496.43
1588.15
1588.94
1589.7
1590.83
1591.27
1592.19
1593.54
1594.7
1595.6
1585.97
1543.29
1398.47
1327.31
1470.19
1559.16
1578.94
1591.99
1573.13
1559.78
1559.45
1545.75
1545.75
1292.05
1285.55
1532.92
1569.16
1571.04
1571.56
1572.95
1414.77
1308.69
1314.84
1317.87
1338.64
1467.32
1494.18
1431.14
1416.29
1417.85
1420.3
1585.81
1593.64
1594.14
1593.43
1592.79
1591.79
1589.9
1596.01
1596.99
1584.3
1543.67
1502.13
1590.12
1596.99
1596.49
1595.34
1593.89
1591.95
1590.65
1590.05
1573.52
1558.78
1370.74
1309.63
1562.72
1571.48
1573.29
1575.24
1577.74
1580.85
1584.62
1587.15
1474.81
1339.95
1342.34
1345.32
1348.79
1352.61
1501.75
1591.76
1596.88
1597.45
1598.9
1593.43
1508.73
1427.24
1423.73
1495.24
1504.43
1415
1445.13
1576.54
1593.51
1592.83
1592.07
1591.52
1590.76
1588.04
1580.7
1586.13
1587.45
1585.86
1507.28
1463.7
1553.57
1573.79
1577.09
1580.62
1584.26
1587.65
1590.66
1593.6
1594.78
1573.08
1552.2
1552.62
1563.55
1579.29
1599.52
1599.32
1588.97
1588.77
1596.27
1555.84
1418.41
1417.98
1416.92
1415.02
1412.76
1410.44
1409.14
1578.57
1589.44
1588.38
1587.08
1586.95
1588.09
1580.26
1528.41
1549.59
1588.08
1586.58
1561.13
1565.9
1559.65
1562.21
1581.61
1587.58
1592.26
1596.16
1599.78
1603.31
1605.94
1600.67
1597.51
1603.9
1604.37
1604.64
1604.48
1600.34
1594.05
1593.73
1598.13
1592.26
1474.97
1420.81
1418.8
1415.96
1413.55
1410.17
1406.34
1536.26
1591.04
1590.02
1588.88
1589.69
1591.35
1570.83
1527.45
1527.45
1582.35
1577.35
1558.18
1565.57
1566.46
1508.22
1503.21
1577
1598.6
1589.75
1584.02
1604.12
1614.03
1617.23
1617.92
1614.31
1595.81
1594.96
1597.96
1613.42
1613.79
1614.31
1607.79
1603.07
1601.41
1496.72
1422.07
1418.56
1416.01
1412.71
1409.37
1536.33
1595.88
1594.07
1593.16
1593.52
1594.68
1536.58
1528.44
1530.73
1587.36
1580.91
1550.85
1562.05
1570.42
1504.3
1477.3
1482.52
1510.81
1522.61
1515.8
1571.12
1618.12
1621.37
1617.47
1604
1584.69
1602.18
1615.33
1615.49
1615.92
1616.52
1617.28
1613.89
1606.05
1601.89
1524.92
1455.02
1428.42
1423.74
1479.66
1588.38
1599.23
1596.77
1595.61
1596.27
1555.18
1529.52
1530.31
1573.4
1597.24
1585.77
1534.35
1550.26
1564.97
1579.2
1532.91
1483.09
1472.48
1476.44
1478.06
1495.95
1550.49
1585.62
1518.63
1533.51
1561.2
1604.23
1617.16
1616.86
1617.24
1617.78
1618.16
1608.54
1593.01
1592.68
1590.88
1589.1
1588.16
1586.77
1600.45
1605.57
1603.03
1601.04
1600.28
1573.58
1530.37
1531.75
1534.61
1597.99
1601.05
1590.24
1483.1
1533.53
1555.43
1574.06
1590.25
1601.21
1560.74
1498.67
1478.11
1480.18
1482
1493.72
1476.41
1475.14
1548.4
1597.21
1610.67
1618.37
1618.11
1618.1
1616.78
1616.43
1617.72
1596.73
1587.85
1586.23
1594.11
1612.01
1611.19
1609.06
1607.19
1605.74
1571.7
1531.97
1533.2
1545.35
1605.8
1608.07
1601.23
1597.54
1349.03
1490.65
1553.63
1568.73
1582.21
1595.1
1605.66
1614.59
1565.52
1482.38
1492.76
1513.66
1485.02
1473.66
1484.76
1549.11
1587.78
1613.34
1617.75
1617.51
1617.14
1616.85
1616.65
1616.71
1604.5
1585.74
1595.35
1613.22
1611.9
1610.64
1608.04
1552
1535.82
1535.73
1562.69
1611.18
1612.55
1607.72
1595.56
1607.49
1350.42
1476.45
1551.06
1566.11
1576.24
1588.72
1600.92
1611.6
1618.92
1497.15
1590
1620.05
1618.21
1517.08
1475.49
1474.1
1472.27
1517.2
1565.55
1596.13
1612.98
1615.01
1614.68
1613.41
1613.53
1612.32
1583.94
1559.23
1596.8
1611.78
1598
1536.29
1536.46
1565.95
1612.39
1613.89
1613.44
1609.29
1601.69
1607.19
1535.22
1542.71
1553.19
1563.78
1573.22
1584.3
1596.49
1607.72
1617.05
1560.61
1533.36
1608.43
1621.35
1619.72
1569.89
1516.13
1483.83
1473.7
1472.31
1471.06
1526.89
1592.28
1611.41
1610.97
1610.21
1591.54
1555.67
1556.52
1556.71
1556.45
1557.37
1581.61
1597.66
1597.94
1580.39
1521.59
1604.96
1606.79
1606.29
1598.44
1539.7
1544.2
1550.65
1558.59
1566.48
1577
1590.13
1600.95
1609.6
1612.31
1498.51
1453.35
1584.32
1615.69
1614.98
1613.68
1612.48
1553.14
1471.88
1467.39
1467.26
1470.1
1585.97
1612.38
1611.12
1601.01
1588.67
1585.05
1586.43
1583.84
1597.43
1605.29
1603.98
1588.45
1431.46
1406.04
1485.76
1603.95
1605.24
1556.58
1535.74
1537.3
1538.19
1509.74
1483.34
1507.57
1562.39
1584.72
1593.79
1599.57
1562.09
1417.29
1414.1
1573.51
1609.46
1608.99
1608.44
1607.86
1607.25
1550.06
1481.16
1465.05
1492.87
1598.45
1608.44
1608.25
1607.6
1605.85
1602.73
1606.36
1606.14
1603.07
1531.32
1405.61
1396.86
1398.78
1398.91
1549.64
1609.46
1551.77
1510.57
1423.13
1279.31
1061.31
977.505
1193
1521.2
1564.23
1573.84
1577.72
1582.96
1477.19
1394.33
1396.95
1568.27
1603.34
1604.83
1604.6
1602.11
1600.95
1600.7
1562.71
1523.15
1540.67
1512.83
1483.55
1460.38
1458.98
1493.91
1602.9
1604.76
1604.01
1435.11
1391.44
1393.3
1395.36
1396.91
1400.56
1529.26
1521.33
1217.31
958.675
859.423
859.258
858.695
1027.41
1496.33
1554.05
1563.03
1535.24
1563.29
1564.49
1566.94
1294.86
1424.68
1589.27
1594.89
1596.95
1580.3
1578
1583.78
1590.53
1579.5
1583.75
1583.8
1586.81
1591.21
1533.45
1485.67
1486.48
1591.08
1612.09
1504.73
1390.66
1392.9
1394.21
1395.36
1396.4
1396.91
1486.65
997.759
851.829
847.345
844.027
844.995
1185.27
1495.74
1552.91
1564.02
1548.68
1356.56
1505.22
1560.86
1165.45
1198.89
1519.84
1584.58
1588.68
1591.34
1593.17
1595.74
1597.17
1598.81
1462.97
1185.23
1409.08
1575.76
1588.39
1493.45
1515.16
1610.16
1615.61
1570.26
1392.76
1393.32
1394.03
1394.67
1395.03
1395.68
1502.07
1187.93
843.791
839.282
835.142
1174.78
1492.21
1519.67
1559.24
1573.98
1582.31
1296.66
1027.98
1131.21
805.414
823.574
1158.01
1567.64
1587.58
1590.75
1593.17
1595.25
1596.9
1598.14
1360.3
1139.92
1139.93
1198.01
1552.37
1577.54
1587.2
1605.56
1617.17
1612.07
1455.52
1393.18
1393.33
1394.53
1394.15
1395.65
1565.58
1451.33
870.002
835.704
924.704
1486.81
1537.63
1544.08
1564.31
1583.52
1596.26
1523.05
829.428
756.534
752.916
813.741
1381.15
1591.39
1592.59
1593.23
1594.28
1594.47
1595
1288.63
1129.46
1132.17
1133.54
1135.04
1347.54
1584
1475.15
1615.55
1617.63
1617.55
1592.58
1411.16
1392.69
1393.74
1393.12
1486.98
1619.44
1403.03
848.369
830.818
966.788
1478.41
1548.38
1559.2
1570.78
1585.22
1599.79
1606.51
1128.81
740.803
741.811
741.509
1198.67
1597.71
1597.69
1598.38
1597.27
1499.95
1152.14
1123.59
1125.57
1127.17
1128.64
1356.25
1434.15
1414.21
1380.28
1610.74
1616.84
1617.73
1618.66
1576.62
1427.99
1394.19
1472.06
1616.07
1621.57
915.749
822.733
824.459
875.877
1432.76
1549.99
1561.05