/*--------------------------------*- C++ -*----------------------------------*\
  =========                 |
  \\      /  F ield         | OpenFOAM: The Open Source CFD Toolbox
   \\    /   O peration     | Website:  https://openfoam.org
    \\  /    A nd           | Version:  8
     \\/     M anipulation  |
\*---------------------------------------------------------------------------*/
FoamFile
{
    version     2.0;
    format      ascii;
    class       surfaceScalarField;
    location    "7.9";
    object      phi;
}
// * * * * * * * * * * * * * * * * * * * * * * * * * * * * * * * * * * * * * //

dimensions      [0 3 -1 0 0 0 0];

internalField   nonuniform List<scalar> 
18095
(
1.97936e-08
-1.71977e-07
1.52184e-07
2.31359e-08
-1.97603e-07
1.94261e-07
2.04064e-08
-2.06192e-07
2.08921e-07
1.21161e-08
-2.11322e-07
2.19612e-07
5.48006e-10
-2.1321e-07
2.24778e-07
-1.1632e-08
-2.13043e-07
2.25223e-07
-2.05269e-08
-2.10967e-07
2.19861e-07
-2.31684e-08
-2.06121e-07
2.08762e-07
-1.9798e-08
-1.97592e-07
1.94222e-07
-1.71975e-07
1.52177e-07
1.55733e-08
-1.87551e-07
1.61384e-08
-1.98168e-07
1.18286e-08
-2.01882e-07
5.95234e-09
-2.05446e-07
-4.77016e-10
-2.06781e-07
-6.53533e-09
-2.06984e-07
-1.19984e-08
-2.05503e-07
-1.61959e-08
-2.01923e-07
-1.5587e-08
-1.98201e-07
-1.87561e-07
6.82802e-09
-1.94379e-07
8.40197e-09
-1.99742e-07
7.41805e-09
-2.00898e-07
4.43172e-09
-2.0246e-07
3.04594e-10
-2.02653e-07
-4.17615e-09
-2.02503e-07
-7.41283e-09
-2.02267e-07
-8.39653e-09
-2.0094e-07
-6.82525e-09
-1.99772e-07
-1.94387e-07
4.53914e-09
-1.98918e-07
4.73754e-09
-1.9994e-07
3.69273e-09
-1.99853e-07
1.60653e-09
-2.00373e-07
-2.70675e-10
-2.00776e-07
-1.90736e-09
-2.00867e-07
-3.67651e-09
-2.00498e-07
-4.73031e-09
-1.99886e-07
-4.53312e-09
-1.99969e-07
-1.9892e-07
1.0823e-09
1.14185e-09
1.2888e-09
9.15437e-10
1.39316e-10
-7.27451e-10
-1.22507e-09
-1.11085e-09
-1.0802e-09
-2.76541e-08
-1.96395e-07
2.24049e-07
-2.98245e-08
-1.99068e-07
2.01238e-07
-2.4486e-08
-2.01714e-07
1.96376e-07
-1.30427e-08
-2.02076e-07
1.90633e-07
1.42289e-09
-2.02472e-07
1.88007e-07
1.51504e-08
-2.01847e-07
1.88119e-07
2.55423e-08
-2.00934e-07
1.90542e-07
3.00968e-08
-2.00693e-07
1.96138e-07
2.77016e-08
-1.98603e-07
2.00999e-07
-1.96199e-07
2.23901e-07
-9.68131e-09
-1.86714e-07
-1.51967e-08
-1.93553e-07
-1.30573e-08
-2.03854e-07
-6.63196e-09
-2.08501e-07
-1.04314e-09
-2.08061e-07
4.77911e-09
-2.07669e-07
1.17402e-08
-2.07895e-07
1.48855e-08
-2.03838e-07
9.67743e-09
-1.93395e-07
-1.86522e-07
-9.90686e-09
-1.76807e-07
-8.26049e-09
-1.95199e-07
-7.47148e-09
-2.04643e-07
-5.97061e-09
-2.10002e-07
-4.18911e-10
-2.13613e-07
5.40386e-09
-2.13492e-07
7.09806e-09
-2.09589e-07
7.87861e-09
-2.04619e-07
9.69156e-09
-1.95208e-07
-1.7683e-07
-6.8048e-09
-1.70002e-07
-8.64e-09
-1.93364e-07
-7.90205e-09
-2.05381e-07
-3.24611e-09
-2.14658e-07
-8.54051e-10
-2.16005e-07
1.86043e-09
-2.16206e-07
7.1161e-09
-2.14844e-07
8.16543e-09
-2.05668e-07
6.64524e-09
-1.93688e-07
-1.70185e-07
-1.78185e-08
-1.69212e-08
-1.33806e-08
-8.42647e-09
3.4663e-10
9.36323e-09
1.43802e-08
1.74747e-08
1.80084e-08
2.95167e-08
-1.58868e-07
1.29351e-07
3.60586e-08
-1.99414e-07
1.92872e-07
3.03952e-08
-2.1054e-07
2.16203e-07
1.59487e-08
-2.13646e-07
2.28093e-07
-3.71232e-10
-2.16569e-07
2.32889e-07
-1.57323e-08
-2.16352e-07
2.31713e-07
-2.9741e-08
-2.14781e-07
2.2879e-07
-3.57022e-08
-2.11039e-07
2.17e-07
-2.88956e-08
-1.99615e-07
1.92808e-07
-1.59178e-07
1.30282e-07
1.55805e-08
-1.74449e-07
1.79145e-08
-2.01748e-07
1.43837e-08
-2.0701e-07
8.74451e-09
-2.08007e-07
-1.23795e-12
-2.07823e-07
-8.57707e-09
-2.07776e-07
-1.45136e-08
-2.08845e-07
-1.81437e-08
-2.07408e-07
-1.56012e-08
-2.02157e-07
-1.74779e-07
8.58624e-09
-1.83035e-07
8.76464e-09
-2.01926e-07
7.5805e-09
-2.05825e-07
2.84012e-09
-2.03266e-07
-8.20015e-11
-2.04901e-07
-2.95671e-09
-2.04902e-07
-7.35919e-09
-2.04442e-07
-8.47666e-09
-2.06291e-07
-8.43683e-09
-2.02197e-07
-1.83215e-07
8.49074e-09
-1.91526e-07
5.90601e-09
-1.99342e-07
6.90337e-09
-2.06823e-07
3.40055e-09
-1.99764e-07
1.31476e-09
-2.02815e-07
-6.79273e-10
-2.02908e-07
-5.91493e-09
-1.99207e-07
-5.51638e-09
-2.06689e-07
-8.34682e-09
-1.99367e-07
-1.91562e-07
3.25237e-08
3.44204e-08
2.39733e-08
1.48425e-08
3.42542e-11
-1.47543e-08
-2.34194e-08
-3.39705e-08
-3.23385e-08
-2.28042e-09
-3.49031e-09
5.77073e-09
3.15075e-09
-5.42979e-09
3.75545e-09
-6.04719e-10
-6.42541e-09
1.01809e-08
-1.40405e-08
7.61508e-09
-1.12718e-08
-2.76874e-09
-6.81381e-09
-4.45795e-09
-3.16072e-09
-3.6531e-09
-1.83995e-09
-1.32078e-09
2.02675e-09
-3.86671e-09
-1.22718e-08
8.53645e-09
2.44971e-10
-1.43351e-08
-3.36705e-09
-1.1475e-08
-3.46511e-09
-3.58432e-09
2.2899e-09
2.0374e-09
1.99317e-09
2.37677e-09
-3.10826e-09
-2.2514e-09
1.7009e-10
-1.09885e-08
5.08388e-09
-2.2195e-08
9.88566e-09
1.4314e-08
-3.44823e-08
-1.93063e-08
1.66359e-08
1.12068e-08
-2.02686e-08
-2.4049e-09
-1.82698e-08
-5.46392e-09
-1.41072e-08
-1.87273e-09
-1.1379e-08
-7.34993e-10
-1.71739e-08
2.68662e-09
-2.82504e-08
1.12465e-08
-4.008e-08
1.69135e-08
-5.21692e-08
2.19748e-08
3.21934e-08
-7.00486e-08
-2.53922e-08
2.05061e-08
2.1522e-08
-2.90257e-08
1.22857e-09
-3.08266e-08
-3.66308e-09
-3.15703e-08
-1.12913e-09
-3.51815e-08
2.87621e-09
-4.28345e-08
1.03395e-08
-4.88985e-08
1.73104e-08
-5.46526e-08
2.26677e-08
-6.85531e-08
3.58752e-08
4.92853e-08
-8.5645e-08
-2.77371e-08
2.64099e-08
2.18333e-08
-3.17863e-08
5.27767e-09
-3.51534e-08
-2.95989e-10
-3.66647e-08
3.82126e-10
-3.88888e-08
5.10032e-09
-4.3278e-08
1.47286e-08
-4.85075e-08
2.25399e-08
-5.81679e-08
3.23281e-08
-7.09042e-08
4.86115e-08
5.73444e-08
-7.89634e-08
-3.64187e-08
2.93279e-08
3.35007e-08
-3.82973e-08
7.15624e-09
-4.07139e-08
2.12064e-09
-4.17962e-08
1.46436e-09
-4.10923e-08
4.39645e-09
-4.27594e-08
1.63957e-08
-4.94126e-08
2.9193e-08
-6.46231e-08
4.75386e-08
-7.48928e-08
5.88811e-08
6.04314e-08
-7.79798e-08
-4.1513e-08
3.12966e-08
3.95442e-08
-4.42801e-08
9.92327e-09
-4.63236e-08
4.16413e-09
-4.74937e-08
2.6344e-09
-4.68971e-08
3.79981e-09
-4.30074e-08
1.2506e-08
-4.56494e-08
3.1835e-08
-5.98807e-08
6.17698e-08
-7.12678e-08
7.02682e-08
6.24925e-08
-7.3329e-08
-4.24792e-08
3.86318e-08
3.5144e-08
-4.98833e-08
1.73272e-08
-5.57342e-08
1.0015e-08
-5.81953e-08
5.09537e-09
-5.71664e-08
2.77094e-09
-5.08573e-08
6.19677e-09
-4.36918e-08
2.46695e-08
-4.19147e-08
5.99927e-08
-4.10417e-08
6.93952e-08
5.83012e-08
-3.68505e-08
-3.444e-08
5.32777e-08
1.9794e-08
-5.02391e-08
3.31262e-08
-6.26736e-08
2.24494e-08
-7.28632e-08
1.5285e-08
-7.62199e-08
6.12752e-09
-7.47114e-08
4.68823e-09
-6.41548e-08
1.41128e-08
-4.53176e-08
4.11554e-08
-2.91434e-08
5.32209e-08
4.96222e-08
-2.04645e-08
1.89874e-08
5.16976e-08
-1.74073e-08
2.33345e-09
4.97798e-08
-1.97246e-08
4.45073e-08
-4.1012e-08
3.65723e-08
-5.95642e-08
2.46796e-08
-7.12819e-08
1.64059e-08
-7.08419e-08
1.36726e-08
-5.49434e-08
2.52568e-08
-3.7805e-08
3.60825e-08
3.62691e-08
-2.44519e-08
8.50281e-08
3.68871e-08
-7.02177e-08
8.46885e-08
5.01192e-08
7.98008e-08
4.93949e-08
6.54812e-08
5.08918e-08
4.50991e-08
4.50616e-08
1.95409e-08
4.1964e-08
-3.41321e-09
3.66266e-08
-1.14418e-08
3.32854e-08
-8.50501e-09
3.31455e-08
3.28068e-08
-5.04277e-09
1.27282e-07
3.09053e-08
-1.213e-07
1.32922e-07
4.44788e-08
1.28296e-07
5.40214e-08
1.22458e-07
5.67295e-08
1.14082e-07
5.3437e-08
9.69356e-08
5.91105e-08
6.95166e-08
6.40455e-08
4.05334e-08
6.22685e-08
2.46036e-08
4.90753e-08
3.99644e-08
1.74459e-08
1.43578e-07
2.91176e-08
-1.4179e-07
1.42098e-07
4.59582e-08
1.36909e-07
5.92105e-08
1.30393e-07
6.32458e-08
1.1614e-07
6.76898e-08
1.00741e-07
7.45095e-08
8.51827e-08
7.96033e-08
6.79147e-08
7.95365e-08
4.80689e-08
6.89209e-08
5.32217e-08
3.48115e-08
1.20135e-07
2.43392e-08
-1.15356e-07
1.17018e-07
4.90749e-08
1.10862e-07
6.53663e-08
1.02087e-07
7.20209e-08
9.00473e-08
7.9729e-08
7.30353e-08
9.15214e-08
5.91707e-08
9.34679e-08
4.87242e-08
8.99828e-08
3.943e-08
7.8215e-08
6.27974e-08
2.98543e-08
1.6819e-08
2.53029e-08
-1.77828e-08
1.5696e-08
5.01977e-08
1.41169e-08
6.69454e-08
6.8752e-09
7.92626e-08
-2.79105e-09
8.93952e-08
-6.00548e-09
9.47358e-08
-3.99399e-09
9.14563e-08
-4.86671e-10
8.64755e-08
5.42704e-09
7.23013e-08
5.88833e-08
9.34101e-09
-9.74038e-08
3.53922e-08
8.73145e-08
-9.97241e-08
5.2518e-08
-9.91246e-08
6.63459e-08
-9.6409e-08
7.65469e-08
-8.71281e-08
8.01143e-08
-7.32383e-08
8.08459e-08
-6.06732e-08
7.88911e-08
-4.4135e-08
6.99372e-08
-2.91948e-08
5.7361e-08
4.54926e-08
-1.58041e-08
-1.44251e-07
4.39974e-08
1.35646e-07
-1.4207e-07
5.03366e-08
-1.33041e-07
5.73171e-08
-1.21566e-07
6.50717e-08
-1.0698e-07
6.55284e-08
-9.20514e-08
6.59173e-08
-7.71224e-08
6.39621e-08
-6.22016e-08
5.50164e-08
-4.87022e-08
4.38617e-08
3.21969e-08
-3.54065e-08
-1.40956e-07
4.85606e-08
1.36392e-07
-1.42424e-07
5.18049e-08
-1.36042e-07
5.09353e-08
-1.2096e-07
4.99892e-08
-1.06477e-07
5.10458e-08
-9.25738e-08
5.20141e-08
-7.79586e-08
4.93469e-08
-6.56913e-08
4.27491e-08
-5.57907e-08
3.39611e-08
2.43069e-08
-4.79006e-08
-1.18801e-07
5.8669e-08
1.08692e-07
-1.22783e-07
5.57877e-08
-1.21531e-07
4.96831e-08
-1.12871e-07
4.13294e-08
-1.00707e-07
3.88815e-08
-8.71987e-08
3.8506e-08
-7.5753e-08
3.79012e-08
-6.70323e-08
3.40284e-08
-6.06885e-08
2.76173e-08
2.03913e-08
-5.67729e-08
-4.55256e-08
7.01238e-08
3.4071e-08
-5.75388e-08
6.78008e-08
-7.11133e-08
6.32577e-08
-7.91885e-08
4.94046e-08
-7.81727e-08
3.78657e-08
-6.90207e-08
2.9354e-08
-6.15156e-08
3.03962e-08
-5.74671e-08
2.998e-08
-5.50537e-08
2.52039e-08
2.02891e-08
-5.49515e-08
1.19482e-08
6.42131e-08
-6.03749e-09
1.60926e-08
6.36563e-08
1.40589e-08
6.52913e-08
1.05822e-09
6.24053e-08
-1.17484e-08
5.06723e-08
-1.94638e-08
3.70694e-08
-2.16229e-08
3.25553e-08
-2.42459e-08
3.2603e-08
-3.12987e-08
3.22568e-08
2.8843e-08
-3.98527e-08
4.60415e-08
5.66388e-08
-3.84673e-08
4.94618e-08
6.02359e-08
5.61802e-08
5.85728e-08
5.85579e-08
6.00276e-08
5.45611e-08
5.46691e-08
4.3018e-08
4.86125e-08
3.30824e-08
4.24909e-08
2.68533e-08
3.8832e-08
2.21427e-08
3.69674e-08
3.59798e-08
1.50058e-08
1.22429e-07
5.41058e-08
-1.19896e-07
1.19345e-07
6.33204e-08
1.09325e-07
6.8592e-08
1.00183e-07
6.91697e-08
9.20701e-08
6.27822e-08
8.21043e-08
5.85783e-08
6.98099e-08
5.47852e-08
5.69272e-08
5.17146e-08
4.71393e-08
4.67553e-08
4.26376e-08
4.04814e-08
1.96953e-07
2.10743e-08
-1.63922e-07
1.89855e-07
7.04189e-08
1.7566e-07
8.27869e-08
1.63985e-07
8.08441e-08
1.5069e-07
7.60773e-08
1.37019e-07
7.22493e-08
1.18505e-07
7.32988e-08
9.44926e-08
7.57272e-08
7.00639e-08
7.11839e-08
5.73968e-08
5.53047e-08
1.97864e-07
-3.30134e-09
-1.73488e-07
1.90378e-07
7.79048e-08
1.76573e-07
9.65913e-08
1.67937e-07
8.94799e-08
1.65415e-07
7.85998e-08
1.62406e-07
7.52577e-08
1.57557e-07
7.8148e-08
1.43103e-07
9.01803e-08
1.21176e-07
9.31106e-08
8.15963e-08
9.69768e-08
1.2353e-07
-8.45687e-09
-1.18375e-07
1.47353e-07
5.40816e-08
1.57179e-07
8.67656e-08
1.66428e-07
8.02309e-08
1.73443e-07
7.15849e-08
1.74312e-07
7.43886e-08
1.67098e-07
8.53618e-08
1.57429e-07
9.98486e-08
1.50451e-07
1.00089e-07
9.21753e-08
1.39872e-07
6.55665e-08
-6.03621e-09
-6.79873e-08
8.59352e-08
3.37126e-08
1.1692e-07
5.57806e-08
1.6347e-07
3.36805e-08
1.75881e-07
5.91734e-08
1.59632e-07
9.06381e-08
1.40769e-07
1.04225e-07
1.38648e-07
1.01968e-07
1.43538e-07
9.5199e-08
8.46911e-08
1.51023e-07
-6.5173e-09
-2.27662e-08
2.32471e-08
2.63472e-08
8.47662e-10
6.73631e-08
1.47645e-08
7.52809e-08
2.57625e-08
7.50117e-08
5.94425e-08
6.97042e-08
9.59454e-08
7.62143e-08
9.77145e-08
1.0107e-07
7.71125e-08
1.37699e-07
5.85697e-08
6.78213e-08
1.54569e-07
-1.43609e-07
-3.43079e-08
1.55151e-07
-1.26928e-07
-1.5834e-08
-1.21725e-07
9.56143e-09
-1.26486e-07
3.05229e-08
-1.14522e-07
4.7479e-08
-7.40091e-08
5.54319e-08
-2.45983e-08
4.83037e-08
1.31865e-08
3.93276e-08
6.51514e-08
6.60479e-09
5.92774e-09
1.27045e-07
-2.6959e-07
-3.05185e-08
2.65801e-07
-2.73011e-07
-1.24132e-08
-2.59096e-07
-4.35415e-09
-2.21642e-07
-6.93094e-09
-1.62651e-07
-1.15121e-08
-9.6048e-08
-1.11711e-08
-3.33097e-08
-1.44348e-08
1.8551e-08
-1.25332e-08
5.01352e-08
-2.49794e-08
-3.40815e-08
9.01443e-08
-2.85851e-07
-3.27639e-08
2.88096e-07
-2.76163e-07
-2.21008e-08
-2.60416e-07
-2.01013e-08
-2.40715e-07
-2.66323e-08
-2.14412e-07
-3.78147e-08
-1.80696e-07
-4.48877e-08
-1.48755e-07
-4.63759e-08
-1.17263e-07
-4.40249e-08
-9.60766e-08
-4.6166e-08
-4.81276e-08
-8.20305e-08
-2.88281e-07
-2.4041e-08
2.79558e-07
-2.85154e-07
-2.5228e-08
-2.76923e-07
-2.83322e-08
-2.66108e-07
-3.74476e-08
-2.48372e-07
-5.55501e-08
-2.21905e-07
-7.13553e-08
-1.92191e-07
-7.60893e-08
-1.61498e-07
-7.4718e-08
-1.37609e-07
-7.00548e-08
-7.10112e-08
-1.14726e-07
-2.01315e-07
-1.64466e-08
1.93721e-07
-2.09812e-07
-1.67305e-08
-2.16635e-07
-2.15097e-08
-2.17132e-07
-3.69508e-08
-2.0374e-07
-6.89418e-08
-1.77183e-07
-9.79128e-08
-1.43772e-07
-1.095e-07
-1.05158e-07
-1.13332e-07
-7.74056e-08
-9.78074e-08
-1.02388e-07
-4.6029e-08
-1.99649e-07
-1.21678e-08
1.9537e-07
-1.98691e-07
-1.76881e-08
-1.88727e-07
-3.14741e-08
-1.61035e-07
-6.46436e-08
-1.32655e-07
-9.73216e-08
-1.03591e-07
-1.26977e-07
-7.29414e-08
-1.4015e-07
-3.6243e-08
-1.5003e-07
7.70596e-09
-1.41756e-07
-1.4091e-07
4.6228e-08
-1.67121e-07
-1.00833e-08
1.65036e-07
-1.34507e-07
-5.03023e-08
-9.18895e-08
-7.40915e-08
-3.11939e-08
-1.25339e-07
2.00735e-08
-1.48589e-07
5.58649e-08
-1.62768e-07
8.2031e-08
-1.66316e-07
1.06088e-07
-1.74088e-07
1.36968e-07
-1.72636e-07
-1.6767e-07
1.63728e-07
1.75794e-08
-1.29148e-08
-1.4748e-08
3.90354e-08
-7.17582e-08
7.68126e-08
-1.11869e-07
1.18344e-07
-1.66871e-07
1.54727e-07
-1.84972e-07
1.743e-07
-1.82341e-07
1.87455e-07
-1.79471e-07
1.99592e-07
-1.86225e-07
2.12602e-07
-1.85645e-07
-1.80827e-07
2.25759e-07
1.65805e-07
-6.31673e-08
-1.15553e-07
1.81188e-07
-8.71411e-08
1.94758e-07
-1.25439e-07
1.95354e-07
-1.67467e-07
1.9693e-07
-1.86547e-07
2.02878e-07
-1.88289e-07
2.14121e-07
-1.90714e-07
2.27968e-07
-2.00072e-07
2.41696e-07
-1.99373e-07
-1.91619e-07
2.52488e-07
1.4511e-07
-1.05482e-07
-1.02795e-07
1.75794e-07
-1.17825e-07
1.94823e-07
-1.44469e-07
1.95215e-07
-1.67859e-07
1.87218e-07
-1.78551e-07
1.92482e-07
-1.93553e-07
2.1067e-07
-2.08902e-07
2.29386e-07
-2.18789e-07
2.42327e-07
-2.12313e-07
-2.00765e-07
2.51473e-07
9.0227e-08
-1.23121e-07
-7.25881e-08
1.13526e-07
-1.41124e-07
1.09591e-07
-1.40533e-07
9.02989e-08
-1.48567e-07
8.65025e-08
-1.74754e-07
1.06735e-07
-2.13785e-07
1.37708e-07
-2.39875e-07
1.62105e-07
-2.43186e-07
1.85065e-07
-2.35273e-07
-2.20906e-07
2.05205e-07
3.61521e-08
-1.26137e-07
-3.31361e-08
2.17636e-08
-1.26735e-07
1.02461e-08
-1.29016e-07
4.48016e-09
-1.42801e-07
2.65354e-08
-1.9681e-07
6.3922e-08
-2.51172e-07
9.26088e-08
-2.68561e-07
1.1707e-07
-2.67647e-07
1.41952e-07
-2.60156e-07
-2.45735e-07
1.66781e-07
-2.02072e-08
-1.18613e-07
1.26831e-08
-3.39852e-08
-1.12957e-07
-5.07446e-08
-1.12256e-07
-4.05116e-08
-1.53034e-07
-1.06225e-09
-2.36259e-07
2.80718e-08
-2.80306e-07
4.40051e-08
-2.84495e-07
5.73799e-08
-2.81022e-07
7.52725e-08
-2.78048e-07
-2.68505e-07
9.8042e-08
-1.00322e-07
-8.52144e-08
6.69234e-08
-1.32256e-07
-8.10231e-08
-1.29813e-07
-1.14699e-07
-8.81487e-08
-1.94698e-07
-6.82178e-08
-2.5619e-07
-7.63079e-08
-2.72216e-07
-8.66276e-08
-2.74175e-07
-8.56895e-08
-2.8196e-07
-7.8859e-08
-2.84879e-07
-2.68717e-07
-7.86467e-08
-2.28606e-07
-6.67851e-08
2.10177e-07
-1.98321e-07
-1.11308e-07
-1.46189e-07
-1.66831e-07
-1.19804e-07
-2.21083e-07
-1.36381e-07
-2.39613e-07
-1.64391e-07
-2.44206e-07
-1.83649e-07
-2.54917e-07
-1.97174e-07
-2.68435e-07
-2.1222e-07
-2.69833e-07
-2.48715e-07
-2.32222e-07
-2.49271e-07
-1.15804e-07
2.9829e-07
-2.02533e-07
-1.58045e-07
-1.76614e-07
-1.9275e-07
-1.87637e-07
-2.10059e-07
-2.15296e-07
-2.11954e-07
-2.41814e-07
-2.17688e-07
-2.65244e-07
-2.31486e-07
-2.89313e-07
-2.44366e-07
-3.11214e-07
-2.47933e-07
-2.3397e-07
-3.25959e-07
-2.66762e-07
-1.35019e-07
2.85977e-07
-2.7083e-07
-1.53976e-07
-2.90262e-07
-1.73318e-07
-3.15149e-07
-1.85172e-07
-3.35838e-07
-1.91266e-07
-3.55441e-07
-1.98085e-07
-3.8036e-07
-2.06568e-07
-4.03873e-07
-2.20853e-07
-4.25305e-07
-2.265e-07
-2.19524e-07
-4.39752e-07
-4.30283e-07
-9.53183e-08
3.90582e-07
-4.51821e-07
-1.32439e-07
-4.59325e-07
-1.65814e-07
-4.61018e-07
-1.83479e-07
-4.62787e-07
-1.89496e-07
-4.69451e-07
-1.91422e-07
-4.79925e-07
-1.96093e-07
-4.94681e-07
-2.06097e-07
-5.09635e-07
-2.11546e-07
-2.12084e-07
-5.17075e-07
-6.14582e-07
-5.79923e-08
5.77255e-07
-5.98183e-07
-1.48837e-07
-5.7899e-07
-1.85006e-07
-5.65956e-07
-1.96513e-07
-5.55914e-07
-1.99539e-07
-5.49816e-07
-1.97519e-07
-5.47176e-07
-1.98733e-07
-5.49686e-07
-2.03587e-07
-5.5372e-07
-2.07512e-07
-2.12152e-07
-5.53652e-07
-6.84374e-07
-6.98957e-08
6.96278e-07
-6.72499e-07
-1.60712e-07
-6.63408e-07
-1.94096e-07
-6.50458e-07
-2.09463e-07
-6.3272e-07
-2.17277e-07
-6.12966e-07
-2.17273e-07
-5.97276e-07
-2.14424e-07
-5.87168e-07
-2.13695e-07
-5.77471e-07
-2.17208e-07
-2.21798e-07
-5.67826e-07
-7.1711e-07
-6.54559e-08
7.12671e-07
-7.25273e-07
-1.5255e-07
-7.25472e-07
-1.93897e-07
-7.22287e-07
-2.12648e-07
-7.15028e-07
-2.24537e-07
-6.99214e-07
-2.33087e-07
-6.76009e-07
-2.37629e-07
-6.48334e-07
-2.4137e-07
-6.2158e-07
-2.43963e-07
-2.45483e-07
-5.97894e-07
-6.98469e-07
-4.51569e-08
6.78171e-07
-7.18047e-07
-1.32973e-07
-7.30305e-07
-1.81639e-07
-7.34921e-07
-2.08031e-07
-7.34481e-07
-2.24977e-07
-7.31552e-07
-2.36017e-07
-7.28045e-07
-2.41135e-07
-7.12118e-07
-2.57297e-07
-6.82887e-07
-2.73195e-07
-2.81048e-07
-6.47322e-07
-5.80431e-07
-3.70664e-08
5.72341e-07
-5.91098e-07
-1.22305e-07
-6.20233e-07
-1.52504e-07
-6.56393e-07
-1.71871e-07
-6.76239e-07
-2.05131e-07
-6.89519e-07
-2.22736e-07
-7.08125e-07
-2.22529e-07
-7.17503e-07
-2.47919e-07
-7.03126e-07
-2.87572e-07
-3.10546e-07
-6.73628e-07
-1.69833e-07
-5.49818e-08
1.87748e-07
-2.02016e-07
-9.01226e-08
-2.51052e-07
-1.03468e-07
-3.10868e-07
-1.12055e-07
-3.76015e-07
-1.39984e-07
-4.19178e-07
-1.79574e-07
-4.80735e-07
-1.60972e-07
-5.80602e-07
-1.48052e-07
-6.22469e-07
-2.45706e-07
-3.08639e-07
-6.24375e-07
2.36588e-07
-7.32871e-08
-2.18282e-07
2.64052e-07
-1.17586e-07
2.8582e-07
-1.25236e-07
2.7058e-07
-9.68145e-08
1.82084e-07
-5.14888e-08
5.34967e-08
-5.09866e-08
-5.72315e-08
-5.02436e-08
-2.47147e-07
4.18627e-08
-4.20944e-07
-7.19088e-08
-2.96174e-07
-4.33409e-07
3.05629e-07
-7.167e-08
-3.07246e-07
2.7727e-07
-8.92275e-08
2.50415e-07
-9.838e-08
2.40881e-07
-8.72807e-08
2.21369e-07
-3.19772e-08
1.6307e-07
7.31275e-09
4.45853e-08
6.82417e-08
-9.172e-08
1.78168e-07
-1.36685e-07
-2.69426e-08
-2.87335e-07
-1.45524e-07
1.47328e-07
-9.01273e-08
-1.2887e-07
1.76339e-07
-1.18239e-07
1.60869e-07
-8.29101e-08
8.47264e-08
-1.1138e-08
3.26048e-08
2.01443e-08
-5.44009e-08
9.43183e-08
-1.62159e-07
1.75999e-07
-1.78298e-07
1.94307e-07
-4.28506e-08
-1.62392e-07
-3.31414e-07
1.2283e-09
-1.86903e-07
-4.5204e-08
1.41979e-07
-2.35918e-07
-6.92231e-08
-2.83336e-07
-3.54919e-08
-3.31715e-07
3.72415e-08
-3.40764e-07
2.91938e-08
-2.85394e-07
3.89501e-08
-1.92098e-07
8.27052e-08
-1.61385e-08
1.83476e-08
5.68911e-08
-2.35421e-07
-3.43348e-07
6.88243e-08
-4.09272e-07
-7.03739e-09
3.71105e-07
-4.47416e-07
-3.10789e-08
-4.45402e-07
-3.75068e-08
-3.64283e-07
-4.3878e-08
-3.15484e-07
-1.96068e-08
-1.85307e-07
-9.12276e-08
-5.88681e-08
-4.37346e-08
8.2363e-08
-1.22884e-07
8.66186e-08
-2.39677e-07
-3.42194e-07
8.54645e-08
-1.78391e-07
-6.26929e-08
2.34047e-07
-1.37086e-07
-7.23828e-08
-9.38966e-08
-8.0695e-08
-2.56859e-08
-1.12088e-07
2.16478e-08
-6.69403e-08
3.3879e-08
-1.03459e-07
7.20771e-08
-8.19326e-08
7.59288e-08
-1.26736e-07
8.28726e-08
-2.4662e-07
-3.35296e-07
7.5975e-08
-5.00964e-08
-1.17781e-07
1.05185e-07
-7.76864e-09
-1.14711e-07
2.24911e-08
-1.10955e-07
2.77415e-08
-1.17339e-07
4.53345e-08
-8.45334e-08
4.83387e-08
-1.06463e-07
7.27007e-08
-1.06295e-07
6.71026e-08
-1.21138e-07
7.52885e-08
-2.54806e-07
-3.34721e-07
7.47126e-08
1.78644e-08
-1.59777e-07
2.41316e-08
4.79675e-08
-1.44814e-07
7.15117e-08
-1.34499e-07
8.12279e-08
-1.27055e-07
1.11553e-07
-1.14858e-07
1.18713e-07
-1.13623e-07
1.21192e-07
-1.08774e-07
1.32735e-07
-1.32681e-07
1.51901e-07
-2.73972e-07
-3.20543e-07
1.37724e-07
8.34839e-08
-1.92475e-07
-5.07862e-08
1.08008e-07
-1.69338e-07
1.31138e-07
-1.57629e-07
1.6304e-07
-1.58957e-07
2.03072e-07
-1.54891e-07
2.32682e-07
-1.43232e-07
2.77799e-07
-1.53891e-07
3.28424e-07
-1.83306e-07
3.11644e-07
-2.57192e-07
-2.94158e-07
2.8526e-07
1.80233e-07
-2.08109e-07
-1.64599e-07
1.93883e-07
-1.82987e-07
2.01665e-07
-1.65411e-07
2.23266e-07
-1.80558e-07
2.64872e-07
-1.96496e-07
3.17085e-07
-1.95444e-07
3.81655e-07
-2.18461e-07
4.3411e-07
-2.35761e-07
4.31125e-07
-2.54209e-07
-2.76417e-07
4.13384e-07
2.09541e-07
-2.12321e-07
-2.05329e-07
2.17898e-07
-1.91344e-07
2.33621e-07
-1.81135e-07
2.48573e-07
-1.9551e-07
2.84188e-07
-2.32111e-07
3.55338e-07
-2.66593e-07
4.23915e-07
-2.87038e-07
4.66515e-07
-2.78361e-07
4.83275e-07
-2.70968e-07
-2.73444e-07
4.80303e-07
2.18554e-07
-2.05358e-07
-2.25516e-07
2.22703e-07
-1.95494e-07
2.37748e-07
-1.9618e-07
2.65049e-07
-2.22812e-07
3.14763e-07
-2.81825e-07
3.64425e-07
-3.16256e-07
4.01336e-07
-3.23949e-07
4.4259e-07
-3.19616e-07
4.71877e-07
-3.00255e-07
-2.88083e-07
4.86517e-07
2.25199e-07
-2.04874e-07
-2.25683e-07
2.33995e-07
-2.0429e-07
2.54258e-07
-2.16444e-07
2.86433e-07
-2.54987e-07
3.16821e-07
-3.12213e-07
3.42577e-07
-3.42011e-07
3.70779e-07
-3.5215e-07
3.99844e-07
-3.48682e-07
4.21484e-07
-3.21895e-07
-3.0092e-07
4.34321e-07
2.40562e-07
-2.10394e-07
-2.35042e-07
2.70427e-07
-2.34154e-07
2.98861e-07
-2.44878e-07
3.17892e-07
-2.74017e-07
3.31769e-07
-3.26091e-07
3.53406e-07
-3.63648e-07
3.73882e-07
-3.72626e-07
3.84482e-07
-3.59282e-07
3.90257e-07
-3.27671e-07
-2.95495e-07
3.84832e-07
3.42238e-07
-2.12293e-07
-3.4034e-07
3.54642e-07
-2.46558e-07
3.68585e-07
-2.58821e-07
3.7192e-07
-2.77353e-07
3.74993e-07
-3.29164e-07
3.83043e-07
-3.71698e-07
3.8887e-07
-3.78452e-07
3.84875e-07
-3.55288e-07
3.79653e-07
-3.22448e-07
-3.25513e-07
4.0967e-07
5.10559e-07
-1.6494e-07
-5.57914e-07
4.76473e-07
-2.12469e-07
4.54197e-07
-2.36546e-07
4.38406e-07
-2.61563e-07
4.23415e-07
-3.14173e-07
4.08544e-07
-3.56827e-07
3.87738e-07
-3.57646e-07
3.7367e-07
-3.4122e-07
3.90883e-07
-3.3966e-07
-3.73245e-07
4.38616e-07
5.6925e-07
-1.19181e-07
-6.15011e-07
5.31802e-07
-1.75018e-07
4.983e-07
-2.03045e-07
4.74996e-07
-2.3826e-07
4.52729e-07
-2.91905e-07
4.23564e-07
-3.27661e-07
3.8226e-07
-3.16342e-07
3.72373e-07
-3.31333e-07
3.96948e-07
-3.64235e-07
-4.85441e-07
5.09144e-07
5.62093e-07
-1.03877e-07
-5.77399e-07
5.33046e-07
-1.4597e-07
5.02144e-07
-1.72142e-07
4.78469e-07
-2.14586e-07
4.57293e-07
-2.70728e-07
4.06941e-07
-2.77308e-07
3.8699e-07
-2.96391e-07
3.69273e-07
-3.13615e-07
4.4978e-07
-4.44742e-07
-5.95738e-07
5.60078e-07
5.15924e-07
-1.06771e-07
-5.13029e-07
4.95358e-07
-1.25404e-07
4.73813e-07
-1.50597e-07
4.69836e-07
-2.10608e-07
4.44348e-07
-2.45241e-07
4.30765e-07
-2.63725e-07
3.91293e-07
-2.5692e-07
3.98975e-07
-3.21297e-07
4.9434e-07
-5.40107e-07
-6.4195e-07
5.40552e-07
4.79652e-07
-9.68656e-08
-4.89557e-07
4.61495e-07
-1.07248e-07
4.53216e-07
-1.42317e-07
4.3991e-07
-1.97302e-07
4.20047e-07
-2.25378e-07
3.63045e-07
-2.06723e-07
3.18484e-07
-2.1236e-07
4.15496e-07
-4.18309e-07
4.78437e-07
-6.03047e-07
-6.50325e-07
4.86812e-07
4.0013e-07
-1.07415e-07
-3.8958e-07
4.12048e-07
-1.19166e-07
4.21992e-07
-1.52261e-07
4.16171e-07
-1.91481e-07
3.86608e-07
-1.95816e-07
3.61815e-07
-1.81931e-07
3.93841e-07
-2.44386e-07
4.75527e-07
-4.99994e-07
4.96447e-07
-6.23968e-07
-6.36087e-07
4.82209e-07
3.78614e-07
-1.30533e-07
-3.55496e-07
4.02281e-07
-1.42831e-07
4.08324e-07
-1.58305e-07
3.86577e-07
-1.69735e-07
3.56919e-07
-1.66159e-07
3.5412e-07
-1.79131e-07
4.53805e-07
-3.44072e-07
5.20869e-07
-5.67058e-07
5.27301e-07
-6.304e-07
-6.15595e-07
5.0681e-07
4.14049e-07
-1.65053e-07
-3.7953e-07
4.13139e-07
-1.41922e-07
3.82629e-07
-1.27795e-07
3.42444e-07
-1.2955e-07
3.24433e-07
-1.48147e-07
3.86243e-07
-2.40941e-07
5.20371e-07
-4.78199e-07
5.56386e-07
-6.03073e-07
5.39451e-07
-6.13465e-07
-5.4879e-07
4.72646e-07
3.48323e-07
-1.86821e-07
-3.26555e-07
2.27323e-07
-2.0922e-08
1.90615e-07
-9.10889e-08
1.89357e-07
-1.28293e-07
2.35685e-07
-1.94474e-07
4.07986e-07
-4.13241e-07
5.27518e-07
-5.97731e-07
5.49156e-07
-6.24711e-07
5.14704e-07
-5.79012e-07
-4.26631e-07
3.92546e-07
2.49642e-08
-2.83176e-08
-1.83468e-07
-1.20768e-08
1.61207e-08
2.20125e-08
-1.25178e-07
5.97761e-08
-1.66057e-07
2.29555e-07
-3.64253e-07
4.17018e-07
-6.00704e-07
4.74604e-07
-6.55317e-07
4.63199e-07
-6.13306e-07
3.59623e-07
-4.75436e-07
-3.22841e-07
2.55833e-07
-1.51953e-07
7.39606e-08
4.96747e-08
-4.09044e-08
-9.49268e-08
1.0906e-08
-1.76988e-07
9.66379e-08
-2.51789e-07
2.69023e-07
-5.36638e-07
3.52264e-07
-6.83946e-07
3.5246e-07
-6.55513e-07
2.60537e-07
-5.21383e-07
1.19256e-07
-3.34155e-07
-2.50162e-07
4.65768e-08
2.36321e-08
3.49517e-08
1.53771e-08
4.75595e-08
-1.18853e-07
1.83178e-08
-1.47747e-07
1.01177e-07
-3.34647e-07
1.9859e-07
-6.34051e-07
2.16498e-07
-7.01854e-07
1.86493e-07
-6.25508e-07
5.13768e-08
-3.86267e-07
-6.89681e-09
-2.75881e-07
-1.88764e-07
-6.8295e-08
8.43359e-08
-6.43861e-08
1.50022e-08
5.20859e-08
-8.66034e-08
2.05086e-08
-1.1617e-07
6.43987e-08
-3.78537e-07
1.03522e-07
-6.73174e-07
9.77504e-08
-6.96083e-07
5.01398e-08
-5.77897e-07
-4.41336e-08
-2.91993e-07
-7.58835e-08
-2.44131e-07
-1.22045e-07
-1.42602e-07
-2.32034e-08
-7.91341e-08
3.79514e-08
-3.64904e-08
-7.33176e-08
-4.8841e-08
-1.03819e-07
3.72057e-08
-4.64584e-07
4.84226e-08
-6.84391e-07
5.43533e-08
-7.02013e-07
3.32588e-08
-5.56802e-07
-3.8635e-08
-2.20099e-07
-8.67719e-08
-1.95994e-07
-7.53251e-08
-1.33491e-07
-1.29616e-08
-8.57078e-08
1.9535e-08
-1.73599e-09
-8.45436e-08
-1.54608e-08
-9.00934e-08
-7.9562e-09
-4.72088e-07
-4.70096e-09
-6.87646e-07
-5.51118e-09
-7.01203e-07
-2.09685e-08
-5.41345e-07
-8.50771e-08
-1.55991e-07
-1.24683e-07
-1.56388e-07
-3.46308e-08
-1.65378e-07
-3.6882e-08
-9.23416e-08
4.35155e-08
-4.3138e-08
-7.82876e-08
-2.21465e-08
-1.11085e-07
-9.19264e-09
-4.85042e-07
-1.65836e-08
-6.80255e-07
-3.19321e-08
-6.85855e-07
-4.37673e-08
-5.2951e-07
-1.42871e-07
-5.68876e-08
-2.2896e-07
-7.02993e-08
-4.76366e-08
-2.15955e-07
-2.95015e-08
-9.32697e-08
3.04295e-08
-3.22912e-08
-7.54974e-08
-1.10709e-08
-1.32305e-07
-1.86566e-08
-4.77456e-07
-2.64958e-08
-6.72416e-07
-4.0972e-08
-6.71379e-07
-2.00006e-08
-5.50482e-07
-2.37262e-09
-7.45156e-08
-2.70699e-08
-4.5602e-08
-2.73964e-08
-4.73102e-08
-4.4156e-09
-9.46744e-08
5.82047e-09
-1.68128e-09
-7.8232e-08
-9.99207e-09
-1.23995e-07
-4.41084e-10
-4.87007e-07
1.33198e-09
-6.74189e-07
-2.30002e-09
-6.67747e-07
2.62651e-08
-5.79047e-07
1.08588e-07
-1.56838e-07
1.02053e-07
-3.90668e-08
9.33142e-09
6.53252e-08
4.26398e-09
-8.83102e-08
-1.06282e-08
7.76109e-09
-8.17293e-08
-2.41272e-08
-9.21063e-08
1.28702e-08
-5.24005e-07
8.51345e-09
-6.69832e-07
8.00389e-09
-6.67237e-07
1.42631e-08
-5.85306e-07
-1.56923e-08
-1.26883e-07
-3.98555e-08
-1.49034e-08
3.46263e-08
-6.515e-08
1.84124e-08
-8.52823e-08
-2.14405e-08
2.26923e-08
-8.60083e-08
-3.79319e-09
-6.56207e-08
1.46248e-08
-5.42423e-07
-1.09075e-09
-6.54117e-07
-6.1187e-09
-6.62209e-07
-1.30746e-08
-5.7835e-07
-7.22192e-08
-6.77383e-08
-7.85385e-08
-8.58417e-09
1.14833e-08
-5.53955e-08
6.27076e-08
-6.00076e-08
-8.79822e-08
2.35414e-08
-4.68419e-08
-3.04362e-08
-1.16431e-08
-9.66328e-09
-5.63196e-07
-1.12545e-08
-6.52526e-07
-2.59615e-08
-6.47502e-07
-2.18144e-08
-5.82497e-07
-6.67162e-08
-2.28363e-08
-1.48251e-08
-6.04749e-08
-1.38703e-08
1.05287e-08
1.36457e-07
-1.66911e-08
-1.79773e-07
7.20084e-08
1.76065e-08
-1.68448e-08
7.72102e-08
1.94783e-08
-5.99519e-07
1.18455e-11
-6.33059e-07
-1.43349e-08
-6.33156e-07
2.84655e-09
-5.99679e-07
-2.88775e-08
8.8878e-09
-4.54722e-08
-4.38801e-08
1.46562e-09
-6.08082e-08
-7.5468e-08
-4.83019e-08
1.07079e-07
-5.65727e-08
-1.28909e-09
-1.86265e-08
3.92638e-08
3.0042e-10
-6.18446e-07
-2.59174e-09
-6.30167e-07
-3.99165e-09
-6.31756e-07
1.95697e-08
-6.2324e-07
7.55987e-09
2.08981e-08
-6.2614e-08
2.62941e-08
2.36081e-08
-8.47568e-08
-1.1854e-07
-2.43417e-07
3.13655e-07
-1.56038e-07
3.62092e-08
4.73497e-08
-1.64124e-07
3.09768e-08
-6.02073e-07
1.29993e-09
-6.00491e-07
-3.51144e-08
-5.95342e-07
-3.37447e-08
-6.2461e-07
1.46794e-07
-1.59641e-07
-2.16461e-07
3.8955e-07
1.46471e-07
-3.39322e-07
4.71809e-07
-1.10179e-07
-6.05045e-07
-6.04901e-08
5.68529e-07
7.74797e-08
-3.02093e-07
4.42622e-08
-5.68857e-07
4.98496e-09
-5.61213e-07
-3.04296e-08
-5.59927e-07
-9.64578e-08
-5.58582e-07
2.37288e-07
-4.93388e-07
3.71216e-07
2.55625e-07
2.44729e-07
2.72966e-07
-1.8209e-08
9.78419e-08
-1.89812e-07
-6.96073e-08
6.19928e-07
8.07331e-08
-4.52416e-07
3.53847e-08
-5.23508e-07
-6.43151e-09
-5.19397e-07
-4.17277e-08
-5.24631e-07
-7.88075e-08
-5.21502e-07
-1.38849e-08
-5.5831e-07
2.30376e-07
1.13446e-08
1.32696e-07
3.42409e-07
-3.85694e-08
2.77099e-07
-1.40685e-07
5.45953e-08
5.26717e-07
7.10915e-08
-4.68922e-07
3.8842e-08
-4.91258e-07
6.73606e-09
-4.87291e-07
-3.19515e-08
-4.85943e-07
-6.81218e-08
-4.85332e-07
-1.45071e-07
-4.8136e-07
3.56875e-08
-1.69407e-07
-8.70917e-09
1.77095e-07
-2.42052e-07
1.80304e-07
3.38848e-07
1.12896e-07
1.71811e-07
7.66168e-08
-4.32637e-07
3.27084e-08
-4.4735e-07
-2.85098e-09
-4.51732e-07
-3.83155e-08
-4.50479e-07
-7.60241e-08
-4.47623e-07
-1.21173e-07
-4.36212e-07
-9.21214e-08
-1.98462e-07
-7.5915e-08
-2.49122e-08
-2.1822e-07
1.34689e-08
3.85044e-07
1.38257e-07
-1.84696e-07
9.28798e-08
-3.87251e-07
5.13712e-08
-4.05841e-07
4.73278e-09
-4.05093e-07
-4.28411e-08
-4.02905e-07
-8.70874e-08
-4.03377e-07
-1.35848e-07
-3.87451e-07
-9.86765e-08
-2.35634e-07
-1.39809e-07
-3.47904e-08
1.4118e-08
-8.82321e-08
8.75823e-08
1.27069e-07
-2.97688e-07
8.14404e-08
-3.41621e-07
3.19799e-08
-3.56381e-07
-7.90128e-09
-3.65212e-07
-4.48223e-08
-3.65984e-07
-8.84987e-08
-3.59701e-07
-1.35063e-07
-3.40887e-07
-7.30805e-08
-2.97612e-07
-1.56413e-07
-5.64686e-08
1.67773e-07
-1.34523e-07
-1.21484e-07
1.50569e-07
-2.80524e-07
1.06383e-07
-2.97435e-07
6.24715e-08
-3.12469e-07
7.37873e-09
-3.10119e-07
-4.94922e-08
-3.09113e-07
-9.92748e-08
-3.09918e-07
-1.43266e-07
-2.96895e-07
-1.62205e-07
-2.78672e-07
-1.49907e-07
-1.68712e-07
2.07153e-07
-2.35178e-07
-1.06497e-07