/*--------------------------------*- C++ -*----------------------------------*\
  =========                 |
  \\      /  F ield         | OpenFOAM: The Open Source CFD Toolbox
   \\    /   O peration     | Website:  https://openfoam.org
    \\  /    A nd           | Version:  8
     \\/     M anipulation  |
\*---------------------------------------------------------------------------*/
FoamFile
{
    version     2.0;
    format      ascii;
    class       volScalarField;
    location    "3.4";
    object      p_rgh;
}
// * * * * * * * * * * * * * * * * * * * * * * * * * * * * * * * * * * * * * //

dimensions      [1 -1 -2 0 0 0 0];

internalField   nonuniform List<scalar> 
9150
(
1963.65
1962.65
1962.03
1961.56
1961.32
1961.32
1961.55
1962.03
1962.64
1963.65
1963.22
1962.7
1962.29
1961.97
1961.79
1961.78
1961.95
1962.28
1962.7
1963.22
1962.95
1962.66
1962.41
1962.19
1962.08
1962.08
1962.2
1962.41
1962.66
1962.95
1962.83
1962.65
1962.48
1962.32
1962.25
1962.24
1962.33
1962.48
1962.65
1962.83
1962.83
1962.65
1962.51
1962.38
1962.32
1962.32
1962.39
1962.51
1962.65
1962.83
1951.94
1951.05
1951.28
1951.72
1951.88
1951.88
1951.71
1951.28
1951.06
1951.95
1955.93
1955.21
1955.02
1954.95
1955.06
1955.07
1954.98
1955.04
1955.24
1955.96
1959.03
1958.29
1957.98
1957.62
1957.55
1957.56
1957.61
1957.98
1958.27
1959.02
1961.75
1960.63
1960.18
1959.55
1959.38
1959.37
1959.53
1960.17
1960.6
1961.73
1964.38
1962.31
1961.56
1960.84
1960.57
1960.59
1960.84
1961.55
1962.3
1964.38
1947.4
1945.76
1943.71
1942.71
1942.23
1942.27
1942.83
1943.88
1945.69
1947.21
1946.47
1946.23
1945.24
1944.89
1944.42
1944.38
1944.79
1945.09
1946.08
1946.31
1946.06
1946.15
1945.1
1945.43
1945
1945.01
1945.49
1945.04
1946.06
1945.96
1942.83
1945.59
1944.59
1946.12
1945.87
1945.86
1946.04
1944.49
1945.52
1942.73
1936.38
1946.18
1946.57
1948.04
1948.4
1948.42
1948.07
1946.56
1946.17
1936.35
698.256
698.695
698.78
698.637
698.046
696.959
695.131
692.573
689.499
685.802
697.881
698.525
697.68
696.587
695.818
694.395
692.391
689.5
685.843
681.619
699.625
699.239
698.1
698.125
694.24
694.371
691.801
687.561
683.031
678.299
700.088
703.365
706.657
698.98
699.007
693.901
692.141
682.621
675.576
670.862
685.347
690.646
692.216
695.135
694.327
692.021
686.09
667.026
648.648
640.855
623.571
624.72
648.191
662.121
666.408
668.139
642.428
613.656
576.429
573.292
569.987
561.003
600.186
627.107
622.982
610.833
589.068
552.367
523.658
532.313
568.34
552.688
545.267
587.882
569.443
549.27
530.31
523.864
483.95
495.637
572.108
556.232
565.929
553.758
517.956
488.762
475.725
471.473
449.22
473.571
605.455
604.705
576.235
517.492
444.074
417.243
479.367
428.294
447.63
487.613
585.493
567.448
544.174
495.739
401.924
404.346
506.877
555.524
571.972
585.483
552.699
555.571
558.137
521.612
410.862
410.678
422.434
477.705
466.905
513.499
553.292
563.768
571.907
579.125
492.037
412.855
413.282
413.85
415.283
416.345
555.189
571.718
583.409
593.873
597.443
461.375
416.027
416.792
418.34
420.012
535.907
581.62
595.814
605.697
614.61
590.803
414.395
415.559
416.451
419.254
508.1
591.736
607.002
617.467
627.176
628.873
479.417
415.594
417.376
457.381
530.799
600.024
608.551
609.313
638.493
644.428
563.561
412.892
414.899
434.646
587.589
615.567
602.964
610.007
649.396
653.365
646.769
504.631
420.871
425.896
611.631
632.175
639.177
624.223
661.991
664.056
664.785
664.265
597.675
551.49
616.851
649.317
658.739
635.659
624.295
674.085
673.626
673.037
671.784
671.784
629.797
659.047
667.978
647.999
602.367
679.645
679.111
678.231
677.268
676.873
643.348
652.666
657.14
593.409
591.827
681.76
681.965
681.013
656.947
657.513
629.244
600.84
529.286
440.737
602.37
677.807
681.558
683.754
662.024
660.739
482.099
358.537
316.864
345.536
552.227
676.644
679.712
683.246
687.274
688.244
291.729
297.623
301.154
361.387
588.057
675.747
676.49
677.84
636.143
615.96
274.732
282.407
443.69
586.153
643.172
665.041
664.5
582.53
468.331
484.525
264.089
515.971
549.756
534.295
487.906
462.168
387.186
301.607
382.203
481.39
265.075
489.092
491.872
252.907
189.06
169.554
160.118
164.653
406.529
560.048
186.548
230.739
166.734
141.342
145.638
149.464
152.483
152.857
207.165
540.999
201.216
155.848
137.93
140.863
144.422
147.604
150.309
152.806
216.319
526.488
420.721
286.956
143.531
143.642
145.005
146.812
176.457
334.067
556.407
596.381
641.534
429.48
154.247
150.064
148.778
225.363
518.591
647.456
629.81
611.318
632.312
251.044
161.944
159.709
222.309
607.416
684.525
669.307
583.612
363.387
484.884
175.087
170.453
164.678
583.527
704.188
688.41
579.343
232.126
185.333
631.225
213.142
186.414
403.24
720.269
713.17
691.046
253.305
192.505
183.21
786.38
342.07
208.686
609.294
736.218
737.692
638.165
230.998
214.521
202.663
240.753
225.567
311.213
761.557
772.582
769.404
682.982
326.325
266.562
551.576
208.492
279.164
773.244
813.906
785.004
748.615
730.097
424.897
327.795
775.497
789.335
850.935
855.203
779.088
749.247
728.252
728.776
422.476
289.582
768.815
858.98
658.326
593.488
659.673
757.936
734.071
695.193
260.745
161.721
385.75
585.331
499.581
620.661
730.319
760.086
719.677
422.103
111.85
121.211
158.817
603.589
481.996
478.121
620.554
667.7
707.5
200.418
74.459
165.048
173.885
808.897
596.84
306.634
244.784
602.644
702.729
114.009
62.5225
144.03
138.875
863.702
758.734
309.484
171.374
666.366
646.899
90.0568
57.9267
23.3593
19.7602
865.616
677.335
253.896
139.438
630.831
660.62
56.5418
2.43165
2.23964
2.51131
656.071
557.224
252.215
114.031
598.157
663.074
24.3085
7.48833
2.12091
2.36269
453.863
484.364
181.727
45.28
591.547
632.732
6.26334
9.04577
2.31063
2.29241
134.684
202.044
55.1381
3.01504
608.437
607.675
1.9205
11.1451
4.27445
3.47212
0.986942
10.8432
14.1884
2.2719
613.012
608.805
2.65274
6.43839
7.0051
6.86528
1.17806
1.1547
1.3298
1.49748
605.829
637.809
2.49799
0.200712
0.0802304
0.0845404
1.62683
1.10511
1.19717
1.20065
645.087
650.256
-0.227728
-0.206705
-0.158142
-0.202162
0.843637
0.977829
1.34877
1.20166
712.116
709.467
-0.136923
-0.111935
0.0832969
-0.146835
0.633725
0.623625
9.58581
3.95615
781.516
786.22
-0.093748
-0.0981062
0.126592
-0.0679986
0.586211
0.589887
21.4955
7.50501
832.387
839.229
1.50801
-0.151334
0.139834
-0.0865833
0.572596
0.566301
23.769
22.7587
864.185
867.802
21.0805
-0.138668
0.148396
-0.173549
0.565871
0.911117
24.039
49.258
895.545
870.121
48.5334
-0.0989147
-0.0225171
-0.167029
0.550556
4.86463
24.0137
70.6219
880.869
917.11
73.5758
-0.177064
0.187746
-0.162122
0.489729
8.43419
19.5451
79.6848
896.096
931.735
82.6394
-0.229079
0.198828
0.0724906
0.420099
0.423123
1.20254
82.9743
946.288
907.706
69.3846
-0.113436
0.135465
0.145204
0.372714
0.366795
0.367729
50.9253
939.619
943.168
53.1324
-0.132269
0.023522
0.119543
0.357496
0.352859
0.355512
32.6872
935.072
949.004
33.2697
-0.173107
0.393427
0.00424256
0.35492
0.345013
0.334755
24.8169
943.034
933.543
21.2037
-0.13229
0.443425
-0.0181403
0.362705
0.608377
0.318025
23.4357
966.047
924.728
17.5317
-0.0522294
0.497792
-0.0859668
0.584808
2.06028
0.426669
24.0667
961.579
959.323
19.4088
-0.0899534
0.42006
-0.110093
2.03562
2.19349
0.494635
27.2637
1006.94
1013.49
28.6752
-0.134656
0.442172
-0.0772551
2.46474
2.24436
0.576818
53.4287
1087.61
1086.69
54.2756
-0.172513
0.411672
-0.0602717
2.50972
2.33786
0.61067
99.8904
1154.72
1152.56
98.8281
-0.207257
0.16749
-0.211701
2.55611
2.26212
0.641365
145.181
1191.1
1197.24
145.188
-0.259016
-0.178485
-0.256543
2.5913
2.14431
0.668682
171.607
1200.61
1231.83
175.479
-0.322579
-0.142073
-0.290943
1.32061
0.958556
0.588861
178.188
1214.04
1249.93
188.82
-0.376345
-0.019369
-0.244999
1.33877
0.916973
0.464548
179.978
1255.41
1238.98
173.387
-0.325103
-0.0593772
-0.306645
0.87887
0.678242
0.436319
156.181
1264.72
1252.5
154.697
-0.314379
-0.311956
-0.303793
0.43533
0.45278
0.455097
135.63
1255.99
1267.22
137.354
-0.335785
-0.271409
-0.309077
0.450497
0.449984
0.47917
126.796
1253.22
1292.54
130.331
-0.363218
-0.244909
-0.288884
0.399443
0.413574
0.427701
126.599
1284.78
1295.73
128.148
-0.313863
-0.263138
-0.165784
0.374467
0.382751
0.390692
140.777
1329.42
1334.68
143.607
-0.274917
-0.226942
-0.139257
0.345447
0.404572
0.351901
203.979
1394.31
1388.01
199.466
-0.240844
-0.21624
-0.119695
0.320888
0.483081
0.324743
276.669
1440.81
1441.29
275.982
-0.229815
-0.207276
-0.207336
0.309644
0.805407
0.2901
330.386
1475.02
1476.03
329.494
-0.217974
-0.169484
-0.126653
0.29656
0.889449
0.279403
357.667
1500.03
1499.14
356.49
-0.201115
-0.140144
-0.108002
1.10403
0.887263
0.303071
368.789
1522.4
1518.25
367.145
-0.182326
-0.134545
-0.0922421
1.09352
0.576074
0.293018
371.698
1541.56
1541.29
370.671
-0.174234
-0.116615
-0.112868
0.907128
0.9053
0.260041
370.624
1563.47
1563.33
369.61
-0.161823
-0.0822942
-0.010543
1.29238
1.17961
0.259219
403.726
1594.56
1595.34
405.493
-0.15208
-0.0597866
0.0666596
1.29577
0.934435
0.239447
518.011
1634.46
1636.61
520.957
-0.145919
-0.123845
0.0732245
1.28075
0.688924
0.207529
663.592
1670.25
1673.14
665.418
-0.146411
-0.142896
-0.121729
0.864489
0.416556
0.18586
799.488
1697.59
1700.65
799.109
-0.13975
-0.136431
-0.13663
0.166479
0.153618
0.150442
899.278
1720.81
1720.09
895.144
-0.123886
-0.123698
-0.125017
0.140897
0.143824
0.143636
969.912
1738.38
1744.43
967.753
-0.116182
-0.112992
-0.113258
0.13087
0.132448
0.134619
1035.52
1759.37
1766.81
1037.56
-0.10719
-0.101787
-0.101884
0.119218
0.123549
0.114367
1180.23
1785.82
1779.3
1084.51
-0.0991378
-0.0969244
-0.089118
0.104513
0.107913
10.705
1418.54
1801.91
1796.15
1072.11
-0.0914141
-0.0942693
-0.069261
0.0823863
0.0856807
69.8973
1457.34
1817.07
1817.78
1459.39
9.00641
-0.0786089
-0.0590857
0.0875831
0.0758372
130.717
1545.1
1834.28
1836.75
1667.12
251.963
-0.0715737
-0.0651892
0.119568
0.0623466
331.882
1723.36
1853.45
1855.69
1771.57
484.108
-0.0624962
-0.0600565
0.0565661
0.0563647
629.8
1813.88
1872.73
1873.53
1860.65
865.368
-0.0511882
-0.0500757
0.0490075
0.0606786
1183.06
1892.05
1892.62
1892.26
1890.89
1240.01
-0.0342789
-0.0392736
0.038291
87.0746
1573.48
1909.46
1911.07
1911.42
1910.85
1736.15
243.648
-0.0277412
0.0225853
1041.86
1925.88
1927.03
1926.67
1926.87
1926.73
1926.06
1124.84
-0.0193351
599.047
1869.05
1939.71
1937.83
1936.94
1936.68
1937.28
1939.14
1878.34
642.67
680.879
675.615
671.527
667.895
665.542
660.17
663.139
657.479
660.073
660.03
660.614
661.62
662.864
664.574
665.62
666.55
665.231
662.813
657.667
651.274
643.171
634.065
624.804
616.693
610.674
604.681
599.547
596.55
597.944
604.652
614.85
624.305
632.217
639.256
644.822
648.894
652.16
654.789
656.73
658.854
676.734
671.852
667.6
662.884
657.921
656.13
654.933
653.764
653.611
657.579
658.897
660.393
661.444
662.873
663.701
664.725
664.244
661.908
656.448
649.064
641.217
631.502
620.191
609.715
603.189
596.214
590.15
587.046
589.473
598.328
607.226
617.34
625.814
632.577
637.888
641.576
644.116
645.339
647.665
650.064
673.249
668.059
663.49
659.952
655.955
648.576
648.316
647.903
647.332
647.226
654.762
658.778
659.71
659.7
659.534
659.087
658.095
654.064
648.337
642.385
636.069
626.707
613.684
603.719
598.687
588.531
581.368
579.305
585.023
590.643
599.295
608.547
617.153
624.368
630.01
634.364
636.588
638.304
639.036
644.187
666.576
662.168
658.299
655.67
653.885
653.312
646.226
640.961
641.785
643.205
652.478
653.891
654.128
654.25
653.133
651.641
649.488
645.603
638.812
631.158
623.325
615.891
604.542
590.207
579.819
567.267
560.608
557.124
559.708
578.544
589.887
600.087
609.519
617.376
623.556
628.166
629.819
631.305
632.512
639.265
642.02
643.47
643.24
643.056
643.312
644.12
645.088
642.472
641.027
644.848
646.544
646.853
646.861
646.375
645.516
643.474
640.728
637.65
631.127
623.551
616.836
610.473
598.208
572.942
564.881
560.07
557.07
555.964
558.009
563.413
586.182
598.412
606.41
613.133
617.756
623.876
626.214
626.773
631.617
633.505
574.445
594.914
625.986
629.034
631.633
633.992
636.238
637.52
638.229
638.908
639.462
639.452
639.275
638.969
637.756
635.882
633.129
629.788
623.17
612.713
610.171
609.801
595.325
571.547
566.597
561.903
558.874
559.476
562.688
569.254
594.473
601.635
607.579
611.933
614.617
622.241
623.182
621.27
627.558
628.579
543.257
552.241
558.926
594.141
619.633
624.509
628.196
630.508
631.773
630.388
633.403
633.774
633.507
633.082
632.063
630.151
627.461
624.301
620.363
593.298
585.515
589.478
575.105
571.973
568.295
565.035
563.108
563.516
566.058
588.689
601.459
606.068
610.386
612.53
614.546
622.529
619.081
617.795
623.725
626.082
515.477
531.498
544.385
551.146
575.789
619.041
624.395
626.657
627.528
624.748
625.214
630.62
630.2
629.778
628.713
627.207
625.352
622.43
619.093
594.288
582.359
579.033
576.605
574.264
571.873
578.184
592.032
600.612
607.189
608.607
610.421
611.917
613.333
615.576
613.327
618.411
621.133
619.154
623.443
629.025
492.548
545.56
593.743
573.077
577.531
593.934
623.57
624.62
625.847
623.129
619.769
620.398
627.688
627.717
626.445
625.435
624.262
622.661
619.553
617.07
599.497
587.32
587.388
591.796
599.824
614.014
614.543
611.795
612.016
613.099
613.98
613.153
610.884
605.023
615.19
623.839
628.283
621.741
629.83
635.307
541.337
587.916
602.42
611.538
616.037
616.941
598.503
591.52
613.512
620.041
613.175
613.6
621.039
625.385
625.315
624.592
623.82
619.199
614.638
620.578
621.666
621.767
619.181
615.778
612.693
593.368
536.21
523.127
529.818
552.968
594.437
585.827
559.318
576.912
617.558
629.891
635.037
634.712
628.241
640.075
595.342
600.705
609.267
603.677
616.757
612.567
592.077
574.343
576.788
601.808
610.209
607.46
608.058
623.6
624.362
624.274
623.952
623.415
613.833
591.254
575.481
565.799
576.444
565.636
534.813
518.687
518.736
519.749
520.071
520.148
520.162
522.666
527.411
565.12
617.383
636.539
645.767
648.103
623.366
642.988
571.882
592.122
547.031
545.061
606.136
603.976
596.767
560.78
565.166
572.119
605.389
615.648
601.631
602.99
609.603
624.582
625.077
625.253
625.601
590.119
553.57
554.042
550.527
584.737
555.607
517.766
518.351
518.781
519.59
519.598
519.744
522.866
609.721
651.111
633.912
637.086
659.412
640.762
631.291
651.54
421.813
436.461
440.621
528.591
604.27
602.125
594.848
557.431
562.411
569.028
605.753
616.6
615.693
601.867
601.957
602.026
607.301
619.484
625.99
616.242
595.628
571.093
587.482
634.638
642.387
626.791
526.158
519.127
521.47
522.949
524.441
626.431
659.076
663.887
646.233
647.761
669.263
637.926
638.902
672.455
423.578
429.319
439.125
574.904
616.544
613.528
600.307
566.387
568.707
573.055
608.558
620.862
623.555
620.268
602.563
602.089
600.808
599.714
600.123
624.412
629.794
631.586
635.33
640.049
644.445
648.207
645.52
542.3
526.906
573.015
657.894
664.64
668.51
672.361
657.642
669.015
668.652
638.849
659.971
690.088
456.006
494.016
510.706
605.11
626.479
623.788
621.107
608.98
580.754
580.975
583.66
619.486
630.062
631.315
622.86
605.052
604.646
603.719
604.016
632.362
634.942
637.822
641.187
644.763
647.963
650.648
652.754
636.608
629.675
651.362
663.946
669.328
674.917
681.126
684.642
678.342
669.929
643.42
664.951
698.379
539.531
535.506
536.951
574.555
567.614
585.392
616.391
622.311
622.577
599.394
590.253
592.843
621.015
638.382
637.682
632.61
609.469
614.517
638.679
639.432
641.383
644.316
646.819
649.398
652.054
654.587
656.74
658.713
660.46
663.162
666.97
661.402
671.599
689.237
686.19
681.437
669.934
648.217
671.189
706.713
513.976
527.019
437.787
443.647
438.955
459.832
593.64
616.309
605.092
619.784
618.71
616.191
637.725
642.514
640.686
639.141
638.21
635.961
603.749
618.597
644.169
647.723
650.29
653.221
656.656
659.354
661.58
663.979
664.821
666.212
669.133
623.544
641.33
695.384
647.304
692.756
680.859
651.736
706.19
707.068
430.772
432.658
438.035
438.778
437.685
437.436
596.569
578.844
571.358
579.12
600.444
638.96
642.826
638.962
635.407
633.212
633.755
607.852
519.33
520.523
546.386
587.257
615.753
646.753
663.071
664.589
665.792
666.597
668.475
630.294
545.21
596.202
663.256
680.427
645.856
701.049
699.859
656.35
707.209
707.107
535.172
494.92
447.929
438.194
436.102
497.664
637.95
637.853
588.452
575.437
573.596
587.694
634.846
635.377
629.682
590.832
530.464
506.874
512.714
518.461
524.14
528.61
530.563
558.037
668.756
675.694
677.765
632.291
456.052
443.394
516.491
655.843
666.647
592.564
651.985
700.844
704.381
704.901
706.801
706.619
673.265
664.7
632.431
598.934
580.763
612.921
639.618
638.139
635.367
624.204
590.529
586.531
579.982
571.168
584.063
526.73
504.918
509.269
512.858
535.38
595.036
626.082
602.12
568.242
556.683
484.565
423.198
425.827
429.711
431.795
598.65
665.085
635.595
588.053
673.291
695.301
699.067
701.626
703.373
704.296
680.071
680.056
678.7
678.741
676.502
624.115
554.796
574.483
568.352
512.365
492.907
511.328
558.778
581.46
597.991
601.118
589.889
569.339
601.92
621.615
628.36
631.864
587.774
439.301
424.135
423.498
422.338
459.553
475.176
515.198
605.635
579.853
508.536
576.702
689.299
693.91
696.656
696.787
698.224
700.172
673.686
686.989
688.25
687.586
685.927
576.329
420.21
397.731
393.556
391.086
389.317
384.844
442.945
532.868
521.481
587.146
610.967
607.999
552.578
543.369
513.634
459.553
437.647
436.945
464.051
501.352
517.812
644.33
647.485
570.874
500.297
496.436
497.505
553.801
688.835
699.663
701.993
700.935
682.622
703.436
663.506
665.526
697.335
700.436
700.531
668.322
592.12
459.539
396.874
395.144
392.917
390.705
389.309
388.959
389.839
388.915
402.269
504.753
520.259
486.64
493.375
508.44
571.661
643.014
688.494
701.213
697.695
690.801
572.295
492.34
492.842
496.573
500.016
505.308
671.44
715.198
717.439
706.845
595.504
631.339
669.545
674.485
682.763
717.049
720.51
721.454
722.529
721.138
555.942
433.226
397.107
396.374
394.142
392.508
499.715
666.773
662.665
612.19
582.966
579.979
658.375
705.04
713.071
713.675
712.182
709.649
670.896
529.221
488.282
490.665
494.529
499.722
505.341
508.597
535.702
692.36
742.974
565.198
562.391
562.754
671.058
687.062
698.622
709.411
738.816
742.426
743.297
742.634
740.924
737.581
574.475
481.482
631.142
724.346
725.835
724.867
722.347
719.972
717.167
717.038
717.618
717.979
717.961
716.723
713.256
665.13
494.588
486.01
487.416
489.932
494.753
500.244
505.568
510.252
515.593
539.488
651.296
594.206
634.879
681.858
589.235
695.884
700.606
717.992
718.941
730.213
746.398
756.46
755.471
754.667
753.828
751.955
748.683
739.472
740.628
737.468
735.358
733.349
731.294
729.295
728.241
724.629
724.125
722.879
720.594
661.181
484.699
485.314
486.214
488.424
492.108
496.588
501.316
506.132
621.836
711.082
739.361
751.383
748.435
748.503
506.516
554.24
590.201
706.117
723.806
726.641
726.084
751.012
765.498
760.304
761.898
760.3
757.699
753.922
750.053
746.959
744.482
742.577
740.844
737.809
708.102
676.456
729.323
728.727
727.713
724.755
609.485
487.219
487.167
568.732
643.314
611.047
612.829
699.268
731.467
736.691
742.603
746.779
749.248
750.812
563.699
490.189
519.46
537.207
723.009
752.986
740.188
737.242
762.165
719.609
708.223
760.42
758.164
756.067
753.692
751.541
749.574
747.853
746.778
744.773
705.84
668.105
710.381
732.39
731.589
729.602
706.895
620.725
635.746
725.944
723.094
717.211
709.626
701.202
692.659
694.659
705.048
714.691
725.385
730.923
589.529
632.684
553.877
410.088
462.705
731.732
759.637
757.065
728.139
709.364
690.443
686.64
751.275
759.106
756.151
745.862
729.652
749.583
749.751
749.597
730.859
667.323
674.486
733.619
732.587
731.033
727.633
702.278
708.458
722.073
717.009
706.721
688.715
667.294
563.665
445.405
441.993
594.251
679.49
691.48
584.085
616.901
635.574
349.639
295.886
461.137
738.522
748.799
742.712
708.521
731.248
683.026
681.025
723.188
700.009
664.172
663.308
711.666
751.402
752.32
750.83
673.479
620.848
731.059
730.757
729.633
727.11
702.282
721.756
719.958
716.114
707.336
692.592
635.095
476.321
292.826
251.4
280.664
614.305
682.77
589.767
576.413
389.474
242.463
247.777
275.405
628.669
736.679
743.826
703.801
747.163
755.398
730.357
665.168
662.373
660.668
658.882
657.065
729.912
752.263
750.994
680.373
597.162
697.552
730.495
729.401
727.198
724.209
721.215
719.715
718.422
715.124
709.969
659.227
552.563
276.35
257.108
256.228
508.06
698.971
501.697
241.112
208.637
211.094
217.727
223.752
545.043
727.633
742.32
749.69
760.543
762.138
757.875
740.104
693.603
676.744
662.051
654.902
702.82
752.675
750.282
633.681
589.455
587.92
690.72
731.686
729.501
727.001
724.392
722.643
721.952
719.598
627.873
488.135
388.786
262.517
263.185
263.129
523.016
714.286
189.519
186.704
188.691
192.694
201.492
260.744
634.744
723.586
735.888
746.849
756.509
762.116
760.275
757.071
755.028
754.904
744.742
652.239
598.199
636.089
633.566
588.251
586.74
583.263
582.114
650.559
727.653
730.649
728.382
726.615
718.349
593.225
307.003
265.362
264.224
263.957
264.373
264.905
649.376
726.876
177.62
174.201
193.622
227.582
419.615
682.57
712.293
712.03
720.574
731.341
740.036
748.214
749.457
719.29
741.346
745.617
750.296
686.525
595.329
595.166
593.466
592.548
589.966
586.586
583.294
580.674
602.199
707.956
734.806
734.651
729.317
457.8
265.112
264.871
264.499
264.649
264.902
331.063
708.467
738.346
178.716
305.312
587.473
713.007
714.791
662.298
543.329
482.485
661.462
723.332
721.167
739.218
511.975
248.418
283.614
576.047
741.058
752.954
742.1
631.937
594.857
594.543
592.324
589.318
586.324
583.558
581.01
657.002
742.424
742.562
744.141
681.65
385.964
266.452
267.035
267.555
272.041
519.583
744.14
750.828
481.265
729.623
731.429
730.632
581.885
177.447
155.778
158.909
256.32
315.716
331.236
490.159
174.644
167.498
168.31
181.924
622.474
756.531
765.31
768.918
714.223
622.802
593.518
590.951
588.642
585.785
583.155
672.936
748.687
748.874
741.97
714.203
706.516
675.137
587.167
579.66
660.281
691.091
694.133
765.198
771.19
765.145
758.578
752.398
501.795
164.187
163.609
163.416
164.499
168.456
174.024
172.355
171.344
169.312
168.272
413.206
751.755
763.134
768.469
773.256
776.694
776.676
731.796
674.215
591.208
623.405
669.83
752.977
756.008
755.435
755.996
754.722
755.959
764.317
769.405
765.102
740.991
631.473
664.102
771.384
804.201
794.235
786.327
779.409
772.927
548.261
192.046
167.884
168.744
179.747
220.442
250.526
238.55
382.544
635.47
774.122
771.276
770.349
769.626
740.046
640.054
648.573
724.721
726.346
711.681
586.927
743.335
765.207
763.758
763.49
764.018
766.297
768.697
770.471
767.055
444.941
220.002
518.135
682.76
771.482
810.957
807.098
803.795
799.624
795.232
783.93
691.555
608.741
594.139
627.699
684.272
716.968
716.545
775.432
785.063
779.702
775.843
773.495
773.666
679.016
553.591
559.197
557.635
639.808
532.323
497.922
504.695
651.443
772.287
773.64
775.13
778.151
781.457
783.699
688.974
210.853
208.54
206.762
406.484
784.995
753.062
810.95
793.822
810.772
812.371
806.363
801.888
798.771
794.924
788.339
786.348
788.456
781.891
788.063
776.246
768.927
769.426
775.159
780.128
784.178
754.64
751.066
727.328
682.311
505.903
497.317
498.825
497.955
527.089
700.923
750.674
783.427
792.136
796.361
802.999
574.91
211.745
211.656
369.856
786.919
446.299
544.673
757.557
795.965
793.929
812.964
802.853
796.908
794.53
723.159
694.394
680.305
424.914
490.811
587.293
543.067
504.122
436.428
469.56
559.545
663.114
754.451
752.398
744.707
728.862
687.341
655.178
651.398
636.5
399.359
424.211
692.833
803.278
808.242
813.045
820.312
373.88
234.779
724.781
808.056
303.994
270.908
534.671
782.522
742.826
795.065
804.645
801.747
801.879
726.784
721.606
482.178
164.628
72.6649
73.9036
31.6623
0.390922
0.375361
4.35665
34.3396
150.374
389.549
605.815
553.044
561.55
542.654
546.677
568.905
635.991
344.549
389.296
728.895
816.75
818.902
819.868
599.906
299.561
548.079
817.708
818.604
110.653
283.887
564.501
784.305
783.281
647.756
786.593
813.061
800.119
794.271
688.835
101.119
1.33448
1.17426
2.92851
0.2816
0.244942
0.247653
0.237406
0.229735
0.277923
11.939
84.8332
81.6517
77.6832
63.2054
86.0857
46.0794
209.844
205.652
429.734
759.966
829.677
829.12
778.209
484.55
431.129
787.209
827.354
828.858
7.90099
211.473
583.9
800.564
793.557
628.655
427.516
403.419
432.368
617.359
349.64
7.24649
0.953667
0.945545
1.54326
0.866517
0.190336
0.161579
0.148254
0.120841
0.0777945
0.0168051
0.0329508
0.889085
1.79814
1.24869
1.99842
0.734283
4.44709
155.272
364.296
476.357
801.696
548.332
607.096
456.432
646.682
784.874
838.445
837.425
4.36673
194.507
575.246
826.266
777.388
547.181
353.309
353.506
432.701
393.706
162.084
0.91723
0.313923
0.940097
1.86273
1.96874
1.72455
1.05119
0.827455
0.26315
0.0211307
-0.0281114
-0.0396912
0.0263839
0.292204
0.267197
0.224063
0.137242
2.22182
4.74557
57.3717
68.6582
196.199
158.292
291.433
216.631
194.528
328.038
369.496
414.891
2.80106
164.113
454.023
796.107
607.608
391.112
369.778
428.052
436.573
258.449
12.976
0.16708
0.13129
1.70813
1.90071
1.9145
1.92458
1.92478
1.69808
0.441169
-0.0361448
-0.0549687
-0.0704056
-0.0772109
0.0767006
0.134685
0.110475
0.0324501
-0.0184057
-0.0355352
-0.0699883
-0.150083
-0.0531462
1.77712
2.50823
11.035
14.4906
14.3089
13.0639
7.46206
6.17608
-0.595837
-0.512567
135.013
292.354
390.896
389.884
277.432
57.701
0.127405
0.0270642
-0.0074611
-0.0182438
0.331395
1.8814
1.90904
1.13589
0.179593
0.1813
0.264419
0.0823879
-0.0941861
-0.10978
-0.120799
0.200419
0.452412
0.455014
0.183437
-0.0255038
-0.0480636
-0.0770421
-0.082181
0.0179642
0.358124
0.178663
1.67548
3.13153
1.59588
0.214184
0.214025
1.73569
-0.409711
-0.311703
-0.239936
-0.227092
9.3261
7.53666
-0.107841
-0.0402386
0.0034357
0.00803899
-0.0916694
-0.0988809
-0.107987
0.650676
1.5328
0.182487
0.133682
0.14062
0.276402
0.311482
0.285638
-0.134539
-0.170164
-0.0359794
0.443652
0.45281
0.463907
0.468143
0.270504
-0.057973
-0.0544373
-0.0437286
-0.0320701
-0.0139269
1.74894
3.26441
0.680565
0.188256
0.190272
6.38011
1.15906
-0.224257
-0.188125
-0.160201
-0.152617
-0.138495
-0.123283
-0.0227856
0.424969
1.12497
0.669534
-0.125176
-0.132374
-0.139322
-0.144658
-0.0700266
0.260801
0.262339
0.256651
0.25057
0.240846
-0.083849
-0.231773
-0.224527
-0.0253952
0.448462
0.464451
0.480978
0.496476
0.434954
-0.0373198
-0.0315799
-0.0196105
0.0503105
3.12829
2.59536
0.219645
0.194415
0.192868
0.570975
0.366161
-0.117226
-0.0885872
-0.0249113
-0.0204683
0.0392498
0.673673
1.12457
1.11838
1.11773
1.11731
0.3068
-0.146895
-0.144557
-0.145395
0.0412091
0.246227
0.236318
0.128442
-0.236057
-0.281958
-0.267837
-0.274495
-0.25929
-0.24019
-0.142236
0.464409
0.484949
0.500912
0.519201
0.0270696
-0.0176718
0.00101805
1.44421
3.23035
0.805244
0.194894
0.190902
0.187856
-0.186781
-0.163364
-0.149588
0.754777
1.14854
1.17336
1.18677
1.16658
1.1466
1.13012
1.12154
1.11859
0.818347
-0.148471
-0.152431
0.0352748
0.234952
0.213904
-0.200661
-0.289292
-0.302046
-0.309094
-0.310188
-0.300661
-0.27983
-0.255931
-0.235151
-0.0361787
0.491349
0.508039
0.0604232
-0.0377811
-0.0262306
1.06056
2.39016
2.40506
0.218236
0.214158
1.13156
0.99474
-0.155253
0.373329
0.559943
0.417833
0.0709906
-0.169415
0.621175
1.18008
1.16415
1.14737
1.14013
0.947434
0.496257
-0.117735
0.0384018
0.194208
0.179222
-0.235599
-0.281533
-0.29369
-0.303227
-0.310273
-0.311623
-0.303582
-0.28487
-0.261441
-0.238745
-0.215146
-0.0839432
-0.0974659
-0.0834007
0.115972
1.29224
2.36162
2.37141
0.236778
0.211238
0.276007
1.20049
0.771097
-0.136137
0.253859
0.563378
-0.190525
-0.186552
-0.184868
0.41131
1.22007
1.14278
0.749834
0.167444
0.0455196
0.0662293
0.259214
0.249757
-0.0640145
-0.193592
-0.219896
-0.25532
-0.302996
-0.304392
-0.303086
-0.296963
-0.285191
-0.268053
-0.24895
-0.230142
-0.213107
-0.198041
-0.179243
0.285919
1.49954
1.52153
1.21006
0.335877
0.197786
0.196708
1.20761
1.04102
0.174492
-0.12923
-0.00998753
-0.00640186
-0.184199
-0.181149
-0.179336
0.796799
0.832084
-0.095304
-0.157583
-0.157757
0.130154
0.358924
0.268909
0.0421964
0.0934502
0.261622
1.18197
1.12022
-0.301477
-0.299586
-0.29454
-0.284673
-0.27078
-0.255359
-0.24007
-0.12713
0.347441
0.783905
1.06344
1.00845
0.511679
0.432889
0.20711
0.213937
0.21563
0.626124
1.30954
0.220906
0.0539739
-0.12775
-0.178521
-0.179384
-0.173631
-0.16896
0.141412
0.343745
-0.145768
-0.145329
-0.142262
0.0687676
0.406307
0.403732
0.247657
0.540256
1.61971
1.60317
1.59365
1.37083
-0.27093
-0.277491
-0.277058
-0.270901
-0.257589
0.213613
1.03566
1.15847
1.17875
1.1989
1.20286
0.548346
0.126521
0.174377
0.215644
0.238956
0.963844
1.30768
1.30128
0.100364
0.0600736
-0.169682
-0.172425
-0.16852
-0.164282
-0.0406471
0.477115
-0.125475
-0.128748
-0.122092
0.456189
0.588484
0.420442
0.334563
0.855652
1.67892
1.66347
1.65041
1.64015
1.44216
-0.220329
-0.255023
-0.254893
0.0456093
1.16502
1.18422
1.19906
1.21448
1.23166
1.25006
1.26432
0.937387
0.112559
0.195706
0.92846
1.29072
1.31133
1.31293
0.693799
0.104749
0.151507
-0.180944
-0.171729
-0.163454
-0.146914
0.384484
0.469253
-0.109466
-0.110378
-0.047447
0.546961
0.606672
-0.00216634
1.00496
1.73722
1.72429
1.7108
1.69479
1.66881
0.332041
-0.22186
-0.22449
-0.212168
0.503218
1.23628
1.25057
1.26396
1.27778
1.28805
1.29678
1.30853
1.22031
0.0835711
0.716982
1.30859
1.3032
1.15423
0.623308
0.452967
0.507792
0.821985
-0.178609
-0.168456
-0.161737
-0.0584747
0.965569
0.289493
-0.0927192
-0.0451749
0.701986
0.700513
0.06899
-0.139098
0.12094
1.76835
1.75658
1.72468
0.415314
-0.170318
-0.182119
-0.189677
-0.185522
-0.171075
-0.14637
0.0385236
0.747319
1.31606
1.32941
1.19068
0.397216
0.335754
0.199647
0.0452179
0.327281
0.502022
0.272424
-0.0183493
0.193975
1.00376
1.01749
1.02135
-0.167906
-0.160622
-0.154149
0.526201
1.02173
0.566994
-0.0599102
0.834296
0.93152
0.678459
-0.147329
-0.159016
-0.13019
0.94361
1.40751
-0.10496
-0.120318
-0.138095
0.163225
0.405153
0.419428
0.43241
0.397682
0.0767697
0.107192
0.130638
0.147436
0.0364778
0.0106599
0.0180801
0.0537196
-0.04268
-0.0593781
-0.072332
-0.0793266
-0.0876072
-0.102013
0.334264
1.01606
1.01935
-0.153089
-0.151026
0.457043
1.02559
1.02482
0.921165
0.0934029
0.942455
0.938084
0.806185
-0.172642
-0.182056
-0.193711
-0.19805
-0.130075
1.14596
2.11556
2.05977
0.215683
0.194122
0.24722
0.264092
0.516983
1.26926
1.13306
0.575384
0.442559
0.2051
-0.0149203
-0.031322
-0.0350913
-0.0421823
-0.0638632
-0.0715704
-0.0101301
-0.084298
-0.1055
-0.106039
0.886925
1.03396
-0.149696
-0.123291
0.781342
1.0418
1.03716