/*--------------------------------*- C++ -*----------------------------------*\
  =========                 |
  \\      /  F ield         | OpenFOAM: The Open Source CFD Toolbox
   \\    /   O peration     | Website:  https://openfoam.org
    \\  /    A nd           | Version:  8
     \\/     M anipulation  |
\*---------------------------------------------------------------------------*/
FoamFile
{
    version     2.0;
    format      ascii;
    class       surfaceScalarField;
    location    "3.5";
    object      alphaPhi0.water;
}
// * * * * * * * * * * * * * * * * * * * * * * * * * * * * * * * * * * * * * //

dimensions      [0 3 -1 0 0 0 0];

internalField   nonuniform List<scalar> 
18095
(
1.58124e-07
-9.65786e-07
8.07662e-07
1.65217e-07
-1.24813e-06
1.24104e-06
1.22132e-07
-1.24219e-06
1.28527e-06
6.53209e-08
-1.26342e-06
1.32024e-06
4.19709e-11
-1.28041e-06
1.34569e-06
-6.52445e-08
-1.28042e-06
1.3457e-06
-1.22074e-07
-1.26345e-06
1.32027e-06
-1.6518e-07
-1.24221e-06
1.28532e-06
-1.58109e-07
-1.24815e-06
1.24108e-06
-9.65831e-07
8.07722e-07
1.10985e-07
-1.07677e-06
9.93373e-08
-1.23649e-06
7.28147e-08
-1.21567e-06
4.00329e-08
-1.23064e-06
2.78645e-11
-1.24041e-06
-3.99814e-08
-1.24041e-06
-7.27738e-08
-1.23065e-06
-9.93065e-08
-1.21568e-06
-1.10968e-07
-1.23649e-06
-1.0768e-06
6.70941e-08
-1.14386e-06
5.2692e-08
-1.22208e-06
4.20949e-08
-1.20507e-06
2.38484e-08
-1.2124e-06
1.7266e-11
-1.21657e-06
-2.38161e-08
-1.21658e-06
-4.2069e-08
-1.2124e-06
-5.26722e-08
-1.20507e-06
-6.70794e-08
-1.22208e-06
-1.14388e-06
3.9577e-08
-1.18344e-06
2.65943e-08
-1.2091e-06
2.19899e-08
-1.20046e-06
1.25152e-08
-1.20292e-06
9.26767e-12
-1.20407e-06
-1.24978e-08
-1.20407e-06
-2.19758e-08
-1.20292e-06
-2.65837e-08
-1.20047e-06
-3.95674e-08
-1.2091e-06
-1.18345e-06
1.65583e-08
7.45691e-09
6.99246e-09
4.07091e-09
2.86297e-12
-4.06554e-09
-6.98819e-09
-7.45408e-09
-1.65545e-08
-1.74038e-07
-1.16419e-06
1.33822e-06
-2.17958e-07
-1.21606e-06
1.25998e-06
-1.64406e-07
-1.21257e-06
1.15902e-06
-8.66435e-08
-1.20397e-06
1.12621e-06
4.44992e-10
-1.20256e-06
1.11547e-06
8.75189e-08
-1.20262e-06
1.11555e-06
1.65192e-07
-1.20415e-06
1.12648e-06
2.18674e-07
-1.21283e-06
1.15935e-06
1.747e-07
-1.21643e-06
1.26041e-06
-1.16462e-06
1.33932e-06
-9.31621e-08
-1.07102e-06
-9.55925e-08
-1.21363e-06
-7.903e-08
-1.22913e-06
-4.39569e-08
-1.23904e-06
2.52454e-10
-1.24677e-06
4.44417e-08
-1.24681e-06
7.94627e-08
-1.23917e-06
9.59482e-08
-1.22932e-06
9.33663e-08
-1.21385e-06
-1.07125e-06
-5.78952e-08
-1.01313e-06
-5.50855e-08
-1.21644e-06
-4.63735e-08
-1.23784e-06
-2.69654e-08
-1.25845e-06
1.53057e-10
-1.27388e-06
2.72569e-08
-1.27392e-06
4.66235e-08
-1.25854e-06
5.52684e-08
-1.23796e-06
5.79845e-08
-1.21656e-06
-1.01327e-06
-7.45681e-08
-9.3856e-07
-6.17309e-08
-1.22927e-06
-4.84353e-08
-1.25114e-06
-2.76628e-08
-1.27922e-06
9.59256e-11
-1.30164e-06
2.7844e-08
-1.30167e-06
4.85862e-08
-1.27928e-06
6.1833e-08
-1.25121e-06
7.46156e-08
-1.22935e-06
-9.38654e-07
-1.30899e-07
-1.19132e-07
-8.49968e-08
-4.39835e-08
6.29031e-11
4.41017e-08
8.50936e-08
1.19197e-07
1.30932e-07
-2.52295e-08
-9.20703e-07
9.45932e-07
1.48383e-08
-1.34093e-06
1.30086e-06
1.6205e-08
-1.27715e-06
1.27578e-06
1.0141e-08
-1.22811e-06
1.23417e-06
4.29257e-09
-1.2251e-06
1.23094e-06
-1.63432e-09
-1.22586e-06
1.23178e-06
-8.21952e-09
-1.22812e-06
1.23471e-06
-5.08155e-09
-1.27641e-06
1.27327e-06
3.86757e-08
-1.34411e-06
1.30035e-06
-9.33517e-07
9.72192e-07
1.88414e-08
-9.39544e-07
2.61852e-08
-1.34827e-06
1.71753e-08
-1.26814e-06
1.01355e-08
-1.22107e-06
3.1073e-09
-1.21807e-06
-4.08138e-09
-1.21867e-06
-1.13541e-08
-1.22085e-06
-1.8925e-08
-1.26884e-06
-1.38486e-08
-1.34918e-06
-9.47365e-07
3.1601e-08
-9.71146e-07
2.2454e-08
-1.33913e-06
1.38278e-08
-1.25951e-06
8.51234e-09
-1.21576e-06
1.9064e-09
-1.21146e-06
-5.16919e-09
-1.21159e-06
-1.02472e-08
-1.21577e-06
-1.90703e-08
-1.26002e-06
-2.83664e-08
-1.33989e-06
-9.75731e-07
8.08282e-08
-1.05197e-06
5.38664e-08
-1.31216e-06
3.49327e-08
-1.24058e-06
2.2155e-08
-1.20298e-06
1.16609e-09
-1.19047e-06
-1.98798e-08
-1.19055e-06
-3.22873e-08
-1.20336e-06
-5.11758e-08
-1.24113e-06
-7.85467e-08
-1.31252e-06
-1.05428e-06
2.8625e-07
2.34064e-07
1.52501e-07
7.57306e-08
7.26448e-10
-7.42698e-08
-1.51152e-07
-2.3293e-07
-2.85042e-07
3.31287e-08
-2.50057e-09
-3.0628e-08
3.57091e-08
-2.58056e-09
3.83135e-08
-2.6046e-09
4.08687e-08
-2.55523e-09
4.32735e-08
-2.40479e-09
4.53792e-08
-2.10566e-09
4.69757e-08
-1.5964e-09
4.77889e-08
-8.1319e-10
4.7479e-08
3.09995e-10
1.83765e-09
4.56414e-08
2.42123e-08
-4.01801e-09
-2.26948e-08
2.57213e-08
-4.09001e-09
2.71881e-08
-4.07141e-09
2.85651e-08
-3.93178e-09
2.98018e-08
-3.64089e-09
3.08141e-08
-3.11781e-09
3.14901e-08
-2.27223e-09
3.16861e-08
-1.009e-09
3.12252e-08
7.70932e-10
3.14036e-09
2.99228e-08
1.68709e-08
-4.8313e-09
-1.60577e-08
1.76334e-08
-4.85304e-09
1.83462e-08
-4.78348e-09
1.89969e-08
-4.58394e-09
1.95723e-08
-4.21277e-09
2.00333e-08
-3.57881e-09
2.03496e-08
-2.58848e-09
2.04583e-08
-1.11772e-09
2.02354e-08
9.93709e-10
3.84074e-09
1.95352e-08
1.00196e-08
-5.05166e-09
-9.79889e-09
1.0161e-08
-4.99518e-09
1.02327e-08
-4.856e-09
1.02433e-08
-4.59311e-09
1.02003e-08
-4.16942e-09
1.01264e-08
-3.5049e-09
1.00324e-08
-2.49442e-09
9.91077e-09
-9.96053e-10
9.73395e-09
1.1706e-09
4.41242e-09
9.16238e-09
3.60213e-09
-4.75569e-09
-3.89823e-09
3.17164e-09
-4.56519e-09
2.62091e-09
-4.30525e-09
1.99273e-09
-3.96492e-09
1.33149e-09
-3.50814e-09
6.93672e-10
-2.86702e-09
1.33745e-10
-1.93444e-09
-2.97103e-10
-5.65143e-10
-5.55795e-10
1.43111e-09
3.99385e-09
-3.39282e-10
-2.18196e-09
-4.03132e-09
1.45749e-09
-3.12003e-09
-3.62763e-09
-4.23194e-09
-3.19338e-09
-5.44691e-09
-2.74996e-09
-6.66428e-09
-2.29073e-09
-7.77339e-09
-1.75781e-09
-8.66756e-09
-1.04013e-09
-9.26669e-09
3.41437e-11
-9.41588e-09
1.58114e-09
3.88889e-09
-8.96277e-09
-7.07636e-09
-2.97969e-09
6.02437e-09
-8.46324e-09
-2.24264e-09
-1.01343e-08
-1.52238e-09
-1.19731e-08
-9.11116e-10
-1.38034e-08
-4.60339e-10
-1.54436e-08
-1.17588e-10
-1.67529e-08
2.69285e-10
-1.76022e-08
8.8377e-10
-1.79378e-08
1.91777e-09
3.54902e-09
-1.7596e-08
-1.0728e-08
-1.76651e-09
9.51454e-09
-1.24668e-08
-5.04167e-10
-1.46803e-08
6.91016e-10
-1.71689e-08
1.57736e-09
-1.95682e-08
1.93896e-09
-2.15304e-08
1.84462e-09
-2.28364e-08
1.57542e-09
-2.33723e-08
1.41967e-09
-2.30591e-08
1.60475e-09
2.29111e-09
-2.1801e-08
-1.30151e-08
-5.89266e-10
1.18378e-08
-1.50197e-08
1.50013e-09
-1.79024e-08
3.57368e-09
-2.1344e-08
5.01867e-09
-2.45661e-08
5.161e-09
-2.68704e-08
4.14886e-09
-2.81134e-08
2.81834e-09
-2.81806e-08
1.48691e-09
-2.72423e-08
6.6654e-10
4.53262e-10
-2.54045e-08
-1.41028e-08
2.8457e-10
1.32289e-08
-1.61357e-08
3.53254e-09
-1.9741e-08
7.17898e-09
-2.47513e-08
1.00288e-08
-2.93811e-08
9.79082e-09
-3.18943e-08
6.71488e-09
-3.25293e-08
3.37805e-09
-3.19685e-08
8.62499e-10
-3.04776e-08
-8.24394e-10
-1.74259e-09
-2.82818e-08
-1.5373e-08
7.35675e-10
1.49219e-08
-1.67854e-08
4.9448e-09
-1.89815e-08
9.68967e-09
-2.49787e-08
1.51165e-08
-3.33556e-08
1.19958e-08
-3.41552e-08
7.52434e-09
-3.38178e-08
3.05053e-09
-3.29005e-08
-5.65497e-11
-3.15089e-08
-2.21603e-09
-3.35923e-09
-2.98922e-08
-1.87715e-08
9.744e-10
1.85327e-08
-1.87125e-08
5.93073e-09
-1.85851e-08
9.9873e-09
-1.57592e-08
1.25141e-08
-1.7544e-08
1.17116e-08
-2.39841e-08
8.48891e-09
-2.51073e-08
4.17377e-09
-2.56163e-08
4.52517e-10
-2.58973e-08
-1.93496e-09
-3.2978e-09
-2.59582e-08
-1.93243e-08
5.11274e-11
2.25989e-08
-1.63864e-08
4.74245e-09
-1.49684e-08
8.78825e-09
-1.28574e-08
1.06207e-08
-1.11871e-08
1.02654e-08
-1.36372e-08
7.53007e-09
-1.62196e-08
4.77493e-09
-1.71048e-08
1.33776e-09
-1.80582e-08
-9.81363e-10
-2.43959e-09
-1.89163e-08
-2.39898e-08
-1.29783e-09
2.70877e-08
-1.79428e-08
3.03593e-09
-1.52256e-08
6.28417e-09
-1.17029e-08
7.3094e-09
-8.40223e-09
7.18233e-09
-7.30292e-09
6.53558e-09
-8.86439e-09
4.46949e-09
-9.63155e-09
2.10505e-09
-1.07412e-08
1.28417e-10
-1.33533e-09
-1.18335e-08
-2.99208e-08
-1.91622e-09
3.05394e-08
-2.76634e-08
1.31116e-09
-1.84236e-08
3.78871e-09
-1.42636e-08
3.35502e-09
-9.38227e-09
2.51244e-09
-7.93142e-09
3.74225e-09
-6.81033e-09
3.34839e-09
-6.63232e-09
1.92704e-09
-6.98356e-09
4.81309e-10
-8.43757e-10
-7.46216e-09
-2.43468e-08
-3.97698e-09
2.64076e-08
-2.13368e-08
-1.69848e-09
-1.72276e-08
8.6314e-11
-1.35749e-08
1.11275e-09
-1.2094e-08
1.59451e-09
-1.03027e-08
1.57034e-09
-8.31029e-09
1.35603e-09
-7.11298e-09
7.29856e-10
-6.41442e-09
-2.17131e-10
-1.34888e-09
-5.90436e-09
-2.04634e-08
-6.2456e-09
2.27322e-08
-1.79334e-08
-4.22785e-09
-1.53607e-08
-2.48599e-09
-1.30496e-08
-1.19863e-09
-1.10845e-08
-3.70834e-10
-9.55754e-09
4.34308e-11
-8.24837e-09
4.69612e-11
-7.16038e-09
-3.58033e-10
-6.22135e-09
-1.15609e-09
-2.2964e-09
-5.27376e-09
-1.82309e-08
-8.46615e-09
2.04514e-08
-1.61111e-08
-6.34763e-09
-1.41607e-08
-4.43634e-09
-1.24669e-08
-2.89247e-09
-1.10436e-08
-1.79405e-09
-9.8613e-09
-1.13886e-09
-8.88062e-09
-9.33631e-10
-8.00803e-09
-1.23051e-09
-7.07603e-09
-2.08798e-09
-3.46193e-09
-5.91035e-09
-1.78221e-08
-1.06629e-08
2.00189e-08
-1.60067e-08
-8.16297e-09
-1.45766e-08
-5.8663e-09
-1.34385e-08
-4.03052e-09
-1.24703e-08
-2.76215e-09
-1.16369e-08
-1.97222e-09
-1.0986e-08
-1.5845e-09
-1.04255e-08
-1.79104e-09
-9.63717e-09
-2.87631e-09
-4.75839e-09
-8.34072e-09
-1.97188e-08
-1.29516e-08
2.201e-08
-1.81523e-08
-9.72939e-09
-1.72974e-08
-6.7213e-09
-1.67878e-08
-4.5396e-09
-1.61735e-08
-3.37678e-09
-1.54517e-08
-2.69429e-09
-1.50695e-08
-1.96748e-09
-1.50526e-08
-1.80791e-09
-1.45956e-08
-3.33328e-09
-6.192e-09
-1.31619e-08
-2.4571e-08
-1.57484e-08
2.73868e-08
-2.3176e-08
-1.10496e-08
-2.31352e-08
-6.76749e-09
-2.36952e-08
-3.97527e-09
-2.33526e-08
-3.71502e-09
-2.20478e-08
-3.99483e-09
-2.13258e-08
-2.68259e-09
-2.24032e-08
-7.18568e-10
-2.27988e-08
-2.89288e-09
-8.38236e-09
-2.06086e-08
-3.4545e-08
-1.9722e-08
3.8521e-08
-3.03687e-08
-1.41078e-08
-3.12375e-08
-4.56297e-09
-3.48798e-08
-6.70801e-10
-3.58559e-08
-2.08135e-09
-3.30394e-08
-5.6138e-09
-2.76121e-08
-2.82524e-09
-2.65029e-08
9.18941e-10
-3.08903e-08
-1.24665e-09
-7.68398e-09
-2.92035e-08
-5.69268e-08
-2.33714e-08
6.05768e-08
-4.91587e-08
-1.86476e-08
-3.08874e-08
-1.13764e-08
-2.6425e-08
-3.15497e-09
-2.59859e-08
-5.85732e-10
-3.08101e-08
3.47281e-10
-3.15716e-08
1.0056e-09
-3.14431e-08
9.36637e-10
-3.10818e-08
-1.48054e-09
-6.27163e-09
-3.23631e-08
-9.17887e-08
-2.39612e-08
9.23787e-08
-9.02288e-08
-2.0206e-08
-7.63244e-08
-1.51108e-08
-4.71685e-08
-7.39903e-09
-4.48955e-08
-2.76409e-09
-4.6203e-08
1.76656e-09
-4.77394e-08
2.66521e-09
-4.79631e-08
1.29621e-09
-4.71794e-08
-2.14679e-09
-1.34324e-08
-3.98997e-08
-1.30941e-07
-2.02736e-08
1.27254e-07
-1.34189e-07
-1.69581e-08
-1.36468e-07
-1.28302e-08
-1.35462e-07
-8.37779e-09
-1.05971e-07
-3.95318e-09
-7.29055e-08
7.53067e-10
-6.96248e-08
-5.04761e-10
-6.35902e-08
-4.61517e-09
-7.8458e-08
-5.04457e-09
-1.21667e-08
-9.33912e-08
-1.63036e-07
-1.41144e-08
1.56876e-07
-1.68876e-07
-1.1118e-08
-1.73838e-07
-7.86751e-09
-1.77471e-07
-4.6341e-09
-1.79245e-07
-2.10007e-09
-1.75697e-07
-2.22634e-09
-1.70631e-07
-3.92639e-09
-1.38207e-07
-5.62299e-09
-1.17522e-07
-8.60478e-09
-1.62503e-08
-9.67757e-08
-1.87192e-07
-7.17544e-09
1.80253e-07
-1.93548e-07
-4.761e-09
-1.98951e-07
-2.45896e-09
-2.03049e-07
-4.52046e-10
-1.83508e-07
9.3223e-10
-1.5284e-07
-5.52626e-10
-1.54564e-07
-4.70381e-09
-1.50771e-07
-1.20407e-08
-1.38186e-07
-1.86326e-08
-2.80548e-08
-1.07269e-07
-2.0889e-07
7.69636e-10
2.00945e-07
-2.16161e-07
2.51318e-09
-2.22328e-07
3.74914e-09
-2.1697e-07
4.33123e-09
-1.6289e-07
3.45244e-09
-1.73553e-07
1.22308e-09
-2.18866e-07
-4.25964e-09
-2.20314e-07
-1.23456e-08
-2.18241e-07
-2.25868e-08
-3.29086e-08
-2.15315e-07
-2.28958e-07
1.02351e-08
2.19493e-07
-2.3803e-07
1.1585e-08
-2.46478e-07
1.21983e-08
-2.53499e-07
1.13694e-08
-2.5479e-07
9.10172e-09
-2.29546e-07
5.30157e-09
-2.42003e-07
7.5643e-10
-2.46832e-07
-9.99951e-09
-2.45537e-07
-2.45948e-08
-4.06304e-08
-2.46675e-07
-2.45436e-07
2.09169e-08
2.34754e-07
-2.55768e-07
2.19192e-08
-2.65039e-07
2.14865e-08
-2.17799e-07
1.69263e-08
-1.86747e-07
1.2109e-08
-1.90943e-07
8.06676e-09
-1.92318e-07
4.34735e-10
-1.93343e-07
-1.13609e-08
-2.95403e-07
-2.53068e-08
-3.87266e-08
-2.9731e-07
-2.57862e-07
3.26104e-08
2.46186e-07
-2.68748e-07
3.30398e-08
-2.30695e-07
2.80598e-08
-2.04124e-07
2.05851e-08
-2.01748e-07
1.80606e-08
-2.62457e-07
1.26937e-08
-3.08218e-07
6.63543e-09
-3.13462e-07
-5.98143e-09
-3.19653e-07
-1.85382e-08
-3.25915e-08
-3.26053e-07
-2.65864e-07
4.51586e-08
2.53404e-07
-2.57004e-07
4.36543e-08
-2.08067e-07
3.04597e-08
-2.08363e-07
2.96994e-08
-3.03165e-07
3.11924e-08
-3.18637e-07
2.6454e-08
-3.25249e-07
1.47162e-08
-3.2853e-07
1.8812e-09
-3.26475e-07
-1.14536e-08
-2.57337e-08
-3.50826e-07
-2.73339e-07
6.02345e-08
2.58419e-07
-2.49381e-07
5.59632e-08
-2.05077e-07
4.58083e-08
-2.69203e-07
4.36697e-08
-3.17821e-07
4.48409e-08
-3.33969e-07
3.48286e-08
-3.23656e-07
2.27277e-08
-3.31232e-07
9.53401e-09
-3.38871e-07
-4.03436e-09
-1.88452e-08
-3.65755e-07
-2.70638e-07
7.62413e-08
2.54853e-07
-2.53927e-07
6.86548e-08
-2.43668e-07
6.63858e-08
-3.14069e-07
6.55229e-08
-3.21736e-07
5.77206e-08
-3.22994e-07
4.49212e-08
-3.2952e-07
3.04982e-08
-3.35898e-07
1.6762e-08
-3.4243e-07
2.62107e-09
-1.16226e-08
-3.71155e-07
-2.55433e-07
8.87656e-08
2.46333e-07
-2.53742e-07
8.76186e-08
-2.95992e-07
8.59487e-08
-3.12681e-07
8.30656e-08
-3.11772e-07
7.02251e-08
-3.20129e-07
5.32599e-08
-3.27594e-07
3.88052e-08
-3.33414e-07
2.37023e-08
-3.38579e-07
8.73653e-09
-5.57839e-09
-3.54181e-07
-2.09087e-07
7.40666e-08
2.16141e-07
-2.72403e-07
9.81471e-08
-2.90019e-07
1.09981e-07
-3.05982e-07
9.91596e-08
-3.01265e-07
8.31523e-08
-3.12442e-07
6.43212e-08
-3.2133e-07
4.77065e-08
-3.27745e-07
3.08564e-08
-3.32258e-07
1.44405e-08
-8.44087e-10
-3.36981e-07
-1.4289e-07
4.19152e-08
1.56402e-07
-2.51418e-07
1.18668e-07
-2.73691e-07
1.32254e-07
-2.92938e-07
1.18415e-07
-3.09061e-07
1.01059e-07
-3.20304e-07
8.15208e-08
-3.14321e-07
6.02621e-08
-3.2037e-07
3.79758e-08
-3.23897e-07
1.9292e-08
2.86154e-09
-3.28999e-07
-9.59173e-08
4.48101e-08
9.70735e-08
-2.23578e-07
1.34454e-07
-2.49915e-07
1.58589e-07
-2.73099e-07
1.41599e-07
-2.91961e-07
1.1993e-07
-3.06378e-07
9.61023e-08
-3.15848e-07
7.18059e-08
-3.23374e-07
4.82615e-08
-3.29796e-07
2.64799e-08
7.29475e-09
-3.34346e-07
-8.34777e-08
6.30673e-08
5.20442e-08
-1.90934e-07
1.04735e-07
-2.23833e-07
1.91484e-07
-2.50363e-07
1.68127e-07
-2.70979e-07
1.40545e-07
-2.8677e-07
1.11893e-07
-2.98798e-07
8.38345e-08
-3.08135e-07
5.75994e-08
-3.15686e-07
3.40315e-08
1.37344e-08
-3.22127e-07
-3.88381e-08
6.34823e-08
2.51371e-08
-1.63976e-07
4.37762e-08
-2.02653e-07
2.3016e-07
-2.28066e-07
1.93539e-07
-2.47517e-07
1.59995e-07
-2.62731e-07
1.27106e-07
-2.75036e-07
9.61399e-08
-2.85394e-07
6.79583e-08
-2.94666e-07
4.33019e-08
2.25986e-08
-3.03533e-07
-9.68606e-09
6.20011e-08
3.95359e-08
-2.91588e-08
3.1787e-09
-1.09133e-07
7.81411e-08
-1.79632e-07
1.31886e-07
-2.14075e-07
1.43276e-07
-2.30795e-07
1.43825e-07
-2.43868e-07
1.09211e-07
-2.55062e-07
7.91496e-08
-2.65802e-07
5.40409e-08
3.35683e-08
-2.76775e-07
6.53047e-10
4.12863e-08
2.00968e-08
1.02773e-09
2.39699e-09
-5.23923e-09
5.9384e-09
-2.03173e-08
2.31274e-09
-6.1123e-08
7.09368e-09
-1.46428e-07
4.61058e-08
-2.1278e-07
8.18857e-08
-2.2321e-07
8.95789e-08
-2.32721e-07
6.35491e-08
4.40894e-08
-2.43242e-07
-1.27638e-09
2.72039e-08
4.2064e-08
1.04704e-10
9.95459e-10
2.4722e-09
3.12467e-09
1.1965e-09
2.70761e-09
-9.80486e-10
2.21793e-09
-4.75446e-09
2.01521e-09
-2.39253e-08
9.65004e-10
-1.17379e-07
1.16795e-08
-1.95974e-07
4.41112e-08
5.18379e-08
-2.03725e-07
-7.05911e-10
3.48773e-08
9.6913e-08
-2.53811e-10
5.13837e-10
1.00937e-09
1.7683e-09
1.39057e-09
2.19311e-09
1.11582e-09
2.46164e-09
4.7617e-10
2.44562e-09
-2.94784e-10
1.55863e-09
0
1.11527e-09
-2.40199e-08
7.94196e-10
1.14863e-08
-1.21548e-07
-7.46689e-08
6.17601e-08
1.81433e-07
-1.22791e-09
2.39553e-08
-3.16349e-10
7.36581e-10
5.04292e-10
1.30486e-09
1.04306e-09
1.8542e-09
1.18783e-09
2.2216e-09
9.78443e-10
1.70547e-09
5.41795e-10
1.51734e-09
-1.51387e-11
1.29709e-09
1.51973e-09
-1.23726e-09
-2.12177e-07
7.10263e-08
2.06671e-07
-9.58506e-08
8.02749e-08
-1.13752e-09
3.59042e-08
-6.30619e-10
7.2941e-10
-3.24675e-11
1.18845e-09
4.05809e-10
1.7378e-09
7.10943e-10
1.36442e-09
8.48858e-10
1.37022e-09
7.87296e-10
1.36384e-09
1.50648e-09
7.61956e-10
-1.96678e-07
7.52124e-08
1.92489e-07
-1.99222e-07
8.5758e-08
-1.43717e-07
9.75254e-08
-5.48594e-08
8.03505e-08
-6.60633e-09
4.83378e-08
-3.8121e-10
3.25947e-08
-2.3601e-11
1.01638e-09
2.43418e-10
1.07694e-09
4.58063e-10
1.12713e-09
1.1735e-08
3.28556e-09
-1.51884e-07
7.29909e-08
1.5411e-07
-1.46503e-07
8.03698e-08
-1.34882e-07
8.87053e-08
-1.11633e-07
9.80888e-08
-7.83273e-08
1.08625e-07
-3.9057e-08
1.16876e-07
-6.91259e-09
1.1594e-07
1.82905e-08
1.1505e-07
4.45646e-08
1.14396e-07
1.04779e-07
7.94148e-08
-1.10341e-07
6.7135e-08
1.16197e-07
-1.01353e-07
7.1385e-08
-8.85645e-08
7.62947e-08
-7.15248e-08
8.17719e-08
-5.00517e-08
8.73956e-08
-2.36305e-08
9.23e-08
6.51134e-09
9.56247e-08
3.73511e-08
9.70163e-08
6.68654e-08
9.59011e-08
9.09001e-08
9.12312e-08
-7.87413e-08
5.99396e-08
8.59365e-08
-6.91273e-08
6.17729e-08
-5.6792e-08
6.3964e-08
-4.14018e-08
6.63854e-08
-2.27833e-08
6.87797e-08
-1.21059e-09
7.07195e-08
2.2219e-08
7.17967e-08
4.58967e-08
7.15668e-08
6.60454e-08
6.91746e-08
6.24868e-08
8.0462e-08
-5.54456e-08
5.21425e-08
6.32428e-08
-4.57344e-08
5.20617e-08
-3.39362e-08
5.21659e-08
-1.9903e-08
5.23522e-08
-3.59333e-09
5.24703e-08
1.48067e-08
5.23197e-08
3.49214e-08
5.16803e-08
5.59747e-08
5.03655e-08
7.57999e-08
4.82796e-08
4.51879e-08
9.19948e-08
-3.91384e-08
4.42159e-08
4.7065e-08
-2.96402e-08
4.25632e-08
-1.8484e-08
4.10098e-08
-5.62259e-09
3.94909e-08
8.92497e-09
3.7923e-08
2.50359e-08
3.62089e-08
4.24683e-08
3.42478e-08
6.0878e-08
3.19558e-08
7.98882e-08
2.92692e-08
2.6189e-08
9.88868e-08
-2.80315e-08
3.6376e-08
3.58714e-08
-1.88559e-08
3.33874e-08
-8.30758e-09
3.04616e-08
3.61632e-09
2.75672e-08
1.68717e-08
2.46676e-08
3.13577e-08
2.17229e-08
4.69117e-08
1.86938e-08
6.33186e-08
1.55489e-08
8.03146e-08
1.22731e-08
8.88426e-09
9.76194e-08
-2.03566e-08
2.8524e-08
2.82085e-08
-1.12715e-08
2.43027e-08
-9.35818e-10
2.01261e-08
1.06412e-08
1.59903e-08
2.34149e-08
1.1894e-08
3.73014e-08
7.83642e-09
5.21753e-08
3.81983e-09
6.78723e-08
-1.48187e-10
8.41972e-08
-4.05189e-09
-7.85608e-09
1.00937e-07
-1.4839e-08
2.03404e-08
2.30228e-08
-5.37005e-09
1.48341e-08
5.415e-09
9.34125e-09
1.75249e-08
3.88061e-09
3.0944e-08
-1.52496e-09
4.56316e-08
-6.85135e-09
6.15253e-08
-1.20739e-08
7.85439e-08
-1.7167e-08
9.65986e-08
-2.21065e-08
-2.687e-08
1.15612e-07
-1.09433e-08
1.14464e-08
1.98374e-08
-5.82421e-10
4.47332e-09
1.13021e-08
-2.54267e-09
2.47429e-08
-9.56016e-09
3.97402e-08
-1.65224e-08
5.62715e-08
-2.33826e-08
7.42932e-08
-3.00955e-08
9.37423e-08
-3.6616e-08
1.14542e-07
-4.29064e-08
-4.89415e-08
1.36614e-07
-8.6291e-09
1.46987e-09
1.86082e-08
3.12003e-09
-7.27588e-09
1.67291e-08
-1.61441e-08
3.22345e-08
-2.5049e-08
4.96336e-08
-3.39052e-08
6.8896e-08
-4.26279e-08
8.9961e-08
-5.11386e-08
1.12725e-07
-5.93706e-08
1.37039e-07
-6.72208e-08
-7.46544e-08
1.62752e-07
-8.34055e-09
-9.93993e-09
1.97513e-08
5.2802e-09
-2.09062e-08
2.11965e-08
-3.20623e-08
3.94563e-08
-4.33108e-08
6.00628e-08
-5.45136e-08
8.29676e-08
-6.55348e-08
1.08018e-07
-7.61452e-08
1.35045e-07
-8.6383e-08
1.6383e-07
-9.6007e-08
-1.04975e-07
1.94152e-07
-1.05975e-08
-2.30695e-08
2.37258e-08
5.27753e-09
-3.67813e-08
2.40051e-08
-5.08219e-08
4.56691e-08
-6.49996e-08
7.02112e-08
-7.90805e-08
9.75343e-08
-9.28596e-08
1.27358e-07
-1.06061e-07
1.59516e-07
-1.18556e-07
1.93352e-07
-1.29716e-07
-1.39374e-07
2.27731e-07
-1.606e-08
-3.79972e-08
3.09878e-08
2.28633e-09
-5.51277e-08
2.41963e-08
-7.27317e-08
4.97155e-08
-9.05189e-08
7.88081e-08
-1.08173e-07
1.11324e-07
-1.25376e-07
1.46738e-07
-1.41789e-07
1.83654e-07
-1.55821e-07
2.23285e-07
-1.69299e-07
-1.81855e-07
2.65691e-07
-2.57053e-08
-5.46408e-08
4.23489e-08
-4.86703e-09
-7.59659e-08
2.03645e-08
-9.79632e-08
5.00673e-08
-1.20222e-07
8.41843e-08
-1.42295e-07
1.2254e-07
-1.63733e-07
1.64709e-07
-1.84065e-07
2.06826e-07
-2.02657e-07
2.55904e-07
-2.18641e-07
-2.32588e-07
3.06555e-07
-4.05699e-08
-7.24977e-08
5.84268e-08
-1.76517e-08
-9.8884e-08
1.06694e-08
-1.26285e-07
4.45842e-08
-1.54137e-07
8.40627e-08
-1.81773e-07
1.28852e-07
-2.08521e-07
1.7841e-07
-2.33872e-07
2.31679e-07
-2.57261e-07
2.86167e-07
-2.77345e-07
-2.94679e-07
3.43891e-07
-6.16219e-08
-9.03436e-08
7.94679e-08
-3.7789e-08
-1.22718e-07
-7.30396e-09
-1.5677e-07
3.03257e-08
-1.91767e-07
7.52194e-08
-2.26663e-07
1.27004e-07
-2.60176e-07
1.84836e-07
-2.90309e-07
2.47854e-07
-3.18339e-07
3.14331e-07
-3.38263e-07
-3.58635e-07
3.82405e-07
-8.83347e-08
-1.06154e-07
1.04145e-07
-6.57395e-08
-1.45311e-07
-3.50394e-08
-1.87469e-07
5.021e-09
-2.3182e-07
5.46669e-08
-2.75579e-07
1.11963e-07
-3.15831e-07
1.77572e-07
-3.51172e-07
2.53934e-07
-3.89237e-07
3.32457e-07
-4.15588e-07
-4.40948e-07
4.15022e-07
-1.14773e-07
-1.17565e-07
1.26184e-07
-9.63166e-08
-1.63621e-07
-6.84189e-08
-2.1517e-07
-2.81702e-08
-2.71892e-07
2.58122e-08
-3.30923e-07
9.37489e-08
-3.8831e-07
1.74186e-07
-4.33686e-07
2.62991e-07
-4.79347e-07
3.59707e-07
-5.15517e-07
-5.46082e-07
4.57346e-07
-1.24589e-07
-1.23387e-07
1.30528e-07
-1.1248e-07
-1.75251e-07
-9.12603e-08
-2.36229e-07
-5.54903e-08
-3.08044e-07
1.50906e-09
-3.89775e-07
8.19446e-08
-4.6953e-07
1.78686e-07
-5.35743e-07
2.82767e-07
-5.89519e-07
3.89228e-07
-6.27896e-07
-6.52707e-07
4.95816e-07
-8.99617e-08
-1.26195e-07
9.33711e-08
-8.47616e-08
-1.7926e-07
-7.7341e-08
-2.41842e-07
-5.765e-08
-3.10898e-07
-3.36242e-09
-4.16202e-07
8.87252e-08
-5.39772e-07
2.00569e-07
-6.40462e-07
3.1648e-07
-7.05261e-07
4.31043e-07
-7.42418e-07
-7.63129e-07
5.41476e-07
2.34801e-10
-1.28841e-07
4.46043e-09
-1.73829e-09
-1.50673e-07
-9.90494e-09
-1.08354e-07
-2.2143e-08
-6.82929e-08
2.07828e-08
-1.47181e-07
1.43085e-07
-4.89506e-07
2.64325e-07
-7.43379e-07
3.8251e-07
-8.20459e-07
4.94345e-07
-8.53715e-07
-8.67715e-07
5.99004e-07
6.00544e-08
-1.08739e-07
-8.28344e-08
1.34482e-08
-4.24016e-08
7.58021e-10
-8.46182e-09
6.22106e-10
-4.92038e-09
4.21667e-08
-1.41573e-08
2.3924e-07
-3.74197e-07
3.66354e-07
-8.36813e-07
4.72153e-07
-9.24049e-07
5.68833e-07
-9.50032e-07
-9.56459e-07
6.57658e-07
2.19683e-08
-3.41883e-08
-1.10565e-07
6.17444e-09
-4.67288e-09
2.01058e-10
-2.43593e-09
1.48988e-09
-6.15882e-09
9.15358e-09
-2.06269e-08
3.17318e-07
-3.72e-07
4.71623e-07
-9.27014e-07
5.56707e-07
-1.00798e-06
6.32536e-07
-1.02562e-06
-1.02551e-06
7.01645e-07
6.02612e-09
-4.86667e-09
-5.46121e-08
1.98008e-09
-6.74235e-10
2.12768e-09
-2.60389e-09
5.00919e-09
-9.08127e-09
2.73655e-08
-4.30256e-08
4.10555e-07
-4.86473e-07
5.5729e-07
-1.01703e-06
6.20364e-07
-1.0699e-06
6.75324e-07
-1.08037e-06
-1.07568e-06
7.2554e-07
3.84546e-09
-1.81639e-09
-1.66227e-08
3.31542e-09
3.76789e-12
4.60743e-09
-3.70496e-09
9.09317e-09
-1.36453e-08
8.89486e-08
-1.21752e-07
5.52942e-07
-7.39096e-07
6.17191e-07
-1.07505e-06
6.5973e-07
-1.11171e-06
6.9727e-07
-1.11779e-06
-1.11043e-06
7.32053e-07
5.42148e-09
-1.40695e-09
-8.8051e-09
5.81614e-09
-7.53551e-10
7.51081e-09
-5.49386e-09
1.52132e-08
-2.13503e-08
2.51876e-07
-1.64528e-07
6.1173e-07
-9.47321e-07
6.50899e-07
-1.11187e-06
6.78053e-07
-1.13843e-06
7.02879e-07
-1.14254e-06
-1.13374e-06
7.262e-07
6.64338e-09
-2.07564e-09
-7.15401e-09
7.78726e-09
-2.45727e-09
1.02123e-08
-8.28945e-09
3.15204e-08
-4.32758e-08
4.60169e-07
-4.10377e-07
6.38505e-07
-1.06093e-06
6.62961e-07
-1.1351e-06
6.80361e-07
-1.15563e-06
6.96925e-07
-1.15906e-06
-1.14905e-06
7.12257e-07
6.92094e-09
-2.75422e-09
-1.03827e-08
8.21025e-09
-4.37617e-09
1.32354e-08
-1.39002e-08
8.61163e-08
-1.16596e-07
5.91313e-07
-7.23403e-07
6.44749e-07
-1.09999e-06
6.59499e-07
-1.14923e-06
6.71693e-07
-1.16773e-06
6.83618e-07
-1.17096e-06
-1.15928e-06
6.93855e-07
1.02988e-08
-3.93296e-09
-2.15766e-08
1.17773e-08
-6.55728e-09
2.45701e-08
-2.69356e-08
2.37255e-07
-2.00075e-07
6.12007e-07
-9.88832e-07
6.35759e-07
-1.12229e-06
6.46479e-07
-1.1597e-06
6.56571e-07
-1.17778e-06
6.66082e-07
-1.18047e-06
-1.16632e-06
6.73125e-07
1.6211e-08
-6.20044e-09
-2.68914e-08
1.83633e-08
-1.08485e-08
5.7908e-08
-6.58567e-08
5.03126e-07
-5.25682e-07
6.05676e-07
-1.06324e-06
6.17973e-07
-1.13405e-06
6.26822e-07
-1.16846e-06
6.3619e-07
-1.18713e-06
6.4429e-07
-1.18856e-06
-1.17113e-06
6.49097e-07
1.63484e-08
-9.93681e-09
-2.56981e-08
2.71776e-08
-2.53678e-08
1.44967e-07
-1.85576e-07
5.56289e-07
-8.67762e-07
5.81965e-07
-1.08797e-06
5.91111e-07
-1.14304e-06
6.00727e-07
-1.17805e-06
6.1026e-07
-1.19666e-06
6.16964e-07
-1.19527e-06
-1.17318e-06
6.19016e-07
1.90633e-08
-2.00019e-08
-2.4155e-08
4.70238e-08
-5.82898e-08
3.5397e-07
-4.19067e-07
5.31659e-07
-1.01417e-06
5.47595e-07
-1.10358e-06
5.58731e-07
-1.15413e-06
5.7069e-07
-1.19e-06
5.80952e-07
-1.20692e-06
5.86655e-07
-1.20097e-06
-1.17298e-06
5.86452e-07
4.81683e-08
-3.66427e-08
-4.54639e-08
1.19184e-07
-1.35507e-07
4.72538e-07
-7.76941e-07
5.00554e-07
-1.04207e-06
5.1098e-07
-1.11398e-06
5.23792e-07
-1.16694e-06
5.37456e-07
-1.20367e-06
5.48247e-07
-1.21771e-06
5.53675e-07
-1.2064e-06
-1.17236e-06
5.53061e-07
6.02745e-08
-6.61058e-08
-5.19221e-08
2.60236e-07
-3.90828e-07
4.29568e-07
-9.60289e-07
4.49332e-07
-1.0619e-06
4.64638e-07
-1.12929e-06
4.81746e-07
-1.18405e-06
4.97416e-07
-1.21934e-06
5.08227e-07
-1.22853e-06
5.12672e-07
-1.21084e-06
-1.17012e-06
5.10431e-07
8.40626e-08
-1.4073e-07
-3.29077e-08
3.44025e-07
-7.35605e-07
3.79264e-07
-9.95952e-07
3.96629e-07
-1.0793e-06
4.15639e-07
-1.14831e-06
4.35063e-07
-1.20347e-06
4.5086e-07
-1.23514e-06
4.60548e-07
-1.23821e-06
4.64197e-07
-1.21449e-06
-1.16837e-06
4.62442e-07
1.7612e-07
-3.76298e-07
-6.31766e-08
3.05867e-07
-9.0719e-07
3.24573e-07
-1.01481e-06
3.41292e-07
-1.09604e-06
3.60928e-07
-1.16794e-06
3.7964e-07
-1.22218e-06
3.92767e-07
-1.24826e-06
3.9905e-07
-1.2445e-06
4.0056e-07
-1.216e-06
-1.16821e-06
4.004e-07
1.95011e-07
-6.55155e-07
-8.15256e-09
2.29525e-07
-9.42011e-07
2.5111e-07
-1.03641e-06
2.73823e-07
-1.11875e-06
2.96344e-07
-1.19046e-06
3.14172e-07
-1.24001e-06
3.23174e-07
-1.25726e-06
3.23524e-07
-1.24485e-06
3.17926e-07
-1.2104e-06
-1.15876e-06
3.08478e-07
1.16254e-07
-7.71905e-07
-2.59586e-09
1.52037e-07
-9.7781e-07
1.81856e-07
-1.06623e-06
2.0933e-07
-1.14623e-06
2.33192e-07
-1.21433e-06
2.49265e-07
-1.25609e-06
2.54821e-07
-1.26282e-06
2.5172e-07
-1.24175e-06
2.42962e-07
-1.20164e-06
-1.14511e-06
2.29314e-07
6.68677e-08
-8.13492e-07
-6.21944e-09
1.02452e-07
-1.01339e-06
1.32532e-07
-1.09631e-06
1.58662e-07
-1.17236e-06
1.79792e-07
-1.23546e-06
1.92102e-07
-1.2684e-06
1.9446e-07
-1.26518e-06
1.89637e-07
-1.23692e-06
1.80202e-07
-1.19221e-06
-1.12885e-06
1.63938e-07
5.3952e-08
-8.42245e-07
-8.46564e-09
7.89707e-08
-1.03847e-06
1.01706e-07
-1.11905e-06
1.21986e-07
-1.19264e-06
1.37497e-07
-1.25097e-06
1.44832e-07
-1.27573e-06
1.4459e-07
-1.26494e-06
1.39297e-07
-1.23163e-06
1.30303e-07
-1.18322e-06
-1.10471e-06
1.06167e-07
4.25698e-08
-8.78825e-07
-9.03075e-09
5.93226e-08
-1.05523e-06
7.66302e-08
-1.13636e-06
9.26601e-08
-1.20867e-06
1.03006e-07
-1.26131e-06
1.05952e-07
-1.27868e-06
1.0431e-07
-1.2633e-06
9.95688e-08
-1.22689e-06
9.1694e-08
-1.17534e-06
-1.07741e-06
5.81905e-08
2.73827e-08
-9.05733e-07
-5.94755e-09
4.06106e-08
-1.06846e-06
5.55714e-08
-1.15132e-06
6.92024e-08
-1.2223e-06
7.4971e-08
-1.26708e-06
7.44064e-08
-1.27811e-06
7.24856e-08
-1.26138e-06
6.91179e-08
-1.22352e-06
6.31043e-08
-1.16933e-06
-1.05469e-06
3.55749e-08
1.1216e-08
-9.19539e-07
-1.5219e-09
2.34784e-08
-1.08072e-06
3.8219e-08
-1.16606e-06
5.05344e-08
-1.23462e-06
5.23113e-08
-1.26886e-06
4.91217e-08
-1.27492e-06
4.75927e-08
-1.25985e-06
4.62721e-08
-1.2222e-06
4.39951e-08
-1.16705e-06
-1.04207e-06
2.67522e-08
-5.44413e-09
-9.27173e-07
1.09665e-08
9.6303e-09
-1.09579e-06
2.59082e-08
-1.18233e-06
3.70258e-08
-1.24573e-06
3.55812e-08
-1.26741e-06
3.05906e-08
-1.26993e-06
2.94434e-08
-1.2587e-06
2.9563e-08
-1.22232e-06
2.90893e-08
-1.16658e-06
-1.03656e-06
1.72126e-08
-1.36743e-08
-9.24078e-07
1.59105e-08
2.50253e-09
-1.11197e-06
1.9502e-08
-1.19933e-06
2.84476e-08
-1.25468e-06
2.52394e-08
-1.26421e-06
2.01421e-08
-1.26483e-06
2.05785e-08
-1.25914e-06
2.42452e-08
-1.22599e-06
2.88579e-08
-1.17119e-06
-1.03632e-06
2.09565e-08
-2.05854e-08
-9.17963e-07
1.97525e-08
-2.83206e-09
-1.12972e-06
1.53921e-08
-1.21756e-06
2.24841e-08
-1.26177e-06
1.99288e-08
-1.26165e-06
1.66141e-08
-1.26152e-06
1.92076e-08
-1.26173e-06
2.73566e-08
-1.23414e-06
3.84777e-08
-1.18231e-06
-1.03729e-06
3.3259e-08
-2.65804e-08
-9.14165e-07
2.20276e-08
-7.11843e-09
-1.14919e-06
1.23368e-08
-1.23702e-06
1.81622e-08
-1.2676e-06
1.76796e-08
-1.26117e-06
1.7147e-08
-1.26099e-06
2.18307e-08
-1.26641e-06
3.43564e-08
-1.24666e-06
5.10595e-08
-1.19901e-06
-1.03713e-06
4.75286e-08
-3.79764e-08
-9.30529e-07
3.69506e-08
-1.11365e-08
-1.17603e-06
1.04973e-08
-1.25865e-06
1.51928e-08
-1.27229e-06
1.58412e-08
-1.26182e-06
1.64944e-08
-1.26164e-06
2.08126e-08
-1.27073e-06
3.48339e-08
-1.26068e-06
5.20637e-08
-1.21624e-06
-1.03501e-06
4.92541e-08
-2.11619e-08
-9.42379e-07
2.11216e-08
-2.83612e-10
-1.1969e-06
1.59836e-08
-1.27492e-06
1.59946e-08
-1.2723e-06
1.45915e-08
-1.26041e-06
1.32317e-08
-1.26028e-06
1.33669e-08
-1.27087e-06
2.35598e-08
-1.27087e-06
3.16073e-08
-1.22429e-06
-1.02668e-06
2.40845e-08
-4.13699e-10
-9.55509e-07
8.21757e-09
1.59545e-08
-1.2132e-06
2.45024e-08
-1.28346e-06
1.85631e-08
-1.26636e-06
1.3611e-08
-1.25546e-06
9.15275e-09
-1.25582e-06
4.71751e-09
-1.26643e-06
1.06573e-08
-1.27681e-06
1.15265e-08
-1.22516e-06
-1.01379e-06
3.54857e-37
2.02989e-08
-9.6046e-07
-1.53055e-11
2.97386e-08
-1.22264e-06
2.98566e-08
-1.28358e-06
1.9194e-08
-1.2557e-06
1.11271e-08
-1.24739e-06
3.69553e-09
-1.24839e-06
-4.91449e-09
-1.25782e-06
-1.64974e-09
-1.28008e-06
3.25634e-09
-1.23007e-06
-1.00924e-06
2.34976e-36
-2.7351e-09
-9.62706e-07
-1.24382e-10
2.78237e-08
-1.2532e-06
2.77486e-08
-1.28351e-06
1.6603e-08
-1.24455e-06
7.72518e-09
-1.23852e-06