/*--------------------------------*- C++ -*----------------------------------*\
  =========                 |
  \\      /  F ield         | OpenFOAM: The Open Source CFD Toolbox
   \\    /   O peration     | Website:  https://openfoam.org
    \\  /    A nd           | Version:  8
     \\/     M anipulation  |
\*---------------------------------------------------------------------------*/
FoamFile
{
    version     2.0;
    format      ascii;
    class       volScalarField;
    location    "3.5";
    object      k;
}
// * * * * * * * * * * * * * * * * * * * * * * * * * * * * * * * * * * * * * //

dimensions      [0 2 -2 0 0 0 0];

internalField   nonuniform List<scalar> 
9150
(
0.0018276
0.000940623
0.00047529
0.000301446
0.000192809
0.000192746
0.000301359
0.000475209
0.00094055
0.0018276
0.00178502
0.000746243
0.000398587
0.000256773
0.000161298
0.000161246
0.000256692
0.000398513
0.000746183
0.00178501
0.0017135
0.000650929
0.000365605
0.000236731
0.000148673
0.000148628
0.000236656
0.000365536
0.00065088
0.00171349
0.00163492
0.000600852
0.000352482
0.0002287
0.00014387
0.000143828
0.000228629
0.000352415
0.000600812
0.00163491
0.00155144
0.000579294
0.000347706
0.000225878
0.000142365
0.000142325
0.000225808
0.000347641
0.00057926
0.00155143
0.00285005
0.00256152
0.00185203
0.00161739
0.00133332
0.00133357
0.00161848
0.0018544
0.00256508
0.00285058
0.00230517
0.00150441
0.00128051
0.00120885
0.000976699
0.000976701
0.00120921
0.00128149
0.00150508
0.00230514
0.00205026
0.00125282
0.000888029
0.000806844
0.000626906
0.000626831
0.000806897
0.000888304
0.00125291
0.0020502
0.0018682
0.00111073
0.000649769
0.000529851
0.000386999
0.000386916
0.000529789
0.000649784
0.00111064
0.00186817
0.00178753
0.00102115
0.000524035
0.000371611
0.000253289
0.000253217
0.000371524
0.000523968
0.00102105
0.00178751
0.0115531
0.00483379
0.00257011
0.00189929
0.00154274
0.00153883
0.00189555
0.00258243
0.00501888
0.0121531
0.0049091
0.0038103
0.00250449
0.00189589
0.00154949
0.00154771
0.0018961
0.00250339
0.00377203
0.00492732
0.00440834
0.00343631
0.00248157
0.00189388
0.00155688
0.00155661
0.00189624
0.00248456
0.00342389
0.004415
0.00392116
0.00315351
0.00246336
0.00188989
0.00156417
0.00156469
0.00189253
0.00246678
0.00315613
0.00392389
0.00336219
0.00310167
0.00236167
0.00184364
0.00153738
0.00153807
0.00184583
0.00236505
0.00310821
0.00336327
0.00182326
0.00183727
0.00184608
0.00184889
0.00184449
0.00183113
0.00180674
0.00176961
0.0017228
0.00167864
0.00390176
0.00392084
0.00393116
0.00393159
0.00392082
0.00389747
0.00386041
0.00380931
0.00374519
0.00366957
0.00497724
0.0049972
0.00500776
0.00500801
0.004997
0.00497399
0.00493866
0.00489146
0.00483389
0.00476873
0.00577606
0.00579645
0.00580759
0.00580879
0.00579943
0.00577915
0.00574813
0.00570722
0.00565819
0.00560347
0.00646166
0.00648256
0.0064946
0.0064972
0.00648988
0.0064725
0.00644552
0.00641007
0.00636805
0.00632153
0.00709144
0.00711316
0.00712642
0.00713059
0.00712517
0.00711014
0.00708617
0.00705471
0.00701783
0.00697778
0.0076936
0.00771666
0.00773158
0.0077374
0.00773339
0.00771957
0.00769707
0.00766779
0.00763392
0.00759845
0.00828581
0.0083111
0.0083286
0.00833643
0.00833295
0.00831829
0.00829444
0.00826444
0.00823145
0.00819805
0.00888049
0.0089093
0.00893007
0.00893945
0.00893472
0.00891669
0.00888958
0.00885764
0.00882394
0.00879013
0.0094848
0.00951737
0.00954214
0.00955366
0.00954565
0.00952117
0.00948893
0.0094545
0.00941997
0.00938558
0.0101007
0.0101348
0.0101598
0.0101653
0.0101516
0.0101243
0.0100898
0.0100555
0.0100223
0.00998923
0.0107323
0.0107624
0.010774
0.0107605
0.0107483
0.0107359
0.010711
0.0106833
0.0106563
0.01063
0.011394
0.0114205
0.0114253
0.0114164
0.0114073
0.0114
0.0113867
0.0113697
0.0113538
0.0113401
0.012102
0.0121325
0.0121461
0.0121511
0.0121512
0.0121466
0.0121424
0.0121393
0.0121403
0.0121464
0.0128796
0.0129178
0.012945
0.0129661
0.0129803
0.0129879
0.0129997
0.0130199
0.0130494
0.0130883
0.0137429
0.0137912
0.013829
0.013862
0.0138966
0.0139368
0.0139862
0.014048
0.0141239
0.0142151
0.0147062
0.014774
0.0148366
0.0148995
0.0149699
0.0150537
0.0151544
0.0152751
0.0154179
0.0155839
0.0158058
0.0159051
0.0160062
0.0161155
0.0162398
0.0163853
0.016557
0.016759
0.0169938
0.0172627
0.0170789
0.0172246
0.0173801
0.0175536
0.0177529
0.0179847
0.0182546
0.018568
0.0189282
0.0193348
0.0185702
0.0187814
0.0190123
0.0192741
0.0195762
0.0199251
0.0203267
0.0207887
0.021315
0.0218999
0.0203363
0.0206378
0.0209706
0.0213517
0.0217924
0.0222961
0.0228678
0.0235213
0.0242626
0.0250688
0.0224417
0.0228667
0.0233328
0.0238679
0.0244893
0.0251894
0.0259731
0.026867
0.0278772
0.0289395
0.0249388
0.025532
0.0261788
0.0268996
0.0277305
0.0286652
0.029701
0.0308673
0.0321667
0.0335011
0.0278465
0.0286341
0.0294864
0.0304281
0.0314807
0.0326672
0.0339917
0.0354454
0.0370095
0.0385952
0.0311506
0.0321469
0.0332105
0.0343714
0.0356581
0.0371001
0.0387053
0.0404134
0.0421659
0.0439055
0.0348002
0.0359948
0.0372527
0.0386018
0.0400733
0.0416923
0.0434504
0.0453101
0.0472342
0.0491252
0.0387641
0.0401213
0.041525
0.0430018
0.0445804
0.0462751
0.0480703
0.0499357
0.0518276
0.0536388
0.0430508
0.044526
0.0460147
0.0475421
0.0491365
0.0508088
0.0525289
0.0542565
0.055951
0.0575188
0.0476557
0.0491781
0.0506692
0.0521538
0.0536611
0.0552105
0.0567734
0.0582826
0.0596718
0.0609109
0.0525191
0.0540196
0.0554351
0.056793
0.058114
0.0594124
0.0606878
0.0618675
0.0628564
0.0636845
0.0577125
0.059122
0.0603795
0.0615174
0.0625636
0.0635267
0.0643847
0.0651119
0.0656817
0.0660805
0.0634046
0.0646693
0.0657009
0.0665449
0.067222
0.0677441
0.0681069
0.0683021
0.0683364
0.0682183
0.069835
0.0709211
0.0716553
0.0720827
0.0722656
0.0722456
0.0720264
0.0716225
0.0710607
0.0703852
0.0772082
0.078101
0.0784919
0.0784511
0.0780853
0.0774371
0.0765459
0.0754639
0.0742487
0.0729692
0.0858298
0.0865372
0.086563
0.0860303
0.0850566
0.0837143
0.0820786
0.0802383
0.0782868
0.0763215
0.0959504
0.0965332
0.0962183
0.0951939
0.0935813
0.091484
0.0890138
0.0863016
0.0834865
0.0807127
0.107721
0.108319
0.107784
0.106294
0.103997
0.101048
0.0976189
0.093888
0.0900439
0.0862852
0.121279
0.122136
0.121508
0.11958
0.116545
0.11263
0.108076
0.103123
0.0980198
0.0930268
0.136818
0.138298
0.137621
0.135213
0.131359
0.126334
0.120445
0.11401
0.107358
0.100825
0.154237
0.157067
0.156333
0.15334
0.148529
0.142186
0.134686
0.126449
0.11792
0.109537
0.173266
0.177781
0.177902
0.174574
0.168498
0.160361
0.150757
0.140265
0.129466
0.118914
0.19182
0.19941
0.203404
0.200043
0.191904
0.180928
0.168319
0.154935
0.141428
0.128409
0.201348
0.224755
0.223825
0.225778
0.21808
0.203388
0.186734
0.169807
0.153129
0.137346
0.190964
0.21988
0.234146
0.226775
0.221605
0.214981
0.202064
0.18363
0.16359
0.144811
0.163781
0.186492
0.210506
0.220437
0.213765
0.204964
0.196587
0.185923
0.16973
0.148897
0.131319
0.147907
0.164659
0.179824
0.187341
0.1844
0.176924
0.167184
0.155327
0.140686
0.100219
0.112132
0.123818
0.134492
0.142931
0.147806
0.146991
0.140846
0.131072
0.119071
0.073875
0.0821091
0.0902307
0.0977343
0.104023
0.108365
0.109748
0.107613
0.102353
0.0954527
0.0544956
0.0597322
0.0650156
0.0700406
0.0744258
0.0777278
0.0795033
0.0794816
0.0778235
0.0750984
0.0423717
0.0455758
0.0488695
0.0521077
0.0551007
0.0576297
0.0594959
0.0605672
0.0609037
0.0606907
0.0355777
0.0376996
0.0399099
0.0421494
0.044341
0.0463963
0.048212
0.0497357
0.0509739
0.0519799
0.0318498
0.0334782
0.035197
0.036984
0.0388101
0.04063
0.0424008
0.0441006
0.0457223
0.0472752
0.0297402
0.0311631
0.032684
0.0342961
0.0359862
0.0377285
0.0395102
0.0413207
0.043155
0.0450156
0.0285524
0.0299148
0.0313887
0.0329745
0.0346605
0.03644
0.0383085
0.0402618
0.0422984
0.0444201
0.0280211
0.0294225
0.0309577
0.0326281
0.0344285
0.036361
0.0384235
0.0406119
0.0429211
0.0453465
0.0281144
0.0296586
0.0313737
0.0332583
0.0353106
0.0375286
0.0399068
0.0424361
0.0451041
0.0478959
0.0289657
0.0308012
0.0328586
0.0351231
0.0375945
0.0402644
0.0431173
0.046132
0.0492832
0.0525424
0.0308822
0.0332189
0.0358418
0.038725
0.0418564
0.0452109
0.0487536
0.0524443
0.0562402
0.0600972
0.0343564
0.037502
0.0410241
0.0448574
0.0489635
0.0532872
0.057764
0.0623275
0.0669144
0.0714642
0.0401237
0.0445007
0.0493453
0.054522
0.0599399
0.0655031
0.0711106
0.0766674
0.082088
0.0872967
0.0490878
0.055156
0.0617339
0.0686085
0.0755892
0.0825375
0.0893179
0.0958105
0.101913
0.107549
0.0619392
0.0700483
0.0786099
0.0873876
0.0960131
0.104298
0.112071
0.119199
0.125593
0.131212
0.0786237
0.0889065
0.099511
0.110165
0.120388
0.129798
0.138184
0.145412
0.151451
0.156359
0.0980358
0.110441
0.123037
0.135435
0.147144
0.157382
0.165787
0.172283
0.177024
0.180277
0.118185
0.132616
0.147223
0.161445
0.174442
0.185093
0.19256
0.19707
0.19926
0.199793
0.136899
0.153431
0.170395
0.186913
0.201316
0.211541
0.216472
0.217262
0.215509
0.212429
0.153074
0.172286
0.192679
0.212948
0.229485
0.237506
0.237
0.231736
0.224683
0.217433
0.16787
0.191359
0.217823
0.245566
0.265384
0.265805
0.254753
0.24086
0.22757
0.216143
0.184264
0.214976
0.25222
0.295023
0.318807
0.297179
0.269881
0.246015
0.22658
0.211584
0.204935
0.246649
0.299109
0.361473
0.377672
0.324736
0.281092
0.248235
0.223772
0.206296
0.229675
0.283398
0.350914
0.42197
0.404188
0.336775
0.284901
0.246769
0.219423
0.200985
0.255072
0.31922
0.404442
0.459727
0.409828
0.336851
0.281807
0.241503
0.213367
0.195495
0.278881
0.354509
0.45127
0.473464
0.400315
0.328012
0.272879
0.232721
0.205593
0.189669
0.301252
0.384758
0.479212
0.46646
0.38279
0.312611
0.25917
0.220974
0.196407
0.183634
0.323468
0.41215
0.486203
0.443255
0.358688
0.291754
0.241793
0.207196
0.186483
0.177806
0.345488
0.438196
0.475112
0.406204
0.32817
0.267339
0.222514
0.19267
0.176681
0.17272
0.362893
0.453633
0.445557
0.366215
0.2969
0.242498
0.203112
0.178491
0.167732
0.168881
0.37712
0.446316
0.405753
0.329641
0.266619
0.218105
0.184279
0.165265
0.160171
0.166768
0.389528
0.421253
0.358807
0.292399
0.23696
0.194549
0.166488
0.15347
0.154464
0.166789
0.384623
0.385396
0.320517
0.25973
0.209706
0.172482
0.150132
0.143504
0.151018
0.169275
0.370656
0.343661
0.283765
0.228794
0.183779
0.15159
0.135325
0.135705
0.150217
0.174594
0.350527
0.306284
0.251138
0.200819
0.159607
0.132082
0.122374
0.130433
0.152322
0.182883
0.333646
0.280052
0.224911
0.176056
0.137026
0.11395
0.111506
0.127895
0.15734
0.194083
0.311302
0.255027
0.200711
0.152719
0.115389
0.0971624
0.102867
0.127945
0.164769
0.20762
0.292996
0.23394
0.179539
0.131561
0.0952957
0.082135
0.0964339
0.129875
0.173299
0.221532
0.283244
0.219858
0.163329
0.1138
0.0774079
0.0690059
0.0916876
0.13266
0.181758
0.234386
0.279941
0.211377
0.151177
0.0988852
0.0614492
0.0573282
0.0877037
0.135334
0.189641
0.246211
0.278361
0.204837
0.140586
0.0853226
0.0468826
0.0465645
0.0835151
0.137145
0.196926
0.258158
0.276306
0.198138
0.129921
0.0721827
0.0337581
0.0364783
0.0782601
0.137396
0.20347
0.271049
0.273855
0.190778
0.118614
0.0592723
0.0226464
0.0271391
0.0712169
0.135335
0.208752
0.284758
0.27156
0.182766
0.106529
0.046805
0.0141341
0.0188344
0.0618976
0.130098
0.212009
0.299228
0.268973
0.173724
0.0934865
0.0351736
0.00836375
0.012007
0.0503329
0.120694
0.211778
0.313833
0.265088
0.162529
0.0793986
0.0249284
0.00493389
0.00707429
0.0374853
0.106496
0.205999
0.326749
0.25796
0.148486
0.0644621
0.0166251
0.00313102
0.00408581
0.0251785
0.0877643
0.19203
0.332988
0.245504
0.131063
0.0493899
0.0105759
0.00226393
0.00259663
0.0153378
0.0663198
0.16796
0.325004
0.227486
0.11067
0.0354679
0.0066767
0.00186589
0.0019621
0.0088669
0.0454126
0.133916
0.29184
0.200946
0.0877374
0.0240362
0.00436182
0.00168063
0.00170684
0.0053223
0.0286558
0.0950046
0.227875
0.164562
0.0647769
0.0152525
0.00305396
0.00159345
0.00160007
0.00357031
0.0177668
0.0622259
0.146806
0.12017
0.043036
0.00898207
0.00235171
0.00155496
0.00155334
0.0026093
0.0110129
0.0422192
0.0951519
0.0777994
0.0255926
0.00500759
0.00201855
0.00154216
0.00153696
0.00206597
0.00584863
0.0267767
0.0697816
0.00162984
0.00157954
0.00153645
0.00151006
0.00150714
0.00152849
0.00156801
0.00161662
0.0016689
0.00172925
0.00179191
0.00183796
0.0018646
0.00187176
0.00185376
0.00181218
0.00174998
0.00167708
0.00161356
0.00156894
0.00153803
0.00151791
0.00149459
0.00146295
0.0014224
0.00137115
0.0013054
0.00122426
0.0011449
0.00107041
0.00100292
0.000942031
0.000886763
0.000835369
0.000769395
0.000685846
0.000587336
0.000479149
0.00044157
0.0003157
0.00358397
0.00349908
0.00343279
0.00339686
0.00339645
0.00343157
0.00349521
0.00357634
0.00366367
0.00374649
0.00381418
0.00386198
0.00388665
0.00388494
0.00385479
0.00379626
0.00371274
0.0036133
0.00351102
0.00341838
0.00333583
0.00325521
0.00317077
0.00307919
0.00297865
0.00286735
0.00274361
0.00260803
0.0024654
0.00232328
0.00219228
0.00206408
0.00193352
0.00179267
0.00163305
0.00145732
0.00126346
0.00104831
0.000816963
0.000570665
0.00469647
0.0046247
0.00456783
0.00453904
0.00454404
0.00457984
0.00463677
0.00470332
0.00477055
0.00483095
0.00487816
0.00490794
0.00491693
0.00490258
0.00486356
0.00479967
0.00471179
0.00460354
0.00448432
0.00436628
0.00425234
0.00413834
0.00402051
0.00389715
0.00376622
0.00362625
0.00347693
0.00332027
0.00315855
0.00299559
0.00283222
0.00266432
0.0024895
0.00230209
0.00209757
0.00187883
0.00164751
0.00140326
0.00114252
0.000869644
0.0055427
0.00547896
0.0054255
0.00539933
0.0054086
0.0054447
0.0054971
0.00555194
0.00560202
0.00564248
0.0056698
0.00568012
0.00567103
0.00564145
0.00559143
0.00552161
0.00543239
0.0053227
0.00519415
0.0050574
0.00492281
0.00479048
0.00465646
0.00451694
0.00436957
0.00421247
0.00404641
0.00387453
0.00369937
0.00352047
0.00333469
0.00314135
0.00293784
0.00271703
0.00247554
0.00221863
0.00194913
0.00166944
0.0013847
0.00111258
0.00627021
0.00621585
0.00616914
0.006143
0.00614539
0.00617176
0.00621678
0.00626468
0.00630416
0.00633036
0.00633977
0.00632994
0.00630018
0.00625151
0.00618604
0.00610615
0.0060132
0.00590442
0.00577601
0.00563022
0.00547886
0.00533306
0.0051942
0.00505746
0.00491674
0.00476288
0.00459275
0.00441204
0.00422717
0.0040384
0.00384363
0.00364251
0.00342885
0.00318349
0.00289995
0.00258745
0.00225296
0.00190577
0.00156415
0.00126301
0.00693424
0.00688896
0.00684814
0.0068202
0.00680917
0.00681785
0.00684967
0.00689235
0.00692814
0.00694541
0.00693675
0.00690457
0.00685129
0.00678076
0.00669692
0.00660328
0.00650214
0.00639208
0.00626787
0.00612636
0.00597198
0.00581796
0.00567829
0.00556243
0.00546384
0.00534728
0.0051949
0.00502401
0.00484808
0.00466949
0.00449203
0.00431759
0.00412692
0.00387818
0.00355507
0.00316818
0.00273484
0.00226286
0.00178125
0.0013786
0.00756139
0.00752344
0.00748644
0.00745126
0.00742364
0.00741226
0.00742511
0.00745833
0.00749166
0.00750016
0.00747351
0.00741772
0.00734136
0.00725099
0.00715112
0.00704464
0.0069331
0.00681618
0.00669149
0.00655599
0.00640885
0.00626038
0.00613129
0.00604165
0.00599951
0.00596546
0.00588798
0.00576255
0.00562652
0.00550637
0.0054087
0.00532251
0.00519966
0.00497395
0.00461904
0.00415661
0.00360821
0.00297037
0.00222214
0.00140274
0.00816336
0.00812614
0.00808558
0.00804189
0.00800135
0.00797242
0.00796389
0.00797973
0.00800233
0.00799736
0.00795213
0.00787696
0.00778582
0.00768572
0.0075795
0.00746772
0.00735031
0.00722751
0.00709968
0.00696728
0.00683267
0.00670344
0.00659338
0.00651656
0.00647937
0.00651783
0.00658152
0.00657597
0.00653493
0.00653559
0.0065836
0.00656315
0.00646329
0.00626963
0.00593618
0.00543362
0.00478611
0.00397818
0.00299635
0.00141213
0.0087541
0.00871367
0.00866821
0.00861767
0.00856681
0.00852286
0.00849158
0.00847222
0.00846485
0.00844833
0.00839414
0.00831581
0.0082278
0.00813564
0.00803932
0.00793673
0.00782635
0.00770975
0.00759094
0.00747395
0.0073631
0.00726315
0.00717468
0.00710151
0.00705691
0.00709759
0.00721185
0.00730985
0.00739997
0.00748729
0.00755785
0.00758748
0.00755285
0.00739856
0.00710596
0.00662444
0.00589478
0.00492611
0.00375937
0.00190061
0.00934835
0.00930634
0.00926021
0.00920978
0.00915682
0.00910511
0.00905766
0.00901301
0.00897702
0.00894518
0.00888793
0.00881652
0.00874495
0.00867482
0.00860327
0.00852537
0.00843732
0.00834396
0.00825548
0.00817676
0.00810938
0.00805239
0.00798874
0.00792046
0.00788189
0.00789726
0.00798701
0.00813322
0.00828724
0.00842984
0.00854344
0.00858784
0.0085405
0.00835896
0.00801376
0.00748644
0.00673149
0.00569997
0.00416213
0.00180708
0.00995366
0.00991499
0.00987557
0.00983655
0.0097974
0.00975445
0.00971106
0.00966834
0.00961982
0.00956679
0.00950541
0.00944494
0.00939434
0.00935299
0.00931697
0.00927773
0.00922944
0.00918614
0.00916537
0.00916711
0.00918248
0.00919855
0.00919175
0.00916114
0.00914117
0.00913315
0.00916289
0.0092703
0.00943295
0.00960859
0.00976032
0.00986662
0.00988711
0.00977762
0.00949047
0.00897773
0.00817509
0.00697319
0.00510792
0.00204419
0.0106028
0.0105749
0.010549
0.0105264
0.0105074
0.0104895
0.0104706
0.0104438
0.0103987
0.0103453
0.010295
0.0102561
0.0102336
0.0102276
0.0102343
0.0102431
0.0102525
0.0102906
0.0103726
0.0104858
0.010611
0.0107237
0.0108011
0.0108312
0.0108423
0.0108442
0.0108533
0.0109055
0.011015
0.0111672
0.0113338
0.0114887
0.0115989
0.0116133
0.0114699
0.0110957
0.0103853
0.00915558
0.00704899
0.00296625
0.011328
0.0113186
0.0113136
0.0113138
0.0113182
0.0113249
0.011331
0.0113347
0.011334
0.0113297
0.0113298
0.0113414
0.0113696
0.0114165
0.0114797
0.0115486
0.0116307
0.0117567
0.0119311
0.0121371
0.012354
0.0125565
0.0127195
0.0128343
0.0129045
0.0129431
0.0129632
0.0129888
0.013043
0.0131355
0.0132621
0.013404
0.0135388
0.0136204
0.0135833
0.0133422
0.0127831
0.0117046
0.00961217
0.00454035
0.0121586
0.0121791
0.0122083
0.0122473
0.0122957
0.0123514
0.0124121
0.0124771
0.0125464
0.0126198
0.0127006
0.0127948
0.0129057
0.0130328
0.0131749
0.0133244
0.013486
0.0136762
0.0138995
0.0141518
0.0144167
0.014673
0.014899
0.015075
0.0151956
0.0152657
0.0152972
0.0153113
0.0153303
0.0153736
0.0154539
0.0155713
0.0157071
0.0158228
0.0158425
0.0156455
0.0151028
0.0140911
0.0121802
0.00671638
0.0131404
0.0132096
0.0132942
0.0133952
0.0135123
0.0136443
0.0137887
0.013943
0.0141058
0.0142774
0.0144604
0.0146588
0.0148737
0.0151009
0.0153349
0.0155696
0.0158043
0.0160458
0.0162983
0.0165612
0.0168257
0.0170776
0.0173028
0.0174875
0.0176234
0.0177101
0.0177544
0.0177692
0.0177748
0.0177975
0.0178655
0.0179999
0.0181929
0.0184028
0.0185241
0.0183575
0.0176605
0.0163498
0.0143508
0.00766162
0.0143291
0.0144719
0.0146379
0.0148279
0.0150412
0.0152758
0.0155281
0.0157944
0.0160718
0.0163586
0.0166536
0.0169568
0.0172686
0.0175853
0.0178997
0.018206
0.0184971
0.0187732
0.0190391
0.0192943
0.0195269
0.0197322
0.0199076
0.02005
0.0201549
0.0202219
0.0202567
0.0202718
0.0202873
0.0203318
0.0204416
0.020657
0.0209891
0.0213999
0.0217248
0.0216149
0.0205527
0.0184706
0.0155354
0.00719569
0.015786
0.0160318
0.0163098
0.0166192
0.016957
0.0173191
0.0177003
0.0180952
0.018498
0.0189027
0.0193033
0.0196978
0.0200855
0.020464
0.0208269
0.0211671
0.0214783
0.0217568
0.0220016
0.0222139
0.0223961
0.0225454
0.0226601
0.0227414
0.0227918
0.0228163
0.0228235
0.0228283
0.022854
0.0229351
0.0231187
0.0234609
0.0239934
0.0246695
0.0252244
0.0250156
0.0232219
0.0197005
0.0146454
0.0066764
0.0175845
0.0179679
0.0183921
0.0188528
0.0193426
0.0198531
0.0203757
0.0209031
0.0214266
0.0219349
0.0224181
0.022873
0.0233002
0.023699
0.024065
0.0243933
0.0246809
0.0249247
0.025122
0.0252737
0.0253851
0.0254591
0.025499
0.0255088
0.0254946
0.0254649
0.0254318
0.0254139
0.0254394
0.0255511
0.0258112
0.0262975
0.027076
0.0281133
0.0289711
0.0282987
0.0250838
0.0199589
0.0135997
0.00610865
0.0198134
0.0203727
0.020979
0.0216225
0.0222879
0.0229593
0.023623
0.0242697
0.0248898
0.0254688
0.0259925
0.0264585
0.0268736
0.0272422
0.0275621
0.0278328
0.0280568
0.0282313
0.0283514
0.0284195
0.0284435
0.0284303
0.0283861
0.0283172
0.0282316
0.0281396
0.0280545
0.0279964
0.0279969
0.0281064
0.0284033
0.0289963
0.0300064
0.0314308
0.0323045
0.0305528
0.026402
0.0211109
0.0150251
0.00674862
0.0225742
0.0233463
0.0241665
0.0250159
0.0258693
0.0266996
0.0274888
0.028225
0.0288956
0.0294889
0.0299964
0.0304193
0.0307655
0.0310454
0.0312646
0.0314321
0.0315538
0.0316234
0.0316362
0.0315999
0.0315258
0.0314212
0.0312914
0.0311426
0.0309835
0.0308238
0.0306758
0.0305579
0.0304997
0.0305486
0.0307823
0.0313239
0.0323464
0.0336294
0.032752
0.0306458
0.0278399
0.0234254
0.0180685
0.00851625
0.0259704
0.0269829
0.0280366
0.0290916
0.0301144
0.0310684
0.0319407
0.0327215
0.0333907
0.0339389
0.0343719
0.0346954
0.034915
0.035046
0.0351103
0.0351308
0.0351159
0.0350512
0.0349364
0.0347861
0.0346124
0.0344182
0.0342039
0.0339745
0.0337381
0.0335028
0.0332777
0.0330793
0.0329324
0.0328626
0.0328976
0.0331056
0.0335915
0.0339859
0.0327446
0.0305936
0.0284031
0.0251955
0.0203634
0.0103356
0.0300897
0.0313663
0.032657
0.0338739
0.0349824
0.0359679
0.036845
0.0376118
0.0382398
0.0387033
0.0390098
0.0391783
0.0392243
0.0391663
0.0390335
0.0388706
0.0386891
0.038474
0.0382315
0.037977
0.0377166
0.0374417
0.0371433
0.0368245
0.0364938
0.0361591
0.03583
0.0355239
0.035261
0.0350232
0.0347715
0.0345199
0.0342984
0.0339793
0.0329774
0.0312148
0.0287223
0.0258684
0.0214849
0.0115708
0.0349331
0.0364981
0.0379521
0.039206
0.0402867
0.0412325
0.0420665
0.0427714
0.0433032
0.0436339
0.0437775
0.0437521
0.0435825
0.0433038
0.0429506
0.0425735
0.0422141
0.0418681
0.041532
0.0412101
0.040898
0.0405684
0.0401925
0.0397692
0.0393119
0.0388347
0.038354
0.0378898
0.0374437
0.0369381
0.0363257
0.0356184
0.0348127
0.0338468
0.0325629
0.0307746
0.0284039
0.0255253
0.0212893
0.0117503
0.0402498
0.0419293
0.0434103
0.0446866
0.0457649
0.0467034
0.0475058
0.0481134
0.0484664
0.0485863
0.0485002
0.0482218
0.0477891
0.047259
0.0466895
0.0461474
0.0456816
0.0452771
0.0449117
0.044589
0.0442899
0.0439592
0.0435419
0.0430185
0.0423977
0.0417023
0.0409679
0.0402291
0.0394743
0.03862
0.0376462
0.036559
0.0353557
0.0339883
0.0323732
0.0304398
0.028115
0.0251883
0.0209012
0.0114935
0.0456949
0.0474113
0.0488628
0.0500832
0.0511568
0.0521083
0.0528436
0.0532779
0.0533881
0.0532321
0.0528611
0.0523112
0.0516349
0.0509028
0.050195
0.0495855
0.0491127
0.0487702
0.0485199
0.0483348
0.0481756
0.0479574
0.0475664
0.046923
0.0460217
0.0449442
0.0437925
0.0426283
0.0414547
0.0402305
0.0389279
0.037536
0.0360494
0.0344354
0.0326348
0.0305771
0.0281534
0.0251081
0.0206601
0.0109479
0.0509498
0.0525726
0.0539018
0.0550472
0.0560898
0.0569324
0.0574462
0.0576207
0.0575252
0.0572034
0.0566643
0.055947
0.0551219
0.0542865
0.053547
0.0529956
0.0526748
0.0525848
0.0526773
0.052886
0.0531216
0.0532163
0.0529074
0.0519969
0.0505226
0.0487509
0.0469271
0.0451672
0.0434837
0.0418414
0.040202
0.0385565
0.0368517
0.0350429
0.0330758
0.0308739
0.0283134
0.0251209
0.0204316
0.010596
0.0553177
0.0567952
0.0580428
0.0591321
0.0600248
0.0606308
0.0609493
0.0610038
0.0608135
0.0603942
0.0597724
0.0590009
0.0581647
0.0573821
0.0568002
0.056577
0.0567779
0.0573769
0.0582918
0.059361
0.0603818
0.0609949
0.060626
0.0589631
0.0562347
0.0531984
0.0503663
0.0478666
0.0456199
0.0435495
0.0415972
0.0396839
0.0377416
0.0357175
0.0335318
0.0311184
0.0283649
0.0249909
0.0201977
0.0104351
0.0589667
0.0602484
0.0613086
0.0621782
0.0628268
0.0632216
0.063368
0.0632824
0.0629814
0.0624857
0.0618381
0.0611166
0.0604488
0.0600057
0.0599559
0.0606208
0.0622222
0.0644944
0.0670145
0.0694199
0.0714858
0.0727704
0.0718968
0.0678352
0.0626549
0.0579164
0.0540565
0.0509736
0.048301
0.045879
0.0435975
0.0413384
0.0390421
0.0366005
0.0339784
0.0311576
0.0280453
0.0243658
0.0192016
0.00997463
0.0620371
0.0629988
0.0637497
0.064311
0.0646716
0.0648169
0.0647469
0.0644744
0.0640217
0.063423
0.062745
0.0621102
0.0617272
0.0619074
0.0630015
0.0651849
0.0697407
0.0752904
0.0794916
0.0821685
0.0844829
0.0876216
0.0842178
0.0752055
0.0679524
0.0625461
0.0586577
0.0559747
0.0534641
0.0507095
0.0478107
0.0448241
0.0417056
0.0382817
0.0346491
0.0309332
0.0271283
0.02298
0.0177071
0.00918877
0.0644211
0.0650088
0.0653984
0.0656115
0.0656566
0.0655323
0.0652382
0.0647823
0.0641873
0.063504
0.0628338
0.0623551
0.0623469
0.0632079
0.0654468
0.069449
0.0752576
0.0815482
0.0861896
0.0898166
0.0926612
0.08981
0.0828427
0.0769078
0.0730169
0.0690424
0.0672536
0.0676432
0.0666703
0.0634241
0.0589358
0.0536644
0.0478977
0.0419483
0.0363691
0.0312278
0.0265138
0.0219134
0.0164514
0.00818114
0.0663433
0.0664568
0.0664298
0.0662856
0.0660339
0.0656726
0.0651961
0.0646062
0.0639279
0.0632289
0.0626466
0.0624143
0.0628844
0.0645555
0.0680278
0.0731917
0.0770346
0.0800911
0.0840073
0.0872759
0.0857449
0.0815117
0.0785583
0.0778954
0.0728895
0.0659422
0.0626853
0.0622288
0.0622838
0.0619483
0.060878
0.0573664
0.0514939
0.0451715
0.0393228
0.0339246
0.0286356
0.0230391
0.0161124
0.00703138
0.0679628
0.0675884
0.0671577
0.0666972
0.0662118
0.0656875
0.0651043
0.0644531
0.0637555
0.0630881
0.0626066
0.0625703
0.0633786
0.0656253
0.0699871
0.0750366
0.0762954
0.076477
0.0788152
0.0796694
0.0761093
0.072125
0.0691654
0.0671328
0.0648165
0.0618232
0.0609005
0.0612209
0.0618769
0.0624611
0.062806
0.0623904
0.0602069
0.0559
0.0510728
0.0454682
0.0377901
0.029062
0.0201581
0.00865315
0.0696021
0.0687573
0.0679633
0.0672537
0.0666226
0.066028
0.0654191
0.0647643
0.0640748
0.0634237
0.0629547
0.0628937
0.0635849
0.0655492
0.0693354
0.0735939
0.0738042
0.0723485
0.0730109
0.0724616
0.0689683
0.0655643
0.0626993
0.0604778
0.0592099
0.0588549
0.0587647
0.0584248
0.0580658
0.0575609
0.0568264
0.055839
0.0545042
0.0524574
0.0496909
0.0462006
0.0411675
0.0333892
0.0240081
0.0108142
0.0716312
0.070316
0.0691899
0.0682962
0.0676149
0.0670522
0.0664854
0.0658482
0.0651435
0.0644448
0.0638655
0.0635593
0.0637598
0.0648476
0.0672874
0.0707433
0.0712012
0.068694
0.0670167
0.0658035
0.0634028
0.0605676
0.0581223
0.0566052
0.0559472
0.0556751
0.0555985
0.0553659
0.0548379
0.053917
0.0525912
0.0510034
0.0493446
0.0476303
0.0456262
0.043043
0.0395718
0.0346847
0.0259458
0.0122458
0.0743635
0.0725351
0.0710669
0.0700218
0.0693837
0.0689982
0.0685728
0.0679367
0.0671461
0.0663025
0.065469
0.0646971
0.0641029
0.0638681
0.0642303
0.0653598
0.066365
0.0650138
0.0625203
0.0602006
0.0582382
0.0564167
0.0551509
0.0545729
0.054557
0.0548783
0.0551868
0.0551519
0.0546091
0.053506
0.0518819
0.0498616
0.0475737
0.0450491
0.0421508
0.0386813
0.03454
0.0297914
0.0232335
0.0103099
0.0780123
0.0755603
0.0736706
0.0724393
0.0718845
0.0718719
0.0719196
0.0713534
0.0703993
0.06931
0.0680761
0.0666835
0.0652901
0.0641149
0.0632772
0.062742
0.0623168
0.0615292
0.0601414
0.0585177
0.0570915
0.056186
0.055924
0.0562783
0.0570631
0.0580085
0.058714
0.0588302
0.0582479
0.0570282
0.0552613
0.0530223
0.0503836
0.0474463
0.044189
0.0404607
0.0361368
0.0310574
0.0243889
0.0107675
0.0826456
0.0793697
0.0768749
0.0753069
0.0747405
0.0751282
0.075983
0.0764221
0.0756184
0.0743097
0.0724912
0.0702698
0.0680788
0.0663016
0.0650166
0.0640483
0.0631744
0.062353
0.0616289
0.0609971
0.060531
0.0604264
0.060867
0.0618822
0.0632443
0.0645865
0.0653187
0.0650598
0.0639899
0.0624516
0.0605745
0.0583447
0.0556825
0.0526493
0.049275
0.0453664
0.0406491
0.0347644
0.0270311
0.0134519
0.088174
0.0837818
0.0803838
0.0781646
0.0772526
0.0777158
0.0792105
0.0811289
0.0837785
0.0821671
0.0791143
0.0757858
0.0728095
0.0707737
0.0693649
0.0682502
0.0672994
0.066587
0.0662434
0.0663363
0.0668548
0.0678063
0.0692011
0.0709788
0.0729706
0.074647
0.074261
0.0721507
0.0699533
0.0679289
0.0659483
0.0638313
0.0613871
0.0585177
0.0551669
0.051155
0.0461388
0.0395875
0.0305836
0.0163916
0.094438
0.0885994
0.0839668
0.0807193
0.0789605
0.0787742
0.0802203
0.0824573
0.0825959
0.0827393
0.0816406
0.0800433
0.0785601
0.0774442
0.0763854
0.0751277
0.073944
0.0731399
0.0728114
0.0731345
0.0742564
0.0761762
0.0788174
0.0817421
0.0840326
0.0838858
0.0807409
0.077583
0.075123
0.0730536
0.0711042
0.0690857
0.0668359
0.0642003
0.0610112
0.0570226
0.0518746
0.0449526
0.0349247
0.0190828
0.101319
0.0937441
0.0876222
0.0830818
0.0801122
0.0786353
0.0785743
0.0798317
0.0809646
0.0797079
0.0780172
0.0768755
0.076564
0.0768699
0.0772731
0.0773207
0.0771882
0.0773332
0.0777537
0.0784951
0.0799107
0.0819764
0.0843049
0.0858383
0.0854151
0.084019
0.0825575
0.0810545
0.0795307
0.0779477
0.0762421
0.0743684
0.0722401
0.0697165
0.0665892
0.0625566
0.057224
0.0499443
0.0392018
0.0213772
0.108608
0.099109
0.0913802
0.0855005
0.0813316
0.0786197
0.0770812
0.076459
0.0764356
0.0762964
0.0755493
0.0747808
0.0743649
0.0743792
0.074768
0.075382
0.0761746
0.0772163
0.0785345
0.0801211
0.0820078
0.0839022
0.0851291
0.0856786
0.0859218
0.0858561
0.085538
0.0849286
0.0840216
0.0828416
0.08138
0.0796479
0.0775971
0.0750815
0.0718759
0.0676641
0.0620638
0.0544178
0.0430819
0.0233364
0.115815
0.104325
0.095009
0.0878968
0.0827495
0.0791878
0.0768128
0.0752739
0.0742929
0.0736357
0.0731977
0.0729998
0.0731234
0.073612
0.0744573
0.075606
0.0769774
0.0785917
0.0804772
0.0825031
0.0843141
0.0856526
0.0866505
0.087496
0.0882428
0.0887987
0.0890695
0.0889743
0.0885023
0.0876724
0.0864681
0.0849011
0.0829182
0.08036
0.0770027
0.0725621
0.0666679
0.0586228
0.0466354
0.0250939
0.122284
0.108754
0.0979465
0.0898005
0.0839531
0.0798993
0.0771492
0.0753054
0.0740759
0.0732734
0.0728116
0.0726956
0.0729578
0.0736072
0.0746231
0.0759618
0.0775646
0.079372
0.0813012
0.0832281
0.0850186
0.086633
0.0881075
0.0894785
0.0907336
0.0918052
0.0925922
0.0929871
0.092954
0.092492
0.0915786
0.0901941
0.0882679
0.0856573
0.0821594
0.0775085
0.071307
0.0628098
0.0500789
0.0267885
0.127144
0.111621
0.0995077
0.0905964
0.084357
0.0801299
0.0773144
0.0754507
0.0742232
0.0734417
0.0730191
0.0729475
0.0732542
0.0739553
0.0750356
0.0764505
0.0781343
0.0800069
0.0819809
0.083969
0.0859238
0.0878436
0.0897405
0.0916118
0.0934141
0.0950464
0.0963761
0.0972834
0.0977013
0.0975948
0.0969315
0.0956815
0.0937806
0.0911064
0.0874733
0.0826136
0.0761037
0.0671346
0.0536129
0.0285326
0.128552
0.111439
0.0986048
0.0894917
0.0833218
0.0792901
0.0767115
0.0750793
0.0740512
0.0734217
0.073101
0.0730927
0.0734491
0.0742112
0.0753754