/*--------------------------------*- C++ -*----------------------------------*\
  =========                 |
  \\      /  F ield         | OpenFOAM: The Open Source CFD Toolbox
   \\    /   O peration     | Website:  https://openfoam.org
    \\  /    A nd           | Version:  8
     \\/     M anipulation  |
\*---------------------------------------------------------------------------*/
FoamFile
{
    version     2.0;
    format      ascii;
    class       volScalarField;
    location    "3.5";
    object      nut;
}
// * * * * * * * * * * * * * * * * * * * * * * * * * * * * * * * * * * * * * //

dimensions      [0 2 -1 0 0 0 0];

internalField   nonuniform List<scalar> 
9150
(
9.60033e-06
6.40496e-06
6.57163e-06
8.73892e-06
7.55971e-06
7.55767e-06
8.73746e-06
6.57112e-06
6.40463e-06
9.60035e-06
9.48783e-06
5.73633e-06
8.27617e-06
9.88209e-06
7.03403e-06
7.03191e-06
9.87971e-06
8.27557e-06
5.73606e-06
9.48782e-06
9.2958e-06
5.49921e-06
1.0801e-05
1.0258e-05
6.68718e-06
6.68519e-06
1.02551e-05
1.07999e-05
5.49899e-06
9.29578e-06
9.08015e-06
5.42129e-06
1.34038e-05
1.02559e-05
6.50094e-06
6.49907e-06
1.02528e-05
1.34018e-05
5.4211e-06
9.08012e-06
8.84531e-06
5.40486e-06
1.56468e-05
1.01645e-05
6.40635e-06
6.40456e-06
1.01613e-05
1.56438e-05
5.4047e-06
8.84528e-06
5.91407e-06
1.12704e-05
1.3841e-05
1.73784e-05
1.6566e-05
1.65643e-05
1.73806e-05
1.38508e-05
1.1278e-05
5.91462e-06
6.28089e-06
8.85795e-06
1.13448e-05
1.52764e-05
1.43296e-05
1.4327e-05
1.52758e-05
1.13497e-05
8.86087e-06
6.28084e-06
6.83135e-06
7.90391e-06
9.37828e-06
1.30458e-05
1.20506e-05
1.20479e-05
1.30444e-05
9.38016e-06
7.90443e-06
6.83125e-06
7.38799e-06
7.29738e-06
7.97139e-06
1.11383e-05
1.01345e-05
1.01321e-05
1.11368e-05
7.97171e-06
7.29708e-06
7.38793e-06
8.07502e-06
6.84717e-06
7.05169e-06
9.64049e-06
8.5926e-06
8.59044e-06
9.63901e-06
7.05134e-06
6.84675e-06
8.07498e-06
1.23543e-05
1.34662e-05
1.24685e-05
1.55449e-05
1.73429e-05
1.74204e-05
1.57412e-05
1.28149e-05
1.45947e-05
1.24764e-05
7.8701e-06
1.07642e-05
1.23275e-05
1.57249e-05
1.74292e-05
1.74777e-05
1.58558e-05
1.24498e-05
1.07845e-05
7.88303e-06
7.45546e-06
1.01721e-05
1.24384e-05
1.59268e-05
1.75113e-05
1.75401e-05
1.60112e-05
1.25051e-05
1.01921e-05
7.46107e-06
7.03134e-06
9.78014e-06
1.24917e-05
1.60881e-05
1.7576e-05
1.75941e-05
1.61403e-05
1.2532e-05
9.80455e-06
7.03378e-06
6.51087e-06
1.00422e-05
1.25123e-05
1.62857e-05
1.74798e-05
1.74881e-05
1.63092e-05
1.2533e-05
1.00623e-05
6.51192e-06
9.57743e-06
9.61407e-06
9.637e-06
9.64423e-06
9.63261e-06
9.59749e-06
9.53312e-06
9.4343e-06
9.30831e-06
9.18714e-06
8.53258e-05
8.52256e-05
8.50007e-05
8.46324e-05
8.40965e-05
8.33573e-05
8.23644e-05
8.1036e-05
7.92172e-05
7.66821e-05
0.00015946
0.00015902
0.000158346
0.000157409
0.000156169
0.000154574
0.000152554
0.000150022
0.000146876
0.000143088
0.000217778
0.000216946
0.000215815
0.00021436
0.000212549
0.000210341
0.000207686
0.000204539
0.000200858
0.000196666
0.000263754
0.000262518
0.000260953
0.000259046
0.000256778
0.000254127
0.000251071
0.000247595
0.000243693
0.000239398
0.000300691
0.000299051
0.000297073
0.000294752
0.000292084
0.000289063
0.000285686
0.000281957
0.000277889
0.000273524
0.00033109
0.000329057
0.00032668
0.000323962
0.000320908
0.000317522
0.000313816
0.000309804
0.0003055
0.000300958
0.00035682
0.000354417
0.000351665
0.000348568
0.000345128
0.000341356
0.000337272
0.000332906
0.000328292
0.000323471
0.000379263
0.000376526
0.00037342
0.000369946
0.000366112
0.000361941
0.000357469
0.000352731
0.000347759
0.000342578
0.000399409
0.000396386
0.000392976
0.000389178
0.000384986
0.000380441
0.000375598
0.000370499
0.000365165
0.000359605
0.000417946
0.000414714
0.000411076
0.000406996
0.000402519
0.0003977
0.000392573
0.000387179
0.000381533
0.000375641
0.000435346
0.000431993
0.000428182
0.000423895
0.000419313
0.000414437
0.000409197
0.000403648
0.000397822
0.000391745
0.000451984
0.000448628
0.000444807
0.000440576
0.000436022
0.000431163
0.000425963
0.00042044
0.000414638
0.000408597
0.000468076
0.00046485
0.000461206
0.000457192
0.000452831
0.000448125
0.000443101
0.000437782
0.00043221
0.00042643
0.000483802
0.000480795
0.000477429
0.000473724
0.000469672
0.000465271
0.00046058
0.000455643
0.0004505
0.000445187
0.000499214
0.000496497
0.000493443
0.000490062
0.000486382
0.000482434
0.000478247
0.000473856
0.000469294
0.000464597
0.000514068
0.000511707
0.000509064
0.000506142
0.000502964
0.000499557
0.00049595
0.000492172
0.000488255
0.000484236
0.000528213
0.000526278
0.000524119
0.000521733
0.00051913
0.000516326
0.000513342
0.000510209
0.000506968
0.000503666
0.000541423
0.000539979
0.000538366
0.00053657
0.00053459
0.000532435
0.00053013
0.00052771
0.000525228
0.000522755
0.000553425
0.000552556
0.000551583
0.000550471
0.000549211
0.000547823
0.000546344
0.000544821
0.000543319
0.000541931
0.000564031
0.000563897
0.00056375
0.000563527
0.000563206
0.000562837
0.000562494
0.000562234
0.000562114
0.000562212
0.000573317
0.000574178
0.000575194
0.000576241
0.00057726
0.000578312
0.000579563
0.000581073
0.000582874
0.000584895
0.000581765
0.000583967
0.000586536
0.000589356
0.000592348
0.000595439
0.00059871
0.000602364
0.000606454
0.00061074
0.000590207
0.000594131
0.00059859
0.000603506
0.000608748
0.000614288
0.000620126
0.000626315
0.00063283
0.000639421
0.00059923
0.000605295
0.000611969
0.000619184
0.000626876
0.000635032
0.000643551
0.000652229
0.000660913
0.000669389
0.000608568
0.000617066
0.000626189
0.000635828
0.000645902
0.000656348
0.000667028
0.000677751
0.000688326
0.000698438
0.000617268
0.000628248
0.000639817
0.000651813
0.000664104
0.00067655
0.00068895
0.0007011
0.00071276
0.000723533
0.000624203
0.000637512
0.000651346
0.00066549
0.000679741
0.000693866
0.000707566
0.000720592
0.000732681
0.000743467
0.00062822
0.000643594
0.000659382
0.000675305
0.000691105
0.000706526
0.000721236
0.000734814
0.000747022
0.000757619
0.000628547
0.000645356
0.0006625
0.000679678
0.000696574
0.000712878
0.000728266
0.000742285
0.00075457
0.000765014
0.000624745
0.000642251
0.000660054
0.000677856
0.000695329
0.000712131
0.000727908
0.000742303
0.000754928
0.000765561
0.000617421
0.000634801
0.000652447
0.000670118
0.000687502
0.000704271
0.000720132
0.000734766
0.000747752
0.000758853
0.000608265
0.000624726
0.000641329
0.00065791
0.000674254
0.000690173
0.000705483
0.000719951
0.000733308
0.000745175
0.000599334
0.000614205
0.000628951
0.000643532
0.000657934
0.000672139
0.000686107
0.000699799
0.000713128
0.000725809
0.000592978
0.000605878
0.000618273
0.000630233
0.000641914
0.000653502
0.000665208
0.000677252
0.000689792
0.000702855
0.000590906
0.00060183
0.000611705
0.000620757
0.000629279
0.000637638
0.000646301
0.000655773
0.000666547
0.000679
0.000593696
0.000603061
0.000610743
0.000617047
0.000622341
0.000627175
0.000632241
0.000638337
0.000646306
0.000656928
0.000600871
0.000609303
0.000615416
0.000619416
0.00062173
0.00062306
0.000624309
0.000626536
0.000630915
0.00063863
0.000611344
0.000619739
0.000624904
0.00062709
0.000626834
0.000624949
0.000622472
0.000620652
0.00062094
0.000624896
0.000623332
0.000632955
0.000637722
0.000638518
0.000636209
0.000631587
0.000625686
0.000619867
0.000615811
0.000615415
0.000634673
0.000646735
0.000651897
0.0006521
0.000648456
0.000641629
0.000632604
0.00062286
0.000614331
0.000609252
0.000642027
0.000657872
0.000667566
0.00066833
0.000663486
0.000654128
0.000641603
0.000627668
0.000614484
0.00060458
0.000637144
0.000664559
0.000678412
0.000685634
0.000681079
0.000668041
0.000650843
0.000631999
0.000613782
0.000598972
0.000612415
0.000647624
0.000671132
0.000677082
0.000678023
0.000671375
0.000654972
0.00063272
0.000609486
0.000589886
0.000565123
0.000597436
0.000629614
0.000649383
0.000652142
0.000647089
0.000637413
0.000621498
0.000598772
0.000575396
0.000504972
0.000531915
0.000558006
0.000581923
0.000597515
0.000600303
0.000594187
0.000581979
0.000565765
0.000548129
0.000443256
0.000463937
0.00048405
0.000502556
0.000518235
0.000529
0.000531412
0.00052586
0.000515376
0.000504281
0.000393406
0.000406443
0.000420111
0.000433345
0.000445155
0.000454446
0.000460108
0.000462096
0.000461834
0.000462592
0.000371535
0.000375772
0.000382023
0.000389485
0.000397408
0.000405242
0.000412891
0.000420911
0.000430212
0.000442375
0.000388027
0.000385211
0.000385152
0.000387603
0.000392367
0.000399422
0.000409051
0.000421622
0.000437555
0.000457227
0.000434495
0.000429216
0.000426683
0.00042707
0.000430578
0.000437467
0.000447986
0.000462183
0.000479897
0.000500711
0.000485813
0.000481802
0.00048013
0.000481044
0.000484766
0.000491498
0.000501243
0.000513793
0.000528736
0.000545485
0.000519144
0.000516948
0.000516608
0.000518256
0.000521989
0.000527818
0.000535586
0.000545043
0.000555849
0.000567617
0.000527938
0.000526403
0.00052638
0.000527905
0.000531004
0.00053557
0.000541457
0.000548483
0.000556441
0.000565165
0.000518367
0.000516613
0.000516234
0.000517269
0.00051968
0.000523357
0.000528265
0.000534336
0.000541499
0.00054965
0.000499254
0.000497112
0.000496358
0.000497086
0.00049938
0.000503245
0.000508591
0.000515316
0.000523305
0.000532429
0.000476405
0.000474096
0.000473542
0.000474968
0.000478287
0.000483421
0.00049025
0.000498616
0.000508333
0.000519204
0.000452407
0.000450943
0.000451796
0.000455012
0.000460438
0.000467902
0.000477184
0.000488026
0.000500156
0.000513303
0.000429794
0.000430702
0.000434432
0.000440887
0.000449735
0.000460642
0.000473253
0.000487207
0.000502159
0.000517795
0.000412894
0.00041815
0.000426494
0.00043758
0.000450855
0.000465833
0.00048207
0.00049916
0.000516737
0.000534482
0.000407397
0.000418526
0.000432416
0.00044851
0.000466147
0.000484806
0.00050406
0.000523532
0.000542886
0.000561842
0.000416343
0.000433271
0.00045208
0.000472206
0.000493031
0.000514126
0.000535149
0.000555788
0.000575767
0.00059487
0.000437259
0.00045838
0.000480327
0.000502666
0.000525023
0.000547058
0.000568511
0.000589098
0.000608575
0.000626807
0.000463529
0.000486612
0.000509591
0.000532239
0.000554524
0.000576207
0.000596967
0.000616428
0.000634385
0.000650839
0.000487705
0.000510642
0.000532834
0.000554263
0.000575099
0.000595451
0.000614577
0.000631912
0.000647428
0.000661436
0.000504407
0.00052564
0.000545805
0.000565028
0.00058356
0.000601817
0.000618378
0.000632525
0.000644832
0.000656173
0.000512462
0.000531367
0.000549263
0.000566342
0.000582312
0.000597903
0.000610226
0.000619581
0.000627898
0.000636686
0.000515057
0.000532606
0.000550054
0.000567488
0.000581008
0.000591564
0.000595776
0.000598067
0.000601737
0.000608484
0.000515887
0.000535209
0.000556825
0.000580713
0.000594348
0.000589929
0.000580784
0.000574591
0.000573788
0.000579437
0.00051891
0.00054405
0.00057311
0.000604724
0.000616946
0.000590405
0.000567701
0.000553962
0.000549883
0.000555734
0.00052518
0.000556816
0.000592029
0.000626475
0.000622189
0.000583982
0.00055435
0.000536565
0.000531445
0.000539184
0.000532773
0.000569491
0.00061185
0.000639843
0.000616295
0.000572821
0.000540467
0.00052152
0.000517493
0.000528689
0.000539754
0.000581571
0.000627462
0.000641274
0.000602131
0.000558241
0.00052568
0.000507659
0.000506455
0.000522275
0.000546307
0.000591686
0.000635241
0.000632011
0.000584383
0.000541092
0.000509679
0.000494122
0.000497012
0.000518049
0.000552708
0.000599192
0.000633379
0.000613924
0.000563693
0.000521483
0.000492366
0.000480447
0.000488152
0.000514332
0.000559487
0.000604729
0.000624215
0.00058828
0.00053961
0.000499896
0.00047398
0.000466352
0.000478957
0.000509683
0.000566195
0.00060763
0.000606376
0.000560225
0.000514316
0.000477157
0.000454622
0.000451434
0.000468576
0.000503154
0.0005713
0.000601719
0.000581708
0.000533296
0.000488282
0.00045312
0.000433969
0.000435159
0.000456373
0.000494546
0.000574025
0.000587581
0.000551179
0.000504049
0.000460222
0.000427018
0.000411439
0.000417007
0.000442164
0.000484415
0.000568209
0.000565618
0.000521873
0.000473539
0.000429712
0.000398327
0.000386747
0.00039696
0.00042661
0.000474057
0.0005548
0.000535576
0.000489281
0.000439773
0.000395849
0.000366839
0.000360115
0.00037571
0.000411233
0.000465257
0.000534211
0.000501525
0.000453396
0.000402751
0.000358799
0.000333045
0.00033231
0.000354631
0.000397836
0.000459232
0.000511437
0.000469418
0.000417419
0.000364188
0.000319738
0.000298054
0.000304546
0.000335466
0.000387811
0.000456485
0.000482318
0.000435635
0.000380615
0.000324502
0.000279387
0.000262758
0.00027802
0.000319462
0.000381134
0.000456066
0.000453668
0.000403
0.000344929
0.000285518
0.000239101
0.000228195
0.000253923
0.000306612
0.000375796
0.000454325
0.000430896
0.000375794
0.000313823
0.000249931
0.000200438
0.000195288
0.000232905
0.000295956
0.000369979
0.000449101
0.000414196
0.000354538
0.000287911
0.000218382
0.000163787
0.000164228
0.000214503
0.000286222
0.000363047
0.000440823
0.000400319
0.000336402
0.000264999
0.000189556
0.000128914
0.000134818
0.000197535
0.000276342
0.000355227
0.000431481
0.000386737
0.000318955
0.000243031
0.000162174
9.63487e-05
0.000107091
0.000180588
0.000265391
0.000346654
0.000422404
0.000372813
0.000301325
0.000221073
0.000135689
6.77002e-05
8.14758e-05
0.000162246
0.000252487
0.000337095
0.000413793
0.000358887
0.000283508
0.000198835
0.000110109
4.48757e-05
5.87383e-05
0.000141298
0.000236715
0.000326192
0.000405948
0.000345151
0.000265486
0.000176075
8.5872e-05
2.89323e-05
3.99952e-05
0.000117265
0.000217026
0.000312986
0.000398682
0.000331598
0.000246735
0.000152581
6.39574e-05
1.9488e-05
2.64724e-05
9.12846e-05
0.000192789
0.000296179
0.00039124
0.000317425
0.000226873
0.000128416
4.56717e-05
1.50888e-05
1.87321e-05
6.63086e-05
0.000164282
0.000274045
0.000380924
0.000301793
0.00020565
0.000104295
3.20422e-05
1.40232e-05
1.6094e-05
4.60614e-05
0.00013361
0.000245554
0.000363686
0.000285563
0.00018364
8.18427e-05
2.3281e-05
1.4732e-05
1.65234e-05
3.29061e-05
0.00010498
0.000211777
0.000333932
0.000267742
0.000161252
6.30225e-05
1.86268e-05
1.59268e-05
1.7402e-05
2.64548e-05
8.39189e-05
0.000179924
0.00029008
0.000250155
0.000141843
4.86613e-05
1.69439e-05
1.67916e-05
1.76308e-05
2.34282e-05
7.27388e-05
0.000169189
0.000261093
0.000250342
0.000130803
3.81011e-05
1.65954e-05
1.71546e-05
1.7515e-05
2.02442e-05
6.10584e-05
0.000181818
0.000309933
0.000405449
0.00012378
2.67688e-05
1.60167e-05
1.72677e-05
1.74122e-05
1.69862e-05
3.64456e-05
0.000162349
0.000493934
9.05099e-06
8.90821e-06
8.78298e-06
8.70371e-06
8.69184e-06
8.75056e-06
8.86236e-06
8.99894e-06
9.14369e-06
9.30874e-06
9.47646e-06
9.59805e-06
9.66814e-06
9.68753e-06
9.6414e-06
9.53251e-06
9.3664e-06
9.16737e-06
8.99185e-06
8.86523e-06
8.77518e-06
8.71617e-06
8.64997e-06
8.5593e-06
8.44107e-06
8.28859e-06
8.08807e-06
7.83323e-06
7.57737e-06
7.32737e-06
7.09266e-06
6.87357e-06
6.66764e-06
6.46907e-06
6.20916e-06
5.86377e-06
5.42998e-06
4.90846e-06
4.69379e-06
4.49697e-06
7.35682e-05
7.02789e-05
6.76247e-05
6.61553e-05
6.6053e-05
6.71431e-05
6.91067e-05
7.15481e-05
7.40402e-05
7.60609e-05
7.72616e-05
7.79039e-05
7.81059e-05
7.78779e-05
7.72223e-05
7.61296e-05
7.46358e-05
7.288e-05
7.10268e-05
6.94527e-05
6.82135e-05
6.6974e-05
6.56734e-05
6.42884e-05
6.27933e-05
6.11567e-05
5.93265e-05
5.72218e-05
5.47289e-05
5.2152e-05
5.01602e-05
4.82657e-05
4.62057e-05
4.37818e-05
4.07168e-05
3.71448e-05
3.27929e-05
2.7141e-05
1.999e-05
8.11721e-06
0.000138616
0.00013388
0.000129918
0.000127517
0.000126985
0.000128025
0.000130053
0.000132458
0.000134719
0.000136412
0.00013734
0.00013756
0.000137118
0.000136041
0.000134346
0.000132062
0.000129249
0.000126054
0.000122744
0.000119658
0.000116845
0.000114092
0.000111243
0.000108272
0.000105125
0.000101759
9.81347e-05
9.42197e-05
8.99569e-05
8.5587e-05
8.12947e-05
7.68595e-05
7.21439e-05
6.69881e-05
6.11416e-05
5.45734e-05
4.70756e-05
3.81166e-05
2.67042e-05
1.23591e-05
0.000191857
0.000186733
0.000182274
0.000179211
0.000177836
0.000177753
0.000178469
0.000179424
0.000180154
0.000180322
0.000179843
0.000178707
0.000176929
0.000174546
0.000171605
0.000168169
0.000164326
0.000160183
0.000155869
0.000151615
0.000147536
0.00014351
0.00013937
0.000135013
0.000130372
0.000125405
0.000120134
0.000114579
0.000108775
0.000102799
9.66618e-05
9.02768e-05
8.35537e-05
7.6435e-05
6.88806e-05
6.07863e-05
5.19346e-05
4.19312e-05
3.00594e-05
1.58074e-05
0.000234582
0.000229451
0.000224815
0.000221071
0.000218445
0.000216681
0.000215523
0.000214544
0.00021331
0.000211566
0.000209242
0.000206331
0.000202853
0.000198865
0.000194449
0.000189712
0.00018476
0.000179673
0.00017453
0.000169378
0.000164274
0.00015922
0.00015406
0.000148627
0.000142781
0.000136489
0.000129807
0.00012282
0.000115634
0.000108342
0.000100971
9.34515e-05
8.57098e-05
7.7787e-05
6.96981e-05
6.11813e-05
5.2037e-05
4.20924e-05
3.09816e-05
1.79512e-05
0.00026869
0.000263518
0.000258547
0.000254058
0.00025013
0.000246681
0.000243592
0.000240594
0.000237356
0.000233678
0.000229431
0.000224645
0.00021935
0.000213622
0.000207577
0.000201356
0.000195099
0.00018891
0.000182828
0.000176858
0.000171019
0.000165239
0.000159372
0.000153222
0.000146563
0.0001393
0.000131562
0.000123585
0.000115559
0.00010768
9.99594e-05
9.22745e-05
8.46052e-05
7.70001e-05
6.92983e-05
6.10866e-05
5.20563e-05
4.20081e-05
3.0939e-05
1.96139e-05
0.000295968
0.000290579
0.000285207
0.00027994
0.000274815
0.000269799
0.000264901
0.000260006
0.000254917
0.000249435
0.000243421
0.000236862
0.000229813
0.000222378
0.000214696
0.000206931
0.000199245
0.00019177
0.00018459
0.00017773
0.000171161
0.000164821
0.000158489
0.000151948
0.000144963
0.000137402
0.000129393
0.000121226
0.000113298
0.000105946
9.9159e-05
9.2691e-05
8.633e-05
7.987e-05
7.28868e-05
6.49896e-05
5.58997e-05
4.48248e-05
2.97024e-05
2.00565e-05
0.000318184
0.000312406
0.000306473
0.0003004
0.000294205
0.000287896
0.000281502
0.000275002
0.000268325
0.000261285
0.000253731
0.000245627
0.000237043
0.000228093
0.000218929
0.000209724
0.000200655
0.000191879
0.00018352
0.00017565
0.000168283
0.000161353
0.000154643
0.000147971
0.00014112
0.000134015
0.000126722
0.000119513
0.000112889
0.00010708
0.000102153
9.73818e-05
9.22768e-05
8.66314e-05
7.99088e-05
7.18768e-05
6.2337e-05
5.03616e-05
3.22539e-05
4.73264e-06
0.000336883
0.000330603
0.000324063
0.000317253
0.000310181
0.000302869
0.000295341
0.000287596
0.000279668
0.000271457
0.000262728
0.000253454
0.000243705
0.000233598
0.000223286
0.000212945
0.000202764
0.000192926
0.000183594
0.000174885
0.000166858
0.000159478
0.00015257
0.00014589
0.000139315
0.000132852
0.000126788
0.000121393
0.000116634
0.000112554
0.000108741
0.000104799
0.000100272
9.46414e-05
8.75344e-05
7.85605e-05
6.73119e-05
5.38194e-05
3.47335e-05
5.49052e-06
0.000353482
0.000346707
0.00033964
0.000332273
0.0003246
0.000316642
0.000308431
0.000299976
0.000291297
0.000282325
0.000272851
0.000262848
0.0002524
0.000241615
0.000230637
0.000219645
0.000208841
0.000198439
0.00018863
0.000179553
0.000171288
0.000163853
0.000157107
0.000150761
0.000144776
0.000139193
0.000134256
0.000130133
0.000126681
0.000123588
0.000120492
0.000116763
0.000111836
0.00010512
9.61726e-05
8.47938e-05
7.0802e-05
5.41796e-05
3.32259e-05
5.35191e-06
0.00036915
0.000361986
0.000354547
0.000346854
0.000338921
0.000330739
0.000322327
0.00031368
0.000304712
0.000295412
0.000285705
0.000275555
0.000265031
0.00025422
0.000243245
0.000232304
0.000221612
0.000211442
0.000201963
0.00019327
0.000185395
0.000178327
0.000171916
0.000165996
0.000160598
0.000155653
0.000151316
0.0001478
0.000144951
0.000142359
0.000139513
0.000135997
0.000131046
0.000123917
0.000113936
0.000100546
8.32884e-05
6.18195e-05
3.54608e-05
5.67998e-06
0.000385062
0.000377717
0.000370141
0.00036237
0.000354434
0.000346343
0.00033809
0.000329604
0.00032079
0.000311705
0.000302333
0.000292677
0.000282797
0.000272777
0.000262726
0.000252774
0.000243105
0.000234064
0.000225773
0.000218202
0.000211279
0.000204892
0.000198945
0.000193357
0.00018818
0.000183394
0.000179156
0.000175597
0.000172595
0.000169833
0.000166835
0.000163106
0.000158037
0.000150787
0.000140463
0.000126228
0.000106974
8.1349e-05
4.75659e-05
6.82875e-06
0.000401976
0.00039474
0.00038733
0.000379784
0.000372125
0.000364365
0.000356489
0.000348462
0.000340269
0.000331946
0.000323512
0.000314986
0.000306419
0.000297886
0.000289476
0.000281264
0.000273436
0.000266198
0.000259549
0.000253412
0.000247674
0.000242171
0.000236774
0.000231541
0.000226489
0.000221665
0.000217139
0.000212952
0.000209053
0.000205231
0.000201115
0.000196168
0.000189864
0.000181479
0.000170136
0.000154731
0.000133709
0.000104613
6.30457e-05
8.47928e-06
0.000420123
0.000413274
0.000406313
0.000399284
0.00039222
0.000385128
0.000378004
0.000370844
0.000363684
0.000356538
0.000349433
0.000342418
0.000335548
0.000328868
0.000322424
0.000316239
0.000310437
0.000305096
0.000300106
0.000295428
0.000290943
0.000286514
0.000281998
0.00027727
0.000272345
0.000267278
0.000262139
0.000256976
0.000251739
0.000246246
0.000240181
0.000233073
0.000224332
0.000213366
0.000199366
0.000181121
0.000156692
0.000122744
7.34301e-05
1.03069e-05
0.000439418
0.000433195
0.000426921
0.000420648
0.000414416
0.000408244
0.000402145
0.000396143
0.000390257
0.00038451
0.000378938
0.000373589
0.000368504
0.0003637
0.000359176
0.000354909
0.000350896
0.00034713
0.000343552
0.000340089
0.000336621
0.000333013
0.000329144
0.000324908
0.000320249
0.000315145
0.000309582
0.000303515
0.000296862
0.000289464
0.000281048
0.000271216
0.000259401
0.000245013
0.000227331
0.000205054
0.000175833
0.000135847
8.06147e-05
1.1103e-05
0.000459521
0.000454079
0.000448643
0.000443273
0.000438016
0.000432915
0.000428001
0.000423294
0.000418808
0.000414557
0.000410555
0.000406816
0.000403351
0.000400152
0.000397186
0.000394406
0.000391754
0.000389175
0.000386615
0.000383996
0.000381174
0.000378032
0.000374474
0.000370418
0.00036579
0.000360521
0.000354538
0.000347735
0.000339946
0.000330922
0.000320323
0.000307775
0.000292812
0.000275002
0.000253649
0.000227327
0.000192961
0.000146295
8.44746e-05
1.08138e-05
0.000479924
0.000475341
0.000470828
0.000466454
0.000462285
0.000458371
0.000454739
0.000451399
0.000448347
0.000445567
0.00044303
0.000440708
0.000438578
0.000436614
0.000434771
0.000432991
0.000431204
0.000429339
0.000427323
0.000425075
0.000422509
0.000419525
0.00041603
0.000411939
0.000407171
0.000401636
0.000395215
0.000387738
0.000378959
0.000368543
0.000356087
0.000341181
0.000323477
0.000302645
0.000277841
0.000246788
0.000205563
0.000149495
7.62648e-05
1.03639e-05
0.00050018
0.000496547
0.000493074
0.000489837
0.000486905
0.000484311
0.000482058
0.000480123
0.000478465
0.000477029
0.000475741
0.000474538
0.000473377
0.000472223
0.000471036
0.000469766
0.00046836
0.000466756
0.000464883
0.000462664
0.00046003
0.000456902
0.000453203
0.000448854
0.000443771
0.000437848
0.000430935
0.000422818
0.00041319
0.00040165
0.000387744
0.00037107
0.000351436
0.000328681
0.000301444
0.000264827
0.000213379
0.000146438
6.87652e-05
9.87501e-06
0.00052025
0.00051777
0.000515572
0.000513711
0.000512228
0.000511111
0.000510306
0.000509738
0.000509326
0.000508982
0.000508608
0.000508123
0.000507488
0.000506687
0.000505696
0.000504493
0.00050305
0.000501323
0.00049924
0.000496731
0.000493737
0.000490195
0.000486044
0.000481215
0.000475626
0.000469168
0.00046168
0.000452924
0.000442568
0.00043018
0.00041529
0.000397562
0.000377088
0.000354054
0.000325507
0.000282823
0.000225017
0.000153527
7.404e-05
1.0207e-05
0.000540717
0.000539735
0.00053915
0.000538964
0.000539135
0.000539579
0.00054017
0.000540779
0.000541294
0.000541626
0.000541701
0.000541456
0.00054087
0.000539954
0.000538721
0.000537184
0.000535339
0.000533144
0.00053053
0.000527438
0.000523815
0.000519609
0.000514767
0.000509235
0.000502944
0.00049579
0.000487614
0.00047818
0.000467161
0.000454126
0.000438617
0.000420355
0.00039965
0.000376239
0.000342654
0.000299571
0.000246672
0.00017751
9.4137e-05
1.14362e-05
0.000562699
0.000563609
0.000564948
0.000566649
0.000568525
0.000570385
0.000572073
0.000573451
0.000574413
0.000574897
0.000574884
0.000574362
0.000573334
0.000571848
0.000569967
0.000567745
0.000565185
0.000562229
0.000558812
0.000554879
0.000550372
0.00054524
0.000539446
0.000532968
0.000525764
0.000517744
0.000508761
0.0004986
0.000486947
0.00047335
0.000457275
0.000438304
0.000416322
0.000390339
0.000355904
0.000313002
0.000261471
0.000194079
0.000105106
1.26922e-05
0.000587453
0.00059057
0.000593982
0.000597481
0.000600729
0.000603486
0.000605683
0.000607247
0.000608102
0.000608207
0.000607583
0.000606281
0.000604363
0.000601922
0.000599062
0.000595864
0.000592329
0.000588382
0.000583955
0.00057896
0.000573313
0.00056695
0.000559879
0.000552143
0.000543762
0.000534687
0.000524797
0.000513896
0.000501672
0.000487555
0.000470912
0.000451126
0.000427656
0.000399762
0.000365733
0.000323999
0.000271458
0.000202822
0.000110189
1.34983e-05
0.000615594
0.000621033
0.000626306
0.000630991
0.000634888
0.000637896
0.000640008
0.000641194
0.000641388
0.000640592
0.000638878
0.00063635
0.000633147
0.000629435
0.000625332
0.000620938
0.000616263
0.000611203
0.00060561
0.000599341
0.000592292
0.000584379
0.00057563
0.000566212
0.000556313
0.000546001
0.000535167
0.000523551
0.000510762
0.000496112
0.000478878
0.000458414
0.000434013
0.000404824
0.000369741
0.000326819
0.000272137
0.000201266
0.000108079
1.36177e-05
0.000646464
0.000653556
0.000659875
0.000665191
0.000669301
0.000672193
0.000673862
0.000674205
0.000673167
0.000670884
0.000667518
0.000663257
0.000658365
0.00065309
0.000647611
0.000642023
0.000636279
0.000630085
0.000623203
0.000615478
0.000606742
0.000596921
0.000586125
0.0005747
0.000563046
0.00055136
0.000539525
0.000527152
0.000513648
0.000498358
0.000480561
0.000459563
0.0004346
0.000404687
0.000368426
0.000323808
0.000267664
0.000195868
0.000104405
1.34945e-05
0.000678063
0.000686264
0.000693069
0.000698386
0.000702257
0.000704668
0.000705438
0.00070439
0.000701532
0.000697169
0.000691614
0.000685228
0.000678406
0.000671503
0.000664731
0.000658096
0.000651373
0.000644161
0.000636041
0.000626729
0.0006161
0.000604142
0.000591085
0.000577468
0.000563941
0.000550845
0.00053796
0.00052474
0.000510519
0.000494626
0.000476339
0.00045488
0.000429453
0.000399074
0.000362309
0.000317117
0.000260683
0.000189461
0.000100873
1.31398e-05
0.000708218
0.0007168
0.000723484
0.000728397
0.000731612
0.000732894
0.000731979
0.000728882
0.000723862
0.000717243
0.000709365
0.00070077
0.000692009
0.000683581
0.000675733
0.000668307
0.000660798
0.000652644
0.000643305
0.000632451
0.000620111
0.000606336
0.000591254
0.000575546
0.000560153
0.000545577
0.000531555
0.000517334
0.00050212
0.000485316
0.000466313
0.000444371
0.000418639
0.000388171
0.00035162
0.000306997
0.000251657
0.000182457
9.69249e-05
1.28682e-05
0.000733503
0.000741945
0.00074827
0.000752524
0.000754545
0.000754101
0.0007512
0.000745978
0.000738674
0.000729661
0.00071944
0.000708659
0.000698047
0.000688305
0.0006798
0.00067213
0.000664181
0.000655293
0.000645051
0.000633413
0.000620483
0.000606093
0.000589668
0.000571799
0.000553947
0.000537228
0.000521569
0.00050579
0.000489025
0.000470801
0.000450568
0.000427557
0.000401268
0.000370888
0.000335078
0.000292041
0.000239308
0.000173803
9.34668e-05
1.27327e-05
0.000753165
0.000761105
0.000766616
0.000769628
0.000769972
0.000767531
0.000762362
0.000754653
0.000744725
0.00073306
0.000720313
0.000707315
0.000695026
0.000684364
0.000675798
0.000668959
0.000661809
0.000653622
0.000644579
0.00063443
0.000622877
0.000609142
0.000591235
0.000569383
0.000546808
0.000526435
0.000508329
0.000490082
0.000470859
0.000450391
0.000428246
0.000403812
0.000376667
0.000345983
0.000310809
0.000269482
0.000219683
0.000158487
8.30048e-05
1.24381e-05
0.000766869
0.000774067
0.000778492
0.000780004
0.000778451
0.000773761
0.000766006
0.000755428
0.000742451
0.000727689
0.000711973
0.000696365
0.000682132
0.000670589
0.000662607
0.000657412
0.000655078
0.000652825
0.000647184
0.000637532
0.000626666
0.000616813
0.000593982
0.00056342
0.000535004
0.000510525
0.000489793
0.000469502
0.000447725
0.000424503
0.000399637
0.000373047
0.000344166
0.000312379
0.000276971
0.000236747
0.000190009
0.000134934
7.11014e-05
1.19158e-05
0.00077394
0.000780578
0.000784086
0.000784254
0.000780927
0.000774048
0.000763714
0.000750214
0.000734055
0.000715987
0.000697034
0.000678511
0.000661982
0.000649133
0.000641467
0.00063912
0.000640018
0.000640331
0.000635688
0.00062811
0.000618567
0.000597818
0.000569714
0.000541096
0.000514736
0.000488687
0.000467674
0.000451527
0.000432009
0.00040753
0.000378764
0.000346451
0.000311162
0.000273869
0.000235077
0.000194304
0.000151344
0.000106163
5.81391e-05
1.12293e-05
0.000774463
0.000780902
0.000783993
0.00078342
0.000778947
0.000770478
0.000758107
0.000742153
0.000723196
0.00070211
0.000680105
0.00065877
0.000640086
0.000626458
0.000620479
0.000621711
0.000619447
0.00061204
0.000604672
0.00059578
0.000576519
0.000551517
0.000526685
0.000505259
0.000472605
0.000435041
0.000405466
0.000383961
0.000365445
0.000347161
0.000327792
0.000302415
0.000270054
0.000234036
0.000197173
0.000160461
0.000124031
8.75662e-05
4.83396e-05
1.04257e-05
0.000768286
0.000775366
0.000779076
0.000778931
0.000774537
0.000765687
0.000752423
0.000735065
0.000714237
0.000690899
0.000666402
0.000642548
0.000621706
0.000607031
0.000602095
0.000602705
0.000593909
0.000578915
0.000566501
0.0005502
0.000524494
0.000497183
0.000470194
0.000444265
0.00041727
0.000389419
0.00036796
0.000352019
0.000339198
0.000327315
0.000315282
0.000301498
0.000283806
0.000261232
0.000235821
0.000206935
0.000171541
0.000127987
7.40362e-05
1.16833e-05
0.000755825
0.000764642
0.000770376
0.000772284
0.000769703
0.000762207
0.000749708
0.000732474
0.000711125
0.000686655
0.000660458
0.000634358
0.000610726
0.00059273
0.000583813
0.000580293
0.000567044
0.000546967
0.00052898
0.000507244
0.000479645
0.000452327
0.000426181
0.000402132
0.000381515
0.000365354
0.000352712
0.000341688
0.000331273
0.000320073
0.000307205
0.000292252
0.000275079
0.000255271
0.000232822
0.000207503
0.000177581