/*--------------------------------*- C++ -*----------------------------------*\
  =========                 |
  \\      /  F ield         | OpenFOAM: The Open Source CFD Toolbox
   \\    /   O peration     | Website:  https://openfoam.org
    \\  /    A nd           | Version:  8
     \\/     M anipulation  |
\*---------------------------------------------------------------------------*/
FoamFile
{
    version     2.0;
    format      ascii;
    class       volScalarField;
    location    "4.65";
    object      k;
}
// * * * * * * * * * * * * * * * * * * * * * * * * * * * * * * * * * * * * * //

dimensions      [0 2 -2 0 0 0 0];

internalField   nonuniform List<scalar> 
9150
(
0.00182759
0.000940872
0.000475404
0.000301342
0.000191962
0.000191865
0.000301219
0.000475255
0.000940697
0.00182761
0.0017849
0.000746686
0.00039868
0.000256637
0.000160532
0.000160454
0.000256523
0.000398549
0.000746537
0.0017849
0.00171343
0.000651368
0.000365674
0.000236557
0.00014793
0.000147863
0.000236453
0.000365555
0.00065124
0.00171342
0.00163486
0.000601319
0.000352537
0.000228502
0.000143127
0.000143067
0.000228405
0.000352425
0.000601208
0.00163485
0.0015514
0.000579799
0.000347753
0.00022567
0.000141619
0.000141562
0.000225577
0.000347644
0.000579698
0.00155138
0.00284661
0.00255158
0.00185
0.00161281
0.00132503
0.00132574
0.00161539
0.0018551
0.00255887
0.00284768
0.00230421
0.00150223
0.00127968
0.00120697
0.000971204
0.000971358
0.00120797
0.00128183
0.0015036
0.00230413
0.00204925
0.00125144
0.000887156
0.000805922
0.000623522
0.000623471
0.000806216
0.000887804
0.00125159
0.00204913
0.00186754
0.00110999
0.000649059
0.000529347
0.000385033
0.000384929
0.000529335
0.000649133
0.00110979
0.00186748
0.00178729
0.00102063
0.000523761
0.000371366
0.000252111
0.000252006
0.000371261
0.000523649
0.0010204
0.00178725
0.0113823
0.00489231
0.00257926
0.0018941
0.00153572
0.00152977
0.00189068
0.00267868
0.0057891
0.0144829
0.00490376
0.00381676
0.0025058
0.00188919
0.00154168
0.00153872
0.00188966
0.00250387
0.00373727
0.00495152
0.00440376
0.00343506
0.00248385
0.00188658
0.00154844
0.00154828
0.00189145
0.0024894
0.00340849
0.0044174
0.00391667
0.00315117
0.00246693
0.00188335
0.00155528
0.00155665
0.00188891
0.00247378
0.0031568
0.00392225
0.00335754
0.00309506
0.0023643
0.00183829
0.00152799
0.00152963
0.0018431
0.00237139
0.00310858
0.00335976
0.000581003
0.000576352
0.000571605
0.00056673
0.000561707
0.00055652
0.000551162
0.00054564
0.000539972
0.000534212
0.00127344
0.00127061
0.00126715
0.00126302
0.00125818
0.00125257
0.00124617
0.00123897
0.00123097
0.00122217
0.00173189
0.00172949
0.00172602
0.00172141
0.00171561
0.00170859
0.00170033
0.00169081
0.00168007
0.0016682
0.00210785
0.0021066
0.00210396
0.00209985
0.00209421
0.00208701
0.00207826
0.00206799
0.00205618
0.00204288
0.00245372
0.00245442
0.00245353
0.00245096
0.00244667
0.00244062
0.00243278
0.00242314
0.00241169
0.00239844
0.00279267
0.00279634
0.00279833
0.00279856
0.00279695
0.00279344
0.00278796
0.00278047
0.00277096
0.00275938
0.00313938
0.00314739
0.00315376
0.00315838
0.00316111
0.00316188
0.00316058
0.00315716
0.00315155
0.00314369
0.00350593
0.00352017
0.00353292
0.00354403
0.00355333
0.00356071
0.00356605
0.00356926
0.00357026
0.00356901
0.00390418
0.00392721
0.00394905
0.00396949
0.00398837
0.00400553
0.00402087
0.0040343
0.00404576
0.00405524
0.00434689
0.00438211
0.00441662
0.00445021
0.00448267
0.00451388
0.00454378
0.00457235
0.00459966
0.0046258
0.00484809
0.00489986
0.00495168
0.0050033
0.00505451
0.00510525
0.00515562
0.00520585
0.00525625
0.00530729
0.00542289
0.00549655
0.00557125
0.00564677
0.00572295
0.00579987
0.00587796
0.00595789
0.00604059
0.00612729
0.00608629
0.00618798
0.00629181
0.00639775
0.00650582
0.00661633
0.0067302
0.00684895
0.00697467
0.00711008
0.00685132
0.00698772
0.00712745
0.00727045
0.00741704
0.00756812
0.00772554
0.00789229
0.00807244
0.00827111
0.00772725
0.00790451
0.00808606
0.00827173
0.00846222
0.00865955
0.00886717
0.00909031
0.00933595
0.0096126
0.00871591
0.00893891
0.00916638
0.00939844
0.00963652
0.00988416
0.0101471
0.0104337
0.0107544
0.0111218
0.00980935
0.0100809
0.0103563
0.0106364
0.0109238
0.0112241
0.0115459
0.0119007
0.0123027
0.012768
0.0109894
0.01131
0.0116332
0.0119607
0.0122971
0.0126506
0.0130325
0.0134573
0.0139414
0.0145026
0.0122276
0.0125952
0.0129635
0.0133357
0.0137191
0.0141249
0.0145674
0.0150622
0.0156249
0.0162708
0.0134868
0.0138972
0.0143058
0.0147189
0.0151472
0.0156049
0.0161082
0.0166727
0.0173106
0.0180306
0.0147259
0.0151722
0.0156151
0.0160669
0.0165428
0.0170576
0.0176265
0.0182621
0.0189729
0.0197647
0.0158984
0.0163722
0.0168465
0.0173426
0.0178775
0.0184643
0.019113
0.0198311
0.0206233
0.0214873
0.0169553
0.0174634
0.0179844
0.0185459
0.0191608
0.0198374
0.0205807
0.021393
0.0222731
0.0232106
0.0178934
0.0184673
0.0190637
0.0197106
0.020418
0.0211905
0.0220293
0.022933
0.0238969
0.0249113
0.0188299
0.0194646
0.0201385
0.020869
0.0216628
0.0225217
0.0234447
0.0244281
0.0254655
0.0265476
0.0198343
0.0205183
0.0212537
0.0220503
0.0229121
0.0238392
0.0248288
0.0258751
0.0269701
0.028103
0.0209315
0.0216556
0.0224359
0.0232793
0.0241886
0.0251633
0.0261997
0.0272912
0.0284282
0.0295987
0.0221248
0.0228825
0.0236958
0.0245704
0.0255089
0.0265108
0.0275725
0.0286874
0.029846
0.0310361
0.0233892
0.0241772
0.025016
0.0259109
0.0268644
0.0278763
0.0289431
0.0300589
0.0312149
0.0323998
0.024657
0.0254735
0.0263351
0.0272458
0.028208
0.0292213
0.0302829
0.0313878
0.0325287
0.0336964
0.0258613
0.0267025
0.0275852
0.028512
0.0294837
0.0305
0.0315586
0.0326557
0.0337859
0.0349429
0.0269642
0.027828
0.0287327
0.0296788
0.0306663
0.0316945
0.0327616
0.0338651
0.035002
0.0361691
0.0279705
0.0288579
0.0297877
0.0307592
0.0317719
0.0328251
0.0339177
0.0350486
0.0362173
0.0374239
0.0289141
0.0298279
0.0307875
0.0317921
0.0328413
0.0339348
0.0350726
0.0362553
0.0374851
0.0387659
0.0298261
0.0307712
0.0317673
0.0328145
0.033913
0.0350636
0.0362679
0.0375286
0.0388507
0.0402423
0.0307145
0.0316978
0.0327391
0.03384
0.0350024
0.0362287
0.0375223
0.0388881
0.0403348
0.041875
0.0315607
0.0325908
0.0336876
0.0348546
0.0360963
0.0374171
0.0388223
0.0403203
0.0419245
0.0436518
0.0323333
0.0334205
0.0345839
0.0358296
0.0371645
0.0385952
0.0401291
0.0417797
0.0435648
0.0455043
0.0330117
0.034166
0.035407
0.036742
0.0381794
0.0397272
0.0413957
0.0432018
0.0451664
0.047313
0.0335999
0.0348272
0.0361499
0.0375759
0.0391154
0.0407788
0.0425787
0.0445339
0.0466684
0.0490114
0.0341159
0.0354158
0.0368167
0.038327
0.0399597
0.0417277
0.0436445
0.0457289
0.048006
0.050508
0.0345803
0.0359456
0.037417
0.0390039
0.0407176
0.0425708
0.0445779
0.0467579
0.0491346
0.0517394
0.0350161
0.0364382
0.0379699
0.0396196
0.0413969
0.0433127
0.0453807
0.0476176
0.0500448
0.0526896
0.035448
0.0369185
0.0384995
0.0401979
0.0420208
0.0439769
0.0460766
0.0483329
0.0507632
0.0533894
0.0359058
0.0374178
0.0390389
0.0407737
0.0426267
0.044603
0.0467089
0.0489531
0.0513481
0.053909
0.0364248
0.0379744
0.03963
0.0413934
0.0432658
0.0452485
0.0473431
0.0495543
0.0518893
0.054356
0.0370478
0.0386357
0.0403252
0.0421154
0.0440043
0.0459892
0.0480681
0.0502409
0.0525092
0.0548753
0.0378285
0.0394604
0.0411894
0.043012
0.0449234
0.0469179
0.0489903
0.0511364
0.053353
0.0556383
0.0388372
0.0405254
0.0423069
0.0441763
0.0461266
0.0481503
0.0502397
0.0523881
0.0545885
0.0568362
0.0401731
0.0419401
0.0437985
0.0457416
0.0477613
0.0498486
0.051995
0.0541926
0.0564338
0.058709
0.0419899
0.0438769
0.0458568
0.0479223
0.050065
0.0522746
0.0545379
0.0568485
0.0592
0.0615859
0.0445342
0.0466098
0.0487857
0.0510575
0.053414
0.0558404
0.0583248
0.0608571
0.0634304
0.0660421
0.0481401
0.0505224
0.0530251
0.0556481
0.0583793
0.0611961
0.0640797
0.06702
0.0700112
0.0730499
0.0532866
0.0561873
0.0592484
0.0624694
0.0658405
0.06932
0.072886
0.0765355
0.0802603
0.0840487
0.0605928
0.0643617
0.0683612
0.072565
0.0769364
0.0814726
0.0861777
0.0910313
0.0959928
0.101012
0.0707489
0.075839
0.081237
0.0868935
0.0928066
0.0990193
0.105536
0.112305
0.119172
0.126
0.0841613
0.0910538
0.0983809
0.106123
0.114364
0.123116
0.13224
0.141498
0.150641
0.159489
0.100586
0.109758
0.119601
0.130103
0.141377
0.15311
0.16456
0.175338
0.185305
0.194238
0.119847
0.131857
0.144398
0.157214
0.170044
0.182355
0.193688
0.203872
0.21274
0.219972
0.141469
0.155624
0.169678
0.183601
0.197087
0.209549
0.220604
0.2301
0.237909
0.243861
0.164513
0.18034
0.196029
0.211249
0.225485
0.238124
0.248756
0.257229
0.263583
0.267897
0.186668
0.203886
0.220843
0.237073
0.251906
0.264582
0.274533
0.281585
0.285958
0.288134
0.204302
0.222629
0.240877
0.258429
0.274272
0.287108
0.295975
0.30078
0.302215
0.301373
0.216315
0.236149
0.25646
0.276429
0.294455
0.308004
0.314955
0.315662
0.31223
0.306936
0.224872
0.247389
0.271665
0.296816
0.320175
0.335589
0.338116
0.330444
0.318809
0.307246
0.233187
0.260454
0.291829
0.326209
0.363625
0.386195
0.376592
0.349817
0.324947
0.306004
0.242162
0.275885
0.314455
0.353203
0.394933
0.443098
0.431171
0.369983
0.330796
0.305262
0.245333
0.279822
0.317226
0.357072
0.403207
0.444559
0.423888
0.371169
0.331576
0.304297
0.242965
0.275895
0.312161
0.356232
0.406194
0.443386
0.419551
0.369685
0.330834
0.303402
0.239396
0.273231
0.310305
0.357457
0.411005
0.448598
0.41973
0.367958
0.328775
0.301754
0.234732
0.270861
0.311015
0.360012
0.416981
0.449763
0.412466
0.360175
0.322453
0.297764
0.230134
0.267135
0.311168
0.361443
0.420723
0.438472
0.389706
0.343002
0.310909
0.291397
0.226852
0.263196
0.308149
0.360849
0.411024
0.400778
0.354338
0.319572
0.296853
0.284754
0.224167
0.258745
0.300837
0.352294
0.373166
0.346008
0.318045
0.297201
0.2849
0.280904
0.220812
0.251934
0.286317
0.319482
0.325845
0.308914
0.292834
0.282466
0.278939
0.282386
0.219366
0.247999
0.275936
0.295337
0.29616
0.286932
0.278934
0.276213
0.280002
0.290357
0.223144
0.251305
0.275473
0.286766
0.284088
0.277398
0.274279
0.277674
0.288289
0.305609
0.234735
0.265136
0.285879
0.287602
0.27971
0.274182
0.275682
0.285603
0.303786
0.328885
0.256135
0.289722
0.297995
0.286233
0.275472
0.273087
0.280891
0.299058
0.32652
0.360908
0.290312
0.316059
0.301064
0.280972
0.270825
0.273534
0.289464
0.317939
0.356859
0.402538
0.336177
0.335539
0.299251
0.274746
0.266651
0.275587
0.301285
0.342287
0.395234
0.454787
0.374139
0.335508
0.292954
0.267099
0.26189
0.278174
0.31544
0.371507
0.441639
0.518637
0.406715
0.339138
0.286846
0.258093
0.255531
0.27988
0.330378
0.404198
0.495347
0.594824
0.421263
0.337812
0.277932
0.246311
0.246209
0.278935
0.343852
0.437873
0.554378
0.683248
0.413024
0.328988
0.265639
0.231103
0.232642
0.273287
0.352845
0.468578
0.61454
0.78113
0.416889
0.324907
0.253814
0.213357
0.214349
0.261333
0.354228
0.491267
0.669138
0.881934
0.423183
0.321016
0.240613
0.192447
0.190911
0.242097
0.345374
0.500371
0.708501
0.97224
0.424957
0.312759
0.224107
0.16816
0.162785
0.215863
0.325102
0.49122
0.720902
1.02745
0.412599
0.296323
0.203428
0.141268
0.13149
0.184281
0.294398
0.46278
0.699594
1.02486
0.394915
0.276359
0.181112
0.114102
0.0995067
0.149881
0.256006
0.418387
0.64855
0.969107
0.376205
0.256327
0.159291
0.0889514
0.0696304
0.115454
0.213384
0.363426
0.576459
0.872629
0.359557
0.236377
0.137813
0.0667618
0.0442867
0.0835251
0.169864
0.303612
0.494696
0.759576
0.342535
0.214967
0.115877
0.0477419
0.0251871
0.0560732
0.128181
0.242911
0.409727
0.642855
0.323395
0.191063
0.0933465
0.0320563
0.0128355
0.0344717
0.0908606
0.18467
0.324853
0.524626
0.298
0.163988
0.0710242
0.0200522
0.00620481
0.0192533
0.060165
0.1328
0.24459
0.40725
0.265546
0.135077
0.0506556
0.0118448
0.00325925
0.00986016
0.0372428
0.0908804
0.175736
0.300872
0.229275
0.105209
0.0331272
0.00669491
0.00210742
0.00484051
0.0215126
0.0597996
0.121811
0.212608
0.177579
0.0722958
0.0189737
0.00382161
0.00169806
0.00255385
0.0113651
0.0378018
0.083361
0.146564
0.125139
0.0454955
0.0102695
0.00256848
0.00157316
0.00173118
0.00528587
0.021615
0.0567648
0.102621
0.0744995
0.0251347
0.005201
0.00204816
0.00153897
0.00154276
0.00243137
0.00900967
0.0336001
0.0750651
0.000528191
0.00052245
0.000517678
0.00051321
0.000508629
0.000503788
0.000498607
0.000493034
0.000487034
0.000480581
0.000473667
0.000466294
0.000458604
0.00045111
0.000445213
0.000443524
0.000445201
0.000445069
0.000444622
0.000443936
0.000444334
0.00044381
0.000442891
0.000443534
0.000442631
0.000442462
0.000441921
0.000443166
0.000443553
0.000442381
0.000442294
0.000442257
0.000429757
0.000407
0.000376546
0.000339378
0.000295806
0.000245642
0.000187638
9.81695e-05
0.00121203
0.00120061
0.00118847
0.00117561
0.001162
0.00114763
0.00113251
0.00111663
0.00109999
0.00108263
0.00106457
0.00104583
0.00102649
0.00100672
0.000986696
0.000966495
0.000945869
0.000925922
0.000906004
0.000886094
0.000865764
0.000845387
0.000824708
0.000803171
0.000781224
0.000758364
0.000734556
0.000709847
0.000684007
0.000657188
0.000628744
0.000598406
0.000565314
0.000528374
0.000487277
0.000441773
0.000391124
0.000333059
0.00026029
0.000149213
0.00165445
0.00163856
0.00162139
0.001603
0.0015834
0.00156265
0.00154076
0.00151779
0.00149379
0.00146881
0.00144292
0.0014162
0.00138878
0.00136082
0.00133249
0.00130404
0.0012758
0.00124769
0.00121969
0.00119168
0.0011635
0.00113492
0.00110566
0.00107541
0.00104391
0.00101089
0.00097614
0.000939306
0.000900124
0.000858377
0.000813913
0.000766782
0.000717222
0.000665266
0.000610865
0.000553815
0.000493341
0.000426408
0.000343157
0.000214192
0.00202724
0.00200889
0.00198878
0.00196697
0.00194352
0.00191846
0.00189186
0.00186379
0.00183433
0.00180357
0.00177165
0.00173869
0.0017049
0.00167049
0.00163574
0.00160098
0.00156658
0.00153248
0.00149866
0.00146494
0.00143103
0.00139655
0.00136102
0.001324
0.00128511
0.00124405
0.0012005
0.00115405
0.00110428
0.00105083
0.000993652
0.000932889
0.00086894
0.000802371
0.000733714
0.00066322
0.000590721
0.000513256
0.000418882
0.000275648
0.00238253
0.00236345
0.00234217
0.00231872
0.00229315
0.00226549
0.00223582
0.00220421
0.00217079
0.00213568
0.00209905
0.00206112
0.00202214
0.00198244
0.00194237
0.00190241
0.00186302
0.00182422
0.00178594
0.00174787
0.00170946
0.00166997
0.00162859
0.00158463
0.00153766
0.00148744
0.00143374
0.0013762
0.00131435
0.00124771
0.00117615
0.00109991
0.00101977
0.000937019
0.000852826
0.000767411
0.000680956
0.000591913
0.00048573
0.000328678
0.00274495
0.00272705
0.00270652
0.00268336
0.00265759
0.00262925
0.0025984
0.00256511
0.00252951
0.00249176
0.00245209
0.00241075
0.00236807
0.00232447
0.00228041
0.00223655
0.00219358
0.00215164
0.00211059
0.00206986
0.00202832
0.00198448
0.00193681
0.00188423
0.00182636
0.00176338
0.00169567
0.0016232
0.00154528
0.00146117
0.00137067
0.00127438
0.0011739
0.00107201
0.000971211
0.000871039
0.000770234
0.000668349
0.000544853
0.000371706
0.00313299
0.00311874
0.00310153
0.00308133
0.00305812
0.00303191
0.00300274
0.00297067
0.00293582
0.00289838
0.00285858
0.00281674
0.00277325
0.00272854
0.0026832
0.00263806
0.00259435
0.0025524
0.00251217
0.00247262
0.00243135
0.00238513
0.00233101
0.0022672
0.00219375
0.00211225
0.00202454
0.001931
0.00183012
0.00172041
0.00160227
0.00147768
0.00134988
0.00122338
0.00110237
0.000986524
0.000871398
0.00074796
0.00059742
0.0004045
0.00356523
0.00355825
0.00354824
0.00353514
0.00351892
0.00349954
0.00347701
0.00345136
0.00342266
0.00339111
0.00335699
0.00332073
0.00328273
0.00324334
0.00320313
0.00316319
0.0031256
0.00309135
0.00306099
0.003033
0.00300215
0.00296089
0.0029035
0.00282765
0.00273476
0.002629
0.00251473
0.00239186
0.00225621
0.00210524
0.00194191
0.00177168
0.00160103
0.00143626
0.00128334
0.0011389
0.000994647
0.000844499
0.000667657
0.000448014
0.00406311
0.00406892
0.00407221
0.00407296
0.00407115
0.00406674
0.00405965
0.00404984
0.00403736
0.00402239
0.00400538
0.00398708
0.00396818
0.00394881
0.00392918
0.0039107
0.00389665
0.00389002
0.00389293
0.00390351
0.00390974
0.00389349
0.00384636
0.00376877
0.00366446
0.00353856
0.00339535
0.0032303
0.00303608
0.00281267
0.00256935
0.00231614
0.00206318
0.00182081
0.00159985
0.00140376
0.00121154
0.00101086
0.000795002
0.000542642
0.00465226
0.00467924
0.0047054
0.00473093
0.0047559
0.0047803
0.00480397
0.00482675
0.00484859
0.00486975
0.00489106
0.00491427
0.00494143
0.00497266
0.00500743
0.0050481
0.00510035
0.00517235
0.00526544
0.0053724
0.00546428
0.0055107
0.00551264
0.00547421
0.00539757
0.00527979
0.00510867
0.00487055
0.00456851
0.00421623
0.00382932
0.00342188
0.00300864
0.00260772
0.00223714
0.00189937
0.00159344
0.00130356
0.00101467
0.000710069
0.00536223
0.00542272
0.00548636
0.0055538
0.0056254
0.00570117
0.00578089
0.00586421
0.00595094
0.00604145
0.00613703
0.00624151
0.00636062
0.00649636
0.00664901
0.00682731
0.00704036
0.00729737
0.00757816
0.00784846
0.00808408
0.00825813
0.00837814
0.00844436
0.00844604
0.00835419
0.00814154
0.00779932
0.00734504
0.00680738
0.00620706
0.00555589
0.00486732
0.00416774
0.00349212
0.00286706
0.00230486
0.00180355
0.00135267
0.000945713
0.00622405
0.00633541
0.00645768
0.00659241
0.00674037
0.0069015
0.00707518
0.00726075
0.00745812
0.00766839
0.00789374
0.00814205
0.00842539
0.00875254
0.00912464
0.00954962
0.010036
0.0105724
0.0111129
0.0116178
0.0120533
0.012404
0.0126819
0.0128884
0.0129913
0.0129297
0.0126602
0.0121948
0.0115825
0.0108669
0.0100586
0.00914159
0.00811131
0.00699439
0.00583636
0.00470268
0.00365104
0.00271504
0.00189631
0.00124147
0.00726551
0.00745045
0.00765978
0.00789624
0.00816072
0.00845224
0.00876883
0.00910901
0.00947358
0.00986715
0.0102968
0.0107721
0.0113096
0.0119228
0.012609
0.0133621
0.0141714
0.0150089
0.0158161
0.0165308
0.0171323
0.017633
0.0180553
0.0183975
0.0185983
0.0185531
0.0182288
0.0176864
0.0170008
0.0162094
0.0152818
0.014151
0.0127861
0.0112225
0.00950557
0.0077117
0.00595499
0.00432133
0.00281538
0.0014072
0.00850467
0.00879012
0.0091204
0.00949923
0.00992628
0.0103978
0.0109089
0.0114573
0.0120453
0.0126789
0.0133711
0.0141326
0.014969
0.0158818
0.0168718
0.0179234
0.0190102
0.0200723
0.0210545
0.0218837
0.0225752
0.0231789
0.0237131
0.0241459
0.024375
0.0243238
0.0240357
0.0235988
0.0230338
0.0223115
0.0213453
0.0200628
0.0184446
0.0165302
0.0143324
0.0118934
0.00936279
0.00687943
0.00445222
0.00167821
0.00994419
0.0103576
0.0108427
0.0114025
0.0120326
0.012723
0.0134645
0.0142538
0.015096
0.0159935
0.0169478
0.0179683
0.0190508
0.0201856
0.0213686
0.0225929
0.0238272
0.0249972
0.0260106
0.0268409
0.0275555
0.0281994
0.0287559
0.0291736
0.0293964
0.0294166
0.0293078
0.0291065
0.028773
0.0282137
0.0273224
0.0260784
0.0244715
0.0224833
0.020047
0.0171322
0.0138566
0.0104279
0.00686513
0.00264787
0.011568
0.0121307
0.0127945
0.0135593
0.0144106
0.0153271
0.0162934
0.0173044
0.0183646
0.0194751
0.0206292
0.0218226
0.0230448
0.0242719
0.0254984
0.0267307
0.0279531
0.0291027
0.0300782
0.0308618
0.0315395
0.0321516
0.032662
0.0330452
0.033304
0.0334331
0.0334341
0.0333127
0.033066
0.0326737
0.03209
0.0312174
0.0300007
0.0283405
0.0261377
0.0232398
0.0195018
0.0150982
0.0100476
0.0040077
0.0133358
0.0140517
0.0148932
0.0158549
0.0169055
0.0180085
0.0191454
0.0203128
0.0215088
0.0227339
0.0239785
0.0252262
0.0264692
0.0276852
0.0288638
0.0300289
0.0311822
0.0322634
0.0331922
0.0339616
0.0346218
0.0351985
0.0356778
0.036055
0.0363245
0.0364677
0.0364787
0.0363752
0.0361769
0.0358616
0.0353653
0.0346585
0.0337689
0.0326384
0.0310998
0.0289038
0.0256192
0.020802
0.014189
0.00560675
0.015184
0.0160326
0.0170154
0.0181227
0.0193222
0.020569
0.0218233
0.0230649
0.0242964
0.0255298
0.0267651
0.0279878
0.0291902
0.030376
0.0315325
0.0326636
0.0337662
0.034804
0.0357263
0.0365313
0.0372366
0.0378521
0.0383727
0.0387927
0.0391027
0.0392878
0.0393381
0.0392514
0.0390253
0.0386459
0.0380919
0.0373613
0.0364685
0.035406
0.0341096
0.0324308
0.0300017
0.0260538
0.0193028
0.00744046
0.0170441
0.017994
0.0190717
0.0202652
0.021566
0.0229183
0.0242188
0.0254416
0.026627
0.0278111
0.0290045
0.0302033
0.0314075
0.0326078
0.0337895
0.034945
0.0360658
0.0371303
0.0381164
0.0390205
0.0398462
0.0405948
0.0412609
0.0418349
0.0423029
0.0426464
0.0428433
0.0428691
0.0426995
0.0423164
0.0417159
0.0409101
0.0399221
0.0387775
0.0374825
0.035951
0.0338209
0.0301953
0.0233278
0.00836127
0.0188745
0.0198909
0.0210257
0.0222662
0.0235934
0.0249474
0.0261978
0.0273499
0.0284897
0.0296541
0.030852
0.0320803
0.0333312
0.0345909
0.0358427
0.0370788
0.0382918
0.0394721
0.0406121
0.0417049
0.042748
0.0437366
0.0446622
0.0455133
0.0462759
0.0469303
0.0474456
0.047776
0.0478681
0.0476785
0.0471933
0.0464298
0.0454278
0.044247
0.0429573
0.0415518
0.0397384
0.0365476
0.0297605
0.0116799
0.020674
0.0217374
0.0228841
0.0240896
0.0253227
0.0265288
0.0277073
0.0288546
0.0300209
0.0312341
0.0324914
0.0337865
0.0351107
0.036457
0.0378162
0.0391835
0.0405557
0.0419299
0.043304
0.0446648
0.0460059
0.0473165
0.0485831
0.0497931
0.0509399
0.0520183
0.053004
0.0538381
0.054433
0.0546983
0.0545894
0.054127
0.0533824
0.0524499
0.0514545
0.0502768
0.0484054
0.0446657
0.0366958
0.0173488
0.022454
0.0235479
0.0246803
0.0258086
0.0268741
0.0278729
0.0289762
0.0301485
0.0313781
0.0326664
0.0340041
0.0353831
0.0368003
0.0382547
0.0397468
0.0412784
0.0428514
0.0444665
0.0461228
0.0478005
0.0494879
0.0511654
0.0528085
0.0543964
0.0559267
0.057421
0.0588813
0.0602603
0.061469
0.0623815
0.0628865
0.0630046
0.0629489
0.0628155
0.062678
0.0627705
0.0620359
0.0571464
0.0451637
0.0245211
0.0242368
0.0253626
0.0264784
0.0275104
0.0283896
0.0292438
0.030272
0.031429
0.0326881
0.0340288
0.0354335
0.0368926
0.038405
0.0399748
0.0416095
0.0433179
0.0451071
0.0469815
0.0489342
0.0509463
0.0529965
0.0550539
0.0570818
0.0590455
0.0609242
0.0627274
0.0644662
0.0661225
0.0677084
0.0692364
0.0706216
0.0716424
0.072451
0.0733843
0.0733014
0.0739153
0.0787862
0.0757543
0.0563669
0.0308897
0.0260089
0.0271892
0.0283101
0.0292666
0.0300415
0.0308041
0.0317252
0.0328161
0.0340489
0.0353944
0.0368306
0.0383461
0.0399399
0.0416185
0.0433934
0.0452786
0.0472862
0.0494225
0.0516752
0.054023
0.0564299
0.0588496
0.0612345
0.0635467
0.0657529
0.067784
0.0695658
0.0711025
0.072536
0.0740648
0.0759293
0.0783289
0.0795539
0.0794331
0.0797022
0.0834784
0.0922521
0.0912234
0.0689968
0.0355914
0.0277138
0.0289654
0.0301354
0.0310951
0.0318708
0.0325951
0.0334126
0.0343999
0.0355557
0.0368563
0.0382815
0.0398208
0.0414737
0.0432477
0.0451567
0.0472183
0.0494489
0.0518562
0.0544264
0.0571237
0.0598888
0.0626505
0.0653392
0.0678929
0.0702608
0.0723752
0.0741216
0.0754301
0.0764217
0.0774254
0.0787598
0.0807724
0.0833911
0.0842257
0.0863689
0.094163
0.104848
0.0988161
0.0735292
0.0377667
0.0293173
0.0306181
0.0318673
0.0329426
0.0338218
0.0346049
0.0353813
0.0362589
0.0373054
0.0385251
0.0399065
0.0414432
0.0431365
0.0449951
0.0470348
0.0492774
0.0517453
0.0544516
0.0573817
0.0604778
0.0636431
0.0667644
0.0697409
0.0724854
0.074909
0.0769213
0.078436
0.0793947
0.0799824
0.0806263
0.0817116
0.083681
0.0869197
0.0889935
0.0928153
0.102447
0.111537
0.0988549
0.0716624
0.0361219
0.0308479
0.0321754
0.0334659
0.03466
0.0357127
0.0366412
0.037482
0.0383257
0.0392999
0.0404603
0.041811
0.0433536
0.045095
0.0470473
0.0492298
0.0516695
0.0543991
0.0574466
0.0608075
0.0644022
0.0680699
0.0716241
0.0749302
0.0778865
0.0803598
0.0822018
0.0833261
0.0837432
0.0838093
0.0840952
0.0850888
0.0872631
0.0909985
0.0934627
0.0984453
0.107543
0.108251
0.0905326
0.0661082
0.0331537
0.0323057
0.0336499
0.0349587
0.0361925
0.0373246
0.0383673
0.0393573
0.0403453
0.0414122
0.0426293
0.0440337
0.0456502
0.0475021
0.0496081
0.0519894
0.0546789
0.0577174
0.0611539
0.0650171
0.0692425
0.0735868
0.0777066
0.0814169
0.0846183
0.0871142
0.0886161
0.0890317
0.0884925
0.0877759
0.0876961
0.088764
0.0914132
0.095177
0.0977652
0.104692
0.10836
0.09715
0.0791343
0.0590469
0.0300607
0.0336647
0.0350047
0.0363188
0.0375811
0.0387803
0.039933
0.0410806
0.0422639
0.0435285
0.0449302
0.0465218
0.0483369
0.0504134
0.0527855
0.0554839
0.058542
0.0620035
0.0659279
0.0703694
0.0753428
0.0805387
0.0853669
0.0895187
0.0928322
0.0950349
0.0954595
0.0944086
0.0925236
0.091076
0.0907843
0.0920814
0.0947892
0.0966558
0.101553
0.103691
0.095314
0.0826679
0.0688098
0.0522989
0.0271274
0.0349459
0.0362763
0.0375985
0.0389017
0.0401864
0.0414707
0.042789
0.0441815
0.0456924
0.0473717
0.0492592
0.0514061
0.0538584
0.0566552
0.0598274
0.063402
0.0674084
0.0718907
0.0769164
0.0825483
0.0886245
0.094523
0.0989844
0.100892
0.101333
0.100508
0.0975398
0.0947411
0.0928158
0.0921996
0.0925814
0.0932686
0.0961586
0.0955651
0.0893869
0.0811807
0.07165
0.0606266
0.0466363
0.0245683
0.0361872
0.0375238
0.0388743
0.0402394
0.0416293
0.0430664
0.0445843
0.0462255
0.0480403
0.0500707
0.0523656
0.0549756
0.0579446
0.0613067
0.0650824
0.0692791
0.0738913
0.0788963
0.0842959
0.0900761
0.09622
0.102498
0.105938
0.106445
0.105306
0.101949
0.0982912
0.0950177
0.0925121
0.0907992
0.0902061
0.0901906
0.087946
0.0839104
0.0784575
0.0718251
0.0639672
0.0545425
0.0422292
0.0225021
0.0374334
0.0388078
0.0402215
0.0416851
0.0432177
0.0448482
0.0466147
0.0485655
0.0507557
0.0532295
0.056036
0.0592192
0.0628117
0.0668292
0.0712668
0.0760999
0.0812806
0.0867011
0.0922219
0.0977323
0.103098
0.107642
0.110364
0.110219
0.10655
0.102203
0.0979841
0.0941624
0.0910263
0.0887006
0.0865566
0.0840203
0.080759
0.0766654
0.0716598
0.0656687
0.0585834
0.0500687
0.0388721
0.0208712
0.0387439
0.0401991
0.0417237
0.0433377
0.0450699
0.0469564
0.0490413
0.0513791
0.0540284
0.0570391
0.0604527
0.0642992
0.0685892
0.0733066
0.0784033
0.0838007
0.0893905
0.0950288
0.100566
0.105793
0.110298
0.113686
0.115033
0.111334
0.106495
0.101737
0.0972549
0.0931544
0.0895062
0.086225
0.0830829
0.0798272
0.0762015
0.072002
0.0670843
0.0613481
0.054684
0.0467431
0.0363143
0.0195958
0.0401835
0.0417707
0.0434634
0.0452899
0.0472897
0.0495065
0.0519891
0.0547994
0.0579981
0.0616282
0.0657194
0.0702828
0.0752958
0.0806957
0.0863802
0.0922128
0.0980331
0.103703
0.109063
0.113168
0.116464
0.118121
0.114514
0.109881
0.105152
0.100521
0.096019
0.0917303
0.0877563
0.0840623
0.0805054
0.0768752
0.0729656
0.0686181
0.0637177
0.0581611
0.051791
0.0442481
0.0343757
0.0186262
0.0418024
0.0435772
0.0454997
0.0476051
0.0499408
0.0525579
0.0555122
0.0588692
0.0626847
0.0669916
0.0718106
0.0771292
0.0828791
0.0889405
0.0951344
0.101215
0.106931
0.111959
0.115304
0.118677
0.119306
0.115783
0.111599
0.107236
0.102807
0.0983347
0.0939279
0.0897375
0.0857896
0.0820058
0.0782724
0.0744506
0.0704019
0.0660064
0.0611606
0.0557564
0.0496272
0.0423988
0.0329445
0.0179297
0.0436237
0.0456407
0.0478521
0.0502972
0.0530273
0.0561078
0.0595983
0.0635493
0.0680275
0.073072
0.0786819
0.0848085
0.0913312
0.0980536
0.104662
0.110642
0.114743
0.117035
0.119923
0.119235
0.115798
0.111993
0.108031
0.103934
0.0997448
0.0955542
0.0914666
0.0875307
0.083727
0.0799954
0.0762552
0.0724078
0.0683509
0.0639892
0.0592314
0.0539716
0.0480404
0.0410657
0.0319427
0.0174632
0.0456319
0.0479326
0.050476
0.0533109
0.0564951
0.0600952
0.064174
0.0687856
0.0739907
0.0798321
0.0862917
0.0932898
0.100665
0.107976
0.113734
0.116384
0.118474
0.119869
0.117747
0.114685
0.111335
0.107813
0.104106
0.100304
0.0964823
0.0926949
0.0889787
0.0853422
0.0817595
0.0781806
0.0745399
0.0707629
0.0667725
0.0624926
0.0578431
0.052721
0.0469554
0.0401747
0.031297
0.0171769
0.0477378
0.0503506
0.0532663
0.0565482
0.0602589
0.0644634
0.0692231
0.0745879
0.0805935
0.0872526
0.0944925
0.102244
0.110102
0.115054
0.11683
0.119173
0.119632
0.116637
0.11333
0.110127
0.106949
0.103632
0.100201
0.096766
0.0933619
0.0899965
0.0866715
0.0833703
0.0800555
0.0766798
0.0731915
0.0695355
0.0656531
0.0614817
0.0569486
0.0519528
0.0463209
0.0396784
0.0309578
0.0170475
0.0498078
0.0527593
0.0560848
0.059855
0.0641523
0.0690622
0.0746539
0.080947
0.087884
0.0952873
0.102735
0.109671
0.113678
0.115476
0.118194
0.117973
0.114715
0.111441
0.1084
0.105512
0.102606
0.0995942
0.0965499
0.0935448
0.0905793
0.0876397
0.084709
0.0817509
0.0787165
0.0755626
0.0722502
0.0687398
0.0649849
0.0609311
0.0565094
0.051619
0.046083
0.0395227
0.0308784
0.0170419
0.0517482
0.0550118
0.058717
0.0629558
0.0678364
0.0734761
0.0799756
0.0873968
0.0956662
0.10417
0.110476
0.112349
0.112855
0.114757
0.114319
0.111722
0.108855
0.106147
0.103586
0.101076
0.0985384
0.0959658
0.0933977
0.0908501
0.088314
0.0857781
0.0832168
0.0805802
0.0778124
0.0748768
0.0717451
0.068387
0.0647616
0.0608179
0.0564887
0.051672
0.0461865
0.0396485
0.0310084
0.0171353
0.0534346
0.0569333
0.0609206
0.0655085
0.0708347
0.0770623
0.0843727
0.0929371
0.102695
0.111415
0.11281
0.111089
0.110828
0.110227
0.108464
0.106135
0.103791
0.101578
0.0994656
0.0973764
0.095272
0.0931492
0.091007
0.088849
0.0866808
0.0844903
0.0822449
0.0798949
0.0773794
0.0746534
0.0716987
0.0684889
0.0649815
0.0611277
0.0568619
0.0520811
0.0466002
0.0400288
0.0313155
0.0173171
0.0547781
0.0583999
0.0625181
0.0672514
0.0727521
0.0792134
0.0868799
0.0960083
0.106223
0.111865
0.110687
0.109526
0.108639
0.106827
0.104522
0.102236
0.100168
0.0983178
0.0966022
0.0949055
0.0931545
0.0913347
0.0894674
0.08758
0.085684
0.0837622
0.0817824
0.0796942
0.0774252
0.0749135
0.0721356
0.0690628
0.0656521
0.0618588
0.0576209
0.0528364
0.0473169
0.0406628
0.0318064
0.017591
0.0557552
0.0593794
0.0634641
0.0681152
0.0734683
0.0796937
0.087
0.0955946
0.105266
0.111027
0.109958
0.108929
0.107917
0.10505
0.102185
0.099842
0.0979832
0.0964558
0.0950694
0.0936413
0.0920778
0.0903964
0.0886685
0.0869452
0.0852407
0.0835424
0.0818155
0.0799919
0.0779789
0.075697
0.0730972
0.0701411
0.0667936
0.06302
0.058767
0.0539359
0.048334
0.0415472
0.0324822
0.0179643
0.0564048
0.0599259
0.0638384
0.0682224
0.0731777
0.0788241
0.0853001
0.0927481
0.101223
0.108877
0.109928
0.108489
0.10704
0.103521
0.10043
0.0982286
0.0966934
0.0955406
0.0944854
0.0932654
0.0917618
0.0900914
0.0884074
0.0867833
0.0852391
0.0837678
0.0823266
0.0808184
0.0791128
0.0770886
0.0746592
0.0717815
0.0684421
0.0646299
0.0603078
0.0553826
0.0496546
0.0426882
0.0333501
0.0184476
0.0568153
0.060156
0.0638006
0.0677986