/*--------------------------------*- C++ -*----------------------------------*\
  =========                 |
  \\      /  F ield         | OpenFOAM: The Open Source CFD Toolbox
   \\    /   O peration     | Website:  https://openfoam.org
    \\  /    A nd           | Version:  8
     \\/     M anipulation  |
\*---------------------------------------------------------------------------*/
FoamFile
{
    version     2.0;
    format      ascii;
    class       volScalarField;
    location    "4.65";
    object      p;
}
// * * * * * * * * * * * * * * * * * * * * * * * * * * * * * * * * * * * * * //

dimensions      [1 -1 -2 0 0 0 0];

internalField   nonuniform List<scalar> 
9150
(
394.74
367.747
342.241
325.047
316.74
316.73
325.021
342.204
367.706
394.704
365.883
346.337
330.679
318.878
312.894
312.888
318.859
330.652
346.305
365.85
336.611
323.049
314.503
306.749
302.638
302.633
306.734
314.482
323.024
336.582
311.902
301.889
296.416
291.056
288.085
288.08
291.044
296.398
301.867
311.876
290.61
281.704
277.113
272.942
270.497
270.494
272.932
277.097
281.684
290.586
27.9592
23.9342
49.0447
63.2854
69.8785
69.759
62.9415
48.5284
23.2097
26.9699
197.952
173.85
168.47
167.258
167.368
167.303
167.073
168.186
173.481
197.583
302.384
271.069
255.16
245.295
240.64
240.603
245.192
255.006
270.887
302.219
382.953
340.82
313.028
295.701
287.209
287.187
295.641
312.942
340.726
382.877
433.628
380.958
342.354
320.326
310.191
310.177
320.288
342.301
380.903
433.59
-52.353
-17.1426
-29.9517
-22.2974
-26.0366
-27.5033
-22.9476
-32.4998
-22.7576
-62.7393
-45.2653
-29.6298
-48.4433
-42.7313
-46.1626
-47.1919
-42.9219
-52.6351
-33.5128
-52.789
-89.5664
-59.3141
-90.6052
-84.4789
-81.44
-81.7474
-85.0933
-93.7023
-62.3324
-94.5681
-268.911
-145.008
-127.543
-109.557
-93.6613
-93.8744
-110.577
-129.733
-146.618
-273.108
-414.196
-176.652
-80.3387
-50.3444
-34.8139
-35.0015
-50.9933
-81.353
-177.819
-417.203
1767.52
1767.42
1767.3
1767.19
1767.07
1766.94
1766.81
1766.68
1766.55
1766.41
1748.05
1747.94
1747.83
1747.71
1747.59
1747.47
1747.34
1747.21
1747.07
1746.92
1728.56
1728.45
1728.34
1728.22
1728.1
1727.98
1727.85
1727.71
1727.57
1727.43
1709.04
1708.94
1708.83
1708.71
1708.59
1708.46
1708.33
1708.2
1708.06
1707.91
1689.49
1689.39
1689.28
1689.16
1689.04
1688.92
1688.79
1688.65
1688.51
1688.36
1669.92
1669.81
1669.7
1669.59
1669.47
1669.34
1669.21
1669.07
1668.93
1668.79
1650.32
1650.21
1650.1
1649.99
1649.86
1649.74
1649.61
1649.47
1649.34
1649.19
1630.7
1630.59
1630.47
1630.36
1630.24
1630.11
1629.98
1629.85
1629.71
1629.57
1611.05
1610.94
1610.83
1610.71
1610.58
1610.46
1610.33
1610.19
1610.06
1609.92
1591.39
1591.28
1591.16
1591.03
1590.91
1590.78
1590.64
1590.51
1590.38
1590.24
1571.72
1571.6
1571.47
1571.34
1571.2
1571.07
1570.93
1570.8
1570.66
1570.52
1552.04
1551.9
1551.76
1551.62
1551.47
1551.33
1551.18
1551.04
1550.89
1550.75
1532.35
1532.2
1532.07
1531.91
1531.72
1531.55
1531.39
1531.22
1531.06
1530.91
1512.7
1512.52
1512.33
1512.15
1511.94
1511.74
1511.54
1511.35
1511.16
1510.98
1492.99
1492.81
1492.59
1492.39
1492.1
1491.87
1491.62
1491.39
1491.16
1490.94
1473.34
1473.11
1472.83
1472.58
1472.25
1471.96
1471.65
1471.35
1471.06
1470.78
1453.69
1453.39
1453.09
1452.76
1452.4
1452.03
1451.64
1451.26
1450.88
1450.5
1434.09
1433.74
1433.39
1432.98
1432.56
1432.1
1431.63
1431.15
1430.66
1430.15
1414.55
1414.16
1413.74
1413.29
1412.8
1412.26
1411.69
1411.09
1410.51
1409.95
1395.03
1394.62
1394.16
1393.66
1393.13
1392.52
1391.85
1391.18
1390.92
1390.64
1375.52
1375.14
1374.71
1374.31
1373.74
1373.21
1372.69
1372.95
1372.45
1371.78
1355.94
1355.83
1355.98
1354.96
1354.73
1354.24
1353.87
1354.53
1354.11
1353.26
1342.84
1336.11
1336.19
1336.01
1335.71
1335.3
1334.86
1335.01
1335.51
1333.69
1322.81
1319.08
1318.37
1317.84
1317.36
1316.9
1316.46
1316.02
1315.61
1315.2
1301.64
1300.49
1299.94
1299.46
1299
1298.56
1298.13
1297.71
1297.29
1296.87
1283.46
1282.59
1281.87
1281.27
1280.75
1280.29
1279.87
1279.48
1279.12
1278.76
1265.16
1264.32
1263.57
1262.95
1262.43
1261.98
1261.58
1261.25
1260.97
1260.72
1246.48
1245.69
1245
1244.41
1243.91
1243.47
1243.08
1242.74
1242.43
1242.15
1227.1
1226.56
1226.06
1225.59
1225.17
1224.77
1224.4
1224.04
1223.69
1223.34
1207.74
1207.42
1207.07
1206.71
1206.34
1205.98
1205.62
1205.23
1204.84
1204.43
1188.7
1188.46
1188.17
1187.86
1187.52
1187.15
1186.77
1186.35
1185.91
1185.43
1169.95
1169.72
1169.44
1169.11
1168.75
1168.36
1167.92
1167.44
1166.92
1166.36
1151.52
1151.23
1150.89
1150.52
1150.1
1149.64
1149.12
1148.55
1147.93
1147.26
1133.35
1132.96
1132.55
1132.09
1131.59
1131.04
1130.43
1129.75
1128.99
1128.18
1115.37
1114.89
1114.39
1113.84
1113.26
1112.61
1111.89
1111.08
1110.17
1109.15
1097.52
1096.97
1096.39
1095.78
1095.12
1094.41
1093.62
1092.71
1091.66
1090.43
1079.75
1079.16
1078.53
1077.86
1077.18
1076.5
1075.77
1074.94
1073.9
1072.75
1062.04
1061.46
1060.83
1060.12
1059.46
1059.04
1058.83
1058.45
1057.22
1061.65
1044.43
1043.94
1043.52
1042.92
1043.45
1043.04
1042.49
1042.06
1040.4
1039.99
1026.89
1026.52
1027.48
1027.34
1027.12
1027.01
1026.65
1024.96
1023.61
1022.64
1009.66
1009.79
1011.16
1010.97
1009.39
1009.12
1008.17
1007.57
1006.19
1005.43
992.065
991.947
994.098
993.101
991.833
991.562
990.992
990.283
989.578
988.844
974.857
974.856
974.809
974.774
974.642
974.455
974.141
973.728
973.238
972.677
957.812
957.92
957.999
958.037
958.014
957.914
957.725
957.511
957.25
956.91
940.938
941.192
941.413
941.591
941.707
941.757
942.703
941.81
941.627
941.49
924.251
924.675
925.072
925.425
925.723
926.015
926.608
926.583
926.434
926.38
907.729
908.344
908.938
909.496
910.034
910.619
911.026
911.309
911.416
911.426
891.34
892.159
892.97
893.747
894.513
895.334
895.928
896.391
896.677
896.775
875.083
876.121
877.148
878.155
879.106
880.15
881.256
881.942
882.138
882.427
858.883
860.151
861.409
862.665
863.875
865.017
866.24
867.543
867.767
868.347
842.722
844.253
845.798
847.299
848.824
850.287
851.646
852.883
853.947
854.791
826.519
828.304
830.112
831.979
833.9
835.819
837.627
839.276
840.703
841.865
810.151
812.184
814.242
816.504
819.03
821.695
824.079
826.273
828.192
829.783
793.666
796.036
798.804
802.816
804.938
808.001
811.278
814.124
816.64
818.746
777.603
780.871
785.346
789.475
790.492
795.133
798.853
802.185
805.206
807.758
759.632
763.305
767.5
769.663
775.645
781.376
786.547
792.515
798.469
803.862
740.655
745.039
750.316
756.19
764.108
774.908
787.146
801.039
810.581
818.302
724.359
733.893
749.029
763.724
782.269
790.565
798.26
803.193
810.018
816.161
724.807
733.749
736.949
741.655
746.625
752.185
757.229
764.701
768.653
771.584
690.04
693.588
691.563
701.29
707.388
712.472
718.688
725.924
732.82
738.959
630.783
634.316
640.35
650.307
661.78
673.774
686.038
698.031
709.058
718.541
575.434
581.125
588.736
599.617
613.257
628.917
645.552
661.88
676.778
689.323
514.412
516.108
521.289
531.736
548.332
569.19
591.51
613.388
633.26
649.905
445.385
437.005
432.981
437.976
458.28
492.626
529.422
560.291
584.596
604.175
385.479
374.565
371.643
374.963
380.567
401.235
450.692
501.414
536.514
557.391
367.359
369.016
371.863
373.183
375.069
378.541
393.773
435.888
486.388
513.66
371.842
372.879
373.022
373.102
373.264
373.528
374.717
389.413
434.869
469.575
372.796
372.709
372.695
372.703
372.705
372.647
373.072
376.711
400.79
430.59
372.484
372.305
372.256
372.202
372.13
372.078
372.315
373.868
383.387
399.82
372.201
371.931
371.854
371.774
371.677
371.639
371.754
372.438
372.442
375.711
372.514
371.634
371.418
371.334
371.27
371.3
370.961
366.416
357.814
354.52
377.49
371.838
371.093
370.877
370.911
370.928
368.927
351.81
338.829
334.936
390.3
378.802
371.413
370.006
369.59
368.415
352.917
329.407
320.921
317.611
395.86
393.197
375.858
369.184
360.442
337.228
315.098
305.954
303.155
299.749
377.412
382.969
370.634
360.728
319.897
280.979
281.957
285.772
285.39
282.333
351.855
353.687
349.584
346.531
292.341
277.156
281.187
281.619
277.569
271.729
333.134
331.875
338.089
341.812
319.207
306.722
297.228
287.261
276.429
265.275
322.91
330.929
368.619
354.715
342.117
324.799
306.405
289.288
272.975
257.039
322.221
356.817
371.74
344.348
334.422
318.514
300.295
281.867
263.501
245.184
322.422
357.876
340.272
332.103
320.24
305.272
288.086
269.682
250.736
231.544
342.461
335.574
329.62
317.982
303.807
288.604
272.161
254.643
236.491
217.874
321.485
290.873
291.245
286.969
278.249
266.697
253.044
237.974
222.175
206.116
280.722
279.946
276.829
268.507
258.709
247.836
235.683
222.534
208.657
194.664
249.62
251.565
249.694
243.039
235.486
227.401
218.604
209.5
200.629
194.588
215.213
219.79
220.034
215.426
210.281
204.919
199.29
194.113
190.763
193.575
184.177
187.56
188.535
186.053
182.926
179.212
175.02
171.4
170.056
173.118
159.405
159.325
160.57
159.512
157.001
153.039
148.043
143.278
139.753
133.756
154.16
147.775
143.271
139.367
134.81
128.758
121.552
114.344
106.941
90.9492
147.228
135.848
126.226
119.294
112.805
105.098
96.1567
86.8301
75.949
55.0299
112.554
108.13
102.328
96.472
90.1997
82.3662
72.8551
62.2909
49.1244
27.4434
82.839
83.8642
81.1887
76.5638
70.6912
63.1108
53.6225
42.6963
29.2328
11.315
69.0911
69.0409
65.9855
61.4384
55.4452
48.0306
38.818
28.181
15.7415
3.03471
61.7994
59.2086
54.6289
49.3069
42.9608
35.856
27.314
17.6004
6.92425
-1.09713
51.5352
47.889
42.3694
36.4766
30.6784
24.7772
17.6536
9.44349
0.705656
-3.67029
26.4154
26.9064
25.7187
22.2021
18.7925
15.0293
9.75367
3.30984
-3.7004
-5.20303
-2.47379
7.26252
12.9296
11.8517
9.92532
7.43847
3.38578
-1.3965
-7.34083
-6.43802
15.4613
10.1691
9.1062
5.58233
2.78577
0.384856
-3.23228
-6.41014
-12.4714
-8.4282
3.11371
-0.0795744
-0.739348
-2.41656
-4.59727
-6.61809
-9.90551
-11.4865
-18.2995
-12.4078
-5.46277
-4.21499
-7.66911
-8.27047
-10.6589
-12.2312
-13.2473
-12.2098
-15.0132
-20.4767
-20.9238
-0.294239
-13.3543
-13.5178
-17.0544
-18.4362
-15.7157
-12.8298
-1.62614
-35.2958
1766.26
1766.09
1765.92
1765.75
1765.57
1765.38
1765.19
1765
1764.8
1764.6
1764.39
1764.18
1763.96
1763.74
1763.52
1763.3
1763.06
1762.81
1762.56
1762.31
1762.07
1761.81
1761.55
1761.3
1761.04
1760.77
1760.51
1760.27
1760.03
1759.79
1759.56
1759.34
1759.14
1758.95
1758.79
1758.65
1758.54
1758.45
1758.39
1758.35
1746.77
1746.6
1746.42
1746.24
1746.05
1745.86
1745.66
1745.46
1745.25
1745.04
1744.82
1744.6
1744.38
1744.14
1743.9
1743.66
1743.41
1743.18
1742.93
1742.67
1742.41
1742.15
1741.88
1741.62
1741.36
1741.09
1740.83
1740.58
1740.32
1740.08
1739.85
1739.63
1739.43
1739.25
1739.08
1738.94
1738.82
1738.73
1738.67
1738.64
1727.27
1727.1
1726.92
1726.73
1726.54
1726.34
1726.14
1725.93
1725.72
1725.5
1725.27
1725.04
1724.81
1724.57
1724.32
1724.07
1723.82
1723.57
1723.31
1723.04
1722.77
1722.5
1722.23
1721.95
1721.67
1721.4
1721.12
1720.87
1720.61
1720.35
1720.11
1719.88
1719.66
1719.47
1719.29
1719.14
1719.01
1718.92
1718.86
1718.83
1707.75
1707.57
1707.39
1707.2
1707.01
1706.81
1706.6
1706.39
1706.17
1705.95
1705.72
1705.49
1705.25
1705
1704.75
1704.49
1704.23
1703.97
1703.7
1703.42
1703.14
1702.86
1702.57
1702.28
1701.99
1701.7
1701.42
1701.14
1700.86
1700.58
1700.32
1700.07
1699.83
1699.61
1699.42
1699.25
1699.11
1699.03
1698.97
1698.94
1688.2
1688.03
1687.84
1687.66
1687.46
1687.26
1687.05
1686.84
1686.62
1686.4
1686.17
1685.93
1685.69
1685.44
1685.19
1684.92
1684.66
1684.38
1684.1
1683.82
1683.53
1683.23
1682.93
1682.62
1682.31
1682.01
1681.71
1681.4
1681.09
1680.8
1680.51
1680.22
1679.95
1679.7
1679.47
1679.27
1679.11
1679.04
1679
1678.94
1668.63
1668.46
1668.28
1668.09
1667.9
1667.7
1667.5
1667.29
1667.07
1666.85
1666.62
1666.38
1666.14
1665.89
1665.63
1665.37
1665.09
1664.82
1664.53
1664.23
1663.93
1663.62
1663.3
1662.98
1662.65
1662.31
1661.98
1661.66
1661.33
1661
1660.68
1660.36
1660.04
1659.75
1659.5
1659.26
1659.32
1659.06
1658.99
1658.88
1649.04
1648.87
1648.69
1648.51
1648.32
1648.13
1647.93
1647.73
1647.51
1647.29
1647.07
1646.84
1646.6
1646.35
1646.09
1645.83
1645.55
1645.26
1644.96
1644.66
1644.35
1644.04
1643.7
1643.36
1642.99
1642.62
1642.26
1641.91
1641.56
1641.21
1640.86
1640.51
1640.16
1639.94
1639.82
1639.66
1639.51
1639.35
1639.23
1639.22
1629.42
1629.25
1629.08
1628.91
1628.73
1628.54
1628.35
1628.15
1627.95
1627.73
1627.52
1627.29
1627.06
1626.82
1626.56
1626.29
1626.01
1625.71
1625.4
1625.1
1624.8
1624.48
1624.13
1623.75
1623.33
1622.91
1622.51
1622.14
1621.79
1621.43
1621.08
1620.73
1620.41
1620.25
1620.13
1619.73
1619.59
1619.57
1619.4
1619.27
1609.77
1609.61
1609.45
1609.28
1609.11
1608.93
1608.75
1608.56
1608.36
1608.16
1607.95
1607.73
1607.51
1607.28
1607.04
1606.78
1606.49
1606.17
1605.85
1605.53
1605.32
1604.99
1604.6
1604.17
1603.68
1603.26
1603.06
1602.43
1601.96
1601.57
1601.19
1600.83
1600.51
1600.23
1600.36
1599.75
1599.68
1599.31
1599.23
1599.19
1590.1
1589.94
1589.78
1589.62
1589.46
1589.29
1589.12
1588.94
1588.75
1588.56
1588.35
1588.14
1587.93
1587.74
1587.54
1587.31
1587.06
1586.68
1586.66
1587.37
1585.9
1585.5
1585.07
1584.52
1584.22
1583.94
1583.43
1582.66
1582.06
1581.57
1581.12
1580.71
1580.58
1580.31
1579.92
1579.53
1579.2
1579.04
1578.84
1578.77
1570.38
1570.22
1570.07
1569.92
1569.77
1569.61
1569.44
1569.26
1569.08
1568.9
1568.71
1568.5
1568.27
1568.15
1568.12
1568.01
1567.97
1568.7
1568.29
1567.39
1566.52
1566.01
1565.22
1564.87
1564.48
1563.87
1563.14
1562.48
1561.85
1561.31
1560.85
1560.43
1560.22
1560.09
1559.71
1559.39
1559.03
1558.36
1558.12
1557.95
1550.6
1550.45
1550.3
1550.16
1550.01
1549.85
1549.69
1549.52
1549.33
1549.16
1549.05
1548.84
1549.07
1549.5
1549.52
1549.5
1549.16
1547.81
1547.72
1547.2
1546.56
1545.91
1545.15
1544.92
1544.06
1543.55
1542.75
1541.95
1541.27
1540.75
1540.32
1539.9
1539.52
1539.12
1538.6
1538.29
1537.94
1537.49
1537.18
1537.07
1530.75
1530.59
1530.44
1530.3
1530.16
1530
1529.83
1529.63
1529.41
1529.27
1529.77
1529.99
1529.88
1529.62
1528.63
1528.39
1528.05
1527.73
1527.32
1526.73
1526.01
1525.26
1524.55
1524
1523.51
1523.03
1522.03
1520.95
1520.13
1519.74
1519.47
1519.07
1518.53
1517.98
1517.47
1516.93
1516.49
1516.15
1515.94
1515.67
1510.8
1510.63
1510.47
1510.32
1510.17
1510.01
1509.82
1509.59
1509.53
1510.81
1510.21
1509.07
1508.79
1508.28
1507.79
1507.41
1507.06
1506.76
1506.52
1506.02
1505.34
1505.07
1506.28
1506.72
1503
1503.7
1501.79
1500.93
1501.81
1500.22
1498.89
1498.56
1497.52
1496.55
1495.87
1495.33
1494.86
1494.56
1494.33
1494.04
1490.73
1490.52
1490.33
1490.15
1489.99
1489.82
1489.63
1489.44
1489.56
1490.47
1488.56
1488.03
1487.45
1486.78
1485.95
1485.13
1484.67
1484.73
1485.28
1485.43
1484.8
1485.85
1486.07
1485.62
1483.36
1484.69
1481.6
1483
1483.24
1482.29
1479.85
1477.91
1476.37
1475
1474.26
1473.53
1472.9
1472.67
1472.47
1472.27
1470.5
1470.22
1469.96
1469.71
1469.49
1469.24
1468.94
1468.62
1468.74
1467.75
1467.15
1466.45
1465.73
1465.2
1464.39
1465.79
1467.08
1467.07
1466.2
1463.54
1464.44
1463.49
1463.96
1461.9
1461.95
1460.31
1463.43
1463.29
1460.49
1462.12
1458.99
1460.25
1459.66
1458.52
1456.63
1453.43
1450.99
1450.73
1450.45
1450.4
1450.13
1449.76
1449.37
1448.91
1448.57
1448.57
1448.71
1447.37
1446.8
1446.09
1445.3
1444.59
1443.48
1444.43
1445.37
1445.16
1444.93
1444.62
1443.44
1439.52
1439.29
1438.33
1437.51
1437.09
1436.79
1436.4
1436.25
1436.01
1436.35
1436.98
1436.97
1436.77
1436.09
1436.47
1437.12
1436.04
1434.52
1431.23
1427.34
1428.65
1429.56
1429.1
1428.66
1428.73
1429.94
1427.02
1426.77
1425.91
1424.94
1423.85
1423.05
1423.4
1423.61
1423.03
1420.83
1421.02
1419.55
1417.82
1416.18
1414.71
1413.7
1412.81
1412.01
1411.36
1410.83
1410.38
1410.09
1410
1410.13
1410.37
1410.63
1411.02
1411.6
1412.39
1413.48
1413.79
1412.83
1415.1
1414.1
1411.43
1408.9
1408.58
1408.46
1408.73
1407.59
1406.18
1405.43
1404.33
1403.18
1402.04
1402.27
1401.57
1400.46
1398.5
1397.03
1395.61
1394.1
1392.48
1390.88
1389.41
1388.14
1387
1385.97
1385.08
1384.31
1383.66
1383.16
1382.8
1382.55
1382.36
1382.28
1382.44
1382.96
1383.96
1385.68
1388.24
1391.19
1392.91
1391.55
1395.14
1389.99
1389.15
1387.92
1389
1385.64
1388.14
1384.63
1382.15
1381.85
1379.15
1380.41
1379.8
1376.21
1374.51
1372.63
1370.86
1369.11
1367.39
1365.73
1364.16
1362.72
1361.39
1360.14
1358.99
1357.94
1357.03
1356.24
1355.47
1354.62
1353.65
1352.7
1352.09
1351.99
1352.31
1353.27
1355.91
1361.27
1366.31
1366.85
1363.81
1371
1369.66
1370
1368.33
1365.35
1376.86
1364.84
1361.23
1359.62
1357.4
1359.36
1358.47
1352.93
1350.84
1348.79
1346.8
1344.92
1343.09
1341.34
1339.74
1338.23
1336.79
1335.37
1333.97
1332.63
1331.49
1330.51
1329.43
1327.91
1325.68
1322.86
1319.8
1316.25
1311.31
1305.38
1302.36
1309.8
1325.58
1337.58
1337.31
1352.12
1351.62
1350.51
1348
1347.61
1353.45
1341.17
1339.68
1338.06
1336.15
1334.49
1332.6
1330.28
1328.09
1325.91
1323.81
1321.84
1319.99
1318.27
1316.75
1315.32
1313.95
1312.65
1310.97
1309.13
1308.11
1307.52
1306.89
1304.98
1301.06
1295.89
1288.17
1280.16
1273.95
1271.56
1272.43
1271.4
1278.01
1292.31
1308.88
1333.29
1332.1
1329.53
1327.43
1330.93
1328.75
1325.46
1322.25
1319.31
1316.66
1314.18
1311.74
1309.23
1306.76
1304.54
1302.22
1300.22
1298.44
1296.87
1295.55
1294.45
1293.5
1292.45
1291.15
1291.48
1289.64
1289.43
1291.49
1289.58
1281.36
1276.48
1271.77
1266.42
1265.93
1265.79
1265.76
1266.08
1267.18
1263.78
1292.18
1314.56
1312.96
1312.27
1311.37
1310.72
1308.77
1307.56
1304.62
1301.23
1298.13
1295.22
1292.41
1289.67
1287.18
1284.79
1282.44
1280.24
1278.56
1277.15
1276.21
1275.67
1275.58
1275.78
1275.76
1277.21
1280.25
1278.3
1275.85
1275.72
1270.07
1265.21
1266.63
1264.54
1263.35
1263.17
1263.09
1262.86
1262.29
1258.5
1283.12
1296.27
1295.27
1297.37
1295.84
1294.26
1292.12
1290.04
1287.31
1283.88
1280.55
1277.38
1274.36
1271.47
1268.82
1266.31
1263.9
1261.76
1260.03
1258.82
1258.03
1257.95
1258.5
1259.64
1261.1
1262.29
1264.9
1267.87
1268.68
1267.89
1266.29
1264.55
1261.76
1261.25
1260.61
1260.67
1260.89
1261.03
1260.74
1258.15
1273.26
1278.31
1277.78
1280.54
1280.54
1279.33
1277.43
1275.16
1270.38
1267.21
1263.83
1260.5
1257.38
1254.43
1251.64
1248.98
1246.47
1244.2
1242.28
1241.08
1240.59
1241.01
1242
1243.59
1245.96
1249.17
1252.27
1251.24
1256.91
1254.82
1261.83
1262.82
1259.32
1257.25
1257.29
1257.61
1258.1
1258.66
1257.53
1254.36
1262.74
1260.49
1260.45
1261.33
1262.22
1263.41
1262.95
1261.76
1254.93
1250.94
1247.57
1244.2
1241.1
1238.19
1235.41
1232.68
1230.25
1227.17
1224.66
1223.57
1223.67
1224.67
1225.98
1227.15
1228.73
1231.25
1234.79
1238.73
1242.98
1246.74
1250.21
1253.92
1252.75
1252.42
1253.57
1254.3
1255.02
1255.11
1252.02
1246.33
1251.08
1241.86
1241.58
1241.42
1241.3
1240.7
1241.38
1241.51
1235.38
1232.46
1230.01
1227.33
1224.76
1222.25
1219.75
1217.18
1214.46
1211.95
1214.55
1209.75
1205.42
1208.65
1212.43
1211.92
1211.55
1214.64
1220.21
1242.84
1232.38
1238.96
1242.79
1243.22
1244.72
1246.87
1249.15
1250.38
1250.62
1248.56
1241.07
1237.32
1240.25
1222.95
1222.48
1221.88
1221.03
1219.91
1218.64
1217.27
1215.84
1214.29
1212.46
1210.53
1208.64
1206.74
1204.83
1202.96
1200.96
1198.78
1197.26
1202.71
1200.01
1189.9
1202.12
1202.43
1206.46
1215.9
1228.21
1225.86
1217.5
1230.91
1227.87
1234.42
1238.37
1241.32
1243.08
1244.01
1242.62
1234
1226.17
1226.14
1228.3
1203.96
1203.4
1202.74
1201.92
1200.9
1199.75
1198.63
1197.53
1196.34
1195.14
1193.87
1192.43
1191.12
1189.88
1188.6
1187.35
1186.06
1184.11
1181.22
1176.75
1175.89
1185.72
1198.16
1205.54
1210.3
1210.53
1198.69
1211.46
1214.3
1221.19
1227.55
1230.37
1232.92
1234.15
1231.55
1223.1
1214.66
1211.97
1213
1214.34
1184.88
1184.25
1183.54
1182.76
1181.9
1180.98
1180.06
1179.16
1178.29
1177.46
1176.66
1176.02
1175.57
1175.04
1174.61
1174.37
1174.19
1174.61
1174.36
1174.97
1176.07
1190.51
1195.9
1198.11
1197.86
1190.32
1196.71
1196.22
1206.41
1213.93
1217.66
1218.88
1219.28
1214.6
1206.49
1200.51
1197.66
1197.01
1197.52
1198.25
1165.73
1165.01
1164.24
1163.44
1162.62
1161.82
1161.05
1160.34
1159.74
1159.27
1158.92
1158.71
1158.72
1158.91
1159.17
1159.57
1159.88
1161.04
1162.76
1170.21
1178.53
1186.45
1189.82
1189.57
1183.98
1186.75
1185.16
1185.12
1198.47
1200.24
1197.14
1196.95
1193.34
1187.97
1183.85
1181.7
1180.52
1179.91
1179.99
1180.36
1146.51
1145.67
1144.79
1143.91
1143.07
1142.3
1141.59
1140.97
1140.53
1140.32
1140.32
1140.51
1140.88
1141.48
1142.25
1142.87
1143.73
1144.96
1150.84
1163.3
1172.98
1178.4
1179.11
1174.28
1167.24
1168.69
1164.28
1179.21
1176.87
1173.43
1172.72
1169.82
1167.03
1165.27
1163.98
1162.77
1161.75
1161.11
1160.99
1161.1
1127.26
1126.24
1125.16
1124.09
1123.17
1122.41
1121.64
1120.91
1120.51
1120.53
1120.85
1121.39
1122.17
1123.18
1124.24
1124.92
1125.94
1132
1142.88
1154.91
1160.79
1162.57
1158.6
1151.42
1150.39
1149.06
1154.09
1148.34
1147.78
1147.08
1146.05
1145.57
1145.11
1144.41
1143.53
1142.61
1141.78
1141.16
1140.97
1141
1108.02
1106.81
1105.45
1103.77
1102.65
1102.5
1101.65
1100.19
1099.87
1099.46
1100.38
1101.31
1102.42
1103.36
1103.66
1105.84
1110.8
1123.5
1134.84
1139.65
1140.08
1137.4
1132.92
1130.32
1129.83
1127.21
1123.47
1123.29
1122.78
1123.24
1123.69
1123.79
1123.57
1123.12
1122.53
1121.86
1121.19
1120.77
1121.28
1120.64
1089.04
1087.99
1086.7
1085.24
1086.4
1084.58
1084.1
1086.81
1084.93
1079.74
1079.78
1080.12
1080.37
1080.6
1081.35
1091.09
1101.74
1109.19
1113.47
1113.67
1108.64
1105.69
1105
1105.06
1103.52
1102.1
1100.96
1100.75
1101.22
1101.69
1101.97
1102.04
1101.95
1101.71
1101.36
1100.9
1100.37
1100.66
1100.28
1099.78
1071.82
1074.53
1074.08
1073.46
1072.25
1070.51
1068.98
1067.6
1065.4
1059.93
1059.43
1056.42
1056.47
1063.39
1071.98
1077.65
1082.69
1087.77
1090.51
1082.78
1077.24
1078.23
1080.96
1081.22
1080.08
1079.27
1079.08
1079.25
1079.58
1079.89
1080.14
1080.29
1080.33
1080.25
1080.06
1079.77
1079.38
1079.52
1079.13
1078.57
1062.72
1061.38
1055.78
1057.52
1053.76
1050.55
1052.4
1050.3
1042.69
1046.58
1039.03
1038.04
1047.66
1053.72
1057.54
1061.53
1064.86
1064.9
1062.43
1059.04
1059.19
1054.78
1056.25
1056.67
1056.49
1056.41
1056.58
1056.99
1057.47
1057.92
1058.28
1058.54
1058.69
1058.71
1058.62
1058.4
1058.07
1057.85
1057.95
1057.34
1037.88
1037.42
1036.87
1036.47
1035.03
1032.7
1032.4
1033.22
1034.63
1028.43
1021.4
1026.89
1034.99
1039.6
1042.36
1043.78
1040.71
1036.9
1036.85
1034.9
1035.06
1032.93
1032.96
1033.11
1033.08
1033.15
1033.63
1034.52
1035.4
1036.09
1036.5
1036.85
1037.09
1037.2
1037.18
1037.01
1036.69
1036.18
1036.79
1036
1021.48
1020.39
1019.44
1018.4
1017.14
1016.02
1015.8
1013.98
1006.87
1001.39
999.2
1006.11
1015.73
1020.32
1020.5
1017.33
1019.67
1013.56
1014.07
1016.65
1009.95
1009.64
1009.88
1010.12
1010.3
1010.86
1012.48
1013.3
1013.55
1014.42
1014.92
1015.31
1015.63
1015.83
1015.91
1015.85
1015.65
1015.32
1015.16
1014.52
1004.48
1003.42
1002.28
1000.99
999.531
997.977
995.701
991.02
989.487
987.361
985.531
984.242
989.952
997.626
998.754
996.008
995.921
992.269
1000.22
993.097
988.79
988.448
988.539
988.705
989.253
990.481
991.42
992.083
992.524
992.829
993.427
993.896
994.3
994.607
994.79
994.834
994.728
994.454
994.201
993.84
987.985
986.978
985.824
984.483
982.943
981.016
977.743
977.207
978.079
976.593
976.045
975.958
978.35
984.216
988.07
983.875
979.391
975.353
972.197
969.584
968.44
968.138
967.931
968.119
968.881
969.503
970.044
970.652
971.256
971.145
971.885
972.538
973.09
973.528
973.828
973.973
973.939
973.688
973.271
973.229
972.006
971.201
970.273
969.2
967.937
966.363
964.564
967.711
971.697
971.709
970.854
969.946
970.846
972.86
972.725
967.254
960.886
955.984
952.825
951.153
949.999
948.999
948.052
948.116
948.425
948.525
948.786
949.145
949.273
949.594
950.465
951.319
952.055
952.655
953.1
953.363
953.41
953.183
952.704
952.707
956.476
955.937
955.315
954.618
953.796
952.746
952.108
955.679
963.954
966.248
965.543
964.244
964.209
962.894
956.602
948.506
940.646
934.383
931.249
932.19
931.956
930.527
928.345
928.397
927.936
927.522
927.349
926.959
926.942
927.809
928.998
930.141
931.134
931.961
932.602
933.028
933.193
933.017
932.495
932.478
941.276
940.976
940.612
940.22
939.806
939.28
938.807
940.527
948.449
956.725
957.204
956.289
955.098
952.649
942.146
929.833
918.862
910.963
914.526
930.113
914.493
911.866
908.607
908.01
907.603
905.193
904.15
903.829
904.5
905.883
907.461
908.975
910.317
911.446
912.347
912.995
913.335
913.268
912.755
912.692
926.293
926.119
925.861
925.539
925.189
924.798
924.29
924.023
926.374
933.764
939.184
945.484
938.331
932.687
921.801
908.21
896.796
894.053
930.9
912.904
900.355
893.946
889.69
886.644
883.941
881.919
880.858
880.878
882.255
884.847
887.021
888.579
890
891.333
892.47
893.349
893.898
893.993
893.535
893.533
911.439
911.321
911.056
910.633
910.044
909.276
908.256
906.849
905.173
904.237
903.681
910.777
918.703
891.902
894.106
887.596
885.155
903.076
910.53
879.379
874.324
870.649
867.04
863.596
860.166
856.83
853.684
851.194
851.446
860.17
866.954
869.604
870.606
871.763
873.022
874.122
874.913
875.228
874.908
875.213
896.857
896.76
896.455
895.907
895.076
893.91
892.342
890.241
887.362
883.312
877.717
872.679
878.113
871.807
874.835
864.557
873.964
886.448
861.413
856.694
853.106
849.744
846.037
841.84
836.885
830.941
824.79
825.363
826.933
831.338
839.813
847.605
850.891
852.332
853.796
855.236
856.384
857.022
856.938
857.143
882.612
882.577
882.286
881.701
880.783
879.488
877.77
875.583
872.846
869.407
865.263
861.305
857.806
848.856
846.461
851.416
860.031
848.721
844.559
839.87
835.997
832.349
828.586
824.439
819.432
813.539
810.388
814.811
816.976
816.898
817
823.502
830.056
833.186
835.098
836.95
838.576
839.702
840.09
840.442
868.726
868.829
868.618
868.061
867.126
865.784
864.007
861.773
859.088
856.015
852.696
849.014
843.01
835.857
836.314
839.399
836.019
831.166
825.567
821.753
818.635
815.776
813.009
810.098
806.823
804.004
805.605
806.858
807.092
806.643
806.514
808.357
811.319
814.684
817.314
819.759
821.948
823.673
824.689
825.827
855.396
855.682
855.592
855.1
854.18
852.814
850.981
848.673
845.934
842.904
839.597
834.78
826.465
821.144
823.999
822.824
817.625
809.96
805.541
803.019
801.235
799.528
798.077
796.809
795.815
796.446
801.731
802.357
802.402
802.012
801.415
801.244
800.141
799.078
801.07
804.162
807.028
809.422
811.224
813.271
842.76
843.278
843.342
842.927
842.012
840.575
838.595
836.063
833.027
829.627
825.578
818.836
810.677
809.532
810.184
794.9
789.804
786.383
785.352
784.173
784.01
783.062
783.132
783.523
784.738
788.533
796.986
798.658
798.588
798.15
797.693
796.881
795.108
787.966
786.996
790.408
794.093
797.281
800.42
803.015
831.054
831.866
832.122
831.787
830.884
829.359
827.198
824.354
820.769
816.296
809.732
798.205
787.898
791.715
783.808
781.654
775.096
771.313
769.096
768.301
766.868
767.126
768.073
769.746
772.442
777.966
788.882
794.387
794.998
794.601
794.184
793.507
790.7
778.417
774.668
778.623
783.395
787.701
793.88
796.267
820.428
821.57
822.058
821.847
820.864
819.192
816.884
813.908
810.233
805.593
798.336
782.924
763.475
768.199
745.717
755.656
759.491
758.415
753.681
750.289
750.041
750.8
752.229
754.697
758.338
764.022
774.366
786.253
790.679
790.919
790.647
789.668
784.347
768.177
764.407
769.416
775.258
781.061
787.541
792.233
809.864
811.305
811.951
811.696
810.466
808.495
806.287
804.163
802.181
800.026
792.487
767.544
736.523
734.975
727.197
727.523
739.729
737.304
723.865
718
724.833
730.253
733.198
736.462
741.306
747.577
756.168
768.664
780.749
785.753
787.342
783.359
769.274
755.557
756.306
762.313
768.624
775.476
782.803
788.827
808.688
812.337
814.37
814.451
812.076
808.07
804.994
804.341
803.819
796.513
768.215
736.599
725.294
722.726
721.788
719.338
714.242
710.48
709.782
710.026
710.425
710.525
712.009
713.844
718.63
725.775
733.742
742.852
753.542
761.575
774.192
759.773
744.099
743.291
748.735
755.425
762.42
770.447
779.164
786.494
824.739
829.858
833.092
834.075
832.421
828.113
820.599
810.855
792.016
761.06
734.157
720.688
716.948
717.164
715.168
712.575
711.148
710.435
710.19
710.123
709.882
708.746
707.628
703.682
699.42
701.645
709.235
717.658
725.406
731.871
734.004
732.981
733.438
737.365
742.986
749.409
756.858
765.787
775.836
784.223
821.534
825.807
828.389
828.922
827.004
821.747
813.045
798.972
778.29
753.373
729.277
711.655
709.032
711.819
712.681
710.999
709.888
709.605
709.44
709.245
708.967
708.797
708.585
707.833
702.693
690.757
687.555
693.986
702.41
709.618
715.346
720.019
724.586
729.76
735.78
742.676
750.792
760.585
771.732
780.956
774.074
775.662
776.135
775.252
773.547
770.176
762.159
749.391
734.678
718.916
704.752
695.888
693.78
696.36
698.713
702.882
707.547
708.623
708.792
708.727
708.526
708.33
708.141
708.051
707.764
700.989
680.59
673.227
681.154
691.436
700.339
708.58
715.487
721.418
727.792
735.123
743.657
754.133
766.116
776.212
744.239
747.79
749.215
748.45
745.428
739.797
731.272
720.511
708.923
697.854
688.361
681.038
675.675
671.76
670.339
675.093
685.256
698.38
707.08
707.914
708.013
707.922
707.774
707.673
707.618
707.431
691.195
661.491
660.315
673.468
686.359
698.729
707.845
713.39
718.721
725.881
734.633
745.527
758.119
768.952
726.272
731.428
733.608
732.809
729.111
722.605
713.507
702.515
690.706
679.198
668.901
660.232
653.568
648.608
645.379
644.156
646.61
659.887
682.361
699.636
706.797
707.161
707.186
707.147
707.098
706.6
697.7
657.392
643.402
655.687
671.914
704.837
708.981
703.48
706.234
713.413
722.726
733.983
746.912
757.877
699.427
706.022
708.747
707.818
703.461
696.019
685.994
674.124
661.343
648.652
636.975
627.165
620.263
615.691
613.281
613.256
616.271
622.309
634.143
656.895
685.735
701.659
706.215
706.192
706.108
704.867
691.758
646.12
635.223
645.093
664.09
700.192
709.093
694.545
692.286
697.901
707.725
719.346
732.203
742.987
663.213
671.941
675.785
675.192
670.548
662.311
651.05
637.474
622.461
607.098
592.66
580.487
571.861
567.105
566.017
568.105
573.528
582.083
594.791
611.822
635.477
667.459
695.273
703.456
703.905
691.328
662.491
632.531
629.423
637.166
655.942
681.308
694.227
687.035
678.577
679.202
688.884
701.281
714.107
724.555
619.906
630.53
635.402
635.134
630.212
621.071
608.159
592.022
573.522
554.115
535.576
519.575
507.822
501.648
501.119
505.638
513.614
525.612
540.392
557.506
577.109
600.763
629.055
650.981
668.511
634.962
617.916
612.403
615.439
621.833
638.899
659.687
674.435
671.746
662.25
659.015
667.421