/*--------------------------------*- C++ -*----------------------------------*\
  =========                 |
  \\      /  F ield         | OpenFOAM: The Open Source CFD Toolbox
   \\    /   O peration     | Website:  https://openfoam.org
    \\  /    A nd           | Version:  8
     \\/     M anipulation  |
\*---------------------------------------------------------------------------*/
FoamFile
{
    version     2.0;
    format      ascii;
    class       surfaceScalarField;
    location    "4.65";
    object      phi;
}
// * * * * * * * * * * * * * * * * * * * * * * * * * * * * * * * * * * * * * //

dimensions      [0 3 -1 0 0 0 0];

internalField   nonuniform List<scalar> 
18095
(
1.58502e-07
-9.65437e-07
8.06936e-07
1.65415e-07
-1.24825e-06
1.24134e-06
1.22236e-07
-1.24225e-06
1.28543e-06
6.53803e-08
-1.26347e-06
1.32033e-06
8.27514e-11
-1.28047e-06
1.34577e-06
-6.52296e-08
-1.28049e-06
1.3458e-06
-1.22121e-07
-1.26351e-06
1.32041e-06
-1.65341e-07
-1.24229e-06
1.28551e-06
-1.58472e-07
-1.24829e-06
1.24142e-06
-9.6553e-07
8.07058e-07
1.11058e-07
-1.0765e-06
9.94404e-08
-1.23664e-06
7.28838e-08
-1.21569e-06
4.00752e-08
-1.23066e-06
5.51548e-11
-1.24045e-06
-3.99733e-08
-1.24046e-06
-7.28028e-08
-1.23068e-06
-9.93792e-08
-1.21571e-06
-1.11024e-07
-1.23665e-06
-1.07655e-06
6.71864e-08
-1.14368e-06
5.27699e-08
-1.22222e-06
4.2157e-08
-1.20508e-06
2.38857e-08
-1.21239e-06
3.47476e-11
-1.2166e-06
-2.38207e-08
-1.2166e-06
-4.21046e-08
-1.2124e-06
-5.27297e-08
-1.20509e-06
-6.71568e-08
-1.22222e-06
-1.14371e-06
3.96372e-08
-1.18332e-06
2.66295e-08
-1.20921e-06
2.20229e-08
-1.20047e-06
1.25396e-08
-1.20291e-06
1.92207e-11
-1.20408e-06
-1.25035e-08
-1.20408e-06
-2.19932e-08
-1.20291e-06
-2.66073e-08
-1.20048e-06
-3.96176e-08
-1.20921e-06
-1.18333e-06
1.66803e-08
7.46792e-09
6.99538e-09
4.08727e-09
6.26361e-12
-4.07544e-09
-6.98582e-09
-7.46147e-09
-1.66724e-08
-1.74467e-07
-1.16353e-06
1.338e-06
-2.18541e-07
-1.21616e-06
1.26024e-06
-1.64514e-07
-1.21265e-06
1.15862e-06
-8.63205e-08
-1.20388e-06
1.12569e-06
9.06994e-10
-1.20245e-06
1.11522e-06
8.80943e-08
-1.20258e-06
1.1154e-06
1.66111e-07
-1.20425e-06
1.12623e-06
2.20001e-07
-1.21319e-06
1.15929e-06
1.75806e-07
-1.21691e-06
1.26111e-06
-1.1644e-06
1.34021e-06
-9.28019e-08
-1.07073e-06
-9.53265e-08
-1.21364e-06
-7.88666e-08
-1.22911e-06
-4.37538e-08
-1.23899e-06
5.11922e-10
-1.24671e-06
4.47358e-08
-1.24681e-06
7.97444e-08
-1.23926e-06
9.60459e-08
-1.22949e-06
9.32109e-08
-1.21408e-06
-1.07119e-06
-5.78855e-08
-1.01284e-06
-5.50094e-08
-1.21651e-06
-4.6294e-08
-1.23782e-06
-2.68581e-08
-1.25843e-06
3.08441e-10
-1.27388e-06
2.74453e-08
-1.27395e-06
4.67973e-08
-1.25861e-06
5.53762e-08
-1.23807e-06
5.80639e-08
-1.21677e-06
-1.01313e-06
-7.4749e-08
-9.38093e-07
-6.18861e-08
-1.22938e-06
-4.84617e-08
-1.25125e-06
-2.76161e-08
-1.27927e-06
1.91745e-10
-1.30169e-06
2.79783e-08
-1.30173e-06
4.87626e-08
-1.2794e-06
6.20892e-08
-1.25139e-06
7.48435e-08
-1.22952e-06
-9.38282e-07
-1.31157e-07
-1.19192e-07
-8.5013e-08
-4.39599e-08
1.24625e-10
4.41938e-08
8.52043e-08
1.19323e-07
1.31224e-07
-2.51372e-08
-9.17285e-07
9.42423e-07
1.64582e-08
-1.33924e-06
1.29764e-06
1.85289e-08
-1.27637e-06
1.2743e-06
1.31711e-08
-1.22737e-06
1.23273e-06
7.858e-09
-1.22401e-06
1.22932e-06
2.59838e-09
-1.22509e-06
1.23035e-06
-3.53746e-09
-1.22732e-06
1.23345e-06
3.38283e-09
-1.27415e-06
1.26723e-06
5.46703e-08
-1.34368e-06
1.29239e-06
-9.45487e-07
1.00016e-06
1.96256e-08
-9.36911e-07
2.73175e-08
-1.34693e-06
1.89524e-08
-1.26801e-06
1.25849e-08
-1.221e-06
5.92214e-09
-1.21735e-06
-9.99771e-10
-1.21817e-06
-7.37737e-09
-1.22094e-06
-1.27246e-08
-1.2688e-06
-7.3303e-09
-1.34907e-06
-9.52817e-07
3.2196e-08
-9.69107e-07
2.34783e-08
-1.33821e-06
1.45761e-08
-1.2591e-06
9.65513e-09
-1.21608e-06
3.6953e-09
-1.21139e-06
-2.89185e-09
-1.21159e-06
-7.42977e-09
-1.2164e-06
-1.63022e-08
-1.25993e-06
-2.55726e-08
-1.3398e-06
-9.78389e-07
8.20066e-08
-1.05111e-06
5.601e-08
-1.31222e-06
3.68093e-08
-1.2399e-06
2.33979e-08
-1.20267e-06
2.37302e-09
-1.19036e-06
-1.86697e-08
-1.19054e-06
-3.15656e-08
-1.20351e-06
-5.0527e-08
-1.24097e-06
-7.73925e-08
-1.31293e-06
-1.05578e-06
2.86883e-07
2.34903e-07
1.53621e-07
7.66364e-08
1.49339e-09
-7.36526e-08
-1.50925e-07
-2.326e-07
-2.84425e-07
3.58393e-08
3.46982e-09
-3.93092e-08
3.23747e-08
3.46524e-09
2.89229e-08
3.45183e-09
2.54936e-08
3.42939e-09
2.20995e-08
3.39415e-09
1.87502e-08
3.34931e-09
1.54541e-08
3.29605e-09
1.22232e-08
3.23096e-09
9.06721e-09
3.1559e-09
3.07099e-09
5.99615e-09
3.23088e-08
7.20118e-09
-3.60399e-08
2.85616e-08
7.21267e-09
2.48175e-08
7.19591e-09
2.10942e-08
7.15274e-09
1.7405e-08
7.08339e-09
1.37639e-08
6.99034e-09
1.01894e-08
6.87051e-09
6.69519e-09
6.72508e-09
3.29541e-09
6.55558e-09
6.36306e-09
3.2402e-12
2.3794e-08
1.08369e-08
-2.74296e-08
2.0153e-08
1.08536e-08
1.65216e-08
1.08273e-08
1.29148e-08
1.07594e-08
9.34668e-09
1.06515e-08
5.83328e-09
1.05037e-08
2.38739e-09
1.03164e-08
-9.77283e-10
1.00897e-08
-4.24835e-09
9.8266e-09
9.52785e-09
-7.41318e-09
1.48611e-08
1.43981e-08
-1.84224e-08
1.13051e-08
1.44094e-08
7.76664e-09
1.43657e-08
4.25841e-09
1.42676e-08
7.94545e-10
1.41154e-08
-2.61261e-09
1.39109e-08
-5.95125e-09
1.3655e-08
-9.2101e-09
1.33486e-08
-1.23771e-08
1.29936e-08
1.25916e-08
-1.54408e-08
5.62947e-09
1.79153e-08
-9.14672e-09
2.12492e-09
1.79137e-08
-1.35492e-09
1.78456e-08
-4.79917e-09
1.77119e-08
-8.19721e-09
1.75135e-08
-1.15381e-08
1.72518e-08
-1.48109e-08
1.69279e-08
-1.80058e-08
1.65435e-08
-2.11122e-08
1.61001e-08
1.55995e-08
-2.412e-08
-3.94505e-09
2.1412e-08
4.48224e-10
-7.42369e-09
2.13925e-08
-1.08748e-08
2.12967e-08
-1.42888e-08
2.1126e-08
-1.76563e-08
2.08812e-08
-2.09681e-08
2.05637e-08
-2.42152e-08
2.01752e-08
-2.73889e-08
1.97173e-08
-3.04804e-08
1.91918e-08
1.86002e-08
-3.34809e-08
-1.38973e-08
2.49112e-08
1.03982e-08
-1.73767e-08
2.48722e-08
-2.08286e-08
2.47488e-08
-2.42448e-08
2.45423e-08
-2.76177e-08
2.42542e-08
-3.09401e-08
2.38862e-08
-3.42049e-08
2.34401e-08
-3.74051e-08
2.29178e-08
-4.05339e-08
2.23208e-08
2.16509e-08
-4.35844e-08
-2.42725e-08
2.84388e-08
2.0745e-08
-2.77818e-08
2.83818e-08
-3.12673e-08
2.82344e-08
-3.47227e-08
2.79978e-08
-3.81424e-08
2.76741e-08
-4.15216e-08
2.72655e-08
-4.48557e-08
2.67744e-08
-4.81404e-08
2.62028e-08
-5.13716e-08
2.55523e-08
2.48242e-08
-5.45447e-08
-3.51365e-08
3.20258e-08
3.15496e-08
-3.87115e-08
3.19569e-08
-4.22705e-08
3.17934e-08
-4.58098e-08
3.15371e-08
-4.93264e-08
3.11907e-08
-5.28186e-08
3.07579e-08
-5.6286e-08
3.0242e-08
-5.97283e-08
2.96452e-08
-6.3145e-08
2.89692e-08
2.82148e-08
-6.65354e-08
-4.6584e-08
3.5711e-08
4.28988e-08
-5.02679e-08
3.56406e-08
-5.39489e-08
3.54745e-08
-5.76261e-08
3.52143e-08
-6.12994e-08
3.48641e-08
-6.4972e-08
3.44306e-08
-6.86502e-08
3.39203e-08
-7.23405e-08
3.33356e-08
-7.60478e-08
3.26766e-08
3.19456e-08
-7.97785e-08
-5.87373e-08
3.95401e-08
5.49082e-08
-6.25795e-08
3.94826e-08
-6.64382e-08
3.93332e-08
-7.03148e-08
3.90909e-08
-7.42121e-08
3.87614e-08
-7.81391e-08
3.83575e-08
-8.2114e-08
3.78952e-08
-8.61541e-08
3.73757e-08
-9.02779e-08
3.68005e-08
3.61677e-08
-9.44999e-08
-7.17438e-08
4.35638e-08
6.772e-08
-7.57907e-08
4.35295e-08
-7.98791e-08
4.34215e-08
-8.40176e-08
4.32293e-08
-8.81983e-08
4.29421e-08
-9.24504e-08
4.26095e-08
-9.68105e-08
4.22553e-08
-1.01312e-07
4.18774e-08
-1.05991e-07
4.1479e-08
4.10553e-08
-1.10878e-07
-8.57858e-08
4.78617e-08
8.14878e-08
-9.00862e-08
4.783e-08
-9.44207e-08
4.7756e-08
-9.88149e-08
4.76234e-08
-1.03314e-07
4.74413e-08
-1.07958e-07
4.72528e-08
-1.12789e-07
4.70869e-08
-1.17861e-07
4.69495e-08
-1.23231e-07
4.68489e-08
4.67804e-08
-1.28956e-07
-1.00805e-07
5.23703e-08
9.62964e-08
-1.0539e-07
5.24148e-08
-1.10015e-07
5.23818e-08
-1.14724e-07
5.23323e-08
-1.196e-07
5.23171e-08
-1.24681e-07
5.23338e-08
-1.30036e-07
5.24414e-08
-1.35748e-07
5.2661e-08
-1.419e-07
5.30013e-08
5.347e-08
-1.4859e-07
-1.16999e-07
5.7204e-08
1.12165e-07
-1.21863e-07
5.7279e-08
-1.2682e-07
5.7339e-08
-1.31898e-07
5.74096e-08
-1.37135e-07
5.75542e-08
-1.42634e-07
5.78326e-08
-1.48491e-07
5.82984e-08
-1.54819e-07
5.89895e-08
-1.61754e-07
5.9936e-08
6.11451e-08
-1.69429e-07
-1.34259e-07
6.24237e-08
1.29039e-07
-1.39493e-07
6.25132e-08
-1.448e-07
6.26461e-08
-1.50224e-07
6.28334e-08
-1.5581e-07
6.31404e-08
-1.61684e-07
6.37068e-08
-1.67973e-07
6.45872e-08
-1.74837e-07
6.58528e-08
-1.8246e-07
6.75593e-08
6.97246e-08
-1.9104e-07
-1.52679e-07
6.80416e-08
1.47061e-07
-1.58305e-07
6.81397e-08
-1.63945e-07
6.82851e-08
-1.69658e-07
6.85471e-08
-1.7555e-07
6.90322e-08
-1.81723e-07
6.98796e-08
-1.88342e-07
7.12058e-08
-1.95606e-07
7.31167e-08
-2.03751e-07
7.57045e-08
7.9039e-08
-2.13065e-07
-1.72072e-07
7.41783e-08
1.65936e-07
-1.7816e-07
7.4227e-08
-1.84185e-07
7.43104e-08
-1.90205e-07
7.45666e-08
-1.96311e-07
7.51387e-08
-2.0266e-07
7.62282e-08
-2.09447e-07
7.79928e-08
-2.16891e-07
8.05603e-08
-2.25252e-07
8.40653e-08
8.86082e-08
-2.34821e-07
-1.92114e-07
8.09923e-08
1.853e-07
-1.98764e-07
8.0876e-08
-2.05227e-07
8.07733e-08
-2.11518e-07
8.08582e-08
-2.17745e-07
8.13652e-08
-2.24104e-07
8.25871e-08
-2.30882e-07
8.47705e-08
-2.38358e-07
8.80365e-08
-2.46673e-07
9.238e-08
9.81375e-08
-2.56202e-07
-2.12762e-07
8.85677e-08
2.05186e-07
-2.19981e-07
8.80955e-08
-2.2675e-07
8.75417e-08
-2.33152e-07
8.72607e-08
-2.39154e-07
8.7367e-08
-2.45078e-07
8.85104e-08
-2.51278e-07
9.09709e-08
-2.58121e-07
9.48792e-08
-2.66064e-07
1.00323e-07
1.06772e-07
-2.74699e-07
-2.33547e-07
9.70487e-08
2.25066e-07
-2.41256e-07
9.5804e-08
-2.48182e-07
9.44677e-08
-2.54213e-07
9.32921e-08
-2.59872e-07
9.30264e-08
-2.65212e-07
9.38502e-08
-2.70526e-07
9.62851e-08
-2.76242e-07
1.00595e-07
-2.82102e-07
1.06183e-07
1.13371e-07
-2.88702e-07
-2.53763e-07
1.06789e-07
2.44022e-07
-2.6167e-07
1.03712e-07
-2.67503e-07
1.00301e-07
-2.72408e-07
9.81969e-08
-2.76727e-07
9.73456e-08
-2.80766e-07
9.78894e-08
-2.84602e-07
1.00121e-07
-2.87988e-07
1.03981e-07
-2.90995e-07
1.09189e-07
1.17545e-07
-2.95169e-07
-2.70451e-07
1.17568e-07
2.59673e-07
-2.75692e-07
1.08952e-07
-2.79625e-07
1.04234e-07
-2.82707e-07
1.01279e-07
-2.85271e-07
9.99093e-08
-2.87525e-07
1.00143e-07
-2.89426e-07
1.02023e-07
-2.91132e-07
1.05687e-07
-2.9319e-07
1.11248e-07
1.18605e-07
-2.9425e-07
-2.74291e-07
1.21194e-07
2.70664e-07
-2.77945e-07
1.12607e-07
-2.80642e-07
1.06932e-07
-2.82691e-07
1.03328e-07
-2.84296e-07
1.01515e-07
-2.85511e-07
1.01358e-07
-2.86315e-07
1.02827e-07
-2.86553e-07
1.05924e-07
-2.85944e-07
1.10639e-07
1.16925e-07
-2.84264e-07
-2.7282e-07
1.20135e-07
2.73879e-07
-2.73138e-07
1.12926e-07
-2.73884e-07
1.07677e-07
-2.74658e-07
1.04103e-07
-2.75238e-07
1.02095e-07
-2.75445e-07
1.01565e-07
-2.7508e-07
1.02463e-07
-2.73911e-07
1.04755e-07
-2.71678e-07
1.08406e-07
1.13365e-07
-2.68118e-07
-2.63414e-07
1.17757e-07
2.65792e-07
-2.62235e-07
1.11746e-07
-2.61588e-07
1.0703e-07
-2.61088e-07
1.03603e-07
-2.60444e-07
1.0145e-07
-2.59426e-07
1.00546e-07
-2.57821e-07
1.00858e-07
-2.55421e-07
1.02355e-07
-2.52007e-07
1.04992e-07
1.08706e-07
-2.47348e-07
-2.51551e-07
1.14199e-07
2.55109e-07
-2.48902e-07
1.09097e-07
-2.46653e-07
1.04781e-07
-2.44486e-07
1.01437e-07
-2.42155e-07
9.91194e-08
-2.39462e-07
9.78534e-08
-2.36241e-07
9.76362e-08
-2.32333e-07
9.84468e-08
-2.27585e-07
1.00244e-07
1.02963e-07
-2.21842e-07
-2.39687e-07
1.09403e-07
2.44483e-07
-2.35226e-07
1.04636e-07
-2.30932e-07
1.00487e-07
-2.26605e-07
9.71094e-08
-2.22074e-07
9.45882e-08
-2.17185e-07
9.29645e-08
-2.11794e-07
9.22449e-08
-2.05755e-07
9.2408e-08
-1.98914e-07
9.34035e-08
9.51536e-08
-1.91105e-07
-2.28878e-07
1.02347e-07
2.35934e-07
-2.22026e-07
9.77833e-08
-2.15282e-07
9.37431e-08
-2.08523e-07
9.03506e-08
-2.01619e-07
8.76839e-08
-1.94434e-07
8.57798e-08
-1.86835e-07
8.46455e-08
-1.78683e-07
8.4256e-08
-1.69833e-07
8.45537e-08
8.54509e-08
-1.6013e-07
-2.15865e-07
9.36138e-08
2.24598e-07
-2.07187e-07
8.91054e-08
-1.98553e-07
8.51084e-08
-1.899e-07
8.16985e-08
-1.81144e-07
7.8927e-08
-1.72184e-07
7.68202e-08
-1.62918e-07
7.53798e-08
-1.53243e-07
7.45814e-08
-1.4306e-07
7.43706e-08
7.46641e-08
-1.32273e-07
-1.99842e-07
8.40898e-08
2.09365e-07
-1.9026e-07
7.95239e-08
-1.80639e-07
7.54867e-08
-1.70954e-07
7.20143e-08
-1.61163e-07
6.91353e-08
-1.51209e-07
6.68662e-08
-1.41035e-07
6.52064e-08
-1.30589e-07
6.4135e-08
-1.19827e-07
6.36086e-08
6.35575e-08
-1.0872e-07
-1.8202e-07
7.45541e-08
1.91555e-07
-1.72355e-07
6.98594e-08
-1.62573e-07
6.57046e-08
-1.52667e-07
6.21086e-08
-1.42624e-07
5.90915e-08
-1.32425e-07
5.66681e-08
-1.22062e-07
5.48429e-08
-1.11532e-07
5.36053e-08
-1.00849e-07
5.29255e-08
5.27503e-08
-9.00421e-08
-1.64333e-07
6.56434e-08
1.73244e-07
-1.55215e-07
6.07414e-08
-1.459e-07
5.63896e-08
-1.36395e-07
5.26033e-08
-1.26708e-07
4.94043e-08
-1.16854e-07
4.68145e-08
-1.06863e-07
4.48518e-08
-9.67806e-08
4.35231e-08
-8.66726e-08
4.28175e-08
4.26981e-08
-7.66204e-08
-1.48843e-07
5.76958e-08
1.5679e-07
-1.40636e-07
5.25353e-08
-1.3218e-07
4.79329e-08
-1.23484e-07
4.39077e-08
-1.14569e-07
4.04888e-08
-1.05466e-07
3.77123e-08
-9.62345e-08
3.56197e-08
-8.69594e-08
3.4248e-08
-7.77565e-08
3.36146e-08
3.36989e-08
-6.87572e-08
-1.37038e-07
5.08373e-08
1.43896e-07
-1.29921e-07
4.54182e-08
-1.2255e-07
4.05617e-08
-1.14933e-07
3.62907e-08
-1.07082e-07
3.26383e-08
-9.90257e-08
2.96557e-08
-9.08279e-08
2.74219e-08
-8.26104e-08
2.60306e-08
-7.45421e-08
2.55464e-08
2.59951e-08
-6.68382e-08
-1.29578e-07
4.50667e-08
1.35349e-07
-1.23622e-07
3.94614e-08
-1.17488e-07
3.44281e-08
-1.11182e-07
2.99848e-08
-1.0469e-07
2.6146e-08
-9.79932e-08
2.2959e-08
-9.11346e-08
2.05633e-08
-8.42676e-08
1.91635e-08
-7.76072e-08
1.88861e-08
1.97737e-08
-7.13857e-08
-1.26196e-07
4.03044e-08
1.30958e-07
-1.21402e-07
3.46669e-08
-1.16614e-07
2.96402e-08
-1.11867e-07
2.52384e-08
-1.07116e-07
2.13946e-08
-1.02231e-07
1.80738e-08
-9.7193e-08
1.55255e-08
-9.20319e-08
1.40025e-08
-8.71335e-08
1.39878e-08
1.47921e-08
-8.21517e-08
-1.25825e-07
3.64578e-08
1.29672e-07
-1.22146e-07
3.09879e-08
-1.18644e-07
2.61379e-08
-1.15482e-07
2.20767e-08
-1.12727e-07
1.86395e-08
-1.10083e-07
1.54297e-08
-1.07133e-07
1.25755e-08
-1.04598e-07
1.14676e-08
-1.01377e-07
1.0767e-08
1.15517e-08
-9.81363e-08
-1.26848e-07
3.34642e-08
1.29842e-07
-1.24225e-07
2.83645e-08
-1.21891e-07
2.38043e-08
-1.19576e-07
1.97614e-08
-1.17259e-07
1.63225e-08
-1.14916e-07
1.30867e-08
-1.12868e-07
1.05275e-08
-1.10315e-07
8.91557e-09
-1.07922e-07
8.37341e-09
8.38778e-09
-1.04758e-07
-1.27102e-07
3.10108e-08
1.29556e-07
-1.25015e-07
2.62776e-08
-1.23298e-07
2.20874e-08
-1.21788e-07
1.8252e-08
-1.20521e-07
1.50554e-08
-1.18992e-07
1.15572e-08
-1.17601e-07
9.1362e-09
-1.16164e-07
7.4793e-09
-1.14977e-07
7.18584e-09
7.51304e-09
-1.14102e-07
-1.26122e-07
2.91132e-08
1.2802e-07
-1.24403e-07
2.4559e-08
-1.22313e-07
1.99974e-08
-1.20175e-07
1.61132e-08
-1.19133e-07
1.40142e-08
-1.19206e-07
1.163e-08
-1.19507e-07
9.43672e-09
-1.1991e-07
7.88268e-09
-1.20099e-07
7.37478e-09
7.86885e-09
-1.20455e-07
-1.21725e-07
2.73651e-08
1.23474e-07
-1.20096e-07
2.29293e-08
-1.19226e-07
1.91282e-08
-1.19219e-07
1.61062e-08
-1.188e-07
1.35945e-08
-1.18778e-07
1.16086e-08
-1.19344e-07
1.00023e-08
-1.20441e-07
8.98017e-09
-1.21798e-07
8.73184e-09
9.3668e-09
-1.23296e-07
-1.15898e-07
2.60131e-08
1.1725e-07
-1.15018e-07
2.2049e-08
-1.14568e-07
1.8679e-08
-1.14391e-07
1.59285e-08
-1.14583e-07
1.37872e-08
-1.15165e-07
1.21898e-08
-1.16289e-07
1.11268e-08
-1.17935e-07
1.0626e-08
-1.20001e-07
1.0798e-08
1.17531e-08
-1.22388e-07
-1.07616e-07
2.47464e-08
1.08883e-07
-1.06727e-07
2.11601e-08
-1.06235e-07
1.8187e-08
-1.06157e-07
1.58509e-08
-1.06534e-07
1.41636e-08
-1.07473e-07
1.31296e-08
-1.09005e-07
1.26582e-08
-1.11031e-07
1.26522e-08
-1.13492e-07
1.32591e-08
1.46283e-08
-1.16367e-07
-9.71264e-08
2.32524e-08
9.86205e-08
-9.59909e-08
2.00248e-08
-9.52508e-08
1.7447e-08
-9.49467e-08
1.55467e-08
-9.51269e-08
1.43438e-08
-9.58786e-08
1.38814e-08
-9.73416e-08
1.41213e-08
-9.92238e-08
1.45345e-08
-1.01521e-07
1.5556e-08
1.73589e-08
-1.04251e-07
-8.50171e-08
2.13187e-08
8.69509e-08
-8.34209e-08
1.84288e-08
-8.2198e-08
1.62242e-08
-8.13816e-08
1.47304e-08
-8.10219e-08
1.39843e-08
-8.11155e-08
1.3975e-08
-8.16001e-08
1.46059e-08
-8.2708e-08
1.56422e-08
-8.43033e-08
1.71512e-08
1.92825e-08
-8.62271e-08
-7.18359e-08
1.87567e-08
7.43979e-08
-6.95808e-08
1.61741e-08
-6.76625e-08
1.43058e-08
-6.60974e-08
1.31654e-08
-6.49019e-08
1.27888e-08
-6.4068e-08
1.31412e-08
-6.35172e-08
1.40551e-08
-6.33629e-08
1.54878e-08
-6.3626e-08
1.74142e-08
1.98041e-08
-6.41477e-08
-5.81877e-08
1.53954e-08
6.15491e-08
-5.50986e-08
1.30852e-08
-5.22924e-08
1.14996e-08
-4.97833e-08
1.06562e-08
-4.75342e-08
1.05397e-08
-4.55174e-08
1.11244e-08
-4.37006e-08
1.22382e-08
-4.21484e-08
1.39354e-08
-4.08925e-08
1.61582e-08
1.874e-08
-3.98283e-08
-4.48405e-08
1.1086e-08
4.915e-08
-4.07613e-08
9.00589e-09
-3.69401e-08
7.67832e-09
-3.33615e-08
7.07758e-09
-2.99736e-08
7.15177e-09
-2.67234e-08
7.87417e-09
-2.35671e-08
9.08176e-09
-2.0538e-08
1.09062e-08
-1.77223e-08
1.33425e-08
1.60498e-08
-1.5032e-08
-3.28598e-08
5.72727e-09
3.82185e-08
-2.76857e-08
3.83168e-09
-2.27235e-08
2.71618e-09
-1.79561e-08
2.31038e-09
-1.33304e-08
2.52621e-09
-8.77713e-09
3.32088e-09
-4.33965e-09
4.64404e-09
6.5822e-11
6.50056e-09
4.56539e-09
8.84293e-09
1.15762e-08
9.03913e-09
-2.36385e-08
-7.03699e-10
3.00694e-08
-1.73607e-08
-2.44625e-09
-1.12587e-08
-3.38585e-09
-5.26795e-09
-3.68043e-09
7.08761e-10
-3.45049e-09
6.7543e-09
-2.72453e-09
1.28708e-08
-1.47245e-09
1.90805e-08
2.90958e-10
2.54131e-08
2.51027e-09
5.10264e-09
3.1887e-08
-1.89431e-08
-8.22746e-09
2.64668e-08
-1.15449e-08
-9.84477e-09
-4.32271e-09
-1.06081e-08
2.8708e-09
-1.08739e-08
1.03148e-08
-1.08947e-08
1.81368e-08
-1.05467e-08
2.6334e-08
-9.66985e-09
3.48265e-08
-8.20142e-09
4.35818e-08
-6.24499e-09
-3.91498e-09
5.25996e-08
-2.13922e-08
-1.68124e-08
2.99771e-08
-1.28341e-08
-1.84031e-08
-4.50511e-09
-1.8937e-08
3.96488e-09
-1.93438e-08
1.31553e-08
-2.0085e-08
2.33904e-08
-2.07821e-08
3.43392e-08
-2.06186e-08
4.58037e-08
-1.96661e-08
5.77298e-08
-1.81709e-08
-1.63011e-08
7.01157e-08
-3.51389e-08
-2.6123e-08
4.44494e-08
-2.53331e-08
-2.82084e-08
-1.52152e-08
-2.90549e-08
-5.31444e-09
-2.92446e-08
6.74746e-09
-3.21467e-08
2.03873e-08
-3.44217e-08
3.47932e-08
-3.50242e-08
5.00173e-08
-3.48903e-08
6.61343e-08
-3.42878e-08
-3.33328e-08
8.31658e-08
-6.54684e-08
-3.49344e-08
7.42799e-08
-5.48653e-08
-3.88115e-08
-4.20862e-08
-4.18339e-08
-2.62147e-08
-4.51159e-08
-1.01407e-08
-4.82205e-08
6.34995e-09
-5.09123e-08
2.40569e-08
-5.27311e-08
4.36221e-08
-5.44555e-08
6.53176e-08
-5.59834e-08
-5.70558e-08
8.90405e-08
-1.10257e-07
-4.35175e-08
1.1884e-07
-9.86476e-08
-5.0421e-08
-8.3651e-08
-5.68303e-08
-6.72208e-08
-6.15457e-08
-5.02656e-08
-6.51755e-08
-3.19601e-08
-6.92177e-08
-1.09038e-08
-7.37873e-08
1.48117e-08
-8.01709e-08
4.53135e-08
-8.64854e-08
-9.18616e-08
8.01192e-08
-1.78614e-07
-4.71615e-08
1.82258e-07
-1.72068e-07
-5.69668e-08
-1.61789e-07
-6.7109e-08
-1.48918e-07
-7.44166e-08
-1.33799e-07
-8.02941e-08
-1.13217e-07
-8.98002e-08
-8.42966e-08
-1.02707e-07
-4.27979e-08
-1.2167e-07
5.80266e-09
-1.35086e-07
-1.47857e-07
6.17979e-08
-2.78871e-07
-4.07995e-08
2.72509e-07
-2.86512e-07
-4.93257e-08
-2.82068e-07
-7.15532e-08
-2.68015e-07
-8.8469e-08
-2.39802e-07
-1.08507e-07
-1.90865e-07
-1.38736e-07
-1.25337e-07
-1.68235e-07
-5.76458e-08
-1.8936e-07
1.97753e-08
-2.12508e-07
-2.31957e-07
1.03875e-07
-3.67563e-07
-3.98358e-08
3.66599e-07
-3.42357e-07
-7.45316e-08
-3.11462e-07
-1.02447e-07
-2.65436e-07
-1.34495e-07
-2.05029e-07
-1.68914e-07
-1.38427e-07
-2.05337e-07
-6.78876e-08
-2.38774e-07
1.06671e-08
-2.67914e-07
9.15072e-08
-2.93348e-07
-3.1429e-07
1.7384e-07
-3.54414e-07
-5.8862e-08
3.7344e-07
-3.287e-07
-1.00245e-07
-2.9028e-07
-1.40867e-07
-2.44026e-07
-1.80749e-07
-1.90392e-07
-2.22547e-07
-1.30838e-07
-2.64892e-07
-6.48282e-08
-3.04785e-07
7.65596e-09
-3.40399e-07
8.51108e-08
-3.70803e-07
-3.95404e-07
1.66224e-07
-3.66541e-07
-7.40314e-08
3.8171e-07
-3.46226e-07
-1.2056e-07
-3.1831e-07
-1.68783e-07
-2.80028e-07
-2.1903e-07
-2.31593e-07
-2.70981e-07
-1.7369e-07
-3.22794e-07
-1.06688e-07
-3.71787e-07
-3.14648e-08
-4.15622e-07
5.0453e-08
-4.52721e-07
-4.82261e-07
1.37312e-07
-3.86536e-07
-7.75344e-08
3.90039e-07
-3.77951e-07
-1.29146e-07
-3.61115e-07
-1.85619e-07
-3.32996e-07
-2.47149e-07
-2.91564e-07
-3.12413e-07
-2.35986e-07
-3.78371e-07
-1.66784e-07
-4.40989e-07
-8.58429e-08
-4.96565e-07
4.01435e-09
-5.42578e-07
-5.78018e-07
9.97703e-08
-3.82159e-07
-7.26101e-08
3.77235e-07
-3.84476e-07
-1.26828e-07
-3.81157e-07
-1.88938e-07
-3.67568e-07
-2.60738e-07
-3.37607e-07
-3.42374e-07
-2.87785e-07
-4.28193e-07
-2.18353e-07
-5.10421e-07
-1.32472e-07
-5.82446e-07
-3.52913e-08
-6.39758e-07
-6.81659e-07
6.83503e-08
-3.02601e-07
-6.66242e-08
2.96614e-07
-3.11955e-07
-1.17474e-07
-3.24746e-07
-1.76146e-07
-3.37157e-07
-2.48328e-07
-3.33294e-07
-3.46237e-07
-2.98051e-07
-4.63437e-07
-2.33114e-07
-5.75358e-07
-1.45776e-07
-6.69784e-07
-4.51215e-08
-7.40413e-07
-7.88118e-07
6.1337e-08
-1.5428e-07
-6.87563e-08
1.56412e-07
-1.56532e-07
-1.15221e-07
-1.69685e-07
-1.62994e-07
-2.03799e-07
-2.14213e-07
-2.53899e-07
-2.96136e-07
-2.58203e-07
-4.59134e-07
-1.95551e-07
-6.3801e-07
-1.07818e-07
-7.57517e-07
-8.87903e-09
-8.39352e-07
-8.89422e-07
9.24249e-08
-1.88798e-08
-7.68088e-08
2.6932e-08
2.85242e-09
-1.36954e-07
4.15683e-08
-2.01709e-07
3.4183e-08
-2.06825e-07
-5.00297e-08
-2.11915e-07
-1.85253e-07
-3.2391e-07
-1.0932e-07
-7.13942e-07
-1.69316e-08
-8.49906e-07
7.48256e-08
-9.31109e-07
-9.76591e-07
1.61995e-07
4.68326e-08
-6.89138e-08
-5.47284e-08
-2.26816e-08
-6.74341e-08
-1.50004e-07
-7.43781e-08
-2.56557e-07
-1.00306e-07
-2.69159e-07
-1.99315e-07
-1.47307e-07
-4.45769e-07
4.26346e-09
-8.65523e-07
1.07327e-07
-9.5297e-07
1.8798e-07
-1.01176e-06
-1.0454e-06
2.56793e-07
1.152e-07
-5.96277e-08
-1.24495e-07
5.84401e-08
-1.06782e-08
1.44972e-09
-1.73703e-08
-1.82286e-08
-8.06297e-08
2.41351e-08
-2.41673e-07
1.04559e-07
-5.26198e-07
1.81934e-07
-9.42896e-07
2.59046e-07
-1.03008e-06
3.16773e-07
-1.06949e-06
-1.09185e-06
3.63223e-07
2.17589e-07
-7.95656e-08
-1.97659e-07
2.29965e-07
-2.30596e-08
2.35541e-07
-2.29355e-08
2.54191e-07
-9.92862e-08
2.90702e-07
-2.78194e-07
3.26585e-07
-5.62082e-07
3.74753e-07
-9.91063e-07
4.12863e-07
-1.06819e-06
4.41457e-07
-1.09808e-06
-1.11541e-06
4.65015e-07
2.89657e-07
-1.20153e-07
-2.49072e-07
3.59225e-07
-9.26393e-08
4.08511e-07
-7.22336e-08
4.43075e-07
-1.33871e-07
4.69376e-07
-3.04515e-07
5.04047e-07
-5.96769e-07
5.30836e-07
-1.01786e-06
5.38282e-07
-1.07564e-06
5.42802e-07
-1.1026e-06
-1.12098e-06
5.48371e-07
3.02242e-07
-1.62641e-07
-2.59757e-07
3.7949e-07
-1.69883e-07
4.61191e-07
-1.53924e-07
5.12309e-07
-1.84992e-07
5.45881e-07
-3.38069e-07
6.33394e-07
-6.84265e-07
6.28743e-07
-1.01321e-06
6.18884e-07
-1.06578e-06
6.10633e-07
-1.09435e-06
-1.1171e-06
6.0675e-07
2.79693e-07
-1.86159e-07
-2.56177e-07
3.33854e-07
-2.24049e-07
4.26784e-07
-2.46866e-07
4.85572e-07
-2.43791e-07
5.6358e-07
-4.16095e-07
6.9253e-07
-8.13222e-07
6.74626e-07
-9.95303e-07
6.57192e-07
-1.04834e-06
6.4633e-07
-1.08349e-06
-1.1125e-06
6.4173e-07
2.66418e-07
-2.09091e-07
-2.43485e-07
3.00067e-07
-2.57697e-07
3.67039e-07
-3.13835e-07
4.7131e-07
-3.48048e-07
6.1883e-07
-5.63603e-07
6.89241e-07
-8.83627e-07
6.7553e-07
-9.81592e-07
6.63781e-07
-1.0366e-06
6.59881e-07
-1.07959e-06
-1.11404e-06
6.61423e-07
2.4784e-07
-2.34187e-07
-2.22744e-07
2.83688e-07
-2.93545e-07
3.34541e-07
-3.6469e-07
4.53026e-07
-4.66534e-07
6.3458e-07
-7.45162e-07
6.47141e-07
-8.96188e-07
6.47301e-07
-9.81752e-07
6.52633e-07
-1.04193e-06
6.6308e-07
-1.09004e-06
-1.12597e-06
6.75011e-07
2.62712e-07
-2.70201e-07
-2.26698e-07
3.14095e-07
-3.44928e-07
3.89186e-07
-4.39781e-07
5.14188e-07
-5.91535e-07
5.72713e-07
-8.03686e-07
6.01233e-07
-9.24708e-07
6.2417e-07
-1.00469e-06
6.49188e-07
-1.06695e-06
6.73117e-07
-1.11396e-06
-1.14578e-06
6.92926e-07
2.99321e-07
-3.16702e-07
-2.52819e-07
3.59325e-07
-4.04932e-07
4.39312e-07
-5.19768e-07
5.3044e-07
-6.82663e-07
5.74529e-07
-8.47774e-07
6.09276e-07
-9.59454e-07
6.43525e-07
-1.03894e-06
6.74407e-07
-1.09783e-06
6.99516e-07
-1.13907e-06
-1.16399e-06
7.17722e-07
3.14347e-07
-3.63441e-07
-2.67608e-07
3.72215e-07
-4.62799e-07
4.54571e-07
-6.02124e-07
5.4174e-07
-7.69832e-07
6.00486e-07
-9.0652e-07
6.42611e-07
-1.00158e-06
6.75932e-07
-1.07226e-06
7.01532e-07
-1.12343e-06
7.19948e-07
-1.15749e-06
-1.1757e-06
7.31659e-07
2.73983e-07
-3.98164e-07
-2.3926e-07
3.37321e-07
-5.26138e-07
4.41899e-07
-7.06701e-07
5.36562e-07
-8.64494e-07
5.98776e-07
-9.68735e-07
6.41744e-07
-1.04455e-06
6.72332e-07
-1.10285e-06
6.9389e-07
-1.14499e-06
7.08071e-07
-1.17167e-06
-1.18354e-06
7.15919e-07
1.84992e-07
-4.13269e-07
-1.69888e-07
2.80012e-07
-6.21159e-07
4.04853e-07
-8.31541e-07
4.93283e-07
-9.52924e-07
5.52831e-07
-1.02828e-06
5.95937e-07
-1.08765e-06
6.27198e-07
-1.13411e-06
6.49108e-07
-1.1669e-06
6.63169e-07
-1.18573e-06
-1.19084e-06
6.70465e-07
1.42357e-07
-4.43832e-07
-1.11794e-07
2.85044e-07
-7.63843e-07
3.85617e-07
-9.32115e-07
4.47628e-07
-1.01493e-06
4.95741e-07
-1.0764e-06
5.3431e-07
-1.12622e-06
5.64052e-07
-1.16385e-06
5.85618e-07
-1.18846e-06
5.99658e-07
-1.19977e-06
-1.19804e-06
6.06855e-07
1.80351e-07
-5.75143e-07
-4.90383e-08
2.89366e-07
-8.72859e-07
3.47742e-07
-9.90491e-07
3.92942e-07
-1.06013e-06
4.33072e-07
-1.11653e-06
4.67177e-07
-1.16033e-06
4.94367e-07
-1.19104e-06
5.14416e-07
-1.20851e-06
5.27492e-07
-1.21285e-06
-1.20475e-06
5.34203e-07
1.43073e-07
-7.50241e-07
3.20242e-08
2.32335e-07
-9.62121e-07
2.86466e-07
-1.04462e-06
3.31332e-07
-1.105e-06
3.69258e-07
-1.15445e-06
4.00468e-07
-1.19154e-06
4.24913e-07
-1.21548e-06
4.42496e-07
-1.2261e-06
4.53279e-07
-1.22363e-06
-1.20924e-06
4.57766e-07
1.77058e-07
-8.51073e-07
-7.62265e-08
2.1872e-07
-1.00378e-06
2.53655e-07
-1.07956e-06
2.8656e-07
-1.13791e-06
3.16348e-07
-1.18424e-06
3.41681e-07
-1.21687e-06
3.61692e-07
-1.23549e-06
3.75855e-07
-1.24026e-06
3.84017e-07
-1.23179e-06
-1.21176e-06
3.86542e-07
1.44474e-07
-8.98032e-07
-9.75149e-08
1.80583e-07
-1.03989e-06
2.12148e-07
-1.11112e-06
2.41342e-07
-1.1671e-06
2.67402e-07
-1.2103e-06
2.8916e-07
-1.23863e-06
3.05736e-07
-1.25207e-06
3.16544e-07
-1.25107e-06
3.21045e-07
-1.23629e-06
-1.20902e-06
3.18303e-07
1.22305e-07
-9.48751e-07
-7.15844e-08
1.55164e-07
-1.07275e-06
1.8297e-07
-1.13893e-06
2.08403e-07
-1.19253e-06
2.31185e-07
-1.23308e-06
2.50308e-07
-1.25775e-06
2.65118e-07
-1.26688e-06
2.75344e-07
-1.26129e-06
2.80359e-07
-1.24131e-06
-1.20657e-06
2.77908e-07
1.23233e-07
-9.75963e-07
-9.60199e-08
1.46561e-07
-1.09608e-06
1.67472e-07
-1.15984e-06
1.87749e-07
-1.21281e-06
2.06972e-07
-1.2523e-06
2.23891e-07
-1.27467e-06
2.38191e-07
-1.28118e-06
2.50438e-07
-1.27354e-06
2.60987e-07
-1.25186e-06
-1.21413e-06
2.68554e-07
1.30378e-07
-9.99314e-07
-1.07028e-07
1.45987e-07
-1.11169e-06
1.5975e-07
-1.1736e-06
1.74537e-07
-1.2276e-06
1.8977e-07
-1.26754e-06
2.03748e-07
-1.28865e-06
2.16538e-07
-1.29397e-06
2.29617e-07
-1.28662e-06
2.44776e-07
-1.26702e-06
-1.23299e-06
2.63629e-07
1.42768e-07
-1.00992e-06
-1.32167e-07
1.4632e-07
-1.11524e-06
1.52329e-07
-1.17961e-06
1.62154e-07
-1.23742e-06
1.73516e-07
-1.2789e-06
1.83877e-07
-1.29901e-06
1.93642e-07
-1.30374e-06
2.04853e-07
-1.29783e-06
2.20049e-07
-1.28221e-06
-1.25524e-06
2.42306e-07
1.25856e-07
-1.01567e-06
-1.20102e-07
1.27024e-07
-1.1164e-06
1.33364e-07
-1.18595e-06
1.43341e-07
-1.2474e-06
1.53193e-07
-1.28875e-06
1.60635e-07
-1.30645e-06
1.67013e-07
-1.31011e-06
1.74837e-07
-1.30566e-06
1.86831e-07
-1.29421e-06
-1.27418e-06
2.05763e-07
8.57772e-08
-1.02891e-06
-7.25335e-08
9.66867e-08
-1.12731e-06
1.09771e-07
-1.19904e-06
1.22393e-07
-1.26002e-06
1.31022e-07
-1.29738e-06
1.35352e-07
-1.31078e-06
1.37959e-07
-1.31272e-06
1.41502e-07
-1.3092e-06
1.48543e-07
-1.30125e-06
-1.28761e-06
1.61977e-07
6.54966e-08
-1.04061e-06
-5.38055e-08
8.00271e-08
-1.14184e-06
9.46264e-08
-1.21363e-06
1.06036e-07
-1.27143e-06
1.10639e-07
-1.30198e-06
1.10682e-07
-1.31083e-06
1.09063e-07
-1.3111e-06
1.07797e-07
-1.30793e-06
1.08735e-07
-1.30218e-06
-1.29304e-06
1.1416e-07
5.74351e-08
-1.05375e-06
-4.42913e-08
7.13619e-08
-1.15577e-06
8.43117e-08
-1.22658e-06
9.23538e-08
-1.27947e-06
9.16287e-08
-1.30126e-06
8.75073e-08
-1.3067e-06
8.22731e-08
-1.30587e-06
7.67601e-08
-1.30242e-06
7.21669e-08
-1.29759e-06
-1.29088e-06
7.0015e-08
4.8853e-08
-1.07133e-06
-3.1273e-08
6.24799e-08
-1.1694e-06
7.40314e-08
-1.23814e-06
7.84899e-08
-1.28393e-06
7.31066e-08
-1.29587e-06
6.61334e-08
-1.29973e-06
5.87671e-08
-1.2985e-06
5.02297e-08
-1.29388e-06
4.13267e-08
-1.28869e-06
-1.28309e-06
3.35344e-08
3.843e-08
-1.09249e-06
-1.72648e-08
5.0982e-08
-1.18195e-06
6.17985e-08
-1.24895e-06
6.3199e-08
-1.28533e-06
5.53849e-08
-1.28806e-06
4.72279e-08
-1.29157e-06
3.95112e-08
-1.29079e-06
2.94887e-08
-1.28386e-06
1.74869e-08
-1.27669e-06
-1.27121e-06
5.6087e-09
2.57369e-08
-1.11119e-06
-7.03975e-09
3.82265e-08
-1.19444e-06
5.03889e-08
-1.26111e-06
4.96847e-08
-1.28463e-06
4.12626e-08
-1.27964e-06
3.23331e-08
-1.28264e-06
2.51367e-08
-1.28359e-06
1.5078e-08
-1.2738e-06
7.43366e-10
-1.26235e-06
-1.25554e-06
-1.49315e-08
2.46948e-08
-1.1361e-06
2.08449e-10
3.7647e-08
-1.20739e-06
4.846e-08
-1.27193e-06
4.2766e-08
-1.27893e-06
3.24857e-08
-1.26936e-06
2.18082e-08
-1.27197e-06
1.47554e-08
-1.27654e-06
6.44181e-09
-1.26549e-06
-9.24818e-09
-1.24666e-06
-1.23592e-06
-2.8871e-08
4.9468e-08
-1.11178e-06
-7.37813e-08
4.64622e-08
-1.20439e-06
4.85726e-08
-1.27404e-06
3.663e-08
-1.26699e-06
2.51178e-08
-1.25785e-06
1.35806e-08
-1.26043e-06
5.95487e-09
-1.26891e-06
1.88259e-09
-1.26141e-06
-1.2768e-08
-1.23201e-06
-1.21078e-06
-3.78993e-08
1.91854e-08
-1.09147e-06
-3.9501e-08
3.307e-08
-1.21827e-06
3.87437e-08
-1.27971e-06
2.77037e-08
-1.25595e-06
1.74433e-08
-1.24759e-06
6.51011e-09
-1.2495e-06
-2.71291e-09
-1.25969e-06
-2.41404e-10
-1.26389e-06
-7.06481e-09
-1.22519e-06
-1.17504e-06
-4.28111e-08
1.94572e-09
-1.03991e-06
-5.35005e-08
3.32186e-08
-1.24954e-06
3.49758e-08
-1.28147e-06
2.25213e-08
-1.24349e-06
1.20406e-08
-1.2371e-06
9.93279e-10
-1.23845e-06
-1.23163e-08