/*--------------------------------*- C++ -*----------------------------------*\
  =========                 |
  \\      /  F ield         | OpenFOAM: The Open Source CFD Toolbox
   \\    /   O peration     | Website:  https://openfoam.org
    \\  /    A nd           | Version:  8
     \\/     M anipulation  |
\*---------------------------------------------------------------------------*/
FoamFile
{
    version     2.0;
    format      ascii;
    class       volScalarField;
    location    "2.55";
    object      k;
}
// * * * * * * * * * * * * * * * * * * * * * * * * * * * * * * * * * * * * * //

dimensions      [0 2 -2 0 0 0 0];

internalField   nonuniform List<scalar> 
9150
(
0.00182767
0.000940918
0.000476862
0.000305039
0.000199561
0.00019971
0.000305245
0.000477174
0.000941357
0.00182767
0.00178496
0.000746735
0.000400216
0.000260067
0.000167246
0.000167368
0.000260252
0.000400481
0.000747115
0.00178499
0.00171346
0.000651474
0.00036729
0.00023991
0.000154347
0.000154456
0.000240079
0.000367531
0.000651835
0.0017135
0.00163488
0.000601478
0.000354206
0.000231853
0.000149471
0.000149574
0.000232014
0.000354436
0.00060183
0.00163492
0.00155141
0.000579983
0.000349449
0.000229033
0.000147964
0.000148065
0.00022919
0.000349675
0.000580337
0.00155145
0.00285108
0.00257109
0.00187475
0.00164907
0.00137859
0.00137831
0.00164657
0.00186969
0.00256534
0.00285022
0.00230523
0.00150717
0.00129266
0.00123103
0.00101088
0.00101099
0.0012299
0.00129039
0.00150643
0.00230548
0.00204985
0.00125338
0.000893921
0.000820438
0.000649163
0.000649359
0.000820047
0.000893332
0.00125381
0.00205011
0.00186794
0.00111082
0.000652785
0.000537867
0.000400787
0.000400986
0.000537891
0.000652882
0.00111148
0.0018681
0.00178749
0.00102106
0.000525971
0.000376594
0.000262261
0.000262436
0.000376774
0.000526267
0.00102164
0.00178758
0.0153797
0.00613386
0.0027677
0.00193207
0.00158519
0.0015875
0.0019299
0.00272603
0.00609092
0.0152462
0.00496913
0.00373075
0.00252766
0.00192728
0.00159447
0.00159482
0.00192217
0.00252432
0.00379518
0.0049382
0.004425
0.00341334
0.0025118
0.00192884
0.00160432
0.00160323
0.00192228
0.0025053
0.00343278
0.0044102
0.00392756
0.00316715
0.00249497
0.00192542
0.00161329
0.00161158
0.00191929
0.0024883
0.00316144
0.00392162
0.00336406
0.00312098
0.00239186
0.00187849
0.0015868
0.00158538
0.00187376
0.0023852
0.00310937
0.00336195
0.00515016
0.0051307
0.00510635
0.00507757
0.00504491
0.00500909
0.00497159
0.00493363
0.00489477
0.00485492
0.0109132
0.0108844
0.0108465
0.0108003
0.0107465
0.0106861
0.0106197
0.0105475
0.0104707
0.0103902
0.013807
0.0137763
0.0137352
0.0136842
0.0136243
0.0135562
0.0134801
0.0133972
0.0133084
0.0132147
0.0158406
0.0158103
0.0157687
0.0157166
0.0156546
0.0155831
0.0155029
0.0154149
0.01532
0.0152191
0.0174814
0.0174523
0.0174116
0.0173598
0.0172971
0.0172244
0.0171422
0.0170515
0.016953
0.0168476
0.0188947
0.0188674
0.0188282
0.0187772
0.0187149
0.0186421
0.0185593
0.0184673
0.0183667
0.0182585
0.0201591
0.0201338
0.0200962
0.0200467
0.0199857
0.0199136
0.0198312
0.0197389
0.0196375
0.0195277
0.0213183
0.0212952
0.0212597
0.0212121
0.021153
0.0210825
0.0210014
0.0209099
0.0208088
0.0206987
0.0223998
0.022379
0.0223459
0.0223009
0.0222442
0.0221762
0.0220973
0.0220078
0.0219082
0.021799
0.023422
0.0234035
0.0233732
0.0233311
0.0232776
0.023213
0.0231373
0.0230511
0.0229544
0.0228476
0.0243978
0.0243817
0.0243543
0.0243156
0.0242659
0.0242055
0.0241344
0.0240528
0.0239607
0.0238581
0.0253365
0.0253227
0.0252981
0.0252631
0.0252179
0.0251626
0.0250973
0.0250219
0.0249363
0.0248403
0.0262449
0.0262329
0.026211
0.0261796
0.0261392
0.0260899
0.0260317
0.0259644
0.0258876
0.0258007
0.0271276
0.0271166
0.0270968
0.0270689
0.0270334
0.0269906
0.0269406
0.0268831
0.0268176
0.0267431
0.0279875
0.0279764
0.0279578
0.0279326
0.0279016
0.0278653
0.0278241
0.0277778
0.027726
0.0276673
0.0288262
0.0288136
0.0287947
0.0287708
0.0287429
0.0287122
0.0286793
0.0286447
0.028608
0.0285683
0.0296444
0.0296285
0.0296073
0.0295825
0.0295557
0.0295282
0.0295016
0.0294766
0.029454
0.0294334
0.030442
0.0304208
0.0303951
0.0303668
0.0303379
0.0303103
0.0302857
0.0302657
0.0302517
0.0302444
0.0312187
0.0311903
0.0311578
0.0311234
0.0310895
0.0310582
0.0310316
0.0310119
0.0310011
0.0310007
0.0319751
0.0319376
0.0318965
0.0318541
0.0318128
0.0317752
0.0317438
0.0317212
0.0317098
0.0317122
0.0327127
0.0326648
0.0326136
0.0325615
0.0325113
0.0324655
0.0324269
0.0323983
0.0323822
0.0323812
0.0334335
0.0333745
0.0333124
0.0332501
0.0331901
0.0331351
0.0330878
0.0330508
0.0330269
0.0330184
0.0341394
0.0340694
0.0339969
0.0339246
0.0338551
0.0337909
0.0337347
0.0336889
0.0336559
0.033638
0.0348326
0.0347526
0.0346709
0.0345901
0.0345126
0.0344408
0.034377
0.0343234
0.0342822
0.0342555
0.0355151
0.0354273
0.0353389
0.0352523
0.0351696
0.0350929
0.0350242
0.0349655
0.0349186
0.0348856
0.0361897
0.0360975
0.036006
0.0359174
0.0358333
0.0357556
0.0356859
0.0356257
0.0355769
0.0355413
0.03686
0.0367681
0.0366784
0.0365925
0.0365118
0.0364376
0.0363712
0.036314
0.0362675
0.0362333
0.0375319
0.0374461
0.0373637
0.0372859
0.0372137
0.0371478
0.0370894
0.0370394
0.0369991
0.0369701
0.0382136
0.0381402
0.0380712
0.0380071
0.0379485
0.0378957
0.0378493
0.0378103
0.0377796
0.0377589
0.0389153
0.038861
0.0388114
0.0387664
0.0387261
0.0386906
0.0386601
0.0386351
0.0386167
0.0386061
0.0396483
0.0396193
0.0395947
0.039574
0.0395566
0.0395422
0.0395307
0.0395225
0.0395183
0.0395196
0.0404227
0.040425
0.040431
0.0404395
0.0404493
0.0404597
0.0404702
0.040481
0.040493
0.0405077
0.0412462
0.0412864
0.041329
0.041372
0.0414137
0.0414526
0.0414881
0.0415202
0.0415499
0.0415793
0.0421271
0.0422124
0.0422983
0.0423817
0.0424601
0.0425316
0.0425949
0.0426502
0.0426986
0.042743
0.0430762
0.0432147
0.0433511
0.0434814
0.0436019
0.0437101
0.0438042
0.0438844
0.0439522
0.0440112
0.0441071
0.0443074
0.0445025
0.0446868
0.0448556
0.0450052
0.0451337
0.0452407
0.0453286
0.0454018
0.0452349
0.0455071
0.0457702
0.046017
0.0462412
0.0464382
0.0466053
0.0467421
0.0468514
0.0469389
0.0464763
0.0468326
0.0471751
0.0474947
0.0477831
0.0480346
0.0482459
0.0484171
0.0485514
0.0486557
0.0478497
0.0483053
0.0487417
0.0491464
0.0495092
0.049823
0.0500848
0.0502952
0.0504593
0.0505861
0.049375
0.0499503
0.0504989
0.0510039
0.0514521
0.0518355
0.0521515
0.0524023
0.0525943
0.0527388
0.0510737
0.0517972
0.0524838
0.0531097
0.0536573
0.0541194
0.0544971
0.0547951
0.0550183
0.0551792
0.0529656
0.0538792
0.0547425
0.0555177
0.0561793
0.0567259
0.0571756
0.05754
0.0578121
0.057993
0.0550591
0.0562273
0.0573277
0.0582884
0.0590633
0.0596725
0.0601913
0.0606583
0.0610306
0.0612448
0.057315
0.0588283
0.0602689
0.061502
0.062399
0.0630013
0.0635521
0.0641636
0.0647322
0.064927
0.0595697
0.0615269
0.0635011
0.0652849
0.0664379
0.06689
0.067376
0.0680536
0.0686831
0.068556
0.0616171
0.0641143
0.0668275
0.0691471
0.0701322
0.0710292
0.0716481
0.072261
0.0716133
0.0716835
0.0632261
0.0661767
0.0692866
0.0709087
0.0713025
0.0721165
0.0726858
0.0727234
0.0725405
0.0727289
0.0641008
0.0670366
0.06978
0.0711006
0.0715507
0.0718919
0.0722091
0.0724574
0.0727909
0.0729988
0.0645708
0.0674477
0.0705663
0.0724807
0.0728588
0.0729029
0.0729864
0.0731466
0.0732504
0.0734665
0.0643922
0.0668488
0.0695291
0.0721403
0.0736538
0.0739678
0.0737361
0.0734935
0.0735966
0.0740661
0.0638025
0.0658304
0.0678946
0.0698642
0.0714685
0.0724697
0.0729539
0.0733205
0.0738695
0.0747069
0.0631222
0.06489
0.0666613
0.0683515
0.069877
0.0711829
0.0722829
0.073291
0.0743547
0.0755988
0.0625863
0.0642284
0.0659056
0.0675764
0.0692021
0.0707605
0.0722501
0.0737141
0.0752328
0.0769033
0.0622538
0.0638669
0.0655481
0.0672792
0.0690424
0.0708257
0.07263
0.0744787
0.0764224
0.0785289
0.0620666
0.0636959
0.0654235
0.0672437
0.0691512
0.0711437
0.0732265
0.0754176
0.07775
0.0802686
0.0619874
0.0636508
0.0654392
0.0673554
0.0694024
0.071585
0.0739119
0.0763984
0.0790677
0.0819502
0.0620262
0.0637303
0.0655818
0.0675901
0.0697643
0.0721141
0.0746505
0.077388
0.0803455
0.0835468
0.0622662
0.0640174
0.0659357
0.0680358
0.0703318
0.0728372
0.0755654
0.0785314
0.0817545
0.0852602
0.0629338
0.0647485
0.0667503
0.0689586
0.0713931
0.0740703
0.0770049
0.0802116
0.0837066
0.0875077
0.0644801
0.0664103
0.0685489
0.0709165
0.0735289
0.0764013
0.0795465
0.0829771
0.086711
0.090775
0.0676504
0.0697922
0.0721533
0.0747497
0.0775907
0.0806852
0.0840367
0.0876469
0.0915348
0.0957466
0.0734038
0.0759227
0.0786593
0.0816106
0.0847613
0.0881076
0.0916326
0.0953114
0.0991504
0.103208
0.0829828
0.0861689
0.0895502
0.0930703
0.0966316
0.100153
0.103592
0.10698
0.110365
0.113689
0.0981074
0.102027
0.105796
0.109409
0.112788
0.115677
0.118069
0.120321
0.122808
0.125413
0.117127
0.120331
0.122468
0.124061
0.125377
0.126636
0.128105
0.130024
0.132533
0.135542
0.128155
0.130119
0.131758
0.133304
0.134912
0.136699
0.138897
0.141694
0.14508
0.149104
0.138126
0.139998
0.141986
0.144122
0.146497
0.149234
0.152396
0.156018
0.16026
0.165421
0.148813
0.150517
0.152393
0.15456
0.157145
0.160284
0.164089
0.168679
0.174321
0.181457
0.155587
0.156574
0.158059
0.160222
0.163208
0.16719
0.172386
0.179099
0.187782
0.199048
0.156219
0.156738
0.158413
0.1614
0.165885
0.172108
0.180394
0.191241
0.205382
0.223732
0.1517
0.152797
0.155928
0.161202
0.168761
0.178897
0.192151
0.209356
0.231615
0.260253
0.144602
0.14766
0.153616
0.162483
0.174398
0.189789
0.209511
0.234865
0.267508
0.30925
0.138024
0.143975
0.153472
0.166475
0.183179
0.204232
0.230878
0.264991
0.308903
0.364444
0.134079
0.142907
0.155676
0.172376
0.193279
0.219149
0.251386
0.292036
0.342431
0.401739
0.133107
0.143934
0.158939
0.178149
0.201801
0.23045
0.265046
0.306748
0.356822
0.409635
0.13345
0.145215
0.161119
0.181224
0.205738
0.235041
0.269721
0.310338
0.353603
0.38888
0.13306
0.14468
0.160187
0.179606
0.203156
0.231221
0.264385
0.30331
0.343536
0.370883
0.130523
0.141167
0.155389
0.17297
0.194045
0.218954
0.248195
0.282316
0.321101
0.354363
0.125436
0.134353
0.146878
0.162191
0.180111
0.200818
0.224628
0.251915
0.282931
0.317226
0.118789
0.124862
0.135409
0.148595
0.163558
0.180129
0.19839
0.218416
0.240299
0.263936
0.112892
0.114319
0.122249
0.133588
0.146319
0.159595
0.173211
0.187114
0.201156
0.215104
0.110603
0.105034
0.109067
0.118584
0.129999
0.141315
0.151843
0.161487
0.17029
0.178114
0.114237
0.0992786
0.0975571
0.104771
0.115668
0.126518
0.135744
0.143095
0.1488
0.15315
0.124826
0.0985756
0.0889784
0.0927872
0.103511
0.115256
0.124942
0.13184
0.136242
0.138751
0.141946
0.103309
0.0840145
0.0828889
0.0930805
0.106528
0.118048
0.125992
0.130503
0.132336
0.163924
0.112623
0.0827061
0.075341
0.0841776
0.0994698
0.113694
0.123826
0.129513
0.131493
0.188366
0.124629
0.0842649
0.0701868
0.0769492
0.0938346
0.111197
0.124452
0.132377
0.135312
0.213168
0.137132
0.0871863
0.066803
0.0712319
0.0894021
0.11009
0.127284
0.138687
0.143707
0.2371
0.148252
0.0898225
0.0640721
0.0663035
0.0855617
0.109638
0.131479
0.147821
0.156659
0.257962
0.156179
0.0908683
0.0609501
0.0611909
0.081388
0.108832
0.135862
0.158666
0.173819
0.272707
0.159374
0.0896277
0.0568022
0.0549707
0.0757862
0.106455
0.138949
0.169454
0.194217
0.27684
0.15659
0.0860006
0.0515201
0.047046
0.067677
0.101103
0.138935
0.177785
0.215062
0.264266
0.147294
0.0803962
0.045493
0.0375223
0.0565073
0.0916074
0.134039
0.181097
0.231417
0.234984
0.133405
0.0736248
0.039318
0.0273972
0.0428747
0.0777839
0.123176
0.177256
0.240533
0.201635
0.118493
0.0662372
0.0332718
0.0181774
0.0286522
0.0607898
0.106383
0.164402
0.236647
0.172548
0.104156
0.0581221
0.027103
0.0110302
0.0164042
0.0430794
0.085702
0.143131
0.217763
0.146857
0.0897862
0.0487645
0.0203934
0.00618269
0.00795742
0.0270732
0.0639512
0.116898
0.187732
0.121597
0.0745031
0.0376571
0.0132076
0.00328982
0.00354996
0.0144903
0.043208
0.088886
0.147799
0.098244
0.0577168
0.0244673
0.00665457
0.00195268
0.00196557
0.00635206
0.0249232
0.0631872
0.111804
0.0763326
0.0357012
0.0104269
0.00270607
0.00160946
0.00161788
0.002624
0.00992689
0.0364365
0.0797131
0.00481348
0.00476856
0.00472378
0.00467975
0.00463693
0.0045957
0.00455641
0.00451961
0.00448653
0.0044604
0.00443727
0.00441545
0.00439421
0.00437278
0.00435026
0.00432574
0.00429825
0.00426677
0.00423025
0.00418763
0.00413776
0.0040795
0.00401164
0.00393292
0.00384212
0.00373807
0.00361983
0.00348615
0.00333677
0.00317526
0.0029929
0.00278686
0.00255567
0.00229958
0.00203592
0.00177158
0.00149201
0.00118997
0.000874438
0.000744543
0.0103032
0.010209
0.0101139
0.0100194
0.00992651
0.009836
0.00974856
0.00966457
0.00958416
0.00950674
0.00943119
0.00935708
0.00928367
0.00920999
0.00913487
0.00905699
0.00897489
0.00888698
0.00879153
0.00868668
0.00857045
0.0084407
0.00829519
0.00813153
0.00794727
0.00773987
0.00750682
0.00724558
0.00695373
0.00662872
0.00626667
0.00586944
0.00543731
0.00496811
0.00445771
0.0039167
0.00334454
0.00273412
0.00206643
0.00138771
0.0131118
0.0129991
0.012884
0.0127677
0.0126513
0.0125356
0.0124213
0.0123087
0.012198
0.012089
0.0119812
0.0118741
0.0117667
0.0116579
0.0115467
0.0114315
0.0113109
0.0111832
0.0110464
0.0108987
0.0107379
0.0105619
0.0103683
0.0101547
0.0099186
0.00965753
0.00936899
0.00905056
0.00869995
0.008315
0.00789372
0.00743466
0.00693606
0.00639526
0.00581392
0.00518594
0.00451132
0.00376629
0.0028599
0.00141255
0.0151072
0.0149836
0.0148561
0.0147259
0.014594
0.0144613
0.0143284
0.0141957
0.0140632
0.0139312
0.0137992
0.0136667
0.0135327
0.0133962
0.0132561
0.0131107
0.0129588
0.0127985
0.0126281
0.0124458
0.0122495
0.0120373
0.011807
0.0115565
0.0112837
0.0109864
0.0106625
0.0103097
0.00992604
0.00950918
0.00905681
0.00856635
0.00803478
0.0074585
0.00683314
0.00615067
0.00540465
0.00456179
0.00349465
0.00162513
0.0167298
0.0165987
0.0164624
0.0163221
0.0161787
0.0160331
0.0158859
0.0157375
0.0155879
0.0154371
0.0152852
0.0151315
0.014975
0.0148147
0.0146494
0.0144776
0.014298
0.0141089
0.0139086
0.0136956
0.0134679
0.013224
0.012962
0.0126802
0.0123769
0.0120503
0.0116989
0.0113207
0.0109139
0.0104761
0.0100044
0.0094946
0.00894148
0.00833807
0.00767615
0.0069461
0.00613225
0.00519619
0.00398642
0.00182505
0.0181367
0.0180002
0.0178574
0.0177093
0.0175569
0.017401
0.0172421
0.0170806
0.0169166
0.0167499
0.0165807
0.0164083
0.0162318
0.0160501
0.0158619
0.015666
0.0154609
0.0152451
0.0150171
0.0147754
0.0145185
0.0142448
0.0139531
0.0136419
0.01331
0.0129561
0.0125791
0.0121776
0.0117501
0.0112946
0.0108078
0.010285
0.00971843
0.00909642
0.00840313
0.00762156
0.0067342
0.00569973
0.00435274
0.00197999
0.0194034
0.0192632
0.0191155
0.0189613
0.0188017
0.0186372
0.0184685
0.0182958
0.0181193
0.0179386
0.0177537
0.0175642
0.0173692
0.0171676
0.0169582
0.0167395
0.0165103
0.0162692
0.0160147
0.0157454
0.0154601
0.0151575
0.0148364
0.0144957
0.0141346
0.013752
0.0133473
0.0129195
0.0124678
0.0119909
0.0114866
0.0109509
0.0103765
0.00974954
0.00904496
0.00822558
0.00726789
0.00613911
0.00467315
0.00209789
0.0205732
0.0204307
0.0202796
0.0201208
0.0199553
0.0197836
0.0196064
0.0194239
0.0192361
0.0190427
0.0188432
0.0186377
0.0184253
0.0182048
0.0179751
0.0177347
0.0174824
0.0172169
0.0169367
0.0166407
0.0163277
0.0159964
0.0156457
0.0152749
0.0148828
0.0144688
0.0140321
0.013572
0.013088
0.0125791
0.0120442
0.0114816
0.0108876
0.0102539
0.00956096
0.00875449
0.00777314
0.00659194
0.00505452
0.0022846
0.0216737
0.0215304
0.0213773
0.0212153
0.0210452
0.0208675
0.0206828
0.0204914
0.0202931
0.0200878
0.019875
0.0196541
0.0194249
0.0191863
0.0189371
0.0186759
0.0184014
0.0181125
0.0178078
0.0174861
0.0171461
0.0167869
0.0164073
0.0160062
0.0155826
0.0151356
0.0146641
0.0141671
0.0136434
0.0130917
0.0125107
0.0118986
0.0112537
0.0105738
0.00985457
0.00906891
0.00812471
0.00691529
0.00529137
0.00239212
0.0227242
0.0225818
0.0224283
0.0222644
0.0220908
0.0219082
0.0217169
0.0215172
0.0213091
0.0210924
0.0208666
0.0206311
0.0203858
0.0201298
0.0198619
0.0195808
0.0192855
0.0189745
0.0186468
0.018301
0.0179362
0.017551
0.0171444
0.0167154
0.0162626
0.0157849
0.0152809
0.0147493
0.0141885
0.0135966
0.0129717
0.0123116
0.011614
0.010876
0.0100913
0.00923758
0.00824958
0.00701415
0.00530747
0.00233719
0.0237386
0.0235991
0.023447
0.0232828
0.0231071
0.0229203
0.0227231
0.0225156
0.022298
0.0220702
0.021832
0.0215827
0.0213217
0.021049
0.0207635
0.0204639
0.0201491
0.019818
0.0194695
0.0191023
0.0187154
0.0183076
0.017878
0.0174253
0.0169483
0.0164458
0.0159164
0.0153587
0.0147707
0.0141507
0.0134963
0.0128043
0.0120708
0.011289
0.0104458
0.00951433
0.00843967
0.00711961
0.00532719
0.00234739
0.0247271
0.0245932
0.0244449
0.0242822
0.0241056
0.0239156
0.0237128
0.0234977
0.0232708
0.0230321
0.0227816
0.0225188
0.0222433
0.021955
0.0216532
0.0213368
0.0210047
0.0206558
0.0202892
0.0199037
0.0194983
0.0190721
0.018624
0.018153
0.0176579
0.0171376
0.0165908
0.0160161
0.0154116
0.0147754
0.0141045
0.0133953
0.0126416
0.0118341
0.0109562
0.00997868
0.00884906
0.00746921
0.00561292
0.00252518
0.0256971
0.0255723
0.0254309
0.0252721
0.025096
0.0249034
0.0246953
0.0244726
0.0242362
0.0239868
0.0237244
0.0234489
0.0231601
0.0228574
0.0225409
0.0222096
0.0218624
0.0214984
0.0211166
0.0207162
0.0202961
0.0198554
0.0193933
0.0189088
0.0184009
0.0178684
0.0173102
0.0167247
0.0161101
0.0154638
0.0147824
0.0140609
0.0132917
0.012463
0.0115558
0.0105391
0.00935978
0.0079186
0.00598012
0.00275583
0.026653
0.0265418
0.0264117
0.0262601
0.0260866
0.025892
0.0256782
0.0254473
0.0252013
0.0249411
0.0246674
0.0243802
0.0240793
0.0237642
0.0234351
0.023091
0.0227312
0.0223547
0.0219606
0.0215482
0.0211164
0.0206646
0.0201918
0.0196971
0.0191796
0.0186381
0.0180713
0.0174774
0.0168541
0.0161984
0.0155058
0.0147702
0.0139826
0.0131293
0.01219
0.0111322
0.0099021
0.00839791
0.00637281
0.00299576
0.0275958
0.0275048
0.0273923
0.0272532
0.0270845
0.0268875
0.0266668
0.026427
0.0261711
0.025901
0.0256173
0.0253201
0.025009
0.0246837
0.024344
0.0239894
0.0236191
0.0232323
0.0228282
0.0224059
0.0219647
0.0215036
0.0210219
0.0205187
0.0199928
0.0194429
0.0188674
0.0182641
0.0176303
0.016962
0.0162542
0.0154994
0.0146876
0.0138041
0.0128275
0.0117247
0.010441
0.00887195
0.00675849
0.00322596
0.0285207
0.0284586
0.0283741
0.0282553
0.0280922
0.027891
0.0276623
0.0274138
0.0271497
0.026872
0.026581
0.0262764
0.0259578
0.0256246
0.0252763
0.024913
0.0245339
0.0241383
0.0237255
0.0232946
0.0228447
0.0223751
0.0218848
0.0213728
0.0208377
0.0202781
0.0196918
0.0190763
0.0184281
0.0177428
0.0170142
0.0162344
0.0153922
0.0144725
0.013453
0.0123005
0.0109595
0.00932268
0.00711977
0.00343813
0.0294123
0.0293861
0.029343
0.0292578
0.0291062
0.0288996
0.0286642
0.0284112
0.0281438
0.0278632
0.027569
0.0272605
0.0269369
0.0265975
0.0262421
0.0258709
0.0254836
0.0250796
0.0246583
0.0242186
0.0237598
0.0232809
0.0227809
0.0222586
0.0217124
0.0211404
0.0205402
0.0199086
0.0192417
0.0185343
0.0177797
0.0169692
0.0160911
0.0151297
0.0140625
0.0128559
0.0114534
0.00974553
0.00745214
0.00363229
0.0302437
0.0302491
0.0302507
0.0301983
0.0300863
0.0298997
0.0296736
0.0294284
0.0291668
0.0288897
0.0285967
0.0282869
0.0279597
0.0276148
0.027252
0.0268725
0.0264762
0.0260628
0.0256317
0.025182
0.0247126
0.0242227
0.023711
0.0231759
0.0226157
0.0220282
0.0214103
0.0207586
0.0200686
0.0193346
0.0185492
0.0177034
0.016785
0.0157777
0.014659
0.0133947
0.0119279
0.0101467
0.00776313
0.00381317
0.0310129
0.0310408
0.0310759
0.0310536
0.0309385
0.030827
0.0306618
0.0304551
0.0302189
0.0299574
0.0296726
0.0293652
0.0290359
0.0286852
0.0283142
0.0279245
0.0275172
0.0270923
0.0266493
0.0261873
0.0257052
0.0252018
0.0246755
0.0241247
0.0235473
0.0229406
0.0223015
0.0216259
0.0209089
0.0201443
0.0193245
0.0184396
0.0174774
0.0164211
0.0152478
0.013923
0.0123891
0.0105324
0.00805867
0.00398499
0.0317311
0.0317709
0.0318241
0.031855
0.0317803
0.0316949
0.0316297
0.03149
0.0312948
0.0310618
0.0307944
0.030495
0.030166
0.0298101
0.02943
0.0290283
0.0286077
0.0281688
0.0277116
0.027235
0.0267376
0.0262178
0.0256741
0.0251045
0.0245066
0.0238776
0.0232139
0.0225111
0.0217639
0.0209656
0.0201082
0.0191816
0.0181729
0.0170651
0.0158347
0.0144469
0.012843
0.0109076
0.00834129
0.00415058
0.032398
0.0324371
0.0324923
0.0325472
0.0325652
0.0325145
0.0325014
0.0325031
0.0323887
0.0321982
0.0319582
0.0316729
0.031347
0.0309861
0.0305956
0.0301802
0.0297443
0.0292895
0.028816
0.0283227
0.0278076
0.027269
0.0267051
0.0261139
0.0254928
0.0248387
0.0241477
0.0234151
0.0226353
0.0218012
0.0209043
0.0199341
0.0188771
0.0177159
0.0164266
0.0149736
0.0132977
0.0112812
0.00862016
0.00431483
0.0330275
0.0330594
0.0331113
0.0331755
0.03324
0.0332842
0.0332944
0.0333713
0.0334503
0.0333589
0.0331608
0.032896
0.0325749
0.0322079
0.0318046
0.0313731
0.03092
0.0304478
0.0299569
0.0294455
0.028911
0.0283515
0.0277654
0.0271506
0.0265044
0.0258234
0.0251034
0.0243396
0.0235258
0.0226549
0.0217177
0.0207031
0.0195972
0.0183818
0.0170326
0.0155133
0.0137636
0.0116643
0.00890622
0.0044838
0.033637
0.0336589
0.0337036
0.0337694
0.0338523
0.0339482
0.034044
0.0341368
0.0343255
0.03448
0.0343923
0.034158
0.0338416
0.0334656
0.0330464
0.0325961
0.0321238
0.0316337
0.0311256
0.0305961
0.0300414
0.0294601
0.0288509
0.0282119
0.02754
0.0268317
0.0260825
0.0252873
0.0244398
0.0235324
0.0225555
0.0214972
0.0203428
0.0190735
0.0176641
0.0160775
0.0142522
0.0120665
0.009207
0.00466189
0.0342447
0.0342561
0.0342923
0.0343545
0.0344433
0.0345594
0.034703
0.0348675
0.0350704
0.0353861
0.035576
0.0354362
0.0351277
0.0347389
0.0343011
0.0338307
0.033339
0.0328323
0.0323096
0.0317634
0.0311891
0.030587
0.0299565
0.0292952
0.0285997
0.0278658
0.027089
0.0262639
0.0253843
0.0244424
0.023428
0.0223281
0.0211265
0.0198037
0.0183338
0.0166788
0.0147753
0.0124989
0.00953174
0.00485347
0.0348674
0.0348707
0.0348996
0.0349572
0.0350468
0.035172
0.0353369
0.0355443
0.0357949
0.0361239
0.0365243
0.0366319
0.0363797
0.035986
0.0355324
0.035046
0.0345407
0.0340233
0.0334908
0.0329318
0.0323422
0.0317249
0.0310788
0.0304008
0.0296865
0.0289313
0.0281305
0.0272788
0.0263705
0.0253979
0.0243501
0.0232119
0.021965
0.0205891
0.0190583
0.0173332
0.015348
0.0129741
0.00988763
0.00506397
0.0355195
0.0355185
0.035543
0.0355973
0.0356863
0.0358156
0.0359916
0.0362212
0.0365114
0.0368725
0.0373432
0.0376941
0.0375778
0.0371896
0.0367169
0.0362197
0.0357102
0.03519
0.0346529
0.0340881
0.033493
0.0328705
0.0322182
0.0315321
0.0308068
0.0300372
0.0292182
0.0283454
0.0274137
0.0264164
0.0253418
0.0241706
0.0228803
0.0214514
0.0198594
0.0180626
0.0159911
0.0135105
0.0102887
0.00530215
0.0362122
0.036211
0.0362349
0.0362886
0.0363778
0.0365089
0.0366894
0.0369281
0.0372352
0.0376244
0.0381286
0.0386048
0.0386303
0.0382725
0.0378066
0.0373218
0.0368257
0.0363154
0.0357837
0.0352241
0.034636
0.0340206
0.0333744
0.0326917
0.0319659
0.0311911
0.0303627
0.0294772
0.0285311
0.0275188
0.0264268
0.0252289
0.0238984
0.0224195
0.0207689
0.0188994
0.0167354
0.0141352
0.010759
0.00557922
0.0369535
0.0369559
0.0369826
0.037039
0.0371312
0.0372664
0.0374526
0.0376989
0.0380151
0.0384101
0.0389102
0.0394159
0.0395061
0.0392022
0.0387887
0.0383475
0.0378845
0.0373974
0.0368822
0.0363383
0.0357685
0.0351724
0.034545
0.0338782
0.0331627
0.0323924
0.0315649
0.0306797
0.0297342
0.0287213
0.027622
0.0264031
0.0250408
0.0235224
0.0218191
0.0198741
0.0176055
0.0148681
0.01132
0.00589797
0.0377494
0.0377579
0.0377894
0.0378498
0.037946
0.0380856
0.0382773
0.0385297
0.0388512
0.0392459
0.0397324
0.0402109
0.0402958
0.0400543
0.0397135
0.0393323
0.0389146
0.0384604
0.0379704
0.03745
0.0369051
0.0363356
0.0357357
0.0350932
0.0343949
0.0336356
0.0328191
0.0319482
0.0310173
0.0300146
0.0289167
0.027691
0.0263139
0.0247698
0.0230157
0.0209841
0.0185914
0.0157012
0.0119687
0.00624521
0.0386055
0.0386211
0.0386578
0.0387219
0.0388208
0.0389629
0.0391578
0.0394155
0.0397466
0.0401625
0.0406729
0.0411048
0.0411391
0.0409425
0.0406635
0.0403351
0.0399608
0.0395427
0.0390843
0.0385936
0.0380775
0.0375379
0.0369696
0.0363554
0.0356772
0.0349346
0.0341387
0.0332893
0.0323735
0.0313804
0.0302926
0.0290771
0.0276967
0.0261238
0.0243111
0.022187
0.0196653
0.0166147
0.0126928
0.00660244
0.0395293
0.0395532
0.0395963
0.0396656
0.0397692
0.0399168
0.0401192
0.0403879
0.0407335
0.0411693
0.041691
0.0420374
0.0420459
0.0419012
0.041679
0.0413972
0.0410625
0.0406812
0.04026
0.0398069
0.0393282
0.038826
0.0382925
0.0377056
0.0370475
0.0363271
0.0355565
0.0347265
0.0338232
0.0328404
0.031761
0.0305473
0.0291569
0.0275581
0.0256985
0.0235008
0.0208644
0.0176407
0.0134903
0.00697785
0.0405288
0.0405625
0.0406137
0.04069
0.0408004
0.0409557
0.0411684
0.0414521
0.0418191
0.0422786
0.0427409
0.04298
0.0430147
0.0429328
0.0427677
0.0425342
0.0422441
0.0419081
0.0415352
0.0411337
0.0407076
0.0402526
0.0397566
0.0391999
0.038571
0.0378789
0.0371299
0.0363148
0.0354253
0.0344525
0.0333742
0.0321551
0.0307608
0.029157
0.0272863
0.0250568
0.0223351
0.0189277
0.0144781
0.00744154
0.0416135
0.0416591
0.0417216
0.0418097
0.0419332
0.0421032
0.0423325
0.0426362
0.0430338
0.0435088
0.0438889
0.0440731
0.0441254
0.0440856
0.0439718
0.0437922
0.0435588
0.043285
0.0429802
0.0426486
0.0422868
0.0418842
0.0414291
0.0409119
0.0403268
0.0396736
0.0389538
0.038162
0.0372894
0.0363238
0.0352472
0.0340368
0.0326666
0.0311034
0.0292892
0.0271154
0.0243912
0.0208168
0.0159527
0.00815077
0.0427901
0.0428473
0.0429212
0.0430222
0.0431609
0.0433487
0.0435966
0.0439171
0.0443291
0.0447494
0.0450489
0.0452412
0.045347
0.045376
0.0453367
0.0452351
0.0450861
0.0449032
0.0446897
0.0444432
0.0441563
0.0438174
0.0434207
0.042963
0.042437
0.0418402
0.0411705
0.04042
0.0395776
0.0386321
0.037573
0.0363923
0.0350838
0.0336369
0.0320116
0.0300781
0.027527
0.0237957
0.0182644
0.00934124
0.04407
0.0441373
0.0442213
0.0443344
0.0444888
0.0446963
0.0449701
0.0453332
0.0457425
0.0461023
0.0463969
0.0466299
0.0467986
0.0469057
0.0469532
0.0469516
0.0469138
0.0468446
0.0467392
0.0465936
0.0464006
0.0461541
0.0458526
0.0454899
0.0450579
0.0445515
0.0439639
0.0432844
0.042501
0.0416045
0.0405928
0.0394768
0.0382865
0.0370701
0.0358522
0.0344876
0.0324068
0.0284079
0.0217061
0.01132
0.0454712
0.0455474
0.0456414
0.0457687
0.0459432
0.0461793
0.0465045
0.0469031
0.0472963
0.0476608
0.0479899
0.0482746
0.0485124
0.0487063
0.048859
0.0489799
0.0490763
0.0491434
0.0491724
0.0491607
0.0491049
0.0490015
0.0488454
0.0486284
0.0483422
0.0479779
0.0475243
0.0469673
0.0462925
0.0454915
0.0445713
0.0435681
0.0425685
0.0417281
0.0412204
0.0409273
0.0396607
0.0349282
0.0263807
0.0143474
0.0470177
0.0471009
0.047204
0.0473481
0.0475504
0.0478353
0.0482122
0.0486235
0.0490361
0.049439
0.0498187
0.0501692
0.0504923
0.0507886
0.0510654
0.0513273
0.0515768
0.0518087
0.0520157
0.052194
0.052339
0.0524433
0.0524989
0.0524976
0.0524297
0.0522831
0.0520416
0.0516843
0.0511903
0.0505482
0.0497732
0.0489334
0.0481916
0.0478547
0.048313
0.0495613
0.0491092
0.0427526
0.0320609
0.0184672
0.0487457
0.0488358
0.0489478
0.0491124
0.0493584
0.0497018
0.0501103
0.0505418
0.0509894
0.0514399
0.0518813
0.0523102
0.0527328
0.0531498
0.053569
0.0539949
0.0544276
0.0548635
0.0552986
0.0557271
0.0561406
0.0565292
0.0568827
0.0571916
0.0574447
0.0576272
0.0577157
0.0576769
0.0574727
0.057077
0.0565071
0.0558677
0.0554014
0.0555084
0.0564225
0.0594015
0.0588804
0.0508674
0.038645
0.0236527
0.0506944
0.0508012
0.0509296
0.0511128
0.0513916
0.0517681
0.0521921
0.0526528
0.0531465
0.0536579
0.0541723
0.0546912
0.0552195
0.0557685
0.0563476
0.0569625
0.0576144
0.0583013
0.0590189
0.0597609
0.0605184
0.0612815
0.0620403
0.062785
0.0635045
0.0641827
0.0647885
0.0652639
0.0655281
0.0655086
0.0652107
0.0647889
0.0645812
0.0650446
0.0665048
0.069439
0.0670981
0.0595773
0.0468075
0.030235
0.0528604
0.0529806
0.0531251
0.053338
0.0536503
0.0540368
0.0544803
0.0549812
0.0555319
0.0561062
0.0566856
0.0572862
0.0579217
0.0586099
0.0593638
0.060191
0.0610947
0.0620738
0.0631251
0.0642438
0.0654246
0.0666627
0.0679544
0.069296
0.0706806
0.0720931
0.0734954
0.0747882
0.0757972
0.0763197
0.0763214
0.0761183
0.0767455
0.0789093
0.0806883
0.0787697
0.0746003
0.0692193
0.058684
0.0386736
0.0553092
0.0554378
0.0556098
0.0558602
0.0561841
0.0565761
0.0570418
0.0575802
0.058172
0.058782
0.0594083
0.0600785
0.0608211
0.0616557
0.0625969
0.063654
0.0648308
0.0661275
0.0675429
0.0690775
0.0707353
0.0725264
0.0744656
0.076568
0.0788425
0.0812779
0.0838277
0.0863615
0.0885681
0.0897694
0.0896982
0.0899417
0.0914162
0.0918607
0.0907492
0.0873994
0.0828733
0.0786434
0.0751056
0.0483356
0.0581193
0.0582413
0.0584175
0.0586609
0.058974
0.0593707
0.0598533
0.0604114
0.0610179
0.0616498
0.0623291
0.0630856
0.0639492
0.0649433
0.0660842
0.0673806
0.0688339
0.070443
0.072209
0.0741398
0.0762541
0.078585
0.0811791
0.0840898
0.087375
0.0910818
0.0951714
0.0994808
0.103628
0.104367
0.103401
0.103214
0.102011
0.100559
0.0983539
0.0949884
0.0909445
0.0875548
0.0798737
0.0530375
0.0613186
0.0613605
0.0614587
0.0616493
0.0619395
0.0623362
0.0628344
0.0634142
0.0640535
0.0647498
0.0655199
0.0663986
0.067414
0.0685923
0.0699499
0.0714896
0.0732037
0.075084
0.0771312
0.0793603
0.0818039
0.0845169
0.0875788
0.0910945
0.0951903
0.100031
0.105807
0.112456
0.116796
0.116391
0.116252
0.114281
0.112027
0.109545
0.106294
0.102167
0.0974858
0.0923938
0.0809871
0.0515678
0.064781
0.0646034
0.064554
0.0646551
0.0649149
0.0653322
0.0658875
0.0665534
0.0673145
0.0681666
0.0691185
0.0701939
0.0714205
0.0728281
0.0744319
0.0762224
0.0781714
0.080256
0.0824749
0.0848489
0.08742
0.0902533
0.0934457
0.0971283
0.101449
0.106577
0.112733
0.120178
0.127047
0.129093
0.128018
0.12581
0.122813
0.119276
0.114484
0.108967
0.102875
0.0958867
0.0811214
0.0468254
0.0681365
0.0676546
0.0674276
0.0674622
0.0677458
0.0682604
0.0689765
0.0698636
0.0709005
0.0720561
0.0733254
0.0747157
0.0762517
0.0779672
0.0798757
0.0819456
0.0841144
0.0863379
0.0886163
0.0909784
0.0934685
0.0961461
0.0990993
0.102446
0.106293
0.110712
0.115746
0.12137
0.127361
0.131696
0.132861
0.133093
0.132909
0.129384
0.121712
0.1145
0.106631
0.0955556
0.0764065
0.0402293
0.0710048
0.0702223
0.0699104