/*--------------------------------*- C++ -*----------------------------------*\
  =========                 |
  \\      /  F ield         | OpenFOAM: The Open Source CFD Toolbox
   \\    /   O peration     | Website:  https://openfoam.org
    \\  /    A nd           | Version:  8
     \\/     M anipulation  |
\*---------------------------------------------------------------------------*/
FoamFile
{
    version     2.0;
    format      ascii;
    class       volScalarField;
    location    "2.55";
    object      p;
}
// * * * * * * * * * * * * * * * * * * * * * * * * * * * * * * * * * * * * * //

dimensions      [1 -1 -2 0 0 0 0];

internalField   nonuniform List<scalar> 
9150
(
386.367
359.358
333.861
316.668
308.368
308.37
316.675
333.87
359.366
386.37
357.506
337.948
322.301
310.5
304.523
304.525
310.504
322.307
337.955
357.512
328.23
314.66
306.127
298.371
294.267
294.268
298.374
306.132
314.666
328.237
303.524
293.5
288.04
282.679
279.713
279.714
282.682
288.045
293.505
303.531
282.237
273.311
268.737
264.566
262.124
262.125
264.569
268.741
273.316
282.244
18.757
15.1196
40.3754
54.6866
61.42
61.4651
54.8147
40.5517
15.4
19.2485
189.291
165.24
159.929
158.764
158.938
158.96
158.825
160.024
165.385
189.441
293.836
262.575
246.706
236.859
232.236
232.246
236.889
246.753
262.637
293.889
374.479
332.386
304.629
287.303
278.824
278.83
287.319
304.651
332.411
374.491
425.376
372.58
333.976
311.945
301.817
301.82
311.954
333.989
372.592
425.374
-68.3255
-27.399
-36.8418
-27.5494
-32.4306
-31.4265
-27.1341
-34.9396
-25.029
-67.782
-59.5169
-39.5473
-58.8002
-48.8251
-53.6643
-53.0453
-49.2203
-57.1294
-38.4753
-58.6614
-101.467
-69.2224
-100.984
-91.9656
-89.0077
-88.906
-92.0588
-99.7399
-68.453
-100.13
-280.495
-153.78
-137.649
-118.331
-101.766
-101.73
-117.969
-136.63
-153.601
-278.543
-425.902
-185.518
-89.4498
-59.1821
-43.2446
-43.1774
-58.9087
-89.0491
-185.223
-424.226
1798.24
1798.15
1798.07
1797.98
1797.91
1797.83
1797.77
1797.71
1797.66
1797.61
1778.55
1778.47
1778.39
1778.32
1778.26
1778.2
1778.15
1778.11
1778.07
1778.03
1758.88
1758.81
1758.74
1758.67
1758.62
1758.57
1758.52
1758.48
1758.45
1758.42
1739.24
1739.16
1739.09
1739.03
1738.97
1738.92
1738.87
1738.83
1738.8
1738.76
1719.61
1719.52
1719.44
1719.37
1719.3
1719.25
1719.2
1719.15
1719.11
1719.07
1699.96
1699.86
1699.77
1699.69
1699.62
1699.55
1699.49
1699.43
1699.38
1699.34
1680.31
1680.19
1680.09
1679.99
1679.9
1679.82
1679.75
1679.68
1679.62
1679.56
1660.64
1660.51
1660.38
1660.27
1660.16
1660.06
1659.97
1659.89
1659.81
1659.74
1640.95
1640.8
1640.65
1640.52
1640.39
1640.27
1640.15
1640.05
1639.95
1639.86
1621.25
1621.07
1620.9
1620.74
1620.58
1620.43
1620.29
1620.16
1620.03
1619.91
1601.54
1601.34
1601.14
1600.94
1600.75
1600.56
1600.38
1600.21
1600.05
1599.9
1581.84
1581.6
1581.36
1581.12
1580.89
1580.66
1580.43
1580.21
1580
1579.79
1562.14
1561.86
1561.58
1561.3
1561.02
1560.73
1560.45
1560.16
1559.88
1559.6
1542.48
1542.16
1541.83
1541.5
1541.16
1540.81
1540.46
1540.1
1539.73
1539.37
1522.86
1522.5
1522.13
1521.75
1521.35
1520.93
1520.5
1520.04
1519.57
1519.08
1503.32
1502.93
1502.52
1502.08
1501.63
1501.14
1500.63
1500.07
1499.46
1498.8
1483.87
1483.46
1483.02
1482.56
1482.07
1481.54
1480.96
1480.32
1479.6
1478.79
1464.53
1464.11
1463.67
1463.2
1462.71
1462.17
1461.58
1460.91
1460.15
1459.25
1445.3
1444.91
1444.5
1444.07
1443.64
1443.19
1442.74
1442.3
1441.87
1441.47
1426.15
1425.78
1425.4
1425.01
1424.62
1424.23
1423.83
1423.45
1423.07
1422.71
1407.06
1406.71
1406.36
1406.01
1405.67
1405.33
1405
1404.68
1404.38
1404.11
1387.99
1387.68
1387.36
1387.06
1386.76
1386.47
1386.2
1385.94
1385.72
1385.53
1368.94
1368.65
1368.37
1368.1
1367.84
1367.59
1367.37
1367.16
1366.99
1366.85
1349.88
1349.62
1349.37
1349.13
1348.9
1348.68
1348.49
1348.32
1348.18
1348.07
1330.81
1330.57
1330.34
1330.12
1329.92
1329.73
1329.56
1329.41
1329.29
1329.2
1311.72
1311.5
1311.29
1311.08
1310.89
1310.71
1310.54
1310.4
1310.28
1310.2
1292.63
1292.42
1292.21
1292.01
1291.81
1291.63
1291.46
1291.3
1291.17
1291.07
1273.55
1273.33
1273.11
1272.9
1272.69
1272.48
1272.29
1272.11
1271.94
1271.8
1254.48
1254.24
1254
1253.76
1253.52
1253.28
1253.05
1252.82
1252.6
1252.4
1235.47
1235.18
1234.9
1234.61
1234.33
1234.04
1233.75
1233.46
1233.18
1232.91
1216.48
1216.14
1215.79
1215.45
1215.11
1214.76
1214.41
1214.06
1213.72
1213.39
1197.56
1197.12
1196.69
1196.27
1195.85
1195.42
1195
1194.57
1194.15
1193.74
1178.62
1178.09
1177.56
1177.05
1176.54
1176.03
1175.53
1175.04
1174.56
1174.1
1159.63
1158.99
1158.35
1157.74
1157.13
1156.54
1155.95
1155.39
1154.84
1154.32
1140.54
1139.78
1139.04
1138.31
1137.6
1136.9
1136.22
1135.55
1134.92
1134.31
1121.32
1120.45
1119.58
1118.73
1117.9
1117.09
1116.3
1115.53
1114.78
1114.06
1101.95
1100.95
1099.95
1098.98
1098.03
1097.1
1096.2
1095.32
1094.45
1093.6
1082.41
1081.26
1080.13
1079.03
1077.95
1076.91
1075.89
1074.89
1073.89
1072.86
1062.68
1061.38
1060.1
1058.87
1057.69
1056.57
1055.53
1054.56
1053.68
1052.87
1042.75
1041.24
1039.76
1038.34
1037
1035.74
1034.57
1033.48
1032.48
1031.62
1022.61
1020.83
1019.08
1017.38
1015.79
1014.31
1012.9
1011.52
1010.21
1009.5
1002.28
1000.13
997.978
995.919
994.054
992.397
990.801
989.201
988.212
988.656
981.843
979.323
976.801
974.288
972.037
970.221
968.27
965.768
964.076
964.124
962.078
959.554
955.857
949.524
944.055
945.17
945.414
937.673
930.939
951.528
941.245
936.028
926.357
915.961
913.343
915.982
926.79
908.412
916.739
920.267
918.387
909.896
904.143
903.061
901.763
898.862
897.86
897.435
899.655
900.142
900.382
898.693
896.672
895.783
895.432
895.102
894.883
894.796
894.959
895.133
889.749
894.647
894.438
894.158
893.897
893.59
893.392
893.418
893.46
893.068
882.153
889.704
892.318
892.645
892.482
892.288
892.129
891.983
891.569
888.464
869.838
873.911
882.391
887.45
888.33
888.758
888.952
887.507
882.492
871.996
853.629
851.172
852.919
860.092
867.317
870.259
866.764
861.68
853.724
843.754
839.981
836.873
833.71
832.11
831.885
832.333
831.849
828.755
823.642
817.572
826.585
824.094
821.317
818.529
815.891
813.369
810.487
806.789
802.125
796.642
812.17
809.441
806.571
803.533
800.29
796.79
792.913
788.505
783.518
778.036
797.577
794.552
791.318
787.872
784.181
780.207
775.906
771.24
766.217
760.897
783.219
779.89
776.325
772.523
768.484
764.198
759.66
754.878
749.874
744.701
769.225
765.576
761.676
757.545
753.195
748.641
743.906
739.014
734.004
728.929
755.753
751.718
747.427
742.915
738.209
733.34
728.347
723.276
718.182
713.137
742.819
738.307
733.532
728.536
723.352
718.027
712.62
707.191
701.82
696.6
730.639
725.465
720.047
714.39
708.525
702.512
696.432
690.37
684.424
678.734
719.301
713.294
707.033
700.451
693.549
686.454
679.314
672.208
665.244
658.675
707.678
700.789
693.616
685.932
677.657
669.221
660.942
652.711
644.281
635.867
698.143
691.909
686.461
680.095
671.866
663.077
653.112
643.782
636.958
625.785
697.064
691.731
687.111
681.172
675.926
670.478
665.418
659.379
652.125
646.419
713.332
705.432
697.733
689.213
680.517
672.412
664.12
656.126
649.529
642.057
708.683
698.293
686.025
672.387
658.352
644.951
639.764
625.455
608.727
596.206
679.689
666.265
650.883
635.27
620.033
606.822
594.584
580.316
564.611
550.465
650.006
636.833
622.638
607.408
591.655
575.781
558.896
541.966
524.517
508.02
628.122
612.59
595.184
577.206
557.842
537.932
517.717
497.347
477.065
456.854
598.596
579.18
558.206
536.266
513.743
489.071
465.355
439.864
416.383
392.48
559.521
536.671
512.459
486.692
459.588
431.215
401.849
371.982
343.387
318.37
514.07
488.497
461.57
433.106
402.851
370.395
336.216
305.241
289.092
290.134
464.902
438.628
411.514
383.23
353.173
321.343
295.125
288.816
297.157
300.862
415.322
391.51
367.977
344.47
320.663
299.432
294.905
301.434
302.627
302.903
368.289
349.784
332.704
317.173
304.047
296.53
301.852
303.155
303.015
302.962
325.392
313.355
303.183
295.199
290.929
293.112
302.484
303.229
303.145
303.069
287.609
281.909
277.608
274.752
274.141
279.868
294.999
302.66
303.201
303.211
255.466
255.413
255.782
256.496
257.319
259.997
272.294
293.643
302.333
302.974
228.725
233.682
237.908
241.424
243.857
244.505
246.527
262.359
289.465
301.099
206.209
215.772
223.566
229.658
234.033
236.232
235.645
236.024
249.048
277.547
185.889
199.681
210.858
219.372
225.364
228.98
231.043
228.589
225.988
231.148
166.25
183.793
198.194
209.171
216.904
221.814
224.368
224.3
220.131
214.321
146.391
166.918
184.212
197.679
207.397
213.883
217.687
219.574
218.636
215.054
124.808
147.983
167.939
183.906
195.754
204.033
209.322
212.25
213.172
211.939
103.899
129.414
151.07
168.691
182.134
191.945
198.774
203.038
205.084
205.041
93.7825
116.995
137.068
153.882
167.34
177.765
185.614
190.979
194.005
195.357
92.0595
108.547
124.729
139.105
151.359
161.574
169.948
176.29
180.278
181.938
87.1172
99.295
112.207
124.027
134.539
143.913
152.281
159.255
164.148
166.469
84.5015
90.9214
99.9342
108.985
117.478
125.563
133.404
140.488
146.009
148.823
71.9337
77.465
85.1164
93.1302
100.668
107.896
115.25
122.589
129.718
134.153
52.9463
61.501
69.7326
77.9981
85.5985
92.6467
100.041
108.592
118.837
124.009
36.3646
46.6176
55.2625
63.9683
72.0477
79.2937
86.9105
96.4382
108.401
111.918
16.4668
30.1714
40.5991
50.2611
59.0656
66.7603
74.5268
84.1639
96.1144
99.1959
4.15664
16.602
27.4296
37.1703
45.9231
53.6657
61.3946
71.0961
83.5242
86.6656
-1.6489
6.49932
15.8587
24.4023
31.8841
38.4667
44.8541
52.46
60.9935
54.1025
-4.36103
-1.219
5.70916
12.1374
17.7905
22.7093
27.5272
33.0758
38.3607
27.5685
-7.3529
-9.4337
-4.30302
0.0045169
4.19103
7.27706
9.78606
12.8378
12.8622
5.86431
-12.7107
-18.2915
-12.5015
-10.0624
-6.57893
-4.82625
-4.53484
-3.20644
-7.0434
-7.63267
-23.681
-16.6063
-13.0861
-15.0501
-13.7148
-12.5864
-11.7845
-8.92769
-11.0137
-20.1203
-39.4297
-3.0528
-14.253
-18.6362
-21.3023
-20.1892
-16.7363
-11.8897
-0.42954
-37.0917
1797.57
1797.54
1797.51
1797.5
1797.49
1797.5
1797.51
1797.53
1797.56
1797.59
1797.64
1797.69
1797.74
1797.8
1797.86
1797.91
1797.96
1798.01
1798.04
1798.06
1798.05
1798.03
1797.97
1797.88
1797.76
1797.6
1797.41
1797.19
1796.94
1796.67
1796.4
1796.12
1795.88
1795.66
1795.5
1795.38
1795.31
1795.28
1795.26
1795.38
1778
1777.97
1777.95
1777.93
1777.91
1777.9
1777.9
1777.89
1777.89
1777.89
1777.9
1777.91
1777.92
1777.92
1777.93
1777.93
1777.93
1777.92
1777.91
1777.87
1777.83
1777.76
1777.68
1777.57
1777.44
1777.28
1777.11
1776.92
1776.71
1776.5
1776.29
1776.1
1775.93
1775.8
1775.7
1775.65
1775.63
1775.63
1775.63
1775.89
1758.39
1758.36
1758.33
1758.31
1758.29
1758.26
1758.24
1758.21
1758.19
1758.16
1758.13
1758.11
1758.08
1758.05
1758.01
1757.97
1757.93
1757.88
1757.83
1757.76
1757.69
1757.6
1757.5
1757.39
1757.26
1757.12
1756.97
1756.81
1756.65
1756.49
1756.34
1756.2
1756.09
1755.99
1755.92
1755.86
1755.81
1755.78
1755.78
1755.99
1738.73
1738.7
1738.67
1738.64
1738.6
1738.57
1738.53
1738.49
1738.45
1738.41
1738.36
1738.32
1738.27
1738.22
1738.16
1738.11
1738.05
1737.98
1737.92
1737.84
1737.76
1737.67
1737.58
1737.47
1737.36
1737.23
1737.1
1736.97
1736.83
1736.69
1736.55
1736.41
1736.29
1736.17
1736.06
1735.98
1735.91
1735.86
1735.85
1735.9
1719.03
1718.99
1718.96
1718.92
1718.88
1718.84
1718.79
1718.75
1718.7
1718.65
1718.59
1718.54
1718.48
1718.43
1718.37
1718.31
1718.25
1718.19
1718.13
1718.06
1717.99
1717.91
1717.83
1717.75
1717.65
1717.55
1717.44
1717.32
1717.18
1717.04
1716.89
1716.73
1716.55
1716.38
1716.21
1716.06
1715.97
1715.91
1715.87
1715.85
1699.29
1699.24
1699.2
1699.15
1699.11
1699.06
1699.02
1698.97
1698.92
1698.87
1698.81
1698.76
1698.71
1698.66
1698.61
1698.56
1698.51
1698.46
1698.41
1698.37
1698.32
1698.26
1698.21
1698.14
1698.08
1698
1697.91
1697.81
1697.68
1697.54
1697.36
1697.15
1696.91
1696.62
1696.31
1696.06
1695.94
1695.93
1695.9
1695.77
1679.51
1679.45
1679.4
1679.35
1679.3
1679.25
1679.2
1679.15
1679.11
1679.06
1679.02
1678.97
1678.93
1678.9
1678.86
1678.83
1678.8
1678.77
1678.75
1678.73
1678.71
1678.68
1678.66
1678.63
1678.6
1678.56
1678.5
1678.43
1678.33
1678.19
1678
1677.75
1677.42
1676.98
1676.48
1675.97
1675.66
1675.85
1675.97
1675.63
1659.67
1659.6
1659.54
1659.48
1659.43
1659.38
1659.33
1659.29
1659.25
1659.22
1659.19
1659.16
1659.14
1659.12
1659.1
1659.1
1659.09
1659.1
1659.1
1659.11
1659.13
1659.14
1659.16
1659.18
1659.19
1659.2
1659.19
1659.17
1659.13
1659.04
1658.9
1658.68
1658.35
1657.86
1657.06
1658.76
1658.88
1656.08
1656.43
1655.73
1639.77
1639.69
1639.61
1639.55
1639.49
1639.44
1639.4
1639.37
1639.34
1639.32
1639.31
1639.3
1639.3
1639.31
1639.33
1639.35
1639.37
1639.41
1639.45
1639.5
1639.55
1639.61
1639.67
1639.74
1639.81
1639.88
1639.95
1640.02
1640.09
1640.14
1640.19
1640.23
1640.24
1640.23
1640.23
1642
1643.33
1642.37
1641.55
1641.48
1619.8
1619.7
1619.61
1619.53
1619.47
1619.43
1619.4
1619.38
1619.37
1619.37
1619.38
1619.4
1619.43
1619.46
1619.51
1619.56
1619.62
1619.69
1619.77
1619.86
1619.95
1620.05
1620.16
1620.27
1620.4
1620.53
1620.67
1620.82
1620.98
1621.15
1621.34
1621.56
1621.81
1622.11
1622.51
1622.92
1623.31
1625.06
1624.77
1624.3
1599.75
1599.6
1599.49
1599.41
1599.35
1599.31
1599.29
1599.29
1599.3
1599.33
1599.37
1599.42
1599.49
1599.56
1599.64
1599.73
1599.82
1599.93
1600.04
1600.17
1600.3
1600.44
1600.59
1600.74
1600.91
1601.09
1601.27
1601.47
1601.69
1601.93
1602.19
1602.47
1602.79
1603.15
1603.54
1603.92
1604.24
1604.34
1604.1
1603.9
1579.61
1579.38
1579.24
1579.14
1579.08
1579.05
1579.05
1579.08
1579.13
1579.2
1579.28
1579.37
1579.47
1579.59
1579.71
1579.83
1579.97
1580.11
1580.26
1580.42
1580.59
1580.76
1580.94
1581.13
1581.33
1581.53
1581.75
1581.97
1582.21
1582.46
1582.73
1583
1583.29
1583.59
1583.87
1584.11
1584.24
1584.18
1583.85
1583.35
1559.32
1559.33
1558.9
1558.68
1558.64
1558.63
1558.68
1558.73
1558.83
1558.95
1559.09
1559.23
1559.39
1559.55
1559.71
1559.88
1560.06
1560.24
1560.42
1560.62
1560.81
1561.01
1561.22
1561.43
1561.64
1561.86
1562.09
1562.32
1562.56
1562.79
1563.04
1563.28
1563.51
1563.72
1563.89
1564
1563.99
1563.79
1563.38
1562.84
1539
1538.83
1539.12
1537.99
1537.95
1537.97
1538.1
1538.22
1538.4
1538.59
1538.8
1539.01
1539.23
1539.45
1539.67
1539.88
1540.1
1540.31
1540.53
1540.75
1540.97
1541.2
1541.42
1541.65
1541.87
1542.1
1542.32
1542.55
1542.77
1542.99
1543.19
1543.38
1543.55
1543.69
1543.77
1543.77
1543.66
1543.38
1542.92
1542.4
1518.56
1518.06
1519.59
1517.17
1517
1517.05
1517.28
1517.53
1517.81
1518.12
1518.42
1518.72
1519.01
1519.3
1519.57
1519.83
1520.09
1520.34
1520.59
1520.84
1521.09
1521.33
1521.57
1521.8
1522.03
1522.26
1522.48
1522.69
1522.89
1523.08
1523.25
1523.4
1523.51
1523.58
1523.59
1523.52
1523.33
1523
1522.51
1522
1498.06
1497.21
1498.46
1496.02
1495.41
1495.63
1496.12
1496.61
1497.08
1497.54
1497.97
1498.38
1498.76
1499.12
1499.45
1499.76
1500.06
1500.34
1500.62
1500.9
1501.16
1501.42
1501.67
1501.91
1502.14
1502.36
1502.57
1502.77
1502.95
1503.11
1503.25
1503.36
1503.43
1503.45
1503.41
1503.28
1503.04
1502.67
1502.19
1501.68
1477.83
1476.65
1476.34
1476.35
1472.15
1473.29
1474.46
1475.42
1476.22
1476.91
1477.51
1478.04
1478.52
1478.95
1479.34
1479.69
1480.02
1480.36
1480.66
1480.94
1481.23
1481.49
1481.74
1481.98
1482.21
1482.43
1482.63
1482.81
1482.97
1483.11
1483.22
1483.3
1483.33
1483.32
1483.23
1483.07
1482.8
1482.4
1481.9
1481.4
1458.13
1456.74
1455.12
1473.86
1460.93
1452.27
1453.46
1454.71
1455.71
1456.53
1457.23
1457.85
1458.39
1458.87
1459.31
1459.7
1460.09
1460.47
1460.77
1461.02
1461.3
1461.56
1461.81
1462.04
1462.26
1462.46
1462.65
1462.81
1462.96
1463.08
1463.16
1463.21
1463.22
1463.17
1463.05
1462.86
1462.56
1462.13
1461.6
1461.1
1441.11
1441.08
1442.5
1450.43
1455.44
1432.27
1432.9
1434.37
1435.55
1436.44
1437.19
1437.84
1438.42
1438.93
1439.39
1439.8
1440.21
1440.55
1440.86
1441.14
1441.41
1441.63
1441.87
1442.09
1442.29
1442.48
1442.65
1442.79
1442.92
1443.01
1443.08
1443.1
1443.08
1443.01
1442.87
1442.64
1442.32
1441.86
1441.31
1440.79
1422.33
1421.98
1421.96
1424.51
1432.56
1427.91
1414.92
1415.01
1416.13
1416.92
1417.53
1418.1
1418.65
1419.14
1419.58
1419.98
1420.35
1420.7
1420.99
1421.27
1421.53
1421.74
1421.94
1422.14
1422.32
1422.48
1422.62
1422.75
1422.85
1422.92
1422.96
1422.96
1422.92
1422.83
1422.66
1422.42
1422.07
1421.62
1421.08
1420.59
1403.84
1403.61
1403.56
1404.36
1404.92
1409.59
1406.07
1395.2
1395.26
1396.93
1397.93
1398.52
1399.02
1399.47
1399.88
1400.24
1400.57
1400.86
1401.12
1401.43
1401.67
1401.81
1401.99
1402.16
1402.32
1402.45
1402.56
1402.66
1402.73
1402.78
1402.8
1402.78
1402.72
1402.61
1402.43
1402.17
1401.82
1401.4
1400.84
1400.31
1385.39
1385.32
1385.35
1385.6
1386.1
1385.72
1387.57
1384.43
1376.63
1376.42
1378.12
1379.15
1379.61
1379.96
1380.29
1380.57
1380.81
1381.05
1381.3
1381.52
1381.72
1381.89
1382.05
1382.18
1382.29
1382.39
1382.46
1382.52
1382.56
1382.58
1382.57
1382.53
1382.45
1382.33
1382.14
1381.88
1381.53
1381.11
1380.53
1379.99
1366.75
1366.74
1366.81
1366.95
1367.17
1367.46
1367.16
1366.86
1363.9
1358.63
1358.1
1359.64
1360.42
1360.65
1360.81
1360.95
1361.05
1361.17
1361.39
1361.64
1361.85
1361.99
1362.09
1362.17
1362.23
1362.27
1362.3
1362.31
1362.3
1362.29
1362.25
1362.19
1362.1
1361.96
1361.77
1361.51
1361.15
1360.68
1360.11
1359.6
1348
1348.01
1348.08
1348.22
1348.42
1348.71
1349.19
1348.52
1346.54
1343.81
1339.97
1339.72
1341.18
1341.5
1341.47
1341.42
1341.37
1341.71
1342.47
1341.83
1342
1342.08
1342.12
1342.13
1342.12
1342.1
1342.06
1342.01
1341.95
1341.89
1341.82
1341.74
1341.64
1341.49
1341.3
1341.03
1340.67
1340.18
1339.58
1339.01
1329.15
1329.18
1329.28
1329.46
1329.72
1330.1
1330.73
1331.42
1329.66
1327.28
1325.82
1320.33
1321.39
1322.26
1322.24
1322.1
1322.24
1323.58
1323.87
1322.31
1322.26
1322.22
1322.15
1322.07
1321.97
1321.85
1321.73
1321.59
1321.46
1321.34
1321.24
1321.16
1321.04
1320.88
1320.69
1320.44
1320.1
1319.62
1319
1318.4
1310.15
1310.18
1310.27
1310.44
1310.71
1311.08
1311.61
1312.36
1312.14
1308.93
1308.5
1306.57
1304.06
1304.04
1303.78
1303
1303.47
1303.68
1303.44
1302.77
1302.53
1302.34
1302.15
1301.96
1301.75
1301.53
1301.29
1301.04
1300.79
1300.59
1300.47
1300.39
1300.27
1300.1
1299.93
1299.72
1299.42
1298.97
1298.36
1297.74
1291.02
1291.02
1291.1
1291.28
1291.57
1292.02
1292.71
1293.74
1294.92
1293.5
1292.73
1293.09
1282.66
1282.42
1283.56
1283.31
1283.98
1284.27
1282.94
1282.75
1282.52
1282.28
1282.02
1281.76
1281.46
1281.14
1280.76
1280.34
1279.9
1279.57
1279.46
1279.54
1279.42
1279.16
1279
1278.84
1278.64
1278.18
1277.6
1277.04
1271.69
1271.64
1271.64
1271.73
1271.91
1272.22
1272.74
1273.62
1275.02
1275.09
1276.15
1277.56
1264.33
1263.51
1264.65
1264.51
1265.07
1265.1
1263.11
1262.87
1262.52
1262.17
1261.83
1261.52
1261.18
1260.78
1260.32
1259.84
1259.52
1259.68
1259.68
1259.24
1259.15
1259.07
1258.69
1258.25
1257.75
1257.42
1256.77
1256.28
1252.22
1252.07
1251.96
1251.87
1251.8
1251.7
1251.51
1251.09
1249.88
1245.84
1260.99
1259.32
1252.29
1248.79
1247.42
1245.58
1246.67
1245.26
1243.98
1243.21
1242.53
1241.96
1241.54
1241.24
1240.94
1240.54
1240.13
1239.97
1240.27
1240.28
1240.09
1239.83
1239.66
1239.66
1239.4
1238.09
1237.21
1236.58
1235.84
1235.5
1232.65
1232.4
1232.17
1231.96
1231.73
1231.5
1231.26
1230.98
1230.29
1227.96
1243.93
1237.12
1232.96
1230.43
1229.05
1226.84
1227.97
1225.06
1223.98
1223.02
1222.06
1221.27
1220.82
1220.76
1220.72
1220.32
1220.01
1220.47
1220.37
1219.86
1219.59
1219.65
1219.63
1219.02
1218.08
1217.14
1216.85
1215.67
1215.43
1214.56
1213.06
1212.76
1212.5
1212.29
1212.15
1212.13
1212.33
1212.86
1213.6
1215.96
1225.13
1209.84
1209.1
1208.66
1207.97
1207.42
1207.87
1204.77
1203.77
1202.73
1201.78
1201.67
1202.4
1200.24
1200.89
1200.04
1200.16
1200.4
1198.89
1199.68
1199.57
1198.47
1198.78
1197.27
1197.06
1196.64
1196.13
1195.3
1194.61
1193.82
1193.32
1192.89
1192.46
1191.99
1191.45
1190.8
1189.97
1188.93
1188.42
1201.82
1199.12
1193.82
1191.31
1189.87
1188.5
1187.6
1185.91
1184.83
1183.81
1182.91
1182.37
1182.49
1182.19
1181.35
1179.83
1179.18
1178.57
1177.82
1177.41
1177.07
1176.64
1176.1
1175.71
1175.55
1175.52
1175.45
1175.18
1174.54
1173.63
1172.68
1173.63
1173.17
1172.72
1172.24
1171.65
1170.87
1169.74
1167.48
1183.73
1183.78
1175.37
1172.45
1170.54
1169
1168.05
1166.88
1165.72
1164.63
1163.8
1163.36
1162.97
1162.34
1161.28
1160.35
1159.52
1158.45
1156.89
1155.96
1155.08
1154.38
1153.8
1153.37
1153.16
1153.21
1153.47
1153.79
1153.87
1153.38
1152.14
1151.28
1153.83
1153.38
1153.02
1152.77
1152.72
1153.13
1154.52
1157.25
1165.36
1150.28
1149.86
1149.38
1148.51
1148.27
1147.25
1146.65
1145.48
1144.7
1144.16
1143.54
1142.75
1141.66
1140.88
1139.37
1137.65
1136.12
1134.77
1133.51
1132.35
1131.34
1130.51
1129.94
1129.71
1129.89
1130.47
1131.31
1132
1131.87
1130.33
1127.97
1133.73
1133.17
1132.69
1132.32
1132.3
1133.29
1135.49
1139.87
1130.2
1129.21
1128.72
1128.18
1128.27
1127.62
1126.96
1126.17
1125.65
1125.53
1124.62
1123.53
1122.38
1120.97
1119.36
1117.7
1115.98
1114.25
1112.55
1110.9
1109.32
1107.85
1106.58
1105.62
1105.11
1105.19
1105.95
1107.52
1109.35
1109.95
1108.1
1104.7
1113.32
1112.56
1111.82
1111.35
1111.94
1114.56
1117.42
1111.3
1110.42
1108.93
1108.28
1108.3
1107.84
1107.17
1106.89
1106.02
1105.84
1106.45
1105.15
1103.09
1101.6
1099.95
1098.24
1096.43
1094.51
1092.51
1090.44
1088.32
1086.17
1084.02
1081.96
1080.11
1078.62
1077.53
1077.25
1079.79
1084.77
1084.1
1082.79
1079.35
1092.68
1091.65
1090.62
1090.31
1093.24
1096.91
1093.97
1091.99
1090.38
1088.82
1088.56
1087.8
1087.14
1086.54
1086.01
1085.42
1084.59
1085.09
1083.98
1081.66
1080.5
1079.05
1077.39
1075.51
1073.45
1071.2
1068.77
1066.16
1063.36
1060.37
1057.22
1053.91
1050.19
1045.36
1044.02
1056.08
1052.08
1053.13
1053.88
1052.3
1071.69
1070.33
1069.05
1067.63
1080.76
1078.35
1073.93
1071.06
1069.41
1067.96
1067.59
1066.47
1065.93
1065.44
1064.96
1064.46
1063.86
1063.11
1062.2
1061.24
1060.18
1058.84
1057.22
1055.32
1053.15
1050.71
1048.03
1045.12
1041.95
1038.52
1034.73
1030.41
1025.35
1020.45
1031.24
1038.77
1021.33
1026.26
1028.43
1026.07
1052.16
1051.95
1052.48
1058.86
1062.99
1049.18
1048.21
1046.8
1045.97
1045.56
1045.28
1044.88
1044.52
1044.19
1043.88
1043.55
1043.18
1042.71
1042.15
1041.47
1040.58
1039.41
1037.91
1036.06
1033.87
1031.38
1028.71
1025.96
1022.99
1019.46
1015.25
1010.95
1008.99
1010.44
1013.72
1011.2
1006.11
1007.59
1001.51
998.558
1031.39
1032.85
1035.17
1041.45
1026.47
1025.92
1024.8
1023.17
1023.99
1024.13
1023.27
1023.2
1023
1022.85
1022.77
1022.72
1022.68
1022.62
1022.48
1022.2
1021.69
1020.89
1019.68
1018.04
1016.05
1013.61
1011.25
1008.68
1005.01
999.51
995.747
996.761
1000.68
1002.18
999.837
991.057
1000.56
979.453
982.389
981.523
1010.57
1015.12
1017.47
1008.51
1006.78
1005.99
1001.47
1004.41
1005.37
1002.15
1001.84
1001.65
1001.49
1001.46
1001.58
1001.84
1002.21
1002.65
1003.09
1003.44
1003.6
1003.42
1002.93
1001.96
1000.32
998.583
994.375
989.755
984.768
981.702
986.395
988.942
989.005
988.791
987.656
986.815
976.413
980.347
982.352
981.165
991.638
996.879
991.477
987.02
985.911
980.319
981.319
981.934
981.969
980.845
980.397
979.999
979.779
979.805
980.105
980.689
981.534
982.575
983.766
984.997
986.162
987.101
987.823
988.352
987.238
984.077
982.096
980.548
978.981
979.593
980.587
979.342
987.208
989.408
987.886
986.08
981.105
981.166
981.341
981.264
973.254
967.421
966.219
965.408
960.511
961.605
961.339
960.956
960.15
959.445
958.718
958.052
957.655
957.616
958.019
958.903
960.28
962
964.05
966.385
968.876
971.438
974.305
977.267
979.744
978.271
977.609
978.326
977.522
977.397
977.569
979.045
986.935
989.817
989.055
985.901
981.585
980.938
980.953
981.012
939.153
943.284
942.778
942.542
942.012
942.874
942.039
941.125
938.668
937.485
936.536
935.572
934.787
934.386
934.679
935.877
937.805
940.377
943.261
946.661
950.548
954.792
959.548
965.053
971.43
975.326
976.663
977.038
976.817
976.749
976.543
976.539
977.903
983.732
996.83
989.969
980.727
980.351
980.482
980.543
913.633
919.951
921.449
921.527
921.015
920.096
919.178
918.979
915.999
914.975
913.851
912.337
910.55
909.054
908.778
910.275
913.559
917.33
921.092
925.309
930.419
936.252
942.396
948.916
956.987
965.986
970.744
975.396
976.427
976.365
976.325
976.361
976.584
977.221
980.843
980.098
979.731
979.906
980.01
980.066
900.925
903.053
904.116
902.845
901.192
899.636
898.086
896.516
895.07
893.79
892.282
890.13
887.63
887.547
889.467
893.187
895.787
898.919
902.592
906.52
910.908
917.224
925.304
930.346
935.737
946.677
956.172
960.793
970.258
974.866
976.363
976.831
977.159
977.466
978.317
979.215
979.456
979.593
979.681
979.709
894.907
889.655
887.768
885.002
882.341
880.12
878.109
876.436
875.038
873.975
873.188
872.63
873.699
884.16
887.01
888.828
891.365
894.886
899.151
903.841
908.729
912.864
916.364
923.636
930.403
930.666
933.602
945.463
951.172
961.011
969.822
975.265
977.586
978.367
978.847
979.143
979.311
979.417
979.478
979.491
889.811
879.172
872.495
867.781
864.006
860.785
857.978
855.652
853.947
852.958
852.943
854.458
858.87
871.218
872.38
872.815
873.982
876.138
879.572
884.163
889.676
895.906
904.296
910.638
916.608
924.471
924.779
931.226
940.255
948.076
955.506
963.985
972.278
977.31
978.943
979.261
979.306
979.319
979.336
979.357
878.041
865.031
856.473
850.303
845.013
840.44
836.249
832.761
829.959
827.94
826.956
827.278
829.651
834.684
838.207
840.948
844.524
848.654
853.787
860.199
866.273
870.798
877.784
884.957
895.079
906.256
912.322
923.093
926.634
933.741
941.951
949.355
957.882
968.01
976.442
978.952
979.209
979.231
979.247
979.28
858.433
846.877
838.211
830.922
824.36
818.402
813.002
808.168
803.979
800.572
798.031
796.492
797.356
797.65
799.567
801.956
805.747
810.98
817.679
825.562
834.069
842.808
852.336
863.318
874.839
885.826
896.176
905.495
917.063
923.311
927.974
936.167
943.904
953.132
965.178
975.645
978.927
979.146
979.169
979.227
834.032
825.185
817.096
809.474
802.234
795.335
788.753
782.529
776.792
771.612
767.604
765.176
762.248
761.389
761.388
763.085
767.231
773.487
781.789
791.839
803.086
815.065
827.626
840.674
853.663
865.969
877.6
888.623
905.375
912.782
916.524
924.956
933.097
941.155
950.906
964.866
976.32
978.837
979.133
979.325
810.718
803.214
795.596
787.975
780.387
772.8
765.202
758.28
752.814
746.907
739.953
734.552
730.437
726.186
722.824
722.061
725.084
732.108
742.46
755.331
769.999
785.663
801.657
817.494
832.717
846.96
859.924
871.712
887.346
895.233
904.593
913.529
922.177
930.697
939.472
950.315
964.388
973.78
980.024
979.039
790.255
783.134
775.778
768.262
760.52
752.356
744.596
739.106
733.502
723.938
716.299
708.755
699.949
689.587
680.137
674.82
675.921
683.822
697.774
715.504
734.953
755.125
775.127
794.283
812.21
828.661
843.474
857.578
869.894
881.885
892.092
901.324
910.283
919.072
927.809
936.988
947.407
957.718
980.186
977.995
771.885
765.108
758.135
750.944
743.034
734.963
731.095
722.528
714.317
707.498
697.909
685.585
672.414
662.311
661.961
662.042
661.718
660.989
665.264
679.599
702.018
726.861
750.783
773.014
793.369
811.761
828.218
843.065
856.395
868.497
879.161
888.772
898.097
907.322
916.756
926.776
937.874
950.636
967.811
979.867
755.074
748.803
742.487
735.876
729.078
724.428
718.574
710.188
704.084
696.188
681.741
667.124
662.167
660.402
659.736
659.639
659.707
660.043
660.997
663.391
677.933
704.676
731.618
755.505
777.092
796.49
813.67
828.821
842.228
854.179
864.948
874.779
884.067
893.27
902.82
913.186
925.118
940.056
958.409
975.014
739.127
733.219
727.326
721.177
715.164
713.371
708.249
700.668
697.735
682.225
667.765
660.312
658.983
658.832
658.788
658.698
658.627
658.694
658.926
660.076
666.065
689.487
718.052
742.026
763.277
782.416
799.281
813.999
826.885
838.259
848.428
857.731
866.57
875.394
884.697
895.021
907.327
923.245
943.16
961.607
723.553
717.935
712.405
706.912
701.579
697.246
694.285
692.849
685.993
669.921
662.104
658.932
658.242
658.032
657.743
657.526
657.37
657.411
657.592
658.777
662.35
681.803
709.097
731.303
750.848
768.462
783.889
797.218
808.762
818.852
827.838
836.097
844.041
852.118
860.837
870.775
882.988
899.291
920.063
940.004
707.92
702.632
697.62
692.95
688.774
685.481
683.597
682.978
679.465
667.298
660.312
657.695
656.86
656.631
656.249
655.966
655.867
655.953
656.309
657.675
662.605
681.437
703.725
721.78
738.244
753.118
766.034
777.032
786.36
794.347
801.459
808.189
814.939
822.079
830.065
839.497
851.457
867.868
889.079
909.468
691.342
686.191
681.49
677.304
673.79
671.237
670.058
670.513
670.827
665.33
658.154
655.726
655.217
655.158
654.576
654.271
654.183
654.409
655.168
656.907
664.598
681.44
696.352
709.778
722.569
734.055
743.876
751.978
758.248
763.092
767.575
772.414
777.867
784.102
791.445
800.423
812.057
828.205
849.149
869.392
673.171
667.941
663.287
659.144
655.612
652.938
651.462
651.539
653.06
653.866
652.897
652.277
652.879
652.974
652.369
652.1
652.323
652.947
654.043
656.799
664.611
673.927
682.857
692.541
702.158
711.052
718.793
724.195
726.022
725.114
725.191
727.797
732.193
737.936
745.06
753.879
765.222
780.703
800.554
819.773
652.595
647.46
643.048
638.849
634.887
631.516
629.097
627.988
628.5
630.909
635.601
642.395
648.107
648.156
647.469
647.484
648.151
649.374
650.31
649.963
652.006
655.922
662.468
671.08
680.337
689.253
697.289
699.084
688.515
675.621
670.795
672.538
677.777
684.489
692.384
701.675
712.938
727.42
745.313
762.371
628.606
623.97
620.871
617.101
612.618
608.119
604.262
601.472
600.21
601.095
605.347
614.696
625.325
628.758
633.045
631.994
634.747
630.141
625.075
621.138
621.512
625.875
633.312
642.181
648.487
644.248
628.323
615.425
626.782
612.034
598.872
603.503
614.945
625.966
636.438
647.135
658.639
671.883
687.084
701.566
615.821
607.14
602.305
597.469
590.905
584.115
577.757
572.162
567.632
564.516
563.366
563.234
560.463
561.635
581.568
575.882
579.332
573.523
570.741
571.924
574.902
578.71
576.486
559.876
534.877
514.653
515.53
534.974
542.19
517.658
514.2
533.823
554.529
570.394
583.569
595.572
607.029
618.678
630.762
643.25
639.865
619.755
604.306
588.989
574.401
562.12
551.542
542.142
533.869
527.061
521.474
515.034
513.072
509.201
511.286
513.525
514.759
515.457
516.079
515.955
505.475
481.431
460.242
451.266
459.94
462.956
464.327
469.392
473.099
466.462
473.305
493.709
512.751
527.721
540.37
551.636
561.906