/*--------------------------------*- C++ -*----------------------------------*\
  =========                 |
  \\      /  F ield         | OpenFOAM: The Open Source CFD Toolbox
   \\    /   O peration     | Website:  https://openfoam.org
    \\  /    A nd           | Version:  8
     \\/     M anipulation  |
\*---------------------------------------------------------------------------*/
FoamFile
{
    version     2.0;
    format      ascii;
    class       volVectorField;
    location    "2.55";
    object      U;
}
// * * * * * * * * * * * * * * * * * * * * * * * * * * * * * * * * * * * * * //

dimensions      [0 1 -1 0 0 0 0];

internalField   nonuniform List<vector> 
9150
(
(0.0537539 -0.428892 0)
(0.0878961 -0.622295 0)
(0.0730933 -0.631459 0)
(0.0486248 -0.643735 0)
(0.017018 -0.654441 0)
(-0.0170548 -0.654437 0)
(-0.0486547 -0.643724 0)
(-0.073115 -0.631453 0)
(-0.0879142 -0.622291 0)
(-0.0537648 -0.428855 0)
(0.0407346 -0.522882 0)
(0.0573414 -0.625686 0)
(0.0420565 -0.613217 0)
(0.0293928 -0.62246 0)
(0.0104761 -0.628862 0)
(-0.0104985 -0.628861 0)
(-0.0294118 -0.622455 0)
(-0.0420709 -0.613213 0)
(-0.0573563 -0.625691 0)
(-0.0407451 -0.522861 0)
(0.0252167 -0.558024 0)
(0.032441 -0.61382 0)
(0.022979 -0.604476 0)
(0.0172592 -0.609993 0)
(0.00623604 -0.613191 0)
(-0.00624898 -0.61319 0)
(-0.0172705 -0.609991 0)
(-0.0229872 -0.604474 0)
(-0.0324506 -0.613823 0)
(-0.0252237 -0.558014 0)
(0.0153382 -0.584755 0)
(0.0174301 -0.607469 0)
(0.0117028 -0.601139 0)
(0.00887121 -0.603283 0)
(0.0032377 -0.604398 0)
(-0.00324403 -0.604398 0)
(-0.0088768 -0.603282 0)
(-0.011707 -0.601139 0)
(-0.0174352 -0.607471 0)
(-0.0153419 -0.584752 0)
(0.00625649 -0.597167 0)
(0.00554235 -0.601396 0)
(0.00357274 -0.60004 0)
(0.00267807 -0.600348 0)
(0.000992066 -0.600483 0)
(-0.000993633 -0.600483 0)
(-0.00267943 -0.600348 0)
(-0.00357372 -0.60004 0)
(-0.00554374 -0.601396 0)
(-0.00625756 -0.597167 0)
(0.469574 -1.16262 1.57057e-24)
(0.282618 -1.08629 0)
(0.162904 -1.06947 0)
(0.0918563 -1.0577 0)
(0.0300485 -1.05293 0)
(-0.0306236 -1.05286 0)
(-0.0923672 -1.05749 0)
(-0.163355 -1.06917 0)
(-0.282961 -1.08587 0)
(-0.469491 -1.16192 -1.56261e-24)
(0.334229 -0.844564 4.32008e-25)
(0.287201 -0.937012 0)
(0.188155 -0.936934 0)
(0.108039 -0.936789 0)
(0.0355547 -0.939089 0)
(-0.0358764 -0.939041 0)
(-0.108318 -0.936656 0)
(-0.188397 -0.936764 0)
(-0.287293 -0.93679 0)
(-0.334148 -0.844182 -4.30749e-25)
(0.279106 -0.702633 7.19133e-26)
(0.259074 -0.804825 0)
(0.178089 -0.817586 0)
(0.104526 -0.828375 0)
(0.0347407 -0.836449 0)
(-0.0349275 -0.836423 0)
(-0.104686 -0.828301 0)
(-0.178207 -0.817493 0)
(-0.259108 -0.804721 0)
(-0.279089 -0.702477 -7.16953e-26)
(0.199893 -0.554382 2.6963e-25)
(0.216682 -0.709496 0)
(0.154281 -0.725892 0)
(0.0913202 -0.742025 0)
(0.0304824 -0.753919 0)
(-0.0305897 -0.753904 0)
(-0.0914097 -0.741984 0)
(-0.154344 -0.72585 0)
(-0.216698 -0.709456 0)
(-0.199888 -0.554286 -2.69535e-25)
(0.118619 -0.445398 -4.39407e-25)
(0.156333 -0.644285 -6.29546e-25)
(0.116682 -0.663773 -2.13142e-25)
(0.0709048 -0.681204 -1.39656e-25)
(0.0239274 -0.694195 -7.99807e-27)
(-0.02399 -0.694187 -8.02545e-27)
(-0.0709559 -0.681183 -1.39728e-25)
(-0.116717 -0.663756 -2.13165e-25)
(-0.156349 -0.64427 -6.29467e-25)
(-0.118629 -0.445343 -4.39306e-25)
(0.0159907 -0.943845 0)
(-0.043252 -1.33783 0)
(0.0204055 -1.2663 0)
(-0.00837945 -1.22336 0)
(0.00177031 -1.22222 0)
(-0.00561162 -1.22115 0)
(0.00222854 -1.22299 0)
(-0.0246274 -1.26793 0)
(0.0381553 -1.33656 0)
(-0.0182245 -0.920025 0)
(0.0473497 -0.91749 0)
(-0.0270154 -1.33415 0)
(0.021404 -1.26866 0)
(-0.00265484 -1.22285 0)
(-0.00044113 -1.22189 0)
(-0.00211583 -1.2212 0)
(-0.0016784 -1.22302 0)
(-0.0237443 -1.26945 0)
(0.0221112 -1.33291 0)
(-0.0489176 -0.903095 0)
(0.0758253 -0.95125 0)
(-0.0263904 -1.34828 0)
(0.0158463 -1.27526 0)
(0.0038169 -1.23069 0)
(-0.00144903 -1.22604 0)
(-0.000634461 -1.22576 0)
(-0.00660546 -1.2307 0)
(-0.0171881 -1.27523 0)
(0.0221571 -1.34798 0)
(-0.0776232 -0.941902 0)
(0.143595 -1.08178 0)
(0.000509423 -1.36644 0)
(0.0145069 -1.27171 0)
(0.0207022 -1.22591 0)
(0.00485964 -1.2142 0)
(-0.0065041 -1.2141 0)
(-0.022262 -1.22559 0)
(-0.015296 -1.27141 0)
(-0.00349108 -1.36634 0)
(-0.144694 -1.07688 0)
(0.298532 -1.21982 0)
(0.125981 -1.32222 0)
(0.0682397 -1.21067 0)
(0.0558178 -1.16903 0)
(0.019523 -1.15634 0)
(-0.0205184 -1.15624 0)
(-0.0566058 -1.16866 0)
(-0.0690931 -1.21023 0)
(-0.127408 -1.32194 0)
(-0.298694 -1.21785 0)
(-0.0421753 -0.000562502 0)
(-0.0418589 -0.000489912 0)
(-0.041596 -0.000405706 0)
(-0.0413949 -0.000312119 0)
(-0.0412613 -0.000211769 0)
(-0.0411994 -0.000107977 0)
(-0.041211 -4.2613e-06 0)
(-0.0412931 9.78505e-05 0)
(-0.0414458 0.00019753 0)
(-0.0416651 0.000292158 0)
(-0.0434796 -0.000880869 0)
(-0.043366 -0.000744953 0)
(-0.0432872 -0.0005844 0)
(-0.0432491 -0.000404132 0)
(-0.0432563 -0.000209535 0)
(-0.0433121 -6.63277e-06 0)
(-0.0434188 0.000198323 0)
(-0.0435762 0.000399357 0)
(-0.0437804 0.000590135 0)
(-0.0440261 0.00076334 0)
(-0.0432846 -0.000981586 0)
(-0.0432881 -0.000795856 0)
(-0.0433164 -0.000574648 0)
(-0.0433741 -0.000324739 0)
(-0.0434651 -5.38524e-05 0)
(-0.0435917 0.000229523 0)
(-0.0437549 0.000515837 0)
(-0.0439544 0.000794864 0)
(-0.0441881 0.00105591 0)
(-0.0444519 0.001288 0)
(-0.0427099 -0.000901431 0)
(-0.0427941 -0.000678004 0)
(-0.0428979 -0.000409625 0)
(-0.0430258 -0.000104663 0)
(-0.0431812 0.000227075 0)
(-0.0433667 0.000574631 0)
(-0.0435836 0.000925858 0)
(-0.0438318 0.00126775 0)
(-0.0441098 0.0015866 0)
(-0.0444147 0.00186818 0)
(-0.0419508 -0.000678914 0)
(-0.0420934 -0.00042425 0)
(-0.0422538 -0.000115212 0)
(-0.0424368 0.000238496 0)
(-0.0426464 0.000625279 0)
(-0.0428854 0.001032 0)
(-0.0431559 0.00144414 0)
(-0.0434585 0.00184604 0)
(-0.0437925 0.00222115 0)
(-0.0441555 0.00255212 0)
(-0.0410898 -0.000356913 0)
(-0.0412734 -7.2487e-05 0)
(-0.0414752 0.000276787 0)
(-0.041701 0.000680043 0)
(-0.0419555 0.00112411 0)
(-0.0422428 0.00159386 0)
(-0.0425658 0.00207241 0)
(-0.0429261 0.00254138 0)
(-0.0433239 0.00298127 0)
(-0.0437574 0.00337155 0)
(-0.04018 3.01571e-05 0)
(-0.0403882 0.000346365 0)
(-0.0406167 0.000739851 0)
(-0.0408725 0.00119884 0)
(-0.0411619 0.00170873 0)
(-0.0414901 0.00225244 0)
(-0.0418617 0.00281066 0)
(-0.0422796 0.0033621 0)
(-0.0427451 0.00388392 0)
(-0.0432575 0.00435191 0)
(-0.0392643 0.000449295 0)
(-0.0394806 0.000801087 0)
(-0.0397199 0.0012455 0)
(-0.039991 0.00177011 0)
(-0.040302 0.00235904 0)
(-0.0406604 0.00299339 0)
(-0.0410726 0.00365126 0)
(-0.0415436 0.0043081 0)
(-0.0420764 0.00493715 0)
(-0.0426714 0.00550962 0)
(-0.0383839 0.000866244 0)
(-0.0385901 0.00125761 0)
(-0.038822 0.00176068 0)
(-0.0390904 0.00236283 0)
(-0.039406 0.0030473 0)
(-0.0397789 0.00379349 0)
(-0.0402184 0.00457692 0)
(-0.0407323 0.00536942 0)
(-0.0413262 0.00613952 0)
(-0.0420027 0.00685258 0)
(-0.0375822 0.00124437 0)
(-0.0377589 0.00167756 0)
(-0.0379624 0.00224608 0)
(-0.0382063 0.00293776 0)
(-0.0385042 0.00373563 0)
(-0.0388698 0.0046179 0)
(-0.0393162 0.00555779 0)
(-0.0398552 0.00652336 0)
(-0.0404965 0.00747778 0)
(-0.0412464 0.00837907 0)
(-0.0369094 0.00154498 0)
(-0.0370359 0.00201828 0)
(-0.0371879 0.00265548 0)
(-0.0373817 0.00344603 0)
(-0.0376344 0.00437378 0)
(-0.0379638 0.00541684 0)
(-0.038388 0.00654692 0)
(-0.0389241 0.00772888 0)
(-0.0395877 0.00892053 0)
(-0.0403919 0.0100723 0)
(-0.0364255 0.00172972 0)
(-0.036482 0.00223492 0)
(-0.0365587 0.00293762 0)
(-0.0366743 0.00383031 0)
(-0.0368498 0.0048994 0)
(-0.0371075 0.00612468 0)
(-0.0374713 0.00747814 0)
(-0.0379657 0.00892292 0)
(-0.038614 0.0104124 0)
(-0.0394373 0.0118893 0)
(-0.0362021 0.00176481 0)
(-0.0361725 0.00228471 0)
(-0.0361522 0.00303974 0)
(-0.0361621 0.00402736 0)
(-0.0362261 0.00523882 0)
(-0.0363711 0.00665826 0)
(-0.0366272 0.00826093 0)
(-0.0370271 0.0100113 0)
(-0.0376048 0.0118612 0)
(-0.0383926 0.0137469 0)
(-0.036322 0.0016289 0)
(-0.0361985 0.00213559 0)
(-0.0360675 0.0029171 0)
(-0.0359502 0.00397792 0)
(-0.0358721 0.00531704 0)
(-0.0358635 0.00692675 0)
(-0.0359601 0.00879023 0)
(-0.0362033 0.0108787 0)
(-0.0366403 0.0131482 0)
(-0.0373212 0.0155345 0)
(-0.0368738 0.00132177 0)
(-0.0366623 0.0017759 0)
(-0.03642 0.00254276 0)
(-0.0361666 0.00363554 0)
(-0.0359258 0.00506367 0)
(-0.0357278 0.00683168 0)
(-0.03561 0.00893669 0)
(-0.0356192 0.011365 0)
(-0.0358133 0.0140871 0)
(-0.0362616 0.0170498 0)
(-0.0379432 0.000875691 0)
(-0.0376695 0.00122915 0)
(-0.0373389 0.00192623 0)
(-0.0369658 0.00298893 0)
(-0.0365689 0.00443808 0)
(-0.0361726 0.00629281 0)
(-0.0358091 0.00856897 0)
(-0.0355219 0.0112767 0)
(-0.0353697 0.0144165 0)
(-0.0354296 0.0179704 0)
(-0.0395919 0.000365733 0)
(-0.0393054 0.000570228 0)
(-0.0389381 0.00113802 0)
(-0.0384982 0.00209791 0)
(-0.0379961 0.00347987 0)
(-0.0374459 0.00531579 0)
(-0.0368671 0.00763964 0)
(-0.0362878 0.0104881 0)
(-0.0357493 0.0139011 0)
(-0.0353116 0.0179212 0)
(-0.0418323 -9.41001e-05 0)
(-0.0416005 -7.5803e-05 0)
(-0.0412738 0.000313129 0)
(-0.0408554 0.00110413 0)
(-0.040349 0.00233054 0)
(-0.0397597 0.00402879 0)
(-0.0390944 0.00623976 0)
(-0.0383628 0.00901169 0)
(-0.0375801 0.0124065 0)
(-0.0367727 0.0165096 0)
(-0.0446103 -0.000360961 0)
(-0.0445061 -0.000538113 0)
(-0.0443084 -0.000340553 0)
(-0.0440215 0.000265342 0)
(-0.0436507 0.00131583 0)
(-0.0432043 0.00285156 0)
(-0.0426947 0.00491993 0)
(-0.0421402 0.00757982 0)
(-0.0415675 0.010911 0)
(-0.0410247 0.0150286 0)
(-0.0477827 -0.000319284 0)
(-0.047848 -0.000680933 0)
(-0.0478252 -0.000660892 0)
(-0.0477184 -0.000222054 0)
(-0.0475327 0.000676678 0)
(-0.0472747 0.00208285 0)
(-0.0469533 0.00405354 0)
(-0.0465796 0.0066603 0)
(-0.0461656 0.00999723 0)
(-0.0457237 0.0141891 0)
(-0.0511967 8.44294e-05 0)
(-0.0514484 -0.000451268 0)
(-0.0516168 -0.000598589 0)
(-0.0517053 -0.000319062 0)
(-0.0517169 0.000429718 0)
(-0.0516541 0.00169641 0)
(-0.0515186 0.00353832 0)
(-0.05131 0.0060246 0)
(-0.0510229 0.00924041 0)
(-0.050643 0.0132886 0)
(-0.0547152 0.000862405 0)
(-0.0551509 0.000160807 0)
(-0.0555073 -0.000146317 0)
(-0.0557876 -2.18125e-05 0)
(-0.0559928 0.000574296 0)
(-0.0561215 0.00168668 0)
(-0.0561695 0.0033661 0)
(-0.0561282 0.00567101 0)
(-0.0559817 0.00866902 0)
(-0.0557027 0.0124347 0)
(-0.0582269 0.00199385 0)
(-0.0588308 0.00113392 0)
(-0.0593607 0.000674994 0)
(-0.0598197 0.00065064 0)
(-0.0602081 0.00109581 0)
(-0.0605226 0.00204824 0)
(-0.0607559 0.00354912 0)
(-0.0608952 0.00564385 0)
(-0.0609208 0.00838238 0)
(-0.0608028 0.0118157 0)
(-0.0616418 0.00343613 0)
(-0.0623912 0.00242935 0)
(-0.0630755 0.00183198 0)
(-0.0636988 0.00167248 0)
(-0.0642616 0.00197921 0)
(-0.0647605 0.00278167 0)
(-0.0651878 0.0041108 0)
(-0.0655306 0.00599937 0)
(-0.0657701 0.00848212 0)
(-0.065879 0.0115925 0)
(-0.0648771 0.00513547 0)
(-0.0657471 0.0040025 0)
(-0.0665666 0.00329066 0)
(-0.067341 0.00302229 0)
(-0.0680722 0.00321858 0)
(-0.0687577 0.00390065 0)
(-0.0693912 0.0050899 0)
(-0.0699618 0.00680828 0)
(-0.0704539 0.00907859 0)
(-0.0708452 0.0119217 0)
(-0.0678434 0.00703495 0)
(-0.0688111 0.00580947 0)
(-0.0697497 0.0050204 0)
(-0.0706657 0.00468325 0)
(-0.071562 0.0048118 0)
(-0.0724373 0.00541927 0)
(-0.0732869 0.00651862 0)
(-0.074102 0.00812287 0)
(-0.0748702 0.0102456 0)
(-0.0755736 0.0128984 0)
(-0.0704373 0.00908612 0)
(-0.071488 0.00781639 0)
(-0.0725373 0.00700058 0)
(-0.073592 0.00664683 0)
(-0.0746551 0.00676153 0)
(-0.0757258 0.00735061 0)
(-0.0768001 0.00841975 0)
(-0.0778709 0.00997471 0)
(-0.078928 0.0120218 0)
(-0.0799575 0.0145659 0)
(-0.0725459 0.0112641 0)
(-0.0736796 0.0100113 0)
(-0.0748438 0.00922926 0)
(-0.0760442 0.00891862 0)
(-0.0772827 0.00907859 0)
(-0.0785573 0.00970847 0)
(-0.0798636 0.0108077 0)
(-0.0811943 0.0123761 0)
(-0.0825399 0.0144146 0)
(-0.0838871 0.0169228 0)
(-0.0740665 0.0135808 0)
(-0.0753027 0.0124145 0)
(-0.0766026 0.0117313 0)
(-0.0779689 0.0115246 0)
(-0.0794011 0.0117872 0)
(-0.080895 0.0125123 0)
(-0.0824442 0.0136938 0)
(-0.0840397 0.0153264 0)
(-0.0856703 0.0174059 0)
(-0.087321 0.0199277 0)
(-0.0749322 0.0160992 0)
(-0.0763122 0.0150874 0)
(-0.0777852 0.0145641 0)
(-0.0793506 0.0145161 0)
(-0.0810049 0.0149302 0)
(-0.082741 0.0157942 0)
(-0.0845498 0.0170965 0)
(-0.0864194 0.0188261 0)
(-0.0883353 0.0209735 0)
(-0.0902783 0.0235275 0)
(-0.0751567 0.0189197 0)
(-0.076731 0.0181217 0)
(-0.0784223 0.0178094 0)
(-0.0802266 0.0179644 0)
(-0.0821379 0.0185684 0)
(-0.0841464 0.0196037 0)
(-0.0862405 0.0210533 0)
(-0.0884055 0.0229007 0)
(-0.0906242 0.02513 0)
(-0.092875 0.0277235 0)
(-0.0748237 0.0221702 0)
(-0.0766434 0.0216253 0)
(-0.0785963 0.0215594 0)
(-0.0806776 0.021949 0)
(-0.0828794 0.02277 0)
(-0.0851897 0.0239989 0)
(-0.0875939 0.0256125 0)
(-0.0900744 0.027588 0)
(-0.0926105 0.029903 0)
(-0.095177 0.0325324 0)
(-0.0741206 0.0259283 0)
(-0.0762037 0.0256682 0)
(-0.0784394 0.0258795 0)
(-0.0808212 0.0265317 0)
(-0.0833382 0.0275939 0)
(-0.0859758 0.0290359 0)
(-0.0887161 0.0308278 0)
(-0.0915386 0.0329411 0)
(-0.0944204 0.0353478 0)
(-0.0973359 0.0380175 0)
(-0.0731834 0.0301907 0)
(-0.075532 0.0302644 0)
(-0.0780595 0.0307956 0)
(-0.0807554 0.0317463 0)
(-0.083604 0.0330781 0)
(-0.0865857 0.0347535 0)
(-0.089677 0.0367362 0)
(-0.0928512 0.0389927 0)
(-0.0960802 0.0414926 0)
(-0.0993339 0.0442058 0)
(-0.0720802 0.0349512 0)
(-0.0746991 0.0354223 0)
(-0.0775287 0.0363273 0)
(-0.0805536 0.0376201 0)
(-0.083752 0.0392534 0)
(-0.0870973 0.0411805 0)
(-0.0905577 0.0433572 0)
(-0.0940967 0.0457438 0)
(-0.0976754 0.048307 0)
(-0.101252 0.0510195 0)
(-0.0708367 0.0402223 0)
(-0.0737362 0.0411633 0)
(-0.0768829 0.0425056 0)
(-0.0802569 0.0441925 0)
(-0.0838297 0.046165 0)
(-0.0875664 0.0483641 0)
(-0.0914243 0.0507339 0)
(-0.095354 0.0532251 0)
(-0.0993002 0.0557987 0)
(-0.103202 0.0584298 0)
(-0.0694501 0.0460241 0)
(-0.0726408 0.0475162 0)
(-0.0761217 0.0493696 0)
(-0.0798691 0.0515136 0)
(-0.0838477 0.0538725 0)
(-0.0880138 0.0563702 0)
(-0.0923127 0.0589335 0)
(-0.0966792 0.061496 0)
(-0.101036 0.0640059 0)
(-0.105292 0.0664334 0)
(-0.0678877 0.0523705 0)
(-0.0713746 0.0545083 0)
(-0.0752046 0.0569631 0)
(-0.0793504 0.0596439 0)
(-0.0837707 0.0624526 0)
(-0.0884123 0.0652887 0)
(-0.0932087 0.0680525 0)
(-0.0980795 0.0706468 0)
(-0.102926 0.072983 0)
(-0.107624 0.0749918 0)
(-0.0660802 0.0592554 0)
(-0.0698554 0.0621557 0)
(-0.0740409 0.0653293 0)
(-0.0786072 0.0686586 0)
(-0.0835074 0.0720181 0)
(-0.0886795 0.0752818 0)
(-0.0940507 0.0783273 0)
(-0.0995409 0.08103 0)
(-0.105061 0.08326 0)
(-0.11051 0.0848881 0)
(-0.0639133 0.0666233 0)
(-0.0679415 0.0704279 0)
(-0.0724642 0.0744625 0)
(-0.0774464 0.0785688 0)
(-0.0828232 0.0825822 0)
(-0.0885048 0.0863501 0)
(-0.0943937 0.0897371 0)
(-0.100396 0.0926022 0)
(-0.106417 0.0947779 0)
(-0.11234 0.0960872 0)
(-0.0612491 0.0743688 0)
(-0.0654728 0.0792624 0)
(-0.0703141 0.0843428 0)
(-0.0757356 0.0893792 0)
(-0.0816362 0.0941341 0)
(-0.0878639 0.0984143 0)
(-0.0942842 0.102089 0)
(-0.100819 0.105003 0)
(-0.107367 0.106912 0)
(-0.113544 0.10764 0)
(-0.0578908 0.0822934 0)
(-0.0622066 0.0885348 0)
(-0.0673439 0.0949504 0)
(-0.0732853 0.101185 0)
(-0.0798565 0.106839 0)
(-0.0867536 0.11164 0)
(-0.0937936 0.115619 0)
(-0.101083 0.118724 0)
(-0.108572 0.120438 0)
(-0.115404 0.120237 0)
(-0.0536204 0.0900597 0)
(-0.0578038 0.0980889 0)
(-0.0631291 0.106503 0)
(-0.0697017 0.114717 0)
(-0.0772151 0.121642 0)
(-0.0848134 0.126528 0)
(-0.0920164 0.130523 0)
(-0.0995788 0.134526 0)
(-0.108255 0.136829 0)
(-0.116813 0.135183 0)
(-0.0480235 0.0973756 0)
(-0.0512883 0.108048 0)
(-0.0562126 0.119602 0)
(-0.0639415 0.130555 0)
(-0.0739981 0.138532 0)
(-0.0830461 0.141357 0)
(-0.0887444 0.143406 0)
(-0.0941515 0.149849 0)
(-0.104249 0.157253 0)
(-0.120402 0.155364 0)
(-0.0400065 0.101561 0)
(-0.0406687 0.114455 0)
(-0.0432784 0.128755 0)
(-0.0513255 0.145404 0)
(-0.070078 0.158441 0)
(-0.0842774 0.153589 0)
(-0.0884873 0.150589 0)
(-0.0916032 0.160765 0)
(-0.102811 0.186948 0)
(-0.126321 0.175832 0)
(-0.0346204 0.0988409 0)
(-0.0336743 0.11235 0)
(-0.0345139 0.131613 0)
(-0.0411688 0.170059 0)
(-0.0547601 0.204024 0)
(-0.0713607 0.168712 0)
(-0.0886976 0.155596 0)
(-0.109132 0.172994 0)
(-0.117802 0.2417 0)
(-0.107555 0.189942 0)
(-0.0379114 0.0930716 0)
(-0.0362078 0.109228 0)
(-0.0333795 0.148564 0)
(-0.0344937 0.214726 0)
(-0.0418712 0.239983 0)
(-0.0527798 0.226608 0)
(-0.0720667 0.211631 0)
(-0.0879834 0.21776 0)
(-0.0895854 0.221645 0)
(-0.0817773 0.181364 0)
(-0.0484099 0.0878366 0)
(-0.0465073 0.102417 0)
(-0.0421649 0.155161 0)
(-0.0408387 0.20258 0)
(-0.0402596 0.22977 0)
(-0.0427955 0.238004 0)
(-0.0482587 0.234115 0)
(-0.0505962 0.223097 0)
(-0.0440711 0.200947 0)
(-0.0358841 0.158042 0)
(-0.0601143 0.0889226 0)
(-0.0606041 0.102725 0)
(-0.0609377 0.138185 0)
(-0.0548011 0.204504 0)
(-0.0428734 0.23693 0)
(-0.0328147 0.245946 0)
(-0.0235444 0.237537 0)
(-0.0125332 0.210755 0)
(-0.000967511 0.179522 0)
(-0.00144543 0.153944 0)
(-0.0630306 0.0954018 0)
(-0.0646965 0.106416 0)
(-0.0640175 0.121761 0)
(-0.0564733 0.148981 0)
(-0.0331541 0.181161 0)
(-0.0137568 0.195464 0)
(0.00584226 0.195468 0)
(0.0141619 0.185185 0)
(0.0172896 0.171774 0)
(0.0176349 0.156782 0)
(-0.051908 0.0992039 0)
(-0.0518831 0.10887 0)
(-0.0497 0.119612 0)
(-0.0441147 0.131341 0)
(-0.0329365 0.144901 0)
(-0.0168318 0.15884 0)
(-0.00150222 0.168308 0)
(0.00948824 0.170253 0)
(0.0170464 0.165666 0)
(0.0219504 0.15589 0)
(-0.0363068 0.0973412 0)
(-0.0346741 0.104732 0)
(-0.0318254 0.113438 0)
(-0.0272139 0.122805 0)
(-0.0206913 0.131851 0)
(-0.0120976 0.140919 0)
(-0.00202275 0.148781 0)
(0.00856341 0.15237 0)
(0.0184143 0.150599 0)
(0.0267193 0.144303 0)
(-0.0177424 0.0938635 0)
(-0.0152768 0.0991031 0)
(-0.0119153 0.105054 0)
(-0.00747108 0.11159 0)
(-0.00175854 0.118307 0)
(0.0054189 0.124629 0)
(0.0140737 0.129534 0)
(0.0238264 0.131757 0)
(0.0338834 0.13078 0)
(0.0435118 0.126811 0)
(0.00500979 0.0887794 0)
(0.00860172 0.0925501 0)
(0.0129842 0.096631 0)
(0.0183012 0.100853 0)
(0.024683 0.104965 0)
(0.0322323 0.108558 0)
(0.0409456 0.111055 0)
(0.0506089 0.111863 0)
(0.0608262 0.110615 0)
(0.0711967 0.107228 0)
(0.0305467 0.080871 0)
(0.0355773 0.083284 0)
(0.0413336 0.0857758 0)
(0.0479139 0.0881793 0)
(0.0554053 0.0902747 0)
(0.0638606 0.0917775 0)
(0.0732629 0.0923486 0)
(0.083501 0.0916506 0)
(0.09439 0.0894253 0)
(0.105731 0.0855321 0)
(0.0574555 0.069962 0)
(0.0639354 0.071041 0)
(0.0711073 0.0720459 0)
(0.0790331 0.0728205 0)
(0.087768 0.0731847 0)
(0.0973446 0.072927 0)
(0.107757 0.0718151 0)
(0.118953 0.0696198 0)
(0.130852 0.0661428 0)
(0.143354 0.0612375 0)
(0.0846025 0.0562209 0)
(0.0924183 0.055997 0)
(0.100894 0.0555961 0)
(0.110069 0.0548692 0)
(0.119983 0.0536625 0)
(0.130659 0.0518073 0)
(0.142096 0.0491257 0)
(0.154272 0.0454411 0)
(0.167144 0.0405905 0)
(0.180658 0.0344381 0)
(0.111289 0.039972 0)
(0.120269 0.038491 0)
(0.129864 0.0367669 0)
(0.140101 0.0346534 0)
(0.151007 0.0320137 0)
(0.162594 0.0287078 0)
(0.174858 0.024593 0)
(0.187777 0.0195286 0)
(0.20131 0.0133795 0)
(0.215403 0.00603022 0)
(0.136949 0.0214815 0)
(0.147035 0.0188469 0)
(0.157659 0.0159257 0)
(0.168846 0.0125714 0)
(0.180615 0.00866457 0)
(0.192972 0.0040913 0)
(0.205907 -0.00125617 0)
(0.219385 -0.00748173 0)
(0.233356 -0.0146941 0)
(0.247762 -0.0229907 0)
(0.16144 0.000688335 0)
(0.17275 -0.00291315 0)
(0.1845 -0.00685297 0)
(0.19674 -0.0112648 0)
(0.209481 -0.0162392 0)
(0.222718 -0.0218669 0)
(0.236433 -0.0282204 0)
(0.250568 -0.0353567 0)
(0.265039 -0.0433652 0)
(0.279786 -0.0523697 0)
(0.184652 -0.0227631 0)
(0.197618 -0.027113 0)
(0.210952 -0.0319413 0)
(0.22475 -0.0373014 0)
(0.238997 -0.043212 0)
(0.253666 -0.0497699 0)
(0.268755 -0.0569831 0)
(0.284161 -0.0647766 0)
(0.299661 -0.0732124 0)
(0.31511 -0.0825698 0)
(0.206227 -0.0509031 0)
(0.221517 -0.0560426 0)
(0.237166 -0.0620672 0)
(0.253422 -0.0686262 0)
(0.270179 -0.0754532 0)
(0.287392 -0.0828538 0)
(0.305185 -0.0906993 0)
(0.323448 -0.0985496 0)
(0.341706 -0.106534 0)
(0.359261 -0.11531 0)
(0.22571 -0.0841704 0)
(0.24332 -0.0887199 0)
(0.262003 -0.0949419 0)
(0.282327 -0.101562 0)
(0.304059 -0.10814 0)
(0.327074 -0.116691 0)
(0.350782 -0.126436 0)
(0.374516 -0.136048 0)
(0.399482 -0.14517 0)
(0.422877 -0.150253 0)
(0.249264 -0.116662 0)
(0.27412 -0.124589 0)
(0.301891 -0.137655 0)
(0.332214 -0.152455 0)
(0.366384 -0.16552 0)
(0.40402 -0.176259 0)
(0.438856 -0.183979 0)
(0.468573 -0.190341 0)
(0.496215 -0.199552 0)
(0.520701 -0.195455 0)
(0.309703 -0.183524 0)
(0.357463 -0.197672 0)
(0.400024 -0.21541 0)
(0.438814 -0.23169 0)
(0.474092 -0.245492 0)
(0.504742 -0.254357 0)
(0.530026 -0.254964 0)
(0.551089 -0.251469 0)
(0.572477 -0.254817 0)
(0.593822 -0.248902 0)
(0.355299 -0.287243 0)
(0.3879 -0.296168 0)
(0.418571 -0.300638 0)
(0.446481 -0.303037 0)
(0.473526 -0.303539 0)
(0.499301 -0.299631 0)
(0.521901 -0.292651 0)
(0.544202 -0.28897 0)
(0.568062 -0.290734 0)
(0.592261 -0.287403 0)
(0.324778 -0.337373 0)
(0.354975 -0.342132 0)
(0.385394 -0.345811 0)
(0.41577 -0.348581 0)
(0.445619 -0.349818 0)
(0.47524 -0.347641 0)
(0.505413 -0.342844 0)
(0.535573 -0.34016 0)
(0.564426 -0.339891 0)
(0.591962 -0.337631 0)
(0.302452 -0.400672 0)
(0.338927 -0.407313 0)
(0.375172 -0.4124 0)
(0.41085 -0.415116 0)
(0.445742 -0.415527 0)
(0.479743 -0.413547 0)
(0.513023 -0.409489 0)
(0.545354 -0.404533 0)
(0.575834 -0.399492 0)
(0.603756 -0.394177 0)
(0.298832 -0.480454 0)
(0.338605 -0.48654 0)
(0.377444 -0.489915 0)
(0.415217 -0.490698 0)
(0.451744 -0.488569 0)
(0.486412 -0.483489 0)
(0.519111 -0.475934 0)
(0.549453 -0.466894 0)
(0.577046 -0.456505 0)
(0.601667 -0.445469 0)
(0.287654 -0.561975 0)
(0.327433 -0.566426 0)
(0.365935 -0.567236 0)
(0.402552 -0.564622 0)
(0.436876 -0.558472 0)
(0.468777 -0.548958 0)
(0.498409 -0.536303 0)
(0.524842 -0.521071 0)
(0.547608 -0.504341 0)
(0.567186 -0.487687 0)
(0.251584 -0.641935 0)
(0.288851 -0.643175 0)
(0.323906 -0.640208 0)
(0.356861 -0.633092 0)
(0.387514 -0.621956 0)
(0.415383 -0.606911 0)
(0.439837 -0.588039 0)
(0.460353 -0.56621 0)
(0.477102 -0.543536 0)
(0.490497 -0.521788 0)
(0.187626 -0.71504 0)
(0.219711 -0.711337 0)
(0.249029 -0.703667 0)
(0.275888 -0.691991 0)
(0.300276 -0.675773 0)
(0.321529 -0.654436 0)
(0.338487 -0.62823 0)
(0.350903 -0.598164 0)
(0.360433 -0.565999 0)
(0.369242 -0.533546 0)
(0.0993821 -0.776354 0)
(0.124356 -0.765987 0)
(0.145834 -0.752533 0)
(0.164409 -0.735555 0)
(0.180074 -0.713623 0)
(0.191701 -0.684876 0)
(0.199883 -0.647757 0)
(0.207249 -0.604432 0)
(0.213113 -0.562293 0)
(0.234138 -0.538546 0)
(-0.00212684 -0.823213 0)
(0.0160238 -0.804087 0)
(0.0296699 -0.783308 0)
(0.0396146 -0.760012 0)
(0.0460078 -0.731842 0)
(0.0493429 -0.695116 0)
(0.0535425 -0.649565 0)
(0.0580576 -0.602106 0)
(0.0545827 -0.60588 0)
(-0.0315251 -0.565498 0)
(-0.100622 -0.859402 0)
(-0.0864021 -0.829197 0)
(-0.0778758 -0.799151 0)
(-0.0741043 -0.768637 0)
(-0.0737861 -0.735533 0)
(-0.0746903 -0.696908 0)
(-0.0730921 -0.650741 0)
(-0.073705 -0.602477 0)
(-0.0838373 -0.505649 0)
(-0.134741 -0.367928 0)
(-0.183918 -0.893098 0)
(-0.169253 -0.849643 0)
(-0.161295 -0.808262 0)
(-0.159156 -0.76924 0)
(-0.160968 -0.731744 0)
(-0.163747 -0.694227 0)
(-0.16475 -0.652963 0)
(-0.167428 -0.598345 0)
(-0.164041 -0.439696 0)
(-0.186565 -0.271554 0)
(-0.247893 -0.932638 0)
(-0.228907 -0.87465 0)
(-0.217107 -0.819988 0)
(-0.212041 -0.770079 0)
(-0.212661 -0.725211 0)
(-0.215836 -0.685304 0)
(-0.217686 -0.647269 0)
(-0.222069 -0.605292 0)
(-0.227185 -0.439309 0)
(-0.197304 -0.256747 0)
(-0.294661 -0.983311 0)
(-0.269234 -0.911284 0)
(-0.250609 -0.84236 0)
(-0.239022 -0.779395 0)
(-0.234309 -0.723562 0)
(-0.235437 -0.675368 0)
(-0.238132 -0.634042 0)
(-0.240502 -0.592495 0)
(-0.242366 -0.529831 0)
(-0.223712 -0.327669 0)
(-0.328482 -1.04574 0)
(-0.296782 -0.962681 0)
(-0.270399 -0.880297 0)
(-0.250521 -0.803422 0)
(-0.23755 -0.734315 0)
(-0.231811 -0.673452 0)
(-0.232354 -0.621158 0)
(-0.234296 -0.576213 0)
(-0.234622 -0.531571 0)
(-0.22897 -0.468061 0)
(-0.351779 -1.11571 0)
(-0.316226 -1.02734 0)
(-0.283288 -0.934522 0)
(-0.255432 -0.844765 0)
(-0.233814 -0.76224 0)
(-0.218866 -0.688096 0)
(-0.211051 -0.621916 0)
(-0.209404 -0.563741 0)
(-0.209554 -0.51512 0)
(-0.207152 -0.470573 0)
(-0.363748 -1.18537 0)
(-0.328346 -1.09973 0)
(-0.29177 -1.00185 0)
(-0.257818 -0.902145 0)
(-0.228771 -0.8076 0)
(-0.205384 -0.721262 0)
(-0.187803 -0.64319 0)
(-0.176185 -0.573241 0)
(-0.170022 -0.510845 0)
(-0.166004 -0.457977 0)
(-0.361771 -1.24542 0)
(-0.331085 -1.17142 0)
(-0.295051 -1.07571 0)
(-0.258336 -0.970728 0)
(-0.224561 -0.866831 0)
(-0.195485 -0.77018 0)
(-0.171116 -0.682305 0)
(-0.151265 -0.603626 0)
(-0.135899 -0.533612 0)
(-0.124715 -0.470325 0)
(-0.343811 -1.28848 0)
(-0.321487 -1.23326 0)
(-0.290353 -1.14765 0)
(-0.2548 -1.04326 0)
(-0.219598 -0.933281 0)
(-0.187823 -0.827695 0)
(-0.160464 -0.731121 0)
(-0.137563 -0.644309 0)
(-0.118852 -0.567454 0)
(-0.104025 -0.499744 0)
(-0.310734 -1.31255 0)
(-0.298198 -1.27877 0)
(-0.275138 -1.20989 0)
(-0.244432 -1.11274 0)
(-0.2109 -1.00093 0)
(-0.178852 -0.88826 0)
(-0.150521 -0.782904 0)
(-0.12628 -0.68724 0)
(-0.106446 -0.601908 0)
(-0.0907747 -0.527088 0)
(-0.265575 -1.31945 0)
(-0.262511 -1.30492 0)
(-0.248814 -1.25606 0)
(-0.225788 -1.17247 0)
(-0.196911 -1.06461 0)
(-0.166754 -0.948544 0)
(-0.138516 -0.83605 0)
(-0.1136 -0.732369 0)
(-0.0925361 -0.638524 0)
(-0.0755694 -0.555212 0)
(-0.214219 -1.30977 0)
(-0.219756 -1.31181 0)
(-0.214991 -1.28277 0)
(-0.20075 -1.2168 0)
(-0.17871 -1.11895 0)
(-0.152527 -1.00486 0)
(-0.125776 -0.889218 0)
(-0.10057 -0.77929 0)
(-0.0781395 -0.678208 0)
(-0.0594437 -0.586886 0)
(-0.171532 -1.28816 0)
(-0.18116 -1.30572 0)
(-0.182105 -1.29364 0)
(-0.174814 -1.24534 0)
(-0.159479 -1.16122 0)
(-0.138116 -1.05416 0)
(-0.113785 -0.940083 0)
(-0.0888389 -0.827558 0)
(-0.0652421 -0.720822 0)
(-0.0444843 -0.622149 0)
(-0.146657 -1.26837 0)
(-0.153398 -1.29705 0)
(-0.155755 -1.29664 0)
(-0.152372 -1.26259 0)
(-0.142093 -1.19263 0)
(-0.125136 -1.09598 0)
(-0.103376 -0.987776 0)
(-0.0788897 -0.876691 0)
(-0.0538228 -0.766983 0)
(-0.030614 -0.661824 0)
(-0.127784 -1.25564 0)
(-0.132281 -1.28963 0)
(-0.135484 -1.29611 0)
(-0.134727 -1.27271 0)
(-0.128154 -1.21575 0)
(-0.11486 -1.13128 0)
(-0.0955662 -1.03252 0)
(-0.071684 -0.927088 0)
(-0.0448311 -0.818027 0)
(-0.0179377 -0.707276 0)
(-0.117466 -1.24943 0)
(-0.119128 -1.28418 0)
(-0.121591 -1.29384 0)
(-0.122132 -1.27821 0)
(-0.118109 -1.23266 0)
(-0.107838 -1.16079 0)
(-0.0912521 -1.07401 0)
(-0.0687014 -0.978235 0)
(-0.0402871 -0.874329 0)
(-0.00807388 -0.760352 0)
(-0.107074 -1.25205 0)
(-0.107631 -1.28153 0)
(-0.109474 -1.29072 0)
(-0.110957 -1.28026 0)
(-0.109079 -1.24431 0)
(-0.101676 -1.18419 0)
(-0.0883711 -1.11026 0)
(-0.068446 -1.0272 0)
(-0.0401449 -0.933988 0)
(-0.00522735 -0.826352 0)
(-0.0897493 -1.257 0)
(-0.0926389 -1.27855 0)
(-0.0951199 -1.28596 0)
(-0.0974345 -1.27933 0)
(-0.0972076 -1.25156 0)
(-0.0920436 -1.20179 0)
(-0.0814585 -1.14005 0)
(-0.0645238 -1.0707 0)
(-0.0383597 -0.992918 0)
(-0.00785603 -0.903844 0)
(-0.0699376 -1.26068 0)
(-0.0750464 -1.27431 0)
(-0.0779511 -1.28007 0)
(-0.0802946 -1.27666 0)
(-0.0808783 -1.25616 0)
(-0.0769921 -1.21572 0)
(-0.0677636 -1.16468 0)
(-0.0529125 -1.10775 0)
(-0.0296008 -1.04464 0)
(-0.00457193 -0.97293 0)
(-0.0463869 -1.25964 0)
(-0.0531884 -1.26803 0)
(-0.0575253 -1.27343 0)
(-0.0600383 -1.27321 0)
(-0.0611859 -1.25921 0)
(-0.05848 -1.22813 0)
(-0.0498771 -1.18676 0)
(-0.0362802 -1.13982 0)
(-0.0157548 -1.08807 0)
(0.00366204 -1.03034 0)
(-0.0256118 -1.25156 0)
(-0.0322977 -1.25871 0)
(-0.0375523 -1.26607 0)
(-0.0400157 -1.2694 0)
(-0.0414099 -1.26059 0)
(-0.0403084 -1.23962 0)
(-0.0319505 -1.20897 0)
(-0.0180585 -1.17075 0)
(0.00193009 -1.12909 0)
(0.0179734 -1.08438 0)
(-0.00987839 -1.23903 0)
(-0.0158759 -1.24739 0)
(-0.0212441 -1.25895 0)
(-0.0234925 -1.26579 0)
(-0.0250316 -1.25931 0)
(-0.0268548 -1.24767 0)
(-0.0204674 -1.22968 0)
(-0.00851112 -1.19914 0)
(0.00706302 -1.16582 0)
(0.015589 -1.13631 0)
(-0.000747935 -1.22271 0)
(-0.00573824 -1.23525 0)
(-0.00979429 -1.25381 0)
(-0.0117911 -1.26261 0)
(-0.0129921 -1.25503 0)
(-0.0182138 -1.24946 0)
(-0.0143814 -1.24473 0)
(-0.00573832 -1.22091 0)
(0.00456828 -1.18781 0)
(0.00710633 -1.16517 0)
(0.000824701 -1.20002 0)
(-0.00214223 -1.22432 0)
(-0.00145546 -1.25275 0)
(-0.00437744 -1.25821 0)
(-0.00478864 -1.24779 0)
(-0.0136464 -1.24504 0)
(-0.0116362 -1.25105 0)
(-0.00821081 -1.2385 0)
(0.00173286 -1.19742 0)
(0.00258932 -1.16516 0)
(-0.00168226 -1.16315 0)
(-0.00448271 -1.21993 0)
(0.00781876 -1.25647 0)
(-0.000918186 -1.24861 0)
(0.000500072 -1.23801 0)
(-0.0116995 -1.23636 0)
(-0.00987997 -1.24571 0)
(-0.0158265 -1.25377 0)
(0.00303587 -1.2054 0)
(0.00224847 -1.13439 0)
(0.00369566 -1.08876 0)
(-0.0159658 -1.24677 0)
(0.0178165 -1.26363 0)
(-0.00371912 -1.23401 0)
(0.00268004 -1.22847 0)
(-0.00939815 -1.22718 0)
(-0.00449583 -1.23259 0)
(-0.0242876 -1.26516 0)
(0.0132062 -1.2407 0)
(-0.00594587 -1.06187 0)
(-0.041963 0.000382564 0)
(-0.0423398 0.000461218 0)
(-0.0427619 0.000517222 0)
(-0.043207 0.000545205 0)
(-0.0436494 0.00054005 0)
(-0.04406 0.000497 0)
(-0.0444074 0.000411065 0)
(-0.0446604 0.000278915 0)
(-0.0447835 0.000102169 0)
(-0.0447301 -0.000111218 0)
(-0.0444866 -0.000354356 0)
(-0.0440258 -0.000624524 0)
(-0.0433238 -0.000919921 0)
(-0.0423603 -0.00123742 0)
(-0.0411183 -0.0015731 0)
(-0.0395843 -0.00192295 0)
(-0.0377487 -0.00228235 0)
(-0.0356065 -0.00264615 0)
(-0.0331572 -0.00300866 0)
(-0.030406 -0.00336354 0)
(-0.0273639 -0.00370347 0)
(-0.024049 -0.00402004 0)
(-0.0204873 -0.00430339 0)
(-0.0167142 -0.00454206 0)
(-0.0127756 -0.00472214 0)
(-0.00872979 -0.00482752 0)
(-0.00464684 -0.00483906 0)
(-0.000609063 -0.00473555 0)
(0.00327287 -0.00449495 0)
(0.00687664 -0.00408822 0)
(0.0100758 -0.00349469 0)
(0.0127153 -0.00269063 0)
(0.0146323 -0.0016503 0)
(0.0156868 -0.000360363 0)
(0.0156613 0.00112407 0)
(0.0144177 0.00268339 0)
(0.0120242 0.00413326 0)
(0.00869097 0.00506359 0)
(0.00438382 0.00455824 0)
(0.00144787 0.0028645 0)
(-0.0443245 0.000919423 0)
(-0.0446715 0.00104147 0)