/*--------------------------------*- C++ -*----------------------------------*\
  =========                 |
  \\      /  F ield         | OpenFOAM: The Open Source CFD Toolbox
   \\    /   O peration     | Website:  https://openfoam.org
    \\  /    A nd           | Version:  8
     \\/     M anipulation  |
\*---------------------------------------------------------------------------*/
FoamFile
{
    version     2.0;
    format      ascii;
    class       volScalarField;
    location    "1.05";
    object      epsilon;
}
// * * * * * * * * * * * * * * * * * * * * * * * * * * * * * * * * * * * * * //

dimensions      [0 2 -3 0 0 0 0];

internalField   nonuniform List<scalar> 
9150
(
0.0314343
0.012561
0.00320528
0.00109101
0.000675158
0.000675158
0.00109101
0.00320528
0.012561
0.0314343
0.0303364
0.00886292
0.00181742
0.000727581
0.000521805
0.000521805
0.000727582
0.00181742
0.00886292
0.0303364
0.028539
0.00705819
0.00119266
0.000609377
0.000472614
0.000472614
0.000609377
0.00119266
0.00705819
0.028539
0.0266023
0.00612131
0.000906553
0.000574493
0.000458382
0.000458382
0.000574493
0.000906553
0.00612131
0.0266023
0.0245941
0.00572431
0.000763067
0.000567532
0.000456995
0.000456995
0.000567532
0.000763067
0.00572431
0.0245941
0.125432
0.054272
0.0259651
0.0177909
0.0147521
0.0147521
0.0177907
0.0259647
0.0542713
0.125432
0.0765686
0.023435
0.0146461
0.0111576
0.00923729
0.00923726
0.0111575
0.0146459
0.0234349
0.0765686
0.0555589
0.0180502
0.00823463
0.00570534
0.00454914
0.00454913
0.00570532
0.0082346
0.0180502
0.0555589
0.0426701
0.0153542
0.00505528
0.00280347
0.00205988
0.00205988
0.00280346
0.00505528
0.0153542
0.0426701
0.0357649
0.0138163
0.00366129
0.00154339
0.00103369
0.00103369
0.00154339
0.0036613
0.0138163
0.0357649
1.85219
0.20081
0.0567309
0.0260385
0.0180718
0.0180721
0.0260394
0.056733
0.20086
1.85298
0.285509
0.12059
0.050515
0.0254717
0.0182029
0.0182029
0.0254721
0.0505164
0.120602
0.285504
0.239154
0.106445
0.0500114
0.0253108
0.0183804
0.0183803
0.0253108
0.0500118
0.106449
0.23915
0.199947
0.0951968
0.0494916
0.0251117
0.0185532
0.0185531
0.0251114
0.0494914
0.0951967
0.199946
0.158451
0.0896144
0.0454826
0.0237729
0.018126
0.0181259
0.0237726
0.045482
0.0896131
0.15845
379.118
381.994
383.838
384.808
385.093
385.045
384.654
383.565
381.599
378.605
159.156
160.256
161.033
161.518
161.738
161.718
161.458
160.933
160.116
158.978
121.146
121.887
122.426
122.773
122.937
122.922
122.729
122.353
121.786
121.017
109.057
109.588
109.974
110.223
110.339
110.324
110.181
109.905
109.493
108.935
105.542
105.886
106.131
106.285
106.353
106.337
106.239
106.055
105.781
105.408
106.29
106.438
106.534
106.588
106.603
106.584
106.531
106.441
106.309
106.126
109.676
109.606
109.537
109.478
109.435
109.41
109.404
109.415
109.437
109.462
114.902
114.588
114.333
114.147
114.036
114.002
114.047
114.167
114.358
114.613
121.484
120.898
120.436
120.107
119.918
119.872
119.97
120.208
120.583
121.086
129.087
128.197
127.503
127.013
126.736
126.674
126.827
127.194
127.767
128.537
137.462
136.224
135.264
134.592
134.214
134.133
134.348
134.856
135.65
136.72
146.386
144.745
143.482
142.604
142.112
142.009
142.294
142.963
144.01
145.427
155.617
153.523
151.924
150.818
150.204
150.08
150.444
151.294
152.629
154.444
164.886
162.312
160.358
159.013
158.27
158.126
158.579
159.627
161.275
163.525
173.926
170.87
168.557
166.972
166.101
165.94
166.485
167.74
169.712
172.414
182.509
178.982
176.32
174.499
173.504
173.326
173.963
175.42
177.711
180.856
190.452
186.468
183.469
181.422
180.308
180.113
180.836
182.483
185.074
188.633
197.581
193.164
189.848
187.593
186.368
186.157
186.957
188.776
191.637
195.574
203.702
198.905
195.319
192.887
191.571
191.347
192.212
194.177
197.269
201.532
208.624
203.553
199.775
197.221
195.843
195.614
196.53
198.603
201.868
206.38
212.23
207.036
203.176
200.573
199.174
198.95
199.896
202.028
205.385
210.03
214.544
209.399
205.58
203.008
201.631
201.421
202.374
204.505
207.856
212.492
215.751
210.813
207.148
204.683
203.369
203.18
204.113
206.184
209.432
213.92
216.166
211.559
208.137
205.837
204.616
204.452
205.343
207.304
210.37
214.597
216.184
211.985
208.862
206.764
205.655
205.517
206.349
208.165
210.994
214.884
216.218
212.46
209.663
207.784
206.795
206.682
207.443
209.09
211.65
215.162
216.656
213.343
210.875
209.217
208.348
208.255
208.938
210.406
212.682
215.797
217.845
214.963
212.814
211.37
210.615
210.538
211.14
212.429
214.42
217.14
220.107
217.63
215.777
214.53
213.877
213.812
214.337
215.454
217.177
219.522
223.748
221.629
220.034
218.956
218.389
218.333
218.788
219.755
221.24
223.25
229.06
227.224
225.827
224.874
224.37
224.318
224.718
225.57
226.87
228.615
236.314
234.645
233.353
232.46
231.982
231.927
232.298
233.088
234.286
235.873
245.738
244.058
242.736
241.81
241.308
241.244
241.619
242.423
243.634
245.22
257.46
255.523
253.99
252.913
252.326
252.245
252.669
253.586
254.964
256.757
271.415
268.92
266.97
265.613
264.878
264.776
265.306
266.451
268.179
270.44
287.212
283.889
281.346
279.603
278.672
278.555
279.248
280.735
282.993
285.981
304.129
299.855
296.638
294.466
293.326
293.21
294.113
296.027
298.95
302.876
321.423
316.225
312.363
309.782
308.452
308.355
309.487
311.851
315.461
320.349
338.389
332.532
328.159
325.241
323.755
323.692
325.048
327.834
332.069
337.787
355.424
348.856
343.968
340.719
339.084
339.052
340.623
343.811
348.644
355.162
372.389
365.121
359.719
356.137
354.347
354.338
356.111
359.687
365.099
372.4
389.302
381.311
375.379
371.452
369.494
369.493
371.454
375.4
381.374
389.437
406.117
397.397
390.924
386.636
384.494
384.484
386.613
390.914
397.441
406.277
422.857
413.389
406.354
401.683
399.333
399.287
401.556
406.177
413.214
422.762
439.564
429.309
421.682
416.6
414.014
413.903
416.277
421.179
428.685
438.91
456.241
445.162
436.916
431.402
428.556
428.35
430.79
435.921
443.831
454.656
472.848
460.93
452.061
446.113
443.001
442.683
445.154
450.456
458.68
469.974
489.271
476.566
467.124
460.783
457.432
457.012
459.504
464.937
473.387
484.978
505.41
492.06
482.155
475.507
471.985
471.516
474.07
479.664
488.364
500.282
521.338
507.519
497.29
490.445
486.845
486.406
489.096
494.929
503.969
516.336
537.227
523.163
512.757
505.823
502.233
501.909
504.82
510.976
520.436
533.304
553.778
539.468
528.906
521.92
518.392
518.254
521.48
528.08
538.11
551.663
571.431
556.792
546.022
538.964
535.514
535.615
539.249
546.438
557.247
571.794
590.527
575.396
564.296
557.092
553.694
554.058
558.177
566.076
577.821
593.517
611.326
595.437
583.806
576.322
572.913
573.547
578.227
586.988
599.905
617.096
634.001
616.93
604.474
596.519
592.999
593.888
599.2
608.978
623.306
642.3
658.236
639.57
625.981
617.345
613.597
614.717
620.731
631.702
647.739
669.005
683.453
662.853
647.828
638.286
634.174
635.483
642.248
654.549
672.523
696.366
709.533
686.331
669.42
658.679
654.037
655.477
663.035
676.799
696.913
723.574
735.363
709.013
689.815
677.606
672.284
673.818
682.244
697.659
720.231
750.187
759.649
729.664
707.836
693.932
687.81
689.42
698.8
716.073
741.449
775.221
780.75
746.824
722.117
706.347
699.332
701.003
711.407
730.701
759.156
797.131
797.322
759.055
731.22
713.439
705.452
707.154
718.604
740.02
771.782
814.378
807.54
764.567
733.495
713.685
704.709
706.389
718.791
742.236
777.313
824.872
808.014
760.871
727.087
705.613
695.808
697.394
710.431
735.317
772.813
824.078
794.373
745.668
710.681
688.388
678.119
679.576
692.814
718.247
756.662
809.209
768.963
720.009
684.871
662.45
652.048
653.351
666.41
691.644
729.865
782.293
732.565
685.036
650.816
628.914
618.681
619.814
632.359
656.704
693.587
744.087
688.506
643.102
610.393
589.423
579.567
580.532
592.357
615.407
650.386
698.338
638.642
596.07
565.379
545.67
536.357
537.165
548.122
569.563
602.137
646.803
585.023
545.829
517.536
499.332
490.691
491.361
501.364
520.996
550.833
591.729
529.733
494.257
468.571
452.004
444.107
444.663
453.691
471.44
498.394
535.255
475.123
443.192
420.042
405.088
397.94
398.407
406.504
422.447
446.656
479.739
422.411
393.799
373.045
359.628
353.202
353.599
360.831
375.091
396.747
426.343
372.271
346.799
328.307
316.344
310.607
310.947
317.377
330.065
349.335
375.661
325.253
302.714
286.337
275.734
270.643
270.935
276.622
287.85
304.901
328.182
281.732
261.897
247.474
238.128
233.636
233.886
238.888
248.77
263.774
284.251
241.907
224.544
211.911
203.721
199.779
199.99
204.364
213.011
226.139
244.052
205.844
190.736
179.737
172.603
169.165
169.342
173.141
180.657
192.072
207.645
173.527
160.471
150.962
144.79
141.812
141.958
145.234
151.721
161.575
175.017
144.891
133.694
125.535
120.236
117.675
117.794
120.597
126.153
134.595
146.108
119.831
110.306
103.359
98.8425
96.6567
96.752
99.1328
103.857
111.033
120.817
98.2056
90.1592
84.2837
80.4599
78.6056
78.6814
80.6911
84.682
90.7435
99.0013
79.8237
73.0602
68.1133
64.8887
63.3215
63.3806
65.0696
68.4268
73.5243
80.4629
64.4366
58.7605
54.6001
51.8827
50.5581
50.6024
52.0188
54.838
59.1173
64.9365
51.7396
46.9649
43.4564
41.1592
40.0349
40.0657
41.2542
43.6239
47.219
52.101
41.388
37.3474
34.3696
32.4144
31.4531
31.4723
32.4738
34.4744
37.5062
41.6134
33.0221
29.573
27.0228
25.343
24.5132
24.524
25.3761
27.0806
29.6588
33.1394
26.2952
23.3216
21.1142
19.6551
18.9315
18.9376
19.6737
21.1463
23.368
26.3554
20.8975
18.3061
16.3733
15.0908
14.4528
14.4571
15.1042
16.3969
18.3414
20.9455
16.5636
14.28
12.5681
11.4277
10.8589
10.8627
11.4399
12.5906
14.3159
16.6169
13.0668
11.0365
9.50748
8.48464
7.97286
7.97614
8.49531
9.52799
11.0707
13.1202
10.2151
8.40682
7.04017
6.12172
5.66018
5.66245
6.12929
7.05524
8.43281
10.2567
7.8547
6.26139
5.05449
4.23858
3.82574
3.8268
4.2423
5.06235
6.27556
7.87805
5.87387
4.50941
3.47492
2.76885
2.40708
2.40717
2.76943
3.47662
4.51291
5.87999
4.20387
3.09633
2.25458
1.66968
1.36277
1.3624
1.66867
2.25288
3.0934
4.19888
2.82215
1.99845
1.36178
0.905355
0.65696
0.656574
0.904212
1.35945
1.99379
2.81343
1.74957
1.20929
0.759479
0.427164
0.244633
0.244432
0.426566
0.758048
1.20594
1.74262
1.03462
0.714268
0.385929
0.16401
0.0630577
0.0630123
0.163869
0.385495
0.712919
1.03129
0.798476
0.452346
0.161359
0.0479968
0.0207355
0.0207347
0.0479924
0.16135
0.452225
0.797849
374.063
368.03
360.454
351.246
340.371
327.849
313.764
298.269
281.578
264.009
246.619
230.537
215.042
199.963
185.34
171.27
157.851
145.16
133.24
122.106
111.746
102.129
93.2096
84.9342
77.2456
70.0869
63.4037
57.1455
51.266
45.7234
40.4789
35.4962
30.7393
26.1648
21.6436
17.2878
13.0158
8.82568
5.2224
2.67152
157.398
155.295
152.725
149.673
146.136
142.125
137.668
132.81
127.619
122.208
116.79
111.516
106.215
100.809
95.2875
89.6798
84.0409
78.4345
72.9236
67.5637
62.3994
57.4635
52.7767
48.3491
44.1821
40.2703
36.6035
33.1683
29.9492
26.9301
24.0952
21.4293
18.9194
16.555
14.3348
12.2842
10.4603
9.01725
8.48023
13.3516
119.975
118.597
116.926
114.954
112.68
110.109
107.26
104.158
100.842
97.3583
93.7676
90.1103
86.3545
82.4809
78.4892
74.3969
70.2354
66.0439
61.8653
57.7415
53.7104
49.8042
46.048
42.4599
39.0513
35.828
32.7913
29.9389
27.2663
24.768
22.4386
20.2745
18.2756
16.4491
14.8161
13.4256
12.388
11.9912
13.3097
26.2858
108.18
107.174
105.945
104.477
102.759
100.782
98.5492
96.0701
93.3639
90.4575
87.3844
84.1682
80.8123
77.3268
73.7303
70.0484
66.3116
62.5529
58.8061
55.1042
51.4773
47.9517
44.549
41.2862
38.1758
35.226
32.4416
29.825
27.3766
25.0968
22.9863
21.0488
19.2929
17.7368
16.4166
15.4063
14.8688
15.2382
18.2169
38.9902
104.897
104.202
103.33
102.254
100.946
99.3757
97.5202
95.3652
92.91
90.1708
87.1851
83.9878
80.6141
77.1016
73.4887
69.8131
66.1104
62.4133
58.7517
55.1527
51.6404
48.2354
44.9549
41.8126
38.819
35.9818
33.3063
30.7963
28.4548
26.2848
24.2913
22.4824
20.8731
19.4902
18.3834
17.6506
17.5074
18.5353
23.0437
51.4988
105.866
105.492
104.99
104.323
103.442
102.286
100.788
98.8852
96.5521
93.7866
90.629
87.1689
83.4979
79.6913
75.8095
71.9019
68.0084
64.1614
60.3878
56.7097
53.1455
49.7105
46.417
43.2746
40.291
37.4719
34.8215
32.3435
30.0415
27.9201
25.9863
24.2517
22.736
21.4733
20.5259
20.0152
20.2084
21.8295
27.7528
63.2573
109.48
109.468
109.394
109.215
108.865
108.249
107.243
105.696
103.529
100.621
96.9894
92.9651
88.7119
84.355
79.9801
75.6446
71.387
67.2342
63.2066
59.32
55.5862
52.0143
48.6115
45.383
42.3326
39.4633
36.7775
34.2777
31.967
29.8505
27.9364
26.2386
24.7808
23.6038
22.7816
22.4587
22.9532
25.1272
32.3975
74.6396
114.94
115.334
115.75
116.145
116.464
116.641
116.545
115.678
113.545
110.253
106.066
101.163
95.9604
90.7653
85.6691
80.7206
75.944
71.3526
66.9547
62.7556
58.7586
54.9658
51.3779
47.9951
44.8171
41.8435
39.074
36.5094
34.1518
32.0059
30.0805
28.3912
26.9649
25.8488
25.1283
24.9703
25.7426
28.4413
37.0047
85.7065
121.745
122.572
123.502
124.503
125.563
126.696
127.627
127.14
124.842
121.34
116.896
111.279
104.891
98.5602
92.5539
86.8528
81.4429
76.3134
71.4559
66.8633
62.5294
58.4482
54.6141
51.0218
47.6665
44.5439
41.6511
38.9864
36.5504
34.347
32.3853
30.6819
29.267
28.1933
27.5574
27.548
28.5816
31.7842
41.5978
96.5359
129.549
130.826
132.267
133.83
135.486
137.18
138.421
138.365
136.182
131.99
126.862
121.216
114.354
107.062
100.19
93.726
87.6463
81.9298
76.5584
71.5162
66.7905
62.3694
58.241
54.3948
50.8216
47.5135
44.4644
41.6703
39.13
36.8462
34.8277
33.0924
31.6728
30.6274
30.0633
30.1907
31.4734
35.1643
46.1963
107.213
138.132
139.923
141.963
144.199
146.56
148.858
150.749
151.411
148.825
143.177
136.932
131.15
124.144
116.029
108.344
101.136
94.3794
88.0529
82.1355
76.6081
71.4527
66.6527
62.1922
58.0565
54.2325
50.7085
47.4759
44.5284
41.8624
39.4794
37.3878
35.606
34.1693
33.1412
32.6394
32.8949
34.418
38.5859
50.8118
117.792
147.312
149.729
152.534
155.69
159.122
162.598
165.652
165.969
161.607
154.78
147.583
141.097
134.025
125.417
116.957
109.012
101.566
94.6044
88.1087
82.0604
76.4399
71.2272
66.403
61.9489
57.848
54.0854
50.6487
47.5287
44.72
42.2228
40.0448
38.2052
36.7416
35.7229
35.2768
35.6552
37.4143
42.0534
55.4573
128.306
156.876
160.036
163.772
168.07
172.839
177.858
181.571
180.662
175.335
167.732
159.616
152.215
144.598
135.396
126.145
117.414
109.222
101.568
94.4425
87.8271
81.7008
76.0401
70.8217
66.0226
61.6216
57.5999
53.9414
50.6338
47.6694
45.0468
42.7731
40.8679
39.3712
38.357
37.9638
38.4649
40.4645
45.5908
60.2241
139.08
166.562
170.554
175.344
180.954
187.285
193.75
197.885
196.883
191.062
182.665
173.557
165.137
156.711
146.537
136.218
126.5
117.413
108.956
101.116
93.8699
87.1883
81.041
75.3974
70.2284
65.5069
61.2091
57.3146
53.8076
50.6775
47.921
45.5443
43.5675
42.0327
41.0194
40.6765
41.2992
43.5399
49.1563
65.0247
149.904
176.079
180.939
186.838
193.846
201.859
210.07
215.774
215.462
209.168
199.783
189.586
180.12
170.718
159.129
147.32
136.321
126.132
116.729
108.075
100.126
92.838
86.1666
80.0703
74.5105
69.4526
64.8662
60.7257
57.011
53.7085
50.8124
48.3279
46.2753
44.6988
43.6831
43.3878
44.1294
46.6085
52.7109
69.8051
160.704
185.135
190.836
197.796
206.111
215.744
226.029
234.715
236.019
228.972
218.265
206.971
196.646
186.346
172.97
159.243
146.682
135.208
124.737
115.186
106.481
98.5494
91.3293
84.7636
78.8016
73.3991
68.5183
64.1274
60.2017
56.7238
53.6857
51.0912
48.9607
47.3405
46.3202
46.07
46.9277
49.641
56.2231
74.5311
171.445
193.486
199.965
207.882
217.324
228.277
240.326
252.295
256.654
248.748
236.193
223.784
213.038
202.313
187.131
171.311
157.084
144.265
132.692
122.228
112.758
104.182
96.4142
89.3818
83.0211
77.2778
72.1059
67.4678
63.3336
59.6825
56.504
53.8003
51.5922
49.928
48.9022
48.6953
49.6662
52.6094
59.6637
79.1712
182.071
200.952
208.153
216.97
227.494
239.788
253.849
269.098
275.714
266.209
251.665
238.167
227.31
216.694
200.184
182.535
166.828
152.8
140.225
128.923
118.745
109.568
101.288
93.817
87.0799
81.0138
75.5656
70.692
66.3589
62.5421
59.2289
56.4206
54.138
52.4315
51.4007
51.2362
52.3177
55.4858
63.0027
83.6886
192.506
207.374
215.229
224.896
236.513
250.239
266.198
283.826
291.595
280.665
264.416
249.697
238.44
227.96
210.855
192.021
175.272
160.341
146.983
135.002
124.235
114.546
105.82
97.9622
90.8893
84.5324
78.8336
73.745
69.2295
65.2603
61.8228
58.9178
56.5665
54.8217
53.7879
53.6659
54.8556
58.2426
66.2098
88.0444
202.665
212.583
220.967
231.357
243.962
259.055
276.936
295.755
301.986
290.884
273.951
258.19
246.035
235.26
218.53
199.343
182.071
166.609
152.74
140.28
129.073
118.985
109.902
101.725
94.3703
87.7659
81.8509
76.5755
71.9002
67.7966
64.2495
61.2591
58.8478
57.0706
56.0375
55.9588
57.2542
60.8531
69.2548
92.1985
212.453
216.432
225.121
235.948
249.184
265.204
284.421
302.517
306.27
295.984
279.467
263.188
250.005
238.707
223.334
204.64
187.256
171.577
157.436
144.682
133.18
122.807
113.458
105.036
97.4603
90.6576
84.5672
79.1382
74.3304
70.115
66.4761
63.4148
60.9543
59.1528
58.125
58.0912
59.4899
63.2921
72.1088
96.111
221.77
218.885
227.571
238.407
251.67
267.739
286.999
303.829
305.866
296.266
280.768
264.694
251.029
239.676
226.109
208.4
191.129
175.408
161.143
148.224
136.537
125.977
116.444
107.85
100.113
93.1642
86.942
81.3961
76.4864
72.1844
68.4746
65.3588
62.8622
61.0456
60.0291
60.042
61.5411
65.5367
74.7446
99.7435
230.516
220.099
228.48
238.909
251.633
266.98
285.264
300.458
301.22
292.22
278.071
262.897
249.333
237.973
226.637
211.188
194.092
178.317
163.967
150.945
139.149
128.478
118.835
110.134
102.297
95.2535
88.9445
83.3204
78.3416
73.9803
70.2222
67.0703
64.5518
62.7306
61.7318
61.7937
63.3899
67.5673
77.1387
103.061
238.594
220.403
228.254
237.985
249.792
263.93
280.514
293.592
293.757
285.477
272.617
258.512
245.382
233.99
223.547
211.704
196.217
180.343
165.909
152.833
140.995
130.286
120.606
111.866
103.988
96.9033
90.5541
84.8915
79.8775
75.4855
71.7028
68.5341
66.0089
64.1941
63.2201
63.3332
65.0226
69.3685
79.2717
106.033
245.916
220.217
227.407
236.289
247.017
259.76
274.327
285.139
285.005
277.34
265.505
252.356
239.805
228.597
218.418
208.056
195.926
181.235
166.817
153.795
142.021
131.369
121.735
113.029
105.174
98.1033
91.7607
86.1
81.0849
76.6911
72.9077
69.7416
67.225
65.4281
64.4858
64.6524
66.4309
70.931
81.132
108.64
252.4
219.966
226.428
234.393
243.984
255.263
267.748
276.556
275.922
268.585
257.534
245.214
233.264
222.384
212.463
202.752
192.189
179.933
166.446
153.734
142.189
131.717
122.223
113.628
105.86
98.8568
92.567
86.9471
81.9642
77.5964
73.8356
70.6913
68.1982
66.4301
65.5266
65.7489
67.6127
72.2542
82.7216
110.89
258.068
220.048
225.751
232.756
241.154
251.066
262.108
269.258
267.553
260.093
249.524
237.881
226.504
216.013
206.405
197.219
187.755
177.348
165.099
152.809
141.598
131.394
122.117
113.698
106.073
99.186
92.9898
87.4459
82.5249
78.2085
74.4913
71.3858
68.9299
67.2007
66.342
66.6218
68.5671
73.3374
84.0428
112.797
262.923
220.843
225.797
231.858
239.091
247.622
257.193
262.933
260.179
252.416
242.091
230.929
220.037
209.936
200.657
191.863
183
173.488
162.785
151.229
140.39
130.503
121.497
113.302
105.863
99.1301
93.0608
87.6215
82.7873
78.5432
74.8874
71.8353
69.4278
67.7452
66.9355
67.2722
69.2918
74.173
85.0755
114.304
266.797
222.703
226.939
232.09
238.179
245.349
253.374
257.612
253.954
245.853
235.602
224.73
214.179
204.39
195.398
186.924
178.495
169.595
159.798
149.004
138.641
129.138
120.447
112.514
105.293
98.7404
92.822
87.5087
82.7797
78.6241
75.0432
72.0555
69.7047
68.0742
67.3154
67.7064
69.791
74.7626
85.8181
115.406
269.688
225.958
229.533
233.807
238.726
244.484
250.735
253.207
248.773
240.411
230.184
219.476
209.127
199.529
190.718
182.458
174.33
165.868
156.689
146.472
136.564
127.447
119.081
111.423
104.433
98.0765
92.323
87.1487
82.5369
78.4802
74.9832
72.0671
69.7783
68.2028
67.4946
67.9355
70.0744
75.1148
86.2786
116.111
271.602
230.937
233.951
237.399
241.071
245.309
249.458
249.925
244.767
236.161
225.892
215.235
204.965
195.448
186.73
178.607
170.688
162.506
153.607
143.787
134.302
125.551
117.501
110.115
103.358
97.2001
91.616
86.5859
82.0966
78.144
74.7353
71.8944
69.6697
68.1494
67.4897
67.9744
70.1559
75.2429
86.4707
116.436
272.57
237.95
240.578
243.267
245.48
247.965
249.76
248.17
242.196
233.2
222.745
212.009
201.704
192.156
183.413
175.302
167.482
159.458
150.639
141.075
131.964
123.55
115.797
108.669
102.135
96.1705
90.7525
85.8649
81.4977
77.6492
74.3292
71.5634
69.4021
67.935
67.3195
67.8409
70.0525
75.164
86.4128
116.402
272.634
247.254
249.745
251.676
251.845
251.709
251.348
248.462
241.211
231.436
220.583
209.668
199.272
189.644
180.803
172.6
164.756
156.813
147.731
138.351
129.616
121.522
114.043
107.153
100.827
95.0422
89.7807
85.0285
80.778
77.0296
73.7948
71.101
68.9998
67.5818
67.005
67.5547
69.7833
74.8977
86.1263
116.038
271.853
259.033
261.758
262.924
260.473
257.396
254.625
249.972
241.202
230.524
219.212
208.083
197.568
187.828
178.836
170.424
162.307
154.061
144.935
135.847
127.396
119.56
112.314
105.631
99.4879
93.8648
88.7449
84.1163
79.9732
76.3173
73.1615
70.534
68.4874
67.1126
66.5675
67.1365
69.3691
74.4656
85.6354
115.375
270.299
273.333
276.838
277.277
271.759
265.573
259.97
252.937
242.47
230.739
218.819
207.329
196.56
186.585
177.336
168.628
160.168
151.577
142.434
133.572
125.342
117.715
110.66
104.151
98.1637
92.68
87.6837
83.164
79.116
75.5424
72.4568
69.888
67.8888
66.5501
66.0289
66.6075
68.8313
73.8902
84.9661
114.448
268.056
289.868
294.69
294.717
285.854
276.197
267.427
257.587
245.201
232.235
219.52
207.477
196.258
185.859
176.184
167.059
158.223
149.321
140.195
131.524
123.475
116.017
109.117
102.75
96.8916
91.5236
86.6309
82.2031
78.2358
74.7323
71.7064
69.1871
67.2269
65.916
65.4102
65.9889
68.1915
73.1948
84.1452
113.294
265.214
308.107
314.888
314.792
302.156
288.786
276.61
263.704
249.224
234.897
221.248
208.497
196.669
185.698
175.471
165.839
156.587
147.316
138.222
129.725
121.827
114.501
107.721
101.463
95.7039
90.4264
85.6155
81.261
77.3586
73.9115
70.9335
68.4532
66.5227
65.231
64.7319
65.3011
67.4709
72.4025
83.2002
111.953
261.871
326.956
335.752
336.561
320.425
302.92
287.08
270.966
254.319
238.547
223.849
210.252
197.69
186.051
175.205
164.99
155.229
145.722
136.69
128.276
120.459
113.212
106.507
100.32
94.6288
89.4146
84.6622
80.3611
76.5065
73.1012
70.1585
67.7063
65.7957
64.514
64.0128
64.5634
66.6899
71.5356
82.1578
110.462
258.125
345.482
355.615
358.716
339.983
317.801
298.049
278.809
260.158
242.946
227.106
212.545
199.145
186.779
175.307
164.56
154.378
144.69
135.626
127.207
119.402
112.175
105.499
99.3438
93.687
88.5078
83.79
79.5218
75.6976
72.3192
69.3988
66.9635
65.0627
63.7822
63.2703
63.7938
65.8676
70.6157
81.0441
108.86
254.078
363.938
375.51
380.099
358.163
331.828
308.333
286.596
266.326
247.796
230.824
215.273
201.016
187.919
175.834
164.593
154.025
144.152
134.991
126.504
118.652
111.397
104.704
98.5442
92.8899
87.7186
83.0119
78.7567
74.9457
71.5794
68.6687
66.2391
64.3384
63.0503
62.5199
63.0084
65.0215
69.6625
79.883
107.181
249.809
382.24
395.248
400.168
374.691
345.196
318.705
294.807
273.015
253.126
235.01
218.49
203.401
189.585
176.883
165.112
154.199
144.102
134.77
126.152
118.199
110.869
104.121
97.9221
92.241
87.0524
82.3353
78.0743
74.2604
70.8922
67.979
65.5446
63.635
62.3312
61.7749
62.222
64.1677
68.6943
78.6976
105.459
245.421
400.303
414.642
419.329
390.462
358.322
329.495
303.568
280.178
258.979
239.729
222.241
206.315
191.77
178.431
166.159
154.868
144.478
134.915
126.114
118.017
110.573
103.737
97.47
91.7369
86.5088
81.762
77.4786
73.647
70.2643
67.3376
64.8889
62.962
61.6354
61.047
61.4469
63.3203
67.7277
77.5084
103.726
240.994
418.237
434.147
437.472
405.055
370.889
340.168
312.528
287.62
265.139
244.799
226.349
209.587
194.318
180.369
167.602
155.91
145.192
135.361
126.342
118.069
110.483
103.533
97.1747
91.3689
86.0831
81.2903
76.9699
73.1082
69.6997
66.7499
64.2785
62.3271
60.9714
60.3457
60.6942
62.4918
66.7776
76.3342
102.009
236.597
435.703
452.9
454.585
419.043
382.98
350.556
321.389
295.12
271.43
250.031
230.66
213.09
197.126
182.589
169.331
157.226
146.162
136.044
126.787
118.317
110.57
103.487
97.02
91.1255
85.7673
80.9153
76.5461
72.6435
69.2001
66.2188
63.7176
61.7357
60.3459
59.679
59.9733
61.6938
65.8582
75.1942
100.335
232.293
452.82
471.38
470.941
432.305
394.507
360.534
329.981
302.474
277.678
255.295
235.058
216.73
200.104
184.998
171.255
158.737
147.323
136.91
127.405
118.727
110.805
103.577
96.9888
90.9939
85.5522
80.6306
76.2032
72.2513
68.7651
65.7458
63.2089
61.1915
59.7638
59.0529
59.2919
60.9361
64.9843
74.1136
98.7638
228.251
469.447
489.265
486.209
444.741
405.368
369.993
338.187
309.556
283.755
260.473
239.437
220.404
203.16
187.515
173.305
160.384
148.626
137.917
128.159
119.267
111.164
103.782
97.0649
90.961
85.4275
80.4285
75.9353
71.9272
68.3921
65.3291
62.7518
60.6949
59.2262
58.4691
58.6518
60.2206
64.1556
73.0859
97.2644
224.386
485.462
506.266
500.103
456.246
415.496
378.878
345.951
316.311
289.601
265.503
243.737
224.054
206.235
190.083
175.429
162.122
150.027
139.027
129.019
119.911
111.623
104.084
97.2318
91.0133
85.3821
80.2999
75.7355
71.6659
68.077
64.966
62.3444
60.2448
58.7325
57.9278
58.0536
59.5477
63.3727
72.1116
95.8395
220.716
500.814
521.677
512.423
466.916
424.945
387.222
353.294
322.746
295.213
270.372
247.937
227.654
209.299
192.672
177.597
163.918
151.498
140.215
129.96
120.638
112.164
104.465
97.4757
91.1388
85.4061
80.2365
75.5967
71.4616
67.8152
64.6527
61.9839
59.8393
58.2816
57.428
57.4968
58.9175
62.6361
71.1921
94.4927
217.259
516.525
537.348
524.015
476.906
433.845
395.133
360.3
328.926
300.639
275.113
252.056
231.211
212.351
195.273
179.796
165.761
153.026
141.465
130.967
121.433
112.774
104.914
97.7852
91.3276
85.4905
80.2304
75.5122
71.3086
67.6018
64.3854
61.6671
59.4755
57.8712
56.9681
56.9802
58.3293
61.9456
70.3278
93.2262
214.022
533.2
553.987
535.216
486.486
442.419
402.794
367.119
334.97
305.971
279.793
256.143
234.76
215.414
197.899
182.032
167.649
154.605
142.771
132.032
122.287
113.443
105.421
98.1514
91.5712
85.6274
80.2746
75.4755
71.2011
67.4318
64.1594
61.3899
59.1501
57.4983
56.5456
56.5017
57.7813
61.2996
69.5175
92.0391
211.005
550.757
570.255
545.628
495.877
450.93
410.446
373.956
341.044
311.34
284.515
260.274
238.356
218.527
200.577
184.321
169.591
156.239
144.132
133.152
123.194
114.164
105.98
98.567
91.8622
85.8098
80.3623
75.4803
71.1332
67.2997
63.9698
61.148
58.8591
57.1593
56.1571
56.0582
57.2704
60.6955
68.7585
90.9277
208.199
569.931
587.569
556.739
505.831
459.883
418.455
381.083
347.355
316.903
289.396
264.538
242.064
221.736
203.339
186.685
171.601
157.935
145.551
134.326
124.153
114.934
106.583
99.0255
92.194
86.031
80.4868
75.5203
71.099
67.1999
63.8114
60.9363
58.5977
56.8498
55.7986
55.6458
56.7931
60.1292
68.0463
89.8862
205.59
591.401
606.321
568.865
516.831
469.722
427.177
388.772
354.107
322.812
294.551
269.02
245.947
225.086
206.218
189.145
173.693
159.701
147.03
135.554
125.159
115.746
107.226
99.5202
92.5595
86.2837
80.641
75.5885
71.0917
67.126
63.678
60.7491
58.3607
56.5648
55.4651
55.2598
56.3445
59.5959
67.3753
88.9071
203.157
614.527
627.37
584.214
529.908
481.001
436.947
397.248
361.46
329.185
300.065
273.782
250.049
228.61
209.234
191.716
175.873
161.539
148.569
136.83
126.207
116.595
107.901
100.043
92.9506
86.5598
80.8171
75.6772
71.1039
67.0709
63.5631
60.5802
58.1419
56.2985
55.1511
54.8946
55.9189
59.0897
66.739
87.9809
200.878
640.062
650.411
601.327
544.577
493.589
447.762
406.547
369.457
336.061
305.973
278.851
254.39
232.318
212.393
194.397
178.139
163.444
150.16
138.148
127.288
117.47
108.597
100.584
93.3572
86.8497
81.0056
75.7775
71.1273
67.0267
63.4591
60.4224
57.9347
56.0443
54.8502
54.5439
55.5102
58.6038
66.1299
87.0996
198.734
667.566
675.301
620.286
560.714
507.363
459.533
416.612
378.064
343.417
312.255
284.209
258.953
236.196
215.68
197.174
180.475
165.4
151.787
139.492
128.387
118.357
109.301
101.131
93.7672
87.1418
81.1958
75.8793
71.1522
66.9844
63.3574
60.2677
57.7314
55.7951
54.5554
54.2007
55.1106
58.1297
65.5369
86.2463
196.774
697.355
701.761
640.417
577.954
522.094
472.102
427.326
387.188
351.179
318.851
289.807
263.695
240.204
219.059
200.014
182.852
167.379
153.426
140.838
129.481
119.236
109.995
101.665
94.1651
87.4221
81.3747
75.9707
71.1678
66.9339
63.249
60.1074
57.5239
55.5431
54.2592
53.8576
54.7125
57.6577
64.9432
85.3732
194.92
728.197
729.303
661.89
596.244
537.656
485.329
438.555
396.709
359.241
325.667
295.56
268.541
244.277
222.472
202.864
185.223
169.342
155.039
142.154
130.543
120.081
110.655
102.168
94.5327
87.6741
81.5276
76.0385
71.1621
66.8645
63.1236
59.9324
57.3037
55.2804
53.9544
53.508
54.3105
57.1862
64.3645
84.5785
192.589
759.088
757.48
684.468
615.365
553.846
499.025
450.126
406.469
367.46
332.576
301.355
273.391
248.325
225.84
205.657
187.528
171.233
156.581
143.399
131.537
120.862
111.255
102.614
94.8486
87.8791
81.6381
76.0681
71.1223
66.7646
62.9712
59.7334
57.0623
54.999
53.6332
53.1442
53.8956
56.7008
63.762
83.706
190.622
790.107
786.091
707.611
634.947
570.374
512.942
461.816
416.267
375.653
339.411
307.043
278.113
252.233
229.063
208.304
189.69
172.988
157.993
144.523
132.419
121.54
111.762
102.976
95.0888
88.0163
81.688
76.0439
71.0347
66.6224
62.7815
59.5014
56.7918
54.6918
53.2892
52.7597
53.4615
56.1966
63.1374
82.7981
188.496
820.357
814.776
731.058
654.719
586.961
526.801
473.357
425.849
383.587
345.963
312.439
282.543
255.858
232.016
210.697
191.617
174.527
159.208
145.469
133.14
122.073
112.139
103.223
95.2264
88.0625
81.6575
75.9488
70.8848
66.4255
62.5437
59.2273
56.4843
54.3522
52.9163
52.3495
53.0045
55.6721
62.4944
81.873
186.109
847.98
843.542
754.805
674.475
603.299
540.254
484.396
434.88
390.957
351.961
317.307
286.478
259.025
234.552
212.712
193.203
175.76
160.151
146.172
133.645
122.416
112.347
103.321
95.2329
87.9936
81.526
75.7651
70.6574
66.1609
62.2468
58.9016
56.1317
53.9729
52.5087
51.909
52.5222
55.1311
61.856
80.997
183.458
871.634
869.786
778.185
693.668
618.815
552.728
494.398
442.887
397.354
357.058
321.353
289.675
261.533
236.501
214.208
194.331
176.59
160.738
146.562
133.877
122.519
112.346
103.235
95.079
87.7845
81.2722
75.4748
70.337
65.8152
61.8793
58.5143
55.7252
53.5465
52.0595
51.4311
52.0047