/*--------------------------------*- C++ -*----------------------------------*\
  =========                 |
  \\      /  F ield         | OpenFOAM: The Open Source CFD Toolbox
   \\    /   O peration     | Website:  https://openfoam.org
    \\  /    A nd           | Version:  8
     \\/     M anipulation  |
\*---------------------------------------------------------------------------*/
FoamFile
{
    version     2.0;
    format      ascii;
    class       volScalarField;
    location    "1.05";
    object      k;
}
// * * * * * * * * * * * * * * * * * * * * * * * * * * * * * * * * * * * * * //

dimensions      [0 2 -2 0 0 0 0];

internalField   nonuniform List<scalar> 
9150
(
0.0018323
0.000949321
0.000506486
0.000366712
0.000297653
0.000297653
0.000366712
0.000506486
0.000949321
0.0018323
0.00178938
0.00075521
0.00043043
0.000316667
0.000253112
0.000253112
0.000316667
0.00043043
0.00075521
0.00178938
0.00171799
0.000659881
0.000398294
0.000294711
0.00023594
0.00023594
0.000294711
0.000398294
0.000659881
0.00171799
0.00163935
0.000609976
0.000385826
0.000286338
0.000229894
0.000229894
0.000286338
0.000385826
0.000609976
0.00163935
0.00155578
0.00058867
0.000381458
0.000283645
0.000228339
0.000228339
0.000283645
0.000381457
0.00058867
0.00155578
0.00287779
0.00270432
0.00219165
0.0021401
0.00203931
0.00203931
0.00214008
0.00219163
0.0027043
0.00287779
0.00231368
0.00154801
0.0014681
0.00157906
0.00150653
0.00150653
0.00157906
0.00146809
0.001548
0.00231367
0.00205461
0.00127382
0.000990099
0.00103877
0.000972174
0.000972174
0.00103876
0.000990095
0.00127382
0.00205461
0.00187263
0.00112565
0.000709755
0.000670553
0.000601241
0.000601241
0.000670551
0.000709754
0.00112565
0.00187263
0.00179258
0.00103198
0.000564521
0.000460932
0.000392709
0.000392709
0.000460932
0.000564521
0.00103198
0.00179258
0.0174703
0.00775062
0.00355329
0.00251856
0.00228223
0.00228221
0.00251843
0.00355296
0.00775168
0.0174759
0.00502466
0.00395535
0.00290621
0.00244963
0.0022933
0.00229328
0.00244958
0.00290616
0.00395551
0.00502461
0.00446496
0.0035897
0.00288935
0.00245127
0.00231411
0.00231409
0.00245124
0.00288931
0.00358974
0.00446491
0.00396257
0.00333049
0.00287624
0.00244967
0.00233411
0.00233409
0.00244963
0.0028762
0.00333045
0.00396254
0.00339335
0.00327275
0.0027604
0.00239887
0.00230774
0.00230773
0.00239885
0.00276036
0.0032727
0.00339334
0.962317
0.96719
0.970311
0.971951
0.972433
0.972345
0.971671
0.969814
0.96647
0.961379
1.96895
1.98074
1.98934
1.99491
1.99756
1.99734
1.99425
1.98825
1.97923
1.96705
2.44347
2.4568
2.46658
2.47294
2.47596
2.47569
2.47212
2.46523
2.45492
2.44109
2.77398
2.787
2.79653
2.8027
2.80561
2.80528
2.80174
2.79494
2.78479
2.77117
3.04938
3.0609
3.06926
3.07463
3.0771
3.07672
3.07349
3.06738
3.05827
3.04604
3.30093
3.31003
3.31654
3.32063
3.32242
3.32196
3.31924
3.31424
3.30683
3.29687
3.54253
3.54839
3.55246
3.55488
3.55578
3.55519
3.55314
3.54958
3.54441
3.53747
3.78059
3.78258
3.7837
3.7841
3.7839
3.78316
3.78189
3.78003
3.77751
3.77417
4.01766
4.01527
4.01303
4.01112
4.00966
4.00871
4.00827
4.00832
4.00873
4.00938
4.25422
4.24697
4.24101
4.23652
4.23364
4.23242
4.23288
4.23496
4.23854
4.24344
4.48978
4.47708
4.46695
4.45959
4.45512
4.4536
4.45502
4.45932
4.46637
4.47596
4.72298
4.70408
4.68929
4.67875
4.67254
4.67068
4.67318
4.67996
4.69091
4.70584
4.95132
4.92564
4.90579
4.89182
4.88375
4.88158
4.88529
4.89482
4.91011
4.93104
5.17152
5.13879
5.11371
5.09623
5.08627
5.08382
5.08885
5.10134
5.12128
5.14867
5.3801
5.34046
5.31024
5.28928
5.2775
5.27481
5.28121
5.29671
5.32138
5.35531
5.57409
5.52788
5.49274
5.46847
5.45492
5.45202
5.45975
5.47817
5.50738
5.54758
5.75127
5.69879
5.65898
5.63156
5.61635
5.61323
5.62218
5.64328
5.67669
5.72267
5.90959
5.85117
5.80699
5.77668
5.75993
5.75659
5.76663
5.79012
5.82729
5.87846
6.04664
5.98298
5.93505
5.90226
5.88422
5.88071
5.89167
5.91721
5.9576
6.01327
6.16001
6.0925
6.04183
6.00729
5.98837
5.98479
5.99648
6.02358
6.06644
6.12561
6.24826
6.17887
6.12694
6.09162
6.07236
6.06884
6.08101
6.10903
6.1533
6.21448
6.31182
6.24286
6.19129
6.15629
6.13728
6.13397
6.1463
6.17444
6.21883
6.28015
6.3534
6.28701
6.23736
6.20369
6.18548
6.18248
6.19463
6.2221
6.26531
6.3249
6.37759
6.31545
6.26894
6.23741
6.22045
6.21781
6.22947
6.25559
6.29653
6.35286
6.39015
6.33334
6.29077
6.26193
6.24647
6.24421
6.25514
6.27939
6.31729
6.3693
6.39719
6.34623
6.308
6.28211
6.26828
6.26637
6.27639
6.29844
6.33279
6.37984
6.40455
6.35956
6.32578
6.30291
6.29072
6.28912
6.29809
6.31774
6.34827
6.39001
6.41756
6.37844
6.34904
6.32911
6.31849
6.31713
6.325
6.34219
6.36885
6.40521
6.44117
6.40764
6.38235
6.36517
6.356
6.35482
6.36161
6.37643
6.39935
6.43053
6.48007
6.45155
6.42991
6.41514
6.40721
6.40615
6.41196
6.42464
6.44421
6.47069
6.53857
6.51412
6.49537
6.48245
6.47546
6.47446
6.47947
6.49046
6.50734
6.53002
6.62048
6.59861
6.58156
6.56967
6.56315
6.56214
6.56665
6.57662
6.59186
6.61213
6.72873
6.70718
6.69014
6.67811
6.67144
6.67031
6.67474
6.68461
6.69964
6.71943
6.86449
6.84024
6.821
6.8074
6.79982
6.79847
6.80334
6.81428
6.83094
6.85278
7.02604
6.99558
6.97175
6.95508
6.94586
6.94423
6.95016
6.96349
6.98386
7.01074
7.20717
7.16763
7.13737
7.11654
7.10521
7.10339
7.111
7.12791
7.15388
7.18854
7.39754
7.34818
7.31102
7.28582
7.27238
7.27057
7.28032
7.3016
7.3344
7.37877
7.58729
7.5292
7.48603
7.45706
7.44192
7.44037
7.45236
7.47796
7.51736
7.57099
7.76749
7.70464
7.65759
7.62606
7.60981
7.60871
7.62275
7.65204
7.69679
7.75736
7.94344
7.87563
7.82502
7.79125
7.77409
7.77343
7.7893
7.82181
7.87122
7.93792
8.11389
8.04158
7.98766
7.95179
7.93375
7.93345
7.95093
7.98633
8.03994
8.1122
8.27945
8.20258
8.14535
8.10736
8.08837
8.08828
8.10714
8.14513
8.20258
8.27994
8.4399
8.35859
8.29805
8.25786
8.23778
8.23771
8.25773
8.29808
8.35917
8.44162
8.59572
8.5099
8.44593
8.40338
8.38199
8.38168
8.40253
8.44483
8.50905
8.59582
8.74754
8.65692
8.58928
8.54412
8.52116
8.52029
8.54162
8.58544
8.65232
8.74302
8.89556
8.79983
8.72829
8.68032
8.65554
8.65381
8.67518
8.72
8.78888
8.88274
9.03949
8.93855
8.86307
8.81225
8.78556
8.78275
8.8038
8.849
8.91897
9.0147
9.17833
9.07267
8.9937
8.94037
8.91199
8.90814
8.9287
8.97384
9.04399
9.1399
9.31109
9.20204
9.12059
9.06554
9.03605
9.03161
9.05201
9.09731
9.16782
9.26416
9.43845
9.32759
9.24493
9.18916
9.15938
9.15506
9.17594
9.22205
9.29369
9.39154
9.56179
9.45119
9.36869
9.3132
9.28396
9.28048
9.30253
9.35012
9.42348
9.52315
9.68731
9.57703
9.49494
9.44012
9.41189
9.40987
9.43384
9.48383
9.56004
9.66288
9.81865
9.70811
9.62612
9.57188
9.54484
9.54469
9.57131
9.62478
9.70541
9.81379
9.95833
9.84643
9.76373
9.70959
9.68357
9.68548
9.71525
9.773
9.859
9.97369
10.1081
9.99305
9.90826
9.85328
9.82785
9.83183
9.86527
9.9283
10.0212
10.1446
10.269
10.1478
10.0589
10.0017
9.97613
9.98205
10.0196
10.0889
10.1903
10.3242
10.4381
10.308
10.2127
10.1519
10.1254
10.133
10.175
10.2516
10.3635
10.5111
10.6101
10.469
10.3655
10.2996
10.2711
10.28
10.3267
10.4115
10.535
10.6981
10.7838
10.6272
10.5124
10.4392
10.4075
10.4173
10.4688
10.5625
10.6988
10.8784
10.9504
10.7745
10.6456
10.5633
10.5274
10.5377
10.5945
10.6982
10.8494
11.0486
11.0998
10.9014
10.756
10.663
10.6219
10.6327
10.6954
10.8106
10.979
11.2014
11.2196
10.9966
10.833
10.728
10.6811
10.6922
10.7614
10.8894
11.077
11.3254
11.3005
11.0497
10.8656
10.7473
10.6939
10.7051
10.7812
10.9231
11.1322
11.4099
11.3298
11.0475
10.8413
10.7089
10.6486
10.6596
10.7424
10.8983
11.1299
11.4406
11.284
10.9718
10.7457
10.6008
10.5342
10.5446
10.6324
10.7993
11.0488
11.3861
11.1308
10.8045
10.5673
10.4148
10.344
10.3536
10.4439
10.6168
10.8757
11.2255
10.8847
10.5508
10.3081
10.1517
10.0786
10.0873
10.1781
10.3529
10.6153
10.9706
10.548
10.216
9.97379
9.81722
9.74344
9.75112
9.84048
10.0133
10.2727
10.6233
10.1409
9.8142
9.57564
9.42111
9.34784
9.35451
9.4413
9.6099
9.86347
10.2065
9.67382
9.35648
9.12456
8.97407
8.90232
8.90802
8.99131
9.15378
9.39843
9.7295
9.15899
8.85479
8.63216
8.48742
8.41807
8.42291
8.50204
8.65691
8.89022
9.20585
8.61011
8.32207
8.11064
7.97282
7.90649
7.91061
7.98526
8.13167
8.35212
8.6497
8.04477
7.77237
7.57215
7.44145
7.37835
7.3819
7.45218
7.59029
7.79824
8.07881
7.47282
7.21546
7.0262
6.90253
6.8427
6.84581
6.91195
7.04211
7.23818
7.50275
6.90076
6.65845
6.48009
6.36344
6.30689
6.30965
6.37179
6.49423
6.67868
6.92748
6.33503
6.10759
5.94001
5.8303
5.77703
5.7795
5.83775
5.95264
6.1257
6.35901
5.78125
5.56832
5.41128
5.30838
5.25834
5.26053
5.31501
5.42253
5.58449
5.80272
5.244
5.04516
4.89839
4.80214
4.75526
4.75719
4.80799
4.90833
5.05947
5.26306
4.72702
4.54193
4.40521
4.31548
4.2717
4.27338
4.32057
4.41388
4.55444
4.74372
4.23356
4.06197
3.93514
3.85182
3.8111
3.81254
3.85619
3.94259
4.07276
4.24799
3.76666
3.60836
3.49123
3.41421
3.3765
3.37772
3.41791
3.49756
3.61753
3.77897
3.32918
3.18385
3.07617
3.00528
2.97051
2.97153
3.00839
3.08149
3.19159
3.33961
2.92373
2.79083
2.69218
2.62714
2.59516
2.596
2.6297
2.69661
2.79731
2.93255
2.55236
2.43103
2.34077
2.28113
2.25173
2.2524
2.28319
2.34436
2.43637
2.55975
2.21619
2.10529
2.02255
1.96774
1.94063
1.94113
1.96928
2.02528
2.10945
2.22211
1.91517
1.81333
1.73711
1.68645
1.66129
1.66161
1.68744
1.7389
1.81615
1.91932
1.64803
1.55383
1.48303
1.43582
1.41226
1.41239
1.43626
1.48387
1.55519
1.65014
1.41246
1.3245
1.25811
1.21365
1.19136
1.19136
1.21367
1.25818
1.32468
1.41279
1.20548
1.12255
1.05961
1.01727
0.995958
0.995888
1.01707
1.05929
1.12213
1.20494
1.02395
0.944957
0.884609
0.843808
0.823191
0.823112
0.843581
0.884266
0.944531
1.02345
0.864797
0.788798
0.730281
0.690472
0.67028
0.670217
0.690304
0.730065
0.788615
0.864738
0.725049
0.651328
0.594055
0.55479
0.534772
0.53472
0.55466
0.593922
0.651299
0.725257
0.601819
0.530118
0.47382
0.434817
0.414776
0.414716
0.434663
0.473646
0.530024
0.601928
0.492568
0.423261
0.368123
0.329331
0.30914
0.309061
0.329118
0.367832
0.422963
0.492333
0.395375
0.329578
0.276327
0.237955
0.217532
0.217439
0.237697
0.27594
0.329085
0.394788
0.309157
0.248683
0.198565
0.161099
0.14039
0.140301
0.16085
0.198171
0.248126
0.308394
0.233971
0.180821
0.135245
0.0995702
0.0787943
0.0787267
0.0993862
0.134945
0.180362
0.233278
0.17108
0.126098
0.0857939
0.0536653
0.0345108
0.0344731
0.0535703
0.085637
0.125836
0.170644
0.121762
0.0826128
0.0472882
0.0224078
0.00983175
0.00981993
0.0223795
0.0472434
0.0825317
0.121606
0.0834883
0.0440107
0.0171962
0.00572123
0.00276595
0.00276514
0.00571798
0.0171935
0.0440134
0.0834926
0.953643
0.94333
0.930312
0.914381
0.895402
0.873314
0.84815
0.820048
0.789248
0.756165
0.722569
0.690841
0.65958
0.628436
0.597473
0.566895
0.536936
0.5078
0.479643
0.452564
0.42661
0.401783
0.378044
0.355329
0.333552
0.312616
0.292417
0.272848
0.253803
0.23517
0.216833
0.198662
0.180502
0.16213
0.14289
0.123013
0.101814
0.0785862
0.0554224
0.024159
1.95055
1.92883
1.90255
1.87154
1.83574
1.79521
1.75017
1.70102
1.64824
1.59243
1.53412
1.47399
1.41287
1.35139
1.2901
1.22947
1.16991
1.11172
1.05513
1.00029
0.94727
0.896092
0.846721
0.799081
0.753069
0.708558
0.665405
0.623457
0.582546
0.542493
0.503101
0.464147
0.425365
0.386439
0.34697
0.306662
0.26436
0.21851
0.163149
0.0705633
2.42247
2.39794
2.36831
2.33338
2.29306
2.24739
2.19659
2.14105
2.08132
2.01804
1.95188
1.88331
1.81294
1.74134
1.66909
1.59674
1.5248
1.45369
1.38378
1.31536
1.24862
1.18371
1.12069
1.05957
1.00032
0.94285
0.887062
0.832816
0.779953
0.728288
0.677613
0.627684
0.578217
0.528857
0.479144
0.428408
0.375419
0.317311
0.244088
0.110859
2.75281
2.72854
2.69907
2.6641
2.62337
2.57675
2.52429
2.46625
2.40308
2.3354
2.26396
2.18926
2.11198
2.03282
1.95249
1.87163
1.79083
1.71062
1.63141
1.55356
1.47733
1.40291
1.33042
1.25992
1.19142
1.12487
1.06021
0.997301
0.936017
0.876177
0.817573
0.759953
0.703007
0.646326
0.589325
0.531069
0.469791
0.401361
0.312818
0.144151
3.02949
3.00744
2.9804
2.94789
2.90937
2.86437
2.81256
2.75386
2.68849
2.61696
2.54023
2.45901
2.37439
2.28735
2.19882
2.10963
2.02048
1.93193
1.84446
1.75843
1.67412
1.59174
1.51142
1.43322
1.35717
1.28324
1.21137
1.14144
1.07333
1.00684
0.941764
0.877824
0.814661
0.751781
0.688449
0.623442
0.554444
0.476209
0.372914
0.173499
3.28334
3.26513
3.24248
3.21471
3.18098
3.14025
3.09149
3.03383
2.96709
2.89156
2.80812
2.71854
2.62473
2.52822
2.43026
2.33183
2.23371
2.13652
2.04072
1.94667
1.85462
1.76475
1.67717
1.59195
1.50908
1.42854
1.35025
1.27409
1.1999
1.1275
1.05663
0.986978
0.918126
0.849478
0.780137
0.708613
0.632112
0.544432
0.427189
0.198955
3.52799
3.51506
3.49867
3.47804
3.45202
3.41898
3.37692
3.32341
3.25751
3.17753
3.08387
2.98241
2.87616
2.76743
2.65785
2.54854
2.44027
2.33358
2.22887
2.12642
2.02642
1.92901
1.83426
1.74217
1.65272
1.56586
1.48146
1.39939
1.31948
1.24149
1.16513
1.09005
1.01573
0.941494
0.866279
0.788353
0.704503
0.607678
0.477169
0.22212
3.76955
3.76304
3.75438
3.74284
3.72743
3.70699
3.67932
3.63618
3.56975
3.48204
3.37786
3.26026
3.13639
3.0116
2.88759
2.76531
2.64535
2.52801
2.41353
2.30206
2.19367
2.08841
1.98627
1.88721
1.79115
1.69797
1.60754
1.51968
1.43415
1.3507
1.26898
1.18857
1.10889
1.02915
0.94814
0.863908
0.772857
0.667156
0.523937
0.243532
4.01009
4.01053
4.01015
4.00837
4.00496
4.00005
3.98893
3.95142
3.88151
3.78969
3.68069
3.55065
3.40615
3.2611
3.12026
2.98347
2.85066
2.72179
2.59683
2.47574
2.35849
2.245
2.13519
2.02893
1.9261
1.82652
1.73
1.63631
1.54518
1.45629
1.36924
1.28355
1.19856
1.11338
1.02665
0.936204
0.838097
0.723758
0.568282
0.263605
4.24978
4.25736
4.26506
4.27212
4.27802
4.28175
4.27507
4.24412
4.17577
4.07249
3.95217
3.82184
3.66962
3.50812
3.35198
3.20122
3.05563
2.91504
2.7793
2.64825
2.52178
2.39975
2.282
2.16833
2.05855
1.95242
1.84971
1.75013
1.65335
1.55901
1.46665
1.3757
1.28544
1.19486
1.10248
1.00592
0.900901
0.778139
0.610784
0.282675
4.48855
4.50411
4.52107
4.53848
4.55511
4.56781
4.57087
4.55109
4.4764
4.35018
4.21232
4.0803
3.92623
3.75125
3.5813
3.41744
3.2595
3.10733
2.96076
2.81964
2.68379
2.55302
2.42712
2.30585
2.18895
2.07613
1.96712
1.86158
1.75913
1.65932
1.56164
1.46546
1.36997
1.27405
1.1761
1.07354
0.961742
0.830754
0.651842
0.300967
4.72566
4.75078
4.7794
4.8108
4.84367
4.87415
4.89475
4.86896
4.76683
4.62318
4.47119
4.32846
4.17396
3.9915
3.80885
3.63249
3.46245
3.29871
3.14121
2.98982
2.84438
2.70467
2.57044
2.44142
2.31729
2.19773
2.08238
1.97085
1.86269
1.75742
1.65445
1.55308
1.45241
1.35123
1.2478
1.13936
1.02093
0.8819
0.691715
0.318618
4.9591
4.99537
5.03792
5.08637
5.13912
5.19249
5.2221
5.17724
5.06145
4.90748
4.74258
4.58625
4.42371
4.23247
4.03739
3.84822
3.66559
3.48977
3.32086
3.15881
3.00344
2.85453
2.71178
2.57486
2.44341
2.31702
2.19529
2.07776
1.96393
1.85323
1.74503
1.63854
1.53279
1.42648
1.31771
1.20353
1.07864
0.931781
0.730599
0.336237
5.18564
5.23413
5.29211
5.35968
5.43505
5.50888
5.54363
5.49771
5.37621
5.21242
5.03433
4.86351
4.68925
4.48366
4.27226
4.06756
3.87038
3.68111
3.49982
3.32641
3.16065
3.00221
2.85072
2.70577
2.56691
2.43367
2.30557
2.18207
2.06261
1.94657
1.83322
1.72173
1.61103
1.4997
1.38575
1.266
1.13487
0.980424
0.768581
0.353494
5.40134
5.46229
5.53607
5.62342
5.72234
5.8202
5.87679
5.84155
5.71528
5.53969
5.34795
5.16317
4.97528
4.74916
4.51552
4.29124
4.07681
3.87226
3.67738
3.49183
3.31517
3.1469
2.98651
2.83345
2.68718
2.54713
2.41272
2.28335
2.15838
2.03711
1.91876
1.8024
1.6869
1.57073
1.45177
1.32667
1.18952
1.02778
0.805654
0.370322
5.60225
5.67493
5.76333
5.86845
5.98912
6.11487
6.21273
6.20099
6.06656
5.87534
5.67092
5.47588
5.27628
5.02496
4.76342
4.51596
4.282
4.06076
3.85144
3.65327
3.46547
3.2873
3.11802
2.95695
2.80339
2.65667
2.51612
2.38105
2.25074
2.12442
2.00125
1.88022
1.7601
1.6393
1.51556
1.38534
1.24244
1.07372
0.841744
0.386708
5.78523
5.86846
5.9696
6.08936
6.22677
6.37503
6.5168
6.54758
6.40423
6.19089
5.97417
5.77576
5.57191
5.29619
5.00517
4.73377
4.48
4.24207
4.0185
3.80797
3.60935
3.4216
3.24377
3.07501
2.91447
2.76139
2.61498
2.47448
2.33909
2.20799
2.08023
1.95476
1.83028
1.70508
1.5768
1.44173
1.29339
1.11806
0.876695
0.402601
5.94817
6.04105
6.15398
6.28752
6.44168
6.61541
6.79958
6.86005
6.69781
6.46086
6.23221
6.03462
5.8342
5.54181
5.22611
4.93423
4.66323
4.4106
4.17431
3.95267
3.74423
3.54774
3.36208
3.18623
3.01926
2.86028
2.70844
2.5629
2.42279
2.28721
2.15518
2.02557
1.897
1.76769
1.63517
1.49556
1.34211
1.16056
0.910322
0.417927
6.08929
6.19094
6.31504
6.46264
6.63492
6.83237
7.04583
7.1202
6.94128
6.68433
6.44139
6.24001
6.04299
5.74458
5.41397
5.10839
4.82505
4.56132
4.31501
4.08432
3.86768
3.66375
3.4713
3.28925
3.11658
2.95235
2.79564
2.64554
2.50114
2.3615
2.22557
2.09216
1.95983
1.82674
1.6903
1.54649
1.38831
1.20097
0.942413
0.432594
6.20665
6.31552
6.4493
6.60988
6.79982
7.02173
7.24859
7.3013
7.12115
6.85684
6.60128
6.38865
6.18873
5.8977
5.56397
5.25218
4.96202
4.69131
4.43813
4.20082
3.9779
3.76806
3.57009
3.38288
3.20541
3.03668
2.87575
2.72168
2.57352
2.43027
2.29086
2.15405
2.01835
1.88183
1.74183
1.59419
1.43167
1.23901
0.972739
0.446502
6.29846
6.41171
6.55161
6.7208
6.9231
7.1624
7.37818
7.39777
7.22791
6.96932
6.70719
6.48103
6.27483
6.00454
5.67942
5.36704
5.07448
4.80026
4.54296
4.30126
4.0739
3.85969
3.65748
3.46623
3.2849
3.1125
2.94808
2.79068
2.63933
2.493
2.35058
2.2108
2.07213
1.93259
1.78941
1.63834
1.47191
1.27441
1.00108
0.45955
6.36436
6.478
6.6185
6.78858
6.99206
7.2324
7.43144
7.42817
7.26624
7.02026
6.76043
6.52773
6.32158
6.07803
5.76814
5.4581
5.16542
4.8897
4.63012
4.38569
4.15538
3.93813
3.7329
3.53867
3.35443
3.17922
3.01207
2.85203
2.69809
2.54923
2.40431
2.26203
2.12082
1.97867
1.83273
1.67864
1.50874
1.30692
1.0272
0.471635
6.40661
6.51666
6.65237
6.81604
7.01091
7.2396
7.4181
7.39784
7.24249
7.01288
6.76397
6.53209
6.32614
6.11528
5.83893
5.5318
5.2385
4.96161
4.70053
4.4544
4.22228
4.00314
3.79597
3.59978
3.41358
3.23641
3.06731
2.9053
2.74942
2.5986
2.4517
2.30741
2.16412
2.01979
1.87151
1.71483
1.54193
1.33631
1.05093
0.482665
6.42992
6.53338
6.66043
6.81281
6.99287
7.20069
7.35279
7.32461
7.17754
6.96338
6.7273
6.50023
6.29337
6.09568
5.87257
5.58957
5.29457
5.01624
4.75417
4.50725
4.27437
4.05445
3.84643
3.6493
3.46207
3.28379
3.1135
2.95026
2.79306
2.64086
2.49252
2.34671
2.20181
2.05574
1.90555
1.74673
1.57128
1.3624
1.07208
0.492556
6.44029
6.53535
6.65171
6.79064
6.95344
7.13609
7.2597
7.2277
7.08776
6.88573
6.66096
6.44045
6.23523
6.04099
5.83979
5.60723
5.32999
5.05133
4.78969
4.54346
4.31123
4.09181
3.8841
3.68708
3.49978
3.32125
3.15056
2.98677
2.82889
2.6759
2.52665
2.3798
2.23375
2.08638
1.93472
1.77418
1.59666
1.38506
1.09053
0.501235
6.44392
6.52954
6.63415
6.75868
6.90307
7.05929
7.15759
7.11915
6.98278
6.79003
6.57514
6.36164
6.16
5.96881
5.7769
5.56779
5.32773
5.06296
4.80551
4.56242
4.33268
4.11523
3.90907
3.71324
3.52681
3.34887
3.17853
3.01487
2.85694
2.70372
2.55407
2.40667
2.25992
2.11168
1.95897
1.79714
1.618
1.4042
1.10621
0.508747
6.44673
6.5223
6.61429
6.72329
6.85025
6.98861
7.06585
7.01306
6.87442
6.6873
6.48072
6.27424
6.07725
5.88999
5.70551
5.51289
5.30125
5.05542
4.8039
4.56556
4.33972
4.12548
3.92195
3.72827
3.54357
3.36699
3.19769
3.03479
2.87736
2.72442
2.57486
2.42736
2.28033
2.13163
1.97827
1.81556
1.63523
1.41976
1.11902
0.515151
6.4545
6.51998
6.59936
6.69291
6.80172
6.92119
6.98039
6.91359
6.7706
6.58639
6.38592
6.18566
5.99371
5.81078
5.63179
5.44803
5.24998
5.02838
4.78799
4.55502
4.33391
4.12377
3.92374
3.733
3.55074
3.37618
3.20851
3.0469
2.89048
2.73829
2.58924
2.44205
2.29512
2.14634
1.9927
1.8295
1.6484
1.43174
1.12896
0.520238
6.47265
6.52835
6.5954
6.6735
6.76409
6.86308
6.90251
6.82375
6.67625
6.493
6.29643
6.10078
5.91306
5.73408
5.55969
5.38237
5.19361
4.98609
4.75752
4.5318
4.31663
4.11148
3.91566
3.72848
3.54922
3.37719
3.21162
3.05176
2.89676
2.7457
2.59754
2.451
2.30452
2.15599
2.00241
1.83907
1.65759
1.44022
1.1361
0.524021
6.50624
6.55284
6.60788
6.66991
6.74122
6.81601
6.83156
6.74271
6.5921
6.40952
6.21545
6.02278
5.83781
5.66146
5.49023
5.31744
5.13541
4.93754
4.71796
4.49934
4.29032
4.09047
3.89922
3.71596
3.54008
3.37093
3.20781
3.05002
2.89677
2.74716
2.60017
2.45459
2.30884
2.16086
2.00763
1.84447
1.66297
1.44534
1.14051
0.526525
6.56012
6.59895
6.64262
6.68734
6.73755
6.78308
6.77103
6.67291
6.5197
6.33722
6.14441
5.95323
5.76969
5.5949
5.42587
5.25639
5.07876
4.88518
4.67179
4.46001
4.25704
4.06252
3.87594
3.69677
3.52445
3.35838
3.19794
3.04244
2.89115
2.74321
2.59764
2.45324
2.30846
2.16126
2.00866
1.84594
1.66475
1.44725
1.14234
0.527796
6.63863
6.67204
6.70524
6.72955
6.75523
6.76764
6.7271
6.6185
6.46086
6.27672
6.08361
5.89257
5.70907
5.53425
5.36565
5.19794
5.02291
4.83053
4.62125
4.41574
4.21855
4.02923
3.84727
3.67218
3.50346
3.34055
3.18287
3.0298
2.88061
2.73449
2.59049
2.44744
2.30382
2.15759
2.00581
1.84379
1.66318
1.44618
1.14174
0.527896
6.7449
6.77613
6.79872
6.79437
6.78311
6.76537
6.70748
6.5819
6.41445
6.22585
6.03131
5.83994
5.65603
5.48029
5.31074
5.14301
4.9696
4.77277
4.56663
4.36777
4.17633
3.99204
3.81454
3.64342
3.47821
3.31842
3.16352
3.01289
2.86585
2.72164
2.5793
2.43771
2.29536
2.15026
1.99948
1.83834
1.65856
1.44237
1.1389
0.526899
6.88067
6.91428
6.92593
6.88529
6.83321
6.78209
6.70025
6.55451
6.37569
6.18205
5.98585
5.79402
5.60948
5.43226
5.26005
5.08838
4.91033
4.71308
4.51234
4.31879
4.13227
3.95248
3.77907
3.61164
3.44975
3.29296
3.14073
2.99249
2.8476
2.70529
2.56466
2.42458
2.2836
2.13972
1.99005
1.82996
1.65119
1.4361
1.13404
0.524896
7.04541
7.08788
7.0888
7.00682
6.91272
6.82301
6.70899
6.54098
6.349
6.14842
5.94867
5.75455
5.56771
5.38755
5.2115
5.03501
4.85191
4.65503
4.45884
4.26977
4.08751
3.91169
3.74194
3.57787
3.41905
3.26504
3.11533
2.96938
2.82655
2.68611
2.54717
2.40862
2.26903
2.12643
1.97796
1.81903
1.64144
1.42766
1.12738
0.521988
7.23397
7.29093
7.28492
7.15962
7.02012
6.88831
6.73696
6.54417
6.33689
6.12701
5.9211
5.72197
5.53011
5.34455
5.16293
4.98133
4.794
4.59839
4.40643
4.22139
4.04291
3.87061
3.70411
3.54304
3.38697
3.23549
3.0881
2.94427
2.80339
2.66472
2.5274
2.39035
2.25214
2.11085
1.96363
1.80593
1.62964
1.41736
1.11917
0.518287
7.43832
7.51622
7.50627
7.33402
7.14781
6.97218
6.78107
6.56183
6.33796
6.11714
5.90307
5.69678
5.49788
5.3052
5.11685
4.92975
4.7375
4.54368
4.35594
4.1746
3.99944
3.83018
3.66648
3.508
3.35434
3.20509
3.05977
2.91785
2.77874
2.64171
2.50592
2.3703
2.23345
2.09345
1.94748
1.79107
1.61615
1.40551
1.10967
0.51391
7.64385
7.74151
7.73944
7.52584
7.28962
7.06851
6.83707
6.59122
6.35009
6.11698
5.89303
5.67797
5.47084
5.27027
5.07425
4.88038
4.68574
4.49452
4.30961
4.13094
3.9583
3.7914
3.62994
3.47357
3.32191
3.17454
3.03099
2.89074
2.7532
2.61765
2.48327
2.34898
2.21341
2.07466
1.92995
1.77483
1.60134
1.39243
1.09913
0.508982
7.83905
7.94679
7.9681
7.72584
7.43506
7.16713
6.89791
6.6284
6.37048
6.12407
5.88871
5.66358
5.44758
5.23929
5.03671
4.83782
4.64198
4.45192
4.26844
4.09134
3.92032
3.75505
3.5952
3.44042
3.29031
3.14444
3.00234
2.8635
2.7273
2.59306
2.45993
2.32685
2.19248
2.05492
1.91142
1.75759
1.58555
1.37844
1.08781
0.503626
8.02767
8.1459
8.17975
7.90269
7.56553
7.25423
6.95622
6.66854
6.39574
6.13636
5.88948
5.65423
5.42952
5.21395
5.00566
4.80253
4.60558
4.41569
4.23267
4.05621
3.88598
3.72162
3.56278
3.40906
3.26005
3.11529
2.97432
2.8366
2.70151
2.56837
2.43633
2.30434
2.17105
2.0346
1.89227
1.7397
1.56911
1.36381
1.07594
0.497943
8.2094
8.33752
8.37008
8.05559
7.68527
7.34103
7.0192
6.71501
6.4271
6.15486
5.89699
5.65221
5.41921
5.1965
4.98206
4.77553
4.57694
4.38602
4.20241
4.02571
3.85551
3.69141
3.53299
3.37983
3.23149
3.08748
2.94731
2.81043
2.67622
2.54398
2.41286
2.28182
2.14951
2.01408
1.87284
1.72148
1.55231
1.34884
1.06376
0.492063
8.38385
8.52027
8.54547
8.19665
7.8004
7.43225
7.08903
6.76788
6.46587
6.18121
5.91259
5.6584
5.4171
5.18709
4.96714
4.75678
4.55542
4.36248
4.17741
3.99971
3.82889
3.66447
3.50597
3.35293
3.20486
3.06125
2.92159
2.78529
2.65174
2.5202
2.38984
2.25961
2.12815
1.99365
1.85343
1.70323
1.53543
1.33376
1.05147
0.486092
8.55278
8.69986
8.70601
8.32227
7.90786
7.52171
7.16149
6.82478
6.50939
6.21312
5.93405
5.67062
5.42125
5.18444
4.95916
4.74455
4.53982
4.34422
4.1571
3.97785
3.8059
3.64069
3.4817
3.32841
3.18027
3.03677
2.89734
2.7614
2.62829
2.49728
2.36752
2.23796
2.10726
1.97359
1.8343
1.68519
1.51872
1.3188
1.03926
0.480122
8.71287
8.86733
8.85255
8.43964
8.00901
7.60755
7.23297
6.88297
6.55538
6.24815
5.95934
5.6872
5.43025
5.18706
4.95645
4.73739
4.52897
4.33037
4.14083
3.95966
3.78622
3.61989
3.46008
3.30622
3.15775
3.0141
2.87468
2.73889
2.60604
2.47541
2.34611
2.2171
2.08703
1.9541
1.81568
1.66758
1.50237
1.30415
1.02728
0.474224
8.86578
9.02834
8.98871
8.54783
8.10311
7.68843
7.30146
6.9399
6.6016
6.28454
5.98685
5.70679
5.4428
5.1935
4.95763
4.7341
4.5219
4.32013
4.12797
3.94466
3.76949
3.60179
3.44092
3.28628
3.13726
2.99325
2.85366
2.71784
2.58511
2.4547
2.32574
2.19717
2.06765
1.93537
1.79773
1.65059
1.48657
1.28997
1.01567
0.468657
9.01032
9.1799
9.1116
8.64614
8.18927
7.76321
7.36556
6.994
6.64638
6.32069
6.01509
5.72786
5.45745
5.20246
4.9616
4.73373
4.51779
4.31283
4.11797
3.93239
3.75534
3.58611
3.42402
3.26843
3.11869
2.97418
2.83426
2.69828
2.56553
2.43523
2.30649
2.17827
2.0492
1.9175
1.78057
1.63431
1.47143
1.27636
1.00453
0.463302
9.14535
9.31936
9.21874
8.7337
8.26686
7.83128
7.42459
7.04448
6.68882
6.35561
6.04304
5.74943
5.47321
5.213
4.96748
4.73549
4.51595
4.30785
4.11028
3.9224
3.74341
3.57256
3.40915
3.25248
3.10191
2.95678
2.81642
2.68017
2.54729
2.417
2.28841
2.16044
2.03175
1.90056
1.76427
1.61883
1.45701
1.26341
0.99393
0.458184
9.27022
9.43981
9.30837
8.81148
8.33638
7.89287
7.47858
7.0912
6.72863
6.38889
6.07021
5.77091
5.48947
5.22448
4.97466
4.73881
4.51582
4.3047
4.10449
3.91432
3.73336
3.56085
3.39605
3.23825
3.08677
2.94092
2.80005
2.66343
2.53035
2.4
2.27147
2.14369
2.01532
1.88457
1.74887
1.60419
1.44337
1.25116
0.983918
0.453334
9.39474
9.55916
9.38865
8.88074
8.39893
7.94889
7.52821
7.13463
6.76607
6.42061
6.0965
5.79211
5.50593
5.23657
4.98275
4.74327
4.51703
4.303
4.10023
3.90781
3.7249
3.55072
3.38451
3.22553
3.07308
2.92648
2.78501
2.64798
2.51464
2.38416
2.25564
2.128
1.99989
1.86953
1.73437
1.5904
1.43052
1.23963
0.974513
0.448766
9.52438
9.68375
9.46269
8.94396
8.45653
8.00097
7.57479
7.17577
6.80188
6.45128
6.12224
5.81317
5.52261
5.24918
4.9916
4.74869
4.51933
4.30251
4.09724
3.90262
3.71779
3.54194
3.3743
3.21412
3.06069
2.91328
2.7712
2.63371
2.50005
2.36941
2.24086
2.11331
1.98542
1.85541
1.72074
1.57744
1.41845
1.22882
0.965712
0.444484
9.65774
9.80053
9.52658
9.00313
8.51156
8.05129
7.62015
7.21608
6.83719
6.48171
6.14798
5.83446
5.5397
5.26236
5.00116
4.75494
4.52257
4.30303
4.09532
3.89854
3.71181
3.5343
3.36524
3.20385
3.0494
2.90118
2.75844
2.62047
2.48647
2.35563
2.22701
2.09953
1.97183
1.84214
1.70793
1.56526
1.40712
1.21869
0.957492
0.440482
9.80089
9.92211
9.59378
9.06492
8.56853
8.10315
7.66675
7.25743
6.87338
6.51292
6.17445
5.85646
5.55751
5.27628
5.01151
4.762
4.52666
4.30442
4.0943
3.89538
3.70675
3.5276
3.35711
3.19451
3.03905
2.88999
2.74659
2.60811
2.47376
2.3427
2.214
2.08656
1.95903
1.82964
1.69587
1.55379
1.39648
1.20919
0.949811
0.436742
9.95935
10.0515
9.66679
9.13349
8.63133
8.15968
7.717
7.3016
6.91178
6.54589
6.20235
5.87964
5.57634
5.29111
5.02268
4.76985
4.5315
4.30655
4.09402
3.89295
3.70244
3.52164
3.34972
3.18591
3.02943
2.87953
2.73547
2.59647
2.46176
2.33048
2.20168
2.07427
1.9469
1.81779
1.68444
1.54295
1.38642
1.20024
0.94261
0.43324
10.1265
10.1959
9.76515
9.21789
8.70479
8.2238
7.77283
7.34997
6.95337
6.58131
6.23214
5.90431
5.59637
5.30692
5.03467
4.77841
4.53697
4.30927
4.09429
3.89105
3.69864
3.51619
3.34285
3.17783
3.02033
2.8696
2.72487
2.58537
2.4503
2.31879
2.1899
2.06252
1.9353
1.80647
1.67354
1.53263
1.37687
1.19177
0.935821
0.429948
10.3087
10.3522
9.87526
9.31336
8.78747
8.29526
7.83441
7.40279
6.99839
6.61935
6.26394
5.93052
5.61755
5.32361
5.04735
4.78749
4.54287
4.31234
4.09487
3.88944
3.69512
3.51101
3.33626
3.17003
3.01153
2.85998
2.7146
2.5746
2.43917
2.30745
2.17848
2.05114
1.92408
1.79554
1.66303
1.52269
1.3677
1.18367
0.929378
0.426838
10.5014
10.5187
9.99751
9.41854
8.87803
8.37308
7.90105
7.45957
7.04646
6.65971
6.29746
5.95796
5.63961
5.34089
5.06039
4.79681
4.54888
4.31546
4.09545
3.88781
3.69158
3.50582
3.32966
3.16225
3.00277
2.85042
2.70441
2.56394
2.42819
2.29627
2.16723
2.03995
1.91307
1.78483
1.65275
1.51299
1.3588
1.17587
0.923301
0.423969
10.7068
10.6927
10.1258
9.52996
8.97419
8.45562
7.9715
7.51932
7.09675
6.70166
6.33204
5.98605
5.66199
5.35824
5.07334
4.80588
4.55458
4.31821
4.09564
3.88579
3.68765
3.50028
3.32274
3.15419
2.99377
2.84066
2.69406
2.55316
2.41711
2.28504
2.15596
2.02876
1.90208
1.77416
1.64253
1.50337
1.34998
1.16819
0.917473
0.421311
10.9144
10.8702
10.2614
9.64696
9.07466
8.54143
8.04435
7.58073
7.14809
6.74413
6.36673
6.01393
5.6839
5.37495
5.08551
4.81411
4.55939
4.32007
4.09495
3.88293
3.68294
3.494
3.31516
3.14552
2.98422
2.83043
2.6833
2.54202
2.40573
2.27353
2.14446
2.01737
1.89092
1.76334
1.63218
1.49364
1.34102
1.16018
0.910615
0.417888
11.1159
11.0473
10.4021
9.76743
9.17744
8.62864
8.11787
7.6422
7.19899
6.78577
6.4003
6.04046
5.70431
5.39007
5.09605
4.82071
4.56261
4.32039
4.09281
3.8787
3.67696
3.48655
3.30651
3.13589
2.97381
2.81942
2.67185
2.53027
2.39381
2.26157
2.13255
2.00562
1.87944
1.75223
1.62156
1.48365
1.33185
1.15212
0.904344
0.414981
11.3119
11.2223
10.543
9.88799
9.27981
8.71489
8.18989
7.70173
7.2476
6.82489
6.43117
6.06422
5.72195
5.40245
5.10394
4.82477
4.5634
4.31844
4.08855
3.8725
3.66916
3.47745
3.29635
3.1249
2.96218
2.80731
2.65943
2.51767
2.38114
2.24894
2.12007
1.99338
1.86753
1.74075
1.61061
1.47336
1.32239
1.14379
0.897808
0.411894
11.4959
11.3922
10.6819
10.0062
9.37925
8.79763
8.25792
7.75693
7.29169
6.8594
6.45748
6.08351
5.73528
5.41073
5.10795
4.82518
4.56082
4.31335
4.0814
3.86366
3.65896
3.46616
3.28421
3.11212
2.94895
2.79379
2.64575
2.50395
2.3675
2.23548
2.10686
1.98052
1.85509
1.72882
1.59928
1.46272
1.31259
1.13506
0.89067
0.408451
11.6545
11.5572
10.8185
10.1202
9.47312
8.87384
8.31886
7.80481
7.32845
6.88676
6.47692
6.09631
5.74251
5.41332
5.10669
4.82075