/*--------------------------------*- C++ -*----------------------------------*\
  =========                 |
  \\      /  F ield         | OpenFOAM: The Open Source CFD Toolbox
   \\    /   O peration     | Website:  https://openfoam.org
    \\  /    A nd           | Version:  8
     \\/     M anipulation  |
\*---------------------------------------------------------------------------*/
FoamFile
{
    version     2.0;
    format      ascii;
    class       volScalarField;
    location    "1.05";
    object      nut;
}
// * * * * * * * * * * * * * * * * * * * * * * * * * * * * * * * * * * * * * //

dimensions      [0 2 -1 0 0 0 0];

internalField   nonuniform List<scalar> 
9150
(
9.6124e-06
6.45719e-06
7.20296e-06
1.10934e-05
1.18102e-05
1.18102e-05
1.10933e-05
7.20296e-06
6.4572e-06
9.6124e-06
9.49915e-06
5.79163e-06
9.17468e-06
1.24042e-05
1.10499e-05
1.10499e-05
1.24042e-05
9.17468e-06
5.79163e-06
9.49915e-06
9.30771e-06
5.55239e-06
1.19711e-05
1.28277e-05
1.06008e-05
1.06008e-05
1.28277e-05
1.19711e-05
5.55239e-06
9.30771e-06
9.0922e-06
5.47047e-06
1.47785e-05
1.28445e-05
1.03769e-05
1.03769e-05
1.28445e-05
1.47785e-05
5.47047e-06
9.0922e-06
8.85739e-06
5.44833e-06
1.71622e-05
1.27586e-05
1.02681e-05
1.02681e-05
1.27586e-05
1.71622e-05
5.44833e-06
8.85739e-06
5.94227e-06
1.21278e-05
1.66493e-05
2.31691e-05
2.53721e-05
2.53721e-05
2.31691e-05
1.66492e-05
1.21278e-05
5.94227e-06
6.29212e-06
9.20287e-06
1.32444e-05
2.01127e-05
2.21133e-05
2.21133e-05
2.01126e-05
1.32443e-05
9.20284e-06
6.29212e-06
6.83827e-06
8.09049e-06
1.07141e-05
1.70214e-05
1.86983e-05
1.86983e-05
1.70214e-05
1.07141e-05
8.09048e-06
6.83827e-06
7.39646e-06
7.42714e-06
8.96839e-06
1.44349e-05
1.57942e-05
1.57942e-05
1.44348e-05
8.96837e-06
7.42714e-06
7.39646e-06
8.08615e-06
6.93736e-06
7.83372e-06
1.23892e-05
1.34275e-05
1.34275e-05
1.23892e-05
7.83371e-06
6.93736e-06
8.08615e-06
1.48306e-05
2.69233e-05
2.00301e-05
2.19245e-05
2.59394e-05
2.59384e-05
2.19215e-05
2.00257e-05
2.69241e-05
1.48337e-05
7.95859e-06
1.16762e-05
1.50479e-05
2.12024e-05
2.6003e-05
2.60025e-05
2.12013e-05
1.5047e-05
1.1676e-05
7.95858e-06
7.50239e-06
1.08952e-05
1.50236e-05
2.13658e-05
2.62214e-05
2.62211e-05
2.13652e-05
1.50231e-05
1.0895e-05
7.50236e-06
7.06772e-06
1.04866e-05
1.50439e-05
2.1507e-05
2.64281e-05
2.64279e-05
2.15066e-05
1.50435e-05
1.04864e-05
7.06771e-06
6.54041e-06
1.0757e-05
1.50779e-05
2.17859e-05
2.64433e-05
2.64432e-05
2.17857e-05
1.50777e-05
1.07568e-05
6.5404e-06
0.000219839
0.000220399
0.000220758
0.000220947
0.000221002
0.00022099
0.000220907
0.000220689
0.000220299
0.000219708
0.00219226
0.00220335
0.00221179
0.00221753
0.00222039
0.00222018
0.00221689
0.00221075
0.00220192
0.00219046
0.00443555
0.00445681
0.00447258
0.00448296
0.00448794
0.00448749
0.00448161
0.00447035
0.00445371
0.00443162
0.00635032
0.006379
0.00640015
0.00641395
0.0064205
0.00641984
0.00641198
0.00639689
0.00637446
0.00634453
0.00792936
0.00796343
0.00798856
0.00800494
0.00801269
0.00801187
0.00800247
0.00798447
0.00795773
0.00792207
0.00922624
0.00926421
0.00929228
0.0093106
0.00931926
0.00931831
0.00930775
0.00928755
0.0092576
0.00921777
0.0102981
0.0103388
0.010369
0.0103888
0.0103981
0.0103971
0.0103857
0.0103638
0.0103316
0.0102888
0.0111953
0.0112378
0.0112695
0.0112902
0.0113001
0.011299
0.011287
0.011264
0.0112301
0.0111854
0.0119583
0.012002
0.0120346
0.0120561
0.0120663
0.0120652
0.0120528
0.0120291
0.0119942
0.0119482
0.0126183
0.0126626
0.0126958
0.0127178
0.0127283
0.0127273
0.0127146
0.0126904
0.0126549
0.0126082
0.0131981
0.0132427
0.0132764
0.0132988
0.0133096
0.0133085
0.0132957
0.0132712
0.0132353
0.0131882
0.0137143
0.013759
0.013793
0.0138157
0.0138266
0.0138257
0.0138128
0.0137881
0.0137519
0.0137048
0.0141784
0.014223
0.0142571
0.01428
0.0142912
0.0142903
0.0142774
0.0142526
0.0142164
0.0141694
0.0145981
0.0146425
0.0146766
0.0146997
0.014711
0.0147102
0.0146973
0.0146725
0.0146364
0.0145897
0.0149781
0.0150222
0.0150565
0.0150797
0.0150912
0.0150906
0.0150777
0.0150529
0.0150168
0.0149706
0.0153217
0.0153656
0.0154
0.0154234
0.0154351
0.0154346
0.0154217
0.0153969
0.0153609
0.015315
0.0156309
0.0156748
0.0157093
0.0157329
0.0157448
0.0157443
0.0157314
0.0157066
0.0156707
0.015625
0.0159078
0.0159515
0.0159859
0.0160097
0.0160216
0.0160212
0.0160083
0.0159835
0.0159477
0.0159022
0.0161538
0.0161969
0.016231
0.0162546
0.0162664
0.016266
0.0162532
0.0162286
0.016193
0.016148
0.0163697
0.0164118
0.0164452
0.0164682
0.0164798
0.0164793
0.0164667
0.0164424
0.0164075
0.0163634
0.0165559
0.0165965
0.0166286
0.0166508
0.0166619
0.0166613
0.0166491
0.0166255
0.0165916
0.0165489
0.0167122
0.0167508
0.0167813
0.0168023
0.0168127
0.016812
0.0168002
0.0167778
0.0167455
0.0167047
0.0168385
0.0168746
0.016903
0.0169224
0.0169319
0.0169312
0.0169201
0.016899
0.0168688
0.0168306
0.0169344
0.0169675
0.0169934
0.017011
0.0170195
0.0170187
0.0170084
0.0169891
0.0169614
0.0169262
0.0169997
0.0170295
0.0170526
0.017068
0.0170755
0.0170745
0.0170653
0.0170479
0.0170229
0.0169911
0.0170345
0.0170606
0.0170806
0.0170939
0.0171001
0.0170991
0.0170909
0.0170755
0.0170535
0.0170253
0.0170392
0.0170616
0.0170784
0.0170894
0.0170944
0.0170933
0.0170861
0.0170729
0.0170539
0.0170294
0.0170151
0.0170336
0.0170474
0.0170562
0.0170601
0.0170589
0.0170527
0.0170415
0.0170255
0.0170047
0.0169644
0.0169793
0.0169902
0.0169971
0.0169999
0.0169987
0.0169934
0.0169841
0.0169707
0.0169534
0.0168905
0.0169022
0.0169107
0.016916
0.016918
0.0169168
0.0169122
0.0169045
0.0168935
0.0168792
0.016798
0.0168073
0.0168141
0.0168182
0.0168197
0.0168185
0.0168145
0.0168079
0.0167986
0.0167868
0.0166929
0.0167007
0.0167066
0.0167102
0.0167114
0.0167102
0.0167065
0.0167004
0.0166922
0.0166819
0.016582
0.0165893
0.0165951
0.0165987
0.0166
0.0165988
0.0165951
0.016589
0.0165809
0.0165711
0.0164721
0.0164799
0.0164863
0.0164905
0.0164921
0.0164908
0.0164867
0.01648
0.0164712
0.0164609
0.0163693
0.0163782
0.0163856
0.0163907
0.0163927
0.0163913
0.0163865
0.0163787
0.0163685
0.0163568
0.0162768
0.0162871
0.0162959
0.0163019
0.0163044
0.0163028
0.0162972
0.0162881
0.0162761
0.0162625
0.0161942
0.0162066
0.016217
0.0162242
0.0162273
0.0162256
0.0162192
0.0162086
0.0161947
0.0161788
0.016119
0.0161341
0.0161468
0.0161556
0.0161594
0.0161577
0.0161506
0.0161384
0.0161223
0.0161036
0.0160468
0.0160662
0.0160821
0.016093
0.016098
0.0160966
0.0160886
0.0160747
0.0160558
0.0160335
0.0159776
0.0160017
0.0160212
0.0160347
0.0160411
0.0160399
0.0160312
0.0160154
0.0159936
0.0159672
0.0159113
0.01594
0.0159631
0.0159792
0.0159871
0.0159864
0.0159769
0.0159592
0.0159345
0.0159041
0.0158475
0.0158805
0.0159071
0.0159257
0.0159352
0.0159348
0.0159247
0.0159054
0.0158779
0.0158438
0.0157858
0.0158228
0.0158527
0.0158736
0.0158845
0.0158846
0.015874
0.0158532
0.0158233
0.015786
0.0157258
0.0157664
0.0157991
0.0158222
0.0158344
0.015835
0.015824
0.0158019
0.0157699
0.0157297
0.0156672
0.0157108
0.015746
0.015771
0.0157843
0.0157853
0.0157739
0.0157508
0.015717
0.0156744
0.0156097
0.0156557
0.0156929
0.0157193
0.0157334
0.0157347
0.015723
0.0156989
0.0156636
0.015619
0.0155528
0.0156006
0.0156392
0.0156665
0.0156811
0.0156823
0.0156701
0.0156451
0.0156085
0.0155622
0.015496
0.015545
0.0155843
0.015612
0.0156266
0.0156275
0.0156146
0.0155885
0.0155506
0.0155026
0.0154383
0.0154879
0.0155275
0.0155551
0.0155694
0.0155696
0.0155557
0.0155286
0.0154893
0.0154397
0.0153789
0.0154287
0.0154682
0.0154954
0.015509
0.0155084
0.0154935
0.0154651
0.0154247
0.0153739
0.0153166
0.0153666
0.0154059
0.0154327
0.0154456
0.015444
0.015428
0.0153984
0.0153567
0.0153048
0.0152515
0.0153017
0.0153408
0.0153672
0.0153794
0.0153768
0.0153597
0.0153289
0.0152859
0.0152329
0.0151838
0.0152342
0.0152734
0.0152995
0.0153112
0.0153078
0.0152896
0.0152575
0.0152133
0.0151592
0.0151139
0.0151647
0.0152043
0.0152306
0.0152421
0.015238
0.0152188
0.0151853
0.0151396
0.0150842
0.0150421
0.015094
0.0151345
0.0151614
0.015173
0.0151685
0.0151482
0.0151134
0.0150662
0.0150093
0.0149697
0.0150229
0.0150648
0.0150927
0.0151047
0.0151
0.0150789
0.0150427
0.0149938
0.0149354
0.0148971
0.014952
0.0149957
0.0150249
0.0150377
0.0150329
0.0150109
0.0149733
0.0149229
0.0148632
0.0148241
0.0148811
0.0149268
0.0149578
0.0149715
0.0149667
0.0149439
0.0149048
0.0148527
0.0147916
0.0147509
0.0148096
0.0148575
0.0148902
0.014905
0.0149003
0.0148765
0.0148359
0.0147819
0.0147194
0.0146758
0.0147361
0.014786
0.0148206
0.0148364
0.0148317
0.014807
0.0147646
0.0147088
0.014645
0.0145968
0.0146582
0.01471
0.0147464
0.0147632
0.0147585
0.0147328
0.0146888
0.0146313
0.0145667
0.0145107
0.0145728
0.0146262
0.0146643
0.0146822
0.0146776
0.0146508
0.0146053
0.0145465
0.0144818
0.0144146
0.0144766
0.0145312
0.0145708
0.0145897
0.0145851
0.0145576
0.0145108
0.0144514
0.0143874
0.0143061
0.0143666
0.0144215
0.0144619
0.0144815
0.0144771
0.0144491
0.0144019
0.0143426
0.0142808
0.0141824
0.0142394
0.0142931
0.0143335
0.0143534
0.0143491
0.0143213
0.0142744
0.0142168
0.0141588
0.0140369
0.01409
0.0141415
0.0141811
0.0142008
0.0141968
0.0141695
0.014124
0.0140688
0.0140149
0.0138666
0.0139148
0.0139634
0.0140013
0.0140204
0.0140166
0.0139904
0.013947
0.0138951
0.0138463
0.0136689
0.0137117
0.0137564
0.013792
0.0138102
0.0138067
0.013782
0.0137412
0.0136934
0.01365
0.0134428
0.0134795
0.0135197
0.0135525
0.0135694
0.0135662
0.0135432
0.0135057
0.0134626
0.0134255
0.0131881
0.0132181
0.0132534
0.0132828
0.0132983
0.0132953
0.0132743
0.0132404
0.0132026
0.013172
0.0129052
0.0129283
0.0129581
0.0129839
0.0129975
0.0129947
0.0129759
0.0129459
0.0129136
0.0128898
0.0125951
0.0126111
0.012635
0.0126568
0.0126684
0.0126658
0.0126491
0.0126234
0.0125969
0.0125801
0.0122592
0.0122675
0.0122854
0.0123029
0.0123124
0.0123098
0.0122955
0.012274
0.0122536
0.0122443
0.0118981
0.0118986
0.0119103
0.0119236
0.0119309
0.0119284
0.0119162
0.011899
0.0118847
0.0118829
0.0115127
0.0115056
0.0115113
0.0115204
0.0115256
0.011523
0.0115131
0.0115
0.0114916
0.0114974
0.011105
0.0110905
0.0110902
0.0110952
0.0110983
0.0110958
0.0110878
0.0110789
0.0110763
0.0110894
0.010677
0.0106552
0.0106491
0.0106501
0.0106512
0.0106487
0.0106428
0.0106377
0.0106409
0.0106611
0.0102311
0.0102021
0.0101905
0.0101877
0.0101869
0.0101844
0.0101804
0.0101791
0.0101877
0.010215
0.00976965
0.009734
0.00971713
0.00971074
0.00970811
0.00970558
0.0097034
0.00970571
0.00971958
0.00975346
0.00929578
0.00925382
0.00923199
0.00922221
0.00921788
0.00921537
0.00921493
0.00922064
0.00923944
0.00927957
0.00881279
0.00876493
0.00873842
0.00872544
0.0087195
0.00871701
0.00871822
0.00872717
0.00875064
0.00879662
0.0083243
0.00827084
0.00823983
0.00822374
0.00821623
0.00821377
0.0082166
0.00822869
0.00825667
0.00830822
0.00783396
0.00777495
0.00773942
0.00772019
0.0077111
0.00770866
0.00771311
0.00772835
0.00776086
0.00781794
0.00734503
0.00728018
0.00723986
0.0072173
0.00720652
0.00720409
0.00721023
0.00722879
0.00726605
0.00732894
0.00685997
0.00678858
0.00674295
0.00671671
0.00670407
0.00670164
0.00670962
0.00673182
0.00677431
0.00684361
0.00638019
0.00630122
0.00624947
0.00621905
0.00620433
0.0062019
0.00621197
0.00623829
0.00628677
0.00636344
0.00590609
0.00581817
0.0057593
0.00572407
0.00570698
0.0057046
0.0057171
0.00574824
0.00580375
0.0058891
0.00543742
0.00533892
0.00527168
0.00523088
0.00521111
0.00520881
0.00522417
0.00526102
0.0053249
0.00542068
0.00497381
0.0048629
0.00478583
0.00473851
0.00471562
0.00471345
0.00473215
0.00477573
0.00484963
0.00495792
0.00451548
0.00439007
0.0043014
0.00424637
0.0042198
0.00421773
0.00424033
0.00429188
0.00437766
0.00450075
0.00406364
0.00392145
0.00381902
0.00375469
0.00372366
0.00372166
0.00374889
0.00380995
0.00390979
0.00405005
0.00362082
0.0034595
0.00334065
0.00326487
0.00322823
0.00322628
0.00325925
0.00333196
0.00344848
0.00360817
0.00319105
0.00300854
0.00287002
0.00277959
0.00273551
0.00273362
0.0027742
0.00286179
0.00299821
0.00317923
0.00278001
0.00257507
0.00241296
0.00230296
0.00224821
0.00224644
0.00229796
0.00240542
0.00256563
0.00276912
0.00239517
0.0021679
0.00197763
0.00184049
0.00176929
0.00176772
0.00183611
0.00197112
0.00215975
0.00238557
0.00204622
0.00179757
0.00157392
0.00139893
0.00130164
0.00130034
0.00139544
0.00156886
0.00179122
0.00203855
0.00174577
0.00147247
0.00120886
0.000985559
0.000850536
0.000849578
0.000983161
0.00120558
0.00146843
0.00174082
0.00150561
0.00118339
0.000872248
0.000606784
0.000438167
0.000437567
0.000605486
0.0008707
0.00118174
0.00150391
0.00128969
0.000859955
0.000521484
0.000275531
0.000137964
0.000137732
0.000275072
0.000521082
0.000859891
0.00129055
0.000785654
0.00038538
0.000164935
6.13775e-05
3.3206e-05
3.31879e-05
6.13134e-05
0.000164892
0.000385529
0.000786353
0.000218811
0.000217614
0.000216097
0.000214233
0.000211995
0.000209368
0.000206341
0.000202915
0.0001991
0.00019492
0.000190535
0.000186319
0.000182077
0.000177752
0.000173344
0.000168876
0.000164377
0.000159876
0.000155398
0.000150961
0.000146579
0.000142258
0.000137996
0.00013379
0.000129627
0.000125495
0.000121376
0.000117247
0.000113085
0.00010886
0.000104536
0.000100067
9.5392e-05
9.04172e-05
8.49017e-05
7.87783e-05
7.16777e-05
6.29777e-05
5.29349e-05
1.96625e-05
0.00217549
0.00215613
0.00213307
0.0021062
0.00207544
0.00204082
0.00200251
0.00196078
0.00191589
0.00186753
0.00181365
0.00175346
0.00169145
0.00163042
0.00157199
0.001517
0.00146574
0.00141817
0.001374
0.00133284
0.00129422
0.00125764
0.00122259
0.0011886
0.00115522
0.00112204
0.00108866
0.00105471
0.00101981
0.000983542
0.000945417
0.000904782
0.000860717
0.000811851
0.000755849
0.000688994
0.000601297
0.000476552
0.00028249
3.35634e-05
0.00440217
0.00436362
0.00431726
0.00426275
0.0041998
0.00412835
0.00404859
0.00396099
0.00386617
0.00376469
0.00365675
0.00354252
0.00342549
0.00330868
0.00319443
0.00308431
0.00297928
0.00287974
0.00278568
0.00269676
0.00261244
0.00253202
0.00245472
0.00237971
0.00230612
0.00223308
0.00215969
0.00208499
0.00200795
0.00192734
0.00184166
0.00174894
0.00164647
0.0015303
0.00139457
0.00123034
0.00102394
0.000755701
0.000402874
4.20787e-05
0.00630449
0.00625191
0.00618856
0.00611394
0.00602759
0.00592931
0.00581926
0.00569806
0.0055667
0.00542649
0.00527892
0.00512493
0.00496757
0.00480963
0.00465342
0.00450072
0.00435274
0.00421019
0.00407332
0.00394199
0.00381578
0.00369403
0.00357589
0.00346039
0.00334645
0.00323286
0.00311831
0.00300134
0.00288025
0.00275301
0.00261713
0.00246938
0.00230549
0.00211968
0.001904
0.00164758
0.00133591
0.000951432
0.000483448
4.7965e-05
0.00787442
0.00781196
0.0077369
0.00764863
0.00754662
0.00743055
0.0073005
0.00715711
0.00700157
0.00683553
0.00666108
0.00647961
0.00629411
0.00610722
0.0059211
0.00573745
0.0055575
0.00538205
0.00521147
0.00504576
0.00488459
0.00472739
0.00457333
0.0044214
0.00427037
0.00411885
0.00396522
0.0038076
0.00364377
0.00347103
0.00328607
0.00308471
0.0028616
0.00260982
0.00232039
0.00198187
0.00158029
0.00110113
0.000543133
5.26062e-05
0.00916472
0.00909545
0.00901257
0.00891552
0.00880373
0.00867673
0.00853437
0.00837709
0.00820621
0.00802353
0.00783081
0.00763051
0.00742568
0.00721875
0.0070117
0.00680604
0.00660289
0.00640299
0.00620671
0.00601408
0.00582484
0.00563843
0.00545406
0.00527068
0.005087
0.00490145
0.00471219
0.00451702
0.00431331
0.00409784
0.00386671
0.00361505
0.00333683
0.00302447
0.0026686
0.00225788
0.0017795
0.00122204
0.000591801
5.6317e-05
0.010232
0.0101583
0.0100706
0.0099685
0.00985145
0.00971881
0.00957004
0.00940485
0.00922466
0.00903095
0.00882494
0.00861109
0.0083924
0.00817119
0.00794918
0.00772767
0.00750759
0.00728951
0.00707373
0.00686022
0.00664869
0.00643859
0.00622908
0.00601909
0.00580723
0.00559182
0.00537081
0.00514176
0.0049017
0.00464705
0.00437345
0.0040756
0.00374702
0.00337984
0.00296465
0.00249058
0.0019461
0.00132266
0.000632523
5.94905e-05
0.0111263
0.0110499
0.0109597
0.0108554
0.0107367
0.0106032
0.010454
0.0102868
0.0101006
0.0098974
0.00968172
0.00945641
0.00922597
0.00899329
0.00875967
0.00852604
0.00829303
0.00806102
0.0078301
0.00760014
0.00737077
0.00714136
0.00691102
0.00667859
0.00644259
0.00620121
0.00595222
0.00569297
0.00542023
0.00513013
0.00481799
0.00447823
0.00410412
0.00368771
0.00321976
0.00269001
0.00208828
0.00140847
0.000667643
6.22788e-05
0.0118878
0.0118101
0.011719
0.0116145
0.0114968
0.011366
0.0112205
0.0110526
0.0108613
0.0106524
0.0104304
0.0101963
0.00995478
0.00971111
0.00946735
0.00922362
0.00898009
0.00873678
0.00849359
0.00825023
0.00800619
0.00776075
0.00751292
0.00726142
0.00700466
0.00674067
0.00646708
0.00618102
0.00587906
0.00555709
0.00521023
0.00483267
0.00441761
0.00395713
0.00344228
0.00286348
0.00221179
0.00148326
0.000698716
6.47831e-05
0.012547
0.0124689
0.0123777
0.0122737
0.0121572
0.0120281
0.011883
0.0117163
0.0115238
0.011309
0.0110811
0.0108449
0.0105982
0.0103456
0.010093
0.00984041
0.00958761
0.00933448
0.0090807
0.00882583
0.00856924
0.00831007
0.0080472
0.00777922
0.00750438
0.00722057
0.00692525
0.00661537
0.0062873
0.00593674
0.00555865
0.0051471
0.00469525
0.00419532
0.00363869
0.00301648
0.00232088
0.00154972
0.000726793
6.70766e-05
0.0131268
0.0130488
0.0129584
0.0128559
0.0127417
0.012615
0.0124734
0.0123117
0.0121178
0.0118955
0.0116622
0.011425
0.0111755
0.0109151
0.0106542
0.010393
0.0101314
0.009869
0.00960547
0.00934019
0.00907238
0.00880104
0.00852489
0.00824237
0.00795157
0.0076502
0.00733554
0.00700439
0.00665293
0.0062767
0.0058705
0.00542835
0.00494342
0.00440807
0.00381408
0.0031532
0.00241865
0.00160975
0.000752598
6.9209e-05
0.0136436
0.0135665
0.0134779
0.0133788
0.0132697
0.01315
0.0130169
0.0128555
0.0126544
0.0124283
0.0121914
0.0119507
0.0116991
0.0114329
0.0111636
0.0108938
0.0106233
0.0103519
0.010079
0.00980391
0.00952571
0.00924325
0.00895509
0.0086595
0.00835441
0.00803735
0.00770541
0.00735519
0.00698271
0.00658335
0.00615182
0.00568206
0.00516727
0.00459999
0.00397234
0.00327671
0.00250722
0.00166448
0.000776494
7.1209e-05
0.0141089
0.0140333
0.0139478
0.0138538
0.0137523
0.0136433
0.0135172
0.0133528
0.0131499
0.0129224
0.0126822
0.0124365
0.0121802
0.0119076
0.0116298
0.0113512
0.0110718
0.0107914
0.0105094
0.0102249
0.00993698
0.00964425
0.00934513
0.00903769
0.00871968
0.00838846
0.00804092
0.0076735
0.00728203
0.00686177
0.00640731
0.00591254
0.0053707
0.00477449
0.00411635
0.00338913
0.00258774
0.00171393
0.000797684
7.31588e-05
0.0145302
0.0144567
0.014375
0.0142874
0.0141954
0.014097
0.0139771
0.0138165
0.0136151
0.0133865
0.0131427
0.0128914
0.0126284
0.012347
0.0120593
0.0117711
0.0114825
0.0111931
0.0109022
0.0106088
0.0103118
0.0100097
0.00970051
0.00938232
0.00905264
0.00870863
0.00834703
0.00796408
0.00755547
0.00711631
0.00664108
0.00612363
0.00555725
0.00493474
0.00424882
0.00349278
0.00266223
0.00175991
0.000817606
7.5023e-05
0.0149121
0.0148409
0.0147632
0.014682
0.0145996
0.0145129
0.0144054
0.0142537
0.0140547
0.0138247
0.0135773
0.0133203
0.0130496
0.0127564
0.0124565
0.0121576
0.0118593
0.0115609
0.0112615
0.0109598
0.0106544
0.0103435
0.0100253
0.00969745
0.00935726
0.00900175
0.0086275
0.00823056
0.00780648
0.00735024
0.00685623
0.00631825
0.00572958
0.00508317
0.00437193
0.00358957
0.00273225
0.0018036
0.00083686
7.68024e-05
0.0152574
0.0151881
0.0151137
0.0150379
0.0149634
0.0148886
0.0148001
0.0146628
0.0144659
0.0142339
0.0139843
0.0137235
0.0134455
0.0131382
0.0128239
0.0125132
0.0122049
0.0118977
0.0115901
0.0112807
0.0109676
0.010649
0.0103227
0.00998609
0.00963649
0.0092707
0.00888509
0.0084756
0.00803762
0.007566
0.00705503
0.00649847
0.0058896
0.00522145
0.00448713
0.00368065
0.00279866
0.00184548
0.000855588
7.85027e-05
0.0155681
0.0155002
0.0154283
0.015356
0.0152864
0.0152197
0.0151496
0.0150334
0.0148394
0.0146044
0.0143539
0.014093
0.0138111
0.0134904
0.0131612
0.0128388
0.0125209
0.0122055
0.0118905
0.011574
0.0112541
0.0109285
0.0105948
0.0102505
0.00989255
0.00951759
0.00912186
0.00870114
0.0082507
0.00776526
0.00723903
0.00666569
0.00603853
0.00535063
0.00459524
0.00376662
0.00286179
0.00188565
0.000873719
8.01222e-05
0.0158459
0.0157792
0.0157092
0.0156398
0.0155745
0.015516
0.0154631
0.0153616
0.0151665
0.014928
0.0146773
0.0144187
0.014137
0.0138075
0.0134665
0.0131344
0.0128084
0.0124857
0.0121642
0.0118415
0.0115155
0.0111837
0.0108437
0.0104925
0.0101271
0.00974398
0.00933925
0.00890853
0.00844696
0.00794916
0.00740922
0.00682078
0.0061771
0.00547127
0.00469666
0.0038477
0.00292171
0.00192406
0.000891183
8.16578e-05
0.0160924
0.0160271
0.0159592
0.0158931
0.0158329
0.0157827
0.0157418
0.0156475
0.0154502
0.0152079
0.0149551
0.0146972
0.0144174
0.0140856
0.0137381
0.0133998
0.0130678
0.0127396
0.0124127
0.0120848
0.0117534
0.0114163
0.0110705
0.0107133
0.0103413
0.00995102
0.0095383
0.0090987
0.00862723
0.00811839
0.0075662
0.00696421
0.00630563
0.00558358
0.00479148
0.00392387
0.00297833
0.00196057
0.000907869
8.31042e-05
0.0163091
0.0162455
0.0161802
0.0161179
0.0160637
0.0160233
0.0159889
0.0158875
0.01569
0.0154461
0.01519
0.0149301
0.014652
0.014325
0.0139769
0.0136358
0.0133003
0.0129681
0.0126371
0.0123048
0.011969
0.0116271
0.0112765
0.0109139
0.0105362
0.0101395
0.00971974
0.00927228
0.00879203
0.00827339
0.00771028
0.00709617
0.00642424
0.00568756
0.0048796
0.00399498
0.00303142
0.00199498
0.000923659
8.44552e-05
0.0164964
0.0164352
0.0163728
0.0163142
0.0162653
0.0162329
0.0161954
0.016082
0.0158855
0.015642
0.0153836
0.015121
0.0148451
0.0145294
0.014186
0.0138445
0.0135072
0.0131724
0.0128382
0.0125025
0.012163
0.0118171
0.0114622
0.0110951
0.0107123
0.01031
0.00988406
0.00942968
0.00894168
0.00841437
0.00784158
0.00721669
0.00653284
0.00578306
0.0049608
0.00406074
0.00308074
0.00202708
0.000938432
8.57047e-05
0.0166546
0.0165961
0.0165365
0.0164805
0.0164339
0.0164032
0.0163591
0.0162359
0.0160391
0.015798
0.0155398
0.0152772
0.0150062
0.0147045
0.0143687
0.0140281
0.01369
0.0133535
0.0130169
0.0126785
0.012336
0.0119868
0.0116283
0.0112572
0.0108701
0.010463
0.0100316
0.00957117
0.00907637
0.00854143
0.0079601
0.0073257
0.00663127
0.00586984
0.0050348
0.00412088
0.003126
0.00205664
0.000952074
8.68468e-05
0.0167835
0.0167281
0.016671
0.0166165
0.0165696
0.0165358
0.0164833
0.0163519
0.0161551
0.0159177
0.0156625
0.0154017
0.0151353
0.0148506
0.0145291
0.0141895
0.0138504
0.0135124
0.013174
0.0128334
0.0124884
0.0121366
0.0117751
0.0114007
0.0110099
0.0105987
0.0101626
0.00969691
0.00919619
0.00865459
0.00806579
0.00742305
0.00671934
0.00594764
0.00510132
0.00417509
0.00316692
0.00208346
0.000964483
8.78767e-05
0.0168825
0.0168306
0.0167764
0.0167231
0.0166749
0.0166355
0.0165731
0.0164371
0.0162413
0.0160077
0.0157559
0.0154973
0.0152339
0.0149595
0.0146612
0.0143305
0.0139896
0.0136499
0.0133099
0.0129676
0.0126209
0.012267
0.0119031
0.011526
0.0111321
0.0107173
0.0102773
0.00980703
0.00930119
0.00875384
0.00815857
0.00750859
0.00679683
0.0060162
0.00516004
0.00422306
0.00320324
0.00210734
0.000975564
8.87906e-05
0.0169513
0.0169035
0.0168525
0.016801
0.0167521
0.0167068
0.016635
0.0164965
0.0163023
0.016072
0.0158235
0.0155674
0.0153065
0.0150373
0.0147522
0.0144427
0.0141076
0.0137662
0.013425
0.0130817
0.0127336
0.0123782
0.0120125
0.0116332
0.0112367
0.010819
0.0103756
0.00990158
0.0093914
0.00883914
0.00823834
0.00758219
0.00686354
0.00607528
0.0052107
0.0042645
0.00323467
0.00212806
0.00098521
8.95852e-05
0.0169898
0.0169464
0.0168992
0.0168502
0.0168012
0.0167509
0.0166722
0.0165315
0.0163387
0.016112
0.0158674
0.0156147
0.0153568
0.0150916
0.0148138
0.0145171
0.0141976
0.0138605
0.0135192
0.0131755
0.0128267
0.0124703
0.0121033
0.0117224
0.011324
0.0109039
0.0104578
0.00998059
0.00946679
0.00891043
0.00830504
0.00764372
0.00691932
0.00612466
0.00525304
0.00429911
0.00326087
0.00214528
0.000993184
9.02633e-05
0.0169982
0.0169595
0.0169164
0.0168699
0.0168216
0.0167704
0.0166879
0.0165442
0.0163526
0.0161299
0.0158902
0.0156418
0.0153878
0.0151269
0.0148553
0.0145683
0.0142618
0.013932
0.0135919
0.0132487
0.0129
0.0125433
0.0121757
0.0117937
0.0113939
0.0109721
0.0105239
0.0100442
0.00952747
0.0089678
0.00835867
0.00769315
0.00696407
0.00616423
0.00528686
0.00432662
0.00328152
0.0021586
0.000999131
9.08414e-05
0.0169779
0.0169441
0.0169053
0.016862
0.0168148
0.0167627
0.0166785
0.016534
0.0163448
0.0161271
0.0158932
0.0156502
0.0154009
0.0151446
0.014878
0.0145972
0.0142985
0.0139792
0.0136431
0.0133011
0.0129533
0.012597
0.0122294
0.0118471
0.0114466
0.0110237
0.010574
0.0100924
0.00957357
0.0090114
0.00839941
0.00773068
0.006998
0.00619416
0.0053124
0.00434734
0.00329701
0.00216854
0.00100355
9.12988e-05
0.0169309
0.0169021
0.0168682
0.0168285
0.0167832
0.0167309
0.0166453
0.0165019
0.0163167
0.0161048
0.015877
0.01564
0.015396
0.0151444
0.0148826
0.0146071
0.0143143
0.014002
0.0136712
0.0133319
0.0129861
0.0126312
0.0122644
0.0118825
0.0114819
0.0110586
0.0106082
0.0101256
0.00960531
0.00904146
0.0084275
0.00775653
0.00702134
0.00621472
0.00532991
0.00436152
0.0033076
0.00217532
0.00100657
9.16386e-05
0.0168607
0.0168367
0.0168077
0.016772
0.0167289
0.0166758
0.0165885
0.0164478
0.016268
0.0160627
0.0158417
0.0156108
0.0153722
0.0151255
0.0148683
0.0145974
0.0143097
0.0140032
0.0136772
0.0133415
0.0129985
0.0126459
0.0122807
0.0119
0.0115002
0.0110772
0.0106267
0.0101438
0.00962297
0.00905827
0.00844325
0.00777103
0.00703442
0.00622622
0.00533968
0.00436942
0.0033135
0.0021791
0.00100825
9.18643e-05
0.0167715
0.016752
0.0167279
0.0166957
0.0166546
0.0165996
0.0165098
0.0163727
0.0161991
0.0160007
0.0157867
0.0155621
0.0153291
0.0150874
0.0148349
0.0145685
0.0142853
0.0139827
0.0136613
0.0133301
0.0129908
0.0126413
0.0122787
0.0118999
0.0115016
0.0110798
0.01063
0.0101476
0.00962695
0.00906226
0.00844708
0.00777459
0.00703763
0.00622903
0.00534205
0.00437134
0.00331493
0.00218002
0.00100867
9.19809e-05
0.0166691
0.0166534
0.0166336
0.0166035
0.0165628
0.0165042
0.0164115
0.0162778
0.01611
0.0159184
0.0157112
0.0154931
0.0152657
0.0150289
0.0147809
0.014519
0.0142399
0.013941
0.0136242
0.0132982
0.0129636
0.012618
0.0122587
0.0118827
0.0114867
0.0110667
0.0106186
0.0101374
0.00961776
0.00905393
0.00843951
0.00776771
0.00703144
0.00622358
0.00533741
0.0043676
0.00331216
0.00217826
0.0010079
9.19939e-05
0.0165596
0.0165466
0.0165293
0.0164971
0.0164514
0.0163889
0.0162967
0.016164
0.0160004
0.015815
0.0156147
0.0154032
0.0151819
0.0149501
0.0147065
0.0144489
0.0141743
0.0138775
0.0135661
0.0132466
0.0129175
0.0125766
0.0122215
0.0118491
0.0114561
0.0110388
0.010593
0.0101138
0.00959606
0.00903393
0.00842115
0.00775099
0.00701643
0.0062104
0.00532622
0.00435857
0.00330547
0.00217402
0.00100604
9.191e-05
0.0164493
0.0164375
0.0164198
0.0163804
0.0163264
0.0162581
0.0161635
0.0160303
0.0158701
0.0156907
0.0154974
0.0152927
0.0150774
0.0148508
0.0146113
0.014357
0.0140855
0.0137937
0.0134895
0.0131768
0.0128538
0.0125184
0.0121681
0.0117999
0.0114108
0.0109969
0.0105541
0.0100778
0.00956264
0.00900304
0.00839275
0.00772514
0.00699325
0.00619007
0.005309
0.00434471
0.00329521
0.0021675
0.0010032
9.17367e-05
0.0163442
0.0163324
0.0163107
0.0162593
0.0161941
0.0161165
0.0160157
0.0158807
0.0157228
0.0155484
0.0153611
0.0151625
0.0149527
0.0147309
0.0144957
0.0142452
0.0139776
0.0136922
0.0133958
0.0130904
0.012774
0.0124446
0.0120997
0.0117365
0.0113519
0.0109421
0.0105031
0.0100302
0.00951845
0.00896214
0.00835516
0.00769094
0.00696263
0.00616328
0.00528632
0.00432648
0.00328173
0.00215897
0.000999478
9.14824e-05
0.0162478
0.0162347
0.0162064
0.016139
0.0160587
0.0159685
0.015858
0.0157192
0.015562
0.015391
0.0152082
0.0150143
0.014809
0.0145914
0.0143604
0.0141144
0.0138522
0.0135744
0.0132865
0.0129889
0.0126797
0.0123568
0.0120179
0.0116602
0.0112806
0.0108755
0.0104409
0.00997225
0.00946455
0.00891225
0.00830932
0.0076493
0.00692539
0.00613074
0.00525883
0.00430443
0.00326545
0.00214868
0.000995006
9.11561e-05
0.0161618
0.0161468
0.0161089
0.0160212
0.0159225
0.0158166
0.0156936
0.015549
0.0153909
0.0152215
0.0150418
0.0148513
0.0146496
0.0144358
0.0142089
0.0139681
0.0137117
0.0134425
0.0131638
0.0128745
0.0125728
0.0122569
0.0119244
0.0115726
0.0111986
0.0107987
0.010369
0.00990513
0.0094021
0.00885447
0.00825627
0.00760115
0.0068824
0.00609323
0.00522721
0.00427909
0.00324679
0.00213691
0.000989905
9.07675e-05
0.0160834
0.0160648
0.0160176
0.0159084
0.0157879
0.0156637
0.0155263
0.0153743
0.0152134
0.015044
0.0148655
0.0146772
0.0144783
0.0142679
0.0140452
0.0138095
0.0135604
0.0133007
0.0130308
0.0127497
0.0124557
0.0121468
0.011821
0.0114755
0.0111073
0.0107131
0.0102888
0.0098302
0.00933238
0.00878996
0.00819711
0.00754752
0.00683458
0.00605159
0.00519216
0.00425107
0.00322618
0.00212394
0.000984301
9.03267e-05
0.0160083
0.0159825
0.0159295
0.0158007
0.0156551
0.0155112
0.0153593
0.0151993
0.0150341
0.0148625
0.0146836
0.0144963
0.0142995
0.0140925
0.0138743
0.0136445
0.0134032
0.0131521
0.0128905
0.0126172
0.0123307
0.0120289
0.0117098
0.0113707
0.0110086
0.0106203
0.0102018
0.00974886
0.00925668
0.00871997
0.00813295
0.00748942
0.00678286
0.00600662
0.00515438
0.00422093
0.00320407
0.00211006
0.000978319
8.98447e-05
0.0159366
0.0159037
0.0158426
0.0156932
0.0155242
0.0153605
0.0151957
0.0150276
0.0148569
0.0146819
0.0145013
0.0143139
0.0141187
0.0139147
0.013701
0.0134769
0.0132431
0.0129998
0.0127458
0.0124798
0.0122003
0.0119054
0.0115928
0.0112601
0.0109043
0.010522
0.0101095
0.00966254
0.00917633
0.00864569
0.00806492
0.0074279
0.00672817
0.00595915
0.00511458
0.00418924
0.00318088
0.00209555
0.000972086
8.93291e-05
0.0158683
0.0158288
0.0157565
0.0155871
0.0153991
0.0152184
0.0150411
0.0148644
0.014687
0.0145075
0.0143243
0.014136
0.0139415
0.0137397
0.0135295
0.0133108
0.0130835
0.0128467
0.0125993
0.0123399
0.0120669
0.0117784
0.0114722
0.0111458
0.0107961
0.0104199
0.0100135
0.00957263
0.00909262
0.00856833
0.00799412
0.00736393
0.00667138
0.00590995
0.00507341
0.00415654
0.00315702
0.00208066
0.000965709
8.87916e-05
0.015803
0.0157571
0.0156732
0.0154859
0.0152828
0.0150881
0.0148991
0.0147134
0.0145289
0.0143439
0.0141571
0.0139669
0.013772
0.0135712
0.0133639
0.0131494
0.012927
0.0126954
0.0124535
0.0121999