/*--------------------------------*- C++ -*----------------------------------*\
  =========                 |
  \\      /  F ield         | OpenFOAM: The Open Source CFD Toolbox
   \\    /   O peration     | Website:  https://openfoam.org
    \\  /    A nd           | Version:  8
     \\/     M anipulation  |
\*---------------------------------------------------------------------------*/
FoamFile
{
    version     2.0;
    format      ascii;
    class       volScalarField;
    location    "1.05";
    object      p;
}
// * * * * * * * * * * * * * * * * * * * * * * * * * * * * * * * * * * * * * //

dimensions      [1 -1 -2 0 0 0 0];

internalField   nonuniform List<scalar> 
9150
(
369.378
342.566
316.904
299.675
291.317
291.317
299.675
316.904
342.566
369.378
340.526
321.141
305.341
293.532
287.502
287.502
293.532
305.341
321.141
340.526
311.274
297.862
289.16
281.43
277.277
277.277
281.43
289.16
297.862
311.274
286.518
276.706
271.066
265.742
262.745
262.745
265.742
271.066
276.706
286.518
265.159
256.571
251.766
247.614
245.166
245.166
247.614
251.766
256.571
265.159
3.2691
-1.80061
23.4722
37.9346
44.353
44.3531
37.9349
23.4725
-1.79999
3.27036
173.255
148.701
143.291
142.022
141.912
141.912
142.021
143.291
148.701
173.255
278.174
246.135
229.961
220.042
215.199
215.199
220.042
229.96
246.135
278.174
358.553
315.864
287.678
270.35
261.756
261.756
270.35
287.677
315.864
358.553
406.879
355.619
316.958
294.927
284.736
284.736
294.927
316.958
355.619
406.879
-84.0398
-42.9688
-50.4883
-44.3601
-48.0121
-48.0092
-44.3553
-50.4759
-42.9598
-84.0477
-77.2828
-55.5539
-73.8508
-67.8264
-69.6068
-69.6055
-67.8265
-73.8472
-55.5532
-77.2867
-122.834
-88.3448
-114.917
-111.049
-106.377
-106.377
-111.049
-114.915
-88.344
-122.833
-300.854
-175.46
-151.482
-134.604
-119.175
-119.175
-134.603
-151.48
-175.46
-300.85
-432.307
-204.75
-105.456
-75.1401
-60.2949
-60.2947
-75.1393
-105.455
-204.75
-432.302
2043.58
2076.29
2100.97
2117.35
2125.34
2125.16
2116.81
2100.09
2075.13
2042.19
1823.66
1851.49
1873.29
1888.45
1896.47
1896.33
1888.06
1872.73
1850.79
1822.88
1584.34
1602.83
1617.34
1627.3
1632.39
1632.38
1627.28
1617.33
1602.83
1584.39
1448.13
1460.87
1470.76
1477.54
1481.01
1481.06
1477.69
1471
1461.19
1448.54
1373.64
1380.9
1386.64
1390.65
1392.75
1392.84
1390.91
1387.05
1381.46
1374.32
1343.3
1344.83
1346.31
1347.49
1348.19
1348.31
1347.86
1346.93
1345.7
1344.37
1342.75
1338.17
1335.16
1333.43
1332.71
1332.9
1334.01
1336.19
1339.7
1344.81
1355.05
1345.54
1338.8
1334.59
1332.69
1332.94
1335.38
1340.2
1347.7
1358.14
1363.9
1352.87
1344.67
1339.32
1336.8
1337.03
1340.03
1345.94
1354.84
1366.79
1366.49
1355.53
1347.31
1341.7
1338.92
1338.95
1341.79
1347.41
1355.63
1366.62
1361.98
1351.31
1343.92
1338.73
1336
1335.82
1338.15
1342.79
1349.42
1359
1351.19
1340.2
1333.89
1329.54
1327.17
1326.99
1328.96
1332.77
1338.36
1348.41
1334.32
1322.42
1317.18
1313.96
1312.25
1312.32
1314.16
1317.48
1323.04
1335.97
1312.31
1299.04
1294.5
1292.4
1291.38
1291.66
1293.24
1295.92
1301.43
1316.61
1281.34
1268.97
1265.84
1265.18
1265
1265.43
1266.44
1267.92
1272.25
1286.43
1245.54
1235.5
1234
1234.82
1235.54
1236.16
1236.69
1237.21
1240.64
1253.03
1211.45
1203.66
1202.68
1204.3
1205.65
1206.47
1206.8
1207.19
1211.23
1222.44
1181.05
1174.93
1173.42
1174.98
1176.42
1177.13
1177.12
1177.25
1181.31
1189.79
1152.27
1147.64
1145.74
1147.1
1148.52
1149.12
1148.96
1149.08
1153.16
1158.77
1125.9
1122.04
1119.64
1120.78
1122.18
1122.81
1122.71
1123.14
1127.59
1131.68
1100.67
1097.56
1094.71
1095.71
1097.16
1097.88
1097.91
1098.65
1103.56
1106.85
1075.04
1073.6
1070.7
1071.7
1073.3
1074.14
1074.25
1075.17
1080.28
1082.29
1050.45
1050.86
1048.11
1049.16
1050.88
1051.83
1052.05
1053.19
1058.33
1058.34
1028.22
1030.22
1027.47
1028.41
1030.16
1031.17
1031.54
1033
1038.09
1035.23
1005.96
1011.11
1008.54
1009.27
1010.97
1012
1012.42
1014.02
1018.93
1014.48
985.241
993.049
990.941
991.64
993.312
994.292
994.636
996.128
1000.58
993.759
967.545
977.403
975.562
976.117
977.662
978.511
978.676
979.984
983.7
973.746
951.847
963.781
962.276
962.765
964.272
965.084
965.222
966.464
969.643
957.716
938.496
952.498
951.373
951.841
953.343
954.15
954.281
955.481
958.147
944.589
927.34
943.538
942.929
943.455
944.977
945.789
945.897
947.047
949.231
933.853
920.459
938.409
937.815
938.128
939.569
940.359
940.503
941.753
943.787
926.759
914.579
935.451
935.033
935.229
936.681
937.553
937.851
939.409
941.582
922.964
915.11
936.548
935.722
935.406
936.592
937.439
937.962
940.047
942.777
923.424
919.854
940.511
938.684
937.527
938.229
938.935
939.66
942.271
945.59
926.444
924.649
944.921
942.162
940.111
940.287
940.832
941.784
945.076
949.156
929.473
923.779
947.19
944.124
941.269
940.948
941.211
942.095
945.685
949.498
924.6
918.287
947.842
944.509
940.796
940.104
940.228
941.188
945.224
948.901
919.461
915.778
949.322
944.569
939.352
937.941
937.75
938.732
943.302
947.071
912.979
902.679
943.115
939.174
933.728
932.264
932.076
933.123
937.971
941.217
901.705
888.102
933.178
930.91
925.647
924.162
923.922
924.897
929.533
931.401
887.973
873.024
921.371
921.105
915.974
914.311
913.923
914.784
918.965
918.305
871.302
859.513
910
910.682
905.285
903.259
902.635
903.393
907.34
905.192
856.145
845.209
898.144
899.465
893.471
890.864
889.851
890.408
894.124
890.438
838.737
829.567
885.243
887.05
880.209
876.806
875.204
875.348
878.544
872.709
817.414
811.812
870.62
872.956
865.156
860.835
858.498
858.042
860.388
851.714
792.117
791.219
853.605
856.757
848.084
842.873
839.792
838.669
839.945
827.56
762.138
766.671
833.282
837.985
828.869
823.068
819.489
817.94
818.299
801.384
727.44
737.037
808.953
816.466
807.705
801.935
798.466
797.244
797.602
775.94
689.844
702.197
780.982
792.765
785.215
780.192
777.617
777.786
779.539
753.212
650.97
662.447
750.613
768.033
762.189
758.364
757.269
759.637
763.727
732.483
611.848
619.272
720.203
744.06
739.67
736.987
737.57
742.437
749.096
713.521
578.532
575.027
691.765
722.126
718.175
715.949
717.778
724.523
732.676
693.521
553.249
531.156
663.7
700.76
696.77
694.465
697.016
704.824
713.232
671.42
534.279
494.059
633.709
677.094
673.895
671.678
674.765
683.316
691.706
647.994
515.791
468.532
604.635
652.01
649.788
647.548
650.781
659.66
667.728
621.716
492.025
447.465
578.035
627.226
624.989
622.059
624.78
633.244
640.045
590.685
462.804
421.018
547.621
599.48
597.72
594.342
596.652
604.674
610.144
558.035
433.146
390.06
513.913
569.182
568.339
564.804
566.978
574.811
578.94
524.862
404.54
357.439
479.739
538.103
537.903
533.879
535.682
543.13
545.499
488.969
372.589
322.827
442.934
504.791
505.872
501.278
502.545
509.531
510.258
450.571
335.474
285.808
404.861
469.872
471.863
466.794
467.662
474.379
473.539
409.549
293.233
244.645
364.587
433.52
436.382
430.766
431.281
437.878
435.548
366.366
246.717
201.109
321.142
394.117
398.451
392.647
392.833
398.961
394.476
320.446
200.059
162.621
277.85
352.651
358.899
353.481
353.508
358.907
352.283
276.943
162.401
132.563
239.087
312.495
320.095
315.175
315.12
319.847
311.809
238.388
133.394
105.94
203.791
274.555
282.965
278.497
278.419
282.664
273.843
203.018
106.284
85.2346
173.093
239.312
247.946
243.928
243.892
247.803
238.94
172.695
85.5884
68.3753
145.367
205.756
214.389
210.938
210.93
214.343
205.572
145.168
68.7534
54.8479
120.733
174.362
182.674
179.809
179.817
182.681
174.28
120.6
55.0768
43.8268
98.9735
145.259
152.915
150.6
150.605
152.918
145.182
98.8505
44.0034
34.4906
79.5
118.242
125.033
123.253
123.252
125.016
118.149
79.388
34.6502
27.2759
62.3208
93.24
99.029
97.7913
97.7924
99.0227
93.1858
62.2761
27.4554
21.2981
46.9069
70.104
74.8354
74.1463
74.1518
74.8461
70.0965
46.9342
21.5061
16.3379
33.2294
48.9767
52.613
52.4342
52.444
52.6382
49.0043
33.3082
16.56
12.1402
21.0134
29.7954
32.3607
32.6497
32.6644
32.404
29.8669
21.1472
12.3649
8.63821
10.1192
12.462
14.0272
14.7457
14.7639
14.0829
12.5624
10.2881
8.86228
5.64205
0.381067
-3.11703
-2.43278
-1.3155
-1.29508
-2.36906
-2.99521
0.578325
5.86382
3.04076
-8.34189
-17.0147
-17.0612
-15.5765
-15.5546
-16.9917
-16.8762
-8.12221
3.2576
0.729825
-16.1532
-29.2786
-29.8891
-28.0737
-28.0514
-29.8173
-29.1302
-15.9184
0.940841
-1.35751
-23.1181
-39.9515
-40.9545
-38.848
-38.826
-40.8831
-39.7991
-22.8747
-1.15284
-3.2828
-29.3135
-49.0941
-50.3123
-47.9544
-47.9331
-50.243
-48.9418
-29.066
-3.08397
-5.0866
-34.788
-56.7613
-58.0212
-55.4511
-55.4305
-57.9542
-56.6113
-34.5402
-4.89351
-6.79981
-39.5834
-63.0129
-64.1481
-61.4024
-61.3822
-64.0829
-62.866
-39.3383
-6.61383
-8.44627
-43.7302
-67.9079
-68.7643
-65.8765
-65.856
-68.6989
-67.7623
-43.4898
-8.27139
-10.0436
-47.2504
-71.5067
-71.9446
-68.9421
-68.92
-71.8741
-71.355
-47.0118
-9.88673
-11.6038
-50.1588
-73.8677
-73.7628
-70.6697
-70.6446
-73.6826
-73.7016
-49.9173
-11.474
-13.1319
-52.4599
-75.0454
-74.2946
-71.1295
-71.1018
-74.2059
-74.8676
-52.216
-13.0238
-14.6258
-54.1434
-75.0831
-73.6067
-70.386
-70.3576
-73.517
-74.9079
-53.9022
-14.5091
-16.069
-55.183
-74.0122
-71.7569
-68.4954
-68.4673
-71.6707
-73.8495
-54.9508
-15.9234
-17.4229
-55.5246
-71.8503
-68.7997
-65.5136
-65.4849
-68.7137
-71.6949
-55.3013
-17.2574
-18.6366
-55.0997
-68.6186
-64.8048
-61.5168
-61.4859
-64.7132
-68.4599
-54.8814
-18.4722
-19.6503
-53.8192
-64.3686
-59.8932
-56.6331
-56.6
-59.7952
-64.2041
-53.6063
-19.5004
-20.3828
-51.7029
-59.3082
-54.3202
-51.1093
-51.0758
-54.2218
-59.1463
-51.5032
-20.2531
-20.8129
-48.9648
-53.8816
-48.5399
-45.3435
-45.3125
-48.4493
-53.7343
-48.7876
-20.7034
-20.9978
-46.0766
-48.6242
-42.9268
-39.6375
-39.6115
-42.851
-48.5009
-45.9275
-20.9062
-21.2211
-43.7667
-44.1299
-38.0523
-34.7689
-34.7495
-37.9953
-44.0352
-43.6481
-21.1461
-22.8901
-44.0618
-41.7768
-35.5733
-32.8289
-32.8163
-35.5353
-41.7109
-43.9727
-22.83
-28.7493
-46.1702
-39.5833
-34.8523
-33.0163
-33.0084
-34.8287
-39.5426
-46.1106
-28.7052
-40.8243
-35.167
-29.1841
-32.0892
-32.8528
-32.8467
-32.073
-29.1599
-35.1365
-40.8099
-50.0672
-13.8788
-24.7925
-33.0517
-37.1314
-37.1259
-33.0386
-24.7723
-13.8589
-50.0792
1999.18
1945.76
1885.48
1819.79
1750.58
1679.97
1610.2
1543.5
1481.94
1427.31
1380.39
1340.18
1305.59
1276.24
1251.94
1232.19
1216.35
1203.8
1193.99
1186.45
1180.81
1176.77
1174.09
1172.6
1172.16
1172.65
1173.98
1176.07
1178.84
1182.22
1186.13
1190.48
1195.2
1200.43
1209.68
1214.3
1217.39
1219.63
1223.71
1224.75
1787.74
1743.55
1694.41
1642.23
1588.78
1535.9
1485.38
1438.8
1397.26
1361.3
1331.48
1307.99
1289.44
1274.55
1262.34
1252.04
1243.12
1235.2
1228.05
1221.56
1215.7
1210.47
1205.93
1202.11
1199.05
1196.76
1195.25
1194.47
1194.38
1194.89
1195.89
1197.21
1198.65
1200.32
1202.96
1205.51
1207.18
1207.34
1206.42
1210.37
1561.17
1532
1500.02
1466.89
1434.05
1402.84
1374.47
1349.99
1329.97
1314.31
1302.56
1293.93
1287.35
1281.82
1276.68
1271.54
1266.21
1260.6
1254.72
1248.65
1242.51
1236.45
1230.6
1225.09
1220.04
1215.5
1211.52
1208.09
1205.17
1202.68
1200.53
1198.57
1196.66
1194.77
1193.14
1192.18
1191.16
1192.83
1201.61
1202.05
1432.37
1412.89
1392.02
1370.58
1349.29
1328.87
1310.39
1295.17
1283.29
1273.4
1265.7
1260.92
1258.31
1256.81
1255.53
1253.95
1251.78
1248.9
1245.28
1241.02
1236.25
1231.13
1225.82
1220.49
1215.25
1210.2
1205.42
1200.92
1196.71
1192.77
1189.05
1185.55
1182.25
1179.29
1176.94
1175.49
1175.34
1178.53
1188.62
1199.21
1365.26
1354.29
1342.41
1329.84
1316.83
1303.77
1291.35
1280.22
1265
1239.88
1222.33
1216.63
1215.94
1216.02
1215.89
1215.92
1216.37
1216.54
1215.94
1214.43
1212.09
1209.04
1205.45
1201.46
1197.22
1192.84
1188.42
1184.04
1179.74
1175.56
1171.54
1167.75
1164.33
1161.48
1159.58
1159.1
1161.19
1168.36
1181.93
1194.87
1342.99
1341.63
1341.01
1342.73
1348.37
1350.89
1329.89
1272.29
1181.85
1079.32
1060.3
1079.99
1114.56
1145.3
1157.65
1160.37
1164.34
1169.03
1172.92
1175.47
1176.72
1176.8
1175.89
1174.17
1171.81
1168.97
1165.78
1162.38
1158.85
1155.3
1151.83
1148.6
1145.79
1143.71
1142.76
1143.5
1147.19
1156.25
1171.38
1185.09
1352.29
1363.53
1382.03
1414.94
1453.67
1421.78
1232.04
982.219
905.265
881.474
873.916
880.078
928.679
991.443
1041.43
1070.8
1090.43
1105.97
1118.14
1127.23
1133.72
1138.1
1140.76
1142.05
1142.23
1141.54
1140.2
1138.36
1136.2
1133.85
1131.48
1129.29
1127.52
1126.49
1126.59
1128.4
1133.03
1142.54
1157.16
1169.85
1373.25
1398.1
1442.32
1502.75
1478.06
1233.96
980.323
875.591
852.243
846.918
843.825
843.698
853.158
872.188
925.164
981.844
1018.29
1043.44
1062.77
1077.81
1089.28
1097.85
1104.09
1108.47
1111.35
1113.03
1113.78
1113.79
1113.28
1112.42
1111.41
1110.47
1109.84
1109.83
1110.82
1113.28
1118.13
1126.97
1139.76
1150.26
1384.72
1418.03
1472.35
1483.65
1261.03
937.53
860.171
846.592
841.807
840.392
840.078
840.524
841.95
842.598
866.582
919.639
961.916
991.573
1014.55
1033.09
1047.94
1059.66
1068.81
1075.86
1081.19
1085.11
1087.88
1089.76
1090.94
1091.62
1092
1092.3
1092.74
1093.6
1095.17
1097.84
1102.3
1109.69
1119.85
1127.95
1384.7
1420.45
1457.77
1359.57
1050.46
866.834
842.836
838.901
837.14
836.733
836.901
837.206
837.539
836.89
843.332
880.138
919.902
950.444
974.669
994.759
1011.46
1025.2
1036.43
1045.53
1052.85
1058.67
1063.24
1066.8
1069.54
1071.65
1073.31
1074.72
1076.07
1077.57
1079.44
1081.96
1085.58
1091.04
1098.17
1103.69
1377.88
1409.46
1388.2
1170.6
918.703
846.182
833.587
831.106
831.407
832.03
832.439
832.424
831.727
831.839
832.824
855.873
889.762
918.792
942.589
962.83
980.196
994.988
1007.49
1018.01
1026.8
1034.1
1040.14
1045.1
1049.17
1052.5
1055.26
1057.59
1059.64
1061.56
1063.5
1065.61
1068.15
1071.49
1075.52
1078.63
1370.52
1391.83
1289.73
1012.56
859.117
833.255
827.169
826.343
827.214
828.171
828.637
828.562
828.126
828.524
826.542
838.55
866.526
893.615
916.432
936.166
953.508
968.682
981.861
993.247
1003.04
1011.42
1018.56
1024.62
1029.75
1034.06
1037.68
1040.72
1043.27
1045.43
1047.26
1048.83
1050.22
1051.5
1052.62
1053.54
1361.34
1352.99
1162.95
902.761
835.093
825.881
824.374
824.5
825.064
825.572
825.868
825.864
825.746
825.901
822.014
825.436
847.815
873.005
894.736
913.684
930.61
945.725
959.134
970.962
981.353
990.442
998.356
1005.21
1011.11
1016.15
1020.41
1023.95
1026.82
1029.05
1030.66
1031.64
1031.91
1031.28
1029.77
1028.59
1340.32
1291.86
1051.8
849.508
825.306
822.775
822.968
823.121
823.082
823.136
823.266
823.26
823.231
823.41
819.449
817.027
833.428
856.193
876.626
894.578
910.811
925.549
938.85
950.784
961.442
970.919
979.301
986.665
993.083
998.611
1003.29
1007.15
1010.19
1012.39
1013.71
1014.09
1013.34
1011.04
1007.32
1004.42
1301.62
1214.95
968.296
828.975
821.068
821.54
822.357
821.859
820.982
820.522
820.503
820.48
820.519
820.903
817.065
810.446
821.509
841.895
861.066
877.988
893.401
907.573
920.536
932.322
942.986
952.586
961.175
968.803
975.506
981.309
986.225
990.242
993.326
995.419
996.444
996.288
994.666
991.029
985.563
981.34
1257.2
1139.8
908.76
819.303
815.903
819.805
821.77
820.345
818.466
817.431
817.236
817.232
817.363
817.915
814.012
804.417
811.211
829.483
847.451
863.336
877.86
891.338
903.797
915.243
925.702
935.209
943.792
951.472
958.262
964.163
969.156
973.208
976.252
978.2
978.947
978.346
976.051
971.412
964.69
959.289
1208.95
1064.07
864.657
808.418
811.431
819.61
819.047
815.391
813.543
812.878
812.854
812.989
813.223
813.739
809.892
798.602
802.147
818.55
835.358
850.207
863.797
876.491
888.32
899.273
909.363
918.603
927.003
934.564
941.281
947.133
952.083
956.075
959.025
960.826
961.35
960.434
957.696
952.43
944.961
939.012
1160.82
1006.09
843.338
808.55
815.168
818.65
810.979
807.407
806.828
806.984
807.323
807.628
807.894
808.117
804.883
793.738
794.806
809.167
824.66
838.395
850.979
862.795
873.88
884.218
893.802
902.634
910.709
918.015
924.531
930.221
935.034
938.905
941.735
943.407
943.786
942.7
939.755
934.232
926.487
920.379
1118.38
969.322
846.35
817.513
820.069
808.062
799.751
799.393
800.01
800.647
801.178
801.536
801.641
801.052
799.238
790.787
789.986
801.508
815.298
827.759
839.227
850.063
860.305
869.922
878.895
887.209
894.85
901.793
908.009
913.453
918.067
921.777
924.483
926.063
926.384
925.277
922.358
916.924
909.34
903.394
1084.76
943.909
847.37
820.698
810.972
795.807
791.733
793.032
794.159
794.837
795.292
795.501
795.258
793.952
793.782
788.692
786.544
794.466
806.515
817.788
828.164
838.008
847.373
856.223
864.524
872.253
879.386
885.893
891.741
896.88
901.252
904.783
907.374
908.91
909.266
908.282
905.601
900.57
893.534
888.033
1054.73
916.377
834.049
808.989
797.95
790.586
788.418
789.144
789.915
790.195
790.302
790.269
789.797
788.925
789.488
786.193
782.913
787.182
797.631
807.995
817.469
826.406
834.925
843.006
850.612
857.72
864.301
870.328
875.761
880.561
884.666
888.012
890.509
892.053
892.531
891.802
889.551
885.197
879.042
874.224
1024.11
886.406
815.881
796.962
791.043
787.266
785.982
786.068
786.292
786.232
786.056
785.791
785.185
784.172
783.751
784.018
781.811
782.565
789.504
798.602
807.225
815.288
822.96
830.26
837.155
843.615
849.615
855.128
860.12
864.559
868.384
871.549
873.976
875.576
876.257
875.9
874.242
870.794
865.795
861.852
995.239
863.145
805.151
790.641
786.08
782.937
782.512
782.597
782.67
782.584
782.328
781.871
781.137
779.934
778.748
780.286
782.137
780.671
782.248
789.389
797.243
804.557
811.434
817.969
824.152
829.956
835.357
840.335
844.866
848.925
852.471
855.461
857.841
859.544
860.495
860.605
859.671
857.31
853.683
850.764
969.363
847.943
800.282
785.623
780.076
778.296
778.976
779.352
779.475
779.43
779.176
778.688
777.962
776.983
776.145
775.794
777.584
776.911
775.052
779.544
786.942
793.931
800.238
806.103
811.614
816.772
821.569
826
830.056
833.724
836.984
839.807
842.16
843.998
845.273
845.922
845.809
844.67
842.568
840.796
947.919
834.243
793.239
780.231
775.887
775.579
776.487
776.879
776.979
776.927
776.705
776.322
775.782
775.094
774.315
773.652
773.487
775.602
771.038
771.301
777.449
784.043
789.78
794.935
799.721
804.189
808.346
812.199
815.755
819.017
821.979
824.635
826.97
828.965
830.595
831.829
832.602
832.772
832.293
831.732
923.742
813.915
779.032
775.678
775.701
775.322
775.258
775.21
775.117
774.975
774.75
774.454
774.09
773.671
773.211
772.736
772.639
774.199
770.117
766.831
770
775.488
780.402
784.686
788.627
792.314
795.764
798.992
802.014
804.844
807.494
809.973
812.288
814.444
816.44
818.276
819.957
821.462
822.637
823.274
901.517
800.13
772.568
771.754
775.244
774.587
773.864
773.567
773.379
773.196
772.986
772.747
772.469
772.161
771.844
771.546
771.162
770.008
769.242
764.859
764.472
768.063
771.944
775.293
778.309
781.142
783.831
786.392
788.849
791.225
793.544
795.832
798.117
800.423
802.775
805.199
807.768
810.584
813.377
815.191
886.245
795.172
770.806
767.928
771.594
771.985
771.748
771.6
771.499
771.398
771.28
771.134
770.948
770.731
770.494
770.207
769.809
769.426
770.187
764.846
760.769
761.852
764.479
766.775
768.773
770.677
772.547
774.401
776.262
778.16
780.129
782.209
784.442
786.875
789.551
792.522
795.926
799.973
804.29
807.213
874.093
790.662
767.11
763.034
767.907
769.225
769.65
769.681
769.677
769.679
769.67
769.632
769.556
769.462
769.361
769.253
769.142
769.116
769.43
764.653
758.09
756.69
757.847
758.977
759.902
760.835
761.853
762.974
764.223
765.628
767.229
769.08
771.235
773.758
776.71
780.164
784.309
789.461
795.15
799.032
863.401
785.16
759.818
755.067
764.888
766.989
767.801
767.939
768.014
768.1
768.171
768.202
768.204
768.189
768.164
768.136
768.102
768.067
767.983
764.509
756.617
752.71
752.042
751.814
751.588
751.514
751.661
752.04
752.668
753.575
754.801
756.405
758.453
761.02
764.182
768.03
772.803
778.898
785.766
790.506
855.178
779.208
748.393
743.405
761.779
765.284
766.257
766.395
766.518
766.668
766.788
766.865
766.925
766.97
767.004
767.031
767.067
767.01
766.599
763.023
754.032
748.325
746.187
744.757
743.469
742.46
741.792
741.469
741.505
741.927
742.781
744.126
746.037
748.598
751.895
756.035
761.294
768.134
775.945
781.382
849.169
773.255
736.252
729.657
758.026
764.34
765.312
765.201
765.243
765.391
765.521
765.628
765.727
765.826
765.931
766.078
766.357
766.654
765.937
760.529
750.02
743.235
740.034
737.565
735.338
733.496
732.096
731.136
730.627
730.597
731.091
732.171
733.916
736.418
739.768
744.086
749.673
757.038
765.527
771.474
849.598
775.581
728.918
711.415
746.19
762.642
764.68
764.331
764.148
764.215
764.325
764.424
764.519
764.613
764.7
764.796
765.047
766.015
764.996
757.245
745.247
737.741
733.563
730.121
727.052
724.479
722.439
720.92
719.927
719.487
719.643
720.458
722.012
724.403
727.723
732.098
737.845
745.5
754.386
760.644
856.411
787.662
732.187
699.911
726.185
760.029
763.278
763.131
762.921
762.987
763.11
763.208
763.275
763.316
763.321
763.277
763.15
762.843
761.848
752.52
739.203
731.209
726.275
722.069
718.342
715.198
712.65
710.677
709.283
708.491
708.344
708.902
710.246
712.476
715.681
719.994
725.73
733.436
742.431
748.798
861.059
798.763
743.004
699.024
706.682
757.79
761.76
761.83
761.68
761.791
761.95
762.067
762.138
762.17
762.163
762.115
761.942
761.362
758.492
744.944
730.664
723.004
717.806
713.153
709.011
705.492
702.592
700.289
698.588
697.512
697.103
697.419
698.54
700.561
703.577
707.709
713.28
720.794
729.616
735.892
846.54
786.052
746.942
708.393
692.904
755.836
760.443
760.653
760.549
760.708
760.909
761.058
761.158
761.221
761.268
761.344
761.352
760.605
752.834
733.645
719.765
713.182
708.113
703.302
698.984
695.283
692.185
689.674
687.76
686.472
685.853
685.935
686.823
688.598
691.35
695.194
700.431
707.548
715.932
721.929
836.151
781.235
750.731
713.287
680.778
754.398
759.407
759.676
759.588
759.773
759.999
760.164
760.272
760.335
760.371
760.451
760.712
759.616
743.653
719.951
707.963
702.442
697.509
692.678
688.339
684.592
681.413
678.794
676.75
675.31
674.507
674.384
675.033
676.529
678.955
682.413
687.172
693.689
701.406
706.954
822.983
772.726
756.433
726.571
666.492
752.853
758.406
758.82
758.777
758.989
759.225
759.387
759.478
759.511
759.494
759.391
759.048
753.97
728.22
704.565
695.654
690.893
686.057
681.331
677.104
673.421
670.256
667.612
665.506
663.963
663.013
662.707
663.113
664.303
666.346
669.331
673.492
679.236
686.086
691.043
804.853
758.022
752.956
738.194
671.246
751.965
757.643
758.197
758.212
758.432
758.662
758.814
758.904
758.961
759.009
758.918
758.122
740.147
705.833
688.094
682.696
678.471
673.793
669.312
665.308
661.777
658.704
656.103
653.99
652.385
651.319
650.84
650.999
651.864
653.478
655.926
659.392
664.241
670.053
674.335
791.551
750.283
747.93
741.796
670.317
754.187
757.7
758.102
758.077
758.184
758.323
758.426
758.507
758.596
758.677
758.54
749.628
712.689
682.274
673.275
669.671
665.456
660.953
656.779
653.034
649.693
646.757
644.241
642.165
640.527
639.38
638.731
638.649
639.168
640.335
642.204
644.926
648.8
653.48
657.084
779.611
744.849
743.619
742.013
681.097
703.987
757.559
758.367
758.235
758.118
758.107
758.128
758.169
758.205
757.955
752.197
718.152
678.811
663.779
659.897
656.207
651.849
647.616
643.768
640.287
637.158
634.387
631.985
629.966
628.327
627.106
626.312
625.99
626.164
626.865
628.131
630.073
632.91
636.386
639.115
768.147
737.911
736.307
735.885
695.241
706.681
745.895
757.45
757.971
757.987
757.982
757.958
757.863
757.611
750.179
716.248
673.864
654.294
649.49
646.042
641.843
637.623
633.752
630.227
627.019
624.122
621.539
619.273
617.328
615.712
614.435
613.512
612.961
612.794
613.029
613.689
614.84
616.621
618.871
620.713
753.022
726.536
724.842
724.79
703.958
700.791
703.948
748.981
756.586
757.241
757.375
757.234
756.449
742.066
704.058
662.974
643.454
638.216
634.792
630.704
626.561
622.747
619.267
616.078
613.166
610.525
608.151
606.042
604.197
602.618
601.306
600.265
599.507
599.007
598.795
598.865
599.245
599.996
601.045
602.025
733.611
710.956
709.83
710.619
700.781
674.221
682.777
706.235
739.615
750.201
749.871
741.37
715.061
675.642
643.617
629.365
624.982
621.765
617.943
614.055
610.447
607.135
604.077
601.259
598.673
596.311
594.167
592.235
590.51
588.988
587.663
586.526
585.568
584.779
584.148
583.666
583.319
583.099
583.008
583.181
710.182
690.947
689.894
690.942
685.051
659.342
650.222
654.811
672.049
684.254
680.194
658.992
634.614
618.907
612.347
609.612
606.785
603.392
599.931
596.672
593.643
590.821
588.198
585.768
583.522
581.454
579.555
577.817
576.232
574.789
573.472
572.263
571.143
570.09
569.082
568.098
567.087
565.978
564.842
564.277
681.405
665.633
664.852
666.063
660.657
637.895
624.32
623.501
624.186
622.254
616.641
608.949
602.461
598.162
594.704
591.233
587.766
584.505
581.519
578.771
576.224
573.858
571.66
569.616
567.716
565.949
564.308
562.78
561.353
560.006
558.719
557.465
556.214
554.939
553.601
552.166
550.562
548.652
546.573
545.222
645.794
633.611
633.631
634.991
628.172
605.848
593.821
592.843
592.415
590.329
587.148
583.539
579.909
576.399
573.054
569.952
567.139
564.59
562.252
560.088
558.078
556.203
554.45
552.807
551.264
549.814
548.444
547.141
545.886
544.653
543.415
542.14
540.793
539.335
537.726
535.918
533.805
531.206
528.318
526.332
602.641
592.374
593.535
595.378
589.081
570.727
562.373
561.823
561.549
560.331
558.533
556.414
554.137
551.848
549.661
547.62
545.724
543.956
542.304
540.757
539.303
537.932
536.634
535.401
534.226
533.101
532.014
530.943
529.87
528.763
527.592
526.323
524.914
523.321
521.498
519.389
516.861
513.695
510.137
507.668
553.23
543.118
545.332
547.939
546.847
536.677
531.835
531.467
531.418
530.935
530.176
529.246
528.201
527.101
525.994
524.902
523.843
522.825
521.849
520.913
520.014
519.146
518.306
517.489
516.688
515.893
515.088
514.251
513.363
512.392
511.304
510.066
508.63
506.948
504.971
502.635
499.789
496.183
492.1
489.246
502.377
493.066
497.39
501.105
505.647
502.613
500.485
500.825
501.519
501.996
502.286
502.433
502.451
502.359
502.186
501.95
501.672
501.367
501.041
500.698
500.34
499.968
499.583
499.177
498.745
498.273
497.746
497.143
496.441
495.613
494.625
493.438
492.007
490.28
488.203
485.708
482.634
478.708
474.246
471.11
462.54
453.718
459.63
466.207
469.072
467.022
467.354
469.5
471.553
473.234
474.651
475.854
476.862
477.694
478.376
478.932
479.382
479.745
480.033
480.257
480.422
480.531
480.585
480.577
480.5
480.344
480.083
479.707
479.193
478.512
477.632
476.514
475.111
473.372
471.241
468.652
465.434
461.308
456.607
453.296
440.648
429.628
434.46
440.189
435.574
431.177
434.093
438.494
442.065
444.97
447.483
449.685
451.605
453.277
454.735
456.01
457.127
458.109
458.977
459.733
460.392
460.955
461.425
461.794
462.052
462.192
462.192
462.037
461.708
461.175
460.405
459.364
458.006
456.278
454.129
451.501
448.235
444.021
439.213
435.819
433.768
421.106
421.432
419.178
402.464
395.996
402.07
408.704
413.633
417.613
421.089
424.162
426.874
429.277
431.416
433.33
435.049
436.598
437.995
439.237
440.353
441.34
442.196
442.917
443.494
443.916
444.166
444.225
444.073
443.681
443.018
442.048
440.729
439.023
436.885
434.273
431.02
426.827
422.04
418.654
427.537
416.007
413.726
399.738
370.497
363.671
372.777
381.014
386.841
391.573
395.759
399.497
402.837
405.836
408.548
411.011
413.255
415.304
417.167
418.857
420.388
421.762
422.977
424.032
424.915
425.612
426.105
426.373
426.391
426.129
425.553
424.628
423.327
421.619
419.495
416.929
413.777
409.731
405.077
401.766
412.322
403.023
401.708
381.916
346.322
338.679
348.011
356.294
362.213
367.177
371.696
375.826
379.593
383.038
386.202
389.116
391.805
394.282
396.559
398.648
400.555
402.281
403.833
405.212
406.402
407.374
408.11
408.586
408.772
408.631
408.125
407.217
405.888
404.117
401.947
399.44
396.471
392.668
388.265
385.103
391.23
383.138
382.47
363.018
327.803
319.227
326.699
333.844
339.268
344.093
348.676
353.003
357.05
360.822
364.342
367.628
370.693
373.545
376.193
378.643
380.898
382.958
384.842
386.592
388.029
389.293
390.283
390.98
391.345
391.332
390.887
389.957
388.493
386.445
383.938
381.296
378.62
375.235
371.199
368.426
368.955
360.879
360.147
341.118
307.844
299.412
305.49
311.719
316.77
321.51
326.166
330.67
334.96
339.022
342.86
346.479
349.885
353.084
356.078
358.873
361.469
363.876
366.158
368.188
369.889
371.447
372.722
373.68
374.276
374.446
374.114
373.183
371.511
368.887
365.42
362.205
360.378
358.965
355.458
353.193
347.03
339.308
337.945
315.873
282.316
275.311
281.992
288.485
293.784
298.794
303.732
308.531
313.127
317.508
321.672
325.62
329.357
332.889
336.218
339.345
342.275
345.031
347.583
349.91
352.014
353.883
355.507
356.828
357.803
358.369
358.45
357.951
356.657
354.014
350.308
350.152
350.102
347.777
346.096
347.111
320.967
314.12
312.407
288.27
254.765
249.4
257.337
264.619
270.505
276.007
281.376
286.562
291.524
296.259
300.765
305.044
309.11
312.967
316.618
320.067
323.319
326.385
329.231
331.883
334.328
336.569
338.604
340.399
341.932
343.173
344.107
344.736
344.856
343.508
342.433
343.337
341.689
339.518
337.794
336.964
288.016
282.054
280.32
257.713
227.182
223.479
232.552
240.699
247.288
253.373
259.24
264.859
270.215
275.315
280.173
284.78
289.166
293.332
297.284
301.03
304.576
307.932
311.068
314.01
316.771
319.37
321.8
324.057
326.137
328.038
329.782
331.435
332.925
333.33
333.85
334.496
332.871
331.007
328.932
326.95
248.599
243.535
241.779
223.764
199.632
198.059
208.134
217.122
224.448
231.139
237.507
243.558
249.306
254.764
259.951
264.88
269.561
274.006
278.226
282.232
286.03
289.663
293.096
296.218
299.254
302.156
304.919
307.552
310.068
312.479
314.812
317.144
319.534
321.499
323.092
325.619
324.998
322.43
318.532
316.758
203.693
199.85
197.943
188.534
175.158
175.89
185.687
194.793
202.551
209.685
216.445
222.857
228.938
234.711
240.193
245.397
250.337
255.023
259.47
263.69
267.694
271.491
275.119
278.502
281.77
284.894
287.888
290.766
293.543
296.229
298.834
301.391
303.96
306.446
308.3
309.5
312.204
310.037
308.417
307.267
160.448
157.627
152.427
152.71
154.212
158.071
166.016
174.195
181.888
189.198
196.188
202.853
209.194
215.222
220.95
226.387
231.543
236.432
241.067
245.463
249.633
253.593
257.357
260.938
264.359
267.634
270.775
273.798
276.714
279.527
282.238
284.845
287.347
289.731
291.759
293.164
293.845
293.985
293.018
291.434
128.08
126.839
125.188
126.174
129.493
135.592
144.202
153.027
161.269
169.029
176.397
183.387