/*--------------------------------*- C++ -*----------------------------------*\
  =========                 |
  \\      /  F ield         | OpenFOAM: The Open Source CFD Toolbox
   \\    /   O peration     | Website:  https://openfoam.org
    \\  /    A nd           | Version:  8
     \\/     M anipulation  |
\*---------------------------------------------------------------------------*/
FoamFile
{
    version     2.0;
    format      ascii;
    class       volVectorField;
    location    "1.05";
    object      U;
}
// * * * * * * * * * * * * * * * * * * * * * * * * * * * * * * * * * * * * * //

dimensions      [0 1 -1 0 0 0 0];

internalField   nonuniform List<vector> 
9150
(
(0.0532636 -0.429242 0)
(0.0877403 -0.622654 0)
(0.0735893 -0.631678 0)
(0.0487317 -0.643912 0)
(0.0171051 -0.654679 0)
(-0.0171052 -0.654679 0)
(-0.0487318 -0.643912 0)
(-0.0735894 -0.631678 0)
(-0.0877403 -0.622654 0)
(-0.0532636 -0.429242 0)
(0.0400485 -0.522133 0)
(0.0570686 -0.625851 0)
(0.0424614 -0.613323 0)
(0.0294267 -0.622541 0)
(0.0105508 -0.629018 0)
(-0.0105509 -0.629018 0)
(-0.0294267 -0.622541 0)
(-0.0424614 -0.613323 0)
(-0.0570686 -0.625851 0)
(-0.0400485 -0.522133 0)
(0.0247246 -0.557645 0)
(0.0323085 -0.614093 0)
(0.0233108 -0.604536 0)
(0.017263 -0.610017 0)
(0.00628368 -0.613285 0)
(-0.00628373 -0.613285 0)
(-0.017263 -0.610017 0)
(-0.0233109 -0.604536 0)
(-0.0323085 -0.614093 0)
(-0.0247246 -0.557645 0)
(0.0149758 -0.584481 0)
(0.0173149 -0.607656 0)
(0.0119291 -0.601165 0)
(0.00886633 -0.603277 0)
(0.00325899 -0.60444 0)
(-0.00325903 -0.60444 0)
(-0.00886636 -0.603277 0)
(-0.0119291 -0.601165 0)
(-0.0173149 -0.607656 0)
(-0.0149758 -0.584481 0)
(0.00610768 -0.597083 0)
(0.00549235 -0.60148 0)
(0.00367184 -0.600047 0)
(0.00267936 -0.600346 0)
(0.000996212 -0.600493 0)
(-0.000996227 -0.600493 0)
(-0.00267937 -0.600346 0)
(-0.00367185 -0.600047 0)
(-0.00549236 -0.60148 0)
(-0.00610769 -0.597083 0)
(0.466418 -1.1576 2.04453e-24)
(0.282824 -1.08629 0)
(0.162606 -1.06935 0)
(0.091339 -1.05773 0)
(0.0302244 -1.05337 0)
(-0.0302259 -1.05337 0)
(-0.0913403 -1.05772 0)
(-0.162607 -1.06935 0)
(-0.282825 -1.08629 0)
(-0.466418 -1.1576 -2.0445e-24)
(0.333086 -0.843285 5.8479e-25)
(0.287873 -0.936528 0)
(0.188653 -0.9369 0)
(0.107796 -0.937035 0)
(0.0356969 -0.939562 0)
(-0.0356977 -0.939562 0)
(-0.107797 -0.937034 0)
(-0.188654 -0.936899 0)
(-0.287873 -0.936527 0)
(-0.333086 -0.843284 -5.84788e-25)
(0.276722 -0.70063 7.7652e-26)
(0.259093 -0.804587 0)
(0.178699 -0.817502 0)
(0.104383 -0.828582 0)
(0.0348472 -0.836863 0)
(-0.0348478 -0.836863 0)
(-0.104383 -0.828582 0)
(-0.1787 -0.817501 0)
(-0.259093 -0.804587 0)
(-0.276722 -0.700629 -7.76542e-26)
(0.196958 -0.552951 4.18387e-25)
(0.215864 -0.709566 0)
(0.154859 -0.726042 0)
(0.0912788 -0.742283 0)
(0.0305678 -0.754291 0)
(-0.0305682 -0.754291 0)
(-0.0912791 -0.742283 0)
(-0.154859 -0.726042 0)
(-0.215864 -0.709566 0)
(-0.196958 -0.552951 -4.18384e-25)
(0.116205 -0.445975 -6.24085e-25)
(0.154967 -0.644733 -8.7824e-25)
(0.117137 -0.664053 -3.03219e-25)
(0.0709779 -0.681462 -1.98682e-25)
(0.0240192 -0.694512 -1.15375e-26)
(-0.0240194 -0.694512 -1.15371e-26)
(-0.0709781 -0.681461 -1.9868e-25)
(-0.117137 -0.664053 -3.03218e-25)
(-0.154967 -0.644733 -8.78239e-25)
(-0.116205 -0.445975 -6.24085e-25)
(0.016518 -0.941446 0)
(-0.0437623 -1.32777 0)
(0.0181965 -1.26465 0)
(-0.00245003 -1.22299 0)
(0.00133483 -1.22121 0)
(-0.0013493 -1.22121 0)
(0.00243002 -1.22299 0)
(-0.0182076 -1.26464 0)
(0.0437559 -1.32776 0)
(-0.016517 -0.941405 0)
(0.0528591 -0.913953 0)
(-0.0272018 -1.33033 0)
(0.0183809 -1.26765 0)
(0.00218461 -1.22427 0)
(-0.000515426 -1.22127 0)
(0.00050673 -1.22127 0)
(-0.00219443 -1.22427 0)
(-0.0183852 -1.26765 0)
(0.0271907 -1.33033 0)
(-0.0528567 -0.913912 0)
(0.0821071 -0.951377 0)
(-0.0243274 -1.34555 0)
(0.0108116 -1.27409 0)
(0.00747989 -1.23217 0)
(-7.78085e-05 -1.22612 0)
(7.14296e-05 -1.22612 0)
(-0.00748681 -1.23217 0)
(-0.0108152 -1.27409 0)
(0.0243165 -1.34555 0)
(-0.0821082 -0.95135 0)
(0.151533 -1.08195 0)
(0.00728654 -1.36596 0)
(0.0104425 -1.2702 0)
(0.02162 -1.2261 0)
(0.00660395 -1.2147 0)
(-0.00660845 -1.2147 0)
(-0.021624 -1.2261 0)
(-0.0104451 -1.2702 0)
(-0.00729446 -1.36596 0)
(-0.151534 -1.08194 0)
(0.303472 -1.2147 0)
(0.133789 -1.32143 0)
(0.0676535 -1.20968 0)
(0.0549941 -1.1685 0)
(0.0200839 -1.15674 0)
(-0.0200866 -1.15674 0)
(-0.0549962 -1.1685 0)
(-0.0676559 -1.20968 0)
(-0.133793 -1.32143 0)
(-0.303472 -1.21469 0)
(-0.286703 -0.0997193 0)
(-0.223801 -0.102281 0)
(-0.159816 -0.104489 0)
(-0.0951768 -0.106215 0)
(-0.0302975 -0.107235 0)
(0.0345822 -0.107175 0)
(0.099425 -0.106048 0)
(0.163974 -0.104237 0)
(0.227817 -0.101953 0)
(0.290529 -0.099323 0)
(-0.233052 -0.183134 0)
(-0.182525 -0.187601 0)
(-0.130776 -0.190834 0)
(-0.0781079 -0.19293 0)
(-0.0248074 -0.193934 0)
(0.0287284 -0.193859 0)
(0.0819857 -0.192707 0)
(0.134577 -0.190467 0)
(0.18622 -0.187096 0)
(0.236612 -0.1825 0)
(-0.191965 -0.267408 0)
(-0.150249 -0.274185 0)
(-0.107519 -0.279045 0)
(-0.0640609 -0.282153 0)
(-0.0201635 -0.283625 0)
(0.0238763 -0.283527 0)
(0.0677496 -0.281861 0)
(0.11116 -0.278561 0)
(0.153821 -0.273515 0)
(0.195444 -0.26656 0)
(-0.159192 -0.34278 0)
(-0.124465 -0.351724 0)
(-0.088934 -0.358173 0)
(-0.0528425 -0.362321 0)
(-0.0164208 -0.364303 0)
(0.0201063 -0.364186 0)
(0.056515 -0.361973 0)
(0.0925797 -0.357594 0)
(0.128069 -0.350919 0)
(0.16274 -0.341755 0)
(-0.13137 -0.405087 0)
(-0.102557 -0.415647 0)
(-0.0731456 -0.423283 0)
(-0.043313 -0.428212 0)
(-0.0132308 -0.430577 0)
(0.0169332 -0.430453 0)
(0.0470114 -0.427838 0)
(0.0768355 -0.42266 0)
(0.106233 -0.414775 0)
(0.135025 -0.403968 0)
(-0.107745 -0.456614 0)
(-0.0839593 -0.468347 0)
(-0.0597504 -0.476848 0)
(-0.035241 -0.482348 0)
(-0.0105512 -0.484998 0)
(0.014199 -0.484873 0)
(0.0388893 -0.481974 0)
(0.0633991 -0.476225 0)
(0.0876084 -0.467473 0)
(0.111394 -0.455486 0)
(-0.0886442 -0.49916 0)
(-0.0689171 -0.511686 0)
(-0.0489266 -0.520782 0)
(-0.0287456 -0.526679 0)
(-0.00844998 -0.529529 0)
(0.0118827 -0.529404 0)
(0.0321713 -0.526304 0)
(0.0523377 -0.520155 0)
(0.0723059 -0.510805 0)
(0.0920013 -0.498019 0)
(-0.0749163 -0.534921 0)
(-0.0580283 -0.547832 0)
(-0.0410654 -0.557241 0)
(-0.0240455 -0.563355 0)
(-0.00699193 -0.56631 0)
(0.0100667 -0.566171 0)
(0.0270984 -0.562937 0)
(0.0440733 -0.556541 0)
(0.0609682 -0.546844 0)
(0.0777629 -0.533637 0)
(-0.0668511 -0.566793 0)
(-0.0514755 -0.579506 0)
(-0.0362645 -0.588823 0)
(-0.0211681 -0.594893 0)
(-0.00614119 -0.597818 0)
(0.00885485 -0.597649 0)
(0.0238534 -0.594384 0)
(0.0388937 -0.58797 0)
(0.0540175 -0.578305 0)
(0.0692796 -0.565244 0)
(-0.0629223 -0.597146 0)
(-0.0481901 -0.609085 0)
(-0.033812 -0.61788 0)
(-0.0196862 -0.623628 0)
(-0.00571239 -0.626389 0)
(0.00820658 -0.626196 0)
(0.0221694 -0.623046 0)
(0.0362727 -0.616908 0)
(0.050621 -0.607721 0)
(0.0653183 -0.595402 0)
(-0.0611394 -0.627019 0)
(-0.046684 -0.637846 0)
(-0.0326885 -0.645858 0)
(-0.0190091 -0.651103 0)
(-0.00552314 -0.653622 0)
(0.00790312 -0.65343 0)
(0.0214027 -0.65053 0)
(0.035111 -0.644904 0)
(0.0491519 -0.636519 0)
(0.0636712 -0.625325 0)
(-0.0598825 -0.656501 0)
(-0.0456814 -0.666132 0)
(-0.0319907 -0.673273 0)
(-0.0186214 -0.677961 0)
(-0.00544515 -0.680214 0)
(0.0076724 -0.680047 0)
(0.0208739 -0.677459 0)
(0.0342921 -0.672439 0)
(0.048054 -0.664962 0)
(0.0623471 -0.654979 0)
(-0.0584194 -0.685297 0)
(-0.0445502 -0.693767 0)
(-0.0312498 -0.700061 0)
(-0.0182483 -0.704204 0)
(-0.00542359 -0.706203 0)
(0.00734799 -0.706061 0)
(0.0201915 -0.703774 0)
(0.0332247 -0.699334 0)
(0.0465647 -0.692723 0)
(0.0604973 -0.683888 0)
(-0.0566237 -0.713113 0)
(-0.0431987 -0.720477 0)
(-0.0303821 -0.725987 0)
(-0.0178389 -0.729634 0)
(-0.005444 -0.7314 0)
(0.00690358 -0.731273 0)
(0.0193109 -0.729246 0)
(0.0318737 -0.725314 0)
(0.0447149 -0.719477 0)
(0.0581951 -0.711719 0)
(-0.054775 -0.739725 0)
(-0.0418331 -0.746113 0)
(-0.0295178 -0.750932 0)
(-0.0174595 -0.754138 0)
(-0.00553439 -0.755694 0)
(0.00634912 -0.75558 0)
(0.0182826 -0.753783 0)
(0.0303541 -0.750305 0)
(0.0426956 -0.74516 0)
(0.0557038 -0.738368 0)
(-0.0528067 -0.765095 0)
(-0.0403875 -0.770663 0)
(-0.0285973 -0.774863 0)
(-0.0170675 -0.777659 0)
(-0.00566157 -0.779014 0)
(0.00570001 -0.778905 0)
(0.0171035 -0.777319 0)
(0.0286301 -0.774259 0)
(0.0404314 -0.76973 0)
(0.0529052 -0.763733 0)
(-0.0504714 -0.78917 0)
(-0.0386638 -0.794016 0)
(-0.0274795 -0.797654 0)
(-0.0165541 -0.800062 0)
(-0.00574642 -0.801218 0)
(0.00502238 -0.8011 0)
(0.0158218 -0.7997 0)
(0.0267343 -0.797016 0)
(0.0379317 -0.793052 0)
(0.0498238 -0.78779 0)
(-0.0476221 -0.811682 0)
(-0.0365942 -0.815942 0)
(-0.0261086 -0.819104 0)
(-0.0158677 -0.821185 0)
(-0.00571406 -0.822172 0)
(0.00441387 -0.822054 0)
(0.0145793 -0.820827 0)
(0.0248545 -0.818491 0)
(0.0354306 -0.815051 0)
(0.0466708 -0.810514 0)
(-0.0445041 -0.832394 0)
(-0.0343079 -0.836235 0)
(-0.0245813 -0.839069 0)
(-0.0150591 -0.840915 0)
(-0.00559999 -0.841793 0)
(0.00385631 -0.841704 0)
(0.01335 -0.840649 0)
(0.02295 -0.838629 0)
(0.0328342 -0.835642 0)
(0.043294 -0.831679 0)
(-0.0414241 -0.851329 0)
(-0.0320089 -0.854907 0)
(-0.0230227 -0.857507 0)
(-0.0142228 -0.859203 0)
(-0.00546256 -0.860021 0)
(0.00330281 -0.859976 0)
(0.0121043 -0.859072 0)
(0.0209926 -0.857304 0)
(0.030138 -0.854655 0)
(0.039767 -0.851088 0)
(-0.0386345 -0.868799 0)
(-0.0298916 -0.872101 0)
(-0.0215718 -0.874513 0)
(-0.0134418 -0.876091 0)
(-0.00534564 -0.876871 0)
(0.00276016 -0.876868 0)
(0.0108933 -0.876083 0)
(0.0191029 -0.874509 0)
(0.0275505 -0.872112 0)
(0.0364449 -0.868842 0)
(-0.0361959 -0.885032 0)
(-0.0280405 -0.888031 0)
(-0.0203021 -0.890245 0)
(-0.012763 -0.891711 0)
(-0.00526147 -0.892456 0)
(0.00224804 -0.892489 0)
(0.009783 -0.89181 0)
(0.0173896 -0.890403 0)
(0.0252416 -0.888242 0)
(0.0335223 -0.885277 0)
(-0.0340099 -0.900141 0)
(-0.0264118 -0.902845 0)
(-0.019191 -0.904862 0)
(-0.0121735 -0.906218 0)
(-0.00519616 -0.906925 0)
(0.00178844 -0.906991 0)
(0.0087959 -0.90641 0)
(0.0158794 -0.905172 0)
(0.0232117 -0.903246 0)
(0.0309376 -0.900602 0)
(-0.0320391 -0.914152 0)
(-0.0249523 -0.916622 0)
(-0.018193 -0.91848 0)
(-0.0116333 -0.919737 0)
(-0.00511274 -0.920413 0)
(0.00141493 -0.920508 0)
(0.00796387 -0.920023 0)
(0.0145889 -0.918943 0)
(0.0214608 -0.917256 0)
(0.0286261 -0.914935 0)
(-0.030303 -0.927281 0)
(-0.0236901 -0.929528 0)
(-0.0173111 -0.931235 0)
(-0.0111279 -0.932412 0)
(-0.0049847 -0.93306 0)
(0.00116549 -0.933184 0)
(0.00733431 -0.932778 0)
(0.0135734 -0.93184 0)
(0.0200427 -0.930351 0)
(0.0267366 -0.928297 0)
(-0.0288224 -0.939655 0)
(-0.02261 -0.941711 0)
(-0.0165377 -0.943301 0)
(-0.0106472 -0.944411 0)
(-0.00479351 -0.945043 0)
(0.00106941 -0.945188 0)
(0.00694899 -0.94485 0)
(0.0128938 -0.94402 0)
(0.0190634 -0.942696 0)
(0.0253963 -0.940879 0)
(-0.0275083 -0.951327 0)
(-0.0216405 -0.95329 0)
(-0.0158136 -0.954817 0)
(-0.0101464 -0.955901 0)
(-0.00450251 -0.956531 0)
(0.00115676 -0.956709 0)
(0.00683449 -0.956428 0)
(0.012579 -0.955698 0)
(0.0185354 -0.954523 0)
(0.0245626 -0.95294 0)
(-0.0264461 -0.962472 0)
(-0.0208259 -0.964405 0)
(-0.0151673 -0.965932 0)
(-0.00964523 -0.967027 0)
(-0.00413849 -0.967688 0)
(0.00139016 -0.967902 0)
(0.00693505 -0.967678 0)
(0.0125363 -0.967014 0)
(0.0183234 -0.965934 0)
(0.0240693 -0.964458 0)
(-0.025629 -0.973266 0)
(-0.020187 -0.975229 0)
(-0.0146221 -0.976796 0)
(-0.00917944 -0.977941 0)
(-0.00374511 -0.978642 0)
(0.00170957 -0.978897 0)
(0.00717667 -0.978699 0)
(0.0126832 -0.978059 0)
(0.0183433 -0.976983 0)
(0.0238683 -0.9755 0)
(-0.0250579 -0.98384 0)
(-0.0197235 -0.985897 0)
(-0.0141886 -0.987549 0)
(-0.0087681 -0.988757 0)
(-0.00335941 -0.989508 0)
(0.00206736 -0.989788 0)
(0.00749629 -0.989596 0)
(0.0129592 -0.988929 0)
(0.0185495 -0.987796 0)
(0.0239348 -0.986204 0)
(-0.0246771 -0.994284 0)
(-0.0193798 -0.996514 0)
(-0.0138267 -0.998273 0)
(-0.00839837 -0.999556 0)
(-0.00299352 -1.00035 0)
(0.00241967 -1.00065 0)
(0.00783162 -1.00044 0)
(0.0132722 -0.999726 0)
(0.018845 -0.998503 0)
(0.0241553 -0.99677 0)
(-0.0244436 -1.00496 0)
(-0.0191092 -1.00726 0)
(-0.013493 -1.00907 0)
(-0.00804299 -1.01038 0)
(-0.00264364 -1.01119 0)
(0.00274984 -1.01148 0)
(0.00813522 -1.01125 0)
(0.0135573 -1.0105 0)
(0.0191274 -1.00921 0)
(0.0244131 -1.00738 0)
(-0.0238792 -1.0158 0)
(-0.0185936 -1.01809 0)
(-0.0129974 -1.01989 0)
(-0.00758577 -1.02119 0)
(-0.00224225 -1.02197 0)
(0.00308581 -1.02224 0)
(0.00840358 -1.02199 0)
(0.0137644 -1.02121 0)
(0.0192906 -1.0199 0)
(0.0244989 -1.01806 0)
(-0.0230305 -1.02654 0)
(-0.0178702 -1.0288 0)
(-0.0123564 -1.03057 0)
(-0.00703129 -1.03182 0)
(-0.00177914 -1.03258 0)
(0.00345379 -1.03282 0)
(0.00867629 -1.03254 0)
(0.0139438 -1.03175 0)
(0.0193758 -1.03045 0)
(0.0244368 -1.02863 0)
(-0.022212 -1.03708 0)
(-0.0171822 -1.03931 0)
(-0.0117375 -1.04104 0)
(-0.00647854 -1.04226 0)
(-0.00129806 -1.04298 0)
(0.00386187 -1.04319 0)
(0.00901173 -1.04289 0)
(0.0142126 -1.04207 0)
(0.0195812 -1.04073 0)
(0.0245032 -1.03885 0)
(-0.0217796 -1.04753 0)
(-0.0168056 -1.04975 0)
(-0.0113165 -1.05145 0)
(-0.00603271 -1.05263 0)
(-0.000843927 -1.05331 0)
(0.00432001 -1.05349 0)
(0.00948251 -1.05318 0)
(0.0147232 -1.05236 0)
(0.0201727 -1.05104 0)
(0.0251032 -1.04919 0)
(-0.0217067 -1.05822 0)
(-0.0167074 -1.06038 0)
(-0.0110797 -1.062 0)
(-0.00570437 -1.06311 0)
(-0.00045377 -1.06374 0)
(0.0047642 -1.06389 0)
(0.0099833 -1.06358 0)
(0.0152989 -1.0628 0)
(0.0208443 -1.06155 0)
(0.0257525 -1.05983 0)
(-0.0216117 -1.06922 0)
(-0.0166428 -1.07121 0)
(-0.0109038 -1.07271 0)
(-0.00543733 -1.07372 0)
(-0.000108788 -1.07429 0)
(0.0051864 -1.07441 0)
(0.0104847 -1.0741 0)
(0.0158905 -1.07336 0)
(0.0215356 -1.07218 0)
(0.0264072 -1.07056 0)
(-0.021944 -1.08053 0)
(-0.016924 -1.08229 0)
(-0.0109956 -1.08364 0)
(-0.00536226 -1.08456 0)
(0.000110297 -1.08507 0)
(0.00553887 -1.08515 0)
(0.0109632 -1.08483 0)
(0.0164957 -1.08412 0)
(0.0222647 -1.08302 0)
(0.0271072 -1.08157 0)
(-0.0221858 -1.09216 0)
(-0.0171759 -1.09369 0)
(-0.011123 -1.0949 0)
(-0.00533655 -1.09573 0)
(0.000282723 -1.09616 0)
(0.00584895 -1.09618 0)
(0.0114016 -1.09582 0)
(0.01705 -1.09509 0)
(0.0228924 -1.09401 0)
(0.0276599 -1.09266 0)
(-0.0222382 -1.10372 0)
(-0.01725 -1.10523 0)
(-0.0111544 -1.10639 0)
(-0.00525723 -1.10714 0)
(0.0004734 -1.1075 0)
(0.00614535 -1.10745 0)
(0.0117956 -1.10701 0)
(0.0175276 -1.10621 0)
(0.023368 -1.10506 0)
(0.0280737 -1.10362 0)
(-0.0221295 -1.11526 0)
(-0.0171892 -1.11684 0)
(-0.0110654 -1.118 0)
(-0.00509205 -1.11872 0)
(0.00071728 -1.11901 0)
(0.00646177 -1.11887 0)
(0.0121749 -1.11833 0)
(0.0179504 -1.11739 0)
(0.0237644 -1.11609 0)
(0.0283643 -1.11443 0)
(-0.0220084 -1.12679 0)
(-0.0170874 -1.12851 0)
(-0.0109214 -1.12972 0)
(-0.00486632 -1.13043 0)
(0.0010211 -1.13065 0)
(0.00683762 -1.13041 0)
(0.0126144 -1.12972 0)
(0.0184384 -1.12859 0)
(0.0242348 -1.12706 0)
(0.0287482 -1.12512 0)
(-0.0219991 -1.13846 0)
(-0.0170624 -1.14033 0)
(-0.0108176 -1.14159 0)
(-0.00464792 -1.1423 0)
(0.00135035 -1.14246 0)
(0.00727457 -1.1421 0)
(0.0131553 -1.14123 0)
(0.0190742 -1.13987 0)
(0.0248958 -1.13805 0)
(0.0293588 -1.13573 0)
(-0.0222341 -1.15034 0)
(-0.017249 -1.15236 0)
(-0.0108831 -1.15369 0)
(-0.00454813 -1.15442 0)
(0.00161739 -1.15454 0)
(0.00771346 -1.15406 0)
(0.0137706 -1.15298 0)
(0.0198597 -1.15134 0)
(0.0257717 -1.14917 0)
(0.0302334 -1.14636 0)
(-0.0228662 -1.16251 0)
(-0.0178098 -1.1647 0)
(-0.0112829 -1.16614 0)
(-0.00472486 -1.16692 0)
(0.00167829 -1.16702 0)
(0.00802912 -1.16644 0)
(0.0143588 -1.16516 0)
(0.0207273 -1.16319 0)
(0.0268288 -1.16056 0)
(0.031366 -1.15712 0)
(-0.0240684 -1.17498 0)
(-0.0189275 -1.17741 0)
(-0.0122052 -1.17902 0)
(-0.00536445 -1.17993 0)
(0.00134964 -1.18008 0)
(0.00804207 -1.17944 0)
(0.0147493 -1.17797 0)
(0.0215283 -1.17566 0)
(0.0279565 -1.1725 0)
(0.0326782 -1.16818 0)
(-0.0259792 -1.18775 0)
(-0.0207437 -1.19055 0)
(-0.0137956 -1.19244 0)
(-0.00661814 -1.19357 0)
(0.000466753 -1.19386 0)
(0.00756677 -1.19324 0)
(0.0147342 -1.19165 0)
(0.022042 -1.18903 0)
(0.0289419 -1.18531 0)
(0.0339731 -1.17993 0)
(-0.0286086 -1.20078 0)
(-0.0232618 -1.20418 0)
(-0.0160582 -1.20649 0)
(-0.00850317 -1.20795 0)
(-0.00101657 -1.20846 0)
(0.00651491 -1.20795 0)
(0.0141746 -1.20633 0)
(0.0220792 -1.20351 0)
(0.0295477 -1.19935 0)
(0.0349805 -1.19302 0)
(-0.0317956 -1.21416 0)
(-0.0263041 -1.2184 0)
(-0.0188083 -1.22124 0)
(-0.0108507 -1.2231 0)
(-0.00296907 -1.2239 0)
(0.0049652 -1.22358 0)
(0.013082 -1.22205 0)
(0.0215635 -1.2192 0)
(0.0295835 -1.21487 0)
(0.0354264 -1.20804 0)
(-0.0351741 -1.22812 0)
(-0.0294986 -1.23334 0)
(-0.0216819 -1.23674 0)
(-0.0133289 -1.239 0)
(-0.00510925 -1.24009 0)
(0.00313686 -1.23998 0)
(0.0115928 -1.23862 0)
(0.0205006 -1.23592 0)
(0.0288781 -1.23174 0)
(0.0350073 -1.22501 0)
(-0.0382141 -1.24308 0)
(-0.0323554 -1.24915 0)
(-0.0242397 -1.25297 0)
(-0.0155449 -1.25551 0)
(-0.00708508 -1.25682 0)
(0.00134766 -1.2569 0)
(0.0099854 -1.25572 0)
(0.0190988 -1.25325 0)
(0.0275483 -1.24942 0)
(0.0337914 -1.24325 0)
(-0.0404404 -1.25951 0)
(-0.0344529 -1.26586 0)
(-0.0261514 -1.2698 0)
(-0.0172206 -1.27244 0)
(-0.00863554 -1.27384 0)
(-0.00014227 -1.27402 0)
(0.00852803 -1.27297 0)
(0.0176415 -1.27069 0)
(0.0259158 -1.26717 0)
(0.0321008 -1.26143 0)
(-0.0414466 -1.27716 0)
(-0.035443 -1.28319 0)
(-0.0271913 -1.28697 0)
(-0.0181934 -1.28954 0)
(-0.00960383 -1.29091 0)
(-0.00115698 -1.29109 0)
(0.00743516 -1.2901 0)
(0.0164229 -1.28791 0)
(0.0244044 -1.28455 0)
(0.030408 -1.27888 0)
(-0.0411352 -1.29444 0)
(-0.0352177 -1.30038 0)
(-0.0272465 -1.30402 0)
(-0.0183621 -1.3065 0)
(-0.00988137 -1.3078 0)
(-0.00155906 -1.30794 0)
(0.00689743 -1.30693 0)
(0.0157226 -1.30477 0)
(0.0234096 -1.30147 0)
(0.029199 -1.29575 0)
(-0.0398239 -1.31109 0)
(-0.034132 -1.31708 0)
(-0.0265367 -1.32068 0)
(-0.0178614 -1.32311 0)
(-0.00955129 -1.32437 0)
(-0.00138674 -1.32448 0)
(0.0069235 -1.32345 0)
(0.0155929 -1.3213 0)
(0.0230084 -1.31808 0)
(0.0286219 -1.31235 0)
(-0.0382853 -1.32716 0)
(-0.0328276 -1.33327 0)
(-0.0255696 -1.33688 0)
(-0.0170754 -1.33933 0)
(-0.00891487 -1.3406 0)
(-0.00089312 -1.3407 0)
(0.0072791 -1.33966 0)
(0.0157891 -1.3375 0)
(0.0229331 -1.33429 0)
(0.028361 -1.32846 0)
(-0.0368195 -1.34255 0)
(-0.0315387 -1.34903 0)
(-0.0245541 -1.35274 0)
(-0.0161902 -1.35525 0)
(-0.00814351 -1.35655 0)
(-0.00024188 -1.35665 0)
(0.00780345 -1.35558 0)
(0.016137 -1.35337 0)
(0.023038 -1.35009 0)
(0.0282752 -1.34408 0)
(-0.0354356 -1.35772 0)
(-0.0302895 -1.36453 0)
(-0.0235038 -1.36837 0)
(-0.0152442 -1.37095 0)
(-0.00728464 -1.37227 0)
(0.000521948 -1.37235 0)
(0.00847047 -1.37123 0)
(0.0166579 -1.36893 0)
(0.0233727 -1.36549 0)
(0.0284636 -1.359 0)
(-0.0342646 -1.37282 0)
(-0.0291686 -1.37996 0)
(-0.0224971 -1.38389 0)
(-0.0143336 -1.3865 0)
(-0.00643226 -1.38782 0)
(0.00130635 -1.38788 0)
(0.00919276 -1.38671 0)
(0.017296 -1.3843 0)
(0.0238711 -1.38066 0)
(0.0288395 -1.37358 0)
(-0.0331547 -1.38782 0)
(-0.0281631 -1.39532 0)
(-0.0216126 -1.3993 0)
(-0.0135158 -1.40192 0)
(-0.00566558 -1.40324 0)
(0.00201352 -1.40329 0)
(0.00985776 -1.40208 0)
(0.0179189 -1.39959 0)
(0.0244049 -1.39577 0)
(0.0293077 -1.38812 0)
(-0.0321349 -1.40293 0)
(-0.0272466 -1.41064 0)
(-0.020819 -1.41463 0)
(-0.0127969 -1.41722 0)
(-0.00501661 -1.41852 0)
(0.00258055 -1.41857 0)
(0.0103669 -1.41736 0)
(0.0183864 -1.41489 0)
(0.0247913 -1.41103 0)
(0.0296425 -1.40319 0)
(-0.0311362 -1.4187 0)
(-0.0263408 -1.42608 0)
(-0.0200654 -1.42989 0)
(-0.0121664 -1.43236 0)
(-0.00450431 -1.43362 0)
(0.00296289 -1.43367 0)
(0.0106361 -1.43253 0)
(0.0185436 -1.43019 0)
(0.0248101 -1.42655 0)
(0.0296018 -1.41927 0)
(-0.0298048 -1.43462 0)
(-0.0251811 -1.44138 0)
(-0.0191675 -1.44489 0)
(-0.0115313 -1.44718 0)
(-0.00410063 -1.44835 0)
(0.00312856 -1.44841 0)
(0.0105608 -1.44736 0)
(0.0181863 -1.4452 0)
(0.0241713 -1.44185 0)
(0.0287539 -1.43528 0)
(-0.027948 -1.44973 0)
(-0.0236487 -1.456 0)
(-0.0180189 -1.45925 0)
(-0.010802 -1.46137 0)
(-0.00374414 -1.46246 0)
(0.00311661 -1.46251 0)
(0.0101682 -1.46153 0)
(0.0173585 -1.45951 0)
(0.0229487 -1.45637 0)
(0.0271954 -1.45019 0)
(-0.0258125 -1.46385 0)
(-0.0218781 -1.46972 0)
(-0.0166919 -1.47274 0)
(-0.00998761 -1.47471 0)
(-0.0034064 -1.47571 0)
(0.00298553 -1.47576 0)
(0.00955938 -1.47484 0)
(0.0162388 -1.47295 0)
(0.0213915 -1.46998 0)
(0.0252875 -1.46406 0)
(-0.0234247 -1.47709 0)
(-0.0198902 -1.48245 0)
(-0.0152008 -1.48521 0)
(-0.00909193 -1.487 0)
(-0.00307334 -1.48792 0)
(0.00276678 -1.48796 0)
(0.00877803 -1.48711 0)
(0.0148652 -1.48537 0)
(0.0195258 -1.48265 0)
(0.0230262 -1.47726 0)
(-0.0209197 -1.48911 0)
(-0.0177926 -1.49399 0)
(-0.0136215 -1.4965 0)
(-0.00815329 -1.49813 0)
(-0.00274514 -1.49897 0)
(0.00250036 -1.499 0)
(0.00790237 -1.49821 0)
(0.0133534 -1.49662 0)
(0.0175019 -1.49413 0)
(0.0206017 -1.48921 0)
(-0.0183265 -1.49977 0)
(-0.0156129 -1.50424 0)
(-0.0119752 -1.50653 0)
(-0.00717852 -1.50802 0)
(-0.00241555 -1.50879 0)
(0.00220248 -1.50881 0)
(0.00696079 -1.50809 0)
(0.0117446 -1.50663 0)
(0.0153656 -1.50435 0)
(0.0180592 -1.49983 0)
(-0.0156809 -1.50901 0)
(-0.0133805 -1.51315 0)
(-0.0102808 -1.51526 0)
(-0.00617271 -1.51662 0)
(-0.00208035 -1.51732 0)
(0.00188637 -1.51734 0)
(0.00597501 -1.51668 0)
(0.0100729 -1.51534 0)
(0.0131597 -1.51324 0)
(0.0154457 -1.50907 0)
(-0.0130236 -1.51691 0)
(-0.0111262 -1.52071 0)
(-0.00856219 -1.52265 0)
(-0.0051488 -1.5239 0)
(-0.00174106 -1.52454 0)
(0.00156025 -1.52456 0)
(0.00496488 -1.52394 0)
(0.00836971 -1.52271 0)
(0.0109239 -1.52078 0)
(0.0128101 -1.51696 0)
(-0.0103585 -1.52345 0)
(-0.00885609 -1.52691 0)
(-0.00682573 -1.52869 0)
(-0.00411315 -1.52984 0)
(-0.00139971 -1.53043 0)
(0.00122768 -1.53044 0)
(0.0039383 -1.52987 0)
(0.00664357 -1.52873 0)
(0.00866578 -1.52697 0)
(0.0101588 -1.52349 0)
(-0.00771062 -1.5285 0)
(-0.00659503 -1.5317 0)
(-0.00509245 -1.53335 0)
(-0.00307689 -1.53442 0)
(-0.00105824 -1.53497 0)
(0.000895229 -1.53498 0)
(0.00291144 -1.53445 0)
(0.00492107 -1.53339 0)
(0.00641708 -1.53175 0)
(0.00752527 -1.52853 0)
(-0.00509322 -1.53213 0)
(-0.00435218 -1.53511 0)
(-0.00336795 -1.53666 0)
(-0.00204319 -1.53766 0)
(-0.000716789 -1.53818 0)
(0.00056515 -1.53818 0)
(0.00188957 -1.53768 0)
(0.00320986 -1.53668 0)
(0.00418943 -1.53514 0)
(0.00492607 -1.53215 0)
(-0.00250068 -1.53437 0)
(-0.00213179 -1.53715 0)
(-0.00165999 -1.53861 0)
(-0.00101698 -1.53957 0)
(-0.000377162 -1.54006 0)
(0.00023829 -1.54006 0)
(0.000876518 -1.53958 0)
(0.00151634 -1.53864 0)
(0.00198493 -1.53718 0)
(0.00235 -1.53438 0)
(5.60041e-05 -1.53525 0)
(6.18854e-05 -1.53785 0)
(2.86343e-05 -1.53924 0)
(-1.90585e-06 -1.54015 0)
(-4.07454e-05 -1.54062 0)
(-8.45384e-05 -1.54062 0)
(-0.000124647 -1.54016 0)
(-0.000157311 -1.53926 0)
(-0.000192538 -1.53787 0)
(-0.000188732 -1.53526 0)
(0.0025816 -1.53478 0)
(0.00222789 -1.53722 0)
(0.00169584 -1.53856 0)
(0.000999955 -1.53944 0)
(0.000291347 -1.53989 0)
(-0.000403085 -1.53989 0)
(-0.00111275 -1.53944 0)
(-0.00180991 -1.53857 0)
(-0.00234279 -1.53723 0)
(-0.00269712 -1.53478 0)
(0.00507536 -1.53298 0)
(0.00436497 -1.53528 0)
(0.00333941 -1.53657 0)
(0.0019865 -1.53743 0)
(0.000618187 -1.53787 0)
(-0.00071725 -1.53787 0)
(-0.00208655 -1.53744 0)
(-0.00344019 -1.53658 0)
(-0.00446577 -1.53529 0)
(-0.00517573 -1.53298 0)
(0.00754186 -1.52987 0)
(0.00647473 -1.53205 0)
(0.00495908 -1.53332 0)
(0.0029568 -1.53416 0)
(0.000939328 -1.53459 0)
(-0.00102708 -1.53459 0)
(-0.00304558 -1.53417 0)
(-0.00504824 -1.53332 0)
(-0.00656331 -1.53205 0)
(-0.00762906 -1.52986 0)
(0.00998491 -1.52547 0)
(0.0085585 -1.52755 0)
(0.00655461 -1.52881 0)
(0.00391002 -1.52965 0)
(0.00125436 -1.53007 0)
(-0.00133262 -1.53007 0)
(-0.00398942 -1.52965 0)
(-0.00663426 -1.52881 0)
(-0.00863715 -1.52755 0)
(-0.0100615 -1.52546 0)
(0.0124058 -1.51982 0)
(0.0106159 -1.52181 0)
(0.00812427 -1.52306 0)
(0.00484443 -1.5239 0)
(0.00156256 -1.52433 0)
(-0.00163361 -1.52433 0)
(-0.00491678 -1.5239 0)
(-0.0081969 -1.52306 0)
(-0.0106873 -1.52181 0)
(-0.0124745 -1.5198 0)
(0.0148055 -1.51292 0)
(0.0126464 -1.51485 0)
(0.00966607 -1.5161 0)
(0.00575814 -1.51695 0)
(0.00186317 -1.51738 0)
(-0.00192974 -1.51738 0)
(-0.0058262 -1.51695 0)
(-0.00973454 -1.51609 0)
(-0.0127134 -1.51484 0)
(-0.0148695 -1.5129 0)
(0.0171842 -1.5048 0)
(0.014649 -1.50668 0)
(0.0111776 -1.50795 0)
(0.00664911 -1.50881 0)
(0.00215526 -1.50925 0)
(-0.00222073 -1.50925 0)
(-0.00671617 -1.50881 0)
(-0.0112452 -1.50794 0)
(-0.0147149 -1.50666 0)
(-0.0172468 -1.50477 0)
(0.0195429 -1.49549 0)
(0.0166235 -1.49733 0)
(0.0126571 -1.49863 0)
(0.00751561 -1.49952 0)
(0.00243799 -1.49997 0)
(-0.00250658 -1.49997 0)
(-0.00758577 -1.49951 0)
(-0.0127277 -1.49861 0)
(-0.0166921 -1.49731 0)
(-0.0196078 -1.49544 0)
(0.0218855 -1.48499 0)
(0.0185727 -1.48682 0)
(0.0141043 -1.48816 0)
(0.00835726 -1.48909 0)
(0.0027109 -1.48956 0)
(-0.00278776 -1.48956 0)
(-0.00843555 -1.48908 0)
(-0.0141827 -1.48814 0)
(-0.0186483 -1.48679 0)
(-0.0219569 -1.48493 0)
(0.0242208 -1.47331 0)
(0.0205042 -1.47517 0)
(0.0155235 -1.47657 0)
(0.00917617 -1.47755 0)
(0.00297469 -1.47805 0)
(-0.00306511 -1.47804 0)
(-0.00926783 -1.47754 0)
(-0.0156146 -1.47655 0)
(-0.0205917 -1.47513 0)
(-0.0243038 -1.47325 0)
(0.0265655 -1.46047 0)
(0.0224327 -1.46238 0)
(0.0169236 -1.46387 0)
(0.00997829 -1.46492 0)
(0.00323177 -1.46545 0)
(-0.0033397 -1.46545 0)
(-0.0100874 -1.46491 0)
(-0.017032 -1.46384 0)
(-0.0225371 -1.46234 0)
(-0.0266655 -1.46041 0)
(0.0289467 -1.44645 0)
(0.0243827 -1.44845 0)
(0.0183212 -1.45006 0)
(0.0107742 -1.45121 0)
(0.00348627 -1.45178 0)
(-0.00361389 -1.45178 0)
(-0.0109032 -1.45119 0)
(-0.0184503 -1.45003 0)
(-0.0245083 -1.44841 0)
(-0.029069 -1.4464 0)
(0.0314018 -1.43123 0)
(0.0263891 -1.43337 0)
(0.0197407 -1.43513 0)
(0.0115794 -1.4364 0)
(0.00374397 -1.43703 0)
(-0.00389211 -1.43703 0)
(-0.0117294 -1.43638 0)
(-0.0198922 -1.4351 0)
(-0.0265385 -1.43333 0)
(-0.0315495 -1.43119 0)
(0.0339777 -1.41479 0)
(0.0284966 -1.41711 0)
(0.0212141 -1.41906 0)
(0.0124153 -1.42047 0)
(0.0040127 -1.42118 0)
(-0.00418058 -1.42117 0)
(-0.0125855 -1.42045 0)
(-0.0213874 -1.41903 0)
(-0.0286693 -1.41706 0)
(-0.0341498 -1.41473 0)
(0.0367172 -1.39709 0)
(0.0307515 -1.39963 0)
(0.0227756 -1.4018 0)
(0.0133051 -1.40336 0)
(0.00430166 -1.40415 0)
(-0.00448451 -1.40414 0)
(-0.0134907 -1.40333 0)
(-0.0229654 -1.40175 0)
(-0.0309418 -1.39956 0)
(-0.0369079 -1.397 0)
(0.0396372 -1.37809 0)
(0.0331761 -1.38087 0)
(0.0244382 -1.38326 0)
(0.0142579 -1.38499 0)
(0.0046153 -1.38587 0)
(-0.00480236 -1.38586 0)
(-0.0144481 -1.38496 0)
(-0.0246336 -1.3832 0)
(-0.0333731 -1.38079 0)
(-0.0398357 -1.37799 0)
(0.0426588 -1.35785 0)
(0.0357065 -1.3608 0)
(0.0261406 -1.36337 0)
(0.0152268 -1.36527 0)
(0.00493646 -1.36625 0)
(-0.00511245 -1.36624 0)
(-0.0154065 -1.36523 0)
(-0.0263265 -1.3633 0)
(-0.0358957 -1.3607 0)
(-0.0428508 -1.35774 0)
(0.04551 -1.33645 0)
(0.038078 -1.33939 0)
(0.0276334 -1.3421 0)
(0.0160352 -1.34422 0)
(0.00519902 -1.34538 0)
(-0.00534949 -1.34536 0)
(-0.0161899 -1.34416 0)
(-0.0277953 -1.34201 0)
(-0.038245 -1.33929 0)
(-0.0456813 -1.33633 0)
(0.0475204 -1.31395 0)
(0.0396603 -1.31663 0)
(0.0283888 -1.31949 0)
(0.0163315 -1.32207 0)
(0.00528178 -1.32362 0)
(-0.00539947 -1.3236 0)
(-0.0164529 -1.32201 0)
(-0.0285167 -1.31939 0)
(-0.0397938 -1.31651 0)
(-0.0476587 -1.31382 0)
(0.0476265 -1.2902 0)
(0.0394273 -1.29255 0)
(0.0275988 -1.29602 0)
(0.0157334 -1.29966 0)
(0.00510416 -1.30199 0)
(-0.00519224 -1.30197 0)
(-0.0158228 -1.29958 0)
(-0.0276899 -1.29591 0)
(-0.0395206 -1.29241 0)
(-0.0477224 -1.29007 0)
(0.0442432 -1.26466 0)
(0.0360279 -1.26767 0)
(0.0244626 -1.27345 0)
(0.0142689 -1.27909 0)
(0.00485394 -1.28207 0)
(-0.00492296 -1.28205 0)
(-0.0143354 -1.27902 0)
(-0.0245213 -1.27334 0)
(-0.0360804 -1.26753 0)
(-0.0442924 -1.26452 0)
(0.0351254 -1.23477 0)
(0.0281084 -1.24328 0)
(0.0193505 -1.25563 0)
(0.012931 -1.26308 0)
(0.00512636 -1.26369 0)
(-0.00518552 -1.26367 0)
(-0.0129849 -1.26303 0)
(-0.0193877 -1.25554 0)
(-0.0281293 -1.24316 0)
(-0.0351353 -1.23464 0)
(0.0209228 -1.19075 0)
(0.0153658 -1.2233 0)
(0.0159422 -1.24786 0)
(0.01225 -1.25038 0)
(0.00590775 -1.24424 0)
(-0.00595672 -1.24423 0)
(-0.0122947 -1.25035 0)
(-0.015969 -1.24781 0)
(-0.0153734 -1.22322 0)
(-0.0209189 -1.19066 0)
(0.0131813 -1.10154 0)
(-0.00648998 -1.23595 0)
(0.0177241 -1.25591 0)
(0.00659872 -1.23508 0)
(0.00444015 -1.22825 0)
(-0.00447156 -1.22825 0)
(-0.00663277 -1.23507 0)
(-0.0177436 -1.2559 0)
(0.00648234 -1.2359 0)
(-0.0131805 -1.10151 0)
(0.355162 -0.0961682 0)
(0.420737 -0.0918399 0)
(0.482895 -0.0863601 0)
(0.540787 -0.0797373 0)
(0.593408 -0.0719359 0)
(0.63972 -0.062906 0)
(0.6787 -0.0526467 0)
(0.709403 -0.0412314 0)
(0.731025 -0.0287817 0)
(0.743224 -0.0154367 0)
(0.745497 -0.0015863 0)
(0.737193 0.0118207 0)
(0.720141 0.0237824 0)
(0.69588 0.0336691 0)
(0.665794 0.0412971 0)
(0.63129 0.0467816 0)
(0.59372 0.0503759 0)
(0.554257 0.0523852 0)
(0.513867 0.0531244 0)
(0.473317 0.0528934 0)
(0.433189 0.0519626 0)
(0.393907 0.0505643 0)
(0.355749 0.0488905 0)
(0.318879 0.0470931 0)
(0.283371 0.0452858 0)
(0.249228 0.0435484 0)
(0.21641 0.0419309 0)
(0.184851 0.0404557 0)
(0.154479 0.0391195 0)
(0.125235 0.037892 0)
(0.0970927 0.0367166 0)
(0.0700237 0.035515 0)
(0.0439868 0.034153 0)
(0.0203933 0.0323152 0)
(-0.00165742 0.0312777 0)
(-0.0230854 0.0241616 0)
(-0.0390575 0.0165295 0)
(-0.0484901 -0.000518118 0)
(-0.0442838 -0.0328714 0)
(-0.0204546 -0.0523406 0)
(0.288542 -0.176175 0)
(0.341106 -0.167548 0)
(0.39042 -0.15674 0)
(0.435767 -0.143537 0)
(0.476413 -0.127786 0)
(0.511596 -0.109457 0)
(0.540607 -0.0887219 0)
(0.562895 -0.0659885 0)
(0.578162 -0.0418883 0)
(0.586437 -0.0172247 0)
(0.58832 0.00697511 0)
(0.584736 0.0294632 0)
(0.57602 0.0492115 0)
(0.562713 0.0657183 0)
(0.545415 0.0788797 0)
(0.524748 0.0888309 0)
(0.501342 0.0958467 0)
(0.47581 0.100287 0)
(0.448728 0.102556 0)
(0.420618 0.103063 0)
(0.391937 0.102204 0)
(0.363071 0.100337 0)
(0.334335 0.0977773 0)
(0.305974 0.0947857 0)
(0.278175 0.0915705 0)
(0.251072 0.0882862 0)
(0.224758 0.0850347 0)
(0.199301 0.0818668 0)