/*--------------------------------*- C++ -*----------------------------------*\
  =========                 |
  \\      /  F ield         | OpenFOAM: The Open Source CFD Toolbox
   \\    /   O peration     | Website:  https://openfoam.org
    \\  /    A nd           | Version:  8
     \\/     M anipulation  |
\*---------------------------------------------------------------------------*/
FoamFile
{
    version     2.0;
    format      ascii;
    class       surfaceScalarField;
    location    "4.15";
    object      alphaPhi0.water;
}
// * * * * * * * * * * * * * * * * * * * * * * * * * * * * * * * * * * * * * //

dimensions      [0 3 -1 0 0 0 0];

internalField   nonuniform List<scalar> 
18095
(
1.954e-08
-1.71923e-07
1.52383e-07
2.31316e-08
-1.98126e-07
1.94534e-07
2.01263e-08
-2.05942e-07
2.08947e-07
1.12258e-08
-2.10681e-07
2.19582e-07
1.69925e-10
-2.13188e-07
2.24243e-07
-1.08234e-08
-2.13469e-07
2.24462e-07
-1.98572e-08
-2.10736e-07
2.19769e-07
-2.30604e-08
-2.05882e-07
2.09085e-07
-1.95364e-08
-1.98102e-07
1.94578e-07
-1.71952e-07
1.52416e-07
1.55671e-08
-1.8749e-07
1.58104e-08
-1.98369e-07
1.20064e-08
-2.02138e-07
6.52238e-09
-2.05197e-07
3.67211e-10
-2.07033e-07
-6.26549e-09
-2.06836e-07
-1.19832e-08
-2.05018e-07
-1.57914e-08
-2.02074e-07
-1.554e-08
-1.98354e-07
-1.87492e-07
6.85922e-09
-1.94349e-07
8.32205e-09
-1.99832e-07
7.19312e-09
-2.01009e-07
3.87088e-09
-2.01875e-07
-3.71949e-10
-2.0279e-07
-4.42738e-09
-2.02781e-07
-7.23937e-09
-2.02206e-07
-8.30221e-09
-2.01011e-07
-6.85147e-09
-1.99805e-07
-1.94344e-07
4.55966e-09
-1.98909e-07
4.69422e-09
-1.99967e-07
3.67002e-09
-1.99984e-07
2.16952e-09
-2.00374e-07
2.23765e-10
-2.00844e-07
-1.8127e-09
-2.00744e-07
-3.58963e-09
-2.00429e-07
-4.69329e-09
-1.99907e-07
-4.56282e-09
-1.99935e-07
-1.98907e-07
1.09117e-09
1.12448e-09
1.14007e-09
7.65807e-10
-7.81252e-11
-8.22419e-10
-1.25134e-09
-1.1584e-09
-1.09337e-09
-2.61355e-08
-1.97201e-07
2.23337e-07
-2.88114e-08
-1.9872e-07
2.01396e-07
-2.49717e-08
-2.01268e-07
1.97429e-07
-1.44675e-08
-2.01587e-07
1.91083e-07
-1.20507e-09
-2.01887e-07
1.88625e-07
1.23323e-08
-2.01649e-07
1.88112e-07
2.36347e-08
-2.00915e-07
1.89612e-07
2.842e-08
-2.01271e-07
1.96486e-07
2.58578e-08
-1.98536e-07
2.01098e-07
-1.96965e-07
2.22823e-07
-9.97639e-09
-1.87225e-07
-1.53073e-08
-1.93389e-07
-1.41539e-08
-2.02422e-07
-8.24798e-09
-2.07493e-07
-1.85708e-09
-2.08278e-07
5.32719e-09
-2.08834e-07
1.33372e-08
-2.08925e-07
1.51431e-08
-2.03077e-07
9.92056e-09
-1.93313e-07
-1.87045e-07
-1.08522e-08
-1.76373e-07
-8.87311e-09
-1.95368e-07
-6.32472e-09
-2.0497e-07
-3.83401e-09
-2.09984e-07
9.11065e-10
-2.13023e-07
5.37213e-09
-2.13295e-07
6.79189e-09
-2.10344e-07
8.70239e-09
-2.04987e-07
1.07231e-08
-1.95334e-07
-1.76322e-07
-6.83486e-09
-1.69538e-07
-8.76634e-09
-1.93437e-07
-8.19183e-09
-2.05545e-07
-2.8422e-09
-2.15333e-07
9.26788e-10
-2.16792e-07
4.0993e-09
-2.16467e-07
8.425e-09
-2.1467e-07
8.83036e-09
-2.05393e-07
6.84775e-09
-1.93351e-07
-1.69474e-07
-1.7155e-08
-1.60571e-08
-1.26549e-08
-8.40686e-09
-9.55651e-10
7.03952e-09
1.21388e-08
1.58308e-08
1.70581e-08
3.09904e-08
-1.57869e-07
1.26878e-07
3.68469e-08
-1.99524e-07
1.93667e-07
3.1783e-08
-2.11308e-07
2.16372e-07
2.04864e-08
-2.16555e-07
2.27851e-07
4.55402e-09
-2.17865e-07
2.33797e-07
-1.28244e-08
-2.17335e-07
2.34713e-07
-2.67375e-08
-2.15524e-07
2.29437e-07
-3.54077e-08
-2.09025e-07
2.17695e-07
-2.86518e-08
-1.98053e-07
1.91297e-07
-1.56943e-07
1.28291e-07
1.60251e-08
-1.73894e-07
1.80308e-08
-2.0153e-07
1.35958e-08
-2.06873e-07
5.19098e-09
-2.0815e-07
-4.00225e-09
-2.08671e-07
-1.25847e-08
-2.08753e-07
-1.81897e-08
-2.09919e-07
-2.00768e-08
-2.07137e-07
-1.67622e-08
-2.01368e-07
-1.73705e-07
1.0726e-08
-1.8462e-07
1.02558e-08
-2.01059e-07
9.04126e-09
-2.05659e-07
5.46747e-09
-2.04576e-07
1.48989e-09
-2.04694e-07
-2.83453e-09
-2.04428e-07
-8.11626e-09
-2.04638e-07
-9.95927e-09
-2.05294e-07
-1.0294e-08
-2.01033e-07
-1.83999e-07
7.85298e-09
-1.92473e-07
6.2901e-09
-1.99497e-07
6.33236e-09
-2.05701e-07
1.08043e-09
-1.99324e-07
-7.32832e-10
-2.0288e-07
-2.21292e-09
-2.02948e-07
-6.89866e-09
-1.99952e-07
-6.70388e-09
-2.05489e-07
-8.27888e-09
-1.99458e-07
-1.92278e-07
3.0864e-08
3.27632e-08
2.44906e-08
1.62494e-08
1.9938e-09
-1.28424e-08
-2.31821e-08
-3.21855e-08
-3.05455e-08
1.03584e-07
-6.28869e-10
-1.02965e-07
1.01761e-07
1.81808e-09
9.71587e-08
4.60201e-09
9.46179e-08
2.54084e-09
9.4555e-08
6.30316e-11
7.75742e-08
1.6981e-08
4.79642e-08
2.77599e-08
2.22033e-08
2.61609e-08
1.7785e-08
4.53691e-09
3.78095e-09
1.4004e-08
1.67522e-08
1.74237e-08
-3.48277e-08
1.88239e-09
1.66638e-08
9.30539e-10
5.36273e-09
1.62221e-08
-1.21509e-08
3.03911e-08
-1.53354e-08
3.76433e-08
8.95442e-09
5.00847e-08
1.48982e-08
6.64634e-08
9.3614e-09
6.23124e-08
8.2676e-09
2.29571e-08
4.51545e-08
-8.41556e-08
-1.6347e-10
1.07458e-07
-7.24976e-08
4.9818e-09
-5.35985e-08
-1.35604e-08
-2.7447e-08
-4.17785e-08
5.41567e-09
-5.06114e-08
4.78902e-08
-3.39473e-08
8.51585e-08
-2.31254e-08
1.05983e-07
-1.1982e-08
1.037e-07
1.05005e-08
4.8244e-08
7.86162e-08
-1.72672e-07
-3.70788e-08
2.09613e-07
-1.33909e-07
-3.28193e-08
-9.41006e-08
-5.3845e-08
-5.17662e-08
-8.41103e-08
-9.04992e-09
-9.33254e-08
4.55395e-08
-8.85341e-08
8.62489e-08
-6.38208e-08
8.0962e-08
-7.17604e-09
2.16783e-08
6.38464e-08
1.06866e-07
-4.3405e-08
-1.95525e-07
-4.57867e-08
2.1029e-07
-1.9399e-07
-3.7002e-08
-1.67453e-07
-8.03796e-08
-1.38131e-07
-1.1343e-07
-1.09622e-07
-1.21832e-07
-8.57641e-08
-1.11147e-07
-7.17896e-08
-5.57451e-08
-9.7046e-08
2.59277e-08
-1.3048e-07
9.66045e-08
1.20669e-07
-2.02842e-07
-2.01524e-07
-3.35525e-08
1.98972e-07
-2.11813e-07
-3.83774e-08
-2.06723e-07
-8.833e-08
-2.0678e-07
-1.1337e-07
-2.10691e-07
-1.17905e-07
-1.95762e-07
-1.05859e-07
-1.75049e-07
-4.45803e-08
-1.83289e-07
3.4006e-08
-1.79815e-07
9.29814e-08
1.08438e-07
-1.97435e-07
-1.53242e-07
-1.96387e-08
1.38075e-07
-1.77533e-07
-2.59132e-08
-2.07902e-07
-5.79467e-08
-2.393e-07
-8.19641e-08
-2.6465e-07
-9.25376e-08
-2.76423e-07
-8.62404e-08
-2.15051e-07
-5.77526e-08
-1.8888e-07
7.68672e-09
-1.61683e-07
6.56308e-08
9.59271e-08
-1.49378e-07
-1.37848e-07
-1.89932e-08
1.36216e-07
-1.57372e-07
-1.81671e-08
-1.81819e-07
-3.34842e-08
-2.1836e-07
-4.54058e-08
-2.60722e-07
-5.01656e-08
-3.00881e-07
-4.69354e-08
-3.20652e-07
-4.07942e-08
-2.58504e-07
-2.84663e-08
-1.65472e-07
1.6182e-08
4.83924e-08
-1.18772e-07
-3.71086e-08
-2.43818e-08
4.26075e-08
-3.48357e-08
-2.03089e-08
-4.97522e-08
-1.91084e-08
-7.59502e-08
-2.15111e-08
-1.11579e-07
-1.40207e-08
-1.49232e-07
-1.10027e-08
-1.88473e-07
-1.2632e-09
-2.01136e-07
-1.48928e-08
-1.74712e-07
-9.33222e-09
4.74703e-09
-1.16209e-07
-5.50415e-09
-3.17741e-08
1.30071e-08
-1.89367e-10
-2.5514e-08
-2.7075e-09
-1.62278e-08
-1.0201e-08
-1.35288e-08
-1.04482e-08
-1.36721e-08
-1.11977e-08
-9.57254e-09
-2.21417e-08
1.01761e-08
-2.41816e-08
-1.35975e-08
-3.81643e-08
2.66269e-09
2.381e-08
-5.66311e-08
-4.5075e-09
-3.30262e-08
4.9174e-09
-2.15109e-09
-2.85484e-08
3.5843e-09
-2.24456e-08
1.32434e-08
-2.32934e-08
1.72198e-08
-1.77553e-08
2.05013e-08
-1.23441e-08
3.38403e-08
-2.99822e-09
3.31422e-08
-1.27407e-08
3.95248e-08
-5.73405e-09
2.86933e-08
3.37363e-08
2.57467e-08
-1.87494e-08
-3.687e-08
2.85162e-08
-3.12449e-08
3.40421e-08
-2.78885e-08
3.38489e-08
-2.47226e-08
3.59059e-08
-1.99503e-08
4.46161e-08
-2.12443e-08
5.41594e-08
-1.27294e-08
4.57171e-08
-4.13624e-09
3.74589e-08
2.68348e-09
1.69661e-08
4.85154e-08
2.88051e-07
2.09861e-08
-2.75697e-07
2.22239e-07
6.05443e-08
1.46845e-07
4.76789e-08
9.00092e-08
3.21151e-08
5.88091e-08
1.12508e-08
3.80671e-08
-5.0102e-10
3.29758e-08
-8.41749e-09
3.62506e-08
-7.51334e-09
4.07126e-08
-1.62769e-09
1.06872e-08
4.71388e-08
3.6656e-07
7.55257e-09
-4.09687e-07
3.70618e-07
4.85843e-08
3.45572e-07
6.6026e-08
3.49368e-07
1.00025e-07
2.69202e-07
9.73422e-08
1.91926e-07
7.67754e-08
1.3464e-07
4.88678e-08
1.01223e-07
2.42445e-08
8.11049e-08
1.74087e-08
2.79178e-08
6.4014e-08
5.3563e-07
-5.47237e-08
-4.72888e-07
4.31926e-07
8.14472e-09
4.30369e-07
6.35141e-08
4.26786e-07
9.99003e-08
4.04725e-07
1.16615e-07
4.40673e-07
1.38984e-07
3.51439e-07
1.38099e-07
2.59959e-07
1.161e-07
1.83997e-07
8.96997e-08
8.75047e-08
1.23212e-07
5.39268e-07
-1.07125e-07
-4.86911e-07
4.5225e-07
-4.73665e-08
4.63312e-07
2.0182e-08
5.05828e-07
5.45957e-08
5.31221e-07
8.84346e-08
5.31979e-07
1.35438e-07
5.99557e-07
1.02585e-07
5.44651e-07
1.96194e-07
4.38807e-07
1.95717e-07
1.63805e-07
3.626e-07
5.33343e-07
-1.33943e-07
-4.93321e-07
5.39929e-07
-7.5835e-08
5.64912e-07
-2.67145e-08
6.13956e-07
-2.23995e-09
6.52005e-07
5.66654e-08
6.17618e-07
1.53999e-07
5.46162e-07
9.50293e-08
6.81569e-07
1.24705e-07
7.05584e-07
2.12194e-07
2.30975e-07
6.38612e-07
3.74467e-07
-5.77042e-08
-4.32091e-07
3.81383e-07
-2.39103e-08
4.58045e-07
-1.62243e-08
5.42947e-07
-9.5025e-09
4.78312e-07
3.64021e-08
3.45116e-07
8.10269e-08
4.5888e-07
4.32549e-08
6.10451e-07
8.66117e-08
6.22706e-07
1.63222e-07
2.30744e-07
5.72906e-07
8.93923e-08
-5.92751e-08
-8.75743e-08
1.13436e-07
-4.79903e-08
1.32202e-07
-3.49154e-08
1.36204e-07
-1.34922e-08
1.56346e-07
1.6411e-08
1.90997e-07
4.43695e-08
1.99083e-07
6.81177e-08
1.99433e-07
6.83758e-08
2.16832e-07
1.32206e-07
2.54057e-07
2.83565e-07
-2.62199e-08
-5.22379e-08
1.91458e-08
-2.69613e-08
-4.73309e-08
-2.49218e-08
-3.69754e-08
-2.72447e-08
-1.09968e-08
-2.8272e-08
1.76144e-08
-3.01216e-08
4.71255e-08
-3.30032e-08
7.11809e-08
-6.76e-08
1.02951e-07
-1.787e-07
2.39583e-07
3.72852e-07
-2.70205e-07
-1.50658e-07
-3.65861e-08
1.352e-07
-1.64601e-07
-3.35242e-08
-1.7491e-07
-2.63909e-08
-1.85148e-07
-4.99462e-10
-1.86654e-07
1.90948e-08
-1.84528e-07
4.48056e-08
-1.78681e-07
7.27294e-08
-1.79344e-07
1.00183e-07
-5.03981e-07
2.26969e-07
2.93909e-07
-4.25159e-07
-2.3627e-07
-3.96276e-08
2.02572e-07
-2.25465e-07
-3.41424e-08
-2.25121e-07
-2.69178e-08
-2.18054e-07
-7.57751e-09
-2.07988e-07
9.05241e-09
-1.96842e-07
3.52582e-08
-1.82045e-07
5.58083e-08
-1.60779e-07
7.50234e-08
-4.11518e-07
1.14308e-07
1.58947e-07
-3.3589e-07
-6.19583e-07
-7.48409e-08
6.11431e-07
-5.72015e-07
-5.72424e-08
-3.60306e-07
-5.29166e-08
-1.77957e-07
-2.99748e-08
-1.66006e-07
-2.93883e-09
-1.30821e-07
3.3534e-08
-1.44572e-07
8.32709e-08
-1.71436e-07
1.033e-07
-2.19905e-07
1.15684e-07
1.13973e-07
-2.04239e-07
-4.87304e-07
-9.40938e-08
5.07088e-07
-4.58907e-07
-8.51072e-08
-4.28984e-07
-8.23082e-08
-3.90913e-07
-6.78824e-08
-3.52269e-07
-3.00279e-08
-3.14843e-07
1.41651e-08
-2.69265e-07
4.68546e-08
-2.29073e-07
6.6544e-08
-2.02604e-07
9.12914e-08
1.10025e-07
-1.97921e-07
-4.96285e-07
-6.19711e-08
4.31191e-07
-4.98001e-07
-8.2445e-08
-4.50831e-07
-1.2919e-07
-3.96636e-07
-1.22076e-07
-3.31516e-07
-9.51499e-08
-2.69621e-07
-4.77034e-08
-2.37506e-07
1.46869e-08
-2.19366e-07
4.83659e-08
-2.0214e-07
7.40509e-08
1.04451e-07
-1.96608e-07
-1.30029e-07
-3.89494e-08
2.08845e-07
-2.64717e-07
-2.66388e-08
-3.09004e-07
-3.73401e-08
-3.34001e-07
-4.31757e-08
-3.19951e-07
-1.1206e-07
-2.46693e-07
-1.21017e-07
-2.17767e-07
-1.42819e-08
-2.11198e-07
4.17847e-08
-2.12019e-07
7.48558e-08
1.03744e-07
-2.11311e-07
-6.80699e-08
-1.27e-07
1.42891e-07
-1.12446e-08
-9.48587e-08
2.98975e-09
-6.14964e-08
-1.01196e-08
-3.90635e-08
-9.01779e-08
-1.19101e-08
-1.88218e-07
-1.25232e-08
-1.86974e-07
-9.22513e-09
-1.68912e-07
1.94803e-08
-1.88634e-07
9.45599e-08
1.22808e-07
-2.07743e-07
8.89587e-08
-1.95469e-07
-1.06436e-07
7.63057e-08
-1.07524e-07
8.04626e-08
-8.64844e-08
6.94425e-08
-6.01481e-08
6.27031e-08
-5.98336e-09
4.52875e-08
4.76695e-09
2.19709e-08
1.33017e-08
4.10584e-08
1.92798e-08
2.47e-09
7.80529e-08
1.06354e-07
-6.10028e-08
4.78895e-07
-2.07044e-07
-5.42949e-07
3.31023e-07
-1.67626e-07
2.43244e-07
-1.3603e-07
1.64883e-07
-1.03079e-07
1.1116e-07
-4.26086e-08
1.16889e-07
-1.77405e-09
1.11532e-07
1.85595e-08
1.69937e-07
2.462e-08
2.44382e-07
5.64025e-08
7.48294e-08
2.64666e-07
6.33771e-07
-2.15009e-07
-6.25786e-07
6.6849e-07
-2.02325e-07
7.15359e-07
-1.82883e-07
6.83873e-07
-1.37916e-07
4.02401e-07
-9.1639e-08
2.09617e-07
-4.83063e-08
2.17294e-07
1.02884e-08
2.10197e-07
2.95236e-08
2.13389e-07
4.99135e-08
5.63848e-08
2.47128e-07
6.90548e-07
-2.25348e-07
-6.80161e-07
6.96726e-07
-2.08481e-07
7.07238e-07
-1.93373e-07
7.44949e-07
-1.75604e-07
8.03792e-07
-1.50459e-07
8.83464e-07
-1.27955e-07
7.3368e-07
-7.26294e-08
3.09242e-07
-1.35145e-09
3.27246e-07
3.01276e-08
1.18529e-07
4.4179e-07
7.62523e-07
-2.26194e-07
-7.6147e-07
7.67478e-07
-2.13373e-07
7.71191e-07
-1.97058e-07
7.75138e-07
-1.79519e-07
7.81756e-07
-1.57053e-07
7.98711e-07
-1.44889e-07
8.44866e-07
-1.1875e-07
9.23529e-07
-8.38681e-08
9.96662e-07
-5.83645e-08
5.49695e-10
9.37485e-07
7.65242e-07
-2.22981e-07
-7.68263e-07
7.57927e-07
-2.05828e-07
7.29555e-07
-1.62153e-07
7.28657e-07
-1.59318e-07
7.40866e-07
-1.61433e-07
7.42398e-07
-1.46376e-07
7.50218e-07
-1.26554e-07
7.77852e-07
-1.11492e-07
8.2034e-07
-1.00842e-07
-1.03065e-07
9.23661e-07
6.30366e-07
-2.17599e-07
-6.33916e-07
5.8257e-07
-1.65606e-07
5.56648e-07
-1.47589e-07
6.12172e-07
-1.479e-07
6.05998e-07
-1.48012e-07
5.94426e-07
-1.34752e-07
5.9689e-07
-1.29004e-07
6.23313e-07
-1.37905e-07
6.9438e-07
-1.719e-07
-2.13614e-07
8.04938e-07
2.78553e-07
-2.10727e-07
-2.97281e-07
2.9005e-07
-1.90499e-07
3.24661e-07
-1.9464e-07
4.00959e-07
-1.88384e-07
4.2551e-07
-1.71483e-07
4.59731e-07
-1.68798e-07
5.18854e-07
-1.88078e-07
6.27054e-07
-2.46091e-07
7.61522e-07
-3.06357e-07
-3.34089e-07
8.82007e-07
7.11323e-08
-2.60413e-07
-3.71416e-08
1.37983e-07
-2.65684e-07
2.33692e-07
-2.98847e-07
3.2618e-07
-2.74633e-07
4.12672e-07
-2.50559e-07
5.31263e-07
-2.66548e-07
6.89207e-07
-3.41959e-07
8.33229e-07
-3.9007e-07
9.39367e-07
-4.1245e-07
-3.87941e-07
9.93262e-07
2.6258e-08
-2.29605e-07
5.53155e-08
1.46685e-07
-2.55829e-07
2.67535e-07
-2.9302e-07
3.67499e-07
-3.31561e-07
5.007e-07
-3.07936e-07
6.64609e-07
-3.84853e-07
7.95988e-07
-4.64019e-07
8.58734e-07
-4.5214e-07
8.42368e-07
-3.72694e-07
-1.04651e-07
5.96988e-07
9.87909e-08
-2.58899e-07
8.14789e-09
1.72034e-07
-3.40915e-07
2.55567e-07
-3.91038e-07
3.90652e-07
-3.59101e-07
4.80967e-07
-4.05134e-07
5.10818e-07
-4.19445e-07
4.62404e-07
-2.75842e-07
2.37938e-07
-5.04011e-08
7.79807e-08
-3.99926e-08
-1.29038e-08
1.43351e-08
1.54456e-07
-5.10664e-07
-5.14051e-08
2.04041e-07
-5.51705e-07
1.96572e-07
-4.8656e-07
1.45357e-07
-4.16104e-07
1.14661e-07
-3.45655e-07
2.52047e-08
-1.51461e-07
3.78826e-10
-5.21434e-08
-2.53015e-09
-4.76302e-08
-5.46249e-09
-3.7191e-08
-1.63686e-08
-2.1357e-09
-5.82262e-08
-6.17754e-07
3.33004e-08
-1.41762e-07
-4.67719e-07
-2.26346e-07
-4.01561e-07
-2.61658e-07
-3.79657e-07
-1.41023e-07
-2.05e-07
-3.56709e-08
-5.25947e-08
-3.21744e-08
-5.45231e-08
-3.29929e-08
-4.57614e-08
-3.03691e-08
-3.99528e-08
-3.10978e-08
-1.58058e-08
-3.81246e-07
-5.49119e-07
3.12719e-07
-4.4917e-07
-3.99662e-07
-4.77588e-07
-3.72541e-07
-3.84851e-07
-3.49515e-07
-7.06446e-08
-1.33568e-07
-7.42305e-08
-5.07864e-08
-7.4198e-08
-5.45524e-08
-8.75952e-08
-3.12473e-08
-8.30536e-08
-4.47241e-08
-4.80661e-08
-6.62339e-08
-5.75832e-07
-4.77341e-07
5.04187e-07
-6.10543e-07
-3.64724e-07
-6.35237e-07
-3.46762e-07
-4.71478e-07
-3.39582e-07
-1.03331e-07
-1.52369e-07
-1.04209e-07
-5.09883e-08
-1.00475e-07
-6.00643e-08
-3.32859e-07
-1.4568e-07
-3.05165e-07
-1.61276e-07
-9.72164e-08
-1.62371e-07
-6.6489e-07
-4.6911e-07
6.56885e-07
-6.72082e-07
-3.57262e-07
-6.80972e-07
-3.37323e-07
-6.54928e-07
-3.31973e-07
-1.25527e-07
-1.91032e-07
-1.21873e-07
-5.51288e-08
-1.97796e-07
-5.22001e-08
-6.1322e-07
-1.74701e-07
-6.16868e-07
-1.97149e-07
-1.80562e-07
-3.45858e-07
-7.06612e-07
-5.64823e-07
8.02596e-07
-6.63972e-07
-3.99606e-07
-6.49896e-07
-3.50781e-07
-6.44107e-07
-3.35293e-07
-2.59411e-07
-2.40514e-07
-1.68236e-07
-4.59016e-08
-1.89426e-07
-3.6564e-08
-6.43676e-07
-6.30367e-08
-7.10708e-07
-1.44116e-07
-1.45954e-07
-7.56827e-07
-7.61969e-07
-7.53214e-07
9.50658e-07
-5.99421e-07
-5.61538e-07
-5.28414e-07
-4.20891e-07
-5.04853e-07
-3.57583e-07
-2.68117e-07
-3.11294e-07
-8.3934e-08
-8.54582e-08
-9.55633e-08
-2.86954e-08
-1.67669e-07
-2.64281e-08
-7.24399e-07
-6.81631e-08
-9.27919e-08
-7.84668e-07
-9.18166e-07
-8.18884e-07
9.84507e-07
-6.60949e-07
-8.17863e-07
-4.68771e-07
-6.11732e-07
-4.25983e-07
-3.98891e-07
-4.01953e-07
-2.98e-07
-1.07223e-07
-1.47779e-07
-1.22748e-07
-1.74405e-08
-1.45691e-07
-2.50352e-09
-6.02382e-07
-9.70985e-09
-6.03429e-08
-8.15329e-07
-8.87602e-07
-2.1263e-07
3.15809e-07
-8.46323e-07
-8.58993e-07
-5.63047e-07
-8.93479e-07
-3.76616e-07
-5.83593e-07
-3.82874e-07
-2.89537e-07
-1.55063e-07
-2.01439e-07
-5.92404e-08
-3.70528e-08
-6.2194e-08
1.65916e-09
-8.15285e-08
9.36428e-09
4.77925e-09
-5.21467e-07
-2.49954e-07
-4.9722e-08
7.20926e-08
-8.20495e-07
-3.50904e-07
-7.27825e-07
-9.84547e-07
-4.21993e-07
-8.87224e-07
-3.1006e-07
-3.99422e-07
-3.15218e-07
-1.68616e-07
-5.53217e-08
-1.11532e-07
-3.70996e-08
-1.68234e-08
-3.5912e-08
8.11561e-09
1.20203e-08
-4.31958e-08
-4.9894e-08
-1.98547e-08
1.68779e-08
-4.01976e-07
-7.931e-08
-7.72107e-07
-7.28254e-07
-5.77162e-07
-1.08012e-06
-2.9839e-07
-6.76133e-07
-2.87128e-07
-1.77678e-07
-2.21944e-07
-9.06388e-08
-3.85192e-08
-5.82783e-08
-3.45021e-08
4.05569e-09
1.14463e-08
-3.3964e-08
-8.70799e-10
1.73642e-10
-2.07851e-08
-6.21716e-08
-2.01151e-08
-6.13879e-07
-2.59955e-07
-6.5494e-07
-1.03644e-06
-3.75174e-07
-9.53699e-07
-2.64106e-07
-2.86003e-07
-3.64417e-07
-1.07453e-08
-3.28177e-07
5.82928e-09
-5.33071e-08
2.10405e-08
6.64221e-09
-4.85434e-08
0
4.09112e-10
2.03746e-09
-1.47614e-08
-3.27771e-09
-2.43288e-07
-5.2389e-08
-5.69436e-07
-7.34572e-07
-4.47753e-07
-1.07263e-06
-1.60663e-07
-5.70372e-07
-2.35828e-07
5.53078e-08
-2.8155e-07
7.02974e-08
-3.06004e-07
5.84402e-08
5.23511e-08
-2.506e-07
-2.74711e-10
2.52498e-10
1.17498e-09
0
6.02376e-10
-3.39266e-08
-1.17776e-08
-3.17645e-07
-3.47531e-07
-3.30404e-07
-9.96318e-07
-7.51799e-08
-7.74349e-07
-1.29346e-07
1.13548e-07
-1.61847e-07
1.09432e-07
-1.59568e-07
6.95994e-08
5.29505e-08
-1.89769e-07
6.75603e-10
1.33105e-10
-3.35585e-10
0
1.87685e-09
-8.99913e-09
-2.31782e-09
-1.57048e-07
-1.43527e-07
-1.48579e-07
-9.6924e-07
-6.74858e-08
-8.32965e-07
-8.35335e-08
1.30125e-07
-8.38487e-08
1.14739e-07
-6.99101e-08
6.16825e-08
3.14072e-08
-4.88514e-08
-3.66414e-10
-1.04831e-10
3.71208e-10
1.02128e-09
-9.4954e-11
-9.98716e-10
-5.0678e-10
-6.37998e-08
-6.57505e-08
-6.70257e-08
-9.52161e-07
-4.81532e-08
-8.62518e-07
-8.17336e-08
1.64203e-07
-9.75415e-08
1.30945e-07
-5.08913e-08
1.60381e-08
-3.20601e-08
1.29876e-08
-9.73757e-11
-2.77049e-11
2.25782e-11
1.44993e-10
-4.84291e-10
0
-4.84925e-10
-2.88769e-08
-3.83451e-08
-3.46628e-08
-9.42247e-07
-1.33902e-08
-8.9474e-07
-3.75363e-08
8.89275e-08
-8.12209e-08
1.75063e-07
-8.31593e-08
1.83751e-08
-8.27576e-08
-2.63242e-08
-2.27399e-11
-1.58518e-11
3.28918e-12
2.91738e-11
-3.73037e-10
0
-4.81769e-10
-3.99697e-08
-3.66152e-09
-4.42308e-08
-9.52991e-07
-2.93408e-08
-9.07433e-07
1.46506e-08
2.42373e-09
3.82211e-08
3.67606e-08
2.06269e-08
4.60735e-09
-3.84752e-08
3.72038e-08
1.40335e-10
-1.60813e-10
-7.64385e-12
2.30327e-10
-5.43542e-10
1.46473e-10
-4.78034e-10
1.50668e-08
-1.89738e-08
-9.15846e-09
-9.82934e-07
-3.56921e-09
-9.7139e-07
3.12889e-10
-8.94749e-09
1.71132e-08
1.36712e-08
3.09349e-08
0
-1.13269e-11
1.2763e-08
5.9988e-11
-1.0924e-09
-1.51965e-10
5.25232e-11
-8.03155e-10
-1.0289e-11
-4.62821e-10
-2.49383e-09
-3.23866e-08
-3.79952e-09
-9.93994e-07
-2.47008e-09
-9.96114e-07
7.73842e-09
-2.55758e-08
6.23472e-09
1.03651e-08
-2.53866e-12
0
0
-1.58414e-11
5.63431e-10
-1.03797e-09
-6.16729e-10
4.90882e-10
-9.94583e-10
4.63478e-10
-2.43183e-10
4.9834e-09
-5.39257e-08
6.52801e-09
-9.8842e-07
-5.3206e-10
-9.88869e-07
2.51198e-09
-5.82811e-08
1.13138e-09
1.03986e-08
1.38159e-09
0
4.08776e-10
0
6.12763e-10
-1.07945e-09
-5.70168e-10
4.04525e-10
-8.80158e-10
1.33591e-09
-1.62575e-11
1.66533e-08
-6.97318e-08
2.33621e-08
-9.77156e-07
1.97493e-08
-9.81657e-07
0
-6.67551e-08
0
9.75672e-09
0
4.19497e-10
-4.24008e-11
1.8372e-11
2.53411e-10
-1.13611e-09
-1.93819e-10
0
-3.10217e-10
6.19463e-11
-9.86973e-11
2.1645e-10
-7.05995e-08
-5.22058e-09
-9.67052e-07
-6.60254e-09
-9.69756e-07
-2.56702e-09
-6.95161e-08
0
-8.16414e-13
5.10866e-11
-1.84074e-12
-2.12952e-12
1.13516e-11
-3.3641e-10
-1.2936e-10
3.6965e-10
0
-4.89674e-11
-1.09319e-10
-3.39371e-12
-2.43503e-08
-6.29254e-08
-3.39759e-08
-9.62016e-07
-2.12656e-08
-9.57344e-07
-4.86646e-12
-6.91765e-08
3.25502e-12
-4.11141e-12
4.32457e-12
-2.37397e-12
-1.58847e-12
3.98622e-12
-5.10818e-11
-8.71796e-11
1.25691e-11
0
-8.41981e-11
6.41809e-13
-1.95865e-11
5.80017e-09
-5.52899e-08
-2.02597e-09
-9.46724e-07
-5.53845e-10
-9.47935e-07
-1.14986e-12
-5.77877e-08
4.81616e-13
-5.11315e-12
8.05441e-13
-2.4951e-12
-1.64212e-12
8.25845e-13
-4.66577e-11
-6.37722e-11
1.06891e-11
0
-1.38996e-10
1.1979e-10
-1.48879e-10
1.09522e-08
-5.23201e-08
9.05356e-09
-9.27851e-07
7.55143e-10
-9.35806e-07
-1.71242e-12
-4.6134e-08
-4.70221e-13
-5.45433e-12
-3.70549e-13
-3.55294e-12
-1.67019e-12
-4.7429e-13
-5.34144e-12
-1.02947e-12
0
0
-8.98199e-11
-1.47202e-10
-2.74826e-12
-2.36605e-08
-4.34981e-08
-4.38236e-08
-9.25284e-07
-2.64619e-08
-9.13974e-07
-5.33336e-12
-4.54483e-08
-4.81724e-12
-5.93799e-12
-9.27137e-12
-1.05902e-11
-1.76231e-11
-4.76848e-12
1.48969e-13
-8.8929e-13
-2.8907e-13
1.11385e-11
-1.06373e-12
1.02598e-11
-1.8696e-12
1.03842e-08
-4.56475e-08
3.09989e-09
-9.16387e-07
-3.38631e-09
-9.1608e-07
-7.25781e-12
-4.68853e-08
-7.59262e-12
-4.88162e-12
-2.70058e-11
-7.46263e-12
-1.18295e-13
-9.16339e-12
1.07321e-13
-8.68655e-13
-1.27915e-13
1.06796e-13
-1.06319e-12
1.00362e-13
-1.86315e-12
7.24223e-09
-5.80312e-08
1.8706e-09
-9.18472e-07
-5.89713e-09
-9.1773e-07
-6.40102e-12
-5.78721e-08
-6.03751e-12
-4.51507e-12
-6.79736e-12
-1.40093e-11
2.99269e-11
0
7.69366e-14
-8.62846e-13
-8.27364e-14
8.204e-14
-1.06828e-12
8.18233e-14
-1.86292e-12
6.79784e-09
-7.28658e-08
8.74985e-10
-9.20974e-07
-6.33793e-09
-9.20045e-07
-7.1265e-12
-7.24182e-08
-7.4128e-12
-4.07786e-12
-4.81279e-12
-2.22953e-11
3.49471e-11
-2.07026e-11
7.44826e-14
-8.68775e-13
-6.85762e-14
7.38637e-14
-1.06767e-12
7.35386e-14
-1.8626e-12
6.42018e-09
-8.63169e-08
5.68395e-11
-9.21812e-07
-6.94925e-09
-9.20385e-07
-5.13523e-12
-8.5538e-08
-5.53654e-12
-3.83563e-12
1.5277e-12
-4.55781e-11
1.40113e-11
3.10709e-12
9.28516e-14
-8.70586e-13
-9.10514e-14
8.66963e-14
-1.06153e-12
8.21794e-14
-1.85808e-12
7.37329e-09
-9.9105e-08
-2.75519e-11
-9.19273e-07
-6.72496e-09
-9.195e-07
-1.00239e-12
-9.80322e-08
-1.14702e-12
-3.96528e-12
5.62648e-12
-4.8961e-11
2.06562e-11
-4.47045e-12
1.27521e-13
-8.53023e-13
-1.45139e-13
9.93864e-14
-1.03341e-12
8.15325e-14
-1.84022e-12
7.29824e-09
-1.10123e-07
2.36482e-10
-9.15069e-07
-7.48832e-09
-9.14329e-07
-7.2131e-12
-1.09445e-07
-6.22602e-12
-5.02026e-12
-7.90264e-12
-4.0413e-11
1.64801e-11
-7.19219e-12
1.93867e-13
-7.69822e-13
-2.78227e-13
1.22853e-13
-9.62508e-13
8.78007e-14
-1.80521e-12
7.40058e-09
-1.17578e-07
-1.02171e-09
-9.06779e-07
-7.67908e-09
-9.06445e-07
-1.83949e-11
-1.17372e-07
-2.07712e-11
-2.69002e-12
-3.169e-11
-8.30263e-12
5.72257e-14
-8.8819e-13
2.52718e-13
-3.39866e-13
-7.00146e-13
1.86449e-13
-8.97929e-13
1.50187e-13
-1.76922e-12
7.38797e-09
-1.21344e-07
-9.45018e-10
-8.96346e-07
-8.33484e-09
-8.94987e-07
-3.35403e-13
-1.22126e-07
-2.26954e-13
-2.79843e-12
1.30242e-11
-5.13192e-13
-2.15083e-13
6.35414e-11
2.24531e-13
-7.56816e-13
-7.15729e-12
2.77297e-13
-9.65681e-13
3.61641e-13
-1.85567e-12
8.35167e-09
-1.23719e-07
-6.0556e-10
-8.84016e-07
-9.24115e-09
-8.81207e-07
-1.43457e-13
-1.257e-07
-8.44173e-14
-2.85747e-12
3.017e-13
-8.99348e-13
-3.43451e-13
4.30031e-13
0
-5.83224e-11
-3.13594e-11
5.12505e-13
-3.01581e-12
1.28424e-12
-2.64275e-12
9.04709e-09
-1.26313e-07
-7.67328e-10
-8.70623e-07
-9.87653e-09
-8.6716e-07
-1.65675e-13
-1.29384e-07
-1.88446e-13
-2.83471e-12
-1.11054e-13
-9.76798e-13
-4.67164e-13
1.26192e-14
1.97951e-11
-1.11339e-10
-1.0428e-10
5.56703e-12
-4.09148e-11
7.37592e-12
-4.55644e-12
9.89211e-09
-1.31047e-07
-7.61435e-10
-8.56792e-07
-1.08725e-08
-8.53235e-07
-3.6782e-13
-1.34636e-07
-3.6111e-13
-2.84122e-12
-2.66754e-13
-1.07156e-12
-4.66458e-13
-2.67518e-13
9.98027e-11
-9.77335e-11
-1.13331e-10
2.13707e-11
-5.17544e-11
2.14223e-11
-5.22894e-12
1.11745e-08
-1.38727e-07
-3.10952e-11
-8.42778e-07
-1.07165e-08
-8.40842e-07
-1.23375e-12
-1.41756e-07
-1.06217e-12
-3.0111e-12
-4.97501e-13
-1.22345e-13
-3.65428e-13
-5.9894e-13
8.05528e-11
-7.87569e-11
-9.94547e-11
2.03427e-11
-3.90192e-11
1.87299e-11
-5.00968e-12
1.22969e-08
-1.50148e-07
-4.49612e-12
-8.29051e-07
-1.20966e-08
-8.28772e-07
-4.03845e-12
-1.52356e-07
-3.77586e-12
-3.26138e-12
-1.33027e-12
0
-5.11371e-13
-1.44286e-12
6.91778e-11
-5.476e-11
-9.30976e-11
1.63469e-11
-2.1462e-11
1.41045e-11
-3.79634e-12
1.28736e-08
-1.64452e-07
1.00654e-09
-8.17392e-07
-1.25981e-08
-8.16337e-07
-6.15643e-12
-1.65851e-07
-5.6819e-12
-3.69901e-12
-3.89935e-12
-1.90038e-13
1.81815e-13
-6.90513e-12
7.6122e-11
-2.61608e-11
-1.04626e-10
1.44042e-11
1.28447e-12
1.30189e-11
-3.17055e-12
1.39324e-08
-1.81798e-07
3.00101e-09
-8.07906e-07
-1.3321e-08
-8.01865e-07
-8.76275e-12
-1.828e-07
-8.1324e-12
-4.2606e-12
-4.22295e-12
0
2.48892e-13
-4.60397e-12
1.18361e-10
1.67075e-11
-1.61105e-10
1.82422e-11
4.07567e-11
1.66261e-11
-1.74119e-12
1.55166e-08
-2.04758e-07
3.4168e-09
-7.9825e-07
-1.47438e-08
-7.86357e-07
-1.08226e-11
-2.05027e-07
-9.80727e-12
-5.13879e-12
-1.02948e-12
-9.77414e-14
2.88209e-13
-1.06372e-12
8.37584e-11
9.97646e-11
-1.66684e-10
4.33763e-12
1.74159e-11
4.2155e-12
-1.40665e-12
1.72164e-08
-2.31377e-07
6.24175e-10
-7.83436e-07
-1.43459e-08
-7.7475e-07
-1.50363e-11
-2.3045e-07
-1.4064e-11
-5.85793e-12
-3.56803e-13
-9.80443e-12
2.79772e-13
-3.45607e-13
-2.82988e-12
1.6233e-12
-7.46219e-12
1.51591e-13
5.95029e-14
4.66026e-13
-1.45899e-12
1.76396e-08
-2.53174e-07
-3.93993e-09
-7.62056e-07
-1.38174e-08
-7.67536e-07
-1.48468e-11
-2.51597e-07
-1.37797e-11
-6.51655e-12
-2.50192e-12
-6.66329e-12
5.76419e-12
-7.60409e-13
-1.87182e-13
0
4.98204e-13
1.57283e-13
3.75573e-14
1.45044e-12
-2.43427e-12
1.61063e-08
-2.61384e-07
-4.47004e-10
-7.44551e-07
-1.15048e-08
-7.57418e-07
-1.17398e-11
-2.59583e-07
-1.04951e-11
-7.16204e-12
1.57332e-12
-6.43082e-12
1.05568e-11
5.6911e-12
-5.20193e-14
4.19116e-14
1.24018e-13
2.31877e-13
1.4973e-13
1.17381e-11
-1.37508e-11
1.92405e-08
-2.64593e-07
1.14563e-08
-7.36e-07
-1.57279e-08
-7.29724e-07
-1.06794e-11
-2.62562e-07
-5.26241e-12
-1.18499e-11
0
-1.01071e-11
7.49295e-12
4.56586e-12
-2.59069e-17
1.38173e-13
1.2167e-13
1.26716e-13
1.79617e-14
1.13453e-10
-1.27075e-10
3.36896e-08
-2.89966e-07
1.24625e-08
-7.16075e-07
-1.12596e-08
-7.05462e-07
-4.97754e-11
-2.635e-07
-3.23625e-11
-2.8637e-11
-2.4743e-11
-8.27965e-11
-1.45219e-11
-6.58255e-11
-2.46588e-14
4.20121e-13
1.40033e-13
4.29899e-14
-3.01562e-14
1.12983e-09
-1.25686e-09
-7.00138e-09
-2.71182e-07
-4.40622e-08
-6.80674e-07
-4.70125e-08
-7.05367e-07
-2.35215e-10
-3.36517e-07
-9.25844e-11
-1.72318e-10
-1.06307e-10
-6.13624e-11
-4.66212e-11
-4.19098e-11
8.84289e-14
5.51792e-13
-2.00569e-13
1.53054e-13
3.31027e-14
-1.24581e-09
-1.0885e-11
-4.92584e-08
-2.12936e-07
-6.39874e-08
-6.65955e-07
-1.02804e-07
-6.66656e-07
-1.57092e-09
-4.48338e-07
-8.49112e-11
-1.66655e-09
-8.29476e-11
-3.31793e-11
-2.0132e-11
-7.70304e-11
2.44953e-13
3.5341e-12
0
4.47366e-13
-4.291e-14
9.67506e-11
-1.07029e-10
4.60143e-08
-2.52009e-07
3.24526e-08
-6.5055e-07
9.31298e-09
-6.4357e-07
-5.77898e-09
-4.37521e-07
0
-8.5239e-09
0
-1.43847e-12
6.68422e-12
8.05375e-12
2.48101e-12
6.61659e-12
-6.346e-14
2.666e-12
-7.02045e-14
1.09283e-09
-1.19695e-09
7.45571e-08
-3.22266e-07
5.69449e-08
-6.32784e-07
2.55059e-08
-6.12194e-07
5.48182e-10
-4.16636e-07
-2.91333e-11
-7.9661e-09
0
-2.422e-12
0
6.95031e-12
8.66322e-12
3.04245e-12
-1.73844e-12
8.63047e-12
-4.0033e-14
1.03415e-08
-1.15297e-08
1.3824e-07
-4.51459e-07
9.03352e-08
-5.84849e-07
7.19064e-08
-5.93792e-07
6.73081e-09
-3.51891e-07
-1.65392e-12
-4.31191e-11
-2.13025e-12
-3.64977e-12
-3.41214e-12
-4.80419e-13
7.10489e-13
2.57974e-13
-1.30807e-12
6.90683e-13
-3.66797e-14
2.66029e-08
-3.59988e-08
5.15579e-08
-4.73401e-07
2.38418e-08
-5.5708e-07
-6.90585e-09
-5.63018e-07
-3.00883e-10
-3.66e-07
-1.25513e-11
-3.30984e-10
-1.44651e-11
-4.43795e-13
-3.75947e-12
-9.15012e-12
2.95911e-13
1.26873e-14
-9.34397e-13
4.86308e-13
-2.37821e-13
4.42349e-08
-7.82134e-08
6.26537e-08
-4.90195e-07
2.82586e-08
-5.22659e-07
-9.47927e-09
-5.25225e-07
-3.07813e-09
-3.75463e-07
-2.42944e-13
-3.40891e-09
-1.67166e-13
-5.57175e-13
-2.41088e-13
-9.07891e-13
2.37574e-14
-1.14816e-17
-1.12535e-14
4.9211e-12
-5.13774e-12
3.58451e-08
-1.10393e-07
1.32981e-08
-4.661e-07
-1.68884e-08
-4.92457e-07
-4.87152e-08
-4.93373e-07
-1.93758e-08
-4.07062e-07
-1.09942e-12
-2.27836e-08
-6.94291e-14
-1.63324e-12
-2.04698e-13
-1.44208e-13
1.38227e-15
-1.45836e-15
-7.7072e-17
1.0538e-10
-1.10517e-10
6.7721e-08
-1.72571e-07
5.163e-08
-4.48874e-07
9.62623e-09
-4.5045e-07
-3.49172e-08
-4.48813e-07
-3.43565e-08
-4.10272e-07
-3.3218e-11
-6.19541e-08
-9.66116e-13
-3.39387e-11
-3.06783e-13
-9.03607e-13
4.10011e-13
-4.11468e-13
-1.40135e-18
2.22716e-09
-2.33726e-09
6.12767e-08
-2.25407e-07
7.98884e-09
-3.95277e-07
-3.26941e-08
-4.09765e-07
-7.06356e-08
-4.10869e-07
-8.06978e-08
-4.01616e-07
-9.33186e-10
-1.47123e-07
-7.9023e-12
-9.59349e-10
-6.90254e-13
-7.60117e-12
2.63145e-11
-2.67259e-11
-1.26107e-20
2.43046e-08
-2.66154e-08
9.5891e-08
-2.92579e-07
6.34696e-08
-3.62855e-07
1.85165e-08
-3.64812e-07
-3.40701e-08
-3.58283e-07
-9.0283e-08
-3.45457e-07
-1.37021e-08
-2.29755e-07
-2.56023e-11
-1.46364e-08
-2.52819e-11
-1.10355e-12
1.45798e-09
-1.48471e-09
-1.15077e-22
6.8221e-08
-8.81425e-08
7.097e-08
-2.93735e-07
1.6293e-08
-3.08177e-07
-3.33921e-08
-3.15127e-07
-7.61334e-08
-3.15542e-07
-1.10375e-07
-3.11216e-07
-5.89428e-08
-2.84166e-07
-1.50688e-09
-7.66863e-08
-1.53216e-09
-3.75512e-17
3.2795e-08
-3.42797e-08
-5.35316e-24
1.44993e-07
-1.96988e-07
1.06679e-07
-2.5542e-07
6.57121e-08
-2.67211e-07
1.70612e-08
-2.66476e-07
-3.60812e-08
-2.624e-07
-9.27127e-08
-2.54585e-07
-1.30965e-07
-2.45915e-07
-3.1928e-08
-1.81862e-07
-3.34601e-08
-1.82876e-15
9.44937e-08