/*--------------------------------*- C++ -*----------------------------------*\
  =========                 |
  \\      /  F ield         | OpenFOAM: The Open Source CFD Toolbox
   \\    /   O peration     | Website:  https://openfoam.org
    \\  /    A nd           | Version:  8
     \\/     M anipulation  |
\*---------------------------------------------------------------------------*/
FoamFile
{
    version     2.0;
    format      ascii;
    class       volScalarField;
    location    "4.15";
    object      alpha.water;
}
// * * * * * * * * * * * * * * * * * * * * * * * * * * * * * * * * * * * * * //

dimensions      [0 0 0 0 0 0 0];

internalField   nonuniform List<scalar> 
9150
(
1
1
1
1
1
1
1
1
1
1
1
1
1
1
1
1
1
1
1
1
1
1
1
1
1
1
1
1
1
1
1
1
1
1
1
1
1
1
1
1
1
1
1
1
1
1
1
1
1
1
1
1
1
1
1
1
1
1
1
1
1
1
1
1
1
1
1
1
1
1
1
1
1
1
1
1
1
1
1
1
1
1
1
1
1
1
1
1
1
1
1
1
1
1
1
1
1
1
1
1
1
1
1
1
1
1
1
1
1
1
1
1
1
1
1
1
1
1
1
1
1
1
1
1
1
1
1
1
1
1
1
1
1
1
1
1
1
1
1
1
1
1
1
1
1
1
1
1
1
1
0.983448
0.982888
0.984171
0.984171
0.984172
0.984171
0.977916
0.959675
0.979725
0.981819
0.915055
0.915045
0.916603
0.93474
0.945196
0.937017
0.930992
0.930957
0.930992
0.947278
0.917079
0.915045
0.915045
0.927533
0.964747
0.952807
0.967772
0.974011
0.93104
0.95722
0.984017
0.982681
0.981008
0.983519
0.983519
0.983519
0.983502
0.974296
0.961479
0.931953
0.970518
0.929981
0.983518
0.983519
0.983519
0.983011
0.903752
0.757466
0.754427
0.871194
0.923525
0.918066
0.975418
0.983518
0.983499
0.959177
0.754182
0.753875
0.753899
0.770867
0.90624
0.918054
0.983489
0.983504
0.983487
0.980015
0.817896
0.753899
0.75388
0.753913
0.906114
0.937338
0.983487
0.983487
0.983438
0.974953
0.961704
0.949543
0.784028
0.754673
0.982433
0.982352
0.96951
0.974457
0.981316
0.953011
0.948171
0.970389
0.970389
0.946785
0.982452
0.982432
0.981193
0.976614
0.979582
0.979996
0.94705
0.930204
0.930704
0.977881
0.97215
0.968018
0.967159
0.964794
0.964804
0.97349
0.983158
0.98313
0.966715
0.93106
0.983394
0.986975
0.986968
0.981689
0.967506
0.966233
0.966248
0.98301
0.982922
0.942883
0.755594
0.965547
0.986751
0.98704
0.98704
0.98704
0.97083
0.969016
0.982865
0.982829
0.706998
0.687734
0.685842
0.803373
0.984599
0.98704
0.987019
0.974305
0.963902
0.978347
0.987011
0.871
0.678654
0.675961
0.674687
0.835838
0.986999
0.986339
0.967476
0.963561
0.986794
0.935093
0.682522
0.674687
0.674687
0.674687
0.742281
0.956755
0.987806
0.988212
0.873324
0.883267
0.879171
0.866259
0.864766
0.861465
0.55611
0.648151
0.945296
0.987993
0.741006
0.631491
0.60957
0.687636
0.757489
0.707066
0.458267
0.584567
0.785593
0.845634
0.240055
0.240027
0.240024
0.24003
0.240015
0.240313
0.362684
0.290788
0.307052
0.60603
0.240027
0.240024
0.240024
0.240024
0.240033
0.239865
0.240315
0.242859
0.434776
0.923329
0.240047
0.240027
0.240024
0.240041
0.240027
0.239988
0.238659
0.241575
0.667208
0.988563
0.30514
0.263136
0.240076
0.240035
0.239988
0.239652
0.239441
0.239447
0.556464
0.988595
0.948682
0.912736
0.600606
0.300932
0.24004
0.308182
0.46303
0.594582
0.797431
0.979827
0.986776
0.986776
0.986776
0.986797
0.953947
0.934335
0.957192
0.981092
0.98793
0.987907
0.962326
0.986483
0.98694
0.987683
0.988184
0.988327
0.988528
0.988588
0.98859
0.988592
0.461243
0.635893
0.906589
0.836368
0.939029
0.988529
0.988588
0.98859
0.988592
0.988592
0.329488
0.325971
0.324137
0.324518
0.447556
0.894903
0.949124
0.987537
0.98859
0.988592
0.484624
0.50643
0.561147
0.352119
0.239485
0.23935
0.23948
0.614036
0.858266
0.859267
0.98639
0.856794
0.753538
0.68261
0.356327
0.239485
0.239344
0.24415
0.409776
0.459057
0.988042
0.988044
0.988043
0.986076
0.857348
0.348644
0.239727
0.242023
0.243937
0.245677
0.988012
0.988042
0.988049
0.988055
0.988055
0.988055
0.964553
0.449476
0.245677
0.346452
0.987855
0.988006
0.988038
0.988046
0.988055
0.988057
0.988045
0.987546
0.972275
0.939763
0.98726
0.98785
0.977119
0.967383
0.983348
0.988039
0.988053
0.988057
0.988057
0.987735
0.985363
0.961737
0.832846
0.878343
0.985732
0.987989
0.988047
0.988055
0.988057
0.988055
0.843316
0.832543
0.832156
0.896679
0.987399
0.98788
0.987999
0.988047
0.988055
0.988047
0.828335
0.850767
0.954785
0.977832
0.980716
0.972984
0.986374
0.988004
0.987974
0.987826
0.859911
0.853199
0.870615
0.87861
0.80431
0.854215
0.97696
0.987087
0.972125
0.877403
0.591726
0.594743
0.595214
0.611929
0.726676
0.867908
0.878276
0.723178
0.45029
0.117677
0.453633
0.626147
0.793208
0.900261
0.895315
0.71601
0.272595
0.117677
0.117667
0.117677
0.954713
0.972366
0.972364
0.97193
0.790071
0.183888
0.118229
0.117726
0.117677
0.117669
0.972608
0.972597
0.972318
0.929809
0.341116
0.12015
0.118664
0.118229
0.118123
0.117878
0.972597
0.972537
0.971919
0.891617
0.281989
0.120268
0.12015
0.388076
0.493837
0.17398
0.972537
0.972472
0.972137
0.962627
0.501874
0.122319
0.150444
0.688341
0.940843
0.682736
0.972472
0.972187
0.971822
0.969996
0.628358
0.133971
0.131861
0.504321
0.953805
0.964185
0.972194
0.971823
0.971397
0.970704
0.803592
0.183591
0.129752
0.133966
0.644816
0.969717
0.969292
0.971397
0.970576
0.970089
0.955481
0.446058
0.127497
0.119923
0.385365
0.97177
0.66623
0.968204
0.970065
0.969108
0.968219
0.739232
0.119923
0.118091
0.117024
0.476803
0.0352415
0.585715
0.968683
0.968217
0.967785
0.957611
0.442451
0.117024
0.116796
0.116797
0.0205705
0.117033
0.835882
0.967785
0.967109
0.96686
0.89113
0.27141
0.116797
0.116779
0.0181453
0.0196377
0.321732
0.965705
0.96686
0.96545
0.932592
0.825072
0.334614
0.116784
0.0153385
0.0157609
0.0771095
0.764521
0.965452
0.963689
0.881557
0.834467
0.850494
0.787571
0.0146449
0.0166404
0.00625535
0.338831
0.872091
0.914022
0.938394
0.848146
0.846039
0.91093
0.0177724
0.0183497
0.00161004
0.138568
0.723498
0.716694
0.971012
0.948479
0.871689
0.874074
0.00351104
0.00427766
0.00078326
0.0658033
0.707411
0.696231
0.970952
0.971123
0.970134
0.964865
5.4094e-05
0.000489261
0.000553361
0.0337739
0.711553
0.69634
0.836002
0.971057
0.971123
0.965463
5.8382e-05
0.00122001
0.000831462
0.0176747
0.714084
0.697351
0.109264
0.57808
0.556637
0.483455
6.43028e-05
0.00230263
0.000858617
0.000932924
0.74868
0.743669
0.0180149
0.0182503
0.236891
0.0449881
0.00162681
0.00252423
0.00086626
0.0221836
0.799471
0.794558
0.0172898
0.0172223
0.083389
3.19587e-05
0.00338854
0.00250624
0.000830746
0.0332365
0.801362
0.802182
0.0353446
0.0167526
0.0118122
0.00295611
0.00338855
0.00316188
0.000286488
0.0498517
0.799533
0.802182
0.052635
0.0220949
0.00486343
0.000389597
0.00338684
0.00304343
2.17628e-05
0.0582835
0.801985
0.800718
0.0562023
0.0131567
0.000429315
6.95927e-06
0.00236091
0.00115146
6.29306e-06
0.0584241
0.801985
0.798808
0.0574814
7.04241e-06
6.95927e-06
6.90625e-06
2.39445e-05
0.000140539
6.29306e-06
0.0484935
0.798357
0.801433
0.0550006
7.08949e-06
6.90625e-06
6.85716e-06
0.000158943
0.000163848
4.84611e-06
0.0438559
0.798702
0.798887
0.0436763
7.22979e-06
1.12373e-05
6.8863e-06
0.00010694
0.000301017
2.90841e-06
0.0415201
0.799845
0.795483
0.0368446
7.36502e-06
4.60319e-05
0.000101606
2.32683e-06
0.000192206
2.32669e-06
0.0360198
0.80644
0.808511
0.0394256
7.59743e-06
8.26886e-05
0.000172286
2.32669e-06
2.32669e-06
2.32669e-06
0.0444536
0.823616
0.822352
0.044429
6.92845e-06
0.000112076
0.000167382
2.32669e-06
2.32669e-06
2.32669e-06
0.0589485
0.839174
0.83905
0.0588779
6.22504e-06
0.000257724
0.000429241
2.3267e-06
2.32669e-06
2.32669e-06
0.0730565
0.853601
0.854047
0.0727671
5.88699e-06
0.000366577
0.000433908
2.32671e-06
2.3267e-06
2.32669e-06
0.0860105
0.86592
0.866864
0.0855499
5.84796e-06
0.000438065
0.000167163
2.3268e-06
2.32671e-06
2.3267e-06
0.0986624
0.876455
0.877415
0.0980482
4.94078e-06
0.000432309
0.000167699
2.32807e-06
2.32685e-06
2.32674e-06
0.109175
0.884422
0.884904
0.109101
3.94014e-06
0.000330294
0.000660993
2.34661e-06
2.32862e-06
2.32705e-06
0.116497
0.889896
0.889221
0.117314
3.92474e-06
6.45995e-05
0.000105921
7.8695e-06
2.34542e-06
2.32932e-06
0.121364
0.893847
0.89204
0.123175
3.92452e-06
3.92433e-06
3.92433e-06
0.000116157
2.9314e-06
2.34601e-06
0.126107
0.897893
0.895064
0.128913
3.92465e-06
3.92443e-06
3.92433e-06
0.000513436
5.09595e-05
2.46089e-06
0.132426
0.902573
0.899181
0.136033
3.92575e-06
3.92909e-06
3.92443e-06
0.000630343
0.000230927
3.17725e-06
0.142327
0.908415
0.905271
0.145962
3.93433e-06
8.23448e-06
3.92909e-06
0.000630345
0.00029264
5.43314e-06
0.156299
0.915447
0.91312
0.158824
3.99589e-06
3.77064e-05
4.00912e-06
0.000630343
0.000288158
6.30164e-06
0.175264
0.924238
0.923043
0.176902
4.25279e-06
6.44576e-05
1.51802e-05
0.000630323
0.000284286
4.49116e-06
0.198374
0.934124
0.933266
0.199415
4.7182e-06
0.000107925
4.37047e-06
0.000630286
0.000326974
2.85518e-06
0.227154
0.944865
0.943875
0.228137
5.37441e-06
0.000144822
4.05337e-06
0.00063026
0.000173636
2.46437e-06
0.263329
0.955575
0.954664
0.263696
6.22981e-06
0.000208806
4.05115e-06
0.000238558
1.22984e-05
2.43192e-06
0.300038
0.963935
0.964036
0.299867
7.369e-06
0.000264511
9.09215e-05
2.8208e-06
2.06917e-06
2.19712e-06
0.327102
0.969382
0.970851
0.326842
8.6077e-06
0.000152318
0.000160803
2.08236e-06
1.85567e-06
1.87332e-06
0.342058
0.973578
0.975066
0.341313
9.62486e-06
4.67025e-05
8.05266e-05
1.93278e-06
1.79641e-06
1.79698e-06
0.359195
0.980032
0.978627
0.35979
1.0683e-05
0.000303622
0.00074935
1.82189e-06
1.79271e-06
1.79633e-06
0.394649
0.987683
0.983908
0.408631
1.54965e-05
0.000745598
0.000763268
1.79271e-06
1.7719e-06
1.79271e-06
0.349084
0.989637
0.997113
0.563845
3.62451e-05
0.000600963
0.000763279
4.88518e-06
1.70544e-06
1.7682e-06
0.304543
0.96922
0.997559
0.671838
0.00197477
0.000366588
0.000753558
5.14278e-05
1.28592e-06
1.6258e-06
0.48507
0.992304
0.997622
0.672213
0.0127785
2.08289e-05
0.000120504
9.93866e-05
2.38777e-07
9.02011e-07
0.63173
0.997918
0.997779
0.631023
0.00919567
2.08711e-05
2.07138e-05
4.09758e-05
1.77626e-07
0.0155688
0.825888
0.998513
0.997982
0.586888
1.86548e-05
3.04333e-05
0.000195632
3.74928e-06
9.2443e-08
0.114328
0.886883
0.99957
0.998467
0.711414
3.30714e-06
3.27716e-06
1.76996e-05
6.53931e-10
4.01156e-09
0.212514
0.946894
0.999679
0.999561
0.784476
3.33764e-06
3.24999e-06
3.25073e-06
2.72339e-10
6.53931e-10
0.325763
0.973398
0.999939
0.999676
0.890835
0.102241
3.33839e-06
3.24715e-06
1.15422e-13
3.74606e-08
0.534488
0.997755
0.99995
0.99994
0.957181
0.279288
4.65767e-06
3.42774e-06
9.14658e-16
2.64727e-06
0.730933
0.999954
0.999995
0.99996
0.999833
0.586518
8.69282e-06
2.94298e-06
-4.28256e-13
0.169962
0.925078
0.999995
0.999998
0.999999
0.99996
0.842084
0.0657763
2.59504e-10
-1.56256e-10
0.601997
0.999903
0.999998
1
1
0.999999
0.999916
0.575206
2.90736e-10
0.362174
0.976437
1
1
1
1
1
1
0.966629
0.339203
0.981819
0.981819
0.981819
0.981819
0.980171
0.977315
0.977654
0.981258
0.98108
0.924781
0.845593
0.95662
0.989781
0.975696
0.957336
0.961329
0.983535
0.928169
0.907568
0.907568
0.907568
0.907572
0.907606
0.912008
0.912744
0.912744
0.912744
0.912744
0.912742
0.912733
0.912484
0.912398
0.912317
0.912264
0.911994
0.911477
0.910755
0.90959
0.911149
0.911149
0.981819
0.981819
0.974877
0.981807
0.981719
0.977315
0.978507
0.981585
0.981067
0.891956
0.838984
0.980205
0.989838
0.989826
0.977995
0.978247
0.989555
0.989497
0.988256
0.987815
0.987781
0.987729
0.987325
0.967664
0.772795
0.713306
0.912744
0.912742
0.902218
0.685613
0.64322
0.912329
0.911722
0.864241
0.855248
0.882608
0.756458
0.66743
0.845221
0.911149
0.98169
0.97802
0.97205
0.979381
0.981643
0.977457
0.981611
0.981948
0.975602
0.854
0.835281
0.955999
0.989829
0.989838
0.989826
0.989732
0.989604
0.989291
0.986078
0.983408
0.98382
0.987398
0.979739
0.75312
0.56455
0.564464
0.564775
0.57649
0.559382
0.557279
0.556467
0.524787
0.512404
0.512404
0.512404
0.518389
0.479748
0.447643
0.46484
0.894988
0.960748
0.976495
0.981945
0.982086
0.977566
0.977442
0.979822
0.982096
0.980796
0.873156
0.835281
0.844088
0.986257
0.989826
0.9898
0.989672
0.898054
0.713937
0.713445
0.712258
0.745133
0.820418
0.593934
0.495837
0.584645
0.703989
0.819502
0.851452
0.835827
0.877647
0.969781
0.970761
0.806957
0.726379
0.680885
0.530455
0.450149
0.447643
0.447643
0.816674
0.982039
0.982115
0.982117
0.982116
0.980343
0.977451
0.977612
0.982112
0.982096
0.969479
0.853093
0.831248
0.832569
0.938967
0.989607
0.989591
0.982113
0.908127
0.821135
0.711499
0.649993
0.493384
0.369408
0.491983
0.852612
0.929489
0.930066
0.862833
0.761613
0.762648
0.865029
0.973028
0.968936
0.963265
0.969052
0.972948
0.849493
0.448893
0.623751
0.814934
0.982115
0.982117
0.982117
0.982117
0.982116
0.980855
0.977698
0.982105
0.982115
0.98209
0.956556
0.838349
0.82993
0.82993
0.853428
0.922257
0.979877
0.988418
0.938389
0.484815
0.368535
0.368626
0.36889
0.521362
0.827857
0.923605
0.965755
0.965755
0.909082
0.910642
0.971591
0.973078
0.965076
0.955595
0.964385
0.973068
0.973057
0.630165
0.926116
0.855782
0.795439
0.978862
0.982117
0.982117
0.982117
0.982117
0.981882
0.982118
0.982118
0.974267
0.921687
0.867335
0.82993
0.875845
0.907437
0.927087
0.976772
0.988683
0.988691
0.580409
0.368648
0.368314
0.393797
0.560104
0.547965
0.57786
0.833402
0.960656
0.972949
0.973057
0.973078
0.97308
0.973079
0.973073
0.973078
0.973074
0.973068
0.630208
0.926116
0.855245
0.754576
0.75504
0.847824
0.954902
0.982117
0.982117
0.982118
0.982119
0.982118
0.968093
0.883865
0.875449
0.891976
0.958523
0.986749
0.988429
0.988683
0.988693
0.988687
0.925183
0.464371
0.479548
0.548815
0.531908
0.392388
0.477782
0.777375
0.88762
0.94752
0.972949
0.973057
0.973079
0.973082
0.973082
0.973082
0.973072
0.97305
0.538498
0.926123
0.836964
0.876019
0.8119
0.798888
0.798888
0.834972
0.957493
0.982118
0.982118
0.982118
0.976123
0.912752
0.919043
0.965724
0.980732
0.984654
0.855413
0.902414
0.988683
0.988693
0.896972
0.393893
0.351896
0.423466
0.355642
0.384771
0.818547
0.971381
0.950181
0.883674
0.877198
0.890662
0.931711
0.97307
0.973082
0.923749
0.922286
0.826445
0.538608
0.923728
0.836931
0.977955
0.977346
0.945652
0.876605
0.820469
0.898923
0.982117
0.982118
0.982118
0.982118
0.982035
0.976568
0.976336
0.97524
0.81491
0.548356
0.526107
0.718576
0.726488
0.430872
0.351752
0.351824
0.351896
0.351959
0.742883
0.987736
0.987204
0.986676
0.923206
0.715818
0.327893
0.465609
0.782217
0.71286
0.368391
0.352434
0.583753
0.726719
0.908413
0.915325
0.931021
0.982427
0.982453
0.979141
0.820469
0.925721
0.982117
0.982118
0.982118
0.975446
0.947778
0.976459
0.976346
0.976288
0.967481
0.693568
0.52576
0.457624
0.407151
0.351752
0.351752
0.351752
0.36017
0.815068
0.987831
0.987789
0.987736
0.943694
0.379025
0.227619
0.158852
0.141374
0.24428
0.291064
0.224682
0.223438
0.228388
0.385876
0.89362
0.966046
0.92151
0.939993
0.982453
0.971163
0.929894
0.965657
0.982118
0.982118
0.982118
0.946271
0.869089
0.974156
0.976288
0.976205
0.976091
0.975967
0.943925
0.739315
0.494877
0.465195
0.351752
0.470471
0.95142
0.987845
0.987835
0.987832
0.965913
0.445933
0.0618077
0.0747803
0.156771
0.0899983
0.0880933
0.21815
0.323015
0.324127
0.241743
0.325838
0.906447
0.966688
0.925411
0.922234
0.944793
0.968901
0.968808
0.954043
0.982118
0.982118
0.982118
0.913625
0.868927
0.874976
0.878406
0.878639
0.949464
0.975768
0.975695
0.951662
0.614264
0.534496
0.704663
0.987845
0.987845
0.987845
0.987845
0.987789
0.827351
0.109433
0.0609924
0.0608663
0.0820363
0.0918054
0.082798
0.0856537
0.102879
0.292867
0.360315
0.608049
0.971958
0.967501
0.981409
0.922234
0.922291
0.937267
0.94512
0.93559
0.982118
0.982118
0.982118
0.917811
0.868916
0.868927
0.869036
0.901501
0.975685
0.975695
0.975684
0.967218
0.825675
0.885116
0.987843
0.987845
0.987845
0.987845
0.987838
0.987766
0.756737
0.0660064
0.0608662
0.0608199
0.0608144
0.0608148
0.0608145
0.0608148
0.0620045
0.202777
0.228499
0.842724
0.980809
0.949856
0.98353
0.98401
0.926486
0.923994
0.923741
0.935303
0.979674
0.982118
0.982118
0.949162
0.868927
0.868919
0.936631
0.975675
0.975675
0.975685
0.975129
0.97136
0.971111
0.9693
0.97605
0.987843
0.987844
0.987838
0.987766
0.986594
0.931836
0.410947
0.0612295
0.0608609
0.0608148
0.0608144
0.0608148
0.0608226
0.0609237
0.0616082
0.131169
0.902575
0.981322
0.94744
0.988348
0.988403
0.988427
0.932645
0.92353
0.923372
0.970007
0.982118
0.980973
0.945663
0.868925
0.923274
0.968184
0.975306
0.864219
0.691227
0.710451
0.726162
0.703215
0.751019
0.891974
0.925208
0.957296
0.915801
0.888748
0.944963
0.963453
0.963462
0.680075
0.365803
0.179651
0.0608148
0.0608159
0.0608797
0.0712111
0.258821
0.797642
0.981322
0.981327
0.947573
0.988403
0.988437
0.988486
0.98762
0.923476
0.923297
0.924905
0.982111
0.96466
0.937117
0.959202
0.963212
0.910339
0.706489
0.561482
0.548449
0.548412
0.548411
0.548412
0.548411
0.555779
0.713774
0.757673
0.75786
0.758494
0.864734
0.932305
0.926065
0.911815
0.909678
0.837644
0.589837
0.490934
0.229424
0.549324
0.499923
0.972957
0.981327
0.981324
0.958572
0.969911
0.988497
0.988566
0.988578
0.942777
0.92315
0.923084
0.937191
0.923069
0.937089
0.986628
0.986928
0.790371
0.548775
0.548454
0.548424
0.548419
0.548412
0.54841
0.548414
0.548435
0.6095
0.894313
0.922012
0.961545
0.967578
0.958174
0.693889
0.56166
0.56166
0.657641
0.803371
0.803893
0.803883
0.803692
0.755677
0.945978
0.981316
0.981327
0.947526
0.979981
0.988551
0.988587
0.988579
0.975212
0.923084
0.923059
0.923035
0.923032
0.963593
0.986928
0.986949
0.924549
0.561236
0.548437
0.548424
0.548424
0.558484
0.570402
0.548435
0.548465
0.634331
0.915277
0.958856
0.960002
0.958443
0.974442
0.976517
0.968661
0.705945
0.545567
0.544778
0.544779
0.662144
0.543241
0.60697
0.872466
0.980251
0.981235
0.932173
0.988579
0.9886
0.988591
0.988579
0.988596
0.942614
0.923026
0.923022
0.923028
0.950075
0.986949
0.986955
0.986949
0.907957
0.776137
0.776535
0.870566
0.944622
0.936979
0.931804
0.964972
0.982723
0.981884
0.908432
0.891327
0.891327
0.891327
0.961678
0.980937
0.981072
0.981583
0.679848
0.543645
0.543241
0.543223
0.54323
0.560249
0.856356
0.981059
0.933156
0.988609
0.988601
0.988593
0.98859
0.988603
0.970508
0.923022
0.923022
0.923022
0.933367
0.986955
0.986955
0.986955
0.986944
0.984569
0.983379
0.984217
0.984217
0.984217
0.984214
0.983889
0.983181
0.982723
0.982488
0.978962
0.917607
0.894121
0.896244
0.898522
0.941314
0.983636
0.983687
0.984697
0.647709
0.543241
0.543223
0.543399
0.693747
0.97425
0.937426
0.988599
0.98859
0.988592
0.988593
0.988592
0.976186
0.923026
0.923022
0.937705
0.98586
0.986953
0.986955
0.986953
0.973517
0.982725
0.983745
0.984198
0.984217
0.984214
0.935474
0.917911
0.966714
0.979791
0.977991
0.976931
0.977888
0.978236
0.978155
0.923778
0.902359
0.902793
0.960351
0.986006
0.986253
0.789602
0.543405
0.547775
0.903985
0.974057
0.928373
0.988604
0.98859
0.988595
0.988597
0.9886
0.986872
0.956546
0.960268
0.979579
0.98028
0.895995
0.875658
0.901438
0.973418
0.961824
0.947314
0.947768
0.940537
0.922849
0.902908
0.862739
0.761677
0.604861
0.592025
0.837697
0.976964
0.977888
0.978155
0.977631
0.977006
0.967605
0.981324
0.986305
0.98632
0.98626
0.68273
0.584149
0.931725
0.973669
0.928331
0.988592
0.988592
0.988591
0.988608
0.988617
0.988583
0.988515
0.987684
0.94424
0.862517
0.862537
0.875035
0.902328
0.903907
0.765156
0.666564
0.693449
0.679746
0.616436
0.549061
0.429493
0.2701
0.274458
0.284565
0.655025
0.89651
0.657943
0.684159
0.920234
0.985764
0.986211
0.986339
0.986323
0.98633
0.986326
0.841205
0.598792
0.861944
0.973669
0.942994
0.988592
0.988592
0.988592
0.988595
0.988611
0.988576
0.954582
0.86461
0.870571
0.871658
0.868989
0.841159
0.759263
0.496444
0.316979
0.32193
0.389335
0.432446
0.461332
0.402926
0.252049
0.251115
0.266182
0.551094
0.813614
0.625345
0.218067
0.234587
0.71428
0.985155
0.986289
0.986325
0.986335
0.986332
0.986334
0.951318
0.638876
0.817163
0.971953
0.957578
0.988592
0.988592
0.988592
0.988611
0.98859
0.978826
0.758325
0.674292
0.680897
0.811295
0.620231
0.482051
0.2322
0.124079
0.0872867
0.100528
0.115964
0.172245
0.377359
0.376188
0.133934
0.239803
0.673301
0.814163
0.813614
0.532825
0.207427
0.22624
0.79323
0.985999
0.986318
0.986339
0.986336
0.986332
0.986332
0.94445
0.656764
0.826003
0.973893
0.957087
0.988592
0.988592
0.988597
0.936752
0.790362
0.557945
0.557004
0.674245
0.68217
0.571645
0.198119
0.0510988
0.0507291
0.0506473
0.0506283
0.0506283
0.0506278
0.0506283
0.138224
0.0853725
0.0612801
0.334254
0.811274
0.813614
0.814072
0.408824
0.207427
0.290331
0.893675
0.986265
0.986356
0.986349
0.986335
0.98633
0.986331
0.910889
0.666327
0.843802
0.975741
0.958282
0.97869
0.928822
0.707286
0.587196
0.419003
0.374643
0.551161
0.676766
0.678625
0.283882
0.0508749
0.0506639
0.0506454
0.0506367
0.0506321
0.0506275
0.0506283
0.0506277
0.0506343
0.0506421
0.0506415
0.164924
0.738457
0.811274
0.808411
0.226355
0.255335
0.816614
0.985858
0.986355
0.986348
0.986345
0.98634
0.986333
0.986333
0.88934
0.674142
0.862885
0.977014
0.964798
0.611227
0.660742
0.460908
0.198727
0.19695
0.35737
0.669229
0.672431
0.397128
0.0518086
0.0506117
0.0506093
0.0506482
0.0506446
0.0506367
0.0506445
0.0506646
0.0506463
0.0506421
0.0506411
0.0506563
0.151839
0.693804
0.804038
0.47923
0.0676804
0.436323
0.953457
0.982505
0.982449
0.9843
0.98634
0.986333
0.986333
0.986333
0.936837
0.679887
0.889785
0.978408
0.94951
0.506893
0.29532
0.198727
0.196877
0.196479
0.471987
0.653655
0.60078
0.203902
0.0609701
0.0525256
0.0506456
0.0506434
0.050651
0.0506372
0.0509367
0.0540856
0.0508815
0.0506981
0.0506563
0.0507861
0.399964
0.687538
0.531575
0.0812066
0.0484122
0.184714
0.303409
0.723251
0.941761
0.943532
0.945988
0.977282
0.98633
0.986333
0.98632
0.749358
0.936558
0.97876
0.910888
0.374235
0.199965
0.196877
0.196394
0.196479
0.196415
0.200276
0.409542
0.424307
0.425717
0.327672
0.0613572
0.0512352
0.050861
0.0533739
0.234279
0.202472
0.0540443
0.0511424
0.0507858
0.229515
0.576735
0.562484
0.146257
0.0484122
0.048083
0.0482042
0.050745
0.14567
0.768759
0.954264
0.944531
0.952827
0.986292
0.98632
0.986282
0.918519
0.975811
0.97876
0.910308
0.675088
0.223995
0.200044
0.201296
0.497334
0.513917
0.252438
0.251592
0.285049
0.341303
0.262869
0.108525
0.0617744
0.0735105
0.478764
0.50328
0.32721
0.0583138
0.0538459
0.0516186
0.467795
0.586011
0.335027
0.0486139
0.048083
0.048083
0.048083
0.100555
0.704634
0.976207
0.98524
0.982187
0.979398
0.986256
0.986282
0.769482
0.913458
0.977741
0.977716
0.91029
0.988027
0.988002
0.987994
0.987882
0.98767
0.928344
0.421013
0.36131
0.777492
0.956936
0.712391
0.603084
0.839236
0.985574
0.960519
0.388991
0.0611545
0.0577124
0.0578774
0.238529
0.611025
0.591815
0.195975
0.0490355
0.0486139
0.048083
0.375664
0.907967
0.971323
0.983625
0.985419
0.985691
0.985955
0.98605
0.918359
0.544071
0.879002
0.977665
0.977341
0.910289
0.988047
0.988027
0.987986
0.987692
0.987259
0.98531
0.985079
0.985406
0.98557
0.985624
0.985638
0.98564
0.98564
0.98564
0.932387
0.28421
0.0625602
0.0602507
0.0919917
0.588325
0.611025
0.495642
0.191494
0.185265
0.418162
0.774172
0.963839
0.969697
0.970514
0.97028
0.793106
0.930506
0.98586
0.985955
0.769885
0.538096
0.668294
0.976867
0.974949
0.910289
0.988028
0.987987
0.962553
0.79767
0.822645
0.954381
0.984547
0.984642
0.984118
0.98557
0.985624
0.985638
0.98564
0.973103
0.415573
0.118815
0.122107
0.281848
0.690907
0.690225
0.536711
0.356737
0.438315
0.831751
0.963246
0.969271
0.969283
0.969333
0.870263
0.473253
0.374326
0.731486
0.98543
0.98586
0.824012
0.536006
0.465242
0.821408
0.950123
0.958733
0.987568
0.975754
0.69347
0.274348
0.375142
0.59289
0.569354
0.567316
0.764526
0.958517
0.985375
0.985591
0.786395
0.203233
0.118305
0.121745
0.369647
0.71886
0.716954
0.634988
0.424277
0.421407
0.913266
0.969142
0.969271
0.969283
0.969271
0.69573
0.384769
0.370417
0.370721
0.408556
0.91057
0.984761
0.918785
0.463729
0.463923
0.481956
0.941409
0.97545
0.728081
0.373767
0.142915
0.163567
0.114591
0.0819245
0.0865811
0.114436
0.504111
0.371826
0.254314
0.219867
0.145688
0.141382
0.241981
0.638687
0.71886
0.71886
0.639145
0.554122
0.55221
0.944382
0.969025
0.969025
0.969142
0.851231
0.428733
0.370799
0.370417
0.370344
0.370417
0.370721
0.424328
0.638504
0.581892
0.463797
0.463797
0.534495
0.96053
0.975488
0.122848
0.129913
0.0779619
0.0779619
0.0779619
0.0781426
0.177142
0.224478
0.196407
0.195889
0.201266
0.294946
0.578794
0.661849
0.716648
0.716285
0.627778
0.59629
0.701008
0.821821
0.961812
0.968151
0.968698
0.969025
0.756549
0.440479
0.429218
0.5966
0.389023
0.370417
0.370383
0.370704
0.477424
0.507546
0.468822
0.463797
0.615594
0.899298
0.975488
0.97549
0.117665
0.180148
0.220035
0.0780889
0.0781426
0.0787256
0.0793666
0.123438
0.299306
0.479007
0.762085
0.762256
0.757056
0.560104
0.115511
0.140185
0.281194
0.728073
0.942395
0.967446
0.967627
0.967829
0.968151
0.929281
0.577545
0.453561
0.854263
0.854441
0.784661
0.472786
0.471145
0.840601
0.929552
0.892527
0.850129
0.877388
0.952312
0.975453
0.975489
0.975489
0.118638
0.314712
0.344192
0.343608
0.265114
0.190709
0.310818
0.540933
0.642771
0.710593
0.701627
0.485775
0.0838671
0.0342611
0.0344497
0.0373288
0.11783
0.687355
0.949318
0.967533
0.967551
0.967627
0.967485
0.9467
0.722641
0.678165
0.855202
0.855657
0.854441
0.761615
0.572142
0.940428
0.940419
0.940445
0.942112
0.944236
0.948989
0.859106
0.844186
0.89651
0.141864
0.310956
0.220108
0.178988
0.17862
0.360023
0.835197
0.835197
0.793681
0.35766
0.0340739
0.0340754
0.0340776
0.0340987
0.0341922
0.0346474
0.0370461
0.229503
0.632912
0.936986
0.967556
0.967551
0.967352
0.965791
0.832351
0.686857
0.834223
0.854441
0.843458
0.60172
0.584198
0.775333
0.932613
0.939728
0.890247
0.736929
0.736455
0.741715
0.744942
0.746497
0.146927
0.151858
0.267764
0.754391
0.936402
0.92639
0.815208
0.252912
0.034074
0.034074
0.0340737
0.0340745
0.0340777
0.034084
0.0340418
0.0340319
0.0342736
0.0360815
0.204346
0.824915
0.967551
0.967561
0.967438
0.966357
0.865259
0.718399
0.712328
0.721751
0.646853
0.636251
0.801396
0.950135
0.952937
0.753681
0.733513
0.733513
0.733513
0.784185
0.895896
0.836653
0.1901
0.297033
0.902813
0.968252
0.973762
0.485795
0.0343778
0.0341307
0.0340748
0.0340542
0.0342404
0.0344412
0.0344439
0.0343439
0.0339971
0.0340472
0.0340277
0.0342916
0.0383191
0.469686
0.967551
0.967438
0.967408
0.967149
0.952974
0.767595
0.709591
0.701377
0.698795
0.873406
0.951759
0.964399
0.96411
0.94897
0.82227
0.733513
0.842978
0.946434
0.946481
0.94653
0.82722
0.461583
0.636083
0.934184
0.983009
0.970619
0.454443
0.0471737
0.0376056
0.0340785
0.0340301
0.0340287
0.0340417
0.0340212
0.0340222
0.0340217
0.0340275
0.0340232
0.0341228
0.0372577
0.343478
0.895107
0.967193
0.967146
0.966944
0.949854
0.807738
0.764665
0.916085
0.965274
0.965177
0.964758
0.9644
0.963879
0.922313
0.884793
0.914563
0.87089
0.94653
0.94653
0.975543
0.729627
0.618305
0.901877
0.98303
0.983042
0.983041
0.983034
0.971294
0.477457
0.0370598
0.0340205
0.0340172
0.0340205
0.0340212
0.0340199
0.0340202
0.0340217
0.0340289
0.0340825
0.0345531
0.123626
0.606951
0.961064
0.96608
0.965981
0.965029
0.962362
0.965412
0.965375
0.965274
0.965063
0.919752
0.908801
0.926114
0.926114
0.926114
0.666395
0.859859
0.94653
0.977785
0.978007
0.9736
0.966024
0.983042
0.983042
0.983042
0.983041
0.983036
0.983079
0.983009
0.821225
0.314535
0.0522762
0.0340202
0.0340202
0.03402
0.0340202
0.0340217
0.0340289
0.0340825
0.0345531
0.0452158
0.293993
0.878405
0.965787
0.96579
0.965675
0.965474
0.965418
0.965375
0.910558
0.790538
0.851379
0.798945
0.843521
0.758021
0.666391
0.772976
0.946521
0.968567
0.977257
0.981945
0.982558
0.983042
0.983042
0.983042
0.983042
0.983041
0.983031
0.983236
0.983635
0.963046
0.712318
0.461847
0.436565
0.410009
0.190668
0.0927873
0.0585651
0.0345531
0.0366548
0.0803332
0.133109
0.320692
0.859495
0.965675
0.928663
0.874641
0.830374
0.777887
0.632308
0.632817
0.819664
0.677414
0.673121
0.669339
0.666559
0.845611
0.945441
0.116905
0.248754
0.832385
0.953028
0.947028
0.983042
0.983042
0.983042
0.983037
0.983035
0.982953
0.861585
0.549291
0.541318
0.615653
0.7492
0.751151
0.746033
0.736289
0.722685
0.673445
0.594939
0.624664
0.629112
0.482509
0.824848
0.957407
0.681704
0.290952
0.190396
0.170147
0.122876
0.313921
0.832524
0.883399
0.933678
0.894641
0.930557
0.981238
0.933042
0.116784
0.116882
0.11764
0.183946
0.822377
0.983042
0.983042
0.983042
0.983038
0.983052
0.983216
0.89684
0.555408
0.541789
0.541404
0.541789
0.573276
0.751634
0.843006
0.843034
0.843006
0.806902
0.769856
0.799343
0.823931
0.826204
0.782255
0.269433
0.111838
0.111622
0.111548
0.111531
0.111526
0.618851
0.981187
0.98126
0.98126
0.98126
0.98126
0.934936
0.116782
0.116784
0.116882
0.191139
0.841721
0.983042
0.983042
0.983042
0.983042
0.983041
0.983065
0.983019
0.98287
0.952117
0.862646
0.832781
0.840803
0.766379
0.647761
0.522641
0.39628
0.237077
0.202585
0.245322
0.404685
0.482547
0.255622
0.111659
0.111597
0.111532
0.111527
0.111526
0.111526
0.50509
0.978222
0.981258
0.981261
0.98126
0.980405
0.970746
0.529035
0.43356
0.661457
0.947062
0.983042
0.983042
0.983042
0.983042
0.983041
0.983036
0.980359
0.982966
0.982927
0.980484
0.964667
0.97079
0.974086
0.974142
0.97099
0.516649
0.116615
0.114373
0.112526
0.112558
0.112573
0.112385
0.111877
0.111584
0.111532
0.111526
0.111526
0.111526
0.111526
0.637677
0.980966
0.981228
0.981258
0.967247
0.965389
0.966326
0.977296
0.978604
0.981118
0.983035
0.983042
0.983042
0.983041
0.983037
0.98302
0.971749
0.973857
0.982927
0.97489
0.966562
0.966602
0.974073
0.974134
0.97419
0.974186
0.961215
0.454278
0.112559
0.112559
0.11254
0.112381
0.111908
0.111584
0.111532
0.111526
0.111526
0.111526
0.111526
0.332366
0.937364
0.980696
0.980966
0.979025
0.953851
0.914857
0.883098
0.949651
0.982856
0.982893
0.982968
0.964061
0.94958
0.946785
0.92815
0.951428
0.961269
0.976489
0.982655
0.980438
0.979991
0.97995
0.970176
0.970008
0.974184
0.97419
0.974186
0.97413
0.97303
0.651236
0.266427
0.17418
0.126097
0.111554
0.111528
0.111526
0.111526
0.169518
0.472639
0.940953
0.980237
0.98043
0.956008
0.787164
0.513098
0.325889
0.349431
0.970521
0.982802
0.981044
0.878818
0.797679
0.790566
0.624705
0.521488
0.538179
0.67261
0.757933
0.829094
0.938529
0.979053
0.979456
0.972546
0.972032
0.974186
0.974186
0.970714
0.973729
0.973113
0.972764
0.943058
0.883843
0.793989
0.753
0.666167
0.667786
0.720402
0.840079
0.949534
0.957354
0.89712
0.545319
0.164267
0.0176307
0.0193264