/*--------------------------------*- C++ -*----------------------------------*\
  =========                 |
  \\      /  F ield         | OpenFOAM: The Open Source CFD Toolbox
   \\    /   O peration     | Website:  https://openfoam.org
    \\  /    A nd           | Version:  8
     \\/     M anipulation  |
\*---------------------------------------------------------------------------*/
FoamFile
{
    version     2.0;
    format      ascii;
    class       surfaceScalarField;
    location    "4.15";
    object      phi;
}
// * * * * * * * * * * * * * * * * * * * * * * * * * * * * * * * * * * * * * //

dimensions      [0 3 -1 0 0 0 0];

internalField   nonuniform List<scalar> 
18095
(
1.95394e-08
-1.71921e-07
1.52381e-07
2.31336e-08
-1.98128e-07
1.94534e-07
2.01281e-08
-2.05942e-07
2.08947e-07
1.12318e-08
-2.10684e-07
2.19581e-07
1.8129e-10
-2.13189e-07
2.24239e-07
-1.08156e-08
-2.13468e-07
2.24465e-07
-1.98563e-08
-2.10733e-07
2.19774e-07
-2.30618e-08
-2.0588e-07
2.09085e-07
-1.95354e-08
-1.98105e-07
1.94579e-07
-1.71951e-07
1.52415e-07
1.55686e-08
-1.87489e-07
1.58108e-08
-1.9837e-07
1.20055e-08
-2.02137e-07
6.51767e-09
-2.05196e-07
3.6168e-10
-2.07033e-07
-6.26995e-09
-2.06837e-07
-1.19853e-08
-2.05018e-07
-1.57914e-08
-2.02074e-07
-1.55412e-08
-1.98355e-07
-1.87492e-07
6.8598e-09
-1.94349e-07
8.32198e-09
-1.99832e-07
7.19453e-09
-2.01009e-07
3.87267e-09
-2.01875e-07
-3.70675e-10
-2.02789e-07
-4.42641e-09
-2.02781e-07
-7.23837e-09
-2.02206e-07
-8.30144e-09
-2.01011e-07
-6.8519e-09
-1.99805e-07
-1.94344e-07
4.56002e-09
-1.98909e-07
4.69418e-09
-1.99966e-07
3.66957e-09
-1.99985e-07
2.16953e-09
-2.00374e-07
2.24595e-10
-2.00844e-07
-1.81215e-09
-2.00744e-07
-3.58951e-09
-2.00428e-07
-4.69319e-09
-1.99907e-07
-4.56306e-09
-1.99935e-07
-1.98907e-07
1.09109e-09
1.12465e-09
1.14006e-09
7.65595e-10
-7.87402e-11
-8.2296e-10
-1.25129e-09
-1.15849e-09
-1.09325e-09
-2.61368e-08
-1.97198e-07
2.23335e-07
-2.88111e-08
-1.98722e-07
2.01397e-07
-2.49768e-08
-2.01254e-07
1.97419e-07
-1.45078e-08
-2.01559e-07
1.9109e-07
-1.26064e-09
-2.01879e-07
1.88632e-07
1.22851e-08
-2.01658e-07
1.88112e-07
2.36114e-08
-2.00934e-07
1.89608e-07
2.84188e-08
-2.01289e-07
1.96481e-07
2.5864e-08
-1.98543e-07
2.01097e-07
-1.96965e-07
2.22829e-07
-9.97333e-09
-1.87225e-07
-1.53098e-08
-1.93386e-07
-1.41486e-08
-2.02415e-07
-8.2261e-09
-2.07481e-07
-1.82635e-09
-2.08279e-07
5.35969e-09
-2.08844e-07
1.33576e-08
-2.08932e-07
1.51448e-08
-2.03076e-07
9.91651e-09
-1.93314e-07
-1.87048e-07
-1.08549e-08
-1.7637e-07
-8.87341e-09
-1.95368e-07
-6.31377e-09
-2.04975e-07
-3.79809e-09
-2.09997e-07
9.51024e-10
-2.13028e-07
5.39667e-09
-2.13289e-07
6.79894e-09
-2.10334e-07
8.70694e-09
-2.04984e-07
1.07272e-08
-1.95334e-07
-1.76321e-07
-6.83745e-09
-1.69533e-07
-8.76933e-09
-1.93436e-07
-8.19673e-09
-2.05547e-07
-2.85706e-09
-2.15337e-07
9.06934e-10
-2.16792e-07
4.0816e-09
-2.16464e-07
8.41908e-09
-2.14672e-07
8.83208e-09
-2.05397e-07
6.85011e-09
-1.93352e-07
-1.69471e-07
-1.71515e-08
-1.60534e-08
-1.26533e-08
-8.40946e-09
-9.62165e-10
7.039e-09
1.21412e-08
1.58298e-08
1.7056e-08
3.10567e-08
-1.5783e-07
1.26773e-07
3.69032e-08
-1.99499e-07
1.93653e-07
3.18431e-08
-2.11293e-07
2.16354e-07
2.05457e-08
-2.16542e-07
2.2784e-07
4.61549e-09
-2.17864e-07
2.33794e-07
-1.27632e-08
-2.17343e-07
2.34722e-07
-2.66888e-08
-2.15538e-07
2.29463e-07
-3.536e-08
-2.09041e-07
2.17713e-07
-2.86271e-08
-1.98077e-07
1.91344e-07
-1.56972e-07
1.28345e-07
1.60529e-08
-1.73883e-07
1.80638e-08
-2.0151e-07
1.36363e-08
-2.06866e-07
5.2419e-09
-2.08148e-07
-3.94936e-09
-2.08672e-07
-1.25388e-08
-2.08754e-07
-1.81577e-08
-2.09919e-07
-2.00513e-08
-2.07148e-07
-1.67464e-08
-2.01382e-07
-1.73718e-07
1.07398e-08
-1.84622e-07
1.02759e-08
-2.01046e-07
9.06706e-09
-2.05657e-07
5.50394e-09
-2.04585e-07
1.52566e-09
-2.04694e-07
-2.79746e-09
-2.04431e-07
-8.09082e-09
-2.04626e-07
-9.94671e-09
-2.05292e-07
-1.02972e-08
-2.01031e-07
-1.84016e-07
7.84202e-09
-1.92464e-07
6.29106e-09
-1.99495e-07
6.33853e-09
-2.05705e-07
1.10242e-09
-1.99349e-07
-7.10485e-10
-2.02881e-07
-2.19654e-09
-2.02945e-07
-6.88002e-09
-1.99942e-07
-6.6822e-09
-2.0549e-07
-8.2576e-09
-1.99456e-07
-1.92273e-07
3.08707e-08
3.27721e-08
2.4487e-08
1.6228e-08
1.97873e-09
-1.28539e-08
-2.31883e-08
-3.21968e-08
-3.05555e-08
1.0548e-07
-6.62448e-10
-1.04818e-07
1.03675e-07
1.8048e-09
9.89611e-08
4.71391e-09
9.63494e-08
2.61156e-09
9.62765e-08
7.28118e-11
7.9107e-08
1.71694e-08
5.02749e-08
2.88319e-08
2.24161e-08
2.78587e-08
1.74661e-08
4.95004e-09
4.07878e-09
1.33873e-08
1.86309e-08
1.91135e-08
-3.84069e-08
2.2256e-09
1.82099e-08
1.29164e-09
5.6477e-09
1.71062e-08
-1.32033e-08
3.3484e-08
-1.63051e-08
4.12335e-08
9.41964e-09
5.36491e-08
1.64162e-08
7.0677e-08
1.08308e-08
6.58383e-08
9.78875e-09
2.49796e-08
4.49374e-08
-9.13091e-08
2.09149e-10
1.10213e-07
-7.85603e-08
5.46104e-09
-5.8411e-08
-1.45018e-08
-2.88262e-08
-4.27882e-08
6.36157e-09
-5.1493e-08
5.00267e-08
-3.42456e-08
8.87087e-08
-2.22659e-08
1.10532e-07
-1.09922e-08
1.0749e-07
1.28307e-08
5.30759e-08
7.93933e-08
-1.74376e-07
-3.7269e-08
2.11854e-07
-1.35445e-07
-3.34697e-08
-9.43436e-08
-5.56034e-08
-5.11442e-08
-8.59878e-08
-7.52011e-09
-9.51172e-08
4.80109e-08
-8.97767e-08
8.94106e-08
-6.36656e-08
8.42736e-08
-5.85538e-09
2.27039e-08
7.44003e-08
1.22923e-07
-4.71429e-08
-2.04347e-07
-4.70474e-08
2.14126e-07
-1.97116e-07
-4.07013e-08
-1.68795e-07
-8.39244e-08
-1.38877e-07
-1.15906e-07
-1.0982e-07
-1.24174e-07
-8.43346e-08
-1.15262e-07
-8.12806e-08
-6.67197e-08
-1.25401e-07
3.82647e-08
-1.81151e-07
1.30151e-07
1.52858e-07
-2.11087e-07
-2.18977e-07
-3.68551e-08
2.08785e-07
-2.17102e-07
-4.25765e-08
-2.09708e-07
-9.13184e-08
-2.09903e-07
-1.15712e-07
-2.14027e-07
-1.20049e-07
-2.21666e-07
-1.07623e-07
-2.32146e-07
-5.62403e-08
-2.4311e-07
4.92286e-08
-2.36171e-07
1.23212e-07
1.41572e-07
-2.24886e-07
-1.67221e-07
-2.18673e-08
1.52233e-07
-1.80643e-07
-2.91544e-08
-2.12058e-07
-5.99032e-08
-2.43881e-07
-8.38888e-08
-2.69598e-07
-9.43322e-08
-2.89301e-07
-8.79198e-08
-2.83654e-07
-6.18882e-08
-2.48261e-07
1.38356e-08
-2.14383e-07
8.93347e-08
1.22401e-07
-1.95212e-07
-1.50829e-07
-1.94903e-08
1.48452e-07
-1.60819e-07
-1.91642e-08
-1.85951e-07
-3.47707e-08
-2.23029e-07
-4.68112e-08
-2.66266e-07
-5.10946e-08
-3.05198e-07
-4.89877e-08
-3.22548e-07
-4.45384e-08
-2.81104e-07
-2.76083e-08
-2.12828e-07
2.10587e-08
6.45047e-08
-1.54932e-07
-3.74474e-08
-2.50819e-08
4.3039e-08
-3.57725e-08
-2.08391e-08
-5.11271e-08
-1.9416e-08
-7.64966e-08
-2.14417e-08
-1.13703e-07
-1.38878e-08
-1.51753e-07
-1.09381e-08
-1.95141e-07
-1.15023e-09
-2.07184e-07
-1.55649e-08
-1.76824e-07
-9.30159e-09
6.23004e-09
-1.1855e-07
-5.32892e-09
-3.25441e-08
1.27911e-08
-3.30486e-11
-2.6135e-08
-2.72308e-09
-1.67259e-08
-1.04516e-08
-1.37131e-08
-1.04693e-08
-1.387e-08
-1.1996e-08
-9.41132e-09
-2.42713e-08
1.1125e-08
-2.65125e-08
-1.33237e-08
-3.93344e-08
3.52039e-09
2.51022e-08
-5.82066e-08
-4.22908e-09
-3.29457e-08
4.63074e-09
-1.84878e-09
-2.85153e-08
3.9695e-09
-2.25441e-08
1.3803e-08
-2.35465e-08
1.78623e-08
-1.79294e-08
2.07973e-08
-1.23463e-08
3.44299e-08
-2.50751e-09
3.37282e-08
-1.26219e-08
4.24604e-08
-5.21169e-09
3.12117e-08
3.63511e-08
2.70978e-08
-2.06722e-08
-3.93714e-08
2.92536e-08
-3.06711e-08
3.50516e-08
-2.83422e-08
3.59639e-08
-2.44589e-08
3.77107e-08
-1.96761e-08
4.63023e-08
-2.09379e-08
5.62176e-08
-1.24228e-08
4.72193e-08
-3.62342e-09
3.87686e-08
3.23906e-09
1.82286e-08
5.17518e-08
3.28923e-07
3.57545e-08
-3.8535e-07
2.3279e-07
6.54627e-08
1.53943e-07
5.05043e-08
9.33723e-08
3.61118e-08
6.08113e-08
1.28849e-08
3.9009e-08
8.64446e-10
3.39195e-08
-7.33322e-09
3.70649e-08
-6.76882e-09
4.13244e-08
-1.02036e-09
1.11357e-08
4.84174e-08
5.3237e-07
6.74953e-09
-5.03365e-07
5.31194e-07
6.66384e-08
4.65608e-07
1.16091e-07
3.71284e-07
1.30436e-07
2.77322e-07
1.06847e-07
1.96035e-07
8.21511e-08
1.368e-07
5.19016e-08
1.03488e-07
2.65432e-08
8.35068e-08
1.8961e-08
2.89231e-08
6.57192e-08
5.41802e-07
-5.83699e-08
-4.76683e-07
6.04004e-07
4.43665e-09
6.34335e-07
8.57603e-08
6.1965e-07
1.45121e-07
5.53032e-07
1.73465e-07
4.61685e-07
1.73498e-07
3.58761e-07
1.54826e-07
2.63779e-07
1.21524e-07
1.88022e-07
9.47181e-08
9.15834e-08
1.25362e-07
5.58592e-07
-1.14617e-07
-5.02345e-07
6.16329e-07
-5.32995e-08
6.74149e-07
2.79401e-08
7.40728e-07
7.85419e-08
7.82939e-07
1.31253e-07
7.58314e-07
1.98123e-07
6.70101e-07
2.43039e-07
5.518e-07
2.39825e-07
4.40609e-07
2.05909e-07
1.70809e-07
3.61384e-07
5.90726e-07
-1.33141e-07
-5.72203e-07
6.14964e-07
-7.75369e-08
6.73609e-07
-3.07044e-08
7.52858e-07
-7.07257e-10
8.16412e-07
6.7699e-08
8.30374e-07
1.84162e-07
8.00736e-07
2.72677e-07
7.78065e-07
2.62496e-07
7.22397e-07
2.61577e-07
2.49194e-07
6.44013e-07
6.28151e-07
-1.63879e-07
-5.97412e-07
6.41461e-07
-9.08469e-08
6.71359e-07
-6.06028e-08
7.05935e-07
-3.52831e-08
7.1431e-07
5.93242e-08
7.0021e-07
1.98262e-07
7.34755e-07
2.38132e-07
7.34039e-07
2.63212e-07
6.71757e-07
3.23859e-07
3.2211e-07
5.98841e-07
3.67955e-07
-2.45379e-07
-2.86455e-07
4.75058e-07
-1.9795e-07
5.56513e-07
-1.42058e-07
5.74188e-07
-5.29574e-08
5.65766e-07
6.77458e-08
5.70888e-07
1.93139e-07
5.44361e-07
2.64658e-07
4.70643e-07
3.36931e-07
3.85907e-07
4.08594e-07
3.88727e-07
3.1929e-07
-1.06939e-07
-2.16688e-07
7.82483e-08
-1.06982e-07
-1.97906e-07
-9.52964e-08
-1.53744e-07
-1.02532e-07
-4.57212e-08
-1.07706e-07
7.29195e-08
-1.12475e-07
1.97909e-07
-1.63213e-07
3.15396e-07
-2.40775e-07
4.14492e-07
-2.61601e-07
4.29421e-07
3.98108e-07
-2.70983e-07
-6.24266e-07
-1.52142e-07
5.59721e-07
-6.8281e-07
-1.39363e-07
-7.24398e-07
-1.12156e-07
-7.67087e-07
-3.03196e-09
-7.72492e-07
7.83246e-08
-7.58126e-07
1.83542e-07
-7.12392e-07
2.69662e-07
-6.14745e-07
3.16845e-07
-5.25493e-07
3.40169e-07
2.97807e-07
-4.25192e-07
-8.00239e-07
-5.88319e-08
7.06929e-07
-8.80532e-07
-5.90703e-08
-9.31448e-07
-6.12408e-08
-9.0627e-07
-2.82098e-08
-8.61954e-07
3.40088e-08
-8.14708e-07
1.36296e-07
-7.45683e-07
2.00637e-07
-6.24781e-07
1.95944e-07
-4.73941e-07
1.89328e-07
1.62468e-07
-3.38602e-07
-6.37024e-07
-7.69762e-08
6.55169e-07
-6.36235e-07
-5.98601e-08
-6.398e-07
-5.76758e-08
-6.27378e-07
-4.06314e-08
-5.86867e-07
-6.50248e-09
-5.06205e-07
5.56339e-08
-4.09193e-07
1.03624e-07
-3.24669e-07
1.1142e-07
-2.53861e-07
1.1852e-07
1.15531e-07
-2.06923e-07
-4.91417e-07
-9.97359e-08
5.14177e-07
-4.62204e-07
-8.90736e-08
-4.32258e-07
-8.76213e-08
-4.00701e-07
-7.21888e-08
-3.74712e-07
-3.24921e-08
-3.32807e-07
1.37289e-08
-2.75683e-07
4.65001e-08
-2.30196e-07
6.59329e-08
-2.02749e-07
9.1074e-08
1.10006e-07
-1.97224e-07
-5.09569e-07
-8.08838e-08
4.90717e-07
-5.02394e-07
-9.62486e-08
-4.53193e-07
-1.36823e-07
-3.97044e-07
-1.28338e-07
-3.31213e-07
-9.83232e-08
-2.68435e-07
-4.90493e-08
-2.35824e-07
1.38889e-08
-2.17111e-07
4.72206e-08
-1.99524e-07
7.34864e-08
1.04462e-07
-1.9398e-07
-3.20598e-07
-1.05106e-07
3.4482e-07
-3.36851e-07
-7.99957e-08
-3.80961e-07
-9.27128e-08
-3.79136e-07
-1.30163e-07
-3.24118e-07
-1.53342e-07
-2.45327e-07
-1.27839e-07
-2.16243e-07
-1.51958e-08
-2.09017e-07
3.99952e-08
-2.08495e-07
7.29644e-08
1.03079e-07
-2.07112e-07
-1.7385e-07
-2.95628e-07
3.64372e-07
-3.04601e-08
-2.23387e-07
1.1431e-08
-1.34604e-07
-1.70034e-08
-1.01729e-07
-1.2823e-07
-4.21151e-08
-2.08342e-07
-4.7728e-08
-1.86074e-07
-3.74638e-08
-1.65889e-07
1.98103e-08
-1.84766e-07
9.1842e-08
1.20416e-07
-2.02103e-07
1.90106e-07
-2.44694e-07
-2.41039e-07
1.67093e-07
-2.00374e-07
2.19893e-07
-1.87404e-07
2.79308e-07
-1.61144e-07
2.63569e-07
-2.63755e-08
1.89338e-07
2.65028e-08
9.54941e-08
5.63796e-08
4.89575e-08
6.6347e-08
6.71798e-09
1.34082e-07
1.85621e-07
-5.84879e-08
5.17467e-07
-2.11817e-07
-5.50344e-07
4.91529e-07
-1.74436e-07
4.45333e-07
-1.41207e-07
4.02522e-07
-1.18333e-07
4.50091e-07
-7.39442e-08
4.89023e-07
-1.24297e-08
4.69875e-07
7.55266e-08
4.37688e-07
9.85343e-08
4.22573e-07
1.49196e-07
1.91854e-07
4.16341e-07
6.37667e-07
-2.19233e-07
-6.30251e-07
6.69977e-07
-2.06745e-07
7.16726e-07
-1.87957e-07
7.42967e-07
-1.44574e-07
7.68167e-07
-9.91449e-08
8.10385e-07
-5.46472e-08
8.6473e-07
2.11816e-08
8.58269e-07
1.04995e-07
8.24758e-07
1.82708e-07
1.97892e-07
8.18721e-07
6.98147e-07
-2.29108e-07
-6.88273e-07
7.03545e-07
-2.12143e-07
7.12278e-07
-1.9669e-07
7.46682e-07
-1.78978e-07
8.02129e-07
-1.54593e-07
8.8033e-07
-1.32848e-07
9.82103e-07
-8.05907e-08
1.09915e-06
-1.20537e-08
1.22565e-06
5.62069e-08
1.70861e-07
1.25268e-06
7.7097e-07
-2.29418e-07
-7.7066e-07
7.75527e-07
-2.16699e-07
7.79386e-07
-2.0055e-07
7.82558e-07
-1.8215e-07
7.88052e-07
-1.60086e-07
8.03189e-07
-1.47985e-07
8.45552e-07
-1.22953e-07
9.22135e-07
-8.86374e-08
1.04251e-06
-6.4166e-08
-2.53195e-09
1.2159e-06
7.74508e-07
-2.27866e-07
-7.7606e-07
7.69681e-07
-2.11872e-07
7.51967e-07
-1.82836e-07
7.43027e-07
-1.73211e-07
7.47725e-07
-1.64784e-07
7.48628e-07
-1.48888e-07
7.54159e-07
-1.28484e-07
7.78606e-07
-1.13085e-07
8.16535e-07
-1.02094e-07
-1.02587e-07
9.16589e-07
6.48566e-07
-2.39135e-07
-6.37297e-07
6.37716e-07
-2.01021e-07
6.28208e-07
-1.73329e-07
6.23266e-07
-1.68268e-07
6.09823e-07
-1.51341e-07
5.97745e-07
-1.3681e-07
5.99456e-07
-1.30196e-07
6.24399e-07
-1.38029e-07
6.92671e-07
-1.70366e-07
-2.12508e-07
8.02592e-07
3.18763e-07
-2.32258e-07
-3.2564e-07
3.34952e-07
-2.1721e-07
3.7343e-07
-2.11807e-07
4.04801e-07
-1.99639e-07
4.28653e-07
-1.75194e-07
4.64786e-07
-1.72942e-07
5.25108e-07
-1.90518e-07
6.33635e-07
-2.46555e-07
7.69524e-07
-3.06254e-07
-3.35103e-07
8.92118e-07
7.04684e-08
-2.67948e-07
-3.47784e-08
1.423e-07
-2.89042e-07
2.38652e-07
-3.08159e-07
3.35399e-07
-2.96386e-07
4.25233e-07
-2.65028e-07
5.43832e-07
-2.91541e-07
6.95586e-07
-3.42272e-07
8.42456e-07
-3.93425e-07
9.5279e-07
-4.16588e-07
-3.95555e-07
1.01324e-06
4.02133e-08
-3.67405e-07
5.92439e-08
1.79166e-07
-4.27995e-07
3.16534e-07
-4.45527e-07
4.40015e-07
-4.19866e-07
5.5915e-07
-3.84163e-07
6.86901e-07
-4.19292e-07
8.03663e-07
-4.59034e-07
8.80916e-07
-4.70679e-07
9.20564e-07
-4.56236e-07
-3.05635e-07
8.30645e-07
1.76682e-07
-5.39367e-07
-4.72014e-09
2.95146e-07
-5.46459e-07
3.78994e-07
-5.29375e-07
4.47773e-07
-4.88646e-07
5.26153e-07
-4.62542e-07
5.78785e-07
-4.71924e-07
5.82769e-07
-4.63017e-07
5.13292e-07
-4.01202e-07
3.78796e-07
-3.2174e-07
-1.03486e-07
1.76647e-07
2.1009e-07
-6.48592e-07
-1.00865e-07
2.22961e-07
-5.59329e-07
1.92795e-07
-4.99209e-07
1.52383e-07
-4.48234e-07
1.15938e-07
-4.26097e-07
4.95552e-08
-4.05541e-07
-1.0242e-08
-4.0322e-07
-2.88907e-08
-3.82553e-07
-5.72921e-08
-2.93338e-07
-1.33133e-07
-2.76446e-08
-8.12508e-08
-6.16885e-07
4.95442e-08
-1.70291e-07
-4.7029e-07
-2.54522e-07
-4.14977e-07
-2.92773e-07
-4.09985e-07
-2.96553e-07
-4.22317e-07
-2.80331e-07
-4.21762e-07
-2.74647e-07
-4.08904e-07
-2.92131e-07
-3.65068e-07
-2.72843e-07
-3.12627e-07
-2.61262e-07
-1.44714e-07
-4.15136e-07
-5.37799e-07
3.3605e-07
-4.81275e-07
-4.04151e-07
-5.10866e-07
-3.85386e-07
-5.24154e-07
-3.96697e-07
-5.41824e-07
-4.04647e-07
-5.56386e-07
-4.072e-07
-6.00097e-07
-3.65193e-07
-6.90683e-07
-2.74481e-07
-7.02155e-07
-3.01154e-07
-3.29466e-07
-6.33951e-07
-6.08326e-07
-4.66246e-07
5.36773e-07
-6.38738e-07
-3.73738e-07
-6.63085e-07
-3.61039e-07
-6.92025e-07
-3.67758e-07
-7.22204e-07
-3.74468e-07
-7.35824e-07
-3.9358e-07
-7.5542e-07
-3.45596e-07
-7.86637e-07
-2.43265e-07
-8.77195e-07
-2.10596e-07
-2.76327e-07
-9.30335e-07
-6.88608e-07
-4.64738e-07
6.871e-07
-6.92814e-07
-3.69533e-07
-6.99957e-07
-3.53896e-07
-7.09425e-07
-3.58291e-07
-7.10371e-07
-3.73522e-07
-7.42252e-07
-3.61699e-07
-7.67794e-07
-3.20055e-07
-7.47895e-07
-2.63163e-07
-7.50529e-07
-2.07961e-07
-2.09586e-07
-8.1727e-07
-7.26421e-07
-5.74093e-07
8.35776e-07
-6.8119e-07
-4.14763e-07
-6.68115e-07
-3.66972e-07
-6.71172e-07
-3.55234e-07
-6.90386e-07
-3.54308e-07
-7.11929e-07
-3.40156e-07
-7.73801e-07
-2.58184e-07
-7.72264e-07
-2.647e-07
-7.84544e-07
-1.95681e-07
-1.511e-07
-8.43029e-07
-7.80119e-07
-7.97229e-07
1.00326e-06
-6.06615e-07
-5.88267e-07
-5.35665e-07
-4.37922e-07
-5.18964e-07
-3.71935e-07
-5.29193e-07
-3.44078e-07
-5.4329e-07
-3.26059e-07
-5.97777e-07
-2.03696e-07
-7.08235e-07
-1.54242e-07
-7.92633e-07
-1.11284e-07
-9.68941e-08
-8.46838e-07
-9.67723e-07
-9.79967e-07
1.15046e-06
-6.79451e-07
-8.76539e-07
-4.77999e-07
-6.39375e-07
-4.39434e-07
-4.10499e-07
-4.74665e-07
-3.08848e-07
-5.34744e-07
-2.6598e-07
-6.30495e-07
-1.07945e-07
-7.73492e-07
-1.12442e-08
-8.23955e-07
-6.08201e-08
-8.378e-08
-8.37069e-07
-1.10604e-06
-1.06614e-06
1.19221e-06
-8.91929e-07
-1.09065e-06
-5.83412e-07
-9.47892e-07
-3.94281e-07
-5.9963e-07
-4.0779e-07
-2.95339e-07
-4.52368e-07
-2.21401e-07
-4.22991e-07
-1.37322e-07
-4.59327e-07
2.5091e-08
-5.82016e-07
6.18695e-08
1.04303e-08
-6.76226e-07
-1.07876e-06
-9.45354e-07
9.57977e-07
-9.80135e-07
-1.18927e-06
-7.55744e-07
-1.17228e-06
-4.37177e-07
-9.18197e-07
-3.29023e-07
-4.03493e-07
-3.75009e-07
-1.75415e-07
-3.66521e-07
-1.45811e-07
-2.87483e-07
-5.3947e-08
-2.99948e-07
7.43347e-08
1.0178e-07
-3.91297e-07
-8.72198e-07
-5.08132e-07
4.34977e-07
-9.17283e-07
-1.14419e-06
-8.32311e-07
-1.25726e-06
-5.98298e-07
-1.15221e-06
-3.1403e-07
-6.87761e-07
-3.06284e-07
-1.8316e-07
-3.51561e-07
-1.00535e-07
-3.2391e-07
-8.15981e-08
-2.90945e-07
4.13699e-08
9.89359e-08
-2.88101e-07
-3.49525e-07
4.36347e-08
-2.02244e-07
-8.44105e-07
-6.49608e-07
-8.11173e-07
-1.29019e-06
-6.96439e-07
-1.26694e-06
-3.91182e-07
-9.93018e-07
-2.79998e-07
-2.94343e-07
-3.6614e-07
-1.43931e-08
-4.52698e-07
4.96071e-09
-4.44041e-07
3.27123e-08
5.54204e-08
-4.00526e-07
-2.16265e-07
3.6816e-08
2.23082e-07
-7.01066e-07
-1.64816e-07
-7.20222e-07
-1.27103e-06
-6.73058e-07
-1.31411e-06
-4.80798e-07
-1.18528e-06
-1.66873e-07
-6.08269e-07
-2.42875e-07
6.16088e-08
-3.13545e-07
7.56312e-08
-3.38876e-07
5.80431e-08
5.16344e-08
-3.35089e-07
-2.94655e-07
1.71084e-08
3.14362e-07
-5.60459e-07
1.00991e-07
-5.88255e-07
-1.24324e-06
-5.33774e-07
-1.36859e-06
-4.16888e-07
-1.30216e-06
-7.6793e-08
-9.48363e-07
-1.34628e-07
1.19444e-07
-1.796e-07
1.20603e-07
-1.95055e-07
7.34974e-08
5.55875e-08
-1.99008e-07
5.72569e-08
2.93847e-09
-4.30869e-08
-2.94221e-08
1.87666e-07
-3.00113e-07
-9.72553e-07
-3.16644e-07
-1.35206e-06
-2.78318e-07
-1.34049e-06
-7.45019e-08
-1.15218e-06
-8.91645e-08
1.34107e-07
-8.90932e-08
1.20532e-07
-7.98366e-08
6.42406e-08
3.29322e-08
-5.71814e-08
-7.99797e-08
-1.38128e-07
2.21043e-07
1.4126e-07
-3.35586e-08
-1.1746e-07
-7.13828e-07
-1.30887e-07
-1.33863e-06
-1.3274e-07
-1.33864e-06
-5.07769e-08
-1.23414e-06
-8.66597e-08
1.6999e-07
-1.01125e-07
1.34997e-07
-5.2692e-08
1.58075e-08
-3.22414e-08
1.24816e-08
-2.52532e-07
-2.50457e-07
3.64858e-07
1.03456e-07
-3.8954e-07
-3.18417e-08
-5.78516e-07
-5.89974e-08
-1.31148e-06
-7.15701e-08
-1.32607e-06
-1.98853e-08
-1.28583e-06
-4.4104e-08
1.94209e-07
-8.69627e-08
1.77856e-07
-8.71647e-08
1.60094e-08
-9.00562e-08
-2.93499e-08
-4.0515e-08
-2.96056e-07
8.61172e-08
6.74507e-09
-4.36796e-07
-1.61226e-08
-5.55653e-07
-8.19434e-08
-1.24566e-06
-8.34054e-08
-1.3246e-06
-8.78151e-08
-1.28142e-06
6.34905e-08
4.29036e-08
4.94668e-08
1.91879e-07
3.91521e-08
2.6324e-08
-1.48549e-07
9.76445e-08
1.25868e-07
-3.85662e-07
-3.6257e-08
8.89098e-08
-3.99842e-07
7.78272e-08
-5.44576e-07
6.36839e-08
-1.23151e-06
-1.40604e-08
-1.24686e-06
-4.55217e-08
-1.24996e-06
4.70627e-07
-4.73245e-07
2.26409e-07
4.36096e-07
1.82017e-07
7.07166e-08
-3.19534e-07
3.53e-07
3.12766e-08
-3.23225e-07
-9.3711e-08
1.29492e-08
-3.81509e-07
1.51395e-09
-5.33136e-07
1.32713e-09
-1.23132e-06
-2.75605e-09
-1.24278e-06
-5.63444e-09
-1.24708e-06
4.87577e-07
-9.6646e-07
3.2662e-07
5.97054e-07
-6.01886e-08
4.57526e-07
4.69036e-08
-4.26622e-07
1.62891e-07
-3.08468e-07
-1.77646e-07
1.25462e-07
-3.44085e-07
3.13438e-09
-4.10808e-07
-9.89083e-09
-1.21829e-06
-1.522e-08
-1.23745e-06
-2.76245e-08
-1.23467e-06
2.16987e-07
-1.21107e-06
2.38474e-07
5.75571e-07
1.66455e-07
5.29543e-07
1.56523e-07
5.68349e-08
1.71591e-07
-3.1934e-07
-1.60718e-07
6.59941e-08
-2.38482e-07
7.38922e-09
-3.52204e-07
1.95131e-09
-1.21286e-06
-8.21231e-09
-1.22729e-06
-2.11338e-08
-1.22175e-06
-8.87321e-09
-1.22333e-06
7.46198e-08
4.92079e-07
3.5384e-07
2.50324e-07
-1.49224e-07
6.59584e-07
9.54378e-08
-3.5887e-07
-5.5909e-08
-3.4898e-08
-1.08143e-07
4.81824e-08
-4.35283e-07
4.29548e-08
-1.20764e-06
2.48405e-08
-1.20917e-06
1.97255e-08
-1.21664e-06
-1.66552e-08
-1.18695e-06
5.41973e-07
-6.65507e-08
8.77864e-07
-8.55692e-08
-2.69762e-07
9.98408e-07
-1.20142e-07
-3.77517e-07
1.38788e-07
-1.33131e-07
-9.51655e-08
1.59132e-08
-5.8433e-07
8.28377e-09
-1.20001e-06
-1.87047e-09
-1.19902e-06
-1.51121e-08
-1.20339e-06
-4.30431e-09
-1.19776e-06
4.72822e-07
-5.43682e-07
6.36031e-07
-2.4877e-07
-1.96271e-07
5.62543e-07
-3.70598e-07
-3.46085e-07
3.3916e-07
-1.64603e-07
-3.01171e-07
-1.17756e-08
-7.37163e-07
-2.26945e-08
-1.18909e-06
-3.12606e-08
-1.19045e-06
-5.19004e-08
-1.18275e-06
-6.11382e-08
-1.18852e-06
8.12638e-08
-6.86081e-07
1.11888e-07
-2.7939e-07
-2.03148e-07
1.1876e-07
-1.82211e-07
-4.06146e-07
2.42268e-07
-2.19161e-08
-4.61464e-07
3.8011e-08
-7.97092e-07
2.77871e-08
-1.17887e-06
4.22868e-09
-1.16689e-06
-5.31822e-09
-1.17321e-06
-1.77395e-08
-1.1761e-06
-2.31544e-08
-6.80663e-07
-3.86402e-08
-2.63905e-07
-1.75859e-07
-6.59263e-08
-1.58053e-09
-4.04857e-07
2.92504e-10
6.01007e-09
-4.69059e-07
1.64204e-08
-8.07503e-07
1.9656e-09
-1.16441e-06
-1.20299e-08
-1.1529e-06
-3.84812e-08
-1.14676e-06
-5.19839e-08
-1.1626e-06
-7.41792e-08
-6.5847e-07
-1.29399e-07
-2.0868e-07
-1.04874e-07
-2.00387e-07
5.26325e-08
-3.8238e-07
-7.51145e-08
4.29303e-08
-4.59365e-07
4.0524e-08
-8.05103e-07
2.1971e-08
-1.14586e-06
-2.15288e-09
-1.12877e-06
-2.20448e-08
-1.12687e-06
-4.2953e-08
-1.14169e-06
-8.4532e-08
-6.16891e-07
-1.57888e-07
-1.35324e-07
-2.40437e-08
-2.38725e-07
4.65807e-08
-3.74078e-07
-5.48793e-08
4.66086e-08
-4.59393e-07
4.47367e-08
-8.03228e-07
2.33392e-08
-1.12447e-06
3.01002e-09
-1.10844e-06
-1.53451e-08
-1.10851e-06
-3.64949e-08
-1.12054e-06
-3.98078e-08
-6.13579e-07
-7.21534e-08
-1.02978e-07
6.73929e-08
-1.6359e-07
3.24132e-08
-3.72266e-07
-3.42291e-08
3.40007e-08
-4.60987e-07
3.4049e-08
-8.03277e-07
1.82496e-08
-1.10866e-06
9.89132e-10
-1.09118e-06
-1.73959e-08
-1.09012e-06
-3.36856e-08
-1.10425e-06
-2.20592e-08
-6.25212e-07
-3.55136e-08
-8.95211e-08
8.15006e-08
-4.96249e-08
3.17981e-08
-3.74974e-07
-2.90895e-08
3.1534e-08
-4.60729e-07
3.15386e-08
-8.03288e-07
1.62909e-08
-1.09342e-06
-2.13331e-11
-1.07487e-06
-1.78091e-08
-1.07234e-06
-3.33998e-08
-1.08866e-06
-1.027e-08
-6.48338e-07
3.58874e-09
-1.0338e-07
7.166e-08
1.34295e-08
4.04013e-08
-3.75319e-07
-4.00544e-08
3.72494e-08
-4.57566e-07
3.46905e-08
-8.00722e-07
1.70557e-08
-1.07578e-06
-6.39783e-10
-1.05717e-06
-1.68826e-08
-1.05609e-06
-3.32551e-08
-1.07229e-06
-1.95868e-09
-6.79633e-07
8.68885e-09
-1.1403e-07
9.43143e-08
-1.39673e-08
5.56857e-08
-3.66795e-07
-6.4212e-08
4.25415e-08
-4.44438e-07
3.3988e-08
-7.92172e-07
1.60274e-08
-1.05782e-06
-3.32603e-10
-1.04081e-06
-1.75624e-08
-1.03886e-06
-3.36084e-08
-1.05624e-06
-1.03206e-08
-7.0292e-07
-4.55486e-08
-7.88023e-08
8.31873e-08
-3.44225e-08
8.45285e-08
-3.33385e-07
-1.17938e-07
5.10366e-08
-4.10941e-07
3.35905e-08
-7.74725e-07
1.53166e-08
-1.03955e-06
-1.96609e-09
-1.02353e-06
-1.76511e-08
-1.02318e-06
-3.87866e-08
-1.03511e-06
-6.08106e-08
-6.80892e-07
-9.80496e-08
-4.15657e-08
-3.0484e-10
-1.45606e-08
1.07594e-07
-2.82335e-07
-1.58642e-07
5.96084e-08
-3.62939e-07
3.42436e-08
-7.49353e-07
1.57355e-08
-1.02104e-06
-1.19003e-09
-1.00661e-06
-1.80176e-08
-1.00635e-06
-3.6132e-08
-1.01699e-06
-3.5544e-09
-7.13471e-07
8.10928e-08
-1.26217e-07
-5.46179e-08
1.35405e-07
9.70787e-08
-2.38472e-07
-1.40942e-07
6.17146e-08
-3.27584e-07
3.67305e-08
-7.24371e-07
1.7976e-08
-1.00228e-06
-4.36626e-10
-9.88194e-07
-1.91121e-08
-9.87676e-07
-3.59111e-08
-1.0002e-06
-2.22849e-08
-7.271e-07
7.52838e-08
-2.23785e-07
-8.75674e-08
1.08235e-07
8.79882e-08
-2.08359e-07
-1.18101e-07
6.7286e-08
-3.06884e-07
3.85383e-08
-6.95626e-07
1.90714e-08
-9.8282e-07
-6.29049e-10
-9.68493e-07
-1.99885e-08
-9.68317e-07
-3.80541e-08
-9.8213e-07
-4.7162e-08
-7.17991e-07
-2.92873e-08
-2.41658e-07
-1.18805e-07
1.95118e-09
1.36794e-07
-1.77556e-07
-1.67598e-07
9.37026e-08
-2.63789e-07
3.99149e-08
-6.41836e-07
1.95977e-08
-9.62502e-07
-1.17444e-09
-9.47721e-07
-2.21486e-08
-9.47343e-07
-4.17532e-08
-9.62525e-07
-5.88669e-08
-7.00875e-07
-7.28781e-08
-2.27648e-07
-1.20255e-07
-7.14285e-08
1.58088e-07
-1.56089e-07
-1.79555e-07
9.16896e-08
-1.97398e-07
4.16019e-08
-5.9175e-07
2.09983e-08
-9.41898e-07
-7.56421e-10
-9.25966e-07
-2.16104e-08
-9.26489e-07
-4.13723e-08
-9.42763e-07
-6.64337e-08
-6.75813e-07
-1.13533e-07
-1.80548e-07
-8.73753e-08
-1.46411e-07
1.27467e-07
-1.25537e-07
-1.58021e-07
6.78079e-08
-1.37741e-07
4.40747e-08
-5.68017e-07
2.30225e-08
-9.20846e-07
-7.54261e-11
-9.02868e-07
-2.24213e-08
-9.04143e-07
-4.28345e-08
-9.2235e-07
-6.34576e-08
-6.55191e-07
-1.16756e-07
-1.27246e-07
-3.72437e-08
-1.66886e-07
1.15314e-07
-8.76836e-08
-1.53168e-07
5.5598e-08
-7.80202e-08
4.39078e-08
-5.56326e-07
2.24583e-08
-8.99397e-07
9.21484e-10
-8.81332e-07
-2.22681e-08
-8.80953e-07
-4.40115e-08
-9.00606e-07
-5.70757e-08
-6.42127e-07
-1.01912e-07
-8.24075e-08
1.15428e-08
-1.50699e-07
1.29633e-07
-4.32351e-08
-1.7408e-07
4.98855e-08
1.72621e-09
4.48532e-08
-5.51296e-07
2.32492e-08
-8.77793e-07
3.31419e-09
-8.61397e-07
-2.18826e-08
-8.55757e-07
-4.47927e-08
-8.77695e-07
-4.90608e-08
-6.37858e-07
-7.50692e-08
-5.63974e-08
5.23554e-08
-1.15882e-07
1.91218e-07
2.26264e-08
-2.57079e-07
5.44267e-08
1.38512e-07
4.6103e-08
-5.42976e-07
2.38948e-08
-8.55586e-07
3.54674e-09
-8.41048e-07
-2.2784e-08
-8.29426e-07
-4.60662e-08
-8.54412e-07
-4.39309e-08
-6.39994e-07
-5.09581e-08
-4.93694e-08
6.72941e-08
-6.58954e-08
1.40289e-07
1.54292e-07
-2.71956e-07
2.62559e-08
2.52542e-07
4.66904e-08
-5.63412e-07
2.45542e-08
-8.3345e-07
5.82345e-10
-8.17077e-07
-2.03881e-08
-8.08455e-07
-4.43026e-08
-8.30497e-07
-4.42847e-08
-6.40014e-07
-5.58372e-08
-3.78148e-08
6.41116e-08
-5.26535e-08
-1.89482e-08
2.66896e-07
-9.36572e-08
8.03802e-09
2.25551e-07
4.47108e-08
-6.00086e-07
2.33184e-08
-8.12058e-07
-4.43542e-09
-7.89323e-07
-1.8614e-08
-7.94277e-07
-4.13784e-08
-8.07734e-07
-3.47668e-08
-6.46624e-07
-2.79472e-08
-4.46326e-08
6.33194e-08
-2.71549e-08
-4.83614e-08
2.82669e-07
3.25889e-08
2.99179e-08
1.47268e-07
4.15887e-08
-6.1176e-07
1.96952e-08
-7.90165e-07
-1.5329e-09
-7.68095e-07
-1.63597e-08
-7.7945e-07
-3.58945e-08
-7.882e-07
-4.87122e-08
-6.33804e-07
7.7232e-09
-1.01069e-07
4.72047e-08
2.38392e-08
-2.35585e-08
2.59038e-07
4.71883e-08
4.71084e-08
7.66007e-08
4.55548e-08
-6.10207e-07
2.46899e-08
-7.693e-07
1.10097e-08
-7.54414e-07
-2.09474e-08
-7.47493e-07
-4.24067e-08
-7.66741e-07
-7.67525e-08
-5.99458e-07
-1.31008e-08
-1.6472e-07
2.63266e-08
7.77712e-09
-5.68715e-09
2.19398e-07
4.53257e-08
6.11527e-08
9.76204e-09
6.56404e-08
-6.14695e-07
3.83008e-08
-7.41959e-07
8.35477e-09
-7.24468e-07
-1.7074e-08
-7.22064e-07
-4.98228e-08
-7.33988e-07
-1.07537e-07
-5.41749e-07
-1.29071e-07
-1.43185e-07
-2.10983e-08
-8.16455e-08
-2.85995e-08
2.05894e-07
4.2101e-08
-7.35328e-09
-1.14812e-08
1.00794e-09
-6.23058e-07
-2.26596e-08
-7.18291e-07
-5.66803e-08
-6.90448e-07
-6.8941e-08
-7.09803e-07
-8.9423e-08
-7.13506e-07
-8.87385e-08
-5.42434e-07
-1.43196e-07
-8.87277e-08
-6.37805e-08
-1.00514e-07
6.29088e-08
1.70028e-07
-2.70418e-08
3.06069e-08
2.08284e-08
-3.28387e-08
-5.59614e-07
-6.32273e-08
-6.87902e-07
-6.50238e-08
-6.88651e-07
-1.06506e-07
-6.68321e-07
-1.28416e-07
-6.91598e-07
-8.70149e-08
-5.83833e-07
-1.28636e-07
-4.71075e-08
-2.11351e-08
-1.71283e-07
8.8546e-08
1.15196e-07
-3.37133e-08
1.32171e-07
-2.27972e-08
8.79521e-08
-5.15397e-07
6.09046e-08
-6.60856e-07
3.31218e-08
-6.60868e-07
1.00878e-08
-6.45287e-07
-2.48624e-08
-6.56648e-07
5.69379e-08
-6.65634e-07
6.56795e-08
-5.58502e-08
2.03865e-08
2.41578e-08
4.58164e-08
7.28726e-08
-3.4951e-09
9.37167e-08
-7.07005e-08
1.07981e-07
-5.2966e-07
7.89628e-08
-6.31837e-07
5.604e-08
-6.37946e-07
2.48203e-08
-6.14067e-07
7.23679e-10
-6.32551e-07
-2.01294e-08
-6.44781e-07
4.27519e-08
-1.18732e-07
6.60289e-09
5.6535e-08
6.99667e-08
3.72005e-08
-3.42968e-08
1.33365e-07
-1.34105e-07
1.68129e-07
-5.64422e-07
1.4023e-07
-6.03938e-07
8.90094e-08
-5.86725e-07
6.97838e-08
-5.94842e-07
3.32181e-08
-5.95985e-07
-4.42385e-08
-5.67323e-07
-5.31096e-08
-1.09862e-07
-2.12961e-08
-2.52096e-08
1.65557e-08
3.02583e-08
-9.61395e-09
8.72117e-08
-2.04759e-07
9.39357e-08
-5.71145e-07
5.30475e-08
-5.6305e-07
2.41538e-08
-5.57831e-07
-6.69855e-09
-5.63989e-07
-3.99847e-08
-5.62699e-07
-1.42022e-07
-4.65286e-07
-1.34621e-07
-1.17265e-07
-7.0119e-08
-8.57967e-08
7.44205e-08
7.68333e-09
-5.18431e-08
1.35676e-07
-2.66005e-07
9.43818e-08
-5.2985e-07
6.32919e-08
-5.3196e-07
2.83302e-08
-5.2287e-07
-9.68392e-09
-5.25975e-07
-5.30561e-08
-5.19327e-07
-5.91897e-08
-4.59154e-07
-1.22542e-08
-1.64198e-07
-6.96873e-08
-1.26843e-08
1.04157e-07
-9.82288e-09
-8.6649e-08
1.06418e-07
-2.6827e-07
5.74828e-08
-4.80913e-07
1.35396e-08
-4.88017e-07
-1.68179e-08
-4.92512e-07
-4.89806e-08
-4.93813e-07
-8.09338e-08
-4.87373e-07
-3.79334e-08
-5.02154e-07
-2.1937e-08
-1.80194e-07
-4.72877e-08
-4.43345e-08
1.46253e-07
-3.71391e-08
-1.18937e-07
1.28347e-07
-2.50375e-07
8.75392e-08
-4.40106e-07
5.18452e-08
-4.52323e-07
9.81104e-09
-4.50478e-07
-3.49914e-08
-4.4901e-07
-7.61978e-08
-4.46167e-07
-1.39849e-07
-4.38502e-07
-1.26693e-07
-1.93349e-07
-6.94041e-08
-1.04575e-07
1.25141e-07
-7.80623e-08
-8.42178e-08
1.20545e-07
-2.45783e-07
6.3916e-08
-3.83479e-07
8.12688e-09
-3.96534e-07
-3.257e-08
-4.09781e-07
-7.07011e-08
-4.10879e-07
-1.12538e-07
-4.0433e-07
-1.70084e-07
-3.80957e-07
-1.32054e-07
-2.31377e-07
-9.42212e-08
-1.07236e-07
5.39738e-08
-1.00791e-07
-3.12459e-08
1.32023e-07
-3.23836e-07
9.69428e-08
-3.48398e-07
6.35678e-08
-3.63159e-07
1.85905e-08
-3.64804e-07
-3.3995e-08
-3.58294e-07
-9.1976e-08
-3.46349e-07
-1.39354e-07
-3.33579e-07
-8.34195e-08
-2.87311e-07
-1.35948e-07
-4.16921e-08
1.7022e-07
-1.22232e-07
-1.48781e-07
1.21531e-07
-2.75138e-07
7.12888e-08
-2.98156e-07
1.63546e-08
-3.08225e-07
-3.33188e-08
-3.1513e-07
-7.60667e-08
-3.15546e-07