/*--------------------------------*- C++ -*----------------------------------*\
  =========                 |
  \\      /  F ield         | OpenFOAM: The Open Source CFD Toolbox
   \\    /   O peration     | Website:  https://openfoam.org
    \\  /    A nd           | Version:  8
     \\/     M anipulation  |
\*---------------------------------------------------------------------------*/
FoamFile
{
    version     2.0;
    format      ascii;
    class       surfaceScalarField;
    location    "0.05";
    object      alphaPhi0.water;
}
// * * * * * * * * * * * * * * * * * * * * * * * * * * * * * * * * * * * * * //

dimensions      [0 3 -1 0 0 0 0];

internalField   nonuniform List<scalar> 
18095
(
1.57833e-07
-9.50008e-07
7.92174e-07
1.69434e-07
-1.24745e-06
1.23585e-06
1.25149e-07
-1.25058e-06
1.29487e-06
6.65201e-08
-1.26811e-06
1.32674e-06
3.4114e-14
-1.28385e-06
1.35037e-06
-6.65201e-08
-1.28385e-06
1.35037e-06
-1.2515e-07
-1.26811e-06
1.32674e-06
-1.69434e-07
-1.25058e-06
1.29487e-06
-1.57833e-07
-1.24745e-06
1.23585e-06
-9.50007e-07
7.92174e-07
1.11579e-07
-1.06159e-06
1.04748e-07
-1.24062e-06
7.58262e-08
-1.22166e-06
4.11676e-08
-1.23345e-06
1.14858e-13
-1.24268e-06
-4.11674e-08
-1.24268e-06
-7.58261e-08
-1.23345e-06
-1.04748e-07
-1.22166e-06
-1.11579e-07
-1.24062e-06
-1.06159e-06
7.10657e-08
-1.13265e-06
5.79768e-08
-1.22753e-06
4.45558e-08
-1.20824e-06
2.49024e-08
-1.2138e-06
2.64882e-13
-1.21778e-06
-2.49019e-08
-1.21778e-06
-4.45553e-08
-1.2138e-06
-5.79766e-08
-1.20824e-06
-7.10658e-08
-1.22753e-06
-1.13265e-06
4.52696e-08
-1.17792e-06
3.0503e-08
-1.21276e-06
2.3865e-08
-1.2016e-06
1.33638e-08
-1.20329e-06
1.92263e-13
-1.20442e-06
-1.33634e-08
-1.20442e-06
-2.38647e-08
-1.20329e-06
-3.05029e-08
-1.2016e-06
-4.52697e-08
-1.21276e-06
-1.17792e-06
2.20785e-08
9.3136e-09
7.71064e-09
4.41592e-09
1.38856e-13
-4.4157e-09
-7.71055e-09
-9.31362e-09
-2.20786e-08
-1.76773e-07
-1.14788e-06
1.32465e-06
-2.19597e-07
-1.21167e-06
1.2545e-06
-1.64781e-07
-1.22067e-06
1.16585e-06
-8.66365e-08
-1.21148e-06
1.13334e-06
-2.49954e-13
-1.20829e-06
1.12166e-06
8.6636e-08
-1.20829e-06
1.12166e-06
1.64781e-07
-1.21148e-06
1.13334e-06
2.19597e-07
-1.22067e-06
1.16585e-06
1.76773e-07
-1.21168e-06
1.2545e-06
-1.14788e-06
1.32465e-06
-9.00145e-08
-1.05786e-06
-9.59855e-08
-1.2057e-06
-7.897e-08
-1.23769e-06
-4.40195e-08
-1.24643e-06
4.87097e-14
-1.25231e-06
4.40196e-08
-1.25231e-06
7.89701e-08
-1.24643e-06
9.59855e-08
-1.23769e-06
9.00143e-08
-1.2057e-06
-1.05786e-06
-5.81185e-08
-9.99745e-07
-5.57536e-08
-1.20807e-06
-4.64377e-08
-1.247e-06
-2.7062e-08
-1.26581e-06
1.76622e-13
-1.27937e-06
2.70624e-08
-1.27937e-06
4.64382e-08
-1.26581e-06
5.57542e-08
-1.247e-06
5.8119e-08
-1.20807e-06
-9.99745e-07
-7.59776e-08
-9.23767e-07
-6.26597e-08
-1.22139e-06
-4.83212e-08
-1.26134e-06
-2.7535e-08
-1.2866e-06
1.3672e-13
-1.30691e-06
2.75353e-08
-1.30691e-06
4.83215e-08
-1.2866e-06
6.26602e-08
-1.26134e-06
7.59782e-08
-1.22139e-06
-9.23767e-07
-1.31593e-07
-1.17129e-07
-8.36014e-08
-4.34596e-08
4.85515e-14
4.34597e-08
8.36014e-08
1.17129e-07
1.31593e-07
-3.97575e-08
-9.57857e-07
9.97614e-07
2.73273e-10
-1.28927e-06
1.24924e-06
8.21887e-09
-1.27299e-06
1.26505e-06
4.5189e-09
-1.24353e-06
1.24723e-06
-2.4192e-12
-1.23635e-06
1.24087e-06
-4.52327e-09
-1.23635e-06
1.24087e-06
-8.22176e-09
-1.24353e-06
1.24723e-06
-2.72677e-10
-1.27299e-06
1.26504e-06
3.97621e-08
-1.28927e-06
1.24924e-06
-9.57854e-07
9.97616e-07
3.70554e-09
-9.61562e-07
1.80924e-08
-1.30366e-06
1.4956e-08
-1.26986e-06
7.71501e-09
-1.23629e-06
-1.7441e-12
-1.22863e-06
-7.71825e-09
-1.22863e-06
-1.49585e-08
-1.23629e-06
-1.80936e-08
-1.26986e-06
-3.70512e-09
-1.30366e-06
-9.61559e-07
1.65583e-08
-9.78121e-07
2.12516e-08
-1.30836e-06
1.39695e-08
-1.26257e-06
7.25805e-09
-1.22958e-06
-1.24613e-12
-1.22137e-06
-7.26037e-09
-1.22137e-06
-1.39716e-08
-1.22958e-06
-2.12535e-08
-1.26257e-06
-1.65599e-08
-1.30836e-06
-9.78119e-07
6.99865e-08
-1.04811e-06
5.9397e-08
-1.29777e-06
4.08821e-08
-1.24406e-06
2.28435e-08
-1.21154e-06
-5.97985e-13
-1.19853e-06
-2.28447e-08
-1.19853e-06
-4.08834e-08
-1.21154e-06
-5.93982e-08
-1.24406e-06
-6.99875e-08
-1.29777e-06
-1.04811e-06
2.76544e-07
2.33277e-07
1.55073e-07
7.68725e-08
-6.77176e-13
-7.68739e-08
-1.55074e-07
-2.33279e-07
-2.76545e-07
-2.66984e-228
-3.96069e-224
1.15939e-228
-3.72496e-228
-9.91244e-224
-3.03133e-228
-1.6324e-223
-3.56738e-228
-1.59265e-223
-4.01946e-228
-2.24214e-223
-3.66817e-228
-3.2485e-223
-1.81143e-228
-4.5053e-223
1.63804e-228
-5.84119e-223
6.9604e-228
-7.18789e-223
-9.13834e-223
1.62926e-227
8.62707e-223
-2.4742e-218
-4.41204e-223
1.42643e-222
-3.44943e-218
2.13071e-222
-4.46486e-218
2.91854e-222
-5.34655e-218
3.98734e-222
-6.51376e-218
5.27799e-222
-7.80259e-218
6.66717e-222
-9.01429e-218
7.95548e-222
-9.92256e-218
8.99328e-222
-1.04377e-217
-1.11545e-217
1.02267e-221
1.06493e-217
-2.90999e-213
-6.01663e-218
1.56187e-217
-3.60081e-213
2.17302e-217
-4.37704e-213
3.00633e-217
-5.33354e-213
4.02015e-217
-6.35162e-213
5.0955e-217
-7.25012e-213
6.07763e-217
-7.87086e-213
6.83901e-217
-8.13789e-213
7.32902e-217
-8.08061e-213
-8.08328e-213
7.84581e-217
3.92668e-213
-1.85962e-208
-1.86108e-213
6.27322e-213
-2.22229e-208
9.44747e-213
-2.6674e-208
1.36292e-212
-3.19077e-208
1.85154e-212
-3.69912e-208
2.34315e-212
-4.08467e-208
2.7635e-212
-4.27862e-208
3.06647e-212
-4.27678e-208
3.24631e-212
-4.12502e-208
-3.99181e-208
3.41314e-212
5.43033e-209
-8.0622e-204
5.06152e-210
1.34032e-208
-9.52613e-204
2.42517e-208
-1.12906e-203
3.83784e-208
-1.32761e-203
5.48045e-208
-1.50863e-203
7.12273e-208
-1.63002e-203
8.51687e-208
-1.67055e-203
9.52061e-208
-1.63673e-203
1.01293e-207
-1.55215e-203
-1.47326e-203
1.06378e-207
-1.231e-204
-2.64781e-199
2.99283e-204
1.03003e-204
-3.09735e-199
3.89934e-204
-3.63484e-199
7.65221e-204
-4.21785e-199
1.20572e-203
-4.7225e-199
1.65151e-203
-5.0255e-199
2.03607e-203
-5.07571e-199
2.32052e-203
-4.90835e-199
2.50299e-203
-4.60477e-199
-4.31799e-199
2.64781e-203
-9.48157e-200
-6.99578e-195
1.3259e-199
-4.10434e-200
-8.11764e-195
2.85436e-200
-9.44502e-195
1.12661e-199
-1.08442e-194
2.12824e-199
-1.2006e-194
3.16016e-199
-1.26355e-194
4.07027e-199
-1.26309e-194
4.76529e-199
-1.21055e-194
5.23591e-199
-1.1276e-194
-1.04906e-194
5.60313e-199
-3.0601e-195
-1.5474e-190
3.78838e-195
-2.01087e-195
-1.78274e-190
-5.60835e-196
-2.05868e-190
1.16522e-195
-2.34274e-190
3.16538e-195
-2.57057e-190
5.26044e-195
-2.68262e-190
7.14597e-195
-2.66153e-190
8.62606e-195
-2.53494e-190
9.67097e-195
-2.35018e-190
-2.17547e-190
1.04846e-194
-7.15472e-191
-2.94197e-186
8.44549e-191
-5.31391e-191
-3.36797e-186
-2.74005e-191
-3.86261e-186
5.17131e-192
-4.36191e-186
4.09974e-191
-4.75074e-186
7.89929e-191
-4.92501e-186
1.13725e-190
-4.85888e-186
1.4156e-190
-4.60756e-186
1.61804e-190
-4.25893e-186
-3.93003e-186
1.7761e-190
-1.36955e-186
-4.89294e-182
1.57987e-186
-1.07379e-186
-5.56899e-182
-6.56227e-187
-6.34701e-182
-1.1756e-187
-7.11957e-182
4.73737e-187
-7.70626e-182
1.09619e-186
-7.94684e-182
1.67122e-186
-7.80716e-182
2.13884e-186
-7.381e-182
2.48605e-186
-6.81026e-182
-6.27309e-182
2.75837e-186
-2.25884e-182
-7.20404e-178
2.5736e-182
-1.81844e-182
-8.1555e-178
-1.19746e-182
-9.24312e-178
-3.95932e-183
-1.0308e-177
4.96018e-183
-1.10995e-177
1.42295e-182
-1.13976e-177
2.28504e-182
-1.11618e-177
2.99321e-182
-1.05309e-177
3.527e-182
-9.70716e-178
-8.93362e-178
3.94791e-182
-3.29427e-178
-9.46849e-174
3.72955e-178
-2.68735e-178
-1.06662e-173
-1.84053e-178
-1.20288e-173
-7.49919e-179
-1.33466e-173
4.72043e-179
-1.43079e-173
1.73121e-178
-1.46416e-173
2.90725e-178
-1.43042e-173
3.88052e-178
-1.34771e-173
4.62281e-178
-1.24177e-173
-1.14252e-173
5.21171e-178
-4.30863e-174
-1.11731e-169
4.86563e-174
-3.54169e-174
-1.25295e-169
-2.48239e-174
-1.40664e-169
-1.12388e-174
-1.55369e-169
4.02277e-175
-1.65918e-169
1.96556e-174
-1.69299e-169
3.42973e-174
-1.65087e-169
4.64872e-174
-1.55399e-169
5.58761e-174
-1.43178e-169
-1.31758e-169
6.33732e-174
-5.0923e-170
-1.18788e-165
5.74694e-170
-4.20731e-170
-1.32649e-165
-2.9928e-170
-1.48293e-165
-1.4443e-170
-1.63124e-165
2.95601e-171
-1.73603e-165
2.07004e-170
-1.76704e-165
3.73546e-170
-1.72051e-165
5.12912e-170
-1.61862e-165
6.21166e-170
-1.49166e-165
-1.37338e-165
7.08161e-170
-5.45609e-166
-1.13979e-161
6.15746e-166
-4.522e-166
-1.26772e-161
-3.24948e-166
-1.41168e-161
-1.63737e-166
-1.54702e-161
1.72213e-167
-1.64133e-161
2.01187e-166
-1.66707e-161
3.74144e-166
-1.62125e-161
5.19518e-166
-1.52476e-161
6.33264e-166
-1.40578e-161
-1.29528e-161
7.25233e-166
-5.30111e-162
-9.866e-158
5.98509e-162
-4.40019e-162
-1.09304e-157
-3.18562e-162
-1.21257e-157
-1.65619e-162
-1.32407e-157
5.83235e-164
-1.40074e-157
1.79728e-162
-1.42001e-157
3.43424e-162
-1.37975e-157
4.81523e-162
-1.29762e-157
5.90259e-162
-1.1972e-157
-1.10424e-157
6.78705e-162
-3.51368e-158
-7.98934e-155
3.96815e-158
-2.90249e-158
-7.9403e-155
-2.12021e-158
-7.87415e-155
-1.14473e-158
-7.80999e-155
-1.90179e-160
-7.76421e-155
1.12859e-158
-7.75345e-155
2.17963e-158
-7.78059e-155
3.06049e-158
-7.83201e-155
3.77868e-158
-7.88927e-155
-7.935e-155
4.36162e-158
-1.84945e-154
-1.92795e-153
2.08358e-154
-1.53749e-154
-2.11561e-153
-1.13459e-154
-2.32528e-153
-6.27149e-155
-2.51835e-153
-3.52575e-156
-2.64837e-153
5.68355e-155
-2.67644e-153
1.11641e-154
-2.59981e-153
1.57141e-154
-2.45011e-153
1.9394e-154
-2.26928e-153
-2.1024e-153
2.24091e-154
-1.33371e-150
-1.2616e-149
1.5019e-150
-1.11419e-150
-1.38683e-149
-8.2816e-151
-1.52717e-149
-4.6545e-151
-1.65556e-149
-4.02784e-152
-1.7411e-149
3.931e-151
-1.75806e-149
7.84611e-151
-1.70469e-149
1.10784e-150
-1.60256e-149
1.36798e-150
-1.48002e-149
-1.36784e-149
1.58343e-150
-9.00444e-147
-7.74039e-146
1.01574e-146
-7.51955e-147
-8.48589e-146
-5.59851e-147
-9.32122e-146
-3.17783e-147
-1.00807e-145
-3.4887e-148
-1.05815e-145
2.52913e-147
-1.06723e-145
5.13017e-147
-1.03439e-145
7.28517e-147
-9.72569e-146
9.02685e-147
-8.98739e-146
-8.31434e-146
1.04751e-146
-5.47689e-143
-4.28821e-142
6.18975e-143
-4.57004e-143
-4.68922e-142
-3.40594e-143
-5.13886e-142
-1.94789e-143
-5.54527e-142
-2.48928e-144
-5.81064e-142
1.47642e-143
-5.85442e-142
3.0365e-143
-5.67233e-142
4.33317e-143
-5.3344e-142
5.38518e-143
-4.93249e-142
-4.56761e-142
6.26316e-143
-2.99582e-139
-2.14255e-138
3.39249e-139
-2.49745e-139
-2.33726e-138
-1.86212e-139
-2.5558e-138
-1.07094e-139
-2.75225e-138
-1.51674e-140
-2.87933e-138
7.8032e-140
-2.89831e-138
1.62342e-139
-2.8074e-138
2.32614e-139
-2.64079e-138
2.89822e-139
-2.44333e-138
-2.26481e-138
3.37726e-139
-1.47127e-135
-9.64232e-135
1.66931e-135
-1.22518e-135
-1.04946e-134
-9.13467e-136
-1.14524e-134
-5.27413e-136
-1.2309e-134
-8.01225e-137
-1.28582e-134
3.72648e-136
-1.29321e-134
7.82378e-136
-1.25239e-134
1.12473e-135
-1.17839e-134
1.40432e-135
-1.09096e-134
-1.01222e-134
1.63917e-135
-6.47701e-132
-3.90385e-131
7.36256e-132
-5.38655e-132
-4.23974e-131
-4.01431e-132
-4.61785e-131
-2.32345e-132
-4.95442e-131
-3.69734e-133
-5.16839e-131
1.60495e-132
-5.19416e-131
3.39239e-132
-5.02946e-131
4.88925e-132
-4.73372e-131
6.1153e-132
-4.38525e-131
-4.07254e-131
7.14824e-132
-2.55225e-128
-1.42028e-127
2.90666e-128
-2.11954e-128
-1.53936e-127
-1.5783e-128
-1.67366e-127
-9.14538e-129
-1.79266e-127
-1.49694e-129
-1.86773e-127
6.22245e-129
-1.87578e-127
1.32112e-128
-1.81613e-127
1.90761e-128
-1.70991e-127
2.38935e-128
-1.58502e-127
-1.47332e-127
2.79635e-128
-8.99053e-125
-4.63855e-124
1.02584e-124
-7.45566e-125
-5.018e-124
-5.54504e-125
-5.44667e-124
-3.21282e-125
-5.82489e-124
-5.33029e-126
-6.06173e-124
2.16793e-125
-6.08422e-124
4.61364e-125
-5.89048e-124
6.67029e-125
-5.54796e-124
8.36405e-125
-5.14594e-124
-4.78739e-124
9.79865e-125
-2.82805e-121
-1.35862e-120
3.2327e-121
-2.34163e-121
-1.4672e-120
-1.73881e-121
-1.59004e-120
-1.00635e-121
-1.698e-120
-1.67129e-122
-1.76516e-120
6.77704e-122
-1.77077e-120
1.44285e-121
-1.71437e-120
2.08755e-121
-1.6153e-120
2.61981e-121
-1.49918e-120
-1.39585e-120
3.07159e-121
-7.93611e-118
-3.58331e-117
9.08725e-118
-6.55959e-118
-3.86606e-117
-4.86203e-118
-4.18647e-117
-2.80835e-118
-4.46751e-117
-4.6173e-119
-4.64168e-117
1.89827e-118
-4.65509e-117
4.03614e-118
-4.50669e-117
5.8409e-118
-4.24688e-117
7.33413e-118
-3.94269e-117
-3.67254e-117
8.60388e-118
-1.98524e-114
-8.93203e-114
2.27708e-114
-1.6379e-114
-9.62162e-114
-1.21158e-114
-1.04043e-113
-6.97881e-115
-1.1088e-113
-1.12419e-115
-1.15092e-113
4.75888e-115
-1.15373e-113
1.0089e-114
-1.11701e-113
1.45965e-114
-1.05307e-113
1.83332e-114
-9.78277e-114
-9.11933e-114
2.15154e-114
-4.42397e-111
-1.98614e-110
5.08294e-111
-3.6435e-111
-2.13644e-110
-2.68912e-111
-2.30711e-110
-1.54349e-111
-2.45566e-110
-2.41157e-112
-2.54667e-110
1.06646e-111
-2.55185e-110
2.25124e-111
-2.47088e-110
3.25481e-111
-2.33052e-110
4.0882e-111
-2.16642e-110
-2.02089e-110
4.7988e-111
-8.77839e-108
-3.93683e-107
1.0102e-107
-7.21693e-108
-4.22932e-107
-5.31341e-108
-4.56135e-107
-3.03691e-108
-4.8493e-107
-4.55839e-109
-5.0249e-107
2.13375e-108
-5.03339e-107
4.48003e-108
-4.87432e-107
6.47071e-108
-4.59966e-107
8.12652e-108
-4.27858e-107
-3.9936e-107
9.53978e-108
-1.55045e-104
-6.95195e-104
1.78685e-104
-1.27229e-104
-7.45996e-104
-9.34279e-105
-8.03601e-104
-5.31487e-105
-8.53384e-104
-7.59925e-106
-8.83619e-104
3.80697e-105
-8.8485e-104
7.94495e-105
-8.57018e-104
1.14616e-104
-8.09133e-104
1.43912e-104
-7.53141e-104
-7.03349e-104
1.68935e-104
-2.4368e-101
-1.0932e-100
2.81227e-101
-1.99588e-101
-1.17193e-100
-1.46175e-101
-1.26101e-100
-8.27414e-102
-1.33773e-100
-1.11882e-102
-1.38416e-100
6.0513e-102
-1.38573e-100
1.25487e-101
-1.34238e-100
1.808e-101
-1.26803e-100
2.26941e-101
-1.18105e-100
-1.10347e-100
2.66369e-101
-3.40748e-98
-1.53031e-97
3.9377e-98
-2.78599e-98
-1.63915e-97
-2.03496e-98
-1.76187e-97
-1.14598e-98
-1.86721e-97
-1.4562e-99
-1.93076e-97
8.56348e-99
-1.93251e-97
1.76446e-98
-1.87243e-97
2.53886e-98
-1.76967e-97
3.18563e-98
-1.64935e-97
-1.54161e-97
3.73833e-98
-4.23903e-95
-1.90645e-94
4.90444e-95
-3.45998e-95
-2.04061e-94
-2.52058e-95
-2.19118e-94
-1.41212e-95
-2.32e-94
-1.67664e-96
-2.39752e-94
1.07832e-95
-2.39922e-94
2.20783e-95
-2.32512e-94
3.17266e-95
-2.19874e-94
3.97929e-95
-2.05058e-94
-1.91724e-94
4.66846e-95
-4.69127e-92
-2.11323e-91
5.43335e-92
-3.82275e-92
-2.26063e-91
-2.77772e-92
-2.42513e-91
-1.54823e-92
-2.56541e-91
-1.70897e-93
-2.64962e-91
1.2077e-92
-2.65107e-91
2.45771e-92
-2.56979e-91
3.52727e-92
-2.43148e-91
4.42226e-92
-2.26911e-91
-2.12209e-91
5.1866e-92
-4.61829e-89
-2.08393e-88
5.35394e-89
-3.75745e-89
-2.22826e-88
-2.72354e-89
-2.38824e-88
-1.51046e-89
-2.52422e-88
-1.54331e-90
-2.60569e-88
1.20266e-89
-2.60673e-88
2.43344e-89
-2.52743e-88
3.48832e-89
-2.39278e-88
4.37171e-89
-2.23443e-88
-2.09006e-88
5.12567e-89
-4.04421e-86
-1.82809e-85
4.6925e-86
-3.28575e-86
-1.954e-85
-2.37592e-86
-2.09247e-85
-1.31128e-86
-2.20978e-85
-1.23508e-87
-2.27996e-85
1.06472e-86
-2.28059e-85
2.14284e-86
-2.21178e-85
3.06843e-86
-2.09515e-85
3.8441e-86
-1.95774e-85
-1.83151e-85
4.50558e-86
-3.15033e-83
-1.42646e-82
3.65806e-83
-2.55605e-83
-1.52429e-82
-1.84398e-83
-1.63095e-82
-1.01292e-83
-1.72103e-82
-8.75592e-85
-1.77485e-82
8.37967e-84
-1.77516e-82
1.67809e-83
-1.72206e-82
2.4006e-83
-1.63221e-82
3.00645e-83
-1.52612e-82
-1.42785e-82
3.52262e-83
-2.18296e-80
-9.90027e-80
2.53644e-80
-1.76881e-80
-1.05771e-79
-1.27323e-80
-1.13084e-79
-6.96244e-81
-1.1924e-79
-5.49833e-82
-1.22915e-79
5.86297e-81
-1.22926e-79
1.1687e-80
-1.19282e-79
1.67041e-80
-1.13125e-79
2.09134e-80
-1.05837e-79
-9.90275e-80
2.44956e-80
-1.34558e-77
-6.11165e-77
1.5644e-77
-1.08893e-77
-6.52855e-77
-7.82191e-78
-6.97476e-77
-4.25887e-78
-7.34921e-77
-3.05919e-79
-7.57255e-77
3.64675e-78
-7.57273e-77
7.23856e-78
-7.35029e-77
1.03378e-77
-6.975e-77
1.29393e-77
-6.52965e-77
-6.10966e-77
1.51504e-77
-7.3785e-75
-3.35582e-74
8.58305e-75
-5.96428e-75
-3.58442e-74
-4.27567e-75
-3.82671e-74
-2.3184e-75
-4.02936e-74
-1.50786e-76
-4.15016e-74
2.01651e-75
-4.15004e-74
3.98728e-75
-4.0293e-74
5.69049e-75
-3.82582e-74
7.12071e-75
-3.5837e-74
-3.35318e-74
8.33476e-75
-3.59955e-72
-1.63898e-71
4.18914e-72
-2.90648e-72
-1.75054e-71
-2.07964e-72
-1.86761e-71
-1.12322e-72
-1.96521e-71
-6.58006e-74
-2.02336e-71
9.91395e-73
-2.02321e-71
1.95339e-72
-1.96493e-71
2.78609e-72
-1.86679e-71
3.48559e-72
-1.74968e-71
-1.63709e-71
4.07857e-72
-1.56229e-69
-7.1201e-69
1.81894e-69
-1.2602e-69
-7.6047e-69
-9.00073e-70
-8.10805e-69
-4.84326e-70
-8.52629e-69
-2.54121e-71
-8.77539e-69
4.33375e-70
-8.77447e-69
8.51145e-70
-8.52427e-69
1.21333e-69
-8.10324e-69
1.5177e-69
-7.59919e-69
-7.10992e-69
1.77537e-69
-6.03282e-67
-2.75134e-66
7.02645e-67
-4.86174e-67
-2.93866e-66
-3.46646e-67
-3.13124e-66
-1.85875e-67
-3.29073e-66
-8.68398e-69
-3.3857e-66
1.6845e-67
-3.38527e-66
3.29868e-67
-3.28974e-66
4.70028e-67
-3.12904e-66
5.87853e-67
-2.93604e-66
-2.74688e-66
6.87462e-67
-2.07273e-64
-9.45695e-64
2.41487e-64
-1.66888e-64
-1.01012e-63
-1.18801e-64
-1.07569e-63
-6.34939e-65
-1.12982e-63
-2.6259e-66
-1.16204e-63
5.82219e-65
-1.16187e-63
1.13714e-64
-1.12943e-63
1.61972e-64
-1.07487e-63
2.02552e-64
-1.00911e-63
-9.4406e-64
2.36813e-64
-6.33634e-62
-2.89139e-61
7.3842e-62
-5.09742e-62
-3.08855e-61
-3.62325e-62
-3.28721e-61
-1.93059e-62
-3.45067e-61
-7.02679e-64
-3.54793e-61
1.78947e-62
-3.54741e-61
3.48689e-62
-3.44941e-61
4.96519e-62
-3.28461e-61
6.20871e-62
-3.0853e-61
-2.88633e-61
7.25723e-62
-1.72351e-59
-7.86347e-59
2.00901e-59
-1.38543e-59
-8.40023e-59
-9.83404e-60
-8.9358e-59
-5.22518e-60
-9.37509e-59
-1.66326e-61
-9.63634e-59
4.89101e-60
-9.63492e-59
9.51076e-60
-9.37167e-59
1.35399e-59
-8.92882e-59
1.69303e-59
-8.3913e-59
-7.85015e-59
1.97858e-59
-4.17134e-57
-1.90227e-56
4.86334e-57
-3.35065e-57
-2.03224e-56
-2.37531e-57
-2.16071e-56
-1.2588e-57
-2.26577e-56
-3.48024e-59
-2.32821e-56
1.18885e-57
-2.32788e-56
2.30756e-57
-2.26499e-56
3.28459e-57
-2.15913e-56
4.10708e-57
-2.03015e-56
-1.89931e-56
4.79913e-57
-8.98314e-55
-4.09336e-54
1.04753e-54
-7.21068e-55
-4.3732e-54
-5.10569e-55
-4.64736e-54
-2.69931e-55
-4.87096e-54
-6.43564e-57
-5.00372e-54
2.56992e-55
-5.00308e-54
4.98032e-55
-4.86948e-54
7.08826e-55
-4.64433e-54
8.86365e-55
-4.36898e-54
-4.08784e-54
1.03563e-54
-1.72134e-52
-7.83487e-52
2.00766e-52
-1.38078e-52
-8.37045e-52
-9.7663e-53
-8.89097e-52
-5.15192e-53
-9.31445e-52
-1.05061e-54
-9.56554e-52
4.9407e-53
-9.56447e-52
9.56175e-53
-9.31207e-52
1.36081e-52
-8.88611e-52
1.70182e-52
-8.3632e-52
-7.82648e-52
1.98838e-52
-2.93487e-50
-1.3339e-49
3.42377e-50
-2.35269e-50
-1.42498e-49
-1.66238e-50
-1.51288e-49
-8.75131e-51
-1.58424e-49
-1.50796e-52
-1.62648e-49
8.4482e-51
-1.62632e-49
1.63307e-50
-1.58393e-49
2.32414e-50
-1.51224e-49
2.90699e-50
-1.42391e-49
-1.33291e-49
3.39668e-50
-4.45238e-48
-2.01995e-47
5.1954e-48
-3.56681e-48
-2.1575e-47
-2.51784e-48
-2.28955e-47
-1.32287e-48
-2.39651e-47
-1.888e-50
-2.45968e-47
1.28493e-48
-2.45949e-47
2.48128e-48
-2.39619e-47
3.53135e-48
-2.28888e-47
4.41785e-48
-2.15621e-47
-2.01921e-47
5.16271e-48
-6.00989e-46
-2.72062e-45
7.01518e-46
-4.81125e-46
-2.905e-45
-3.39312e-46
-3.08139e-45
-1.77935e-46
-3.22399e-45
-2.03978e-48
-3.30796e-45
1.73839e-46
-3.30778e-45
3.35384e-46
-3.22377e-45
4.77342e-46
-3.08092e-45
5.9733e-46
-2.90375e-45
-2.72068e-45
6.98184e-46
-7.21771e-44
-3.25896e-43
8.42879e-44
-5.77414e-44
-3.47821e-43
-4.06843e-44
-3.68772e-43
-2.12954e-44
-3.85671e-43
-1.87737e-46
-3.95593e-43
2.09187e-44
-3.95579e-43
4.03258e-44
-3.85673e-43
5.73995e-44
-3.68765e-43
7.18512e-44
-3.47736e-43
-3.26017e-43
8.40064e-44
-7.71225e-42
-3.47159e-41
9.0114e-42
-6.16536e-42
-3.70277e-41
-4.34011e-42
-3.924e-41
-2.26777e-42
-4.10195e-41
-1.45795e-44
-4.20611e-41
2.23857e-42
-4.20606e-41
4.31271e-42
-4.10228e-41
6.13959e-42
-3.9244e-41
7.68838e-42
-3.70261e-41
-3.4738e-41
8.99222e-42
-7.3315e-40
-3.28806e-39
8.57229e-40
-5.85688e-40
-3.50421e-39
-4.11929e-40
-3.71184e-39
-2.14904e-40
-3.87828e-39
-9.64497e-43
-3.97543e-39
2.12983e-40
-3.97549e-39
4.10179e-40
-3.87891e-39
5.8408e-40
-3.71264e-39
7.3176e-40
-3.50479e-39
-3.29068e-39
8.56207e-40
-6.20031e-38
-2.76826e-37
7.25497e-38
-4.9499e-38
-2.94753e-37
-3.47847e-38
-3.12069e-37
-1.81241e-38
-3.25893e-37
-5.69893e-41
-3.33942e-37
1.80122e-38
-3.33958e-37
3.46887e-38
-3.25976e-37
4.94145e-38
-3.1217e-37
6.19414e-38
-2.94866e-37
-2.77062e-37
7.25083e-38
-4.6646e-36
-2.07105e-35
5.46196e-36
-3.72149e-36
-2.20307e-35
-2.61324e-36
-2.33134e-35
-1.3603e-36
-2.43327e-35
-3.32613e-39
-2.4925e-35
1.35393e-36
-2.49271e-35
2.60833e-36
-2.43415e-35
3.71755e-36
-2.33237e-35
4.66269e-36
-2.20441e-35
-2.0728e-35
5.46071e-36
-3.1213e-34
-1.37636e-33
3.65724e-34
-2.48868e-34
-1.46278e-33
-1.74633e-34
-1.54711e-33
-9.0838e-35
-1.61382e-33
-2.02016e-37
-1.65253e-33
9.0463e-35
-1.65273e-33
1.74377e-34
-1.61458e-33
2.48694e-34
-1.54799e-33
3.12118e-34
-1.46398e-33
-1.37751e-33
3.65718e-34
-1.85736e-32
-8.12173e-32
2.17752e-32
-1.47992e-32
-8.62496e-32
-1.03772e-32
-9.11667e-32
-5.39392e-33
-9.50413e-32
-1.10015e-35
-9.72846e-32
5.37404e-33
-9.72997e-32
1.03654e-32
-9.50948e-32
1.47934e-32
-9.12293e-32
1.85784e-32
-8.63348e-32
-8.12903e-32
2.17805e-32
-9.82553e-31
-4.25353e-30
1.15256e-30
-7.82262e-31
-4.51404e-30
-5.48065e-31
-4.76805e-30
-2.84591e-31
-4.96757e-30
-4.10605e-34
-5.08276e-30
2.83886e-31
-5.08364e-30
5.47795e-31
-4.97063e-30
7.82343e-31
-4.77178e-30
9.832e-31
-4.519e-30
-4.25796e-30
1.15336e-30
-4.61881e-29
-1.97609e-28
5.42153e-29
-3.67372e-29
-2.09577e-28
-2.57123e-29
-2.2119e-28
-1.33334e-29
-2.30288e-28
-4.0306e-33
-2.35521e-28
1.33302e-29
-2.35562e-28
2.57275e-29
-2.30432e-28
3.67685e-29
-2.21376e-28
4.62441e-29
-2.09818e-28
-1.97855e-28
5.42872e-29
-1.92837e-27
-8.13843e-27
2.26553e-27
-1.53203e-27
-8.62477e-27
-1.07099e-27
-9.09417e-27
-5.54526e-28
-9.46088e-27
5.41336e-31
-9.67104e-27
5.55777e-28
-9.67266e-27
1.0729e-27
-9.46678e-27
1.53455e-27
-9.10215e-27
1.93182e-27
-8.63501e-27
-8.15023e-27
2.26993e-27
-7.14547e-26
-2.96879e-25
8.40497e-26
-5.66959e-26
-3.14306e-25
-3.95842e-26
-3.31056e-25
-2.04679e-26
-3.44098e-25
3.48037e-29
-3.51547e-25
2.05437e-26
-3.51607e-25
3.96836e-26
-3.44318e-25
5.68192e-26
-3.31365e-25
7.16143e-26
-3.14702e-25
-2.97364e-25
8.42499e-26
-2.34757e-24
-9.58144e-24
2.76568e-24
-1.86001e-24
-1.01305e-23
-1.2969e-24
-1.06572e-23
-6.699e-25
-1.10656e-23
1.08962e-27
-1.12982e-23
6.72337e-25
-1.13004e-23
1.30027e-24
-1.10732e-23
1.86436e-24
-1.06681e-23
2.35338e-24
-1.01447e-23
-9.59863e-24
2.77293e-24
-6.82776e-23
-2.73388e-22
8.0595e-23
-5.40045e-23
-2.88593e-22
-3.75972e-23
-3.03169e-22
-1.93989e-23
-3.1442e-22
2.71256e-26
-3.20821e-22
1.94622e-23
-3.20887e-22
3.76921e-23
-3.14657e-22
5.41325e-23
-3.03504e-22
6.84569e-23
-2.89034e-22
-2.73914e-22
8.08188e-23
-1.75406e-21
-6.99918e-21
2.07548e-21
-1.38438e-21
-7.37812e-21
-9.61954e-22
-7.74203e-21
-4.95555e-22
-8.02198e-21
8.40162e-25
-8.18111e-21
4.97463e-22
-8.18292e-21
9.64671e-22
-8.0284e-21
1.38792e-21
-7.75104e-21
1.75893e-21
-7.39016e-21
-7.0134e-21
2.08151e-21
-3.96102e-20
-1.52186e-19
4.70139e-20
-3.1175e-20
-1.5937e-19
-2.16108e-20
-1.6617e-19
-1.11111e-20
-1.71341e-19
2.30537e-23
-1.74238e-19
1.1162e-20
-1.74272e-19
2.16789e-20
-1.71461e-19
3.12599e-20
-1.66341e-19
3.97234e-20
-1.59597e-19
-1.52462e-19
4.71525e-20
-7.5513e-19
-2.02294e-18
9.00525e-19
-5.91772e-19
-2.09685e-18
-4.08793e-19
-2.16518e-18
-2.09655e-19
-2.21632e-18
3.60793e-22
-2.24473e-18
2.10471e-19
-2.24505e-18
4.09949e-19
-2.21743e-18
5.93285e-19
-2.1668e-18
7.57185e-19
-2.09898e-18
-2.02564e-18
9.03093e-19
-1.22994e-17
-1.91095e-17
1.46985e-17
-9.622e-18
-2.00855e-17
-6.63818e-18
-2.10639e-17
-3.40219e-18
-2.18261e-17
4.37903e-21
-2.22864e-17
3.4127e-18
-2.22922e-17
6.65498e-18
-2.18469e-17
9.64576e-18
-2.10918e-17
1.23336e-17
-2.01243e-17
-1.91534e-17
1.47423e-17
-1.86957e-16
-2.50597e-16
2.24032e-16
-1.45818e-16
-2.62897e-16
-1.00402e-16
-2.75221e-16
-5.14184e-17
-2.84876e-16
8.80073e-20
-2.90863e-16
5.16233e-17
-2.90944e-16
1.007e-16
-2.85167e-16
1.46219e-16
-2.75605e-16
1.87516e-16
-2.63444e-16
-2.51203e-16
2.2473e-16
-2.49418e-15
-3.27792e-15
2.99992e-15
-1.93812e-15
-3.42295e-15
-1.33095e-15
-3.5678e-15
-6.80673e-16
-3.68142e-15
1.27635e-18
-3.75318e-15
6.83645e-16
-3.75424e-15
1.33521e-15
-3.68519e-15
1.94375e-15
-3.57272e-15
2.5019e-15
-3.43013e-15
-3.28559e-15
3.00928e-15
-2.91447e-14
-3.7562e-14
3.52376e-14
-2.25472e-14
-3.89986e-14
-1.54307e-14
-4.04578e-14
-7.87398e-15
-4.16006e-14
1.18875e-17
-4.23301e-14
7.90283e-15
-4.2342e-14
1.54752e-14
-4.16441e-14
2.26087e-14
-4.05139e-14
2.9232e-14
-3.90832e-14
-3.76428e-14
3.53388e-14
-2.98118e-13
-3.77111e-13
3.62408e-13
-2.29672e-13
-3.89099e-13
-1.56624e-13
-4.01808e-13
-7.97471e-14
-4.11645e-13
7.80952e-17
-4.18031e-13
7.9955e-14
-4.18145e-13
1.57016e-13
-4.12103e-13
2.30241e-13
-4.02361e-13
2.99022e-13
-3.90037e-13
-3.77777e-13
3.63351e-13
-2.68067e-12
-3.31862e-12
3.27478e-12
-2.05724e-12
-3.404e-12
-1.3982e-12
-3.49991e-12
-7.10544e-13
-3.57246e-12
3.5116e-17
-3.62082e-12
7.11151e-13
-3.62183e-12
1.40102e-12
-3.57701e-12
2.06198e-12
-3.50485e-12
2.6898e-12
-3.41387e-12
-3.32278e-12
3.28323e-12
-2.13695e-11
-2.56718e-11
2.62214e-11
-1.63426e-11
-2.61933e-11
-1.10646e-11
-2.68279e-11
-5.61373e-12
-2.72758e-11
-6.02692e-15
-2.75939e-11
5.6052e-12
-2.76006e-11
1.10791e-11
-2.73161e-11
1.63706e-11
-2.68625e-11
2.14463e-11
-2.62849e-11
-2.56783e-11
2.62737e-11
-1.51733e-10
-1.74849e-10
1.86677e-10
-1.15463e-10
-1.77999e-10
-7.78291e-11
-1.81464e-10
-3.93047e-11
-1.83797e-10
1.50805e-14
-1.85476e-10
3.93628e-11
-1.85517e-10
7.79924e-11
-1.84012e-10
1.15675e-10
-1.81626e-10
1.52218e-10
-1.78555e-10
-1.74754e-10
1.86935e-10
-9.36292e-10
-1.04617e-09
1.15407e-09
-7.07627e-10
-1.0659e-09
-4.746e-10
-1.07977e-09
-2.3783e-10
-1.08997e-09
1.81871e-12
-1.09676e-09
2.41208e-10
-1.0966e-09
4.77235e-10
-1.08972e-09
7.09698e-10
-1.07966e-09
9.36933e-10
-1.06588e-09
-1.04598e-09
1.15428e-09
-4.79702e-09
-5.48353e-09
5.95279e-09
-3.60234e-09
-5.56614e-09
-2.40741e-09
-5.60055e-09
-1.20745e-09
-5.63086e-09
-2.32109e-12
-5.65039e-09
1.2033e-09
-5.65047e-09
2.40354e-09
-5.63042e-09
3.59997e-09
-5.60166e-09
4.79224e-09
-5.56365e-09
-5.48597e-09
5.95048e-09
-2.01284e-08
-6.58101e-08
2.49818e-08
-1.51589e-08
-6.68705e-08
-1.01418e-08
-6.75955e-08
-5.08556e-09
-6.83809e-08
8.06686e-12
-6.88263e-08
5.10147e-09
-6.8826e-08
1.01558e-08
-6.83718e-08
1.51666e-08
-6.75794e-08
2.01365e-08
-6.68557e-08
-6.57985e-08
2.49818e-08
-1.27757e-07
-4.8747e-07
1.57157e-07
-9.68406e-08
-4.90266e-07
-6.50687e-08
-4.92171e-07
-3.27414e-08
-4.93643e-07
2.64355e-11
-4.9445e-07
3.27911e-08
-4.94446e-07
6.51157e-08
-4.93628e-07
9.68831e-08
-4.9214e-07
1.27803e-07
-4.90244e-07
-4.87437e-07
1.57195e-07
-2.14193e-07
-6.33813e-07
2.64401e-07
-1.62145e-07
-6.37729e-07
-1.08827e-07
-6.40411e-07
-5.46177e-08
-6.42085e-07
2.08863e-11
-6.42879e-07
5.46632e-08
-6.42878e-07
1.08878e-07
-6.4208e-07
1.62208e-07
-6.40403e-07
2.14258e-07
-6.37718e-07
-6.33793e-07
2.64473e-07
-2.07933e-07
-6.82486e-07
2.56605e-07
-1.57492e-07
-6.88171e-07
-1.05722e-07
-6.92181e-07
-5.30787e-08
-6.94729e-07
1.42084e-11
-6.95973e-07
5.31062e-08
-6.95971e-07
1.05747e-07
-6.94721e-07
1.57515e-07
-6.92172e-07
2.07949e-07
-6.88153e-07
-6.82472e-07
2.56627e-07
-1.91545e-07
-7.26795e-07
2.35856e-07
-1.45298e-07
-7.34417e-07
-9.76493e-08
-7.39829e-07
-4.90552e-08
-7.43323e-07
5.53366e-12
-7.45033e-07
4.90655e-08
-7.4503e-07
9.76606e-08
-7.43316e-07
1.45309e-07
-7.39819e-07
1.91559e-07
-7.34401e-07
-7.26785e-07
2.35874e-07
-1.68855e-07
-7.65142e-07
2.07204e-07
-1.28472e-07
-7.74799e-07
-8.65182e-08
-7.81782e-07
-4.35173e-08
-7.86323e-07
1.55903e-11
-7.88564e-07
4.35498e-08
-7.88563e-07
8.65524e-08
-7.86318e-07
1.28508e-07
-7.81773e-07
1.68895e-07
-7.74787e-07
-7.65129e-07
2.0724e-07
-1.44541e-07
-7.98084e-07
1.77483e-07
-1.10037e-07
-8.09303e-07
-7.41825e-08
-8.17636e-07
-3.73437e-08
-8.23162e-07
4.34017e-12
-8.25911e-07
3.73529e-08
-8.25911e-07
7.41934e-08
-8.23158e-07
1.10051e-07
-8.17631e-07
1.44563e-07
-8.09298e-07
-7.98076e-07
1.7751e-07
-1.26178e-07
-8.28547e-07
1.56641e-07
-9.53842e-08
-8.40097e-07
-6.40267e-08
-8.48993e-07
-3.21608e-08
-8.55028e-07
3.73315e-12
-8.58076e-07
3.21686e-08
-8.58075e-07
6.40361e-08
-8.55026e-07
9.53963e-08
-8.48991e-07
1.26195e-07
-8.40097e-07
-8.28546e-07
1.56665e-07
-1.17759e-07
-8.59384e-07
1.48596e-07
-8.78981e-08
-8.69958e-07
-5.84857e-08
-8.78406e-07
-2.92259e-08
-8.84287e-07
1.94134e-12
-8.87304e-07
2.92305e-08
-8.87304e-07
5.84927e-08
-8.84288e-07
8.79087e-08
-8.78407e-07
1.17774e-07
-8.69962e-07
-8.59389e-07
1.48617e-07
-1.18775e-07
-8.92037e-07
1.51428e-07
-8.78558e-08
-9.00878e-07
-5.80563e-08
-9.08205e-07
-2.88887e-08
-9.13455e-07
2.22369e-12
-9.16195e-07
2.88941e-08
-9.16196e-07
5.8064e-08
-9.13458e-07
8.78671e-08
-9.0821e-07
1.1879e-07
-9.00885e-07
-8.92046e-07
1.51447e-07
-1.28113e-07
-9.26962e-07
1.63038e-07
-9.48626e-08
-9.34128e-07
-6.27165e-08
-9.40351e-07
-3.1212e-08
-9.4496e-07
3.00245e-12
-9.4741e-07
3.12187e-08
-9.47412e-07
6.27245e-08
-9.44964e-07
9.4873e-08
-9.40359e-07
1.28125e-07
-9.34138e-07
-9.26974e-07
1.63053e-07
-1.45525e-07
-9.64142e-07
1.82703e-07
-1.08943e-07
-9.7071e-07
-7.26214e-08
-9.76673e-07
-3.63291e-08
-9.81252e-07
6.89949e-12
-9.83746e-07
3.63428e-08
-9.83747e-07
7.26338e-08
-9.81255e-07
1.08954e-07
-9.76679e-07
1.45536e-07
-9.70719e-07
-9.64154e-07
1.82714e-07
-1.70188e-07
-1.00303e-06
2.09071e-07
-1.29715e-07
-1.01118e-06
-8.77216e-08
-1.01867e-06
-4.4307e-08
-1.02467e-06
1.31267e-11
-1.02807e-06
4.43322e-08
-1.02807e-06
8.77443e-08
-1.02467e-06
1.29734e-07
-1.01867e-06
1.70204e-07
-1.01119e-06
-1.00304e-06
2.09084e-07
-1.97711e-07
-1.04231e-06
2.36983e-07
-1.5393e-07
-1.05496e-06
-1.06061e-07
-1.06653e-06
-5.42766e-08
-1.07645e-06
2.40806e-11
-1.08237e-06
5.43219e-08
-1.08236e-06
1.06101e-07
-1.07645e-06
1.53962e-07
-1.06653e-06
1.97736e-07
-1.05496e-06
-1.04231e-06
2.37001e-07
-2.15306e-07
-1.08004e-06
2.53038e-07
-1.71e-07
-1.09927e-06
-1.19911e-07
-1.11762e-06
-6.19529e-08
-1.13441e-06
3.36883e-11
-1.14435e-06
6.2016e-08
-1.14435e-06
1.19964e-07
-1.13439e-06
1.71042e-07