/*--------------------------------*- C++ -*----------------------------------*\
  =========                 |
  \\      /  F ield         | OpenFOAM: The Open Source CFD Toolbox
   \\    /   O peration     | Website:  https://openfoam.org
    \\  /    A nd           | Version:  8
     \\/     M anipulation  |
\*---------------------------------------------------------------------------*/
FoamFile
{
    version     2.0;
    format      ascii;
    class       volScalarField;
    location    "0.05";
    object      alpha.water;
}
// * * * * * * * * * * * * * * * * * * * * * * * * * * * * * * * * * * * * * //

dimensions      [0 0 0 0 0 0 0];

internalField   nonuniform List<scalar> 
9150
(
1
1
1
1
1
1
1
1
1
1
1
1
1
1
1
1
1
1
1
1
1
1
1
1
1
1
1
1
1
1
1
1
1
1
1
1
1
1
1
1
1
1
1
1
1
1
1
1
1
1
1
1
1
1
1
1
1
1
1
1
1
1
1
1
1
1
1
1
1
1
1
1
1
1
1
1
1
1
1
1
1
1
1
1
1
1
1
1
1
1
1
1
1
1
1
1
1
1
1
1
1
1
1
1
1
1
1
1
1
1
1
1
1
1
1
1
1
1
1
1
1
1
1
1
1
1
1
1
1
1
1
1
1
1
1
1
1
1
1
1
1
1
1
1
1
1
1
1
1
1
2.59782e-218
6.33904e-218
1.03777e-217
1.0104e-217
1.41815e-217
2.05241e-217
2.84464e-217
3.68595e-217
4.53199e-217
5.75137e-217
1.57666e-212
2.19354e-212
2.83782e-212
3.39616e-212
4.13456e-212
4.94975e-212
5.71601e-212
6.29033e-212
6.61616e-212
7.06363e-212
1.85252e-207
2.29177e-207
2.78656e-207
3.39482e-207
4.04157e-207
4.61197e-207
5.00571e-207
5.17496e-207
5.13885e-207
5.13768e-207
1.18491e-202
1.41639e-202
1.70079e-202
2.03449e-202
2.35831e-202
2.60373e-202
2.72699e-202
2.7256e-202
2.629e-202
2.54307e-202
5.14349e-198
6.08003e-198
7.20978e-198
8.47835e-198
9.63379e-198
1.04081e-197
1.06658e-197
1.0449e-197
9.90902e-198
9.40229e-198
1.69144e-193
1.97966e-193
2.32439e-193
2.6975e-193
3.02018e-193
3.21376e-193
3.24557e-193
3.13826e-193
2.94406e-193
2.75992e-193
4.47488e-189
5.1955e-189
6.04811e-189
6.94488e-189
7.68884e-189
8.09162e-189
8.08798e-189
7.75079e-189
7.21922e-189
6.71472e-189
9.91108e-185
1.14252e-184
1.32001e-184
1.50234e-184
1.64844e-184
1.72023e-184
1.70657e-184
1.62525e-184
1.50667e-184
1.39435e-184
1.88678e-180
2.16128e-180
2.4799e-180
2.80083e-180
3.05055e-180
3.16237e-180
3.1197e-180
2.95805e-180
2.73398e-180
2.52232e-180
3.1421e-176
3.57838e-176
4.08025e-176
4.57758e-176
4.95495e-176
5.10958e-176
5.01946e-176
4.745e-176
4.37763e-176
4.03153e-176
4.63244e-172
5.24739e-172
5.95e-172
6.63656e-172
7.14644e-172
7.33836e-172
7.18615e-172
6.77927e-172
6.24823e-172
5.74921e-172
6.09706e-168
6.87236e-168
7.75389e-168
8.60482e-168
9.22506e-168
9.44024e-168
9.22216e-168
8.68799e-168
8.00399e-168
7.36287e-168
7.20507e-164
8.08444e-164
9.08019e-164
1.00312e-163
1.0713e-163
1.09313e-163
1.06588e-163
1.00322e-163
9.24188e-164
8.50313e-164
7.67153e-160
8.57152e-160
9.58673e-160
1.05474e-159
1.12257e-159
1.14264e-159
1.11249e-159
1.04648e-159
9.64254e-160
8.87623e-160
7.37233e-156
8.2043e-156
9.14e-156
1.00181e-155
1.06297e-155
1.07965e-155
1.04992e-155
9.87313e-156
9.10121e-156
8.38419e-156
6.39194e-152
7.08539e-152
7.86367e-152
8.58841e-152
9.08653e-152
9.21171e-152
8.94996e-152
8.41609e-152
7.76341e-152
7.15912e-152
6.38965e-149
6.48837e-149
6.58322e-149
6.65857e-149
6.70451e-149
6.7146e-149
6.68954e-149
6.63632e-149
6.56455e-149
6.48994e-149
1.25948e-147
1.3776e-147
1.50921e-147
1.62884e-147
1.7084e-147
1.726e-147
1.67934e-147
1.58731e-147
1.47451e-147
1.36957e-147
8.10117e-144
8.88692e-144
9.76076e-144
1.05488e-143
1.10659e-143
1.1171e-143
1.08495e-143
1.02272e-143
9.46827e-144
8.76524e-144
4.97134e-140
5.43814e-140
5.95656e-140
6.42055e-140
6.72104e-140
6.77707e-140
6.58013e-140
6.20486e-140
5.74897e-140
5.32802e-140
2.75437e-136
3.0049e-136
3.28296e-136
3.52998e-136
3.68789e-136
3.71478e-136
3.60613e-136
3.40188e-136
3.15451e-136
2.92684e-136
1.37615e-132
1.49751e-132
1.63212e-132
1.75086e-132
1.82579e-132
1.83739e-132
1.78345e-132
1.68323e-132
1.56215e-132
1.45105e-132
6.19255e-129
6.72243e-129
7.30982e-129
7.82441e-129
8.14505e-129
8.18992e-129
7.94926e-129
7.50653e-129
6.97252e-129
6.48393e-129
2.50672e-125
2.71493e-125
2.94578e-125
3.14663e-125
3.27022e-125
3.28578e-125
3.18937e-125
3.01347e-125
2.80153e-125
2.60809e-125
9.11772e-122
9.85363e-122
1.06697e-121
1.13749e-121
1.18035e-121
1.18518e-121
1.15054e-121
1.08775e-121
1.01213e-121
9.43263e-122
2.97695e-118
3.21078e-118
3.46988e-118
3.69238e-118
3.82605e-118
3.83947e-118
3.72786e-118
3.52669e-118
3.28443e-118
3.06412e-118
8.71689e-115
9.38392e-115
1.01223e-114
1.07527e-114
1.11272e-114
1.11605e-114
1.08384e-114
1.02604e-114
9.56409e-115
8.93148e-115
2.29816e-111
2.47128e-111
2.66299e-111
2.82608e-111
2.92223e-111
2.93018e-111
2.8461e-111
2.69543e-111
2.51385e-111
2.34903e-111
5.73327e-108
6.15596e-108
6.62473e-108
7.02189e-108
7.25435e-108
7.27102e-108
7.06289e-108
6.69159e-108
6.24464e-108
5.8395e-108
1.27738e-104
1.3697e-104
1.47208e-104
1.5585e-104
1.60875e-104
1.61184e-104
1.56588e-104
1.4842e-104
1.38595e-104
1.29691e-104
2.53739e-101
2.71743e-101
2.91689e-101
3.08472e-101
3.18182e-101
3.1869e-101
3.09649e-101
2.93628e-101
2.74363e-101
2.56893e-101
4.49106e-98
4.80436e-98
5.15104e-98
5.44183e-98
5.60933e-98
5.61673e-98
5.45832e-98
5.17829e-98
4.84159e-98
4.53569e-98
7.07967e-95
7.56615e-95
8.10338e-95
8.55261e-95
8.81044e-95
8.81989e-95
8.57275e-95
8.13678e-95
7.61252e-95
7.13484e-95
9.93652e-92
1.06106e-91
1.13522e-91
1.19706e-91
1.23245e-91
1.23351e-91
1.19919e-91
1.13876e-91
1.06607e-91
9.99573e-92
1.24136e-88
1.32463e-88
1.41582e-88
1.49167e-88
1.53497e-88
1.536e-88
1.49359e-88
1.41904e-88
1.32931e-88
1.24682e-88
1.38011e-85
1.4718e-85
1.57166e-85
1.65452e-85
1.70171e-85
1.70258e-85
1.65596e-85
1.57412e-85
1.47553e-85
1.38434e-85
1.36527e-82
1.45527e-82
1.55263e-82
1.6332e-82
1.67903e-82
1.67966e-82
1.63407e-82
1.55412e-82
1.45771e-82
1.36792e-82
1.20164e-79
1.28038e-79
1.36485e-79
1.43461e-79
1.47424e-79
1.47462e-79
1.43495e-79
1.36546e-79
1.28157e-79
1.20284e-79
9.4094e-77
1.00229e-76
1.06752e-76
1.12129e-76
1.15181e-76
1.152e-76
1.1213e-76
1.06757e-76
1.00261e-76
9.41138e-77
6.5548e-74
6.98038e-74
7.42899e-74
7.79789e-74
8.00722e-74
8.0079e-74
7.79653e-74
7.42689e-74
6.97934e-74
6.55204e-74
4.06222e-71
4.32515e-71
4.59976e-71
4.82503e-71
4.95285e-71
4.95294e-71
4.82351e-71
4.59729e-71
4.32291e-71
4.05852e-71
2.23967e-68
2.38431e-68
2.53391e-68
2.65634e-68
2.72582e-68
2.72573e-68
2.65522e-68
2.53206e-68
2.38238e-68
2.23676e-68
1.09857e-65
1.16941e-65
1.24194e-65
1.30117e-65
1.33479e-65
1.33469e-65
1.30051e-65
1.24086e-65
1.1682e-65
1.09682e-65
4.7941e-63
5.10291e-63
5.41593e-63
5.6709e-63
5.81571e-63
5.8151e-63
5.6678e-63
5.41068e-63
5.09684e-63
4.78545e-63
1.86136e-60
1.9812e-60
2.10142e-60
2.19913e-60
2.25464e-60
2.25436e-60
2.19787e-60
2.09927e-60
1.97862e-60
1.85774e-60
6.42995e-58
6.8438e-58
7.25483e-58
7.58811e-58
7.77753e-58
7.77645e-58
7.58372e-58
7.24727e-58
6.83453e-58
6.41704e-58
1.97625e-55
2.10344e-55
2.22854e-55
2.32972e-55
2.38724e-55
2.38689e-55
2.3284e-55
2.22625e-55
2.10058e-55
1.97231e-55
5.40435e-53
5.7522e-53
6.09105e-53
6.36448e-53
6.51993e-53
6.51898e-53
6.36103e-53
6.08505e-53
5.74455e-53
5.39399e-53
1.31496e-50
1.3996e-50
1.48129e-50
1.54706e-50
1.58445e-50
1.58423e-50
1.54629e-50
1.47995e-50
1.39783e-50
1.31264e-50
2.84681e-48
3.02997e-48
3.20526e-48
3.34608e-48
3.42608e-48
3.42565e-48
3.34461e-48
3.20268e-48
3.02644e-48
2.84238e-48
5.48371e-46
5.83619e-46
6.17093e-46
6.43928e-46
6.59162e-46
6.59089e-46
6.43689e-46
6.16672e-46
5.83011e-46
5.4767e-46
9.3986e-44
1.00015e-43
1.05703e-43
1.10255e-43
1.12835e-43
1.12824e-43
1.10222e-43
1.05646e-43
9.99248e-44
9.38964e-44
1.43324e-41
1.52485e-41
1.61086e-41
1.67955e-41
1.71842e-41
1.71829e-41
1.67917e-41
1.61022e-41
1.52372e-41
1.43239e-41
1.94458e-39
2.06819e-39
2.1839e-39
2.27611e-39
2.32817e-39
2.32804e-39
2.27578e-39
2.18335e-39
2.06703e-39
1.94417e-39
2.34729e-37
2.4953e-37
2.63377e-37
2.74385e-37
2.80585e-37
2.80575e-37
2.74368e-37
2.63349e-37
2.49439e-37
2.34761e-37
2.52056e-35
2.67781e-35
2.82518e-35
2.94199e-35
3.00762e-35
3.00758e-35
2.94205e-35
2.82527e-35
2.6774e-35
2.52165e-35
2.40745e-33
2.55567e-33
2.69511e-33
2.80525e-33
2.86699e-33
2.86703e-33
2.80556e-33
2.69553e-33
2.55581e-33
2.40898e-33
2.0448e-31
2.1688e-31
2.28607e-31
2.37833e-31
2.42994e-31
2.43005e-31
2.37882e-31
2.28671e-31
2.1694e-31
2.04633e-31
1.54405e-29
1.63618e-29
1.72381e-29
1.79243e-29
1.83077e-29
1.83091e-29
1.79299e-29
1.7245e-29
1.63699e-29
1.54528e-29
1.03619e-27
1.09705e-27
1.15519e-27
1.20052e-27
1.2258e-27
1.22594e-27
1.20101e-27
1.15579e-27
1.09782e-27
1.03705e-27
6.17766e-26
6.53519e-26
6.87741e-26
7.14318e-26
7.29118e-26
7.29224e-26
7.14678e-26
6.88186e-26
6.54095e-26
6.18318e-26
3.27059e-24
3.45736e-24
3.6359e-24
3.77411e-24
3.85089e-24
3.85152e-24
3.77624e-24
3.63862e-24
3.46084e-24
3.2739e-24
1.53682e-22
1.62344e-22
1.70592e-22
1.76959e-22
1.80485e-22
1.80516e-22
1.77064e-22
1.70731e-22
1.6252e-22
1.53863e-22
6.40523e-21
6.761e-21
7.098e-21
7.35745e-21
7.50062e-21
7.50188e-21
7.36186e-21
7.10412e-21
6.76865e-21
6.414e-21
2.36596e-19
2.49497e-19
2.61659e-19
2.70994e-19
2.76128e-19
2.76175e-19
2.71161e-19
2.61899e-19
2.49796e-19
2.36962e-19
7.73702e-18
8.14887e-18
8.53588e-18
8.8318e-18
8.99411e-18
8.99576e-18
8.83757e-18
8.54432e-18
8.15949e-18
7.75023e-18
2.23817e-16
2.35382e-16
2.46229e-16
2.54489e-16
2.59012e-16
2.59063e-16
2.54668e-16
2.46491e-16
2.35716e-16
2.24228e-16
5.79979e-15
6.09206e-15
6.36651e-15
6.57494e-15
6.68912e-15
6.69056e-15
6.5799e-15
6.37371e-15
6.10137e-15
5.81115e-15
1.30632e-13
1.36441e-13
1.41805e-13
1.4583e-13
1.47992e-13
1.48021e-13
1.45929e-13
1.41952e-13
1.36628e-13
1.30866e-13
1.82943e-12
1.89112e-12
1.94579e-12
1.98566e-12
2.00617e-12
2.00645e-12
1.98661e-12
1.94727e-12
1.89297e-12
1.83189e-12
1.53351e-11
1.5968e-11
1.6572e-11
1.7029e-11
1.72868e-11
1.72905e-11
1.70422e-11
1.65908e-11
1.59932e-11
1.53655e-11
2.00722e-10
2.08577e-10
2.1619e-10
2.21951e-10
2.25226e-10
2.25279e-10
2.22143e-10
2.16462e-10
2.08947e-10
2.01161e-10
2.66034e-09
2.75332e-09
2.84463e-09
2.91337e-09
2.95236e-09
2.95304e-09
2.9159e-09
2.84822e-09
2.75834e-09
2.66626e-09
3.08689e-08
3.18044e-08
3.27407e-08
3.34404e-08
3.38366e-08
3.3844e-08
3.34694e-08
3.27812e-08
3.18636e-08
3.09367e-08
3.13928e-07
3.21979e-07
3.30233e-07
3.36346e-07
3.3981e-07
3.3988e-07
3.36634e-07
3.30629e-07
3.22595e-07
3.14588e-07
2.79831e-06
2.85743e-06
2.91994e-06
2.96559e-06
2.99165e-06
2.9922e-06
2.9681e-06
2.92324e-06
2.86309e-06
2.80371e-06
2.18892e-05
2.22616e-05
2.26652e-05
2.2956e-05
2.31234e-05
2.31271e-05
2.29745e-05
2.26885e-05
2.23058e-05
2.19265e-05
0.000150477
0.000152473
0.000154676
0.000156238
0.000157155
0.000157173
0.000156349
0.000154806
0.000152754
0.000150678
0.000910384
0.000919517
0.00092949
0.000936517
0.000940694
0.000940794
0.000937059
0.000930051
0.000920982
0.000911125
0.00485205
0.00489136
0.0049281
0.00495614
0.00497217
0.00497203
0.00495641
0.00492853
0.0048935
0.00485334
0.0485085
0.0491371
0.0496085
0.0501228
0.0504059
0.0504066
0.0501196
0.0496045
0.0491319
0.0485091
0.59622
0.598201
0.599758
0.601534
0.602483
0.602484
0.601519
0.59973
0.598174
0.596202
0.997481
0.997838
0.998049
0.998288
0.998454
0.998453
0.998286
0.998045
0.997835
0.997477
1
1
1
1
1
1
1
1
1
1
1
1
1
1
1
1
1
1
1
1
1
1
1
1
1
1
1
1
1
1
1
1
1
1
1
1
1
1
1
1
1
1
1
1
1
1
1
1
1
1
1
1
1
1
1
1
1
1
1
1
1
1
1
1
1
1
1
1
1
1
1
1
1
1
1
1
1
1
1
1
1
1
1
1
1
1
1
1
1
1
1.00002
1
1
1
1
1
1
1
1
1.00002
1.00003
1
1
1
1
1
1
1
1
1.00003
1
1
1
1
1
1
1
1
1
1
1
1
1
1
1
1
1
1
1
1
1
1
1
1
1
1
1
1
1
1
0.997204
1
1
1
1
1
1
1
1
0.997212
0.959418
1
1
1
1
1
1
1
1
0.959431
0.953577
1
1
1
1
1
1
1
1
0.953587
6.4706e-217
3.86119e-217
1.52258e-217
3.80517e-218
5.95163e-219
5.80011e-220
3.48902e-221
1.26285e-222
2.67768e-224
3.28309e-226
2.26363e-228
8.72428e-231
1.90705e-233
2.24348e-236
1.48913e-239
6.01972e-243
1.80718e-246
4.67691e-250
1.0524e-253
2.03074e-257
3.48095e-261
5.49038e-265
8.21858e-269
1.15907e-272
1.51837e-276
2.21267e-280
3.53246e-284
6.36064e-288
1.28694e-291
2.8085e-295
6.26191e-299
1.36052e-302
2.77426e-306
5.13461e-310
8.31959e-314
1.09994e-317
0
0
0
0
7.43972e-212
4.72367e-212
1.91153e-212
4.8631e-213
7.77514e-214
7.79065e-215
4.85551e-216
1.83653e-217
4.10461e-219
5.34896e-221
3.9472e-223
1.63128e-225
3.78067e-228
4.82962e-231
3.43761e-234
1.44225e-237
4.37802e-241
1.13352e-244
2.55877e-248
5.00186e-252
8.77713e-256
1.42977e-259
2.35464e-263
3.86869e-267
6.28743e-271
1.00769e-274
1.58737e-278
2.44845e-282
3.68266e-286
5.37681e-290
7.58226e-294
1.02643e-297
1.32302e-301
1.60493e-305
1.80142e-309
1.82318e-313
1.64989e-317
0
0
0
5.12461e-207
3.23903e-207
1.30594e-207
3.34474e-208
5.44367e-209
5.60607e-210
3.62421e-211
1.43501e-212
3.38782e-214
4.70503e-216
3.72981e-218
1.66628e-220
4.18896e-223
5.79648e-226
4.37233e-229
1.90154e-232
5.70145e-236
1.42705e-239
3.10187e-243
5.79737e-247
9.64785e-251
1.59249e-254
2.6438e-258
4.34564e-262
7.04691e-266
1.12304e-269
1.7515e-273
2.66068e-277
3.91644e-281
5.55389e-285
7.53725e-289
9.70987e-293
1.17536e-296
1.31955e-300
1.35059e-304
1.23032e-308
9.6142e-313
6.04954e-317
0
0
2.44486e-202
1.52859e-202
6.13877e-203
1.58425e-203
2.62788e-204
2.78656e-205
1.8729e-206
7.78283e-208
1.94629e-209
2.89011e-211
2.47132e-213
1.20029e-215
3.29974e-218
4.99337e-221
4.07372e-224
1.8581e-227
5.56693e-231
1.35203e-234
2.82952e-238
5.01508e-242
7.7484e-246
1.22244e-249
1.92976e-253
3.02171e-257
4.67605e-261
7.12352e-265
1.06389e-268
1.55075e-272
2.19546e-276
3.00258e-280
3.94188e-284
4.93001e-288
5.81893e-292
6.40412e-296
6.46548e-300
5.84767e-304
4.56819e-308
2.90054e-312
1.3199e-316
0
8.82995e-198
5.48161e-198
2.20287e-198
5.74558e-199
9.72909e-200
1.06323e-200
7.43311e-202
3.24214e-203
8.58761e-205
1.36346e-206
1.25815e-208
6.65237e-211
2.00611e-213
3.34088e-216
2.98351e-219
1.45504e-222
4.45819e-226
1.07067e-229
2.20215e-233
3.78669e-237
5.53471e-241
8.20582e-245
1.2238e-248
1.81477e-252
2.66595e-256
3.86487e-260
5.507e-264
7.67917e-268
1.04296e-271
1.37228e-275
1.73836e-279
2.10439e-283
2.41204e-287
2.5862e-291
2.55087e-295
2.25933e-299
1.73252e-303
1.08332e-307
4.93198e-312
1.23741e-316
2.55324e-193
1.58088e-193
6.38586e-194
1.68857e-194
2.92432e-195
3.29685e-196
2.39828e-197
1.0978e-198
3.07808e-200
5.22106e-202
5.1945e-204
2.98808e-206
9.88642e-209
1.81585e-211
1.78621e-214
9.43954e-218
3.018e-221
7.30739e-225
1.50628e-228
2.57799e-232
3.66191e-236
5.12194e-240
7.27625e-244
1.02989e-247
1.44706e-251
2.01063e-255
2.75144e-259
3.69181e-263
4.83314e-267
6.1393e-271
7.51842e-275
8.80845e-279
9.77647e-283
1.01468e-286
9.6746e-291
8.26414e-295
6.0906e-299
3.63936e-303
1.56923e-307
3.65618e-312
6.152e-189
3.81154e-189
1.55242e-189
4.1709e-190
7.39725e-191
8.60845e-192
6.51646e-193
3.12913e-194
9.27967e-196
1.67968e-197
1.79935e-199
1.12448e-201
4.07776e-204
8.26231e-207
8.98132e-210
5.18991e-213
1.75946e-216
4.36784e-220
9.17215e-224
1.59713e-227
2.26378e-231
3.02858e-235
4.15714e-239
5.69344e-243
7.75104e-247
1.04481e-250
1.38853e-254
1.81086e-258
2.30559e-262
2.84924e-266
3.39449e-270
3.8662e-274
4.16495e-278
4.18486e-282
3.84923e-286
3.15697e-290
2.21848e-294
1.25065e-298
5.0063e-303
1.05488e-307
1.26974e-184
7.89025e-185
3.24719e-185
8.87784e-186
1.6139e-186
1.93942e-187
1.52763e-188
7.69153e-190
2.41039e-191
4.64998e-193
5.35515e-195
3.62936e-197
1.44023e-199
3.21677e-202
3.86954e-205
2.45943e-208
8.94836e-212
2.309e-215
5.00195e-219
9.00601e-223
1.304e-226
1.70182e-230
2.29755e-234
3.09712e-238
4.15248e-242
5.51456e-246
7.22142e-250
9.27958e-254
1.16385e-257
1.41598e-261
1.65893e-265
1.85478e-269
1.95675e-273
1.91991e-277
1.71835e-281
1.36468e-285
9.22308e-290
4.95717e-294
1.87063e-298
3.64767e-303
2.28843e-180
1.42854e-180
5.9485e-181
1.65661e-181
3.08866e-182
3.83348e-183
3.14158e-184
1.65776e-185
5.48525e-187
1.1265e-188
1.3927e-190
1.02195e-192
4.43106e-195
1.08991e-197
1.45174e-200
1.01887e-203
4.01439e-207
1.08852e-210
2.4552e-214
4.63e-218
6.97847e-222
9.0859e-226
1.22995e-229
1.66263e-233
2.23521e-237
2.97556e-241
3.90426e-245
5.02389e-249
6.30415e-253
7.66405e-257
8.95691e-261
9.96941e-265
1.04478e-268
1.01596e-272
8.9865e-277
7.02839e-281
4.66031e-285
2.45042e-289
9.03434e-294
1.72573e-298
3.65014e-176
2.29141e-176
9.66259e-177
2.74277e-177
5.24653e-178
6.72591e-179
5.73371e-180
3.16948e-181
1.10644e-182
2.41651e-184
3.20326e-186
2.54147e-188
1.20247e-190
3.2542e-193
4.80032e-196
3.72983e-199
1.6022e-202
4.60616e-206
1.08969e-209
2.17314e-213
3.46523e-217
4.60471e-221
6.37473e-225
8.8095e-229
1.21015e-232
1.64509e-236
2.20257e-240
2.88916e-244
3.69082e-248
4.56033e-252
5.40668e-256
6.0931e-260
6.45214e-264
6.32474e-268
5.62499e-272
4.41387e-276
2.93374e-280
1.54713e-284
5.73934e-289
1.11698e-293
5.20019e-172
3.2852e-172
1.40367e-172
4.06269e-173
7.9746e-174
1.05591e-174
9.36151e-176
5.41859e-177
1.99433e-178
4.62832e-180
6.57171e-182
5.63123e-184
2.90423e-186
8.63952e-189
1.41117e-191
1.216e-194
5.72402e-198
1.75732e-201
4.38446e-205
9.30985e-209
1.59061e-212
2.20351e-216
3.17931e-220
4.57653e-224
6.54417e-228
9.25348e-232
1.28743e-235
1.75263e-239
2.32001e-243
2.96516e-247
3.62955e-251
4.21424e-255
4.58601e-259
4.60581e-263
4.18411e-267
3.34576e-271
2.26235e-275
1.21192e-279
4.56505e-284
9.04152e-289
6.658e-168
4.23488e-168
1.834e-168
5.41372e-169
1.09051e-169
1.49121e-170
1.37462e-171
8.32797e-173
3.22976e-174
7.95903e-176
1.20951e-177
1.11826e-179
6.2802e-182
2.05175e-184
3.70966e-187
3.54921e-190
1.83804e-193
6.06136e-197
1.60102e-200
3.63452e-204
6.71214e-208
9.87304e-212
1.51045e-215
2.30408e-219
3.48907e-223
5.22005e-227
7.67567e-231
1.10284e-234
1.5384e-238
2.0684e-242
2.65801e-246
3.23167e-250
3.67112e-254
3.83566e-258
3.61188e-262
2.98127e-266
2.07008e-270
1.132e-274
4.32052e-279
8.54008e-284
7.6908e-164
4.92679e-164
2.16302e-164
6.51245e-165
1.34617e-165
1.90078e-166
1.82136e-167
1.15456e-168
4.71569e-170
1.23319e-171
2.00423e-173
1.9975e-175
1.22042e-177
4.37487e-180
8.75243e-183
9.30535e-186
5.31837e-189
1.893e-192
5.30597e-196
1.28972e-199
2.58797e-203
4.1086e-207
6.76396e-211
1.11003e-214
1.80712e-218
2.90398e-222
4.58127e-226
7.05305e-230
1.05267e-233
1.51163e-237
2.06997e-241
2.67431e-245
3.21808e-249
3.5496e-253
3.5142e-257
3.03248e-261
2.18555e-265
1.23005e-269
4.7737e-274
9.38116e-279
8.03263e-160
5.18373e-160
2.30736e-160
7.08583e-161
1.50291e-161
2.19082e-162
2.18167e-163
1.44652e-164
6.21932e-166
1.7249e-167
2.99599e-169
3.21591e-171
2.13568e-173
8.39343e-176
1.85736e-178
2.19578e-181
1.38858e-184
5.35643e-188
1.59545e-191
4.15033e-195
9.07009e-199
1.58056e-202
2.83274e-206
5.06414e-210
8.97512e-214
1.56882e-217
2.6896e-221
4.49494e-225
7.27257e-229
1.13011e-232
1.67095e-236
2.32508e-240
3.00471e-244
3.54679e-248
3.74091e-252
3.42031e-256
2.59519e-260
1.52498e-264
6.10669e-269
1.219e-273
7.59308e-156
4.93694e-156
2.228e-156
6.97857e-157
1.51861e-157
2.28495e-158
2.36413e-159
1.63901e-160
7.41435e-162
2.17961e-163
4.04315e-165
4.67045e-167
3.36877e-169
1.45045e-171
3.54898e-174
4.6675e-177
3.27282e-180
1.37331e-183
4.35112e-187
1.20887e-190
2.87718e-194
5.53186e-198
1.09051e-201
2.14508e-205
4.18088e-209
8.03228e-213
1.51248e-216
2.77375e-220
4.9187e-224
8.36464e-228
1.35118e-231
2.04998e-235
2.88088e-239
3.68451e-243
4.19166e-247
4.11371e-251
3.33111e-255
2.07246e-259
8.69953e-264
1.8017e-268
6.48911e-152
4.25292e-152
1.94669e-152
6.22002e-153
1.38863e-153
2.15618e-154
2.31732e-155
1.67927e-156
7.98867e-158
2.48786e-159
4.92569e-161
6.11885e-163
4.79038e-165
2.25802e-167
6.10669e-170
8.93736e-173
6.96119e-176
3.18893e-179
1.07597e-182
3.18242e-186
8.23025e-190
1.74967e-193
3.82297e-197
8.33957e-201
1.80205e-204
3.83688e-208
8.00304e-212
1.62467e-215
3.18645e-219
5.98734e-223
1.06738e-226
1.78431e-230
2.75654e-234
3.86375e-238
4.79918e-242
5.11771e-246
4.473e-250
2.97758e-254
1.32168e-258
2.83955e-263
5.78259e-149
5.40159e-149
4.47127e-149
2.7462e-149
9.59724e-150
1.78252e-150
2.04576e-151
1.55419e-152
7.77362e-154
2.56333e-155
5.41385e-157
7.22729e-159
6.13734e-161
3.16482e-163
9.45624e-166
1.5404e-168
1.33494e-171
6.70205e-175
2.41296e-178
7.5689e-182
2.11773e-185
4.97508e-189
1.21135e-192
2.94834e-196
7.1075e-200
1.68797e-203
3.92598e-207
8.88407e-211
1.94151e-214
4.06296e-218
8.06035e-222
1.49759e-225
2.56734e-229
3.98601e-233
5.47029e-237
6.41771e-241
6.13276e-245
4.4251e-249
2.09864e-253
4.67361e-258
1.24951e-147
9.04251e-148
4.82406e-148
2.13424e-148
1.00925e-148
7.37577e-149
6.49969e-149
4.21514e-149
6.10346e-150
2.37152e-151
5.36201e-153
7.68784e-155
7.07659e-157
3.98908e-159
1.31625e-161
2.38696e-164
2.30531e-167
1.27378e-170
4.91031e-174
1.62808e-177
4.89938e-181
1.26895e-184
3.45532e-188
9.42685e-192
2.54729e-195
6.78081e-199
1.76769e-202
4.48338e-206
1.09817e-209
2.57539e-213
5.72355e-217
1.19064e-220
2.28405e-224
3.96559e-228
6.07865e-232
7.94904e-236
8.44255e-240
6.73583e-244
3.49721e-248
8.33652e-253
8.01857e-144
5.73236e-144
2.89033e-144
1.02835e-144
2.57116e-145
4.47113e-146
5.18664e-147
4.08339e-148
7.09176e-149
6.50961e-149
2.66213e-149
7.26059e-151
7.33248e-153
4.51549e-155
1.64473e-157
3.321e-160
3.57999e-163
2.18709e-166
9.07544e-170
3.17621e-173
1.02117e-176
2.90405e-180
8.85835e-184
2.71754e-187
8.25789e-191
2.47235e-194
7.25034e-198
2.06912e-201
5.70368e-205
1.50553e-208
3.76664e-212
8.82405e-216
1.90707e-219
3.73106e-223
6.44597e-227
9.50797e-231
1.14017e-234
1.02772e-238
6.0343e-243
1.63076e-247
4.87968e-140
3.528e-140
1.80945e-140
6.58127e-141
1.69047e-141
3.03082e-142
3.59852e-143
2.56209e-144
7.4558e-146
1.08128e-147
8.39719e-149
6.36477e-149
3.19808e-149
4.54676e-151
1.84237e-153
4.14294e-156
4.99215e-159
3.38888e-162
1.52506e-165
5.64641e-169
1.92803e-172
5.98347e-176
2.04462e-179
7.06793e-183
2.42057e-186
8.16951e-190
2.70157e-193
8.6966e-197
2.70489e-200
8.05902e-204
2.27727e-207
6.03063e-211
1.47465e-214
3.26746e-218
6.40281e-222
1.07366e-225
1.46791e-229
1.51565e-233
1.02809e-237
3.2688e-242
2.68367e-136
1.96254e-136
1.02393e-136
3.80694e-137
1.00492e-137
1.86086e-138
2.29216e-139
1.70006e-140
5.1583e-142
7.60793e-144
1.91698e-145
3.24265e-147
9.49569e-149
5.72579e-149
1.39163e-149
4.62337e-152
6.24152e-155
4.73346e-158
2.33226e-161
9.20134e-165
3.32944e-168
1.11979e-171
4.28012e-175
1.66932e-178
6.45169e-182
2.45801e-185
9.17819e-189
3.33715e-192
1.17286e-195
3.95104e-199
1.26326e-202
3.78825e-206
1.05e-209
2.64096e-213
5.88585e-217
1.12494e-220
1.75821e-224
2.08543e-228
1.63732e-232
6.10909e-237
1.33207e-132
9.85345e-133
5.2299e-133
1.98745e-133
5.3909e-134
1.03088e-134
1.31725e-135
1.01798e-136
3.23176e-138
5.3031e-140
1.41946e-141
2.48906e-143
2.84588e-145
2.16517e-147
5.73634e-149
4.93216e-149
6.88799e-151
5.95289e-154
3.24627e-157
1.38148e-160
5.32018e-164
1.93091e-167
8.23568e-171
3.6262e-174
1.58258e-177
6.8103e-181
2.87301e-184
1.18058e-187
4.69152e-191
1.78813e-194
6.47265e-198
2.19896e-201
6.91137e-205
1.97384e-208
5.00209e-212
1.08877e-215
1.94242e-219
2.63715e-223
2.3779e-227
1.0223e-231
5.95941e-129
4.45901e-129
2.4077e-129
9.35101e-130
2.60594e-130
5.14525e-131
6.81951e-132
5.49292e-133
1.8303e-134
3.31817e-136
9.4347e-138
1.77102e-139
2.18515e-141
1.72748e-143
8.2928e-146
3.03103e-148
3.81665e-149
5.81749e-150
4.10671e-153
1.91359e-156
7.93225e-160
3.11275e-163
1.47848e-166
7.35104e-170
3.62353e-173
1.76153e-176
8.39724e-180
3.90048e-183
1.75283e-186
7.55811e-190
3.09673e-193
1.19164e-196
4.24584e-200
1.3758e-203
3.95929e-207
9.79884e-211
1.99071e-214
3.08209e-218
3.17384e-222
1.55916e-226
2.40006e-125
1.8164e-125
9.97751e-126
3.95981e-126
1.13353e-126
2.31041e-127
3.17599e-128
2.6672e-129
9.36008e-131
1.86103e-132
5.61784e-134
1.12813e-135
1.50149e-137
1.29239e-139
6.81793e-142
2.0717e-144
3.56619e-147
3.76316e-149
2.06334e-149
2.43441e-152
1.10323e-155
4.72087e-159
2.49599e-162
1.40168e-165
7.80473e-169
4.2867e-172
2.30936e-175
1.21263e-178
6.16204e-182
3.0053e-185
1.39328e-188
6.07012e-192
2.45017e-195
8.99874e-199
2.93743e-202
8.25477e-206
1.90606e-209
3.35912e-213
3.94549e-217
2.22054e-221
8.69125e-122
6.65249e-122
3.71715e-122
1.50723e-122
4.43074e-123
9.32085e-124
1.32877e-124
1.16393e-125
4.31697e-127
9.34373e-129
2.9928e-130
6.42509e-132
9.21765e-134
8.63109e-136
5.00548e-138
1.69158e-140
3.19606e-143
3.42833e-146
6.32345e-149
2.70917e-149
1.4118e-151
6.68913e-155
3.94146e-158
2.50069e-161
1.57331e-164
9.76539e-168
5.94631e-171
3.52988e-174
2.02823e-177
1.11879e-180
5.86826e-184
2.89349e-187
1.32224e-190
5.50024e-194
2.03492e-197
6.48555e-201
1.69982e-204
3.40522e-208
4.5569e-212
2.93723e-216
2.827e-118
2.18814e-118
1.24352e-118
5.15043e-119
1.55434e-119
3.37407e-120
4.98798e-121
4.55908e-122
1.79329e-123
4.1945e-125
1.42477e-126
3.268e-128
5.0499e-130
5.13982e-132
3.27392e-134
1.22944e-136
2.61259e-139
3.17719e-142
2.43763e-145
1.87473e-148
2.63204e-149
8.52359e-151
5.73286e-154
4.11058e-157
2.92296e-160
2.05073e-163
1.4116e-166
9.47344e-170
6.15488e-173
3.83991e-176
2.27853e-179
1.27119e-182
6.57432e-186
3.09656e-189
1.29776e-192
4.68735e-196
1.39342e-199
3.16861e-203
4.82103e-207
3.53779e-211
8.25151e-115
6.45718e-115
3.73146e-115
1.5783e-115
4.88825e-116
1.09469e-116
1.67806e-117
1.60109e-118
6.69998e-120
1.6818e-121
6.05509e-123
1.48297e-124
2.46655e-126
2.72665e-128
1.90594e-130
7.94568e-133
1.8972e-135
2.6195e-138
2.2934e-141
1.48665e-144
8.78882e-148
2.93616e-149
6.61759e-150
6.14522e-153
4.93896e-156
3.91637e-159
3.04702e-162
2.3115e-165
1.69782e-168
1.19773e-171
8.03765e-175
5.0723e-178
2.96835e-181
1.58267e-184
7.51099e-188
3.07388e-191
1.0362e-194
2.67402e-198
4.62358e-202
3.85699e-206
2.17249e-111
1.7126e-111
1.00342e-111
4.33308e-112
1.37676e-112
3.18e-113
5.05418e-114
5.0359e-115
2.24807e-116
6.01711e-118
2.29512e-119
5.99852e-121
1.07317e-122
1.2875e-124
9.86752e-127
4.56237e-129
1.22279e-131
1.91506e-134
1.91261e-137
1.41414e-140
8.8736e-144
5.21363e-147
4.49118e-149
3.50065e-149
7.4628e-152
6.69412e-155
5.88493e-158
5.04513e-161
4.18832e-164
3.33975e-167
2.53371e-170
1.80814e-173
1.19698e-176
7.22169e-180
3.88026e-183
1.79929e-186
6.87845e-190
2.01615e-193
3.968e-197
3.78408e-201
5.40268e-108
4.27691e-108
2.52673e-108
1.10226e-108
3.55304e-109
8.37708e-110
1.36649e-110
1.41722e-111
6.76431e-113
1.91937e-114
7.75248e-116
2.16105e-117
4.15596e-119
5.40709e-121
4.53973e-123
2.32576e-125
6.98992e-128
1.24058e-130
1.41235e-133
1.19067e-136
8.49654e-140
5.58269e-143
4.50604e-146
9.29914e-148
6.12461e-149
9.90572e-151
1.00123e-153
9.69803e-157
9.09687e-160
8.19681e-163
7.0282e-166
5.67008e-169
4.24442e-172
2.89661e-175
1.7616e-178
9.25261e-182
4.01084e-185
1.33566e-188
2.99509e-192
3.27565e-196
1.20037e-104
9.54198e-105
5.69689e-105
2.52648e-105
8.31003e-106
2.01546e-106
3.40773e-107
3.67771e-108
1.87404e-109
5.4548e-111
2.33199e-112
6.92944e-114
1.43155e-115
2.01828e-117
1.85477e-119
1.05191e-121
3.54178e-124
7.117e-127
9.22932e-130
8.86729e-133
7.19414e-136
5.35925e-139
4.84155e-142
1.07057e-143
1.24571e-146
7.06698e-149
1.18735e-149
1.63301e-152
1.73081e-155
1.76187e-158
1.70688e-161
1.55608e-164
1.31652e-167
1.01583e-170
6.98788e-174
4.15412e-177
2.04028e-180
7.70983e-184
1.96707e-187
2.45829e-191
2.37871e-101
1.89858e-101
1.14526e-101
5.1627e-102
1.73217e-102
4.32043e-103
7.57063e-104
8.57739e-105
4.80649e-106
1.38035e-107
6.24335e-109
1.97656e-110
4.38373e-112
6.6924e-114
6.72623e-116
4.21918e-118
1.59e-120
3.61405e-123
5.33444e-126
5.838e-129
5.38355e-132
4.54617e-135
4.60787e-138
1.14438e-139
1.50665e-142
1.73181e-145
2.41049e-148
4.99513e-149
2.90292e-151
3.35285e-154
3.66708e-157
3.77435e-160
3.60584e-163
3.14251e-166
2.44206e-169
1.64087e-172
9.11539e-176
3.90009e-179
1.12869e-182
1.60401e-186
4.2018e-98
3.36712e-98
2.05173e-98
9.40003e-99
3.2161e-99
8.2475e-100
1.49722e-100
1.77934e-101
1.08991e-102
3.10863e-104
1.48696e-105
5.01295e-107
1.19286e-108
1.97053e-110
2.16427e-112
1.50023e-114
6.3219e-117
1.62392e-119
2.7261e-122
3.39656e-125
3.55891e-128
3.40608e-131
3.87418e-134
1.07969e-135
1.61041e-138
2.08147e-141
2.67044e-144
3.31286e-147
6.74671e-149
5.08239e-150
6.88456e-153
7.99704e-156
8.62162e-159
8.47921e-162
7.43674e-165
5.64073e-168
3.53824e-171
1.71054e-174
5.59886e-178
9.02176e-182
6.61303e-95
5.32024e-95
3.27408e-95
1.52434e-95
5.31661e-96
1.40144e-96
2.63481e-97
3.28195e-98
2.18625e-99
6.22782e-101
3.14912e-102
1.12998e-103
2.88321e-105
5.15028e-107
6.1768e-109
4.72748e-111
2.22558e-113
6.45488e-116
1.23148e-118
1.74586e-121
2.0777e-124
2.25287e-127
2.87641e-130
8.98848e-132
1.51813e-134
2.20461e-137
3.18726e-140
4.41291e-143
5.77315e-146
1.14642e-148
3.98845e-149
1.48823e-151
1.81368e-154
2.01098e-157
1.9885e-160
1.70013e-163
1.2021e-166
6.55108e-170
2.41802e-173
4.39904e-177
9.26999e-92
7.48673e-92
4.65223e-92
2.20083e-92
7.82258e-93
2.11902e-93
4.1245e-94
5.38069e-95
3.88087e-96
1.10953e-97
5.92847e-99
2.26311e-100
6.18824e-102
1.19452e-103
1.56316e-105
1.31987e-107
6.93557e-110
2.26922e-112
4.91651e-115
7.92667e-118
1.07096e-120
1.31512e-123
1.88541e-126
6.60202e-128
1.26209e-130
2.05757e-133
3.35052e-136
5.22533e-139
7.69723e-142
1.05074e-144
1.33842e-147
6.53448e-149
3.15976e-150
4.17953e-153
4.65566e-156
4.48233e-159
3.56795e-162
2.1878e-165
9.08219e-169
1.8559e-172
1.15701e-88
9.38004e-89
5.88445e-89
2.82822e-89
1.02421e-89
2.85028e-90
5.74174e-91
7.83942e-92
6.09876e-93
1.75734e-94
9.91848e-96
4.02612e-97
1.17913e-98
2.45796e-100
3.50706e-102
3.26422e-104
1.91293e-106
7.05462e-109
1.7345e-111
3.17846e-114
4.87332e-117
6.77498e-120
1.09093e-122
4.27834e-124
9.2539e-127
1.69232e-129
3.10252e-132
5.44734e-135
9.03358e-138
1.3884e-140
1.92116e-143
2.27318e-146
7.87304e-149
3.37223e-149
9.54177e-152
1.03574e-154
9.27685e-158
6.39716e-161
2.98389e-164
6.83858e-168
1.28548e-85
1.04607e-85
6.62404e-86
3.23297e-86
1.19598e-86
3.40996e-87
7.10703e-88
1.01487e-88
8.48766e-90
2.47399e-91
1.4744e-92
6.36119e-94
1.9943e-95
4.48648e-97
6.97454e-99
7.15024e-101
4.66924e-103
1.93928e-105
5.40691e-108
1.12553e-110
1.95755e-113
3.07999e-116
5.57197e-119
2.44624e-120
5.98512e-123
1.2268e-125
2.53098e-128
5.00065e-131
9.33178e-134
1.61402e-136
2.51333e-139
3.3439e-142
3.34724e-145
1.90108e-148
6.39438e-149
2.03139e-150
2.12295e-153
1.64682e-156
8.63692e-160
2.22497e-163
1.27111e-82
1.0382e-82
6.63507e-83
3.28807e-83
1.24244e-83
3.62791e-84
7.82073e-85
1.16727e-85
1.0464e-86
3.09529e-88