/*--------------------------------*- C++ -*----------------------------------*\
  =========                 |
  \\      /  F ield         | OpenFOAM: The Open Source CFD Toolbox
   \\    /   O peration     | Website:  https://openfoam.org
    \\  /    A nd           | Version:  8
     \\/     M anipulation  |
\*---------------------------------------------------------------------------*/
FoamFile
{
    version     2.0;
    format      ascii;
    class       volScalarField;
    location    "5.2";
    object      p;
}
// * * * * * * * * * * * * * * * * * * * * * * * * * * * * * * * * * * * * * //

dimensions      [1 -1 -2 0 0 0 0];

internalField   nonuniform List<scalar> 
9150
(
-204.204
-205.214
-205.846
-206.317
-206.55
-206.541
-206.305
-205.834
-205.217
-204.206
-224.261
-224.777
-225.2
-225.521
-225.695
-225.708
-225.533
-225.201
-224.778
-224.262
-244.155
-244.438
-244.694
-244.914
-245.028
-245.029
-244.906
-244.689
-244.436
-244.154
-263.894
-264.07
-264.239
-264.397
-264.477
-264.477
-264.392
-264.236
-264.068
-263.893
-283.516
-283.697
-283.834
-283.962
-284.019
-284.019
-283.957
-283.83
-283.694
-283.514
-118.222
-119.007
-118.716
-118.324
-118.14
-118.144
-118.324
-118.723
-119.032
-118.245
-133.713
-134.429
-134.595
-134.65
-134.551
-134.545
-134.641
-134.581
-134.416
-133.702
-150.191
-150.949
-151.247
-151.618
-151.667
-151.645
-151.566
-151.218
-150.914
-150.168
-167.038
-168.185
-168.637
-169.264
-169.451
-169.434
-169.278
-168.652
-168.189
-167.044
-184.066
-186.12
-186.877
-187.568
-187.846
-187.846
-187.584
-186.892
-186.129
-184.073
-24.3556
-26.0488
-28.1439
-29.1994
-29.6905
-29.7721
-29.1263
-27.9965
-26.0743
-24.5101
-44.849
-45.1465
-46.1755
-46.5815
-47.0299
-47.0078
-46.5591
-46.2426
-45.2701
-44.9838
-64.9894
-64.8405
-65.8619
-65.431
-65.9402
-65.9734
-65.5441
-65.9487
-64.8963
-65.0524
-87.8201
-84.9713
-85.9693
-84.4502
-84.6065
-84.6095
-84.4258
-85.9751
-84.9952
-87.8478
-113.409
-103.897
-103.403
-102.012
-101.63
-101.655
-102.069
-103.455
-103.944
-113.469
1013.75
1012.92
1012.14
1011.33
1010.44
1009.5
1008.59
1007.69
1007.07
1007.43
994.021
993.225
992.536
991.885
991.052
989.996
988.971
989.474
990.191
989.606
973.428
972.861
972.266
971.575
971.319
970.571
969.053
968.856
967.035
973.653
951.669
951.148
950.749
950.323
949.784
948.928
948.545
948.376
947.668
950.2
929.042
928.687
928.459
928.303
928.143
927.461
928.709
928.231
927.733
928.011
906.143
906.003
906.356
907.013
907.782
908.764
908.926
908.17
907.34
906.691
884.204
884.255
885.413
887.366
889.035
889.545
889.704
888.013
886.392
883.309
863.676
864.135
866.112
868.949
871.982
873.616
871.656
865.589
864.177
862.498
844.449
844.373
845.407
846.135
845.928
847.905
845.786
845.278
840.617
839.552
825.568
825.044
825.504
825.895
824.84
828.619
828.754
827.035
823.147
821.017
809.773
809.459
809.3
809.286
809.689
814.745
816.511
816.418
815.896
814.719
794.461
794.087
794.425
797.039
799.603
800.498
801.414
804.531
804.446
803.819
778.662
778.769
779.37
781.538
780.901
783.587
785.12
784.499
784.276
784.512
761.71
762.03
762.999
764.274
764.886
764.816
765.924
765.195
764.719
764.576
743.699
744.078
744.969
746.936
745.89
746.278
745.945
744.914
744.001
743.639
724.873
725.667
726.531
727.065
727.153
726.839
732.298
726.403
724.373
724.233
706.543
707.471
708.568
709.563
710.359
710.937
712.055
712.938
707.636
706.981
688.888
690.229
692.037
693.634
694.689
695.26
695.522
695.806
694.491
691.748
678.797
677.69
676.761
678.904
680.323
680.83
680.284
679.534
678.641
676.787
668.561
668.569
665.179
666.155
666.884
666.947
665.915
664.543
663.454
661.903
658.503
655.512
652.678
653.053
653.37
652.746
651.39
649.747
648.544
647.478
638.837
637.179
638.058
638.997
638.958
637.833
636.424
634.707
633.082
631.363
622.235
622.342
623.383
623.479
623.722
623.013
621.304
619.371
617.144
614.54
607.207
609.391
611.232
611.138
610.698
609.567
607.571
605.113
602.21
599.064
597.923
600.264
601.842
602.172
600.581
598.097
594.993
591.417
587.521
583.306
591.345
593.622
594.689
594.35
591.334
587.599
583.207
578.318
573.049
567.56
584.124
585.867
585.952
584.485
581.064
576.247
570.608
564.277
557.482
550.702
576.404
577.661
576.973
573.799
568.77
562.426
555.473
547.65
539.084
530.552
564.406
565.269
564.977
561.975
555.936
548.542
539.516
529.179
518.077
507.754
556.386
558.976
555.844
552.721
548.31
537.506
525.37
508.934
497.005
486.161
540.636
540.442
538.102
532.731
521.433
502.737
489.084
473.153
458.909
452.447
509.146
506.767
495.583
475.847
447.169
420.942
405.725
399.376
402.194
403.908
464.179
455.791
432.15
393.585
360.192
355.398
358.647
359.485
363.819
365.452
419.459
408.371
382.868
350.483
333.483
328.274
333.128
343.624
351.798
356.35
365.087
352.292
331.308
318.517
319.549
324.316
328.138
334.612
347.491
354.959
300.103
301.642
299.122
301.747
310.582
315.353
309.665
316.661
322.491
325.625
236.796
249.714
259.369
271.598
289.871
307.859
286.114
290.186
293.631
293.754
180.908
197.423
212.588
227.803
242.782
267.25
258.689
262.001
265.527
265.18
140.076
154.908
172.122
189.654
205.311
218.287
231.054
236.214
239.399
239.948
119.915
131.666
146.633
161.951
177.348
190.069
200.417
219.21
216.818
219.771
122.753
123.346
127.972
138.609
150.639
163.605
175.889
191.75
202.42
203.44
119.979
126.093
126.483
123.088
128.412
139.247
151.42
165.709
181.295
194.664
125.67
129.29
128.035
125.862
126.713
126.83
135.509
145.088
156.045
170.897
126.954
127.092
128.256
127.824
128.067
125.865
123.812
128.18
138.612
155.187
123.564
125.803
127.117
127.5
127.379
126.355
126.284
130.882
129.433
140.841
120.249
126.45
126.314
127.038
127.277
123.689
122.119
123.202
122.583
132.919
114.759
119.976
134.821
117.577
132.522
106.039
109.692
111.821
115.921
126.432
94.1818
104.615
112.22
104.019
126.746
90.1677
95.992
99.861
107.473
118.963
51.1919
67.4579
81.0943
90.5797
98.7951
77.2143
86.4044
93.1247
102.828
115.537
33.2088
52.4573
68.7736
94.476
89.6317
87.382
91.8931
99.6285
107.456
117.41
54.1912
66.5987
78.2099
96.6049
92.6637
93.2631
98.7334
107.843
117.218
124.248
72.8231
84.3741
91.737
103.581
89.6613
95.7399
103.088
113.308
125.599
134.719
84.1311
87.0999
107.448
104.061
102.442
102.66
105.349
114.645
129.872
142.915
100.551
104.321
108.225
95.2144
99.0221
101.728
104.296
109.115
122.619
138.437
96.1074
105.655
103.077
102.373
102.182
101.614
97.5911
95.6212
97.8197
100.212
100.852
102.785
97.2738
99.353
98.0639
92.6554
75.4553
67.1221
63.3626
57.7139
93.6829
94.5396
94.1726
96.3123
95.5058
81.4915
53.4999
46.4502
42.4743
47.7884
84.8535
83.5397
84.4079
91.3591
98.7231
74.7827
59.7335
46.7493
31.2657
58.3559
72.0257
76.0708
81.9147
90.4363
100.349
74.3952
97.7356
65.9757
76.6843
54.6681
65.141
71.9072
78.8506
86.5002
102.692
73.504
105.213
82.6368
78.9053
67.9344
30.9079
41.5131
52.7659
56.4766
65.1708
41.0208
79.2137
55.4437
67.1109
53.9541
2.45268
3.41376
0.42765
38.6005
28.7803
1.73137
40.2141
19.7157
38.9756
8.31748
-1.31596
-0.527388
4.42975
12.0526
36.0557
18.7687
12.9824
2.76351
3.32253
-0.856918
-0.338163
0.20909
-0.119965
0.0326169
27.9759
24.5497
2.66665
-2.66251
-1.33519
-1.29971
-1.18546
-1.24446
-1.06354
-1.43231
23.6029
28.2833
-1.75079
-2.01663
-1.40562
-1.32725
-1.02706
-0.97682
-0.82409
-1.46308
25.5936
25.7942
-2.08833
-0.937442
-1.18682
-1.19412
-1.08675
-1.05168
-0.998707
-1.20007
26.2576
26.0762
-1.36634
-0.89691
-1.04056
-1.15051
-1.13633
-1.12032
-1.08961
-1.06196
19.0613
33.2861
-1.16007
-1.05948
-1.16188
-1.21883
-1.17305
-1.15991
-1.12639
-1.00917
11.5102
40.3877
-1.33172
-1.17876
-1.20652
-1.22374
-1.22799
-1.23394
-1.25233
-1.34288
42.3681
8.03667
-1.10276
-1.15164
-1.19485
-1.25496
-1.26599
-1.27391
-1.3072
-1.38374
39.2457
12.4578
-1.21979
-1.31066
-1.34531
-1.40207
-1.28333
-1.27481
-1.26169
-1.18995
10.6826
39.4137
-1.60222
-1.52697
-1.50561
-1.51862
-1.31063
-1.29742
-1.27205
-1.19203
11.1842
39.9253
-1.65438
-1.57256
-1.54347
-1.52976
-1.35801
-1.35709
-1.36301
-1.41422
31.7237
18.9096
-1.50091
-1.52608
-1.52844
-1.51795
-1.39824
-1.3951
-1.39314
-1.40154
23.5295
27.3128
-1.54761
-1.51909
-1.51567
-1.51069
-1.44091
-1.43928
-1.43801
-1.45795
25.1522
25.9879
-1.51116
-1.49812
-1.49891
-1.4988
-1.48168
-1.47906
-1.47392
-1.46893
22.5128
28.6206
-1.5359
-1.50087
-1.50059
-1.49873
-1.52175
-1.52196
-1.52693
-1.55681
28.8201
21.2776
-1.46428
-1.47918
-1.49373
-1.4991
-1.5561
-1.55446
-1.55127
-1.5443
23.3074
25.8557
-1.4772
-1.47073
-1.49407
-1.49523
-1.58479
-1.58452
-1.5832
-1.57987
24.5606
23.4855
-1.46214
-1.47473
-1.50508
-1.51012
-1.60402
-1.60493
-1.61771
-1.63708
29.2305
17.5957
-1.43305
-1.46335
-1.50053
-1.5219
-1.60855
-1.61141
-1.61555
-1.64423
28.8395
17.9448
-1.4443
-1.46266
-1.5077
-1.52786
-1.58952
-1.59098
-1.57372
-1.58471
21.5788
23.1055
-1.49798
-1.48352
-1.52942
-1.54254
-1.5904
-1.59143
-1.56201
-1.57466
18.0405
25.0741
-1.5579
-1.52167
-1.56287
-1.56853
-1.6174
-1.62147
-1.59626
-1.63709
21.2611
20.2768
-1.60521
-1.56297
-1.59407
-1.59789
-1.64262
-1.64287
-1.63044
-1.69898
22.1476
17.351
-1.65972
-1.61199
-1.63456
-1.64444
-1.66311
-1.65486
-1.6435
-1.69013
14.4868
21.5227
-1.71912
-1.65206
-1.67213
-1.68024
-1.68954
-1.68285
-1.68381
-1.73905
19.7247
12.8907
-1.67603
-1.6488
-1.67217
-1.6912
-1.71555
-1.70446
-1.71173
-1.75729
19.5871
9.52582
-1.72584
-1.68667
-1.68923
-1.71055
-1.72195
-1.72496
-1.72284
-1.7639
12.5165
12.421
-1.7712
-1.73754
-1.73519
-1.74214
-1.73396
-1.74167
-1.74127
-1.83864
11.0946
8.52394
-1.82924
-1.7633
-1.76341
-1.76828
-1.7588
-1.75956
-1.74601
-1.99645
7.50645
6.73737
-2.04125
-1.79379
-1.79886
-1.79856
-1.78071
-1.77649
-1.77823
-2.09217
4.1633
5.40389
-2.16533
-1.83779
-1.8302
-1.83228
-1.80461
-1.7982
-1.87692
-1.83992
2.55648
3.17674
-2.11855
-1.91176
-1.85269
-1.85278
-1.82848
-1.8265
-1.97518
-1.90671
1.4752
1.01862
-1.57618
-2.0386
-1.86855
-1.86875
-1.85555
-1.85567
-2.15367
-1.12124
0.28126
-0.12248
-1.48627
-2.3127
-1.88679
-1.88614
-1.87579
-1.86905
-3.19777
-1.61334
-0.527612
-0.475883
-1.42296
-3.29651
-1.8991
-1.90525
-1.88874
-2.35515
-4.31403
-2.10311
-1.29343
-1.70144
-2.9245
-4.65457
-2.36366
-1.93104
-1.91026
-4.14169
-6.10014
-6.2498
-5.98714
-5.52247
-5.22071
-4.99473
-3.82734
-1.96636
-2.67582
-9.21298
-12.573
-14.5648
-15.4855
-15.5849
-14.9638
-13.2053
-9.79094
-2.83199
1007.88
1008.45
1008.79
1009.03
1009.27
1009.33
1009.24
1009.07
1008.79
1008.4
1007.99
1007.57
1007.09
1007.11
1006.68
1005.74
1005.07
1004.4
1003.8
1003.23
1002.59
1001.93
999.946
999.355
998.624
997.369
996.95
996.917
996.922
996.464
996.126
997.292
1000.38
999.462
1000.75
1002.54
1003.94
1004.77
1005.05
1005.23
989.035
989.513
989.537
989.327
989.575
989.743
989.617
989.47
989.225
988.893
988.535
988.371
987.864
987.466
986.895
986.262
985.447
984.562
983.789
983.055
982.753
983.473
979.045
978.158
977.35
976.795
976.421
976.229
976.691
976.827
976.756
979.714
981.408
981.564
982.103
983.323
984.368
985.005
985.358
985.413
969.496
970.689
970.153
971.914
971.452
970.549
970.262
970.162
969.833
969.509
969.466
968.897
968.401
968.124
967.441
966.913
966.676
965.926
965.16
964.423
965.204
964.469
959.807
955.628
954.213
952.634
952.498
954.82
952.047
949.98
953.245
959.565
960.3
963.677
965.835
967.677
968.929
969.625
969.972
970.134
951.747
952.11
950.19
950.04
950.468
950.539
950.449
950.265
949.922
949.727
949.618
949.197
948.472
947.809
947.708
947.185
946.891
946.094
945.641
945.154
944.621
941.495
939.853
937.653
935.244
933.512
932.382
936.696
939.427
940.6
941.378
941.025
941.883
943.134
944.484
947.443
948.418
949.494
949.669
950.213
928.462
928.463
928.96
929.008
929.045
929.337
929.584
929.667
929.794
930.03
929.987
929.373
928.429
927.548
927.324
926.825
926.465
926.095
924.735
923.149
922.006
920.599
918.683
917.088
916.315
916.1
916.879
919.338
920.091
923.123
924.542
928.97
921.596
922.522
924.08
925.747
927.392
928.614
929.308
929.612
907.165
906.519
906.33
906.271
906.68
907.328
907.912
908.422
908.968
909.091
909.191
908.89
908.272
907.773
907.605
906.854
905.587
903.966
902.275
900.635
898.8
898.085
897.583
896.991
897.473
897.763
898.421
899.343
900.517
901.337
902.684
905.768
906.408
904.873
906.983
906.957
907.8
908.32
908.739
909.152
882.744
882.836
883.165
883.049
883.476
884.873
886.403
887.571
889.021
888.479
888.557
888.568
887.909
887.901
887.076
885.189
883.337
880.977
878.483
876.107
874.189
873.096
873.375
874.773
876.264
877.626
879.146
880.529
881.959
883.614
885.277
887.582
890.102
892.247
889.883
889.049
888.489
887.975
887.646
887.709
859.938
860.471
861.07
861.025
863.067
863.095
865.463
866.817
868.181
868.596
868.383
868.095
867.501
866.75
864.653
862.242
859.231
855.688
851.759
847.216
845.05
846.484
849.383
853.605
855.355
856.25
858.437
860.358
861.514
862.401
863.581
866.131
871.064
876.885
869.643
869.529
868.965
868.853
869.51
870.389
837.696
837.218
839.383
841.335
843.819
845.33
847.418
848.77
850.63
849.861
849.929
849.24
847.476
845.776
843.491
840.457
836.958
833.201
828.62
824.743
823.806
827.591
832.709
834.811
836.755
839.537
838.888
840.522
841.133
840.787
840.928
842.142
843.762
845.708
846.782
848.225
849.286
850.343
851.416
851.904
821.643
819.612
819.577
822.682
826.686
827.906
831.343
833.579
833.378
833.6
832.249
831.665
829.072
827.18
824.506
820.958
818.815
816.811
813.599
815.404
816.8
819.285
821.816
823.312
824.747
826.248
827.597
827.997
827.112
825.399
825.979
831.175
826.961
822.837
827.193
828.111
830.502
832.015
833.353
834.122
813.707
812.756
811.427
808.455
812.118
813.8
815.34
817.903
817.608
816.38
815.797
814.505
812.226
810.239
807.034
804.782
805.205
802.954
803.219
801.989
806.091
807.39
808.124
809.498
811.091
811.923
814.179
816.092
817.583
819.709
822.891
823.523
817.662
810.952
811.23
811.394
812.731
813.874
814.715
817.376
803.416
802.77
797.018
795.689
797.164
797.967
798.517
799.396
801.894
800.589
800.069
798.877
796.644
794.276
791.563
790.027
788.244
786.954
785.499
788.234
788.432
788.566
790.012
791.218
792.502
794.299
795.936
797.456
799.577
802.45
805.649
807.175
806.403
801.246
797.114
795.162
795.094
795.541
795.879
799.602
783.285
782.17
781.081
779.405
781.491
780.354
780.243
780.879
785.923
782.276
780.105
778.04
777.627
776.456
775.193
775.381
773.65
772.485
770.947
768.891
769.297
769.278
770.179
770.328
772.566
774.394
776.212
779.389
781.245
783.029
784.82
786.466
786.64
782.537
777.62
775.728
775.756
775.696
775.34
778.853
764.138
763.151
760.935
762.906
761.091
760.484
760.402
759.239
759.215
757.291
761.997
755.24
755.88
757.088
756.782
756.277
756.871
755.132
753.973
752.797
748.814
748.315
747.553
748.747
750.882
752.32
752.769
754.97
758.019
760.549
760.83
758.735
758.656
756.354
752.077
751.921
754.346
755.322
754.759
757.377
743.734
743.622
743.973
743.174
741.852
741.415
740.81
739.98
736.192
738.705
737.708
736.279
738.264
738.295
737.179
736.139
735.789
734.288
732.68
731.313
729.646
728.558
725.142
725.057
728.211
729.596
733.281
730.911
734.037
738.506
737.615
736.406
737.79
735.782
737.61
736.834
734.215
734.669
737.119
738.371
724.811
725.97
725.867
722.993
722.863
722.407
721.777
721.585
720.613
719.601
718.86
719.815
719.505
718.317
716.412
715.462
713.768
712.058
710.776
710.532
710.002
709.648
708.695
708.457
709.907
711.748
714.368
716.596
717.3
718.348
720.706
724.073
726.713
721.391
720.551
722.077
721.242
719.951
718.156
724.33
707.288
705.356
707.666
705.152
704.413
703.91
703.119
703.212
704.656
704.49
702.681
704.02
704.082
703.117
699.263
696.489
695.128
691.366
691.541
690.629
690.958
688.163
685.467
685.855
688.248
692.811
696.799
697.879
700.947
702.301
706.285
708.804
714.309
708.962
714.268
705.904
705.683
704.82
703.59
706.676
692.973
693.609
688.652
688.936
685.46
685.179
685.075
684.828
684.981
690.99
689.125
688.305
689.509
686.184
682.103
680.183
677.743
674.803
672.011
670.396
669.922
668.698
672.29
667.794
664.96
672.347
677.869
681.79
684.987
686.669
688.447
688.664
698.565
684.948
689.582
687.758
688.721
689.737
689.381
688.939
674.843
674.965
674.212
672.504
670.27
668.714
669.367
669.213
667.215
678.81
671.758
673.82
672.929
670.452
668.234
665.637
663.401
661.539
660.078
657.444
657.76
660.888
661.33
660.276
657.204
657.548
660.603
662.908
664.233
665.322
665.263
666.255
669.16
664.752
671.932
671.569
673.055
675.858
674.821
675.945
660
658.634
656.831
656.65
655.886
653.895
655.453
655.718
656.136
662.443
660.086
652.129
649.98
649.173
647.918
646.188
645.352
647.921
648.469
648.974
646.615
648.351
649.714
647.124
645.317
644.93
644.674
645.38
647.315
650.79
652.819
653.671
651.843
650.536
653
653.738
654.69
656.035
657.502
663.969
645.912
644.312
641.285
640.436
639.589
639.488
639.865
641.634
643.672
645.153
642.231
641.781
640.663
638.785
638.05
636.78
636.213
635.778
635.651
631.217
632.329
632.796
632.078
632.108
632.323
631.771
631.44
634.439
635.581
636.742
637.088
636.676
635.729
635.838
636.206
636.665
636.43
637.048
635.435
638.925
633.073
631.412
624.459
622.91
621.952
621.199
621.135
621.507
621.715
622.997
623.278
619.741
616.641
614.832
613.143
618.583
617.706
612.351
613.587
613.674
614.672
615.73
616.691
617.804
618.512
617.785
620.467
622.607
623.813
624.103
623.47
622.437
620.746
620.214
619.492
619.964
618.222
616.922
615.644
616.154
612.676
609.746
606.759
604.72
603.159
601.99
601.356
600.962
600.723
600.709
600.387
598.093
596.226
594.869
593.772
593.496
594.711
594.39
594.148
594.974
596.237
597.956
599.835
601.581
602.691
602.96
607.283
611.522
612.106
612.029
609.083
607.087
605.534
600.798
604.457
604.072
599.605
600.835
601.516
604.769
595.669
592.044
588.644
585.679
583.173
581.219
579.843
579.025
578.684
578.411
578.097
577.256
575.997
575.607
575.154
574.67
574.437
574.87
575.954
577.056
578.831
581.096
583.485
585.321
587.539
587.656
588.144
589.761
590.034
590.165
589.254
588.28
583.308
582.52
581.58
580.121
578.595
578.586
580.237
585.514
578.752
573.827
569.048
564.666
560.91
558.168
556.589
555.589
555.334
555.435
555.604
555.717
555.469
555.023
554.611
554.602
554.692
554.586
555.294
556.982
558.613
560.936
564.131
567.174
569.229
569.438
570.013
570.721
570.536
570.643
569.688
567.273
564.766
562.666
559.602
557.328
558.112
559.717
561.337
565.584
561.636
555.263
548.898
542.567
536.912
531.987
528.489
528.413
529.265
530.523
531.744
532.605
532.991
533.185
533.31
533.592
534.017
534.341
536.888
542.314
544.08
545.974
545.196
547.507
548.899
549.971
551.601
552.476
552.217
551.257
549.923
547.47
544.757
546.492
541.859
544.147
541.046
545.483
545.851
550.557
543.571
535.665
527.824
520.423
512.786
509.006
501.977
500.768
502.429
504.67
506.932
508.602
510.257
512.067
512.76
512.793
514.565
519.678
518.16
521.227
525.571
528.841
530.415
531.554
530.981
533.127
534.976
536.2
536.446
535.304
534.031
530.606
531.079
533.313
526.672
533.321
526.76
533.092
532.05
534.647
522.547
514.823
507.237
499.808
491.272
488.668
484.163
478.746
479.219
480.545
482.085
483.743
486.406
489.495
491.739
492.858
499.605
497.853
499.459
503.286
503.962
504.791
515.994
512.89
512.315
515.262
517.291
518.065
517.493
516.926
514.555
512.256
514.058
512.898
514.057
513.268
514.313
516.464
511.309
512.538
499.868
491.77
483.426
479.087
473.673
468.033
463.099
458.107
456.516
455.635
456.304
458.607
462.47
467.597
472.58
476.333
477.113
474.868
474.364
477.566
480.366
482.599
485.337
488.487
492.681
495.902
497.319
497.311
496.585
496.259
493.374
491.763
490.415
490.444
490.732
488.207
494.914
492.153
491.857
491.949
477.096
470.101
463.641
458.182
452.075
445.458
439.246
433.001
427.89
423.01
422.027
425.551
433.845
443.718
452.4
455.694
453.838
451.949
451.125
452.36
455.614
459.124
462.357
466.811
471.882
474.33
474.455
474.233
473.48
472.858
469.162
466.418
464.251
464.356
465.694
469.081
470.918
465.555
468.075
469.779
447.578
442.516
438.085
434.498
427.299
420.033
413.24
405.035
397.019
389.729
384.502
385.915
395.504
408.236
420.397
427.134
430.553
429.749
427.717
427.005
431.396
435.866
437.85
439.179
454.943
448.036
447.786
448.929
448.299
447.967
445.572
443.894
442.515
442.055
442.707
450.932
449.755
447.999
448.983
450.608
407.387
408.569
406.153
402.169
396.581
390.37
380.166
368.086
352.852
341.338
324.945
328.37
344.628
366.032
380.953
389.584
391.23
398.409
400.971
400.809
409.757
414.334
415.107
414.918
428.905
427.497
422.582
424.121
425.007
425.842
426.636
427.266
427.827
428.409
429.132
432.419
431.094
430.118
428.678
432.816
370.992
376.122
378.759
373.676
362.32
353.217
343.091
333.103
323.022
312.96
299.328
286.584
294.439
294.414
295.321
322.427
338.891
343.054
355.693
363.457
377.124
390.364
393.284
392.826
399.509
401.501
398.913
400.104
402.733
405.275
407.653
409.782
411.449
411.638
411.905
412.42
410.805
410.476
408.308
408.061
360.298
361.3
358.833
356.338
349.917
337.201
321.304
305.05
294.435
273.644
251.332
231.1
226.092
229.06
244.28
241.436
262.194
290.758
303.154
321.202
336.967
351.372
366.546
369.39
373.467
377.102
377.838
378.709
381.161
385.387
388.082
390.766
392.111
388.215
388.901
388.366
386.035
386.229
386.184
385.381
347.402
350.052
346.74
337.598
317.944
302.518
274.989
246.695
227.678
220.562
216.782
214.769
213.994
216.2
221.207
225.992
229.261
244.424
265.713
286.42
305.05
318.782
332.594
346.716
348.419
355.113
357.392
358.418
360.198
365.443
367.172
366.002
365.194
359.37
357.521
355.992
356.527
360.536
361.929
365.874
324.457
323.257
327.349
299.394
280.134
235.644
217.455
214.621
214.847
212.114
210.549
210.426
211.054
213.619
219.342
224.117
223.712
231.175
252.276
265.62
281.864
293.637
303.552
321.264
330.829
334.431
338.997
340.57
342.128
343.197
347.923
341.643
340.906
336.524
332.54
332.185
338.363
341.994
346.118
349.696
301.953
293.893
281.807
263.572
229.119
212.935
210.361
210.391
210.131
209.52
209.481
210.367
212.684
216.705
221.352
224.363
222.238
222.775
245.078
259.924
271.535
281.326
286.239
296.157
307.416
314.036
318.997
322.424
323.927
325.575
327.983
327.742
320.957
320.394
320.422
322.122
326.735
333.726
340.678
345.804
269.41
259.03
249.331
232.086
204.217
209.947
209.31
209.517
208.889
207.617
207.088
207.723
209.19
212.359
217.734
222.084
227.367
225.566
240.295
252.369
256.755
261.844
266.854
275.129
284.593
293.132
298.893
303.561
306.183
308.402
309.901
312.368
311.535
309.258
313.386
315.934
324.289
333.956
341.282
346.015
238.677
234.921
228.302
218.352
204.046
206.739
206.296
205.429
203.847
201.529
199.696
204.577
204.349
204.47
212.198
220.134
225.03
236.968
244.588
243.207
239.262
240.675
247.095
255.613
263.862
271.872
279.434
286.497
292.295
296.616
300.108
302.513
302.875
308.235
313.308
320.71
328.852
336.338
342.019
345.711
220.159
218.448
214.939
210.409
204.376
201.064
202.352
200.685
198.785
196.18
192.679
192.037
198.253
196.693
196.112
202.063
211.464
219.502
216.963
218.967
213.569
212.839
220.487
231.29
241.401
251.416
262.444
273.209
282.223
289.368
296.053
300.959
304.241
307.634
314.876
322.098
329.429
335.444
339.108
340.507
208.487
208.09
207.499
205.408
202.445
199.951
197.354
196.482
195.208
192.547
188.471
185.69
183.618
166.976
161.011
168.527
170.927
162.379
152.146
150.393
161.021
159.928
179.046
199.948
215.847
229.712
243.753
258.202
272.664
282.398
289.868
296.175
301.406
303.839
311.241
318.36
324.012
328.843
331.949
332.534
199.001
201.619
201.768
202.047
202.258
201.315
195.945
193.972
193.455
191.766
188.353
184.357
180.064
176.284
166.081
167.486
151.832
139.469
140.775
139.172
136.605
136.296
146.395
166.701
186.208
203.524
223.086
241.711
256.455
268.482
280.586
290.631
293.824
295.59
302.86
309.758
315.537
320.253
322.612
323.194
192.601
199.821
194.757
199.097
196.155
195.284
194.502
188.818
191.311
190.147
185.102
177.905
169.425
157.402
145.861
137.783
136.447
135.28
134.542
132.7
131.406
132.182
135.451
143.445
157.203
177.04
204.751
226.549
242.976
256.543
266.592
274.738
280.026
285.896
293.06
299.762
305.076
309.367
311.475
312.544
167.134
194.033
188.348
185.696
182.873
177.197
179.11
175.987
183.762
175.894
172.353
167.14
164.052
155.903
137.883
130.62
131
130.468
130.156
129.56
130.18
132.224
134.236
137.219
140.032
158.246
195.201
218.197
233.016
246.917
255.279
264.345
271.676
278.181
283.148
287.746
291.721
295.021
300.369
296.975
167.821
178.729
185.781
164.765
173.83
163.719
157.824
175.719
168.582
170.509
161.886
152.253
144.316
131.33
128.576
128.367
128.797
128.72
128.399
129.101
130.956
133.421
135.878
140.696
150.278
172.373
201.374
221.675
237.313
242.714
246.975
254.365
260.455
264.93
268.501
271.87
275.39
283.266
279.204
281.353
155.807
165.76
173.929
161.168
175.253
161.721
153.37
170.853
159.594
156.916
146.936
137.314
130.616
130.763
130.057
129.46
129.088
129.197
129.43
130.179
131.506
133.024
135.068
141.07
158.573
185.79
205.269
217.596
225.875
225.774
231.061
237.269
243.105
249.498
254.606
255.408
258.368
258.433
261.516
263.421
146.679
152.934
158.696
159.127
162.99
162.717
149.756
167.547
152.617
149.169
141.115
129.081
131.724
131.681
131.232
130.894
130.798
130.788
130.911
131.005
130.623
129.39
130.309
142.15
160.975
178.85
188.864
190.732
195.373
202.37
210.415
218.718
225.595
231.212
236.226
238.818
241.947
245.329
244.537
244.691
134.097
139.317
142.463
145.924
151.092
157.058
145.423
148.812
150.2
146.481
146.901
128.581
132.794
132.493
132.052
131.737
131.767
131.911
131.798
131.235
130.395
128.499
126.302
130.939
143.474
154.22
161.273
165.826
172.253
179.308
187.13
195.747
204.418
210.156
215.15
222.742
228.068
231.186
230.154
228.88
124.142
127.603
129.62
135.139
139.69
149.104
142.612
141.098
147.228
138.531
149.34
135.279
133.371
133.22
132.687
132.403
132.347
132.557
132.594
132.128
131.388
130.553
129.523
130.044
130.155
137.548
145.435
149.787
152.849
156.652
164.116
171.759
178.184
185.998
196.297
202.714
207.577
210.857
212.067
212.48
122.293
125.551
127.419
130.506
135.607
145.586
140.955
139.908
142.524
146.251
140.921
140.342
130.07
133.742
133.235
132.894
132.715
132.998
133.279
133.16
132.603
131.916
131.644
131.899
130.632
131.18
136.402
136.992
136.003
135.847
141.122
145.301
149.758
155.181
172.437
175.176
183.01
186.127
188.033
188.665
130.257
133.73
135.819
137.062
143.751
149.396
139.742
134.669
134.659
139.209
133.154
131.003
130.88
133.219
129.339
134.345
133.457
131.937
133.642
133.588
132.761
132.189
132.03
132.494
131.187
126.767
128.55
122.314
114.895
106.01
101.945
107.647
107.711
107.851
118.843
131.68
141.195
148.221
153.068
152.996
142.759
145.832
143.327
139.828
145.964
145.565
140.946
136.117
132.657
130.966
128.846
118.537
120.143
117.273
125.547
128.668
134.391
132.795
130.283
128.557
127.058
127.423
127.306
127.274
127.473
116.527
114.632
104.327
91.8399
74.7112
58.0089
53.2309
53.7313
53.0823
58.4788
70.949
92.6065
106.849
112.785
114.917
145.722
144.308
141.275
141.504
139.928
130.087
147.391
122.164
130.437
120.186
119.113
117.023
114.72
119.429
120.687
116.415
114.186
116.98
121.173
119.769
116.88
111.817
108.344
105.403
103.847
103.759
94.1655
84.4917
70.9359
53.4849
36.9222
28.0537
27.7972
34.0007
37.883
49.24
66.7016
78.7394
86.7548
90.0507
134.369
132.797
125.926
134.257
120.914
121.291
130.236
99.5866
108.977
112.036
108.923
109.552
108.818
108.142
107.877
107.838
106.238
104.039
100.939
100.323
101.235
97.9092
95.5307
94.1019
92.2801
86.7591
84.4879
78.1559
69.1579
57.4132
44.7437
39.2951
38.9223
42.466
46.9853
51.3837
62.0417
71.0599
74.5161
77.4883
96.8038
101.926
103.8
112.116
96.9852
101.179
103.844
91.2394
95.4714
97.1923
98.4628
99.5792
101.799
102.626
102.333
101.99
100.122
98.1781
96.7373
94.8077
89.1347
87.9122
86.0027
84.432
82.5268
80.3517
81.6479
79.6508
75.3846
66.9499
58.4711
53.4761
50.6203
50.6968
52.3218
51.8367
63.7715
61.2916
65.2344
67.4679
56.275
67.0509
69.7048
81.4217
63.3287
89.8888
79.7313
78.6492
79.4074
82.002
79.8148
94.9543
93.5991
93.9866
94.7134
94.4687
93.5264
92.2063
90.2019
89.0128
88.5906
85.6879
78.2198
77.5188
76.6359
76.5972
75.5641
74.2998
73.518
69.2833
63.3881
57.6129
54.0813
52.686
53.1475
56.5558
57.7858
61.0511
63.1298
59.7193
34.8371
55.0899
49.688
74.2799
64.5499
65.8561
62.4878
54.9772
59.6614
67.362
77.27
73.7444
86.9331
87.624
82.3763
86.0481
87.4233
82.1022
80.2197
79.61
78.5118
80.5035
80.3383
75.4504
66.6926
61.9528
61.114
59.4309
58.1099
56.2875
52.873
48.4583
45.6454
46.9789
47.6871
48.1424
48.7375
50.3243
50.4215
51.7883
40.8058
49.5644
51.0452
50.7209
53.2865
52.3751
49.3935
49.4973
47.835
64.5902
66.0521
66.812
63.6759
66.1532
65.3062
65.0344
64.6828
65.4471
67.1205
67.7207
66.2566
63.5916
63.3437
66.7168
65.8249
59.5051
54.2502
54.7573
49.4171
44.9516
41.6572
41.8198
41.0664
39.698
38.8041
36.9585
37.4176
38.8996
39.5167
39.4691
50.5142
50.9891
50.8225
51.6332
52.5564
52.6607
51.6313
43.9111
40.8703
47.4851
50.3498
53.3502
55.4518
54.8094
53.2829
51.7288
50.8627
49.1063
47.3376
45.9514
45.3503
46.1459
45.6508
42.7959
43.6801
41.0001
39.2473
37.534
37.6711
35.9364
35.5932
30.603
26.9514
25.6931
25.8742
29.0522
28.0904
28.3135
28.6689
28.5491
52.3894
44.1859
44.4822
40.9949
41.3594
47.0534
46.4473
42.3244
40.7846
41.6571
41.7982
41.8552
42.4254
42.2164
40.4248
37.3692
33.2742
29.2471
25.5366
22.8763
22.0889
23.3065
26.9562
31.2239
34.1867
31.6281
32.2529
31.1003
27.2279
22.4399
19.8169
18.2665
17.1605
15.679
15.3164
15.187
14.2876
14.4604
15.2353
15.8211
31.1885
21.4393
26.728
38.2572
38.4631
35.8663
33.6722
30.4189
27.3947
26.7878
27.0272
27.9823
29.5101
30.374
28.4465
22.9331
16.1136
9.0823
2.6089
-0.0828525
1.41122
3.78605
5.89445
7.74067
8.4644
8.85478
7.92943
7.17679
6.53542
5.26656
3.91072
3.28508
3.90312
3.99832
2.85236
1.76588
1.68202
2.52001
3.83746
4.47542
0.774051
-0.896824
-0.812918
-0.819949
-0.458146
1.63702
5.38479
8.57347
9.41828
9.75278
11.4101
12.0524
15.1139
18.6289
17.299
10.4316
3.39347
0.362316
0.233235
-0.148386
-0.42508
-0.654848
-0.889685
-0.832566
-0.680769
-0.46125
-0.489595
-0.639484
-0.806181
-0.9164
-0.94745
-0.96651
-0.996286
-1.01458
-1.10457
-1.15651
-1.08408
-0.961398
-0.824761
-0.678051
-1.12433
-1.21968
-1.26129
-1.25874
-1.23953
-1.19744
-1.15882
-1.13391
-1.09822
-0.926664
-0.62621
-0.239907
1.12675
2.59842
1.58366