/*--------------------------------*- C++ -*----------------------------------*\
  =========                 |
  \\      /  F ield         | OpenFOAM: The Open Source CFD Toolbox
   \\    /   O peration     | Website:  https://openfoam.org
    \\  /    A nd           | Version:  8
     \\/     M anipulation  |
\*---------------------------------------------------------------------------*/
FoamFile
{
    version     2.0;
    format      ascii;
    class       volScalarField;
    location    "5.2";
    object      p_rgh;
}
// * * * * * * * * * * * * * * * * * * * * * * * * * * * * * * * * * * * * * //

dimensions      [1 -1 -2 0 0 0 0];

internalField   nonuniform List<scalar> 
9150
(
1963.81
1962.8
1962.16
1961.69
1961.46
1961.47
1961.71
1962.18
1962.79
1963.8
1963.37
1962.85
1962.43
1962.11
1961.93
1961.92
1962.1
1962.43
1962.85
1963.37
1963.1
1962.81
1962.56
1962.34
1962.22
1962.22
1962.34
1962.56
1962.81
1963.1
1962.98
1962.8
1962.63
1962.47
1962.39
1962.39
1962.48
1962.63
1962.8
1962.98
1962.97
1962.79
1962.66
1962.53
1962.47
1962.47
1962.53
1962.66
1962.8
1962.98
1951.99
1951.2
1951.49
1951.88
1952.07
1952.06
1951.88
1951.48
1951.18
1951.96
1956.07
1955.35
1955.19
1955.13
1955.23
1955.24
1955.14
1955.2
1955.37
1956.08
1959.18
1958.42
1958.12
1957.75
1957.7
1957.72
1957.8
1958.15
1958.45
1959.2
1961.92
1960.78
1960.33
1959.7
1959.51
1959.53
1959.68
1960.31
1960.77
1961.92
1964.5
1962.44
1961.68
1960.99
1960.72
1960.72
1960.98
1961.67
1962.43
1964.49
1947.45
1945.76
1943.67
1942.61
1942.12
1942.04
1942.68
1943.81
1945.74
1947.3
1946.58
1946.28
1945.25
1944.85
1944.4
1944.42
1944.87
1945.19
1946.16
1946.45
1946.06
1946.21
1945.19
1945.62
1945.11
1945.08
1945.51
1945.1
1946.15
1946
1942.85
1945.7
1944.7
1946.22
1946.06
1946.06
1946.24
1944.69
1945.67
1942.82
1936.88
1946.39
1946.89
1948.28
1948.66
1948.63
1948.22
1946.84
1946.35
1936.82
1023.5
1022.67
1021.88
1021.08
1020.19
1019.24
1018.34
1017.36
1016.63
1016.97
1023.26
1022.46
1021.77
1021.12
1020.29
1019.22
1017.57
1015.81
1016.22
1015.62
1022.16
1021.59
1021
1019.96
1018.53
1017.78
1016.48
1016.51
1013.61
1014.97
1019.88
1019.36
1018.98
1018.55
1018.01
1017.14
1016.57
1014.72
1006.91
1008.04
1016.74
1016.41
1016.19
1016.03
1015.86
1012.87
1003.38
1002.56
1002.06
1002.35
1013.34
1013.22
1013.58
1014.23
1014.48
1002.81
999.774
999.014
998.196
1003.14
1010.88
1010.94
1012.13
1014.08
1015.73
1010.26
997.074
995.38
993.793
1000.65
1009.85
1010.34
1012.32
1015.16
1017.49
1019.08
1016.96
1001.02
988.345
986.806
1010.15
1010.08
1011.11
1011.84
1007.95
992.801
994.795
984.599
993.771
1001.8
1010.77
1010.24
1010.7
1011.09
998.425
952.051
947.81
946.062
945.385
957.421
1014.47
1014.15
1013.99
1013.98
1000.74
953.181
948.067
947.974
947.452
946.305
1018.65
1018.27
1016.78
1015.32
1023.27
1024.27
976.233
948.663
948.564
948.143
1022.34
1022.45
1015.33
1010.67
1012.1
1026.95
1028.64
1028.02
1027.44
1015.72
1024.89
1025.21
1011.74
1011.73
1012.34
1019.71
1028.93
1028.2
1027.72
1027.58
1026.37
1026.75
1021.13
1012.73
1017.32
1017.8
1023.58
1027.4
1026.48
1026.12
1027.04
1027.83
1028.08
1028.35
1029.3
1027.28
996.407
1006.24
1026.34
1026.2
1028.2
1029.13
1030.22
1031.21
1032
1032.57
993.508
982.348
992.989
1028.25
977.255
1031.37
1033.18
1034.77
1035.82
1036.39
1007.11
980.703
979.054
987.131
875.665
927.129
1031.64
1039.52
1040.94
1041.45
1040.9
984.755
979.226
977.207
876.01
876.079
1003.27
1046.08
1046.98
1047.06
1046.03
1027.65
980.113
978.502
876.654
935.623
1046.12
1052.58
1052.98
1052.36
1051
1049.36
1019.4
980.236
980.149
1045.04
1057.03
1058.09
1058.06
1056.94
1055.53
1053.82
1052.18
1038.64
1053.27
1036.2
1039.94
1061.14
1062.33
1061.61
1059.91
1057.98
1055.75
1053.14
1041.42
1030.93
1032.76
1044.85
1068.63
1067.67
1065.67
1063.21
1060.31
1057.16
1037.38
1039.71
1041.29
1041.63
1057.71
1075.67
1072.59
1069.01
1065.11
1060.9
1048.73
1051
1052.07
1051.73
1072.66
1084.66
1080.29
1075.4
1070.13
1064.65
1061.19
1065.34
1078.08
1093.95
1097.63
1092.82
1087.18
1080.85
1074.06
1067.28
1109.76
1112.44
1112.73
1109.6
1104.69
1098.47
1091.54
1083.72
1075.12
1066.62
1112.13
1109.87
1109.34
1112.47
1101.65
1088.26
1088.76
1074.91
1063.02
1058.56
1004.63
1010.5
1035.89
1049.68
1028.7
1017.92
1069.88
1046.88
946.519
934.033
996.738
1018.21
1062.38
1046.75
1022.32
1023.3
1050.21
1029.51
945.379
915.381
1042.96
1115.2
1103.94
1083.95
1053.05
987.768
911.389
893.774
837.252
884.739
1091.99
1083.63
1059.89
1009.61
832.417
663.101
573.507
577.401
593.999
704.584
1066.62
1055.5
1024.03
803.091
554.232
549.034
553.867
565.098
601.189
622.11
1031.53
1018.54
986.51
684.448
546.898
551.644
556.223
701.642
948.891
987.228
985.66
986.935
983.034
816.499
546.032
550.799
648.886
985.133
990.686
993.603
941.393
954.025
963.362
945.75
649.51
558.569
840.465
977.488
981.184
952.898
904.521
920.59
935.388
949.695
891.249
708.739
901.939
968.392
973.875
944.157
881.836
896.974
913.516
929.874
945.136
957.857
906.392
960.344
969.288
971.115
653.057
892.293
906.099
920.99
936.181
947.984
945.249
849.944
947.95
968.618
453.07
843.381
842.636
912.637
927.754
939.007
928.091
828.68
822.628
933.085
513.702
436.881
408.819
679.453
900.978
933.459
949.051
896.838
772.678
771.271
739.587
314.46
310.2
320.317
543.64
899.527
954.272
965.49
934.681
764.185
667.366
313.542
313.777
313.245
313.577
618.83
955.273
968.052
978.681
992.019
373.915
317.332
317.801
317.274
317.04
480.069
960.517
990.262
988.813
1000.22
447.627
330.543
344.352
322.567
321.316
495.777
977.027
1001.89
1001.28
1011.61
612.314
712.317
901.448
565.45
331.859
679.095
1005.82
1009.8
1013.92
1024.41
999.843
1020.5
1027.87
668.92
339.576
844.126
1013.06
1017.03
1024.76
1036.13
985.883
1002.77
955.636
464.041
423.369
881.812
1022.54
1029.56
1039.31
1051.79
983.998
1007.98
666.804
373.024
424.161
922.601
1047
1055.07
1063.08
1033.39
1030.32
1042.73
533.864
369.4
427.558
976.753
1072.64
1082.23
1091.14
727.525
1068.29
1051.25
435.871
372.078
649.233
1078.28
1095.26
1106.48
1032.24
595.789
1098.53
703.025
330.454
361.185
959.479
1111.34
1115.1
1126.08
788.562
569.141
873.729
321.97
326.665
579.088
1102.79
1128.36
1132.19
1136.83
611.643
569.85
454.231
296.231
333.728
973.118
1145.81
1145.58
1143.41
972.025
514.146
526.761
294.078
294.171
659.803
1158.23
1161.21
1155.43
1138.32
548.676
475.065
621.793
280.126
286.571
905.281
1183.27
1179.66
1163.8
825.762
453.487
455.613
793.665
274.883
579.854
1172.03
1198.54
1204.92
1174.85
447.747
444.725
547.344
896.59
1100.62
1202.52
1208.37
1216.9
1144.79
1068.2
391.196
603.097
1015.06
894.535
1210.85
1217.62
1224.57
1232.22
1070.1
1035.38
380.977
739.651
1032.7
1022.37
1195.86
1206.48
1217.74
1221.45
986.545
996.363
244.688
615.446
1037.38
999.209
890.948
852.008
665.375
424.977
948.809
951.912
130.844
435.438
893.722
477.609
115.793
78.7212
48.7475
72.3714
1002.37
972.091
64.8608
409.631
287.434
54.679
40.782
38.3786
40.7138
47.0704
1034.93
1022.73
54.9966
330.22
12.0952
2.85676
14.5862
37.0969
44.0737
52.0754
1060.95
1070.62
51.478
85.1012
12.5502
3.59665
1.42153
2.11406
1.16466
69.8425
1103.55
1103.21
70.1508
1.16525
5.58249
3.1871
0.219692
0.254764
0.307913
89.5103
1137.57
1137.16
89.2271
0.455256
0.329517
0.32446
0.207397
0.223362
0.236828
106.502
1156.87
1173.19
109.55
0.313017
0.210616
0.153668
0.256442
0.219259
0.221334
123.159
1168.87
1199.86
126.59
0.214076
0.18631
0.169604
0.186851
0.134032
0.114143
141.264
1220.44
1182.99
131.539
0.261626
0.218414
0.688908
0.11785
0.110023
0.0762575
145.286
1234.65
1206.54
140.051
0.123726
0.0903934
0.126757
0.123014
0.129072
0.141385
140.038
1223.77
1258.33
146.163
-0.072642
-0.0520099
-0.0642623
0.116452
0.12611
0.150641
140.536
1244.68
1280.82
146.67
-0.0988343
-0.07039
-0.0558333
0.0871721
0.085216
0.0793007
147.098
1292.92
1278.07
142.699
-0.0329696
-0.0359037
-0.0219014
0.0636784
0.0668211
0.0687849
151.155
1309.61
1316.25
151.342
-0.00638832
-0.00528771
0.00885871
0.0406321
0.0422606
0.0435432
174.076
1347.67
1349.42
173.988
0.0330014
0.0296351
0.0111296
0.0194912
0.0221072
0.0272833
204.34
1381.85
1390.83
208.888
0.0532425
0.292261
0.0255665
-0.00096367
-0.00114281
-0.00595984
248.817
1429.34
1417.93
242.142
0.0982163
0.657421
0.386886
-0.0156786
0.216083
-0.0100563
289.776
1458.84
1462.47
292.191
0.134218
0.738531
1.03968
-0.024422
0.479787
-0.019977
334.829
1495.04
1492.81
335.318
0.159274
0.772466
1.05728
-0.0191883
0.491175
-0.0295727
379.669
1531.9
1516.28
372.685
0.192692
0.80266
1.07786
0.260848
0.512112
-0.00173126
418.179
1559.58
1546.01
412.012
0.204479
0.916096
1.10419
0.855053
0.536854
0.0663452
456.203
1579.3
1581.08
457.355
0.194809
1.02528
1.12182
1.01004
0.661444
0.107573
500.597
1603.91
1611.82
506.219
0.171204
1.04883
1.12811
1.0242
0.701352
0.104449
557.633
1636.04
1634.6
557.001
0.146712
0.819868
1.13016
1.03067
0.499301
0.0992112
626.831
1664.84
1659.76
622.309
0.113766
0.628651
1.11696
1.04144
0.295917
0.111704
704.753
1684.4
1691.79
712.973
0.0874509
0.733505
1.11351
1.04628
0.225143
0.0949109
815.007
1717.02
1708.92
808.553
0.10726
0.596036
1.13479
0.906943
0.18077
0.0904189
930.25
1741.08
1731.19
918.27
0.0778993
0.118514
0.449417
0.920526
0.277663
0.108827
1051.05
1757.73
1757.69
1051.49
0.0340516
0.0355117
0.0321074
0.916759
0.311377
0.174877
1192.6
1779.04
1776.66
1190.35
0.0271859
0.0270789
0.105472
0.74215
0.305191
0.28337
1344.48
1797.54
1797.02
1343.74
0.0164837
0.011408
0.112482
0.620936
0.310389
43.7415
1485.71
1815.87
1817.27
1486.08
43.4622
-0.000145275
0.049222
0.574701
0.311673
193.365
1621.04
1835.18
1836.33
1622.08
189.108
-0.00263099
0.0128791
0.41491
0.307467
406.275
1749.49
1855.15
1854.21
1748.2
382.384
0.00238484
0.00933399
0.307676
0.304413
797.113
1852.81
1873.76
1873.39
1832.71
690.143
0.0028617
0.00286485
0.306366
0.316822
1246.47
1891.53
1892.75
1892.74
1891.73
1215.8
0.00970869
0.0035573
0.14465
153.344
1689.14
1910.79
1911.64
1911.25
1909.94
1642.28
152.786
-0.00247985
0.0449926
1041.33
1923.22
1926.3
1926.58
1927.05
1927.34
1927.15
1109.72
-0.0115671
610.956
1877.6
1939.62
1937.63
1936.7
1936.61
1937.23
1938.98
1865.82
602.236
1017.57
1018.2
1018.54
1018.78
1019.02
1019.08
1018.98
1018.81
1018.54
1018.15
1017.73
1017.32
1016.79
1016.72
1016.28
1015.41
1014.81
1014.14
1013.55
1012.98
1012.33
1011.67
1009.36
1008.75
1008.02
1006.93
1006.58
1006.55
1006.56
1006.1
1005.6
1006.01
1008.85
1008.92
1010.22
1012.09
1013.54
1014.36
1014.64
1014.83
1017.42
1018.74
1018.77
1018.5
1018.74
1018.9
1018.84
1018.7
1018.45
1018.12
1017.65
1017.38
1017.09
1016.69
1016.01
1015.43
1014.67
1013.79
1013.02
1012.28
1011.19
1010.41
1007.94
1007.05
1006.25
1005.7
1005.32
1005.13
1005.59
1005.36
1001.82
1004.37
1006.04
1006.2
1006.74
1007.96
1010.06
1010.9
1010.87
1011.36
1013.59
1018.96
1017.3
1018.16
1018
1018.77
1018.8
1018.88
1018.54
1017.88
1017.69
1017.2
1017.11
1016.83
1016.15
1015.62
1015.39
1014.61
1013.87
1012.37
1008.34
1007.61
1003.29
1002.23
1002.38
1000.8
999.939
998.442
996.351
996.635
1000.54
1008.14
1006.95
1004.99
1006.89
1008.75
1010.03
1010.77
1011.18
1011.4
1009.59
1009.97
1013.48
1016.45
1018.62
1018.71
1018.6
1018.02
1017.67
1017.47
1017.38
1017.25
1016.58
1015.85
1015.15
1015.13
1015.09
1013.71
1012.12
1012.64
1010.27
1004.05
999.458
997.209
994.749
992.955
991.841
997.509
992.017
993.189
995.17
1009.08
1009.96
1011.24
1010.98
1008.89
1010.47
1015.48
1014.43
1012.21
1004.54
1015.73
1016.61
1016.66
1016.69
1016.99
1017.23
1017.31
1017.44
1017.67
1017.63
1017.02
1016.07
1014.41
1013.92
1013.74
1011.92
1011.03
1009.67
1008.66
1006.59
1004.28
1002.39
999.81
998.879
999.125
999.55
999.066
1001.94
1010
997.469
1000.71
1007.18
1010.09
1011.64
1013.31
1014.96
1016.18
1016.87
1017.17
1014.29
1013.65
1013.46
1013.4
1013.81
1014.45
1015.04
1014.91
1014.92
1016.21
1016.31
1016.01
1015.39
1014.25
1013.38
1012.7
1012.35
1010.71
1009.24
1007.75
1005.25
1000.84
999.897
1002.95
1004.58
1004.87
1005.53
1006.27
1007.63
1008.45
1008.95
1006.18
1007.75
1010.9
1014
1013.98
1014.82
1015.34
1015.76
1016.17
1009.35
1009.44
1009.77
1009.55
1009.94
1011.47
1012.97
1011.02
1011.23
1011.75
1015.15
1015.16
1013.21
1011.99
1011.16
1010.4
1009.93
1007.57
1005.07
1002.7
1000.78
999.167
999.295
1001.36
1002.85
1004.21
1005.73
1007.12
1008.55
1010.2
1011.86
1014.17
1016.29
1015.53
1016.36
1015.53
1014.97
1014.41
1012.73
1009.84
1000.84
1006.55
1007.14
1002.87
1001.58
1007.17
1009.94
1009.96
1009.15
1009.51
1009.28
1013.65
1012.9
1009.96
1008.99
1008.3
1005.3
1001.75
997.822
993.279
991.106
992.542
995.444
999.667
1001.42
1002.31
1004.5
1006.42
1007.58
1008.46
1009.64
1012.19
1017.11
1017.43
1015.58
1015.47
1014.9
1009.9
998.481
995.905
1000
1000.26
1003.64
1000.47
1000.45
1001.92
1004.01
1007.5
1013.15
1010.61
1009.44
1008.75
1011.36
1011.29
1009.01
1005.99
1002.49
998.737
993.54
985.315
979.189
961.434
959.521
976.814
973.555
968.758
984.777
997.533
1002.78
1006.32
1006.47
996.608
999.249
1009.78
1012.18
1013.62
1014.68
1004.2
993.669
994.156
955.36
974.01
981.111
1006.55
1011.24
1008.26
1006.52
1007.89
1015.1
1016.25
1011.36
1010.04
1012.1
1012.16
1009.49
1004.3
996.268
996.858
987.783
947.814
948.819
951.188
953.72
955.221
956.724
958.348
959.794
960.377
962.138
970.258
970.977
965.532
965.618
1000.79
1012.05
1012.97
1015.36
1011.28
992.346
993.11
945.417
944.559
943.249
1003.81
1016.1
1017.78
1019.32
1010.57
1009.97
1018.23
1017.67
1013.76
1016.66
1014.69
1010.53
987.415
978.159
976.775
997.528
996.757
956.373
953.178
953.911
955.286
956.885
958.86
976.925
963.559
965.175
967.768
971.16
971.94
983.086
1013.71
1015.54
1015.71
1017.05
1018.19
1004.34
993.106
947.742
948.736
979.39
1018.77
1020.57
1021.38
1021.9
1014.16
1009.46
1020.61
1019.59
1022.79
1020.58
1018.19
1003.96
979.451
977.624
976.363
987.468
1010.92
1011.31
1006.08
1001.9
1000.13
1001.04
1005.18
1007.57
1004.67
1004.28
1006.25
1008.81
1016.68
1024.18
1023.13
1020.88
1018.94
1018.87
1019.32
1019.65
993.735
1024.14
1023.94
1022.87
1017.65
1015.32
1021.41
1022.73
1006.5
1005.13
1021.5
1011.72
1021.45
1021.05
1019.87
1010.59
981.228
979.477
978.294
976.888
1003.15
1011.55
1011.56
1012.31
1000.1
999.311
1001.38
1009.66
1020.86
1022.5
1021.28
1023.45
1029.41
1029.63
1025.61
1020.81
1018.95
1018.99
1018.93
1018.57
995.115
1027.14
1023.2
1006.46
998.418
1008.22
1022.67
1022.59
1013.22
980.16
968.571
950.941
984.13
1018.77
1020
1019.69
1008.15
979.145
977.406
976.247
975.139
992.46
1009.96
1009.22
1010.39
1012.5
1013.75
1012.39
1015.95
1019.09
1021.62
1021.76
1020.43
1017.12
1018.79
1000.06
1003.61
1016.51
1018
1017.45
994.063
1025.9
1000.1
996.423
996.047
1021.35
1023.03
1022.42
1021.57
1015.77
941.081
939.989
938.48
968.349
1020.68
1019.57
1018.53
1018.17
1016.59
1014.66
1009.11
981.81
976.372
973.354
1001.59
1007
992.113
986.83
994.565
1006.02
1017.6
999.648
985.008
942.644
987.12
927.114
929.047
970.64
996.345
1018.27
1007.46
1026.28
997.676
995.723
1003.91
1023.89
1023.44
1021.46
1022.58
1021.49
983.7
935.005
935.952
935.643
956.232
1006.25
1017.32
1015.63
1013
1009.76
1009.53
1008.69
996.134
973.331
973.089
974.543
984.199
986.974
985.986
986.818
994.819
999.926
933.593
927.13
945.576
919.133
911.644
910.793
915.565
963.531
1011.55
1028.62
1013.54
994.93
1000.25
1023.3
1024.19
1020.38
1020.45
1007.78
1007.43
965.839
934.103
934.164
933.2
965.901
1016.18
1016.44
1001.32
994.333
993.451
1006.52
1003.6
997.52
979.132
979.599
1012.27
1017.88
1017.15
994.585
1002.49
1020.81
936.686
927.592
997.178
1027.75
909.427
907.329
906.466
905.235
960.268
1032.54
1031.75
993.264
993.267
1008.78
1024.55
1023.96
1023.07
982.723
930.538
972.157
966.763
933.536
953.643
993.456
1020.42
1018.51
1015.21
1010.98
1006.08
1005.52
980.018
924.722
937.469
974.364
1012.81
1018.41
1022.33
1025.48
1025.42
1024.76
966.282
926.935
1022.81
1028.93
1001.78
932.638
903.603
903.248
902.828
986.694
1029.85
1027.64
994.369
1005.35
1027.13
1029.44
1029.33
972.978
919.285
939.631
1025.14
1024.59
1027.31
1028.37
1025.87
1023.63
1021.77
1020.31
982.831
932.065
905.079
905.521
904.467
938.516
1016.19
1020.77
1022.87
1016.26
974.684
960.815
935.418
911.592
1015.61
1030.67
1030.31
1030.12
905.874
910.425
902.05
976.526
978.794
1026.68
1034.66
1014.55
1027.2
1035.1
1035.48
1015.28
915.994
913.559
936.479
979.198
989.999
993.371
975.021
959.578
899.248
896.447
897.232
934.534
916.623
918.938
965.041
1025.28
1024.88
1024.55
975.085
906.626
866.489
868.548
872.497
921.925
1019.31
1031.14
1031.88
1032.83
1005
1021.51
902.344
978.655
977.061
1000.08
1039.16
1039.16
1034.49
1039.04
1040.88
1042.95
1038.72
933.816
915.422
902.804
900.283
899.011
897.448
896.732
896.297
896.169
935.394
1029.71
1032.24
1031.52
1031.55
1031.77
1031.22
992.802
861.224
862.342
863.502
863.848
874.687
1030.71
1033.16
1033.68
1034.19
1033.97
1034.58
1032.97
978.65
982.063
980.387
1025.2
1041.99
1041.06
1040.32
1039.25
1038.94
1040.57
1040.75
1035.76
1023.99
1008.61
1001.19
989.371
909.169
913.511
992.951
1032.44
1032.6
1033.6
1034.66
1035.62
1036.73
1037.44
1036.7
884.879
860.435
861.634
861.924
861.291
932.596
1033.1
1036.82
1028.35
1024.68
1035.14
1033.84
1032.57
1022.9
1038.99
1035.7
1042.29
1043.34
1041.78
1040.61
1039.98
1039.58
1039.35
1036.06
1031.25
1033.67
1034.06
1033.07
1032.05
1023.35
1008.27
1016.37
1032.48
1033.39
1034.65
1036.37
1038.25
1040
1039.62
1018.19
910.47
862.174
860.99
860.912
947.274
1045.12
1042.22
1013.41
942.252
940.499
1022.19
1037.08
1037.75
1026.92
1053.76
1050.16
1046.77
1043.8
1041.29
1039.34
1037.96
1037.14
1036.8
1036.51
1029.46
1028.65
1031.84
1033.37
1032.91
1031.74
1028.17
1031.21
1033.85
1034.96
1036.73
1039
1041.39
1042.5
1036.67
1042.5
1039.26
996.7
980.668
992.493
1046.89
1045.91
1019.36
912.935
910.639
909.2
913.483
969.104
992.754
1007.2
1056.35
1051.43
1046.66
1042.27
1038.52
1035.78
1034.2
1033.2
1032.95
1033.05
1032.65
1027.27
1027.09
1026.88
1030.91
1032.15
1032.24
1032.09
1031.86
1018.55
1025.28
1038.24
1041.52
1044.55
1041.55
1046.57
1047.15
1047.86
1047.67
1047.77
1046.81
1041.19
941.116
905.697
902.635
900.053
900.478
902.147
903.942
1005.24
1058.56
1052.17
1045.82
1039.66
1034.01
1029.09
1025.59
1025.52
1026.37
1027.63
1026.31
1026.66
1029.92
1030.23
1030.36
1030.64
1031.05
1024.68
942.308
922.135
922.123
923.186
1001.87
1044.36
1045.61
1046.58
1048.21
1049.09
1046.31
1045.51
1046.35
1032.05
947.454
903.523
898.891
975.99
942.014
901.817
902.279
1007.73
1060.15
1052.24
1044.4
1037
1009.47
965.102
992.496
1016.13
1019.03
1021.26
1023.49
1025.15
1026.8
1028.61
1029.31
1029.34
926.365
891.983
936.339
937.971
917.575
920.845
922.419
944.051
1039.84
1049.21
1051.06
1052.29
1041.51
1034.69
1048.59
1016.02
939.409
911
952.809
1021.26
977.09
903.498
910.23
1026.72
1058.62
1050.89
1043.31
1035.88
941.675
905.269
900.67
944.445
1014.71
1016.6
1018.12
1019.78
1022.44
1025.53
1027.77
932.809
867.729
878.217
1003.51
1031.93
1031.83
1015.66
923.346
966.026
1045.63
1050.79
1052.85
1053.63
1042.01
1035.15
1044.7
1040.48
985.856
981.058
1026.71
1020.36
906.177
901.668
1009.55
1029.09
1055.4
1044.5
958.003
911.371
905.326
899.634
894.699
958.06
1010.64
1011.1
1011.82
1014.13
1017.99
1023.12
1010.08
863.125
857.361
854.721
971.64
1029.43
1032.56
1035.09
1028.76
1034.28
1047.5
1050.93
1052.35
1052.34
1039.98
1033.32
1040.3
1046.08
1043.58
1044.83
1045.12
967.284
890.157
916.421
1027.19
1027.28
924.852
965.143
910.802
904.98
898.82
892.196
885.991
879.74
874.959
973.273
996.95
1000.55
1008.86
1018.73
909.735
849.415
847.019
845.13
844.306
984.47
1027.49
1031.29
1034.39
1026.79
1046.24
1048.83
1048.96
1048.74
1035.84
1028.76
1036.5
1040.25
1038.09
1038.2
1006.4
878.152
879.365
945.692
1022.17
1023.89
910.327
905.379
977.256
992.788
972.964
882.24
875.128
867.258
960.707
983.109
978.422
980.25
989.973
1002.6
1014.66
884.363
837.577
836.258
834.733
951.811
1022.62
1027.51
1029.5
1028.99
903.653
1007.57
1041.76
1042.91
1039.57
1031.17
1037.7
1037.19
1035.81
1035.35
946.214
873.218
871.963
964.343
1021.67
1023.46
982.709
984.854
982.75
979.066
973.716
967.504
957.301
945.041
906.749
814.8
833.798
919.893
958.442
979.78
994.145
1002.17
924.141
818.778
821.322
930.197
1020.14
1025.37
1026.15
948.748
826.251
832.065
1008.41
1037.5
1038.04
1038.61
1039.35
1038.35
1032.63
1036.72
896.613
868.453
867.139
929.045
942.086
1021.65
753.87
794.994
908.133
949.166
925.768
939.043
899.005
681.119
667.428
656.315
643.735
702.324
876.82
875.91
898.861
952.651
964.239
875.725
792.77
815.106
962.271
1020.44
1023.71
937.982
802.794
803.431
834.753
1022.52
1034.95
1037.44
1039.75
1036.36
1022.56
997.5
861.782
862.302
860.683
860.364
858.35
908.657
614.575
615.852
639.025
653.401
649.436
643.095
640.593
645.598
743.953
710.5
673.633
658.022
608.035
395.049
294.523
506.334
882.369
901.841
781.748
793.791
812.514
938.783
1016.01
994.179
790.6
790.307
789.951
883.296
1031.99
1036.93
1031.99
1017.28
1021.72
979.745
852.625
852.088
849.76
850.466
850.26
850.777
821.745
643.406
633.281
624.139
687.253
855.155
804.859
762.032
710.83
580.434
282.524
248.881
248.103
250.381
255.725
261.869
611.418
835.546
787.552
776.163
796.537
811.071
959.513
989.736
894.094
779.528
781.168
781.428
954.461
1036.15
1034.76
966.409
949.331
934.466
905.195
937.121
940.853
982.076
878.434
847.517
915.373
781.3
629.173
862.665
922.727
812.463
680.61
327.619
249.956
247.137
245.655
245.527
246.155
248.72
254.514
259.636
434.646
776.504
854.624
771.465
788.421
800.352
859.094
989.23
1005.09
827.488
774.264
775.16
775.511
994.517
1033.52
967.121
907.781
902.579
898.338
945.077
1022.93
1026.61
1027.9
992.979
830.64
848.082
944.524
956.302
895.638
347.178
246.459
246.489
246.233
245.623
245.581
246.46
248.774
252.798
257.477
260.873
328.654
781.936
872.658
874.421
792.523
802.786
871.836
989.424
1002.09
986.768
768.684
768.009
768.875
823.187
1025.16
1017.77
949.55
902.414
902.442
914.597
1025.89
1037.8
1044.58
1049.56
879.564
965.634
962.165
944.954
737.128
247.034
246.397
246.604
245.976
244.685
244.182
244.913
248.348
278.703
328.391
352.625
361.716
583.1
890.973
902.859
905.972
897.841
958.86
988.905
998.709
1007.24
848.672
760.581
762.752
763.964
874.339
1016.86
1011.09
938.046
930.558
1007.8
1047.67
1057.37
1062.24
1042.55
970.429
966.755
960.183
950.185
798.683
298.44
244.373
243.505
241.927
239.651
309.029
491.718
544.61
652.803
786.685
827.68
702.464
622.785
630.514
647.39
860.415
970.735
979.917
988.772
997.141
1005.23
986.443
757.602
760.126
764.133
767.76
831.932
995.723
1045.89
1053.82
1063.38
1071.55
1079.04
1043.62
1029.34
970.317
969.206
965.78
961.109
954.845
688.584
241.417
239.754
237.876
235.261
264.366
575.281
859.185
864.103
864.675
870.664
880.066
888.103
726.834
639.209
655.447
924.779
972.188
983.616
993.806
1003.84
1014.85
818.636
761.883
768.846
775.348
780.386
817.599
1033.25
1076.69
1084.08
1091.42
1097.44
1049.52
1041.88
975.861
977.197
977.205
974.886
971.785
935.006
441.151
236.678
235.281
232.663
228.609
229.31
458.921
706.115
805.142
854.015
856.455
771.761
646.266
637.08
505.178
736.744
948.914
971.284
987.321
1001.19
1015.23
993.502
777.12
773.912
781.432
787.604
792.969
985.706
1092.25
1099.63
1105.3
1110.13
1077.16
1075.97
849.003
954.274
989.82
990.384
989.945
984.093
852.935
270.212
234.681
232.895
229.894
226.832
223.597
220.646
288.668
742.678
666.261
280.697
179.373
188.971
194.915
292.676
697.869
955.901
976.663
994.048
1013.54
1032.11
992.158
917.185
821.992
794.333
837.301
1053.1
1103.3
1110.33
1116.11
1120.83
1120.42
1089.48
650.311
634.519
906.342
1006.08
918.785
964.482
937.623
467.198
261.393
232.81
246.343
283.761
354.359
355.758
373.437
260.563
186.879
174.756
173.747
171.883
170.593
172.48
277.587
612.466
907.468
986.542
1014.17
1035.89
1051.68
1060.35
1036.16
1002.81
1057.44
1102.89
1112.9
1119.63
1124.94
1129.23
1086.29
1054.72
773.647
531.46
581.11
985.252
903.066
776.325
883.934
487.578
338.25
462.871
717.242
855.24
880.308
867.563
665.168
250.53
171.043
170.529
170.237
169.657
170.271
172.46
175.693
216.294
509.669
887.033
1023.46
1045.96
1033.62
993.772
1063.86
1102.59
1110.57
1117.29
1122.3
1126.9
1130.88
1062.64
1035.72
1056.55
1022.56
530.924
502.59
833.6
933.958
753.494
738.11
430.005
483.702
888.13
901.573
892.203
882.904
489.106
169.512
169.323
169.76
169.694
169.388
170.1
171.983
174.322
177.089
185.678
316.037
733.937
828.339
870.658
878.698
897.12
1082.75
1112.63
1118.84
1123.35
1126.92
1128.28
1086.88
1007.47
1081.44
1124.46
1034.41
588.675
495.64
631.158
952.461
795.363
672.538
430.788
541.77
913.107
903.514
893.29
573.34
172.601
171.896
171.318
171.257
171.11
171.354
172.132
173.467
175.226
177.374
369.36
806.818
952.79
977.873
887.535
882.725
1015.17
1108.52
1114.91
1120.77
1127.17
1132.31
1105.68
1046.99
1052.89
1124.65
1126.55
993.335
545.601
485.679
495.495
934.877
890.443
665.799
435.12
616.785
921.7
913.706
783.199
239.354
174.432
174.021
174.085
173.991
173.768
173.739
173.905
173.807
171.912
259.394
840.095
1049.5
1070.83
1081.03
1071.22
1071.94
1097.37
1107.08
1115.55
1122.52
1081.6
1057.66
1078.29
1052.3
1049.65
1032.64
1071.62
782.731
473.331
476.189
479.744
891.144
959.817
796.803
619.781
560.353
877.714
930.446
548.481
176.464
176.161
175.722
175.69
175.884
176.024
175.504
174.977
174.292
172.962
193.377
618.609
1032.31
1065.57
1072.84
1077.17
1082.87
1090.91
1096.03
1111.69
1118.86
1067.33
932.877
823.188
786.023
791.968
787.748
789.401
599.376
468.759
470.574
475.942
889.896
979.903
877.124
695.123
560.166
653.575
929.855
788.879
212.24
177.808
177.274
176.992
176.956
177.154
177.194
176.74
176.037
175.308
174.769
199.934
650.568
1068.31
1076.23
1080.55
1083.35
1069.5
936.107
824.262
791.563
770.89
767.506
772.416
777.013
780.189
781.371
781.784
513.839
474.359
475.609
507.666
954.726
997.313
902.939
840.102
557.679
479.891
821.67
809.11
422.193
179.249
178.742
178.4
178.222
178.508
178.792
178.679
178.137
177.49
177.326
178.16
326.3
1015.08
1086.44
1086.98
1085.45
1016.44
775.235
777.825
779.926
851.976
1055.85
812.665
764.494
777.085
792.191
771.329
489.723
491.694
491.668
722.057
1016.4
1022.09
910.414
858.053
582.063
466.04
585.323
575.32
187.421
179.645
276.116
499.771
534.574
382.093
238.591
180.41
179.247
178.695
178.544
179.107
223.478
954.326
1097.8
1091.55
1083.87
1060.93
860.445
752.95
773.072
1026.29
1037.93
1051.44
1061.27
1068.56
1057.78
1002.13
515.167
512.388
514.477
807.373
1036.06
1010.88
828.341
970.765
839.911
462.322
452.923
566.984
568.729
537.059
490.148
807.39
867.33
876.611
882.876
806.605
588.991
388.528
297.064
273.499
322.064
845.299
1103.06
1092.76
1080.23
1062.57
1017.25
948.832
959.334
940.385
938.777
976.629
1031.24
1045.29
1017.3
1000.5
680.822
668.073
667.533
1047.94
1047.14
775.93
503.345
990.342
1065.37
757.785
448.661
444.927
449.048
582.701
583.961
534.723
552.714
876.245
997.43
1004.58
1010.52
966.619
908.726
882.157
839.763
807.529
952.301
1021.96
1061.43
1057.56
1040.07
1026.49
1023.83
1022.09
947.783
890.212
949.196
956.259
797.913
803.018
729.89
763.496
758.504
1058.46
1025.05
572.218
410.896
928.292
1061.71
1064.77
914.197
441.875
441.098
440.33
441.302
440.074
438.556
439.503
554.073
881.709
1014.04
1017.73
1023.88
1024.81
1023.14
859.823
849.289
843.467
865.238
931.954
1051.59
1054.7
1053.3
1056.69
1060.83
1010.34
769.511
785.193
794.026
801.075
612.714
726.256
826.932
1052.24
890.571
362.494
371.08
606.711
1066.02
1065.55
1063.66
1037.28
507.909
441.021
440.706
440.365
438.502
436.587
435.291
434.148
631.843
995.275
1034.11
1033.55
1032.38
978.502
861.144
858.747
855.789
938.875
1082.48
1086.74
1083.8
1083.57
1084.55
937.284
777.906
900.945
952.002
855.913
528.26
386.772
791.339
1036.21
804.098
270.976
449.428
916.461
942.395
804.505
871.625
1127.87
1121.23
629.135
439.296
439.051
438.109
436.795
434.818
433.777
434.16
450.43
734.802
1002.16
1043.37
1044.17
1023.83
1047.92
1099.2
1107.05
1114.65
1109.53
1105.91
1076.71
786.695
766.8
783.03
1102.39
1116.35
1008.57
461.295
231.289
422.111
922.826
741.959
243.913
263.428
705.158
872.174
919.481
769.502
849.726
1169.72
1160.92
816.741
518.151
455.614
589.422
665.682
747.361
681.55
495.136
501.905
531.576
712.798
990.833
1036.69
1040.35
1087.83
1059.02
1102.37
1059.99
908.583
764.001
764.576
769.854
1100.99
1122.52
1122.62
1051.55
446.474
227.967
229.721
287.995
329.155
233.077
230.104
231.976
738.16
1065.04
830.156
898.573
1165.55
1168.35
1149.67
1069.07
1050.62
1127.22
1153.09
1167.78
1149.8
1004.94
719.123
567.985
571.874
605.584
656.02
670.191
717.029
899.659
797.229
773.445
770.779
769.275
768.482
882.16
1127.35
1130.07
1130.69
1130.64
264.157
232.773
232.249
233.417
235.547
236.514
235.477
469.256
1039.41
1068.2
1161.5
1172.95
1169.69
1176.17
1175.03
1173.44
1172.5
1170.69
1168.91
1167.53
1166.9
1167.49
1142.6
1006.98
772.359
918.789
929.479
870.652
868.656
1026.22
1047.72
1005.78
934.474
928.121
987.022
1135.49
1138.24
1138.47
1138.82
1138.7
947.622
510.221
418.624
508.074
615.514
862.787
1011.67
1180.07
1143.06
1179.47
1182.73
1182.79
1183.33
1183.15
1181.36
1178.3
1174.16
1170.05
1166.29
1163.62
1162.83
1164.03
1167.47
1170.52
1168.33
1152.99
1143.75
1132.02
1108.34
1061.69
1050.67
1047.69
1044.4
1025.13
1047.12
1089.82
1107.15
1104.52
1102.45
1099.7
745.207
684.366
1031.56
1094.72
1105.17
1119.72
1188.82
1189.7
1187.14
1186.9
1187.14
1188.09
1189.62
1190.48
1188.55
1136.8
1043.93
890.689
719.729
634.313
636.827
704.026
774.705
831.666
840.357
846.829
808.297
794.958
756.729
714.89
661.973
610.047
586.815
557.433
514.55
460.495
447.615
464.258
499.861
513.841
123.168
44.532
0.691798
15.0946
161.446
328.703
596.263
814.487
964.521
1005.06
1089.59
1081.5
1074.96
1098.33
1029.42
770.627
411.943
151.064
37.8253
15.7768
14.3514
20.6873
36.0759
60.4117
71.4457
81.5037
71.484
65.3601
49.8976
31.261
15.4061
11.9928
10.3803
9.03714
6.73437
5.35344
6.64119
7.46034
9.86644
16.6038
2.69037
0.309506
0.1706
0.209013
0.295164
0.377159
0.441083
0.514976
5.61911
37.729
85.2068
140.115
225.775
298.066
257.561
104.063
9.52673
5.11808
4.71727
4.58012
4.75212
4.65219
4.03158
2.6008
2.72257
2.601
2.02445
1.22239
0.445612
0.0705518
0.0847212
0.0984378
0.103227
0.103624
0.129861
0.125875
0.153625
0.269498
0.619185
0.531126
0.256516
0.0206846
0.0150492
0.0213152
0.4962
0.818138
0.925608
0.555979
0.333371
0.329543
0.342405