/*--------------------------------*- C++ -*----------------------------------*\
  =========                 |
  \\      /  F ield         | OpenFOAM: The Open Source CFD Toolbox
   \\    /   O peration     | Website:  https://openfoam.org
    \\  /    A nd           | Version:  8
     \\/     M anipulation  |
\*---------------------------------------------------------------------------*/
FoamFile
{
    version     2.0;
    format      ascii;
    class       volScalarField;
    location    "2.3";
    object      p;
}
// * * * * * * * * * * * * * * * * * * * * * * * * * * * * * * * * * * * * * //

dimensions      [1 -1 -2 0 0 0 0];

internalField   nonuniform List<scalar> 
9150
(
-204.601
-205.579
-206.203
-206.683
-206.922
-206.923
-206.68
-206.198
-205.579
-204.604
-224.648
-225.155
-225.571
-225.901
-226.069
-226.066
-225.895
-225.571
-225.156
-224.651
-244.536
-244.818
-245.066
-245.284
-245.396
-245.403
-245.288
-245.068
-244.819
-244.538
-264.274
-264.449
-264.618
-264.775
-264.861
-264.853
-264.772
-264.618
-264.451
-264.277
-283.892
-284.074
-284.211
-284.336
-284.412
-284.398
-284.342
-284.216
-284.077
-283.895
-118.474
-119.411
-119.255
-118.743
-118.597
-118.598
-118.757
-119.267
-119.442
-118.513
-134.035
-134.754
-135.007
-135.076
-135.005
-135.021
-135.119
-135.06
-134.805
-134.085
-150.599
-151.348
-151.688
-152.028
-152.089
-152.097
-152.027
-151.708
-151.35
-150.602
-167.492
-168.597
-169.059
-169.672
-169.85
-169.849
-169.673
-169.047
-168.587
-167.478
-184.429
-186.481
-187.255
-187.953
-188.213
-188.227
-187.968
-187.256
-186.487
-184.437
-24.4806
-26.1924
-28.2493
-29.306
-29.7391
-29.6559
-29.0667
-28.0225
-26.4169
-24.9837
-45.0897
-45.3052
-46.265
-46.7097
-47.1719
-47.2251
-46.8751
-46.5703
-45.6436
-45.4514
-65.0512
-65.0284
-65.9965
-65.7321
-66.1089
-66.1866
-65.7209
-66.1237
-65.1747
-65.238
-87.9106
-85.2677
-86.2
-84.7614
-84.9213
-85.0019
-84.7605
-86.3313
-85.334
-88.0245
-114.24
-104.324
-103.928
-102.454
-102.106
-102.148
-102.467
-104.027
-104.382
-114.328
369.141
366.893
363.735
354.55
348.796
349.726
351.442
352.528
354.512
358.446
351.637
349.112
343.46
336.336
326.798
325.446
329.316
333.035
332.609
336.705
334.908
327.213
316.899
319.645
318.164
315.632
315.335
314.183
313.178
314.77
299.637
297.605
295.593
299.346
301.576
300.214
298.855
299.781
297.894
298.099
282.608
280.638
278.773
282.574
287.38
289.557
290.389
290.766
291.925
293.693
280.966
280.007
279.322
279.109
281.652
286.301
288.224
288.533
289.597
291.01
276.302
279.667
277.152
278.033
279.495
283.879
285.08
285.366
285.959
286.73
275.338
275.141
275.192
276.301
278.879
281.155
281.444
281.693
282.102
282.503
274.741
274.736
274.772
275.037
275.435
277.033
277.59
278.204
278.565
278.772
272.444
273.443
273.833
274.36
274.73
275.034
275.455
275.821
275.919
275.475
271.699
272.941
272.772
272.748
273.172
273.89
274.427
275.016
270.698
265.57
268.699
268.199
268.829
274.603
270.977
265.696
261.256
257.864
254.133
252.037
257.283
259.808
262.232
263.466
262.647
260.699
260.673
258.351
252.748
249.803
243.96
244.731
245.648
246.803
248.545
250.616
250.986
249.525
244.539
249.104
219.505
220.397
219.522
221.752
224.957
229.378
234.338
236.917
231.716
235.454
193.727
196.3
192.442
197.907
206.156
213.123
215.61
221.568
227.186
228.384
174.888
167.763
163.373
170.119
179.178
189.114
200.4
211.319
215.924
219.92
156.639
135.594
131.642
137.447
151.926
162.932
180.886
185.71
204.971
198.841
145.548
128.267
115.314
123.209
136.722
139.726
156.035
163.839
168.036
174.62
151.484
137.699
121.349
114.217
115.488
117.938
118.624
119.902
122.221
133.26
167.18
151.461
130.451
112.784
96.8973
82.7236
79.1102
80.0586
83.8522
92.3291
196.948
168.718
135.515
105.052
81.2387
72.6804
66.483
61.3034
61.4353
70.1742
200.68
166.487
115.773
91.6455
79.0565
70.6068
64.5747
62.4786
63.6757
71.6397
198.155
139.039
99.8106
87.1664
76.5384
66.3886
63.0002
63.0112
58.8554
67.1236
150.912
107.738
104.742
95.5881
82.1396
65.4067
58.6022
60.1945
61.7492
71.6579
134.038
111.095
110.408
109.899
105.462
96.442
102.983
107.077
103.589
102.524
111.962
106.658
112.331
120.816
128.821
133.072
134.047
134.586
123.803
117.39
90.1032
97.3939
113.656
126.383
130.857
139.966
153.742
147.087
130.793
122.283
53.7115
79.6936
114.066
144.518
157.423
156.089
149.245
143.264
133.343
123.181
27.3885
41.5493
87.0947
147.426
190.815
194.678
177.134
163.141
148.489
133.971
14.2559
14.8676
26.2517
88.8989
168.785
211.931
163.951
154.856
135.482
121.462
5.63852
4.96202
-0.258823
30.3668
99.6759
149.171
109.792
115.66
97.3034
90.6025
5.12769
6.32637
-0.347288
11.7419
38.0229
46.4588
42.0787
66.2336
58.7243
61.509
5.8599
6.51757
25.7951
28.5323
14.3856
11.9408
21.6967
35.7967
33.6939
37.8456
6.94057
19.8183
18.4693
44.1055
10.752
20.4195
27.5615
29.3152
27.678
30.139
21.0872
20.0087
12.2698
35.156
3.09075
15.7679
26.977
30.9941
30.8905
25.3802
6.78666
-11.4201
9.33342
9.53363
-8.88553
-7.10788
7.85221
8.0135
3.62171
4.12369
2.20798
-13.8802
-9.77517
-6.79697
-0.117416
-5.60724
5.29267
3.79314
4.62899
-0.58958
4.4379
-0.404016
-17.7652
-6.58822
-4.07092
7.42215
10.4379
10.2091
4.0761
0.14497
0.154355
-0.835973
-3.21097
0.896386
16.7862
32.8772
9.11706
1.35901
1.53571
-1.7606
-0.341859
-0.390962
-0.267918
0.193736
21.535
26.6934
5.76207
3.90824
4.75568
-0.772007
-0.481551
-0.428979
-0.356932
-0.354447
24.96
28.604
6.67208
2.66661
3.81624
-0.854591
-0.591502
-0.556753
-0.512745
-0.503258
25.9324
27.8467
4.29874
1.84799
0.727749
-1.21803
-0.679536
-0.655054
-0.628833
-0.608069
17.5104
33.7697
1.44511
0.296337
-0.447137
-0.545607
-0.768875
-0.750626
-0.709285
-0.559771
1.76444
46.4666
-0.886604
-0.365108
-0.356635
-0.44196
-0.879806
-0.889157
-0.898354
-0.989654
45.29
2.36693
-0.357777
-0.292317
-0.339443
-0.414831
-0.971369
-1.00014
-1.04342
-1.14867
45.6127
2.20207
-0.155935
-0.263458
-0.38777
-0.427975
-1.04156
-1.08321
-1.12631
-1.27583
44.9804
2.82668
-0.211967
-0.341937
-0.416886
-0.478792
-1.05481
-1.03898
-1.08322
-1.24937
44.2428
3.02844
-0.319377
-0.47715
-0.538074
-0.571957
-0.969639
-0.889175
-0.861822
-0.782793
3.13699
44.6849
-0.818434
-0.72426
-0.710479
-0.700634
-0.900322
-0.838407
-0.785184
-0.678033
1.62911
45.3829
-0.960094
-0.851811
-0.820203
-0.797949
-0.901642
-0.866944
-0.801297
-0.682126
5.97861
42.0823
-1.04021
-0.923565
-0.880145
-0.857839
-0.971535
-0.944349
-0.91809
-0.930581
31.9034
16.8214
-0.885585
-0.896467
-0.891776
-0.885295
-1.00168
-0.993552
-0.968176
-1.00461
30.3812
18.7035
-0.868719
-0.89785
-0.905347
-0.905971
-0.994417
-0.994246
-0.964365
-0.956862
17.372
32.2626
-0.934282
-0.921752
-0.924182
-0.9255
-1.00329
-1.00483
-0.979894
-0.973389
26.0821
24.1129
-0.907355
-0.911167
-0.907764
-0.942089
-1.01056
-1.01059
-0.988785
-0.981135
25.443
25.2543
-0.903166
-0.90299
-0.920877
-0.933262
-1.0222
-1.02051
-1.00774
-1.01125
27.3884
23.7121
-0.877913
-0.882351
-0.931411
-0.928539
-1.04957
-1.04429
-1.03721
-1.03859
25.7344
25.6358
-0.91259
-0.90989
-0.961175
-0.964596
-1.06605
-1.06495
-1.06271
-1.05728
25.0219
26.5615
-0.954396
-0.943887
-0.995499
-0.994653
-1.08548
-1.08558
-1.08178
-1.08205
26.5712
25.304
-0.955173
-0.954015
-1.00754
-1.01037
-1.10235
-1.09449
-1.08637
-1.08521
25.8135
26.243
-0.956236
-0.953106
-1.00956
-1.01506
-1.12202
-1.11687
-1.10379
-1.09915
24.9605
27.2297
-0.972695
-0.957099
-1.0194
-1.02351
-1.14528
-1.14204
-1.12888
-1.12519
25.2972
26.9632
-0.992277
-0.971358
-1.03907
-1.0398
-1.17192
-1.17121
-1.15706
-1.15741
26.033
26.263
-1.02832
-1.01196
-1.07677
-1.07524
-1.19962
-1.19765
-1.18785
-1.18837
26.2278
26.1126
-1.08071
-1.06714
-1.12669
-1.12527
-1.23284
-1.22832
-1.22547
-1.2283
26.6781
25.6287
-1.13354
-1.11347
-1.18483
-1.17462
-1.26563
-1.26302
-1.26231
-1.26676
27.1429
25.1753
-1.16911
-1.16069
-1.22196
-1.215
-1.30169
-1.29482
-1.29648
-1.30055
27.1173
25.2087
-1.19645
-1.20714
-1.20503
-1.24993
-1.34308
-1.33594
-1.3403
-1.34558
26.9294
25.3
-1.26223
-1.2615
-1.25661
-1.2829
-1.3891
-1.41094
-1.39565
-1.40434
26.8617
25.2083
-1.31413
-1.31118
-1.32216
-1.31844
-1.42418
-1.43966
-1.43397
-1.44103
26.6415
25.3188
-1.33598
-1.33411
-1.34261
-1.33959
-1.43751
-1.44146
-1.44162
-1.44708
26.4113
25.4444
-1.31913
-1.32087
-1.33124
-1.33154
-1.44909
-1.4508
-1.41482
-1.41916
26.3656
25.3635
-1.31757
-1.31648
-1.32463
-1.33972
-1.48275
-1.47593
-1.42712
-1.43907
26.4449
25.066
-1.34301
-1.33973
-1.34221
-1.36952
-1.51726
-1.48402
-1.47308
-1.48146
26.4406
24.7273
-1.38863
-1.38346
-1.38816
-1.40109
-1.53449
-1.52037
-1.52471
-1.53824
26.0966
24.6874
-1.4182
-1.41198
-1.41487
-1.41994
-1.56549
-1.5612
-1.56424
-1.57773
25.4996
24.7634
-1.44955
-1.4407
-1.43982
-1.45001
-1.59336
-1.59409
-1.59334
-1.60505
25.095
24.5489
-1.49138
-1.48212
-1.48151
-1.48771
-1.61035
-1.61159
-1.6122
-1.6205
24.667
24.1373
-1.5249
-1.51792
-1.51844
-1.52029
-1.62704
-1.62798
-1.62929
-1.63427
24.1845
23.692
-1.54517
-1.54254
-1.54277
-1.54488
-1.64511
-1.64588
-1.64742
-1.6531
23.6775
23.0588
-1.56316
-1.5606
-1.56045
-1.56194
-1.66284
-1.66353
-1.66521
-1.67963
23.1195
22.3229
-1.58973
-1.57857
-1.57815
-1.57898
-1.6801
-1.68036
-1.68203
-1.71514
22.3613
21.5041
-1.62607
-1.59667
-1.5986
-1.59966
-1.69576
-1.69638
-1.6975
-1.75568
21.3165
20.5883
-1.66633
-1.61274
-1.61905
-1.61956
-1.70986
-1.71043
-1.71231
-1.78608
20.0051
19.4072
-1.7049
-1.63522
-1.63937
-1.64538
-1.72511
-1.72542
-1.7278
-1.77986
18.3811
17.7134
-1.71523
-1.66526
-1.66419
-1.67244
-1.742
-1.7404
-1.74284
-1.72287
16.0441
15.7104
-1.6778
-1.69674
-1.69467
-1.69732
-1.75185
-1.75185
-1.75138
-1.64996
12.771
14.4459
-1.6219
-1.72274
-1.71884
-1.72019
-1.7653
-1.76174
-1.76184
-1.8469
11.1119
13.5698
-1.57223
-1.7478
-1.74044
-1.74016
-1.7833
-1.77677
-1.78335
-2.06533
10.955
9.23404
-1.98084
-1.76512
-1.76124
-1.75853
-1.80323
-1.8032
-1.80865
-1.86585
8.84063
4.39899
-2.62628
-1.7637
-1.78189
-1.77619
-1.82644
-1.82183
-1.83308
-1.99791
4.71365
4.95831
-2.63755
-1.78122
-1.79218
-1.79396
-1.84594
-1.84378
-1.89907
-2.11828
1.86147
3.11611
-1.9476
-1.89902
-1.81283
-1.815
-1.86501
-1.86704
-2.06483
-1.58947
0.436236
1.5239
-1.48514
-1.88909
-1.83598
-1.83611
-1.87944
-1.88316
-2.21817
-2.08748
-0.806283
0.00782098
-0.508924
-2.32934
-1.85543
-1.85854
-1.89131
-1.87937
-2.91151
-1.23668
-0.747471
-1.0235
-2.43316
-3.8286
-1.86876
-1.87795
-1.91274
-2.26373
-4.78426
-2.813
-1.79618
-2.26806
-2.81084
-3.98543
-2.60735
-1.90015
-1.94035
-3.94641
-5.80289
-5.90963
-5.82413
-5.65081
-5.33352
-5.0807
-4.06
-1.92771
-2.66227
-9.04985
-12.1825
-14.1291
-15.0203
-15.1991
-14.6982
-13.1051
-9.93826
-2.89136
364.01
370.196
376.952
383.068
384.58
387.194
390.482
392.617
393.706
394.689
395.759
396.55
397.332
397.876
397.554
396.445
394.515
391.393
388.768
387.761
388.134
389.647
390.44
391.685
393.612
397.551
402.771
407.757
412.317
415.967
419.457
422.687
425.277
429.039
425.687
427.481
428.964
428.828
430.787
431.285
345.485
348.211
349.402
352.301
356.326
361.287
364.695
366.231
367.935
369.51
370.516
372.206
373.544
374.265
374.659
374.573
373.698
372.147
372.743
371.833
369.664
368.49
369.363
374.124
377.543
381.27
385.523
389.457
395.303
399.307
403.115
405.842
406.054
409.73
409.159
410.093
411.511
412.191
412.839
416.094
317.968
321.364
328.614
323.669
330.464
335.181
339.178
339.843
338.483
337.917
340.294
345.764
349.634
351.036
352.253
352.576
351.6
350.889
351.815
349.875
349.173
348.327
348.624
355.629
360.219
364.591
368.85
373.479
379.076
383.386
387.143
389.934
393.132
393.663
396.646
394.411
395.625
395.806
396.361
398.183
299.96
303.529
307.066
307.239
307.48
308.684
318.281
317.086
310.205
303.474
304.335
319.198
327.603
328.901
331.66
334.091
333.423
330.5
327.348
323.822
321.121
323.653
328.768
335.354
341.664
346.305
351.243
356.209
360.956
365.828
374.698
375.919
381.212
383.347
382.312
381.173
380.828
380.591
380.633
380.708
296.004
298.757
301.865
306.183
309.776
311.104
309.823
307.56
304.36
302.968
306.627
304.682
283.351
274.596
299.857
309.446
307.643
304.569
304.307
313.201
314.01
302.298
301.783
307.78
317.206
325.892
335.718
343.96
352.315
358.062
359.196
366.127
365.458
366.759
365.09
365.321
365.231
365.114
364.96
365.023
292.906
295.654
298.405
299.905
301.644
302.554
301.993
299.302
295.216
289.923
284.562
280.77
276.356
273.016
274.401
283.764
290.87
294.495
297.666
308.312
310.58
308.279
307.612
307.747
299.97
300.75
309.771
323.62
332.624
332.373
335.261
334.507
338.896
342.92
346.368
344.27
345.993
348.059
348.779
349.482
287.952
289.676
290.479
291.241
287.643
279.1
272.371
269.74
267.147
261.717
253.73
248.438
236.312
238.364
242.514
255.312
265.079
274.839
284.096
291.359
298.886
302.979
301.344
300.716
303.238
305.358
305.058
302.498
309.175
308.598
301.901
306.226
319.459
313.835
322.407
324.59
329.333
333.187
334.858
335.594
283.089
282.359
279.458
275.084
267.456
254.851
242.246
224.358
217.121
208.453
205.136
202.857
207.027
215.937
223.059
226.007
231.303
250.752
263.102
269.237
276.238
281.822
290.048
299.376
293.185
301.886
306.801
293.771
307.12
293.986
286.516
291.097
299.209
303.006
304.843
310.185
316.52
320.482
321.735
322.42
278.017
269.435
256.538
241.356
223.873
212.709
207.977
205.808
203.479
202.031
200.602
199.287
202.482
211.784
218.409
222.467
221.468
233.275
246.388
257.251
263.288
269.216
277.075
284.394
290.796
297.358
307.495
302.652
309.324
285.608
282.635
284.882
286.543
289.004
294.183
299.312
304.249
307.183
308.528
309.07
268.094
254.994
237.556
218.938
214.83
213.73
211.615
209.193
206.248
203.731
203.16
204.932
209.004
214.793
220.082
223.114
224.15
224.339
252.552
264.895
272.006
275.594
273.71
274.195
280.228
296.531
300.596
300.557
284.881
291.565
289.294
289.953
290.414
290.546
291.471
293.283
295.099
296.033
296.895
297.405
256.246
243.399
226.605
217.132
218.214
217.314
215.363
212.669
209.721
207.451
208.824
211.116
217.967
227.071
225.273
215.884
213.225
225.558
247.162
262.434
274.312
275.349
264.177
271.378
278.41
283.656
284.96
292.278
275.192
281.946
273.209
277.792
280.384
282.664
284.779
285.942
286.517
286.426
286.383
286.565
245.715
235.475
220.538
217.462
219.337
218.436
216.297
214.46
214.297
207.346
199.403
208.201
213.37
212.748
219.157
224.006
229.117
236.916
245.845
255.486
264.978
260.154
262.322
263.529
265.332
260.44
272.885
253.381
262.417
266.028
265.493
267.452
269.669
271.751
273.502
275.023
275.623
275.507
275.595
275.777
238.201
231.094
218.032
213.611
215.796
214.283
211.143
205.469
198.203
193.709
195.149
202.365
203.956
206.329
205.889
208.92
210.284
210.063
220.961
233.482
238.303
239.469
252.923
262.445
254.933
263.35
242.01
247.234
250.334
253.161
255.819
258.029
259.227
260.698
261.898
262.619
263.123
263.681
264.726
265.338
237.277
231.003
223.806
210.797
209.652
208.295
205.819
202.656
200.52
199.697
199.606
201.639
202.844
203.589
204.128
205.473
206.287
206.547
205.637
211.953
220.768
224.146
240.024
245.147
245.981
245.206
241.038
241.252
238.99
240.729
241.999
243.276
244.232
246.259
250.269
252.009
253.619
254.438
257.325
257.886
233.516
228.484
223.989
212.076
203.685
204.128
203.273
202.368
201.745
201.171
200.887
201.769
202.014
202.41
203.158
203.914
203.819
203.327
202.092
198.718
201.922
211.317
212.842
224.035
233.923
233.139
232.981
224.759
221.629
222.956
222.796
224.246
225.293
228.187
232.653
235.85
238.481
240.584
244.069
245.252
231.423
227.785
226.508
220.466
205.402
201.129
201.471
201.408
201.546
201.692
201.902
202.193
202.44
202.505
202.796
203.134
202.075
201.579
197.151
189.426
188.699
197.344
205.104
210.403
215.19
213.82
209.972
208.404
205.334
201.9
199.293
199.882
203.719
209.281
210.449
216.893
220.557
222.696
224.155
224.097
225.514
227.238
225.902
223.922
211.256
200.72
199.983
200.245
200.603
201.106
201.674
202.212
202.718
202.842
202.729
203.396
197.798
191.178
192.423
195.389
198.512
200.529
197.724
201.821
199.745
201.854
199.589
190
185.825
181.235
176.902
175.648
178.341
182.422
188.763
195.512
200.662
203.494
204.497
204.492
203.799
214.298
220.27
222.351
214.855
200.682
197.425
199.008
199.416
200.374
201.036
201.316
203.532
203.806
201.783
203.125
201.884
199.477
196.59
194.724
193.983
189.995
195.157
191.624
190.834
188.611
181.476
178.143
172.903
166.855
162.277
161.015
162.861
166.46
171.951
177.689
183.585
186.84
187.552
195.728
163.896
181.31
199.805
215.341
213.981
198.556
194.234
194.75
197.464
198.508
199.798
201.117
200.807
200.189
197.033
193.945
191.073
189.063
187.644
186.73
186.288
185.256
183.573
184.199
181.911
177.435
171.852
168.927
165.713
161.887
158.743
158.126
158.749
160.561
163.569
165.181
169.559
172.161
173.658
180.406
128.127
147.187
175.67
203.713
207.035
190.997
191.588
191.983
192.646
193.749
194.972
195.837
193.238
191.227
188.629
184.697
179.792
177.842
175.613
177.002
177.159
175.977
177.679
176.418
174.488
171.454
167.04
162.734
159.144
155.623
153.633
153.362
153.878
154.301
153.697
154.877
156.25
157.898
159.277
164.022
98.4243
118.79
155.287
182.953
195.522
187.923
191.096
191.231
191.42
191.729
191.562
189.479
185.542
181.003
174.891
172.624
168.316
164.824
165.325
165.454
166.864
168.34
167.288
168.282
166.707
164.163
160.494
155.85
151.743
149.428
146.228
144.977
144.245
144.624
144.976
144.397
143.529
143.678
145.276
147.633
83.855
108.842
144.151
157.064
177.932
180.936
187.65
190.199
189.958
186.217
180.616
175.951
172.061
167.047
160.583
155.578
151.697
149.583
150.348
152.359
154.726
156.879
159.173
159.635
156.837
153.899
150.1
145.476
141.744
138.816
136.657
135.295
134.599
134.015
133.088
132.939
132.141
131.082
131.905
134.359
85.9099
103.906
131.478
135.309
149.657
152.986
169.375
171.633
168.04
165.375
163.042
157.466
150.934
145.986
140.43
135.153
131.108
129.239
129.819
132.284
135.314
138.514
144.465
143.523
141.165
138.891
135.194
130.556
127.145
124.62
123.074
121.704
120.62
123.511
120.017
120.118
121.572
121.581
123.346
124.114
82.8836
103.534
115.823
127.254
133.397
134.919
140.95
138.926
141.018
140.584
137.151
131.599
125.821
120.274
114.493
108.487
103.062
100.529
102.518
106.423
108.391
110.043
112.432
114.547
114.492
112.901
111.216
109.995
110.253
110.516
110.196
109.011
108.448
110.075
109.921
109.083
114.488
114.548
114.036
117.142
89.7087
102.834
114.151
116.071
120.314
122.09
124.343
124.177
123.038
120.595
114.623
108.69
97.6981
89.5166
84.3703
78.6919
71.717
65.8439
67.3336
73.1888
77.44
79.3465
80.726
80.2049
77.5886
79.8103
81.0236
84.1925
91.9086
96.9933
98.2203
96.4194
94.5763
95.7072
98.0349
99.9913
100.093
105.055
103.213
108.476
106.497
110.112
110.964
111.595
113.869
112.725
112.765
111.55
109.245
105.273
101.009
98.4907
86.2821
72.8546
68.0855
61.7493
58.8629
59.7654
50.9953
52.0815
55.3329
52.6478
47.6283
40.1877
56.6465
65.3113
57.9312
67.7985
74.5375
78.7379
80.6203
82.1194
84.3952
83.1127
85.6007
89.2361
87.4328
92.6504
92.8298
101.666
115.5
112.644
110.134
108.098
108.142
105.975
103.353
101.488
97.8131
95.3329
92.3256
85.7687
76.8231
67.9911
61.2096
57.1924
53.653
51.7379
44.7324
45.817
45.0986
35.3376
38.3453
45.8601
44.6187
37.858
54.9132
59.4257
61.6469
63.442
64.745
66.6334
65.8949
67.3922
71.2939
75.8253
78.1588
79.9377
79.9901
89.954
117.451
111.979
106.889
102.363
101.522
98.4002
93.8345
92.449
86.6601
87.8181
85.1336
80.3573
73.8971
66.4996
60.5999
55.1782
47.2801
45.1093
44.0169
43.2801
46.022
38.1166
35.6259
37.6149
36.6702
33.7972
39.736
45.6402
44.5634
50.4694
58.3057
71.1984
73.0133
67.6332
64.2789
67.0046
67.9459
68.3925
68.7088
70.6943
115.005
107.639
100.294
94.353
89.3846
85.8956
83.36
80.2244
77.6091
79.9973
76.9165
72.5269
67.1296
58.8754
48.1334
41.5715
35.8793
33.8961
33.25
30.9378
29.1651
27.2013
26.9759
19.0866
23.3702
24.4404
25.4783
29.3069
34.6438
42.6046
52.0312
63.1368
69.3138
69.4317
66.6229
63.9912
57.9003
56.6996
56.2832
56.3224
120.405
110.666
93.7377
83.6446
76.6436
72.1619
69.1519
67.2287
66.404
65.4576
62.8115
61.2304
56.7713
49.8504
43.7297
40.979
31.758
26.7458
25.9617
21.3325
21.4745
20.7428
16.5835
11.1845
10.7409
15.5936
18.8274
22.3574
25.5444
35.7123
48.8376
54.0944
54.9382
67.2563
57.3673
53.7993
46.8988
43.2358
41.4888
42.2244
108.603
93.9921
80.2122
67.8438
56.904
53.0386
49.8875
48.4601
48.2141
48.5412
49.0222
48.2084
45.4614
39.9912
37.5737
31.5947
20.1102
14.6217
17.8272
17.7693
17.6723
17.2352
15.6488
14.3397
14.609
15.294
16.687
17.6729
17.3111
36.3652
49.7687
54.1081
49.4449
38.5909
37.832
34.1581
33.5751
29.577
28.5414
29.8692
83.2924
72.5809
61.3333
50.1024
40.708
32.0226
23.5807
21.0408
22.3703
22.3294
23.4435
20.7225
17.7233
18.7702
20.4956
21.2322
14.4317
15.8771
14.8757
14.6722
14.7544
14.7404
14.3561
14.1278
13.8699
13.3409
14.4329
15.0376
15.8812
27.4132
32.9111
36.1318
33.2378
19.5662
8.68225
6.5737
6.35885
15.4521
14.6795
18.2846
56.0939
48.4705
40.8911
31.0787
19.7184
13.6356
17.7658
16.9457
15.8047
15.4304
15.9062
16.529
17.964
21.9239
18.4297
13.1535
15.1826
11.7874
9.44351
9.72798
10.7978
11.6749
12.3742
12.8713
13.2244
13.3508
12.8526
13.6763
7.5966
12.7691
3.49589
13.2888
6.22272
1.82086
-0.679889
-1.90318
0.41373
-2.85852
2.49019
7.73959
35.6571
31.9711
25.9151
17.0866
8.90501
13.6498
16.68
15.1205
13.4462
12.9992
13.1413
13.1009
14.0941
12.1214
10.9396
11.2363
10.9783
9.65734
5.43954
6.77993
8.15282
9.42053
10.7528
12.0435
12.45
11.1873
10.7575
7.67458
0.679922
-0.397106
-0.16349
-0.280671
0.0285207
0.0702248
0.179657
0.26481
0.0989729
-1.6018
7.1902
6.71405
28.8552
21.0623
15.2044
8.51439
7.11479
10.2365
11.494
10.679
10.4338
10.3867
10.0509
9.51342
9.99688
10.8785
10.3647
9.79056
8.72632
5.98917
3.29399
4.69797
6.30893
7.37247
8.45887
9.11793
12.9339
10.6088
5.92986
1.36814
-0.76572
-0.832993
-0.73224
-0.66281
-0.543907
-0.362455
-0.175126
-0.20427
-0.305369
2.28553
8.70231
1.08997
27.7939
24.7114
9.27164
11.5016
14.6141
12.4596
11.4003
9.05045
7.61462
7.76286
7.36752
6.86639
9.83391
9.2525
6.99681
2.869
1.56986
1.81264
2.53506
3.31584
4.21779
4.88976
5.51683
9.32155
10.8361
6.32171
0.343717
-0.812923
-0.930574
-0.863503
-0.78503
-0.714259
-0.650288
-0.567459
-0.530234
-0.579505
-0.720813
-0.938699
-0.831688
-0.635857
8.21818
3.72565
3.60399
7.48894
7.93256
5.84288
8.56596
7.55513
5.37395
5.2003
4.70538
4.21276
12.9499
7.04618
0.436034
0.570824
0.650777
-0.0377579
0.0129667
0.0443902
1.03058
2.61508
0.0400033
-0.577014
-0.699581
-1.00011
-1.00719
-0.946367
-0.96873
-0.909592
-0.805619
-0.724139
-0.661868
-0.611956
-0.609189
-0.633061
-0.680197
-0.706632
-0.625866
-0.551518
-9.16759
-15.3697
-0.0855746
11.7659
16.9599
14.3375
4.92709
2.64871
2.86056
2.59144
2.57683
6.72587
-0.507171
-0.201616
-0.0846131
0.0688629
0.0626529
-0.348894
-0.341314
-0.298514
-0.354725
-0.425785
-0.483935
-0.543283
-0.590578
-0.722223
-0.81862
-0.868286
-0.840255
-0.772006
-0.69734
-0.63171
-0.585571
-0.557069
-0.547922
-0.54408
-0.538297
-0.551141
-0.469972
-0.437872
-1.20845
0.45623
7.01476
17.6207
15.4217
6.47141
1.17257
1.25708
-0.131548
0.678413
0.0399222
-0.218783
-0.236337
-0.206845
-0.213306
-0.177958
-0.196673
-0.274835
-0.298436
-0.324719
-0.348675
-0.377492
-0.440174
-0.510259
-0.578792
-0.631791
-0.658509
-0.663964
-0.643265
-0.604083
-0.565531
-0.535443
-0.518942
-0.519262
-0.519779
-0.516414
-0.514903
-0.5187
-0.411564
-0.424324
-1.61806
-0.350132
2.06357
2.27174
2.20445
1.44253
0.356934
-0.0962699
-0.276065
-0.434617
-0.361879
-0.30539
-0.292074
-0.286878
-0.278508
-0.191941
-0.251245
-0.274497
-0.288286
-0.327197
-0.376859
-0.423663
-0.466249
-0.501304
-0.535364
-0.566437
-0.580373
-0.591576
-0.567177
-0.534272
-0.51087
-0.499316
-0.495935
-0.528483
-0.558141
-0.546806
-0.555875
-0.520732
-0.500055
-0.47791
-0.533838
-0.562457
-0.532467
-0.512994
-0.49933
-0.491615
-0.476197
-0.43895
-0.430813
-0.437022
-0.416058
-0.379248
-0.345712
-0.329916
-0.324335
-0.247493
-0.304191
-0.295651
-0.336854
-0.378872
-0.420414
-0.456479
-0.490223
-0.527147
-0.555351
-0.568932
-0.58797
-0.567044
-0.581293
-0.572965
-0.55419
-0.549109
-0.585117
-0.532466
-0.589912
-0.569603
-0.56781
-0.562622
-0.557472
-0.531359
-0.749232
-0.678525
-0.61276
-0.574692
-0.552227
-0.543875
-0.542596
-0.530397
-0.511062
-0.4957
-0.475687
-0.445772
-0.412457
-0.386349
-0.382842
-0.284182
-0.313395
-0.324429
-0.352556
-0.379129
-0.453842
-0.491659
-0.512529
-0.541393
-0.564955
-0.580204
-0.602089
-0.589869
-0.596659
-0.603631
-0.604468
-0.603323
-0.626749
-0.589304
-0.610747
-0.583187
-0.579096
-0.569933
-0.575917
-0.56359
-0.923766
-0.729057
-0.636504
-0.601737
-0.589772
-0.587189
-0.573015
-0.571731
-0.580158
-0.570263
-0.550522
-0.525763
-0.498593
-0.474865
-0.461185
-0.379557
-0.356338
-0.355012
-0.401062
-0.454756
-0.494862
-0.523424
-0.539756
-0.548749
-0.604268
-0.662915
-0.639791
-0.674669
-0.659825
-0.680059
-0.69182
-0.681996
-0.679913
-0.675471
-0.689462
-0.628329
-0.629044
-0.600714
-0.614218
-0.6049
-0.692837
-0.63541
-0.597249
-0.577556
-0.574127
-0.574258
-0.586443
-0.601591
-0.616973
-0.608632
-0.589574
-0.577248
-0.556751
-0.552027
-0.549931
-0.517923
-0.502311
-0.545558
-0.571043
-0.619467
-0.641246
-0.646305
-0.681786
-0.700793
-0.698564
-0.720524
-0.706845
-0.722305
-0.732125
-0.725294
-0.722591
-0.727909
-0.696246
-0.742157
-0.719917
-0.686198
-0.667424
-0.651879
-0.647224
-0.642494
-0.500445
-0.522534
-0.527817
-0.543179
-0.559438
-0.56836
-0.587184
-0.61222
-0.631598
-0.630967
-0.610574
-0.624435
-0.626248
-0.627776
-0.671988
-0.6817
-0.631398
-0.686134
-0.673242
-0.717945
-0.716857
-0.72659
-0.731609
-0.734529
-0.739511
-0.743109
-0.750866
-0.751941
-0.753751
-0.750622
-0.746714
-0.745369
-0.743952
-0.734586
-0.717628
-0.6976
-0.684921
-0.674946
-0.667903
-0.659944
-0.471549
-0.509969
-0.524911
-0.538019
-0.555973
-0.569719
-0.573244
-0.612629
-0.624008
-0.635291
-0.636206
-0.626946
-0.65663
-0.719188
-0.729011
-0.726914
-0.727751
-0.748737
-0.761877
-0.765583
-0.763701
-0.76806
-0.780362
-0.783828
-0.784962
-0.785062
-0.791278
-0.786643
-0.783076
-0.779143
-0.772119
-0.764926
-0.755153
-0.741734
-0.726712
-0.712009
-0.702425
-0.694732
-0.683655
-0.686396
-0.471251
-0.510217
-0.535018
-0.546606
-0.574615
-0.578956
-0.601266
-0.6096
-0.616848
-0.627216
-0.627621
-0.613534
-0.665707
-0.692609
-0.706487
-0.717879
-0.736766
-0.763266
-0.789702
-0.803674
-0.805026
-0.821862
-0.829473
-0.839126
-0.849805
-0.851479
-0.839914
-0.830861
-0.82605
-0.814897
-0.804149
-0.793431
-0.77801
-0.766332
-0.753563
-0.740893
-0.729915
-0.717551
-0.712531
-0.718631
-0.515037
-0.546628
-0.573412
-0.574935
-0.606966
-0.603703
-0.617553
-0.63059
-0.619389
-0.625033
-0.647803
-0.585861
-0.657301
-0.689216
-0.701463
-0.723148
-0.751046
-0.780639
-0.806601
-0.832885
-0.863112
-0.874308
-0.890039
-0.901279
-0.908533
-0.915865
-0.9032
-0.88597
-0.875901
-0.856898
-0.839468
-0.823057
-0.809242
-0.799885
-0.792605
-0.773942
-0.760749
-0.753819
-0.751013
-0.749201
-0.600807
-0.608551
-0.624143
-0.63546
-0.641322
-0.657023
-0.658875
-0.645831
-0.640877
-0.648267
-0.639203
-0.674956
-0.678791
-0.700166
-0.718771
-0.745585
-0.776182
-0.805452
-0.846699
-0.879914
-0.907271
-0.929184
-0.939767
-0.951089
-0.964498
-0.973095
-0.968565
-0.953153
-0.932104
-0.907237
-0.878206
-0.856253
-0.837341
-0.825502
-0.820166
-0.803228
-0.791921
-0.789004
-0.781212
-0.785105
-0.697039
-0.695385
-0.695703
-0.697978
-0.705591
-0.70784
-0.713118
-0.713018
-0.707736
-0.69685
-0.69866
-0.711257
-0.711465
-0.71493
-0.74122
-0.770756
-0.800743
-0.838997
-0.884647
-0.927276
-0.959367
-0.985908
-1.00765
-1.02337
-1.03116
-1.0267
-1.01968
-1.00005
-0.972134
-0.939692
-0.904617
-0.880412
-0.863119
-0.845761
-0.838572
-0.832738
-0.799261
-0.803617
-0.795545
-0.794873
-0.783823
-0.773403
-0.765439
-0.763544
-0.764677
-0.770989
-0.769185
-0.768819
-0.770094
-0.769087
-0.771563
-0.770045
-0.762975
-0.767554
-0.792719
-0.807383
-0.828303
-0.863221
-0.907963
-0.946144
-0.99295
-1.01178
-1.03533
-1.05857
-1.0566
-1.04202
-1.02114
-1.00473
-0.978071
-0.95297
-0.923877
-0.89729
-0.878242
-0.865342
-0.848306
-0.844911
-0.803915
-0.814763
-0.812902
-0.811811
-0.84333
-0.830306
-0.819052
-0.817185
-0.821017
-0.823263
-0.820443
-0.818958
-0.819422
-0.821684
-0.825579
-0.831125
-0.835021
-0.832527
-0.846746
-0.857397
-0.867704
-0.892756
-0.927461
-0.962152
-0.992121
-1.00692
-1.02096
-1.0311
-1.03525
-1.01591
-0.999889
-0.985347
-0.962676
-0.939014
-0.917494
-0.900171
-0.879689
-0.865965
-0.854971
-0.839417
-0.843542
-0.81471
-0.830208
-0.825172
-0.87838
-0.874193
-0.868002
-0.868577
-0.865729
-0.862314
-0.860731
-0.861085
-0.863238
-0.867278
-0.87208
-0.876947
-0.882815
-0.890383
-0.898197
-0.911202
-0.924473
-0.929592
-0.949212
-0.966855
-0.980788
-0.991665
-1.00017
-1.00436
-1.0034
-0.991256
-0.976252
-0.961942
-0.944076
-0.926029
-0.909902
-0.894625
-0.878401
-0.862224
-0.85664
-0.840281
-0.850035
-0.81114
-0.842868
-0.835123
-0.902986
-0.901697
-0.901895
-0.900234
-0.897965
-0.897472
-0.8982
-0.900457
-0.904019
-0.908372
-0.913123
-0.918381
-0.924989
-0.932264
-0.9394
-0.949575
-0.960556
-0.970114
-0.979002
-0.987702
-0.990271
-0.994547
-0.99601
-0.99283
-0.984049
-0.974095
-0.963203
-0.953846
-0.937722
-0.920814
-0.906654
-0.89483
-0.879769
-0.867665
-0.863101
-0.848404
-0.858435
-0.813927
-0.854275
-0.845852
-0.925076
-0.925822
-0.927294
-0.928012
-0.929083
-0.931285
-0.934444
-0.938851
-0.944416
-0.949845
-0.955421
-0.961419
-0.967206
-0.973271
-0.980141
-0.988592
-0.996706
-1.00378
-1.00933
-1.01321
-1.01258
-1.0083
-1.00272
-0.996336
-0.984433
-0.974123
-0.962702
-0.953981
-0.93969
-0.925074
-0.913179
-0.899808
-0.887708
-0.886721
-0.871995
-0.867672
-0.865647
-0.836416
-0.868696
-0.860055
-0.944774
-0.947802
-0.951484
-0.954348
-0.95803
-0.963146
-0.967252
-0.97207
-0.976227
-0.985832
-0.994864
-1.00069
-1.0072
-1.01417
-1.0215
-1.02881
-1.03511
-1.0396
-1.04123
-1.03999
-1.03638
-1.02903
-1.01911
-1.01021
-0.999431
-0.984477
-0.983625
-0.972846
-0.954847
-0.940978
-0.927916
-0.91325
-0.911934
-0.897898
-0.895441
-0.895306
-0.862421
-0.871762
-0.879973
-0.877436
-0.962009
-0.967399
-0.974071
-0.977422
-0.982472
-0.989976
-0.998066
-1.00384
-1.01358
-1.02431
-1.03035
-1.03762
-1.04582
-1.05405
-1.06217
-1.06929
-1.07489
-1.07791
-1.07779
-1.0745
-1.06822
-1.05924