/*--------------------------------*- C++ -*----------------------------------*\
  =========                 |
  \\      /  F ield         | OpenFOAM: The Open Source CFD Toolbox
   \\    /   O peration     | Website:  https://openfoam.org
    \\  /    A nd           | Version:  8
     \\/     M anipulation  |
\*---------------------------------------------------------------------------*/
FoamFile
{
    version     2.0;
    format      ascii;
    class       surfaceScalarField;
    location    "2.3";
    object      phi;
}
// * * * * * * * * * * * * * * * * * * * * * * * * * * * * * * * * * * * * * //

dimensions      [0 3 -1 0 0 0 0];

internalField   nonuniform List<scalar> 
18095
(
1.95486e-08
-1.7187e-07
1.52321e-07
2.3202e-08
-1.98279e-07
1.94626e-07
1.97243e-08
-2.05636e-07
2.09114e-07
1.02212e-08
-2.10244e-07
2.19747e-07
-9.3678e-10
-2.13227e-07
2.24385e-07
-1.13699e-08
-2.13561e-07
2.23994e-07
-1.98704e-08
-2.11107e-07
2.19607e-07
-2.32003e-08
-2.05984e-07
2.09313e-07
-1.95638e-08
-1.98234e-07
1.94598e-07
-1.71859e-07
1.52295e-07
1.55939e-08
-1.87464e-07
1.57437e-08
-1.98429e-07
1.23222e-08
-2.02215e-07
7.33886e-09
-2.05261e-07
1.16336e-09
-2.07051e-07
-5.67606e-09
-2.06722e-07
-1.18141e-08
-2.04969e-07
-1.57494e-08
-2.02048e-07
-1.55933e-08
-1.9839e-07
-1.87452e-07
6.87541e-09
-1.94339e-07
8.27276e-09
-1.99826e-07
6.91115e-09
-2.00853e-07
3.49062e-09
-2.0184e-07
-6.16244e-10
-2.02944e-07
-4.57256e-09
-2.02765e-07
-7.32264e-09
-2.02219e-07
-8.2996e-09
-2.01071e-07
-6.87593e-09
-1.99814e-07
-1.94328e-07
4.57507e-09
-1.98914e-07
4.70887e-09
-1.9996e-07
3.89491e-09
-2.00039e-07
2.3705e-09
-2.00316e-07
1.92853e-10
-2.00767e-07
-1.80449e-09
-2.00768e-07
-3.55092e-09
-2.00472e-07
-4.68059e-09
-1.99942e-07
-4.57858e-09
-1.99916e-07
-1.98906e-07
1.08585e-09
1.12558e-09
1.08653e-09
7.70959e-10
4.24441e-12
-7.63736e-10
-1.23596e-09
-1.17765e-09
-1.09356e-09
-2.61647e-08
-1.96941e-07
2.23106e-07
-2.83919e-08
-1.99221e-07
2.01448e-07
-2.29344e-08
-2.02015e-07
1.96557e-07
-1.19285e-08
-2.01026e-07
1.9002e-07
1.12504e-09
-2.01402e-07
1.88348e-07
1.39534e-08
-2.01342e-07
1.88514e-07
2.40522e-08
-2.00375e-07
1.90276e-07
2.87232e-08
-2.01378e-07
1.96707e-07
2.64635e-08
-1.99199e-07
2.01459e-07
-1.97101e-07
2.23565e-07
-9.96769e-09
-1.86973e-07
-1.6113e-08
-1.93075e-07
-1.57871e-08
-2.02341e-07
-7.85765e-09
-2.08956e-07
-3.27931e-10
-2.08932e-07
7.03093e-09
-2.08701e-07
1.46647e-08
-2.08009e-07
1.55984e-08
-2.02312e-07
9.88906e-09
-1.9349e-07
-1.87212e-07
-1.0927e-08
-1.76046e-07
-8.69442e-09
-1.95308e-07
-6.09805e-09
-2.04937e-07
-5.24821e-09
-2.09805e-07
-1.64206e-09
-2.12538e-07
2.57643e-09
-2.12919e-07
5.64979e-09
-2.11082e-07
8.89814e-09
-2.0556e-07
1.1033e-08
-1.95625e-07
-1.76179e-07
-6.7865e-09
-1.6926e-07
-8.72549e-09
-1.93369e-07
-8.04722e-09
-2.05615e-07
-2.7818e-09
-2.15071e-07
1.48898e-09
-2.16809e-07
5.38934e-09
-2.1682e-07
9.54092e-09
-2.15234e-07
9.64144e-09
-2.05661e-07
7.13247e-09
-1.93116e-07
-1.69046e-07
-1.69388e-08
-1.56817e-08
-1.21832e-08
-7.50713e-09
6.88659e-11
7.24324e-09
1.16168e-08
1.52696e-08
1.67516e-08
3.61936e-08
-1.55945e-07
1.19751e-07
4.28952e-08
-1.97589e-07
1.90888e-07
3.7943e-08
-2.09957e-07
2.14909e-07
2.67005e-08
-2.16019e-07
2.27262e-07
1.03544e-08
-2.17607e-07
2.33953e-07
-7.1276e-09
-2.17916e-07
2.35398e-07
-2.38536e-08
-2.16144e-07
2.3287e-07
-3.35278e-08
-2.11363e-07
2.21038e-07
-3.16993e-08
-1.99249e-07
1.97421e-07
-1.58211e-07
1.26512e-07
1.72702e-08
-1.73215e-07
1.98231e-08
-2.00142e-07
1.62876e-08
-2.06421e-07
9.11906e-09
-2.08851e-07
1.19245e-10
-2.08607e-07
-9.0233e-09
-2.08773e-07
-1.61576e-08
-2.09009e-07
-1.96309e-08
-2.0789e-07
-1.68301e-08
-2.0205e-07
-1.75041e-07
1.06921e-08
-1.83907e-07
1.06818e-08
-2.00132e-07
9.39811e-09
-2.05138e-07
5.18954e-09
-2.04642e-07
1.27251e-09
-2.0469e-07
-2.60481e-09
-2.04896e-07
-6.65874e-09
-2.04955e-07
-8.72143e-09
-2.05827e-07
-9.85272e-09
-2.00919e-07
-1.84894e-07
7.27337e-09
-1.91181e-07
6.61846e-09
-1.99477e-07
7.33951e-09
-2.05859e-07
3.39389e-09
-2.00697e-07
1.80205e-09
-2.03098e-07
1.99946e-11
-2.03114e-07
-5.44654e-09
-1.99489e-07
-5.41366e-09
-2.0586e-07
-6.74756e-09
-1.99585e-07
-1.91642e-07
3.19253e-08
3.38963e-08
2.45948e-08
1.39186e-08
-8.30908e-10
-1.54312e-08
-2.46437e-08
-3.3797e-08
-3.1923e-08
-1.39606e-06
8.93969e-08
1.30667e-06
-1.46124e-06
6.51755e-08
-1.51432e-06
5.30818e-08
-1.55371e-06
3.93844e-08
-1.56416e-06
1.04565e-08
-1.5495e-06
-1.46574e-08
-1.52336e-06
-2.6141e-08
-1.49277e-06
-3.05912e-08
-1.45081e-06
-4.19674e-08
-7.02686e-08
-1.38054e-06
-1.37338e-06
1.09162e-07
1.35361e-06
-1.36476e-06
5.65614e-08
-1.33179e-06
2.01063e-08
-1.27641e-06
-1.59908e-08
-1.21705e-06
-4.89087e-08
-1.14739e-06
-8.43126e-08
-1.07658e-06
-9.69586e-08
-1.01635e-06
-9.08193e-08
-9.62512e-07
-9.58028e-08
-1.11746e-07
-9.21034e-07
-9.60416e-07
5.18312e-08
1.01775e-06
-9.24434e-07
2.058e-08
-8.77842e-07
-2.64862e-08
-8.19165e-07
-7.46674e-08
-7.63761e-07
-1.04312e-07
-7.32479e-07
-1.15595e-07
-7.13516e-07
-1.15921e-07
-6.69768e-07
-1.34568e-07
-6.14597e-07
-1.50974e-07
-1.64237e-07
-5.62106e-07
-1.00729e-06
6.13244e-08
9.97797e-07
-1.00629e-06
1.95757e-08
-9.6773e-07
-6.50429e-08
-9.05621e-07
-1.36777e-07
-8.18786e-07
-1.91148e-07
-7.33257e-07
-2.01124e-07
-6.90627e-07
-1.58551e-07
-6.16604e-07
-2.08592e-07
-5.10625e-07
-2.56954e-07
-2.3054e-07
-4.44321e-07
-7.91515e-07
7.16267e-08
7.81214e-07
-8.6255e-07
9.06115e-08
-9.17719e-07
-9.87283e-09
-9.19291e-07
-1.35204e-07
-8.03495e-07
-3.06944e-07
-7.15412e-07
-2.89208e-07
-6.69049e-07
-2.04915e-07
-6.77799e-07
-1.99841e-07
-6.78427e-07
-2.56325e-07
-2.78569e-07
-6.304e-07
-2.78677e-07
3.80492e-08
3.12253e-07
-2.82463e-07
9.43988e-08
-2.40062e-07
-5.22747e-08
-2.60686e-07
-1.1458e-07
-2.40607e-07
-3.27024e-07
-1.40917e-07
-3.889e-07
-8.57887e-08
-2.60043e-07
-1.06237e-07
-1.7939e-07
-1.54279e-07
-2.08283e-07
-2.49756e-07
-1.83094e-07
-2.62677e-07
1.42744e-08
2.86452e-07
-2.42646e-07
7.43691e-08
-1.66303e-07
-1.28617e-07
-3.90776e-08
-2.41806e-07
3.14197e-08
-3.97521e-07
5.55393e-08
-4.13019e-07
1.08445e-07
-3.12948e-07
9.4304e-08
-1.65248e-07
4.79532e-08
-1.61931e-07
-2.28641e-07
2.68384e-08
-1.66576e-07
-7.52702e-08
2.56121e-07
-2.96234e-08
-6.25825e-08
7.57053e-08
-2.33946e-07
1.39234e-07
-3.05334e-07
1.73125e-07
-4.31413e-07
1.60933e-07
-4.00826e-07
1.25522e-07
-2.77537e-07
1.15991e-07
-1.55718e-07
1.28584e-07
-1.74525e-07
-3.32677e-07
2.32622e-07
7.57295e-08
-1.52185e-07
1.18524e-09
1.69789e-07
-1.56642e-07
1.93072e-07
-2.57229e-07
2.25831e-07
-3.38094e-07
1.3971e-07
-3.45291e-07
-1.10721e-09
-2.60008e-07
-3.01549e-08
-2.48488e-07
7.31495e-08
-2.59022e-07
2.0172e-07
-3.03096e-07
-5.60636e-07
4.29679e-07
9.31582e-08
-1.76837e-07
-6.85066e-08
1.4961e-07
-2.13098e-07
1.78953e-07
-2.86572e-07
1.5973e-07
-3.18871e-07
9.06866e-08
-2.76247e-07
5.98034e-08
-2.29124e-07
1.21323e-07
-3.10008e-07
2.45267e-07
-3.82967e-07
3.92435e-07
-4.50263e-07
-6.33867e-07
4.65667e-07
2.44191e-07
-2.35253e-07
-1.85775e-07
2.93207e-07
-2.62116e-07
2.85546e-07
-2.78912e-07
2.27134e-07
-2.60461e-07
2.02195e-07
-2.51308e-07
2.23765e-07
-2.50695e-07
2.92029e-07
-3.78274e-07
3.64764e-07
-4.55702e-07
4.20694e-07
-5.06191e-07
-6.49225e-07
4.36052e-07
1.16541e-07
-3.02638e-07
-4.91562e-08
1.7343e-07
-3.19005e-07
2.1894e-07
-3.24421e-07
2.85075e-07
-3.26596e-07
3.40572e-07
-3.06805e-07
4.01368e-07
-3.11492e-07
4.08905e-07
-3.85812e-07
4.08017e-07
-4.54814e-07
4.15563e-07
-5.13738e-07
-6.25972e-07
3.92311e-07
8.94054e-08
-3.17007e-07
-7.50362e-08
1.25077e-07
-3.54678e-07
1.77608e-07
-3.76952e-07
2.30559e-07
-3.79547e-07
2.95485e-07
-3.71731e-07
3.73632e-07
-3.89639e-07
4.19476e-07
-4.31656e-07
4.37219e-07
-4.72557e-07
4.36593e-07
-5.13111e-07
-5.66141e-07
3.76761e-07
6.64586e-08
-3.34358e-07
-4.91076e-08
7.87634e-08
-3.66983e-07
9.2997e-08
-3.91186e-07
1.16467e-07
-4.03017e-07
1.66429e-07
-4.21693e-07
2.52628e-07
-4.75838e-07
3.4342e-07
-5.22448e-07
4.10426e-07
-5.39562e-07
4.26469e-07
-5.29155e-07
-5.23175e-07
3.83503e-07
-1.94584e-08
-3.39071e-07
2.4171e-08
-1.04577e-08
-3.75983e-07
1.14416e-08
-4.13085e-07
5.14217e-08
-4.42997e-07
1.0103e-07
-4.71302e-07
1.66219e-07
-5.41027e-07
2.44713e-07
-6.00942e-07
3.34663e-07
-6.29512e-07
3.8617e-07
-5.80661e-07
-5.31164e-07
3.94159e-07
-5.77817e-08
-3.44961e-07
6.36724e-08
-4.8429e-08
-3.85336e-07
-3.69161e-08
-4.24598e-07
1.64597e-08
-4.96373e-07
8.54652e-08
-5.40308e-07
1.64547e-07
-6.20109e-07
2.6201e-07
-6.98405e-07
3.41079e-07
-7.0858e-07
4.20381e-07
-6.59964e-07
-5.81049e-07
4.70266e-07
3.0589e-08
-3.14791e-07
-6.07593e-08
-1.59256e-08
-3.38821e-07
-4.01832e-08
-4.0034e-07
3.75804e-08
-5.74137e-07
1.90134e-07
-6.92861e-07
3.52631e-07
-7.82606e-07
4.8953e-07
-8.35304e-07
5.72711e-07
-7.91761e-07
5.8318e-07
-6.70433e-07
-5.97817e-07
5.99948e-07
2.9373e-07
-2.87221e-07
-3.213e-07
2.72619e-07
-3.17709e-07
2.89988e-07
-4.17709e-07
4.35581e-07
-7.19731e-07
6.30012e-07
-8.87292e-07
7.91969e-07
-9.44563e-07
8.64762e-07
-9.08097e-07
9.11812e-07
-8.38811e-07
8.77418e-07
-6.36039e-07
-4.64131e-07
7.43733e-07
5.44706e-07
-3.30379e-07
-5.01549e-07
6.06322e-07
-3.79325e-07
7.57839e-07
-5.69226e-07
8.93625e-07
-8.55517e-07
9.72312e-07
-9.65979e-07
9.90627e-07
-9.62878e-07
1.01124e-06
-9.2871e-07
1.01162e-06
-8.39192e-07
9.85648e-07
-6.10068e-07
-2.63136e-07
7.84653e-07
6.89889e-07
-4.04685e-07
-6.15583e-07
8.30423e-07
-5.19859e-07
1.02118e-06
-7.59983e-07
1.07325e-06
-9.07591e-07
1.08015e-06
-9.72881e-07
1.08139e-06
-9.64112e-07
1.06741e-06
-9.14731e-07
1.01479e-06
-7.86573e-07
8.64191e-07
-4.59468e-07
-8.23883e-08
6.83444e-07
7.85644e-07
-5.37471e-07
-6.52857e-07
9.82936e-07
-7.17152e-07
1.09945e-06
-8.76499e-07
1.11373e-06
-9.21867e-07
1.10184e-06
-9.60993e-07
1.0719e-06
-9.34166e-07
9.78892e-07
-8.21727e-07
7.63733e-07
-5.71414e-07
5.10819e-07
-2.06553e-07
-4.32681e-08
4.71699e-07
9.15309e-07
-7.38809e-07
-7.13971e-07
1.06969e-06
-8.71537e-07
1.05792e-06
-8.64723e-07
9.92361e-07
-8.56309e-07
8.87021e-07
-8.55653e-07
7.39633e-07
-7.86779e-07
5.64827e-07
-6.46921e-07
3.00806e-07
-3.07392e-07
1.20947e-07
-2.66936e-08
5.01835e-09
7.26603e-08
8.89671e-07
-8.81699e-07
-7.46781e-07
8.44986e-07
-8.26851e-07
6.98887e-07
-7.18625e-07
5.58436e-07
-7.15858e-07
4.21886e-07
-7.19103e-07
2.73473e-07
-6.38366e-07
2.04845e-08
-3.93931e-07
-1.48077e-07
-1.3883e-07
-1.59e-07
-1.57706e-08
4.00215e-08
-1.94003e-07
4.12262e-07
-7.98215e-07
-4.95746e-07
2.38347e-07
-6.52936e-07
1.29582e-07
-6.0986e-07
1.39824e-07
-7.261e-07
1.40717e-07
-7.19996e-07
-5.80018e-08
-4.39648e-07
-2.86726e-07
-1.65207e-07
-3.82312e-07
-4.32432e-08
-4.11025e-07
1.29415e-08
9.21611e-08
-4.63164e-07
-1.59675e-07
-7.36518e-07
9.79786e-08
-2.11067e-07
-6.01545e-07
-2.4585e-07
-5.75076e-07
-3.11354e-07
-6.60597e-07
-3.94654e-07
-6.36696e-07
-5.19291e-07
-3.15011e-07
-6.22208e-07
-6.22889e-08
-7.29761e-07
6.43104e-08
-8.11504e-07
9.46839e-08
9.82029e-08
-8.17546e-07
-4.87162e-07
-7.85215e-07
5.35859e-07
-4.94958e-07
-5.9375e-07
-5.4728e-07
-5.22754e-07
-7.0037e-07
-5.07506e-07
-8.16376e-07
-5.20689e-07
-8.41577e-07
-2.8981e-07
-8.32998e-07
-7.08684e-08
-8.01694e-07
3.30067e-08
-7.62231e-07
5.52203e-08
4.09957e-08
-7.05023e-07
-7.5565e-07
-9.12381e-07
8.82815e-07
-6.19757e-07
-7.29643e-07
-6.14451e-07
-5.2806e-07
-7.01139e-07
-4.20818e-07
-8.56928e-07
-3.649e-07
-8.51001e-07
-2.95737e-07
-7.58664e-07
-1.63206e-07
-6.43401e-07
-8.22564e-08
-5.41843e-07
-4.6338e-08
-3.23537e-08
-4.68493e-07
-1.0364e-06
-1.00747e-06
1.13149e-06
-8.12084e-07
-9.53954e-07
-5.99206e-07
-7.40938e-07
-5.3806e-07
-4.81964e-07
-5.47114e-07
-3.55846e-07
-5.76115e-07
-2.66736e-07
-5.21267e-07
-2.18055e-07
-4.3004e-07
-1.73483e-07
-3.74771e-07
-1.01607e-07
-3.06182e-08
-3.76507e-07
-1.19244e-06
-1.02819e-06
1.21316e-06
-1.06513e-06
-1.08127e-06
-7.84231e-07
-1.02184e-06
-5.26074e-07
-7.40121e-07
-4.56172e-07
-4.25748e-07
-4.51019e-07
-2.71888e-07
-4.77068e-07
-1.92005e-07
-5.13306e-07
-1.37245e-07
-5.33649e-07
-8.12643e-08
-1.86602e-08
-5.45607e-07
-1.16284e-06
-7.78408e-07
9.13059e-07
-1.14878e-06
-1.09533e-06
-9.93557e-07
-1.17706e-06
-6.40048e-07
-1.09363e-06
-3.4518e-07
-7.20617e-07
-3.03726e-07
-3.13342e-07
-3.45675e-07
-1.50056e-07
-3.78949e-07
-1.03972e-07
-4.05756e-07
-5.4457e-08
-5.77576e-09
-4.1864e-07
-5.71342e-07
-4.41446e-07
2.3438e-07
-9.44059e-07
-7.22611e-07
-9.98843e-07
-1.12228e-06
-7.40882e-07
-1.35159e-06
-2.97282e-07
-1.16422e-06
4.47242e-09
-6.15096e-07
-9.14878e-08
-5.40961e-08
-1.4395e-07
-5.15089e-08
-1.89024e-07
-9.3831e-09
1.67192e-08
-2.11519e-07
-6.35538e-08
-4.13344e-07
3.54516e-08
-3.00474e-07
-4.8569e-07
-6.83263e-07
-7.39487e-07
-6.03072e-07
-1.43178e-06
-3.38224e-07
-1.42907e-06
9.07354e-08
-1.04406e-06
4.0358e-08
-3.7187e-09
-2.76988e-08
1.65478e-08
-7.3592e-08
3.65102e-08
3.42362e-08
-9.11089e-08
2.37859e-08
-3.89971e-07
-4.71582e-08
-6.13033e-08
-4.00601e-07
-3.03118e-07
-4.97672e-07
-2.80054e-07
-1.45485e-06
-1.89789e-07
-1.51933e-06
1.89005e-08
-1.25274e-06
7.7935e-09
7.38825e-09
-5.31897e-08
7.7531e-08
-6.52701e-08
4.85905e-08
4.27844e-08
-7.38183e-08
2.89818e-07
-2.67136e-07
-4.12653e-07
4.67158e-08
-1.575e-07
-1.14587e-07
-3.3637e-07
-1.57189e-07
-1.41224e-06
-1.21887e-07
-1.55463e-06
-2.02754e-08
-1.35436e-06
-2.10284e-08
8.14125e-09
-5.77736e-08
1.14276e-07
-5.7352e-08
4.81689e-08
4.66547e-08
-6.12224e-08
1.02745e-07
-1.56539e-07
-2.13342e-07
-2.21374e-09
-5.2541e-08
-9.20429e-08
-2.46541e-07
-1.86742e-07
-1.31754e-06
-1.58468e-07
-1.58291e-06
-1.23454e-07
-1.38937e-06
-1.39444e-08
-1.01368e-07
8.20383e-08
1.82936e-08
1.14178e-07
1.60289e-08
2.15806e-08
1.39252e-07
-8.41202e-08
-6.40636e-08
-8.35544e-09
-9.68404e-08
-3.98211e-08
-4.19354e-08
-3.01446e-07
-1.23277e-07
-1.2362e-06
-1.27301e-07
-1.57888e-06
-9.07744e-08
-1.4259e-06
4.43662e-08
-2.36508e-07
2.14534e-07
-1.51874e-07
3.45363e-07
-1.14801e-07
-8.36415e-08
4.50585e-07
-9.90264e-08
-8.05726e-09
4.302e-08
-9.81851e-08
-4.06628e-08
-1.73171e-07
-2.2646e-07
-1.1337e-07
-1.296e-06
-1.02182e-07
-1.59007e-06
-4.07217e-08
-1.48736e-06
7.12638e-08
-3.48494e-07
1.97693e-07
-2.78303e-07
2.88206e-07
-2.05314e-07
-1.5861e-07
3.63175e-07
6.14169e-08
5.22187e-08
-1.21693e-07
1.58243e-08
4.92995e-09
-8.65011e-08
-1.24134e-07
-1.05992e-07
-1.27651e-06
-1.1824e-07
-1.57782e-06
-9.87739e-08
-1.50682e-06
-2.41455e-08
-4.23122e-07
-1.14963e-07
-1.87487e-07
-1.08218e-07
-2.12061e-07
-2.47006e-07
-1.98228e-08
1.02871e-07
1.71103e-09
-5.2363e-08
1.56977e-07
-4.91765e-08
1.15557e-07
-8.27141e-08
-8.29403e-08
-1.07802e-06
-8.54709e-08
-1.57529e-06
-7.6129e-08
-1.51617e-06
-2.99263e-07
-1.99988e-07
-2.41075e-07
-2.45669e-07
-2.88016e-07
-1.65117e-07
-2.57443e-07
-2.77579e-07
1.7887e-07
-3.67325e-08
-1.40426e-07
3.50427e-07
-2.20734e-07
1.26302e-07
1.41411e-07
2.1809e-08
-9.73521e-07
-6.90883e-08
-1.48439e-06
-1.14075e-07
-1.47118e-06
-2.88889e-07
-2.51795e-08
-4.49615e-07
-8.49473e-08
-3.70558e-07
-2.44175e-07
-3.20566e-07
-3.07435e-07
-3.22985e-07
-3.60106e-08
3.22266e-07
-4.46162e-07
-9.75635e-08
-3.0238e-07
-2.36856e-09
-1.81505e-08
-1.25775e-06
-1.39404e-08
-1.4886e-06
1.57189e-10
-1.48528e-06
6.36178e-08
-8.86358e-08
1.21776e-09
-2.25494e-08
-9.48879e-08
-1.48069e-07
-2.92551e-07
-1.22902e-07
-5.2251e-07
-1.12009e-07
5.98509e-07
-4.0017e-07
-2.19898e-07
-5.25269e-08
-3.50007e-07
6.32999e-09
-1.3166e-06
-1.26769e-08
-1.46959e-06
-3.5756e-08
-1.4622e-06
-1.12818e-07
-1.15773e-08
-3.11475e-07
1.7611e-07
-4.21336e-07
-3.82082e-08
-2.36989e-07
-4.76895e-07
-2.63844e-07
-1.63219e-07
3.15053e-07
-2.03207e-07
-2.80543e-07
-5.50605e-08
-4.98157e-07
3.49796e-09
-1.37516e-06
-1.09095e-08
-1.45519e-06
-1.24942e-08
-1.46061e-06
5.61375e-07
-5.85451e-07
2.12622e-07
5.24867e-07
1.97612e-09
1.72438e-07
-2.07285e-07
-2.77256e-08
-9.7026e-08
-1.95986e-07
1.29793e-07
-8.32483e-08
-2.94322e-07
-3.62614e-08
-5.45139e-07
-4.21533e-09
-1.40721e-06
-1.27196e-08
-1.44668e-06
-2.57925e-08
-1.44754e-06
7.19024e-07
-1.33027e-06
9.58089e-07
2.85802e-07
9.12879e-07
2.17645e-07
-2.18519e-07
9.24113e-07
-5.32589e-08
-2.38916e-07
9.61887e-08
-3.65129e-08
-3.11079e-07
-2.44676e-08
-5.57192e-07
-1.84321e-08
-1.41325e-06
-1.92439e-08
-1.44587e-06
-3.26427e-08
-1.43414e-06
9.01591e-08
-1.45307e-06
6.27943e-07
-2.51983e-07
9.5091e-07
-1.05322e-07
-2.23584e-07
9.55973e-07
-1.86326e-08
-2.68492e-07
4.82101e-08
1.5159e-08
-3.44856e-07
5.68805e-08
-5.98911e-07
6.12022e-08
-1.41757e-06
4.0478e-08
-1.42515e-06
4.30046e-08
-1.43667e-06
-2.86731e-09
-1.4072e-06
2.0015e-07
-4.55005e-07
3.39168e-07
-2.44338e-07
-2.25605e-07
3.41186e-07
8.40788e-09
-2.59697e-07
-1.72055e-08
1.42427e-08
-3.50707e-07
1.90696e-08
-6.03743e-07
4.83131e-09
-1.40333e-06
3.63558e-09
-1.42395e-06
-1.44467e-08
-1.41859e-06
-2.12094e-08
-1.40043e-06
9.11235e-08
-5.67343e-07
9.03833e-08
-2.43597e-07
-2.60401e-07
1.25178e-07
6.02061e-08
-2.33992e-07
-8.59115e-08
4.01734e-08
-3.30669e-07
4.73356e-08
-6.10906e-07
4.00431e-08
-1.39604e-06
2.41447e-08
-1.40805e-06
1.69066e-08
-1.41135e-06
9.12952e-09
-1.39265e-06
7.55825e-08
-6.33799e-07
9.02492e-08
-2.58259e-07
-2.66671e-07
9.65171e-08
1.48263e-07
-2.13672e-07
-1.68582e-07
7.40079e-08
-2.56416e-07
3.61141e-08
-5.73017e-07
2.35823e-08
-1.38351e-06
6.1696e-09
-1.39064e-06
-7.80766e-10
-1.4044e-06
-1.41078e-08
-1.37933e-06
3.83748e-08
-6.86281e-07
1.00961e-07
-3.20845e-07
-2.4755e-07
8.18396e-08
1.27059e-07
-1.72659e-07
-1.68074e-07
3.89299e-08
-1.68285e-07
-2.79431e-08
-5.06146e-07
-5.13899e-08
-1.36006e-06
-5.39279e-08
-1.3881e-06
-7.79635e-08
-1.38036e-06
-8.63315e-08
-1.37096e-06
-3.18892e-08
-7.40725e-07
2.41051e-08
-3.76838e-07
-2.49836e-07
2.63919e-08
6.71704e-09
-9.48197e-08
-8.45588e-08
3.18754e-09
-1.64753e-07
3.25164e-10
-5.03287e-07
-1.93607e-08
-1.34038e-06
-3.32446e-08
-1.37422e-06
-4.79644e-08
-1.36564e-06
-6.08046e-08
-1.35812e-06
-4.12254e-08
-7.60305e-07
-3.70227e-09
-4.14364e-07
-2.72122e-07
1.85839e-08
-8.63043e-08
-1.0063e-07
9.21128e-08
-5.10549e-09
-2.45957e-07
2.82533e-08
-5.3665e-07
1.02905e-08
-1.32241e-06
-6.73529e-09
-1.35719e-06
-1.78337e-08
-1.35454e-06
-3.90828e-08
-1.33687e-06
-3.23397e-08
-7.67047e-07
1.41529e-08
-4.60863e-07
-3.11066e-07
5.30967e-08
-7.81623e-08
-2.05488e-07
1.83019e-07
9.39247e-09
-3.33513e-07
4.29046e-08
-5.70163e-07
3.76576e-08
-1.31717e-06
1.632e-08
-1.33585e-06
7.19989e-09
-1.34542e-06
-1.75367e-08
-1.31214e-06
-3.01491e-08
-7.54435e-07
1.97036e-08
-5.10717e-07
-3.59451e-07
6.80892e-08
4.88219e-08
-2.4904e-07
-5.2707e-09
4.9006e-08
-3.33698e-07
4.1587e-08
-5.62744e-07
5.7191e-09
-1.2813e-06
-5.15232e-09
-1.32498e-06
-2.76853e-08
-1.32289e-06
-5.70215e-08
-1.2828e-06
-6.73524e-08
-7.44103e-07
-3.67132e-08
-5.41358e-07
-4.07458e-07
1.12923e-08
1.00226e-07
-2.31594e-07
-1.17673e-07
7.73037e-08
-3.10783e-07
4.33466e-08
-5.2879e-07
1.07445e-08
-1.2487e-06
-6.36534e-09
-1.30787e-06
-2.34545e-08
-1.3058e-06
-4.71995e-08
-1.25906e-06
-7.48919e-08
-7.16407e-07
-8.02398e-08
-5.3601e-07
-4.25628e-07
-6.20704e-08
9.01367e-08
-2.31702e-07
-9.0028e-08
4.91889e-08
-2.69836e-07
1.49514e-08
-4.94552e-07
2.36718e-08
-1.25742e-06
5.89849e-09
-1.2901e-06
-9.77659e-09
-1.29013e-06
-1.18715e-08
-1.25696e-06
-8.78519e-08
-6.40428e-07
-1.13717e-07
-5.10144e-07
-4.25012e-07
-1.14333e-07
8.75923e-08
-2.1272e-07
-1.06576e-07
3.61407e-08
-2.18385e-07
1.68995e-08
-4.75312e-07
1.89477e-08
-1.25947e-06
3.27063e-09
-1.27442e-06
-1.18282e-08
-1.27503e-06
-1.11891e-08
-1.2576e-06
-6.49763e-08
-5.86642e-07
-1.20874e-07
-4.54244e-07
-4.21887e-07
-1.23999e-07
8.49652e-08
-1.63275e-07
-1.34411e-07
3.54709e-08
-1.68896e-07
2.78723e-08
-4.67715e-07
2.04041e-08
-1.252e-06
4.6721e-09
-1.25869e-06
-1.08702e-08
-1.25948e-06
-2.11265e-08
-1.24734e-06
-7.78987e-08
-5.29871e-07
-1.36687e-07
-3.95456e-07
-4.0652e-07
-1.52053e-07
4.15283e-08
-8.31103e-08
-1.21694e-07
1.06325e-08
-1.38002e-07
2.50827e-08
-4.82171e-07
1.47619e-08
-1.24168e-06
2.20673e-10
-1.24415e-06
-1.6058e-08
-1.24321e-06
-2.45957e-08
-1.23881e-06
-2.8094e-08
-5.26372e-07
-5.39698e-08
-3.69581e-07
-3.60602e-07
-9.9887e-08
3.96899e-08
-2.25183e-08
-1.00282e-07
1.20219e-08
-1.10324e-07
2.89332e-08
-4.99076e-07
1.90456e-08
-1.23179e-06
2.49459e-09
-1.2276e-06
-1.3183e-08
-1.22753e-06
-2.25033e-08
-1.22949e-06
-1.87498e-08
-5.30124e-07
-3.50513e-08
-3.5328e-07
-3.32729e-07
-6.29239e-08
5.62534e-08
2.11796e-08
-9.99529e-08
2.23362e-08
-7.64323e-08
3.1071e-08
-5.0782e-07
1.85873e-08
-1.21931e-06
3.49545e-09
-1.21251e-06
-1.04787e-08
-1.21355e-06
-2.28126e-08
-1.21715e-06
-4.0678e-08
-5.12257e-07
-6.87745e-08
-3.25186e-07
-2.99345e-07
-1.0216e-07
8.55581e-08
5.20434e-08
-1.16423e-07
4.9624e-08
-4.04952e-08
3.29207e-08
-4.91116e-07
1.74938e-08
-1.20388e-06
1.18281e-09
-1.1962e-06
-1.6028e-08
-1.19634e-06
-2.87653e-08
-1.20441e-06
-5.90727e-08
-4.81949e-07
-1.28483e-07
-2.55777e-07
-2.29498e-07
-1.98331e-07
6.84207e-08
7.5621e-08
-9.20009e-08
2.45837e-08
3.3449e-09
2.85971e-08
-4.95135e-07
1.51095e-08
-1.1904e-06
4.56562e-10
-1.18154e-06
-1.43597e-08
-1.18153e-06
-2.76021e-08
-1.19117e-06
-3.40096e-08
-4.75543e-07
-1.39719e-07
-1.50067e-07
-1.45773e-07
-2.23444e-07
7.26083e-08
1.05154e-07
-1.02142e-07
2.75985e-08
4.83654e-08
3.36916e-08
-5.01229e-07
1.85884e-08
-1.1753e-06
1.56081e-09
-1.16452e-06
-1.55027e-08
-1.16446e-06
-3.12074e-08
-1.17547e-06
-1.48137e-08
-4.91938e-07
-1.32812e-07
-3.20698e-08
-4.44002e-08
-2.34187e-07
7.24932e-08
1.5487e-07
-1.22209e-07
2.24674e-08
9.8392e-08
3.36141e-08
-5.12372e-07
1.91308e-08
-1.16081e-06
2.69226e-09
-1.14808e-06
-1.35485e-08
-1.14822e-06
-2.87428e-08
-1.16027e-06
4.96597e-09
-5.25648e-07
-7.88951e-08
5.17888e-08
4.99254e-08
-1.73221e-07
6.86144e-08
2.08756e-07
-1.22502e-07
2.39844e-08
1.43005e-07
3.40122e-08
-5.22402e-07
1.91567e-08
-1.14595e-06
2.43608e-09
-1.13136e-06
-1.4343e-08
-1.13144e-06
-2.75069e-08
-1.14711e-06
2.19484e-08
-5.75105e-07
-1.51192e-08
8.88538e-08
8.44536e-08
-4.96481e-08
3.61366e-08
2.41776e-07
-6.91558e-08
2.04261e-08
1.58715e-07
3.56877e-08
-5.37666e-07
2.01416e-08
-1.13041e-06
3.02103e-09
-1.11424e-06
-1.40442e-08
-1.11438e-06
-2.86321e-08
-1.13252e-06
4.46497e-09
-6.08204e-07
-7.0715e-08
1.64032e-07
8.1106e-08
-6.73689e-08
4.60606e-08
2.90849e-07
-9.51329e-08
2.55307e-08
1.79254e-07
3.69898e-08
-5.49123e-07
2.04155e-08
-1.11384e-06
2.70451e-09
-1.09652e-06
-1.47165e-08
-1.09696e-06
-3.16847e-08
-1.11555e-06
5.43672e-09
-6.45326e-07
-7.34929e-08
2.4296e-07
1.21262e-07
-1.1365e-07
3.4191e-08
3.70896e-07
-1.14239e-07
2.79531e-08
1.85493e-07
3.57591e-08
-5.56927e-07
1.94462e-08
-1.09752e-06
2.15162e-09
-1.07923e-06
-1.51535e-08
-1.07965e-06
-3.19091e-08
-1.0988e-06
-5.46113e-09
-6.71775e-07
7.72789e-08
1.60219e-07
1.85704e-07
1.28367e-08
-2.31484e-08
4.33737e-07
-3.96926e-08
2.51908e-08
1.37152e-07
3.62032e-08
-5.6794e-07
1.93731e-08
-1.08069e-06
2.06449e-09
-1.06192e-06
-1.53729e-08
-1.06221e-06
-3.05166e-08
-1.08365e-06
-2.92196e-10
-7.02e-07
1.73434e-07
-1.35067e-08
1.93161e-07
1.65977e-07
-1.05203e-08
4.35023e-07
9.23675e-09
1.38817e-08
1.12752e-07
3.70032e-08
-5.9106e-07
2.00892e-08
-1.06378e-06
1.84423e-09
-1.04368e-06
-1.60928e-08
-1.04428e-06
-3.32485e-08
-1.0665e-06
-1.35124e-08
-7.21737e-07
8.18487e-08
-1.08866e-07
1.78427e-07
9.65827e-08
4.50445e-08
3.86113e-07
3.86618e-09
2.68389e-08
1.30963e-07
3.74011e-08
-6.01621e-07
1.97779e-08
-1.04615e-06
1.93531e-09
-1.02583e-06
-1.605e-08
-1.02629e-06
-3.44046e-08
-1.04814e-06
-3.28114e-08
-7.2333e-07
-3.72684e-08
-1.0441e-07
1.59141e-07
-1.79831e-08
7.96666e-08
3.4738e-07
-4.09327e-08
3.41163e-08
1.76516e-07
3.93356e-08
-6.0684e-07
2.04815e-08
-1.0273e-06
1.62305e-09
-1.00698e-06
-1.67134e-08
-1.00796e-06
-3.59529e-08
-1.0289e-06
-7.36669e-08
-6.85615e-07
-1.07071e-07
-7.10071e-08
1.05225e-07
-5.31547e-08
1.27725e-07
2.95322e-07
-7.56651e-08
6.32117e-08
2.41031e-07
4.03757e-08
-5.84003e-07
2.12224e-08
-1.00815e-06
1.84604e-09
-9.87599e-07
-1.73067e-08
-9.88803e-07
-3.56699e-08
-1.01054e-06
-5.39782e-08
-6.67307e-07
-8.53086e-08
-3.96768e-08
4.981e-08
-2.98933e-08
8.24451e-08
2.72633e-07
-5.97559e-08
2.18065e-08
3.01668e-07
4.04035e-08
-6.02603e-07
2.15304e-08
-9.89274e-07
1.78915e-09
-9.67858e-07
-1.75667e-08
-9.69447e-07
-3.672e-08
-9.91387e-07
-3.6578e-08
-6.67449e-07
-4.02318e-08
-3.60221e-08
2.95901e-08
-2.00109e-08
-1.71115e-08
2.82741e-07
7.00389e-09
1.65806e-08
2.67978e-07
4.04403e-08
-6.2646e-07
2.15599e-08
-9.70393e-07
1.24096e-09
-9.47539e-07
-1.87417e-08
-9.49465e-07
-3.70173e-08
-9.73112e-07
-1.32733e-08
-6.91192e-07
1.83648e-08
-6.76592e-08
2.37398e-08
2.42156e-08
-9.24575e-08
3.01475e-07
7.3722e-08
1.36401e-08
1.61878e-07
4.09377e-08
-6.5376e-07
2.12537e-08
-9.50709e-07
6.3561e-10
-9.26921e-07
-2.06168e-08
-9.28212e-07
-4.05244e-08
-9.53204e-07
-3.5789e-08
-6.95927e-07
-4.63475e-08
-5.70996e-08
6.9635e-08
-9.22427e-08
-4.98148e-08
2.87561e-07
6.37309e-08
3.40282e-08
7.80412e-08
4.14606e-08
-6.61191e-07
2.12339e-08
-9.30483e-07
-3.49312e-10
-9.05338e-07
-2.18821e-08
-9.06679e-07
-4.24585e-08
-9.32628e-07
-4.14375e-08
-6.96948e-07
-1.40679e-08
-8.44683e-08
1.01347e-07
-4.57794e-08
1.35802e-08
2.63017e-07
1.09637e-08
3.923e-08
5.2389e-08
4.18238e-08
-6.63785e-07
2.07419e-08
-9.09401e-07
-1.4439e-10
-8.84451e-07
-2.10407e-08
-8.85783e-07
-4.21255e-08
-9.11543e-07
-2.56328e-08
-7.1344e-07
6.73952e-08
-1.77496e-07
4.73524e-08
1.2139e-07
5.2123e-08
2.52439e-07
-4.15451e-08
5.12953e-08
5.32123e-08
4.38589e-08
-6.56349e-07
2.21948e-08
-8.87736e-07
-2.30707e-10
-8.62026e-07
-2.2681e-08
-8.63333e-07
-4.41316e-08
-8.90092e-07
-3.92007e-08
-7.18371e-07
2.71445e-08
-2.43842e-07
-5.11094e-08
1.25606e-07
5.54204e-08
2.44355e-07
-4.7337e-08
5.20854e-08
5.65485e-08
4.33107e-08
-6.47574e-07
2.09397e-08
-8.65366e-07
1.51551e-10
-8.41238e-07
-2.12182e-08
-8.41963e-07
-4.38344e-08
-8.67476e-07
-5.05734e-08
-7.11632e-07
-3.05e-08
-2.63916e-07
-1.18739e-07
3.71289e-08
5.67478e-08
2.35131e-07
-4.75238e-08
5.42168e-08
5.90812e-08
4.60323e-08
-6.39389e-07
2.3168e-08
-8.42501e-07
5.08643e-10
-8.18578e-07
-2.2876e-08
-8.18579e-07
-4.63455e-08
-8.44006e-07
-6.34934e-08
-6.94485e-07
-6.26476e-08
-2.64763e-07
-1.39035e-07
-4.23522e-08
5.94571e-08
2.25844e-07
-5.017e-08
5.59717e-08
6.25623e-08
4.61434e-08
-6.29563e-07
2.28208e-08
-8.1918e-07
8.68494e-10
-7.96626e-07
-2.20628e-08
-7.95647e-07
-4.59748e-08
-8.20094e-07
-6.49123e-08
-6.75548e-07
-6.52415e-08
-2.64434e-07
-1.47376e-07
-5.69009e-08
6.52488e-08
2.22451e-07
-6.18568e-08
5.96297e-08
6.81807e-08
4.94862e-08
-6.1942e-07
2.54453e-08
-7.9514e-07
5.74075e-10
-7.71755e-07
-2.4561e-08
-7.70512e-07
-4.91939e-08
-7.95462e-07
-6.64094e-08
-6.58333e-07
-6.19775e-08
-2.68866e-07
-1.56659e-07
-5.26944e-08
7.04256e-08
2.31591e-07
-7.95669e-08
6.10299e-08
7.75782e-08
4.96315e-08
-6.0802e-07
2.49259e-08
-7.70433e-07
3.0751e-10
-7.47136e-07
-2.42475e-08
-7.45957e-07
-4.97779e-08
-7.69931e-07
-7.37141e-08
-6.34396e-07
-7.97114e-08
-2.62869e-07
-1.90307e-07
-4.60628e-08
7.03289e-08
2.49733e-07
-8.84706e-08
6.54487e-08
8.24585e-08
5.34655e-08
-5.96038e-07
2.70401e-08
-7.44007e-07
6.14445e-10
-7.20711e-07
-2.62607e-08
-7.19082e-07
-5.32212e-08
-7.42971e-07
-6.98828e-08
-6.17734e-07
-7.21228e-08
-2.60629e-07
-2.22485e-07
-3.99447e-08
5.83032e-08
2.56573e-07
-6.51416e-08
6.51944e-08
7.55683e-08
5.4152e-08
-5.84995e-07
2.62518e-08
-7.16107e-07
1.48043e-09
-6.95939e-07
-2.48969e-08
-6.92705e-07
-5.39276e-08
-7.1394e-07
-6.5888e-08
-6.05774e-07
-5.06313e-08
-2.75886e-07
-2.36637e-07
-3.64792e-08
5.17115e-08
2.39571e-07
-3.47093e-08
6.95426e-08
5.77359e-08
5.73255e-08
-5.72777e-07
2.81265e-08
-6.86907e-07
4.35422e-10
-6.68248e-07
-2.64617e-08
-6.65808e-07
-5.71011e-08
-6.83301e-07
-6.96663e-08
-5.93209e-07
-4.96223e-08
-2.95929e-07
-2.3575e-07
-5.05087e-08
6.25167e-08
2.00608e-07
-2.35538e-08
7.66097e-08
4.36428e-08
5.39694e-08
-5.50138e-07
2.42619e-08
-6.57201e-07
-6.10633e-09
-6.3788e-07
-2.44153e-08
-6.47499e-07
-5.29596e-08
-6.54756e-07
-8.43681e-08
-5.618e-07
-8.25496e-08
-2.97748e-07
-2.32282e-07
-8.60174e-08
5.867e-08
1.63401e-07
-2.14632e-08
7.19958e-08
3.03206e-08
4.37009e-08
-5.21843e-07
1.3536e-08
-6.27036e-07
-3.08766e-10
-6.24035e-07
-3.22094e-08
-6.15598e-07
-5.83221e-08
-6.28643e-07
-8.55897e-08
-5.34533e-07
-8.81974e-08
-2.9514e-07
-2.26581e-07
-9.38987e-08
4.15792e-08
1.29999e-07
-8.17774e-09
9.17222e-08
-1.98247e-08
9.20138e-08
-5.22136e-07
6.48215e-08
-5.99843e-07
3.22735e-08
-5.91487e-07
3.05513e-09
-5.8638e-07
-2.83629e-08
-5.97225e-07
-4.48512e-08
-5.18044e-07
-5.8904e-08
-2.81087e-07
-2.02743e-07
-8.27426e-08
-2.56078e-08
1.4171e-07
1.38969e-08
1.54519e-08
-6.08867e-08
5.36068e-08
-5.60292e-07
1.65308e-08
-5.62767e-07
-2.77943e-08
-5.47162e-07
-4.17497e-08
-5.72424e-07
-7.45302e-08
-5.64445e-07
-6.85208e-08
-5.24054e-07
-6.36814e-08
-2.85927e-07
-1.72446e-07
-9.39784e-08
3.67021e-08
1.36138e-07
-3.11306e-08
7.61899e-08
-1.00369e-07
3.41535e-08
-5.18255e-07
-9.33643e-09
-5.19277e-07
-3.59518e-08
-5.20547e-07
-8.52827e-08
-5.23093e-07
-1.13477e-07
-5.3625e-07
-8.95666e-08
-5.47964e-07
-1.105e-07
-2.64994e-07
-1.5313e-07
-1.29816e-07
4.6918e-08
1.44991e-07
-5.57695e-08
9.85145e-08
-1.51962e-07
6.76559e-08
-4.87395e-07
3.46799e-08
-4.86301e-07
6.19758e-09
-4.92065e-07
-2.88824e-08
-4.88013e-07
-7.47303e-08
-4.90402e-07
-1.38014e-07
-4.84681e-07
-1.43388e-07
-2.5962e-07
-1.32329e-07
-1.6419e-07
9.53568e-08
1.34338e-07
-8.47026e-08
1.17226e-07
-1.7383e-07
6.60854e-08
-4.36256e-07
2.56942e-08
-4.4591e-07
-1.45245e-08
-4.51846e-07
-5.31812e-08
-4.49357e-07
-8.93032e-08
-4.5428e-07
-1.3507e-07
-4.38914e-07
-1.52583e-07
-2.42107e-07
-1.11905e-07
-1.73007e-07
1.31857e-07
9.49922e-08
-9.25095e-08
1.63756e-07
-2.05726e-07
1.15661e-07
-3.88161e-07
7.52491e-08
-4.05499e-07
3.42262e-08
-4.10823e-07
-5.22389e-09
-4.09906e-07
-5.78482e-08
-4.01656e-07
-1.06855e-07
-3.89907e-07
-1.09042e-07
-2.3992e-07
-9.16379e-08
-1.2931e-07
5.75511e-08
3.55053e-08
1.93435e-09
1.22202e-07
-2.70378e-07
7.79789e-08
-3.43937e-07
3.41238e-08
-3.61643e-07
-9.57547e-09
-3.67124e-07
-5.64015e-08
-3.6308e-07
-1.03143e-07
-3.54914e-07
-1.46999e-07
-3.46052e-07
-8.21245e-08
-3.04794e-07
-8.7679e-08
-8.60834e-08
1.36839e-07
-5.47535e-08
-4.65805e-08
1.48699e-07
-2.82237e-07
1.03383e-07
-2.9862e-07
5.02685e-08
-3.08529e-07
-3.44466e-09