/*--------------------------------*- C++ -*----------------------------------*\
  =========                 |
  \\      /  F ield         | OpenFOAM: The Open Source CFD Toolbox
   \\    /   O peration     | Website:  https://openfoam.org
    \\  /    A nd           | Version:  8
     \\/     M anipulation  |
\*---------------------------------------------------------------------------*/
FoamFile
{
    version     2.0;
    format      ascii;
    class       volScalarField;
    location    "5.3";
    object      alpha.water;
}
// * * * * * * * * * * * * * * * * * * * * * * * * * * * * * * * * * * * * * //

dimensions      [0 0 0 0 0 0 0];

internalField   nonuniform List<scalar> 
9150
(
1
1
1
1
1
1
1
1
1
1
1
1
1
1
1
1
1
1
1
1
1
1
1
1
1
1
1
1
1
1
1
1
1
1
1
1
1
1
1
1
1
1
1
1
1
1
1
1
1
1
1
1
1
1
1
1
1
1
1
1
1
1
1
1
1
1
1
1
1
1
1
1
1
1
1
1
1
1
1
1
1
1
1
1
1
1
1
1
1
1
1
1
1
1
1
1
1
1
1
1
1
1
1
1
1
1
1
1
1
1
1
1
1
1
1
1
1
1
1
1
1
1
1
1
1
1
1
1
1
1
1
1
1
1
1
1
1
1
1
1
1
1
1
1
1
1
1
1
1
1
0.993707
0.993707
0.993707
0.993707
0.993707
0.993703
0.991523
0.980781
0.98962
0.993189
0.99024
0.993707
0.993707
0.993707
0.993703
0.987721
0.950272
0.975356
0.993188
0.993189
0.963552
0.993707
0.993706
0.993702
0.993653
0.978824
0.932985
0.966976
0.993167
0.993028
0.993698
0.993706
0.993702
0.993651
0.960974
0.932985
0.932985
0.932985
0.932993
0.933097
0.993689
0.993698
0.993681
0.989805
0.936584
0.932985
0.932985
0.932993
0.933019
0.933223
0.993688
0.993689
0.993688
0.993676
0.993649
0.990181
0.943366
0.933019
0.962829
0.985062
0.993688
0.993445
0.988971
0.990018
0.993624
0.993612
0.993613
0.993518
0.952182
0.860511
0.976483
0.983954
0.977455
0.976244
0.977812
0.993614
0.993612
0.993597
0.976849
0.831054
0.994334
0.994322
0.994312
0.978096
0.99361
0.993612
0.992502
0.96735
0.795078
0.685504
0.994344
0.994334
0.981126
0.862698
0.901092
0.99361
0.941639
0.715377
0.644779
0.644775
0.994352
0.994344
0.945485
0.815786
0.815014
0.8721
0.787939
0.644779
0.644775
0.644779
0.994353
0.994352
0.994342
0.913701
0.814404
0.813798
0.814847
0.688539
0.644779
0.706728
0.994353
0.994353
0.994352
0.994342
0.99185
0.991513
0.989143
0.987131
0.990768
0.991948
0.994353
0.994295
0.993151
0.98718
0.97671
0.966854
0.974757
0.99158
0.991806
0.991951
0.994351
0.99435
0.816546
0.6904
0.884164
0.96669
0.950668
0.9471
0.949781
0.960585
0.994348
0.994337
0.9388
0.685214
0.675334
0.675334
0.675334
0.67922
0.902086
0.947373
0.993276
0.994294
0.994346
0.993911
0.994307
0.92955
0.678613
0.677887
0.678003
0.68466
0.994345
0.994346
0.994346
0.994346
0.994346
0.994346
0.981784
0.710275
0.678386
0.679314
0.994345
0.994346
0.994346
0.994346
0.994346
0.994346
0.994346
0.994321
0.7365
0.679412
0.994317
0.994336
0.994278
0.994337
0.994346
0.994346
0.994346
0.994346
0.954163
0.681585
0.949353
0.956663
0.975917
0.992563
0.994346
0.994346
0.994346
0.994346
0.973085
0.819679
0.756683
0.772455
0.967358
0.994274
0.994323
0.994346
0.994346
0.994296
0.989339
0.983153
0.992221
0.992318
0.991517
0.972203
0.943328
0.918789
0.876338
0.850537
0.862462
0.866332
0.992318
0.989275
0.827595
0.71617
0.715099
0.718181
0.69354
0.680196
0.602412
0.718279
0.978572
0.779237
0.711586
0.713931
0.848057
0.914471
0.88407
0.62236
0.513827
0.508323
0.737719
0.643171
0.750507
0.921243
0.921312
0.920221
0.848902
0.517763
0.642287
0.83757
0.671372
0.637055
0.921243
0.921338
0.921243
0.919361
0.655185
0.446238
0.83752
0.840351
0.752803
0.618955
0.920984
0.921243
0.92086
0.843661
0.477286
0.416486
0.757852
0.83752
0.766887
0.576926
0.846909
0.92086
0.917811
0.596227
0.416486
0.416474
0.421267
0.501134
0.92021
0.648914
0.520584
0.851611
0.903103
0.549696
0.416474
0.416486
0.417016
0.419298
0.802983
0.523634
0.518304
0.519577
0.770478
0.564931
0.416865
0.417016
0.419757
0.641993
0.568676
0.518008
0.517972
0.518304
0.6899
0.473121
0.422662
0.480299
0.780617
0.811631
0.520673
0.517962
0.527302
0.732885
0.75195
0.766116
0.794048
0.898283
0.883767
0.801103
0.777955
0.544858
0.846268
0.935015
0.931329
0.931864
0.931277
0.911928
0.739457
0.567915
0.962021
0.960335
0.955476
0.944384
0.936676
0.931277
0.838567
0.586139
0.550486
0.555551
0.968226
0.926769
0.825305
0.802584
0.869849
0.756035
0.541727
0.543145
0.544165
0.728159
0.968189
0.712401
0.546993
0.5442
0.541814
0.541727
0.541727
0.541695
0.642472
0.965962
0.960725
0.700821
0.550021
0.543215
0.542017
0.541803
0.541709
0.541803
0.940412
0.962458
0.947787
0.942795
0.866623
0.644401
0.543215
0.542017
0.541803
0.769029
0.975778
0.936729
0.899098
0.948958
0.985811
0.991471
0.710293
0.543356
0.543612
0.940424
0.976753
0.936028
0.898923
0.90385
0.985085
0.992646
0.978328
0.564126
0.758643
0.976968
0.977542
0.954373
0.97097
0.95984
0.989908
0.993032
0.991344
0.730967
0.904437
0.977542
0.977918
0.977942
0.992899
0.993014
0.993032
0.993027
0.962527
0.790173
0.917209
0.977154
0.977866
0.977943
0.992579
0.992965
0.993027
0.99303
0.968478
0.785118
0.767578
0.905472
0.977567
0.977921
0.992132
0.99282
0.993023
0.993075
0.99307
0.800937
0.764213
0.776712
0.954338
0.977927
0.986126
0.986093
0.990267
0.993128
0.993122
0.827482
0.760866
0.761081
0.828507
0.97537
0.993087
0.993057
0.993128
0.993128
0.993128
0.83699
0.761081
0.760847
0.775383
0.961547
0.993077
0.993104
0.993127
0.993128
0.993122
0.930225
0.767803
0.761081
0.858827
0.97624
0.993056
0.993062
0.99309
0.993046
0.991103
0.975349
0.959405
0.953011
0.867695
0.824921
0.992697
0.988603
0.98514
0.939696
0.833729
0.810147
0.904684
0.948821
0.704061
0.530858
0.843254
0.784189
0.78726
0.649283
0.600722
0.59589
0.594819
0.567795
0.454811
0.490371
0.622656
0.640216
0.659295
0.76096
0.748324
0.693269
0.53559
0.436971
0.446918
0.68317
0.925938
0.912322
0.934098
0.942195
0.942053
0.734349
0.508699
0.434053
0.342929
0.333236
0.940742
0.943485
0.943485
0.945793
0.896259
0.319667
0.0833374
0.0433674
0.0433273
0.0434089
0.829063
0.942392
0.945793
0.948101
0.85374
0.255432
0.0433674
0.0433273
0.0433058
0.0432876
0.319748
0.762726
0.948101
0.950971
0.954856
0.86367
0.186554
0.0433058
0.0432876
0.0432876
0.29155
0.350049
0.860304
0.954856
0.955731
0.956539
0.663852
0.0436763
0.0433058
0.0432876
0.290526
0.326097
0.494938
0.921099
0.956889
0.959238
0.922092
0.270925
0.0436764
0.0434546
0.492411
0.629045
0.344398
0.541463
0.959238
0.963139
0.968286
0.733771
0.101238
0.0449285
0.629571
0.632196
0.32725
0.395617
0.956415
0.955638
0.969549
0.969342
0.672608
0.156417
0.632114
0.631949
0.316302
0.309895
0.858541
0.852143
0.96956
0.969558
0.969411
0.967977
0.494404
0.609606
0.223642
0.219139
0.836923
0.807162
0.969558
0.969566
0.969558
0.969411
0.0039937
0.0874479
0.159667
0.149763
0.830812
0.733283
0.755236
0.829704
0.661421
0.908261
0.00154477
0.052676
0.150496
0.0852906
0.830782
0.798185
0.143693
0.243853
0.514084
0.713421
0.000869989
0.0308397
0.0526519
0.0660949
0.830174
0.818703
0.0772948
0.0336705
0.0827386
0.54365
0.000261783
0.000265773
0.0158081
0.0666216
0.830174
0.827838
0.0676761
0.0282888
0.0227238
0.0691369
0.00041219
0.00215206
0.0236958
0.0565138
0.829777
0.829073
0.0587099
0.0563372
0.0200782
0.011844
0.000953469
0.00613536
0.00617961
0.0628202
0.842068
0.841478
0.0639152
0.0108561
0.0245347
0.0104655
4.89474e-05
2.35419e-06
2.35419e-06
0.0696954
0.850817
0.849447
0.0704827
0.0066326
0.024582
0.011207
7.23608e-05
8.00221e-05
2.34935e-06
0.0784741
0.859316
0.858583
0.0781497
2.37764e-05
0.00474278
0.002707
6.37808e-05
0.00013113
2.37942e-06
0.0869066
0.866635
0.866701
0.0867809
2.3775e-05
0.000334717
0.00125901
1.06114e-05
0.000131618
2.59628e-06
0.0948461
0.87353
0.874257
0.0962953
2.37764e-05
0.00113193
0.000670087
2.53019e-05
0.00013113
3.48177e-06
0.104116
0.881549
0.881324
0.104487
2.36243e-05
0.00132324
0.000482775
9.288e-05
0.000129473
4.93757e-06
0.114824
0.889536
0.88748
0.112809
2.30442e-05
0.00132028
0.000870059
0.000116843
9.85575e-05
4.21192e-06
0.124641
0.896342
0.896975
0.12517
2.26246e-05
0.000932333
0.000668957
0.000118885
7.56308e-05
3.40114e-06
0.133332
0.902576
0.904359
0.136584
2.25889e-05
4.09594e-05
2.83037e-05
0.000119144
7.02545e-05
2.77823e-06
0.149132
0.912966
0.911156
0.147375
2.24531e-05
2.17641e-05
2.12712e-05
0.000119144
5.75829e-05
2.36137e-06
0.162101
0.920331
0.918132
0.158327
2.2589e-05
6.13551e-05
2.126e-05
0.000119144
2.73984e-05
2.19986e-06
0.175151
0.927064
0.929529
0.178645
2.31685e-05
0.000309299
2.12599e-05
8.33892e-05
2.20284e-06
2.20284e-06
0.190304
0.934527
0.937199
0.195905
1.99559e-05
0.000410768
2.126e-05
5.10167e-05
2.20284e-06
2.19985e-06
0.214722
0.945043
0.944043
0.214438
1.58911e-05
0.000408071
0.000591364
0.00020197
2.23174e-06
2.20284e-06
0.240462
0.953814
0.950539
0.234217
1.42028e-05
0.000308125
0.000592442
0.000692847
3.19775e-06
2.11549e-06
0.268964
0.961748
0.959713
0.264269
1.3674e-05
7.96759e-05
0.000517754
0.000928767
2.31124e-05
1.97214e-06
0.297919
0.968582
0.967943
0.297818
1.36823e-05
1.36744e-05
1.36833e-05
0.000388147
3.35087e-06
1.97095e-06
0.333903
0.975746
0.97498
0.334511
1.36745e-05
1.36833e-05
5.78732e-05
4.4508e-05
1.97095e-06
1.97196e-06
0.376633
0.981909
0.980756
0.375621
1.37696e-05
4.36721e-05
0.00047325
2.0115e-06
1.99103e-06
1.97196e-06
0.424314
0.986288
0.985609
0.424586
1.44907e-05
0.000181484
0.00053464
2.54746e-06
5.34737e-06
2.03025e-06
0.47985
0.989439
0.98933
0.485553
1.65107e-05
0.000133947
0.000534634
0.000633573
0.000108436
2.57888e-06
0.543424
0.992633
0.991705
0.549633
1.20118e-05
2.30923e-05
0.000371236
0.000587704
0.000163848
5.77309e-06
0.612427
0.994876
0.993766
0.611023
5.04921e-06
4.07872e-06
7.25573e-05
1.74833e-07
4.52696e-07
7.53222e-07
0.681068
0.996474
0.995227
0.681807
4.07862e-06
3.98351e-06
8.41674e-06
1.57702e-05
1.035e-06
1.21341e-06
0.748718
0.9978
0.996497
0.748226
3.98341e-06
3.94984e-06
3.797e-06
3.0402e-05
1.16794e-06
0.0216504
0.811358
0.998426
0.99836
0.81071
0.0318779
3.89139e-06
3.83764e-06
2.26717e-06
8.11006e-07
0.0773843
0.861002
0.998679
0.999526
0.902694
0.131278
3.94074e-06
4.02781e-06
2.92889e-07
3.03773e-07
0.156275
0.916619
0.99961
0.999718
0.963044
0.272294
4.24784e-06
4.16647e-06
3.03111e-07
3.21552e-07
0.324909
0.978316
0.999776
0.999941
0.990366
0.468059
3.95386e-06
3.91306e-06
2.01192e-07
1.32806e-06
0.56392
0.999122
0.999975
0.999947
0.999941
0.735063
3.99118e-06
3.95386e-06
3.5496e-08
0.0572173
0.874865
0.999975
0.999994
0.999999
0.999959
0.875712
0.129196
2.28812e-06
8.21259e-09
0.519886
0.997501
0.999993
1
1
0.999998
0.999875
0.629785
3.15609e-07
0.298071
0.958818
1
1
1
1
1
1
0.975076
0.350804
0.993189
0.993187
0.993173
0.993188
0.993188
0.993188
0.993188
0.993188
0.99318
0.993173
0.993172
0.993172
0.981411
0.981318
0.987086
0.993088
0.993088
0.993088
0.993088
0.981405
0.970208
0.975232
0.98095
0.980528
0.8964
0.860463
0.878995
0.991861
0.991861
0.991861
0.991861
0.991861
0.991863
0.978565
0.915857
0.915576
0.915619
0.938637
0.942844
0.942848
0.993189
0.993189
0.993188
0.993188
0.993188
0.993188
0.993188
0.989498
0.989081
0.988124
0.983937
0.988836
0.992283
0.987386
0.989049
0.993088
0.993088
0.993088
0.993089
0.993089
0.99303
0.98718
0.867086
0.820482
0.822743
0.902397
0.964431
0.991861
0.991861
0.991861
0.991861
0.991863
0.991865
0.991867
0.991868
0.97617
0.915719
0.895013
0.89504
0.895451
0.992111
0.993188
0.993188
0.993188
0.993187
0.993188
0.991963
0.98668
0.986606
0.986567
0.983872
0.983849
0.993059
0.993078
0.993088
0.993088
0.993089
0.993089
0.993088
0.993086
0.988069
0.862667
0.816451
0.817254
0.912876
0.99052
0.990819
0.991022
0.986298
0.974861
0.984216
0.991712
0.991867
0.991868
0.991868
0.991868
0.991866
0.971487
0.915802
0.894248
0.975316
0.993185
0.993181
0.986654
0.983703
0.99202
0.992941
0.992942
0.992945
0.992944
0.987871
0.982513
0.985455
0.993088
0.993088
0.993089
0.993089
0.988743
0.986255
0.992942
0.935201
0.816451
0.8164
0.816427
0.851124
0.989805
0.986591
0.962117
0.946457
0.946258
0.946665
0.958043
0.98925
0.991868
0.991868
0.991868
0.991825
0.912197
0.865438
0.854509
0.938514
0.976176
0.98385
0.950778
0.950785
0.958772
0.988008
0.992942
0.992942
0.992945
0.992921
0.98295
0.980232
0.980248
0.982588
0.987026
0.993064
0.990725
0.977248
0.98059
0.963688
0.83119
0.816427
0.816405
0.816427
0.822895
0.816531
0.816531
0.856354
0.958367
0.962595
0.955992
0.956005
0.989991
0.991868
0.991867
0.990557
0.897034
0.853414
0.853414
0.986194
0.987313
0.987844
0.953475
0.95077
0.95077
0.955765
0.992868
0.983618
0.98634
0.990604
0.988547
0.988004
0.984258
0.979945
0.979945
0.992632
0.993081
0.989073
0.955866
0.955864
0.937202
0.861069
0.836348
0.81653
0.816533
0.816527
0.816533
0.816545
0.944467
0.992848
0.986733
0.955992
0.98677
0.991867
0.991852
0.99183
0.981754
0.875401
0.853414
0.914496
0.955879
0.992048
0.992488
0.977871
0.957725
0.922664
0.870689
0.781177
0.786899
0.88114
0.960961
0.987909
0.992579
0.988102
0.989941
0.993058
0.993082
0.993081
0.984085
0.94914
0.93904
0.946258
0.961896
0.948479
0.946491
0.841885
0.816545
0.872846
0.990334
0.992912
0.992913
0.983016
0.988229
0.990828
0.99183
0.99173
0.991637
0.991637
0.869915
0.644781
0.68758
0.928908
0.99249
0.992488
0.992432
0.861488
0.708212
0.70821
0.708212
0.708265
0.77362
0.993066
0.993081
0.993081
0.993082
0.993082
0.993082
0.993082
0.993081
0.982559
0.946383
0.944526
0.981178
0.992522
0.992526
0.985549
0.981396
0.988593
0.992911
0.992913
0.992913
0.992537
0.992346
0.981659
0.959761
0.990747
0.991638
0.991619
0.986186
0.644776
0.644781
0.770932
0.992492
0.99249
0.991931
0.817805
0.70821
0.70821
0.70821
0.708213
0.708258
0.768451
0.993081
0.993081
0.993082
0.993082
0.993082
0.993082
0.993082
0.993078
0.987586
0.986246
0.992522
0.992526
0.992522
0.985777
0.988485
0.992906
0.992913
0.992913
0.992913
0.992913
0.992912
0.992912
0.930789
0.895418
0.983609
0.991616
0.991616
0.644781
0.644781
0.819353
0.992493
0.992492
0.992428
0.879541
0.708211
0.70821
0.708211
0.708229
0.708508
0.842432
0.993081
0.993081
0.993081
0.979574
0.947748
0.961809
0.981172
0.979843
0.973002
0.970029
0.957203
0.934859
0.916593
0.913422
0.916582
0.975656
0.992906
0.992913
0.992913
0.992912
0.992912
0.992902
0.97698
0.84719
0.859582
0.988643
0.991616
0.644779
0.691997
0.985378
0.992493
0.992493
0.992469
0.964718
0.723786
0.708211
0.708216
0.708277
0.708995
0.897398
0.993068
0.993055
0.992852
0.940655
0.87317
0.872939
0.872618
0.872173
0.871761
0.871761
0.871761
0.872158
0.904133
0.951144
0.945171
0.927096
0.94003
0.980473
0.98768
0.981273
0.990682
0.992901
0.992849
0.896318
0.759813
0.939841
0.981029
0.824446
0.951336
0.992493
0.992493
0.992493
0.992485
0.992343
0.897253
0.708216
0.708238
0.708267
0.708542
0.891585
0.993043
0.993028
0.99294
0.967012
0.927458
0.972321
0.973843
0.973823
0.971293
0.926446
0.938738
0.981571
0.981571
0.981571
0.973329
0.882944
0.83994
0.875702
0.885285
0.912577
0.984922
0.992849
0.95294
0.761809
0.759696
0.845913
0.933176
0.991952
0.991542
0.991075
0.992493
0.992485
0.99239
0.992256
0.928143
0.868926
0.871766
0.762054
0.713147
0.830006
0.993028
0.99303
0.993023
0.992477
0.956651
0.907176
0.935059
0.973823
0.973628
0.973127
0.966616
0.960987
0.981571
0.981373
0.901978
0.840646
0.839776
0.855689
0.947452
0.969806
0.98202
0.98608
0.933731
0.760101
0.759813
0.800011
0.8097
0.991948
0.965712
0.937489
0.990218
0.983528
0.992256
0.990098
0.919421
0.873808
0.92492
0.927912
0.899484
0.881586
0.99184
0.993023
0.993001
0.98277
0.923216
0.907235
0.907171
0.907349
0.908138
0.951425
0.867375
0.77178
0.895301
0.942421
0.952667
0.9314
0.905443
0.988103
0.988103
0.988103
0.988102
0.988042
0.985815
0.981927
0.830149
0.625085
0.624992
0.988318
0.993332
0.941123
0.887684
0.887724
0.957803
0.990416
0.991368
0.991428
0.942089
0.912988
0.961142
0.988095
0.989247
0.979482
0.929739
0.914724
0.914714
0.915454
0.947126
0.962886
0.959275
0.936252
0.869008
0.771686
0.771686
0.771686
0.944521
0.98803
0.988038
0.988103
0.988104
0.988103
0.986761
0.931793
0.811502
0.717471
0.624995
0.624956
0.624953
0.969122
0.993449
0.993453
0.916248
0.887767
0.888163
0.936108
0.991428
0.991428
0.991428
0.985816
0.934021
0.964539
0.990913
0.990993
0.97423
0.920101
0.924314
0.978492
0.991371
0.991371
0.991371
0.991371
0.911977
0.77178
0.771686
0.778215
0.886981
0.988003
0.988032
0.981464
0.988103
0.988079
0.94665
0.657664
0.625237
0.625007
0.624956
0.624953
0.624953
0.938765
0.993453
0.993505
0.993506
0.993506
0.917708
0.904794
0.971191
0.991403
0.991382
0.9911
0.822529
0.915729
0.990993
0.991104
0.991174
0.984029
0.948973
0.98263
0.991362
0.991371
0.991371
0.989039
0.906377
0.830966
0.938286
0.969224
0.975589
0.979715
0.97936
0.970252
0.987981
0.987889
0.887219
0.626706
0.625272
0.625238
0.672174
0.644432
0.624953
0.727265
0.973325
0.993474
0.993506
0.993508
0.993508
0.993508
0.909946
0.900069
0.943564
0.987568
0.808449
0.88061
0.990895
0.991174
0.991188
0.991224
0.991247
0.991252
0.991305
0.991362
0.991371
0.908501
0.959848
0.990702
0.990702
0.990702
0.900082
0.912377
0.927884
0.986083
0.98791
0.987905
0.987686
0.91064
0.739206
0.840206
0.947417
0.935168
0.769675
0.726613
0.972639
0.993472
0.993505
0.993508
0.993508
0.993508
0.992873
0.949385
0.93756
0.883703
0.779012
0.778861
0.832701
0.987723
0.991222
0.991245
0.991249
0.991247
0.966192
0.898976
0.958874
0.892162
0.972
0.981428
0.990702
0.977331
0.656146
0.932697
0.982122
0.982799
0.976723
0.980399
0.96571
0.960839
0.95514
0.951198
0.948032
0.947024
0.890827
0.780368
0.986932
0.993416
0.993472
0.993505
0.993508
0.993508
0.993504
0.98062
0.981814
0.90402
0.778861
0.778861
0.778861
0.808595
0.978085
0.991222
0.991245
0.991247
0.892658
0.653981
0.649826
0.649803
0.696574
0.75186
0.905488
0.951356
0.656143
0.713648
0.980962
0.97896
0.84036
0.719328
0.676223
0.818485
0.821084
0.808861
0.93665
0.917852
0.734672
0.931167
0.992387
0.993111
0.993417
0.99347
0.993486
0.993504
0.993505
0.993493
0.993481
0.883838
0.783207
0.778861
0.828206
0.880461
0.975911
0.990476
0.991189
0.83325
0.650154
0.649778
0.649743
0.649752
0.649773
0.649784
0.700534
0.950363
0.871153
0.615129
0.590767
0.764083
0.72733
0.565242
0.56515
0.690657
0.565136
0.565136
0.646532
0.776674
0.732391
0.979216
0.990349
0.991242
0.969676
0.924451
0.938426
0.982369
0.99349
0.958895
0.931079
0.933536
0.932307
0.847696
0.872306
0.964875
0.975397
0.92675
0.699524
0.650156
0.649707
0.649698
0.649743
0.649742
0.649751
0.649769
0.649782
0.939177
0.993785
0.889041
0.589322
0.566126
0.565242
0.56515
0.565137
0.565136
0.565136
0.565136
0.566354
0.724747
0.732302
0.833189
0.741262
0.655802
0.538716
0.328852
0.377591
0.657231
0.966986
0.965757
0.962612
0.709813
0.660675
0.890861
0.964423
0.96491
0.963507
0.94694
0.663628
0.650313
0.650207
0.684314
0.649742
0.649752
0.649773
0.649783
0.649708
0.925772
0.99469
0.994731
0.922897
0.826184
0.668524
0.565242
0.56515
0.565137
0.565136
0.565136
0.648652
0.806648
0.886799
0.624967
0.303153
0.300526
0.299809
0.299531
0.299495
0.299531
0.495521
0.947007
0.892366
0.62616
0.493331
0.573547
0.827382
0.964423
0.962682
0.93463
0.84858
0.735841
0.769461
0.919976
0.947797
0.942669
0.706416
0.649759
0.650266
0.751685
0.987407
0.994803
0.99481
0.994811
0.994812
0.976725
0.899473
0.908636
0.674421
0.565143
0.670887
0.838238
0.968766
0.497271
0.333058
0.303155
0.300526
0.299809
0.299531
0.2995
0.34755
0.668723
0.770581
0.660701
0.486521
0.493331
0.578222
0.897602
0.966829
0.902455
0.888285
0.958534
0.988259
0.994626
0.994896
0.994954
0.980165
0.950483
0.652732
0.753281
0.983442
0.994789
0.994811
0.994812
0.994813
0.994813
0.994815
0.994813
0.914203
0.59347
0.651477
0.799688
0.96918
0.840352
0.77658
0.493069
0.428948
0.416283
0.336994
0.319321
0.310758
0.310758
0.310402
0.310046
0.400803
0.692841
0.881285
0.982935
0.974057
0.897232
0.893532
0.93039
0.99419
0.994897
0.994955
0.994987
0.994976
0.994951
0.969446
0.909388
0.951185
0.994747
0.994808
0.994812
0.994813
0.994815
0.994817
0.994815
0.839379
0.593793
0.776938
0.788875
0.969242
0.849753
0.862478
0.87046
0.876977
0.882619
0.835302
0.778651
0.521444
0.310402
0.310046
0.310046
0.310046
0.514715
0.960532
0.990123
0.991297
0.923435
0.896183
0.909568
0.99069
0.994955
0.994987
0.995
0.99499
0.994976
0.994951
0.994652
0.986408
0.992615
0.994727
0.99453
0.994033
0.9948
0.99482
0.959078
0.769838
0.594405
0.764187
0.867634
0.970762
0.699737
0.656917
0.832192
0.882618
0.884858
0.884879
0.884858
0.884892
0.710376
0.319864
0.310046
0.310547
0.311049
0.761912
0.991309
0.993242
0.980061
0.897278
0.927614
0.993462
0.994974
0.99501
0.995014
0.995
0.992883
0.994786
0.994759
0.994826
0.994812
0.994036
0.994033
0.994035
0.994565
0.994826
0.99482
0.994816
0.794595
0.878167
0.960799
0.971417
0.442238
0.443166
0.447526
0.60294
0.853846
0.884858
0.884915
0.884857
0.883427
0.718796
0.31617
0.311049
0.330911
0.818405
0.993297
0.994597
0.994899
0.977711
0.979669
0.992811
0.995009
0.995027
0.995024
0.994417
0.992322
0.992311
0.994319
0.994846
0.994854
0.994787
0.994036
0.994499
0.994837
0.994826
0.994429
0.994513
0.987149
0.942603
0.930022
0.971417
0.442823
0.442238
0.446841
0.452205
0.786157
0.883809
0.884216
0.883427
0.882683
0.876261
0.607187
0.648961
0.84946
0.976399
0.994558
0.994907
0.994982
0.994999
0.994993
0.994927
0.995028
0.995028
0.995027
0.992747
0.992307
0.992309
0.993668
0.994855
0.994862
0.994856
0.994687
0.994846
0.994841
0.994837
0.994833
0.969309
0.978711
0.767156
0.817296
0.970356
0.796905
0.490779
0.464465
0.718871
0.900688
0.883407
0.867476
0.741189
0.851628
0.869649
0.647322
0.683986
0.877376
0.994345
0.994906
0.994985
0.995013
0.995012
0.995016
0.995024
0.99502
0.995027
0.995024
0.994856
0.992309
0.992307
0.994394
0.994862
0.994868
0.994863
0.994857
0.994851
0.994845
0.994841
0.994837
0.899089
0.779087
0.712382
0.805408
0.950884
0.829132
0.855145
0.923793
0.916645
0.910322
0.886612
0.460949
0.0883862
0.4193
0.84775
0.74061
0.687987
0.796611
0.991924
0.994951
0.995001
0.995008
0.995015
0.995026
0.99503
0.995023
0.995016
0.995017
0.995021
0.993808
0.994247
0.994862
0.994865
0.994877
0.994868
0.994865
0.994858
0.994279
0.994736
0.991439
0.809997
0.712406
0.712406
0.905129
0.926469
0.628444
0.891185
0.935925
0.926712
0.854036
0.361157
0.0631246
0.0674042
0.255015
0.775027
0.821546
0.826463
0.871643
0.985335
0.99495
0.994993
0.995014
0.995026
0.99503
0.995028
0.995028
0.995022
0.995024
0.995014
0.995013
0.994992
0.994786
0.994739
0.994889
0.994877
0.949819
0.952208
0.993621
0.994743
0.990837
0.805231
0.712654
0.744033
0.952484
0.926128
0.577899
0.842361
0.945018
0.903022
0.230203
0.0482837
0.0578104
0.145631
0.580956
0.791198
0.598835
0.52014
0.470937
0.518031
0.661046
0.763033
0.819989
0.934872
0.995026
0.99503
0.995019
0.995021
0.995024
0.995026
0.995014
0.99499
0.994765
0.994892
0.994914
0.983984
0.815932
0.863927
0.991443
0.994732
0.993016
0.894268
0.731998
0.982979
0.968248
0.926095
0.733561
0.968119
0.95671
0.391024
0.0473437
0.0453643
0.146258
0.743668
0.792057
0.79232
0.448481
0.417737
0.417737
0.417737
0.420769
0.426521
0.436676
0.484904
0.87527
0.933528
0.636355
0.668617
0.951058
0.995027
0.995021
0.994987
0.994936
0.99493
0.994915
0.918829
0.812424
0.869728
0.988909
0.993473
0.990349
0.917815
0.742747
0.982981
0.982981
0.963275
0.970274
0.970979
0.926875
0.162671
0.0453662
0.0453505
0.0453342
0.167002
0.615236
0.794984
0.795486
0.793451
0.741172
0.737494
0.739841
0.699324
0.675851
0.810059
0.876314
0.680911
0.317772
0.289441
0.619393
0.983636
0.994944
0.994968
0.994941
0.994921
0.994917
0.835675
0.812528
0.930678
0.984313
0.981291
0.986582
0.938805
0.745942
0.982981
0.982982
0.982981
0.970979
0.971493
0.816801
0.120575
0.0453545
0.0453291
0.0453342
0.0529522
0.0725659
0.109711
0.187909
0.313655
0.441687
0.569759
0.660911
0.78221
0.843215
0.870914
0.872827
0.702874
0.289441
0.285332
0.283657
0.819784
0.99478
0.99494
0.994921
0.994917
0.983598
0.808834
0.832047
0.984055
0.981223
0.981255
0.98753
0.957662
0.824877
0.982981
0.982981
0.982982
0.971453
0.971759
0.803512
0.109439
0.0458749
0.0453545
0.0453313
0.0456565
0.0459831
0.0458147
0.0454879
0.0454624
0.045452
0.0454509
0.0454508
0.236251
0.732109
0.8584
0.870914
0.80353
0.326376
0.282868
0.282243
0.670926
0.989191
0.989372
0.994913
0.994908
0.895973
0.808275
0.936598
0.991933
0.981255
0.984939
0.991585
0.932466
0.958255
0.961422
0.981875
0.98298
0.963811
0.971727
0.866509
0.0979985
0.0462349
0.0499139
0.0709854
0.0545633
0.0458128
0.0454622
0.0454655
0.0454559
0.0454517
0.0454508
0.0454507
0.0454508
0.272352
0.800634
0.864678
0.825323
0.327516
0.281993
0.282243
0.71602
0.972035
0.990241
0.99483
0.985657
0.803638
0.806903
0.989366
0.991969
0.987314
0.991965
0.991549
0.932039
0.958242
0.904957
0.969045
0.982931
0.972473
0.977663
0.93411
0.292371
0.0472439
0.102154
0.215597
0.205924
0.102245
0.0714854
0.0455068
0.0454655
0.04666
0.0454517
0.0454508
0.0454508
0.191537
0.77434
0.854033
0.699574
0.282974
0.282803
0.392491
0.846482
0.943165
0.989806
0.989111
0.845078
0.801974
0.875203
0.991969
0.991971
0.991969
0.99197
0.99197
0.943592
0.958051
0.855938
0.958743
0.935569
0.977942
0.977943
0.974425
0.667888
0.0941572
0.103373
0.216419
0.21668
0.21668
0.0911931
0.0521199
0.0456305
0.0603463
0.0477437
0.0454595
0.0454517
0.570959
0.790373
0.595932
0.309432
0.288198
0.368517
0.852723
0.883833
0.929868
0.970644
0.845066
0.797504
0.800999
0.947729
0.991971
0.991971
0.991971
0.991971
0.99197
0.947507
0.840644
0.881673
0.959498
0.9147
0.977944
0.97795
0.977954
0.94887
0.545529
0.168799
0.169135
0.216077
0.162772
0.0943361
0.13433
0.132726
0.0540293
0.0458239
0.0495122
0.338815
0.736334
0.74164
0.318859
0.312098
0.393442
0.861923
0.955463
0.913492
0.858985
0.803785
0.797418
0.797231
0.797505
0.925951
0.991971
0.991971
0.991971
0.991971
0.991971
0.826442
0.759396
0.939505
0.959409
0.914669
0.977947
0.97795
0.977953
0.977947
0.958606
0.555056
0.163545
0.0964379
0.0898085
0.108193
0.371999
0.210958
0.0460738
0.0458233
0.0460738
0.291579
0.677247
0.45962
0.329521
0.520542
0.880748
0.964106
0.959584
0.888096
0.856093
0.797419
0.797211
0.797192
0.797231
0.821516
0.984805
0.991971
0.991971
0.989702
0.833159
0.759396
0.759927
0.95886
0.942922
0.914661
0.977948
0.977948
0.977949
0.97795
0.977953
0.960243
0.57503
0.185879
0.0898085
0.122272
0.427995
0.427222
0.0962314
0.0460738
0.0466811
0.0496263
0.237195
0.558304
0.773557
0.946803
0.976103
0.968161
0.899255
0.863415
0.894768
0.865379
0.797192
0.797189
0.797192
0.797278
0.881582
0.99197
0.991936
0.888401
0.762718
0.760677
0.937328
0.976628
0.925117
0.915054
0.977973
0.977962
0.977953
0.977953
0.977955
0.978005
0.97803
0.746892
0.226109
0.103712
0.41999
0.432248
0.413282
0.0553576
0.0486325
0.0502083
0.0743203
0.672879
0.985869
0.982989
0.97861
0.910984
0.860788
0.861885
0.895339
0.978438
0.797189
0.797188
0.797189
0.797206
0.850565
0.991935
0.938281
0.765646
0.764111
0.857578
0.979872
0.979871
0.979871
0.979853
0.977946
0.978034
0.977953
0.977955
0.977955
0.977955
0.978005
0.977956
0.791554
0.103994
0.169388
0.432033
0.432248
0.19759
0.0502083
0.178291
0.422334
0.785169
0.987071
0.985368
0.933633
0.86075
0.860666
0.860788
0.913973
0.99055
0.914869
0.797189
0.797188
0.797215
0.93876
0.991252
0.909795
0.766718
0.787517
0.979556
0.979871
0.979873
0.979853
0.978586
0.978278
0.978039
0.977951
0.977953
0.977955
0.97796
0.977951
0.977926
0.963193
0.567025
0.170457
0.317622
0.397612
0.326295
0.625583
0.930367
0.956172
0.968243
0.98731
0.985861
0.893056
0.860666
0.860666
0.860666
0.981145
0.990889
0.989969
0.892343
0.797215
0.843866
0.991266
0.991269
0.95769
0.873123
0.94091
0.9788
0.957115
0.979837
0.941958
0.862293
0.977925
0.978134
0.978024
0.977977
0.977959
0.977964
0.977936
0.837698
0.884458
0.884588
0.465879
0.282555
0.333267
0.685291
0.982091
0.984078
0.985637
0.986717
0.987499
0.987971
0.948672
0.862347
0.860666
0.933667
0.990889
0.991043
0.991222
0.988792
0.943877
0.973685
0.991344
0.991306
0.991269
0.990606
0.981923
0.803266
0.942295
0.938676
0.699874
0.662019
0.940208
0.977885
0.978056
0.97799
0.977996
0.97793
0.977866
0.732657
0.761159
0.888159
0.884588
0.418508
0.115286
0.494918
0.833984
0.930664
0.926695
0.926481
0.935202
0.988157
0.988183
0.972034
0.961063
0.987519
0.986019
0.987184
0.991251
0.99123
0.991164
0.991344
0.991344
0.991344
0.979791
0.829932
0.803022
0.722404
0.861405
0.744367
0.664934
0.662019
0.838483
0.975134
0.977543
0.977933
0.977686
0.977517
0.870199
0.633858
0.775768
0.884588
0.825093
0.288252
0.0452818
0.139385
0.255655
0.712967
0.954724
0.975411
0.981663
0.988183
0.988331
0.989641
0.990709
0.9908
0.988999
0.986842
0.991255
0.991254
0.99123
0.991249
0.991344
0.956936
0.690021
0.655499
0.661074
0.947885
0.812782
0.696448
0.763306
0.867722
0.700589
0.957384
0.974752
0.969526
0.879412
0.703442
0.633858
0.636222
0.864707
0.879706
0.415531
0.0896773
0.0417623
0.0421965
0.0511963
0.438233
0.976112
0.98748
0.987761
0.987948
0.977401
0.980026
0.9908
0.990823
0.990933
0.991074
0.991254
0.991255
0.991254
0.99123
0.954
0.671031
0.653421
0.654238
0.770941
0.903244
0.741587
0.774584
0.967461
0.967467
0.701772
0.665783
0.645561
0.463931
0.30442
0.312728
0.655282
0.936084
0.86946
0.380937
0.0405603
0.0413305
0.0407458
0.0408118
0.0417386
0.161682
0.831145
0.987377
0.987496
0.982084
0.977262
0.977462
0.99079
0.990815
0.990823
0.990933
0.974736
0.97182
0.99123
0.963694
0.669567
0.653274
0.653274
0.694559
0.755836
0.747189
0.8162
0.953018
0.967476
0.967458
0.235541
0.135186
0.136861
0.138376
0.299438
0.780211
0.958772
0.946456
0.660135
0.04891
0.0406928
0.04073
0.0406837
0.0406342
0.0408159
0.0422652
0.381788
0.954175
0.987406
0.986221
0.977262
0.988269
0.99065
0.99079
0.866324
0.735875
0.63758
0.677005
0.785424
0.707914
0.653337
0.653274
0.69063
0.736008
0.745556
0.870337
0.967338
0.967444
0.967449
0.967448
0.0443079
0.132512
0.272779
0.326061
0.479237
0.942303
0.969667
0.948154
0.350593
0.0406507
0.0406438
0.0406522
0.0406476
0.0406493
0.0406567
0.0408523
0.13467
0.895532
0.987318
0.987318
0.987329
0.988037
0.927682
0.681954
0.626121
0.626039
0.625945
0.626153
0.627536
0.633199
0.762456
0.827402
0.86012
0.937525
0.953463
0.952882
0.940901
0.963932
0.967448
0.967448
0.0552349
0.0626596
0.110375
0.406177
0.71077
0.975416
0.974496
0.943595
0.339366
0.0406434
0.0406395
0.0406436
0.0406476
0.0406476
0.0406339
0.0406586
0.265503
0.977541
0.987318
0.987313
0.987187
0.859529
0.626141
0.625885
0.625818
0.625802
0.625781
0.625801