/*--------------------------------*- C++ -*----------------------------------*\
  =========                 |
  \\      /  F ield         | OpenFOAM: The Open Source CFD Toolbox
   \\    /   O peration     | Website:  https://openfoam.org
    \\  /    A nd           | Version:  8
     \\/     M anipulation  |
\*---------------------------------------------------------------------------*/
FoamFile
{
    version     2.0;
    format      ascii;
    class       volScalarField;
    location    "5.3";
    object      p;
}
// * * * * * * * * * * * * * * * * * * * * * * * * * * * * * * * * * * * * * //

dimensions      [1 -1 -2 0 0 0 0];

internalField   nonuniform List<scalar> 
9150
(
-204.576
-205.583
-206.202
-206.67
-206.905
-206.914
-206.678
-206.2
-205.574
-204.572
-224.628
-225.144
-225.565
-225.899
-226.077
-226.05
-225.876
-225.561
-225.141
-224.626
-244.52
-244.802
-245.054
-245.271
-245.391
-245.389
-245.277
-245.057
-244.803
-244.519
-264.258
-264.434
-264.602
-264.756
-264.838
-264.844
-264.764
-264.604
-264.435
-264.259
-283.879
-284.06
-284.196
-284.324
-284.385
-284.387
-284.327
-284.2
-284.061
-283.88
-118.542
-119.372
-119.114
-118.706
-118.525
-118.533
-118.704
-119.143
-119.409
-118.573
-134.067
-134.79
-134.974
-135.032
-134.935
-134.924
-135.017
-134.945
-134.772
-134.065
-150.562
-151.309
-151.611
-151.97
-152.026
-152.03
-151.968
-151.611
-151.3
-150.549
-167.43
-168.567
-169.027
-169.658
-169.811
-169.815
-169.63
-169.009
-168.55
-167.412
-184.428
-186.484
-187.248
-187.944
-188.208
-188.217
-187.945
-187.239
-186.479
-184.424
-24.3818
-26.0514
-28.0455
-29.1792
-29.7957
-29.9297
-29.4646
-28.4705
-26.5981
-25.3675
-45.0208
-45.315
-46.3765
-46.7684
-47.2204
-47.2448
-46.7896
-46.5571
-45.675
-45.5018
-65.1559
-65.0616
-66.0761
-65.7028
-66.217
-66.3039
-65.8909
-66.3234
-65.2924
-65.4314
-88.0635
-85.2808
-86.2676
-84.8064
-84.956
-85.0133
-84.8058
-86.3617
-85.387
-88.1915
-113.856
-104.253
-103.803
-102.399
-102.033
-102.054
-102.449
-103.887
-104.346
-114.019
1014.89
1014.77
1014.46
1014.22
1014.18
1014.28
1014.66
1015.69
1016.12
1016.93
994.687
994.385
994.112
993.87
993.789
993.82
996.414
995.735
996.546
997.357
975.683
975.426
974.801
974.142
973.831
973.791
976.876
975.264
976.356
976.792
953.991
953.8
953.519
953.331
953.629
954.698
955.006
954.89
955.428
956.271
932.333
932.092
932.041
932.208
933.556
934.183
934.235
934.182
934.096
934.423
910.563
910.662
911.104
911.564
911.839
912.05
912.691
913.361
911.269
911.202
890.377
890.734
891.321
890.992
890.27
890.432
891.151
892.076
890.744
890.909
872.174
872.332
872.945
873.106
872.635
872.46
872.036
872.251
869.671
868.134
853.178
853.107
852.728
852.448
853.201
855.768
854.368
853.797
852.373
852.401
833.911
833.489
832.42
836.309
835.582
841.839
838.413
839.382
840.267
841.859
817.829
818.07
817.848
820.886
822.774
822.184
822.292
826.562
828.068
829.568
800.473
801.162
801.85
804.252
807.206
807.39
808.03
812.61
815.884
814.164
782.824
784.149
785.528
786.514
786.899
787.146
788.006
789.066
790.262
792.111
766.814
768.928
767.895
763.502
762.924
765.251
767.633
769.967
771.261
772.883
747.175
748.064
751.241
760.609
746.408
749.23
747.668
746.641
749.463
751.686
729.223
730.5
731.527
736.937
736.232
735.875
736.508
736.919
735.427
735.77
710.797
712.462
714.125
716.095
716.726
716.032
719.064
719.383
719.189
720.351
691.808
693.718
695.404
696.735
697.86
699.11
700.645
702.208
705.957
706.829
672.599
674.12
675.613
677.348
679.126
681.076
683.491
686.427
687.976
693.777
652.111
653.242
655.071
657.155
659.406
661.843
664.269
666.643
668.446
682.855
628.864
632.261
636.081
638.741
641.424
643.588
645.774
648.766
651.944
660.022
618.357
617.164
618.118
622.349
627.03
631.052
633.457
635.083
637.469
633.819
599.782
604.075
607.152
612.448
617.055
620.889
624.134
623.134
619.305
614.129
575.038
577.751
582.89
593.153
599.603
602.738
604.623
600.285
596.998
589.723
540.534
543.742
554.509
558.637
559.627
569.625
571.169
571.522
574.371
564.511
503.79
513.701
508.387
512.48
516.473
517.442
512.94
526.711
521.676
525.7
470.369
474.575
457.628
463.59
468.415
469.942
469.867
487.969
467.334
474.135
432.739
433.833
413.365
420.352
426.114
426.994
428.551
430.914
415.729
427.331
415.911
416.394
384.086
388.404
394.963
397.043
396.271
392.398
384.727
389.624
401.863
386.22
385.532
373.744
384.314
373.285
376.283
378.068
380.35
383.583
367.514
365.874
371.368
367.596
380.309
371.063
374.454
373.432
373.385
373.333
356.774
363.964
369.788
375.802
386.2
390.516
390.885
379.846
371.679
368.713
346.699
354.48
360.891
370.641
379.045
382.201
376.237
372.457
364.421
356.542
319.486
341.016
335.217
343.985
349.894
351.071
350.183
345.755
338.555
345.246
297.382
302.747
307.489
310.184
314.196
317.219
317.623
318.868
323.28
322.501
280.419
280.415
281.995
286.219
293.735
296.478
299.713
302.028
304.221
303.326
270.335
274.196
281.87
282.37
281.654
284.803
288.61
290.129
291.037
292.794
257.088
263.351
270.717
273.524
275.228
278.248
280.896
283.021
285.146
284.475
239.79
246.22
252.935
259.428
264.569
269.815
273.734
276.829
279.537
279.612
229.733
238.718
249.79
254.621
256.312
270.516
273.167
274.549
279.363
281.323
232.535
238.658
244.604
249.606
252.841
281.056
272.119
273.04
277.382
279.911
234.999
241.08
245.499
249.883
252.973
272.551
267.322
271.512
274.98
277.912
238.141
241.141
244.918
248.06
250.859
263.674
261.356
266.015
270.307
272.824
239.102
240.336
242.991
245.119
247.202
251.978
255.998
251.618
253.811
254.431
236.073
235.331
235.965
236.397
236.253
235.882
237.641
234.982
231.531
227.709
231.456
228.62
226.239
224.523
221.982
219.785
219.77
215.635
209.097
203.34
226.092
221.907
218
214.224
210.295
206.692
203.798
199.641
193.752
188.514
222.061
216.341
211.095
205.012
198.239
191.025
189.048
184.908
175.727
171.796
219.4
212.718
204.075
193.29
182.624
174.465
166.936
160.097
151.941
148.175
220.417
210.094
195.208
176.914
162.919
151.423
144.188
140.762
129.379
140.722
224.379
205.502
183.629
162.079
147.613
133.982
121.192
113.186
115.309
112.667
211.133
180.436
149.344
121.208
102.79
91.4569
86.8063
90.4993
88.4642
93.4292
164.541
125.898
84.2227
65.1344
56.5267
49.6636
52.0589
52.9301
54.0561
59.648
115.805
77.5713
48.2543
41.141
44.6212
51.58
58.2228
59.4655
59.3078
59.5809
75.1485
58.3271
51.317
49.6502
49.3618
56.2702
60.1287
59.9849
60.528
61.1565
25.0443
23.0918
28.5346
38.9469
46.5766
54.8754
57.8362
58.3055
58.526
58.6102
-8.05423
-7.55808
2.70621
24.086
43.5715
52.2508
56.4702
57.3651
57.3694
57.0298
-8.37051
1.5396
11.6471
29.6837
53.464
58.6479
58.4869
56.7905
56.9259
55.9665
6.91624
25.8256
35.0757
36.7527
58.8786
73.3481
71.8175
65.1676
62.4893
64.5796
19.0678
27.0786
37.9763
44.9647
64.8179
99.8477
93.4837
81.5128
66.4295
75.1168
21.4219
25.3653
32.9668
45.6891
66.1362
111.758
97.2297
88.3953
82.9278
78.6801
7.45077
14.0541
23.7333
32.4846
42.3091
78.3981
69.2789
66.7062
61.3271
63.1475
-0.00725103
-2.59441
-0.1468
7.37349
19.5404
36.8928
36.4766
30.5532
34.0164
31.9702
-0.924411
-1.88085
-0.819405
0.719275
18.1969
41.4117
47.4719
21.4162
11.544
15.1729
-1.20632
-0.841766
-1.19644
-1.14867
26.0886
41.5775
24.9047
19.8307
11.5189
10.731
-1.15804
-1.16785
-1.47758
-2.26253
30.0806
25.7262
4.04819
4.37958
3.27978
0.91495
-1.21265
-1.26482
-1.45537
-1.37039
23.5291
27.2132
-2.02999
-2.75725
-1.22852
-0.0869956
-1.21873
-1.16704
-1.10948
-1.22077
25.2757
25.6178
-2.06022
-2.09434
-1.51036
-0.809318
-1.23947
-1.20644
-1.17624
-1.31773
26.6705
25.3537
-1.19925
-0.831786
-1.18098
-1.05291
-1.29478
-1.28305
-1.2666
-1.31283
27.2349
24.8775
-1.13977
-0.907289
-1.1905
-1.24355
-1.33277
-1.32655
-1.32174
-1.33297
26.0147
26.1736
-1.11502
-1.08211
-1.1123
-1.20364
-1.35429
-1.34747
-1.34174
-1.32977
23.1472
28.6783
-1.27057
-1.24825
-1.34213
-1.30715
-1.36568
-1.36279
-1.35956
-1.35595
25.8823
25.8859
-1.39846
-1.35851
-1.37713
-1.37013
-1.36982
-1.36889
-1.3727
-1.39963
30.0738
21.2693
-1.36311
-1.3751
-1.40163
-1.40932
-1.36413
-1.36077
-1.35315
-1.35337
24.2777
26.9922
-1.41876
-1.41163
-1.4548
-1.44606
-1.36347
-1.35839
-1.34496
-1.32065
20.4867
30.2765
-1.50343
-1.46853
-1.45347
-1.46888
-1.37518
-1.37661
-1.37464
-1.39133
28.8726
21.5613
-1.46894
-1.48019
-1.47927
-1.49012
-1.38923
-1.3921
-1.39583
-1.43298
30.1737
19.707
-1.48238
-1.50083
-1.50934
-1.51372
-1.40351
-1.3974
-1.38992
-1.38238
19.5666
29.8236
-1.56845
-1.54163
-1.53714
-1.53168
-1.42813
-1.417
-1.4068
-1.39264
17.8163
30.9016
-1.5989
-1.55606
-1.54611
-1.54375
-1.45977
-1.45426
-1.4509
-1.46698
25.302
23.7721
-1.52945
-1.51651
-1.5389
-1.53464
-1.4996
-1.48867
-1.49612
-1.53613
30.3653
16.4356
-1.50573
-1.51081
-1.54185
-1.54891
-1.55063
-1.51199
-1.5193
-1.562
27.8073
17.7308
-1.53818
-1.53685
-1.54868
-1.57316
-1.59553
-1.543
-1.54185
-1.57695
22.9886
21.2861
-1.60633
-1.59043
-1.59246
-1.60026
-1.62147
-1.59442
-1.59541
-1.63454
21.0668
20.7866
-1.63514
-1.60833
-1.60974
-1.62031
-1.64427
-1.63934
-1.64566
-1.69476
21.5771
18.0065
-1.64989
-1.61211
-1.61664
-1.64623
-1.65197
-1.65094
-1.65675
-1.70805
18.7444
17.9371
-1.68966
-1.63545
-1.65105
-1.6749
-1.66784
-1.66208
-1.65756
-1.68416
11.3365
20.975
-1.72359
-1.67859
-1.68311
-1.70622
-1.69949
-1.67715
-1.66577
-1.66768
9.90833
19.4335
-1.74522
-1.71883
-1.71203
-1.73175
-1.73528
-1.72585
-1.71954
-1.7243
14.254
9.92879
-1.73015
-1.74065
-1.74292
-1.75136
-1.77335
-1.76839
-1.7728
-1.81082
10.397
8.42207
-1.83546
-1.7639
-1.76996
-1.77281
-1.79191
-1.79305
-1.78984
-1.97552
9.1968
5.24338
-2.13389
-1.78875
-1.79686
-1.79887
-1.80822
-1.80754
-1.80884
-2.04719
5.49572
3.99155
-2.46026
-1.86424
-1.82898
-1.83729
-1.82531
-1.82492
-1.88074
-2.09622
1.69809
2.56291
-2.27177
-1.95182
-1.86797
-1.87514
-1.84331
-1.8432
-1.98229
-1.82564
0.414173
1.2173
-1.84042
-2.06103
-1.90341
-1.89765
-1.86222
-1.86262
-2.29275
-1.33277
-0.235401
-0.0106889
-1.39634
-2.25262
-1.91237
-1.90435
-1.87984
-1.87767
-3.33519
-2.34393
-0.899462
-0.323276
-0.73922
-3.19033
-1.90322
-1.90869
-1.897
-2.2147
-3.81899
-1.72735
-1.26637
-1.84457
-3.21003
-5.0755
-2.61992
-1.93806
-1.92869
-4.04669
-5.95657
-6.09363
-5.98828
-5.85656
-5.56441
-5.08446
-3.89389
-1.95147
-2.65452
-9.38886
-12.9219
-14.9961
-15.8424
-15.6722
-14.833
-12.9803
-9.80914
-2.88355
1017.79
1018.57
1019.08
1019.28
1019.19
1018.87
1018.38
1017.77
1017.15
1016.59
1016.12
1015.76
1015.55
1015.46
1014.91
1014.72
1014.52
1014.23
1013.77
1013.66
1014.14
1014.27
1015.35
1015.91
1013.01
1014.82
1013.38
1012.15
1012.67
1013.76
1015.42
1017.22
1018.75
1019.89
1021.83
1021.6
1020.31
1019.67
1018.82
1018.71
998.183
998.846
999.204
999.249
999.071
998.753
998.341
997.924
997.351
996.863
996.575
995.947
995.903
995.615
995.544
995.35
995.19
994.905
994.25
993.457
992.92
992.517
992.479
993.385
992.752
990.476
990.36
990.432
991.151
992.27
993.923
995.903
997.796
999.346
1000.53
1000.85
1000.7
999.944
999.485
998.983
977.463
978.113
978.419
978.45
978.426
978.305
978.069
977.896
977.428
976.664
976.17
975.686
975.703
975.766
975.965
976.196
976.402
976.243
975.666
974.621
973.115
972.16
973.235
970.664
966.609
966.791
966.18
967.131
968.109
969.419
970.539
972.553
974.959
977.045
978.868
980.16
980.705
979.564
978.88
979.309
955.985
956.943
957.627
957.496
957.357
956.882
956.674
956.684
956.432
955.667
954.608
954.577
954.452
954.841
955.45
956.175
956.643
956.976
956.292
955.43
954.191
954.152
951.782
947.405
941.865
943.096
943.061
943.904
946.054
948.194
949.506
950.479
952.6
954.769
956.601
958.037
958.776
959.106
960.304
961.262
935.06
935.919
937.241
937.144
937.071
935.598
934.23
933.919
933.841
933.441
932.911
932.736
933.035
933.767
934.485
935.464
936.502
937.034
937.585
936.373
935.291
935.191
932.322
928.353
923.518
920.812
922.229
925.836
927.59
928.378
930.295
931.876
934.105
935.519
936.943
938.202
939.046
940.968
942.562
943.088
911.645
912.71
913.36
913.765
914.019
912.703
910.54
909.581
907.526
907.237
908.688
909.984
911.22
912.434
914.054
915.182
915.927
916.863
917.456
917.604
917.113
916.218
914.781
912.716
910.284
908.495
908.373
910.671
912.482
912.489
915.388
915.983
918.456
916.902
917.677
918.945
920.277
922.088
923.699
924.874
883.82
884.355
886.71
889.411
889.431
888.331
886.209
884.138
884.742
885.179
885.42
887.371
889.757
891.789
893.407
894.761
895.661
896.661
897.635
898.378
898.999
899.522
898.986
898.333
896.977
895.851
896.363
898.875
897.394
896.624
897.695
898.29
898.706
898.086
897.963
898.801
900.045
901.564
902.81
906.321
873.016
870.608
867.623
869.855
870.876
870.901
869.582
869.521
868.447
869.163
870.818
871.386
872.118
873.498
874.362
874.82
875.539
877.124
878.68
880.639
882.096
883.954
884.498
883.885
884.054
882.816
881.378
880.62
880.588
880.573
880.657
880.756
880.243
878.94
878.174
879.498
878.962
880.464
881.737
882.288
855.376
855.518
854.67
855.446
856.755
856.433
856.032
856.54
856.6
856.735
856.834
857.296
857.366
856.06
855.529
855.08
855.445
857.219
859.827
862.668
865.482
867.745
868.791
869.443
869.528
869.256
867.415
865.712
864.688
864.038
863.545
863.113
862.436
861.302
860.247
861.993
864.381
861.062
862.628
863.515
843.691
843.783
843.052
842.987
843.491
842.995
842.73
843.028
842.918
843.069
843.33
843.491
842.17
839.71
837.07
835.175
836.105
839.732
842.315
845.821
849.253
851.647
852.946
853.406
854.215
854.474
852.223
849.369
847.315
847.054
846.609
846.238
846.37
846.334
845.531
844.366
849.185
847.583
845.808
846.923
831.211
831.353
830.403
830.643
830.372
830.091
830.106
830.791
830.603
830.209
828.92
827.235
826.35
825.783
824.644
823.472
823.551
826.617
828.452
831.284
833.958
836.121
837.486
838.435
838.644
835.959
832.698
830.704
829.948
829.134
829.306
829.559
830.226
829.165
827.573
826.682
827.341
836.27
827.153
830.687
813.662
814.144
815.041
815.416
815.124
815.031
815.481
815.996
817.162
816.247
814.83
813.861
811.492
810.826
809.387
807.826
806.968
807.554
805.707
806.268
808.191
810.028
811.789
812.353
814.365
814.309
813.264
812.285
813.582
816.206
814.499
814.742
813.03
809.329
807.135
802.977
805.659
808.626
806.394
811.169
793.98
795.383
796.413
797.079
797.438
798.468
799.578
800.129
801.019
800.086
800.02
802.616
795.277
792.843
791.267
789.858
788.769
786.681
786.301
783.349
784.914
786.864
789.036
789.37
789.09
790.902
792.061
792.182
796.18
797.449
796.382
793.953
791.422
788.474
784.758
779.964
781.247
783.089
784.895
786.264
774.727
776.318
779.59
776.258
776.216
778.542
780.844
782.542
785.773
783.217
782.751
781.394
780.594
775.023
772.737
770.592
769.205
767.437
766.597
765.763
765.677
766.221
769.194
770.251
774.295
767.497
769.302
772.063
773.099
774.3
772.89
771.598
768.675
765.732
762.127
759.097
757.146
758.073
765.521
767.086
755.212
757.688
759.363
761.954
762.468
760.996
762.396
763.639
764.47
764.644
765.836
762.829
761.323
757.728
754.225
752.474
751.69
751.276
750.383
750.003
750.523
750.901
751.198
752.079
754.906
754.972
753.456
752.947
755.686
756.068
754.823
752.39
748.901
744.156
739.657
737.291
736.994
742.001
748.032
750.279
736.638
739.811
741.756
743.762
745.655
745.56
744.307
745.298
744.567
745.698
745.948
746.709
743.334
740.166
737.127
734.343
735.496
734.122
732.112
732.28
732.887
734.147
734.833
735.17
739.576
740.687
739.998
736.4
738.308
740.046
740.166
739.101
735.591
730.446
730.911
730.559
732.976
736.848
739.575
740.664
719.381
721.438
723.577
725.291
726.187
727.371
728.835
724.64
723.236
723.995
726.089
734.196
725.76
722.657
719.972
717.73
715.664
715.412
712.901
712.963
713.786
714.998
714.076
715.821
721.194
718.095
719.177
718.988
720.201
723.158
725.859
725.864
722.362
718.159
722.755
725.184
728.177
731.967
733.304
732.214
705.953
705.432
706.769
708.06
708.629
708.98
708.725
708.305
707.347
703.222
706.951
713.166
707.243
704.952
702.189
699.633
697.547
694.672
692.793
692.904
693.399
693.896
696.302
695.178
698.182
698.466
698.151
697.666
702.061
704.042
705.925
706.057
703.385
700.693
698.79
705.457
706.92
716.175
718.495
714.779
690.687
689.187
689.737
690.485
690.861
691.009
691.234
690.792
689.309
688.443
688.371
691.075
690.401
686.292
683.238
680.662
677.828
674.47
671.814
670.684
671.958
670.906
669.639
665.92
669.35
674.566
677.536
700.619
680.497
681.17
682.969
681.1
675.195
665.843
664.21
667.484
672.624
680.134
685.883
686.848
675.802
672.189
673.296
673.58
673.455
673.041
672.498
672.056
671.031
670.174
668.918
669.842
669.193
667.379
664.983
661.645
660.239
657.744
655.879
655.917
658.853
657.232
652.64
648.637
650.013
656.166
661.812
676.923
668.434
666.75
662.785
656.512
652.505
643.496
638.052
641.271
642.04
648.523
657.913
663.577
653.817
653.085
652.98
653.5
654.017
655.3
656.964
656.763
655.433
652.072
649.596
649.569
649.54
646.425
644.936
642.919
642.708
641.796
640.754
641.302
642.839
643.375
641.806
641.072
641.22
642.399
653.684
650.681
656.432
653.657
646.757
647.799
644.513
638.096
633.117
632.825
634.038
633.582
642.807
647.604
625.942
622.133
621.57
620.503
617.287
616.622
622.756
633.573
634.853
635.714
634.6
630.641
627.269
626.019
624.945
625.3
622.449
626.359
627.738
628.134
628.705
629.441
630.33
631.355
633.08
635.361
637.79
642.584
638.276
641.024
639.904
639.091
636.549
633.589
631.422
631.736
632.884
635.092
636.298
638.97
601.419
589.912
585.393
584.527
589.524
586.927
583.127
586.819
594.063
597.12
601.112
603.871
600.077
603.162
604.735
605.598
606.492
611.931
614.09
614.503
615.602
616.561
618.112
619.1
619.943
620.6
621.463
624.808
624.512
623.713
624.55
625.509
626.775
625.323
624.916
625.739
627.679
629.261
631.726
635.669
576.345
576.085
570.643
567.594
565.982
566.192
566.663
564.042
573.573
578.756
574.572
583.877
579.367
579.513
582.489
586.172
587.533
591.033
597.403
598.75
600.613
603.85
604.891
604.17
606.778
607.528
604.474
605.138
607.143
608.484
609.544
610.706
611.136
611.662
614.217
612.808
620.054
616.236
617.937
624.427
552.58
555.873
557.503
555.683
553.712
556.574
557.748
554.525
555.1
562.189
560.892
562.994
568.208
564.282
563.318
570.127
569.906
573.934
575.534
578.779
581.004
583.085
584.7
585.759
586.042
597.048
592.579
588.23
590.04
591.995
593.881
595.007
595.922
597.322
599.823
600.894
605.386
604.811
599.372
605.298
527.134
529.077
535.041
541.786
547.993
552.611
554.624
553.916
551.667
549.468
548.483
544.476
541.695
545.265
548.996
552.242
553.713
556.356
556.214
559.306
561.202
563.042
564.684
566.044
567.224
568.654
572.02
572.393
573.704
575.707
577.377
578.62
579.366
580.02
580.615
580.635
597.05
584.061
583.864
588.252
478.815
485.416
497.318
511.698
527.045
538.788
544.81
543.889
544.037
539.293
533.906
529.015
525.605
527.21
529.319
531.219
533.358
536.911
537.76
538.895
540.561
542.589
544.611
546.594
548.433
550.359
552.418
554.334
555.923
557.849
559.517
560.781
561.548
562.161
563.335
566.826
579.215
568.979
568.64
570.899
423.201
424.383
430.959
454.81
478.654
500.475
516.256
522.723
521.056
515.675
510.985
507.005
505.128
500.481
502.027
505.203
507.904
515.095
515.683
516.293
518.929
521.528
524.077
526.625
529.062
531.293
533.483
535.367
537.045
538.868
540.634
542.04
543.257
544.692
545.688
546.232
553.021
549.562
549.857
549.16
395.97
394.67
394.655
407.249
431.767
458.007
478.309
489.301
488.105
482.45
480.66
479.617
478.781
470.415
471.29
475.92
480.792
485.611
489.367
492.577
496.198
499.719
503.134
506.159
508.916
511.387
513.642
515.841
517.913
519.983
522.235
524.332
526.327
527.674
528.43
528.2
529.496
526.379
526.288
527.55
384.785
384.037
378.961
376.733
380.231
402.746
426.347
438.063
436.774
429.641
433.989
429.986
430.253
431.179
436.373
443.848
451.222
457.614
463.117
468.172
472.763
477.087
481.046
484.609
487.762
490.734
493.524
496.173
498.72
501.167
503.879
506.309
508.455
509.498
509.458
508.901
509.086
512.206
509.727
510.742
380.118
371.477
370.626
356.608
349.936
348.954
341.629
337.825
356.198
364.146
369.804
375.061
380.843
390.836
400.651
411.321
421.335
429.989
437.611
443.868
449.072
453.676
458.139
462.463
466.505
470.209
473.542
476.731
479.667
482.42
485.687
488.44
490.584
491.706
491.156
490.65
492.341
498.268
492.67
496.663
367.017
360.367
348.683
332.823
317.091
302.769
291.947
313.033
302.798
305.459
314.514
327.762
337.533
354.767
370.173
384.103
395.286
404.684
412.899
419.56
425.311
430.608
435.737
440.58
445.41
449.966
454.046
457.737
461.232
464.125
467.344
470.134
472.541
474.198
474.365
474.478
481.924
483.039
480.599
481.42
364.473
344.222
331.377
308.305
287.563
276.859
277.966
281.553
270.039
266.854
270.756
284.548
305.957
328.21
346.78
360.995
370.987
380.2
388.725
395.93
402.697
408.417
413.835
419.293
424.796
430.028
434.85
439.651
443.653
446.324
449.977
452.669
454.29
456.932
457.984
459.932
468.652
469.81
465.941
465.777
340.286
324.216
314.809
290.824
280.538
276.851
272.367
265.63
263.761
272.007
260.338
276.909
301.555
318.411
332.21
343.567
350.123
354.864
363.583
373.695
381.413
386.399
391.976
398.277
404.684
410.871
416.815
422.655
426.612
428.894
438.703
437.272
435.793
438.62
440.665
442.824
452.592
448.029
446.603
445.616
312.619
313.452
296.593
283.727
282.648
282.633
276.458
283.327
289.999
292.165
293.347
304.324
317.451
331.748
344.726
353.047
356.972
351.358
349.651
361.541
367.43
370.382
368.204
377.064
384.378
391.4
398.013
404.094
408.119
410.25
419.017
416.081
416.376
418.621
419.819
420.565
431.44
418.533
420.543
420.629
302.153
295.887
282.046
279.765
280.382
280.603
279.053
280.2
286.014
289.876
293.776
304.449
313.126
324.475
332.388
340.34
342.474
338.983
340.248
336.526
352.585
357.558
349.891
358.447
365.648
372.295
378.852
384.953
389.807
394.262
399.21
394.971
396.402
397.463
397.937
397.948
409.285
393.081
395.907
396.958
289.079
283.465
277.243
276.434
276.841
276.613
275.702
274.617
273.867
272.53
270.296
270.757
274.379
276.12
275.166
289.2
303.384
311.246
312.54
314.173
323.852
331.322
336.668
340.468
347.085
353.534
360.098
365.686
369.59
378.579
379.344
377.539
378.253
378.642
378.366
378.028
383.172
373.179
376.571
377.291
281.095
278.455
272.355
272.948
273.078
272.543
271.95
271.349
270.728
269.999
269.303
269.138
269.684
270.227
270.757
268.443
273.543
285.096
292.1
294.013
301.916
313.013
320.103
324.024
329.582
336.391
343.25
348.286
352.969
361.943
359.35
360.569
361.291
361.693
361.764
362.724
360.648
358.872
361.234
361.556
277.191
275.15
266.924
269.241
270.362
269.497
268.696
268.18
268.279
268.328
268.041
267.892
267.871
267.929
268.153
268.397
267.288
267.053
278.572
281.444
286.61
298.467
305.114
306.882
314.121
321.685
327.571
331.404
342.183
345.425
344.565
345.546
346.243
346.812
347.184
347.652
347.61
347.985
346.61
347.729
278.027
274.602
267.843
267.536
272.287
267.945
269.411
269.687
267.1
266.626
266.336
265.944
265.486
265.087
265.012
265.176
263.588
260.396
268.588
267.293
277.686
287.4
290.108
294.264
301.413
309.969
313.86
317.618
325.608
327.367
330.456
331.071
332.221
332.77
333.048
332.84
333.052
340.586
333.414
334.153
279.221
276.61
272.381
269.948
274.397
274.152
268.759
268.503
266.782
264.518
264.543
263.573
262.738
260.593
260.136
260.152
258.457
262.023
250.305
260.174
270.917
274.431
281.474
285.515
291.465
297.576
298.42
304.996
308.751
313.593
316.007
316.999
317.854
318.419
318.195
318.728
323.473
326.01
324.101
323.225
278.618
277.025
273.51
270.142
271.19
271.02
270.431
268.323
264.284
264.249
262.948
261.286
257.693
256.076
255.107
254.762
263.987
259.665
255.256
260.133
261.291
269.017
275.879
275.853
278.941
283.697
286.533
290.168
293.437
297.289
300.27
301.795
302.803
303.234
302.543
306.39
315.494
309.016
309.702
308.471
272.028
269.026
265.091
263.714
264.591
265.497
265.019
266.554
266.945
264.326
276.418
259.279
256.158
254.716
252.595
252.396
266.591
254.237
263.444
254.54
258.348
263.192
265.866
264.86
268.135
272.377
274.308
276.824
279.269
281.358
283.821
286.23
287.721
288.204
288.911
295.689
298.64
293.661
295.522
294.22
252.441
249.306
247.26
248.404
251.575
256.433
259.079
262.07
267.516
265.26
275.047
266.434
257.296
255.768
253.916
252.769
250.444
248.232
248.616
254.745
257.433
255.06
254.121
257.048
259.264
260.767
262.265
264.15
265.619
266.839
267.896
272.214
273.878
272.627
280.709
280.851
286.052
282.642
281.496
280.272
223.728
220.945
221.532
226.874
236.441
248.28
257.033
261.883
264.703
274.202
257.919
260.792
260.783
257.747
257.059
256.604
256.39
250.371
248.293
247.456
244.528
243.107
245.386
246.479
247.008
254.246
250.276
251.354
252.513
253.106
252.835
260.562
258.737
263.141
266.422
263.921
266.597
266.27
264.515
264.27
198.655
196.114
196.895
203.336
217.227
234.801
251.289
264.074
271.971
276.551
271.77
258.404
258.869
252.376
259.241
253.507
249.802
243.654
240.088
235.993
232.246
233.338
233.223
233.396
233.911
239.724
237.277
238.113
239.414
240.026
240.143
244.298
241.304
250.595
247.756
246.99
248.134
247.403
246.431
245.766
183.754
178.577
176.525
182.091
197.713
217.139
236.482
254.28
264.991
269.346
282.815
270.243
253.717
245.459
242.358
239.911
232.892
227.272
223.962
221.431
221.473
222.565
223.421
223.066
221.924
222.72
222.918
224.089
229.308
227.267
225.864
226.164
224.321
228.008
224.797
225.527
227.052
228.069
225.381
226.643
167.031
165.094
164.039
167.481
176.757
190.957
207.246
226.687
237.22
240.823
237.857
242.487
226.011
228.828
223.754
214.075
208.273
204.213
203.352
204.27
206.243
210.627
212.462
210.188
209.349
209.145
208.951
209.177
210.603
210.916
210.759
210.886
210.682
210.896
209.038
209.489
210.999
214.837
214.269
217.906
142.461
142.049
142.795
146.5
156.149
167.957
178.627
192.132
194.974
195.536
182.033
167.235
171.569
161.832
166.128
170.11
174.208
179.045
182.479
186.15
189.847
191.704
194.094
194.627
194.903
194.773
194.862
195.177
196.279
197.338
197.772
197.199
196.753
195.665
197.287
208.52
201.62
202.811
206.074
207.63
118.908
118.219
119.119
124.187
130.812
136.653
138.061
157.734
150.299
149.455
124.694
112.531
131.937
128.367
129.015
132.451
143.52
153.015
160.904
167.527
172.371
175.697
177.89
179.289
179.672
179.58
179.035
180.47
182.902
184.45
185.659
185.358
186.876
189.721
188.509
203.567
191.241
198.123
193.305
194.868
106.535
104.853
101.919
100.878
98.2169
100.414
116.11
122.401
128.371
110.985
90.6193
97.5011
109.703
113.897
114.81
114.09
123.457
133.128
141.618
148.729
154.801
158.693
160.995
161.609
160.904
160.306
158.923
163.081
168.957
172.162
172.88
174.203
176.729
177.585
176.961
184.993
183.939
181.435
181.726
182.45
90.4762
75.1876
70.8816
77.8379
98.9398
105.326
91.2328
110.668
105.978
97.1791
96.9253
99.9809
105.521
107.822
108.53
108.444
111.6
118.542
125.652
131.876
137.23
140.268
141.417
140.171
136.983
132.849
134.443
144.435
154.092
158.064
158.702
161.687
163.611
164.453
165.04
166.066
165.533
166.7
167.424
167.729
70.6721
73.939
71.4931
71.3369
66.6312
73.405
95.4303
105.049
102.431
103.524
104.185
106.697
108.54
108.628
108.628
108.332
107.373
107.856
113.891
118.883
122.167
123.664
123.36
120.259
116.417
117.45
124.688
128.898
135.003
137.278
142.796
146.237
148.735
150.328
150.691
149.625
152.416
152.797
152.811
152.907
60.9422
61.4727
64.0988
69.0177
71.6551
77.807
93.051
99.9139
104.841
107.339
108.26
109.765
110.584
110.591
110.295
109.978
108.458
102.731
106.767
110.184
112.37
113.09
112.523
112.367
112.358
113.197
116.294
119.119
121.972
124.182
126.004
131.046
134.434
136.478
136.862
136.761
136.316
136.041
136.2
136.034
61.4165
61.6746
63.1775
65.1071
70.1703
77.8366
89.0012
96.1754
105.063
109.221
109.988
111.034
111.787
111.873
111.706
111.257
107.96
102.259
103.414
104.788
105.734
106.241
107.128
107.549
108.074
109.727
111.41
111.939
111.846
111.465
115.081
116.113
119.932
120.837
118.296
123.511
124.322
118.688
119.256
119.473
58.4401
59.3064
59.7625
58.5139
66.9644
75.7762
82.9738
89.4911
96.8595
108.496
110.851
111.36
111.898
112.298
111.468
107.183
101.035
99.0383
98.7945
98.8305
98.951
99.3056
99.6958
100.268
100.768
101.631
102.095
102.263
101.299
99.6793
99.1228
97.9586
97.3599
98.3214
98.5057
102.406
104.033
102.763
103.968
104.454
56.4526
56.8812
56.4857
58.0866
66.3475
69.8447
74.4983
78.5569
83.6155
87.9981
92.5413
100.042
102.301
99.2461
97.2482
96.1545
94.5515
93.8718
92.9435
92.0251
91.4858
91.5419
90.6746
95.4922
96.1356
91.7527
91.3056
90.1994
89.1748
88.2136
87.2696
87.1654
86.6158
81.7944
80.4879
81.7699
86.6406
88.428
89.9999
90.629
54.3985
55.232
54.6583
60.3841
61.7576
60.8473
58.8808
62.2576
69.6724
77.5195
84.9509
91.843
91.7925
89.8876
88.9874
88.2589
86.4198
84.7289
84.3279
85.0184
84.5743
81.4321
81.9689
82.8154
83.1284
81.3919
78.7607
78.0939
77.762
76.3709
73.6259
72.5923
70.4322
68.4904
69.4611
69.1892
72.098
76.4375
79.5801
83.3253
61.323
59.7171
65.3062
64.1322
51.6205
52.6159
52.4289
51.5099
51.6953
56.0241
60.7921
69.942
75.4937
77.0331
77.1606
77.2936
76.2109
75.155
78.0053
78.5233
74.5284
71.7472
68.7522
66.0505
64.821
64.4251
63.8252
63.3627
65.9348
65.104
57.2679
54.471
53.3213
55.8618
57.0028
61.5327
63.7185
67.2459
75.329
78.1933
82.7825
63.1281
81.6553
56.9723
53.0011
52.5261
50.132
48.4219
47.9053
48.6509
49.5167
46.44
55.8696
62.2984
64.9099
66.2554
66.3506
64.8769
67.3243
68.334
61.0945
59.2983
54.5864
50.2218
48.0071
47.4015
46.4492
44.0755
41.5369
39.2773
35.4782
33.3564
37.5721
44.1446
48.9962
54.2545
60.045
64.6602
72.7604
76.8856
79.3293
79.7471
77.1214
58.9234
55.4777
51.9249
49.3275
47.4705
47.5525
49.1561
51.1302
51.6095
51.756
50.0874
54.5812
55.5478
56.8894
57.215
57.943
55.9352
52.9931
48.7743
43.3347
38.0739
36.2963
37.0594
37.0952
35.4639
33.5662
30.8946
29.6946
28.4953
39.0191
36.7877
44.2933
49.8193
57.0937
61.1758
70.9648
75.9116
68.736
72.6602
66.6975
58.3966
46.5619
46.045
46.3566
47.315
47.9668
48.3626
48.589
48.2865
47.8335
47.3164
46.9781
44.4734
43.9684
43.3199
43.1142
43.6792
44.011
42.0179
38.2028
33.4668
30.7379
33.2247
33.515
30.7198
36.5612
35.3519
25.6075
27.232
28.6509
31.5917
36.2899
41.7233
47.333
55.2085
63.0012
69.423
42.1144
45.2083
47.1906
46.1953
42.6329
41.4536
42.1492
43.4472
44.842
47.0339
47.9761
47.9791
48.0753
47.9034
48.3576
49.3763
47.1574
40.662
40.8946
38.3359
38.3862
39.5604
38.7503
35.3394
30.8355
28.7801
28.4652
28.3066