/*--------------------------------*- C++ -*----------------------------------*\
  =========                 |
  \\      /  F ield         | OpenFOAM: The Open Source CFD Toolbox
   \\    /   O peration     | Website:  https://openfoam.org
    \\  /    A nd           | Version:  8
     \\/     M anipulation  |
\*---------------------------------------------------------------------------*/
FoamFile
{
    version     2.0;
    format      ascii;
    class       surfaceScalarField;
    location    "0.4";
    object      alphaPhi0.water;
}
// * * * * * * * * * * * * * * * * * * * * * * * * * * * * * * * * * * * * * //

dimensions      [0 3 -1 0 0 0 0];

internalField   nonuniform List<scalar> 
18095
(
1.58613e-07
-9.6469e-07
8.06077e-07
1.6586e-07
-1.24772e-06
1.24047e-06
1.22878e-07
-1.24218e-06
1.28516e-06
6.57967e-08
-1.26404e-06
1.32112e-06
8.32591e-13
-1.28137e-06
1.34716e-06
-6.57952e-08
-1.28137e-06
1.34716e-06
-1.22877e-07
-1.26404e-06
1.32112e-06
-1.65859e-07
-1.24218e-06
1.28516e-06
-1.58613e-07
-1.24772e-06
1.24048e-06
-9.64691e-07
8.06078e-07
1.11134e-07
-1.07582e-06
9.98899e-08
-1.23648e-06
7.34065e-08
-1.2157e-06
4.0394e-08
-1.23103e-06
6.59314e-13
-1.24097e-06
-4.03928e-08
-1.24097e-06
-7.34056e-08
-1.23103e-06
-9.98893e-08
-1.2157e-06
-1.11134e-07
-1.23648e-06
-1.07582e-06
6.73659e-08
-1.14319e-06
5.31721e-08
-1.22228e-06
4.25647e-08
-1.20509e-06
2.41107e-08
-1.21257e-06
4.58366e-13
-1.21686e-06
-2.41098e-08
-1.21686e-06
-4.2564e-08
-1.21257e-06
-5.31716e-08
-1.20509e-06
-6.73656e-08
-1.22228e-06
-1.14319e-06
3.98888e-08
-1.18308e-06
2.69257e-08
-1.20932e-06
2.23119e-08
-1.20048e-06
1.2698e-08
-1.20296e-06
2.63474e-13
-1.20417e-06
-1.26975e-08
-1.20417e-06
-2.23115e-08
-1.20296e-06
-2.69254e-08
-1.20048e-06
-3.98886e-08
-1.20932e-06
-1.18308e-06
1.69214e-08
7.60151e-09
7.12505e-09
4.16682e-09
3.02996e-14
-4.16678e-09
-7.12503e-09
-7.60152e-09
-1.69214e-08
-1.76298e-07
-1.1623e-06
1.3386e-06
-2.20597e-07
-1.21543e-06
1.25973e-06
-1.66598e-07
-1.2124e-06
1.15841e-06
-8.79676e-08
-1.20508e-06
1.12645e-06
6.39724e-12
-1.20477e-06
1.1168e-06
8.79801e-08
-1.20477e-06
1.1168e-06
1.6661e-07
-1.20508e-06
1.12645e-06
2.20607e-07
-1.21241e-06
1.15841e-06
1.76305e-07
-1.21544e-06
1.25974e-06
-1.16231e-06
1.33862e-06
-9.29289e-08
-1.06937e-06
-9.59545e-08
-1.21241e-06
-7.96876e-08
-1.22867e-06
-4.44803e-08
-1.24028e-06
3.56714e-12
-1.24926e-06
4.44872e-08
-1.24926e-06
7.96935e-08
-1.24029e-06
9.5959e-08
-1.22867e-06
9.29315e-08
-1.21241e-06
-1.06938e-06
-5.77715e-08
-1.0116e-06
-5.49506e-08
-1.21523e-06
-4.62865e-08
-1.23734e-06
-2.6952e-08
-1.25962e-06
2.15094e-12
-1.27621e-06
2.69561e-08
-1.27621e-06
4.629e-08
-1.25962e-06
5.49532e-08
-1.23734e-06
5.77728e-08
-1.21523e-06
-1.01161e-06
-7.45626e-08
-9.37041e-07
-6.15868e-08
-1.2282e-06
-4.80589e-08
-1.25086e-06
-2.73733e-08
-1.28031e-06
1.39132e-12
-1.30359e-06
2.73759e-08
-1.30359e-06
4.80611e-08
-1.28031e-06
6.15884e-08
-1.25087e-06
7.45634e-08
-1.2282e-06
-9.37042e-07
-1.30964e-07
-1.18692e-07
-8.43923e-08
-4.35773e-08
1.02717e-12
4.35793e-08
8.43939e-08
1.18693e-07
1.30964e-07
-7.41983e-08
-9.5443e-07
1.02863e-06
-1.13719e-08
-1.33404e-06
1.27121e-06
5.79589e-09
-1.26692e-06
1.24975e-06
2.18131e-09
-1.22351e-06
1.22712e-06
9.61527e-11
-1.22096e-06
1.22305e-06
-1.98795e-09
-1.22097e-06
1.22306e-06
-5.59678e-09
-1.22353e-06
1.22714e-06
1.15889e-08
-1.26696e-06
1.24977e-06
7.44052e-08
-1.33411e-06
1.27129e-06
-9.54578e-07
1.02898e-06
9.91956e-10
-9.55422e-07
1.08354e-08
-1.34388e-06
8.81016e-09
-1.2649e-06
4.41451e-09
-1.21911e-06
5.85254e-11
-1.21661e-06
-4.30106e-09
-1.21661e-06
-8.70369e-09
-1.21913e-06
-1.07397e-08
-1.26492e-06
-9.18384e-10
-1.34393e-06
-9.55497e-07
2.31799e-08
-9.78602e-07
1.57087e-08
-1.33641e-06
8.48213e-09
-1.25767e-06
5.15604e-09
-1.21578e-06
3.58292e-11
-1.21149e-06
-5.08655e-09
-1.21149e-06
-8.4193e-09
-1.21579e-06
-1.56547e-08
-1.25768e-06
-2.31467e-08
-1.33644e-06
-9.78643e-07
7.65507e-08
-1.05515e-06
5.12212e-08
-1.31108e-06
3.30721e-08
-1.23952e-06
2.02716e-08
-1.20298e-06
1.98229e-11
-1.19123e-06
-2.02339e-08
-1.19124e-06
-3.3037e-08
-1.20299e-06
-5.11891e-08
-1.23953e-06
-7.65322e-08
-1.31109e-06
-1.05518e-06
2.8345e-07
2.32099e-07
1.50983e-07
7.44461e-08
1.13207e-11
-7.44244e-08
-1.50964e-07
-2.32085e-07
-2.8344e-07
-8.20414e-07
-1.94397e-07
1.01476e-06
-6.20204e-07
-2.00243e-07
-4.16057e-07
-2.04182e-07
-2.09671e-07
-2.06421e-07
-2.90537e-09
-2.06801e-07
2.0386e-07
-2.068e-07
4.10269e-07
-2.06444e-07
6.14483e-07
-2.04249e-07
8.14803e-07
-2.00355e-07
-1.94563e-07
1.00932e-06
-6.78265e-07
-3.52533e-07
8.36402e-07
-5.14383e-07
-3.64124e-07
-3.46292e-07
-3.72273e-07
-1.75283e-07
-3.77428e-07
-2.20002e-09
-3.79881e-07
1.70908e-07
-3.79906e-07
3.41971e-07
-3.77506e-07
5.10138e-07
-3.72415e-07
6.74127e-07
-3.64343e-07
-3.52848e-07
8.32413e-07
-5.67095e-07
-4.85447e-07
7.0001e-07
-4.29579e-07
-5.0164e-07
-2.88748e-07
-5.13104e-07
-1.45755e-07
-5.20421e-07
-1.63472e-09
-5.24002e-07
1.42497e-07
-5.24038e-07
2.85523e-07
-5.20532e-07
4.26408e-07
-5.133e-07
5.64007e-07
-5.01941e-07
-4.8588e-07
6.97038e-07
-4.77237e-07
-5.97912e-07
5.89702e-07
-3.61133e-07
-6.17745e-07
-2.4249e-07
-6.31747e-07
-1.22231e-07
-6.4068e-07
-1.18662e-09
-6.45047e-07
1.19866e-07
-6.4509e-07
2.40147e-07
-6.40813e-07
3.58832e-07
-6.31985e-07
4.74999e-07
-6.18108e-07
-5.98435e-07
5.87555e-07
-3.96662e-07
-6.91272e-07
4.90023e-07
-3.00157e-07
-7.1425e-07
-2.015e-07
-7.30404e-07
-1.0148e-07
-7.40699e-07
-7.98854e-10
-7.45729e-07
9.98904e-08
-7.4578e-07
1.99933e-07
-7.40855e-07
2.9863e-07
-7.30681e-07
3.95195e-07
-7.14673e-07
-6.91883e-07
4.88643e-07
-3.26253e-07
-7.67658e-07
4.0264e-07
-2.47059e-07
-7.93444e-07
-1.65914e-07
-8.11548e-07
-8.35058e-08
-8.23106e-07
-4.73016e-10
-8.28761e-07
8.2569e-08
-8.28822e-07
1.65005e-07
-8.23291e-07
2.46197e-07
-8.11872e-07
3.25456e-07
-7.93932e-07
-7.68356e-07
4.01929e-07
-2.75733e-07
-8.3338e-07
3.41456e-07
-2.08287e-07
-8.6089e-07
-1.39649e-07
-8.80186e-07
-7.01706e-08
-8.92583e-07
-2.49034e-10
-8.98683e-07
6.96805e-08
-8.98751e-07
1.39182e-07
-8.92793e-07
2.07856e-07
-8.80546e-07
2.75346e-07
-8.61422e-07
-8.34134e-07
3.41124e-07
-2.49765e-07
-8.95515e-07
3.11901e-07
-1.87347e-07
-9.23308e-07
-1.25007e-07
-9.42525e-07
-6.26178e-08
-9.54974e-07
-1.64592e-10
-9.61136e-07
6.22856e-08
-9.61201e-07
1.24664e-07
-9.55171e-07
1.86982e-07
-9.42863e-07
2.49367e-07
-9.23806e-07
-8.96278e-07
3.11511e-07
-2.43117e-07
-9.56841e-07
3.04444e-07
-1.81107e-07
-9.85317e-07
-1.20222e-07
-1.00341e-06
-6.00276e-08
-1.01517e-06
-1.54321e-10
-1.02101e-06
5.97082e-08
-1.02106e-06
1.19867e-07
-1.01533e-06
1.80685e-07
-1.00368e-06
2.42586e-07
-9.85707e-07
-9.57636e-07
3.03944e-07
-2.46384e-07
-1.0114e-06
3.00898e-07
-1.8282e-07
-1.04888e-06
-1.21001e-07
-1.06523e-06
-6.03108e-08
-1.07586e-06
-1.59043e-10
-1.08116e-06
5.9987e-08
-1.08121e-06
1.20661e-07
-1.076e-06
1.82453e-07
-1.06547e-06
2.45974e-07
-1.04923e-06
-1.01321e-06
3.01508e-07
-2.50553e-07
-1.04317e-06
2.82361e-07
-1.86223e-07
-1.11321e-06
-1.23345e-07
-1.12811e-06
-6.15159e-08
-1.13768e-06
-2.13034e-10
-1.14246e-06
6.10808e-08
-1.1425e-06
1.22886e-07
-1.13781e-06
1.85737e-07
-1.12832e-06
2.50097e-07
-1.11359e-06
-1.04782e-06
2.8474e-07
-2.52675e-07
-1.02547e-06
2.34983e-07
-1.89079e-07
-1.17681e-06
-1.25426e-07
-1.19176e-06
-6.2585e-08
-1.20053e-06
-2.01744e-10
-1.20485e-06
6.21726e-08
-1.20488e-06
1.24986e-07
-1.20062e-06
1.886e-07
-1.19194e-06
2.52295e-07
-1.17729e-06
-1.03475e-06
2.39221e-07
-2.48517e-07
-8.97145e-07
1.39731e-07
-1.8872e-07
-1.23662e-06
-1.25233e-07
-1.25525e-06
-6.24817e-08
-1.26328e-06
-1.38117e-10
-1.26719e-06
6.22076e-08
-1.26722e-06
1.24963e-07
-1.26338e-06
1.88435e-07
-1.25541e-06
2.48728e-07
-1.23759e-06
-9.20234e-07
1.51505e-07
-2.36533e-07
-6.94286e-07
4.45576e-08
-1.85136e-07
-1.28801e-06
-1.22808e-07
-1.31758e-06
-6.13022e-08
-1.32478e-06
-1.5127e-10
-1.32834e-06
6.1001e-08
-1.32838e-06
1.2251e-07
-1.32489e-06
1.84832e-07
-1.31773e-06
2.37691e-07
-1.29044e-06
-7.23013e-07
5.08586e-08
-2.11728e-07
-4.89445e-07
1.60521e-08
-1.80314e-07
-1.31942e-06
-1.19752e-07
-1.37814e-06
-5.98208e-08
-1.38472e-06
-1.62103e-10
-1.388e-06
5.94947e-08
-1.38803e-06
1.19429e-07
-1.38482e-06
1.80019e-07
-1.37832e-06
2.14613e-07
-1.32504e-06
-5.17707e-07
1.79281e-08
-1.69958e-07
-3.2357e-07
9.7631e-09
-1.74288e-07
-1.31513e-06
-1.15994e-07
-1.43643e-06
-5.7941e-08
-1.44277e-06
-7.14279e-11
-1.44587e-06
5.77893e-08
-1.4459e-06
1.15823e-07
-1.44285e-06
1.74137e-07
-1.43663e-06
1.74564e-07
-1.32549e-06
-3.47995e-07
1.02372e-08
-1.20557e-07
-2.05922e-07
6.44458e-09
-1.66892e-07
-1.26113e-06
-1.10913e-07
-1.49241e-06
-5.53179e-08
-1.49836e-06
7.0271e-11
-1.50126e-06
5.54544e-08
-1.50129e-06
1.11024e-07
-1.49842e-06
1.66899e-07
-1.49251e-06
1.28222e-07
-1.28032e-06
-2.23263e-07
6.81099e-09
-8.2159e-08
-1.26547e-07
4.22744e-09
-1.58424e-07
-1.18276e-06
-1.05131e-07
-1.5457e-06
-5.23712e-08
-1.55112e-06
1.07196e-10
-1.55375e-06
5.25751e-08
-1.55375e-06
1.05301e-07
-1.55115e-06
1.58581e-07
-1.54579e-06
8.67402e-08
-1.2066e-06
-1.39674e-07
4.48596e-09
-5.44742e-08
-7.39272e-08
2.67946e-09
-1.48793e-07
-1.08627e-06
-9.88474e-08
-1.59565e-06
-4.92229e-08
-1.60075e-06
1.08405e-10
-1.60308e-06
4.94334e-08
-1.60308e-06
9.90393e-08
-1.60076e-06
1.49036e-07
-1.59579e-06
5.90323e-08
-1.11489e-06
-8.2806e-08
2.88827e-09
-3.20097e-08
-4.32142e-08
1.60066e-09
-1.38171e-07
-9.78619e-07
-9.20704e-08
-1.64175e-06
-4.58482e-08
-1.64697e-06
9.04345e-11
-1.64902e-06
4.60257e-08
-1.64901e-06
9.22377e-08
-1.64697e-06
1.38532e-07
-1.64208e-06
3.59337e-08
-1.0113e-06
-4.83856e-08
1.75343e-09
-1.61008e-08
-2.7972e-08
9.76142e-10
-1.2638e-07
-8.67762e-07
-8.49458e-08
-1.68318e-06
-4.23072e-08
-1.68961e-06
6.58687e-11
-1.69139e-06
4.24374e-08
-1.69139e-06
8.50723e-08
-1.6896e-06
1.2703e-07
-1.68404e-06
1.91911e-08
-9.0338e-07
-3.01361e-08
1.04068e-09
-8.19928e-09
-2.03698e-08
6.28111e-10
-1.12867e-07
-7.6328e-07
-7.75477e-08
-1.7185e-06
-3.862e-08
-1.72854e-06
7.71499e-11
-1.73009e-06
3.8778e-08
-1.73009e-06
7.77165e-08
-1.72854e-06
1.14223e-07
-1.72055e-06
8.89947e-09
-7.98727e-07
-2.19007e-08
6.78255e-10
-4.83196e-09
-1.59455e-08
3.95775e-10
-9.68437e-08
-6.72052e-07
-6.99894e-08
-1.74536e-06
-3.48499e-08
-1.76368e-06
1.05879e-10
-1.76504e-06
3.50685e-08
-1.76505e-06
7.02286e-08
-1.7637e-06
9.93902e-08
-1.74971e-06
5.53682e-09
-7.06118e-07
-1.68209e-08
4.31775e-10
-3.55775e-09
-1.26555e-08
2.71308e-10
-7.62316e-08
-6.00582e-07
-6.2459e-08
-1.75913e-06
-3.10841e-08
-1.79505e-06
1.57429e-10
-1.79628e-06
3.14013e-08
-1.7963e-06
6.27914e-08
-1.79509e-06
8.16191e-08
-1.76853e-06
3.76228e-09
-6.29892e-07
-1.33426e-08
2.87268e-10
-2.81863e-09
-1.00274e-08
1.91877e-10
-6.07022e-08
-5.4413e-07
-5.50727e-08
-1.76505e-06
-2.73491e-08
-1.82278e-06
2.50936e-10
-1.82389e-06
2.78496e-08
-1.8239e-06
5.55603e-08
-1.8228e-06
6.27029e-08
-1.77611e-06
2.92629e-09
-5.71931e-07
-1.06165e-08
2.01416e-10
-2.27476e-09
-7.88862e-09
1.36078e-10
-5.00672e-08
-4.97942e-07
-4.79395e-08
-1.76763e-06
-2.3743e-08
-1.84697e-06
3.1545e-10
-1.84794e-06
2.43715e-08
-1.84795e-06
4.85626e-08
-1.84699e-06
5.15452e-08
-1.77964e-06
2.36856e-09
-5.24739e-07
-8.39142e-09
1.4341e-10
-1.83652e-09
-6.14775e-09
9.51765e-11
-4.15157e-08
-4.59959e-07
-4.10922e-08
-1.76863e-06
-2.0307e-08
-1.86776e-06
3.63736e-10
-1.86862e-06
2.10331e-08
-1.86862e-06
4.18148e-08
-1.86778e-06
4.29384e-08
-1.78143e-06
1.92209e-09
-4.85789e-07
-6.57085e-09
1.00903e-10
-1.4851e-09
-4.72881e-09
6.5459e-11
-3.38899e-08
-4.29294e-07
-3.45981e-08
-1.76862e-06
-1.70521e-08
-1.8853e-06
3.97655e-10
-1.88606e-06
1.78458e-08
-1.88607e-06
3.53883e-08
-1.88532e-06
3.51953e-08
-1.78203e-06
1.56054e-09
-4.54253e-07
-5.08095e-09
6.98247e-11
-1.20906e-09
-3.56458e-09
4.40989e-11
-2.72214e-08
-4.05026e-07
-2.85026e-08
-1.76813e-06
-1.40011e-08
-1.8998e-06
4.20409e-10
-1.90049e-06
1.48406e-08
-1.90049e-06
2.93397e-08
-1.89982e-06
2.8407e-08
-1.78198e-06
1.27497e-09
-4.29214e-07
-3.85415e-09
4.73555e-11
-9.91962e-10
-2.60218e-09
2.88571e-11
-2.13708e-08
-3.86384e-07
-2.28265e-08
-1.76753e-06
-1.11626e-08
-1.91147e-06
4.37064e-10
-1.91208e-06
1.20357e-08
-1.91208e-06
2.36993e-08
-1.91148e-06
2.24374e-08
-1.78168e-06
1.0494e-09
-4.09902e-07
-2.83673e-09
3.12267e-11
-8.21885e-10
-1.79863e-09
1.80325e-11
-1.6228e-08
-3.72665e-07
-1.75698e-08
-1.76709e-06
-8.53996e-09
-1.9205e-06
4.50376e-10
-1.92107e-06
9.4402e-09
-1.92107e-06
1.84767e-08
-1.92052e-06
1.71825e-08
-1.78138e-06
8.71814e-10
-3.95611e-07
-1.98497e-09
1.97176e-11
-6.86997e-10
-1.12215e-09
1.03449e-11
-1.16969e-08
-3.63328e-07
-1.27305e-08
-1.76698e-06
-6.13366e-09
-1.92709e-06
4.61784e-10
-1.92767e-06
7.05694e-09
-1.92767e-06
1.36717e-08
-1.92713e-06
1.25488e-08
-1.7813e-06
7.30195e-10
-3.8579e-07
-1.26648e-09
1.15094e-11
-5.69776e-10
-5.5747e-10
4.97524e-12
-7.68919e-09
-3.57762e-07
-8.29405e-09
-1.76731e-06
-3.94163e-09
-1.93145e-06
4.71796e-10
-1.93208e-06
4.88517e-09
-1.93208e-06
9.27367e-09
-1.93152e-06
8.4503e-09
-1.78148e-06
6.09462e-10
-3.79825e-07
-6.6289e-10
5.73173e-12
-4.21217e-10
-1.37881e-10
1.57696e-12
-4.13665e-09
-3.55614e-07
-4.25749e-09
-1.76809e-06
-1.95935e-09
-1.93376e-06
4.80445e-10
-1.93452e-06
2.92021e-09
-1.93452e-06
5.24892e-09
-1.93385e-06
4.81779e-09
-1.78207e-06
4.64836e-10
-3.77359e-07
-2.00105e-10
1.98361e-12
-1.37991e-10
-4.75744e-19
1.14266e-13
-9.73015e-10
-3.56307e-07
-8.42905e-10
-1.76911e-06
-1.78686e-10
-1.93443e-06
4.87837e-10
-1.93519e-06
1.15418e-09
-1.93519e-06
1.78477e-09
-1.93449e-06
1.58627e-09
-1.78287e-06
2.00315e-10
-3.77812e-07
-1.8942e-19
2.11985e-13
1.13316e-21
-5.26865e-19
-1.98907e-21
1.81633e-09
-3.59533e-07
2.29841e-09
-1.77039e-06
1.41137e-09
-1.93354e-06
4.94578e-10
-1.93427e-06
-4.21992e-10
-1.93427e-06
-1.30906e-09
-1.9336e-06
-1.27742e-09
-1.78378e-06
-1.17668e-19
-3.80795e-07
-3.11231e-19
-1.06429e-21
6.6916e-20
-6.37561e-19
-8.19537e-21
4.30335e-09
-3.6518e-07
5.11355e-09
-1.77196e-06
2.81824e-09
-1.93124e-06
4.97637e-10
-1.93195e-06
-1.82279e-09
-1.93195e-06
-4.11773e-09
-1.9313e-06
-3.82642e-09
-1.78493e-06
-1.52464e-19
-3.86265e-07
-4.68156e-19
-5.9546e-21
1.75496e-19
-8.49945e-19
-1.58282e-20
6.55144e-09
-3.72975e-07
7.59357e-09
-1.7737e-06
4.05755e-09
-1.92771e-06
4.99771e-10
-1.92839e-06
-3.05771e-09
-1.92839e-06
-6.59349e-09
-1.92777e-06
-6.12544e-09
-1.7862e-06
-2.7398e-19
-3.93926e-07
-7.43795e-19
-1.18073e-20
3.45681e-19
-1.22387e-18
-2.64116e-20
8.59247e-09
-3.82721e-07
9.76518e-09
-1.77552e-06
5.14227e-09
-1.92308e-06
5.00772e-10
-1.92375e-06
-4.14044e-09
-1.92375e-06
-8.76313e-09
-1.92314e-06
-8.20845e-09
-1.7875e-06
-4.51218e-19
-4.03577e-07
-1.19305e-18
-2.15647e-20
6.24886e-19
-1.86395e-18
-4.23004e-20
1.0455e-08
-3.94247e-07
1.16552e-08
-1.77732e-06
6.08573e-09
-1.91751e-06
5.00357e-10
-1.91816e-06
-5.08477e-09
-1.91817e-06
-1.0654e-08
-1.91757e-06
-1.0105e-08
-1.78874e-06
-7.58573e-19
-4.1504e-07
-1.94122e-18
-3.76447e-20
1.08845e-18
-2.94579e-18
-6.72165e-20
1.21621e-08
-4.07412e-07
1.32907e-08
-1.77899e-06
6.90151e-09
-1.91112e-06
4.9865e-10
-1.91176e-06
-5.90416e-09
-1.91176e-06
-1.2293e-08
-1.91118e-06
-1.18393e-08
-1.78983e-06
-1.25404e-18
-4.28167e-07
-3.19237e-18
-4.05409e-20
1.83226e-18
-4.77168e-18
-6.90327e-20
1.37338e-08
-4.22098e-07
1.46955e-08
-1.78045e-06
7.60299e-09
-1.90403e-06
4.95891e-10
-1.90465e-06
-6.61135e-09
-1.90466e-06
-1.37047e-08
-1.90409e-06
-1.34319e-08
-1.79069e-06
-2.11853e-18
-4.42837e-07
-5.38326e-18
-5.65193e-20
3.51614e-18
-8.35094e-18
-7.67655e-20
1.51871e-08
-4.38206e-07
1.58941e-08
-1.78163e-06
8.20204e-09
-1.89634e-06
4.92361e-10
-1.89694e-06
-7.21818e-09
-1.89695e-06
-1.49123e-08
-1.8964e-06
-1.49006e-08
-1.79125e-06
-4.86939e-18
-4.58946e-07
-1.03382e-17
-6.07703e-20
8.46517e-18
-1.68737e-17
-8.56847e-20
1.6537e-08
-4.55647e-07
1.69117e-08
-1.78243e-06
8.71292e-09
-1.88814e-06
4.88325e-10
-1.88872e-06
-7.7367e-09
-1.88872e-06
-1.59372e-08
-1.8882e-06
-1.62607e-08
-1.79144e-06
-1.15877e-17
-4.76399e-07
-2.19482e-17
-7.92264e-20
1.99504e-17
-3.6812e-17
-1.15949e-19
1.77963e-08
-4.74336e-07
1.77814e-08
-1.78281e-06
9.14596e-09
-1.8795e-06
4.83926e-10
-1.88006e-06
-8.17796e-09
-1.88006e-06
-1.68168e-08
-1.87956e-06
-1.75255e-08
-1.79119e-06
-2.69752e-17
-4.95103e-07
-4.88701e-17
-1.16886e-19
4.63281e-17
-8.30487e-17
-1.6839e-19
1.89759e-08
-4.94189e-07
1.8512e-08
-1.78271e-06
9.51114e-09
-1.8705e-06
4.79337e-10
-1.87103e-06
-8.55231e-09
-1.87103e-06
-1.75567e-08
-1.87055e-06
-1.87063e-08
-1.79047e-06
-6.23019e-17
-5.14968e-07
-1.11046e-16
-1.65386e-19
1.07126e-16
-1.90005e-16
-2.25958e-19
2.00851e-08
-5.15124e-07
1.91285e-08
-1.78207e-06
9.81796e-09
-1.86119e-06
4.74617e-10
-1.86168e-06
-8.86858e-09
-1.86168e-06
-1.81824e-08
-1.86124e-06
-1.98129e-08
-1.78921e-06
-1.43747e-16
-5.359e-07
-2.54627e-16
-1.95061e-19
2.47849e-16
-4.37651e-16
-2.39174e-19
2.11323e-08
-5.37063e-07
1.96477e-08
-1.78086e-06
1.00748e-08
-1.85162e-06
4.69792e-10
-1.85208e-06
-9.13514e-09
-1.85208e-06
-1.87118e-08
-1.85166e-06
-2.08538e-08
-1.7874e-06
-3.32404e-16
-5.57817e-07
-5.86837e-16
-2.10495e-19
5.74995e-16
-1.01244e-15
-2.29766e-19
2.21242e-08
-5.59931e-07
2.00811e-08
-1.77905e-06
1.02891e-08
-1.84183e-06
4.6487e-10
-1.84225e-06
-9.35938e-09
-1.84225e-06
-1.9155e-08
-1.84187e-06
-2.18365e-08
-1.785e-06
-7.70916e-16
-5.80642e-07
-1.35759e-15
-1.67064e-19
1.33817e-15
-2.35046e-15
-1.68026e-19
2.3067e-08
-5.83658e-07
2.04437e-08
-1.77661e-06
1.04675e-08
-1.83185e-06
4.59798e-10
-1.83225e-06
-9.54791e-09
-1.83225e-06
-1.95277e-08
-1.83189e-06
-2.27675e-08
-1.78199e-06
-1.7938e-15
-6.04312e-07
-3.15127e-15
-1.19777e-19
3.12466e-15
-5.475e-15
-1.28522e-19
2.39657e-08
-6.08182e-07
2.07469e-08
-1.77353e-06
1.06155e-08
-1.82172e-06
4.54449e-10
-1.82208e-06
-9.70662e-09
-1.82209e-06
-1.98417e-08
-1.82175e-06
-2.36528e-08
-1.77837e-06
-4.18769e-15
-6.28773e-07
-7.33887e-15
-9.83073e-20
7.32045e-15
-1.27954e-14
-9.88925e-20
2.4825e-08
-6.33449e-07
2.09996e-08
-1.7698e-06
1.07381e-08
-1.81146e-06
4.48668e-10
-1.81179e-06
-9.84079e-09
-1.8118e-06
-2.01057e-08
-1.81149e-06
-2.44976e-08
-1.77412e-06
-9.80877e-15
-6.53979e-07
-1.71476e-14
-6.56317e-20
1.72079e-14
-3.00032e-14
-6.27882e-20
2.56491e-08
-6.59418e-07
2.12114e-08
-1.76543e-06
1.08396e-08
-1.80109e-06
4.42283e-10
-1.8014e-06
-9.9551e-09
-1.8014e-06
-2.03299e-08
-1.80111e-06
-2.53068e-08
-1.76925e-06
-2.30522e-14
-6.79887e-07
-4.01997e-14
-3.99765e-20
4.05878e-14
-7.0591e-14
-4.03197e-20
2.64422e-08
-6.86062e-07
2.139e-08
-1.76041e-06
1.09242e-08
-1.79062e-06
4.35163e-10
-1.79091e-06
-1.00538e-08
-1.79091e-06
-2.05225e-08
-1.79064e-06
-2.6085e-08
-1.76375e-06
-5.43608e-14
-7.06457e-07
-9.45605e-14
-2.57695e-20
9.60627e-14
-1.66654e-13
-2.26564e-20
2.72085e-08
-7.1336e-07
2.15429e-08
-1.75475e-06
1.09955e-08
-1.78007e-06
4.27348e-10
-1.78034e-06
-1.01408e-08
-1.78034e-06
-2.06906e-08
-1.78009e-06
-2.68366e-08
-1.75765e-06
-1.28633e-13
-7.33654e-07
-2.23194e-13
-1.25821e-20
2.28152e-13
-3.94806e-13
-9.93581e-21
2.79527e-08
-7.41292e-07
2.16772e-08
-1.74847e-06
1.10574e-08
-1.76945e-06
4.19041e-10
-1.7697e-06
-1.02192e-08
-1.7697e-06
-2.08413e-08
-1.76947e-06
-2.75662e-08
-1.75094e-06
-3.05445e-13
-7.61447e-07
-5.28638e-13
-5.57185e-21
5.4378e-13
-9.38586e-13
-5.03795e-21
2.86789e-08
-7.69832e-07
2.17993e-08
-1.74157e-06
1.1113e-08
-1.75877e-06
4.10571e-10
-1.759e-06
-1.02919e-08
-1.759e-06
-2.09804e-08
-1.75878e-06
-2.82781e-08
-1.74364e-06
-7.27844e-13
-7.89805e-07
-1.25648e-12
-2.7352e-21
1.30066e-12
-2.23924e-12
-2.49264e-21
2.93903e-08
-7.9895e-07
2.1914e-08
-1.73406e-06
1.11649e-08
-1.74802e-06
4.02161e-10
-1.74824e-06
-1.03606e-08
-1.74824e-06
-2.11118e-08
-1.74803e-06
-2.89744e-08
-1.73576e-06
-1.74054e-12
-8.18697e-07
-2.99702e-12
-1.50397e-21
3.1221e-12
-5.36134e-12
-1.26248e-21
3.00873e-08
-8.28619e-07
2.20242e-08
-1.72597e-06
1.12146e-08
-1.73721e-06
3.93838e-10
-1.73742e-06
-1.0427e-08
-1.73742e-06
-2.12386e-08
-1.73722e-06
-2.96556e-08
-1.72732e-06
-4.17699e-12
-8.48093e-07
-7.17401e-12
-6.30775e-22
7.52068e-12
-1.2882e-11
-3.77023e-22
3.0769e-08
-8.58818e-07
2.21321e-08
-1.7173e-06
1.12632e-08
-1.72634e-06
3.85529e-10
-1.72654e-06
-1.04922e-08
-1.72654e-06
-2.1363e-08
-1.72635e-06
-3.03209e-08
-1.71834e-06
-1.00588e-11
-8.77969e-07
-1.72328e-11
-1.56532e-22
1.81766e-11
-3.10587e-11
-7.00243e-23
3.14345e-08
-8.89532e-07
2.22397e-08
-1.70807e-06
1.13118e-08
-1.71541e-06
3.77204e-10
-1.7156e-06
-1.05575e-08
-1.7156e-06
-2.1487e-08
-1.71542e-06
-3.09698e-08
-1.70883e-06
-2.43006e-11
-9.08307e-07
-4.15334e-11
-2.81635e-23
4.40551e-11
-7.51137e-11
-1.93778e-23
3.20828e-08
-9.20741e-07
2.23486e-08
-1.69832e-06
1.13613e-08
-1.70442e-06
3.68716e-10
-1.70461e-06
-1.06241e-08
-1.70461e-06
-2.1613e-08
-1.70443e-06
-3.16023e-08
-1.69882e-06
-5.88532e-11
-9.39085e-07
-1.00387e-10
-9.76096e-24
1.06942e-10
-1.82055e-10
-5.27869e-24
3.27131e-08
-9.5238e-07
2.2461e-08
-1.68806e-06
1.14126e-08
-1.69337e-06
3.59899e-10
-1.69356e-06
-1.06931e-08
-1.69356e-06
-2.1743e-08
-1.69338e-06
-3.22183e-08
-1.68834e-06
-1.42643e-10
-9.70239e-07
-2.4303e-10
-6.64265e-24
2.59188e-10
-4.41243e-10
-2.59567e-24
3.32922e-08
-9.84306e-07
2.25769e-08
-1.67733e-06
1.14658e-08
-1.68226e-06
3.50583e-10
-1.68244e-06
-1.07652e-08
-1.68244e-06
-2.18783e-08
-1.68227e-06
-3.26622e-08
-1.67755e-06
-3.44553e-10
-1.00148e-06
-5.87584e-10
-5.1148e-24
6.22626e-10
-1.06387e-09
-1.94897e-24
3.35874e-08
-1.016e-06
2.26962e-08
-1.66644e-06
1.15202e-08
-1.67109e-06
3.41195e-10
-1.67126e-06
-1.08386e-08
-1.67126e-06
-2.20171e-08
-1.67109e-06
-3.29377e-08
-1.66663e-06
-8.21505e-10
-1.03235e-06
-1.40909e-09
-2.46255e-24
1.4586e-09
-2.52252e-09
-8.60269e-25
3.37982e-08
-1.0469e-06
2.28104e-08
-1.65545e-06
1.15702e-08
-1.65985e-06
3.31617e-10
-1.66002e-06
-1.09077e-08
-1.66002e-06
-2.21508e-08
-1.65985e-06
-3.31612e-08
-1.65562e-06
-1.89381e-09
-1.06219e-06
-3.30298e-09
-9.97888e-25
3.22706e-09
-5.75005e-09
-4.4563e-25
3.39799e-08
-1.07606e-06
2.29022e-08
-1.64437e-06
1.16049e-08
-1.64855e-06
3.19505e-10
-1.64874e-06
-1.09653e-08
-1.64874e-06
-2.22622e-08
-1.64855e-06
-3.33634e-08
-1.64452e-06
-4.06215e-09
-1.08988e-06
-7.36591e-09
-3.968e-25
6.72413e-09
-1.24785e-08
-2.24411e-25
3.41342e-08
-1.10187e-06
2.29657e-08
-1.63321e-06
1.16226e-08
-1.63721e-06
2.97149e-10
-1.63741e-06
-1.10263e-08
-1.63742e-06
-2.2364e-08
-1.63721e-06
-3.35446e-08
-1.63333e-06
-8.73045e-09
-1.11305e-06
-1.61027e-08
-1.9872e-25
1.10805e-08
-2.27354e-08
-3.23034e-25
3.433e-08
-1.12353e-06
2.30846e-08
-1.62196e-06
1.16741e-08
-1.6258e-06
2.74893e-10
-1.62601e-06
-1.11238e-08
-1.62602e-06
-2.25313e-08
-1.6258e-06
-3.37709e-08
-1.62209e-06
-1.13387e-08
-1.13385e-06
-2.65633e-08
-3.15451e-25
1.23127e-08
-3.43974e-08
-3.84179e-25
3.45771e-08
-1.14401e-06
2.32763e-08
-1.61066e-06
1.17775e-08
-1.6143e-06
2.8196e-10
-1.61452e-06
-1.12128e-08
-1.61452e-06
-2.27082e-08
-1.61431e-06
-3.40049e-08
-1.6108e-06
-1.23964e-08
-1.1536e-06
-3.82949e-08
-4.64937e-25
1.3143e-08
-4.67244e-08
-4.7835e-25
3.47941e-08
-1.16372e-06
2.34338e-08
-1.5993e-06
1.1868e-08
-1.60273e-06
3.01153e-10
-1.60295e-06
-1.12635e-08
-1.60296e-06
-2.28233e-08
-1.60275e-06
-3.41837e-08
-1.59944e-06
-1.32288e-08
-1.17253e-06
-5.06604e-08
-4.55809e-25
1.41096e-08
-5.98649e-08
-3.50641e-25
3.50062e-08
-1.18255e-06
2.35692e-08
-1.58786e-06
1.1937e-08
-1.5911e-06
3.02797e-10
-1.59132e-06
-1.133e-08
-1.59132e-06
-2.2959e-08
-1.59112e-06
-3.44026e-08
-1.58799e-06
-1.41781e-08
-1.19058e-06
-6.38119e-08
-2.75145e-25
1.51363e-08
-7.38554e-08
-1.96658e-25
3.52914e-08
-1.20053e-06
2.37499e-08
-1.57632e-06
1.20236e-08
-1.57937e-06
2.96115e-10
-1.57959e-06
-1.14308e-08
-1.5796e-06
-2.31559e-08
-1.57939e-06
-3.47057e-08
-1.57644e-06
-1.51946e-08
-1.20779e-06
-7.77858e-08
-1.3105e-25
1.62486e-08
-8.87742e-08
-9.71654e-26
3.56376e-08
-1.21767e-06
2.39739e-08
-1.56465e-06
1.2131e-08
-1.56753e-06
2.87094e-10
-1.56775e-06
-1.15566e-08
-1.56775e-06
-2.33991e-08
-1.56755e-06
-3.50716e-08
-1.56477e-06
-1.62952e-08
-1.22418e-06
-9.26588e-08
-6.40013e-26
1.74494e-08
-1.04708e-07
-4.89059e-26
3.60353e-08
-1.23398e-06
2.42342e-08
-1.55285e-06
1.22565e-08
-1.55555e-06
2.77471e-10
-1.55577e-06
-1.17016e-08
-1.55577e-06
-2.36795e-08
-1.55557e-06
-3.54901e-08
-1.55296e-06
-1.74844e-08
-1.23975e-06
-1.08515e-07
-3.8019e-26
1.87468e-08
-1.21761e-07
-3.24993e-26
3.64765e-08
-1.24947e-06
2.45245e-08
-1.5409e-06
1.23969e-08
-1.54342e-06
2.67365e-10
-1.54364e-06
-1.18625e-08
-1.54364e-06
-2.39912e-08
-1.54345e-06
-3.59536e-08
-1.54099e-06
-1.877e-08
-1.25453e-06
-1.25456e-07
-2.80162e-26
2.01482e-08
-1.40064e-07
-2.6311e-26
3.69533e-08
-1.26416e-06
2.48393e-08
-1.52879e-06
1.25495e-08
-1.53114e-06
2.5679e-10
-1.53135e-06
-1.20366e-08
-1.53135e-06
-2.43286e-08
-1.53115e-06
-3.64544e-08
-1.52887e-06
-2.01589e-08
-1.2685e-06
-1.43605e-07
-2.24707e-26
2.16608e-08
-1.59777e-07
-2.23124e-26
3.74562e-08
-1.27804e-06
2.51721e-08
-1.5165e-06
1.2711e-08
-1.51867e-06
2.4601e-10
-1.51888e-06
-1.22202e-08
-1.51889e-06
-2.46848e-08
-1.51869e-06
-3.69822e-08
-1.51657e-06
-2.16578e-08
-1.2817e-06
-1.63119e-07
-1.83676e-26
2.32908e-08
-1.81117e-07
-1.9256e-26
3.79728e-08
-1.29114e-06
2.55145e-08
-1.50404e-06
1.28775e-08
-1.50604e-06
2.35538e-10
-1.50624e-06
-1.24083e-08
-1.50624e-06
-2.50506e-08
-1.50605e-06
-3.75241e-08
-1.5041e-06
-2.32724e-08
-1.29414e-06
-1.84205e-07
-1.44942e-26
2.50445e-08
-2.04374e-07
-1.64575e-26
3.8488e-08
-1.30346e-06
2.58562e-08
-1.49141e-06
1.3044e-08
-1.49322e-06
2.25864e-10
-1.49342e-06
-1.25949e-08
-1.49342e-06
-2.54143e-08
-1.49323e-06
-3.80637e-08
-1.49145e-06
-2.50082e-08
-1.30583e-06
-2.07146e-07
-1.04368e-26
2.6927e-08
-2.29926e-07
-1.30837e-26
3.89835e-08
-1.31494e-06
2.61844e-08
-1.47861e-06
1.32043e-08
-1.48024e-06
2.17316e-10
-1.48043e-06
-1.2773e-08
-1.48043e-06
-2.57627e-08
-1.48024e-06
-3.85824e-08
-1.47863e-06
-2.68698e-08
-1.31672e-06
-2.32317e-07
-6.52786e-27
2.89414e-08
-2.58218e-07
-9.11201e-27
3.94399e-08
-1.32547e-06
2.64851e-08
-1.46566e-06
1.33512e-08
-1.46711e-06
2.10004e-10
-1.46729e-06
-1.29354e-08
-1.46728e-06
-2.60813e-08
-1.46709e-06
-3.90597e-08
-1.46565e-06
-2.88598e-08
-1.32672e-06
-2.60165e-07
-3.21223e-27
3.10851e-08
-2.89694e-07
-5.00493e-27
3.98377e-08
-1.33483e-06
2.67444e-08
-1.45256e-06
1.34776e-08
-1.45384e-06
2.03855e-10
-1.45402e-06
-1.30749e-08
-1.45401e-06
-2.63559e-08
-1.45381e-06
-3.94758e-08
-1.45253e-06
-3.09759e-08
-1.33561e-06
-2.91148e-07
-1.07107e-27
3.33439e-08
-3.24668e-07
-1.99456e-27
4.01599e-08
-1.34267e-06
2.69497e-08
-1.43935e-06
1.3577e-08
-1.44047e-06
1.98507e-10
-1.44064e-06
-1.31855e-08
-1.44062e-06
-2.65745e-08
-1.44042e-06
-3.98135e-08
-1.43929e-06
-3.32049e-08
-1.34307e-06
-3.25607e-07
-3.40763e-28
3.56866e-08
-3.63183e-07
-7.48054e-28
4.03941e-08
-1.34862e-06
2.70918e-08
-1.42605e-06
1.36439e-08
-1.42702e-06
1.93102e-10
-1.42719e-06
-1.32636e-08
-1.42717e-06
-2.67289e-08
-1.42696e-06
-4.00612e-08
-1.42596e-06
-3.55182e-08
-1.34872e-06
-3.63622e-07
-1.25537e-28
3.8063e-08
-4.04928e-07
-3.09179e-28
4.05339e-08
-1.35232e-06
2.71649e-08
-1.41268e-06
1.36744e-08
-1.41353e-06
1.86024e-10
-1.4137e-06
-1.33083e-08
-1.41367e-06
-2.68163e-08
-1.41345e-06
-4.0215e-08
-1.41256e-06
-3.78691e-08
-1.3522e-06
-4.04915e-07
-3.78895e-29
4.04115e-08
-4.49284e-07
-1.2093e-28
4.05801e-08
-1.3535e-06
2.71679e-08
-1.39927e-06
1.3666e-08
-1.40003e-06
1.7473e-10
-1.40021e-06
-1.33221e-08
-1.40017e-06
-2.68403e-08
-1.39993e-06
-4.02801e-08
-1.39912e-06
-4.01999e-08
-1.35324e-06
-4.48878e-07
-1.41929e-29
4.26744e-08
-4.95521e-07
-5.4098e-29
4.05423e-08
-1.35209e-06
2.71046e-08
-1.38583e-06
1.36182e-08
-1.38654e-06
1.55852e-10
-1.38675e-06
-1.33111e-08
-1.38671e-06
-2.68111e-08
-1.38643e-06
-4.0272e-08
-1.38566e-06
-4.24576e-08
-1.35173e-06
-4.94767e-07
-4.65817e-30
4.48175e-08
-5.43029e-07
-1.74853e-29
4.04411e-08
-1.34812e-06
2.69858e-08
-1.37238e-06
1.35336e-08
-1.37309e-06
1.25547e-10
-1.37334e-06
-1.32856e-08
-1.3733e-06
-2.67469e-08
-1.37297e-06
-4.02181e-08
-1.37219e-06
-4.46131e-08
-1.34772e-06
-5.41955e-07
-8.27185e-31
4.68455e-08
-5.91475e-07
-3.89613e-30
4.03132e-08
-1.34177e-06
2.68325e-08
-1.3589e-06
1.342e-08
-1.35968e-06
8.03199e-11
-1.36e-06
-1.32603e-08
-1.35996e-06
-2.66755e-08
-1.35955e-06
-4.01614e-08
-1.3587e-06
-4.66768e-08
-1.34136e-06
-5.90113e-07
-2.30202e-31
4.88117e-08
-6.40815e-07
-1.04318e-30
4.02182e-08
-1.33321e-06
2.66822e-08
-1.34536e-06
1.32943e-08
-1.34629e-06
1.83954e-11
-1.34672e-06
-1.32556e-08
-1.34668e-06
-2.66376e-08
-1.34617e-06
-4.01644e-08
-1.34517e-06
-4.87068e-08
-1.33284e-06
-6.39244e-07
-3.41812e-32
5.08247e-08
-6.9123e-07
-1.29692e-31
4.02506e-08
-1.32259e-06
2.65968e-08
-1.33171e-06
1.31873e-08
-1.33288e-06
-5.82843e-11
-1.33348e-06
-1.32984e-08
-1.33344e-06
-2.66911e-08
-1.33278e-06
-4.03176e-08
-1.33155e-06
-5.08107e-08
-1.32231e-06
-6.89611e-07
-5.85606e-33
5.30521e-08
-7.43067e-07
-1.54614e-32
4.05424e-08
-1.31007e-06
2.66668e-08
-1.31783e-06
1.31466e-08
-1.31936e-06
-1.41745e-10
-1.32019e-06
-1.34204e-08
-1.32016e-06
-2.69109e-08
-1.31929e-06
-4.07379e-08
-1.31772e-06
-5.31438e-08
-1.30989e-06
-7.41618e-07
-1.96232e-34
5.51586e-08
-7.96398e-07
5.72133e-36
4.12428e-08
-1.29614e-06
2.69889e-08
-1.30358e-06
1.32233e-08
-1.3056e-06
-2.16509e-10
-1.30675e-06
-1.36421e-08
-1.30674e-06
-2.73643e-08
-1.30557e-06
-4.15468e-08
-1.30354e-06
-5.53604e-08
-1.29606e-06
-7.9534e-07
-2.88497e-36
5.70812e-08
-8.51295e-07
3.2909e-35
4.23918e-08
-1.28144e-06
2.75753e-08
-1.28876e-06
1.34276e-08
-1.29145e-06
-2.60481e-10
-1.29306e-06
-1.3931e-08
-1.29307e-06
-2.80242e-08
-1.29147e-06
-4.27506e-08
-1.28881e-06
-5.73147e-08
-1.2815e-06
-8.50714e-07
-1.89549e-36
5.9131e-08
-9.08233e-07
1.61049e-35
4.36195e-08
-1.26593e-06
2.81709e-08
-1.27331e-06
1.36886e-08
-1.27697e-06
-2.49926e-10
-1.27912e-06
-1.41712e-08
-1.27915e-06
-2.85998e-08
-1.27704e-06
-4.39565e-08
-1.27346e-06
-5.93361e-08
-1.26612e-06
-9.08086e-07
3.12384e-38
5.9892e-08
-9.66293e-07
2.29393e-36
4.33255e-08
-1.24936e-06
2.80209e-08
-1.25801e-06
1.39843e-08
-1.26293e-06
-1.6958e-10
-1.26497e-06
-1.43124e-08
-1.265e-06
-2.83224e-08
-1.26303e-06
-4.35732e-08
-1.25821e-06
-6.0035e-08
-1.24965e-06
-9.66448e-07
2.48233e-38