/*--------------------------------*- C++ -*----------------------------------*\
  =========                 |
  \\      /  F ield         | OpenFOAM: The Open Source CFD Toolbox
   \\    /   O peration     | Website:  https://openfoam.org
    \\  /    A nd           | Version:  8
     \\/     M anipulation  |
\*---------------------------------------------------------------------------*/
FoamFile
{
    version     2.0;
    format      ascii;
    class       volScalarField;
    location    "0.4";
    object      epsilon;
}
// * * * * * * * * * * * * * * * * * * * * * * * * * * * * * * * * * * * * * //

dimensions      [0 2 -3 0 0 0 0];

internalField   nonuniform List<scalar> 
9150
(
0.0378451
0.015631
0.00426429
0.00154167
0.00113847
0.00113847
0.00154167
0.00426429
0.015631
0.0378451
0.036656
0.0113448
0.00259397
0.00105564
0.00089082
0.00089082
0.00105564
0.00259397
0.0113448
0.036656
0.0346039
0.00926785
0.00184072
0.000882831
0.000810611
0.000810611
0.000882831
0.00184072
0.00926785
0.0346039
0.0323678
0.00820851
0.00179134
0.000824458
0.000788101
0.000788101
0.000824457
0.00179134
0.00820851
0.0323678
0.0300274
0.00778638
0.00373934
0.000805626
0.000786686
0.000786686
0.000805626
0.00373934
0.00778639
0.0300274
0.14643
0.0621101
0.029958
0.0241619
0.0236242
0.0236243
0.0241622
0.0299584
0.0621114
0.146431
0.0904106
0.0277239
0.0168696
0.0150636
0.0150738
0.0150739
0.0150637
0.0168697
0.0277241
0.0904106
0.0661644
0.0217489
0.00979432
0.00774859
0.00757651
0.00757652
0.0077486
0.00979435
0.0217489
0.0661644
0.0511238
0.0187251
0.0063205
0.00386967
0.00347758
0.00347758
0.00386967
0.00632051
0.0187251
0.0511238
0.0430082
0.0170263
0.00477054
0.00216779
0.00175026
0.00175026
0.00216779
0.00477054
0.0170263
0.0430082
2.05313
0.216678
0.0635106
0.0330524
0.0270448
0.0270422
0.0330403
0.0634749
0.216437
2.05262
0.320066
0.131154
0.0558248
0.0323846
0.0274111
0.0274105
0.032383
0.0558207
0.131127
0.320058
0.270696
0.117815
0.0554183
0.0323821
0.027903
0.027903
0.0323817
0.0554172
0.117807
0.270696
0.228817
0.106434
0.0549898
0.0322307
0.028402
0.0284022
0.0322309
0.0549901
0.106434
0.228817
0.183419
0.101212
0.050986
0.0308051
0.0281352
0.0281355
0.0308056
0.0509867
0.101214
0.18342
204.557
207.402
209.258
210.258
210.578
210.583
210.28
209.304
207.477
204.663
81.4569
82.569
83.3708
83.8855
84.136
84.1399
83.8976
83.3916
82.5993
81.4973
59.1572
59.93
60.5017
60.8796
61.0692
61.0724
60.8891
60.5177
59.9525
59.1865
50.5247
51.0719
51.477
51.7452
51.8802
51.8828
51.7531
51.49
51.0902
50.5481
46.3444
46.6852
46.9357
47.1012
47.1845
47.1867
47.1078
46.9465
46.7
46.363
44.4179
44.5503
44.6476
44.7123
44.7456
44.7475
44.7181
44.6568
44.5625
44.4323
43.8465
43.7776
43.7271
43.6954
43.681
43.6828
43.7008
43.7357
43.7886
43.8589
44.0395
43.8188
43.6519
43.5423
43.4891
43.4911
43.5484
43.6618
43.8322
44.0558
44.5984
44.2979
44.0634
43.9052
43.8271
43.8298
43.9132
44.0766
44.3165
44.6229
45.3272
44.9984
44.7357
44.5538
44.4629
44.4663
44.5642
44.7531
45.0231
45.3589
46.1835
45.8243
45.5442
45.3482
45.2497
45.2541
45.3614
45.5662
45.8555
46.2228
47.1135
46.7166
46.4152
46.2042
46.0977
46.103
46.2201
46.442
46.7546
47.1625
48.1085
47.6501
47.3073
47.07
46.9503
46.9565
47.0887
47.3386
47.6939
48.1645
49.1524
48.5976
48.1879
47.9104
47.7708
47.7779
47.9319
48.2239
48.6478
49.2164
50.1958
49.5183
49.0247
48.6967
48.5326
48.5407
48.721
49.0653
49.5746
50.266
51.1884
50.3769
49.789
49.4028
49.2107
49.2197
49.43
49.8348
50.4412
51.2707
52.1014
51.1487
50.4577
50.006
49.7826
49.7924
50.0358
50.5079
51.2198
52.194
52.9
51.8044
51.0078
50.488
50.2321
50.2427
50.5201
51.0622
51.8823
53.0029
53.5573
52.3247
51.4256
50.8386
50.5501
50.5609
50.8715
51.4817
52.4061
53.6667
54.0708
52.708
51.7089
51.0554
50.734
50.7442
51.0867
51.7627
52.7868
54.1786
54.4523
52.96
51.8606
51.1392
50.7839
50.7928
51.1666
51.9078
53.0297
54.5492
54.7113
53.0841
51.8806
51.0893
50.6988
50.706
51.1112
51.9178
53.138
54.7847
54.8457
53.0717
51.7611
50.8997
50.4741
50.4797
50.9165
51.7891
53.1108
54.8951
54.7879
52.8893
51.4847
50.5607
50.1037
50.1081
50.5743
51.5081
52.9237
54.8359
54.5398
52.5347
51.0497
50.0715
49.587
49.5903
50.0816
51.0673
52.5613
54.5778
54.1087
52.0141
50.4617
49.438
48.9301
48.932
49.4441
50.4726
52.031
54.1337
53.5061
51.3384
49.731
48.6701
48.143
48.1435
48.6719
49.7346
51.3447
53.5166
52.746
50.5212
48.8709
47.7809
47.2386
47.2378
47.7785
48.8672
50.5169
52.7422
51.8439
49.5774
47.896
46.7848
46.2313
46.2292
46.7785
47.8856
49.5634
51.8268
50.8166
48.5235
46.8221
45.6973
45.1364
45.1331
45.6875
46.8058
48.5008
50.7878
49.6824
47.3767
45.6657
44.5342
43.9695
43.9652
44.5213
45.6441
47.3464
49.6435
48.4605
46.1547
44.4435
43.3115
42.7461
42.7409
43.2959
44.4173
46.1178
48.4128
47.1699
44.8749
43.1717
42.0446
41.4813
41.4754
42.0267
43.1416
44.8325
47.1147
45.8289
43.5542
41.8657
40.7482
40.1893
40.1827
40.7283
41.8323
43.5069
45.7674
44.4545
42.2077
40.5397
39.4355
38.8829
38.8758
39.414
40.5036
42.1565
44.3878
43.0622
40.8495
39.2063
38.1183
37.5736
37.566
38.0955
39.168
40.7951
42.9913
41.6654
39.4912
37.8763
36.8067
36.2709
36.263
36.7829
37.8363
39.4345
41.5913
40.275
38.1426
36.5583
35.5087
34.9827
34.9746
35.4842
36.5172
38.0843
40.1987
38.9001
36.8116
35.2595
34.231
33.7155
33.7073
34.2063
35.2178
36.7524
38.8225
37.5479
35.5046
33.9858
32.9792
32.4745
32.4662
32.9544
33.944
35.4452
37.47
36.2239
34.2265
32.7415
31.7572
31.2636
31.2555
31.7327
32.7001
34.1676
36.1466
34.9325
32.9812
31.5301
30.5683
30.0859
30.0779
30.5442
31.4895
32.9233
34.8566
33.6767
31.7712
30.354
29.4146
28.9434
28.9356
29.3911
30.3145
31.715
33.6029
32.4587
30.5985
29.2148
28.2975
27.8375
27.83
28.2749
29.1767
30.5443
32.3876
31.2803
29.4644
28.1134
27.2178
26.7687
26.7615
27.1962
28.077
29.4125
31.2122
30.1422
28.3694
27.0503
26.1757
25.7372
25.7303
26.1551
27.0155
28.32
30.0774
29.045
27.3136
26.0251
25.1707
24.7423
24.7358
25.1511
25.992
27.2668
28.9836
27.9886
26.2966
25.037
24.2017
23.7829
23.7767
24.183
25.0056
26.2522
27.9306
26.9724
25.3172
24.0845
23.2669
22.857
22.8511
23.249
24.0545
25.2749
26.9175
25.9951
24.3736
23.1655
22.3641
21.9622
21.9564
22.3466
23.1365
24.3329
25.9427
25.0544
23.463
22.2769
21.4899
21.0951
21.0893
21.4725
22.2482
23.423
25.0035
24.1468
22.5817
21.415
20.6406
20.252
20.246
20.6227
21.3855
22.5411
24.0957
23.2669
21.7247
20.5751
19.8119
19.4288
19.4224
19.7929
20.5437
21.6817
23.2132
22.4076
20.8862
19.7524
18.9998
18.6216
18.6146
18.9788
19.7179
20.8387
22.3483
21.5607
20.0603
18.9426
18.2007
17.8276
17.8198
18.1775
18.9041
20.0069
21.493
20.7199
19.2433
18.1432
17.4128
17.0451
17.0366
17.3873
18.1006
19.1836
20.6433
19.8851
18.4348
17.354
16.6361
16.2743
16.2652
16.6088
17.3083
18.3705
19.8017
19.0616
17.6382
16.5767
15.8714
15.5156
15.5062
15.843
16.5292
17.5713
18.9749
18.2546
16.8559
15.8128
15.1195
14.7696
14.7599
15.0904
15.7641
16.7876
18.1665
17.4637
16.0877
15.0617
14.38
14.0359
14.026
14.3503
15.0121
16.018
17.3741
16.6841
15.3304
14.3218
13.6519
13.3137
13.3036
13.6216
14.2711
15.259
16.5919
15.9107
14.5815
13.5917
12.9345
12.6027
12.5925
12.9038
13.5401
14.5086
15.8161
15.1426
13.8404
12.8714
12.2284
11.9038
11.8935
12.1976
12.8196
13.767
15.0468
14.3807
13.1083
12.1622
11.5349
11.2183
11.2082
11.5046
12.1111
13.0354
14.2851
13.6262
12.3868
11.4662
10.8562
10.5485
10.5388
10.8269
11.4167
12.316
13.5328
12.8813
11.6787
10.7862
10.1952
9.89731
9.8881
10.1674
10.7393
11.6117
12.7928
12.1506
10.9882
10.1258
9.55505
9.26745
9.25883
9.52909
10.0822
10.9263
12.0696
11.441
10.3203
9.489
8.9387
8.66143
8.65331
8.91437
9.44847
10.2635
11.368
10.7554
9.67923
8.87907
8.34828
8.08058
8.07275
8.32493
8.84051
9.62573
10.6868
10.1207
9.07612
8.29952
7.78432
7.52435
7.51648
7.76107
8.26196
9.0262
10.0616
9.52495
8.50247
7.74462
7.24267
6.9893
6.98086
7.21776
7.7045
8.44944
9.46254
8.94094
7.94378
7.2065
6.71881
6.47238
6.463
6.69109
7.1616
7.88382
8.86914
8.36133
7.39552
6.68268
6.21155
5.97307
5.96265
6.18065
6.63233
7.32758
8.27863
7.78841
6.85931
6.17458
5.72229
5.49289
5.48148
5.68837
6.11905
6.78383
7.6955
7.22703
6.3388
5.6851
5.25352
5.03414
5.02186
5.21694
5.62506
6.25688
7.12563
6.68226
5.83783
5.21723
4.8077
4.59905
4.58601
4.76883
5.15333
5.7505
6.57402
6.15838
5.35957
4.7734
4.38679
4.18934
4.17562
4.34587
4.70605
5.26742
6.04413
5.65827
4.90614
4.35519
3.99203
3.80606
3.79173
3.94925
4.28464
4.80937
5.538
5.18349
4.47874
3.96346
3.62403
3.44971
3.43485
3.5796
3.88997
4.37751
5.05705
4.7349
4.07793
3.5985
3.28286
3.12024
3.10496
3.23709
3.52254
3.97276
4.60265
4.31324
3.70402
3.26021
2.96815
2.81717
2.80162
2.92149
3.18248
3.59581
4.17621
3.91917
3.357
2.94813
2.67912
2.53957
2.52394
2.63209
2.86947
3.24691
3.77882
3.55292
3.03644
2.66134
2.41459
2.28613
2.27057
2.36771
2.58264
2.92568
3.41074
3.214
2.74136
2.39852
2.17297
2.05514
2.03985
2.12678
2.32064
2.63111
3.07145
2.90123
2.47025
2.15794
1.95242
1.84468
1.82982
1.90743
2.08176
2.36174
2.7598
2.613
2.22134
1.93768
1.75091
1.65268
1.63841
1.70762
1.86405
2.1158
2.4743
2.34748
1.9927
1.73573
1.56638
1.47705
1.46352
1.52526
1.66549
1.89136
2.21319
2.10276
1.78235
1.5501
1.39684
1.31577
1.30313
1.35832
1.48403
1.68642
1.97458
1.87692
1.5884
1.37891
1.2404
1.16698
1.15534
1.20487
1.31769
1.49896
1.75644
1.66808
1.40906
1.22045
1.09539
1.02898
1.01844
1.06314
1.16465
1.32704
1.55674
1.47445
1.24272
1.07323
0.960375
0.900339
0.890971
0.931634
1.02329
1.16888
1.37346
1.29445
1.08807
0.936067
0.834173
0.779845
0.771691
0.809089
0.892279
1.02295
1.20476
1.1268
0.94417
0.80814
0.715904
0.6665
0.659578
0.694544
0.770669
0.888119
1.04908
0.97074
0.810681
0.689124
0.604951
0.559392
0.553699
0.58731
0.657991
0.763833
0.905371
0.826397
0.688187
0.579344
0.500888
0.457432
0.452951
0.486899
0.554436
0.650452
0.773446
0.695513
0.578799
0.479992
0.403309
0.358936
0.355642
0.392854
0.461066
0.549855
0.654697
0.583023
0.48721
0.393138
0.311454
0.261412
0.259275
0.304378
0.379834
0.466469
0.553629
0.500743
0.422075
0.319927
0.223396
0.163646
0.162584
0.219445
0.311765
0.408687
0.481551
0.482528
0.395803
0.251742
0.135844
0.0762704
0.075984
0.134413
0.248012
0.388702
0.47187
0.682824
0.394537
0.156767
0.0584864
0.0320331
0.0320009
0.0582935
0.155971
0.392211
0.678792
200.372
194.685
187.62
179.25
169.759
159.418
148.542
137.438
126.368
115.675
106.144
97.3873
89.2355
81.6166
74.4978
67.8593
61.6832
55.9492
50.6339
45.7111
41.1538
36.9352
33.0303
29.4166
26.0747
22.9874
20.1405
17.5214
15.1192
12.9238
10.9253
9.11396
7.48099
6.01615
4.67693
3.62998
2.90827
2.31684
1.83627
1.45891
79.9737
77.9856
75.6186
72.9235
69.9776
66.8695
63.6804
60.4716
57.2917
54.2223
51.368
48.5915
45.8328
43.073
40.3211
37.6016
34.9421
32.3664
29.893
27.5345
25.2982
23.1866
21.1986
19.3305
17.5769
15.9317
14.3882
12.9396
11.579
10.2996
9.09489
7.95766
6.88032
5.86276
4.91876
4.09509
3.45383
3.02339
2.89129
4.43219
58.1529
56.8116
55.2326
53.4551
51.5381
49.5466
47.5337
45.5327
43.5607
41.6316
39.7663
37.9294
36.098
34.2596
32.4122
30.5639
28.7281
26.9185
25.1478
23.4277
21.7677
20.1743
18.6517
17.2018
15.8246
14.5187
13.2818
12.1107
11.0017
9.95041
8.95233
8.00407
7.10436
6.26035
5.49739
4.86321
4.42458
4.28806
4.75144
9.11884
49.8148
48.8518
47.7026
46.3882
44.9464
43.4182
41.8395
40.24
38.635
37.0338
35.4485
33.873
32.3054
30.7441
29.1882
27.6408
26.1077
24.5939
23.1051
21.6492
20.2339
18.8655
17.5486
16.2862
15.0797
13.9291
12.8339
11.7926
10.8037
9.86536
8.97638
8.13732
7.35255
6.63401
6.00742
5.51875
5.24681
5.35157
6.37602
13.5479
45.9009
45.2779
44.5074
43.5825
42.4946
41.2484
39.8763
38.4378
36.9532
35.4327
33.8953
32.3566
30.8303
29.3248
27.8408
26.3824
24.9517
23.5469
22.1678
20.8193
19.5069
18.2358
17.0108
15.8354
14.7112
13.639
12.6184
11.6491
10.7305
9.86249
9.04616
8.28469
7.58528
6.96167
6.43833
6.05792
5.90092
6.16503
7.61797
17.2416
44.2484
43.9817
43.6177
43.1201
42.3993
41.3913
40.0432
38.5948
37.091
35.5056
33.8722
32.2334
30.6221
29.0624
27.5486
26.0796
24.6507
23.2499
21.8767
20.5424
19.2495
18.0013
16.8018
15.6544
14.5608
13.5217
12.5367
11.6057
10.7283
9.90531
9.13863
8.43255
7.79515
7.24045
6.79184
6.49072
6.42113
6.81086
8.59377
20.2217
43.9441
44.0372
44.1444
44.2569
43.9647
42.6413
40.9658
39.36
37.7874
36.1741
34.512
32.8262
31.1277
29.4562
27.8754
26.3745
24.9274
23.4873
22.0563
20.6728
19.3334
18.0495
16.8258
15.6644
14.5654
13.5283
12.5521
11.6358
10.7789
9.98204
9.24713
8.57856
7.98432
7.47808
7.08325
6.84259
6.84738
7.35241
9.41412
22.653
44.3415
44.7119
45.1773
45.5577
45.0957
43.6654
41.9967
40.2846
38.5806
36.875
35.1571
33.4318
31.7128
30.0342
28.4349
26.9049
25.4157
23.9727
22.5534
21.1274
19.7
18.3344
17.044
15.8327
14.6987
13.6388
12.65
11.7298
10.8767
10.0906
9.37288
8.72741
8.16174
7.68928
7.33387
7.14093
7.21023
7.82121
10.1306
24.6515
45.0228
45.5774
46.2739
46.3949
45.5955
44.3959
42.9012
41.2214
39.4666
37.688
35.9024
34.1192
32.3526
30.6278
28.9692
27.3831
25.8685
24.4345
23.0551
21.6541
20.2401
18.8055
17.4231
16.1373
14.9458
13.8432
12.8242
11.8846
11.0214
10.2333
9.52062
8.88663
8.33827
7.88872
7.56253
7.40797
7.53297
8.23898
10.7667
26.3063
45.7923
46.3746
46.9705
47.029
46.427
45.3816
43.9622
42.2984
40.5078
38.6607
36.7948
34.9331
33.0952
31.302
29.5722
27.9168
26.3414
24.8476
23.4225
22.0447
20.7053
19.3343
17.9145
16.5473
15.2867
14.1287
13.0672
12.0964
11.2122
10.4118
9.69475
9.06317
8.52347
8.08869
7.78409
7.66062
7.83338
8.62283
11.3385
27.6833
46.7115
47.3567
47.8311
47.8527
47.435
46.517
45.1642
43.5152
41.6911
39.7745
37.819
35.862
33.9303
32.0467
30.2296
28.4921
26.8423
25.283
23.8089
22.409
21.0667
19.7491
18.419
17.0301
15.697
14.4763
13.3651
12.3564
11.4442
10.6249
9.89672
9.26111
8.72384
8.29785
8.00911
7.91089
8.1243
8.98571
11.8604
28.8456
47.7233
48.4513
48.9435
49.0301
48.6812
47.8075
46.4826
44.8339
42.9745
40.9904
38.9453
36.8869
34.8502
32.8625
30.9449
29.1129
27.3768
25.7417
24.2068
22.7652
21.403
20.0958
18.8095
17.4988
16.1405
14.8581
13.6968
12.6491
11.7074
10.8665
10.1239
9.48058
8.94187
8.52071
8.24371
8.16617
8.41418
9.33722
12.3458
29.8541
48.8138
49.6188
50.2037
50.392
50.0669
49.2015
47.8807
46.2195
44.3221
42.2738
40.1434
37.9854
35.8417
33.745
31.7203
29.7866
27.9565
26.2373
24.6303
23.1307
21.7266
20.3974
19.114
17.8386
16.5368
15.2353
14.0358
12.9557
11.9882
11.1273
10.3704
9.71834
9.17651
8.758
8.49013
8.42996
8.70786
9.68432
12.8079
30.7638
49.9921
50.886
51.5701
51.8366
51.5288
50.6617
49.3317
47.6483
45.7096
43.5997
41.3894
39.1373
36.8904
34.686
32.5535
30.5152
28.5867
26.7775
25.0904
23.5216
22.0602
20.688
19.3809
18.113
16.8666
15.5893
14.3654
13.2616
12.2746
11.3981
10.6293
9.96958
9.42466
9.00807
8.74796
8.70311
9.00781
10.0326
13.2614
31.6468
51.204
52.2206
52.9998
53.3134
53.0132
52.139
50.794
49.0846
47.1054
44.9393
42.6577
40.321
37.9795
35.6741
33.4381
31.2969
29.2694
27.3675
25.5961
23.9527
22.4272
21.0025
19.6566
18.3674
17.1174
15.8855
14.675
13.559
12.5596
11.6724
10.8952
10.2299
9.68289
9.2684
9.01558
8.98521
9.31621
10.3912
13.7386
32.5941
52.3897
53.5809
54.4556
54.781
54.4679
53.5774
52.2138
50.4795
48.4663
46.2548
43.9155
41.509
39.0871
36.6931
34.363
32.1255
30.0026
28.0094
26.1537
24.4355
22.8463
21.3693
19.9809
18.6556
17.3762
16.1477
14.958
13.8462
12.8409
11.9473
11.165
10.4963
9.94827
9.53621
9.29062
9.27469
9.63232
10.7594
14.2334
33.626
53.4992
54.8916
55.8544
56.1686
55.8267
54.9128
53.5307
51.7784
49.7433
47.5028
45.1247
42.6681
40.1849
37.7197
35.3101
32.9874
30.7768
28.697
26.7594
24.9678
23.3164
21.7895
20.3614
19.0009
17.6826
16.4198
15.2287
14.1314
13.1216
12.2235
11.4382
10.7673
10.2186
9.80844
9.5688
9.56559
9.94797
11.1251
14.7239
34.6799
54.4957
56.0766
57.0933
57.3932
57.0256
56.0923
54.6989
52.9397
50.8978
48.6462
46.2493
43.7638
41.2404
38.7236
36.252
33.8585
31.5711
29.4119
27.3968
25.5344
23.8242
22.2553
20.8032
19.426
18.0489
16.7268
15.5162
14.409
13.4026
12.5043
11.7168
11.0431
10.4921
10.0817
9.84582
9.85301
10.2574
11.481
15.1984
35.7154
55.3361
57.0843
58.1376
58.4256
58.0389
57.0942
55.6987
53.9437
51.9079
49.6601
47.2611
44.7647
42.22
39.6704
37.1544
34.7062
32.3553
30.1274
28.0428
26.1161
24.3535
22.7501
21.283
19.8973
18.4782
17.1059
15.8579
14.7272
13.7094
12.8024
12.0065
11.3251
10.7679
10.3544
10.12
10.1354
10.5594
11.8256
15.6535
36.6937
56.0052
57.8937
58.9769
59.2605
58.8659
57.9201
56.5312
54.7881
52.7661
50.5307
48.1397
45.6447
43.0925
40.5254
37.9813
35.4943
33.0957
30.8133
28.6721
26.6927
24.8886
23.2612
21.7898
20.4096
18.964
17.543
16.254
15.0919
14.0495
13.1224
12.3092
11.6136
11.0463
10.6271
10.3923
10.4146
10.8567
12.1634
16.0958
37.6032
56.5197
58.5024
59.609
59.9007
59.5134
58.5779
57.2023
55.4743
53.468
51.2472
48.8679
46.3799
43.8286
41.255
38.696
36.1856
33.7555
31.4352
29.2528
27.2339
25.3987
23.7557
22.2891
20.9319
19.4873
18.0232
16.6928
15.4946
14.4199
13.463
12.6242
11.9093
11.3285
10.9013
10.6647
10.6929
11.1526
12.4992
16.5337
38.4848
56.8933
58.9302
60.0504
60.3564
59.9855
59.0662
57.7058
55.9923
54.0002
51.7929
49.4254
46.9466
44.4009
41.828
39.2642
36.7432
34.2964
31.9543
29.7464
27.701
25.8429
24.1874
22.7277
21.4129
20.0277
18.5418
17.171
15.9343
14.8193
13.8224
12.9518
12.2129
11.6152
11.1779
10.9379
10.971
11.4481
12.8365
16.9833
39.4388
57.1253
59.1315
60.2653
60.5957
60.2489
59.3507
58.0085
56.3118
54.3357
52.1438
49.7909
47.3247
44.7891
42.2232
39.6627
37.141
34.6897
32.3398
30.1214
28.0636
26.1923
24.526
23.0656
21.78
20.512
19.0908
17.6875
16.4058
15.2365
14.1917
13.2849
12.5195
11.9032
11.4542
11.2097
11.2467
11.7403
13.1702
17.4319
40.5613
57.1729
59.1337
60.2546
60.5923
60.2641
59.3894
58.0722
56.4008
54.4498
52.2825
49.9529
47.508
44.9911
42.4406
39.8922
37.3791
34.9337
32.5875
30.3713
28.3146
26.443
24.7738
23.3072
22.0179
20.8216
19.5696
18.2102
16.8706
15.6354
14.5451
13.6055
12.8166
12.1838
11.7244
11.476
11.5174
12.0285
13.503
17.8954
41.808
57.0103
58.9387
60.0243
60.3507
60.0325
59.1814
57.8955
56.2596
54.3458
52.216
49.9229
47.5125
45.0271
42.5045
39.9802
37.4875
35.0589
32.7268
30.5226
28.476
26.6124
24.9475
23.4795
22.1802
20.9878
19.8054
18.542
17.2212
15.9621
14.8519
13.8953
13.0921
12.4487
11.9829
11.7332
11.7811
12.3118
13.8346
18.3675
43.1328
56.6451
58.5446
59.5978
59.9096
59.5969
58.7674
57.5152
55.9209
54.054
51.9735
49.7305
47.3694
44.9307
42.4514
39.966
37.5075
35.1084
32.8007
30.6157
28.5828
26.726
25.0599
23.5823
22.267
21.0615
19.8938
18.6952
17.4589
16.2251
15.1136
14.1524
13.3441
12.6962
12.228
11.9804
12.0371
12.5897
14.1634
18.8419
44.4792
56.0926
57.9752
59.0058
59.3063
58.9982
58.1894
56.9717
55.4229
53.6096
51.5883
49.4074
47.1093
44.7324
42.312
39.8811
37.4714
35.1143
32.8408
30.681
28.663
26.8101
25.1364
23.6421
22.3078
21.0941
19.9469
18.8136
17.6622
16.4603
15.3501
14.388
13.5781
12.9293
12.4622
12.2189
12.2864
12.8625
14.4886
19.3138
45.8075
55.3689
57.2426
58.2605
58.5565
58.2572
57.4717
56.2911
54.7919
53.038
51.0837
48.975
46.7518
44.4499
42.1024
39.7403
37.3931
35.0901
32.8604
30.7324
28.7327
26.8842
25.2024
23.692
22.3433
21.1303
20.0138
18.9456
17.8693
16.6905
15.5786
14.6146
13.8032
13.1542
12.6891
12.4515
12.5313
13.1318
14.8104
19.78
47.1083
54.4903
56.359
57.3715
57.6699
57.3849
56.627
55.4875
54.0417
52.3521
50.4709
48.4418
46.3025
44.086
41.8227
39.5412
37.2684
35.0309
32.8552
30.7674
28.7927
26.9538
25.2689
23.7485
22.3929
21.1895
20.1098
19.1049
18.0936
16.9289
15.8106
14.8418
14.0271
13.3767
12.913
12.6811
12.7736
13.4001
15.1347
20.2577
48.418
53.4742
55.3388
56.35
56.6558
56.3896
55.6632
54.5679
53.1786
51.5564
49.7519
47.807
45.757
43.6324
41.4612
39.269
37.0801
34.9181
32.8065
30.769
28.829
27.0091
25.3296
23.8069
22.451
21.2613
20.2197
19.2775
18.3313
17.1813
16.0533
15.0764
14.2557
13.6016
13.1374
12.9096
13.0136
13.6651
15.454
20.7241
49.6617
52.3392
54.1985
55.2097
55.5253
55.2806
54.5879
53.5386
52.2068
50.6528
48.9259
47.0662
45.1072
43.077
41.0013
38.9031
36.8042
34.7251
32.6866
30.7097
28.8157
27.0264
25.3632
23.8468
22.4946
21.3171
20.3086
19.428
18.5619
17.4505
16.312
15.3244
14.494
13.8326
13.3646
13.1381
13.2511
13.9246
15.7636
21.1702
50.8307
51.105
52.9557
53.9663
54.2923
54.0699
53.4114
52.4078
51.1328
49.6455
47.9942
46.2176
44.3476
42.4103
40.4293
38.4255
36.4183
34.4258
32.4662
30.5578
28.72
26.973
25.3382
23.8381
22.4948
21.3276
20.3456
19.5285
18.7803
17.7509
16.5992
15.5939
14.7471
14.0724
13.5956
13.3661
13.4843
14.1761
16.0597
21.5904
51.9095
49.7917
51.6295
52.6375
52.9731
52.7724
52.1473
51.1881
49.9674
48.5437
46.964
45.266
43.4804
41.6312
39.7406
37.8278
35.9099
34.0033
32.1238
30.288
28.513
26.8177
25.2225
23.75
22.424
21.2681
20.2998
19.5161
18.8533
18.0448
16.9334
15.8935
15.0177
14.3205
13.8281
13.5905
13.7094
14.415
16.3375
21.9802
52.8978
48.4191
50.239
51.2421
51.5858
51.4057
50.8125
49.8954
48.7263
47.3623
45.8495
44.2246
42.5172
40.75
38.9436
37.1157
35.2821
33.4574
31.656
29.8928
28.1835
26.5454
24.9981
23.5631
22.2639
21.124
20.1626
19.3832
18.7471
18.1143
17.2485
16.2132
15.297
14.569
14.0549
13.8042
13.9195
14.634
16.5887
22.3304
53.7915
47.0056
48.8032
49.7988
50.1492
49.9884
49.4256
48.5487
47.4283
46.1206
44.6703
43.1131
41.4776
39.7865
38.058
36.3089
34.5537
32.8059
31.0788
29.386
27.7422
26.1637
24.6687
23.2775
22.0118
20.8933
19.9395
19.1552
18.5177
17.9505
17.313
16.4728
15.5597
14.8008
14.2632
13.9967
14.1047
14.8231
16.8014
22.6235
54.5495
45.5681
47.3394
48.3255
48.6814
48.5389
48.0055
47.1675
46.0939
44.8397
43.4486
41.9553
40.3873
38.7669
37.1111
35.4353
33.7534
32.0778
30.4211
28.7959
27.2161
25.6969
24.2554
22.9101
21.681
20.587
19.6435
18.8559
18.2115
17.668
17.1431
16.5186
15.7533
14.9977
14.4385
14.1554
14.2533
14.9702
16.9613
22.8352
55.0822
44.1219
45.8636
46.8383
47.1989
47.0744
46.5699
45.77
44.7422
43.5401
42.2061
40.7741
39.2708
37.7176
36.1305
34.5243
32.9118
31.305
29.7154
28.1551
26.6371
25.1756
23.7864
22.4867
21.2942
20.2259
19.2956
18.5098
17.8627
17.3306
16.8656
16.3892
15.8266
15.1495
14.57
14.2688
14.3544
15.0647
17.0565
22.947
55.3028
42.6796
44.3896
45.3518
45.7164
45.6096
45.1341
44.3721
43.3896
42.2389
40.9612
39.5893
38.1489
36.6609
35.1404
33.6013
32.0559
30.5154
28.9906
27.493
26.0346
24.6286
23.2896
22.0334
20.8759
19.8328
18.917
18.1365
17.4908
16.967
16.5355
16.144
15.7215
15.1993
14.6421
14.3246
14.3981
15.0985
17.0806
22.9587
55.2952
41.2515
42.9284
43.8775
44.2456
44.1563
43.7097
42.986
42.049
40.9495
39.7278
38.4154
37.0374
35.6135
34.1584
32.6852
31.2055
29.7297
28.2682
26.8314
25.4306
24.078
22.7871
21.572
20.4476
19.428
18.5261
17.7508
17.1056
16.5856
16.1735
15.8345
15.5117
15.1315
14.6328
14.3122
14.3787
15.068
17.0306
22.8628
54.9814
39.8458
41.4889
42.4243
42.7957
42.7236
42.3058
41.6203
40.7292
39.6812
38.5152
37.2622
35.9462
34.5861
33.1957
31.7876
30.3725
28.9603
27.5607
26.1832
24.8383
23.5372
22.2922
21.1163
20.0231
19.0259
18.1369
17.3659
16.7189
16.1964
15.7907
15.4825
15.2348
14.9821
14.5588
14.2415
14.3028
14.9786
16.9123
22.669
54.3991
38.4687
40.0776
40.999
41.3733
41.3182
40.9288
40.2811
39.4355
38.4392
37.3293
36.1353
34.8808
33.5839
32.2576
30.9137
29.5623
28.2126
26.8733
25.5534
24.2625
23.011
21.8099
20.6715
19.6081
18.6326
17.7569
16.9916
16.3446
15.8203
15.4181
15.1301
14.9366
14.7869
14.453
14.1347
14.1854
14.8425
16.7381
22.3931
53.5914
37.125
38.6996
39.6067
39.9834
39.9446
39.5829
38.9724
38.1715
37.2261
36.1719
35.0368
33.8432
32.6086
31.3455
30.0648
28.7759
27.4871
26.2065
24.9424
23.7036
22.4994
21.3403
20.2375
19.2029
18.2489
17.3875
16.6302
15.9868
15.4645
15.0657
14.7856
14.6054
14.4751
14.2753
14.004
14.0366
14.6715
16.525
22.0657
52.6287
35.8181
37.3584
38.2508
38.6293
38.6058
38.2708
37.6964
36.9392
36.0435
35.0438
33.9668
32.8335
31.6599
30.4589
29.2401
28.012
26.7825
25.5589
24.3486
23.1598
22.0011
20.8822
19.8137
18.807
17.8743
17.0281
16.2804
15.6425
15.1231
14.7267
14.4497
14.2745
14.1585
14.0281
13.8109
13.846
14.4681
16.2848
21.7184
51.6908
34.5505
36.0567
36.9339
37.3132
37.304
36.9943
36.4545
35.7394
34.892
33.9453
32.9249
31.8506
30.7374
29.5969
28.4382
27.2694
26.0973
24.9286
23.7703
22.6296
21.5147
20.4346
19.3994
18.4203
17.5091
16.6786
15.9413
15.3091
14.7915
14.3944
14.1159
13.9431
13.8455
13.7683
13.5875
13.6274
14.2404
16.0236
21.3569
50.8084
33.3238
34.7962
35.6578
36.0369
36.0404
35.7545
35.2474
34.5728
33.7719
32.8764
31.9109
30.894
29.8397
28.7587
27.6584
26.5469
25.4303
24.3148
23.2066
22.1125
21.0399
19.9975
18.9948
18.0429
17.1535
16.3392
15.6128
14.9866
14.4711
14.0732
13.7941
13.6259
13.5465
13.5045
13.3459
13.3904
13.9944
15.7436
20.9759
49.8933
32.1392
33.5782
34.4237
34.8015
34.8161
34.552
34.0758
33.4396
32.6833
31.8373
30.9249
29.9636
28.9664
27.9432
26.9005
25.8445
24.7818
23.7178
22.6581
21.6089
20.5774
19.5716
18.6008
17.6758
16.808
16.0102
15.2954
14.6761
14.1638
13.7669
13.4895
13.3277
13.2632
13.2423
13.0964
13.143
13.7356
15.4493
20.5797
48.9738
30.9974
32.4037
33.2327
33.6078
33.6318
33.3875
32.9401
32.3403
31.6266
30.8283
29.9672
29.0599
28.1183
27.1512
26.1644
25.1634
24.153
23.1389
22.1262
21.1207
20.129
19.1588
18.2193
17.3206
16.4743
15.6931
14.99
14.3783
13.8704
13.4763
13.2027
13.0482
12.996
12.9888
12.8486
12.8919
13.4684
15.1429
20.1683
48.0628
29.8986
31.2733
32.0855
32.4568
32.4883
32.2617
31.8409
31.2753
30.6024
29.85
29.0389
28.1841
27.2966
26.3843
25.452
24.5043
23.5456
22.58
21.613
20.6499
19.6969
18.7615
17.8523
16.9794
16.1541
15.3892
14.6978
14.0939
13.5908
13.2005
12.9314
12.7844
12.7427
12.7451
12.6058
12.6401
13.1957
14.8237
19.7236
46.9917
28.8427
30.1871
30.9827
31.3492
31.3865
31.1752
30.7787
30.2453
29.6113
28.9035
28.1411
27.3379
26.5034
25.6446
24.7655
23.8699
22.9613
22.0435
21.1207
20.1986
19.2831
18.3814
17.5017
16.6539
15.8491
15.0999
14.4198
13.8233
13.3247
12.9377
12.6726
12.5315
12.4974
12.5053
12.3638
12.3873
12.9189
14.4933
19.2443
45.6983
27.8287
29.145
29.9247
30.286
30.3276
30.1294
29.7547
29.2513
28.6547
27.9903
27.2759
26.5235
25.7415
24.9352
24.108
23.2629
22.4029
21.5311
20.6513
19.7686
18.8891
18.0196
17.1683
16.3446
15.5596
14.8255
14.1562
13.5663
13.0713
12.6862
12.423
12.2855
12.2563
12.2673
12.1226
12.1348
12.6404
14.1568
18.7507
44.3747
26.8545
28.1459
28.9117
29.2685
29.3134
29.1262
28.7706
28.2948
27.734
27.1125
26.4459
25.7444
25.0144
24.26
23.4834
22.687
21.8733
21.0452
20.2063
19.361
18.5153
17.6763
16.8519
16.0512
15.2849
14.5653
13.9061
13.3221
12.8295
12.4445
12.1809
12.0444
12.0186
12.0336
11.8873
11.8871
12.3654
13.8222
18.2567
43.0545
25.9164
27.1871
27.9425
28.2972
28.3463
28.1685
27.8288
27.3775
26.851
26.2722
25.6544
25.0046
24.3267
23.6233
22.8958
22.1459
21.3758
20.5884
19.7871
18.9765
18.1621
17.351
16.5512
15.7718
15.0232
14.3172
13.6675
13.0889
12.5978
12.2112
11.9447
11.8065
11.783
11.8051
11.6616
11.6485
12.0998
13.498
17.774
41.7116
25.0078
26.263
27.0134
27.3709
27.4273
27.2585
26.9307
26.5003
26.0063
25.4713
24.9045
24.3081
23.6828
23.0295
22.349
21.6428
20.913
20.1626
19.3953
18.6157
17.8294
17.0431
16.2652
15.5048
14.7719
14.0785
13.4376
12.8641
12.3742
11.9851
11.7135
11.5705
11.5473
11.5796
11.4476
11.4232
11.8487
13.192
17.3224
40.487
24.1192
25.3638
26.1159
26.4834
26.5533
26.396
26.0771
25.6623
25.1979
24.7085
24.1967
23.6566
23.0845
22.4801
21.8443
21.1785
20.4855
19.7684
19.0313
18.2789
17.5171
16.7524
15.9933
15.249
14.5297
13.847
13.2141
12.6454
12.1569
11.7656
11.4885
11.3386
11.313
11.3579
11.2508
11.2164
11.6166
12.9094
16.9136
39.4436
23.2394
24.4761
25.2347
25.6188
25.7098
25.5711
25.2614
24.8541
24.4161
23.974
23.5226
23.0429
22.5256
21.9694
21.3765
20.7489
20.09
19.4034
18.6935
17.9654
17.225
16.4791
15.7359
15.0051
14.2969
13.623
12.9966
12.4321
11.9452
11.5527
11.2711
11.1138
11.0812
11.132
11.0726
11.0331
11.4054
12.6495
16.5407
38.5435
22.3613
23.5893
24.3554
24.759
24.8768
24.7647
24.4637
24.0529
23.6382
23.2509
22.8646
22.4494
21.9894
21.4832
20.9337
20.3444
19.7193
19.0624
18.3787
17.6734
16.9528
16.2239
15.4948
14.7756
14.0766
13.4097
12.7882
12.2267
11.7409
11.3473
11.0617
10.8964
10.8516
10.8944
10.8999
10.8733
11.2116
12.4064
16.1907
37.7031
21.4884
22.7058
23.4777
23.8998
24.0452
23.965
23.6858
23.2675
22.852
22.5188
22.2124
21.866
21.4649
21.0104
20.5064
19.9571
19.367
18.7408
18.0834
17.4009
16.6997
15.9872
15.2717
14.5631
13.8724
13.2115
12.5939
12.0343
11.5486
11.1529
10.863
10.6904
10.6362
10.6757
10.729
10.7196
11.0258
12.1723
15.8488
36.8506
20.6312
21.838
22.6156
23.0553
23.2269
23.1776
22.9299
22.5275
22.1115
21.7975
21.5608
21.2963
20.9587
20.5576
20.0995
19.59
19.0347
18.4387
17.8076
17.1476
16.4656
15.7692
15.0671
14.3692
13.6865
13.0313
12.4171
11.8587
11.3721
10.9736
10.6788
10.5
10.4409
10.4842
10.5692
10.5671
10.8451
11.9445
15.5105
35.9599
19.7961
20.9943
21.7792
22.2379
22.4359
22.4185
22.2116
21.8416
21.4338
21.1303
20.9381
20.7465
20.4785
20.134
19.7218
19.2505
18.7277
18.1598
17.553
16.9141
16.2503
15.5696
14.8806
14.1931
13.5185
12.8689
12.2581
11.7007
11.2129
10.8113
10.5121
10.329
10.2681
10.3173
10.4218
10.4195
10.6723
11.7284
15.1891
35.0879
18.9798
20.1715
20.9661
21.4467
21.6746
21.6932
21.5312
21.2094
20.8255
20.5231
20.3443
20.2186
20.0308
19.744
19.3768
18.9413
18.448
17.9052
17.3201
16.7002
16.053
15.3867
14.71
14.0329
13.3662
12.7224
12.1149
11.5588
11.0701
10.6659
10.3634
10.1777
10.1172
10.172
10.2853
10.278
10.5094
11.5275
14.8954
34.2793
18.1732
19.359
20.1651
20.6698
20.9307
20.9888
20.8743
20.6138
20.2671
19.9614
19.7861
19.7096
19.5954
19.3709
19.0523
18.654
18.1896
17.6704
17.1052
16.5024
15.8704
15.2174
14.5524
13.8851
13.2264
12.5884
11.9847
11.4302
10.9412
10.5353
10.2307
10.044
9.98525
10.0451
10.1612
10.1458
10.3578
11.3403
14.6224
33.5542
17.3709
18.5521
19.372
19.9035
20.1999
20.3004
20.235
20.0281
19.7187
19.4243
19.2574
19.2086
19.1537
18.9956
18.7301
18.3724
17.9393
17.4448
16.9
16.3145
15.6973
15.0573
14.4037
13.7461
13.0955
12.4638
11.8643
11.3121
10.8236
10.4171
10.1115
9.92484
9.86871
9.93402
10.0527
10.029
10.2206
11.1681
14.3699
32.9137
16.5738
17.7547
18.5944
19.1576
19.492
19.6349
19.6163
19.4614
19.1949
18.9177
18.7495
18.7074
18.7092
18.6239
18.4084
18.0898
17.6885
17.2202
16.6972
16.1301
15.5286
14.9021
14.2601
13.6126
12.9704
12.3453
11.7508
11.2017