/*--------------------------------*- C++ -*----------------------------------*\
  =========                 |
  \\      /  F ield         | OpenFOAM: The Open Source CFD Toolbox
   \\    /   O peration     | Website:  https://openfoam.org
    \\  /    A nd           | Version:  8
     \\/     M anipulation  |
\*---------------------------------------------------------------------------*/
FoamFile
{
    version     2.0;
    format      ascii;
    class       volScalarField;
    location    "0.4";
    object      p;
}
// * * * * * * * * * * * * * * * * * * * * * * * * * * * * * * * * * * * * * //

dimensions      [1 -1 -2 0 0 0 0];

internalField   nonuniform List<scalar> 
9150
(
359.942
333.063
307.505
290.15
281.658
281.658
290.149
307.505
333.063
359.941
331.064
311.613
295.884
283.969
277.872
277.872
283.968
295.884
311.613
331.064
301.782
288.299
279.673
271.842
267.666
267.666
271.842
279.673
288.298
301.781
277.076
267.122
261.563
256.146
253.137
253.137
256.146
261.563
267.121
277.075
255.807
246.934
242.241
238.018
235.543
235.543
238.018
242.241
246.933
255.807
-6.39173
-10.3844
14.5469
27.9772
33.6669
33.6654
27.973
14.5403
-10.393
-6.40158
163.78
139.67
134.212
132.325
131.586
131.585
132.323
134.208
139.666
163.776
268.092
236.765
220.808
210.458
205.155
205.154
210.456
220.806
236.763
268.09
348.461
306.347
278.524
260.876
251.94
251.94
260.875
278.523
306.346
348.46
398.73
346.323
307.723
285.476
275.041
275.041
285.475
307.722
346.322
398.73
-94.9957
-52.0459
-58.7109
-51.45
-56.2452
-56.2654
-51.506
-58.8003
-52.1867
-95.1676
-87.3438
-64.579
-83.3983
-74.1913
-78.4391
-78.4521
-74.2278
-83.4603
-64.668
-87.4616
-128.969
-95.9482
-126.295
-118.245
-114.955
-114.963
-118.268
-126.334
-96.0039
-129.035
-307.494
-181.018
-163.439
-145.055
-129.307
-129.311
-145.07
-163.465
-181.047
-307.538
-449.51
-211.93
-115.607
-86.2458
-71.4092
-71.4117
-86.2537
-115.619
-211.947
-449.537
1270.74
1336.21
1386.31
1419.98
1436.73
1437.01
1420.83
1387.75
1338.2
1273.25
983.417
1041.05
1086.47
1118.23
1135.21
1135.5
1119.08
1087.83
1042.9
985.715
701.988
746.499
781.297
805.205
817.519
817.745
805.876
782.4
748.014
703.881
545.138
582.285
610.747
630.047
639.853
640.041
630.606
611.669
583.554
546.733
484.863
511.849
532.515
546.424
553.47
553.6
546.812
533.154
512.727
485.948
507.64
515.332
523.956
530.169
533.325
533.375
530.307
524.167
515.552
507.655
579.09
559.924
554.419
553.154
552.666
552.636
553.052
554.179
559.281
577.553
649.99
612.659
593.966
587.487
585.122
585.113
587.452
593.787
612
649.109
679.311
653.189
625.942
616.001
613.305
613.341
616.073
625.871
652.88
680.463
649.777
674.609
647.179
633.914
630.97
630.981
633.83
646.662
673.99
653.465
570.153
677.108
658.333
641.667
638.007
638.111
641.873
658.475
678.162
576.572
475.86
654.753
654.701
638.2
634.062
634.13
638.272
654.751
656.461
483.286
369.008
617.587
651.512
634.679
627.617
627.488
634.04
650.641
621.178
380.223
265.253
565.708
647.168
630.998
619.444
619.38
630.659
647.222
570.574
273.914
189.109
503.834
626.155
615.768
602.226
602.275
615.895
627.422
510.57
197.592
130.321
437.269
594.395
593.246
579.173
579.123
593.196
595.788
443.829
136.716
86.9821
366.872
556.582
571.848
557.223
556.827
571.098
559.088
375.841
92.4812
56.4416
303.219
515.041
547.121
532.968
532.66
546.655
517.404
310.378
60.4567
35.1018
248.649
470.989
516.938
504.173
503.907
516.69
473.935
255.767
38.2427
20.9095
200.821
425.028
482.923
472.054
471.825
482.861
428.327
207.369
23.1465
13.5395
161.778
378.651
445.402
436.858
436.737
445.723
382.347
167.176
14.3347
10.2131
130.449
333.412
405.417
399.248
399.162
405.82
336.956
135.184
10.8569
8.27808
104.88
290.723
364.536
360.509
360.478
365.06
294.098
108.959
8.6312
7.74168
84.743
251.089
323.594
321.492
321.516
324.261
254.206
87.945
7.76869
7.28464
68.9442
214.587
283.67
283.604
283.575
284.456
217.644
71.4276
7.3286
6.86916
56.1187
181.38
245.612
247.425
247.392
246.201
183.822
58.162
6.90688
6.48951
45.5995
152.004
209.799
212.563
212.539
210.33
154.115
47.2992
6.52196
6.13673
36.9067
125.678
176.301
179.559
179.539
176.756
127.453
38.2935
6.16606
5.805
29.7363
102.282
145.365
148.746
148.735
145.761
103.756
30.8548
5.83271
5.49116
23.7779
81.5357
117.031
120.266
120.263
117.368
82.7274
24.6604
5.51813
5.19321
18.8099
63.2259
91.3325
94.2298
94.2335
91.6079
64.1549
19.4833
5.22027
4.90921
14.6187
47.1022
68.2257
70.6768
70.6852
68.4419
47.7941
15.1134
4.93701
4.63824
11.0721
32.9788
47.6391
49.5853
49.5971
47.7987
33.4547
11.4082
4.66723
4.38056
8.0147
20.607
29.4471
30.8931
30.9072
29.5561
20.8989
8.2201
4.41099
4.13616
5.37065
9.83521
13.5198
14.4927
14.5095
13.5784
9.96372
5.46222
4.1682
3.90432
3.06537
0.486252
-0.314517
0.247006
0.260565
-0.288692
0.479178
3.06053
3.93811
3.68479
1.03769
-7.59948
-12.2175
-12.0086
-11.9914
-12.2264
-7.71909
0.952816
3.72031
3.47731
-0.76086
-14.5643
-22.3708
-22.4353
-22.4173
-22.4029
-14.7735
-0.911291
3.5144
3.28119
-2.36555
-20.5317
-30.9428
-31.2076
-31.1894
-30.9931
-20.8131
-2.57001
3.3197
3.0958
-3.80712
-25.6192
-38.1031
-38.4996
-38.4809
-38.1662
-25.9555
-4.05486
3.13556
2.92036
-5.10824
-29.9307
-44.0132
-44.4803
-44.4609
-44.0848
-30.3074
-5.3901
2.96125
2.75409
-6.28788
-33.5616
-48.8266
-49.3114
-49.2913
-48.9027
-33.9659
-6.59588
2.79607
2.5962
-7.36133
-36.5971
-52.6849
-53.1434
-53.1226
-52.7623
-37.0186
-7.68865
2.63933
2.44589
-8.34125
-39.1138
-55.718
-56.1151
-56.0935
-55.7941
-39.5438
-8.68206
2.49036
2.30237
-9.2384
-41.1803
-58.0434
-58.3521
-58.3298
-58.1164
-41.6117
-9.58765
2.34846
2.16493
-10.062
-42.8582
-59.767
-59.9677
-59.9446
-59.8353
-43.285
-10.4153
2.21291
2.0329
-10.8199
-44.2017
-60.9827
-61.0619
-61.0384
-61.0451
-44.6193
-11.1736
2.08294
1.9057
-11.5188
-45.2585
-61.7723
-61.7223
-61.6983
-61.8284
-45.6634
-11.87
1.95785
1.78278
-12.1649
-46.0704
-62.2076
-62.0249
-62.0008
-62.2571
-46.4602
-12.5111
1.83697
1.66362
-12.7634
-46.6742
-62.3503
-62.035
-62.0107
-62.393
-47.0471
-13.1031
1.7197
1.54772
-13.3194
-47.1014
-62.2526
-61.8074
-61.783
-62.2883
-47.4562
-13.6514
1.60537
1.43437
-13.8375
-47.3791
-61.9588
-61.3883
-61.3636
-61.9872
-47.7149
-14.161
1.493
1.32258
-14.3219
-47.5304
-61.5057
-60.816
-60.7908
-61.5262
-47.8463
-14.6366
1.38153
1.21159
-14.7765
-47.5745
-60.9236
-60.1219
-60.0961
-60.9358
-47.8695
-15.0818
1.27011
1.10069
-15.204
-47.5268
-60.2371
-59.332
-59.3056
-60.2411
-47.8005
-15.4991
1.15858
0.991805
-15.6056
-47.4009
-59.468
-58.4686
-58.4418
-59.4647
-47.6537
-15.8883
1.05104
0.891611
-15.9792
-47.2092
-58.6355
-57.5508
-57.5242
-58.6263
-47.4423
-16.2481
0.954222
0.804183
-16.3248
-46.9632
-57.7556
-56.5943
-56.5681
-57.7418
-47.1781
-16.5806
0.869158
0.724878
-16.6475
-46.6719
-56.8396
-55.6098
-55.584
-56.8213
-46.869
-16.8913
0.789919
0.646764
-16.9526
-46.3402
-55.8939
-54.604
-54.5784
-55.8709
-46.5195
-17.1847
0.709888
0.564382
-17.2438
-45.9723
-54.9239
-53.5828
-53.5574
-54.8963
-46.1337
-17.4641
0.625253
0.478103
-17.5215
-45.5719
-53.9358
-52.5526
-52.5275
-53.9043
-45.7164
-17.7281
0.538377
0.3907
-17.7837
-45.1446
-52.9371
-51.5208
-51.4961
-52.902
-45.272
-17.976
0.451629
0.302476
-18.031
-44.6946
-51.9361
-50.4965
-50.4725
-51.8991
-44.8064
-18.2071
0.364123
0.2127
-18.2608
-44.2288
-50.9437
-49.488
-49.4647
-50.9051
-44.3256
-18.4203
0.276534
0.120369
-18.4791
-43.7618
-49.9759
-48.51
-48.4886
-49.9404
-43.8497
-18.6228
0.186814
0.0374922
-18.7262
-43.3708
-49.094
-47.6071
-47.5918
-49.0771
-43.4802
-18.8825
0.113297
0.0269871
-19.0784
-43.1129
-48.3079
-46.7621
-46.7413
-48.271
-43.1849
-19.2173
0.143099
-0.140521
-19.3953
-42.5449
-47.2608
-45.7085
-45.6583
-47.1217
-42.4668
-19.5976
-0.284094
-0.966208
-19.8557
-41.6157
-45.9263
-44.4786
-44.4281
-45.7822
-41.4976
-19.9419
-1.06417
-1.47117
-20.1529
-40.8713
-44.8053
-43.427
-43.3966
-44.7283
-40.8605
-20.3064
-1.51878
-1.9169
-20.6453
-40.4293
-43.9342
-42.5652
-42.5387
-43.8671
-40.4201
-20.7779
-1.95027
-2.33589
-21.0969
-40.0164
-43.1391
-41.7865
-41.7602
-43.0686
-39.9868
-21.1985
-2.36145
-2.75226
-21.5446
-39.6429
-42.4204
-41.0922
-41.0657
-42.3464
-39.5953
-21.6177
-2.76944
-3.16805
-21.9965
-39.3143
-41.7753
-40.4763
-40.45
-41.6993
-39.2522
-22.0434
-3.17562
-3.58611
-22.4621
-39.0377
-41.2062
-39.94
-39.9144
-41.1295
-38.9632
-22.4838
-3.58347
-4.00933
-22.9463
-38.8151
-40.7129
-39.4828
-39.4583
-40.6371
-38.7302
-22.9442
-3.99676
-4.44187
-23.4545
-38.6476
-40.2944
-39.1034
-39.0807
-40.2215
-38.5553
-23.43
-4.41988
-4.88869
-23.9914
-38.5348
-39.9478
-38.7987
-38.7789
-39.8808
-38.4393
-23.9474
-4.85753
-5.35525
-24.5617
-38.4749
-39.6685
-38.5637
-38.5481
-39.6112
-38.3822
-24.5023
-5.31482
-5.8475
-25.1694
-38.464
-39.4493
-38.3908
-38.3809
-39.4062
-38.3811
-25.0998
-5.79771
-6.37178
-25.8163
-38.4952
-39.2803
-38.2694
-38.2668
-39.2566
-38.4302
-25.7433
-6.31345
-6.93438
-26.5012
-38.5589
-39.1496
-38.1867
-38.1931
-39.1502
-38.5208
-26.4335
-6.86974
-7.54031
-27.2201
-38.6446
-39.0445
-38.1288
-38.1457
-39.0745
-38.6426
-27.1681
-7.47289
-8.19169
-27.9668
-38.743
-38.9537
-38.0821
-38.1109
-39.0178
-38.7864
-27.9421
-8.12635
-8.88768
-28.7353
-38.8484
-38.8683
-38.0344
-38.0763
-38.9703
-38.9454
-28.75
-8.83047
-9.62649
-29.5229
-38.9585
-38.7806
-37.9729
-38.0285
-38.9228
-39.1153
-29.5879
-9.58416
-10.4086
-30.332
-39.0729
-38.6805
-37.881
-37.9504
-38.8637
-39.293
-30.4563
-10.3878
-11.2406
-31.1715
-39.189
-38.5502
-37.7323
-37.815
-38.7731
-39.4724
-31.3599
-11.2468
-12.1369
-32.0558
-39.2975
-38.3582
-37.4833
-37.5777
-38.6166
-39.6396
-32.3084
-12.1741
-13.1211
-33
-39.3754
-38.0501
-37.0636
-37.1675
-38.3372
-39.7665
-33.3114
-13.1909
-14.2206
-34.0127
-39.3769
-37.5399
-36.3663
-36.4763
-37.8462
-39.8032
-34.3725
-14.3226
-15.4637
-35.0922
-39.2429
-36.7263
-35.2657
-35.3781
-37.0405
-39.6876
-35.4874
-15.5964
-16.8771
-36.2493
-38.9462
-35.5452
-33.6728
-33.7833
-35.8548
-39.3914
-36.6669
-17.0396
-18.4893
-37.4899
-38.4597
-33.9436
-31.5159
-31.6195
-34.2344
-38.8874
-37.9192
-18.6828
-20.3939
-39.0346
-37.9918
-32.1806
-29.1626
-29.2518
-32.4329
-38.3783
-39.462
-20.6196
-23.7955
-42.9311
-39.1707
-32.1131
-28.9595
-29.0253
-32.3029
-39.486
-43.3393
-24.0552
-33.069
-49.8507
-40.7382
-34.325
-32.1928
-32.2335
-34.443
-40.956
-50.2246
-33.3896
-51.0742
-40.9411
-31.6664
-34.6294
-35.482
-35.5039
-34.6904
-31.7574
-41.1729
-51.4394
-59.2148
-18.0378
-28.977
-38.7461
-42.8768
-42.8969
-38.8024
-29.0495
-18.148
-59.4249
1189.64
1087.83
976.298
859.785
743.743
633.479
533.469
446.932
375.693
320.179
277.173
244.076
219.033
201.05
189.187
182.424
179.861
180.788
184.642
190.991
199.498
209.809
221.65
234.656
248.524
262.968
277.725
292.254
306.259
319.421
331.656
342.467
352.004
363.842
369.099
367.032
369.223
371.779
374.666
376.341
914.24
827.172
733.356
637.84
545.497
460.641
386.313
323.949
273.36
233.786
207.685
190.927
180.991
175.848
174
174.599
177.221
181.605
187.598
195.135
204.187
214.703
226.589
239.652
253.581
268.041
282.821
297.305
311.244
324.109
335.38
344.977
352.555
359.567
363.445
361.882
352.738
352.261
353.74
362.242
648.314
580.609
507.653
433.755
363.269
300.356
247.908
207.971
181.124
165.773
157.753
155.634
157.287
160.971
164.96
168.881
173.476
179.04
185.512
192.986
201.592
211.378
222.305
234.262
247.097
260.324
273.883
287.317
300.272
312.262
322.64
331.303
337.956
342.99
346.21
344.147
342.384
345.315
355.187
365.39
499.227
440.734
376.088
306.242
232.553
160.559
100.032
60.0799
43.3217
44.5194
55.7388
72.1334
92.6433
116.294
135.725
147.126
155.432
163.391
170.366
177.378
185.42
194.597
204.778
215.846
227.638
239.926
252.481
264.987
277.111
288.578
298.505
307.255
314.532
320.615
324.977
327.484
330.727
341.115
357.502
372.131
452.586
413.727
366.602
290.399
175.217
58.577
-2.04694
-12.7882
-11.9749
-7.4431
-0.48927
7.86993
17.722
34.6511
62.9728
93.8973
120.37
143.884
156.999
162.17
166.991
173.13
181.025
190.56
201.267
212.724
224.607
236.601
248.376
259.568
269.876
279.193
287.576
295.717
301.97
308.546
317.516
333.998
355.722
373.588
506.442
505.004
437.215
244.949
63.8809
19.2026
11.1661
9.34838
9.21062
9.46324
9.69962
9.94769
10.685
12.0661
15.6686
23.4475
35.3034
58.6963
94.4995
124.797
142.557
149.97
154.461
161.173
170.281
180.941
192.429
204.263
216.078
227.56
238.458
248.688
258.419
268.24
276.923
285.77
298.279
318.949
344.553
366.06
607.625
557.936
311.205
71.0793
16.9739
11.8962
11.1272
10.9322
10.8057
10.708
10.6289
10.572
10.5643
10.5913
10.6142
10.7939
11.6907
13.5802
20.5693
36.6264
65.7353
98.5836
116.7
125.795
134.377
144.924
156.753
169.088
181.473
193.621
205.346
216.591
227.461
238.111
248.613
260
274.506
296.516
323.728
348.254
646.678
413.934
93.107
17.6444
11.5914
10.7778
10.7129
10.5847
10.4403
10.3457
10.2993
10.2854
10.2726
10.2293
10.1596
10.1363
10.1984
10.3358
10.6843
11.7234
14.8421
29.0153
53.4844
76.2549
91.6287
104.721
118.258
132.059
145.709
158.983
171.768
184.058
195.964
207.692
219.551
232.371
247.67
269.148
295.506
321.35
558.206
198.257
21.6673
11.8209
10.4723
10.4651
10.4406
10.3374
10.2426
10.1812
10.1463
10.1288
10.1199
10.109
10.0924
10.076
10.0456
9.98671
9.96632
10.0734
10.3229
10.8246
14.3044
26.6066
44.0377
61.7759
78.6618
94.8504
110.292
125.007
139.019
152.377
165.22
177.798
190.465
203.898
219.17
239.148
262.942
288.302
403.313
77.9259
14.1389
10.2198
9.99796
10.1152
10.1066
10.0497
10.0013
9.96762
9.94459
9.92975
9.92098
9.91558
9.91208
9.91074
9.90825
9.89705
9.8786
9.85216
9.82643
9.88514
9.95537
10.2377
11.025
20.4502
38.7526
58.462
76.4726
92.9001
108.205
122.609
136.28
149.462
162.492
175.911
190.474
208.343
228.742
252.29
239.389
23.8579
10.9845
9.5549
9.68757
9.79872
9.79546
9.76913
9.74807
9.73239
9.7207
9.71289
9.70853
9.7066
9.70631
9.70738
9.70913
9.71002
9.70828
9.69968
9.68083
9.66541
9.64794
9.57037
8.52908
-0.788663
4.01385
23.8299
45.0255
63.58
80.1724
95.4972
109.832
123.392
136.45
149.445
162.856
178.239
194.906
215.91
138.552
15.0214
9.75772
9.30027
9.47021
9.53113
9.52269
9.50912
9.5008
9.49515
9.49149
9.49022
9.49126
9.49409
9.49804
9.50247
9.50658
9.50953
9.51054
9.50805
9.49968
9.4863
9.47379
9.45365
9.26378
2.30156
-12.2072
-4.70062
16.8491
37.6153
55.4694
71.4953
86.2654
99.9836
112.837
125.175
137.195
149.941
162.86
181.257
69.2329
12.3346
9.15575
9.06229
9.23322
9.27119
9.26329
9.25799
9.2575
9.25861
9.26105
9.26526
9.27131
9.27889
9.28753
9.29664
9.30553
9.3135
9.31987
9.32389
9.32443
9.32087
9.3166
9.32085
9.3288
9.24189
-8.97659
-21.599
-7.21464
14.7154
33.9505
50.5884
65.6034
79.3065
91.8061
103.263
113.909
124.15
133.558
149.452
30.5197
10.5798
8.76034
8.8575
9.00111
9.02196
9.01598
9.01576
9.01969
9.02503
9.03172
9.04018
9.05045
9.06231
9.0754
9.08928
9.10341
9.11722
9.13011
9.1414
9.14998
9.15486
9.16093
9.18503
9.20436
8.92673
2.58852
-22.6076
-25.636
-6.10708
14.7504
32.3167
47.5595
61.1384
73.1981
83.7964
93.0425
101.055
107.396
120.288
16.1502
9.22227
8.49994
8.67612
8.77031
8.77796
8.77545
8.77893
8.78546
8.79344
8.80312
8.81481
8.82856
8.8442
8.86146
8.87999
8.8994
8.91921
8.93886
8.95764
8.9745
8.98787
8.9974
9.00793
9.0223
8.99804
8.81701
-11.7814
-34.2691
-24.7388
-2.95427
16.1782
31.8365
45.2249
56.7635
66.5055
74.4457
80.5122
84.2276
93.6962
12.1423
8.565
8.33499
8.50364
8.55281
8.54765
8.54396
8.5473
8.55396
8.56283
8.57413
8.58801
8.60442
8.62322
8.64421
8.66718
8.6919
8.71808
8.74541
8.77345
8.80153
8.82851
8.85386
8.88395
8.93077
8.93839
8.57614
2.97648
-29.5003
-39.0575
-19.4451
1.78885
18.2344
31.3998
42.3481
51.2771
58.1297
62.627
64.3295
72.2872
10.9286
8.24147
8.16246
8.3107
8.3342
8.31973
8.31302
8.31474
8.32065
8.32971
8.34191
8.35724
8.37558
8.39679
8.42078
8.44749
8.47692
8.50913
8.54429
8.58255
8.62443
8.67015
8.72426
8.79893
8.88237
8.81668
8.63986
8.20498
-15.5495
-39.1463
-27.6368
-7.54008
8.21751
20.3643
30.2593
38.1895
44.0326
47.3427
47.6543
54.3251
10.1032
7.95552
7.96236
8.09559
8.10394
8.08427
8.07572
8.0764
8.0819
8.09109
8.10383
8.11997
8.13934
8.16181
8.18732
8.2159
8.24765
8.28285
8.32193
8.36543
8.41407
8.4672
8.52768
8.61726
8.79098
9.407
9.02959
7.89195
-10.0754
-28.6315
-23.2035
-9.17187
2.8914
12.6607
20.839
27.4548
32.2178
34.5094
33.9324
39.1814
9.38613
7.68439
7.74397
7.85864
7.85766
7.8372
7.82919
7.83021
7.83601
7.84551
7.8585
7.87476
7.8941
7.91639
7.94154
7.96956
8.00054
8.03476
8.07267
8.11478
8.16047
8.20858
8.2565
8.32057
8.44168
8.82464
8.65244
7.01377
-4.5115
-14.2772
-13.8518
-7.0475
0.491436
7.56237
13.9156
19.1923
22.8895
24.2038
22.7761
27.1394
8.58629
7.39552
7.49951
7.59429
7.59151
7.57654
7.57263
7.5759
7.58295
7.59303
7.60598
7.62164
7.63985
7.66048
7.68345
7.70872
7.73638
7.76671
7.80031
7.83712
7.8737
7.91382
7.96214
8.01968
8.05047
7.90973
9.74965
11.9929
4.10255
-6.00314
-9.94688
-7.05857
-1.93617
3.59876
8.83243
13.2188
16.124
16.5679
14.1651
17.8984
7.7772
7.10995
7.24222
7.31539
7.31512
7.30886
7.31063
7.31684
7.32527
7.33565
7.34795
7.36211
7.37802
7.39553
7.41453
7.43492
7.45671
7.48017
7.50582
7.53312
7.55782
7.58798
7.64262
7.70452
7.66104
7.40309
13.0208
15.9028
-0.320488
-16.8256
-20.1755
-14.7232
-7.6064
-1.16569
4.31391
8.6157
11.2211
11.0875
7.75542
11.3553
7.06477
6.79675
6.96187
7.02854
7.03672
7.0405
7.04809
7.05694
7.0662
7.07613
7.08693
7.09862
7.11114
7.12431
7.13791
7.15167
7.16539
7.17901
7.19262
7.2054
7.21409
7.22562
7.26647
7.30471
7.12654
6.73051
17.5582
7.72426
-2.06222
-29.2489
-37.158
-27.5959
-15.7407
-6.79297
-0.237783
4.47572
7.16024
6.90904
3.12962
7.30502
6.57598
6.55373
6.71712
6.76948
6.77832
6.78515
6.79376
6.80214
6.8101
6.81805
6.82619
6.83452
6.84289
6.85101
6.85848
6.86483
6.86947
6.87175
6.87098
6.86597
6.85454
6.83605
6.83303
6.81038
6.59289
6.30582
6.37915
5.48092
-0.68432
-22.4474
-40.4219
-33.9098
-20.7356
-10.921
-4.16648
0.46288
2.9687
2.66249
-1.05114
-0.553105
6.38595
6.40335
6.51924
6.54493
6.54379
6.54518
6.5494
6.55406
6.55872
6.56349
6.56832
6.57303
6.57734
6.58085
6.583
6.58311
6.58034
6.57356
6.56133
6.54163
6.51129
6.4655
6.40145
6.30396
6.13105
5.99788
5.97261
5.73763
4.72145
-10.08
-31.6085
-31.4185
-21.2518
-12.8275
-6.94223
-2.90571
-0.783779
-1.20187
-4.38005
-9.89662
6.22714
6.23544
6.31431
6.32242
6.31342
6.30929
6.3089
6.30971
6.31103
6.31273
6.31457
6.31627
6.31749
6.3178
6.31667
6.31349
6.30755
6.29799
6.28378
6.26366
6.23599
6.19871
6.14955
6.08262
5.98405
5.87834
5.84497
5.94451
5.9803
-4.69946
-23.3465
-26.6172
-19.9412
-13.4189
-8.62721
-5.21452
-3.30235
-3.43657
-5.87994
-9.52787
6.01276
6.02864
6.09114
6.09234
6.0803
6.07324
6.06987
6.06793
6.06674
6.06611
6.06576
6.06539
6.06467
6.06323
6.06065
6.0565
6.05031
6.04161
6.02992
6.01483
5.99594
5.97271
5.94432
5.91402
5.88734
5.86425
5.87901
5.95613
6.0159
-1.89885
-17.3254
-21.9873
-17.9649
-13.0892
-9.29031
-6.4275
-4.60248
-4.2783
-5.69733
-7.50131
5.79135
5.81187
5.86264
5.86009
5.84684
5.83819
5.83294
5.82915
5.82626
5.82406
5.8223
5.82071
5.81902
5.81693
5.81415
5.8104
5.80547
5.79917
5.79143
5.78227
5.77183
5.76026
5.74801
5.7386
5.73817
5.74899
5.77923
5.83626
5.85585
-0.253702
-13.1402
-18.0844
-15.622
-12.0083
-9.02123
-6.57491
-4.70519
-3.74106
-3.96232
-4.22194
5.5719
5.59245
5.63268
5.62778
5.61432
5.60498
5.59866
5.59377
5.58983
5.58669
5.58411
5.58189
5.5798
5.57765
5.57523
5.57239
5.56909
5.56535
5.56134
5.55737
5.55387
5.55144
5.55092
5.55387
5.56302
5.5815
5.61467
5.65984
5.66097
0.984898
-9.66207
-14.4798
-12.9878
-10.3607
-8.04331
-5.91345
-3.93336
-2.29991
-1.35706
-0.670916
5.35528
5.37306
5.40368
5.39721
5.38411
5.3746
5.36774
5.36223
5.3577
5.354
5.35094
5.34835
5.34605
5.34391
5.34179
5.33963
5.33744
5.33536
5.33365
5.33272
5.3331
5.3355
5.34083
5.35016
5.36483
5.38695
5.42053
5.46273
5.47013
2.09396
-6.29643
-10.7947
-10.0357
-8.27578
-6.5616
-4.71016
-2.61644
-0.378637
1.57503
3.27691
5.14214
5.15551
5.17733
5.16977
5.15727
5.14786
5.14076
5.13492
5.13004
5.12596
5.12253
5.11958
5.11697
5.11459
5.11234
5.11017
5.10812
5.10633
5.10506
5.10471
5.10581
5.1091
5.11552
5.12626
5.14268
5.16701
5.20373
5.25501
5.29409
3.08562
-2.66907
-6.68562
-6.7909
-5.90779
-4.77604
-3.1993
-1.02833
1.73175
4.57626
7.12479
4.93251
4.94071
4.95467
4.94635
4.93458
4.92542
4.91823
4.91219
4.90703
4.9026
4.89874
4.89527
4.89208
4.88903
4.88605
4.88306
4.88007
4.87714
4.87445
4.87228
4.87109
4.87153
4.87454
4.88136
4.89389
4.91588
4.95449
5.01767
5.09208
3.87997
1.64008
-1.58006
-3.1499
-3.43854
-2.96834
-1.6923
0.490406
3.62442
7.16591
9.83196
4.72613
4.72928
4.73642
4.72766
4.71667
4.70783
4.70062
4.69441
4.68897
4.68413
4.67971
4.67554
4.67145
4.66732
4.66303
4.65846
4.65354
4.64819
4.64238
4.63614
4.62956
4.6228
4.61608
4.60946
4.60396
4.60528
4.62322
4.62544
4.41351
4.07653
6.46122
4.49118
1.03399
-0.911459
-1.31359
-0.405622
1.7393
5.12517
9.22192
12.1227
4.52353
4.52206
4.52337
4.51438
4.50418
4.49566
4.48844
4.48205
4.4763
4.47099
4.46592
4.46089
4.45573
4.45027
4.44434
4.4378
4.43046
4.42214
4.4126
4.40159
4.38879
4.37386
4.35624
4.33505
4.30938
4.28251
4.25835
4.20864
3.99315
3.8058
5.09434
5.08119
1.44685
-0.810314
-1.29763
-0.223421
2.16783
5.89012
10.4148
13.8562
4.32576
4.32007
4.31631
4.30716
4.29768
4.28944
4.28219
4.27561
4.26952
4.26371
4.25798
4.25209
4.24585
4.23906
4.23154
4.2231
4.21352
4.20254
4.18983
4.17502
4.15763
4.13707
4.11258
4.08312
4.04753
4.00499
3.95434
3.88511
3.78003
3.71341
3.8054
3.56812
-0.0990194
-3.10624
-3.31404
-1.49379
1.51984
5.72344
10.756
14.6756
4.13355
4.12398
4.11578
4.1065
4.09763
4.08962
4.08233
4.07556
4.06915
4.06287
4.05653
4.04989
4.04273
4.03485
4.02605
4.01614
4.0049
3.99207
3.97735
3.9604
3.9408
3.91808
3.89172
3.8612
3.82601
3.78604
3.741
3.68958
3.63175
3.56287
3.50044
3.38775
2.69944
-1.71521
-4.41887
-2.9977
0.406169
4.97502
10.4064
14.786
3.94698
3.93403
3.92203
3.91266
3.90434
3.89655
3.88923
3.88232
3.87564
3.86899
3.86217
3.85495
3.84711
3.83848
3.82885
3.81805
3.80588
3.79211
3.77651
3.75882
3.73875
3.716
3.69024
3.66124
3.62897
3.59368
3.55629
3.51821
3.47927
3.43273
3.37102
3.37379
3.50169
0.00851114
-5.72965
-5.32259
-1.20249
3.93021
9.66509
14.4717
3.7663
3.75046
3.73524
3.72581
3.71798
3.71041
3.70313
3.69614
3.68931
3.68244
3.67532
3.66774
3.65951
3.65048
3.64048
3.62935
3.61693
3.60305
3.58751
3.57015
3.55077
3.52921
3.50531
3.47893
3.45007
3.41898
3.38633
3.3533
3.32007
3.28361
3.24201
3.2216
3.15234
2.73783
-5.53917
-7.19937
-3.09185
2.86203
9.43102
14.7109
3.59175
3.57343
3.55545
3.54598
3.5386
3.53126
3.52407
3.51711
3.51024
3.50333
3.49617
3.48849
3.48014
3.47103
3.46103
3.45002
3.43788
3.4245
3.40975
3.39351
3.3757
3.35623
3.3351
3.31231
3.28794
3.26222
3.23568
3.20919
3.18331
3.15595
3.12454
3.10382
3.12195
3.23946
-3.17404
-7.30884
-4.84062
0.696467
9.00842
13.2251
3.42331
3.40289
3.38261
3.37312
3.36613
3.35905
3.35201
3.34516
3.33838
3.33156
3.32456
3.31706
3.30885
3.29994
3.29025
3.27969
3.26818
3.25564
3.24203
3.22729
3.2114
3.19438
3.17629
3.15726
3.13752
3.11744
3.09776
3.07962
3.06445
3.05302
3.04676
3.05675
3.10158
3.16234
-1.12861
-7.584
-4.96671
-1.03336
8.01552
11.8467
3.26086
3.23872
3.21654
3.20706
3.20045
3.19363
3.1868
3.18015
3.17359
3.16695
3.1602
3.15299
3.14517
3.1367
3.12754
3.11766
3.10699
3.09551
3.08319
3.07002
3.05602
3.04123
3.02576
3.00977
2.99346
2.97715
2.96136
2.9469
2.93478
2.9264
2.92564
2.94257
2.977
2.94729
0.367219
-6.98629
-6.78144
-1.01004
6.64813
10.4412
3.10425
3.08072
3.05703
3.04759
3.04134
3.03479
3.02819
3.0218
3.01553
3.00918
3.0027
2.99588
2.98861
2.98072
2.97223
2.96313
2.95339
2.94301
2.93198
2.92031
2.90802
2.89515
2.88175
2.86792
2.85375
2.83931
2.82462
2.80968
2.79419
2.77793
2.76435
2.76145
2.74188
2.51819
1.74392
-6.23696
-7.90397
-0.535996
5.44142
9.43211
2.95327
2.92866
2.90378
2.8944
2.88847
2.88219
2.87585
2.86973
2.86377
2.85778
2.85168
2.84533
2.8386
2.83133
2.82357
2.8153
2.80651
2.7972
2.78741
2.77715
2.76645
2.75533
2.74385
2.73205
2.72
2.70769
2.69503
2.68177
2.66754
2.65177
2.63419
2.61527
2.58974
2.54738
2.55056
-5.58617
-6.75305
-1.77673
4.0899
8.22096
2.80767
2.78226
2.75646
2.74714
2.74149
2.73546
2.72937
2.72354
2.7179
2.7123
2.70662
2.70071
2.69446
2.68783
2.68079
2.67334
2.66548
2.65722
2.64861
2.63966
2.63044
2.62099
2.61135
2.60164
2.59197
2.58246
2.57323
2.56439
2.55615
2.5488
2.54287
2.54107
2.5506
2.56825
2.51317
-4.89486
-2.61043
2.12082
2.01452
6.92574
2.6672
2.6412
2.6147
2.60544
2.60001
2.5942
2.58833
2.58277
2.57744
2.5722
2.56691
2.5614
2.55566
2.54962
2.54324
2.53654
2.52952
2.52221
2.51467
2.50694
2.49906
2.49111
2.48315
2.47528
2.46762
2.46037
2.45375
2.448
2.44342
2.44031
2.43929
2.44362
2.46128
2.48216
2.39449
-3.64364
-6.41495
-1.2505
0.0947915
6.2026
2.53153
2.50511
2.47811
2.46889
2.46364
2.45802
2.45236
2.44704
2.44199
2.43706
2.43211
2.427
2.42172
2.41623
2.41042
2.40438
2.39812
2.39165
2.38505
2.37835
2.37162
2.36495
2.35841
2.35208
2.34607
2.34054
2.33573
2.33188
2.32925
2.32795
2.3283
2.33312
2.34963
2.36641
2.27772
-2.9525
-5.27151
-4.48578
-0.552182
7.39027
2.40026
2.37356
2.34622
2.33703
2.33196
2.32655
2.3211
2.31602
2.31124
2.30659
2.30194
2.2972
2.29233
2.28729
2.282
2.27655
2.27097
2.26525
2.25944
2.25359
2.24778
2.24211
2.23668
2.23158
2.22688
2.22271
2.21927
2.21676
2.21537
2.21511
2.21603
2.22036
2.23414
2.2474
2.1697
-2.16105
-5.22911
-4.70842
-1.02414
9.3058
2.27292
2.24606
2.2185
2.20938
2.20451
2.19933
2.19414
2.18932
2.18483
2.18047
2.17613
2.17173
2.16721
2.16254
2.15773
2.15282
2.14784
2.14279
2.13769
2.13257
2.12752
2.12262
2.118
2.11376
2.11
2.1068
2.10431
2.10268
2.10203
2.10228
2.10333
2.10676
2.11766
2.12811
2.0637
-1.79158
-3.70977
-2.9811
-0.613841
10.906
2.14904
2.12209
2.09447
2.08544
2.08077
2.07587
2.07101
2.06652
2.06237
2.05839
2.0544
2.05037
2.04621
2.04192
2.03754
2.03308
2.02859
2.02407
2.01955
2.01505
2.01063
2.00637
2.00236
1.99875
1.99563
1.99308
1.99121
1.99013
1.98991
1.99043
1.99152
1.99443
2.00324
2.01136
1.95726
-1.40723
-0.442296
-0.104635
0.340747
10.8699
2.02818
2.00118
1.97356
1.96463
1.96014
1.9557
1.95139
1.94731
1.94357
1.94005
1.93653
1.93297
1.92925
1.92539
1.92143
1.91736
1.91324
1.90911
1.90499
1.90093
1.89698
1.89318
1.88964
1.88648
1.8838
1.88169
1.88025
1.87956
1.87968
1.88052
1.88195
1.88497
1.89318
1.90043
1.85353
-0.633251
-0.0601231
1.05446
0.523415
8.34099
1.90992
1.88289
1.85534
1.84653
1.84225
1.83838
1.83473
1.8313
1.82822
1.82534
1.82245
1.8195
1.81631
1.81294
1.8094
1.80569
1.80186
1.79798
1.79411
1.79031
1.78662
1.78309
1.77983
1.77693
1.77449
1.77262
1.77141
1.77097
1.77141
1.77273
1.77492
1.77871
1.78699
1.79528
1.76557
0.377075
0.101146
-0.6232
0.474718
5.15183
1.79381
1.76678
1.73939
1.73077
1.72674
1.72328
1.72041
1.71824
1.71627
1.71437
1.71234
1.71008
1.70749
1.70464
1.70149
1.69807
1.69445
1.69071
1.68694
1.6832
1.67958
1.67613
1.67294
1.67008
1.66765
1.66573
1.66445
1.66394
1.66437
1.66587
1.66861
1.67332
1.68197
1.69203
1.67963
0.973442
0.093679
2.24824
2.58541
4.80602
1.67921
1.65227
1.62508
1.61654
1.61251
1.60911
1.60805
1.60848
1.6082
1.60772
1.6068
1.60527
1.60327
1.6009
1.59799
1.59467
1.59106
1.58728
1.58341
1.57956
1.5758
1.57223
1.5689
1.56586
1.56317
1.56092
1.5592
1.55818
1.55805
1.55905
1.5615
1.56634
1.57559
1.5872
1.58158
1.104
0.323556
1.83934
3.20033
4.43039
1.56562
1.53899
1.51206
1.50348
1.49923
1.49545
1.49681
1.50102
1.50414
1.50613
1.50677
1.50605
1.50443
1.50212
1.49921
1.49569
1.49178
1.48768
1.4835
1.47931
1.47522
1.4713
1.46758
1.4641
1.46089
1.45799
1.45547
1.45344
1.45206
1.45158
1.45245
1.45589
1.46412
1.4754
1.46751
1.19771
0.492412
1.65613
3.10248
3.69694
1.45283
1.42694
1.40038
1.39178
1.38719
1.38204
1.38275
1.39184
1.40514
1.41207
1.41412
1.41366
1.41166
1.40865
1.40504
1.40089
1.39634
1.39164
1.38691
1.38221
1.37761
1.37316
1.36887
1.36476
1.3608
1.35699
1.35332
1.34978
1.3464
1.34323
1.34062
1.33971
1.34252
1.3445
1.31277
1.26204
0.866731
1.84924
2.86424
2.91134
1.34121
1.31641
1.28994
1.28041
1.27352
1.26237
1.2515
1.27349
1.31694
1.33653
1.33574
1.33077
1.32577
1.32053
1.3151
1.30967
1.30409
1.2985
1.29302
1.28768
1.2825
1.27748
1.27262
1.26789
1.26321
1.25853
1.25375
1.24875
1.24332
1.23727
1.23055
1.22352
1.21636
1.20045
1.14694
1.21171
1.49928
2.28041
2.95052
2.7968
1.23388
1.21027
1.18378
1.17303
1.1637
1.14659
1.11793
1.13343
1.21099
1.28023
1.27871
1.25995
1.24619
1.23643
1.22819
1.22078
1.21389
1.20725
1.20096
1.195
1.1893
1.18383
1.17857
1.17345
1.16841
1.16337
1.15822
1.15278
1.14686
1.14023
1.13285
1.12442
1.11304
1.09187
1.05969
1.13672
2.07102
2.75918
3.17971
2.98942
1.13523
1.11264
1.08705
1.07702
1.06933
1.05661
1.0295
1.00426
1.08459
1.17495
1.21158
1.18578
1.16371
1.15011
1.14003
1.13139
1.12352
1.11628
1.10956
1.10327
1.09731
1.09165
1.08624
1.08107
1.07611
1.07128
1.06652
1.06174
1.05689
1.05195
1.04717
1.04266
1.0368
1.02576
1.01551
1.07042
2.29256
3.0792
3.45718
3.14671
1.04565
1.02354
0.999471
0.991666
0.98806
0.984886
0.974372
0.93289
0.959002
1.02876
1.09351
1.0848
1.06735
1.05538
1.04649
1.0386
1.03121
1.02436
1.01785
1.01169
1.00585
1.0003
0.995044
0.990126
0.985537
0.981248
0.977238
0.973505
0.970078
0.967068
0.96481
0.963712
0.963159
0.960678
0.959664
0.997397
1.97125
2.97635
3.62174
3.07218
0.961044
0.939075
0.91637
0.910602
0.910142
0.913141
0.915507
0.882386
0.864825
0.869509
0.944209
0.984553
0.973645
0.96071
0.95202
0.944999
0.938407
0.932152
0.926012
0.920162
0.914626
0.909407
0.904536
0.900063
0.896014
0.892402
0.889244
0.88658
0.884476
0.883044
0.88256
0.883398
0.885224
0.886096
0.88809
0.917629
1.51814
2.37719
3.63818
2.70613
0.876932
0.855459
0.834043
0.829827
0.831153
0.836582
0.846694
0.837813
0.763505
0.734187
0.805178
0.882699
0.87685
0.864792
0.857242
0.851235
0.845441
0.839659
0.833986
0.828572
0.823462
0.818688
0.814303
0.810372
0.806942
0.804048
0.801727
0.800044
0.799089
0.798978
0.799935
0.802295
0.805779
0.80875
0.812379
0.837266
1.28561
2.36127
3.05487
1.81948
0.79055
0.770096
0.749502
0.745518
0.74611
0.74861
0.754685
0.752189
0.693377
0.674098
0.71906
0.767166
0.775558
0.769365
0.76314
0.757731
0.752485
0.747074
0.741892
0.736942
0.732298
0.728011
0.724143
0.720762
0.717922
0.715663
0.714027
0.713082
0.71292
0.713659
0.715499
0.718738
0.72301
0.726553
0.730383
0.754723
1.16223
2.49861