/*--------------------------------*- C++ -*----------------------------------*\
  =========                 |
  \\      /  F ield         | OpenFOAM: The Open Source CFD Toolbox
   \\    /   O peration     | Website:  https://openfoam.org
    \\  /    A nd           | Version:  8
     \\/     M anipulation  |
\*---------------------------------------------------------------------------*/
FoamFile
{
    version     2.0;
    format      ascii;
    class       volScalarField;
    location    "0.4";
    object      p_rgh;
}
// * * * * * * * * * * * * * * * * * * * * * * * * * * * * * * * * * * * * * //

dimensions      [1 -1 -2 0 0 0 0];

internalField   nonuniform List<scalar> 
9150
(
2527.95
2501.07
2475.52
2458.16
2449.67
2449.67
2458.16
2475.51
2501.07
2527.95
2518.69
2499.24
2483.51
2471.6
2465.5
2465.5
2471.6
2483.51
2499.24
2518.69
2509.03
2495.55
2486.92
2479.09
2474.92
2474.92
2479.09
2486.92
2495.55
2509.03
2503.95
2493.99
2488.43
2483.02
2480.01
2480.01
2483.02
2488.43
2493.99
2503.95
2502.3
2493.42
2488.73
2484.51
2482.03
2482.03
2484.51
2488.73
2493.42
2502.3
2063.82
2059.82
2084.75
2098.18
2103.87
2103.87
2098.18
2084.75
2059.81
2063.81
2253.56
2229.45
2223.99
2222.11
2221.37
2221.37
2222.1
2223.99
2229.45
2253.56
2377.46
2346.13
2330.18
2319.83
2314.52
2314.52
2319.82
2330.17
2346.13
2377.46
2477.42
2435.31
2407.49
2389.84
2380.9
2380.9
2389.84
2407.49
2435.31
2477.42
2547.29
2494.89
2456.29
2434.04
2423.6
2423.6
2434.04
2456.28
2494.88
2547.29
1876.81
1919.76
1913.1
1920.36
1915.56
1915.54
1920.3
1913.01
1919.62
1876.64
1904.09
1926.85
1908.03
1917.24
1912.99
1912.98
1917.2
1907.97
1926.76
1903.97
1882.08
1915.1
1884.76
1892.8
1896.09
1896.09
1892.78
1884.72
1915.05
1882.02
1723.18
1849.65
1867.23
1885.61
1901.36
1901.36
1885.6
1867.21
1849.62
1723.13
1600.78
1838.36
1934.68
1964.04
1978.88
1978.88
1964.04
1934.67
1838.34
1600.75
1280.55
1346.01
1396.12
1429.79
1446.54
1446.82
1430.64
1397.55
1348.01
1283.06
1012.85
1070.48
1115.9
1147.66
1164.64
1164.93
1148.51
1117.26
1072.33
1015.15
751.038
795.549
830.346
854.254
866.568
866.795
854.926
831.45
797.064
752.931
613.808
650.955
679.417
698.716
708.522
708.71
699.275
680.339
652.224
615.403
573.153
600.138
620.805
634.713
641.759
641.889
635.1
621.444
601.017
574.238
615.55
623.242
631.865
638.078
641.234
641.283
638.217
632.076
623.462
615.565
706.62
687.453
681.949
680.682
680.194
680.164
680.581
681.709
686.811
705.083
797.143
759.809
741.115
734.636
732.269
732.261
734.601
740.937
759.149
796.262
846.081
819.959
792.711
782.77
780.073
780.109
782.842
792.641
819.65
847.233
836.215
860.998
833.568
820.302
817.358
817.368
820.218
833.052
860.38
839.897
776.185
883.117
864.342
847.675
844.014
844.118
847.882
864.484
884.171
782.609
701.45
880.394
880.33
863.828
859.689
859.757
863.901
880.38
882.1
708.881
580.975
862.875
896.762
879.928
872.863
872.735
879.288
895.89
866.459
598.659
424.419
830.584
912.038
895.866
884.31
884.246
895.527
912.092
835.453
438.943
307.117
788.326
910.644
900.256
886.712
886.76
900.383
911.911
795.061
322.052
210.645
741.505
898.504
897.354
883.279
883.229
897.304
899.897
748.034
222.41
138.332
661.475
880.311
895.576
880.95
880.555
894.826
882.817
677.457
148.507
87.5269
581.236
858.389
890.469
876.316
876.008
890.003
860.752
593.143
94.8382
52.4313
512.111
833.957
879.905
867.141
866.874
879.658
836.903
525.705
58.0264
29.1866
444.027
807.616
865.51
854.641
854.411
865.449
810.915
458.237
33.1298
17.3724
382.571
780.859
847.61
839.065
838.943
847.931
784.554
396.755
18.6786
12.2658
328.938
755.24
827.245
821.074
820.989
827.647
758.784
342.693
13.3601
9.13237
283.237
732.175
805.983
801.956
801.925
806.507
735.548
296.328
9.79017
8.45526
246.173
712.2
784.662
782.558
782.584
785.328
715.291
257.773
8.49697
7.94258
218.304
688.965
764.357
764.291
764.262
765.143
696.321
228.221
7.9984
7.4907
195.94
664.627
745.919
747.732
747.699
746.508
670.12
205.443
7.53746
7.08973
177.771
648.783
729.726
732.49
732.466
730.257
654.405
186.856
7.12881
6.72726
163.16
635.679
715.847
719.106
719.085
716.303
641.25
171.845
6.76131
6.39457
151.75
626.004
704.531
707.912
707.899
704.927
631.542
160.115
6.42551
6.08607
143.033
619.447
695.816
699.048
699.046
696.153
624.93
151.147
6.11523
5.79992
136.801
616.022
689.737
692.634
692.638
690.013
621.432
144.693
5.82804
5.53114
132.518
615.26
686.25
688.701
688.71
686.466
620.588
140.297
5.55948
5.27755
130.454
617.588
685.283
687.23
687.241
685.443
622.805
138.067
5.30686
5.03811
129.617
621.878
686.687
688.157
688.171
686.82
626.994
137.274
5.06865
4.81301
130.113
628.851
690.284
691.376
691.393
690.373
633.88
137.819
4.84504
4.60083
132.268
638.169
696.097
696.75
696.764
696.117
642.936
139.98
4.63462
4.40092
135.476
649.435
703.844
704.115
704.132
703.839
654.155
143.299
4.43644
4.21306
140.139
662.369
713.332
713.308
713.326
713.302
666.955
148.053
4.25015
4.03656
146.009
676.836
724.397
724.155
724.174
724.347
681.296
154.067
4.07507
3.87079
153.116
692.675
736.868
736.483
736.502
736.805
696.997
161.341
3.91055
3.71497
161.423
709.731
750.585
750.123
750.142
750.513
713.908
169.841
3.75586
3.56832
170.929
727.853
765.396
764.912
764.932
765.321
731.878
179.561
3.6103
3.43005
181.632
746.902
781.159
780.701
780.721
781.082
750.767
190.497
3.47318
3.29936
193.54
766.74
797.75
797.349
797.371
797.674
770.438
202.654
3.34383
3.17546
206.659
787.252
815.041
814.733
814.756
814.969
790.774
216.035
3.22155
3.05764
220.996
808.322
832.938
832.737
832.761
832.87
811.66
230.643
3.10562
2.94523
236.558
829.842
851.344
851.263
851.287
851.282
832.989
246.477
2.99527
2.83765
253.35
851.718
870.173
870.223
870.248
870.118
854.667
263.539
2.8898
2.73435
271.377
873.863
889.358
889.541
889.566
889.309
876.608
281.83
2.78854
2.63481
290.645
896.194
908.836
909.151
909.176
908.794
898.732
301.357
2.69089
2.53853
311.16
918.644
928.554
928.999
929.024
928.518
920.972
322.131
2.59618
2.4448
332.931
941.148
948.468
949.038
949.063
948.44
943.267
344.164
2.50343
2.35263
355.974
963.651
968.541
969.231
969.256
968.521
965.561
367.471
2.41158
2.26126
380.311
986.107
988.743
989.545
989.571
988.732
987.81
392.07
2.31978
2.16998
405.969
1008.47
1009.05
1009.96
1009.98
1009.05
1009.97
417.977
2.22787
2.08072
432.98
1030.72
1029.44
1030.44
1030.47
1029.44
1032.01
445.217
2.13995
2.00014
461.374
1052.8
1049.89
1050.98
1051
1049.9
1053.9
473.814
2.06275
1.93233
491.18
1074.7
1070.39
1071.55
1071.58
1070.41
1075.6
503.792
1.99731
1.87265
522.419
1096.39
1090.93
1092.16
1092.18
1090.95
1097.09
535.168
1.93769
1.81415
555.117
1117.84
1111.49
1112.78
1112.81
1111.52
1118.36
567.966
1.87728
1.75139
589.309
1139.05
1132.08
1133.43
1133.45
1132.11
1139.38
602.221
1.81226
1.68473
625.043
1159.97
1152.69
1154.08
1154.1
1152.72
1160.17
637.96
1.74501
1.61695
662.325
1180.66
1173.31
1174.73
1174.75
1173.35
1180.63
675.265
1.67788
1.54834
701.242
1200.9
1193.93
1195.37
1195.4
1193.97
1200.9
714.004
1.60999
1.47817
741.417
1221.2
1214.54
1216
1216.02
1214.58
1221.11
753.983
1.54198
1.40521
782.704
1241.29
1235.13
1236.6
1236.62
1235.17
1241.21
794.824
1.47131
1.339
824.44
1261.3
1255.63
1257.12
1257.14
1255.65
1261.2
836.03
1.41089
1.31815
865.699
1281.18
1276.04
1277.59
1277.61
1276.08
1281.11
875.73
1.40026
4.97269
904.299
1301.37
1296.71
1298.26
1298.31
1296.85
1301.45
912.514
10.5684
22.246
941.108
1321.92
1317.66
1319.11
1319.16
1317.81
1322.04
949.346
25.1497
31.3057
978.927
1342.29
1338.4
1339.78
1339.81
1338.48
1342.3
986.589
34.7558
43.0671
1016.95
1362.35
1358.89
1360.26
1360.29
1358.96
1362.37
1024.08
46.5229
55.7143
1055.29
1382.39
1379.31
1380.66
1380.69
1379.38
1382.42
1061.92
59.2767
69.8139
1094
1402.38
1399.65
1400.98
1401
1399.72
1402.43
1100.1
73.4283
85.4162
1133.05
1422.33
1419.91
1421.21
1421.24
1419.99
1422.4
1138.62
89.0614
102.714
1172.46
1442.23
1440.1
1441.37
1441.39
1440.18
1442.31
1177.47
106.355
121.909
1212.21
1462.08
1460.22
1461.45
1461.47
1460.29
1462.16
1216.65
125.505
143.252
1252.31
1481.87
1480.25
1481.45
1481.47
1480.33
1481.96
1256.19
146.754
167.059
1292.77
1501.6
1500.22
1501.37
1501.39
1500.29
1501.7
1296.07
170.407
193.746
1333.58
1521.29
1520.12
1521.23
1521.24
1520.18
1521.38
1336.3
196.867
223.854
1374.69
1540.92
1539.96
1541.02
1541.03
1540
1541
1376.86
226.667
258.064
1415.99
1560.51
1559.75
1560.76
1560.76
1559.77
1560.58
1417.62
260.479
297.141
1457.24
1580.07
1579.5
1580.46
1580.46
1579.5
1580.11
1458.38
299.075
341.811
1498.06
1599.61
1599.23
1600.14
1600.12
1599.2
1599.61
1498.76
343.2
392.564
1537.93
1619.13
1618.94
1619.81
1619.78
1618.87
1619.09
1538.28
393.384
449.47
1576.3
1638.65
1638.64
1639.48
1639.43
1638.54
1638.55
1576.36
449.741
512.141
1612.65
1658.16
1658.35
1659.16
1659.1
1658.21
1658.01
1612.5
511.912
579.893
1646.61
1677.67
1678.07
1678.87
1678.8
1677.89
1677.45
1646.3
579.207
652.05
1677.97
1697.18
1697.82
1698.64
1698.55
1697.6
1696.89
1677.55
650.923
728.207
1706.72
1716.69
1717.63
1718.51
1718.41
1717.37
1716.35
1706.23
726.65
808.384
1732.86
1736.23
1737.56
1738.55
1738.44
1737.27
1735.84
1732.36
806.449
892.883
1756.7
1755.85
1757.69
1758.86
1758.75
1757.38
1755.42
1756.21
890.729
982.576
1778.01
1775.6
1778.12
1779.58
1779.47
1777.81
1775.16
1777.57
980.449
1077.84
1797.67
1795.52
1798.92
1800.8
1800.69
1798.62
1795.08
1797.22
1076.05
1179.51
1816.39
1815.63
1820.15
1822.57
1822.47
1819.86
1815.2
1815.96
1178.22
1288.02
1834.52
1835.72
1841.53
1844.55
1844.46
1841.28
1835.33
1834.09
1287.21
1404.63
1850.3
1854.16
1861.22
1864.37
1864.3
1861.03
1853.84
1849.89
1404.13
1520.3
1863.07
1872.21
1878.63
1880.76
1880.72
1878.51
1871.99
1862.69
1519.88
1647.43
1891.63
1900.9
1897.94
1897.09
1897.07
1897.88
1900.81
1891.4
1647.01
1776.78
1934.15
1923.21
1913.44
1909.31
1909.29
1913.39
1923.14
1934.04
1776.53
1199.44
1097.64
986.106
869.593
753.551
643.288
543.278
456.741
385.503
329.988
286.982
253.879
228.835
210.852
198.989
192.227
189.664
190.591
194.446
200.8
209.308
219.615
231.447
244.447
258.315
272.746
287.479
302.008
316.013
329.187
341.442
352.261
361.596
371.726
376.982
375.88
378.071
380.627
383.513
385.169
943.67
856.602
762.786
667.27
574.926
490.069
415.74
353.376
302.786
263.212
237.111
220.353
210.417
205.273
203.426
204.024
206.642
211.027
217.023
224.563
233.616
244.132
256.009
269.022
282.951
297.424
312.245
326.633
340.505
353.375
364.68
374.385
381.968
388.404
387.149
385.603
377.456
378.802
376.262
383.1
697.364
629.659
556.702
482.803
412.315
349.399
296.952
257.007
230.142
214.775
206.763
204.651
206.3
209.998
214.006
217.928
222.523
228.088
234.56
242.034
250.64
260.426
271.353
283.294
296.047
309.328
322.93
336.365
349.086
361.049
371.499
380.337
386.983
392.011
392.456
388.571
387.239
378.815
386.259
396.462
567.897
509.403
444.751
374.884
301.156
229.124
168.411
127.807
110.398
111.539
123.529
140.756
161.283
184.952
204.39
215.794
224.099
232.059
239.033
246.045
254.087
263.264
273.446
284.514
296.291
308.581
321.15
333.656
345.725
356.927
367.06
375.922
383.173
388.535
392.516
395.886
399.258
391.99
401.009
415.631
540.876
502.011
454.805
378.378
255.253
125.184
47.1898
21.5998
17.839
23.7919
33.2831
44.6948
56.9975
82.7943
138.008
182.193
208.657
232.175
245.289
250.457
255.278
261.417
269.311
278.847
289.555
301.012
312.896
324.89
336.665
347.839
358.159
367.482
375.52
382.755
388.995
396.64
405.673
414.546
411.696
429.524
614.352
612.882
544.466
317.923
82.7625
19.6034
11.349
9.47679
9.32447
9.57296
9.80904
10.0829
10.9402
13.0143
21.6405
40.6336
66.4115
114.288
197.255
232.708
250.48
257.876
262.369
269.081
278.19
288.85
300.338
312.172
323.987
335.469
346.367
356.598
366.326
374.651
383.453
393.471
406.043
426.747
421.189
434.467
735.156
685.265
387.171
75.08
17.419
12.1044
11.2779
11.0665
10.9353
10.8363
10.7567
10.6997
10.6928
10.7237
10.7621
10.9858
11.9447
14.9678
34.0448
72.3339
156.304
226.067
244.211
253.323
261.905
272.453
284.282
296.617
309.002
321.15
332.876
344.121
354.991
365.306
375.844
387.319
401.884
423.997
425.748
429.312
793.816
531.176
108.268
18.2546
11.8344
10.9475
10.8676
10.7343
10.5885
10.4932
10.4466
10.4325
10.4198
10.3767
10.308
10.2887
10.361
10.5157
10.9076
12.0503
21.2408
66.3121
172.689
223.267
238.756
251.865
265.406
279.208
292.859
306.132
318.918
331.208
343.114
354.841
366.672
379.192
394.631
416.263
423.094
415.358
724.968
250.568
22.6278
12.1367
10.6781
10.6417
10.6107
10.5054
10.4097
10.3481
10.3131
10.2955
10.2866
10.2758
10.2593
10.2432
10.2139
10.1577
10.1406
10.2649
10.5627
11.2234
32.5879
131.432
210.348
228.483
245.423
261.619
277.062
291.777
305.788
319.147
331.99
344.567
357.155
370.283
385.641
405.892
415.004
395.689
562.636
95.7768
14.6855
10.4736
10.1972
10.3059
10.2942
10.2364
10.1878
10.154
10.131
10.1161
10.1074
10.102
10.0985
10.0972
10.0948
10.084
10.0668
10.0432
10.0238
10.1021
10.3026
17.8432
121.336
206.443
225.104
244.846
262.862
279.29
294.595
308.999
322.669
335.852
348.745
361.869
376.435
394.717
403.551
373.227
337.755
26.4028
11.3611
9.79464
9.89991
10.0063
10.0019
9.97525
9.95411
9.93842
9.92671
9.91891
9.91455
9.91261
9.91232
9.9134
9.91516
9.91611
9.91457
9.90648
9.88892
9.87631
9.87241
9.90011
13.8297
147.714
209.841
229.819
251.034
269.589
286.182
301.507
315.842
329.402
342.352
354.978
368.396
384.241
391.065
350.496
193.42
15.9103
10.0807
9.54284
9.69906
9.75743
9.74847
9.73479
9.72644
9.72078
9.71712
9.71585
9.71689
9.71972
9.72367
9.7281
9.73221
9.73517
9.73622
9.73383
9.72567
9.71242
9.70328
9.69457
9.613
40.3735
189.195
220.859
242.476
263.245
281.099
297.125
311.895
325.613
338.454
350.282
362.524
375.567
380.429
329.058
92.9065
12.9357
9.44945
9.31539
9.47985
9.51671
9.5086
9.50325
9.50275
9.50387
9.5063
9.51051
9.51656
9.52414
9.53278
9.54189
9.55079
9.55875
9.56513
9.56917
9.56976
9.56635
9.56238
9.56836
9.59467
9.62331
128.066
222.81
238.03
259.965
279.2
295.838
310.853
324.556
337.056
348.36
359.122
369.398
372.578
310.349
37.6035
11.0409
9.0504
9.1262
9.26661
9.28695
9.28087
9.28063
9.28456
9.2899
9.2966
9.30505
9.31532
9.32718
9.34027
9.35415
9.36828
9.38209
9.39499
9.40628
9.41488
9.41981
9.42602
9.45067
9.47185
9.20834
27.9919
213.005
239.221
258.762
279.62
297.186
312.429
326.008
338.067
348.665
357.91
365.922
365.539
297.475
18.174
9.62034
8.79871
8.96263
9.05511
9.0625
9.05995
9.06342
9.06995
9.07793
9.08761
9.0993
9.11305
9.12869
9.14595
9.16449
9.1839
9.2037
9.22335
9.24216
9.25903
9.27242
9.28202
9.29269
9.3073
9.28652
9.14769
132.831
245.108
259.749
281.535
300.668
316.326
329.714
341.253
350.995
358.934
365
360.519
292.181
13.0434
8.93452
8.64725
8.80884
8.85708
8.85178
8.84808
8.85141
8.85807
8.86694
8.87824
8.89212
8.90853
8.92733
8.94832
8.97129
8.99601
9.02219
9.04952
9.07756
9.10606
9.13299
9.15821
9.18837
9.23531
9.24312
8.8834
21.7104
206.759
264.7
284.664
305.898
322.344
335.509
346.457
355.386
362.238
366.735
356.589
283.606
11.6238
8.60331
8.49066
8.63499
8.658
8.64347
8.63676
8.63847
8.64438
8.65344
8.66564
8.68097
8.69931
8.72052
8.74451
8.77122
8.80065
8.83286
8.86802
8.90628
8.94917
8.99427
9.04834
9.12303
9.20657
9.14101
8.96598
8.59284
114.374
279.7
296.092
316.189
331.947
344.094
353.989
361.919
367.762
371.071
350.922
277.253
10.6685
8.31994
8.30799
8.4392
8.44732
8.42762
8.41907
8.41975
8.42525
8.43444
8.44718
8.46332
8.48269
8.50516
8.53068
8.55925
8.59101
8.6262
8.66528
8.70878
8.75849
8.81098
8.87142
8.9613
9.13496
14.3338
9.44096
8.40925
121.537
308.744
320.142
334.177
346.241
356.01
364.188
370.804
375.567
377.857
345.189
275.586
9.87775
8.05836
8.10802
8.22172
8.22065
8.20017
8.19216
8.19318
8.19898
8.20848
8.22147
8.23773
8.25707
8.27936
8.30451
8.33253
8.36351
8.39773
8.43564
8.47775
8.52353
8.57829
8.62529
8.68515
8.80542
17.293
38.2252
87.5509
228.662
346.282
349.089
355.921
363.461
370.532
376.884
382.161
385.858
387.17
348.223
277.045
9.04398
7.78375
7.88258
7.97692
7.9741
7.95913
7.95522
7.95849
7.96554
7.97562
7.98857
8.00423
8.02244
8.04307
8.06604
8.09131
8.11897
8.1493
8.1829
8.21971
8.25629
8.32928
8.38637
8.40712
8.43392
15.1967
172.496
303.648
341.054
373.867
372.466
375.53
380.652
386.187
391.421
395.807
398.712
399.153
358.073
281.311
8.22446
7.51507
7.64465
7.71762
7.71734
7.71107
7.71284
7.71905
7.72748
7.73786
7.75016
7.76432
7.78023
7.79774
7.81674
7.83713
7.85892
7.88239
7.90803
7.93533
7.96003
8.03338
8.08883
8.11686
8.06427
13.0682
232.53
293.895
260.768
351.764
381.193
387.485
394.602
401.043
406.523
410.824
413.43
413.282
373.011
288.276
7.51469
7.22021
7.38381
7.45038
7.45855
7.46233
7.46992
7.47877
7.48803
7.49796
7.50876
7.52045
7.53297
7.54614
7.55974
7.5735
7.58722
7.60084
7.61445
7.62723
7.63592
7.68117
7.73444
7.74823
7.54969
10.165
151.632
83.2005
66.7008
250.902
382.723
394.233
406.088
415.036
421.591
426.304
428.989
428.658
395.008
297.734
7.03571
6.9962
7.15863
7.21093
7.21977
7.2266
7.23521
7.24359
7.25155
7.2595
7.26764
7.27597
7.28434
7.29246
7.29993
7.30628
7.31092
7.3132
7.31243
7.30742
7.29599
7.28258
7.32277
7.29591
7.03637
7.79989
12.3586
8.4452
11.1821
154.641
394.732
407.539
420.713
430.527
437.282
441.911
444.416
443.924
423.013
341.824
6.85926
6.86505
6.98034
7.006
7.00486
7.00625
7.01047
7.01513
7.01979
7.02456
7.02939
7.0341
7.03841
7.04192
7.04407
7.04418
7.04141
7.03463
7.0224
7.00271
6.97236
6.92655
6.90412
6.81035
6.60262
6.50214
6.63998
6.75292
7.97498
145.016
410.389
429.393
439.817
448.241
454.126
458.163
460.283
459.669
451.675
441.1
6.71553
6.71649
6.79502
6.80311
6.79411
6.78998
6.78959
6.7904
6.79172
6.79342
6.79526
6.79696
6.79818
6.79849
6.79736
6.79418
6.78824
6.77868
6.76447
6.74435
6.71668
6.6794
6.63529
6.6054
6.51135
6.39072
6.39298
6.55429
6.62747
160.141
411.423
452.771
460.747
467.269
472.061
475.474
477.384
477.14
474.393
469.918
6.51763
6.52914
6.59146
6.59265
6.58061
6.57355
6.57018
6.56824
6.56705
6.56642
6.56607
6.5657
6.56498
6.56354
6.56096
6.55681
6.55062
6.54192
6.53023
6.51514
6.49625
6.47302
6.44469
6.43566
6.42478
6.38581
6.40569
6.48613
6.55249
168.019
404.744
475.56
482.343
487.219
491.018
493.881
495.705
496
493.911
484.953
6.31384
6.33189
6.38257
6.38002
6.36677
6.35812
6.35287
6.34908
6.34619
6.34399
6.34223
6.34064
6.33895
6.33686
6.33408
6.33033
6.3254
6.3191
6.31136
6.3022
6.29176
6.28019
6.26796
6.25929
6.26164
6.27395
6.30776
6.36373
6.38391
168.969
419.341
498.361
504.301
507.916
510.907
513.353
515.223
516.177
514.828
503.578
6.11279
6.13204
6.17223
6.16733
6.15387
6.14453
6.13821
6.13332
6.12938
6.12624
6.12366
6.12144
6.11935
6.1172
6.11478
6.11194
6.10864
6.1049
6.10089
6.09692
6.09342
6.09099
6.09047
6.09351
6.10324
6.12234
6.15701
6.20143
6.20252
164.077
447.622
521.795
526.538
529.18
531.505
533.635
535.615
537.248
536.585
526.258
5.91511
5.93225
5.96285
5.95638
5.94328
5.93377
5.92691
5.9214
5.91687
5.91317
5.91011
5.90752
5.90522
5.90308
5.90096
5.8988
5.89661
5.89453
5.89282
5.89189
5.89227
5.89467
5.9
5.90935
5.92425
5.94671
5.98083
6.0226
6.02997
152.917
490.811
546.608
549.107
550.885
552.606
554.458
556.552
558.789
558.805
549.365
5.72125
5.7343
5.75612
5.74856
5.73606
5.72665
5.71955
5.71371
5.70883
5.70475
5.70132
5.69837
5.69576
5.69338
5.69113
5.68896
5.68691
5.68512
5.68385
5.6835
5.6846
5.68789
5.69431
5.70506
5.72156
5.74623
5.78308
5.83424
5.87326
127.592
525.506
572.056
571.988
572.875
574.008
575.589
577.76
580.52
581.378
572.375
5.53106
5.53913
5.55308
5.54476
5.53299
5.52383
5.51664
5.5106
5.50544
5.50101
5.49715
5.49368
5.49049
5.48744
5.48446
5.48147
5.47848
5.47555
5.47286
5.47069
5.4695
5.46994
5.47295
5.47977
5.49244
5.51522
5.55335
5.61644
5.69082
80.4813
538.84
596.807
595.252
594.964
595.434
596.716
598.898
602.032
603.77
600.93
5.34421
5.34731
5.35445
5.34569
5.33471
5.32586
5.31865
5.31244
5.307
5.30216
5.29774
5.29357
5.28948
5.28535
5.28106
5.27649
5.27157
5.26622
5.26041
5.25417
5.24759
5.24083
5.23411
5.2275
5.2226
5.22434
5.24204
5.24382
5.03187
28.4764
446.524
586.289
619.042
617.099
616.71
617.622
619.767
623.153
626.511
629.922
5.16119
5.15971
5.16102
5.15203
5.14183
5.13331
5.12609
5.1197
5.11395
5.10864
5.10357
5.09855
5.09338
5.08792
5.08199
5.07545
5.06811
5.05979
5.05025
5.03924
5.02644
5.01151
4.99389
4.9727
4.94794
4.92125
4.8971
4.84666
4.63114
5.96998
149.975
309.453
573.536
636.58
636.343
637.418
639.816
643.538
648.059
651.43
4.98304
4.97734
4.97358
4.96443
4.95495
4.94671
4.93946
4.93288
4.92679
4.92098
4.91525
4.90936
4.90312
4.89634
4.88882
4.88037
4.87079
4.85981
4.8471
4.83229
4.8149
4.79434
4.76985
4.74039
4.70524
4.66339
4.61275
4.54287
4.43763
4.36913
5.69581
33.1464
289.066
640.908
653.933
655.767
658.787
662.991
667.969
671.874
4.81044
4.80087
4.79267
4.78339
4.77452
4.76652
4.75922
4.75245
4.74604
4.73977
4.73342
4.72678
4.71962
4.71175
4.70296
4.69303
4.68179
4.66896
4.65424
4.63729
4.61769
4.59497
4.56861
4.53809
4.50291
4.4641
4.41906
4.36734
4.30898
4.23967
4.34736
6.18627
37.5343
551.527
670.603
673.888
677.294
681.862
687.16
691.582
4.64349
4.63054
4.61854
4.60917
4.60085
4.59306
4.58575
4.57883
4.57215
4.5655
4.55868
4.55146
4.54363
4.53501
4.52538
4.51457
4.50239
4.48862
4.47302
4.45533
4.43526
4.41251
4.38675
4.35775
4.32548
4.29106
4.254
4.21592
4.17627
4.12946
4.10937
4.60204
6.0936
250.598
662.076
691.155
695.305
700.437
706.045
707.171
4.48243
4.46659
4.45137
4.44194
4.43411
4.42654
4.41926
4.41227
4.40544
4.39857
4.39145
4.38387
4.37564
4.36662
4.35663
4.3455
4.33307
4.31918
4.30364
4.28628
4.2669
4.24534
4.22144
4.19506
4.1662
4.13521
4.10368
4.07063
4.03662
4.0001
3.96956
4.09028
4.34812
21.2781
598.56
708.356
702.107
712.701
725.422
710.505
4.3275
4.30918
4.2912
4.28174
4.27435
4.26702
4.25983
4.25286
4.24599
4.23911
4.23192
4.22424
4.21589
4.20679
4.1968
4.18579
4.17364
4.16025
4.1455
4.12926
4.11145
4.09198
4.07085
4.04806
4.02369
3.99798
3.9725
3.94617
3.91928
3.8919
3.86353
3.87966
3.96229
4.42061
466.225
725.133
638.779
702.68
744.545
726.484
4.17868
4.15826
4.13798
4.12849
4.12151
4.11442
4.10738
4.10053
4.09375
4.08713
4.08
4.07244
4.06423
4.05533
4.04564
4.03508
4.02355
4.01101
3.9974
3.98266
3.96677
3.94975
3.93166
3.91263
3.89289
3.87281
3.85349
3.83551
3.8199
3.8085
3.8031
3.82369
3.88491
4.03221
276.934
724.93
649.851
717.025
763.006
744.051
4.03585
4.01371
3.99153
3.98205
3.97545
3.96862
3.96179
3.95514
3.94858
3.94217
3.93576
3.92801
3.92016
3.9117
3.90255
3.89266
3.88199
3.8705
3.85818
3.84501
3.83101
3.81622
3.80075
3.78476
3.76845
3.75214
3.73635
3.72192
3.7098
3.70144
3.70092
3.72099
3.75975
3.75074
116.754
681.905
665.677
756.734
781.02
761.638
3.89886
3.87533
3.85164
3.8422
3.83595
3.8294
3.8228
3.81641
3.81014
3.80395
3.79797
3.79061
3.78323
3.77533
3.76686
3.75776
3.74801
3.73762
3.72659
3.71492
3.70263
3.68976
3.67636
3.66253
3.64836
3.63392
3.61923
3.6043
3.58881
3.57255
3.55905
3.55708
3.53853
3.31587
25.6718
573.108
692.62
786.111
793.203
779.668
3.7675
3.74289
3.71801
3.70864
3.7027
3.69643
3.69008
3.68396
3.678
3.67212
3.66658
3.66006
3.65284
3.64557
3.63782
3.62954
3.62074
3.61143
3.60164
3.59138
3.58068
3.56956
3.55808
3.54628
3.53423
3.52192
3.50926
3.49601
3.48177
3.46601
3.44845
3.42983
3.40444
3.36256
3.37285
438.384
709.226
707.084
791.565
803.212
3.64152
3.61611
3.59031
3.581
3.57534
3.56932
3.56322
3.55739
3.55175
3.54624
3.54116
3.53525
3.52831
3.52168
3.51465
3.50721
3.49933
3.49109
3.48246
3.47351
3.46429
3.45484
3.4452
3.43549
3.42582
3.41631
3.40708
3.39825
3.39
3.38265
3.37673
3.37502
3.38461
3.40258
3.35019
359.047
714.509
513.582
785.622
825.306
3.52067
3.49467
3.46817
3.45892
3.45348
3.44767
3.44181
3.43624
3.43091
3.42576
3.42106
3.41558
3.40913
3.40309
3.39672
3.39002
3.38299
3.37573
3.36817
3.36041
3.35253
3.34458
3.33662
3.32875
3.32109
3.31384
3.30723
3.30148
3.29689
3.29378
3.29276
3.29713
3.3148
3.33578
3.24881
367.382
466.111
473.942
777.239
843.88
3.40462
3.3782
3.3512
3.34199
3.33673
3.33111
3.32546
3.32013
3.31508
3.31029
3.30586
3.30082
3.29494
3.28932
3.28352
3.27748
3.27121
3.26479
3.25833
3.25147
3.24471
3.23804
3.2315
3.22517
3.21916
3.21363
3.20882
3.20498
3.20234
3.20105
3.20139
3.20622
3.22274
3.23955
3.15104
385.128
383.807
497.307
754.378
864.367
3.29297
3.26627
3.23893
3.22976
3.22468
3.21926
3.21382
3.20873
3.20395
3.19948
3.1954
3.19065
3.18556
3.18
3.17471
3.16927
3.16368
3.15799
3.15235
3.14647
3.1405
3.13482
3.12939
3.12429
3.11959
3.11542
3.11198
3.10947
3.10808
3.10782
3.10874
3.11307
3.12686
3.14013
3.06248
387.76
392.968
514.773
697.397
885.859
3.18525
3.15839
3.13083
3.12173
3.11693
3.11167
3.10647
3.10165
3.09716
3.09291
3.08922
3.08482
3.08022
3.07487
3.07006
3.06515
3.06017
3.05512
3.05023
3.04512
3.03986
3.03495
3.03033
3.02609
3.02233
3.01913
3.01664
3.01501
3.01436
3.01461
3.01567
3.01909
3.02999
3.04044
2.97605
364.841
623.739
527.929
640.866
907.195
3.08099
3.05404
3.02642
3.01741
3.01295
3.00783
3.00297
2.99848
2.99432
2.99036
2.98701
2.98309
2.97874
2.97387
2.96949
2.96504
2.96054
2.95603
2.95169
2.94721
2.94266
2.93832
2.93431
2.9307
2.92758
2.92503
2.92316
2.92208
2.92186
2.92238
2.92347
2.92639
2.93519
2.94331
2.88922
368.724
755.178
543.596
655.895
927.514
2.97975
2.95275
2.92513
2.91621
2.91196
2.9073
2.90297
2.89888
2.89515
2.89162
2.88847
2.88533
2.88127
2.87697
2.873
2.86893
2.86481
2.86068
2.85665
2.85272
2.84877
2.84477
2.84121
2.83805
2.83537
2.83326
2.83182
2.83113
2.83125
2.83209
2.83353
2.83655
2.84476
2.852
2.80511
379.151
776.451
558.956
721.86
945.805
2.88111
2.85408
2.82653
2.81772
2.81369
2.8106
2.80594
2.8025
2.79941
2.79653
2.79397
2.79149
2.78787
2.78413
2.78059
2.77688
2.77305
2.76918
2.76532
2.76173
2.75804
2.7543
2.75102
2.74812
2.74568
2.74381
2.7426
2.74216
2.7426
2.74392
2.74611
2.7499
2.75818
2.76647
2.73676
369.37
794.693
726.911
864.071
962.978
2.78462
2.75759
2.7302
2.72158
2.7178
2.71634
2.7113
2.70907
2.70709
2.7052
2.70333
2.70171
2.69859
2.69545
2.6923
2.68889
2.68526
2.68152
2.67775
2.67425
2.67062
2.66698
2.66376
2.66089
2.65846
2.65654
2.65526
2.65475
2.65518
2.65668
2.65942
2.66413
2.67279
2.68284
2.67044
306.088
811.776
963.26
978.643
982.422
2.68964
2.6627
2.63551
2.62697
2.62306
2.62193
2.61882
2.61902
2.61865
2.61817
2.6173
2.61641
2.61395
2.61133
2.60843
2.6051
2.60149
2.59771
2.59385
2.59019
2.58647
2.58284
2.57934
2.57629
2.5736
2.57135
2.56963
2.56861
2.56848
2.56948
2.57193
2.57678
2.58603
2.59763
2.59201
196.472
825.347
999.14
1004
997.47
2.59567
2.56904
2.54211
2.53353
2.52928
2.52799
2.53476
2.53143
2.53423
2.5362
2.53686
2.53634
2.53575
2.53233
2.52926
2.52574
2.52183
2.51773
2.51355
2.50944
2.50551
2.50159
2.49764
2.49415
2.49094
2.48804
2.48552
2.48349
2.48212
2.48163
2.48251
2.48594
2.49417
2.50545
2.49756
97.9419
833.052
1018.99
1024
1003.36
2.5025
2.47661
2.45005
2.44145
2.43686
2.43354
2.45555
2.44283
2.45504
2.46178
2.46384
2.46363
2.46288
2.45988
2.45527
2.45057
2.44602
2.44131
2.43658
2.4319
2.42753
2.42308
2.41856
2.41443
2.41047
2.40666
2.40299
2.39945
2.39607
2.3929
2.39029
2.38938
2.39219
2.39417
2.36244
39.8701
830.493
1040.16
1043.36
1021.36
2.4105
2.3857
2.35923
2.3497
2.34281
2.33227
2.34487
2.36128
2.38794
2.40588
2.40508
2.40019
2.39616
2.39141
2.38578
2.37896
2.37339
2.3678
2.36231
2.35698
2.35202
2.34702
2.34202
2.33718
2.3325
2.32782
2.32304
2.31804
2.31261
2.30656
2.29984
2.29282
2.28565
2.26974
2.21623
13.2391
813.461
1060.22
1062.94
1040.2
2.32279
2.29918
2.27269
2.26194
2.25261
2.23551
2.22468
2.44674
2.35501
2.3692
2.36763
2.34887
2.33521
2.32614
2.31885
2.31025
2.3028
2.29616
2.28988
2.28392
2.2783
2.273
2.26773
2.26236
2.25732
2.25228
2.24713
2.24169
2.23577
2.22914
2.22176
2.21333
2.20195
2.18078
2.1486
4.25429
772.253
1079.1
1082.63
1059.41
2.24376
2.22117
2.19558
2.18555
2.17786
2.16515
2.14014
2.41715
2.90822
2.34686
2.32013
2.29432
2.27225
2.25882
2.25036
2.2421
2.23205
2.22481
2.21809
2.2118
2.20586
2.20042
2.19498
2.1896
2.18464
2.17981
2.17505
2.17027
2.16542
2.16048
2.1557
2.1512
2.14533
2.13429
2.12404
2.54971
681.964
1094.41
1102.36
1078.57
2.1738
2.15169
2.12762
2.11982
2.11621
2.11304
2.10266
2.31937
3.02025
2.79979
2.22167
2.21297
2.19551
2.18357
2.17632
2.16906
2.15936
2.15251
2.14601
2.13984
2.134
2.1285
2.12324
2.11828
2.11369
2.1094
2.10539
2.10166
2.09823
2.09522
2.09296
2.09186
2.09133
2.08884
2.08782
2.24342
526.019
1103.88
1121.97
1097.51
2.10881
2.08684
2.06414
2.05837
2.05791
2.06091
2.06334
2.13106
2.98911
3.01241
2.10274
2.13233
2.12143
2.10849
2.10051
2.09512
2.08672
2.07992
2.07378
2.06794
2.0624
2.05718
2.05231
2.04784
2.04378
2.04017
2.03701
2.03435
2.03225
2.03081
2.03033
2.03118
2.03318
2.03389
2.03589
2.07198
350.499
1108.06
1141.44
1116.18
2.04432
2.02285
2.00143
1.99722
1.99854
2.00397
2.0141
2.01654
2.61641
2.92151
2.46535
2.0501
2.04425
2.03219
2.02474
2.02096
2.01529
2.00705
2.00138
1.99597
1.99086
1.98608
1.9817
1.97777
1.97433
1.97144
1.96912
1.96743
1.96648
1.96637
1.96733
1.96982
1.97337
1.97618
1.97983
2.03194
224.599
1106.96
1160.3
1134.32
1.97756
1.95711
1.93651
1.93253
1.93312
1.93562
1.9417
1.93928
2.06334
2.90222
2.89463
1.95419
1.96258
1.95639
1.95017
1.94637
1.94234
1.93409
1.92891
1.92396
1.91931
1.91502
1.91116
1.90777
1.90493
1.90267
1.90104
1.90009
1.89993
1.90067
1.90251
1.90596
1.91023
1.91362
1.91747
2.09666
152.043
1097.47
1179.39
1162.04
1.90987
1.89099
1.87143
1.8677
1.86756
1.86735
1.86806
1.86536
1.95827
2.89647
2.89484
1.87975
1.90424
1.89499
1.88234
1.87499
1.87073
1.86215
1.85698
1.85223
1.84792
1.84407
1.84069
1.83782
1.8355
1.83374
1.83258
1.83207
1.83229
1.83335
1.83543
1.83892
1.84312
1.84567
1.84833
2.11899
108.043
1078.82
1198.85
1197.66
1.84318
1.82655
1.80877
1.80631
1.80721
1.80796
1.81054
1.81506
1.82977
2.63313
2.82317
2.3651
1.83461
1.82382
1.80918
1.80098
1.79735
1.79032
1.78447
1.7802
1.77643
1.77314
1.77032
1.76798
1.76615
1.76481
1.76398
1.76371
1.76405
1.7651
1.76706
1.77023
1.77395
1.77564
1.77733
2.04076
79.2723
1053.58
1218.34
1217.18
1.77802
1.76424
1.74803
1.74604
1.74658
1.74605
1.74587
1.74735
1.74014
2.01687
2.81103
2.77671
1.74199
1.73803
1.72986
1.72428
1.72234
1.71816
1.71145
1.70807
1.7051
1.70252
1.70034
1.69912
1.6972
1.69621
1.69564
1.69548
1.69579
1.69667
1.69835
1.70119
1.7046
1.70586
1.70754
1.91666
60.0445
1022.13
1237.97
1231.67
1.71632
1.70638
1.69153
1.68926
1.68835