/*--------------------------------*- C++ -*----------------------------------*\
  =========                 |
  \\      /  F ield         | OpenFOAM: The Open Source CFD Toolbox
   \\    /   O peration     | Website:  https://openfoam.org
    \\  /    A nd           | Version:  8
     \\/     M anipulation  |
\*---------------------------------------------------------------------------*/
FoamFile
{
    version     2.0;
    format      ascii;
    class       surfaceScalarField;
    location    "0.4";
    object      phi;
}
// * * * * * * * * * * * * * * * * * * * * * * * * * * * * * * * * * * * * * //

dimensions      [0 3 -1 0 0 0 0];

internalField   nonuniform List<scalar> 
18095
(
1.58607e-07
-9.64667e-07
8.0606e-07
1.6586e-07
-1.24773e-06
1.24048e-06
1.2288e-07
-1.24219e-06
1.28517e-06
6.57963e-08
-1.26404e-06
1.32112e-06
9.02273e-13
-1.28137e-06
1.34716e-06
-6.57946e-08
-1.28137e-06
1.34717e-06
-1.22879e-07
-1.26404e-06
1.32112e-06
-1.6586e-07
-1.24219e-06
1.28517e-06
-1.58607e-07
-1.24773e-06
1.24048e-06
-9.64667e-07
8.06061e-07
1.11135e-07
-1.0758e-06
9.98946e-08
-1.23649e-06
7.34089e-08
-1.21571e-06
4.03942e-08
-1.23102e-06
6.9001e-13
-1.24098e-06
-4.03929e-08
-1.24098e-06
-7.34079e-08
-1.23102e-06
-9.98939e-08
-1.21571e-06
-1.11134e-07
-1.23649e-06
-1.0758e-06
6.73761e-08
-1.14318e-06
5.31764e-08
-1.22229e-06
4.25654e-08
-1.20509e-06
2.41111e-08
-1.21257e-06
4.70122e-13
-1.21687e-06
-2.41102e-08
-1.21687e-06
-4.25647e-08
-1.21257e-06
-5.31759e-08
-1.2051e-06
-6.73759e-08
-1.22229e-06
-1.14318e-06
3.98975e-08
-1.18308e-06
2.69269e-08
-1.20932e-06
2.23108e-08
-1.20048e-06
1.26986e-08
-1.20296e-06
2.56539e-13
-1.20417e-06
-1.26981e-08
-1.20417e-06
-2.23104e-08
-1.20296e-06
-2.69266e-08
-1.20048e-06
-3.98973e-08
-1.20932e-06
-1.18308e-06
1.69249e-08
7.60174e-09
7.12298e-09
4.16704e-09
5.02178e-14
-4.16695e-09
-7.12292e-09
-7.60172e-09
-1.69249e-08
-1.76292e-07
-1.1623e-06
1.33859e-06
-2.20588e-07
-1.21542e-06
1.25972e-06
-1.66591e-07
-1.21241e-06
1.15841e-06
-8.79619e-08
-1.20508e-06
1.12645e-06
7.13353e-12
-1.20477e-06
1.1168e-06
8.79759e-08
-1.20477e-06
1.1168e-06
1.66604e-07
-1.20509e-06
1.12646e-06
2.20599e-07
-1.21241e-06
1.15842e-06
1.763e-07
-1.21543e-06
1.25973e-06
-1.16231e-06
1.33861e-06
-9.29193e-08
-1.06938e-06
-9.59445e-08
-1.2124e-06
-7.96828e-08
-1.22867e-06
-4.44781e-08
-1.24029e-06
3.98092e-12
-1.24925e-06
4.44857e-08
-1.24925e-06
7.96895e-08
-1.24029e-06
9.59497e-08
-1.22867e-06
9.29222e-08
-1.2124e-06
-1.06939e-06
-5.77736e-08
-1.01161e-06
-5.4949e-08
-1.21522e-06
-4.62863e-08
-1.23733e-06
-2.69529e-08
-1.25962e-06
2.40246e-12
-1.27621e-06
2.69575e-08
-1.27621e-06
4.62902e-08
-1.25962e-06
5.49519e-08
-1.23734e-06
5.77751e-08
-1.21523e-06
-1.01161e-06
-7.45743e-08
-9.37034e-07
-6.15945e-08
-1.2282e-06
-4.80614e-08
-1.25087e-06
-2.73756e-08
-1.28031e-06
1.56056e-12
-1.30358e-06
2.73785e-08
-1.30359e-06
4.80638e-08
-1.28031e-06
6.15962e-08
-1.25087e-06
7.45752e-08
-1.22821e-06
-9.37035e-07
-1.30974e-07
-1.18697e-07
-8.43925e-08
-4.3579e-08
1.14666e-12
4.35812e-08
8.43943e-08
1.18698e-07
1.30974e-07
-7.41833e-08
-9.54406e-07
1.02859e-06
-1.13487e-08
-1.33398e-06
1.27114e-06
5.82729e-09
-1.26693e-06
1.24976e-06
2.20348e-09
-1.22354e-06
1.22717e-06
1.05227e-10
-1.22098e-06
1.22308e-06
-1.99311e-09
-1.221e-06
1.22309e-06
-5.6143e-09
-1.22357e-06
1.22719e-06
1.15765e-08
-1.26697e-06
1.24978e-06
7.43977e-08
-1.33405e-06
1.27123e-06
-9.54575e-07
1.02897e-06
9.87396e-10
-9.55393e-07
1.08568e-08
-1.34384e-06
8.83243e-09
-1.26491e-06
4.42594e-09
-1.21914e-06
6.38849e-11
-1.21662e-06
-4.30242e-09
-1.21663e-06
-8.71745e-09
-1.21916e-06
-1.07527e-08
-1.26493e-06
-9.06547e-10
-1.34389e-06
-9.55482e-07
2.31874e-08
-9.78581e-07
1.57276e-08
-1.33638e-06
8.49816e-09
-1.25768e-06
5.16418e-09
-1.2158e-06
3.92441e-11
-1.2115e-06
-5.08818e-09
-1.2115e-06
-8.42928e-09
-1.21581e-06
-1.56672e-08
-1.25769e-06
-2.31481e-08
-1.33641e-06
-9.7863e-07
7.65596e-08
-1.05514e-06
5.12419e-08
-1.31107e-06
3.30884e-08
-1.23953e-06
2.02787e-08
-1.20299e-06
2.18279e-11
-1.19124e-06
-2.0237e-08
-1.19124e-06
-3.30493e-08
-1.203e-06
-5.12053e-08
-1.23954e-06
-7.65374e-08
-1.31108e-06
-1.05517e-06
2.83452e-07
2.32105e-07
1.50991e-07
7.44517e-08
1.25578e-11
-7.44275e-08
-1.5097e-07
-2.32089e-07
-2.8344e-07
-8.23859e-07
-1.95159e-07
1.01902e-06
-6.22816e-07
-2.01042e-07
-4.17816e-07
-2.05001e-07
-2.10567e-07
-2.07248e-07
-2.94027e-09
-2.07627e-07
2.04686e-07
-2.07626e-07
4.11957e-07
-2.07271e-07
6.17023e-07
-2.05066e-07
8.18177e-07
-2.01154e-07
-1.95325e-07
1.0135e-06
-6.80508e-07
-3.53791e-07
8.3914e-07
-5.16101e-07
-3.6545e-07
-3.47461e-07
-3.73641e-07
-1.75888e-07
-3.78821e-07
-2.22934e-09
-3.81286e-07
1.71454e-07
-3.8131e-07
3.43082e-07
-3.78899e-07
5.11798e-07
-3.73782e-07
6.76313e-07
-3.65669e-07
-3.54107e-07
8.35095e-07
-5.68493e-07
-4.87019e-07
7.01721e-07
-4.30645e-07
-5.03298e-07
-2.89472e-07
-5.14814e-07
-1.46129e-07
-5.22163e-07
-1.65713e-09
-5.25758e-07
1.42826e-07
-5.25793e-07
2.86201e-07
-5.22274e-07
4.27429e-07
-5.1501e-07
5.65359e-07
-5.03599e-07
-4.87453e-07
6.98705e-07
-4.7789e-07
-5.99634e-07
5.90505e-07
-3.6163e-07
-6.19558e-07
-2.42828e-07
-6.33615e-07
-1.22409e-07
-6.42583e-07
-1.20125e-09
-6.46965e-07
1.20014e-07
-6.47008e-07
2.40456e-07
-6.42716e-07
3.59299e-07
-6.33852e-07
4.75621e-07
-6.19922e-07
-6.00159e-07
5.88328e-07
-3.96622e-07
-6.92976e-07
4.89965e-07
-3.00133e-07
-7.16047e-07
-2.01489e-07
-7.3226e-07
-1.0148e-07
-7.42591e-07
-8.06482e-10
-7.47639e-07
9.98752e-08
-7.4769e-07
1.99907e-07
-7.42748e-07
2.98591e-07
-7.32536e-07
3.9514e-07
-7.1647e-07
-6.93589e-07
4.88569e-07
-3.25758e-07
-7.69282e-07
4.02063e-07
-2.46685e-07
-7.95121e-07
-1.65666e-07
-8.13278e-07
-8.33846e-08
-8.24873e-07
-4.75879e-10
-8.30548e-07
8.24426e-08
-8.30609e-07
1.64754e-07
-8.25059e-07
2.4582e-07
-8.13603e-07
3.24959e-07
-7.95609e-07
-7.69977e-07
4.01348e-07
-2.75176e-07
-8.35059e-07
3.40953e-07
-2.07846e-07
-8.6245e-07
-1.39349e-07
-8.81776e-07
-7.00214e-08
-8.942e-07
-2.5337e-10
-9.00316e-07
6.95232e-08
-9.00385e-07
1.38875e-07
-8.94411e-07
2.07411e-07
-8.82139e-07
2.74787e-07
-8.62986e-07
-8.35802e-07
3.40613e-07
-2.49489e-07
-8.97928e-07
3.12359e-07
-1.87099e-07
-9.24841e-07
-1.24827e-07
-9.44048e-07
-6.2529e-08
-9.56498e-07
-1.77205e-10
-9.62668e-07
6.21715e-08
-9.62734e-07
1.24459e-07
-9.56698e-07
1.86709e-07
-9.44389e-07
2.49066e-07
-9.25343e-07
-8.98613e-07
3.11876e-07
-2.43094e-07
-9.62029e-07
3.07195e-07
-1.81031e-07
-9.86904e-07
-1.20154e-07
-1.00492e-06
-5.99964e-08
-1.01666e-06
-1.72071e-10
-1.02249e-06
5.96414e-08
-1.02255e-06
1.19763e-07
-1.01682e-06
1.80572e-07
-1.0052e-06
2.42523e-07
-9.87294e-07
-9.6256e-07
3.06471e-07
-2.4634e-07
-1.02867e-06
3.12981e-07
-1.82699e-07
-1.05054e-06
-1.20919e-07
-1.0667e-06
-6.02768e-08
-1.0773e-06
-1.76271e-10
-1.08259e-06
5.99186e-08
-1.08264e-06
1.20545e-07
-1.07745e-06
1.82299e-07
-1.06695e-06
2.45885e-07
-1.05088e-06
-1.02902e-06
3.12342e-07
-2.50684e-07
-1.0969e-06
3.18914e-07
-1.86057e-07
-1.11517e-06
-1.23241e-07
-1.12952e-06
-6.1471e-08
-1.13907e-06
-2.27159e-10
-1.14384e-06
6.10075e-08
-1.14388e-06
1.22753e-07
-1.13919e-06
1.85542e-07
-1.12974e-06
2.50154e-07
-1.11549e-06
-1.09727e-06
3.18406e-07
-2.53404e-07
-1.16279e-06
3.1929e-07
-1.88824e-07
-1.17975e-06
-1.25258e-07
-1.19309e-06
-6.25039e-08
-1.20182e-06
-2.08589e-10
-1.20613e-06
6.20777e-08
-1.20616e-06
1.24804e-07
-1.20192e-06
1.88329e-07
-1.19326e-06
2.52912e-07
-1.18007e-06
-1.16336e-06
3.18998e-07
-2.5265e-07
-1.22738e-06
3.1724e-07
-1.88339e-07
-1.24406e-06
-1.24976e-07
-1.25645e-06
-6.23551e-08
-1.26444e-06
-1.40289e-10
-1.26835e-06
6.20769e-08
-1.26838e-06
1.24703e-07
-1.26454e-06
1.88049e-07
-1.25661e-06
2.52213e-07
-1.24424e-06
-1.2276e-06
3.16456e-07
-2.48646e-07
-1.29324e-06
3.14511e-07
-1.84723e-07
-1.30798e-06
-1.22534e-07
-1.31864e-06
-6.11677e-08
-1.32581e-06
-1.55901e-10
-1.32936e-06
6.08571e-08
-1.32939e-06
1.22225e-07
-1.32591e-06
1.84407e-07
-1.31879e-06
2.48309e-07
-1.30814e-06
-1.2934e-06
3.14112e-07
-2.41547e-07
-1.35721e-06
3.05514e-07
-1.79876e-07
-1.36966e-06
-1.19467e-07
-1.37905e-06
-5.96829e-08
-1.38559e-06
-1.68032e-10
-1.38887e-06
5.93449e-08
-1.38891e-06
1.19131e-07
-1.3857e-06
1.79568e-07
-1.37923e-06
2.4132e-07
-1.36989e-06
-1.35735e-06
3.05271e-07
-2.32344e-07
-1.41763e-06
2.92768e-07
-1.73827e-07
-1.42817e-06
-1.15687e-07
-1.43719e-06
-5.77898e-08
-1.44349e-06
-7.48462e-11
-1.44659e-06
5.7631e-08
-1.44661e-06
1.15508e-07
-1.44358e-06
1.73667e-07
-1.43739e-06
2.32318e-07
-1.42854e-06
-1.41793e-06
2.9289e-07
-2.22865e-07
-1.47526e-06
2.8049e-07
-1.66471e-07
-1.48457e-06
-1.10589e-07
-1.49307e-06
-5.51559e-08
-1.49892e-06
6.81569e-11
-1.50181e-06
5.52879e-08
-1.50183e-06
1.10694e-07
-1.49898e-06
1.66454e-07
-1.49315e-06
2.22595e-07
-1.48468e-06
-1.47537e-06
2.80044e-07
-2.12092e-07
-1.53025e-06
2.67083e-07
-1.58053e-07
-1.53861e-06
-1.04816e-07
-1.54631e-06
-5.22164e-08
-1.55152e-06
1.03114e-10
-1.55413e-06
5.24118e-08
-1.55414e-06
1.04977e-07
-1.55155e-06
1.58168e-07
-1.54634e-06
2.1215e-07
-1.53867e-06
-1.53025e-06
2.6703e-07
-1.99428e-07
-1.58211e-06
2.51288e-07
-1.48611e-07
-1.58942e-06
-9.85425e-08
-1.59638e-06
-4.90744e-08
-1.60099e-06
1.02955e-10
-1.60331e-06
4.92743e-08
-1.60331e-06
9.87238e-08
-1.601e-06
1.48758e-07
-1.59637e-06
1.99526e-07
-1.58943e-06
-1.58201e-06
2.5128e-07
-1.85935e-07
-1.63083e-06
2.34657e-07
-1.38448e-07
-1.63691e-06
-9.17802e-08
-1.64304e-06
-4.57069e-08
-1.64706e-06
8.47905e-11
-1.6491e-06
4.58736e-08
-1.6491e-06
9.19369e-08
-1.64706e-06
1.38581e-07
-1.64302e-06
1.86002e-07
-1.63685e-06
-1.63053e-06
2.34522e-07
-1.71557e-07
-1.6756e-06
2.16327e-07
-1.2773e-07
-1.68074e-06
-8.46788e-08
-1.6861e-06
-4.21775e-08
-1.68957e-06
6.01524e-11
-1.69134e-06
4.22966e-08
-1.69134e-06
8.47943e-08
-1.68956e-06
1.27846e-07
-1.68607e-06
1.71709e-07
-1.68072e-06
-1.67556e-06
2.16738e-07
-1.56509e-07
-1.71603e-06
1.96939e-07
-1.16581e-07
-1.72066e-06
-7.73082e-08
-1.72537e-06
-3.8504e-08
-1.72837e-06
7.17573e-11
-1.72991e-06
3.86512e-08
-1.72992e-06
7.74666e-08
-1.72837e-06
1.16759e-07
-1.72536e-06
1.56694e-07
-1.72065e-06
-1.71595e-06
1.97087e-07
-1.41249e-07
-1.75261e-06
1.7783e-07
-1.05195e-07
-1.75672e-06
-6.9781e-08
-1.76078e-06
-3.4749e-08
-1.7634e-06
1.0079e-10
-1.76476e-06
3.49571e-08
-1.76477e-06
7.00102e-08
-1.76343e-06
1.05461e-07
-1.76081e-06
1.41521e-07
-1.75671e-06
-1.75251e-06
1.78083e-07
-1.25958e-07
-1.78481e-06
1.58159e-07
-9.3846e-08
-1.78883e-06
-6.22835e-08
-1.79234e-06
-3.09991e-08
-1.79469e-06
1.52664e-10
-1.79592e-06
3.13065e-08
-1.79593e-06
6.26064e-08
-1.79473e-06
9.42111e-08
-1.79242e-06
1.26381e-07
-1.78888e-06
-1.78493e-06
1.58797e-07
-1.11094e-07
-1.8131e-06
1.39387e-07
-8.28178e-08
-1.81711e-06
-5.49312e-08
-1.82023e-06
-2.72805e-08
-1.82234e-06
2.46739e-10
-1.82344e-06
2.77726e-08
-1.82345e-06
5.54103e-08
-1.82236e-06
8.32729e-08
-1.82028e-06
1.11578e-07
-1.81719e-06
-1.81327e-06
1.39922e-07
-9.68916e-08
-1.83777e-06
1.21554e-07
-7.22216e-08
-1.84178e-06
-4.78314e-08
-1.84462e-06
-2.36908e-08
-1.84648e-06
3.11704e-10
-1.84745e-06
2.43118e-08
-1.84745e-06
4.84467e-08
-1.8465e-06
7.28261e-08
-1.84466e-06
9.74866e-08
-1.84185e-06
-1.83794e-06
1.22148e-07
-8.31977e-08
-1.859e-06
1.0443e-07
-6.19768e-08
-1.863e-06
-4.10171e-08
-1.86558e-06
-2.02706e-08
-1.86722e-06
3.60299e-10
-1.86808e-06
2.09899e-08
-1.86808e-06
4.17322e-08
-1.86724e-06
6.2685e-08
-1.86561e-06
8.38898e-08
-1.86305e-06
-1.85915e-06
1.05108e-07
-7.02115e-08
-1.87699e-06
8.81975e-08
-5.22611e-08
-1.88095e-06
-3.45548e-08
-1.88329e-06
-1.70307e-08
-1.88475e-06
3.94413e-10
-1.8855e-06
1.7818e-08
-1.88551e-06
3.53372e-08
-1.88476e-06
5.30342e-08
-1.88331e-06
7.09696e-08
-1.88099e-06
-1.87713e-06
8.8946e-08
-5.80235e-08
-1.89192e-06
7.29525e-08
-4.3147e-08
-1.89582e-06
-2.84902e-08
-1.89794e-06
-1.39936e-08
-1.89925e-06
4.17251e-10
-1.89991e-06
1.48267e-08
-1.89992e-06
2.93191e-08
-1.89925e-06
4.39684e-08
-1.89796e-06
5.88338e-08
-1.89585e-06
-1.89206e-06
7.3759e-08
-4.66684e-08
-1.90399e-06
5.8747e-08
-3.46571e-08
-1.90783e-06
-2.28424e-08
-1.90976e-06
-1.11672e-08
-1.91092e-06
4.3393e-10
-1.91151e-06
1.2034e-08
-1.91152e-06
2.37062e-08
-1.91093e-06
3.55156e-08
-1.90977e-06
4.75191e-08
-1.90786e-06
-1.90413e-06
5.9597e-08
-3.61671e-08
-1.91344e-06
4.56126e-08
-2.68068e-08
-1.9172e-06
-1.76209e-08
-1.91894e-06
-8.55513e-09
-1.91999e-06
4.47187e-10
-1.92052e-06
9.44885e-09
-1.92052e-06
1.85127e-08
-1.91999e-06
2.76956e-08
-1.91895e-06
3.70515e-08
-1.91721e-06
-1.91358e-06
4.64983e-08
-2.65343e-08
-1.92047e-06
3.35694e-08
-1.96031e-08
-1.92413e-06
-1.28281e-08
-1.92572e-06
-6.1576e-09
-1.92666e-06
4.58541e-10
-1.92713e-06
7.07434e-09
-1.92713e-06
1.37439e-08
-1.92666e-06
2.05172e-08
-1.92572e-06
2.74454e-08
-1.92414e-06
-1.92062e-06
3.44809e-08
-1.77495e-08
-1.92531e-06
2.25871e-08
-1.3036e-08
-1.92884e-06
-8.46005e-09
-1.9303e-06
-3.97281e-09
-1.93114e-06
4.68485e-10
-1.93157e-06
4.90965e-09
-1.93157e-06
9.39663e-09
-1.93115e-06
1.39723e-08
-1.9303e-06
1.86852e-08
-1.92885e-06
-1.92545e-06
2.35232e-08
-9.81108e-09
-1.92816e-06
1.26573e-08
-7.09844e-09
-1.93155e-06
-4.50858e-09
-1.93289e-06
-1.99594e-09
-1.93366e-06
4.77087e-10
-1.93405e-06
2.95014e-09
-1.93405e-06
5.46267e-09
-1.93366e-06
8.05249e-09
-1.93289e-06
1.07646e-08
-1.93157e-06
-1.9283e-06
1.36115e-08
-2.67688e-09
-1.92922e-06
3.7388e-09
-1.76148e-09
-1.93247e-06
-9.5662e-10
-1.93369e-06
-2.1909e-10
-1.93439e-06
4.84479e-10
-1.93475e-06
1.18796e-09
-1.93475e-06
1.92583e-09
-1.9344e-06
2.73087e-09
-1.93369e-06
3.64564e-09
-1.93248e-06
-1.92936e-06
4.70491e-09
3.69607e-09
-1.92869e-06
-4.2306e-09
3.00535e-09
-1.93178e-06
2.21599e-09
-1.9329e-06
1.36839e-09
-1.93355e-06
4.91191e-10
-1.93387e-06
-3.85809e-10
-1.93387e-06
-1.23343e-09
-1.93355e-06
-2.02264e-09
-1.9329e-06
-2.71395e-09
-1.93179e-06
-1.92882e-06
-3.25329e-09
9.3487e-09
-1.92673e-06
-1.13039e-08
7.23226e-09
-1.92966e-06
5.02847e-09
-1.9307e-06
2.77397e-09
-1.93129e-06
4.9426e-10
-1.93159e-06
-1.7854e-09
-1.93159e-06
-4.03943e-09
-1.93129e-06
-6.24266e-09
-1.9307e-06
-8.35912e-09
-1.92967e-06
-1.92686e-06
-1.03195e-08
1.43318e-08
-1.92352e-06
-1.75407e-08
1.09586e-08
-1.92629e-06
7.50797e-09
-1.92725e-06
4.01316e-09
-1.9278e-06
4.96422e-10
-1.92808e-06
-3.02018e-09
-1.92808e-06
-6.5146e-09
-1.9278e-06
-9.96465e-09
-1.92725e-06
-1.33376e-08
-1.9263e-06
-1.92365e-06
-1.65526e-08
1.86994e-08
-1.91921e-06
-2.30109e-08
1.42244e-08
-1.92181e-06
9.68079e-09
-1.9227e-06
5.09866e-09
-1.92322e-06
4.97476e-10
-1.92348e-06
-4.10358e-09
-1.92348e-06
-8.68533e-09
-1.92322e-06
-1.32283e-08
-1.92271e-06
-1.77032e-08
-1.92183e-06
-1.91933e-06
-2.20214e-08
2.25048e-08
-1.91393e-06
-2.77799e-08
1.70694e-08
-1.91638e-06
1.15733e-08
-1.91721e-06
6.04356e-09
-1.91769e-06
4.97152e-10
-1.91793e-06
-5.04914e-09
-1.91793e-06
-1.05786e-08
-1.91769e-06
-1.60741e-08
-1.91721e-06
-2.15095e-08
-1.91639e-06
-1.91405e-06
-2.67917e-08
2.58021e-08
-1.90782e-06
-3.19153e-08
1.9534e-08
-1.91011e-06
1.32124e-08
-1.91089e-06
6.86126e-09
-1.91133e-06
4.9555e-10
-1.91156e-06
-5.87005e-09
-1.91156e-06
-1.22209e-08
-1.91134e-06
-1.8542e-08
-1.91089e-06
-2.48101e-08
-1.91012e-06
-1.90792e-06
-3.09304e-08
2.8644e-08
-1.90098e-06
-3.54823e-08
2.16576e-08
-1.90312e-06
1.46243e-08
-1.90385e-06
7.56494e-09
-1.90428e-06
4.92894e-10
-1.90449e-06
-6.57905e-09
-1.90449e-06
-1.36381e-08
-1.90428e-06
-2.06711e-08
-1.90386e-06
-2.76574e-08
-1.90314e-06
-1.90108e-06
-3.45027e-08
3.1081e-08
-1.89352e-06
-3.85437e-08
2.34782e-08
-1.89552e-06
1.58341e-08
-1.89621e-06
8.16737e-09
-1.89661e-06
4.89463e-10
-1.89681e-06
-7.18836e-09
-1.89681e-06
-1.48549e-08
-1.89661e-06
-2.24985e-08
-1.89622e-06
-3.01013e-08
-1.89553e-06
-1.89361e-06
-3.75707e-08
3.31607e-08
-1.88552e-06
-4.11587e-08
2.50314e-08
-1.88739e-06
1.68659e-08
-1.88804e-06
8.68062e-09
-1.88842e-06
4.85527e-10
-1.88862e-06
-7.70949e-09
-1.88862e-06
-1.58946e-08
-1.88843e-06
-2.40597e-08
-1.88805e-06
-3.2189e-08
-1.8874e-06
-1.88561e-06
-4.01933e-08
3.49276e-08
-1.87707e-06
-4.33823e-08
2.63506e-08
-1.87881e-06
1.77419e-08
-1.87943e-06
9.11587e-09
-1.8798e-06
4.81234e-10
-1.87998e-06
-8.15335e-09
-1.87998e-06
-1.67792e-08
-1.8798e-06
-2.53876e-08
-1.87944e-06
-3.39646e-08
-1.87883e-06
-1.87715e-06
-4.24254e-08
3.64225e-08
-1.86822e-06
-4.52656e-08
2.74663e-08
-1.86986e-06
1.84824e-08
-1.87045e-06
9.48336e-09
-1.8708e-06
4.76724e-10
-1.87098e-06
-8.52988e-09
-1.87098e-06
-1.75289e-08
-1.8708e-06
-2.65125e-08
-1.87046e-06
-3.54688e-08
-1.86987e-06
-1.8683e-06
-4.43176e-08
3.76826e-08
-1.85905e-06
-4.6855e-08
2.84063e-08
-1.86058e-06
1.9106e-08
-1.86115e-06
9.79236e-09
-1.86148e-06
4.72073e-10
-1.86166e-06
-8.84821e-09
-1.86166e-06
-1.81618e-08
-1.86149e-06
-2.74621e-08
-1.86116e-06
-3.67385e-08
-1.86059e-06
-1.85912e-06
-4.59162e-08
3.87414e-08
-1.8496e-06
-4.8192e-08
2.91958e-08
-1.85104e-06
1.96294e-08
-1.85158e-06
1.00513e-08
-1.85191e-06
4.67325e-10
-1.85207e-06
-9.11664e-09
-1.85207e-06
-1.86948e-08
-1.85191e-06
-2.82613e-08
-1.85159e-06
-3.78072e-08
-1.85105e-06
-1.84966e-06
-4.7263e-08
3.96288e-08
-1.83992e-06
-4.9314e-08
2.9857e-08
-1.84126e-06
2.00673e-08
-1.84179e-06
1.02674e-08
-1.84211e-06
4.62479e-10
-1.84227e-06
-9.34253e-09
-1.84227e-06
-1.91425e-08
-1.84211e-06
-2.89325e-08
-1.8418e-06
-3.87048e-08
-1.84128e-06
-1.83997e-06
-4.83952e-08
4.0371e-08
-1.83003e-06
-5.02543e-08
3.04097e-08
-1.8313e-06
2.04328e-08
-1.83182e-06
1.04473e-08
-1.83212e-06
4.57442e-10
-1.83228e-06
-9.53253e-09
-1.83228e-06
-1.95182e-08
-1.83213e-06
-2.94955e-08
-1.83182e-06
-3.94577e-08
-1.83131e-06
-1.83008e-06
-4.93461e-08
4.09916e-08
-1.81998e-06
-5.1042e-08
3.0871e-08
-1.82118e-06
2.07374e-08
-1.82168e-06
1.05966e-08
-1.82198e-06
4.52084e-10
-1.82213e-06
-9.69256e-09
-1.82213e-06
-1.98336e-08
-1.82198e-06
-2.99677e-08
-1.82169e-06
-4.00892e-08
-1.82119e-06
-1.82003e-06
-5.01447e-08
4.15107e-08
-1.80979e-06
-5.17024e-08
3.12563e-08
-1.81093e-06
2.09913e-08
-1.81142e-06
1.07203e-08
-1.81171e-06
4.46244e-10
-1.81186e-06
-9.82789e-09
-1.81186e-06
-2.0099e-08
-1.81171e-06
-3.03646e-08
-1.81142e-06
-4.06198e-08
-1.81094e-06
-1.80983e-06
-5.08161e-08
4.19462e-08
-1.79948e-06
-5.22575e-08
3.15791e-08
-1.80056e-06
2.12032e-08
-1.80104e-06
1.08227e-08
-1.80133e-06
4.39742e-10
-1.80148e-06
-9.94325e-09
-1.80148e-06
-2.03238e-08
-1.80133e-06
-3.06999e-08
-1.80105e-06
-4.10676e-08
-1.80057e-06
-1.79952e-06
-5.13826e-08
4.23143e-08
-1.78907e-06
-5.27267e-08
3.18514e-08
-1.7901e-06
2.13814e-08
-1.79057e-06
1.09079e-08
-1.79086e-06
4.32473e-10
-1.791e-06
-1.0043e-08
-1.791e-06
-2.05164e-08
-1.79086e-06
-3.09862e-08
-1.79058e-06
-4.1449e-08
-1.79011e-06
-1.7891e-06
-5.18634e-08
4.26296e-08
-1.77857e-06
-5.31264e-08
3.20848e-08
-1.77955e-06
2.15338e-08
-1.78002e-06
1.098e-08
-1.7803e-06
4.2453e-10
-1.78045e-06
-1.01308e-08
-1.78045e-06
-2.06844e-08
-1.78031e-06
-3.1235e-08
-1.78003e-06
-4.17789e-08
-1.77956e-06
-1.77861e-06
-5.22753e-08
4.29063e-08
-1.768e-06
-5.34739e-08
3.22901e-08
-1.76894e-06
2.16675e-08
-1.7694e-06
1.10425e-08
-1.76968e-06
4.16164e-10
-1.76982e-06
-1.02101e-08
-1.76982e-06
-2.08349e-08
-1.76968e-06
-3.1457e-08
-1.76941e-06
-4.20723e-08
-1.76895e-06
-1.76804e-06
-5.26393e-08
4.31589e-08
-1.75737e-06
-5.37929e-08
3.24769e-08
-1.75825e-06
2.17889e-08
-1.75871e-06
1.10989e-08
-1.75899e-06
4.0768e-10
-1.75913e-06
-1.02835e-08
-1.75913e-06
-2.09734e-08
-1.75899e-06
-3.16613e-08
-1.75872e-06
-4.23431e-08
-1.75827e-06
-1.7574e-06
-5.29791e-08
4.3398e-08
-1.74667e-06
-5.41014e-08
3.26527e-08
-1.74751e-06
2.19026e-08
-1.74796e-06
1.11514e-08
-1.74824e-06
3.99266e-10
-1.74838e-06
-1.03529e-08
-1.74838e-06
-2.11042e-08
-1.74824e-06
-3.18544e-08
-1.74797e-06
-4.26003e-08
-1.74752e-06
-1.7467e-06
-5.33074e-08
4.36288e-08
-1.73589e-06
-5.44018e-08
3.28216e-08
-1.7367e-06
2.20116e-08
-1.73715e-06
1.12015e-08
-1.73742e-06
3.90892e-10
-1.73756e-06
-1.04197e-08
-1.73757e-06
-2.123e-08
-1.73743e-06
-3.20403e-08
-1.73716e-06
-4.28482e-08
-1.73671e-06
-1.73592e-06
-5.36251e-08
4.38537e-08
-1.72505e-06
-5.4693e-08
3.29865e-08
-1.72583e-06
2.21181e-08
-1.72628e-06
1.12504e-08
-1.72656e-06
3.82493e-10
-1.7267e-06
-1.04855e-08
-1.7267e-06
-2.13534e-08
-1.72656e-06
-3.22221e-08
-1.72629e-06
-4.30897e-08
-1.72584e-06
-1.72508e-06
-5.39313e-08
4.40754e-08
-1.71415e-06
-5.49748e-08
3.31503e-08
-1.71491e-06
2.22243e-08
-1.71536e-06
1.12993e-08
-1.71563e-06
3.74043e-10
-1.71577e-06
-1.05513e-08
-1.71577e-06
-2.14766e-08
-1.71564e-06
-3.24029e-08
-1.71536e-06
-4.33281e-08
-1.71492e-06
-1.71418e-06
-5.42285e-08
4.42983e-08
-1.7032e-06
-5.52549e-08
3.33162e-08
-1.70393e-06
2.23324e-08
-1.70437e-06
1.13491e-08
-1.70465e-06
3.65405e-10
-1.70479e-06
-1.06184e-08
-1.70479e-06
-2.16022e-08
-1.70465e-06
-3.25866e-08
-1.70438e-06
-4.35693e-08
-1.70394e-06
-1.70322e-06
-5.45271e-08
4.45276e-08
-1.69218e-06
-5.55423e-08
3.34875e-08
-1.69289e-06
2.24443e-08
-1.69333e-06
1.14009e-08
-1.69361e-06
3.56489e-10
-1.69374e-06
-1.06882e-08
-1.69374e-06
-2.17325e-08
-1.69361e-06
-3.2777e-08
-1.69333e-06
-4.38181e-08
-1.6929e-06
-1.6922e-06
-5.48353e-08
4.47659e-08
-1.68111e-06
-5.58404e-08
3.36665e-08
-1.68179e-06
2.25613e-08
-1.68222e-06
1.14549e-08
-1.6825e-06
3.47171e-10
-1.68264e-06
-1.07611e-08
-1.68264e-06
-2.1869e-08
-1.6825e-06
-3.29763e-08
-1.68223e-06
-4.40777e-08
-1.68179e-06
-1.68112e-06
-5.51554e-08
4.50141e-08
-1.66997e-06
-5.61506e-08
3.38526e-08
-1.67063e-06
2.26823e-08
-1.67105e-06
1.15105e-08
-1.67133e-06
3.37869e-10
-1.67146e-06
-1.08355e-08
-1.67146e-06
-2.20098e-08
-1.67133e-06
-3.31836e-08
-1.67105e-06
-4.43487e-08
-1.67063e-06
-1.66998e-06
-5.54905e-08
4.52716e-08
-1.65877e-06
-5.64707e-08
3.40404e-08
-1.6594e-06
2.27996e-08
-1.65981e-06
1.15622e-08
-1.66009e-06
3.28399e-10
-1.66023e-06
-1.09062e-08
-1.66023e-06
-2.21463e-08
-1.66009e-06
-3.3393e-08
-1.65981e-06
-4.46329e-08
-1.65939e-06
-1.65878e-06
-5.58397e-08
4.55472e-08
-1.64748e-06
-5.68429e-08
3.42143e-08
-1.64806e-06
2.28954e-08
-1.64849e-06
1.15991e-08
-1.64879e-06
3.1629e-10
-1.64895e-06
-1.09659e-08
-1.64895e-06
-2.22619e-08
-1.64879e-06
-3.35852e-08
-1.64848e-06
-4.49363e-08
-1.64804e-06
-1.64744e-06
-5.62704e-08
4.58314e-08
-1.63579e-06
-5.75202e-08
3.43522e-08
-1.63658e-06
2.29627e-08
-1.6371e-06
1.16183e-08
-1.63745e-06
2.93516e-10
-1.63762e-06
-1.10292e-08
-1.63762e-06
-2.23679e-08
-1.63745e-06
-3.3753e-08
-1.6371e-06
-4.52546e-08
-1.63654e-06
-1.63559e-06
-5.71094e-08
4.61077e-08
-1.62381e-06
-5.80832e-08
3.4537e-08
-1.62501e-06
2.30832e-08
-1.62565e-06
1.167e-08
-1.62604e-06
2.69974e-10
-1.62622e-06
-1.11295e-08
-1.62622e-06
-2.25396e-08
-1.62604e-06
-3.39795e-08
-1.62566e-06
-4.54968e-08
-1.62502e-06
-1.62381e-06
-5.72768e-08
4.6286e-08
-1.61243e-06
-5.76704e-08
3.479e-08
-1.61352e-06
2.32799e-08
-1.61414e-06
1.17757e-08
-1.61453e-06
2.76554e-10
-1.61472e-06
-1.12218e-08
-1.61473e-06
-2.27226e-08
-1.61454e-06
-3.42223e-08
-1.61416e-06
-4.56891e-08
-1.61355e-06
-1.61253e-06
-5.69706e-08
4.65595e-08
-1.60101e-06
-5.79824e-08
3.50165e-08
-1.60197e-06
2.34461e-08
-1.60257e-06
1.18708e-08
-1.60296e-06
2.96445e-10
-1.60315e-06
-1.12757e-08
-1.60315e-06
-2.28446e-08
-1.60297e-06
-3.44059e-08
-1.6026e-06
-4.59422e-08
-1.60202e-06
-1.60108e-06
-5.73917e-08
4.68634e-08
-1.58941e-06
-5.84578e-08
3.52309e-08
-1.59034e-06
2.35882e-08
-1.59093e-06
1.19434e-08
-1.59131e-06
2.98377e-10
-1.5915e-06
-1.13453e-08
-1.59151e-06
-2.29866e-08
-1.59133e-06
-3.46258e-08
-1.59096e-06
-4.62599e-08
-1.59038e-06
-1.58946e-06
-5.78717e-08
4.72648e-08
-1.57768e-06
-5.89974e-08
3.55196e-08
-1.5786e-06
2.37755e-08
-1.57918e-06
1.20333e-08
-1.57957e-06
2.91568e-10
-1.57976e-06
-1.14496e-08
-1.57977e-06
-2.31905e-08
-1.57959e-06
-3.49333e-08
-1.57921e-06
-4.66781e-08
-1.57864e-06
-1.57773e-06
-5.84131e-08
4.77404e-08
-1.56582e-06
-5.95994e-08
3.58723e-08
-1.56673e-06
2.40069e-08
-1.56732e-06
1.21443e-08
-1.56771e-06
2.82372e-10
-1.5679e-06
-1.15794e-08
-1.56791e-06
-2.34416e-08
-1.56773e-06
-3.53064e-08
-1.56735e-06
-4.7174e-08
-1.56677e-06
-1.56587e-06
-5.90325e-08
4.82838e-08
-1.55382e-06
-6.02797e-08
3.62783e-08
-1.55472e-06
2.42749e-08
-1.55531e-06
1.22736e-08
-1.55571e-06
2.72618e-10
-1.5559e-06
-1.17285e-08
-1.55591e-06
-2.37301e-08
-1.55572e-06
-3.57339e-08
-1.55535e-06
-4.77399e-08
-1.55476e-06
-1.55387e-06
-5.97367e-08
4.8885e-08
-1.54168e-06
-6.1031e-08
3.67284e-08
-1.54257e-06
2.45726e-08
-1.54316e-06
1.24178e-08
-1.54355e-06
2.62459e-10
-1.54374e-06
-1.18933e-08
-1.54375e-06
-2.40494e-08
-1.54357e-06
-3.6207e-08
-1.54319e-06
-4.83658e-08
-1.5426e-06
-1.54172e-06
-6.05152e-08
4.95326e-08
-1.52937e-06
-6.18403e-08
3.72136e-08
-1.53025e-06
2.48938e-08
-1.53084e-06
1.25736e-08
-1.53123e-06
2.51949e-10
-1.53142e-06
-1.20706e-08
-1.53143e-06
-2.43932e-08
-1.53125e-06
-3.67165e-08
-1.53087e-06
-4.90398e-08
-1.53028e-06
-1.52941e-06
-6.13528e-08
5.02116e-08
-1.51689e-06
-6.26881e-08
3.77226e-08
-1.51776e-06
2.52311e-08
-1.51835e-06
1.27375e-08
-1.51874e-06
2.4141e-10
-1.51893e-06
-1.2256e-08
-1.51893e-06
-2.47535e-08
-1.51875e-06
-3.72506e-08
-1.51837e-06
-4.97461e-08
-1.51779e-06
-1.51693e-06
-6.22298e-08
5.09031e-08
-1.50425e-06
-6.35506e-08
3.82414e-08
-1.5051e-06
2.55751e-08
-1.50568e-06
1.2905e-08
-1.50607e-06
2.31359e-10
-1.50625e-06
-1.24443e-08
-1.50625e-06
-2.512e-08
-1.50607e-06
-3.77945e-08
-1.50569e-06
-5.04655e-08
-1.50511e-06
-1.50427e-06
-6.31223e-08
5.15841e-08
-1.49143e-06
-6.43993e-08
3.87527e-08
-1.49226e-06
2.59144e-08
-1.49284e-06
1.30706e-08
-1.49322e-06
2.22279e-10
-1.4934e-06
-1.26288e-08
-1.4934e-06
-2.54803e-08
-1.49322e-06
-3.83299e-08
-1.49284e-06
-5.11743e-08
-1.49227e-06
-1.49144e-06
-6.40022e-08
5.22287e-08
-1.47846e-06
-6.52027e-08
3.92368e-08
-1.47927e-06
2.62357e-08
-1.47984e-06
1.32278e-08
-1.48021e-06
2.14453e-10
-1.48039e-06
-1.28025e-08
-1.48039e-06
-2.58205e-08
-1.4802e-06
-3.88365e-08
-1.47983e-06
-5.18458e-08
-1.47926e-06
-1.47845e-06
-6.48372e-08
5.28097e-08
-1.46534e-06
-6.59273e-08
3.96728e-08
-1.46614e-06
2.65249e-08
-1.46669e-06
1.33694e-08
-1.46706e-06
2.07931e-10
-1.46723e-06
-1.29579e-08
-1.46722e-06
-2.61259e-08
-1.46704e-06
-3.92925e-08
-1.46666e-06
-5.24516e-08
-1.4661e-06
-1.46531e-06
-6.55924e-08
5.33014e-08
-1.4521e-06
-6.65414e-08
4.00411e-08
-1.45288e-06
2.67686e-08
-1.45342e-06
1.34885e-08
-1.45378e-06
2.02526e-10
-1.45394e-06
-1.30885e-08
-1.45393e-06
-2.63834e-08
-1.45374e-06
-3.96782e-08
-1.45337e-06
-5.29653e-08
-1.45282e-06
-1.45204e-06
-6.62339e-08
5.36833e-08
-1.43876e-06
-6.70198e-08
4.03256e-08
-1.43952e-06
2.69555e-08
-1.44005e-06
1.3579e-08
-1.4404e-06
1.97695e-10
-1.44056e-06
-1.31892e-08
-1.44054e-06
-2.65822e-08
-1.44035e-06
-3.99775e-08
-1.43997e-06
-5.3366e-08
-1.43943e-06
-1.43867e-06
-6.67359e-08
5.3944e-08
-1.42536e-06
-6.73504e-08
4.05161e-08
-1.42609e-06
2.70774e-08
-1.42661e-06
1.3636e-08
-1.42696e-06
1.92317e-10
-1.42712e-06
-1.32573e-08
-1.42709e-06
-2.67161e-08
-1.42689e-06
-4.01816e-08
-1.42651e-06
-5.3643e-08
-1.42597e-06
-1.42523e-06
-6.70865e-08
5.40828e-08
-1.4119e-06
-6.75372e-08
4.0609e-08
-1.41262e-06
2.71303e-08
-1.41313e-06
1.36561e-08
-1.41349e-06
1.84479e-10
-1.41365e-06
-1.3293e-08
-1.41362e-06
-2.67844e-08
-1.4134e-06
-4.029e-08
-1.413e-06
-5.37979e-08
-1.41246e-06
-1.41174e-06
-6.72912e-08
5.41108e-08
-1.39841e-06
-6.76015e-08
4.06087e-08
-1.39911e-06
2.71143e-08
-1.39964e-06
1.36373e-08
-1.40001e-06
1.71397e-10
-1.40018e-06
-1.32999e-08
-1.40014e-06
-2.67925e-08
-1.3999e-06
-4.03118e-08
-1.39948e-06
-5.38461e-08
-1.39892e-06
-1.39821e-06
-6.73746e-08
5.40522e-08
-1.38488e-06
-6.75821e-08
4.05283e-08
-1.38559e-06
2.70345e-08
-1.38615e-06
1.35799e-08
-1.38656e-06
1.49588e-10
-1.38675e-06
-1.3285e-08
-1.38671e-06
-2.67522e-08
-1.38644e-06
-4.02663e-08
-1.38597e-06
-5.38173e-08
-1.38537e-06
-1.38464e-06
-6.73803e-08
5.39462e-08
-1.37129e-06
-6.75369e-08
4.03914e-08
-1.37204e-06
2.6903e-08
-1.37266e-06
1.34869e-08
-1.37314e-06
1.1534e-10
-1.37338e-06
-1.32589e-08
-1.37334e-06
-2.66827e-08
-1.37301e-06
-4.01838e-08
-1.37247e-06
-5.37567e-08
-1.3718e-06
-1.37103e-06
-6.7371e-08
5.3852e-08
-1.35759e-06
-6.75481e-08
4.02371e-08
-1.35842e-06
2.6742e-08
-1.35916e-06
1.33672e-08
-1.35976e-06
6.56192e-11
-1.36008e-06
-1.32363e-08
-1.36003e-06
-2.66121e-08
-1.35964e-06
-4.01089e-08
-1.35897e-06
-5.37279e-08
-1.35818e-06
-1.35733e-06
-6.74324e-08
5.38567e-08
-1.34372e-06
-6.77298e-08
4.01272e-08
-1.34469e-06
2.65902e-08
-1.34563e-06
1.32385e-08
-1.34641e-06
-4.37374e-13
-1.34684e-06
-1.32367e-08
-1.3468e-06
-2.65804e-08
-1.34629e-06
-4.01046e-08
-1.34544e-06
-5.38189e-08
-1.34447e-06
-1.34347e-06
-6.76781e-08
5.40875e-08
-1.32957e-06
-6.82375e-08
4.01574e-08
-1.33076e-06
2.65107e-08
-1.33198e-06
1.31331e-08
-1.33304e-06
-7.94565e-11
-1.33363e-06
-1.32858e-08
-1.33359e-06
-2.66443e-08
-1.33294e-06
-4.02598e-08
-1.33183e-06
-5.41501e-08
-1.33058e-06
-1.32936e-06
-6.82567e-08
5.47194e-08
-1.31502e-06
-6.92712e-08
4.04641e-08
-1.31651e-06
2.65955e-08
-1.31811e-06
1.31001e-08
-1.31954e-06
-1.61881e-10
-1.32036e-06
-1.34134e-08
-1.32034e-06
-2.68768e-08
-1.31947e-06
-4.06928e-08
-1.31801e-06
-5.48796e-08
-1.31639e-06
-1.31489e-06
-6.93535e-08
5.59488e-08
-1.29992e-06
-7.10529e-08
4.11979e-08
-1.30175e-06
2.69432e-08
-1.30386e-06
1.31922e-08
-1.30579e-06
-2.31083e-10
-1.30694e-06
-1.36394e-08
-1.30693e-06
-2.73447e-08
-1.30577e-06
-4.15244e-08
-1.30383e-06
-5.61779e-08
-1.30174e-06
-1.29989e-06
-7.11699e-08
5.78626e-08
-1.28408e-06
-7.36938e-08
4.23996e-08
-1.28629e-06
2.75666e-08
-1.28902e-06
1.34199e-08
-1.29164e-06
-2.65247e-10
-1.29326e-06
-1.39321e-08
-1.29326e-06
-2.80223e-08
-1.29168e-06
-4.27621e-08
-1.28909e-06
-5.81051e-08
-1.28639e-06
-1.2842e-06
-7.37998e-08
6.01689e-08
-1.26724e-06
-7.70137e-08
4.36971e-08
-1.26982e-06
2.82085e-08
-1.27353e-06
1.37094e-08
-1.27714e-06
-2.42921e-10
-1.2793e-06
-1.41773e-08
-1.27933e-06
-2.8621e-08
-1.27723e-06
-4.40152e-08
-1.2737e-06
-6.03615e-08
-1.27005e-06
-1.2675e-06
-7.70641e-08
6.13665e-08
-1.24811e-06
-8.04942e-08
4.34767e-08
-1.25193e-06
2.81043e-08
-1.25816e-06
1.40296e-08
-1.26307e-06
-1.52455e-10
-1.26512e-06
-1.4323e-08
-1.26516e-06
-2.83702e-08
-1.26319e-06
-4.36878e-08
-1.25838e-06
-6.14782e-08
-1.25226e-06
-1.2485e-06
-8.04761e-08