/*--------------------------------*- C++ -*----------------------------------*\
  =========                 |
  \\      /  F ield         | OpenFOAM: The Open Source CFD Toolbox
   \\    /   O peration     | Website:  https://openfoam.org
    \\  /    A nd           | Version:  8
     \\/     M anipulation  |
\*---------------------------------------------------------------------------*/
FoamFile
{
    version     2.0;
    format      ascii;
    class       volVectorField;
    location    "0.4";
    object      U;
}
// * * * * * * * * * * * * * * * * * * * * * * * * * * * * * * * * * * * * * //

dimensions      [0 1 -1 0 0 0 0];

internalField   nonuniform List<vector> 
9150
(
(0.0537565 -0.428595 0)
(0.0879393 -0.621991 0)
(0.0735296 -0.631383 0)
(0.048899 -0.644014 0)
(0.0171344 -0.654938 0)
(-0.0171335 -0.654939 0)
(-0.0488982 -0.644015 0)
(-0.0735291 -0.631383 0)
(-0.087939 -0.621992 0)
(-0.0537564 -0.428596 0)
(0.0407224 -0.522374 0)
(0.057376 -0.625566 0)
(0.042431 -0.613222 0)
(0.0296029 -0.622651 0)
(0.0105856 -0.629157 0)
(-0.0105849 -0.629157 0)
(-0.0296023 -0.622651 0)
(-0.0424305 -0.613223 0)
(-0.0573758 -0.625566 0)
(-0.0407223 -0.522375 0)
(0.0252975 -0.557684 0)
(0.0325166 -0.613868 0)
(0.0232725 -0.604476 0)
(0.017423 -0.6101 0)
(0.00631196 -0.613352 0)
(-0.00631149 -0.613352 0)
(-0.0174226 -0.6101 0)
(-0.0232722 -0.604476 0)
(-0.0325165 -0.613868 0)
(-0.0252974 -0.557684 0)
(0.015488 -0.584525 0)
(0.0174963 -0.607552 0)
(0.0118974 -0.601144 0)
(0.00899422 -0.603323 0)
(0.00328935 -0.604465 0)
(-0.0032891 -0.604465 0)
(-0.008994 -0.603323 0)
(-0.0118972 -0.601144 0)
(-0.0174962 -0.607552 0)
(-0.0154879 -0.584525 0)
(0.00639866 -0.597089 0)
(0.00557474 -0.601439 0)
(0.00365593 -0.600047 0)
(0.00273578 -0.600357 0)
(0.00101559 -0.600502 0)
(-0.00101555 -0.600502 0)
(-0.00273575 -0.600357 0)
(-0.00365591 -0.600047 0)
(-0.00557474 -0.601439 0)
(-0.00639866 -0.597089 0)
(0.468325 -1.16023 1.64204e-24)
(0.282074 -1.08546 0)
(0.162593 -1.06915 0)
(0.0913129 -1.05864 0)
(0.0300041 -1.05501 0)
(-0.029997 -1.05501 0)
(-0.0913066 -1.05865 0)
(-0.162588 -1.06916 0)
(-0.282071 -1.08547 0)
(-0.468327 -1.16023 -1.64212e-24)
(0.333696 -0.843182 4.54383e-25)
(0.287023 -0.935827 0)
(0.188228 -0.936485 0)
(0.10772 -0.937703 0)
(0.035472 -0.941026 0)
(-0.0354681 -0.941027 0)
(-0.107716 -0.937706 0)
(-0.188225 -0.936489 0)
(-0.287023 -0.935831 0)
(-0.333697 -0.843187 -4.54405e-25)
(0.278392 -0.701337 7.30462e-26)
(0.258956 -0.803844 0)
(0.178383 -0.817145 0)
(0.104537 -0.829105 0)
(0.0347651 -0.837999 0)
(-0.0347627 -0.838 0)
(-0.104535 -0.829106 0)
(-0.178381 -0.817147 0)
(-0.258955 -0.803846 0)
(-0.278393 -0.70134 -7.30533e-26)
(0.199206 -0.553474 2.90453e-25)
(0.216513 -0.708745 0)
(0.15467 -0.725599 0)
(0.0915254 -0.7426 0)
(0.0305778 -0.755051 0)
(-0.0305763 -0.755051 0)
(-0.0915241 -0.742601 0)
(-0.15467 -0.725601 0)
(-0.216513 -0.708746 0)
(-0.199206 -0.553476 -2.9045e-25)
(0.118128 -0.445029 -4.65329e-25)
(0.156129 -0.643793 -6.659e-25)
(0.117114 -0.663609 -2.27385e-25)
(0.0712069 -0.681616 -1.51334e-25)
(0.0240602 -0.694958 -9.09426e-27)
(-0.024059 -0.694958 -9.09248e-27)
(-0.071206 -0.681616 -1.5133e-25)
(-0.117114 -0.66361 -2.27383e-25)
(-0.156129 -0.643794 -6.65898e-25)
(-0.118128 -0.44503 -4.65329e-25)
(0.00717418 -0.952518 0)
(-0.0457323 -1.32391 0)
(0.0182986 -1.2603 0)
(-0.00568042 -1.22097 0)
(0.00345814 -1.2195 0)
(-0.00335529 -1.21951 0)
(0.00578865 -1.22099 0)
(-0.0181884 -1.26033 0)
(0.0458379 -1.32396 0)
(-0.00709158 -0.952766 0)
(0.0470999 -0.91751 0)
(-0.0284697 -1.33073 0)
(0.0209612 -1.26533 0)
(-0.00111179 -1.22203 0)
(0.000850832 -1.22052 0)
(-0.000788141 -1.22053 0)
(0.0011739 -1.22205 0)
(-0.0209086 -1.26536 0)
(0.0285215 -1.33079 0)
(-0.0470796 -0.917607 0)
(0.0758652 -0.952046 0)
(-0.0263745 -1.34479 0)
(0.0152798 -1.27318 0)
(0.00469578 -1.23016 0)
(-0.000377897 -1.22556 0)
(0.000416062 -1.22556 0)
(-0.0046583 -1.23017 0)
(-0.0152491 -1.2732 0)
(0.0264029 -1.34483 0)
(-0.0758557 -0.952115 0)
(0.144293 -1.08134 0)
(0.00135295 -1.36468 0)
(0.0144676 -1.27034 0)
(0.0208547 -1.22578 0)
(0.00558023 -1.21502 0)
(-0.00555764 -1.21503 0)
(-0.0208332 -1.22579 0)
(-0.0144526 -1.27035 0)
(-0.00133551 -1.3647 0)
(-0.144286 -1.08137 0)
(0.298771 -1.21793 0)
(0.126851 -1.32083 0)
(0.0683153 -1.20988 0)
(0.0552674 -1.16948 0)
(0.0195055 -1.15818 0)
(-0.0194928 -1.15818 0)
(-0.0552563 -1.16949 0)
(-0.068306 -1.20988 0)
(-0.126841 -1.32084 0)
(-0.298771 -1.21795 0)
(-0.461043 -0.147094 0)
(-0.361794 -0.152276 0)
(-0.260113 -0.156594 0)
(-0.156977 -0.159924 0)
(-0.0533213 -0.161935 0)
(0.0503839 -0.16196 0)
(0.154043 -0.159988 0)
(0.257198 -0.156687 0)
(0.35892 -0.152395 0)
(0.458238 -0.147244 0)
(-0.380622 -0.286411 0)
(-0.299668 -0.295961 0)
(-0.216266 -0.302807 0)
(-0.131059 -0.307244 0)
(-0.0445987 -0.309445 0)
(0.0423728 -0.309468 0)
(0.128852 -0.307315 0)
(0.214093 -0.302932 0)
(0.29754 -0.296149 0)
(0.378557 -0.286677 0)
(-0.318176 -0.424673 0)
(-0.250235 -0.438791 0)
(-0.180342 -0.448763 0)
(-0.109088 -0.455111 0)
(-0.03701 -0.458197 0)
(0.0353533 -0.458228 0)
(0.107442 -0.455206 0)
(0.178718 -0.448933 0)
(0.248644 -0.439053 0)
(0.316635 -0.425052 0)
(-0.267615 -0.547874 0)
(-0.210249 -0.566123 0)
(-0.151362 -0.579027 0)
(-0.0914525 -0.58726 0)
(-0.03095 -0.591281 0)
(0.0297489 -0.59132 0)
(0.0902588 -0.587383 0)
(0.150184 -0.579244 0)
(0.209096 -0.566458 0)
(0.2665 -0.548356 0)
(-0.222066 -0.650824 0)
(-0.174499 -0.672338 0)
(-0.125619 -0.687507 0)
(-0.0758659 -0.697183 0)
(-0.0256124 -0.70191 0)
(0.024806 -0.701956 0)
(0.0750671 -0.697327 0)
(0.124837 -0.687762 0)
(0.173741 -0.672729 0)
(0.221344 -0.651388 0)
(-0.182256 -0.73444 0)
(-0.143318 -0.759126 0)
(-0.103268 -0.776423 0)
(-0.0623791 -0.787452 0)
(-0.021004 -0.792843 0)
(0.0205283 -0.792898 0)
(0.061913 -0.787623 0)
(0.102823 -0.776724 0)
(0.142903 -0.759582 0)
(0.181872 -0.735102 0)
(-0.154532 -0.803379 0)
(-0.12075 -0.830619 0)
(-0.0868415 -0.849681 0)
(-0.0524141 -0.86187 0)
(-0.0175987 -0.867849 0)
(0.0173457 -0.867916 0)
(0.0521704 -0.862075 0)
(0.0866173 -0.850038 0)
(0.120546 -0.831155 0)
(0.154318 -0.804145 0)
(-0.141966 -0.866204 0)
(-0.109117 -0.894016 0)
(-0.0778186 -0.913652 0)
(-0.0468044 -0.926304 0)
(-0.0156805 -0.932553 0)
(0.0155036 -0.932623 0)
(0.0466265 -0.926517 0)
(0.0776336 -0.914016 0)
(0.108896 -0.894545 0)
(0.141664 -0.866913 0)
(-0.140263 -0.929463 0)
(-0.106439 -0.955588 0)
(-0.0750325 -0.974409 0)
(-0.04488 -0.986638 0)
(-0.0150085 -0.99271 0)
(0.0148373 -0.992771 0)
(0.0446995 -0.986821 0)
(0.0748203 -0.974721 0)
(0.106149 -0.956051 0)
(0.139898 -0.930111 0)
(-0.141971 -0.994708 0)
(-0.108465 -1.01823 0)
(-0.0757656 -1.03545 0)
(-0.0450646 -1.04668 0)
(-0.0150425 -1.05228 0)
(0.0148688 -1.05233 0)
(0.0448853 -1.04684 0)
(0.0755552 -1.03571 0)
(0.108181 -1.01858 0)
(0.141815 -0.995122 0)
(-0.1419 -1.06306 0)
(-0.111373 -1.0828 0)
(-0.0775461 -1.09791 0)
(-0.0459381 -1.1079 0)
(-0.0153261 -1.11291 0)
(0.0151013 -1.11295 0)
(0.0457009 -1.10804 0)
(0.0772701 -1.09813 0)
(0.111056 -1.08309 0)
(0.141835 -1.06331 0)
(-0.14001 -1.13075 0)
(-0.113247 -1.14766 0)
(-0.0791296 -1.16131 0)
(-0.0467576 -1.17036 0)
(-0.0155681 -1.17486 0)
(0.0153624 -1.1749 0)
(0.0465348 -1.17047 0)
(0.0788609 -1.16152 0)
(0.112968 -1.14804 0)
(0.140034 -1.1313 0)
(-0.136559 -1.19498 0)
(-0.112485 -1.21184 0)
(-0.0794903 -1.22485 0)
(-0.0467821 -1.23329 0)
(-0.015512 -1.23741 0)
(0.0153772 -1.23744 0)
(0.0466273 -1.23338 0)
(0.0792768 -1.22502 0)
(0.112415 -1.21209 0)
(0.136624 -1.19545 0)
(-0.131694 -1.26022 0)
(-0.109065 -1.27633 0)
(-0.0786086 -1.28788 0)
(-0.0460827 -1.29548 0)
(-0.01523 -1.2992 0)
(0.0150772 -1.29924 0)
(0.0459077 -1.29558 0)
(0.0783952 -1.28802 0)
(0.109055 -1.27645 0)
(0.1318 -1.26031 0)
(-0.125441 -1.32617 0)
(-0.104605 -1.3397 0)
(-0.0770239 -1.34946 0)
(-0.0451431 -1.35619 0)
(-0.0148889 -1.35955 0)
(0.0147213 -1.35958 0)
(0.0449502 -1.35629 0)
(0.0768123 -1.34961 0)
(0.104665 -1.33986 0)
(0.125685 -1.32632 0)
(-0.118045 -1.3883 0)
(-0.0993921 -1.39961 0)
(-0.0747715 -1.40869 0)
(-0.0439152 -1.41509 0)
(-0.014431 -1.41827 0)
(0.0143541 -1.4183 0)
(0.0438056 -1.4152 0)
(0.074655 -1.40892 0)
(0.0995362 -1.39998 0)
(0.118425 -1.38852 0)
(-0.111088 -1.447 0)
(-0.0938282 -1.45685 0)
(-0.0713578 -1.46571 0)
(-0.0422528 -1.47185 0)
(-0.0138068 -1.47487 0)
(0.0138661 -1.47489 0)
(0.0422606 -1.47192 0)
(0.0714465 -1.46586 0)
(0.094014 -1.45714 0)
(0.111256 -1.44731 0)
(-0.103603 -1.50348 0)
(-0.0878895 -1.51233 0)
(-0.0673661 -1.52044 0)
(-0.0403053 -1.52598 0)
(-0.0131347 -1.52873 0)
(0.0132285 -1.52874 0)
(0.0403553 -1.52601 0)
(0.0674853 -1.52047 0)
(0.0881461 -1.51235 0)
(0.104031 -1.50347 0)
(-0.0953237 -1.55701 0)
(-0.0815462 -1.56486 0)
(-0.0630131 -1.57218 0)
(-0.0381106 -1.57708 0)
(-0.0124081 -1.57954 0)
(0.0124999 -1.57955 0)
(0.0381652 -1.5771 0)
(0.0631691 -1.5722 0)
(0.0818279 -1.56492 0)
(0.0957507 -1.55701 0)
(-0.0871725 -1.6073 0)
(-0.0750002 -1.61403 0)
(-0.0583102 -1.62059 0)
(-0.0356905 -1.6249 0)
(-0.0116226 -1.62708 0)
(0.0116948 -1.62708 0)
(0.0357329 -1.6249 0)
(0.0584758 -1.62056 0)
(0.0752688 -1.61398 0)
(0.0875307 -1.60706 0)
(-0.0795675 -1.65423 0)
(-0.0684212 -1.65979 0)
(-0.0533886 -1.66551 0)
(-0.0330834 -1.66924 0)
(-0.0107857 -1.67113 0)
(0.0108322 -1.67113 0)
(0.0331103 -1.66923 0)
(0.0535572 -1.66548 0)
(0.0686471 -1.65974 0)
(0.0796614 -1.65403 0)
(-0.072433 -1.69676 0)
(-0.061829 -1.70166 0)
(-0.0483504 -1.70669 0)
(-0.0303175 -1.70991 0)
(-0.00988941 -1.71156 0)
(0.00994794 -1.71156 0)
(0.0303656 -1.70991 0)
(0.0485438 -1.70668 0)
(0.0620937 -1.70166 0)
(0.0725398 -1.69676 0)
(-0.0653692 -1.73533 0)
(-0.0552407 -1.73967 0)
(-0.0433075 -1.74405 0)
(-0.0274509 -1.74684 0)
(-0.00895484 -1.74828 0)
(0.00904319 -1.74828 0)
(0.0275363 -1.74685 0)
(0.0435355 -1.74405 0)
(0.0555537 -1.73964 0)
(0.0654658 -1.73518 0)
(-0.0586616 -1.76973 0)
(-0.048849 -1.77375 0)
(-0.0383828 -1.77751 0)
(-0.0245545 -1.77998 0)
(-0.00800273 -1.78126 0)
(0.00814338 -1.78128 0)
(0.0246962 -1.78002 0)
(0.0386458 -1.77758 0)
(0.0491859 -1.77378 0)
(0.0587079 -1.76974 0)
(-0.0520207 -1.79989 0)
(-0.0428309 -1.80388 0)
(-0.0336753 -1.80718 0)
(-0.0216508 -1.80941 0)
(-0.00704395 -1.81057 0)
(0.0072729 -1.81058 0)
(0.0218994 -1.80944 0)
(0.0339871 -1.80725 0)
(0.0431585 -1.80397 0)
(0.0521369 -1.80006 0)
(-0.0455848 -1.82632 0)
(-0.0371624 -1.83032 0)
(-0.0292007 -1.83329 0)
(-0.0188242 -1.83527 0)
(-0.00611697 -1.83631 0)
(0.00641454 -1.83632 0)
(0.0191346 -1.83529 0)
(0.0295746 -1.83333 0)
(0.0375691 -1.83039 0)
(0.0457658 -1.82649 0)
(-0.0393111 -1.84922 0)
(-0.0317217 -1.85323 0)
(-0.0249435 -1.85594 0)
(-0.0161324 -1.85768 0)
(-0.00522658 -1.85859 0)
(0.00557441 -1.85859 0)
(0.0164933 -1.8577 0)
(0.0253599 -1.85598 0)
(0.0321695 -1.85329 0)
(0.0395505 -1.84938 0)
(-0.0333039 -1.86878 0)
(-0.0266247 -1.87276 0)
(-0.0209442 -1.87522 0)
(-0.0135781 -1.87677 0)
(-0.00438039 -1.87757 0)
(0.00476403 -1.87757 0)
(0.0139734 -1.87678 0)
(0.0213852 -1.87525 0)
(0.0270939 -1.87281 0)
(0.0335872 -1.86893 0)
(-0.0276151 -1.88519 0)
(-0.0218932 -1.88913 0)
(-0.0172231 -1.89135 0)
(-0.0111817 -1.89273 0)
(-0.0035846 -1.89344 0)
(0.00399279 -1.89344 0)
(0.0116002 -1.89274 0)
(0.0176792 -1.89137 0)
(0.0223744 -1.88916 0)
(0.0279368 -1.88533 0)
(-0.0222734 -1.89864 0)
(-0.0175268 -1.90252 0)
(-0.0137815 -1.90453 0)
(-0.00895085 -1.90576 0)
(-0.00284153 -1.90639 0)
(0.00326812 -1.90639 0)
(0.00938628 -1.90577 0)
(0.0142473 -1.90455 0)
(0.0180141 -1.90254 0)
(0.0226286 -1.89878 0)
(-0.0172993 -1.90935 0)
(-0.0135212 -1.91315 0)
(-0.0106179 -1.91498 0)
(-0.00688935 -1.91608 0)
(-0.00215261 -1.91664 0)
(0.00259411 -1.91664 0)
(0.00733816 -1.91608 0)
(0.0110905 -1.91499 0)
(0.014011 -1.91317 0)
(0.0176852 -1.90949 0)
(-0.0127121 -1.91753 0)
(-0.00986765 -1.92124 0)
(-0.00772696 -1.92291 0)
(-0.0049978 -1.92389 0)
(-0.00151867 -1.92439 0)
(0.00197304 -1.92439 0)
(0.00545786 -1.9239 0)
(0.0082047 -1.92291 0)
(0.0103583 -1.92126 0)
(0.0131251 -1.91767 0)
(-0.00851006 -1.92342 0)
(-0.00655264 -1.92701 0)
(-0.00510104 -1.92853 0)
(-0.00327475 -1.92942 0)
(-0.000939753 -1.92987 0)
(0.00140549 -1.92987 0)
(0.00374452 -1.92942 0)
(0.00558286 -1.92853 0)
(0.00704293 -1.92702 0)
(0.00894914 -1.92356 0)
(-0.00470455 -1.92721 0)
(-0.00356297 -1.93067 0)
(-0.00273023 -1.93206 0)
(-0.00171622 -1.93287 0)
(-0.000415419 -1.93328 0)
(0.000891006 -1.93328 0)
(0.0021942 -1.93287 0)
(0.00321521 -1.93206 0)
(0.00405218 -1.93068 0)
(0.00516465 -1.92735 0)
(-0.00128026 -1.92911 0)
(-0.000879249 -1.93243 0)
(-0.000601501 -1.93371 0)
(-0.000315665 -1.93444 0)
(5.61441e-05 -1.93482 0)
(0.000427935 -1.93482 0)
(0.00080069 -1.93445 0)
(0.00108898 -1.93371 0)
(0.00136694 -1.93245 0)
(0.00175909 -1.92925 0)
(0.00177915 -1.92933 0)
(0.00151768 -1.9325 0)
(0.00129957 -1.93367 0)
(0.000935272 -1.93434 0)
(0.000477311 -1.93468 0)
(1.44344e-05 -1.93468 0)
(-0.000443896 -1.93434 0)
(-0.000809843 -1.93367 0)
(-0.00103116 -1.93251 0)
(-0.00128352 -1.92947 0)
(0.00448895 -1.92804 0)
(0.00364557 -1.93105 0)
(0.00298636 -1.93213 0)
(0.00204402 -1.93275 0)
(0.000849337 -1.93306 0)
(-0.00035379 -1.93306 0)
(-0.00154982 -1.93275 0)
(-0.00249714 -1.93213 0)
(-0.00316253 -1.93107 0)
(-0.00398132 -1.92817 0)
(0.00687124 -1.92542 0)
(0.00552672 -1.92827 0)
(0.00447611 -1.92926 0)
(0.00302164 -1.92983 0)
(0.00117675 -1.93012 0)
(-0.00067836 -1.93012 0)
(-0.00252545 -1.92984 0)
(-0.00398794 -1.92927 0)
(-0.00504722 -1.92828 0)
(-0.00635452 -1.92555 0)
(0.00895108 -1.92162 0)
(0.0071821 -1.92431 0)
(0.00578517 -1.92523 0)
(0.00387839 -1.92576 0)
(0.00146279 -1.92603 0)
(-0.000962805 -1.92603 0)
(-0.00338127 -1.92576 0)
(-0.00529867 -1.92523 0)
(-0.00670625 -1.92432 0)
(-0.00842779 -1.92174 0)
(0.0107535 -1.9168 0)
(0.00863218 -1.91932 0)
(0.00692971 -1.92018 0)
(0.00462462 -1.92067 0)
(0.00171082 -1.92092 0)
(-0.00121073 -1.92092 0)
(-0.00412788 -1.92067 0)
(-0.00644579 -1.92018 0)
(-0.00816043 -1.91933 0)
(-0.0102264 -1.91691 0)
(0.012305 -1.91107 0)
(0.00989707 -1.91344 0)
(0.00792576 -1.91424 0)
(0.00527083 -1.9147 0)
(0.00192442 -1.91493 0)
(-0.00142561 -1.91494 0)
(-0.00477568 -1.9147 0)
(-0.00744525 -1.91424 0)
(-0.00942979 -1.91345 0)
(-0.0117765 -1.91118 0)
(0.0136315 -1.90457 0)
(0.010996 -1.90678 0)
(0.00878885 -1.90753 0)
(0.00582732 -1.90797 0)
(0.00210717 -1.90819 0)
(-0.00161078 -1.90819 0)
(-0.00533474 -1.90797 0)
(-0.00831241 -1.90754 0)
(-0.0105335 -1.9068 0)
(-0.0131035 -1.90467 0)
(0.0147583 -1.8974 0)
(0.0119474 -1.89946 0)
(0.0095338 -1.90017 0)
(0.006304 -1.90058 0)
(0.00226256 -1.90079 0)
(-0.00176944 -1.90079 0)
(-0.00581472 -1.90059 0)
(-0.00906189 -1.90018 0)
(-0.0114898 -1.89948 0)
(-0.0142324 -1.89749 0)
(0.0157092 -1.88964 0)
(0.0127684 -1.89158 0)
(0.0101746 -1.89224 0)
(0.00671026 -1.89263 0)
(0.00239391 -1.89283 0)
(-0.00190463 -1.89284 0)
(-0.00622475 -1.89264 0)
(-0.00970743 -1.89225 0)
(-0.0123156 -1.89159 0)
(-0.0151866 -1.88973 0)
(0.0165066 -1.8814 0)
(0.0134749 -1.8832 0)
(0.0107241 -1.88384 0)
(0.00705481 -1.88421 0)
(0.00250427 -1.8844 0)
(-0.00201924 -1.8844 0)
(-0.00657339 -1.88421 0)
(-0.0102618 -1.88385 0)
(-0.0130269 -1.88322 0)
(-0.0159883 -1.88148 0)
(0.0171712 -1.87274 0)
(0.0140816 -1.87442 0)
(0.0111943 -1.87503 0)
(0.00734563 -1.87538 0)
(0.00259644 -1.87556 0)
(-0.00211592 -1.87557 0)
(-0.00686851 -1.87539 0)
(-0.0107369 -1.87504 0)
(-0.0136381 -1.87444 0)
(-0.0166577 -1.87281 0)
(0.0177216 -1.86371 0)
(0.0146015 -1.86529 0)
(0.0115957 -1.86587 0)
(0.00759 -1.86621 0)
(0.00267295 -1.86639 0)
(-0.00219712 -1.86639 0)
(-0.0071173 -1.86622 0)
(-0.0111432 -1.86588 0)
(-0.0141625 -1.86531 0)
(-0.0172136 -1.86378 0)
(0.0181746 -1.85439 0)
(0.0150468 -1.85587 0)
(0.0119382 -1.85643 0)
(0.00779445 -1.85676 0)
(0.00273606 -1.85692 0)
(-0.00226505 -1.85693 0)
(-0.00732628 -1.85676 0)
(-0.0114906 -1.85644 0)
(-0.014612 -1.85588 0)
(-0.0176724 -1.85445 0)
(0.0185452 -1.84481 0)
(0.0154279 -1.8462 0)
(0.0122304 -1.84674 0)
(0.00796481 -1.84706 0)
(0.00278778 -1.84722 0)
(-0.00232172 -1.84722 0)
(-0.00750126 -1.84706 0)
(-0.0117875 -1.84675 0)
(-0.0149973 -1.84621 0)
(-0.0180492 -1.84487 0)
(0.0188465 -1.83502 0)
(0.0157544 -1.83633 0)
(0.0124797 -1.83685 0)
(0.00810618 -1.83716 0)
(0.00282982 -1.83731 0)
(-0.00236891 -1.83732 0)
(-0.00764744 -1.83716 0)
(-0.0120418 -1.83686 0)
(-0.015328 -1.83634 0)
(-0.018357 -1.83507 0)
(0.01909 -1.82505 0)
(0.0160347 -1.82628 0)
(0.012693 -1.82679 0)
(0.00822306 -1.82709 0)
(0.00286368 -1.82724 0)
(-0.00240826 -1.82724 0)
(-0.00776944 -1.82709 0)
(-0.0122602 -1.82679 0)
(-0.0156127 -1.82629 0)
(-0.0186074 -1.82509 0)
(0.0192859 -1.81492 0)
(0.0162761 -1.81609 0)
(0.0128762 -1.81658 0)
(0.0083194 -1.81687 0)
(0.00289066 -1.81703 0)
(-0.00244122 -1.81703 0)
(-0.00787134 -1.81688 0)
(-0.0124488 -1.81659 0)
(-0.0158587 -1.8161 0)
(-0.0188105 -1.81496 0)
(0.019443 -1.80466 0)
(0.0164852 -1.80577 0)
(0.0130345 -1.80626 0)
(0.00839871 -1.80654 0)
(0.00291188 -1.80669 0)
(-0.00246909 -1.80669 0)
(-0.00795684 -1.80655 0)
(-0.0126132 -1.80626 0)
(-0.016073 -1.80578 0)
(-0.0189752 -1.8047 0)
(0.0195692 -1.7943 0)
(0.0166681 -1.79535 0)
(0.0131729 -1.79583 0)
(0.00846419 -1.79611 0)
(0.00292841 -1.79626 0)
(-0.00249303 -1.79626 0)
(-0.00802928 -1.79612 0)
(-0.0127582 -1.79583 0)
(-0.0162618 -1.79536 0)
(-0.0191097 -1.79433 0)
(0.0196718 -1.78384 0)
(0.0168306 -1.78484 0)
(0.0132957 -1.78532 0)
(0.00851892 -1.7856 0)
(0.00294133 -1.78574 0)
(-0.00251404 -1.78574 0)
(-0.00809167 -1.7856 0)
(-0.0128884 -1.78532 0)
(-0.0164309 -1.78485 0)
(-0.0192212 -1.78387 0)
(0.0197575 -1.7733 0)
(0.0169782 -1.77426 0)
(0.0134076 -1.77473 0)
(0.00856579 -1.77501 0)
(0.00295168 -1.77515 0)
(-0.00253292 -1.77515 0)
(-0.00814669 -1.77501 0)
(-0.0130082 -1.77473 0)
(-0.0165856 -1.77427 0)
(-0.0193166 -1.77334 0)
(0.0198322 -1.7627 0)
(0.0171158 -1.76361 0)
(0.0135122 -1.76407 0)
(0.00860729 -1.76435 0)
(0.00296039 -1.76449 0)
(-0.00255026 -1.76449 0)
(-0.00819655 -1.76435 0)
(-0.0131209 -1.76408 0)
(-0.0167306 -1.76362 0)
(-0.0194014 -1.76274 0)
(0.0199004 -1.75203 0)
(0.0172467 -1.7529 0)
(0.0136125 -1.75335 0)
(0.00864529 -1.75363 0)
(0.00296812 -1.75377 0)
(-0.00256656 -1.75377 0)
(-0.00824287 -1.75363 0)
(-0.0132293 -1.75336 0)
(-0.016869 -1.75291 0)
(-0.0194795 -1.75207 0)
(0.0199647 -1.7413 0)
(0.0173734 -1.74212 0)
(0.0137102 -1.74257 0)
(0.00868097 -1.74284 0)
(0.00297525 -1.74298 0)
(-0.00258222 -1.74299 0)
(-0.0082868 -1.74285 0)
(-0.013335 -1.74258 0)
(-0.0170029 -1.74213 0)
(-0.0195536 -1.74132 0)
(0.0200272 -1.73049 0)
(0.0174973 -1.73128 0)
(0.0138067 -1.73173 0)
(0.00871519 -1.73201 0)
(0.00298208 -1.73215 0)
(-0.00259759 -1.73215 0)
(-0.0083293 -1.73201 0)
(-0.0134393 -1.73174 0)
(-0.0171341 -1.73129 0)
(-0.0196259 -1.73051 0)
(0.0200898 -1.71962 0)
(0.0176201 -1.72039 0)
(0.0139031 -1.72083 0)
(0.00874879 -1.72111 0)
(0.00298888 -1.72125 0)
(-0.002613 -1.72125 0)
(-0.00837124 -1.72111 0)
(-0.0135437 -1.72084 0)
(-0.0172643 -1.7204 0)
(-0.0196984 -1.71964 0)
(0.0201543 -1.70869 0)
(0.0177435 -1.70943 0)
(0.0140008 -1.70988 0)
(0.00878257 -1.71016 0)
(0.00299592 -1.71029 0)
(-0.00262881 -1.7103 0)
(-0.00841367 -1.71016 0)
(-0.0136497 -1.70988 0)
(-0.0173954 -1.70944 0)
(-0.0197732 -1.70871 0)
(0.0202228 -1.6977 0)
(0.0178691 -1.69842 0)
(0.0141012 -1.69887 0)
(0.00881739 -1.69914 0)
(0.0030034 -1.69928 0)
(-0.00264536 -1.69928 0)
(-0.00845746 -1.69915 0)
(-0.0137588 -1.69887 0)
(-0.0175295 -1.69843 0)
(-0.0198527 -1.69773 0)
(0.020297 -1.68666 0)
(0.0179981 -1.68735 0)
(0.0142049 -1.68779 0)
(0.0088535 -1.68807 0)
(0.0030114 -1.68821 0)
(-0.00266278 -1.68821 0)
(-0.00850322 -1.68807 0)
(-0.0138718 -1.6878 0)
(-0.0176674 -1.68736 0)
(-0.0199388 -1.68668 0)
(0.0203781 -1.67556 0)
(0.0181298 -1.67622 0)
(0.0143111 -1.67666 0)
(0.0088907 -1.67693 0)
(0.00301972 -1.67707 0)
(-0.00268053 -1.67707 0)
(-0.00855007 -1.67693 0)
(-0.0139874 -1.67666 0)
(-0.0178088 -1.67623 0)
(-0.0200327 -1.67557 0)
(0.0204667 -1.66439 0)
(0.0182622 -1.66503 0)
(0.0144159 -1.66545 0)
(0.00892533 -1.66572 0)
(0.00302686 -1.66586 0)
(-0.00269721 -1.66586 0)
(-0.00859436 -1.66572 0)
(-0.0141015 -1.66545 0)
(-0.0179511 -1.66503 0)
(-0.0201363 -1.6644 0)
(0.0205659 -1.65317 0)
(0.0183861 -1.65376 0)
(0.0145108 -1.65417 0)
(0.00895066 -1.65446 0)
(0.00302934 -1.6546 0)
(-0.00271178 -1.6546 0)
(-0.00863079 -1.65445 0)
(-0.0142055 -1.65417 0)
(-0.0180821 -1.65375 0)
(-0.0202504 -1.65317 0)
(0.0206365 -1.64175 0)
(0.0184914 -1.64237 0)
(0.0145918 -1.64282 0)
(0.00896579 -1.64314 0)
(0.00302497 -1.6433 0)
(-0.0027303 -1.6433 0)
(-0.00866695 -1.64314 0)
(-0.0143026 -1.64281 0)
(-0.0182052 -1.64233 0)
(-0.0203257 -1.64163 0)
(0.020824 -1.62976 0)
(0.018649 -1.63079 0)
(0.0146918 -1.63139 0)
(0.00900064 -1.63176 0)
(0.0030289 -1.63194 0)
(-0.00275837 -1.63194 0)
(-0.00872439 -1.63176 0)
(-0.01442 -1.63138 0)
(-0.018403 -1.63075 0)
(-0.02066 -1.62958 0)
(0.0213451 -1.61804 0)
(0.0188866 -1.61925 0)
(0.0148152 -1.6199 0)
(0.00906212 -1.6203 0)
(0.00305364 -1.62049 0)
(-0.00277673 -1.62049 0)
(-0.00877995 -1.62031 0)
(-0.0145365 -1.61992 0)
(-0.0186227 -1.61929 0)
(-0.0211334 -1.61814 0)
(0.0216867 -1.60676 0)
(0.0190751 -1.60777 0)
(0.0149279 -1.60838 0)
(0.00911651 -1.60876 0)
(0.00307937 -1.60895 0)
(-0.00278221 -1.60896 0)
(-0.00881391 -1.60877 0)
(-0.0146293 -1.6084 0)
(-0.0187886 -1.60781 0)
(-0.0214355 -1.60685 0)
(0.0220041 -1.59524 0)
(0.0192591 -1.59618 0)
(0.0150351 -1.59677 0)
(0.00916021 -1.59715 0)
(0.00309483 -1.59735 0)
(-0.00279582 -1.59735 0)
(-0.00885692 -1.59717 0)
(-0.0147372 -1.5968 0)
(-0.0189748 -1.59622 0)
(-0.0217505 -1.5953 0)
(0.0223581 -1.58358 0)
(0.0194847 -1.5845 0)
(0.0151712 -1.58508 0)
(0.00921959 -1.58547 0)
(0.00311242 -1.58566 0)
(-0.0028204 -1.58567 0)
(-0.00892412 -1.58549 0)
(-0.0148813 -1.58511 0)
(-0.0192086 -1.58454 0)
(-0.0221094 -1.58363 0)
(0.0227464 -1.57178 0)
(0.0197453 -1.57269 0)
(0.015334 -1.57328 0)
(0.00929545 -1.57367 0)
(0.00313477 -1.57386 0)
(-0.00285209 -1.57387 0)
(-0.00900975 -1.57369 0)
(-0.0150534 -1.57331 0)
(-0.019478 -1.57274 0)
(-0.0225032 -1.57183 0)
(0.0231644 -1.55986 0)
(0.0200355 -1.56076 0)
(0.0155189 -1.56135 0)
(0.00938517 -1.56174 0)
(0.00316163 -1.56194 0)
(-0.00288884 -1.56194 0)
(-0.00910971 -1.56176 0)
(-0.0152482 -1.56138 0)
(-0.0197776 -1.5608 0)
(-0.0229279 -1.55991 0)
(0.0236079 -1.54779 0)
(0.0203506 -1.54868 0)
(0.0157221 -1.54928 0)
(0.00948604 -1.54967 0)
(0.00319215 -1.54986 0)
(-0.00292965 -1.54987 0)
(-0.00922131 -1.54969 0)
(-0.0154619 -1.54931 0)
(-0.020103 -1.54872 0)
(-0.0233793 -1.54784 0)
(0.0240724 -1.53557 0)
(0.0206863 -1.53645 0)
(0.0159394 -1.53704 0)
(0.00959558 -1.53743 0)
(0.00322552 -1.53763 0)
(-0.00297367 -1.53763 0)
(-0.00934203 -1.53745 0)
(-0.0156903 -1.53707 0)
(-0.0204496 -1.53649 0)
(-0.0238529 -1.53561 0)
(0.0245514 -1.52318 0)
(0.0210365 -1.52405 0)
(0.0161662 -1.52464 0)
(0.0097109 -1.52503 0)
(0.0032609 -1.52522 0)
(-0.00301976 -1.52522 0)
(-0.00946869 -1.52504 0)
(-0.0159286 -1.52466 0)
(-0.0208113 -1.52408 0)
(-0.0243418 -1.52321 0)
(0.0250365 -1.51061 0)
(0.0213938 -1.51147 0)
(0.0163963 -1.51206 0)
(0.00982845 -1.51245 0)
(0.00329733 -1.51263 0)
(-0.00306642 -1.51264 0)
(-0.00959724 -1.51246 0)
(-0.01617 -1.51208 0)
(-0.0211801 -1.51149 0)
(-0.0248372 -1.51064 0)
(0.0255173 -1.49788 0)
(0.0217491 -1.49872 0)
(0.0166223 -1.4993 0)
(0.00994388 -1.49969 0)
(0.00333353 -1.49987 0)
(-0.00311188 -1.49987 0)
(-0.00972284 -1.49969 0)
(-0.0164067 -1.49931 0)
(-0.0215465 -1.49874 0)
(-0.0253282 -1.4979 0)
(0.0259813 -1.48498 0)
(0.0220917 -1.48581 0)
(0.0168356 -1.48638 0)
(0.0100521 -1.48676 0)
(0.00336792 -1.48694 0)
(-0.00315429 -1.48693 0)
(-0.00984009 -1.48675 0)
(-0.0166298 -1.48638 0)
(-0.0218994 -1.48581 0)
(-0.0258022 -1.48499 0)
(0.0264156 -1.47193 0)
(0.0224103 -1.47274 0)
(0.017027 -1.4733 0)
(0.0101477 -1.47367 0)
(0.00339872 -1.47384 0)
(-0.0031918 -1.47384 0)
(-0.00994348 -1.47365 0)
(-0.01683 -1.47328 0)
(-0.0222272 -1.47272 0)
(-0.0262455 -1.47192 0)
(0.0268072 -1.45875 0)
(0.0226943 -1.45953 0)
(0.0171877 -1.46009 0)
(0.0102256 -1.46045 0)
(0.00342417 -1.46061 0)
(-0.00322284 -1.4606 0)
(-0.010028 -1.46042 0)
(-0.0169982 -1.46004 0)
(-0.0225191 -1.45949 0)
(-0.0266449 -1.45871 0)
(0.0271448 -1.44545 0)
(0.0229347 -1.44622 0)
(0.0173104 -1.44676 0)
(0.0102816 -1.44711 0)
(0.00344262 -1.44727 0)
(-0.00324628 -1.44726 0)
(-0.0100897 -1.44706 0)
(-0.0171276 -1.44669 0)
(-0.0227659 -1.44614 0)
(-0.0269893 -1.44538 0)
(0.0274207 -1.43207 0)
(0.0231251 -1.43282 0)
(0.0173902 -1.43335 0)
(0.0103124 -1.43369 0)
(0.00345257 -1.43385 0)
(-0.00326174 -1.43383 0)
(-0.0101267 -1.43363 0)
(-0.0172138 -1.43325 0)
(-0.0229624 -1.43271 0)
(-0.0272712 -1.43197 0)
(0.0276317 -1.41864 0)
(0.0232633 -1.41936 0)
(0.017425 -1.41988 0)
(0.0103165 -1.42023 0)
(0.00345269 -1.42039 0)
(-0.00326981 -1.42036 0)
(-0.0101389 -1.42015 0)
(-0.0172566 -1.41976 0)
(-0.0231073 -1.41922 0)
(-0.0274887 -1.41849 0)
(0.0277807 -1.40516 0)
(0.0233511 -1.40587 0)
(0.017416 -1.40639 0)
(0.0102935 -1.40675 0)
(0.00344176 -1.40691 0)
(-0.00327203 -1.40687 0)
(-0.0101287 -1.40665 0)
(-0.0172595 -1.40624 0)
(-0.023205 -1.40569 0)
(-0.0276466 -1.40498 0)
(0.0278784 -1.39166 0)
(0.0233962 -1.39236 0)
(0.0173681 -1.39289 0)
(0.0102449 -1.39327 0)
(0.00341886 -1.39345 0)
(-0.00327099 -1.39341 0)
(-0.0101011 -1.39316 0)
(-0.0172307 -1.39272 0)
(-0.0232661 -1.39215 0)
(-0.0277581 -1.39143 0)
(0.027945 -1.3781 0)
(0.0234135 -1.37882 0)
(0.0172909 -1.3794 0)
(0.0101744 -1.37984 0)
(0.00338374 -1.38005 0)
(-0.00327015 -1.38001 0)
(-0.0100633 -1.37971 0)
(-0.0171831 -1.37921 0)
(-0.0233083 -1.37859 0)
(-0.0278461 -1.37785 0)
(0.0280123 -1.36447 0)
(0.0234278 -1.36525 0)
(0.0172004 -1.36592 0)
(0.0100894 -1.36644 0)
(0.00333765 -1.36671 0)
(-0.0032738 -1.36667 0)
(-0.0100259 -1.36632 0)
(-0.0171357 -1.36572 0)
(-0.0233591 -1.365 0)
(-0.0279446 -1.3642 0)
(0.0281286 -1.35071 0)
(0.0234782 -1.35159 0)
(0.0171229 -1.35241 0)
(0.010004 -1.35309 0)
(0.00328466 -1.35345 0)
(-0.00328688 -1.3534 0)
(-0.0100036 -1.35296 0)
(-0.0171152 -1.35222 0)
(-0.0234577 -1.35135 0)
(-0.0281019 -1.35044 0)
(0.0283628 -1.33673 0)
(0.0236234 -1.33779 0)
(0.0170993 -1.33884 0)
(0.00994185 -1.33974 0)
(0.00323351 -1.34023 0)
(-0.0033148 -1.3402 0)
(-0.0100168 -1.33963 0)
(-0.0171594 -1.33867 0)
(-0.0236597 -1.33758 0)
(-0.0283835 -1.33649 0)
(0.0288093 -1.32241 0)
(0.023946 -1.32373 0)
(0.0171887 -1.32512 0)
(0.00993809 -1.32633 0)
(0.00319862 -1.32702 0)
(-0.00336243 -1.32699 0)
(-0.0100911 -1.32625 0)
(-0.0173176 -1.32499 0)
(-0.0240387 -1.32357 0)
(-0.0288757 -1.32223 0)
(0.0295708 -1.30763 0)
(0.0245369 -1.30928 0)
(0.0174559 -1.3111 0)
(0.01003 -1.31275 0)
(0.00319683 -1.31371 0)
(-0.00342998 -1.31369 0)
(-0.0102475 -1.3127 0)
(-0.0176395 -1.31104 0)
(-0.0246715 -1.3092 0)
(-0.0296686 -1.30754 0)
(0.0306947 -1.2922 0)
(0.025431 -1.29422 0)
(0.0179151 -1.2966 0)
(0.0102225 -1.29882 0)
(0.00323607 -1.30016 0)
(-0.00350357 -1.30016 0)
(-0.0104703 -1.29882 0)
(-0.0181212 -1.29662 0)
(-0.0255783 -1.29426 0)
(-0.0307975 -1.29224 0)
(0.0320326 -1.2759 0)
(0.0264548 -1.27828 0)
(0.0183989 -1.28138 0)
(0.0104382 -1.28439 0)
(0.00330888 -1.28625 0)
(-0.00355416 -1.28627 0)
(-0.0106632 -1.28445 0)
(-0.018583 -1.2815 0)
(-0.0265799 -1.27845 0)
(-0.0321121 -1.27609 0)
(0.0327649 -1.25834 0)
(0.0268198 -1.26133 0)
(0.0182883 -1.26574 0)
(0.0105294 -1.26986 0)
(0.00344922 -1.27227 0)
(-0.00360377 -1.2723 0)
(-0.0106696 -1.26997 0)
(-0.0184086 -1.26595 0)
(-0.0269019 -1.26161 0)
(-0.0328128 -1.25867 0)
(0.0302031 -1.23772 0)
(0.0243573 -1.24343 0)
(0.0165765 -1.25122 0)
(0.0106691 -1.25654 0)
(0.00400099 -1.25818 0)
(-0.0040113 -1.25822 0)
(-0.0106762 -1.25666 0)
(-0.0166055 -1.25144 0)
(-0.024402 -1.24379 0)
(-0.0302444 -1.23817 0)
(0.021072 -1.2043 0)
(0.0157417 -1.22537 0)
(0.0142272 -1.24163 0)
(0.0110311 -1.24497 0)
(0.00560912 -1.24158 0)
(-0.00548995 -1.24162 0)
(-0.0109224 -1.24504 0)
(-0.0141519 -1.24177 0)
(-0.0157541 -1.22569 0)
(-0.0211122 -1.20484 0)
(0.0109798 -1.12026 0)
(-0.00600525 -1.2326 0)
(0.015723 -1.24776 0)
(0.00553441 -1.23255 0)
(0.00610945 -1.22558 0)
(-0.00596131 -1.22559 0)
(-0.00539835 -1.23258 0)
(-0.0155822 -1.24779 0)
(0.00604467 -1.23274 0)
(-0.0109643 -1.12078 0)
(0.559732 -0.140808 0)
(0.661126 -0.132103 0)
(0.754895 -0.121111 0)
(0.839055 -0.107833 0)
(0.911573 -0.0925271 0)
(0.970826 -0.0757003 0)
(1.01585 -0.058036 0)
(1.04649 -0.040249 0)
(1.06327 -0.0228269 0)
(1.06806 -0.00588177 0)
(1.05965 0.00955137 0)
(1.04102 0.0227115 0)
(1.01487 0.0331086 0)
(0.983237 0.0407019 0)
(0.947751 0.0458675 0)
(0.909664 0.0491756 0)
(0.869824 0.0511725 0)
(0.828754 0.0523151 0)
(0.786746 0.0529689 0)
(0.743919 0.0533947 0)
(0.700269 0.0537677 0)
(0.655725 0.0542386 0)
(0.610163 0.0548955 0)
(0.563493 0.0556872 0)
(0.515699 0.0565141 0)
(0.466782 0.0573373 0)
(0.416812 0.0581194 0)
(0.365858 0.0587115 0)
(0.314197 0.0590209 0)
(0.262163 0.0590207 0)
(0.209894 0.058869 0)
(0.1575 0.0584742 0)
(0.106595 0.057701 0)
(0.0571675 0.0594497 0)
(0.00234702 0.0587306 0)
(-0.0467557 0.0441836 0)
(-0.0815302 0.0111032 0)
(-0.0923987 -0.0326625 0)
(-0.0741329 -0.0778621 0)
(-0.0338054 -0.0884581 0)
(0.461394 -0.273326 0)
(0.543914 -0.254574 0)
(0.619379 -0.230671 0)
(0.68602 -0.201599 0)
(0.742264 -0.168055 0)
(0.787059 -0.131555 0)
(0.820176 -0.0941538 0)
(0.842307 -0.0580103 0)
(0.854848 -0.0248421 0)
(0.859498 0.00450396 0)
(0.85933 0.0295198 0)
(0.854961 0.049773 0)
(0.846849 0.0653205 0)
(0.835546 0.076726 0)
(0.82154 0.0849784 0)
(0.805114 0.0910871 0)
(0.78642 0.0957606 0)
(0.765616 0.0995061 0)
(0.742838 0.102765 0)
(0.718143 0.105878 0)
(0.691532 0.109058 0)
(0.662985 0.11242 0)
(0.632487 0.115997 0)
(0.6 0.119725 0)
(0.56549 0.123498 0)
(0.528949 0.12726 0)
(0.490407 0.130815 0)
(0.449898 0.133972 0)
(0.407478 0.136521 0)
(0.363407 0.138365 0)
(0.317971 0.139437 0)
(0.271491 0.13945 0)
(0.224712 0.138106 0)
(0.180115 0.135476 0)
(0.136715 0.129417 0)
(0.0951532 0.11114 0)
(0.058977 0.0755405 0)
(0.0290309 0.0220514 0)
(0.00144027 -0.0419273 0)
(-0.00713766 -0.126965 0)
(0.386143 -0.405094 0)
(0.455263 -0.376926 0)