/*--------------------------------*- C++ -*----------------------------------*\
  =========                 |
  \\      /  F ield         | OpenFOAM: The Open Source CFD Toolbox
   \\    /   O peration     | Website:  https://openfoam.org
    \\  /    A nd           | Version:  8
     \\/     M anipulation  |
\*---------------------------------------------------------------------------*/
FoamFile
{
    version     2.0;
    format      ascii;
    class       surfaceScalarField;
    location    "3.95";
    object      alphaPhi0.water;
}
// * * * * * * * * * * * * * * * * * * * * * * * * * * * * * * * * * * * * * //

dimensions      [0 3 -1 0 0 0 0];

internalField   nonuniform List<scalar> 
18095
(
1.58732e-07
-9.65285e-07
8.06553e-07
1.65493e-07
-1.24835e-06
1.24159e-06
1.22225e-07
-1.24232e-06
1.28558e-06
6.53157e-08
-1.26353e-06
1.32044e-06
-6.13489e-12
-1.28053e-06
1.34585e-06
-6.5327e-08
-1.28053e-06
1.34585e-06
-1.22234e-07
-1.26353e-06
1.32044e-06
-1.65497e-07
-1.24231e-06
1.28557e-06
-1.58733e-07
-1.24834e-06
1.24158e-06
-9.65278e-07
8.06545e-07
1.11077e-07
-1.07636e-06
9.94626e-08
-1.23673e-06
7.2874e-08
-1.21573e-06
4.00323e-08
-1.23069e-06
-4.67202e-12
-1.24049e-06
-4.00409e-08
-1.24049e-06
-7.28807e-08
-1.23069e-06
-9.9467e-08
-1.21572e-06
-1.11079e-07
-1.23673e-06
-1.07636e-06
6.72186e-08
-1.14358e-06
5.27928e-08
-1.22231e-06
4.21627e-08
-1.2051e-06
2.38648e-08
-1.2124e-06
-3.57106e-12
-1.21662e-06
-2.38714e-08
-1.21662e-06
-4.21679e-08
-1.21239e-06
-5.27962e-08
-1.20509e-06
-6.72203e-08
-1.22231e-06
-1.14358e-06
3.96589e-08
-1.18324e-06
2.66389e-08
-1.20929e-06
2.2025e-08
-1.20048e-06
1.25303e-08
-1.2029e-06
-2.32192e-12
-1.20409e-06
-1.25346e-08
-1.20409e-06
-2.20284e-08
-1.2029e-06
-2.66412e-08
-1.20048e-06
-3.96602e-08
-1.20929e-06
-1.18324e-06
1.67609e-08
7.47284e-09
6.98992e-09
4.08929e-09
-1.31402e-12
-4.09169e-09
-6.99174e-09
-7.47404e-09
-1.67618e-08
-1.75591e-07
-1.16369e-06
1.33928e-06
-2.19893e-07
-1.21673e-06
1.26104e-06
-1.6569e-07
-1.21308e-06
1.15888e-06
-8.73406e-08
-1.2041e-06
1.12575e-06
-6.32558e-11
-1.20249e-06
1.11521e-06
8.72167e-08
-1.20248e-06
1.1152e-06
1.65577e-07
-1.20407e-06
1.12571e-06
2.19793e-07
-1.21304e-06
1.15882e-06
1.75513e-07
-1.21668e-06
1.26096e-06
-1.16364e-06
1.33915e-06
-9.28423e-08
-1.07085e-06
-9.56346e-08
-1.21394e-06
-7.93617e-08
-1.22935e-06
-4.43041e-08
-1.23915e-06
-3.56052e-11
-1.24676e-06
4.42357e-08
-1.24675e-06
7.93017e-08
-1.23913e-06
9.55881e-08
-1.22932e-06
9.28165e-08
-1.21391e-06
-1.07082e-06
-5.8007e-08
-1.01284e-06
-5.52125e-08
-1.21674e-06
-4.65869e-08
-1.23798e-06
-2.71944e-08
-1.25855e-06
-2.13274e-11
-1.27393e-06
2.71542e-08
-1.27393e-06
4.65531e-08
-1.25853e-06
5.51884e-08
-1.23796e-06
5.79952e-08
-1.21672e-06
-1.01283e-06
-7.49364e-08
-9.37908e-07
-6.21267e-08
-1.22955e-06
-4.86847e-08
-1.25142e-06
-2.78348e-08
-1.2794e-06
-1.32137e-11
-1.30175e-06
2.781e-08
-1.30175e-06
4.86645e-08
-1.27939e-06
6.21132e-08
-1.25141e-06
7.49301e-08
-1.22953e-06
-9.37896e-07
-1.31355e-07
-1.19315e-07
-8.51534e-08
-4.41046e-08
-8.77759e-12
4.40882e-08
8.51398e-08
1.19305e-07
1.3135e-07
-3.99881e-08
-9.31289e-07
9.71277e-07
6.86685e-09
-1.34191e-06
1.29505e-06
1.08717e-08
-1.27546e-06
1.27145e-06
4.7075e-09
-1.22756e-06
1.23373e-06
-5.51937e-10
-1.22498e-06
1.23024e-06
-5.87056e-09
-1.22491e-06
1.23023e-06
-1.19123e-08
-1.22763e-06
1.23367e-06
-8.46312e-09
-1.27564e-06
1.27219e-06
3.653e-08
-1.3417e-06
1.29671e-06
-9.28928e-07
9.65458e-07
1.3599e-08
-9.44888e-07
1.92683e-08
-1.34757e-06
1.27353e-08
-1.26892e-06
6.57958e-09
-1.22141e-06
-4.63146e-10
-1.21793e-06
-7.49681e-09
-1.21788e-06
-1.37089e-08
-1.22142e-06
-2.05985e-08
-1.26875e-06
-1.4974e-08
-1.34732e-06
-9.43902e-07
2.87815e-08
-9.73669e-07
1.99883e-08
-1.33878e-06
1.07088e-08
-1.25964e-06
6.00453e-09
-1.2167e-06
-2.80333e-10
-1.21165e-06
-6.53034e-09
-1.21163e-06
-1.13021e-08
-1.21665e-06
-2.05142e-08
-1.25954e-06
-2.92484e-08
-1.33859e-06
-9.7315e-07
7.99739e-08
-1.05364e-06
5.40456e-08
-1.31285e-06
3.46079e-08
-1.24021e-06
2.09719e-08
-1.20307e-06
-1.77927e-10
-1.1905e-06
-2.13252e-08
-1.19048e-06
-3.49699e-08
-1.203e-06
-5.43892e-08
-1.24012e-06
-8.0228e-08
-1.31275e-06
-1.05338e-06
2.85642e-07
2.33826e-07
1.52497e-07
7.51763e-08
-1.08515e-10
-7.53885e-08
-1.52684e-07
-2.33981e-07
-2.85772e-07
1.38054e-07
1.0605e-09
-1.39114e-07
1.36868e-07
1.18527e-09
1.35579e-07
1.29019e-09
1.34201e-07
1.37809e-09
1.32749e-07
1.45204e-09
1.31232e-07
1.5171e-09
1.29657e-07
1.57597e-09
1.2802e-07
1.63742e-09
1.26307e-07
1.71265e-09
1.80902e-09
1.24498e-07
1.38393e-07
1.86593e-09
-1.39198e-07
1.37455e-07
2.12222e-09
1.36399e-07
2.34622e-09
1.35238e-07
2.5394e-09
1.33985e-07
2.7051e-09
1.32653e-07
2.84873e-09
1.31248e-07
2.98055e-09
1.29775e-07
3.11026e-09
1.28236e-07
3.25072e-09
3.41573e-09
1.26629e-07
1.33382e-07
2.77633e-09
-1.34292e-07
1.32352e-07
3.15279e-09
1.31213e-07
3.48576e-09
1.29977e-07
3.77553e-09
1.28657e-07
4.02564e-09
1.27262e-07
4.24441e-09
1.25798e-07
4.44405e-09
1.24268e-07
4.63999e-09
1.22671e-07
4.84856e-09
5.08787e-09
1.20998e-07
1.2801e-07
3.79706e-09
-1.2903e-07
1.26871e-07
4.29097e-09
1.25629e-07
4.72934e-09
1.24294e-07
5.11054e-09
1.22882e-07
5.43743e-09
1.21406e-07
5.72015e-09
1.19872e-07
5.97617e-09
1.18285e-07
6.22696e-09
1.16639e-07
6.49481e-09
6.80207e-09
1.14925e-07
1.22299e-07
4.94037e-09
-1.23443e-07
1.21038e-07
5.55211e-09
1.19671e-07
6.09652e-09
1.18215e-07
6.56653e-09
1.16694e-07
6.95818e-09
1.15129e-07
7.28536e-09
1.13529e-07
7.57589e-09
1.11894e-07
7.86086e-09
1.1022e-07
8.17012e-09
8.53063e-09
1.08492e-07
1.16199e-07
6.21585e-09
-1.17476e-07
1.14803e-07
6.94771e-09
1.13292e-07
7.607e-09
1.1169e-07
8.17008e-09
1.10039e-07
8.60854e-09
1.08379e-07
8.94508e-09
1.06722e-07
9.23308e-09
1.05059e-07
9.52323e-09
1.03377e-07
9.85281e-09
1.02522e-08
1.01655e-07
1.09628e-07
7.62027e-09
-1.11034e-07
1.08107e-07
8.46878e-09
1.06444e-07
9.27082e-09
1.04664e-07
9.95008e-09
1.02861e-07
1.04112e-08
1.01124e-07
1.06824e-08
9.94335e-08
1.09218e-08
9.7777e-08
1.1178e-08
9.61131e-08
1.15188e-08
1.19604e-08
9.44051e-08
1.02416e-07
9.14495e-09
-1.03941e-07
1.00828e-07
1.00568e-08
9.90719e-08
1.10266e-08
9.70704e-08
1.19517e-08
9.51006e-08
1.2381e-08
9.33337e-08
1.24122e-08
9.17364e-08
1.25037e-08
9.01734e-08
1.27736e-08
8.85207e-08
1.31768e-08
1.36968e-08
8.67842e-08
9.41618e-08
1.0864e-08
-9.5881e-08
9.25835e-08
1.16347e-08
9.03097e-08
1.24582e-08
8.72027e-08
1.39614e-08
8.68504e-08
1.38791e-08
8.573e-08
1.37497e-08
8.42527e-08
1.39858e-08
8.26165e-08
1.44131e-08
8.082e-08
1.49731e-08
1.56292e-08
7.88874e-08
8.40015e-08
1.32916e-08
-8.71646e-08
8.02601e-08
1.27658e-08
7.90399e-08
1.3433e-08
7.94567e-08
1.32993e-08
7.86462e-08
1.44443e-08
7.98137e-08
1.53187e-08
7.78354e-08
1.59663e-08
7.56174e-08
1.6631e-08
7.32331e-08
1.73574e-08
1.81168e-08
7.07454e-08
7.57146e-08
1.17441e-08
-7.48252e-08
7.46872e-08
1.31274e-08
7.91647e-08
1.45187e-08
7.69286e-08
1.57808e-08
7.51606e-08
1.66753e-08
7.32829e-08
1.76026e-08
7.0662e-08
1.85886e-08
6.77543e-08
1.95387e-08
6.46745e-08
2.04371e-08
2.12669e-08
6.15242e-08
7.66361e-08
1.38074e-08
-7.69775e-08
7.55539e-08
1.5087e-08
7.39182e-08
1.64605e-08
7.18111e-08
1.78796e-08
6.9126e-08
1.93533e-08
6.59409e-08
2.07955e-08
6.24042e-08
2.21287e-08
5.85914e-08
2.33514e-08
5.46537e-08
2.43746e-08
2.51846e-08
5.07358e-08
7.16971e-08
1.52347e-08
-7.30926e-08
6.97577e-08
1.70236e-08
6.73076e-08
1.8913e-08
6.43085e-08
2.08814e-08
6.07249e-08
2.28821e-08
5.66966e-08
2.48234e-08
5.22027e-08
2.66318e-08
4.73873e-08
2.8169e-08
4.24832e-08
2.92786e-08
2.99265e-08
3.77412e-08
6.42011e-08
1.74249e-08
-6.63902e-08
6.15451e-08
1.96808e-08
5.83066e-08
2.2079e-08
5.45866e-08
2.45963e-08
5.02679e-08
2.72005e-08
4.52954e-08
2.97955e-08
3.97207e-08
3.22339e-08
3.36785e-08
3.42194e-08
2.75824e-08
3.53746e-08
3.55941e-08
2.19148e-08
5.3937e-08
2.0344e-08
-5.69036e-08
5.05506e-08
2.30419e-08
4.66926e-08
2.59366e-08
4.22791e-08
2.90095e-08
3.72129e-08
3.22662e-08
3.13823e-08
3.56683e-08
2.45433e-08
3.90884e-08
1.6855e-08
4.19083e-08
9.25479e-09
4.29749e-08
4.23266e-08
2.52239e-09
4.06294e-08
2.41456e-08
-4.44327e-08
3.64001e-08
2.72695e-08
3.1712e-08
3.06589e-08
2.64621e-08
3.42831e-08
2.05846e-08
3.81639e-08
1.39145e-08
4.23431e-08
6.00714e-09
4.69966e-08
-3.80826e-09
5.17243e-08
-1.42282e-08
4.72711e-08
4.84694e-08
-2.10891e-08
2.40327e-08
2.91405e-08
-2.90007e-08
1.85382e-08
3.27928e-08
1.24495e-08
3.6757e-08
5.67778e-09
4.10584e-08
-1.82623e-09
4.56722e-08
-1.00187e-08
5.05401e-08
-1.84054e-08
4.98791e-08
-2.62642e-08
5.176e-08
-3.51485e-08
4.54451e-08
5.11087e-08
-4.43446e-08
5.16213e-09
3.53054e-08
-1.13237e-08
-1.53115e-09
3.94871e-08
-8.88709e-09
4.41139e-08
-1.69059e-08
4.90782e-08
-2.55931e-08
5.12373e-08
-3.22636e-08
4.94087e-08
-3.58251e-08
5.06033e-08
-3.66561e-08
5.19931e-08
-4.43659e-08
5.19592e-08
5.59012e-08
-5.76416e-08
-1.5054e-08
4.24693e-08
7.8907e-09
-2.25553e-08
4.6989e-08
-3.03242e-08
5.18837e-08
-3.56922e-08
5.29324e-08
-3.9155e-08
5.01143e-08
-4.25685e-08
5.24126e-08
-4.7336e-08
5.49051e-08
-5.19896e-08
5.61247e-08
-6.79524e-08
6.22242e-08
6.2475e-08
-7.4523e-08
-3.68595e-08
5.08386e-08
2.84901e-08
-4.54789e-08
5.56086e-08
-5.31159e-08
6.04406e-08
-4.83219e-08
5.67437e-08
-5.19366e-08
5.33195e-08
-5.55454e-08
5.56121e-08
-6.22626e-08
6.12127e-08
-7.52829e-08
7.27532e-08
-8.82332e-08
7.28952e-08
6.91587e-08
-9.49108e-08
-5.72012e-08
5.97137e-08
4.83262e-08
-6.60134e-08
6.4421e-08
-7.38698e-08
6.89571e-08
-6.31056e-08
6.66538e-08
-6.93804e-08
5.91325e-08
-7.74814e-08
7.38338e-08
-9.7042e-08
8.24033e-08
-1.06288e-07
8.26275e-08
-1.13752e-07
8.03657e-08
7.71888e-08
-1.21777e-07
-7.86826e-08
6.94321e-08
6.89642e-08
-8.82794e-08
7.40183e-08
-9.7009e-08
7.81098e-08
-1.02394e-07
8.2447e-08
-1.12124e-07
8.59473e-08
-1.23673e-07
8.84941e-08
-1.31252e-07
8.99963e-08
-1.38677e-07
9.00565e-08
-1.46934e-07
8.86276e-08
8.61301e-08
-1.5587e-07
-1.01621e-07
8.02634e-08
9.06934e-08
-1.12438e-07
8.45136e-08
-1.23519e-07
8.89002e-08
-1.34118e-07
9.28199e-08
-1.43981e-07
9.58616e-08
-1.53658e-07
9.82054e-08
-1.63113e-07
9.9468e-08
-1.72058e-07
9.90148e-08
-1.80786e-07
9.79839e-08
9.28175e-08
-1.92743e-07
-1.24523e-07
9.19411e-08
1.11939e-07
-1.37147e-07
9.73866e-08
-1.4969e-07
1.01272e-07
-1.6157e-07
1.04739e-07
-1.73283e-07
1.07614e-07
-1.849e-07
1.09873e-07
-1.94003e-07
1.0986e-07
-2.01403e-07
1.08252e-07
-2.11676e-07
1.06543e-07
1.05108e-07
-2.26955e-07
-1.46775e-07
1.03915e-07
1.35636e-07
-1.63343e-07
1.08148e-07
-1.76341e-07
1.14339e-07
-1.89506e-07
1.17932e-07
-2.02848e-07
1.20991e-07
-2.13798e-07
1.23003e-07
-2.20357e-07
1.20231e-07
-2.34551e-07
1.21039e-07
-2.50504e-07
1.21089e-07
1.2087e-07
-2.73698e-07
-1.70042e-07
1.06695e-07
1.26295e-07
-1.88209e-07
1.2241e-07
-2.01951e-07
1.2809e-07
-2.16889e-07
1.32883e-07
-2.3245e-07
1.3658e-07
-2.43836e-07
1.38695e-07
-2.5552e-07
1.37874e-07
-2.71979e-07
1.3609e-07
-2.98934e-07
1.39038e-07
1.3965e-07
-3.1777e-07
-1.89083e-07
1.18186e-07
1.29434e-07
-2.03911e-07
1.37247e-07
-2.22553e-07
1.46744e-07
-2.43838e-07
1.54178e-07
-2.63868e-07
1.56623e-07
-2.8208e-07
1.57227e-07
-3.00703e-07
1.58563e-07
-3.19673e-07
1.57702e-07
-3.06058e-07
1.42473e-07
1.29579e-07
-2.97358e-07
-2.0117e-07
1.36447e-07
1.68868e-07
-2.11537e-07
1.47455e-07
-2.02687e-07
1.20874e-07
-2.56574e-07
9.79602e-08
-3.04608e-07
1.66095e-07
-3.23086e-07
1.75933e-07
-3.39743e-07
1.75458e-07
-3.13428e-07
1.57994e-07
-2.82054e-07
1.32743e-07
1.30066e-07
-2.79316e-07
-2.23125e-07
1.45438e-07
2.01445e-07
-1.64067e-07
1.16475e-07
-1.31615e-07
9.41786e-08
-1.59992e-07
9.04605e-08
-3.36747e-07
1.29813e-07
-3.57657e-07
1.97083e-07
-3.68426e-07
1.91765e-07
-2.91282e-07
1.58387e-07
-2.95778e-07
1.42525e-07
1.42513e-07
-3.06986e-07
-1.50173e-07
1.06453e-07
2.14329e-07
-1.2292e-07
8.71377e-08
-1.25086e-07
9.34685e-08
-1.39149e-07
1.00326e-07
-2.83678e-07
1.2667e-07
-3.66978e-07
2.08792e-07
-3.7706e-07
2.09224e-07
-2.94018e-07
1.91549e-07
-3.04321e-07
1.53946e-07
1.54092e-07
-3.18936e-07
-1.16314e-07
9.11351e-08
1.74485e-07
-1.25406e-07
9.40996e-08
-1.36649e-07
1.02626e-07
-1.52941e-07
1.13835e-07
-3.5084e-07
1.6729e-07
-3.78091e-07
2.33238e-07
-3.95693e-07
2.29242e-07
-3.75032e-07
2.2725e-07
-3.03744e-07
1.90452e-07
1.6564e-07
-3.20096e-07
-1.18878e-07
8.84941e-08
1.19259e-07
-1.27066e-07
1.00212e-07
-1.37363e-07
1.10805e-07
-1.75378e-07
1.40093e-07
-3.5207e-07
2.24672e-07
-3.70718e-07
2.52291e-07
-3.89903e-07
2.49024e-07
-4.08131e-07
2.4758e-07
-3.3988e-07
2.45355e-07
1.82281e-07
-3.12437e-07
-1.20874e-07
9.12859e-08
1.17597e-07
-1.26914e-07
1.04186e-07
-1.46816e-07
1.28424e-07
-2.87651e-07
2.26945e-07
-3.31553e-07
2.69e-07
-3.49761e-07
2.70758e-07
-3.68786e-07
2.68595e-07
-3.84328e-07
2.64521e-07
-3.67611e-07
2.59769e-07
1.9522e-07
-2.99315e-07
-1.26637e-07
9.39325e-08
1.21145e-07
-1.35677e-07
1.13682e-07
-2.18932e-07
1.79148e-07
-2.97114e-07
2.73391e-07
-3.11996e-07
2.83897e-07
-3.31817e-07
2.9107e-07
-3.51514e-07
2.88405e-07
-3.60942e-07
2.74307e-07
-3.43956e-07
2.61074e-07
2.07476e-07
-2.88832e-07
-2.04236e-07
2.14663e-07
2.66615e-07
-1.81141e-07
2.23458e-07
-2.57602e-07
1.86304e-07
-2.77958e-07
2.41043e-07
-2.73768e-07
1.95676e-07
-2.3773e-07
2.00979e-07
-2.66008e-07
2.00235e-07
-3.2435e-07
2.25111e-07
-2.51694e-07
2.11317e-07
1.82683e-07
-2.30728e-07
-3.15396e-07
2.29641e-07
3.13531e-07
-2.55586e-07
2.11152e-07
-2.3421e-07
1.75052e-07
-1.97432e-07
1.79828e-07
-1.93392e-07
1.81742e-07
-1.87864e-07
1.89414e-07
-1.94091e-07
1.99369e-07
-2.01464e-07
2.1892e-07
-1.92567e-07
1.90047e-07
1.85204e-07
-1.94448e-07
-2.72005e-07
1.80829e-07
3.0085e-07
-1.92537e-07
1.50192e-07
-1.93407e-07
1.65572e-07
-1.91087e-07
1.67008e-07
-1.89012e-07
1.69317e-07
-1.9589e-07
1.86121e-07
-2.02495e-07
2.57359e-07
-1.85886e-07
2.58279e-07
-1.80977e-07
1.79818e-07
1.78044e-07
-1.77866e-07
-1.44987e-07
8.59707e-08
1.78494e-07
-1.79408e-07
1.31371e-07
-1.7314e-07
2.1556e-07
-1.65019e-07
2.41631e-07
-1.80874e-07
2.26034e-07
-2.72238e-07
2.77875e-07
-2.88244e-07
2.86621e-07
-2.32111e-07
2.8219e-07
-1.58509e-07
2.14823e-07
1.66165e-07
-1.49809e-07
-1.31411e-07
1.02165e-07
1.07115e-07
-2.46958e-07
2.0758e-07
-2.83324e-07
2.78505e-07
-2.76775e-07
2.79723e-07
-2.79124e-07
2.75284e-07
-2.73099e-07
2.72883e-07
-2.56709e-07
2.70588e-07
-2.37995e-07
2.66359e-07
-1.8402e-07
2.58387e-07
2.30845e-07
-1.4037e-07
-1.34991e-07
1.12375e-07
7.37659e-08
-2.50905e-07
2.79202e-07
-2.55439e-07
2.8322e-07
-2.5084e-07
2.75372e-07
-2.43251e-07
2.67888e-07
-2.32093e-07
2.61756e-07
-2.17846e-07
2.5637e-07
-2.01827e-07
2.51125e-07
-1.82786e-07
2.45954e-07
2.41106e-07
-1.67851e-07
-1.45876e-07
1.10224e-07
6.87977e-08
-2.12008e-07
2.77298e-07
-2.10604e-07
2.81862e-07
-2.0616e-07
2.70955e-07
-1.99713e-07
2.61457e-07
-1.91216e-07
2.5325e-07
-1.81032e-07
2.46149e-07
-1.69827e-07
2.39941e-07
-1.58322e-07
2.34622e-07
2.30161e-07
-1.47234e-07
-9.9602e-08
8.50099e-08
4.77722e-08
-1.66876e-07
2.38201e-07
-1.65321e-07
2.80333e-07
-1.62538e-07
2.68175e-07
-1.58526e-07
2.57432e-07
-1.53324e-07
2.48012e-07
-1.47147e-07
2.39942e-07
-1.40316e-07
2.33093e-07
-1.3317e-07
2.27441e-07
2.22983e-07
-1.25987e-07
-2.55315e-08
7.50804e-08
3.28337e-08
-1.0639e-07
1.0566e-07
-1.24156e-07
2.58826e-07
-1.23069e-07
2.67083e-07
-1.21422e-07
2.55758e-07
-1.19239e-07
2.45802e-07
-1.1663e-07
2.37318e-07
-1.13757e-07
2.30217e-07
-1.1075e-07
2.24421e-07
2.19861e-07
-1.07644e-07
-2.07429e-08
6.81638e-08
2.75446e-08
-2.27575e-08
7.20361e-08
-6.98888e-08
9.40524e-08
-8.98654e-08
2.1597e-07
-9.00332e-08
2.55894e-07
-9.00742e-08
2.4582e-07
-9.01789e-08
2.37418e-07
-9.06821e-08
2.30721e-07
-9.1621e-08
2.2536e-07
2.211e-07
-9.28624e-08
-2.24677e-08
6.17953e-08
2.90353e-08
-1.6615e-08
6.64796e-08
-1.06286e-08
7.3147e-08
-3.73089e-08
7.54636e-08
-5.96861e-08
1.61804e-07
-6.65532e-08
2.35294e-07
-6.72143e-08
2.38067e-07
-6.94476e-08
2.32952e-07
-7.30573e-08
2.28966e-07
2.2572e-07
-7.76879e-08
-2.63673e-08
5.55469e-08
3.19145e-08
-2.00652e-08
6.04857e-08
-1.60976e-08
6.96006e-08
-9.07622e-09
6.87055e-08
-2.99067e-08
9.9042e-08
-4.36404e-08
2.26005e-07
-4.42485e-08
2.38653e-07
-4.69535e-08
2.35645e-07
-5.13255e-08
2.33323e-07
2.31464e-07
-5.70735e-08
-4.78681e-08
1.65957e-07
1.04204e-07
-2.3298e-08
9.16531e-08
-1.53463e-08
6.0723e-08
-1.5785e-08
6.72224e-08
-2.30092e-08
1.30265e-07
-2.91087e-08
2.28196e-07
-2.74072e-08
2.36934e-07
-2.7449e-08
2.35682e-07
-2.87461e-08
2.34601e-07
2.3373e-07
-3.10201e-08
-8.23656e-08
2.00393e-07
9.6606e-08
-4.9028e-08
2.01071e-07
-2.92117e-08
1.82503e-07
-2.81058e-08
1.86349e-07
-3.59936e-08
2.21243e-07
-3.06544e-08
2.27025e-07
-2.40053e-08
2.30276e-07
-1.9137e-08
2.30809e-07
-1.55516e-08
2.30999e-07
2.31057e-07
-1.28942e-08
-6.59011e-08
1.96617e-07
7.00301e-08
-6.0918e-08
1.99984e-07
-5.50724e-08
2.03204e-07
-4.81461e-08
2.06168e-07
-3.93452e-08
2.12564e-07
-3.0851e-08
2.18521e-07
-2.37273e-08
2.23142e-07
-1.72169e-08
2.24294e-07
-1.04043e-08
2.24057e-07
1.53401e-07
-5.96957e-09
-4.03524e-08
1.47268e-07
3.67588e-08
-5.12076e-08
1.53485e-07
-4.78224e-08
1.95705e-07
-3.7384e-08
1.87672e-07
-2.91097e-08
1.95183e-07
-2.44947e-08
1.55768e-07
-1.80002e-08
1.35183e-07
-9.42266e-09
9.81923e-08
-2.09084e-09
4.27108e-08
8.58118e-09
4.78199e-10
-1.15187e-09
1.92576e-08
1.08259e-09
-1.29157e-08
1.33525e-08
-1.53849e-08
4.7673e-08
-9.79384e-09
5.86189e-08
-3.08531e-09
3.0425e-08
-4.79071e-10
8.62251e-09
8.55903e-10
7.85065e-09
1.35425e-09
6.76357e-09
1.49811e-09
6.14273e-09
6.55769e-09
2.65747e-09
1.29357e-09
6.93041e-09
-1.17895e-09
4.15123e-09
9.49438e-09
5.55903e-09
1.03477e-08
4.14782e-09
9.78483e-09
2.51462e-09
7.76088e-09
3.24926e-09
7.00015e-09
4.14558e-09
6.41759e-09
4.62514e-09
5.61997e-09
5.50767e-09
4.72199e-09
4.89031e-09
6.77527e-09
1.87169e-09
6.97727e-09
-2.91777e-09
3.99059e-09
6.83868e-09
5.57005e-09
8.2288e-09
6.35697e-09
8.5797e-09
6.38825e-09
7.40993e-09
7.01202e-09
6.12105e-09
7.88555e-09
5.15925e-09
8.78874e-09
4.1779e-09
9.41337e-09
3.68457e-09
3.83866e-09
1.02994e-08
2.39243e-09
2.68013e-08
-9.73009e-10
2.74154e-09
5.9478e-09
4.27766e-09
6.28199e-09
5.66957e-09
6.89164e-09
6.86987e-09
5.94952e-09
7.95344e-09
4.76748e-09
8.95221e-09
3.89185e-09
1.22375e-08
6.74054e-09
7.53719e-08
3.10514e-08
5.4249e-08
2.1433e-07
2.62024e-08
7.14491e-08
-3.52779e-08
2.33035e-08
6.08173e-08
3.00691e-08
5.88208e-08
4.80601e-08
5.20095e-08
7.24561e-08
5.08847e-08
1.23695e-07
5.33537e-08
2.09018e-07
6.21923e-08
2.92089e-07
7.08452e-08
3.4558e-07
6.8849e-08
6.46489e-08
3.83685e-07
1.08753e-07
5.48262e-08
-7.31953e-08
1.36967e-07
5.32847e-08
1.67088e-07
5.08532e-08
1.98298e-07
4.53655e-08
2.32339e-07
4.18035e-08
2.70009e-07
3.93053e-08
3.10008e-07
3.75416e-08
3.46896e-07
3.61296e-08
3.82193e-07
3.40487e-08
3.04075e-08
4.17136e-07
1.03353e-07
1.39389e-08
-6.38489e-08
1.64242e-07
1.34561e-08
2.07272e-07
1.32526e-08
2.42363e-07
1.09813e-08
2.78148e-07
6.80236e-09
3.16659e-07
1.70356e-09
3.57629e-07
-2.47473e-09
3.9949e-07
-4.77569e-09
4.41439e-07
-6.94493e-09
-9.227e-09
4.82052e-07
7.76528e-08
-2.70585e-08
-3.71375e-08
1.21478e-07
-3.01144e-08
1.79464e-07
-2.93539e-08
2.49714e-07
-2.17716e-08
2.94711e-07
-1.76412e-08
3.4382e-07
-2.46396e-08
3.94287e-07
-3.3441e-08
4.31792e-07
-2.13064e-08
4.645e-07
-1.91596e-08
-1.77032e-08
5.08409e-07
4.93725e-08
-6.10359e-08
-1.16455e-08
6.56071e-08
-2.73035e-08
5.68791e-08
-3.17066e-08
7.0099e-08
-4.13541e-08
9.8383e-08
-5.70994e-08
1.25628e-07
-6.36047e-08
1.56933e-07
-4.27039e-08
1.66677e-07
-4.82497e-08
1.86873e-07
-5.5169e-08
-5.253e-08
2.06539e-07
2.85148e-08
-7.33706e-08
2.04668e-08
4.29632e-08
-8.79201e-08
7.5704e-08
-1.10457e-07
1.13652e-07
-1.10797e-07
1.53355e-07
-1.09324e-07
1.9961e-07
-1.22302e-07
2.68279e-07
-1.54065e-07
2.96302e-07
-1.8183e-07
2.8463e-07
-1.73096e-07
-1.6047e-07
3.09481e-07
7.21321e-08
-1.87926e-07
-1.89255e-08
1.45735e-07
-2.52938e-07
2.34298e-07
-2.8767e-07
3.24561e-07
-3.04297e-07
4.19613e-07
-3.14146e-07
5.23139e-07
-3.17832e-07
6.32573e-07
-3.15596e-07
7.14999e-07
-3.10175e-07
7.79773e-07
-3.0319e-07
-2.9317e-07
8.30884e-07
1.32463e-07
-3.26672e-07
-5.76645e-08
2.29197e-07
-3.49672e-07
3.09824e-07
-3.68297e-07
3.88222e-07
-3.82694e-07
4.66e-07
-3.91925e-07
5.43528e-07
-3.9536e-07
6.21169e-07
-3.93237e-07
6.97733e-07
-3.86739e-07
7.71149e-07
-3.76606e-07
-3.62578e-07
8.40556e-07
9.59099e-08
-4.07136e-07
-1.54459e-08
1.783e-07
-4.32062e-07
2.61891e-07
-4.51888e-07
3.45615e-07
-4.66419e-07
4.28965e-07
-4.75275e-07
5.11773e-07
-4.78168e-07
5.93671e-07
-4.75136e-07
6.73441e-07
-4.66508e-07
7.49449e-07
-4.52615e-07
-4.33647e-07
8.20518e-07
3.34069e-08
-4.91641e-07
5.10981e-08
1.20498e-07
-5.19153e-07
2.0907e-07
-5.4046e-07
2.98055e-07
-5.55403e-07
3.86574e-07
-5.63794e-07
4.73889e-07
-5.65483e-07
5.59165e-07
-5.60412e-07
6.41265e-07
-5.4861e-07
7.18778e-07
-5.30128e-07
-5.05036e-07
7.90168e-07
-3.58103e-08
-5.79833e-07
1.24002e-07
5.45707e-08
-6.09534e-07
1.46126e-07
-6.32015e-07
2.37823e-07
-6.47101e-07
3.28691e-07
-6.54662e-07
4.1778e-07
-6.54572e-07
5.04065e-07
-6.46699e-07
5.86336e-07
-6.30881e-07
6.63063e-07
-6.06855e-07
-5.7411e-07
7.32136e-07
-1.10444e-07
-6.70187e-07
2.00798e-07
-1.84781e-08
-7.015e-07
7.39397e-08
-7.24433e-07
1.65747e-07
-7.38908e-07
2.55931e-07
-7.44846e-07
3.43494e-07
-7.42135e-07
4.27389e-07
-7.30595e-07
5.06443e-07
-7.09936e-07
5.79179e-07
-6.79592e-07
-6.37718e-07
6.42789e-07
-1.81439e-07
-7.61123e-07
2.72375e-07
-8.99813e-08
-7.92959e-07
8.44688e-10
-8.15259e-07
9.00794e-08
-8.28143e-07
1.76801e-07
-8.31569e-07
2.6008e-07
-8.25413e-07
3.38974e-07
-8.0949e-07
4.12548e-07
-7.8351e-07
4.79864e-07
-7.46908e-07
-6.95744e-07
5.3789e-07
-2.37673e-07
-8.50119e-07
3.2667e-07
-1.49316e-07
-8.81317e-07
-6.25337e-08
-9.02041e-07
2.19391e-08
-9.12616e-07
1.03355e-07
-9.12985e-07
1.80928e-07
-9.02985e-07
2.53907e-07
-8.8247e-07
3.21723e-07
-8.51326e-07
3.84216e-07
-8.09401e-07
-7.36869e-07
4.25364e-07
-2.70162e-07
-9.33395e-07
3.53439e-07
-1.8819e-07
-9.6329e-07
-1.08022e-07
-9.82209e-07
-3.01128e-08
-9.90524e-07
4.49267e-08
-9.88024e-07
1.16367e-07
-9.74425e-07
1.8357e-07
-9.49673e-07
2.46214e-07
-9.13966e-07
3.04376e-07
-8.67563e-07
-7.29645e-07
2.97162e-07
-2.76392e-07
-1.00674e-06
3.49735e-07
-2.04305e-07
-1.03538e-06
-1.33381e-07
-1.05313e-06
-6.37846e-08
-1.06012e-06
3.90647e-09
-1.05572e-06
6.88472e-08
-1.03937e-06
1.30283e-07
-1.01111e-06
1.87921e-07
-9.71589e-07
2.42207e-07
-9.2185e-07
-7.3565e-07
1.65176e-07
-2.60818e-07
-1.06704e-06
3.21124e-07
-2.01123e-07
-1.09507e-06
-1.41423e-07
-1.11283e-06
-8.16346e-08
-1.11991e-06
-2.24159e-08
-1.11493e-06
3.51016e-08
-1.09688e-06
8.98784e-08
-1.06589e-06
1.41674e-07
-1.02339e-06
1.91517e-07
-9.71694e-07
-7.12526e-07
1.18729e-07
-2.30329e-07
-1.1129e-06
2.7618e-07
-1.84101e-07
-1.1413e-06
-1.36407e-07
-1.16053e-06
-8.70444e-08
-1.16927e-06
-3.68119e-08
-1.16517e-06
1.27555e-08
-1.14645e-06
6.00095e-08
-1.11314e-06
1.03982e-07
-1.06738e-06
1.44836e-07
-1.01255e-06
-6.62887e-07
7.41608e-08
-1.91772e-07
-1.14413e-06
2.23007e-07
-1.58882e-07
-1.17419e-06
-1.22984e-07
-1.19643e-06
-8.38871e-08
-1.20837e-06
-4.25387e-08
-1.20652e-06
-7.37447e-10
-1.18825e-06
3.94616e-08
-1.15334e-06
7.65755e-08
-1.10451e-06
1.10365e-07
-1.04636e-06
-6.03778e-07
4.7049e-08
-1.52002e-07
-1.16138e-06
1.69207e-07
-1.3094e-07
-1.19525e-06
-1.05615e-07
-1.22175e-06
-7.59677e-08
-1.23802e-06
-4.31065e-08
-1.23938e-06
-8.9455e-09
-1.22241e-06
2.42917e-08
-1.18658e-06
5.47993e-08
-1.13502e-06
8.17035e-08
-1.07327e-06
-5.60125e-07
2.96768e-08
-1.15906e-07
-1.1658e-06
1.20329e-07
-1.04372e-07
-1.20679e-06
-8.76414e-08
-1.23848e-06
-6.61329e-08
-1.25953e-06
-4.1161e-08
-1.26435e-06
-1.46167e-08
-1.24896e-06
1.13163e-08
-1.21251e-06
3.46636e-08
-1.15837e-06
5.36677e-08
-1.09227e-06
-5.44126e-07
2.22554e-08
-8.47807e-08
-1.15763e-06
7.66174e-08
-8.00916e-08
-1.21148e-06
-6.984e-08
-1.24873e-06
-5.50704e-08
-1.2743e-06
-3.71663e-08
-1.28225e-06
-1.7815e-08
-1.26831e-06
1.04976e-09
-1.23137e-06
1.75231e-08
-1.17485e-06
2.80296e-08
-1.10279e-06
-5.52324e-07
1.21268e-08
-5.72301e-08
-1.13907e-06
3.86252e-08
-5.70581e-08
-1.21165e-06
-5.17441e-08
-1.25405e-06
-4.26277e-08
-1.28341e-06
-3.0893e-08
-1.29399e-06
-1.78288e-08
-1.28137e-06
-4.95124e-09
-1.24425e-06
6.14609e-09
-1.18595e-06
1.16141e-08
-1.11076e-06
-5.75191e-07
5.5872e-09
-3.39277e-08
-1.08095e-06
1.83042e-08
-3.58572e-08
-1.20973e-06
-3.41845e-08
-1.25572e-06
-2.9792e-08
-1.2878e-06
-2.32979e-08
-1.30048e-06
-1.54989e-08
-1.28917e-06
-7.47028e-09
-1.25228e-06
-3.93361e-10
-1.19302e-06
3.80489e-09
-1.11634e-06
-5.93638e-07
1.58156e-09
-1.21598e-08
-1.04332e-06
2.80992e-09
-1.6369e-08
-1.20552e-06
-1.82909e-08
-1.2538e-06
-1.81944e-08
-1.2879e-06
-1.61687e-08
-1.30251e-06
-1.27363e-08
-1.29261e-06
-8.73907e-09
-1.25628e-06
-4.98032e-09
-1.19678e-06
-2.25698e-09
-1.11947e-06
-6.14777e-07
-3.50792e-10
5.5168e-09
-1.0314e-06
-6.21526e-09
-1.84159e-09
-1.1982e-06
-7.32437e-09
-1.24832e-06
-1.0711e-08
-1.28451e-06
-1.19824e-08
-1.30124e-06
-1.17371e-08
-1.29285e-06
-1.0838e-08
-1.25718e-06
-9.81589e-09
-1.1978e-06
-9.21454e-09
-1.1202e-06
-6.4424e-07
-2.90872e-09
9.4929e-09
-1.02962e-06
-7.55633e-09
1.10914e-09
-1.18984e-06
-5.63428e-09
-1.24157e-06
-1.02268e-08
-1.27992e-06
-1.2794e-08
-1.29867e-06
-1.40764e-08
-1.29157e-06
-1.50035e-08
-1.25625e-06
-1.58636e-08
-1.19694e-06
-1.69083e-08
-1.11911e-06
-6.7667e-07
-5.53571e-09
-1.41889e-09
-1.02941e-06
-3.44382e-09
-8.00667e-09
-1.18326e-06
-1.26772e-08
-1.2369e-06
-1.59108e-08
-1.27669e-06
-1.77772e-08
-1.2968e-06
-1.89862e-08
-1.29036e-06
-2.04752e-08
-1.25476e-06
-2.23013e-08
-1.19511e-06
-2.42409e-08
-1.11718e-06
-7.08139e-07
-7.6397e-09
-2.13457e-08
-1.02457e-06
1.22195e-08
-2.17635e-08
-1.18284e-06
-2.23699e-08
-1.2363e-06
-2.29841e-08
-1.27607e-06
-2.31022e-08
-1.29669e-06
-2.3156e-08
-1.29031e-06
-2.39749e-08
-1.25394e-06
-2.54989e-08
-1.19359e-06
-2.75147e-08
-1.11517e-06
-7.38444e-07
-8.62706e-09
-2.96971e-08
-1.01483e-06
1.98792e-08
-2.71473e-08
-1.18539e-06
-2.62638e-08
-1.23718e-06
-2.59895e-08
-1.27635e-06
-2.5312e-08
-1.29736e-06
-2.44718e-08
-1.29115e-06
-2.41196e-08
-1.25429e-06
-2.38866e-08
-1.19382e-06
-2.33067e-08
-1.1158e-06
-7.6549e-07
-3.85581e-09
-2.43744e-08
-1.00643e-06
1.51854e-08
-2.38671e-08
-1.1859e-06
-2.45283e-08
-1.23652e-06
-2.52152e-08
-1.27566e-06
-2.5004e-08
-1.29757e-06
-2.422e-08
-1.29193e-06
-2.3511e-08
-1.255e-06
-2.26027e-08
-1.19473e-06
-2.16157e-08
-1.1168e-06
-7.8774e-07
-3.29167e-09
-2.10694e-08
-9.96806e-07
1.1199e-08
-2.21285e-08
-1.18484e-06
-2.34068e-08
-1.23524e-06
-2.43743e-08
-1.27469e-06
-2.43371e-08
-1.29761e-06
-2.33889e-08
-1.29288e-06
-2.17714e-08
-1.25662e-06
-1.91907e-08
-1.19731e-06
-1.61148e-08
-1.11988e-06
-8.07402e-07
-1.31071e-09
-2.52069e-08
-9.83947e-07
1.43718e-08
-2.43583e-08
-1.18569e-06
-2.4252e-08
-1.23535e-06
-2.45332e-08
-1.27441e-06
-2.45264e-08
-1.29762e-06
-2.36309e-08
-1.29377e-06
-2.12782e-08
-1.25897e-06
-1.72567e-08
-1.20133e-06
-1.25323e-08
-1.1246e-06
-8.2678e-07
-4.32829e-10
-2.58705e-08
-9.7197e-07
1.45513e-08
-2.44196e-08
-1.18714e-06
-2.38906e-08
-1.23588e-06
-2.41824e-08
-1.27412e-06
-2.50019e-08
-1.2968e-06
-2.49217e-08
-1.29385e-06
-2.23427e-08
-1.26155e-06
-1.74312e-08
-1.20624e-06
-1.17421e-08
-1.13029e-06
-8.47128e-07
-6.5285e-10
-2.295e-08
-9.65468e-07
1.27232e-08
-2.28091e-08
-1.18728e-06
-2.26736e-08
-1.23601e-06
-2.33957e-08
-1.2734e-06
-2.56453e-08
-1.29455e-06
-2.70395e-08
-1.29246e-06
-2.46223e-08
-1.26397e-06
-1.90227e-08
-1.21184e-06
-1.22896e-08
-1.13703e-06
-8.65882e-07
-9.57787e-10
-2.18739e-08
-9.63654e-07
1.12839e-08
-2.24806e-08
-1.18667e-06
-2.20763e-08
-1.23641e-06
-2.28742e-08
-1.2726e-06
-2.66605e-08
-1.29076e-06
-2.98263e-08
-1.28929e-06
-2.7793e-08
-1.266e-06
-2.14267e-08
-1.21821e-06
-1.28195e-08
-1.14563e-06
-8.82003e-07
-9.98484e-10
-2.90241e-08
-9.6734e-07
1.35404e-08
-2.64476e-08
-1.18925e-06
-2.37551e-08
-1.23911e-06
-2.35865e-08
-1.27277e-06
-2.81175e-08
-1.28623e-06
-3.24492e-08
-1.28496e-06
-3.06614e-08
-1.26779e-06
-2.34735e-08
-1.2254e-06
-1.20045e-08
-1.1571e-06
-8.96358e-07
-3.81835e-10
-3.96118e-08
-9.63252e-07
2.15192e-08
-3.16896e-08
-1.19717e-06
-2.56652e-08
-1.24513e-06
-2.37266e-08
-1.27471e-06
-2.78854e-08
-1.28207e-06
-3.24397e-08
-1.28041e-06
-3.07023e-08
-1.26953e-06
-2.27853e-08
-1.23332e-06
-7.69107e-09
-1.1722e-06
-9.10994e-07
4.77624e-09
-4.12962e-08
-9.48716e-07
2.57765e-08
-2.84818e-08
-1.20998e-06
-2.07431e-08
-1.25287e-06
-1.83382e-08
-1.27711e-06
-2.25389e-08
-1.27787e-06
-2.74058e-08
-1.27554e-06
-2.62939e-08
-1.27064e-06
-1.86907e-08
-1.24092e-06
-1.17673e-09
-1.18971e-06
-9.30178e-07
1.56271e-08
-3.12173e-08
-9.57287e-07
2.95038e-08
-1.67172e-08
-1.22448e-06
-1.00038e-08
-1.25958e-06
-9.08844e-09
-1.27803e-06
-1.34461e-08
-1.27351e-06
-1.77281e-08
-1.27126e-06
-1.65665e-08
-1.2718e-06
-9.53809e-09
-1.24795e-06
3.97661e-09
-1.20323e-06
-9.48197e-07
1.69814e-08
-1.52461e-09
-9.66119e-07
6.04557e-09
-1.51011e-09
-1.22455e-06
4.6157e-10
-1.26156e-06
-1.23518e-09
-1.27633e-06
-5.90099e-09
-1.26885e-06
-9.28582e-09
-1.26788e-06
-7.02812e-09
-1.27406e-06
3.80095e-09
-1.25878e-06
1.87459e-08
-1.21817e-06
-9.63439e-07
2.78704e-08
2.0405e-09
-9.75616e-07
1.59959e-09
1.1745e-09
-1.22365e-06
5.26081e-09
-1.26564e-06
2.30198e-09
-1.27337e-06
-2.91628e-09
-1.26363e-06
-7.58233e-09
-1.26321e-06
-9.01613e-09
-1.27263e-06
-1.19852e-09
-1.2666e-06
3.15789e-09
-1.22262e-06
-9.7098e-07
5.93908e-09
1.00753e-08
-9.86855e-07
-5.81541e-12
6.99851e-09
-1.22057e-06
1.12853e-08
-1.26993e-06
5.22601e-09
-1.26731e-06
-1.49259e-09
-1.25691e-06
-7.95409e-09
-1.25675e-06
-1.35613e-08
-1.26702e-06
-7.96895e-09
-1.27219e-06
-8.88656e-09
-1.22171e-06
-9.78574e-07
-1.30947e-11
9.72688e-09
-9.97936e-07
3.26878e-36
1.21074e-08
-1.22295e-06
1.68974e-08
-1.27472e-06
7.60371e-09
-1.25802e-06
-8.92903e-10
-1.24841e-06
-9.30477e-09
-1.24834e-06
-1.85702e-08
-1.25775e-06
-1.38703e-08
-1.27689e-06
-9.92985e-09
-1.22567e-06
-9.88845e-07
-2.02756e-13
-4.59698e-09
-9.93861e-07
3.24948e-37
1.86649e-08
-1.24621e-06
2.19431e-08
-1.278e-06
9.39912e-09
-1.24548e-06
-5.52736e-10
-1.23846e-06
-1.04706e-08
-1.23842e-06
-2.29584e-08
-1.24527e-06
-2.05866e-08
-1.27926e-06
3.15166e-09