/*--------------------------------*- C++ -*----------------------------------*\
  =========                 |
  \\      /  F ield         | OpenFOAM: The Open Source CFD Toolbox
   \\    /   O peration     | Website:  https://openfoam.org
    \\  /    A nd           | Version:  8
     \\/     M anipulation  |
\*---------------------------------------------------------------------------*/
FoamFile
{
    version     2.0;
    format      ascii;
    class       volScalarField;
    location    "3.95";
    object      epsilon;
}
// * * * * * * * * * * * * * * * * * * * * * * * * * * * * * * * * * * * * * //

dimensions      [0 2 -3 0 0 0 0];

internalField   nonuniform List<scalar> 
9150
(
0.0313128
0.0124353
0.00309609
0.00093601
0.000440966
0.000440865
0.000935879
0.00309606
0.0124354
0.0313126
0.0302197
0.00874529
0.00172906
0.000600153
0.000331503
0.000331423
0.000600039
0.00172902
0.00874543
0.0302196
0.0284233
0.00694236
0.0011144
0.000491098
0.000296174
0.000296101
0.000490988
0.00111435
0.0069425
0.0284232
0.026491
0.00600202
0.000834295
0.000458272
0.000285253
0.000285182
0.000458161
0.000834227
0.00600217
0.0264909
0.0244886
0.00559756
0.000695133
0.000450998
0.000283428
0.000283357
0.000450887
0.000695054
0.00559769
0.0244885
0.123285
0.0519467
0.0223252
0.0135136
0.00958361
0.00958085
0.0135082
0.0223171
0.0519319
0.123281
0.0760608
0.0229316
0.0130188
0.00860526
0.00595293
0.00595132
0.00860235
0.0130156
0.0229298
0.0760606
0.0553092
0.0178233
0.00755777
0.00448995
0.00291776
0.002917
0.00448867
0.00755665
0.0178229
0.0553092
0.0424785
0.0151856
0.00475579
0.00226725
0.00132311
0.00132278
0.00226673
0.0047554
0.0151856
0.0424784
0.0356005
0.0136832
0.00350106
0.00128883
0.000669178
0.000669017
0.0012886
0.00350093
0.0136833
0.0356004
1.14448
0.160281
0.0473591
0.0205815
0.0122027
0.0122133
0.0206166
0.0473844
0.158343
1.06285
0.277051
0.11894
0.0454887
0.0203842
0.0122841
0.0122897
0.0204038
0.045554
0.119336
0.276684
0.234693
0.103475
0.0446923
0.0201689
0.0123661
0.0123671
0.020173
0.0447014
0.103586
0.234653
0.196523
0.0914362
0.044015
0.0199434
0.0124472
0.0124456
0.019941
0.0440107
0.0914417
0.196507
0.155825
0.0860735
0.0403659
0.0187683
0.0120826
0.0120796
0.0187623
0.0403551
0.0860495
0.155817
0.0150568
0.0150249
0.0149909
0.0149535
0.0149108
0.0148605
0.0147995
0.0147239
0.0146289
0.0145089
0.00696026
0.00699245
0.00702213
0.00704868
0.0070714
0.00708957
0.00710238
0.00710904
0.00710871
0.00710035
0.00567111
0.00570953
0.00574646
0.00578122
0.00581306
0.00584127
0.00586515
0.00588411
0.0058976
0.00590517
0.00541721
0.0054576
0.00549686
0.00553425
0.00556896
0.00560022
0.00562735
0.00564977
0.00566708
0.00567903
0.00552491
0.00556716
0.00560839
0.00564775
0.00568433
0.00571722
0.0057457
0.00576924
0.00578754
0.00580043
0.00583229
0.00587704
0.0059208
0.00596263
0.0060013
0.00603571
0.00606512
0.00608913
0.00610748
0.00612007
0.00628795
0.00633603
0.00638326
0.00642865
0.00647034
0.00650685
0.00653764
0.00656255
0.00658134
0.00659373
0.00687816
0.00693014
0.00698155
0.00703198
0.00707832
0.00711846
0.00715245
0.00718045
0.0072018
0.00721551
0.00760667
0.00766262
0.00771773
0.00777351
0.00782808
0.00787714
0.00792017
0.00795661
0.00798446
0.0080016
0.00848381
0.00854819
0.00861167
0.00867734
0.00874641
0.00881437
0.00887561
0.00892658
0.00896386
0.00898448
0.00953814
0.00962234
0.00970935
0.00979944
0.00989043
0.00998014
0.0100622
0.0101301
0.0101774
0.0101994
0.0108341
0.0109419
0.0110555
0.0111738
0.0112944
0.0114128
0.0115206
0.0116083
0.0116661
0.011686
0.0124046
0.01254
0.0126831
0.0128338
0.0129894
0.0131442
0.0132872
0.0134034
0.0134758
0.0134908
0.0142878
0.0144515
0.0146254
0.0148109
0.0150072
0.0152086
0.0154016
0.0155625
0.0156593
0.0156661
0.0165277
0.0167175
0.0169195
0.0171382
0.0173761
0.0176315
0.0178916
0.0181223
0.0182593
0.0182469
0.019172
0.0193841
0.019609
0.0198535
0.0201234
0.0204223
0.0207454
0.0210548
0.0212308
0.0211743
0.022254
0.0224801
0.0227173
0.0229723
0.0232478
0.0235403
0.0238386
0.0241145
0.0243025
0.0242791
0.0257672
0.0259796
0.0261949
0.0264196
0.0266492
0.0268623
0.0270334
0.0272332
0.0275805
0.0278002
0.0297218
0.0298842
0.0300274
0.0301693
0.0303116
0.0304725
0.0307179
0.0311405
0.0317262
0.0322278
0.0341776
0.0342989
0.0343799
0.03445
0.0345688
0.0348494
0.0353805
0.0361853
0.0371273
0.0380143
0.0392059
0.0393565
0.039486
0.0396673
0.0400007
0.0405665
0.0414564
0.042706
0.0441363
0.0455397
0.0450369
0.0453656
0.045726
0.0462021
0.046869
0.0478091
0.0491719
0.0509674
0.0530387
0.0551795
0.0518344
0.0524831
0.0531987
0.05408
0.0552383
0.0567908
0.058846
0.0614167
0.0644049
0.0676136
0.0596962
0.0608254
0.0620893
0.0636021
0.0654891
0.0678787
0.070879
0.074532
0.0787968
0.0835317
0.0686812
0.0705091
0.0726308
0.0750912
0.0779611
0.0813971
0.0855962
0.090698
0.0967363
0.10355
0.0787807
0.0818375
0.085405
0.0892403
0.0932577
0.0977613
0.103236
0.110036
0.118242
0.127551
0.0906821
0.0960131
0.101845
0.107304
0.111973
0.116812
0.122952
0.131117
0.141416
0.153186
0.105343
0.113601
0.12225
0.128874
0.132711
0.136512
0.142268
0.150773
0.161755
0.174335
0.122216
0.132831
0.142129
0.147492
0.150807
0.15388
0.159003
0.166905
0.177503
0.190346
0.139001
0.148836
0.154246
0.158406
0.162898
0.166403
0.17164
0.179311
0.18961
0.202406
0.153363
0.159245
0.161165
0.164278
0.168995
0.173956
0.180451
0.188843
0.199233
0.211628
0.162287
0.164661
0.16511
0.167618
0.172697
0.179355
0.187308
0.196361
0.206616
0.218242
0.169738
0.169987
0.169169
0.171065
0.17636
0.183921
0.19241
0.201326
0.211067
0.221776
0.177054
0.176218
0.174223
0.175267
0.180056
0.187268
0.195102
0.203176
0.212195
0.222064
0.185591
0.183408
0.18062
0.180439
0.18354
0.188865
0.19543
0.202928
0.211465
0.220704
0.198512
0.194365
0.189977
0.187815
0.18863
0.19186
0.197067
0.203906
0.212076
0.221133
0.216898
0.20964
0.202288
0.198055
0.197492
0.199617
0.203758
0.209846
0.217612
0.226482
0.23874
0.226028
0.215527
0.210076
0.208973
0.210789
0.214562
0.220244
0.227625
0.23608
0.256747
0.239478
0.228168
0.222103
0.220325
0.221853
0.225589
0.230911
0.23768
0.245776
0.26843
0.250877
0.239238
0.232598
0.230081
0.230935
0.234282
0.239421
0.246117
0.254393
0.276704
0.260228
0.248751
0.241765
0.238664
0.238857
0.241738
0.246811
0.253814
0.262689
0.284046
0.268498
0.257416
0.250391
0.247003
0.246832
0.24948
0.254619
0.262041
0.271651
0.290076
0.275792
0.265527
0.258913
0.255671
0.255548
0.258304
0.263735
0.271695
0.282098
0.29485
0.282395
0.27336
0.267594
0.264926
0.265238
0.268435
0.274423
0.283093
0.294353
0.297415
0.288663
0.281286
0.276707
0.274882
0.275869
0.279743
0.28651
0.296057
0.308235
0.295874
0.293978
0.290111
0.287026
0.286014
0.287694
0.292372
0.30003
0.310494
0.323549
0.292724
0.296473
0.297941
0.297822
0.298231
0.301196
0.307099
0.315854
0.327311
0.341265
0.293763
0.299024
0.303398
0.30743
0.311751
0.317599
0.325659
0.336195
0.349262
0.364769
0.302297
0.308728
0.315048
0.322066
0.329843
0.338839
0.349763
0.363068
0.378931
0.397365
0.320312
0.327938
0.335623
0.344964
0.355606
0.36758
0.381771
0.398826
0.418911
0.442005
0.349237
0.358555
0.366335
0.377597
0.391343
0.406685
0.424622
0.446555
0.472522
0.500592
0.390854
0.399412
0.408351
0.422247
0.440015
0.45826
0.477224
0.49884
0.521294
0.540134
0.436645
0.462284
0.468017
0.477601
0.491892
0.507693
0.522378
0.534449
0.542984
0.548716
0.46632
0.513496
0.542637
0.56044
0.572845
0.58152
0.587506
0.591479
0.594607
0.598951
0.507448
0.55108
0.592907
0.627703
0.653433
0.672105
0.686627
0.700218
0.714999
0.731232
0.632142
0.680775
0.729104
0.775963
0.82054
0.862456
0.901589
0.938002
0.97208
1.00415
0.915198
0.988831
1.06121
1.13478
1.20952
1.28343
1.3527
1.41378
1.46574
1.5088
1.46862
1.60616
1.74171
1.87659
2.00699
2.1241
2.21892
2.28846
2.33379
2.35451
2.36342
2.59876
2.83302
3.05613
3.23139
3.34086
3.40397
3.43147
3.42227
3.37793
3.54459
3.83639
4.05682
4.18469
4.24657
4.25173
4.2105
4.13968
4.05597
3.95642
4.62236
4.72884
4.75604
4.72593
4.66305
4.57826
4.47838
4.3672
4.24479
4.11062
5.22975
5.19437
5.12265
5.02431
4.90613
4.77655
4.63996
4.49523
4.33994
4.17571
5.6816
5.56292
5.4116
5.2397
5.05763
4.87365
4.69107
4.50837
4.32314
4.135
6.02051
5.79334
5.54518
5.29213
5.04561
4.81215
4.59332
4.3866
4.18752
3.99161
6.20477
5.85979
5.5085
5.17779
4.87854
4.61457
4.38394
4.18031
3.99455
3.81668
6.27858
5.81417
5.36327
4.96146
4.62537
4.35425
4.14066
3.97221
3.83306
3.70564
6.3161
5.72486
5.18869
4.7274
4.37182
4.11725
3.9489
3.84629
3.78474
3.73838
6.40556
5.67708
5.05299
4.55126
4.18483
3.96143
3.85727
3.841
3.87516
3.92907
6.62192
5.73392
5.00858
4.45758
4.08477
3.89367
3.86078
3.94152
4.08364
4.24517
7.00372
5.92077
5.06779
4.44557
4.05328
3.88646
3.92383
4.10837
4.37556
4.66659
7.54644
6.23138
5.2194
4.49824
4.06309
3.90835
4.01073
4.30439
4.71385
5.16431
8.2141
6.64089
5.44337
4.59655
4.09503
3.93635
4.09794
4.50617
5.0745
5.71348
8.96174
7.11938
5.71908
4.7247
4.13542
3.95684
4.17048
4.69765
5.44078
6.29368
9.74874
7.64011
6.02884
4.87072
4.17569
3.96265
4.21832
4.8634
5.79032
6.87839
10.5355
8.1818
6.35863
5.02518
4.21076
3.95196
4.24013
4.99611
6.1041
7.43383
11.3088
8.73723
6.69989
5.17997
4.23598
3.92444
4.23792
5.0906
6.35719
7.89747
12.0986
9.31398
7.04771
5.32679
4.24545
3.87904
4.21511
5.14721
6.53723
8.2324
12.9555
9.9223
7.39488
5.45511
4.2318
3.8147
4.17814
5.17971
6.6587
8.45394
13.9319
10.567
7.72909
5.5517
4.1868
3.73135
4.138
5.21447
6.76089
8.60944
15.0507
11.2338
8.02926
5.60104
4.10223
3.6289
4.10611
5.27851
6.89368
8.76414
16.2466
11.862
8.2629
5.58906
3.97199
3.50637
4.08923
5.39092
7.09763
8.99483
17.5023
12.4196
8.41723
5.51387
3.79489
3.36127
4.08709
5.55961
7.40114
9.36815
18.7126
12.9031
8.50645
5.38721
3.57388
3.18928
4.09292
5.78076
7.81399
9.91962
19.8272
13.317
8.55327
5.22441
3.31211
2.98575
4.09901
6.04807
8.34059
10.6862
20.8508
13.6931
8.57465
5.03081
3.00983
2.7479
4.10015
6.35981
8.98879
11.674
21.7768
14.0212
8.55711
4.7977
2.66643
2.47512
4.08814
6.7086
9.76248
12.892
22.608
14.296
8.48636
4.51659
2.28624
2.17029
4.05214
7.08822
10.6868
14.4105
23.4473
14.5383
8.35501
4.18226
1.88068
1.83844
3.97081
7.47767
11.7813
16.319
24.2982
14.7324
8.13821
3.78518
1.46791
1.48887
3.81264
7.83333
13.0486
18.7395
25.122
14.824
7.79221
3.31489
1.0726
1.13657
3.54111
8.0842
14.4606
21.8236
25.9852
14.7714
7.27985
2.77431
0.723246
0.801479
3.12333
8.12311
15.9223
25.7276
26.9007
14.5001
6.5709
2.18657
0.444493
0.508057
2.55093
7.80901
17.2107
30.5476
27.7734
13.8857
5.6484
1.59447
0.247663
0.281576
1.87008
7.00665
17.9075
35.9573
28.1941
12.6894
4.50586
1.04951
0.126284
0.135898
1.18985
5.66659
17.4054
40.5893
27.1191
10.6297
3.20954
0.609081
0.0617386
0.061959
0.648936
3.96401
15.0786
42.3017
23.0054
7.685
1.96414
0.313957
0.0322183
0.0313747
0.315738
2.31269
10.7643
36.7994
14.8674
4.47916
1.02718
0.149587
0.019713
0.0191865
0.142879
1.11027
5.77323
22.3584
7.12811
2.15349
0.480907
0.0708126
0.0146853
0.014494
0.0664121
0.480618
2.4995
9.81352
2.6867
0.949959
0.214523
0.0366506
0.0128253
0.0127834
0.0350225
0.205018
1.00129
3.30112
0.929383
0.422825
0.093091
0.0236606
0.0122611
0.0122666
0.0234173
0.0893583
0.419935
0.981241
0.0143426
0.0141316
0.0138702
0.0135528
0.0131762
0.0127397
0.0122467
0.0117052
0.0111289
0.0105375
0.00995677
0.00941653
0.00894708
0.00857214
0.00830061
0.00812103
0.0080026
0.00790435
0.00778994
0.0076298
0.00740456
0.00711167
0.00676737
0.00640314
0.00605427
0.0057409
0.00545264
0.00515249
0.00479832
0.00436617
0.0038831
0.00375352
0.0037415
0.000884994
0.000884043
0.000878319
0.000821553
0.000730448
0.000604074
0.00120881
0.00708135
0.00705014
0.0070059
0.00694732
0.00687318
0.00678241
0.00667424
0.00654839
0.00640535
0.00624713
0.00607776
0.00590312
0.00573012
0.00556524
0.00541266
0.00527292
0.00514326
0.00501959
0.00489671
0.00477083
0.00463947
0.00449979
0.00434803
0.00418016
0.00399373
0.00379069
0.0035767
0.00335749
0.00313662
0.00291377
0.00268073
0.00240369
0.00211778
0.0018205
0.00154605
0.00129721
0.00114653
0.00106361
0.0011
0.00168777
0.00590652
0.00590003
0.00588547
0.00586282
0.00583216
0.00579365
0.00574754
0.00569412
0.00563361
0.00556632
0.00549284
0.0054138
0.00532957
0.00524004
0.00514447
0.00504174
0.00493107
0.00481307
0.00469005
0.00456505
0.00444101
0.00431946
0.00419885
0.00407299
0.00393144
0.00376646
0.00357957
0.00337815
0.00316994
0.00296001
0.00274845
0.0025278
0.00229067
0.00206325
0.00186398
0.00169265
0.00156328
0.00149797
0.00160354
0.00250836
0.00568591
0.00568634
0.00568034
0.00566842
0.0056513
0.00562984
0.00560497
0.00557756
0.00554833
0.00551748
0.00548453
0.00544806
0.00540563
0.00535388
0.00528917
0.00520855
0.00511088
0.00499766
0.00487308
0.0047433
0.00461532
0.00449556
0.00438724
0.00428595
0.00417416
0.00403039
0.00385456
0.00365781
0.00345029
0.00323782
0.00302277
0.00280399
0.00258119
0.00237793
0.00221157
0.00207945
0.00198522
0.0019547
0.00212794
0.00336174
0.00580839
0.00581019
0.00580601
0.00579671
0.0057835
0.00576786
0.00575147
0.00573597
0.00572269
0.00571212
0.00570334
0.00569361
0.0056782
0.00565105
0.00560616
0.00553922
0.00544878
0.00533663
0.00520768
0.00506929
0.00493036
0.00480042
0.0046878
0.00459332
0.00449911
0.00437793
0.00421715
0.0040304
0.00382954
0.00361927
0.0034015
0.00317941
0.0029621
0.00276357
0.00259832
0.00247569
0.00240496
0.00241147
0.00264883
0.00411657
0.00612732
0.00612788
0.00612202
0.00611082
0.00609596
0.00607963
0.00606446
0.00605314
0.006048
0.00605031
0.00605925
0.00607082
0.00607739
0.00606907
0.00603708
0.00597652
0.00588675
0.0057708
0.00563453
0.00548564
0.00533304
0.00518621
0.00505365
0.00493761
0.0048366
0.00474694
0.00462609
0.00446556
0.00428054
0.00408023
0.00386602
0.00364131
0.00341966
0.00321512
0.00304278
0.00291503
0.00285119
0.00289102
0.00322114
0.00494284
0.00659983
0.00659777
0.00658774
0.00657097
0.00654965
0.00652678
0.00650611
0.0064918
0.00648783
0.00649705
0.0065196
0.00655061
0.00657795
0.0065845
0.00655773
0.00649406
0.00639615
0.00626982
0.00612239
0.00596199
0.00579714
0.00563652
0.00548875
0.00536005
0.0052572
0.00517676
0.005085
0.00495236
0.00478618
0.00460155
0.00439995
0.00418182
0.0039625
0.00375912
0.00358385
0.00345491
0.00340702
0.00350153
0.00396961
0.00604242
0.00722098
0.00721534
0.00719858
0.00717222
0.00713904
0.00710305
0.00706933
0.00704366
0.00703206
0.00703988
0.0070699
0.00711829
0.00716767
0.00718549
0.00715524
0.00707917
0.00696662
0.00682671
0.00666801
0.00649892
0.00632752
0.0061616
0.00600895
0.00587706
0.0057724
0.00568904
0.00560832
0.00550082
0.00535578
0.00518633
0.00499982
0.00480287
0.0046043
0.00441708
0.00425375
0.00413819
0.00411184
0.00426314
0.00487737
0.00728444
0.00800666
0.00799534
0.0079678
0.00792623
0.00787446
0.0078178
0.00776273
0.0077165
0.00768667
0.00768064
0.00770443
0.00775832
0.00782415
0.00785491
0.00782183
0.00773452
0.00761048
0.0074606
0.00729392
0.00711915
0.00694453
0.00677758
0.00662501
0.00649308
0.00638739
0.00630319
0.00622915
0.00614799
0.0060296
0.00587606
0.00570877
0.00554224
0.00537577
0.00521517
0.00507593
0.00498338
0.00498118
0.0051788
0.0058826
0.00850315
0.00898642
0.00896378
0.00891775
0.00885202
0.00877227
0.00868571
0.0086006
0.00852553
0.00846864
0.00843699
0.00843533
0.00846366
0.00851859
0.0085834
0.0085822
0.00850528
0.00838061
0.00822475
0.00804941
0.00786518
0.00768187
0.00750832
0.0073521
0.00721956
0.00711572
0.00703857
0.00697647
0.00691456
0.00682881
0.00671553
0.00658798
0.00645611
0.0063205
0.00619188
0.00609108
0.00604275
0.00610683
0.00643212
0.00737224
0.00880111
0.0101926
0.0101492
0.0100727
0.00996938
0.00984826
0.00971947
0.0095938
0.00948167
0.00939209
0.00933172
0.00930342
0.00930736
0.00936078
0.00946314
0.00951312
0.00946388
0.00934446
0.00917996
0.00898776
0.00878269
0.00857762
0.00838392
0.00821179
0.00807001
0.0079655
0.00790009
0.00786482
0.00784463
0.00781626
0.00775998
0.00768264
0.00759409
0.00749493
0.00739985
0.00733086
0.00733017
0.00748353
0.00801359
0.00947107
0.00884283
0.0116623
0.0115848
0.0114615
0.0113037
0.0111251
0.01094
0.0107625
0.0106059
0.0104811
0.0103969
0.0103592
0.0103778
0.010469
0.0106134
0.0107076
0.0106807
0.010558
0.0103719
0.0101477
0.00990575
0.00966168
0.0094293
0.00922292
0.00905719
0.00894566
0.00889783
0.00891188
0.00896477
0.00901337
0.0090291
0.00901067
0.00896018
0.00888697
0.00881145
0.00876568
0.00880875
0.0090603
0.00981153
0.0119538
0.00884959
0.0134398
0.0133114
0.0131229
0.0128934
0.0126432
0.0123916
0.0121566
0.0119549
0.0118011
0.0117086
0.0116909
0.011763
0.0119225
0.0121237
0.0122438
0.0122076
0.0120533
0.0118221
0.0115482
0.0112557
0.010959
0.0106704
0.0104083
0.0101969
0.0100612
0.0100222
0.0100892
0.0102363
0.0103874
0.0104807
0.010506
0.0104646
0.0103872
0.0103083
0.0102739
0.0103609
0.0107187
0.0116669
0.0142449
0.00882021
0.0155721
0.0153709
0.0150982
0.0147845
0.0144564
0.0141374
0.013849
0.0136116
0.0134432
0.0133624
0.0133886
0.0135369
0.0137842
0.0140424
0.0141547
0.0140599
0.0138278
0.0135194
0.0131798
0.0128329
0.0124825
0.0121285
0.0117919
0.0115123
0.0113285
0.0112646
0.0113381
0.0115602
0.0118287
0.011983
0.0119959
0.0118827
0.0117135
0.0115537
0.0114888
0.0116297
0.0121204
0.0132623
0.0160672
0.0378249
0.0180821
0.017783
0.0174157
0.017019
0.0166216
0.0162473
0.0159194
0.0156604
0.0154909
0.0154319
0.0155077
0.0157444
0.016102
0.0163803
0.0163979
0.016186
0.015839
0.0154336
0.0150243
0.0146354
0.0142462
0.0138279
0.0134074
0.0130513
0.0128081
0.012694
0.0127367
0.0129695
0.0132763
0.0134246
0.013302
0.0129943
0.0126425
0.0123297
0.012148
0.012255
0.0128626
0.014064
0.016687
0.0378541
0.0209184
0.0205336
0.0201023
0.0196575
0.0192215
0.0188159
0.0184674
0.0182046
0.0180499
0.0180191
0.018123
0.0183951
0.0188363
0.0191197
0.0189949
0.0186468
0.0181898
0.017693
0.0172136
0.0167824
0.0163549
0.0158698
0.015371
0.0149506
0.0146527
0.0144962
0.0144914
0.0146246
0.0148
0.0147779
0.0144358
0.0139298
0.0134109
0.0129522
0.0126431
0.0126493
0.0132171
0.0142567
0.0159224
0.00891072
0.0240279
0.023674
0.0232783
0.0228603
0.0224369
0.0220315
0.0216795
0.0214244
0.0212967
0.0213088
0.0214773
0.0218497
0.0223466
0.0225444
0.022305
0.0218512
0.0212986
0.0207114
0.0201394
0.0196164
0.0191119
0.0185484
0.0179651
0.0174679
0.017119
0.0169145
0.0167742
0.0166656
0.0165408
0.0162086
0.0156481
0.0149864
0.0143238
0.0137358
0.0133132
0.0132006
0.0136028
0.0144964
0.0155764
0.00892181
0.0277628
0.027586
0.0273213
0.0269948
0.0266303
0.0262608
0.0259353
0.0257195
0.0256636
0.0258051
0.0261692
0.0267092
0.0271953
0.0272978
0.0270059
0.0264773
0.025822
0.025116
0.0244057
0.0237199
0.023042
0.0223273
0.0215994
0.02095
0.0204516
0.0200545
0.0196369
0.0191898
0.0186992
0.0180516
0.0172528
0.0163862
0.01553
0.01476
0.0141627
0.013851
0.0139679
0.0146041
0.0160884
0.037706
0.0325394
0.032666
0.0326309
0.0324779
0.0322521
0.0320077
0.0318183
0.0317802
0.0319689
0.0323992
0.033042
0.033765
0.0342768
0.0343857
0.0340884
0.0334931
0.0327154
0.0318458
0.0309286
0.0299881
0.0290307
0.0280355
0.027012
0.0260181
0.0250869
0.0241815
0.0233047
0.0224574
0.021577
0.0205943
0.0195243
0.0184117
0.0173258
0.0163376
0.0155244
0.0149751
0.014797
0.01513
0.0161132
0.00884581
0.0387587
0.0392995
0.0396297
0.0398077
0.0399023
0.0399939
0.0401807
0.0405703
0.0412183
0.0420899
0.0431311
0.0441704
0.0449
0.0451711
0.0449707
0.0443755
0.043494
0.0424156
0.0411791
0.0398347
0.0384302
0.0369469
0.0353784
0.0337576
0.0321136
0.0304643
0.0288607
0.027332
0.025862
0.0244234
0.022983
0.0215605
0.0202026
0.0189653
0.0179095
0.017102
0.0166283
0.01666
0.0177656
0.00877154
0.0468529
0.0480056
0.0489519
0.049762
0.0505216
0.0513244
0.0522637
0.0534105
0.0547898
0.0563756
0.0580726
0.0596611
0.0608945
0.0616024
0.0617106
0.0612336
0.060221
0.0587544
0.0569504
0.0549511
0.0528501
0.0506128
0.0481953
0.0456013
0.0428652
0.0400756
0.0373613
0.0348298
0.0325267
0.0304141
0.028429
0.0265636
0.0248378
0.0232811
0.0219223
0.0207923
0.0199418
0.019512
0.0199778
0.00881614
0.0573396
0.0594621
0.0614515
0.0633773
0.0653227
0.0673717
0.0695937
0.0720226
0.0746501
0.0774064
0.0801446
0.0826891
0.0848258
0.0862803
0.0868683
0.0865222
0.0851811
0.0829425
0.0801166
0.0770906
0.074011
0.0708241
0.0673558
0.063465
0.0591269
0.0545687
0.0501755
0.0462461
0.0428737
0.0399086
0.0372231
0.0347521
0.032506
0.0304994
0.0287133
0.0271276
0.0257623
0.0247386
0.0244202
0.00883821
0.071005
0.0745822
0.0781873
0.0818635
0.0856623
0.0896236
0.093785
0.0981602
0.102676
0.10714
0.111366
0.115291
0.118665
0.120983
0.121989
0.121526
0.11937
0.115758
0.111473
0.107264
0.10336
0.0996619
0.0956384
0.0906737
0.084227
0.0768961
0.0699769
0.0642974
0.0598498
0.0561433
0.0527023
0.0493271
0.0461767
0.0433604
0.0407522
0.0382252
0.0358103
0.0337574
0.0330285
0.042542
0.0887176
0.0943399
0.100124
0.106105
0.112308
0.118696
0.125213
0.131887
0.138621
0.14502
0.150901
0.156295
0.160769
0.163571
0.164363
0.162993
0.15935
0.154375
0.149293
0.144845
0.141695
0.139945
0.137808
0.132855
0.123986
0.112905
0.102917
0.0956966
0.0910187
0.087105
0.0826701
0.0772635
0.0719019
0.0671745
0.0625463
0.0575824
0.0524203
0.047753
0.0455219
0.0594342
0.11111
0.119242
0.127446
0.135849
0.144471
0.15318
0.161818
0.17048
0.17909
0.186927
0.193616
0.199212
0.203307
0.205192
0.204634
0.201895
0.197929
0.193945
0.190626
0.18858
0.189991
0.195175
0.198904
0.195338
0.185205
0.172988
0.1626
0.155551
0.151139
0.145355
0.137556
0.127186
0.116923
0.108142
0.0992508
0.08943
0.0789643
0.0690625
0.0633835
0.0876874
0.137639
0.148006
0.158155
0.168413
0.178785
0.189147
0.199247
0.209042
0.218295
0.226102
0.231923
0.235781
0.237661
0.237415
0.235373
0.232529
0.230007
0.229059
0.2303
0.234618
0.244582
0.259593
0.267812
0.262886
0.256247
0.255961
0.258466
0.25549
0.245186
0.230527
0.214783
0.198745
0.183414
0.168039
0.151932
0.135104
0.117516
0.100124
0.0883034
0.125897
0.165195
0.176627
0.187633
0.19894
0.210266
0.221286
0.231845
0.241758
0.250432
0.25676
0.260381
0.261677
0.260986
0.258833
0.256213
0.254324
0.254338
0.257466
0.26377
0.273145
0.287167
0.302627
0.309604
0.307995
0.306966
0.311945
0.320542
0.326208
0.322538
0.312006
0.29673
0.279734
0.262161
0.241797
0.219089
0.19431
0.167971
0.141914
0.122592
0.167447
0.188026
0.201314
0.213038
0.224587
0.23602
0.246928
0.256965
0.265737
0.27261
0.276825
0.278187
0.277149
0.274541
0.271639
0.269878
0.270131
0.272514
0.27788
0.287279
0.300381
0.314369
0.323022
0.32549
0.326721
0.330086
0.336303
0.343945
0.351796
0.358611
0.361692
0.356891
0.344954
0.328973
0.310458
0.289363
0.263368
0.232253
0.19838
0.169195
0.195495
0.205135
0.220013
0.232581
0.244037
0.254858
0.264794
0.273489
0.280518
0.285423
0.287835
0.287762
0.285814
0.283148
0.281294
0.281642
0.284804
0.291017
0.300452
0.312368
0.323997
0.332043
0.336844
0.340287
0.344027
0.349245
0.356153
0.364186
0.372775
0.381125
0.387743
0.390226
0.389172
0.38507
0.377088
0.362902
0.341338
0.312382
0.276958
0.241768
0.263877
0.217371
0.232794
0.245707
0.256721
0.266523
0.275096
0.282211
0.287583
0.291035
0.292566
0.292478
0.291504
0.29077
0.291654
0.295342
0.302249
0.312022
0.323346
0.333593
0.341333
0.347166
0.35208
0.35692
0.362399
0.369074
0.377036
0.38599
0.395456
0.404742
0.41305
0.420223
0.427654
0.4346
0.437825
0.433963
0.422867
0.405255
0.379181
0.345125
0.371711
0.225951
0.240859
0.253368
0.263683
0.272493
0.279897
0.285807
0.290141
0.292949
0.294487
0.295282
0.296112
0.297904
0.301598
0.307857
0.316534
0.326533
0.336384
0.345127
0.352554
0.359119
0.365382
0.371924
0.37925
0.387665
0.397241
0.40786
0.419274
0.431151
0.443212
0.455528
0.468411
0.481108
0.491547
0.497756
0.499316
0.496318
0.486929
0.469282
0.495845
0.23141
0.245156
0.256924
0.266758
0.275172
0.282199
0.287807
0.292033
0.295052
0.297262
0.299264
0.301778
0.3055
0.31095
0.318269
0.327014
0.33626
0.345219
0.353691
0.361748
0.369573
0.377503
0.385919
0.395167
0.405499
0.417059
0.429904
0.44401
0.459275
0.475524
0.492556
0.510085
0.527433
0.543487
0.557223
0.568329
0.57729
0.585447
0.596315
0.630162
0.233686
0.24627
0.257685
0.267806
0.276799
0.284526
0.290886
0.295904
0.299816
0.303094
0.306348
0.310212
0.315198
0.321577
0.329303
0.337911
0.34685
0.355749
0.36457
0.373417
0.382436
0.391841
0.401899
0.412885
0.425056
0.438645
0.453853
0.470829
0.489614
0.510071
0.531847
0.554346
0.576729
0.598058
0.617722
0.636051
0.655062
0.680137
0.725763
0.80243
0.232907
0.244944
0.25683
0.268221
0.278817
0.288251
0.296262
0.302781
0.308034
0.31252
0.316873
0.321686
0.32739
0.334182
0.342018
0.350568
0.359558
0.368813
0.378318
0.388161
0.398468
0.409397
0.421142
0.433934
0.448035
0.463751
0.481423
0.501376
0.523815
0.54868
0.575516
0.60343
0.631196
0.657578
0.681966
0.7053
0.731477
0.77109
0.856861
1.02972
0.231098
0.243387
0.256304
0.269461
0.282284
0.294151
0.304538
0.313163
0.320118
0.325877
0.331123
0.336499
0.342469
0.349281
0.356879
0.365178
0.374104
0.383636
0.393811
0.404714
0.416451
0.429144
0.442936
0.457998
0.474553
0.492912
0.513506
0.536838
0.563329
0.593072
0.625544
0.65945
0.692869
0.723851
0.751502
0.777484
0.808124
0.860039
0.987013
1.32628
0.231529
0.244041
0.257895
0.272753
0.287966
0.302717
0.316165
0.327601
0.336727
0.343845
0.349715
0.355153
0.360762
0.36693
0.373697
0.381185
0.389512
0.398816
0.409233
0.420898
0.433938
0.448482
0.464663
0.482615
0.502476
0.524421
0.548815
0.576315
0.607669
0.643272
0.682533
0.723568
0.763331
0.798443
0.827286
0.852594
0.884087
0.945508
1.11321
1.69042
0.236437
0.248443
0.262516
0.278504
0.295852
0.313754
0.331133
0.346611
0.35886
0.367572
0.373654
0.378398
0.38272
0.387229
0.392167
0.397903
0.40475
0.412974
0.422816
0.434493
0.4482
0.464128
0.482476
0.503421
0.527021
0.553132
0.581969
0.614565
0.652307
0.695803
0.74401
0.794202
0.842031
0.881667
0.909402
0.929497
0.956782
1.02368
1.23069
2.09956
0.245513
0.256821
0.270547
0.286928
0.305726
0.326543
0.348638
0.370228
0.387589
0.398386
0.404082
0.407098
0.40893
0.410377
0.412185
0.415004
0.41933
0.425528
0.433873
0.444593
0.457924
0.474135
0.493524
0.51637
0.542823
0.572832
0.606556
0.644926
0.689037
0.740448
0.80107
0.868061
0.930948
0.976993
1.0002
1.00886
1.02633
1.0937
1.33512
2.52627
0.25547
0.267299
0.28137
0.298193
0.318052
0.341193
0.367804
0.397351
0.423586
0.437344
0.441983
0.442222
0.440043
0.436832
0.434064
0.432826
0.433755
0.437206
0.443383
0.452443
0.464576
0.480053
0.499236
0.522554
0.550672
0.584311
0.622771
0.663634
0.708606
0.764007
0.834907
0.923482
1.02114
1.09384
1.10987
1.09605
1.09739
1.16012
1.42625
2.94079
0.264806
0.277869
0.293226
0.311405
0.333048
0.358884
0.38961
0.425031
0.465549
0.487186
0.489612
0.485217
0.476817
0.466804
0.457939
0.451802
0.448927
0.449434
0.453331
0.460644
0.471482
0.486099
0.504922
0.528588
0.558026
0.594138
0.635082
0.678734
0.728855
0.787629
0.859419
0.953196
1.07462
1.20262
1.23972
1.19568
1.17533
1.22913
1.50924
3.31618
0.274032
0.288475
0.305579
0.325865
0.350088
0.379078
0.413666
0.454446
0.501356
0.53413
0.541757
0.532889
0.514354
0.495577
0.480588
0.470151
0.464151
0.462346
0.464528
0.4706
0.48063
0.494894
0.513911
0.538402
0.569229
0.606588
0.650062
0.703214
0.763352
0.825932
0.894947
0.984307
1.11352
1.27608
1.35219
1.29806
1.25673
1.30151
1.59356
3.63767
0.284092
0.300087
0.319158
0.341802
0.36872
0.400645
0.438304
0.482083
0.526669
0.560725
0.576494
0.56709
0.540104
0.515491
0.497091
0.484491
0.477
0.474159
0.475657
0.481345
0.491278
0.50577
0.525426
0.550963
0.582768
0.619504
0.665112
0.720036
0.779805
0.843497
0.916391
1.00874
1.13988
1.32331
1.43385
1.3818
1.32462
1.36297
1.66728
3.85543
0.295662
0.313178
0.334104
0.358882
0.388119
0.42256
0.462762
0.507385
0.551042
0.584787
0.596993
0.579934
0.549903
0.524251
0.505383
0.492663
0.485312
0.482806
0.484786
0.491047
0.501589
0.516682
0.536787
0.562197
0.592472
0.628137
0.670207
0.716393
0.768633
0.830274
0.906273
1.00454
1.13669
1.31262
1.44424
1.41146
1.35961
1.40079
1.71259
3.94257
0.308966
0.327718
0.349996
0.376218
0.407021
0.443373
0.48447
0.527599
0.567281
0.592812
0.592026
0.570041
0.542969
0.520282
0.503809
0.493186
0.487809
0.487194
0.490958
0.498842
0.510753
0.526809
0.547191
0.572296
0.601529
0.634019
0.670888
0.712986
0.761791
0.819724
0.890569
0.979876
1.09591
1.25045
1.38703
1.38437
1.35944
1.41708
1.73826
3.95639
0.323788
0.343356
0.366154
0.392557
0.423427
0.459207
0.49596
0.529703
0.555814
0.567349
0.56016
0.541646
0.521676
0.505284
0.493938
0.487647
0.486069
0.488812
0.495524
0.505933
0.519889
0.537365
0.558375
0.582968
0.611159
0.642539
0.677537
0.717045
0.762287
0.815087
0.878054
0.954606
1.04917
1.16603
1.29436
1.34952
1.35299
1.42966
1.76335
3.98453
0.339899
0.359924
0.382456
0.407609
0.436102
0.467046
0.496291
0.519455
0.533033
0.533577
0.523488
0.509396
0.496595
0.487281
0.482144
0.481228
0.48431
0.49109
0.501273
0.51461
0.530928
0.550119
0.572127
0.596964
0.624692
0.655369
0.689255
0.726892
0.76914
0.817282
0.873083
0.938788
1.01723
1.11237
1.23193
1.32184
1.35426
1.45013
1.80122
4.06636
0.358454
0.379109
0.401821
0.426342
0.452632
0.478351
0.49728
0.506657
0.507605
0.501356
0.491806
0.48298
0.476738
0.47383
0.474491
0.478684
0.486231
0.496896
0.510432
0.526615
0.545263
0.566244
0.589486
0.614993
0.642847
0.673204
0.706321
0.742614
0.782663
0.827335
0.877852
0.935924
1.00412
1.08715
1.19478
1.29921
1.3598
1.47689
1.85027
4.1604
0.383626
0.406095
0.430631
0.456714
0.482998
0.501344
0.502573
0.496007
0.487372
0.47868
0.471707
0.467548
0.466532
0.468754
0.474172
0.482656
0.494022
0.508057
0.524544
0.543277
0.56408
0.586822
0.611433
0.637918
0.666353
0.696902
0.729826
0.765471
0.804277
0.846881
0.894216
0.947713
1.00977
1.08485
1.18106
1.28943
1.37456
1.5119
1.90763
4.25873
0.419574
0.445922
0.474882
0.506192
0.528699
0.518705
0.501091
0.486634
0.47561
0.468104
0.46428
0.464036
0.467154
0.473427
0.482654
0.494631
0.509155
0.526015
0.545009
0.56595
0.58868
0.613087
0.639115
0.666774
0.696138
0.72737
0.760729
0.796541
0.83518
0.877151
0.923211
0.974577
1.03336
1.10365
1.1929
1.30117
1.4034
1.55911
1.97687
4.38013
0.469581
0.501522
0.533264
0.552129
0.537364
0.513057
0.494491
0.481377
0.472976
0.468883
0.468801
0.472329
0.47911
0.488844
0.501274
0.516167
0.533309
0.5525
0.573556
0.59632
0.620671
0.64653
0.673872