/*--------------------------------*- C++ -*----------------------------------*\
  =========                 |
  \\      /  F ield         | OpenFOAM: The Open Source CFD Toolbox
   \\    /   O peration     | Website:  https://openfoam.org
    \\  /    A nd           | Version:  8
     \\/     M anipulation  |
\*---------------------------------------------------------------------------*/
FoamFile
{
    version     2.0;
    format      ascii;
    class       volScalarField;
    location    "3.95";
    object      nut;
}
// * * * * * * * * * * * * * * * * * * * * * * * * * * * * * * * * * * * * * //

dimensions      [0 2 -1 0 0 0 0];

internalField   nonuniform List<scalar> 
9150
(
9.6003e-06
6.40613e-06
6.56514e-06
8.72308e-06
7.52743e-06
7.52554e-06
8.72066e-06
6.56432e-06
6.40618e-06
9.60028e-06
9.48728e-06
5.73935e-06
8.26631e-06
9.86542e-06
7.00372e-06
7.002e-06
9.86288e-06
8.26508e-06
5.73939e-06
9.48726e-06
9.29544e-06
5.5021e-06
1.07886e-05
1.02413e-05
6.65759e-06
6.65596e-06
1.02388e-05
1.0787e-05
5.50214e-06
9.29543e-06
9.07983e-06
5.42443e-06
1.33933e-05
1.02391e-05
6.47156e-06
6.46996e-06
1.02366e-05
1.33915e-05
5.42447e-06
9.07982e-06
8.84503e-06
5.40826e-06
1.56407e-05
1.01475e-05
6.37707e-06
6.37548e-06
1.0145e-05
1.56389e-05
5.40831e-06
8.84502e-06
5.90862e-06
1.1263e-05
1.38349e-05
1.73372e-05
1.64869e-05
1.6483e-05
1.73316e-05
1.38307e-05
1.1261e-05
5.90851e-06
6.27843e-06
8.84871e-06
1.13349e-05
1.52473e-05
1.42645e-05
1.42611e-05
1.52426e-05
1.13322e-05
8.84806e-06
6.27842e-06
6.82827e-06
7.89567e-06
9.36514e-06
1.30212e-05
1.19963e-05
1.19934e-05
1.30174e-05
9.36331e-06
7.89543e-06
6.82827e-06
7.38564e-06
7.29194e-06
7.95766e-06
1.11169e-05
1.00894e-05
1.00869e-05
1.11138e-05
7.95636e-06
7.29186e-06
7.38564e-06
8.07402e-06
6.84308e-06
7.04092e-06
9.62202e-06
8.55508e-06
8.55293e-06
9.61932e-06
7.03993e-06
6.84307e-06
8.07401e-06
1.26582e-05
1.52681e-05
1.28964e-05
1.56117e-05
1.7308e-05
1.72975e-05
1.55872e-05
1.28014e-05
1.46693e-05
1.22138e-05
7.88016e-06
1.07861e-05
1.2422e-05
1.57317e-05
1.73742e-05
1.7366e-05
1.57137e-05
1.24049e-05
1.07796e-05
7.87484e-06
7.45603e-06
1.01768e-05
1.24859e-05
1.58958e-05
1.74449e-05
1.74383e-05
1.58823e-05
1.24764e-05
1.01745e-05
7.45531e-06
7.02768e-06
9.79271e-06
1.25256e-05
1.60342e-05
1.75006e-05
1.74948e-05
1.60241e-05
1.25187e-05
9.78965e-06
7.02734e-06
6.50456e-06
1.00454e-05
1.25408e-05
1.62363e-05
1.73961e-05
1.73911e-05
1.62287e-05
1.25358e-05
1.00425e-05
6.50439e-06
7.50951e-06
7.50366e-06
7.49748e-06
7.49073e-06
7.48316e-06
7.47435e-06
7.46381e-06
7.45087e-06
7.43473e-06
7.41438e-06
6.16378e-05
6.13066e-05
6.09893e-05
6.06817e-05
6.03767e-05
6.00643e-05
5.97323e-05
5.93649e-05
5.8944e-05
5.84513e-05
0.000124643
0.000123973
0.000123297
0.000122608
0.000121898
0.000121152
0.00012035
0.000119473
0.000118494
0.000117388
0.000178066
0.000177226
0.000176348
0.000175423
0.000174441
0.000173387
0.00017224
0.000170977
0.000169573
0.000168004
0.000221632
0.00022075
0.000219796
0.000218763
0.000217639
0.000216407
0.000215048
0.000213541
0.000211862
0.000209989
0.000257051
0.000256201
0.000255252
0.000254196
0.000253019
0.000251704
0.000250235
0.000248591
0.000246752
0.0002447
0.00028602
0.000285238
0.000284334
0.000283302
0.000282126
0.000280788
0.000279273
0.000277565
0.000275646
0.000273501
0.000309926
0.000309218
0.000308373
0.000307388
0.000306242
0.000304916
0.000303395
0.000301668
0.00029972
0.000297538
0.000329848
0.000329207
0.000328416
0.000327478
0.00032638
0.000325092
0.000323598
0.000321886
0.000319942
0.000317755
0.000346605
0.000346034
0.000345306
0.000344426
0.000343392
0.000342173
0.000340734
0.000339058
0.000337133
0.000334952
0.000360884
0.000360412
0.000359797
0.000359023
0.000358067
0.000356911
0.000355525
0.000353885
0.000351977
0.000349796
0.000373363
0.000372996
0.000372493
0.000371831
0.000370978
0.000369904
0.000368576
0.000366968
0.000365064
0.00036286
0.000384496
0.00038424
0.000383858
0.000383318
0.000382582
0.000381609
0.000380354
0.000378782
0.00037687
0.000374613
0.00039466
0.000394511
0.00039425
0.000393841
0.000393236
0.000392382
0.000391221
0.000389698
0.00038777
0.000385423
0.000404176
0.000404111
0.00040395
0.000403655
0.000403176
0.00040245
0.000401405
0.000399952
0.000397997
0.000395497
0.000413316
0.000413287
0.000413173
0.000412936
0.000412526
0.000411881
0.000410921
0.000409518
0.000407475
0.000404704
0.000422272
0.000422199
0.000422038
0.000421745
0.000421257
0.000420503
0.000419402
0.000417811
0.000415552
0.000412469
0.000431078
0.000430827
0.000430464
0.000429938
0.000429166
0.000428041
0.000426438
0.000424358
0.000421885
0.000418705
0.000439702
0.000439099
0.000438341
0.000437379
0.000436118
0.000434474
0.000432432
0.000430062
0.000427361
0.000424092
0.00044821
0.000447109
0.000445791
0.000444223
0.000442376
0.000440279
0.000437953
0.000435404
0.000432522
0.000429151
0.000456603
0.000454955
0.00045306
0.000450937
0.000448609
0.000446108
0.000443466
0.000440657
0.000437542
0.000433942
0.00046494
0.000462791
0.000460403
0.000457799
0.00045498
0.000451965
0.000448829
0.000445562
0.000442024
0.00043802
0.0004731
0.000470459
0.000467553
0.000464415
0.000461068
0.000457536
0.000453861
0.000450024
0.000445932
0.000441422
0.0004808
0.000477649
0.000474233
0.000470604
0.000466791
0.000462801
0.000458624
0.000454242
0.000449628
0.000444715
0.000487798
0.000484126
0.000480285
0.000476327
0.000472231
0.000467946
0.000463437
0.000458717
0.00045386
0.000448921
0.000493872
0.000489934
0.00048604
0.000482134
0.00047805
0.00047367
0.00046901
0.000464208
0.000459494
0.000455015
0.000499478
0.000496105
0.000492912
0.000489486
0.000485408
0.000480711
0.000475708
0.000470818
0.000466452
0.000462748
0.000505939
0.000503923
0.000502057
0.000498999
0.000494183
0.000488469
0.00048268
0.000477453
0.000473161
0.000469931
0.000513753
0.000513199
0.000511857
0.00050799
0.000502043
0.000495295
0.000488836
0.000483296
0.00047908
0.000476494
0.000521973
0.000521207
0.000517866
0.000512879
0.000506928
0.000500114
0.000493778
0.000488576
0.000485012
0.000483466
0.000529726
0.000526997
0.000521564
0.000515512
0.000509412
0.000503294
0.000498008
0.000494038
0.000491782
0.00049156
0.000535088
0.00053059
0.000524252
0.000517789
0.000511931
0.000506922
0.000503056
0.000500563
0.000499727
0.000500833
0.000540381
0.000534987
0.000528234
0.000521763
0.000516403
0.000512396
0.000509687
0.000508354
0.0005087
0.000510939
0.000546702
0.00054108
0.000534322
0.000528116
0.000523258
0.00051991
0.000517881
0.000517315
0.000518585
0.000521768
0.000555056
0.000549369
0.000542997
0.000537198
0.000532636
0.000529508
0.000527951
0.000528144
0.000530258
0.000534267
0.000567505
0.000561804
0.000555765
0.000550302
0.000545977
0.0005431
0.000542021
0.000542915
0.000545787
0.00055055
0.000584965
0.000579136
0.000573197
0.000568189
0.000564593
0.000562505
0.000562063
0.000563515
0.000566927
0.000572177
0.000606377
0.000599982
0.000594224
0.000590048
0.000587536
0.000586523
0.000586972
0.000589108
0.000592988
0.000598449
0.00062885
0.000622149
0.000617333
0.00061426
0.000612805
0.000612853
0.000614279
0.00061707
0.000621293
0.000626963
0.000650707
0.000645119
0.000641502
0.000639563
0.000639117
0.000640066
0.000642307
0.000645777
0.000650506
0.00065656
0.000673355
0.000669037
0.000666605
0.000665766
0.000666309
0.000668111
0.000671099
0.000675245
0.000680565
0.000687106
0.000697712
0.000694428
0.000693004
0.000693133
0.000694578
0.000697188
0.000700885
0.00070565
0.000711504
0.000718491
0.000723599
0.000721253
0.000720733
0.000721714
0.000723948
0.000727268
0.000731586
0.000736877
0.000743168
0.000750508
0.000750852
0.000749405
0.000749688
0.000751389
0.000754265
0.000758149
0.000762949
0.000768645
0.000775265
0.000782866
0.000778747
0.000778602
0.00077959
0.000781866
0.000785214
0.000789489
0.00079462
0.000800597
0.000807455
0.000815249
0.000805612
0.000807765
0.000809942
0.000812765
0.000816441
0.000820955
0.000826283
0.000832429
0.000839426
0.000847324
0.00083103
0.000835385
0.000839423
0.000843257
0.000847368
0.000852171
0.000857711
0.000863994
0.000871059
0.000878963
0.00085579
0.000861207
0.000866596
0.000871936
0.0008773
0.000882947
0.00088902
0.000895614
0.000902826
0.000910748
0.000880756
0.000887354
0.000893958
0.000900618
0.000907249
0.000913902
0.000920722
0.000927842
0.000935389
0.000943482
0.000906606
0.000914581
0.000922506
0.000930461
0.00093826
0.000945886
0.000953524
0.000961339
0.000969438
0.000977927
0.000933745
0.000943436
0.000952522
0.000961657
0.000970566
0.00097912
0.00098754
0.000996131
0.00100502
0.00101394
0.000961174
0.000971983
0.000982118
0.000992381
0.00100243
0.00101158
0.00101979
0.00102749
0.00103445
0.00103984
0.000983002
0.000997249
0.0010063
0.00101479
0.00102302
0.00103029
0.00103599
0.00103976
0.00104141
0.00104126
0.000984883
0.00100212
0.00101446
0.00102255
0.00102759
0.00103011
0.0010305
0.00102902
0.00102598
0.001022
0.000959102
0.00097186
0.000983047
0.000990892
0.000994739
0.000995109
0.000992944
0.000989286
0.000985023
0.000980573
0.000906572
0.000914254
0.000920838
0.000925808
0.000928915
0.000930326
0.000930518
0.000929979
0.000929068
0.000927945
0.000842633
0.000848117
0.000853121
0.000857969
0.000862872
0.000867797
0.000872704
0.000877468
0.000881836
0.000885625
0.000796404
0.000805544
0.000814832
0.000824405
0.000834285
0.000844195
0.000853699
0.000862414
0.000869977
0.000876322
0.000795443
0.000811916
0.000828804
0.000845503
0.000860538
0.000872959
0.000883019
0.000890839
0.000896405
0.000899904
0.000833317
0.000853423
0.000871104
0.000885463
0.000896696
0.000904889
0.000910344
0.000913601
0.000915255
0.000915336
0.000872252
0.000885705
0.000895782
0.000902873
0.000907675
0.000910648
0.000912122
0.000912269
0.000911187
0.00090899
0.000886326
0.000892137
0.000895766
0.000897593
0.000897988
0.000897346
0.000895923
0.000893778
0.000890925
0.000887517
0.000879311
0.000879404
0.000878034
0.000875613
0.000872534
0.000869143
0.000865649
0.00086211
0.000858564
0.000855134
0.000855903
0.000851168
0.00084576
0.000840114
0.000834628
0.000829618
0.000825283
0.000821709
0.000818934
0.000817024
0.000820138
0.000811368
0.000802882
0.000795126
0.000788506
0.000783339
0.000779825
0.000778047
0.000778008
0.000779686
0.000777666
0.000765594
0.000754774
0.00074587
0.000739314
0.00073546
0.000734524
0.000736591
0.000741602
0.00074937
0.000734568
0.0007197
0.000707017
0.000697644
0.000692147
0.000690903
0.000694161
0.000702014
0.000714312
0.000730577
0.00069659
0.000678898
0.000664464
0.000654698
0.000650725
0.000652885
0.000661434
0.000676419
0.000697457
0.000723779
0.000667937
0.00064665
0.000629775
0.000619123
0.000616225
0.000621837
0.000636048
0.000658794
0.000689247
0.000726085
0.000650176
0.000623909
0.000603226
0.000590477
0.000587579
0.000595866
0.000615423
0.000646072
0.00068648
0.000734436
0.000642113
0.000609443
0.000583383
0.000566981
0.000562714
0.000572305
0.000596408
0.000634667
0.000685302
0.00074502
0.000640862
0.000600848
0.00056816
0.000546688
0.000539624
0.000549138
0.000576633
0.000621883
0.000682728
0.000754758
0.00064327
0.000595535
0.000555542
0.000528043
0.000517005
0.000525106
0.000554613
0.000605938
0.000676615
0.000760977
0.00064665
0.000591221
0.000543858
0.000509996
0.000494242
0.000499723
0.000529603
0.000585651
0.00066527
0.000761445
0.000648475
0.000585932
0.000531799
0.000491905
0.000471229
0.000473142
0.000501697
0.000560634
0.000647674
0.000754549
0.00064677
0.000578273
0.000518524
0.00047344
0.000448118
0.000445853
0.000471443
0.000530883
0.000622876
0.000738347
0.000640571
0.000567623
0.000503696
0.00045451
0.000425121
0.000418453
0.000439721
0.00049701
0.000590679
0.000711695
0.000629673
0.00055399
0.000487359
0.000435135
0.000402385
0.000391504
0.000407722
0.000460653
0.000552383
0.000675205
0.000614579
0.000537931
0.000469804
0.000415343
0.000379912
0.000365416
0.00037677
0.000424246
0.0005107
0.000630943
0.000596522
0.000520249
0.000451321
0.000395062
0.000357516
0.00034031
0.00034793
0.00039019
0.000469145
0.000582135
0.000576312
0.000501267
0.000431969
0.00037414
0.00033491
0.000316045
0.000321737
0.000360175
0.000430818
0.000532735
0.000555942
0.00048188
0.000412127
0.000352643
0.00031189
0.000292342
0.000298215
0.000334943
0.000397983
0.000486773
0.000536177
0.000462976
0.000392469
0.000330913
0.000288377
0.000268875
0.000277036
0.000314323
0.000371534
0.000447316
0.000518121
0.000445368
0.000373685
0.000309355
0.000264296
0.000245296
0.000257781
0.000297721
0.00035137
0.000416198
0.00050236
0.000429518
0.000356072
0.000288105
0.000239434
0.000221261
0.000240108
0.000284465
0.000336806
0.000393633
0.000488391
0.000414899
0.000339216
0.000266944
0.000213504
0.000196504
0.000223676
0.000273696
0.000326526
0.00037836
0.000475557
0.000400945
0.000322689
0.000245703
0.000186403
0.000170979
0.000208184
0.000264698
0.000319531
0.000369084
0.0004639
0.000387498
0.000306276
0.00022435
0.000158343
0.000144879
0.000193147
0.000256648
0.000314808
0.000364307
0.000452901
0.000374089
0.000289526
0.000202706
0.000129897
0.000118687
0.000177825
0.000248588
0.00031143
0.000362858
0.00044156
0.000359907
0.000271726
0.000180407
0.000102096
9.32316e-05
0.000161281
0.000239444
0.000308564
0.000364062
0.000429926
0.00034465
0.000252404
0.000157215
7.64592e-05
6.9667e-05
0.000142543
0.000227966
0.000305277
0.000367635
0.000418255
0.000328109
0.000231263
0.00013323
5.47044e-05
4.93703e-05
0.000121059
0.000212724
0.000300156
0.000373329
0.000406759
0.000309925
0.000208108
0.000109034
3.81524e-05
3.37266e-05
9.74319e-05
0.000192395
0.000290905
0.000379546
0.000394326
0.000288688
0.00018251
8.56668e-05
2.71963e-05
2.36457e-05
7.39373e-05
0.000166499
0.00027441
0.000381791
0.000377288
0.000262469
0.000154936
6.50116e-05
2.12967e-05
1.8904e-05
5.4113e-05
0.00013692
0.000247775
0.000373435
0.000349319
0.000231632
0.000128473
4.9192e-05
1.90471e-05
1.77359e-05
4.04547e-05
0.00010904
0.000212003
0.000343974
0.000311439
0.000205254
0.000108344
3.85681e-05
1.85096e-05
1.79174e-05
3.24441e-05
8.92962e-05
0.000178332
0.000292379
0.00029316
0.000197464
9.42276e-05
3.08439e-05
1.8127e-05
1.78777e-05
2.70967e-05
7.74737e-05
0.00016473
0.000255026
0.000344862
0.000206672
7.59984e-05
2.35778e-05
1.76191e-05
1.75296e-05
2.18149e-05
6.36597e-05
0.000172343
0.000283478
0.000502512
0.000173822
4.18099e-05
1.75545e-05
1.73244e-05
1.73013e-05
1.71646e-05
3.68167e-05
0.000151339
0.000446408
7.38616e-06
7.35014e-06
7.30511e-06
7.24973e-06
7.18288e-06
7.10377e-06
7.01214e-06
6.9085e-06
6.79443e-06
6.67291e-06
6.54864e-06
6.42803e-06
6.31865e-06
6.22759e-06
6.15902e-06
6.11206e-06
6.08031e-06
6.05404e-06
6.02407e-06
5.98254e-06
5.92368e-06
5.84545e-06
5.75052e-06
5.64612e-06
5.54183e-06
5.44423e-06
5.3511e-06
5.2508e-06
5.1277e-06
4.96934e-06
4.77968e-06
4.72964e-06
4.70914e-06
1.99524e-05
1.99434e-05
1.97536e-05
1.84674e-05
1.64129e-05
1.35693e-05
2.71738e-06
5.78321e-05
5.70707e-05
5.617e-05
5.51249e-05
5.39411e-05
5.26379e-05
5.12498e-05
4.9828e-05
4.84398e-05
4.71626e-05
4.6075e-05
4.52471e-05
4.47275e-05
4.45273e-05
4.46084e-05
4.48813e-05
4.52118e-05
4.54482e-05
4.55206e-05
4.53561e-05
4.48893e-05
4.41406e-05
4.32371e-05
4.23698e-05
4.17093e-05
4.12842e-05
4.09165e-05
4.02847e-05
3.90593e-05
3.70489e-05
3.43324e-05
3.16517e-05
2.95153e-05
2.85985e-05
2.83818e-05
2.83305e-05
2.59369e-05
2.11254e-05
1.34322e-05
3.79525e-06
0.000116051
0.000114454
0.000112627
0.000110559
0.000108255
0.000105739
0.00010306
0.000100291
9.753e-05
9.48931e-05
9.25021e-05
9.04682e-05
8.88716e-05
8.77396e-05
8.70313e-05
8.66373e-05
8.63966e-05
8.61304e-05
8.56858e-05
8.49467e-05
8.38496e-05
8.24169e-05
8.07663e-05
7.90717e-05
7.74734e-05
7.59719e-05
7.43882e-05
7.24313e-05
6.98169e-05
6.63748e-05
6.21424e-05
5.74547e-05
5.28533e-05
4.89876e-05
4.557e-05
4.16934e-05
3.63514e-05
2.87153e-05
1.80967e-05
5.64035e-06
0.000166133
0.000163924
0.000161437
0.000158663
0.000155609
0.000152301
0.000148791
0.000145153
0.000141493
0.000137932
0.000134598
0.000131608
0.000129051
0.00012696
0.000125302
0.000123978
0.000122838
0.000121711
0.000120436
0.000118889
0.000117003
0.000114785
0.00011232
0.000109748
0.00010717
0.000104564
0.00010178
9.85905e-05
9.4783e-05
9.02262e-05
8.49166e-05
7.90184e-05
7.28462e-05
6.6917e-05
6.10497e-05
5.45307e-05
4.66005e-05
3.63469e-05
2.28573e-05
7.56208e-06
0.000207769
0.000205162
0.000202251
0.000199033
0.000195518
0.000191734
0.000187732
0.000183585
0.000179393
0.000175269
0.000171334
0.000167697
0.000164439
0.00016159
0.00015912
0.000156942
0.000154925
0.000152918
0.000150772
0.000148372
0.000145646
0.000142583
0.000139245
0.000135755
0.00013223
0.000128657
0.000124865
0.000120641
0.000115819
0.000110301
0.000104073
9.72225e-05
8.99437e-05
8.23855e-05
7.44244e-05
6.56492e-05
5.53868e-05
4.27556e-05
2.67701e-05
9.26175e-06
0.000242274
0.00023943
0.000236273
0.000232803
0.000229033
0.000224993
0.000220733
0.000216321
0.000211845
0.00020741
0.000203124
0.000199082
0.000195351
0.00019195
0.000188848
0.000185966
0.000183191
0.000180395
0.000177451
0.000174253
0.000170731
0.000166863
0.000162683
0.000158281
0.000153842
0.000149502
0.00014492
0.000139829
0.000134118
0.000127726
0.000120632
0.000112863
0.000104492
9.55169e-05
8.58454e-05
7.50752e-05
6.2681e-05
4.78988e-05
3.00429e-05
1.11178e-05
0.000270968
0.000268
0.000264718
0.000261126
0.000257242
0.000253096
0.000248735
0.00024422
0.00023963
0.000235058
0.000230597
0.000226331
0.000222308
0.000218526
0.000214946
0.000211501
0.000208096
0.000204627
0.000200988
0.000197092
0.000192879
0.000188327
0.000183462
0.00017837
0.000173222
0.000168077
0.000162708
0.00015683
0.000150323
0.000143147
0.000135264
0.000126643
0.00011729
0.000107155
9.60636e-05
8.36811e-05
6.95844e-05
5.30606e-05
3.36791e-05
1.35861e-05
0.00029496
0.00029194
0.00028861
0.00028498
0.000281071
0.000276913
0.000272551
0.000268039
0.000263447
0.000258854
0.000254343
0.000249989
0.000245819
0.000241795
0.000237866
0.000233982
0.000230072
0.000226053
0.000221843
0.000217374
0.000212601
0.000207507
0.000202112
0.000196478
0.000190712
0.00018482
0.000178677
0.000172082
0.000164872
0.00015699
0.000148394
0.000139044
0.000128872
0.000117765
0.000105509
9.1818e-05
7.62139e-05
5.81381e-05
3.74033e-05
1.63732e-05
0.000315167
0.000312134
0.000308796
0.000305171
0.000301284
0.000297167
0.000292861
0.000288416
0.000283887
0.000279341
0.000274852
0.00027049
0.000266279
0.000262136
0.000257989
0.000253792
0.000249504
0.00024506
0.000240402
0.000235482
0.000230268
0.000224748
0.000218932
0.000212852
0.00020656
0.000200048
0.000193238
0.000186007
0.000178148
0.000169598
0.000160353
0.000150369
0.000139489
0.000127501
0.00011417
9.92563e-05
8.23471e-05
6.30251e-05
4.12245e-05
1.91153e-05
0.000332363
0.000329323
0.000325985
0.000322373
0.000318521
0.000314463
0.00031024
0.000305893
0.000301465
0.000297004
0.000292562
0.000288193
0.000283948
0.000279848
0.00027567
0.000271309
0.000266761
0.000262002
0.000256999
0.000251725
0.000246162
0.000240303
0.000234147
0.000227704
0.000220982
0.000213955
0.000206548
0.000198687
0.000190258
0.000181195
0.00017143
0.000160858
0.000149296
0.00013651
0.000122206
0.000105924
8.70988e-05
6.51084e-05
4.02183e-05
1.98795e-05
0.000347193
0.000344126
0.000340764
0.000337143
0.000333305
0.000329294
0.000325151
0.000320913
0.000316611
0.000312274
0.000307925
0.000303594
0.000299379
0.000295355
0.000291233
0.000286812
0.000282099
0.000277108
0.000271839
0.000266285
0.00026044
0.000254299
0.000247856
0.000241103
0.00023402
0.000226573
0.000218707
0.000210371
0.000201491
0.000191998
0.000181802
0.000170745
0.000158567
0.000145058
0.000129852
0.000112397
9.19082e-05
6.74151e-05
3.86883e-05
2.00964e-05
0.000360208
0.000357068
0.000353628
0.000349942
0.000346066
0.000342056
0.000337959
0.000333811
0.000329637
0.000325447
0.000321251
0.000317082
0.000313016
0.000309056
0.000304958
0.000300496
0.000295662
0.000290491
0.000285004
0.000279212
0.000273121
0.00026673
0.000260036
0.00025302
0.000245651
0.000237888
0.000229679
0.000221008
0.000211825
0.000202031
0.000191488
0.000179988
0.000167251
0.000152984
0.000136901
0.000118397
9.65414e-05
7.00076e-05
3.81196e-05
2.02808e-05
0.000371864
0.000368584
0.000364991
0.00036116
0.000357172
0.000353098
0.000348997
0.000344906
0.000340842
0.00033681
0.000332809
0.000328857
0.00032497
0.000321091
0.000316987
0.000312448
0.000307482
0.000302135
0.000296445
0.000290434
0.000284113
0.000277489
0.000270563
0.000263321
0.000255731
0.000247753
0.00023936
0.000230533
0.000221194
0.00021118
0.000200301
0.000188309
0.000174926
0.000159792
0.000142777
0.000123363
0.000100642
7.31447e-05
3.93515e-05
2.0226e-05
0.000382511
0.000379
0.000375158
0.000371093
0.000366911
0.000362703
0.000358536
0.000354451
0.00035046
0.000346554
0.000342723
0.000338972
0.000335283
0.000331509
0.000327349
0.000322637
0.000317445
0.000311858
0.000305937
0.000299706
0.000293167
0.000286318
0.000279176
0.00027175
0.000264019
0.000255936
0.000247474
0.000238658
0.000229327
0.000219135
0.000207834
0.000195138
0.000180829
0.000164617
0.000146352
0.000125848
0.000102471
7.46922e-05
3.96502e-05
4.71135e-06
0.000392313
0.00038845
0.000384251
0.000379861
0.000375412
0.000371008
0.000366721
0.000362582
0.000358593
0.000354737
0.000351006
0.000347408
0.000343865
0.000340062
0.000335644
0.000330598
0.000325062
0.000319168
0.000312996
0.000306573
0.000299866
0.000292841
0.000285536
0.000278014
0.000270264
0.00026222
0.000253866
0.000245193
0.000235909
0.000225503
0.000213527
0.000199762
0.000184114
0.000166406
0.000146435
0.000124195
9.98275e-05
7.20568e-05
3.78189e-05
4.75235e-06
0.000401115
0.000396797
0.000392174
0.000387416
0.00038266
0.000378011
0.000373535
0.000369256
0.000365158
0.000361205
0.000357366
0.000353681
0.000350126
0.000346086
0.000341187
0.000335678
0.000329754
0.00032355
0.000317157
0.000310599
0.0003038
0.00029668
0.000289337
0.000281898
0.000274353
0.00026661
0.000258562
0.000250032
0.000240667
0.000229842
0.00021704
0.00020214
0.000185054
0.000165604
0.000143684
0.000119486
9.37118e-05
6.6316e-05
3.55306e-05
2.01916e-05
0.000408469
0.000403762
0.000398792
0.000393717
0.000388658
0.00038371
0.000378937
0.00037437
0.000369986
0.000365744
0.000361626
0.000357709
0.00035381
0.000349191
0.000343684
0.000337647
0.000331299
0.000324775
0.000318162
0.000311479
0.000304612
0.000297498
0.000290267
0.00028309
0.000275965
0.000268702
0.000260988
0.000252531
0.000242954
0.000231686
0.000218366
0.00020285
0.00018498
0.000164553
0.000141448
0.000115878
8.87269e-05
6.10007e-05
3.2816e-05
2.02806e-05
0.000414582
0.000409687
0.000404477
0.000399102
0.000393674
0.000388282
0.000383004
0.000377908
0.000373008
0.000368314
0.000363817
0.000359451
0.000354832
0.000349429
0.000343274
0.000336658
0.000329806
0.000322869
0.00031593
0.000309
0.000302014
0.000294942
0.000287881
0.00028098
0.000274251
0.000267337
0.000259854
0.000251503
0.000241893
0.000230576
0.000217273
0.000201837
0.000184124
0.000163967
0.00014126
0.000116117
8.90703e-05
6.0943e-05
3.16796e-05
4.67466e-06
0.000419986
0.000415018
0.000409589
0.000403836
0.000397879
0.000391832
0.000385824
0.000380002
0.000374456
0.000369189
0.000364131
0.000359053
0.000353532
0.000347305
0.00034044
0.000333163
0.000325718
0.000318271
0.000310902
0.000303636
0.000296444
0.000289306
0.000282279
0.000275425
0.000268628
0.000261673
0.00025434
0.000246274
0.000236974
0.000226028
0.000213187
0.00019838
0.000181484
0.000162378
0.000140965
0.000117216
9.12202e-05
6.31667e-05
3.38564e-05
2.02754e-05
0.000424996
0.000419862
0.000414093
0.000407812
0.000401165
0.000394324
0.00038749
0.000380872
0.000374566
0.000368583
0.000362845
0.000357001
0.000350684
0.000343727
0.000336192
0.000328293
0.00032028
0.000312333
0.000304523
0.000296877
0.000289374
0.000281973
0.000274694
0.000267567
0.000260515
0.000253409
0.000246041
0.00023807
0.000229047
0.000218542
0.000206357
0.000192357
0.000176434
0.0001585
0.000138476
0.000116267
9.17115e-05
6.45315e-05
3.45932e-05
2.00308e-05
0.000429535
0.000424031
0.000417759
0.000410852
0.000403502
0.000395935
0.000388398
0.000381095
0.000374154
0.000367579
0.000361211
0.000354738
0.000347865
0.000340444
0.000332512
0.00032424
0.000315833
0.000307466
0.000299244
0.000291242
0.000283383
0.000275587
0.000267828
0.000260126
0.000252502
0.000244924
0.000237237
0.000229109
0.000220081
0.000209757
0.000197914
0.000184388
0.000169086
0.000151954
0.000132943
0.000111957
8.87713e-05
6.29715e-05
3.42367e-05
2.01759e-05
0.00043321
0.000427242
0.000420485
0.000413103
0.000405327
0.000397419
0.000389625
0.000382122
0.000375002
0.000368229
0.000361632
0.000354965
0.000347992
0.000340539
0.000332603
0.000324289
0.000315724
0.000307087
0.00029855
0.000290186
0.000281928
0.000273633
0.000265176
0.000256543
0.00024788
0.000239339
0.000230864
0.000222096
0.00021249
0.000201685
0.000189466
0.00017576
0.000160524
0.000143732
0.000125362
0.000105323
8.33693e-05
5.90818e-05
3.22659e-05
2.03218e-05
0.000436167
0.000429826
0.000422863
0.000415459
0.000407852
0.00040028
0.000392944
0.000385968
0.000379371
0.000373051
0.000366838
0.000360578
0.000354064
0.000347054
0.000339491
0.000331409
0.000322843
0.000314015
0.000305234
0.000296624
0.000288077
0.000279345
0.000270098
0.000260177
0.000249945
0.000239852
0.000229993
0.000219897
0.000208948
0.000196838
0.000183581
0.000169265
0.000153868
0.000137342
0.000119657
0.000100633
7.9864e-05
5.67378e-05
3.06973e-05
4.93856e-06
0.000439259
0.00043294
0.000426289
0.000419489
0.000412739
0.000406199
0.000399977
0.000394135
0.000388644
0.00038333
0.000378062
0.000372755
0.000367112
0.00036083
0.000353832
0.000346069
0.000337621
0.000328811
0.000319982
0.000311282
0.000302711
0.000294002
0.000284383
0.000273442
0.0002615
0.000249344
0.000237495
0.000225551
0.000212918
0.000199536
0.000185466
0.00017069
0.000155182
0.000138932
0.000121844
0.000103531
8.32953e-05
6.01229e-05
3.28779e-05
5.54443e-06
0.000443775
0.000438062
0.000432279
0.000426608
0.000421198
0.00041612
0.00041138
0.000407026
0.000403001
0.000399004
0.000394859
0.00039046
0.000385547
0.000379833
0.000373227
0.000365756
0.000357575
0.000349013
0.000340305
0.000331636
0.00032349
0.00031574
0.000306903
0.000295812
0.000282947
0.000269523
0.000256296
0.000243228
0.000229916
0.000216067
0.000201415
0.000185776
0.000169388
0.000152487
0.000134863
0.000115961
9.49627e-05
7.04286e-05
3.982e-05
6.32701e-06
0.000450629
0.000445862
0.00044122
0.000436916
0.000433043
0.000429613
0.00042657
0.000423877
0.000421372
0.000418663
0.000415467
0.000411633
0.000406989
0.000401358
0.000394692
0.000387088
0.000378793
0.000370176
0.000361492
0.000353134
0.000346059
0.000340253
0.000332587
0.000321609
0.000309436
0.000297949
0.000286767
0.000274402
0.000260509
0.000245213
0.000228779
0.00021144
0.000193393
0.000174442
0.000154426
0.00013308
0.000109742
8.28398e-05
4.86097e-05
7.14459e-06
0.000459283
0.000455439
0.000451992
0.00044924
0.000447113
0.000445507
0.000444306
0.000443345
0.000442294
0.000440658
0.000438115
0.000434529
0.000429776
0.000423794
0.000416669
0.000408622
0.000400024
0.000391403
0.000383087
0.000375479
0.000369412
0.000364068
0.000356554
0.000346377
0.000335232
0.000324479
0.00031408
0.0003029
0.000289668
0.000274374
0.000257126
0.000238456
0.000218623
0.000197241
0.000174163
0.000149187
0.000121939
9.1345e-05
5.39815e-05
7.84563e-06
0.000467672
0.000465541
0.000463809
0.000462888
0.00046273
0.000463109
0.000463775
0.000464422
0.000464631
0.00046392
0.000461926
0.00045847
0.000453524
0.00044724
0.000439924
0.000431913
0.000423512
0.000415364
0.000408198
0.000402299
0.000397053
0.000390398
0.000381651
0.000371467
0.000360523
0.000349249
0.00033758
0.000325283
0.000311971
0.000297031
0.000279671
0.000259794
0.000237878
0.000214117
0.000188474
0.00016056
0.000130055
9.62406e-05
5.66564e-05
8.26678e-06
0.000475639
0.000475666
0.00047619
0.000477439
0.000479376
0.000481734
0.000484181
0.000486325
0.000487724
0.000487935
0.000486596
0.00048355
0.000478881
0.000472919
0.00046615
0.000459054
0.00045214
0.000445879
0.000440396
0.000434997
0.000428413
0.000420321
0.000410769
0.000399959
0.000388189
0.000375644
0.00036232
0.000348104
0.000332755
0.000315858
0.000296867
0.000275867
0.000252914
0.000227887
0.00020042
0.000170327
0.000137404
0.000100987
5.87675e-05
9.14566e-06
0.000484087
0.000486219
0.000489074
0.000492573
0.000496612
0.000500899
0.000505065
0.000508693
0.000511362
0.000512688
0.000512389
0.000510374
0.000506797
0.000502084
0.00049683
0.000491584
0.000486699
0.000482133
0.00047701
0.000470681
0.000463034
0.000453991
0.000443556
0.000431822
0.000418939
0.000404998
0.000389987
0.000373787
0.000356167
0.000336828
0.000315601
0.000292712
0.000268138
0.000241445
0.000212087
0.000179953
0.000145093
0.000106897
6.27918e-05
1.02152e-05
0.000493635
0.000497611
0.000502542
0.000508144
0.000514211
0.000520402
0.000526325
0.000531572
0.000535759
0.000538578
0.000539846
0.000539551
0.000537882
0.000535222
0.000532055
0.000528727
0.000525196
0.000520944
0.000515562
0.000508795
0.000500546
0.000490786
0.000479548
0.000466913
0.000452966
0.000437751
0.000421251
0.000403372
0.000383949
0.000362792
0.00033979
0.000314931
0.000288047
0.000258732
0.000226576
0.000191456
0.00015345
0.000112247
6.60775e-05
1.12184e-05
0.000504225
0.000509748
0.000516483
0.000524036
0.000532108
0.000540284
0.000548142
0.000555281
0.000561351
0.000566107
0.000569433
0.000571357
0.000572041
0.00057174
0.000570703
0.000568986
0.000566265
0.000562288
0.000556876
0.0005499
0.000541287
0.000531031
0.000519172
0.000505776
0.000490908
0.000474613
0.0004569
0.000437722
0.000416973
0.000394488
0.00037006
0.000343434
0.000314247
0.000282033
0.000246359
0.00020701
0.000164071
0.000117829
6.80964e-05
1.21859e-05
0.000515455
0.00052231
0.000530709
0.000540183
0.00055032
0.000560632
0.000570658
0.00057998
0.000588273
0.000595327
0.000601048
0.000605447
0.00060861
0.000610649
0.000611642
0.000611358
0.000609627
0.000606282
0.000601219
0.000594372
0.000585705
0.000575224
0.000562964
0.000548985
0.000533354
0.000516136
0.000497385
0.000477119
0.000455287
0.000431733
0.000406165
0.000378133
0.000347028
0.000312141
0.0002728
0.000228582
0.000179567
0.000126628