/*--------------------------------*- C++ -*----------------------------------*\
  =========                 |
  \\      /  F ield         | OpenFOAM: The Open Source CFD Toolbox
   \\    /   O peration     | Website:  https://openfoam.org
    \\  /    A nd           | Version:  8
     \\/     M anipulation  |
\*---------------------------------------------------------------------------*/
FoamFile
{
    version     2.0;
    format      ascii;
    class       volScalarField;
    location    "3.95";
    object      p_rgh;
}
// * * * * * * * * * * * * * * * * * * * * * * * * * * * * * * * * * * * * * //

dimensions      [1 -1 -2 0 0 0 0];

internalField   nonuniform List<scalar> 
9150
(
2563.62
2536.65
2511.11
2493.93
2485.63
2485.63
2493.94
2511.12
2536.66
2563.63
2554.38
2534.87
2519.18
2507.39
2501.41
2501.41
2507.4
2519.19
2534.88
2554.39
2544.73
2531.21
2522.63
2514.89
2510.78
2510.78
2514.9
2522.64
2531.22
2544.74
2539.63
2529.68
2524.17
2518.82
2515.85
2515.85
2518.83
2524.17
2529.69
2539.64
2537.95
2529.13
2524.49
2520.33
2517.89
2517.89
2520.33
2524.49
2529.14
2537.96
2098.68
2094.51
2119.81
2134.27
2140.99
2141.01
2134.32
2119.89
2094.6
2098.79
2288.53
2264.32
2259
2257.88
2258.06
2258.07
2257.91
2259.04
2264.37
2288.58
2412.8
2381.29
2365.34
2355.53
2350.9
2350.91
2355.54
2365.36
2381.31
2412.82
2513
2470.69
2442.81
2425.52
2417.05
2417.06
2425.53
2442.82
2470.7
2513.01
2582.7
2530.35
2491.74
2469.74
2459.63
2459.63
2469.75
2491.76
2530.36
2582.71
1914.86
1951.97
1940.74
1949.46
1945.19
1945.35
1949.47
1941.01
1952.56
1917.24
1942.84
1960.56
1941.1
1948.64
1945.2
1945.32
1948.72
1941.76
1961.24
1944.24
1918.39
1950.45
1919.85
1926.47
1930.01
1930.07
1926.63
1920.26
1950.97
1919.19
1759.25
1884.53
1903.41
1921.55
1937.72
1937.77
1921.7
1903.68
1884.83
1759.75
1637.66
1873.32
1970.55
2000.79
2016.39
2016.42
2000.88
1970.68
1873.5
1637.97
1798.35
1798.27
1798.19
1798.11
1798.05
1797.99
1797.93
1797.89
1797.85
1797.81
1798.35
1798.28
1798.21
1798.14
1798.08
1798.03
1797.98
1797.94
1797.9
1797.86
1798.35
1798.29
1798.22
1798.16
1798.11
1798.06
1798.02
1797.98
1797.95
1797.92
1798.32
1798.26
1798.2
1798.15
1798.11
1798.06
1798.03
1797.99
1797.97
1797.94
1798.25
1798.2
1798.15
1798.11
1798.07
1798.03
1798.01
1797.98
1797.96
1797.94
1798.15
1798.1
1798.06
1798.03
1798
1797.97
1797.96
1797.94
1797.93
1797.92
1798.02
1797.98
1797.94
1797.9
1797.88
1797.88
1797.88
1797.88
1797.88
1797.88
1797.86
1797.82
1797.77
1797.71
1797.71
1797.7
1797.74
1797.78
1797.84
1797.85
1797.7
1797.71
1797.6
1794.66
1795.63
1797.54
1797.7
1797.77
1797.8
1797.83
1797.51
1793.26
1791.51
1792.09
1792.02
1796.6
1797.87
1797.87
1797.87
1797.88
1785.83
1785.65
1793.15
1796.48
1796.66
1797.56
1797.9
1797.89
1797.9
1797.91
1795.03
1796.71
1797.9
1798.08
1797.99
1797.91
1797.91
1797.91
1797.91
1797.93
1798.27
1798.18
1798.09
1798
1797.87
1797.7
1797.74
1797.85
1797.87
1797.92
1798.15
1798.05
1797.86
1797.67
1797.61
1797.55
1797.54
1797.7
1797.76
1797.85
1797.95
1797.69
1797.6
1797.53
1797.45
1797.41
1797.43
1797.42
1797.5
1797.68
1797.66
1797.59
1797.55
1797.56
1797.52
1797.41
1797.09
1796.64
1792.1
1795.65
1797.75
1797.82
1797.91
1797.93
1797.95
1797.95
1790.82
1747.55
1738.68
1790.01
1798
1798.08
1798.18
1798.33
1796.96
1754.69
1719.11
1719.83
1720.82
1790.98
1798.04
1798.17
1798.33
1786.6
1725.2
1713.87
1714.8
1715.57
1741.71
1801.63
1798.2
1798.54
1798.51
1744.25
1710.91
1711.66
1711.67
1746.75
1798.27
1802.55
1797.9
1798.26
1798.67
1748.41
1711.31
1726.18
1781.85
1802.05
1803.16
1803.01
1797.4
1797.76
1796.9
1785.69
1778.08
1792.92
1801.32
1801.89
1802.25
1802.57
1796.6
1795.31
1795.86
1797.81
1799.1
1799.62
1800.26
1800.91
1796.71
1793.86
1793.07
1794.7
1796.12
1797.45
1798.13
1798.81
1798.32
1782.8
1781.8
1783
1791.39
1784.98
1795.49
1796.32
1797.03
1796.2
1779.78
1778.64
1779.23
1792.59
1751.88
1793.21
1794.2
1795.06
1795.84
1794.16
1777.08
1776.86
1792.24
1800.6
1741.34
1794.77
1794.41
1794.45
1794.96
1794.48
1790.64
1788.85
1778.06
1701.24
1786.48
1796.46
1749.51
1686.56
1782.03
1792.69
1793.01
1761.38
1637.87
1630.95
1779.8
1696.36
1489.22
1483.7
1691.87
1796.13
1790.22
1668.08
1619.49
1619.77
1686.46
1446.87
1451.03
1454.14
1532.95
1781.69
1785.27
1675.07
1609.98
1610.32
1448.29
1438.09
1440.05
1440.8
1549.92
1782.5
1780.37
1758.15
1611.98
1603.51
1428.76
1429.76
1430.28
1433.78
1699.03
1783.79
1781.97
1780.34
1715.93
1595.75
1421.43
1421.6
1421.43
1557.89
1788.62
1784.91
1782.48
1780.31
1764.27
1603.46
1414.31
1415.47
1468.72
1785.71
1788.34
1782.55
1779.48
1778.3
1758.52
1591.43
1584.09
1526.31
1697.76
1763.52
1705.38
1612.02
1594.38
1710.38
1674.22
1526.14
1800.25
1703.98
1509.88
1498.48
1493.58
1496.29
1502.67
1506.92
1510.15
1510.25
1754.9
1538.74
1487
1487.74
1487.48
1486.5
1548.39
1575.68
1509.24
1506.25
1365.65
1369.4
1506.56
1506.85
1502.37
1671.91
1790.41
1744.13
1528.65
1504.52
1296.28
1467.65
1786.37
1769.57
1753.2
1798.48
1800.97
1795.17
1698.93
1564.65
1310.74
1715.58
1811.12
1808.53
1805.65
1803.12
1800.22
1795.78
1787.21
1771.11
1309.32
1787.66
1813.42
1810.66
1807.81
1804.93
1801.83
1798.31
1794.35
1790.34
1265.11
1756.58
1817.78
1814.66
1811.49
1808.31
1805.01
1801.55
1797.91
1794.16
1194.61
1519.51
1822.01
1820.42
1816.71
1813.07
1809.46
1805.82
1802.12
1798.37
1184.57
1198.18
1540.95
1796.91
1822.99
1818.91
1814.95
1811.07
1807.22
1803.43
1176.44
1174.56
1180.55
1391.51
1702.18
1806.99
1820.71
1816.6
1812.62
1808.79
1170.35
1169.29
1168.47
1170.48
1294.13
1772.18
1827.77
1822.79
1818.2
1813.98
1381.3
1164.29
1166.72
1166.25
1317.57
1790.65
1834.08
1828.06
1822.48
1817.21
1805.07
1577.04
1366.65
1383.46
1679.09
1832.4
1835.82
1830.56
1825.09
1819.3
1850.32
1844.8
1817.01
1821.14
1846.9
1844.07
1839.96
1835.65
1830.83
1757.05
1808.67
1809.33
1842.53
1848.04
1849.1
1821.54
1778.93
1673.8
1462.63
1189.69
1301.63
1242.79
1530.33
1617.4
1446.35
1239.23
1131.41
1019.74
918.835
888.31
917.109
902.455
929.862
951.322
910.969
891.731
890.255
889.089
888.316
887.884
900.224
897.25
896.212
894.957
893.405
892.248
891.387
890.418
889.358
888.543
927.76
893.974
893.052
892.142
891.253
890.391
889.465
888.561
926.84
1094.94
1534.01
1313.13
1158.73
1111.17
1114.27
1154.71
1290.62
1516.04
1713.77
1830.5
1839.06
1846.39
1848.56
1848.35
1852.59
1866.3
1889.08
1902.42
1901.25
1897.99
1576.22
1703.13
1926.45
1930.67
1926.14
1921.72
1917.42
1912.78
1907.52
1901.24
1589.45
1590.94
1631.05
1850.88
1910.78
1903.32
1889.17
1860.33
1817.64
1768.74
1927.62
1801.74
1605.07
1235.96
1187.02
1189.22
1191.14
1151.7
1143.2
1134.76
1568.93
1220.79
1220.75
1207.87
1189.96
1188.45
1225.41
1315.42
1286.78
1205.81
1385.94
1409.72
1489.38
1594.25
1665.8
1756.64
1893.32
1964.05
1943.41
1921.16
1818.26
1983.08
1977.74
1970.4
1963.2
1956.34
1949.38
1940.75
1929.55
1916.55
1970.27
1969.57
1967.62
1963.45
1957.35
1949.63
1940.26
1928.88
1915.37
1900.13
1963.94
1963.66
1960.79
1955.22
1947.14
1936.76
1924.21
1909.55
1892.97
1874.76
1949.42
1948.61
1944.91
1938.27
1928.81
1916.64
1901.95
1884.94
1865.91
1845.23
1925.68
1925.1
1921.24
1914.12
1903.89
1890.72
1874.89
1856.77
1836.97
1815.9
1892.8
1893.1
1889.77
1882.95
1872.85
1859.74
1844.05
1826.52
1808.09
1787.77
1851.87
1853.85
1851.94
1846.37
1837.45
1825.54
1811.22
1795.53
1778.97
1755.91
1806.79
1810.84
1810.86
1807.21
1800.24
1790.43
1778.54
1765.76
1751.83
1729.15
1763.43
1768.79
1770.55
1768.73
1763.66
1755.83
1746.14
1735.82
1724.07
1601.16
1726.72
1731.89
1734.65
1734.2
1730.51
1723.85
1714.84
1704
1688.64
1414.53
1698.41
1703.04
1706.06
1706.64
1704.34
1699.25
1691.9
1682.76
1669.26
1290.88
1678.48
1683.25
1686.09
1687.17
1685.85
1682.04
1676.13
1668.58
1656.85
1149.89
1666.91
1672.04
1674.69
1675.86
1675.11
1672.17
1667.29
1660.74
1650.38
1041.44
1663.66
1668.13
1670.72
1671.96
1671.58
1669.33
1665.29
1659.58
1650.86
981.644
1668.39
1670.81
1673.11
1674.33
1674.18
1672.46
1669.13
1664.24
1657.2
969.089
1678.03
1678.63
1680.3
1681.36
1681.34
1680
1677.21
1672.89
1664.17
1005.71
1637.18
1688.69
1690.42
1691.62
1691.78
1690.72
1688.34
1684.5
1674.65
1040.76
1584.38
1702.94
1704.35
1705.33
1705.25
1704.05
1701.63
1697.84
1690.05
1071.43
1584.11
1722.97
1722.61
1722.37
1721.38
1719.51
1716.67
1712.72
1706.37
1119
1605.06
1744.03
1742.11
1740.62
1738.62
1736.04
1732.8
1728.82
1723.75
1180.07
1646.05
1763.42
1759.78
1757.41
1754.95
1752.2
1749.1
1745.66
1742.02
1243.53
1659.1
1774.3
1771.91
1770.46
1768.86
1766.83
1764.41
1761.87
1759.57
1305.19
1645.21
1782.71
1782.45
1782.41
1781.92
1780.74
1779.03
1777.29
1776.05
1363.47
1634.13
1795.17
1795.2
1795.44
1795.31
1794.47
1793.11
1791.85
1791.12
1409.88
1633.33
1809.52
1808.71
1808.57
1808.36
1807.5
1806.15
1805
1804.36
1450.2
1624.7
1820.38
1820.45
1820.7
1820.73
1819.95
1818.58
1817.33
1816.41
1483.77
1607.75
1832.19
1833.17
1833.62
1833.6
1832.72
1831.23
1829.78
1828.61
1518.08
1616.05
1851.93
1849.43
1848.3
1847.45
1846.18
1844.53
1842.95
1841.77
1554.16
1618.52
1863.34
1862.12
1861.37
1860.52
1859.33
1857.94
1856.64
1855.99
1584.52
1641.08
1876.38
1874.31
1873.16
1872.21
1871.34
1870.64
1870.13
1870.74
1612.34
1652.17
1885.64
1882.91
1881.67
1881.26
1881.42
1881.97
1882.81
1885.44
1633.38
1620.98
1887.76
1885.23
1885.26
1886.57
1888.51
1890.94
1894.14
1899.81
1640.02
1543.04
1876.14
1881.96
1885.57
1888.76
1891.62
1894.73
1899.68
1908.16
1626.15
1534.78
1885.32
1887.71
1888.9
1891.16
1892.72
1893.84
1896.03
1897.01
1571.2
1529.95
1886.52
1891.37
1892.29
1894.17
1894.96
1894.86
1895.39
1891.04
1531.09
1563.91
1891.51
1897.03
1898.12
1899.56
1899.93
1899.36
1898.72
1893.15
1550
1639.88
1901.43
1905.68
1907.34
1908.51
1908.72
1908.12
1906.58
1902.75
1634.86
1738.67
1921.02
1920.89
1921.31
1921.02
1921.15
1921.79
1921.2
1922.02
1735.55
1830.88
1950.7
1938.54
1937.32
1934.49
1934.58
1937.5
1938.18
1950.53
1832.33
1797.79
1797.76
1797.75
1797.74
1797.75
1797.76
1797.77
1797.79
1797.81
1797.84
1797.85
1797.86
1797.87
1797.86
1797.85
1797.84
1797.82
1797.79
1797.78
1797.74
1797.74
1797.73
1797.72
1797.71
1797.69
1797.67
1797.65
1797.64
1797.63
1797.63
1797.63
1797.62
1797.64
1797.67
1797.68
1797.7
1797.73
1797.76
1797.77
1797.76
1797.84
1797.82
1797.8
1797.8
1797.81
1797.83
1797.86
1797.9
1797.94
1797.98
1798.02
1798.05
1798.06
1798.07
1798.05
1798.02
1797.99
1797.95
1797.9
1797.87
1797.84
1797.84
1797.83
1797.82
1797.8
1797.77
1797.73
1797.69
1797.67
1797.66
1797.68
1797.7
1797.71
1797.71
1797.72
1797.73
1797.75
1797.77
1797.78
1797.79
1797.9
1797.88
1797.87
1797.88
1797.89
1797.92
1797.95
1797.99
1798.04
1798.09
1798.13
1798.17
1798.19
1798.2
1798.19
1798.16
1798.13
1798.06
1798.02
1797.97
1797.95
1797.93
1797.91
1797.89
1797.86
1797.83
1797.8
1797.76
1797.73
1797.71
1797.7
1797.62
1797.39
1797.38
1797.77
1797.78
1797.8
1797.82
1797.82
1797.84
1797.93
1797.91
1797.91
1797.92
1797.94
1797.97
1798
1798.04
1798.09
1798.14
1798.2
1798.24
1798.27
1798.29
1798.28
1798.26
1798.21
1798.16
1798.11
1798.08
1798.03
1797.99
1797.93
1797.89
1797.86
1797.86
1797.87
1797.87
1797.87
1797.87
1797.63
1796.8
1796.9
1796.83
1796.71
1797.33
1797.92
1797.92
1797.9
1797.93
1797.93
1797.92
1797.92
1797.93
1797.95
1797.97
1798
1798.04
1798.1
1798.15
1798.22
1798.26
1798.3
1798.33
1798.34
1798.32
1798.28
1798.25
1798.22
1798.17
1798.11
1798.04
1797.94
1797.42
1796.56
1797.56
1797.94
1797.99
1798.02
1798.05
1797.97
1796.65
1796.66
1796.62
1796.54
1796.41
1796.47
1797.01
1796.68
1796.73
1797.91
1797.91
1797.92
1797.92
1797.92
1797.95
1797.98
1798.02
1798.08
1798.13
1798.18
1798.24
1798.28
1798.33
1798.36
1798.37
1798.36
1798.36
1798.33
1798.31
1798.29
1798.26
1798.24
1794.85
1794.21
1794.7
1798.04
1798.27
1798.28
1798.3
1798.34
1797.9
1797.72
1798.43
1797.28
1796.39
1796.43
1796.47
1796.51
1796.53
1797.89
1797.89
1797.89
1797.89
1797.9
1797.92
1797.96
1797.99
1798.02
1798.05
1798.09
1798.14
1798.2
1798.27
1798.34
1798.4
1798.44
1798.46
1798.46
1798.47
1798.51
1798.55
1798.04
1792.95
1793.01
1792.85
1795.37
1798.51
1798.53
1798.5
1798.5
1798.59
1798.69
1798.78
1798.77
1798.67
1798.4
1797.54
1797.08
1797.76
1797.86
1797.87
1797.87
1797.88
1797.89
1797.9
1797.91
1797.92
1797.93
1797.93
1797.93
1797.94
1798
1798.1
1798.25
1798.39
1798.48
1798.53
1798.58
1798.64
1798.73
1798.82
1798.96
1793.72
1792.36
1792.37
1792.74
1798.46
1798.85
1798.4
1795.84
1795.78
1797.63
1797.78
1796.33
1795.15
1795.87
1797.57
1798.66
1798.72
1797.85
1797.86
1797.87
1797.88
1797.88
1797.88
1797.88
1797.87
1797.85
1797.81
1797.73
1797.53
1794.95
1796.96
1798.11
1798.36
1798.51
1798.59
1798.68
1798.78
1798.88
1798.99
1799.16
1797.74
1791.77
1791.91
1793.35
1799.57
1797.67
1794.68
1794.8
1794.78
1797.37
1798.17
1795.11
1794.58
1794.56
1794.48
1797.2
1799.05
1797.89
1797.89
1797.9
1797.9
1797.9
1797.91
1797.91
1797.91
1797.9
1797.88
1797.83
1793.26
1782.05
1787.74
1797.75
1798.56
1798.68
1798.74
1798.81
1798.89
1798.94
1799.01
1799.08
1799.16
1794.49
1792.99
1797.45
1799.59
1796.22
1794.56
1794.77
1796.48
1798.69
1799.07
1798.43
1797.31
1794.4
1794.48
1796.01
1799.22
1797.92
1797.94
1797.96
1797.88
1797.89
1797.98
1798.03
1798.06
1798.11
1798.18
1795.55
1778.35
1778.5
1778.47
1792.36
1798.94
1798.96
1798.98
1798.99
1799
1799.01
1799.02
1799.03
1799.02
1798.79
1798.51
1799
1799.05
1797.74
1797.09
1798.54
1799.28
1799.31
1799.3
1799.24
1799.16
1797.93
1795.9
1797.4
1799.2
1797.96
1797.99
1797.93
1797.94
1797.96
1798.09
1798.14
1798.19
1798.26
1798.39
1785.04
1776.5
1776.84
1776.86
1792.76
1799.21
1799.19
1799.18
1799.16
1798.89
1798.88
1799.06
1799.05
1798.98
1798.9
1798.82
1798.77
1798.84
1799.02
1799.25
1799.35
1799.41
1799.37
1799.31
1799.23
1799.09
1798.96
1798.91
1798.97
1799.26
1797.98
1798.03
1797.98
1798.02
1798.13
1798.19
1798.21
1798.24
1798.27
1798.33
1786.71
1775.66
1778.95
1784.67
1797.59
1799.34
1799.35
1799.35
1799.07
1798.89
1799
1799.22
1799.14
1798.99
1798.78
1798.49
1798.17
1798.16
1798.69
1799.15
1799.35
1799.57
1799.58
1799.46
1799.3
1799.06
1798.8
1798.66
1798.71
1799.13
1797.98
1798.06
1798.14
1798.25
1798.32
1798.34
1798.35
1798.35
1798.35
1798.35
1795.95
1788.73
1799.27
1799.54
1799.6
1799.59
1799.62
1799.52
1799.18
1799.15
1799.55
1799.55
1799.46
1799.28
1799.01
1791.58
1769.34
1763.25
1784.37
1795.87
1798.74
1800.01
1800.02
1799.82
1799.53
1799.06
1798.42
1795.66
1788.84
1796.24
1797.91
1798.17
1798.35
1798.46
1798.46
1798.56
1798.56
1798.52
1798.46
1798.36
1798.09
1789.95
1776.91
1798.5
1799.35
1799.63
1799.74
1799.69
1799.54
1799.7
1799.84
1800.14
1800.21
1800.07
1781.01
1750.01
1750.38
1750.9
1750.99
1767.6
1800.81
1800.95
1800.9
1800.57
1800.21
1799.85
1783.9
1759.32
1754.74
1756.71
1797.89
1798.35
1798.64
1798.47
1798.52
1798.97
1799.04
1799.04
1799.07
1799.16
1771.38
1738.87
1739.94
1779.66
1799.93
1800.17
1800.21
1800.12
1798.18
1788.22
1793.93
1801.48
1801.61
1791.76
1747.75
1748.16
1748.58
1748.92
1749.21
1767.39
1802.44
1802.35
1802.28
1802.02
1801.79
1801.49
1771.84
1753.74
1753.69
1753.69
1798.22
1798.81
1798.72
1798.92
1799.08
1799.62
1799.66
1799.58
1787.71
1741.19
1731.83
1733.29
1734.08
1772.06
1801.45
1801.35
1801.27
1799.69
1778.13
1774.19
1780.39
1803.08
1803.7
1789.38
1745.93
1746.57
1746.89
1746.88
1762.37
1801.74
1803.89
1803.72
1803.66
1803.47
1803.47
1803.83
1797.34
1754.31
1753.29
1753.02
1800.21
1800.11
1799.87
1800
1800.28
1800.66
1800.73
1782.3
1728.79
1729.46
1729.95
1730.44
1748.92
1803.05
1802.64
1802.36
1798.98
1775.82
1772.49
1772.85
1773.06
1775.27
1799.59
1805.36
1773.01
1746.05
1746.06
1792.73
1804.66
1805.32
1804.96
1804.79
1804.72
1804.51
1804.63
1805.18
1805.54
1797.99
1775.31
1768.29
1801.49
1800.97
1801.01
1801.37
1801.84
1801.99
1801.58
1753.97
1727.51
1727.81
1727.49
1765.06
1803.85
1804.02
1803.56
1803.05
1783.32
1771.75
1771.85
1772.04
1772.36
1776.58
1803.9
1804.5
1799.51
1786.96
1789.76
1804.65
1805.4
1805.39
1805.35
1805.36
1805.34
1805.23
1805.43
1805.92
1806.07
1805.77
1805.53
1804.83
1802.27
1801.96
1802.09
1802.61
1802.71
1802.85
1803.01
1779.37
1734.43
1738.42
1793.23
1803.42
1804.47
1804.06
1803.72
1803.5
1796.93
1771.74
1770.91
1771.02
1799
1803.47
1803.94
1804.25
1803.32
1802.28
1802.55
1804.56
1805.34
1805.54
1805.59
1805.71
1805.84
1806.07
1806.2
1806.35
1806.47
1805.98
1804.45
1804.28
1802.95
1802.73
1803.12
1803.31
1803.41
1803.53
1803.63
1801.58
1798.02
1797.26
1797.74
1797.02
1797.65
1802.29
1803.29
1803.13
1802.13
1798.05
1795.74
1799.9
1803.03
1803.35
1803.68
1803.89
1804.09
1804.34
1804.64
1804.98
1805.33
1805.57
1805.85
1806.08
1806.36
1806.52
1806.64
1806.71
1806.43
1804.62
1802.02
1801.71
1802.93
1803.12
1803.42
1803.76
1803.88
1801.65
1800.71
1802.57
1803.66
1802.36
1796.31
1796
1795.82
1802.05
1802.66
1802.45
1802.26
1801.97
1801.89
1801.97
1802.19
1802.52
1803.09
1803.48
1803.72
1803.98
1804.35
1804.81
1805.35
1805.82
1806.19
1806.54
1806.76
1806.93
1807.05
1807.02
1804.12
1802.38
1802.13
1801.73
1802.48
1803.16
1803.62
1803.33
1800.45
1800.72
1800.72
1802.67
1803.52
1803.16
1798.67
1795.28
1798.84
1800.59
1799.9
1799.43
1799.55
1797.82
1777.67
1770.42
1794.83
1800.16
1800.33
1800.82
1802.64
1803.5
1803.79
1804.47
1805.32
1806.08
1806.61
1806.87
1807.03
1807.17
1807.24
1807.25
1804.84
1802.42
1802.12
1802.43
1801.31
1803.2
1803.69
1803.9
1802.96
1801.89
1803.76
1803.6
1803.5
1803.58
1794.53
1742.95
1738.03
1737.93
1738.29
1738.25
1786.99
1801.75
1756.99
1754.52
1753.16
1768.45
1802.4
1803.37
1802.96
1802.2
1802.27
1803.35
1804.96
1806.22
1806.85
1806.92
1806.87
1806.9
1806.9
1806.83
1806.77
1806.65
1806.33
1805.84
1802.6
1803.1
1803.5
1797.91
1787.88
1800.63
1804.14
1800.11
1749.36
1736.11
1735.98
1735.87
1735.4
1734.91
1755.67
1800.68
1799.78
1799.3
1798.43
1789.47
1745.88
1734.01
1783.61
1806.21
1803.32
1757.88
1725.04
1737.43
1780.12
1797.95
1805.84
1801.07
1799.42
1803.15
1803.65
1803.24
1802.94
1802.8
1803
1803.66
1801.64
1802.76
1791
1785.55
1786.09
1790.2
1804.81
1775.89
1736.15
1735.2
1760.03
1804.18
1802.6
1801.49
1800.38
1798.96
1797.62
1796.36
1795.43
1710.92
1555.13
1553.13
1575.1
1772.91
1808.65
1618.98
1583.47
1581.9
1579.05
1614.86
1675.5
1642.62
1634.23
1657.48
1660.13
1658.78
1661.9
1670.37
1675.71
1680.97
1700.01
1798.57
1798.13
1794.11
1792.62
1797.72
1799.92
1770
1734.17
1750.98
1801.46
1800.48
1799.33
1797.97
1796.67
1796.19
1739.3
1556.96
1528.88
1532.36
1538.2
1543.99
1547.81
1672.99
1819.19
1820.17
1674.98
1578.22
1576.63
1576.12
1575.65
1576.13
1576.43
1576.26
1574.76
1573.31
1571.5
1570.08
1569.13
1568.78
1636.96
1757.66
1797.01
1797
1796.69
1780.02
1770.38
1768.73
1776.77
1798.84
1797.84
1796.93
1795.52
1794.06
1738.98
1545.04
1514.09
1517
1519.85
1523.26
1524.08
1636.08
1805.94
1814.9
1817.51
1820.35
1822.59
1774.25
1600.29
1572.4
1573.66
1574.24
1606.36
1609.16
1583.62
1571.22
1570.58
1569.39
1568.25
1567.64
1621.07
1717.74
1794.59
1794.37
1783.38
1767.06
1766.97
1774.45
1795.85
1795.09
1794.48
1793.88
1790.96
1647.61
1506.06
1507.11
1507.93
1509.48
1511.3
1519.44
1758.92
1811.73
1810.76
1811.34
1812.92
1814.93
1817.41
1820.49
1822.55
1698.8
1620.37
1757.46
1828.76
1831.8
1795.98
1722.23
1660.57
1657.55
1653.56
1638.86
1610.51
1690.15
1791.24
1791.29
1775.52
1761.85
1761.43
1788.36
1790.79
1790.47
1790.39
1790.52
1790.66
1739.43
1530.82
1499.48
1499.7
1501.46
1528.69
1755.56
1805.58
1804.61
1804.46
1805.05
1806.24
1807.84
1809.78
1812.15
1814.45
1816.24
1817.93
1820.87
1824.2
1826.47
1827.43
1827.58
1821.86
1769.83
1741.2
1737.7
1602.11
1641.36
1788.3
1788.08
1772.03
1756.22
1766.62
1784.77
1784.11
1783.85
1784
1784.4
1784.44
1787.07
1791.56
1790.35
1727.93
1639.75
1685.7
1794.16
1794.76
1794.91
1795.08
1796.22
1797.64
1799.12
1800.79
1802.88
1805.23
1807.69
1810.38
1813.63
1816.97
1819.87
1822.11
1823.66
1815.06
1775.45
1732.21
1732.15
1595.94
1617.64
1785.15
1783.39
1772.78
1751.55
1775.11
1777.17
1776.25
1775.67
1773.85
1768.55
1772.31
1778.5
1780.4
1782.18
1783.17
1783.37
1783.4
1783.83
1784.27
1783.54
1784.22
1785.44
1787.88
1789.25
1790.89
1792.84
1795.09
1797.66
1800.63
1803.99
1807.54
1811.01
1814.15
1816.74
1818.47
1814.35
1753.11
1703.55
1587.03
1633.17
1780.62
1777.8
1773.73
1770.61
1771.19
1769.6
1768.17
1761.99
1759.01
1759.06
1759.55
1765.71
1769.8
1770.96
1771.85
1772.49
1773.15
1773.86
1773.26
1773.59
1774.25
1774.97
1776.7
1778.6
1779.86
1781.43
1783.38
1785.8
1788.73
1792.17
1795.99
1799.95
1803.77
1807.12
1809.63
1810.4
1806.19
1734.94
1571.61
1678.32
1775.72
1772.64
1769.81
1767.06
1764.43
1762.29
1759.74
1751.32
1750.41
1750.17
1750.39
1751.06
1756.04
1761.38
1762.39
1763.28
1764.11
1764.88
1765.24
1764.41
1764.88
1765.31
1765.88
1767.9
1768.47
1769.31
1770.59
1772.47
1775.09
1778.46
1782.49
1786.93
1791.43
1795.57
1798.92
1798.97
1796.18
1793.06
1557.07
1754.99
1774.13
1769.62
1765.59
1761.84
1758.45
1755.56
1752.22
1747.35
1742.6
1742.25
1742.4
1742.97
1743.87
1750.72
1754.63
1755.65
1756.57
1757.34
1757.94
1758.32
1757.77
1756.72
1757.05
1757.7
1757.26
1756.99
1757.2
1758.2
1760.22
1763.31
1767.43
1772.29
1777.44
1782.35
1786.45
1788.9
1786.45
1781.39
1533.79
1756.16
1772.78
1767.4
1762.33
1757.57
1753.25
1747.74
1738.5
1739.35
1745.3
1739.55
1736.05
1736.74
1737.75
1738.91
1746.8
1750.13
1751.1
1751.86
1752.33
1752.46
1752.19
1751.5
1750.34
1748.09
1746.67
1743.96
1741.89
1741.09
1741.97
1745.14
1750.24
1756.29
1762.48
1768.22
1773.03
1776.56
1774.97
1767.3
1503.56
1687.27
1772.53
1766.19
1760
1754.02
1748.46
1744.27
1733.69
1730.07
1740.35
1740.73
1738.86
1732.97
1734.16
1735.56
1736.91
1740.27
1747.53
1748.71
1749.18
1749.06
1748.37
1747.07
1744.87
1739.49
1727.95
1691.36
1630.32
1592
1583.09
1618.36
1678.08
1731.27
1746.71
1755.02
1760.29
1764.17
1765.19
1757.25
1501.25
1666.72
1773.28
1765.77
1758.19
1750.41
1728.53
1698.04
1693.68
1738.2
1738.44
1738.92
1739.9
1741.28
1738.59
1734.88
1736.42
1737.91
1739.06
1743.59
1748.55
1748.56
1747.62
1745.89
1741.75
1679.83
1452.53
1277.56
1150.59
1101.13
1090.26
1118.41
1208.65
1413.46
1656.68
1745.47
1751.49
1755.15
1757.43
1755.99
1583.46
1740.85
1772.45
1764.71
1756.16
1746.25
1676.14
1387.51
1426.81
1737.29
1740.92
1742.01
1743.05
1744.12
1745.33
1746.68
1744.93
1741.94
1741.47
1743.46
1749.92
1751.59
1751.11
1749.73
1736.04
1375.69
1075.49
1015.75
1014.87
1014.49
1014.31
1014.27
1014.78
1018.4
1211.09
1665.2
1748.67
1752.29
1754.58
1758.11
1768.49
1778.32
1773.16
1766.56
1758.92
1749.59
1549.58
1068.8
1073.85
1320.76
1506.74
1660.38
1743.01
1751.95
1751.71
1752.07
1752.94
1754
1754.4
1755.57
1756.15
1757.32
1758.11
1755.54
1561.54
1081.74
1013.2
1013.26
1013.31
1013.21
1012.95
1012.56
1012.16
1012.02
1013.03
1365.17
1730.18
1755.1
1757.58
1761.28
1786.17
1781.63
1776.71
1771.35
1765.4
1660.49
1167.82
1054.67
1053.87
1053.66
1063.15
1146.22
1544.35
1759.09
1758.7
1758.52
1759.11
1760.13
1761.36
1762.69
1764.04
1764.47
1763.7
1620.93
1155.51
1011.71
1012.08
1012.56
1012.81
1012.71
1012.19
1011.47
1010.57
1009.95
1009.58
1173.89
1703.98
1762.2
1765.41
1768.73
1790.15
1785.69
1781.09
1776.08
1621.07
1194.25
1051.76
1052
1052.2
1052.03
1052.7
1056.98
1448.66
1765.32
1765.11
1765.06
1765.67
1766.79
1768.23
1769.9
1771.75
1766.94
1627.2
1202.31
1010.05
1010.46
1011.19
1011.96
1012.54
1012.47
1011.33
1008.98
1008.06
1006.86
1006
1132.82
1697.68
1772.98
1775.88
1777.22
1794.38
1789.96
1780.63
1543.26
1121.91
1050.46
1049.92
1050.34
1049.93
1049.39
1048.98
1118.79
1555.7
1771.58
1771.07
1771.23
1772
1773.3
1775.07
1777.24
1780.08
1736.64
1274.18
1019.04
1009.01
1008.73
1028.52
1130.74
1243.45
1299.36
1291.95
1198.46
1031.88
1002.75
1000.54
1138.01
1706.69
1783.71
1786.23
1786.21
1799.45
1795.11
1706.25
1161.49
1050.33
1049.45
1048.97
1048.24
1046.41
1044.68
1056.89
1240.46
1620.14
1775.11
1775.33
1776.02
1777.14
1778.76
1780.88
1783.62
1787.49
1707.19
1133.37
1023.28
1029.8
1180.96
1468.1
1690.71
1786.2
1812.69
1808.99
1738.84
1448.67
1022.69
996.01
1162.82
1720.07
1791.3
1794.96
1794.84
1804.93
1801.03
1730.69
1231.94
1049.31
1046.48
1118.03
1211.15
1275.64
1224.22
1258.59
1504.02
1725.5
1777.32
1778.45
1779.61
1780.97
1782.65
1784.64
1787.01
1789.94
1711.4
1317.92
1288.04
1488.01
1712.11
1813.83
1814.86
1816.4
1818.3
1820.2
1821.52
1802.6
1357.92
994.297
1170.54
1714.45
1799
1803.24
1803.05
1809.87
1806.1
1793.69
1683.31
1544.47
1485.02
1538.86
1557.24
1498.85
1441.66
1476.56
1732.36
1781.43
1781.76
1782.51
1783.49
1784.75
1786.34
1788.24
1790.47
1792.98
1760.18
1751.75
1798.59
1806.36
1809.74
1812.66
1815.33
1817.79
1820.09
1822.23
1824.14
1825.39
1719.44
1059.14
1113.71
1619.7
1801.54
1808.03
1808.95
1811.81
1806.2
1800.66
1690.79
1544.1
1541.72
1605.17
1689.9
1579.3
1551.38
1660.05
1785.71
1786.48
1786.38
1786.65
1787.32
1788.39
1789.81
1791.57
1793.67
1795.99
1795.38
1799.81
1802.26
1805.71
1808.54
1810.44
1815.51
1819.73
1822.89
1826.02
1829.23
1832.84
1800.61
1129.13
1097.11
1527.56
1808.96
1814.93
1816.02
1812.69
1740.33
1516.74
1232.35
1084.5
1159.07
1468.52
1755.23
1786.96
1787.82
1794.73
1793.26
1791.95
1791.16
1790.9
1791.17
1791.9
1793.05
1794.58
1796.47
1797.83
1801.05
1801.85
1797.86
1788.01
1766.19
1762.43
1782.13
1814.79
1824.71
1828.42
1831.94
1836.01
1814.21
1159.74
1091.55
1480.71
1820.1
1825.1
1825.91
1545.92
1200.1
959.06
899.877
918.364
1129.09
1618.12
1815.84
1813.38
1807.28
1802.73
1799.57
1797.33
1795.84
1795.04
1794.86
1795.24
1796.12
1797.43
1799.13
1801.08
1803.37
1804.87
1785.45
1751.99
1754.66
1757.59
1760.64
1778.25
1823.56
1830.91
1834.63
1838.85
1833.65
1202.59
1086.5
1449.94
1830.45
1836.45
1837.71
967.379
889.583
890.093
893.701
958.228
1472.14
1823.25
1826.47
1819.41
1813.39
1808.6
1804.84
1801.98
1799.97
1798.73
1798.19
1798.28
1798.93
1800.08
1801.67
1803.64
1805.94
1808.52
1804.36
1784.44
1760.17
1758.99
1762.17
1765.57
1818.4
1833.43
1837.14
1841.07
1846.18
1328.48
1085.7
1416.34
1838.78
1848.67
1852.62
887.272
887.551
888.519
896.526
1334.05
1821.24
1839.8
1831.86
1824.56
1818.4
1813.23
1809.02
1805.74
1803.35
1801.78
1800.98
1800.87
1801.39
1802.46
1804.02
1806.04
1808.4
1811.08
1814.05
1817.34
1820.82
1789.84
1764.97
1768.53
1823.33
1836.07
1839.95
1843.35
1847.34
1567.45
1089.36
1393.6
1843.89
1861.67
1865.99
887.487
887.61
893.756
1290.73
1815.77
1852.59
1844.28
1835.92
1828.56
1822.11
1816.59
1812.04
1808.45
1805.8
1804.04
1803.1
1802.83
1800.52
1801.62
1805.29
1808.23
1810.77
1813.57
1816.62
1819.88
1823.26
1826.69
1811.37
1812.97
1824.47
1828.48
1841.77
1846.61
1849.61
1779.87
1130.9
1384.77
1843.35
1872.97
1878.17
888.059
976.55
1464.48
1850.34
1865.31
1856.08
1847
1838.72
1831.19
1824.46
1818.64
1813.8
1809.99
1807.2
1805.39
1804.5
1801.81
1784.61
1784.26
1797.46
1809.45
1813.16
1816.27
1819.53
1822.96
1826.52
1830.18
1833.96
1837.95
1776.48
1661.87
1756.76
1851.1
1857.91
1862.64
1275.24
1387.59
1830.94
1881.29
1888
1426.65
1755.23
1877.33
1875.06
1866.27
1857.3
1848.62
1840.35
1832.59
1825.51
1819.32
1814.18
1810.19
1807.37
1805.66
1805.01
1797.95
1783.56
1785.13
1787.36
1795.37
1814.61
1819.21
1822.78
1826.41
1830.18
1834.03
1837.94
1842.45
1740.98
1611.72
1606.67
1774.21
1870.16
1876.13
1445.18
1398.74
1812.58
1888.78
1897.06
1880.81
1884.67
1880.87
1875.06
1867.17
1858.68
1850.05
1841.58
1833.32
1825.49
1818.56
1812.96
1808.81
1806.08
1804.65
1804.39
1805.21
1801.55
1786.35
1788.91
1792.52
1814.14
1822.44
1826.42
1830.05
1833.95
1838.29
1842.71
1847.58
1827.89
1605.12
1604.92
1607.29
1839.09
1887.75
1531.93
1412.06
1809.95
1897.71
1907.08
1893.94
1889.37
1884.3
1878.08
1870.1
1860.86
1851.66
1842.92
1833.92
1824.26
1815.45
1808.98
1804.71
1802.34
1801.71
1802.36
1804.04
1806.54
1809.04
1797.8
1807.35
1818.73
1824.22
1826.85
1829.13
1835.23
1841.81
1846.82
1852.19
1859.02
1755.08
1605.88
1612.37
1709.96
1896.71
1544.02
1438.79
1826.76
1908.18
1918.19
1894.96
1889.78
1886.42
1882.99
1875.72
1864.72
1854.43
1846.33
1822.27
1765.56
1719.23
1715.75
1739.3
1773.19
1788.18
1794.99
1800.4
1805.04
1809.57
1814.33
1819.36
1824.56
1692.4
1648.86
1768.11
1836.68
1843.22
1849.18
1855.11
1861.51
1870.1
1655.41
1610.85
1632.71
1884.34
1532.01
1539.27
1862.15
1921.57
1932.21
1755.29
1784.89
1868.9
1887.97
1803.08
1664.72
1662.56
1660.38
1344.17
912.57
904.149
898.151
1044.84
1429.38
1675.8
1749.94
1788.37
1802.08
1808.77
1814.6
1820.29
1809.77
1521.04
1474.42
1534.67
1760.7
1839.67
1848.06
1855.39
1862.65
1870.75
1810.51
1607.78
1607.76
1828.72
1569.34
1661.13
1898.03
1935.27
1946.61
1125.34
1115.49
1432.86
1834.05
1490.31
1002.11
957.328
934.393
916.855
906.143
903.136
901.065
898.335
894.48
893.249
1290.89
1761.77
1797.28
1807.74
1814.73
1820.86
1793.88
1516.28
1444.7
1442.04
1443.09
1625.3
1834.32
1851.14
1861.14
1870.16
1880.74
1680.93
1601.81
1608.4
1650.87
1811.47
1929.29
1945.96
1958.64
1203.45
1221.37
1229.3
1312.69
1698.83
1767.2
1467.42
970.334
912.268
985.884
1217.37
1141.68
898.015
888.655
912.82
1260.65
1745.76
1792.9
1804.47
1811.39
1797.35
1610.67
1406.15
1426.26
1430.8
1435.07
1436.8
1693.02
1843.04
1857.62
1868.03
1878.19
1791.41
1596.85
1605.85
1612.81
1801.91
1937.01
1952.74
1967.12
1928.75
1914.51
1899.1
1885.8
1871.19
1855.64
1838.63
1783.67
1687.39
1714.83
1801.43
1828.08
1825.61
1816.89
1792.61
1764.27
1769.53
1777.33
1778.76
1709.74
1439.54
1373.42
1420.93
1427.14
1420.07
1424.69
1445.51
1738.66
1843.35
1806.92
1804.47
1840.31
1854.06
1708.44
1603.91
1611.45
1859.72
1938.6
1956.24
1971.95
1901.96
1885.9
1870.03
1855.2
1841.37
1828.18
1816.07
1806.4
1800.34
1797.24
1794.25
1791.43
1788.91
1786.47
1783.95
1782.4
1707.44
1632.6
1635.97
1685.01
1746.08
1547.44
1409.97
1417.4
1414.91
1570.72
1799.92
1835.75
1843.7
1825.38
1800.07
1834.88
1847.71
1797.06
1604.37
1632.65
1873.51
1935.48
1954.73
1971.6
1882.69
1863.58
1844.8
1827.12
1811.16
1797.39
1785.63
1775.8
1768.19
1762.31
1758.42
1756.01
1753.98
1748.49
1740.87
1741.71
1744.58
1747.34
1680.96
1684.42
1759.49
1773.91
1753.91
1673.66
1679.56
1757.5
1820.59
1827.39
1833.81
1841.4
1807.69
1810.41
1838.35
1865.78
1644.5
1631.57
1873.57
1926.39
1947.04
1964.87
1854.11
1831.4
1809.29
1788.85
1769.76
1751.07
1735.41
1685.6
1610.6
1538.11
1541.53
1613.58
1702.61
1546.03
1270.03
1338.29
1627.51
1715.06
1721.9
1730.93
1741.79
1754.32
1766.19
1779.05
1788.08
1794.09
1800.9
1808.39
1815.69
1823.68
1821.45
1793.84
1824.95
1848.82
1801
1747.35
1859.56
1913.12
1933.79
1951.77
1821.87
1794.61
1765.1
1647.98
1441.57
1289.9
1268.54
1123.44