/*--------------------------------*- C++ -*----------------------------------*\
  =========                 |
  \\      /  F ield         | OpenFOAM: The Open Source CFD Toolbox
   \\    /   O peration     | Website:  https://openfoam.org
    \\  /    A nd           | Version:  8
     \\/     M anipulation  |
\*---------------------------------------------------------------------------*/
FoamFile
{
    version     2.0;
    format      ascii;
    class       surfaceScalarField;
    location    "3.95";
    object      phi;
}
// * * * * * * * * * * * * * * * * * * * * * * * * * * * * * * * * * * * * * //

dimensions      [0 3 -1 0 0 0 0];

internalField   nonuniform List<scalar> 
18095
(
1.58733e-07
-9.65284e-07
8.0655e-07
1.65494e-07
-1.24835e-06
1.24159e-06
1.22226e-07
-1.24232e-06
1.28558e-06
6.53152e-08
-1.26354e-06
1.32045e-06
-7.26553e-12
-1.28053e-06
1.34585e-06
-6.53284e-08
-1.28053e-06
1.34585e-06
-1.22235e-07
-1.26353e-06
1.32044e-06
-1.65499e-07
-1.24231e-06
1.28557e-06
-1.58735e-07
-1.24834e-06
1.24158e-06
-9.65277e-07
8.06542e-07
1.11078e-07
-1.07636e-06
9.9463e-08
-1.23673e-06
7.28737e-08
-1.21573e-06
4.00317e-08
-1.23069e-06
-5.47196e-12
-1.24049e-06
-4.00416e-08
-1.24049e-06
-7.28813e-08
-1.23069e-06
-9.94679e-08
-1.21572e-06
-1.11081e-07
-1.23673e-06
-1.07636e-06
6.72189e-08
-1.14358e-06
5.27923e-08
-1.22231e-06
4.21622e-08
-1.2051e-06
2.38643e-08
-1.2124e-06
-3.93745e-12
-1.21662e-06
-2.38716e-08
-1.21662e-06
-4.21681e-08
-1.21239e-06
-5.27964e-08
-1.20509e-06
-6.7221e-08
-1.22231e-06
-1.14358e-06
3.96583e-08
-1.18324e-06
2.66386e-08
-1.20929e-06
2.20248e-08
-1.20048e-06
1.25301e-08
-1.2029e-06
-2.512e-12
-1.20409e-06
-1.25348e-08
-1.20409e-06
-2.20288e-08
-1.2029e-06
-2.66414e-08
-1.20048e-06
-3.966e-08
-1.20929e-06
-1.18324e-06
1.67604e-08
7.47245e-09
6.98945e-09
4.08877e-09
-1.85446e-12
-4.09233e-09
-6.99252e-09
-7.47468e-09
-1.67619e-08
-1.75597e-07
-1.1637e-06
1.3393e-06
-2.19901e-07
-1.21674e-06
1.26104e-06
-1.657e-07
-1.21308e-06
1.15888e-06
-8.73508e-08
-1.2041e-06
1.12575e-06
-7.39379e-11
-1.20249e-06
1.11522e-06
8.72059e-08
-1.20248e-06
1.1152e-06
1.65567e-07
-1.20406e-06
1.1257e-06
2.19783e-07
-1.21303e-06
1.15882e-06
1.75505e-07
-1.21668e-06
1.26096e-06
-1.16363e-06
1.33914e-06
-9.28458e-08
-1.07085e-06
-9.56399e-08
-1.21395e-06
-7.93675e-08
-1.22936e-06
-4.43102e-08
-1.23916e-06
-4.1556e-11
-1.24676e-06
4.42304e-08
-1.24675e-06
7.92973e-08
-1.23913e-06
9.55853e-08
-1.22932e-06
9.28157e-08
-1.21391e-06
-1.07082e-06
-5.80095e-08
-1.01284e-06
-5.52161e-08
-1.21674e-06
-4.65905e-08
-1.23798e-06
-2.71981e-08
-1.25855e-06
-2.47171e-11
-1.27393e-06
2.71513e-08
-1.27393e-06
4.65508e-08
-1.25853e-06
5.51876e-08
-1.23796e-06
5.79953e-08
-1.21672e-06
-1.01282e-06
-7.49373e-08
-9.37906e-07
-6.21283e-08
-1.22955e-06
-4.86866e-08
-1.25142e-06
-2.78371e-08
-1.2794e-06
-1.54422e-11
-1.30176e-06
2.7808e-08
-1.30175e-06
4.86628e-08
-1.27938e-06
6.21122e-08
-1.25141e-06
7.49295e-08
-1.22953e-06
-9.37892e-07
-1.31356e-07
-1.19316e-07
-8.5155e-08
-4.41064e-08
-1.04121e-11
4.40869e-08
8.5139e-08
1.19305e-07
1.3135e-07
-4.008e-08
-9.31389e-07
9.71469e-07
6.7834e-09
-1.34195e-06
1.29508e-06
1.07905e-08
-1.27548e-06
1.27147e-06
4.62391e-09
-1.22758e-06
1.23375e-06
-6.3785e-10
-1.22499e-06
1.23026e-06
-5.96494e-09
-1.22492e-06
1.23025e-06
-1.19968e-08
-1.22766e-06
1.23369e-06
-8.6415e-09
-1.27569e-06
1.27234e-06
3.60779e-08
-1.3417e-06
1.29698e-06
-9.28642e-07
9.6472e-07
1.35514e-08
-9.44941e-07
1.92038e-08
-1.3476e-06
1.26742e-08
-1.26895e-06
6.50895e-09
-1.22142e-06
-5.3956e-10
-1.21795e-06
-7.5794e-09
-1.21788e-06
-1.38069e-08
-1.22143e-06
-2.07541e-08
-1.26875e-06
-1.51414e-08
-1.34731e-06
-9.43783e-07
2.8761e-08
-9.73701e-07
1.99598e-08
-1.3388e-06
1.06697e-08
-1.25966e-06
5.96598e-09
-1.21671e-06
-3.25215e-10
-1.21165e-06
-6.5735e-09
-1.21163e-06
-1.13542e-08
-1.21665e-06
-2.05704e-08
-1.25953e-06
-2.93052e-08
-1.33858e-06
-9.73089e-07
7.99592e-08
-1.05366e-06
5.40242e-08
-1.31286e-06
3.45837e-08
-1.24021e-06
2.09454e-08
-1.20307e-06
-2.07501e-10
-1.1905e-06
-2.1358e-08
-1.19048e-06
-3.50093e-08
-1.203e-06
-5.44285e-08
-1.24011e-06
-8.02599e-08
-1.31275e-06
-1.05335e-06
2.85636e-07
2.33817e-07
1.52485e-07
7.51599e-08
-1.26731e-10
-7.54082e-08
-1.52703e-07
-2.33998e-07
-2.85788e-07
1.3816e-07
1.06681e-09
-1.39227e-07
1.36968e-07
1.19212e-09
1.35671e-07
1.29738e-09
1.34285e-07
1.3855e-09
1.32825e-07
1.45965e-09
1.313e-07
1.52482e-09
1.29717e-07
1.58374e-09
1.28072e-07
1.64488e-09
1.26352e-07
1.71959e-09
1.81523e-09
1.24537e-07
1.38514e-07
1.87576e-09
-1.39323e-07
1.37573e-07
2.13315e-09
1.36512e-07
2.35812e-09
1.35346e-07
2.55223e-09
1.34087e-07
2.71881e-09
1.32749e-07
2.86313e-09
1.31338e-07
2.99531e-09
1.29859e-07
3.12511e-09
1.28314e-07
3.26514e-09
3.4292e-09
1.26701e-07
1.33495e-07
2.78933e-09
-1.34409e-07
1.32461e-07
3.16699e-09
1.31317e-07
3.50136e-09
1.30077e-07
3.79251e-09
1.28752e-07
4.04393e-09
1.27351e-07
4.2637e-09
1.25883e-07
4.46398e-09
1.24348e-07
4.65997e-09
1.22745e-07
4.86806e-09
5.10621e-09
1.21068e-07
1.28115e-07
3.81339e-09
-1.29139e-07
1.26973e-07
4.30884e-09
1.25726e-07
4.74895e-09
1.24387e-07
5.13194e-09
1.2297e-07
5.46055e-09
1.2149e-07
5.74459e-09
1.19953e-07
6.00133e-09
1.18361e-07
6.25212e-09
1.1671e-07
6.51918e-09
6.82481e-09
1.14991e-07
1.22396e-07
4.96009e-09
-1.23543e-07
1.21132e-07
5.57329e-09
1.19762e-07
6.11953e-09
1.18302e-07
6.59184e-09
1.16777e-07
6.98581e-09
1.15207e-07
7.31467e-09
1.13603e-07
7.60588e-09
1.11964e-07
7.89056e-09
1.10285e-07
8.19864e-09
8.55699e-09
1.08553e-07
1.16287e-07
6.23904e-09
-1.17566e-07
1.1489e-07
6.97163e-09
1.13377e-07
7.63253e-09
1.1177e-07
8.19892e-09
1.10115e-07
8.64114e-09
1.0845e-07
8.97996e-09
1.06787e-07
9.26832e-09
1.0512e-07
9.55754e-09
1.03434e-07
9.88502e-09
1.02814e-08
1.0171e-07
1.09705e-07
7.64687e-09
-1.11112e-07
1.08183e-07
8.49376e-09
1.06519e-07
9.29678e-09
1.04737e-07
9.9815e-09
1.02927e-07
1.04504e-08
1.01182e-07
1.07248e-08
9.9488e-08
1.09626e-08
9.78285e-08
1.1217e-08
9.61601e-08
1.15534e-08
1.19908e-08
9.44508e-08
1.02478e-07
9.17507e-09
-1.04006e-07
1.0089e-07
1.00818e-08
9.91385e-08
1.10484e-08
9.71359e-08
1.19842e-08
9.51542e-08
1.24321e-08
9.34069e-08
1.24722e-08
9.1814e-08
1.25556e-08
9.02134e-08
1.28176e-08
8.85558e-08
1.32109e-08
1.37254e-08
8.68212e-08
9.42093e-08
1.08983e-08
-9.59324e-08
9.26301e-08
1.16613e-08
9.11206e-08
1.2558e-08
8.88042e-08
1.43008e-08
8.70913e-08
1.41451e-08
8.57359e-08
1.38277e-08
8.42619e-08
1.40297e-08
8.26318e-08
1.44478e-08
8.08421e-08
1.50006e-08
1.56509e-08
7.89166e-08
8.4712e-08
1.33928e-08
-8.72064e-08
8.32402e-08
1.31335e-08
8.18513e-08
1.3947e-08
8.23196e-08
1.38327e-08
8.14302e-08
1.50346e-08
7.97982e-08
1.54599e-08
7.78285e-08
1.59995e-08
7.56222e-08
1.66542e-08
7.32492e-08
1.73736e-08
1.81274e-08
7.07727e-08
8.08726e-08
1.26408e-08
-8.01204e-08
7.98813e-08
1.4125e-08
7.91024e-08
1.4726e-08
7.71103e-08
1.58249e-08
7.54236e-08
1.67215e-08
7.32488e-08
1.76347e-08
7.06417e-08
1.86068e-08
6.77487e-08
1.95472e-08
6.46845e-08
2.04377e-08
2.12621e-08
6.15498e-08
7.66753e-08
1.38936e-08
-7.7928e-08
7.56408e-08
1.51594e-08
7.38408e-08
1.65261e-08
7.17393e-08
1.79265e-08
6.90762e-08
1.93848e-08
6.58984e-08
2.08126e-08
6.23699e-08
2.21354e-08
5.85759e-08
2.33412e-08
5.46589e-08
2.43546e-08
2.51594e-08
5.07616e-08
7.162e-08
1.53255e-08
-7.3052e-08
6.96796e-08
1.70998e-08
6.72315e-08
1.89743e-08
6.42306e-08
2.09275e-08
6.06977e-08
2.29177e-08
5.66589e-08
2.48514e-08
5.21571e-08
2.66371e-08
4.73609e-08
2.81372e-08
4.24833e-08
2.9232e-08
2.98749e-08
3.77678e-08
6.41132e-08
1.7518e-08
-6.63057e-08
6.14525e-08
1.97608e-08
5.82733e-08
2.21536e-08
5.45376e-08
2.46631e-08
5.02077e-08
2.72475e-08
4.52394e-08
2.98195e-08
3.96545e-08
3.22218e-08
3.36322e-08
3.41594e-08
2.75739e-08
3.52903e-08
3.55049e-08
2.19439e-08
5.38832e-08
2.04517e-08
-5.68169e-08
5.04972e-08
2.31471e-08
4.66224e-08
2.60284e-08
4.21986e-08
2.90868e-08
3.71216e-08
3.23244e-08
3.12612e-08
3.56797e-08
2.44293e-08
3.90535e-08
1.67803e-08
4.18083e-08
9.23611e-09
4.28344e-08
4.21757e-08
2.56534e-09
4.05643e-08
2.42656e-08
-4.4378e-08
3.63264e-08
2.73853e-08
3.16094e-08
3.07453e-08
2.63505e-08
3.43456e-08
2.04685e-08
3.82063e-08
1.37902e-08
4.23579e-08
5.86858e-09
4.69751e-08
-3.9789e-09
5.16558e-08
-1.43205e-08
5.3176e-08
4.88554e-08
-2.10001e-08
2.39347e-08
2.92551e-08
-2.89241e-08
1.84331e-08
3.28869e-08
1.23536e-08
3.68248e-08
5.60574e-09
4.10935e-08
-1.86186e-09
4.5674e-08
-1.02221e-08
5.07182e-08
-1.95774e-08
5.63306e-08
-3.19574e-08
6.40359e-08
-4.09093e-08
6.21279e-08
5.23854e-08
-4.44393e-08
5.00895e-09
3.5433e-08
-1.11869e-08
-1.70069e-09
3.95965e-08
-9.07365e-09
4.41978e-08
-1.71752e-08
4.91952e-08
-2.62467e-08
5.47456e-08
-3.63251e-08
6.07968e-08
-4.61854e-08
6.6191e-08
-5.0302e-08
6.81528e-08
-5.27913e-08
6.46172e-08
5.74667e-08
-5.78725e-08
-1.52346e-08
4.26088e-08
8.05876e-09
-2.2749e-08
4.71109e-08
-3.05603e-08
5.20091e-08
-3.91709e-08
5.7806e-08
-4.83708e-08
6.39456e-08
-5.66688e-08
6.90951e-08
-6.29489e-08
7.24714e-08
-6.68942e-08
7.20982e-08
-7.00163e-08
6.77393e-08
6.23093e-08
-7.48588e-08
-3.70987e-08
5.09882e-08
2.87193e-08
-4.57261e-08
5.57378e-08
-5.44358e-08
6.07189e-08
-6.30127e-08
6.63831e-08
-6.90315e-08
6.99647e-08
-7.36669e-08
7.37307e-08
-7.90698e-08
7.78745e-08
-8.3519e-08
7.65475e-08
-8.86932e-08
7.29135e-08
6.88986e-08
-9.52825e-08
-5.75752e-08
5.98981e-08
4.86651e-08
-6.64286e-08
6.45905e-08
-7.49701e-08
6.92603e-08
-8.15987e-08
7.30118e-08
-8.77163e-08
7.60824e-08
-9.52771e-08
8.12915e-08
-1.00636e-07
8.32335e-08
-1.06742e-07
8.26533e-08
-1.14024e-07
8.0196e-08
7.69057e-08
-1.22031e-07
-7.90707e-08
6.96277e-08
6.93409e-08
-8.87119e-08
7.4232e-08
-9.79608e-08
7.85093e-08
-1.07463e-07
8.25139e-08
-1.17564e-07
8.61836e-08
-1.24907e-07
8.8634e-08
-1.31722e-07
9.00488e-08
-1.39055e-07
8.99857e-08
-1.47289e-07
8.843e-08
8.57797e-08
-1.56163e-07
-1.02357e-07
8.07483e-08
9.12362e-08
-1.13484e-07
8.53596e-08
-1.24398e-07
8.94235e-08
-1.34898e-07
9.30129e-08
-1.44714e-07
9.59997e-08
-1.54304e-07
9.82249e-08
-1.63743e-07
9.94878e-08
-1.73525e-07
9.97676e-08
-1.84361e-07
9.92658e-08
9.63732e-08
-1.94954e-07
-1.25913e-07
9.32483e-08
1.13413e-07
-1.38403e-07
9.7849e-08
-1.505e-07
1.01519e-07
-1.6235e-07
1.04863e-07
-1.74061e-07
1.07711e-07
-1.85792e-07
1.09956e-07
-1.97863e-07
1.11559e-07
-2.10353e-07
1.12258e-07
-2.22409e-07
1.11322e-07
1.08299e-07
-2.34335e-07
-1.51218e-07
1.07124e-07
1.37342e-07
-1.64242e-07
1.10873e-07
-1.77247e-07
1.14524e-07
-1.90447e-07
1.18063e-07
-2.03874e-07
1.21138e-07
-2.17665e-07
1.23747e-07
-2.31784e-07
1.25678e-07
-2.46093e-07
1.26567e-07
-2.60706e-07
1.25935e-07
1.22682e-07
-2.75089e-07
-1.77378e-07
1.19681e-07
1.64821e-07
-1.89529e-07
1.23025e-07
-2.03282e-07
1.28277e-07
-2.1822e-07
1.33e-07
-2.33834e-07
1.36752e-07
-2.49632e-07
1.39544e-07
-2.661e-07
1.42146e-07
-2.83236e-07
1.43703e-07
-3.01144e-07
1.43843e-07
1.4099e-07
-3.19452e-07
-1.9081e-07
1.31864e-07
1.78626e-07
-2.05793e-07
1.38008e-07
-2.24496e-07
1.46981e-07
-2.45482e-07
1.53986e-07
-2.65594e-07
1.56864e-07
-2.83938e-07
1.57888e-07
-3.0192e-07
1.60129e-07
-3.21009e-07
1.62792e-07
-3.42833e-07
1.65667e-07
1.68199e-07
-3.70042e-07
-2.04613e-07
1.45428e-07
1.91049e-07
-2.22245e-07
1.5564e-07
-2.50464e-07
1.752e-07
-2.85264e-07
1.88786e-07
-3.07885e-07
1.79484e-07
-3.26043e-07
1.76046e-07
-3.44107e-07
1.78193e-07
-3.65689e-07
1.84373e-07
-3.90014e-07
1.89992e-07
1.90083e-07
-4.11898e-07
-2.22184e-07
1.63647e-07
2.03965e-07
-2.50473e-07
1.8393e-07
-2.8946e-07
2.14187e-07
-3.20384e-07
2.1971e-07
-3.43542e-07
2.02643e-07
-3.65608e-07
1.98113e-07
-3.85331e-07
1.97916e-07
-4.0602e-07
2.05062e-07
-4.26393e-07
2.10364e-07
2.09301e-07
-4.45611e-07
-2.63122e-07
1.8469e-07
2.42079e-07
-2.95393e-07
2.16199e-07
-3.21141e-07
2.39934e-07
-3.4434e-07
2.42908e-07
-3.71485e-07
2.29787e-07
-3.93149e-07
2.19776e-07
-4.14597e-07
2.19364e-07
-4.31071e-07
2.21535e-07
-4.47904e-07
2.27196e-07
2.26543e-07
-4.65146e-07
-2.88484e-07
2.11974e-07
2.612e-07
-3.16144e-07
2.4386e-07
-3.3849e-07
2.62281e-07
-3.58686e-07
2.63104e-07
-3.78662e-07
2.49764e-07
-3.98625e-07
2.39738e-07
-4.16634e-07
2.37374e-07
-4.34188e-07
2.39089e-07
-4.50638e-07
2.43646e-07
2.44664e-07
-4.68758e-07
-3.0618e-07
2.30173e-07
2.8798e-07
-3.23323e-07
2.61001e-07
-3.38478e-07
2.77434e-07
-3.51692e-07
2.76318e-07
-3.67583e-07
2.65654e-07
-3.86382e-07
2.58538e-07
-4.05185e-07
2.56177e-07
-4.23364e-07
2.57267e-07
-4.40287e-07
2.60569e-07
2.62759e-07
-4.58382e-07
-3.04573e-07
2.3824e-07
2.96506e-07
-3.11562e-07
2.67992e-07
-3.20007e-07
2.85879e-07
-3.28741e-07
2.85052e-07
-3.43413e-07
2.80326e-07
-3.62712e-07
2.77836e-07
-3.82857e-07
2.76322e-07
-4.01687e-07
2.76096e-07
-4.18958e-07
2.77841e-07
2.80153e-07
-4.36353e-07
-3.00118e-07
2.39819e-07
2.98539e-07
-2.95873e-07
2.63747e-07
-3.00418e-07
2.90424e-07
-3.06671e-07
2.91304e-07
-3.20795e-07
2.94449e-07
-3.42054e-07
2.99095e-07
-3.64077e-07
2.98345e-07
-3.806e-07
2.92619e-07
-3.96407e-07
2.93648e-07
2.96253e-07
-4.12506e-07
-2.97905e-07
2.40252e-07
2.97471e-07
-3.01704e-07
2.67547e-07
-2.99482e-07
2.88202e-07
-3.04695e-07
2.96517e-07
-3.15741e-07
3.05495e-07
-3.30475e-07
3.13829e-07
-3.44711e-07
3.12582e-07
-3.58332e-07
3.06241e-07
-3.67963e-07
3.03278e-07
3.06043e-07
-3.77753e-07
-3.1516e-07
2.43496e-07
3.11916e-07
-3.14744e-07
2.67132e-07
-3.16777e-07
2.90234e-07
-3.22409e-07
3.02149e-07
-3.26489e-07
3.09574e-07
-3.26766e-07
3.14106e-07
-3.26774e-07
3.12589e-07
-3.29884e-07
3.09351e-07
-3.33823e-07
3.07217e-07
3.03232e-07
-3.31014e-07
-3.21741e-07
2.54371e-07
3.10866e-07
-3.34604e-07
2.79994e-07
-3.37125e-07
2.92756e-07
-3.32923e-07
2.97946e-07
-3.24713e-07
3.01364e-07
-3.1447e-07
3.03864e-07
-3.08185e-07
3.06304e-07
-3.02125e-07
3.03291e-07
-2.92316e-07
2.97409e-07
2.92083e-07
-2.81167e-07
-3.22949e-07
2.79199e-07
2.98121e-07
-3.35099e-07
2.92144e-07
-3.37185e-07
2.94841e-07
-3.32167e-07
2.92928e-07
-3.18283e-07
2.87479e-07
-3.03506e-07
2.89087e-07
-2.88119e-07
2.90917e-07
-2.7182e-07
2.86992e-07
-2.55034e-07
2.80623e-07
2.73011e-07
-2.35962e-07
-3.12693e-07
2.99009e-07
2.92883e-07
-3.13494e-07
2.92945e-07
-3.06928e-07
2.88276e-07
-2.97022e-07
2.83022e-07
-2.87147e-07
2.77604e-07
-2.72717e-07
2.74658e-07
-2.54069e-07
2.72269e-07
-2.35053e-07
2.67976e-07
-2.16284e-07
2.61854e-07
2.56459e-07
-1.99732e-07
-2.60112e-07
3.0703e-07
2.5209e-07
-2.62286e-07
2.95118e-07
-2.58643e-07
2.84633e-07
-2.51464e-07
2.75843e-07
-2.42245e-07
2.68385e-07
-2.29998e-07
2.62411e-07
-2.14922e-07
2.57193e-07
-1.98838e-07
2.51891e-07
-1.8352e-07
2.46536e-07
2.41883e-07
-1.68943e-07
-2.16346e-07
3.06091e-07
2.17286e-07
-2.14433e-07
2.93207e-07
-2.10973e-07
2.81173e-07
-2.05617e-07
2.70486e-07
-1.98425e-07
2.61194e-07
-1.89241e-07
2.53227e-07
-1.78373e-07
2.46325e-07
-1.66703e-07
2.40221e-07
-1.55062e-07
2.34895e-07
2.30516e-07
-1.43695e-07
-1.68949e-07
3.0347e-07
1.71571e-07
-1.67456e-07
2.91714e-07
-1.65171e-07
2.78888e-07
-1.61808e-07
2.67123e-07
-1.57229e-07
2.56615e-07
-1.5146e-07
2.47458e-07
-1.4472e-07
2.39585e-07
-1.37396e-07
2.32897e-07
-1.29854e-07
2.27352e-07
2.22974e-07
-1.22312e-07
-1.23936e-07
2.96922e-07
1.30484e-07
-1.23985e-07
2.91764e-07
-1.23342e-07
2.78244e-07
-1.2187e-07
2.65651e-07
-1.19864e-07
2.54608e-07
-1.17263e-07
2.44857e-07
-1.14201e-07
2.36523e-07
-1.10873e-07
2.29569e-07
-1.0742e-07
2.23899e-07
2.19447e-07
-1.03893e-07
-9.24487e-08
2.80481e-07
1.08889e-07
-8.75742e-08
2.86893e-07
-8.77458e-08
2.78415e-07
-8.80573e-08
2.65962e-07
-8.79707e-08
2.54522e-07
-8.77727e-08
2.44659e-07
-8.75568e-08
2.36307e-07
-8.76564e-08
2.29668e-07
-8.8132e-08
2.24375e-07
2.20196e-07
-8.88807e-08
-8.63958e-08
2.55281e-07
1.11596e-07
-7.02155e-08
2.70714e-07
-6.43027e-08
2.72502e-07
-6.43811e-08
2.66041e-07
-6.4624e-08
2.54765e-07
-6.39337e-08
2.43969e-07
-6.44565e-08
2.36831e-07
-6.64175e-08
2.3163e-07
-6.96439e-08
2.27602e-07
2.24406e-07
-7.38544e-08
-1.0105e-07
2.30535e-07
1.25796e-07
-7.7731e-08
2.47397e-07
-6.07753e-08
2.55546e-07
-4.96608e-08
2.54927e-07
-4.36079e-08
2.48712e-07
-4.11025e-08
2.41464e-07
-4.15055e-08
2.37234e-07
-4.39898e-08
2.34114e-07
-4.81393e-08
2.31751e-07
2.29902e-07
-5.3635e-08
-1.07367e-07
2.14864e-07
1.23037e-07
-8.68762e-08
2.26904e-07
-5.97723e-08
2.28442e-07
-3.98903e-08
2.35045e-07
-2.94114e-08
2.38233e-07
-2.50879e-08
2.3714e-07
-2.35361e-08
2.35682e-07
-2.37255e-08
2.34303e-07
-2.51651e-08
2.33191e-07
2.32318e-07
-2.75811e-08
-8.64384e-08
2.05073e-07
9.6229e-08
-7.30511e-08
2.13517e-07
-6.06264e-08
2.16018e-07
-4.64967e-08
2.20916e-07
-3.43383e-08
2.26074e-07
-2.53518e-08
2.28154e-07
-1.88837e-08
2.29214e-07
-1.41621e-08
2.29582e-07
-1.06834e-08
2.29712e-07
2.29699e-07
-8.06462e-09
-6.52065e-08
2.01064e-07
6.92164e-08
-6.00099e-08
2.08321e-07
-5.42122e-08
2.1022e-07
-4.51431e-08
2.11846e-07
-3.46698e-08
2.15601e-07
-2.58386e-08
2.19322e-07
-1.83811e-08
2.21756e-07
-1.16984e-08
2.22899e-07
-5.81107e-09
2.23825e-07
2.24464e-07
-5.76284e-10
-4.19288e-08
2.0379e-07
3.92021e-08
-4.9386e-08
2.15778e-07
-4.49192e-08
2.05753e-07
-3.42931e-08
2.0122e-07
-2.64425e-08
2.0775e-07
-2.08723e-08
2.13752e-07
-1.42983e-08
2.15182e-07
-6.07503e-09
2.14676e-07
2.05141e-09
2.15698e-07
2.16068e-07
1.04474e-08
-3.06748e-09
2.05264e-07
1.59357e-09
-2.78659e-08
2.40576e-07
-2.20639e-08
1.99951e-07
-1.09404e-08
1.90096e-07
-2.46087e-09
1.9927e-07
1.80107e-09
2.0949e-07
8.43021e-09
2.08553e-07
2.07545e-08
2.02352e-07
4.05715e-08
1.95883e-07
1.80453e-07
7.61882e-08
5.22882e-08
1.84946e-07
-3.1969e-08
7.10157e-08
2.21852e-07
5.49982e-08
2.1597e-07
4.16064e-08
2.03488e-07
4.79581e-08
1.92919e-07
7.137e-08
1.86079e-07
1.02411e-07
1.77513e-07
1.40316e-07
1.64448e-07
1.88826e-07
1.47374e-07
1.29565e-07
2.39714e-07
8.13406e-08
1.43857e-07
-4.02512e-08
1.32262e-07
1.70928e-07
1.68543e-07
1.7969e-07
1.96101e-07
1.75932e-07
2.21487e-07
1.67535e-07
2.51194e-07
1.56375e-07
2.85939e-07
1.42771e-07
3.21643e-07
1.28746e-07
3.5234e-07
1.16677e-07
1.04261e-07
3.77646e-07
4.65659e-08
1.09446e-07
-1.21543e-08
1.05106e-07
1.12388e-07
1.60885e-07
1.2391e-07
2.11878e-07
1.2494e-07
2.57807e-07
1.21605e-07
2.99201e-07
1.14982e-07
3.34442e-07
1.0753e-07
3.65214e-07
9.79731e-08
3.90848e-07
9.10431e-08
8.65203e-08
4.0859e-07
7.18693e-08
8.80641e-08
-5.04871e-08
9.86173e-08
8.56409e-08
1.43965e-07
7.85631e-08
1.93862e-07
7.50434e-08
2.42564e-07
7.29044e-08
2.86697e-07
7.08493e-08
3.2438e-07
6.98471e-08
3.53755e-07
6.85985e-08
3.78378e-07
6.64206e-08
6.32534e-08
4.01645e-07
1.16032e-07
5.77225e-08
-8.56906e-08
1.49155e-07
5.25184e-08
1.8118e-07
4.65382e-08
2.14683e-07
4.15396e-08
2.49233e-07
3.83546e-08
2.84111e-07
3.5971e-08
3.19503e-07
3.44559e-08
3.54738e-07
3.33628e-08
3.89414e-07
3.17447e-08
2.88437e-08
4.23824e-07
1.32172e-07
1.48246e-08
-8.92736e-08
1.72087e-07
1.26034e-08
2.09499e-07
9.12608e-09
2.45061e-07
5.97697e-09
2.81818e-07
1.59789e-09
3.20761e-07
-2.97138e-09
3.61875e-07
-6.6581e-09
4.04077e-07
-8.83931e-09
4.46604e-07
-1.07824e-08
-1.23582e-08
4.87805e-07
1.08703e-07
-3.57603e-08
-5.81185e-08
1.59579e-07
-3.8272e-08
2.0866e-07
-3.99544e-08
2.57578e-07
-4.29419e-08
3.08803e-07
-4.96267e-08
3.65286e-07
-5.94543e-08
4.22793e-07
-6.41649e-08
4.79036e-07
-6.50822e-08
5.35715e-07
-6.74624e-08
-6.78038e-08
5.91161e-07
5.50045e-08
-8.16218e-08
-9.14306e-09
1.06078e-07
-8.93461e-08
1.67575e-07
-1.0145e-07
2.46492e-07
-1.2186e-07
3.34477e-07
-1.37611e-07
4.21825e-07
-1.46802e-07
5.08967e-07
-1.51307e-07
5.97806e-07
-1.53921e-07
6.82077e-07
-1.51734e-07
-1.46561e-07
7.60835e-07
4.74547e-08
-1.51661e-07
2.25845e-08
1.36496e-07
-1.78389e-07
2.38655e-07
-2.0361e-07
3.39716e-07
-2.22921e-07
4.40053e-07
-2.37947e-07
5.38981e-07
-2.45729e-07
6.31357e-07
-2.43683e-07
7.14363e-07
-2.36928e-07
7.95851e-07
-2.33222e-07
-2.26688e-07
8.75978e-07
1.37459e-07
-2.48352e-07
-4.07678e-08
2.3319e-07
-2.74122e-07
3.23418e-07
-2.93838e-07
4.09261e-07
-3.08764e-07
4.89703e-07
-3.18389e-07
5.66038e-07
-3.22065e-07
6.41819e-07
-3.19464e-07
7.1823e-07
-3.1334e-07
7.90761e-07
-3.05753e-07
-2.95733e-07
8.59807e-07
1.41706e-07
-3.31625e-07
-5.84334e-08
2.22146e-07
-3.54562e-07
3.01482e-07
-3.73174e-07
3.80179e-07
-3.87461e-07
4.58353e-07
-3.96563e-07
5.36164e-07
-3.99876e-07
6.14229e-07
-3.9753e-07
6.91521e-07
-3.90631e-07
7.65849e-07
-3.80081e-07
-3.65815e-07
8.35932e-07
8.70697e-08
-4.12295e-07
-6.399e-09
1.69755e-07
-4.37247e-07
2.5366e-07
-4.57079e-07
3.37759e-07
-4.7156e-07
4.21512e-07
-4.80316e-07
5.04706e-07
-4.8307e-07
5.87015e-07
-4.79839e-07
6.67327e-07
-4.70943e-07
7.43993e-07
-4.56747e-07
-4.37486e-07
8.15664e-07
2.41531e-08
-4.96993e-07
6.05446e-08
1.11454e-07
-5.24548e-07
2.0024e-07
-5.45864e-07
2.89447e-07
-5.60768e-07
3.78209e-07
-5.69078e-07
4.65784e-07
-5.70646e-07
5.51358e-07
-5.65413e-07
6.33818e-07
-5.53403e-07
7.11739e-07
-5.34669e-07
-5.09283e-07
7.83537e-07
-4.57845e-08
-5.8531e-07
1.34101e-07
4.47504e-08
-6.15083e-07
1.36458e-07
-6.37572e-07
2.28297e-07
-6.52607e-07
3.19289e-07
-6.6007e-07
4.08491e-07
-6.59847e-07
4.94896e-07
-6.51818e-07
5.77315e-07
-6.35821e-07
6.54229e-07
-6.11582e-07
-5.78649e-07
7.23594e-07
-1.20283e-07
-6.75846e-07
2.1082e-07
-2.81516e-08
-7.07215e-07
6.43914e-08
-7.30115e-07
1.56273e-07
-7.44488e-07
2.46478e-07
-7.50275e-07
3.34016e-07
-7.47385e-07
4.17865e-07
-7.35667e-07
4.96898e-07
-7.14854e-07
5.69705e-07
-6.8439e-07
-6.42926e-07
6.33982e-07
-1.898e-07
-7.66999e-07
2.80953e-07
-9.81559e-08
-7.98858e-07
-7.19746e-09
-8.21074e-07
8.21128e-08
-8.33799e-07
1.68853e-07
-8.37015e-07
2.521e-07
-8.30633e-07
3.30951e-07
-8.14518e-07
4.04554e-07
-7.88458e-07
4.72102e-07
-7.51938e-07
-7.03425e-07
5.32601e-07
-2.43253e-07
-8.56137e-07
3.32391e-07
-1.54766e-07
-8.87345e-07
-6.78737e-08
-9.07966e-07
1.66933e-08
-9.18366e-07
9.81887e-08
-9.18511e-07
1.75833e-07
-9.08277e-07
2.4891e-07
-8.87595e-07
3.16929e-07
-8.56477e-07
3.79903e-07
-8.14912e-07
-7.63366e-07
4.39845e-07
-2.72141e-07
-9.39295e-07
3.55298e-07
-1.9027e-07
-9.69216e-07
-1.10173e-07
-9.88063e-07
-3.23093e-08
-9.9623e-07
4.26849e-08
-9.93505e-07
1.14036e-07
-9.79627e-07
1.81057e-07
-9.54616e-07
2.43391e-07
-9.18812e-07
3.01227e-07
-8.72749e-07
-8.17243e-07
3.55104e-07
-2.74617e-07
-1.01215e-06
3.47475e-07
-2.02949e-07
-1.04089e-06
-1.32353e-07
-1.05866e-06
-6.30017e-08
-1.06558e-06
4.46735e-09
-1.06097e-06
6.90994e-08
-1.04426e-06
1.29977e-07
-1.01549e-06
1.86597e-07
-9.75432e-07
2.38968e-07
-9.2512e-07
-8.62349e-07
2.84074e-07
-2.55769e-07
-1.07166e-06
3.15273e-07
-1.9675e-07
-1.0999e-06
-1.37552e-07
-1.11786e-06
-7.80692e-08
-1.12506e-06
-1.89562e-08
-1.12009e-06
3.86345e-08
-1.10185e-06
9.36519e-08
-1.07051e-06
1.45874e-07
-1.02765e-06
1.96402e-07
-9.75649e-07
-9.1075e-07
2.44803e-07
-2.22886e-07
-1.11653e-06
2.6776e-07
-1.77593e-07
-1.1452e-06
-1.30635e-07
-1.16481e-06
-8.18012e-08
-1.1739e-06
-3.18997e-08
-1.16999e-06
1.75018e-08
-1.15125e-06
6.47296e-08
-1.11774e-06
1.08836e-07
-1.07176e-06
1.50029e-07
-1.01684e-06
-9.46031e-07
1.8531e-07
-1.83038e-07
-1.14684e-06
2.1335e-07
-1.51192e-07
-1.17704e-06
-1.16191e-07
-1.19982e-06
-7.78271e-08
-1.21226e-06
-3.70691e-08
-1.21075e-06
4.23922e-09
-1.19256e-06
4.39967e-08
-1.1575e-06
8.07027e-08
-1.10847e-06
1.1416e-07
-1.0503e-06
-9.7311e-07
1.41238e-07
-1.42947e-07
-1.16412e-06
1.60225e-07
-1.22909e-07
-1.19708e-06
-9.853e-08
-1.2242e-06
-6.97535e-08
-1.24104e-06
-3.77207e-08
-1.24278e-06
-4.39345e-09
-1.22589e-06
2.79423e-08
-1.18983e-06
5.74432e-08
-1.13797e-06
8.34415e-08
-1.0763e-06
-9.92179e-07
1.02511e-07
-1.06815e-07
-1.17029e-06
1.12987e-07
-9.62329e-08
-1.20766e-06
-8.04504e-08
-1.23998e-06
-5.99155e-08
-1.26157e-06
-3.59509e-08
-1.26674e-06
-1.0476e-08
-1.25136e-06
1.42675e-08
-1.21458e-06
3.6269e-08
-1.15997e-06
5.44926e-08
-1.09452e-06
-1.00395e-06
6.6265e-08
-7.52358e-08
-1.1678e-06
7.27397e-08
-7.15383e-08
-1.21136e-06
-6.23285e-08
-1.24919e-06
-4.86545e-08
-1.27525e-06
-3.18636e-08
-1.28354e-06
-1.36285e-08
-1.2696e-06
4.08055e-09
-1.23229e-06
1.93064e-08
-1.1752e-06
3.06894e-08
-1.1059e-06
-1.00972e-06
3.64547e-08
-4.80208e-08
-1.16035e-06
4.05705e-08
-4.86092e-08
-1.21077e-06
-4.42773e-08
-1.25352e-06
-3.62331e-08
-1.28329e-06
-2.55611e-08
-1.29421e-06
-1.34842e-08
-1.28168e-06
-1.51524e-09
-1.24426e-06
8.71196e-09
-1.18542e-06
1.57679e-08
-1.11296e-06
-1.0127e-06
1.87525e-08
-2.59783e-08
-1.15228e-06
1.79106e-08
-2.83751e-08
-1.20838e-06
-2.74919e-08
-1.2544e-06
-2.39909e-08
-1.28679e-06
-1.83722e-08
-1.29983e-06
-1.13613e-08
-1.28869e-06
-4.02459e-09
-1.25159e-06
2.39814e-09
-1.19185e-06
6.79729e-09
-1.11736e-06
-1.01442e-06
8.51818e-09
-5.67576e-09
-1.14406e-06
-2.54128e-09
-1.0318e-08
-1.20373e-06
-1.2922e-08
-1.2518e-06
-1.34944e-08
-1.28622e-06
-1.2078e-08
-1.30124e-06
-9.16851e-09
-1.2916e-06
-5.59814e-09
-1.25516e-06
-2.20795e-09
-1.19524e-06
-8.93753e-13
-1.11957e-06
-1.01498e-06
5.61148e-10
9.92306e-09
-1.13352e-06
-2.04662e-08
1.981e-09
-1.19579e-06
-3.92618e-09
-1.24589e-06
-7.60475e-09
-1.28254e-06
-9.11361e-09
-1.29973e-06
-9.07979e-09
-1.29163e-06
-8.35837e-09
-1.25588e-06
-7.48666e-09
-1.19611e-06
-7.16098e-09
-1.11989e-06
-1.01464e-06
-7.50201e-09
1.04748e-08
-1.12384e-06
-2.01552e-08
2.02696e-09
-1.18734e-06
-4.41997e-09
-1.23945e-06
-8.74074e-09
-1.27822e-06
-1.11158e-08
-1.29736e-06
-1.22984e-08
-1.29045e-06
-1.3186e-08
-1.255e-06
-1.40177e-08
-1.19528e-06
-1.50375e-08
-1.11887e-06
-1.01388e-06
-1.58039e-08
-2.05599e-09
-1.11328e-06
-8.49864e-09
-8.25877e-09
-1.18114e-06
-1.24175e-08
-1.23529e-06
-1.51566e-08
-1.27548e-06
-1.66124e-08
-1.2959e-06
-1.75126e-08
-1.28955e-06
-1.87638e-08
-1.25375e-06
-2.03646e-08
-1.19368e-06
-2.21709e-08
-1.11707e-06
-1.01316e-06
-2.28829e-08
-2.20933e-08
-1.11284e-06
2.16489e-08
-2.19324e-08
-1.1813e-06
-2.20096e-08
-1.23521e-06
-2.21498e-08
-1.27534e-06
-2.18517e-08
-1.2962e-06
-2.15393e-08
-1.28986e-06
-2.19912e-08
-1.25329e-06
-2.30408e-08
-1.19263e-06
-2.4686e-08
-1.11542e-06
-1.01132e-06
-2.65335e-08
-2.92098e-08
-1.11719e-06
3.35633e-08
-2.64347e-08
-1.18408e-06
-2.53218e-08
-1.23632e-06
-2.48054e-08
-1.27586e-06
-2.38835e-08
-1.29712e-06
-2.28338e-08
-1.29091e-06
-2.23406e-08
-1.25379e-06
-2.20582e-08
-1.19291e-06
-2.19298e-08
-1.11555e-06
-1.01234e-06
-2.09052e-08
-2.39831e-08
-1.12e-06
2.67929e-08
-2.32314e-08
-1.18483e-06
-2.36301e-08
-1.23592e-06
-2.40485e-08
-1.27544e-06
-2.35596e-08
-1.29761e-06
-2.25068e-08
-1.29196e-06
-2.15522e-08
-1.25474e-06
-2.03898e-08
-1.19407e-06
-1.93975e-08
-1.11654e-06
-1.01293e-06
-1.8813e-08
-2.16655e-08
-1.12019e-06
2.185e-08
-2.21144e-08
-1.18438e-06
-2.29267e-08
-1.23511e-06
-2.35013e-08
-1.27487e-06
-2.31081e-08
-1.298e-06
-2.18364e-08
-1.29323e-06
-1.99465e-08
-1.25663e-06
-1.71404e-08
-1.19688e-06
-1.40998e-08
-1.11958e-06
-1.01605e-06
-1.09722e-08
-2.64002e-08
-1.12311e-06
2.93229e-08
-2.46903e-08
-1.18609e-06
-2.39805e-08
-1.23582e-06
-2.38149e-08
-1.27503e-06
-2.3456e-08
-1.29836e-06
-2.22675e-08
-1.29442e-06
-1.96867e-08
-1.25921e-06
-1.55247e-08
-1.20104e-06
-1.08422e-08
-1.12426e-06
-1.02048e-06
-6.41251e-09
-2.60765e-08
-1.12844e-06
3.14074e-08
-2.37535e-08
-1.18841e-06
-2.28711e-08
-1.2367e-06
-2.30089e-08
-1.27489e-06
-2.37478e-08
-1.29763e-06
-2.35943e-08
-1.29458e-06
-2.09263e-08
-1.26188e-06
-1.59594e-08
-1.20601e-06
-1.03036e-08
-1.12992e-06
-1.02538e-06
-5.40707e-09
-1.6283e-08
-1.12254e-06
1.03849e-08
-1.88708e-08
-1.18583e-06
-2.00916e-08
-1.23548e-06
-2.15133e-08
-1.27347e-06
-2.4188e-08
-1.29495e-06
-2.58313e-08
-1.29293e-06
-2.35066e-08
-1.2642e-06
-1.7933e-08
-1.21158e-06
-1.12209e-08
-1.13663e-06
-1.03087e-06
-5.73517e-09
-2.0982e-08
-1.11992e-06
1.83581e-08
-2.13306e-08
-1.18548e-06
-2.08661e-08
-1.23595e-06
-2.17014e-08
-1.27264e-06
-2.56624e-08
-1.29099e-06
-2.90426e-08
-1.28955e-06
-2.71425e-08
-1.2661e-06
-2.08562e-08
-1.21787e-06
-1.23354e-08
-1.14515e-06
-1.03808e-06
-5.11824e-09
-2.83471e-08
-1.1182e-06
2.66323e-08
-2.55725e-08
-1.18825e-06
-2.26707e-08
-1.23885e-06
-2.24681e-08
-1.27284e-06
-2.71979e-08
-1.28626e-06
-3.18249e-08
-1.28493e-06
-3.02659e-08
-1.26766e-06
-2.32427e-08
-1.22489e-06
-1.20352e-08
-1.15636e-06
-1.04902e-06
-1.10359e-09
-3.60543e-08
-1.12352e-06
4.13766e-08
-2.83677e-08
-1.19594e-06
-2.30165e-08
-1.2442e-06
-2.1815e-08
-1.27404e-06
-2.66922e-08
-1.28138e-06
-3.184e-08
-1.27978e-06
-3.05089e-08
-1.26899e-06
-2.28845e-08
-1.23251e-06
-8.26488e-09
-1.17098e-06
-1.06678e-06
9.49551e-09
-3.51406e-08
-1.13144e-06
4.30543e-08
-2.49132e-08
-1.20617e-06
-1.86194e-08
-1.25049e-06
-1.71197e-08
-1.27554e-06
-2.19109e-08
-1.27659e-06
-2.72034e-08
-1.27449e-06
-2.6402e-08
-1.2698e-06
-1.90534e-08
-1.23986e-06
-2.00703e-09
-1.18803e-06
-1.10012e-06
3.13346e-08
-3.61981e-08
-1.17262e-06
7.73801e-08
-1.91307e-08
-1.22323e-06
-1.11036e-08
-1.25852e-06
-9.56077e-09
-1.27708e-06
-1.36183e-08
-1.27253e-06
-1.77934e-08
-1.27031e-06
-1.65944e-08
-1.271e-06
-9.44979e-09
-1.24701e-06
3.97943e-09
-1.20146e-06
-1.13219e-06
3.6052e-08
-3.53501e-09
-1.1856e-06
1.65188e-08
-2.65435e-09
-1.22411e-06
-2.73165e-10
-1.2609e-06
-1.72359e-09
-1.27563e-06
-6.13283e-09
-1.26812e-06
-9.29366e-09
-1.26715e-06
-6.82783e-09
-1.27346e-06
4.46338e-09
-1.2583e-06
2.02798e-08
-1.21727e-06
-1.17708e-06
6.51682e-08
5.02427e-10
-1.19217e-06
6.0669e-09
1.66864e-11
-1.22363e-06
4.43858e-09
-1.26532e-06
1.78529e-09
-1.27298e-06
-3.15689e-09
-1.26318e-06
-7.55867e-09
-1.26275e-06
-8.77492e-09
-1.27225e-06
-4.94128e-10
-1.26658e-06
4.83937e-09
-1.22261e-06
-1.18916e-06
1.69178e-08
9.15668e-09
-1.17443e-06
-2.68976e-08
6.2719e-09
-1.22074e-06
1.07345e-08
-1.26979e-06
4.85134e-09
-1.2671e-06
-1.66434e-09
-1.25667e-06
-7.92046e-09
-1.25649e-06
-1.33841e-08
-1.26678e-06
-7.53204e-09
-1.27243e-06
-8.03194e-09
-1.22211e-06
-1.16996e-06
-2.72306e-08
9.47723e-09
-1.13805e-06
-4.58611e-08
1.16359e-08
-1.2229e-06
1.65047e-08
-1.27466e-06
7.33292e-09
-1.25792e-06
-1.02613e-09
-1.24831e-06
-9.29988e-09
-1.24822e-06
-1.8468e-08
-1.25761e-06
-1.37137e-08
-1.27719e-06
-9.8314e-09
-1.22599e-06
-1.1312e-06
-4.85886e-08
-4.94928e-09
-1.07923e-06
-5.38634e-08
1.83584e-08
-1.24621e-06
2.1691e-08
-1.27799e-06
9.22819e-09
-1.24546e-06
-6.37798e-10
-1.23844e-06
-1.04668e-08
-1.23839e-06
-2.2864e-08
-1.24522e-06
-2.05868e-08
-1.27946e-06