/*--------------------------------*- C++ -*----------------------------------*\
  =========                 |
  \\      /  F ield         | OpenFOAM: The Open Source CFD Toolbox
   \\    /   O peration     | Website:  https://openfoam.org
    \\  /    A nd           | Version:  8
     \\/     M anipulation  |
\*---------------------------------------------------------------------------*/
FoamFile
{
    version     2.0;
    format      ascii;
    class       surfaceScalarField;
    location    "3.8";
    object      alphaPhi0.water;
}
// * * * * * * * * * * * * * * * * * * * * * * * * * * * * * * * * * * * * * //

dimensions      [0 3 -1 0 0 0 0];

internalField   nonuniform List<scalar> 
18095
(
1.96097e-08
-1.72017e-07
1.52407e-07
2.30562e-08
-1.98115e-07
1.94668e-07
1.94192e-08
-2.05815e-07
2.09452e-07
9.9616e-09
-2.10362e-07
2.1982e-07
-9.64104e-10
-2.13276e-07
2.24201e-07
-1.19143e-08
-2.13424e-07
2.24374e-07
-2.0351e-08
-2.11138e-07
2.19575e-07
-2.31434e-08
-2.05991e-07
2.08783e-07
-1.96318e-08
-1.97948e-07
1.94437e-07
-1.71913e-07
1.52282e-07
1.55158e-08
-1.87533e-07
1.57471e-08
-1.98346e-07
1.21284e-08
-2.02196e-07
7.00427e-09
-2.05238e-07
9.46779e-10
-2.07218e-07
-5.78423e-09
-2.06693e-07
-1.18172e-08
-2.05105e-07
-1.59059e-08
-2.01902e-07
-1.55598e-08
-1.98294e-07
-1.87473e-07
6.8427e-09
-1.94376e-07
8.30659e-09
-1.9981e-07
6.91732e-09
-2.00807e-07
3.41587e-09
-2.01737e-07
-8.99162e-10
-2.02903e-07
-4.76894e-09
-2.02823e-07
-7.42345e-09
-2.02451e-07
-8.32503e-09
-2.01001e-07
-6.85559e-09
-1.99764e-07
-1.94329e-07
4.54456e-09
-1.9892e-07
4.71299e-09
-1.99978e-07
4.03565e-09
-2.0013e-07
2.61497e-09
-2.00316e-07
5.03439e-10
-2.00792e-07
-1.53224e-09
-2.00788e-07
-3.59422e-09
-2.00389e-07
-4.71286e-09
-1.99882e-07
-4.57548e-09
-1.99901e-07
-1.98904e-07
1.07984e-09
1.10162e-09
9.7199e-10
6.55733e-10
-1.35854e-10
-9.23607e-10
-1.31246e-09
-1.19451e-09
-1.0958e-09
-2.68619e-08
-1.97173e-07
2.24035e-07
-2.93722e-08
-1.99163e-07
2.01673e-07
-2.48094e-08
-2.01727e-07
1.97164e-07
-1.36634e-08
-2.01706e-07
1.9056e-07
-3.32832e-11
-2.01955e-07
1.88325e-07
1.3438e-08
-2.01532e-07
1.88061e-07
2.40976e-08
-2.00649e-07
1.8999e-07
2.87113e-08
-2.00915e-07
1.96301e-07
2.62677e-08
-1.98573e-07
2.01016e-07
-1.96608e-07
2.22876e-07
-9.97496e-09
-1.87198e-07
-1.56781e-08
-1.93459e-07
-1.47838e-08
-2.02621e-07
-7.94711e-09
-2.08542e-07
-1.17232e-09
-2.0873e-07
5.91876e-09
-2.08624e-07
1.34294e-08
-2.0816e-07
1.51009e-08
-2.02586e-07
9.76061e-09
-1.93232e-07
-1.86848e-07
-1.09401e-08
-1.76258e-07
-8.98392e-09
-1.95416e-07
-6.52223e-09
-2.05083e-07
-4.39592e-09
-2.10669e-07
-4.8431e-11
-2.13077e-07
4.29626e-09
-2.12968e-07
6.19317e-09
-2.10057e-07
8.55445e-09
-2.04948e-07
1.06331e-08
-1.95311e-07
-1.76215e-07
-6.74785e-09
-1.6951e-07
-8.8863e-09
-1.93277e-07
-8.88854e-09
-2.05081e-07
-5.00723e-09
-2.1455e-07
-1.59976e-09
-2.16484e-07
2.22462e-09
-2.16793e-07
7.73456e-09
-2.15567e-07
8.58358e-09
-2.05797e-07
6.67095e-09
-1.93398e-07
-1.69544e-07
-1.71027e-08
-1.57119e-08
-1.13405e-08
-6.07027e-09
1.64658e-09
9.22837e-09
1.32368e-08
1.62236e-08
1.72622e-08
2.61663e-08
-1.60919e-07
1.34753e-07
3.14955e-08
-2.01382e-07
1.96053e-07
2.57154e-08
-2.1257e-07
2.1835e-07
1.57775e-08
-2.16445e-07
2.26383e-07
1.20641e-09
-2.17532e-07
2.32103e-07
-1.61653e-08
-2.17115e-07
2.34487e-07
-3.18673e-08
-2.14617e-07
2.30319e-07
-4.16246e-08
-2.08449e-07
2.18206e-07
-3.69306e-08
-1.96398e-07
1.91704e-07
-1.54572e-07
1.17642e-07
1.41902e-08
-1.7511e-07
1.54575e-08
-2.02649e-07
1.08693e-08
-2.07982e-07
2.91439e-09
-2.0849e-07
-6.2478e-09
-2.0837e-07
-1.48702e-08
-2.08493e-07
-2.02856e-08
-2.09202e-07
-2.2279e-08
-2.06456e-07
-1.84352e-08
-2.00242e-07
-1.73007e-07
9.85891e-09
-1.84968e-07
8.98189e-09
-2.01772e-07
7.43143e-09
-2.06431e-07
3.69675e-09
-2.04756e-07
1.30741e-10
-2.04804e-07
-4.14797e-09
-2.04214e-07
-8.91707e-09
-2.04432e-07
-1.03907e-08
-2.04982e-07
-1.03093e-08
-2.00323e-07
-1.83317e-07
7.38785e-09
-1.92356e-07
5.56766e-09
-1.99952e-07
5.66425e-09
-2.06528e-07
6.4727e-10
-1.99739e-07
-1.05494e-09
-2.03101e-07
-2.55283e-09
-2.02716e-07
-7.38425e-09
-1.99601e-07
-6.90342e-09
-2.05463e-07
-8.02184e-09
-1.99205e-07
-1.91339e-07
3.16787e-08
3.33996e-08
2.40358e-08
1.48567e-08
7.98607e-11
-1.45754e-08
-2.4187e-08
-3.33488e-08
-3.15376e-08
-1.39771e-07
-6.7226e-08
2.06999e-07
-8.17821e-08
-5.65497e-08
-5.21709e-08
-2.06248e-08
-5.04592e-08
4.74661e-10
-6.90254e-08
1.85366e-08
-1.01257e-07
2.94543e-08
-1.38165e-07
3.74796e-08
-1.94963e-07
5.93918e-08
-2.77174e-07
7.55651e-08
7.9459e-08
-3.90898e-07
-3.14474e-07
-1.0672e-07
3.54051e-07
-1.98947e-07
-7.38698e-08
-1.913e-07
-2.83048e-08
-2.00788e-07
9.94667e-09
-2.13607e-07
3.12616e-08
-2.34883e-07
5.05162e-08
-2.67018e-07
6.89279e-08
-3.83891e-07
9.73351e-08
-4.72463e-07
1.26016e-07
1.2925e-07
-5.22306e-07
-4.25829e-07
-1.19635e-07
4.80801e-07
-3.35461e-07
-7.93534e-08
-3.38454e-07
-2.53364e-08
-3.41099e-07
1.25594e-08
-3.50195e-07
4.02923e-08
-3.7737e-07
7.75119e-08
-4.41103e-07
9.53515e-08
-5.41014e-07
1.16788e-07
-5.46505e-07
1.31484e-07
1.45777e-07
-5.63069e-07
-5.11913e-07
-1.29577e-07
5.21961e-07
-3.80418e-07
-9.80718e-08
-3.75712e-07
-3.00756e-08
-3.75251e-07
1.20328e-08
-3.68999e-07
3.39117e-08
-3.90418e-07
8.15878e-08
-5.04214e-07
1.16175e-07
-5.16552e-07
1.2911e-07
-5.21653e-07
1.36568e-07
1.48186e-07
-5.24088e-07
-4.4571e-07
-1.205e-07
4.36719e-07
-4.78759e-07
-6.49164e-08
-4.9911e-07
-9.14245e-09
-4.07915e-07
2.1183e-08
-4.16958e-07
4.22301e-08
-5.03361e-07
9.57433e-08
-5.00773e-07
1.13571e-07
-4.92204e-07
1.20544e-07
-4.814e-07
1.25759e-07
1.32585e-07
-4.65845e-07
-4.01962e-07
-7.26682e-08
3.54209e-07
-4.53945e-07
-1.28465e-08
-4.79203e-07
1.83354e-08
-4.7632e-07
3.17947e-08
-4.94614e-07
5.71153e-08
-4.90105e-07
9.12204e-08
-4.82718e-07
1.06188e-07
-4.74041e-07
1.11869e-07
-4.61617e-07
1.13337e-07
1.14187e-07
-4.43215e-07
-3.76621e-07
1.01515e-08
2.93885e-07
-4.20512e-07
3.11311e-08
-4.42406e-07
3.81331e-08
-4.52642e-07
4.54545e-08
-4.63995e-07
6.78759e-08
-4.63416e-07
9.06564e-08
-4.57272e-07
9.97667e-08
-4.48989e-07
1.03043e-07
-4.38345e-07
1.02693e-07
1.01034e-07
-4.25191e-07
-4.18528e-07
6.39748e-08
3.65665e-07
-4.40246e-07
5.262e-08
-4.52748e-07
4.90462e-08
-4.63048e-07
5.39561e-08
-4.62367e-07
6.60386e-08
-4.4653e-07
8.17198e-08
-4.35563e-07
8.87767e-08
-4.23283e-07
9.0622e-08
-4.17764e-07
9.04736e-08
8.92057e-08
-4.05935e-07
-4.47378e-07
7.97801e-08
4.31662e-07
-4.56729e-07
6.20389e-08
-4.64593e-07
5.69256e-08
-4.71009e-07
6.03152e-08
-4.63854e-07
6.50483e-08
-4.51958e-07
6.98011e-08
-4.35717e-07
7.25307e-08
-4.18401e-07
7.32828e-08
-4.01052e-07
7.30641e-08
7.04576e-08
-3.88527e-07
-4.14202e-07
9.79297e-08
3.47725e-07
-4.45297e-07
9.3162e-08
-4.67073e-07
7.86821e-08
-4.77327e-07
7.05507e-08
-4.77195e-07
6.48589e-08
-4.59333e-07
6.07252e-08
-4.4234e-07
5.55144e-08
-4.20419e-07
5.1387e-08
-3.95968e-07
4.86233e-08
4.39242e-08
-3.69478e-07
-2.934e-07
7.90359e-08
3.10739e-07
-4.3364e-07
8.14224e-08
-4.50985e-07
9.60093e-08
-4.55179e-07
7.45478e-08
-4.50109e-07
5.94642e-08
-4.44098e-07
5.4393e-08
-4.35651e-07
4.68189e-08
-4.21472e-07
3.38865e-08
-3.86738e-07
2.34286e-08
1.77758e-08
-3.63491e-07
-4.23742e-07
2.89356e-08
4.73108e-07
-4.0113e-07
4.99392e-08
-4.96229e-07
6.25365e-08
-4.84661e-07
6.26731e-08
-4.64642e-07
3.91201e-08
-4.49968e-07
3.93598e-08
-4.36092e-07
3.24032e-08
-3.96661e-07
-5.75754e-10
-3.39194e-07
-2.05438e-08
-2.54011e-08
-2.90321e-07
-5.93658e-07
-1.81288e-08
6.38386e-07
-5.47052e-07
1.36003e-09
-4.90872e-07
3.98272e-09
-5.37615e-07
2.12474e-09
-4.93137e-07
-7.13705e-09
-3.6777e-07
-1.35431e-08
-3.09009e-07
-2.88182e-08
-2.54405e-07
-5.75596e-08
-2.06979e-07
-7.00893e-08
-5.73565e-08
-1.66537e-07
-8.45873e-07
-4.16082e-08
8.69392e-07
-8.05244e-07
-3.91748e-08
-7.56415e-07
-4.47629e-08
-5.1458e-07
-5.69141e-08
-4.67965e-07
-7.68037e-08
-4.0527e-07
-9.82867e-08
-3.47781e-07
-1.19582e-07
-3.13586e-07
-1.33013e-07
-2.66586e-07
-1.46096e-07
-1.21915e-07
-2.10795e-07
-7.87885e-07
-6.196e-08
8.08322e-07
-7.60147e-07
-6.68232e-08
-7.23872e-07
-8.09158e-08
-6.86821e-07
-9.38291e-08
-6.41087e-07
-1.21651e-07
-5.86882e-07
-1.52626e-07
-5.088e-07
-1.97309e-07
-4.16058e-07
-2.25458e-07
-3.33566e-07
-2.28639e-07
-2.04387e-07
-2.87652e-07
-7.52843e-07
-9.76271e-08
7.84004e-07
-7.16478e-07
-1.03103e-07
-6.80367e-07
-1.16937e-07
-6.44489e-07
-1.29584e-07
-6.02735e-07
-1.63266e-07
-5.47299e-07
-2.07745e-07
-4.52746e-07
-2.9157e-07
-3.54289e-07
-3.23961e-07
-2.4351e-07
-2.88877e-07
-1.14675e-07
-1.64014e-07
-3.25268e-07
-8.60833e-09
1.54397e-07
-4.74514e-07
1.34462e-08
-5.51054e-07
-2.24953e-08
-6.32516e-07
-5.25138e-08
-6.19746e-07
-1.75425e-07
-5.9429e-07
-2.32877e-07
-5.5797e-07
-3.27586e-07
-5.20692e-07
-3.59071e-07
-2.56247e-07
-2.00228e-07
-7.58284e-08
-1.12879e-07
0
1.08643e-08
-4.39911e-08
1.84531e-09
9.18073e-09
-2.50374e-08
2.94554e-09
-7.62744e-08
3.75504e-09
-2.56344e-07
-7.27972e-09
-5.04959e-07
-5.13445e-08
-6.14749e-07
-2.57328e-07
-5.52518e-07
-3.4348e-07
-1.98752e-07
-2.15988e-07
-1.11841e-07
-1.62901e-07
2.00344e-07
6.73717e-08
-3.594e-07
2.6741e-08
5.09346e-08
7.16978e-09
2.13895e-08
-3.97733e-09
1.44878e-08
-1.78511e-08
6.49044e-09
-5.56651e-08
-5.99057e-09
-2.51401e-07
-7.767e-08
-4.55972e-07
-2.22402e-07
-3.76791e-07
-1.9171e-07
-1.77644e-07
-2.30288e-07
3.49378e-07
6.91276e-08
-3.50722e-07
4.39537e-08
9.57358e-08
1.98461e-08
3.00408e-08
1.45279e-08
1.97023e-08
1.13307e-08
9.60676e-09
6.14062e-09
-8.58168e-10
4.59635e-08
-6.23587e-08
4.77618e-08
-2.43936e-07
-1.97471e-08
-2.27174e-07
-2.54959e-07
-8.61931e-08
6.26849e-08
5.75207e-08
-1.69828e-07
1.70694e-09
3.23749e-08
3.26891e-09
2.83794e-08
1.18696e-08
1.10144e-08
1.76195e-08
3.76981e-09
3.32601e-08
-1.6582e-08
2.54174e-07
-1.57605e-07
2.59213e-07
-2.26906e-07
2.50627e-07
-2.19553e-07
-2.07177e-07
2.02744e-07
-1.75433e-08
6.62347e-09
1.75354e-08
-1.06511e-08
2.43135e-08
6.25323e-10
1.66672e-08
2.97218e-08
-1.50417e-08
9.61634e-08
-6.54629e-08
3.49556e-07
-1.43927e-07
4.59718e-07
-1.91471e-07
4.45235e-07
-2.12551e-07
4.42776e-07
-2.17204e-07
-2.17608e-07
4.53077e-07
-7.51043e-09
3.008e-08
1.68148e-08
2.75514e-08
-1.29001e-08
1.9318e-07
-9.87221e-08
4.71697e-07
-1.47153e-07
5.61873e-07
-1.55626e-07
5.88411e-07
-1.70306e-07
5.90037e-07
-1.93155e-07
5.87651e-07
-2.10577e-07
5.91537e-07
-2.21277e-07
-2.37159e-07
6.11074e-07
3.91473e-07
-5.60918e-08
-1.37091e-07
4.90961e-07
-1.03797e-07
5.34495e-07
-1.42293e-07
5.5452e-07
-1.67245e-07
5.77319e-07
-1.78498e-07
5.96653e-07
-1.89669e-07
6.08203e-07
-2.0491e-07
6.18489e-07
-2.20607e-07
6.37875e-07
-2.40964e-07
-2.74456e-07
6.75015e-07
5.26494e-07
-1.06554e-07
-4.76056e-07
5.54087e-07
-1.3142e-07
5.6784e-07
-1.56075e-07
5.77119e-07
-1.76536e-07
5.88207e-07
-1.89625e-07
5.9829e-07
-1.99806e-07
6.04509e-07
-2.09003e-07
6.072e-07
-2.23496e-07
6.19918e-07
-2.53935e-07
-2.97439e-07
6.42902e-07
5.29546e-07
-1.26443e-07
-5.09683e-07
5.44894e-07
-1.46796e-07
5.54914e-07
-1.66141e-07
5.62039e-07
-1.83674e-07
5.69488e-07
-1.97074e-07
5.73155e-07
-2.05588e-07
5.73013e-07
-2.09437e-07
5.69873e-07
-2.20267e-07
5.74803e-07
-2.55363e-07
-2.90862e-07
5.68192e-07
5.02511e-07
-1.44601e-07
-4.84381e-07
5.15524e-07
-1.60077e-07
5.23941e-07
-1.74634e-07
5.28596e-07
-1.87872e-07
5.32075e-07
-2.00543e-07
5.37538e-07
-2.11036e-07
5.42332e-07
-2.16809e-07
5.47787e-07
-2.25471e-07
5.41486e-07
-2.49176e-07
-2.70132e-07
5.23499e-07
5.18975e-07
-1.48275e-07
-5.16051e-07
5.22622e-07
-1.63817e-07
5.24937e-07
-1.77025e-07
5.26495e-07
-1.89225e-07
5.2548e-07
-1.99512e-07
5.23138e-07
-2.08692e-07
5.19849e-07
-2.16744e-07
5.18746e-07
-2.24482e-07
5.0811e-07
-2.38649e-07
-2.51674e-07
4.92936e-07
5.40804e-07
-1.42745e-07
-5.46777e-07
5.34942e-07
-1.57992e-07
5.28133e-07
-1.70246e-07
5.20366e-07
-1.81491e-07
5.11529e-07
-1.90687e-07
5.05649e-07
-2.02819e-07
4.98909e-07
-2.10873e-07
4.92228e-07
-2.1791e-07
4.82735e-07
-2.29271e-07
-2.41497e-07
4.73845e-07
5.34755e-07
-1.26355e-07
-5.50542e-07
5.24582e-07
-1.47761e-07
5.14936e-07
-1.60632e-07
5.04303e-07
-1.70891e-07
4.93329e-07
-1.79746e-07
4.82497e-07
-1.93332e-07
4.74944e-07
-2.03463e-07
4.70998e-07
-2.14097e-07
4.68801e-07
-2.27206e-07
-2.49859e-07
4.77749e-07
5.03457e-07
-9.67575e-08
-4.06384e-07
4.88005e-07
-1.31904e-07
4.72621e-07
-1.45245e-07
4.57058e-07
-1.55359e-07
4.46288e-07
-1.6988e-07
4.4008e-07
-1.87522e-07
4.36054e-07
-1.99848e-07
4.33889e-07
-2.1169e-07
4.45793e-07
-2.39009e-07
-3.03495e-07
4.98154e-07
5.12861e-07
-7.79373e-08
-2.96913e-07
4.84985e-07
-1.03868e-07
4.55803e-07
-1.16278e-07
4.27596e-07
-1.27148e-07
4.06472e-07
-1.50397e-07
3.91761e-07
-1.73169e-07
3.69287e-07
-1.7706e-07
3.55076e-07
-1.97072e-07
4.1914e-07
-3.02987e-07
-5.23251e-07
6.21845e-07
5.00282e-07
-5.38218e-08
-4.37515e-07
4.71537e-07
-7.52495e-08
4.37074e-07
-8.22137e-08
4.04222e-07
-9.45095e-08
3.80171e-07
-1.27066e-07
3.45038e-07
-1.39116e-07
3.00843e-07
-1.32959e-07
3.2816e-07
-2.09717e-07
5.87413e-07
-5.65228e-07
-7.92767e-07
8.54207e-07
5.11469e-07
-3.03125e-08
-5.16563e-07
4.79835e-07
-4.35642e-08
4.43805e-07
-4.63803e-08
4.12834e-07
-6.39369e-08
3.80012e-07
-9.4442e-08
2.97699e-07
-5.68317e-08
2.44601e-07
-8.84129e-08
4.71797e-07
-4.44341e-07
7.70537e-07
-8.69246e-07
-7.40979e-07
7.12628e-07
5.06871e-07
-4.10292e-09
-5.32996e-07
4.70425e-07
-7.11107e-09
4.41156e-07
-1.71151e-08
4.09283e-07
-3.22369e-08
3.41036e-07
-2.61989e-08
2.37629e-07
8.74256e-09
3.61379e-07
-2.33371e-07
6.59863e-07
-7.65553e-07
7.0011e-07
-9.17357e-07
-4.18922e-07
3.83065e-07
4.35204e-07
4.35292e-08
-4.82829e-07
4.07018e-07
2.10792e-08
3.91185e-07
-1.28126e-09
3.58166e-07
7.79621e-10
2.50939e-07
4.0964e-08
2.65416e-07
-4.46377e-08
5.84244e-07
-5.42118e-07
7.11941e-07
-9.10836e-07
4.15731e-07
-6.3407e-07
-2.98864e-07
2.84374e-07
3.74129e-07
7.42488e-08
-4.0486e-07
3.44924e-07
5.02856e-08
2.90316e-07
5.333e-08
1.50364e-07
8.78224e-08
8.86152e-08
7.20872e-08
4.42339e-07
-3.7812e-07
7.8265e-07
-8.65958e-07
6.60488e-07
-7.84274e-07
3.57906e-07
-3.4487e-07
-1.89194e-07
2.25719e-07
2.66392e-07
1.06189e-07
-2.98345e-07
1.96526e-07
1.2014e-07
6.53535e-08
1.10627e-07
1.41633e-08
1.08131e-07
1.6729e-07
-1.11178e-07
6.37209e-07
-8.36229e-07
6.92005e-07
-9.07994e-07
3.74309e-07
-3.86096e-07
1.84662e-07
-1.77198e-07
-8.03953e-08
5.26292e-08
1.47495e-08
1.32195e-07
-7.41623e-08
-5.48988e-08
1.54053e-07
-1.05511e-07
1.50195e-07
-1.8817e-07
1.60957e-07
2.76362e-07
-5.65354e-07
5.39935e-07
-1.08921e-06
2.47246e-07
-4.87586e-07
8.95576e-08
-2.40125e-07
1.70512e-08
-1.13974e-07
-2.62565e-08
-1.16007e-07
-5.99312e-08
1.26598e-07
5.36495e-08
-6.34497e-08
1.45692e-07
-7.51735e-08
1.5004e-07
-5.58879e-08
1.62075e-07
2.68678e-07
-8.79335e-07
2.56225e-07
-1.0303e-06
9.19464e-08
-2.93695e-07
1.14866e-08
-1.38494e-07
-2.30392e-07
1.34734e-09
-2.84583e-08
-2.2818e-07
-5.90865e-08
1.43511e-07
9.52026e-08
-2.69841e-08
1.57018e-07
-1.94718e-08
2.05282e-07
8.15219e-09
1.50361e-07
1.05553e-07
-9.18817e-07
1.10555e-07
-1.01391e-06
4.45537e-08
-2.16e-07
-1.07203e-07
-4.53601e-08
-2.18082e-07
6.6066e-08
-4.86925e-08
-1.97847e-07
-6.74469e-08
1.29091e-07
1.02621e-07
-2.02387e-08
1.36032e-07
2.24788e-08
1.70032e-07
5.336e-08
1.19495e-07
6.88035e-08
-9.31429e-07
7.01983e-08
-1.01554e-06
2.35816e-08
-1.54955e-07
-5.57697e-08
2.11338e-09
-1.47691e-07
7.50076e-08
-3.48398e-08
-1.60061e-07
-1.03511e-07
9.07742e-08
1.41838e-07
-5.36341e-08
8.61719e-08
6.8776e-09
1.09534e-07
4.95403e-08
7.68431e-08
4.32706e-08
-9.30959e-07
2.68746e-08
-9.9874e-07
-1.26939e-08
-1.19687e-07
-8.9626e-08
4.78804e-08
-1.88329e-07
6.03594e-08
-3.8187e-08
-2.77414e-07
-1.19551e-07
6.24191e-08
1.47912e-07
-8.03994e-08
4.70302e-08
-1.01293e-08
3.92754e-08
4.10954e-08
2.56317e-08
4.43302e-08
-9.42374e-07
6.28226e-08
-1.01659e-06
0
-8.32917e-08
-1.37175e-07
9.08073e-08
-3.77453e-07
1.12773e-07
-3.2233e-10
-4.15233e-07
8.70435e-09
2.23225e-08
1.11898e-08
3.23126e-08
1.0204e-08
1.15605e-08
4.35189e-08
-2.67644e-09
2.40088e-08
2.10455e-08
-9.78807e-07
2.06296e-08
-1.01551e-06
-3.37951e-08
-5.26973e-08
-7.44263e-08
8.0767e-08
-3.12224e-07
9.38986e-08
3.50156e-08
-4.36967e-07
-1.86664e-09
-1.1037e-09
1.57269e-08
1.20179e-08
-4.40898e-09
1.10343e-08
4.05144e-09
-1.07995e-09
3.05364e-09
4.89567e-09
-9.97978e-07
-1.06505e-09
-1.0037e-06
-7.23838e-08
-2.25055e-09
-5.82082e-08
4.92467e-08
-1.00791e-07
6.49875e-09
6.60664e-13
-1.30801e-07
-8.66523e-10
-5.13324e-10
2.58829e-10
-4.88271e-09
-5.7437e-10
-9.51794e-11
-9.68953e-10
2.97786e-09
-1.59448e-11
5.54463e-09
-1.0016e-06
-7.24434e-09
-9.91481e-07
-2.21542e-08
1.22905e-09
3.02979e-09
0
1.56433e-09
0
0
-1.79211e-09
-1.23269e-09
-2.63991e-11
2.93862e-10
-1.17735e-09
-8.17449e-11
0
-1.88869e-09
1.47246e-11
-2.90939e-11
-1.74934e-10
-1.00235e-06
-1.28428e-09
-9.93535e-07
0
-4.6507e-11
5.87731e-09
-1.43432e-09
3.60045e-09
1.30367e-11
3.05197e-10
8.19144e-10
-6.92166e-12
3.62465e-14
-2.54e-11
-4.15239e-10
-3.94065e-12
0
-9.73556e-10
8.06153e-12
-3.64138e-11
-1.69017e-09
-1.00159e-06
-7.81923e-11
-9.9582e-07
0
-1.17937e-10
1.21495e-09
-4.5816e-10
1.41095e-10
2.48644e-10
3.09068e-10
8.45855e-11
2.43302e-11
-7.20085e-13
-2.88597e-11
2.18122e-11
-1.56352e-12
0
-8.45889e-12
1.33622e-11
-4.90983e-11
-1.86781e-09
-1.00028e-06
-1.04053e-10
-9.97888e-07
0
-2.20255e-10
-1.95885e-11
-6.70456e-11
0
7.13656e-11
-8.89429e-10
8.70862e-10
-1.79102e-12
4.46951e-14
8.73605e-12
-1.35737e-12
-2.13811e-12
4.66885e-13
-1.04241e-11
7.28629e-11
-1.21654e-10
-9.02475e-10
-9.99796e-07
-1.34541e-09
-9.98362e-07
-1.4718e-09
-9.99635e-11
-2.61442e-09
1.53789e-09
-1.79012e-09
-2.88741e-10
-1.46792e-09
-7.44548e-10
-7.84139e-12
2.77365e-12
5.13962e-12
-3.23527e-12
-6.88516e-12
-2.36043e-14
-1.3795e-11
3.45495e-10
-4.67715e-10
4.51723e-10
-1.00049e-06
-2.17208e-10
-9.98558e-07
0
-3.15866e-10
1.7228e-09
1.88422e-11
2.39191e-09
-3.81198e-11
-1.19849e-10
6.82956e-10
-1.85397e-11
5.27165e-12
3.60057e-12
-2.77642e-12
-1.37511e-10
0
-2.70551e-11
1.48035e-09
-1.95386e-09
-7.31103e-10
-9.98462e-07
-1.31898e-09
-9.98281e-07
9.16158e-12
-1.6381e-09
3.53405e-11
-6.51737e-12
2.24411e-11
-2.27742e-11
-1.20668e-10
2.6185e-11
2.40918e-12
4.14633e-12
0
3.41744e-11
-1.60742e-10
0
-9.48538e-12
2.81423e-09
-5.02093e-09
7.43119e-10
-9.96272e-07
-2.6865e-09
-9.94873e-07
3.61993e-12
-4.68013e-09
0
-3.19697e-12
7.80812e-11
-7.60645e-11
-5.87349e-11
4.95417e-11
1.36763e-12
2.34072e-13
0
7.83586e-12
-1.59371e-10
9.57372e-12
-9.37812e-12
4.26971e-09
-9.2512e-09
-8.47666e-10
-9.90989e-07
-4.31257e-09
-9.91091e-07
-6.77067e-12
-8.9151e-09
-6.78156e-12
-3.13912e-12
-1.68836e-11
-3.25124e-11
-3.76505e-11
-4.68762e-12
8.46319e-11
-1.85608e-11
-1.52296e-11
5.24489e-11
-1.03904e-10
4.97537e-11
-5.52974e-12
2.92497e-09
-1.21171e-08
1.56736e-10
-9.8802e-07
-3.08689e-09
-9.87384e-07
-6.89222e-13
-1.18479e-08
0
-3.73924e-12
1.08894e-11
-1.31777e-11
-6.31405e-12
-5.079e-12
8.43608e-11
-5.64727e-11
-7.92183e-12
6.84919e-11
-4.78253e-11
6.5414e-11
-2.45188e-12
4.74101e-09
-1.66424e-08
-5.60395e-10
-9.82319e-07
-4.76739e-09
-9.82793e-07
-9.13745e-13
-1.64915e-08
-6.43328e-13
-3.84928e-12
3.84528e-12
-1.13387e-12
-2.32248e-13
4.19504e-12
4.87189e-11
-5.56341e-11
-1.7447e-11
0
-8.48134e-12
1.86821e-13
-2.63869e-12
3.27324e-09
-1.96965e-08
4.79428e-10
-9.79097e-07
-3.11261e-09
-9.78884e-07
-3.50744e-13
-1.95157e-08
-1.75292e-13
-3.85771e-12
7.4305e-14
-1.22309e-12
-1.826e-13
1.43856e-13
5.14851e-11
-4.80002e-11
-2.59076e-11
0
1.90292e-11
3.17099e-13
-2.95579e-12
4.91655e-09
-2.43553e-08
-2.47854e-10
-9.73553e-07
-4.93813e-09
-9.73669e-07
-4.77269e-13
-2.42238e-08
-3.37876e-13
-3.85579e-12
-3.72685e-13
-1.02126e-12
8.06211e-13
-1.2312e-12
-9.12233e-11
-7.34093e-12
1.28916e-10
0
1.04301e-12
6.57732e-13
-3.6135e-12
3.47231e-09
-2.76357e-08
2.69553e-10
-9.70129e-07
-3.57535e-09
-9.69392e-07
-7.07974e-13
-2.7569e-08
-7.05634e-13
-3.76462e-12
-5.14404e-12
-2.43431e-13
1.35997e-11
-7.39145e-11
-1.5297e-11
2.80502e-13
1.30237e-12
0
-5.50891e-13
6.54503e-13
-4.26798e-12
5.36105e-09
-3.2683e-08
-2.52946e-10
-9.64126e-07
-5.17529e-09
-9.64164e-07
-4.31315e-13
-3.25926e-08
-2.69426e-13
-3.88916e-12
0
-3.89366e-13
1.55379e-11
-4.91988e-11
-2.2077e-13
3.45378e-13
1.55714e-13
1.23006e-13
-8.94752e-13
1.93781e-13
-4.33877e-12
4.25216e-09
-3.65379e-08
4.09221e-10
-9.59815e-07
-4.20145e-09
-9.59092e-07
-5.31739e-13
-3.65422e-08
-3.48982e-13
-4.05832e-12
0
7.40389e-13
9.37611e-12
-1.58317e-11
-1.34766e-13
2.58355e-13
2.21199e-13
2.41458e-13
-1.27116e-12
2.7045e-13
-4.36785e-12
5.69883e-09
-4.19602e-08
-6.33613e-10
-9.53191e-07
-5.85977e-09
-9.53358e-07
-1.29496e-12
-4.20909e-08
-1.14381e-12
-4.20821e-12
0
1.21062e-12
8.39233e-12
-3.76031e-12
-2.83077e-13
-3.07006e-14
5.71181e-13
2.86094e-13
-1.84156e-12
5.6792e-13
-4.65046e-12
4.35514e-09
-4.58988e-08
5.7232e-10
-9.48927e-07
-4.23008e-09
-9.48158e-07
-2.01635e-12
-4.60716e-08
-2.02622e-12
-4.21371e-12
0
2.05227e-12
9.28987e-12
-5.61416e-12
-9.83627e-14
-3.75099e-13
4.41164e-13
1.39639e-12
-3.33731e-12
3.00682e-12
-6.26826e-12
6.07713e-09
-5.15679e-08
-4.70285e-10
-9.41935e-07
-6.03175e-09
-9.42187e-07
-2.36688e-12
-5.18249e-08
-2.35977e-12
-4.25367e-12
0
3.00989e-12
1.06832e-11
-6.13737e-12
1.82407e-12
-2.17322e-12
-2.69485e-14
2.15643e-11
-1.55666e-10
2.28305e-11
-7.59974e-12
5.30922e-09
-5.65352e-08
5.28677e-10
-9.36868e-07
-5.22707e-09
-9.3619e-07
-2.7558e-12
-5.68541e-08
-2.88831e-12
-4.1618e-12
0
4.38089e-12
2.20958e-11
0
8.88523e-12
-3.18069e-11
-7.65077e-12
3.03349e-11
-1.66384e-10
3.0225e-11
-7.91597e-12
6.42867e-09
-6.2683e-08
-3.09738e-10
-9.29965e-07
-6.40129e-09
-9.29945e-07
-9.14329e-13
-6.30901e-08
-9.16667e-13
-4.21419e-12
0
1.82798e-12
2.02086e-11
0
4.03419e-12
-1.26378e-10
6.29314e-12
6.38016e-11
-2.13061e-10
6.14149e-11
-4.56418e-12
6.11022e-09
-6.86658e-08
9.04824e-11
-9.24019e-07
-6.07439e-09
-9.23887e-07
-9.20091e-13
-6.91677e-08
-9.24762e-13
-4.28353e-12
1.49959e-12
8.77952e-13
1.139e-11
1.06749e-12
5.33419e-11
-1.72878e-10
-6.20959e-13
4.11039e-11
-1.91012e-10
3.87031e-11
-1.87692e-12
6.75247e-09
-7.53414e-08
1.31424e-10
-9.17474e-07
-6.64522e-09
-9.17387e-07
-1.40905e-12
-7.59339e-08
-1.36231e-12
-4.42671e-12
1.29535e-13
6.39317e-15
1.02702e-11
5.84123e-13
1.46204e-11
-1.61146e-10
-2.01308e-11
2.32369e-12
-5.9258e-11
2.36981e-12
-1.82427e-12
7.25811e-09
-8.28281e-08
-1.18565e-10
-9.10425e-07
-7.02452e-09
-9.11043e-07
-4.26763e-12
-8.3346e-08
-4.43925e-12
-4.36727e-12
-8.48472e-13
-3.71749e-13
9.30674e-12
-5.95528e-13
7.15234e-12
-4.34185e-13
-4.07872e-13
1.69228e-12
-4.25773e-13
1.57629e-12
-1.70827e-12
7.18313e-09
-9.02948e-08
3.16485e-10
-9.03886e-07
-7.10226e-09
-9.04119e-07
-5.07557e-12
-9.08072e-08
-5.5593e-12
-3.99711e-12
-2.28986e-13
-2.45509e-12
2.89391e-11
0
1.1783e-13
-1.54967e-13
-3.97035e-13
7.17554e-14
-3.79693e-13
9.6322e-14
-1.73283e-12
8.22662e-09
-9.88925e-08
-1.20879e-10
-8.9585e-07
-8.12539e-09
-8.96684e-07
-1.59538e-12
-9.9398e-08
-1.85735e-12
-3.85436e-12
2.96062e-13
-1.82767e-12
2.78898e-11
1.0122e-11
1.97363e-13
7.61144e-16
-3.53124e-13
1.12019e-13
-2.94345e-13
9.60099e-14
-1.71682e-12
8.12609e-09
-1.07289e-07
3.8777e-10
-8.88276e-07
-7.63748e-09
-8.89277e-07
-5.57475e-13
-1.07631e-07
-7.17471e-13
-3.81742e-12
6.05926e-13
-2.36324e-12
1.84136e-11
1.18084e-11
2.40084e-13
1.32872e-13
-3.72586e-13
1.24348e-13
-1.78611e-13
1.02977e-13
-1.69544e-12
9.37983e-09
-1.16938e-07
3.15457e-10
-8.79372e-07
-9.22407e-09
-8.80108e-07
-9.76099e-13
-1.17247e-07
-1.10658e-12
-3.7919e-12
-1.75822e-12
-4.41587e-12
1.27358e-11
5.3698e-12
1.9868e-13
2.32264e-13
-2.98207e-13
1.06486e-13
-8.6424e-14
9.75645e-14
-1.68652e-12
8.56145e-09
-1.25817e-07
-4.91939e-10
-8.7045e-07
-8.88181e-09
-8.71874e-07
-1.64669e-12
-1.26217e-07
-1.99725e-12
-3.526e-12
-1.06769e-11
-8.68658e-13
7.89037e-12
0
1.5813e-13
3.00318e-13
-2.26195e-13
1.03075e-13
-3.13727e-14
1.07553e-13
-1.69101e-12
1.10894e-08
-1.36877e-07
9.42756e-10
-8.60126e-07
-1.03023e-08
-8.6102e-07
-3.74284e-13
-1.36912e-07
-4.9602e-13
-3.48991e-12
-8.24474e-13
-6.25855e-13
2.35773e-12
-1.95628e-12
1.21909e-13
3.46244e-13
-1.67842e-13
9.72937e-14
-6.76147e-15
1.03145e-13
-1.69686e-12
1.01104e-08
-1.46729e-07
2.65913e-10
-8.50067e-07
-9.29179e-09
-8.51668e-07
-3.66346e-13
-1.46487e-07
-3.74081e-13
-3.56684e-12
-5.09395e-13
-5.76191e-13
5.66774e-13
-2.59909e-12
1.00597e-13
3.85665e-13
-1.39926e-13
1.05974e-13
-1.21449e-14
1.17346e-13
-1.70823e-12
1.13875e-08
-1.58825e-07
-8.845e-10
-8.38172e-07
-1.33723e-08
-8.3883e-07
-1.6045e-12
-1.59259e-07
-9.14579e-13
-4.34241e-12
-2.39062e-13
-3.33152e-12
4.07042e-12
-5.44295e-12
3.57253e-14
4.11902e-13
-4.34503e-14
1.65222e-13
-1.41549e-13
2.4493e-13
-1.78789e-12
1.09958e-08
-1.69856e-07
1.41889e-10
-8.27126e-07
-1.10837e-08
-8.27729e-07
-7.4116e-12
-1.70229e-07
-6.95535e-12
-4.90211e-12
-1.33003e-11
-8.38921e-12
1.47219e-11
-2.44744e-11
7.34319e-14
4.23223e-13
0
9.99999e-13
0
1.27217e-12
-2.05953e-12
1.67303e-08
-1.84782e-07
3.19866e-09
-8.12497e-07
-1.19505e-08
-8.13508e-07
-1.28225e-11
-1.83718e-07
-1.25221e-11
-5.3953e-12
-2.14014e-11
-3.75571e-12
1.82314e-11
-2.48927e-11
1.86735e-13
2.33343e-13
-1.24874e-15
3.63264e-12
0
4.0769e-12
-2.50011e-12
1.34484e-08
-1.97333e-07
1.16898e-09
-7.9979e-07
-1.20375e-08
-8.00322e-07
-1.13349e-11
-1.95888e-07
-1.09852e-11
-5.95925e-12
-1.78191e-11
3.34428e-13
2.05346e-11
-2.01043e-11
1.33581e-13
1.73328e-13
-7.80534e-14
6.96898e-12
0
7.81968e-12
-3.35059e-12
1.48356e-08
-2.1302e-07
-1.915e-09
-7.83306e-07
-1.85218e-08
-7.82829e-07
-1.11903e-11
-2.1232e-07
-1.10342e-11
-6.20591e-12
-1.69939e-11
3.33506e-12
2.16501e-11
-1.80916e-11
7.38131e-13
5.80227e-12
-1.53599e-13
1.23249e-11
-7.56228e-12
1.44422e-11
-5.44372e-12
1.40459e-08
-2.27139e-07
-1.06154e-09
-7.68111e-07
-1.58462e-08
-7.67556e-07
-7.36586e-12
-2.2674e-07
-8.19193e-12
-5.73832e-12
-1.58271e-11
5.10182e-12
2.29212e-11
-1.70801e-11
1.29358e-11
1.88064e-11
-8.57095e-12
3.13039e-11
-3.99527e-11
3.13695e-11
-5.38211e-12
1.98695e-08
-2.46067e-07
7.0849e-10
-7.48706e-07
-1.89406e-08
-7.47825e-07
-3.60949e-12
-2.45387e-07
-4.57232e-12
-5.33781e-12
-1.80351e-11
3.41676e-12
2.88627e-11
-2.39573e-11
4.74076e-11
-2.63499e-11
-1.7419e-11
4.6946e-11
-3.74197e-11
4.52764e-11
-2.8875e-12
1.79092e-08
-2.63852e-07
3.02487e-11
-7.31072e-07
-1.77066e-08
-7.30184e-07
-6.94468e-13
-2.63077e-07
-1.28645e-12
-5.27818e-12
-5.6054e-12
1.11106e-12
1.28339e-11
-1.64976e-11
1.72417e-11
-5.49639e-11
-2.03608e-11
3.21716e-11
-9.7596e-12
3.01448e-11
-6.87121e-13
2.27233e-08
-2.87566e-07
-5.28358e-10
-7.08466e-07
-2.35806e-08
-7.07468e-07
-9.7286e-13
-2.87333e-07
-1.2315e-12
-5.58184e-12
-1.00496e-12
3.26978e-12
0
-2.93127e-12
-2.10198e-12
-1.72547e-13
-3.66761e-13
5.41913e-12
-6.04781e-14
5.19915e-12
-4.74559e-13
2.10448e-08
-3.1085e-07
-6.32028e-10
-6.87543e-07
-2.10437e-08
-6.87656e-07
-5.86546e-12
-3.11289e-07
-6.09608e-12
-5.88358e-12
-3.99053e-12
8.46008e-12
1.00382e-11
-1.10899e-12
1.47389e-15
-1.77606e-13
-7.21842e-15
3.23042e-14
-1.02535e-13
1.95847e-12
-2.41152e-12
2.69065e-08
-3.43201e-07
-6.79799e-10
-6.60476e-07
-2.71799e-08
-6.61674e-07
-9.08158e-12
-3.43593e-07
-9.23747e-12
-6.23268e-12
-6.95286e-12
6.6535e-12
2.70712e-11
-4.52759e-13
1.43103e-13
-9.79779e-13
-6.53235e-14
1.06709e-13
-7.85074e-14
2.10301e-11
-2.33469e-11
2.44186e-08
-3.74351e-07
2.32211e-09
-6.3836e-07
-2.4652e-08
-6.34767e-07
-8.76597e-12
-3.74545e-07
-6.10581e-12
-9.43876e-12
-4.24049e-12
4.30111e-12
2.44766e-11
-1.84367e-13
9.51818e-13
-4.06268e-12
-1.22705e-13
9.35207e-13
-4.35004e-14
2.37863e-10
-2.60244e-10
2.85083e-08
-4.042e-07
-1.46818e-09
-6.07957e-07
-2.71602e-08
-6.09288e-07
-5.56586e-11
-4.01978e-07
-2.84253e-12
-6.25488e-11
-4.75396e-12
8.07942e-13
2.22575e-11
-1.19176e-12
1.47579e-12
-3.15387e-12
-1.0774e-12
1.46019e-12
-2.55424e-14
2.31814e-09
-2.5769e-09
1.41296e-08
-4.09119e-07
-1.4537e-08
-5.79223e-07
-3.00044e-08
-5.93622e-07
-6.2282e-10
-4.2541e-07
-1.64131e-12
-6.83863e-10
-8.97528e-13
-3.60105e-14
1.49065e-11
5.65326e-12
6.22666e-14
-8.14804e-15
-7.09169e-13
5.03255e-14
-2.20276e-14
1.43702e-08
-1.69471e-08
3.3401e-08
-4.32311e-07
1.97019e-08
-5.65319e-07
-2.41669e-08
-5.49741e-07
-5.6651e-09
-4.28557e-07
-9.67327e-14
-6.34896e-09
2.97631e-14
-2.60813e-13
1.51201e-11
4.35489e-12
7.16929e-15
-1.1286e-14
-7.48736e-15
2.49058e-13
-2.67372e-13
4.21775e-08
-6.02725e-08
8.88299e-08
-4.81595e-07
4.6197e-08
-5.2265e-07
2.25708e-08
-5.26086e-07
-4.70047e-09
-4.00354e-07
-1.05354e-11
-7.71668e-09
-1.04635e-11
-4.32886e-13
1.64994e-11
-4.13266e-12
6.23392e-14
-5.72106e-15
-7.14236e-14
5.49424e-12
-5.7025e-12
3.54022e-08
-9.10207e-08
1.90567e-08
-4.61791e-07
-1.23439e-08
-4.9123e-07
-4.54912e-08
-4.92902e-07
-2.45848e-08
-4.30468e-07
-1.28798e-11
-3.82692e-08
-1.2437e-11
-9.60596e-13
1.45338e-11
-1.12897e-11
6.70187e-14
-7.99627e-15
-6.8062e-14
1.20469e-10
-1.26107e-10
7.10067e-08
-1.62044e-07
5.58715e-08
-4.45083e-07
1.51582e-08
-4.50533e-07
-2.41981e-08
-4.53525e-07
-3.47773e-08
-4.17905e-07
-3.05584e-11
-7.05075e-08
-1.61395e-11
-1.53584e-11
1.20835e-11
-1.65299e-11
9.56544e-13
-9.6454e-13
-1.24877e-19
2.38105e-09
-2.50618e-09
6.50429e-08
-2.31648e-07
2.35992e-08
-4.04254e-07
-1.55733e-08
-4.1136e-07
-6.11067e-08
-4.08009e-07
-8.03193e-08
-3.9435e-07
-5.88461e-10
-1.45109e-07
-1.5032e-11
-5.88854e-10
3.52857e-12
-1.64794e-11
4.11104e-11
-4.20749e-11
-3.08774e-18
2.17765e-08
-2.42411e-08
6.72302e-08
-2.67707e-07
1.93129e-08
-3.56336e-07
-2.60834e-08
-3.65966e-07
-6.83253e-08
-3.65766e-07
-1.05511e-07
-3.57292e-07
-1.18177e-08
-2.47774e-07
-1.22344e-12
-1.24075e-08
9.49658e-13
-2.72394e-12
2.07612e-09
-2.11819e-09
-1.31934e-16
8.53156e-08
-1.12401e-07
1.10002e-07
-2.94982e-07
7.15697e-08
-3.17906e-07
2.06121e-08
-3.15009e-07
-3.43267e-08
-3.10826e-07
-8.61895e-08
-3.05428e-07
-4.67176e-08
-2.83484e-07
-2.77976e-10
-5.63135e-08
-2.78626e-10
-2.82604e-13
3.5977e-08
-3.80952e-08
-4.26798e-17
1.18423e-07
-1.99895e-07
7.44445e-08
-2.51007e-07
1.93722e-08
-2.62833e-07
-3.18842e-08
-2.63752e-07
-8.06326e-08
-2.62078e-07
-1.24516e-07
-2.61544e-07
-1.5335e-07
-2.53347e-07
-2.65068e-08
-1.79683e-07
-2.67842e-08
-1.31736e-12
9.65567e-08
-6.9438e-22
9.36025e-08
6.09458e-08
2.44955e-08
-7.15361e-09
-3.47445e-08