/*--------------------------------*- C++ -*----------------------------------*\
  =========                 |
  \\      /  F ield         | OpenFOAM: The Open Source CFD Toolbox
   \\    /   O peration     | Website:  https://openfoam.org
    \\  /    A nd           | Version:  8
     \\/     M anipulation  |
\*---------------------------------------------------------------------------*/
FoamFile
{
    version     2.0;
    format      ascii;
    class       volScalarField;
    location    "3.8";
    object      p_rgh;
}
// * * * * * * * * * * * * * * * * * * * * * * * * * * * * * * * * * * * * * //

dimensions      [1 -1 -2 0 0 0 0];

internalField   nonuniform List<scalar> 
9150
(
1963.1
1962.09
1961.51
1961.03
1960.79
1960.78
1961.02
1961.5
1962.09
1963.11
1962.69
1962.15
1961.74
1961.41
1961.25
1961.26
1961.43
1961.75
1962.15
1962.69
1962.41
1962.11
1961.87
1961.65
1961.54
1961.54
1961.65
1961.87
1962.12
1962.41
1962.29
1962.11
1961.94
1961.78
1961.69
1961.7
1961.78
1961.94
1962.11
1962.29
1962.29
1962.1
1961.97
1961.84
1961.76
1961.77
1961.83
1961.96
1962.1
1962.29
1951.56
1950.55
1950.69
1951.16
1951.3
1951.31
1951.17
1950.72
1950.6
1951.61
1955.38
1954.7
1954.48
1954.41
1954.51
1954.51
1954.41
1954.48
1954.7
1955.4
1958.47
1957.73
1957.43
1957.08
1957.02
1957.01
1957.05
1957.42
1957.71
1958.46
1961.18
1960.06
1959.65
1958.99
1958.85
1958.83
1958.99
1959.66
1960.05
1961.18
1963.94
1961.77
1961.04
1960.3
1960.06
1960.04
1960.31
1961.06
1961.77
1963.94
1945.51
1944.66
1942.93
1941.99
1941.53
1941.7
1942.36
1943.52
1945.56
1947.24
1945.33
1945.28
1944.44
1944.29
1943.88
1943.95
1944.41
1944.76
1945.86
1946.09
1945.27
1945.42
1944.36
1944.92
1944.41
1944.58
1945.09
1944.71
1945.78
1945.73
1942.24
1944.96
1943.78
1945.55
1945.17
1945.3
1945.52
1943.99
1945.11
1942.43
1935.13
1945.51
1945.63
1947.43
1947.7
1947.76
1947.46
1945.79
1945.63
1935.35
732.238
728.793
725.296
723.424
724.328
727.8
733.347
740.344
748.093
751.106
725.217
717.443
713.1
713.35
716.013
720.285
724.337
727.559
739.12
744.467
723.154
712.625
711.806
713.138
714.918
716.849
719.946
732.454
736.873
739.679
727.449
721.25
713.338
714.764
716.499
717.66
733.775
737.09
737.658
737.991
730.12
733.702
736.312
727.399
723.235
730.691
737.307
738.246
739.011
739.169
734.039
736.775
738.17
736.444
737.407
739.691
739.758
739.951
740.365
740.522
739.161
740.94
741.844
740.584
742.397
742.324
742.243
742.408
742.478
742.377
745.284
743.553
743.536
744.042
743.998
742.854
742.324
742.641
743.574
744.453
745.508
745.5
745.351
745.337
743.203
743.49
743.865
744.167
744.305
745.349
741.276
744.366
744.864
745.636
746.592
746.276
745.13
745.665
746.001
745.978
690.987
715.338
743.965
746.171
747.275
748.063
748.977
749.867
748.291
749.009
682.783
686.596
732.876
748.767
750.552
750.336
750.129
750.306
747.18
744.784
681.225
685.598
690.253
710.365
743.705
694.512
693.818
694.414
693.156
691.203
733.858
738.645
744.063
721.938
687.863
692.05
694.527
700.421
693.048
687.575
719.002
723.808
729.516
735.497
741.565
747.546
753.935
756.771
757.159
755.747
696.934
706.109
711.429
717.961
725.309
733.328
739.696
740.217
729.054
663.075
520.479
602.999
612.467
667.331
700.196
715.039
727.194
733.457
645.03
514.521
401.253
396.642
393.184
403.797
525.359
620.273
704.908
725.494
578.146
511.658
677.759
445.291
385.867
384.675
381.438
381.047
541.327
695.65
651.398
561.83
737.366
584.241
381.202
380.107
379.408
378.7
431.22
655.447
704.96
736.33
638.617
442.217
376.443
378.779
379.362
379.603
525.596
759.571
786.487
803.977
377.566
373.242
375.216
389.044
396.456
494.292
739.123
779.397
795.471
811.044
376.851
394.583
431.034
646.307
782.927
784.292
787.145
793.391
801.212
810.354
629.572
787.895
789.557
790.679
793.795
796.23
798.649
802.268
806.572
810.828
798.113
798.689
799.243
800.268
801.912
803.892
804.882
808.806
811.706
814.357
804.776
805.491
806.096
806.976
808.233
809.668
809.074
811.158
814.219
817.016
807.02
807.913
809.195
810.968
812.657
814.165
813.531
813.977
814.77
817.662
810.328
811.878
813.529
815.056
816.668
817.761
817.881
816.443
816.911
816.829
815.084
817.214
818.927
820.452
821.553
822.136
820.006
818.905
818.18
817.543
822.33
824.751
826.089
826.952
827.343
825.956
824.005
823.196
821.718
821.099
780.963
833.119
834.327
834.791
833.383
831.66
830.696
831.644
830.276
824.343
731.023
842.423
843.116
842.947
839.908
838.517
839.283
838.253
837.301
828.728
817.582
852.281
851.768
850.431
848.612
845.751
841.64
812.623
837.755
823.257
858.705
861.35
860.292
857.749
854.082
849.211
778.604
773.748
816.696
784.368
871.389
871.759
871.025
868.61
863.75
772.646
740.454
778.357
805.022
487.717
881.605
882.332
882.973
882.615
809.576
733.7
795.836
780.713
653.921
334.216
890.664
895.894
901.03
829.73
692.067
836.959
822.651
773.719
397.398
316.436
894.536
901.326
750.418
681.953
714.304
889.252
811.679
467.097
290.588
292.57
714.394
650.426
623.553
647.646
902.252
867.97
608.289
260.864
256.208
369.497
590.575
590.774
597.761
649.852
836.325
794.012
259.666
240.617
451.577
789.219
622.111
600.904
713.565
836.004
695.396
613.82
209.7
271.861
791.657
809.132
856.382
841.531
867.17
866.66
629.12
590.776
189.005
205.739
679.012
813.636
872.873
872.415
871.904
870.342
630.332
621.168
162.206
191.387
574.239
740.65
871.78
871.957
871.715
868.621
613.149
595.724
132.596
185.664
703.879
835.415
778.374
750.708
839.593
792.797
608.573
611.207
97.7882
130.175
552.365
818.64
78.8308
68.4223
218.17
98.3595
627.302
642.388
79.19
104.29
290.705
340.633
0.94403
1.18135
2.30078
2.52599
666.727
663.479
13.8102
44.1381
15.1174
10.377
2.33401
2.66876
2.95541
1.72798
690.373
691.289
2.75417
5.87128
6.47181
2.06651
0.811523
1.05077
3.89197
1.02325
710.366
710.346
1.34276
7.57837
1.33343
0.420517
0.769203
0.634754
3.40319
0.719319
728.893
730.442
0.658828
11.9102
1.20143
3.94734
0.604126
0.591943
0.611659
0.607152
749.862
751.297
1.21032
11.8864
12.0355
12.0713
0.615107
0.544465
0.553029
0.545912
775.276
776.019
1.02732
1.74257
9.45931
7.08635
0.601267
0.591568
0.513325
0.505969
794.095
795.124
0.298584
0.22134
0.155456
0.117902
0.60929
1.45038
0.510487
1.75315
815.631
816.795
1.03246
0.139032
0.266935
0.616336
0.638988
1.4479
0.449379
6.09788
835.489
836.072
5.46168
0.110816
0.631642
0.644212
1.03857
1.4418
0.470324
9.466
857.319
858.33
8.75089
0.0655709
0.531726
0.313933
1.86266
1.1225
0.537441
12.3043
877.207
878.596
11.5396
0.0449164
0.116358
0.10698
1.90852
1.16665
0.535671
16.8526
900.272
901.392
16.07
0.0404799
0.0411924
0.0409349
1.83806
1.03978
0.503783
19.904
920.915
921.559
19.211
0.0455999
0.0427773
0.0414764
1.32166
0.656694
0.431224
25.0054
944.323
945.171
24.4332
0.0555982
0.0563368
0.480541
0.359209
0.474644
0.359845
28.7853
965.611
966.504
28.3704
0.0438863
0.0588412
0.361922
0.331984
0.332825
0.333189
34.7321
990.372
990.705
34.4216
0.0250792
0.14423
0.135425
0.319005
0.320851
0.319912
39.6508
1012.77
1013.26
39.3945
0.0090401
0.125458
0.062471
0.303582
0.305284
0.304838
46.6505
1037.69
1038.34
46.4767
-0.00282753
0.0854818
0.0523777
0.287971
0.290393
0.290057
52.2327
1060.66
1060.94
52.1356
-0.0130629
0.0809447
0.0429989
0.276412
0.713287
0.275893
60.5676
1086.82
1087.12
60.552
-0.0206766
0.0871856
0.0950891
0.340439
1.20912
0.27232
68.0889
1111.61
1111.67
68.1188
-0.0307153
0.0202109
0.097288
1.15703
1.21742
0.293921
77.8738
1138.48
1138.67
78.0015
-0.0469702
0.00304516
0.0148761
1.2355
1.22393
0.293238
87.6041
1164.91
1165.07
87.8014
-0.0648214
0.0741889
-0.0128537
1.23794
0.853967
0.26635
99.3288
1192.67
1192.75
99.4773
-0.0724646
0.0909154
-0.0181616
0.414658
0.339467
0.23721
112.26
1221.05
1221
112.457
-0.0685527
0.0793934
0.117867
0.223148
0.225656
0.2237
126.199
1249.25
1249.38
126.375
-0.0662425
0.00212616
0.142757
0.21865
0.219206
0.219377
142.504
1278.81
1278.93
142.558
-0.0664634
-0.0453835
0.0966904
0.212841
0.214356
0.215914
159.496
1307.89
1307.58
159.326
-0.0623711
-0.0350724
0.138187
0.205309
0.20739
0.209298
179.317
1337.82
1338.17
179.188
-0.0550187
-0.00985115
0.18827
0.1961
0.197927
0.199398
199.44
1366.7
1367.57
199.367
-0.0505756
-0.0491598
0.139178
0.186491
0.187529
0.18768
224.355
1398.46
1397.85
223.567
-0.0497225
-0.0495072
-0.0254644
0.177396
0.178465
0.177837
248.888
1427.51
1427.54
247.925
-0.0463931
-0.0402987
-0.0388811
0.169484
0.170975
0.171489
279.299
1457.49
1461.01
279.599
-0.0344261
0.100658
0.300636
0.162078
0.176342
0.161565
310.189
1487.8
1489.92
309.933
-0.0230464
0.222759
0.31107
0.15511
0.217661
0.152524
350.523
1521.76
1519.41
347.737
-0.0143343
0.224818
0.318286
0.153941
0.271793
0.150821
388.749
1550.1
1549.47
386.213
-0.0127705
0.214684
0.322962
0.153318
0.35156
0.156014
437.487
1579.07
1582.5
436.977
-0.0151965
0.170018
0.326714
0.785831
0.636631
0.168802
487.899
1607.45
1611.13
487.413
-0.0224143
0.0898966
0.331639
1.11911
0.926737
0.179057
554.389
1637.81
1640.73
553.632
-0.0301092
-0.0152304
0.270188
1.10885
0.843048
0.16333
624.091
1665.25
1668.83
624.592
-0.0429862
-0.033004
0.00617108
0.339539
0.355702
0.121366
717.992
1692.53
1697.29
720.222
-0.0491103
0.0424162
-0.023488
0.0965287
0.105673
0.102262
821.223
1716.77
1722.21
823.796
-0.0443665
0.0865099
0.10328
0.0928444
0.0935313
0.0924468
956.801
1739.5
1743.35
957.899
-0.0348398
0.0745087
0.174864
0.137366
0.0820349
0.0785427
1090.02
1760.48
1762.03
1089.22
-0.0317685
-0.00179667
0.182531
0.149786
0.0677558
0.0669797
1222.4
1778.62
1781.83
1220.08
-0.0304724
-0.0248323
0.144844
0.0818026
0.0552429
0.0902601
1322.78
1797.26
1803.33
1333.76
-0.0296032
-0.0249369
0.149198
0.0502951
0.0505379
108.254
1522.99
1818.53
1816.73
1396.41
23.7471
-0.0254977
0.233969
0.0436652
0.0446089
325.636
1711.51
1836
1834.02
1428.9
51.9617
-0.0130602
0.262856
0.0360007
0.0333538
526.167
1780.78
1854.67
1853.22
1707.97
268.923
-0.00931194
0.237392
0.0300506
0.0291802
981.753
1867.38
1873.59
1873.02
1799.6
521.778
-0.0036551
0.0613595
0.0257015
0.0652678
1366.37
1891.69
1892.56
1892.37
1891.08
1111.58
0.0193807
0.013283
0.0109455
313.694
1678.49
1909.6
1911.21
1911.88
1911.35
1659.09
95.491
-0.00434146
0.00632567
1317.87
1927.69
1927.38
1926.84
1926.51
1926.27
1910.28
959.651
-0.028187
763.518
1906.32
1938.97
1937.21
1936.42
1936.24
1937.11
1939.32
1856.59
574.297
752.939
754.068
753.633
750.701
746.536
740.216
738.556
736.882
737.406
739.395
743.333
749.621
756.69
763.675
770.283
775.891
780.478
784.895
788.52
790.939
791.653
794.599
792.231
792.605
792.789
793.434
794.051
794.883
795.651
795.859
795.471
793.529
791.743
791.284
790.035
789.828
788.611
786.13
780.829
780.965
747.496
748.302
746.815
742.379
738.41
733.713
733.388
732.76
732.602
734.88
740.242
746.362
752.831
759.855
767.035
773.173
778.219
782.391
785.778
787.95
789.277
790.302
790.384
790.298
790.673
790.897
790.566
792.378
792.891
793.627
793.68
792.456
789.352
791.34
791.366
790.39
788.439
785.726
776.959
777.533
741.016
741.066
738.757
732.953
726.532
721.947
721.495
721.943
719.455
718.139
723.72
734.237
745.322
754.174
761.4
767.75
773.193
777.653
781.668
785.052
787.911
789.969
789.856
788.639
789.18
790.359
789.575
790.395
788.558
792.78
790.99
787.41
787.466
788.805
792.931
788.486
778.75
768.776
770.827
772.336
737.484
735.705
732.227
726.425
715.383
706.057
713.259
709.165
700.337
701.162
704.555
722.95
736.021
746.062
754.622
761.851
767.656
772.613
776.78
780.664
783.565
786.035
787.024
787.548
790.409
792.953
793.417
791.781
781.238
775.984
775.435
775.483
783.536
785.557
790.576
786.237
767.296
762.794
765.971
766.775
738.492
736.251
732.883
727.515
716.076
699.151
697.009
699.051
702.023
698.78
701.257
707.78
731.25
744.412
752.937
758.934
763.801
768.535
772.739
777.31
780.361
779.822
781.42
783.484
785.049
791.252
792.502
791.557
781.29
771.143
772.023
773.025
774.133
774.479
791.806
795.922
771.764
765.807
766.653
766.918
740.344
739.469
737.584
734.52
716.477
703.69
700.689
700.25
701.166
703.111
705.885
717.542
739.689
746.911
753.218
758.591
762.827
766.652
770.507
775.163
778.645
777.346
779.207
781.249
782.597
788.884
792.467
780.237
770.88
772.673
774.738
775.655
774.513
776.487
787.387
802.849
799.626
771.046
768.891
768.509
742.306
742.075
741.314
739.4
717.522
710.769
709.893
709.341
709.197
709.427
719.046
741.678
745.777
750.352
754.811
758.931
762.521
766.101
769.765
773.643
777.45
781.125
779.287
780.734
783.611
791.444
792.749
787.628
773.91
777.342
797.475
799.962
797.229
800.102
799.359
801.648
801.189
778.2
776.506
776.832
744.508
744.544
744.403
744.15
742.238
728.65
716.496
715.181
733.919
745.316
746.322
748.024
750.522
753.224
756.022
758.857
761.626
764.557
767.965
772.151
776.388
780.302
783.637
784.458
786.629
790.391
791.519
788.934
794.279
797.421
801.058
803.342
802.399
801.785
801.595
802.389
802.19
774.885
761.563
763.106
746.597
746.797
746.765
746.569
746.534
746.375
745.779
746.588
747.612
748.302
749.436
750.795
752.255
753.859
755.331
756.45
757.553
759.802
763.578
768.462
773.731
778.71
782.834
786.21
788.569
789.953
783.765
781.505
792.166
794.972
797.28
798.689
799.016
799.529
800.249
801.817
802.669
781.29
758.626
759.225
747.969
748.389
748.46
748.336
747.979
747.704
747.894
748.287
748.928
749.286
750.263
751.17
751.485
751.925
752.277
743.983
729.848
724.455
742.876
761.269
768.413
775.553
781.389
785.556
787.618
781.428
778.84
779.439
789.988
793.8
794.856
795.631
795.438
793.716
795.694
799.979
802.002
803.191
764.708
772.522
749.307
749.223
749.885
750.298
749.123
747.89
748.122
748.719
748.016
749.467
750.562
751.614
751.259
750.356
719.503
682.44
681.577
681.51
684.8
728.946
765.275
773.099
779.6
784.442
780.632
775.696
777.012
778.025
792.993
794.194
794.953
795.222
790.656
790.896
792.304
798.599
801.163
803.65
803.647
806.569
743.601
745.542
749.004
750.152
748.529
746.882
747.145
748.407
743.222
741.236
750.002
750.871
751.364
714.821
678.48
679.529
680.283
681.022
682.243
686.235
763.695
773.329
778.969
783.807
783.75
774.249
775.494
779.932
793.93
794.784
786.584
794.821
792.316
792.385
798.281
800.446
803.312
806.187
808.406
808.984
689.389
687.229
730.962
751.55
730.351
715.21
720.222
742.89
739.808
726.569
732.137
749.261
747.673
702.197
675.253
676.982
678.626
680.047
681.174
711.813
770.692
776.914
780.619
783.773
785.34
785.346
773.067
789.367
793.499
789.628
785.004
795.596
797.443
798.242
801.566
804.361
807.768
810.919
807.077
806.587
685.283
683.979
690.724
718.643
681.797
689.752
718.444
715.47
704.73
663.118
653.342
669.012
718.504
735.887
703.476
686.659
676.586
677.807
698.071
747.382
771.417
777.304
778.824
779.059
778.707
779.475
773.144
785.975
791.273
786.843
783.7
792.517
800.392
794.081
778.396
790.09
810.713
815.587
810.804
810.106
747.413
743.1
728.219
687.142
677.032
661.831
648.02
647.449
647.948
648.152
647.892
654.287
738.008
752.757
754.651
763.441
751.935
738.277
728.536
709.449
713.723
752.442
775.721
773.631
758.104
762.976
772.716
779.714
788.385
786.82
782.695
785.978
802.901
771.763
761.15
763.161
779.634
817.157
820.311
811.26
638.599
668.428
691.07
696.47
699.741
701.453
651.876
642.77
642.622
642.652
663.55
713.277
738.437
754.569
759.989
761.984
764.232
743.962
691.369
693.608
695.032
696.194
769.993
771.888
680.351
683.852
756.778
770.776
791.342
795.966
785.94
786.394
804.499
770.909
758.319
760.316
765.585
816.712
819.173
817.755
512.55
516.199
541.209
636.074
654.266
660.686
691.363
693.023
689.449
697.087
717.747
737.942
740.142
744.052
757.853
760.623
757.443
690.501
687.532
689.554
691.682
693.759
709.377
763.902
660.648
665.139
687.008
779.211
795.972
799.896
802.756
787.822
797.071
800.839
777.172
761.222
784.602
816.915
819.473
820.848
517.241
521.066
521.751
521.512
521.204
520.522
546.882
586.795
531.557
521.295
528.167
597.039
676.773
730.95
750.104
759.92
761.303
715.983
684.043
686.118
688.872
691.906
695.679
743.735
684.455
662.833
665.034
687.115
774.438
803.421
806.231
791.661
781.564
805.794
808.776
804.043
801.33
817.964
823.19
824.833
530.905
528.35
527.51
526.859
524.503
521.007
517.008
523.478
532.603
516.004
513.069
511.016
517.615
682.731
740.05
757.001
760.327
763.742
722.748
689.255
689.425
703.587
698.317
711.653
794.031
699.621
663.85
665.605
703.005
811.411
813.779
790.139
768.446
785.501
807.715
822.125
827.317
824.173
829.619
831.992
745.651
728.87
564.165
531.724
529.843
525.932
556.059
714.968
687.982
507.237
504.316
502.136
634.825
736.847
747.042
751.119
756.232
760.198
764.567
768.401
771.144
775.811
773.997
760.954
796.254
803.444
689.947
668.475
675.25
795.476
791.514
761.544
765.015
776.637
812.32
827.941
829.293
829.839
831.282
833.045
785.357
826.71
814.05
621.431
528.762
522.807
517.633
687.7
741.12
715.448
624.03
631.131
722.467
718.112
718.317
727.897
739.202
748.769
756.927
763.606
769.256
774.698
780.969
787.814
769.525
810.579
806.213
671.649
673.111
671.768
669.385
781.189
817.813
831.183
831.985
832.246
830.161
819.076
778.113
831.238
825.987
841.557
855.633
842.046
762.217
613.617
549.428
672.238
722.266
700.884
682.78
663.006
649.272
612.915
566.918
620.804
694.125
708.457
719.714
709.783
683.745
698.949
710.679
754.707
750.393
815.821
827.347
796.873
676.572
676.006
674.015
671.339
689.399
808.78
841.721
841.91
829.218
738.856
672.292
743.254
821.416
832.585
842.796
845.265
841.176
822.59
800.87
749.908
635.065
594.831
579.951
485.811
405.015
397.565
450.922
535.983
596.966
574.584
588.285
601.302
617.504
633.45
649.806
664.429
710.966
775.785
834.891
846.12
796.366
694.843
681.516
682.431
682.393
775.147
856.293
857.378
848.69
682.911
676.63
677.243
813.501
812.354
794.598
651.779
575.679
724.613
775.766
741.636
709.341
533.973
310.553
258.115
254.426
255.571
317.257
455.531
567.873
573.529
570.705
589.303
608.423
650.641
714.781
685.613
671.512
680.535
733.784
845.596
859.328
856.9
769.929
700.073
763.442
867.683
870.483
872.461
871.709
686.915
685.634
731.435
815.111
813.382
551.216
405.826
401.196
398.555
450.677
716.64
734.498
634.908
322.688
239.448
233.329
231.167
232.535
237.246
411.083
620.002
640.391
603.84
620.362
763.398
794.12
815.142
770.628
683.223
691.277
705.375
834.289
881.487
883.119
882.061
882.071
882.942
884.249
886.146
888.322
724.52
697.747
856.795
818.664
797.923
523.908
398.612
397.332
395.584
391.771
390.819
431.796
497.878
347.536
251.323
243.189
239.663
238.712
240.08
242.06
323.348
572.301
638.061
701.691
762.995
790.758
814.856
832.862
839.212
698.279
693.577
696.284
798.477
892.778
894.483
894.762
895.638
896.582
897.731
898.96
792.823
706.994
876.998
818.946
819.755
784.124
625.902
508.507
454.56
419.282
410.781
395.337
357.429
303.538
252.593
237.642
235.861
236.31
238.567
241.279
243.731
253.582
409.503
640.343
625.301
656.905
789.41
833.288
849.357
848.314
698.478
698.3
721.738
868.78
890.879
866.063
891.379
906.652
907.25
907.788
867.615
823.727
886.22
818.856
819.017
819.642
822.169
828.426
823.345
776.657
708.761
700.513
694.42
647.711
495.427
264.405
223.762
230.504
234.999
238.754
241.889
245.442
248.851
308.222
506.506
584.249
664.587
827.867
849.998
863.209
786.932
702.577
743.821
887.26
910.455
869.184
869.172
871.193
893.885
921.942
922.713
912.626
903.721
816.855
813.61
809.913
805.688
803.805
807.331
800.974
771.922
763.159
749.776
738.564
728.878
683.437
373.363
226.092
229.444
233.614
239.24
244.469
247.596
269.059
438.368
565.496
645.483
815.575
850.16
862.68
842.062
707.206
737.932
895.783
918.662
921.671
910.455
883.191
886.408
927.608
939.713
913.849
895.997
817.173
809.875
799.389
788.652
779.065
735.764
563.676
448.711
603.495
722.489
724.087
723.428
724.961
727.282
400.811
227.17
230.248
234.449
237.408
248.556
456.846
586.846
584.818
637.227
814.041
854.866
865.002
811.931
711.47
826.746
915.505
921.517
925.666
928.86
899.322
907.181
941.09
944.439
882.01
882.894
823.786
808.3
786.706
714.277
588.623
387.622
393.785
391.857
445.551
632.175
639.155
642.739
664.158
684.666
706.509
692.539
448.869
303.044
476.349
610.45
621.943
603.067
588.417
673.698
842.495
854.876
817.346
785.538
850.094
908.234
915.6
922.299
925.833
929.162
906.845
936.737
942.461
920.365
864.935
879.156
819.591
787.424
688.59
371.653
355.947
353.844
471.217
448.143
380.834
260.088
171.343
175.435
195.867
244.018
355.755
555.333
578.722
583.877
502.387
501.249
524.355
545.947
683.905
826.379
834.118
841.447
786.936
799.996
896.132
908.462
913.272
917.139
921.336
915.613
903.136
933.592
940.842
908.048
863.616
898.361
760.164
494.104
342.621
338.643
339.895
612.512
588.456
411.298
94.329
88.9655
86.8029
85.4012
84.4852
85.4675
89.054
128.533
207.6
362.084
525.317
591.7
660.335
748.974
804.631
819.485
827.767
779.812
583.761
736.5
888.967
896.897
903.344
909.499
915.263
905.191
909.325
933.502
939.135
888.373
872.264
916.518
449.157
334.013
329.966
343.578
671.552
711.976
477.155
95.3436
89.9576
87.9858
86.1268
86.0815
86.4721
86.8523
89.3715
193.213
515.363
645.881
722.313
773.066
788.255
796.565
786.523
668.146
612.268
555.127
561.761
610.665
861.391
889.164
895.812
902.409
908.325
911.897
921.674
927.677
934.15
866.91
925.751
912.128
333.855
327.034
351.973
707.826
734.139
713.778
189.8
94.7432
92.3634
90.6381
88.4453
86.6219
86.9948
88.7044
297.079
674.781
739.863
752.729
767.39
783.06
792.526
632.883
525.941
531.439
538.582
547.833
556.736
690.713
876.737
883.909
887.561
894.482
902.531
908.096
915.242
922.802
863.552
859.718
924.065
875.218
334.18
343.405
725.362
761.326
744.982
470.772
100.98
98.8032
96.168
94.3592
93.5995
93.3676
93.8656
246.001
683.464
750.234
760.353
771.444
758.717
659.732
615.296
595.488
586.928
569.994
669.177
718.618
788.842
861.608
870.521
767.407
736.129
825.634
891.986
903.597
911.444
908.448
875.993
902.333
906.82
834.14
322.797
710.966
783.176
771.915
731.38
280.112
102.398
101.217
99.841
98.6109
97.7417
97.0528
106.741
479.938
754.736
765.284
747.445
653.379
664.327
683.514
781.29
794.056
804.057
815.621
837.116
840.53
838.839
723.666
565.016
541.724
548.572
570.93
797.527
900.54
908.137
916.577
923.455
926.268
867.889
825.904
502.327
790.459
784.293
774.661
656.579
229.527
102.408
101.779
100.857
99.7721
98.9061
98.862
313.074
743.06
775.664
749.815
595.728
609.687
715.672
720.015
685.283
522.524
761.557
831.086
838.164
843.444
656.524
531.45
535.488
540.701
545.576
550.434
557.653
769.057
905.382
912.739
917.441
884.95
814.359
815.685
769.78
786.217
785.652
781.195
596.401
168.351
101.613
101.484
101.156
100.636
100.192
215.819
715.951
794.761
795.538
749.645
449.216
417.703
416.447
420.913
423.517
431.619
601.732
836.435
843.457
849.556
794.679
532.757
536.845
541.646
546.202
550.708
555.408
686.071
847.326
872.807
848.717
842.419
850.818
887.763
793.538
794.994
794.719
791.562
662.946
227.891
101.913
101.61
101.581
101.255
262.893
706.601
810.101
810.11
809.832
808.656
689.031
419.475
420.141
423.927
429.353
434.745
439.082
449.396
632.374
830.531
840.031
820.859
665.93
617.373
669.511
766.762
827.155
862.354
864.273
893.349
904.683
910.679
915.085
916.611
807.198
806.526
805.707
805.126
743.108
681.848
618.797
357.917
259.081
318.782
678.117
821.388
821.47
808.397
815.459
814.227
620.09
428.793
580.289
754.179
563.726
438.057
443.28
447.577
452.21
456.047
559.675
817.744
869.951
878.986
884.709
885.141
884
882.647
881.38
795.443
766.965
784.177
820.924
906.562
785.906
812.098
811.168
803.523
719.546
800.018
836.494
824.666
799.153
795.076
822.542
831.933
828.488
729.779
656.19
525.764
472.645
446.644
528.437
790.288
864.216
863.429
591.495
450.369
454.989
460.085
465.808
470.216
555.578
835.739
887.375
886.788
869.399
804.372
804.208
807.837
778.058
708.971
708.066
829.731
821.091
818.733
816.97
729.943
635.45
770.192
843.76
844.566
845.347
846.287
846.516
845.862
845.87
677.717
480.153
480.859
482.164
469.855
490.614
598.802
863.401
888.486
894.037
857.733
789.503
723.281
694.806
703.005
744.266
791.81
828.951
861.878
879.71
886.801
910.715
915.946
918.791
783.342
709.443
815.387
830.578
827.183
825.75
700.238
634.595
634.442
784.824
853.839
855.559
856.65
843.467
594.245
497.427
661.418
679.49
686.461
691.75
569.196
546.085
698.409
837.256
889.345
898.948
903.965
907.863
910.801
913.861
917.344
918.157
918.601
920.422
900.72
902.98
918.385
918.798
917.51
919.269
919.452
725.259
827.353
834.312
835.14
835.269
835.569
724.906
641.89
643.042
723.564
783.141
671.815
498.477
498.787
497.775
494.286
493.807
519.253
758.166
871.209
876.349
888.161
899.493
904.503
908.592
912.579
916.112
919.479
922.126
924.082
920.073
922.528
920.818
917.683
915.72
917.618
873.826
549.915
675.158
882.032
852.324
835.04
268.243
361.098
649.18
788.662
816.7
821.597
710.648
623.208
624.155
662.902
733.084
687.093
610.424
608.269
559.546
515.621
594.661
817.44
900.005
904.311
904.416
887.226
863.726
853.92
856.576
890.185
915.371
889.383
845.645
842.087
868.48
807.756
470.327
359.08
357.873
361.435
363.371
637.23
813.268
863.865
10.379
1.67818
0.101786
1.25077
149.756
318.542
477.516
635.162
699.518
708.824
735.153
735.925
721.844
715.113
685.652
678.369
652.578
655.92
682.427
737.409
828.455
578.07
303.92
303.105
301.98
305.563
540.527
878.602
921.141
721.301
581.287
556.467
555.06
635.894
687.034
728.723
705.924
728.228
797.073
911.351
0.660115
1.08405
0.312189
0.0760604
0.0285076
0.02201
0.0437831
0.121622
20.7584
93.2383
175.354
215.675
225.375
232.264
224.102
171.014
73.0098
26.2392
130.046
614.298
798.307
789.377
751.947
800.86
852.025
918.927
935.037
936.346
937.167
936.951
935.806
936.401
940.891
907.821
816.086
788.359
836.896
873.887
930.019
927.795
0.301949
0.160629
0.0460806
-0.0120094
-0.0282367
0.0146371
0.0605586
0.0990639
0.126851
0.19958
0.365179
0.513378
0.554636
0.617215
0.678918
0.772785
0.861746
1.01744
3.57654
176.47
397.576
238.021
44.2632
47.8511
103.862
342.745
660.502
790.24
867.875
930.162
942.744
946.345
949.751
952.773
955.426
957.752
959.808
961.362
938.199
874.975
0.821614
0.243942
0.22776
0.327325
0.28794
0.105109
0.0900362
0.114224
0.208814
1.65048
3.75289
4.31125
4.5197
4.55188
4.49652
4.25597
0.705393
0.353804
0.158463
0.336943
2.29253
0.681226
0.100841
0.133075
-0.0727621
-0.209238
-0.254661
2.24642
173.722
412.151
648.531
804.092
899.623
946.421
959.621
962.192
964.684
966.733
950.854
877.825
10.569
6.41735
1.25277
0.289037
0.156712
0.131701
0.126667
0.369245
0.597235
0.307956
0.152682
0.15638
0.811298
1.43749
0.879809
0.748332
0.250227
0.0916847
-0.0132368
-0.0949494
-0.137996
0.0173926
-0.107293
0.328229
0.39953
-0.0681292
-0.0965529
-0.0647164
-0.169773
-0.201824
-0.0903875
29.512
196.044
381.452
540.119
670.113
771.914
842.712
881.107
883.92
0.954831
0.423548
0.674516
0.473167
0.163193
0.14638
0.143664
0.252717
0.288395
0.171816
0.146636
0.148987
0.135747
0.111227
0.0880624
0.0755514
0.0814725
0.0702879
0.0428823
0.000259419
-0.0491556
-0.112818
-0.146138
-0.155182
0.501716
0.235669
-0.107257
-0.0596463
-0.0594413
-0.0852246
-0.0705149
-0.074325
-0.0845743
-0.0752616
-0.0430054
0.0974409
45.4549
109.671
176.316
231.67
0.111864
0.208204
0.293684
0.169523
0.128881
0.13609
0.145513
0.153112
0.158489
0.16425
0.164374
0.149501
0.157222
0.255545
0.184237
0.103395
0.0983816
0.0858124
0.0641188
0.0900855
0.00927346
-0.0661911
-0.0940173
-0.109635
0.0108495
0.288648
0.0982728
-0.0537011
-0.033991
-0.00389881
-0.0337801
-0.0741262
-0.0601486
-0.0489491
-0.0422373
-0.0288757
-0.0296076
-0.0256821
-0.0115825
-0.00621453
0.301413
0.0776405
0.0829081
0.092194
0.103807
0.114823
0.126916
0.13286
0.201497
0.33833
0.347313
0.345174
0.348043
0.28229
0.295384
0.215442
0.126234
0.0841009
0.0594639
0.162717
0.0434093
-0.0385365
-0.0650616
-0.0817238
-0.0920325
0.126964
0.139473
-0.0397021
-0.0833549
-0.0111657
0.0096266
0.00176037
-0.0524181
-0.0435158
-0.0307532
-0.0261101
-0.0141698
0.0540121
0.1532
0.171414
0.0818126
0.0876131
0.111061
0.118031
0.111546
0.109566
0.302337
0.31921
0.259817
0.152002
0.171246
0.919255
1.40248
1.43848
1.44942
1.43792
1.09824
0.669914
0.535417
0.317287
0.0306969
-0.0388108
-0.0569541
-0.0682133
-0.0796897
-0.0869445
0.00198152
-0.0562719
-0.0853386
-0.0738885
0.0105647
0.0189227
-0.0304531
-0.0163101
-0.005202
8.76698e-05
0.00915888
0.0198181
0.279445
0.307715
0.0865326
0.0892411
0.0935387
0.0943705
0.0961845
0.264624
0.303724
0.10111
0.0935013
0.691288
1.4597
1.45787
1.45572
1.44987
1.44115
1.43211
1.41878
1.4076
1.39558
1.37769
1.35442
1.31262
0.242913
-0.0739722
-0.0891459
-0.0997754
-0.104188
-0.101176
-0.0922818
-0.0769663
-0.0579616
-0.0215579
-0.0179614
-0.00105218
0.0168104
0.034936
0.0452407
0.0553415
0.163075
0.343136
0.249801
0.257385
0.0879331
0.0889213
0.170163
0.289496
0.173446
0.0667205
0.0625181
0.175824
1.44605
1.45054
1.44484
1.4328
1.41728
0.754156
0.150392
1.02046
1.38041
1.36738
1.35438
1.34175
1.33261
1.3187
1.30414
0.416566
-0.122423
-0.11815
-0.105345
-0.0873522
-0.0654703
-0.0415182
-0.0174466
0.00672829
0.0286999
0.0457068
0.161837
0.132542
0.183177
0.363501
0.0500729
0.331357
0.188996
0.366422
0.364067
0.0922783
0.0608557
0.0612036
0.059642
0.217253
0.970156
1.38348
1.17254
0.593835
0.164485
0.135277
0.108356
0.0960118
0.0848254
0.704033
1.35423
1.33301
1.31468
1.31074
1.30895
1.30475
0.802663
-0.113662
-0.115473
-0.0961824
-0.071868
-0.045571
-0.019291
0.00711722
0.0304706
0.0598201
0.430794
0.241434
0.189613
0.346299
0.338502
0.748361
0.638557
0.091388
0.0717284
0.0594412
0.0590576
0.239558
0.657833
0.709383
0.149072
0.147449
0.151088
0.275611
0.467513
0.734826
0.515866
0.110416
0.0565224
0.0442452
0.240876
0.175859
0.0219021
0.917191
1.31306
1.31942
1.31853
0.362916
-0.121959
-0.10247
-0.0772585
-0.0502643
-0.0230023
0.00277067
0.0246402
0.33271
0.42713
0.261544
0.193711
0.340889
0.754904
0.7558
0.358314
0.0589427
0.0606589
0.0687759
0.626765
0.905965
0.889382
0.326898
0.0261243
0.131603
0.602462
0.737116
0.735802
0.725532
0.70846
0.690108
0.652253
0.654574
0.640089
0.626489
0.00194173
-0.0927328
0.269193
1.36373
1.3297
0.170072
-0.128175
-0.108003
-0.0825223
-0.0561925
-0.0296517
-0.00577801
0.25331
0.398323
0.392837
0.194747
0.294971
0.188418
0.76154
0.757387
0.174644
0.0573421
0.190616
0.871026
0.867045
0.650751
0.0300069
0.0183623
0.0115869
0.260252
0.31455
0.290976
0.233026
0.274456
0.677842
0.654127
0.619594
0.590151
0.582601