/*--------------------------------*- C++ -*----------------------------------*\
  =========                 |
  \\      /  F ield         | OpenFOAM: The Open Source CFD Toolbox
   \\    /   O peration     | Website:  https://openfoam.org
    \\  /    A nd           | Version:  8
     \\/     M anipulation  |
\*---------------------------------------------------------------------------*/
FoamFile
{
    version     2.0;
    format      ascii;
    class       volScalarField;
    location    "0.7";
    object      p;
}
// * * * * * * * * * * * * * * * * * * * * * * * * * * * * * * * * * * * * * //

dimensions      [1 -1 -2 0 0 0 0];

internalField   nonuniform List<scalar> 
9150
(
328.735
301.844
276.24
258.955
250.563
250.563
258.955
276.24
301.844
328.735
299.867
280.399
264.646
252.791
246.75
246.75
252.791
264.646
280.399
299.867
270.59
257.09
248.446
240.674
236.522
236.522
240.674
248.446
257.09
270.59
245.851
235.913
230.34
224.98
221.983
221.983
224.98
230.34
235.913
245.851
224.531
215.739
211.025
206.851
204.395
204.395
206.851
211.025
215.739
224.531
-37.4774
-41.9531
-16.9959
-3.05354
3.16475
3.16473
-3.05359
-16.996
-41.9533
-37.4777
132.613
108.296
102.746
101.176
100.901
100.901
101.176
102.746
108.296
132.613
237.135
205.529
189.397
179.263
174.305
174.305
179.263
189.397
205.529
237.135
317.495
275.163
247.14
229.644
220.954
220.954
229.644
247.14
275.163
317.495
367.017
315.034
276.385
254.243
243.979
243.979
254.243
276.385
315.034
367.017
-121.582
-81.9728
-89.8844
-87.5508
-92.1409
-92.142
-87.5537
-89.8875
-81.9777
-121.586
-116.387
-93.6036
-114.04
-108.675
-111.844
-111.845
-108.676
-114.042
-93.6038
-116.389
-160.768
-127.238
-156.772
-151.002
-147.38
-147.381
-151.003
-156.773
-127.239
-160.77
-339.469
-213.447
-193.699
-176.052
-160.415
-160.416
-176.053
-193.7
-213.448
-339.47
-477.653
-243.989
-146.619
-116.839
-101.819
-101.82
-116.839
-146.62
-243.989
-477.654
2393.47
2521.86
2620.9
2687.75
2720.99
2721.29
2688.64
2622.38
2523.86
2395.89
1818.43
1921.33
2004.56
2063.82
2096.06
2096.33
2064.56
2005.68
1922.75
1820.04
1270.62
1329.23
1377.16
1410.97
1428.63
1428.72
1411.23
1377.53
1329.66
1271.03
1096
1121.12
1142.56
1157.73
1165.54
1165.52
1157.66
1142.41
1120.85
1095.53
1182
1151.04
1136.75
1129.13
1125.52
1125.39
1128.73
1136.07
1150
1180.34
1405.53
1300.94
1247.35
1218.37
1204.42
1204.16
1217.6
1245.99
1298.65
1401.72
1578.06
1440.02
1362.99
1325.21
1308.02
1307.72
1324.28
1361.25
1436.89
1573.61
1651.9
1535.46
1448.15
1408.36
1392.41
1392.19
1407.66
1446.73
1533.04
1650.21
1599.11
1560.93
1484.56
1448.89
1436.89
1436.69
1448.19
1482.98
1558.57
1600.3
1481.06
1568.29
1505.01
1467.26
1456.34
1456.19
1466.67
1503.57
1566.65
1485.05
1348.77
1541.1
1497.88
1460.75
1450.88
1450.87
1460.57
1497.26
1541.29
1356
1198.8
1486.15
1469.94
1436.5
1427.96
1428.02
1436.56
1469.93
1487.94
1208.01
1065.16
1432.68
1444.76
1412.33
1402.57
1402.51
1411.96
1444.23
1435.73
1076.59
915.764
1367.51
1429.98
1396.03
1381.04
1380.89
1395.35
1429.11
1371.21
927.525
800.266
1302.38
1406.91
1374.08
1355.2
1355.05
1373.39
1406.31
1307.46
812.624
692.42
1226.88
1374.9
1346.08
1324.36
1324.27
1345.64
1375.09
1233.52
703.759
605.177
1149.64
1336.84
1313.36
1289.49
1289.48
1313.24
1337.79
1157.32
616.097
529.593
1068.92
1290.1
1274
1249.31
1249.39
1274.3
1292.04
1077.53
539.646
469.84
990.744
1238.87
1231.96
1207.15
1207.12
1232.08
1241.46
1000.34
478.843
421.467
910.893
1184.24
1192.45
1167.54
1167.27
1192.02
1187.06
921.115
429.536
381.494
842.644
1131.28
1150.26
1125.89
1125.67
1149.96
1133.87
851.817
388.77
346.227
777.109
1076.98
1106.38
1082.94
1082.72
1106.14
1079.86
786.406
353.041
315.707
716.526
1023.31
1061.94
1039.52
1039.28
1061.7
1026.31
725.665
322.008
288.842
659.907
969.761
1016.58
995.372
995.146
1016.41
972.967
668.926
294.679
265.03
607.214
916.698
970.556
950.685
950.484
970.494
920.115
616.065
270.44
243.668
558.26
864.378
924.053
905.594
905.423
924.105
867.966
566.873
248.674
224.346
512.86
813.03
877.285
860.256
860.112
877.438
816.726
521.149
228.941
206.781
470.76
762.749
830.39
814.787
814.671
830.632
766.498
478.662
210.975
190.682
431.685
713.601
783.495
769.299
769.205
783.803
717.335
439.139
194.497
175.794
395.397
665.695
736.769
723.932
723.852
737.108
669.333
402.35
179.26
161.881
361.674
619.151
690.405
678.849
678.772
690.732
622.611
368.087
165.033
148.772
330.298
574.041
644.556
634.188
634.103
644.836
577.254
336.142
151.634
136.415
301.044
530.325
599.282
590.02
589.926
599.506
533.267
306.318
138.995
124.917
273.757
487.93
554.608
546.395
546.304
554.81
490.642
278.498
127.202
114.373
248.325
446.843
510.596
503.385
503.32
510.842
449.414
252.6
116.332
104.731
224.567
407.034
467.309
461.059
461.045
467.679
409.58
228.46
106.327
95.9459
202.316
368.468
424.806
419.484
419.537
425.354
371.066
205.894
97.1583
88.0119
181.53
331.216
383.216
378.769
378.887
383.928
333.837
184.789
88.8476
80.8564
162.195
295.416
342.724
339.078
339.233
343.514
297.927
165.076
81.3814
74.4679
144.291
261.17
303.52
300.602
300.763
304.296
263.447
146.732
74.6916
68.6714
127.99
228.822
265.972
263.647
263.698
266.413
230.41
129.709
68.8155
63.3776
113.15
198.463
230.253
228.395
228.327
230.271
199.221
114.184
63.5807
58.755
99.4283
169.687
196.156
194.764
194.686
196.084
170.156
100.144
58.8269
54.7031
86.7333
142.446
163.688
162.731
162.662
163.606
142.768
87.2149
54.6574
51.0843
75.0104
116.799
132.931
132.358
132.296
132.832
116.958
75.2591
50.9595
47.7702
64.0764
92.6703
103.905
103.677
103.626
103.807
92.7198
64.1601
47.5867
44.6393
53.8365
70.0234
76.6145
76.6969
76.6582
76.5239
69.982
53.7791
44.4202
41.6246
44.1432
48.7454
51.0111
51.3933
51.3659
50.9348
48.6413
43.9863
41.3844
38.6225
34.9531
28.8585
27.1366
27.7902
27.7651
27.048
28.6717
34.7114
38.4041
35.5512
26.2428
10.3794
5.01264
5.90558
5.87893
4.90206
10.1115
25.9369
35.387
32.4131
17.92
-6.81207
-15.4487
-14.3258
-14.3484
-15.5559
-7.10393
17.6032
32.3024
29.2166
9.95825
-22.7738
-34.3101
-32.9676
-32.9866
-34.4115
-23.0726
9.65353
29.1664
26.0075
2.36535
-37.5572
-51.6434
-50.0916
-50.1083
-51.741
-37.8578
2.08097
26.0164
22.8661
-4.83183
-51.2226
-67.5363
-65.7816
-65.7961
-67.6288
-51.5189
-5.09488
22.9228
19.8809
-11.6007
-63.8313
-82.0796
-80.1243
-80.1361
-82.1647
-64.1185
-11.8466
19.9683
17.1267
-17.9155
-75.4416
-95.3597
-93.2031
-93.2121
-95.436
-75.7168
-18.1506
17.2269
14.6515
-23.7654
-86.1072
-107.454
-105.094
-105.1
-107.52
-86.3682
-23.9951
14.7491
12.4704
-29.1569
-95.874
-118.426
-115.862
-115.866
-118.484
-96.121
-29.3856
12.5546
10.5723
-34.1112
-104.784
-128.331
-125.565
-125.567
-128.381
-105.017
-34.3408
10.6371
8.93036
-38.6596
-112.879
-137.221
-134.254
-134.254
-137.262
-113.097
-38.8889
8.9739
7.51192
-42.8362
-120.202
-145.145
-141.979
-141.976
-145.174
-120.399
-43.0621
7.53484
6.28483
-46.6745
-126.793
-152.152
-148.792
-148.785
-152.168
-126.967
-46.8935
6.28952
5.22108
-50.2047
-132.694
-158.294
-154.746
-154.736
-158.297
-132.844
-50.4143
5.21019
4.29834
-53.4533
-137.948
-163.625
-159.895
-159.881
-163.613
-138.073
-53.6519
4.27415
3.49776
-56.4442
-142.595
-168.197
-164.294
-164.276
-168.171
-142.697
-56.6315
3.4626
2.80295
-59.1993
-146.678
-172.063
-167.997
-167.975
-172.026
-146.758
-59.3753
2.7589
2.19998
-61.738
-150.235
-175.277
-171.057
-171.032
-175.229
-150.296
-61.9044
2.1484
1.67645
-64.0745
-153.304
-177.89
-173.53
-173.504
-177.837
-153.352
-64.2343
1.61863
1.22231
-66.2167
-155.916
-179.96
-175.477
-175.453
-179.909
-155.962
-66.3748
1.15826
0.826031
-68.1686
-158.104
-181.549
-176.967
-176.947
-181.509
-158.159
-68.3308
0.754552
0.485347
-69.9823
-160
-182.788
-178.106
-178.1
-182.793
-160.121
-70.1815
0.41662
0.3666
-72.0639
-162.241
-184.114
-179.182
-179.199
-184.198
-162.499
-72.3546
0.373554
0.560733
-74.4125
-164.433
-185.095
-179.796
-179.768
-185.027
-164.458
-74.6299
0.441655
-1.41154
-76.5742
-164.191
-183.896
-178.706
-178.632
-183.671
-163.961
-76.718
-1.78846
-3.48256
-77.5511
-162.735
-181.797
-176.917
-176.883
-181.705
-162.698
-77.7184
-3.67079
-4.74803
-79.3226
-162.576
-180.542
-175.653
-175.654
-180.563
-162.718
-79.6079
-4.9161
-5.92174
-81.2117
-162.58
-179.359
-174.391
-174.402
-179.406
-162.746
-81.4975
-6.08457
-7.1005
-82.9499
-162.32
-177.965
-172.962
-172.978
-178.029
-162.498
-83.2325
-7.26054
-8.29654
-84.609
-161.872
-176.39
-171.367
-171.388
-176.464
-162.056
-84.8844
-8.45216
-9.51997
-86.2273
-161.28
-174.654
-169.616
-169.639
-174.733
-161.462
-86.4898
-9.66963
-10.7764
-87.8151
-160.556
-172.769
-167.717
-167.74
-172.848
-160.73
-88.0597
-10.9187
-12.0718
-89.3772
-159.706
-170.74
-165.672
-165.694
-170.815
-159.867
-89.5999
-12.2052
-13.4122
-90.9164
-158.728
-168.563
-163.478
-163.499
-168.633
-158.873
-91.1147
-13.5355
-14.8039
-92.4336
-157.617
-166.23
-161.126
-161.145
-166.293
-157.742
-92.6054
-14.9155
-16.2542
-93.9278
-156.359
-163.726
-158.599
-158.615
-163.78
-156.465
-94.0729
-16.3536
-17.7726
-95.396
-154.936
-161.025
-155.868
-155.882
-161.07
-155.023
-95.5153
-17.8587
-19.3716
-96.8342
-153.32
-158.091
-152.894
-152.905
-158.128
-153.39
-96.9296
-19.444
-21.0686
-98.2387
-151.478
-154.875
-149.621
-149.631
-154.904
-151.532
-98.3124
-21.1276
-22.8863
-99.6067
-149.364
-151.308
-145.969
-145.976
-151.33
-149.402
-99.6608
-22.9326
-24.856
-100.936
-146.909
-147.286
-141.816
-141.82
-147.301
-146.935
-100.974
-24.8914
-27.0209
-102.214
-144.003
-142.644
-136.976
-136.979
-142.653
-144.02
-102.24
-27.0476
-29.4298
-103.379
-140.441
-137.123
-131.172
-131.174
-137.129
-140.452
-103.397
-29.4503
-32.1096
-104.228
-135.853
-130.347
-124.039
-124.04
-130.352
-135.862
-104.243
-32.1266
-34.9919
-104.313
-129.706
-121.909
-115.245
-115.247
-121.914
-129.716
-104.329
-35.0079
-37.8287
-102.837
-121.4
-111.575
-104.725
-104.727
-111.581
-121.411
-102.855
-37.8447
-40.0114
-98.8698
-110.672
-99.6581
-93.0473
-93.0489
-99.6638
-110.684
-98.8895
-40.0276
-42.1408
-94.4803
-100.08
-88.9416
-83.2183
-83.2197
-88.9468
-100.092
-94.4996
-42.1563
-48.9833
-94.0601
-91.7314
-82.1053
-78.6644
-78.6658
-82.1104
-91.7428
-94.0784
-48.9991
-62.8714
-78.2099
-72.197
-74.0832
-76.6353
-76.6368
-74.0881
-72.2065
-78.2252
-62.8874
-63.0771
-46.085
-60.5469
-74.2756
-81.0555
-81.057
-74.2802
-60.5534
-46.0931
-63.0736
2233.29
2040.17
1836.31
1634.41
1447.59
1286.44
1155.02
1047.46
956.272
878.29
812.297
756.785
710.056
670.703
637.678
610.168
587.495
569.085
554.444
543.152
534.848
529.225
526.016
524.996
525.969
528.765
533.229
539.216
546.583
555.18
564.834
575.355
586.661
599.098
613.806
623.734
630.975
635.225
643.811
640.685
1696.5
1551.93
1407.4
1275.59
1165.23
1079.86
1018.85
978.78
947.996
917.986
885.685
851.05
815.221
779.571
745.351
713.598
685.008
659.939
638.493
620.605
606.103
594.771
586.358
580.612
577.292
576.138
576.907
579.332
583.142
588.044
593.687
599.641
605.507
611.278
616.769
619.677
623.94
626.815
626.012
630.752
1202.28
1125.38
1054.61
996.415
950.882
914.651
894.76
907.182
928.749
937.334
929.417
908.842
881.88
852.516
822.254
792.259
763.625
737.183
713.42
692.562
674.645
659.594
647.265
637.463
629.965
624.507
620.81
618.555
617.398
616.983
616.909
616.727
616.034
614.607
612.343
609.301
607.439
608.612
625.532
633.029
1071.31
1054.68
1033.21
965.597
823.339
629.644
478.434
513.881
629.355
754.714
834.974
857.33
849.121
832.028
812.264
791.422
770.047
748.878
728.687
710.029
693.195
678.304
665.358
654.279
644.945
637.17
630.727
625.353
620.775
616.721
612.931
609.18
605.375
601.63
598.301
596.165
597.196
605.347
624.095
643.64
1248
1335.61
1257.67
852.889
409.555
299.369
276.503
271.101
290.567
359.997
510.785
677.893
765.707
781.832
772.149
758.372
744.587
730.231
715.366
700.621
686.546
673.455
661.485
650.681
641.013
632.388
624.664
617.682
611.288
605.339
599.729
594.45
589.644
585.691
583.242
583.414
588.693
603.975
631.176
655.986
1560.52
1541.12
1012.13
466.568
291.08
269.91
264.713
259.829
257.427
260.031
280.028
377.598
549.699
687.893
730.067
722.156
709.549
699.104
688.879
678.085
667.077
656.3
646.006
636.304
627.23
618.763
610.85
603.437
596.477
589.951
583.896
578.461
573.954
570.906
570.098
572.737
581.383
600.868
632.063
658.928
1658.28
1219
477.904
282.743
263.514
259.926
258.947
257.934
257.114
256.817
257.496
261.373
304.33
460.336
623.586
682.165
677.277
665.317
656.601
648.86
640.756
632.379
624.03
615.878
607.995
600.404
593.116
586.152
579.556
573.392
567.808
563.037
559.489
557.757
558.641
563.296
574.084
595.268
626.803
652.799
1508.86
770.144
289.239
260.929
256.57
256.368
256.287
256.005
255.632
255.179
254.672
254.65
256.325
281.504
409.223
574.67
639.217
635.941
624.555
617.214
611.351
605.315
599.024
592.67
586.355
580.123
574.019
568.116
562.497
557.284
552.669
548.93
546.503
545.967
548.059
553.789
565.189
585.804
615.062
638.273
1227.84
491.375
267.32
255.163
253.899
254.15
254.197
254.082
253.898
253.654
253.318
252.881
252.678
254.204
271.196
393.199
546.806
600.751
595.326
585.772
580.652
576.8
572.744
568.423
563.968
559.448
554.923
550.472
546.195
542.237
538.802
536.17
534.746
535.044
537.684
543.488
554.094
572.317
597.41
616.906
918.547
333.378
257.389
251.444
251.513
252.008
252.173
252.181
252.116
251.987
251.785
251.485
251.075
250.714
251.794
276.545
403.256
530.497
561.328
554.75
549.37
547.361
545.8
543.846
541.554
539.035
536.357
533.593
530.85
528.272
526.049
524.435
523.767
524.463
527.012
532.027
540.749
555.289
574.948
589.985
717.153
278.051
251.226
248.931
249.631
250.152
250.348
250.425
250.443
250.404
250.31
250.166
249.935
249.584
249.629
252.122
299.163
428.561
510.339
520.361
517.028
516.976
518.254
519.094
519.302
519.029
518.382
517.442
516.313
515.126
514.046
513.278
513.08
513.764
515.677
519.24
525.321
535.351
548.837
559.02
556.723
258.449
248.087
247.427
248.14
248.527
248.685
248.78
248.839
248.853
248.823
248.751
248.631
248.413
248.081
248.077
256.505
340.358
448.61
482.871
484.647
486.637
490.733
494.521
497.398
499.488
500.939
501.846
502.307
502.434
502.358
502.23
502.226
502.554
503.418
505.095
508.062
513.15
520.162
525.396
443.834
253.915
246.543
246.211
246.743
246.987
247.094
247.187
247.271
247.331
247.36
247.355
247.309
247.172
246.879
246.73
248.314
288.12
383.954
439.083
450.443
456.18
463.398
470.252
475.883
480.368
483.891
486.574
488.515
489.811
490.56
490.858
490.808
490.508
490.064
489.585
489.246
489.312
489.904
490.363
360.247
250.692
244.866
244.751
245.191
245.359
245.447
245.555
245.679
245.802
245.917
246.02
246.109
246.171
246.187
246.199
246.626
269.569
339.951
394.93
414.163
425.659
436.752
446.717
454.999
461.741
467.17
471.443
474.666
476.925
478.288
478.802
478.496
477.383
475.469
472.741
469.094
464.31
458.842
454.852
307.179
247.342
242.985
243.061
243.427
243.559
243.66
243.805
243.983
244.18
244.389
244.606
244.833
245.085
245.388
245.626
245.087
259.779
312.882
359.546
382.309
398.424
412.714
425.092
435.429
443.944
450.878
456.391
460.589
463.538
465.269
465.783
465.045
462.991
459.545
454.597
447.797
438.518
427.554
419.571
269.413
243.324
240.773
241.066
241.377
241.515
241.662
241.864
242.108
242.383
242.681
243
243.34
243.703
244.073
244.526
243.71
257.044
299.316
335.523
358.476
376.652
392.487
406.112
417.611
427.202
435.078
441.373
446.161
449.476
451.311
451.617
450.302
447.235
442.279
435.237
425.57
412.31
396.583
385.202
252.994
238.592
237.964
238.618
238.971
239.173
239.401
239.682
240.006
240.37
240.766
241.195
241.688
242.276
242.611
241.198
239.792
257.707
292.407
320.297
341.691
359.908
375.856
389.68
401.498
411.465
419.706
426.299
431.279
434.636
436.319
436.233
434.233
430.135
423.75
414.825
402.664
386.046
366.395
352.286
243.052
235.44
235.448
236.119
236.432
236.646
236.912
237.243
237.632
238.072
238.562
239.102
239.675
240.255
240.931
238.424
240.109
262.178
289.036
311.278
330.251
347.136
362.159
375.363
386.8
396.54
404.63
411.087
415.897
419.004
420.313
419.685
416.932
411.826
404.142
393.585
379.359
360.055
337.361
321.21
239.386
233.371
233.125
233.515
233.694
233.862
234.128
234.489
234.932
235.449
236.047
236.776
237.579
237.743
235.129
233.625
245.762
267.388
287.582
305.478
321.844
336.844
350.412
362.497
373.081
382.159
389.708
395.689
400.038
402.657
403.415
402.135
398.594
392.534
383.711
371.803
355.96
334.644
309.781
292.246
235.597
230.345
230.042
230.313
230.44
230.601
230.887
231.296
231.813
232.431
233.188
234.21
235.485
235.65
230.48
233.889
251.281
269.529
285.688
300.65
314.725
327.806
339.759
350.501
359.972
368.113
374.856
380.116
383.789
385.745
385.822
383.818
379.486
372.555
362.767
349.802
332.772
310.086
283.858
265.536
231.225
226.474
226.23
226.476
226.592
226.758
227.06
227.488
228.026
228.666
229.422
230.349
231.667
229.28
230.255
242.895
258.147
271.61
284.272
296.596
308.424
319.537
329.788
339.065
347.268
354.303
360.066
364.441
367.294
368.47
367.784
365.02
359.928
352.228
341.66
327.912
310.095
286.634
259.75
241.208
226.314
221.962
221.771
222.007
222.128
222.318
222.656
223.136
223.745
224.555
225.729
226.746
224.21
223.708
235.305
250.15
261.425
271.706
282.034
292.264
302.134
311.454
320.088
327.915
334.816
340.677
345.376
348.779
350.731
351.061
349.581
346.07
340.273
331.914
320.751
306.49
288.264
264.562
237.688
219.446
220.77
216.778
216.626
216.852
216.978
217.184
217.546
218.054
218.688
219.502
220.755
223.02
220.843
226.046
241.797
253.721
262.231
270.538
279.074
287.532
295.683
303.386
310.52
316.961
322.586
327.27
330.882
333.277
334.299
333.773
331.504
327.272
320.831
311.924
300.328
285.774
267.435
243.913
217.609
199.799
214.514
210.877
210.757
210.969
211.095
211.308
211.674
212.184
212.9
213.948
214.906
212.67
215.915
233.984
249.277
256.334
262.202
268.773
275.662
282.495
289.089
295.322
301.071
306.212
310.616
314.156
316.704
318.113
318.221
316.853
313.82
308.913
301.898
292.534
280.622
265.926
247.683
224.679
199.31
182.235
207.519
204.242
204.158
204.361
204.492
204.721
205.114
205.663
206.467
207.911
210.151
207.118
214.02
235.817
249.306
254.93
259.992
265.614
271.342
276.918
282.239
287.214
291.737
295.693
298.969
301.444
302.989
303.46
302.694
300.534
296.794
291.278
283.756
274.012
261.872
247.138
229.161
206.893
182.675
166.705
199.71
196.843
196.801
196.98
197.081
197.252
197.539
197.927
198.431
199.468
201.878
202.24
218.297
240.191
249.566
253.57
257.683
262.246
266.826
271.237
275.403
279.24
282.65
285.531
287.774
289.266
289.885
289.488
287.927
285.05
280.682
274.627
266.676
256.626
244.318
229.578
211.868
190.408
167.642
152.985
191.155
188.745
188.761
188.919
188.978
189.071
189.229
189.441
189.713
189.97
189.623
197.021
225.377
246.141
250.868
252.642
255.461
258.856
262.293
265.601
268.703
271.506
273.914
275.825
277.14
277.751
277.537
276.367
274.114
270.625
265.737
259.265
251.018
240.824
228.548
213.97
196.483
175.852
155.071
142.592
182.047
180.102
180.188
180.346
180.402
180.473
180.589
180.742
180.939
181.168
181.122
193.92
227.855
246.686
249.235
250.128
252.267
254.878
257.46
259.891
262.108
264.031
265.576
266.643
267.153
266.996
266.058
264.233
261.395
257.404
252.118
245.362
236.973
226.827
214.816
200.53
182.96
163.249
145.518
132.709
172.502
171.017
171.174
171.341
171.404
171.47
171.562
171.661
171.738
171.821
172.152
187.908
225.68
244.753
246.629
247.027
248.661
250.666
252.567
254.276
255.751
256.926
257.727
258.078
257.891
257.07
255.521
253.138
249.812
245.425
239.84
232.913
224.496
214.487
202.799
189.039
172.178
152.453
133.83
126.689
162.607
161.58
161.813
162
162.085
162.163
162.263
162.365
162.359
162.154
162.627
179.102
220.391
241.971
243.951
243.858
245
246.491
247.825
248.928
249.774
250.312
250.479
250.21
249.423
248.034
245.962
243.113
239.394
234.704
228.931
221.958
213.667
203.974
192.835
180.052
164.895
146.909
129.508
127.954
152.424
151.863
152.185
152.402
152.518
152.621
152.75
152.905
152.898
152.353
152.598
167.462
211.278
237.811
241.136
240.736
241.452
242.527
243.399
243.992
244.3
244.29
243.908
243.094
241.784
239.904
237.376
234.128
230.086
225.155
219.258
212.297
204.2
194.904
184.399
172.535
158.428
141.779
127.138
121.807
142.032
141.941
142.369
142.619
142.755
142.859
142.972
143.091
143.039
142.527
142.967
154.241
199.535
234.044
239.641
238.518
238.525
239.119
239.535
239.646
239.46
238.952
238.076
236.776
234.996
232.675
229.752
226.159
221.835
216.706
210.699
203.778
195.908
187.029
177.127
165.93
152.053
136.146
123.586
116.874
131.587
131.937
132.474
132.744
132.862
132.896
132.868
132.759
132.492
131.943
130.857
139.097
187.583
233.542
241.448
238.312
236.818
236.612
236.446
236.029
235.343
234.36
233.022
231.275
229.067
226.347
223.067
219.175
214.619
209.323
203.213
196.349
188.68
180.08
170.771
160.129
146.665
131.398
119.212
112.917
121.36
122.068
122.71
122.996
123.079
123.011
122.775
122.366
121.697
120.347
116.36
122.251
171.244
229.543
242.578
238.074
235.164
234.265
233.674
232.877
231.806
230.431
228.698
226.556
223.96
220.872
217.258
213.085
208.301
202.801
196.603
189.698
182.069
173.755
164.757
154.796
141.776
127.165
115.468
109.688
111.598
112.557
113.309
113.648
113.762
113.707
113.478
113.088
112.447
111.161
108.838
112.946
145.164
207.48
235.22
234.777
232.083
231.255
230.801
229.999
228.779
227.155
225.11
222.616
219.65
216.191
212.222
207.728
202.672
196.947
190.565
183.546
175.944
167.744
159.043
149.394
136.839
122.975
112.295
106.964
102.419
103.522
104.37
104.772
104.935
104.931
104.777
104.515
104.103
103.343
102.532
103.603
118.148
177.594
225.279
232.404
230.005
229.043
228.741
227.999
226.67
224.808
222.441
219.57
216.192
212.306
207.913
203.017
197.608
191.63
185.017
177.891
170.236
162.044
153.623
144.272
132.472
119.234
109.332
104.323
93.9379
95.0738
95.9679
96.3915
96.5448
96.4985
96.259
95.8275
95.1527
94.0459
93.0146
90.239
98.3949
151.598
215.819
232.734
230.396
228.572
228.072
227.281
225.785
223.628
220.87
217.539
213.657
209.248
204.335
198.938
193.068
186.721
179.857
172.517
164.743
156.555
148.115
139.147
128.487
116.014
105.487
101.746
86.2647
87.3419
88.2258
88.6458
88.7829
88.707
88.4238
87.9265
87.1865
86.0997
85.1688
84.042
88.0155
116.7
186.621
226.996
230.94
229.087
228.496
227.858
226.304
223.831
220.586
216.666
212.143
207.077
201.524
195.522
189.1
182.27
175.039
167.42
159.429
151.113
142.505
133.554
123.811
112.669
101.153
100.549
79.4367
80.3854
81.1927
81.5762
81.6854
81.5848
81.2832
80.7898
80.1206
79.2401
77.9997
76.9899
74.8333
84.5947
144.741
215.846
235.704
233.925
231.952
230.897
229.037
225.999
221.981
217.197
211.789
205.866
199.507
192.769
185.691
178.296
170.606
162.623
154.374
145.88
137.179
128.266
118.864
108.805
98.8151
99.1483
73.3748
74.1689
74.8465
75.1567
75.2105
75.0551
74.691
74.1189
73.3356
72.2956
70.7811
69.1491
67.8359
69.4919
100.709
183.168
237.47
243.692
239.72
237.143
234.547
230.602
225.403
219.342
212.699
205.638
198.257
190.619
182.766
174.723
166.505
158.122
149.593
140.958
132.299
123.577
114.238
104.671
99.5374
96.3967
68.0784
68.6756
69.1805
69.4001
69.4019
69.2151
68.836
68.2616
67.4922
66.508
65.2461
63.668
62.5089
62.3139
68.6312
117.852
208.688
251.053
252.088
247.457
243.32
237.978
231.089
223.215
214.868
206.306
197.641
188.926
180.174
171.387
162.556
153.664
144.694
135.659
126.619
117.454
107.338
96.7721
97.2569
88.9498
63.2424
63.6982
64.0658
64.215
64.1837
63.9868
63.6184
63.0714
62.3426
61.4221
60.2758
58.8447
57.2763
56.47
56.6109
67.3483
141.021
237.24
271.224
268.347
259.163
249.508
239.345
228.743
218.06
207.577
197.385
187.472
177.782
168.261
158.852
149.497
140.149
130.795
121.477
112.131
102.121
92.9191
88.9797
83.9402
58.6898
59.0987
59.4068
59.5278
59.4941
59.3166
58.991
58.5106
57.8677
57.0527
56.0349
54.7544
53.1777
51.7722
50.9964
51.5122
66.3068
157.547
273.192
311.138
294.508
270.542
251.457
235.786
221.776
208.902
196.998
185.87
175.317
165.17
155.289
145.565
135.914
126.294
116.713
107.162
97.6679
87.9369
79.2966
74.4465
54.6031
54.9525
55.2099
55.3145
55.2944
55.1603
54.9116
54.5464
54.0614
53.4538
52.7159
51.8181
50.7157
49.4307
48.446
48.1695
50.0394
71.3522
193.742
322.508
338.547
298.987
264.461
241.31
223.666
208.639
195.361
183.378
172.296
161.805
151.673
141.729
131.848
121.95
112.009
102.035
91.9068
81.5618
71.9643
66.6131
50.9228
51.1981
51.4044
51.4959
51.4959
51.4154
51.2575
51.0262
50.7271
50.3685
49.9634
49.5273
49.0751
48.6271
48.2682
48.3005
49.5191
54.3402
83.8136
229.226
315.665
294.457
258.221
234.236
217.213
202.915
190.204
178.667
167.946
157.732
147.787
137.932
128.032
117.992
107.773
97.35
86.5746
75.2669
64.6737
58.947
47.537
47.7393
47.8978
47.9759
47.9922
47.9574
47.8765
47.7571
47.6092
47.4476
47.2946
47.1844
47.1645
47.3037
47.7486
48.7709
50.6461
52.2411
92.4025
196.673
251.06
243.549
226.332
213.083
201.957
191.431
181.31
171.584
162.146
152.844
143.536
134.092
124.399
114.368
103.953
93.1196
81.6529
69.2704
57.5248
50.7355
44.359
44.4935
44.6057
44.6664
44.6892
44.682
44.6494
44.5971
44.5318
44.4626
44.4019
44.3657
44.3782
44.483
44.7264
45.0518
45.2244
46.9328
87.9939
165.908
202.267
204.242
198.751
192.754
186.189
178.979
171.391
163.612
155.669
147.51
139.057
130.216
120.889
110.984
100.449
89.2283
77.0348
63.463
50.322
42.2752
41.3375
41.4024
41.4637
41.5019
41.5222
41.5284
41.5227
41.5073
41.4838
41.4529
41.4127
41.3545
41.2683
41.1457
40.8771
39.9814
37.7075
36.4846
66.4612
147.803
195.835
195.959
186.405
179.247
173.507
167.793
161.806
155.533
148.929
141.909
134.381
126.247
117.399
107.729
97.1597
85.6061
72.7188
58.0128
43.0685
33.767
38.3974
38.3982
38.4109
38.4276
38.444
38.4597
38.4759
38.4947
38.5189
38.5509
38.5923
38.6428
38.6981
38.7389
38.6824
38.4092
38.3427
39.4829
42.3989
88.286
161.557
181.873
172.097
164.113
159.52
155.607
151.416
146.781
141.619
135.832
129.324
122.002
113.757
104.448
93.959
82.164
68.6477
52.7816
36.2369
25.6407
35.4322
35.3999
35.3848
35.39
35.4055
35.4281
35.4593
35.5033
35.5663
35.6566
35.7854
35.9665
36.2148
36.5347
36.9282
37.5032
38.7218
40.8088
43.5166
76.9845
125.199
142.718
142.586
141.856
141.814
141.193
139.601
137.053
133.57
129.126
123.69
117.254
109.769
101.031
90.817
78.9768
64.9923
48.0955
30.3104
19.0428
32.415
32.3808
32.3588
32.3618
32.3765
32.3985
32.4299
32.4769
32.549
32.6599
32.8307
33.0912
33.4776
34.0369
34.9206
36.5073
38.6486
37.0579
33.1466
52.9001
84.2812
103.538
113.67
120.166
124.518
127
127.822
127.189
125.202
121.876
117.268
111.656
105.206
97.3641
87.6209
75.8528
61.6508
44.0369
25.0894
12.8591
29.3739
29.3566
29.3384
29.3423
29.3511
29.3584
29.3652
29.3764
29.4005
29.4486
29.5386
29.7014
29.9761
30.3927
31.051
32.4675
36.342
32.7605
23.1988
37.6125
63.5894
83.1477
95.9153
104.778
111.011
115.107
117.37
118.001
117.055
114.432
110.217
105.46
100.488
93.7285
84.3065
72.3693
58.0191
40.29
20.724
7.77087
26.3446
26.3586
26.3511
26.3571
26.3551
26.3355
26.2962
26.2371
26.1594
26.0627
25.947
25.8106
25.6603
25.5609
25.5409
24.9751
21.1164
19.4839
20.7529
40.4073
61.3401
76.2322
86.5333
94.5521
100.842
105.429
108.422
109.952
110.003
108.219
104.466
101.019
96.5803
89.9619
81.7908
69.3577
54.7193
37.0317
17.7188
4.61268
23.3842
23.4374
23.4459
23.4571
23.4462
23.4005
23.3159
23.1886
23.0148
22.7889
22.5007
22.1371
21.696
21.2119
20.6346
19.2372
15.8917
13.3191
9.40329
34.9437
64.0353
78.5487
84.3758
88.7983
93.2308
97.2004
100.348
102.529
103.463
102.348
99.6185
96.273
91.4572
85.7136
80.3707
67.1882
53.1637
35.6278
16.3144
3.57654
20.5576
20.6507
20.6775
20.6974
20.6828
20.6191
20.5017
20.3255
20.0847
19.771
19.372
18.8741
18.2667
17.5484
16.6804
15.4389
13.6463
11.8775
11.1143
10.7683
26.1244
55.261
76.0868
84.0528
87.1092
89.3577
91.9218
94.4724
96.1721
95.7975
94.0372
90.9203
87.0174
81.7666
75.1117
64.8115
51.3548
33.8376
14.615
2.34064
17.9233
18.0502
18.0943
18.1252
18.1132
18.0429
17.9097
17.7095
17.4354
17.0781
16.6268
16.0676
15.3852
14.5588
13.538
12.232
10.7341
9.85248
9.42247
8.35341
3.65243
4.78412
22.6366
54.142
73.072
78.6683
81.0372
83.9054
86.6563
87.5716
86.6714
84.4116
81.3867
76.8674
70.5002
61.1601
48.6929
33.1172
15.2076
2.9797
15.5227
15.6728
15.7305
15.7736
15.7703
15.7049
15.5743
15.3761
15.1048
14.7548
14.3199
13.7915
13.1614
12.4199
11.5485
10.517
9.33441
8.15537
7.14789
6.5299
6.62845
6.718
5.73793
18.4633
41.181
60.49
66.5191
69.9926
73.4062
75.7011
75.7051
75.1906
72.4186
69.5581
63.9007
56.254
46.2734
32.7193
16.3985
4.88406
13.3747
13.5362
13.6025
13.6565
13.6652
13.6123
13.4966
13.3175
13.0729
12.7605
12.3788
11.9261
11.4028
10.8121
10.1606
9.45896
8.72871
8.01576
7.38725
6.96189
6.96498
7.01869
7.86582
10.6909
15.8782
34.4766
47.3094
53.7044
58.1062
61.361
63.1128
63.3263
62.4851
60.6944
57.1699
51.6502
43.7842
32.51
18.6762
8.90739
11.478
11.6406
11.7103
11.7722
11.7925
11.7553
11.66
11.5078
11.2988
11.0326
10.7105
10.3348
9.90914
9.44045
8.94016
8.42475
7.91788
7.45104
7.05867
6.78303
6.69944
6.86356
7.20502
6.61093
6.46625
13.8217
27.8999
37.7489
43.1225
46.7862
49.4341
51.0235
51.6786
51.2166
49.2385
45.4624
39.5623
31.0067
21.076
14.1862
9.817
9.97329
10.0417
10.1077
10.1381
10.1172
10.0434
9.91914
9.74589
9.52494
9.25817
8.94933
8.60287
8.22535
7.8263
7.41821
7.01626
6.63814
6.30106
6.01972
5.80964
5.67958
5.58099
5.32322
4.96336
2.03237
10.1794
22.1948
28.3918
32.2984
35.0138
36.7736
38.117
38.9723
38.7156
36.7074
32.7118
27.1007
21.9563
19.2013
8.36855
8.51403
8.5777
8.64536
8.68369
8.67691
8.6229
8.52419
8.38323
8.20174
7.98204
7.72757
7.44286
7.13302
6.80504
6.46768
6.13067
5.80404
5.49751
5.21894
4.97259
4.75687
4.56641
4.39774
4.25643
3.96843
0.155902
0.988934
5.17868
13.1655
17.8872
19.3556
21.239
24.1355
26.2578
26.4766
24.2632
20.5752
19.2826
19.9905
7.10802
7.24035
7.29759
7.36523
7.40815
7.41232
7.37584
7.29915
7.18522
7.03625
6.85453
6.64269
6.40436
6.14382
5.86535
5.57425
5.27649
4.97775
4.68284
4.39536
4.11649
3.84428
3.57794
3.32857
3.1235
2.8888
2.04343
-3.23542
-2.80092
-0.613505
0.775296
1.16629
2.18867
6.42996
11.4694
16.4293
20.4798
16.3502
10.7539
8.57178
6.01163
6.13038
6.18038
6.24608
6.29122
6.3041
6.28274
6.22414
6.13179
6.00894
5.85739
5.67915
5.47668
5.25313
5.01137
4.75385
4.48364
4.20366
3.91562
3.61939