/*--------------------------------*- C++ -*----------------------------------*\
  =========                 |
  \\      /  F ield         | OpenFOAM: The Open Source CFD Toolbox
   \\    /   O peration     | Website:  https://openfoam.org
    \\  /    A nd           | Version:  8
     \\/     M anipulation  |
\*---------------------------------------------------------------------------*/
FoamFile
{
    version     2.0;
    format      ascii;
    class       surfaceScalarField;
    location    "0.7";
    object      phi;
}
// * * * * * * * * * * * * * * * * * * * * * * * * * * * * * * * * * * * * * //

dimensions      [0 3 -1 0 0 0 0];

internalField   nonuniform List<scalar> 
18095
(
1.59046e-07
-9.64505e-07
8.05459e-07
1.65965e-07
-1.2482e-06
1.24128e-06
1.22705e-07
-1.24247e-06
1.28573e-06
6.55922e-08
-1.26382e-06
1.32094e-06
1.88067e-14
-1.281e-06
1.3466e-06
-6.55922e-08
-1.281e-06
1.3466e-06
-1.22705e-07
-1.26382e-06
1.32094e-06
-1.65965e-07
-1.24247e-06
1.28573e-06
-1.59046e-07
-1.2482e-06
1.24128e-06
-9.64505e-07
8.05459e-07
1.11293e-07
-1.0758e-06
9.98437e-08
-1.23675e-06
7.32177e-08
-1.21584e-06
4.02362e-08
-1.23084e-06
1.82247e-14
-1.24077e-06
-4.02362e-08
-1.24077e-06
-7.32176e-08
-1.23084e-06
-9.98437e-08
-1.21584e-06
-1.11293e-07
-1.23675e-06
-1.0758e-06
6.74517e-08
-1.14325e-06
5.30865e-08
-1.22238e-06
4.23946e-08
-1.20515e-06
2.40036e-08
-1.21245e-06
1.46117e-14
-1.21676e-06
-2.40036e-08
-1.21676e-06
-4.23946e-08
-1.21245e-06
-5.30865e-08
-1.20515e-06
-6.74517e-08
-1.22238e-06
-1.14325e-06
3.98391e-08
-1.18309e-06
2.68208e-08
-1.20936e-06
2.21692e-08
-1.2005e-06
1.26249e-08
-1.20291e-06
1.84773e-14
-1.20414e-06
-1.26248e-08
-1.20414e-06
-2.21692e-08
-1.20291e-06
-2.68208e-08
-1.2005e-06
-3.98391e-08
-1.20936e-06
-1.18309e-06
1.6911e-08
7.54658e-09
7.04617e-09
4.13865e-09
2.76775e-15
-4.13865e-09
-7.04618e-09
-7.5466e-09
-1.6911e-08
-1.76606e-07
-1.16223e-06
1.33883e-06
-2.20866e-07
-1.21608e-06
1.26034e-06
-1.664e-07
-1.21304e-06
1.15858e-06
-8.76346e-08
-1.20486e-06
1.1261e-06
2.10919e-13
-1.20378e-06
1.11615e-06
8.7635e-08
-1.20378e-06
1.11615e-06
1.664e-07
-1.20486e-06
1.1261e-06
2.20867e-07
-1.21304e-06
1.15858e-06
1.76606e-07
-1.21608e-06
1.26034e-06
-1.16223e-06
1.33883e-06
-9.27384e-08
-1.06949e-06
-9.57407e-08
-1.21308e-06
-7.94922e-08
-1.22929e-06
-4.43623e-08
-1.23999e-06
1.71185e-13
-1.24815e-06
4.43627e-08
-1.24815e-06
7.94925e-08
-1.23999e-06
9.5741e-08
-1.22929e-06
9.27386e-08
-1.21308e-06
-1.06949e-06
-5.7941e-08
-1.01155e-06
-5.50289e-08
-1.21599e-06
-4.63728e-08
-1.23795e-06
-2.70425e-08
-1.25932e-06
1.45378e-13
-1.27519e-06
2.70428e-08
-1.27519e-06
4.63731e-08
-1.25932e-06
5.50291e-08
-1.23795e-06
5.79412e-08
-1.21599e-06
-1.01155e-06
-7.48742e-08
-9.36675e-07
-6.1893e-08
-1.22897e-06
-4.83342e-08
-1.25151e-06
-2.75875e-08
-1.28007e-06
9.79759e-14
-1.30278e-06
2.75877e-08
-1.30278e-06
4.83345e-08
-1.28007e-06
6.18933e-08
-1.25151e-06
7.48744e-08
-1.22897e-06
-9.36675e-07
-1.31216e-07
-1.18908e-07
-8.4686e-08
-4.38184e-08
5.34262e-14
4.38185e-08
8.46861e-08
1.18908e-07
1.31216e-07
-6.21847e-08
-9.48312e-07
1.0105e-06
1.83146e-09
-1.32954e-06
1.26552e-06
1.69465e-08
-1.26871e-06
1.25359e-06
8.80279e-09
-1.22852e-06
1.23666e-06
4.54313e-12
-1.22491e-06
1.23371e-06
-8.7945e-09
-1.22491e-06
1.23371e-06
-1.69407e-08
-1.22852e-06
1.23667e-06
-1.82959e-09
-1.26871e-06
1.2536e-06
6.2183e-08
-1.32954e-06
1.26553e-06
-9.48321e-07
1.0105e-06
3.95146e-09
-9.52264e-07
1.67831e-08
-1.34237e-06
1.39999e-08
-1.26593e-06
6.97718e-09
-1.2215e-06
2.19064e-12
-1.21794e-06
-6.97325e-09
-1.21794e-06
-1.39983e-08
-1.2215e-06
-1.67822e-08
-1.26593e-06
-3.94787e-09
-1.34237e-06
-9.52269e-07
2.43924e-08
-9.76656e-07
1.78907e-08
-1.33587e-06
1.02001e-08
-1.25824e-06
5.80117e-09
-1.2171e-06
1.14544e-12
-1.21214e-06
-5.79915e-09
-1.21214e-06
-1.01981e-08
-1.2171e-06
-1.78885e-08
-1.25824e-06
-2.43897e-08
-1.33587e-06
-9.76659e-07
7.80875e-08
-1.05474e-06
5.37652e-08
-1.31155e-06
3.49724e-08
-1.23944e-06
2.09717e-08
-1.2031e-06
6.0516e-13
-1.19117e-06
-2.09705e-08
-1.19117e-06
-3.49712e-08
-1.2031e-06
-5.37639e-08
-1.23944e-06
-7.80863e-08
-1.31155e-06
-1.05474e-06
2.84091e-07
2.32883e-07
1.52018e-07
7.50181e-08
3.63177e-13
-7.50174e-08
-1.52017e-07
-2.32882e-07
-2.8409e-07
-1.01032e-06
-2.34604e-07
1.24492e-06
-7.6547e-07
-2.4485e-07
-5.13957e-07
-2.51513e-07
-2.58683e-07
-2.55274e-07
-2.51239e-09
-2.56171e-07
2.53677e-07
-2.56189e-07
5.0903e-07
-2.55354e-07
7.60705e-07
-2.51674e-07
1.0058e-06
-2.451e-07
-2.34958e-07
1.24076e-06
-7.53271e-07
-4.05236e-07
9.23903e-07
-5.73378e-07
-4.24743e-07
-3.86853e-07
-4.38038e-07
-1.95873e-07
-4.46254e-07
-1.91e-09
-4.50134e-07
1.92092e-07
-4.50192e-07
3.83174e-07
-4.46435e-07
5.69853e-07
-4.38353e-07
7.49967e-07
-4.25214e-07
-4.05888e-07
9.20896e-07
-5.68197e-07
-5.35531e-07
6.98492e-07
-4.31657e-07
-5.61283e-07
-2.90668e-07
-5.79026e-07
-1.46795e-07
-5.90128e-07
-1.43045e-09
-5.95498e-07
1.43955e-07
-5.95577e-07
2.8789e-07
-5.9037e-07
4.28981e-07
-5.79445e-07
5.6567e-07
-5.61904e-07
-5.36388e-07
6.9617e-07
-4.27466e-07
-6.3543e-07
5.27365e-07
-3.23873e-07
-6.64876e-07
-2.17681e-07
-6.85218e-07
-1.09796e-07
-6.98012e-07
-1.07179e-09
-7.04222e-07
1.07664e-07
-7.04312e-07
2.1558e-07
-6.98286e-07
3.21827e-07
-6.85692e-07
4.255e-07
-6.65576e-07
-6.36398e-07
5.25511e-07
-3.15419e-07
-7.10751e-07
3.90739e-07
-2.38412e-07
-7.41883e-07
-1.60037e-07
-7.63593e-07
-8.06747e-08
-7.77374e-07
-7.95352e-10
-7.84102e-07
7.90878e-08
-7.84195e-07
1.5846e-07
-7.77659e-07
2.36851e-07
-7.64082e-07
3.13875e-07
-7.426e-07
-7.11738e-07
3.89214e-07
-2.39463e-07
-7.70745e-07
2.99457e-07
-1.79859e-07
-8.01487e-07
-1.20269e-07
-8.23183e-07
-6.0509e-08
-8.37134e-07
-6.05288e-10
-8.44006e-07
5.92982e-08
-8.44099e-07
1.19056e-07
-8.37417e-07
1.78635e-07
-8.23662e-07
2.38213e-07
-8.02178e-07
-7.71678e-07
2.98154e-07
-2.03696e-07
-8.26865e-07
2.59817e-07
-1.50873e-07
-8.5431e-07
-9.99444e-08
-8.74111e-07
-5.00244e-08
-8.87054e-07
-5.29622e-10
-8.935e-07
4.89592e-08
-8.93588e-07
9.88598e-08
-8.87317e-07
1.49751e-07
-8.74553e-07
2.02513e-07
-8.5494e-07
-8.27694e-07
2.58529e-07
-1.92216e-07
-8.82442e-07
2.47793e-07
-1.41143e-07
-9.05384e-07
-9.28702e-08
-9.22384e-07
-4.63056e-08
-9.33619e-07
-5.51408e-10
-9.39254e-07
4.51894e-08
-9.39328e-07
9.17126e-08
-9.3384e-07
1.3991e-07
-9.22751e-07
1.90869e-07
-9.05899e-07
-8.8311e-07
2.46285e-07
-1.9248e-07
-9.38071e-07
2.48109e-07
-1.40993e-07
-9.56871e-07
-9.25493e-08
-9.70828e-07
-4.60846e-08
-9.80084e-07
-5.90789e-10
-9.84748e-07
4.48905e-08
-9.8481e-07
9.13163e-08
-9.80266e-07
1.39692e-07
-9.71126e-07
1.91072e-07
-9.57279e-07
-9.38571e-07
2.46532e-07
-1.92479e-07
-9.9333e-07
2.47738e-07
-1.41394e-07
-1.00796e-06
-9.30324e-08
-1.01919e-06
-4.64054e-08
-1.02671e-06
-6.41481e-10
-1.03051e-06
4.51131e-08
-1.03056e-06
9.17121e-08
-1.02687e-06
1.40025e-07
-1.01944e-06
1.91033e-07
-1.00829e-06
-9.93705e-07
2.46168e-07
-1.90469e-07
-1.0461e-06
2.43241e-07
-1.40678e-07
-1.05775e-06
-9.29251e-08
-1.06694e-06
-4.64826e-08
-1.07315e-06
-6.96886e-10
-1.0763e-06
4.50804e-08
-1.07634e-06
9.14986e-08
-1.07328e-06
1.39216e-07
-1.06716e-06
1.88963e-07
-1.05803e-06
-1.04643e-06
2.41685e-07
-1.86284e-07
-1.09555e-06
2.35729e-07
-1.38456e-07
-1.10557e-06
-9.18288e-08
-1.11357e-06
-4.6047e-08
-1.11894e-06
-7.1517e-10
-1.12163e-06
4.46082e-08
-1.12166e-06
9.0366e-08
-1.11904e-06
1.36961e-07
-1.11375e-06
1.84767e-07
-1.10584e-06
-1.0959e-06
2.34237e-07
-1.79824e-07
-1.14162e-06
2.25899e-07
-1.3424e-07
-1.15116e-06
-8.92413e-08
-1.15857e-06
-4.47995e-08
-1.16338e-06
-6.78292e-10
-1.16575e-06
4.34377e-08
-1.16578e-06
8.78643e-08
-1.16347e-06
1.32838e-07
-1.15872e-06
1.78382e-07
-1.15138e-06
-1.14194e-06
2.24425e-07
-1.72263e-07
-1.18645e-06
2.17092e-07
-1.28398e-07
-1.19502e-06
-8.53961e-08
-1.20157e-06
-4.28925e-08
-1.20588e-06
-6.36239e-10
-1.20801e-06
4.16167e-08
-1.20803e-06
8.41093e-08
-1.20596e-06
1.27088e-07
-1.2017e-06
1.7091e-07
-1.19521e-06
-1.1867e-06
2.15673e-07
-1.63985e-07
-1.22906e-06
2.06595e-07
-1.22264e-07
-1.23674e-06
-8.13147e-08
-1.24252e-06
-4.08489e-08
-1.24635e-06
-6.17626e-10
-1.24824e-06
3.96116e-08
-1.24826e-06
8.007e-08
-1.24642e-06
1.21002e-07
-1.24264e-06
1.62686e-07
-1.23689e-06
-1.22924e-06
2.0522e-07
-1.55539e-07
-1.26946e-06
1.95937e-07
-1.16006e-07
-1.27628e-06
-7.71839e-08
-1.28134e-06
-3.87966e-08
-1.28473e-06
-6.1782e-10
-1.28642e-06
3.75603e-08
-1.28644e-06
7.59448e-08
-1.2848e-06
1.14759e-07
-1.28145e-06
1.54275e-07
-1.27641e-06
-1.26962e-06
1.94653e-07
-1.4695e-07
-1.30755e-06
1.85045e-07
-1.09673e-07
-1.31355e-06
-7.30195e-08
-1.318e-06
-3.6732e-08
-1.32102e-06
-6.14706e-10
-1.32253e-06
3.55037e-08
-1.32256e-06
7.17958e-08
-1.3211e-06
1.0846e-07
-1.31811e-06
1.4575e-07
-1.3137e-06
-1.3077e-06
1.8383e-07
-1.38416e-07
-1.34333e-06
1.74194e-07
-1.0347e-07
-1.3485e-06
-6.89671e-08
-1.3525e-06
-3.47181e-08
-1.35527e-06
-5.89996e-10
-1.35666e-06
3.35383e-08
-1.35669e-06
6.77908e-08
-1.35535e-06
1.02312e-07
-1.35264e-06
1.37304e-07
-1.34869e-06
-1.34352e-06
1.73124e-07
-1.30088e-07
-1.37659e-06
1.63343e-07
-9.7429e-08
-1.38116e-06
-6.4998e-08
-1.38493e-06
-3.2714e-08
-1.38755e-06
-5.21311e-10
-1.38886e-06
3.16704e-08
-1.38888e-06
6.39522e-08
-1.38763e-06
9.63844e-08
-1.38507e-06
1.29063e-07
-1.38137e-06
-1.37683e-06
1.62379e-07
-1.22368e-07
-1.40765e-06
1.53436e-07
-9.15243e-08
-1.412e-06
-6.09839e-08
-1.41547e-06
-3.06624e-08
-1.41788e-06
-4.32299e-10
-1.41909e-06
2.97977e-08
-1.41911e-06
6.01161e-08
-1.41795e-06
9.06373e-08
-1.41559e-06
1.21438e-07
-1.41217e-06
-1.40789e-06
1.52497e-07
-1.14617e-07
-1.43667e-06
1.43634e-07
-8.57617e-08
-1.44086e-06
-5.71489e-08
-1.44408e-06
-2.8714e-08
-1.44631e-06
-3.668e-10
-1.44743e-06
2.79786e-08
-1.44746e-06
5.64079e-08
-1.44638e-06
8.5014e-08
-1.44419e-06
1.13862e-07
-1.44102e-06
-1.43689e-06
1.42864e-07
-1.07179e-07
-1.46375e-06
1.34262e-07
-8.02235e-08
-1.46781e-06
-5.34622e-08
-1.47084e-06
-2.68506e-08
-1.47292e-06
-3.1305e-10
-1.47397e-06
2.62228e-08
-1.47399e-06
5.28295e-08
-1.47298e-06
7.95828e-08
-1.47095e-06
1.06529e-07
-1.46796e-06
-1.46396e-06
1.336e-07
-1.00122e-07
-1.48902e-06
1.25383e-07
-7.4947e-08
-1.49299e-06
-4.99447e-08
-1.49585e-06
-2.50751e-08
-1.49779e-06
-2.70973e-10
-1.49877e-06
2.45314e-08
-1.49879e-06
4.93952e-08
-1.49785e-06
7.43873e-08
-1.49594e-06
9.95471e-08
-1.49312e-06
-1.48921e-06
1.24793e-07
-9.3439e-08
-1.51254e-06
1.16966e-07
-6.99523e-08
-1.51647e-06
-4.66167e-08
-1.51918e-06
-2.34e-08
-1.52101e-06
-2.42051e-10
-1.52193e-06
2.29141e-08
-1.52195e-06
4.61249e-08
-1.52106e-06
6.94503e-08
-1.51927e-06
9.29228e-08
-1.51659e-06
-1.51272e-06
1.16439e-07
-8.71214e-08
-1.53443e-06
1.0901e-07
-6.52312e-08
-1.53836e-06
-4.34729e-08
-1.54094e-06
-2.18209e-08
-1.54266e-06
-2.21714e-10
-1.54353e-06
2.13757e-08
-1.54355e-06
4.30223e-08
-1.54271e-06
6.47715e-08
-1.54101e-06
8.66495e-08
-1.53847e-06
-1.53461e-06
1.08531e-07
-8.11555e-08
-1.55479e-06
1.0151e-07
-6.07711e-08
-1.55875e-06
-4.05027e-08
-1.56121e-06
-2.033e-08
-1.56283e-06
-2.05117e-10
-1.56366e-06
1.99182e-08
-1.56367e-06
4.00862e-08
-1.56287e-06
6.03468e-08
-1.56128e-06
8.07212e-08
-1.55885e-06
-1.55496e-06
1.0107e-07
-7.552e-08
-1.57371e-06
9.444e-08
-5.65545e-08
-1.57771e-06
-3.76934e-08
-1.58007e-06
-1.8919e-08
-1.58161e-06
-1.88157e-10
-1.58239e-06
1.85414e-08
-1.5824e-06
3.73117e-08
-1.58164e-06
5.61665e-08
-1.58013e-06
7.51242e-08
-1.5778e-06
-1.57387e-06
9.40428e-08
-7.01899e-08
-1.59128e-06
8.77601e-08
-5.2564e-08
-1.59534e-06
-3.50325e-08
-1.5976e-06
-1.75803e-08
-1.59906e-06
-1.68014e-10
-1.5998e-06
1.7243e-08
-1.59981e-06
3.46916e-08
-1.59909e-06
5.22176e-08
-1.59766e-06
6.98375e-08
-1.59542e-06
-1.59145e-06
8.74091e-08
-6.51417e-08
-1.60757e-06
8.14383e-08
-4.87822e-08
-1.6117e-06
-3.25084e-08
-1.61388e-06
-1.63072e-08
-1.61526e-06
-1.43046e-10
-1.61596e-06
1.60199e-08
-1.61597e-06
3.22174e-08
-1.61529e-06
4.8486e-08
-1.61392e-06
6.484e-08
-1.61178e-06
-1.60774e-06
8.1139e-08
-6.03528e-08
-1.62267e-06
7.54489e-08
-4.51914e-08
-1.62686e-06
-3.01088e-08
-1.62896e-06
-1.50934e-08
-1.63028e-06
-1.12754e-10
-1.63094e-06
1.48665e-08
-1.63095e-06
2.98778e-08
-1.6303e-06
4.49545e-08
-1.629e-06
6.01092e-08
-1.62693e-06
-1.62284e-06
7.52053e-08
-5.58024e-08
-1.63664e-06
6.97746e-08
-4.17745e-08
-1.64089e-06
-2.7822e-08
-1.64291e-06
-1.39334e-08
-1.64416e-06
-7.80587e-11
-1.6448e-06
1.37756e-08
-1.64481e-06
2.76595e-08
-1.64419e-06
4.16045e-08
-1.64295e-06
5.56228e-08
-1.64095e-06
-1.63681e-06
6.95877e-08
-5.14701e-08
-1.64957e-06
6.43989e-08
-3.8515e-08
-1.65384e-06
-2.56375e-08
-1.65579e-06
-1.28228e-08
-1.65698e-06
-4.09558e-11
-1.65758e-06
1.27391e-08
-1.65759e-06
2.55483e-08
-1.65699e-06
3.84166e-08
-1.65581e-06
5.13582e-08
-1.65389e-06
-1.64971e-06
6.42678e-08
-4.73334e-08
-1.66153e-06
5.92924e-08
-3.53978e-08
-1.66578e-06
-2.35466e-08
-1.66764e-06
-1.1759e-08
-1.66877e-06
-4.19721e-12
-1.66934e-06
1.17488e-08
-1.66934e-06
2.35308e-08
-1.66878e-06
3.53718e-08
-1.66766e-06
4.72905e-08
-1.66581e-06
-1.66164e-06
5.92164e-08
-4.33652e-08
-1.67256e-06
5.43999e-08
-3.24071e-08
-1.67674e-06
-2.15408e-08
-1.67851e-06
-1.07389e-08
-1.67957e-06
2.99858e-11
-1.68011e-06
1.07974e-08
-1.68011e-06
2.15944e-08
-1.67957e-06
3.24512e-08
-1.67851e-06
4.33914e-08
-1.67675e-06
-1.67263e-06
5.43823e-08
-3.95407e-08
-1.6827e-06
4.96745e-08
-2.95273e-08
-1.68675e-06
-1.96107e-08
-1.68842e-06
-9.75844e-09
-1.68942e-06
6.12691e-11
-1.68993e-06
9.88009e-09
-1.68993e-06
1.97293e-08
-1.68942e-06
2.96392e-08
-1.68842e-06
3.96378e-08
-1.68675e-06
-1.68272e-06
4.97261e-08
-3.58444e-08
-1.69195e-06
4.50991e-08
-2.67464e-08
-1.69585e-06
-1.77476e-08
-1.69742e-06
-8.81208e-09
-1.69836e-06
9.20169e-11
-1.69883e-06
8.99604e-09
-1.69883e-06
1.79311e-08
-1.69836e-06
2.69279e-08
-1.69742e-06
3.60187e-08
-1.69584e-06
-1.69194e-06
4.52402e-08
-3.22624e-08
-1.70034e-06
4.06513e-08
-2.40534e-08
-1.70406e-06
-1.59429e-08
-1.70553e-06
-7.8931e-09
-1.70641e-06
1.27077e-10
-1.70685e-06
8.14798e-09
-1.70685e-06
1.62001e-08
-1.70641e-06
2.43141e-08
-1.70553e-06
3.25263e-08
-1.70405e-06
-1.70032e-06
4.09063e-08
-2.87804e-08
-1.70786e-06
3.63034e-08
-2.14374e-08
-1.7114e-06
-1.41876e-08
-1.71278e-06
-6.99417e-09
-1.7136e-06
1.71999e-10
-1.71402e-06
7.33951e-09
-1.71402e-06
1.45373e-08
-1.71361e-06
2.17955e-08
-1.71279e-06
2.9152e-08
-1.71141e-06
-1.70787e-06
3.6699e-08
-2.53912e-08
-1.71454e-06
3.20657e-08
-1.88906e-08
-1.7179e-06
-1.24752e-08
-1.7192e-06
-6.11027e-09
-1.71996e-06
2.30296e-10
-1.72036e-06
6.57239e-09
-1.72036e-06
1.29427e-08
-1.71998e-06
1.93694e-08
-1.71922e-06
2.58899e-08
-1.71793e-06
-1.71458e-06
3.26021e-08
-2.2096e-08
-1.72035e-06
2.79109e-08
-1.64143e-08
-1.72358e-06
-1.08058e-08
-1.72481e-06
-5.24123e-09
-1.72553e-06
3.01438e-10
-1.7259e-06
5.84478e-09
-1.7259e-06
1.14126e-08
-1.72555e-06
1.703e-08
-1.72484e-06
2.27338e-08
-1.72363e-06
-1.72047e-06
2.86271e-08
-1.89062e-08
-1.72537e-06
2.39202e-08
-1.40101e-08
-1.72848e-06
-9.17857e-09
-1.72964e-06
-4.38751e-09
-1.73032e-06
3.82743e-10
-1.73067e-06
5.15303e-09
-1.73067e-06
9.94408e-09
-1.73034e-06
1.47765e-08
-1.72967e-06
1.96797e-08
-1.72854e-06
-1.72552e-06
2.47287e-08
-1.58364e-08
-1.72966e-06
2.01314e-08
-1.16911e-08
-1.73262e-06
-7.61003e-09
-1.73372e-06
-3.56844e-09
-1.73436e-06
4.53236e-10
-1.73469e-06
4.47466e-09
-1.7347e-06
8.51474e-09
-1.73438e-06
1.25909e-08
-1.73374e-06
1.67236e-08
-1.73267e-06
-1.72977e-06
2.09675e-08
-1.289e-08
-1.73322e-06
1.64464e-08
-9.47459e-09
-1.73604e-06
-6.11946e-09
-1.73707e-06
-2.80104e-09
-1.73768e-06
4.98609e-10
-1.73799e-06
3.79734e-09
-1.73799e-06
7.11261e-09
-1.73769e-06
1.04607e-08
-1.73709e-06
1.38623e-08
-1.73607e-06
-1.7333e-06
1.73911e-08
-1.00685e-08
-1.73605e-06
1.28983e-08
-7.35962e-09
-1.73875e-06
-4.70332e-09
-1.73973e-06
-2.07949e-09
-1.7403e-06
5.27479e-10
-1.7406e-06
3.13338e-09
-1.7406e-06
5.75382e-09
-1.74031e-06
8.40381e-09
-1.73974e-06
1.11028e-08
-1.73877e-06
-1.73611e-06
1.3919e-08
-7.37572e-09
-1.73818e-06
9.50615e-09
-5.34532e-09
-1.74078e-06
-3.35852e-09
-1.74172e-06
-1.3993e-09
-1.74226e-06
5.45452e-10
-1.74254e-06
2.48934e-09
-1.74254e-06
4.44591e-09
-1.74227e-06
6.42811e-09
-1.74172e-06
8.45195e-09
-1.74079e-06
-1.73823e-06
1.0573e-08
-4.82128e-09
-1.73964e-06
6.2846e-09
-3.43566e-09
-1.74217e-06
-2.08591e-09
-1.74307e-06
-7.59442e-10
-1.74359e-06
5.54873e-10
-1.74386e-06
1.86857e-09
-1.74386e-06
3.19314e-09
-1.74359e-06
4.53955e-09
-1.74307e-06
5.92051e-09
-1.74218e-06
-1.73969e-06
7.37982e-09
-2.40863e-09
-1.74048e-06
3.24789e-09
-1.63324e-09
-1.74294e-06
-8.86782e-10
-1.74381e-06
-1.59547e-10
-1.74432e-06
5.57709e-10
-1.74457e-06
1.27452e-09
-1.74457e-06
2.00049e-09
-1.74432e-06
2.74483e-09
-1.74382e-06
3.51761e-09
-1.74295e-06
-1.74053e-06
4.3536e-09
-1.41839e-10
-1.74072e-06
3.81829e-10
5.82146e-11
-1.74314e-06
2.36933e-10
-1.74399e-06
4.00268e-10
-1.74448e-06
5.55452e-10
-1.74473e-06
7.10271e-10
-1.74473e-06
8.72564e-10
-1.74448e-06
1.04984e-09
-1.74399e-06
1.24916e-09
-1.74315e-06
-1.74077e-06
1.49504e-09
1.97677e-09
-1.74041e-06
-2.29154e-09
1.63951e-09
-1.7428e-06
1.28658e-09
-1.74364e-06
9.21199e-10
-1.74412e-06
5.49102e-10
-1.74436e-06
1.76672e-10
-1.74436e-06
-1.89678e-10
-1.74412e-06
-5.44096e-10
-1.74364e-06
-8.8264e-10
-1.74281e-06
-1.74046e-06
-1.1943e-09
3.94808e-09
-1.7396e-06
-4.75823e-09
3.11282e-09
-1.74197e-06
2.26378e-09
-1.74279e-06
1.40393e-09
-1.74326e-06
5.38214e-10
-1.74349e-06
-3.2784e-10
-1.74349e-06
-1.18873e-09
-1.74325e-06
-2.03964e-09
-1.74279e-06
-2.87792e-09
-1.74197e-06
-1.73964e-06
-3.69548e-09
5.77561e-09
-1.73833e-06
-7.04103e-09
4.4793e-09
-1.74067e-06
3.16913e-09
-1.74148e-06
1.84859e-09
-1.74193e-06
5.22396e-10
-1.74216e-06
-8.04263e-10
-1.74216e-06
-2.12623e-09
-1.74193e-06
-3.4389e-09
-1.74147e-06
-4.73906e-09
-1.74067e-06
-1.73837e-06
-6.01165e-09
7.46854e-09
-1.73665e-06
-9.148e-09
5.74584e-09
-1.73895e-06
4.00734e-09
-1.73974e-06
2.25802e-09
-1.74019e-06
5.02802e-10
-1.74041e-06
-1.25301e-09
-1.74041e-06
-3.00413e-09
-1.74018e-06
-4.74569e-09
-1.73973e-06
-6.47302e-09
-1.73894e-06
-1.73668e-06
-8.16172e-09
9.03991e-09
-1.73459e-06
-1.10967e-08
6.92217e-09
-1.73683e-06
4.78508e-09
-1.7376e-06
2.63602e-09
-1.73804e-06
4.80491e-10
-1.73825e-06
-1.67574e-09
-1.73825e-06
-3.82692e-09
-1.73803e-06
-5.96759e-09
-1.73759e-06
-8.0909e-09
-1.73682e-06
-1.73461e-06
-1.01596e-08
1.05057e-08
-1.73219e-06
-1.29115e-08
8.01951e-09
-1.73435e-06
5.50976e-09
-1.73509e-06
2.98654e-09
-1.73551e-06
4.56136e-10
-1.73572e-06
-2.07505e-09
-1.73572e-06
-4.60063e-09
-1.7355e-06
-7.11437e-09
-1.73508e-06
-9.60683e-09
-1.73433e-06
-1.73219e-06
-1.20265e-08
1.18826e-08
-1.72945e-06
-1.46182e-08
9.0495e-09
-1.73151e-06
6.18892e-09
-1.73223e-06
3.31347e-09
-1.73264e-06
4.30181e-10
-1.73284e-06
-2.45393e-09
-1.73284e-06
-5.33185e-09
-1.73263e-06
-8.1966e-09
-1.73221e-06
-1.10363e-08
-1.73149e-06
-1.72944e-06
-1.37863e-08
1.31861e-08
-1.7264e-06
-1.62393e-08
1.00229e-08
-1.72835e-06
6.82954e-09
-1.72904e-06
3.62035e-09
-1.72943e-06
4.02898e-10
-1.72962e-06
-2.81537e-09
-1.72962e-06
-6.02698e-09
-1.72942e-06
-9.22444e-09
-1.72902e-06
-1.2394e-08
-1.72832e-06
-1.72638e-06
-1.54611e-08
1.44287e-08
-1.72304e-06
-1.77923e-08
1.09488e-08
-1.72487e-06
7.43759e-09
-1.72553e-06
3.9102e-09
-1.7259e-06
3.74437e-10
-1.72609e-06
-3.16208e-09
-1.72608e-06
-6.69171e-09
-1.72589e-06
-1.02067e-08
-1.7255e-06
-1.36924e-08
-1.72483e-06
-1.723e-06
-1.70683e-08
1.56195e-08
-1.71937e-06
-1.9288e-08
1.18342e-08
-1.72108e-06
8.01769e-09
-1.72171e-06
4.18537e-09
-1.72207e-06
3.44856e-10
-1.72225e-06
-3.49631e-09
-1.72224e-06
-7.33058e-09
-1.72205e-06
-1.11503e-08
-1.72168e-06
-1.49406e-08
-1.72104e-06
-1.71932e-06
-1.86192e-08
1.67647e-08
-1.7154e-06
-2.07321e-08
1.26839e-08
-1.717e-06
8.57329e-09
-1.7176e-06
4.44761e-09
-1.71794e-06
3.14182e-10
-1.71811e-06
-3.81977e-09
-1.71811e-06
-7.94702e-09
-1.71792e-06
-1.20603e-08
-1.71757e-06
-1.6145e-08
-1.71696e-06
-1.71535e-06
-2.01203e-08
1.78682e-08
-1.71114e-06
-2.21275e-08
1.35015e-08
-1.71264e-06
9.10678e-09
-1.71321e-06
4.6982e-09
-1.71353e-06
2.8247e-10
-1.7137e-06
-4.13364e-09
-1.71369e-06
-8.54335e-09
-1.71351e-06
-1.29399e-08
-1.71317e-06
-1.73095e-08
-1.71259e-06
-1.71108e-06
-2.15746e-08
1.89329e-08
-1.7066e-06
-2.34762e-08
1.42893e-08
-1.70799e-06
9.62007e-09
-1.70854e-06
4.93821e-09
-1.70885e-06
2.49895e-10
-1.70901e-06
-4.43863e-09
-1.709e-06
-9.12114e-09
-1.70883e-06
-1.37915e-08
-1.7085e-06
-1.84368e-08
-1.70794e-06
-1.70654e-06
-2.29837e-08
1.99614e-08
-1.70178e-06
-2.47803e-08
1.50498e-08
-1.70308e-06
1.01149e-08
-1.7036e-06
5.16869e-09
-1.70391e-06
2.16804e-10
-1.70406e-06
-4.73512e-09
-1.70405e-06
-9.68143e-09
-1.70389e-06
-1.46165e-08
-1.70357e-06
-1.95287e-08
-1.70303e-06
-1.70172e-06
-2.4349e-08
2.09566e-08
-1.69669e-06
-2.60423e-08
1.57852e-08
-1.69791e-06
1.0593e-08
-1.69841e-06
5.39084e-09
-1.6987e-06
1.83727e-10
-1.69885e-06
-5.02325e-09
-1.69884e-06
-1.0225e-08
-1.69868e-06
-1.54165e-08
-1.69837e-06
-2.0587e-08
-1.69786e-06
-1.69663e-06
-2.56722e-08
2.19217e-08
-1.69135e-06
-2.72662e-08
1.64984e-08
-1.69249e-06
1.10566e-08
-1.69297e-06
5.60609e-09
-1.69325e-06
1.51379e-10
-1.6934e-06
-5.30302e-09
-1.69339e-06
-1.07525e-08
-1.69323e-06
-1.61928e-08
-1.69293e-06
-2.16138e-08
-1.69244e-06
-1.69129e-06
-2.69557e-08
2.28608e-08
-1.68575e-06
-2.84566e-08
1.71927e-08
-1.68682e-06
1.1508e-08
-1.68728e-06
5.81609e-09
-1.68756e-06
1.20592e-10
-1.6877e-06
-5.57441e-09
-1.68769e-06
-1.12649e-08
-1.68754e-06
-1.6947e-08
-1.68725e-06
-2.26115e-08
-1.68677e-06
-1.6857e-06
-2.82027e-08
2.37784e-08
-1.67991e-06
-2.96187e-08
1.78716e-08
-1.68091e-06
1.19503e-08
-1.68136e-06
6.02274e-09
-1.68163e-06
9.231e-11
-1.68177e-06
-5.83747e-09
-1.68176e-06
-1.1763e-08
-1.68162e-06
-1.7681e-08
-1.68133e-06
-2.35829e-08
-1.68087e-06
-1.67986e-06
-2.94168e-08
2.46795e-08
-1.67383e-06
-3.07583e-08
1.85394e-08
-1.67477e-06
1.23864e-08
-1.67521e-06
6.22819e-09
-1.67548e-06
6.75245e-11
-1.67561e-06
-6.09238e-09
-1.6756e-06
-1.22483e-08
-1.67546e-06
-1.83972e-08
-1.67519e-06
-2.45313e-08
-1.67474e-06
-1.67379e-06
-3.0602e-08
2.55696e-08
-1.66752e-06
-3.18814e-08
1.92009e-08
-1.6684e-06
1.28202e-08
-1.66883e-06
6.43481e-09
-1.66909e-06
4.72274e-11
-1.66922e-06
-6.33954e-09
-1.66922e-06
-1.27224e-08
-1.66908e-06
-1.90986e-08
-1.66881e-06
-2.54606e-08
-1.66838e-06
-1.66749e-06
-3.17632e-08
2.64544e-08
-1.66098e-06
-3.29934e-08
1.9861e-08
-1.66181e-06
1.32553e-08
-1.66222e-06
6.6449e-09
-1.66248e-06
3.22869e-11
-1.66261e-06
-6.57956e-09
-1.66261e-06
-1.31876e-08
-1.66247e-06
-1.97888e-08
-1.66221e-06
-2.63753e-08
-1.66179e-06
-1.66096e-06
-3.29044e-08
2.73377e-08
-1.65423e-06
-3.40942e-08
2.05231e-08
-1.65499e-06
1.36937e-08
-1.65539e-06
6.85929e-09
-1.65565e-06
2.32455e-11
-1.65577e-06
-6.81219e-09
-1.65577e-06
-1.36447e-08
-1.65564e-06
-2.04705e-08
-1.65538e-06
-2.72789e-08
-1.65498e-06
-1.65422e-06
-3.40241e-08
2.82231e-08
-1.64727e-06
-3.5181e-08
2.11831e-08
-1.64795e-06
1.41281e-08
-1.64834e-06
7.07292e-09
-1.64859e-06
1.98558e-11
-1.64872e-06
-7.03255e-09
-1.64872e-06
-1.4086e-08
-1.64859e-06
-2.1139e-08
-1.64833e-06
-2.81767e-08
-1.64794e-06
-1.64727e-06
-3.51254e-08
2.91102e-08
-1.64e-06
-3.63778e-08
2.18113e-08
-1.64066e-06
1.45317e-08
-1.64106e-06
7.26993e-09
-1.64133e-06
1.79707e-11
-1.64147e-06
-7.23264e-09
-1.64147e-06
-1.44908e-08
-1.64133e-06
-2.17667e-08
-1.64105e-06
-2.90695e-08
-1.64064e-06
-1.63996e-06
-3.63774e-08
2.99849e-08
-1.63213e-06
-3.78564e-08
2.24038e-08
-1.63307e-06
1.49119e-08
-1.63357e-06
7.45408e-09
-1.63387e-06
8.87724e-12
-1.63402e-06
-7.43514e-09
-1.63402e-06
-1.48893e-08
-1.63387e-06
-2.23749e-08
-1.63357e-06
-2.99473e-08
-1.63307e-06
-1.63209e-06
-3.78179e-08
3.0804e-08
-1.62429e-06
-3.86487e-08
2.30658e-08
-1.62534e-06
1.53639e-08
-1.62586e-06
7.68181e-09
-1.62619e-06
8.41828e-12
-1.62635e-06
-7.66438e-09
-1.62635e-06
-1.5344e-08
-1.62619e-06
-2.30385e-08
-1.62587e-06
-3.07533e-08
-1.62535e-06
-1.62433e-06
-3.85145e-08
3.16683e-08
-1.61654e-06
-3.94169e-08
2.37713e-08
-1.61744e-06
1.5855e-08
-1.61795e-06
7.94076e-09
-1.61828e-06
3.01318e-11
-1.61844e-06
-7.87954e-09
-1.61844e-06
-1.57905e-08
-1.61828e-06
-2.37005e-08
-1.61796e-06
-3.15885e-08
-1.61747e-06
-1.61658e-06
-3.93311e-08
3.25383e-08
-1.60849e-06
-4.05804e-08
2.44282e-08
-1.60933e-06
1.63049e-08
-1.60983e-06
8.18051e-09
-1.61015e-06
5.72447e-11
-1.61032e-06
-8.06522e-09
-1.61032e-06
-1.61874e-08
-1.61016e-06
-2.43079e-08
-1.60984e-06
-3.2417e-08
-1.60936e-06
-1.60853e-06
-4.04671e-08
3.34531e-08
-1.60016e-06
-4.17825e-08
2.51038e-08
-1.60098e-06
1.67584e-08
-1.60148e-06
8.41789e-09
-1.60181e-06
7.98157e-11
-1.60198e-06
-8.25813e-09
-1.60198e-06
-1.65984e-08
-1.60182e-06
-2.49443e-08
-1.6015e-06
-3.32957e-08
-1.60101e-06
-1.6002e-06
-4.16304e-08
3.44251e-08
-1.59157e-06
-4.30165e-08
2.5828e-08
-1.59238e-06
1.72431e-08
-1.59289e-06
8.66837e-09
-1.59324e-06
9.82713e-11
-1.59341e-06
-8.47214e-09
-1.59341e-06
-1.70479e-08
-1.59324e-06
-2.5635e-08
-1.59291e-06
-3.42357e-08
-1.5924e-06
-1.5916e-06
-4.28327e-08
3.54599e-08
-1.58271e-06
-4.43204e-08
2.66015e-08
-1.58352e-06
1.77604e-08
-1.58405e-06
8.93318e-09
-1.58441e-06
1.12503e-10
-1.58459e-06
-8.70872e-09
-1.58459e-06
-1.75376e-08
-1.58442e-06
-2.63818e-08
-1.58407e-06
-3.5245e-08
-1.58354e-06
-1.58274e-06
-4.41123e-08
3.65658e-08
-1.57357e-06
-4.57133e-08
2.74276e-08
-1.57439e-06
1.83115e-08
-1.57494e-06
9.21279e-09
-1.57531e-06
1.22313e-10
-1.5755e-06
-8.96884e-09
-1.5755e-06
-1.80697e-08
-1.57531e-06
-2.71894e-08
-1.57495e-06
-3.6333e-08
-1.5744e-06
-1.57358e-06
-4.54881e-08
3.77548e-08
-1.56411e-06
-4.72122e-08
2.83142e-08
-1.56495e-06
1.89012e-08
-1.56552e-06
9.50927e-09
-1.56592e-06
1.27543e-10
-1.56611e-06
-9.25491e-09
-1.56612e-06
-1.8649e-08
-1.56592e-06
-2.8066e-08
-1.56553e-06
-3.75122e-08
-1.56495e-06
-1.56412e-06
-4.69775e-08
3.90422e-08
-1.55431e-06
-4.88372e-08
2.92724e-08
-1.55518e-06
1.95364e-08
-1.55579e-06
9.82609e-09
-1.55621e-06
1.28232e-10
-1.55642e-06
-9.57036e-09
-1.55642e-06
-1.92829e-08
-1.55621e-06
-2.90227e-08
-1.55579e-06
-3.87982e-08
-1.55518e-06
-1.55431e-06
-4.86008e-08
4.04468e-08
-1.54415e-06
-5.06124e-08
3.03157e-08
-1.54504e-06
2.02261e-08
-1.5457e-06
1.01677e-08
-1.54615e-06
1.24557e-10
-1.54637e-06
-9.91931e-09
-1.54637e-06
-1.99798e-08
-1.54615e-06
-3.0073e-08
-1.5457e-06
-4.02093e-08
-1.54504e-06
-1.54414e-06
-5.03819e-08
4.19912e-08
-1.53357e-06
-5.25674e-08
3.14608e-08
-1.53451e-06
2.09813e-08
-1.53522e-06
1.05397e-08
-1.53571e-06
1.16889e-10
-1.53595e-06
-1.03066e-08
-1.53595e-06
-2.075e-08
-1.5357e-06
-3.12327e-08
-1.53521e-06
-4.17678e-08
-1.5345e-06
-1.53356e-06
-5.23499e-08
4.3703e-08
-1.52254e-06
-5.47379e-08
3.27275e-08
-1.52354e-06
2.18148e-08
-1.52431e-06
1.09486e-08
-1.52484e-06
1.05743e-10
-1.52511e-06
-1.07377e-08
-1.52511e-06
-2.16054e-08
-1.52484e-06
-3.25208e-08
-1.5243e-06
-4.35e-08
-1.52353e-06
-1.52252e-06
-5.45397e-08
4.56156e-08
-1.51098e-06
-5.71681e-08
3.41399e-08
-1.51206e-06
2.27422e-08
-1.51291e-06
1.14025e-08
-1.5135e-06
9.18233e-11
-1.5138e-06
-1.12192e-08
-1.51379e-06
-2.25602e-08
-1.5135e-06
-3.39599e-08
-1.5129e-06
-4.54384e-08
-1.51205e-06
-1.51096e-06
-5.69945e-08
4.77705e-08
-1.49884e-06
-5.99132e-08
3.57274e-08
-1.50002e-06
2.37824e-08
-1.50096e-06
1.19106e-08
-1.50163e-06
7.59647e-11
-1.50196e-06
-1.1759e-08
-1.50196e-06
-2.36316e-08
-1.50162e-06
-3.55779e-08
-1.50095e-06
-4.76229e-08
-1.5e-06
-1.49882e-06
-5.97679e-08
5.02205e-08
-1.48602e-06
-6.30447e-08
3.75261e-08
-1.48733e-06
2.4958e-08
-1.4884e-06
1.24844e-08
-1.48916e-06
5.91564e-11
-1.48954e-06
-1.23662e-08
-1.48953e-06
-2.48402e-08
-1.48915e-06
-3.7409e-08
-1.48838e-06
-5.01041e-08
-1.48731e-06
-1.48599e-06
-6.29294e-08
5.30341e-08
-1.47239e-06
-6.66585e-08
3.95824e-08
-1.47387e-06
2.62972e-08
-1.47511e-06
1.31374e-08
-1.476e-06
4.24911e-11
-1.47644e-06
-1.30525e-08
-1.47644e-06
-2.62122e-08
-1.47599e-06
-3.94973e-08
-1.4751e-06
-5.29487e-08
-1.47386e-06
-1.47237e-06
-6.65727e-08
5.63052e-08
-1.45781e-06
-7.08891e-08
4.1958e-08
-1.45953e-06
2.7837e-08
-1.46099e-06
1.38875e-08
-1.46205e-06
2.71042e-11
-1.46258e-06
-1.38332e-08
-1.46258e-06
-2.77823e-08
-1.46204e-06
-4.19024e-08
-1.46098e-06
-5.62484e-08
-1.45951e-06
-1.45779e-06
-7.08304e-08
6.01705e-08
-1.44205e-06
-7.59329e-08
4.47434e-08
-1.4441e-06
2.96331e-08
-1.44588e-06
1.47616e-08
-1.44718e-06
1.40248e-11
-1.44783e-06
-1.47333e-08
-1.44783e-06
-2.9604e-08
-1.44717e-06
-4.47129e-08
-1.44587e-06
-6.01378e-08
-1.44408e-06
-1.44203e-06
-7.58969e-08
6.48434e-08
-1.4248e-06
-8.20854e-08
4.80886e-08
-1.42734e-06
3.17825e-08
-1.42957e-06
1.58081e-08
-1.4312e-06
4.00934e-12
-1.43203e-06
-1.57998e-08
-1.43203e-06
-3.1773e-08
-1.4312e-06
-4.80772e-08
-1.42956e-06
-6.4829e-08
-1.42733e-06
-1.42479e-06
-8.20667e-08
7.06751e-08
-1.40569e-06
-8.97944e-08
5.2261e-08
-1.40893e-06
3.44698e-08
-1.41178e-06
1.71223e-08
-1.41385e-06
-2.55333e-12
-1.4149e-06
-1.71269e-08
-1.4149e-06
-3.44731e-08
-1.41385e-06
-5.22618e-08
-1.41178e-06
-7.06723e-08
-1.40892e-06
-1.40567e-06
-8.97865e-08
7.82385e-08
-1.3842e-06
-9.97185e-08
5.77286e-08
-1.38842e-06
3.80297e-08
-1.39208e-06
1.88784e-08
-1.3947e-06
-5.72373e-12
-1.39602e-06
-1.88893e-08
-1.39602e-06
-3.80389e-08
-1.3947e-06
-5.77349e-08
-1.39208e-06
-7.82407e-08
-1.38842e-06
-1.3842e-06
-9.97151e-08
8.83455e-08
-1.35986e-06
-1.12691e-07
6.51785e-08
-1.36525e-06
4.29484e-08
-1.36985e-06
2.13261e-08
-1.37308e-06
-5.96665e-12
-1.37469e-06
-2.13374e-08
-1.37469e-06
-4.29576e-08
-1.37308e-06
-6.51842e-08
-1.36985e-06
-8.83465e-08
-1.36525e-06
-1.35986e-06
-1.12686e-07
1.01784e-07
-1.33217e-06
-1.29474e-07
7.51731e-08
-1.33864e-06
4.95608e-08
-1.34424e-06
2.46235e-08
-1.34814e-06
-3.99821e-12
-1.35006e-06
-2.46306e-08
-1.35006e-06
-4.95654e-08
-1.34815e-06
-7.51735e-08
-1.34425e-06
-1.01778e-07
-1.33865e-06
-1.33218e-06
-1.29462e-07
1.17897e-07
-1.29975e-06
-1.50321e-07
8.65068e-08
-1.30725e-06
5.69275e-08
-1.31466e-06
2.83488e-08
-1.31956e-06
-6.08912e-13
-1.32171e-06
-2.83491e-08
-1.32171e-06
-5.69253e-08
-1.31957e-06
-8.65e-08
-1.31467e-06
-1.17884e-07
-1.30727e-06
-1.29976e-06
-1.503e-07
1.28516e-07
-1.25471e-06
-1.73554e-07
9.24429e-08
-1.27118e-06