/*--------------------------------*- C++ -*----------------------------------*\
  =========                 |
  \\      /  F ield         | OpenFOAM: The Open Source CFD Toolbox
   \\    /   O peration     | Website:  https://openfoam.org
    \\  /    A nd           | Version:  8
     \\/     M anipulation  |
\*---------------------------------------------------------------------------*/
FoamFile
{
    version     2.0;
    format      ascii;
    class       volVectorField;
    location    "0.7";
    object      U;
}
// * * * * * * * * * * * * * * * * * * * * * * * * * * * * * * * * * * * * * //

dimensions      [0 1 -1 0 0 0 0];

internalField   nonuniform List<vector> 
9150
(
(0.053585 -0.428796 0)
(0.0879377 -0.622341 0)
(0.0735135 -0.631587 0)
(0.0487936 -0.643924 0)
(0.0171094 -0.654726 0)
(-0.0171094 -0.654726 0)
(-0.0487935 -0.643924 0)
(-0.0735135 -0.631587 0)
(-0.0879377 -0.622341 0)
(-0.053585 -0.428796 0)
(0.0404777 -0.522319 0)
(0.0573113 -0.625732 0)
(0.0423887 -0.613309 0)
(0.0294984 -0.62255 0)
(0.0105548 -0.629034 0)
(-0.0105548 -0.629034 0)
(-0.0294984 -0.62255 0)
(-0.0423887 -0.613309 0)
(-0.0573113 -0.625732 0)
(-0.0404777 -0.522319 0)
(0.0250567 -0.557724 0)
(0.0324654 -0.613954 0)
(0.0232356 -0.604524 0)
(0.0173218 -0.610028 0)
(0.00628691 -0.613288 0)
(-0.0062869 -0.613288 0)
(-0.0173218 -0.610028 0)
(-0.0232356 -0.604524 0)
(-0.0324654 -0.613954 0)
(-0.0250567 -0.557724 0)
(0.0152276 -0.584568 0)
(0.0174354 -0.607571 0)
(0.0118708 -0.601159 0)
(0.00891022 -0.603287 0)
(0.00326751 -0.60444 0)
(-0.0032675 -0.60444 0)
(-0.00891021 -0.603288 0)
(-0.0118707 -0.601159 0)
(-0.0174354 -0.607571 0)
(-0.0152276 -0.584568 0)
(0.00622066 -0.597115 0)
(0.00554325 -0.601443 0)
(0.00364489 -0.600046 0)
(0.00269752 -0.600351 0)
(0.00100328 -0.600495 0)
(-0.00100327 -0.600495 0)
(-0.00269753 -0.600351 0)
(-0.0036449 -0.600046 0)
(-0.00554325 -0.601443 0)
(-0.00622066 -0.597115 0)
(0.467662 -1.1593 1.77589e-24)
(0.282326 -1.08587 0)
(0.162685 -1.06943 0)
(0.0916505 -1.05829 0)
(0.0302271 -1.05412 0)
(-0.0302269 -1.05412 0)
(-0.0916503 -1.05829 0)
(-0.162685 -1.06943 0)
(-0.282326 -1.08587 0)
(-0.467662 -1.1593 -1.77589e-24)
(0.333521 -0.843251 4.96569e-25)
(0.287363 -0.936224 0)
(0.188386 -0.936884 0)
(0.10795 -0.937411 0)
(0.0356748 -0.940135 0)
(-0.0356747 -0.940135 0)
(-0.10795 -0.937412 0)
(-0.188386 -0.936884 0)
(-0.287363 -0.936224 0)
(-0.333521 -0.843252 -4.96568e-25)
(0.277807 -0.701073 7.44973e-26)
(0.259034 -0.804269 0)
(0.178482 -0.817511 0)
(0.104563 -0.828863 0)
(0.0348617 -0.837266 0)
(-0.0348616 -0.837266 0)
(-0.104563 -0.828863 0)
(-0.178482 -0.817511 0)
(-0.259034 -0.804269 0)
(-0.277807 -0.701073 -7.44967e-26)
(0.198418 -0.55324 3.31725e-25)
(0.216304 -0.709211 0)
(0.154709 -0.725955 0)
(0.0914421 -0.742432 0)
(0.030598 -0.754526 0)
(-0.0305979 -0.754526 0)
(-0.091442 -0.742432 0)
(-0.154709 -0.725955 0)
(-0.216304 -0.709211 0)
(-0.198418 -0.55324 -3.31725e-25)
(0.11746 -0.445337 -5.16691e-25)
(0.155747 -0.644293 -7.35879e-25)
(0.117085 -0.663916 -2.52075e-25)
(0.0710889 -0.681505 -1.66085e-25)
(0.0240403 -0.69462 -9.72302e-27)
(-0.0240403 -0.69462 -9.72287e-27)
(-0.0710888 -0.681505 -1.66084e-25)
(-0.117085 -0.663916 -2.52075e-25)
(-0.155747 -0.644293 -7.35879e-25)
(-0.11746 -0.445337 -5.16691e-25)
(0.00711474 -0.934564 0)
(-0.0357537 -1.31374 0)
(0.022185 -1.26258 0)
(0.00164958 -1.22735 0)
(0.00283025 -1.22432 0)
(-0.00282596 -1.22432 0)
(-0.00164708 -1.22735 0)
(-0.0221798 -1.26258 0)
(0.0357485 -1.31373 0)
(-0.00710918 -0.934571 0)
(0.0499291 -0.914411 0)
(-0.0262283 -1.3305 0)
(0.0232414 -1.26687 0)
(0.00199661 -1.22491 0)
(0.000620686 -1.22285 0)
(-0.000619005 -1.22285 0)
(-0.00199492 -1.22491 0)
(-0.0232413 -1.26687 0)
(0.0262303 -1.3305 0)
(-0.049929 -0.914418 0)
(0.0779785 -0.949898 0)
(-0.0247485 -1.34359 0)
(0.0144117 -1.27376 0)
(0.00664646 -1.232 0)
(2.25368e-05 -1.22672 0)
(-2.14664e-05 -1.22672 0)
(-0.00664538 -1.232 0)
(-0.0144108 -1.27376 0)
(0.0247501 -1.34359 0)
(-0.0779777 -0.949902 0)
(0.147027 -1.08109 0)
(0.00394102 -1.36503 0)
(0.0133686 -1.27054 0)
(0.0215443 -1.2263 0)
(0.00611599 -1.21523 0)
(-0.00611534 -1.21523 0)
(-0.0215437 -1.2263 0)
(-0.0133683 -1.27054 0)
(-0.00394006 -1.36503 0)
(-0.147027 -1.0811 0)
(0.300586 -1.21659 0)
(0.129557 -1.32097 0)
(0.0682151 -1.20992 0)
(0.0554977 -1.16926 0)
(0.0198861 -1.15756 0)
(-0.0198857 -1.15756 0)
(-0.0554974 -1.16926 0)
(-0.0682147 -1.20992 0)
(-0.129556 -1.32097 0)
(-0.300586 -1.21659 0)
(-0.564509 -0.19333 0)
(-0.444283 -0.20208 0)
(-0.319905 -0.208951 0)
(-0.193064 -0.214013 0)
(-0.0652327 -0.216985 0)
(0.0627249 -0.217023 0)
(0.190578 -0.214118 0)
(0.317476 -0.209114 0)
(0.441955 -0.202301 0)
(0.56233 -0.193621 0)
(-0.420454 -0.338555 0)
(-0.332491 -0.354948 0)
(-0.240648 -0.366257 0)
(-0.146031 -0.37335 0)
(-0.0495568 -0.376793 0)
(0.0476502 -0.376843 0)
(0.144159 -0.373504 0)
(0.23884 -0.366525 0)
(0.330776 -0.355345 0)
(0.418867 -0.339103 0)
(-0.317506 -0.476601 0)
(-0.250565 -0.499737 0)
(-0.180998 -0.515648 0)
(-0.109614 -0.525564 0)
(-0.0371409 -0.530331 0)
(0.035711 -0.530401 0)
(0.108205 -0.525781 0)
(0.179629 -0.516025 0)
(0.249259 -0.500298 0)
(0.316287 -0.477373 0)
(-0.23916 -0.591813 0)
(-0.188183 -0.619882 0)
(-0.13564 -0.639253 0)
(-0.0820196 -0.651406 0)
(-0.0277677 -0.657289 0)
(0.0266961 -0.657375 0)
(0.0809588 -0.65167 0)
(0.134601 -0.639711 0)
(0.187177 -0.620559 0)
(0.238201 -0.592746 0)
(-0.176618 -0.677571 0)
(-0.138529 -0.708516 0)
(-0.0997291 -0.729894 0)
(-0.0602672 -0.743382 0)
(-0.0203994 -0.749941 0)
(0.0196041 -0.750034 0)
(0.0594759 -0.743665 0)
(0.0989451 -0.730384 0)
(0.137755 -0.709237 0)
(0.175847 -0.678569 0)
(-0.134949 -0.742512 0)
(-0.104572 -0.774267 0)
(-0.0749424 -0.796442 0)
(-0.0452024 -0.81059 0)
(-0.0152894 -0.817524 0)
(0.0146842 -0.817618 0)
(0.0445976 -0.810878 0)
(0.0743371 -0.796935 0)
(0.103957 -0.774987 0)
(0.134291 -0.743505 0)
(-0.116889 -0.79873 0)
(-0.0882591 -0.828524 0)
(-0.0623605 -0.849714 0)
(-0.0373683 -0.863429 0)
(-0.0126133 -0.870218 0)
(0.0120839 -0.87031 0)
(0.0368344 -0.863706 0)
(0.0618141 -0.850182 0)
(0.0876762 -0.829193 0)
(0.116223 -0.799615 0)
(-0.112045 -0.854899 0)
(-0.0832796 -0.879979 0)
(-0.0580562 -0.898427 0)
(-0.0345641 -0.910592 0)
(-0.011656 -0.916683 0)
(0.0111049 -0.916765 0)
(0.034001 -0.910837 0)
(0.0574623 -0.898836 0)
(0.0826194 -0.880558 0)
(0.111295 -0.855653 0)
(-0.112383 -0.910343 0)
(-0.083766 -0.931069 0)
(-0.0580023 -0.946519 0)
(-0.0343796 -0.956762 0)
(-0.0115888 -0.961912 0)
(0.010999 -0.961979 0)
(0.033778 -0.956961 0)
(0.0573662 -0.946848 0)
(0.083059 -0.931527 0)
(0.111651 -0.910923 0)
(-0.111072 -0.966058 0)
(-0.0845661 -0.982601 0)
(-0.0584575 -0.995087 0)
(-0.0345867 -1.0034 0)
(-0.0116706 -1.00759 0)
(0.0110305 -1.00765 0)
(0.0339369 -1.00357 0)
(0.0577772 -0.995357 0)
(0.0838295 -0.982961 0)
(0.110386 -0.96648 0)
(-0.108181 -1.02059 0)
(-0.0843179 -1.03335 0)
(-0.0584863 -1.04333 0)
(-0.0346244 -1.05006 0)
(-0.0117057 -1.05347 0)
(0.0110101 -1.05352 0)
(0.0339187 -1.0502 0)
(0.0577522 -1.04355 0)
(0.0835457 -1.03364 0)
(0.107516 -1.02091 0)
(-0.103955 -1.07179 0)
(-0.0829866 -1.08227 0)
(-0.0578804 -1.09066 0)
(-0.034302 -1.09633 0)
(-0.0116083 -1.09919 0)
(0.0108943 -1.09923 0)
(0.0335766 -1.09644 0)
(0.0571268 -1.09086 0)
(0.0822126 -1.08255 0)
(0.103314 -1.07212 0)
(-0.0987823 -1.11914 0)
(-0.0803845 -1.12882 0)
(-0.0563806 -1.13651 0)
(-0.0334028 -1.14158 0)
(-0.0112923 -1.14409 0)
(0.0106158 -1.14413 0)
(0.0327145 -1.14167 0)
(0.055663 -1.13668 0)
(0.0796869 -1.12907 0)
(0.0981715 -1.1195 0)
(-0.0934184 -1.16436 0)
(-0.0765457 -1.17354 0)
(-0.0542437 -1.18055 0)
(-0.0320508 -1.18512 0)
(-0.0108099 -1.18738 0)
(0.0101756 -1.1874 0)
(0.0314046 -1.18521 0)
(0.0535687 -1.1807 0)
(0.0759126 -1.17375 0)
(0.0928593 -1.16465 0)
(-0.0878988 -1.20841 0)
(-0.0725312 -1.21646 0)
(-0.0518689 -1.22259 0)
(-0.0305853 -1.22664 0)
(-0.0102995 -1.22864 0)
(0.00968365 -1.22866 0)
(0.0299574 -1.22671 0)
(0.0512149 -1.22271 0)
(0.0719431 -1.21662 0)
(0.0873731 -1.20861 0)
(-0.0823967 -1.2498 0)
(-0.068357 -1.25706 0)
(-0.0494197 -1.26246 0)
(-0.0291073 -1.26606 0)
(-0.00979506 -1.26784 0)
(0.00917838 -1.26787 0)
(0.0284795 -1.26613 0)
(0.0487731 -1.26257 0)
(0.0678017 -1.25719 0)
(0.0818769 -1.24996 0)
(-0.0770137 -1.28907 0)
(-0.0641017 -1.29549 0)
(-0.0468963 -1.30021 0)
(-0.0276142 -1.3034 0)
(-0.0092895 -1.30499 0)
(0.0086754 -1.30501 0)
(0.0269911 -1.30347 0)
(0.0462639 -1.30032 0)
(0.0635776 -1.29561 0)
(0.0765422 -1.28921 0)
(-0.071721 -1.32609 0)
(-0.0599406 -1.33164 0)
(-0.0443887 -1.3358 0)
(-0.0261551 -1.33866 0)
(-0.00879279 -1.3401 0)
(0.00820261 -1.34012 0)
(0.0255557 -1.33873 0)
(0.0437869 -1.33592 0)
(0.0594508 -1.3318 0)
(0.0713057 -1.32622 0)
(-0.0666978 -1.36055 0)
(-0.0559677 -1.36534 0)
(-0.0418804 -1.36921 0)
(-0.0247111 -1.3719 0)
(-0.00828887 -1.37325 0)
(0.00776611 -1.37327 0)
(0.0241762 -1.37198 0)
(0.0413533 -1.36935 0)
(0.0555285 -1.36556 0)
(0.0663118 -1.36079 0)
(-0.0622974 -1.3926 0)
(-0.0522414 -1.39703 0)
(-0.0392585 -1.40067 0)
(-0.023264 -1.40319 0)
(-0.00777572 -1.40445 0)
(0.00734094 -1.40447 0)
(0.0228143 -1.40327 0)
(0.0388316 -1.4008 0)
(0.0518707 -1.39722 0)
(0.0619396 -1.39286 0)
(-0.0578211 -1.42268 0)
(-0.0486402 -1.42694 0)
(-0.0367664 -1.43026 0)
(-0.0218573 -1.43256 0)
(-0.00728706 -1.43372 0)
(0.00691791 -1.43375 0)
(0.0214745 -1.43263 0)
(0.0364007 -1.43037 0)
(0.0483408 -1.42709 0)
(0.0575753 -1.42289 0)
(-0.0535717 -1.45067 0)
(-0.045211 -1.45479 0)
(-0.0343577 -1.45791 0)
(-0.0205026 -1.46006 0)
(-0.00682161 -1.46114 0)
(0.00650594 -1.46117 0)
(0.0201736 -1.46013 0)
(0.0340496 -1.45802 0)
(0.0449648 -1.45495 0)
(0.0533824 -1.45089 0)
(-0.0495792 -1.47683 0)
(-0.0419849 -1.48083 0)
(-0.0320557 -1.48377 0)
(-0.0192032 -1.48578 0)
(-0.00637901 -1.4868 0)
(0.0061052 -1.48682 0)
(0.0189163 -1.48584 0)
(0.0317916 -1.48387 0)
(0.0417767 -1.48098 0)
(0.0494299 -1.47703 0)
(-0.0458444 -1.5012 0)
(-0.0389629 -1.50514 0)
(-0.0298732 -1.50792 0)
(-0.0179682 -1.5098 0)
(-0.00596288 -1.51075 0)
(0.00571779 -1.51077 0)
(0.0177105 -1.50986 0)
(0.0296404 -1.50801 0)
(0.0387814 -1.50527 0)
(0.0457238 -1.50138 0)
(-0.042362 -1.52388 0)
(-0.0361357 -1.52781 0)
(-0.0278097 -1.53045 0)
(-0.0167962 -1.53221 0)
(-0.00557103 -1.53311 0)
(0.00534615 -1.53313 0)
(0.0165595 -1.53226 0)
(0.0275997 -1.53052 0)
(0.0359731 -1.52792 0)
(0.0422602 -1.52406 0)
(-0.0391222 -1.54498 0)
(-0.0334921 -1.54892 0)
(-0.0258611 -1.55144 0)
(-0.0156834 -1.55311 0)
(-0.00520046 -1.55395 0)
(0.00499209 -1.55397 0)
(0.0154642 -1.55315 0)
(0.02567 -1.55151 0)
(0.0333445 -1.54902 0)
(0.0390333 -1.54515 0)
(-0.0361102 -1.56459 0)
(-0.031018 -1.56858 0)
(-0.0240208 -1.57098 0)
(-0.0146254 -1.57256 0)
(-0.00484812 -1.57336 0)
(0.00465667 -1.57337 0)
(0.0144241 -1.5726 0)
(0.0238488 -1.57104 0)
(0.0308856 -1.56867 0)
(0.0360323 -1.56476 0)
(-0.0333099 -1.58282 0)
(-0.0287 -1.58685 0)
(-0.022282 -1.58916 0)
(-0.0136179 -1.59065 0)
(-0.00451156 -1.59141 0)
(0.00434026 -1.59143 0)
(0.0134377 -1.59069 0)
(0.0221312 -1.58922 0)
(0.0285849 -1.58694 0)
(0.0332433 -1.58299 0)
(-0.0307042 -1.59973 0)
(-0.0265246 -1.60383 0)
(-0.0206372 -1.60604 0)
(-0.012657 -1.60746 0)
(-0.00418884 -1.60819 0)
(0.00404256 -1.6082 0)
(0.0125026 -1.6075 0)
(0.0205119 -1.6061 0)
(0.0264307 -1.60391 0)
(0.0306514 -1.5999 0)
(-0.0282746 -1.61541 0)
(-0.0244787 -1.61957 0)
(-0.0190792 -1.62171 0)
(-0.0117388 -1.62306 0)
(-0.00387837 -1.62374 0)
(0.00376249 -1.62375 0)
(0.0116153 -1.62308 0)
(0.0189837 -1.62175 0)
(0.0244102 -1.61965 0)
(0.0282389 -1.61558 0)
(-0.0260021 -1.62993 0)
(-0.0225495 -1.63415 0)
(-0.0176003 -1.63621 0)
(-0.0108595 -1.6375 0)
(-0.00357915 -1.63815 0)
(0.0034981 -1.63815 0)
(0.0107712 -1.63752 0)
(0.0175384 -1.63625 0)
(0.0225101 -1.63422 0)
(0.025987 -1.6301 0)
(-0.0238687 -1.64336 0)
(-0.0207246 -1.64763 0)
(-0.0161936 -1.64961 0)
(-0.010016 -1.65083 0)
(-0.00329077 -1.65145 0)
(0.00324699 -1.65146 0)
(0.00996527 -1.65085 0)
(0.0161674 -1.64964 0)
(0.0207168 -1.64768 0)
(0.0238768 -1.64351 0)
(-0.0218584 -1.65579 0)
(-0.0189933 -1.66006 0)
(-0.0148525 -1.66196 0)
(-0.0092058 -1.66312 0)
(-0.00301334 -1.66371 0)
(0.00300651 -1.66371 0)
(0.00919247 -1.66314 0)
(0.0148619 -1.66199 0)
(0.0190176 -1.6601 0)
(0.0218908 -1.65592 0)
(-0.0199559 -1.66727 0)
(-0.0173443 -1.6715 0)
(-0.0135703 -1.67331 0)
(-0.00842624 -1.67441 0)
(-0.00274687 -1.67496 0)
(0.00277439 -1.67496 0)
(0.00844807 -1.67442 0)
(0.0136136 -1.67333 0)
(0.0174 -1.67152 0)
(0.0200124 -1.66737 0)
(-0.018146 -1.67785 0)
(-0.0157668 -1.68198 0)
(-0.0123403 -1.6837 0)
(-0.00767426 -1.68473 0)
(-0.00249045 -1.68525 0)
(0.00254942 -1.68525 0)
(0.00772878 -1.68473 0)
(0.0124158 -1.6837 0)
(0.0158535 -1.68198 0)
(0.0182263 -1.6779 0)
(-0.0164168 -1.68754 0)
(-0.0142523 -1.69153 0)
(-0.0111567 -1.69315 0)
(-0.0069466 -1.69411 0)
(-0.00224226 -1.6946 0)
(0.00233213 -1.6946 0)
(0.00703358 -1.69411 0)
(0.0112648 -1.69314 0)
(0.0143713 -1.69152 0)
(0.0165224 -1.68754 0)
(-0.0147576 -1.69636 0)
(-0.0127933 -1.70017 0)
(-0.0100142 -1.70169 0)
(-0.00623967 -1.7026 0)
(-0.00199943 -1.70306 0)
(0.00212449 -1.70306 0)
(0.00636349 -1.7026 0)
(0.0101595 -1.70169 0)
(0.0129498 -1.70016 0)
(0.0148942 -1.69634 0)
(-0.0131578 -1.70432 0)
(-0.0113829 -1.70794 0)
(-0.00890736 -1.70937 0)
(-0.00554954 -1.71021 0)
(-0.00175882 -1.71064 0)
(0.00192896 -1.71064 0)
(0.00571982 -1.71022 0)
(0.00909899 -1.70937 0)
(0.011586 -1.70794 0)
(0.0133352 -1.7043 0)
(-0.0116063 -1.71141 0)
(-0.0100163 -1.71486 0)
(-0.0078325 -1.71619 0)
(-0.0048736 -1.71699 0)
(-0.00151829 -1.71739 0)
(0.00174692 -1.71739 0)
(0.00510318 -1.717 0)
(0.0080822 -1.71621 0)
(0.0102772 -1.71488 0)
(0.0118398 -1.71143 0)
(-0.0101054 -1.71766 0)
(-0.00869374 -1.72095 0)
(-0.00678948 -1.7222 0)
(-0.00421186 -1.72294 0)
(-0.00127793 -1.72332 0)
(0.00157786 -1.72333 0)
(0.00451242 -1.72296 0)
(0.00710664 -1.72223 0)
(0.00901919 -1.72098 0)
(0.010399 -1.71773 0)
(-0.00864515 -1.72304 0)
(-0.00741635 -1.72622 0)
(-0.00577859 -1.72741 0)
(-0.00356398 -1.72812 0)
(-0.00103885 -1.72847 0)
(0.00142012 -1.72848 0)
(0.00394576 -1.72813 0)
(0.00617059 -1.72745 0)
(0.00781208 -1.72629 0)
(0.00901468 -1.72321 0)
(-0.00722696 -1.7277 0)
(-0.00618773 -1.73074 0)
(-0.00480632 -1.73186 0)
(-0.00294012 -1.73253 0)
(-0.000810955 -1.73286 0)
(0.00126306 -1.73287 0)
(0.00339193 -1.73254 0)
(0.00526396 -1.73189 0)
(0.00664689 -1.73079 0)
(0.00767172 -1.72783 0)
(-0.0058735 -1.73162 0)
(-0.00501505 -1.73451 0)
(-0.00388041 -1.73557 0)
(-0.00234956 -1.7362 0)
(-0.000602151 -1.73652 0)
(0.00109994 -1.73652 0)
(0.0028461 -1.73621 0)
(0.00438061 -1.7356 0)
(0.0055147 -1.73455 0)
(0.00635802 -1.73171 0)
(-0.00458062 -1.73481 0)
(-0.00389748 -1.73757 0)
(-0.00299943 -1.73857 0)
(-0.00178996 -1.73916 0)
(-0.000409059 -1.73946 0)
(0.000935891 -1.73947 0)
(0.0023155 -1.73917 0)
(0.00352734 -1.73859 0)
(0.00442423 -1.73759 0)
(0.00509459 -1.73488 0)
(-0.0033471 -1.73728 0)
(-0.00283417 -1.73993 0)
(-0.00216241 -1.74089 0)
(-0.00125955 -1.74145 0)
(-0.000229175 -1.74173 0)
(0.000774175 -1.74173 0)
(0.00180352 -1.74145 0)
(0.0027079 -1.7409 0)
(0.00337874 -1.73995 0)
(0.0038826 -1.73734 0)
(-0.00217753 -1.73907 0)
(-0.00182642 -1.74163 0)
(-0.0013698 -1.74255 0)
(-0.000758429 -1.74308 0)
(-6.16998e-05 -1.74335 0)
(0.000616283 -1.74335 0)
(0.00131227 -1.74309 0)
(0.00192457 -1.74255 0)
(0.00238034 -1.74164 0)
(0.00272463 -1.73912 0)
(-0.00107208 -1.74021 0)
(-0.000875446 -1.7427 0)
(-0.000622551 -1.74359 0)
(-0.000286866 -1.7441 0)
(9.39247e-05 -1.74436 0)
(0.000463651 -1.74436 0)
(0.000843943 -1.7441 0)
(0.00117994 -1.74359 0)
(0.00143202 -1.74271 0)
(0.00162454 -1.74026 0)
(-3.57908e-05 -1.74075 0)
(1.72222e-05 -1.74318 0)
(7.83811e-05 -1.74404 0)
(0.00015455 -1.74454 0)
(0.00023796 -1.74479 0)
(0.000317458 -1.74479 0)
(0.000400496 -1.74454 0)
(0.000476301 -1.74404 0)
(0.00053658 -1.74319 0)
(0.000586691 -1.74079 0)
(0.000934101 -1.74069 0)
(0.000852332 -1.7431 0)
(0.000733626 -1.74394 0)
(0.000566423 -1.74443 0)
(0.000370972 -1.74467 0)
(0.000178203 -1.74467 0)
(-1.75994e-05 -1.74443 0)
(-0.00018592 -1.74394 0)
(-0.000305663 -1.74311 0)
(-0.000388156 -1.74075 0)
(0.00184035 -1.74012 0)
(0.00163115 -1.74251 0)
(0.00134412 -1.74333 0)
(0.000949265 -1.7438 0)
(0.000492986 -1.74404 0)
(4.53921e-05 -1.74404 0)
(-0.000411294 -1.7438 0)
(-0.000808014 -1.74333 0)
(-0.00109632 -1.74251 0)
(-0.00130385 -1.74017 0)
(0.00268141 -1.73907 0)
(0.00235455 -1.74143 0)
(0.00191062 -1.74224 0)
(0.00130332 -1.74271 0)
(0.00060393 -1.74294 0)
(-8.13219e-05 -1.74294 0)
(-0.000781248 -1.7427 0)
(-0.00139111 -1.74224 0)
(-0.00183664 -1.74143 0)
(-0.00216098 -1.73912 0)
(0.00346166 -1.73759 0)
(0.00302633 -1.73991 0)
(0.00243609 -1.74071 0)
(0.00163049 -1.74116 0)
(0.000704792 -1.74139 0)
(-0.000201748 -1.74139 0)
(-0.00112812 -1.74116 0)
(-0.00193681 -1.74071 0)
(-0.00252886 -1.73991 0)
(-0.00296082 -1.73763 0)
(0.00418667 -1.73571 0)
(0.00365164 -1.73799 0)
(0.00292465 -1.73877 0)
(0.0019335 -1.73921 0)
(0.000796799 -1.73943 0)
(-0.000316047 -1.73943 0)
(-0.00145354 -1.7392 0)
(-0.0024482 -1.73876 0)
(-0.00317712 -1.73798 0)
(-0.00370818 -1.73574 0)
(0.00486286 -1.73348 0)
(0.00423625 -1.73568 0)
(0.00338095 -1.73644 0)
(0.00221529 -1.73687 0)
(0.000881131 -1.73708 0)
(-0.000424723 -1.73708 0)
(-0.00175976 -1.73686 0)
(-0.00292924 -1.73643 0)
(-0.00378653 -1.73566 0)
(-0.00440874 -1.73349 0)
(0.00549684 -1.7309 0)
(0.00478614 -1.73301 0)
(0.00380979 -1.73375 0)
(0.00247887 -1.73416 0)
(0.000958892 -1.73437 0)
(-0.000528434 -1.73436 0)
(-0.00204932 -1.73415 0)
(-0.00338423 -1.73373 0)
(-0.00436257 -1.73299 0)
(-0.00506863 -1.7309 0)
(0.00609488 -1.72801 0)
(0.00530687 -1.73001 0)
(0.00421561 -1.73072 0)
(0.00272699 -1.73111 0)
(0.00103106 -1.73131 0)
(-0.000627883 -1.73131 0)
(-0.00232469 -1.7311 0)
(-0.00381732 -1.7307 0)
(-0.00491051 -1.72998 0)
(-0.00569376 -1.72799 0)
(0.00666231 -1.7248 0)
(0.00580315 -1.72669 0)
(0.00460218 -1.72736 0)
(0.002962 -1.72774 0)
(0.00109844 -1.72793 0)
(-0.000723732 -1.72793 0)
(-0.00258807 -1.72773 0)
(-0.00423215 -1.72734 0)
(-0.00543495 -1.72665 0)
(-0.00628932 -1.72477 0)
(0.00720336 -1.72128 0)
(0.00627868 -1.72305 0)
(0.00497241 -1.72369 0)
(0.00318571 -1.72406 0)
(0.00116166 -1.72424 0)
(-0.000816541 -1.72424 0)
(-0.00284123 -1.72404 0)
(-0.00463162 -1.72367 0)
(-0.00593953 -1.72301 0)
(-0.00685945 -1.72124 0)
(0.00772112 -1.71746 0)
(0.00673614 -1.71912 0)
(0.0053284 -1.71973 0)
(0.00339945 -1.72008 0)
(0.00122118 -1.72025 0)
(-0.00090674 -1.72025 0)
(-0.00308549 -1.72006 0)
(-0.00501784 -1.7197 0)
(-0.00642697 -1.71907 0)
(-0.00740728 -1.71741 0)
(0.00821784 -1.71334 0)
(0.00717738 -1.71489 0)
(0.00567164 -1.71547 0)
(0.00360417 -1.71581 0)
(0.00127734 -1.71597 0)
(-0.000994616 -1.71597 0)
(-0.00332174 -1.71579 0)
(-0.00539227 -1.71544 0)
(-0.00689912 -1.71484 0)
(-0.007935 -1.71329 0)
(0.00869524 -1.70894 0)
(0.00760381 -1.71038 0)
(0.00600326 -1.71094 0)
(0.00380062 -1.71126 0)
(0.00133045 -1.71142 0)
(-0.00108031 -1.71141 0)
(-0.00355057 -1.71124 0)
(-0.00575589 -1.7109 0)
(-0.00735724 -1.71033 0)
(-0.00844415 -1.70888 0)
(0.00915481 -1.70426 0)
(0.00801668 -1.7056 0)
(0.00632427 -1.70613 0)
(0.00398949 -1.70644 0)
(0.00138087 -1.7066 0)
(-0.00116384 -1.70659 0)
(-0.00377233 -1.70642 0)
(-0.00610938 -1.7061 0)
(-0.00780224 -1.70555 0)
(-0.00893588 -1.70419 0)
(0.00959809 -1.6993 0)
(0.00841726 -1.70056 0)
(0.00663575 -1.70107 0)
(0.00417156 -1.70137 0)
(0.00142904 -1.70152 0)
(-0.0012451 -1.70151 0)
(-0.00398726 -1.70135 0)
(-0.00645328 -1.70103 0)
(-0.00823488 -1.70051 0)
(-0.00941121 -1.69924 0)
(0.0100268 -1.69408 0)
(0.00880699 -1.69526 0)
(0.00693891 -1.69575 0)
(0.00434771 -1.69604 0)
(0.00147551 -1.69618 0)
(-0.00132393 -1.69618 0)
(-0.00419554 -1.69602 0)
(-0.00678814 -1.69572 0)
(-0.00865593 -1.69521 0)
(-0.00987117 -1.69402 0)
(0.0104428 -1.68861 0)
(0.00918756 -1.68971 0)
(0.00723518 -1.69019 0)
(0.00451898 -1.69047 0)
(0.0015209 -1.69061 0)
(-0.00140011 -1.6906 0)
(-0.00439738 -1.69045 0)
(-0.00711456 -1.69015 0)
(-0.00906627 -1.68967 0)
(-0.0103169 -1.68855 0)
(0.0108483 -1.68289 0)
(0.00956086 -1.68392 0)
(0.00752621 -1.68438 0)
(0.00468658 -1.68466 0)
(0.00156593 -1.68479 0)
(-0.00147344 -1.68479 0)
(-0.00459307 -1.68464 0)
(-0.00743329 -1.68435 0)
(-0.00946692 -1.68388 0)
(-0.0107497 -1.68284 0)
(0.0112458 -1.67693 0)
(0.00992912 -1.6779 0)
(0.00781388 -1.67834 0)
(0.00485186 -1.67861 0)
(0.00161141 -1.67875 0)
(-0.00154371 -1.67874 0)
(-0.00478299 -1.6786 0)
(-0.00774531 -1.67832 0)
(-0.00985923 -1.67786 0)
(-0.0111712 -1.67689 0)
(0.011638 -1.67074 0)
(0.0102947 -1.67164 0)
(0.00810028 -1.67208 0)
(0.00501639 -1.67234 0)
(0.00165818 -1.67247 0)
(-0.00161078 -1.67247 0)
(-0.00496774 -1.67233 0)
(-0.00805175 -1.67205 0)
(-0.0102447 -1.67161 0)
(-0.0115834 -1.6707 0)
(0.0120281 -1.66431 0)
(0.0106602 -1.66516 0)
(0.0083875 -1.66558 0)
(0.00518171 -1.66584 0)
(0.00170705 -1.66597 0)
(-0.0016746 -1.66597 0)
(-0.00514806 -1.66583 0)
(-0.00835397 -1.66556 0)
(-0.0106252 -1.66514 0)
(-0.0119887 -1.66428 0)
(0.0124186 -1.65766 0)
(0.0110275 -1.65846 0)
(0.00867663 -1.65886 0)
(0.00534845 -1.65912 0)
(0.00175832 -1.65925 0)
(-0.00173493 -1.65924 0)
(-0.00532402 -1.65911 0)
(-0.0086526 -1.65885 0)
(-0.0110025 -1.65844 0)
(-0.0123896 -1.65764 0)
(0.0128121 -1.6508 0)
(0.0113949 -1.65153 0)
(0.00896431 -1.65192 0)
(0.00551335 -1.65217 0)
(0.00181056 -1.6523 0)
(-0.00179052 -1.6523 0)
(-0.00549239 -1.65217 0)
(-0.00894412 -1.65191 0)
(-0.0113742 -1.65152 0)
(-0.0127893 -1.6508 0)
(0.0131909 -1.64374 0)
(0.0117455 -1.64438 0)
(0.009238 -1.64476 0)
(0.0056664 -1.64501 0)
(0.00185872 -1.64514 0)
(-0.00184047 -1.64514 0)
(-0.00564677 -1.64501 0)
(-0.00921855 -1.64475 0)
(-0.0117241 -1.64437 0)
(-0.0131632 -1.64373 0)
(0.0135347 -1.63619 0)
(0.0120834 -1.63694 0)
(0.00949969 -1.63737 0)
(0.00581082 -1.63765 0)
(0.00190185 -1.6378 0)
(-0.00189282 -1.6378 0)
(-0.00579998 -1.63765 0)
(-0.00948791 -1.63736 0)
(-0.0120717 -1.63691 0)
(-0.0135238 -1.63612 0)
(0.0140854 -1.62814 0)
(0.0124848 -1.62922 0)
(0.00978914 -1.62976 0)
(0.00598017 -1.63008 0)
(0.00195797 -1.63024 0)
(-0.00194958 -1.63024 0)
(-0.00596987 -1.63009 0)
(-0.00977717 -1.62976 0)
(-0.0124755 -1.62923 0)
(-0.0140923 -1.62814 0)
(0.0146419 -1.62046 0)
(0.012897 -1.62144 0)
(0.0100966 -1.62196 0)
(0.00616698 -1.62229 0)
(0.00202773 -1.62245 0)
(-0.00199751 -1.62245 0)
(-0.00613506 -1.62229 0)
(-0.0100634 -1.62197 0)
(-0.0128638 -1.62147 0)
(-0.0146137 -1.62052 0)
(0.01513 -1.61259 0)
(0.0132833 -1.61345 0)
(0.0103876 -1.61394 0)
(0.00633981 -1.61427 0)
(0.00209378 -1.61443 0)
(-0.00203635 -1.61443 0)
(-0.00628122 -1.61427 0)
(-0.0103293 -1.61396 0)
(-0.0132258 -1.61347 0)
(-0.0150769 -1.61263 0)
(0.0156344 -1.6044 0)
(0.0136835 -1.60521 0)
(0.0106851 -1.60571 0)
(0.00651253 -1.60604 0)
(0.00215779 -1.6062 0)
(-0.00207781 -1.60621 0)
(-0.00643213 -1.60605 0)
(-0.0106062 -1.60573 0)
(-0.0136069 -1.60524 0)
(-0.0155627 -1.60443 0)
(0.0161748 -1.59593 0)
(0.0141134 -1.59674 0)
(0.0110027 -1.59725 0)
(0.00669592 -1.59758 0)
(0.00222391 -1.59775 0)
(-0.0021255 -1.59776 0)
(-0.00659757 -1.59759 0)
(-0.0109065 -1.59727 0)
(-0.0140202 -1.59677 0)
(-0.0160866 -1.59597 0)
(0.0167506 -1.58721 0)
(0.0145732 -1.58802 0)
(0.0113415 -1.58854 0)
(0.00689089 -1.58889 0)
(0.00229248 -1.58906 0)
(-0.00217985 -1.58906 0)
(-0.0067786 -1.5889 0)
(-0.0112317 -1.58855 0)
(-0.0144666 -1.58804 0)
(-0.016649 -1.58724 0)
(0.0173657 -1.57821 0)
(0.015065 -1.57903 0)
(0.011703 -1.57957 0)
(0.00709788 -1.57993 0)
(0.00236355 -1.58011 0)
(-0.00224112 -1.58011 0)
(-0.00697597 -1.57994 0)
(-0.0115837 -1.57958 0)
(-0.0149491 -1.57904 0)
(-0.0172544 -1.57823 0)
(0.018026 -1.56892 0)
(0.0155938 -1.56974 0)
(0.0120903 -1.57031 0)
(0.00731854 -1.57069 0)
(0.00243758 -1.57088 0)
(-0.00230993 -1.57088 0)
(-0.00719149 -1.57069 0)
(-0.0119658 -1.57031 0)
(-0.0154726 -1.56975 0)
(-0.0179093 -1.56893 0)
(0.01874 -1.5593 0)
(0.0161661 -1.56015 0)
(0.0125081 -1.56074 0)
(0.00755547 -1.56115 0)
(0.00251541 -1.56135 0)
(-0.00238709 -1.56135 0)
(-0.00742778 -1.56115 0)
(-0.0123828 -1.56074 0)
(-0.016044 -1.56015 0)
(-0.0186219 -1.5593 0)
(0.0195176 -1.54933 0)
(0.0167902 -1.5502 0)
(0.0129622 -1.55084 0)
(0.00781201 -1.55127 0)
(0.0025982 -1.55148 0)
(-0.00247356 -1.55148 0)
(-0.00768798 -1.55127 0)
(-0.0128403 -1.55084 0)
(-0.0166713 -1.5502 0)
(-0.0194022 -1.54932 0)
(0.0203712 -1.53897 0)
(0.017476 -1.53988 0)
(0.0134596 -1.54056 0)
(0.0080922 -1.54103 0)
(0.00268738 -1.54126 0)
(-0.00257042 -1.54126 0)
(-0.00797579 -1.54103 0)
(-0.0133451 -1.54056 0)
(-0.0173641 -1.53988 0)
(-0.0202622 -1.53896 0)
(0.0213155 -1.52818 0)
(0.0182358 -1.52914 0)
(0.0140088 -1.52988 0)
(0.00840087 -1.53039 0)
(0.0027847 -1.53064 0)
(-0.0026789 -1.53064 0)
(-0.00829554 -1.53038 0)
(-0.013905 -1.52987 0)
(-0.0181342 -1.52913 0)
(-0.0212163 -1.52816 0)
(0.0223691 -1.5169 0)
(0.0190843 -1.51793 0)
(0.01462 -1.51874 0)
(0.0087438 -1.5193 0)
(0.00289225 -1.51958 0)
(-0.00280039 -1.51957 0)
(-0.0086523 -1.51929 0)
(-0.0145297 -1.51873 0)
(-0.0189957 -1.51792 0)
(-0.0222823 -1.51688 0)
(0.0235547 -1.50507 0)
(0.0200397 -1.50619 0)
(0.0153055 -1.50708 0)
(0.00912789 -1.50771 0)
(0.00301253 -1.50802 0)
(-0.00293654 -1.50802 0)
(-0.00905214 -1.5077 0)
(-0.0152306 -1.50707 0)
(-0.019966 -1.50618 0)
(-0.0234822 -1.50505 0)
(0.0249014 -1.49261 0)
(0.0211251 -1.49385 0)
(0.0160804 -1.49485 0)
(0.00956136 -1.49555 0)
(0.00314846 -1.49591 0)
(-0.00308928 -1.4959 0)
(-0.00950229 -1.49555 0)
(-0.0160218 -1.49483 0)
(-0.0210673 -1.49383 0)
(-0.0248442 -1.49259 0)
(0.0264477 -1.47942 0)
(0.0223703 -1.4808 0)
(0.0169637 -1.48195 0)
(0.0100543 -1.48276 0)
(0.00330354 -1.48317 0)
(-0.00326104 -1.48317 0)
(-0.0100117 -1.48275 0)
(-0.0169213 -1.48193 0)
(-0.0223281 -1.48079 0)
(-0.0264056 -1.4794 0)
(0.0282458 -1.46536 0)
(0.0238155 -1.46694 0)
(0.0179807 -1.46828 0)
(0.0106197 -1.46923 0)
(0.00348221 -1.46972 0)
(-0.00345511 -1.46972 0)
(-0.0105925 -1.46923 0)
(-0.0179531 -1.46826 0)
(-0.0237878 -1.46693 0)
(-0.0282177 -1.46534 0)
(0.0303724 -1.45025 0)
(0.0255204 -1.45211 0)
(0.0191687 -1.45371 0)
(0.0112776 -1.45486 0)
(0.00369111 -1.45545 0)
(-0.00367709 -1.45545 0)
(-0.0112633 -1.45486 0)
(-0.0191538 -1.45369 0)
(-0.025505 -1.45209 0)
(-0.0303563 -1.45023 0)
(0.0329469 -1.43384 0)
(0.0275812 -1.43609 0)
(0.0205908 -1.43806 0)
(0.0120636 -1.43949 0)
(0.00394223 -1.44022 0)
(-0.00393823 -1.44022 0)
(-0.0120592 -1.43949 0)
(-0.0205856 -1.43805 0)
(-0.0275751 -1.43608 0)
(-0.0329398 -1.43382 0)
(0.0361642 -1.41578 0)
(0.0301634 -1.4186 0)
(0.0223626 -1.4211 0)
(0.0130475 -1.42292 0)
(0.00425939 -1.42384 0)
(-0.00426194 -1.42384 0)
(-0.0130496 -1.42291 0)
(-0.0223637 -1.42109 0)
(-0.0301633 -1.41859 0)
(-0.0361628 -1.41576 0)
(0.0403381 -1.39561 0)
(0.0335465 -1.39927 0)
(0.0246881 -1.40248 0)
(0.0143573 -1.4048 0)
(0.00468656 -1.40597 0)
(-0.00469228 -1.40597 0)
(-0.0143624 -1.40479 0)
(-0.024692 -1.40247 0)
(-0.0335489 -1.39927 0)
(-0.0403391 -1.3956 0)
(0.0459153 -1.37284 0)
(0.0381335 -1.37759 0)
(0.0278614 -1.3817 0)
(0.0161774 -1.38461 0)
(0.00528645 -1.38606 0)
(-0.0052924 -1.38606 0)
(-0.0161826 -1.3846 0)
(-0.0278652 -1.3817 0)
(-0.0381355 -1.37759 0)
(-0.0459156 -1.37283 0)
(0.0533456 -1.34688 0)
(0.044278 -1.35287 0)
(0.0320919 -1.35796 0)
(0.0186242 -1.3615 0)
(0.00609722 -1.36325 0)
(-0.00610118 -1.36325 0)
(-0.0186273 -1.3615 0)
(-0.0320933 -1.35797 0)
(-0.0442772 -1.35288 0)
(-0.0533426 -1.34688 0)
(0.0623447 -1.31725 0)
(0.0514744 -1.32429 0)
(0.0367899 -1.33046 0)
(0.0213534 -1.3347 0)
(0.00701721 -1.33676 0)
(-0.00701776 -1.33676 0)
(-0.0213532 -1.33471 0)
(-0.0367879 -1.33047 0)
(-0.0514698 -1.3243 0)
(-0.0623374 -1.31727 0)
(0.0687246 -1.28211 0)
(0.0560625 -1.29092 0)
(0.0394477 -1.29935 0)
(0.0233282 -1.30458 0)
(0.00780493 -1.30671 0)
(-0.00780132 -1.30672 0)
(-0.0233241 -1.30459 0)
(-0.0394426 -1.29936 0)
(-0.0560558 -1.29094 0)
(-0.0687162 -1.28213 0)
(0.0618239 -1.22877 0)
(0.0496956 -1.25174 0)
(0.036761 -1.26762 0)
(0.0235549 -1.27322 0)
(0.00828581 -1.2737 0)
(-0.00827857 -1.2737 0)
(-0.0235477 -1.27322 0)
(-0.0367544 -1.26763 0)
(-0.049691 -1.25176 0)
(-0.0618212 -1.2288 0)
(0.0377647 -1.11384 0)
(0.0204683 -1.23269 0)
(0.0287658 -1.25234 0)
(0.01746 -1.24623 0)
(0.00691848 -1.24209 0)
(-0.00691084 -1.24209 0)
(-0.0174534 -1.24623 0)
(-0.028759 -1.25235 0)
(-0.0204691 -1.2327 0)
(-0.0377646 -1.11386 0)
(0.683131 -0.181987 0)
(0.800086 -0.165036 0)
(0.90246 -0.142421 0)
(0.985833 -0.114004 0)
(1.04592 -0.0803772 0)
(1.08013 -0.0429718 0)
(1.08727 -0.00456173 0)
(1.06688 0.0299457 0)
(1.02708 0.0565746 0)
(0.974909 0.0740769 0)
(0.915699 0.0834213 0)
(0.853627 0.0865643 0)
(0.791685 0.0855243 0)
(0.731759 0.0819607 0)
(0.674869 0.0771117 0)
(0.621444 0.0718297 0)
(0.571538 0.0666429 0)
(0.524985 0.0618397 0)
(0.481496 0.0575574 0)
(0.440729 0.0538414 0)
(0.402324 0.0506891 0)
(0.365927 0.048075 0)
(0.331203 0.0459616 0)
(0.297846 0.0443036 0)
(0.265578 0.0430472 0)
(0.234161 0.0421365 0)
(0.203397 0.0415126 0)
(0.173129 0.0411193 0)
(0.143253 0.0408822 0)
(0.113726 0.0407024 0)
(0.0845676 0.0404606 0)
(0.0558381 0.0399948 0)
(0.0281561 0.0389962 0)
(0.00232511 0.0372705 0)
(-0.0225677 0.0340712 0)
(-0.043146 0.024562 0)
(-0.0572369 0.00913781 0)
(-0.0622876 -0.00429445 0)
(-0.0566363 -0.0364418 0)
(-0.0252439 -0.0674142 0)
(0.507145 -0.315303 0)
(0.592046 -0.280693 0)
(0.664938 -0.235299 0)
(0.72256 -0.179228 0)
(0.76238 -0.114899 0)
(0.783513 -0.0472057 0)
(0.787578 0.016913 0)
(0.778695 0.069764 0)
(0.760102 0.107928 0)
(0.734917 0.13222 0)
(0.705369 0.14532 0)
(0.673029 0.150241 0)
(0.639047 0.149529 0)
(0.604323 0.14518 0)
(0.569552 0.138746 0)
(0.53523 0.13135 0)
(0.501692 0.123754 0)
(0.469143 0.116432 0)
(0.437684 0.109662 0)
(0.407336 0.103589 0)
(0.378062 0.0982741 0)
(0.34979 0.0937209 0)
(0.322429 0.0898982 0)
(0.295883 0.0867512 0)
(0.270055 0.0842059 0)
(0.24486 0.0821717 0)
(0.22023 0.080545 0)
(0.196122 0.0792044 0)
(0.172534 0.0779978 0)
(0.149502 0.0767307 0)
(0.127119 0.0751463 0)
(0.105535 0.0728885 0)
(0.0850008 0.06948 0)