/*--------------------------------*- C++ -*----------------------------------*\
  =========                 |
  \\      /  F ield         | OpenFOAM: The Open Source CFD Toolbox
   \\    /   O peration     | Website:  https://openfoam.org
    \\  /    A nd           | Version:  8
     \\/     M anipulation  |
\*---------------------------------------------------------------------------*/
FoamFile
{
    version     2.0;
    format      ascii;
    class       surfaceScalarField;
    location    "7.3";
    object      alphaPhi0.water;
}
// * * * * * * * * * * * * * * * * * * * * * * * * * * * * * * * * * * * * * //

dimensions      [0 3 -1 0 0 0 0];

internalField   nonuniform List<scalar> 
18095
(
2.00616e-08
-1.72064e-07
1.52002e-07
2.33002e-08
-1.97338e-07
1.94099e-07
2.06641e-08
-2.06176e-07
2.08812e-07
1.27702e-08
-2.11782e-07
2.19676e-07
1.53049e-09
-2.13411e-07
2.24651e-07
-1.03574e-08
-2.13225e-07
2.25113e-07
-1.98209e-08
-2.10284e-07
2.19748e-07
-2.3218e-08
-2.06017e-07
2.09414e-07
-2.00563e-08
-1.97522e-07
1.9436e-07
-1.72181e-07
1.52125e-07
1.55399e-08
-1.87604e-07
1.6228e-08
-1.98026e-07
1.18394e-08
-2.01788e-07
5.37804e-09
-2.05321e-07
-1.31479e-09
-2.06719e-07
-7.09165e-09
-2.07448e-07
-1.22168e-08
-2.05159e-07
-1.61163e-08
-2.02117e-07
-1.54965e-08
-1.98141e-07
-1.87677e-07
6.79714e-09
-1.94401e-07
8.46633e-09
-1.99695e-07
7.55136e-09
-2.00873e-07
4.72768e-09
-2.02497e-07
8.5386e-10
-2.02845e-07
-3.79116e-09
-2.02803e-07
-7.1883e-09
-2.01762e-07
-8.37905e-09
-2.00927e-07
-6.77128e-09
-1.99749e-07
-1.94449e-07
4.52712e-09
-1.98928e-07
4.7573e-09
-1.99925e-07
3.71714e-09
-1.99832e-07
1.56471e-09
-2.00345e-07
-4.96126e-10
-2.00784e-07
-2.32563e-09
-2.00974e-07
-3.74153e-09
-2.00346e-07
-4.72007e-09
-1.99948e-07
-4.48838e-09
-1.99981e-07
-1.98937e-07
1.07196e-09
1.14678e-09
1.31434e-09
9.69611e-10
1.8585e-10
-7.8802e-10
-1.13413e-09
-1.08216e-09
-1.06299e-09
-2.90911e-08
-1.95849e-07
2.2494e-07
-3.18442e-08
-1.992e-07
2.01953e-07
-2.64862e-08
-2.00904e-07
1.95546e-07
-1.57148e-08
-2.01658e-07
1.90887e-07
-6.29695e-10
-2.0237e-07
1.87285e-07
1.45841e-08
-2.0233e-07
1.87117e-07
2.6028e-08
-2.01882e-07
1.90438e-07
3.16437e-08
-2.0099e-07
1.95374e-07
2.89263e-08
-1.99105e-07
2.01823e-07
-1.95712e-07
2.24638e-07
-9.60245e-09
-1.86246e-07
-1.55403e-08
-1.93262e-07
-1.27056e-08
-2.03739e-07
-5.90442e-09
-2.08459e-07
-1.34188e-10
-2.0814e-07
5.56099e-09
-2.08026e-07
1.25488e-08
-2.0887e-07
1.53908e-08
-2.03832e-07
9.50028e-09
-1.93215e-07
-1.86212e-07
-9.74308e-09
-1.76503e-07
-7.68594e-09
-1.95319e-07
-6.52372e-09
-2.04901e-07
-5.06515e-09
-2.09918e-07
-2.44006e-10
-2.12961e-07
4.65661e-09
-2.12926e-07
6.23362e-09
-2.10447e-07
7.49643e-09
-2.05094e-07
9.69755e-09
-1.95416e-07
-1.76514e-07
-6.24406e-09
-1.70259e-07
-8.10065e-09
-1.93463e-07
-7.69888e-09
-2.05303e-07
-2.34771e-09
-2.15269e-07
1.29567e-09
-2.16605e-07
4.56278e-09
-2.16193e-07
8.2782e-09
-2.14162e-07
8.14401e-09
-2.0496e-07
6.19949e-09
-1.93472e-07
-1.70315e-07
-1.82567e-08
-1.76201e-08
-1.41105e-08
-9.70362e-09
-1.65745e-09
7.2624e-09
1.2848e-08
1.73018e-08
1.81901e-08
3.5346e-08
-1.57829e-07
1.22483e-07
3.69693e-08
-1.97774e-07
1.9615e-07
2.75773e-08
-2.10887e-07
2.20279e-07
1.01485e-08
-2.16303e-07
2.33731e-07
-8.72493e-09
-2.18374e-07
2.37247e-07
-2.62515e-08
-2.18089e-07
2.35616e-07
-3.83107e-08
-2.1651e-07
2.28569e-07
-4.41893e-08
-2.10278e-07
2.16156e-07
-3.90679e-08
-1.97373e-07
1.92251e-07
-1.56584e-07
1.17516e-07
1.73892e-08
-1.75218e-07
2.09895e-08
-2.01374e-07
1.82641e-08
-2.08162e-07
1.20244e-08
-2.10063e-07
2.362e-09
-2.08711e-07
-7.9868e-09
-2.07741e-07
-1.64509e-08
-2.08046e-07
-2.03355e-08
-2.06393e-07
-1.75142e-08
-2.00194e-07
-1.74098e-07
7.51573e-09
-1.82734e-07
8.32799e-09
-2.02186e-07
6.81564e-09
-2.06649e-07
8.76624e-10
-2.04124e-07
-3.16258e-09
-2.04672e-07
-6.22827e-09
-2.04675e-07
-9.28472e-09
-2.04989e-07
-9.60667e-09
-2.06071e-07
-8.227e-09
-2.01574e-07
-1.82325e-07
7.89804e-09
-1.90632e-07
5.53943e-09
-1.99828e-07
6.50454e-09
-2.07615e-07
1.99243e-09
-1.99612e-07
4.14754e-10
-2.03095e-07
-1.32489e-09
-2.02935e-07
-6.74303e-09
-1.99571e-07
-5.79921e-09
-2.07015e-07
-7.85157e-09
-1.99521e-07
-1.90177e-07
3.43074e-08
3.64328e-08
2.43643e-08
1.56394e-08
-1.70123e-10
-1.59888e-08
-2.51218e-08
-3.67629e-08
-3.44615e-08
2.09966e-07
-2.78264e-08
-1.8214e-07
2.34176e-07
-2.42108e-08
2.46271e-07
-1.20947e-08
2.42742e-07
3.52427e-09
2.23635e-07
1.91065e-08
1.9531e-07
2.83256e-08
1.69379e-07
2.59279e-08
1.43665e-07
2.57108e-08
1.08342e-07
3.42592e-08
2.89044e-08
7.78259e-08
2.33225e-07
-4.35861e-08
-2.17466e-07
2.44167e-07
-3.51527e-08
2.469e-07
-1.48272e-08
2.50675e-07
-2.52736e-10
2.52165e-07
1.76161e-08
2.43984e-07
3.65046e-08
2.24527e-07
4.53827e-08
1.94554e-07
5.56818e-08
1.41919e-07
7.1535e-08
7.17452e-08
9.82997e-08
2.51031e-07
-5.41437e-08
-2.40475e-07
2.49182e-07
-3.35953e-08
2.31642e-07
2.7222e-09
2.19479e-07
1.19081e-08
2.17591e-07
1.95024e-08
2.03513e-07
5.0581e-08
1.80062e-07
6.88317e-08
1.41692e-07
7.42237e-08
1.28424e-07
8.27901e-08
8.73036e-08
1.127e-07
2.00977e-07
-2.27432e-08
-2.32372e-07
1.53394e-07
4.58711e-09
1.30615e-07
2.51043e-08
1.25769e-07
2.22922e-08
1.15329e-07
2.54183e-08
1.14807e-07
3.9206e-08
1.27404e-07
4.83922e-08
1.46908e-07
5.45189e-08
1.65013e-07
6.45186e-08
7.35956e-08
1.78562e-07
9.80937e-08
6.68423e-09
-1.32141e-07
1.00419e-07
1.83357e-09
1.20572e-07
4.63852e-09
1.42886e-07
8.87443e-09
1.53373e-07
1.31786e-08
1.70708e-07
1.95942e-08
1.88618e-07
2.36832e-08
2.1781e-07
2.47276e-08
2.64707e-07
2.90883e-08
5.38101e-08
2.96704e-07
1.15278e-07
-2.17969e-08
-8.68652e-08
1.50508e-07
-3.34142e-08
1.74537e-07
-1.81893e-08
1.85781e-07
-1.40001e-09
1.77432e-07
9.07863e-09
2.04435e-07
1.34305e-09
2.26712e-07
8.51542e-09
2.51505e-07
2.71589e-09
2.57424e-07
2.60153e-08
7.28575e-08
2.04119e-07
3.95696e-08
-1.52187e-08
-4.60275e-08
2.31076e-08
-1.34109e-08
1.53969e-08
-1.26878e-08
3.78257e-08
-2.60156e-08
4.94118e-08
-4.63684e-09
6.79421e-08
-2.14501e-08
9.14668e-08
-1.51229e-08
8.69263e-08
7.20244e-09
6.14654e-08
4.82839e-08
9.06411e-08
4.36039e-08
-2.91727e-08
-1.74107e-08
3.11575e-08
-2.93414e-08
-1.34495e-08
-2.11003e-08
-2.75412e-08
-1.51688e-08
-3.88715e-08
1.04608e-09
-2.1711e-08
3.87295e-09
-2.69506e-08
-1.18455e-09
-1.1765e-08
-2.03449e-08
2.63135e-08
-3.24623e-08
6.03533e-08
9.01276e-08
-3.20228e-08
-5.43516e-08
-2.54034e-08
5.89033e-08
-7.04991e-08
-1.54987e-08
-7.01728e-08
-2.7865e-08
-7.60697e-08
-3.29725e-08
-6.93082e-08
-2.84701e-08
-8.28067e-08
-1.3444e-08
-9.56956e-08
2.07931e-08
-1.11172e-07
4.17409e-08
-1.0298e-07
5.21124e-08
7.61338e-08
-9.00439e-08
-1.51217e-07
-1.99338e-08
1.45751e-07
-1.49522e-07
-1.71919e-08
-1.54563e-07
-2.28214e-08
-1.59636e-07
-2.7897e-08
-1.64225e-07
-2.38735e-08
-1.90112e-07
1.25182e-08
-1.9232e-07
5.75526e-08
-2.17655e-07
6.70273e-08
-2.61773e-07
7.04875e-08
6.67921e-08
-2.5237e-07
-2.2577e-07
-2.75423e-08
2.33382e-07
-2.3312e-07
-9.80774e-09
-2.53664e-07
-1.94917e-09
-2.71672e-07
-8.62297e-09
-2.53177e-07
-1.28027e-08
-2.51401e-07
2.66779e-08
-2.6043e-07
6.36804e-08
-2.92478e-07
7.11826e-08
-3.20083e-07
7.26448e-08
7.22815e-08
-3.25555e-07
-2.32474e-07
-4.55963e-08
2.53139e-07
-1.8633e-07
-1.16907e-08
-1.91716e-07
3.47902e-09
-2.08635e-07
8.22229e-09
-2.41619e-07
1.49967e-08
-2.46899e-07
4.5648e-08
-2.55236e-07
7.01995e-08
-2.88877e-07
7.34845e-08
-3.23632e-07
7.87076e-08
7.51831e-08
-3.26535e-07
-2.45478e-07
-6.10704e-08
3.09203e-07
-2.2634e-07
-3.07862e-08
-2.10798e-07
-1.21373e-08
-2.13186e-07
1.05465e-08
-2.29071e-07
3.08086e-08
-2.32097e-07
4.8626e-08
-2.27147e-07
6.49624e-08
-2.53452e-07
7.53892e-08
-2.89157e-07
8.27519e-08
7.37109e-08
-2.87691e-07
-3.29178e-07
-5.35253e-08
3.21956e-07
-3.21814e-07
-3.79616e-08
-2.76386e-07
-2.33876e-08
-2.35948e-07
-5.96003e-09
-2.1984e-07
1.46177e-08
-1.99753e-07
2.84844e-08
-1.66075e-07
3.11875e-08
-1.58882e-07
6.03884e-08
-1.81202e-07
7.61338e-08
7.16855e-08
-1.79185e-07
-2.55368e-07
-5.24924e-08
2.46975e-07
-2.56118e-07
-3.7233e-08
-2.53142e-07
-2.63827e-08
-2.39815e-07
-1.92571e-08
-2.12039e-07
-7.28603e-09
-1.62971e-07
1.0139e-09
-1.23046e-07
1.37959e-08
-1.29192e-07
4.86574e-08
-1.18579e-07
6.05347e-08
5.74257e-08
-1.04316e-07
-2.2306e-07
-4.5344e-08
2.12946e-07
-2.18064e-07
-4.2251e-08
-2.10888e-07
-3.35685e-08
-2.01414e-07
-2.87313e-08
-1.77956e-07
-2.55065e-08
-1.55529e-07
-1.86079e-08
-1.44054e-07
-2.9401e-09
-1.12704e-07
1.72127e-08
-8.34798e-08
3.13036e-08
4.1245e-08
-6.73103e-08
-1.72946e-07
-4.82021e-08
1.75801e-07
-1.67906e-07
-4.73134e-08
-1.58914e-07
-4.25489e-08
-1.50106e-07
-3.75398e-08
-1.4336e-07
-3.22525e-08
-1.37513e-07
-2.39894e-08
-1.25641e-07
-1.41727e-08
-1.02678e-07
-6.44936e-09
-8.24586e-08
9.88631e-09
2.52354e-08
-6.64558e-08
-1.2957e-07
-4.06075e-08
1.21974e-07
-1.26328e-07
-5.05555e-08
-1.15538e-07
-5.3339e-08
-1.02894e-07
-5.01843e-08
-9.33418e-08
-4.18046e-08
-8.65547e-08
-3.07766e-08
-8.08974e-08
-1.98302e-08
-7.66868e-08
-1.0623e-08
-6.7574e-08
8.1433e-10
1.34861e-08
-5.58254e-08
-6.48216e-08
-3.46717e-08
5.71496e-08
-6.01877e-08
-5.51901e-08
-5.09934e-08
-6.25337e-08
-4.12509e-08
-5.9927e-08
-3.35467e-08
-4.95089e-08
-2.90185e-08
-3.53047e-08
-2.84708e-08
-2.03773e-08
-3.15851e-08
-7.50791e-09
-3.43929e-08
3.59243e-09
1.3096e-08
-3.40039e-08
-2.16037e-08
-4.77825e-08
3.29074e-08
-6.9995e-09
-6.97953e-08
3.95175e-09
-7.34857e-08
9.20627e-09
-6.51816e-08
1.06275e-08
-5.09299e-08
9.51749e-09
-3.4194e-08
5.83864e-09
-1.6698e-08
3.19437e-10
-1.98135e-09
-5.79455e-09
9.69032e-09
1.79106e-08
-1.06471e-08
-9.57537e-10
-7.00113e-08
2.31889e-08
1.31335e-08
-8.38863e-08
1.76285e-08
-7.76374e-08
1.77536e-08
-6.41278e-08
1.50831e-08
-4.66208e-08
9.82409e-09
-2.6777e-08
8.19514e-10
-7.07175e-09
-8.97714e-09
7.61785e-09
-1.68004e-08
1.75009e-08
2.21371e-08
-2.10159e-08
-1.68501e-08
-8.0211e-08
2.70541e-08
-2.04875e-08
-7.49344e-08
-3.47778e-08
-5.8516e-08
-4.96322e-08
-4.55161e-08
-5.86049e-08
-3.37889e-08
-6.36961e-08
-2.17042e-08
-6.29158e-08
-7.89458e-09
-6.1112e-08
5.08118e-09
-5.66158e-08
9.62521e-09
1.06922e-08
-4.62888e-08
-1.00087e-07
-6.14594e-08
8.92563e-08
-1.21832e-07
-5.029e-08
-1.40972e-07
-3.93843e-08
-1.53808e-07
-3.26876e-08
-1.60908e-07
-2.6697e-08
-1.56976e-07
-2.56541e-08
-1.40741e-07
-2.42114e-08
-1.29881e-07
-1.57374e-08
-1.11593e-07
-1.2652e-08
-8.88716e-09
-9.20147e-08
-1.59755e-07
-5.03655e-08
1.57879e-07
-1.67689e-07
-4.2366e-08
-1.68993e-07
-3.80873e-08
-1.65896e-07
-3.57928e-08
-1.60862e-07
-3.41915e-08
-1.6216e-07
-3.68444e-08
-1.50392e-07
-3.59846e-08
-1.33843e-07
-3.22881e-08
-1.18479e-07
-2.80143e-08
-1.86731e-08
-1.08695e-07
-1.99111e-07
-5.06048e-08
2.08449e-07
-1.93474e-07
-4.80127e-08
-1.80895e-07
-5.06764e-08
-1.66812e-07
-5.02109e-08
-1.68279e-07
-4.65609e-08
-1.62619e-07
-4.25149e-08
-1.5717e-07
-4.14421e-08
-1.48946e-07
-4.05177e-08
-1.41026e-07
-3.59357e-08
-2.26863e-08
-1.36587e-07
-2.27912e-07
-5.2639e-08
2.29954e-07
-2.08709e-07
-5.77387e-08
-1.97138e-07
-6.23302e-08
-1.97654e-07
-6.4696e-08
-1.90616e-07
-5.97715e-08
-1.82339e-07
-5.0803e-08
-1.78035e-07
-4.57568e-08
-1.73374e-07
-4.51872e-08
-1.68158e-07
-4.11155e-08
-2.85117e-08
-1.61666e-07
-2.32091e-07
-5.66612e-08
2.36082e-07
-2.2707e-07
-6.27946e-08
-2.23813e-07
-6.56036e-08
-2.22263e-07
-6.62485e-08
-2.17366e-07
-6.47656e-08
-2.0739e-07
-6.07854e-08
-1.95888e-07
-5.72682e-08
-1.8554e-07
-5.55428e-08
-1.75713e-07
-5.05023e-08
-3.76921e-08
-1.66534e-07
-2.40434e-07
-5.90646e-08
2.42775e-07
-2.38453e-07
-6.47949e-08
-2.35989e-07
-6.8067e-08
-2.32994e-07
-6.92535e-08
-2.28462e-07
-6.93046e-08
-2.21583e-07
-6.74296e-08
-2.14066e-07
-6.48204e-08
-2.05547e-07
-6.41024e-08
-1.94278e-07
-6.17993e-08
-5.21776e-08
-1.7982e-07
-2.39958e-07
-6.47313e-08
2.45599e-07
-2.36541e-07
-6.82479e-08
-2.32675e-07
-7.19489e-08
-2.30915e-07
-7.10131e-08
-2.28775e-07
-7.13617e-08
-2.24955e-07
-7.12848e-08
-2.19297e-07
-7.05135e-08
-2.12632e-07
-7.08192e-08
-2.03928e-07
-7.05347e-08
-6.57829e-08
-1.90356e-07
-2.23037e-07
-7.81451e-08
2.36437e-07
-2.11716e-07
-7.96034e-08
-2.04422e-07
-7.92764e-08
-2.02799e-07
-7.26437e-08
-2.03837e-07
-7.02935e-08
-2.05327e-07
-6.97637e-08
-2.07639e-07
-6.8237e-08
-2.09789e-07
-6.88481e-08
-2.08262e-07
-7.209e-08
-7.19511e-08
-2.02125e-07
-1.8616e-07
-8.248e-08
1.90487e-07
-1.77969e-07
-8.78018e-08
-1.66863e-07
-8.9299e-08
-1.62461e-07
-7.52931e-08
-1.5702e-07
-7.55e-08
-1.5424e-07
-7.25545e-08
-1.58679e-07
-6.37748e-08
-1.67842e-07
-5.95985e-08
-1.79633e-07
-6.05679e-08
-6.20269e-08
-1.89587e-07
-7.97986e-08
-4.59545e-08
5.01309e-08
-9.45003e-08
-7.34715e-08
-1.07405e-07
-7.53339e-08
-1.07925e-07
-7.48321e-08
-1.09227e-07
-7.42882e-08
-1.07886e-07
-7.42269e-08
-9.7462e-08
-7.14995e-08
-9.86558e-08
-5.79936e-08
-1.15578e-07
-4.35751e-08
-4.61325e-08
-1.31932e-07
1.48807e-07
1.36892e-08
-1.85832e-07
7.7387e-08
1.81776e-08
1.84436e-08
-1.41638e-08
-7.30521e-09
-4.572e-08
-1.98125e-08
-6.27775e-08
-1.64254e-08
-7.77737e-08
-2.80216e-08
-6.13401e-08
-3.51921e-08
-4.76428e-08
-3.20255e-08
-4.47747e-08
-4.81133e-08
-3.03795e-08
2.51251e-07
4.53184e-08
-2.87344e-07
2.12868e-07
5.39753e-08
1.84956e-07
4.29465e-08
1.45946e-07
1.56502e-08
1.17838e-07
-3.2051e-08
1.00778e-07
-5.86212e-08
8.48121e-08
-5.2624e-08
9.47185e-08
-6.04356e-08
9.16562e-08
-4.44023e-08
-2.14998e-08
7.30554e-08
2.9073e-07
4.94388e-08
-3.89771e-07
2.85577e-07
5.838e-08
2.69913e-07
5.81476e-08
2.30327e-07
5.50156e-08
2.16902e-07
2.75403e-08
1.916e-07
-1.36515e-08
1.75232e-07
-3.64377e-08
1.63617e-07
-4.93679e-08
1.51076e-07
-4.42056e-08
-1.63576e-08
1.34671e-07
2.82565e-07
3.21396e-08
-3.24025e-07
2.88621e-07
5.18612e-08
2.91872e-07
5.46782e-08
2.94645e-07
5.20583e-08
2.81263e-07
4.077e-08
3.08887e-07
3.00531e-08
2.68774e-07
2.50379e-08
2.11335e-07
6.79969e-09
1.78936e-07
-1.32028e-08
-2.13829e-08
1.83742e-07
2.92715e-07
4.89945e-09
-2.65604e-07
2.48892e-07
3.13623e-08
2.57116e-07
4.61107e-08
2.56413e-07
5.26097e-08
2.48085e-07
4.89796e-08
2.3818e-07
3.98717e-08
2.2937e-07
3.37586e-08
2.71906e-07
2.4625e-08
2.74605e-07
-3.8098e-09
-2.45257e-08
2.77919e-07
3.23927e-07
-5.2657e-09
-3.13968e-07
2.6014e-07
1.41185e-08
2.61424e-07
4.43029e-08
2.56277e-07
5.76323e-08
2.52022e-07
5.31479e-08
2.54674e-07
3.71303e-08
2.66054e-07
2.22903e-08
2.88962e-07
1.62718e-09
3.62177e-07
-2.36788e-08
-3.78335e-08
4.25144e-07
3.59899e-07
6.81989e-09
-3.72061e-07
3.50645e-07
1.54799e-08
3.53318e-07
3.3792e-08
3.56851e-07
4.86282e-08
3.39889e-07
4.82201e-08
3.49744e-07
2.71887e-08
4.32691e-07
6.94111e-09
4.86049e-07
-1.55689e-08
4.92859e-07
-3.01444e-08
-3.6226e-08
4.913e-07
3.14243e-07
-9.54426e-10
-2.7552e-07
3.22317e-07
7.10069e-09
3.34239e-07
1.96825e-08
3.26942e-07
4.21584e-08
3.61352e-07
2.76003e-08
4.08257e-07
-4.39246e-09
4.32661e-07
-1.39806e-08
4.289e-07
-1.20864e-08
4.171e-07
-1.80709e-08
-3.16558e-08
4.12559e-07
7.79015e-08
-3.19127e-08
-4.87271e-08
1.18661e-07
-3.58244e-08
1.49531e-07
-1.33332e-08
1.97186e-07
-7.31154e-09
2.8993e-07
-2.26052e-08
3.34332e-07
-4.54384e-08
3.03537e-07
-2.41926e-08
3.09624e-07
-3.11412e-09
3.4233e-07
-9.3821e-09
-2.71485e-08
3.58081e-07
8.9635e-08
-7.31462e-08
-5.34566e-08
1.19201e-07
-6.68308e-08
1.63403e-07
-5.90353e-08
2.15774e-07
-6.53024e-08
2.20044e-07
-8.18498e-08
2.14617e-07
-8.87041e-08
2.57642e-07
-6.83541e-08
2.7872e-07
-2.49498e-08
2.79859e-07
-1.114e-08
-1.04478e-08
3.12604e-07
1.25308e-07
-9.95061e-08
-9.89475e-08
1.60514e-07
-1.02037e-07
2.03476e-07
-1.01996e-07
2.39685e-07
-1.01512e-07
2.6152e-07
-1.03685e-07
2.76318e-07
-1.03501e-07
2.40607e-07
-9.45772e-08
2.40797e-07
-6.16566e-08
2.49373e-07
-2.04695e-08
-6.59411e-09
2.44154e-07
1.58661e-07
-1.2913e-07
-1.29037e-07
1.89194e-07
-1.32569e-07
2.1789e-07
-1.30693e-07
2.43291e-07
-1.26913e-07
2.64222e-07
-1.24616e-07
2.81009e-07
-1.20288e-07
2.9406e-07
-1.07628e-07
2.99284e-07
-7.37472e-08
2.26057e-07
-3.00775e-08
-1.41222e-08
2.3178e-07
2.51985e-07
-1.62699e-07
-2.18415e-07
2.78654e-07
-1.59238e-07
2.98482e-07
-1.50535e-07
3.12198e-07
-1.40631e-07
3.21108e-07
-1.33527e-07
3.29149e-07
-1.28307e-07
3.4004e-07
-1.1852e-07
3.57271e-07
-9.09793e-08
3.74671e-07
-5.01533e-08
-2.28964e-08
3.81261e-07
3.35586e-07
-1.88808e-07
-3.09466e-07
3.55294e-07
-1.78942e-07
3.67853e-07
-1.63093e-07
3.74727e-07
-1.47508e-07
3.75718e-07
-1.34519e-07
3.71409e-07
-1.23982e-07
3.64592e-07
-1.11705e-07
3.60346e-07
-8.6734e-08
3.49905e-07
-5.17286e-08
-2.2796e-08
3.33444e-07
3.40862e-07
-2.09005e-07
-3.20642e-07
3.62289e-07
-2.00362e-07
3.78916e-07
-1.79719e-07
3.91292e-07
-1.59881e-07
4.03507e-07
-1.46731e-07
4.10812e-07
-1.31288e-07
4.06218e-07
-1.0711e-07
3.8946e-07
-6.99784e-08
3.34091e-07
-2.88177e-08
-2.25955e-09
3.16238e-07
3.16424e-07
-2.17419e-07
-3.0788e-07
3.34303e-07
-2.18321e-07
3.58207e-07
-2.03646e-07
3.80084e-07
-1.81762e-07
4.00045e-07
-1.66697e-07
4.13118e-07
-1.44364e-07
4.09713e-07
-1.03705e-07
3.80882e-07
-5.39671e-08
3.49116e-07
-1.07794e-08
1.4846e-08
3.3623e-07
3.33732e-07
-2.05249e-07
-3.4285e-07
3.36005e-07
-2.20371e-07
3.52791e-07
-2.20511e-07
3.75077e-07
-2.04063e-07
3.90882e-07
-1.82506e-07
4.03665e-07
-1.57152e-07
4.08976e-07
-1.0902e-07
3.74984e-07
-4.76123e-08
3.6314e-07
2.03531e-09
2.70558e-08
3.5348e-07
4.64904e-07
-9.48549e-08
-4.20508e-07
4.29801e-07
-1.66704e-07
4.12593e-07
-2.02857e-07
4.09666e-07
-2.01149e-07
4.06686e-07
-1.79527e-07
4.05703e-07
-1.56172e-07
4.07955e-07
-1.11277e-07
3.83311e-07
-4.44187e-08
3.77884e-07
9.20552e-09
3.54794e-08
3.83718e-07
4.95563e-07
-5.2488e-08
-3.51894e-07
5.83986e-07
-1.05409e-07
5.40188e-07
-1.5643e-07
5.00476e-07
-1.60958e-07
4.59441e-07
-1.38441e-07
4.24154e-07
-1.20879e-07
4.09139e-07
-9.62666e-08
3.9486e-07
-4.57269e-08
3.88247e-07
1.57104e-08
4.69182e-08
3.87228e-07
4.99779e-07
-3.35707e-08
-4.06218e-07
6.19769e-07
-9.16274e-08
5.91911e-07
-1.26754e-07
5.54566e-07
-1.23073e-07
4.93773e-07
-7.76921e-08
4.31714e-07
-5.7146e-08
3.93211e-07
-5.77621e-08
3.86244e-07
-3.86559e-08
3.78084e-07
1.47582e-08
5.69291e-08
3.46684e-07
4.38032e-07
-1.5318e-08
-3.03577e-07
4.99855e-07
-9.81595e-08
5.03144e-07
-1.24112e-07
4.54768e-07
-1.00205e-07
4.00602e-07
-1.3614e-08
3.87911e-07
-6.42847e-09
3.56025e-07
-2.57721e-08
3.41124e-07
-2.37116e-08
3.36593e-07
1.43453e-08
5.87573e-08
3.08668e-07
2.14605e-07
3.71234e-09
-1.12545e-07
2.87123e-07
-1.16766e-07
3.30426e-07
-1.56332e-07
2.84184e-07
-9.35246e-08
2.60851e-07
2.156e-08
2.7598e-07
1.26019e-08
2.67305e-07
-1.68493e-08
2.59408e-07
-1.55372e-08
2.34665e-07
1.47872e-08
5.02819e-08
2.42575e-07
1.04572e-07
4.87023e-09
-2.24852e-08
1.92183e-07
-6.53019e-08
2.08268e-07
-1.60154e-07
1.09395e-07
-2.23914e-08
1.09014e-07
3.50415e-08
1.71659e-07
-1.52495e-08
1.91808e-07
-3.69469e-08
2.01347e-07
-2.4672e-08
1.8639e-07
1.32537e-08
3.85319e-08
1.97993e-07
4.19447e-08
-1.37665e-08
-2.36958e-08
1.28742e-07
-1.80731e-08
1.25623e-07
-3.25622e-08
2.97875e-08
3.90621e-08
4.47145e-08
3.30135e-08
7.2037e-08
-3.93461e-08
8.4861e-08
-5.03747e-08
8.60729e-08
-3.40334e-08
8.9918e-08
9.26157e-09
2.25617e-08
1.05741e-07
1.45157e-08
-2.91018e-08
1.17614e-10
7.54277e-09
-1.19581e-08
-7.63599e-10
-2.92049e-09
5.24513e-09
3.7573e-08
4.39e-08
7.51593e-09
5.12121e-08
-4.56732e-08
5.08756e-08
-5.06818e-08
5.42483e-08
-4.23709e-08
6.67619e-08
-4.10057e-09
1.01183e-08
7.90577e-08
-5.63396e-09
-7.21865e-08
2.53367e-08
-2.33631e-09
-1.57489e-08
-2.85085e-08
2.43541e-08
-4.39137e-08
4.56746e-08
-7.91289e-09
-3.18106e-08
1.09937e-08
-6.43215e-08
3.02823e-08
-7.034e-08
4.78657e-08
-6.02157e-08
6.35217e-08
-2.45613e-08
1.37539e-08
5.97385e-08
-1.08889e-07
-2.16373e-07
1.24441e-07
-1.259e-07
-8.5313e-08
-1.18262e-07
-2.13218e-08
-4.88642e-08
-2.25106e-08
-7.33608e-09
-7.2026e-08
9.92863e-09
-7.5066e-08
2.3026e-08
-7.51554e-08
2.841e-08
-6.34443e-08
4.0278e-08
-3.73964e-08
1.97118e-08
3.48022e-08
-2.11129e-07
-1.69868e-07
1.64922e-07
-1.75528e-07
-1.39356e-07
-9.11876e-08
-1.08229e-07
-1.20513e-09
-1.14473e-07
4.45876e-08
-1.14712e-07
7.57469e-08
-1.10561e-07
8.1673e-08
-8.54209e-08
7.69641e-08
-5.13178e-08
6.68477e-08
-2.73052e-08
2.40107e-08
6.25492e-08
-1.9939e-07
-1.34312e-07
1.64132e-07
-1.88347e-07
-1.50102e-07
-1.46316e-07
-1.58527e-07
-9.21082e-08
-1.76128e-07
-4.40424e-08
-1.70152e-07
-1.28167e-08
-1.48412e-07
1.66923e-08
-1.1987e-07
3.47718e-08
-6.98936e-08
3.91901e-08
-3.1723e-08
2.93849e-08
3.38173e-08
-3.23873e-07
-4.79809e-08
2.37839e-07
-3.71988e-07
-1.008e-07
-3.93446e-07
-1.35746e-07
-4.03783e-07
-1.6541e-07
-3.76819e-07
-1.96994e-07
-3.1585e-07
-2.09354e-07
-2.36291e-07
-1.99432e-07
-1.63189e-07
-1.43006e-07
-1.02165e-07
-9.27461e-08
-4.94939e-09
-6.78287e-08
-3.44646e-07
9.69464e-08
1.20427e-07
-4.27587e-07
-6.09724e-09
-4.41242e-07
-8.44171e-08
-5.43104e-07
-4.69195e-08
-5.94428e-07
-1.44776e-07
-5.68465e-07
-2.35194e-07
-5.0592e-07
-2.61949e-07
-3.93171e-07
-2.55759e-07
-2.84373e-07
-2.01544e-07
-1.12053e-07
-1.77268e-07
-5.50691e-08
1.0882e-08
4.79713e-08
-1.52872e-07
2.00668e-08
-1.7812e-07
5.82469e-09
-2.03872e-07
1.93054e-09
-2.95271e-07
-1.02649e-08
-4.71035e-07
-3.97102e-08
-6.0713e-07
-1.21449e-07
-5.50007e-07
-3.12867e-07
-4.36489e-07
-3.15093e-07
-2.59943e-07
-2.88597e-07
-3.38248e-09
-3.23298e-08
4.57202e-08
6.0535e-09
9.90676e-09
-3.14453e-08
1.95808e-08
-3.7924e-08
3.46358e-08
-6.43856e-08
1.62864e-08
-9.01495e-08
-1.39443e-08
-1.74609e-07
-3.44667e-08
-4.18075e-07
-8.75087e-08
-4.80136e-07
-2.69098e-07
-3.70786e-07
-3.69352e-07
-3.68789e-08
-8.85254e-08
9.35577e-08
-1.1331e-08
-1.54631e-08
-8.4136e-09
1.66153e-08
-8.82172e-09
2.60286e-08
-1.32583e-08
2.0728e-08
-2.42801e-08
-2.93332e-09
-3.39874e-08
-2.47519e-08
-8.30365e-08
-3.81044e-08
-3.02249e-07
-1.04632e-07
-3.91966e-07
-2.81511e-07
-9.80939e-08
-2.26786e-07
2.86373e-07
-3.91025e-08
-7.45305e-08
-2.33163e-08
7.30176e-10
-7.08585e-09
9.82129e-09
1.9253e-09
1.17231e-08
4.69036e-09
-5.69896e-09
-1.28703e-09
-1.87492e-08
-9.29155e-09
-3.00968e-08
-3.66459e-08
-1.17952e-07
-3.79842e-07
-7.79036e-08
-3.42171e-07
-4.43766e-07
5.84561e-07
-8.45201e-08
-3.23655e-07
-2.28012e-08
-6.12138e-08
-4.31384e-09
-8.63584e-09
9.09716e-09
-1.67126e-09
1.32752e-08
-9.87876e-09
1.2912e-08
-1.83891e-08
8.4256e-09
-2.55908e-08
3.76473e-08
-1.87211e-07
-3.6444e-07
1.29592e-08
-4.55239e-07
-4.55254e-07
4.66774e-07
-3.17972e-07
-4.8077e-07
-6.18515e-08
-3.64804e-07
-4.43977e-09
-6.62625e-08
8.86188e-09
-1.4887e-08
1.12196e-08
-1.22375e-08
1.19442e-08
-1.90844e-08
8.42524e-09
-2.20665e-08
2.91774e-08
-2.02375e-07
-3.15696e-07
-1.94099e-08
-4.41619e-07
-4.20186e-07
3.93993e-07
-4.27018e-07
-4.83374e-07
-2.51329e-07
-5.30699e-07
-3.38634e-08
-4.1096e-07
6.51698e-10
-4.94986e-08
4.2889e-09
-1.57945e-08
9.20183e-09
-2.39966e-08
4.95997e-09
-1.77081e-08
-3.32161e-08
-1.47556e-07
-2.61864e-07
-8.68898e-08
-3.5801e-07
-3.49347e-07
2.81148e-07
-3.86595e-07
-4.41918e-07
-3.67022e-07
-5.40518e-07
-1.98052e-07
-5.82575e-07
-1.32769e-08
-3.50333e-07
-5.74336e-10
-2.8639e-08
9.24916e-09
-3.36069e-08
1.08398e-08
-1.9355e-08
-2.34777e-08
-1.20249e-07
-1.92947e-07
-9.22448e-08
-1.69476e-07
-2.5364e-07
5.73879e-08
-2.53837e-07
-3.66324e-07
-2.63142e-07
-4.75046e-07
-2.62557e-07
-6.19827e-07
-6.26598e-08
-5.87796e-07
-2.08352e-08
-1.07469e-07
-1.70326e-09
-5.73338e-08
-1.75223e-08
-7.33472e-08
-8.47082e-08
-1.26948e-07
-1.29996e-07
-1.47502e-07
-8.72192e-10
-2.50683e-07
-1.06452e-07
-1.16978e-07
-2.60097e-07
-1.6286e-07
-4.37777e-07
-1.69891e-07
-5.35819e-07
-8.67983e-08
-6.7118e-07
-3.12131e-08
-2.84336e-07
-1.15624e-07
-1.98114e-07
-1.40572e-07
-1.55645e-07
-1.63765e-07
-1.22896e-07
-7.98669e-08
-2.13664e-07
1.24798e-07
-1.99575e-07
-1.75751e-07
-1.50603e-08
-2.21245e-07
-8.05225e-08
-3.80927e-07
-1.16429e-07
-5.08525e-07
-1.07828e-07
-6.78126e-07
-5.34766e-08
-3.77248e-07
-1.2511e-07
-1.29473e-07
-1.53925e-07
-1.50672e-07
-1.6415e-07
-1.18717e-07
-4.60017e-08
-1.97684e-07
3.60525e-08
-1.19468e-07
-1.16065e-07
-2.86457e-08
-1.74521e-07
-7.85809e-08
-3.4065e-07
-1.15427e-07
-4.82559e-07
-8.69199e-08
-6.99276e-07
-4.9856e-08
-3.411e-07
-7.54695e-08
-1.0643e-07
-1.18595e-07
-1.08676e-07
-1.64177e-07
-8.0164e-08
-1.13166e-08
-1.98006e-07
2.6014e-08
-3.22095e-08
-1.12609e-07
-5.02139e-08
-9.80477e-08
-1.19871e-07
-3.17063e-07
-1.50259e-07
-4.65216e-07
-1.21574e-07
-7.50251e-07
-8.91379e-08
-3.83003e-07
-1.49659e-07
-4.45707e-08
-1.66937e-07
-9.1077e-08
-1.76134e-07
-7.02695e-08
8.47165e-09
-1.95418e-07
-2.4389e-11
2.50281e-08
-5.42481e-08
-3.21827e-08
-6.66011e-08
-1.05698e-07
-2.60366e-07
-1.28662e-07
-4.57674e-07
-1.31845e-07
-7.47529e-07
-5.70522e-08
-4.68297e-07
-1.48906e-07
2.15448e-08
-2.21182e-07
-3.81888e-08
-2.01655e-07
-9.39545e-08
-2.03502e-09
-1.90148e-07
1.18496e-08
6.27997e-08
-4.83445e-08
-3.41729e-08
-2.08827e-08
-9.35784e-08
-2.06861e-07
-9.73774e-08
-4.7163e-07
-7.50696e-08
-7.70284e-07
6.50883e-10
-5.45954e-07
2.48493e-08
-2.75195e-09
-3.10312e-08
1.44432e-08
-6.54671e-08
-6.49827e-08
3.08103e-08
-1.06636e-07
5.61352e-08
7.9118e-08
-7.24748e-08
-2.47999e-09
3.83223e-08
-5.45098e-08
-1.36579e-07
-8.65188e-08
-4.33718e-07
-8.28706e-08
-7.74314e-07
-2.34576e-08
-6.06933e-07
3.26335e-08
-5.89413e-08
2.47554e-08
3.87626e-08
-2.50842e-08
1.3458e-09
7.37474e-08
-9.25255e-08
2.63755e-08
1.32344e-07
-7.96058e-08
-1.29621e-08
7.87552e-08
-6.05578e-08
-8.65915e-08
-8.33268e-08
-3.44147e-07
-7.98579e-08
-7.78101e-07
-2.83284e-08
-6.52986e-07
1.36374e-08
-1.01005e-07
-3.03548e-09
8.4677e-08
-4.7733e-08
5.59643e-08
1.07856e-07
-7.47962e-08
3.93736e-08
1.69979e-07
-7.70097e-08
-4.1861e-09
1.19909e-07
-7.23399e-08
-2.27405e-08
-8.42863e-08
-3.03042e-07
-7.52605e-08
-7.87928e-07
-3.14954e-08
-6.89338e-07
6.45576e-09
-1.39042e-07
-1.98926e-08
1.35362e-07
-7.70833e-08
1.15104e-07
1.15079e-07
-6.75397e-08
1.09522e-07
1.14472e-07
-1.44353e-07
9.23802e-08
7.41284e-08
-3.39802e-08
7.38416e-08
-3.82573e-08
-3.03204e-07
-4.08378e-08
-7.86649e-07
-1.92627e-08
-7.10407e-07
1.3729e-08
-1.67922e-07
-5.20886e-08
1.85958e-07
-1.01908e-07
1.6611e-07
1.10758e-07
-9.6521e-08
6.9101e-08
0
-6.3623e-08
2.83727e-08
2.52625e-09
-1.5012e-08
2.91189e-08
-4.65303e-09
-3.19316e-07
-2.66867e-08
-7.66074e-07
-1.88779e-08
-7.23208e-07
2.71251e-08
-2.0989e-07
-2.79886e-08
1.74684e-07
-1.03084e-07
2.21762e-07
1.46433e-07
-1.37985e-07
-8.27686e-10
0
4.02053e-10
-2.36303e-10
7.21815e-10
0
4.79477e-09
-3.19339e-08
-2.84459e-07
-4.2626e-08
-7.57151e-07
-3.953e-08
-7.2324e-07
1.02715e-08
-2.52224e-07
6.69117e-08
5.39714e-08
5.09207e-08
1.08434e-07
1.3253e-07
1.57166e-08
-6.85453e-10
2.68284e-11
6.04228e-10
-8.45219e-11
6.08135e-11
4.71118e-09
-1.49203e-12
-2.61207e-09
-2.755e-07
-2.68864e-08
-7.34735e-07
-3.17005e-08
-7.18608e-07
-4.64633e-09
-2.72062e-07
4.99032e-08
2.10095e-08
1.07529e-07
5.54744e-08
6.40177e-08
1.76418e-07
-6.06935e-11
0
8.58116e-11
-4.56403e-13
2.07177e-14
4.27063e-12
-6.7747e-12
3.38817e-09
-2.85909e-07
-2.20299e-08
-7.10727e-07
-3.33716e-08
-7.06517e-07
-1.83924e-08
-2.86086e-07
4.08409e-09
2.35002e-08
4.48283e-08
2.52972e-08
8.47336e-09
6.72017e-08
-1.14445e-11
2.03798e-13
9.14702e-12
0
-2.32733e-12
1.65214e-12
-8.99044e-12
7.60954e-09
-3.00531e-07
-1.5683e-08
-6.89253e-07
-3.36077e-08
-6.88157e-07
-9.10717e-09
-3.11885e-07
9.1513e-09
-2.05467e-11
9.75343e-09
1.54487e-09
0
5.52621e-09
7.66554e-13
-1.66925e-12
6.72774e-13
3.11256e-12
-2.13882e-12
1.01096e-11
-1.65431e-11
2.68005e-08
-3.3684e-07
1.62145e-09
-6.647e-07
-2.91486e-08
-6.58063e-07
-2.23615e-11
-3.40388e-07
1.34632e-12
-4.7918e-11
1.54256e-09
0
0
5.21465e-10
2.97073e-12
-3.74467e-12
-1.70593e-12
3.3244e-12
-1.17942e-12
6.1015e-11
-7.32313e-11
2.72404e-08
-3.65834e-07
3.10648e-09
-6.38935e-07
-2.17297e-08
-6.35041e-07
-2.12618e-11
-3.65466e-07
0
-7.15838e-11
4.0019e-11
1.81299e-11
4.03679e-14
1.5783e-12
4.27536e-12
-2.61101e-12
-6.02554e-14
4.26928e-12
-1.06829e-12
4.21444e-10
-4.90091e-10
4.21857e-08
-3.98559e-07
9.53429e-09
-6.06207e-07
-1.70307e-08
-6.08903e-07
-2.61439e-10
-3.91744e-07
-1.56644e-11
-3.18052e-10
-2.47871e-12
2.84738e-12
7.87851e-12
-4.48293e-12
4.54806e-12
-2.04325e-12
-4.33244e-12
4.52423e-12
-9.93252e-13
2.5907e-09
-3.07616e-09
2.07645e-08
-4.18272e-07
-6.67857e-09
-5.78773e-07
-2.84678e-08
-5.87455e-07
-1.82691e-09
-4.17571e-07
-1.01035e-11
-2.13493e-09
-9.01368e-12
1.41e-12
1.29077e-11
-8.48191e-12
1.81233e-12
5.11525e-13
-2.3695e-12
1.82789e-12
-1.00279e-12
1.15269e-08
-1.46012e-08
2.85927e-08
-4.32353e-07
1.20569e-09
-5.51171e-07
-3.31981e-08
-5.53394e-07
-9.35692e-09
-4.44441e-07
-7.77537e-12
-1.14844e-08
-8.03941e-12
1.35785e-12
2.31374e-11
-1.29341e-11
6.02431e-12
9.19833e-13
-4.35106e-12
6.15278e-12
-1.0438e-12
3.11083e-08
-4.56697e-08
5.72361e-08
-4.57729e-07
3.53394e-08
-5.29326e-07
-2.34616e-09
-5.1569e-07
-1.13398e-08
-4.37554e-07
-7.86628e-13
-2.45229e-08
0
2.76262e-13
2.41055e-11
-4.52309e-12
1.68543e-12
2.96446e-13
-3.30849e-13
9.33092e-12
-8.63378e-12
4.05714e-08
-8.49398e-08
4.52482e-08
-4.61745e-07
1.69225e-09
-4.85757e-07
-2.26817e-08
-4.91406e-07
-2.7183e-08
-4.3177e-07
-5.51855e-12
-5.11933e-08
-3.7947e-12
-1.76486e-12
7.52235e-12
-4.81536e-12
3.55629e-13
1.55562e-14
-8.24354e-14
1.36352e-10
-1.4463e-10
5.37655e-08
-1.3464e-07
3.06447e-08
-4.36988e-07
-5.51673e-09
-4.49625e-07
-4.27854e-08
-4.54128e-07
-4.49453e-08
-4.3144e-07
-4.18332e-11
-9.82644e-08
-2.42053e-12
-4.16009e-11
3.67028e-12
-3.10234e-12
5.26096e-14
1.60016e-15
-4.67479e-14
2.15091e-09
-2.29549e-09
7.96075e-08
-2.13588e-07
5.00727e-08
-4.07759e-07
1.20144e-08
-4.11567e-07
-3.368e-08
-4.08445e-07
-7.28418e-08
-3.91565e-07
-1.08313e-09
-1.67915e-07
-4.59345e-12
-1.12025e-09
1.04959e-12
-1.86571e-12
2.36641e-11
-2.36706e-11
0
1.81328e-08
-2.04047e-08
6.93376e-08
-2.61383e-07
1.41674e-08
-3.52588e-07
-3.02354e-08
-3.67165e-07
-6.9561e-08
-3.6912e-07
-9.93361e-08
-3.618e-07
-1.36266e-08
-2.56187e-07
-6.7472e-13
-1.47461e-08
4.36837e-13
5.11301e-14
1.34022e-09
-1.36032e-09
-3.57718e-12
6.64564e-08
-8.42821e-08
1.05423e-07
-2.99943e-07
7.12296e-08
-3.18395e-07
2.29462e-08
-3.18882e-07
-3.04557e-08
-3.15718e-07
-8.28876e-08
-3.09368e-07
-4.82956e-08
-2.90373e-07
-6.3521e-10
-6.23441e-08
-6.34666e-10
0
2.88108e-08
-3.01701e-08
-1.03172e-12
1.35821e-07
-1.89594e-07
8.3942e-08
-2.48063e-07
2.38047e-08
-2.58258e-07