/*--------------------------------*- C++ -*----------------------------------*\
  =========                 |
  \\      /  F ield         | OpenFOAM: The Open Source CFD Toolbox
   \\    /   O peration     | Website:  https://openfoam.org
    \\  /    A nd           | Version:  8
     \\/     M anipulation  |
\*---------------------------------------------------------------------------*/
FoamFile
{
    version     2.0;
    format      ascii;
    class       volScalarField;
    location    "7.3";
    object      p_rgh;
}
// * * * * * * * * * * * * * * * * * * * * * * * * * * * * * * * * * * * * * //

dimensions      [1 -1 -2 0 0 0 0];

internalField   nonuniform List<scalar> 
9150
(
1963.51
1962.49
1961.85
1961.39
1961.15
1961.16
1961.4
1961.85
1962.49
1963.51
1963.07
1962.55
1962.12
1961.81
1961.65
1961.63
1961.8
1962.12
1962.55
1963.07
1962.79
1962.51
1962.26
1962.03
1961.93
1961.93
1962.04
1962.26
1962.51
1962.79
1962.67
1962.5
1962.33
1962.17
1962.09
1962.08
1962.17
1962.33
1962.5
1962.68
1962.67
1962.49
1962.35
1962.22
1962.16
1962.16
1962.23
1962.36
1962.5
1962.67
1951.58
1950.9
1951.27
1951.6
1951.79
1951.8
1951.62
1951.29
1950.92
1951.59
1955.73
1955.02
1954.91
1954.85
1954.95
1954.96
1954.86
1954.92
1955.03
1955.74
1958.89
1958.13
1957.83
1957.48
1957.41
1957.43
1957.5
1957.85
1958.14
1958.9
1961.66
1960.48
1960.02
1959.4
1959.2
1959.22
1959.39
1960.02
1960.48
1961.66
1964.17
1962.11
1961.36
1960.68
1960.39
1960.4
1960.68
1961.35
1962.11
1964.17
1947.13
1945.62
1943.81
1942.66
1942.06
1942.02
1942.48
1943.54
1945.7
1947.47
1946.27
1945.94
1944.84
1944.53
1944.07
1944.1
1944.62
1945.01
1946.1
1946.48
1945.58
1945.8
1944.69
1945.21
1944.65
1944.66
1945.1
1944.76
1945.91
1945.7
1942.37
1945.32
1944.29
1945.82
1945.71
1945.76
1945.89
1944.41
1945.39
1942.48
1936.81
1946.1
1946.63
1947.95
1948.4
1948.4
1947.93
1946.67
1946.13
1936.86
1425.72
1425.82
1425.83
1426.08
1426.66
1427.32
1428.02
1428.72
1429.25
1429.46
1424.57
1424.66
1424.72
1424.95
1425.62
1426.2
1426.76
1427.35
1427.53
1429.33
1422.66
1422.13
1421.79
1422.21
1422.88
1423.79
1425.14
1424.99
1422.44
1423.42
1422.27
1420.01
1418.03
1417.81
1422.34
1419.69
1417.61
1418.08
1418.92
1419.83
1417.25
1415.8
1415.71
1415.71
1421.96
1422.16
1417.54
1415.86
1415.48
1423.63
1417.74
1416.73
1415.04
1414.29
1411.36
1407.49
1412.14
1414.74
1413.94
1407.35
1417.11
1407.15
1400.42
1399.39
1397.96
1397.94
1394.76
1391.99
1391.96
1393.36
1398.97
1398.23
1399.79
1415.94
1425.82
1422.86
1395.16
1389.81
1389.93
1392.01
1399.65
1416.55
1429.21
1427.61
1426.52
1425.14
1414.14
1387.84
1389.55
1396.43
1430.01
1429.75
1429.2
1428.13
1426.45
1424.77
1407.34
1390.68
1400.85
1426.47
1431.34
1431.28
1430.47
1429.79
1418.25
1389.35
1389.57
1394.87
1430.32
1431.67
1431.32
1415.11
1391.99
1391.34
1396.61
1399.39
1391.85
1395.29
1434.17
1434.87
1419.44
1391.46
1391.51
1391.43
1391.62
1392.1
1391.87
1394.66
1435.77
1437.13
1440.96
1441.99
1430.54
1391.9
1392.48
1392.77
1392.91
1392.77
1434.04
1439.5
1441.19
1444.72
1445.72
1447.05
1444.43
1417.95
1398.63
1421.22
1442.06
1441.82
1442.37
1444.71
1445.44
1446.09
1440.28
1430.17
1440.25
1445.5
1444.8
1443.91
1444.26
1444.96
1445.58
1446.13
1446.53
1446.4
1441.98
1441.88
1442.22
1445.28
1444.11
1444.6
1445.21
1445.77
1446.19
1446.43
1446.51
1446.34
1446.03
1445.93
1438.98
1443.99
1444.52
1445.09
1445.57
1445.89
1446.03
1446.06
1446.02
1446.02
1436.09
1443.7
1443.89
1444.04
1444.13
1444.21
1444.33
1444.53
1444.87
1445.22
1444.14
1443.38
1442.61
1440.57
1438.22
1436.31
1438.13
1441.66
1443.54
1444.16
1444.61
1437.91
1425.36
1416.68
1410.08
1410.17
1410.73
1416.96
1434.88
1441.25
1435.54
1409.81
1409.33
1409.26
1409.59
1410.2
1410.87
1419.81
1443.13
1443.81
1409.61
1409.2
1409.21
1409.17
1409.57
1438.14
1444.96
1444.75
1444.47
1444.2
1419.42
1408.66
1408.74
1408.72
1438.35
1445.24
1445.11
1444.94
1444.66
1444.19
1444.9
1431.56
1409.51
1419.47
1445.1
1445.45
1445.44
1445.39
1445.29
1443.8
1444.3
1444.59
1444.84
1445.08
1445.21
1445.59
1445.81
1446.01
1444.54
1444.62
1443.68
1444.11
1444.56
1445.03
1445.52
1445.88
1445.95
1446.33
1446.92
1447.22
1442.92
1443.64
1444.35
1445.02
1445.6
1445.94
1446.52
1447.11
1447.92
1448.34
1441.95
1443.17
1444.27
1445.18
1446.1
1446.96
1447.38
1448.36
1449.06
1449.71
1441.25
1442.82
1442.89
1441.37
1445.86
1447.72
1448.64
1449.61
1450.49
1451.7
1418.75
1433.33
1431.82
1424.21
1425.04
1439.85
1446.02
1450.69
1450.79
1452.53
1282.32
1395.81
1420.07
1425.15
1416.73
1416.89
1417.09
1428.49
1442.62
1454.05
1274.95
1272.76
1280.73
1414.7
1440.54
1444.31
1420.78
1410.68
1412.51
1423.99
1322.44
1265.99
1265.15
1264.09
1292.02
1434.63
1449.87
1452.37
1452.78
1362.03
1293.2
1262.33
1262.46
1262.58
1262.58
1304.49
1443.13
1455.79
1456.9
1459.36
1446.89
1307.14
1261.06
1261.48
1262.43
1263.17
1263.6
1331.07
1446.05
1459.32
1449.94
1377.82
1261.08
1260.53
1260.84
1261.56
1261.94
1262.39
1264.01
1423.65
1452.15
1450.59
1430.06
1427.18
1364.23
1261.92
1297.44
1438.57
1462.87
1462.55
1349.25
1436.99
1438.06
1413.28
1410.14
1445.97
1463.62
1465.01
1464.28
1463.63
1236.33
1238.4
1240.41
1243.71
1301.98
1442.26
1410.6
1305.47
1354
1442.03
1379.06
1434.59
1456.65
1466.73
1435.38
1281.71
1248.53
1246.73
1245.65
1244.43
1468.78
1469.99
1471.01
1471.68
1471.75
1471.47
1441.43
1259.28
1243.47
1242.93
1467.9
1469.23
1470.38
1471.03
1471.17
1471.14
1471.38
1471.49
1313.09
1240.7
1465.82
1466.92
1467.92
1468.85
1469.57
1470.04
1470.38
1470.39
1469.25
1464.65
1464.7
1465.47
1465.92
1466.3
1466.76
1467.58
1468.7
1469.3
1468.83
1419.22
1461.67
1462.21
1463.03
1463.75
1464.67
1465.38
1465.91
1466.46
1442.79
1400.07
1456.43
1457.68
1458.62
1459.64
1460.7
1461.78
1462.8
1463.57
1411.46
1399.07
1448.96
1451.97
1453.78
1455.67
1456.89
1458.1
1459.35
1445.13
1398.23
1398.09
1293.36
1436.61
1450.49
1452.45
1454.41
1455.21
1455.75
1423.08
1396.83
1408.3
969.002
1315.02
1444.21
1448.64
1451.42
1452.56
1452.39
1438.64
1395
1409.88
925.231
1273.04
1431.24
1438.56
1441.87
1444.96
1447.75
1447.36
1430.51
1371.13
907.089
1372.43
1414.53
1397.87
1290.67
1370.45
1442.38
1442.72
1443.53
1362.87
738.792
1338.54
1401.9
1380.96
1155.8
1329.03
1439.6
1441.08
1417.23
1339.33
639.559
1165.94
1412.1
1143.36
1087.78
1349.02
1439.89
1441.46
1369.26
1337.23
492.317
569.313
946.233
881.742
1081.04
1437.57
1444.59
1418.77
1337
1338.25
492.581
492.884
595.278
707.584
1079.11
1447.71
1450.11
1435.15
1342.07
1341.22
506.287
499.459
751.605
1133.76
1449.85
1456.53
1455.86
1454.45
1389.3
1347.13
1117.58
938.796
1327.84
1442.56
1441.16
1401.51
1413.37
1453.98
1456.27
1430.88
1466.19
1438.81
1363.72
1439.67
1381.32
1355.96
1353.75
1422.93
1463.49
1464.99
1461.07
1461.36
1446.63
1403.36
1398.96
1394.41
1396.84
1444.14
1457.32
1460.36
1455.57
1456.63
1458.3
1460.28
1458.05
1454.68
1454.06
1454.65
1456.12
1459.51
1374.1
1439.13
1334.94
1313.16
1437.87
1454.4
1456.8
1460.85
1465.4
1470.7
549.23
896.131
802.095
604.854
764.065
1077.31
1287.48
1458.96
1472.42
1483.47
337.554
332.306
506.726
621.967
329.23
328.368
359.152
1057.81
1410.05
1490.11
330.279
328.324
327.939
362.107
323.977
323.459
324.681
328.209
730.025
1489.95
410.647
330.253
330.588
329.818
328.695
327.821
328.01
328.941
449.752
1403.51
986.584
467.155
336.91
336.346
334.735
333.058
332.135
331.865
735.327
1465.59
1160.08
1181.51
548.027
339.624
336.827
335.479
334.5
333.835
992.134
1518.04
1070.07
1214.67
1243.27
671.218
336.422
335.245
335.062
334.259
1076.47
1532.17
1008.37
1100.15
1260.99
1294.3
645.673
334.373
333.61
332.745
1020.33
1545.03
999.6
993.085
1112
1334.74
1359.23
386.122
339.128
498.653
1285.26
1552.99
1363.6
987.334
992.505
1186.16
1440.63
1150.75
974.87
1278.17
1535.95
1559.05
1570.06
1239.67
1013.32
1012.77
1446.96
1535.32
1557.32
1521.74
1531.15
1566.82
1593.6
1482.88
1025.57
1030.94
1396.33
1254.68
1566.78
1567.98
1562.87
1571.54
1581.95
1538.24
1164.87
1046.15
1520.89
1109
1430.04
1574.11
1573.66
1575.72
1566.6
1546.48
1227.12
1057.08
1582.46
1098.03
832.988
1502.05
1583.28
1583.54
1589.53
1568.32
1216.13
1043.91
1585.57
1213.68
586.432
663.564
1433.3
1573.36
1614.7
1613.1
1169.69
1024
1592.08
1232.66
581.081
576.848
1315.24
1435.22
1616.46
1601.26
1041.68
860.426
1594.78
1361.2
578.425
721.496
1479.81
1380.25
1611.18
1608.86
1034.36
706.088
1593.27
1432.27
575.166
953.774
1529.65
1498.22
1475.04
1465.65
1053.89
664.241
1593.2
1472.73
622.783
1127.45
1528.03
1526.28
336.249
568.118
601.327
646.767
1605.7
1492.77
663.126
1027.36
1520.98
1518.04
10.686
5.22654
56.9213
587.572
1622.11
1552.75
645.412
692.702
1048.83
1344.96
1.24071
0.422146
0.371521
574.785
1634.32
1605.51
613.601
429.277
502.09
1088.28
0.234585
0.178962
0.256515
637.924
1652.04
1645.77
657.085
417.814
583.912
727.996
0.161358
0.107645
0.0725802
695.953
1678.98
1682.3
699.531
308.733
216.888
50.4287
0.151605
0.0730911
0.0397198
787.642
1706.11
1711.36
783.498
0.405358
0.343861
4.70812
0.14347
0.0333272
0.0320287
935.11
1727.91
1738.23
943.698
0.241651
1.18244
0.186995
0.0800472
0.0108356
0.006803
1061.25
1755.71
1756.35
1060.05
0.17144
0.185714
0.262146
0.11333
0.00852016
0.0063457
1213.79
1777.02
1775.51
1205.91
0.117384
0.1109
0.307528
0.119655
0.0101364
0.0297655
1345.37
1793
1800.38
1353.55
0.102695
0.103766
0.314814
0.115286
0.00735275
60.8457
1496.6
1816.42
1815.04
1497.42
43.4647
0.0943414
0.303363
0.0108007
0.00291314
264.552
1678.58
1835.69
1833.65
1580.09
149.017
0.0760899
0.185783
-0.00265091
-0.00451499
485.82
1782.56
1854.51
1853.74
1722.46
332.121
0.0542607
0.0615999
0.000883722
0.000256212
843.206
1855.31
1873.52
1872.86
1835.62
667.55
0.0293573
0.0291113
-0.00132315
0.0139489
1317.09
1891.56
1892.36
1892.17
1890.97
1175.21
0.0266148
0.0270163
0.000738371
199.639
1668.99
1909.66
1911.02
1911.44
1910.88
1672.45
105.171
0.0165755
0.00262004
1135.92
1927.05
1927.27
1926.95
1926.8
1926.66
1920.02
992.653
-0.0170881
591.403
1865.55
1938.96
1937.31
1936.83
1936.94
1937.71
1939.51
1857.36
547.355
1429.81
1430.69
1431.89
1432.47
1432.27
1432.15
1432.14
1432.15
1432.22
1432.48
1432.21
1432.51
1432.6
1432.57
1432.48
1432.25
1432.11
1431.72
1431.38
1430.98
1430.41
1429.93
1429.56
1429.24
1428.93
1428.83
1429.11
1429.6
1430.28
1431.1
1431.98
1432.83
1433.59
1434.22
1434.49
1434.36
1433.97
1433.47
1433.08
1433.12
1427.89
1428.97
1430.09
1431.18
1431.26
1431.2
1431.25
1431.67
1431.89
1432.16
1432.25
1432.84
1432.89
1432.85
1432.68
1432.35
1432.03
1431.63
1431.1
1430.44
1429.95
1429.54
1429.08
1428.69
1428.31
1427.92
1427.87
1428.21
1428.92
1429.77
1430.7
1431.6
1432.44
1433.17
1433.81
1433.87
1433.46
1432.61
1432.37
1432.4
1423.68
1426.78
1428.45
1429.57
1429.92
1430.81
1431.43
1431.94
1432.43
1432.27
1432.64
1432.71
1433.26
1433.16
1432.89
1432.51
1431.82
1430.5
1430.24
1429.13
1429.61
1428.85
1428.39
1428.04
1426.63
1426.14
1425.48
1426.46
1427.18
1427.64
1428.62
1429.42
1430.2
1431.23
1431.91
1432.29
1432.36
1432.08
1431.42
1431.55
1420.28
1425.7
1429.39
1428.77
1429.69
1430.27
1431.77
1432.53
1433.21
1433.57
1433.24
1433.48
1433.55
1433.66
1433.34
1432.52
1431.77
1430.22
1429.03
1428
1426.97
1426.41
1426.31
1426.31
1425.67
1425.43
1425.04
1425.14
1425.29
1425.55
1428.27
1427.52
1428.15
1429.15
1430.41
1430.95
1431.26
1431.44
1431.58
1431.28
1426.36
1427.5
1429.04
1429.33
1429.95
1430.7
1432.35
1433.33
1433.88
1434.25
1434.23
1434.01
1434.03
1433.95
1433.38
1432.2
1431.48
1430.82
1429.92
1428.14
1426.97
1426.47
1426.79
1428.38
1427.93
1427.7
1427.39
1425.71
1425.73
1427.01
1427.2
1426.52
1426.95
1427.87
1429.24
1429.91
1430.42
1430.83
1431.21
1431.22
1407.23
1418.99
1426.58
1428.71
1429.39
1430.91
1432.51
1433.73
1434.65
1434.72
1434.89
1434.81
1434.56
1434.05
1433.46
1432.12
1431.21
1430.51
1430.5
1429.84
1428.9
1428.19
1428.25
1428.03
1427.71
1427.07
1426.78
1426.96
1426.95
1426.91
1426.3
1425.82
1426.83
1428.02
1428.55
1429.04
1429.56
1430.11
1430.57
1430.88
1397.68
1418.31
1425.3
1427.37
1429.25
1430.73
1432.12
1432.59
1435.44
1434.96
1435.08
1435.25
1434.78
1433.28
1432.94
1432.51
1431.4
1430.4
1429.73
1429.59
1429.34
1428.54
1427.95
1427.45
1426.14
1424.99
1425.48
1426.05
1425.44
1423.29
1423.56
1425.61
1426.25
1426.9
1427.52
1428.13
1428.65
1429.11
1429.48
1429.86
1398.28
1424.1
1426.05
1427.61
1429.26
1429.87
1428.74
1430.12
1432.13
1435.29
1436.08
1435.4
1433.62
1432.77
1431.96
1432.3
1432.38
1431.32
1430.04
1429.39
1429.23
1428.45
1427.72
1426.66
1423.05
1422.43
1421.63
1421.3
1420.08
1419.49
1419.21
1421.78
1423.46
1424.94
1425.9
1426.75
1427.43
1427.82
1427.98
1428.42
1424.48
1426.22
1427.59
1429
1425.61
1426.87
1429.01
1430.71
1434.86
1438.21
1436.19
1434.43
1433.75
1432.94
1432.09
1431.75
1432.61
1431.94
1431.2
1430.18
1429.51
1428.79
1428.1
1427.42
1423.8
1421.49
1420.67
1419.74
1419.68
1419.3
1414.77
1413.59
1414.76
1421.93
1424.7
1425.68
1426.39
1426.76
1424.05
1424.97
1427.38
1428.65
1425.29
1424.96
1427.19
1429.28
1432.28
1438.63
1439.95
1439.4
1437.34
1435.6
1434.49
1434.05
1433.7
1433.94
1433.28
1432.44
1431.54
1430.65
1429.76
1428.89
1428.07
1427.36
1426.49
1423.88
1422.38
1421.64
1422.82
1423.09
1422.29
1412.81
1413.03
1418.36
1424.29
1425.27
1425.92
1424.89
1422.48
1422.66
1432.02
1429.47
1426.36
1428.16
1430.62
1439.39
1440.41
1440.91
1440.51
1439.97
1439.11
1438.12
1437.02
1435.95
1434.93
1434.15
1433.57
1432.8
1431.74
1430.75
1429.75
1428.72
1427.69
1426.59
1421.07
1420.64
1422.75
1422.47
1421.8
1422.57
1422.95
1412.57
1413.27
1422.02
1424.78
1425.54
1425.63
1421.84
1422.18
1422.28
1435.21
1434.4
1432.5
1434.36
1438.62
1439.89
1440.34
1440.35
1440.12
1439.7
1438.94
1437.84
1435.52
1427.18
1425.49
1426.47
1428.48
1430.01
1426.95
1427.26
1427.66
1426.19
1424.37
1420.7
1411.56
1410.19
1416.55
1422.23
1422.08
1422.13
1422.5
1417.86
1421.32
1424.57
1425.34
1425.96
1425.52
1421.93
1422.34
1422.5
1436.86
1436.78
1437.19
1438.04
1439.04
1439.71
1439.8
1439.37
1439.29
1439.68
1439.24
1438.6
1431.64
1424.08
1423.89
1423.42
1422.54
1420.91
1423
1417.56
1416.29
1414.87
1413.42
1412.16
1410.83
1409.37
1408.13
1420.61
1422.99
1422.84
1421.12
1422.42
1423.75
1424.58
1425.51
1426.47
1426.31
1422.53
1422.96
1423.16
1438.58
1438.07
1438.03
1438.5
1439.27
1439.93
1440.3
1439.77
1439.49
1439.26
1438.89
1438.94
1438.49
1436.53
1430.31
1428.98
1432.51
1432.31
1432.63
1425.05
1418.88
1416.29
1416.37
1412.12
1410.03
1408.73
1416.03
1423.15
1423.02
1422.84
1421.58
1409.36
1413.18
1421.09
1425.4
1426.95
1428.13
1427.96
1427.33
1428.64
1440.86
1440.22
1440.06
1440.3
1440.67
1440.99
1441.2
1441.28
1441.18
1441
1440.73
1439.74
1439.29
1439.18
1438.81
1438.03
1437.08
1436.13
1435.21
1433.65
1430.99
1429.01
1427.3
1425.38
1422.05
1421.34
1422.06
1422.42
1422.89
1423.49
1423.85
1403.58
1402.65
1403.79
1419.7
1428.5
1430.59
1431.99
1432.86
1433.32
1443.07
1442.41
1442.03
1441.94
1442.03
1442.22
1442.27
1441.8
1441.61
1441.74
1441.59
1441.34
1441.16
1440.52
1439.74
1438.8
1437.6
1436.34
1435.28
1433.31
1430.22
1426.8
1423.78
1421.36
1420.01
1419.44
1419.67
1420.61
1422.04
1423.92
1424.17
1403.68
1404.13
1405.17
1406.55
1427.32
1434.49
1435.84
1436.62
1436.97
1444.59
1442.3
1440.11
1442.59
1443.09
1441.99
1438.96
1434.44
1433.86
1438.94
1441.31
1442.85
1442.85
1441.48
1440.17
1439.22
1438.54
1436.89
1434.16
1430.64
1423.8
1418.36
1414.53
1412
1411
1412.85
1413.98
1416.81
1420.69
1424.27
1427.76
1414.51
1407.11
1409.2
1410.81
1428.96
1439.13
1440.24
1440.8
1441.03
1445.48
1443.62
1439.45
1436.66
1434.15
1434.52
1434.95
1435.16
1435.15
1442.92
1445.91
1443.29
1442.92
1443.99
1442.64
1440.13
1428.72
1418.87
1419.48
1422.07
1406.33
1384.61
1363.01
1350.74
1343.39
1362.43
1395.34
1406.95
1407.91
1419.82
1430.34
1433.14
1412.94
1413.93
1431.46
1442.29
1443.23
1443.94
1444.22
1444.34
1445.9
1445.53
1444.54
1443.16
1442.11
1437.57
1436.17
1436.79
1437.81
1449.05
1449.17
1446.79
1448.33
1447.95
1443.69
1390.37
1375.66
1375.43
1419.45
1401.63
1331.88
1284.15
1276.48
1274.37
1275.27
1280.96
1292.6
1338.61
1405.94
1425.84
1432.88
1436.5
1435.56
1440.39
1445.28
1446.05
1446.64
1446.99
1446.96
1447.04
1445.53
1445.93
1446.49
1446.15
1446.49
1445.05
1437.05
1437.99
1445.5
1451.95
1452.72
1452.72
1452.09
1448.25
1391.76
1377.28
1382.73
1435.49
1421.75
1347.95
1282.52
1277.29
1273.39
1271.81
1273.92
1279.69
1288.87
1307.88
1405.68
1425.49
1432.39
1440.96
1445.49
1448.21
1449.06
1449.66
1449.91
1449.86
1449.65
1449.72
1444.68
1445.4
1446.11
1446.61
1447.61
1448.62
1440.5
1439.23
1452
1452.36
1452.2
1451.64
1450.69
1441.13
1387.47
1376.73
1429.34
1423.21
1414.3
1392.83
1294.91
1279.46
1275.78
1275.13
1323.49
1402.29
1414.54
1420.09
1426.75
1434.96
1441.57
1445.42
1448.45
1450.38
1451.94
1453.06
1453.07
1452.7
1452.45
1452.42
1443.88
1444.58
1445.32
1446.15
1447.11
1448.09
1446.55
1446.48
1450.81
1450.7
1449.12
1446.72
1444.25
1434.06
1375.96
1365.85
1417.01
1411.62
1403.08
1396.42
1392.85
1385.32
1394.76
1401
1403.28
1406.88
1410.98
1416.86
1423.89
1432.98
1440.3
1445.18
1447.76
1449.25
1452.2
1454.32
1454.67
1454.58
1454.73
1454.96
1443.84
1444.1
1444.64
1445.24
1445.83
1446.42
1447.12
1447.7
1447.63
1446.47
1443.58
1439.57
1435.67
1428.38
1347.81
1288.13
1381.48
1377.17
1360.67
1378.57
1383.82
1385.68
1388.99
1393.34
1396.11
1399.5
1395.8
1366.4
1360.74
1400.41
1422.93
1435.51
1399.4
1373.81
1386.51
1415.09
1438.99
1439.91
1436.19
1442.4
1443.99
1443.46
1443.32
1444.61
1444.81
1444.91
1444.83
1444.61
1443.77
1441.1
1436.75
1432.01
1426.96
1419.9
1384.93
1252.68
1113.08
1099.16
1093.2
1228.76
1265.78
1251.72
1257.82
1288.09
1323.53
1344.46
1311.77
1280.92
1290.3
1300.07
1320.5
1351.63
1330.42
1335.41
1339.83
1341.48
1344.05
1336.41
1332.35
1333.3
1442.63
1442.7
1442.87
1444.15
1444.39
1444.08
1443.52
1442.5
1435.34
1408.6
1404.01
1428.45
1424.12
1419.52
1412.55
1347.19
1145.53
1089.18
1081.25
1071.48
1064.34
1060.88
1060.66
1065.25
1072.63
1079.55
1133.19
1252.82
1339.79
1350.47
1304.72
1314.76
1322.96
1330.01
1397.79
1349.38
1329.16
1329.62
1331.51
1333.4
1443.65
1443.65
1443.64
1444.45
1444.95
1444.54
1443.86
1442.3
1406.31
1381.34
1376.93
1397.33
1424.98
1421.48
1418.71
1413.93
1365.82
1211.05
1078.69
1069.52
1064.89
1065.67
1067.69
1070.51
1074.91
1079.45
1082.07
1080.79
1296.09
1407.73
1357.08
1338.39
1330.96
1368.64
1393.94
1403.83
1408.46
1413.16
1379.24
1366.82
1444.75
1444.87
1445.94
1446.44
1446.26
1445.97
1445.53
1443.59
1413.84
1380.83
1376.89
1371.65
1382.97
1418.48
1422.66
1421.12
1420.81
1410.06
1311.88
1266.8
1117.01
1081.03
1081.31
1081.15
1081.74
1083.05
1084.07
1085.89
1224.75
1412.39
1424.2
1429.62
1437.25
1426.76
1326.06
1326.71
1371.62
1434.34
1438.64
1439.58
1447.18
1446.37
1447.83
1447.86
1447.84
1447.79
1447.64
1447.2
1443.33
1413.92
1378.82
1374.75
1370.45
1367.22
1391.45
1424.71
1425.47
1425.22
1426.15
1424.42
1378.92
1321.3
1224.93
1136.53
1104.13
1105.92
1144
1320.43
1425.17
1428.06
1431.97
1436.27
1440.99
1445.28
1388.63
1234.4
1233.44
1315.71
1434.73
1439.03
1448.75
1449.03
1449.07
1449.2
1449.3
1449.62
1449.7
1449.58
1449.39
1448.59
1431.92
1389.58
1373.09
1369.95
1366.85
1371.89
1418.2
1429.21
1428.67
1428.83
1429
1429.08
1424.62
1430.17
1429.96
1429.79
1430.44
1431.46
1432.92
1435.09
1438.38
1442.22
1445.96
1449.36
1451.39
1291
1231.42
1229.84
1404.7
1443.68
1450.24
1450.47
1436.37
1401.02
1394.38
1436.27
1449.29
1451.04
1451.69
1451.65
1451.14
1443.46
1401.94
1373.28
1371.22
1368.81
1400.45
1436.12
1435.46
1435.09
1434.89
1434.98
1435.43
1436.01
1436.47
1436.66
1437.2
1438.13
1439.49
1441.41
1443.87
1446.51
1450.25
1454.13
1456.54
1393.37
1231.44
1231.76
1394.26
1447.33
1452.33
1451.9
1407.95
1391
1391
1390.22
1390.41
1390.54
1398.38
1423.43
1431.58
1429.13
1386.63
1377.23
1376.1
1374.44
1372.66
1429.89
1442.53
1441.87
1441.45
1441.27
1441.33
1441.48
1439.23
1436.25
1441.24
1443.44
1444.54
1445.95
1447.59
1449.01
1431.86
1430.1
1457.95
1445.39
1237.31
1264.98
1418.7
1419.67
1454.38
1456.28
1458.04
1458.9
1443.66
1397.37
1391.58
1394.3
1406.83
1383.85
1383.33
1382.32
1381.7
1381.3
1380.8
1379.78
1378.45
1388
1445.57
1449.05
1448.46
1448.05
1447.8
1441.58
1441.19
1441.37
1444.45
1448.26
1449.16
1446.37
1431.95
1403.53
1330.79
1368.02
1458.76
1458.88
1311.47
1391.57
1417.67
1343.02
1456.25
1458.27
1460.55
1460.83
1460.58
1458.73
1457.49
1456.44
1455.01
1438.42
1420.4
1414.95
1422.76
1412.72
1399.6
1406.22
1430.01
1455.5
1455.7
1454.63
1453.81
1449.6
1446.16
1445.87
1445.57
1449.02
1452.1
1452.27
1453.16
1374.82
1326.21
1326.73
1327.91
1369.82
1454.99
1456.52
1449.46
1445.85
1365.61
1338.91
1443.76
1455.22
1459.02
1461.16
1462.12
1461.8
1461.18
1461.33
1461.51
1461.51
1461.66
1461.43
1461.2
1461.27
1460.96
1461.22
1460.83
1460.05
1459.21
1458.4
1453.27
1450.44
1449.78
1449.09
1454.27
1455.19
1455.39
1455.89
1404.46
1325.14
1325.55
1325.3
1324.6
1437.12
1457
1455.7
1450.38
1429.33
1334.48
1334.96
1332.39
1356.56
1421.52
1432.27
1407.2
1410.69
1447.8
1461.44
1461.13
1461.24
1461.41
1460.85
1459.85
1460.7
1461.34
1461.2
1461.1
1461.03
1460.82
1460.5
1457.45
1453.62
1456.42
1458.92
1457.86
1456.19
1456.54
1458.05
1454.1
1345.95
1323.06
1322.36
1336.98
1450.78
1459.43
1440.11
1424.17
1410.11
1330.97
1330.72
1354.6
1313.96
1316.3
1337.06
1406.81
1408.98
1375.42
1400.56
1448.13
1461.37
1461.02
1461.1
1456.4
1453.91
1453.64
1458.28
1460.6
1460.9
1461.15
1461.42
1461.74
1462.18
1462.45
1461.67
1455.43
1429.67
1425.91
1448.74
1453.66
1455.21
1376.54
1322.01
1418.85
1456.51
1459.06
1418.99
1405.81
1408.58
1361.84
1327.75
1462.08
1464.5
1466.01
1387.99
1369.17
1368.4
1367.79
1366.58
1391.68
1424.07
1459.48
1460.67
1460.53
1455.07
1452.3
1452.25
1452.19
1459.03
1460.33
1460.54
1460.91
1461.52
1461.96
1442.93
1422.53
1420.37
1416.99
1416.97
1440.32
1436.47
1434.08
1317.71
1385.66
1449.19
1449.62
1398.73
1392.32
1391.11
1387.5
1357.44
1462.19
1464.01
1465.59
1467.44
1461.49
1373.27
1367.67
1384.5
1394.91
1389.12
1389.63
1446.36
1460.15
1460.04
1455.1
1451.2
1450.84
1453.73
1458
1457.19
1456.23
1455.89
1445.82
1417.06
1411.64
1406.84
1406.11
1398.74
1386.68
1396.89
1404.61
1308.58
1354.75
1429.94
1437.36
1431.12
1391.55
1233.87
1161.38
1229.35
1462.71
1463.23
1463.91
1464.21
1464.44
1451.81
1450.76
1420.03
1388.85
1387.48
1386.05
1385.13
1441.88
1460.52
1460.04
1452.43
1449.55
1452.13
1454.43
1451.64
1440.59
1410.12
1397.96
1423.69
1419.2
1413.36
1399.05
1360.48
1075.21
1071.78
1284.42
1375.92
1397.17
1417.6
1425
1429.05
1430.93
1266.31
1116.99
1138.22
1462.96
1462.24
1461.54
1460.94
1460.77
1461.57
1462.8
1463.63
1407.34
1386.01
1384.96
1384.29
1383.97
1450.11
1459.94
1452.63
1448.47
1452.49
1451.62
1447.48
1373.93
1242.63
1298.1
1413.04
1413.58
1406.16
1393.81
1267.67
929.446
878.262
1169.56
1384.44
1396.87
1407.38
1415.71
1423.8
1432.83
1432.61
1117.58
1184.39
1461.17
1460.54
1459.15
1457.79
1456.9
1453.93
1458.63
1461.21
1458.27
1403.77
1382.59
1382.22
1381.67
1389.79
1451.31
1451.77
1451.31
1454.33
1450.95
1446.62
1340.05
1219.97
1215.81
1301.44
1408.86
1406.82
1397.96
1353.49
1106.22
868.304
860.318
1112.07
1378.06
1407.47
1413.58
1421.65
1428.41
1434.56
1138.16
1282.11
1421.35
1460.81
1458.38
1454.79
1450.34
1449.71
1357.7
1386.11
1447.44
1444.77
1395.87
1379.13
1379.33
1379.14
1407.61
1451.79
1456.21
1456.57
1454.12
1451
1411.01
1220.88
1215.49
1212.47
1407
1401.52
1407.32
1402.12
1392.28
1039.63
846.877
839.257
967.293
1298.54
1408.21
1416.69
1419.5
1414.08
1051.54
1269.52
1290.63
1419.66
1458.83
1458.83
1444
1306.3
1206.07
1206.27
1273.94
1432.54
1432.56
1385.04
1378.49
1378.89
1389.17
1449.94
1458.74
1460.59
1459.26
1457.71
1456.02
1303.64
1225.86
1222.97
1411.94
1408.52
1410.47
1414.83
1408.4
1386.8
855.742
825.341
823.541
876.866
1079.19
1334.55
1415.62
1276.39
865.39
1252.43
1240.86
1241.01
1373.12
1467.41
1371.21
1203.3
1203.2
1203
1202.32
1201.04
1368.69
1412.04
1383.52
1379.98
1410.65
1460.04
1460.09
1461.36
1464.93
1464.72
1464.6
1420.67
1241.17
1367.88
1443.98
1439.79
1422.27
1423.2
1416.55
1408.89
1098.94
813.437
816.55
818.063
834.351
1333
1224.04
878.506
836.768
1202.55
1463.33
1397.13
1409.15
1468.42
1469.38
1319.98
1204.88
1204.07
1203.15
1202.17
1201.53
1389.27
1441.74
1426.18
1451.13
1468.88
1465.77
1465.94
1470.36
1470.79
1463.95
1464.68
1357.8
1460.51
1454.07
1447.49
1435.28
1432.61
1424.47
1417.31
1134.69
809.983
814.067
816.854
1004.99
1209.49
822.416
809.357
826.278
1193.57
1396.65
1395.57
1442.24
1471.44
1473.63
1474.8
1392.42
1204
1203.86
1203.27
1225.92
1437.71
1473.35
1473.5
1473.21
1472.96
1473.07
1473.51
1473.85
1473.62
1469.39
1415.07
1326.72
1457.29
1453.93
1449.87
1445.4
1438.53
1431.88
1427.17
1275.49
813.427
817.009
930.367
1027.32
833.286
808.813
808.676
811.12
1145.69
1397.84
1410.36
1462.69
1470.25
1472
1473.55
1475.08
1439.86
1244.01
1244.52
1404.36
1475.99
1477.1
1476.86
1476.3
1474.66
1475.66
1475.54
1474.65
1471.29
1471.76
1353.1
1302.09
1418.57
1359.09
1323.37
1437.36
1441.03
1439.07
1437.1
1420.31
992.391
819.063
882.052
986.789
810.65
811.184
811.055
811.233
1219.26
1399.27
1450.9
1467.01
1468.23
1469.99
1471.23
1472.99
1474.66
1457.27
1458.28
1472.96
1478.66
1479.1
1478.81
1478.06
1476.29
1468.58
1476.21
1475.01
1472.45
1470.55
1406.18
1291.32
1278.69
1106.92
1029.85
1227.35
1416.39
1445.77
1449.02
1453.4
1280.06
824.786
812.75
812.9
813.109
813.318
813.338
871.031
1394.58
1428.14
1463.48
1464.77
1465.91
1467.49
1467.14
1468.42
1473.86
1475.93
1477.77
1479.22
1480.27
1480.99
1480.76
1480.14
1473.29
1469.48
1469.91
1476.98
1475.39
1473.08
1465.68
1434.01
1453.07
1148.12
1019.3
1015.08
1104.36
1401.18
1460.73
1465.57
1354.05
892.558
814.586
814.919
814.929
815.166
815.141
942.455
1429.26
1457.25
1460.73
1462.02
1463.16
1463.59
1451.02
1464.57
1472.64
1475.2
1477.87
1479.95
1481.79
1483.01
1483.05
1482.72
1474.34
1472.03
1471.69
1476.42
1480.2
1479.36
1478.84
1478.67
1478.11
1439.52
1054.79
1012.9
1012.93
1070.76
1445.1
1476.87
1389.5
1066.48
816.883
816.668
816.751
816.144
816.46
1203.83
1480.44
1455.33
1457.17
1458.66
1451.79
1445.33
1447.27
1454.02
1470.32
1473.75
1477.3
1480.43
1483.24
1485.04
1485.53
1485.63
1483.13
1475.69
1476.26
1476.64
1485.84
1486.59
1486.24
1486.29
1486.74
1487.5
1209.77
1013.24
1013.54
1015.73
1112.32
1383.03
1301.89
1252.28
1075.72
818.261
818.364
904.68
1060.45
1465.33
1491.9
1398.41
1451.76
1450.66
1439.34
1440.8
1442.91
1449.82
1466.94
1470.99
1475.74
1480.07
1483.89
1486.66
1487.82
1488.5
1489.15
1488.95
1482.72
1482.23
1486.34
1493.28
1492.87
1492.72
1493.14
1493.93
1208.93
1012.57
1014.82
1017.76
1021.92
1267.35
1277.92
1283.75
1309.61
1222.27
1238.19
1405.81
1477.57
1494.8
1495.26
1347.43
1369.88
1443.85
1453.32
1450.3
1448.21
1455.27
1462.15
1467.57
1473.42
1478.64
1483.99
1487.71
1489.58
1490.81
1492.11
1493.58
1492.08
1487.02
1491.14
1498.47
1497.84
1497.48
1497.64
1471.14
1072.79
1009.04
1012.08
1015.12
1018.56
1257.04
1348.15
1283.22
1300.86
1483.76
1516.26
1514.32
1509.88
1486.37
1409.9
1342.28
1346.42
1437.45
1451.11
1451.33
1452.15
1455.35
1459.97
1465.46
1471.38
1477.43
1483.86
1488.36
1490.19
1492.4
1494.24
1493.06
1492.49
1494.68
1500.72
1501.91
1501.27
1500.71
1441.8
1078.25
1002.12
1004.97
1007.35
1009.28
1025.16
1345.58
1351.2
1278.33
1276.12
1442.13
1516.88
1516.09
1459.27
1317.08
1317.35
1339.99
1399.2
1449.35
1448.28
1448.95
1452.62
1456.08
1459.84
1465.2
1471.09
1476.88
1483.13
1480.64
1489.71
1493.01
1495.48
1494.3
1498.74
1502.77
1503.98
1503.81
1502.73
1267.84
1001.62
998.555
1000.54
1002.5
1004.16
1005.16
1209.98
1394.13
1294.35
1269.93
1270.88
1320.6
1513.96
1516.15
1445.6
1294.03
1326.52
1357.8
1439.25
1445.08
1352.2
1431.39
1455.16
1458.48
1461.26
1465.28
1470.33
1472.04
1394.75
1427.01
1487.73
1492.97
1495.49
1498.15
1501.55
1504.36
1504.55
1507.42
1360.95
998.524
996.48
997.174
998.504
1000.41
1002.65
1043.93
1388.28
1388.83
1264.38
1260.4
1264.21
1295.36
1515.19
1515.65
1495.86
1292.02
1386.78
1340.59
1442.78
1410
1150.21
1197.64
1375.18
1393.54
1407.97
1430.87
1351.77
1227.66
1235.66
1414.22
1478.91
1484.27
1496.31
1499.88
1474.85
1471.03
1472.38
1503.62
1504.87
1427.42
1126.26
994.234
995.088
996.941
998.783
1397.33
1408.02
1259.51
1256.48
1257.87
1260.21
1416.02
1516.24
1517.23
1516.14
1289.26
1386.09
1367.71
1449.35
1385.11
1146.55
1147.37
1150.01
1153
1157.85
1170.35
1181.7
1195.71
1283.02
1442.92
1468
1469.96
1484.19
1476.94
1470.39
1479.54
1499.87
1503.22
1507.51
1511.07
1514.3
1497.27
1429.87
996.057
1219.51
1402.51
1331.39
1259.55
1259.21
1259.84
1395.83
1518.02
1517.86
1518.11
1517.64
1289.79
1395.49
1451.16
1438.89
1422.05
1153.56
1149.92
1151.97
1154.97
1158.95
1164.07
1192.97
1278.01
1461.64
1473.12
1470.28
1471.89
1492.45
1471.35
1471.05
1493.84
1494.18
1496.06
1498.04
1506.84
1509.46
1510.49
1510.93
1137.12
1062.07
1179.56
1444.54
1295.05
1291.4
1486.43
1520.28
1520.11
1518.72
1477.55
1333.65
1288.94
1460.32
1467.05
1460.78
1428.99
1241.91
1151.86
1153.44
1155.74
1176.64
1300.3
1413.18
1478.03
1498.06
1483.47
1473.48
1478.47
1499.94
1488.91
1495.13
1493.78
1429.9
1342.51
1489.39
1488.87
1449.46
1416.69
1360.78
1058.46
1049.94
1176.83
1510.57
1490.41
1469
1517.5
1519.02
1467.28
1423.26
1383.01
1379.5
1435.28
1521.02
1464.79
1470.64
1344.01
1280.56
1154.46
1238.07
1301.92
1436.07
1489.2
1497.57
1499.6
1501.22
1498.29
1487.33
1500.64
1503.02
1502.41
1500.82
1491.3
1079.93
1025.9
1403.55
1215.84
1071.94
1020.4
1024.54
1032.26
1039.73
1434.57
1511.22
1512.73
1513.07
1499.97
1398.87
1395.01
1397.75
1449.86
1520.72
1521.84
1522.21
1465.4
1471.29
1290.64
1225.4
1175.32
1296.83
1484.2
1495.85
1498.83
1501.09
1502.97
1504.54
1505.74
1507.06
1508.36
1509.57
1510.36
1501.39
1105.12
1026.21
1027.78
1100.31
1017.51
1018.41
1019.6
1022.7
1026.9
1328.27
1512.51
1513.48
1514.27
1478.3
1391.75
1392.07
1392.72
1447.72
1520.93
1521.55
1521.55
1521.76
1475.42
1480.72
1371.72
1251.49
1242.72
1244.99
1454.33
1501.69
1503.18
1504.56
1507.05
1508.17
1510.06
1511.5
1513.61
1496.27
1379.27
1097.05
1022.55
1057.7
1326.41
1024.39
1023.8
1023.02
1023.13
1024.44
1218.57
1516.4
1516.87
1517.08
1517.25
1439.6
1392.64
1391.81
1417.69
1514.92
1515.64
1481.42
1482.89
1463.62
1483.43
1494.98
1490.82
1409.92
1350.24
1379.86
1307.95
1270.5
1286.87
1446.99
1514.59
1461.1
1356.24
1190.28
1093.36
1048.03
990.409
997.905
1154.96
1333
1320.05
1024.88
1025.44
1024.98
1024.75
1026.8
1422.55
1521.25
1521
1520.89
1520.63
1507.53
1410.45
1395.54
1508
1508.28