/*--------------------------------*- C++ -*----------------------------------*\
  =========                 |
  \\      /  F ield         | OpenFOAM: The Open Source CFD Toolbox
   \\    /   O peration     | Website:  https://openfoam.org
    \\  /    A nd           | Version:  8
     \\/     M anipulation  |
\*---------------------------------------------------------------------------*/
FoamFile
{
    version     2.0;
    format      ascii;
    class       volScalarField;
    location    "4.1";
    object      alpha.water;
}
// * * * * * * * * * * * * * * * * * * * * * * * * * * * * * * * * * * * * * //

dimensions      [0 0 0 0 0 0 0];

internalField   nonuniform List<scalar> 
9150
(
1
1
1
1
1
1
1
1
1
1
1
1
1
1
1
1
1
1
1
1
1
1
1
1
1
1
1
1
1
1
1
1
1
1
1
1
1
1
1
1
1
1
1
1
1
1
1
1
1
1
1
1
1
1
1
1
1
1
1
1
1
1
1
1
1
1
1
1
1
1
1
1
1
1
1
1
1
1
1
1
1
1
1
1
1
1
1
1
1
1
1
1
1
1
1
1
1
1
1
1
1
1
1
1
1
1
1
1
1
1
1
1
1
1
1
1
1
1
1
1
1
1
1
1
1
1
1
1
1
1
1
1
1
1
1
1
1
1
1
1
1
1
1
1
1
1
1
1
1
1
1
0.999997
0.999998
0.999998
0.999993
0.999992
0.999992
0.999992
0.999993
0.999999
0.999982
0.999982
0.999982
0.999983
0.999985
0.999999
1
1
0.999998
0.99999
0.999998
0.999997
0.999993
0.999995
0.999999
1
1
1
0.999992
0.999988
0.999998
0.999999
1
0.999998
0.999992
0.999996
1
1
0.999993
0.999988
0.999998
1
1
0.999993
0.999985
0.999987
0.999999
0.999999
0.999988
0.999988
1
1
0.999991
0.999985
0.999985
0.999985
0.999998
1
0.999991
0.999988
0.999989
0.999985
0.999985
0.999985
0.999996
0.999999
1
1
0.999992
0.999989
0.999986
0.999986
0.999997
1
1
1
1
0.999999
0.999999
1
0.999998
0.999999
1
1
1
1
1
1
1
0.999668
0.999987
0.999987
0.999987
0.999999
1
1
1
1
0.994601
0.982804
1
1
1
1
1
0.995643
0.969367
0.966609
0.966627
0.976863
1
0.997873
0.955701
0.927699
0.927581
0.928029
0.949188
0.98252
0.9914
0.997993
0.928105
0.927589
0.927471
0.927466
0.927469
0.968324
0.994288
0.999382
0.999792
0.999945
0.948038
0.943562
0.953433
0.974237
0.992147
0.999718
0.999609
0.999359
0.999594
0.999949
0.997473
0.997283
0.998689
0.999883
0.999825
0.999816
0.999639
0.999363
0.999472
0.999949
0.999995
0.999997
0.999968
0.999963
0.999695
0.999441
0.999443
0.99969
0.999569
0.999785
0.999998
0.999998
0.9998
0.999413
0.9994
0.999652
0.999691
0.99969
0.998137
0.999542
0.999995
0.999668
0.99951
0.999689
0.999684
0.999681
0.994021
0.995714
0.999679
0.99983
0.999822
0.999715
0.99971
0.999708
0.999706
0.980393
0.980437
0.993134
0.999814
0.999747
0.999934
0.999933
0.999929
0.992533
0.964762
0.962219
0.982346
0.999825
0.999821
0.999391
0.999997
0.99306
0.875071
0.863306
0.927598
0.999795
0.997103
0.999826
0.999825
0.99964
0.908353
0.832349
0.833792
0.863081
0.999843
0.999851
0.999841
0.999829
0.999825
0.999775
0.83067
0.831937
0.858953
0.99984
0.999852
0.999852
0.999851
0.999841
0.999372
0.903671
0.829402
0.908517
0.999794
0.999857
0.999854
0.999853
0.999842
0.999479
0.915224
0.826818
0.990518
0.998051
0.999857
0.999857
0.999857
0.999855
0.999816
0.992686
0.866198
0.827698
0.999858
0.999857
0.999857
0.999858
0.999857
0.999853
0.999805
0.988786
0.918601
0.920235
0.999856
0.999857
0.999858
0.999858
0.999853
0.999706
0.985026
0.977229
0.97515
0.962612
0.999849
0.999857
0.999859
0.993886
0.985545
0.997576
0.975651
0.886056
0.85891
0.861435
0.999845
0.984223
0.968612
0.981221
0.978717
0.886838
0.849293
0.851364
0.857281
0.981643
0.953774
0.954226
0.969099
0.964366
0.851172
0.847098
0.847112
0.89324
0.999899
0.999957
0.944215
0.959711
0.959378
0.842018
0.841748
0.849695
0.984253
0.999169
0.999957
0.999967
0.945971
0.945467
0.819654
0.822837
0.893868
0.999657
0.999501
0.999356
0.999227
0.997614
0.92787
0.802604
0.802367
0.895391
0.999725
0.999783
0.999629
0.998077
0.997542
0.997547
0.602726
0.654026
0.923957
0.999737
0.999814
0.99981
0.999518
0.997539
0.997542
0.997542
0.54157
0.720764
0.999722
0.999812
0.999816
0.999814
0.999786
0.999531
0.999501
0.999239
0.526064
0.889161
0.999812
0.999815
0.999815
0.999815
0.999819
0.999816
0.998835
0.995652
0.588209
0.995839
0.999818
0.999816
0.999814
0.999817
0.999821
0.998292
0.989501
0.989323
0.673427
0.999818
0.999819
0.999818
0.999818
0.999814
0.998424
0.98942
0.989258
0.989268
0.664372
0.999819
0.99982
0.999819
0.999818
0.999812
0.997704
0.989259
0.989259
0.989259
0.692537
0.99982
0.99982
0.99982
0.99982
0.999817
0.999805
0.998612
0.993279
0.989296
0.909014
0.999803
0.99982
0.999731
0.989811
0.983311
0.994183
0.999033
0.999045
0.998665
0.999744
0.999785
0.999784
0.991311
0.983232
0.983232
0.983232
0.983352
0.983517
0.991763
0.999678
0.999739
0.999691
0.998373
0.991932
0.986457
0.983318
0.984683
0.989282
0.992219
0.999684
0.999698
0.999672
0.999669
0.999643
0.999249
0.997789
0.997345
0.997205
0.995029
0.999669
0.999684
0.999669
0.999643
0.980056
0.951378
0.939136
0.934725
0.926611
0.897739
0.686012
0.737037
0.87024
0.753389
0.721632
0.721632
0.721632
0.722029
0.726154
0.819713
0.685249
0.685249
0.782956
0.959677
0.866118
0.728558
0.767253
0.876478
0.890313
0.888221
0.954558
0.95866
0.960951
0.960893
0.949107
0.909011
0.884638
0.842179
0.840781
0.840743
0.952941
0.948152
0.875578
0.828478
0.828449
0.828505
0.833056
0.887022
0.901449
0.893741
0.740613
0.763484
0.977738
0.99839
0.949372
0.91958
0.987515
1
1
1
0.999996
0.999996
0.999996
0.999995
0.999994
0.999994
0.999998
1
1
1
0.999996
0.999996
0.999995
0.999994
0.999991
0.999991
0.999995
0.999998
0.999998
0.999999
0.999955
0.999888
0.999862
0.999887
0.999929
0.999926
0.99995
0.999975
0.999986
0.99999
0.999099
0.998603
0.998474
0.999054
0.999122
0.999144
0.99946
0.999782
0.999844
0.999578
0.989406
0.960241
0.903311
0.864176
0.886602
0.946938
0.994046
0.997634
0.995323
0.998813
0.77472
0.474776
0.25945
0.164566
0.199077
0.356599
0.702915
0.935608
0.988753
0.997948
0.301419
0.0490087
0.00705551
0.00708945
0.00706413
0.00740068
0.189231
0.762317
0.982028
0.997867
0.0102478
0.00708626
0.00706472
0.00708329
0.00705235
0.00701989
0.0361189
0.608351
0.989555
0.998655
0.00742882
0.00708228
0.00709424
0.00706459
0.0070836
0.00710306
0.00940859
0.587447
0.995351
0.999419
0.00718011
0.00708812
0.00707084
0.00706859
0.00706654
0.00710947
0.102215
0.831285
0.996601
0.999518
0.00707935
0.00709059
0.0070883
0.00706832
0.00707656
0.00766293
0.385745
0.956604
0.998043
0.999705
0.00707084
0.00709629
0.00708523
0.0070305
0.00690574
0.0126035
0.751896
0.995724
0.999182
0.999875
0.00710602
0.00710452
0.00710299
0.00708605
0.00886233
0.506611
0.978486
0.998323
0.999746
0.999961
0.00710544
0.0070998
0.00710194
0.00760076
0.18393
0.860517
0.996925
0.9995
0.999919
0.999987
0.00710374
0.00710439
0.00710194
0.0394724
0.76988
0.996032
0.99938
0.999901
0.999984
0.999997
0.00710855
0.00703963
0.010834
0.63873
0.994901
0.999254
0.999887
0.999982
0.999997
0.999999
0.00714439
0.0144056
0.388212
0.965695
0.998847
0.999816
0.999972
0.999995
0.999998
0.999999
0.0660053
0.294747
0.781045
0.996127
0.999488
0.999925
0.999984
0.999997
0.999999
0.999999
0.373298
0.491792
0.80225
0.99578
0.999405
0.999891
0.999981
0.999996
0.999998
0.999999
0.516493
0.371032
0.77027
0.995916
0.999336
0.999885
0.99998
0.999996
0.999998
0.999998
0.184701
0.254224
0.795503
0.995193
0.99934
0.999888
0.999981
0.999996
0.999998
0.999998
0.172496
0.243751
0.749583
0.994091
0.999324
0.999892
0.999983
0.999997
0.999998
0.999998
0.168008
0.176065
0.655928
0.995766
0.999392
0.999914
0.999988
0.999998
0.999999
0.999998
0.165153
0.167227
0.654117
0.99669
0.999612
0.999951
0.999993
0.999999
0.999999
0.999999
0.163694
0.163236
0.838116
0.998469
0.999831
0.99998
0.999997
0.999999
1
0.999999
0.160339
0.382295
0.959226
0.999439
0.999941
0.999993
0.999999
1
1
0.999998
0.148223
0.684938
0.997984
0.999824
0.999982
0.999998
1
1
1
1
0.14503
0.877886
0.999423
0.999949
0.999995
0.999999
1
1
1
1
0.38771
0.972116
0.999836
0.999988
0.999999
1
1
1
1
1.00002
0.571972
0.995607
0.999935
0.999996
1
1
1
0.999999
1
1
0.658414
0.999263
0.999966
0.999999
1
1
1
0.999999
1
1
0.728805
0.99956
0.999981
0.999999
1
1
1
0.999999
1
1
0.794359
0.99979
0.999993
1
1
1
1
1
1
0.990229
0.858345
0.999931
0.999998
1
1
1
1
0.999999
1
0.931953
0.896372
0.999977
0.999999
1
1
1
1
0.999999
1
0.907257
0.924882
0.999993
1
1
1
1
1
0.999999
1
0.888792
0.94254
0.999998
1
1
1
1
1
0.999999
1
0.881554
0.950326
0.999997
1
1
1
1
1
0.999999
1
0.892681
0.955363
0.999997
1
1
1
1
1
0.999999
1
0.917457
0.959275
1
1
1
1
1
1
1
1
0.928377
0.967462
1
1
1
1
1
1
1
1
0.922437
0.969092
1
1
1
1
1
1
1
1
0.909041
0.955865
1
1
1
1
1
1
1
1
0.902799
0.936627
1
1
1
1
1
1
1
1
0.898145
0.910422
1
1
1
1
1
1
1
1
0.881571
0.884423
1
1
1
1
1
1
1
1
0.866646
0.871314
1
1
1
1
1
1
1
1
0.861182
0.870758
1
1
1
1
1
1
1
1
0.880728
0.91455
1
1
1
1
1
1
1
1
0.910833
0.95345
1
1
1
1
1
1
1
1
0.954314
1
1
1
1
1
1
1
1
1
1
1
1
1
1
1
1
0.999997
0.999999
1
1
0.999552
0.999468
0.999715
0.999999
1
1
0.999999
0.999999
1
1
0.999995
0.999998
0.999999
1
1
0.999999
0.999999
0.999999
0.999966
0.99988
0.999997
1
1
1
0.999993
0.99999
0.99999
0.99999
0.999991
0.999998
0.999999
0.999999
1
1
1
1
0.999995
0.999996
1
1
1
0.999603
0.999436
0.999436
0.99991
1
1
1
1
0.999995
0.999991
0.999994
0.999999
1
1
1
1
1
0.999978
0.999897
0.999997
1
1
1
0.999999
0.999998
0.999998
0.999999
0.999999
0.999998
0.999998
0.999999
1
1
0.999999
0.999994
0.999994
0.999998
1
1
1
0.99954
0.999436
0.999478
0.999955
1
1
1
1
0.999997
0.999996
0.999999
1
1
1
1
1
1
1
1
0.999988
0.999991
1
1
0.999997
0.999997
0.999999
0.999999
0.999998
0.999998
0.999999
1
0.999998
0.999839
0.999917
0.999998
0.999999
1
1
1
0.99988
0.999459
0.999438
0.999871
0.999999
1
1
1
1
1
1
1
0.998347
0.980584
0.981914
0.996144
1
1
1
1
0.999988
0.999994
1
1
0.999997
0.999996
0.999996
0.999997
0.999999
1
1
1
0.999866
0.999797
0.999809
0.999979
1
1
1
1
0.999712
0.999464
0.999815
0.999998
1
1
1
1
1
1
1
0.999577
0.980727
0.978429
0.978416
0.978416
0.98377
0.996299
0.991996
0.988852
0.999988
0.999999
1
1
0.999994
0.999996
0.999999
0.999999
1
1
1
0.999838
0.999796
0.999797
0.99984
0.999992
1
1
1
0.999858
0.999654
0.999798
0.999998
1
1
1
1
0.999963
0.999976
0.999999
1
1
0.985162
0.978416
0.978416
0.978416
0.978416
0.978432
0.97848
0.978522
0.999998
1
1
0.999999
0.999994
0.999995
0.999999
1
1
0.99997
0.999805
0.999796
0.999797
0.999836
0.999983
0.999999
1
1
1
0.999842
0.99973
0.999969
1
1
1
0.988162
0.965247
0.994037
0.999994
0.999995
1
1
0.99744
0.995854
0.995156
0.993703
0.99296
0.985259
0.979656
0.98677
1
0.999997
0.999935
0.999929
0.999937
0.999995
1
1
0.999975
0.999802
0.999798
0.999857
0.999904
0.999949
0.999998
1
1
1
1
0.999969
0.99979
0.999907
1
1
0.999123
0.956489
0.951338
0.972664
0.999607
1
1
1
0.999072
0.998798
0.998775
0.993531
0.994454
0.997393
0.997429
0.998874
0.999292
0.999598
0.999956
0.999974
0.99999
0.999999
1
1
0.99996
0.99985
0.99992
0.999987
0.999973
0.999963
0.999992
1
1
1
1
0.999941
0.999792
0.999871
0.999997
1
0.976407
0.951338
0.951332
0.952273
0.996294
0.999997
0.994992
0.974691
0.988732
0.997265
0.988605
0.973447
0.973252
0.984974
0.998193
0.998892
0.987186
0.998867
0.999996
0.999999
0.999999
0.999999
1
1
0.999991
0.999992
0.999991
0.999988
0.999992
0.999993
0.999998
1
1
1
0.999944
0.999822
0.99982
0.999935
1
1
0.967153
0.951332
0.951328
0.95889
0.99613
0.992116
0.973219
0.972834
0.980605
0.997326
0.985331
0.972941
0.972941
0.972941
0.983878
0.998532
0.997405
0.999894
0.999999
1
1
1
1
1
0.999991
0.999993
0.999997
0.999996
0.999999
0.999999
0.999999
0.999934
0.999947
0.999964
0.999883
0.99989
0.999961
0.999999
1
1
0.97801
0.951328
0.951324
0.983281
0.994572
0.972785
0.97275
0.973334
0.989994
0.998956
0.995955
0.989683
0.975813
0.972947
0.973339
0.997868
0.999993
0.999999
1
1
1
1
0.99974
0.999841
0.999992
0.999997
0.999999
0.999999
0.999999
0.996808
0.993026
0.998478
0.999965
0.99997
0.999926
0.999989
0.999989
0.999986
0.999993
1
0.997258
0.962031
0.97564
0.999606
0.99247
0.978662
0.983836
0.994843
0.999254
0.99976
0.999825
0.999859
0.996711
0.979666
0.985035
0.998787
0.999999
1
1
1
1
0.999682
0.999562
0.99975
0.999995
0.999999
0.999999
0.999999
0.993585
0.906183
0.931135
0.996589
0.999981
0.99998
0.99998
0.999556
0.999431
0.999854
0.99999
1
1
0.997684
0.9997
0.999966
0.996464
0.998753
0.999656
0.999955
0.999939
0.999873
0.99987
0.999867
0.999835
0.998932
0.999411
0.999589
1
1
1
0.999987
0.999633
0.999562
0.999562
0.999896
0.999998
0.999999
0.999999
0.973556
0.907723
0.89906
0.926389
0.997973
0.999985
0.999975
0.999563
0.99895
0.998955
0.999847
0.999991
0.999998
0.999998
0.999998
0.999997
0.999978
0.999858
0.999314
0.999495
0.999963
0.999963
0.999789
0.999796
0.999816
0.99983
0.999829
0.999827
0.999826
1
1
0.999996
0.99994
0.999599
0.999607
0.999881
0.999996
0.999998
0.999999
0.965678
0.899509
0.89906
0.899074
0.971687
0.999906
0.999988
0.999798
0.999137
0.99895
0.99946
0.999968
0.999997
0.999998
0.999998
0.999998
0.999998
0.999998
0.999991
0.999582
0.999694
0.999963
0.999963
0.999702
0.999117
0.999551
0.999829
0.999828
0.999827
0.999827
0.99995
0.999998
0.999998
0.99981
0.999847
0.999954
0.999999
0.999998
0.999998
0.999949
0.941907
0.899463
0.919038
0.970565
0.999976
0.999992
0.999991
0.999911
0.999569
0.999261
0.999992
0.999998
0.999998
0.999998
0.994147
0.923576
0.918599
0.988535
0.997853
0.999963
0.999962
0.999963
0.999963
0.99938
0.999117
0.999375
0.999828
0.999827
0.999827
0.999826
0.99999
0.999998
0.999667
0.999667
0.999977
0.999999
0.999999
0.999999
0.999998
0.99138
0.955005
0.966582
0.994354
0.999988
0.999992
0.999992
0.999992
0.999867
0.999225
0.999892
0.999995
0.999997
0.963976
0.888609
0.824519
0.81404
0.814538
0.88607
0.999963
0.999963
0.999963
0.999963
0.999485
0.999242
0.999327
0.999943
0.998565
0.994395
0.987289
0.999826
0.999983
0.999639
0.999481
0.999701
0.999998
0.999998
0.999999
0.999998
0.982356
0.973234
0.989616
0.999901
0.999951
0.999968
0.999988
0.972263
0.962696
0.999896
0.999823
0.99989
0.974945
0.862721
0.813744
0.81374
0.81385
0.814006
0.814035
0.938987
0.999962
0.999963
0.999963
0.999638
0.999346
0.999535
0.999961
0.999975
0.963417
0.865787
0.83868
0.858396
0.99939
0.999391
0.999851
0.999939
0.999998
0.999984
0.91258
0.841244
0.962649
0.999671
0.999807
0.999829
0.999901
0.974593
0.917157
0.917726
0.924761
0.99835
0.999847
0.983479
0.837302
0.813744
0.81374
0.813739
0.813739
0.885223
0.939524
0.997562
0.999963
0.999963
0.999953
0.999626
0.999532
0.999984
0.999984
0.999664
0.908566
0.836551
0.836547
0.836557
0.999389
0.999747
0.999847
0.99986
0.909433
0.825618
0.827237
0.837641
0.994509
0.999625
0.999726
0.985047
0.921411
0.917097
0.917097
0.917141
0.980832
0.999931
0.999907
0.996195
0.879409
0.814041
0.846201
0.934591
0.950757
0.99627
0.999807
0.999799
0.999799
0.999799
0.999848
0.999982
0.999982
0.999984
0.999984
0.999978
0.94831
0.836549
0.836551
0.836551
0.99968
0.999741
0.913078
0.821897
0.823512
0.825187
0.838778
0.991205
0.998569
0.999248
0.947497
0.917874
0.91783
0.917442
0.950989
0.999929
0.999801
0.999932
0.999931
0.998023
0.991811
0.985732
0.992167
0.999334
0.999771
0.99981
0.999816
0.999817
0.999949
0.999959
0.999974
0.999986
0.999986
0.999986
0.999734
0.995491
0.984562
0.929365
0.874264
0.870649
0.961731
0.828701
0.821837
0.821837
0.821837
0.917076
0.992052
0.998413
0.997386
0.945608
0.919013
0.91831
0.93718
0.999784
0.998261
0.999932
0.999932
0.999932
0.999932
0.999404
0.996579
0.995189
0.997917
0.99906
0.999098
0.999157
0.998827
0.999985
0.999986
0.999986
0.999986
0.999986
0.999986
0.999986
0.99878
0.99133
0.990671
0.996619
0.992181
0.990486
0.823864
0.823674
0.82266
0.91403
0.987207
0.998178
0.99885
0.998729
0.990771
0.923528
0.919338
0.967534
0.999907
0.999921
0.99993
0.999931
0.999932
0.999912
0.996949
0.945734
0.912593
0.950841
0.997851
0.983051
0.912995
0.823182
0.822994
0.823826
0.884942
0.955072
0.98629
0.999986
0.999986
0.999986
0.999985
0.999955
0.998659
0.996659
0.996617
0.99584
0.825202
0.853191
0.995132
0.9987
0.998909
0.998909
0.998882
0.998854
0.987288
0.967959
0.987431
0.999841
0.999872
0.999769
0.999921
0.980046
0.889987
0.889971
0.889971
0.890059
0.922338
0.999661
0.94302
0.837738
0.837738
0.838108
0.839063
0.824129
0.824147
0.837061
0.925402
0.894064
0.96214
0.993613
0.987431
0.985944
0.966981
0.912107
0.87253
0.899479
0.885418
0.998737
0.99883
0.998842
0.998909
0.998917
0.998799
0.996897
0.995696
0.995718
0.995518
0.995355
0.948608
0.944747
0.999745
0.999923
0.994315
0.955639
0.933566
0.990336
0.999997
0.999997
0.991462
0.945427
0.944165
0.999854
0.999759
0.998683
0.98552
0.758081
0.562986
0.564196
0.596966
0.634806
0.635637
0.636998
0.678349
0.815061
0.688092
0.688092
0.994225
0.99528
0.976131
0.965407
0.974289
0.998909
0.998902
0.998808
0.996499
0.796304
0.576153
0.582202
0.769189
0.999994
0.999996
0.999997
0.999997
0.999997
0.999997
0.999997
0.999997
0.999997
0.999997
0.999996
0.999993
0.999973
0.999724
0.947588
0.613135
0.56372
0.56306
0.56372
0.564855
0.772182
0.847656
0.845859
0.838652
0.820224
0.88658
0.889462
0.916459
0.917605
0.920764
0.980402
0.992512
0.998902
0.819013
0.581557
0.566323
0.569272
0.573133
0.574173
0.820173
0.999996
0.999996
0.999996
0.999994
0.999994
0.999996
0.999997
0.999997
0.999993
0.999989
0.999985
0.999958
0.999844
0.999692
0.999089
0.935575
0.611946
0.56372
0.605929
0.846916
0.847883
0.847656
0.847686
0.72477
0.551195
0.738715
0.967358
0.88821
0.99542
0.997671
0.995528
0.894027
0.586487
0.566273
0.566273
0.566273
0.566232
0.621796
0.963753
0.99934
0.998811
0.999996
0.999996
0.999996
0.999994
0.999992
0.999995
0.999979
0.999778
0.999104
0.998548
0.997857
0.996172
0.995868
0.993484
0.981998
0.929232
0.76308
0.618719
0.658368
0.649584
0.461426
0.30622
0.167333
0.0493724
0.187046
0.945473
0.998664
0.999439
0.999727
0.99872
0.912649
0.577511
0.567182
0.566218
0.69256
0.963993
0.97246
0.999881
0.999992
0.999941
0.99999
0.999996
0.999996
0.999995
0.999977
0.999732
0.99916
0.997744
0.966994
0.849498
0.701466
0.641147
0.680707
0.743903
0.628715
0.350762
0.211942
0.204669
0.20166
0.175201
0.105204
0.0495558
0.049387
0.0493893
0.153755
0.905454
0.999967
0.999972
0.999951
0.999717
0.983266
0.8945
0.846192
0.906856
0.986914
0.999985
0.99999
0.999994
0.999994
0.999994
0.999994
0.999996
0.999995
0.999992
0.999673
0.994692
0.964481
0.806577
0.447942
0.378608
0.376167
0.380396
0.401717
0.450924
0.549437
0.591143
0.565996
0.41786
0.261845
0.128481
0.0495873
0.0494276
0.049396
0.049388
0.412402
0.97402
0.999968
0.999974
0.999983
0.999718
0.99932
0.999563
0.999942
0.999971
0.99999
0.999993
0.999994
0.999994
0.999994
0.999994
0.999994
0.999995
0.999987
0.999917
0.956717
0.557691
0.417023
0.415554
0.421995
0.595548
0.888137
0.985325
0.99949
0.99949
0.99949
0.99949
0.99948
0.99941
0.950806
0.663112
0.243612
0.0495873
0.0494276
0.049396
0.529532
0.983443
0.997718
0.999705
0.999985
0.999987
0.999983
0.999981
0.999983
0.999989
0.999993
0.999993
0.999993
0.999994
0.999994
0.999995
0.999993
0.999941
0.954753
0.546367
0.432276
0.43122
0.450288
0.886336
0.998524
0.998893
0.999328
0.999477
0.99949
0.99949
0.99949
0.99949
0.999487
0.999468
0.9994
0.999058
0.894285
0.285635
0.0769575
0.114378
0.585546
0.989902
0.997553
0.997566
0.999303
0.999987
0.999987
0.999987
0.999987
0.999987
0.999988
0.999953
0.999945
0.999961
0.99999
0.999947
0.999546
0.941387
0.536056
0.462933
0.484623
0.945572
0.999839
0.999778
0.995876
0.979759
0.978008
0.994403
0.999478
0.999488
0.99949
0.99948
0.999008
0.999401
0.999058
0.99718
0.859047
0.292429
0.0914668
0.189299
0.702016
0.993987
0.997551
0.9994
0.999987
0.999987
0.999987
0.999987
0.99995
0.999761
0.999782
0.999966
0.999966
0.999962
0.999934
0.999439
0.927319
0.520783
0.494191
0.954953
0.999914
0.999961
0.99992
0.997431
0.957907
0.94789
0.947865
0.948046
0.991853
0.996801
0.999487
0.999511
0.997491
0.978494
0.968892
0.968261
0.838713
0.617819
0.627598
0.670703
0.96758
0.993987
0.999023
0.99881
0.998809
0.999185
0.999938
0.999986
0.999985
0.999981
0.99994
0.999966
0.922197
0.775618
0.710273
0.500693
0.169518
0.0434419
0.538462
0.999848
0.999961
0.999997
0.999962
0.992576
0.94793
0.947865
0.947858
0.947865
0.947875
0.967997
0.999511
0.999627
0.997561
0.93835
0.921227
0.921215
0.947487
0.977908
0.976302
0.976742
0.980111
0.993987
0.996914
0.99997
0.999974
0.999956
0.999944
0.999929
0.999666
0.844861
0.304481
0.138579
0.136979
0.0959269
0.0629273
0.0388406
0.030745
0.0308743
0.0757385
0.539897
0.98735
0.999999
0.999999
0.999996
0.985446
0.947936
0.947853
0.947898
0.94765
0.959453
0.997821
0.999707
0.999014
0.950281
0.921146
0.921607
0.944036
0.97897
0.977883
0.966226
0.760406
0.992484
0.99038
0.999687
0.999988
0.999982
0.999886
0.998886
0.883899
0.215629
0.0323372
0.0307732
0.0306821
0.0306268
0.0305716
0.0306433
0.0306338
0.0305778
0.0306911
0.136432
0.822664
0.999999
0.999999
0.999999
1
0.99731
0.965717
0.951312
0.979689
0.996932
0.998499
0.999744
0.999707
0.995107
0.942351
0.922259
0.927493
0.980941
0.949856
0.861144
0.728373
0.914568
0.989731
0.999359
0.999989
0.999989
0.999987
0.99995
0.999753
0.745553
0.108052
0.0306815
0.0306273
0.0306065
0.0305909
0.0305849
0.0306322
0.0306326
0.0306446
0.160412
0.849846
0.999999
0.999999
0.999999
1
1
1
1
1
1
0.999995
0.999772
0.999565
0.999392
0.999194
0.971556
0.981219
0.996385
0.899636
0.728735
0.728373
0.820937
0.989797
0.999524
0.999989
0.999989
0.999989
0.999958
0.999779
0.999756
0.999666
0.868868
0.268405
0.0305903
0.0305852
0.03059
0.0305567
0.0305901
0.1166
0.75234
0.999988
0.999999
0.999992
0.99999
0.999988
0.999999
1
1
1
0.999998
0.999124
0.996872
0.994078
0.995912
0.998809
0.998804
0.99879
0.99879
0.897443
0.728575
0.728373
0.83497
0.990691
0.99994
0.999989
0.999989
0.999989
0.999911
0.999689
0.99969
0.999681
0.99953
0.990682
0.903002
0.748238
0.66206
0.667506
0.788789
0.942555
0.999986
0.999997
0.999998
0.99999
0.999964
0.999969
0.999993
1
1
1
0.999999
0.998587
0.991206
0.989824
0.989832
0.992358
0.998324
0.998804
0.998792
0.975202
0.792656
0.728575
0.949566
0.999112
0.999912
0.999989
0.999989
0.999989
0.999966
0.999806
0.996703
0.992498
0.993322
0.997611
0.998259
0.99845
0.998677
0.999922
0.999946
0.99996
0.999974
0.999988
0.999997
0.999992
0.99996
0.999973
0.999992
0.999999
0.999999
0.999999
0.999999
0.999811
0.99384
0.98988
0.989824
0.989831
0.990302
0.99577
0.998929
0.999568
0.985698
0.758625
0.958591
0.999977
0.999983
0.999989
0.999989
0.999921
0.99974
0.999163
0.995169
0.977866
0.967098
0.965115
0.9407
0.945419
0.960217
0.980403
0.997873
0.999946
0.999929
0.99987
0.999913
0.999981
0.999959
0.999956
0.999977
0.999996
0.999998
0.999999
0.999999
0.999999
0.999998
0.998167
0.992623
0.989802
0.989779
0.989788
0.997074
0.999605
0.999602
0.987963
0.964371
0.996449
0.99848
0.999305
0.999619
0.999833
0.999721
0.99957
0.999232
0.999926
0.999926
0.994985
0.900733
0.831659
0.827501
0.820802
0.819006
0.854751
0.893534
0.937115
0.984316
0.998838
0.999362
0.999436
0.999723
0.999926
0.999962
0.999978
0.999996
0.999998
0.999998
0.999997
0.999996
0.996624
0.989878
0.989779
0.990634
0.998901
0.999611
0.999607
0.999457
0.98245
0.986967
0.992553
0.98841
0.983244
0.989479
0.998747
0.999746
0.999888
0.999927
0.999928
0.999928
0.999928
0.999928
0.967299
0.736767
0.66702
0.665356
0.657724
0.65486
0.766395
0.851854
0.9198
0.98278
0.998016
0.998749
0.999325
0.999813
0.999966
0.999993
0.999996
0.999996
0.999996
0.997558
0.9898
0.989904
0.99756
0.999051
0.999611
0.999602
0.827809
0.807625
0.786956
0.757523
0.723631
0.771749
0.937104
0.999142
0.999839
0.999922
0.999927
0.999928
0.999928
0.999927
0.999887
0.999877
0.999891
0.999894
0.943286
0.606039
0.46331
0.457208
0.458306
0.523867
0.727943
0.86706
0.962489
0.996903
0.999155
0.999885
0.999988
0.999995
0.999996
0.999996
0.994654
0.989977
0.9979
0.9987
0.999602
0.9995
0.841025
0.772085
0.687794
0.687684
0.687684
0.687684
0.738104
0.957225
0.997033
0.999621
0.999741
0.999922
0.999918
0.999564
0.998839
0.999386
0.999629
0.999914
0.999935
0.999938
0.999938
0.996454
0.585351
0.248402
0.232184
0.22154
0.408903
0.746456
0.953881
0.999279
0.99987
0.999977
0.999994
0.999995
0.999491
0.999054
0.999439
0.999906
0.998311
0.958426
0.898412
0.897069
0.7708
0.687749
0.687625
0.68772
0.693735
0.831515
0.900947
0.962591
0.998832
0.999858
0.992409
0.947875
0.91041
0.948136
0.992694
0.999644
0.999917
0.999935
0.99994
0.999942
0.999942
0.999942
0.756544
0.205023
0.178215
0.178973
0.329311
0.831824
0.996793
0.999741
0.99996
0.999992
0.999953
0.999939
0.999928
0.99992
0.979306
0.89758
0.840782
0.882424
0.935207
0.913772
0.894307
0.913997
0.920081
0.832991
0.830321
0.865745
0.991885
0.999266
0.907365
0.885004
0.884811
0.884926
0.913516
0.993762
0.999582
0.999878
0.999944
0.99994
0.999942
0.999942
0.999942
0.994901
0.481805
0.178973
0.180988
0.197252
0.678144
0.989403
0.999557
0.999345
0.999649
0.999894
0.999911
0.999907
0.94382
0.897472
0.897441
0.933249
1
1
1
1
1
0.992962
0.896475
0.953093
1
0.99134
0.915187
0.886108
0.885004
0.884774
0.894356
0.983598
0.999668
0.999938
0.999992
0.99993
0.999744
0.999867
0.999942
0.999935
0.999824
0.690637
0.185792
0.188266
0.185116
0.542422
0.913684
0.995509
0.99968
0.999796
0.999878
0.999896
0.928748
0.89746
1
1
1
1
1
1
1
1
1
1
1
1
1
0.966415
0.888292
0.940008
0.9996
1.00001
1
1
1
0.999985
0.99915
0.999121
0.999692
0.999882
0.999837
0.999779
0.856443
0.249541
0.176232
0.176755
0.235619
0.769782
0.998147
0.999742
0.999862
0.999883
0.927767
0.89746
1
1
1
1
1
1
1
1
1
1
1
1
1
1
1
1
1
1
1
1
1
1
1
1
0.986832
0.891655
0.945577
0.995324
0.988269
0.887877
0.276767
0.176336
0.176497
0.194046
0.767532
0.999101
0.999813
0.999868
0.927436
0.89746
0.999999
0.999998
1
1
1
1
1
1
1
1
1
1
1
1
1
1
1
1
1
1
1
1
1
1
1
0.896445
0.843077
0.839677
0.965535
0.960492
0.882716
0.281833
0.176867
0.178084
0.310921
0.911897
0.999207
0.9961
0.928286
0.909646
0.999962
0.999987
0.999998
1
1
1
1
1
1
1
1
1
1
1
1
1
1
1
1
1
0.999999
1
1
1
1
0.984667
0.837979
0.832361
0.831007
0.921995
0.918777
0.853973
0.28926
0.179265
0.186719
0.680431
0.995359
0.995403
0.937183
0.910752
0.999869
0.999975
0.999996
1
1
1
1
1
1
1
1
1
1
0.999999
0.999999
0.999999
0.999998
0.999996
0.999997
0.999997
0.999997
0.999998
1
1
1
1
0.975747
0.831007
0.83045
0.829892
0.896176
0.92479
0.824591
0.242003
0.189535
0.42838
0.965751
0.994291
0.942868
0.911745
0.999778
0.999965
0.999994
0.999999
1
1
1
1
1
1
1
0.999998
0.999996
0.999993
0.99999
0.999987
0.999969
0.999956
0.999966
0.999965
0.999964
0.999979
0.999995
0.999999
1
0.999999
0.999974
0.978788
0.830088
0.828908
0.827924
0.930925
0.960551
0.565604
0.196678
0.297121
0.871853
0.992789
0.948554
0.912842
0.999737
0.999961
0.999993
0.999999
1
1
1
1
1
1
0.999998
0.999988
0.99997
0.999935
0.999887
0.99985
0.999668
0.999708
0.999827
0.999522
0.999418
0.999726
0.999995
0.999998
0.999997
0.999995
0.999994
0.999938
0.941421
0.827924
0.827924
0.894891
0.966506
0.843294
0.286723
0.182653
0.735562
0.987152
0.964407
0.916166
0.999735
0.999963
0.999994
0.999999
1
1
1
1
1
0.999998
0.999985
0.999915
0.999746
0.999421
0.998931
0.989598
0.992309
0.991375
0.965563
0.966786
0.977494
0.997054
0.999965
0.999991
0.999995
0.999992
0.999988
0.999981
0.999885
0.867298
0.827924
0.845602
0.97622
0.949732
0.37567
0.170893
0.594997
0.975402
0.966095
0.914382
0.999828
0.999975
0.999996
0.999999
1
1
1
1
0.999999
0.99999
0.999898
0.99947
0.998699
0.967484
0.884113
0.656839
0.673247
0.721171
0.489819
0.483177
0.767156
0.992545
0.961953
0.617066
0.534115
0.881613
0.999982
0.999886
0.998805
0.929302
0.829969
0.846359
0.982695
0.97822
0.418097
0.159109
0.478307
0.960367
0.964292
0.913739
0.999908
0.999985
0.999997
0.999999
1
1
1
1
0.999997
0.999942
0.999398
0.988356
0.905549
0.568652
0.455178
0.455258
0.456031
0.455993
0.456365
0.457339
0.45794
0.485715
0.473709
0.44191
0.442199
0.441859
0.662167
0.994246
0.997873
0.994703
0.850317
0.888667
0.993621
0.988039
0.410982
0.1472
0.380575
0.939897
0.96305
0.913653
0.999924
0.999987
0.999997
0.999999
1
1
1
1
0.999983
0.999682
0.996478
0.74518
0.448145
0.455681
0.455557
0.454546
0.455847
0.456582
0.544785
0.670158
0.478855
0.442627
0.442006
0.441193
0.441273
0.440566
0.441675
0.67004
0.987817
0.98833
0.974073
0.983821
0.997145
0.995126
0.394991
0.135406
0.303456
0.911368
0.960528
0.913663
0.999952
0.999992
0.999998
0.999999
0.999999
1
1
0.999999
0.999949
0.998279
0.742936
0.455601
0.455923
0.456368
0.45525
0.453072
0.454064
0.511545
0.879674
0.995097
0.981704
0.627779
0.437173
0.439542
0.43964
0.437762
0.440282
0.440436
0.806653
0.990255
0.995393
0.997185
0.997646
0.996244
0.378166
0.124048
0.230716
0.867703
0.956818
0.914468
0.999979
0.999995
0.999998
0.999998
0.999999
1
0.999999
1.00004
0.999465
0.823448
0.47531
0.463937
0.458354
0.455389
0.466383
0.592314
0.905711
0.995467
0.995631
0.995686
0.995682
0.919088
0.786433
0.847753
0.752554
0.437317
0.439105
0.441797
0.593134
0.96935
0.997093
0.997652
0.997764
0.993437
0.364535
0.113465
0.198205
0.8384
0.954344
0.913825
0.999993
0.999998
0.999998
0.999998
0.999999
0.999998
1.00002
0.999881
0.973248
0.554499
0.477778
0.470922
0.463004
0.629877
0.983153
0.99449
0.995559
0.995639
0.995688
0.995701
0.995709
0.99594
0.995568
0.995624
0.994818
0.682412
0.444627
0.444259
0.459257
0.917259
0.997313
0.997773
0.997819
0.991105
0.357284
0.103614
0.20135
0.834802
0.952111
0.913382
0.999997
0.999999
0.999998
0.999998
0.999999
0.999997
0.999974
0.999688
0.702016
0.499567
0.489743
0.483695
0.820189
0.991146
0.994493
0.995369
0.995613
0.995742
0.995701
0.995703
0.995705
0.995717
0.995859
0.996307
0.996278
0.909675
0.471427
0.447619
0.451482
0.827069
0.997298
0.997829
0.997866
0.993594
0.361597
0.095374
0.215693
0.840012
0.938927
0.913377
0.999999
0.999999
0.999999
0.999999
0.999997
1.00001
0.999865
0.907696
0.521389
0.516083
0.502607
0.848191
0.985855
0.988473
0.99086
0.993275
0.995314
0.993654
0.995688
0.987932
0.961876
0.989967
0.996311
0.996438
0.996441
0.977538
0.524906
0.451544
0.455031
0.794879
0.997317
0.997873
0.997901
0.989565
0.352254
0.0890222
0.253749
0.862202
0.89807
0.950476
0.999999
0.999999
0.999999
1
1.00001
0.999933
0.999516
0.609132
0.48665
0.50368
0.8406
0.980061
0.982803
0.985855
0.988474
0.942131
0.880937
0.750194
0.409357
0.547735
0.937295
0.995819
0.996451
0.996506
0.996471
0.977167
0.532291
0.455849
0.456786
0.821111
0.996877
0.997901
0.997919
0.977417
0.32459
0.0862619
0.344195
0.901427
0.912293
0.953465
0.999999
0.999999
0.999999
0.999997
1.00001
0.999879
0.931074
0.462452
0.463524
0.698816