/*--------------------------------*- C++ -*----------------------------------*\
  =========                 |
  \\      /  F ield         | OpenFOAM: The Open Source CFD Toolbox
   \\    /   O peration     | Website:  https://openfoam.org
    \\  /    A nd           | Version:  8
     \\/     M anipulation  |
\*---------------------------------------------------------------------------*/
FoamFile
{
    version     2.0;
    format      ascii;
    class       volScalarField;
    location    "4.1";
    object      p_rgh;
}
// * * * * * * * * * * * * * * * * * * * * * * * * * * * * * * * * * * * * * //

dimensions      [1 -1 -2 0 0 0 0];

internalField   nonuniform List<scalar> 
9150
(
2566.32
2539.33
2513.81
2496.63
2488.33
2488.33
2496.63
2513.82
2539.35
2566.33
2557.08
2537.55
2521.88
2510.09
2504.11
2504.11
2510.09
2521.89
2537.56
2557.09
2547.43
2533.89
2525.33
2517.58
2513.47
2513.48
2517.59
2525.33
2533.9
2547.44
2542.33
2532.36
2526.86
2521.51
2518.54
2518.55
2521.52
2526.87
2532.36
2542.34
2540.65
2531.8
2527.18
2523.02
2520.58
2520.58
2523.02
2527.19
2531.81
2540.66
2101.23
2097.2
2122.49
2136.91
2143.64
2143.67
2137
2122.62
2097.39
2101.48
2291.15
2266.99
2261.66
2260.54
2260.72
2260.74
2260.59
2261.74
2267.08
2291.25
2415.38
2383.94
2368.02
2358.2
2353.58
2353.6
2358.23
2368.06
2383.99
2415.43
2515.6
2473.35
2445.51
2428.21
2419.74
2419.75
2428.23
2445.53
2473.38
2515.62
2585.55
2533.06
2494.45
2472.44
2462.33
2462.33
2472.45
2494.46
2533.07
2585.56
1916.98
1953.72
1942.8
1952.33
1948.02
1948.54
1952.58
1943.84
1955.14
1919.96
1945.28
1962.91
1943.37
1951.77
1947.84
1948.2
1951.7
1944.76
1963.97
1947.36
1921.32
1953.15
1922.12
1929.38
1932.81
1932.89
1929.57
1922.98
1953.96
1922.68
1762.11
1887.58
1905.7
1924.11
1940.43
1940.49
1924.39
1906.26
1888.04
1763.17
1639.22
1876.17
1973.07
2003.31
2019.02
2019.07
2003.48
1973.33
1876.48
1639.95
1819.33
1819.34
1819.37
1819.4
1819.43
1819.47
1819.52
1819.57
1819.62
1819.68
1819.31
1819.34
1819.38
1819.42
1819.47
1819.52
1819.58
1819.63
1819.7
1819.76
1819.32
1819.36
1819.4
1819.45
1819.51
1819.57
1819.63
1819.7
1819.77
1819.83
1819.28
1819.33
1819.39
1819.45
1819.52
1819.58
1819.66
1819.73
1819.81
1819.88
1819.23
1819.29
1819.36
1819.43
1819.5
1819.58
1819.66
1819.74
1819.82
1819.91
1819.16
1819.23
1819.3
1819.38
1819.46
1819.54
1819.63
1819.72
1819.81
1819.91
1819.07
1819.14
1819.22
1819.31
1819.4
1819.49
1819.59
1819.69
1819.79
1819.89
1818.97
1819.05
1819.14
1819.23
1819.33
1819.43
1819.53
1819.63
1819.74
1819.85
1818.86
1818.95
1819.04
1819.13
1819.24
1819.34
1819.45
1819.56
1819.66
1819.71
1818.76
1818.84
1818.93
1819.03
1819.16
1819.29
1819.39
1819.48
1818.65
1817.24
1818.71
1818.79
1818.81
1818.91
1819.12
1818.49
1813.45
1813.65
1813.94
1815.78
1818.82
1818.58
1809.3
1804.29
1804.72
1805.22
1809.08
1816.25
1818.45
1820.07
1802.75
1803.04
1803.28
1803.68
1803.9
1812.83
1819.13
1820.49
1820.69
1820.8
1806.7
1805.84
1808.47
1813.84
1818.74
1820.78
1820.77
1820.76
1820.88
1821.06
1819.94
1819.95
1820.38
1820.81
1820.86
1820.92
1820.93
1820.94
1821.05
1821.28
1820.5
1820.64
1820.74
1820.84
1820.85
1820.89
1821
1821.19
1821.27
1821.45
1820.44
1820.59
1820.66
1820.68
1820.82
1821.04
1821.21
1821.35
1821.12
1821.61
1820.43
1820.48
1820.6
1820.82
1821
1821.16
1819.51
1820.27
1821.74
1822
1820.43
1820.56
1820.73
1820.97
1821.27
1814.82
1815.36
1819.56
1822.23
1822.43
1820.63
1820.77
1820.84
1818.08
1808.6
1809.01
1815.65
1822.53
1822.84
1822.94
1821.27
1818.84
1773.27
1771.05
1793.33
1822.49
1821.89
1823.37
1823.71
1823.91
1782.96
1753.65
1755.97
1767.13
1823.69
1823.93
1824.28
1824.58
1824.84
1825.12
1750.84
1751.94
1763.65
1825.19
1825.23
1825.43
1825.67
1825.88
1825.95
1784.64
1747.63
1783.84
1826.08
1826.25
1826.51
1826.8
1827.09
1827.3
1789.56
1750.8
1822.03
1826.03
1827.04
1827.32
1827.63
1827.96
1828.32
1825.44
1766.75
1751.93
1826.75
1827.24
1827.67
1828.06
1828.42
1828.75
1829.07
1823.8
1790.61
1791.33
1827.27
1827.77
1828.25
1828.71
1829.19
1829.55
1822.34
1819.04
1819.05
1812.63
1827.36
1827.94
1828.53
1825.86
1822
1829.16
1817.62
1770.35
1758.29
1760.7
1827.39
1819.16
1811.59
1819.05
1818.13
1767.67
1749.35
1751.59
1754.88
1823.5
1801.41
1802.61
1811.94
1809.67
1745.74
1744.96
1745.74
1771.95
1833.78
1834.18
1795.1
1805.54
1806.33
1736.9
1738.27
1743.02
1823.86
1833.28
1833.99
1834.42
1795.18
1796.19
1720.72
1724.41
1764.35
1831.22
1831.97
1832.64
1833.25
1832.94
1781.16
1705.03
1707.55
1762.32
1829.68
1830.78
1831.73
1831.68
1832.21
1833
1576.34
1607.91
1778.37
1829.24
1830.14
1831.19
1832.03
1831.73
1832.63
1833.49
1527.19
1639.99
1829.13
1830.12
1831.18
1832.21
1833.17
1833.97
1834.9
1835.65
1503.5
1755.48
1832.33
1832.67
1833.24
1833.94
1834.75
1835.63
1835.87
1834.72
1538.92
1831.77
1834.62
1834.78
1835.21
1835.84
1836.63
1836.46
1831.29
1832.34
1594.9
1836.25
1836.65
1836.86
1837.27
1837.89
1837.66
1832.09
1833.05
1834.23
1584.25
1838.06
1838.68
1838.94
1839.38
1840.06
1839.3
1834.06
1835.2
1836.47
1602.5
1840.19
1840.72
1841
1841.49
1842.27
1843.31
1843.49
1840.47
1838.95
1769.81
1841.91
1842.3
1842.69
1835.7
1831.87
1841.08
1846.3
1847.72
1848.85
1839.77
1841.22
1842.54
1836.99
1831.91
1833.3
1834.74
1836.39
1838.12
1846.26
1838.55
1840.92
1843.01
1843.87
1840.39
1837.57
1836.83
1839.88
1845.61
1849.83
1838.13
1840.9
1843.49
1845.78
1848
1849.99
1851.21
1853.51
1856.06
1856.37
1836.5
1841.37
1845.92
1847.84
1833.07
1811.85
1804.98
1804.55
1801.73
1779.56
1567.07
1613.7
1738.78
1637.01
1614.15
1617.34
1621.24
1625.63
1631.98
1715.8
1560.88
1563.61
1652.22
1826.16
1737.34
1620.5
1655.77
1755.83
1773.35
1775.74
1795.43
1802.25
1808.93
1815.19
1808.83
1775.05
1756.86
1722.25
1726.05
1730.74
1786.4
1788.43
1722.84
1684.47
1690.57
1694.93
1703.53
1760.61
1779.28
1775.94
1570.83
1596.54
1809.68
1836.82
1791.67
1769.73
1840.83
1860.13
1866.22
1871.5
1802.3
1805.71
1811.43
1818.85
1826.15
1833.5
1841.59
1850.2
1858.39
1865.86
1781.29
1785.98
1792.26
1799.99
1808.86
1818.65
1829.14
1839.71
1849.81
1859.08
1758.25
1761.84
1767.56
1775.68
1786.08
1798.27
1811.6
1825.06
1837.81
1849.35
1730.84
1731.45
1735.29
1743.95
1756.7
1772.81
1790.44
1807.72
1823.53
1837.25
1690.13
1652.73
1587.84
1548.89
1589.79
1684.69
1765.28
1792.21
1807.14
1825.46
1433.18
1099.72
863.294
762.927
805.705
1001.3
1419.54
1711.84
1792.98
1816.49
907.737
627.432
583.11
584.834
587.467
594.683
815.599
1497.23
1779.23
1811.64
585.114
581.147
581.124
581.323
581.537
582.633
620.955
1302.19
1779.08
1806.47
579.097
578.937
579.063
579.175
579.364
579.905
584.808
1271.57
1779.93
1799.29
575.402
575.755
575.932
576.029
576.255
577.969
692.958
1562.6
1778.7
1790.15
572.196
572.456
572.685
572.838
573.012
574.266
1029.16
1721.03
1779.28
1784.46
568.628
569.028
569.489
570.076
570.472
576.141
1470.04
1771.6
1778.54
1780.54
563.787
564.548
565.484
566.774
569.406
1174.91
1749.73
1774.89
1777.46
1777.97
558.046
558.994
560.246
561.869
776.578
1608.1
1774.58
1777.76
1777.82
1776.79
551.813
552.784
553.969
591.952
1501.14
1776.98
1780.02
1780.26
1778.68
1776.25
545.486
546.091
548.938
1339.36
1779.41
1782.59
1783.94
1782.6
1779.7
1776.03
537.078
544.427
1011.86
1743.45
1783.91
1787.48
1787.28
1784.63
1780.73
1775.92
598.069
874.443
1498.64
1782.91
1791.74
1793.15
1791.14
1787.4
1782.36
1776.18
963.079
1106.9
1532.08
1799.37
1804.65
1802.25
1797.93
1792.24
1785.24
1777.11
1142.74
965.549
1513.52
1821.97
1820.73
1814.21
1806.69
1798.14
1788.52
1778.03
703.052
813.718
1563.62
1837.74
1834
1824.13
1813.69
1802.52
1790.53
1777.97
680.713
783.79
1501.26
1844.76
1841.81
1829.88
1817.48
1804.47
1790.74
1776.55
665.436
681.321
1369.94
1852.65
1846.44
1832.91
1818.98
1804.58
1789.52
1774.13
655.172
661.384
1364.21
1853.5
1846.24
1832.53
1818.06
1802.95
1787.18
1771.11
649.189
646.564
1626.44
1853.2
1843.79
1830.48
1815.99
1800.54
1784.38
1768.03
640.592
954.315
1800.14
1852.22
1842.58
1829.61
1814.72
1798.48
1781.38
1764.15
613.461
1414.63
1871.17
1860.77
1847.45
1832.61
1816.29
1798.68
1780.13
1760.93
597.169
1702.39
1876.19
1863.95
1850
1834.95
1818.71
1801.54
1783.99
1766.55
947.072
1837.8
1872.74
1862.36
1849.76
1835.56
1819.98
1803.61
1787.39
1772.14
1210.73
1868.78
1869.41
1860.27
1849.22
1836.31
1821.57
1805.5
1788.47
1770.73
1329.89
1868.76
1866.3
1859.64
1851
1840.28
1827.62
1813.53
1798.39
1784.07
1436.17
1871.02
1869.95
1865.08
1857.95
1848.79
1838.06
1826.43
1814.69
1806.21
1566.98
1890.57
1883.44
1876.37
1868.62
1859.83
1850.31
1840.64
1831.7
1810.92
1674.68
1899.11
1891.89
1884.99
1877.82
1869.94
1861.67
1853.58
1846.49
1731.94
1738.7
1904.62
1898.09
1891.79
1885.47
1878.63
1871.58
1864.81
1859.04
1703.73
1784.28
1906.47
1901.35
1896.27
1891.17
1885.58
1879.81
1874.25
1869.59
1683.01
1810.16
1906.25
1902.95
1899.35
1895.65
1891.46
1887
1882.63
1878.97
1679.72
1822.65
1906.73
1904.42
1901.95
1899.43
1896.51
1893.34
1890.22
1887.78
1707.19
1830.38
1908.4
1907.14
1905.16
1902.8
1900.12
1897.23
1894.55
1892.78
1753.15
1850.43
1917.34
1913.56
1910.08
1906.45
1902.75
1898.77
1894.71
1890.56
1762.05
1872.17
1923.71
1918.77
1914.56
1910.31
1906.13
1901.66
1897.11
1893.24
1754.07
1877.72
1927.08
1921.77
1917.66
1913.85
1910.34
1906.6
1902.43
1898.11
1729.96
1850.81
1926.22
1921.32
1917.91
1915.33
1913.45
1912.25
1912.26
1915.51
1745.16
1806.2
1921.54
1917.55
1914.9
1913.47
1912.4
1911.81
1912.65
1914.92
1726.22
1741.5
1912.97
1911.74
1910.33
1910.21
1909.68
1908.85
1909.17
1907.5
1679.02
1673.64
1902.5
1906.75
1907.18
1908.39
1908.45
1907.51
1907.32
1902.44
1642.93
1650.45
1900.43
1906.59
1907.97
1909.98
1910.65
1910.23
1910.66
1906.02
1639.45
1659.2
1905.39
1911.71
1913.93
1915.9
1916.8
1916.88
1916.91
1913.33
1685.03
1755.46
1923.1
1924.39
1925.67
1925.95
1926.76
1928.08
1928.3
1928.91
1751.88
1835.21
1951.82
1940.48
1940.4
1937.79
1938.4
1941.51
1941.44
1953.03
1839.69
1819.74
1819.81
1819.89
1819.96
1820.04
1820.12
1820.21
1820.29
1820.37
1820.45
1820.53
1820.6
1820.68
1820.74
1820.8
1820.86
1820.9
1820.94
1820.98
1821.01
1821.04
1821.07
1821.08
1821.11
1821.12
1821.13
1821.14
1821.14
1821.15
1821.14
1821.14
1821.16
1821.17
1821.17
1821.16
1821.16
1821.19
1821.21
1821.22
1821.22
1819.83
1819.9
1819.98
1820.06
1820.14
1820.22
1820.31
1820.39
1820.48
1820.57
1820.65
1820.73
1820.81
1820.89
1820.95
1821.01
1821.06
1821.1
1821.13
1821.16
1821.18
1821.19
1821.21
1821.23
1821.24
1821.25
1821.25
1821.25
1821.25
1821.26
1821.26
1821.27
1821.28
1821.27
1821.25
1821.23
1821.22
1821.23
1821.24
1821.25
1819.91
1819.99
1820.07
1820.16
1820.24
1820.33
1820.41
1820.5
1820.59
1820.68
1820.76
1820.85
1820.93
1821
1821.07
1821.13
1821.18
1821.22
1821.25
1821.28
1821.3
1821.29
1821.31
1821.32
1821.34
1821.34
1821.33
1821.32
1821.3
1821.29
1821.27
1821.26
1821.24
1821.2
1821.18
1821.2
1821.22
1821.23
1821.25
1821.28
1819.97
1820.05
1820.14
1820.23
1820.32
1820.41
1820.5
1820.59
1820.68
1820.77
1820.86
1820.95
1821.03
1821.1
1821.16
1821.23
1821.28
1821.31
1821.34
1821.37
1821.37
1821.37
1821.38
1821.4
1821.41
1821.4
1821.39
1821.37
1821.35
1821.33
1821.3
1821.27
1821.11
1820.4
1820.36
1820.95
1821.26
1821.3
1821.31
1821.35
1820
1820.09
1820.19
1820.28
1820.37
1820.47
1820.56
1820.66
1820.75
1820.84
1820.93
1821.02
1821.09
1821.17
1821.23
1821.3
1821.35
1821.39
1821.42
1821.44
1821.42
1821.43
1821.44
1821.45
1821.43
1821.42
1821.41
1821.41
1821.41
1821.41
1821.41
1821.38
1819.94
1819.89
1819.85
1819.7
1819.95
1821.21
1820.71
1820.52
1820.01
1820.11
1820.22
1820.32
1820.42
1820.52
1820.62
1820.72
1820.81
1820.91
1821
1821.07
1821.15
1821.23
1821.3
1821.37
1821.42
1821.46
1821.48
1821.48
1821.48
1821.48
1821.49
1821.47
1821.43
1821.36
1821.34
1821.38
1821.45
1821.48
1821.51
1821.54
1820.19
1819.7
1819.64
1819.56
1819.54
1819.57
1819.67
1819.77
1820
1820.12
1820.24
1820.35
1820.46
1820.56
1820.67
1820.77
1820.87
1820.96
1821.03
1821.12
1821.21
1821.29
1821.38
1821.44
1821.49
1821.53
1821.56
1821.56
1821.56
1821.58
1821.57
1821.54
1821.47
1819.98
1818.17
1820.66
1821.51
1821.58
1821.62
1821.68
1821.44
1821.35
1821.38
1821.23
1821.14
1820.1
1819.68
1820.49
1819.98
1820.12
1820.25
1820.37
1820.49
1820.61
1820.72
1820.83
1820.92
1821
1821.09
1821.18
1821.28
1821.36
1821.44
1821.51
1821.57
1821.62
1821.66
1821.68
1821.69
1821.73
1821.78
1821.82
1821.76
1816.02
1815.88
1817.77
1821.65
1821.76
1821.73
1821.73
1821.7
1821.78
1821.78
1821
1821.19
1821.87
1821.97
1822.24
1819.82
1820.07
1820.28
1820.43
1820.56
1820.68
1820.79
1820.9
1820.99
1821.07
1821.16
1821.26
1821.34
1821.41
1821.5
1821.57
1821.64
1821.7
1821.75
1821.79
1821.82
1821.87
1821.95
1822.02
1818.29
1814.47
1814.58
1814.52
1821.49
1822.24
1820.99
1818.36
1819.93
1821.78
1820.01
1818.16
1818.15
1819.7
1822.1
1822.32
1818.01
1820.03
1820.4
1820.54
1820.67
1820.79
1820.9
1821
1821.09
1821.17
1821.25
1821.31
1821.38
1821.44
1821.53
1821.62
1821.71
1821.78
1821.83
1821.87
1821.92
1822
1822.09
1822.19
1816.43
1813.88
1814
1814.9
1822.08
1821.09
1817.25
1817.45
1818.32
1822.17
1819.46
1817.57
1817.54
1817.45
1819.37
1822.51
1819.85
1820.46
1820.61
1820.73
1820.85
1820.95
1821.05
1821.14
1821.22
1821.29
1821.34
1821.37
1821.39
1821.42
1821.5
1821.61
1821.75
1821.85
1821.91
1821.97
1822.03
1822.08
1822.12
1822.19
1817.84
1813.64
1813.54
1819.26
1822.1
1816.9
1817.05
1817.11
1820.23
1822.37
1821.61
1820.34
1817.55
1817.22
1817.2
1822.67
1820.61
1820.73
1820.84
1820.95
1821.06
1821.16
1821.2
1821.3
1821.41
1821.46
1821.49
1821.47
1821.36
1820.56
1819.89
1821.29
1821.83
1821.97
1822.03
1822.09
1822.11
1822.12
1822.13
1822.13
1821.53
1815.08
1817.26
1822.91
1820.92
1818.14
1818.88
1821.25
1822.22
1822.36
1822.38
1822.41
1821.68
1818.35
1819.33
1822.59
1820.9
1821
1821.1
1821.2
1821.31
1821.34
1821.43
1821.56
1821.71
1821.79
1821.85
1821.89
1820.26
1801.89
1806.75
1821.11
1822.15
1822.24
1822.28
1822.18
1822.14
1822.19
1822.17
1822.13
1822.1
1821.61
1822.17
1822.35
1821.53
1821.97
1822.23
1822.31
1822.29
1822.25
1822.23
1822.21
1822.21
1822.05
1822.24
1822.5
1821.16
1821.26
1821.36
1821.47
1821.5
1821.61
1821.74
1821.96
1822.13
1822.27
1822.4
1815.71
1799.09
1798.3
1803.92
1822.26
1822.76
1822.73
1822.55
1822.34
1822.24
1822.32
1822.22
1822.08
1821.96
1821.89
1821.91
1822.02
1822.09
1822.02
1822.1
1822.23
1822.2
1822.1
1822.04
1821.99
1821.98
1822.03
1822.14
1822.38
1821.4
1821.51
1821.62
1821.73
1821.77
1821.91
1822.14
1822.35
1822.56
1822.78
1813.46
1796.12
1796.41
1796.37
1816.08
1823.65
1823.48
1823.27
1822.94
1822.73
1822.62
1822.52
1822.27
1821.98
1821.66
1821.29
1821.3
1821.6
1821.93
1822
1822.11
1822.19
1822.14
1821.95
1821.69
1821.66
1821.65
1821.68
1821.8
1822.17
1821.62
1821.76
1821.88
1821.95
1822.09
1822.26
1822.44
1822.65
1822.91
1823.24
1806.36
1796.49
1800.79
1815.78
1824.4
1824.17
1824
1823.84
1823.57
1823.26
1823.2
1822.87
1822.47
1822.1
1819.84
1798.77
1797.74
1817.61
1821.13
1822.12
1822.24
1822.24
1822.15
1821.79
1821.5
1821.28
1821.18
1821.11
1821.27
1821.75
1821.91
1822.05
1822.06
1822.17
1822.36
1822.46
1822.59
1822.83
1823.16
1820.55
1810.6
1813.8
1822.9
1824.88
1824.71
1824.52
1824.45
1824.43
1824.16
1824.15
1823.93
1823.68
1811.53
1786.86
1767.49
1765.61
1766.37
1786.92
1822.77
1822.77
1822.71
1822.57
1822.19
1821.81
1821.41
1821.09
1819.99
1818.25
1816.11
1821.15
1822.24
1822.25
1822.33
1822.47
1822.64
1822.64
1822.58
1822.82
1817.53
1815.81
1821.04
1825.14
1825.38
1825.49
1825.31
1815.86
1813.53
1825.23
1825.29
1824.99
1816.25
1778.48
1762.59
1762.98
1763.23
1763.83
1763.84
1803.8
1823.87
1823.59
1823.35
1822.99
1822.61
1822.27
1821.92
1821.23
1808.1
1775.9
1767.28
1773.48
1822.5
1822.68
1822.97
1823.11
1823.24
1823.44
1792.12
1772.63
1810.5
1824.87
1825.63
1826.09
1826.4
1817.25
1797.82
1798.89
1801.2
1826.84
1827.45
1820.68
1769.6
1761.92
1761.81
1761.42
1761.04
1785.49
1804.57
1824.41
1824.71
1824.32
1824.04
1823.69
1823.43
1823.33
1823.02
1822.51
1789.64
1764.63
1764.85
1765.08
1823.18
1823.55
1823.82
1824.02
1789.08
1759.82
1762.23
1766.44
1824.44
1826.75
1827.13
1821.69
1798.22
1797.41
1798.04
1798.34
1821.6
1828.68
1828.58
1826.76
1783.95
1762.07
1771.84
1804.21
1809.46
1826.1
1826.52
1825.63
1825.06
1824.71
1824.51
1824.42
1824.32
1824.27
1824.23
1824.24
1804.79
1763.83
1764.03
1763.9
1824.21
1824.56
1789.98
1755.63
1757.46
1758.67
1764.36
1824.44
1827.62
1827.93
1807.62
1796.46
1797.05
1797.29
1810.36
1830.32
1830.13
1829.98
1829.79
1828.8
1826.13
1823.53
1826.09
1828.64
1828.08
1826.82
1825.82
1825.18
1824.91
1824.76
1824.7
1824.69
1824.75
1824.86
1824.93
1823.47
1819.43
1798.27
1777.5
1776.18
1809.38
1754.76
1753.11
1754.64
1755.06
1794.14
1825.87
1828.63
1828.08
1806.88
1797.07
1797.29
1804.19
1831.24
1830.7
1831.35
1831.24
1831.07
1830.82
1830.29
1828.87
1828.08
1829
1828.65
1827.13
1825.47
1823.94
1824.16
1824.2
1824.38
1824.55
1824.71
1824.93
1825.24
1825.13
1822.71
1823.25
1827
1825.27
1824.06
1750.53
1751.28
1751.25
1790.62
1823.97
1829.11
1829.41
1829.34
1825.73
1798.19
1796.79
1816.48
1831.76
1832.17
1832.41
1832.4
1832.32
1832.22
1830.91
1808.31
1796.01
1809.93
1831.26
1823.15
1790.92
1753.47
1752.58
1751.54
1775.09
1804.86
1818.6
1824.68
1824.82
1825.13
1825.59
1826.59
1827.42
1827.45
1827.2
1826.42
1750.84
1761.82
1828.15
1829.91
1829.99
1829.98
1829.94
1829.89
1824.68
1816.09
1825.35
1831.89
1832.67
1833.27
1833.97
1825.09
1786.15
1786.8
1786.75
1785.91
1799.06
1836.27
1807.29
1760.8
1760.28
1758.51
1756.9
1748.44
1746.48
1749.32
1789.74
1774.47
1806.19
1821.33
1818.38
1818.9
1813.13
1788.93
1770.27
1781.41
1774.91
1830.13
1830.27
1830.24
1830.35
1830.46
1830.37
1829.41
1828.64
1827.93
1827.45
1827.99
1808.09
1808.89
1834.31
1835.23
1832.75
1814.9
1805.45
1831.2
1835.87
1835.62
1830.37
1809.04
1807.3
1833.44
1832.54
1829.98
1819.52
1710.04
1621.12
1622.53
1637.97
1656.19
1658.26
1661.06
1679.17
1751.34
1689.15
1690.61
1828.21
1829.12
1818.8
1814.59
1818.46
1831.49
1831.35
1831.91
1832.23
1730.72
1628.93
1634.64
1720.39
1834.42
1835.27
1835.9
1836.32
1836.59
1836.76
1836.9
1836.99
1836.88
1836.59
1836.33
1836.2
1836.11
1835.66
1807.88
1642.62
1619.38
1618.86
1618.92
1619.37
1718.66
1757.82
1754.16
1747.4
1738.88
1777.13
1778.54
1789.04
1790.85
1792.35
1822.02
1829.05
1832.58
1738.48
1619.67
1613.79
1617.65
1621.72
1623.64
1744.99
1836.86
1837.11
1837.36
1837.61
1837.83
1838.03
1838.21
1838.34
1838.4
1838.44
1838.53
1838.78
1839.21
1839.75
1840.03
1806.68
1638.34
1614.27
1632.75
1761.23
1756.82
1750.02
1743.32
1669.66
1573.92
1669.94
1809.31
1773.81
1830.82
1833.13
1832.08
1776.77
1618.8
1609.73
1610.17
1611.17
1612.06
1640.86
1822.92
1840.55
1839.06
1839.23
1839.14
1839.2
1839.34
1839.51
1839.67
1839.76
1839.7
1839.48
1839.42
1839.57
1840.13
1842.49
1844.36
1839.79
1809.61
1713.7
1633.6
1653.05
1645.07
1538.75
1452.21
1376.63
1318.97
1385.84
1813.98
1833.63
1834.55
1835.52
1835.86
1789.14
1611.41
1607.07
1605.91
1673.44
1826.21
1829.55
1842.72
1841.62
1840.84
1840.47
1840.37
1840.47
1840.66
1840.82
1840.92
1840.8
1840.2
1824.23
1760.94
1680.59
1650.88
1674.49
1712.7
1647.38
1495.67
1422.98
1416.7
1409.09
1389.71
1348.24
1316.15
1316.06
1316.73
1371.37
1808.29
1834.63
1835.19
1835.83
1836.38
1827.69
1779.05
1752.69
1788.18
1834.78
1842.61
1842.25
1841.59
1841.09
1840.79
1840.7
1840.82
1841.15
1841.65
1841.87
1839.95
1825.21
1735.62
1538.51
1505.06
1509.72
1513.88
1526.37
1552.47
1606.05
1631.63
1618.36
1531.91
1439.81
1360.54
1314.9
1313.85
1313.71
1313.62
1522.45
1864.44
1834.93
1835.51
1836.14
1836.63
1837.07
1838.01
1839.08
1839.83
1840.29
1840.51
1840.46
1840.26
1840.06
1839.94
1839.92
1840.01
1840.43
1842.28
1819.61
1585.84
1510.64
1513.93
1517.77
1616.92
1789.86
1850.63
1859.21
1860.51
1864.63
1868.87
1872.95
1877.1
1849.72
1675.98
1426.04
1309.23
1309.62
1308.58
1594.3
1880.98
1833.67
1835.52
1836.35
1836.99
1837.58
1838.11
1838.57
1838.93
1839.12
1839.14
1839.02
1838.82
1838.57
1838.22
1837.85
1838.1
1811.89
1567.76
1504.29
1508.5
1518.56
1781.39
1855.09
1855.21
1855.94
1857.52
1859.47
1862.14
1865.63
1869.53
1873.56
1877.69
1882.23
1887.79
1826.05
1443.07
1323.67
1342.31
1629.24
1891.16
1833.77
1834.54
1836.33
1837.4
1837.93
1838.32
1838.53
1838.54
1838.4
1838.17
1837.94
1837.73
1837.53
1836.97
1836.03
1801.18
1545.08
1508.96
1521.11
1809.04
1848.16
1849.54
1848.75
1839.9
1840.93
1853.94
1859.95
1863.06
1866.55
1870.36
1874.11
1878.75
1883.73
1887.91
1801.43
1444.33
1328.1
1382.56
1698.71
1891.36
1834.37
1836.42
1837.6
1838.27
1838.78
1839.09
1839.1
1838.68
1838.07
1837.61
1837.07
1836.24
1835.31
1831.68
1775.98
1511.6
1504.3
1802.47
1837.91
1840.37
1843.66
1845.11
1821.83
1818.02
1820.55
1823.27
1854.63
1860.88
1865.89
1869.33
1871.27
1862.33
1859.09
1861.72
1777.95
1639.55
1643.46
1673.91
1864.93
1882.67
1836.49
1837.36
1838.3
1839.39
1840.6
1841.22
1841.55
1840.77
1837.75
1835.07
1782.7
1683.02
1637.56
1489.88
1264.77
1188.02
1511.24
1835.65
1839.62
1842.32
1844.91
1842.5
1815.33
1817.65
1820.09
1822.63
1825.28
1841.25
1865.23
1868.48
1869.98
1833.38
1824.98
1826.83
1845.79
1867.89
1867.29
1867.93
1869.95
1879.25
1836.65
1839.94
1841.11
1842.19
1843.23
1844.37
1844.2
1734.4
1359.37
1242.81
1240.87
1212.83
1189.57
1172.32
1167
1167.46
1197.86
1524.45
1837.93
1848.41
1849.19
1850.45
1842.18
1818.38
1820.46
1822.72
1824.88
1835.09
1863.8
1867.86
1869.94
1838.83
1821.6
1823.51
1839.03
1864.96
1864.35
1854.65
1718.56
1875.97
1834.31
1842.33
1844.16
1845.97
1848.15
1850.15
1769.96
1298.17
1171.58
1169.44
1168.22
1167.03
1166.48
1166.41
1166.42
1166.31
1166.67
1242.04
1728.36
1855.44
1854.78
1854.76
1855.5
1854.79
1833.92
1826
1846.96
1861.16
1864.3
1867.43
1869.6
1868.44
1832.99
1820.97
1824.73
1864.85
1840.57
1776.91
1689.97
1816.53
1835.91
1844.5
1846.68
1848.55
1850.65
1852.96
1855.15
1673.63
1220.27
1166.74
1166.81
1166.78
1166.69
1166.68
1166.63
1166.41
1166.28
1259.86
1757.75
1864.04
1861.23
1859.84
1859.41
1859.6
1860.26
1861.26
1862.59
1864.11
1865.78
1867.43
1869.2
1870.98
1872.55
1854.32
1862.99
1875.9
1804.35
1681.65
1681.59
1744.56
1838.32
1847.31
1849.55
1851.65
1853.98
1856.47
1858.98
1863.16
1872.52
1783.4
1335.86
1161.66
1162.53
1163.66
1164.14
1164.43
1226.77
1695.56
1874.34
1869.11
1865.81
1863.86
1862.8
1862.41
1862.55
1863.1
1864
1865.16
1865.86
1865.74
1865.38
1868.46
1872.56
1874.48
1876.39
1878
1803
1679.03
1678.85
1754.38
1841.52
1850.3
1852.27
1854.33
1856.54
1858.81
1861.06
1863.45
1865.52
1867.1
1863.71
1801.88
1689.48
1627.2
1631.5
1721.42
1836.58
1876.31
1872.57
1869.68
1867.51
1865.95
1864.98
1864.52
1864.49
1864.83
1865.49
1866.41
1866.48
1862.23
1862.73
1864.26
1867.77
1874.27
1876.44
1878.14
1861.48
1724.45
1680.01
1846.63
1850.86
1853.32
1855.32
1857.37
1859.55
1861.86
1864.18
1864.14
1862.95
1864.92
1869.31
1871.25
1872.67
1874.46
1876.61
1876.77
1875.77
1873.89
1871.97
1870.21
1868.71
1867.51
1866.73
1866.34
1866.28
1866.54
1867.07
1867.85
1868.69
1865.22
1863.48
1864.84
1866.3
1868.2
1874.09
1878.29
1880.22
1870.12
1701.28
1854.71
1854.8
1856.65
1858.55
1860.51
1862.54
1864.67
1866.66
1865.91
1854.42
1847.93
1847.74
1829.29
1833.04
1845.41
1862.14
1876.3
1875.8
1873.69
1871.95
1870.69
1869.7
1868.87
1868.33
1868.09
1868.08
1868.32
1868.8
1869.5
1870.4
1871.48
1871.21
1868.03
1867.22
1868.76
1870.4
1878.03
1882.02
1883.77
1876.2
1859.21
1855.16
1858.65
1861.11
1863.11
1865.09
1867.19
1869.72
1872.19
1875.32
1877.59
1874.96
1798.47
1744.02
1741.06
1736.36
1732.46
1758.72
1788.31
1821.98
1859.74
1870.27
1869.63
1869.45
1869.83
1870.15
1870.48
1870.92
1871.51
1872.28
1873.22
1874.34
1875.62
1874.22
1870.18
1871.82
1874.32
1883.16
1885.94
1888.02
1889.67
1847.41
1853.25
1860.14
1857.85
1854.22
1861.28
1871.91
1876.01
1878.74
1880.51
1881.44
1882.05
1882.98
1883.94
1855.19
1662.12
1607
1604.87
1598.16
1591.42
1679.28
1747.49
1804.82
1857.72
1870.29
1871.77
1873.13
1874.11
1874.77
1875.46
1876.36
1877.5
1878.85
1878.31
1873.65
1875.68
1884.09
1887.91
1891.15
1893.64
1721.81
1706.64
1690.25
1665.85
1638.63
1680.76
1825.28
1881.89
1884.48
1885.59
1886.09
1886.01
1885.37
1884.05
1882.15
1880.86
1881
1882.15
1831.22
1541.24
1425.27
1421.69
1417.8
1467.17
1636.95
1758.13
1842.18
1873.66
1876.97
1878.16
1878.83
1879.76
1880.99
1882.5
1879.7
1878
1886.85
1890.54
1894.93
1898.21
1738.85
1679.2
1608.93
1610.7
1612.45
1613.77
1658.07
1853.23
1889.71
1891.45
1891.21
1890.89
1889.66
1887.33
1884.1
1882.46
1880.89
1879.28
1876.83
1875.47
1875.89
1872.4
1508.91
1225.8
1216.61
1202.66
1356.03
1652.24
1837.95
1879.47
1881.03
1882.07
1883.28
1884.76
1886.1
1887.89
1890.94
1894.93
1897.83
1867.48
1791.31
1792.78
1681.9
1610.07
1612.1
1614.53
1622.48
1744.94
1807.81
1863.15
1895.61
1895.98
1886.35
1843.24
1807.9
1838.4
1876.7
1881.37
1880.06
1878.35
1876.33
1873.55
1871.98
1874.38
1654.93
1169.43
1151.77
1148.63
1275.47
1728.09
1878.66
1883.33
1885.37
1887.01
1888.81
1891.18
1894.34
1898.71
1885.48
1818.95
1734.44
1777.43
1831.81
1813.2
1797.19
1818.17
1826.25
1746.7
1746.02
1776.71
1893.68
1900.6
1809.25
1787.05
1784.94
1783
1806.55
1878.23
1882.05
1880.68
1879.13
1877.57
1876.19
1874.81
1874.33
1874.43
1403.93
1135.21
1138.46
1147.18
1587.3
1875.74
1887.49
1889.02
1890.79
1893.32
1896.83
1901.92
1856.22
1820.34
1783.76
1821.85
1890.05
1892.81
1894.59
1896.75
1898.55
1891.83
1802.26
1854.27
1900.61
1889.86
1815.45
1786.41
1783.52
1781.26
1788.41
1869.89
1882.89
1881.01
1879.36
1878.02
1876.94
1876.38
1875.8
1875.41
1878.47
1594.33
1125.69
1129.68
1121.61
1455.05
1807.42
1886.57
1891.91
1894.34
1898.3
1904.03
1843.57
1820.7
1876.72
1882.16
1887.22
1891.13
1893.95
1895.98
1897.12
1897.24
1897.13
1897.02
1896.45
1894.48
1892.13
1857.11
1782.39
1828.57
1884.85
1883.15
1880.55
1878.4
1876.83
1875.75
1874.39
1874.31
1875.15
1875.3
1875.76
1878.97
1748.77
1168.4
1103.14
1102.73
1154.75
1666.61
1886.83
1891.55
1897.33
1904.41
1842.22
1819.82
1873
1879.67
1885.39
1889.89
1893.16
1895.31
1896.41
1896.5
1895.83
1894.78
1893.14
1890.74
1887.78
1884.83
1882.66
1881.09
1879.02
1876.62
1874.41
1872.65
1871.35
1870.49
1870.08
1870.21
1858.18
1770.38
1820.23
1873.65
1868.4
1776.04
1182.52
1090.01
1090.7
1103
1661.76
1887.84
1894.23
1903.11
1840.04
1817.87
1867.83
1875.66
1882.1
1887.1
1890.69
1892.95
1894.01
1893.97
1893.01
1891.32
1888.98
1886.08
1882.8
1879.41
1876.23
1873.39
1870.74
1868.29
1866.18
1864.54
1863.39
1862.74
1862.51
1862.75
1864.21
1763.9
1715.92
1712.86
1840.93
1841.38
1770.46
1177.33
1080.64
1080.27
1204.91
1802.09
1890.89
1897.66
1836.84
1826.47
1860.01
1869.36
1876.83
1882.49
1886.44
1888.82
1889.77
1889.47
1888.09
1885.82
1882.83
1879.3
1875.43
1871.44
1867.56
1863.94
1860.69
1857.88
1855.61
1853.94
1852.9
1852.49
1852.63
1853.24
1854.58
1842.38
1698.1
1696.91
1697.78
1794.45
1797.38
1740.91
1173.32
1069.9
1072.34
1567.54
1885.71
1893.83
1842.71
1825.14
1850.24
1861.18
1869.63
1875.89
1880.15
1882.6
1883.43
1882.83
1881.01
1878.17
1874.53
1870.29
1865.68
1860.93
1856.28
1851.94
1848.09
1844.88
1842.37
1840.65
1839.76
1839.66
1840.25
1841.4
1843.16
1846.1
1826.21
1681.57
1686.56
1690.15
1763.69
1805.18
1712.59
1114.77
1065.01
1294.67
1850.82
1887.57
1843.7
1822.33
1840.08
1851.89
1860.86
1867.39
1871.74
1874.14
1874.77
1873.86
1871.6
1868.21
1863.92
1858.95
1853.54
1847.94
1842.43
1837.3
1832.82
1829.19
1826.42
1824.58
1823.88
1824.26
1825.38
1826.99
1829.13
1832.08
1836.45
1820.54
1668.93
1673.54
1675.79
1794.52
1836.05
1426.51
1053.38
1149.33
1749.79
1881.73
1843.81
1817.41
1830.69
1842.07
1850.83
1857.17
1861.32
1863.49
1863.85
1862.59
1859.91
1856.02
1851.13
1845.46
1839.3
1832.89
1826.51
1820.36
1814.91
1811.08
1808.07
1805.4
1804.94
1806.79
1809.28
1811.25
1813.09
1815.89
1820.23
1826.35
1771
1656.34
1663.52
1738.93
1831.54
1712.37
1122.81
1017.7
1582.99
1860.59
1849.65
1809
1822.45
1831.85
1839.72
1845.46
1849.15
1850.95
1850.98
1849.4
1846.39
1842.13
1836.88
1830.89
1824.4
1817.1
1808.68
1789.52
1785.58
1780.56
1746.6
1743.84
1757.69
1785.44
1793.59
1793.74
1791.94
1794.6
1800.28
1806.96
1815.3
1677.73
1644.47
1667.32
1825.47
1810.33
1191.57
979.483
1419.39
1840.19
1841.39
1794.92
1813.77
1820.94
1827.65
1832.61
1835.71
1837.07
1836.76
1834.92
1831.72
1827.45
1822.41
1816.26
1808.08
1762.32
1655.86
1393.45
1406.22
1457.9
1199.92
1193.65
1506.75
1771.12
1736.68
1349.52
1261
1642.28
1778.62
1785.38
1793.26
1724.81
1627.33
1649.47
1814.42
1822.26
1208.76
935.075
1274.99
1815.03
1828.58
1781.04
1804.34
1809.91
1815.35
1819.37
1821.75
1822.54
1821.81
1819.67
1816.44
1812.53
1807.25
1786.3
1677.71
1279.69
1144.38
1141.46
1140.49
1138.75
1141.47
1148.42
1150.48
1179.53
1164.52
1130.87
1135.76
1135.76
1384.75
1764.39
1774.71
1780.98
1631.36
1679.71
1808.7
1814.08
1169.12
890.095
1140.51
1778.81
1814.23
1766.02
1794.72
1799.45
1803.62
1806.52
1807.98
1808.01
1806.65
1804.12
1800.84
1796.32
1784.15
1477.73
1121.44
1124.7
1123.87
1123.3
1124.82
1125.2
1228.79
1383.27
1163.02
1125.34
1123.54
1121.8
1123.35
1124.3
1124.65
1386.04
1753.42
1759.66
1752.38
1772.11
1795.73
1805.75
1121.76
841.407
1025.71
1731.09
1796.91
1750.01
1787.58
1790.78
1793.31
1794.77
1795.02
1794.02
1791.85
1788.85
1785.09
1775.97
1460.7
1110.06
1107.08
1108.04
1107.76
1106.65
1111.36
1183.48
1621.91
1763.63
1744.94
1324.32
1105.87
1110.12
1111.52
1110.34
1112.95
1109.56
1536.14
1751.93
1764.48
1774.35
1782.07
1792.1
1073.77
793.965
912.937
1664.44
1776.14
1733.64
1782.11
1783.56
1784.35
1784.23
1783.05
1780.79
1777.59
1773.82
1767.64
1544.69
1115.36
1097.71
1091.15
1089.17
1106.07
1260.8
1642.58
1754.17
1751.96
1746.38
1740.96
1649.11
1497.99
1579.2
1469.82
1091.65
1095.83
1096.88
1272.46
1719.74
1755.46
1762.74
1769.73
1775.55
1031.11
749.549
845.704
1613.14
1757.72
1716.02
1778.07
1777.73
1776.75
1774.95
1772.23
1768.63
1764.46
1759.3
1717.85
1194.1
1095.67
1086.95
1079.86
1287.42
1726.56
1741.77
1739.97
1734.78
1729.63
1725.44
1723.08
1724.45
1729.27
1735.5
1740.36
1364.26
1078.49
1079.66
1093.37
1647.51
1745.44
1751.78
1758.61
1761.03
997.391
707.525
820.66
1592.34
1740.3
1699.35
1775.28
1773.15
1770.37
1766.85
1762.57
1757.69
1752.43
1745.19
1363.47
1104.26
1091.17
1086.31
1510.03
1726.22
1728.38
1724.48
1719.37
1713.75
1708.35
1704.08
1702.12
1703.31
1707.19
1712.48
1718.43
1620.38
1082.69
1058.61
1062.04
1524.74
1736.36
1742.26
1749.04
1753.98
978.944
668.561
810.335
1583.01
1709.46
1683.71
1773.21
1769.35
1764.81
1759.58
1753.77
1747.76