/*--------------------------------*- C++ -*----------------------------------*\
  =========                 |
  \\      /  F ield         | OpenFOAM: The Open Source CFD Toolbox
   \\    /   O peration     | Website:  https://openfoam.org
    \\  /    A nd           | Version:  8
     \\/     M anipulation  |
\*---------------------------------------------------------------------------*/
FoamFile
{
    version     2.0;
    format      ascii;
    class       surfaceScalarField;
    location    "4.1";
    object      phi;
}
// * * * * * * * * * * * * * * * * * * * * * * * * * * * * * * * * * * * * * //

dimensions      [0 3 -1 0 0 0 0];

internalField   nonuniform List<scalar> 
18095
(
1.58617e-07
-9.65429e-07
8.06812e-07
1.65426e-07
-1.24829e-06
1.24148e-06
1.22192e-07
-1.24228e-06
1.28552e-06
6.52952e-08
-1.26352e-06
1.32042e-06
-2.05581e-11
-1.28051e-06
1.34582e-06
-6.53324e-08
-1.2805e-06
1.34582e-06
-1.2222e-07
-1.26351e-06
1.3204e-06
-1.65443e-07
-1.24227e-06
1.2855e-06
-1.58623e-07
-1.24828e-06
1.24146e-06
-9.65407e-07
8.06784e-07
1.11038e-07
-1.07647e-06
9.94223e-08
-1.23667e-06
7.28511e-08
-1.21571e-06
4.00171e-08
-1.23069e-06
-1.40939e-11
-1.24048e-06
-4.0043e-08
-1.24047e-06
-7.28714e-08
-1.23068e-06
-9.94371e-08
-1.21571e-06
-1.11046e-07
-1.23667e-06
-1.07645e-06
6.71772e-08
-1.14364e-06
5.27653e-08
-1.22226e-06
4.21438e-08
-1.20509e-06
2.38525e-08
-1.2124e-06
-9.30532e-12
-1.21662e-06
-2.38699e-08
-1.21661e-06
-4.21577e-08
-1.21239e-06
-5.27756e-08
-1.20509e-06
-6.71841e-08
-1.22226e-06
-1.14364e-06
3.96332e-08
-1.18328e-06
2.66272e-08
-1.20925e-06
2.20151e-08
-1.20048e-06
1.25227e-08
-1.2029e-06
-5.60601e-12
-1.20409e-06
-1.25331e-08
-1.20409e-06
-2.20235e-08
-1.2029e-06
-2.66333e-08
-1.20048e-06
-3.96381e-08
-1.20925e-06
-1.18328e-06
1.67228e-08
7.46934e-09
6.98918e-09
4.08487e-09
-2.12129e-12
-4.08888e-09
-6.99238e-09
-7.47148e-09
-1.6725e-08
-1.75526e-07
-1.16393e-06
1.33946e-06
-2.19785e-07
-1.2167e-06
1.26096e-06
-1.65691e-07
-1.21305e-06
1.15896e-06
-8.74579e-08
-1.20412e-06
1.12589e-06
-2.16879e-10
-1.20251e-06
1.11527e-06
8.70347e-08
-1.20248e-06
1.11523e-06
1.65309e-07
-1.20403e-06
1.12575e-06
2.19439e-07
-1.21292e-06
1.15879e-06
1.75217e-07
-1.21652e-06
1.26074e-06
-1.16373e-06
1.33894e-06
-9.29345e-08
-1.071e-06
-9.57195e-08
-1.21392e-06
-7.9424e-08
-1.22935e-06
-4.43755e-08
-1.23917e-06
-1.22426e-10
-1.24677e-06
4.41408e-08
-1.24674e-06
7.9215e-08
-1.2391e-06
9.55499e-08
-1.22926e-06
9.28384e-08
-1.21381e-06
-1.07089e-06
-5.79975e-08
-1.013e-06
-5.5232e-08
-1.21668e-06
-4.66178e-08
-1.23796e-06
-2.72347e-08
-1.25855e-06
-7.40623e-11
-1.27393e-06
2.70936e-08
-1.27391e-06
4.64968e-08
-1.25851e-06
5.5144e-08
-1.2379e-06
5.79542e-08
-1.21662e-06
-1.01293e-06
-7.48831e-08
-9.38119e-07
-6.20855e-08
-1.22948e-06
-4.86849e-08
-1.25137e-06
-2.78562e-08
-1.27938e-06
-4.64794e-11
-1.30174e-06
2.77683e-08
-1.30173e-06
4.86116e-08
-1.27935e-06
6.20356e-08
-1.25133e-06
7.48591e-08
-1.22944e-06
-9.38074e-07
-1.31307e-07
-1.1931e-07
-8.51566e-08
-4.4118e-08
-3.04912e-11
4.40609e-08
8.51098e-08
1.19278e-07
1.3129e-07
-4.04478e-08
-9.33056e-07
9.73504e-07
4.98903e-09
-1.34288e-06
1.29744e-06
8.87943e-09
-1.27554e-06
1.27165e-06
2.96445e-09
-1.22754e-06
1.23346e-06
-2.1207e-09
-1.22494e-06
1.23003e-06
-7.12785e-09
-1.22461e-06
1.22962e-06
-1.25563e-08
-1.22751e-06
1.23294e-06
-9.41578e-09
-1.27594e-06
1.2728e-06
3.32097e-08
-1.34168e-06
1.29905e-06
-9.26283e-07
9.59493e-07
1.31427e-08
-9.46199e-07
1.82267e-08
-1.34797e-06
1.16936e-08
-1.26901e-06
5.28427e-09
-1.22114e-06
-1.5973e-09
-1.21806e-06
-8.41864e-09
-1.21779e-06
-1.46512e-08
-1.22128e-06
-2.20207e-08
-1.26857e-06
-1.6249e-08
-1.34745e-06
-9.42532e-07
2.83406e-08
-9.7454e-07
1.9418e-08
-1.33904e-06
1.0145e-08
-1.25974e-06
5.57421e-09
-1.21656e-06
-8.95364e-10
-1.21159e-06
-7.12887e-09
-1.21156e-06
-1.19488e-08
-1.21646e-06
-2.10432e-08
-1.25948e-06
-2.98834e-08
-1.33861e-06
-9.72416e-07
7.9473e-08
-1.05401e-06
5.32494e-08
-1.31282e-06
3.39057e-08
-1.24039e-06
2.05177e-08
-1.20318e-06
-5.74763e-10
-1.1905e-06
-2.16765e-08
-1.19045e-06
-3.51758e-08
-1.20296e-06
-5.45209e-08
-1.24013e-06
-8.052e-08
-1.31261e-06
-1.05294e-06
2.85447e-07
2.33591e-07
1.52157e-07
7.48671e-08
-3.60109e-10
-7.55865e-08
-1.52795e-07
-2.34137e-07
-2.86007e-07
1.62081e-07
1.29836e-09
-1.6338e-07
1.6056e-07
1.52144e-09
1.58838e-07
1.72156e-09
1.56939e-07
1.89928e-09
1.54881e-07
2.05786e-09
1.52684e-07
2.19627e-09
1.50367e-07
2.31705e-09
1.47947e-07
2.41982e-09
1.45441e-07
2.50661e-09
2.5797e-09
1.42861e-07
1.63763e-07
2.00288e-09
-1.64468e-07
1.6288e-07
2.40465e-09
1.61816e-07
2.78534e-09
1.60572e-07
3.14269e-09
1.59155e-07
3.47476e-09
1.57573e-07
3.77832e-09
1.55837e-07
4.05313e-09
1.53958e-07
4.29895e-09
1.51948e-07
4.51639e-09
4.70708e-09
1.4982e-07
1.57598e-07
2.88343e-09
-1.58478e-07
1.56565e-07
3.43778e-09
1.55382e-07
3.96783e-09
1.54055e-07
4.46987e-09
1.52589e-07
4.94073e-09
1.50991e-07
5.3768e-09
1.49268e-07
5.77569e-09
1.47431e-07
6.13647e-09
1.45488e-07
6.45939e-09
6.7454e-09
1.4345e-07
1.51067e-07
3.90309e-09
-1.52086e-07
1.49906e-07
4.59852e-09
1.4861e-07
5.26411e-09
1.47184e-07
5.8958e-09
1.45635e-07
6.48963e-09
1.43972e-07
7.04003e-09
1.42204e-07
7.54445e-09
1.40339e-07
8.00129e-09
1.38388e-07
8.40997e-09
8.77131e-09
1.36363e-07
1.44186e-07
5.04171e-09
-1.45324e-07
1.42914e-07
5.86976e-09
1.41516e-07
6.66246e-09
1.39997e-07
7.41456e-09
1.38366e-07
8.12076e-09
1.36631e-07
8.77521e-09
1.34802e-07
9.37376e-09
1.32891e-07
9.91285e-09
1.3091e-07
1.03907e-08
1.08081e-08
1.28873e-07
1.36865e-07
6.29724e-09
-1.3812e-07
1.35483e-07
7.2511e-09
1.33981e-07
8.1644e-09
1.32366e-07
9.02981e-09
1.30647e-07
9.84021e-09
1.28832e-07
1.05901e-08
1.26933e-07
1.12729e-08
1.24963e-07
1.1883e-08
1.22939e-07
1.24145e-08
1.28673e-08
1.2088e-07
1.29011e-07
7.67213e-09
-1.30386e-07
1.27514e-07
8.7477e-09
1.25901e-07
9.77767e-09
1.2418e-07
1.07508e-08
1.22363e-07
1.16575e-08
1.20461e-07
1.24921e-08
1.18484e-07
1.32496e-08
1.16446e-07
1.39214e-08
1.14368e-07
1.44922e-08
1.49554e-08
1.1228e-07
1.20521e-07
9.173e-09
-1.22022e-07
1.18895e-07
1.03742e-08
1.17148e-07
1.15239e-08
1.153e-07
1.25991e-08
1.1337e-07
1.35874e-08
1.11374e-07
1.44887e-08
1.09317e-07
1.53066e-08
1.07212e-07
1.60261e-08
1.05078e-07
1.6626e-08
1.70632e-08
1.0297e-07
1.11282e-07
1.0817e-08
-1.12926e-07
1.09492e-07
1.2164e-08
1.07564e-07
1.34521e-08
1.05534e-07
1.46297e-08
1.03453e-07
1.56684e-08
1.01349e-07
1.65927e-08
9.91962e-08
1.74589e-08
9.70745e-08
1.81478e-08
9.49755e-08
1.8725e-08
1.9185e-08
9.28537e-08
1.01174e-07
1.263e-08
-1.02987e-07
9.91535e-08
1.41842e-08
9.69345e-08
1.56711e-08
9.45716e-08
1.69925e-08
9.22307e-08
1.80093e-08
9.00065e-08
1.88169e-08
8.78811e-08
1.95842e-08
8.53974e-08
2.06315e-08
8.37062e-08
2.04162e-08
2.07295e-08
8.21615e-08
9.00036e-08
1.46988e-08
-9.20723e-08
8.78028e-08
1.63851e-08
8.51289e-08
1.83451e-08
8.23247e-08
1.97967e-08
7.95038e-08
2.08303e-08
7.70384e-08
2.12822e-08
7.51886e-08
2.1434e-08
7.46799e-08
2.11401e-08
7.37456e-08
2.13504e-08
2.13206e-08
7.31543e-08
7.73727e-08
1.75297e-08
-8.02036e-08
7.43632e-08
1.9395e-08
7.23614e-08
2.0347e-08
7.05315e-08
2.16267e-08
6.90078e-08
2.23541e-08
6.80978e-08
2.21922e-08
6.73197e-08
2.22121e-08
6.62785e-08
2.21812e-08
6.53798e-08
2.22489e-08
2.23619e-08
6.43383e-08
6.71451e-08
1.94432e-08
-6.90585e-08
6.55493e-08
2.09913e-08
6.37675e-08
2.2129e-08
6.28902e-08
2.25042e-08
6.20132e-08
2.32314e-08
6.08779e-08
2.33276e-08
5.96755e-08
2.34146e-08
5.82945e-08
2.35623e-08
5.67493e-08
2.37941e-08
2.41007e-08
5.50105e-08
5.94511e-08
2.14193e-08
-6.1427e-08
5.80387e-08
2.24042e-08
5.69566e-08
2.32113e-08
5.541e-08
2.4051e-08
5.40381e-08
2.46035e-08
5.23608e-08
2.50051e-08
5.04415e-08
2.5334e-08
4.83498e-08
2.56541e-08
4.61341e-08
2.60099e-08
2.64277e-08
4.38072e-08
5.08657e-08
2.26852e-08
-5.21314e-08
4.91879e-08
2.40822e-08
4.72355e-08
2.51639e-08
4.52446e-08
2.60421e-08
4.30614e-08
2.67868e-08
4.06977e-08
2.7369e-08
3.81932e-08
2.78387e-08
3.55868e-08
2.82605e-08
3.2914e-08
2.86828e-08
2.91476e-08
3.01941e-08
3.92989e-08
2.48203e-08
-4.14339e-08
3.69983e-08
2.63827e-08
3.44705e-08
2.76917e-08
3.17403e-08
2.87723e-08
2.88853e-08
2.96418e-08
2.59351e-08
3.03191e-08
2.29314e-08
3.08424e-08
1.99342e-08
3.12578e-08
1.69734e-08
3.16437e-08
3.20688e-08
1.40524e-08
2.49996e-08
2.77467e-08
-2.79261e-08
2.18745e-08
2.95078e-08
1.85433e-08
3.10228e-08
1.50742e-08
3.22413e-08
1.15529e-08
3.3163e-08
8.02561e-09
3.38464e-08
4.60779e-09
3.42601e-08
1.31557e-09
3.45499e-08
-1.75433e-09
3.47135e-08
3.49989e-08
-4.68442e-09
7.84263e-09
3.14923e-08
-1.15883e-08
3.80746e-09
3.35431e-08
-4.66883e-10
3.52971e-08
-4.8261e-09
3.66004e-08
-9.05081e-09
3.73875e-08
-1.30717e-08
3.7867e-08
-1.706e-08
3.82484e-08
-2.03992e-08
3.78891e-08
-2.33009e-08
3.76153e-08
3.77666e-08
-2.60686e-08
-1.23046e-08
3.61349e-08
7.66208e-09
-1.74051e-08
3.86436e-08
-2.29805e-08
4.08723e-08
-2.85215e-08
4.21412e-08
-3.36391e-08
4.25052e-08
-3.81734e-08
4.24013e-08
-4.15006e-08
4.15755e-08
-4.42861e-08
4.06745e-08
-4.69982e-08
4.03275e-08
4.0486e-08
-4.97177e-08
-3.56484e-08
4.17104e-08
3.00729e-08
-4.17015e-08
4.46969e-08
-4.83585e-08
4.75294e-08
-5.61801e-08
4.9963e-08
-6.16237e-08
4.79488e-08
-6.42367e-08
4.50144e-08
-6.67535e-08
4.40924e-08
-6.92682e-08
4.31892e-08
-7.19509e-08
4.30102e-08
4.34875e-08
-7.49524e-08
-6.37112e-08
4.86942e-08
5.67275e-08
-7.10812e-08
5.20671e-08
-7.89268e-08
5.53752e-08
-8.366e-08
5.46964e-08
-8.5842e-08
5.01309e-08
-8.86359e-08
4.78084e-08
-9.09975e-08
4.64541e-08
-9.37576e-08
4.59493e-08
-9.70049e-08
4.62574e-08
4.72916e-08
-1.00809e-07
-9.45336e-08
5.85667e-08
8.46612e-08
-1.01228e-07
5.87621e-08
-1.04111e-07
5.82585e-08
-1.05199e-07
5.57847e-08
-1.07866e-07
5.27983e-08
-1.10828e-07
5.07705e-08
-1.14126e-07
4.97518e-08
-1.17857e-07
4.96799e-08
-1.22081e-07
5.04812e-08
5.21019e-08
-1.26891e-07
-1.18392e-07
6.36605e-08
1.13298e-07
-1.22484e-07
6.28552e-08
-1.25187e-07
6.09613e-08
-1.27638e-07
5.82363e-08
-1.30988e-07
5.61483e-08
-1.34869e-07
5.4652e-08
-1.39093e-07
5.39758e-08
-1.43589e-07
5.41754e-08
-1.48313e-07
5.52054e-08
5.69984e-08
-1.5321e-07
-1.42503e-07
6.7637e-08
1.38527e-07
-1.46148e-07
6.64995e-08
-1.49292e-07
6.41052e-08
-1.53299e-07
6.22443e-08
-1.57803e-07
6.06523e-08
-1.62711e-07
5.9559e-08
-1.67789e-07
5.90541e-08
-1.7282e-07
5.92064e-08
-1.77734e-07
6.01205e-08
5.98096e-08
-1.80546e-07
-1.65782e-07
7.20832e-08
1.61336e-07
-1.70297e-07
7.10148e-08
-1.75691e-07
6.94986e-08
-1.81377e-07
6.79303e-08
-1.8727e-07
6.65453e-08
-1.93157e-07
6.5446e-08
-1.98796e-07
6.46937e-08
-2.03991e-07
6.4401e-08
-2.07367e-07
6.34967e-08
6.12814e-08
-2.08839e-07
-1.92645e-07
7.8129e-08
1.86599e-07
-1.99134e-07
7.75038e-08
-2.06029e-07
7.63941e-08
-2.13107e-07
7.50085e-08
-2.20086e-07
7.3525e-08
-2.26774e-07
7.21337e-08
-2.33031e-07
7.09505e-08
-2.38032e-07
6.94026e-08
-2.42709e-07
6.81742e-08
6.59602e-08
-2.47388e-07
-2.2234e-07
8.61371e-08
2.14332e-07
-2.30574e-07
8.57375e-08
-2.38891e-07
8.47116e-08
-2.47184e-07
8.33013e-08
-2.55141e-07
8.14825e-08
-2.62658e-07
7.96507e-08
-2.69742e-07
7.8035e-08
-2.7646e-07
7.61202e-08
-2.80336e-07
7.20501e-08
6.85242e-08
-2.829e-07
-2.53537e-07
9.51561e-08
2.44518e-07
-2.62787e-07
9.49872e-08
-2.7208e-07
9.40051e-08
-2.80797e-07
9.20187e-08
-2.89438e-07
9.01237e-08
-2.9712e-07
8.73329e-08
-3.03943e-07
8.48577e-08
-3.09047e-07
8.1225e-08
-3.12558e-07
7.55612e-08
6.77967e-08
-3.1183e-07
-2.82602e-07
1.05128e-07
2.72631e-07
-2.9277e-07
1.05155e-07
-3.02197e-07
1.03432e-07
-3.112e-07
1.01022e-07
-3.19191e-07
9.81149e-08
-3.26665e-07
9.48069e-08
-3.31115e-07
8.9308e-08
-3.32336e-07
8.2446e-08
-3.32364e-07
7.55888e-08
6.84981e-08
-3.33065e-07
-3.09238e-07
1.16255e-07
2.9811e-07
-3.19292e-07
1.1521e-07
-3.2867e-07
1.1281e-07
-3.3729e-07
1.09642e-07
-3.44625e-07
1.05451e-07
-3.48493e-07
9.86745e-08
-3.49331e-07
9.0146e-08
-3.49275e-07
8.23903e-08
-3.47716e-07
7.403e-08
6.65478e-08
-3.45766e-07
-3.30297e-07
1.27264e-07
3.19288e-07
-3.403e-07
1.25213e-07
-3.49343e-07
1.21854e-07
-3.56201e-07
1.165e-07
-3.59272e-07
1.08522e-07
-3.60154e-07
9.95558e-08
-3.59955e-07
8.99474e-08
-3.58044e-07
8.04793e-08
-3.55574e-07
7.15595e-08
6.32389e-08
-3.52265e-07
-3.47182e-07
1.38788e-07
3.35658e-07
-3.57763e-07
1.35794e-07
-3.65387e-07
1.29478e-07
-3.68667e-07
1.1978e-07
-3.69283e-07
1.09139e-07
-3.67937e-07
9.82093e-08
-3.65525e-07
8.75359e-08
-3.62261e-07
7.72151e-08
-3.58209e-07
6.75073e-08
5.85601e-08
-3.5353e-07
-3.6017e-07
1.52052e-07
3.46906e-07
-3.70067e-07
1.45692e-07
-3.73496e-07
1.32906e-07
-3.73765e-07
1.2005e-07
-3.72019e-07
1.07392e-07
-3.69132e-07
9.53222e-08
-3.65281e-07
8.36847e-08
-3.60729e-07
7.26636e-08
-3.55579e-07
6.2357e-08
5.28774e-08
-3.49896e-07
-3.66258e-07
1.6551e-07
3.52799e-07
-3.71953e-07
1.51387e-07
-3.71833e-07
1.32786e-07
-3.69861e-07
1.18077e-07
-3.66806e-07
1.04337e-07
-3.62829e-07
9.13449e-08
-3.58242e-07
7.90984e-08
-3.53174e-07
6.75947e-08
-3.47691e-07
5.6874e-08
4.6976e-08
-3.41789e-07
-3.65565e-07
1.69515e-07
3.61561e-07
-3.62079e-07
1.47902e-07
-3.5972e-07
1.30426e-07
-3.56727e-07
1.15084e-07
-3.53154e-07
1.00765e-07
-3.49148e-07
8.73383e-08
-3.44779e-07
7.47298e-08
-3.40098e-07
6.29137e-08
-3.35112e-07
5.18875e-08
4.16816e-08
-3.29818e-07
-3.46323e-07
1.65614e-07
3.50223e-07
-3.43347e-07
1.44925e-07
-3.40497e-07
1.27577e-07
-3.37364e-07
1.1195e-07
-3.33979e-07
9.73795e-08
-3.30377e-07
8.37364e-08
-3.26594e-07
7.09469e-08
-3.22644e-07
5.89638e-08
-3.18545e-07
4.77882e-08
3.74398e-08
-3.14303e-07
-3.28737e-07
1.59216e-07
3.35134e-07
-3.23544e-07
1.39732e-07
-3.19383e-07
1.23416e-07
-3.15552e-07
1.0812e-07
-3.11944e-07
9.37716e-08
-3.08486e-07
8.02776e-08
-3.0513e-07
6.75906e-08
-3.01839e-07
5.56727e-08
-2.98545e-07
4.44943e-08
3.40624e-08
-2.95167e-07
-3.07139e-07
1.51792e-07
3.14563e-07
-3.01051e-07
1.33645e-07
-2.95897e-07
1.18261e-07
-2.91445e-07
1.03668e-07
-2.87483e-07
8.98095e-08
-2.83851e-07
7.66457e-08
-2.80442e-07
6.41823e-08
-2.7718e-07
5.24099e-08
-2.73987e-07
4.13015e-08
3.09371e-08
-2.70862e-07
-2.85022e-07
1.43112e-07
2.93703e-07
-2.7776e-07
1.26383e-07
-2.71706e-07
1.12207e-07
-2.66499e-07
9.84612e-08
-2.61867e-07
8.51777e-08
-2.57582e-07
7.23597e-08
-2.53481e-07
6.00814e-08
-2.49505e-07
4.84339e-08
-2.45622e-07
3.74188e-08
2.7131e-08
-2.41816e-07
-2.63271e-07
1.32702e-07
2.73681e-07
-2.55338e-07
1.18449e-07
-2.48453e-07
1.05323e-07
-2.42222e-07
9.22301e-08
-2.36409e-07
7.93651e-08
-2.30831e-07
6.67808e-08
-2.25239e-07
5.44898e-08
-2.19659e-07
4.28534e-08
-2.14115e-07
3.18758e-08
2.15795e-08
-2.08564e-07
-2.46253e-07
1.22507e-07
2.56448e-07
-2.3766e-07
1.09856e-07
-2.29336e-07
9.69985e-08
-2.21178e-07
8.4072e-08
-2.13092e-07
7.12792e-08
-2.05011e-07
5.87003e-08
-1.96922e-07
4.64003e-08
-1.88783e-07
3.47141e-08
-1.80542e-07
2.36348e-08
1.34221e-08
-1.72384e-07
-2.39474e-07
1.1096e-07
2.51021e-07
-2.28206e-07
9.85876e-08
-2.16893e-07
8.56855e-08
-2.05518e-07
7.26969e-08
-1.94069e-07
5.98311e-08
-1.82502e-07
4.71329e-08
-1.70903e-07
3.48013e-08
-1.59127e-07
2.29376e-08
-1.47291e-07
1.1799e-08
1.59317e-09
-1.35462e-07
-2.33699e-07
9.87142e-08
2.45945e-07
-2.20551e-07
8.54392e-08
-2.06744e-07
7.18783e-08
-1.92562e-07
5.85148e-08
-1.7812e-07
4.53888e-08
-1.6335e-07
3.23623e-08
-1.48064e-07
1.95153e-08
-1.32328e-07
7.20257e-09
-1.16269e-07
-4.26024e-09
-1.44754e-08
-1.00201e-07
-2.29763e-07
8.6471e-08
2.42006e-07
-2.15589e-07
7.1265e-08
-1.99894e-07
5.61839e-08
-1.8361e-07
4.22307e-08
-1.66906e-07
2.86848e-08
-1.49599e-07
1.50547e-08
-1.31576e-07
1.49232e-09
-1.12556e-07
-1.18178e-08
-9.24155e-08
-2.44007e-08
-3.53732e-08
-7.15178e-08
-2.34012e-07
7.45736e-08
2.45909e-07
-2.18996e-07
5.6249e-08
-2.00399e-07
3.7587e-08
-1.82782e-07
2.4614e-08
-1.65188e-07
1.10906e-08
-1.45514e-07
-4.61935e-09
-1.24355e-07
-1.96673e-08
-1.03285e-07
-3.28874e-08
-7.99099e-08
-4.77761e-08
-5.99291e-08
-5.53542e-08
-2.51291e-07
5.78844e-08
2.6798e-07
-2.34191e-07
3.91478e-08
-2.18145e-07
2.15414e-08
-1.98667e-07
5.13593e-09
-1.76033e-07
-1.1543e-08
-1.52444e-07
-2.82081e-08
-1.272e-07
-4.49119e-08
-9.88503e-08
-6.12371e-08
-7.19108e-08
-7.47161e-08
-8.83798e-08
-4.34606e-08
-2.80048e-07
3.85143e-08
2.99418e-07
-2.59013e-07
1.81129e-08
-2.37574e-07
1.02941e-10
-2.15921e-07
-1.65167e-08
-1.91977e-07
-3.54878e-08
-1.63916e-07
-5.62688e-08
-1.33864e-07
-7.49647e-08
-1.03243e-07
-9.18583e-08
-7.08133e-08
-1.07146e-07
-1.20663e-07
-3.85302e-08
-3.03116e-07
2.16062e-08
3.20024e-07
-2.84126e-07
-8.76741e-10
-2.62042e-07
-2.19811e-08
-2.36156e-07
-4.24024e-08
-2.08398e-07
-6.32453e-08
-1.78514e-07
-8.6153e-08
-1.45913e-07
-1.07566e-07
-1.10652e-07
-1.27119e-07
-7.26157e-08
-1.45182e-07
-1.61833e-07
-3.14458e-08
-3.29961e-07
6.29874e-09
3.45268e-07
-3.1082e-07
-2.00173e-08
-2.87941e-07
-4.48598e-08
-2.61068e-07
-6.9275e-08
-2.28286e-07
-9.60278e-08
-1.94077e-07
-1.20361e-07
-1.57828e-07
-1.43815e-07
-1.19096e-07
-1.65851e-07
-7.78484e-08
-1.8643e-07
-2.05405e-07
-3.42767e-08
-3.50617e-07
-1.11946e-08
3.68111e-07
-3.30858e-07
-3.97766e-08
-3.07825e-07
-6.78922e-08
-2.80883e-07
-9.62164e-08
-2.50922e-07
-1.25989e-07
-2.15922e-07
-1.55361e-07
-1.76989e-07
-1.82748e-07
-1.34916e-07
-2.07924e-07
-9.01618e-08
-2.31184e-07
-2.52011e-07
-4.35558e-08
-3.64484e-07
-2.41429e-08
3.77432e-07
-3.48437e-07
-5.58234e-08
-3.28115e-07
-8.8214e-08
-3.02657e-07
-1.21674e-07
-2.72646e-07
-1.56e-07
-2.37937e-07
-1.90069e-07
-1.98269e-07
-2.22416e-07
-1.53871e-07
-2.52322e-07
-1.05796e-07
-2.7926e-07
-3.02721e-07
-5.50863e-08
-3.66347e-07
-3.18774e-08
3.74081e-07
-3.55707e-07
-6.64634e-08
-3.40552e-07
-1.03369e-07
-3.19736e-07
-1.4249e-07
-2.92561e-07
-1.83174e-07
-2.58591e-07
-2.24039e-07
-2.17676e-07
-2.63331e-07
-1.70522e-07
-2.99475e-07
-1.18427e-07
-3.31356e-07
-3.58334e-07
-6.28131e-08
-3.46711e-07
-3.28284e-08
3.47662e-07
-3.43869e-07
-6.93051e-08
-3.37083e-07
-1.10155e-07
-3.2397e-07
-1.55602e-07
-3.0237e-07
-2.04774e-07
-2.70858e-07
-2.55551e-07
-2.29256e-07
-3.04933e-07
-1.78898e-07
-3.49833e-07
-1.22011e-07
-3.88243e-07
-4.19437e-07
-6.09082e-08
-2.89682e-07
-2.68433e-08
2.83697e-07
-2.96481e-07
-6.25056e-08
-3.01827e-07
-1.04809e-07
-3.01712e-07
-1.55716e-07
-2.90842e-07
-2.15645e-07
-2.6514e-07
-2.81252e-07
-2.24048e-07
-3.46025e-07
-1.70317e-07
-4.03564e-07
-1.08261e-07
-4.50299e-07
-4.85932e-07
-4.17648e-08
-1.78113e-07
-1.88387e-08
1.70109e-07
-1.92312e-07
-4.8306e-08
-2.13825e-07
-8.32951e-08
-2.39167e-07
-1.30375e-07
-2.51527e-07
-2.03285e-07
-2.3502e-07
-2.97759e-07
-1.9375e-07
-3.87295e-07
-1.35477e-07
-4.61837e-07
-6.83088e-08
-5.17467e-07
-5.56338e-07
2.09662e-09
-2.52996e-08
-1.69392e-08
2.34004e-08
-3.89879e-08
-3.46175e-08
-8.03102e-08
-4.19728e-08
-1.38773e-07
-7.19127e-08
-2.01794e-07
-1.40264e-07
-1.93044e-07
-3.06509e-07
-1.40629e-07
-4.3971e-07
-7.22271e-08
-5.30239e-07
3.64471e-10
-5.90059e-07
-6.28153e-07
7.21793e-08
1.04415e-07
-1.91599e-08
-1.02194e-07
6.70235e-08
2.77449e-09
-8.53849e-09
3.35907e-08
-1.00694e-07
2.02408e-08
-1.63962e-07
-7.69983e-08
-1.50328e-07
-3.20142e-07
-6.41825e-08
-5.25855e-07
1.8928e-08
-6.13349e-07
9.41278e-08
-6.65258e-07
-6.96723e-07
1.62698e-07
1.45251e-07
1.18563e-08
-1.76268e-07
2.25933e-08
1.25436e-07
-1.07362e-07
1.6355e-07
-1.80962e-07
9.38457e-08
-1.61489e-07
-9.64703e-08
-7.80383e-08
-4.03594e-07
4.06764e-08
-6.4457e-07
1.30199e-07
-7.02871e-07
2.01361e-07
-7.3642e-07
-7.57237e-07
2.61875e-07
1.3499e-07
9.36579e-08
-2.16795e-07
1.59994e-08
2.44427e-07
-6.56059e-08
2.45155e-07
-8.80529e-08
1.16293e-07
-4.26419e-08
-1.41881e-07
9.15878e-08
-5.37817e-07
1.84451e-07
-7.37433e-07
2.55922e-07
-7.74342e-07
3.11828e-07
-7.92326e-07
-8.04418e-07
3.59009e-07
1.20689e-07
2.06125e-07
-2.33151e-07
4.56668e-08
3.19455e-07
1.9194e-08
2.71626e-07
4.95339e-08
8.5952e-08
1.33864e-07
-2.26215e-07
2.81929e-07
-6.85882e-07
3.32524e-07
-7.88028e-07
3.73447e-07
-8.15265e-07
4.09805e-07
-8.28685e-07
-8.3751e-07
4.42897e-07
1.07997e-07
3.10351e-07
-2.12224e-07
6.38364e-08
3.63615e-07
8.52783e-08
2.50189e-07
1.75463e-07
-4.23132e-09
3.28038e-07
-3.78788e-07
4.10586e-07
-7.68429e-07
4.4187e-07
-8.19312e-07
4.6461e-07
-8.38005e-07
4.86176e-07
-8.5025e-07
-8.59248e-07
5.07915e-07
2.70038e-08
4.08348e-07
-1.25e-07
-3.15044e-09
3.93756e-07
5.51178e-08
1.91921e-07
2.20833e-07
-1.69951e-07
4.5336e-07
-6.11317e-07
4.92539e-07
-8.07607e-07
5.08513e-07
-8.35286e-07
5.20912e-07
-8.50403e-07
5.3453e-07
-8.63868e-07
-8.7518e-07
5.50461e-07
-8.11699e-08
4.90403e-07
-8.86145e-10
-6.58439e-08
3.78431e-07
7.03434e-08
5.57308e-08
3.64394e-07
-4.64004e-07
5.24639e-07
-7.71562e-07
5.35046e-07
-8.18014e-07
5.39452e-07
-8.39692e-07
5.47024e-07
-8.57975e-07
5.58499e-07
-8.75343e-07
-8.90356e-07
5.73675e-07
-1.16173e-07
4.99897e-07
1.06679e-07
3.02844e-10
2.61965e-07
2.81708e-07
-2.25673e-07
5.1866e-07
-7.00953e-07
5.3676e-07
-7.89662e-07
5.38467e-07
-8.1972e-07
5.41904e-07
-8.43129e-07
5.50712e-07
-8.66783e-07
5.64811e-07
-8.89441e-07
-9.08646e-07
5.83101e-07
-9.09089e-08
3.94991e-07
1.95814e-07
1.54435e-07
1.66143e-08
4.70091e-07
-5.41327e-07
5.16525e-07
-7.47388e-07
5.17285e-07
-7.90422e-07
5.1781e-07
-8.20245e-07
5.25596e-07
-8.50914e-07
5.40459e-07
-8.81647e-07
5.60885e-07
-9.09866e-07
-9.32542e-07
5.8478e-07
-2.82558e-08
9.82495e-08
3.25001e-07
3.35682e-07
-3.47329e-07
4.80172e-07
-6.85814e-07
4.80812e-07
-7.48029e-07
4.79023e-07
-7.88633e-07
4.86811e-07
-8.28033e-07
5.03604e-07
-8.67708e-07
5.27262e-07
-9.05305e-07
5.55283e-07
-9.37887e-07
-9.62209e-07
5.84949e-07
2.05007e-07
-2.71093e-07
1.64336e-07
4.344e-07
-5.7673e-07
4.32749e-07
-6.84164e-07
4.31836e-07
-7.47115e-07
4.41323e-07
-7.9812e-07
4.60961e-07
-8.4767e-07
4.88073e-07
-8.9482e-07
5.20005e-07
-9.37237e-07
5.54021e-07
-9.71902e-07
-9.95561e-07
5.87373e-07
3.75888e-07
-4.35149e-07
-2.11832e-07
3.81422e-07
-5.82264e-07
3.85209e-07
-6.87951e-07
3.98537e-07
-7.60443e-07
4.21301e-07
-8.20884e-07
4.50961e-07
-8.7733e-07
4.85258e-07
-9.29118e-07
5.21914e-07
-9.73893e-07
5.58454e-07
-1.00844e-06
-1.02943e-06
5.92322e-07
3.38585e-07
-4.38718e-07
-3.35017e-07
3.44669e-07
-5.88347e-07
3.64006e-07
-7.07288e-07
3.89885e-07
-7.86322e-07
4.20391e-07
-8.51389e-07
4.54733e-07
-9.11672e-07
4.91672e-07
-9.66057e-07
5.29289e-07
-1.01151e-06
5.65203e-07
-1.04436e-06
-1.06122e-06
5.96994e-07
3.11643e-07
-4.16232e-07
-3.34129e-07
3.29265e-07
-6.0597e-07
3.59013e-07
-7.37035e-07
3.90283e-07
-8.17592e-07
4.24146e-07
-8.85252e-07
4.60612e-07
-9.48138e-07
4.98439e-07
-1.00388e-06
5.35516e-07
-1.04859e-06
5.69441e-07
-1.07828e-06
-1.08985e-06
5.98076e-07
2.87879e-07
-4.05225e-07
-2.98886e-07
3.1439e-07
-6.32482e-07
3.47996e-07
-7.70641e-07
3.84385e-07
-8.53981e-07
4.22938e-07
-9.23805e-07
4.62532e-07
-9.87732e-07
5.01439e-07
-1.04279e-06
5.37598e-07
-1.08475e-06
5.69039e-07
-1.10972e-06
-1.11506e-06
5.9424e-07
2.56767e-07
-4.22851e-07
-2.39141e-07
2.9364e-07
-6.69355e-07
3.36056e-07
-8.13057e-07
3.80024e-07
-8.9795e-07
4.22947e-07
-9.66727e-07
4.64064e-07
-1.02885e-06
5.02201e-07
-1.08093e-06
5.35988e-07
-1.11853e-06
5.6413e-07
-1.13787e-06
-1.13662e-06
5.85692e-07
2.5626e-07
-4.49948e-07
-2.29163e-07
2.96465e-07
-7.09559e-07
3.42447e-07
-8.59039e-07
3.8591e-07
-9.41412e-07
4.26602e-07
-1.00742e-06
4.64661e-07
-1.06691e-06
4.99298e-07
-1.11556e-06
5.29353e-07
-1.14859e-06
5.53672e-07
-1.16219e-06
-1.15442e-06
5.71478e-07
2.52366e-07
-4.95697e-07
-2.06617e-07
3.04667e-07
-7.61862e-07
3.48285e-07
-9.02658e-07
3.86572e-07
-9.79699e-07
4.23071e-07
-1.04392e-06
4.57513e-07
-1.10135e-06
4.88778e-07
-1.14683e-06
5.15443e-07
-1.17525e-06
5.36215e-07
-1.18296e-06
-1.16862e-06
5.50411e-07
2.62135e-07
-5.72114e-07
-1.85716e-07
3.12806e-07
-8.1253e-07
3.47766e-07
-9.37617e-07
3.79642e-07
-1.01157e-06
4.1198e-07
-1.07625e-06
4.43166e-07
-1.13254e-06
4.7134e-07
-1.175e-06
4.94685e-07
-1.1986e-06
5.11812e-07
-1.20009e-06
-1.17905e-06
5.22242e-07
2.51561e-07
-6.55174e-07
-1.68501e-07
3.06122e-07
-8.67095e-07
3.36454e-07
-9.67949e-07
3.65075e-07
-1.0402e-06
3.94269e-07
-1.10545e-06
4.22384e-07
-1.16065e-06
4.47328e-07
-1.19995e-06
4.67199e-07
-1.21847e-06
4.80792e-07
-1.21368e-06
-1.18617e-06
4.87918e-07
2.73451e-07
-7.27202e-07
-2.01423e-07
3.01145e-07
-8.94788e-07
3.20696e-07
-9.875e-07
3.43647e-07
-1.06315e-06
3.68799e-07
-1.1306e-06
3.93287e-07
-1.18514e-06
4.14472e-07
-1.22113e-06
4.30575e-07
-1.23457e-06
4.41005e-07
-1.22411e-06
-1.19121e-06
4.46045e-07
2.25634e-07
-7.74376e-07
-1.7846e-07
2.54212e-07
-9.23364e-07
2.78242e-07
-1.01153e-06
3.04123e-07
-1.08903e-06
3.29903e-07
-1.15638e-06
3.52865e-07
-1.2081e-06
3.70781e-07
-1.23905e-06
3.82665e-07
-1.24645e-06
3.8891e-07
-1.23035e-06
-1.19215e-06
3.8984e-07
1.70207e-07
-8.22793e-07
-1.21789e-07
2.02297e-07
-9.55454e-07
2.32629e-07
-1.04186e-06
2.61424e-07
-1.11782e-06
2.87048e-07
-1.182e-06
3.07699e-07
-1.22875e-06
3.21977e-07
-1.25333e-06
3.29927e-07
-1.2544e-06
3.33023e-07
-1.23345e-06
-1.19153e-06
3.32404e-07
1.34159e-07
-8.73716e-07
-8.32366e-08
1.67923e-07
-9.89218e-07
1.97456e-07
-1.0714e-06
2.23348e-07
-1.14371e-06
2.44873e-07
-1.20353e-06
2.60606e-07
-1.24448e-06
2.69632e-07
-1.26235e-06
2.73063e-07
-1.25783e-06
2.73919e-07
-1.23431e-06
-1.1938e-06
2.7619e-07
1.17589e-07
-9.14617e-07
-7.66884e-08
1.46338e-07
-1.01797e-06
1.6994e-07
-1.095e-06
1.89678e-07
-1.16345e-06
2.04956e-07
-1.21881e-06
2.13906e-07
-1.25344e-06
2.15531e-07
-1.26398e-06
2.11182e-07
-1.25349e-06
2.03549e-07
-1.22667e-06
-1.18534e-06
1.95086e-07
1.13856e-07
-9.49071e-07
-7.94025e-08
1.33744e-07
-1.03786e-06
1.49203e-07
-1.11046e-06
1.61916e-07
-1.17616e-06
1.70854e-07
-1.22775e-06
1.73664e-07
-1.25624e-06
1.69455e-07
-1.25977e-06
1.59799e-07
-1.24383e-06
1.46907e-07
-1.21378e-06
-1.17061e-06
1.32187e-07
1.18618e-07
-9.51726e-07
-1.15963e-07
1.22843e-07
-1.04208e-06
1.29397e-07
-1.11701e-06
1.36257e-07
-1.18302e-06
1.40696e-07
-1.23218e-06
1.39716e-07
-1.25526e-06
1.32626e-07
-1.25268e-06
1.2122e-07
-1.23242e-06
1.07655e-07
-1.20022e-06
-1.15609e-06
9.31254e-08
8.33741e-08
-9.62687e-07
-7.24134e-08
9.18301e-08
-1.05054e-06
1.00529e-07
-1.12571e-06
1.0794e-07
-1.19043e-06
1.11984e-07
-1.23623e-06
1.10252e-07
-1.25353e-06
1.0276e-07
-1.24519e-06
9.1567e-08
-1.22123e-06
7.8783e-08
-1.18743e-06
-1.14302e-06
6.57181e-08
5.64238e-08
-9.73506e-07
-4.56043e-08
6.65844e-08
-1.0607e-06
7.61376e-08
-1.13526e-06
8.36564e-08
-1.19795e-06
8.75664e-08
-1.24014e-06
8.57509e-08
-1.25172e-06
7.84731e-08
-1.23791e-06
6.7529e-08
-1.21029e-06
5.45818e-08
-1.17449e-06
-1.12955e-06
4.11068e-08
3.37205e-08
-9.85538e-07
-2.16889e-08
4.509e-08
-1.07207e-06
5.54341e-08
-1.14561e-06
6.33246e-08
-1.20584e-06
6.74599e-08
-1.24427e-06
6.60774e-08
-1.25033e-06
5.94714e-08
-1.2313e-06
4.87386e-08
-1.19955e-06
3.46892e-08
-1.16044e-06
-1.11329e-06
1.84384e-08
1.77948e-08
-9.98343e-07
-4.99052e-09
3.0011e-08
-1.08428e-06
4.07792e-08
-1.15638e-06
4.87021e-08
-1.21377e-06
5.27836e-08
-1.24836e-06
5.20899e-08
-1.24964e-06
4.68955e-08
-1.22611e-06
3.72673e-08
-1.18993e-06
2.26187e-08
-1.14579e-06
-1.09344e-06
2.76329e-09
1.18632e-08
-1.00765e-06
-2.55861e-09
2.29619e-08
-1.09538e-06
3.31376e-08
-1.16655e-06
4.05003e-08
-1.22113e-06
4.41141e-08
-1.25197e-06
4.44844e-08
-1.25001e-06
4.20273e-08
-1.22365e-06
3.58482e-08
-1.18375e-06
2.37869e-08
-1.13373e-06
-1.07278e-06
3.12499e-09
9.06599e-09
-1.02021e-06
3.50025e-09
2.04483e-08
-1.10677e-06
3.01579e-08
-1.17626e-06
3.68176e-08
-1.22779e-06
3.97248e-08
-1.25488e-06
4.16045e-08
-1.25189e-06
4.34083e-08
-1.22546e-06
4.37475e-08
-1.18409e-06
3.94894e-08
-1.12947e-06
-1.05794e-06
2.46521e-08
1.03048e-08
-1.02568e-06
-4.83697e-09
1.85053e-08
-1.11497e-06
2.65081e-08
-1.18426e-06
3.18467e-08
-1.23313e-06
3.33679e-08
-1.2564e-06
3.60194e-08
-1.25454e-06
4.15239e-08
-1.23096e-06
4.87602e-08
-1.19132e-06
5.62523e-08
-1.13696e-06
-1.06294e-06
6.12541e-08
-6.18745e-09
-1.03631e-06
1.68138e-08
5.68099e-09
-1.12683e-06
1.55306e-08
-1.19411e-06
2.09836e-08
-1.23858e-06
2.09613e-08
-1.25638e-06
2.23269e-08
-1.25591e-06
2.75967e-08
-1.23623e-06
3.50754e-08
-1.1988e-06
4.38113e-08
-1.1457e-06
-1.06938e-06
5.02493e-08
-2.54656e-08
-1.05351e-06
4.26662e-08
-8.93014e-09
-1.14337e-06
3.08072e-09
-1.20612e-06
8.77208e-09
-1.24427e-06
7.58362e-09
-1.25519e-06
7.29019e-09
-1.25562e-06
1.17167e-08
-1.24066e-06
1.86564e-08
-1.20574e-06
2.91725e-08
-1.15621e-06
-1.08721e-06
4.70049e-08
-4.17625e-08
-1.07883e-06
6.70832e-08
-2.10577e-08
-1.16408e-06
-7.28881e-09
-1.21989e-06
-1.12485e-09
-1.25043e-06
-2.07121e-09
-1.25424e-06
-2.87659e-09
-1.25481e-06
1.45992e-09
-1.24499e-06
7.16524e-09
-1.21145e-06
1.29084e-08
-1.16196e-06
-1.09311e-06
1.8806e-08
-5.01945e-08
-1.11418e-06
8.55448e-08
-2.82428e-08
-1.18603e-06
-1.39223e-08
-1.23421e-06
-7.53528e-09
-1.25682e-06
-7.07466e-09
-1.2547e-06
-6.35982e-09
-1.25552e-06
1.31304e-09
-1.25267e-06
1.32964e-08
-1.22343e-06
2.78744e-08
-1.17653e-06
-1.11716e-06
5.1923e-08
-4.75202e-08
-1.15057e-06
8.39095e-08
-2.95761e-08
-1.20397e-06
-1.61965e-08
-1.24759e-06
-1.08796e-08
-1.26214e-06
-1.01475e-08
-1.25543e-06
-9.59071e-09
-1.25608e-06
-2.28862e-09
-1.25997e-06
1.19301e-08
-1.23765e-06
2.71162e-08
-1.19172e-06
-1.13987e-06
4.98245e-08
-3.64422e-08
-1.17789e-06
6.37673e-08
-2.42626e-08
-1.21615e-06
-1.26032e-08
-1.25925e-06
-1.03291e-08
-1.26441e-06
-1.11375e-08
-1.25462e-06
-1.24825e-08
-1.25474e-06
-9.10221e-09
-1.26335e-06
4.84704e-09
-1.2516e-06
1.60737e-08
-1.20295e-06
-1.15363e-06
2.98312e-08
-1.53432e-08
-1.171e-06
8.44554e-09
-1.22931e-08
-1.2192e-06
-4.14866e-09
-1.2674e-06
-6.48882e-09
-1.26207e-06
-9.89455e-09
-1.25122e-06
-1.39003e-08
-1.25073e-06
-1.65236e-08
-1.26073e-06
-5.25089e-09
-1.26287e-06
3.48399e-10
-1.20855e-06
-1.14748e-06
-5.79828e-09
-6.2526e-09
-1.13866e-06
-2.60872e-08
-5.53695e-10
-1.2249e-06
5.88159e-09
-1.27383e-06
-1.06361e-09
-1.25513e-06
-7.11552e-09
-1.24517e-06
-1.33662e-08
-1.24448e-06
-2.06049e-08
-1.25349e-06
-1.07111e-08
-1.27276e-06
2.41757e-10
-1.2195e-06
-1.11971e-06
-2.75269e-08
-1.36044e-08
-1.08065e-06
-4.44029e-08
1.07088e-08
-1.24921e-06
1.46332e-08
-1.27776e-06
3.7002e-09
-1.24419e-06
-4.44007e-09
-1.23703e-06
-1.25057e-08
-1.23642e-06
-2.32279e-08
-1.24277e-06
-1.80554e-08
-1.27794e-06
1.22657e-08
-1.24982e-06