/*--------------------------------*- C++ -*----------------------------------*\
  =========                 |
  \\      /  F ield         | OpenFOAM: The Open Source CFD Toolbox
   \\    /   O peration     | Website:  https://openfoam.org
    \\  /    A nd           | Version:  8
     \\/     M anipulation  |
\*---------------------------------------------------------------------------*/
FoamFile
{
    version     2.0;
    format      ascii;
    class       volVectorField;
    location    "4.1";
    object      U;
}
// * * * * * * * * * * * * * * * * * * * * * * * * * * * * * * * * * * * * * //

dimensions      [0 1 -1 0 0 0 0];

internalField   nonuniform List<vector> 
9150
(
(0.0536496 -0.429017 0)
(0.0878557 -0.6224 0)
(0.0731715 -0.631506 0)
(0.0486276 -0.643756 0)
(0.017036 -0.654456 0)
(-0.0170561 -0.654453 0)
(-0.0486438 -0.643748 0)
(-0.0731826 -0.631498 0)
(-0.0878613 -0.622392 0)
(-0.0536512 -0.429005 0)
(0.0405786 -0.522753 0)
(0.05727 -0.625729 0)
(0.0421197 -0.613234 0)
(0.0293815 -0.622469 0)
(0.0104885 -0.628875 0)
(-0.0105023 -0.628874 0)
(-0.0293931 -0.622465 0)
(-0.0421284 -0.613229 0)
(-0.0572757 -0.625726 0)
(-0.0405808 -0.522744 0)
(0.0251033 -0.557965 0)
(0.0324031 -0.613881 0)
(0.0230338 -0.604485 0)
(0.0172455 -0.609994 0)
(0.00624305 -0.6132 0)
(-0.0062522 -0.613199 0)
(-0.0172533 -0.609992 0)
(-0.0230397 -0.604483 0)
(-0.0324075 -0.61388 0)
(-0.0251055 -0.55796 0)
(0.0152552 -0.584707 0)
(0.0173993 -0.607508 0)
(0.0117408 -0.601143 0)
(0.00885903 -0.60328 0)
(0.00323879 -0.604402 0)
(-0.00324427 -0.604402 0)
(-0.00886378 -0.603279 0)
(-0.0117444 -0.601142 0)
(-0.0174021 -0.607508 0)
(-0.0152566 -0.584705 0)
(0.00622244 -0.597152 0)
(0.00552943 -0.601413 0)
(0.00358941 -0.600041 0)
(0.0026729 -0.600347 0)
(0.00099072 -0.600483 0)
(-0.000992742 -0.600483 0)
(-0.00267466 -0.600347 0)
(-0.00359075 -0.600041 0)
(-0.00553055 -0.601413 0)
(-0.00622301 -0.597152 0)
(0.468975 -1.16151 1.65824e-24)
(0.282874 -1.08624 0)
(0.163008 -1.06939 0)
(0.0919284 -1.05759 0)
(0.0302481 -1.05286 0)
(-0.0304625 -1.05282 0)
(-0.0921194 -1.0575 0)
(-0.163163 -1.06925 0)
(-0.282977 -1.08605 0)
(-0.468927 -1.16125 -1.65524e-24)
(0.334038 -0.84436 4.60394e-25)
(0.28744 -0.936957 0)
(0.188347 -0.936918 0)
(0.108087 -0.936738 0)
(0.0356778 -0.939023 0)
(-0.0357987 -0.939 0)
(-0.108191 -0.936676 0)
(-0.188424 -0.936831 0)
(-0.287466 -0.936849 0)
(-0.334005 -0.844228 -4.5978e-25)
(0.278656 -0.702314 7.35305e-26)
(0.259117 -0.804816 0)
(0.178228 -0.817561 0)
(0.104529 -0.828342 0)
(0.034807 -0.836406 0)
(-0.0348801 -0.836392 0)
(-0.10459 -0.828305 0)
(-0.178269 -0.817511 0)
(-0.259129 -0.804759 0)
(-0.278642 -0.702253 -7.33493e-26)
(0.199302 -0.554157 2.96066e-25)
(0.216525 -0.709553 0)
(0.154382 -0.725922 0)
(0.091306 -0.742026 0)
(0.0305166 -0.753906 0)
(-0.0305623 -0.753898 0)
(-0.0913437 -0.742004 0)
(-0.154407 -0.725893 0)
(-0.216532 -0.709523 0)
(-0.199296 -0.554123 -2.96102e-25)
(0.118115 -0.445594 -4.72524e-25)
(0.156034 -0.64442 -6.74902e-25)
(0.116743 -0.663835 -2.29303e-25)
(0.0708982 -0.681228 -1.50069e-25)
(0.0239496 -0.694205 -8.5818e-27)
(-0.0239795 -0.6942 -8.61685e-27)
(-0.0709226 -0.681215 -1.50155e-25)
(-0.116759 -0.663819 -2.29336e-25)
(-0.15604 -0.644405 -6.74916e-25)
(-0.118114 -0.445575 -4.72506e-25)
(0.0239577 -0.918133 0)
(-0.0359004 -1.34228 0)
(0.0228591 -1.27214 0)
(-0.00469459 -1.22658 0)
(0.00256472 -1.22482 0)
(-0.00403662 -1.22443 0)
(0.00219931 -1.22646 0)
(-0.0248656 -1.27263 0)
(0.0330851 -1.34061 0)
(-0.0259885 -0.909075 0)
(0.0503005 -0.907596 0)
(-0.0220167 -1.33438 0)
(0.0225388 -1.2716 0)
(0.000355 -1.22498 0)
(0.000116582 -1.22338 0)
(-0.00117405 -1.22309 0)
(-0.00224823 -1.22504 0)
(-0.023869 -1.2715 0)
(0.0202593 -1.33381 0)
(-0.0516517 -0.903102 0)
(0.0785684 -0.94542 0)
(-0.0232474 -1.34869 0)
(0.0156646 -1.27619 0)
(0.00587414 -1.23197 0)
(-0.00062984 -1.2269 0)
(-0.000234393 -1.22677 0)
(-0.00697383 -1.23191 0)
(-0.0163553 -1.27581 0)
(0.021955 -1.34818 0)
(-0.0791751 -0.942592 0)
(0.145986 -1.0795 0)
(0.00361481 -1.36686 0)
(0.0139312 -1.2718 0)
(0.0216143 -1.22626 0)
(0.00570007 -1.21458 0)
(-0.00633868 -1.21453 0)
(-0.0222197 -1.22607 0)
(-0.0143198 -1.27156 0)
(-0.00445444 -1.36659 0)
(-0.146305 -1.078 0)
(0.299835 -1.21793 0)
(0.128475 -1.32226 0)
(0.0684294 -1.21046 0)
(0.0559795 -1.16887 0)
(0.0199648 -1.15636 0)
(-0.0203396 -1.15631 0)
(-0.0562924 -1.16871 0)
(-0.0687313 -1.21024 0)
(-0.128884 -1.32204 0)
(-0.299874 -1.21728 0)
(0.0813971 0.000883672 0)
(0.0806875 0.00103353 0)
(0.0798732 0.0011623 0)
(0.0789659 0.00127001 0)
(0.0779744 0.00135896 0)
(0.0769085 0.00143036 0)
(0.0757778 0.0014873 0)
(0.0745914 0.00153064 0)
(0.0733578 0.00156246 0)
(0.0720847 0.00158572 0)
(0.0820818 0.00166498 0)
(0.0816839 0.00198325 0)
(0.0811968 0.00227997 0)
(0.0806197 0.00255387 0)
(0.0799538 0.00280468 0)
(0.0792027 0.00303052 0)
(0.0783717 0.00323228 0)
(0.0774662 0.00341003 0)
(0.0764923 0.00356506 0)
(0.0754566 0.00369953 0)
(0.0790391 0.0023885 0)
(0.0785597 0.00287096 0)
(0.0780055 0.00333221 0)
(0.0773776 0.00376868 0)
(0.0766785 0.00417756 0)
(0.0759114 0.00455505 0)
(0.0750801 0.00489956 0)
(0.0741888 0.00521036 0)
(0.0732425 0.00548773 0)
(0.0722461 0.00573282 0)
(0.075807 0.0033652 0)
(0.0752609 0.00399212 0)
(0.074646 0.00459196 0)
(0.0739647 0.005161 0)
(0.0732201 0.00569571 0)
(0.072416 0.00619152 0)
(0.0715569 0.00664605 0)
(0.0706473 0.00705812 0)
(0.0696922 0.00742765 0)
(0.068697 0.00775553 0)
(0.0723949 0.00444196 0)
(0.0717914 0.00520568 0)
(0.0711232 0.00593674 0)
(0.0703931 0.00663066 0)
(0.0696046 0.0072828 0)
(0.068762 0.00788761 0)
(0.0678696 0.00844174 0)
(0.0669329 0.00894284 0)
(0.0659583 0.00938998 0)
(0.0649524 0.00978424 0)
(0.0687626 0.0056393 0)
(0.0681025 0.00653179 0)
(0.0673808 0.00738621 0)
(0.0666006 0.00819654 0)
(0.0657659 0.00895671 0)
(0.0648811 0.00966103 0)
(0.0639512 0.0103041 0)
(0.062982 0.0108816 0)
(0.0619813 0.0113902 0)
(0.0609581 0.0118307 0)
(0.0648651 0.00695329 0)
(0.0641465 0.00796856 0)
(0.063368 0.00894079 0)
(0.0625332 0.00986153 0)
(0.0616473 0.0107226 0)
(0.0607162 0.0115179 0)
(0.059745 0.0122408 0)
(0.058739 0.0128841 0)
(0.057707 0.0134398 0)
(0.0566615 0.0139045 0)
(0.0606518 0.0083884 0)
(0.0598695 0.00952521 0)
(0.0590248 0.0106137 0)
(0.0581238 0.0116394 0)
(0.057177 0.0125916 0)
(0.056194 0.0134658 0)
(0.0551795 0.0142579 0)
(0.054136 0.0149566 0)
(0.0530732 0.0155465 0)
(0.0520062 0.016018 0)
(0.0560698 0.00995464 0)
(0.0552117 0.0112213 0)
(0.0542794 0.0124328 0)
(0.0532843 0.0135561 0)
(0.0522513 0.0145742 0)
(0.0512027 0.0154961 0)
(0.050142 0.0163411 0)
(0.0490654 0.0170913 0)
(0.0479981 0.0176839 0)
(0.0469416 0.0181982 0)
(0.0510618 0.0116661 0)
(0.0501064 0.013092 0)
(0.0490423 0.0144744 0)
(0.0478856 0.0157051 0)
(0.0466984 0.0167484 0)
(0.0455508 0.0176606 0)
(0.0444455 0.0185819 0)
(0.0432972 0.0195062 0)
(0.0422525 0.0197826 0)
(0.0414341 0.0201225 0)
(0.0455506 0.0135634 0)
(0.0444722 0.0152076 0)
(0.0432489 0.0169645 0)
(0.0418686 0.0184439 0)
(0.0404292 0.0195394 0)
(0.0390816 0.0202168 0)
(0.0380066 0.0207183 0)
(0.0374127 0.0210608 0)
(0.0370774 0.0210173 0)
(0.0367348 0.0210719 0)
(0.0393999 0.0161136 0)
(0.0379377 0.0179757 0)
(0.0366484 0.0195347 0)
(0.0356653 0.020941 0)
(0.0348515 0.0218395 0)
(0.0342477 0.0219221 0)
(0.0338222 0.0218643 0)
(0.0333983 0.0216383 0)
(0.0329332 0.0216664 0)
(0.0324465 0.0217197 0)
(0.0340283 0.0186252 0)
(0.0331246 0.0203318 0)
(0.0322953 0.0213682 0)
(0.0316476 0.0221353 0)
(0.0312076 0.0227673 0)
(0.0307294 0.0226793 0)
(0.0301609 0.0226796 0)
(0.0295148 0.0227023 0)
(0.0287802 0.0228576 0)
(0.0279609 0.0230681 0)
(0.0302147 0.0205074 0)
(0.0293651 0.02173 0)
(0.0287306 0.0225911 0)
(0.0280914 0.0231569 0)
(0.0273837 0.0237481 0)
(0.0266224 0.0239879 0)
(0.0257258 0.024207 0)
(0.0247183 0.0244489 0)
(0.0236366 0.0247594 0)
(0.0224989 0.0251355 0)
(0.0257517 0.0219662 0)
(0.0250221 0.0231357 0)
(0.0241323 0.024048 0)
(0.023143 0.0248647 0)
(0.0220938 0.0255295 0)
(0.0209597 0.0260247 0)
(0.0197383 0.0264472 0)
(0.0184551 0.0268418 0)
(0.017132 0.0272527 0)
(0.0157832 0.0277116 0)
(0.0201979 0.0235757 0)
(0.0190989 0.0250306 0)
(0.0178914 0.026235 0)
(0.0165723 0.0272313 0)
(0.0151713 0.0280507 0)
(0.0137137 0.0287014 0)
(0.0122187 0.0292241 0)
(0.0107132 0.029676 0)
(0.00922201 0.0301087 0)
(0.00775406 0.030577 0)
(0.0132559 0.0260864 0)
(0.0117447 0.0277353 0)
(0.0101263 0.0291488 0)
(0.00841664 0.0303091 0)
(0.00665847 0.0312262 0)
(0.00488956 0.0319336 0)
(0.00314258 0.0324557 0)
(0.00145684 0.0328495 0)
(-0.000129966 0.0331678 0)
(-0.00162092 0.0335482 0)
(0.00489395 0.0294024 0)
(0.00294673 0.0312802 0)
(0.000856236 0.0328916 0)
(-0.0013239 0.0341547 0)
(-0.00348857 0.0350664 0)
(-0.00556517 0.0357542 0)
(-0.00757831 0.0362322 0)
(-0.00940935 0.0362513 0)
(-0.01096 0.0362153 0)
(-0.0123556 0.0364189 0)
(-0.00493974 0.033579 0)
(-0.00737605 0.0358023 0)
(-0.0100608 0.0377293 0)
(-0.0129061 0.0391102 0)
(-0.0156317 0.0398198 0)
(-0.0180411 0.0401709 0)
(-0.0199942 0.040059 0)
(-0.0215033 0.0394051 0)
(-0.0228343 0.0390255 0)
(-0.0241645 0.0391121 0)
(-0.0163647 0.0386015 0)
(-0.0192639 0.0413465 0)
(-0.022519 0.0440299 0)
(-0.0262265 0.0460945 0)
(-0.0295914 0.0454786 0)
(-0.0316372 0.0439791 0)
(-0.0328374 0.0429651 0)
(-0.0339973 0.0419692 0)
(-0.0352657 0.0416096 0)
(-0.0366796 0.041847 0)
(-0.0300992 0.044942 0)
(-0.0337179 0.0484086 0)
(-0.0375848 0.0519216 0)
(-0.0408239 0.0528773 0)
(-0.0425884 0.049391 0)
(-0.0436885 0.0465048 0)
(-0.0448699 0.0451877 0)
(-0.0461409 0.0444023 0)
(-0.0476285 0.0444062 0)
(-0.0493837 0.0451233 0)
(-0.0448612 0.053753 0)
(-0.0491331 0.0558828 0)
(-0.0515768 0.0573306 0)
(-0.0525099 0.0555211 0)
(-0.0532593 0.0515032 0)
(-0.0545732 0.0491229 0)
(-0.056183 0.0478907 0)
(-0.0579451 0.0475675 0)
(-0.0599392 0.048139 0)
(-0.0621916 0.0495831 0)
(-0.0581017 0.0615456 0)
(-0.0604564 0.0612149 0)
(-0.0620692 0.0595766 0)
(-0.0632075 0.0568177 0)
(-0.0645407 0.0542069 0)
(-0.0663919 0.0524616 0)
(-0.0684544 0.0516389 0)
(-0.0706671 0.0517544 0)
(-0.0729725 0.052909 0)
(-0.0753915 0.0548176 0)
(-0.0704476 0.06588 0)
(-0.0722604 0.0644738 0)
(-0.0738623 0.0622114 0)
(-0.0755592 0.0598922 0)
(-0.0777017 0.0580622 0)
(-0.0800946 0.056858 0)
(-0.0826404 0.0563711 0)
(-0.0852195 0.0567222 0)
(-0.0876861 0.0578583 0)
(-0.0896729 0.0586289 0)
(-0.0818283 0.0696031 0)
(-0.0839649 0.0683931 0)
(-0.0864303 0.066406 0)
(-0.0892179 0.064675 0)
(-0.0921498 0.0632741 0)
(-0.0951345 0.0622738 0)
(-0.0980825 0.061758 0)
(-0.100765 0.0617806 0)
(-0.102891 0.0617415 0)
(-0.104264 0.0605524 0)
(-0.0947352 0.0746693 0)
(-0.0978836 0.0738236 0)
(-0.101255 0.0725433 0)
(-0.10478 0.0711432 0)
(-0.108324 0.0697654 0)
(-0.11178 0.0685456 0)
(-0.115017 0.0675886 0)
(-0.117818 0.0667459 0)
(-0.12039 0.0656751 0)
(-0.122754 0.0636539 0)
(-0.109117 0.0817894 0)
(-0.113204 0.0812955 0)
(-0.117368 0.0802903 0)
(-0.121543 0.0789213 0)
(-0.125621 0.0773278 0)
(-0.129509 0.0757447 0)
(-0.133221 0.0743456 0)
(-0.136696 0.0726968 0)
(-0.139415 0.0704044 0)
(-0.141083 0.0675552 0)
(-0.124473 0.0904033 0)
(-0.129076 0.0901616 0)
(-0.13373 0.0892028 0)
(-0.138265 0.0875733 0)
(-0.142663 0.0857152 0)
(-0.146757 0.0835952 0)
(-0.150394 0.081903 0)
(-0.153498 0.0792795 0)
(-0.155636 0.0743859 0)
(-0.156303 0.0684652 0)
(-0.13879 0.0999097 0)
(-0.143849 0.0999264 0)
(-0.148818 0.0986119 0)
(-0.153486 0.0965013 0)
(-0.157727 0.0943834 0)
(-0.161678 0.0916775 0)
(-0.164696 0.0878124 0)
(-0.166064 0.082605 0)
(-0.1664 0.0759253 0)
(-0.16648 0.0684623 0)
(-0.15186 0.110568 0)
(-0.157237 0.110118 0)
(-0.162155 0.108227 0)
(-0.166627 0.105717 0)
(-0.170717 0.102432 0)
(-0.173593 0.0974357 0)
(-0.174795 0.0903032 0)
(-0.174845 0.0827331 0)
(-0.174337 0.0752067 0)
(-0.173437 0.0679476 0)
(-0.162515 0.121672 0)
(-0.167853 0.120276 0)
(-0.172577 0.117724 0)
(-0.176632 0.11379 0)
(-0.179216 0.10777 0)
(-0.180196 0.0996147 0)
(-0.180227 0.0903931 0)
(-0.179625 0.0817781 0)
(-0.178494 0.0731805 0)
(-0.177039 0.0652438 0)
(-0.170887 0.13296 0)
(-0.176422 0.130742 0)
(-0.181113 0.126259 0)
(-0.183994 0.118829 0)
(-0.184842 0.109333 0)
(-0.184492 0.0993626 0)
(-0.183479 0.0891995 0)
(-0.182051 0.0792522 0)
(-0.180207 0.0698541 0)
(-0.178017 0.0611956 0)
(-0.176911 0.145396 0)
(-0.182912 0.141395 0)
(-0.186579 0.13198 0)
(-0.187241 0.12049 0)
(-0.186636 0.108752 0)
(-0.185396 0.0972057 0)
(-0.183698 0.0859332 0)
(-0.181587 0.0751817 0)
(-0.17915 0.0651244 0)
(-0.176434 0.0558726 0)
(-0.180068 0.159761 0)
(-0.185409 0.149692 0)
(-0.18649 0.133594 0)
(-0.185623 0.119531 0)
(-0.184257 0.106157 0)
(-0.182482 0.0934614 0)
(-0.180337 0.0814407 0)
(-0.177912 0.0701273 0)
(-0.175268 0.0595766 0)
(-0.172421 0.0498641 0)
(-0.182572 0.169267 0)
(-0.182468 0.150501 0)
(-0.180567 0.132066 0)
(-0.179141 0.116766 0)
(-0.177519 0.10256 0)
(-0.175627 0.0892638 0)
(-0.173525 0.0767842 0)
(-0.171257 0.0650851 0)
(-0.16884 0.054179 0)
(-0.166273 0.0441103 0)
(-0.174461 0.168829 0)
(-0.172664 0.147097 0)
(-0.170897 0.129263 0)
(-0.169479 0.113631 0)
(-0.167863 0.0990848 0)
(-0.166108 0.0854687 0)
(-0.16426 0.072702 0)
(-0.162326 0.0607484 0)
(-0.160318 0.0496089 0)
(-0.158241 0.0392843 0)
(-0.165968 0.162875 0)
(-0.162993 0.142679 0)
(-0.160705 0.125785 0)
(-0.158695 0.110197 0)
(-0.156847 0.0956424 0)
(-0.155087 0.0820018 0)
(-0.153393 0.0692097 0)
(-0.151738 0.0572249 0)
(-0.150097 0.0460114 0)
(-0.14843 0.0355755 0)
(-0.155223 0.155871 0)
(-0.151856 0.136988 0)
(-0.149222 0.121057 0)
(-0.146774 0.106059 0)
(-0.144677 0.0919143 0)
(-0.142794 0.0785617 0)
(-0.141051 0.0659747 0)
(-0.139391 0.054117 0)
(-0.137781 0.0429592 0)
(-0.136202 0.0325509 0)
(-0.144316 0.147908 0)
(-0.140443 0.1303 0)
(-0.137364 0.115463 0)
(-0.134484 0.101281 0)
(-0.132031 0.0877137 0)
(-0.129823 0.0747418 0)
(-0.127746 0.0623917 0)
(-0.125736 0.0506985 0)
(-0.123769 0.0396516 0)
(-0.121846 0.029335 0)
(-0.133838 0.138153 0)
(-0.129379 0.122566 0)
(-0.125951 0.109011 0)
(-0.122623 0.095678 0)
(-0.119618 0.0826786 0)
(-0.116787 0.0700337 0)
(-0.114009 0.0577805 0)
(-0.111224 0.0461596 0)
(-0.108442 0.0351763 0)
(-0.105664 0.0249013 0)
(-0.125308 0.127698 0)
(-0.120895 0.114571 0)
(-0.116753 0.101728 0)
(-0.11262 0.0888322 0)
(-0.108563 0.0760744 0)
(-0.104524 0.0635094 0)
(-0.10048 0.0512317 0)
(-0.0964293 0.0395825 0)
(-0.0923327 0.0285631 0)
(-0.0882251 0.0182985 0)
(-0.122521 0.11695 0)
(-0.116931 0.104789 0)
(-0.11129 0.0920701 0)
(-0.105619 0.0791926 0)
(-0.0999089 0.0664049 0)
(-0.0941543 0.0538218 0)
(-0.0883656 0.041563 0)
(-0.0825233 0.029832 0)
(-0.0766054 0.0187499 0)
(-0.0706654 0.0085337 0)
(-0.119967 0.105104 0)
(-0.113656 0.0924187 0)
(-0.106891 0.0793489 0)
(-0.099872 0.0662712 0)
(-0.0927186 0.0533302 0)
(-0.0854188 0.0405291 0)
(-0.0779071 0.0280036 0)
(-0.0701427 0.0159942 0)
(-0.0621704 0.00475787 0)
(-0.0541046 -0.00543412 0)
(-0.118108 0.0925431 0)
(-0.111534 0.0784394 0)
(-0.104009 0.0641819 0)
(-0.0959438 0.0505591 0)
(-0.0876991 0.0372238 0)
(-0.07922 0.0239344 0)
(-0.0703948 0.0108244 0)
(-0.0611319 -0.00179607 0)
(-0.0513167 -0.0136283 0)
(-0.0410589 -0.0238185 0)
(-0.120158 0.0807298 0)
(-0.113392 0.0642694 0)
(-0.105077 0.0474235 0)
(-0.0959407 0.0340481 0)
(-0.0871041 0.0208361 0)
(-0.0777951 0.00649716 0)
(-0.067623 -0.00754721 0)
(-0.0570259 -0.0207712 0)
(-0.0458714 -0.0343093 0)
(-0.0340154 -0.04614 0)
(-0.130022 0.0679311 0)
(-0.121175 0.0489073 0)
(-0.113108 0.0309581 0)
(-0.104771 0.0161536 0)
(-0.0940268 0.000797949 0)
(-0.0822611 -0.0151313 0)
(-0.0700388 -0.0307901 0)
(-0.0568056 -0.0459661 0)
(-0.0426802 -0.0606316 0)
(-0.028691 -0.0736312 0)
(-0.145472 0.0480582 0)
(-0.135011 0.0283802 0)
(-0.123716 0.0103007 0)
(-0.113397 -0.00598757 0)
(-0.102796 -0.0231246 0)
(-0.0895847 -0.0421596 0)
(-0.0743489 -0.0602648 0)
(-0.0592284 -0.0762047 0)
(-0.0438324 -0.0898844 0)
(-0.0274292 -0.102859 0)
(-0.156174 0.028859 0)
(-0.147268 0.00794065 0)
(-0.13684 -0.0106009 0)
(-0.124684 -0.0284595 0)
(-0.11147 -0.0483119 0)
(-0.0971286 -0.0697873 0)
(-0.0814384 -0.0893359 0)
(-0.0644753 -0.107452 0)
(-0.0460618 -0.124236 0)
(-0.026303 -0.139527 0)
(-0.169039 0.0148173 0)
(-0.160453 -0.00886664 0)
(-0.150434 -0.0319391 0)
(-0.137834 -0.055011 0)
(-0.122682 -0.0790846 0)
(-0.105967 -0.102508 0)
(-0.0882436 -0.125085 0)
(-0.0694299 -0.146183 0)
(-0.0495908 -0.165558 0)
(-0.0283856 -0.183378 0)
(-0.180331 -0.00249212 0)
(-0.170558 -0.0311564 0)
(-0.159745 -0.0579929 0)
(-0.147825 -0.0837465 0)
(-0.133748 -0.111395 0)
(-0.117146 -0.138315 0)
(-0.098478 -0.16346 0)
(-0.078355 -0.186484 0)
(-0.0565839 -0.208108 0)
(-0.0336593 -0.227878 0)
(-0.185921 -0.0195263 0)
(-0.178804 -0.048933 0)
(-0.169559 -0.0785502 0)
(-0.158212 -0.109337 0)
(-0.144459 -0.141281 0)
(-0.128316 -0.172542 0)
(-0.109591 -0.201902 0)
(-0.0885161 -0.229179 0)
(-0.0652987 -0.254058 0)
(-0.0404884 -0.276025 0)
(-0.185377 -0.0292111 0)
(-0.180992 -0.0625537 0)
(-0.174685 -0.0973414 0)
(-0.165807 -0.133447 0)
(-0.153889 -0.170483 0)
(-0.13863 -0.207313 0)
(-0.119858 -0.242573 0)
(-0.0977212 -0.275137 0)
(-0.0727411 -0.304218 0)
(-0.0456419 -0.329245 0)
(-0.173755 -0.0343741 0)
(-0.173028 -0.070284 0)
(-0.170881 -0.10931 0)
(-0.166178 -0.151413 0)
(-0.157715 -0.195827 0)
(-0.144524 -0.240854 0)
(-0.126162 -0.284239 0)
(-0.102951 -0.323943 0)
(-0.0758602 -0.358594 0)
(-0.0460979 -0.387506 0)
(-0.143223 -0.0312207 0)
(-0.14665 -0.0679026 0)
(-0.150049 -0.110034 0)
(-0.151848 -0.158367 0)
(-0.149634 -0.212505 0)
(-0.140825 -0.269939 0)
(-0.124044 -0.326038 0)
(-0.0998471 -0.376281 0)
(-0.0703699 -0.418279 0)
(-0.0378334 -0.451595 0)
(-0.0864692 -0.023162 0)
(-0.0920662 -0.05833 0)
(-0.10139 -0.101613 0)
(-0.114088 -0.155118 0)
(-0.124613 -0.219207 0)
(-0.124003 -0.291118 0)
(-0.109833 -0.364582 0)
(-0.0842776 -0.430501 0)
(-0.051736 -0.48253 0)
(-0.0166508 -0.520488 0)
(-0.0117935 -0.0167622 0)
(-0.0146876 -0.0429945 0)
(-0.0264224 -0.0746701 0)
(-0.055882 -0.123248 0)
(-0.0926685 -0.204454 0)
(-0.100804 -0.311437 0)
(-0.0835537 -0.409649 0)
(-0.0549472 -0.492022 0)
(-0.0190058 -0.552121 0)
(0.0182696 -0.592233 0)
(0.0506969 -0.017953 0)
(0.0481366 -0.0309575 0)
(0.0234344 -0.0291723 0)
(-0.0396431 -0.0414672 0)
(-0.0933304 -0.107166 0)
(-0.0780605 -0.328043 0)
(-0.0373846 -0.477664 0)
(-0.00698474 -0.569756 0)
(0.0270115 -0.627647 0)
(0.0637191 -0.663648 0)
(0.088716 -0.0139343 0)
(0.0497375 0.0545794 0)
(-0.022986 0.123742 0)
(-0.0828169 0.100543 0)
(-0.11767 -0.0383547 0)
(-0.0874439 -0.334312 0)
(0.0234 -0.580854 0)
(0.0550512 -0.659327 0)
(0.0827767 -0.703351 0)
(0.114694 -0.729734 0)
(0.104976 0.0356602 0)
(0.0320139 0.190085 0)
(-0.018565 0.212013 0)
(-0.0472621 0.112375 0)
(-0.0496041 -0.106977 0)
(-0.0148693 -0.42321 0)
(0.0972669 -0.702161 0)
(0.122678 -0.746399 0)
(0.142035 -0.769526 0)
(0.166581 -0.784809 0)
(0.0988801 0.148425 0)
(0.0345522 0.289782 0)
(0.00840354 0.269102 0)
(0.00635838 0.109797 0)
(0.0193178 -0.184178 0)
(0.122467 -0.637187 0)
(0.164219 -0.768022 0)
(0.181511 -0.799986 0)
(0.195099 -0.814978 0)
(0.212667 -0.824422 0)
(0.0767833 0.270991 0)
(0.035664 0.350289 0)
(0.0289234 0.2725 0)
(0.0554704 0.0576149 0)
(0.112331 -0.277388 0)
(0.205921 -0.741963 0)
(0.218408 -0.807126 0)
(0.227508 -0.829674 0)
(0.236967 -0.842175 0)
(0.248254 -0.850474 0)
(0.0228887 0.356191 0)
(-0.00583481 0.384734 0)
(0.00146924 0.236184 0)
(0.0590896 -0.0559233 0)
(0.182661 -0.465085 0)
(0.244836 -0.796098 0)
(0.253103 -0.83169 0)
(0.257035 -0.846715 0)
(0.263278 -0.858442 0)
(0.270926 -0.867996 0)
(-0.0397131 0.456538 0)
(-0.0534226 0.402969 0)
(-0.0164107 0.151696 0)
(0.106395 -0.272634 0)
(0.252559 -0.760362 0)
(0.265465 -0.816866 0)
(0.268961 -0.838515 0)
(0.271272 -0.854508 0)
(0.275834 -0.869429 0)
(0.2826 -0.882363 0)
(-0.0730841 0.520855 0)
(-0.0478996 0.349397 0)
(0.0562917 -0.0433098 0)
(0.240343 -0.663121 0)
(0.26347 -0.786089 0)
(0.269113 -0.819988 0)
(0.270023 -0.841089 0)
(0.272533 -0.861379 0)
(0.278227 -0.881139 0)
(0.286529 -0.898272 0)
(-0.0948621 0.475182 0)
(-0.000240386 0.173083 0)
(0.194744 -0.399842 0)
(0.24898 -0.743378 0)
(0.257738 -0.793759 0)
(0.258864 -0.819375 0)
(0.260298 -0.84524 0)
(0.265666 -0.872165 0)
(0.274708 -0.897711 0)
(0.286114 -0.918993 0)
(-0.100642 0.334268 0)
(0.0911625 -0.116818 0)
(0.22642 -0.689003 0)
(0.237534 -0.753465 0)
(0.240111 -0.787663 0)
(0.241093 -0.821147 0)
(0.246607 -0.856508 0)
(0.256904 -0.891088 0)
(0.270229 -0.922003 0)
(0.285017 -0.946071 0)
(0.0124815 -0.11906 0)
(0.194557 -0.586501 0)
(0.211971 -0.690728 0)
(0.216279 -0.745019 0)
(0.21819 -0.78957 0)
(0.224561 -0.834809 0)
(0.236345 -0.878973 0)
(0.251533 -0.919619 0)
(0.268408 -0.953831 0)
(0.285589 -0.978376 0)
(0.158928 -0.443729 0)
(0.187064 -0.590494 0)
(0.192228 -0.682354 0)
(0.196195 -0.749022 0)
(0.204059 -0.806571 0)
(0.217176 -0.860759 0)
(0.233549 -0.910912 0)
(0.251632 -0.955006 0)
(0.270253 -0.990053 0)
(0.288162 -1.01278 0)
(0.16494 -0.447903 0)
(0.173123 -0.579917 0)
(0.177622 -0.69184 0)
(0.18771 -0.770792 0)
(0.201705 -0.834939 0)
(0.218314 -0.893831 0)
(0.236391 -0.947229 0)
(0.255288 -0.992669 0)
(0.273969 -1.02673 0)
(0.291173 -1.04599 0)
(0.163838 -0.428268 0)
(0.160115 -0.586645 0)
(0.170538 -0.719261 0)
(0.186252 -0.800658 0)
(0.202999 -0.867168 0)
(0.220986 -0.928951 0)
(0.239745 -0.984431 0)
(0.258721 -1.03002 0)
(0.276754 -1.06176 0)
(0.29262 -1.07631 0)
(0.148072 -0.396209 0)
(0.147555 -0.622621 0)
(0.164487 -0.7541 0)
(0.181813 -0.834188 0)
(0.201308 -0.903021 0)
(0.221431 -0.967055 0)
(0.241256 -1.02315 0)
(0.260216 -1.06703 0)
(0.277329 -1.09473 0)
(0.291635 -1.10335 0)
(0.114719 -0.417198 0)
(0.137641 -0.650214 0)
(0.158274 -0.789255 0)
(0.177777 -0.874551 0)
(0.200266 -0.944952 0)
(0.222132 -1.00865 0)
(0.242092 -1.06259 0)
(0.260146 -1.10255 0)
(0.275765 -1.12478 0)
(0.288276 -1.12681 0)
(0.111833 -0.432277 0)
(0.140322 -0.685893 0)
(0.161449 -0.836092 0)
(0.180942 -0.920818 0)
(0.202616 -0.988205 0)
(0.22327 -1.04893 0)
(0.241568 -1.09923 0)
(0.257776 -1.13452 0)
(0.271489 -1.15098 0)
(0.282069 -1.14647 0)
(0.1081 -0.46723 0)
(0.14327 -0.732399 0)
(0.164672 -0.882441 0)
(0.182967 -0.962428 0)
(0.201971 -1.02696 0)
(0.220503 -1.08512 0)
(0.237107 -1.13207 0)
(0.251679 -1.16279 0)
(0.263655 -1.17349 0)
(0.27241 -1.16246 0)
(0.111064 -0.521624 0)
(0.146283 -0.790254 0)
(0.166431 -0.923198 0)
(0.181287 -0.997428 0)
(0.197612 -1.06139 0)
(0.214047 -1.11799 0)
(0.229121 -1.16187 0)
(0.242156 -1.18788 0)
(0.252373 -1.19249 0)
(0.259246 -1.17472 0)
(0.111213 -0.618473 0)
(0.138974 -0.843309 0)
(0.162012 -0.95466 0)
(0.17525 -1.02709 0)
(0.189676 -1.0918 0)
(0.204354 -1.14747 0)
(0.217901 -1.18841 0)
(0.22928 -1.20956 0)
(0.237711 -1.20793 0)
(0.242853 -1.18357 0)
(0.129889 -0.694949 0)
(0.141622 -0.880843 0)
(0.155046 -0.977087 0)
(0.165835 -1.05118 0)
(0.17807 -1.1179 0)
(0.190772 -1.17318 0)
(0.202456 -1.2112 0)
(0.211904 -1.22741 0)
(0.218557 -1.21985 0)
(0.222264 -1.18979 0)
(0.104266 -0.755461 0)
(0.120618 -0.910641 0)
(0.132517 -0.998291 0)
(0.145403 -1.07506 0)
(0.158752 -1.14317 0)
(0.171205 -1.19691 0)
(0.181578 -1.23076 0)
(0.189027 -1.24125 0)
(0.193488 -1.22763 0)
(0.194984 -1.19155 0)
(0.0710273 -0.797761 0)
(0.0948441 -0.93763 0)
(0.108681 -1.02589 0)
(0.123664 -1.1036 0)
(0.137619 -1.16996 0)
(0.149377 -1.21958 0)
(0.158125 -1.24755 0)
(0.163538 -1.25172 0)
(0.166136 -1.23271 0)
(0.166454 -1.19149 0)
(0.0552672 -0.850215 0)
(0.0766152 -0.972791 0)
(0.0914214 -1.0579 0)
(0.10564 -1.13242 0)
(0.117713 -1.19452 0)
(0.127147 -1.23849 0)
(0.133295 -1.25985 0)
(0.136212 -1.2582 0)
(0.136834 -1.23608 0)
(0.136319 -1.19529 0)
(0.0506076 -0.898535 0)
(0.0667904 -1.00686 0)
(0.0791901 -1.0859 0)
(0.0903774 -1.15577 0)
(0.0993531 -1.21304 0)
(0.105554 -1.25072 0)
(0.108167 -1.26485 0)
(0.107234 -1.25725 0)
(0.103397 -1.2321 0)
(0.098742 -1.19123 0)
(0.0510329 -0.935348 0)
(0.0626002 -1.03085 0)
(0.0708436 -1.10468 0)
(0.0780678 -1.17113 0)
(0.0837767 -1.22435 0)
(0.086911 -1.25581 0)
(0.0865057 -1.26266 0)
(0.0826783 -1.24914 0)
(0.0760746 -1.22038 0)
(0.0701401 -1.17775 0)
(0.0557642 -0.950315 0)
(0.0599742 -1.03993 0)
(0.0631428 -1.11361 0)
(0.0666414 -1.17962 0)
(0.0697667 -1.23016 0)
(0.0708092 -1.25602 0)
(0.0686852 -1.25638 0)
(0.0636346 -1.23806 0)
(0.0565642 -1.20668 0)
(0.0511681 -1.16288 0)
(0.0372926 -0.957632 0)
(0.0433587 -1.04562 0)
(0.0482825 -1.12091 0)
(0.052517 -1.18658 0)
(0.0556052 -1.23419 0)
(0.0562457 -1.25441 0)
(0.0537875 -1.24887 0)
(0.0486755 -1.2267 0)
(0.0419806 -1.19373 0)
(0.0372015 -1.14944 0)
(0.0242677 -0.967594 0)
(0.030266 -1.05536 0)
(0.0358585 -1.13039 0)
(0.0403985 -1.19418 0)
(0.0434606 -1.23818 0)
(0.043974 -1.25258 0)
(0.0415801 -1.24145 0)
(0.0366274 -1.21573 0)
(0.0299649 -1.18116 0)
(0.0251838 -1.13677 0)
(0.0133624 -0.979667 0)
(0.0192227 -1.06629 0)
(0.0252911 -1.14037 0)
(0.03017 -1.2019 0)
(0.0333613 -1.24224 0)
(0.0339626 -1.25097 0)
(0.0319367 -1.23447 0)
(0.0272894 -1.20494 0)
(0.0203747 -1.16792 0)
(0.0149013 -1.12252 0)
(0.00586134 -0.992404 0)
(0.0115566 -1.07831 0)
(0.0178243 -1.15112 0)
(0.0228749 -1.20997 0)
(0.026011 -1.24643 0)
(0.0266568 -1.24978 0)
(0.0252822 -1.22821 0)
(0.0213757 -1.19427 0)
(0.0145327 -1.15312 0)
(0.00877755 -1.10433 0)
(0.00327261 -1.0036 0)
(0.00837644 -1.09034 0)
(0.0141673 -1.16191 0)
(0.0189404 -1.21781 0)
(0.0217183 -1.25035 0)
(0.0223305 -1.24936 0)
(0.0220135 -1.22371 0)
(0.0197727 -1.18518 0)
(0.0144628 -1.13798 0)
(0.0104129 -1.08173 0)
(0.0019081 -1.01473 0)
(0.00724412 -1.10163 0)
(0.0127711 -1.17175 0)
(0.0172469 -1.22475 0)
(0.0195471 -1.25375 0)
(0.0201145 -1.25071 0)
(0.0212927 -1.22351 0)
(0.0218504 -1.182 0)
(0.0204287 -1.12872 0)
(0.0202739 -1.0619 0)
(0.00202786 -1.02184 0)
(0.0071241 -1.11016 0)
(0.011536 -1.17981 0)
(0.0151462 -1.23038 0)
(0.0166647 -1.25605 0)
(0.0167937 -1.25358 0)
(0.0191188 -1.22827 0)
(0.0223812 -1.1874 0)
(0.0257927 -1.13221 0)
(0.0306046 -1.05866 0)
(-0.00803325 -1.02937 0)
(-7.11903e-05 -1.11951 0)
(0.00597592 -1.18839 0)
(0.00990933 -1.23557 0)
(0.0110334 -1.25657 0)
(0.0101617 -1.25557 0)
(0.0121132 -1.23395 0)
(0.0152872 -1.19566 0)
(0.0192689 -1.14189 0)
(0.0251047 -1.06613 0)
(-0.0198018 -1.0431 0)
(-0.00870519 -1.1339 0)
(-0.000420137 -1.19952 0)
(0.0038768 -1.24114 0)
(0.0048717 -1.25554 0)
(0.00300223 -1.2555 0)
(0.00436386 -1.23788 0)
(0.00717814 -1.20175 0)
(0.0115443 -1.15035 0)
(0.0181496 -1.07591 0)
(-0.0290911 -1.06373 0)
(-0.0160592 -1.15292 0)
(-0.00576626 -1.21276 0)
(-0.00123856 -1.24729 0)
(0.00015693 -1.25447 0)
(-0.00220938 -1.25493 0)
(-0.000904537 -1.24196 0)
(0.00177219 -1.20718 0)
(0.00568879 -1.15722 0)
(0.0100421 -1.08733 0)
(-0.0324559 -1.09387 0)
(-0.0208602 -1.17524 0)
(-0.00924097 -1.22734 0)
(-0.00466787 -1.25408 0)
(-0.00239312 -1.25468 0)
(-0.00476079 -1.2555 0)
(-0.00203345 -1.24897 0)
(0.00345546 -1.21693 0)
(0.0117379 -1.16882 0)
(0.0164868 -1.10523 0)
(-0.0261827 -1.13527 0)
(-0.0216923 -1.19721 0)
(-0.0105223 -1.24179 0)
(-0.0064653 -1.26047 0)
(-0.00344157 -1.25569 0)
(-0.00679125 -1.25657 0)
(-0.00355202 -1.25746 0)
(0.00229388 -1.23105 0)
(0.0113454 -1.18575 0)
(0.0128283 -1.13153 0)
(-0.0142362 -1.17142 0)
(-0.0176145 -1.21295 0)
(-0.00838082 -1.25445 0)
(-0.00632528 -1.26459 0)
(-0.00290401 -1.25585 0)
(-0.00832726 -1.25622 0)
(-0.00514761 -1.26314 0)
(-0.00180963 -1.24502 0)
(0.00654932 -1.19884 0)
(0.00587545 -1.14966 0)
(-0.00395982 -1.18143 0)
(-0.00878127 -1.21907 0)
(-0.00158635 -1.2642 0)
(-0.00445538 -1.26466 0)
(-0.000952492 -1.25373 0)
(-0.00911648 -1.25344 0)
(-0.00594452 -1.26354 0)
(-0.00792235 -1.25762 0)
(0.000705272 -1.20609 0)
(-0.00117568 -1.15468 0)
(-0.00259692 -1.15908 0)
(-0.00463254 -1.22068 0)
(0.0066437 -1.27126 0)
(-0.00240362 -1.2597 0)
(0.00170563 -1.24864 0)
(-0.00900498 -1.24799 0)
(-0.00490431 -1.25818 0)
(-0.0138579 -1.26876 0)
(0.000536003 -1.21203 0)
(-0.000800821 -1.14014 0)
(-0.00273005 -1.11582 0)
(-0.00613436 -1.22868 0)
(0.0162316 -1.27523 0)
(-0.0010244 -1.24961 0)
(0.0039349 -1.24083 0)
(-0.00837385 -1.24019 0)
(-0.00314005 -1.24803 0)
(-0.020942 -1.27586 0)
(0.0054008 -1.22711 0)
(0.000808718 -1.09791 0)
(0.0087076 -1.04454 0)
(-0.0155386 -1.2614 0)
(0.0230161 -1.27509 0)
(-0.00240209 -1.23671 0)
(0.00435963 -1.23195 0)
(-0.00675517 -1.23145 0)
(-6.31269e-05 -1.23585 0)
(-0.0258807 -1.2761 0)
(0.0156697 -1.26536 0)
(-0.0104182 -1.02583 0)
(0.0706967 0.00160497 0)
(0.0691933 0.00162327 0)
(0.0676558 0.0016438 0)
(0.0660826 0.00167151 0)
(0.0644694 0.00171066 0)
(0.0628078 0.00176575 0)
(0.0610873 0.00183701 0)
(0.0592964 0.00192323 0)
(0.0574244 0.00202216 0)
(0.0554625 0.00212952 0)
(0.0534056 0.00223742 0)
(0.0512546 0.00233454 0)
(0.0490194 0.0024066 0)
(0.0467192 0.00244099 0)
(0.0443826 0.00242753 0)
(0.0420451 0.00236124 0)
(0.0397447 0.00224361 0)
(0.0375174 0.00208198 0)
(0.0353921 0.00189382 0)
(0.0333777 0.00172742 0)
(0.0314419 0.00166078 0)
(0.0295221 0.00169972 0)
(0.0275859 0.00174397 0)
(0.0256473 0.00175085 0)
(0.0237045 0.00178598 0)
(0.0217543 0.00180679 0)
(0.019826 0.00175554 0)
(0.0179818 0.00161585 0)
(0.0162892 0.00149779 0)
(0.0145239 0.00189686 0)
(0.0125991 0.00254641 0)
(0.0103591 0.00299839 0)
(0.00769414 0.00333148 0)
(0.00469117 0.00323817 0)
(0.00187779 0.00268479 0)
(-0.000261545 0.00174949 0)
(-0.00163659 0.000726966 0)
(-0.00210617 -0.000242794 0)
(-0.0017924 -0.00098085 0)
(-0.000965329 -0.00137151 0)
(0.0742952 0.00382274 0)
(0.0730047 0.00393807 0)
(0.0716593 0.00404626 0)
(0.0702647 0.00415654 0)
(0.0688233 0.00427775 0)
(0.0673347 0.0044181 0)
(0.0657956 0.00458288 0)
(0.0642001 0.00477435 0)
(0.0625405 0.00499154 0)
(0.0608089 0.00522915 0)
(0.0589981 0.00547667 0)
(0.0571026 0.00571881 0)
(0.0551195 0.00593514 0)
(0.0530501 0.00610346 0)
(0.0509021 0.00620237 0)
(0.0486897 0.00621845 0)
(0.0464297 0.00614934 0)
(0.0441391 0.00600434 0)
(0.0418328 0.00581258 0)
(0.0395244 0.00562209 0)
(0.0372326 0.00549676 0)
(0.0349733 0.0054672 0)
(0.032736 0.00546253 0)
(0.0304991 0.00545533 0)
(0.0282686 0.00542539 0)
(0.0260577 0.00536832 0)
(0.0238745 0.00523973 0)
(0.0217349 0.00504802 0)
(0.0196603 0.00490548 0)
(0.0176739 0.00499245 0)
(0.0157504 0.00541982 0)