/*--------------------------------*- C++ -*----------------------------------*\
  =========                 |
  \\      /  F ield         | OpenFOAM: The Open Source CFD Toolbox
   \\    /   O peration     | Website:  https://openfoam.org
    \\  /    A nd           | Version:  8
     \\/     M anipulation  |
\*---------------------------------------------------------------------------*/
FoamFile
{
    version     2.0;
    format      ascii;
    class       volScalarField;
    location    "0.8";
    object      k;
}
// * * * * * * * * * * * * * * * * * * * * * * * * * * * * * * * * * * * * * //

dimensions      [0 2 -2 0 0 0 0];

internalField   nonuniform List<scalar> 
9150
(
0.00184695
0.000958609
0.000527442
0.000402524
0.000347553
0.000347552
0.000402524
0.000527442
0.000958609
0.00184695
0.00180426
0.000762675
0.000451393
0.000349297
0.000296427
0.000296427
0.000349296
0.000451393
0.000762675
0.00180426
0.00173238
0.000666854
0.000419635
0.000326219
0.000276849
0.000276849
0.000326219
0.000419635
0.000666854
0.00173238
0.00165328
0.000616625
0.000407476
0.00031756
0.000270024
0.000270024
0.00031756
0.000407476
0.000616625
0.00165328
0.00156917
0.000595099
0.0004033
0.00031482
0.000268286
0.000268286
0.00031482
0.0004033
0.000595099
0.00156917
0.00292576
0.00283747
0.00238026
0.00241719
0.00238669
0.00238668
0.00241717
0.00238023
0.00283743
0.00292576
0.00233771
0.00159076
0.00157917
0.00177383
0.00176493
0.00176493
0.00177382
0.00157916
0.00159075
0.00233771
0.00207498
0.00129968
0.00105695
0.00116219
0.00114039
0.00114039
0.00116218
0.00105695
0.00129968
0.00207498
0.00189012
0.00114403
0.00075201
0.000746602
0.000705088
0.000705087
0.0007466
0.000752008
0.00114403
0.00189012
0.00180789
0.0010466
0.000592897
0.000509667
0.000459594
0.000459593
0.000509667
0.000592897
0.0010466
0.00180789
0.0182257
0.00926126
0.00461718
0.00327017
0.002897
0.00289711
0.00327102
0.00462044
0.00927044
0.0182312
0.00509211
0.00412164
0.00312052
0.00276302
0.0026632
0.00266318
0.00276299
0.00312049
0.004122
0.00509209
0.00452425
0.003718
0.00308575
0.00276001
0.00268602
0.002686
0.00275996
0.00308569
0.00371808
0.0045242
0.00402204
0.00343935
0.00306684
0.0027548
0.00271287
0.00271285
0.00275476
0.00306679
0.00343932
0.00402202
0.00344978
0.00339727
0.0029495
0.00269496
0.00268977
0.00268976
0.00269492
0.00294945
0.00339721
0.00344977
2.08992
2.11027
2.12439
2.13297
2.13676
2.13697
2.13364
2.12561
2.11212
2.09249
4.29398
4.33742
4.36978
4.39137
4.40246
4.40311
4.39333
4.37308
4.34212
4.30016
5.34898
5.39906
5.43663
5.46188
5.47493
5.47581
5.46454
5.44109
5.40535
5.35715
6.10591
6.15797
6.19714
6.22354
6.23728
6.23836
6.22679
6.20255
6.16557
6.11571
6.75828
6.81029
6.84951
6.87604
6.88994
6.89121
6.87986
6.85587
6.81919
6.7697
7.37474
7.42571
7.46427
7.49047
7.50431
7.50579
7.49489
7.47162
7.43596
7.38787
7.98598
8.03577
8.07359
8.0994
8.11317
8.11486
8.10447
8.08202
8.04752
8.001
8.60674
8.65631
8.69397
8.71974
8.73361
8.73556
8.72558
8.70367
8.66984
8.62405
9.24607
9.29669
9.33501
9.36125
9.37549
9.37775
9.36801
9.34625
9.31237
9.26616
9.91172
9.96392
10.0034
10.0304
10.0452
10.0478
10.0383
10.0164
9.9821
9.93502
10.6096
10.6634
10.7041
10.732
10.7475
10.7505
10.7411
10.7191
10.6844
10.6366
11.3443
11.3993
11.441
11.4698
11.4859
11.4894
11.4803
11.4584
11.4236
11.3753
12.1192
12.1749
12.2174
12.2468
12.2635
12.2675
12.2589
12.2374
12.2028
12.1549
12.937
12.9927
13.0356
13.0655
13.0828
13.0875
13.0794
13.0587
13.0249
12.9779
13.7987
13.8544
13.8975
13.928
13.9459
13.9514
13.9442
13.9244
13.8918
13.8464
14.706
14.7617
14.8052
14.8363
14.8549
14.8613
14.8552
14.8367
14.8055
14.7618
15.6605
15.7166
15.7607
15.7925
15.812
15.8194
15.8146
15.7975
15.768
15.7261
16.6651
16.722
16.7666
16.7992
16.8197
16.8282
16.8248
16.8094
16.7817
16.7417
17.7247
17.7815
17.8261
17.859
17.8802
17.8901
17.8885
17.8752
17.8499
17.8125
18.8443
18.8986
18.9417
18.9739
18.9955
19.0068
19.0076
18.9976
18.9765
18.9436
20.0255
20.0743
20.1138
20.1442
20.1658
20.1787
20.1829
20.178
20.1636
20.139
21.264
21.3061
21.3406
21.3682
21.3894
21.4044
21.413
21.4151
21.4099
21.3971
22.5618
22.5931
22.6199
22.643
22.6631
22.6803
22.6945
22.7054
22.7122
22.7139
23.9156
23.9308
23.9463
23.963
23.9811
24.0009
24.0222
24.0445
24.0672
24.0891
25.314
25.3091
25.3107
25.3191
25.3348
25.3578
25.3878
25.4244
25.4668
25.5141
26.7443
26.7159
26.7011
26.7001
26.7131
26.7399
26.7804
26.8341
26.9003
26.9781
28.1907
28.1368
28.1041
28.0927
28.1029
28.1344
28.1871
28.2607
28.3543
28.4674
29.6385
29.5574
29.5051
29.4824
29.4895
29.5265
29.5932
29.6893
29.8141
29.9665
31.0806
30.9651
30.8894
30.8534
30.8569
30.8999
30.9822
31.1038
31.2647
31.465
32.4884
32.3372
32.237
32.187
32.1867
32.2358
32.3343
32.4825
32.681
32.9304
33.8377
33.6521
33.5283
33.4648
33.4608
33.5159
33.6304
33.805
34.0409
34.3401
35.1056
34.8916
34.7473
34.6715
34.6639
34.7245
34.8537
35.0521
35.3208
35.662
36.2845
36.0503
35.8866
35.7975
35.785
35.8502
35.9935
36.2146
36.5122
36.8832
37.4391
37.1498
36.9479
36.8352
36.8129
36.882
37.0426
37.2945
37.6366
38.0665
38.5087
38.1522
37.9022
37.7591
37.7235
37.796
37.9771
38.2673
38.6672
39.1771
39.4458
39.0166
38.7128
38.5349
38.4832
38.5582
38.7605
39.0914
39.552
40.1436
40.2166
39.7064
39.343
39.1262
39.0555
39.1313
39.3545
39.7265
40.2496
40.9263
40.78
40.1806
39.7529
39.4941
39.4025
39.4774
39.7198
40.1319
40.7171
41.4797
41.0728
40.3891
39.8994
39.5996
39.4866
39.5593
39.8185
40.2671
40.9098
41.7521
41.0652
40.2939
39.7454
39.4083
39.2758
39.3451
39.617
40.096
40.7905
41.7134
40.6457
39.8327
39.2522
38.8929
38.7475
38.8125
39.0888
39.5809
40.2978
41.2513
39.8415
39.0124
38.4211
38.0543
37.9031
37.9635
38.2361
38.7264
39.444
40.4033
38.656
37.8464
37.2712
36.9143
36.7659
36.8215
37.0818
37.5525
38.2448
39.1757
37.1116
36.3725
35.8465
35.5197
35.3834
35.4339
35.6718
36.1025
36.7359
37.5875
35.314
34.6817
34.2285
33.9458
33.828
33.8729
34.0811
34.4563
35.0056
35.7392
33.4147
32.8958
32.5201
32.2844
32.1864
32.2252
32.4013
32.7167
33.1748
33.7799
31.5534
31.1277
30.8172
30.6214
30.5399
30.5726
30.7198
30.9823
31.3613
31.8578
29.8091
29.4497
29.1862
29.0192
28.949
28.976
29.1002
29.322
29.6414
30.0582
28.2148
27.8959
27.6613
27.5119
27.448
27.4698
27.5776
27.7714
28.051
28.4158
26.7703
26.4707
26.2503
26.1091
26.0472
26.0648
26.1619
26.3386
26.595
26.9308
25.4529
25.1582
24.9416
24.8023
24.7398
24.7538
24.8445
25.0122
25.2572
25.5804
24.2278
23.9308
23.7128
23.5722
23.5079
23.5193
23.6063
23.7696
24.0101
24.3297
23.0578
22.7578
22.5381
22.3962
22.3303
22.3397
22.4242
22.5848
22.8229
23.141
21.9108
21.6127
21.3945
21.2534
21.1874
21.1954
21.2775
21.4345
21.6684
21.9821
20.7673
20.4782
20.2666
20.1297
20.0653
20.0725
20.1512
20.3025
20.5283
20.8316
19.6198
19.3473
19.1476
19.0182
18.9572
18.9639
19.0383
19.1812
19.3943
19.6804
18.4744
18.2233
18.0389
17.9193
17.8631
17.8695
17.9385
18.071
18.2685
18.5329
17.3416
17.1141
16.9469
16.8384
16.7874
16.7936
16.8569
16.9779
17.1579
17.3984
16.2333
16.0298
15.88
15.7828
15.7373
15.7432
15.8006
15.9098
16.0719
16.288
15.1608
14.9802
14.8471
14.7607
14.7205
14.7261
14.7777
14.8755
15.0203
15.213
14.1339
13.9739
13.856
13.7794
13.7439
13.7492
13.7953
13.8826
14.0116
14.1828
13.1589
13.0171
12.9124
12.8446
12.8132
12.8181
12.8593
12.9371
13.0519
13.2041
12.2397
12.1135
12.0203
11.9599
11.9321
11.9365
11.9734
12.0429
12.1453
12.281
11.3777
11.2648
11.1815
11.1275
11.1026
11.1066
11.1397
11.2019
11.2936
11.415
10.5729
10.4713
10.3963
10.3477
10.3253
10.3289
10.3586
10.4146
10.4971
10.6063
9.82378
9.73179
9.66387
9.61982
9.59945
9.6027
9.62957
9.68018
9.75472
9.85345
9.12811
9.0443
8.98241
8.94224
8.92362
8.9265
8.95088
8.99685
9.06461
9.15435
8.48313
8.40632
8.34957
8.3127
8.29558
8.29812
8.32035
8.36234
8.42426
8.5063
7.88579
7.81498
7.76263
7.72859
7.71273
7.71498
7.73535
7.77392
7.83083
7.90625
7.33289
7.26722
7.21865
7.18703
7.17224
7.17424
7.19301
7.22865
7.28126
7.351
6.82118
6.75992
6.71459
6.68504
6.67118
6.67295
6.69035
6.72346
6.77238
6.83727
6.34742
6.28995
6.2474
6.21964
6.20656
6.20813
6.22435
6.25527
6.30102
6.36174
5.9084
5.85422
5.81409
5.78789
5.77549
5.77687
5.79204
5.82104
5.86402
5.92111
5.50111
5.44982
5.41184
5.387
5.3752
5.37641
5.39062
5.41789
5.45836
5.5122
5.12232
5.07394
5.03799
5.01442
5.00316
5.00419
5.01752
5.04316
5.0812
5.13171
4.77089
4.72478
4.69047
4.66792
4.65709
4.65796
4.67054
4.69484
4.73088
4.77872
4.44454
4.40009
4.36701
4.34523
4.33473
4.33547
4.34747
4.37073
4.40527
4.45113
4.14059
4.09742
4.06526
4.04407
4.03381
4.03447
4.04605
4.06854
4.10198
4.14637
3.85673
3.81448
3.78298
3.7622
3.75212
3.75273
3.76402
3.786
3.81868
3.86208
3.59079
3.54911
3.51802
3.49749
3.48751
3.48809
3.49921
3.52088
3.55311
3.59593
3.34065
3.29922
3.2683
3.24789
3.23795
3.2385
3.24953
3.27105
3.30307
3.34562
3.10422
3.06282
3.03191
3.01148
3.00152
3.00204
3.01305
3.03453
3.0665
3.10898
2.87966
2.83811
2.80706
2.78652
2.77649
2.77699
2.78801
2.80955
2.84161
2.88417
2.6654
2.62353
2.59222
2.57147
2.56133
2.5618
2.5729
2.59459
2.62687
2.66969
2.46015
2.41778
2.38604
2.36498
2.35466
2.35512
2.36634
2.3883
2.42096
2.46425
2.26283
2.21971
2.18735
2.16585
2.15529
2.15571
2.16713
2.18949
2.22272
2.26672
2.07245
2.02828
1.99507
1.97298
1.9621
1.9625
1.97418
1.99708
2.03108
2.07605
1.88803
1.84251
1.80823
1.78538
1.77411
1.77449
1.78653
1.81012
1.84514
1.89136
1.70868
1.66152
1.62593
1.60217
1.59041
1.59079
1.60329
1.62779
1.66409
1.71191
1.53365
1.48456
1.44742
1.42257
1.41026
1.41065
1.42372
1.44933
1.48721
1.53699
1.36239
1.31107
1.27212
1.24601
1.23306
1.23346
1.24723
1.27415
1.31389
1.36598
1.19449
1.14067
1.09969
1.07214
1.05846
1.05889
1.07344
1.10186
1.14371
1.19838
1.02974
0.973264
0.930104
0.901002
0.886513
0.886968
0.902369
0.932391
0.976478
1.03388
0.868095
0.809118
0.763854
0.733209
0.7179
0.718361
0.7346
0.766193
0.812426
0.872387
0.709937
0.649182
0.60228
0.570319
0.554259
0.554703
0.571664
0.604558
0.652435
0.714205
0.556444
0.495568
0.448082
0.415333
0.398702
0.399095
0.416531
0.450134
0.498538
0.560401
0.410471
0.352333
0.305991
0.27335
0.256502
0.256806
0.274284
0.30762
0.354736
0.413734
0.277965
0.226176
0.183184
0.152251
0.136098
0.136282
0.152831
0.184228
0.227766
0.280182
0.16859
0.125278
0.0881381
0.0626913
0.0499946
0.0500615
0.0629198
0.0885855
0.126
0.169636
0.0915995
0.0536703
0.0273437
0.0145938
0.00978322
0.00979058
0.0146266
0.0274219
0.0538001
0.0917557
2.06386
2.02597
1.97891
1.92254
1.85724
1.78406
1.70481
1.62275
1.54868
1.47919
1.41279
1.34929
1.28884
1.23149
1.17715
1.12558
1.07651
1.02962
0.984577
0.941109
0.898956
0.857892
0.81772
0.778263
0.739364
0.700876
0.662661
0.624582
0.586498
0.548255
0.509679
0.470556
0.430609
0.389423
0.345912
0.299392
0.249085
0.192928
0.134522
0.0553733
4.24353
4.16957
4.08132
3.97944
3.86538
3.74142
3.61049
3.47571
3.33942
3.20498
3.0741
2.94776
2.82638
2.71003
2.59851
2.4915
2.38857
2.28929
2.19324
2.10002
2.00925
1.92059
1.83373
1.74838
1.66427
1.58112
1.4987
1.41674
1.33497
1.25309
1.17078
1.08765
1.00321
0.916835
0.827701
0.734792
0.635595
0.526531
0.393415
0.168745
5.29251
5.20823
5.10812
4.99294
4.86421
4.72429
4.57628
4.42354
4.26893
4.11451
3.96187
3.81203
3.66564
3.52311
3.38463
3.25021
3.11976
2.99308
2.86991
2.74998
2.63298
2.51863
2.40661
2.29664
2.18842
2.08167
1.97608
1.87135
1.76718
1.66322
1.55907
1.4543
1.34836
1.24054
1.12984
1.01472
0.892278
0.755817
0.582314
0.263087
6.04888
5.96161
5.85772
5.7376
5.60233
5.45374
5.29468
5.12913
4.96051
4.79104
4.62249
4.45592
4.29202
4.13128
3.97406
3.82057
3.67086
3.5249
3.38255
3.24362
3.1079
2.97513
2.84505
2.7174
2.59189
2.46822
2.34611
2.22524
2.10528
1.98586
1.86658
1.74692
1.62629
1.50382
1.37826
1.24746
1.10731
0.948162
0.739686
0.339988
6.70334
6.61649
6.5126
6.39134
6.25265
6.09713
5.92677
5.74749
5.56357
5.37835
5.19388
5.01134
4.83138
4.65445
4.48093
4.31108
4.14506
3.98289
3.8245
3.66975
3.51845
3.37039
3.22534
3.08303
2.9432
2.80557
2.66982
2.53565
2.40269
2.27057
2.13882
2.00687
1.87399
1.73913
1.60066
1.45582
1.29925
1.11873
0.877222
0.406538
7.32343
7.23903
7.13773
7.0186
6.8804
6.72115
6.53695
6.33702
6.13356
5.92976
5.72761
5.52784
5.33086
5.13738
4.94775
4.76215
4.5807
4.40343
4.23024
4.06101
3.89556
3.73367
3.57511
3.41963
3.26694
3.11677
2.9688
2.82268
2.67805
2.53446
2.3914
2.24819
2.10396
1.95742
1.80659
1.64807
1.47544
1.27426
1.00156
0.464913
7.93876
7.85739
7.7605
7.64868
7.52093
7.34679
7.13407
6.91692
6.69435
6.46953
6.24721
6.02874
5.81318
5.60178
5.39516
5.1934
4.99645
4.80421
4.61656
4.43331
4.25424
4.07913
3.90771
3.73971
3.57484
3.4128
3.25325
3.09581
2.94007
2.78553
2.63159
2.47748
2.32216
2.16411
2.00099
1.82886
1.64033
1.41901
1.11653
0.518452
8.56254
8.48203
8.38674
8.27755
8.13696
7.9427
7.71507
7.47845
7.23897
6.99835
6.75866
6.52219
6.28901
6.0585
5.83399
5.61545
5.4026
5.19519
4.99297
4.79569
4.60307
4.41485
4.23073
4.05042
3.87359
3.69989
3.52897
3.3604
3.19372
3.02836
2.86364
2.69867
2.53225
2.36264
2.18717
2.00141
1.79707
1.55598
1.22481
0.568456
9.20353
9.12094
9.02234
8.9058
8.75101
8.54242
8.29692
8.03661
7.7744
7.51459
7.25842
7.00685
6.7593
6.51226
6.26987
6.03433
5.80529
5.58241
5.36535
5.1538
4.94745
4.74597
4.54904
4.35632
4.16745
3.98205
3.79971
3.61996
3.44227
3.26602
3.09042
2.91448
2.73683
2.55552
2.3676
2.16813
1.94804
1.68747
1.32834
0.615888
9.87099
9.78636
9.6845
9.55891
9.39107
9.16346
8.89369
8.60678
8.31881
8.03682
7.76252
7.49482
7.23064
6.96644
6.70664
6.45408
6.20861
5.96991
5.73765
5.51148
5.29104
5.07599
4.86596
4.66057
4.45942
4.26209
4.06812
3.87698
3.68809
3.50075
3.31408
3.12697
2.9379
2.74473
2.5442
2.33095
2.09511
1.81521
1.42865
0.661524
10.5716
10.4859
10.3828
10.2503
10.0625
9.80801
9.50966
9.19377
8.87855
8.57287
8.27858
7.99284
7.70992
7.42637
7.14832
6.87817
6.61576
6.36075
6.11278
5.8715
5.63652
5.40746
5.18391
4.96547
4.75168
4.54208
4.33616
4.13335
3.93298
3.73428
3.53628
3.33776
3.13706
2.93183
2.71853
2.49138
2.23975
1.9406
1.5269
0.705974
11.3098
11.2234
11.1187
10.978
10.7639
10.4754
10.1442
9.79774
9.45521
9.12621
8.81197
8.50694
8.19979
7.89442
7.59752
7.30918
7.02918
6.75722
6.49294
6.23595
5.98586
5.74226
5.5047
5.27273
5.04586
4.82359
4.60535
4.39049
4.17832
3.96795
3.75835
3.54815
3.33558
3.11807
2.89184
2.65064
2.38314
2.06474
1.62403
0.749718
12.0896
12.0034
11.8973
11.7431
11.4924
11.1653
10.798
10.42
10.0508
9.69903
9.36332
9.03429
8.7016
8.37442
8.05714
7.74943
7.45089
7.16116
6.8798
6.60641
6.34056
6.0818
5.82966
5.58364
5.34321
5.1078
4.87681
4.64953
4.42517
4.20281
3.98129
3.75915
3.53445
3.30445
3.06507
2.80968
2.52619
2.18847
1.72078
0.793178
12.9139
12.8293
12.7202
12.5405
12.2482
11.8794
11.4742
11.0645
10.6693
10.2949
9.93626
9.57612
9.21616
8.86686
8.52835
8.20028
7.88223
7.5738
7.27454
6.984
6.70168
6.42712
6.15978
5.89914
5.64462
5.39559
5.15138
4.91125
4.67434
4.43963
4.20588
3.9715
3.73442
3.4917
3.23899
2.96923
2.66961
2.31247
1.81772
0.836664
13.7846
13.7028
13.5873
13.371
13.033
12.6195
12.1753
11.7336
11.3118
10.9126
10.5251
10.1331
9.74722
9.3739
9.01265
8.66294
8.32426
7.99612
7.67802
7.36945
7.06988
6.77879
6.4956
6.21973
5.95056
5.68741
5.42956
5.17617
4.92633
4.67893
4.43263
4.18574
3.93602
3.68036
3.41412
3.12981
2.8139
2.43719
1.91523
0.880368
14.7023
14.6234
14.4984
14.2384
13.8481
13.3856
12.9014
12.4284
11.9807
11.5553
11.1316
10.7065
10.2943
9.89585
9.51062
9.13806
8.7776
8.42868
8.09076
7.76326
7.44561
7.13723
6.83749
6.54576
6.26136
5.98357
5.71157
5.4445
5.18134
4.9209
4.66174
4.40206
4.13947
3.87065
3.59071
3.29172
2.95939
2.56298
2.01362
0.92494
15.6688
15.5925
15.4526
15.1381
14.6892
14.1758
13.6526
13.1497
12.6753
12.2179
11.7553
11.299
10.8585
10.4333
10.0227
9.62601
9.24256
8.87176
8.51299
8.16562
7.82903
7.50256
7.18556
6.87731
6.57709
6.2841
5.99749
5.71629
5.43941
5.16559
4.89327
4.62054
4.34484
4.06267
3.76884
3.45502
3.10614
2.68989
2.11296
0.970031
16.6862
16.6113
16.4481
16.0695
15.5571
14.9931
14.4327
13.9013
13.3979
12.9
12.3978
11.9099
11.4397
10.9863
10.5489
10.1268
9.71913
9.32531
8.94464
8.57644
8.22001
7.87465
7.53964
7.21421
6.89756
6.58885
6.28712
5.99136
5.7004
5.41285
5.12708
4.84103
4.55201
4.25631
3.94844
3.61965
3.25411
2.81791
2.21326
1.01554
17.7592
17.684
17.4854
17.0339
16.4556
15.8418
15.2459
14.6855
14.1475
13.5997
13.0591
12.5387
12.0375
11.5545
11.089
10.6401
10.207
9.78899
9.38534
8.99531
8.61814
8.25307
7.89931
7.55603
7.22236
6.89738
6.58008
6.26934
5.96391
5.66233
5.36283
5.06324
4.7607
4.45129
4.12926
3.78539
3.4031
2.94688
2.31442
1.06143
18.8952
18.8162
18.56
18.0323
17.3879
16.726
16.0956
15.5013
14.9098
14.3149
13.7395
13.1853
12.6516
12.1376
11.6425
11.1654
10.7055
10.2622
9.83443
9.42156
9.02274
8.63713
8.26388
7.90209
7.55081
7.20905
6.87572
6.54961
6.22938
5.91347
5.6
5.28666
4.97043
4.6472
4.3109
3.95188
3.5528
3.07654
2.41621
1.1076
20.101
20.0099
19.6712
19.0666
18.3588
17.6505
16.9834
16.3444
15.6936
15.0551
14.4411
13.8504
13.2821
12.7351
12.2087
11.7019
11.2139
10.7439
10.2909
9.85418
9.43279
9.02584
8.63238
8.25144
7.882
7.52298
7.17319
6.83135
6.49602
6.16552
5.83788
5.51062
5.18059
4.84344
4.49282
4.11863
3.70276
3.20647
2.51831
1.15393
21.3744
21.2617
20.825
20.1387
19.3682
18.6158
17.9072
17.2011
16.4961
15.8164
15.1623
14.533
13.9279
13.346
12.7864
12.2483
11.7307
11.2327
10.7534
10.2918
9.84696
9.41788
9.00353
8.60285
8.21474
7.83802
7.47141
7.11354
6.76285
6.41757
6.07558
5.7343
5.39039
5.03928
4.67434
4.28501
3.85241
3.3362
2.62033
1.20023
22.7087
22.5779
22.0435
21.263
20.426
19.6261
18.859
18.0853
17.3287
16.6017
15.9032
15.2321
14.5876
13.9685
13.3739
12.8027
12.2541
11.7269
11.2201
10.7327
10.2635
9.8116
9.37575
8.95482
8.54759
8.1528
7.76907
7.39492
7.02869
6.66848
6.31207
5.95672
5.5989
5.23386
4.85465
4.45028
4.00109
3.46512
2.72178
1.24629
24.1102
23.967
23.3246
22.4413
21.5377
20.6879
19.8373
18.9937
18.1837
17.4063
16.6604
15.9448
15.2583
14.5999
13.9684
13.3627
12.7816
12.224
11.6887
11.1746
10.6804
10.205
9.74716
9.30554
8.87886
8.46572
8.06466
7.67407
7.29219
6.917
6.54615
6.17673
5.80508
5.4262
5.03286
4.61361
4.14803
3.59257
2.82214
1.29188
25.568
25.4117
24.6489
23.6609
22.6932
21.7647
20.8292
19.925
19.0576
18.2263
17.4298
16.6669
15.9362
15.2365
14.5665
13.9247
13.31
12.721
12.1564
11.6149
11.0951
10.5958
10.1155
9.65294
9.20657
8.77494
8.35644
7.94937
7.55183
7.16169
6.77646
6.3931
6.00775
5.6152
5.20793
4.77406
4.29239
3.71783
2.92081
1.33672
27.0718
26.9013
26.0079
24.9191
23.8899
22.8645
21.8471
20.8746
19.9448
19.0558
18.2058
17.3932
16.6164
15.8738
15.1638
14.4849
13.8357
13.2145
12.62
12.0506
11.5048
10.9813
10.4784
9.99469
9.52857
9.07842
8.64251
8.21902
7.80594
7.40099
7.00156
6.60445
6.20564
5.79969
5.3788
4.93064
4.43329
3.84012
3.0172
1.38055
28.6072
28.4184
27.3836
26.2024
25.0932
23.9632
22.8716
21.8296
20.8352
19.8863
18.981
18.1171
17.2928
16.5061
15.7553
15.0386
14.3542
13.7004
13.0756
12.4781
11.9063
11.3585
10.833
10.3282
9.84248
9.37395
8.92082
8.48112
8.05272
7.63323
7.21988
6.80934
6.39739
5.97842
5.5443
5.08231
4.56979
3.95862
3.11066
1.42307
30.1556
29.9387
28.7618
27.5062
26.2923
25.0646
23.8943
22.7799
21.7189
20.7087
19.7468
18.8308
17.9583
17.1271
16.3352
15.5804
14.8607
14.1744
13.5194
12.8939
12.2961
11.7242
11.1764
10.6509
10.1458
9.6592
9.18918
8.73364
8.29031
7.85666
7.4298
7.00625
6.58162
6.15008
5.70325
5.22797
4.7009
4.0725
3.20053
1.46401
31.7196
31.4747
30.1341
28.8077
27.4788
26.1537
24.9004
23.7121
22.584
21.5125
20.4941
19.5261
18.6056
17.7301
16.8973
16.1048
15.3503
14.6317
13.9469
13.2939
12.6707
12.0752
11.5056
10.9598
10.4358
9.93175
9.44538
8.97452
8.51678
8.06951
7.62967
7.19364
6.75688
6.31335
5.85441
5.36651
4.82565
4.18091
3.2862
1.50308
33.2495
32.9442
31.4436
30.0431
28.5855
27.191
25.8666
24.6099
23.4177
22.2866
21.2132
20.1943
19.2269
18.3082
17.4354
16.606
15.8175
15.0675
14.3538
13.6741
13.0262
12.408
11.8173
11.2521
10.7101
10.1892
9.68716
9.20168
8.73021
8.26998
7.81782
7.36998
6.92175
6.4669
5.99656
5.4968
4.94302
4.283
3.36702
1.54003
34.7283
34.3649
32.7375
31.2304
29.6677
28.1889
26.7897
25.4651
24.2106
23.022
21.8955
20.8276
19.8149
18.8545
17.9432
17.0783
16.2572
15.4772
14.7358
14.0306
13.3592
12.7193
12.1086
11.5249
10.9658
10.4291
9.91233
9.41309
8.92873
8.45634
7.99265
7.53375
7.0748
6.60941
6.12844
5.61767
5.05193
4.37782
3.44225
1.57454
36.1054
35.6489
33.9388
32.3419
30.6815
29.123
27.6537
26.2655
24.9524
23.7095
22.5327
21.4183
20.3627
19.3626
18.4148
17.5164
16.6644
15.856
15.0885
14.3594
13.666
13.0059
12.3765
11.7756
11.2006
10.6492
10.1188
9.60684
9.11057
8.62698
8.15265
7.68356
7.21474
6.73962
6.24888
5.72796
5.1512
4.46416
3.51072
1.60614
37.3468
36.6564
34.9721
33.2714
31.5772
29.9689
28.4448
27.0014
25.635
24.3418
23.1179
21.9599
20.8639
19.8267
18.8448
17.9151
17.0343
16.1997
15.4081
14.6569
13.9433
13.2646
12.6182
12.0016
11.4122
10.8474
10.3047
9.78118
9.27414
8.78041
8.29646
7.81816
7.34041
6.85646
6.35681
5.82661
5.2397
4.54068
3.57066
1.63339
38.6084
37.671
35.9672
34.1609
32.4146
30.7507
29.1707
27.6731
26.2553
24.9141
23.6457
22.4466
21.313
20.2414
19.228
18.2696
17.3627
16.5041
15.6908
14.9198
14.188
13.4928
12.8312
12.2007
11.5985
11.0219
10.4682
9.93458
9.41804
8.91538
8.42295
7.93653
7.45087
6.95911
6.45154
5.91305
5.31701
4.60707
3.62179
1.65616
39.8314
38.7222
36.9749
35.0491
33.2159
31.4788
29.8345
28.2794
26.8098
25.4215
24.1107
22.8731
21.7047
20.6015
19.5597
18.5755
17.6454
16.7658
15.9334
15.145
14.3975
13.6879
13.0133
12.3708
11.7577
11.171
10.608
10.0657
9.54113
9.03086
8.53121
8.03786
7.54545
7.047
6.53263
5.98703
5.38319
4.66401
3.66608
1.676
40.9052
39.687
37.9081
35.8731
33.9495
32.1351
30.4241
28.8108
27.2901
25.8568
24.5061
23.2331
22.0333
20.9022
19.8354
18.8289
17.8788
16.9813
16.1328
15.3299
14.5694
13.848
13.1627
12.5104
11.8884
11.2935
10.7229
10.1737
9.6425
9.12607
8.62056
8.12155
7.62363
7.11969
6.59974
6.04829
5.43803
4.71131
3.70309
1.69265
41.8007
40.5428
38.724
36.5933
34.585
32.697
30.9221
29.2536
27.6851
26.2105
24.824
23.52
22.293
21.1382
20.0506
19.0258
18.0596
17.1478
16.2867
15.4725
14.7018
13.9714
13.2779
12.6183
11.9894
11.3884
10.8122
10.2577
9.72157
9.20049
8.69054
8.18724
7.68509
7.17692
6.65263
6.09658
5.48126
4.74859
3.73232
1.70583
42.4707
41.2485
39.3933
37.1851
35.1003
33.1443
31.3109
29.5927
27.9823
26.4724
25.056
23.7266
22.4781
21.3049
20.2015
19.1632
18.1852
17.2632
16.3931
15.5711
14.7936
14.057
13.3581
12.6936
12.0603
11.4553
10.8753
10.3173
9.77803
9.25387
8.74095
8.23475
7.72971
7.21859
6.69122
6.13182
5.51271
4.77541
3.75276
1.71466
42.849
41.7864
39.9003
37.6432
35.4792
33.4581
31.5725
29.8126
28.1688
26.632
25.1938
23.8466
22.5836
21.3983
20.2851
19.2385
18.2537
17.3259
16.451
15.625
14.8439
14.1044
13.4028
12.736
12.1008
11.4939
10.9122
10.3527
9.81186
9.28623
8.77186
8.26418
7.75759
7.24484
6.71567
6.15425
5.53271
4.7923
3.76511
1.71965
42.9427
42.1931
40.1573
37.945
35.6866
33.6072
31.6828
29.8955
28.2317
26.68
25.2306
23.8751
22.6058
21.416
20.2995
19.2506
18.2642
17.3355
16.4601
15.6339
14.8529
14.1135
13.4123
12.7459
12.111
11.5045
10.9233
10.364
9.82339
9.29791
8.78358
8.27583
7.76906
7.25599
6.72634
6.16425
5.54179
4.80008
3.77082
1.72181
42.5156
42.0106
39.9363
37.8468
35.6185
33.5414
31.6153
29.8263
28.1618
26.6107
25.1629
23.8098
22.5437
21.3574
20.2446
19.1997
18.2173
17.2926
16.421
15.5986
14.8212
14.0853
13.3873
12.7239
12.0919
11.4879
10.909
10.3519
9.81323
9.28947
8.77667
8.27025
7.76463
7.25253
6.7237
6.16226
5.54033
4.79909
3.77051
1.7216
41.682
41.456
39.3929
37.4651
35.3346
33.282
31.3778
29.6083
27.9613
26.4258
24.9925
23.6528
22.399
21.2243
20.1224
19.0876
18.1147
17.1988
16.3355
15.5207
14.7504
14.0211
13.3292
12.6713
12.0444
11.4452
10.8706
10.3174
9.78227
9.26175
8.75189
8.24815
7.74497
7.23509
6.70829
6.14875
5.52859
4.789
3.7619
1.71686
40.4276
40.5203
38.5656
36.7771
34.8155
32.8402
30.9833
29.253
27.6394
26.1333
24.726
23.4095
22.1768
21.0212
19.9367
18.9178
17.9595
17.057
16.2061
15.4026
14.6427
13.9229
13.2397
12.5899
11.9703
11.3777
10.8093
10.2616
9.73166
9.21582
8.71025
8.21044
7.71089
7.2044
6.68081
6.12437
5.50735
4.77119
3.74861
1.71073
38.7329
39.0511
37.4237
35.7331
34.0687
32.2526
30.4601
28.7806
27.2117
25.7453
24.3733
23.0884
21.8841
20.7541
19.6929
18.6951
17.7561
16.8711
16.0362
15.2473
14.5008
13.7932
13.1212
12.4816
11.8714
11.2874
10.7267
10.1862
9.6628
9.15295
8.65288
8.15817
7.66336
7.16133
6.64201
6.08978
5.47709
4.74575
3.72938
1.70197
36.7181
37.1256
35.9256
34.3877
32.947
31.4659
29.8298
28.2104
26.6944
25.2755
23.9461
22.6995
21.5296
20.4306
19.3975
18.4252
17.5093
16.6455
15.8299
15.0586
14.3281
13.6351
12.9765
12.3491
11.75
11.1762
10.6248
10.0929
9.57725
9.07458
8.58114
8.09256
7.60349
7.10688
6.59278
6.04571
5.43836
4.71297
3.7043
1.69051
34.5736
34.9666
34.1336
32.858
31.5534
30.2988
28.9853
27.5458
26.1018
24.738
23.4569
22.2534
21.1224
20.0586
19.0574
18.1143
17.2249
16.3852
15.5915
14.8403
14.1281
13.4519
12.8085
12.195
11.6086
11.0465
10.5057
9.98348
9.47678
8.98233
8.49648
8.01496
7.5325
7.04216
6.53412
5.99304
5.3919
4.67343
3.67375
1.67652
32.5
32.8406
32.2541
31.2332
30.0971
28.9799
27.8744
26.7061
25.4384
24.1494
22.9186
21.7608
20.6715
19.6459
18.6797
17.7685
16.9083
16.0952
15.3258
14.5967
13.9048
13.2469
12.6204
12.0223
11.4499
10.9005
10.3715
9.86005
9.36323
8.87789
8.40047
7.92681
7.45172
6.96839
6.46712
5.93278
5.33861
4.62793
3.63841
1.6603
30.5911
30.8775
30.4418
29.6175
28.6452
27.6557
26.6824
25.6911
24.634
23.4985
22.3393
21.2295
20.1844
19.1997
18.271
17.3941
16.5652
15.7808
15.0375
14.3322
13.6619
13.0239
12.4154
11.8338
11.2765
10.7409
10.2246
9.72471
9.23856
8.76306
8.29477
7.82962
7.36254
6.88684
6.39298
5.86601
5.2795
4.57739
3.5991
1.64229
28.8774
29.1203
28.7784
28.0956
27.2569
26.3779
25.5064
24.6355
23.7305
22.7584
21.7152
20.6649
19.6676
18.7266
17.8377
16.9971
16.2013
15.447
14.7312
14.0509
13.4035
12.7864
12.1969
11.6326
11.0912
10.5702
10.0672
9.57957
9.1047
8.63964
8.18103
7.72494
7.2664
6.79886
6.31292
5.79387
5.21561
4.52278
3.55668
1.62289
27.3512
27.5639
27.2857
26.7059
25.9714
25.1822
24.3913
23.6096
22.8177
21.9777
21.054
20.0749
19.1287
18.2336
17.3864
16.5836
15.8221
15.0991
14.4117
13.7574
13.1336
12.5379
11.9681
11.4218
10.8968
10.3909
9.90164
9.42675
8.96362
8.50942
8.06093
7.6143
7.16472
6.70575
6.22817
5.71749
5.14799
4.46501
3.51187
1.60246
25.9796
26.1722
25.943
25.4436
24.7927
24.0765
23.3489
22.6325
21.9211
21.1824
20.3714
19.4704
18.5764
17.7285
16.924
16.1599
15.4335
14.7422
14.0837
13.4557
12.8558
12.282
11.7322
11.2041
10.6959
10.2053
9.73018
9.26829
8.81719
8.37415
7.93606
7.49921
7.05889
6.60882
6.13994
5.638
5.07766
4.40503
3.46546
1.58138
24.7176
24.8958
24.709
24.2786
23.7008
23.0488
22.3743
21.707
21.0535
20.3938
19.682
18.858
18.0183
17.2188
16.4575
15.7323
15.041
14.3815
13.7518
13.15
12.574
12.0221
11.4922
10.9824
10.491
10.0158
9.55491
9.10615
8.6672
8.23547
7.80796
7.38106
6.95021
6.50925
6.04931
5.55638
5.00551
4.34358
3.41804
1.55992
23.5194
23.6854
23.5378
23.1717
22.6634
22.0741
21.4507
20.8259
20.216
19.6164
18.9881
18.2487
17.4659
16.7142
15.9951
15.3076
14.6503
14.0217
13.4202
12.844
12.2916
11.7611
11.2509
10.7593
10.2844
9.82456
9.3778
8.94212
8.51532
8.09492
7.67803
7.26116
6.83986
6.40812
5.95725
5.47348
4.93227
4.28128
3.37009
1.53833
22.3472
22.5022
22.3908
22.0859
21.6461
21.1216
20.5528
19.9714
19.3984
18.8408
18.2821
17.6539
16.9353
16.2258
15.5447
14.892
14.2666
13.6673
13.0927
12.5413
12.0115
11.5019
11.0109
10.5369
10.0784
9.63352
9.20067
8.7779
8.36311
7.95393
7.54759
7.1407
6.72893
6.30641
5.86462
5.39006
4.85858
4.21866
3.322
1.51679
21.1781
21.3236
21.2455
20.9975
20.6244
20.166
19.6564
19.1235
18.5883
18.0628
17.5454
17.0098
16.4148
15.7599
15.1107
14.4891
13.8931
13.3213
12.7723
12.2445
11.7366
11.247
10.7745
10.3176
9.87473
9.44448
9.02517
8.61499
8.21197
7.81382
7.41786
7.0208
6.61843
6.20502
5.77222
5.30677
4.78495
4.15605
3.27399
1.49539
20.0042
20.1444
20.0955
19.8992
19.5889
19.1962
18.7483
18.2689
17.7769
17.2853
16.7992
16.313
15.8108
15.2725
14.6876
14.0992
13.5312
12.9858
12.4612
11.9561
11.4691
10.9987
10.5438
10.1031
9.67531
9.25905
8.85279
8.45481
8.06323
7.67583
7.29001
6.90258
6.5094
6.10486
5.68078
5.22415
4.71164
4.09337
3.22552
1.47373
18.831
18.9671
18.9441
18.7943
18.5425
18.2129
17.8272
17.4047
16.9614
16.5097
16.057
15.6051
15.1506
14.6868
14.2055
13.6981
13.1779
12.6623
12.1619
11.6788
11.2117
10.7593
10.3208
9.89525
9.48162
9.07863
8.68484
8.29861
7.91811
7.54117
7.16525
6.7872
6.40294
6.00695
5.59117
5.1428
4.63889
4.0303
3.17527
1.45049
17.6696
17.8018
17.8011
17.6914
17.4926
17.2218
16.8963
16.5314
16.1406
15.7349
15.3222
14.907
14.4901
14.0704
13.6448
13.2106
12.7666
12.3136
11.8588
11.4085
10.9659
10.5314
10.1073
9.69538
9.2948
8.90427
8.52237
8.14749
7.77778
7.41108
7.04485
6.67596
6.30037
5.91259
5.50464
5.06383
4.56748
3.96702
3.12247
1.42524
16.5327
16.6614
16.6788
16.6031
16.4506
16.2328
15.9631
15.6538
15.3159
14.9589
14.5904
14.2156
13.8374
13.457
13.074
12.6875
12.2965
11.9009
11.5015
11.0992
10.6959
10.2942
9.89621
9.50268
9.11524
8.73648
8.36608
8.00237
7.64339
7.2869
6.93034
6.57054
6.20349
5.82373
5.42321
4.98944
4.49987
3.90606
3.07156
1.40728
15.4327
15.5575
15.5894
15.5421
15.4283
15.2571
15.0378
14.7801
14.4929
14.1842
13.8607
13.5277
13.1889
12.8465
12.5016
12.1543
11.8043
11.4512
11.0948
10.7353
10.3738
10.0119
9.6511
9.29119
8.93145
8.57266
8.21606
7.86408
7.51622
7.1703
6.82368
6.47317
6.11483
5.74329
5.35069
4.92449
4.44229
3.85619
3.02909
1.38629
14.3797
14.4999
14.5428
14.5187
14.4368
14.3058
14.1309
13.9197
13.6793
13.4164
13.1366
12.845
12.5451
12.2397
11.9305
11.6183
11.3035
10.986
10.6657
10.3427
10.0174
9.69072
9.36341
9.036
8.70864
8.38098
8.05164
7.72144
7.39112
7.05953
6.72494
6.38495
6.03611
5.67342
5.28934
4.8717
4.39847
3.82212
3.00764
1.37901
13.3807
13.4958
13.5469
13.5413
13.4861
13.3878
13.2513
13.0812
12.883
12.6622
12.4235
12.1713
11.909
11.6394
11.3644
11.0854
10.8031
10.5178
10.2298
9.93918
9.64621
9.3513
9.0549
8.75736
8.45881
8.15909
7.85761
7.55363
7.24605
6.93387
6.61595
6.29051
5.95469
5.60397
5.23123
4.82472
4.36288
3.79906
2.99867
1.38168