/*--------------------------------*- C++ -*----------------------------------*\
  =========                 |
  \\      /  F ield         | OpenFOAM: The Open Source CFD Toolbox
   \\    /   O peration     | Website:  https://openfoam.org
    \\  /    A nd           | Version:  8
     \\/     M anipulation  |
\*---------------------------------------------------------------------------*/
FoamFile
{
    version     2.0;
    format      ascii;
    class       volScalarField;
    location    "1.85";
    object      epsilon;
}
// * * * * * * * * * * * * * * * * * * * * * * * * * * * * * * * * * * * * * //

dimensions      [0 2 -3 0 0 0 0];

internalField   nonuniform List<scalar> 
9150
(
0.0313125
0.0124655
0.00312119
0.00097206
0.000502612
0.000502626
0.000972104
0.00312136
0.012466
0.0313125
0.0302208
0.00877371
0.00174925
0.000629849
0.000381861
0.000381866
0.000629859
0.0017493
0.00877403
0.0302208
0.0284256
0.00697163
0.00113193
0.000518684
0.000342984
0.000342987
0.000518686
0.00113193
0.00697188
0.0284256
0.0264937
0.00603217
0.000850158
0.00048539
0.000331232
0.000331235
0.000485393
0.000850158
0.00603242
0.0264938
0.0244913
0.00562935
0.000709882
0.000478186
0.000329529
0.000329533
0.000478191
0.000709892
0.00562963
0.0244913
0.123694
0.0525044
0.0231622
0.0145597
0.0109627
0.0109626
0.0145593
0.0231609
0.0525102
0.123691
0.0761087
0.0230372
0.0133849
0.00921707
0.0068241
0.0068241
0.00921668
0.0133839
0.0230387
0.0761087
0.0553223
0.0178768
0.00771033
0.0047778
0.00334854
0.00334857
0.00477764
0.00771028
0.0178784
0.0553227
0.0424897
0.0152299
0.00482465
0.0023936
0.00151712
0.00151716
0.00239365
0.00482494
0.0152311
0.0424898
0.0356091
0.0137206
0.00353834
0.00134855
0.000765065
0.000765096
0.00134863
0.00353862
0.0137215
0.0356092
1.34866
0.16746
0.0487357
0.0218327
0.0137539
0.013744
0.0218176
0.0492687
0.178128
1.5903
0.278702
0.118946
0.0465511
0.021634
0.0138566
0.0138455
0.0216001
0.0464899
0.118551
0.279539
0.235444
0.104024
0.0458494
0.0214297
0.0139626
0.0139554
0.0214134
0.0458381
0.103904
0.235361
0.197131
0.0921331
0.0451793
0.0211964
0.0140682
0.0140643
0.0211886
0.0451777
0.0921154
0.197097
0.15632
0.0868027
0.0414704
0.019978
0.0136918
0.0136904
0.0199754
0.0414698
0.0868071
0.156309
11.7331
11.7619
11.7731
11.7647
11.7357
11.6856
11.6142
11.521
11.406
11.2681
5.31217
5.3177
5.31649
5.30824
5.29273
5.26984
5.2395
5.20164
5.1562
5.10307
4.18216
4.1842
4.18124
4.17324
4.16019
4.14206
4.11882
4.09049
4.05705
4.01854
3.78997
3.79077
3.78738
3.77982
3.76809
3.7522
3.73215
3.70792
3.67952
3.64697
3.63224
3.63232
3.62882
3.62177
3.61117
3.597
3.57924
3.55786
3.53281
3.50408
3.58319
3.58271
3.57926
3.57283
3.56341
3.55094
3.53536
3.5166
3.49456
3.46915
3.59584
3.59494
3.5917
3.58608
3.57805
3.56752
3.55439
3.53853
3.51977
3.49794
3.64794
3.64675
3.64392
3.6394
3.63314
3.62502
3.6149
3.60259
3.58786
3.57043
3.72676
3.72546
3.72332
3.72031
3.71633
3.71129
3.70499
3.69722
3.68768
3.67602
3.82368
3.82253
3.82145
3.82042
3.81938
3.81823
3.81679
3.81484
3.81205
3.80802
3.93204
3.93134
3.93173
3.93323
3.93584
3.93948
3.94404
3.94933
3.95509
3.96092
4.04623
4.04629
4.04855
4.0531
4.05999
4.06926
4.08088
4.09478
4.11082
4.12875
4.16134
4.16243
4.16686
4.17483
4.18648
4.20197
4.22142
4.24495
4.27261
4.30439
4.27306
4.2753
4.28205
4.29357
4.31016
4.33211
4.35973
4.39333
4.43325
4.4798
4.37765
4.38101
4.38996
4.4049
4.42624
4.45442
4.48996
4.5334
4.58537
4.64654
4.47196
4.4762
4.48702
4.50492
4.53041
4.5641
4.60666
4.6589
4.72174
4.79627
4.55347
4.55819
4.57033
4.59044
4.61912
4.65708
4.70514
4.76429
4.83572
4.92083
4.62034
4.62504
4.63779
4.65917
4.68981
4.73046
4.78201
4.84551
4.92228
5.01389
4.67139
4.67556
4.68819
4.70985
4.74114
4.78276
4.83556
4.90055
4.97896
5.07232
4.70619
4.70938
4.72126
4.74232
4.77307
4.81411
4.86613
4.92997
5.0066
5.09717
4.72493
4.72688
4.73759
4.75743
4.78679
4.82612
4.87592
4.93678
5.00939
5.09452
4.72833
4.729
4.73839
4.75673
4.78427
4.82128
4.86808
4.92502
4.9925
5.07099
4.71746
4.71708
4.72529
4.74219
4.76789
4.80249
4.84612
4.89889
4.96095
5.03243
4.69365
4.69269
4.70013
4.71598
4.74019
4.77271
4.81351
4.86252
4.91966
4.98482
4.6584
4.65754
4.66487
4.68028
4.7036
4.73469
4.77336
4.81943
4.87266
4.93277
4.61336
4.61344
4.62146
4.63719
4.6604
4.69085
4.72827
4.77237
4.82282
4.87921
4.5604
4.56235
4.57189
4.58878
4.6127
4.64337
4.68045
4.72359
4.77238
4.82635
4.50159
4.5063
4.51822
4.53706
4.56252
4.59424
4.63188
4.67504
4.72329
4.7761
4.43921
4.44746
4.4625
4.48404
4.51175
4.5453
4.58432
4.62841
4.67713
4.72995
4.37567
4.38809
4.40683
4.43164
4.46222
4.49823
4.53932
4.58511
4.63516
4.68896
4.31338
4.33039
4.35326
4.38177
4.41565
4.4546
4.49829
4.54636
4.59838
4.65389
4.25471
4.27652
4.30374
4.33619
4.37364
4.41583
4.46247
4.51321
4.56767
4.62541
4.20183
4.22847
4.2601
4.29657
4.33771
4.38329
4.43306
4.48671
4.5439
4.60422
4.15675
4.18808
4.22401
4.26445
4.30925
4.35824
4.4112
4.46786
4.52792
4.591
4.12122
4.157
4.19702
4.24125
4.28958
4.34187
4.39796
4.45761
4.52055
4.58645
4.09679
4.13668
4.1805
4.22826
4.2799
4.33531
4.39436
4.45687
4.5226
4.59127
4.08482
4.12843
4.17571
4.2267
4.28136
4.33964
4.40142
4.46658
4.53491
4.60617
4.08651
4.13345
4.18383
4.23771
4.29508
4.35592
4.42017
4.48771
4.55839
4.632
4.10299
4.15287
4.20599
4.26242
4.32219
4.38531
4.45172
4.52135
4.59409
4.66976
4.13532
4.1878
4.24333
4.30202
4.36391
4.42902
4.49732
4.56877
4.64327
4.72068
4.18458
4.23937
4.29708
4.35779
4.42158
4.48847
4.55844
4.63146
4.70747
4.78633
4.2519
4.30884
4.36856
4.43118
4.49674
4.56529
4.6368
4.71125
4.78858
4.86867
4.33857
4.39759
4.45932
4.52384
4.59121
4.66143
4.73449
4.81034
4.88893
4.97013
4.44604
4.50726
4.57114
4.63775
4.70711
4.77921
4.854
4.93142
5.01136
5.09371
4.57602
4.63975
4.70615
4.77525
4.84703
4.92143
4.99836
5.07771
5.15933
5.24305
4.73052
4.79732
4.86685
4.9391
5.01399
5.0914
5.17117
5.2531
5.33698
5.42256
4.91187
4.98256
5.05616
5.13256
5.2116
5.29309
5.37675
5.46229
5.54936
5.63759
5.12268
5.19849
5.27747
5.35943
5.44413
5.53123
5.62033
5.71099
5.80267
5.89481
5.36582
5.44844
5.53463
5.62413
5.71656
5.81144
5.90822
6.00621
6.10464
6.20264
5.64436
5.73607
5.83196
5.93165
6.03464
6.14032
6.24791
6.3565
6.46495
6.57186
5.96151
6.06532
6.17413
6.28746
6.40472
6.52515
6.64783
6.77158
6.89484
7.01541
6.32052
6.4402
6.56594
6.69716
6.83315
6.97304
7.11579
7.26008
7.40437
7.54647
6.72441
6.86456
7.0121
7.16633
7.32633
7.49103
7.6592
7.82969
8.00192
8.17537
7.17569
7.34197
7.51746
7.70127
7.89219
8.08867
8.28891
8.49127
8.69471
8.89902
7.67594
7.87532
8.08668
8.30907
8.5411
8.78077
9.02522
9.26971
9.50522
9.67772
8.22485
8.46547
8.7223
8.99479
9.28214
9.58352
9.89776
10.2214
10.476
10.522
8.8192
9.10965
9.42202
9.7562
10.1124
10.4915
10.8967
11.2624
11.4399
11.4143
9.45261
9.80144
10.1794
10.5864
11.0211
11.4801
11.9279
12.2681
12.5381
12.5592
10.1153
10.5311
10.9867
11.4832
12.0211
12.598
13.1103
13.4423
13.7144
13.8121
10.7941
11.2817
11.8222
12.4195
13.0772
13.7923
14.3882
14.7324
15.0377
15.2742
11.4708
12.0303
12.6568
13.3578
14.1409
15.0041
15.7015
16.0725
16.4362
16.8021
12.1276
12.7523
13.4573
14.2538
15.1552
16.1669
16.986
17.3785
17.7633
18.1659
12.7531
13.4304
14.1974
15.0677
16.0593
17.188
18.1706
18.6055
18.968
19.4627
13.3472
14.0632
14.8727
15.7889
16.8298
18.0171
19.1075
19.5355
19.7033
19.8645
13.9217
14.6676
15.5079
16.4517
17.5092
18.6884
19.8769
20.4126
20.42
20.4071
14.4918
15.2682
16.1449
17.1299
18.23
19.4476
20.738
21.4128
21.2522
21.0056
15.0625
15.8714
16.7943
17.8422
19.0255
20.3526
21.8111
22.7106
22.3973
21.7111
15.6275
16.4635
17.4315
18.548
19.8306
21.2999
22.9759
24.3304
24.1122
22.9101
16.1779
17.0249
18.0231
19.1936
20.558
22.1382
23.9454
25.8506
26.1565
24.4594
16.7124
17.5466
18.5519
19.7571
21.1945
22.902
24.9229
27.278
28.1985
26.3244
17.2404
18.0285
19.0044
20.2017
21.6598
23.4274
25.5709
28.1753
30.2486
28.9147
17.7853
18.4898
19.3949
20.5352
21.9484
23.6768
25.7693
28.2674
31.0383
31.4483
18.3803
18.9644
19.7647
20.8171
22.1602
23.8367
25.896
28.3926
31.346
32.6912
19.0577
19.4816
20.1432
21.0804
22.3334
23.9468
25.9739
28.4851
31.5545
33.7861
19.8444
20.0595
20.5424
21.3332
22.4724
24.0039
25.976
28.4451
31.4478
34.6592
20.7644
20.7081
20.9627
21.5706
22.5748
24.0224
25.9699
28.4925
31.6863
35.601
21.847
21.4368
21.3961
21.7688
22.597
23.9267
25.8137
28.3342
31.592
35.6863
23.1379
22.2637
21.8385
21.9055
22.5011
23.6632
25.4392
27.8999
31.1567
35.3604
24.7033
23.2193
22.293
21.9645
22.2594
23.1991
24.8109
27.138
30.2468
34.1675
26.6328
24.3488
22.7726
21.9399
21.8612
22.5361
23.9662
26.1625
29.1434
32.8618
29.0368
25.7134
23.3037
21.837
21.3042
21.6756
22.9219
25.0257
27.9863
31.8024
32.0234
27.3709
23.9084
21.6538
20.5713
20.59
21.6352
23.6518
26.618
30.5657
35.6523
29.3397
24.5803
21.3674
19.6312
19.2481
20.0786
22.0084
24.9734
28.9573
39.8888
31.5721
25.2797
20.9486
18.4697
17.6626
18.3069
20.2036
23.2119
27.2422
44.5711
33.9314
25.9278
20.3688
17.0926
15.8753
16.4118
18.3895
21.5336
25.6769
49.3276
36.1543
26.3849
19.5826
15.5041
13.916
14.4575
16.6868
20.1455
24.5363
53.4564
37.8447
26.4556
18.5314
13.7137
11.8083
12.4776
15.1715
19.2155
24.1432
56.1946
38.604
25.9473
17.164
11.7551
9.59513
10.4876
13.8458
18.7874
24.6726
57.1565
38.1998
24.7283
15.4482
9.68676
7.35475
8.50326
12.6264
18.7152
26.0285
56.3201
36.543
22.7282
13.3733
7.58542
5.2114
6.57349
11.3693
18.6657
27.8165
53.6814
33.5765
19.9345
10.9754
5.54791
3.32755
4.79711
9.92125
18.1801
29.3519
48.8824
29.2352
16.4356
8.37981
3.69652
1.86104
3.29657
8.20342
16.805
29.6655
41.3624
23.6545
12.5253
5.82892
2.17018
0.890524
2.14079
6.30965
14.3399
27.8319
32.2779
17.5522
8.65128
3.59425
1.07812
0.365271
1.29568
4.38848
10.9383
23.1522
23.0631
11.7975
5.3206
1.90728
0.433756
0.141841
0.73674
2.7335
7.22065
16.1831
14.7875
7.04402
2.85947
0.852316
0.142397
0.0626848
0.407949
1.58191
4.19148
9.34601
8.27756
3.68483
1.34241
0.326481
0.045582
0.0337198
0.224761
0.904125
2.3594
5.13588
3.99215
1.73519
0.578543
0.118849
0.020754
0.0212103
0.119244
0.508117
1.30775
2.63983
1.68534
0.808118
0.24774
0.0485317
0.0150872
0.0157449
0.0581224
0.269896
0.742469
1.33822
0.806187
0.413758
0.10515
0.0264073
0.0138743
0.0139641
0.0285428
0.120103
0.435081
0.816874
11.0929
10.8873
10.6544
10.395
10.1102
9.80158
9.47083
9.11991
8.75094
8.36599
7.96743
7.56376
7.18285
6.81048
6.44178
6.07599
5.7141
5.35782
5.00897
4.66925
4.34009
4.02262
3.71765
3.42571
3.14702
2.88159
2.62921
2.3895
2.16194
1.94589
1.74056
1.54496
1.35771
1.17668
0.998547
0.817937
0.624517
0.432405
0.24275
0.148065
5.0383
4.96169
4.87617
4.78199
4.67951
4.56915
4.45143
4.32691
4.19628
4.06036
3.92051
3.7796
3.64242
3.50575
3.36798
3.22834
3.08663
2.94305
2.7981
2.65243
2.50678
2.3619
2.21853
2.07732
1.93884
1.80357
1.67183
1.54386
1.41975
1.29951
1.18303
1.07015
0.960686
0.85443
0.751336
0.652067
0.55925
0.481783
0.444437
0.657988
3.97228
3.91762
3.85706
3.7908
3.71913
3.64236
3.56087
3.4751
3.38551
3.29267
3.19731
3.10036
3.00299
2.90476
2.80518
2.70393
2.60083
2.49588
2.38924
2.28118
2.17211
2.06248
1.95279
1.84355
1.73524
1.62831
1.52316
1.42015
1.31956
1.22165
1.12667
1.03492
0.946799
0.862972
0.784658
0.714384
0.657978
0.630287
0.684664
1.28892
3.608
3.5619
3.51085
3.455
3.39457
3.32982
3.26106
3.18865
3.11299
3.03453
2.95372
2.87108
2.78706
2.70159
2.61456
2.52589
2.43555
2.34359
2.25017
2.15551
2.0599
1.96369
1.86728
1.77107
1.67548
1.58092
1.48778
1.39644
1.3073
1.22075
1.13725
1.05737
0.981922
0.912124
0.850013
0.799336
0.767916
0.775798
0.89946
1.82022
3.46962
3.42861
3.38296
3.33274
3.27806
3.21909
3.15607
3.08931
3.01915
2.946
2.87026
2.79236
2.71259
2.63106
2.54784
2.46303
2.37676
2.28919
2.20054
2.11105
2.02102
1.93074
1.84057
1.75085
1.66195
1.57424
1.48808
1.40387
1.32204
1.24305
1.16748
1.09609
1.02992
0.970571
0.92063
0.884788
0.872839
0.910496
1.09915
2.34665
3.43846
3.40157
3.36007
3.31386
3.26291
3.20726
3.14704
3.08246
3.01387
2.94167
2.86632
2.78831
2.70798
2.62563
2.54156
2.45606
2.36943
2.28195
2.19393
2.10565
2.01739
1.92947
1.84217
1.7558
1.67066
1.58709
1.50542
1.42602
1.34933
1.27586
1.20624
1.14133
1.08236
1.03117
0.990801
0.966803
0.97089
1.03417
1.27969
2.80179
3.47126
3.43866
3.40132
3.35893
3.31122
3.25801
3.19922
3.13495
3.06551
2.99136
2.91316
2.83155
2.7471
2.66045
2.57219
2.48287
2.39296
2.30288
2.21299
2.12358
2.03495
1.94733
1.86099
1.77615
1.69307
1.61203
1.53331
1.45727
1.38432
1.31498
1.24992
1.19007
1.13677
1.09209
1.05946
1.04518
1.06273
1.14792
1.44237
3.19811
3.5487
3.52144
3.48928
3.45159
3.40774
3.35716
3.29941
3.23435
3.16215
3.08346
2.99928
2.91056
2.8185
2.72426
2.62886
2.53315
2.43776
2.34317
2.24973
2.15771
2.06732
1.97874
1.89213
1.80767
1.72554
1.64593
1.5691
1.49537
1.42512
1.35886
1.29729
1.24139
1.19259
1.15315
1.12684
1.12066
1.14959
1.25363
1.59053
3.54856
3.66088
3.6409
3.61603
3.58518
3.54716
3.50071
3.44469
3.37828
3.30129
3.21468
3.12029
3.02011
2.91624
2.81075
2.70535
2.60105
2.49849
2.39805
2.29997
2.20438
2.11136
2.02098
1.93331
1.84842
1.76641
1.68744
1.61169
1.53945
1.47106
1.40705
1.34811
1.29527
1.25004
1.21483
1.19373
1.19434
1.233
1.35334
1.72708
3.8593
3.80184
3.79213
3.77799
3.75782
3.72962
3.69095
3.63908
3.57151
3.48699
3.38719
3.27531
3.15658
3.03525
2.91472
2.79694
2.68258
2.57186
2.46485
2.36151
2.26177
2.16557
2.07283
1.9835
1.89756
1.81506
1.73607
1.66074
1.5893
1.5221
1.45963
1.4026
1.35208
1.30965
1.27786
1.26107
1.26742
1.31446
1.44898
1.85485
4.13837
3.96663
3.97112
3.97262
3.96906
3.95749
3.93375
3.89256
3.82782
3.73209
3.60664
3.4605
3.31204
3.16863
3.03137
2.90042
2.77554
2.65633
2.54243
2.43351
2.32926
2.22946
2.13389
2.04241
1.95492
1.87137
1.7918
1.71629
1.64507
1.57845
1.51691
1.46119
1.41235
1.37208
1.34304
1.32982
1.34107
1.39537
1.54235
1.97657
4.39428
4.1494
4.17238
4.1952
4.21581
4.23099
4.23625
4.2246
4.18414
4.05156
3.8456
3.65425
3.47652
3.3118
3.15832
3.01456
2.8793
2.75159
2.63065
2.51588
2.4068
2.30301
2.20419
2.11011
2.02057
1.93547
1.85479
1.77858
1.70702
1.64044
1.57929
1.52433
1.47665
1.43798
1.41112
1.40089
1.41636
1.47709
1.63523
2.09509
4.63512
4.34246
4.38755
4.43683
4.48922
4.54339
4.59771
4.64194
4.5328
4.29329
4.06208
3.84013
3.64088
3.4594
3.2923
3.13723
2.99243
2.85659
2.72872
2.60803
2.49391
2.38586
2.28346
2.18639
2.0944
2.00733
1.92509
1.84773
1.77539
1.70837
1.64714
1.59245
1.54544
1.50792
1.4828
1.47512
1.49439
1.56117
1.73017
2.21556
4.87584
4.53661
4.6058
4.68426
4.77224
4.87041
4.97879
4.96385
4.71656
4.47335
4.2303
4.0042
3.79661
3.60562
3.42916
3.26534
3.11256
2.96953
2.83522
2.70885
2.58974
2.47735
2.37121
2.27092
2.17617
2.08677
2.0026
1.92368
1.85013
1.78225
1.72051
1.66567
1.61894
1.58218
1.55844
1.55301
1.5759
1.64872
1.82906
2.34202
5.13045
4.72208
4.81556
4.92352
5.04668
5.18473
5.31179
5.18687
4.90377
4.64688
4.39471
4.16248
3.94848
3.75075
3.56745
3.39691
3.23768
3.08853
2.94852
2.81693
2.69315
2.57658
2.46672
2.36312
2.26545
2.17348
2.08708
2.00626
1.93114
1.86201
1.79937
1.74401
1.69718
1.66081
1.63812
1.63464
1.6609
1.7396
1.93125
2.47204
5.39359
4.88918
5.00584
5.14319
5.30405
5.49114
5.60112
5.36393
5.07939
4.80861
4.55241
4.31592
4.0973
3.89466
3.70626
3.53055
3.36616
3.21194
3.06704
2.93089
2.80293
2.68253
2.56913
2.46227
2.36161
2.26693
2.17809
2.09512
2.01813
1.94745
1.88358
1.82735
1.78007
1.74377
1.72181
1.72001
1.7494
1.83383
2.03684
2.60618
5.66999
5.02762
5.16299
5.3244
5.51647
5.74418
5.82359
5.5307
5.24095
4.9625
4.70374
4.46439
4.24261
4.03652
3.84445
3.66487
3.49643
3.33807
3.18921
3.04936
2.91788
2.79409
2.67744
2.56747
2.46387
2.36643
2.27505
2.18976
2.11071
2.03822
1.97286
1.91549
1.86748
1.83096
1.80947
1.80911
1.84148
1.93161
2.14626
2.74561
5.96402
5.1291
5.27575
5.45163
5.66251
5.91454
5.99483
5.68699
5.39015
5.10776
4.84701
4.60606
4.38267
4.17473
3.98037
3.79804
3.62657
3.46527
3.3136
3.17096
3.03666
2.91002
2.79049
2.67768
2.5713
2.47118
2.37726
2.28959
2.20835
2.13392
2.06688
2.00817
1.95921
1.92226
1.90104
1.90197
1.93723
2.03317
2.25999
2.89133
6.27857
5.18941
5.3381
5.51647
5.73189
5.99592
6.1185
5.82054
5.52135
5.23806
4.97764
4.73724
4.51415
4.30598
4.11088
3.9275
3.75478
3.59209
3.43887
3.29443
3.15805
3.0291
2.90716
2.79186
2.68297
2.58036
2.484
2.39399
2.31056
2.23411
2.1653
2.10511
2.05506
2.01755
1.99647
1.9986
2.03677
2.13872
2.37838
3.04396
6.61513
5.20964
5.35022
5.51482
5.70581
5.92342
6.11667
5.92525
5.62234
5.34472
5.08951
4.85341
4.63356
4.4277
4.23418
4.05176
3.87959
3.7171
3.56359
3.41834
3.28073
3.15023
3.02646
2.90914
2.79809
2.69323
2.5946
2.50238
2.41683
2.33839
2.26777
2.20605
2.15485
2.11669
2.09569
2.09901
2.14017
2.24841
2.50165
3.20376
6.97399
5.19917
5.32817
5.47665
5.64543
5.83361
6.03444
5.96019
5.68291
5.4232
5.18067
4.95374
4.74066
4.53991
4.35023
4.17072
4.00077
3.83975
3.68696
3.54179
3.40371
3.27233
3.14733
3.02851
2.91577
2.80907
2.70852
2.6143
2.52676
2.44641
2.37403
2.31079
2.25842
2.21959
2.19868
2.20322
2.24748
2.3623
2.62985
3.37064
7.35414
5.1666
5.28324
5.41638
5.56766
5.74011
5.93971
5.95802
5.72081
5.48316
5.25656
5.04161
4.83773
4.64412
4.46003
4.28496
4.11841
3.95981
3.80859
3.66427
3.52646
3.39484
3.26921
3.14941
3.03542
2.92726
2.8251
2.72917
2.63988
2.55781
2.48382
2.41915
2.36566
2.32619
2.30539
2.31122
2.35875
2.48047
2.76303
3.54455
7.75199
5.11846
5.2217
5.33704
5.46405
5.60139
5.74442
5.86542
5.75571
5.53465
5.32321
5.12108
4.92763
4.74238
4.565
4.39528
4.2329
4.07743
3.92847
3.78568
3.64875
3.51749
3.39175
3.27147
3.15666
3.04743
2.94398
2.84663
2.75583
2.67224
2.5968
2.53085
2.47637
2.4364
2.41584
2.42309
2.47405
2.60301
2.90134
3.72553
8.16763
5.06232
5.15389
5.25433
5.36255
5.47669
5.59343
5.70458
5.72121
5.56814
5.38146
5.19507
5.01312
4.83683
4.66663
4.50268
4.34489
4.19305
4.04687
3.90613
3.77062
3.64022
3.51486
3.39453
3.27931
3.16937
3.06496
2.96646
2.87439
2.7895
2.71278
2.64571
2.59039
2.55006
2.5299
2.53882
2.59359
2.7304
3.04557
3.91541
8.60979
5.00352
5.08606
5.17535
5.27023
5.36906
5.46969
5.56939
5.66088
5.623
5.45042
5.27187
5.09785
4.92916
4.76579
4.60771
4.45484
4.30702
4.16407
4.02585
3.89222
3.76313
3.63857
3.51859
3.40332
3.293
3.18792
3.08854
2.99543
2.90942
2.83161
2.76355
2.70753
2.66698
2.64739
2.65819
2.71711
2.86235
3.19567
4.11453
9.07257
4.94493
5.02068
5.10162
5.18649
5.27365
5.36103
5.44611
5.52526
5.58349
5.50905
5.34196
5.1768
5.01661
4.86097
4.70961
4.56243
4.41932
4.2802
4.14503
4.01377
3.88642
3.76305
3.64377
3.52879
3.41837
3.31289
3.21284
3.11889
3.03193
2.95316
2.88425
2.82763
2.78695
2.76804
2.78086
2.84412
2.99814
3.35022
4.31957
9.54913
4.8886
4.95953
5.0344
5.11188
5.19036
5.26784
5.34188
5.40965
5.46635
5.48729
5.39518
5.24671
5.09822
4.95216
4.80877
4.66819
4.53052
4.39584
4.26423
4.13575
4.01052
3.88868
3.7704
3.65596
3.54567
3.43998
3.33945
3.2448
3.15702
3.07738
3.00769
2.95053
2.90978
2.89159
2.90647
2.97414
3.13702
3.50805
4.52847
10.0341
4.83644
4.90449
4.9756
5.04848
5.12161
5.19322
5.2613
5.32354
5.37754
5.41813
5.41075
5.31154
5.17813
5.04253
4.90763
4.77405
4.64217
4.51224
4.38447
4.25904
4.13617
4.01605
3.89896
3.78522
3.67521
3.56944
3.46853
3.37327
3.28471
3.20425
3.1338
3.0761
3.03526
3.01777
3.03468
3.10672
3.27846
3.66851
4.74043
10.526
4.7898
4.85675
4.92621
4.99696
5.06759
5.13653
5.20204
5.26222
5.315
5.35821
5.38618
5.36085
5.25922
5.13496
5.00841
4.88182
4.75577
4.63068
4.50686
4.38459
4.26416
4.14586
4.03004
3.91706
3.8074
3.70159
3.60032
3.50446
3.41513
3.33382
3.26255
3.20425
3.16323
3.14632
3.16515
3.24144
3.42192
3.83091
4.95451
11.023
4.7495
4.81678
4.88623
4.95671
5.02692
5.09543
5.16064
5.22087
5.27423
5.31871
5.35232
5.36873
5.33072
5.22911
5.11176
4.99223
4.87214
4.75199
4.63219
4.51312
4.39517
4.27872
4.16417
4.05197
3.94263
3.83676
3.7351
3.63858
3.5484
3.46613
3.39394
3.33488
3.29352
3.27702
3.29755
3.37788
3.56689
3.99466
5.17
11.5236
4.71599
4.78465
4.85529
4.92683
4.99806
5.06763
5.13408
5.19579
5.25106
5.29801
5.33476
5.35943
5.36511
5.31712
5.21692
5.10541
4.99154
4.87654
4.7609
4.64513
4.52971
4.41511
4.30183
4.19037
4.0813
3.97529
3.87314
3.77584
3.68466
3.60127
3.52795
3.46793
3.42597
3.4096
3.43154
3.51558
3.71278
4.15903
5.38621
12.0298
4.6897
4.76051
4.83317
4.90668
4.9799
5.05155
5.12026
5.1845
5.24268
5.29309
5.33395
5.36357
5.38006
5.37535
5.31949
5.22115
5.114
5.00435
4.89311
4.78082
4.66806
4.5554
4.4434
4.33265
4.22378
4.11751
4.01472
3.91645
3.82406
3.7393
3.66459
3.60329
3.56042
3.54381
3.56675
3.65402
3.85882
4.32294
5.60208
12.5481
4.67112
4.74458
4.81985
4.89597
4.97186
5.04631
5.118
5.18548
5.24722
5.30162
5.34702
5.38174
5.40429
5.41258
5.39709
5.33387
5.23784
5.13463
5.02849
4.92019
4.81042
4.69988
4.58923
4.47917
4.37039
4.26371
4.16006
4.06057
3.96668
3.88024
3.80378
3.74083
3.69662
3.67932
3.7027
3.79247
4.00372
4.48317
5.80569
12.9927
4.66077
4.73722
4.8155
4.8947
4.97379
5.05162
5.1269
5.19824
5.26415
5.32306
5.37337
5.41348
5.44176
5.45692
5.45668
5.43078
5.36205
5.26811
5.16774
5.06389
4.9574
4.84912
4.73984
4.63037
4.52151
4.41417
4.30937
4.20832
4.11254
4.02401
3.94536
3.8803
3.83424
3.81568
3.83887
3.93034
4.14695
4.63995
6.00197
13.4123
4.6592
4.73882
4.82036
4.90296
4.98565
5.06733
5.14678
5.22264
5.29346
5.35771
5.41381
5.4602
5.49536
5.51779
5.52639
5.51855
5.48159
5.40653
5.31298
5.21346
5.11016
5.004
4.89589
4.78675
4.67749
4.56911
4.46274
4.35968
4.26154
4.17041
4.08905
4.02131
3.97283
3.95237
3.97465
4.067
4.28789
4.79286
6.19131
13.8123
4.66697
4.74978
4.83465
4.92079
5.00731
5.09315
5.17715
5.25802
5.33432
5.40456
5.46718
5.52058
5.5632
5.59354
5.61009
5.61164
5.59445
5.54528
5.4642
5.36959
5.26934
5.16508
5.05781
4.94859
4.83846
4.72855
4.62007
4.51444
4.41338
4.31906
4.23438
4.16334
4.11178
4.08874
4.10935
4.20167
4.42567
4.9408
6.37179
14.1854
4.68467
4.77055
4.85867
4.94832
5.03866
5.12872
5.2174
5.30344
5.38547
5.46199
5.53142
5.59212
5.64245
5.6808
5.70562
5.71544
5.70873
5.68017
5.61871
5.53177
5.43477
5.33223
5.22548
5.11572
5.00418
4.89213
4.78092
4.67208
4.56744
4.46929
4.38065
4.30566
4.25036
4.22403
4.24217
4.33348
4.55919
5.08204
6.53948
14.5127
4.71305
4.80175
4.89287
4.9858
5.07978
5.17389
5.26711
5.35824
5.44592
5.52869
5.60491
5.6729
5.7309
5.77717
5.81005
5.8279
5.82939
5.81253
5.77027
5.69724
5.60498
5.50433
5.398
5.28736
5.17388
5.05906
4.94443
4.83168
4.72276
4.6201
4.52684
4.44726
4.38757
4.35726
4.37215
4.46141
4.68725
5.21475
6.69016
14.7731
4.75304
4.8442
4.93798
5.03382
5.13106
5.22887
5.3263
5.42221
5.5153
5.60411
5.68701
5.76224
5.82794
5.88226
5.92338
5.94958
5.95918
5.95099
5.92232
5.8644
5.77954
5.68107
5.5748
5.46271
5.34656
5.22816
5.10929
4.99183
4.87791
4.77005
4.67154
4.58679
4.52214
4.48727
4.49821
4.58449
4.80892
5.33805
6.82332
14.9696
4.80584
4.89905
4.99504
5.09332
5.19332
5.2943
5.3954
5.49558
5.59361
5.68807
5.77737
5.85969
5.93311
5.99561
6.04521
6.08006
6.09836
6.09869
6.07932
6.03465
5.95932
5.86304
5.75584
5.64112
5.52105
5.39787
5.27369
5.15061
5.03088
4.91718
4.81289
4.72251
4.65251
4.61268
4.6192
4.70179
4.92357
5.45168
6.93928
15.1081
4.87302
4.96785
5.06555
5.16571
5.26783
5.37129
5.47533
5.57901
5.68122
5.78064
5.87571
5.96465
6.04546
6.116
6.17412
6.21784
6.24519
6.25421
6.24313
6.20933
6.14379
6.0493
5.93962
5.82055
5.69492
5.56549
5.43477
5.3051
5.17887
5.05883
4.94843
4.85224
4.77678
4.73194
4.73399
4.81275
5.03147
5.55758
7.04548
15.2028
4.95658
5.05263
5.15154
5.25297
5.35649
5.46159
5.56762
5.67378
5.77908
5.88234
5.98211
6.0767
6.16409
6.24199
6.30812
6.3605
6.39718
6.4159
6.41409
6.3895
6.33412
6.24116
6.12563
5.99903
5.86521
5.72747
5.58875
5.45154
5.31826
5.19164
5.07513
4.97332
4.89274
4.84331
4.84143
4.91697
5.1333
5.658
7.14403
15.2763
5.05905
5.15601
5.25567
5.35776
5.46192
5.56772
5.67462
5.78196
5.8889
5.99444
6.09729
6.19591
6.2883
6.37194
6.4446
6.5046
6.55059
6.58013
6.58952
6.57528
6.52863
6.43351
6.30762
6.1699
6.02533
5.87761
5.72993
5.58476
5.4444
5.31143
5.1893
5.08256
4.99766
4.94451
4.93944
5.01231
5.22645
5.74905
7.23072
15.3067
5.18359
5.28124
5.38129
5.48349
5.58751
5.693
5.79951
5.90653
6.01336
6.11919
6.22292
6.32318
6.41805
6.50505
6.58185
6.64812
6.70372
6.74593
6.76944
6.76812
6.72768
6.62055
6.47696
6.32367
6.16613
6.00766
5.85101
5.69847
5.55194
5.41375
5.2871
5.17642
5.08815
5.03216
5.0247
5.09553
5.30763
5.82724
7.29998
15.2951
5.33402
5.43234
5.53254
5.63435
5.73747
5.84158
5.94629
6.05119
6.15574
6.25921
6.36065
6.45903
6.55338
6.64075
6.71763
6.78788
6.85389
6.91085
6.951
6.96475
6.92831
6.79317
6.62241
6.44956
6.27816
6.10977
5.94579
5.78741
5.63613
5.49401
5.36407
5.25066
5.16016
5.10237
5.09345
5.16297
5.37346
5.88982
7.35135
15.2516
5.51499
5.61414
5.7144
5.81543
5.91689
6.01842
6.11969
6.2203
6.31979
6.41744
6.51263
6.60527
6.69357
6.77029
6.8417
6.91757
6.9963
7.07158
7.13397
7.16399
7.10902
6.92308
6.72678
6.53727
6.35466
6.17871
6.00944
5.84716
5.69282
5.54828
5.41642
5.30153
5.20992
5.15135
5.14188
5.21089
5.42045
5.93402
7.38448
15.1946
5.73215
5.83256
5.93296
6.03288
6.13186
6.22943
6.32511
6.41845
6.50911
6.59699
6.68151
6.76044
6.82176
6.87807
6.94666
7.02838
7.12153
7.22305
7.32643
7.37986
7.19598
6.98242
6.77367
6.57727
6.3902
6.21106
6.0393
5.8751
5.71938
5.57389
5.44141
5.32615
5.23442
5.17591
5.16666
5.23589
5.44533
5.95739
7.39991
15.1454
5.99258
6.09502
6.19592
6.29463
6.39041
6.48242
6.56982
6.65207
6.72947
6.8021
6.86212
6.89299
6.91887
6.96164
7.02297
7.10274
7.1993
7.30778
7.3615
7.28427
7.11097
6.93766
6.74903
6.56316
6.38209
6.20639
6.03581
5.87142
5.71519
5.56959
5.43749
5.32283
5.23174
5.17389
5.16531
5.23525
5.44538
5.95771
7.39801
15.1242
6.30535
6.41117
6.51353
6.61167
6.70443
6.79027
6.86754
6.93457
6.98945
7.01914
7.00669
6.99012
6.99314
7.01732
7.06279
7.13006
7.19642
7.21617
7.16074
7.06645
6.95049
6.81176
6.65808
6.49917
6.33652
6.17062
6.00368
5.83919
5.68215
5.53644
5.40496
5.29136
5.20138
5.14445
5.13665
5.20743
5.41871
5.93296
7.37764
15.1428
6.68213
6.79313
6.89831
6.99752
7.08954
7.17211
7.24108
7.28581
7.26611
7.18466
7.10885
7.05994
7.03747
7.03907
7.05605
7.07344
7.05994
7.01709
6.95497
6.87375
6.77543
6.66241
6.53797
6.40486
6.26298
6.10942
5.94542
5.77858
5.61987
5.47497
5.34529
5.23306
5.1441
5.08798
5.0808
5.15224
5.36474
5.8818
7.33548
15.1942
7.13757
7.25583
7.36464
7.46655
7.562
7.64778
7.71214
7.61963
7.43011
7.27472
7.16113
7.08447
7.03998
7.00275
6.96225
6.92332
6.88607
6.84219
6.78395
6.70806
6.61676
6.51542
6.40632
6.28388
6.14662
5.99229
5.8291
5.67086
5.52079
5.38249
5.26044
5.15055
5.06194
5.00574
4.99863
5.07066
5.28477
5.80566
7.27093
15.2533
7.68988
7.81994
7.92956
8.03064
8.1265
8.1666
7.96945
7.69241
7.46384
7.28336
7.14774
7.05451
6.96856
6.87928
6.81289
6.76569
6.72566
6.6815
6.62371
6.5474
6.45421
6.34871
6.22814
6.08887
5.94132
5.79417
5.64972
5.51008
5.37765
5.25496
5.14616
5.04742
4.95671
4.89828
4.8904
4.96358
5.18148
5.71201
7.20848
15.3898
8.34916
8.49496
8.60681
8.68797
8.61718
8.29643
7.956
7.66688
7.42476
7.227
7.07153
6.93398
6.81283
6.7145
6.63729
6.57627
6.52374
6.47075
6.40658
6.32661
6.23135
6.11055
5.97267
5.83659
5.70271
5.57123
5.44321
5.32006
5.20385
5.09732
4.99792
4.90837
4.82372
4.7614
4.75272
4.82685
5.0471
5.58279
7.0965
15.3954
9.04496
9.1005
9.13638
9.02149
8.64567
8.25692
7.91395
7.61419
7.35535
7.13487
6.94543
6.7786
6.63697
6.52283
6.42955
6.34601
6.26757
6.19126
6.1083
6.01984
5.92378
5.81248
5.69239
5.57278
5.45483
5.33884
5.22555
5.11626
5.0134
4.92077
4.83039
4.73654
4.64813
4.58765
4.58085
4.65555
4.87374
5.40244
6.89786
15.12
9.67005
9.54602
9.33662
8.99291
8.60435
8.23064
7.88419
7.57011
7.28972
7.04116
6.82163
6.62935
6.46243
6.3195
6.19793
6.09479
6.00107
5.91223
5.81864
5.72031
5.621
5.51951
5.41633
5.31294
5.21064
5.10914
5.00844
4.90848
4.80684
4.70615
4.60708
4.51088
4.4283
4.37788
4.37567
4.44953
4.6594
5.1657
6.59828
14.4874
10.3745
10.0395
9.59404
9.13597
8.70148
8.29379
7.91626
7.57105
7.25846
6.97776
6.72772
6.50616
6.31072
6.13915
5.98892
5.85711
5.74032
5.6363
5.53988
5.43877
5.33474
5.23219
5.13202
5.03408
4.93707
4.84047
4.7448
4.65025
4.55203
4.44573
4.34464
4.25646
4.18625
4.14411
4.14473
4.21456
4.40987
4.88023
6.21132
13.5433
11.1364
10.5783
9.9918
9.44299
8.93364
8.4633
8.03167
7.63813
7.28172
6.96128
6.67471
6.41932
6.19233
5.99094
5.81224
5.6532
5.51078
5.38208
5.26356
5.15108
5.04259
4.93755
4.83571
4.73637
4.6384
4.54108
4.44485
4.3494
4.25432
4.16055
4.0723
3.99462
3.93315
3.89623
3.89732
3.96082
4.13812
4.56514
5.77283
12.4192
12.0692
11.3105
10.581
9.91181
9.30056
8.74375
8.23819
7.7809
7.36916
7.00001
6.66997
6.37548
6.11304
5.87926
5.67078
5.48437
5.31686
5.16523
5.02658
4.89824
4.77805
4.66433
4.55578
4.45136
4.35018
4.25162
4.15541
4.06155
3.97058
3.88373
3.80333
3.73283
3.67711
3.64357
3.64431
3.70136
3.86134
4.24751
5.34057
11.3264
13.1527
12.2601
11.3546
10.5352
9.79667
9.13236
8.53576
8.00113
7.52318
7.09668
6.71653
6.37789
6.07624
5.80737
5.56732
5.35246
5.15937
4.98493
4.82629
4.68087
4.54645
4.42112
4.30333
4.19183
4.08564
3.98404
3.8866
3.79327
3.70446
3.62116
3.54511
3.47903
3.42704
3.39556
3.39534
3.44623
3.5905
3.9402
4.9316
10.326
14.4407
13.4133
12.29
11.2917
10.405
9.61659
8.91568
8.29291
7.73993
7.24909
6.8134
6.42652
6.08266
5.77659
5.50358
5.25938
5.04017
4.84254
4.66346
4.50024
4.35054
4.21233
4.08392
3.9639
3.85117
3.7449
3.64455
3.54993
3.46127
3.37928
3.30529
3.2415
3.19137
3.16049
3.15839
3.20294
3.33243
3.64866
4.54776
9.42567
15.7956
14.6565
13.3155
12.1349
11.0938
10.1742
9.36175
8.64417
8.01048
7.45074
6.956
6.51823
6.13024
5.78565
5.47883
5.20479
4.95919
4.7382
4.53848
4.35713
4.19164
4.03987
3.89998
3.77045
3.65006
3.53788
3.43323
3.33579
3.24558
3.16306
3.08924
3.02591
2.97599
2.94438
2.93958
2.97773
3.09366
3.38026
4.19936
8.64436
17.1208
15.8546
14.3645
13.0228
11.8322
10.7805
9.85397
9.03884
8.32214
7.69176
7.13674
6.64725
6.21463
5.83126
5.49052
5.18667
4.91474
4.67047
4.45015
4.25063
4.0692
3.90354
3.75169
3.61203
3.4832
3.36416
3.25412
3.15261
3.05948
2.97497
2.89985
2.83554
2.78459
2.75129
2.74331
2.77537
2.87943
3.14112
3.8943
7.98631
18.5536
17.0903
15.485
13.9553
12.6021
11.4127
10.3702
9.45767
8.65905
7.9595
7.3457
6.8059
6.32987
5.90874
5.53493
5.20194
4.90422
4.63704
4.39639
4.17883
3.98146
3.80179
3.63773
3.48752