/*--------------------------------*- C++ -*----------------------------------*\
  =========                 |
  \\      /  F ield         | OpenFOAM: The Open Source CFD Toolbox
   \\    /   O peration     | Website:  https://openfoam.org
    \\  /    A nd           | Version:  8
     \\/     M anipulation  |
\*---------------------------------------------------------------------------*/
FoamFile
{
    version     2.0;
    format      ascii;
    class       volScalarField;
    location    "1.85";
    object      k;
}
// * * * * * * * * * * * * * * * * * * * * * * * * * * * * * * * * * * * * * //

dimensions      [0 2 -2 0 0 0 0];

internalField   nonuniform List<scalar> 
9150
(
0.0018276
0.000942976
0.000482136
0.00031641
0.000219889
0.000219892
0.000316415
0.00048215
0.000943008
0.0018276
0.00178487
0.000748889
0.000405526
0.000270508
0.000185106
0.000185108
0.000270512
0.000405534
0.000748911
0.00178487
0.00171346
0.000653614
0.000372668
0.000250002
0.00017135
0.000171351
0.000250004
0.000372674
0.000653633
0.00171346
0.00163492
0.000603611
0.000359645
0.000241875
0.000166243
0.000166245
0.000241877
0.00035965
0.000603629
0.00163492
0.00155147
0.00058215
0.000354931
0.00023907
0.000164728
0.00016473
0.000239073
0.000354936
0.000582169
0.00155147
0.00285133
0.00258569
0.00193033
0.00174192
0.00151585
0.00151591
0.00174195
0.00193029
0.00258596
0.00285131
0.00230451
0.0015118
0.0013226
0.00129638
0.00111366
0.00111369
0.00129635
0.0013225
0.00151185
0.00230451
0.00204886
0.00125595
0.000909886
0.000861087
0.000715976
0.000715985
0.000861044
0.000909844
0.00125602
0.00204886
0.00186741
0.00111335
0.0006622
0.000562462
0.000442223
0.000442229
0.000562445
0.0006622
0.00111341
0.00186742
0.00178741
0.0010232
0.000532565
0.000392204
0.000289261
0.000289266
0.000392205
0.00053258
0.00102325
0.00178741
0.0142723
0.00573419
0.00274138
0.00202921
0.00173019
0.00172953
0.00203053
0.00281245
0.00631818
0.0157964
0.00494571
0.00380879
0.00259483
0.00202585
0.00174105
0.00174037
0.00202425
0.00259415
0.00380611
0.00495599
0.00441894
0.00345644
0.00257986
0.00202602
0.00175251
0.00175212
0.00202537
0.00257972
0.00345401
0.00441828
0.00392552
0.00319096
0.00256418
0.00202297
0.0017633
0.00176315
0.00202273
0.00256425
0.00319065
0.00392523
0.00336307
0.00313736
0.00245827
0.00197594
0.00173633
0.00173634
0.00197594
0.00245834
0.00313761
0.00336298
0.0943498
0.094507
0.0945694
0.0945271
0.0943745
0.0941084
0.0937266
0.0932272
0.0926077
0.0918619
0.195748
0.195846
0.195724
0.195384
0.194828
0.194055
0.193064
0.191855
0.190428
0.18878
0.242324
0.242453
0.242321
0.241931
0.241285
0.240383
0.239226
0.237813
0.236143
0.234217
0.273145
0.273304
0.273187
0.272797
0.272135
0.271201
0.269994
0.268514
0.26676
0.264731
0.296918
0.297104
0.297013
0.29665
0.296012
0.2951
0.29391
0.292441
0.29069
0.288655
0.316753
0.316962
0.316908
0.316591
0.316008
0.315158
0.314036
0.312636
0.310955
0.308984
0.334124
0.334358
0.33435
0.334098
0.333598
0.332847
0.331837
0.330562
0.329011
0.327175
0.349838
0.3501
0.350148
0.349981
0.349593
0.348979
0.34813
0.347035
0.345682
0.344055
0.364351
0.364647
0.364766
0.364706
0.364462
0.364027
0.363391
0.362541
0.361462
0.360133
0.377912
0.37825
0.378457
0.378529
0.378464
0.378253
0.377888
0.377355
0.376636
0.375711
0.390629
0.391023
0.391336
0.391568
0.391715
0.391774
0.391738
0.391595
0.391331
0.390924
0.402527
0.40299
0.403427
0.40384
0.40423
0.404598
0.404941
0.405254
0.405528
0.405748
0.413576
0.414117
0.414689
0.415298
0.415951
0.416653
0.417408
0.418221
0.419091
0.420015
0.423715
0.424339
0.425049
0.425857
0.426775
0.427817
0.428994
0.430319
0.431806
0.433466
0.43288
0.433579
0.434418
0.435413
0.436582
0.437945
0.439524
0.441341
0.443423
0.445798
0.441005
0.441765
0.442711
0.443865
0.44525
0.446893
0.448822
0.451074
0.453685
0.456701
0.448042
0.448838
0.449859
0.45113
0.452678
0.454535
0.456736
0.459324
0.462349
0.465869
0.453962
0.454764
0.455819
0.457156
0.458802
0.460791
0.463162
0.46596
0.46924
0.473068
0.458763
0.459538
0.460587
0.461935
0.46361
0.465643
0.468072
0.470939
0.474297
0.478208
0.46247
0.46319
0.464195
0.465505
0.467146
0.469143
0.471528
0.474335
0.477604
0.481384
0.465133
0.465779
0.466712
0.467948
0.469507
0.471408
0.473674
0.47633
0.479403
0.482924
0.466823
0.467386
0.468233
0.469375
0.470825
0.472595
0.474701
0.477155
0.479974
0.483176
0.467626
0.468109
0.46887
0.469914
0.471249
0.472878
0.474809
0.477045
0.479591
0.48245
0.467633
0.468052
0.468741
0.469701
0.470931
0.472431
0.474198
0.476231
0.478523
0.481066
0.466939
0.467322
0.467965
0.468866
0.470017
0.471414
0.473049
0.474914
0.476995
0.47928
0.465644
0.466027
0.466659
0.467533
0.46864
0.46997
0.471512
0.473252
0.475175
0.477261
0.463851
0.464275
0.464936
0.465822
0.466923
0.468226
0.469716
0.471379
0.473194
0.47514
0.461672
0.462179
0.462908
0.463845
0.464979
0.466295
0.467777
0.469409
0.471169
0.473033
0.459222
0.459853
0.460687
0.461712
0.462916
0.464283
0.465798
0.467443
0.469197
0.471034
0.456626
0.457413
0.458384
0.459529
0.460834
0.462287
0.46387
0.465567
0.467357
0.469216
0.454005
0.454974
0.456107
0.457397
0.45883
0.460395
0.462076
0.463856
0.465716
0.467632
0.45148
0.452647
0.45396
0.455411
0.456991
0.458688
0.460488
0.462375
0.464331
0.466334
0.449163
0.450537
0.452039
0.453663
0.455401
0.457243
0.459177
0.461187
0.463257
0.465366
0.447156
0.448739
0.450433
0.452235
0.454137
0.456132
0.458208
0.460351
0.462547
0.464775
0.445552
0.44734
0.449224
0.451202
0.45327
0.455419
0.45764
0.459922
0.462249
0.464604
0.444432
0.446416
0.448484
0.450634
0.452862
0.455164
0.457529
0.459949
0.462409
0.464893
0.443867
0.446036
0.448277
0.450591
0.452974
0.455421
0.457927
0.46048
0.46307
0.465681
0.443918
0.44626
0.448664
0.45113
0.453659
0.456245
0.458882
0.461563
0.464275
0.467006
0.444641
0.447142
0.449696
0.452306
0.45497
0.457685
0.460446
0.463245
0.466071
0.468913
0.446086
0.448734
0.451428
0.454171
0.456962
0.459797
0.462672
0.46558
0.468511
0.471454
0.448301
0.451086
0.453912
0.45678
0.45969
0.462639
0.465621
0.468631
0.471657
0.47469
0.451336
0.454251
0.457202
0.460192
0.463218
0.466277
0.469363
0.472469
0.475585
0.4787
0.455241
0.458285
0.461362
0.464473
0.467617
0.470788
0.473979
0.477182
0.480386
0.483579
0.460073
0.463249
0.466459
0.4697
0.47297
0.476262
0.479566
0.482873
0.486171
0.489444
0.465893
0.469214
0.472571
0.475959
0.479372
0.482802
0.486237
0.489665
0.493068
0.496432
0.47277
0.476258
0.479785
0.483346
0.486931
0.490528
0.494123
0.497697
0.501232
0.504706
0.480778
0.484462
0.488196
0.491969
0.495767
0.499575
0.503372
0.507136
0.51084
0.514459
0.489986
0.493913
0.497903
0.501943
0.506014
0.510095
0.514157
0.518172
0.522105
0.52592
0.500459
0.50469
0.509007
0.51339
0.517815
0.522255
0.526674
0.531032
0.535283
0.539377
0.512244
0.516865
0.5216
0.526427
0.531318
0.536236
0.541139
0.545975
0.550682
0.555185
0.525373
0.530491
0.535763
0.541162
0.546657
0.552208
0.557764
0.563264
0.568626
0.573742
0.53985
0.545595
0.551543
0.557664
0.563924
0.570279
0.576675
0.583048
0.589319
0.59538
0.555643
0.562167
0.568951
0.575963
0.583161
0.590499
0.597919
0.605367
0.61281
0.620211
0.572683
0.580164
0.587976
0.596083
0.604435
0.612971
0.621619
0.630315
0.639014
0.647696
0.59085
0.599499
0.60858
0.618056
0.627874
0.637959
0.648208
0.658449
0.668358
0.675831
0.609952
0.620007
0.630636
0.641818
0.653525
0.665732
0.678402
0.691421
0.701878
0.704659
0.629699
0.641389
0.653831
0.667018
0.680957
0.695691
0.711329
0.725507
0.732967
0.733193
0.64971
0.663248
0.677739
0.693166
0.709486
0.726584
0.743261
0.756158
0.766404
0.768123
0.669531
0.685124
0.701959
0.720047
0.739384
0.759874
0.778164
0.790389
0.800271
0.804189
0.688618
0.706352
0.72567
0.746651
0.769353
0.793634
0.814
0.826235
0.836672
0.844382
0.706295
0.726113
0.747872
0.771724
0.797812
0.825986
0.848878
0.861652
0.873396
0.884335
0.721918
0.743565
0.767475
0.79388
0.823046
0.854988
0.880937
0.894224
0.906316
0.917829
0.73505
0.758105
0.783629
0.811905
0.843293
0.878054
0.908186
0.922732
0.934225
0.947938
0.745613
0.769601
0.796116
0.825411
0.857845
0.89382
0.926603
0.941296
0.948169
0.953598
0.753899
0.778487
0.805559
0.835256
0.867733
0.903056
0.938107
0.955911
0.959394
0.961069
0.760378
0.7855
0.813167
0.84348
0.876505
0.912185
0.949278
0.970711
0.97086
0.967623
0.765295
0.790969
0.819414
0.850779
0.885197
0.922745
0.963009
0.989503
0.986755
0.973883
0.768583
0.7947
0.823897
0.856411
0.892493
0.932459
0.976588
1.01259
1.01252
0.988781
0.770059
0.79632
0.82598
0.859335
0.896664
0.938225
0.984023
1.03094
1.04248
1.00928
0.769647
0.79564
0.825382
0.859283
0.897788
0.94142
0.990754
1.04582
1.0697
1.03455
0.767424
0.792576
0.821772
0.855486
0.894259
0.938767
0.989955
1.049
1.09525
1.07264
0.763696
0.787371
0.815318
0.847995
0.885873
0.929456
0.979288
1.03564
1.0952
1.10729
0.758929
0.780547
0.806728
0.837925
0.874601
0.917232
0.966347
1.02246
1.08528
1.11552
0.753539
0.772513
0.796458
0.825838
0.861118
0.902788
0.951428
1.00783
1.07268
1.11954
0.747777
0.763415
0.78459
0.81177
0.845401
0.88593
0.933816
0.989559
1.05315
1.11793
0.741771
0.753208
0.770962
0.795517
0.827334
0.866902
0.914791
0.971792
1.03887
1.11591
0.735701
0.7418
0.755236
0.776491
0.805991
0.844187
0.891622
0.949068
1.01758
1.09783
0.730009
0.729265
0.737165
0.754161
0.780574
0.816712
0.862973
0.920033
0.989059
1.07157
0.725545
0.715974
0.716716
0.728196
0.750567
0.783872
0.828177
0.8837
0.950872
1.02926
0.723667
0.702727
0.694225
0.698629
0.715925
0.745843
0.788052
0.842236
0.908026
0.983762
0.726214
0.690828
0.670485
0.665869
0.67686
0.70285
0.743069
0.796746
0.863146
0.941283
0.735084
0.681803
0.646529
0.630427
0.633438
0.654588
0.692524
0.745905
0.813602
0.895013
0.751494
0.676873
0.623339
0.592848
0.585759
0.60084
0.636
0.689056
0.758159
0.841771
0.77529
0.676469
0.601738
0.553999
0.534594
0.542456
0.574729
0.628062
0.699353
0.785722
0.804638
0.679758
0.582016
0.514883
0.481218
0.480961
0.510747
0.565665
0.640396
0.730747
0.835402
0.684089
0.563292
0.476
0.426731
0.417658
0.445752
0.504257
0.584731
0.680849
0.860396
0.685031
0.543407
0.437116
0.371923
0.353559
0.381046
0.445872
0.535576
0.640936
0.872432
0.677968
0.519691
0.397474
0.317447
0.289653
0.317656
0.391757
0.494642
0.613845
0.868089
0.659903
0.489791
0.356034
0.263891
0.227161
0.25654
0.342003
0.460923
0.598243
0.846939
0.629117
0.451774
0.311639
0.21183
0.16791
0.199168
0.295748
0.430653
0.588528
0.808128
0.583973
0.404178
0.263477
0.162014
0.114595
0.14792
0.251625
0.398344
0.576151
0.747572
0.522647
0.346666
0.211934
0.115726
0.070516
0.105585
0.208563
0.358653
0.550972
0.659002
0.445135
0.281515
0.15947
0.0750791
0.0384229
0.0735632
0.167107
0.309275
0.505365
0.550825
0.357676
0.213564
0.109936
0.0427489
0.0188212
0.0504249
0.127938
0.251281
0.43309
0.434276
0.269189
0.149796
0.0680152
0.0207081
0.00925682
0.0345972
0.0943189
0.191132
0.339221
0.320105
0.188664
0.0966864
0.0373856
0.00880163
0.0053084
0.0241735
0.0692854
0.140304
0.245746
0.220289
0.124458
0.0583445
0.0186851
0.00393381
0.00353646
0.0168916
0.0518891
0.105573
0.180855
0.146287
0.0809693
0.0341907
0.00906157
0.00234213
0.002533
0.0109991
0.0380756
0.0810718
0.135653
0.100894
0.0543498
0.01925
0.00449159
0.00186626
0.00196598
0.00599091
0.0245636
0.0609136
0.104904
0.0750507
0.0331763
0.00855962
0.00248621
0.00174185
0.00175358
0.00277811
0.0106642
0.0373033
0.0792612
0.0909095
0.0897849
0.088502
0.0870616
0.0854664
0.0837204
0.0818284
0.0797968
0.0776322
0.0753412
0.0729316
0.0704494
0.0680662
0.0656954
0.0633047
0.0608871
0.0584469
0.0559932
0.0535371
0.0510894
0.0486602
0.046258
0.0438898
0.041561
0.0392751
0.0370341
0.0348384
0.0326868
0.0305767
0.0285037
0.0264613
0.0244398
0.0224232
0.0203836
0.0182719
0.0159979
0.0133678
0.0104595
0.0071126
0.00348204
0.186791
0.18444
0.181822
0.178945
0.175818
0.17245
0.168857
0.165051
0.161051
0.156873
0.152533
0.14804
0.143406
0.138675
0.133872
0.129021
0.124143
0.119259
0.114386
0.109541
0.104739
0.0999912
0.095307
0.0906931
0.0861535
0.0816899
0.077301
0.0729834
0.0687302
0.0645318
0.0603738
0.0562356
0.0520856
0.0478725
0.0435096
0.0388574
0.0338488
0.0282774
0.021366
0.00942161
0.231899
0.229144
0.226079
0.222712
0.219052
0.215114
0.210914
0.206471
0.201806
0.19694
0.191896
0.186696
0.18135
0.17588
0.170307
0.164652
0.158936
0.153178
0.147398
0.141612
0.135839
0.130092
0.124385
0.118728
0.113129
0.107593
0.102123
0.0967168
0.0913696
0.0860719
0.0808086
0.0755567
0.0702816
0.0649308
0.0594259
0.0536552
0.0474622
0.0405072
0.0316358
0.0147542
0.262284
0.25936
0.256098
0.252503
0.248586
0.244359
0.23984
0.235049
0.230009
0.224745
0.219283
0.213647
0.207848
0.201907
0.195844
0.189681
0.183437
0.177133
0.170787
0.16442
0.158048
0.151687
0.145351
0.139051
0.132797
0.126596
0.120449
0.114358
0.108318
0.10232
0.0963503
0.0903849
0.0843897
0.0783128
0.0720742
0.0655452
0.0584929
0.0503929
0.0396283
0.018572
0.286186
0.283218
0.279887
0.276195
0.27215
0.26776
0.263043
0.258016
0.252704
0.247135
0.241337
0.23534
0.229155
0.222808
0.216324
0.209728
0.203041
0.196287
0.189488
0.182663
0.175829
0.169003
0.162199
0.155428
0.148697
0.142014
0.13538
0.128796
0.122255
0.115749
0.109262
0.10277
0.0962336
0.0895969
0.0827679
0.0755909
0.0677719
0.0586568
0.0463124
0.0220021
0.306578
0.303657
0.300351
0.296655
0.292568
0.288094
0.283243
0.278033
0.272488
0.266637
0.260515
0.254157
0.247583
0.240826
0.233918
0.226893
0.219779
0.212602
0.205387
0.198153
0.19092
0.183702
0.17651
0.169355
0.162243
0.155177
0.148158
0.141184
0.134247
0.127336
0.120431
0.113505
0.106515
0.0993948
0.0920393
0.0842683
0.0757422
0.0657115
0.0519788
0.0247634
0.324909
0.322124
0.318932
0.315318
0.311269
0.306777
0.301842
0.296477
0.290703
0.284555
0.278078
0.271311
0.264293
0.257074
0.249702
0.242217
0.234657
0.227053
0.219431
0.211809
0.204206
0.196633
0.189099
0.18161
0.17417
0.166778
0.159433
0.152128
0.144854
0.137594
0.130326
0.123017
0.115618
0.108055
0.100209
0.0918783
0.0826854
0.0718004
0.0567992
0.0270467
0.342017
0.33947
0.336498
0.333069
0.329153
0.324721
0.319755
0.314252
0.308229
0.301729
0.294815
0.287538
0.279976
0.272205
0.264293
0.256296
0.248257
0.240209
0.232176
0.224175
0.216218
0.208312
0.200462
0.19267
0.184934
0.17725
0.169612
0.16201
0.15443
0.146853
0.139252
0.131588
0.123807
0.115825
0.107511
0.0986464
0.0888195
0.0771322
0.0609704
0.0289877
0.358431
0.356249
0.353637
0.35054
0.346896
0.342645
0.337729
0.332111
0.325786
0.318812
0.311292
0.303336
0.295066
0.286608
0.278061
0.269491
0.26094
0.252433
0.243988
0.235613
0.227314
0.219091
0.210942
0.202864
0.19485
0.186893
0.178981
0.1711
0.163233
0.155357
0.147439
0.139437
0.13129
0.122905
0.114142
0.104764
0.0943318
0.0818875
0.0646524
0.0306556
0.374478
0.372828
0.370769
0.368219
0.365077
0.361219
0.356508
0.35082
0.344093
0.336417
0.327956
0.318994
0.309766
0.300464
0.2912
0.282021
0.272945
0.263981
0.25513
0.246392
0.237762
0.229232
0.220796
0.212443
0.204162
0.19594
0.187763
0.179613
0.171469
0.163302
0.155078
0.146748
0.138244
0.129469
0.120271
0.110397
0.0993833
0.0862183
0.0679755
0.0321154
0.390312
0.389398
0.388146
0.38645
0.384162
0.381072
0.376917
0.37139
0.364112
0.355134
0.344912
0.334408
0.324025
0.313831
0.303846
0.294065
0.284477
0.275068
0.265824
0.256733
0.247779
0.23895
0.230231
0.221607
0.213062
0.20458
0.196141
0.187725
0.179307
0.170854
0.162328
0.153675
0.144823
0.135666
0.126043
0.115687
0.10411
0.0902517
0.0710484
0.0334253
0.405904
0.405934
0.405765
0.405292
0.404356
0.402734
0.400087
0.395829
0.386743
0.373722
0.361247
0.349287
0.337832
0.326806
0.316144
0.305796
0.295719
0.285881
0.276254
0.266814
0.257541
0.248413
0.239412
0.230517
0.221708
0.212965
0.204264
0.195581
0.186888
0.178151
0.169325
0.160352
0.151156
0.141623
0.131583
0.120756
0.108629
0.0940947
0.0739619
0.0346348
0.421049
0.422186
0.423331
0.42443
0.425414
0.426206
0.426307
0.418675
0.404375
0.390232
0.376307
0.363324
0.35106
0.339363
0.328127
0.317276
0.306752
0.29651
0.286516
0.276739
0.267152
0.25773
0.248449
0.239284
0.230211
0.221206
0.212243
0.203295
0.194328
0.185306
0.176181
0.166891
0.157353
0.147448
0.136997
0.125705
0.113037
0.0978392
0.0767923
0.0358234
0.435424
0.437739
0.440298
0.443107
0.446193
0.449547
0.446727
0.432469
0.418126
0.403518
0.389502
0.376189
0.363511
0.351383
0.339727
0.328476
0.317574
0.306976
0.296647
0.286555
0.276672
0.266967
0.257414
0.247984
0.23865
0.229385
0.22016
0.210944
0.201704
0.192397
0.182973
0.173366
0.16349
0.153217
0.14236
0.130612
0.117412
0.101561
0.0796125
0.0370594
0.448661
0.452136
0.456087
0.460536
0.465456
0.469599
0.461583
0.445751
0.430887
0.415962
0.401758
0.388222
0.375283
0.36287
0.350917
0.339363
0.328158
0.317261
0.306643
0.296273
0.286122
0.276157
0.266347
0.256663
0.247075
0.237554
0.22807
0.218589
0.209075
0.199484
0.189763
0.179842
0.169629
0.158993
0.147736
0.135537
0.121815
0.10532
0.0824827
0.0383155
0.460391
0.464952
0.470264
0.476436
0.483571
0.486799
0.473621
0.45788
0.442485
0.427496
0.413201
0.399538
0.386441
0.373843
0.361685
0.349912
0.338475
0.327339
0.316484
0.305882
0.2955
0.285304
0.27526
0.265339
0.255509
0.245741
0.236004
0.226262
0.216479
0.206607
0.196592
0.18636
0.175814
0.164819
0.153167
0.140526
0.126289
0.109163
0.0854461
0.0396134
0.470211
0.47564
0.48205
0.489626
0.498559
0.500305
0.484666
0.468827
0.453197
0.438211
0.423892
0.410177
0.397
0.384298
0.372012
0.360087
0.34848
0.337171
0.32614
0.315358
0.304788
0.294393
0.284143
0.274005
0.26395
0.253949
0.24397
0.233977
0.223931
0.213786
0.203481
0.192944
0.182072
0.170723
0.158684
0.145608
0.130868
0.113119
0.0885294
0.0409712
0.477805
0.483754
0.490823
0.49924
0.509237
0.511
0.494796
0.478749
0.463052
0.448086
0.433797
0.420103
0.406927
0.394195
0.381844
0.369828
0.358125
0.346714
0.335571
0.324661
0.313945
0.303389
0.292963
0.282635
0.272379
0.262164
0.251959
0.241728
0.231432
0.221022
0.210439
0.199604
0.188414
0.17672
0.164302
0.150801
0.135566
0.117206
0.0917452
0.0423994
0.483034
0.489082
0.496269
0.504899
0.51545
0.519152
0.5035
0.48744
0.4718
0.456948
0.442781
0.429195
0.416096
0.403409
0.391082
0.379074
0.367363
0.355927
0.344734
0.333747
0.322929
0.312251
0.301684
0.291198
0.280767
0.270361
0.259951
0.249501
0.23897
0.228311
0.21746
0.206339
0.194841
0.182812
0.170025
0.156108
0.140388
0.121425
0.0950945
0.0439012
0.485997
0.491677
0.498245
0.505782
0.514263
0.521296
0.510551
0.494373
0.479072
0.464545
0.450666
0.437319
0.424415
0.411887
0.399685
0.387779
0.376145
0.364755
0.353573
0.342563
0.331695
0.32094
0.310271
0.299662
0.289085
0.278516
0.267924
0.257276
0.24653
0.235637
0.224534
0.213141
0.201346
0.188994
0.175848
0.161525
0.14533
0.12577
0.0985687
0.0454745
0.487174
0.492326
0.498173
0.504729
0.511931
0.519441
0.514063
0.499103
0.484689
0.470823
0.457449
0.444503
0.431923
0.41966
0.407679
0.395958
0.384469
0.37318
0.362059
0.351074
0.3402
0.32941
0.318679
0.307984
0.2973
0.286601
0.275858
0.265036
0.254095
0.242985
0.231647
0.219996
0.207919
0.195254
0.18176
0.16704
0.150376
0.130224
0.10215
0.0471116
0.487001
0.491587
0.496746
0.502539
0.50909
0.516655
0.51557
0.502493
0.489145
0.476077
0.463332
0.450891
0.438727
0.42681
0.415122
0.403644
0.392347
0.381204
0.370187
0.35927
0.34843
0.337643
0.326888
0.316141
0.305381
0.294581
0.283714
0.272746
0.261637
0.250338
0.238784
0.226892
0.214546
0.20158
0.187747
0.172638
0.155511
0.134767
0.10581
0.0487946
0.48582
0.489782
0.494127
0.498826
0.503805
0.50884
0.512629
0.505487
0.492933
0.480618
0.468531
0.456648
0.444953
0.433432
0.422078
0.410877
0.399806
0.388844
0.377967
0.367154
0.356383
0.345634
0.334887
0.324121
0.313313
0.302441
0.291476
0.280386
0.269131
0.257661
0.245912
0.233798
0.221201
0.207952
0.193795
0.178307
0.160722
0.139385
0.109537
0.0505207
0.484023
0.487433
0.491088
0.49493
0.498866
0.502739
0.506162
0.504955
0.49562
0.484506
0.47321
0.461931
0.450727
0.43962
0.428616
0.41771
0.406888
0.396132
0.385423
0.374742
0.364069
0.353387
0.342677
0.331919
0.321091
0.310172
0.299133
0.287943
0.276563
0.264941
0.253014
0.240693
0.22786
0.214339
0.199867
0.18401
0.165978
0.144062
0.113336
0.0523278
0.481902
0.484878
0.488009
0.491236
0.49448
0.497635
0.500576
0.502958
0.499068
0.488661
0.477782
0.466933
0.456151
0.445436
0.434782
0.424184
0.413628
0.403099
0.39258
0.382054
0.371505
0.360915
0.350265
0.339539
0.328714
0.31777
0.306678
0.295409
0.283921
0.272165
0.260074
0.247561
0.234503
0.220721
0.205944
0.189726
0.17125
0.148755
0.117144
0.0541818
0.479625
0.482267
0.484999
0.487758
0.490467
0.493024
0.495311
0.49716
0.497854
0.492117
0.481817
0.471432
0.461108
0.450821
0.440554
0.430297
0.420037
0.409762
0.399459
0.389113
0.378709
0.368232
0.357665
0.34699
0.336188
0.325237
0.31411
0.302777
0.291198
0.279321
0.267081
0.254387
0.241114
0.22708
0.212006
0.195433
0.176519
0.153446
0.12095
0.0560557
0.477317
0.479712
0.482144
0.484548
0.486848
0.488948
0.490731
0.492066
0.492727
0.491542
0.484839
0.475286
0.465565
0.455789
0.445963
0.436087
0.426155
0.416161
0.406097
0.395951
0.385712
0.375365
0.364896
0.354289
0.343524
0.332581
0.321433
0.310049
0.298389
0.286403
0.274023
0.261158
0.247679
0.2334
0.218034
0.20111
0.181762
0.158113
0.124739
0.0579315
0.475094
0.477329
0.479565
0.481738
0.483777
0.485596
0.4871
0.488182
0.488731
0.488502
0.485851
0.478685
0.469728
0.460502
0.451138
0.441658
0.432067
0.422367
0.412553
0.402618
0.392554
0.382348
0.371987
0.361457
0.350739
0.339813
0.328652
0.317226
0.305495
0.293406
0.280893
0.267862
0.254182
0.239662
0.224009
0.206738
0.186958
0.162739
0.128491
0.0598004
0.473046
0.475204
0.477339
0.479393
0.481299
0.48298
0.484357
0.48534
0.485832
0.485733
0.484775
0.481147
0.473748
0.46511
0.456197
0.447108
0.437856
0.42845
0.418888
0.409167
0.39928
0.389218
0.37897
0.36852
0.357854
0.346948
0.335779
0.324315
0.312515
0.300328
0.287684
0.274489
0.26061
0.245851
0.229913
0.212298
0.192089
0.167304
0.132195
0.0616586
0.471234
0.473383
0.475495
0.477515
0.479383
0.481028
0.482378
0.483352
0.483864
0.483819
0.483126
0.481485
0.47713
0.469612
0.461185
0.452483
0.443571
0.434458
0.425147
0.415639
0.405928
0.396009
0.385871
0.375502
0.364886
0.354002
0.342824
0.331321
0.319453
0.307166
0.29439
0.28103
0.26695
0.251952
0.235727
0.217767
0.197133
0.171789
0.135835
0.0634991
0.469701
0.471892
0.474037
0.476086
0.47798
0.479656
0.481045
0.482073
0.482659
0.482716
0.482158
0.480898
0.478609
0.473651
0.466076
0.457799
0.449231
0.440415
0.431356
0.422059
0.412522
0.402743
0.392714
0.382422
0.371853
0.360987
0.349797
0.338251
0.32631
0.313918
0.301006
0.287475
0.273189
0.257945
0.24143
0.223123
0.202065
0.17617
0.139391
0.0653323
0.468485
0.470755
0.472973
0.475092
0.477056
0.478808
0.48028
0.481403
0.482103
0.482302
0.481916
0.480869
0.479073
0.476146
0.470678
0.463057
0.454847
0.446327
0.437523
0.428439
0.419077
0.409438
0.399514
0.389296
0.378769
0.367914
0.356705
0.345109
0.333086
0.320582
0.307524
0.293814
0.279313
0.263815
0.247001
0.228341
0.206854
0.18041
0.14283
0.0671803
0.467624
0.469999
0.472318
0.474536
0.476602
0.478457
0.48004
0.481285
0.482122
0.482476
0.482273
0.481435
0.479894
0.477552
0.473963
0.468
0.46034
0.452158
0.443632
0.434778
0.4256
0.416104
0.406285
0.396137
0.385646
0.374794
0.363555
0.351898
0.339781
0.327151
0.313934
0.300032
0.285303
0.26954
0.252416
0.233391
0.211464
0.184456
0.146052
0.0687592
0.467155
0.469654
0.472095
0.474435
0.476623
0.478606
0.480324
0.481713
0.482704
0.483228
0.483211
0.482581
0.481266
0.479204
0.476291
0.472046
0.465667
0.457942
0.449718
0.441106
0.43212
0.422767
0.41305
0.402964
0.392498
0.381635
0.370352
0.358617
0.34639
0.333617
0.320224
0.306113
0.291141
0.275095
0.257648
0.238247
0.215871
0.188297
0.149079
0.0702131
0.467115
0.46975
0.472327
0.474804
0.477134
0.479266
0.481141
0.482699
0.483872
0.484593
0.484792
0.4844
0.483347
0.481569
0.479015
0.475563
0.470626
0.463779
0.45589
0.447505
0.438696
0.429473
0.419841
0.409799
0.399339
0.388445
0.377097
0.365263
0.352903
0.339965
0.326375
0.312034
0.296798
0.280455
0.262669
0.242881
0.220052
0.191919
0.151918
0.0715824
0.467539
0.470315
0.473035
0.475659
0.478142
0.480435
0.482484
0.484228
0.485605
0.486547
0.486985
0.486851
0.486077
0.484596
0.482343
0.47926
0.475177
0.469484
0.462165
0.454017
0.445366
0.436252
0.426681
0.416657
0.406176
0.395224
0.383782
0.371821
0.359303
0.346173
0.332361
0.317767
0.302246
0.285585
0.267446
0.247262
0.223977
0.195294
0.154545
0.0728469
0.468459
0.471376
0.474238
0.477009
0.479648
0.482106
0.484333
0.48627
0.487856
0.489024
0.489707
0.489834
0.489335
0.488142
0.486187
0.483405
0.479726
0.474906
0.46844
0.460631
0.452131
0.443103
0.433568
0.423533
0.412998
0.401955
0.390387
0.378268
0.365559
0.352209
0.338147
0.323275
0.307447
0.29045
0.271942
0.25135
0.227606
0.198379
0.156911
0.0739443
0.46991
0.47296
0.475959
0.478871
0.481657
0.484275
0.486672
0.488795
0.490583
0.491971
0.492889
0.493265
0.493026
0.4921
0.490416
0.487904
0.484506
0.48013
0.474458
0.467234
0.45893
0.449981
0.440464
0.430392
0.419772
0.408603
0.396874
0.38456
0.371628
0.358027
0.343688
0.328512
0.312357
0.295005
0.276114
0.255105
0.230898
0.201132
0.158966
0.0748077
0.471933
0.475105
0.478226
0.481266
0.484187
0.486948
0.489502
0.491796
0.493771
0.495362
0.496501
0.497113
0.497121
0.49645
0.495025
0.492776
0.489632
0.48554
0.480379
0.473757
0.465743
0.45687
0.447344
0.4372
0.426455
0.415119
0.403187
0.390642
0.377452
0.363569
0.348926
0.333424
0.316922
0.299203
0.27992
0.258488
0.233816
0.203518
0.160683
0.0754381
0.474577
0.477855
0.481083
0.484232
0.487267
0.490149
0.492836
0.495276
0.497415
0.499189
0.500528
0.501359
0.501602
0.501176
0.500003
0.498008
0.495122
0.491284
0.486421
0.480283
0.472622
0.463807
0.454215
0.443938
0.433007
0.421446
0.409261
0.39644
0.382956
0.368762
0.353791
0.337948
0.321088
0.302993
0.283315
0.261464
0.236336
0.205522
0.162058
0.0758721
0.477904
0.481273
0.484588
0.487823
0.490945
0.49392
0.496707
0.49926
0.501527
0.503448
0.504955
0.505975
0.506427
0.506225
0.505287
0.503536
0.500899
0.497299
0.492663
0.486878
0.479549
0.470758
0.461023
0.450531
0.439338
0.427484
0.41499
0.401851
0.38804
0.373513
0.358202
0.34201
0.324792
0.306327
0.286264
0.264008
0.238443
0.207138
0.163063
0.0761407
0.481993
0.485438
0.48882
0.492116
0.495296
0.498328
0.501174
0.503794
0.506139
0.508155
0.509778
0.510938
0.511553
0.511533
0.510791
0.509255
0.506856
0.503513
0.499123
0.493594
0.486585
0.477788
0.467762
0.456918
0.445349
0.433115
0.420248
0.406748
0.392587
0.377716
0.362066
0.345535
0.327975
0.309157
0.288733
0.2661
0.240133
0.208385
0.163816
0.0763503
0.486945
0.490451
0.493883
0.497214
0.500419
0.503468
0.506326
0.508956
0.511316
0.513357
0.515022
0.516246
0.516947
0.517026
0.5164
0.515016
0.512834
0.50977
0.505682
0.500432
0.493659
0.484694
0.474191
0.462849
0.4508
0.438116
0.424839
0.410963
0.396452
0.381246
0.365279
0.348444
0.330586
0.311473
0.290744
0.267786
0.241465
0.209319
0.164288
0.0764127
0.49288
0.496441
0.499906
0.503251
0.506448
0.50947
0.512286
0.514862
0.517161
0.51914
0.52075
0.521929
0.522601
0.522667
0.522043
0.520737
0.518764
0.516033
0.512342
0.507454
0.500797
0.491266
0.479997
0.467982
0.455368
0.442209
0.428522
0.4143
0.399488
0.384015
0.367796
0.350717
0.332617
0.313263
0.292284
0.269059
0.242441
0.209955
0.164535
0.0763362
0.499944
0.503558
0.507047
0.510385
0.513543
0.516493
0.519207
0.521653
0.523799
0.525603
0.52702
0.528002
0.528513
0.528433
0.527629
0.526292
0.524545
0.522212
0.518999
0.514539
0.507902
0.497187
0.484791
0.471955
0.458751
0.445162
0.431152
0.416663
0.401622
0.385949
0.369546
0.352293
0.334025
0.314501
0.293343
0.269924
0.243083
0.210334
0.164605
0.0761541
0.50831
0.511984
0.515493
0.518806
0.521893
0.524722
0.527264
0.52949
0.531365
0.532848
0.533906
0.53453
0.534643
0.533946
0.532732
0.53143
0.529992
0.528183
0.52565
0.521655
0.514181
0.501435
0.487999
0.474473
0.460796
0.446881
0.432638
0.417972
0.402789
0.386995
0.370489
0.353144
0.334789
0.315178
0.293928
0.270403
0.243434
0.210521
0.16459
0.0759282
0.518181
0.521934
0.525465
0.52874
0.53172
0.534368
0.53665
0.53853
0.539978
0.540978
0.541495
0.541424
0.540257
0.538553
0.537056
0.53581
0.534751
0.533766
0.532613
0.529336
0.516884
0.503034
0.489074
0.475244
0.461364
0.447305
0.432953
0.418207
0.402971
0.387145
0.37062
0.353266
0.334911
0.315303
0.294056
0.270527
0.243542
0.21059
0.164589
0.0757317
0.529807
0.53367
0.53724
0.540472
0.543315
0.545717
0.547626
0.549002
0.549843
0.550135
0.549524
0.547309
0.544538
0.54215
0.540222
0.538754
0.537684
0.536831
0.53366
0.525302
0.513124
0.500744
0.487507
0.474049
0.460386
0.446458
0.432163
0.417432
0.402206
0.386414
0.369949
0.352673
0.334404
0.314891
0.293745
0.270323
0.243446
0.2106
0.164684
0.0756354
0.543503
0.547536
0.551186
0.554404
0.557123
0.559258
0.560726
0.561437
0.561289
0.559695
0.555935
0.55164
0.547826
0.544571
0.541892
0.539816
0.537465
0.53307
0.525585
0.516486
0.506444
0.495347
0.483437
0.471022
0.458088
0.444573
0.430465
0.415785
0.400589
0.384864
0.36851
0.351379
0.333277
0.313945
0.292995
0.269788
0.243149
0.210564
0.164906
0.0756837
0.559664
0.563946
0.567739
0.571021
0.573721
0.575728
0.57685
0.576622
0.573292
0.566966
0.560492
0.55478
0.549831
0.545569
0.541661
0.537527
0.53195
0.525053
0.517291
0.508679
0.499279
0.489144
0.478347
0.466933
0.454832
0.441845
0.427919
0.41323
0.398062
0.382467
0.366304
0.349379
0.331504
0.312423
0.291752
0.268857
0.242578
0.210407
0.165189
0.0758608
0.578765
0.58339
0.587366
0.590788
0.593661
0.595826
0.596764
0.590815
0.580424
0.571013
0.562937
0.556027
0.55012
0.544221
0.537935
0.531507
0.52499
0.518083
0.510493
0.502089
0.492946
0.483246
0.473036
0.462038
0.450124
0.437124
0.423258
0.408953
0.394208
0.378995
0.363272
0.346633
0.329013
0.310214
0.289871
0.267367
0.241552
0.209929
0.165322
0.0760754
0.601355
0.606534
0.610575
0.613996
0.616923
0.617193
0.607473
0.594017
0.582056
0.571626
0.562642
0.555048
0.547427
0.539378
0.532044
0.525315
0.51873
0.511847
0.504293
0.49587
0.486634
0.476742
0.466043
0.454331
0.441951
0.429185
0.416044
0.402505
0.38853
0.374061
0.359048
0.343063
0.325654
0.307097
0.287078
0.265011
0.239741
0.208773
0.164932
0.076545
0.627527
0.633443
0.637641