/*--------------------------------*- C++ -*----------------------------------*\
  =========                 |
  \\      /  F ield         | OpenFOAM: The Open Source CFD Toolbox
   \\    /   O peration     | Website:  https://openfoam.org
    \\  /    A nd           | Version:  8
     \\/     M anipulation  |
\*---------------------------------------------------------------------------*/
FoamFile
{
    version     2.0;
    format      ascii;
    class       volScalarField;
    location    "1.85";
    object      nut;
}
// * * * * * * * * * * * * * * * * * * * * * * * * * * * * * * * * * * * * * //

dimensions      [0 2 -1 0 0 0 0];

internalField   nonuniform List<scalar> 
9150
(
9.60031e-06
6.41999e-06
6.70288e-06
9.26935e-06
8.65794e-06
8.65799e-06
9.26922e-06
6.70291e-06
6.42017e-06
9.60032e-06
9.48743e-06
5.75299e-06
8.4611e-06
1.0456e-05
8.0757e-06
8.07577e-06
1.04561e-05
8.46123e-06
5.75313e-06
9.48744e-06
9.29571e-06
5.51507e-06
1.10425e-05
1.0845e-05
7.70437e-06
7.70443e-06
1.08451e-05
1.10428e-05
5.51519e-06
9.29572e-06
9.08016e-06
5.43605e-06
1.36928e-05
1.08476e-05
7.50925e-06
7.50933e-06
1.08477e-05
1.36931e-05
5.43614e-06
9.08016e-06
8.84537e-06
5.41819e-06
1.59714e-05
1.07571e-05
7.41109e-06
7.41118e-06
1.07573e-05
1.59716e-05
5.41828e-06
8.84537e-06
5.91545e-06
1.14604e-05
1.44785e-05
1.87564e-05
1.88642e-05
1.88657e-05
1.87574e-05
1.44787e-05
1.14615e-05
5.91554e-06
6.28009e-06
8.92897e-06
1.17621e-05
1.64103e-05
1.6357e-05
1.63577e-05
1.641e-05
1.17613e-05
8.92902e-06
6.28009e-06
6.82913e-06
7.94143e-06
9.66371e-06
1.39672e-05
1.37779e-05
1.37782e-05
1.39663e-05
9.66288e-06
7.94162e-06
6.82914e-06
7.3865e-06
7.32504e-06
8.18005e-06
1.18953e-05
1.16013e-05
1.16013e-05
1.18944e-05
8.17954e-06
7.32526e-06
7.38651e-06
8.07476e-06
6.8674e-06
7.21421e-06
1.0266e-05
9.84288e-06
9.84286e-06
1.02654e-05
7.21404e-06
6.86761e-06
8.07478e-06
1.35935e-05
1.76716e-05
1.38782e-05
1.69742e-05
1.95887e-05
1.95878e-05
1.7008e-05
1.44492e-05
2.01695e-05
1.41215e-05
7.89877e-06
1.09765e-05
1.30175e-05
1.70733e-05
1.96882e-05
1.96888e-05
1.70733e-05
1.30279e-05
1.09977e-05
7.90788e-06
7.46433e-06
1.03364e-05
1.30647e-05
1.72391e-05
1.97967e-05
1.97981e-05
1.72411e-05
1.30666e-05
1.03337e-05
7.46474e-06
7.0353e-06
9.94646e-06
1.30979e-05
1.73764e-05
1.98911e-05
1.98932e-05
1.73787e-05
1.3099e-05
9.94643e-06
7.03548e-06
6.51179e-06
1.02056e-05
1.31149e-05
1.75888e-05
1.98174e-05
1.98196e-05
1.75912e-05
1.31158e-05
1.02067e-05
6.51191e-06
6.82829e-05
6.83428e-05
6.83683e-05
6.83559e-05
6.83035e-05
6.82098e-05
6.80739e-05
6.78948e-05
6.76712e-05
6.74005e-05
0.00064918
0.000649152
0.000648492
0.00064725
0.000645454
0.000643121
0.000640258
0.00063687
0.000632957
0.000628523
0.00126367
0.0012644
0.00126392
0.00126227
0.00125948
0.00125555
0.00125051
0.00124433
0.00123703
0.0012286
0.00177172
0.0017734
0.00177347
0.00177195
0.00176884
0.00176416
0.00175789
0.00175004
0.00174058
0.0017295
0.00218445
0.00218713
0.00218791
0.0021868
0.0021838
0.00217891
0.00217211
0.00216338
0.0021527
0.00214006
0.00252007
0.00252374
0.00252532
0.0025248
0.00252217
0.00251742
0.00251054
0.00250149
0.00249026
0.00247681
0.0027942
0.00279882
0.00280121
0.00280137
0.00279927
0.0027949
0.00278823
0.00277924
0.00276789
0.00275417
0.00301946
0.00302496
0.00302815
0.00302901
0.00302752
0.00302365
0.00301738
0.00300868
0.00299751
0.00298386
0.00320592
0.00321223
0.00321618
0.00321773
0.00321686
0.00321355
0.00320777
0.0031995
0.0031887
0.00317535
0.00336157
0.0033686
0.00337324
0.00337544
0.00337519
0.00337245
0.0033672
0.00335943
0.0033491
0.00333619
0.00349264
0.00350032
0.00350558
0.00350838
0.0035087
0.00350652
0.00350181
0.00349457
0.00348477
0.00347242
0.00360399
0.00361222
0.00361803
0.00362137
0.00362222
0.00362055
0.00361637
0.00360966
0.00360043
0.0035887
0.0036993
0.00370802
0.00371431
0.00371813
0.00371944
0.00371825
0.00371455
0.00370835
0.00369969
0.00368859
0.00378139
0.00379054
0.00379725
0.00380147
0.00380319
0.00380241
0.00379914
0.00379341
0.00378527
0.0037748
0.00385244
0.00386194
0.00386899
0.00387355
0.00387561
0.00387517
0.00387226
0.00386694
0.00385927
0.00384936
0.0039141
0.00392388
0.0039312
0.00393602
0.00393834
0.00393817
0.00393555
0.00393055
0.00392328
0.00391385
0.00396769
0.00397766
0.00398517
0.00399016
0.00399266
0.00399267
0.00399025
0.0039855
0.00397852
0.00396947
0.00401429
0.00402437
0.00403196
0.00403704
0.0040396
0.00403969
0.00403737
0.00403274
0.00402593
0.00401713
0.00405484
0.00406493
0.0040725
0.00407753
0.00408005
0.0040801
0.00407776
0.00407312
0.00406634
0.0040576
0.00409015
0.00410013
0.00410757
0.00411245
0.00411481
0.00411469
0.00411219
0.00410741
0.0041005
0.00409163
0.00412098
0.00413074
0.00413792
0.00414253
0.00414459
0.00414418
0.00414139
0.00413632
0.00412914
0.00411999
0.00414801
0.00415743
0.00416424
0.00416844
0.00417009
0.00416926
0.00416605
0.00416057
0.00415298
0.00414342
0.00417187
0.00418084
0.00418715
0.00419084
0.00419195
0.00419058
0.00418684
0.00418084
0.00417272
0.00416264
0.00419316
0.00420155
0.00420725
0.0042103
0.00421077
0.00420875
0.00420437
0.00419775
0.00418902
0.00417834
0.00421238
0.00422006
0.00422504
0.00422735
0.00422707
0.00422431
0.00421921
0.00421188
0.00420247
0.00419112
0.00422994
0.00423681
0.00424095
0.00424241
0.00424129
0.00423771
0.0042318
0.0042237
0.00421356
0.0042015
0.00424617
0.00425212
0.00425532
0.00425584
0.0042538
0.00424932
0.00424254
0.0042336
0.00422266
0.00420985
0.00426131
0.00426622
0.00426839
0.00426789
0.00426486
0.00425941
0.00425171
0.00424189
0.0042301
0.00421649
0.00427546
0.00427925
0.00428032
0.00427874
0.00427466
0.00426821
0.00425955
0.00424882
0.00423616
0.00422173
0.00428864
0.00429125
0.00429116
0.00428848
0.00428333
0.00427587
0.00426624
0.00425459
0.00424107
0.00422582
0.00430078
0.00430218
0.00430093
0.00429713
0.00429093
0.00428247
0.0042719
0.00425937
0.00424502
0.00422898
0.00431172
0.00431193
0.00430955
0.00430469
0.00429749
0.0042881
0.00427665
0.0042633
0.00424817
0.00423141
0.00432126
0.00432035
0.00431692
0.00431109
0.004303
0.00429277
0.00428055
0.00426647
0.00425067
0.00423327
0.00432919
0.00432727
0.00432293
0.00431626
0.0043074
0.00429648
0.00428362
0.00426895
0.00425261
0.00423469
0.00433524
0.00433249
0.0043274
0.00432008
0.00431063
0.0042992
0.00428588
0.00427079
0.00425406
0.00423577
0.0043392
0.00433582
0.0043302
0.00432243
0.00431262
0.00430088
0.0042873
0.004272
0.00425507
0.00423659
0.00434086
0.00433709
0.00433117
0.00432321
0.00431327
0.00430146
0.00428787
0.00427257
0.00425566
0.0042372
0.00434006
0.00433616
0.00433022
0.00432231
0.00431251
0.00430089
0.00428752
0.00427247
0.00425581
0.00423759
0.00433671
0.00433296
0.00432726
0.00431968
0.00431027
0.00429909
0.0042862
0.00427164
0.00425547
0.00423773
0.00433082
0.00432747
0.00432228
0.00431528
0.00430651
0.00429603
0.00428386
0.00427004
0.0042546
0.00423756
0.00432246
0.00431976
0.00431531
0.00430913
0.00430125
0.00429169
0.00428048
0.00426762
0.00425313
0.00423701
0.00431181
0.00430997
0.00430647
0.00430131
0.00429452
0.00428609
0.00427604
0.00426435
0.00425102
0.00423603
0.00429911
0.00429831
0.00429593
0.00429197
0.00428644
0.00427931
0.00427059
0.00426024
0.00424825
0.00423458
0.00428472
0.00428508
0.00428395
0.00428131
0.00427716
0.00427147
0.00426422
0.00425537
0.00424487
0.00423267
0.00426901
0.00427061
0.00427081
0.00426958
0.0042669
0.00426275
0.00425708
0.00424983
0.00424096
0.00423037
0.0042524
0.00425528
0.00425685
0.00425707
0.00425593
0.00425338
0.00424936
0.00424382
0.00423667
0.00422782
0.00423531
0.00423945
0.00424239
0.00424408
0.00424451
0.00424361
0.00424132
0.00423756
0.00423224
0.00422522
0.00421806
0.00422344
0.00422773
0.0042309
0.00423292
0.00423372
0.00423323
0.00423135
0.00422796
0.00422291
0.0042009
0.00420747
0.00421309
0.00421775
0.00422141
0.004224
0.00422541
0.00422555
0.00422425
0.00422135
0.00418391
0.00419162
0.00419859
0.00420479
0.00421017
0.00421467
0.00421818
0.00422055
0.00422162
0.00422114
0.00416699
0.00417585
0.00418419
0.00419201
0.00419926
0.00420588
0.00421176
0.00421673
0.00422058
0.00422302
0.00414988
0.00415991
0.00416969
0.00417924
0.00418854
0.00419753
0.00420612
0.00421415
0.00422138
0.00422753
0.00413219
0.00414344
0.00415474
0.00416615
0.00417766
0.00418927
0.00420091
0.00421246
0.00422377
0.00423461
0.00411346
0.00412602
0.00413895
0.00415234
0.00416624
0.00418066
0.0041956
0.00421099
0.00422677
0.0042427
0.00409322
0.00410726
0.004122
0.00413757
0.00415406
0.00417153
0.00418999
0.00420941
0.00422959
0.00424762
0.00407105
0.00408681
0.00410363
0.00412168
0.00414114
0.00416214
0.00418485
0.00420939
0.00423226
0.00424718
0.00404649
0.00406429
0.00408347
0.00410427
0.00412696
0.00415181
0.00417914
0.00420625
0.00422657
0.00423868
0.00401911
0.00403928
0.0040611
0.0040848
0.00411061
0.00413874
0.00416832
0.0041946
0.00421624
0.00422807
0.00398846
0.00401149
0.00403643
0.0040635
0.00409296
0.00412501
0.00415692
0.00418264
0.00420282
0.00421406
0.00395378
0.00398025
0.0040089
0.00403993
0.0040736
0.00411005
0.00414462
0.0041704
0.00418958
0.00420109
0.00391399
0.00394434
0.00397716
0.00401265
0.00405105
0.00409239
0.00413041
0.00415741
0.004177
0.00418902
0.00386761
0.00390204
0.00393926
0.00397943
0.00402281
0.00406944
0.00411189
0.00414118
0.00416177
0.00417359
0.00381296
0.00385133
0.00389274
0.00393736
0.00398541
0.00403701
0.00408529
0.00411862
0.00414119
0.00415528
0.00374868
0.00379043
0.00383535
0.00388358
0.00393533
0.00399078
0.00404415
0.00408198
0.00410652
0.00411998
0.00367432
0.00371865
0.00376603
0.00381656
0.00387034
0.00392734
0.00398474
0.00402883
0.00405677
0.00407352
0.00359072
0.00363704
0.0036861
0.00373798
0.00379283
0.00385073
0.00391077
0.00396049
0.00399164
0.00401161
0.00349948
0.00354769
0.00359821
0.00365114
0.00370669
0.00376518
0.00382671
0.00388016
0.00391261
0.00393164
0.00340201
0.00345245
0.00350472
0.00355885
0.00361507
0.00367387
0.00373587
0.00379282
0.00382664
0.00384074
0.0032989
0.00335222
0.00340685
0.00346268
0.00351982
0.00357861
0.00363941
0.00370034
0.00373934
0.00374816
0.00318998
0.00324701
0.00330494
0.0033635
0.00342269
0.00348286
0.00354467
0.00360863
0.00365211
0.00365924
0.00307445
0.00313592
0.0031981
0.00326047
0.00332289
0.00338559
0.00344927
0.00351499
0.00356912
0.00358124
0.00295136
0.00301765
0.00308467
0.00315159
0.00321798
0.0032838
0.00334935
0.0034149
0.003478
0.00350887
0.00282028
0.00289135
0.00296351
0.00303552
0.00310662
0.00317654
0.00324546
0.00331386
0.00338177
0.00342583
0.00268154
0.00275695
0.00283427
0.00291175
0.00298823
0.00306314
0.00313659
0.00320921
0.00328187
0.00333872
0.00253599
0.00261483
0.00269697
0.00278005
0.00286232
0.0029428
0.0030213
0.00309827
0.00317422
0.00324527
0.00238487
0.00246565
0.00255189
0.00264045
0.00272885
0.00281556
0.00290012
0.00298304
0.00306547
0.00314801
0.00222973
0.00231024
0.00239924
0.00249276
0.00258733
0.00268063
0.00277175
0.00286105
0.00294986
0.00303959
0.00207288
0.00214989
0.00223949
0.00233677
0.00243706
0.00253692
0.00263472
0.00273052
0.00282576
0.00292255
0.00191785
0.00198696
0.00207381
0.00217279
0.00227776
0.00238375
0.00248797
0.00258984
0.00269034
0.00279051
0.00176972
0.00182532
0.00190471
0.00200217
0.0021101
0.00222156
0.00233213
0.00244023
0.00254623
0.00265052
0.00163464
0.00167041
0.00173619
0.00182737
0.00193543
0.00205115
0.00216796
0.00228294
0.00239588
0.0025074
0.00151862
0.00152852
0.00157351
0.00165187
0.00175546
0.00187294
0.00199504
0.00211712
0.00223816
0.00235867
0.00142563
0.0014054
0.00142267
0.0014804
0.00157302
0.001688
0.00181311
0.00194161
0.00207151
0.00220228
0.00135619
0.00130447
0.0012891
0.00131858
0.00139261
0.00149939
0.00162387
0.00175719
0.00189638
0.00203957
0.00130734
0.0012256
0.00117584
0.00117137
0.00121932
0.00131141
0.00143053
0.001566
0.00171405
0.00187169
0.00127334
0.00116495
0.00108231
0.00104133
0.00105707
0.00112816
0.0012369
0.00137142
0.00152749
0.00170034
0.00124635
0.00111598
0.00100456
0.000927956
0.000907804
0.000952751
0.00104729
0.00117933
0.00134348
0.00153136
0.00121902
0.00107159
0.000936788
0.000828399
0.000771536
0.000786954
0.000865927
0.000997602
0.00117208
0.0013745
0.0011866
0.00102599
0.000873113
0.000738498
0.000647016
0.000631453
0.000696576
0.000833727
0.00102166
0.00123751
0.00114626
0.000974766
0.000808202
0.000653591
0.000532398
0.000486901
0.00054311
0.000692393
0.000894236
0.00112066
0.00109491
0.000914098
0.000737535
0.000569252
0.000425812
0.000355182
0.000410501
0.000574358
0.00078553
0.00101784
0.00102895
0.000840915
0.000658084
0.000482402
0.000326068
0.000240471
0.000304357
0.000477222
0.000688895
0.000920979
0.000944953
0.000753898
0.000569452
0.000392658
0.000233768
0.000149203
0.000227505
0.000398314
0.000600326
0.000825868
0.00084599
0.000655978
0.000474479
0.000302634
0.000152555
8.72818e-05
0.000176618
0.000335681
0.000519534
0.000729131
0.000735966
0.000552799
0.00037956
0.000218293
8.89772e-05
5.43707e-05
0.000146221
0.000292902
0.000455335
0.000639949
0.000623635
0.000454781
0.000294231
0.000147588
4.89629e-05
4.04583e-05
0.000128919
0.000273114
0.000422683
0.000581554
0.000527628
0.00037833
0.000228222
9.62441e-05
3.05546e-05
3.33807e-05
0.000114253
0.00026802
0.000425152
0.000573177
0.000482443
0.000340045
0.000181854
6.21805e-05
2.37884e-05
2.7225e-05
9.13106e-05
0.000256786
0.000452331
0.00062737
0.000543605
0.000328975
0.00013462
3.74126e-05
2.07766e-05
2.20933e-05
5.55757e-05
0.0002012
0.000449772
0.000740111
0.000628805
0.000239415
6.27109e-05
2.10665e-05
1.96812e-05
1.98191e-05
2.43357e-05
8.52214e-05
0.00028785
0.000692165
6.70526e-05
6.66391e-05
6.61637e-05
6.56255e-05
6.5024e-05
6.43589e-05
6.36302e-05
6.28381e-05
6.19829e-05
6.10647e-05
6.00836e-05
5.90553e-05
5.80509e-05
5.70341e-05
5.59898e-05
5.49132e-05
5.38043e-05
5.26653e-05
5.14995e-05
5.03103e-05
4.91011e-05
4.78748e-05
4.66339e-05
4.53799e-05
4.41141e-05
4.28366e-05
4.15465e-05
4.02422e-05
3.89207e-05
3.75773e-05
3.62055e-05
3.47951e-05
3.33295e-05
3.17794e-05
3.00913e-05
2.8161e-05
2.57526e-05
2.27705e-05
1.8756e-05
7.3698e-06
0.000623263
0.000617053
0.000610181
0.000602664
0.000594522
0.000585781
0.000576473
0.000566634
0.000556298
0.000545477
0.000534103
0.000521862
0.000508146
0.000493694
0.00047891
0.000464072
0.00044937
0.000434934
0.000420845
0.000407148
0.000393861
0.000380982
0.000368492
0.000356359
0.000344545
0.000333001
0.000321677
0.000310515
0.000299451
0.00028841
0.000277296
0.000265961
0.000254153
0.000241401
0.000226767
0.0002084
0.000184384
0.000149372
9.24441e-05
1.21416e-05
0.00121843
0.00120625
0.00119264
0.0011776
0.00116117
0.0011434
0.00112434
0.00110406
0.00108264
0.00106013
0.00103655
0.00101181
0.000985649
0.000958438
0.000930563
0.000902365
0.00087413
0.000846083
0.000818397
0.000791195
0.000764551
0.000738501
0.000713048
0.000688162
0.000663788
0.000639846
0.000616231
0.000592806
0.0005694
0.000545782
0.000521626
0.000496457
0.000469534
0.00043969
0.000405054
0.000362689
0.000308125
0.000234298
0.00013156
1.52001e-05
0.001716
0.00169968
0.00168129
0.00166084
0.00163836
0.00161391
0.00158755
0.00155938
0.00152952
0.00149807
0.00146515
0.00143084
0.00139504
0.00135808
0.00132028
0.00128196
0.00124342
0.00120492
0.00116664
0.00112876
0.00109137
0.00105454
0.00101828
0.00098255
0.000947286
0.000912369
0.000877634
0.000842856
0.000807735
0.000771862
0.000734671
0.000695354
0.000652746
0.000605138
0.000550018
0.000483722
0.000400991
0.0002946
0.000157135
1.70544e-05
0.00212451
0.00210556
0.00208406
0.00206003
0.00203349
0.00200448
0.00197309
0.00193943
0.00190363
0.00186586
0.00182629
0.00178509
0.00174227
0.00169815
0.00165304
0.00160725
0.00156108
0.00151476
0.00146851
0.00142247
0.00137675
0.0013314
0.00128643
0.00124179
0.00119737
0.00115301
0.00110848
0.00106345
0.0010175
0.000970048
0.000920313
0.000867217
0.000809268
0.000744391
0.000669701
0.000581222
0.000473595
0.000340096
0.000175622
1.85662e-05
0.00246014
0.00243966
0.00241631
0.00239007
0.00236096
0.00232903
0.00229435
0.00225703
0.00221724
0.00217516
0.00213101
0.002085
0.00203722
0.00198799
0.00193763
0.00188645
0.00183473
0.00178267
0.00173047
0.00167827
0.00162613
0.00157409
0.00152213
0.00147016
0.00141802
0.00136551
0.00131231
0.00125802
0.00120208
0.00114378
0.00108215
0.00101593
0.000943395
0.000862265
0.000769489
0.000661049
0.0005318
0.000375781
0.000190015
1.96983e-05
0.00273702
0.00271581
0.00269148
0.00266403
0.00263345
0.00259977
0.00256306
0.00252344
0.00248106
0.00243616
0.00238897
0.00233966
0.00228844
0.00223566
0.00218164
0.00212666
0.00207098
0.00201478
0.00195821
0.00190136
0.00184428
0.00178696
0.00172933
0.00167126
0.00161255
0.00155292
0.00149201
0.0014293
0.00136416
0.00129575
0.00122299
0.00114446
0.00105833
0.000962218
0.000853044
0.000726902
0.000579002
0.000404189
0.000201303
2.05862e-05
0.00296667
0.00294527
0.0029206
0.00289263
0.00286136
0.00282678
0.00278895
0.00274798
0.00270401
0.00265729
0.0026081
0.00255656
0.00250303
0.00244786
0.00239137
0.00233382
0.00227539
0.00221625
0.0021565
0.00209616
0.00203525
0.00197371
0.00191142
0.00184821
0.00178382
0.00171792
0.00165007
0.00157971
0.00150611
0.00142835
0.00134526
0.00125536
0.00115675
0.00104702
0.000923183
0.000781507
0.000617612
0.000427113
0.000210348
2.13117e-05
0.00315841
0.00313719
0.00311262
0.00308465
0.00305325
0.00301839
0.00298009
0.00293841
0.0028935
0.00284561
0.00279502
0.002742
0.00268695
0.00263024
0.00257217
0.00251295
0.00245271
0.00239153
0.00232947
0.0022665
0.00220258
0.00213761
0.00207142
0.00200379
0.00193443
0.00186294
0.00178884
0.00171151
0.00163016
0.00154381
0.00145126
0.00135096
0.00124102
0.00111909
0.000982265
0.000827068
0.000649525
0.000445933
0.000217821
2.19156e-05
0.00331972
0.00329896
0.00327484
0.00324728
0.00321622
0.0031816
0.00314333
0.00310141
0.00305592
0.00300717
0.00295543
0.00290129
0.00284522
0.00278759
0.00272862
0.00266841
0.00260702
0.00254446
0.00248072
0.00241572
0.00234939
0.00228156
0.00221204
0.00214057
0.0020668
0.00199032
0.00191057
0.0018269
0.00173849
0.00164432
0.00154315
0.00143345
0.00131335
0.00118056
0.00103234
0.000865437
0.000676272
0.000461719
0.000224202
2.24306e-05
0.00345656
0.00343651
0.00341315
0.00338642
0.00335622
0.00332239
0.00328473
0.00324304
0.00319713
0.0031472
0.00309399
0.00303879
0.00298214
0.00292412
0.00286475
0.00280402
0.00274192
0.00267839
0.00261336
0.00254675
0.00247841
0.00240815
0.00233574
0.00226089
0.0021832
0.00210222
0.00201738
0.00192799
0.00183318
0.00173194
0.00162302
0.00150489
0.00137574
0.00123337
0.00107518
0.000898178
0.000699102
0.000475304
0.000229847
2.28826e-05
0.00357358
0.00355443
0.00353215
0.0035067
0.00347798
0.00344586
0.00341009
0.00337017
0.00332251
0.0032687
0.00321405
0.00315838
0.00310156
0.00304345
0.00298394
0.00292293
0.00286034
0.00279608
0.00273003
0.00266207
0.00259202
0.00251966
0.00244472
0.00236687
0.00228571
0.00220072
0.00211131
0.00201677
0.00191623
0.00180865
0.0016928
0.00156717
0.00143001
0.00127922
0.00111234
0.000926583
0.000718996
0.000487297
0.000234994
2.32921e-05
0.00367428
0.00365618
0.00363522
0.00361146
0.00358497
0.00355582
0.00352361
0.00348041
0.00342785
0.00337396
0.00331879
0.00326305
0.0032063
0.00314826
0.00308873
0.00302755
0.00296461
0.00289976
0.00283287
0.00276377
0.00269224
0.00261805
0.0025409
0.00246042
0.00237617
0.00228763
0.00219418
0.00209508
0.00198945
0.00187625
0.00175426
0.00162201
0.00147779
0.00131958
0.00114508
0.000951661
0.00073661
0.000497944
0.000239549
2.36879e-05
0.00376129
0.00374427
0.00372473
0.00370286
0.00367893
0.00365316
0.00361834
0.00356884
0.00351742
0.00346415
0.00340993
0.00335475
0.00329835
0.00324052
0.00318108
0.00311983
0.00305663
0.00299132
0.00292373
0.00285367
0.00278089
0.00270513
0.00262606
0.00254329
0.00245635
0.0023647
0.0022677
0.00216458
0.00205448
0.00193634
0.00180894
0.00167087
0.00152043
0.00135571
0.00117448
0.000974265
0.00075253
0.000507533
0.000243565
2.40926e-05
0.0038366
0.00382061
0.00380243
0.00378237
0.00376075
0.00373642
0.0036969
0.00364667
0.00359591
0.00354339
0.00348994
0.00343536
0.00337942
0.0033219
0.00326262
0.00320139
0.00313803
0.00307237
0.00300422
0.00293337
0.00285956
0.00278249
0.0027018
0.00261707
0.00252782
0.00243349
0.00233341
0.00222682
0.00211283
0.00199039
0.0018583
0.00171514
0.00155928
0.00138884
0.00120168
0.000995436
0.000767701
0.00051692
0.000247692
2.44971e-05
0.00390175
0.00388671
0.00386983
0.00385162
0.00383267
0.00380773
0.00376376
0.0037148
0.00366454
0.00361298
0.00356034
0.0035064
0.00345095
0.0033938
0.00333474
0.0032736
0.00321017
0.00314427
0.00307572
0.00300426
0.00292963
0.00285149
0.00276946
0.00268309
0.0025919
0.0024953
0.00239261
0.00228306
0.00216575
0.00203962
0.00190349
0.00175594
0.00159537
0.00141994
0.00122756
0.00101593
0.00078274
0.000526544
0.000252128
2.49083e-05
0.00395791
0.00394364
0.00392786
0.00391121
0.00389447
0.00386831
0.0038225
0.00377448
0.00372491
0.00367423
0.00362235
0.00356905
0.00351412
0.00345737
0.00339859
0.0033376
0.00327419
0.00320818
0.00313938
0.0030675
0.00299224
0.00291326
0.00283015
0.00274246
0.00264968
0.00255121
0.00244635
0.00233432
0.00221422
0.00208499
0.00194541
0.00179411
0.00162948
0.00144969
0.00125269
0.00103621
0.000797973
0.00053658
0.000256908
2.53315e-05
0.00400592
0.00399216
0.00397709
0.00396142
0.00394604
0.0039202
0.00387447
0.00382699
0.00377809
0.00372814
0.00367693
0.00362424
0.00356983
0.00351351
0.00345506
0.00339428
0.003331
0.00326502
0.00319611
0.00312397
0.00304828
0.00296868
0.00288475
0.00279604
0.002702
0.00260203
0.00249542
0.00238138
0.00225897
0.00212715
0.0019847
0.00183021
0.00166209
0.0014785
0.0012774
0.0010565
0.000813523
0.00054706
0.000262007
2.57692e-05
0.00404651
0.00403291
0.00401806
0.00400271
0.00398805
0.00396448
0.00391992
0.00387293
0.00382462
0.00377531
0.00372474
0.00367262
0.00361874
0.00356286
0.0035048
0.00344435
0.00338132
0.00331549
0.00324661
0.00317438
0.00309844
0.00301843
0.00293394
0.00284448
0.0027495
0.00264838
0.00254041
0.00242477
0.00230052
0.00216659
0.00202175
0.00186458
0.00169347
0.00150657
0.0013018
0.00107684
0.000829374
0.000557926
0.000267372
2.62215e-05
0.0040804
0.00406659
0.00405133
0.00403509
0.00401828
0.00399849
0.00395926
0.00391232
0.00386472
0.00381612
0.00376621
0.00371471
0.00366139
0.00360602
0.00354842
0.00348838
0.0034257
0.00336014
0.00329142
0.00321924
0.00314325
0.00306306
0.00297825
0.00288831
0.00279268
0.00269073
0.00258175
0.00246489
0.0023392
0.00220358
0.0020568
0.0018974
0.00172374
0.00153395
0.00132588
0.00109717
0.000845425
0.000569072
0.000272935
2.66868e-05
0.00410843
0.00409421
0.00407837
0.00406128
0.00404322
0.00402418
0.00399039
0.00394506
0.00389864
0.00385098
0.00380186
0.00375105
0.00369835
0.00364356
0.00358648
0.00352693
0.00346468
0.00339947
0.00333103
0.00325903
0.00318313
0.00310294
0.00301801
0.00292783
0.00283185
0.00272939
0.00261973
0.002502
0.00237522
0.00223829
0.00208995
0.00192872
0.0017529
0.00156057
0.00134953
0.00111735
0.00086152
0.000580359
0.000278618
2.71623e-05
0.00413141
0.00411665
0.00410017
0.00408234
0.0040636
0.00404462
0.00401528
0.00397233
0.00392723
0.00388057
0.00383228
0.0037822
0.00373016
0.00367599
0.0036195
0.00356049
0.00349872
0.00343394
0.00336586
0.00329417
0.0032185
0.00313846
0.00305359
0.00296338
0.00286724
0.00276452
0.00265445
0.00253615
0.00240865
0.00227078
0.00212125
0.00195853
0.00178089
0.00158632
0.00137261
0.0011372
0.000877467
0.000591596
0.000284272
2.76423e-05
0.00415005
0.00413463
0.00411737
0.00409851
0.00407823
0.00405656
0.00403227
0.00399543
0.0039512
0.00390542
0.00385795
0.00380863
0.00375729
0.00370376
0.00364789
0.00358945
0.00352822
0.00346393
0.00339631
0.00332502
0.0032497
0.00316994
0.00308529
0.00299521
0.00289912
0.00279634
0.00268608
0.00256746
0.00243947
0.00230092
0.00215048
0.00198659
0.00180746
0.00161103
0.00139494
0.00115657
0.000893137
0.000602666
0.00028985
2.81246e-05
0.00416509
0.00414894
0.00413089
0.0041111
0.00408971
0.00406676
0.00404201
0.00401106
0.00397036
0.0039259
0.00387935
0.0038308
0.00378015
0.00372729
0.00367204
0.00361421
0.00355356
0.00348983
0.00342272
0.00335192
0.00327705
0.00319769
0.00311339
0.00302359
0.0029277
0.00282503
0.00271478
0.00259604
0.00246777
0.00232877
0.00217765
0.00201282
0.00183243
0.00163433
0.00141609
0.00117496
0.000908062
0.000613303
0.000295257
2.86229e-05
0.00417719
0.00416031
0.0041415
0.00412091
0.00409865
0.00407476
0.00404925
0.00402181
0.00398652
0.00394301
0.00389707
0.00384915
0.00379916
0.00374694
0.00369233
0.00363512
0.00357508
0.00351194
0.00344542
0.00337517
0.00330083
0.00322197
0.00313811
0.00304872
0.00295317
0.00285075
0.00274067
0.00262198
0.00249362
0.00235436
0.00220277
0.0020372
0.00185575
0.0016562
0.001436
0.00119231
0.00092211
0.000623196
0.000300164
2.91219e-05
0.00418684
0.00416922
0.00414969
0.00412837
0.00410535
0.00408065
0.00405427
0.00402607
0.00399522
0.00395643
0.00391116
0.00386385
0.0038145
0.00376295
0.00370899
0.00365244
0.00359304
0.00353054
0.00346465
0.00339502
0.00332128
0.003243
0.00315968
0.00307079
0.00297569
0.00287366
0.00276387
0.00264538
0.00251709
0.00237773
0.00222584
0.00205973
0.00187741
0.0016766
0.00145466
0.00120862
0.000935348
0.000632526
0.0003048
2.96154e-05
0.00419441
0.00417602
0.00415573
0.00413367
0.00410991
0.00408446
0.00405729
0.00402829
0.00399722
0.00396283
0.00392132
0.00387494
0.00382635
0.00377551
0.00372226
0.0036664
0.00360769
0.00354587
0.00348066
0.0034117
0.00333862
0.00326098
0.00317829
0.00308998
0.00299542
0.00289388
0.0027845
0.00266633
0.00253824
0.00239893
0.0022469
0.0020804
0.0018974
0.00169553
0.00147206
0.00122391
0.000947827
0.000641377
0.00030924
3.01019e-05
0.00420025
0.00418104
0.00415998
0.00413718
0.00411269
0.00408653
0.00405869
0.00402908
0.00399759
0.00396393
0.00392636
0.00388259
0.00383497
0.00378492
0.00373242
0.00367728
0.00361929
0.00355819
0.00349369
0.00342544
0.00335307
0.00327612
0.00319411
0.00310645
0.00301251
0.00291153
0.00280266
0.00268491
0.00255713
0.00241799
0.00226596
0.00209924
0.00191573
0.00171299
0.0014882
0.00123818
0.000959538
0.000649733
0.000313452
3.05765e-05
0.00420466
0.00418463
0.00416279
0.00413924
0.00411405
0.00408725
0.00405882
0.0040287
0.00399679
0.00396294
0.00392683
0.00388656
0.00384074
0.00379155
0.0037398
0.0036854
0.00362815
0.00356778
0.00350401
0.00343649
0.00336484
0.00328862
0.00320732
0.00312036
0.00302709
0.00292674
0.00281844
0.00270119
0.00257382
0.00243496
0.00228306
0.00211625
0.00193238
0.00172896
0.00150306
0.0012514
0.000970462
0.000657586
0.000317448
3.10406e-05
0.00420793
0.00418708
0.00416448
0.00414022
0.00411439
0.00408699
0.00405802
0.00402742
0.00399512
0.00396097
0.00392483
0.0038863
0.00384353
0.00379571
0.00374474
0.00369107
0.00363453
0.00357489
0.00351185
0.00344506
0.00337415
0.00329867
0.00321809
0.00313186
0.00303928
0.0029396
0.00283193
0.00271525
0.00258835
0.00244987
0.00229819
0.00213142
0.00194735
0.0017434
0.0015166
0.00126352
0.000980556
0.000664898
0.000321199
3.14913e-05
0.0042103
0.00418868
0.00416536
0.00414043
0.00411396
0.00408599
0.00405651
0.00402547
0.00399279
0.00395835
0.00392199
0.00388356
0.0038426
0.00379737
0.0037475
0.00369455
0.00363872
0.00357977
0.00351743
0.00345136
0.00338117
0.00330641
0.00322657
0.00314107
0.00304921
0.00295023
0.00284322
0.00272714
0.00260079
0.00246274
0.00231137
0.00214474
0.00196059
0.00175628
0.00152875
0.00127449
0.000989749
0.000671602
0.000324661
3.19331e-05
0.00421201
0.00418966
0.00416566
0.00414009
0.00411303
0.00408451
0.00405452
0.00402303
0.00398997
0.00395522
0.00391865
0.00388009
0.00383935
0.00379592
0.00374819
0.00369612
0.00364093
0.00358263
0.00352095
0.00345556
0.00338606
0.00331201
0.00323289
0.00314811
0.00305697
0.0029587
0.00285237
0.00273693
0.00261115
0.0024736
0.0023226
0.00215619
0.00197207
0.00176755
0.00153946
0.00128422
0.000997965
0.000677615
0.000327742
3.23705e-05
0.00421322
0.00419023
0.00416561
0.00413945
0.00411182
0.00408276
0.00405226
0.0040203
0.00398682
0.00395172
0.00391486
0.0038761
0.00383525
0.0037921
0.00374604
0.00369566
0.00364122
0.00358355
0.0035225
0.00345776
0.00338894
0.00331558
0.00323716
0.00315309
0.00306267
0.0029651
0.00285945
0.00274466
0.00261948
0.00248245
0.00233187
0.00216576
0.00198176
0.00177714
0.00154867
0.00129268
0.0010052
0.000683037
0.000330678
3.27494e-05
0.00421411
0.00419058
0.00416543
0.00413875
0.0041106
0.00408102
0.00405001
0.00401756
0.00398361
0.00394807
0.00391083
0.00387175
0.00383065
0.00378736
0.00374161
0.00369275
0.00363967
0.00358269
0.00352227
0.00345816
0.00338998
0.00331729
0.00323955
0.00315616
0.00306643
0.00296954
0.00286456
0.0027504
0.00262581
0.00248931
0.00233918
0.00217341
0.00198961
0.001785
0.0015563
0.00129977
0.00101135
0.000687726
0.000333258
3.30807e-05
0.00421481
0.00419088
0.00416532
0.00413822
0.00410963
0.00407958
0.00404811
0.00401517
0.00398074
0.00394474
0.00390707
0.0038676
0.00382618
0.00378264
0.0037368
0.00368836
0.00363654
0.00358052
0.00352066
0.0034571
0.0033895
0.00331739
0.00324027
0.00315751
0.00306841
0.00297215
0.00286778
0.00275422
0.00263019
0.0024942
0.00234452
0.00217911
0.00199557
0.00179106
0.00156229
0.00130544
0.00101637
0.000691645
0.000335491
3.33879e-05
0.00421544
0.00419128
0.00416547
0.00413807
0.00410915
0.00407874
0.00404685
0.00401348
0.00397859
0.00394213
0.00390401
0.00386411
0.00382232
0.00377846
0.00373236
0.0036838
0.00363241
0.00357734
0.00351811
0.00345498
0.00338782
0.00331619
0.00323957
0.00315733
0.00306876
0.00297304
0.00286922
0.00275618
0.00263264
0.00249712
0.00234786
0.00218282
0.00199956
0.00179525
0.00156654
0.00130959
0.00102016
0.000694739
0.00033736
3.36684e-05
0.00421605
0.00419187
0.00416599
0.00413846
0.00410935
0.00407868
0.00404647
0.00401273
0.00397742
0.00394051
0.00390193
0.00386157
0.00381934
0.00377507
0.0037286
0.00367973
0.00362818
0.00357352
0.00351491
0.00345212
0.00338524
0.00331393
0.00323766
0.00315581
0.00306764
0.00297235
0.00286894
0.00275632
0.0026332
0.00249807
0.00234918
0.00218447
0.00200151
0.00179746
0.00156894
0.00131209
0.00102264
0.000696943
0.00033885
3.39082e-05
0.00421667
0.00419269
0.00416694
0.00413946
0.00411031
0.00407952
0.0040471
0.00401305