/*--------------------------------*- C++ -*----------------------------------*\
  =========                 |
  \\      /  F ield         | OpenFOAM: The Open Source CFD Toolbox
   \\    /   O peration     | Website:  https://openfoam.org
    \\  /    A nd           | Version:  8
     \\/     M anipulation  |
\*---------------------------------------------------------------------------*/
FoamFile
{
    version     2.0;
    format      ascii;
    class       surfaceScalarField;
    location    "7.15";
    object      phi;
}
// * * * * * * * * * * * * * * * * * * * * * * * * * * * * * * * * * * * * * //

dimensions      [0 3 -1 0 0 0 0];

internalField   nonuniform List<scalar> 
18095
(
1.98873e-08
-1.71954e-07
1.52066e-07
2.32831e-08
-1.97536e-07
1.94141e-07
2.07508e-08
-2.062e-07
2.08733e-07
1.29964e-08
-2.1177e-07
2.19524e-07
1.94298e-09
-2.13653e-07
2.24707e-07
-1.0042e-08
-2.13076e-07
2.25061e-07
-1.97475e-08
-2.10202e-07
2.19908e-07
-2.31909e-08
-2.05864e-07
2.09308e-07
-1.9866e-08
-1.9767e-07
1.94345e-07
-1.72075e-07
1.52209e-07
1.56011e-08
-1.87555e-07
1.61932e-08
-1.98129e-07
1.18537e-08
-2.01861e-07
5.42506e-09
-2.05341e-07
-1.4775e-09
-2.06751e-07
-7.42897e-09
-2.07124e-07
-1.2366e-08
-2.05265e-07
-1.60783e-08
-2.02152e-07
-1.55391e-08
-1.98209e-07
-1.87614e-07
6.83008e-09
-1.94385e-07
8.45184e-09
-1.9975e-07
7.54832e-09
-2.00957e-07
4.54471e-09
-2.02337e-07
4.3754e-10
-2.02644e-07
-3.95405e-09
-2.02733e-07
-7.08533e-09
-2.02134e-07
-8.34201e-09
-2.00895e-07
-6.80611e-09
-1.99745e-07
-1.9442e-07
4.53967e-09
-1.98925e-07
4.73624e-09
-1.99947e-07
3.66741e-09
-1.99888e-07
1.84374e-09
-2.00514e-07
8.78279e-11
-2.00888e-07
-1.88617e-09
-2.00759e-07
-3.71391e-09
-2.00306e-07
-4.72777e-09
-1.99881e-07
-4.51433e-09
-1.99959e-07
-1.98934e-07
1.07548e-09
1.12859e-09
1.24024e-09
7.26463e-10
-1.61187e-10
-9.19679e-10
-1.2259e-09
-1.10724e-09
-1.0658e-09
-2.81461e-08
-1.96195e-07
2.24341e-07
-3.05698e-08
-1.99175e-07
2.01599e-07
-2.5487e-08
-2.01034e-07
1.95951e-07
-1.4817e-08
-2.01293e-07
1.90623e-07
-9.14987e-10
-2.01888e-07
1.87986e-07
1.33061e-08
-2.02011e-07
1.8779e-07
2.45766e-08
-2.01679e-07
1.90408e-07
3.02769e-08
-2.01492e-07
1.95791e-07
2.80188e-08
-1.99165e-07
2.01423e-07
-1.96069e-07
2.24088e-07
-9.47104e-09
-1.86724e-07
-1.4909e-08
-1.93738e-07
-1.19826e-08
-2.0396e-07
-4.9665e-09
-2.08309e-07
1.15644e-09
-2.0801e-07
7.01537e-09
-2.0787e-07
1.34836e-08
-2.08147e-07
1.52277e-08
-2.03236e-07
9.43487e-09
-1.93372e-07
-1.86634e-07
-1.01693e-08
-1.76554e-07
-8.68039e-09
-1.95226e-07
-8.1355e-09
-2.04505e-07
-6.69637e-09
-2.09748e-07
-1.52412e-09
-2.13183e-07
3.75872e-09
-2.13153e-07
6.32039e-09
-2.10709e-07
8.04863e-09
-2.04964e-07
1.00455e-08
-1.95369e-07
-1.76589e-07
-6.58466e-09
-1.6997e-07
-8.35282e-09
-1.93458e-07
-7.2885e-09
-2.0557e-07
-1.95214e-09
-2.15085e-07
1.39651e-09
-2.16531e-07
4.567e-09
-2.16324e-07
8.54275e-09
-2.14684e-07
8.60039e-09
-2.05021e-07
6.56888e-09
-1.93337e-07
-1.7002e-07
-1.79034e-08
-1.7221e-08
-1.40581e-08
-9.6186e-09
-1.44316e-09
7.29383e-09
1.25172e-08
1.68034e-08
1.7811e-08
3.35666e-08
-1.5814e-07
1.24574e-07
4.00974e-08
-1.99061e-07
1.92531e-07
3.4754e-08
-2.11038e-07
2.16381e-07
2.32261e-08
-2.16725e-07
2.28253e-07
6.46468e-09
-2.17814e-07
2.34575e-07
-1.18196e-08
-2.17868e-07
2.36152e-07
-2.81406e-08
-2.15446e-07
2.31767e-07
-3.87174e-08
-2.09347e-07
2.19924e-07
-3.5972e-08
-1.9758e-07
1.94834e-07
-1.56981e-07
1.21009e-07
1.67254e-08
-1.74866e-07
1.87023e-08
-2.01038e-07
1.45297e-08
-2.06865e-07
5.98297e-09
-2.08178e-07
-3.73448e-09
-2.08097e-07
-1.28541e-08
-2.08748e-07
-1.89153e-08
-2.09385e-07
-2.0962e-08
-2.073e-07
-1.76503e-08
-2.00891e-07
-1.74631e-07
8.55603e-09
-1.83422e-07
9.15362e-09
-2.01636e-07
8.34216e-09
-2.06054e-07
5.10206e-09
-2.04938e-07
1.66762e-09
-2.04662e-07
-2.49136e-09
-2.04589e-07
-7.59366e-09
-2.04283e-07
-8.91892e-09
-2.05975e-07
-8.45914e-09
-2.01351e-07
-1.83091e-07
7.50851e-09
-1.9093e-07
5.23792e-09
-1.99365e-07
5.79006e-09
-2.06606e-07
-1.05687e-10
-1.99043e-07
-1.7504e-09
-2.03017e-07
-2.93094e-09
-2.03408e-07
-6.636e-09
-2.00578e-07
-5.58279e-09
-2.07028e-07
-7.6893e-09
-1.99245e-07
-1.9078e-07
3.34105e-08
3.56444e-08
2.49895e-08
1.65701e-08
1.53815e-09
-1.408e-08
-2.42493e-08
-3.54861e-08
-3.3308e-08
2.7186e-07
-1.532e-08
-2.5654e-07
2.74839e-07
-2.97928e-09
2.76825e-07
-1.98558e-09
2.77112e-07
-2.87574e-10
2.67571e-07
9.54102e-09
2.49885e-07
1.76865e-08
2.30477e-07
1.94083e-08
2.1217e-07
1.83067e-08
1.95203e-07
1.69666e-08
1.82747e-08
1.76929e-07
3.12594e-07
-3.70598e-08
-2.90854e-07
3.32975e-07
-2.33606e-08
3.58405e-07
-2.74152e-08
3.82117e-07
-2.40002e-08
3.95056e-07
-3.39801e-09
3.94e-07
1.87425e-08
3.94217e-07
1.9192e-08
4.01454e-07
1.10692e-08
4.12301e-07
6.12e-09
9.87755e-09
4.20698e-07
2.18529e-07
-2.88362e-08
-2.26753e-07
2.29137e-07
-3.39678e-08
2.49392e-07
-4.76701e-08
2.74457e-07
-4.90651e-08
3.07735e-07
-3.66758e-08
3.48339e-07
-2.1862e-08
3.81733e-07
-1.42023e-08
4.06341e-07
-1.35385e-08
4.23348e-07
-1.08869e-08
3.0594e-09
4.30166e-07
5.91225e-08
-6.32902e-08
-2.46685e-08
1.00332e-07
-7.51769e-08
1.28267e-07
-7.56049e-08
1.55804e-07
-7.66029e-08
2.03869e-07
-8.47405e-08
2.54852e-07
-7.28445e-08
2.97384e-07
-5.67348e-08
3.25669e-07
-4.18239e-08
3.40761e-07
-2.59788e-08
4.95342e-09
3.38867e-07
3.17476e-08
-9.46222e-08
-4.15549e-10
6.09119e-08
-1.04341e-07
9.16808e-08
-1.06374e-07
1.24846e-07
-1.09769e-07
1.47307e-07
-1.07201e-07
1.72563e-07
-9.81003e-08
1.97152e-07
-8.13246e-08
2.02621e-07
-4.72928e-08
1.96375e-07
-1.97331e-08
1.68702e-08
1.84459e-07
2.43248e-08
-1.09254e-07
-9.69266e-09
4.30499e-08
-1.23066e-07
6.66036e-08
-1.29927e-07
8.57812e-08
-1.28946e-07
9.82492e-08
-1.19669e-07
1.0438e-07
-1.04231e-07
9.38847e-08
-7.08291e-08
6.10216e-08
-1.44298e-08
3.43349e-08
6.95348e-09
3.20068e-08
1.91982e-08
6.40751e-09
-1.19352e-07
3.69059e-09
1.89332e-08
-1.35592e-07
2.5938e-08
-1.36932e-07
2.07822e-08
-1.23791e-07
3.20328e-09
-1.0209e-07
-2.44367e-08
-7.65915e-08
-5.4437e-08
-4.08289e-08
-7.03505e-08
1.48364e-09
-7.74013e-08
1.40042e-08
4.98456e-08
-9.52402e-08
-1.14754e-08
-1.12861e-07
4.98394e-09
-2.20695e-08
-1.24998e-07
-3.54493e-08
-1.23552e-07
-5.55759e-08
-1.03664e-07
-8.08652e-08
-7.68008e-08
-1.07683e-07
-4.9774e-08
-1.27163e-07
-2.13489e-08
-1.33072e-07
7.39285e-09
-1.33723e-07
1.46554e-08
5.75675e-08
-1.41445e-07
-1.86193e-08
-9.01524e-08
-4.08935e-09
-4.57911e-08
-9.78268e-08
-7.13378e-08
-9.80058e-08
-9.55302e-08
-7.94717e-08
-1.15978e-07
-5.63528e-08
-1.37251e-07
-2.85013e-08
-1.51946e-07
-6.65408e-09
-1.62167e-07
1.76135e-08
-1.79682e-07
3.21704e-08
6.06355e-08
-1.8275e-07
-6.06836e-08
-6.15718e-08
3.21029e-08
-9.91163e-08
-5.93942e-08
-1.38176e-07
-5.89464e-08
-1.66691e-07
-5.09565e-08
-1.90357e-07
-3.26869e-08
-2.10225e-07
-8.63373e-09
-2.26192e-07
9.31351e-09
-2.33831e-07
2.52516e-08
-2.42565e-07
4.09044e-08
5.62849e-08
-2.38214e-07
-1.39643e-07
-3.46207e-08
1.12692e-07
-1.70305e-07
-2.87324e-08
-2.04782e-07
-2.4469e-08
-2.39183e-07
-1.65557e-08
-2.68266e-07
-3.60452e-09
-2.91376e-07
1.44764e-08
-3.07708e-07
2.5645e-08
-3.1462e-07
3.21638e-08
-3.15394e-07
4.1678e-08
5.60212e-08
-3.1513e-07
-2.33064e-07
-1.4504e-09
1.99893e-07
-2.67351e-07
5.55455e-09
-3.01675e-07
9.8547e-09
-3.3611e-07
1.78794e-08
-3.63014e-07
2.32997e-08
-3.80743e-07
3.22048e-08
-3.90268e-07
3.51706e-08
-3.97397e-07
3.92924e-08
-4.01305e-07
4.55862e-08
5.1598e-08
-3.96882e-07
-3.36294e-07
1.82887e-08
3.16555e-07
-3.54766e-07
2.40262e-08
-3.73389e-07
2.84774e-08
-3.83459e-07
2.79493e-08
-3.9327e-07
3.3111e-08
-4.0054e-07
3.94739e-08
-4.06873e-07
4.15039e-08
-4.09678e-07
4.20973e-08
-4.07915e-07
4.38228e-08
4.33892e-08
-3.99706e-07
-3.59361e-07
3.245e-08
3.45199e-07
-3.71878e-07
3.65429e-08
-3.82078e-07
3.86779e-08
-3.92145e-07
3.80155e-08
-3.97692e-07
3.86586e-08
-3.98418e-07
4.01994e-08
-3.98377e-07
4.1463e-08
-3.96092e-07
3.98124e-08
-3.8782e-07
3.55509e-08
2.80309e-08
-3.72462e-07
-3.58183e-07
4.26721e-08
3.47961e-07
-3.65424e-07
4.37838e-08
-3.69751e-07
4.30045e-08
-3.72352e-07
4.06166e-08
-3.71754e-07
3.80608e-08
-3.66252e-07
3.46971e-08
-3.54793e-07
3.00045e-08
-3.38842e-07
2.38607e-08
-3.21497e-07
1.82057e-08
1.2289e-08
-3.05755e-07
-3.28941e-07
4.93479e-08
3.22265e-07
-3.32427e-07
4.72703e-08
-3.31972e-07
4.25491e-08
-3.26811e-07
3.54558e-08
-3.16377e-07
2.76263e-08
-3.00829e-07
1.91485e-08
-2.81681e-07
1.08573e-08
-2.61138e-07
3.31673e-09
-2.39867e-07
-3.06526e-09
-8.75321e-09
-2.18825e-07
-2.72176e-07
4.76621e-08
2.73861e-07
-2.6852e-07
4.36139e-08
-2.60986e-07
3.50157e-08
-2.49358e-07
2.38273e-08
-2.34983e-07
1.32514e-08
-2.19057e-07
3.22212e-09
-2.01175e-07
-7.02477e-09
-1.8191e-07
-1.59486e-08
-1.61981e-07
-2.29944e-08
-2.92554e-08
-1.41479e-07
-2.33181e-07
3.70963e-08
2.43747e-07
-2.20345e-07
3.07776e-08
-2.04365e-07
1.90353e-08
-1.87026e-07
6.48787e-09
-1.71116e-07
-2.65848e-09
-1.58168e-07
-9.7262e-09
-1.40927e-07
-2.42658e-08
-1.25518e-07
-3.13581e-08
-1.13832e-07
-3.46802e-08
-3.73271e-08
-1.0576e-07
-1.48042e-07
2.3271e-08
1.61867e-07
-1.39582e-07
2.23174e-08
-1.31843e-07
1.12963e-08
-1.21165e-07
-4.19004e-09
-1.13674e-07
-1.01502e-08
-1.12652e-07
-1.07484e-08
-1.08291e-07
-2.86263e-08
-1.01969e-07
-3.76799e-08
-9.68879e-08
-3.97618e-08
-4.05341e-08
-9.36809e-08
-9.35889e-08
8.75965e-09
1.081e-07
-7.8722e-08
7.45057e-09
-7.26405e-08
5.21485e-09
-7.29264e-08
-3.90406e-09
-7.48736e-08
-8.20299e-09
-7.66411e-08
-8.9808e-09
-8.4703e-08
-2.05643e-08
-9.01142e-08
-3.22686e-08
-9.2213e-08
-3.76629e-08
-4.04884e-08
-9.22587e-08
-1.03061e-07
-3.84611e-10
1.12206e-07
-9.84158e-08
2.80546e-09
-9.68526e-08
3.65172e-09
-9.95364e-08
-1.22009e-09
-1.01608e-07
-6.13111e-09
-1.02897e-07
-7.69191e-09
-1.06347e-07
-1.71138e-08
-1.08224e-07
-3.03912e-08
-1.02971e-07
-4.29165e-08
-4.74552e-08
-9.6004e-08
-1.39389e-07
-7.04478e-09
1.46049e-07
-1.32163e-07
-4.41969e-09
-1.25149e-07
-3.36242e-09
-1.20533e-07
-5.8354e-09
-1.17461e-07
-9.20354e-09
-1.11518e-07
-1.36347e-08
-1.06919e-07
-2.17126e-08
-1.05589e-07
-3.17207e-08
-1.03941e-07
-4.45646e-08
-5.74393e-08
-9.39571e-08
-1.66462e-07
-1.02e-08
1.69617e-07
-1.59551e-07
-1.13301e-08
-1.51277e-07
-1.16367e-08
-1.41995e-07
-1.51176e-08
-1.30005e-07
-2.11932e-08
-1.20119e-07
-2.35209e-08
-1.15775e-07
-2.60566e-08
-1.1055e-07
-3.69454e-08
-1.01281e-07
-5.38331e-08
-7.05432e-08
-8.81775e-08
-1.66685e-07
-1.51307e-08
1.71616e-07
-1.62479e-07
-1.55365e-08
-1.54644e-07
-1.9472e-08
-1.47164e-07
-2.25972e-08
-1.45819e-07
-2.25383e-08
-1.46005e-07
-2.33351e-08
-1.41938e-07
-3.01232e-08
-1.31862e-07
-4.70212e-08
-1.18326e-07
-6.73697e-08
-7.85736e-08
-1.10295e-07
-1.91137e-07
-3.42277e-08
2.10234e-07
-1.72809e-07
-3.38644e-08
-1.57553e-07
-3.47278e-08
-1.49621e-07
-3.053e-08
-1.45523e-07
-2.66356e-08
-1.42362e-07
-2.64964e-08
-1.40127e-07
-3.2358e-08
-1.39334e-07
-4.78141e-08
-1.41904e-07
-6.47992e-08
-6.88062e-08
-1.51672e-07
-2.13355e-07
-5.55954e-08
2.34723e-07
-1.94131e-07
-5.30881e-08
-1.78338e-07
-5.05206e-08
-1.66156e-07
-4.27118e-08
-1.55811e-07
-3.69807e-08
-1.47035e-07
-3.52726e-08
-1.42459e-07
-3.69336e-08
-1.46975e-07
-4.32985e-08
-1.65082e-07
-4.66921e-08
-4.07855e-08
-1.93102e-07
-2.4311e-07
-8.31665e-08
2.70681e-07
-2.1597e-07
-8.02274e-08
-1.89697e-07
-7.67935e-08
-1.63348e-07
-6.90602e-08
-1.43097e-07
-5.72317e-08
-1.32848e-07
-4.55217e-08
-1.337e-07
-3.60816e-08
-1.44903e-07
-3.20951e-08
-1.66543e-07
-2.50525e-08
-1.00739e-08
-1.97254e-07
-2.1639e-07
-1.13922e-07
2.47145e-07
-1.86623e-07
-1.09994e-07
-1.58934e-07
-1.04483e-07
-1.33858e-07
-9.41356e-08
-1.12483e-07
-7.86072e-08
-1.01695e-07
-5.63092e-08
-1.00884e-07
-3.6893e-08
-1.1203e-07
-2.0949e-08
-1.29773e-07
-7.30915e-09
1.30061e-08
-1.52853e-07
-1.67974e-07
-1.34038e-07
1.8809e-07
-1.44695e-07
-1.33273e-07
-1.21975e-07
-1.27202e-07
-1.02833e-07
-1.13278e-07
-9.02755e-08
-9.11651e-08
-8.53584e-08
-6.12263e-08
-8.61252e-08
-3.61262e-08
-9.30486e-08
-1.40255e-08
-1.04851e-07
4.49354e-09
2.99037e-08
-1.21749e-07
-1.27724e-07
-1.40088e-07
1.33775e-07
-1.13631e-07
-1.47366e-07
-9.40678e-08
-1.46765e-07
-7.77172e-08
-1.29628e-07
-7.24562e-08
-9.64261e-08
-7.41245e-08
-5.95579e-08
-7.78529e-08
-3.23978e-08
-8.42462e-08
-7.63227e-09
-9.55e-08
1.57474e-08
4.12503e-08
-1.06847e-07
-5.81383e-08
-1.08663e-07
2.67126e-08
-7.54765e-08
-1.30027e-07
-7.30857e-08
-1.49156e-07
-6.37451e-08
-1.38969e-07
-6.98024e-08
-9.03688e-08
-9.32798e-08
-3.60805e-08
-1.09982e-07
-1.5696e-08
-1.18251e-07
6.36701e-10
-1.2029e-07
1.77866e-08
4.14109e-08
-1.2045e-07
4.49287e-08
-7.93569e-08
-7.42343e-08
2.70606e-09
-8.78035e-08
-3.19521e-08
-1.14498e-07
-5.30103e-08
-1.1791e-07
-7.76906e-08
-6.56885e-08
-1.17144e-07
3.37282e-09
-1.40039e-07
7.1993e-09
-1.44446e-07
5.04356e-09
-1.38225e-07
1.15654e-08
3.29754e-08
-1.29789e-07
1.0575e-07
-4.56248e-08
-1.39481e-07
6.12266e-08
-4.32802e-08
8.54019e-09
-6.18112e-08
-3.63956e-08
-7.29745e-08
-5.37146e-08
-4.83695e-08
-6.78617e-08
1.752e-08
-9.55978e-08
3.49354e-08
-1.17598e-07
2.70435e-08
-1.28596e-07
2.25641e-08
3.41526e-08
-1.29774e-07
9.87137e-08
1.09631e-09
-1.45435e-07
4.96248e-08
5.8086e-09
-4.181e-09
-8.00535e-09
-4.16792e-08
-3.54763e-08
-4.87949e-08
-4.12538e-08
-3.59066e-08
4.63173e-09
-4.50119e-08
4.40408e-08
-7.48201e-08
5.68519e-08
-1.03579e-07
5.13231e-08
4.84487e-08
-1.17875e-07
1.81856e-07
2.21423e-08
-2.02902e-07
1.57078e-07
3.05869e-08
1.03118e-07
4.59547e-08
3.94478e-08
2.8194e-08
2.9574e-09
-4.76339e-09
2.51622e-09
5.07293e-09
3.75899e-09
4.27981e-08
-1.46606e-08
7.52716e-08
-4.55462e-08
8.22089e-08
7.64127e-08
-7.351e-08
2.22032e-07
4.78813e-08
-2.47771e-07
2.04621e-07
4.79985e-08
1.72953e-07
7.76225e-08
9.62656e-08
1.04882e-07
2.35118e-08
6.79904e-08
5.69074e-09
2.28941e-08
1.53146e-08
3.31742e-08
2.27614e-08
6.78249e-08
1.74254e-08
8.75449e-08
9.02744e-08
3.56364e-09
2.90414e-07
7.10203e-08
-3.13552e-07
2.74044e-07
6.4368e-08
2.55256e-07
9.64109e-08
1.66439e-07
1.93699e-07
6.1133e-08
1.73296e-07
9.10881e-09
7.49183e-08
5.29888e-09
3.69842e-08
1.74239e-08
5.56999e-08
3.57072e-08
6.92615e-08
8.02787e-08
4.57029e-08
3.41082e-07
8.82681e-08
-3.5833e-07
3.20247e-07
8.52034e-08
3.06414e-07
1.10243e-07
2.5241e-07
2.47703e-07
1.5776e-07
2.67946e-07
6.25123e-08
1.70166e-07
2.24975e-08
7.6999e-08
2.32672e-08
5.49304e-08
3.87019e-08
5.38269e-08
6.19893e-08
5.69915e-08
3.30861e-07
1.03414e-07
-3.46007e-07
2.93183e-07
1.22881e-07
2.35302e-07
1.68125e-07
2.18667e-07
2.64337e-07
2.10739e-07
2.75875e-07
1.54563e-07
2.26342e-07
9.92168e-08
1.32345e-07
7.42275e-08
7.99197e-08
7.4503e-08
5.35515e-08
4.88163e-08
8.7676e-08
2.72008e-07
1.31228e-07
-2.99822e-07
2.3534e-07
1.5955e-07
1.87572e-07
2.15893e-07
1.87144e-07
2.64764e-07
1.95739e-07
2.67281e-07
1.92061e-07
2.3002e-07
1.61666e-07
1.62741e-07
1.38411e-07
1.03174e-07
1.33329e-07
5.86341e-08
4.64129e-08
1.35732e-07
1.36369e-07
1.17064e-07
-1.22205e-07
1.481e-07
1.47819e-07
1.5043e-07
2.13563e-07
1.65653e-07
2.49541e-07
1.85044e-07
2.4789e-07
2.00079e-07
2.14985e-07
2.0566e-07
1.5716e-07
2.06226e-07
1.02608e-07
1.99884e-07
6.49765e-08
5.79622e-08
1.88334e-07
9.50225e-08
1.07226e-07
-8.51842e-08
1.0491e-07
1.37932e-07
1.4109e-07
1.77382e-07
1.77641e-07
2.12991e-07
2.10289e-07
2.15242e-07
2.49321e-07
1.75952e-07
2.68869e-07
1.37613e-07
2.6802e-07
1.03457e-07
2.51227e-07
8.17688e-08
8.16996e-08
2.2749e-07
1.31428e-07
8.44358e-08
-1.08637e-07
1.59545e-07
1.09814e-07
1.9764e-07
1.39288e-07
2.44316e-07
1.66314e-07
2.85788e-07
1.7377e-07
3.07374e-07
1.54366e-07
3.14123e-07
1.30864e-07
3.04868e-07
1.12713e-07
2.81209e-07
1.05428e-07
1.18746e-07
2.44162e-07
2.05076e-07
7.44258e-08
-1.95066e-07
2.18001e-07
9.68886e-08
2.40755e-07
1.16534e-07
2.70027e-07
1.37042e-07
2.96209e-07
1.47589e-07
3.08352e-07
1.42223e-07
3.07036e-07
1.3218e-07
2.95347e-07
1.24401e-07
2.62824e-07
1.37951e-07
1.77519e-07
2.04051e-07
2.10355e-07
7.39043e-08
-2.09833e-07
2.15776e-07
9.1467e-08
2.26845e-07
1.05465e-07
2.42672e-07
1.21215e-07
2.5642e-07
1.33841e-07
2.58587e-07
1.40056e-07
2.47503e-07
1.43264e-07
2.16195e-07
1.55708e-07
1.60905e-07
1.9324e-07
2.24066e-07
1.14358e-07
1.15302e-07
7.70848e-08
-1.18483e-07
1.21303e-07
8.54659e-08
1.29669e-07
9.70995e-08
1.36976e-07
1.13908e-07
1.3312e-07
1.37697e-07
1.18245e-07
1.54931e-07
9.42807e-08
1.67228e-07
6.13614e-08
1.88627e-07
3.60973e-08
2.18504e-07
2.1758e-07
4.25833e-08
-4.29128e-08
7.39442e-08
4.60533e-08
-3.70169e-08
7.95699e-08
-3.19694e-08
9.20521e-08
-3.11498e-08
1.13089e-07
-3.23763e-08
1.38924e-07
-3.04321e-08
1.52986e-07
-2.73726e-08
1.64168e-07
-3.0435e-08
1.9169e-07
-1.07948e-08
1.98864e-07
1.81315e-07
2.54699e-08
-1.40786e-07
8.00733e-08
1.34657e-07
-1.44419e-07
8.32029e-08
-1.44078e-07
9.17111e-08
-1.39815e-07
1.08825e-07
-1.28846e-07
1.27955e-07
-1.07578e-07
1.31718e-07
-9.2541e-08
1.49131e-07
-6.72697e-08
1.66418e-07
-2.5023e-08
1.56617e-07
1.3513e-07
2.11625e-08
-2.09339e-07
8.92617e-08
2.00151e-07
-2.12382e-07
8.62459e-08
-2.02312e-07
8.16414e-08
-1.76863e-07
8.33759e-08
-1.52147e-07
1.03239e-07
-1.3158e-07
1.11152e-07
-1.06923e-07
1.24474e-07
-6.898e-08
1.28475e-07
-2.00821e-08
1.07719e-07
1.05643e-07
9.40486e-09
-2.57981e-07
1.21852e-07
2.2539e-07
-2.71093e-07
9.93577e-08
-2.58391e-07
6.894e-08
-2.22106e-07
4.70906e-08
-1.73114e-07
5.42475e-08
-1.6615e-07
1.04187e-07
-1.80876e-07
1.392e-07
-1.76785e-07
1.24383e-07
-1.05466e-07
3.64006e-08
3.14071e-08
-3.12305e-08
-3.69536e-07
1.39569e-07
3.5182e-07
-3.50353e-07
8.01742e-08
-3.11441e-07
3.0028e-08
-2.73132e-07
8.78155e-09
-2.43085e-07
2.41998e-08
-2.25778e-07
8.68802e-08
-2.09292e-07
1.22714e-07
-1.81815e-07
9.69056e-08
-1.59282e-07
1.38676e-08
6.61403e-09
-1.34489e-07
-3.70843e-07
1.62978e-07
3.47434e-07
-3.87577e-07
9.6908e-08
-3.93253e-07
3.57047e-08
-3.87818e-07
3.34655e-09
-3.6904e-07
5.42066e-09
-3.2138e-07
3.92201e-08
-2.70703e-07
7.20366e-08
-2.3118e-07
5.73819e-08
-2.60166e-07
4.2854e-08
5.24684e-08
-3.0602e-07
-2.73111e-07
1.94556e-07
2.41533e-07
-2.97182e-07
1.20979e-07
-3.17075e-07
5.55977e-08
-3.31367e-07
1.76379e-08
-3.22963e-07
-2.98309e-09
-2.87587e-07
3.84452e-09
-2.48339e-07
3.27881e-08
-2.14445e-07
2.3488e-08
-2.42228e-07
7.06361e-08
6.37015e-08
-2.53461e-07
-5.89689e-08
2.09038e-07
4.44868e-08
-7.58061e-08
1.37817e-07
-9.6651e-08
7.64424e-08
-1.20811e-07
4.17981e-08
-1.50138e-07
2.63433e-08
-1.68882e-07
2.25891e-08
-1.2543e-07
-1.0664e-08
-8.61957e-08
-1.57468e-08
-3.91908e-08
2.36315e-08
1.09687e-08
1.35418e-08
3.9063e-07
2.2177e-07
-4.03361e-07
3.43894e-07
1.84552e-07
3.12099e-07
1.08238e-07
2.99135e-07
5.47614e-08
2.89071e-07
3.6408e-08
2.80851e-07
3.0809e-08
2.69684e-07
5.03052e-10
2.66575e-07
-1.2638e-08
3.08597e-07
-1.83907e-08
-5.07883e-08
3.70354e-07
7.22258e-07
1.90419e-07
-6.90907e-07
7.51672e-07
1.55136e-07
7.68366e-07
9.15442e-08
7.90822e-07
3.23044e-08
8.07565e-07
1.96647e-08
8.16497e-07
2.18767e-08
8.11266e-07
5.73477e-09
8.26693e-07
-2.8066e-08
8.55105e-07
-4.68014e-08
-5.5943e-08
8.60259e-07
6.67306e-07
1.26242e-07
-6.03128e-07
7.36106e-07
8.63361e-08
8.05391e-07
2.22579e-08
8.38166e-07
-4.70435e-10
8.40982e-07
1.68481e-08
8.3833e-07
2.45295e-08
8.51431e-07
-7.36649e-09
8.86746e-07
-6.33808e-08
9.32083e-07
-9.21388e-08
-8.45496e-08
9.6069e-07
5.16507e-07
7.10664e-08
-4.61332e-07
5.70034e-07
3.28092e-08
5.98474e-07
-6.18216e-09
6.2125e-07
-2.32469e-08
6.68911e-07
-3.08124e-08
7.33487e-07
-4.00463e-08
7.9011e-07
-6.39897e-08
8.1978e-07
-9.30507e-08
8.34295e-07
-1.06654e-07
-1.06149e-07
8.55894e-07
4.9268e-07
4.46918e-08
-4.66306e-07
5.18907e-07
6.58319e-09
5.4337e-07
-3.06454e-08
5.84959e-07
-6.48361e-08
6.51404e-07
-9.72573e-08
7.31421e-07
-1.20063e-07
7.95296e-07
-1.27865e-07
8.29324e-07
-1.27078e-07
8.47448e-07
-1.24779e-07
-1.20304e-07
8.61602e-07
6.02398e-07
1.83451e-08
-5.76051e-07
6.30657e-07
-2.16767e-08
6.75906e-07
-7.58946e-08
7.33868e-07
-1.22798e-07
7.95131e-07
-1.5852e-07
8.4301e-07
-1.67941e-07
8.6939e-07
-1.54246e-07
8.74477e-07
-1.32165e-07
8.74313e-07
-1.24616e-07
-1.19248e-07
8.73257e-07
7.41398e-07
-4.22951e-08
-6.80757e-07
8.14099e-07
-9.43766e-08
8.55497e-07
-1.17293e-07
8.78444e-07
-1.45746e-07
8.88713e-07
-1.68789e-07
8.91382e-07
-1.7061e-07
8.9236e-07
-1.55224e-07
8.82324e-07
-1.22129e-07
8.66157e-07
-1.08449e-07
-1.04497e-07
8.51406e-07
7.81835e-07
-9.96879e-08
-7.24443e-07
8.09063e-07
-1.21603e-07
8.36291e-07
-1.44521e-07
8.50979e-07
-1.60433e-07
8.46781e-07
-1.6459e-07
8.38329e-07
-1.62159e-07
8.25261e-07
-1.42156e-07
8.17946e-07
-1.14814e-07
8.12879e-07
-1.03382e-07
-9.67604e-08
8.05142e-07
6.42975e-07
-1.30151e-07
-6.12511e-07
6.53727e-07
-1.32355e-07
6.47922e-07
-1.38716e-07
6.4724e-07
-1.5975e-07
6.62561e-07
-1.79911e-07
6.84113e-07
-1.83711e-07
7.07927e-07
-1.65969e-07
7.41236e-07
-1.48123e-07
7.7349e-07
-1.35636e-07
-9.93512e-08
7.76081e-07
3.23612e-07
-1.66661e-07
-2.87102e-07
3.57019e-07
-1.65761e-07
3.81917e-07
-1.63614e-07
4.10344e-07
-1.88179e-07
4.55385e-07
-2.24952e-07
5.04756e-07
-2.33083e-07
5.55924e-07
-2.17137e-07
6.09882e-07
-2.02081e-07
6.67639e-07
-1.93393e-07
-1.46619e-07
7.14907e-07
-7.21375e-08
-1.73009e-07
7.84851e-08
-5.5107e-08
-1.82791e-07
-3.48897e-08
-1.83831e-07
-4.22127e-09
-2.18847e-07
2.76225e-08
-2.56795e-07
5.50408e-08
-2.60501e-07
9.98279e-08
-2.61925e-07
1.72803e-07
-2.75056e-07
2.46953e-07
-2.67543e-07
-2.07415e-07
3.07749e-07
-4.43937e-07
-2.5059e-07
5.21518e-07
-3.80244e-07
-2.46485e-07
-3.20704e-07
-2.43371e-07
-2.77529e-07
-2.62023e-07
-2.54383e-07
-2.79941e-07
-2.24036e-07
-2.90848e-07
-1.90925e-07
-2.95035e-07
-1.67326e-07
-2.98656e-07
-1.46909e-07
-2.8796e-07
-2.56515e-07
-9.78096e-08
-5.80641e-07
-3.86139e-07
7.1619e-07
-4.67132e-07
-3.59993e-07
-3.95268e-07
-3.15235e-07
-3.60142e-07
-2.97149e-07
-3.41156e-07
-2.98927e-07
-3.28402e-07
-3.03602e-07
-3.12874e-07
-3.10563e-07
-3.006e-07
-3.10929e-07
-2.88726e-07
-2.99835e-07
-2.78819e-07
-2.66421e-07
-7.93428e-07
-5.3458e-07
9.41869e-07
-6.1068e-07
-5.42741e-07
-4.65962e-07
-4.59953e-07
-4.00367e-07
-3.62745e-07
-3.77441e-07
-3.21853e-07
-3.71546e-07
-3.09496e-07
-3.69694e-07
-3.12415e-07
-3.68534e-07
-3.1209e-07
-3.6748e-07
-3.00889e-07
-2.81222e-07
-3.65079e-07
-9.37745e-07
-6.29379e-07
1.03255e-06
-8.00265e-07
-6.80221e-07
-6.04053e-07
-6.56165e-07
-4.19472e-07
-5.47326e-07
-3.61212e-07
-3.80113e-07
-3.64162e-07
-3.06546e-07
-3.7501e-07
-3.01567e-07
-3.82057e-07
-3.05042e-07
-3.85932e-07
-2.97013e-07
-2.73295e-07
-3.93858e-07
-8.81968e-07
-5.78487e-07
8.31075e-07
-8.51249e-07
-7.10939e-07
-7.20898e-07
-7.86515e-07
-4.98966e-07
-7.69257e-07
-2.85841e-07
-5.93239e-07
-2.73228e-07
-3.19159e-07
-3.00448e-07
-2.74348e-07
-3.1827e-07
-2.87221e-07
-3.34752e-07
-2.80532e-07
-2.51189e-07
-3.56858e-07
-4.82792e-07
-4.67765e-07
3.7207e-07
-6.59872e-07
-5.33859e-07
-6.45387e-07
-8.00999e-07
-5.32038e-07
-8.82607e-07
-3.17547e-07
-8.07729e-07
-2.22915e-07
-4.13791e-07
-2.56797e-07
-2.40466e-07
-2.91814e-07
-2.52204e-07
-3.24221e-07
-2.48125e-07
-2.14692e-07
-3.60718e-07
-1.89489e-07
-4.342e-07
1.55924e-07
-3.12108e-07
-4.1124e-07
-4.04999e-07
-7.08109e-07
-4.12807e-07
-8.74799e-07
-3.35545e-07
-8.8499e-07
-1.76875e-07
-5.7246e-07
-2.71452e-07
-1.45889e-07
-3.2762e-07
-1.96036e-07
-3.72308e-07
-2.03438e-07
-1.37636e-07
-4.49364e-07
-6.41195e-08
-3.83806e-07
1.3726e-08
-1.35504e-07
-3.39854e-07
-2.78322e-07
-5.65291e-07
-2.79467e-07
-8.73655e-07
-2.84602e-07
-8.79855e-07
-1.86533e-07
-6.7053e-07
-2.73743e-07
-5.86802e-08
-3.33507e-07
-1.36271e-07
-3.70803e-07
-1.66142e-07
-9.05626e-08
-4.17877e-07
-2.66508e-08
-2.54592e-07
-1.02564e-07
-1.14857e-07
-2.51647e-07
-2.06692e-07
-4.73457e-07
-2.24855e-07
-8.55491e-07
-2.23051e-07
-8.81659e-07
-1.47578e-07
-7.46003e-07
-1.11428e-07
-9.48298e-08
-2.31052e-07
-1.66476e-08
-3.32487e-07
-6.47068e-08
-5.99695e-08
-3.6308e-07
-2.50419e-08
-1.82012e-07
-4.75376e-08
-5.78783e-08
-2.1881e-07
-1.59717e-07
-3.71618e-07
-2.03223e-07
-8.11986e-07
-1.98798e-07
-8.86084e-07
-1.26189e-07
-8.18612e-07
-2.54512e-08
-1.95568e-07
-9.6034e-08
5.39362e-08
-1.90186e-07
2.94451e-08
1.01685e-08
-2.60324e-07
2.71143e-08
-1.44096e-07
-6.50312e-08
-3.10704e-10
-1.91385e-07
-8.33994e-08
-2.88529e-07
-1.30976e-07
-7.64408e-07
-1.43919e-07
-8.73141e-07
-1.64374e-07
-7.98157e-07
-7.24966e-08
-2.87445e-07
3.17523e-09
-2.17359e-08
-6.06687e-08
9.32895e-08
9.90576e-08
-1.49557e-07
-5.43117e-09
-1.053e-07
-3.33648e-08
-5.18914e-08
-1.44926e-07
-7.82191e-08
-2.62201e-07
-7.93818e-08
-7.63245e-07
-8.98296e-08
-8.62692e-07
-7.59824e-08
-8.12005e-07
-2.91536e-08
-3.34273e-07
-4.30684e-08
-7.82158e-09
-8.00067e-08
1.30229e-07
1.26633e-07
-1.07582e-07
3.15307e-08
-5.78187e-08
-7.90114e-08
-1.67261e-08
-9.66698e-08
-5.20654e-08
-2.26862e-07
-6.79724e-08
-7.47338e-07
-9.60541e-08
-8.34611e-07
-9.49911e-08
-8.13067e-07
-4.51511e-08
-3.84112e-07
-7.81271e-08
2.51543e-08
-2.32559e-08
7.53576e-08
1.03631e-07
-2.52966e-10
7.45782e-08
-6.11908e-08
-7.12063e-08
1.80196e-08
-4.01108e-08
-8.75481e-08
-1.21294e-07
-7.7692e-08
-7.57194e-07
-6.66499e-08
-8.45653e-07
-5.50243e-08
-8.24693e-07
-1.99432e-09
-4.37143e-07
-1.01242e-08
3.32843e-08
9.70331e-09
5.55301e-08
4.26688e-08
7.0665e-08
1.14546e-07
-1.44028e-07
-3.17078e-08
1.4336e-07
-6.89249e-08
-1.535e-09
2.36006e-08
-5.80389e-08
-7.00691e-07
-3.86082e-08
-8.65084e-07
-2.11791e-08
-8.42122e-07
8.94815e-08
-5.47803e-07
2.94603e-08
9.33057e-08
-1.42726e-08
9.9263e-08
2.3323e-08
5.07314e-09
-1.80105e-07
-2.2084e-07
2.56918e-07
-1.09061e-07
-1.39969e-07
-4.55407e-08
-3.99205e-08
4.07427e-08
-7.86974e-07
-3.97182e-10
-8.23944e-07
-3.37228e-08
-8.08796e-07
1.14865e-08
-5.93012e-07
1.30261e-07
-2.54692e-08
1.38272e-07
9.12518e-08
7.47365e-08
8.68585e-08
-3.12223e-07
-3.51765e-07
4.43148e-07
-1.62639e-07
-2.89552e-07
-5.01344e-08
-1.52425e-07
-3.27819e-09
-8.33831e-07
-5.51668e-09
-8.21705e-07
-2.94817e-09
-8.11364e-07
2.27252e-08
-6.18686e-07
1.91862e-07
-1.94607e-07
2.48867e-07
3.42477e-08
6.95935e-08
2.5401e-07
2.2324e-07
-2.93316e-07
-2.81692e-07
-6.66971e-08
3.80426e-10
1.63422e-08
-2.35466e-07
1.6964e-08
-8.34453e-07
-2.21748e-09
-8.02524e-07
-9.1848e-09
-8.04397e-07
1.84681e-08
-6.46338e-07
7.82621e-09
-1.83965e-07
6.79173e-08
-2.58437e-08
-2.70929e-08
1.64603e-07
-2.69726e-07
-3.35057e-08
9.92122e-09
-3.31781e-07
6.24502e-08
4.35896e-08
-6.10816e-07
1.88259e-08
-8.0968e-07
-2.86249e-08
-7.55073e-07
-6.8052e-08
-7.6497e-07
-6.16886e-08
-6.52702e-07
-1.51215e-07
-9.44394e-08
-6.61976e-08
-1.1086e-07
-6.81725e-08
-2.5118e-08
-1.77337e-07
-4.35506e-08
1.87354e-07
-5.5859e-09
-1.09347e-07
3.49176e-08
-6.51315e-07
-3.92005e-09
-7.7084e-07
-2.14153e-08
-7.37577e-07
-5.22176e-08
-7.34168e-07
-1.60313e-08
-6.88888e-07
-7.78688e-08
-3.2602e-08
-6.94822e-08
-1.19247e-07
-6.46609e-08
-7.2994e-08
2.18483e-08
-9.64763e-08
3.10733e-08
6.48021e-08
-1.52346e-07
2.21831e-08
-6.087e-07
-1.33146e-08
-7.35349e-07
-1.95011e-08
-7.31391e-07
-2.21265e-08
-7.31542e-07
2.875e-08
-7.39765e-07
1.16255e-08
-1.54776e-08
-8.98415e-09
-9.86371e-08
-4.23014e-08
-3.1344e-08
7.86121e-08
-7.48879e-08
-1.00201e-07
6.59213e-08
-1.39625e-07
3.90734e-08
-5.81856e-07
1.81562e-08
-7.14426e-07
-8.57563e-09
-7.04659e-07
-3.87312e-08
-7.01387e-07
-3.65603e-08
-7.41936e-07
1.64179e-07
-2.16217e-07
-2.5087e-07
3.16414e-07
1.35046e-07
-4.2821e-07
3.46891e-08
-1.05961e-07
-3.61835e-09
7.2561e-08
-1.77485e-07
5.88423e-08
-5.68156e-07
3.06231e-08
-6.86203e-07
2.95615e-09
-6.76992e-07
-2.63179e-08
-6.72113e-07
-6.78661e-08
-7.00389e-07
2.13523e-07
-4.97607e-07
3.37535e-07
1.924e-07
1.53806e-07
3.18772e-07
1.43887e-08
-1.6371e-07
4.33693e-08
8.26413e-08
-2.45726e-07
6.6127e-08
-5.51644e-07
3.97451e-08
-6.59828e-07
2.67185e-09
-6.39918e-07
-2.58561e-08
-6.43585e-07
-6.98812e-08
-6.56363e-07
-1.95491e-08
-5.47929e-07
1.2594e-07
4.69324e-08
5.13358e-08
2.28416e-07
8.35779e-09
-2.37193e-07
6.51213e-08
7.58374e-08
-3.13153e-07
5.73765e-08
-5.33177e-07
2.66868e-08
-6.29146e-07
-1.4397e-09
-6.11792e-07
-2.95806e-08
-6.15444e-07
-6.06131e-08
-6.25329e-07
-1.04555e-07
-5.03991e-07
2.50619e-08
-8.269e-08
8.42007e-09
6.7979e-08
2.6985e-08
-2.80148e-07
1.59736e-08
6.34346e-08
-3.49622e-07
5.68449e-08
-5.26567e-07
2.30165e-08
-5.95308e-07
-3.40702e-09
-5.85368e-07
-3.52271e-08
-5.83624e-07
-6.31393e-08
-5.97417e-07
-5.96737e-08
-5.07453e-07
-2.63207e-08
-1.16035e-07
1.9881e-08
-3.77801e-08
9.10634e-08
-2.48208e-07
-1.23007e-07
5.34926e-08
-3.12075e-07
6.26516e-08
-5.35738e-07
2.79816e-08
-5.60637e-07
7.48716e-10
-5.58135e-07
-2.87791e-08
-5.54096e-07
-6.31668e-08
-5.63029e-07
-3.67853e-08
-5.33832e-07
-2.63093e-08
-1.26512e-07
4.1585e-08
-4.80166e-08
1.54976e-07
-1.63284e-07
-2.39889e-07
6.62145e-08
-2.23228e-07
6.53137e-08
-5.34844e-07
3.42554e-08
-5.29579e-07
-2.10785e-09
-5.21772e-07
-3.14329e-08
-5.24771e-07
-6.81199e-08
-5.26342e-07
-6.98793e-08
-5.32072e-07
-7.02473e-08
-1.26152e-07
8.13963e-08
-1.10068e-07
1.59715e-07
-9.98661e-08
-2.23123e-07
1.33936e-07
-1.97428e-07
7.543e-08
-4.76343e-07
3.50326e-08
-4.89182e-07
-9.72463e-10
-4.85767e-07
-3.40545e-08
-4.91689e-07
-6.82728e-08
-4.92124e-07
-1.15923e-07
-4.84423e-07
-1.00603e-07
-1.41476e-07
1.36667e-07
-1.55871e-07
1.46014e-07
-1.17342e-08
-2.3415e-07
1.0769e-07
-1.59108e-07
7.00682e-08
-4.38718e-07
2.99617e-08
-4.49075e-07
-2.68903e-09
-4.53116e-07
-4.54551e-08
-4.48923e-07
-8.47349e-08
-4.52844e-07
-1.29983e-07
-4.39175e-07
-1.10437e-07
-1.61032e-07
1.62493e-07
-1.36269e-07
1.14371e-07
3.63195e-08
-1.6243e-07
1.44688e-07
-1.89431e-07
9.17266e-08
-3.85758e-07
4.11049e-08
-3.98454e-07
-1.51756e-09
-4.10494e-07
-4.11305e-08
-4.0931e-07
-8.60576e-08
-4.07917e-07
-1.3614e-07
-3.89093e-07
-9.8561e-08
-1.98611e-07
1.5885e-07
-9.49144e-08
4.82807e-08
-4.3604e-08
3.1646e-08
1.28152e-07
-2.69281e-07
8.65076e-08
-3.44114e-07
5.05992e-08
-3.62545e-07
8.01648e-09
-3.67911e-07
-3.58426e-08
-3.65451e-07
-9.07637e-08
-3.52996e-07
-1.36407e-07
-3.4345e-07
-5.68037e-08
-2.78222e-07
6.58578e-08
3.6186e-08
1.23872e-07
-1.13545e-07
-5.39281e-08
1.36305e-07
-2.81703e-07
9.29784e-08
-3.00787e-07
3.95369e-08
-3.09104e-07
-1.38077e-08
-3.14567e-07
-6.09158e-08
-3.18343e-07
-9.69619e-08
-3.1695e-07
-1.37556e-07
-3.02856e-07
-1.3398e-07
-2.81797e-07
-5.75266e-08
-1.05914e-08
2.14126e-07
-2.03692e-07
-1.23975e-07
1.52751e-07
-2.20328e-07