/*--------------------------------*- C++ -*----------------------------------*\
  =========                 |
  \\      /  F ield         | OpenFOAM: The Open Source CFD Toolbox
   \\    /   O peration     | Website:  https://openfoam.org
    \\  /    A nd           | Version:  8
     \\/     M anipulation  |
\*---------------------------------------------------------------------------*/
FoamFile
{
    version     2.0;
    format      ascii;
    class       volScalarField;
    location    "8.05";
    object      alpha.water;
}
// * * * * * * * * * * * * * * * * * * * * * * * * * * * * * * * * * * * * * //

dimensions      [0 0 0 0 0 0 0];

internalField   nonuniform List<scalar> 
9150
(
1
1
1
1
1
1
1
1
1
1
1
1
1
1
1
1
1
1
1
1
1
1
1
1
1
1
1
1
1
1
1
1
1
1
1
1
1
1
1
1
1
1
1
1
1
1
1
1
1
1
1
1
1
1
1
1
1
1
1
1
1
1
1
1
1
1
1
1
1
1
1
1
1
1
1
1
1
1
1
1
1
1
1
1
1
1
1
1
1
1
1
1
1
1
1
1
1
1
1
1
1
1
1
1
1
1
1
1
1
1
1
1
1
1
1
1
1
1
1
1
1
1
1
1
1
1
1
1
1
1
1
1
1
1
1
1
1
1
1
1
1
1
1
1
1
1
1
1
1
1
0.996907
0.996037
0.995977
0.996458
0.996961
0.998494
0.998494
0.998494
0.998494
0.997801
0.998377
0.990327
0.989788
0.989788
0.989796
0.993804
0.998494
0.998494
0.998429
0.997376
0.998436
0.998438
0.990662
0.989799
0.997097
0.997721
0.997724
0.997668
0.997668
0.998059
0.998462
0.99846
0.998455
0.996297
0.995495
0.996512
0.998595
0.998652
0.99857
0.997942
0.99852
0.997778
0.995494
0.995494
0.995494
0.997538
0.998668
0.998668
0.998667
0.993894
0.998524
0.997091
0.995494
0.995494
0.995683
0.998668
0.998668
0.998668
0.998605
0.991291
0.998668
0.998668
0.998232
0.996246
0.998501
0.998668
0.998668
0.998668
0.998668
0.996467
0.998619
0.998668
0.998601
0.998668
0.998668
0.998668
0.998668
0.998668
0.998668
0.998668
0.998668
0.998668
0.998668
0.998668
0.998668
0.998668
0.998668
0.998668
0.998313
0.985264
0.998668
0.998668
0.998481
0.998668
0.998668
0.998668
0.998115
0.976891
0.972507
0.972511
0.998668
0.998668
0.997067
0.982671
0.977041
0.988843
0.975311
0.97042
0.973189
0.998679
0.998668
0.991504
0.984633
0.96879
0.968788
0.96879
0.968887
0.971715
0.99809
0.998679
0.998667
0.996781
0.971302
0.968788
0.968786
0.968787
0.96879
0.983008
0.998679
0.998679
0.998666
0.997754
0.968891
0.968786
0.968786
0.968786
0.968787
0.981549
0.998679
0.998679
0.998641
0.984069
0.968787
0.968786
0.968786
0.982345
0.989163
0.981459
0.998656
0.998665
0.980264
0.976579
0.968787
0.968787
0.970468
0.995019
0.994874
0.988039
0.997252
0.998656
0.986545
0.993892
0.972671
0.968794
0.992441
0.995019
0.99471
0.97886
0.992182
0.998678
0.99862
0.998598
0.996006
0.994849
0.990859
0.986128
0.978637
0.978735
0.985669
0.99868
0.998624
0.99862
0.998218
0.983452
0.978728
0.978637
0.978637
0.978637
0.990047
0.99868
0.998624
0.998624
0.998091
0.981617
0.97883
0.978728
0.985071
0.990306
0.998332
0.99868
0.998624
0.998624
0.998623
0.99646
0.993236
0.994691
0.998226
0.998667
0.99868
0.99868
0.984726
0.996167
0.998574
0.99837
0.99824
0.998303
0.998302
0.997699
0.996699
0.996629
0.970176
0.970076
0.970075
0.970075
0.970077
0.99751
0.998303
0.998284
0.998117
0.996629
0.983469
0.983334
0.989619
0.99577
0.992572
0.957598
0.948078
0.947742
0.980994
0.998548
0.832389
0.935149
0.997845
0.997918
0.99798
0.998043
0.963684
0.946229
0.945955
0.94585
0.818213
0.81821
0.852484
0.982981
0.998043
0.998095
0.99815
0.955854
0.94585
0.94585
0.81815
0.818155
0.81821
0.944473
0.998073
0.998152
0.998157
0.983969
0.945867
0.94585
0.818147
0.81815
0.920818
0.996227
0.998153
0.998157
0.998157
0.998157
0.958924
0.945867
0.846179
0.973192
0.997659
0.998153
0.998155
0.998155
0.998157
0.984866
0.984304
0.992184
0.971489
0.990625
0.969716
0.960207
0.960054
0.960091
0.969928
0.97151
0.997939
0.998309
0.989416
0.984992
0.978455
0.988278
0.992572
0.987462
0.993029
0.988904
0.964234
0.93546
0.997778
0.997542
0.996174
0.994869
0.994965
0.994977
0.994966
0.994956
0.938929
0.921364
0.994783
0.995817
0.99604
0.981099
0.930178
0.976594
0.994807
0.994908
0.993465
0.989942
0.997106
0.98068
0.923829
0.922837
0.922837
0.922837
0.923059
0.951553
0.993991
0.994502
0.996927
0.971758
0.927314
0.934614
0.949007
0.928542
0.923429
0.923694
0.98368
0.994885
0.97682
0.971793
0.964168
0.956322
0.948951
0.949093
0.948189
0.941749
0.821281
0.912391
0.808314
0.797429
0.791927
0.708144
0.710143
0.827132
0.784208
0.679577
0.658535
0.658088
0.657847
0.658099
0.658158
0.658182
0.658197
0.658224
0.658203
0.658327
0.658407
0.658481
0.65765
0.658161
0.658334
0.658242
0.658251
0.65821
0.658085
0.658224
0.658341
0.658152
0.662919
0.662927
0.662927
0.662927
0.662927
0.66176
0.65799
0.658084
0.658251
0.659043
0.657031
0.657334
0.657494
0.65697
0.65727
0.657329
0.657564
0.658013
0.671448
0.905148
0.657119
0.657384
0.65695
0.656667
0.656956
0.674064
0.905349
0.987595
0.987685
0.987647
0.658228
0.672242
0.660007
0.694279
0.87058
0.952751
0.953151
0.96348
0.975972
0.987623
0.989565
0.991162
0.993466
0.979724
0.89466
0.860468
0.856593
0.854806
0.852673
0.966729
0.987692
0.990239
0.993863
0.993872
0.993891
0.993871
0.993742
0.983173
0.844852
0.787012
0.684066
0.823957
0.993831
0.993891
0.993891
0.993891
0.993871
0.993744
0.993057
0.921438
0.683791
0.684066
0.770542
0.993881
0.993891
0.993881
0.993803
0.993451
0.991804
0.850979
0.683789
0.683791
0.720192
0.991493
0.993881
0.993825
0.993525
0.99255
0.991186
0.988045
0.683789
0.683789
0.755441
0.993596
0.993825
0.991859
0.974747
0.990476
0.98902
0.98615
0.683789
0.684135
0.716396
0.986772
0.993645
0.99337
0.933717
0.806491
0.930946
0.984628
0.745579
0.691483
0.865484
0.991523
0.993509
0.993509
0.97445
0.636058
0.48884
0.939744
0.991778
0.991737
0.97042
0.992625
0.993509
0.992689
0.990637
0.741752
0.341419
0.468218
0.991737
0.991184
0.93068
0.864175
0.953629
0.931172
0.779698
0.597511
0.338609
0.332194
0.970098
0.963532
0.897237
0.703862
0.528779
0.473458
0.360892
0.332221
0.332192
0.332192
0.881287
0.881783
0.967401
0.959425
0.501762
0.332628
0.332221
0.332192
0.332191
0.332192
0.995322
0.993173
0.990816
0.988457
0.957713
0.446315
0.332581
0.332221
0.332192
0.332191
0.929782
0.787915
0.833502
0.971842
0.830463
0.414146
0.58861
0.539491
0.335368
0.332209
0.459406
0.288698
0.288047
0.287974
0.28832
0.343373
0.619051
0.619051
0.55047
0.332826
0.288673
0.288047
0.287958
0.28795
0.287965
0.288036
0.406823
0.619051
0.479689
0.341202
0.288181
0.287958
0.287951
0.287957
0.287954
0.287965
0.288036
0.455798
0.482378
0.490859
0.288492
0.288181
0.362378
0.432558
0.590857
0.661963
0.662962
0.573898
0.696149
0.96416
0.464429
0.427419
0.486234
0.464158
0.482951
0.600849
0.692587
0.942355
0.98707
0.98727
0.506164
0.556479
0.520846
0.631109
0.830537
0.981171
0.981952
0.982533
0.984998
0.98707
0.724052
0.814743
0.979702
0.977185
0.963332
0.925137
0.942071
0.947941
0.929429
0.960958
0.980757
0.980128
0.980152
0.853679
0.670199
0.496689
0.480482
0.486416
0.469687
0.526584
0.966495
0.980211
0.965861
0.479483
0.395082
0.395051
0.394997
0.394997
0.394997
0.394996
0.663204
0.88288
0.931966
0.682946
0.395981
0.395165
0.395051
0.394999
0.394996
0.394997
0.532648
0.748782
0.971735
0.974062
0.611336
0.396012
0.39547
0.395211
0.395118
0.395158
0.53141
0.822758
0.974955
0.974955
0.95755
0.697913
0.563241
0.452943
0.397313
0.432517
0.637974
0.96471
0.974545
0.974955
0.974545
0.970736
0.968444
0.936107
0.790505
0.889948
0.912231
0.971554
0.973752
0.974017
0.951845
0.966486
0.964914
0.963609
0.954262
0.918422
0.958707
0.929934
0.915094
0.776764
0.873127
0.964161
0.963609
0.846057
0.681787
0.503887
0.918418
0.900564
0.768438
0.669258
0.914514
0.965045
0.873169
0.496411
0.496834
0.496356
0.917381
0.850207
0.668556
0.668544
0.954272
0.965108
0.821602
0.49967
0.496046
0.522295
0.969167
0.76161
0.668534
0.679685
0.953057
0.965112
0.950572
0.67587
0.587571
0.925459
0.972777
0.736348
0.668663
0.686379
0.948379
0.96511
0.948294
0.990589
0.99108
0.970995
0.978596
0.87046
0.668973
0.681404
0.94701
0.96511
0.6233
0.926632
0.99108
0.991082
0.97938
0.954814
0.710786
0.681992
0.958738
0.962401
0.572977
0.893835
0.991081
0.99108
0.980149
0.978079
0.843877
0.70133
0.964524
0.962979
0.572669
0.9268
0.991081
0.991075
0.982201
0.981532
0.838341
0.823575
0.965698
0.969184
0.57327
0.936568
0.991083
0.991081
0.984095
0.984231
0.918838
0.825551
0.960766
0.986159
0.573954
0.926556
0.991082
0.991083
0.97737
0.984372
0.967717
0.826377
0.960153
0.990658
0.813671
0.937866
0.991083
0.901352
0.984372
0.984372
0.982172
0.834569
0.980062
0.990689
0.935
0.61152
0.702134
0.388086
0.98437
0.984372
0.98436
0.947117
0.989046
0.990658
0.893949
0.353219
0.285159
0.279652
0.984369
0.984365
0.984145
0.967598
0.990881
0.990658
0.823304
0.309636
0.278613
0.278623
0.984364
0.98431
0.74268
0.889062
0.992086
0.990881
0.672371
0.278268
0.277667
0.277987
0.98431
0.870964
0.412578
0.933534
0.992506
0.964948
0.567366
0.277667
0.277491
0.277667
0.957371
0.589091
0.341348
0.972841
0.993443
0.941883
0.521553
0.371429
0.277429
0.305329
0.778435
0.590785
0.334024
0.975943
0.995236
0.938818
0.475363
0.381883
0.27742
0.401245
0.696655
0.586966
0.285522
0.924815
0.996452
0.980188
0.511739
0.27742
0.277419
0.290435
0.258658
0.561931
0.156697
0.797393
0.996946
0.996452
0.71326
0.277419
0.277419
0.277419
0.0114149
0.422584
0.0469792
0.744003
0.997066
0.997539
0.827929
0.453312
0.385233
0.451544
0.0113281
0.0929352
0.0469792
0.75688
0.997141
0.99856
0.856596
0.26561
0.495704
0.498061
0.012755
0.00322224
0.0531164
0.854482
0.998728
0.999458
0.879146
0.251273
0.359713
0.198633
0.00488483
0.00208091
0.16224
0.917652
0.999521
0.999558
0.966062
0.246256
0.059368
0.000185477
0.00175316
0.0018704
0.319496
0.965756
0.999804
0.999894
0.987931
0.439223
0.000185477
0.000139842
0.00159009
0.0017222
0.632307
0.999848
0.999936
0.999927
0.999901
0.720089
0.000492363
0.000205751
0.000260118
0.0437627
0.859918
0.999951
0.999983
0.999998
0.999938
0.898909
0.14869
2.04509e-07
0.000115788
0.504367
0.994923
0.999983
1
1
0.999998
0.999796
0.632369
1.63466e-09
0.277405
0.955251
1
1
1
1
1
1
0.973105
0.342704
0.996584
0.998477
0.998613
0.998613
0.998613
0.998613
0.998613
0.99833
0.994877
0.993292
0.995347
0.996257
0.996861
0.998214
0.998214
0.998214
0.998214
0.998214
0.998214
0.998213
0.995006
0.995006
0.995006
0.995007
0.996317
0.99676
0.996761
0.996679
0.99522
0.99521
0.996058
0.996351
0.996385
0.996498
0.996598
0.996602
0.996601
0.996001
0.995575
0.995575
0.998472
0.998613
0.998613
0.998613
0.998613
0.998613
0.99861
0.992498
0.950453
0.945496
0.945323
0.945307
0.945301
0.951952
0.99753
0.998214
0.998214
0.998214
0.998214
0.998214
0.998208
0.998202
0.998201
0.998196
0.997105
0.995763
0.99676
0.994998
0.973021
0.972031
0.972027
0.975964
0.974262
0.979621
0.987006
0.991462
0.996588
0.997838
0.997972
0.996441
0.998613
0.998613
0.998613
0.998613
0.998613
0.998613
0.998613
0.996477
0.990147
0.990238
0.990238
0.957068
0.945301
0.945291
0.945317
0.95221
0.992157
0.998214
0.998214
0.998214
0.998214
0.998212
0.998208
0.993603
0.988178
0.98832
0.993178
0.997656
0.990684
0.978332
0.962197
0.937455
0.935835
0.935835
0.935835
0.935835
0.957975
0.990731
0.998434
0.998431
0.993077
0.990758
0.995695
0.998613
0.998613
0.998613
0.997618
0.988757
0.984178
0.985882
0.989725
0.975945
0.985886
0.99157
0.993499
0.99471
0.978213
0.960329
0.968117
0.995345
0.995435
0.981904
0.981899
0.981904
0.981919
0.993718
0.99485
0.998245
0.998464
0.998464
0.998464
0.992265
0.935835
0.935835
0.935835
0.935859
0.935905
0.972416
0.998445
0.998179
0.99021
0.990209
0.990209
0.990757
0.99568
0.998189
0.998079
0.998067
0.991894
0.981908
0.978427
0.978158
0.981328
0.984848
0.997171
0.997183
0.986911
0.96028
0.960263
0.960261
0.976142
0.995224
0.995221
0.994809
0.984856
0.979599
0.987613
0.995176
0.998464
0.998464
0.998464
0.998161
0.965531
0.947665
0.952372
0.951593
0.96795
0.99642
0.998464
0.989261
0.990209
0.990209
0.990209
0.990361
0.997241
0.995447
0.994534
0.996115
0.996796
0.996828
0.996856
0.98724
0.98134
0.986367
0.997038
0.991808
0.994467
0.990757
0.968818
0.960261
0.960261
0.976826
0.995226
0.967823
0.960494
0.960493
0.960494
0.972997
0.998464
0.998464
0.998464
0.998465
0.998465
0.998465
0.998465
0.998465
0.998465
0.998465
0.998464
0.986718
0.994146
0.993732
0.990209
0.993531
0.997558
0.997558
0.997558
0.991525
0.991764
0.996388
0.996852
0.99682
0.996361
0.994264
0.982629
0.974351
0.985485
0.998025
0.996919
0.991198
0.98956
0.991103
0.988955
0.960514
0.960493
0.960494
0.960945
0.976412
0.996333
0.998464
0.998464
0.998464
0.998465
0.998465
0.998465
0.998465
0.998465
0.998464
0.998458
0.978487
0.997738
0.995228
0.990238
0.990976
0.997462
0.997558
0.974997
0.972647
0.975074
0.945063
0.945066
0.974033
0.979233
0.974853
0.974351
0.974352
0.986973
0.998025
0.998025
0.998018
0.997989
0.997719
0.974474
0.960512
0.965539
0.97692
0.993543
0.998186
0.998214
0.998233
0.997912
0.997666
0.998101
0.998463
0.998464
0.998464
0.994934
0.988613
0.969959
0.969947
0.979012
0.981887
0.992326
0.998661
0.9986
0.937249
0.803874
0.804088
0.821729
0.970195
0.99628
0.991211
0.977069
0.974653
0.974918
0.988073
0.997825
0.998025
0.998003
0.993861
0.966603
0.966545
0.966548
0.968623
0.996124
0.996129
0.996074
0.994799
0.994667
0.994075
0.970303
0.945598
0.953534
0.985575
0.994044
0.992173
0.971701
0.970114
0.970033
0.970312
0.991245
0.998679
0.998679
0.998679
0.991604
0.83207
0.803874
0.803843
0.80988
0.99415
0.997866
0.997864
0.995907
0.993953
0.995869
0.997628
0.997703
0.9938
0.9855
0.9855
0.986908
0.998739
0.998183
0.992847
0.98383
0.973735
0.960245
0.956527
0.973591
0.992951
0.945748
0.920662
0.920662
0.920662
0.923677
0.966412
0.987543
0.987755
0.987758
0.987758
0.998679
0.998679
0.998679
0.998678
0.998389
0.890895
0.803852
0.803874
0.874758
0.997866
0.997865
0.997866
0.997864
0.997836
0.9953
0.980089
0.980302
0.988573
0.998875
0.998239
0.998916
0.998879
0.982381
0.946905
0.946905
0.946905
0.947341
0.959059
0.983109
0.998561
0.986386
0.948424
0.922084
0.920688
0.921129
0.921545
0.943165
0.971702
0.987718
0.987758
0.998679
0.998679
0.998459
0.998655
0.998629
0.948447
0.803874
0.848187
0.997522
0.997798
0.989066
0.985726
0.997836
0.985391
0.978785
0.978785
0.980422
0.99892
0.998922
0.998922
0.998922
0.998923
0.997446
0.962778
0.947023
0.979097
0.998927
0.998927
0.998927
0.998577
0.998932
0.998935
0.998935
0.973523
0.956864
0.965287
0.946588
0.94843
0.980484
0.972518
0.998679
0.997903
0.994906
0.996026
0.997878
0.987874
0.96386
0.964469
0.958029
0.942672
0.94325
0.949326
0.995272
0.99837
0.989033
0.984967
0.997959
0.998922
0.998922
0.998922
0.998923
0.998924
0.998925
0.998927
0.998927
0.998927
0.998927
0.998928
0.998929
0.998932
0.998935
0.998935
0.998935
0.998935
0.998935
0.998935
0.996734
0.998736
0.996759
0.901036
0.997523
0.992901
0.997055
0.997913
0.997913
0.997844
0.976713
0.942021
0.94206
0.942315
0.942484
0.965611
0.998458
0.998491
0.998599
0.998767
0.998915
0.99892
0.998853
0.998817
0.998922
0.998923
0.998924
0.998925
0.998927
0.998927
0.998927
0.998927
0.998927
0.998928
0.998858
0.998935
0.998935
0.998935
0.998935
0.998935
0.998934
0.998763
0.962453
0.890784
0.997802
0.969928
0.964343
0.997913
0.997908
0.994779
0.946569
0.942021
0.941999
0.94206
0.964804
0.995477
0.994648
0.990685
0.990685
0.99625
0.991846
0.972327
0.97132
0.971199
0.974898
0.982451
0.982684
0.992976
0.998914
0.998922
0.998924
0.998015
0.996056
0.998497
0.998865
0.998935
0.998935
0.998935
0.998935
0.998934
0.998934
0.994487
0.924453
0.890779
0.997292
0.949631
0.931947
0.986973
0.997803
0.997712
0.965498
0.942006
0.942027
0.959986
0.995643
0.99569
0.994191
0.996729
0.998344
0.998476
0.998484
0.998494
0.996559
0.971808
0.919124
0.885722
0.885498
0.903199
0.956021
0.970795
0.962065
0.947578
0.906436
0.946236
0.985907
0.99893
0.998934
0.998931
0.998931
0.998934
0.998704
0.998122
0.938704
0.890779
0.998605
0.960938
0.931947
0.932861
0.984585
0.997595
0.997257
0.976871
0.969232
0.992495
0.995679
0.995826
0.998037
0.99813
0.998232
0.997146
0.998494
0.998494
0.998494
0.998492
0.998466
0.943682
0.885497
0.885497
0.885497
0.885497
0.885497
0.885499
0.885501
0.885502
0.893147
0.98634
0.998929
0.997195
0.996932
0.998931
0.998928
0.998922
0.958088
0.890779
0.998678
0.995527
0.951146
0.93234
0.932155
0.947581
0.984111
0.995009
0.995641
0.995817
0.995959
0.992496
0.961397
0.896255
0.883694
0.974641
0.99844
0.998494
0.998492
0.998489
0.998424
0.943571
0.885497
0.885496
0.885497
0.885497
0.885499
0.885501
0.885502
0.885507
0.885511
0.962667
0.998612
0.982337
0.982361
0.998928
0.998923
0.998916
0.984341
0.895421
0.99868
0.998679
0.996441
0.971076
0.947892
0.940475
0.940475
0.944983
0.968142
0.982624
0.996022
0.996916
0.893446
0.88131
0.881264
0.881232
0.915623
0.998487
0.998489
0.996415
0.995692
0.940107
0.885498
0.885497
0.885498
0.885502
0.892203
0.896083
0.885552
0.885511
0.88555
0.966599
0.997676
0.980574
0.980539
0.998666
0.998919
0.998484
0.992238
0.994582
0.99868
0.99868
0.998679
0.998665
0.996512
0.987935
0.982995
0.963849
0.961539
0.961539
0.98262
0.998083
0.909167
0.881266
0.881232
0.88123
0.881231
0.964875
0.998347
0.985666
0.939998
0.939534
0.940073
0.901035
0.887226
0.887441
0.965691
0.997088
0.962025
0.888073
0.885557
0.970866
0.99762
0.983217
0.980539
0.99202
0.998916
0.99891
0.996991
0.994616
0.998422
0.998679
0.998677
0.998676
0.998669
0.998627
0.998452
0.99809
0.980032
0.96176
0.985441
0.998619
0.94858
0.881388
0.88124
0.881231
0.88123
0.892324
0.991612
0.998567
0.909274
0.795589
0.839805
0.888822
0.953479
0.964142
0.978777
0.997242
0.997359
0.981066
0.885688
0.972207
0.997566
0.997767
0.980539
0.982032
0.99891
0.998905
0.99848
0.992398
0.996629
0.997307
0.998676
0.998405
0.998627
0.998597
0.988652
0.987061
0.994402
0.993696
0.997321
0.998698
0.998639
0.895316
0.881267
0.881233
0.881231
0.937469
0.998573
0.998674
0.998567
0.834246
0.737129
0.736976
0.841844
0.991032
0.996998
0.99682
0.99744
0.997376
0.951976
0.965317
0.997977
0.998479
0.984708
0.980587
0.994959
0.998903
0.998898
0.992327
0.998528
0.998614
0.998148
0.96981
0.85035
0.909734
0.983326
0.99526
0.998684
0.998696
0.998702
0.998705
0.998707
0.983106
0.887962
0.88997
0.963454
0.998687
0.998722
0.998681
0.977445
0.752681
0.736976
0.736976
0.736976
0.94176
0.997214
0.997456
0.997523
0.997452
0.963928
0.93862
0.99144
0.998581
0.996812
0.980587
0.985456
0.99869
0.998892
0.99299
0.998614
0.998614
0.954388
0.848002
0.847943
0.902393
0.989847
0.998684
0.998696
0.998702
0.998705
0.998708
0.99871
0.998709
0.988413
0.991102
0.997736
0.998734
0.998728
0.998722
0.877494
0.737314
0.737004
0.736976
0.785287
0.981693
0.99726
0.997828
0.997594
0.997523
0.951808
0.931589
0.985736
0.998736
0.998738
0.984927
0.984222
0.997091
0.993912
0.994945
0.988024
0.998614
0.987686
0.860166
0.847992
0.848318
0.948224
0.960226
0.982379
0.998705
0.998708
0.998708
0.998711
0.998722
0.998732
0.998734
0.998734
0.998734
0.998734
0.968764
0.753522
0.73781
0.737314
0.7848
0.981478
0.998734
0.998646
0.998119
0.997639
0.997579
0.92361
0.931125
0.993079
0.998738
0.99874
0.997768
0.993382
0.996532
0.974985
0.990158
0.950256
0.994557
0.995932
0.983748
0.924782
0.94808
0.951846
0.943232
0.943181
0.944043
0.95777
0.985886
0.998722
0.998732
0.998734
0.998735
0.998734
0.998734
0.995584
0.949555
0.956432
0.978668
0.997474
0.998737
0.998737
0.998735
0.998734
0.998296
0.998181
0.965616
0.905898
0.923299
0.993634
0.99874
0.998741
0.998741
0.998741
0.998741
0.974959
0.9696
0.953033
0.996231
0.99843
0.992946
0.992615
0.994168
0.992314
0.971095
0.965933
0.959477
0.951421
0.953154
0.994498
0.998729
0.998735
0.998735
0.998658
0.998589
0.99871
0.998735
0.998737
0.998737
0.998737
0.998737
0.998737
0.998737
0.99352
0.991333
0.935949
0.905876
0.905878
0.929649
0.996633
0.99874
0.998741
0.998741
0.998741
0.998741
0.976714
0.963413
0.985439
0.99843
0.998435
0.998435
0.998434
0.996009
0.996166
0.998553
0.998672
0.998022
0.990743
0.990666
0.995279
0.998731
0.998735
0.998735
0.998735
0.998735
0.998736
0.998736
0.998713
0.998737
0.998737
0.998737
0.998737
0.998364
0.93645
0.905892
0.905876
0.905876
0.905876
0.932002
0.996958
0.998737
0.998741
0.998741
0.998741
0.998741
0.976156
0.963413
0.998427
0.998435
0.998435
0.998435
0.998435
0.989375
0.995345
0.998728
0.998732
0.998732
0.998733
0.998733
0.998638
0.998735
0.998735
0.998735
0.998662
0.998736
0.998736
0.998187
0.99769
0.997812
0.998736
0.998737
0.998736
0.924219
0.905938
0.905914
0.905892
0.905876
0.909959
0.98433
0.998722
0.99874
0.998741
0.998741
0.998741
0.998741
0.984207
0.963413
0.998346
0.989735
0.9945
0.99723
0.995773
0.988233
0.995534
0.998733
0.998732
0.998733
0.998733
0.998734
0.998734
0.998734
0.998735
0.996694
0.996431
0.998732
0.998736
0.998268
0.99769
0.997866
0.99872
0.998736
0.991697
0.917547
0.906272
0.905938
0.905914
0.938425
0.996898
0.998733
0.998739
0.998741
0.998737
0.998716
0.99874
0.998741
0.995397
0.963439
0.95475
0.98317
0.975343
0.957674
0.964627
0.990831
0.998725
0.998729
0.998732
0.998732
0.998733
0.998733
0.998733
0.96935
0.893856
0.965332
0.998688
0.998731
0.998734
0.997867
0.998645
0.998646
0.998522
0.996987
0.99696
0.994894
0.926435
0.953317
0.998024
0.998704
0.998733
0.998739
0.998741
0.998741
0.998741
0.998741
0.998741
0.998741
0.998741
0.965047
0.921364
0.921364
0.968315
0.961553
0.896344
0.933443
0.996421
0.997898
0.998732
0.998731
0.998732
0.998733
0.977241
0.871327
0.867429
0.904749
0.996037
0.998694
0.997793
0.99758
0.998626
0.998646
0.986212
0.986088
0.988043
0.997908
0.998511
0.998539
0.998537
0.998606
0.998703
0.998575
0.998448
0.998741
0.998741
0.998741
0.998741
0.998741
0.998741
0.982285
0.951466
0.946133
0.989394
0.994962
0.931698
0.839304
0.837136
0.873344
0.978955
0.996236
0.998723
0.998732
0.998725
0.891494
0.866675
0.866097
0.964509
0.998547
0.995227
0.997597
0.99704
0.980742
0.980814
0.987407
0.985415
0.964637
0.992631
0.998544
0.998543
0.994277
0.991724
0.984372
0.973117
0.976289
0.995389
0.998741
0.998741
0.998741
0.998741
0.998741
0.99477
0.994891
0.994978
0.99498
0.994968
0.885729
0.834497
0.833959
0.833892
0.901952
0.997901
0.998724
0.998725
0.951852
0.866097
0.866029
0.867672
0.923057
0.976504
0.993896
0.979008
0.979048
0.993124
0.990079
0.936063
0.941557
0.998544
0.998544
0.998545
0.987525
0.969684
0.968653
0.972896
0.989304
0.998159
0.99874
0.998741
0.998741
0.998741
0.998741
0.994967
0.994978
0.99498
0.99498
0.99498
0.952354
0.834189
0.833844
0.833959
0.867778
0.992484
0.998704
0.998727
0.971409
0.866179
0.865991
0.865978
0.866027
0.965348
0.981978
0.979009
0.992922
0.993124
0.953207
0.906775
0.945936
0.998543
0.998544
0.998543
0.997487
0.981605
0.968597
0.987391
0.998224
0.998224
0.995572
0.989399
0.994383
0.998741
0.992216
0.994885
0.994967
0.994979
0.99498
0.994979
0.919416
0.834427
0.834158
0.850744
0.979531
0.998703
0.998728
0.998729
0.953761
0.865991
0.865978
0.865975
0.865978
0.976854
0.990947
0.987233
0.969116
0.992597
0.927175
0.906484
0.926969
0.998522
0.998543
0.998522
0.993723
0.967211
0.968568
0.998083
0.998176
0.995299
0.986158
0.986158
0.9907
0.998334
0.966009
0.681065
0.813107
0.882043
0.861806
0.853643
0.852115
0.851287
0.919486
0.990166
0.998718
0.998728
0.998729
0.998729
0.94764
0.865978
0.865975
0.865976
0.906762
0.990961
0.991176
0.987221
0.95058
0.978748
0.927093
0.906487
0.906487
0.959035
0.998522
0.998338
0.972441
0.838767
0.83971
0.998129
0.998128
0.99806
0.992713
0.991558
0.997413
0.998303
0.965762
0.658402
0.659207
0.866479
0.996446
0.96491
0.939868
0.986803
0.997654
0.998718
0.998728
0.998729
0.998729
0.998729
0.975047
0.86598
0.865978
0.871796
0.984103
0.992451
0.98493
0.970752
0.949827
0.949827
0.990233
0.90851
0.906545
0.908478
0.997654
0.997195
0.937091
0.814539
0.814539
0.814559
0.825541
0.950475
0.984791
0.998321
0.998343
0.998343
0.994171
0.659028
0.834138
0.996458
0.996443
0.996471
0.996667
0.998146
0.998146
0.997973
0.990763
0.99558
0.998729
0.998729
0.971933
0.927219
0.926706
0.975282
0.997583
0.991547
0.974194
0.976019
0.964764
0.958119
0.992224
0.981725
0.906606
0.906883
0.946132
0.995858
0.993759
0.875713
0.814539
0.815331
0.821576
0.819707
0.819707
0.830066
0.957611
0.998343
0.978608
0.772485
0.996458
0.996458
0.996602
0.989586
0.978498
0.978468
0.988337
0.997912
0.990154
0.967942
0.967917
0.982592
0.988247
0.997621
0.997609
0.997652
0.997602
0.974423
0.956823
0.978055
0.978027
0.890735
0.958772
0.992591
0.973684
0.90796
0.915326
0.995241
0.986254
0.954193
0.989706
0.993891
0.97695
0.845679
0.820604
0.822838
0.826748
0.879409
0.839676
0.996371
0.996431
0.996602
0.996651
0.985317
0.978468
0.978507
0.987103
0.997718
0.993274
0.962369
0.953195
0.997144
0.997235
0.997639
0.997642
0.997641
0.987612
0.953021
0.953021
0.977884
0.93783
0.86849
0.868426
0.951415
0.991659
0.971983
0.916891
0.988247
0.987332
0.971732
0.935516
0.995518
0.995816
0.995853
0.995853
0.993518
0.89056
0.837515
0.837515
0.987753
0.987859
0.991737
0.996847
0.996847
0.996837
0.996804
0.99246
0.949893
0.94933
0.949348
0.949344
0.955756
0.95065
0.950554
0.950538
0.950547
0.950601
0.953473
0.961359
0.915592
0.86849
0.868426
0.868425
0.876943
0.988422
0.995276
0.947234
0.965929
0.987268
0.971186
0.933723
0.933789
0.971805
0.995853
0.995853
0.995853
0.995854
0.992523
0.976879
0.959044
0.864633
0.95393
0.996796
0.996097
0.996816
0.996804
0.9968
0.996794
0.995206
0.994531
0.995864
0.996532
0.996426
0.996522
0.996449
0.99652
0.988779
0.970684
0.9811
0.969235
0.933176
0.868425
0.868426
0.868425
0.975828
0.998422
0.988128
0.961361
0.987231
0.945216
0.933723
0.933723
0.961104
0.995853
0.995853
0.995854
0.995855
0.995857
0.995857
0.93757
0.786946
0.788619
0.793221
0.964753
0.996511
0.99672
0.996794
0.996748
0.996382
0.995773
0.99601
0.996544
0.996506
0.996557
0.996526
0.996541
0.996202
0.995934
0.995944
0.996648
0.997875
0.979558
0.87692
0.886651
0.985424
0.998594
0.99847
0.973589
0.965413
0.934048
0.933723
0.952203
0.995856
0.995853
0.995853
0.995853
0.995855
0.995857
0.995857
0.786942
0.786946
0.786946
0.877557
0.94333
0.942959
0.958466
0.968092
0.97895
0.950309
0.955909
0.964733
0.95857
0.968781
0.995827
0.987747
0.976546
0.959878
0.976924
0.993225
0.997023
0.998043
0.998205
0.984062
0.982867
0.992891
0.998713
0.998723
0.997366
0.967242
0.934321
0.934048
0.984038
0.995851
0.995849
0.995847
0.995838
0.995835
0.995855
0.995857
0.797496
0.920739
0.980124
0.980987
0.981869
0.962633
0.933322
0.913684
0.904597
0.903048
0.903004
0.903048
0.905323
0.940098
0.889953
0.799667
0.768234
0.771175
0.775312
0.835999
0.969017
0.998205
0.998352
0.998574
0.998677
0.998673
0.998723
0.998725
0.998723
0.995096
0.978531
0.967693
0.984562
0.984659
0.982437
0.993789
0.992654
0.995586
0.995841
0.995855
0.725688
0.722862
0.82305
0.977549
0.982963
0.983681
0.952501
0.90303
0.903012
0.903005
0.906052
0.949251
0.958656
0.839811
0.717047
0.713659
0.720519
0.885427
0.962147
0.954518
0.900448
0.916838
0.9927
0.998675
0.998713
0.998726
0.998726
0.998726
0.998569
0.992104
0.957087
0.967524
0.965616
0.933239
0.945045
0.95282
0.922671
0.952112
0.926109
0.995839
0.854712
0.720036
0.720036
0.750894
0.983681
0.984398
0.946364
0.90303
0.903047
0.923387
0.990884
0.989427
0.950633
0.717545
0.713026
0.709712
0.856884
0.962044
0.96391
0.964479
0.953031
0.905618
0.929395
0.990943
0.998723
0.998726
0.998725
0.998725
0.998725
0.965362
0.919708
0.927142
0.958397
0.965633
0.949766
0.947236
0.915475
0.60597
0.800618
0.994564
0.984628
0.967198
0.734594
0.702848
0.80362
0.985017
0.986231
0.909474
0.938366
0.991165
0.991158
0.991008
0.943619
0.748625
0.71013
0.690216
0.709885
0.878861
0.941062
0.971176
0.973487
0.962967
0.962128
0.99283
0.998724
0.998725
0.998726
0.998725
0.998725
0.972597
0.918226
0.918226
0.927591
0.965448
0.959889
0.96286
0.962822
0.502756
0.759777
0.99246
0.984116
0.983869
0.982679
0.702294
0.628806
0.878836
0.990594
0.990645
0.988015
0.991165
0.991171
0.991158
0.991008
0.989853
0.890747
0.680687
0.558399
0.555697
0.824208
0.973313
0.973608
0.975705
0.977884
0.980133
0.998725
0.998726
0.998726
0.998726
0.998725
0.997852
0.976632
0.926495
0.901862
0.901862
0.901862
0.962552
0.962822
0.494408
0.777252
0.989299
0.983869
0.983869
0.983869
0.906594
0.617423
0.824466
0.990645
0.990714
0.990941
0.991165
0.991158
0.991008
0.982763
0.968279
0.948832
0.769045
0.541742
0.529701
0.790487
0.963842
0.973313
0.95149
0.831834
0.814208
0.929187
0.985613
0.998726
0.998725
0.998725
0.998725
0.998658
0.998079
0.946271
0.901862
0.939617
0.966186
0.934411
0.419804
0.781114
0.986503
0.960965
0.983869
0.98289
0.782761
0.482084
0.457795
0.662123
0.932656
0.973003
0.926224
0.96784
0.990301
0.951622
0.758086
0.507742
0.4527
0.451627
0.522054
0.708793
0.685336
0.724102
0.748997
0.730993
0.820683
0.853918
0.869054
0.975276
0.998725
0.998725
0.998725
0.998717
0.99865
0.992553
0.975095
0.985477
0.974028
0.586836
0.366146
0.715894
0.98419
0.540654
0.98289
0.982487
0.72413
0.454087
0.454088
0.453776
0.453038
0.481284
0.691646
0.814296
0.779156
0.82458
0.825706
0.47329
0.451696
0.450986
0.450896
0.450906
0.4509
0.450906
0.503768
0.699824
0.793087
0.816399
0.854257
0.887221
0.883163
0.882746
0.935058
0.998508
0.998486
0.998083
0.997879
0.997599
0.578722
0.366146
0.365754
0.596065
0.979602
0.351467
0.966401
0.986223
0.955512
0.561284
0.453776
0.452093
0.449369
0.447535
0.446893
0.446696
0.446667
0.446696
0.526019
0.657749
0.658291
0.556844
0.450986
0.450893
0.450906
0.451121
0.454242
0.460984
0.473799
0.687421
0.853172
0.941269
0.953959
0.962196
0.966906
0.983256
0.995251
0.997879
0.997602
0.724838
0.366566
0.365754
0.36571
0.600275
0.977614
0.332192
0.659185
0.99019
0.991718
0.972684
0.632305
0.541789
0.519838
0.484904
0.449964
0.446837
0.446699
0.446701
0.446895
0.446989
0.465309
0.454532
0.452387
0.451579
0.451097
0.524107
0.82233
0.767522
0.559572
0.547835
0.547835
0.790693
0.932215
0.940436
0.97766
0.990794
0.995514
0.997519
0.915786
0.419485
0.366056
0.365711
0.365693
0.662188
0.981595
0.332209
0.411229
0.927111
0.992567
0.992585
0.992567
0.992567
0.972072
0.927244
0.825316
0.627176
0.451712
0.446954
0.446884
0.44706
0.447245
0.603222
0.577628
0.537297
0.763791
0.973946
0.974135
0.974154
0.973821
0.697215
0.752272
0.953948
0.966165
0.888148
0.91395
0.990121
0.994614
0.898158
0.463477
0.366743
0.365774
0.365692
0.365692
0.65466
0.986665
0.332217
0.332322
0.85525
0.99222
0.992567
0.992592
0.992462
0.991804
0.989834
0.985575
0.97799
0.925008
0.548072
0.447731
0.447251
0.447245