/*--------------------------------*- C++ -*----------------------------------*\
  =========                 |
  \\      /  F ield         | OpenFOAM: The Open Source CFD Toolbox
   \\    /   O peration     | Website:  https://openfoam.org
    \\  /    A nd           | Version:  8
     \\/     M anipulation  |
\*---------------------------------------------------------------------------*/
FoamFile
{
    version     2.0;
    format      ascii;
    class       volScalarField;
    location    "8.05";
    object      p_rgh;
}
// * * * * * * * * * * * * * * * * * * * * * * * * * * * * * * * * * * * * * //

dimensions      [1 -1 -2 0 0 0 0];

internalField   nonuniform List<scalar> 
9150
(
1963.3
1962.3
1961.66
1961.19
1960.95
1960.95
1961.19
1961.66
1962.3
1963.3
1962.86
1962.36
1961.93
1961.6
1961.44
1961.43
1961.61
1961.93
1962.36
1962.86
1962.59
1962.32
1962.06
1961.84
1961.73
1961.73
1961.84
1962.06
1962.32
1962.59
1962.47
1962.3
1962.13
1961.98
1961.89
1961.9
1961.98
1962.13
1962.3
1962.47
1962.47
1962.3
1962.16
1962.03
1961.97
1961.97
1962.03
1962.16
1962.3
1962.47
1951.33
1950.67
1951.06
1951.43
1951.61
1951.59
1951.38
1950.99
1950.6
1951.27
1955.55
1954.84
1954.7
1954.65
1954.74
1954.74
1954.63
1954.68
1954.81
1955.53
1958.7
1957.94
1957.62
1957.27
1957.2
1957.2
1957.27
1957.61
1957.94
1958.69
1961.45
1960.29
1959.8
1959.18
1959
1959
1959.17
1959.78
1960.28
1961.44
1963.91
1961.92
1961.14
1960.47
1960.19
1960.18
1960.46
1961.13
1961.92
1963.91
1947.57
1945.75
1943.57
1942.42
1941.91
1941.91
1942.45
1943.52
1945.22
1946.31
1946.49
1946.09
1945.01
1944.53
1944.01
1943.91
1944.31
1944.62
1945.59
1945.84
1945.68
1945.85
1944.75
1944.99
1944.6
1944.53
1945.03
1944.52
1945.53
1945.32
1942.41
1945.27
1944.4
1945.77
1945.69
1945.58
1945.66
1944.16
1945.1
1942.18
1936.93
1945.99
1946.65
1947.82
1948.27
1948.24
1947.8
1946.54
1945.89
1936.76
1573.37
1573.21
1573.05
1572.93
1572.84
1572.77
1572.69
1572.63
1572.56
1572.49
1573.84
1572.97
1572.92
1572.85
1572.74
1572.64
1572.69
1572.65
1572.6
1572.59
1573.76
1573.59
1573.16
1573.04
1572.82
1572.7
1572.54
1572.43
1572.31
1572.13
1573.78
1573.57
1573.3
1572.87
1572.64
1572.44
1572.37
1572.15
1571.89
1571.54
1573.87
1573.54
1573.12
1572.88
1572.64
1572.56
1572.4
1572.13
1571.83
1571.07
1573.93
1573.46
1573.09
1572.85
1572.62
1572.7
1572.48
1572.24
1571.94
1570.87
1573.94
1573.69
1573.38
1572.97
1572.96
1572.79
1572.61
1572.44
1572.26
1571.75
1573.92
1573.69
1573.45
1573.27
1573.14
1573
1572.85
1572.67
1572.52
1572.4
1573.92
1573.68
1573.45
1573.34
1573.27
1573.17
1572.98
1572.82
1572.58
1570.14
1574.02
1573.77
1573.45
1573.31
1573.2
1573.26
1572.93
1568.85
1568.3
1568.04
1574.34
1574.08
1573.47
1570.42
1569.2
1571.47
1568.16
1567.43
1567.74
1572.59
1574.82
1573.23
1571.45
1567.77
1567.42
1567
1566.92
1567.34
1573.16
1572.85
1574.19
1573.99
1568.01
1567.38
1567.17
1567.08
1567.05
1570.33
1574.07
1573.74
1573.71
1573.75
1566.38
1566.65
1566.87
1567.05
1567.31
1570.57
1575.18
1575.16
1573.91
1569.26
1565.6
1566.09
1566.45
1570.91
1573.39
1571.77
1576.53
1576.44
1566.56
1566.55
1565.15
1565.89
1566.95
1575.16
1575.64
1573.66
1576.23
1576.82
1568.45
1572.27
1566.14
1565.77
1573.22
1574.87
1575.15
1571.15
1574.59
1577.05
1573.72
1574.37
1573.89
1574.04
1572.93
1571.69
1569.79
1570.24
1572.48
1577.16
1575.39
1575.62
1575.65
1570.45
1569.18
1569.43
1569.69
1569.83
1573.96
1577.38
1576.99
1576.93
1576.62
1570.51
1569.68
1569.74
1572.09
1574.08
1577.13
1577.5
1577.74
1577.53
1577.31
1576.24
1574.86
1575.53
1577.01
1577.18
1577.18
1577.32
1571.74
1576.1
1576.63
1576.11
1575.92
1575.98
1575.99
1575.71
1575.46
1575.63
1564.02
1563.65
1563.47
1563.64
1563.34
1574.87
1574.55
1574.2
1573.93
1573.13
1567.43
1567.24
1570.51
1573.97
1572.32
1556.27
1552.35
1551.37
1565.82
1573.96
1495.68
1543.03
1573.31
1573.8
1574.44
1574.81
1558.57
1550.49
1550.25
1550.11
1485.33
1485.15
1502.05
1566.34
1574.83
1575.3
1575.67
1554.65
1549.86
1549.95
1483.63
1484.75
1485.47
1549.17
1576.56
1576.4
1576.32
1569.04
1549.39
1549.56
1482.04
1483.86
1538.82
1578
1578.05
1577.37
1576.8
1576.44
1555.59
1549.41
1496.38
1567.94
1580.32
1579.45
1578.18
1577.31
1576.59
1568.43
1567.79
1571.88
1568.04
1578.74
1563.98
1557.57
1556.98
1555.96
1560.07
1560.03
1574.88
1574.78
1577.91
1573.25
1567.76
1572
1573.78
1569.51
1572.03
1568.7
1553.45
1537.37
1582.58
1580.23
1577.33
1574.73
1573.3
1572.45
1572.01
1572.01
1537.99
1527.62
1576.94
1575.39
1573.6
1562.29
1530.63
1556.94
1568.62
1569.01
1568.48
1566.39
1572.98
1559.34
1521.44
1519.56
1518.34
1517.25
1517.07
1535.41
1564.21
1565.6
1566.59
1545.62
1514.41
1518.36
1528.82
1513.16
1509.44
1509.6
1552.47
1562.19
1541.31
1535.8
1528.93
1522.65
1519.03
1519.26
1515.96
1510.78
1434.5
1499.55
1412.66
1403.84
1398.64
1340.26
1342.52
1426.97
1392.73
1320.56
1313.68
1318.17
1301.74
1301.27
1300.79
1301.36
1301.62
1300.42
1300.98
1305.26
1311.16
1316.48
1301.64
1301.92
1302.08
1301.97
1302.11
1303.21
1305.23
1308.02
1311.18
1314.6
1306.59
1306.95
1307.29
1307.79
1308.74
1309.33
1308.83
1311.66
1314.37
1317
1302.3
1304.22
1305.95
1307.26
1309.09
1310.35
1311.67
1313.68
1325.82
1510.21
1302.84
1305.31
1307.26
1309.49
1311.51
1325.75
1513.72
1582.22
1580.5
1578.2
1301.98
1316.81
1309.93
1340.37
1486.89
1555.93
1556
1562.93
1572.77
1582.33
1571.63
1576.44
1582.97
1575.26
1503.79
1476.2
1473.66
1472.09
1467.45
1566.06
1553.87
1560.14
1568.44
1572.47
1576.96
1580.54
1581.54
1571.85
1450.7
1401.96
1280.7
1401.28
1554.76
1559.59
1565.28
1569.75
1572.79
1574.39
1573.83
1509.19
1271.04
1269.69
1348.67
1554.11
1559.19
1563.74
1567.74
1569.79
1569.86
1446.35
1264.49
1263.26
1295.62
1548.21
1554.61
1558.62
1561.26
1563.8
1567.29
1571.61
1258
1256.46
1322.42
1548.04
1549.93
1549.94
1535.71
1552.55
1556.78
1561.97
1253.11
1252.11
1279.79
1539.45
1546.35
1546.43
1488.48
1369.17
1485.3
1544.51
1308.09
1258.6
1421.54
1544.89
1544.67
1543.02
1522.63
1193.28
1052.65
1484.29
1541.77
1542.68
1522.07
1545.23
1546.02
1544.04
1537.55
1278.95
895.2
1012.17
1536.3
1538.2
1477.82
1414.93
1507.6
1487
1329.61
1140.91
876.012
869.037
1518.71
1514.08
1446.62
1251.98
1072.25
1013.76
895.504
865.049
864.583
862.531
1441.21
1440.07
1536.78
1530.46
1046.34
868.033
866.707
865.534
864.571
863
1576.34
1574.4
1574.24
1574.95
1543.6
985.184
865.08
862.561
860.612
859.135
1509.58
1354.61
1406.6
1572.22
1415.44
945.633
1140.64
1086.53
858.037
855.33
987.912
798.366
798.818
799.495
801.471
862.689
1172.06
1177.36
1097.04
853.994
795.464
794.927
795.791
796.413
796.642
796.836
929.767
1180.24
1012.76
863.279
795.397
795.508
796.248
797.523
799.598
801.36
802.994
990.857
1021.86
1032.14
798.013
798.735
883.453
968.484
1159.42
1246.68
1245.96
1142.94
1284.32
1600.61
1003.6
960.2
1030.07
1004.12
1027.27
1167.79
1278.28
1582.96
1637.37
1636.01
1053.06
1113.53
1070.49
1201.77
1445.78
1636.45
1636.86
1635.72
1637.15
1636.33
1314.96
1431.3
1638.23
1633.09
1607.76
1556.77
1578.55
1586.31
1562.34
1602.79
1632.6
1632.55
1630.7
1464.51
1230.7
1013.29
992.586
998.494
977.333
1050.69
1603.39
1626.61
1610.18
988.972
882.748
883.039
883.935
883.479
882.051
881.056
1209.47
1499.74
1573.86
1249.25
882.089
882.787
883.919
883.936
882.98
881.242
1042.38
1325.63
1635.54
1642.51
1163.84
883.18
883.894
884.158
883.537
881.416
1043.18
1433.41
1641.26
1644.34
1622.86
1278.08
1099.12
954.395
883.19
926.248
1188.98
1633.66
1647.9
1648.83
1649.39
1645.39
1637.28
1586.1
1384.02
1511.93
1569.28
1652.62
1655.41
1654.38
1624.17
1635.86
1617.29
1600.9
1574.52
1510.65
1644.42
1602.41
1580.95
1393.94
1520.76
1628.71
1600.61
1418.38
1180.51
928.323
1590.71
1564.63
1379.61
1251
1582.32
1643.22
1485.88
941.803
934.131
929.911
1581.9
1485.03
1234.91
1236.67
1638.86
1648.51
1429.78
967.285
958.501
989.252
1656.08
1350.15
1219.75
1235.98
1634
1647.38
1622.87
1222.37
1096.57
1574.04
1653.55
1302.64
1206.47
1231.14
1620.96
1646.54
1620.36
1684.13
1682.02
1648.43
1645.03
1483.53
1192.73
1206.79
1619.04
1645.38
1152.4
1588.04
1684.75
1682.61
1636.75
1603.82
1243.83
1203.59
1632.69
1638.43
1074.24
1539.21
1687.3
1686.29
1644.73
1646.33
1445.07
1237.23
1648.93
1647.23
1076.09
1597.6
1695.19
1692.52
1660.61
1661.29
1443.81
1423.58
1657.13
1668.76
1094.33
1628.49
1707.36
1701.69
1676.79
1676.87
1573.83
1434.99
1656.2
1704.13
1101.67
1622.18
1714.98
1706.08
1674.4
1686.27
1658.95
1444.94
1652.38
1711.48
1438.02
1627.83
1705.19
1549.51
1687.16
1687.1
1683.22
1453.61
1679.1
1699.66
1602.9
1079.71
1220.16
710.585
1688.84
1687.82
1685.89
1623.82
1689.92
1690.35
1524.21
641.049
530.687
521.052
1693.43
1692.44
1689.66
1659.28
1693.24
1686.24
1400.25
550.937
502.832
504.508
1703.91
1701.97
1305.85
1539.97
1704.7
1688.75
1144.88
487.156
490.558
493.489
1720.63
1529.31
790.309
1629.07
1714.78
1648.96
967.273
479.977
484.293
486.782
1694.51
1066.67
667.986
1702.96
1726.38
1618.82
893.588
640.075
486.267
532.537
1388.29
1063.82
637.503
1710.39
1741.1
1630.99
828.292
668.041
494.554
699.894
1239.45
1044.95
531.65
1623.5
1759.45
1732.01
913.276
502.831
502.462
519.496
459.775
996.369
287.289
1412.49
1784.08
1788.35
1290.75
518.496
516.756
513.245
20.3687
754.633
88.2614
1329.44
1796.85
1810.2
1507.07
840.18
715.093
830.81
20.3873
167.206
85.6537
1369.89
1815.01
1826
1562.39
500.757
904.033
913.597
23.6601
6.15271
96.3672
1564.59
1832.64
1836.97
1609.47
461.443
653.86
363.533
9.05953
3.89348
299.506
1698.94
1851.84
1852.27
1785.14
449.341
108.366
0.282764
3.28695
3.56078
597.733
1807.19
1872.24
1872.28
1846.75
818.706
0.321975
0.259547
2.97219
3.29662
1195.03
1891.34
1891.4
1891.06
1890.55
1360.37
1.00148
0.385848
0.458604
83.2685
1640.75
1910.38
1911.45
1911.01
1909.75
1715.42
283.438
-0.0150002
0.184752
971.712
1916.85
1926.41
1926.52
1926.72
1927.16
1926.95
1218.71
0.00218698
540.212
1855.47
1939.5
1937.71
1936.87
1936.72
1937.2
1938.88
1889.64
667.407
1572.45
1572.22
1572.02
1571.71
1571.39
1571.1
1570.82
1570.61
1570.48
1570.38
1570.52
1570.61
1570.74
1570.84
1570.88
1570.97
1570.98
1571.03
1571.08
1571.08
1571.08
1571.03
1571.1
1571.24
1571.36
1571.59
1571.83
1571.95
1571.89
1571.73
1571.72
1571.73
1571.77
1571.85
1572.03
1572.29
1572.63
1572.89
1573.04
1572.92
1572.43
1572.11
1571.75
1571.37
1571.04
1570.78
1570.61
1570.38
1569.86
1570.22
1570.33
1570.04
1569.99
1569.98
1570.93
1570.95
1570.95
1571.02
1571.06
1571.07
1571.03
1570.91
1570.87
1571.02
1571.15
1571.37
1571.74
1572.01
1572
1571.97
1571.59
1571.19
1570.55
1570.75
1571.06
1571.18
1571.57
1572.12
1572.56
1572.63
1571.81
1571.26
1570.73
1570.32
1570.09
1570.08
1570.2
1570.21
1570.26
1570.68
1570.94
1569.42
1569.62
1569.7
1569.81
1569.39
1570.82
1571.16
1570.99
1570.98
1570.94
1570.8
1570.66
1570.58
1570.84
1571.24
1571.6
1572.38
1572.01
1571.54
1570.66
1569.93
1569.62
1569.48
1569.42
1569.34
1569.9
1571.44
1572.33
1572.58
1570.84
1570.13
1569.56
1569.19
1568.96
1569.07
1569.35
1569.25
1569.58
1570.06
1570.84
1570.24
1570.48
1571.06
1571.36
1571.38
1569.89
1569.72
1569.47
1571.24
1571.29
1569.93
1570.06
1570.1
1570.3
1571.4
1571.69
1572.29
1572.58
1572.79
1573.02
1572.44
1569
1569.04
1568.99
1568.93
1568.79
1570.6
1572.62
1572.79
1570.29
1569.56
1568.75
1568.14
1568.23
1568.63
1569.11
1569.86
1569.94
1569.39
1569.82
1569.92
1570.01
1570.45
1571.89
1572.12
1570.69
1568.98
1568.87
1568.56
1569.43
1570.76
1570.97
1570.76
1570.22
1570.01
1570.58
1571.48
1572.26
1572.64
1572.92
1573.01
1570.75
1569.47
1569.6
1569.38
1570.41
1572.44
1572.84
1572.13
1570.3
1569.63
1568.83
1568.02
1568.19
1567.8
1567.91
1568.61
1569.48
1570
1570.29
1569.18
1569.23
1570.09
1572.03
1571.54
1571.99
1571.3
1568.92
1568.43
1568.35
1569.25
1572.5
1568.25
1567.84
1567.97
1568.16
1569.36
1572.21
1572.54
1572.76
1572.93
1573.07
1573.05
1572.93
1572.8
1572.69
1572.64
1572.73
1571.86
1571.01
1570.41
1569.21
1568.46
1567.83
1566.98
1566.71
1566.03
1566.29
1567.19
1567.84
1568.91
1569.92
1570.28
1569.47
1569.47
1570.51
1572.52
1572.33
1571.39
1571.21
1571.38
1571.12
1567.88
1568.02
1568.15
1568.23
1569.73
1572.17
1572.54
1572.52
1572.45
1572.41
1572.41
1572.34
1572.25
1572.13
1572.03
1571.98
1570.05
1572.01
1571.08
1569.37
1567.7
1566.29
1562.96
1557.23
1556.74
1558.9
1556.82
1558.66
1562.82
1565.49
1566.61
1567.82
1568.74
1570.8
1572.8
1573.04
1573.15
1573.23
1573.1
1569.43
1567.9
1568.34
1569.86
1572.61
1573.39
1573.2
1572.69
1572.07
1571.68
1571.71
1571.93
1571.89
1571.85
1571.11
1570.14
1567.72
1568.01
1569.46
1568.76
1569.24
1568.87
1566.28
1553.04
1531.62
1532.2
1534.61
1557.54
1563.83
1564.51
1564.02
1565.43
1566.82
1570
1572.54
1573.1
1573.42
1572.89
1568.98
1569.01
1568.76
1568.89
1573.99
1574.03
1573.74
1573.17
1572.79
1572.06
1567.47
1564
1564.72
1569.91
1571.64
1571.39
1567.67
1567.94
1568.37
1568.85
1570.62
1571.41
1570.64
1569.4
1566.34
1536
1530.82
1531.24
1532.18
1565.42
1566.58
1567.12
1567.49
1568.17
1569.71
1571.28
1572.27
1572.37
1571.71
1572.11
1572.45
1574.73
1574.59
1573.16
1571.26
1569.49
1567.47
1567.23
1569.2
1573.42
1562.78
1559.16
1559.4
1559.44
1559.85
1566.71
1570.51
1571.01
1571.43
1571.82
1572.09
1571.43
1570.76
1570.05
1569.11
1546.81
1530.79
1530.74
1541.97
1567.14
1567.2
1567.46
1567.88
1568.54
1568.96
1567.14
1568.35
1570.28
1572.92
1573.14
1573.56
1573.66
1570.01
1563.68
1564.1
1564.49
1564.92
1566.76
1570.95
1574.48
1571.28
1564.07
1559.47
1559.62
1559.6
1559.34
1562.54
1567.79
1571.44
1571.76
1572.16
1571.13
1569.89
1568.95
1568.15
1556.37
1530.37
1536.58
1567.73
1567.49
1565.18
1564.87
1567.58
1564.53
1563.86
1564.87
1565.95
1570.45
1570.71
1570.98
1571.25
1571.34
1571.07
1564.42
1562.36
1568.35
1573.25
1573.26
1573.28
1573.48
1573.83
1574.3
1574.83
1569.21
1565.77
1567.47
1563.31
1563.09
1569.54
1567.74
1573.1
1571.89
1570.12
1568.73
1567.47
1564.19
1558.71
1559.38
1557.42
1553.28
1553.7
1555.21
1565.62
1566.68
1564.45
1564.1
1567.2
1567.62
1567.81
1567.95
1568.06
1568.21
1568.52
1568.95
1569.45
1569.95
1570.38
1570.83
1571.31
1571.9
1572.52
1573.13
1573.66
1574.03
1574.23
1573.98
1572.81
1572.88
1571.6
1551.27
1574.43
1572.35
1572.42
1571.67
1570.36
1569.2
1562.59
1552.02
1551.62
1551.37
1551.09
1556.21
1564.27
1563.96
1564.1
1564.52
1564.68
1564.71
1564.59
1564.38
1564.29
1564.45
1564.97
1565.87
1566.9
1567.3
1567.55
1567.74
1568.25
1569.23
1570.18
1571.08
1571.93
1572.45
1572.59
1572.36
1571.84
1570.96
1559.81
1544.26
1575.91
1568.12
1565.58
1572.93
1572.1
1569.82
1555.07
1552.47
1551.04
1549.72
1554.53
1561.37
1559.85
1558.31
1558.12
1560.44
1559.66
1555.13
1555.29
1554.92
1555.4
1556.94
1556.6
1560.37
1563.54
1564.71
1565.06
1564.2
1563.13
1564.63
1566.32
1568.08
1569.63
1570.74
1571.32
1571.52
1571.26
1569.28
1549.37
1541.83
1576.47
1562.52
1557.62
1570.5
1573.36
1571.99
1560.35
1552.05
1549.93
1552.56
1561.1
1558.66
1556.18
1556.19
1556.95
1557.81
1558.98
1560.02
1559.94
1552.6
1537.19
1528.14
1527.52
1532.37
1548.86
1554.3
1551.25
1546.27
1534.11
1545.01
1558.22
1564.66
1567.23
1569.21
1570.56
1571.33
1571.63
1571.72
1554.28
1541.62
1576.95
1564.61
1556.18
1554.71
1569.04
1572.44
1570.61
1561.31
1556.56
1560.66
1558.5
1555.02
1552.58
1551.16
1551.66
1552.58
1554.66
1556.4
1557.74
1558.89
1559.66
1541.75
1524.16
1524.36
1524.77
1525.31
1525.75
1525.69
1525.03
1524.69
1528.1
1559.63
1566.84
1568.51
1569.96
1571.68
1572.5
1573.26
1560.77
1541.76
1577.44
1576.42
1561.07
1554.25
1553.48
1555.52
1565.07
1566.45
1563.66
1560.16
1557.04
1552.75
1538.64
1514.61
1509.74
1539.88
1550.58
1553.54
1555.96
1557.68
1558.89
1540.39
1521.55
1522.17
1523.21
1524.34
1525.31
1525.63
1525.7
1525.77
1525.61
1552.61
1568.41
1564.52
1566.15
1572.45
1573.41
1574.27
1570.05
1543.18
1577.76
1578.04
1577.36
1567.54
1557.84
1553.67
1551.33
1548.82
1552.65
1554.37
1557.1
1555.01
1515.62
1508.07
1506.75
1507.4
1521.34
1553.72
1556.44
1557.34
1558.56
1538.92
1519.75
1520.68
1521.88
1523.07
1526.62
1528.49
1525.06
1525.71
1526.05
1555.81
1570.25
1565.38
1566.38
1573.61
1574.51
1574.97
1573.39
1574.55
1577.79
1578
1577.97
1577.69
1575.7
1570.36
1565.67
1555.18
1551.15
1547.85
1553.78
1558.39
1523.04
1510.82
1509.75
1509.69
1510.06
1542.77
1558.99
1555.32
1538.87
1538.4
1539.85
1523.99
1520.64
1522.49
1554.35
1569.31
1554.49
1528.25
1528.43
1559.07
1571.94
1567.21
1567.5
1572.23
1575.68
1576.33
1576.04
1575.39
1577.42
1577.68
1577.5
1576.81
1575.45
1573.55
1571.31
1568.85
1559.38
1551.46
1558.56
1563.29
1541.44
1513.97
1513.16
1513.02
1513.03
1518.09
1558.97
1563.95
1524.87
1484.87
1497.55
1513.99
1542.38
1550.46
1559.34
1569.14
1570.05
1563.64
1531.76
1562.22
1573.75
1575.04
1568.86
1570.01
1577.08
1577.58
1577.83
1575.68
1575.67
1575.6
1574.94
1572.72
1570.85
1569.24
1564.13
1562.65
1564.67
1563.99
1565.53
1566.26
1566.34
1523.01
1517.13
1517.16
1516.92
1540.02
1565.2
1565.48
1564.87
1493.78
1454.78
1454.37
1496.89
1563.05
1568.88
1570.9
1571.97
1572.57
1555.49
1561.34
1575.88
1577.28
1571.67
1570.99
1576.65
1578.96
1579.28
1576.71
1573.76
1572.28
1569
1552.47
1503.31
1526.81
1558.45
1564.13
1566.05
1566.85
1567.87
1568.77
1569.57
1563.23
1524.08
1524.65
1554.49
1569.69
1569.54
1569.74
1560.61
1460.84
1455
1455.34
1455.07
1544.71
1571.21
1573.22
1574.78
1575.75
1561.99
1553.08
1574.3
1578.72
1578.28
1572.17
1574.26
1580.36
1580.8
1578.13
1573.66
1573.02
1550.98
1501.38
1501.33
1522.64
1562.87
1567.32
1567.49
1568.59
1569.97
1571.21
1572.17
1572.8
1568.63
1569.45
1572.18
1572.37
1572.42
1572.73
1517.61
1455.43
1455.55
1455.76
1477.83
1566.83
1574.97
1576.17
1577.02
1577.86
1557.9
1550.76
1573.14
1580.34
1580.75
1575
1575.07
1580.96
1579.76
1580.48
1569.99
1575.49
1568.21
1508.76
1503.12
1501.81
1546.8
1552.01
1562.75
1571.74
1572.71
1573.55
1574.41
1574.99
1575.26
1575.23
1575.28
1575.39
1575.48
1561.25
1462.95
1456.28
1456.17
1478.26
1571.12
1578.63
1578.41
1578.21
1578.26
1578.53
1545.59
1549.5
1577.96
1581.24
1581.74
1581.78
1580.21
1582.18
1573.14
1579.99
1551.91
1573.79
1574.48
1567.63
1538.41
1549.04
1550.75
1546.75
1547.88
1548.81
1555.46
1569.44
1576.15
1576.55
1576.77
1576.93
1577.05
1577.26
1575.97
1554.93
1557.7
1568.75
1579.47
1580.68
1580.7
1580.17
1579.54
1578.99
1578.84
1562.4
1535.56
1543.21
1578.58
1581.74
1582.62
1583.54
1584.46
1585.26
1574.19
1571.94
1552.72
1574.79
1576.02
1572.9
1572.74
1573.56
1572.9
1562.23
1560.08
1557.32
1554.08
1554.85
1575.43
1577.67
1577.82
1578.08
1578.39
1578.71
1579.04
1579.24
1579.56
1580.08
1580.64
1581.08
1581.02
1580.76
1577.84
1576.65
1547.6
1532.67
1533.29
1544.7
1579.87
1582.17
1583.6
1584.99
1586.21
1587.22
1576.51
1570.57
1568.6
1575.61
1575.61
1575.59
1575.72
1574.63
1575.19
1577.06
1577.67
1577.74
1573.93
1574.07
1576.44
1578.23
1578.51
1578.98
1579.38
1579.66
1579.94
1580.18
1580.45
1580.84
1581.21
1581.47
1581.49
1581.18
1548.08
1532.13
1532.25
1532.22
1532.03
1545.6
1580.56
1583.06
1585
1586.88
1588.52
1589.71
1578.25
1572.14
1575.34
1575.21
1575.1
1575.03
1575.11
1570.68
1574.21
1576.83
1577.58
1578.26
1578.65
1578.74
1578.76
1578.93
1578.93
1579.47
1579.97
1580.32
1580.6
1580.56
1580.58
1580.96
1581.81
1582.11
1582.36
1541.91
1532.44
1532.58
1532.51
1532.15
1533.72
1574.23
1582.68
1584.37
1586.68
1589.02
1591.07
1592.54
1585.17
1574.41
1574.35
1569.22
1571.8
1573.28
1572.53
1568.72
1573.21
1575.77
1576.61
1577.39
1577.84
1577.73
1577.52
1577.58
1578.06
1578.07
1578.93
1580.93
1581.57
1581.79
1581.75
1582.07
1582.87
1583.12
1579.31
1537.83
1532.15
1532.01
1531.48
1548.61
1581.01
1581.31
1581.86
1583.77
1586.43
1589.14
1591.62
1593.55
1592.86
1575.88
1546.94
1563.76
1558.97
1549.15
1552.51
1567.7
1572.78
1573.67
1574.6
1575.46
1575.96
1575.9
1575.28
1558.31
1518.19
1559.28
1580.75
1582.14
1583.28
1583.54
1584.3
1584.34
1584.1
1582.77
1582.3
1580.55
1541.11
1554.96
1580.12
1578.48
1576.37
1575.16
1575.28
1577.3
1580.9
1584.69
1587.86
1590.4
1592.23
1574.23
1526.83
1525.41
1554.26
1549.65
1512.45
1530.23
1568.1
1569.43
1571.83
1573.62
1575.03
1576
1563.12
1500.44
1500.46
1523.09
1581.06
1584.27
1585.21
1586.17
1586.82
1586.53
1578.62
1577.91
1577.61
1582.07
1579.82
1576.13
1572.16
1568.04
1564.35
1562.11
1562.23
1565.18
1569.85
1575.43
1580.24
1583.57
1585.65
1576.91
1542.21
1538.99
1566.41
1571.05
1529.83
1472.43
1469.22
1491.27
1560.18
1573.09
1576.54
1578.1
1578.74
1511.75
1498.5
1498.94
1562.55
1585.94
1585.28
1587.62
1587.21
1576.78
1576.86
1579.7
1576.73
1562.1
1574.38
1572.11
1565.07
1554.48
1545.92
1537.57
1531.11
1536.71
1554.89
1564.39
1570.51
1574.86
1577.42
1578.43
1566.84
1567.77
1569.08
1569.92
1570.67
1499.46
1467.04
1467.55
1469.03
1514.35
1578.44
1581.26
1582.55
1552.45
1496.75
1497.48
1499.28
1536.22
1572.38
1585.23
1575.53
1575.72
1584.96
1580.99
1544.56
1545.83
1577.46
1571.34
1563.72
1547.31
1527.43
1522.65
1524.52
1536.98
1548.11
1556.02
1562.73
1567.83
1570.95
1572.39
1564.55
1566.28
1567.72
1568.97
1570.45
1543.23
1465.89
1468.42
1470.12
1493.36
1577.78
1583.85
1584.95
1566.67
1495.63
1496.07
1496.47
1496.96
1564.4
1576.22
1574.7
1584.81
1583.75
1554.57
1524.38
1546.42
1577.23
1571.12
1563.94
1555.08
1537.3
1525.67
1536.63
1545.07
1548.77
1552.47
1554.45
1562.28
1567.81
1564.45
1561.46
1564.55
1567.07
1568.8
1570.06
1518.99
1464.79
1467.77
1480.65
1570.17
1584.18
1585.31
1585.57
1554.42
1493.94
1494.44
1494.85
1494.91
1571.44
1582.24
1579.44
1566.31
1582.46
1535.58
1521.64
1531.96
1578.1
1572.83
1566.57
1556.2
1532.87
1532.51
1552.48
1554.3
1555.11
1552.74
1556.65
1562.41
1569.7
1549.29
1338.24
1435.29
1487.51
1475.19
1473.17
1476.03
1476.98
1526.12
1577.98
1584.34
1584.54
1585.11
1585.67
1549.82
1492.68
1493.18
1493.29
1522.19
1582.02
1582.13
1578.82
1553.05
1572.56
1534.69
1520.11
1517.92
1553.04
1578.31
1573.73
1548.4
1454.95
1454.99
1567.52
1568.6
1570.54
1568.91
1570.03
1576
1577.02
1554.87
1321.49
1326.55
1477.8
1576.96
1554.47
1538.51
1574
1582.06
1583.3
1583.66
1584.29
1585.17
1586.14
1569.92
1492.36
1493.07
1496.89
1578.32
1584.22
1577.7
1566.85
1552.95
1552.95
1584.47
1522.14
1519.98
1520.28
1584.4
1581.57
1532.25
1443.24
1443.13
1443.69
1452.36
1543.71
1570.59
1581.65
1582.6
1582.68
1579.4
1319.12
1454.03
1577.88
1579.37
1580.07
1580.8
1582.15
1582.18
1582.12
1577.27
1581.72
1585.5
1586.83
1567.75
1536.67
1536.61
1572.47
1589.99
1584.53
1571.02
1572.45
1564.99
1559.65
1587.13
1578.26
1522.11
1522.23
1548.57
1587.19
1583.15
1493.7
1448.1
1448.46
1452.79
1451.2
1451.3
1458.48
1552.43
1584.8
1571.28
1405.8
1579.73
1579.92
1580.08
1575.26
1567.14
1567.26
1574.64
1583.03
1577.28
1562.2
1563.78
1576.27
1582.16
1590.73
1591.14
1591.12
1590.57
1571.81
1558.44
1574.47
1573.83
1509.6
1558.1
1587.15
1572.72
1525.14
1530.67
1591.83
1583.07
1556.01
1582.75
1586.71
1573.46
1472.83
1454.48
1455.97
1458.48
1500.62
1473.87
1582.79
1581.23
1580.17
1580.04
1571.62
1567.27
1567.75
1574.49
1583.75
1581.23
1559.16
1554.66
1589.55
1591.03
1592.14
1592.3
1591.75
1583.07
1555.13
1555.16
1574.28
1541.38
1488.94
1488.26
1553.04
1588.84
1573.12
1534.34
1587.12
1586.44
1572.44
1543.55
1590.3
1590.69
1591.69
1593.98
1595.2
1517
1481.97
1483.63
1575.83
1574.84
1576.65
1580.63
1581.4
1582.17
1582.86
1579.99
1547.29
1548.83
1550.39
1551.65
1557.6
1554.64
1555.58
1555.13
1555.09
1554.31
1555.5
1561.32
1523.52
1486.26
1486.66
1487.07
1494.65
1586.28
1593.39
1553.62
1568.03
1586.17
1570.91
1540.6
1539.39
1569.34
1591.27
1594.83
1599.84
1605.25
1606.87
1596.46
1554.03
1476.72
1545.21
1579.07
1578.71
1581.34
1583.3
1584.63
1586.05
1586.1
1586.33
1587.4
1588.02
1588.45
1589.55
1590.19
1590.68
1583.93
1568.04
1576.07
1565.96
1536.73
1483.84
1484.72
1485.28
1574.02
1594.55
1585.58
1563.58
1584.28
1548.04
1537.48
1536.22
1557.96
1588.15
1591.65
1596.77
1602.03
1607.1
1610.25
1538.8
1408.28
1407.04
1408.99
1551.74
1580.61
1582.27
1583.25
1584.02
1584.16
1583.72
1583.67
1583.8
1583.3
1583.64
1584.38
1584.71
1584.43
1584.42
1584.69
1586.07
1588.17
1572.91
1488.76
1497.67
1579.64
1592.29
1592.26
1570.6
1562
1533.09
1529.66
1541.97
1578.18
1578.72
1581.52
1586.4
1592.25
1598.56
1602.91
1402.19
1403.03
1403.22
1478.89
1534.41
1534.28
1548.02
1556.65
1566.33
1541.11
1545.7
1552.82
1546.95
1554.58
1576.7
1567.11
1555.87
1541.5
1557.85
1573.79
1579.13
1581.52
1582.95
1572.36
1573.1
1583.38
1589.83
1589.98
1586.94
1555.44
1522.55
1516.71
1554.06
1561.49
1560.79
1562.66
1567.46
1574.05
1580.96
1586.94
1408.42
1512.82
1569.21
1569.9
1569.77
1551.77
1525.57
1507.94
1499.53
1498.39
1498.62
1498.36
1498.11
1526.66
1477.85
1396.3
1370.57
1374.24
1377.74
1429.24
1546.52
1574.05
1576.48
1579.52
1582.11
1584.12
1585.22
1584.66
1581.41
1570.72
1547.09
1529.19
1535.65
1529.86
1527.81
1540.74
1544.92
1554.11
1561.01
1566.38
1341.54
1339.77
1423.95
1565.56
1571.14
1571.75
1542.49
1497.35
1496.99
1496.99
1499.17
1537.75
1544.52
1432.26
1319.68
1316.76
1323.91
1473.13
1543.7
1534.23
1484.6
1498.37
1568.33
1576.77
1579.35
1580.56
1580.73
1578.79
1573.34
1558.24
1515.13
1515.94
1508.09
1476.83
1488.46
1500.6
1478
1507.47
1489.48
1556.86
1455.35
1333.84
1331.83
1356.22
1572.62
1573.5
1535.95
1496.75
1496.9
1514.95
1578.41
1574.98
1533.65
1316.71
1312.28
1308.5
1445.48
1544.59
1544.53
1543.03
1531.99
1492.56
1513.83
1571.87
1580.25
1580.68
1580.38
1577.33
1570.74
1530.26
1479.19
1477
1501.36
1508.58
1495.82
1499
1475.75
1207.76
1378.52
1564.62
1569.17
1558.42
1338.17
1308.43
1397.88
1571.63
1574.38
1502.02
1528.59
1578.5
1578.13
1575.92
1527.64
1343.12
1304.97
1285
1301.29
1463.2
1521.18
1549.58
1552.9
1545.07
1546.07
1576.33
1584.66
1586.04
1585.69
1582.79
1577.3
1544.91
1485.52
1476.58
1478.39
1511.79
1508.69
1518.85
1526.4
1123.83
1351.05
1580.68
1553.28
1561.48
1566.3
1295.36
1230.72
1464.88
1577.43
1578.07
1575.56
1578.54
1578.61
1577.95
1576.89
1576.1
1476.77
1267.81
1153.62
1150.99
1406.4
1553.36
1555.43
1558.05
1560.23
1565.95
1589.55
1592.33
1593.55
1592.64
1589.5
1583.77
1557.13
1500.71
1470.36
1466.65
1467.45
1536
1543.97
1120.61
1381.04
1594.45
1538.38
1547.96
1554.39
1480.65
1210.12
1405.19
1573.18
1576.2
1578.14
1578.88
1578.85
1578.15
1568.51
1552.2
1531.82
1347.04
1124.96
1114.33
1367.39
1545.33
1557.43
1537
1422.52
1412.32
1527.8
1588.25
1603.65
1603.91
1603.99
1602.41
1599.02
1594.17
1539.55
1496.17
1532.26
1563.29
1533.94
1051.35
1395.45
1604.48
1508.9
1543.57
1551.75
1354.98
1064.86
1043.67
1244.16
1519.75
1561.11
1512.99
1554.29
1577.35
1539.09
1341.96
1086.88
1027.57
1023.65
1090.31
1282.53
1259.62
1302.51
1333.31
1323.98
1420.7
1461.74
1483.27
1594.16
1622.17
1624.26
1623.5
1620.29
1616.45
1607.96
1589.09
1600.73
1589.96
1202.13
997.292
1329.63
1610.88
1075.17
1545.03
1565.06
1303.51
1039.17
1042.5
1042.24
1039.72
1066.6
1280.28
1407.31
1366.78
1412.18
1413.49
1044.38
1018.58
1014.94
1013.36
1014.08
1018.92
1025.53
1084.92
1289.08
1393.29
1425.87
1472.77
1515.34
1521.54
1525.55
1578.82
1640.55
1636.13
1631.62
1628.96
1627.94
1197.63
985.221
985.757
1215.26
1622.68
882.353
1538.27
1577.4
1557.47
1157.95
1053.81
1055.39
1051.74
1045.24
1038.67
1032.39
1027.44
1023.29
1104.16
1244.07
1243.92
1123.27
1011.95
1013.2
1017.01
1022.89
1032.76
1047.93
1067.15
1291.62
1473.13
1574.14
1597.41
1612.41
1619.27
1634.84
1643.81
1642.23
1639.86
1355.56
982.335
981.912
982.077
1227.22
1634.2
861.69
1213.33
1580.36
1597.83
1590.64
1239.68
1150.01
1128.4
1088.09
1045.27
1035.7
1028.2
1021.45
1015.61
1011.61
1027.22
1014.27
1011.6
1010.98
1013.13
1095.05
1425.71
1370.51
1152.16
1147.79
1151.84
1412.96
1571.68
1585.62
1626.94
1639.35
1643.55
1644.28
1558.12
1029.85
976.326
977.643
977.859
1294.96
1646.74
857.323
942.626
1511.03
1596.95
1608.21
1619.14
1628.19
1613.24
1565.48
1448.05
1223.59
1028.83
1017.54
1010.17
1004.72
1000.82
1171.19
1139.59
1096.95
1342.6
1578.92
1584.68
1588.6
1592.8
1300.61
1363.93
1585.35
1606.92
1527.48
1556.16
1638.75
1637.91
1533.23
1064.63
964.471
967.848
970.334
971.414
1286.95
1658.72
854.997
854.25
1431.35
1592.65
1601.71
1607.18
1612.59
1619.25
1624.05
1621.11
1607.92
1542.42
1114.18
998.199
993.038
989.632
1255.26
1567.98
1570.57
1569.93
1572.19
1575.02
1579.28
1584.11
1588.16
1592.72
1599.92
1607.32
1521.36
1585.61
1649.18
1598.14
1087.22
952.595
955.918
959.715
962.172
963.57
1445.32
1661.5
855.226
986.674
1523.03
1593.43
1597.45
1600.08
1599.87
1597.88
1560.75
1431.3
1384.22
1456.66
1446.45
1109.95
978.326
972.81
1243.23
1550.02
1564.83
1564.8
1564.79
1563.55
1562.38
1545.85
1477.72
1479.28
1503.33
1448.72
1505.31
1629.16
1651.6
1594.76
994.686
946.019
949.807
952.831
954.788
956.859
1563.67
1662.32
859.335
1376.11
1599.25
1599.85
1599.27
1594.9
1552.51
1369.72
1040.52
912.084
909.949
954.91
1291.16
1270.98
968.612
959.937
977.388
1152.14
1527.82
1558.07
1528.5
1465.32
1441.87
1078.26
871.254
896.842
1001.68
1428.91
1591.2
1642.15
1649.26
1630.82
1203.25
941.761
945.305
948.121
949.431
1138.42
1639.96
1664.75
1406.6
1612.47
1613.38
1610.91
1605.08
1512.1
1078.14
908.579
902.281
897.619
896.168
896.04
895.307
1025.03
1054.03
970.334
976.532
981.871
1251.11
1410.46
1041.66
845.627
852.383
857.281
859.938
939.584
1379.05
1580.66
1626.22
1639.2
1646.8
1651.6
1580.19
1219.07
1035.43
1018.67
1134.41
1548.72
1647.13
1649.5
1628.01
1627.85
1626.98
1622.53
1587.98
1010.18
911.515
910.389
902.239
895.485
893.805
900.5
913.473
1049.7
1150.32
1151.54
1140.84
1008.8
842.192
842.323
843.012
842.644
845.015
867.817
1377.13
1536.41
1612.89
1624.08
1633.53
1641.45
1647.37
1652.51
1657.61
1637.97
1580.01
1581.11
1628.68
1644.68
1632.5
1631.44
1634.19
1634.15
1635.36
1630.12
1159.03
917.894
914.541
934.397
1084.94
1325.6
1415.02
1421
1332.59
1262.25
1136.54
949.141
837.246
837.07
836.452
836.882
841.231
881.344
1418.57
1548.75
1607.42
1617.65
1625.45
1631.47
1640.09
1646.17
1650.38
1654.58
1659.09
1663.53
1666.89
1669.66
1672.11
1643.01
1629.34
1629.59
1631.43
1483.66
1502.51
1637.67
1045.2
929.145
919.158
1476.38
1628.29
1626.12
1621.8
1454.26
1026.24
851.668
841.179
838.449
838.258
839.862
841.942
843.786
1262.87
1582.25
1601.27
1607.35
1613.16
1610.69
1620.39
1623.42
1622.04
1627.29
1646.1
1656.93
1660.22
1663.29
1666.37
1668.69
1670.69
1640.13
1628.33
1654.83
1477.09
1069.68
1389.76
1620.45
1340.52
949.054
1196.91
1642.75
1640.59
1637.23
1571.25
952.007
852.062
849.53
847.848
846.756
846.267
979.439
1461.89
1549.62
1609
1631.97
1594.44
1581.34
1584.22
1587.5
1609.11
1633.8
1636.75
1609.49
1601.69
1607.71
1611.07
1593.71
1610.09
1649.52
1670.38
1666.28
1657.67
1672.55
920.9
905.05
1369.19
1567.01
1542.49