/*--------------------------------*- C++ -*----------------------------------*\
  =========                 |
  \\      /  F ield         | OpenFOAM: The Open Source CFD Toolbox
   \\    /   O peration     | Website:  https://openfoam.org
    \\  /    A nd           | Version:  8
     \\/     M anipulation  |
\*---------------------------------------------------------------------------*/
FoamFile
{
    version     2.0;
    format      ascii;
    class       surfaceScalarField;
    location    "8.05";
    object      phi;
}
// * * * * * * * * * * * * * * * * * * * * * * * * * * * * * * * * * * * * * //

dimensions      [0 3 -1 0 0 0 0];

internalField   nonuniform List<scalar> 
18095
(
1.99886e-08
-1.72096e-07
1.52107e-07
2.32312e-08
-1.97562e-07
1.94319e-07
2.01575e-08
-2.0616e-07
2.09234e-07
1.1083e-08
-2.10581e-07
2.19655e-07
-4.02333e-10
-2.13213e-07
2.24699e-07
-1.17477e-08
-2.13481e-07
2.24827e-07
-2.0336e-08
-2.1109e-07
2.19678e-07
-2.32112e-08
-2.0622e-07
2.09095e-07
-1.99823e-08
-1.97517e-07
1.94288e-07
-1.72081e-07
1.52099e-07
1.55336e-08
-1.87629e-07
1.61056e-08
-1.98134e-07
1.19685e-08
-2.02023e-07
6.72742e-09
-2.0534e-07
5.76546e-10
-2.07063e-07
-6.18038e-09
-2.06725e-07
-1.18436e-08
-2.05427e-07
-1.6156e-08
-2.01908e-07
-1.55367e-08
-1.98136e-07
-1.87618e-07
6.79817e-09
-1.94428e-07
8.40239e-09
-1.99738e-07
7.30804e-09
-2.00929e-07
3.98534e-09
-2.02017e-07
-4.46242e-10
-2.02631e-07
-4.46019e-09
-2.02711e-07
-7.40226e-09
-2.02485e-07
-8.3836e-09
-2.00926e-07
-6.79747e-09
-1.99722e-07
-1.94415e-07
4.50726e-09
-1.98935e-07
4.72995e-09
-1.99961e-07
3.68706e-09
-1.99886e-07
2.11547e-09
-2.00445e-07
3.96169e-10
-2.00912e-07
-1.54298e-09
-2.00771e-07
-3.63591e-09
-2.00392e-07
-4.71528e-09
-1.99847e-07
-4.51426e-09
-1.99923e-07
-1.9893e-07
1.06521e-09
1.10465e-09
1.21891e-09
7.73546e-10
-1.37956e-10
-9.09169e-10
-1.30068e-09
-1.14735e-09
-1.07048e-09
-2.85383e-08
-1.95729e-07
2.24267e-07
-3.09866e-08
-1.99076e-07
2.01524e-07
-2.5249e-08
-2.01011e-07
1.95273e-07
-1.41051e-08
-2.01426e-07
1.90282e-07
6.00254e-10
-2.02163e-07
1.87458e-07
1.49659e-08
-2.0221e-07
1.87845e-07
2.57284e-08
-2.01611e-07
1.90848e-07
3.13263e-08
-2.01268e-07
1.9567e-07
2.8869e-08
-1.99428e-07
2.01885e-07
-1.96079e-07
2.24948e-07
-9.30833e-09
-1.8642e-07
-1.50867e-08
-1.93297e-07
-1.29163e-08
-2.03182e-07
-6.20216e-09
-2.0814e-07
-3.62958e-10
-2.08002e-07
5.64018e-09
-2.08213e-07
1.28234e-08
-2.08794e-07
1.51959e-08
-2.0364e-07
9.40819e-09
-1.9364e-07
-1.86671e-07
-9.87823e-09
-1.76542e-07
-7.72164e-09
-1.95454e-07
-6.01017e-09
-2.04893e-07
-3.85784e-09
-2.10292e-07
1.27361e-09
-2.13134e-07
6.21048e-09
-2.1315e-07
7.44597e-09
-2.10029e-07
8.51671e-09
-2.04711e-07
1.01595e-08
-1.95283e-07
-1.76511e-07
-6.40914e-09
-1.70133e-07
-8.41068e-09
-1.93452e-07
-8.14853e-09
-2.05156e-07
-3.83806e-09
-2.14603e-07
-3.37461e-10
-2.16634e-07
2.87688e-09
-2.16365e-07
7.33371e-09
-2.14486e-07
8.05638e-09
-2.05434e-07
6.35055e-09
-1.93577e-07
-1.70161e-07
-1.80257e-08
-1.71587e-08
-1.30805e-08
-8.02824e-09
3.61837e-11
8.49822e-09
1.36901e-08
1.73515e-08
1.80622e-08
4.01297e-08
-1.5565e-07
1.1552e-07
4.54955e-08
-1.96734e-07
1.91368e-07
3.98105e-08
-2.09806e-07
2.15491e-07
2.81369e-08
-2.15991e-07
2.27665e-07
1.08492e-08
-2.17703e-07
2.3499e-07
-7.58793e-09
-2.17989e-07
2.36426e-07
-2.47852e-08
-2.16134e-07
2.33331e-07
-3.40519e-08
-2.11116e-07
2.20383e-07
-3.08763e-08
-1.99255e-07
1.9608e-07
-1.59623e-07
1.28747e-07
1.81018e-08
-1.73752e-07
2.10626e-08
-1.99694e-07
1.73205e-08
-2.06064e-07
9.2689e-09
-2.0794e-07
-8.2577e-10
-2.07608e-07
-1.03659e-08
-2.08449e-07
-1.64769e-08
-2.10023e-07
-1.91544e-08
-2.08438e-07
-1.61716e-08
-2.02237e-07
-1.75794e-07
8.77289e-09
-1.82525e-07
1.00044e-08
-2.00926e-07
9.71411e-09
-2.05773e-07
6.87184e-09
-2.05097e-07
3.77729e-09
-2.04513e-07
-9.68034e-11
-2.04575e-07
-5.79132e-09
-2.04328e-07
-7.54106e-09
-2.06688e-07
-7.65396e-09
-2.02125e-07
-1.83449e-07
7.42953e-09
-1.89954e-07
5.67851e-09
-1.99175e-07
6.60704e-09
-2.06702e-07
1.4314e-09
-1.99922e-07
7.97442e-11
-2.03162e-07
-1.06845e-09
-2.03427e-07
-5.72624e-09
-1.99671e-07
-4.77255e-09
-2.07642e-07
-7.21222e-09
-1.99685e-07
-1.90661e-07
3.43128e-08
3.6662e-08
2.52336e-08
1.55941e-08
-1.10089e-10
-1.56926e-08
-2.45149e-08
-3.6487e-08
-3.42873e-08
1.44212e-08
-9.36505e-09
-5.05612e-09
2.51114e-08
-1.06906e-08
2.83585e-08
-3.24711e-09
1.91146e-08
9.24396e-09
1.02387e-08
8.87591e-09
7.65405e-09
2.58481e-09
9.60552e-09
-1.95133e-09
1.09406e-08
-1.33489e-09
9.8125e-09
1.12826e-09
4.85881e-09
4.95387e-09
1.17674e-08
2.44839e-09
-2.3581e-08
8.92208e-09
-7.8454e-09
1.43761e-08
-8.70101e-09
2.32274e-08
3.92779e-10
2.73319e-08
4.77163e-09
2.61506e-08
3.76636e-09
2.21612e-08
2.03842e-09
1.41384e-08
6.68821e-09
-9.32712e-10
1.61997e-08
2.86422e-08
-2.47158e-08
3.17993e-08
7.3143e-09
-3.66653e-08
2.71116e-08
-3.15753e-09
2.56544e-08
-7.24363e-09
2.78224e-08
-1.77508e-09
2.91429e-08
3.45144e-09
2.76021e-08
5.30739e-09
1.7917e-08
1.17238e-08
2.98176e-09
2.16237e-08
-1.90019e-08
3.81836e-08
5.16821e-08
-4.20416e-08
2.21924e-08
3.58367e-09
-1.84617e-08
2.22845e-08
-3.24933e-09
1.85244e-08
-3.48336e-09
1.38346e-08
2.91484e-09
9.63164e-09
7.65465e-09
3.81919e-09
1.112e-08
-4.08924e-09
1.96324e-08
-1.5169e-08
3.27037e-08
-2.42807e-08
4.72955e-08
5.68766e-08
-2.9475e-08
1.15683e-08
1.82443e-09
-9.80891e-09
9.43184e-09
-1.11256e-09
6.95767e-09
-1.00905e-09
5.77583e-09
4.09682e-09
1.40427e-09
1.20264e-08
-5.00915e-09
1.75336e-08
-1.26958e-08
2.73191e-08
-1.82239e-08
3.8232e-08
-1.86085e-08
4.76801e-08
5.44234e-08
-1.61552e-08
6.48296e-09
1.27908e-09
-5.93749e-09
5.73295e-09
-3.62325e-10
3.78015e-09
9.43823e-10
1.89373e-09
5.98331e-09
-2.76241e-09
1.66825e-08
-9.59661e-09
2.43678e-08
-1.49131e-08
3.26357e-08
-1.47402e-08
3.80589e-08
-8.8219e-09
4.17617e-08
4.43421e-08
1.25935e-09
-1.95035e-09
-9.94534e-10
4.22403e-09
-1.22079e-09
-1.09181e-09
-3.35474e-09
3.0778e-09
-9.27742e-09
1.1906e-08
-1.53807e-08
2.27857e-08
-2.04766e-08
2.94636e-08
-2.11714e-08
3.33304e-08
-1.80407e-08
3.4928e-08
-9.38851e-09
3.31093e-08
2.8757e-08
6.19638e-09
-9.84543e-09
-4.06277e-09
1.29137e-08
-8.26898e-09
-2.66826e-09
-1.12435e-08
6.05233e-09
-2.09409e-08
2.16033e-08
-2.9592e-08
3.14367e-08
-3.36223e-08
3.34936e-08
-2.98171e-08
2.9525e-08
-2.08665e-08
2.59772e-08
-9.54144e-09
2.1784e-08
1.53848e-08
3.83047e-09
-1.53647e-08
-6.46012e-09
1.7762e-08
-1.44329e-08
-3.60017e-09
-2.27125e-08
1.43319e-08
-3.93318e-08
3.82224e-08
-5.05318e-08
4.26365e-08
-4.87492e-08
3.1711e-08
-4.04999e-08
2.12756e-08
-3.38626e-08
1.93398e-08
-3.29802e-08
2.09015e-08
8.38414e-09
-2.59797e-08
-2.66369e-08
1.86121e-09
1.83155e-08
-3.275e-08
2.51273e-09
-4.05385e-08
2.21202e-08
-5.32811e-08
5.09649e-08
-6.4722e-08
5.40774e-08
-5.91111e-08
2.61e-08
-5.37462e-08
1.59106e-08
-5.23864e-08
1.798e-08
-4.11787e-08
9.69378e-09
-1.16323e-08
-2.11622e-08
-2.86728e-08
2.40571e-08
6.47692e-09
-4.58909e-08
1.97304e-08
-4.85655e-08
2.47948e-08
-4.70217e-08
4.9421e-08
-4.87495e-08
5.58051e-08
-5.70073e-08
3.43578e-08
-6.04577e-08
1.9361e-08
-5.48738e-08
1.23962e-08
-3.83115e-08
-6.86836e-09
-2.87883e-08
-2.11554e-08
1.53338e-08
4.97039e-08
-4.09808e-08
-1.75351e-08
5.25989e-08
-4.05317e-08
4.77912e-08
-4.17182e-08
5.06075e-08
-3.79646e-08
5.20515e-08
-4.22624e-08
3.86556e-08
-4.36607e-08
2.07593e-08
-3.94237e-08
8.15935e-09
-3.19229e-08
-1.4369e-08
-3.57552e-08
-2.4956e-08
4.67534e-08
5.45909e-08
-5.16405e-08
2.82783e-08
7.10736e-08
-1.67736e-09
7.77467e-08
-2.0172e-08
6.9102e-08
-2.8188e-08
6.00673e-08
-3.56276e-08
4.60951e-08
-4.00566e-08
2.51882e-08
-3.98674e-08
7.97018e-09
-4.32913e-08
-1.09452e-08
-2.88332e-08
-5.02133e-08
4.30091e-08
5.42651e-08
-4.26835e-08
3.6389e-08
7.76932e-08
2.42271e-08
8.99084e-08
8.58341e-09
8.47453e-08
-3.50583e-09
7.21562e-08
-1.81398e-08
6.07288e-08
-3.3736e-08
4.07842e-08
-4.12508e-08
1.54847e-08
-5.64758e-08
4.2796e-09
-3.99225e-09
-8.1317e-08
3.03541e-08
6.26327e-08
-3.8722e-08
2.00682e-08
8.79785e-08
1.55526e-08
9.44236e-08
1.27183e-08
8.75792e-08
4.90264e-09
7.99715e-08
-7.09233e-09
7.27234e-08
-2.53616e-08
5.9053e-08
-4.96508e-08
3.97736e-08
-7.6323e-08
3.09514e-08
2.3285e-08
-1.03601e-07
1.9652e-09
7.49663e-08
-1.42991e-08
-6.75485e-09
9.66979e-08
-4.44065e-09
9.2109e-08
-1.14117e-09
8.42793e-08
-8.79426e-09
8.76242e-08
-1.93373e-08
8.32661e-08
-3.6684e-08
7.63994e-08
-6.7569e-08
7.06583e-08
-9.09275e-08
5.43095e-08
4.09251e-08
-1.08568e-07
-4.17646e-08
7.21873e-08
4.45434e-08
-3.12373e-08
8.61701e-08
-2.20851e-08
8.29565e-08
-2.41302e-08
8.63242e-08
-2.56753e-08
8.9169e-08
-2.94807e-08
8.70713e-08
-4.28666e-08
8.97851e-08
-6.32382e-08
9.10297e-08
-7.97457e-08
7.08169e-08
5.86366e-08
-9.74574e-08
-8.66357e-08
5.54763e-08
1.03347e-07
-6.99031e-08
6.94373e-08
-6.36164e-08
7.66697e-08
-5.97227e-08
8.24305e-08
-5.94147e-08
8.88611e-08
-6.2582e-08
9.02386e-08
-6.51439e-08
9.23469e-08
-6.71215e-08
9.30073e-08
-7.32234e-08
7.69188e-08
6.71305e-08
-8.17173e-08
-1.26821e-07
4.20353e-08
1.40262e-07
-1.16345e-07
5.89612e-08
-1.07884e-07
6.8209e-08
-9.75304e-08
7.20767e-08
-8.2594e-08
7.39248e-08
-6.83769e-08
7.60216e-08
-6.12111e-08
8.51812e-08
-5.57485e-08
8.75448e-08
-5.26407e-08
7.38111e-08
6.29722e-08
-4.84825e-08
-1.30755e-07
3.47867e-08
1.38004e-07
-1.20735e-07
4.8941e-08
-1.09877e-07
5.73513e-08
-9.95461e-08
6.17461e-08
-8.72005e-08
6.15793e-08
-7.11215e-08
5.99426e-08
-5.45514e-08
6.86111e-08
-3.69684e-08
6.99617e-08
-2.20684e-08
5.8911e-08
4.6243e-08
-5.33929e-09
-1.14119e-07
3.14873e-08
1.17418e-07
-1.04986e-07
3.98076e-08
-9.16689e-08
4.40346e-08
-7.86811e-08
4.87582e-08
-6.5688e-08
4.85862e-08
-5.32228e-08
4.74773e-08
-3.51537e-08
5.0542e-08
-1.30201e-08
4.7828e-08
6.85308e-09
3.90377e-08
2.56649e-08
2.74311e-08
-3.40669e-08
4.24129e-08
2.31412e-08
-4.34859e-08
4.92263e-08
-4.63111e-08
4.68598e-08
-4.26585e-08
4.51055e-08
-3.74659e-08
4.33935e-08
-2.9702e-08
3.97133e-08
-1.5966e-08
3.68058e-08
5.05222e-09
2.68096e-08
2.984e-08
1.42498e-08
1.82227e-10
5.53225e-08
2.87644e-08
5.2639e-08
-3.89906e-08
3.81433e-08
3.98475e-08
4.50751e-08
3.99281e-08
5.38048e-08
3.63758e-08
5.43157e-08
4.28826e-08
4.76155e-08
4.64134e-08
3.86026e-08
4.58187e-08
3.45939e-08
3.08182e-08
3.67999e-08
1.20437e-08
-1.25954e-08
4.95774e-08
7.18132e-08
8.04631e-08
-9.96372e-08
5.82631e-08
5.33982e-08
6.82174e-08
2.99739e-08
8.41606e-08
2.04328e-08
1.07351e-07
1.96918e-08
1.28003e-07
2.57624e-08
1.31894e-07
4.19272e-08
1.15558e-07
4.71546e-08
8.96707e-08
3.79305e-08
1.28359e-08
6.42394e-08
1.62082e-07
1.22657e-07
-2.04275e-07
1.2958e-07
8.59017e-08
1.09537e-07
5.00168e-08
1.12866e-07
1.71042e-08
1.24003e-07
8.55417e-09
1.3724e-07
1.25262e-08
1.46125e-07
3.30422e-08
1.43507e-07
4.97729e-08
1.29681e-07
5.17558e-08
4.49882e-08
9.7529e-08
2.14242e-07
1.17069e-07
-2.08653e-07
1.97463e-07
1.02681e-07
1.78281e-07
6.91991e-08
1.66995e-07
2.83906e-08
1.56365e-07
1.91839e-08
1.46752e-07
2.21395e-08
1.425e-07
3.72945e-08
1.38483e-07
5.37896e-08
1.33043e-07
5.71966e-08
5.51955e-08
1.22836e-07
1.86107e-07
1.1093e-07
-1.79968e-07
1.87521e-07
1.01268e-07
1.89316e-07
6.7404e-08
1.77924e-07
3.97827e-08
1.61754e-07
3.53538e-08
1.4503e-07
3.88635e-08
1.3464e-07
4.76846e-08
1.24857e-07
6.35728e-08
1.19854e-07
6.21998e-08
6.33752e-08
1.11675e-07
8.73118e-08
9.74947e-08
-7.38759e-08
1.11837e-07
7.67421e-08
1.23503e-07
5.57386e-08
1.16318e-07
4.69675e-08
1.03924e-07
4.77477e-08
9.84921e-08
4.42956e-08
1.01203e-07
4.49735e-08
1.07792e-07
5.69844e-08
1.00941e-07
6.90506e-08
7.08904e-08
9.34262e-08
-1.37889e-08
6.82088e-08
4.30747e-08
2.59459e-08
3.70066e-08
5.01169e-08
3.15677e-08
5.39815e-08
4.31029e-08
5.33355e-08
4.83939e-08
7.21829e-08
2.54482e-08
8.70555e-08
3.01011e-08
8.95879e-08
5.44522e-08
9.04435e-08
6.81951e-08
7.32273e-08
8.81067e-08
-1.26769e-08
4.61042e-08
3.47812e-08
-1.24431e-08
3.67724e-08
-4.03643e-09
2.3161e-08
1.44581e-08
2.46085e-08
4.92848e-08
1.35673e-08
5.63404e-08
1.83927e-08
6.03724e-08
2.60692e-08
6.64718e-08
4.83528e-08
6.18281e-08
7.28388e-08
7.95689e-08
5.54864e-08
2.9097e-08
2.64892e-08
-9.48212e-09
3.57783e-08
3.00909e-08
3.74836e-08
2.14556e-08
4.48386e-08
1.72534e-08
4.48221e-08
1.35838e-08
4.18703e-08
2.13445e-08
4.29277e-08
2.50118e-08
5.96199e-08
3.16604e-08
6.96481e-08
6.28106e-08
8.50831e-08
6.41337e-08
1.46181e-07
9.10982e-09
-1.28801e-07
1.62085e-07
1.41871e-08
1.61416e-07
2.21245e-08
1.43347e-07
3.53225e-08
1.14778e-07
4.21518e-08
9.76748e-08
3.84477e-08
8.9895e-08
3.27911e-08
8.90791e-08
3.2476e-08
1.03372e-07
4.85172e-08
6.14009e-08
1.27054e-07
2.57795e-07
-2.05993e-08
-2.28086e-07
2.80998e-07
-9.01537e-09
2.93743e-07
9.37953e-09
2.85245e-07
4.38201e-08
2.69615e-07
5.77818e-08
2.57216e-07
5.08466e-08
2.48727e-07
4.12797e-08
2.44788e-07
3.6414e-08
2.54248e-07
3.90574e-08
4.65289e-08
2.6912e-07
2.83792e-07
-5.52038e-08
-2.49187e-07
3.05655e-07
-3.0879e-08
3.23902e-07
-8.86768e-09
3.43577e-07
2.41441e-08
3.58121e-07
4.32381e-08
3.63445e-07
4.55215e-08
3.61477e-07
4.32472e-08
3.50332e-07
4.75591e-08
3.36944e-07
5.24457e-08
5.4738e-08
3.28735e-07
2.64388e-07
-7.1041e-08
-2.48551e-07
2.86097e-07
-5.25875e-08
3.10122e-07
-3.28927e-08
3.28651e-07
5.61446e-09
3.51139e-07
2.07497e-08
3.84071e-07
1.25896e-08
4.09092e-07
1.82265e-08
4.01798e-07
5.48532e-08
3.58879e-07
9.53641e-08
8.93707e-08
3.24247e-07
2.27488e-07
-8.10412e-08
-2.17488e-07
2.39997e-07
-6.50978e-08
2.53714e-07
-4.661e-08
2.5606e-07
3.26857e-09
2.75126e-07
1.68395e-09
3.2336e-07
-3.56445e-08
3.45214e-07
-3.62719e-09
3.18684e-07
8.1383e-08
2.82976e-07
1.31072e-07
1.01144e-07
2.71202e-07
6.78888e-08
-6.4974e-08
-8.39561e-08
6.34947e-08
-6.07043e-08
6.75573e-08
-5.06728e-08
8.18644e-08
-1.10384e-08
9.77047e-08
-1.41563e-08
8.95383e-08
-2.74778e-08
7.27585e-08
1.31523e-08
8.49343e-08
6.92073e-08
1.33937e-07
8.20691e-08
7.73388e-08
1.57742e-07
-2.0748e-07
-5.48838e-08
1.9739e-07
-2.1525e-07
-5.29358e-08
-2.19552e-07
-4.63702e-08
-1.95983e-07
-3.46067e-08
-1.88799e-07
-2.13406e-08
-2.20099e-07
3.82268e-09
-2.40751e-07
3.38038e-08
-2.29283e-07
5.77389e-08
-2.17692e-07
7.04779e-08
8.5942e-08
-2.26296e-07
-3.7624e-07
-5.6882e-08
3.78237e-07
-3.77048e-07
-5.21278e-08
-3.81905e-07
-4.15133e-08
-3.90144e-07
-2.63672e-08
-4.04132e-07
-7.35258e-09
-4.16504e-07
1.61936e-08
-4.27568e-07
4.48691e-08
-4.36675e-07
6.68451e-08
-4.38917e-07
7.27193e-08
7.33862e-08
-4.2636e-07
-4.9931e-07
-4.37944e-08
4.86223e-07
-5.14297e-07
-3.71411e-08
-5.28364e-07
-2.74465e-08
-5.40072e-07
-1.46596e-08
-5.5104e-07
3.61622e-09
-5.49404e-07
1.45577e-08
-5.28409e-07
2.38736e-08
-4.91339e-07
2.97761e-08
-4.42488e-07
2.38682e-08
1.51026e-08
-3.84205e-07
-6.1784e-07
-4.54135e-08
6.19459e-07
-6.09218e-07
-4.57627e-08
-5.977e-07
-3.89639e-08
-5.81966e-07
-3.03938e-08
-5.61284e-07
-1.70657e-08
-5.35745e-07
-1.09814e-08
-5.00994e-07
-1.08777e-08
-4.48712e-07
-2.25064e-08
-3.82355e-07
-4.24888e-08
-5.45519e-08
-3.127e-07
-6.60482e-07
-7.3376e-08
6.88445e-07
-6.21362e-07
-8.48834e-08
-5.77e-07
-8.33265e-08
-5.21658e-07
-8.57347e-08
-4.58171e-07
-8.05524e-08
-3.98653e-07
-7.04993e-08
-3.42535e-07
-6.6996e-08
-2.95962e-07
-6.9079e-08
-2.70215e-07
-6.82358e-08
-6.48283e-08
-2.59939e-07
-7.46735e-07
-1.08981e-07
7.82339e-07
-6.95555e-07
-1.36063e-07
-6.43965e-07
-1.34916e-07
-5.69947e-07
-1.59754e-07
-4.82379e-07
-1.68121e-07
-4.00558e-07
-1.52321e-07
-3.45688e-07
-1.21865e-07
-3.20431e-07
-9.43364e-08
-3.19307e-07
-6.9359e-08
-5.85749e-08
-3.25561e-07
-7.51795e-07
-1.47529e-07
7.90342e-07
-7.0884e-07
-1.79017e-07
-6.45526e-07
-1.9823e-07
-5.76996e-07
-2.28283e-07
-4.97136e-07
-2.47981e-07
-4.09203e-07
-2.40254e-07
-3.16053e-07
-2.15015e-07
-2.3933e-07
-1.7106e-07
-2.27014e-07
-8.1674e-08
-5.54776e-08
-2.30111e-07
-7.25821e-07
-1.13486e-07
6.91778e-07
-7.0334e-07
-2.01499e-07
-6.58137e-07
-2.43432e-07
-6.0888e-07
-2.77541e-07
-5.58429e-07
-2.98432e-07
-4.94288e-07
-3.04395e-07
-4.09601e-07
-2.99703e-07
-3.1588e-07
-2.64781e-07
-2.05963e-07
-1.91592e-07
-1.02938e-07
-1.58503e-07
-4.90434e-07
-4.68881e-08
4.23836e-07
-5.80517e-07
-1.11415e-07
-6.18694e-07
-2.05255e-07
-6.06978e-07
-2.89256e-07
-5.81937e-07
-3.23473e-07
-5.49787e-07
-3.36545e-07
-5.0631e-07
-3.43179e-07
-4.33093e-07
-3.37997e-07
-3.22551e-07
-3.02134e-07
-2.03901e-07
-2.21588e-07
-3.59285e-07
-3.62624e-08
3.48659e-07
-4.12074e-07
-5.86265e-08
-4.88413e-07
-1.28917e-07
-5.45572e-07
-2.32097e-07
-5.70002e-07
-2.99044e-07
-5.773e-07
-3.29247e-07
-5.74146e-07
-3.46333e-07
-5.51954e-07
-3.6019e-07
-4.94033e-07
-3.60054e-07
-3.18009e-07
-3.79925e-07
-3.35243e-07
-3.48734e-08
3.33854e-07
-3.4799e-07
-4.5879e-08
-3.92988e-07
-8.39189e-08
-4.62691e-07
-1.62394e-07
-5.23839e-07
-2.37897e-07
-5.71953e-07
-2.81133e-07
-5.99903e-07
-3.18383e-07
-6.01703e-07
-3.5839e-07
-5.74966e-07
-3.86791e-07
-3.95486e-07
-4.97489e-07
-2.8155e-07
-2.34712e-08
2.70149e-07
-2.83845e-07
-4.35853e-08
-3.00405e-07
-6.73587e-08
-3.49626e-07
-1.13174e-07
-4.30124e-07
-1.57398e-07
-5.1e-07
-2.01257e-07
-5.80404e-07
-2.47979e-07
-6.14001e-07
-3.24793e-07
-6.01617e-07
-3.99175e-07
-4.30875e-07
-5.66227e-07
-2.0399e-07
-4.71141e-08
2.27633e-07
-1.66451e-07
-8.11265e-08
-1.53641e-07
-8.01687e-08
-1.83318e-07
-8.34976e-08
-2.44052e-07
-9.66642e-08
-3.22576e-07
-1.22733e-07
-4.15826e-07
-1.54729e-07
-5.44627e-07
-1.95991e-07
-5.74961e-07
-3.6884e-07
-4.51593e-07
-5.54244e-07
-1.79015e-07
-7.9412e-08
2.11312e-07
-1.4107e-07
-1.19072e-07
-9.36776e-08
-1.27561e-07
-6.97348e-08
-1.0744e-07
-7.81258e-08
-8.82733e-08
-1.00471e-07
-1.00388e-07
-1.5032e-07
-1.0488e-07
-2.72958e-07
-7.33536e-08
-4.95654e-07
-1.46144e-07
-4.48923e-07
-4.98324e-07
-1.6387e-07
-1.15678e-07
2.00135e-07
-1.33498e-07
-1.49444e-07
-1.00411e-07
-1.60649e-07
-4.82753e-08
-1.59575e-07
-2.07573e-08
-1.15791e-07
3.48858e-09
-1.24634e-07
2.56443e-08
-1.27036e-07
2.36536e-08
-7.1363e-08
-1.83841e-07
6.13494e-08
-2.65351e-07
-3.67413e-07
-1.05885e-07
-1.10398e-07
1.00605e-07
-1.03715e-07
-1.51615e-07
-9.07056e-08
-1.73658e-07
-7.78912e-08
-1.7239e-07
-5.80109e-08
-1.35672e-07
-4.31036e-08
-1.39542e-07
-5.99274e-08
-1.10212e-07
-7.33418e-08
-5.79495e-08
-9.66399e-08
8.46468e-08
-1.08219e-07
-2.53772e-07
1.38533e-07
-5.31529e-08
-1.95778e-07
8.17248e-08
-9.48069e-08
2.66645e-08
-1.18598e-07
1.40716e-08
-1.59797e-07
8.5477e-09
-1.30148e-07
-1.37895e-08
-1.17205e-07
-3.68833e-08
-8.71186e-08
-1.78155e-08
-7.70178e-08
6.09508e-08
5.88122e-09
-6.62272e-08
1.89597e-08
3.93311e-07
-7.61155e-08
-3.70349e-07
3.71071e-07
-7.25683e-08
3.22013e-07
-6.95398e-08
2.54948e-07
-9.27332e-08
2.01774e-07
-7.69738e-08
1.48244e-07
-6.36752e-08
1.10234e-07
-4.91098e-08
7.42139e-08
-4.09986e-08
1.08856e-07
-2.87607e-08
-5.55327e-08
9.81613e-08
3.91669e-07
-9.68118e-08
-3.70973e-07
3.86747e-07
-6.76461e-08
3.9086e-07
-7.36524e-08
3.66295e-07
-6.81682e-08
2.93384e-07
-4.06318e-09
2.28444e-07
1.26564e-09
2.1025e-07
-3.09159e-08
1.88072e-07
-1.88196e-08
1.80817e-07
-2.15062e-08
-5.83082e-08
1.83592e-07
4.56234e-07
-8.88417e-08
-4.64204e-07
3.67981e-07
2.06074e-08
3.05161e-07
-1.08326e-08
2.76859e-07
-3.98667e-08
1.92546e-07
8.02504e-08
8.22848e-08
1.11526e-07
4.21012e-08
9.26829e-09
7.79941e-08
-5.47124e-08
1.35958e-07
-7.94698e-08
-1.2753e-07
2.0518e-07
4.7903e-07
-1.11279e-07
-4.56592e-07
4.84191e-07
1.54487e-08
4.2852e-07
4.48392e-08
3.23077e-07
6.55753e-08
2.58288e-07
1.45039e-07
2.02689e-07
1.67125e-07
1.66459e-07
4.54984e-08
1.87696e-07
-7.595e-08
2.3143e-07
-1.23205e-07
-1.75469e-07
2.79369e-07
2.86584e-07
-9.38759e-08
-3.03988e-07
2.99055e-07
2.97929e-09
2.82431e-07
6.1465e-08
2.43174e-07
1.04833e-07
2.45039e-07
1.43175e-07
2.86354e-07
1.25812e-07
2.98024e-07
3.38297e-08
2.58692e-07
-3.66168e-08
2.79594e-07
-1.44106e-07
-2.12813e-07
3.16939e-07
1.38867e-07
-4.67863e-08
-1.85958e-07
1.33792e-07
8.05317e-09
1.30016e-07
6.52396e-08
1.52443e-07
8.24054e-08
2.29576e-07
6.6041e-08
3.27142e-07
2.82451e-08
3.78903e-07
-1.7931e-08
4.03173e-07
-6.08852e-08
3.93393e-07
-1.34327e-07
-2.08933e-07
3.89513e-07
-2.40584e-08
2.81422e-08
-5.08696e-08
-2.36298e-08
7.63258e-09
1.94059e-08
2.22049e-08
9.60528e-08
5.76039e-09
1.86492e-07
-2.43977e-08
2.82214e-07
-6.74759e-08
3.24194e-07
-5.99116e-08
3.62422e-07
-9.91129e-08
3.68114e-07
-1.40018e-07
-2.34908e-07
3.9409e-07
1.84488e-08
4.47328e-08
-3.5039e-08
-1.56612e-08
4.17433e-08
3.90239e-09
2.64109e-09
5.73882e-08
-4.77249e-08
1.21178e-07
-8.81871e-08
1.5822e-07
-1.04517e-07
1.95437e-07
-9.71284e-08
2.24957e-07
-1.28633e-07
2.82553e-07
-1.97614e-07
-2.49251e-07
2.96896e-07
-7.41807e-09
5.50625e-08
-2.91132e-09
3.025e-08
4.07586e-09
1.20536e-07
-8.76449e-08
1.61644e-07
-8.88324e-08
2.18153e-07
-1.44696e-07
2.42368e-07
-1.28731e-07
2.47543e-07
-1.02303e-07
2.22596e-07
-1.03687e-07
2.14123e-07
-1.89141e-07
-2.52976e-07
2.17847e-07
-4.74604e-08
1.56287e-08
8.68946e-08
7.49552e-08
-1.18338e-07
1.75319e-07
-1.88008e-07
2.85487e-07
-1.99e-07
3.04683e-07
-1.63892e-07
2.73306e-07
-9.73544e-08
2.01033e-07
-3.00309e-08
1.35586e-07
-3.82394e-08
1.21844e-07
-1.75397e-07
-2.71762e-07
1.40631e-07
-3.62567e-09
-9.58683e-08
1.15123e-07
9.97375e-08
-2.217e-07
1.7791e-07
-2.6618e-07
2.28992e-07
-2.50081e-07
2.39275e-07
-1.74175e-07
2.01859e-07
-5.99384e-08
1.69371e-07
2.45686e-09
1.52432e-07
-2.12998e-08
1.39487e-07
-1.62452e-07
-2.13385e-07
8.11114e-08
1.28054e-08
-1.22238e-07
1.35647e-08
4.07573e-08
-2.49651e-07
6.51351e-08
-2.90558e-07
7.97525e-08
-2.64699e-07
9.77191e-08
-1.92142e-07
1.48139e-07
-1.10359e-07
2.25136e-07
-7.45394e-08
2.91458e-07
-8.76202e-08
2.71841e-07
-1.42835e-07
-1.53267e-07
2.11724e-07
7.14514e-08
-1.00786e-07
-9.29033e-08
2.56415e-08
-2.03841e-07
3.19431e-09
-2.68111e-07
1.65151e-08
-2.78019e-07
3.87591e-08
-2.14385e-07
1.08612e-07
-1.80212e-07
2.13527e-07
-1.79454e-07
3.028e-07
-1.76891e-07
3.31962e-07
-1.71996e-07
-1.72815e-07
3.51512e-07
1.35302e-07
-8.53467e-08
-1.50742e-07
1.02305e-07
-1.70843e-07
5.32176e-08
-2.19024e-07
3.70506e-08
-2.61852e-07
6.5714e-08
-2.43048e-07
1.06725e-07
-2.21222e-07
1.80721e-07
-2.5345e-07
2.64816e-07
-2.60986e-07
3.55621e-07
-2.628e-07
-2.58645e-07
4.41452e-07
1.63965e-07
-8.4329e-08
-1.64982e-07
1.4132e-07
-1.48196e-07
1.30086e-07
-2.07789e-07
1.21492e-07
-2.53258e-07
1.38342e-07
-2.59899e-07
1.86402e-07
-2.6928e-07
2.55043e-07
-3.22091e-07
3.66591e-07
-3.72533e-07
5.00792e-07
-3.97e-07
-3.484e-07
5.90546e-07
1.87619e-07
-8.39936e-08
-1.87955e-07
1.68978e-07
-1.29556e-07
1.67238e-07
-2.06049e-07
1.67632e-07
-2.53652e-07
2.0104e-07
-2.93306e-07
3.14436e-07
-3.82676e-07
4.66318e-07
-4.73972e-07
5.75124e-07
-4.81339e-07
6.17325e-07
-4.392e-07
-4.03504e-07
6.7243e-07
1.72521e-07
-9.61299e-08
-1.60384e-07
1.76503e-07
-1.33538e-07
1.77377e-07
-2.06924e-07
1.75851e-07
-2.52125e-07
2.74013e-07
-3.91469e-07
4.37518e-07
-5.46181e-07
5.37083e-07
-5.73537e-07
5.88849e-07
-5.33105e-07
6.41143e-07
-4.91495e-07
-4.03504e-07
6.41142e-07
1.16266e-07
-1.09031e-07
-1.03365e-07
1.32059e-07
-1.49331e-07
1.32526e-07
-2.0739e-07
1.39852e-07
-2.59451e-07
2.92198e-07
-5.43814e-07
4.07222e-07
-6.61204e-07
4.34949e-07
-6.01264e-07
4.14473e-07
-5.1263e-07
3.0113e-07
-3.78152e-07
-2.14587e-07
1.12213e-07
1.08458e-08
-1.10573e-07
-9.30376e-09
1.31511e-08
-1.51636e-07
-8.2693e-09
-1.8597e-07
5.37251e-08
-3.21446e-07
1.35197e-07
-6.25286e-07
1.34987e-07
-6.60994e-07
6.12648e-08
-5.27542e-07
-9.39731e-08
-3.57392e-07
-2.3767e-07
-2.34456e-07
-1.09975e-07
-3.42282e-07
-4.61117e-08
-1.42427e-07
7.7966e-08
-6.38029e-08
-1.33946e-07
-9.59272e-08
-1.53845e-07
7.31486e-09
-4.24688e-07
3.2059e-08
-6.5003e-07
1.43542e-08
-6.43288e-07
-5.8792e-08
-4.54396e-07
-1.89021e-07
-2.27163e-07
-2.4462e-07
-1.78857e-07
-7.18239e-08
-2.82771e-07
-6.12333e-08
-1.16565e-07
3.53706e-08
-7.28422e-08
-1.22338e-07
-7.65052e-08
-1.50182e-07
-1.22293e-08
-4.88964e-07
3.28135e-09
-6.65541e-07
1.78322e-08
-6.5784e-07
2.21316e-09
-4.38776e-07
-1.01373e-07
-1.23579e-07
-1.73734e-07
-1.06495e-07
-7.03276e-08
-1.7523e-07
-8.35098e-08
-1.31244e-07
9.81886e-08
-7.09672e-08
-1.3488e-07
-6.32451e-08
-1.57904e-07
-3.19196e-08
-5.20289e-07
-3.50608e-09
-6.93954e-07
1.37904e-08
-6.75137e-07
-9.13879e-09
-4.15847e-07
-7.66174e-08
-5.61001e-08
-1.39494e-07
-4.36188e-08
-4.40631e-08
-1.65758e-07
-1.26519e-07
-1.7211e-07
1.67386e-07
-6.4936e-08
-1.96463e-07
-2.13643e-08
-2.01475e-07
9.28931e-09
-5.50943e-07
1.88598e-08
-7.03524e-07
2.2928e-08
-6.79206e-07
-1.11535e-08
-3.81766e-07
-5.66882e-08
-1.05646e-08
-1.00848e-07
5.41102e-10
-3.09267e-09
-1.41818e-07
-1.29922e-07
-1.80842e-07
1.38654e-07
-1.07309e-07
-2.19076e-07
-3.24956e-08
-2.76287e-07
5.83735e-09
-5.89277e-07
1.89382e-08
-7.16625e-07
3.31839e-08
-6.93452e-07
-2.10666e-08
-3.27516e-07
-6.29927e-08
3.13621e-08
-1.05841e-07
4.33893e-08
3.73263e-08
-1.4626e-07
1.81485e-08
-1.46104e-07
-5.2886e-08
-4.86675e-09
-1.96062e-07
5.27183e-09
-2.86426e-07
-2.73003e-09
-5.81275e-07
-1.21175e-08
-7.07238e-07
-1.93035e-08
-6.86266e-07
-7.30172e-08
-2.73802e-07
-1.19567e-07
7.79121e-08
-1.60877e-07
8.46995e-08
7.43406e-08
-1.97891e-07
8.59348e-08
-9.74765e-08
-1.34563e-07
4.4844e-08
-1.54971e-07
1.90486e-08
-2.6063e-07
-1.53539e-08
-5.46872e-07
-3.67139e-08
-6.85879e-07
-5.97846e-08
-6.63195e-07
-5.06969e-08
-2.8289e-07
-1.25981e-07
1.53196e-07
-1.8279e-07
1.41508e-07
1.20846e-07
-2.29294e-07
1.16965e-07
-7.00993e-08
-1.44342e-07
1.07766e-07
-1.45772e-07
6.2649e-08
-2.15513e-07
1.84081e-08
-5.02631e-07
-1.27231e-08
-6.54749e-07
-2.48207e-08
-6.51098e-07
4.71585e-08
-3.54868e-07
-5.71954e-08
2.5755e-07
-1.17906e-07
2.02219e-07
2.11858e-07
-2.08919e-07
9.19539e-08
-7.16042e-08
-9.04487e-08
8.54973e-08
-1.39315e-07
6.53943e-08
-1.9541e-07
5.46943e-08
-4.91931e-07
5.07067e-08
-6.50761e-07
3.68089e-08
-6.37201e-07
1.18648e-07
-4.36707e-07
3.10328e-08
3.45166e-07
-7.29222e-08
3.06174e-07
2.96961e-07
-1.58025e-07
4.42057e-08
-1.11677e-07
-4.13283e-09
7.51518e-08
-1.70261e-07
6.50432e-08
-1.85302e-07
7.65129e-08
-5.03401e-07
8.60276e-08
-6.60276e-07
9.08391e-08
-6.42012e-07
1.36976e-07
-4.82844e-07
8.7172e-08
3.94971e-07
-7.10017e-08
4.64349e-07
3.84564e-07
-1.58604e-07
4.89418e-08
-1.39212e-07
-2.14069e-08
6.85036e-08
-1.89822e-07
6.55939e-08
-1.82393e-07
1.1099e-07
-5.48797e-07
1.17115e-07
-6.664e-07
1.20774e-07
-6.4567e-07
1.08843e-07
-4.70914e-07
8.97735e-08
4.1404e-07
-1.71969e-08
5.71317e-07
4.8453e-07
-1.17164e-07
7.77529e-08
-1.58797e-07
-5.81679e-08
8.47364e-08
-1.96807e-07
7.35134e-08
-1.7117e-07
1.14774e-07
-5.90058e-07
1.28466e-07
-6.80091e-07
1.3182e-07
-6.49024e-07
8.62834e-08
-4.25376e-07
8.33814e-08
4.16942e-07
4.45759e-08
6.10124e-07
5.5111e-07
-2.20029e-08
1.04908e-07
-1.76532e-07
-8.7172e-08
1.12346e-07
-2.04247e-07
7.89902e-08
-1.37814e-07
1.31007e-07
-6.42075e-07
1.28622e-07
-6.77706e-07
1.08217e-07
-6.28619e-07
2.82789e-08
-3.45438e-07
1.29976e-08
4.32222e-07
5.41802e-09
6.17701e-07
5.91605e-07
-3.50789e-08
6.87586e-08
-1.6476e-07
-8.0531e-08
2.99557e-08
-1.65443e-07
6.31539e-08
-1.7101e-07
6.25193e-08
-6.41439e-07
4.47723e-08
-6.59958e-07
1.87822e-08
-6.02629e-07
-5.02194e-08
-2.76435e-07
-5.32721e-08
4.35276e-07
-1.5547e-08
5.79977e-07
5.86655e-07
-1.05954e-08
-4.89552e-08
-5.8012e-08
-5.77934e-08
-1.86219e-07
-2.81806e-08
-6.93411e-08
-2.87888e-07
-6.12362e-08
-6.49545e-07
-6.50834e-08
-6.56111e-07
-6.39268e-08
-6.03786e-07
-7.83547e-08
-2.62008e-07
-1.1462e-08
3.68382e-07
3.54678e-09
5.64969e-07
5.72419e-07
1.77829e-08
-4.54913e-08
2.93268e-08
-4.18476e-08
-1.38951e-07
6.52809e-08
-1.17901e-07
-3.08937e-07
-1.39119e-07
-6.28326e-07
-1.51234e-07
-6.43996e-07
-1.55169e-07
-5.9985e-07
-1.02612e-07
-3.14566e-07
-2.32409e-08
2.89011e-07
1.64339e-08
5.25295e-07
5.00924e-07
8.79294e-08
-2.70565e-08
8.4723e-08
-2.83398e-08
-8.90634e-08
1.27287e-07
-1.71984e-07
-2.2602e-07
-1.73147e-07
-6.27163e-07
-1.88983e-07
-6.2816e-07
-1.97893e-07
-5.90941e-07
-1.26734e-07
-3.85725e-07
-3.25389e-08
1.94816e-07
1.13721e-07
3.79035e-07
3.93277e-07
2.21368e-07
-6.7412e-08
1.62424e-07
-1.0294e-08
-1.15668e-07
1.75543e-07
-9.0149e-08
-2.51537e-07
-1.19587e-07
-5.97725e-07
-1.6893e-07
-5.78818e-07
-2.01454e-07
-5.58417e-07
-1.35653e-07
-4.51525e-07
-2.59628e-08
8.51242e-08
1.84904e-07
1.68168e-07
2.41451e-07
3.36729e-07
5.63585e-08
2.28365e-07
-1.22289e-07
-1.06458e-07
3.38362e-07
-5.91368e-08
-2.98858e-07
-8.0077e-08
-5.76783e-07
-1.0077e-07
-5.58125e-07
-1.34303e-07
-5.24884e-07
-1.00471e-07
-4.85357e-07
8.14159e-08
-9.67628e-08
1.33506e-07
1.16075e-07
1.03016e-07
2.71941e-07
1.15849e-07
2.92163e-07
-1.79658e-07
-2.24901e-08
4.76706e-07
6.04209e-08
-3.81772e-07
-7.38823e-10
-5.15625e-07
-3.44111e-08
-5.24454e-07
-4.49716e-08
-5.14324e-07
-6.68029e-09
-5.23648e-07
1.4449e-07
-2.47934e-07
5.55084e-08
2.05056e-07
2.01234e-08
1.38401e-07
-6.57384e-09
3.46316e-07
-4.75746e-08
4.93593e-09
4.65226e-07
6.42652e-08
-4.41095e-07
3.8333e-08
-4.89691e-07
-1.27541e-09
-4.84845e-07
-3.12745e-08
-4.84326e-07
-5.40429e-08
-5.0088e-07
1.17704e-07
-4.1968e-07
7.44414e-08
2.48319e-07
-5.44791e-08
1.49042e-07
-1.08301e-08
1.96154e-07
1.61006e-07
1.05929e-07
3.48435e-07
7.8827e-08
-4.13988e-07
3.58127e-08
-4.46677e-07
1.381e-08
-4.62843e-07
-6.02297e-09
-4.64494e-07
-4.47606e-08
-4.62143e-07
2.07149e-10
-4.64649e-07
1.02996e-07
1.45524e-07
3.68166e-08
1.17174e-08
-1.9377e-07
9.27386e-08
2.97202e-07
1.43024e-07
1.16255e-08
1.16531e-07
-3.87484e-07
6.86088e-08
-3.98755e-07
8.71656e-09
-4.0295e-07
-4.90848e-08
-4.06692e-07
-9.8944e-08
-4.12284e-07
-1.73109e-07
-3.90486e-07
3.43784e-08
-6.19529e-08
-6.98608e-08
1.41033e-07
-1.08847e-07
8.38857e-08
1.17682e-07
1.33832e-07
-2.31085e-07
8.76783e-08
-3.41332e-07
5.17509e-08
-3.62828e-07
1.93123e-08
-3.70512e-07
-1.85894e-08
-3.68791e-07
-7.80237e-08
-3.5285e-07
-1.28922e-07
-3.39587e-07
1.03455e-07
-2.94325e-07
-1.32806e-07
1.66418e-07
8.05432e-08
-1.68466e-08
2.0225e-08
1.36562e-07
-2.87108e-07
9.43323e-08
-2.99102e-07
3.98964e-08
-3.08392e-07
-1.57288e-08
-3.14887e-07
-6.70659e-08
-3.17454e-07
-1.03068e-07
-3.16847e-07
-1.3538e-07
-3.07275e-07
-1.49902e-07
-2.79808e-07
-1.36099e-07
-1.46626e-07
2.26913e-07
-1.73621e-07
-7.01478e-08
1.59641e-07
-2.19836e-07
1.16695e-07
-2.56156e-07
7.5922e-08
-2.67619e-07
3.01779e-08
-2.69142e-07
-2.07352e-08
-2.66541e-07
-7.93083e-08
-2.58275e-07
-1.39293e-07
-2.47291e-07