/*--------------------------------*- C++ -*----------------------------------*\
  =========                 |
  \\      /  F ield         | OpenFOAM: The Open Source CFD Toolbox
   \\    /   O peration     | Website:  https://openfoam.org
    \\  /    A nd           | Version:  8
     \\/     M anipulation  |
\*---------------------------------------------------------------------------*/
FoamFile
{
    version     2.0;
    format      ascii;
    class       volVectorField;
    location    "8.05";
    object      U;
}
// * * * * * * * * * * * * * * * * * * * * * * * * * * * * * * * * * * * * * //

dimensions      [0 1 -1 0 0 0 0];

internalField   nonuniform List<vector> 
9150
(
(0.00484054 -0.0785491 0)
(0.01309 -0.0974383 0)
(0.0108982 -0.104573 0)
(0.0089121 -0.107748 0)
(0.00198065 -0.109578 0)
(-0.00238871 -0.109429 0)
(-0.00914619 -0.107461 0)
(-0.010865 -0.104565 0)
(-0.0130969 -0.0974196 0)
(-0.00482946 -0.0785417 0)
(0.00585042 -0.0919969 0)
(0.00852746 -0.100473 0)
(0.00739623 -0.102271 0)
(0.00427695 -0.104624 0)
(0.00232441 -0.105287 0)
(-0.00175815 -0.105609 0)
(-0.00424919 -0.104925 0)
(-0.00739107 -0.102238 0)
(-0.00853241 -0.100469 0)
(-0.00584821 -0.0919899 0)
(0.0017065 -0.095468 0)
(0.0045428 -0.0989655 0)
(0.00371784 -0.101064 0)
(0.00333716 -0.101673 0)
(0.000570436 -0.102586 0)
(-0.00101716 -0.10232 0)
(-0.00339493 -0.101688 0)
(-0.00373163 -0.101003 0)
(-0.0045458 -0.0989564 0)
(-0.00170324 -0.0954608 0)
(0.00171711 -0.0984158 0)
(0.00244149 -0.10039 0)
(0.0022125 -0.100194 0)
(0.00129041 -0.100851 0)
(0.000745732 -0.100868 0)
(-0.000311401 -0.100909 0)
(-0.00126783 -0.100872 0)
(-0.00218122 -0.100241 0)
(-0.00244701 -0.100378 0)
(-0.00171905 -0.0984121 0)
(0.000169313 -0.0994843 0)
(0.00070953 -0.0995824 0)
(0.000454364 -0.10004 0)
(0.000670276 -0.0998684 0)
(0.000117907 -0.10012 0)
(-0.000246905 -0.100106 0)
(-0.000698354 -0.099867 0)
(-0.00049787 -0.0999772 0)
(-0.000712197 -0.0995759 0)
(-0.000170895 -0.099485 0)
(0.0747833 -0.193687 3.36536e-26)
(0.0492668 -0.184283 0)
(0.0300882 -0.175542 0)
(0.0158651 -0.174528 0)
(0.00455202 -0.175338 0)
(-0.00397459 -0.175867 0)
(-0.0156038 -0.174685 0)
(-0.0300791 -0.175955 0)
(-0.049188 -0.184799 0)
(-0.0749185 -0.194154 -3.37522e-26)
(0.0585181 -0.146697 8.29211e-27)
(0.048703 -0.14658 0)
(0.0284873 -0.156158 0)
(0.0206426 -0.156373 0)
(0.00496056 -0.155647 0)
(-0.00532285 -0.155278 0)
(-0.0208007 -0.156564 0)
(-0.0285024 -0.156471 0)
(-0.0487359 -0.146771 0)
(-0.0585361 -0.146877 -8.51999e-27)
(0.0474747 -0.121318 3.75955e-27)
(0.042909 -0.131242 0)
(0.0297365 -0.133536 0)
(0.0178391 -0.137667 0)
(0.00646636 -0.139958 0)
(-0.00517221 -0.140463 0)
(-0.0169852 -0.138177 0)
(-0.0291836 -0.133499 0)
(-0.0426978 -0.131266 0)
(-0.0474516 -0.121394 -3.86453e-27)
(0.0369956 -0.0992274 7.15924e-27)
(0.0392327 -0.110164 0)
(0.0226849 -0.120473 0)
(0.0172907 -0.125023 0)
(0.00437944 -0.125587 0)
(-0.00474147 -0.125188 0)
(-0.017726 -0.124421 0)
(-0.0230048 -0.120531 0)
(-0.0392775 -0.110205 0)
(-0.0370268 -0.099234 -7.23585e-27)
(0.0242551 -0.081697 -1.8008e-26)
(0.0277273 -0.101317 -2.18324e-26)
(0.0199264 -0.10838 -5.53351e-27)
(0.0107098 -0.114087 -4.77833e-27)
(0.00481051 -0.116914 -2.40755e-28)
(-0.00478009 -0.117091 -2.27286e-28)
(-0.0103153 -0.114375 -4.77459e-27)
(-0.0197328 -0.108323 -5.53867e-27)
(-0.027724 -0.10132 -2.1794e-26)
(-0.0242245 -0.0817018 -1.79871e-26)
(0.0203542 -0.144662 0)
(0.0157172 -0.203378 0)
(0.0257374 -0.214708 0)
(0.0158582 -0.221792 0)
(0.0129464 -0.226611 0)
(-0.00219374 -0.227531 0)
(-0.00531667 -0.225806 0)
(-0.019915 -0.219576 0)
(-0.0109633 -0.206272 0)
(-0.0180589 -0.144539 0)
(0.0167989 -0.164127 0)
(0.00244738 -0.19755 0)
(0.0158391 -0.208829 0)
(0.00320708 -0.214303 0)
(0.00495498 -0.2151 0)
(-0.00593659 -0.215405 0)
(-0.00313181 -0.213685 0)
(-0.0150167 -0.209522 0)
(-0.00150663 -0.200136 0)
(-0.0160581 -0.167526 0)
(0.0148811 -0.171599 0)
(-0.00415003 -0.202944 0)
(0.0113984 -0.208379 0)
(0.000722503 -0.209387 0)
(0.00467458 -0.209832 0)
(-0.00145384 -0.21038 0)
(0.00189889 -0.21093 0)
(-0.00981989 -0.209719 0)
(0.0047518 -0.204247 0)
(-0.0142519 -0.173056 0)
(0.0187353 -0.195025 0)
(-0.00730156 -0.203985 0)
(0.00966824 -0.210444 0)
(-0.000231333 -0.207615 0)
(0.000808937 -0.207089 0)
(-0.000823838 -0.207015 0)
(0.000548239 -0.205724 0)
(-0.00902934 -0.211173 0)
(0.00738915 -0.204935 0)
(-0.0186095 -0.195835 0)
(0.0371532 -0.216333 0)
(0.0106644 -0.203667 0)
(0.0159372 -0.201765 0)
(0.0124386 -0.19534 0)
(0.00204852 -0.192352 0)
(-0.00222448 -0.192607 0)
(-0.0120093 -0.196516 0)
(-0.0158323 -0.202251 0)
(-0.0105315 -0.203905 0)
(-0.037303 -0.217092 0)
(0.00483866 -0.0130726 0)
(0.00901781 -0.0116209 0)
(0.0155044 -0.00377889 0)
(0.0129043 0.00889287 0)
(0.00656454 0.00743627 0)
(0.00343919 -0.0012441 0)
(0.0043866 -0.00337722 0)
(0.00533249 -0.00297796 0)
(0.00538088 -0.00277854 0)
(0.00482984 -0.00114787 0)
(0.00884702 -0.00412911 0)
(0.00362002 -0.0107027 0)
(0.00503776 -0.00366017 0)
(0.00982292 0.00825486 0)
(0.0127367 0.00979065 0)
(0.014235 0.00655802 0)
(0.0123256 -0.000283945 0)
(0.00995218 0.000633085 0)
(0.00409921 0.00540105 0)
(-0.00482874 0.0118656 0)
(0.0170903 0.00836643 0)
(0.0145325 -0.00381581 0)
(0.0125943 -0.0120867 0)
(0.0130876 -0.00712405 0)
(0.0147258 0.00020245 0)
(0.0146004 0.000740976 0)
(0.0124526 0.00448836 0)
(0.00590111 0.0122134 0)
(-0.00271669 0.0263186 0)
(-0.0157399 0.0433856 0)
(0.0104488 0.00623034 0)
(0.0116191 -0.0031381 0)
(0.0101119 -0.00357647 0)
(0.00804564 0.00295182 0)
(0.00620788 0.00613223 0)
(0.00340889 0.00925483 0)
(0.000407122 0.0177043 0)
(-0.00432324 0.0294769 0)
(-0.0105291 0.0473849 0)
(-0.0129848 0.057684 0)
(0.00651022 0.00126885 0)
(0.00526801 -0.00291734 0)
(0.00393107 -0.00284524 0)
(0.00316392 0.00346054 0)
(0.00247026 0.00990986 0)
(-0.00100091 0.0139339 0)
(-0.00398114 0.0228424 0)
(-0.0086768 0.037336 0)
(-0.00896033 0.0490315 0)
(-0.00920176 0.0572963 0)
(0.00350886 0.00246419 0)
(0.00314575 0.000449095 0)
(0.00246785 0.000601358 0)
(0.00134998 0.00417375 0)
(0.000500681 0.013454 0)
(-0.00309842 0.0203815 0)
(-0.00615583 0.0311534 0)
(-0.00835878 0.0387891 0)
(-0.00629541 0.0456777 0)
(-0.00206892 0.0507657 0)
(-0.0012997 -8.90919e-05 0)
(-0.000681541 -0.00106434 0)
(-0.000598649 0.00146093 0)
(-0.00308085 0.00844936 0)
(-0.00573546 0.0201033 0)
(-0.0094592 0.0281121 0)
(-0.0108741 0.033549 0)
(-0.00995155 0.0374219 0)
(-0.00779425 0.0392336 0)
(-0.00106835 0.0396202 0)
(-0.00586946 -0.001977 0)
(-0.00429519 -0.00113394 0)
(-0.00433341 0.0048526 0)
(-0.00724051 0.0153431 0)
(-0.0130499 0.0265956 0)
(-0.016369 0.0319878 0)
(-0.0167534 0.0344901 0)
(-0.0134427 0.0334683 0)
(-0.00740032 0.0277599 0)
(-0.00205378 0.0187997 0)
(-0.00863833 -0.00646969 0)
(-0.00735687 -0.00452474 0)
(-0.00777098 0.00691416 0)
(-0.0152808 0.0277467 0)
(-0.0230102 0.0370382 0)
(-0.0264581 0.0357587 0)
(-0.0229368 0.0239137 0)
(-0.0178872 0.0192849 0)
(-0.0166289 0.0185789 0)
(-0.0156764 0.0126382 0)
(-0.0110315 -0.00699836 0)
(-0.0162439 -0.00314652 0)
(-0.0178638 0.0207455 0)
(-0.0232101 0.0479079 0)
(-0.0303511 0.0487132 0)
(-0.031839 0.0254742 0)
(-0.0284067 0.017402 0)
(-0.0264948 0.0202955 0)
(-0.024565 0.0198272 0)
(-0.0156482 0.0030362 0)
(-0.00858064 0.011098 0)
(-0.0210824 0.00829007 0)
(-0.0252376 0.0242417 0)
(-0.0233 0.0535009 0)
(-0.0230881 0.0575338 0)
(-0.0272166 0.0291399 0)
(-0.0290979 0.0156839 0)
(-0.0299629 0.0134069 0)
(-0.0238535 -0.00144977 0)
(-0.0137237 -0.0259979 0)
(0.016135 0.0400553 0)
(-0.00130752 0.0343201 0)
(-0.0175832 0.0284372 0)
(-0.0215282 0.0477578 0)
(-0.0201086 0.0545496 0)
(-0.0199297 0.0388135 0)
(-0.0208122 0.0213511 0)
(-0.0214411 0.0105628 0)
(-0.0174908 -0.0118972 0)
(-0.0139285 -0.0329344 0)
(0.0253604 0.0548625 0)
(0.0210079 0.0665945 0)
(0.00756261 0.0645716 0)
(-0.0091955 0.0526878 0)
(-0.0123781 0.050654 0)
(-0.0157605 0.0385612 0)
(-0.0187176 0.0202666 0)
(-0.0205301 0.00566316 0)
(-0.0199306 -0.0159772 0)
(-0.0221239 -0.0376555 0)
(0.0212336 0.053574 0)
(0.0216378 0.0734709 0)
(0.0155547 0.0862851 0)
(0.00814118 0.0817075 0)
(0.000853722 0.0676702 0)
(-0.00460728 0.0523509 0)
(-0.0128635 0.0303683 0)
(-0.0198458 0.00970308 0)
(-0.0218603 -0.00549717 0)
(-0.0331901 -0.0181902 0)
(0.0189017 0.058578 0)
(0.0128244 0.0829341 0)
(0.00893144 0.0951562 0)
(0.00664669 0.0890893 0)
(0.00520969 0.0777933 0)
(-5.63665e-07 0.070074 0)
(-0.00732565 0.0535753 0)
(-0.0176558 0.0245603 0)
(-0.0303521 0.0157654 0)
(-0.0472695 0.010976 0)
(0.00579795 0.0635584 0)
(-0.00287511 0.094475 0)
(-0.00445557 0.0949822 0)
(3.9546e-05 0.0861396 0)
(-0.00123956 0.0827716 0)
(-0.0073067 0.0766495 0)
(-0.0114725 0.0643643 0)
(-0.0248064 0.0529544 0)
(-0.0431469 0.0429386 0)
(-0.049193 0.0330253 0)
(-0.0205153 0.0807118 0)
(-0.0186051 0.0944792 0)
(-0.012752 0.0856488 0)
(-0.0111185 0.0820808 0)
(-0.0114194 0.0876139 0)
(-0.0134609 0.084887 0)
(-0.0164697 0.0848298 0)
(-0.0262395 0.0845029 0)
(-0.0380695 0.0639908 0)
(-0.0429798 0.0499043 0)
(-0.0463218 0.0676152 0)
(-0.0375174 0.0788238 0)
(-0.0324759 0.0816641 0)
(-0.030027 0.0883501 0)
(-0.0293896 0.0930487 0)
(-0.0301042 0.0922293 0)
(-0.0319589 0.0933616 0)
(-0.0326032 0.0942361 0)
(-0.035477 0.0756296 0)
(-0.0376849 0.0657564 0)
(-0.0668337 0.0470839 0)
(-0.0590395 0.0648779 0)
(-0.0564638 0.0756547 0)
(-0.051087 0.0812064 0)
(-0.0450883 0.0868718 0)
(-0.0365203 0.0882305 0)
(-0.0315671 0.092121 0)
(-0.0302619 0.0933496 0)
(-0.0265571 0.0791347 0)
(-0.0250938 0.0696927 0)
(-0.0682247 0.0393151 0)
(-0.0613994 0.0561508 0)
(-0.0582446 0.0637115 0)
(-0.0525137 0.0652961 0)
(-0.0474345 0.0650406 0)
(-0.0396698 0.0670513 0)
(-0.0302475 0.0811802 0)
(-0.0239503 0.0843935 0)
(-0.014196 0.0717402 0)
(-0.007927 0.0585616 0)
(-0.0593619 0.0294329 0)
(-0.053931 0.0409014 0)
(-0.0495699 0.0515632 0)
(-0.0430083 0.0589337 0)
(-0.0355932 0.0570589 0)
(-0.0302055 0.0545994 0)
(-0.0218949 0.0569002 0)
(-0.012995 0.0570689 0)
(-0.000611428 0.0478107 0)
(0.00724237 0.0363332 0)
(-0.0135615 0.0344533 0)
(-0.0205936 0.0407215 0)
(-0.0239757 0.0371497 0)
(-0.022186 0.0365869 0)
(-0.0198627 0.0366591 0)
(-0.0167476 0.0355183 0)
(-0.013061 0.0408317 0)
(-0.00328244 0.0360205 0)
(0.00904817 0.0289074 0)
(0.0208831 0.0140434 0)
(0.015419 0.0521122 0)
(0.0156376 0.0529833 0)
(0.021686 0.0537072 0)
(0.0261236 0.0502894 0)
(0.0274059 0.0513824 0)
(0.0250115 0.046209 0)
(0.0207824 0.0341616 0)
(0.0193846 0.0145455 0)
(0.0164287 -0.00369625 0)
(0.0217999 -0.0143794 0)
(0.0411466 0.0489063 0)
(0.0306412 0.0311912 0)
(0.0311302 0.0263582 0)
(0.0362896 0.0254773 0)
(0.0479674 0.0316743 0)
(0.0595506 0.0426525 0)
(0.0663599 0.0527344 0)
(0.0637496 0.0482737 0)
(0.0533761 0.0300095 0)
(0.0386599 -0.00825874 0)
(0.093956 0.113152 0)
(0.0698843 0.0686354 0)
(0.0584028 0.0316012 0)
(0.0548883 0.0117487 0)
(0.0591891 0.00738343 0)
(0.0642558 0.0117101 0)
(0.0718073 0.0339829 0)
(0.0723379 0.0479835 0)
(0.0701393 0.0473996 0)
(0.0605605 0.0364548 0)
(0.104929 0.128401 0)
(0.10428 0.107631 0)
(0.0962725 0.0696949 0)
(0.0863184 0.0231669 0)
(0.0787423 0.0103826 0)
(0.0755791 0.0137015 0)
(0.0721079 0.0331024 0)
(0.0701785 0.051233 0)
(0.0674048 0.0549592 0)
(0.0657789 0.0508674 0)
(0.0925026 0.109669 0)
(0.0946881 0.10042 0)
(0.0937015 0.0714429 0)
(0.0903775 0.0377171 0)
(0.0850436 0.029624 0)
(0.0762233 0.0305939 0)
(0.0698628 0.042323 0)
(0.0645001 0.0579663 0)
(0.0614502 0.0582932 0)
(0.0582948 0.0584807 0)
(0.0438526 0.108377 0)
(0.0483665 0.0994545 0)
(0.0587441 0.0650797 0)
(0.059564 0.0435183 0)
(0.0560543 0.0433068 0)
(0.0492705 0.0493065 0)
(0.0486091 0.0541768 0)
(0.0524126 0.0672894 0)
(0.0533567 0.0692174 0)
(0.0493558 0.0687003 0)
(-0.0146199 0.0889687 0)
(0.00264076 0.0519135 0)
(0.0209535 0.0433793 0)
(0.0276843 0.0513102 0)
(0.0258726 0.0573377 0)
(0.029193 0.0366915 0)
(0.0417697 0.0354613 0)
(0.0443149 0.0498675 0)
(0.0470326 0.0652133 0)
(0.0446029 0.0725367 0)
(-0.0119856 0.0508358 0)
(-0.00329811 0.0276736 0)
(-0.00731761 0.0219854 0)
(0.00218146 0.0348275 0)
(0.0143392 0.0308246 0)
(0.0315242 0.0168848 0)
(0.0261985 0.0242937 0)
(0.0336428 0.055387 0)
(0.0327583 0.0733291 0)
(0.0289676 0.0765383 0)
(0.0102843 0.0418958 0)
(0.0171528 0.041382 0)
(0.0176445 0.0225315 0)
(0.0214609 0.0114144 0)
(0.0225632 -0.000311916 0)
(0.0227571 0.0176683 0)
(0.0179362 0.026048 0)
(0.0266399 0.0395118 0)
(0.0338176 0.0740583 0)
(0.0332477 0.0829931 0)
(0.0659201 0.016563 0)
(0.0773887 0.0229718 0)
(0.0818595 0.023719 0)
(0.0788609 0.0263012 0)
(0.0655694 0.0288284 0)
(0.0521501 0.0279416 0)
(0.0451006 0.0277527 0)
(0.0476952 0.0292225 0)
(0.0447779 0.0557903 0)
(0.0562131 0.0821017 0)
(0.119159 -0.000163429 0)
(0.134086 0.0056997 0)
(0.145813 0.0194766 0)
(0.146048 0.0459184 0)
(0.13825 0.0558276 0)
(0.1326 0.0479608 0)
(0.125875 0.0359749 0)
(0.124647 0.033485 0)
(0.122699 0.0399396 0)
(0.128591 0.0464094 0)
(0.131859 -0.041984 0)
(0.148324 -0.0222171 0)
(0.158234 0.0016369 0)
(0.16574 0.0376089 0)
(0.174419 0.0565938 0)
(0.181768 0.0558488 0)
(0.183643 0.0496053 0)
(0.178506 0.0388463 0)
(0.173158 0.0360056 0)
(0.165102 0.0426982 0)
(0.126032 -0.0650928 0)
(0.136017 -0.0433035 0)
(0.146828 -0.0219272 0)
(0.1604 0.0136402 0)
(0.169117 0.0337584 0)
(0.180712 0.0336428 0)
(0.199484 0.0386172 0)
(0.208348 0.0621786 0)
(0.195212 0.0750649 0)
(0.169089 0.0676452 0)
(0.109977 -0.0853141 0)
(0.116869 -0.0687776 0)
(0.121557 -0.0503303 0)
(0.13057 -0.00212287 0)
(0.132838 0.00650364 0)
(0.143411 -0.0119236 0)
(0.166713 -0.00861157 0)
(0.177148 0.0396157 0)
(0.151183 0.113399 0)
(0.135327 0.108314 0)
(0.0363652 -0.0899109 0)
(0.0336253 -0.0723576 0)
(0.0310745 -0.0537209 0)
(0.0409121 0.00565978 0)
(0.0475646 -0.00571526 0)
(0.0409425 -0.0522286 0)
(0.0343891 0.00158806 0)
(0.0471922 0.105935 0)
(0.0520421 0.123941 0)
(0.0720545 0.0869927 0)
(-0.100436 -0.0443679 0)
(-0.104612 -0.0429829 0)
(-0.10923 -0.0361394 0)
(-0.100651 -0.0225793 0)
(-0.0974249 -0.0179657 0)
(-0.108225 0.000776286 0)
(-0.113002 0.0289234 0)
(-0.114156 0.0459404 0)
(-0.109679 0.0555988 0)
(-0.108024 0.0735256 0)
(-0.188137 -0.0571072 0)
(-0.187402 -0.0580374 0)
(-0.187484 -0.0531553 0)
(-0.194356 -0.0390933 0)
(-0.204289 -0.0194542 0)
(-0.205505 0.00744959 0)
(-0.205776 0.0441978 0)
(-0.214638 0.0755504 0)
(-0.221517 0.0868173 0)
(-0.218989 0.092322 0)
(-0.244314 -0.0519824 0)
(-0.251825 -0.0431024 0)
(-0.260075 -0.0283242 0)
(-0.268793 -0.0113082 0)
(-0.2746 0.0063884 0)
(-0.27769 0.0235736 0)
(-0.270066 0.0418759 0)
(-0.254884 0.0606469 0)
(-0.234044 0.068108 0)
(-0.20715 0.0660532 0)
(-0.30978 -0.0383734 0)
(-0.305053 -0.0331257 0)
(-0.300908 -0.0240151 0)
(-0.295161 -0.0128411 0)
(-0.284816 0.0032377 0)
(-0.275965 0.0107049 0)
(-0.26279 0.0122427 0)
(-0.240394 0.00253047 0)
(-0.207437 -0.0193413 0)
(-0.170396 -0.0388322 0)
(-0.336395 -0.0483108 0)
(-0.320559 -0.0539386 0)
(-0.300113 -0.051148 0)
(-0.273751 -0.0468917 0)
(-0.24251 -0.0411419 0)
(-0.212894 -0.0368815 0)
(-0.184533 -0.038673 0)
(-0.158329 -0.0494796 0)
(-0.138188 -0.067661 0)
(-0.131426 -0.0710226 0)
(-0.382164 -0.0856247 0)
(-0.3586 -0.101582 0)
(-0.336745 -0.0993583 0)
(-0.304313 -0.111575 0)
(-0.257216 -0.10587 0)
(-0.216201 -0.0917933 0)
(-0.182677 -0.0817057 0)
(-0.164718 -0.0814226 0)
(-0.156978 -0.0680175 0)
(-0.159019 -0.0546106 0)
(-0.388036 -0.14093 0)
(-0.367681 -0.172222 0)
(-0.337682 -0.177687 0)
(-0.304256 -0.202647 0)
(-0.264868 -0.218191 0)
(-0.226033 -0.197531 0)
(-0.176293 -0.155015 0)
(-0.130634 -0.104184 0)
(-0.118451 -0.0547358 0)
(-0.112142 -0.0481406 0)
(-0.36981 -0.16718 0)
(-0.358438 -0.211033 0)
(-0.336248 -0.237831 0)
(-0.318474 -0.276348 0)
(-0.287415 -0.297292 0)
(-0.263196 -0.298166 0)
(-0.228379 -0.281388 0)
(-0.182697 -0.227524 0)
(-0.125111 -0.126841 0)
(-0.0851174 -0.0729272 0)
(-0.225312 -0.065759 0)
(-0.272876 -0.175158 0)
(-0.313978 -0.249783 0)
(-0.308523 -0.294667 0)
(-0.293284 -0.317512 0)
(-0.28263 -0.329777 0)
(-0.26483 -0.335811 0)
(-0.235288 -0.324376 0)
(-0.192733 -0.273527 0)
(-0.134333 -0.151915 0)
(-0.173653 -0.026603 0)
(-0.193888 -0.0600681 0)
(-0.229101 -0.157266 0)
(-0.259865 -0.27316 0)
(-0.278792 -0.318654 0)
(-0.28741 -0.335675 0)
(-0.28647 -0.347155 0)
(-0.286925 -0.352111 0)
(-0.271242 -0.336113 0)
(-0.223958 -0.256665 0)
(-0.167933 -0.041136 0)
(-0.168538 -0.0493696 0)
(-0.184782 -0.0947638 0)
(-0.218676 -0.186715 0)
(-0.247001 -0.276013 0)
(-0.270534 -0.315482 0)
(-0.2975 -0.338348 0)
(-0.302507 -0.363996 0)
(-0.301823 -0.375315 0)
(-0.271345 -0.364381 0)
(-0.138103 -0.0276063 0)
(-0.143083 -0.0466416 0)
(-0.145404 -0.08034 0)
(-0.161242 -0.142108 0)
(-0.192927 -0.196157 0)
(-0.234748 -0.242899 0)
(-0.276721 -0.293309 0)
(-0.308489 -0.348267 0)
(-0.305533 -0.393728 0)
(-0.293383 -0.412977 0)
(-0.110032 -0.0236541 0)
(-0.0912389 -0.0494559 0)
(-0.0785563 -0.0629809 0)
(-0.0814854 -0.0873038 0)
(-0.105658 -0.117363 0)
(-0.134365 -0.156912 0)
(-0.181415 -0.202329 0)
(-0.257988 -0.290431 0)
(-0.289744 -0.396188 0)
(-0.275331 -0.447778 0)
(-0.0989898 -0.0623463 0)
(-0.0783624 -0.0993173 0)
(-0.0555043 -0.0936523 0)
(-0.0407313 -0.0793278 0)
(-0.0361378 -0.0792942 0)
(-0.0414847 -0.0969097 0)
(-0.052133 -0.111604 0)
(-0.0877052 -0.115849 0)
(-0.226789 -0.331017 0)
(-0.238671 -0.471353 0)
(-0.0914367 -0.102526 0)
(-0.0734482 -0.133765 0)
(-0.0611812 -0.147043 0)
(-0.0334191 -0.130742 0)
(-0.0169435 -0.0976369 0)
(-0.0016658 -0.109004 0)
(0.00389909 -0.111766 0)
(0.02764 -0.0582368 0)
(-0.0148858 -0.00128071 0)
(-0.155505 -0.402266 0)
(-0.0518113 -0.138975 0)
(-0.051203 -0.175651 0)
(-0.0488722 -0.190994 0)
(-0.0438178 -0.181479 0)
(-0.032628 -0.127995 0)
(-0.0212102 -0.130703 0)
(-0.025958 -0.119419 0)
(-0.029528 -0.0525063 0)
(-0.0346752 0.121239 0)
(-0.0878192 -0.174501 0)
(0.0837242 -0.0819349 0)
(0.0580041 -0.142514 0)
(0.0259637 -0.175877 0)
(0.0083658 -0.197037 0)
(0.00162685 -0.146059 0)
(0.00621523 -0.131344 0)
(-0.0176875 -0.103064 0)
(-0.0190668 -0.0703192 0)
(0.00706072 0.0683312 0)
(0.0423524 -0.0280376 0)
(0.197165 -0.0300551 0)
(0.195992 -0.0336681 0)
(0.177574 -0.0415535 0)
(0.161603 -0.0993042 0)
(0.102131 -0.115785 0)
(0.0826803 -0.106619 0)
(0.0612946 -0.0660558 0)
(0.0451384 -0.0694889 0)
(0.0351022 -0.0508583 0)
(0.0701711 -0.0780219 0)
(0.192853 -0.104462 0)
(0.192802 -0.102274 0)
(0.196079 -0.0964006 0)
(0.202659 -0.0782733 0)
(0.180211 -0.0280659 0)
(0.124726 -0.0300569 0)
(0.0969417 -0.0293993 0)
(0.0996014 -0.00704218 0)
(0.0916388 -0.0149427 0)
(0.0914674 -0.0486214 0)
(0.237732 -0.0829184 0)
(0.209269 -0.0211328 0)
(0.168963 -0.043016 0)
(0.149427 -0.0502179 0)
(0.126578 0.0265391 0)
(0.0559858 0.0347942 0)
(0.0177967 -0.035851 0)
(0.0297691 -0.0392678 0)
(0.0550894 -0.039896 0)
(0.0801684 -0.0827603 0)
(0.231404 -0.113025 0)
(0.248932 0.0391551 0)
(0.239346 0.0209459 0)
(0.190757 -0.011986 0)
(0.143885 0.105815 0)
(0.105269 0.16483 0)
(0.094038 0.0512643 0)
(0.0870001 -0.0707028 0)
(0.10107 -0.114573 0)
(0.11905 -0.159194 0)
(0.146216 -0.101918 0)
(0.154146 0.00720461 0)
(0.153824 0.0564079 0)
(0.130057 0.108314 0)
(0.118313 0.173472 0)
(0.126814 0.168553 0)
(0.15485 0.0341807 0)
(0.141798 -0.0703239 0)
(0.129578 -0.157754 0)
(0.143057 -0.213319 0)
(0.0742293 -0.0807524 0)
(0.0752971 0.00327177 0)
(0.0624742 0.0860469 0)
(0.0722396 0.127877 0)
(0.0897173 0.13925 0)
(0.135019 0.103734 0)
(0.184396 0.0247485 0)
(0.196367 -0.0212334 0)
(0.201688 -0.125002 0)
(0.192027 -0.2009 0)
(-0.00314424 0.00310218 0)
(-0.0219828 0.00869514 0)
(-0.00213149 0.0381116 0)
(0.025223 0.0410297 0)
(0.0708799 -0.00419371 0)
(0.112365 -0.0427635 0)
(0.163722 -0.0451735 0)
(0.167464 -0.0746438 0)
(0.185885 -0.110738 0)
(0.190251 -0.200018 0)
(0.0118245 0.039579 0)
(0.000728879 0.0189551 0)
(-0.0111082 0.00132352 0)
(0.0129976 -0.0313183 0)
(0.0456476 -0.0532633 0)
(0.0681882 -0.0914801 0)
(0.0927997 -0.0899466 0)
(0.106706 -0.129578 0)
(0.121473 -0.190397 0)
(0.149764 -0.258111 0)
(0.000588032 0.048231 0)
(-0.00553253 0.0625344 0)
(0.0337219 0.000668608 0)
(0.0733052 -0.043067 0)
(0.101145 -0.123386 0)
(0.11998 -0.124407 0)
(0.121987 -0.113138 0)
(0.121917 -0.126398 0)
(0.10476 -0.195408 0)
(0.104259 -0.247921 0)
(-0.0392248 0.0850231 0)
(0.00268027 -0.0515988 0)
(0.0627896 -0.153499 0)
(0.11949 -0.164471 0)
(0.150484 -0.157111 0)
(0.15259 -0.129056 0)
(0.128326 -0.0783044 0)
(0.0742906 -0.0767097 0)
(0.0647194 -0.189623 0)
(0.0635783 -0.269205 0)
(-0.0363584 -0.0653765 0)
(0.0321437 -0.208137 0)
(0.0655817 -0.250734 0)
(0.0981882 -0.240488 0)
(0.121737 -0.189303 0)
(0.125432 -0.0801274 0)
(0.0845748 0.00104894 0)
(0.0729056 -0.0196249 0)
(0.0841994 -0.180583 0)
(0.0548402 -0.259947 0)
(-0.00851688 -0.131183 0)
(0.019658 -0.246661 0)
(0.0248936 -0.288947 0)
(0.0301986 -0.262262 0)
(0.0438052 -0.173007 0)
(0.0630849 -0.0412571 0)
(0.0937669 0.0083667 0)
(0.124439 -0.0108773 0)
(0.155444 -0.124816 0)
(0.123243 -0.163027 0)
(0.0488639 -0.108544 0)
(0.0261285 -0.233959 0)
(0.00491384 -0.286996 0)
(0.00366909 -0.273737 0)
(0.00655321 -0.193838 0)
(0.0341042 -0.161463 0)
(0.0778893 -0.144912 0)
(0.131756 -0.15086 0)
(0.162068 -0.158136 0)
(0.16345 -0.155153 0)
(0.0710892 -0.0829462 0)
(0.0685818 -0.174438 0)
(0.0370322 -0.235105 0)
(0.0229585 -0.268921 0)
(0.0169904 -0.235818 0)
(0.0410117 -0.202017 0)
(0.0688306 -0.219819 0)
(0.110675 -0.209295 0)
(0.145452 -0.192075 0)
(0.19335 -0.184221 0)
(0.0828797 -0.0880417 0)
(0.0820034 -0.162591 0)
(0.0671351 -0.210494 0)
(0.0646721 -0.252175 0)
(0.0620479 -0.248902 0)
(0.0723394 -0.238056 0)
(0.109529 -0.268994 0)
(0.160388 -0.288712 0)
(0.199058 -0.311094 0)
(0.279734 -0.29945 0)
(0.102588 -0.0837155 0)
(0.0864536 -0.135348 0)
(0.0855086 -0.20693 0)
(0.0790701 -0.255187 0)
(0.0908331 -0.270816 0)
(0.120799 -0.302663 0)
(0.190908 -0.381313 0)
(0.272263 -0.436428 0)
(0.295063 -0.441841 0)
(0.32726 -0.409938 0)
(0.0914617 -0.0888273 0)
(0.0836249 -0.125695 0)
(0.0908698 -0.20269 0)
(0.0803626 -0.252158 0)
(0.114761 -0.317623 0)
(0.167409 -0.465945 0)
(0.243982 -0.551318 0)
(0.296459 -0.538547 0)
(0.302855 -0.49966 0)
(0.325375 -0.440965 0)
(0.0502662 -0.097446 0)
(0.0591819 -0.128996 0)
(0.0670345 -0.199779 0)
(0.0646509 -0.236187 0)
(0.104377 -0.457488 0)
(0.159357 -0.636585 0)
(0.213273 -0.621223 0)
(0.223104 -0.586739 0)
(0.188942 -0.514192 0)
(0.105846 -0.37711 0)
(-0.00862808 -0.0997102 0)
(0.0148708 -0.156894 0)
(-0.00715141 -0.196388 0)
(0.00359375 -0.258866 0)
(0.0626773 -0.616911 0)
(0.0530363 -0.674021 0)
(0.0618689 -0.58107 0)
(-0.0070727 -0.433154 0)
(-0.0867568 -0.253574 0)
(-0.147034 -0.079713 0)
(-0.0220901 -0.145126 0)
(-0.0218342 -0.154347 0)
(-0.0492844 -0.175412 0)
(-0.0237476 -0.396176 0)
(0.025365 -0.645518 0)
(0.00299024 -0.644543 0)
(0.0148449 -0.462194 0)
(-0.0755054 -0.253735 0)
(-0.109313 -0.175041 0)
(-0.13439 -0.0968903 0)
(-0.0161646 -0.12446 0)
(-0.0356703 -0.121243 0)
(-0.0476015 -0.153172 0)
(-0.0147871 -0.477059 0)
(0.00139209 -0.646665 0)
(-0.000314213 -0.644397 0)
(0.0230894 -0.438995 0)
(-0.0236403 -0.172987 0)
(-0.0787159 -0.164169 0)
(-0.0856673 -0.0731099 0)
(-0.0519416 -0.116607 0)
(-0.0328718 -0.115869 0)
(-0.0408662 -0.150076 0)
(-0.0200527 -0.51146 0)
(-0.00587599 -0.685724 0)
(0.000949874 -0.669808 0)
(0.0130127 -0.426874 0)
(-0.0202454 -0.0858635 0)
(-0.0627483 -0.069019 0)
(-0.0751693 -0.0711918 0)
(-0.0756415 -0.164366 0)
(-0.0481756 -0.177794 0)
(-0.0253034 -0.166506 0)
(0.000230442 -0.543169 0)
(0.00849491 -0.70679 0)
(0.0130975 -0.681128 0)
(0.006609 -0.418084 0)
(-0.0141563 -0.0317383 0)
(-0.046203 -0.0262001 0)
(-0.0599699 -0.0230825 0)
(-0.0671271 -0.190568 0)
(-0.0635508 -0.213463 0)
(-0.0366345 -0.257794 0)
(-0.00250867 -0.577614 0)
(0.0107019 -0.710949 0)
(0.0116187 -0.68768 0)
(0.00730968 -0.372201 0)
(-0.018046 0.00764937 0)
(-0.0487042 0.025307 0)
(-0.060846 0.015961 0)
(0.0223701 -0.154036 0)
(-0.00496936 -0.209027 0)
(0.00210164 -0.281356 0)
(-0.00224993 -0.582514 0)
(0.00311371 -0.713673 0)
(-0.01643 -0.694207 0)
(-0.00618984 -0.269315 0)
(-0.0525328 0.0591563 0)
(-0.077881 0.0663183 0)
(-0.0888587 0.0567086 0)
(0.056775 -0.120848 0)
(0.0283933 -0.171162 0)
(0.0157591 -0.279121 0)
(-0.00362463 -0.576659 0)
(-0.00664105 -0.700669 0)
(-0.0365575 -0.677333 0)
(-0.00643265 -0.250289 0)
(-0.0557764 0.105203 0)
(-0.0854467 0.103919 0)
(-0.0990908 0.0938137 0)
(0.0580803 -0.0754114 0)
(0.0581997 -0.145033 0)
(0.0429741 -0.234718 0)
(0.0167776 -0.515017 0)
(0.00783915 -0.6653 0)
(-0.027762 -0.652123 0)
(0.0256206 -0.309265 0)
(-0.00752858 0.194643 0)
(-0.0445501 0.174878 0)
(-0.0728923 0.15983 0)
(0.0389995 -0.0584349 0)
(0.0534981 -0.132812 0)
(0.0338282 -0.204758 0)
(0.0254966 -0.491394 0)
(0.0276191 -0.649616 0)
(0.0233462 -0.636633 0)
(0.0290304 -0.431898 0)
(0.0622465 0.304419 0)
(-0.0320685 0.248007 0)
(-0.0498251 0.258192 0)
(0.00119796 -0.0953557 0)
(0.0420214 -0.159499 0)
(0.0340033 -0.188583 0)
(0.0278071 -0.48858 0)
(0.0463446 -0.652635 0)
(0.050189 -0.636181 0)
(0.0371441 -0.463519 0)
(0.0902471 0.366058 0)
(-0.00636179 0.354436 0)
(-0.0645196 0.339695 0)
(0.00908085 -0.130767 0)
(0.0393357 -0.18477 0)
(0.0292007 -0.18691 0)
(0.0395195 -0.532298 0)
(0.0632827 -0.663529 0)
(0.0627491 -0.644082 0)
(0.0449775 -0.475428 0)
(0.0695019 0.423001 0)
(0.0199289 0.536814 0)
(-0.0379887 0.427361 0)
(0.0333806 -0.150922 0)
(0.0480482 -0.19591 0)
(0.0331008 -0.18087 0)
(0.0447091 -0.568939 0)
(0.0668656 -0.675412 0)
(0.0643612 -0.649794 0)
(0.0490719 -0.46243 0)
(0.0495905 0.415071 0)
(0.0342804 0.604711 0)
(0.00127151 0.536133 0)
(0.0522728 -0.171176 0)
(0.0553939 -0.202122 0)
(0.0482875 -0.142548 0)
(0.047203 -0.603145 0)
(0.0672181 -0.678326 0)
(0.053623 -0.644143 0)
(0.0363636 -0.39047 0)
(0.000727834 0.419599 0)
(0.0223922 0.619933 0)
(-0.0224527 0.580016 0)
(0.04446 -0.184954 0)
(0.0165925 -0.194757 0)
(0.0301393 -0.110723 0)
(0.0234786 -0.651702 0)
(0.0250397 -0.674792 0)
(0.00749297 -0.624593 0)
(0.0037892 -0.309289 0)
(-0.0414757 0.460368 0)
(-0.000901795 0.604304 0)
(-0.0182367 0.588165 0)
(0.0214998 -0.114781 0)
(-0.0828003 -0.102827 0)
(-0.0571212 -0.249195 0)
(-0.0337662 -0.654562 0)
(-0.0368347 -0.662522 0)
(-0.0418443 -0.609121 0)
(-0.0328552 -0.277052 0)
(-0.0239415 0.382478 0)
(0.0107696 0.570735 0)
(-0.00512425 0.580593 0)
(0.00783867 -0.00401436 0)
(-0.0583369 0.0349281 0)
(-0.064465 -0.299685 0)
(-0.059627 -0.635423 0)
(-0.0818731 -0.648452 0)
(-0.0864533 -0.593979 0)
(-0.0736154 -0.261837 0)
(-0.0208028 0.331047 0)
(0.00373755 0.542565 0)
(0.0182712 0.545003 0)
(-0.00387994 0.050496 0)
(-0.0264623 0.0734203 0)
(-0.0850168 -0.330204 0)
(-0.067768 -0.635585 0)
(-0.0972731 -0.641868 0)
(-0.100649 -0.590725 0)
(-0.095912 -0.32779 0)
(-0.0431249 0.291444 0)
(0.0261649 0.502968 0)
(0.0838204 0.489853 0)
(-0.035445 0.106483 0)
(-0.0290344 0.15794 0)
(-0.0798624 -0.19983 0)
(-0.026377 -0.607681 0)
(-0.0800346 -0.594784 0)
(-0.0931131 -0.567258 0)
(-0.087423 -0.403996 0)
(-0.0533585 0.129728 0)
(0.0303773 0.294761 0)
(0.149869 0.336497 0)
(0.0315768 0.200721 0)
(0.0137763 0.238476 0)
(-0.0818761 -0.241809 0)
(-0.0114006 -0.589905 0)
(-0.0470884 -0.572958 0)
(-0.0535666 -0.554146 0)
(-0.064446 -0.485878 0)
(-0.0130713 0.0453814 0)
(0.063949 0.0796583 0)
(0.0957342 0.13322 0)
(0.0937997 0.26756 0)
(-0.0230666 0.346503 0)
(0.0209796 -0.362561 0)
(0.0141862 -0.537892 0)
(-0.00998546 -0.53711 0)
(-0.0184356 -0.526191 0)
(-0.0347833 -0.524329 0)
(0.0396667 -0.212847 0)
(0.0562084 0.124759 0)
(0.0251893 0.0337876 0)
(0.0192913 0.318961 0)
(-0.0314866 0.504138 0)
(0.0388727 -0.422081 0)
(0.0339034 -0.510657 0)
(0.0122135 -0.512026 0)
(-0.0128748 -0.500582 0)
(-0.0191541 -0.502474 0)
(-0.0206144 -0.365513 0)
(0.102127 0.236116 0)
(0.00605623 0.0307458 0)
(-0.00717488 0.319611 0)
(0.00697237 0.487648 0)
(0.0647392 -0.40732 0)
(0.0297122 -0.461892 0)
(0.00846746 -0.47083 0)
(0.00818227 -0.475086 0)
(-0.0164809 -0.479538 0)
(-0.0458843 -0.444878 0)
(0.0604673 0.244774 0)
(0.0239823 -0.0352343 0)
(-0.173759 0.0902178 0)
(0.0287425 0.236356 0)
(0.076519 -0.402136 0)
(0.0487746 -0.424278 0)
(0.0262977 -0.436118 0)
(-0.0164147 -0.432134 0)
(-0.039892 -0.430464 0)
(-0.0680689 -0.421557 0)
(-0.0293203 0.10453 0)
(0.0241904 0.00709454 0)
(-0.145896 0.0872596 0)
(0.0631906 -0.222355 0)
(0.0620909 -0.355697 0)
(0.0342562 -0.378444 0)
(0.0171879 -0.378783 0)
(0.00297266 -0.382176 0)
(-0.0205574 -0.382513 0)
(-0.0638768 -0.354545 0)
(-0.0635401 -0.280459 0)
(0.134644 -0.1547 0)
(-0.021916 0.0646868 0)
(0.0733815 -0.269991 0)
(0.071288 -0.310942 0)
(0.0326182 -0.328377 0)
(0.00681729 -0.338688 0)
(-0.024551 -0.336648 0)
(-0.0452823 -0.330118 0)
(-0.0648106 -0.320808 0)
(-0.0698945 -0.281645 0)
(-0.0913274 -0.132434 0)
(0.108104 -0.146587 0)
(0.079088 -0.217072 0)
(0.0723277 -0.259824 0)
(0.0489892 -0.282304 0)
(0.0280682 -0.287347 0)
(0.000978635 -0.287213 0)
(-0.0199523 -0.281167 0)
(-0.0638021 -0.262011 0)
(-0.0719269 -0.225183 0)
(-0.0918176 -0.203892 0)
(0.060335 -0.110789 0)
(0.0498486 -0.191964 0)
(0.0453963 -0.234076 0)
(0.018081 -0.24558 0)
(0.00437871 -0.251311 0)
(-0.0169329 -0.251228 0)
(-0.028468 -0.246444 0)
(-0.0422285 -0.231899 0)
(-0.0483601 -0.196514 0)
(-0.0543169 -0.138291 0)
(-0.000462218 0.000978601 0)
(-0.00820531 0.00345144 0)
(-0.0195377 0.0113884 0)
(-0.0288268 0.00613226 0)
(-0.0309182 0.000733374 0)
(-0.031577 -0.00250681 0)
(-0.0310327 -0.00454678 0)
(-0.0294713 -0.00313105 0)
(-0.0293201 0.00762067 0)
(-0.0366735 0.0214782 0)
(-0.0456257 0.0216595 0)
(-0.051616 0.00389635 0)
(-0.0493224 -0.00313616 0)
(-0.0516573 -0.00692347 0)
(-0.0561165 -0.00896242 0)
(-0.0590247 -0.00624 0)
(-0.0614143 0.00118971 0)
(-0.0645988 0.00716138 0)
(-0.06925 0.00725595 0)
(-0.0739556 0.00290095 0)
(-0.0761248 0.00131216 0)
(-0.0796478 0.00310852 0)
(-0.0807345 0.00339928 0)
(-0.0807527 0.00156965 0)
(-0.0782068 -0.0019315 0)
(-0.0743715 -0.00350058 0)
(-0.0690754 -0.00422033 0)
(-0.0654169 -0.00468765 0)
(-0.064177 -0.00434296 0)
(-0.0642368 -0.00347699 0)
(-0.0639055 -0.00388122 0)
(-0.0600318 -0.00207111 0)
(-0.0572708 -8.35074e-07 0)
(-0.0545823 -0.00242601 0)
(-0.0502633 -0.00480668 0)
(-0.0434725 -0.00963231 0)
(-0.0343988 -0.0107258 0)