/*--------------------------------*- C++ -*----------------------------------*\
  =========                 |
  \\      /  F ield         | OpenFOAM: The Open Source CFD Toolbox
   \\    /   O peration     | Website:  https://openfoam.org
    \\  /    A nd           | Version:  8
     \\/     M anipulation  |
\*---------------------------------------------------------------------------*/
FoamFile
{
    version     2.0;
    format      ascii;
    class       surfaceScalarField;
    location    "3.15";
    object      phi;
}
// * * * * * * * * * * * * * * * * * * * * * * * * * * * * * * * * * * * * * //

dimensions      [0 3 -1 0 0 0 0];

internalField   nonuniform List<scalar> 
18095
(
1.96359e-08
-1.72012e-07
1.52376e-07
2.31118e-08
-1.98067e-07
1.94591e-07
1.97186e-08
-2.05874e-07
2.09267e-07
1.0366e-08
-2.10353e-07
2.19706e-07
-7.88917e-10
-2.13161e-07
2.24316e-07
-1.16521e-08
-2.13479e-07
2.24342e-07
-2.00649e-08
-2.11147e-07
2.19559e-07
-2.3119e-08
-2.05981e-07
2.09035e-07
-1.96536e-08
-1.97963e-07
1.94497e-07
-1.71964e-07
1.52311e-07
1.55263e-08
-1.87538e-07
1.57906e-08
-1.98331e-07
1.21201e-08
-2.02203e-07
7.06121e-09
-2.05294e-07
1.11386e-09
-2.07214e-07
-5.67732e-09
-2.06687e-07
-1.18164e-08
-2.05008e-07
-1.58623e-08
-2.01935e-07
-1.55341e-08
-1.98291e-07
-1.87498e-07
6.83911e-09
-1.94377e-07
8.32129e-09
-1.99813e-07
6.93423e-09
-2.00816e-07
3.43591e-09
-2.01796e-07
-8.50221e-10
-2.02928e-07
-4.80748e-09
-2.0273e-07
-7.41774e-09
-2.02397e-07
-8.33615e-09
-2.01017e-07
-6.84595e-09
-1.99781e-07
-1.94344e-07
4.54405e-09
-1.98921e-07
4.70738e-09
-1.99976e-07
3.97173e-09
-2.0008e-07
2.50629e-09
-2.00331e-07
3.74719e-10
-2.00796e-07
-1.62182e-09
-2.00734e-07
-3.58845e-09
-2.00431e-07
-4.70368e-09
-1.99902e-07
-4.56483e-09
-1.9992e-07
-1.98909e-07
1.07891e-09
1.10249e-09
1.02215e-09
6.91493e-10
-1.04879e-10
-8.38421e-10
-1.26913e-09
-1.17078e-09
-1.09073e-09
-2.67684e-08
-1.96829e-07
2.23597e-07
-2.92998e-08
-1.98824e-07
2.01355e-07
-2.43302e-08
-2.01637e-07
1.96668e-07
-1.26204e-08
-2.01838e-07
1.90128e-07
1.22701e-09
-2.01952e-07
1.88105e-07
1.46043e-08
-2.01743e-07
1.88366e-07
2.47007e-08
-2.00669e-07
1.90573e-07
2.92274e-08
-2.01064e-07
1.96537e-07
2.6637e-08
-1.98727e-07
2.01317e-07
-1.96717e-07
2.23354e-07
-9.78859e-09
-1.8704e-07
-1.51578e-08
-1.93455e-07
-1.38587e-08
-2.02937e-07
-6.81151e-09
-2.08885e-07
-1.07367e-10
-2.08657e-07
6.52788e-09
-2.08378e-07
1.38249e-08
-2.07967e-07
1.53356e-08
-2.02574e-07
9.85454e-09
-1.93246e-07
-1.86863e-07
-1.071e-08
-1.7633e-07
-8.60375e-09
-1.95561e-07
-6.50147e-09
-2.05039e-07
-5.3715e-09
-2.10015e-07
-1.27838e-09
-2.1275e-07
3.44758e-09
-2.13104e-07
5.88581e-09
-2.10405e-07
8.44089e-09
-2.0513e-07
1.06464e-08
-1.95451e-07
-1.76216e-07
-6.68256e-09
-1.69648e-07
-8.80153e-09
-1.93442e-07
-8.50548e-09
-2.05335e-07
-3.76299e-09
-2.14757e-07
1.53137e-10
-2.16666e-07
4.07508e-09
-2.17026e-07
8.76183e-09
-2.15091e-07
8.99945e-09
-2.05367e-07
6.76566e-09
-1.93217e-07
-1.69451e-07
-1.72718e-08
-1.61229e-08
-1.21911e-08
-7.24236e-09
4.08098e-10
7.72376e-09
1.21917e-08
1.58598e-08
1.71397e-08
3.29462e-08
-1.5763e-07
1.24684e-07
3.56894e-08
-1.99021e-07
1.96278e-07
2.74166e-08
-2.11516e-07
2.19789e-07
1.35616e-08
-2.1676e-07
2.30615e-07
-2.82515e-09
-2.17697e-07
2.34083e-07
-2.05657e-08
-2.16945e-07
2.34685e-07
-3.46531e-08
-2.15156e-07
2.29243e-07
-4.12485e-08
-2.10174e-07
2.16769e-07
-3.56542e-08
-1.98483e-07
1.92889e-07
-1.56618e-07
1.20964e-07
1.69454e-08
-1.74576e-07
1.95584e-08
-2.01634e-07
1.51636e-08
-2.07121e-07
6.6362e-09
-2.08232e-07
-2.62558e-09
-2.08435e-07
-1.09236e-08
-2.08647e-07
-1.68889e-08
-2.0919e-07
-1.99417e-08
-2.07121e-07
-1.72887e-08
-2.01136e-07
-1.73907e-07
9.89252e-09
-1.84468e-07
9.54885e-09
-2.01291e-07
8.16212e-09
-2.05734e-07
4.92219e-09
-2.04992e-07
1.07938e-09
-2.04592e-07
-3.14341e-09
-2.04424e-07
-8.22623e-09
-2.04108e-07
-9.89123e-09
-2.05456e-07
-1.00047e-08
-2.01023e-07
-1.83912e-07
7.38393e-09
-1.91852e-07
5.68116e-09
-1.99588e-07
5.74948e-09
-2.05803e-07
-1.6541e-10
-1.99078e-07
-1.99324e-09
-2.02764e-07
-3.44016e-09
-2.02977e-07
-7.19376e-09
-2.00354e-07
-6.53106e-09
-2.06118e-07
-7.89879e-09
-1.99655e-07
-1.9181e-07
3.17449e-08
3.3512e-08
2.43771e-08
1.54273e-08
7.68165e-10
-1.38433e-08
-2.36244e-08
-3.32058e-08
-3.15438e-08
-1.08798e-07
2.43555e-08
8.44428e-08
-1.3418e-07
2.53815e-08
-1.57456e-07
2.32758e-08
-1.78339e-07
2.08835e-08
-1.92925e-07
1.45859e-08
-1.97557e-07
4.63193e-09
-1.97267e-07
-2.89556e-10
-1.72889e-07
-2.43782e-08
-1.16648e-07
-5.62417e-08
-9.74874e-08
-1.91603e-08
-1.00332e-07
4.62269e-08
7.84605e-08
-1.11215e-07
3.62647e-08
-1.12824e-07
2.48849e-08
-1.08248e-07
1.6307e-08
-9.77893e-08
4.12758e-09
-7.02752e-08
-2.28822e-08
-5.2367e-08
-1.81978e-08
-2.79282e-08
-4.88171e-08
-3.86272e-09
-8.03073e-08
-1.34877e-07
3.35269e-08
-4.87606e-08
5.76647e-08
3.73229e-08
-5.76604e-08
4.51647e-08
-6.35675e-08
3.0792e-08
-6.40934e-08
1.68329e-08
-5.11889e-08
-8.77703e-09
-2.2917e-08
-5.11543e-08
2.25509e-08
-6.36658e-08
5.28204e-08
-7.90867e-08
6.02003e-08
-8.76874e-08
-1.12531e-07
3.78538e-08
-2.91912e-08
7.83433e-08
8.51273e-09
-4.359e-08
5.95634e-08
-5.16479e-08
3.88498e-08
-4.84721e-08
1.36571e-08
-3.64145e-08
-2.08347e-08
-2.19487e-08
-6.56201e-08
-1.0186e-08
-7.54285e-08
4.49899e-09
-9.37716e-08
3.05164e-08
-1.13705e-07
-1.23268e-07
4.12538e-08
1.37339e-08
8.79284e-08
-2.33191e-08
9.6624e-09
6.36347e-08
6.96822e-09
4.1544e-08
-2.316e-09
2.29414e-08
-1.26715e-08
-1.04791e-08
-3.11101e-08
-4.71815e-08
-3.47088e-08
-7.18298e-08
-2.92832e-08
-9.91972e-08
-1.90533e-08
-1.23935e-07
-1.30516e-07
-1.18057e-08
9.41607e-08
7.81378e-08
-8.43703e-08
9.43296e-08
6.34658e-08
8.16487e-08
5.4225e-08
6.19577e-08
4.26324e-08
4.67194e-08
4.75927e-09
3.97502e-08
-4.02122e-08
4.10282e-08
-7.31077e-08
4.07726e-08
-9.89415e-08
3.47706e-08
-1.17933e-07
-1.29025e-07
3.328e-08
1.72168e-07
5.8341e-08
-1.52371e-07
1.75868e-07
5.97668e-08
1.57171e-07
7.29214e-08
1.25158e-07
7.46461e-08
1.0669e-07
2.32268e-08
1.1845e-07
-5.19715e-08
1.39094e-07
-9.37517e-08
1.44083e-07
-1.03931e-07
1.29892e-07
-1.03742e-07
-8.927e-08
9.0137e-08
1.67168e-07
4.87777e-08
-1.57605e-07
1.73394e-07
5.35412e-08
1.76249e-07
7.00664e-08
1.75796e-07
7.50989e-08
1.6315e-07
3.5873e-08
1.67366e-07
-5.6188e-08
1.85373e-07
-1.11759e-07
1.95323e-07
-1.13881e-07
1.89642e-07
-9.80605e-08
-5.12796e-08
1.51651e-07
1.09079e-07
5.9765e-08
-1.20067e-07
1.11869e-07
5.07509e-08
1.33256e-07
4.86797e-08
1.93501e-07
1.48537e-08
2.46301e-07
-1.69273e-08
2.57748e-07
-6.76348e-08
2.32082e-07
-8.60933e-08
1.93065e-07
-7.48635e-08
1.53491e-07
-5.8486e-08
-4.56857e-08
1.47897e-07
1.01509e-07
2.94591e-08
-7.12036e-08
1.34686e-07
1.75739e-08
1.61196e-07
2.21697e-08
1.83923e-07
-7.87308e-09
2.07379e-07
-4.03829e-08
1.70845e-07
-3.11007e-08
1.13029e-07
-2.8278e-08
7.54619e-08
-3.72961e-08
8.22053e-08
-6.52294e-08
-5.01168e-08
8.66364e-08
2.29143e-08
-4.88142e-09
1.14263e-08
4.0396e-08
9.2201e-11
4.08249e-08
2.17408e-08
1.82603e-08
1.46914e-08
-2.66857e-08
4.56307e-09
-3.52857e-08
-2.25006e-08
3.21833e-09
-6.6782e-08
5.33923e-08
-8.74701e-08
6.66107e-08
-7.84478e-08
-7.01209e-08
8.66148e-08
-1.87182e-07
-2.23441e-09
1.84535e-07
-1.9305e-07
5.96016e-09
-1.98168e-07
2.68591e-08
-2.04637e-07
2.11604e-08
-2.10382e-07
1.03081e-08
-1.65225e-07
-6.7658e-08
-1.01429e-07
-1.30578e-07
-5.09563e-08
-1.37943e-07
-2.36544e-08
-1.0575e-07
-9.52009e-08
1.4257e-09
-7.25866e-07
-2.49709e-08
7.48602e-07
-6.79745e-07
-4.01607e-08
-5.97857e-07
-5.50292e-08
-4.8649e-07
-9.0206e-08
-3.68489e-07
-1.07693e-07
-2.55569e-07
-1.80578e-07
-1.62485e-07
-2.23662e-07
-9.47507e-08
-2.05678e-07
-4.29762e-08
-1.57524e-07
-1.56406e-07
1.8229e-08
-9.28695e-07
-8.17966e-08
9.85521e-07
-8.51826e-07
-1.1703e-07
-7.06285e-07
-2.0057e-07
-5.2414e-07
-2.72352e-07
-3.00823e-07
-3.31009e-07
-1.31724e-07
-3.49678e-07
-3.26665e-08
-3.22719e-07
4.8699e-08
-2.87043e-07
1.56727e-07
-2.65553e-07
-2.59057e-07
2.59378e-07
-7.55051e-07
-1.46486e-07
8.1974e-07
-6.32482e-07
-2.39599e-07
-4.6174e-07
-3.71312e-07
-2.22255e-07
-5.11836e-07
2.68973e-08
-5.80162e-07
2.41583e-07
-5.64363e-07
3.96651e-07
-4.77787e-07
5.00496e-07
-3.90889e-07
5.60377e-07
-3.25433e-07
-2.73193e-07
5.74513e-07
-3.8811e-07
-1.71142e-07
4.12767e-07
-3.03891e-07
-3.23819e-07
-2.03461e-07
-4.71742e-07
-4.25751e-09
-7.1104e-07
2.11702e-07
-7.96121e-07
4.21114e-07
-7.73775e-07
5.86173e-07
-6.42847e-07
6.73956e-07
-4.78671e-07
7.12809e-07
-3.64286e-07
-2.84871e-07
7.24486e-07
-5.93462e-08
-2.10219e-07
9.84231e-08
-8.14314e-08
-3.01733e-07
-1.41125e-07
-4.12048e-07
-2.00068e-08
-8.32158e-07
1.48077e-07
-9.64205e-07
3.11689e-07
-9.37387e-07
4.54221e-07
-7.85379e-07
5.60896e-07
-5.85346e-07
6.41641e-07
-4.4503e-07
-3.42232e-07
6.99002e-07
1.92642e-07
-2.60097e-07
-1.42765e-07
1.83294e-07
-2.92386e-07
1.40002e-07
-3.68756e-07
1.18938e-07
-8.11095e-07
2.02523e-07
-1.04779e-06
2.79088e-07
-1.01395e-06
3.45869e-07
-8.5216e-07
3.9517e-07
-6.34647e-07
4.58922e-07
-5.08782e-07
-4.24114e-07
5.40803e-07
3.95207e-07
-3.18352e-07
-3.36952e-07
4.19081e-07
-3.1626e-07
4.3174e-07
-3.81415e-07
3.59713e-07
-7.39068e-07
3.31534e-07
-1.01961e-06
3.24779e-07
-1.0072e-06
3.33156e-07
-8.60536e-07
3.4997e-07
-6.51461e-07
3.74199e-07
-5.33012e-07
-4.68492e-07
4.18577e-07
4.58362e-07
-3.85046e-07
-3.91667e-07
4.96036e-07
-3.53934e-07
5.21814e-07
-4.07193e-07
4.87579e-07
-7.04833e-07
4.32221e-07
-9.64251e-07
3.87713e-07
-9.6269e-07
3.63292e-07
-8.36116e-07
3.83717e-07
-6.71886e-07
4.02957e-07
-5.52252e-07
-4.78094e-07
4.1256e-07
4.42009e-07
-4.58007e-07
-3.69048e-07
5.26434e-07
-4.38359e-07
6.08085e-07
-4.88843e-07
6.16896e-07
-7.13645e-07
5.62547e-07
-9.09902e-07
5.10764e-07
-9.10906e-07
4.88943e-07
-8.14295e-07
5.01548e-07
-6.84491e-07
5.07031e-07
-5.57735e-07
-4.44559e-07
4.73496e-07
4.91376e-07
-5.26273e-07
-4.2311e-07
6.23261e-07
-5.70241e-07
7.59051e-07
-6.24634e-07
7.96358e-07
-7.50951e-07
7.49094e-07
-8.62638e-07
6.99708e-07
-8.6152e-07
6.68098e-07
-7.82685e-07
6.5285e-07
-6.69243e-07
6.43999e-07
-5.48883e-07
-3.4685e-07
5.4629e-07
6.00812e-07
-6.22775e-07
-5.04309e-07
7.53647e-07
-7.23075e-07
8.80492e-07
-7.51479e-07
9.15072e-07
-7.85532e-07
8.72633e-07
-8.20198e-07
8.08868e-07
-7.97756e-07
7.35424e-07
-7.09241e-07
7.06049e-07
-6.39868e-07
7.12571e-07
-5.55405e-07
-2.15747e-07
5.81468e-07
7.19377e-07
-7.41566e-07
-6.00587e-07
8.25464e-07
-8.29161e-07
8.73428e-07
-7.99444e-07
8.88872e-07
-8.00976e-07
8.4757e-07
-7.78896e-07
7.63715e-07
-7.13902e-07
6.87038e-07
-6.32564e-07
6.49433e-07
-6.02264e-07
6.34853e-07
-5.40824e-07
-1.46878e-07
5.65983e-07
7.58555e-07
-8.36632e-07
-6.63489e-07
7.50042e-07
-8.20648e-07
7.59875e-07
-8.09277e-07
7.34753e-07
-7.75855e-07
6.61407e-07
-7.05549e-07
5.65708e-07
-6.18203e-07
5.11854e-07
-5.78709e-07
4.43672e-07
-5.34082e-07
3.51498e-07
-4.4865e-07
-1.87419e-07
3.92039e-07
6.74728e-07
-8.58751e-07
-6.52609e-07
6.57781e-07
-8.03701e-07
6.02355e-07
-7.53852e-07
5.09194e-07
-6.82693e-07
4.07157e-07
-6.03512e-07
3.5843e-07
-5.69476e-07
3.23665e-07
-5.43944e-07
1.94269e-07
-4.04685e-07
9.74655e-08
-3.51847e-07
-2.36013e-07
1.4606e-07
4.83177e-07
-8.38276e-07
-5.03651e-07
4.05318e-07
-7.25842e-07
2.91333e-07
-6.39866e-07
1.88219e-07
-5.79579e-07
1.61006e-07
-5.76299e-07
1.63465e-07
-5.71936e-07
8.28475e-08
-4.63326e-07
6.09079e-08
-3.82747e-07
4.58811e-08
-3.3682e-07
-2.51403e-07
6.12714e-08
3.20938e-08
-7.4709e-07
-1.2328e-07
-6.55877e-08
-6.28161e-07
-1.16008e-07
-5.89446e-07
-9.12975e-08
-6.04289e-07
-7.56708e-08
-5.91926e-07
-1.17651e-07
-5.29957e-07
-1.24874e-07
-4.56104e-07
-8.90912e-08
-4.18531e-07
-8.34804e-08
-3.42432e-07
-2.27999e-07
-1.06886e-07
-3.95096e-07
-6.86692e-07
3.34698e-07
-3.92335e-07
-6.30921e-07
-3.69016e-07
-6.12765e-07
-3.44401e-07
-6.28904e-07
-3.53778e-07
-5.8255e-07
-3.49383e-07
-5.34352e-07
-2.84262e-07
-5.21225e-07
-2.27952e-07
-4.74839e-07
-1.93522e-07
-3.76862e-07
-2.40107e-07
-1.81415e-07
-4.92185e-07
-6.85722e-07
4.91215e-07
-4.80484e-07
-6.42621e-07
-4.59289e-07
-6.33961e-07
-4.66188e-07
-6.22006e-07
-4.48731e-07
-6.00007e-07
-3.9436e-07
-5.88724e-07
-3.3068e-07
-5.84906e-07
-2.75187e-07
-5.30332e-07
-2.17865e-07
-4.34183e-07
-2.92595e-07
-1.65378e-07
-5.61831e-07
-7.17001e-07
5.93109e-07
-5.43486e-07
-6.60967e-07
-5.19347e-07
-6.581e-07
-4.81563e-07
-6.59789e-07
-4.05552e-07
-6.76017e-07
-3.30605e-07
-6.63671e-07
-2.81454e-07
-6.34056e-07
-2.5907e-07
-5.52716e-07
-2.45045e-07
-4.48209e-07
-3.20644e-07
-2.16996e-07
-6.44755e-07
-7.89547e-07
7.17302e-07
-5.79683e-07
-7.2604e-07
-5.38489e-07
-6.99293e-07
-4.59998e-07
-7.3828e-07
-3.65125e-07
-7.7089e-07
-2.80266e-07
-7.48531e-07
-2.71968e-07
-6.42354e-07
-3.48789e-07
-4.75895e-07
-4.31979e-07
-3.65018e-07
-2.56138e-07
-4.96485e-07
-7.05463e-07
-9.24456e-07
8.40372e-07
-6.42759e-07
-7.88745e-07
-5.67324e-07
-7.74728e-07
-5.26196e-07
-7.79408e-07
-4.59373e-07
-8.37713e-07
-3.64605e-07
-8.43299e-07
-4.21989e-07
-5.84971e-07
-5.23512e-07
-3.74372e-07
-6.42825e-07
-2.45705e-07
-1.62778e-07
-7.36185e-07
-8.40948e-07
-1.09159e-06
1.00808e-06
-6.81433e-07
-9.4826e-07
-6.289e-07
-8.27261e-07
-5.95253e-07
-8.13056e-07
-6.05013e-07
-8.27953e-07
-6.00046e-07
-8.48267e-07
-7.28461e-07
-4.56556e-07
-7.84299e-07
-3.18534e-07
-7.92096e-07
-2.37908e-07
-1.72469e-07
-7.82405e-07
-1.00792e-06
-1.19366e-06
1.10999e-06
-8.02891e-07
-1.15329e-06
-6.13319e-07
-1.01683e-06
-5.7354e-07
-8.52834e-07
-6.51451e-07
-7.50043e-07
-7.41844e-07
-7.57873e-07
-7.76156e-07
-4.22245e-07
-8.43919e-07
-2.50771e-07
-8.76326e-07
-2.05502e-07
-1.7375e-07
-8.75044e-07
-1.05156e-06
-1.22211e-06
1.08001e-06
-9.418e-07
-1.26305e-06
-7.19431e-07
-1.2392e-06
-5.07284e-07
-1.06498e-06
-4.79971e-07
-7.77355e-07
-6.45035e-07
-5.9281e-07
-6.80853e-07
-3.86427e-07
-7.18483e-07
-2.13141e-07
-7.41227e-07
-1.82757e-07
-1.54397e-07
-7.6058e-07
-9.54459e-07
-8.23895e-07
5.56242e-07
-9.52931e-07
-1.26458e-06
-8.58575e-07
-1.33356e-06
-6.26531e-07
-1.29703e-06
-3.85801e-07
-1.01808e-06
-4.94782e-07
-4.83829e-07
-5.87295e-07
-2.93913e-07
-5.94158e-07
-2.06278e-07
-6.2763e-07
-1.49285e-07
-1.35109e-07
-6.46918e-07
-1.96878e-07
1.1827e-09
-6.282e-07
-8.282e-07
-6.33253e-07
-8.66868e-07
-1.29489e-06
-7.85282e-07
-1.37861e-06
-5.06593e-07
-1.29677e-06
-3.18507e-07
-6.71915e-07
-4.37192e-07
-1.75228e-07
-4.85134e-07
-1.58336e-07
-5.08129e-07
-1.2629e-07
-1.02239e-07
-5.40999e-07
6.07154e-07
2.77304e-07
-8.83274e-07
-5.91249e-08
3.30234e-08
-5.97879e-07
-7.56135e-07
-6.11286e-07
-1.36521e-06
-4.83021e-07
-1.42504e-06
-1.63647e-07
-9.91289e-07
-2.83904e-07
-5.49716e-08
-3.79944e-07
-6.22963e-08
-4.42679e-07
-6.35545e-08
-5.37454e-08
-4.91173e-07
4.80155e-07
3.02504e-07
-5.05353e-07
3.03576e-07
2.09599e-07
-2.39764e-07
-2.12794e-07
-3.35766e-07
-1.2692e-06
-3.06697e-07
-1.45411e-06
-1.06482e-07
-1.1915e-06
-2.84731e-07
1.23278e-07
-4.62406e-07
1.15378e-07
-5.17877e-07
-8.08336e-09
-4.2785e-08
-5.28837e-07
4.14653e-07
2.29722e-07
-3.41871e-07
2.15923e-07
4.08328e-07
-1.26183e-07
1.29313e-07
-2.02591e-07
-1.1928e-06
-1.72574e-07
-1.48413e-06
-8.28726e-08
-1.2812e-06
-1.30749e-07
1.71154e-07
-2.51039e-07
2.35668e-07
-3.81537e-07
1.22415e-07
5.21903e-08
-4.76512e-07
2.0814e-07
1.74333e-07
-1.52751e-07
1.04348e-07
5.12117e-07
-7.64481e-08
3.10113e-07
-1.25784e-07
-1.14346e-06
-1.18801e-07
-1.49111e-06
-3.91622e-08
-1.36084e-06
3.57533e-08
9.62389e-08
9.77277e-08
1.73693e-07
1.17319e-07
1.02825e-07
9.10771e-08
7.84318e-08
-1.32109e-07
2.67116e-07
3.9326e-08
-8.81746e-08
4.68183e-07
2.51697e-08
1.96768e-07
-6.70253e-08
-1.05127e-06
-9.23964e-08
-1.46574e-06
-6.39854e-08
-1.38925e-06
1.64248e-08
1.58288e-08
1.19346e-07
7.0772e-08
1.62353e-07
5.98179e-08
2.78094e-08
2.25621e-07
-5.58398e-07
2.57769e-07
5.67746e-07
-2.95889e-07
2.05671e-07
-4.48214e-08
-5.42996e-08
-5.46372e-08
-1.04145e-06
-6.59602e-08
-1.45441e-06
-2.26347e-08
-1.43258e-06
8.58102e-08
-9.2616e-08
2.10904e-07
-5.43216e-08
2.98621e-07
-2.78994e-08
7.27953e-09
3.19151e-07
-1.5392e-07
1.83656e-07
2.28034e-07
-1.68849e-08
6.86344e-08
-8.71487e-08
1.59644e-08
-4.97217e-08
-1.07888e-06
-4.71726e-08
-1.45696e-06
-4.61725e-08
-1.43358e-06
2.66473e-07
-4.05261e-07
2.22611e-07
-1.04601e-08
2.62947e-07
-6.8236e-08
7.56986e-08
1.94529e-07
2.95869e-07
-3.56845e-08
-7.65283e-08
2.67165e-07
9.73383e-08
-5.82009e-09
2.88949e-07
1.21955e-08
-1.09689e-06
-1.42562e-08
-1.43051e-06
-7.63321e-09
-1.4402e-06
3.88747e-07
-8.01642e-07
1.66016e-07
2.12271e-07
-3.96902e-08
1.37471e-07
2.07535e-07
-1.71527e-07
-4.15008e-08
6.32241e-08
-5.7408e-08
-3.07559e-07
3.63397e-07
-2.26151e-07
2.07541e-07
-2.20928e-08
-1.30095e-06
-2.85895e-08
-1.42401e-06
-4.86325e-08
-1.42016e-06
4.65567e-07
-1.31584e-06
7.7841e-07
-1.00572e-07
6.09954e-07
3.05928e-07
2.03328e-07
6.14162e-07
-4.90614e-07
8.94041e-08
4.64433e-07
-3.23066e-07
1.9585e-07
-6.7771e-08
-4.77548e-08
8.22436e-09
-1.37695e-06
1.11905e-10
-1.4159e-06
-2.07335e-09
-1.41797e-06
9.87536e-08
-1.41667e-06
5.71547e-07
-5.73365e-07
8.32933e-07
4.4542e-08
9.83757e-08
9.37886e-07
-2.45477e-07
-9.64351e-08
4.31317e-07
-5.69966e-08
7.36805e-09
1.93595e-08
-1.24115e-07
-2.50706e-09
-1.35508e-06
-1.67306e-08
-1.40168e-06
-2.83765e-08
-1.40633e-06
-5.30743e-08
-1.39197e-06
2.92637e-08
-6.55702e-07
2.31935e-07
-1.58129e-07
-2.70951e-08
3.57407e-07
-6.43507e-07
-1.86384e-07
7.33455e-07
-3.44769e-07
-2.9135e-07
-3.78701e-08
-4.31016e-07
-2.90071e-08
-1.36394e-06
-3.58252e-08
-1.39486e-06
-5.18355e-08
-1.39032e-06
-5.96153e-08
-1.38419e-06
-5.91378e-08
-6.56177e-07
-5.14871e-08
-1.65778e-07
-1.77618e-08
-6.08215e-08
-3.71714e-07
-3.24509e-07
5.09836e-07
-1.86546e-07
-4.76497e-07
-6.82336e-09
-6.1074e-07
-1.18457e-08
-1.35892e-06
-2.50513e-08
-1.38165e-06
-3.80738e-08
-1.3773e-06
-4.75173e-08
-1.37474e-06
-6.76967e-08
-6.35991e-07
-5.86477e-09
-2.27614e-07
-9.46956e-08
7.10731e-08
1.85085e-09
-3.80625e-07
5.4267e-08
3.3724e-08
-5.0838e-07
6.07167e-08
-6.37741e-07
2.44161e-08
-1.32261e-06
6.23794e-09
-1.36348e-06
-1.2742e-08
-1.35832e-06
-4.05174e-08
-1.34697e-06
-4.62057e-08
-6.30305e-07
-4.9424e-09
-2.68869e-07
-1.67573e-07
6.79338e-08
1.21463e-07
-4.48993e-07
-5.30955e-08
8.42752e-08
-4.71187e-07
8.71413e-08
-6.40606e-07
3.66891e-08
-1.27216e-06
1.10779e-08
-1.33787e-06
-6.12095e-09
-1.34112e-06
-7.28806e-08
-1.28021e-06
-1.82567e-07
-5.20618e-07
-2.28057e-07
-2.23373e-07
-1.95769e-07
-1.99857e-07
7.29362e-08
-4.99199e-07
-2.27285e-08
4.3706e-08
-4.41952e-07
3.94115e-08
-6.36305e-07
2.45358e-08
-1.25729e-06
4.51392e-09
-1.31784e-06
-1.89377e-08
-1.31766e-06
-3.31525e-08
-1.266e-06
4.94256e-08
-6.03191e-07
2.08956e-07
-3.82897e-07
-2.33477e-07
2.46667e-07
-1.27139e-08
-5.18028e-07
3.15419e-08
-9.40982e-09
-4.45251e-07
1.68404e-08
-6.62556e-07
1.61793e-08
-1.25662e-06
-7.29979e-10
-1.30093e-06
-2.30767e-08
-1.29532e-06
-1.74278e-08
-1.27164e-06
3.73723e-09
-6.24349e-07
1.30484e-08
-3.92207e-07
-2.424e-07
2.19752e-08
-3.62379e-08
-5.06754e-07
2.4964e-08
-5.40753e-09
-4.76085e-07
3.74682e-08
-7.05435e-07
4.44625e-08
-1.26362e-06
1.73986e-08
-1.27387e-06
2.05495e-09
-1.27997e-06
-6.17949e-09
-1.2634e-06
-6.07438e-08
-5.69783e-07
-1.3601e-07
-3.1694e-07
-2.42577e-07
-1.3583e-07
-1.54946e-08
-4.8989e-07
-1.36637e-09
1.0559e-08
-5.0214e-07
2.19149e-08
-7.1679e-07
2.20003e-08
-1.2637e-06
4.81614e-09
-1.25668e-06
-2.15428e-08
-1.25362e-06
-4.46849e-08
-1.24026e-06
-1.61842e-07
-4.52625e-07
-1.96982e-07
-2.81797e-07
-2.6455e-07
-1.75009e-07
1.10872e-08
-4.57175e-07
-4.37975e-08
1.14044e-08
-5.02451e-07
1.54401e-08
-7.20824e-07
1.6246e-08
-1.26451e-06
-2.75635e-10
-1.24016e-06
-1.75454e-08
-1.23635e-06
-4.78983e-10
-1.25733e-06
-7.32478e-08
-3.79855e-07
-1.36691e-07
-2.18353e-07
-2.25542e-07
-1.75698e-07
8.45869e-08
-4.16818e-07
-1.24944e-07
3.56726e-08
-4.5354e-07
3.59479e-08
-7.21101e-07
1.82572e-08
-1.24681e-06
1.84689e-09
-1.22375e-06
-8.9229e-09
-1.22558e-06
-3.17267e-08
-1.23452e-06
-6.98183e-08
-3.41762e-07
-1.54846e-07
-1.33324e-07
-2.38533e-07
-1.41853e-07
7.81278e-08
-3.59813e-07
-1.35137e-07
1.83635e-08
-3.9378e-07
1.48574e-08
-7.17592e-07
1.34103e-08
-1.24536e-06
2.95109e-09
-1.21329e-06
-6.11421e-09
-1.21651e-06
-1.0429e-08
-1.23021e-06
1.31025e-07
-4.83214e-07
-2.3496e-08
2.11973e-08
-1.73367e-07
-8.86616e-08
1.00926e-07
-3.05256e-07
-1.55487e-07
2.31533e-08
-3.16006e-07
1.64254e-08
-7.10874e-07
-1.4264e-09
-1.22752e-06
-1.16283e-08
-1.20309e-06
-1.93969e-08
-1.20874e-06
-2.02787e-08
-1.22933e-06
1.72687e-07
-6.76178e-07
2.30466e-07
-3.65821e-08
-6.3441e-08
1.2054e-07
1.26486e-07
-1.99612e-07
-2.32131e-07
1.53419e-08
-2.04841e-07
-1.25014e-08
-6.83028e-07
-4.04442e-08
-1.19957e-06
-3.8038e-08
-1.2055e-06
-5.11122e-08
-1.19567e-06
-7.68544e-08
-1.20358e-06
9.53047e-08
-8.48335e-07
3.22211e-07
-2.63488e-07
-8.88311e-08
3.47602e-07
7.67318e-08
-9.96946e-08
-1.76649e-07
1.27904e-08
-1.40907e-07
2.04297e-08
-6.90672e-07
1.07745e-08
-1.18992e-06
-1.8256e-09
-1.1929e-06
-4.62708e-09
-1.19287e-06
-1.3685e-08
-1.19453e-06
1.05725e-08
-8.72591e-07
4.42502e-08
-2.97164e-07
-1.95852e-07
1.51272e-07
1.64559e-07
-1.9355e-08
-2.44897e-07
5.71056e-08
-3.34455e-08
2.34593e-08
-6.57023e-07
1.01826e-08
-1.17664e-06
4.28299e-10
-1.18314e-06
-1.12993e-08
-1.18114e-06
-2.45291e-08
-1.1813e-06
-4.40122e-08
-8.53107e-07
-2.88117e-08
-3.12365e-07
-2.78983e-07
5.43206e-08
1.35582e-07
6.38183e-08
-2.18755e-07
6.97118e-08
3.24151e-08
3.62966e-08
-6.23605e-07
2.16043e-08
-1.16195e-06
4.58764e-09
-1.16613e-06
-9.65655e-09
-1.16689e-06
-2.37999e-08
-1.16715e-06
-3.13517e-08
-8.45554e-07
5.19161e-08
-3.95631e-07
-2.88977e-07
6.19106e-08
7.79492e-08
1.44216e-07
-1.58348e-07
6.26129e-08
4.77378e-08
4.50636e-08
-6.06056e-07
2.38756e-08
-1.14076e-06
3.76627e-09
-1.14602e-06
-1.54296e-08
-1.1477e-06
-3.60629e-08
-1.14652e-06
-7.64577e-08
-8.0516e-07
-6.12882e-08
-4.108e-07
-2.96562e-07
-5.37032e-08
6.0882e-08
2.15574e-07
-1.32241e-07
6.61346e-08
4.2484e-08
4.12591e-08
-5.8117e-07
1.7582e-08
-1.11708e-06
-2.29983e-09
-1.12614e-06
-2.76757e-08
-1.12232e-06
-5.00067e-08
-1.12419e-06
-9.40867e-08
-7.6108e-07
-1.21283e-07
-3.83604e-07
-2.78785e-07
-1.39058e-07
7.78686e-09
2.74462e-07
-6.66739e-08
5.83231e-08
-8.07385e-09
4.61578e-08
-5.69007e-07
3.32079e-08
-1.10413e-06
8.13687e-09
-1.10106e-06
-1.7134e-08
-1.09705e-06
-3.18659e-08
-1.10946e-06
-6.45241e-08
-7.28422e-07
-1.06133e-07
-3.41995e-07
-2.44603e-07
-1.40313e-07
-2.50787e-09
2.71716e-07
5.2569e-09
5.29139e-08
-6.34914e-08
6.13581e-08
-5.77444e-07
5.43644e-08
-1.09714e-06
2.45178e-08
-1.07122e-06
4.42009e-09
-1.07695e-06
-7.07377e-09
-1.09796e-06
-3.35978e-08
-7.01897e-07
-7.51021e-08
-3.00489e-07
-2.02263e-07
-1.17441e-07
3.70391e-09
2.27961e-07
4.00508e-08
2.33779e-08
-8.31668e-08
4.13855e-08
-5.95464e-07
2.82389e-08
-1.08399e-06
4.08304e-09
-1.04706e-06
-2.36744e-08
-1.0492e-06
-3.70806e-08
-1.08456e-06
-3.60172e-08
-7.02959e-07
-6.43986e-08
-2.72107e-07
-1.6047e-07
-1.06194e-07
4.14931e-08
1.59621e-07
2.68486e-08
4.37614e-08
-8.54142e-08
3.49049e-08
-5.86605e-07
1.44077e-08
-1.0635e-06
-5.48209e-09
-1.02717e-06
-3.25451e-08
-1.02213e-06
-5.2475e-08
-1.06463e-06
-2.73768e-08
-7.28058e-07
-3.04585e-08
-2.69025e-07
-1.3899e-07
-5.19403e-08
2.285e-08
1.13063e-07
2.3707e-08
2.09906e-08
-8.35521e-08
4.67803e-08
-6.12396e-07
2.56857e-08
-1.0424e-06
3.51047e-09
-1.005e-06
-1.38532e-08
-1.00477e-06
-3.44797e-08
-1.044e-06
-9.41193e-09
-7.53127e-07
-2.39431e-09
-2.76041e-07
-1.27906e-07
-1.34804e-08
3.39341e-09
1.21433e-07
-1.17636e-08
-4.97009e-09
-7.51837e-08
3.77853e-08
-6.55156e-07
1.68594e-08
-1.02147e-06
4.52693e-09
-9.92664e-07
-8.39856e-09
-9.91845e-07
-3.04037e-08
-1.022e-06
-1.45814e-08
-7.68951e-07
-1.33584e-09
-2.89287e-07
-1.23478e-07
-5.76492e-09
6.37865e-08
1.28824e-07
-7.11774e-08
2.14389e-08
-3.28185e-08
3.56184e-08
-6.69328e-07
1.4011e-08
-9.99865e-07
5.7081e-10
-9.79224e-07
-9.16542e-09
-9.82109e-07
-3.09466e-08
-1.00021e-06
-2.96354e-08
-7.70262e-07
-1.21324e-08
-3.06791e-07
-1.38746e-07
3.13398e-09
4.92978e-08
7.86622e-08
8.65107e-10
2.71249e-08
-1.06469e-08
1.44122e-08
-6.5662e-07
-6.13125e-09
-9.79321e-07
-1.49103e-08
-9.70445e-07
-2.83152e-08
-9.68704e-07
-4.86374e-08
-9.79892e-07
-5.58365e-08
-7.63064e-07
-6.03116e-08
-3.02318e-07
-1.65822e-07
-3.32366e-08
3.3508e-08
-1.74227e-09
4.68994e-08
3.09758e-08
-8.11457e-09
2.32372e-08
-6.48872e-07
5.07733e-09
-9.61164e-07
-1.04921e-08
-9.54876e-07
-2.42898e-08
-9.54906e-07
-4.3506e-08
-9.60676e-07
-7.47119e-08
-7.31861e-07
-9.37507e-08
-2.8328e-07
-1.97145e-07
-6.24272e-08
2.8678e-08
-4.00495e-08
9.62946e-09
3.86324e-08
-1.80733e-08
2.16079e-08
-6.31842e-07
3.59288e-09
-9.43146e-07
-1.42188e-08
-9.37064e-07
-3.37326e-08
-9.35393e-07
-5.21569e-08
-9.42251e-07
-7.15285e-08
-7.12489e-07
-8.13074e-08
-2.73502e-07
-2.0973e-07
-6.87226e-08
2.25218e-08
-3.56329e-09
-5.90077e-08
4.57547e-08
-4.13144e-08
3.12698e-08
-6.17355e-07
1.24718e-08
-9.24347e-07
-1.12604e-08
-9.13332e-07
-3.55022e-08
-9.11151e-07
-5.3023e-08
-9.24731e-07
-7.58437e-08
-6.89668e-07
-7.86028e-08
-2.70743e-07
-2.01116e-07
-8.72167e-08
2.39473e-08
8.12064e-08
-1.08713e-07
4.05118e-08
-5.78705e-08
4.22561e-08
-6.19095e-07
2.25503e-08
-9.04644e-07
-3.81012e-09
-8.86972e-07
-2.99713e-08
-8.8499e-07
-4.98686e-08
-9.04833e-07
-6.95571e-08
-6.6998e-07
-8.0585e-08
-2.59717e-07
-1.87675e-07
-9.40266e-08
9.71229e-08
1.54783e-07
-1.70696e-07
5.93852e-08
-2.01206e-08
5.55388e-08
-6.15247e-07
3.39701e-08
-8.83074e-07
3.33985e-09
-8.56341e-07
-2.27484e-08
-8.58901e-07
-4.43277e-08
-8.83254e-07
-5.36735e-08
-6.60634e-07
-6.7913e-08
-2.45478e-07
-1.87895e-07
-6.76929e-08
9.13641e-08
1.96885e-07
-1.33464e-07
4.75864e-08
2.36465e-08
4.38519e-08
-6.11519e-07
2.06072e-08
-8.59831e-07
-3.85783e-09
-8.31876e-07
-3.0222e-08
-8.32537e-07
-5.25954e-08
-8.60881e-07
-4.82578e-08
-6.64972e-07
-6.42002e-08
-2.29536e-07
-1.83331e-07
-6.87653e-08
6.98705e-08
2.12058e-07
-8.50455e-08
4.05622e-08
5.29588e-08
4.73604e-08
-6.18318e-07
2.24842e-08
-8.34953e-07
2.23805e-09
-8.1163e-07
-1.85457e-08
-8.11753e-07
-4.43346e-08
-8.35092e-07
-5.40532e-08
-6.55253e-07
-8.99898e-08
-1.93599e-07
-1.72005e-07
-1.01316e-07
6.52876e-08
2.09261e-07
-6.24941e-08
3.90488e-08
7.91884e-08
4.04718e-08
-6.19748e-07
1.78766e-08
-8.12359e-07
2.02267e-09
-7.95776e-07
-1.67551e-08
-7.92976e-07
-4.19329e-08
-8.09914e-07
-5.01139e-08
-6.47072e-07
-7.99159e-08
-1.63797e-07
-1.50323e-07
-1.01598e-07
7.23204e-08
2.17522e-07
-8.05843e-08
4.6242e-08
1.05264e-07
3.36009e-08
-6.07107e-07
1.54851e-08
-7.94247e-07
-3.76658e-09
-7.76524e-07
-1.76054e-08
-7.79137e-07
-3.92008e-08
-7.88318e-07
-5.13428e-08
-6.34931e-07
-7.45049e-08
-1.40633e-07
-1.16975e-07
-1.07853e-07
7.14871e-08
2.34457e-07
-8.84251e-08
5.30872e-08
1.2366e-07
3.30796e-08
-5.87092e-07
1.48993e-08
-7.76066e-07
-4.1631e-09
-7.57462e-07
-1.88208e-08
-7.64479e-07
-3.68415e-08
-7.70298e-07
-5.20583e-08
-6.19715e-07
-6.53036e-08
-1.27387e-07
-7.12149e-08
-1.11064e-07
7.31928e-08
2.54001e-07
-9.27357e-08
6.64933e-08
1.30354e-07
5.13366e-08
-5.71934e-07
2.43792e-08
-7.4911e-07
4.0796e-09
-7.37162e-07
-2.50341e-08
-7.35365e-07
-4.84878e-08
-7.46844e-07
-7.41077e-08
-5.94095e-07
-9.395e-08
-1.07544e-07
-4.46956e-08
-1.20469e-07
4.53918e-08
2.61588e-07
-5.29771e-08
6.09489e-08
1.14806e-07
5.0499e-08
-5.61485e-07
2.26802e-08
-7.21291e-07
-1.45251e-08
-6.99957e-07
-4.46835e-08
-7.05207e-07
-7.43639e-08
-7.17164e-07
-9.43336e-08
-5.74125e-07
-1.06169e-07
-9.57094e-08
-3.17223e-08
-1.19142e-07
1.59017e-08
2.52192e-07
-6.5032e-09
3.79719e-08
9.27293e-08
4.71818e-09
-5.28234e-07
-2.27721e-08
-6.93803e-07
-4.44705e-08
-6.78259e-07
-8.68824e-08
-6.62795e-07
-1.14594e-07
-6.89452e-07
-1.11488e-07
-5.77231e-07
-1.26576e-07
-8.06224e-08
-1.05108e-08
-1.47788e-07
5.53257e-08
2.00858e-07
-3.99325e-09
9.36785e-08
5.43768e-08
7.76362e-08
-5.12191e-07
4.02764e-08
-6.56442e-07
4.33253e-09
-6.42315e-07
-2.33691e-08
-6.35094e-07
-5.38237e-08
-6.58997e-07
-6.87875e-08
-5.62267e-07
-8.33295e-08
-6.60796e-08
2.01444e-08
-1.13986e-07
4.03508e-08
1.51482e-07
9.0233e-09
8.91671e-08
5.5576e-09
7.03257e-08
-4.93345e-07
4.12399e-08
-6.27355e-07
1.53144e-08
-6.16389e-07
-6.49709e-09
-6.13282e-07
-3.61421e-08
-6.29353e-07
-5.31884e-08
-5.4522e-07
-3.67077e-08
-8.25594e-08
3.05344e-08
-4.70977e-08
-3.56671e-09
1.22449e-07
3.26016e-08
5.90976e-08
-5.71115e-08
6.80672e-08
-5.02313e-07
4.23239e-08
-6.01613e-07
1.08371e-08
-5.84902e-07
-1.66194e-08
-5.85825e-07
-5.33481e-08
-5.92624e-07
-6.00426e-08
-5.38526e-07
-1.25537e-08
-1.30047e-07
1.84796e-08
-4.9857e-10
-3.89479e-08
1.31405e-07
2.99902e-08
2.21235e-08
-1.18183e-07
5.95937e-08
-5.39787e-07
2.14955e-08
-5.63515e-07
-7.93805e-10
-5.62613e-07
-3.37961e-08
-5.52823e-07
-7.24945e-08
-5.53926e-07
-4.99037e-08
-5.61117e-07
-1.59866e-08
-1.63964e-07
3.47745e-10
2.14588e-09
4.99077e-08
1.12342e-07
-3.08459e-08
1.10144e-07
-1.78422e-07
1.06292e-07
-5.35934e-07
7.24691e-08
-5.29691e-07
3.25497e-08
-5.22694e-07
4.4973e-09
-5.24771e-07
-2.54693e-08
-5.23959e-07
-5.68805e-08
-5.29706e-07
-3.57535e-08
-1.85091e-07
-8.72828e-09
-2.66762e-08
9.07478e-08
1.015e-07
-7.99063e-08
1.17966e-07
-2.05644e-07
6.59597e-08
-4.83924e-07
2.66279e-08
-4.9036e-07
-7.4243e-09
-4.88642e-07
-3.62873e-08
-4.95908e-07
-6.77936e-08
-4.92453e-07
-1.10284e-07
-4.87215e-07
-9.95912e-08
-1.95784e-07
-3.07515e-08
-7.75671e-08
1.37012e-07
6.84793e-08
-1.03989e-07
1.40498e-07
-2.09139e-07
9.54756e-08
-4.38899e-07
5.19929e-08
-4.46877e-07
1.39416e-08
-4.5059e-07
-2.71647e-08
-4.54801e-07
-7.11626e-08
-4.48455e-07
-1.19552e-07
-4.38825e-07
-1.14051e-07
-2.01286e-07
-5.35243e-08
-9.12783e-08
1.11559e-07
2.43819e-08
-6.74609e-08
1.19501e-07
-2.17085e-07
7.10659e-08
-3.90464e-07
3.62112e-08
-4.12022e-07
-2.90248e-09
-4.11477e-07
-5.39299e-08
-4.03774e-07
-1.04325e-07
-3.9806e-07
-1.5822e-07
-3.8493e-07
-1.27587e-07
-2.31919e-07
-8.45006e-08
-9.66113e-08
5.96557e-08
-3.73219e-08
2.04868e-09
1.34576e-07
-2.92006e-07
8.46525e-08
-3.40541e-07
2.93147e-08
-3.56684e-07
-1.55674e-08
-3.66594e-07
-5.29115e-08
-3.6643e-07
-8.90998e-08
-3.61871e-07
-1.30675e-07
-3.43355e-07
-7.66511e-08
-2.85942e-07
-9.04631e-08
-7.06886e-08
1.61268e-07
-8.79117e-08
-1.10679e-07
1.45653e-07
-2.76394e-07
1.09126e-07
-3.04014e-07