/*--------------------------------*- C++ -*----------------------------------*\
  =========                 |
  \\      /  F ield         | OpenFOAM: The Open Source CFD Toolbox
   \\    /   O peration     | Website:  https://openfoam.org
    \\  /    A nd           | Version:  8
     \\/     M anipulation  |
\*---------------------------------------------------------------------------*/
FoamFile
{
    version     2.0;
    format      ascii;
    class       volScalarField;
    location    "3.7";
    object      epsilon;
}
// * * * * * * * * * * * * * * * * * * * * * * * * * * * * * * * * * * * * * //

dimensions      [0 2 -3 0 0 0 0];

internalField   nonuniform List<scalar> 
9150
(
0.0313145
0.0124209
0.00308913
0.000934471
0.000441489
0.000441273
0.000934016
0.00308809
0.0124191
0.0313145
0.0302268
0.0087257
0.00172486
0.000599678
0.000332053
0.000331907
0.0005994
0.00172419
0.00872413
0.0302266
0.028428
0.00692331
0.00111208
0.000491119
0.000296731
0.000296611
0.000490916
0.00111166
0.00692193
0.0284277
0.0264951
0.00598179
0.000833088
0.000458498
0.000285816
0.000285705
0.000458322
0.000832822
0.00598057
0.0264948
0.0244922
0.00557536
0.000694601
0.000451287
0.000283996
0.000283888
0.00045112
0.000694422
0.00557421
0.0244918
0.123635
0.0524425
0.0222754
0.0135238
0.00962967
0.00963421
0.0135414
0.02232
0.0525601
0.123668
0.0761414
0.0229764
0.0129935
0.00859438
0.00597533
0.00597623
0.00860006
0.0130084
0.0229896
0.0761382
0.0553838
0.0178562
0.00756068
0.00448415
0.00292779
0.00292754
0.00448514
0.00756374
0.0178569
0.0553808
0.0425192
0.0152019
0.00476214
0.00226525
0.00132669
0.00132633
0.0022649
0.00476191
0.0151994
0.0425176
0.0356133
0.0136958
0.0035005
0.00128738
0.000670272
0.000669996
0.00128688
0.00349954
0.0136933
0.0356125
1.34855
0.169793
0.0478437
0.0206599
0.0122541
0.0121399
0.0204076
0.048896
0.180983
1.70633
0.278126
0.118411
0.0452794
0.0204194
0.0123169
0.0122474
0.020229
0.044776
0.115239
0.280716
0.234905
0.103353
0.0443347
0.0201881
0.0123869
0.0123569
0.0201159
0.044172
0.102232
0.235478
0.196899
0.091263
0.0435564
0.019918
0.0124646
0.012459
0.0199067
0.04353
0.0911659
0.197116
0.156318
0.0862214
0.0400137
0.0187384
0.0121226
0.0121278
0.0187566
0.0400628
0.0864294
0.156396
0.02079
0.0209221
0.0209992
0.0210091
0.0209372
0.0207662
0.0204766
0.0200566
0.019562
0.0189834
0.0100845
0.0101686
0.0102325
0.0102734
0.0102881
0.0102738
0.0102291
0.0101568
0.0100708
0.00997228
0.00854641
0.00862263
0.0086848
0.00873149
0.00876149
0.00877414
0.00876981
0.00875069
0.00872151
0.00868485
0.00832723
0.00840208
0.0084652
0.00851566
0.00855277
0.00857629
0.0085868
0.00858606
0.00857649
0.00856136
0.00856753
0.00864428
0.00871062
0.00876574
0.00880899
0.00884003
0.00885918
0.00886709
0.00886581
0.00885871
0.00906322
0.00914463
0.00921667
0.00927848
0.00932914
0.00936789
0.0093938
0.0094073
0.00941022
0.00940582
0.00975065
0.00983968
0.00992051
0.00999207
0.0100524
0.0100993
0.0101318
0.0101501
0.0101559
0.0101525
0.010614
0.0107143
0.010808
0.0108922
0.010964
0.0110207
0.0110605
0.0110833
0.0110913
0.0110886
0.0116591
0.0117754
0.0118858
0.0119867
0.0120738
0.0121429
0.0121908
0.0122179
0.0122278
0.0122267
0.0128997
0.0130371
0.0131703
0.0132948
0.013404
0.0134904
0.013549
0.0135812
0.0135943
0.0135983
0.0143473
0.014511
0.0146751
0.0148343
0.0149787
0.0150943
0.0151698
0.0152108
0.0152327
0.0152505
0.0160095
0.0162028
0.0164039
0.01661
0.0168098
0.0169777
0.0170806
0.0171383
0.0171812
0.0172295
0.0179085
0.0181265
0.0183582
0.0186066
0.0188644
0.0190865
0.0192539
0.0193697
0.0194715
0.0195849
0.0201103
0.0203487
0.0205968
0.0208576
0.0211133
0.0213384
0.0216486
0.0219522
0.0221992
0.0224315
0.0227126
0.0229812
0.0232504
0.0235262
0.023802
0.0241126
0.0245386
0.0250283
0.0254874
0.0259088
0.0258008
0.0261251
0.0264448
0.0267758
0.0271395
0.027596
0.0281783
0.0288478
0.0295535
0.0302416
0.0294448
0.0298703
0.0303002
0.0307606
0.0312944
0.031966
0.0327795
0.0337016
0.0347192
0.0357626
0.0337539
0.0343452
0.0349684
0.0356623
0.0364791
0.0374692
0.0386315
0.0399311
0.0413644
0.0428657
0.0389627
0.0398187
0.0407504
0.0418029
0.0430258
0.0444563
0.0460978
0.0479271
0.0499138
0.0520066
0.0453351
0.0465746
0.0479381
0.0494734
0.0512274
0.0532343
0.0555051
0.058023
0.0607466
0.0636145
0.0531361
0.054879
0.0567914
0.0589252
0.0613286
0.0640382
0.0670762
0.0704411
0.0740899
0.0779332
0.0626255
0.0649726
0.0675175
0.0703237
0.0734449
0.0769167
0.0807824
0.0850847
0.0898055
0.0948188
0.0740243
0.0770154
0.0801788
0.0836253
0.0874313
0.0915944
0.0961685
0.101321
0.107119
0.113451
0.0874057
0.0909475
0.0944761
0.0982562
0.102513
0.107221
0.112322
0.118136
0.124866
0.132424
0.102496
0.106237
0.109457
0.112916
0.117156
0.122319
0.128219
0.134816
0.142244
0.15049
0.117374
0.120861
0.123409
0.126488
0.130846
0.136424
0.143031
0.150475
0.158532
0.166902
0.127837
0.131443
0.134925
0.138688
0.143639
0.149807
0.156978
0.164771
0.17275
0.180778
0.136115
0.140275
0.144904
0.150089
0.156083
0.1629
0.170293
0.177845
0.185384
0.192936
0.144328
0.149345
0.155155
0.161521
0.168336
0.175509
0.182827
0.190112
0.197361
0.204601
0.153504
0.159454
0.166126
0.173134
0.180247
0.18731
0.194324
0.201315
0.208525
0.215958
0.163763
0.170296
0.177331
0.184472
0.191521
0.198371
0.204796
0.211071
0.217948
0.225533
0.174587
0.18116
0.188059
0.194922
0.201534
0.207749
0.21355
0.219588
0.226447
0.234202
0.185775
0.191917
0.198256
0.204503
0.21047
0.216147
0.221801
0.227902
0.234837
0.242712
0.196839
0.202319
0.207918
0.213471
0.218915
0.224356
0.230073
0.23638
0.243567
0.251769
0.207607
0.212359
0.217231
0.222193
0.227297
0.232708
0.23867
0.245455
0.253314
0.262408
0.218231
0.222317
0.226605
0.231182
0.2362
0.241873
0.24846
0.256221
0.265369
0.276103
0.229092
0.232701
0.236668
0.241186
0.246492
0.252861
0.260583
0.269914
0.281132
0.294564
0.240799
0.244266
0.24833
0.253277
0.259426
0.267117
0.276685
0.288465
0.30286
0.320139
0.254137
0.257941
0.262669
0.268698
0.27643
0.286274
0.298628
0.313958
0.332742
0.355122
0.270086
0.274862
0.280977
0.288891
0.299095
0.312079
0.328342
0.348464
0.372859
0.401561
0.289794
0.296341
0.304718
0.315459
0.329138
0.346348
0.367698
0.39378
0.424927
0.461065
0.314459
0.323726
0.335379
0.349992
0.368224
0.390782
0.418347
0.451424
0.490267
0.534715
0.345163
0.358208
0.374227
0.393775
0.41759
0.446522
0.481284
0.522211
0.569432
0.622753
0.38268
0.40066
0.422204
0.447515
0.477601
0.513559
0.55612
0.605496
0.661636
0.724163
0.427279
0.451218
0.479166
0.51053
0.546981
0.590206
0.640847
0.69899
0.764389
0.836328
0.478423
0.507503
0.540713
0.579033
0.622499
0.673269
0.73206
0.798804
0.873087
0.953993
0.532807
0.564941
0.603828
0.649379
0.700008
0.758129
0.824487
0.898887
0.980855
1.06938
0.586463
0.622257
0.66672
0.71793
0.775031
0.839592
0.912089
0.992395
1.08002
1.17263
0.638958
0.678936
0.727544
0.782844
0.844857
0.914008
0.990506
1.07433
1.16395
1.2575
0.692345
0.735549
0.786814
0.844811
0.90947
0.980767
1.05887
1.14313
1.23346
1.33065
0.748602
0.794099
0.84679
0.906085
0.971626
1.04323
1.12098
1.20614
1.29475
1.33737
0.811178
0.858055
0.91142
0.970973
1.03664
1.10834
1.18758
1.26284
1.28354
1.24082
0.884223
0.932268
0.986579
1.04684
1.11408
1.18609
1.24064
1.2373
1.18891
1.13054
0.972864
1.02252
1.07912
1.14298
1.20313
1.22641
1.20221
1.15522
1.10106
1.04513
1.08523
1.13901
1.19587
1.23493
1.2309
1.19443
1.14684
1.09489
1.04127
0.98728
1.23147
1.27921
1.29193
1.26534
1.22179
1.1716
1.11849
1.06394
1.00905
0.955129
1.39476
1.38513
1.34686
1.296
1.2396
1.18061
1.12049
1.06068
1.00255
0.947402
1.54561
1.49489
1.43284
1.36475
1.29366
1.22193
1.15158
1.08433
1.0216
0.964575
1.73816
1.65882
1.57076
1.47824
1.38549
1.29601
1.21237
1.13601
1.06815
1.01022
2.00394
1.8886
1.76421
1.63805
1.51648
1.40426
1.30534
1.22041
1.14938
1.09271
2.34857
2.18354
2.01022
1.84159
1.68643
1.55056
1.43685
1.3446
1.27267
1.22067
2.76249
2.52504
2.29209
2.07762
1.89105
1.73624
1.61194
1.5151
1.44446
1.4014
3.16974
2.83757
2.54597
2.30214
2.10909
1.96202
1.83629
1.73118
1.66665
1.64992
3.43151
3.03409
2.72605
2.49614
2.32227
2.17218
2.04113
1.96072
1.9498
2.01032
3.42782
3.08956
2.83587
2.62119
2.41621
2.27027
2.21471
2.25068
2.37646
2.58847
3.32891
2.97146
2.6906
2.50053
2.40943
2.4205
2.54089
2.77248
3.10834
3.53253
2.92567
2.66025
2.51248
2.48663
2.58998
2.82989
3.20726
3.70931
4.30675
4.96016
2.5644
2.47944
2.53648
2.75524
3.14903
3.7156
4.42747
5.23439
6.06829
6.84193
2.37948
2.55575
2.93532
3.5396
4.35315
5.32195
6.36077
7.35655
8.17938
8.67604
2.55039
3.14499
4.03521
5.17755
6.46827
7.76787
8.88405
9.59828
9.82615
9.65947
3.36758
4.61516
6.1945
7.91563
9.5187
10.6838
11.1479
10.9899
10.4656
9.80322
5.13484
7.25621
9.64435
11.7079
12.8542
12.9025
12.2325
11.3077
10.4088
9.64798
7.99874
11.2335
14.3845
15.6653
15.1275
13.8035
12.4055
11.2057
10.2583
9.5594
12.1349
16.9855
19.6391
18.4588
16.2514
14.1712
12.4497
11.1321
10.2093
9.64243
17.9358
24.7595
24.3746
20.728
17.3504
14.6247
12.5717
11.1635
10.3319
9.98585
26.0812
34.7183
29.6432
23.5383
18.7177
15.1837
12.7778
11.3379
10.6915
10.6696
36.8515
48.4877
36.6124
26.8873
20.1935
15.7585
13.0438
11.6671
11.3194
11.7425
51.8735
65.1203
43.8384
30.0701
21.4509
16.1955
13.3011
12.128
12.2236
13.2421
69.053
77.8334
49.3227
32.2624
22.1133
16.3239
13.4748
12.6936
13.4123
15.2157
89.6158
84.4586
51.5813
32.704
21.8729
16.0315
13.5237
13.3536
14.908
17.7355
107.155
80.3457
49.228
31.1658
20.7388
15.3494
13.4629
14.1177
16.7452
20.9014
112.867
72.7866
45.7783
28.8971
19.129
14.4231
13.3352
14.9941
18.9525
24.8238
114.133
69.8892
42.476
26.1231
17.1669
13.3211
13.146
15.9511
21.521
29.6174
108.402
63.5883
37.4842
22.6808
14.9759
12.1127
12.8702
16.8919
24.3534
35.3691
93.5304
53.8148
31.614
19.1794
12.8367
10.8672
12.4352
17.607
27.1316
41.8776
68.8748
43.0118
26.4321
16.2325
10.9248
9.59266
11.7218
17.7579
29.1462
48.0556
62.8528
39.2615
23.7638
14.1218
9.24562
8.26298
10.639
17.0065
29.3906
51.5072
62.6838
37.8701
21.9175
12.2717
7.64421
6.87344
9.21894
15.2711
27.1368
48.9795
63.5659
36.7331
20.0643
10.4278
6.09701
5.49979
7.64539
12.9499
23.1967
41.9479
64.2061
35.0126
17.8586
8.52819
4.64434
4.2292
6.11064
10.5328
18.8621
33.816
62.1243
31.7065
15.0835
6.60497
3.34557
3.12116
4.72508
8.28877
14.8045
26.1962
55.9782
27.0729
12.0843
4.84889
2.27209
2.20801
3.53772
6.33286
11.2982
19.7523
47.5428
21.9169
9.17902
3.3652
1.44314
1.49164
2.56139
4.6989
8.40226
14.553
38.9635
16.6857
6.51939
2.18645
0.844837
0.955421
1.78774
3.38071
6.07252
10.46
27.2901
11.2216
4.20722
1.31347
0.446104
0.572835
1.19521
2.34158
4.24549
7.31396
15.7742
6.64685
2.48002
0.726894
0.206422
0.313809
0.755287
1.55222
2.85331
4.92523
8.7854
3.77363
1.37725
0.366514
0.081763
0.150398
0.441072
0.976816
1.83121
3.14985
4.75886
2.04406
0.700501
0.161044
0.0301952
0.0593372
0.227151
0.575861
1.12231
1.88688
2.24652
1.00472
0.307376
0.0613122
0.0152671
0.0211249
0.0939505
0.307152
0.675637
1.07858
0.924559
0.454303
0.112852
0.0265712
0.0125024
0.0126391
0.0316809
0.131587
0.423778
0.777602
0.0182382
0.0173633
0.0163856
0.0153498
0.0143276
0.0134181
0.0127368
0.0123803
0.0123766
0.0126622
0.0131187
0.0136384
0.0142292
0.0147818
0.0150938
0.0150338
0.0145562
0.0136991
0.0127626
0.0118857
0.0111009
0.0104815
0.0100503
0.00976707
0.00965931
0.00952482
0.00918316
0.00856266
0.00768431
0.00683539
0.00599269
0.00521581
0.0045676
0.00404233
0.00374588
0.000885181
0.00088444
0.000871116
0.000769925
0.00167533
0.00984987
0.00970633
0.0095461
0.00937171
0.00918571
0.00899203
0.0088003
0.00863032
0.0085046
0.00843227
0.00840595
0.0084144
0.00845507
0.00850291
0.00850694
0.00843728
0.00828554
0.00806662
0.00782749
0.00757991
0.00731206
0.00702332
0.00673513
0.00646918
0.00623834
0.00601333
0.00575691
0.0054548
0.0051205
0.00479759
0.00445531
0.00407971
0.00369398
0.00331817
0.00293199
0.00254397
0.00215786
0.00181088
0.00171494
0.00243791
0.00864115
0.00859575
0.00855503
0.00852145
0.00849298
0.00846204
0.00841889
0.00836032
0.00829523
0.00823408
0.0081815
0.00813644
0.0080947
0.0080486
0.00798695
0.0078989
0.00778182
0.00764047
0.0074846
0.00731171
0.00711782
0.00691371
0.00670345
0.00649
0.00627285
0.00604309
0.00579169
0.00551542
0.00522192
0.00491882
0.00460102
0.00427373
0.00395632
0.00365093
0.00334757
0.00303062
0.00272194
0.0024845
0.00248738
0.00352081
0.00854392
0.00853091
0.00852976
0.00854462
0.00857419
0.00860989
0.00863726
0.00864218
0.00862828
0.00860314
0.0085703
0.00852886
0.00847642
0.00841019
0.00832764
0.00822828
0.00811255
0.00798385
0.00784384
0.0076852
0.0075089
0.0073516
0.00720129
0.007038
0.00685268
0.00663772
0.00639034
0.00611438
0.00581651
0.00550647
0.00519088
0.00486661
0.00454245
0.00421952
0.00389834
0.00359236
0.00331132
0.00310624
0.00317551
0.00450107
0.00884986
0.00884652
0.00885709
0.00888733
0.00893701
0.00899702
0.00905927
0.00911511
0.00915028
0.00916867
0.00917178
0.00915713
0.00912237
0.00906588
0.00898741
0.00888983
0.00877754
0.00865411
0.00851853
0.00836592
0.00820301
0.00806935
0.00796429
0.00785715
0.00771735
0.00753498
0.00730974
0.0070455
0.00674992
0.00643609
0.00611518
0.00578611
0.00544311
0.00507836
0.00470362
0.00434428
0.00402364
0.0037921
0.00387512
0.00533318
0.00939834
0.00939491
0.0094043
0.00943153
0.0094702
0.00950601
0.0095667
0.0096818
0.00979531
0.00987822
0.00992992
0.00995377
0.00994993
0.00991799
0.00985994
0.00978009
0.00968401
0.00957545
0.00945439
0.00931799
0.00917323
0.00905041
0.00896267
0.00889757
0.00881614
0.00868618
0.00850187
0.00827151
0.00800826
0.00772634
0.00744113
0.00715051
0.00682514
0.00643496
0.00597894
0.00550052
0.00505964
0.00476193
0.00484588
0.00641008
0.0101445
0.010139
0.0101449
0.0101665
0.0101937
0.010217
0.0102769
0.0104074
0.0105765
0.0107279
0.0108394
0.0109145
0.0109527
0.0109549
0.0109269
0.010877
0.0108125
0.0107373
0.0106511
0.0105501
0.0104375
0.0103369
0.0102692
0.0102354
0.0102096
0.0101339
0.00998652
0.00979173
0.00958331
0.00938599
0.00920311
0.00901793
0.00879884
0.00849029
0.00801008
0.00739268
0.0067934
0.00639612
0.00643506
0.00790131
0.0110809
0.0110761
0.0110836
0.0111077
0.0111409
0.0111737
0.011235
0.0113533
0.0115353
0.0117438
0.0119271
0.0120673
0.0121562
0.012198
0.0122058
0.0121932
0.01217
0.0121405
0.0121044
0.0120585
0.0120035
0.0119534
0.0119303
0.011929
0.0119422
0.0118973
0.0117602
0.0115914
0.0114565
0.0113743
0.0113104
0.0112373
0.0111397
0.0109863
0.0106546
0.010064
0.00941669
0.00920132
0.0101111
0.00884333
0.0122224
0.0122249
0.0122436
0.0122826
0.0123365
0.0123942
0.0124663
0.0125771
0.0127549
0.0129988
0.0132558
0.0134682
0.0136105
0.0136941
0.013742
0.0137733
0.0137981
0.0138184
0.0138332
0.0138416
0.0138451
0.0138483
0.0138538
0.0138611
0.0138508
0.0137813
0.0136734
0.0135847
0.0135506
0.0135506
0.0135708
0.0135893
0.0135436
0.0133996
0.0130951
0.0125756
0.011961
0.011834
0.0138274
0.0373819
0.0136036
0.0136221
0.0136619
0.0137251
0.0138052
0.0138901
0.0139815
0.0141062
0.0142944
0.0145677
0.0148899
0.0151744
0.0153716
0.0155017
0.0155973
0.0156807
0.0157593
0.0158298
0.0158874
0.015932
0.0159678
0.0159969
0.0160045
0.0159656
0.0158526
0.0157699
0.0157578
0.0157771
0.0158297
0.0158821
0.0159246
0.0159348
0.0158606
0.0156596
0.0153158
0.0148232
0.0142515
0.0140921
0.0159804
0.038253
0.0152771
0.0153247
0.0153968
0.0154927
0.0156054
0.0157262
0.0158557
0.0160154
0.0162304
0.0165322
0.0168961
0.017248
0.0175096
0.0177008
0.017857
0.0180019
0.0181395
0.0182613
0.0183546
0.0184152
0.0184502
0.0184657
0.0184394
0.0183181
0.0181169
0.0180146
0.0180621
0.0182054
0.0183672
0.0184808
0.0185521
0.0185699
0.018492
0.0182565
0.0178264
0.0172372
0.0166406
0.0162867
0.0174866
0.037973
0.0172973
0.0173946
0.0175189
0.0176676
0.0178354
0.0180153
0.0182059
0.0184291
0.018699
0.0190254
0.0194278
0.0198489
0.020183
0.0204359
0.0206535
0.0208582
0.0210502
0.0212162
0.0213374
0.0213998
0.0214139
0.0213904
0.0213177
0.0211521
0.0209296
0.0207794
0.0207819
0.0209111
0.0211098
0.0212991
0.0214583
0.0215691
0.0215918
0.0214671
0.021129
0.0205837
0.019981
0.0195555
0.020581
0.0380502
0.0197272
0.0199066
0.0201143
0.020348
0.0206061
0.0208896
0.0211999
0.0215381
0.0219183
0.0223497
0.0228022
0.0232456
0.0236182
0.0239091
0.0241632
0.0243963
0.0246072
0.0247823
0.0249019
0.024956
0.0249511
0.0248921
0.0247736
0.0245776
0.0243408
0.0241365
0.0240408
0.0240515
0.0241453
0.0243069
0.0244986
0.0246927
0.0248383
0.0248755
0.0247444
0.0244027
0.0239033
0.0236344
0.025229
0.0414654
0.0226923
0.0229973
0.0233323
0.0236965
0.0240912
0.0245218
0.0249945
0.0255085
0.0260622
0.0266299
0.0271509
0.0276197
0.0280123
0.0283281
0.0285907
0.0288064
0.0289761
0.0290913
0.0291401
0.0291502
0.029114
0.0290121
0.0288431
0.028609
0.0283415
0.0280681
0.0278361
0.0276829
0.0276055
0.0276077
0.0276773
0.02779
0.0279064
0.0279822
0.0279747
0.0278701
0.0277697
0.0281783
0.0312637
0.0549841
0.0263572
0.0268545
0.0273779
0.0279293
0.0285123
0.0291343
0.0298016
0.03051
0.0312359
0.0319404
0.0325847
0.0331447
0.0335951
0.033945
0.0342089
0.0343877
0.034485
0.0345007
0.0344387
0.0343233
0.0341596
0.0339423
0.0336675
0.0333392
0.0329789
0.0326018
0.0322223
0.0318663
0.0315649
0.0313294
0.0311598
0.0310487
0.0309838
0.0309541
0.030964
0.0310681
0.0314725
0.0328802
0.0382783
0.0737882
0.030969
0.0317496
0.0325453
0.0333615
0.0342048
0.0350825
0.0359978
0.0369417
0.0378831
0.0387758
0.0395822
0.0402579
0.0407799
0.0411576
0.0414001
0.0415105
0.0414973
0.0413726
0.0411525
0.0408528
0.0404878
0.0400615
0.0395765
0.0390423
0.0384764
0.037888
0.0372785
0.0366539
0.0360494
0.0354868
0.0349827
0.0345526
0.0342132
0.0339897
0.0339354
0.0341773
0.0350462
0.0375261
0.0456424
0.0949869
0.0368769
0.0380564
0.0392368
0.0404248
0.0416283
0.0428531
0.0440978
0.045348
0.0465696
0.0477076
0.048708
0.0495206
0.0501155
0.0504866
0.050642
0.0505997
0.0503835
0.0500209
0.0495364
0.0489475
0.0482696
0.0475188
0.0467034
0.0458436
0.0449541
0.0440356
0.0430795
0.0420886
0.0410966
0.040128
0.0392133
0.03839
0.0377017
0.0372062
0.0369979
0.0372601
0.0384157
0.0416438
0.0516661
0.110472
0.0444867
0.0462065
0.047916
0.0496144
0.0513068
0.0529965
0.0546773
0.0563255
0.0578984
0.0593353
0.0605665
0.0615305
0.0621773
0.0624692
0.0624123
0.0620565
0.0614677
0.0606958
0.0597671
0.0587076
0.057547
0.0563204
0.0550502
0.0537517
0.0524318
0.0510801
0.0496742
0.0482205
0.0467497
0.0452921
0.0438866
0.0425875
0.0414621
0.0405954
0.040113
0.0402376
0.0414489
0.0450406
0.0561798
0.121225
0.0542822
0.0567052
0.0591035
0.0614625
0.0637846
0.0660735
0.068319
0.0704811
0.072497
0.0742881
0.0757758
0.0768968
0.077541
0.0776043
0.0770975
0.0761606
0.0749263
0.073479
0.0718484
0.0700691
0.0682107
0.066347
0.0645047
0.0626753
0.0608456
0.0589856
0.0570624
0.0550745
0.0530438
0.0510055
0.0490104
0.0471295
0.0454535
0.0440912
0.0431893
0.0429918
0.0440022
0.0475519
0.0589033
0.125069
0.0667291
0.0700375
0.0732851
0.0764439
0.0795276
0.0825577
0.0855267
0.0883557
0.0909041
0.093067
0.0947872
0.0960342
0.0965819
0.0961751
0.0948606
0.0929203
0.0906732
0.0882063
0.0855429
0.0827669
0.079986
0.077327
0.0748284
0.0724267
0.0700674
0.0676873
0.0652273
0.0626711
0.0600315
0.0573397
0.05465
0.0520542
0.0496876
0.0476847
0.0462034
0.0454855
0.0460173
0.0490748
0.0596461
0.12209
0.0820898
0.0864717
0.0907056
0.0947545
0.0986825
0.102566
0.106416
0.110096
0.113257
0.115593
0.11731
0.118569
0.118805
0.117574
0.115186
0.112091
0.108457
0.104528
0.100481
0.0964685
0.092602
0.0890291
0.0858736
0.083007
0.0802135
0.0773503
0.0743377
0.071187
0.0679206
0.0645401
0.0610696
0.0576164
0.0543789
0.0515612
0.0493359
0.047905
0.0476694
0.0497217
0.0583721
0.111484
0.100226
0.105852
0.111131
0.11603
0.120717
0.125367
0.130073
0.134668
0.138407
0.140736
0.142353
0.143442
0.142858
0.140504
0.137122
0.132927
0.12781
0.122182
0.11666
0.111406
0.106475
0.102033
0.0983489
0.095281
0.0922195
0.0888278
0.0851386
0.0813476
0.0775243
0.073562
0.069302
0.064759
0.0603114
0.0563677
0.0531753
0.0508589
0.0496073
0.0501943
0.0560938
0.0958389
0.120326
0.12734
0.133551
0.13896
0.144059
0.149164
0.154433
0.159618
0.16355
0.165762
0.167596
0.168833
0.167744
0.164178
0.15916
0.153118
0.146513
0.139892
0.133694
0.127984
0.122535
0.117593
0.113714
0.110772
0.107761
0.10384
0.0993093
0.0949198
0.0909015
0.0870726
0.0826525
0.0768028
0.0703721
0.0644301
0.0596622
0.0561835
0.0535319
0.0514138
0.0523607
0.0775227
0.140761
0.149082
0.155905
0.161366
0.166568
0.171741
0.176878
0.18187
0.185828
0.188573
0.190553
0.190916
0.188715
0.184721
0.179562
0.173242
0.166283
0.159542
0.153735
0.148426
0.143268
0.138885
0.135933
0.134402
0.13217
0.127265
0.121752
0.116953
0.113074
0.109976
0.106369
0.10028
0.0908099
0.08106
0.0732907
0.0675498
0.062647
0.0566985
0.0518362
0.0657573
0.159731
0.16901
0.176284
0.1815
0.18617
0.190841
0.195441
0.200082
0.204246
0.20721
0.208389
0.20781
0.205729
0.202529
0.198529
0.194042
0.189864
0.186663
0.183776
0.180089
0.176297
0.173701
0.172327
0.170941
0.167714
0.162779
0.158649
0.15402
0.148694
0.143743
0.138026
0.133158
0.125127
0.112662
0.101112
0.0914323
0.0830458
0.0729539
0.0644636
0.0798262
0.175849
0.185022
0.192639
0.198023
0.202293
0.206498
0.210741
0.215031
0.218855
0.221492
0.222546
0.222305
0.221271
0.219954
0.218936
0.218921
0.220828
0.225001
0.229018
0.23084
0.232892
0.235453
0.236696
0.232674
0.222879
0.212122
0.203106
0.195703
0.189587
0.183814
0.177275
0.170778
0.163514
0.153209
0.139755
0.126494
0.113125
0.100258
0.0965968
0.153988
0.189208
0.197862
0.205304
0.21109
0.215909
0.220374
0.224615
0.228725
0.232356
0.2351
0.236943
0.238155
0.239285
0.241088
0.244333
0.249702
0.257695
0.268265
0.280709
0.294059
0.305683
0.312472
0.312404
0.305952
0.294985
0.282211
0.269892
0.258741
0.248172
0.237333
0.225437
0.212447
0.198853
0.184961
0.171533
0.15941
0.148544
0.140472
0.143369
0.159521
0.200895
0.209141
0.216561
0.22298
0.228597
0.233642
0.238281
0.242733
0.246934
0.250765
0.254386
0.258062
0.262368
0.268084
0.276054
0.286982
0.301204
0.318184
0.33718
0.357492
0.376601
0.390868
0.397553
0.39649
0.388682
0.376419
0.363589
0.350863
0.336661
0.321658
0.306312
0.29031
0.273038
0.255129
0.23981
0.23459
0.251274
0.308004
0.446955
0.631003
0.212185
0.220224
0.227876
0.234812
0.241105
0.246924
0.252324
0.257531
0.262784
0.268129
0.273796
0.280155
0.287715
0.297185
0.309428
0.325178
0.344439
0.366105
0.389657
0.415016
0.440353
0.462824
0.480696
0.493774
0.501144
0.500578
0.493578
0.483613
0.467354
0.450086
0.43378
0.41835
0.403051
0.390721
0.38601
0.394609
0.419794
0.500761
0.848187
1.22419
0.223491
0.231242
0.238904
0.246188
0.253027
0.259509
0.26576
0.271957
0.278307
0.285009
0.292317
0.30068
0.310525
0.322434
0.337134
0.355239
0.376605
0.400231
0.425522
0.452129
0.478985
0.505888
0.53417
0.565443
0.602104
0.641836
0.66472
0.662247
0.644527
0.624457
0.602842
0.580546
0.553331
0.530298
0.52342
0.550609
0.63915
0.762696
1.36532
1.73726
0.233474
0.241459
0.24928
0.256918
0.264294
0.271444
0.278463
0.285482
0.292675
0.300282
0.308597
0.317983
0.328886
0.341664
0.356696
0.374322
0.394508
0.416435
0.438964
0.461798
0.485532
0.511282
0.540883
0.576641
0.621513
0.678654
0.746174
0.805152
0.845034
0.847316
0.819625
0.773083
0.71712
0.667001
0.638136
0.649163
0.738108
0.907047
1.54178
2.14596
0.2426
0.251172
0.25951
0.26775
0.275853
0.283811
0.291641
0.299403
0.307236
0.31538
0.324159
0.333935
0.345097
0.357892
0.372378
0.388451
0.405715
0.423326
0.440433
0.456846
0.473173
0.490712
0.511212
0.53655
0.56839
0.607781
0.654871
0.709478
0.774201
0.842207
0.90003
0.911811
0.892845
0.847854
0.789068
0.746305
0.760698
0.849572
1.22782
2.01518
0.251535
0.260939
0.270308
0.279725
0.289102
0.298351
0.307381
0.316158
0.324763
0.33343
0.342533
0.352513
0.363751
0.376521
0.390644
0.405518
0.42008
0.433041
0.443557
0.451787
0.45876
0.465935
0.474818
0.486701
0.502499
0.522682
0.547479
0.577235
0.612612
0.653552
0.699663
0.752701
0.821133
0.898249
0.946595
0.9389
0.894504
0.896433
1.06052
1.92081
0.261252
0.271917
0.283003
0.294429
0.305946
0.317311
0.328276
0.338659
0.348437
0.357819
0.367269
0.377412
0.388854
0.40194
0.416589
0.43166
0.444651
0.452843
0.456091
0.455615
0.453239
0.450703
0.449466
0.450588
0.454703
0.462117
0.473075
0.487996
0.507574
0.532592
0.564311
0.604847
0.656475
0.720048
0.795901
0.880566
0.932835
0.907713
0.885817
1.63704
0.273231
0.285983
0.299656
0.314034
0.32872
0.343254
0.357144
0.369962
0.38147
0.391789
0.401492
0.411521
0.422937
0.436596
0.452815
0.470591
0.485189
0.488167
0.482473
0.472496
0.460778
0.44925
0.439363
0.43205
0.427793
0.426785
0.429143
0.435035
0.444729
0.458582
0.47715
0.501185
0.531214
0.567506
0.609398
0.651933
0.677451
0.658609
0.644642
0.889385
0.289141
0.304932
0.322285
0.340788
0.359871
0.378807
0.396777
0.41297
0.426752
0.437981
0.447309
0.456147
0.466253
0.479252
0.496256
0.516937
0.536583
0.542445
0.525456
0.503531
0.481468
0.460767
0.442728
0.428177
0.417406
0.410369
0.406899
0.406821
0.410027
0.416495
0.426357
0.439908
0.457544
0.479742
0.506793
0.537368
0.566431
0.577896
0.550034
0.718658
0.31102
0.331064
0.353327
0.377252
0.402052
0.426668
0.449843
0.470196
0.486435
0.497831
0.505046
0.510406
0.516821
0.526693
0.541755
0.561674
0.575866
0.59471
0.584856
0.547561
0.512477
0.481518
0.455319
0.434358
0.418522
0.40735
0.400284
0.396788
0.396412
0.398838
0.403937
0.411844
0.423079
0.438705
0.4605
0.490861
0.532727
0.579887
0.565484
0.750729
0.341232
0.366911
0.39551
0.426309
0.458239
0.48979
0.519019
0.543758
0.561988
0.571667
0.57347
0.572107
0.572381
0.577118
0.587821
0.602002
0.60818
0.623246
0.630179
0.595012
0.546471
0.504939
0.471587
0.445913
0.427003
0.413845
0.405451
0.400941
0.399576
0.400797
0.404258
0.409894
0.418037
0.429624
0.446592
0.472615
0.515193
0.581605
0.62061
0.774386
0.382224
0.415053
0.451497
0.490609
0.530906
0.570169
0.605614
0.634519
0.653567
0.657509
0.648619
0.637713
0.630823
0.630729
0.637531
0.643048
0.649017
0.663398
0.664882
0.627305
0.571085
0.523287
0.486425
0.459113
0.439834
0.427161
0.419795
0.416582
0.416541
0.418906
0.423174
0.429149
0.43698
0.447307
0.461622
0.483125
0.51866
0.578343
0.651249
0.733653
0.435998
0.477318
0.522733
0.570895
0.619725
0.666399
0.707855
0.739271
0.752486
0.742429
0.720728
0.700891
0.688401
0.685755
0.689466
0.693985
0.708469
0.723748
0.705292
0.643921
0.581709
0.533353
0.497354
0.471743
0.454814
0.445017
0.440907
0.441125
0.444447
0.44991
0.456927
0.465314
0.47522
0.487138
0.502166
0.522755
0.554505
0.608304
0.692476
0.786533
0.503921
0.554592
0.609287
0.665977
0.721937
0.774346
0.819405
0.848109
0.84511
0.815488
0.782694
0.755927
0.740427
0.738089
0.742678
0.754308
0.771387
0.758606
0.699746
0.632323
0.577299
0.534866
0.503706
0.482526
0.470077
0.465066
0.466088
0.471614
0.480112
0.49033
0.501643
0.514077
0.527974
0.543796
0.562281
0.585091
0.616592
0.668448
0.769512
0.92958
0.586732
0.647186
0.711035
0.77544
0.837368
0.893523
0.937921
0.951781
0.919452
0.873138
0.829938
0.797444
0.781059
0.782986
0.794685
0.799792
0.775747
0.719959
0.661296
0.609354
0.566274
0.532419
0.507824
0.492251
0.485164
0.485739
0.492809
0.504791
0.519771
0.535992
0.552788
0.570713
0.59047
0.612466
0.637036
0.665189
0.700627
0.755953
0.875853
1.16359
0.684302
0.754609
0.827341
0.89921
0.966079
1.02142
1.05676
1.03515
0.974674
0.912844
0.859142
0.818488
0.794747
0.790384
0.791191
0.762526
0.716519
0.670718
0.628287
0.59044
0.558135
0.532447
0.514295
0.504168
0.502039
0.507545
0.520018
0.538245
0.56002
0.582595
0.605276
0.629848
0.65733
0.687782
0.720787
0.756321
0.797693
0.860029
1.00448
1.46436
0.795364
0.875443
0.957171
1.03606
1.10455
1.16196
1.16284
1.09324
1.01275
0.937741
0.873069
0.820933
0.781802
0.752498
0.725445
0.695436
0.66414
0.633866
0.605299
0.579214
0.556652
0.538832
0.527041
0.522233
0.524622
0.533971
0.550067
0.572328
0.598712
0.626772
0.656363
0.689412
0.726462
0.766988
0.809794
0.853374
0.900106
0.969397
1.14194
1.82308
0.91725
1.00734
1.09761
1.18097
1.25932
1.28542
1.2165
1.11954
1.02618
0.94236
0.870043
0.809915
0.760314
0.718294
0.682647
0.653131
0.628588
0.607628
0.589448
0.573882
0.561146
0.551955
0.547577
0.549116
0.556782
0.570276
0.589814
0.614421
0.641656
0.671912
0.708522
0.751306
0.799922
0.854373
0.90993
0.960843
1.00857
1.08039
1.2789
2.23187
1.04419
1.14265
1.23744
1.33307
1.38169
1.31926
1.21156
1.10535
1.00808
0.921882
0.847787
0.785119
0.732327
0.688344
0.653069
0.625951
0.605775
0.591173
0.580946
0.574264
0.570756
0.57079
0.575585
0.586142
0.601282
0.619182
0.642265
0.670923
0.703855
0.73849
0.774703
0.816914
0.869587
0.937342
1.01929
1.09069
1.13403
1.19903
1.4174
2.66711
1.16607
1.26783
1.37531
1.43966
1.38514
1.2738
1.16133
1.05684
0.962697
0.880068
0.809162
0.749152
0.699468
0.659659
0.629082
0.606894
0.592099
0.583554
0.580152
0.580999
0.585604
0.594126
0.607293
0.625347
0.645763
0.669999
0.701193
0.737401
0.778242
0.820874
0.862963
0.906015
0.954236
1.01456
1.09623
1.19947
1.2674
1.32592
1.56256
3.1019
1.27094
1.38387
1.4556
1.40877
1.30067
1.18866
1.08288
0.986069
0.899765
0.824921
0.76131
0.70852
0.666143
0.633516
0.60986
0.59436
0.586112
0.584147
0.587495
0.595264
0.60681
0.621824
0.640202
0.661868
0.686671
0.714919
0.747411
0.783805
0.823794
0.866895
0.912883
0.962526
1.01709
1.07762
1.14736
1.23362
1.32832
1.43143
1.70773
3.51894
1.36388
1.43527
1.39408
1.29451
1.18871
1.08692
0.992261
0.906708
0.83136
0.766999
0.713405
0.670204
0.636886
0.61282
0.597273
0.589443
0.588486
0.593534
0.603679
0.618004
0.635728
0.656253
0.679164
0.704267
0.731594
0.761343
0.793627
0.828422
0.865676
0.905429
0.948046
0.994398
1.04582
1.10422
1.17233
1.25346
1.3567
1.50711
1.84641
3.92535
1.39249
1.35444
1.26443
1.16773
1.07338
0.984318
0.902693
0.829993
0.767066
0.714441
0.671874
0.639017
0.615399
0.600442
0.593451
0.593654
0.600232
0.612324
0.629004
0.649336
0.672457
0.697618
0.724268
0.752205
0.781614
0.812799
0.845922
0.88101
0.918069
0.957232
0.99893
1.04399
1.09369
1.15014
1.21598
1.29621
1.40246
1.57587
1.98037
4.3189
1.30142
1.22092
1.13432
1.04895
0.967301
0.891451
0.823023
0.763111
0.712712
0.671824
0.640259
0.617733
0.603824
0.597983
0.599549
0.607761
0.621777
0.640674
0.663449
0.689108
0.716718
0.745476
0.774835
0.804802
0.836011
0.869086