/*--------------------------------*- C++ -*----------------------------------*\
  =========                 |
  \\      /  F ield         | OpenFOAM: The Open Source CFD Toolbox
   \\    /   O peration     | Website:  https://openfoam.org
    \\  /    A nd           | Version:  8
     \\/     M anipulation  |
\*---------------------------------------------------------------------------*/
FoamFile
{
    version     2.0;
    format      ascii;
    class       volScalarField;
    location    "3.7";
    object      nut;
}
// * * * * * * * * * * * * * * * * * * * * * * * * * * * * * * * * * * * * * //

dimensions      [0 2 -1 0 0 0 0];

internalField   nonuniform List<scalar> 
9150
(
9.60049e-06
6.39986e-06
6.56604e-06
8.73189e-06
7.54189e-06
7.53918e-06
8.73002e-06
6.56516e-06
6.39927e-06
9.60049e-06
9.48804e-06
5.73118e-06
8.26988e-06
9.87306e-06
7.01683e-06
7.01405e-06
9.87016e-06
8.26885e-06
5.73065e-06
9.48802e-06
9.29597e-06
5.49443e-06
1.07922e-05
1.02477e-05
6.67038e-06
6.66774e-06
1.02441e-05
1.07906e-05
5.49397e-06
9.29594e-06
9.08032e-06
5.41692e-06
1.33908e-05
1.02452e-05
6.48431e-06
6.48181e-06
1.02415e-05
1.33881e-05
5.41651e-06
9.08028e-06
8.84547e-06
5.4009e-06
1.56284e-05
1.01539e-05
6.3898e-06
6.38738e-06
1.01501e-05
1.56244e-05
5.40053e-06
8.84543e-06
5.91433e-06
1.12618e-05
1.38304e-05
1.73609e-05
1.65287e-05
1.6526e-05
1.73632e-05
1.38409e-05
1.12699e-05
5.91488e-06
6.28079e-06
8.851e-06
1.13374e-05
1.52621e-05
1.42972e-05
1.42936e-05
1.52613e-05
1.13425e-05
8.85385e-06
6.2807e-06
6.83149e-06
7.89758e-06
9.37263e-06
1.30346e-05
1.20229e-05
1.20194e-05
1.3033e-05
9.37439e-06
7.89782e-06
6.83136e-06
7.3881e-06
7.29152e-06
7.9664e-06
1.11294e-05
1.0111e-05
1.01078e-05
1.11276e-05
7.96643e-06
7.2909e-06
7.38801e-06
8.07504e-06
6.84208e-06
7.04657e-06
9.63285e-06
8.57238e-06
8.5695e-06
9.63095e-06
7.04586e-06
6.84135e-06
8.07498e-06
1.32834e-05
1.74132e-05
1.33829e-05
1.56656e-05
1.73187e-05
1.74108e-05
1.60598e-05
1.532e-05
2.27094e-05
1.4425e-05
7.88914e-06
1.07841e-05
1.24058e-05
1.57593e-05
1.73904e-05
1.7443e-05
1.59022e-05
1.25554e-05
1.08553e-05
7.91452e-06
7.45835e-06
1.01668e-05
1.24586e-05
1.59408e-05
1.74666e-05
1.74983e-05
1.60337e-05
1.25338e-05
1.01872e-05
7.46459e-06
7.03231e-06
9.78051e-06
1.24913e-05
1.60906e-05
1.7531e-05
1.755e-05
1.61465e-05
1.25354e-05
9.80673e-06
7.03497e-06
6.51156e-06
1.00407e-05
1.24998e-05
1.62755e-05
1.74394e-05
1.7448e-05
1.63015e-05
1.25221e-05
1.00625e-05
6.51267e-06
8.36196e-06
8.37963e-06
8.38997e-06
8.39145e-06
8.38214e-06
8.35964e-06
8.32114e-06
8.2645e-06
8.19643e-06
8.11545e-06
7.21774e-05
7.19252e-05
7.15879e-05
7.11521e-05
7.06021e-05
6.99176e-05
6.90691e-05
6.8001e-05
6.6581e-05
6.47751e-05
0.000139619
0.000138934
0.00013808
0.000137031
0.000135761
0.000134235
0.000132411
0.000130241
0.000127603
0.000124489
0.000195032
0.000193993
0.000192724
0.000191199
0.000189387
0.000187254
0.000184759
0.000181856
0.000178474
0.000174613
0.000240323
0.000239034
0.00023748
0.000235634
0.000233472
0.000230964
0.00022808
0.000224759
0.000220985
0.000216763
0.000277899
0.000276455
0.000274724
0.000272689
0.000270329
0.000267622
0.000264524
0.000261016
0.000257093
0.000252764
0.000309596
0.000308073
0.000306259
0.00030414
0.000301693
0.00029889
0.00029572
0.000292174
0.000288256
0.000283977
0.000336726
0.000335192
0.000333371
0.000331238
0.000328779
0.000325984
0.000322847
0.000319367
0.000315552
0.000311421
0.000360217
0.000358739
0.000356969
0.000354895
0.000352509
0.000349802
0.000346771
0.000343423
0.000339771
0.00033584
0.00038073
0.000379371
0.000377729
0.000375794
0.000373553
0.000370996
0.000368121
0.000364938
0.000361474
0.000357762
0.000398719
0.000397551
0.000396115
0.000394398
0.000392377
0.00039003
0.000387342
0.000384335
0.000381053
0.000377545
0.00041447
0.000413552
0.000412392
0.00041097
0.000409252
0.000407182
0.000404698
0.000401852
0.000398726
0.000395391
0.000428192
0.000427538
0.000426667
0.000425563
0.000424182
0.000422405
0.000420165
0.000417505
0.000414541
0.000411367
0.000440146
0.000439719
0.000439082
0.000438208
0.000437023
0.000435424
0.000433541
0.000431258
0.000428562
0.000425589
0.000450699
0.000450457
0.000449992
0.000449273
0.000448233
0.00044685
0.000445205
0.000443237
0.000440863
0.000438154
0.000460192
0.000460106
0.000459767
0.000459155
0.000458244
0.000457048
0.000455589
0.000453829
0.000451737
0.000449322
0.000468882
0.000468936
0.000468706
0.000468185
0.000467384
0.000466334
0.000465028
0.000463452
0.000461618
0.000459513
0.000476975
0.000477177
0.000477079
0.000476686
0.000476023
0.000475115
0.000473968
0.000472614
0.000471051
0.000469268
0.000484787
0.000485195
0.000485297
0.000485109
0.000484659
0.00048398
0.000483091
0.000482002
0.000480729
0.000479268
0.000492701
0.000493402
0.000493802
0.000493917
0.000493775
0.000493407
0.000492839
0.000492087
0.000491155
0.000490044
0.000501065
0.000502156
0.000502949
0.000503455
0.000503698
0.000503708
0.000503512
0.000503132
0.000502577
0.000501836
0.000510173
0.000511732
0.000512979
0.00051392
0.00051457
0.000514952
0.000515107
0.000515077
0.000514889
0.000514532
0.000520236
0.00052228
0.000523963
0.000525288
0.000526267
0.000526911
0.000527277
0.000527484
0.000527611
0.000527661
0.000531326
0.000533765
0.00053569
0.000537154
0.00053824
0.000538977
0.000539408
0.000539747
0.000540155
0.000540665
0.000543334
0.000545899
0.000547597
0.000548738
0.000549599
0.000550332
0.000550973
0.000551617
0.000552396
0.000553351
0.00055512
0.000557443
0.000558558
0.000559214
0.000559863
0.000560651
0.000561634
0.000562833
0.000564213
0.000565649
0.000563872
0.000565912
0.000567204
0.000568109
0.000569139
0.000570463
0.00057212
0.000574017
0.000575983
0.000577923
0.000570203
0.000572369
0.000574298
0.00057619
0.000578267
0.000580626
0.000583212
0.000585857
0.000588468
0.000591016
0.000575605
0.000578459
0.000581456
0.000584631
0.000588001
0.000591545
0.000595161
0.000598733
0.000602219
0.000605593
0.000581329
0.000585287
0.00058955
0.000594049
0.000598692
0.000603372
0.000608026
0.000612603
0.000617153
0.000621639
0.000588057
0.000593233
0.000598737
0.000604462
0.000610308
0.00061616
0.000621823
0.000627291
0.000632788
0.00063836
0.000595845
0.000602191
0.000608845
0.000615678
0.000622563
0.000629351
0.000635929
0.000642449
0.000649074
0.000655813
0.000604657
0.000612066
0.000619747
0.000627569
0.0006354
0.000643146
0.000650807
0.000658463
0.000666186
0.00067397
0.000614255
0.000622657
0.000631302
0.000640079
0.000648889
0.000657673
0.000666422
0.00067514
0.000683841
0.00069251
0.000624505
0.000633859
0.000643445
0.000653172
0.000662959
0.000672739
0.000682466
0.000692109
0.000701645
0.000711045
0.000635444
0.00064573
0.000656247
0.000666906
0.000677617
0.00068829
0.000698847
0.000709218
0.000719345
0.000729196
0.000647242
0.000658438
0.000669845
0.000681357
0.000692857
0.000704222
0.000715337
0.000726096
0.000736446
0.000746417
0.000660152
0.000672196
0.000684384
0.000696572
0.000708605
0.000720331
0.000731617
0.000742377
0.00075261
0.00076238
0.000674389
0.00068714
0.000699894
0.000712465
0.000724668
0.00073634
0.000747366
0.000757732
0.00076753
0.000776876
0.000690048
0.000703259
0.000716248
0.000728802
0.000740735
0.000751916
0.000762307
0.000772005
0.000781195
0.000790079
0.000707059
0.000720392
0.000733213
0.000745315
0.000756557
0.000766901
0.000776432
0.000785368
0.000793991
0.000802579
0.000725199
0.000738284
0.000750546
0.000761832
0.000772101
0.000781447
0.000790095
0.000798365
0.000806614
0.000815159
0.000744161
0.000756674
0.000768097
0.00077837
0.00078758
0.000795966
0.000803872
0.000811681
0.00081978
0.000828485
0.000763643
0.00077541
0.000785911
0.000795144
0.000803356
0.000810928
0.000818288
0.000825852
0.000833985
0.000842949
0.000783427
0.000794454
0.000804093
0.000812322
0.000819613
0.00082653
0.000833549
0.000841066
0.00084938
0.000858649
0.000803295
0.000813387
0.000822005
0.000829429
0.000836087
0.000842649
0.000849581
0.00085722
0.000865783
0.000875334
0.000822527
0.000831329
0.00083908
0.000846062
0.000852473
0.00085898
0.000866023
0.000873869
0.000882663
0.000892398
0.000840443
0.00084819
0.000855351
0.000862026
0.000868453
0.000875124
0.00088238
0.000890433
0.000899369
0.000909006
0.000857156
0.000864208
0.000870934
0.000877428
0.000883982
0.000890876
0.000898334
0.000906514
0.000915349
0.000924649
0.000873104
0.0008797
0.000886137
0.000892574
0.000899222
0.000906246
0.000913795
0.000921899
0.000930577
0.000939741
0.000888536
0.000894918
0.000901215
0.00090764
0.00091433
0.000921386
0.000928891
0.000937004
0.000945175
0.000948501
0.000903959
0.000910215
0.000916462
0.000922874
0.00092958
0.000936648
0.000944241
0.000951014
0.000951998
0.000946507
0.000919885
0.000926048
0.000932321
0.000938842
0.000945776
0.000952867
0.000957588
0.000955927
0.000949127
0.000940646
0.000936693
0.000942932
0.000949466
0.000956438
0.000962577
0.000964304
0.000960332
0.000953119
0.000944393
0.000934631
0.000954776
0.000961553
0.000968284
0.000972679
0.000971869
0.000966598
0.000959153
0.000950317
0.00094033
0.000929252
0.000973746
0.00098006
0.000982401
0.000979902
0.000974428
0.000967092
0.000958325
0.000948284
0.00093702
0.000924553
0.000989188
0.000990216
0.00098753
0.000982402
0.00097545
0.000966965
0.000957082
0.000945876
0.000933353
0.000919451
0.000995948
0.000993199
0.000988336
0.000981729
0.000973576
0.000964003
0.000953074
0.000940765
0.000926948
0.000911403
0.00099655
0.000991285
0.000984395
0.000976084
0.000966519
0.000955761
0.000943723
0.000930172
0.000914727
0.000896971
0.000992691
0.000984566
0.00097516
0.00096472
0.000953398
0.000941153
0.000927599
0.000912228
0.000894403
0.000873466
0.000986803
0.000975268
0.000962818
0.000949669
0.000935943
0.000921438
0.000905555
0.00088738
0.000865887
0.000840501
0.000982998
0.000967082
0.000950753
0.00093434
0.00091772
0.0009002
0.000880662
0.000857812
0.000830957
0.000800136
0.000980392
0.00095942
0.000939321
0.000919908
0.000900313
0.000879037
0.000853628
0.000823619
0.000789809
0.000752501
0.000971817
0.000947083
0.000924231
0.000901829
0.000877598
0.000848943
0.000815456
0.000777835
0.000737198
0.000695481
0.000949966
0.000923837
0.000897834
0.000869179
0.000835754
0.000798227
0.000757138
0.000713698
0.00067101
0.000633115
0.000908283
0.000876861
0.000843755
0.000807797
0.000767716
0.000723702
0.000678707
0.000637513
0.000604653
0.000582621
0.000841088
0.000806532
0.000768341
0.000725247
0.000678972
0.000634482
0.000597906
0.000573482
0.000562058
0.00056173
0.000761466
0.000720909
0.00067473
0.000627248
0.000586021
0.000557742
0.000544853
0.00054566
0.000556239
0.000572076
0.00066409
0.000616765
0.000571374
0.000537898
0.000521979
0.0005229
0.000536106
0.000556075
0.000577515
0.000595902
0.000553647
0.000515378
0.000494696
0.000494134
0.000509306
0.000533624
0.000560491
0.000584069
0.000601359
0.0006124
0.000465175
0.000460541
0.000475388
0.000503053
0.00053588
0.000566564
0.000589711
0.000604558
0.000613168
0.000618003
0.000435682
0.000463388
0.000500194
0.000538895
0.000570754
0.000591462
0.000603064
0.000609753
0.000614544
0.000618534
0.000451727
0.000494597
0.000537625
0.000570186
0.000587465
0.000595525
0.000600812
0.000606239
0.000612011
0.000617292
0.000482565
0.000528604
0.000564312
0.000578893
0.000583168
0.00058641
0.000591763
0.000599412
0.00060788
0.000615245
0.000513444
0.000553968
0.000572297
0.000571758
0.000570149
0.000572775
0.00058076
0.000592539
0.000604827
0.00061472
0.000543272
0.000573167
0.000572168
0.000561736
0.000556279
0.000559839
0.000572221
0.000589413
0.00060579
0.000617926
0.000571723
0.00059737
0.000576765
0.000555322
0.000545967
0.000551472
0.000569405
0.000592196
0.000611809
0.000625394
0.000604325
0.000628279
0.000585078
0.000553155
0.000540585
0.000548968
0.000572941
0.000600502
0.000621889
0.000636276
0.000633216
0.000651642
0.000592544
0.000553025
0.000538779
0.000551234
0.000581349
0.000612284
0.000634163
0.000649416
0.000658195
0.000663309
0.000595137
0.000551597
0.000538227
0.000556369
0.000592399
0.000625189
0.000647109
0.000664225
0.000685109
0.000655645
0.000588906
0.000546609
0.000537125
0.00056252
0.000603845
0.000637378
0.000660119
0.000681005
0.000704488
0.000641167
0.000579405
0.000538604
0.000534396
0.00056807
0.000613843
0.000647914
0.000673416
0.000700427
0.000714515
0.000634999
0.000567688
0.000527246
0.000529613
0.000571963
0.000621227
0.00065673
0.00068769
0.000723245
0.000710945
0.000620506
0.000550499
0.000512502
0.000522486
0.000573093
0.000625349
0.000664242
0.000703697
0.000750521
0.00068473
0.000595955
0.000528872
0.000494472
0.00051178
0.000570204
0.000626053
0.000670709
0.000721363
0.000782642
0.000640067
0.000568306
0.000505506
0.0004726
0.000496035
0.00056275
0.000623624
0.000675708
0.000738696
0.000816685
0.000621384
0.000547428
0.000481047
0.000445825
0.000474618
0.000551194
0.000618741
0.00067872
0.00075266
0.000845891
0.000610906
0.000530312
0.000456767
0.000416101
0.0004491
0.000536717
0.00061234
0.000680297
0.00076225
0.000863931
0.000604244
0.000514931
0.000432356
0.000384129
0.000420354
0.000519902
0.000604862
0.000681483
0.000769856
0.000874481
0.000598921
0.000499197
0.000406982
0.000350264
0.000388933
0.000500674
0.000595792
0.000682388
0.000778049
0.000885687
0.00059108
0.00048066
0.000380016
0.000315087
0.000355082
0.000478227
0.000583783
0.000681712
0.000786616
0.000900394
0.000576326
0.000458395
0.0003519
0.000279215
0.000317905
0.000450964
0.000567078
0.000677052
0.000792058
0.000913615
0.000555389
0.000433326
0.000323816
0.000243877
0.000276657
0.000417359
0.000544426
0.000666854
0.000791773
0.000920715
0.000531461
0.000407241
0.000297686
0.000210705
0.000230582
0.000375705
0.000515015
0.00065095
0.00078577
0.000921333
0.000504501
0.00038523
0.000276703
0.000180722
0.000179116
0.000323754
0.000477594
0.000629573
0.000776166
0.000918618
0.000491004
0.0003754
0.000260892
0.0001518
0.000123659
0.000258886
0.000428543
0.000601558
0.000765797
0.000918653
0.00049659
0.0003718
0.000240862
0.000119141
7.16403e-05
0.000180499
0.000359812
0.000559927
0.000755134
0.000931081
0.000510394
0.000362111
0.000205441
8.13144e-05
3.57247e-05
9.75042e-05
0.000259839
0.000483972
0.000731361
0.000966792
0.000541327
0.000330682
0.000144855
4.41054e-05
2.07604e-05
3.69709e-05
0.000130875
0.000334893
0.000633289
0.00100405
0.000569287
0.000219936
6.135e-05
2.05615e-05
1.75547e-05
1.85322e-05
3.32052e-05
0.000117861
0.000335498
0.00074876
8.0087e-06
7.87952e-06
7.72974e-06
7.56405e-06
7.39244e-06
7.23175e-06
7.10497e-06
7.03461e-06
7.03017e-06
7.08095e-06
7.1634e-06
7.25584e-06
7.35693e-06
7.45142e-06
7.50501e-06
7.49715e-06
7.41917e-06
7.27272e-06
7.10389e-06
6.93735e-06
6.78048e-06
6.65075e-06
6.5571e-06
6.49408e-06
6.46879e-06
6.43922e-06
6.36235e-06
6.21676e-06
5.99706e-06
5.76738e-06
5.5191e-06
5.26798e-06
5.03836e-06
4.8353e-06
4.72844e-06
1.99706e-05
1.99561e-05
1.95859e-05
1.73031e-05
3.76684e-06
6.25059e-05
5.98728e-05
5.71216e-05
5.44727e-05
5.22087e-05
5.06355e-05
5.00056e-05
5.0412e-05
5.17253e-05
5.36345e-05
5.57429e-05
5.76015e-05
5.87442e-05
5.91495e-05
5.9076e-05
5.8526e-05
5.74903e-05
5.59407e-05
5.38034e-05
5.13813e-05
4.93837e-05
4.83076e-05
4.80309e-05
4.79939e-05
4.7544e-05
4.6648e-05
4.53083e-05
4.34724e-05
4.10137e-05
3.76198e-05
3.41209e-05
3.14368e-05
2.99132e-05
2.90196e-05
2.81348e-05
2.68578e-05
2.50486e-05
2.22568e-05
1.57121e-05
5.47677e-06
0.000120704
0.000116314
0.000111688
0.000107138
0.000103085
9.99979e-05
9.82663e-05
9.80187e-05
9.90465e-05
0.000100888
0.000102996
0.000104866
0.000106089
0.000106429
0.000105978
0.000104743
0.00010273
9.99703e-05
9.65524e-05
9.28435e-05
8.94589e-05
8.68978e-05
8.50633e-05
8.34586e-05
8.16073e-05
7.9248e-05
7.64037e-05
7.3004e-05
6.89881e-05
6.43094e-05
5.94104e-05
5.51561e-05
5.17656e-05
4.88004e-05
4.56424e-05
4.18739e-05
3.70363e-05
3.03468e-05
2.05623e-05
7.91098e-06
0.000170031
0.000164774
0.000159253
0.000153774
0.000148758
0.000144692
0.000141994
0.000140798
0.000140883
0.000141778
0.000142956
0.000143947
0.000144397
0.000144081
0.000142886
0.000140874
0.000138048
0.000134454
0.00013018
0.000125548
0.000121038
0.000117181
0.000113809
0.000110529
0.000107052
0.000103188
9.88813e-05
9.41587e-05
8.90183e-05
8.3545e-05
7.80047e-05
7.26761e-05
6.76705e-05
6.27797e-05
5.76392e-05
5.19611e-05
4.51481e-05
3.63529e-05
2.45003e-05
1.01132e-05
0.00021183
0.000206217
0.000200334
0.000194441
0.000188904
0.000184177
0.000180693
0.000178633
0.000177736
0.000177539
0.000177577
0.000177457
0.000176879
0.000175637
0.000173609
0.00017078
0.000167198
0.000162905
0.00015795
0.000152588
0.000147171
0.000142093
0.000137277
0.000132474
0.000127481
0.000122198
0.000116585
0.000110659
0.000104477
9.81471e-05
9.18023e-05
8.55109e-05
7.93076e-05
7.30617e-05
6.6485e-05
5.92522e-05
5.08326e-05
4.0415e-05
2.71857e-05
1.19772e-05
0.000247763
0.000242105
0.00023618
0.00023019
0.000224407
0.000219188
0.000215055
0.00021234
0.00021062
0.000209424
0.000208381
0.000207187
0.000205601
0.00020345
0.000200629
0.000197088
0.000192837
0.000187912
0.000182387
0.000176421
0.000170247
0.000164086
0.000157985
0.000151863
0.000145595
0.000139087
0.000132322
0.000125344
0.000118231
0.000111079
0.000103987
9.69444e-05
8.98456e-05
8.25372e-05
7.47595e-05
6.62095e-05
5.63692e-05
4.45255e-05
3.0215e-05
1.44037e-05
0.000279078
0.000273565
0.000267806
0.000261955
0.000256212
0.00025088
0.000246396
0.000243002
0.000240466
0.000238387
0.000236421
0.000234316
0.000231873
0.000228947
0.000225442
0.000221309
0.000216536
0.000211146
0.000205193
0.000198768
0.000192013
0.000185081
0.000178036
0.000170898
0.000163628
0.000156154
0.000148471
0.000140666
0.000132837
0.000125106
0.000117477
0.000109858
0.000102053
9.38782e-05
8.50745e-05
7.52944e-05
6.40688e-05
5.07465e-05
3.48301e-05
1.77766e-05
0.000306727
0.000301477
0.000296019
0.000290476
0.000284994
0.00027979
0.000275139
0.000271202
0.000267942
0.000265139
0.000262458
0.000259659
0.000256566
0.000253053
0.000249041
0.000244483
0.000239362
0.000233686
0.000227486
0.000220818
0.000213759
0.000206399
0.000198812
0.000191001
0.000183046
0.00017489
0.000166543
0.000158199
0.000150015
0.000141997
0.000133995
0.000125793
0.000117215
0.000108038
9.80629e-05
8.69209e-05
7.38541e-05
5.73743e-05
3.54871e-05
2.00551e-05
0.000331407
0.000326483
0.000321396
0.00031624
0.000311119
0.000306155
0.000301511
0.000297282
0.000293512
0.000290152
0.000286964
0.000283699
0.000280173
0.00027628
0.000271956
0.000267162
0.000261876
0.00025609
0.000249817
0.000243085
0.000235935
0.000228415
0.000220573
0.000212483
0.000204183
0.000195704
0.000187168
0.000178678
0.000170324
0.000161973
0.000153432
0.0001445
0.000134873
0.000124325
0.000112532
9.91274e-05
8.33125e-05
6.32304e-05
3.54804e-05
4.68283e-06
0.000353601
0.000349013
0.000344302
0.000339542
0.000334795
0.00033012
0.00032559
0.000321287
0.000317273
0.000313585
0.0003101
0.000306583
0.000302837
0.000298766
0.000294321
0.000289468
0.00028418
0.000278435
0.000272227
0.000265566
0.000258478
0.000250997
0.000243159
0.000234999
0.000226555
0.000218093
0.000209722
0.000201318
0.000192841
0.000184054
0.000174708
0.000164563
0.000153333
0.000140744
0.000126531
0.000110341
9.14207e-05
6.8168e-05
3.71144e-05
4.75401e-06
0.000373633
0.000369343
0.000364962
0.000360543
0.000356124
0.000351734
0.000347408
0.00034321
0.0003392
0.000335424
0.000331804
0.000328217
0.000324439
0.00032037
0.000315967
0.0003112
0.000306037
0.000300447
0.000294405
0.000287906
0.000280969
0.00027363
0.000265909
0.000257829
0.000249485
0.000241237
0.000233095
0.000224895
0.000216355
0.000207117
0.000196896
0.000185388
0.000172306
0.000157302
0.000140048
0.000120282
9.75446e-05
7.06943e-05
3.749e-05
4.76727e-06
0.000391685
0.000387641
0.000383529
0.000379396
0.000375269
0.000371165
0.0003671
0.000363123
0.000359253
0.000355522
0.000351977
0.000348494
0.00034481
0.000340837
0.000336557
0.000331952
0.000326989
0.000321627
0.000315827
0.000309566
0.000302864
0.000295761
0.00028829
0.000280472
0.000272438
0.000264374
0.000256329
0.000248137
0.000239486
0.000229942
0.000219096
0.000206546
0.000191929
0.000174797
0.000154641
0.000131205
0.000104114
7.2802e-05
3.66919e-05
4.73835e-06
0.000407844
0.000404009
0.000400124
0.000396237
0.000392378
0.000388572
0.000384833
0.000381172
0.000377604
0.000374144
0.000370745
0.000367311
0.000363684
0.000359775
0.000355595
0.000351136
0.000346369
0.00034125
0.000335727
0.000329767
0.000323389
0.000316625
0.000309504
0.000302056
0.000294371
0.00028653
0.000278552
0.000270278
0.000261417
0.000251584
0.000240316
0.000227189
0.000211746
0.000193463
0.000171688
0.000145869
0.000115513
8.00838e-05
3.95905e-05
4.88144e-06
0.000422256
0.000418621
0.000414949
0.000411293
0.000407692
0.000404174
0.000400756
0.000397435
0.000394193
0.000390982
0.000387696
0.00038426
0.000380598
0.000376678
0.00037252
0.000368123
0.000363468
0.000358518
0.000353225
0.00034759
0.0003416
0.000335248
0.000328553
0.00032154
0.00031425
0.000306676
0.000298777
0.000290408
0.000281289
0.000271109
0.000259458
0.000245894
0.000229937
0.000211044
0.000188571
0.000161707
0.000129356
9.09726e-05
4.61773e-05
5.34719e-06
0.000435062
0.000431659
0.000428212
0.000424782
0.000421411
0.000418128
0.000414945
0.000411848
0.000408776
0.000405646
0.000402383
0.000398914
0.000395188
0.000391211
0.000387009
0.000382592
0.000377956
0.00037308
0.000367936
0.000362522
0.000356826
0.000350834
0.000344539
0.000337928
0.000330988
0.000323669
0.000315873
0.000307448
0.000298165
0.000287717
0.000275732
0.000261783
0.000245378
0.00022595
0.000202815
0.000175115
0.00014173
0.000101274
5.25643e-05
5.88995e-06
0.000446524
0.000443395
0.000440193
0.000436982
0.000433805
0.000430686
0.000427628
0.000424603
0.000421548
0.000418381
0.000415035
0.000411446
0.000407586
0.000403476
0.000399148
0.000394619
0.000389905
0.000385
0.000379891
0.000374572
0.000369029
0.000363241
0.000357184
0.000350814
0.000344078
0.000336894
0.000329136
0.000320636
0.000311183
0.000300499
0.000288236
0.000273974
0.000257208
0.000237333
0.000213598
0.000185039
0.00015037
0.000107899
5.61552e-05
6.41e-06
0.000457048
0.000454237
0.000451312
0.000448331
0.000445332
0.00044233
0.000439321
0.000436266
0.000433104
0.000429779
0.000426224
0.000422394
0.000418281
0.000413912
0.000409323
0.000404545
0.000399609
0.000394524
0.000389288
0.000383894
0.000378324
0.000372545
0.000366516
0.000360175
0.000353439
0.000346201
0.000338324
0.000329648
0.000319975
0.000309041
0.000296516
0.000281987
0.000264938
0.000244724
0.000220533
0.000191307
0.000155651
0.000111759
5.81638e-05
6.74228e-06
0.000467175
0.000464732
0.000462124
0.000459393
0.000456567
0.000453654
0.000450639
0.00044749
0.000444154
0.000440572
0.000436689
0.000432473
0.000427934
0.000423125
0.00041809
0.000412873
0.000407512
0.000402031
0.000396444
0.000390751
0.000384932
0.000378944
0.000372722
0.000366183
0.000359222
0.00035171
0.000343509
0.000334477
0.00032444
0.000313155
0.000300311
0.000285505
0.000268216
0.000247773
0.00022332
0.000193749
0.000157616
0.000113095
5.87803e-05
6.95372e-06
0.000477549
0.000475485
0.000473212
0.000470745
0.000468092
0.000465251
0.000462204
0.000458913
0.000455327
0.000451389
0.000447054
0.000442306
0.000437177
0.000431725
0.00042602
0.000420112
0.000414067
0.000407931
0.00040173
0.000395477
0.000389158
0.000382716
0.000376053
0.000369047
0.000361572
0.000353499
0.000344702
0.000335059
0.000324425
0.000312598
0.000299298
0.000284142
0.000266619
0.000246054
0.000221578
0.000192083
0.000156143
0.000111996
5.83138e-05
7.02543e-06
0.000488707
0.000487021
0.000485071
0.00048285
0.000480352
0.000477567
0.000474476
0.000471032
0.000467154
0.000462763
0.000457873
0.000452492
0.00044661
0.00044026
0.000433567
0.000426685
0.000419662
0.000412577
0.000405474
0.000398374
0.000391268
0.000384083
0.000376677
0.000368875
0.000360535
0.000351537
0.000341784
0.000331191
0.000319656
0.000307026
0.000293069
0.000277428
0.000259643
0.000239042
0.000214781
0.000185814
0.000150821
0.000108172
5.65799e-05
6.96931e-06
0.000500893
0.000499576
0.000497925
0.000495912
0.000493531
0.000490782
0.000487653
0.000484071
0.000479876
0.000474991
0.000469506
0.000463439
0.000456658
0.000449186
0.000441239
0.000433034
0.000424714
0.000416348
0.00040802
0.000399767
0.00039155
0.000383281
0.000374767
0.00036579
0.000356157
0.000345774
0.0003346
0.000322613
0.000309769
0.00029599
0.000281123
0.000264885
0.000246802
0.000226218
0.000202361
0.000174336
0.000141035
0.000101038
5.31075e-05
6.76348e-06
0.000514005
0.000513075
0.000511704
0.000509848
0.00050752
0.000504745
0.000501541
0.000497852
0.000493391
0.00048796
0.000481857
0.000475059
0.000467244
0.000458499
0.000449207
0.00043954
0.00042965
0.00041983
0.000410099
0.000400399
0.000390695
0.000380925
0.000370933
0.000360377
0.000348981
0.00033667
0.000323518
0.000309606
0.000294971
0.000279622
0.000263548
0.000246578
0.000228186
0.000207652
0.000184277
0.000157407
0.000126237
8.95792e-05
4.66266e-05
6.43753e-06
0.00052764
0.00052718
0.00052609
0.00052431
0.000521948
0.000519087
0.000515785
0.000511958
0.000507157
0.000501229
0.000494613
0.000487224
0.000478512
0.000468529
0.00045773
0.000446397
0.000434897
0.000423478
0.000412211
0.000400976
0.000389569
0.000378012
0.000366194
0.000353754
0.000340284
0.000325642
0.000310045
0.000293728
0.000276815
0.000259435
0.000242001
0.000224646
0.00020629
0.000186116
0.000163579
0.000138511
0.000110504
7.84424e-05
4.13198e-05
6.00938e-06
0.000541261
0.000541374
0.000540582
0.000538844
0.000536467
0.000533504
0.000529946
0.000525772
0.000520679
0.00051459
0.000507617
0.000499419
0.000489683
0.000478722
0.000466811
0.000454146
0.000441186
0.000428307
0.000415595
0.000402744
0.000389623
0.000376414
0.000363062
0.000349228
0.000333955
0.000316885
0.000298922
0.000280279
0.000261099
0.000241798
0.000222929
0.000205169
0.000187431
0.000167972
0.000146718
0.000123863
9.92648e-05
7.1257e-05
3.79637e-05
5.69503e-06
0.000554549
0.000555315
0.000554917
0.000553276
0.000550851
0.00054779
0.00054402
0.000539613
0.000534444
0.000528233
0.000520682
0.000511652
0.000501192
0.000489498
0.000476798
0.000463414
0.000449889
0.000436637
0.000423485
0.00040984
0.000395711
0.000381519
0.000367154
0.000351966
0.000335013
0.000316538
0.0002975
0.0002776
0.000256862
0.000235691
0.000214584
0.000195026
0.000176849
0.000158306
0.000138492
0.000117719
9.58856e-05
7.07249e-05
3.90924e-05
6.01099e-06
0.000567217
0.00056846
0.000568718
0.000567606
0.000565421
0.000562508
0.000558871
0.000554496
0.000549224
0.000542727
0.000534762
0.000525298
0.000514437
0.000502411
0.000489567
0.000476398
0.000463554
0.00045148
0.00043953
0.00042698
0.000414265
0.000401363
0.000387662
0.000371951
0.000353794
0.000333942
0.000312806
0.000290589
0.00026743
0.000243337
0.000218662
0.000194353
0.000170996
0.000148794
0.000127478
0.000106775
8.69014e-05
6.65152e-05
4.15287e-05
7.41496e-06
0.000579951
0.000581702
0.000582595
0.000582299
0.00058093
0.000578639
0.000575439
0.000571322
0.000566122
0.000559611
0.000551673
0.000542306
0.000531673
0.000520118
0.000508104
0.000496173
0.000484844
0.000474372
0.000464618
0.000455252
0.000445502
0.000434361
0.00042097
0.000405024
0.000386655
0.000366309
0.000344304
0.000320713
0.000295339
0.000267823
0.000237892
0.000205836
0.000172584
0.000139291
0.000107944
8.05174e-05
5.77734e-05
3.86807e-05
2.25779e-05
7.78213e-06
0.000593668
0.000596101
0.000597809
0.000598552
0.000598245
0.000596867
0.000594397
0.000590841
0.000586102
0.000580052
0.000572693
0.000564068
0.000554394
0.000544058
0.00053357
0.000523461
0.000514172
0.000505755
0.000497985
0.000490522
0.000482538
0.000472867
0.000460608
0.00044552
0.000427757
0.00040777
0.000386133
0.000362809
0.000337233
0.000308828
0.000277078
0.000241379
0.000201139
0.000156518
0.000109943
6.79341e-05
3.91976e-05
2.44462e-05
1.83816e-05
1.21738e-05
0.000609038
0.000612344
0.000615065
0.000616918
0.000617749
0.000617481
0.000616018
0.000613339
0.000609431
0.000604232
0.000597815
0.000590299
0.000581897
0.000572974
0.000564021
0.000555543
0.000547784
0.000540483
0.000533412
0.00052637
0.000518701
0.000509507
0.000498199
0.000484683
0.000468963
0.000450995
0.000431135
0.000409757
0.000386234
0.000360352
0.000331952
0.000300428
0.000264553
0.000223787
0.000178714
0.000131013
8.32942e-05
4.49147e-05
2.71936e-05
1.49158e-05
0.000626123
0.000630409
0.000634168
0.000637162
0.000639192
0.000640134
0.000639893
0.000638411
0.000635658
0.000631622
0.000626343
0.000620036
0.000612866
0.000605111
0.000597157
0.000589382
0.000581906
0.000574464
0.00056674
0.000558438
0.000549098
0.000538415
0.000526494
0.000513754
0.000500976
0.000488211
0.000472932
0.000454017
0.000432486
0.000409353
0.000384625
0.00035774
0.000326711
0.000290448
0.000248546
0.000201622
0.000152515
9.97314e-05
6.6544e-05
1.67113e-05
0.000644074
0.000649603
0.000654576
0.000658822
0.00066215
0.000664425
0.000665552
0.000665459
0.0006641
0.00066146
0.000657561
0.000652499
0.000646495
0.000639704
0.00063234
0.000624625
0.000616625
0.000608089
0.000598558
0.000587704
0.000575391
0.000561683
0.000546955
0.000531858
0.000517283
0.000504151
0.000492511
0.000480034
0.000465587
0.000447329
0.000425128
0.000399013
0.000369451
0.000336053
0.000296919
0.000249131
0.000191943
0.000131032
8.39033e-05
1.78722e-05
0.000662816
0.000669707
0.000675979
0.000681519
0.000686174
0.000689831
0.000692395
0.000693793
0.00069397
0.000692891
0.000690547
0.000686948
0.000682218
0.000676483
0.00066981
0.000662246
0.000653722
0.000643957
0.000632563
0.00061925
0.000603943
0.000586818
0.000568301
0.000549016
0.000529659
0.000510816
0.000492776
0.000475611
0.000459916
0.000445355
0.000430182
0.00041028
0.000385944
0.000357132
0.000323281
0.000282762
0.000231759
0.000166696
0.000102158
1.76545e-05
0.000682099
0.000690233
0.000697751
0.000704554
0.000710514
0.000715535
0.000719538
0.000722454
0.000724226
0.000724806
0.00072416
0.000722259
0.000719079
0.000714706
0.000709125
0.000702247
0.000693845
0.00068355
0.000671002
0.000655996
0.000638543
0.000618848
0.000597267
0.000574265
0.000550342
0.000525948
0.000501454
0.000477214
0.000453615
0.00043075
0.000408324
0.000386146
0.000365499
0.000345685
0.000322423