/*--------------------------------*- C++ -*----------------------------------*\
  =========                 |
  \\      /  F ield         | OpenFOAM: The Open Source CFD Toolbox
   \\    /   O peration     | Website:  https://openfoam.org
    \\  /    A nd           | Version:  8
     \\/     M anipulation  |
\*---------------------------------------------------------------------------*/
FoamFile
{
    version     2.0;
    format      ascii;
    class       volScalarField;
    location    "3.7";
    object      p_rgh;
}
// * * * * * * * * * * * * * * * * * * * * * * * * * * * * * * * * * * * * * //

dimensions      [1 -1 -2 0 0 0 0];

internalField   nonuniform List<scalar> 
9150
(
2550.75
2523.71
2498.27
2481.07
2472.76
2472.76
2481.05
2498.24
2523.69
2550.73
2541.53
2521.92
2506.31
2494.5
2488.53
2488.53
2494.49
2506.3
2521.9
2541.51
2531.86
2518.24
2509.76
2501.98
2497.88
2497.88
2501.97
2509.74
2518.22
2531.85
2526.8
2516.68
2511.29
2505.9
2502.94
2502.94
2505.89
2511.28
2516.67
2526.78
2525.15
2516.09
2511.6
2507.41
2504.97
2504.97
2507.41
2511.59
2516.08
2525.14
2085.68
2082.29
2107.3
2121.35
2128.01
2127.94
2121.14
2106.98
2081.86
2085.09
2275.5
2251.59
2246.22
2244.95
2245.09
2245.05
2244.84
2246.05
2251.37
2275.28
2399.29
2368.31
2352.51
2342.61
2337.98
2337.96
2342.55
2352.42
2368.19
2399.19
2499.47
2457.65
2430.04
2412.67
2404.18
2404.16
2412.63
2429.99
2457.59
2499.42
2570.9
2517.59
2478.98
2456.92
2446.78
2446.77
2456.9
2478.95
2517.56
2570.88
1904.22
1943.89
1932.91
1941.02
1936.22
1935.28
1940.48
1931.4
1940.09
1897.2
1931.42
1950.34
1931.34
1939.79
1934.7
1933.94
1939.68
1928.6
1947.88
1926.52
1910.27
1940.49
1907.38
1916.69
1918.84
1918.5
1916.42
1905.54
1938.56
1907.15
1750.8
1875.63
1889.52
1909.17
1925.46
1925.31
1908.63
1888.17
1874.65
1748.31
1618.71
1862.5
1957.19
1987.35
2003.38
2003.27
1986.98
1956.57
1861.81
1616.96
1775.13
1774.92
1774.71
1774.5
1774.3
1774.09
1773.88
1773.69
1773.5
1773.32
1775.07
1774.87
1774.66
1774.45
1774.25
1774.04
1773.84
1773.64
1773.45
1773.28
1775.05
1774.85
1774.65
1774.45
1774.25
1774.06
1773.87
1773.68
1773.51
1773.34
1775.07
1774.88
1774.69
1774.5
1774.3
1774.1
1773.92
1773.74
1773.56
1773.4
1775.12
1774.94
1774.75
1774.56
1774.38
1774.19
1774.01
1773.85
1773.67
1773.5
1775.2
1775.03
1774.84
1774.67
1774.5
1774.34
1774.18
1774.02
1773.85
1773.68
1775.29
1775.14
1774.98
1774.82
1774.66
1774.52
1774.37
1774.23
1774.09
1773.95
1775.4
1775.26
1775.12
1774.98
1774.84
1774.71
1774.58
1774.47
1774.36
1774.26
1775.55
1775.41
1775.27
1775.14
1775
1774.89
1774.78
1774.7
1774.62
1774.56
1775.8
1775.62
1775.45
1775.28
1775.13
1775.01
1774.93
1774.75
1774.69
1774.72
1776.06
1775.84
1775.6
1775.37
1775.15
1775.01
1774.96
1774.81
1774.88
1775
1776.37
1776.07
1775.73
1775.34
1774.77
1774.6
1774.67
1774.95
1775.19
1775.4
1776.76
1776.41
1775.94
1775.31
1774.22
1742.14
1761.12
1775.12
1775.71
1775.99
1777.54
1777.39
1777.05
1773.92
1729.78
1715.73
1714.74
1753.6
1777.4
1777.44
1778.78
1778.76
1778.79
1755.49
1710.39
1710.8
1710.71
1710.24
1754.59
1778.75
1779.86
1780.05
1780.37
1767.82
1713.54
1708.09
1708.19
1707.81
1746.64
1780.27
1780.69
1780.98
1781.42
1781.21
1757.46
1714.29
1707.56
1720.24
1769.92
1781.13
1781.01
1781.19
1781.43
1781.73
1781.52
1766.88
1755.32
1774.17
1781.36
1781.31
1781.27
1781.43
1781.61
1781.8
1781.96
1782.08
1782.15
1782.02
1781.93
1781.85
1781.45
1781.59
1781.74
1781.91
1782.07
1782.2
1782.29
1782.36
1782.39
1782.39
1781.55
1781.66
1781.86
1782.03
1782.22
1782.4
1782.55
1782.68
1782.82
1782.94
1781.54
1781.67
1781.91
1782.1
1782.34
1782.61
1782.8
1782.9
1782.97
1782.02
1781.46
1781.6
1781.79
1781.95
1782.26
1782.92
1782
1766.36
1766.8
1769.71
1781.37
1781.57
1781.71
1781.49
1743.52
1726.53
1781.89
1778.47
1771.41
1757.28
1780.04
1781.14
1782.61
1725.68
1711.56
1711.33
1777.08
1779.7
1779.37
1715.61
1584.91
1582.13
1703.71
1742.77
1755.13
1765.57
1776.89
1775.8
1666.01
1637.16
1526.98
1529.64
1684.18
1784.88
1785.01
1784.72
1748.15
1634.01
1632.71
1634.24
1516.28
1574.06
1785.35
1787.76
1788.23
1750.84
1626.34
1628.51
1629.67
1630.71
1547.4
1778.11
1792.27
1791.74
1776.59
1648.65
1624.49
1624.97
1626
1626.77
1773.43
1795.65
1794.82
1794.62
1732.6
1623.01
1622.07
1641.53
1742.97
1640.26
1798.48
1797.3
1796.43
1795.81
1733.03
1629.13
1648.52
1795.22
1794.43
1687.96
1797.95
1797.37
1796.97
1796.67
1753.36
1701.91
1771.58
1800.02
1795.1
1693.33
1797.27
1796.94
1796.72
1791.99
1785.55
1797.2
1797.6
1796.66
1791.22
1690.69
1795.97
1795.69
1794.93
1793.3
1795.19
1795.15
1794.73
1794.36
1787.8
1686.62
1794.32
1793.9
1793.25
1792.99
1792.55
1791.88
1791.04
1789.86
1732.07
1681.07
1792.56
1792.03
1791.44
1790.8
1789.99
1788.99
1787.72
1748.28
1675.85
1677.74
1790.74
1790.14
1789.48
1788.73
1787.88
1786.91
1769.47
1665.79
1666.92
1694.29
1788.85
1788.17
1787.4
1786.49
1785.41
1783.52
1707.71
1659.25
1658.46
1712.8
1786.9
1786.21
1785.42
1784.55
1783.54
1751.29
1651.71
1652.34
1651.78
1713.63
1784.83
1784.15
1783.36
1782.48
1779.18
1690.56
1647.37
1647.16
1646.7
1713.41
1782.68
1781.96
1781.18
1780.34
1769.26
1654.24
1642.82
1642.39
1641.71
1741.4
1780.32
1779.59
1778.83
1778.07
1770.47
1664.32
1638.88
1638.11
1664.86
1774.91
1777.71
1776.96
1776.31
1775.66
1774.57
1723.37
1635.79
1635.82
1743.82
1771.53
1774.7
1773.62
1772.93
1772.52
1770.08
1762.27
1722.7
1722.05
1768.51
1767.43
1770.77
1727.63
1551.05
1699.85
1765.9
1765.85
1765.76
1765.35
1764.38
1763.68
1636.24
1320.42
1276.08
1492.34
1764.07
1763.13
1762.63
1761.92
1760.98
1760.45
1244.23
1245.08
1249.36
1397.61
1764.26
1762.3
1761.15
1759.59
1758.75
1524.65
1228.2
1231.29
1232.4
1496.14
1763.83
1761.6
1759.94
1758.04
1482.32
972.032
1218.63
1219.22
1269.79
1740.52
1763.81
1761.56
1758.92
1489.44
949.621
950.143
1209.65
1209.92
1511.57
1764.42
1763.55
1760.62
1515.4
939.405
933.475
936.685
1200.95
1368.83
1760.93
1759.55
1762.43
1521.96
935.094
917.993
920.866
923.153
1396.66
1737.8
1750.1
1756.78
1290.36
918.575
904.313
906.603
907.025
1212.96
1682.38
1717.75
1557.54
1119.12
897.474
897.241
894.899
920.889
1462.45
1756.32
1618.85
1158.41
929.233
895.022
893.005
887.419
1126.32
1569.18
1776.76
1775.03
1008.23
902.926
902.211
894.288
959.194
1415.18
1730.18
1774.45
1772.85
1772.16
900.363
898.154
890.659
1271.97
1628.52
1768.78
1771.31
1771.01
1770.58
1770.08
891.615
1088.64
1505.29
1752.5
1765.36
1760.36
1768.55
1768.87
1768.69
1768.43
1374.93
1701.89
1764.99
1765.26
1762.22
1756.67
1757.86
1766.14
1767.59
1767.71
1758.58
1761.73
1763
1764.2
1763.74
1758.65
1759.23
1765.2
1767.73
1768.33
1760.69
1763.14
1764.61
1765.38
1765.77
1766.22
1767.2
1768.57
1770
1770.88
1775.92
1775.29
1773.2
1770.92
1768.81
1768.09
1769.67
1772.39
1774.41
1775.63
1680.98
1790.65
1785.46
1778.57
1772.46
1765.82
1759.76
1768.09
1782.1
1784.38
1373.23
1810.27
1808.21
1757.07
1170.93
872.328
970.02
1595.27
1802.08
1799.81
976.365
1656.41
1484.99
924.706
870.889
872.558
927.973
1581.66
1814.97
1810.73
647.232
722.976
733.896
740.545
883.942
1645.02
1826.81
1823.29
1820.79
1817.71
543.613
627.967
1084.45
1769.74
1831.86
1830.24
1831.16
1831.75
1830.51
1827.48
1182.35
1774.81
1835.73
1838.98
1842.29
1845.06
1846.36
1845.9
1843.81
1833.7
1841.84
1845.74
1851.74
1856.95
1860.47
1862.23
1862.69
1862.03
1786.38
1504.67
1859.88
1866.26
1871.86
1876.09
1878.75
1879.96
1827.89
1677.55
1353.8
1348.52
1877.63
1883.79
1889.03
1893.39
1894.37
1781.91
1374.36
1368.52
1362.64
1350.79
1887.66
1894.04
1900.52
1875.4
1600.51
1371.78
1376.98
1368.97
1383.85
1655.56
1884.92
1893.2
1827.23
1431.3
1365.28
1363.26
1398.27
1696.84
1881.29
1856.8
1864.13
1742.57
1303.25
1302.74
1384.78
1671.09
1897.15
1878.83
1856.64
1832.36
1668.37
964.646
1020.47
1494.46
1898.3
1889
1873.42
1855.99
1834.43
1808.49
931.847
579.539
1209.65
1877.61
1879.13
1868.04
1853.01
1834.07
1810.77
1783.61
417.385
515.184
1235.08
1838.89
1862.25
1848.56
1831.41
1811.27
1787.4
1760.29
307.193
371.773
920.376
1790.21
1847.65
1830.34
1811.14
1790.46
1766.81
1740.51
284.815
285.523
792.149
1767.18
1827.7
1810.91
1792.46
1772.8
1750.75
1726.5
259.48
263.454
878.005
1783.95
1809.68
1794.66
1777.83
1759.61
1739.58
1718.13
252.877
252.452
1209.05
1806.42
1799.26
1785.05
1769.07
1751.41
1731.84
1710.03
251.392
249.906
1478.52
1806.65
1796.17
1782.52
1767.58
1751.43
1733.91
1714.85
245.198
497.712
1682.9
1806.51
1796.28
1783.89
1770.5
1756.5
1741.99
1727.92
220.09
824.208
1786.64
1812.23
1800.27
1787.62
1774.64
1761.71
1749.11
1738.95
213.006
1204.65
1826.39
1815.25
1803.45
1790.67
1777.46
1764.2
1751.07
1739.41
211.81
1529.28
1830.39
1818.4
1806.52
1793.56
1780.22
1767.01
1754.13
1741.42
484.131
1724.41
1832.52
1820.04
1807.81
1794.88
1781.59
1768.56
1755.83
1740.61
732.337
1798.37
1830.18
1818.32
1806.72
1794.55
1781.77
1768.94
1755.17
1664.55
881.91
1817.46
1825.24
1815.44
1805.44
1794.57
1782.73
1770.24
1755.76
1482.66
983.956
1823.29
1823.18
1815.72
1807.2
1797.36
1786.34
1774.25
1760.08
1377.71
1089.55
1836.81
1829.29
1821
1812.63
1803.35
1793.2
1782.12
1769.73
1299.85
1181.77
1838.5
1832.06
1825.39
1818.45
1810.58
1801.89
1792.39
1782.33
1257.45
1227.81
1840.5
1836.13
1831.13
1825.72
1819.37
1812.24
1804.38
1796.56
1245.73
1254.56
1843.42
1841.09
1837.88
1834.15
1829.42
1823.85
1817.62
1810.82
1255.81
1273.15
1846.6
1847.28
1846.35
1844.29
1841.04
1836.8
1831.86
1827.52
1319.33
1316.64
1855.22
1857.01
1857.59
1856.6
1854.43
1851.08
1847.06
1844.14
1383.89
1403.6
1867.49
1869.48
1870.36
1869.9
1868.58
1865.93
1862.56
1860.24
1466.05
1501.01
1880.36
1882.65
1883.08
1883.12
1882.44
1880.12
1877.13
1874.46
1552.58
1602.75
1893.64
1896.91
1896.8
1897.51
1897.1
1894.48
1892.47
1887.18
1637.11
1711.21
1916.57
1916.65
1913.98
1913.4
1913
1912.08
1915.8
1912.01
1723.22
1816.95
1947.87
1935.01
1930.46
1927.15
1926.52
1929.24
1935.9
1947.06
1814.7
1773.14
1772.96
1772.79
1772.63
1772.48
1772.32
1772.14
1771.95
1771.74
1771.54
1771.35
1771.16
1770.98
1770.83
1770.67
1770.52
1770.38
1770.25
1770.13
1770.02
1769.92
1769.81
1769.71
1769.6
1769.51
1769.41
1769.32
1769.23
1769.16
1769.1
1769.06
1769.03
1769.01
1768.99
1768.99
1769
1769.01
1769.02
1769.04
1769.06
1773.12
1772.97
1772.85
1772.74
1772.64
1772.53
1772.39
1772.21
1771.99
1771.74
1771.49
1771.24
1771.02
1770.82
1770.63
1770.47
1770.33
1770.21
1770.11
1770.04
1769.97
1769.88
1769.77
1769.65
1769.53
1769.41
1769.3
1769.2
1769.11
1769.05
1768.9
1768.88
1769.03
1769.04
1769.04
1769.04
1769.05
1769.06
1769.07
1769.08
1773.19
1773.04
1772.92
1772.81
1772.71
1772.6
1772.46
1772.28
1772.07
1771.83
1771.56
1771.33
1771.09
1770.9
1770.7
1770.52
1770.36
1770.23
1770.1
1769.97
1769.85
1769.83
1769.79
1769.7
1769.6
1769.5
1769.41
1769.33
1768.82
1768.67
1768.71
1768.63
1768.47
1768.78
1769.14
1769.1
1769.09
1769.09
1769.09
1769.1
1773.23
1773.07
1772.92
1772.77
1772.63
1772.48
1772.33
1772.19
1772.03
1771.83
1771.62
1771.4
1771.2
1771
1770.81
1770.64
1770.47
1770.3
1770.12
1768.87
1768.11
1768.31
1769.97
1769.87
1769.76
1769.67
1769.59
1769.54
1769
1768.51
1768.47
1768.32
1768.78
1768.22
1768.11
1768.05
1768.59
1768.79
1768.67
1768.86
1773.31
1773.11
1772.91
1772.7
1772.41
1771.58
1771.17
1771.89
1771.95
1771.85
1771.69
1771.51
1771.34
1771.16
1770.99
1770.84
1770.73
1770.63
1768.55
1766.88
1766.84
1766.56
1766.52
1769.48
1769.9
1769.83
1769.78
1769.67
1769.54
1769.33
1769.17
1769.45
1769.99
1768.76
1767.93
1767.89
1767.86
1767.91
1767.97
1767.98
1773.51
1773.33
1773.15
1772.95
1771.54
1764.23
1763.61
1765.36
1771.76
1772.05
1771.89
1771.71
1771.54
1771.36
1771.2
1771.07
1770.98
1770.92
1770.91
1768.02
1766.2
1766.08
1765.89
1765.9
1769.38
1770
1769.81
1769.71
1769.79
1769.82
1769.86
1769.88
1769.92
1769.89
1768.71
1768.23
1768.62
1768.6
1768.4
1768.32
1773.81
1773.68
1773.57
1772.56
1762.38
1761.66
1761.49
1760.98
1762.97
1771.18
1772.17
1771.97
1771.77
1771.57
1771.42
1771.29
1771.22
1771.17
1771.18
1771.03
1770.19
1765.92
1765.5
1765.54
1769.73
1770.13
1769.86
1769.69
1769.22
1767.8
1767.35
1767.92
1768.9
1769.1
1769.2
1769.21
1769.62
1769.77
1769.83
1769.91
1774.16
1774.08
1774.05
1774.07
1765.21
1760.29
1760.16
1759.84
1759.38
1768.65
1772.53
1772.23
1771.99
1771.79
1771.61
1771.47
1771.34
1771.24
1771.16
1771.1
1770.99
1770.14
1768.08
1769.1
1770.38
1770.43
1769.48
1764.56
1764.64
1764.89
1764.67
1767.78
1767.72
1764.31
1764.44
1764.22
1763.77
1767.29
1769.84
1770.19
1774.51
1774.47
1774.49
1774.58
1774.36
1767.21
1759.09
1758.87
1761.47
1772.44
1772.83
1772.43
1772.17
1771.97
1771.78
1771.61
1771.45
1771.3
1771.16
1771.05
1770.89
1770.71
1770.56
1770.22
1769.77
1769.82
1770.17
1767.03
1769.1
1769.91
1770.26
1770.37
1770.28
1769.07
1766.95
1766.85
1763.19
1767.08
1769.45
1769.85
1774.77
1774.73
1774.68
1774.64
1774.57
1774.26
1769.01
1767.74
1772.41
1773.33
1772.49
1772.24
1772.16
1772.05
1771.9
1771.71
1771.47
1771.31
1771.19
1771.08
1770.86
1770.16
1767.85
1760.8
1747.11
1751.38
1757.38
1766.42
1770.22
1770.36
1770.47
1770.54
1770.53
1770.43
1770.27
1769.87
1765.62
1751.85
1742.09
1745.05
1775.08
1775.06
1775
1774.9
1774.75
1774.32
1774.15
1773.98
1772.73
1753.79
1753.69
1768.98
1771.98
1772.12
1772.09
1771.97
1770.98
1770.79
1771.43
1771.44
1771.35
1771.26
1753.44
1738.52
1738.45
1737.84
1737.26
1741.15
1765.34
1770.83
1770.97
1771.03
1771.11
1771.22
1771.26
1770.26
1747.56
1739.25
1739.34
1739.54
1775.49
1775.5
1775.44
1775.32
1775.12
1774.75
1768.58
1750.46
1732.09
1728.3
1728.42
1733.37
1763.09
1772.88
1772.75
1772.55
1771.58
1769.66
1771.17
1771.88
1772
1772.18
1765.49
1736.64
1736.51
1736.16
1735.85
1735.57
1738.05
1766.82
1771.7
1771.72
1771.83
1772.06
1772.37
1772.71
1768.26
1739.22
1738.52
1738.48
1776.16
1776.24
1776.19
1776.19
1776.18
1776.12
1750.58
1726.42
1726.37
1726.27
1726.06
1725.64
1750.21
1774.32
1773.81
1773.39
1773.03
1768.26
1759.63
1769.31
1772.72
1773.19
1773.81
1765.11
1749.92
1733.95
1734.14
1734.22
1735.43
1768.1
1772.47
1772.45
1772.54
1772.72
1773.06
1773.67
1774.31
1767.05
1748.95
1744.48
1777.41
1777.34
1776.85
1776.9
1777.29
1776.95
1767.24
1744.3
1724.56
1724.7
1724.07
1740.23
1772.57
1775.33
1774.65
1774.12
1773.68
1762.78
1752.94
1752.32
1763.52
1773.85
1774.19
1774.75
1774.41
1768.81
1756.13
1748.73
1759.35
1771.74
1772.46
1772.75
1772.85
1773.04
1773.26
1773.62
1774.18
1774.67
1773.97
1772.68
1778.6
1778.07
1777.73
1777.62
1777.98
1778.02
1778.28
1776.57
1763.26
1754.6
1761.14
1775.03
1776.33
1775.64
1775.07
1774.71
1773.51
1752.05
1751.15
1750.93
1750.66
1750.44
1755.09
1767.66
1774.13
1774.3
1774.33
1774
1773.63
1773.14
1772.99
1772.95
1772.7
1772.75
1772.92
1773.26
1773.84
1773.78
1774.11
1773.77
1779.85
1779.04
1778.6
1778.4
1778.36
1778.67
1778.58
1778.47
1778.3
1777.97
1777.47
1776.84
1776.12
1770.31
1771.15
1774.94
1773.92
1763.13
1757.84
1751.25
1749.58
1749.68
1749.64
1749.6
1749.66
1749.77
1753.82
1767.92
1773.55
1773.24
1773.02
1772.89
1772.84
1772.53
1772.57
1772.8
1773.21
1772.48
1771.04
1773.08
1780.71
1780.09
1779.35
1779.07
1779.02
1779.15
1778.89
1778.61
1778.28
1777.88
1777.42
1773.46
1769.33
1768.81
1768.25
1767.71
1769.67
1772.1
1772.08
1771.52
1768.25
1763.41
1762.08
1764.56
1768.54
1761.94
1754.26
1763.56
1773.04
1772.91
1772.78
1772.69
1772.62
1772.54
1772.27
1772.58
1772.79
1771.36
1770.37
1772.67
1781.11
1780.79
1780.02
1779.75
1779.96
1779.63
1779.26
1778.86
1778.44
1777.99
1777.05
1774.26
1773.27
1768.57
1767.63
1767.03
1766.44
1766.91
1770.99
1773.74
1773.72
1773.53
1773.44
1773.46
1773.47
1773.19
1770.75
1771.34
1772.58
1772.7
1772.53
1772.43
1772.35
1772.35
1772.36
1772.41
1772.5
1771.85
1769.57
1770.07
1781.72
1781.51
1781.21
1780.92
1780.61
1780.18
1779.7
1779.11
1777.52
1776.4
1776.6
1776.03
1775.33
1774.19
1773.37
1772.22
1765.22
1758.52
1760.84
1772.27
1772.8
1772.64
1772.66
1772.77
1772.84
1772.88
1772.87
1772.81
1772.75
1772.69
1772.54
1772.39
1772.29
1772.3
1772.27
1772.22
1772.28
1772.32
1768.76
1768.96
1782.35
1782.25
1782.07
1781.78
1781.39
1780.85
1775.76
1772.62
1772.15
1772.81
1777.15
1771.98
1768.66
1770.89
1773.13
1767.16
1754.04
1762.6
1772.53
1772.05
1771.51
1770.97
1771.21
1770.01
1770.5
1771.26
1771.93
1772.63
1772.87
1772.87
1772.77
1772.6
1772.48
1772.4
1772.26
1772.15
1772.14
1772.17
1768.03
1768.28
1783.03
1783.05
1783.03
1782.69
1780.64
1774.02
1773.5
1772.99
1776.86
1774.4
1768.97
1765.24
1770.86
1771.91
1765.13
1742.45
1736.52
1743.69
1746.3
1739.71
1736.49
1737.18
1740.55
1769.3
1771
1771.64
1772.72
1773.18
1773.25
1773.25
1773.16
1772.97
1772.76
1772.62
1772.49
1772.36
1772.32
1772.16
1768.02
1767.76
1779.02
1779.4
1782.59
1784
1783.15
1779.39
1778.36
1777.84
1779.12
1770
1708.65
1686.99
1745.07
1745.43
1686.06
1683.03
1681.33
1680.1
1679.51
1682.35
1758.63
1769.42
1769.71
1771.33
1772.41
1773.13
1773.58
1773.77
1773.88
1773.96
1773.86
1773.51
1773.13
1772.99
1772.99
1772.98
1772.87
1772.63
1771.45
1770.06
1784.53
1785.33
1785.89
1785.92
1785.99
1766.93
1684.87
1679.89
1705.83
1781.27
1693.76
1675.19
1675.5
1673.59
1687.54
1762.21
1777.34
1775.11
1773.01
1772.24
1773.27
1771.16
1769.2
1769.1
1771.62
1773.67
1774.11
1774.08
1774.24
1774.19
1772.42
1771.06
1773.31
1773.16
1773.51
1772.39
1771.83
1773.02
1772.43
1771.93
1770.08
1770.88
1781.63
1780.13
1693.11
1675.95
1676.94
1676.24
1706.03
1777.49
1689.88
1675.73
1769.63
1784.75
1782.48
1779.14
1762.58
1724.52
1701.43
1694.81
1673.39
1598.63
1515.67
1488.67
1562.6
1720.64
1776.88
1776.77
1765.98
1752.47
1757.16
1737.26
1720.5
1763.61
1773.43
1773.76
1765.96
1758.73
1759.97
1753.18
1644.18
1644.91
1717.69
1753.28
1675.9
1675.21
1739.69
1787.04
1716.64
1706.07
1707.77
1785.06
1790.31
1788.99
1787.34
1784.64
1646.25
1427.61
1428.08
1427.74
1427.87
1428.26
1428.99
1429.79
1430.52
1432.14
1434.67
1440.34
1473.65
1599.35
1703.24
1682.71
1574.52
1571.93
1603.42
1683.43
1718.12
1702.97
1664.38
1656.27
1639.16
1640.17
1641.54
1658.45
1774.34
1784.03
1784.63
1784.95
1777.63
1722.25
1744.71
1793.71
1793.47
1793.6
1794.32
1794.18
1622.1
1429.87
1425.22
1430.32
1449.41
1452.91
1445.57
1462.34
1583.74
1712.42
1758.9
1763.76
1735.89
1660.25
1588.85
1575.37
1572.76
1568.26
1563.1
1560.28
1558.25
1558.05
1557.43
1620.64
1635.66
1636.83
1654.02
1776.05
1787.03
1771.61
1738.43
1739.09
1740.93
1792.47
1795.6
1794.89
1794.69
1794.66
1795.14
1796.49
1783.26
1765.1
1761.73
1782.82
1807.92
1810.28
1806.5
1803.03
1800.67
1799.12
1797.09
1795.58
1794.35
1792.5
1790.22
1788.79
1771.4
1766.09
1761.31
1703.07
1624.47
1618.38
1669.98
1671.97
1631.7
1657.13
1789.06
1795.75
1784.35
1738.27
1738.79
1738.76
1784.78
1795.22
1795.01
1794.73
1794.39
1793.67
1774.57
1716.94
1711.14
1786.82
1801.66
1805.59
1805.97
1805.2
1803.59
1793.25
1787.45
1794.73
1793.64
1793.61
1793.1
1792.28
1791.76
1792.16
1793.25
1794.32
1795.25
1795.23
1735.53
1635.24
1616.17
1665.43
1641.23
1783.93
1796.86
1795.99
1789.65
1755.65
1756.96
1794.94
1794.62
1794.58
1794.67
1794.81
1794.94
1793.49
1707.61
1651.15
1651.87
1651.78
1654.14
1752.94
1785.66
1799.94
1804.86
1789.3
1672.7
1629.93
1729.55
1782.61
1791.4
1790.66
1790.15
1790.79
1791.18
1790.96
1786.41
1720.55
1588.63
1491.2
1407.3
1532.63
1655.12
1794.28
1795.43
1794.49
1791.91
1791.38
1792.6
1793.05
1793.01
1793.13
1793.4
1793.88
1794.7
1795.97
1746.96
1647.77
1648.22
1650.14
1652.32
1656.15
1758.17
1809
1811.07
1810.3
1643.73
1419.49
1402.2
1470.56
1538.85
1557.91
1570.93
1583.25
1561.05
1537.71
1489.38
1435.6
1440.26
1370.42
1267.36
1380.76
1652.35
1779.08
1791.39
1791.36
1791.16
1791.01
1790.75
1790.53
1790.43
1790.45
1790.8
1791.5
1792.55
1794.2
1796.58
1799.11
1757.97
1656.65
1671.98
1791.31
1805.59
1808.86
1813.08
1818.25
1822.2
1636.5
1388.12
1292.1
1269.48
1260.8
1254.15
1248.3
1241.09
1238.48
1236.81
1235.88
1235.22
1235.78
1236.15
1455.45
1650.56
1777.51
1788.89
1788.64
1788.34
1787.96
1787.58
1787.13
1786.43
1786.39
1786.91
1787.3
1787.95
1788.97
1790.52
1792.42
1794.26
1795.52
1796.85
1798.92
1802.09
1805.77
1809.89
1814.68
1820.22
1825.95
1828.68
1695.92
1468.84
1358.56
1269.13
1244.78
1239.11
1237.13
1235.89
1235.03
1234.47
1234.4
1234.36
1548.83
1648.89
1774.9
1786.42
1785.93
1785.4
1784.75
1783.3
1782.57
1782.08
1782.54
1782.46
1782.38
1782.3
1781.56
1782.36
1784.65
1786.36
1788.23
1790.5
1793.3
1796.63
1800.35
1804.18
1805.56
1808.23
1815.18
1820.58
1825.06
1830.78
1834.12
1648.76
1474.87
1332.36
1252.52
1233.37
1233.25
1233.08
1232.81
1232.24
1565.99
1649.68
1785.05
1784.09
1783.39
1782.59
1780.96
1779.77
1778.91
1778.11
1778.04
1777.8
1777.16
1776.54
1773.83
1760.3
1760.18
1774.97
1779.63
1782.63
1785.9
1789.59
1793.63
1797.48
1794.35
1797.41
1801.8
1809.5
1819.77
1824.67
1828.93
1833.06
1838.23
1835.24
1659.91
1468.81
1308.04
1235.83
1230.43
1229.54
1646.74
1701.64
1785.19
1783.16
1781.72
1780.38
1779.03
1777.18
1775.61
1774.54
1773.5
1772.97
1772.29
1770.59
1768.34
1753.05
1591.44
1536.53
1736.58
1772.58
1777.39
1781.7
1786.21
1790.89
1790.77
1790.55
1795.44
1800.33
1805.18
1814.24
1824.3
1829.88
1834.57
1839.15
1843.87
1849.48
1802.22
1580.42
1409.35
1541.08
1738.6
1765.97
1783.63
1781.48
1779.72
1778.13
1776.62
1775.17
1773.8
1772.57
1770.61
1769.13
1767.45
1765.63
1761.76
1754.84
1492.68
1183.45
1375.72
1751.09
1769.64
1775.16
1779.66
1784.41
1789.45
1793.14
1790.39
1794.45
1799.74
1805.06
1810.5
1825.69
1831.56
1836.76
1841.65
1846.26
1850.53
1853.37
1656.55
1509.24
1726.76
1783.25
1781.19
1779.33
1776.71
1772.97
1774.09
1772.43
1770.74
1770.21
1770.95
1771.11
1768.92
1765.63
1762.51
1725.97
1313.1
1102.28
1101.62
1185.78
1631.73
1768.7
1774.86
1779.59
1784.4
1789.48
1794.71
1797.74
1795.03
1799.92
1805.62
1817.07
1827.04
1832.52
1837.78
1842.76
1846.98
1833.08
1553.08
1447.41
1669.73
1781.31
1779.39
1775.93
1763.28
1760.97
1767.54
1768.88
1765.64
1681.16
1623.22
1751.26
1772.13
1770.07
1758.27
1421.24
1085.88
1087.34
1087
1087.42
1132.51
1595.41
1773.05
1777.72
1781.76
1786.18
1790.9
1795.81
1800.85
1802.09
1805.04
1816.34
1822.14
1827.64
1833
1838.14
1842.5
1826
1547.5
1432.08
1476.05
1779.31
1777.75
1766.57
1760.7
1758.54
1764.42
1768.99
1562.91
1291.66
1443.62
1754.95
1778.54
1773.72
1544.63
1106.04
1078.76
1080.56
1082.2
1081.18
1082.38
1442.62
1776.57
1779.51
1781.99
1785.13
1788.83
1792.91
1797.27
1801.91
1806.8
1811.91
1817.21
1822.59
1827.95
1833.13
1837.72
1840.86
1738.29
1525.85
1494.04
1777.54
1776.24
1769.93
1760.62
1760.59
1764.46
1611.12
1239.45
1259.19
1523.63
1778.08
1782.95
1677.27
1179.78
1071.64
1073.16
1074.85
1075.82
1074.75
1159.44
1643.15
1783.08
1782.94
1783.67
1785.37
1787.81
1790.78
1794.2
1798.05
1802.32
1806.98
1811.92
1817.07
1822.3
1827.4
1831.93
1835.76
1811.33
1736.48
1670.22
1775.6
1774.3
1772.82
1770.22
1768.07
1674.67
1225.28
1174.61
1309.55
1776.18
1784.89
1782.89
1437.58
1066.28
1066.75
1068.28
1070.12
1071.05
1137.63
1527.41
1782.45
1787.13
1785.55
1785.14
1785.64
1786.85
1788.68
1791.09
1794.07
1797.63
1801.71
1806.21
1811.05
1816.14
1821.32
1826.22
1830.61
1810.39
1716.2
1697.73
1773.16
1771.58
1769.59
1767.56
1721.88
1246.69
1121.1
1151.21
1631
1790.64
1794.29
1785.18
1366.74
1060.55
1060.46
1061.75
1075.35
1269.77
1624.27
1790.38
1791.95
1789.08
1787.09
1785.86
1785.31
1785.32
1785.79
1786.72
1788.33
1791.03
1794.94
1799.25
1803.87
1808.81
1814.02
1819.07
1823.04
1818.6
1697.85
1633.44
1770.03
1768.1
1766.17
1734.51
1247.7
1080.8
1092.59
1278.25
1788.1
1790.92
1795.91
1800.7
1581.51
1100.62
1051.61
1162.59
1549.01
1779.19
1799.79
1795.68
1792.88
1790.26
1787.76
1785.57
1783.65
1781.14
1765.54
1719.4
1681.65
1677.63
1727.21
1762.42
1785.38
1796.09
1803.2
1809.77
1814.56
1816.25
1779.77
1625.8
1766
1764.31
1699.05
1194.88
1049.84
1059.45
1077.78
1598.89
1786.83
1788.15
1789.86
1789.54
1645.6
1368.29
1449.47
1764.45
1796.98
1796.66
1796.42
1795.6
1793.89
1790.49
1787.03
1781.65
1740.1
1569.08
1354.05
1179.81
1104.06
1092.13
1169.04
1257.67
1379.35
1520.96
1663.6
1773.61
1803.79
1807.35
1789.71
1760.09
1762.31
1647.85
1133.92
1026.02
1033
1038.27
1372.32
1785.3
1785.65
1786.03
1772.58
1637.23
1612.87
1692.18
1790.56
1792.41
1795.32
1797.36
1798.35
1798.41
1797.36
1791.83
1706.67
1486.47
1267.37
1040.21
949.572
944.422
944.243
943.995
943.629
943.356
943.334
979.999
1087.41
1334.44
1655.22
1797.14
1798.35
1800.17
1590.02
1071.75
1004.92
1010.57
1015.11
1228.84
1774.33
1783.98
1784.51
1769.43
1634.34
1617.74
1649.95
1792.05
1793.23
1795.48
1797.95
1800.18
1802.09
1803.68
1804.79
1801.37
1534.83
1060.48
951.03
947.224
945.52
944.429
944.031
943.595
943.118
942.715
942.855
943.254
943.448
953.814
1167.06
1634.2
1800.04
1803.28
1021.77
985.49
990.316
994.374
1158.28
1739.32
1781.9
1782.55
1782.1
1679.65
1623.27
1644.19
1790.74
1792.12
1794.25
1796.8
1799.57
1802.51
1805.6
1808.94
1812.81
1816.12
1469.39
1027.39
979.365
949.458
946.715
944.95
944.294
943.716
943.142
942.794
942.982
942.821
942.584
945.423
976.884
1312.72
1769.49
1810.46
967.478
971.591
975.17
1121.76
1716.68
1779.85
1780.24
1781.07
1780.49
1716.65
1673.66
1782.47
1788.74
1791.2
1793.88
1796.68
1799.8
1803.09
1806.69
1810.62
1814.9
1819.22
1695.4
1572.64
1479.67
1360.41
1254.33
1198.92
1149.63
1105.17
1066.26
1033.55
1008.12
988.834
982.628
984.701
997.816
1178.57
1586.22
1815.88
953.749
957.164
1116.31
1705.81
1778.6
1778.26
1778.7
1777.53
1774.46
1777.93
1783.95
1785.46
1787.77
1790.39
1793.21
1796.05
1797.25
1795.47
1790.82
1807.41
1814.06
1818.43
1824.33
1829.85
1835.62
1841.03
1835.81
1814.11
1788.11
1757.49
1721.69
1681.61
1642.84
1607.9
1591.93
1595.73
1495.81
1214.61
1417.3
1781.25
939.78
1113.3
1701.37
1778.28
1777.18
1776.98
1776.17
1769.03
1766
1779.71
1782.49
1784.46
1786.8
1789.45
1792.36
1795.45
1792.94
1763.08
1762.26
1776.04
1807.97
1817.15
1821.37
1825.65
1829.92
1833.99
1837.64
1840.83
1843.61
1845.98
1847.91
1849.39
1850.39
1851.01
1851.53
1851.51
1848.2
1526.02
1405.09
1696.29
1117.85
1700.14
1778.24
1776.63
1775.89
1774.3
1763.19
1762.82
1763.84
1769.3
1781.1
1783.2
1785.61
1788.39
1791.45
1794.75
1790.56
1756.98
1760.48
1763.85
1780.04
1815.56
1819.05
1822.59
1826.35
1830.2
1833.96
1837.53
1840.84
1843.85
1846.52
1848.64
1849.91
1851.89
1852.61
1853.32
1853.01
1827.94
1409.09
1625.29
1690.81
1777.3
1775.88
1774.89
1773.65
1762.12
1760.25
1760.92
1761.98
1768.78
1779.72
1781.9
1784.39
1787.37
1790.59
1794.09
1797.01
1786.01
1764.07
1763.09
1775.82
1815.16
1817.27
1819.5
1823.06
1827.19
1831.36
1835.47
1839.48
1843.3
1846.87
1849.56
1842.78
1837.48
1837
1843.3
1858.98
1861.22
1664.35
1654.04
1776.74
1774.92
1774
1772.85
1762.01
1758.12
1758.42
1759.1
1760.5
1775.91
1778.45
1780.7
1783.41
1786.6
1790.09
1793.91
1797.98
1802.23
1806.27
1794.47
1796.78
1809.01
1762.78
1738.88
1780.54
1817.6
1828.11
1833.71
1839.11
1844.14
1848.82
1852.62
1843.97
1833.38
1836.54
1839.58
1848.47
1868.44
1870.85
1861.18
1773.71
1772.78
1772.03
1771.21
1760.67
1756.3
1756.69
1757.45
1759.39
1774.8
1777.29
1779.77
1782.71
1786.12
1790
1794.3
1799
1804.03
1809.4
1812.53
1750.04
1546.33
1200.27
1114.1
1192.69
1370.93
1551.48
1691.78
1800.35
1844.61
1852
1857.12
1859.59
1855.9
1844.97
1847.63
1851.59
1872.13
1881.15
1884.29
1771.47
1770.72
1770.12
1769.42
1767.4
1761
1756.12
1756.08
1764.78
1773.68
1776.28
1778.94
1782.12
1785.86
1790.17
1795.06
1800.53
1806.67
1813.75
1817.24
1438.07
991.085
871.043
870.899
871.014
871.319
915.002
1027.53
1240.22
1569.46
1818.85
1861.72
1868.41
1874.32
1876.85
1859.04
1862.74
1881.41
1893.85
1897.39
1769.52
1768.99
1768.12
1767.21
1767.36
1768.6
1769.1
1767.1
1770.35
1773.24
1775.52
1778.34
1781.73
1785.72
1790.34
1795.61
1801.51
1808.11
1815.55
1824.1
1389.02
902.386
872.003
870.214
870.89
871.572
872.525
873.768
875.252
956.009
1326.72
1784.24
1875.08
1883.14
1890.35
1892.28
1875.97
1901.32
1908.94
1897.42
1768.15
1767.9
1767.62
1767.6
1767.79
1768.11
1768.71
1769.65
1771.01
1772.84
1775.2
1778.13
1781.68
1785.87
1790.7
1796.17
1802.22
1808.8
1815.72
1822.86
1782.7
1504.41
1113.9
925.003
870.535
871.994
873.461
875.222
877.166
881.759
887.494
1242.53
1802.12
1889.21
1901.68
1910.89
1913.5
1927.19
1922.24
1894.01
1767.76
1767.75
1767.73
1767.75
1767.9
1768.23
1768.82
1769.76
1771.12
1772.98
1775.41
1778.45
1782.17
1786.58
1791.69
1797.48
1803.89
1810.86
1818.25
1825.86
1833.86
1843.73
1844.35
1701
1402.15
1124.08
978.869
910.535
887.404
889.464
897.407
903.732
1400.84
1878.66
1912.39
1926.01
1937.36
1948.28
1939.15
1918.94
1768.67
1768.82
1768.85
1768.85
1768.93
1769.17
1769.67
1770.53
1771.82
1773.64
1776.07
1779.16
1782.98
1787.56
1792.92
1799
1805.74
1813.08
1821.01
1829.5
1838.5
1847.85
1857.23
1866.58
1876.7
1869.63
1783.14
1645.2
1439.71
1102.48
911.457
927.346
1082.81
1774.19
1925.69
1942.74
1957.81
1972.13
1967.46
1949.49
1771.34
1771.45
1771.34
1771.14
1770.99
1771
1771.27
1771.9
1772.99
1774.62
1776.86
1779.78
1783.49
1788.08
1793.56
1799.83
1806.72
1814.17
1822.21
1831
1840.69
1850.84
1860.97
1871.35
1870.42
1864.67
1879.9
1891.45
1902.27
1906.3
1466.93
957.66
1040.01
1683.94
1946.59
1963.25
1981.34
1999.3
2011.62
1985.47
1776.01
1775.81
1775.31
1774.69
1774.1
1773.67
1773.49
1773.64
1774.2
1775.28
1776.92
1779.24
1782.43
1786.72
1792.24
1798.78
1805.69
1812.69
1819.24
1826.37
1838.33
1836.21
1826.43
1822.22
1713.54
1727.38
1771.76
1886.1
1904.7
1914.12
1926.41
1607.68
1244.08
1678.56
1973.33
1988.37
2006.98
2027.95
2052.3
2025
1783.57
1782.39
1781.05
1779.63
1778.25
1777.01
1775.94
1775.14
1774.79
1774.95
1775.45
1776.41
1777.19
1779.33
1786.12
1793.28
1781.5
1742.13
1672.56
1673.14
1727.76
1656.5
1651.7
1668.78
1691.33
1721.37
1739.85
1768.7
1873.69
1915.1
1922.27
1925.54
1925
1934.26
1988.76
2012.24
2030.17
2053.47
2082.81
2066.4
1795.45
1791.93
1788.9
1785.97
1783.15
1780.62
1778.25
1776.16
1774.19
1766.55
1725.63
1646.72
1570.18
1544.76
1582.03
1616.73
1514.62
1522.01
1540.14
1555.23
1582.36
1610.14
1629.41
1696.04
1849.51
1882.97
1895.84
1844.11
1810.85
1824.27
1836.55
1919.78
1979.16
1992.79
2006.32
2022.58
2042.78
2069.29
2103.27
2094.28
1805.65
1801.05
1796.6
1792.24
1787.97
1784.6
1765.49
1698.21
1587.99
1472.29
1351.94
1370.94
1382.24
1388.06
1397.27
1414.47
1433.69
1501.54
1618.98
1772.99
1805.12
1813.52
1823.42
1836.52
1848.98
1861.67
1875.27
1890.49
1847.61
1808.76
1823.46
1860.58
1959.67
1982.24
2000.05
2019.41
2042.18
2071.65
2109.33
2104.01
1813.68
1808.88
1803.91
1797.4
1726.2
1645.77
1409.45
1316.37
1326.1
1328.63
1329.08
1357.57