/*--------------------------------*- C++ -*----------------------------------*\
  =========                 |
  \\      /  F ield         | OpenFOAM: The Open Source CFD Toolbox
   \\    /   O peration     | Website:  https://openfoam.org
    \\  /    A nd           | Version:  8
     \\/     M anipulation  |
\*---------------------------------------------------------------------------*/
FoamFile
{
    version     2.0;
    format      ascii;
    class       volVectorField;
    location    "3.7";
    object      U;
}
// * * * * * * * * * * * * * * * * * * * * * * * * * * * * * * * * * * * * * //

dimensions      [0 1 -1 0 0 0 0];

internalField   nonuniform List<vector> 
9150
(
(0.0539106 -0.428577 0)
(0.0879742 -0.622131 0)
(0.0729946 -0.631398 0)
(0.0486507 -0.643676 0)
(0.0170433 -0.654389 0)
(-0.0169971 -0.654396 0)
(-0.0486129 -0.643693 0)
(-0.0729678 -0.631416 0)
(-0.0879599 -0.622149 0)
(-0.0539059 -0.428607 0)
(0.0410084 -0.523039 0)
(0.057493 -0.625657 0)
(0.0419697 -0.613203 0)
(0.0294311 -0.622431 0)
(0.0104859 -0.628826 0)
(-0.0104545 -0.628829 0)
(-0.0294045 -0.62244 0)
(-0.0419493 -0.613213 0)
(-0.0574792 -0.625664 0)
(-0.0410026 -0.52306 0)
(0.0254361 -0.558085 0)
(0.0325274 -0.613747 0)
(0.0228885 -0.604464 0)
(0.0172959 -0.609984 0)
(0.00623984 -0.613166 0)
(-0.0062195 -0.613168 0)
(-0.0172783 -0.609989 0)
(-0.022875 -0.604469 0)
(-0.0325168 -0.613749 0)
(-0.0254309 -0.558096 0)
(0.0154962 -0.584826 0)
(0.0174906 -0.607416 0)
(0.0116345 -0.601134 0)
(0.00889799 -0.603286 0)
(0.0032418 -0.604386 0)
(-0.00323023 -0.604387 0)
(-0.00888784 -0.603287 0)
(-0.0116267 -0.601135 0)
(-0.017484 -0.607416 0)
(-0.0154928 -0.584831 0)
(0.00631753 -0.597192 0)
(0.00556422 -0.601369 0)
(0.00354215 -0.600039 0)
(0.00268738 -0.600349 0)
(0.000994903 -0.600481 0)
(-0.000991108 -0.600481 0)
(-0.00268403 -0.600349 0)
(-0.00353952 -0.600039 0)
(-0.00556189 -0.601369 0)
(-0.00631626 -0.597193 0)
(0.470439 -1.16348 1.41689e-24)
(0.282968 -1.08572 0)
(0.163515 -1.06922 0)
(0.0926109 -1.0576 0)
(0.0306236 -1.0529 0)
(-0.0301194 -1.05297 0)
(-0.09216 -1.05781 0)
(-0.16315 -1.06955 0)
(-0.282712 -1.08616 0)
(-0.470548 -1.16409 -1.42319e-24)
(0.334291 -0.844361 3.84975e-25)
(0.287016 -0.936755 0)
(0.188203 -0.936701 0)
(0.108407 -0.93665 0)
(0.0358634 -0.93904 0)
(-0.0355784 -0.939091 0)
(-0.108163 -0.936791 0)
(-0.18802 -0.936901 0)
(-0.286951 -0.937002 0)
(-0.334367 -0.844674 -3.86207e-25)
(0.279737 -0.703017 6.7957e-26)
(0.259074 -0.804708 0)
(0.178019 -0.817497 0)
(0.104749 -0.828294 0)
(0.0349256 -0.836406 0)
(-0.0347543 -0.836436 0)
(-0.104605 -0.828378 0)
(-0.177923 -0.817614 0)
(-0.259047 -0.804838 0)
(-0.279768 -0.703157 -6.8307e-26)
(0.200803 -0.554669 2.29893e-25)
(0.216953 -0.709372 0)
(0.154197 -0.725795 0)
(0.0914503 -0.741942 0)
(0.0305929 -0.753864 0)
(-0.0304865 -0.753883 0)
(-0.0913629 -0.741992 0)
(-0.154141 -0.72586 0)
(-0.216938 -0.709439 0)
(-0.200818 -0.554749 -2.29821e-25)
(0.119438 -0.444965 -3.8882e-25)
(0.156844 -0.644055 -5.59523e-25)
(0.116632 -0.663669 -1.88299e-25)
(0.0709665 -0.681121 -1.2357e-25)
(0.0239859 -0.694135 -7.10841e-27)
(-0.0239167 -0.694146 -7.04463e-27)
(-0.07091 -0.68115 -1.23408e-25)
(-0.116595 -0.663704 -1.88237e-25)
(-0.156831 -0.64409 -5.59501e-25)
(-0.11944 -0.445011 -3.88859e-25)
(0.0174457 -0.919611 0)
(-0.0368062 -1.33747 0)
(0.0259836 -1.26742 0)
(-0.00356988 -1.22302 0)
(0.00679355 -1.2216 0)
(-0.00334435 -1.22226 0)
(0.00890605 -1.22302 0)
(-0.0208485 -1.26592 0)
(0.0432117 -1.33675 0)
(-0.010832 -0.944916 0)
(0.0480878 -0.905215 0)
(-0.02174 -1.33303 0)
(0.0253169 -1.26881 0)
(0.000506141 -1.22229 0)
(0.00299048 -1.22126 0)
(-0.000510503 -1.22188 0)
(0.00357102 -1.22231 0)
(-0.0223403 -1.26855 0)
(0.0264096 -1.3353 0)
(-0.0457566 -0.916007 0)
(0.0758894 -0.942762 0)
(-0.0227185 -1.34771 0)
(0.0191655 -1.27476 0)
(0.00536279 -1.22983 0)
(0.00067617 -1.22559 0)
(0.00122852 -1.22593 0)
(-0.00286366 -1.22994 0)
(-0.0174257 -1.27541 0)
(0.0258522 -1.34867 0)
(-0.0741969 -0.949794 0)
(0.141925 -1.07688 0)
(0.00102684 -1.3658 0)
(0.0169781 -1.27155 0)
(0.0218668 -1.22533 0)
(0.00607008 -1.21398 0)
(-0.00464493 -1.21413 0)
(-0.0203872 -1.22567 0)
(-0.0161199 -1.27209 0)
(0.00101732 -1.36645 0)
(-0.14109 -1.0805 0)
(0.296588 -1.21971 0)
(0.12433 -1.32181 0)
(0.0694254 -1.21049 0)
(0.0568606 -1.16889 0)
(0.0203384 -1.15628 0)
(-0.0194644 -1.15639 0)
(-0.0561254 -1.16924 0)
(-0.0687211 -1.21101 0)
(-0.123329 -1.32228 0)
(-0.296473 -1.22129 0)
(0.0467296 -0.000759516 0)
(0.0472882 -0.000789623 0)
(0.0478493 -0.000805511 0)
(0.0483971 -0.000799072 0)
(0.0489099 -0.000758629 0)
(0.0493575 -0.000667618 0)
(0.0496964 -0.000501293 0)
(0.0498909 -0.00022787 0)
(0.0498255 0.000156031 0)
(0.0494311 0.000648216 0)
(0.0455995 -0.0015519 0)
(0.0459429 -0.00155654 0)
(0.0462654 -0.00152527 0)
(0.0465565 -0.00144127 0)
(0.0468027 -0.00128383 0)
(0.0469877 -0.00102721 0)
(0.0470898 -0.000640256 0)
(0.0470777 -8.60174e-05 0)
(0.0469463 0.000657483 0)
(0.0466714 0.00159562 0)
(0.0433401 -0.00206091 0)
(0.0435133 -0.0020161 0)
(0.0436539 -0.00192054 0)
(0.0437545 -0.00175417 0)
(0.0438066 -0.0014923 0)
(0.0438004 -0.00110732 0)
(0.0437258 -0.000565151 0)
(0.0435737 0.000172557 0)
(0.0433287 0.00113766 0)
(0.0429681 0.00235864 0)
(0.0408262 -0.00228915 0)
(0.0408593 -0.00217835 0)
(0.0408548 -0.0020054 0)
(0.0408092 -0.0017517 0)
(0.0407193 -0.00138821 0)
(0.0405838 -0.00089171 0)
(0.0404037 -0.000224965 0)
(0.0401808 0.00065121 0)
(0.0399096 0.0017863 0)
(0.0395766 0.00321913 0)
(0.038162 -0.00226306 0)
(0.0380739 -0.00207798 0)
(0.0379421 -0.00182396 0)
(0.0377645 -0.00148805 0)
(0.0375441 -0.00104598 0)
(0.037287 -0.000478982 0)
(0.0370018 0.000247351 0)
(0.0366985 0.00117209 0)
(0.0363883 0.00235539 0)
(0.0360787 0.00384966 0)
(0.0354278 -0.00201638 0)
(0.0352373 -0.00173967 0)
(0.0349867 -0.00138771 0)
(0.0346745 -0.000956325 0)
(0.0343048 -0.000431298 0)
(0.0338882 0.000199225 0)
(0.0334418 0.000959158 0)
(0.032986 0.00188763 0)
(0.0325408 0.00304129 0)
(0.0321232 0.00449001 0)
(0.0327417 -0.00160744 0)
(0.0324817 -0.00119665 0)
(0.0321264 -0.000696678 0)
(0.0316714 -0.000119232 0)
(0.0311261 0.000530305 0)
(0.0305117 0.00125058 0)
(0.0298553 0.00205526 0)
(0.0291873 0.00298136 0)
(0.0285377 0.00408801 0)
(0.0279317 0.00545599 0)
(0.0302719 -0.00113844 0)
(0.0299844 -0.000509138 0)
(0.029542 0.000231517 0)
(0.0289438 0.00104303 0)
(0.0282065 0.00188798 0)
(0.0273648 0.002743 0)
(0.0264673 0.00360948 0)
(0.025567 0.00452253 0)
(0.0247117 0.00554875 0)
(0.0239396 0.00677985 0)
(0.0282588 -0.00073556 0)
(0.0279605 0.000258493 0)
(0.0274288 0.00138201 0)
(0.0266657 0.00255344 0)
(0.0256968 0.00369228 0)
(0.0245794 0.00473357 0)
(0.023402 0.00565349 0)
(0.0222608 0.00649493 0)
(0.0212315 0.00734834 0)
(0.0203673 0.00832335 0)
(0.0269229 -0.000337031 0)
(0.0265678 0.0011735 0)
(0.0259147 0.0028335 0)
(0.0249452 0.00451636 0)
(0.0236744 0.00607173 0)
(0.0221822 0.00734525 0)
(0.0206345 0.00824851 0)
(0.0192201 0.00885 0)
(0.0180681 0.00930463 0)
(0.0172322 0.00979625 0)
(0.0258972 0.000121543 0)
(0.0255443 0.00225658 0)
(0.0248387 0.00461323 0)
(0.0237035 0.00702814 0)
(0.0220859 0.0092446 0)
(0.0200618 0.0108929 0)
(0.0179583 0.0116271 0)
(0.0161711 0.0116343 0)
(0.0148963 0.0113129 0)
(0.0141274 0.0110197 0)
(0.0247045 0.000471817 0)
(0.0244783 0.00326386 0)
(0.0239125 0.00646665 0)
(0.0228321 0.00994448 0)
(0.0209854 0.0133755 0)
(0.0182073 0.0159596 0)
(0.0152372 0.016175 0)
(0.0130023 0.0148732 0)
(0.0116956 0.0133063 0)
(0.0110547 0.0119539 0)
(0.0226074 0.000492507 0)
(0.0225232 0.003748 0)
(0.0222625 0.00771394 0)
(0.0216532 0.0124669 0)
(0.020189 0.0181072 0)
(0.0167333 0.0240405 0)
(0.0126149 0.022245 0)
(0.0102914 0.0182084 0)
(0.00917487 0.0149625 0)
(0.0086403 0.0125255 0)
(0.0185743 0.000710065 0)
(0.018166 0.00419066 0)
(0.0176409 0.00860929 0)
(0.0168318 0.0143577 0)
(0.0155878 0.0219086 0)
(0.0146737 0.0298598 0)
(0.0134831 0.0277962 0)
(0.0113903 0.0220869 0)
(0.00950622 0.0174455 0)
(0.00827249 0.0139311 0)
(0.0132021 0.00204754 0)
(0.0121649 0.00564127 0)
(0.0111284 0.0101739 0)
(0.0101538 0.0162112 0)
(0.00933064 0.0238542 0)
(0.00924991 0.0294801 0)
(0.00955311 0.0296131 0)
(0.00909837 0.0255976 0)
(0.00795583 0.0202372 0)
(0.00697457 0.015913 0)
(0.00790901 0.00469084 0)
(0.00631109 0.00828431 0)
(0.00480501 0.0125772 0)
(0.00367832 0.0178834 0)
(0.00325852 0.0241863 0)
(0.00379511 0.0279088 0)
(0.00499106 0.0280697 0)
(0.00583007 0.0261579 0)
(0.00574363 0.0216198 0)
(0.00506513 0.0176053 0)
(0.00365513 0.00830665 0)
(0.00175849 0.0118343 0)
(-2.36043e-05 0.0156761 0)
(-0.00141494 0.0198001 0)
(-0.00202146 0.023901 0)
(-0.00164138 0.0256358 0)
(-0.00017902 0.0244305 0)
(0.00108723 0.024444 0)
(0.00123594 0.0219318 0)
(0.000662423 0.0191954 0)
(0.000617843 0.0120612 0)
(-0.00119993 0.0153683 0)
(-0.00279813 0.0186308 0)
(-0.00396454 0.0216617 0)
(-0.00449528 0.0240688 0)
(-0.0047108 0.0248542 0)
(-0.00538345 0.023898 0)
(-0.00605123 0.0239003 0)
(-0.00633113 0.0224811 0)
(-0.0068446 0.0204818 0)
(-0.00286025 0.0158191 0)
(-0.00488231 0.0188443 0)
(-0.00676172 0.0215902 0)
(-0.00841115 0.0238988 0)
(-0.00979668 0.0255664 0)
(-0.0110039 0.0264017 0)
(-0.0121705 0.0263116 0)
(-0.0133353 0.0254385 0)
(-0.0145008 0.0239556 0)
(-0.015641 0.0220504 0)
(-0.00745848 0.0202347 0)
(-0.00993561 0.0231528 0)
(-0.0123666 0.0256603 0)
(-0.0146994 0.0276409 0)
(-0.0169068 0.0289773 0)
(-0.0190025 0.0295787 0)
(-0.0210323 0.0294068 0)
(-0.0230232 0.0284883 0)
(-0.0249545 0.0269148 0)
(-0.0267648 0.0247928 0)
(-0.0136174 0.0257004 0)
(-0.0167523 0.0286735 0)
(-0.0199185 0.0311336 0)
(-0.0230706 0.0329931 0)
(-0.0261704 0.0341638 0)
(-0.0291898 0.0345963 0)
(-0.0321384 0.0343026 0)
(-0.0350454 0.0332818 0)
(-0.0378821 0.0314746 0)
(-0.0405277 0.0288966 0)
(-0.0216724 0.0326036 0)
(-0.0256478 0.0357612 0)
(-0.0296997 0.038306 0)
(-0.0337942 0.0401707 0)
(-0.037872 0.0412449 0)
(-0.0418245 0.0414633 0)
(-0.0456378 0.0410321 0)
(-0.0494387 0.0400643 0)
(-0.0533437 0.0381711 0)
(-0.057075 0.034849 0)
(-0.0319701 0.0412946 0)
(-0.0369868 0.0446772 0)
(-0.0420487 0.0473421 0)
(-0.0471799 0.0493167 0)
(-0.0523912 0.0503923 0)
(-0.0574208 0.050209 0)
(-0.0620716 0.0495918 0)
(-0.0663889 0.0486416 0)
(-0.0706411 0.046443 0)
(-0.0751229 0.0429564 0)
(-0.0451163 0.0526134 0)
(-0.0515111 0.0559944 0)
(-0.0576508 0.0584588 0)
(-0.0635139 0.0609188 0)
(-0.0697191 0.0626986 0)
(-0.0762018 0.0612416 0)
(-0.0812538 0.058283 0)
(-0.0851045 0.0568038 0)
(-0.0891914 0.0550808 0)
(-0.0943238 0.0532797 0)
(-0.0616373 0.0673037 0)
(-0.0706521 0.070398 0)
(-0.0785118 0.0720416 0)
(-0.0846749 0.0735421 0)
(-0.0893544 0.0737413 0)
(-0.0933516 0.0716448 0)
(-0.0977936 0.0675617 0)
(-0.102904 0.0656902 0)
(-0.108294 0.065071 0)
(-0.113926 0.0654342 0)
(-0.0813937 0.0902366 0)
(-0.0946607 0.0900728 0)
(-0.102352 0.0843112 0)
(-0.106361 0.0822814 0)
(-0.110027 0.0809276 0)
(-0.113868 0.0790417 0)
(-0.118104 0.0772656 0)
(-0.123462 0.0772669 0)
(-0.130275 0.0780668 0)
(-0.137863 0.0780747 0)
(-0.104024 0.113441 0)
(-0.110452 0.108325 0)
(-0.115445 0.0953811 0)
(-0.11965 0.0901063 0)
(-0.123818 0.0884545 0)
(-0.128353 0.0874088 0)
(-0.133909 0.088509 0)
(-0.141201 0.0911683 0)
(-0.149291 0.0930927 0)
(-0.156512 0.0925827 0)
(-0.11652 0.123874 0)
(-0.120139 0.114484 0)
(-0.123091 0.104283 0)
(-0.127514 0.0994665 0)
(-0.132906 0.0980582 0)
(-0.138755 0.0991509 0)
(-0.14604 0.10285 0)
(-0.154166 0.106889 0)
(-0.161701 0.108148 0)
(-0.168532 0.10617 0)
(-0.119951 0.128198 0)
(-0.12224 0.119737 0)
(-0.126028 0.113295 0)
(-0.131788 0.110308 0)
(-0.13795 0.110369 0)
(-0.144923 0.113425 0)
(-0.152794 0.118646 0)
(-0.160809 0.122699 0)
(-0.168719 0.122982 0)
(-0.175464 0.118116 0)
(-0.118703 0.132645 0)
(-0.122072 0.127292 0)
(-0.127529 0.124138 0)
(-0.134166 0.123294 0)
(-0.141309 0.124672 0)
(-0.148826 0.127579 0)
(-0.156034 0.133208 0)
(-0.163434 0.138412 0)
(-0.17083 0.138837 0)
(-0.178418 0.132513 0)
(-0.117385 0.139732 0)
(-0.122363 0.137695 0)
(-0.128792 0.13706 0)
(-0.135947 0.137956 0)
(-0.143196 0.140343 0)
(-0.151425 0.14328 0)
(-0.160987 0.149795 0)
(-0.169183 0.153923 0)
(-0.175925 0.15369 0)
(-0.182729 0.147397 0)
(-0.118985 0.148842 0)
(-0.12448 0.149641 0)
(-0.131182 0.151062 0)
(-0.138581 0.153347 0)
(-0.146405 0.156639 0)
(-0.155112 0.161002 0)
(-0.163107 0.165701 0)
(-0.16953 0.167688 0)
(-0.175313 0.1664 0)
(-0.181654 0.161131 0)
(-0.119563 0.159199 0)
(-0.125591 0.162227 0)
(-0.132451 0.165364 0)
(-0.139895 0.168791 0)
(-0.147712 0.172604 0)
(-0.155318 0.176495 0)
(-0.162364 0.179018 0)
(-0.168894 0.180006 0)
(-0.174916 0.17866 0)
(-0.181101 0.174738 0)
(-0.118951 0.170857 0)
(-0.125153 0.175317 0)
(-0.131894 0.179584 0)
(-0.139012 0.183683 0)
(-0.146228 0.18752 0)
(-0.153277 0.19063 0)
(-0.160105 0.192562 0)
(-0.166744 0.192968 0)
(-0.173012 0.191455 0)
(-0.179155 0.187369 0)
(-0.117127 0.182751 0)
(-0.123219 0.188115 0)
(-0.129617 0.193048 0)
(-0.136184 0.197475 0)
(-0.142764 0.201214 0)
(-0.149235 0.203999 0)
(-0.155544 0.20553 0)
(-0.161582 0.205536 0)
(-0.167327 0.2037 0)
(-0.17299 0.199039 0)
(-0.114451 0.194464 0)
(-0.12033 0.200327 0)
(-0.126344 0.205575 0)
(-0.132405 0.210091 0)
(-0.138429 0.213702 0)
(-0.144362 0.216197 0)
(-0.150109 0.217372 0)
(-0.15568 0.217148 0)
(-0.161341 0.215238 0)
(-0.166777 0.209445 0)
(-0.111425 0.205853 0)
(-0.117079 0.211914 0)
(-0.122748 0.21723 0)
(-0.128381 0.221687 0)
(-0.133957 0.225155 0)
(-0.139465 0.227484 0)
(-0.144882 0.228622 0)
(-0.150388 0.22827 0)
(-0.155446 0.225508 0)
(-0.159529 0.217913 0)
(-0.108591 0.216938 0)
(-0.114075 0.222978 0)
(-0.119481 0.228171 0)
(-0.124774 0.232428 0)
(-0.129939 0.235658 0)
(-0.13489 0.237806 0)
(-0.139725 0.238967 0)
(-0.144532 0.238295 0)
(-0.148869 0.233695 0)
(-0.152523 0.224801 0)
(-0.106385 0.227837 0)
(-0.111787 0.233702 0)
(-0.117048 0.238631 0)
(-0.122152 0.242568 0)
(-0.12707 0.245472 0)
(-0.1318 0.247422 0)
(-0.136496 0.248259 0)
(-0.140699 0.246563 0)
(-0.144196 0.240788 0)
(-0.147595 0.231453 0)
(-0.10518 0.238723 0)
(-0.110633 0.244302 0)
(-0.115902 0.248851 0)
(-0.120963 0.252376 0)
(-0.125718 0.254939 0)
(-0.130322 0.25672 0)
(-0.134708 0.256766 0)
(-0.138484 0.253771 0)
(-0.141943 0.247505 0)
(-0.145525 0.238384 0)
(-0.105255 0.249905 0)
(-0.110954 0.255137 0)
(-0.116455 0.25921 0)
(-0.121689 0.262204 0)
(-0.126488 0.2643 0)
(-0.131046 0.265639 0)
(-0.135211 0.264489 0)
(-0.138714 0.260827 0)
(-0.142286 0.254561 0)
(-0.146185 0.246073 0)
(-0.106706 0.261769 0)
(-0.112878 0.266684 0)
(-0.118873 0.270223 0)
(-0.124545 0.272524 0)
(-0.129634 0.273846 0)
(-0.134199 0.274212 0)
(-0.138224 0.27186 0)
(-0.141776 0.267778 0)
(-0.145631 0.26213 0)
(-0.149889 0.254814 0)
(-0.109424 0.274702 0)
(-0.116272 0.279491 0)
(-0.122998 0.282507 0)
(-0.129322 0.283837 0)
(-0.134917 0.283924 0)
(-0.139663 0.282947 0)
(-0.143862 0.279708 0)
(-0.14801 0.275352 0)
(-0.152286 0.270609 0)
(-0.157001 0.264961 0)
(-0.11323 0.288993 0)
(-0.120945 0.294026 0)
(-0.12892 0.296551 0)
(-0.136396 0.296591 0)
(-0.142569 0.294864 0)
(-0.147564 0.292232 0)
(-0.152182 0.288542 0)
(-0.156869 0.28441 0)
(-0.161607 0.280273 0)
(-0.166952 0.276219 0)
(-0.118288 0.304024 0)
(-0.126662 0.310675 0)
(-0.13769 0.31524 0)
(-0.147935 0.310935 0)
(-0.153937 0.305894 0)
(-0.158509 0.301641 0)
(-0.162979 0.297643 0)
(-0.167621 0.293988 0)
(-0.172845 0.290867 0)
(-0.179128 0.288474 0)
(-0.128534 0.32161 0)
(-0.139612 0.332884 0)
(-0.152212 0.338267 0)
(-0.159754 0.325018 0)
(-0.16491 0.316131 0)
(-0.169524 0.31099 0)
(-0.174533 0.307045 0)
(-0.179866 0.30431 0)
(-0.186037 0.302788 0)
(-0.193164 0.302636 0)
(-0.143913 0.344473 0)
(-0.156021 0.356921 0)
(-0.163351 0.354386 0)
(-0.169948 0.337772 0)
(-0.175398 0.326939 0)
(-0.180669 0.321498 0)
(-0.186593 0.317997 0)
(-0.192991 0.3164 0)
(-0.199938 0.316895 0)
(-0.207628 0.320311 0)
(-0.161723 0.368652 0)
(-0.169593 0.372997 0)
(-0.175187 0.364447 0)
(-0.180851 0.349295 0)
(-0.185785 0.338845 0)
(-0.191815 0.333406 0)
(-0.198548 0.330589 0)
(-0.205427 0.330502 0)
(-0.212683 0.33407 0)
(-0.223435 0.343674 0)
(-0.17454 0.385953 0)
(-0.179941 0.384269 0)
(-0.185121 0.372341 0)
(-0.189603 0.359796 0)
(-0.194733 0.35136 0)
(-0.201538 0.346335 0)
(-0.20842 0.344588 0)
(-0.215309 0.346818 0)
(-0.224928 0.355528 0)
(-0.234624 0.363301 0)
(-0.181901 0.39917 0)
(-0.187052 0.393101 0)
(-0.191933 0.381094 0)
(-0.196292 0.370549 0)
(-0.202275 0.363613 0)
(-0.208841 0.35971 0)
(-0.215126 0.359804 0)
(-0.223192 0.365416 0)
(-0.228773 0.368133 0)
(-0.212377 0.33609 0)
(-0.187358 0.410665 0)
(-0.192582 0.401686 0)
(-0.19681 0.39056 0)
(-0.201908 0.382104 0)
(-0.208267 0.376334 0)
(-0.214176 0.373667 0)
(-0.220503 0.375123 0)
(-0.221506 0.370578 0)
(-0.201346 0.333761 0)
(-0.164424 0.26204 0)
(-0.194692 0.419158 0)
(-0.198552 0.409773 0)
(-0.202316 0.399758 0)
(-0.207122 0.394078 0)
(-0.212148 0.390447 0)
(-0.217314 0.386134 0)
(-0.212261 0.371601 0)
(-0.188604 0.327202 0)
(-0.149674 0.253501 0)
(-0.124287 0.203757 0)
(-0.204194 0.426684 0)
(-0.207612 0.417975 0)
(-0.211881 0.410836 0)
(-0.216287 0.406092 0)
(-0.217408 0.397016 0)
(-0.202303 0.36925 0)
(-0.174593 0.312905 0)
(-0.134618 0.246639 0)
(-0.115918 0.207991 0)
(-0.104591 0.180589 0)
(-0.212749 0.434836 0)
(-0.215852 0.428713 0)
(-0.218756 0.419828 0)
(-0.211696 0.401227 0)
(-0.189488 0.357471 0)
(-0.154007 0.296647 0)
(-0.126437 0.246092 0)
(-0.110933 0.212642 0)
(-0.0996724 0.187575 0)
(-0.0902026 0.163529 0)
(-0.220665 0.442741 0)
(-0.218111 0.430054 0)
(-0.201399 0.398835 0)
(-0.175037 0.343729 0)
(-0.140798 0.285313 0)
(-0.120398 0.247269 0)
(-0.106699 0.218876 0)
(-0.0953752 0.193508 0)
(-0.0850969 0.168619 0)
(-0.0749902 0.144099 0)
(-0.212487 0.433118 0)
(-0.191421 0.385961 0)
(-0.156224 0.329971 0)
(-0.131912 0.284336 0)
(-0.116066 0.250901 0)
(-0.102954 0.223731 0)
(-0.0912414 0.1978 0)
(-0.0797288 0.171894 0)
(-0.0681295 0.146637 0)
(-0.0564799 0.122197 0)
(-0.174631 0.380624 0)
(-0.146801 0.324005 0)
(-0.127676 0.285646 0)
(-0.112435 0.25559 0)
(-0.0989798 0.227625 0)
(-0.0859358 0.199895 0)
(-0.0729441 0.172902 0)
(-0.05982 0.146835 0)
(-0.0466562 0.121722 0)
(-0.0336095 0.0975665 0)
(-0.137603 0.329431 0)
(-0.121018 0.291396 0)
(-0.106271 0.259252 0)
(-0.0919963 0.229124 0)
(-0.0777257 0.19995 0)
(-0.0632617 0.171847 0)
(-0.0487485 0.144898 0)
(-0.0343427 0.11903 0)
(-0.0200682 0.0942125 0)
(-0.00593693 0.0704452 0)
(-0.110882 0.29939 0)
(-0.0955218 0.263154 0)
(-0.0796784 0.229536 0)
(-0.0639141 0.198483 0)
(-0.0484035 0.169385 0)
(-0.0332221 0.141671 0)
(-0.0182645 0.115048 0)
(-0.00339244 0.089432 0)
(0.0114708 0.0648798 0)
(0.0263082 0.0414477 0)
(-0.0779257 0.266596 0)
(-0.0601582 0.228748 0)
(-0.042736 0.195588 0)
(-0.0262171 0.165899 0)
(-0.0108618 0.138354 0)
(0.00352665 0.111748 0)
(0.0176067 0.0854157 0)
(0.032022 0.0595776 0)
(0.0469445 0.0347999 0)
(0.0621835 0.0113276 0)
(-0.0300438 0.232869 0)
(-0.0126701 0.194046 0)
(0.00429725 0.162162 0)
(0.0195777 0.135063 0)
(0.0327966 0.110183 0)
(0.0444237 0.0850073 0)
(0.0561301 0.057798 0)
(0.0694657 0.0302191 0)
(0.0844554 0.00415691 0)
(0.100227 -0.0198927 0)
(0.0139896 0.200533 0)
(0.031036 0.160501 0)
(0.0480275 0.130438 0)
(0.0621689 0.10724 0)
(0.073453 0.0875263 0)
(0.0830938 0.0664998 0)
(0.0938738 0.0365561 0)
(0.107642 0.00294207 0)
(0.123823 -0.0270142 0)
(0.140335 -0.0522631 0)
(0.0447169 0.160655 0)
(0.0573579 0.125722 0)
(0.0707583 0.102643 0)
(0.0810337 0.087504 0)
(0.0895685 0.071426 0)
(0.105914 0.0485275 0)
(0.133084 0.00662217 0)
(0.150671 -0.030875 0)
(0.165259 -0.0589591 0)
(0.180726 -0.0833049 0)
(0.0598644 0.116737 0)
(0.065906 0.102622 0)
(0.0716108 0.0925341 0)
(0.0805211 0.0771676 0)
(0.1016 0.0383443 0)
(0.128122 -0.0187148 0)
(0.158351 -0.050178 0)
(0.176762 -0.0711596 0)
(0.190878 -0.0909421 0)
(0.207147 -0.113731 0)
(0.0182619 0.105314 0)
(0.035836 0.091043 0)
(0.0586907 0.059737 0)
(0.0966434 0.00240986 0)
(0.135534 -0.0347206 0)
(0.152688 -0.0617171 0)
(0.165994 -0.0799684 0)
(0.182221 -0.0999517 0)
(0.20056 -0.123325 0)
(0.221776 -0.151073 0)
(0.0322734 0.0128991 0)
(0.0738743 -0.00994071 0)
(0.0986195 -0.0301986 0)
(0.114688 -0.0491636 0)
(0.129641 -0.0662666 0)
(0.14623 -0.0862945 0)
(0.163885 -0.11022 0)
(0.185072 -0.138258 0)
(0.210125 -0.169687 0)
(0.238688 -0.204233 0)
(0.0898152 -0.0108867 0)
(0.094163 -0.0302959 0)
(0.100971 -0.0477516 0)
(0.11228 -0.0687436 0)
(0.126894 -0.0943673 0)
(0.145623 -0.123792 0)
(0.168819 -0.15651 0)
(0.196526 -0.192383 0)
(0.228612 -0.230562 0)
(0.265405 -0.270993 0)
(0.0800882 -0.0106577 0)
(0.0850993 -0.03772 0)
(0.0939224 -0.0666354 0)
(0.107897 -0.098161 0)
(0.126983 -0.133049 0)
(0.151084 -0.171641 0)
(0.180545 -0.213793 0)
(0.215533 -0.258475 0)
(0.257214 -0.305468 0)
(0.307669 -0.361615 0)
(0.0638658 -0.0221756 0)
(0.0723341 -0.0570819 0)
(0.0856553 -0.0947439 0)
(0.104511 -0.136391 0)
(0.129199 -0.182183 0)
(0.159837 -0.230873 0)
(0.198762 -0.282924 0)
(0.24521 -0.34405 0)
(0.306197 -0.417758 0)
(0.381155 -0.499449 0)
(0.0462455 -0.0388805 0)
(0.0575497 -0.0824756 0)
(0.0747356 -0.131758 0)
(0.0987049 -0.18609 0)
(0.130876 -0.243593 0)
(0.171964 -0.307009 0)
(0.228794 -0.386503 0)
(0.302733 -0.478763 0)
(0.378953 -0.572679 0)
(0.453047 -0.656961 0)
(0.0241672 -0.0582346 0)
(0.0368733 -0.11451 0)
(0.0574319 -0.178014 0)
(0.0889218 -0.246029 0)
(0.133488 -0.326724 0)
(0.199214 -0.429089 0)
(0.278458 -0.540513 0)
(0.355998 -0.642321 0)
(0.428524 -0.725205 0)
(0.490101 -0.786615 0)
(-0.00318725 -0.0791356 0)
(0.0090194 -0.149918 0)
(0.0354185 -0.232392 0)
(0.0829782 -0.336747 0)
(0.156984 -0.46632 0)
(0.238574 -0.598458 0)
(0.316975 -0.704023 0)
(0.383007 -0.781491 0)
(0.436434 -0.837742 0)
(0.483729 -0.880303 0)
(-0.0305482 -0.0959421 0)
(-0.01812 -0.185534 0)
(0.0214882 -0.322969 0)
(0.10026 -0.49515 0)
(0.187005 -0.643486 0)
(0.261761 -0.751356 0)
(0.320838 -0.826397 0)
(0.37257 -0.883004 0)
(0.420781 -0.929189 0)
(0.464796 -0.966614 0)
(-0.0498259 -0.0992288 0)
(-0.0325347 -0.232977 0)
(0.0373606 -0.489047 0)
(0.126288 -0.675922 0)
(0.196066 -0.785755 0)
(0.255217 -0.86433 0)
(0.309001 -0.927546 0)
(0.357314 -0.979046 0)
(0.401536 -1.01923 0)
(0.441419 -1.04827 0)
(-0.0511574 -0.0932638 0)
(-0.0235113 -0.360334 0)
(0.0690274 -0.660958 0)
(0.134788 -0.809644 0)
(0.194005 -0.900511 0)
(0.249691 -0.971361 0)
(0.298661 -1.02684 0)
(0.341929 -1.06863 0)
(0.380066 -1.09829 0)
(0.413187 -1.11693 0)
(-0.0387096 -0.0592026 0)
(-0.00283933 -0.544953 0)
(0.0852052 -0.798982 0)
(0.1419 -0.931116 0)
(0.196734 -1.01204 0)
(0.247219 -1.07028 0)
(0.288882 -1.11283 0)
(0.324034 -1.14281 0)
(0.354132 -1.16185 0)
(0.37967 -1.17065 0)
(-0.0342243 0.0137686 0)
(0.0364839 -0.67468 0)
(0.112729 -0.9358 0)
(0.159007 -1.0482 0)
(0.20379 -1.10846 0)
(0.244442 -1.15039 0)
(0.276244 -1.18009 0)
(0.302305 -1.1995 0)
(0.3244 -1.20951 0)
(0.342946 -1.21008 0)
(-0.0485146 0.0771675 0)
(0.0788491 -0.872054 0)
(0.141741 -1.07096 0)
(0.174929 -1.14335 0)
(0.207256 -1.18133 0)
(0.236902 -1.20904 0)
(0.259438 -1.22852 0)
(0.27763 -1.23984 0)
(0.292961 -1.243 0)
(0.305678 -1.23719 0)
(-0.00100068 0.081652 0)
(0.138378 -1.05975 0)
(0.167274 -1.17031 0)
(0.186897 -1.20725 0)
(0.207489 -1.22993 0)
(0.22647 -1.24844 0)
(0.241119 -1.26123 0)
(0.25305 -1.26707 0)
(0.263013 -1.26536 0)
(0.270975 -1.25485 0)
(0.0527994 0.0128924 0)
(0.179497 -1.14767 0)
(0.182848 -1.21637 0)
(0.192517 -1.24009 0)
(0.203825 -1.25746 0)
(0.214195 -1.2722 0)
(0.222781 -1.2816 0)
(0.230039 -1.28428 0)
(0.236098 -1.27962 0)
(0.240803 -1.26674 0)
(0.0444957 -0.2692 0)
(0.177144 -1.16686 0)
(0.185908 -1.23095 0)
(0.19021 -1.25346 0)
(0.195102 -1.27083 0)
(0.199913 -1.28467 0)
(0.204283 -1.29249 0)
(0.207873 -1.29302 0)
(0.210162 -1.28578 0)
(0.210432 -1.27062 0)
(0.0805895 -0.992477 0)
(0.165884 -1.18628 0)
(0.178862 -1.23699 0)
(0.180719 -1.25856 0)
(0.182395 -1.27653 0)
(0.184593 -1.29049 0)
(0.186852 -1.29741 0)
(0.188528 -1.29585 0)
(0.188764 -1.28525 0)
(0.186675 -1.26581 0)
(0.163239 -1.11881 0)
(0.168356 -1.21201 0)
(0.169309 -1.23964 0)
(0.168622 -1.25868 0)
(0.1683 -1.27834 0)
(0.16932 -1.29353 0)
(0.170897 -1.30038 0)
(0.172292 -1.29744 0)
(0.172672 -1.28382 0)
(0.171287 -1.25932 0)
(0.160561 -1.17367 0)
(0.154691 -1.21373 0)
(0.154208 -1.23226 0)
(0.152014 -1.255 0)
(0.151525 -1.27889 0)
(0.152805 -1.29619 0)
(0.15462 -1.30373 0)
(0.156618 -1.30073 0)
(0.158593 -1.28601 0)
(0.160025 -1.25812 0)
(0.131458 -1.13051 0)
(0.133139 -1.19269 0)
(0.133823 -1.22172 0)
(0.132276 -1.25288 0)
(0.132944 -1.28084 0)
(0.134752 -1.29946 0)
(0.136644 -1.30754 0)
(0.138756 -1.30524 0)
(0.141465 -1.29119 0)
(0.144047 -1.26284 0)
(0.0961135 -1.09751 0)
(0.105851 -1.17465 0)
(0.1088 -1.21837 0)
(0.110771 -1.25593 0)
(0.113352 -1.28529 0)
(0.115768 -1.30368 0)
(0.117851 -1.3118 0)
(0.120256 -1.31048 0)
(0.123824 -1.29845 0)
(0.12677 -1.27282 0)
(0.0651457 -1.10168 0)
(0.0770156 -1.18288 0)
(0.0842666 -1.22804 0)
(0.0898925 -1.26453 0)
(0.0937166 -1.29199 0)
(0.0963391 -1.30878 0)
(0.0983649 -1.31643 0)
(0.100745 -1.31628 0)
(0.104347 -1.30759 0)
(0.106193 -1.28797 0)
(0.0473333 -1.13345 0)
(0.0582368 -1.20357 0)
(0.066096 -1.24253 0)
(0.0721343 -1.27459 0)
(0.0756815 -1.2988 0)
(0.0777266 -1.3133 0)
(0.0790278 -1.31998 0)
(0.0803972 -1.32055 0)
(0.082162 -1.31497 0)
(0.0819455 -1.30221 0)
(0.0383845 -1.16796 0)
(0.0476332 -1.22251 0)
(0.0538443 -1.25435 0)
(0.0580823 -1.28205 0)
(0.0601808 -1.30324 0)
(0.0609265 -1.31544 0)
(0.0609111 -1.32093 0)
(0.0606531 -1.32164 0)
(0.0601776 -1.31774 0)
(0.0586098 -1.30853 0)
(0.0385911 -1.18847 0)
(0.0422693 -1.23155 0)
(0.0450438 -1.25962 0)
(0.0464448 -1.28508 0)
(0.0465912 -1.30418 0)
(0.0457991 -1.31442 0)
(0.0443032 -1.31872 0)
(0.0423093 -1.31926 0)
(0.0398863 -1.31632 0)
(0.0372961 -1.3093 0)
(0.0254889 -1.19945 0)
(0.0290984 -1.23639 0)
(0.0324448 -1.26274 0)
(0.0340214 -1.2863 0)
(0.0337349 -1.30308 0)
(0.0321898 -1.3111 0)
(0.0297189 -1.31394 0)
(0.0264481 -1.31391 0)
(0.0226945 -1.31138 0)
(0.019502 -1.30594 0)
(0.0179115 -1.2108 0)
(0.0206833 -1.2434 0)
(0.0235335 -1.26664 0)
(0.0245266 -1.287 0)
(0.0234965 -1.3008 0)
(0.021216 -1.30624 0)
(0.0179537 -1.30732 0)
(0.0136943 -1.3064 0)
(0.00897075 -1.30393 0)
(0.00533012 -1.29957 0)
(0.0149571 -1.22072 0)
(0.0158316 -1.24967 0)
(0.0175205 -1.26877 0)
(0.0176064 -1.286 0)
(0.0158278 -1.29708 0)
(0.0129257 -1.30003 0)
(0.00910194 -1.29922 0)
(0.00409618 -1.29715 0)
(-0.00141093 -1.29448 0)
(-0.00543931 -1.29084 0)
(0.0164716 -1.23798 0)
(0.0145931 -1.25398 0)
(0.0141513 -1.26821 0)
(0.0133406 -1.28328 0)
(0.0108689 -1.29195 0)
(0.0073007 -1.29274 0)
(0.0031504 -1.29001 0)
(-0.00238239 -1.28649 0)
(-0.00858743 -1.28326 0)
(-0.0129728 -1.28011 0)
(0.0210488 -1.24112 0)
(0.0169764 -1.25018 0)
(0.0135562 -1.26383 0)
(0.0117597 -1.27883 0)
(0.00842371 -1.28494 0)
(0.00383826 -1.28443 0)
(-0.000352168 -1.28015 0)
(-0.00597549 -1.27479 0)
(-0.0127074 -1.27039 0)
(-0.0174681 -1.26738 0)
(0.0229072 -1.23019 0)
(0.0181308 -1.23969 0)
(0.0136211 -1.2578 0)
(0.0115019 -1.2736 0)
(0.00768904 -1.27586 0)
(0.00158812 -1.27541 0)
(-0.00220657 -1.27077 0)
(-0.00718625 -1.26297 0)
(-0.0141127 -1.25611 0)
(-0.0191784 -1.25247 0)
(0.0208144 -1.21067 0)
(0.0165627 -1.2268 0)
(0.0138153 -1.254 0)
(0.0112853 -1.26836 0)
(0.00816213 -1.26493 0)
(-0.00020207 -1.2657 0)
(-0.00319515 -1.26346 0)
(-0.00667259 -1.25306 0)
(-0.0128461 -1.24116 0)
(-0.0178283 -1.23477 0)
(0.0138253 -1.18191 0)
(0.0116688 -1.21596 0)
(0.0154888 -1.2554 0)
(0.0104586 -1.26119 0)
(0.00949769 -1.25235 0)
(-0.00222177 -1.25405 0)
(-0.00414097 -1.25806 0)
(-0.00626648 -1.24799 0)
(-0.00855435 -1.22703 0)
(-0.0122545 -1.21171 0)
(0.0054842 -1.13591 0)
(0.00308295 -1.21502 0)
(0.020845 -1.26117 0)
(0.0083871 -1.24881 0)
(0.0107218 -1.23928 0)
(-0.00451962 -1.24032 0)
(-0.00432135 -1.24982 0)
(-0.00992557 -1.25024 0)
(-0.000933517 -1.21839 0)
(-0.00391919 -1.17458 0)
(0.00853704 -1.05663 0)
(-0.0117743 -1.24737 0)
(0.0268636 -1.26685 0)
(0.00260447 -1.23337 0)
(0.0098791 -1.2283 0)
(-0.00511736 -1.22876 0)
(0.00153421 -1.23497 0)
(-0.0179439 -1.26057 0)
(0.0141051 -1.24228 0)
(-0.00330876 -1.09628 0)
(0.0485807 0.00128156 0)
(0.047111 0.00206171 0)
(0.0449715 0.00291689 0)
(0.0421169 0.00375813 0)
(0.0385725 0.00445858 0)
(0.0344723 0.00486967 0)
(0.0301129 0.00484979 0)
(0.0259284 0.00434712 0)
(0.0223272 0.00346072 0)
(0.0195532 0.00236648 0)
(0.0177046 0.00117726 0)
(0.0167784 7.45839e-05 0)
(0.0166194 -0.000701043 0)
(0.0170245 -0.00126609 0)
(0.0178653 -0.00175642 0)
(0.0189566 -0.00188118 0)
(0.02 -0.00154116 0)
(0.0206965 -0.000727427 0)
(0.0206472 0.00046507 0)
(0.0196275 0.00173316 0)
(0.0177453 0.00251287 0)
(0.0156425 0.00231101 0)
(0.0141096 0.00135466 0)
(0.0134275 0.000223106 0)
(0.013454 -0.000719096 0)
(0.0140292 -0.00134877 0)
(0.0149276 -0.0015775 0)
(0.0158223 -0.00126729 0)
(0.0163439 -0.0002321 0)
(0.0157565 0.00153754 0)
(0.0134894 0.00350364 0)
(0.00990104 0.00430721 0)
(0.00641849 0.00340954 0)
(0.00408443 0.00189171 0)
(0.00271378 0.00100645 0)
(0.00183918 0.000617504 0)
(0.00125148 0.000436246 0)
(0.00085918 0.000356461 0)
(0.000553472 0.000352639 0)
(0.000329818 0.000494681 0)
(0.0461733 0.0028131 0)
(0.0453173 0.00435546 0)
(0.044014 0.00610041 0)
(0.0421653 0.00791201 0)
(0.0397133 0.0095492 0)
(0.0366868 0.0106678 0)
(0.0332753 0.0109135 0)
(0.0298289 0.0101335 0)
(0.0266998 0.00850626 0)
(0.0240941 0.00639605 0)
(0.0220789 0.00413978 0)
(0.0206523 0.00199414 0)
(0.0197801 0.000232673 0)
(0.0193774 -0.00107865 0)
(0.0192984 -0.00194653 0)
(0.0193943 -0.00218065 0)
(0.0195192 -0.00166835 0)
(0.0195184 -0.000407873 0)
(0.0192493 0.00144458 0)
(0.0185094 0.00349187 0)
(0.0171508 0.00484107 0)
(0.0155786 0.00444546 0)
(0.0143813 0.00285697 0)
(0.0136463 0.00105231 0)
(0.0132638 -0.000488939 0)
(0.0131467 -0.00154682 0)
(0.0132079 -0.00192912 0)
(0.0133242 -0.00139915 0)
(0.0132939 0.000353851 0)
(0.0129761 0.00346117 0)
(0.0118386 0.00760586 0)
(0.00977931 0.00896867 0)
(0.00769359 0.00734582 0)
(0.00608041 0.00475066 0)
(0.00464884 0.00305101 0)
(0.00323388 0.00205693 0)
(0.00206804 0.00134545 0)
(0.00124478 0.000899199 0)