/*--------------------------------*- C++ -*----------------------------------*\
  =========                 |
  \\      /  F ield         | OpenFOAM: The Open Source CFD Toolbox
   \\    /   O peration     | Website:  https://openfoam.org
    \\  /    A nd           | Version:  8
     \\/     M anipulation  |
\*---------------------------------------------------------------------------*/
FoamFile
{
    version     2.0;
    format      ascii;
    class       surfaceScalarField;
    location    "0.5";
    object      phi;
}
// * * * * * * * * * * * * * * * * * * * * * * * * * * * * * * * * * * * * * //

dimensions      [0 3 -1 0 0 0 0];

internalField   nonuniform List<scalar> 
18095
(
1.58749e-07
-9.64329e-07
8.0558e-07
1.65963e-07
-1.24807e-06
1.24086e-06
1.22828e-07
-1.24251e-06
1.28564e-06
6.56958e-08
-1.26391e-06
1.32105e-06
8.72214e-13
-1.28118e-06
1.34687e-06
-6.56942e-08
-1.28118e-06
1.34687e-06
-1.22827e-07
-1.26391e-06
1.32105e-06
-1.65963e-07
-1.24251e-06
1.28564e-06
-1.58749e-07
-1.24807e-06
1.24086e-06
-9.6433e-07
8.05581e-07
1.11314e-07
-1.07564e-06
9.99506e-08
-1.23671e-06
7.33327e-08
-1.21589e-06
4.03191e-08
-1.2309e-06
5.72778e-13
-1.24086e-06
-4.03181e-08
-1.24086e-06
-7.33318e-08
-1.2309e-06
-9.995e-08
-1.21589e-06
-1.11313e-07
-1.23671e-06
-1.07564e-06
6.75236e-08
-1.14317e-06
5.31832e-08
-1.22237e-06
4.24674e-08
-1.20517e-06
2.40557e-08
-1.21249e-06
3.58159e-13
-1.21681e-06
-2.4055e-08
-1.21681e-06
-4.24668e-08
-1.21249e-06
-5.31828e-08
-1.20517e-06
-6.75233e-08
-1.22237e-06
-1.14317e-06
3.99399e-08
-1.18311e-06
2.68943e-08
-1.20932e-06
2.22193e-08
-1.2005e-06
1.26581e-08
-1.20293e-06
1.95746e-13
-1.20415e-06
-1.26577e-08
-1.20415e-06
-2.2219e-08
-1.20293e-06
-2.68941e-08
-1.2005e-06
-3.99397e-08
-1.20932e-06
-1.18311e-06
1.68942e-08
7.57201e-09
7.07491e-09
4.14798e-09
8.13538e-14
-4.14783e-09
-7.07478e-09
-7.57191e-09
-1.68941e-08
-1.76323e-07
-1.16213e-06
1.33845e-06
-2.20405e-07
-1.21559e-06
1.25967e-06
-1.66255e-07
-1.21278e-06
1.15863e-06
-8.77081e-08
-1.20511e-06
1.12656e-06
9.42806e-12
-1.20439e-06
1.11667e-06
8.77265e-08
-1.20439e-06
1.11667e-06
1.66272e-07
-1.20511e-06
1.12656e-06
2.2042e-07
-1.21278e-06
1.15863e-06
1.76336e-07
-1.2156e-06
1.25968e-06
-1.16214e-06
1.33847e-06
-9.29605e-08
-1.06917e-06
-9.58991e-08
-1.21265e-06
-7.95349e-08
-1.22914e-06
-4.43786e-08
-1.24026e-06
5.32809e-12
-1.24877e-06
4.43888e-08
-1.24877e-06
7.9544e-08
-1.24026e-06
9.59064e-08
-1.22914e-06
9.29647e-08
-1.21265e-06
-1.06917e-06
-5.79031e-08
-1.01127e-06
-5.49894e-08
-1.21556e-06
-4.62872e-08
-1.23784e-06
-2.69679e-08
-1.25958e-06
3.19419e-12
-1.27574e-06
2.6974e-08
-1.27574e-06
4.62924e-08
-1.25958e-06
5.49931e-08
-1.23785e-06
5.7905e-08
-1.21557e-06
-1.01127e-06
-7.47049e-08
-9.3656e-07
-6.1672e-08
-1.2286e-06
-4.8132e-08
-1.25138e-06
-2.74557e-08
-1.28026e-06
1.98866e-12
-1.3032e-06
2.74595e-08
-1.3032e-06
4.81351e-08
-1.28026e-06
6.16741e-08
-1.25138e-06
7.47059e-08
-1.2286e-06
-9.36562e-07
-1.30981e-07
-1.1872e-07
-8.44613e-08
-4.36733e-08
1.31091e-12
4.36757e-08
8.44633e-08
1.18721e-07
1.30981e-07
-6.65396e-08
-9.49856e-07
1.0164e-06
-6.30105e-09
-1.33396e-06
1.27372e-06
7.95651e-09
-1.26846e-06
1.2542e-06
3.23053e-09
-1.22517e-06
1.2299e-06
9.50042e-11
-1.22237e-06
1.22551e-06
-3.04818e-09
-1.22238e-06
1.22552e-06
-7.78595e-09
-1.22519e-06
1.22993e-06
6.52055e-09
-1.26847e-06
1.25416e-06
6.67861e-08
-1.33399e-06
1.27373e-06
-9.5016e-07
1.01695e-06
3.8227e-09
-9.53679e-07
1.30083e-08
-1.34314e-06
1.01778e-08
-1.26563e-06
5.15262e-09
-1.22015e-06
7.82571e-11
-1.2173e-06
-4.99096e-09
-1.21731e-06
-1.0033e-08
-1.22015e-06
-1.28711e-08
-1.26563e-06
-3.68691e-09
-1.34318e-06
-9.53847e-07
2.42257e-08
-9.77904e-07
1.69507e-08
-1.33587e-06
9.35512e-09
-1.25803e-06
5.53983e-09
-1.21633e-06
4.39459e-11
-1.2118e-06
-5.46158e-09
-1.2118e-06
-9.27015e-09
-1.21634e-06
-1.68641e-08
-1.25804e-06
-2.41482e-08
-1.33589e-06
-9.77995e-07
7.6979e-08
-1.05488e-06
5.19733e-08
-1.31086e-06
3.36151e-08
-1.23967e-06
2.05163e-08
-1.20323e-06
2.56768e-11
-1.19131e-06
-2.04663e-08
-1.19131e-06
-3.35625e-08
-1.20324e-06
-5.19156e-08
-1.23968e-06
-7.69341e-08
-1.31087e-06
-1.05493e-06
2.83568e-07
2.32374e-07
1.5133e-07
7.46546e-08
1.57977e-11
-7.46233e-08
-1.51302e-07
-2.3235e-07
-2.83545e-07
-1.11362e-06
-2.61349e-07
1.37497e-06
-8.42655e-07
-2.70967e-07
-5.65776e-07
-2.76879e-07
-2.85852e-07
-2.79924e-07
-5.66776e-09
-2.80184e-07
2.745e-07
-2.80167e-07
5.54435e-07
-2.79935e-07
8.31406e-07
-2.76971e-07
1.10257e-06
-2.71161e-07
-2.61688e-07
1.36426e-06
-8.56368e-07
-4.57757e-07
1.05278e-06
-6.50925e-07
-4.7641e-07
-4.39201e-07
-4.88603e-07
-2.23266e-07
-4.95859e-07
-4.28572e-09
-4.99164e-07
2.14747e-07
-4.992e-07
4.30793e-07
-4.95982e-07
6.4267e-07
-4.88848e-07
8.48341e-07
-4.76833e-07
-4.58438e-07
1.04509e-06
-6.55812e-07
-6.09913e-07
8.07967e-07
-4.97513e-07
-6.34709e-07
-3.34976e-07
-6.51139e-07
-1.69725e-07
-6.61111e-07
-3.05319e-09
-6.65836e-07
1.63643e-07
-6.65896e-07
3.28962e-07
-6.61301e-07
4.91612e-07
-6.51498e-07
6.50083e-07
-6.35304e-07
-6.10849e-07
8.02494e-07
-4.90621e-07
-7.24253e-07
6.0496e-07
-3.71911e-07
-7.53418e-07
-2.50215e-07
-7.72836e-07
-1.266e-07
-7.84725e-07
-2.035e-09
-7.90401e-07
1.2255e-07
-7.90481e-07
2.46227e-07
-7.84978e-07
3.6803e-07
-7.73301e-07
4.86894e-07
-7.54169e-07
-7.2541e-07
6.01456e-07
-3.55427e-07
-8.07297e-07
4.38471e-07
-2.69459e-07
-8.39386e-07
-1.81324e-07
-8.60971e-07
-9.16734e-08
-8.74376e-07
-1.22865e-09
-8.80846e-07
8.9237e-08
-8.80947e-07
1.78949e-07
-8.7469e-07
2.67184e-07
-8.61536e-07
3.53287e-07
-8.40271e-07
-8.08623e-07
4.365e-07
-2.68782e-07
-8.74159e-07
3.35644e-07
-2.0224e-07
-9.05928e-07
-1.35433e-07
-9.27778e-07
-6.82249e-08
-9.41584e-07
-7.35851e-10
-9.48335e-07
6.67572e-08
-9.4844e-07
1.33974e-07
-9.41907e-07
2.00785e-07
-9.28347e-07
2.67323e-07
-9.06809e-07
-8.75453e-07
3.34153e-07
-2.29102e-07
-9.3723e-07
2.92172e-07
-1.69829e-07
-9.65201e-07
-1.12544e-07
-9.85062e-07
-5.63e-08
-9.97829e-07
-4.88629e-10
-1.00415e-06
5.5309e-08
-1.00424e-06
1.11504e-07
-9.98102e-07
1.68681e-07
-9.85524e-07
2.27752e-07
-9.6588e-07
-9.38203e-07
2.90503e-07
-2.17021e-07
-1.00087e-06
2.80661e-07
-1.59191e-07
-1.02303e-06
-1.047e-07
-1.03955e-06
-5.21077e-08
-1.05042e-06
-3.88747e-10
-1.05587e-06
5.13181e-08
-1.05594e-06
1.03871e-07
-1.05066e-06
1.58282e-07
-1.03994e-06
2.15932e-07
-1.02353e-06
-1.00135e-06
2.79077e-07
-2.15141e-07
-1.06363e-06
2.779e-07
-1.57859e-07
-1.08031e-06
-1.03813e-07
-1.0936e-06
-5.16774e-08
-1.10256e-06
-4.65326e-10
-1.10708e-06
5.07266e-08
-1.10714e-06
1.02803e-07
-1.10273e-06
1.56754e-07
-1.09389e-06
2.13906e-07
-1.08068e-06
-1.06397e-06
2.76531e-07
-2.1476e-07
-1.12262e-06
2.73746e-07
-1.58694e-07
-1.13638e-06
-1.04741e-07
-1.14755e-06
-5.22372e-08
-1.15506e-06
-4.90909e-10
-1.15882e-06
5.12337e-08
-1.15886e-06
1.03675e-07
-1.15517e-06
1.57537e-07
-1.14775e-06
2.13544e-07
-1.13669e-06
-1.12306e-06
2.72628e-07
-2.11894e-07
-1.17795e-06
2.67233e-07
-1.57446e-07
-1.19083e-06
-1.0422e-07
-1.20078e-06
-5.20218e-08
-1.20726e-06
-3.91921e-10
-1.21045e-06
5.12305e-08
-1.21048e-06
1.03406e-07
-1.20735e-06
1.5659e-07
-1.20093e-06
2.1094e-07
-1.19104e-06
-1.17829e-06
2.6617e-07
-2.06759e-07
-1.23288e-06
2.61689e-07
-1.53483e-07
-1.2441e-06
-1.01715e-07
-1.25255e-06
-5.08137e-08
-1.25816e-06
-3.35709e-10
-1.26093e-06
5.01399e-08
-1.26096e-06
1.01031e-07
-1.25824e-06
1.52771e-07
-1.25267e-06
2.0597e-07
-1.24424e-06
-1.23305e-06
2.6073e-07
-1.99884e-07
-1.28562e-06
2.52617e-07
-1.48619e-07
-1.29537e-06
-9.85877e-08
-1.30258e-06
-4.92871e-08
-1.30746e-06
-3.29e-10
-1.30989e-06
4.86298e-08
-1.30992e-06
9.79319e-08
-1.30754e-06
1.47961e-07
-1.3027e-06
1.99209e-07
-1.29549e-06
-1.28574e-06
2.51902e-07
-1.92068e-07
-1.33592e-06
2.42371e-07
-1.43158e-07
-1.34428e-06
-9.5131e-08
-1.3506e-06
-4.76087e-08
-1.35498e-06
-3.22268e-10
-1.35718e-06
4.69649e-08
-1.3572e-06
9.44949e-08
-1.35507e-06
1.4255e-07
-1.35076e-06
1.91523e-07
-1.34446e-06
-1.33602e-06
2.41802e-07
-1.83469e-07
-1.38356e-06
2.31103e-07
-1.37166e-07
-1.39058e-06
-9.13046e-08
-1.39647e-06
-4.56971e-08
-1.40059e-06
-2.41459e-10
-1.40263e-06
4.52093e-08
-1.40266e-06
9.08086e-08
-1.40067e-06
1.36695e-07
-1.39664e-06
1.8311e-07
-1.39087e-06
-1.38378e-06
2.30873e-07
-1.75077e-07
-1.42854e-06
2.2006e-07
-1.30884e-07
-1.43477e-06
-8.70579e-08
-1.44029e-06
-4.3507e-08
-1.44414e-06
-9.18316e-11
-1.44605e-06
4.33222e-08
-1.44607e-06
8.68614e-08
-1.44421e-06
1.30619e-07
-1.4404e-06
1.74673e-07
-1.43493e-06
-1.42873e-06
2.19626e-07
-1.66597e-07
-1.47123e-06
2.09291e-07
-1.24381e-07
-1.47699e-06
-8.26365e-08
-1.48204e-06
-4.12447e-08
-1.48553e-06
-8.51819e-12
-1.48728e-06
4.1221e-08
-1.4873e-06
8.25925e-08
-1.48558e-06
1.24314e-07
-1.48212e-06
1.66511e-07
-1.47712e-06
-1.4714e-06
2.0918e-07
-1.57527e-07
-1.51159e-06
1.97885e-07
-1.17646e-07
-1.51687e-06
-7.81595e-08
-1.52152e-06
-3.89779e-08
-1.52471e-06
5.31079e-11
-1.52631e-06
3.90791e-08
-1.52632e-06
7.82463e-08
-1.52475e-06
1.1771e-07
-1.52158e-06
1.57563e-07
-1.51698e-06
-1.5117e-06
1.97863e-07
-1.48398e-07
-1.54965e-06
1.86458e-07
-1.10812e-07
-1.55446e-06
-7.36023e-08
-1.55873e-06
-3.66814e-08
-1.56164e-06
9.86164e-11
-1.56309e-06
3.68739e-08
-1.5631e-06
7.37797e-08
-1.56166e-06
1.1096e-07
-1.55877e-06
1.48497e-07
-1.55452e-06
-1.54969e-06
1.86483e-07
-1.39227e-07
-1.58538e-06
1.7496e-07
-1.03931e-07
-1.58975e-06
-6.90151e-08
-1.59365e-06
-3.43814e-08
-1.59627e-06
1.15142e-10
-1.59759e-06
3.46071e-08
-1.59759e-06
6.92259e-08
-1.59627e-06
1.04113e-07
-1.59365e-06
1.39364e-07
-1.58977e-06
-1.58536e-06
1.75039e-07
-1.30007e-07
-1.61876e-06
1.63381e-07
-9.70253e-08
-1.62273e-06
-6.44202e-08
-1.62625e-06
-3.20863e-08
-1.6286e-06
1.15447e-10
-1.62979e-06
3.2314e-08
-1.62979e-06
6.4637e-08
-1.6286e-06
9.72203e-08
-1.62624e-06
1.30162e-07
-1.62271e-06
-1.61868e-06
1.63476e-07
-1.20753e-07
-1.64979e-06
1.51783e-07
-9.01033e-08
-1.65338e-06
-5.9822e-08
-1.65653e-06
-2.97958e-08
-1.65863e-06
1.06751e-10
-1.65969e-06
3.00085e-08
-1.65969e-06
6.00312e-08
-1.65862e-06
9.03036e-08
-1.65651e-06
1.2093e-07
-1.65333e-06
-1.64965e-06
1.51901e-07
-1.11517e-07
-1.67849e-06
1.40221e-07
-8.32098e-08
-1.68169e-06
-5.52508e-08
-1.68449e-06
-2.75226e-08
-1.68636e-06
9.36679e-11
-1.68731e-06
2.77104e-08
-1.68731e-06
5.54405e-08
-1.68635e-06
8.34035e-08
-1.68447e-06
1.11711e-07
-1.68164e-06
-1.67833e-06
1.4039e-07
-1.0232e-07
-1.70462e-06
1.2845e-07
-7.63769e-08
-1.70763e-06
-5.07185e-08
-1.71015e-06
-2.52585e-08
-1.71182e-06
1.03199e-10
-1.71267e-06
2.54665e-08
-1.71267e-06
5.09319e-08
-1.71182e-06
7.66042e-08
-1.71014e-06
1.02589e-07
-1.70763e-06
-1.70465e-06
1.28907e-07
-9.32586e-08
-1.72841e-06
1.17048e-07
-6.96133e-08
-1.73128e-06
-4.62193e-08
-1.73355e-06
-2.29944e-08
-1.73504e-06
1.47595e-10
-1.73581e-06
2.32937e-08
-1.73582e-06
4.65311e-08
-1.73505e-06
6.99454e-08
-1.73356e-06
9.36071e-08
-1.73129e-06
-1.72841e-06
1.17368e-07
-8.44158e-08
-1.74995e-06
1.05951e-07
-6.2995e-08
-1.7527e-06
-4.18136e-08
-1.75473e-06
-2.0774e-08
-1.75608e-06
1.98037e-10
-1.75679e-06
2.11745e-08
-1.7568e-06
4.22282e-08
-1.75611e-06
6.34337e-08
-1.75476e-06
8.48698e-08
-1.75272e-06
-1.74999e-06
1.06453e-07
-7.58169e-08
-1.76916e-06
9.50287e-08
-5.65797e-08
-1.77194e-06
-3.75446e-08
-1.77376e-06
-1.86158e-08
-1.77501e-06
2.62107e-10
-1.77566e-06
1.91416e-08
-1.77567e-06
3.80805e-08
-1.77505e-06
5.71418e-08
-1.77382e-06
7.64185e-08
-1.772e-06
-1.76934e-06
9.57717e-08
-6.75834e-08
-1.78628e-06
8.47048e-08
-5.04331e-08
-1.78909e-06
-3.3425e-08
-1.79077e-06
-1.65132e-08
-1.79192e-06
3.48231e-10
-1.79253e-06
1.72088e-08
-1.79254e-06
3.41133e-08
-1.79195e-06
5.11076e-08
-1.79082e-06
6.82716e-08
-1.78917e-06
-1.78647e-06
8.53981e-08
-5.97501e-08
-1.80144e-06
7.49128e-08
-4.45649e-08
-1.80427e-06
-2.94911e-08
-1.80584e-06
-1.45154e-08
-1.8069e-06
4.06807e-10
-1.80745e-06
1.5327e-08
-1.80746e-06
3.02969e-08
-1.80692e-06
4.53589e-08
-1.80588e-06
6.0529e-08
-1.80434e-06
-1.80161e-06
7.56716e-08
-5.2252e-08
-1.81474e-06
6.55454e-08
-3.89458e-08
-1.81758e-06
-2.5743e-08
-1.81905e-06
-1.26256e-08
-1.82002e-06
4.45622e-10
-1.82052e-06
1.35153e-08
-1.82053e-06
2.66281e-08
-1.82003e-06
3.98226e-08
-1.81907e-06
5.31121e-08
-1.81763e-06
-1.81488e-06
6.63809e-08
-4.51255e-08
-1.82625e-06
5.66376e-08
-3.36083e-08
-1.8291e-06
-2.21858e-08
-1.83047e-06
-1.08377e-08
-1.83136e-06
4.7003e-10
-1.83183e-06
1.17763e-08
-1.83183e-06
2.31199e-08
-1.83138e-06
3.45343e-08
-1.83049e-06
4.6038e-08
-1.82913e-06
-1.82638e-06
5.75336e-08
-3.838e-08
-1.83608e-06
4.82067e-08
-2.85577e-08
-1.83892e-06
-1.88209e-08
-1.84021e-06
-9.15049e-09
-1.84103e-06
4.84157e-10
-1.84146e-06
1.01176e-08
-1.84146e-06
1.97845e-08
-1.84104e-06
2.95151e-08
-1.84022e-06
3.9329e-08
-1.83894e-06
-1.8362e-06
4.915e-08
-3.20094e-08
-1.84432e-06
4.02526e-08
-2.37876e-08
-1.84714e-06
-1.56441e-08
-1.84835e-06
-7.55989e-09
-1.84912e-06
4.92644e-10
-1.84951e-06
8.54435e-09
-1.84952e-06
1.66262e-08
-1.84912e-06
2.47658e-08
-1.84836e-06
3.29825e-08
-1.84716e-06
-1.84444e-06
4.12236e-08
-2.60052e-08
-1.85107e-06
3.27524e-08
-1.92925e-08
-1.85385e-06
-1.2651e-08
-1.85499e-06
-6.06234e-09
-1.85571e-06
4.98326e-10
-1.85607e-06
7.05848e-09
-1.85608e-06
1.36457e-08
-1.85571e-06
2.0285e-08
-1.855e-06
2.69948e-08
-1.85387e-06
-1.85118e-06
3.37384e-08
-2.03577e-08
-1.8564e-06
2.56879e-08
-1.50661e-08
-1.85914e-06
-9.83735e-09
-1.86022e-06
-4.65497e-09
-1.86089e-06
5.02863e-10
-1.86123e-06
5.66044e-09
-1.86123e-06
1.08421e-08
-1.86089e-06
1.60697e-08
-1.86023e-06
2.13598e-08
-1.85916e-06
-1.85651e-06
2.66875e-08
-1.50648e-08
-1.8604e-06
1.90688e-08
-1.11039e-08
-1.86311e-06
-7.19915e-09
-1.86412e-06
-3.33539e-09
-1.86475e-06
5.06886e-10
-1.86508e-06
4.34907e-09
-1.86508e-06
8.21264e-09
-1.86476e-06
1.21173e-08
-1.86413e-06
1.60783e-08
-1.86312e-06
-1.86051e-06
2.00811e-08
-1.01146e-08
-1.86317e-06
1.28805e-08
-7.39851e-09
-1.86582e-06
-4.73201e-09
-1.86679e-06
-2.10126e-09
-1.86738e-06
5.10736e-10
-1.86769e-06
3.12273e-09
-1.86769e-06
5.75351e-09
-1.86739e-06
8.4201e-09
-1.8668e-06
1.11362e-08
-1.86584e-06
-1.86328e-06
1.39021e-08
-5.50421e-09
-1.86478e-06
7.11981e-09
-3.94503e-09
-1.86738e-06
-2.43152e-09
-1.8683e-06
-9.50187e-10
-1.86887e-06
5.14446e-10
-1.86915e-06
1.97911e-09
-1.86915e-06
3.46059e-09
-1.86887e-06
4.97455e-09
-1.86831e-06
6.53459e-09
-1.8674e-06
-1.86489e-06
8.15107e-09
-1.21638e-09
-1.86534e-06
1.77077e-09
-7.32315e-10
-1.86787e-06
-2.9121e-10
-1.86875e-06
1.20802e-10
-1.86928e-06
5.17889e-10
-1.86955e-06
9.14997e-10
-1.86955e-06
1.32716e-09
-1.86928e-06
1.7685e-09
-1.86875e-06
2.25253e-09
-1.86788e-06
-1.86545e-06
2.80399e-09
2.76566e-09
-1.8649e-06
-3.20515e-09
2.25008e-09
-1.86735e-06
1.69539e-09
-1.86819e-06
1.11481e-09
-1.8687e-06
5.20956e-10
-1.86895e-06
-7.28668e-11
-1.86896e-06
-6.53395e-10
-1.8687e-06
-1.20802e-09
-1.8682e-06
-1.72394e-09
-1.86736e-06
-1.865e-06
-2.16833e-09
6.45255e-09
-1.86353e-06
-7.81756e-09
5.0105e-09
-1.86591e-06
3.53368e-09
-1.86671e-06
2.03399e-09
-1.8672e-06
5.22676e-10
-1.86744e-06
-9.8863e-10
-1.86745e-06
-2.48823e-09
-1.8672e-06
-3.96493e-09
-1.86672e-06
-5.40707e-09
-1.86592e-06
-1.86363e-06
-6.77542e-09
9.85659e-09
-1.86132e-06
-1.20723e-08
7.55959e-09
-1.86361e-06
5.23115e-09
-1.86439e-06
2.8824e-09
-1.86485e-06
5.23373e-10
-1.86508e-06
-1.83564e-09
-1.86509e-06
-4.18433e-09
-1.86485e-06
-6.51274e-09
-1.86439e-06
-8.81015e-09
-1.86362e-06
-1.86141e-06
-1.10319e-08
1.29942e-08
-1.85831e-06
-1.59973e-08
9.90875e-09
-1.86053e-06
6.79515e-09
-1.86127e-06
3.66361e-09
-1.86172e-06
5.23007e-10
-1.86194e-06
-2.61755e-09
-1.86195e-06
-5.74897e-09
-1.86172e-06
-8.86244e-09
-1.86128e-06
-1.19482e-08
-1.86054e-06
-1.8584e-06
-1.4958e-08
1.58791e-08
-1.85458e-06
-1.96075e-08
1.20686e-08
-1.85671e-06
8.23286e-09
-1.85744e-06
4.38118e-09
-1.85787e-06
5.21465e-10
-1.85808e-06
-3.33819e-09
-1.85809e-06
-7.18964e-09
-1.85787e-06
-1.10249e-08
-1.85744e-06
-1.48348e-08
-1.85673e-06
-1.85467e-06
-1.85656e-08
1.85259e-08
-1.85019e-06
-2.29157e-08
1.40509e-08
-1.85224e-06
9.55233e-09
-1.85294e-06
5.03933e-09
-1.85335e-06
5.19066e-10
-1.85356e-06
-4.00115e-09
-1.85357e-06
-8.51396e-09
-1.85336e-06
-1.3012e-08
-1.85295e-06
-1.74857e-08
-1.85226e-06
-1.85028e-06
-2.18742e-08
2.09512e-08
-1.8452e-06
-2.5943e-08
1.58679e-08
-1.84716e-06
1.07618e-08
-1.84783e-06
5.64231e-09
-1.84823e-06
5.16141e-10
-1.84844e-06
-4.61005e-09
-1.84844e-06
-9.72959e-09
-1.84824e-06
-1.48357e-08
-1.84784e-06
-1.9919e-08
-1.84717e-06
-1.84529e-06
-2.49141e-08
2.31735e-08
-1.83965e-06
-2.87217e-08
1.7532e-08
-1.84151e-06
1.18691e-08
-1.84217e-06
6.19389e-09
-1.84256e-06
5.12597e-10
-1.84276e-06
-5.1688e-09
-1.84276e-06
-1.08444e-08
-1.84256e-06
-1.65081e-08
-1.84218e-06
-2.21517e-08
-1.84153e-06
-1.83973e-06
-2.77121e-08
2.52087e-08
-1.83359e-06
-3.12753e-08
1.90545e-08
-1.83536e-06
1.28814e-08
-1.836e-06
6.69752e-09
-1.83637e-06
5.08166e-10
-1.83657e-06
-5.68133e-09
-1.83657e-06
-1.18657e-08
-1.83638e-06
-1.80397e-08
-1.836e-06
-2.41963e-08
-1.83537e-06
-1.83365e-06
-3.02749e-08
2.70687e-08
-1.82705e-06
-3.36108e-08
2.04455e-08
-1.82874e-06
1.38059e-08
-1.82936e-06
7.15681e-09
-1.82972e-06
5.02938e-10
-1.82991e-06
-6.15106e-09
-1.82991e-06
-1.28005e-08
-1.82973e-06
-1.94407e-08
-1.82936e-06
-2.60649e-08
-1.82875e-06
-1.8271e-06
-3.26121e-08
2.87655e-08
-1.82007e-06
-3.57371e-08
2.17149e-08
-1.82169e-06
1.46494e-08
-1.82229e-06
7.57549e-09
-1.82265e-06
4.97263e-10
-1.82284e-06
-6.58105e-09
-1.82284e-06
-1.36552e-08
-1.82265e-06
-2.07211e-08
-1.8223e-06
-2.77722e-08
-1.8217e-06
-1.82012e-06
-3.47483e-08
3.03129e-08
-1.81271e-06
-3.76756e-08
2.28728e-08
-1.81425e-06
1.54187e-08
-1.81484e-06
7.95697e-09
-1.81519e-06
4.91348e-10
-1.81537e-06
-6.97433e-09
-1.81537e-06
-1.44362e-08
-1.81519e-06
-2.18906e-08
-1.81484e-06
-2.93313e-08
-1.81426e-06
-1.81276e-06
-3.66999e-08
3.17241e-08
-1.80499e-06
-3.94452e-08
2.39285e-08
-1.80645e-06
1.61199e-08
-1.80703e-06
8.30431e-09
-1.80737e-06
4.85154e-10
-1.80755e-06
-7.33404e-09
-1.80755e-06
-1.51497e-08
-1.80738e-06
-2.29584e-08
-1.80703e-06
-3.0754e-08
-1.80646e-06
-1.80503e-06
-3.8478e-08
3.30106e-08
-1.79694e-06
-4.10573e-08
2.48909e-08
-1.79833e-06
1.67589e-08
-1.7989e-06
8.62044e-09
-1.79923e-06
4.78617e-10
-1.79941e-06
-7.66324e-09
-1.79941e-06
-1.58018e-08
-1.79924e-06
-2.39339e-08
-1.7989e-06
-3.20535e-08
-1.79834e-06
-1.79698e-06
-4.01021e-08
3.41842e-08
-1.7886e-06
-4.25286e-08
2.57687e-08
-1.78992e-06
1.73414e-08
-1.79047e-06
8.90814e-09
-1.7908e-06
4.71741e-10
-1.79097e-06
-7.96471e-09
-1.79097e-06
-1.63981e-08
-1.7908e-06
-2.48257e-08
-1.79047e-06
-3.32417e-08
-1.78992e-06
-1.78863e-06
-4.15907e-08
3.52559e-08
-1.77998e-06
-4.38754e-08
2.65696e-08
-1.78123e-06
1.78725e-08
-1.78177e-06
9.16995e-09
-1.7821e-06
4.64543e-10
-1.78227e-06
-8.24091e-09
-1.78227e-06
-1.69436e-08
-1.7821e-06
-2.5641e-08
-1.78178e-06
-3.4328e-08
-1.78124e-06
-1.78001e-06
-4.29523e-08
3.6234e-08
-1.77111e-06
-4.51054e-08
2.73003e-08
-1.7723e-06
1.83567e-08
-1.77283e-06
9.40821e-09
-1.77315e-06
4.57127e-10
-1.77332e-06
-8.49399e-09
-1.77332e-06
-1.74426e-08
-1.77315e-06
-2.63864e-08
-1.77283e-06
-3.53205e-08
-1.7723e-06
-1.77114e-06
-4.41953e-08
3.71265e-08
-1.76201e-06
-4.62275e-08
2.7967e-08
-1.76314e-06
1.87983e-08
-1.76366e-06
9.62519e-09
-1.76398e-06
4.49716e-10
-1.76414e-06
-8.72577e-09
-1.76414e-06
-1.78989e-08
-1.76398e-06
-2.70676e-08
-1.76366e-06
-3.62274e-08
-1.76314e-06
-1.76203e-06
-4.53312e-08
3.79413e-08
-1.7527e-06
-4.72524e-08
2.85754e-08
-1.75377e-06
1.92011e-08
-1.75429e-06
9.82293e-09
-1.7546e-06
4.42534e-10
-1.75476e-06
-8.93785e-09
-1.75476e-06
-1.8316e-08
-1.7546e-06
-2.76902e-08
-1.75429e-06
-3.70559e-08
-1.75378e-06
-1.75272e-06
-4.6369e-08
3.86853e-08
-1.74319e-06
-4.81891e-08
2.91309e-08
-1.74422e-06
1.95689e-08
-1.74472e-06
1.00033e-08
-1.74503e-06
4.35791e-10
-1.74519e-06
-9.13171e-09
-1.74519e-06
-1.86971e-08
-1.74504e-06
-2.82589e-08
-1.74473e-06
-3.78127e-08
-1.74422e-06
-1.74321e-06
-4.73164e-08
3.93645e-08
-1.73351e-06
-4.90435e-08
2.96381e-08
-1.73449e-06
1.99046e-08
-1.73499e-06
1.01681e-08
-1.7353e-06
4.29639e-10
-1.73545e-06
-9.30879e-09
-1.73545e-06
-1.90453e-08
-1.7353e-06
-2.87787e-08
-1.73499e-06
-3.85045e-08
-1.7345e-06
-1.73354e-06
-4.81835e-08
3.99848e-08
-1.72367e-06
-4.98237e-08
3.01014e-08
-1.72461e-06
2.02114e-08
-1.7251e-06
1.03187e-08
-1.7254e-06
4.24141e-10
-1.72556e-06
-9.47049e-09
-1.72556e-06
-1.93635e-08
-1.72541e-06
-2.92537e-08
-1.7251e-06
-3.91372e-08
-1.72462e-06
-1.7237e-06
-4.89773e-08
4.05517e-08
-1.71369e-06
-5.0537e-08
3.0525e-08
-1.71458e-06
2.0492e-08
-1.71507e-06
1.04565e-08
-1.71537e-06
4.19239e-10
-1.71552e-06
-9.61827e-09
-1.71552e-06
-1.96544e-08
-1.71537e-06
-2.96881e-08
-1.71507e-06
-3.97158e-08
-1.71459e-06
-1.71371e-06
-4.97037e-08
4.107e-08
-1.70357e-06
-5.11889e-08
3.09127e-08
-1.70442e-06
2.07491e-08
-1.7049e-06
1.05829e-08
-1.7052e-06
4.14766e-10
-1.70535e-06
-9.75378e-09
-1.70535e-06
-1.9921e-08
-1.7052e-06
-3.00862e-08
-1.70491e-06
-4.02457e-08
-1.70443e-06
-1.70358e-06
-5.03684e-08
4.15445e-08
-1.69333e-06
-5.1784e-08
3.12686e-08
-1.69415e-06
2.09855e-08
-1.69462e-06
1.06992e-08
-1.69492e-06
4.10528e-10
-1.69507e-06
-9.87877e-09
-1.69506e-06
-2.01668e-08
-1.69492e-06
-3.04526e-08
-1.69462e-06
-4.07317e-08
-1.69415e-06
-1.69334e-06
-5.09763e-08
4.19795e-08
-1.68298e-06
-5.23267e-08
3.15965e-08
-1.68376e-06
2.12036e-08
-1.68423e-06
1.08063e-08
-1.68452e-06
4.05911e-10
-1.68466e-06
-9.99539e-09
-1.68466e-06
-2.03953e-08
-1.68452e-06
-3.07921e-08
-1.68422e-06
-4.11802e-08
-1.68376e-06
-1.68299e-06
-5.15342e-08
4.23778e-08
-1.67254e-06
-5.28189e-08
3.18981e-08
-1.67328e-06
2.14041e-08
-1.67373e-06
1.09039e-08
-1.67402e-06
4.00046e-10
-1.67416e-06
-1.0105e-08
-1.67416e-06
-2.0609e-08
-1.67401e-06
-3.11088e-08
-1.67372e-06
-4.15961e-08
-1.67327e-06
-1.67254e-06
-5.2047e-08
4.27388e-08
-1.66203e-06
-5.32502e-08
3.21695e-08
-1.66271e-06
2.15798e-08
-1.66314e-06
1.0986e-08
-1.66343e-06
3.91176e-10
-1.66357e-06
-1.02052e-08
-1.66356e-06
-2.08039e-08
-1.66341e-06
-3.1402e-08
-1.66312e-06
-4.19829e-08
-1.66269e-06
-1.66201e-06
-5.25066e-08
4.30684e-08
-1.65143e-06
-5.3669e-08
3.23841e-08
-1.65203e-06
2.17021e-08
-1.65246e-06
1.10348e-08
-1.65276e-06
3.76276e-10
-1.65291e-06
-1.02834e-08
-1.6529e-06
-2.09547e-08
-1.65274e-06
-3.16463e-08
-1.65243e-06
-4.23502e-08
-1.65199e-06
-1.65138e-06
-5.29812e-08
4.33465e-08
-1.64028e-06
-5.44979e-08
3.24941e-08
-1.64118e-06
2.17439e-08
-1.64171e-06
1.10371e-08
-1.64205e-06
3.46649e-10
-1.64222e-06
-1.0344e-08
-1.64221e-06
-2.10518e-08
-1.64203e-06
-3.18072e-08
-1.64168e-06
-4.26834e-08
-1.64111e-06
-1.64012e-06
-5.39397e-08
4.3525e-08
-1.62899e-06
-5.4809e-08
3.26193e-08
-1.63027e-06
2.1818e-08
-1.63091e-06
1.10543e-08
-1.63129e-06
3.02685e-10
-1.63147e-06
-1.04499e-08
-1.63146e-06
-2.12155e-08
-1.63127e-06
-3.20156e-08
-1.63088e-06
-4.29012e-08
-1.63023e-06
-1.62893e-06
-5.40954e-08
4.36079e-08
-1.61835e-06
-5.42493e-08
3.2795e-08
-1.61946e-06
2.19527e-08
-1.62007e-06
1.11106e-08
-1.62045e-06
2.70997e-10
-1.62063e-06
-1.05695e-08
-1.62062e-06
-2.14134e-08
-1.62042e-06
-3.22556e-08
-1.62004e-06
-4.30598e-08
-1.61942e-06
-1.61834e-06
-5.36518e-08
4.37158e-08
-1.60766e-06
-5.44128e-08
3.2887e-08
-1.60863e-06
2.20182e-08
-1.6092e-06
1.11366e-08
-1.60956e-06
2.51247e-10
-1.60974e-06
-1.0634e-08
-1.60973e-06
-2.15155e-08
-1.60954e-06
-3.23847e-08
-1.60917e-06
-4.32174e-08
-1.60859e-06
-1.60762e-06
-5.39376e-08
4.38008e-08
-1.59682e-06
-5.46356e-08
3.29223e-08
-1.59775e-06
2.20271e-08
-1.5983e-06
1.11246e-08
-1.59866e-06
2.18804e-10
-1.59883e-06
-1.06871e-08
-1.59883e-06
-2.15902e-08
-1.59864e-06
-3.24881e-08
-1.59827e-06
-4.33748e-08
-1.5977e-06
-1.59676e-06
-5.42307e-08
4.39151e-08
-1.5859e-06
-5.48328e-08
3.29816e-08
-1.58682e-06
2.20457e-08
-1.58737e-06
1.111e-08
-1.58773e-06
1.7405e-10
-1.5879e-06
-1.0762e-08
-1.58789e-06
-2.16982e-08
-1.5877e-06
-3.2636e-08
-1.58733e-06
-4.35741e-08
-1.58676e-06
-1.58583e-06
-5.45014e-08
4.40587e-08
-1.57492e-06
-5.50419e-08
3.30688e-08
-1.57583e-06
2.20829e-08
-1.57638e-06
1.1102e-08
-1.57674e-06
1.23389e-10
-1.57692e-06
-1.08549e-08
-1.57691e-06
-2.18349e-08
-1.57672e-06
-3.28196e-08
-1.57635e-06
-4.38083e-08
-1.57578e-06
-1.57485e-06
-5.47909e-08
4.42403e-08
-1.56387e-06
-5.5293e-08
3.3187e-08
-1.56478e-06
2.21421e-08
-1.56534e-06
1.11056e-08
-1.56571e-06
7.34495e-11
-1.56589e-06
-1.09577e-08
-1.56588e-06
-2.19914e-08
-1.56569e-06
-3.30313e-08
-1.56531e-06
-4.40771e-08
-1.56473e-06
-1.56381e-06
-5.51193e-08
4.44709e-08
-1.55274e-06
-5.5602e-08
3.33443e-08
-1.55365e-06
2.223e-08
-1.55422e-06
1.1127e-08
-1.5546e-06
3.03939e-11
-1.55479e-06
-1.10647e-08
-1.55479e-06
-2.21628e-08
-1.55459e-06
-3.32687e-08
-1.5542e-06
-4.43824e-08
-1.55362e-06
-1.5527e-06
-5.54952e-08
4.47642e-08
-1.54152e-06
-5.59863e-08
3.35515e-08
-1.54244e-06
2.23552e-08
-1.54303e-06
1.11732e-08
-1.54342e-06
-7.27978e-13
-1.54362e-06
-1.11726e-08
-1.54361e-06
-2.23484e-08
-1.54342e-06
-3.35337e-08
-1.54302e-06
-4.47298e-08
-1.54242e-06
-1.5415e-06
-5.59288e-08
4.51348e-08
-1.53019e-06
-5.64643e-08
3.38201e-08
-1.53112e-06
2.25262e-08
-1.53173e-06
1.12499e-08
-1.53215e-06
-1.65028e-11
-1.53235e-06
-1.12807e-08
-1.53235e-06
-2.255e-08
-1.53215e-06
-3.38315e-08
-1.53173e-06
-4.51278e-08
-1.53112e-06
-1.53019e-06
-5.64319e-08
4.55966e-08
-1.51873e-06
-5.70532e-08
3.41608e-08
-1.51969e-06
2.27508e-08
-1.52032e-06
1.13619e-08
-1.52076e-06
-1.53851e-11
-1.52097e-06
-1.13904e-08
-1.52098e-06
-2.27723e-08
-1.52076e-06
-3.417e-08
-1.52034e-06
-4.55875e-08
-1.51971e-06
-1.51876e-06
-5.7019e-08
4.61632e-08
-1.50712e-06
-5.77701e-08
3.45835e-08
-1.50811e-06
2.30351e-08
-1.50877e-06
1.15118e-08
-1.50923e-06
2.08242e-12
-1.50946e-06
-1.15056e-08
-1.50947e-06
-2.30227e-08
-1.50925e-06
-3.45601e-08
-1.5088e-06
-4.61235e-08
-1.50814e-06
-1.50718e-06
-5.77085e-08
4.68482e-08
-1.49534e-06
-5.86334e-08
3.50974e-08
-1.49635e-06
2.33844e-08
-1.49706e-06
1.17009e-08
-1.49755e-06
3.32153e-11
-1.4978e-06
-1.16328e-08
-1.4978e-06
-2.33113e-08
-1.49757e-06
-3.50159e-08
-1.49709e-06
-4.67543e-08
-1.49641e-06
-1.49541e-06
-5.8523e-08
4.76663e-08
-1.48334e-06
-5.96636e-08
3.57118e-08
-1.4844e-06
2.38027e-08
-1.48515e-06
1.19288e-08
-1.48568e-06
7.34313e-11
-1.48594e-06
-1.17809e-08
-1.48595e-06
-2.36515e-08
-1.4857e-06
-3.55553e-08
-1.48519e-06
-4.75023e-08
-1.48446e-06
-1.48342e-06
-5.94902e-08
4.86342e-08
-1.47109e-06
-6.08847e-08
3.64368e-08
-1.4722e-06
2.42945e-08
-1.47301e-06
1.21947e-08
-1.47358e-06
1.16889e-10
-1.47386e-06
-1.19605e-08
-1.47387e-06
-2.4059e-08
-1.4736e-06
-3.61993e-08
-1.47305e-06
-4.83946e-08
-1.47226e-06
-1.47117e-06
-6.06431e-08
4.97724e-08
-1.45854e-06
-6.23259e-08
3.72852e-08
-1.45972e-06
2.48657e-08
-1.46059e-06
1.24982e-08
-1.46121e-06
1.57405e-10
-1.46152e-06
-1.21835e-08
-1.46153e-06
-2.45516e-08
-1.46123e-06
-3.69723e-08
-1.46063e-06
-4.94624e-08
-1.45977e-06
-1.45861e-06
-6.20209e-08
5.11076e-08
-1.44562e-06
-6.40244e-08
3.82741e-08
-1.44688e-06
2.55252e-08
-1.44784e-06
1.28407e-08
-1.44853e-06
1.89415e-10
-1.44887e-06
-1.24625e-08
-1.44888e-06
-2.5149e-08
-1.44855e-06
-3.79019e-08
-1.44788e-06
-5.07422e-08
-1.44693e-06
-1.44569e-06
-6.36697e-08
5.26748e-08
-1.43227e-06
-6.60282e-08
3.94274e-08
-1.43363e-06
2.62865e-08
-1.4347e-06
1.32268e-08
-1.43547e-06
2.08884e-10
-1.43585e-06
-1.281e-08
-1.43586e-06
-2.58728e-08
-1.43548e-06
-3.90193e-08
-1.43473e-06
-5.2276e-08
-1.43368e-06
-1.43232e-06
-6.56437e-08
5.45213e-08
-1.41839e-06
-6.83997e-08
4.07787e-08
-1.41989e-06
2.71712e-08
-1.42109e-06
1.36662e-08
-1.42196e-06
2.14073e-10
-1.4224e-06
-1.32392e-08
-1.42241e-06
-2.67477e-08
-1.42197e-06
-4.03615e-08
-1.42112e-06
-5.4114e-08
-1.41992e-06
-1.41843e-06
-6.80072e-08
5.67098e-08
-1.40388e-06
-7.12171e-08
4.23755e-08
-1.40556e-06
2.82113e-08
-1.40693e-06
1.41754e-08
-1.40792e-06
2.05872e-10
-1.40843e-06
-1.37648e-08
-1.40843e-06
-2.78043e-08
-1.40793e-06
-4.19744e-08
-1.40695e-06
-5.63174e-08
-1.40558e-06
-1.40391e-06
-7.08374e-08
5.93214e-08
-1.38863e-06
-7.45752e-08
4.42825e-08
-1.39052e-06
2.94525e-08
-1.3921e-06
1.47793e-08
-1.39325e-06
1.87594e-10
-1.39384e-06
-1.44053e-08
-1.39384e-06
-2.90817e-08
-1.39326e-06
-4.39165e-08
-1.39211e-06
-5.89617e-08
-1.39054e-06
-1.38864e-06
-7.4224e-08
6.24512e-08
-1.3725e-06
-7.8575e-08
4.65792e-08
-1.37465e-06
3.09516e-08
-1.37647e-06
1.55089e-08
-1.37781e-06
1.64198e-10
-1.3785e-06
-1.51816e-08
-1.3785e-06
-3.06269e-08
-1.37781e-06
-4.62579e-08
-1.37648e-06
-6.2133e-08
-1.37466e-06
-1.37252e-06
-7.826e-08
6.61833e-08
-1.35539e-06
-8.32923e-08
4.93367e-08
-1.3578e-06
3.27553e-08
-1.35989e-06
1.6388e-08
-1.36144e-06
1.41017e-10
-1.36225e-06
-1.61068e-08
-1.36225e-06
-3.24759e-08
-1.36144e-06
-4.90586e-08
-1.3599e-06
-6.59049e-08
-1.35781e-06
-1.35541e-06
-8.30113e-08
7.05177e-08
-1.3372e-06
-8.87061e-08
5.25421e-08
-1.33983e-06
3.48353e-08
-1.34218e-06
1.73933e-08
-1.344e-06
1.22243e-10
-1.34498e-06
-1.71491e-08
-1.34498e-06
-3.45909e-08
-1.344e-06
-5.22956e-08
-1.34219e-06
-7.02662e-08
-1.33984e-06
-1.33723e-06
-8.84459e-08
7.51924e-08
-1.31785e-06
-9.45472e-08
5.5919e-08
-1.32055e-06
3.69397e-08
-1.3232e-06
1.8371e-08
-1.32543e-06
1.09584e-10
-1.32672e-06
-1.81506e-08
-1.32672e-06
-3.67146e-08
-1.32544e-06
-5.56853e-08
-1.32322e-06
-7.49464e-08
-1.32058e-06
-1.31789e-06
-9.42849e-08
7.93568e-08
-1.29718e-06
-1.00025e-07
5.8628e-08
-1.29982e-06
3.8397e-08
-1.30297e-06
1.89554e-08
-1.30599e-06
1.02329e-10
-1.30786e-06
-1.87475e-08
-1.30787e-06
-3.81774e-08
-1.30601e-06
-5.83882e-08
-1.30301e-06
-7.90917e-08
-1.29988e-06
-1.29725e-06
-9.97328e-08
8.12668e-08
-1.27478e-06
-1.03669e-07
5.89927e-08
-1.27755e-06
3.80993e-08
-1.28208e-06
1.87222e-08
-1.28661e-06
1.0014e-10
-1.28924e-06
-1.85171e-08
-1.28925e-06
-3.78788e-08
-1.28665e-06
-5.8741e-08
-1.28215e-06
-8.09696e-08
-1.27765e-06
-1.2749e-06
-1.03323e-07
7.78959e-08
-1.24895e-06
-1.03722e-07
5.43508e-08
-1.254e-06
3.50533e-08
-1.26278e-06
1.78012e-08
-1.26936e-06
1.063e-10
-1.27155e-06
-1.75814e-08
-1.27156e-06
-3.48285e-08
-1.2694e-06
-5.41074e-08
-1.26287e-06
-7.75905e-08
-1.25417e-06
-1.24916e-06
-1.03323e-07
6.34187e-08
-1.21314e-06
-9.92309e-08
4.2377e-08