/*--------------------------------*- C++ -*----------------------------------*\
  =========                 |
  \\      /  F ield         | OpenFOAM: The Open Source CFD Toolbox
   \\    /   O peration     | Website:  https://openfoam.org
    \\  /    A nd           | Version:  8
     \\/     M anipulation  |
\*---------------------------------------------------------------------------*/
FoamFile
{
    version     2.0;
    format      ascii;
    class       volVectorField;
    location    "0.5";
    object      U;
}
// * * * * * * * * * * * * * * * * * * * * * * * * * * * * * * * * * * * * * //

dimensions      [0 1 -1 0 0 0 0];

internalField   nonuniform List<vector> 
9150
(
(0.0537631 -0.428345 0)
(0.0880366 -0.622152 0)
(0.0735353 -0.631572 0)
(0.0488539 -0.643966 0)
(0.0171258 -0.654828 0)
(-0.0171249 -0.654828 0)
(-0.0488532 -0.643967 0)
(-0.0735348 -0.631572 0)
(-0.0880363 -0.622152 0)
(-0.053763 -0.428346 0)
(0.0407554 -0.522266 0)
(0.0574738 -0.625718 0)
(0.0424105 -0.613336 0)
(0.0295644 -0.62258 0)
(0.0105706 -0.629089 0)
(-0.01057 -0.629089 0)
(-0.0295639 -0.62258 0)
(-0.0424101 -0.613336 0)
(-0.0574735 -0.625718 0)
(-0.0407553 -0.522266 0)
(0.0253217 -0.55765 0)
(0.0325862 -0.613936 0)
(0.0232349 -0.604534 0)
(0.0173811 -0.610047 0)
(0.00629771 -0.613314 0)
(-0.00629736 -0.613314 0)
(-0.0173808 -0.610047 0)
(-0.0232347 -0.604534 0)
(-0.032586 -0.613936 0)
(-0.0253216 -0.55765 0)
(0.0154532 -0.584552 0)
(0.0175265 -0.607562 0)
(0.0118611 -0.601162 0)
(0.00895533 -0.603299 0)
(0.00327839 -0.604449 0)
(-0.00327819 -0.604449 0)
(-0.00895516 -0.603299 0)
(-0.011861 -0.601162 0)
(-0.0175264 -0.607562 0)
(-0.0154531 -0.584552 0)
(0.00633872 -0.597112 0)
(0.00557983 -0.601433 0)
(0.00363778 -0.600047 0)
(0.00271653 -0.600354 0)
(0.00101019 -0.600498 0)
(-0.00101011 -0.600498 0)
(-0.00271646 -0.600354 0)
(-0.00363772 -0.600047 0)
(-0.00557978 -0.601433 0)
(-0.00633869 -0.597112 0)
(0.468149 -1.1601 1.63809e-24)
(0.282126 -1.08559 0)
(0.162695 -1.06944 0)
(0.0916761 -1.05867 0)
(0.0301805 -1.05473 0)
(-0.0301712 -1.05473 0)
(-0.0916678 -1.05867 0)
(-0.162688 -1.06945 0)
(-0.282122 -1.0856 0)
(-0.468151 -1.16012 -1.63821e-24)
(0.333495 -0.843024 4.51849e-25)
(0.287075 -0.935969 0)
(0.188241 -0.936807 0)
(0.107926 -0.937682 0)
(0.0356258 -0.940673 0)
(-0.0356205 -0.940674 0)
(-0.107922 -0.937684 0)
(-0.188238 -0.936811 0)
(-0.287074 -0.935973 0)
(-0.333497 -0.843029 -4.51876e-25)
(0.278194 -0.701149 7.13045e-26)
(0.258976 -0.804043 0)
(0.178391 -0.817477 0)
(0.104608 -0.829079 0)
(0.034856 -0.837686 0)
(-0.0348529 -0.837687 0)
(-0.104605 -0.829081 0)
(-0.17839 -0.817479 0)
(-0.258976 -0.804045 0)
(-0.278194 -0.701152 -7.13126e-26)
(0.199089 -0.553265 2.90898e-25)
(0.216506 -0.70898 0)
(0.15468 -0.725903 0)
(0.0915212 -0.742572 0)
(0.0306192 -0.754811 0)
(-0.0306172 -0.754811 0)
(-0.0915196 -0.742573 0)
(-0.154679 -0.725904 0)
(-0.216506 -0.708981 0)
(-0.199089 -0.553266 -2.90895e-25)
(0.118106 -0.444791 -4.65085e-25)
(0.15616 -0.644013 -6.65947e-25)
(0.117127 -0.66386 -2.27291e-25)
(0.071168 -0.681577 -1.50529e-25)
(0.0240666 -0.694791 -8.91202e-27)
(-0.0240654 -0.694792 -8.9108e-27)
(-0.0711669 -0.681578 -1.50526e-25)
(-0.117126 -0.663861 -2.2729e-25)
(-0.15616 -0.644014 -6.65946e-25)
(-0.118106 -0.444792 -4.65086e-25)
(0.0103148 -0.944719 0)
(-0.0425824 -1.32609 0)
(0.0199574 -1.26283 0)
(-0.0046632 -1.22325 0)
(0.00353265 -1.22146 0)
(-0.00344855 -1.22147 0)
(0.00477316 -1.22326 0)
(-0.0198429 -1.26283 0)
(0.0426893 -1.32608 0)
(-0.0102173 -0.945156 0)
(0.0474547 -0.915874 0)
(-0.0266124 -1.32966 0)
(0.0215583 -1.26638 0)
(-0.000532987 -1.2233 0)
(0.000923724 -1.2215 0)
(-0.000867575 -1.22151 0)
(0.000597439 -1.2233 0)
(-0.0214984 -1.26638 0)
(0.0267036 -1.32972 0)
(-0.0474269 -0.916072 0)
(0.0759878 -0.950816 0)
(-0.0255423 -1.3443 0)
(0.0156984 -1.27362 0)
(0.00506174 -1.23087 0)
(-0.000259937 -1.22608 0)
(0.000300502 -1.22608 0)
(-0.00501609 -1.23087 0)
(-0.0156648 -1.27363 0)
(0.0255973 -1.34432 0)
(-0.0759679 -0.950945 0)
(0.144329 -1.08101 0)
(0.00176996 -1.36427 0)
(0.014681 -1.27054 0)
(0.0210814 -1.22615 0)
(0.00570334 -1.2152 0)
(-0.00567581 -1.21521 0)
(-0.0210552 -1.22616 0)
(-0.0146644 -1.27055 0)
(-0.00173321 -1.36429 0)
(-0.144315 -1.08107 0)
(0.29865 -1.21777 0)
(0.126962 -1.32072 0)
(0.0684773 -1.21009 0)
(0.0555543 -1.16967 0)
(0.0196763 -1.15809 0)
(-0.01966 -1.15809 0)
(-0.0555405 -1.16967 0)
(-0.0684641 -1.2101 0)
(-0.126944 -1.32073 0)
(-0.298648 -1.2178 0)
(-0.622575 -0.20539 0)
(-0.489146 -0.213555 0)
(-0.351916 -0.219939 0)
(-0.21262 -0.224714 0)
(-0.0727379 -0.2276 0)
(0.0670769 -0.227644 0)
(0.206951 -0.224825 0)
(0.346265 -0.220096 0)
(0.483562 -0.213764 0)
(0.61712 -0.205678 0)
(-0.478372 -0.378372 0)
(-0.377576 -0.394009 0)
(-0.273059 -0.404417 0)
(-0.165919 -0.410755 0)
(-0.0569795 -0.413772 0)
(0.0527018 -0.413806 0)
(0.161681 -0.410865 0)
(0.268886 -0.404628 0)
(0.373496 -0.394366 0)
(0.474431 -0.378939 0)
(-0.366749 -0.541985 0)
(-0.288892 -0.563981 0)
(-0.208509 -0.578539 0)
(-0.126405 -0.587323 0)
(-0.0432728 -0.591443 0)
(0.0402206 -0.591491 0)
(0.123376 -0.58748 0)
(0.205524 -0.578842 0)
(0.285978 -0.564492 0)
(0.363938 -0.542792 0)
(-0.274444 -0.675308 0)
(-0.215992 -0.702575 0)
(-0.155803 -0.720656 0)
(-0.0943734 -0.731679 0)
(-0.032217 -0.736915 0)
(0.0301823 -0.736984 0)
(0.0923593 -0.731899 0)
(0.153832 -0.721066 0)
(0.214086 -0.703245 0)
(0.272625 -0.676357 0)
(-0.199127 -0.770719 0)
(-0.156327 -0.80236 0)
(-0.112822 -0.823317 0)
(-0.0683733 -0.836194 0)
(-0.023275 -0.842367 0)
(0.0220469 -0.84246 0)
(0.0671673 -0.836487 0)
(0.111661 -0.823851 0)
(0.155222 -0.803216 0)
(0.198059 -0.772046 0)
(-0.152872 -0.842159 0)
(-0.11774 -0.87531 0)
(-0.0842568 -0.897709 0)
(-0.0508986 -0.911696 0)
(-0.0172544 -0.918486 0)
(0.0165192 -0.918594 0)
(0.0501708 -0.912029 0)
(0.0835348 -0.898301 0)
(0.116988 -0.876225 0)
(0.15202 -0.843497 0)
(-0.133173 -0.905773 0)
(-0.100068 -0.936228 0)
(-0.0702291 -0.957567 0)
(-0.0420089 -0.971163 0)
(-0.014153 -0.977849 0)
(0.0136662 -0.977949 0)
(0.0415113 -0.97147 0)
(0.0696859 -0.958105 0)
(0.0993975 -0.93706 0)
(0.13235 -0.90701 0)
(-0.12628 -0.969152 0)
(-0.0951424 -0.994191 0)
(-0.0657046 -1.01251 0)
(-0.0388895 -1.02444 0)
(-0.013029 -1.03037 0)
(0.0126447 -1.03046 0)
(0.0384936 -1.02469 0)
(0.0652487 -1.01293 0)
(0.0945366 -0.994763 0)
(0.125797 -0.96983 0)
(-0.122877 -1.03307 0)
(-0.0950687 -1.05197 0)
(-0.0654521 -1.06663 0)
(-0.03856 -1.07644 0)
(-0.012917 -1.08138 0)
(0.012455 -1.08145 0)
(0.0380741 -1.07664 0)
(0.0648959 -1.06694 0)
(0.0944131 -1.05234 0)
(0.122467 -1.03334 0)
(-0.119744 -1.0944 0)
(-0.0955629 -1.10889 0)
(-0.0662195 -1.12077 0)
(-0.0390048 -1.12882 0)
(-0.0130645 -1.13289 0)
(0.0125763 -1.13293 0)
(0.038487 -1.12896 0)
(0.0656304 -1.12101 0)
(0.0949264 -1.10925 0)
(0.119427 -1.09482 0)
(-0.115748 -1.15072 0)
(-0.0944601 -1.16386 0)
(-0.0661388 -1.1744 0)
(-0.038928 -1.18136 0)
(-0.012995 -1.18481 0)
(0.0126076 -1.18484 0)
(0.0385156 -1.18146 0)
(0.0656621 -1.17457 0)
(0.094062 -1.16414 0)
(0.115539 -1.15116 0)
(-0.11097 -1.20557 0)
(-0.0913486 -1.21782 0)
(-0.0649873 -1.22703 0)
(-0.0381494 -1.23307 0)
(-0.0126902 -1.23605 0)
(0.0123586 -1.23607 0)
(0.0377939 -1.23316 0)
(0.0645768 -1.22716 0)
(0.0910795 -1.21798 0)
(0.110863 -1.20579 0)
(-0.105711 -1.25998 0)
(-0.0875911 -1.27034 0)
(-0.0632853 -1.27806 0)
(-0.0371133 -1.28325 0)
(-0.0123227 -1.28582 0)
(0.0119963 -1.28585 0)
(0.0367641 -1.28333 0)
(0.0628998 -1.27818 0)
(0.0874178 -1.27045 0)
(0.105652 -1.26011 0)
(-0.100013 -1.31137 0)
(-0.0833475 -1.32047 0)
(-0.0612754 -1.32713 0)
(-0.0359575 -1.3317 0)
(-0.0119234 -1.33398 0)
(0.0116019 -1.33401 0)
(0.0356137 -1.33178 0)
(0.0609146 -1.32725 0)
(0.0832464 -1.32059 0)
(0.100065 -1.31145 0)
(-0.093986 -1.36046 0)
(-0.0788514 -1.36805 0)
(-0.0589421 -1.37407 0)
(-0.0346377 -1.37829 0)
(-0.01145 -1.3804 0)
(0.011207 -1.38042 0)
(0.034368 -1.37839 0)
(0.0586669 -1.37426 0)
(0.0788246 -1.36833 0)
(0.0941454 -1.36062 0)
(-0.0884955 -1.40662 0)
(-0.0744518 -1.41315 0)
(-0.0561769 -1.41888 0)
(-0.0331705 -1.42288 0)
(-0.0109036 -1.42486 0)
(0.0108053 -1.42489 0)
(0.0330335 -1.42296 0)
(0.0561 -1.41903 0)
(0.0744871 -1.4134 0)
(0.0885433 -1.40689 0)
(-0.0830879 -1.45044 0)
(-0.0700701 -1.45643 0)
(-0.0532197 -1.46171 0)
(-0.0316318 -1.46539 0)
(-0.0103573 -1.46721 0)
(0.0103424 -1.46723 0)
(0.0315818 -1.46544 0)
(0.0532161 -1.4618 0)
(0.0702114 -1.45653 0)
(0.0833767 -1.45059 0)
(-0.0773463 -1.49201 0)
(-0.0656308 -1.49753 0)
(-0.0502196 -1.50236 0)
(-0.0300405 -1.50569 0)
(-0.0098082 -1.50736 0)
(0.0098537 -1.50737 0)
(0.0300527 -1.50573 0)
(0.0502952 -1.50244 0)
(0.0658447 -1.49767 0)
(0.0777195 -1.49218 0)
(-0.0717182 -1.53119 0)
(-0.0612241 -1.53623 0)
(-0.0471462 -1.5407 0)
(-0.0284048 -1.54374 0)
(-0.00925314 -1.54527 0)
(0.00934327 -1.54528 0)
(0.0284629 -1.54377 0)
(0.0472771 -1.54074 0)
(0.0614765 -1.53631 0)
(0.0721289 -1.53126 0)
(-0.0662751 -1.56811 0)
(-0.0568968 -1.57268 0)
(-0.0440447 -1.57677 0)
(-0.0267379 -1.57953 0)
(-0.00870003 -1.58092 0)
(0.00880586 -1.58092 0)
(0.026814 -1.57954 0)
(0.0442029 -1.57679 0)
(0.057161 -1.57272 0)
(0.0666826 -1.56811 0)
(-0.0610633 -1.60266 0)
(-0.0526595 -1.60683 0)
(-0.0409385 -1.61053 0)
(-0.0250472 -1.61301 0)
(-0.00814721 -1.61427 0)
(0.00825281 -1.61427 0)
(0.0251274 -1.61301 0)
(0.0411097 -1.61052 0)
(0.0529223 -1.60682 0)
(0.0614358 -1.60261 0)
(-0.0561263 -1.63484 0)
(-0.0485162 -1.63864 0)
(-0.0378416 -1.64198 0)
(-0.023335 -1.64419 0)
(-0.00759251 -1.64532 0)
(0.00768918 -1.64532 0)
(0.0234121 -1.64418 0)
(0.0380181 -1.64195 0)
(0.0487703 -1.6386 0)
(0.05643 -1.63474 0)
(-0.0514768 -1.66474 0)
(-0.0444827 -1.66813 0)
(-0.0347803 -1.6711 0)
(-0.0216136 -1.67307 0)
(-0.00703778 -1.67407 0)
(0.00712115 -1.67407 0)
(0.0216831 -1.67306 0)
(0.0349546 -1.67106 0)
(0.0447223 -1.66806 0)
(0.0516984 -1.66454 0)
(-0.0471817 -1.69216 0)
(-0.0405758 -1.69525 0)
(-0.0317687 -1.6979 0)
(-0.019886 -1.69965 0)
(-0.00647439 -1.70055 0)
(0.00656741 -1.70055 0)
(0.0199707 -1.69965 0)
(0.0319604 -1.69788 0)
(0.0408117 -1.69522 0)
(0.0472699 -1.69211 0)
(-0.0430431 -1.71706 0)
(-0.0367679 -1.72001 0)
(-0.0288179 -1.72241 0)
(-0.0181539 -1.72398 0)
(-0.00589743 -1.72479 0)
(0.00603571 -1.7248 0)
(0.018288 -1.72399 0)
(0.0290545 -1.72241 0)
(0.037055 -1.72002 0)
(0.0431827 -1.7171 0)
(-0.0390365 -1.73976 0)
(-0.0330872 -1.74255 0)
(-0.0259619 -1.74469 0)
(-0.016446 -1.7461 0)
(-0.00532561 -1.74684 0)
(0.00551509 -1.74684 0)
(0.0166341 -1.74612 0)
(0.0262453 -1.7447 0)
(0.0334227 -1.74255 0)
(0.0391963 -1.73973 0)
(-0.0351942 -1.7601 0)
(-0.029575 -1.76285 0)
(-0.0232274 -1.76477 0)
(-0.0147784 -1.76606 0)
(-0.00476204 -1.76674 0)
(0.00501625 -1.76675 0)
(0.0150327 -1.7661 0)
(0.0235609 -1.76483 0)
(0.0299532 -1.7629 0)
(0.0353862 -1.76024 0)
(-0.031462 -1.77822 0)
(-0.0262759 -1.78101 0)
(-0.0206295 -1.78276 0)
(-0.0131458 -1.78396 0)
(-0.0042068 -1.78459 0)
(0.00454422 -1.7846 0)
(0.0134927 -1.78399 0)
(0.0210192 -1.78282 0)
(0.0266765 -1.78109 0)
(0.0317349 -1.77842 0)
(-0.0278821 -1.79434 0)
(-0.0231551 -1.79716 0)
(-0.0181665 -1.79878 0)
(-0.0115849 -1.79989 0)
(-0.00368152 -1.80046 0)
(0.00407956 -1.80047 0)
(0.0119879 -1.79991 0)
(0.0186103 -1.79882 0)
(0.0236149 -1.79723 0)
(0.0282076 -1.79452 0)
(-0.0244365 -1.80855 0)
(-0.0201801 -1.81138 0)
(-0.0158296 -1.8129 0)
(-0.0101044 -1.81391 0)
(-0.00318575 -1.81444 0)
(0.00362378 -1.81444 0)
(0.010547 -1.81393 0)
(0.0163085 -1.81294 0)
(0.0206747 -1.81144 0)
(0.0248089 -1.8087 0)
(-0.0211446 -1.82093 0)
(-0.0173729 -1.82377 0)
(-0.013623 -1.82519 0)
(-0.00869938 -1.82612 0)
(-0.00271786 -1.8266 0)
(0.00318133 -1.82661 0)
(0.00916696 -1.82614 0)
(0.0141213 -1.82521 0)
(0.0178852 -1.82381 0)
(0.0215492 -1.82106 0)
(-0.018013 -1.83157 0)
(-0.0147315 -1.83442 0)
(-0.0115456 -1.83575 0)
(-0.00737072 -1.83661 0)
(-0.0022769 -1.83705 0)
(0.00275547 -1.83706 0)
(0.00785315 -1.83662 0)
(0.0120539 -1.83576 0)
(0.0152526 -1.83445 0)
(0.0184417 -1.83169 0)
(-0.0150414 -1.84058 0)
(-0.0122496 -1.84342 0)
(-0.00959233 -1.84466 0)
(-0.00611655 -1.84546 0)
(-0.00186108 -1.84587 0)
(0.00234909 -1.84587 0)
(0.00660817 -1.84547 0)
(0.0101054 -1.84468 0)
(0.0127741 -1.84344 0)
(0.015489 -1.8407 0)
(-0.0122307 -1.84806 0)
(-0.0099211 -1.85086 0)
(-0.00775835 -1.85203 0)
(-0.00493501 -1.85278 0)
(-0.00146914 -1.85316 0)
(0.00196374 -1.85316 0)
(0.00543282 -1.85278 0)
(0.00827358 -1.85204 0)
(0.0104461 -1.85088 0)
(0.0126939 -1.84817 0)
(-0.00957982 -1.85407 0)
(-0.00774014 -1.85684 0)
(-0.00603928 -1.85795 0)
(-0.00382432 -1.85864 0)
(-0.00110023 -1.85899 0)
(0.0016002 -1.859 0)
(0.00432703 -1.85864 0)
(0.00655567 -1.85795 0)
(0.00826443 -1.85686 0)
(0.0100559 -1.85419 0)
(-0.00708974 -1.85872 0)
(-0.00570095 -1.86145 0)
(-0.00443093 -1.86249 0)
(-0.00278295 -1.86314 0)
(-0.000753843 -1.86347 0)
(0.00125862 -1.86347 0)
(0.00328991 -1.86314 0)
(0.00494808 -1.8625 0)
(0.00622418 -1.86146 0)
(0.00757793 -1.85883 0)
(-0.00475567 -1.86208 0)
(-0.00379811 -1.86476 0)
(-0.0029295 -1.86576 0)
(-0.00180913 -1.86637 0)
(-0.00042949 -1.86668 0)
(0.000938795 -1.86668 0)
(0.00232002 -1.86637 0)
(0.00344741 -1.86576 0)
(0.00432005 -1.86478 0)
(0.00525349 -1.86219 0)
(-0.00257938 -1.86425 0)
(-0.00202606 -1.86688 0)
(-0.00153077 -1.86783 0)
(-0.000901111 -1.8684 0)
(-0.000126748 -1.8687 0)
(0.000640403 -1.8687 0)
(0.00141573 -1.86841 0)
(0.00204938 -1.86783 0)
(0.0025469 -1.86689 0)
(0.00308712 -1.86436 0)
(-0.000554084 -1.86531 0)
(-0.000378504 -1.86788 0)
(-0.00023009 -1.86878 0)
(-5.6368e-05 -1.86933 0)
(0.000155 -1.86961 0)
(0.00036264 -1.86961 0)
(0.000574386 -1.86933 0)
(0.000749344 -1.86879 0)
(0.000898187 -1.8679 0)
(0.00106995 -1.86543 0)
(0.00132595 -1.86536 0)
(0.00115114 -1.86785 0)
(0.000977387 -1.86871 0)
(0.000727718 -1.86923 0)
(0.000416441 -1.86949 0)
(0.000104797 -1.86949 0)
(-0.000206626 -1.86923 0)
(-0.000457597 -1.86872 0)
(-0.000632539 -1.86786 0)
(-0.000802592 -1.86546 0)
(0.00306458 -1.86444 0)
(0.00256807 -1.86685 0)
(0.00209562 -1.86767 0)
(0.00145318 -1.86817 0)
(0.00065781 -1.86842 0)
(-0.000134465 -1.86842 0)
(-0.000930375 -1.86817 0)
(-0.00157626 -1.86768 0)
(-0.00205131 -1.86687 0)
(-0.00253554 -1.86454 0)
(0.0046673 -1.86263 0)
(0.00387882 -1.86496 0)
(0.00312961 -1.86575 0)
(0.00212296 -1.86623 0)
(0.000880178 -1.86647 0)
(-0.000355772 -1.86647 0)
(-0.00159944 -1.86623 0)
(-0.00261148 -1.86576 0)
(-0.0033645 -1.86498 0)
(-0.00413428 -1.86273 0)
(0.00614122 -1.86 0)
(0.00508975 -1.86226 0)
(0.00408418 -1.86302 0)
(0.00273993 -1.86347 0)
(0.00108443 -1.8637 0)
(-0.000560081 -1.8637 0)
(-0.0022167 -1.86347 0)
(-0.00356797 -1.86302 0)
(-0.00457828 -1.86227 0)
(-0.00560574 -1.86009 0)
(0.00749263 -1.85662 0)
(0.00620668 -1.85879 0)
(0.00496393 -1.85953 0)
(0.00330689 -1.85996 0)
(0.00127143 -1.86019 0)
(-0.000748381 -1.86019 0)
(-0.00278508 -1.85997 0)
(-0.00445051 -1.85953 0)
(-0.00569878 -1.85881 0)
(-0.00695619 -1.85671 0)
(0.00872876 -1.85255 0)
(0.00723594 -1.85464 0)
(0.00577381 -1.85535 0)
(0.00382701 -1.85577 0)
(0.00144237 -1.85598 0)
(-0.000921518 -1.85598 0)
(-0.0033075 -1.85577 0)
(-0.00526392 -1.85535 0)
(-0.00673221 -1.85465 0)
(-0.00819288 -1.85263 0)
(0.00985724 -1.84784 0)
(0.00818389 -1.84984 0)
(0.00651887 -1.85053 0)
(0.00430351 -1.85094 0)
(0.00159842 -1.85115 0)
(-0.00108035 -1.85115 0)
(-0.00378694 -1.85094 0)
(-0.00601308 -1.85054 0)
(-0.00768473 -1.84986 0)
(-0.00932331 -1.84793 0)
(0.0108858 -1.84256 0)
(0.00905657 -1.84447 0)
(0.00720395 -1.84513 0)
(0.00473946 -1.84553 0)
(0.00174057 -1.84573 0)
(-0.00122593 -1.84573 0)
(-0.00422647 -1.84553 0)
(-0.00670278 -1.84514 0)
(-0.00856235 -1.84448 0)
(-0.010355 -1.84264 0)
(0.0118218 -1.83674 0)
(0.00985948 -1.83856 0)
(0.00783351 -1.8392 0)
(0.00513765 -1.83959 0)
(0.00186964 -1.83978 0)
(-0.00135936 -1.83978 0)
(-0.00462901 -1.83959 0)
(-0.00733744 -1.83921 0)
(-0.00937054 -1.83857 0)
(-0.0112949 -1.83681 0)
(0.0126719 -1.83043 0)
(0.0105978 -1.83216 0)
(0.00841168 -1.83279 0)
(0.00550083 -1.83316 0)
(0.00198662 -1.83335 0)
(-0.00148154 -1.83335 0)
(-0.00499722 -1.83316 0)
(-0.00792111 -1.83279 0)
(-0.0101144 -1.83217 0)
(-0.0121497 -1.83049 0)
(0.0134428 -1.82366 0)
(0.0112766 -1.82531 0)
(0.0089425 -1.82593 0)
(0.00583173 -1.82629 0)
(0.0020926 -1.82648 0)
(-0.00159318 -1.82648 0)
(-0.0053336 -1.82629 0)
(-0.00845775 -1.82593 0)
(-0.0107989 -1.82532 0)
(-0.0129261 -1.82371 0)
(0.0141412 -1.81649 0)
(0.0119007 -1.81806 0)
(0.00942988 -1.81866 0)
(0.00613296 -1.81901 0)
(0.00218856 -1.81919 0)
(-0.00169505 -1.8192 0)
(-0.00564058 -1.81902 0)
(-0.00895111 -1.81866 0)
(-0.0114286 -1.81807 0)
(-0.0136304 -1.81653 0)
(0.0147732 -1.80894 0)
(0.0124743 -1.81043 0)
(0.00987749 -1.81102 0)
(0.00640698 -1.81137 0)
(0.00227529 -1.81154 0)
(-0.00178801 -1.81155 0)
(-0.00592061 -1.81137 0)
(-0.00940487 -1.81102 0)
(-0.0120081 -1.81044 0)
(-0.0142688 -1.80898 0)
(0.0153446 -1.80104 0)
(0.0130019 -1.80247 0)
(0.0102888 -1.80304 0)
(0.00665605 -1.80338 0)
(0.00235357 -1.80356 0)
(-0.00187288 -1.80356 0)
(-0.00617607 -1.80338 0)
(-0.00982266 -1.80304 0)
(-0.0125419 -1.80248 0)
(-0.0148473 -1.80109 0)
(0.0158613 -1.79284 0)
(0.0134876 -1.79419 0)
(0.0106671 -1.79475 0)
(0.00688235 -1.79509 0)
(0.00242416 -1.79526 0)
(-0.00195041 -1.79526 0)
(-0.00640914 -1.79509 0)
(-0.0102078 -1.79476 0)
(-0.0130341 -1.7942 0)
(-0.0153716 -1.79288 0)
(0.0163283 -1.78436 0)
(0.0139351 -1.78564 0)
(0.0110154 -1.78618 0)
(0.00708788 -1.78651 0)
(0.00248775 -1.78668 0)
(-0.00202127 -1.78668 0)
(-0.00662176 -1.78652 0)
(-0.0105631 -1.78619 0)
(-0.013488 -1.78565 0)
(-0.0158465 -1.78439 0)
(0.0167501 -1.7756 0)
(0.0143474 -1.77682 0)
(0.0113364 -1.77736 0)
(0.00727443 -1.77768 0)
(0.00254498 -1.77785 0)
(-0.00208601 -1.77785 0)
(-0.00681561 -1.77769 0)
(-0.0108912 -1.77736 0)
(-0.013907 -1.77683 0)
(-0.0162764 -1.77563 0)
(0.0171309 -1.76661 0)
(0.0147276 -1.76777 0)
(0.0116324 -1.7683 0)
(0.00744371 -1.76862 0)
(0.00259653 -1.76878 0)
(-0.00214508 -1.76878 0)
(-0.00699216 -1.76862 0)
(-0.0111942 -1.7683 0)
(-0.0142937 -1.76778 0)
(-0.0166653 -1.76664 0)
(0.0174746 -1.7574 0)
(0.0150784 -1.7585 0)
(0.0119058 -1.75902 0)
(0.00759724 -1.75934 0)
(0.00264302 -1.7595 0)
(-0.00219885 -1.7595 0)
(-0.00715275 -1.75934 0)
(-0.0114743 -1.75903 0)
(-0.0146507 -1.75851 0)
(-0.0170169 -1.75742 0)
(0.0177847 -1.74799 0)
(0.0154023 -1.74904 0)
(0.0121585 -1.74955 0)
(0.00773645 -1.74986 0)
(0.00268499 -1.75002 0)
(-0.00224767 -1.75002 0)
(-0.00729861 -1.74986 0)
(-0.0117333 -1.74955 0)
(-0.0149804 -1.74905 0)
(-0.0173345 -1.74801 0)
(0.0180643 -1.73839 0)
(0.0157015 -1.73939 0)
(0.0123923 -1.7399 0)
(0.00786262 -1.74021 0)
(0.00272296 -1.74036 0)
(-0.00229191 -1.74036 0)
(-0.00743091 -1.74021 0)
(-0.0119729 -1.7399 0)
(-0.015285 -1.7394 0)
(-0.0176214 -1.73842 0)
(0.0183164 -1.72863 0)
(0.015978 -1.72959 0)
(0.0126091 -1.73008 0)
(0.00797692 -1.73039 0)
(0.00275736 -1.73054 0)
(-0.00233191 -1.73054 0)
(-0.00755078 -1.73039 0)
(-0.0121949 -1.73009 0)
(-0.0155665 -1.72959 0)
(-0.0178804 -1.72865 0)
(0.0185436 -1.71872 0)
(0.0162339 -1.71963 0)
(0.0128103 -1.72012 0)
(0.00808043 -1.72042 0)
(0.00278853 -1.72057 0)
(-0.00236808 -1.72058 0)
(-0.00765932 -1.72042 0)
(-0.012401 -1.72012 0)
(-0.015827 -1.71964 0)
(-0.0181141 -1.71874 0)
(0.0187486 -1.70866 0)
(0.016471 -1.70953 0)
(0.0129976 -1.71002 0)
(0.00817421 -1.71032 0)
(0.00281679 -1.71047 0)
(-0.00240092 -1.71047 0)
(-0.00775779 -1.71032 0)
(-0.0125927 -1.71002 0)
(-0.0160685 -1.70954 0)
(-0.0183255 -1.70868 0)
(0.0189339 -1.69848 0)
(0.0166913 -1.69931 0)
(0.0131725 -1.69979 0)
(0.00825936 -1.70009 0)
(0.00284246 -1.70024 0)
(-0.00243094 -1.70024 0)
(-0.00784743 -1.70009 0)
(-0.0127721 -1.69979 0)
(-0.0162934 -1.69932 0)
(-0.0185173 -1.69849 0)
(0.0191022 -1.68818 0)
(0.0168966 -1.68898 0)
(0.0133364 -1.68945 0)
(0.00833678 -1.68974 0)
(0.00286566 -1.68989 0)
(-0.00245883 -1.68989 0)
(-0.00792991 -1.68974 0)
(-0.0129409 -1.68945 0)
(-0.0165036 -1.68898 0)
(-0.0186931 -1.68819 0)
(0.0192559 -1.67778 0)
(0.0170873 -1.67855 0)
(0.0134893 -1.679 0)
(0.00840675 -1.67929 0)
(0.00288604 -1.67944 0)
(-0.00248516 -1.67944 0)
(-0.00800628 -1.67929 0)
(-0.0131003 -1.679 0)
(-0.0167014 -1.67854 0)
(-0.0188561 -1.67778 0)
(0.0193962 -1.6673 0)
(0.0172622 -1.66802 0)
(0.0136276 -1.66846 0)
(0.00846574 -1.66874 0)
(0.00290159 -1.66888 0)
(-0.00250965 -1.66888 0)
(-0.00807468 -1.66873 0)
(-0.0132481 -1.66845 0)
(-0.0168866 -1.668 0)
(-0.0190099 -1.66729 0)
(0.0195234 -1.65678 0)
(0.0174061 -1.65741 0)
(0.0137374 -1.65782 0)
(0.0085024 -1.65811 0)
(0.00290695 -1.65825 0)
(-0.00252989 -1.65824 0)
(-0.00812615 -1.65809 0)
(-0.0133721 -1.6578 0)
(-0.0170443 -1.65738 0)
(-0.0191556 -1.65675 0)
(0.019562 -1.64601 0)
(0.0174957 -1.64666 0)
(0.0138046 -1.64711 0)
(0.00850855 -1.64742 0)
(0.00289693 -1.64757 0)
(-0.00254954 -1.64757 0)
(-0.00816103 -1.6474 0)
(-0.0134654 -1.64708 0)
(-0.0171601 -1.6466 0)
(-0.0192147 -1.64591 0)
(0.0197685 -1.63453 0)
(0.0176255 -1.6357 0)
(0.0138752 -1.63631 0)
(0.00852314 -1.63668 0)
(0.00288723 -1.63686 0)
(-0.00258416 -1.63685 0)
(-0.00821892 -1.63666 0)
(-0.0135759 -1.63627 0)
(-0.0173411 -1.63563 0)
(-0.0195248 -1.63438 0)
(0.0201886 -1.62361 0)
(0.0178041 -1.62485 0)
(0.0139615 -1.62549 0)
(0.00855805 -1.62588 0)
(0.0028905 -1.62606 0)
(-0.00261927 -1.62606 0)
(-0.00828591 -1.62586 0)
(-0.0136933 -1.62546 0)
(-0.0175449 -1.62482 0)
(-0.0199539 -1.6236 0)
(0.020413 -1.61305 0)
(0.0179123 -1.61406 0)
(0.0140151 -1.61464 0)
(0.00857121 -1.61501 0)
(0.00288933 -1.61519 0)
(-0.00263765 -1.61518 0)
(-0.00831845 -1.61499 0)
(-0.0137665 -1.61461 0)
(-0.0176707 -1.61403 0)
(-0.0201878 -1.61302 0)
(0.0205952 -1.60226 0)
(0.0179914 -1.6032 0)
(0.0140427 -1.60376 0)
(0.00856099 -1.60412 0)
(0.00287515 -1.60429 0)
(-0.00265592 -1.60429 0)
(-0.00834104 -1.6041 0)
(-0.0138273 -1.60373 0)
(-0.0177835 -1.60316 0)
(-0.0204013 -1.60221 0)
(0.0207866 -1.59138 0)
(0.0180848 -1.5923 0)
(0.014077 -1.59285 0)
(0.00855215 -1.5932 0)
(0.00285713 -1.59338 0)
(-0.00268273 -1.59337 0)
(-0.00837702 -1.59318 0)
(-0.0139058 -1.59281 0)
(-0.0179204 -1.59225 0)
(-0.0206343 -1.59131 0)
(0.0209907 -1.58043 0)
(0.0181934 -1.58134 0)
(0.0141224 -1.58189 0)
(0.00854971 -1.58225 0)
(0.00283932 -1.58242 0)
(-0.00271566 -1.58241 0)
(-0.0084248 -1.58223 0)
(-0.0139999 -1.58185 0)
(-0.0180761 -1.58128 0)
(-0.0208828 -1.58036 0)
(0.0212098 -1.56941 0)
(0.0183188 -1.57032 0)
(0.0141807 -1.57088 0)
(0.00855586 -1.57124 0)
(0.00282467 -1.57142 0)
(-0.00275101 -1.57141 0)
(-0.0084802 -1.57122 0)
(-0.0141056 -1.57084 0)
(-0.018247 -1.57027 0)
(-0.0211451 -1.56935 0)
(0.0214498 -1.55832 0)
(0.0184654 -1.55923 0)
(0.0142556 -1.5598 0)
(0.00857378 -1.56017 0)
(0.00281627 -1.56036 0)
(-0.00278571 -1.56035 0)
(-0.0085405 -1.56016 0)
(-0.0142212 -1.55977 0)
(-0.0184327 -1.55919 0)
(-0.0214221 -1.55827 0)
(0.0217181 -1.54715 0)
(0.0186396 -1.54807 0)
(0.0143521 -1.54865 0)
(0.00860734 -1.54904 0)
(0.00281708 -1.54923 0)
(-0.00281768 -1.54922 0)
(-0.00860468 -1.54902 0)
(-0.0143471 -1.54863 0)
(-0.018635 -1.54804 0)
(-0.0217169 -1.54712 0)
(0.0220223 -1.53588 0)
(0.0188477 -1.53681 0)
(0.0144752 -1.53741 0)
(0.00866016 -1.53781 0)
(0.00282943 -1.53801 0)
(-0.00284582 -1.53801 0)
(-0.00867301 -1.53781 0)
(-0.014485 -1.5374 0)
(-0.0188573 -1.5368 0)
(-0.0220344 -1.53588 0)
(0.0223703 -1.52449 0)
(0.0190962 -1.52544 0)
(0.0146298 -1.52606 0)
(0.00873526 -1.52648 0)
(0.00285484 -1.52669 0)
(-0.00287012 -1.52669 0)
(-0.00874701 -1.52649 0)
(-0.0146384 -1.52607 0)
(-0.0191046 -1.52545 0)
(-0.0223809 -1.52451 0)
(0.0227698 -1.51297 0)
(0.0193913 -1.51393 0)
(0.0148199 -1.51459 0)
(0.00883492 -1.51503 0)
(0.00289386 -1.51525 0)
(-0.00289168 -1.51526 0)
(-0.00882948 -1.51504 0)
(-0.0148118 -1.51461 0)
(-0.0193835 -1.51397 0)
(-0.0227646 -1.51301 0)
(0.0232287 -1.50128 0)
(0.019739 -1.50228 0)
(0.0150493 -1.50296 0)
(0.00896063 -1.50344 0)
(0.00294606 -1.50367 0)
(-0.00291276 -1.50368 0)
(-0.00892457 -1.50345 0)
(-0.0150114 -1.50299 0)
(-0.0197026 -1.50232 0)
(-0.0231957 -1.50134 0)
(0.0237553 -1.4894 0)
(0.0201455 -1.49043 0)
(0.0153214 -1.49116 0)
(0.00911334 -1.49167 0)
(0.00301021 -1.49192 0)
(-0.00293669 -1.49193 0)
(-0.00903774 -1.49169 0)
(-0.0152452 -1.4912 0)
(-0.0200723 -1.49049 0)
(-0.0236866 -1.48948 0)
(0.0243594 -1.47728 0)
(0.0206182 -1.47837 0)
(0.0156401 -1.47914 0)
(0.00929385 -1.47969 0)
(0.00308455 -1.47996 0)
(-0.00296759 -1.47997 0)
(-0.00917553 -1.47971 0)
(-0.0155224 -1.47918 0)
(-0.0205052 -1.47843 0)
(-0.024252 -1.47737 0)
(0.0250529 -1.4649 0)
(0.0211659 -1.46604 0)
(0.0160101 -1.46688 0)
(0.00950341 -1.46747 0)
(0.00316741 -1.46776 0)
(-0.00300995 -1.46777 0)
(-0.0093453 -1.46749 0)
(-0.0158538 -1.46692 0)
(-0.0210158 -1.4661 0)
(-0.0249094 -1.46498 0)
(0.025851 -1.45218 0)
(0.0218006 -1.45339 0)
(0.0164381 -1.45431 0)
(0.00974444 -1.45495 0)
(0.00325765 -1.45528 0)
(-0.00306822 -1.45529 0)
(-0.00955494 -1.45498 0)
(-0.0162513 -1.45434 0)
(-0.0216212 -1.45345 0)
(-0.0256788 -1.45225 0)
(0.0267737 -1.43906 0)
(0.0225381 -1.44037 0)
(0.0169336 -1.44138 0)
(0.0100213 -1.4421 0)
(0.00335533 -1.44246 0)
(-0.0031465 -1.44247 0)
(-0.00981284 -1.44212 0)
(-0.0167283 -1.44141 0)
(-0.0223408 -1.44042 0)
(-0.0265837 -1.43912 0)
(0.0278476 -1.42547 0)
(0.0234003 -1.4269 0)
(0.0175106 -1.42802 0)
(0.0103417 -1.42883 0)
(0.00346236 -1.42925 0)
(-0.00324842 -1.42925 0)
(-0.0101283 -1.42885 0)
(-0.0173004 -1.42805 0)
(-0.0231981 -1.42693 0)
(-0.0276523 -1.42552 0)
(0.0291077 -1.41131 0)
(0.0244173 -1.41289 0)
(0.0181893 -1.41416 0)
(0.0107174 -1.41509 0)
(0.00358304 -1.41556 0)
(-0.00337741 -1.41556 0)
(-0.0105124 -1.4151 0)
(-0.0179869 -1.41418 0)
(-0.0242225 -1.41291 0)
(-0.0289187 -1.41134 0)
(0.0305986 -1.39646 0)
(0.0256289 -1.39823 0)
(0.0189974 -1.3997 0)
(0.0111662 -1.40076 0)
(0.00372437 -1.40131 0)
(-0.00353718 -1.40131 0)
(-0.0109794 -1.40077 0)
(-0.0188126 -1.39971 0)
(-0.0254506 -1.39825 0)
(-0.0304248 -1.39648 0)
(0.0323723 -1.3808 0)
(0.0270834 -1.38281 0)
(0.0199692 -1.3845 0)
(0.0117097 -1.38574 0)
(0.00389529 -1.38637 0)
(-0.00373172 -1.38638 0)
(-0.0115464 -1.38575 0)
(-0.0198067 -1.38451 0)
(-0.0269261 -1.38282 0)
(-0.0322182 -1.38082 0)
(0.0344744 -1.36421 0)
(0.0288244 -1.36649 0)
(0.0211334 -1.36844 0)
(0.0123652 -1.36988 0)
(0.00410279 -1.37062 0)
(-0.00396269 -1.37062 0)
(-0.0122249 -1.36988 0)
(-0.0209927 -1.36845 0)
(-0.0286874 -1.3665 0)
(-0.0343392 -1.36423 0)
(0.0369046 -1.34658 0)
(0.0308519 -1.34911 0)
(0.0224774 -1.35134 0)
(0.0131173 -1.353 0)
(0.00434088 -1.35388 0)
(-0.00421996 -1.35388 0)
(-0.0129952 -1.353 0)
(-0.0223528 -1.35134 0)
(-0.0307288 -1.34913 0)
(-0.0367816 -1.3466 0)
(0.0395246 -1.32783 0)
(0.0330282 -1.33053 0)
(0.0238613 -1.33302 0)
(0.0138585 -1.33499 0)
(0.00456869 -1.33607 0)
(-0.00446098 -1.33607 0)
(-0.0137477 -1.33499 0)
(-0.0237442 -1.33303 0)
(-0.0329087 -1.33055 0)
(-0.0394028 -1.32786 0)
(0.0418861 -1.30786 0)
(0.0349157 -1.31055 0)
(0.024894 -1.31337 0)
(0.014323 -1.31585 0)
(0.00469358 -1.31733 0)
(-0.00459386 -1.31733 0)
(-0.0142173 -1.31586 0)
(-0.0247764 -1.31339 0)
(-0.0347888 -1.31059 0)
(-0.0417522 -1.30791 0)
(0.0430701 -1.28642 0)
(0.0356243 -1.289 0)
(0.0248529 -1.29251 0)
(0.0141464 -1.29604 0)
(0.00462759 -1.29827 0)
(-0.00453072 -1.29828 0)
(-0.0140414 -1.29607 0)
(-0.0247324 -1.29256 0)
(-0.0354857 -1.28907 0)
(-0.0429173 -1.28651 0)
(0.0414133 -1.26291 0)
(0.0337026 -1.26611 0)
(0.0228095 -1.27174 0)
(0.0132208 -1.27718 0)
(0.00449223 -1.28019 0)
(-0.00438866 -1.2802 0)
(-0.0131095 -1.27723 0)
(-0.0226911 -1.27183 0)
(-0.0335645 -1.26624 0)
(-0.0412555 -1.26306 0)
(0.0341474 -1.23483 0)
(0.0272852 -1.2429 0)
(0.0186615 -1.25449 0)
(0.0122929 -1.26184 0)
(0.00490584 -1.26312 0)
(-0.00478196 -1.26314 0)
(-0.0121628 -1.26188 0)
(-0.0185439 -1.25458 0)
(-0.0271752 -1.24309 0)
(-0.034027 -1.2351 0)
(0.0206984 -1.19225 0)
(0.0152752 -1.22305 0)
(0.015744 -1.24623 0)
(0.0116939 -1.24975 0)
(0.00634965 -1.24447 0)
(-0.00620752 -1.2445 0)
(-0.0115548 -1.24978 0)
(-0.0156004 -1.24623 0)
(-0.0152101 -1.22325 0)
(-0.0206378 -1.19273 0)
(0.011022 -1.10373 0)
(-0.00658689 -1.23481 0)
(0.0183486 -1.25377 0)
(0.0054928 -1.23561 0)
(0.00619753 -1.22837 0)
(-0.00606883 -1.22839 0)
(-0.00537455 -1.23565 0)
(-0.0181821 -1.25371 0)
(0.00663299 -1.23485 0)
(-0.0109513 -1.10435 0)
(0.752203 -0.194665 0)
(0.884256 -0.178332 0)
(1.00124 -0.156044 0)
(1.09809 -0.127645 0)
(1.17034 -0.0945255 0)
(1.21567 -0.0591358 0)
(1.236 -0.0238516 0)
(1.2306 0.0087481 0)
(1.2036 0.0366055 0)
(1.1612 0.0579449 0)
(1.10877 0.0715 0)
(1.05127 0.0775139 0)
(0.992682 0.0781107 0)
(0.93526 0.0757327 0)
(0.880114 0.0717197 0)
(0.828027 0.0666205 0)
(0.779528 0.0610229 0)
(0.734615 0.0557184 0)
(0.692763 0.0512927 0)
(0.653223 0.0479655 0)
(0.615229 0.0457518 0)
(0.578043 0.0446161 0)
(0.540965 0.0444732 0)
(0.503386 0.0451728 0)
(0.464834 0.0465072 0)
(0.424993 0.0482466 0)
(0.383698 0.0501639 0)
(0.340933 0.052059 0)
(0.296806 0.0537705 0)
(0.251533 0.055176 0)
(0.20543 0.0561826 0)
(0.158906 0.0567098 0)
(0.11242 0.0566592 0)
(0.0664393 0.0557767 0)
(0.0232341 0.0534541 0)
(-0.0162713 0.0501243 0)
(-0.0532226 0.035552 0)
(-0.0769866 -0.00611179 0)
(-0.071399 -0.0617724 0)
(-0.0290615 -0.0926835 0)
(0.576441 -0.355463 0)
(0.675579 -0.319829 0)
(0.76173 -0.27153 0)
(0.830829 -0.211379 0)
(0.880498 -0.144412 0)
(0.911471 -0.0777463 0)
(0.926772 -0.016899 0)
(0.931759 0.0349908 0)
(0.92854 0.0768039 0)
(0.917719 0.107781 0)
(0.900399 0.127044 0)
(0.878449 0.135492 0)
(0.853387 0.136859 0)
(0.825827 0.134746 0)
(0.796116 0.13045 0)
(0.765196 0.124241 0)
(0.73412 0.117032 0)
(0.703436 0.110228 0)
(0.673125 0.104739 0)
(0.643056 0.100792 0)
(0.613104 0.098418 0)
(0.583055 0.0976181 0)
(0.552624 0.0982973 0)
(0.521532 0.10024 0)
(0.489552 0.103145 0)
(0.456515 0.106674 0)
(0.422315 0.110484 0)
(0.386914 0.114249 0)
(0.350342 0.117668 0)
(0.312722 0.12045 0)
(0.274278 0.122289 0)
(0.235377 0.122813 0)
(0.196552 0.1215 0)
(0.15849 0.11752 0)
(0.122362 0.109679 0)
(0.0899019 0.0965242 0)
(0.061498 0.0736833 0)
(0.0358068 0.035197 0)
(0.0102541 -0.0234295 0)
(0.00428905 -0.11119 0)