/*--------------------------------*- C++ -*----------------------------------*\
  =========                 |
  \\      /  F ield         | OpenFOAM: The Open Source CFD Toolbox
   \\    /   O peration     | Website:  https://openfoam.org
    \\  /    A nd           | Version:  8
     \\/     M anipulation  |
\*---------------------------------------------------------------------------*/
FoamFile
{
    version     2.0;
    format      ascii;
    class       surfaceScalarField;
    location    "2.5";
    object      alphaPhi0.water;
}
// * * * * * * * * * * * * * * * * * * * * * * * * * * * * * * * * * * * * * //

dimensions      [0 3 -1 0 0 0 0];

internalField   nonuniform List<scalar> 
18095
(
1.58455e-07
-9.65851e-07
8.07395e-07
1.65044e-07
-1.24853e-06
1.24194e-06
1.21602e-07
-1.24253e-06
1.28597e-06
6.45223e-08
-1.26375e-06
1.32083e-06
-8.75125e-10
-1.28061e-06
1.34601e-06
-6.6115e-08
-1.28044e-06
1.34568e-06
-1.22807e-07
-1.26328e-06
1.31997e-06
-1.65799e-07
-1.24203e-06
1.28502e-06
-1.58739e-07
-1.24805e-06
1.24099e-06
-9.64931e-07
8.06191e-07
1.10885e-07
-1.07674e-06
9.91156e-08
-1.23676e-06
7.24276e-08
-1.21584e-06
3.94817e-08
-1.2308e-06
-6.02851e-10
-1.24053e-06
-4.05958e-08
-1.24044e-06
-7.33118e-08
-1.23057e-06
-9.97612e-08
-1.21558e-06
-1.1122e-07
-1.23659e-06
-1.07615e-06
6.70406e-08
-1.14378e-06
5.25532e-08
-1.22228e-06
4.1861e-08
-1.20515e-06
2.35032e-08
-1.21244e-06
-3.88107e-10
-1.21664e-06
-2.42285e-08
-1.2166e-06
-4.24477e-08
-1.21235e-06
-5.29952e-08
-1.20503e-06
-6.73395e-08
-1.22224e-06
-1.14349e-06
3.95399e-08
-1.18332e-06
2.65101e-08
-1.20925e-06
2.18581e-08
-1.2005e-06
1.23301e-08
-1.20292e-06
-2.1452e-10
-1.20409e-06
-1.27336e-08
-1.20409e-06
-2.21891e-08
-1.20289e-06
-2.67568e-08
-1.20046e-06
-3.97426e-08
-1.20926e-06
-1.18323e-06
1.66832e-08
7.43647e-09
6.94118e-09
4.0245e-09
-6.8447e-11
-4.15373e-09
-7.0457e-09
-7.50765e-09
-1.67664e-08
-1.80767e-07
-1.16781e-06
1.34857e-06
-2.26085e-07
-1.2202e-06
1.26552e-06
-1.73073e-07
-1.21584e-06
1.16283e-06
-9.59041e-08
-1.20618e-06
1.12901e-06
-9.10828e-09
-1.20347e-06
1.11668e-06
7.81485e-08
-1.20203e-06
1.11478e-06
1.57056e-07
-1.2023e-06
1.12339e-06
2.11654e-07
-1.21015e-06
1.15556e-06
1.68295e-07
-1.21265e-06
1.25601e-06
-1.15934e-06
1.32763e-06
-9.46501e-08
-1.07316e-06
-9.88201e-08
-1.21603e-06
-8.3423e-08
-1.23124e-06
-4.90267e-08
-1.24058e-06
-5.10594e-09
-1.24739e-06
3.92451e-08
-1.24638e-06
7.47518e-08
-1.2378e-06
9.18977e-08
-1.2273e-06
9.07586e-08
-1.21151e-06
-1.06858e-06
-5.87926e-08
-1.01436e-06
-5.6872e-08
-1.21795e-06
-4.89324e-08
-1.23918e-06
-3.00153e-08
-1.2595e-06
-3.06491e-09
-1.27434e-06
2.41878e-08
-1.27364e-06
4.39662e-08
-1.25758e-06
5.32796e-08
-1.23661e-06
5.70391e-08
-1.21527e-06
-1.01154e-06
-7.53311e-08
-9.39033e-07
-6.30307e-08
-1.23025e-06
-5.00981e-08
-1.25211e-06
-2.95914e-08
-1.28e-06
-1.92249e-09
-1.30201e-06
2.59639e-08
-1.30152e-06
4.70953e-08
-1.27871e-06
6.10113e-08
-1.25053e-06
7.43833e-08
-1.22864e-06
-9.37156e-07
-1.31638e-07
-1.19951e-07
-8.60938e-08
-4.52705e-08
-1.27553e-09
4.2876e-08
8.41343e-08
1.18621e-07
1.30965e-07
-7.6678e-08
-1.01052e-06
1.08719e-06
-5.06631e-08
-1.37532e-06
1.34931e-06
-6.06341e-08
-1.2931e-06
1.30307e-06
-7.79987e-08
-1.25037e-06
1.26773e-06
-9.62607e-08
-1.24171e-06
1.25997e-06
-1.16386e-07
-1.23286e-06
1.25298e-06
-1.5074e-07
-1.23332e-06
1.26767e-06
-2.00042e-07
-1.27961e-06
1.32891e-06
-1.59559e-07
-1.29172e-06
1.25124e-06
-7.91454e-07
6.31895e-07
-1.23969e-08
-9.9812e-07
-2.16142e-08
-1.36611e-06
-3.52443e-08
-1.27947e-06
-5.00717e-08
-1.23554e-06
-6.46296e-08
-1.22715e-06
-7.64151e-08
-1.22107e-06
-8.70019e-08
-1.22273e-06
-9.59051e-08
-1.27071e-06
-6.06782e-08
-1.32694e-06
-8.52132e-07
8.3129e-09
-1.00643e-06
-7.62107e-09
-1.35017e-06
-2.11423e-08
-1.26594e-06
-3.25353e-08
-1.22415e-06
-4.27936e-08
-1.21689e-06
-5.09116e-08
-1.21295e-06
-5.85625e-08
-1.21508e-06
-7.43758e-08
-1.25489e-06
-7.19379e-08
-1.32938e-06
-9.2407e-07
6.48407e-08
-1.07127e-06
3.27634e-08
-1.3181e-06
1.39065e-08
-1.24709e-06
-1.54703e-09
-1.20869e-06
-2.54155e-08
-1.19302e-06
-4.7841e-08
-1.19053e-06
-6.34664e-08
-1.19946e-06
-8.32551e-08
-1.23511e-06
-1.04821e-07
-1.30782e-06
-1.02889e-06
2.77299e-07
2.24723e-07
1.40464e-07
6.07824e-08
-1.55613e-08
-9.13134e-08
-1.67382e-07
-2.46931e-07
-2.98739e-07
-8.68277e-08
-1.73064e-09
8.85585e-08
-8.51501e-08
-1.67772e-09
-8.35521e-08
-1.59821e-09
-8.2058e-08
-1.49459e-09
-8.06889e-08
-1.36941e-09
-7.94631e-08
-1.22606e-09
-7.8395e-08
-1.06822e-09
-7.74949e-08
-9.00236e-10
-7.67683e-08
-7.2664e-10
-5.52016e-10
-7.62163e-08
-8.8657e-08
-2.89935e-09
8.98254e-08
-8.75142e-08
-2.82057e-09
-8.64169e-08
-2.69553e-09
-8.53835e-08
-2.52806e-09
-8.44314e-08
-2.32236e-09
-8.35729e-08
-2.08468e-09
-8.28195e-08
-1.82174e-09
-8.21785e-08
-1.54128e-09
-8.16536e-08
-1.25148e-09
-9.61303e-10
-8.12443e-08
-8.77624e-08
-3.73282e-09
8.85952e-08
-8.69405e-08
-3.64256e-09
-8.61468e-08
-3.48942e-09
-8.53971e-08
-3.27793e-09
-8.47051e-08
-3.01446e-09
-8.4083e-08
-2.70693e-09
-8.35402e-08
-2.36464e-09
-8.30835e-08
-1.99808e-09
-8.27161e-08
-1.61889e-09
-1.23955e-09
-8.24373e-08
-8.62431e-08
-4.33734e-09
8.68472e-08
-8.56413e-08
-4.24446e-09
-8.50578e-08
-4.07298e-09
-8.45073e-08
-3.82838e-09
-8.40034e-08
-3.51838e-09
-8.35577e-08
-3.1526e-09
-8.31799e-08
-2.74242e-09
-8.28771e-08
-2.30088e-09
-8.26536e-08
-1.84239e-09
-1.38281e-09
-8.25102e-08
-8.44651e-08
-4.78095e-09
8.49087e-08
-8.40186e-08
-4.69104e-09
-8.3585e-08
-4.50668e-09
-8.31794e-08
-4.23399e-09
-8.28161e-08
-3.88171e-09
-8.25079e-08
-3.46083e-09
-8.22656e-08
-2.9846e-09
-8.20982e-08
-2.46832e-09
-8.20113e-08
-1.92917e-09
-1.38627e-09
-8.20077e-08
-8.25889e-08
-5.11764e-09
8.29255e-08
-8.22455e-08
-5.03457e-09
-8.19121e-08
-4.84009e-09
-8.16055e-08
-4.54056e-09
-8.13418e-08
-4.14538e-09
-8.1136e-08
-3.6666e-09
-8.10015e-08
-3.11901e-09
-8.09496e-08
-2.52008e-09
-8.09891e-08
-1.88971e-09
-1.25042e-09
-8.11249e-08
-8.07232e-08
-5.39447e-09
8.1e-08
-8.04358e-08
-5.32203e-09
-8.01566e-08
-5.11933e-09
-7.99047e-08
-4.79244e-09
-7.96992e-08
-4.3509e-09
-7.95583e-08
-3.80738e-09
-7.94995e-08
-3.17789e-09
-7.95375e-08
-2.48181e-09
-7.96855e-08
-1.74181e-09
-9.8407e-10
-7.9952e-08
-7.89633e-08
-5.65455e-09
7.92233e-08
-7.86873e-08
-5.59811e-09
-7.84166e-08
-5.39008e-09
-7.81735e-08
-5.03556e-09
-7.79809e-08
-4.54353e-09
-7.78616e-08
-3.92661e-09
-7.7838e-08
-3.20143e-09
-7.79308e-08
-2.38888e-09
-7.81584e-08
-1.51417e-09
-6.07441e-10
-7.85352e-08
-7.74062e-08
-5.93742e-09
7.7689e-08
-7.70988e-08
-5.90572e-09
-7.67906e-08
-5.69834e-09
-7.65076e-08
-5.31861e-09
-7.62772e-08
-4.77399e-09
-7.61279e-08
-4.07598e-09
-7.60884e-08
-3.24081e-09
-7.61873e-08
-2.28994e-09
-7.6451e-08
-1.25048e-09
-1.56229e-10
-7.69021e-08
-7.61599e-08
-6.27747e-09
7.64996e-08
-7.57816e-08
-6.2843e-09
-7.5391e-08
-6.08896e-09
-7.50176e-08
-5.69196e-09
-7.46937e-08
-5.09796e-09
-7.44538e-08
-4.31588e-09
-7.43347e-08
-3.35988e-09
-7.43744e-08
-2.25024e-09
-7.46105e-08
-1.01434e-09
3.11658e-10
-7.50778e-08
-7.53478e-08
-6.70056e-09
7.57704e-08
-7.4866e-08
-6.76614e-09
-7.43532e-08
-6.60176e-09
-7.38413e-08
-6.20389e-09
-7.33665e-08
-5.57286e-09
-7.29693e-08
-4.71309e-09
-7.26949e-08
-3.63433e-09
-7.25922e-08
-2.35295e-09
-7.27131e-08
-8.93471e-10
7.08632e-10
-7.31101e-08
-7.51094e-08
-7.21887e-09
7.56277e-08
-7.45054e-08
-7.37033e-09
-7.38427e-08
-7.26452e-09
-7.31537e-08
-6.89279e-09
-7.2477e-08
-6.24962e-09
-7.18573e-08
-5.33278e-09
-7.1347e-08
-4.14464e-09
-7.10062e-08
-2.69392e-09
-7.09021e-08
-9.97586e-10
9.15284e-10
-7.11088e-08
-7.55942e-08
-7.82456e-09
7.61999e-08
-7.48698e-08
-8.09482e-09
-7.40512e-08
-8.08351e-09
-7.31678e-08
-7.77621e-09
-7.22572e-08
-7.16033e-09
-7.13651e-08
-6.22503e-09
-7.05474e-08
-4.96244e-09
-6.98722e-08
-3.36929e-09
-6.94208e-08
-1.44903e-09
7.83375e-10
-6.9289e-08
-7.69464e-08
-8.484e-09
7.76059e-08
-7.61326e-08
-8.90867e-09
-7.51837e-08
-9.03291e-09
-7.41231e-08
-8.83682e-09
-7.2983e-08
-8.30046e-09
-7.18045e-08
-7.40355e-09
-7.0641e-08
-6.12607e-09
-6.95611e-08
-4.44934e-09
-6.86526e-08
-2.35775e-09
1.56564e-10
-6.80258e-08
-7.92789e-08
-9.13506e-09
7.99302e-08
-7.84409e-08
-9.74667e-09
-7.74279e-08
-1.00462e-08
-7.6256e-08
-1.00091e-08
-7.49473e-08
-9.60923e-09
-7.35334e-08
-8.81747e-09
-7.20577e-08
-7.60191e-09
-7.05794e-08
-5.92762e-09
-6.91802e-08
-3.75705e-09
-1.05326e-09
-6.79704e-08
-8.2639e-08
-9.6927e-09
8.31971e-08
-8.18708e-08
-1.05149e-08
-8.08974e-08
-1.10202e-08
-7.97252e-08
-1.11813e-08
-7.83667e-08
-1.09677e-08
-7.68398e-08
-1.03444e-08
-7.51708e-08
-9.2709e-09
-7.33982e-08
-7.70018e-09
-7.15782e-08
-5.57708e-09
-2.84011e-09
-6.97914e-08
-8.6983e-08
-1.00616e-08
8.7352e-08
-8.63934e-08
-1.11044e-08
-8.55844e-08
-1.18295e-08
-8.45581e-08
-1.22076e-08
-8.33198e-08
-1.2206e-08
-8.18774e-08
-1.17867e-08
-8.02432e-08
-1.09051e-08
-7.84352e-08
-9.50815e-09
-7.64806e-08
-7.53172e-09
-4.90087e-09
-7.44198e-08
-9.21472e-08
-1.01636e-08
9.2249e-08
-9.18238e-08
-1.14278e-08
-9.1279e-08
-1.23743e-08
-9.05135e-08
-1.29731e-08
-8.95281e-08
-1.31913e-08
-8.83226e-08
-1.29921e-08
-8.68949e-08
-1.23328e-08
-8.52387e-08
-1.11644e-08
-8.33414e-08
-9.42899e-09
-7.06153e-09
-8.11808e-08
-9.79075e-08
-9.95191e-09
9.76957e-08
-9.79014e-08
-1.1434e-08
-9.76804e-08
-1.25953e-08
-9.72483e-08
-1.34051e-08
-9.66083e-08
-1.38312e-08
-9.57623e-08
-1.38381e-08
-9.47084e-08
-1.33867e-08
-9.34394e-08
-1.24332e-08
-9.194e-08
-1.09282e-08
-8.81763e-09
-9.01839e-08
-1.04017e-07
-9.42518e-09
1.0349e-07
-1.04325e-07
-1.1126e-08
-1.04421e-07
-1.24985e-08
-1.04315e-07
-1.35117e-08
-1.04012e-07
-1.41339e-08
-1.03518e-07
-1.4332e-08
-1.02834e-07
-1.40707e-08
-1.01955e-07
-1.33121e-08
-1.00868e-07
-1.20151e-08
-1.01369e-08
-9.95487e-08
-1.10275e-07
-8.62267e-09
1.09473e-07
-1.10851e-07
-1.05503e-08
-1.11212e-07
-1.21371e-08
-1.11372e-07
-1.33523e-08
-1.1134e-07
-1.4166e-08
-1.11124e-07
-1.45478e-08
-1.10727e-07
-1.44672e-08
-1.10147e-07
-1.38925e-08
-1.09371e-07
-1.2791e-08
-1.11305e-08
-1.08377e-07
-1.16547e-07
-7.61415e-09
1.15539e-07
-1.17316e-07
-9.78125e-09
-1.17865e-07
-1.1589e-08
-1.18209e-07
-1.30082e-08
-1.18363e-07
-1.40116e-08
-1.18338e-07
-1.45733e-08
-1.18137e-07
-1.4668e-08
-1.17758e-07
-1.42715e-08
-1.17189e-07
-1.33592e-08
-1.19094e-08
-1.1641e-07
-1.22739e-07
-6.49045e-09
1.21615e-07
-1.23613e-07
-8.90777e-09
-1.24262e-07
-1.09398e-08
-1.2471e-07
-1.25604e-08
-1.24974e-07
-1.37468e-08
-1.25069e-07
-1.44786e-08
-1.24999e-07
-1.47375e-08
-1.24764e-07
-1.45067e-08
-1.24353e-07
-1.37708e-08
-1.25174e-08
-1.23744e-07
-1.28763e-07
-5.3565e-09
1.27629e-07
-1.29646e-07
-8.02411e-09
-1.30315e-07
-1.02714e-08
-1.30797e-07
-1.20776e-08
-1.31118e-07
-1.34264e-08
-1.31292e-07
-1.43044e-08
-1.31328e-07
-1.47008e-08
-1.31228e-07
-1.46069e-08
-1.30983e-07
-1.40157e-08
-1.29239e-08
-1.30577e-07
-1.3449e-07
-4.32357e-09
1.33457e-07
-1.35294e-07
-7.22015e-09
-1.35913e-07
-9.65233e-09
-1.36382e-07
-1.1608e-08
-1.36729e-07
-1.30791e-08
-1.36973e-07
-1.40607e-08
-1.37124e-07
-1.45499e-08
-1.37185e-07
-1.45459e-08
-1.37151e-07
-1.40495e-08
-1.3065e-08
-1.3701e-07
-1.39715e-07
-3.49395e-09
1.38886e-07
-1.40371e-07
-6.56504e-09
-1.409e-07
-9.12326e-09
-1.4134e-07
-1.11679e-08
-1.41718e-07
-1.27007e-08
-1.42053e-07
-1.37251e-08
-1.42357e-07
-1.42462e-08
-1.42633e-07
-1.42702e-08
-1.42878e-07
-1.38046e-08
-1.286e-08
-1.43083e-07
-1.44143e-07
-2.92992e-09
1.43579e-07
-1.44628e-07
-6.07967e-09
-1.45076e-07
-8.67538e-09
-1.45517e-07
-1.0727e-08
-1.45973e-07
-1.22448e-08
-1.46458e-07
-1.32394e-08
-1.46982e-07
-1.37222e-08
-1.47547e-07
-1.3705e-08
-1.48151e-07
-1.32007e-08
-1.22247e-08
-1.48786e-07
-1.47379e-07
-2.56377e-09
1.47013e-07
-1.47779e-07
-5.67993e-09
-1.48237e-07
-8.21689e-09
-1.48774e-07
-1.01905e-08
-1.49402e-07
-1.16162e-08
-1.50132e-07
-1.25091e-08
-1.5097e-07
-1.28848e-08
-1.51915e-07
-1.27595e-08
-1.52966e-07
-1.21499e-08
-1.10756e-08
-1.54115e-07
-1.4908e-07
-2.1207e-09
1.48637e-07
-1.49618e-07
-5.14282e-09
-1.50271e-07
-7.56299e-09
-1.5106e-07
-9.40175e-09
-1.51997e-07
-1.0679e-08
-1.53092e-07
-1.14141e-08
-1.5435e-07
-1.16267e-08
-1.55773e-07
-1.13368e-08
-1.57358e-07
-1.05651e-08
-9.33524e-09
-1.59098e-07
-1.49612e-07
-1.41006e-09
1.48901e-07
-1.50445e-07
-4.30968e-09
-1.51431e-07
-6.57752e-09
-1.52591e-07
-8.24119e-09
-1.53944e-07
-9.32652e-09
-1.555e-07
-9.85807e-09
-1.57266e-07
-9.86009e-09
-1.59246e-07
-9.35716e-09
-1.61436e-07
-8.37438e-09
-6.93994e-09
-1.63832e-07
-1.49689e-07
-4.94378e-10
1.48773e-07
-1.50808e-07
-3.19069e-09
-1.52146e-07
-5.23965e-09
-1.53716e-07
-6.67047e-09
-1.55531e-07
-7.51141e-09
-1.576e-07
-7.78979e-09
-1.59927e-07
-7.53305e-09
-1.62514e-07
-6.7695e-09
-1.6536e-07
-5.52859e-09
-3.84346e-09
-1.68456e-07
-1.49525e-07
6.73901e-10
1.48356e-07
-1.5097e-07
-1.74545e-09
-1.52695e-07
-3.51398e-09
-1.54708e-07
-4.65774e-09
-1.57015e-07
-5.20401e-09
-1.59624e-07
-5.18073e-09
-1.6254e-07
-4.61744e-09
-1.65763e-07
-3.54588e-09
-1.69292e-07
-2.00006e-09
-1.89786e-11
-1.73116e-07
-1.49478e-07
2.14825e-09
1.48004e-07
-1.51276e-07
5.26205e-11
-1.534e-07
-1.38987e-09
-1.55857e-07
-2.20088e-09
-1.58655e-07
-2.4057e-09
-1.61804e-07
-2.03228e-09
-1.65309e-07
-1.11227e-09
-1.69173e-07
3.1864e-10
-1.73394e-07
2.22086e-09
4.54831e-09
-1.77961e-07
-1.49909e-07
3.92448e-09
1.48133e-07
-1.52041e-07
2.18414e-09
-1.54535e-07
1.10419e-09
-1.57403e-07
6.67632e-10
-1.6066e-07
8.51216e-10
-1.64319e-07
1.62657e-09
-1.6839e-07
2.95907e-09
-1.72879e-07
4.80759e-09
-1.77783e-07
7.12494e-09
9.85547e-09
-1.8309e-07
-1.51073e-07
5.96727e-09
1.4903e-07
-1.5349e-07
4.60041e-09
-1.56297e-07
3.91146e-09
-1.59518e-07
3.88823e-09
-1.63176e-07
4.5093e-09
-1.67294e-07
5.74489e-09
-1.7189e-07
7.55544e-09
-1.76974e-07
9.89159e-09
-1.82544e-07
1.26951e-08
1.58968e-08
-1.88586e-07
-1.5318e-07
8.20618e-09
1.50941e-07
-1.55799e-07
7.21964e-09
-1.58831e-07
6.94378e-09
-1.62315e-07
7.37197e-09
-1.6629e-07
8.48476e-09
-1.70795e-07
1.02497e-08
-1.75859e-07
1.26195e-08
-1.81499e-07
1.55316e-08
-1.87714e-07
1.89101e-08
2.26651e-08
-1.94483e-07
-1.56393e-07
1.05422e-08
1.54057e-07
-1.59103e-07
9.93006e-09
-1.62241e-07
1.00814e-08
-1.65867e-07
1.09983e-08
-1.70047e-07
1.26647e-08
-1.74842e-07
1.50452e-08
-1.80304e-07
1.8081e-08
-1.86461e-07
2.16884e-08
-1.93311e-07
2.57601e-08
3.01671e-08
-2.00813e-07
-1.60867e-07
1.28589e-08
1.5855e-07
-1.6353e-07
1.25939e-08
-1.6662e-07
1.31711e-08
-1.70229e-07
1.46075e-08
-1.74461e-07
1.68963e-08
-1.79417e-07
2.00015e-08
-1.85187e-07
2.38514e-08
-1.91826e-07
2.83312e-08
-1.9934e-07
3.32755e-08
3.84553e-08
-2.07636e-07
-1.66798e-07
1.50344e-08
1.64622e-07
-1.69258e-07
1.50543e-08
-1.72112e-07
1.60247e-08
-1.75496e-07
1.79915e-08
-1.7957e-07
2.09711e-08
-1.8451e-07
2.4941e-08
-1.90485e-07
2.98297e-08
-1.97618e-07
3.54952e-08
-2.06007e-07
4.16578e-08
4.78472e-08
-2.15406e-07
-1.7449e-07
1.69784e-08
1.72546e-07
-1.76599e-07
1.71626e-08
-1.79008e-07
1.84335e-08
-1.81906e-07
2.08902e-08
-1.85538e-07
2.46028e-08
-1.90191e-07
2.95943e-08
-1.96188e-07
3.5827e-08
-2.03885e-07
4.31977e-08
-2.13514e-07
5.12935e-08
5.90978e-08
-2.24759e-07
-1.84432e-07
1.86877e-08
1.82723e-07
-1.86092e-07
1.88221e-08
-1.87837e-07
2.01785e-08
-1.89884e-07
2.29374e-08
-1.92542e-07
2.72602e-08
-1.96191e-07
3.32437e-08
-2.01319e-07
4.09545e-08
-2.08472e-07
5.03508e-08
-2.19447e-07
6.22651e-08
7.51629e-08
-2.3552e-07
-1.97317e-07
2.03465e-08
1.95658e-07
-1.98588e-07
2.00939e-08
-1.99526e-07
2.11159e-08
-2.00273e-07
2.36842e-08
-2.01102e-07
2.80896e-08
-2.02399e-07
3.4541e-08
-2.02729e-07
4.12835e-08
-1.89327e-07
4.42741e-08
-1.2078e-07
1.97073e-08
6.62248e-09
-9.87203e-08
-2.14328e-07
2.2658e-08
2.12016e-07
-2.15963e-07
2.17282e-08
-2.16838e-07
2.19907e-08
-2.16961e-07
2.38071e-08
-2.16448e-07
2.75791e-08
-2.14973e-07
3.30151e-08
-1.19063e-07
2.34469e-08
-2.87115e-08
9.68238e-09
-1.32536e-08
4.18086e-09
4.15606e-09
-1.13392e-08
-2.36127e-07
2.69638e-08
2.31821e-07
-2.39888e-07
2.54884e-08
-2.42963e-07
2.50668e-08
-2.45222e-07
2.61028e-08
-2.46004e-07
2.89271e-08
-1.45923e-07
2.91964e-08
-1.80489e-08
7.87487e-09
-1.04946e-08
2.55708e-09
-9.66379e-09
3.44818e-09
4.04538e-09
-9.42325e-09
-2.59369e-07
3.40159e-08
2.52135e-07
-2.66438e-07
3.25607e-08
-2.73158e-07
3.17956e-08
-2.79577e-07
3.25906e-08
-2.84456e-07
3.47849e-08
-1.56593e-07
3.43722e-08
-1.10641e-08
1.30927e-08
-1.06544e-08
2.41753e-09
-1.0248e-08
3.36359e-09
4.33951e-09
-9.9313e-09
-2.73909e-07
4.26444e-08
2.68312e-07
-2.79147e-07
3.98869e-08
-2.96338e-07
4.05425e-08
-3.05303e-07
4.1977e-08
-3.13904e-07
4.41036e-08
-3.23008e-07
4.82495e-08
-1.19152e-07
5.14201e-08
-1.15777e-08
1.97807e-08
-1.09052e-08
2.87e-09
3.44474e-09
-1.02162e-08
-2.82295e-07
5.13268e-08
2.76456e-07
-2.84063e-07
4.85733e-08
-2.91347e-07
4.80382e-08
-3.13877e-07
4.85261e-08
-3.22413e-07
5.19222e-08
-3.28919e-07
5.42921e-08
-3.32526e-07
5.8117e-08
-2.55293e-07
6.27073e-08
-1.16232e-07
5.31797e-08
3.51733e-08
-5.01928e-08
-2.76586e-07
5.87316e-08
2.62229e-07
-2.80351e-07
5.69364e-08
-2.86261e-07
5.48656e-08
-2.91283e-07
5.37591e-08
-3.13053e-07
5.37397e-08
-3.14061e-07
5.51916e-08
-3.11012e-07
5.51493e-08
-2.99206e-07
5.49113e-08
-2.65906e-07
5.36985e-08
5.07978e-08
-2.38157e-07
-2.674e-07
6.53605e-08
2.60819e-07
-2.73247e-07
6.29032e-08
-2.78526e-07
6.00604e-08
-2.81191e-07
5.89824e-08
-2.97473e-07
5.62921e-08
-3.01714e-07
5.36865e-08
-2.97532e-07
5.10429e-08
-2.90247e-07
4.76632e-08
-2.78647e-07
4.35005e-08
3.82217e-08
-2.58896e-07
-2.62313e-07
7.22501e-08
2.55383e-07
-2.79959e-07
7.03708e-08
-2.8734e-07
6.77545e-08
-2.87374e-07
6.32114e-08
-2.84192e-07
5.75572e-08
-2.90544e-07
5.24917e-08
-2.88526e-07
4.7829e-08
-2.82922e-07
4.20612e-08
-2.74316e-07
3.55759e-08
2.83055e-08
-2.63615e-07
-2.64263e-07
8.03261e-08
2.47312e-07
-2.74268e-07
7.74912e-08
-2.78623e-07
7.21113e-08
-2.81426e-07
6.6234e-08
-2.82775e-07
5.99401e-08
-2.83247e-07
5.32102e-08
-2.81639e-07
4.59822e-08
-2.7773e-07
3.8153e-08
-2.71723e-07
2.95833e-08
2.02159e-08
-2.63643e-07
-2.57656e-07
8.94112e-08
2.43009e-07
-2.63555e-07
8.33888e-08
-2.68404e-07
7.69609e-08
-2.72238e-07
7.00704e-08
-2.74919e-07
6.26203e-08
-2.76229e-07
5.45207e-08
-2.75916e-07
4.56732e-08
-2.7373e-07
3.59671e-08
-2.69455e-07
2.53085e-08
1.36371e-08
-2.62876e-07
-2.44021e-07
9.66622e-08
2.36769e-07
-2.50628e-07
8.99959e-08
-2.56549e-07
8.28823e-08
-2.6168e-07
7.52022e-08
-2.65873e-07
6.68136e-08
-2.6892e-07
5.75671e-08
-2.70548e-07
4.73012e-08
-2.7043e-07
3.58499e-08
-2.68181e-07
2.30597e-08
8.80506e-09
-2.63349e-07
-2.27795e-07
1.04459e-07
2.19998e-07
-2.35264e-07
9.7463e-08
-2.42328e-07
8.99477e-08
-2.48915e-07
8.17844e-08
-2.54898e-07
7.27846e-08
-2.60073e-07
6.27422e-08
-2.64166e-07
5.13943e-08
-2.66779e-07
3.8463e-08
-2.67368e-07
2.36485e-08
6.64557e-09
-2.65208e-07
-2.07919e-07
1.12756e-07
1.99623e-07
-2.16013e-07
1.05569e-07
-2.23948e-07
9.78873e-08
-2.31737e-07
8.95721e-08
-2.3935e-07
8.0395e-08
-2.46727e-07
7.00754e-08
-2.53582e-07
5.82496e-08
-2.59583e-07
4.4464e-08
-2.64127e-07
2.8192e-08
8.78489e-09
-2.66265e-07
-1.83368e-07
1.20703e-07
1.75421e-07
-1.91147e-07
1.13374e-07
-1.98929e-07
1.05672e-07
-2.06831e-07
9.7473e-08
-2.14982e-07
8.85455e-08
-2.23505e-07
7.85708e-08
-2.32366e-07
6.71103e-08
-2.41467e-07
5.35653e-08
-2.50426e-07
3.7151e-08
1.66899e-08
-2.58335e-07
-1.52908e-07
1.26897e-07
1.46714e-07
-1.58725e-07
1.19193e-07
-1.64344e-07
1.11313e-07
-1.70006e-07
1.03158e-07
-1.76005e-07
9.45541e-08
-1.82659e-07
8.522e-08
-1.90283e-07
7.47289e-08
-1.99185e-07
6.24674e-08
-2.09387e-07
4.73547e-08
2.70935e-08
-2.19775e-07
-1.16348e-07
1.29628e-07
1.13617e-07
-1.18067e-07
1.20913e-07
-1.18956e-07
1.12201e-07
-1.19264e-07
1.03466e-07
-1.19324e-07
9.46155e-08
-1.19568e-07
8.54639e-08
-1.20554e-07
7.57142e-08
-1.228e-07
6.47082e-08
-1.25098e-07
4.958e-08
2.22782e-08
-1.12793e-07
-7.60143e-08
1.27567e-07
7.80754e-08
-7.21949e-08
1.17094e-07
-6.68248e-08
1.06832e-07
-6.02156e-08
9.68578e-08
-5.28202e-08
8.72204e-08
-4.52833e-08
7.79273e-08
-3.84203e-08
6.88506e-08
-3.17216e-08
5.79753e-08
-2.41983e-08
2.85844e-08
7.12114e-09
-1.61641e-08
-3.62212e-08
1.2071e-07
4.30786e-08
-2.74292e-08
1.08302e-07
-1.71995e-08
9.66007e-08
-6.23093e-09
8.5887e-08
4.49541e-09
7.64902e-08
1.3621e-08
6.88008e-08
1.95053e-08
6.29624e-08
1.01319e-08
3.75903e-08
1.156e-09
1.06575e-08
2.86896e-09
-2.3014e-09
1.03007e-09
1.10034e-07
9.64585e-09
1.30396e-08
9.62926e-08
2.54975e-08
8.41425e-08
3.73481e-08
7.40329e-08
4.7295e-08
6.65401e-08
5.38829e-08
6.2212e-08
3.54774e-08
4.89754e-08
3.71216e-09
1.37563e-08
0
4.87347e-09
3.36668e-09
-8.30473e-10
3.84653e-08
9.66341e-08
-2.50655e-08
5.19987e-08
8.27595e-08
6.47385e-08
7.14025e-08
7.58379e-08
6.29358e-08
8.44842e-08
5.78942e-08
7.4666e-08
5.53162e-08
1.53082e-08
2.24517e-08
1.07689e-09
4.51524e-09
1.49825e-09
4.12931e-09
9.44641e-10
3.68729e-09
8.21225e-08
8.25638e-08
-6.80524e-08
9.49277e-08
6.99536e-08
1.06064e-07
6.02654e-08
1.15378e-07
5.36174e-08
1.2306e-07
5.02125e-08
7.3512e-08
4.11186e-08
4.47627e-09
6.27854e-09
4.76577e-09
3.87789e-09
6.83128e-09
1.8292e-09
-4.36156e-09
1.19191e-08
1.38117e-07
7.29751e-08
-1.28529e-07
1.46291e-07
6.17789e-08
1.53368e-07
5.31884e-08
1.59852e-07
4.71318e-08
1.66627e-07
4.34383e-08
4.93224e-08
2.62573e-08
7.24819e-09
3.52932e-09
8.82405e-09
2.00482e-09
1.30577e-08
-2.72595e-09
-1.2538e-08
2.09995e-08
1.95248e-07
7.037e-08
-1.92644e-07
1.9753e-07
5.94959e-08
2.00212e-07
5.02315e-08
2.04444e-07
4.29827e-08
2.11079e-07
3.68038e-08
2.91598e-08
1.52578e-08
1.01069e-08
1.77634e-09
1.39022e-08
-2.41042e-09
2.09608e-08
-1.03473e-08
-3.16287e-08
4.00124e-08
2.34717e-07
7.11024e-08
-2.35037e-07
2.34332e-07
5.90088e-08
2.36226e-07
4.7743e-08
2.41808e-07
3.77098e-08
1.9395e-07
2.61572e-08
1.44029e-08
3.82128e-09
1.52455e-08
-2.88096e-09
2.00458e-08
-9.24303e-09
3.63006e-08
-2.7301e-08
-8.4357e-08
8.98394e-08
2.48481e-07
6.79651e-08
-2.4537e-07
2.51954e-07
5.41272e-08
2.57292e-07
4.07721e-08
2.68428e-07
2.66051e-08
1.6724e-07
6.27129e-09
1.9861e-08
-4.27455e-09
2.66566e-08
-1.29366e-08
3.92396e-08
-2.52677e-08
8.575e-08
-7.4228e-08
-2.95906e-07
2.9923e-07
2.43937e-07
5.64529e-08
-2.32531e-07
2.55133e-07
4.15998e-08
2.71468e-07
2.56671e-08
2.92315e-07
5.72693e-09
6.99278e-08
-1.29786e-08
3.53222e-08
-1.46818e-08
4.40115e-08
-2.713e-08
8.57123e-08
-7.09648e-08
2.67753e-07
-2.54565e-07
-7.4853e-07
8.76096e-07
2.355e-07
3.72843e-08
-2.16894e-07
2.56218e-07
2.09738e-08
2.81316e-07
7.203e-10
1.82141e-07
-2.22145e-08
4.16986e-08
-2.10136e-08
5.00479e-08
-3.57381e-08
9.21663e-08
-8.01053e-08
2.4127e-07
-2.22405e-07
8.0688e-07
-6.89789e-07
-9.29929e-07
1.05853e-06
2.26791e-07
1.18728e-08
-2.01357e-07
2.55931e-07
-8.22062e-09
2.25138e-07
-3.2799e-08
6.25685e-08
-2.77891e-08
6.9411e-08
-4.80464e-08
1.05436e-07
-8.98317e-08
2.26768e-07
-2.14487e-07
7.21596e-07
-6.28482e-07
1.02816e-06
-9.07334e-07
-9.72118e-07
1.07265e-06
2.16221e-07
-2.00775e-08
-1.84253e-07
2.43195e-07
-3.51062e-08
8.25132e-08
-3.43662e-08
8.33299e-08
-5.56506e-08
1.16916e-07
-1.0455e-07
2.32301e-07
-2.25426e-07
6.67823e-07
-6.10071e-07
9.92159e-07
-8.91254e-07
1.04501e-06
-9.59857e-07
-9.87938e-07
1.06131e-06
1.95591e-07
-5.02385e-08
-1.65342e-07
8.59667e-08
-4.07297e-08
8.79656e-08
-6.36831e-08
1.2888e-07
-1.2215e-07
2.56906e-07
-2.59622e-07
6.70546e-07
-6.45936e-07
9.52671e-07
-8.82272e-07
1.00904e-06
-9.47735e-07
1.02815e-06
-9.78763e-07
-9.93975e-07
1.03475e-06
8.36091e-08
-4.72786e-08
-1.39275e-07
8.67952e-08
-7.42644e-08
1.36367e-07
-1.42088e-07
2.80044e-07
-2.93145e-07
6.90137e-07
-6.87229e-07
9.09448e-07
-8.76394e-07
9.6161e-07
-9.34686e-07
9.82291e-07
-9.6844e-07
9.92384e-07
-9.88574e-07
-9.96868e-07
9.9568e-07
8.01451e-08
-8.78272e-08
-7.87259e-08
1.40895e-07
-1.69753e-07
2.98222e-07
-3.29764e-07
6.87269e-07
-7.17827e-07
8.52899e-07
-8.6839e-07
8.97878e-07
-9.21607e-07
9.208e-07
-9.57669e-07
9.35062e-07
-9.82606e-07
9.42744e-07
-9.96076e-07
-9.95592e-07
9.41699e-07
1.42634e-07
-2.12153e-07
-6.39623e-08
3.16438e-07
-4.16653e-07
6.3675e-07
-7.38215e-07
7.73536e-07
-8.56636e-07
8.14261e-07
-9.09447e-07
8.4094e-07
-9.48347e-07
8.60705e-07
-9.77415e-07
8.73724e-07
-9.95582e-07
8.77169e-07
-9.99458e-07
-9.80538e-07
8.62508e-07
3.5899e-07
-5.54663e-07
-1.44138e-07
5.58265e-07
-7.61231e-07
6.65256e-07
-8.46322e-07
7.0815e-07
-8.99662e-07
7.41242e-07
-9.42554e-07
7.68019e-07
-9.7512e-07
7.86673e-07
-9.96051e-07
7.95426e-07
-1.00433e-06
7.85511e-07
-9.89488e-07
-9.24169e-07
7.30557e-07
4.57053e-07
-7.7117e-07
-3.4743e-07
5.3241e-07
-8.36897e-07
5.80099e-07
-8.9406e-07
6.22433e-07
-9.41989e-07
6.5746e-07
-9.7758e-07
6.81722e-07
-9.99379e-07
6.94106e-07
-1.00843e-06
6.92043e-07
-1.00232e-06
6.50555e-07
-9.47401e-07
-5.69018e-07
4.07454e-07
3.76105e-07
-8.29863e-07
-3.17404e-07
4.33282e-07
-8.94034e-07
4.86788e-07
-9.47565e-07
5.30617e-07
-9.85815e-07
5.60197e-07
-1.00716e-06
5.74507e-07
-1.01369e-06
5.75155e-07
-1.00907e-06
5.53335e-07
-9.80533e-07
3.67119e-07
-7.00353e-07
-8.4852e-08
7.43893e-08
2.75489e-07
-8.97004e-07
-2.08347e-07
3.38898e-07
-9.57443e-07
3.90503e-07
-9.99169e-07
4.24519e-07
-1.01983e-06
4.39685e-07
-1.02233e-06
4.38441e-07
-1.01243e-06
4.23797e-07
-9.94362e-07
3.30115e-07
-8.86757e-07
4.82196e-08
-1.69403e-07
-6.87764e-09
8.74002e-09
1.80155e-07
-9.66412e-07
-1.10747e-07
2.37886e-07
-1.01517e-06
2.76531e-07
-1.03781e-06
2.934e-07
-1.0367e-06
2.9079e-07
-1.01971e-06
2.72968e-07
-9.94544e-07
2.3952e-07
-9.60682e-07
1.04912e-07
-6.26132e-07
5.80326e-09
-1.45343e-08
-1.27485e-09
3.61837e-10
6.89008e-08
-1.02953e-06
-5.78608e-09
1.14732e-07
-1.06101e-06
1.38152e-07
-1.06122e-06
1.39778e-07
-1.03826e-06
1.23654e-07
-1.00317e-06
9.38393e-08
-9.63736e-07
4.43576e-08
-9.06162e-07
4.37166e-10
-4.40028e-07
-2.51065e-10
-7.41983e-09
-1.34867e-09
-2.09774e-10
-5.97104e-08
-1.08209e-06
1.12274e-07
-2.54087e-08
-1.09531e-06
-1.19009e-08
-1.07472e-06
-1.72805e-08
-1.0328e-06
-3.81687e-08
-9.81502e-07
-7.19557e-08
-9.28841e-07
-1.07214e-07
-8.63328e-07
-2.77958e-08
-4.38079e-07
-2.57221e-09
-3.30541e-08
-3.29386e-09
-6.89367e-10
-1.94775e-07
-1.1246e-06
2.37286e-07
-1.66525e-07
-1.12355e-06
-1.54007e-07
-1.08723e-06
-1.56564e-07
-1.03021e-06
-1.72929e-07
-9.64459e-07
-2.02355e-07
-8.95968e-07
-2.38603e-07
-8.23283e-07
-8.82701e-08
-6.46863e-07
-1.11012e-08
-1.12855e-07
-1.26471e-08
-2.18921e-09
-3.23502e-07
-1.16093e-06
3.59836e-07
-2.94526e-07
-1.15253e-06
-2.74793e-07
-1.10697e-06
-2.66097e-07
-1.0389e-06
-2.6836e-07
-9.61438e-07
-2.84912e-07
-8.67978e-07
-3.119e-07
-7.87055e-07
-2.87459e-07
-6.92163e-07
-7.38362e-08
-4.59255e-07
-7.74669e-08
-1.20831e-08
-4.3254e-07
-1.19373e-06
4.65337e-07
-3.9989e-07
-1.18518e-06
-3.69494e-07
-1.13736e-06
-3.45534e-07
-1.06285e-06
-3.30373e-07
-9.76292e-07
-3.23886e-07
-8.66607e-07
-3.33302e-07
-7.67808e-07
-3.36642e-07
-6.81054e-07
-2.73135e-07
-6.13386e-07
-4.51604e-07
-8.73764e-08
-5.10422e-07
-1.22139e-06
5.38086e-07
-4.77083e-07
-1.21852e-06
-4.38888e-07
-1.17556e-06
-4.01825e-07
-1.09992e-06
-3.70467e-07
-1.00752e-06
-3.34443e-07
-9.03258e-07
-3.30289e-07
-7.7642e-07
-3.20801e-07
-6.86487e-07
-3.26009e-07
-6.18762e-07
-5.58083e-07
-3.10959e-07
-5.50112e-07
-1.24146e-06
5.70179e-07
-5.21605e-07
-1.24703e-06
-4.82107e-07
-1.21506e-06
-4.37394e-07
-1.14463e-06
-3.96278e-07
-1.04866e-06
-3.57728e-07
-9.44252e-07
-3.22396e-07
-8.21734e-07
-3.13736e-07
-6.97114e-07
-3.10992e-07
-6.18883e-07
-5.59556e-07
-3.09984e-07
-5.49672e-07
-1.25374e-06
5.61954e-07
-5.29749e-07
-1.26695e-06
-4.95597e-07
-1.24921e-06
-4.4854e-07
-1.19169e-06
-3.99813e-07
-1.0974e-06
-3.58477e-07
-9.85652e-07
-3.18988e-07
-8.70788e-07
-2.97559e-07
-7.22625e-07
-2.83787e-07
-6.24508e-07
-5.37363e-07
-2.9396e-07
-5.14008e-07
-1.26093e-06
5.21195e-07
-5.02635e-07
-1.27832e-06
-4.78588e-07
-1.27325e-06
-4.36051e-07
-1.23423e-06
-3.82191e-07
-1.15126e-06
-3.32287e-07
-1.03556e-06
-2.93584e-07
-9.10149e-07
-2.55156e-07
-7.84301e-07
-2.35845e-07
-6.35898e-07
-5.19128e-07
-2.46556e-07
-4.53829e-07
-1.26598e-06
4.58875e-07
-4.47911e-07
-1.28424e-06
-4.341e-07
-1.28706e-06
-4.02216e-07
-1.26611e-06
-3.49501e-07
-1.20397e-06
-2.90754e-07
-1.09431e-06
-2.43967e-07
-9.56944e-07
-2.10433e-07
-8.17947e-07
-1.8254e-07
-6.82795e-07
-5.25415e-07
-1.87695e-07
-3.83042e-07
-1.27076e-06
3.87823e-07
-3.79077e-07
-1.28821e-06
-3.71398e-07
-1.29474e-06
-3.51171e-07
-1.28634e-06
-3.07457e-07
-1.24769e-06
-2.44441e-07
-1.15733e-06
-1.87179e-07
-1.01421e-06
-1.51107e-07
-8.54026e-07
-1.31401e-07
-7.04326e-07
-5.49422e-07
-1.23765e-07
-3.13414e-07
-1.27591e-06
3.18572e-07
-3.09613e-07
-1.29201e-06
-3.03724e-07
-1.30063e-06
-2.90865e-07
-1.2992e-06
-2.59755e-07
-1.2788e-06
-2.00059e-07
-1.21702e-06
-1.3416e-07
-1.08011e-06
-9.07795e-08
-8.97407e-07
-7.34108e-08
-7.21718e-07
-5.64989e-07
-6.80505e-08
-2.52153e-07
-1.28e-06
2.5624e-07
-2.48809e-07
-1.29535e-06
-2.43054e-07
-1.30639e-06
-2.33105e-07
-1.30915e-06
-2.1266e-07
-1.29924e-06
-1.63204e-07
-1.26648e-06
-9.32449e-08
-1.15006e-06
-4.39312e-08
-9.46721e-07
-2.56894e-08
-7.3996e-07
-5.60089e-07
-3.00358e-08
-2.0376e-07
-1.28229e-06
2.06047e-07
-2.01571e-07
-1.29754e-06
-1.96049e-07
-1.31191e-06
-1.87514e-07
-1.31768e-06
-1.7421e-07
-1.31255e-06
-1.38196e-07
-1.30249e-06
-7.00633e-08
-1.2182e-06
-1.45491e-08
-1.00223e-06
4.17898e-09
-7.58688e-07
-5.46274e-07
-9.1e-09
-1.68619e-07
-1.28181e-06
1.68141e-07
-1.68189e-07
-1.29797e-06
-1.63543e-07
-1.31656e-06
-1.57534e-07
-1.32369e-06
-1.50406e-07
-1.31967e-06
-1.28712e-07
-1.32419e-06
-6.89774e-08
-1.27793e-06
-4.87484e-09
-1.06634e-06
1.62071e-08
-7.7977e-07
-5.26532e-07
-3.42888e-09
-1.43968e-07
-1.27602e-06
1.38182e-07
-1.45882e-07
-1.29606e-06
-1.42546e-07
-1.31989e-06
-1.40903e-07
-1.32533e-06
-1.40789e-07
-1.31979e-06
-1.34137e-07
-1.33084e-06
-9.01897e-08
-1.32188e-06
-1.63311e-08
-1.1402e-06
1.32293e-08
-8.09331e-07
-5.02982e-07
-1.0319e-08
-1.28126e-07
-1.26314e-06
1.15243e-07
-1.31349e-07
-1.29283e-06
-1.29007e-07
-1.32223e-06
-1.3294e-07
-1.3214e-06
-1.39324e-07
-1.31341e-06
-1.46392e-07
-1.32377e-06
-1.24644e-07
-1.34363e-06
-4.3768e-08
-1.22107e-06
6.95643e-09
-8.60055e-07
-4.7556e-07
-2.04662e-08
-1.19224e-07
-1.23862e-06
9.47025e-08
-1.19047e-07
-1.29301e-06
-1.18053e-07
-1.32323e-06
-1.29e-07