/*--------------------------------*- C++ -*----------------------------------*\
  =========                 |
  \\      /  F ield         | OpenFOAM: The Open Source CFD Toolbox
   \\    /   O peration     | Website:  https://openfoam.org
    \\  /    A nd           | Version:  8
     \\/     M anipulation  |
\*---------------------------------------------------------------------------*/
FoamFile
{
    version     2.0;
    format      ascii;
    class       volVectorField;
    location    "2.5";
    object      U;
}
// * * * * * * * * * * * * * * * * * * * * * * * * * * * * * * * * * * * * * //

dimensions      [0 1 -1 0 0 0 0];

internalField   nonuniform List<vector> 
9150
(
(0.0536085 -0.429263 0)
(0.0877291 -0.622574 0)
(0.0729276 -0.631668 0)
(0.0482844 -0.643911 0)
(0.0166165 -0.654528 0)
(-0.0174774 -0.654402 0)
(-0.0489902 -0.64359 0)
(-0.0734248 -0.63133 0)
(-0.0879838 -0.622217 0)
(-0.0536839 -0.428724 0)
(0.0405423 -0.522924 0)
(0.0571567 -0.625798 0)
(0.0419363 -0.61332 0)
(0.0291426 -0.62255 0)
(0.0102022 -0.628911 0)
(-0.0107928 -0.628851 0)
(-0.0296425 -0.622383 0)
(-0.0423197 -0.61314 0)
(-0.0574074 -0.625665 0)
(-0.040637 -0.522546 0)
(0.0250664 -0.558058 0)
(0.0323145 -0.613898 0)
(0.0229123 -0.604527 0)
(0.01709 -0.610032 0)
(0.00605975 -0.613217 0)
(-0.00643778 -0.61319 0)
(-0.0174159 -0.609956 0)
(-0.0231632 -0.604438 0)
(-0.0325063 -0.613867 0)
(-0.0251573 -0.557858 0)
(0.0152293 -0.584743 0)
(0.0173456 -0.607506 0)
(0.0116749 -0.601158 0)
(0.00877424 -0.603293 0)
(0.00313948 -0.604408 0)
(-0.0033461 -0.6044 0)
(-0.00895475 -0.603268 0)
(-0.0118139 -0.601126 0)
(-0.0174623 -0.60751 0)
(-0.0152897 -0.584666 0)
(0.00621297 -0.597157 0)
(0.00551184 -0.60141 0)
(0.00356982 -0.600043 0)
(0.0026475 -0.600348 0)
(0.00096082 -0.600484 0)
(-0.00102413 -0.600484 0)
(-0.0027031 -0.600345 0)
(-0.00361273 -0.600039 0)
(-0.0055506 -0.601414 0)
(-0.00623436 -0.597147 0)
(0.469968 -1.16638 1.70484e-24)
(0.281175 -1.09002 0)
(0.16021 -1.0725 0)
(0.0881929 -1.05983 0)
(0.0258954 -1.05393 0)
(-0.0349498 -1.05251 0)
(-0.096225 -1.05577 0)
(-0.166639 -1.06625 0)
(-0.285413 -1.08198 0)
(-0.467955 -1.15572 -1.58692e-24)
(0.334659 -0.846805 4.70227e-25)
(0.287007 -0.939049 0)
(0.186955 -0.938723 0)
(0.106064 -0.93811 0)
(0.0332331 -0.939653 0)
(-0.0383085 -0.9387 0)
(-0.110403 -0.935491 0)
(-0.190099 -0.935041 0)
(-0.288049 -0.934569 0)
(-0.333305 -0.841409 -4.45914e-25)
(0.278944 -0.703498 7.6475e-26)
(0.258917 -0.805927 0)
(0.177475 -0.81859 0)
(0.103326 -0.829122 0)
(0.0333371 -0.836755 0)
(-0.0363827 -0.83619 0)
(-0.10587 -0.827577 0)
(-0.17913 -0.816436 0)
(-0.259382 -0.803562 0)
(-0.27836 -0.701008 -6.93957e-26)
(0.199439 -0.554834 2.95162e-25)
(0.216405 -0.710148 0)
(0.153919 -0.726493 0)
(0.090561 -0.742487 0)
(0.0295951 -0.754111 0)
(-0.0315013 -0.753761 0)
(-0.0921234 -0.741553 0)
(-0.154916 -0.725293 0)
(-0.216664 -0.708896 0)
(-0.199168 -0.553421 -2.9665e-25)
(0.118139 -0.44598 -4.72509e-25)
(0.155921 -0.644741 -6.74238e-25)
(0.116421 -0.664144 -2.28616e-25)
(0.0704027 -0.681496 -1.48548e-25)
(0.0233378 -0.694325 -7.96929e-27)
(-0.0245994 -0.694113 -9.26802e-27)
(-0.0714316 -0.680945 -1.51774e-25)
(-0.117096 -0.663493 -2.29821e-25)
(-0.156157 -0.644073 -6.74632e-25)
(-0.118095 -0.445166 -4.71702e-25)
(0.0183254 -1.01913 0)
(-0.0642051 -1.38157 0)
(-0.00678509 -1.29398 0)
(-0.0431168 -1.25413 0)
(-0.0432684 -1.24645 0)
(-0.0507442 -1.23753 0)
(-0.068435 -1.24122 0)
(-0.089527 -1.29964 0)
(-0.0603599 -1.3073 0)
(-0.149119 -0.786588 0)
(0.0448572 -0.970898 0)
(-0.0438616 -1.35855 0)
(0.00506834 -1.28435 0)
(-0.0266181 -1.24252 0)
(-0.0303186 -1.23542 0)
(-0.0325665 -1.22825 0)
(-0.0437567 -1.22824 0)
(-0.0537413 -1.2721 0)
(-0.0180008 -1.3002 0)
(-0.0599243 -0.795209 0)
(0.073857 -0.988673 0)
(-0.0397865 -1.3622 0)
(0.00530579 -1.28433 0)
(-0.012295 -1.24231 0)
(-0.0205142 -1.23357 0)
(-0.0222962 -1.22879 0)
(-0.0340139 -1.23131 0)
(-0.0342957 -1.27505 0)
(-0.00898866 -1.33697 0)
(-0.0951545 -0.875008 0)
(0.141912 -1.10317 0)
(-0.00804996 -1.37444 0)
(0.00793954 -1.27827 0)
(0.0100081 -1.23267 0)
(-0.00743729 -1.21825 0)
(-0.0202504 -1.21512 0)
(-0.0353655 -1.22313 0)
(-0.0242963 -1.26599 0)
(-0.024154 -1.36 0)
(-0.152685 -1.0449 0)
(0.299534 -1.22932 0)
(0.122144 -1.32719 0)
(0.063238 -1.21558 0)
(0.0499458 -1.17301 0)
(0.0122791 -1.1583 0)
(-0.0283626 -1.15614 0)
(-0.063401 -1.166 0)
(-0.0757918 -1.20636 0)
(-0.13823 -1.3173 0)
(-0.300852 -1.20252 0)
(-0.0438938 -0.00124244 0)
(-0.0430478 -0.00119804 0)
(-0.0422352 -0.0011367 0)
(-0.041469 -0.00105905 0)
(-0.0407605 -0.000966641 0)
(-0.0401195 -0.000861817 0)
(-0.0395543 -0.000746984 0)
(-0.039071 -0.000625091 0)
(-0.0386729 -0.000499152 0)
(-0.0383617 -0.000372517 0)
(-0.0446794 -0.00240301 0)
(-0.0441069 -0.00233151 0)
(-0.0435527 -0.00222294 0)
(-0.0430261 -0.00208002 0)
(-0.042536 -0.00190629 0)
(-0.0420899 -0.00170682 0)
(-0.041694 -0.00148709 0)
(-0.0413529 -0.00125333 0)
(-0.0410691 -0.00101209 0)
(-0.0408432 -0.000770516 0)
(-0.0441538 -0.00333448 0)
(-0.0437448 -0.00324621 0)
(-0.0433461 -0.0031034 0)
(-0.0429656 -0.00291017 0)
(-0.0426109 -0.00267204 0)
(-0.0422884 -0.00239613 0)
(-0.0420035 -0.00209058 0)
(-0.0417602 -0.00176463 0)
(-0.0415609 -0.0014283 0)
(-0.0414064 -0.0010924 0)
(-0.04334 -0.00402578 0)
(-0.0430428 -0.00393087 0)
(-0.0427512 -0.0037655 0)
(-0.0424726 -0.00353486 0)
(-0.0422142 -0.0032461 0)
(-0.0419823 -0.00290811 0)
(-0.0417822 -0.0025313 0)
(-0.041618 -0.00212755 0)
(-0.0414925 -0.00170991 0)
(-0.0414071 -0.00129257 0)
(-0.0424125 -0.00452509 0)
(-0.042194 -0.00443039 0)
(-0.0419783 -0.00424981 0)
(-0.041773 -0.00398933 0)
(-0.0415855 -0.00365733 0)
(-0.0414226 -0.00326422 0)
(-0.0412904 -0.0028224 0)
(-0.0411935 -0.00234608 0)
(-0.0411355 -0.00185112 0)
(-0.0411188 -0.00135496 0)
(-0.0414486 -0.00489213 0)
(-0.0412823 -0.00480202 0)
(-0.041117 -0.00460994 0)
(-0.0409611 -0.00432231 0)
(-0.0408229 -0.00394838 0)
(-0.0407102 -0.00349982 0)
(-0.0406302 -0.00299075 0)
(-0.0405888 -0.00243764 0)
(-0.0405911 -0.00185905 0)
(-0.0406405 -0.00127574 0)
(-0.0405012 -0.00517725 0)
(-0.0403635 -0.00509508 0)
(-0.0402255 -0.00489327 0)
(-0.0400965 -0.00457827 0)
(-0.0399861 -0.00415975 0)
(-0.0399039 -0.0036503 0)
(-0.0398587 -0.0030655 0)
(-0.0398585 -0.00242391 0)
(-0.0399102 -0.00174687 0)
(-0.0400193 -0.00105868 0)
(-0.0396171 -0.005425 0)
(-0.0394862 -0.0053548 0)
(-0.0393528 -0.00514499 0)
(-0.0392278 -0.0048015 0)
(-0.0391225 -0.00433387 0)
(-0.0390486 -0.00375505 0)
(-0.0390174 -0.00308168 0)
(-0.0390395 -0.00233413 0)
(-0.0391246 -0.0015365 0)
(-0.0392812 -0.000716969 0)
(-0.038844 -0.00567669 0)
(-0.0386992 -0.00562489 0)
(-0.0385483 -0.00541081 0)
(-0.0384036 -0.00503907 0)
(-0.0382787 -0.00451827 0)
(-0.0381875 -0.00386094 0)
(-0.0381445 -0.00308397 0)
(-0.0381639 -0.00220897 0)
(-0.0382594 -0.00126251 0)
(-0.0384436 -0.000276791 0)
(-0.0382347 -0.0059699 0)
(-0.0380575 -0.00594716 0)
(-0.037868 -0.00573676 0)
(-0.0376799 -0.00534098 0)
(-0.0375087 -0.0047664 0)
(-0.0373712 -0.00402384 0)
(-0.0372853 -0.0031292 0)
(-0.0372697 -0.00210408 0)
(-0.0373432 -0.000976518 0)
(-0.0375245 0.000217803 0)
(-0.0378487 -0.00633616 0)
(-0.0376247 -0.00635903 0)
(-0.0373785 -0.00616671 0)
(-0.0371249 -0.00575805 0)
(-0.0368811 -0.00513612 0)
(-0.0366662 -0.00430836 0)
(-0.0365019 -0.00328765 0)
(-0.0364115 -0.00209344 0)
(-0.0364202 -0.000752961 0)
(-0.0365543 0.000696567 0)
(-0.0377526 -0.00679637 0)
(-0.0374738 -0.00688837 0)
(-0.0371593 -0.00673692 0)
(-0.0368237 -0.00633626 0)
(-0.0364849 -0.00568437 0)
(-0.0361637 -0.00478314 0)
(-0.0358844 -0.00363972 0)
(-0.0356751 -0.0022681 0)
(-0.0355676 -0.00069089 0)
(-0.0355973 0.00105733 0)
(-0.0380156 -0.00735471 0)
(-0.0376847 -0.00754619 0)
(-0.0373008 -0.00746744 0)
(-0.0368774 -0.00710718 0)
(-0.0364314 -0.0064567 0)
(-0.0359834 -0.00551012 0)
(-0.035559 -0.00426573 0)
(-0.0351889 -0.00272777 0)
(-0.0349105 -0.000908733 0)
(-0.0347683 0.00116616 0)
(-0.0387035 -0.00799227 0)
(-0.0383365 -0.00831854 0)
(-0.0378974 -0.00835211 0)
(-0.0373969 -0.00807574 0)
(-0.0368491 -0.00747322 0)
(-0.0362722 -0.00652929 0)
(-0.0356897 -0.00523068 0)
(-0.0351321 -0.0035677 0)
(-0.0346381 -0.00153654 0)
(-0.0342572 0.000855673 0)
(-0.0398655 -0.0086615 0)
(-0.0394941 -0.00915817 0)
(-0.0390326 -0.00934623 0)
(-0.0384878 -0.00920299 0)
(-0.0378697 -0.00870495 0)
(-0.0371918 -0.00782709 0)
(-0.0364727 -0.00654331 0)
(-0.0357378 -0.00482714 0)
(-0.0350217 -0.00265323 0)
(-0.0343721 -2.01809e-06 0)
(-0.0415197 -0.00928741 0)
(-0.0411883 -0.00998449 0)
(-0.0407533 -0.0103648 0)
(-0.0402176 -0.0104017 0)
(-0.0395864 -0.0100661 0)
(-0.0388674 -0.00932534 0)
(-0.0380716 -0.00814235 0)
(-0.0372151 -0.00647553 0)
(-0.0363214 -0.00427843 0)
(-0.0354247 -0.00150236 0)
(-0.043642 -0.0097744 0)
(-0.0434012 -0.0106893 0)
(-0.0430505 -0.0112852 0)
(-0.0425906 -0.0115328 0)
(-0.0420237 -0.0113997 0)
(-0.0413529 -0.0108482 0)
(-0.0405833 -0.00983442 0)
(-0.0397222 -0.00830625 0)
(-0.0387802 -0.00620194 0)
(-0.0377742 -0.0034501 0)
(-0.0461566 -0.0100298 0)
(-0.0460478 -0.0111676 0)
(-0.0458281 -0.0119868 0)
(-0.0454976 -0.0124569 0)
(-0.0450567 -0.0125447 0)
(-0.0445056 -0.0122119 0)
(-0.0438437 -0.0114139 0)
(-0.0430692 -0.0100985 0)
(-0.0421782 -0.00820394 0)
(-0.0411632 -0.00565906 0)
(-0.0489616 -0.00998648 0)
(-0.0490098 -0.0113445 0)
(-0.0489495 -0.0123831 0)
(-0.0487821 -0.0130717 0)
(-0.0485096 -0.0133775 0)
(-0.0481331 -0.013264 0)
(-0.0476528 -0.0126905 0)
(-0.0470665 -0.0116106 0)
(-0.0463695 -0.00997167 0)
(-0.0455532 -0.00771477 0)
(-0.0519451 -0.00961735 0)
(-0.0521503 -0.0111926 0)
(-0.0522478 -0.0124435 0)
(-0.0522411 -0.0133389 0)
(-0.0521341 -0.0138466 0)
(-0.0519296 -0.0139321 0)
(-0.0516292 -0.0135579 0)
(-0.0512317 -0.0126833 0)
(-0.050733 -0.0112631 0)
(-0.0501238 -0.00924895 0)
(-0.0550175 -0.0089429 0)
(-0.0553589 -0.0107397 0)
(-0.0555901 -0.0122023 0)
(-0.055717 -0.0132997 0)
(-0.0557456 -0.0140009 0)
(-0.0556803 -0.0142739 0)
(-0.055524 -0.0140855 0)
(-0.0552764 -0.013401 0)
(-0.0549341 -0.0121838 0)
(-0.0544889 -0.0103969 0)
(-0.0581166 -0.00801957 0)
(-0.0585583 -0.0100486 0)
(-0.0588855 -0.0117285 0)
(-0.0591068 -0.013029 0)
(-0.0592301 -0.0139212 0)
(-0.0592618 -0.0143767 0)
(-0.0592054 -0.0143675 0)
(-0.0590613 -0.0138654 0)
(-0.0588262 -0.012842 0)
(-0.0584926 -0.0112709 0)
(-0.061199 -0.00692921 0)
(-0.061696 -0.00920334 0)
(-0.0620755 -0.0111068 0)
(-0.0623495 -0.0126114 0)
(-0.0625283 -0.013692 0)
(-0.06262 -0.0143249 0)
(-0.0626293 -0.0144882 0)
(-0.0625571 -0.0141612 0)
(-0.0624005 -0.0133241 0)
(-0.0621523 -0.01196 0)
(-0.0642223 -0.00577072 0)
(-0.0647249 -0.00829706 0)
(-0.0651128 -0.0104228 0)
(-0.0654018 -0.012124 0)
(-0.0656051 -0.0133806 0)
(-0.0657327 -0.0141755 0)
(-0.0657906 -0.0144938 0)
(-0.0657808 -0.0143227 0)
(-0.0657013 -0.0136511 0)
(-0.0655462 -0.0124715 0)
(-0.0671228 -0.0046541 0)
(-0.0675811 -0.00742424 0)
(-0.067938 -0.00975433 0)
(-0.0682132 -0.0116273 0)
(-0.0684219 -0.0130304 0)
(-0.0685757 -0.0139543 0)
(-0.0686816 -0.014392 0)
(-0.0687427 -0.0143388 0)
(-0.0687579 -0.0137919 0)
(-0.0687232 -0.012752 0)
(-0.0697947 -0.00368949 0)
(-0.0701666 -0.0066685 0)
(-0.0704658 -0.00915978 0)
(-0.0707135 -0.0111565 0)
(-0.070925 -0.0126555 0)
(-0.0711121 -0.013656 0)
(-0.0712815 -0.0141592 0)
(-0.0714367 -0.0141683 0)
(-0.0715772 -0.0136876 0)
(-0.0717005 -0.0127248 0)
(-0.0720792 -0.00297057 0)
(-0.0723453 -0.00608384 0)
(-0.0725847 -0.00866138 0)
(-0.0728152 -0.0107087 0)
(-0.0730491 -0.0122327 0)
(-0.0732956 -0.0132409 0)
(-0.0735602 -0.013742 0)
(-0.073845 -0.0137456 0)
(-0.0741496 -0.0132622 0)
(-0.074472 -0.012305 0)
(-0.0737509 -0.00253331 0)
(-0.0739495 -0.00566201 0)
(-0.0741734 -0.00822222 0)
(-0.0744336 -0.0102285 0)
(-0.0747373 -0.0116944 0)
(-0.0750908 -0.0126337 0)
(-0.0754972 -0.0130598 0)
(-0.0759577 -0.0129873 0)
(-0.0764712 -0.0124309 0)
(-0.0770358 -0.0114083 0)
(-0.0745967 -0.00218431 0)
(-0.074849 -0.00522878 0)
(-0.075157 -0.00768668 0)
(-0.0755305 -0.00957613 0)
(-0.0759759 -0.0109145 0)
(-0.0764995 -0.0117187 0)
(-0.0771043 -0.0120061 0)
(-0.0777914 -0.0117946 0)
(-0.0785598 -0.0111028 0)
(-0.079408 -0.00995197 0)
(-0.0747873 -0.00158962 0)
(-0.0751889 -0.0045269 0)
(-0.0756594 -0.00685067 0)
(-0.076213 -0.0085849 0)
(-0.0768588 -0.00975239 0)
(-0.0776044 -0.010375 0)
(-0.0784542 -0.0104746 0)
(-0.0794102 -0.0100735 0)
(-0.0804718 -0.00919451 0)
(-0.081638 -0.00786326 0)
(-0.0747602 -0.000719581 0)
(-0.0752944 -0.00350519 0)
(-0.0759311 -0.0056502 0)
(-0.0766799 -0.00718433 0)
(-0.0775472 -0.00813566 0)
(-0.0785393 -0.0085308 0)
(-0.0796597 -0.00839611 0)
(-0.0809101 -0.00775837 0)
(-0.0822898 -0.00664493 0)
(-0.0837975 -0.00508611 0)
(-0.0746227 0.000356077 0)
(-0.0753007 -0.00218686 0)
(-0.0761156 -0.00408035 0)
(-0.0770721 -0.00535315 0)
(-0.0781737 -0.00603398 0)
(-0.0794251 -0.00615111 0)
(-0.0808293 -0.00573361 0)
(-0.0823874 -0.00481184 0)
(-0.0840985 -0.00341759 0)
(-0.0859608 -0.0015865 0)
(-0.0745278 0.00171457 0)
(-0.0753673 -0.000522887 0)
(-0.0763686 -0.00210941 0)
(-0.0775352 -0.00306966 0)
(-0.0788709 -0.00343073 0)
(-0.0803807 -0.00322119 0)
(-0.0820685 -0.00247211 0)
(-0.083936 -0.00121748 0)
(-0.0859825 0.000505909 0)
(-0.0882057 0.0026561 0)
(-0.0746598 0.00338253 0)
(-0.0756564 0.00149044 0)
(-0.0768327 0.000253088 0)
(-0.0781946 -0.000349913 0)
(-0.0797485 -0.000343651 0)
(-0.0815018 0.000242997 0)
(-0.0834604 0.00137639 0)
(-0.0856275 0.00301792 0)
(-0.088003 0.00512445 0)
(-0.0905839 0.00764585 0)
(-0.0751553 0.00534039 0)
(-0.0762883 0.00382012 0)
(-0.0776135 0.00296575 0)
(-0.0791419 0.00276128 0)
(-0.080885 0.00318335 0)
(-0.0828551 0.004202 0)
(-0.085062 0.00577958 0)
(-0.0875119 0.00787072 0)
(-0.0902055 0.0104232 0)
(-0.093139 0.0133755 0)
(-0.0761285 0.00753787 0)
(-0.0773595 0.00640322 0)
(-0.0787911 0.00595836 0)
(-0.0804417 0.00619198 0)
(-0.0823311 0.007082 0)
(-0.0844793 0.00859594 0)
(-0.0869029 0.0106896 0)
(-0.0896128 0.0133073 0)
(-0.0926116 0.0163829 0)
(-0.0958929 0.0198387 0)
(-0.07767 0.00988756 0)
(-0.0789459 0.00914202 0)
(-0.0804253 0.00912789 0)
(-0.0821377 0.00983991 0)
(-0.084115 0.0112577 0)
(-0.0863897 0.0133449 0)
(-0.0889897 0.0160473 0)
(-0.0919346 0.0192926 0)
(-0.0952299 0.022992 0)
(-0.0988633 0.0270416 0)
(-0.0798618 0.0122784 0)
(-0.0811179 0.0119108 0)
(-0.0825715 0.0123396 0)
(-0.0842666 0.0135697 0)
(-0.0862531 0.0155849 0)
(-0.0885833 0.018345 0)
(-0.0913062 0.0217812 0)
(-0.0944598 0.0257936 0)
(-0.0980592 0.0302507 0)
(-0.102078 0.0349953 0)
(-0.0828053 0.014584 0)
(-0.0839704 0.0145569 0)
(-0.0853096 0.0154204 0)
(-0.086886 0.0171982 0)
(-0.0887747 0.0198852 0)
(-0.0910609 0.0234406 0)
(-0.0938333 0.0277784 0)
(-0.0971761 0.0327611 0)
(-0.10114 0.0381839 0)
(-0.10568 0.0437632 0)
(-0.0866496 0.0166819 0)
(-0.0876613 0.0169137 0)
(-0.0887936 0.0181632 0)
(-0.0901302 0.0204911 0)
(-0.0917813 0.0239238 0)
(-0.0938808 0.0284409 0)
(-0.0965773 0.0339705 0)
(-0.100044 0.0403867 0)
(-0.104477 0.0474358 0)
(-0.10987 0.0543996 0)
(-0.0916253 0.018509 0)
(-0.0924568 0.0188507 0)
(-0.0933012 0.0203675 0)
(-0.0942519 0.0231904 0)
(-0.0954471 0.0274219 0)
(-0.097046 0.0331229 0)
(-0.099198 0.0403134 0)
(-0.102174 0.0489651 0)
(-0.107042 0.0585638 0)
(-0.11438 0.0671492 0)
(-0.0980435 0.0200853 0)
(-0.0987544 0.0202525 0)
(-0.0992877 0.0217224 0)
(-0.0997016 0.0247185 0)
(-0.100102 0.0294544 0)
(-0.1006 0.0360677 0)
(-0.101363 0.0445198 0)
(-0.103018 0.0546642 0)
(-0.107016 0.0675168 0)
(-0.117669 0.0822647 0)
(-0.10637 0.0217205 0)
(-0.107316 0.0212955 0)
(-0.107895 0.0221613 0)
(-0.108079 0.0246335 0)
(-0.107912 0.0290336 0)
(-0.107619 0.0356311 0)
(-0.107752 0.0446036 0)
(-0.109127 0.0572171 0)
(-0.115452 0.0813179 0)
(-0.12479 0.114874 0)
(-0.116816 0.0245902 0)
(-0.118785 0.0234259 0)
(-0.120434 0.0234316 0)
(-0.121724 0.0250405 0)
(-0.122671 0.0288086 0)
(-0.123248 0.0354785 0)
(-0.123785 0.0468254 0)
(-0.126255 0.0693614 0)
(-0.129377 0.109386 0)
(-0.13291 0.131914 0)
(-0.127887 0.030172 0)
(-0.131423 0.0286834 0)
(-0.134925 0.0281949 0)
(-0.138335 0.0292137 0)
(-0.141484 0.0324807 0)
(-0.14393 0.0389067 0)
(-0.14589 0.0506929 0)
(-0.148532 0.0747252 0)
(-0.14813 0.107653 0)
(-0.144627 0.128707 0)
(-0.136834 0.0386259 0)
(-0.14156 0.0375486 0)
(-0.146553 0.0371015 0)
(-0.151497 0.0378363 0)
(-0.156288 0.0406155 0)
(-0.160318 0.0460105 0)
(-0.162959 0.0548104 0)
(-0.164465 0.0681321 0)
(-0.161669 0.0904732 0)
(-0.151613 0.11584 0)
(-0.142208 0.048588 0)
(-0.147127 0.0479183 0)
(-0.152026 0.0476603 0)
(-0.156778 0.0481207 0)
(-0.161135 0.0501887 0)
(-0.164822 0.054165 0)
(-0.166991 0.0600031 0)
(-0.166581 0.066365 0)
(-0.163375 0.0721195 0)
(-0.153885 0.0770963 0)
(-0.143067 0.0584079 0)
(-0.147445 0.0570385 0)
(-0.151343 0.0562137 0)
(-0.154676 0.0557342 0)
(-0.157136 0.056081 0)
(-0.158301 0.0574032 0)
(-0.157754 0.0595423 0)
(-0.154977 0.0614964 0)
(-0.149585 0.0615534 0)
(-0.141707 0.0588017 0)
(-0.141615 0.0670471 0)
(-0.145348 0.0644911 0)
(-0.148441 0.0622593 0)
(-0.150738 0.0600259 0)
(-0.152015 0.057882 0)
(-0.152064 0.0561766 0)
(-0.150689 0.0546031 0)
(-0.147713 0.0526857 0)
(-0.143192 0.0499 0)
(-0.137402 0.0458021 0)
(-0.138068 0.0741808 0)
(-0.141189 0.07054 0)
(-0.143709 0.0668618 0)
(-0.145563 0.0629935 0)
(-0.146651 0.0588403 0)
(-0.146775 0.0548093 0)
(-0.145768 0.0505796 0)
(-0.143556 0.0458546 0)
(-0.140147 0.0403693 0)
(-0.135681 0.0339564 0)
(-0.133076 0.0806057 0)
(-0.1361 0.0759295 0)
(-0.138572 0.0710666 0)
(-0.140485 0.0658533 0)
(-0.141772 0.0602389 0)
(-0.142312 0.0543699 0)
(-0.141941 0.0480931 0)
(-0.140569 0.0412309 0)
(-0.13816 0.0336405 0)
(-0.134721 0.0252583 0)
(-0.127261 0.0871513 0)
(-0.130396 0.0815379 0)
(-0.133107 0.0756321 0)
(-0.135375 0.0693136 0)
(-0.137122 0.0624998 0)
(-0.138253 0.0551317 0)
(-0.138647 0.0471155 0)
(-0.138178 0.038346 0)
(-0.136733 0.0287253 0)
(-0.13421 0.0181995 0)
(-0.119922 0.0940522 0)
(-0.123424 0.0877615 0)
(-0.126638 0.081085 0)
(-0.129511 0.0738957 0)
(-0.131981 0.0660634 0)
(-0.133964 0.0574619 0)
(-0.135341 0.0479586 0)
(-0.135962 0.0374199 0)
(-0.135651 0.0257283 0)
(-0.134202 0.0127996 0)
(-0.111277 0.101583 0)
(-0.115138 0.09491 0)
(-0.118844 0.0877464 0)
(-0.122362 0.07996 0)
(-0.125647 0.0713861 0)
(-0.128626 0.0618404 0)
(-0.131193 0.0511147 0)
(-0.133183 0.038986 0)
(-0.134372 0.0252354 0)
(-0.134454 0.00966024 0)
(-0.100747 0.109771 0)
(-0.104847 0.102898 0)
(-0.108885 0.0955163 0)
(-0.112879 0.0874704 0)
(-0.116834 0.0785562 0)
(-0.120731 0.0685178 0)
(-0.124511 0.0570427 0)
(-0.128048 0.043763 0)
(-0.131132 0.0282639 0)
(-0.133431 0.0100746 0)
(-0.0879908 0.118109 0)
(-0.0918564 0.111145 0)
(-0.0956935 0.103757 0)
(-0.0995756 0.0957849 0)
(-0.103577 0.0870012 0)
(-0.107766 0.0770926 0)
(-0.112192 0.0656458 0)
(-0.116854 0.0521304 0)
(-0.121712 0.0358686 0)
(-0.12665 0.0159501 0)
(-0.0725982 0.125385 0)
(-0.0754436 0.118262 0)
(-0.0781348 0.110882 0)
(-0.0807812 0.103123 0)
(-0.083511 0.094781 0)
(-0.0864724 0.0855462 0)
(-0.0898289 0.0749789 0)
(-0.0937658 0.0624592 0)
(-0.0985619 0.0470831 0)
(-0.104531 0.0274735 0)
(-0.0546691 0.129943 0)
(-0.0555607 0.122194 0)
(-0.0559635 0.114376 0)
(-0.0559839 0.106431 0)
(-0.0557542 0.0982234 0)
(-0.0554446 0.0895189 0)
(-0.0552855 0.0799473 0)
(-0.0556635 0.0689081 0)
(-0.057178 0.0554105 0)
(-0.0599891 0.0379698 0)
(-0.035358 0.130088 0)
(-0.0336616 0.120881 0)
(-0.0311149 0.111753 0)
(-0.0278494 0.102723 0)
(-0.024034 0.093748 0)
(-0.0199286 0.0847115 0)
(-0.0160074 0.0753748 0)
(-0.0131564 0.0652243 0)
(-0.0113192 0.053608 0)
(-0.0099011 0.0376043 0)
(-0.0164738 0.125133 0)
(-0.0123424 0.113879 0)
(-0.00734562 0.102995 0)
(-0.00177563 0.0926531 0)
(0.00397973 0.083029 0)
(0.0092981 0.0743074 0)
(0.0130289 0.0666056 0)
(0.0143706 0.060004 0)
(0.0130532 0.0536661 0)
(0.00609334 0.0425125 0)
(0.00132201 0.115804 0)
(0.00725413 0.102725 0)
(0.013671 0.0907264 0)
(0.0201114 0.0802178 0)
(0.0260147 0.0717011 0)
(0.0303935 0.0657649 0)
(0.0320616 0.0630828 0)
(0.0308309 0.0646546 0)
(0.023549 0.0722078 0)
(0.00459059 0.0771605 0)
(0.0194064 0.10319 0)
(0.0264678 0.089199 0)
(0.0334164 0.0772986 0)
(0.0398505 0.0679891 0)
(0.0452594 0.0618857 0)
(0.0485641 0.0595752 0)
(0.0495882 0.0629783 0)
(0.0483002 0.0768591 0)
(0.034178 0.115518 0)
(0.0335266 0.0880068 0)
(0.0410325 0.088115 0)
(0.0481463 0.0746666 0)
(0.0545799 0.0641003 0)
(0.0602718 0.0566603 0)
(0.0647964 0.0527388 0)
(0.0672499 0.0527552 0)
(0.0692386 0.0620674 0)
(0.070678 0.0994691 0)
(0.0776231 0.104723 0)
(0.120225 -0.0139637 0)
(0.0699705 0.0744689 0)
(0.0749453 0.0625106 0)
(0.0792622 0.053541 0)
(0.083253 0.0474379 0)
(0.0864852 0.0441722 0)
(0.0883813 0.0446202 0)
(0.0920382 0.0555567 0)
(0.105026 0.0877738 0)
(0.140716 0.0130266 0)
(0.214289 -0.177557 0)
(0.100598 0.0674886 0)
(0.102327 0.0566181 0)
(0.103985 0.048007 0)
(0.106253 0.0414974 0)
(0.108411 0.0369054 0)
(0.110453 0.0353702 0)
(0.117107 0.040712 0)
(0.148909 0.0115132 0)
(0.216184 -0.136959 0)
(0.319257 -0.396423 0)
(0.12182 0.0672646 0)
(0.121931 0.0560454 0)
(0.122868 0.0459337 0)
(0.12516 0.0369803 0)
(0.127612 0.0287749 0)
(0.131877 0.0207432 0)
(0.145925 0.00428742 0)
(0.209232 -0.122659 0)
(0.306138 -0.347115 0)
(0.445667 -0.658871 0)
(0.127465 0.0673245 0)
(0.129758 0.0543499 0)
(0.133227 0.0416709 0)
(0.137975 0.0290639 0)
(0.142766 0.0153163 0)
(0.153709 -0.00547479 0)
(0.186416 -0.0843199 0)
(0.289426 -0.308085 0)
(0.413776 -0.59303 0)
(0.531963 -0.881799 0)
(0.123059 0.0597523 0)
(0.129587 0.0451659 0)
(0.137168 0.0300058 0)
(0.14539 0.0133557 0)
(0.156185 -0.00908924 0)
(0.180897 -0.057309 0)
(0.272969 -0.269761 0)
(0.398255 -0.551229 0)
(0.521427 -0.850719 0)
(0.558246 -0.955558 0)
(0.116636 0.0427797 0)
(0.127333 0.0270974 0)
(0.139052 0.00900901 0)
(0.152278 -0.0140955 0)
(0.178097 -0.0610969 0)
(0.250491 -0.225803 0)
(0.386085 -0.51137 0)
(0.507844 -0.809117 0)
(0.550268 -0.933737 0)
(0.562497 -0.977387 0)
(0.110406 0.0188157 0)
(0.124723 0.000493081 0)
(0.140345 -0.022664 0)
(0.167328 -0.0673975 0)
(0.233418 -0.20033 0)
(0.365961 -0.475031 0)
(0.48936 -0.762651 0)
(0.537759 -0.904824 0)
(0.55194 -0.958447 0)
(0.556601 -0.983768 0)
(0.103409 -0.0112841 0)
(0.120939 -0.0342957 0)
(0.148813 -0.0772809 0)
(0.211671 -0.19476 0)
(0.341126 -0.456346 0)
(0.462585 -0.723577 0)
(0.518388 -0.874171 0)
(0.535976 -0.935749 0)
(0.542063 -0.966816 0)
(0.543977 -0.986213 0)
(0.0957029 -0.0489124 0)
(0.124591 -0.090895 0)
(0.186551 -0.200794 0)
(0.313944 -0.449062 0)
(0.43172 -0.698246 0)
(0.491246 -0.846464 0)
(0.512409 -0.911865 0)
(0.52079 -0.947501 0)
(0.524625 -0.972182 0)
(0.526561 -0.988307 0)
(0.0956442 -0.107522 0)
(0.157971 -0.214208 0)
(0.284548 -0.451092 0)
(0.398423 -0.684775 0)
(0.457637 -0.824152 0)
(0.480743 -0.889009 0)
(0.491682 -0.927497 0)
(0.498032 -0.957137 0)
(0.502406 -0.978882 0)
(0.505189 -0.991703 0)
(0.12861 -0.234478 0)
(0.252987 -0.463049 0)
(0.362089 -0.679579 0)
(0.417373 -0.805484 0)
(0.440801 -0.867778 0)
(0.454039 -0.908341 0)
(0.463233 -0.942539 0)
(0.470591 -0.969409 0)
(0.475991 -0.987254 0)
(0.478892 -0.995717 0)
(0.218295 -0.486737 0)
(0.317931 -0.681146 0)
(0.367275 -0.788624 0)
(0.390745 -0.847825 0)
(0.406422 -0.891156 0)
(0.419046 -0.929941 0)
(0.430032 -0.961478 0)
(0.438465 -0.983475 0)
(0.443484 -0.995457 0)
(0.444936 -0.998538 0)
(0.261904 -0.681639 0)
(0.304554 -0.770763 0)
(0.32871 -0.828088 0)
(0.347834 -0.876827 0)
(0.364772 -0.921027 0)
(0.380079 -0.95695 0)
(0.391874 -0.982088 0)
(0.398994 -0.996131 0)
(0.401254 -1.00061 0)
(0.39937 -0.997973 0)
(0.227312 -0.7534 0)
(0.254272 -0.811259 0)
(0.27829 -0.867221 0)
(0.300966 -0.91761 0)
(0.321137 -0.957568 0)
(0.336345 -0.984627 0)
(0.345319 -0.998921 0)
(0.34785 -1.00266 0)
(0.344817 -0.99929 0)
(0.340289 -0.990607 0)
(0.17138 -0.801319 0)
(0.200441 -0.864839 0)
(0.22922 -0.9211 0)
(0.254317 -0.964447 0)
(0.272608 -0.992171 0)
(0.282937 -1.00491 0)
(0.285431 -1.00575 0)
(0.280438 -0.998965 0)
(0.273357 -0.987819 0)
(0.268457 -0.972014 0)
(0.118341 -0.866689 0)
(0.151781 -0.929662 0)
(0.180969 -0.976661 0)
(0.201838 -1.00452 0)
(0.212949 -1.0143 0)
(0.214956 -1.01057 0)
(0.20826 -0.998507 0)
(0.196828 -0.981661 0)
(0.19008 -0.963038 0)
(0.182224 -0.9389 0)
(0.0686761 -0.938487 0)
(0.100917 -0.99149 0)
(0.124489 -1.02105 0)
(0.137045 -1.02778 0)
(0.13913 -1.01792 0)
(0.131919 -0.998824 0)
(0.116698 -0.97585 0)
(0.102777 -0.95133 0)
(0.0973226 -0.92169 0)
(0.0611207 -0.866299 0)
(0.012544 -1.00542 0)
(0.0396327 -1.04174 0)
(0.0559924 -1.04881 0)
(0.0610529 -1.03315 0)
(0.0563016 -1.00509 0)
(0.042447 -0.972458 0)
(0.0230857 -0.938945 0)
(0.00738849 -0.906126 0)
(-0.00171447 -0.867622 0)
(-0.0862354 -0.738709 0)
(-0.0511774 -1.06204 0)
(-0.0298037 -1.07871 0)
(-0.0184278 -1.0633 0)
(-0.0167796 -1.02762 0)
(-0.0237494 -0.983733 0)
(-0.0394483 -0.938598 0)
(-0.0594783 -0.894644 0)
(-0.0748408 -0.849859 0)
(-0.0891369 -0.802404 0)
(-0.182451 -0.605213 0)
(-0.117952 -1.10726 0)
(-0.100123 -1.107 0)
(-0.0894586 -1.07366 0)
(-0.0862081 -1.02169 0)
(-0.090316 -0.963521 0)
(-0.102581 -0.905577 0)
(-0.120874 -0.849833 0)
(-0.135261 -0.793167 0)
(-0.145089 -0.726568 0)
(-0.216382 -0.545956 0)
(-0.181439 -1.14555 0)
(-0.164312 -1.135 0)
(-0.150677 -1.08982 0)
(-0.141923 -1.02516 0)
(-0.138987 -0.954063 0)
(-0.14295 -0.883054 0)
(-0.154437 -0.814833 0)
(-0.168211 -0.749338 0)
(-0.176224 -0.682181 0)
(-0.182867 -0.604361 0)
(-0.234109 -1.18105 0)
(-0.216898 -1.1679 0)
(-0.199299 -1.11759 0)
(-0.183647 -1.04438 0)
(-0.172176 -0.962737 0)
(-0.165811 -0.880135 0)
(-0.165817 -0.799778 0)
(-0.172069 -0.723381 0)
(-0.178755 -0.652009 0)
(-0.181035 -0.580369 0)
(-0.269454 -1.21283 0)
(-0.25399 -1.20402 0)
(-0.234543 -1.15572 0)
(-0.213583 -1.07869 0)
(-0.195029 -0.989271 0)
(-0.180579 -0.897769 0)
(-0.170767 -0.80714 0)
(-0.166439 -0.719887 0)
(-0.167027 -0.637341 0)
(-0.167792 -0.562158 0)
(-0.284249 -1.23741 0)
(-0.272673 -1.23743 0)
(-0.254962 -1.1981 0)
(-0.231881 -1.12278 0)
(-0.208586 -1.02741 0)
(-0.189366 -0.92795 0)
(-0.174468 -0.829632 0)
(-0.164011 -0.734482 0)
(-0.158031 -0.645359 0)
(-0.155527 -0.562145 0)
(-0.278876 -1.25321 0)
(-0.27163 -1.26266 0)
(-0.258562 -1.23762 0)
(-0.236994 -1.17174 0)
(-0.21061 -1.0739 0)
(-0.186736 -0.964958 0)
(-0.168613 -0.857834 0)
(-0.155883 -0.754435 0)
(-0.148431 -0.657219 0)
(-0.145554 -0.569257 0)
(-0.25732 -1.26208 0)
(-0.25316 -1.27784 0)
(-0.245414 -1.26784 0)
(-0.228916 -1.21959 0)
(-0.202545 -1.12797 0)
(-0.173878 -1.01114 0)
(-0.151157 -0.891035 0)
(-0.13545 -0.776455 0)
(-0.126422 -0.668808 0)
(-0.123963 -0.570528 0)
(-0.225233 -1.26746 0)
(-0.222878 -1.28547 0)
(-0.218732 -1.28612 0)
(-0.208663 -1.25845 0)
(-0.186694 -1.18485 0)
(-0.155401 -1.06773 0)
(-0.126844 -0.933469 0)
(-0.107671 -0.802929 0)
(-0.0968352 -0.681845 0)
(-0.0939271 -0.571424 0)
(-0.189136 -1.27223 0)
(-0.188002 -1.28996 0)
(-0.185117 -1.2957 0)
(-0.179536 -1.28403 0)
(-0.164544 -1.23574 0)
(-0.135096 -1.13193 0)
(-0.101447 -0.986817 0)
(-0.0774644 -0.835218 0)
(-0.0652195 -0.696295 0)
(-0.0618885 -0.572033 0)
(-0.15414 -1.27761 0)
(-0.154382 -1.29407 0)
(-0.151592 -1.30202 0)
(-0.147582 -1.29931 0)
(-0.138445 -1.27372 0)
(-0.114934 -1.19661 0)
(-0.0791544 -1.05015 0)
(-0.0499657 -0.875463 0)
(-0.0356393 -0.711417 0)
(-0.0322947 -0.569529 0)
(-0.123682 -1.28221 0)
(-0.125359 -1.29794 0)
(-0.122844 -1.30799 0)
(-0.119008 -1.31002 0)
(-0.113137 -1.29859 0)
(-0.0970175 -1.25331 0)
(-0.0633482 -1.11994 0)
(-0.0300761 -0.92209 0)
(-0.0137276 -0.729342 0)
(-0.011826 -0.56335 0)
(-0.100107 -1.28564 0)
(-0.102926 -1.30093 0)
(-0.100954 -1.31372 0)
(-0.0972676 -1.31891 0)
(-0.0932339 -1.31416 0)
(-0.0838569 -1.29626 0)
(-0.0559362 -1.19053 0)
(-0.0199111 -0.974061 0)
(-0.000909458 -0.747767 0)
(-0.000877128 -0.552286 0)
(-0.0829139 -1.28689 0)
(-0.0868757 -1.30219 0)
(-0.0856866 -1.31847 0)
(-0.0827883 -1.32555 0)
(-0.0807366 -1.32281 0)
(-0.0772788 -1.32369 0)
(-0.0580623 -1.25489 0)
(-0.0210114 -1.0322 0)
(0.00356132 -0.766844 0)
(0.00181215 -0.535736 0)
(-0.070742 -1.28362 0)
(-0.0755738 -1.30097 0)
(-0.0752077 -1.32178 0)
(-0.0740881 -1.32868 0)
(-0.0745107 -1.32485 0)
(-0.0762548 -1.33586 0)
(-0.068172 -1.30667 0)
(-0.0335654 -1.09888 0)
(0.000944036 -0.788627 0)
(-0.00036425 -0.513367 0)
(-0.0631874 -1.27407 0)
(-0.0677871 -1.29764 0)
(-0.0672556 -1.32404 0)
(-0.0691465 -1.32717 0)
(-0.0716596 -1.32044 0)
(-0.0771866 -1.33377 0)
(-0.0810481 -1.34093 0)
(-0.0546284 -1.17812 0)
(-0.0058508 -0.824788 0)
(-0.000112992 -0.488979 0)
(-0.0581923 -1.25628 0)
(-0.0619851 -1.29407 0)
(-0.0587765 -1.32514 0)
(-0.0658293 -1.31884 0)
(-0.0694081 -1.30921 0)
(-0.0773935 -1.31845 0)
(-0.0917952 -1.3508 0)
(-0.0801971 -1.26544 0)
(-0.0146403 -0.8984 0)
(0.0120361 -0.46513 0)
(-0.0492882 -1.22401 0)
(-0.0568814 -1.29598 0)
(-0.0457453 -1.32247 0)
(-0.0616107 -1.30107 0)
(-0.065177 -1.29058 0)
(-0.075606 -1.2918 0)
(-0.0978447 -1.32909 0)
(-0.106604 -1.33226 0)
(-0.0294074 -1.0246 0)
(0.0413613 -0.445029 0)
(-0.023488 -1.15777 0)
(-0.0552679 -1.32091 0)
(-0.0263352 -1.31183 0)
(-0.0545135 -1.2763 0)
(-0.0563464 -1.26732 0)
(-0.0677498 -1.26095 0)
(-0.0924596 -1.28277 0)
(-0.117937 -1.34134 0)
(-0.0539343 -1.17886 0)
(0.0109913 -0.452931 0)
(-0.038126 -0.000241048 0)
(-0.0379775 -0.000111499 0)
(-0.0379209 -3.7231e-08 0)
(-0.0379383 8.77731e-05 0)
(-0.0380078 0.0001485 0)
(-0.0381075 0.000178685 0)
(-0.0382106 0.000173959 0)
(-0.0382878 0.000130512 0)
(-0.0383054 4.73978e-05 0)
(-0.0382299 -7.48988e-05 0)
(-0.0380335 -0.000234166 0)
(-0.0376852 -0.000428836 0)
(-0.0371572 -0.000656162 0)
(-0.0364239 -0.000913041 0)
(-0.0354626 -0.00119583 0)
(-0.0342543 -0.0014999 0)
(-0.0327837 -0.00182055 0)
(-0.0310401 -0.00215259 0)
(-0.0290174 -0.00249032 0)
(-0.0267148 -0.0028273 0)
(-0.0241374 -0.00315624 0)
(-0.0212974 -0.00346881 0)
(-0.0182144 -0.00375534 0)
(-0.0149169 -0.00400465 0)
(-0.0114439 -0.00420329 0)
(-0.00784555 -0.00433522 0)
(-0.00418486 -0.00438162 0)
(-0.000540635 -0.00432109 0)
(0.0029894 -0.00412906 0)
(0.00629441 -0.00378001 0)
(0.00924587 -0.00324818 0)
(0.0116942 -0.00250775 0)
(0.0134806 -0.00152705 0)
(0.0144637 -0.000290448 0)