/*--------------------------------*- C++ -*----------------------------------*\
  =========                 |
  \\      /  F ield         | OpenFOAM: The Open Source CFD Toolbox
   \\    /   O peration     | Website:  https://openfoam.org
    \\  /    A nd           | Version:  8
     \\/     M anipulation  |
\*---------------------------------------------------------------------------*/
FoamFile
{
    version     2.0;
    format      ascii;
    class       volVectorField;
    location    "3.25";
    object      U;
}
// * * * * * * * * * * * * * * * * * * * * * * * * * * * * * * * * * * * * * //

dimensions      [0 1 -1 0 0 0 0];

internalField   nonuniform List<vector> 
9150
(
(0.00493135 -0.0780913 0)
(0.013072 -0.0974308 0)
(0.0108856 -0.104287 0)
(0.00877048 -0.107794 0)
(0.00261493 -0.109206 0)
(-0.00209182 -0.109447 0)
(-0.00851483 -0.107928 0)
(-0.0108639 -0.104302 0)
(-0.0130438 -0.0974699 0)
(-0.00492781 -0.0781248 0)
(0.00595358 -0.0920195 0)
(0.00861122 -0.100502 0)
(0.00731431 -0.102314 0)
(0.00434918 -0.10447 0)
(0.00185664 -0.105518 0)
(-0.00229959 -0.105354 0)
(-0.00441896 -0.10429 0)
(-0.00732626 -0.102242 0)
(-0.00858547 -0.100513 0)
(-0.00595033 -0.0920367 0)
(0.00177344 -0.0954579 0)
(0.00459691 -0.098971 0)
(0.00370245 -0.101057 0)
(0.00334838 -0.101651 0)
(0.000871963 -0.102404 0)
(-0.000659429 -0.102512 0)
(-0.00321375 -0.101779 0)
(-0.00370208 -0.101026 0)
(-0.00458694 -0.0989808 0)
(-0.00177266 -0.0954693 0)
(0.00176492 -0.0984274 0)
(0.00247979 -0.100397 0)
(0.00218198 -0.100263 0)
(0.0012378 -0.100899 0)
(0.000719796 -0.100856 0)
(-0.000647395 -0.100843 0)
(-0.00129607 -0.100778 0)
(-0.00220729 -0.100221 0)
(-0.00247362 -0.100405 0)
(-0.00176271 -0.0984335 0)
(0.000191289 -0.0994945 0)
(0.000729331 -0.0995713 0)
(0.000479534 -0.0999635 0)
(0.000636963 -0.0998898 0)
(8.99803e-05 -0.100138 0)
(-0.000207046 -0.100082 0)
(-0.000654006 -0.099864 0)
(-0.000465623 -0.100009 0)
(-0.000725082 -0.0995764 0)
(-0.000189984 -0.099495 0)
(0.0762842 -0.194776 1.92756e-26)
(0.0495839 -0.185148 0)
(0.0314103 -0.17702 0)
(0.0162351 -0.17613 0)
(0.00485492 -0.176247 0)
(-0.00442023 -0.175662 0)
(-0.0160441 -0.173465 0)
(-0.0309754 -0.176537 0)
(-0.0494184 -0.185241 0)
(-0.0762843 -0.195056 -1.94598e-26)
(0.058461 -0.146456 5.18834e-27)
(0.048481 -0.146524 0)
(0.0281616 -0.156196 0)
(0.0200188 -0.156633 0)
(0.00356676 -0.155444 0)
(-0.00562742 -0.155353 0)
(-0.0210284 -0.157106 0)
(-0.0283583 -0.15659 0)
(-0.0484314 -0.146624 0)
(-0.0585053 -0.146582 -5.12708e-27)
(0.0476644 -0.121579 2.52123e-27)
(0.0422061 -0.131363 0)
(0.0294767 -0.133696 0)
(0.0177573 -0.137173 0)
(0.006026 -0.140188 0)
(-0.00574562 -0.140625 0)
(-0.0176046 -0.138286 0)
(-0.029559 -0.134041 0)
(-0.0422342 -0.131446 0)
(-0.047695 -0.121673 -2.56958e-27)
(0.0373461 -0.0994991 3.91287e-27)
(0.0390585 -0.110276 0)
(0.0224891 -0.120311 0)
(0.0177236 -0.125109 0)
(0.00484437 -0.125296 0)
(-0.00370679 -0.125285 0)
(-0.0172116 -0.124968 0)
(-0.0224409 -0.120269 0)
(-0.0390781 -0.110334 0)
(-0.0373663 -0.0995739 -3.88205e-27)
(0.0249006 -0.0814362 -1.25195e-26)
(0.0280755 -0.101103 -1.47893e-26)
(0.0201286 -0.108223 -3.70193e-27)
(0.0109804 -0.113895 -3.31097e-27)
(0.00439839 -0.116854 -1.35375e-28)
(-0.00485375 -0.116795 -1.27606e-28)
(-0.0111946 -0.113763 -3.25957e-27)
(-0.0201037 -0.10825 -3.68733e-27)
(-0.0280579 -0.101149 -1.47943e-26)
(-0.0249146 -0.0814892 -1.25227e-26)
(0.019196 -0.143785 0)
(0.0150783 -0.202757 0)
(0.0243705 -0.21466 0)
(0.0130222 -0.22092 0)
(0.0126819 -0.225221 0)
(-0.00210889 -0.226812 0)
(-0.00400239 -0.224849 0)
(-0.0191263 -0.217553 0)
(-0.0090318 -0.206623 0)
(-0.018243 -0.145033 0)
(0.0167075 -0.164204 0)
(0.00254265 -0.197334 0)
(0.01595 -0.20775 0)
(0.0025535 -0.21345 0)
(0.005812 -0.214431 0)
(-0.00570882 -0.215005 0)
(-0.0018447 -0.213778 0)
(-0.0137626 -0.209684 0)
(-0.000973195 -0.201137 0)
(-0.0150477 -0.168682 0)
(0.0152459 -0.171001 0)
(-0.00336386 -0.202254 0)
(0.0118913 -0.20718 0)
(0.000360485 -0.208372 0)
(0.00562566 -0.209216 0)
(-0.00236087 -0.210173 0)
(0.00256811 -0.210658 0)
(-0.0100832 -0.20909 0)
(0.00420774 -0.204082 0)
(-0.0149737 -0.172808 0)
(0.0176536 -0.193317 0)
(-0.00674119 -0.203169 0)
(0.0103524 -0.209433 0)
(-0.000663799 -0.206761 0)
(0.00178924 -0.20699 0)
(-0.00166502 -0.207522 0)
(0.00130298 -0.206079 0)
(-0.0092563 -0.210638 0)
(0.00680651 -0.204614 0)
(-0.0171526 -0.194574 0)
(0.0346092 -0.217104 0)
(0.00914349 -0.203999 0)
(0.0168298 -0.203552 0)
(0.0123962 -0.195839 0)
(0.00333674 -0.192857 0)
(-0.000797821 -0.193544 0)
(-0.0103722 -0.197076 0)
(-0.0162278 -0.20338 0)
(-0.00872957 -0.203937 0)
(-0.0347371 -0.217979 0)
(-0.0998932 -0.00193904 0)
(-0.105394 -0.0256094 0)
(-0.10112 -0.0365468 0)
(-0.0905853 -0.0391426 0)
(-0.0732781 -0.0418254 0)
(-0.0491229 -0.0495619 0)
(-0.0227538 -0.0582465 0)
(0.0054904 -0.0602961 0)
(0.0363001 -0.035661 0)
(0.0491049 -0.0268169 0)
(-0.0440728 0.0397995 0)
(-0.0492083 0.0224222 0)
(-0.0577933 0.00399636 0)
(-0.0609708 -0.0159925 0)
(-0.0570255 -0.0422853 0)
(-0.0517576 -0.0625447 0)
(-0.0486164 -0.0704626 0)
(-0.0493882 -0.0708533 0)
(-0.0423136 -0.0422889 0)
(-0.0377025 -0.0296043 0)
(-0.0126852 0.0286582 0)
(-0.0138484 0.0117176 0)
(-0.0130713 -0.00747193 0)
(-0.0099236 -0.0292283 0)
(-0.0107096 -0.0436235 0)
(-0.019849 -0.0486475 0)
(-0.0581361 -0.0527748 0)
(-0.0738152 -0.0596293 0)
(-0.0789555 -0.0479179 0)
(-0.0843041 -0.0195551 0)
(0.00536369 0.0246277 0)
(0.00883154 0.0125761 0)
(0.0157566 -0.00555108 0)
(0.0200183 -0.0221074 0)
(0.0163842 -0.0215252 0)
(0.0055576 5.74553e-05 0)
(-0.0228178 0.0319615 0)
(-0.0655625 -0.0248721 0)
(-0.0694141 -0.0370533 0)
(-0.0773915 -0.013344 0)
(0.0224671 0.0143725 0)
(0.0305968 -0.010811 0)
(0.033774 -0.0233309 0)
(0.0337353 -0.0269756 0)
(0.0235062 -0.0142597 0)
(-0.00208094 0.0300028 0)
(-0.0141791 0.0877535 0)
(-0.0358522 0.030831 0)
(-0.0592344 -0.0108534 0)
(-0.0721631 -0.00824371 0)
(0.0462142 0.0045607 0)
(0.0420148 -0.0149587 0)
(0.0312527 -0.0185339 0)
(0.0108315 -0.00600284 0)
(-0.0145526 0.0515936 0)
(-0.0406526 0.0824013 0)
(-0.0441289 0.0957244 0)
(-0.0557936 0.0691424 0)
(-0.0813164 0.041239 0)
(-0.0776234 -0.00444044 0)
(0.0440072 0.0224131 0)
(0.00357082 0.0214673 0)
(-0.0296282 0.037387 0)
(-0.043976 0.0666448 0)
(-0.0612457 0.0982716 0)
(-0.0743123 0.107429 0)
(-0.0792442 0.109379 0)
(-0.0796424 0.0870769 0)
(-0.070561 0.0386762 0)
(-0.0637702 -0.0284723 0)
(0.0679372 0.085105 0)
(0.0292922 0.126927 0)
(-0.0114629 0.0713961 0)
(-0.0425719 0.0725774 0)
(-0.0702567 0.111811 0)
(-0.0808893 0.124668 0)
(-0.0995475 0.111511 0)
(-0.0849418 0.0579241 0)
(-0.0596465 0.0148716 0)
(-0.0542 0.00310587 0)
(0.137267 0.0955887 0)
(0.139172 0.140053 0)
(0.119276 0.173217 0)
(0.0889581 0.168834 0)
(0.0653523 0.148619 0)
(0.0413298 0.152995 0)
(0.0385546 0.097398 0)
(0.0347121 -0.037143 0)
(0.03883 -0.0578797 0)
(0.0509793 -0.0219958 0)
(0.162866 0.129901 0)
(0.158456 0.143187 0)
(0.170926 0.156214 0)
(0.208537 0.188706 0)
(0.243019 0.178145 0)
(0.272856 0.186025 0)
(0.298459 0.177767 0)
(0.3344 0.0976642 0)
(0.33089 -0.0168985 0)
(0.335635 -0.0552904 0)
(0.181967 0.123894 0)
(0.188453 0.116925 0)
(0.205126 0.071421 0)
(0.222667 0.0812223 0)
(0.255547 0.0636158 0)
(0.311154 0.0342298 0)
(0.359871 0.0424371 0)
(0.396262 -0.0293505 0)
(0.437151 -0.111766 0)
(0.471662 -0.165762 0)
(0.216912 0.0961583 0)
(0.22485 0.112413 0)
(0.232633 0.0661689 0)
(0.269341 0.0330509 0)
(0.290996 0.00713033 0)
(0.314481 -0.00589779 0)
(0.342326 -0.014155 0)
(0.373005 -0.0716202 0)
(0.418349 -0.145293 0)
(0.467275 -0.249822 0)
(0.283089 0.0659815 0)
(0.299733 0.062456 0)
(0.310891 0.0329325 0)
(0.323978 -0.0383499 0)
(0.315747 -0.0487788 0)
(0.320953 -0.0742087 0)
(0.270315 -0.11938 0)
(0.276904 -0.149572 0)
(0.327514 -0.188031 0)
(0.317303 -0.286137 0)
(0.346998 0.0263908 0)
(0.297409 0.0578842 0)
(0.184124 0.0741968 0)
(0.141874 -0.0272786 0)
(0.0142874 0.0464513 0)
(0.0954429 0.281446 0)
(-0.0451588 0.023457 0)
(0.0297589 -0.189019 0)
(0.0673134 -0.321083 0)
(0.124497 -0.397232 0)
(-0.118844 0.20619 0)
(-0.136058 0.314986 0)
(-0.126371 0.236117 0)
(-0.172693 0.113181 0)
(-0.19078 0.00539776 0)
(-0.0766373 -0.00586155 0)
(-0.13769 -0.186337 0)
(-0.0298785 -0.404634 0)
(0.0409308 -0.473782 0)
(0.0916055 -0.482321 0)
(-0.339416 0.12385 0)
(-0.228964 0.195525 0)
(-0.175427 0.188057 0)
(-0.193559 0.0588525 0)
(-0.189615 -0.00535989 0)
(-0.0318415 0.164843 0)
(0.0753528 -0.0645185 0)
(0.139998 -0.452979 0)
(0.113149 -0.51084 0)
(0.106876 -0.503334 0)
(-0.318487 -0.159861 0)
(-0.170533 -0.0316228 0)
(-0.0919912 0.106656 0)
(0.00308602 0.0260958 0)
(0.124578 -0.23581 0)
(0.16695 -0.34066 0)
(0.201459 -0.352967 0)
(0.190801 -0.382648 0)
(0.15835 -0.461878 0)
(0.127618 -0.479467 0)
(-0.13147 -0.397918 0)
(-0.0508393 -0.298 0)
(0.0155092 -0.273741 0)
(0.116017 -0.336381 0)
(0.162184 -0.268329 0)
(0.124192 -0.247285 0)
(0.107171 -0.29115 0)
(0.105533 -0.362098 0)
(0.103971 -0.392648 0)
(0.0824736 -0.411617 0)
(-0.0760903 -0.481104 0)
(-0.0140396 -0.386473 0)
(0.0234538 -0.30784 0)
(0.0323615 -0.282814 0)
(0.000473594 -0.222422 0)
(0.0151023 -0.259397 0)
(0.00817466 -0.325105 0)
(0.00113467 -0.350908 0)
(-0.0199643 -0.371808 0)
(-0.0380069 -0.378354 0)
(-0.0762661 -0.594554 0)
(0.00154464 -0.438765 0)
(0.0317317 -0.302248 0)
(0.00305614 -0.231617 0)
(-0.0218648 -0.222197 0)
(-0.00751427 -0.265436 0)
(-0.0473451 -0.295896 0)
(-0.0612637 -0.317066 0)
(-0.0772983 -0.346227 0)
(-0.0916396 -0.354389 0)
(-0.0609192 -0.760403 0)
(-0.00475891 -0.526113 0)
(0.0239267 -0.300967 0)
(0.0273942 -0.168856 0)
(-0.0170736 -0.188498 0)
(-0.0383825 -0.207784 0)
(-0.0794756 -0.224885 0)
(-0.0855822 -0.290962 0)
(-0.103386 -0.31754 0)
(-0.109025 -0.331331 0)
(-0.0318811 -0.803885 0)
(-0.000457021 -0.610281 0)
(0.000790282 -0.403666 0)
(0.0394471 -0.130648 0)
(-0.0175054 -0.1058 0)
(-0.065163 -0.12687 0)
(-0.0909192 -0.18429 0)
(-0.108054 -0.254305 0)
(-0.124541 -0.301741 0)
(-0.119376 -0.32888 0)
(-0.0252324 -0.805942 0)
(-0.0142817 -0.623349 0)
(-0.0597495 -0.438512 0)
(-0.0250176 -0.109427 0)
(-0.053684 -0.0233252 0)
(-0.0827534 -0.0622264 0)
(-0.109825 -0.144986 0)
(-0.130009 -0.229494 0)
(-0.141468 -0.307978 0)
(-0.125476 -0.345673 0)
(-0.123991 -0.727248 0)
(-0.140832 -0.577638 0)
(-0.169135 -0.353306 0)
(-0.114365 -0.150834 0)
(-0.093542 -0.0305379 0)
(-0.126596 -0.0292906 0)
(-0.149673 -0.12333 0)
(-0.113332 -0.189946 0)
(-0.116515 -0.330873 0)
(-0.0760181 -0.39622 0)
(-0.286594 -0.588076 0)
(-0.314554 -0.534617 0)
(-0.293025 -0.360029 0)
(-0.206991 -0.132178 0)
(-0.156435 -0.00821211 0)
(-0.192577 -0.0175986 0)
(-0.105215 -0.159308 0)
(-0.00204622 -0.271901 0)
(0.0442359 -0.390085 0)
(0.0604127 -0.422872 0)
(-0.316219 -0.564216 0)
(-0.325508 -0.569478 0)
(-0.325015 -0.52644 0)
(-0.25026 -0.365778 0)
(-0.161035 -0.187155 0)
(-0.0707348 -0.185912 0)
(0.0446311 -0.345763 0)
(0.0616783 -0.380898 0)
(0.0651529 -0.413231 0)
(0.08783 -0.397135 0)
(-0.343782 -0.563904 0)
(-0.321015 -0.572696 0)
(-0.304529 -0.560503 0)
(-0.250973 -0.517079 0)
(-0.17158 -0.458388 0)
(-0.10045 -0.434061 0)
(-0.0495333 -0.457998 0)
(-0.0213468 -0.466248 0)
(0.00460089 -0.465414 0)
(0.0333504 -0.438548 0)
(-0.447743 -0.649556 0)
(-0.382917 -0.624091 0)
(-0.33771 -0.586448 0)
(-0.278832 -0.551072 0)
(-0.212494 -0.530263 0)
(-0.136425 -0.508186 0)
(-0.0865013 -0.486376 0)
(-0.0656721 -0.502067 0)
(-0.0569442 -0.510108 0)
(-0.0347697 -0.517766 0)
(-0.553006 -0.781188 0)
(-0.518201 -0.79027 0)
(-0.467049 -0.742771 0)
(-0.3579 -0.70582 0)
(-0.234139 -0.68711 0)
(-0.108821 -0.638933 0)
(-0.0651325 -0.536529 0)
(-0.0569721 -0.512629 0)
(-0.0600106 -0.52507 0)
(-0.0528092 -0.534823 0)
(-0.516572 -0.8278 0)
(-0.526007 -0.857758 0)
(-0.512656 -0.918584 0)
(-0.433334 -1.07131 0)
(-0.305681 -1.05504 0)
(-0.12695 -0.888102 0)
(-0.0414805 -0.573085 0)
(-0.0325495 -0.495013 0)
(-0.0659421 -0.511921 0)
(-0.0710102 -0.516544 0)
(-0.164335 -0.742635 0)
(-0.252076 -0.840167 0)
(-0.309855 -0.963853 0)
(-0.34054 -1.16427 0)
(-0.298543 -1.34682 0)
(-0.178461 -1.28771 0)
(-0.0506374 -0.698894 0)
(0.0139909 -0.432635 0)
(-0.067184 -0.463818 0)
(-0.073742 -0.479304 0)
(0.187124 -0.507278 0)
(0.15052 -0.615061 0)
(0.0771066 -0.720303 0)
(-0.0322219 -0.944539 0)
(-0.060574 -1.39399 0)
(-0.0916587 -1.41159 0)
(-0.0435316 -0.962399 0)
(0.0488853 -0.398965 0)
(-0.0472641 -0.378856 0)
(-0.0642445 -0.425122 0)
(0.194733 -0.480915 0)
(0.169868 -0.566496 0)
(0.15177 -0.603724 0)
(0.0698606 -0.71694 0)
(0.0658757 -1.31203 0)
(0.0671411 -1.40436 0)
(-0.0225882 -0.988294 0)
(0.0272081 -0.390955 0)
(-0.0346584 -0.279862 0)
(-0.0798904 -0.355844 0)
(0.158121 -0.46468 0)
(0.143097 -0.521185 0)
(0.101431 -0.535342 0)
(0.0690435 -0.694927 0)
(0.1207 -1.31329 0)
(0.118113 -1.34631 0)
(0.00671921 -0.908635 0)
(-0.0607385 -0.339274 0)
(-0.0524058 -0.210852 0)
(-0.11506 -0.303223 0)
(0.0881844 -0.456324 0)
(0.0729303 -0.468007 0)
(0.0031986 -0.462454 0)
(0.0346832 -0.791461 0)
(0.129052 -1.32879 0)
(0.101244 -1.18586 0)
(-0.027701 -0.572528 0)
(-0.118873 -0.2446 0)
(-0.0884144 -0.180479 0)
(-0.128512 -0.286633 0)
(0.0526236 -0.363024 0)
(-0.000378155 -0.36761 0)
(-0.0876051 -0.37675 0)
(-0.00144561 -1.13065 0)
(-0.0168201 -1.31832 0)
(0.0155512 -1.06717 0)
(-0.0859556 -0.345663 0)
(-0.133211 -0.209377 0)
(-0.119791 -0.185349 0)
(-0.130298 -0.258552 0)
(0.00682135 -0.219477 0)
(-0.0674872 -0.205885 0)
(-0.119734 -0.352732 0)
(-0.102982 -1.19573 0)
(-0.0819634 -1.29159 0)
(-0.0566807 -1.06157 0)
(-0.074917 -0.261963 0)
(-0.13483 -0.207297 0)
(-0.125638 -0.195348 0)
(-0.12996 -0.21808 0)
(-0.060222 -0.0921971 0)
(-0.103249 -0.0758351 0)
(-0.156017 -0.43866 0)
(-0.169991 -1.20857 0)
(-0.129532 -1.34426 0)
(-0.0930321 -1.1575 0)
(-0.0515541 -0.217197 0)
(-0.10297 -0.177028 0)
(-0.110686 -0.181192 0)
(-0.117112 -0.188577 0)
(-0.0579572 -0.00624347 0)
(-0.07265 0.00195455 0)
(-0.165987 -0.347025 0)
(-0.168371 -1.22653 0)
(-0.110927 -1.42666 0)
(-0.0856553 -1.30834 0)
(-0.035443 -0.167799 0)
(-0.089502 -0.135632 0)
(-0.102431 -0.154017 0)
(-0.112474 -0.161124 0)
(-0.0603497 0.022288 0)
(-0.0677142 0.0545911 0)
(-0.139632 -0.00511169 0)
(-0.100472 -1.27545 0)
(-0.0648972 -1.453 0)
(-0.071955 -1.39114 0)
(-0.0659807 -0.0710347 0)
(-0.0556369 -0.0915385 0)
(-0.0961099 -0.132881 0)
(-0.119031 -0.111684 0)
(-0.150879 0.0247131 0)
(-0.202044 0.044215 0)
(-0.210983 -0.225165 0)
(-0.0565696 -1.42836 0)
(-0.0471983 -1.47219 0)
(-0.0565058 -1.44526 0)
(-0.00229365 -0.0961685 0)
(-0.0104059 -0.0137881 0)
(-0.107241 -0.0390161 0)
(-0.132494 -0.0387641 0)
(-0.198901 0.34635 0)
(-0.123218 0.0791058 0)
(-0.0781949 -0.238288 0)
(-0.0189364 -1.44114 0)
(-0.019816 -1.47579 0)
(-0.0350518 -1.46347 0)
(0.0838059 -0.330435 0)
(0.0192091 0.142075 0)
(-0.10573 0.064476 0)
(-0.148125 -0.0193733 0)
(-0.119992 0.283843 0)
(0.0324483 -0.345911 0)
(0.0699421 -0.395494 0)
(-0.0151034 -1.36764 0)
(-0.0196741 -1.4987 0)
(-0.021106 -1.48848 0)
(0.0409016 -0.748073 0)
(0.189168 0.405638 0)
(0.0286724 0.24802 0)
(-0.0238106 0.102368 0)
(0.152601 0.348205 0)
(0.0990017 -0.389617 0)
(0.172065 -0.351728 0)
(0.0192751 -1.17836 0)
(-0.00276632 -1.50359 0)
(0.00331459 -1.49682 0)
(-0.0181197 -1.05799 0)
(0.177821 0.644995 0)
(0.115664 0.455341 0)
(0.133118 0.235474 0)
(0.253951 -0.0382082 0)
(0.179234 -0.294287 0)
(0.175969 -0.343299 0)
(0.0350497 -0.854965 0)
(0.00128334 -1.49073 0)
(0.00193929 -1.49575 0)
(-0.0515473 -0.940271 0)
(-0.15004 0.358542 0)
(0.0160567 0.200226 0)
(0.0712279 -0.000827769 0)
(0.183821 -0.18605 0)
(0.141191 -0.1972 0)
(0.160057 -0.240964 0)
(0.0177809 -0.751121 0)
(0.00173904 -1.46936 0)
(-0.00642858 -1.47331 0)
(-0.0603015 -0.457293 0)
(-0.132421 0.385541 0)
(-0.0445084 0.114428 0)
(-0.0708491 0.173273 0)
(0.167469 -0.10077 0)
(0.122147 -0.165424 0)
(0.152931 -0.196254 0)
(0.0393947 -0.408117 0)
(0.00923446 -1.44255 0)
(-0.00278654 -1.44455 0)
(-0.0263785 -0.481725 0)
(-0.0662074 0.121207 0)
(0.109007 -0.00859978 0)
(0.135509 0.0437515 0)
(0.0824893 -0.0126128 0)
(-0.0540021 -0.0637696 0)
(0.0704368 -0.172941 0)
(-0.0433992 -0.330214 0)
(0.00888959 -1.41406 0)
(-0.0061205 -1.4191 0)
(-0.0265424 -0.272103 0)
(-0.0542227 -0.150783 0)
(0.0465177 -0.113914 0)
(0.0434662 -0.0512534 0)
(-0.0691133 0.019489 0)
(-0.112753 -0.0367805 0)
(0.00172639 -0.131873 0)
(-0.117109 -0.67392 0)
(0.0123956 -1.39694 0)
(-0.00654741 -1.39444 0)
(0.126734 -0.45086 0)
(0.0236442 -0.122641 0)
(0.133861 -0.0350297 0)
(0.0492528 -0.142595 0)
(-0.172743 -0.180251 0)
(-0.0448339 -0.0351041 0)
(0.0676027 0.105776 0)
(-0.0391811 -0.779448 0)
(0.0065055 -1.36778 0)
(-0.00853115 -1.36934 0)
(0.0416176 -0.613221 0)
(-0.058766 0.0534732 0)
(-0.138155 -0.112056 0)
(-0.123533 -0.184219 0)
(-0.42898 -0.463964 0)
(-0.432363 -0.332296 0)
(-0.242417 -0.0425315 0)
(-0.0178111 -1.1412 0)
(0.00896041 -1.34886 0)
(-0.00629334 -1.34812 0)
(0.0475495 -0.838939 0)
(0.0854305 0.350636 0)
(0.0795044 0.112748 0)
(0.0763903 -0.0404894 0)
(-0.177245 -0.304695 0)
(-0.159903 -0.38092 0)
(-0.0839229 -0.586119 0)
(0.00705942 -1.27206 0)
(0.00777762 -1.33263 0)
(-0.00627492 -1.33275 0)
(0.00629323 -1.1981 0)
(0.293246 0.0460909 0)
(0.472372 0.00576241 0)
(0.476925 -0.26106 0)
(-0.0525985 -0.340072 0)
(-0.0432339 -0.3824 0)
(-0.00591492 -0.612267 0)
(0.00292362 -1.30331 0)
(0.00599935 -1.31952 0)
(-0.00697223 -1.32002 0)
(-0.00633246 -1.29224 0)
(0.0585892 -0.494073 0)
(0.173936 -0.126427 0)
(0.19261 0.0371858 0)
(-0.0278347 -0.357937 0)
(-0.0356348 -0.408992 0)
(-0.0107727 -0.674974 0)
(-0.00878362 -1.299 0)
(0.00220669 -1.31088 0)
(-0.00873882 -1.30858 0)
(-0.0160463 -1.30007 0)
(-0.0221962 -0.551324 0)
(0.037191 -0.122347 0)
(0.0722241 -0.028067 0)
(-0.0226915 -0.365653 0)
(-0.0235023 -0.431601 0)
(0.0331037 -0.75022 0)
(0.0225644 -1.29531 0)
(0.0123668 -1.29824 0)
(0.00325217 -1.30533 0)
(0.0180489 -1.29206 0)
(0.0295582 -0.646222 0)
(0.0675359 -0.255288 0)
(0.0841961 -0.127623 0)
(-0.013195 -0.357141 0)
(-0.0339379 -0.437264 0)
(-0.0445111 -0.784758 0)
(-0.0411394 -1.29058 0)
(-0.0172531 -1.29199 0)
(-0.0300962 -1.30116 0)
(-0.0444631 -1.28849 0)
(-0.0573916 -0.708141 0)
(0.00301366 -0.234026 0)
(-0.0183298 -0.135584 0)
(0.0186553 -0.337404 0)
(-0.0146046 -0.401262 0)
(-0.0264956 -0.776634 0)
(-0.0264989 -1.28001 0)
(-0.012135 -1.28916 0)
(-0.0227768 -1.28319 0)
(-0.0327766 -1.2807 0)
(-0.0538939 -0.765548 0)
(-0.00940999 -0.225418 0)
(-0.0370264 -0.131939 0)
(0.0424428 -0.291977 0)
(0.00695401 -0.358698 0)
(-0.0082835 -0.765953 0)
(-0.015557 -1.27125 0)
(-0.00527265 -1.27903 0)
(-0.0181075 -1.2768 0)
(-0.0235073 -1.27331 0)
(-0.0464695 -0.804182 0)
(-0.00149618 -0.243822 0)
(-0.00733099 -0.133311 0)
(0.0762896 -0.217936 0)
(0.0309915 -0.298007 0)
(-0.00937371 -0.703272 0)
(-0.0197117 -1.26013 0)
(-0.00551132 -1.26749 0)
(-0.0182548 -1.25967 0)
(-0.0328632 -1.26324 0)
(-0.0573275 -0.813318 0)
(-0.00487547 -0.301242 0)
(0.00573457 -0.142043 0)
(0.0932981 -0.138866 0)
(0.0476425 -0.217594 0)
(0.022858 -0.651998 0)
(0.0120246 -1.24841 0)
(0.0084871 -1.24848 0)
(-0.00669987 -1.24603 0)
(-0.00767536 -1.25305 0)
(-0.0302223 -0.824734 0)
(-0.0199198 -0.319969 0)
(-0.0163235 -0.153943 0)
(0.0479557 -0.0649806 0)
(0.030124 -0.180977 0)
(0.0311645 -0.620506 0)
(0.0141618 -1.23531 0)
(0.00706208 -1.22644 0)
(-0.00603819 -1.22825 0)
(-0.00891684 -1.24043 0)
(-0.0284732 -0.788549 0)
(-0.0229921 -0.332639 0)
(-0.017861 -0.178418 0)
(0.039063 -0.020438 0)
(0.0310859 -0.16989 0)
(0.0323565 -0.604934 0)
(0.0113003 -1.21722 0)
(0.0102248 -1.2066 0)
(-0.0070688 -1.20583 0)
(-0.00916024 -1.22078 0)
(-0.02703 -0.772817 0)
(-0.0236842 -0.362504 0)
(-0.00785543 -0.210473 0)
(0.027069 -0.0212081 0)
(0.0197574 -0.181741 0)
(0.0266081 -0.585391 0)
(0.00990106 -1.20187 0)
(0.00730835 -1.18626 0)
(-0.00607796 -1.18684 0)
(-0.00681757 -1.20397 0)
(-0.0217816 -0.752079 0)
(-0.022072 -0.388581 0)
(-0.00514257 -0.253597 0)
(0.0302751 -0.0118365 0)
(0.0191633 -0.175493 0)
(0.015368 -0.572087 0)
(0.00530783 -1.18331 0)
(0.00615898 -1.17289 0)
(-0.00827428 -1.17333 0)
(-0.00888447 -1.1875 0)
(-0.0219393 -0.745331 0)
(-0.0239842 -0.393168 0)
(-0.0187644 -0.283374 0)
(0.0526007 0.0142791 0)
(0.0295099 -0.125172 0)
(0.0154882 -0.55467 0)
(0.00584267 -1.16524 0)
(0.00433851 -1.15657 0)
(-0.007737 -1.1574 0)
(-0.0109326 -1.16919 0)
(-0.0215304 -0.740643 0)
(-0.0256775 -0.376537 0)
(-0.0304446 -0.293148 0)
(0.000492104 0.00662721 0)
(0.00528677 -0.148654 0)
(0.0146949 -0.568483 0)
(0.0054784 -1.1516 0)
(0.00595003 -1.14298 0)
(-0.00886416 -1.14352 0)
(-0.01164 -1.15438 0)
(-0.0231722 -0.734415 0)
(-0.0299826 -0.337975 0)
(-0.0514487 -0.278344 0)
(0.0019047 -0.050533 0)
(0.00724132 -0.159653 0)
(0.010638 -0.564514 0)
(0.00490607 -1.13565 0)
(0.00436465 -1.12587 0)
(-0.00846487 -1.12519 0)
(-0.0133478 -1.13853 0)
(-0.0276193 -0.728616 0)
(-0.0301432 -0.310134 0)
(-0.0516929 -0.23921 0)
(0.0450949 -0.0470499 0)
(0.0297763 -0.130197 0)
(0.0228601 -0.551784 0)
(0.0126455 -1.12021 0)
(0.00800865 -1.11118 0)
(-0.00574922 -1.11113 0)
(-0.00671571 -1.12282 0)
(-0.0175868 -0.70934 0)
(-0.032428 -0.275603 0)
(-0.0546171 -0.185382 0)
(0.0404911 -0.0380571 0)
(0.0142251 -0.10992 0)
(0.0187761 -0.556375 0)
(0.0100428 -1.10539 0)
(0.00638524 -1.09063 0)
(-0.0084637 -1.09145 0)
(-0.0136404 -1.10743 0)
(-0.0246765 -0.68921 0)
(-0.0339572 -0.230129 0)
(-0.0559628 -0.124386 0)
(0.0418297 -0.014772 0)
(0.0201314 -0.07461 0)
(0.0218285 -0.549195 0)
(0.0124268 -1.08697 0)
(0.00844677 -1.0731 0)
(-0.00639856 -1.07359 0)
(-0.0100323 -1.08892 0)
(-0.0195948 -0.679599 0)
(-0.025671 -0.201301 0)
(-0.0417182 -0.0826001 0)
(0.0328329 -0.00641757 0)
(0.0115766 -0.0570834 0)
(0.0172349 -0.562148 0)
(0.0124231 -1.07112 0)
(0.00680029 -1.05397 0)
(-0.00753801 -1.05425 0)
(-0.0125162 -1.07238 0)
(-0.0201099 -0.674331 0)
(-0.0232603 -0.179478 0)
(-0.0347077 -0.0582569 0)
(0.0473012 0.0148781 0)
(0.0161687 -0.0269978 0)
(0.0179302 -0.564776 0)
(0.0122882 -1.0551 0)
(0.00841615 -1.0347 0)
(-0.00732041 -1.03504 0)
(-0.0122294 -1.05692 0)
(-0.0202647 -0.674415 0)
(-0.0186507 -0.159287 0)
(-0.032533 -0.0434309 0)
(0.0651353 0.0532492 0)
(0.0211987 0.0235209 0)
(0.0188858 -0.573306 0)
(0.0142141 -1.03738 0)
(0.00797913 -1.01456 0)
(-0.00649702 -1.01463 0)
(-0.0112698 -1.03814 0)
(-0.0183679 -0.679063 0)
(-0.0124066 -0.143081 0)
(-0.0286292 -0.0193984 0)
(0.0663531 0.0979033 0)
(0.019736 0.0918251 0)
(0.0150878 -0.580144 0)
(0.0125925 -1.01918 0)
(0.00774689 -0.995506 0)
(-0.00760994 -0.99588 0)
(-0.0129628 -1.02055 0)
(-0.0199854 -0.682941 0)
(-0.0186722 -0.123299 0)
(-0.0341921 -0.00402597 0)
(0.0456381 0.147683 0)
(0.0131932 0.150246 0)
(0.0220392 -0.59998 0)
(0.0135657 -1.00118 0)
(0.00751756 -0.97486 0)
(-0.00680028 -0.974782 0)
(-0.0126075 -1.00199 0)
(-0.0212789 -0.689652 0)
(-0.0145917 -0.114285 0)
(-0.02236 0.0142856 0)
(-0.00221683 0.183902 0)
(-0.00163217 0.150702 0)
(0.0247584 -0.620974 0)
(0.0130314 -0.980711 0)
(0.00706788 -0.956403 0)
(-0.00732799 -0.956373 0)
(-0.0124187 -0.98163 0)
(-0.0208947 -0.692663 0)
(-0.0172114 -0.109301 0)
(-0.0133208 0.03614 0)
(-0.0203749 0.215164 0)
(-0.00760354 0.0849991 0)
(0.0237654 -0.63471 0)
(0.0134124 -0.961319 0)
(0.00682484 -0.936313 0)
(-0.00669286 -0.936423 0)
(-0.0137062 -0.962279 0)
(-0.0228892 -0.693052 0)
(-0.0236739 -0.11508 0)
(-0.00725407 0.0279279 0)
(-0.00974181 0.24042 0)
(0.0105652 0.0402836 0)
(0.0255533 -0.643282 0)
(0.0140972 -0.939844 0)
(0.00709444 -0.917786 0)
(-0.0066598 -0.917488 0)
(-0.0126308 -0.940672 0)
(-0.0226449 -0.696125 0)
(-0.0168023 -0.142042 0)
(-0.0043703 -0.0400499 0)
(0.00350429 0.23345 0)
(0.0190206 0.00262378 0)
(0.0269904 -0.64742 0)
(0.0151565 -0.91919 0)
(0.00750875 -0.896788 0)
(-0.00572845 -0.897694 0)
(-0.01294 -0.920323 0)
(-0.0215238 -0.695056 0)
(-0.0182334 -0.1477 0)
(-0.0193112 -0.0263514 0)
(0.0197452 0.22159 0)
(0.0383825 -9.55666e-05 0)
(0.0274174 -0.621141 0)
(0.0147436 -0.897334 0)
(0.00648683 -0.876674 0)
(-0.00729045 -0.878102 0)
(-0.0141339 -0.898432 0)
(-0.0246191 -0.681963 0)
(-0.0327481 -0.143534 0)
(-0.0295377 -0.0117576 0)
(0.0125794 0.193761 0)
(0.0426982 -0.0129923 0)
(0.0233882 -0.60603 0)
(0.0116037 -0.87579 0)
(0.00483335 -0.8543 0)
(-0.00957577 -0.855416 0)
(-0.0178296 -0.876807 0)
(-0.0304463 -0.671111 0)
(-0.0385947 -0.144914 0)
(-0.0306832 -0.0134602 0)
(0.0189669 0.125197 0)
(0.0384444 -0.028191 0)
(0.0203594 -0.581767 0)
(0.0140699 -0.853612 0)
(0.00529491 -0.833569 0)
(-0.00941235 -0.832184 0)
(-0.0188349 -0.854421 0)
(-0.0308593 -0.660406 0)
(-0.0399419 -0.157954 0)
(-0.025064 -0.0223714 0)
(0.0418076 0.0991505 0)
(0.0374705 -0.0159677 0)
(0.0236957 -0.567464 0)
(0.0181907 -0.831351 0)
(0.00948841 -0.809884 0)
(-0.00655207 -0.808141 0)
(-0.0154012 -0.831419 0)
(-0.0227439 -0.635791 0)
(-0.0395274 -0.157166 0)
(-0.025668 -0.025408 0)
(0.0912827 0.117319 0)
(0.0610449 0.041061 0)
(0.0271825 -0.542368 0)
(0.0208135 -0.8086 0)
(0.0104103 -0.785632 0)
(-0.00558877 -0.784937 0)
(-0.0160927 -0.807838 0)
(-0.0234664 -0.607603 0)
(-0.0492135 -0.137407 0)
(-0.0396608 -0.0521706 0)
(0.0972225 0.134284 0)
(0.047871 0.119675 0)
(0.024658 -0.541284 0)
(0.0193875 -0.78465 0)
(0.00954622 -0.760438 0)
(-0.00672879 -0.759555 0)
(-0.0172541 -0.782933 0)
(-0.0240021 -0.598385 0)
(-0.0376241 -0.139225 0)
(-0.0286668 -0.0917755 0)
(0.0713488 0.185392 0)
(0.0206693 0.194641 0)
(0.026419 -0.543667 0)
(0.0203995 -0.759566 0)
(0.00919465 -0.735301 0)
(-0.00694835 -0.733573 0)
(-0.0184646 -0.756694 0)
(-0.0247744 -0.584057 0)
(-0.0384551 -0.127931 0)
(-0.0318051 -0.108215 0)
(0.0600417 0.272392 0)
(0.029712 0.233148 0)
(0.0296282 -0.541599 0)
(0.020991 -0.733091 0)
(0.00906894 -0.710185 0)
(-0.00653783 -0.707467 0)
(-0.0188807 -0.729502 0)
(-0.0243909 -0.573791 0)
(-0.0398306 -0.110848 0)
(-0.0339143 -0.117773 0)
(0.0307221 0.33609 0)
(0.0292776 0.235687 0)
(0.031966 -0.539136 0)
(0.0223059 -0.70524 0)
(0.00912972 -0.683643 0)
(-0.00637274 -0.681224 0)
(-0.0199388 -0.701181 0)
(-0.0262942 -0.562929 0)
(-0.0428994 -0.0989674 0)
(-0.0350537 -0.111844 0)
(-0.00296527 0.34881 0)
(0.0303395 0.210437 0)
(0.0350109 -0.53107 0)
(0.0238922 -0.675901 0)
(0.00924966 -0.656621 0)
(-0.00634792 -0.654994 0)
(-0.0211324 -0.672394 0)
(-0.0278827 -0.555384 0)
(-0.025876 -0.10765 0)
(-0.00593365 -0.0775308 0)
(-0.0188818 0.326058 0)
(0.0337227 0.142963 0)
(0.0365543 -0.511139 0)
(0.0241363 -0.644627 0)
(0.00764535 -0.628483 0)
(-0.00770659 -0.627983 0)
(-0.0228739 -0.642231 0)
(-0.0344493 -0.536305 0)
(-0.0330509 -0.162728 0)
(-0.00635785 -0.0710537 0)
(-0.0244051 0.268964 0)
(0.0158862 0.0789948 0)
(0.0409825 -0.494766 0)
(0.0232379 -0.611978 0)
(0.00567437 -0.59968 0)
(-0.00862173 -0.599384 0)
(-0.0252166 -0.611444 0)
(-0.0440097 -0.52201 0)
(-0.0191969 -0.190101 0)
(-0.0302398 -0.0801686 0)
(-0.0365067 0.198375 0)
(-0.0249257 -0.0263303 0)
(0.0486529 -0.52384 0)
(0.0254267 -0.578034 0)
(0.00843087 -0.570032 0)
(-0.0060399 -0.571759 0)
(-0.0250402 -0.579858 0)
(-0.048591 -0.537867 0)
(0.00916961 -0.201593 0)
(-0.0332466 -0.08538 0)
(-0.0188013 0.182204 0)
(0.016197 -0.115281 0)
(0.0488882 -0.532261 0)
(0.0256445 -0.542958 0)
(0.00568343 -0.534068 0)
(-0.00761387 -0.541387 0)
(-0.0240015 -0.546456 0)
(-0.0518373 -0.540042 0)
(-0.0131665 -0.197523 0)
(-0.0408932 -0.0702361 0)
(0.0210249 0.168771 0)
(0.0504665 -0.164898 0)
(0.0360538 -0.495994 0)
(0.00884821 -0.503318 0)
(-0.0115884 -0.507464 0)
(-0.0269284 -0.506558 0)
(-0.0427283 -0.509429 0)
(-0.0713412 -0.489436 0)
(-0.0668894 -0.224238 0)
(-0.0511789 -0.0720882 0)
(0.0597102 0.155363 0)
(0.0616692 -0.163328 0)
(0.0642499 -0.450774 0)
(0.0415674 -0.46613 0)
(0.0234246 -0.470529 0)
(0.00491935 -0.469798 0)
(-0.0151583 -0.467996 0)
(-0.047672 -0.451802 0)
(-0.0499634 -0.270015 0)
(-0.044643 -0.0761126 0)
(0.0568386 0.119061 0)
(0.0620067 -0.161221 0)
(0.0663947 -0.40211 0)
(0.0315876 -0.422642 0)
(0.011042 -0.428741 0)
(-0.0142069 -0.428584 0)
(-0.0366053 -0.422855 0)
(-0.064788 -0.401367 0)
(-0.0722331 -0.286392 0)
(-0.053511 -0.0943548 0)
(0.00301046 0.0817173 0)
(0.0773143 -0.236368 0)
(0.0695024 -0.361582 0)
(0.0375519 -0.378467 0)
(0.0151373 -0.384344 0)
(-0.00646776 -0.382471 0)
(-0.02663 -0.38079 0)
(-0.0575105 -0.361302 0)
(-0.0654545 -0.326798 0)
(0.00160067 -0.115547 0)
(0.0515573 -0.00658649 0)
(0.0758032 -0.271826 0)
(0.0739143 -0.311001 0)
(0.050052 -0.329238 0)
(0.0274297 -0.334258 0)
(-0.00295024 -0.331252 0)
(-0.0271792 -0.324433 0)
(-0.0609798 -0.311264 0)
(-0.0703729 -0.295055 0)
(-0.108376 -0.163703 0)
(0.104422 -0.158901 0)
(0.0766339 -0.216264 0)
(0.067851 -0.258267 0)
(0.0348637 -0.282489 0)
(0.0112608 -0.284954 0)
(-0.01652 -0.282824 0)
(-0.0390163 -0.279821 0)
(-0.0681522 -0.263118 0)
(-0.070605 -0.230242 0)
(-0.0913626 -0.223561 0)
(0.0612614 -0.112857 0)
(0.0507149 -0.191023 0)
(0.0486515 -0.231914 0)
(0.0232834 -0.240668 0)
(0.0112389 -0.246299 0)
(-0.0103436 -0.248048 0)
(-0.0170105 -0.245455 0)
(-0.0389777 -0.236246 0)
(-0.0507025 -0.196574 0)
(-0.0508914 -0.146309 0)
(0.0559605 -0.0314794 0)
(0.0636277 -0.0272626 0)
(0.0644441 -0.0121947 0)
(0.0572676 0.00542228 0)
(0.0444475 0.0148289 0)
(0.0377145 0.0171299 0)
(0.0422788 0.00589082 0)
(0.0598063 0.00365484 0)
(0.060868 0.00707032 0)
(0.047379 0.00871013 0)
(0.0258002 -0.000817267 0)
(0.0258086 -0.0101769 0)
(0.0336366 -0.00922605 0)
(0.0364205 0.00761262 0)
(0.0285295 0.0121429 0)
(0.00989156 0.0136004 0)
(-0.00606102 0.024571 0)
(-0.0367483 0.0239072 0)
(-0.0508243 0.0167596 0)
(-0.061592 0.013516 0)
(-0.0681605 0.0121386 0)
(-0.0742212 0.0143112 0)
(-0.0844955 0.024714 0)
(-0.101502 0.0411805 0)
(-0.134234 0.0541681 0)
(-0.177692 0.0348162 0)
(-0.211392 0.0103197 0)
(-0.232776 0.00682139 0)
(-0.260004 0.00407495 0)
(-0.283019 0.00604972 0)
(-0.295279 -0.00902767 0)
(-0.291143 -0.0208843 0)
(-0.268782 -0.0301221 0)
(-0.235019 -0.041159 0)
(-0.198582 -0.0337874 0)
(-0.185223 -0.0135094 0)
(-0.169649 0.00259985 0)
(-0.147581 0.000949829 0)
(-0.0990428 -0.0253327 0)
(-0.0553395 -0.05769 0)
(-0.0394323 0.000406482 0)
(-0.0403087 0.0178572 0)
(-0.0460958 0.0225448 0)
(-0.0331234 0.0210179 0)
(-0.0138946 0.0204891 0)
(-0.00909581 -0.0221805 0)