/*--------------------------------*- C++ -*----------------------------------*\
  =========                 |
  \\      /  F ield         | OpenFOAM: The Open Source CFD Toolbox
   \\    /   O peration     | Website:  https://openfoam.org
    \\  /    A nd           | Version:  8
     \\/     M anipulation  |
\*---------------------------------------------------------------------------*/
FoamFile
{
    version     2.0;
    format      ascii;
    class       surfaceScalarField;
    location    "1";
    object      alphaPhi0.water;
}
// * * * * * * * * * * * * * * * * * * * * * * * * * * * * * * * * * * * * * //

dimensions      [0 3 -1 0 0 0 0];

internalField   nonuniform List<scalar> 
18095
(
1.93475e-08
-1.71948e-07
1.52601e-07
2.30013e-08
-1.98415e-07
1.94761e-07
1.92436e-08
-2.05575e-07
2.09333e-07
9.86271e-09
-2.1042e-07
2.19801e-07
-4.81308e-10
-2.13516e-07
2.2386e-07
-1.03301e-08
-2.13477e-07
2.23325e-07
-1.93346e-08
-2.10522e-07
2.19527e-07
-2.30413e-08
-2.05739e-07
2.09446e-07
-1.9365e-08
-1.98437e-07
1.9476e-07
-1.7195e-07
1.52585e-07
1.55162e-08
-1.87465e-07
1.55957e-08
-1.98495e-07
1.22366e-08
-2.02216e-07
6.92574e-09
-2.05109e-07
-1.35551e-12
-2.06589e-07
-6.75885e-09
-2.06719e-07
-1.21049e-08
-2.05176e-07
-1.55383e-08
-2.02306e-07
-1.55066e-08
-1.98468e-07
-1.87457e-07
6.86859e-09
-1.94333e-07
8.27047e-09
-1.99897e-07
6.92698e-09
-2.00873e-07
3.66149e-09
-2.01844e-07
1.01948e-10
-2.03029e-07
-3.47033e-09
-2.03147e-07
-6.78855e-09
-2.01858e-07
-8.27903e-09
-2.00816e-07
-6.87543e-09
-1.99872e-07
-1.94332e-07
4.57162e-09
-1.98905e-07
4.59666e-09
-1.99922e-07
4.00721e-09
-2.00283e-07
2.53991e-09
-2.00377e-07
6.83272e-12
-2.00496e-07
-2.6196e-09
-2.0052e-07
-4.09936e-09
-2.00378e-07
-4.6341e-09
-2.00281e-07
-4.57552e-09
-1.9993e-07
-1.98908e-07
1.09514e-09
1.17345e-09
8.9019e-10
5.13593e-10
1.74939e-11
-5.02873e-10
-8.81055e-10
-1.16197e-09
-1.09237e-09
-2.51234e-08
-1.97399e-07
2.22522e-07
-2.75229e-08
-1.98953e-07
2.01353e-07
-2.24108e-08
-2.02324e-07
1.97212e-07
-1.1825e-08
-2.00905e-07
1.9032e-07
8.52044e-10
-2.01445e-07
1.88767e-07
1.33442e-08
-2.01176e-07
1.88684e-07
2.32746e-08
-2.00046e-07
1.90115e-07
2.77091e-08
-2.01497e-07
1.97063e-07
2.51859e-08
-1.98807e-07
2.0133e-07
-1.97448e-07
2.22634e-07
-1.0156e-08
-1.87243e-07
-1.59608e-08
-1.93148e-07
-1.59641e-08
-2.0232e-07
-8.20172e-09
-2.08668e-07
-8.26026e-10
-2.0882e-07
6.67574e-09
-2.08678e-07
1.47061e-08
-2.08076e-07
1.55328e-08
-2.02324e-07
1.00797e-08
-1.93354e-07
-1.87369e-07
-1.10372e-08
-1.76206e-07
-8.7421e-09
-1.95444e-07
-5.97451e-09
-2.05088e-07
-5.07797e-09
-2.09564e-07
-1.61609e-09
-2.12282e-07
2.58247e-09
-2.12876e-07
5.48651e-09
-2.1098e-07
8.71399e-09
-2.05551e-07
1.10408e-08
-1.95681e-07
-1.76328e-07
-7.18976e-09
-1.69016e-07
-9.44858e-09
-1.93185e-07
-8.53795e-09
-2.05999e-07
-2.73838e-09
-2.15364e-07
1.83227e-09
-2.16853e-07
6.00315e-09
-2.17047e-07
1.02573e-08
-2.15234e-07
1.02073e-08
-2.05501e-07
7.48917e-09
-1.92962e-07
-1.68839e-07
-1.64151e-08
-1.48383e-08
-1.15041e-08
-7.06688e-09
-5.98278e-11
6.21855e-09
1.0511e-08
1.44558e-08
1.62536e-08
3.26356e-08
-1.56645e-07
1.2401e-07
3.71047e-08
-1.9834e-07
1.93871e-07
2.80732e-08
-2.09572e-07
2.18604e-07
1.31867e-08
-2.14692e-07
2.29579e-07
-4.17548e-09
-2.17351e-07
2.34714e-07
-1.85742e-08
-2.17867e-07
2.32265e-07
-2.84532e-08
-2.16863e-07
2.26742e-07
-3.51133e-08
-2.11218e-07
2.17879e-07
-2.80761e-08
-1.99242e-07
1.92205e-07
-1.58208e-07
1.30132e-07
1.68318e-08
-1.73477e-07
1.95846e-08
-2.01093e-07
1.68907e-08
-2.06878e-07
1.1474e-08
-2.09275e-07
3.29832e-09
-2.09176e-07
-5.42537e-09
-2.09143e-07
-1.3369e-08
-2.08919e-07
-1.76866e-08
-2.06901e-07
-1.57122e-08
-2.01216e-07
-1.73921e-07
1.09007e-08
-1.84378e-07
1.02009e-08
-2.00393e-07
8.35508e-09
-2.05032e-07
3.53386e-09
-2.04454e-07
-9.62538e-10
-2.04679e-07
-5.24368e-09
-2.04862e-07
-8.86687e-09
-2.05296e-07
-1.02646e-08
-2.05503e-07
-1.07952e-08
-2.00686e-07
-1.84716e-07
7.74995e-09
-1.92128e-07
6.95124e-09
-1.99595e-07
7.44129e-09
-2.05522e-07
3.57684e-09
-2.0059e-07
1.75796e-09
-2.0286e-07
-2.83837e-10
-2.0282e-07
-5.97141e-09
-1.99609e-07
-6.30115e-09
-2.05173e-07
-7.46894e-09
-1.99518e-07
-1.92185e-07
3.03944e-08
3.21526e-08
2.38417e-08
1.35718e-08
-5.21201e-10
-1.46576e-08
-2.41509e-08
-3.22617e-08
-3.04494e-08
-7.2451e-07
-3.11403e-07
9.93529e-07
-3.37477e-07
-4.2464e-07
-7.56829e-08
-2.89402e-07
9.25008e-08
-1.95791e-07
2.82007e-07
-2.17114e-07
5.82159e-07
-2.02286e-07
7.2039e-07
-1.40415e-07
8.00405e-07
-8.01896e-08
8.53241e-07
-5.28238e-08
-4.89769e-08
9.02186e-07
-3.19948e-07
-5.31636e-07
5.45198e-07
-8.76917e-08
-6.5153e-07
8.02378e-08
-5.4574e-07
2.79369e-07
-3.68056e-07
4.5809e-07
-3.98768e-07
6.09191e-07
-3.43492e-07
7.18937e-07
-2.5157e-07
7.60709e-07
-1.22663e-07
7.55963e-07
-4.8392e-08
-2.41092e-08
7.31107e-07
-8.8456e-08
-6.04049e-07
1.66516e-07
-7.10847e-09
-7.27861e-07
5.74116e-08
-6.04233e-07
1.22869e-07
-4.28443e-07
1.84182e-07
-4.54616e-07
2.75915e-07
-4.27042e-07
3.64745e-07
-3.44122e-07
4.40776e-07
-2.06466e-07
5.10862e-07
-1.19004e-07
-5.15632e-08
5.37715e-07
-2.54534e-07
-5.18308e-07
1.75587e-07
-3.02777e-07
-6.73587e-07
-3.31346e-07
-4.96663e-07
-2.15322e-07
-9.24328e-08
-2.3284e-07
-7.66132e-08
-2.38565e-07
-3.19358e-07
-1.8083e-07
-3.9745e-07
-6.63283e-08
-3.31566e-07
4.1021e-08
-2.36677e-07
-1.65776e-07
1.225e-07
-3.54586e-07
-1.65449e-07
1.05449e-07
-5.31826e-07
-4.84561e-07
-1.86503e-07
-4.62145e-07
-4.94869e-08
-4.19222e-08
-1.10095e-07
-1.87884e-08
-1.30707e-07
-2.05667e-08
-1.4256e-07
-2.49255e-08
-2.11168e-07
-5.61085e-08
-2.29258e-07
-1.56044e-07
-1.65579e-07
-2.03243e-07
-1.54332e-07
-8.90808e-08
3.98219e-08
-3.96821e-07
-1.84617e-07
-1.18956e-07
-3.95188e-07
-2.74858e-08
-9.09009e-08
-2.2623e-08
-2.66147e-08
-2.20745e-08
-2.428e-08
-2.52453e-08
-2.46998e-08
-5.74261e-08
-2.59043e-08
-5.60714e-08
-2.8508e-08
-1.74088e-08
-3.32974e-08
-9.06165e-08
-8.74066e-08
5.08007e-08
-1.6379e-07
-1.35817e-07
-3.34687e-07
-2.95159e-07
-9.48743e-08
-3.94082e-07
-2.18349e-08
-1.03295e-07
-2.10428e-08
-2.79045e-08
-2.10569e-08
-2.68466e-08
-2.4234e-08
-2.69358e-08
-1.90911e-08
-3.73172e-08
-1.55437e-08
-2.3928e-08
-1.13142e-07
-4.73641e-08
6.67443e-08
-1.12651e-07
-1.75564e-07
-3.2833e-07
-5.43529e-07
-2.37956e-07
-4.81112e-07
-6.90132e-08
-2.39007e-07
-3.97132e-08
-6.08459e-08
-3.44657e-08
-3.52658e-08
-6.47491e-08
-1.97185e-08
-3.65634e-08
-6.52146e-08
-1.51258e-08
-4.13283e-08
-5.51037e-08
-5.33529e-09
6.52619e-08
-3.0996e-07
-4.44749e-07
-5.51182e-07
-6.91101e-07
-3.48896e-07
-6.81787e-07
-1.52554e-07
-4.44745e-07
-5.5442e-08
-2.48688e-07
-5.09894e-08
-1.11083e-07
-1.89985e-07
-8.49605e-08
-1.35989e-07
-1.03321e-07
-2.94997e-08
-1.98468e-08
-5.04464e-07
-1.53802e-08
7.67414e-08
-8.58897e-07
-5.76248e-07
-7.41395e-07
-8.04101e-07
-5.09924e-07
-9.13637e-07
-1.20765e-07
-8.33065e-07
5.13615e-08
-5.38128e-07
-2.40308e-08
-3.24732e-07
-1.4949e-07
-2.49133e-07
-1.27888e-07
-1.56542e-07
-3.55498e-08
-6.90424e-08
-7.85963e-08
1.99579e-09
1.20048e-08
-5.24467e-07
-1.93461e-08
-6.77624e-07
-5.46445e-07
-6.26015e-07
-9.64407e-07
-2.89571e-07
-1.16874e-06
1.1548e-07
-9.42341e-07
3.38877e-07
-5.47355e-07
3.43572e-07
-2.45759e-07
1.22165e-07
-1.96139e-07
-8.79528e-08
1.16062e-08
8.58378e-10
1.54938e-09
-9.73409e-10
-1.42246e-08
-4.14291e-09
-8.82314e-08
-1.40297e-07
-3.17247e-07
-2.48514e-07
-2.09645e-07
-1.2755e-06
7.33703e-08
-1.22459e-06
3.72612e-07
-6.81144e-07
5.03869e-07
-3.62665e-07
5.52473e-07
-2.35785e-07
-1.35593e-07
2.94357e-07
4.64382e-09
-8.50407e-11
-3.08371e-09
3.44994e-09
-3.11425e-09
0
-6.48892e-08
-2.54015e-08
-7.14449e-08
2.24827e-08
-1.31525e-06
1.12459e-07
-1.3135e-06
1.1496e-07
-1.57051e-07
3.74942e-07
-3.65926e-07
4.47175e-07
-2.97841e-07
-1.04175e-07
3.32171e-07
1.72433e-09
-3.13251e-10
-1.58923e-09
8.79635e-09
-4.55793e-09
1.17176e-09
-8.84234e-08
6.95448e-10
-7.2306e-08
4.42054e-08
-1.32726e-06
7.03916e-08
-1.32397e-06
1.57925e-09
-1.00383e-07
1.11644e-08
-1.75035e-07
5.0995e-09
-1.35866e-07
-3.14992e-08
3.13809e-09
3.75762e-09
-1.47928e-09
-2.6847e-09
1.53061e-08
2.15008e-08
0
-8.45246e-08
4.22458e-09
-7.57816e-08
2.32897e-09
-1.31088e-06
-7.12116e-09
-1.28129e-06
-5.2416e-08
-7.19701e-08
-5.57191e-08
-1.44672e-07
-1.89084e-08
-4.88184e-08
-4.2515e-09
-8.65498e-09
7.60558e-08
1.32042e-08
-2.1048e-08
4.92277e-08
2.95103e-08
1.13122e-08
-5.75204e-08
-1.18206e-08
-5.10256e-08
-9.92855e-09
-1.29871e-06
-3.93096e-09
-1.28178e-06
-1.92679e-08
-4.68022e-08
-2.84203e-08
-9.42639e-08
-3.64417e-09
-6.91473e-09
-1.22038e-10
-2.15646e-09
6.00848e-08
1.64436e-08
-6.2761e-08
1.18562e-07
-2.71113e-08
-1.56981e-10
5.95931e-09
1.2122e-09
-4.38422e-08
-2.63128e-09
-1.29287e-06
-4.30857e-09
-1.27517e-06
-9.62738e-09
-3.67658e-08
-9.02826e-09
-1.30774e-08
-3.14218e-10
-1.82712e-10
1.00229e-10
-5.6308e-10
2.12889e-08
-1.01391e-10
-3.85421e-09
1.21457e-09
-3.73747e-09
6.73055e-10
1.51589e-09
6.21423e-09
-3.99957e-08
6.06495e-10
-1.28215e-06
-2.86452e-09
-1.26319e-06
-7.23372e-09
-2.42906e-08
-1.66292e-10
-1.78186e-09
-2.80759e-10
-8.46337e-11
1.61323e-10
-3.54743e-10
-4.05438e-10
-8.45109e-09
3.47418e-08
-1.64059e-09
-2.57807e-09
-4.76226e-10
2.41595e-10
-1.14644e-08
-2.46922e-08
-1.78506e-08
-1.19678e-06
-9.07187e-09
-1.20362e-06
-9.47836e-09
-9.53092e-09
-1.70014e-10
-1.48244e-09
-2.51942e-10
-4.37756e-11
1.55739e-10
-3.11985e-10
0
-2.8052e-09
8.25566e-09
2.25252e-10
-4.90112e-10
1.5849e-10
2.42771e-10
-1.04645e-08
-1.12132e-08
-2.03081e-08
-8.38167e-07
-1.51021e-08
-8.54582e-07
-9.59283e-09
-4.51414e-09
-4.26785e-10
2.22115e-10
-1.93487e-10
-3.42485e-10
1.48036e-10
-2.25998e-10
-8.37758e-10
-3.43474e-10
-3.32282e-10
-9.35078e-11
-8.45353e-11
3.69473e-11
5.52794e-11
-2.49104e-09
-6.06547e-09
-1.43559e-08
-5.73799e-07
-1.13821e-08
-5.49713e-07
-6.28071e-09
-4.42377e-10
-1.42742e-09
3.80891e-10
-3.51702e-10
1.77534e-09
1.29836e-10
-3.49293e-10
0
2.0743e-09
-5.85508e-09
6.80874e-11
1.41814e-10
3.27885e-11
3.29013e-11
-3.2381e-11
-4.04115e-10
-1.32038e-08
-5.19471e-07
-6.14405e-09
-4.81198e-07
-4.17735e-09
-3.33715e-12
-4.82295e-09
1.02349e-09
-1.63544e-10
4.32941e-09
8.84166e-11
-1.36551e-10
7.23832e-10
1.17628e-10
-9.5518e-10
9.70579e-11
2.93977e-10
5.25851e-11
1.97086e-11
1.18261e-10
-5.35845e-10
1.81122e-11
-7.90828e-07
-1.59666e-12
-7.41481e-07
0
-2.88272e-11
6.6681e-11
4.78211e-09
-1.2467e-11
5.70831e-09
5.97912e-11
1.73036e-12
-4.51337e-11
6.52103e-11
2.89601e-11
-2.07285e-10
2.67614e-10
0
-1.18125e-10
6.0924e-10
-1.28463e-09
-5.49082e-09
-8.362e-07
-4.90648e-10
-8.2783e-07
0
-5.43033e-10
2.07742e-09
6.53104e-09
6.23851e-10
6.03678e-09
1.86578e-10
4.80421e-11
-1.85153e-10
1.58752e-10
7.03738e-11
-2.53734e-10
1.39857e-10
0
-3.71356e-10
1.82381e-13
-4.43406e-09
-3.74288e-09
-8.29949e-07
-8.14324e-10
-8.27405e-07
0
-1.61374e-09
6.57383e-09
3.36317e-09
1.93526e-09
5.15058e-09
5.96777e-10
7.07827e-11
-3.26039e-10
3.6809e-10
2.52764e-11
3.58621e-10
-4.73805e-10
1.29728e-11
-4.34749e-10
-1.58045e-08
-1.89721e-09
-2.03695e-08
-8.236e-07
-1.00876e-08
-8.28173e-07
0
-1.56651e-11
2.20446e-09
9.72702e-10
6.59557e-10
2.56667e-09
1.12609e-09
-6.97424e-13
-1.35405e-10
2.05519e-10
5.56922e-11
-2.9816e-11
-5.08396e-10
7.52333e-11
-3.93243e-10
2.27813e-09
-2.64647e-10
-6.89499e-10
-8.19365e-07
-1.00255e-11
-8.14059e-07
-1.55046e-11
-1.45048e-11
9.32177e-10
1.05363e-10
2.29628e-09
7.7334e-10
2.43885e-09
7.72454e-10
2.51257e-10
-1.30013e-11
-3.60593e-11
1.80057e-10
-3.14871e-10
2.72707e-10
-3.89131e-10
8.93579e-11
-2.36496e-10
1.32102e-09
-7.1527e-07
-1.61759e-13
-7.15046e-07
1.97692e-14
-1.89331e-11
1.02836e-10
-1.70446e-12
8.21148e-10
5.28701e-11
7.26388e-10
2.51031e-09
7.19063e-10
-1.04797e-10
-3.96559e-11
6.21993e-10
-1.10845e-10
2.02442e-10
1.76081e-10
2.91254e-11
-2.39337e-10
-2.53838e-09
-6.35311e-07
-1.97732e-11
-6.3419e-07
-3.61618e-13
-4.26543e-11
6.84381e-12
-1.7157e-11
5.39721e-11
7.45808e-13
3.54467e-11
7.41798e-10
5.48735e-10
1.63831e-10
-7.74907e-10
2.29999e-10
3.02657e-10
0
1.15421e-10
6.15823e-11
-4.50422e-10
-6.96561e-10
-6.83565e-07
-1.16253e-10
-6.75175e-07
0
-1.67153e-10
3.61095e-12
-1.57146e-11
3.21903e-12
-3.87463e-12
2.506e-12
3.008e-11
-8.61598e-11
7.63078e-11
-1.10889e-11
-1.03012e-10
3.36552e-11
-1.40604e-11
1.31807e-11
7.91642e-10
-1.43311e-09
-3.36613e-09
-1.00769e-06
-5.72883e-10
-1.00348e-06
-2.96013e-13
-7.73716e-10
6.71891e-13
-2.86332e-11
7.40092e-12
-1.36931e-11
-1.39308e-12
5.54949e-12
-2.05626e-11
6.64915e-11
2.54686e-11
-4.06059e-11
5.18856e-11
-7.97043e-15
-1.15614e-10
1.23739e-09
-4.22497e-09
-4.65719e-09
-1.14673e-06
-2.02855e-09
-1.15001e-06
0
-2.84525e-09
1.08316e-14
-4.60193e-11
3.87124e-12
-2.27029e-11
-2.46913e-12
1.82671e-12
-2.25611e-12
5.0583e-11
1.50905e-11
-1.82704e-12
4.64837e-11
0
-6.60195e-11
6.93705e-11
-1.22474e-08
-1.27465e-09
-1.1493e-06
-4.07087e-11
-1.1443e-06
0
-1.10643e-08
0
-2.59126e-11
5.81206e-12
-3.57062e-11
-3.64639e-12
7.40581e-12
1.40529e-10
1.65814e-10
-8.65806e-13
3.91804e-10
1.26294e-10
9.97306e-11
1.2965e-10
-1.45183e-08
-1.6647e-08
-1.75831e-08
-1.14562e-06
-6.70955e-09
-1.14605e-06
-3.67604e-11
-1.68103e-08
0
-5.88482e-13
4.78759e-12
-4.23708e-11
-2.00215e-12
2.17013e-12
-4.71677e-11
3.66195e-10
-6.3914e-12
0
1.68912e-10
0
-3.26074e-12
-6.93789e-09
-1.77571e-08
-1.19732e-08
-1.14469e-06
-2.91597e-09
-1.14077e-06
-4.75684e-13
-1.81091e-08
0
-5.79463e-13
1.54259e-12
-1.97438e-12
-2.17179e-13
0
-1.19642e-10
1.55962e-11
3.49126e-10
0
4.16828e-12
6.8133e-11
-2.37265e-12
4.54674e-09
-2.19617e-08
6.3549e-09
-1.1337e-06
1.71044e-09
-1.13352e-06
-1.27841e-12
-2.34034e-08
5.62961e-15
-2.33598e-12
1.27621e-14
-2.06079e-12
-2.55088e-13
1.76968e-14
-3.14978e-12
2.00268e-12
1.28225e-11
-9.01103e-14
1.6918e-12
9.55293e-12
-3.2049e-12
3.1567e-09
-3.46666e-08
1.94367e-09
-1.12157e-06
-2.17648e-09
-1.11956e-06
-1.08757e-11
-3.91874e-08
-7.71189e-14
-1.39931e-11
-2.31577e-14
-2.374e-12
-3.0106e-13
-1.11647e-14
-8.00905e-12
2.015e-11
7.61808e-11
0
3.1255e-12
1.56569e-11
-2.65587e-12
3.17585e-09
-4.82511e-08
3.92093e-09
-1.11219e-06
-1.63954e-09
-1.10889e-06
-7.71618e-11
-5.69419e-08
-4.59405e-13
-9.58284e-11
-3.83505e-13
-3.16906e-11
-7.91614e-13
-1.16521e-13
-2.07985e-11
3.58061e-13
4.3219e-11
0
6.5968e-12
4.67161e-13
-7.08015e-12
1.19573e-08
-6.26991e-08
1.92813e-08
-1.10393e-06
1.24101e-08
-1.10353e-06
1.01543e-10
-5.66329e-08
0
-2.82014e-12
-4.92661e-12
-7.69555e-11
-5.9391e-11
-1.82019e-12
-8.73305e-12
1.00905e-11
3.04706e-12
0
4.35138e-12
0
-6.15855e-11
-3.35519e-09
-6.22766e-08
-5.68812e-09
-1.09833e-06
-5.07819e-09
-1.09598e-06
-4.21768e-13
-5.88728e-08
-2.83725e-12
-5.5985e-12
-1.69394e-12
-6.70499e-11
-8.46128e-11
-1.06397e-11
-1.74912e-12
5.09207e-12
-2.27817e-12
-1.17748e-11
8.39036e-13
-4.58877e-11
-5.33147e-11
-1.95646e-08
-5.81333e-08
-3.3625e-08
-1.0949e-06
-1.5466e-08
-1.08858e-06
-1.66577e-11
-5.67859e-08
-1.83235e-12
-2.02529e-11
-5.94507e-12
-1.20294e-11
-7.82515e-11
-6.34327e-13
-2.48598e-12
2.09614e-12
9.44125e-12
-4.97191e-12
2.62784e-13
-5.76131e-11
-9.89361e-13
-1.54973e-08
-3.97652e-08
-2.60419e-08
-1.08994e-06
-1.33016e-08
-1.0828e-06
-9.51062e-11
-4.47032e-08
-6.14564e-13
-1.20848e-10
1.72719e-13
-4.08876e-12
-3.67002e-12
6.37785e-12
-4.78085e-12
3.11226e-12
2.42321e-12
0
-2.23383e-11
1.30163e-13
-1.40525e-12
1.66407e-08
-1.42723e-08
2.84747e-08
-1.07509e-06
3.29759e-08
-1.07915e-06
1.19512e-10
-1.38828e-08
5.0592e-13
-3.50232e-12
3.44413e-13
-4.42349e-12
-5.88116e-12
4.57646e-13
-7.99212e-12
1.89147e-11
2.74769e-12
0
-3.81839e-11
2.52242e-12
-4.23282e-12
5.50585e-10
-6.08396e-10
-1.14991e-09
-1.05549e-06
-4.56208e-09
-1.06966e-06
-2.33109e-13
-6.77733e-10
-7.49194e-13
-4.60328e-12
9.37681e-14
-1.21975e-11
-6.64129e-13
4.12496e-13
4.89966e-12
1.81557e-11
-6.05912e-12
1.74595e-11
-2.50548e-11
6.24874e-12
-1.17915e-12
2.65086e-09
-1.86379e-13
-1.42867e-09
-1.01591e-06
-3.394e-09
-1.01323e-06
-4.79474e-12
-3.33538e-12
-4.6992e-12
-8.06696e-12
-2.12939e-12
-7.36736e-11
-4.54328e-11
-1.83528e-13
1.09358e-12
-3.55141e-16
7.15951e-11
1.30965e-12
-2.69729e-15
1.41046e-13
-1.19878e-14
3.66401e-13
-4.6131e-13
-4.71305e-10
-9.5321e-07
-4.42035e-14
-9.54172e-07
-5.75082e-13
-3.34105e-12
-7.16871e-12
-8.11441e-12
-1.41982e-12
-7.75227e-11
-6.00228e-11
3.70236e-13
-1.24358e-15
-8.67533e-16
1.75069e-15
1.11392e-16
-4.05951e-15
4.6046e-15
-1.65002e-14
2.00102e-12
-2.45916e-12
1.05954e-09
-9.14875e-07
-6.10826e-13
-9.15571e-07
-3.98821e-13
-4.09073e-12
-3.98885e-12
-4.2512e-12
6.32119e-13
-8.01271e-11
-1.19133e-11
2.53026e-13
-2.60274e-16
-1.46897e-15
8.58104e-16
8.09899e-16
-5.13496e-15
2.7968e-14
-4.39047e-14
1.10435e-11
-1.34886e-11
-1.29815e-09
-8.93799e-07
-9.76915e-12
-8.95986e-07
-2.16501e-13
-1.3519e-11
-6.79965e-13
-8.87254e-13
1.60874e-12
-7.99326e-11
-1.88419e-12
2.53715e-13
8.80897e-16
-2.23069e-15
-1.24403e-16
8.44093e-15
-1.27398e-14
2.00902e-13
-2.40907e-13
6.04523e-11
-7.38769e-11
-2.62754e-09
-8.88163e-07
-6.03176e-11
-8.89293e-07
-1.95885e-13
-7.31777e-11
-9.7168e-14
-6.06737e-14
5.51645e-13
-3.63351e-14
-6.22716e-13
2.59788e-14
4.21498e-15
-8.63696e-15
-4.50827e-16
5.70615e-14
-6.69682e-14
1.34745e-12
-2.26304e-12
3.16091e-10
-3.9008e-10
-2.68921e-09
-9.42202e-07
-3.25144e-10
-9.37438e-07
-1.28843e-13
-3.98248e-10
5.23964e-16
-1.92026e-13
1.73444e-15
-3.93147e-14
-3.96822e-14
3.80136e-14
2.97926e-14
-2.10496e-14
-3.17162e-15
5.104e-13
-4.97483e-13
4.10969e-12
-3.82412e-11
1.33045e-09
-1.72941e-09
-1.26372e-09
-1.00184e-06
-1.43394e-09
-9.99346e-07
-7.95232e-13
-1.83187e-09
2.08082e-15
-9.9115e-13
1.59184e-15
-4.05475e-14
-4.28443e-14
2.94279e-15
3.48223e-13
-3.44412e-13
-1.12795e-14
3.15615e-12
-6.41014e-11
2.88271e-12
-5.27614e-11
3.97273e-09
-5.95906e-09
1.62892e-09
-1.02103e-06
-2.92992e-09
-1.01952e-06
-2.36307e-12
-5.80315e-09
0
-3.3596e-12
8.33871e-16
-3.70341e-14
-4.47509e-14
2.14143e-15
6.95885e-12
-7.20727e-12
-1.12935e-13
1.55974e-11
-1.75256e-10
1.8944e-11
-8.56548e-12
2.50734e-09
-2.72878e-08
3.23603e-09
-1.01352e-06
-1.81673e-09
-1.01498e-06
-3.28499e-11
-2.88011e-08
-8.65698e-15
-4.08051e-11
-6.50096e-16
-3.34403e-14
-4.22831e-14
0
5.37695e-12
-1.15917e-10
-3.16057e-12
1.00829e-11
-1.65255e-10
1.49079e-10
-6.72624e-16
9.89634e-09
-3.83322e-08
1.73174e-08
-1.00603e-06
1.1982e-08
-1.00885e-06
4.06702e-11
-3.82345e-08
-6.05561e-15
-3.30291e-14
-1.85148e-15
-3.24623e-14
-3.57991e-14
0
1.57634e-12
-1.76614e-10
1.87638e-11
0
-1.50354e-10
2.75385e-17
-7.00301e-16
3.72695e-09
-3.84361e-08
4.58201e-09
-9.98857e-07
-1.57821e-09
-1.00106e-06
-1.13731e-15
-3.80921e-08
-2.79037e-15
-3.23317e-14
-1.02258e-15
-2.82566e-14
-2.91662e-14
-2.43871e-15
-2.91819e-11
-1.82721e-10
4.56629e-11
0
-5.97026e-11
6.50531e-17
-7.6538e-16
5.00788e-09
-3.13576e-08
3.53845e-09
-9.89783e-07
-1.1554e-09
-9.93299e-07
-2.39153e-15
-3.06962e-08
-2.98257e-15
-3.15758e-14
-3.25692e-15
-2.54868e-14
-3.17161e-14
-2.20183e-15
-1.22235e-11
-7.98199e-15
4.1317e-11
0
-2.05287e-15
6.12729e-17
-8.2835e-16
-6.88316e-10
-1.75564e-08
-7.55575e-09
-9.7377e-07
-7.2706e-09
-9.75643e-07
-8.50551e-15
-1.78256e-08
-5.80072e-15
-3.53568e-14
-5.67973e-15
-2.35729e-14
-2.93302e-14
-8.16682e-15
-1.54472e-16
-8.34277e-15
3.5447e-16
-3.08844e-18
-2.2032e-15
7.40993e-17
-9.06862e-16
6.48511e-09
-1.05069e-08
3.82296e-09
-9.5318e-07
-2.26249e-09
-9.54525e-07
-4.43328e-14
-1.16748e-08
-1.49703e-14
-6.52807e-14
-8.90854e-15
-3.52578e-14
-2.72029e-14
-1.0598e-14
-3.64551e-16
-1.30056e-14
3.8608e-15
1.13985e-16
-3.00711e-15
3.01073e-16
-1.0929e-15
3.46739e-09
-1.01618e-08
-4.30865e-09
-9.3292e-07
-6.04645e-09
-9.32423e-07
-2.76574e-13
-9.90815e-09
-9.81334e-14
-2.44969e-13
-9.0963e-15
-1.25242e-13
-2.38158e-14
-1.22692e-14
7.03699e-17
-3.85087e-14
8.65245e-15
8.63136e-16
-4.98171e-14
1.60748e-15
-1.81468e-15
-4.98506e-09
-1.05947e-08
-2.14331e-08
-9.19406e-07
-1.25899e-08
-9.13448e-07
-1.88043e-12
-1.01765e-08
-1.10676e-12
-1.02301e-12
-1.1163e-14
-1.22043e-12
-2.02528e-14
-1.43348e-14
0
-3.2288e-12
0
4.79027e-15
-1.12186e-13
6.28209e-15
-3.04451e-15
5.06779e-09
-1.71022e-08
-1.07168e-09
-9.27153e-07
-5.16111e-09
-9.25125e-07
-1.07705e-11
-1.61887e-08
-1.02835e-11
-1.54769e-12
-1.26412e-14
-1.03431e-11
-1.73578e-14
-1.5126e-14
0
-1.68076e-11
-1.22386e-12
1.08994e-14
-1.38653e-13
1.22093e-14
-4.30263e-15
7.03848e-09
-3.48228e-08
2.34538e-09
-9.57433e-07
-4.3669e-09
-9.5666e-07
-1.38294e-11
-3.2938e-08
-1.34846e-11
-1.85796e-12
-2.10382e-14
-2.36601e-11
-2.55641e-14
-1.22942e-14
0
-2.56418e-11
-5.28011e-12
1.26777e-14
-1.69378e-13
1.42067e-14
-6.27078e-15
4.73415e-09
-5.43028e-08
1.3696e-10
-9.7364e-07
-5.08467e-09
-9.73754e-07
-1.04361e-11
-5.36614e-08
-9.96818e-12
-2.0506e-12
-2.47753e-13
-2.94049e-11
-2.62185e-13
-1.08124e-14
1.71337e-13
-2.54067e-11
-7.82081e-12
1.63808e-14
-2.08802e-13
1.95502e-14
-9.9065e-15
4.9857e-09
-6.96198e-08
2.00888e-10
-9.69777e-07
-5.23591e-09
-9.69664e-07
-6.55405e-12
-6.87111e-08
-5.72251e-12
-2.30699e-12
-1.87459e-12
-2.92427e-11
-2.02234e-12
-7.2273e-15
0
-1.18776e-11
-5.39799e-12
2.85331e-14
-7.12071e-13
3.47391e-14
-1.69251e-14
4.69402e-09
-7.2437e-08
2.23528e-09
-9.59963e-07
-2.57736e-09
-9.60946e-07
-5.47699e-12
-7.43424e-08
-4.54904e-12
-2.55143e-12
-5.48807e-12
-2.42287e-11
-4.57401e-12
-5.78742e-15
6.27798e-13
-3.21065e-12
-2.68267e-13
7.56571e-14
-7.01995e-13
6.82093e-14
-1.21136e-14
1.36402e-08
-7.31125e-08
1.45945e-08
-9.45696e-07
6.46741e-09
-9.48866e-07
-5.06283e-12
-7.29589e-08
-3.86647e-12
-3.05959e-12
-6.42425e-12
-1.79249e-11
-4.16551e-12
-4.75289e-15
1.3589e-13
-1.23774e-12
-3.74308e-14
6.54225e-14
-5.69889e-13
7.19956e-14
-6.01425e-15
-2.33615e-09
-7.07618e-08
-1.13587e-08
-9.35209e-07
-1.12844e-08
-9.32942e-07
-1.03801e-11
-6.93737e-08
-9.116e-12
-3.26631e-12
-1.49561e-11
-1.42412e-11
-1.03172e-12
-4.46962e-14
5.48191e-14
-8.74561e-13
-7.17713e-14
2.47307e-14
-2.12183e-13
2.36989e-14
-3.27947e-15
-1.90326e-09
-6.87093e-08
-1.9662e-08
-9.20669e-07
-1.44836e-08
-9.16661e-07
-8.32538e-12
-6.84524e-08
-8.13011e-12
-3.53843e-12
-1.02749e-11
-4.912e-12
4.48501e-12
-7.83027e-14
8.50876e-14
-4.8636e-13
-1.22649e-13
1.26174e-14
-1.15386e-13
1.22708e-14
-2.36723e-15
-1.36193e-09
-6.91313e-08
-1.49112e-08
-9.13126e-07
-1.48179e-08
-9.06163e-07
-4.82214e-12
-6.86389e-08
-5.46382e-12
-3.94408e-12
-2.4274e-12
-4.71246e-13
1.70439e-11
-1.26376e-11
1.49341e-14
-2.03461e-13
-1.33084e-14
1.37993e-14
-4.58627e-14
1.27421e-14
-1.00563e-15
1.36212e-08
-8.51875e-08
7.20441e-09
-9.11268e-07
-3.01832e-09
-9.13657e-07
-6.96604e-12
-8.59351e-08
-5.08462e-12
-4.27548e-12
-6.95927e-12
6.59959e-12
3.99659e-11
-9.22677e-12
0
-1.31347e-13
0
5.3701e-15
-3.98955e-14
5.04637e-15
-6.34192e-16
7.19086e-09
-1.09924e-07
6.62268e-10
-9.16545e-07
-7.68288e-09
-9.14776e-07
-6.9288e-12
-1.09703e-07
-3.00777e-12
-4.55642e-12
-3.56771e-12
1.23908e-11
5.29869e-11
-8.18237e-12
1.2719e-14
-7.68904e-14
0
5.0893e-15
-1.55094e-14
4.59023e-15
-1.3744e-16
8.18017e-09
-1.28563e-07
-3.48909e-10
-9.09178e-07
-9.05224e-09
-9.07899e-07
-4.02557e-12
-1.27783e-07
-1.48714e-12
-4.83518e-12
-3.50251e-12
1.3469e-11
5.71744e-11
-6.10459e-12
3.25145e-15
-1.48463e-14
0
1.24638e-15
-8.01457e-16
1.10935e-15
-2.57941e-18
5.5117e-09
-1.30498e-07
1.43911e-09
-8.98155e-07
-5.66802e-09
-8.97959e-07
-1.88315e-12
-1.3081e-07
-1.80768e-12
-4.97134e-12
-1.26597e-12
1.04195e-11
5.82832e-11
-6.97156e-13
8.14895e-16
-7.66043e-16
0
2.23622e-17
-1.10977e-17
2.00303e-17
-1.85888e-19
1.78e-08
-1.28943e-07
1.17107e-08
-8.7965e-07
-2.01778e-10
-8.8224e-07
-4.43542e-13
-1.29074e-07
-1.17317e-12
-5.09041e-12
1.18539e-12
4.08956e-12
5.39287e-11
7.21682e-12
1.13057e-17
-5.08233e-18
-1.1099e-15
4.79478e-19
-2.09951e-19
4.19643e-19
-1.30597e-19
-2.90793e-09
-1.17791e-07
-1.14931e-08
-8.66059e-07
-1.50476e-08
-8.66332e-07
-1.23547e-12
-1.20882e-07
-9.67491e-13
-5.62166e-12
1.39278e-12
-7.40959e-13
4.16946e-11
1.53535e-11
7.73374e-20
-2.25343e-18
-2.99978e-18
7.89863e-20
-3.35029e-19
7.1161e-20
-1.24868e-19
1.1151e-08
-1.11623e-07
-2.02392e-09
-8.44203e-07
-9.32932e-09
-8.45255e-07
-8.30119e-12
-1.12034e-07
-7.9426e-12
-5.78915e-12
8.70793e-12
-2.51844e-11
3.47809e-11
3.57893e-12
2.67276e-19
-2.98927e-18
-1.77229e-17
1.11167e-19
-2.12833e-19
9.15316e-20
-1.13964e-19
6.99122e-09
-1.05381e-07
-3.90482e-09
-8.27287e-07
-1.12791e-08
-8.27009e-07
-1.80381e-11
-1.06196e-07
-1.89014e-11
-5.6992e-12
-6.75571e-12
-2.88208e-11
3.57983e-11
8.50979e-13
1.14781e-19
-4.11083e-18
-3.55514e-17
9.54195e-20
-2.22393e-19
7.90509e-20
-1.07746e-19
1.43918e-08
-1.11201e-07
-4.65676e-10
-8.1063e-07
-1.45644e-08
-8.10926e-07
-2.90433e-11
-1.11446e-07
-3.14008e-11
-3.29085e-12
-2.32586e-11
-2.78508e-11
2.08679e-11
-7.99866e-12
5.00633e-19
-3.22635e-19
-3.07258e-17
7.70082e-20
-1.13459e-19
6.44995e-20
-1.02338e-19
1.00031e-08
-1.45138e-07
-1.0856e-09
-8.11708e-07
-1.12734e-08
-8.12029e-07
-1.03106e-11
-1.45214e-07
-1.08387e-11
-2.87448e-12
-3.20883e-12
-3.28888e-11
-4.09556e-12
2.20873e-11
1.46444e-19
-8.35949e-21
-1.11124e-18
2.76419e-20
-4.45535e-20
2.35293e-20
-1.02069e-19
1.90072e-08
-2.04772e-07
4.06644e-10
-8.07926e-07
-1.80094e-08
-8.09118e-07
-1.37106e-11
-2.04914e-07
-1.47001e-11
-2.0439e-12
-1.61478e-11
-3.98589e-11
-4.43448e-12
-1.54813e-11
2.65634e-20
7.3179e-22
-2.32458e-20
1.67928e-20
-2.16188e-20
2.20229e-20
-1.03867e-19
9.12508e-09
-2.39744e-07
4.87697e-11
-8.05582e-07
-9.0321e-09
-8.06943e-07
-1.46809e-11
-2.39984e-07
-1.52494e-11
-1.48245e-12
-1.79129e-11
-4.26276e-11
-1.84552e-11
-3.57006e-12
2.2824e-20
4.68561e-21
-1.24996e-20
1.63533e-20
-4.43945e-21
4.20684e-19
-4.98384e-19
1.74458e-08
-2.61961e-07
5.27477e-11
-7.88381e-07
-1.73954e-08
-7.89753e-07
-1.56684e-11
-2.62465e-07
-1.6614e-11
-4.86813e-13
-2.11243e-11
-2.27348e-11
-3.24189e-11
-6.84383e-12
1.9336e-20
6.45675e-21
-9.53707e-21
2.37893e-20
-3.25089e-22
4.55952e-18
-5.02968e-18
7.20559e-09
-2.55973e-07
-1.32838e-10
-7.7761e-07
-6.63162e-09
-7.79656e-07
-4.48955e-12
-2.56317e-07
-4.97461e-12
-1.8933e-15
-5.31573e-12
-4.73908e-15
-1.76089e-11
-2.28717e-12
1.51606e-20
5.36236e-21
-7.58714e-21
1.49286e-20
-1.23188e-22
4.83001e-17
-5.33149e-17
2.03863e-08
-2.52528e-07
-9.24282e-11
-7.5369e-07
-2.10531e-08
-7.55114e-07
-1.40379e-16
-2.53045e-07
-1.3035e-16
-2.04783e-15
4.86439e-16
-5.50036e-15
-2.22987e-14
3.90053e-12
8.68084e-21
3.49504e-21
-5.3386e-21
8.53343e-21
-3.65156e-23
5.27386e-16
-5.80693e-16
1.42807e-08
-2.46241e-07
7.53211e-10
-7.37687e-07
-1.41001e-08
-7.37871e-07
-1.97879e-15
-2.46811e-07
-2.12636e-15
-2.04475e-15
-4.64402e-18
-1.11731e-14
-2.24387e-14
8.18661e-17
3.89055e-21
1.19815e-21
-3.17363e-21
3.79444e-21
-1.17147e-23
5.93926e-15
-6.51995e-15
2.87032e-08
-2.70261e-07
9.68593e-10
-7.0854e-07
-2.78473e-08
-7.07879e-07
-9.70691e-15
-2.707e-07
-3.69663e-15
-8.13579e-15
-6.9163e-15
-4.00494e-17
-5.81088e-17
-5.82949e-17
8.58534e-22
1.70344e-22
-8.59401e-22
8.55653e-22
-7.01741e-24
6.78395e-14
-7.43594e-14
1.90673e-08
-3.03618e-07
5.48656e-10
-6.90654e-07
-1.72257e-08
-6.9097e-07
-7.7413e-14
-3.03856e-07
-8.43379e-18
-8.55348e-14
-2.95018e-17
-1.38903e-17
-6.02508e-17
-4.75636e-17
8.47371e-23
7.05002e-24
-1.31502e-22
1.42384e-22
-3.97901e-24
7.92503e-13
-8.66862e-13
3.33138e-08
-3.52234e-07
3.86948e-10
-6.58309e-07
-3.19085e-08
-6.59347e-07
-8.45347e-13
-3.52391e-07
-1.42502e-17
-9.30862e-13
-1.24392e-17
-1.00585e-17
-1.1848e-16
0
5.94063e-24
9.53793e-25
-5.47281e-24
7.62625e-22
-7.64843e-22
9.38173e-12
-1.02486e-11
1.53067e-08
-3.69596e-07
3.13143e-10
-6.43168e-07
-1.58652e-08
-6.43013e-07
-9.48079e-12
-3.70663e-07
-9.40235e-17
-1.04116e-11
-9.47102e-17
-5.81191e-18
-2.42174e-16
0
1.02294e-24
3.85737e-26
-1.25742e-25
1.05502e-19
-1.06265e-19
1.14154e-10
-1.24402e-10
3.24971e-08
-3.94573e-07
1.12615e-09
-6.11732e-07
-3.1348e-08
-6.10453e-07
-1.1135e-10
-3.94486e-07
-1.88967e-16
-1.21761e-10
-1.93803e-16
-1.86194e-18
-1.74996e-19
-1.95659e-16
2.0066e-26
3.1777e-26
-3.12866e-26
9.67682e-18
-9.78308e-18
1.29893e-09
-1.42333e-09
2.17232e-08
-4.08351e-07
6.38468e-10
-5.90644e-07
-1.95223e-08
-5.90335e-07
-1.25849e-09
-4.05879e-07
-7.26721e-17
-1.38026e-09
-8.47323e-20
-7.44593e-17
-1.48074e-19
-1.2167e-19
4.08984e-26
3.81132e-26
-6.52485e-26
6.30226e-16
-6.40009e-16
1.05493e-08
-1.19726e-08
4.02264e-08
-4.36782e-07
-1.0026e-09
-5.49458e-07
-4.14758e-08
-5.49885e-07
-1.01397e-08
-4.37163e-07
-2.04264e-15
-1.152e-08
-3.53579e-19
-2.11676e-15
-1.10856e-19
-4.00813e-19
1.08781e-25
4.15796e-26
-1.28328e-25
3.22722e-14
-3.29122e-14
1.84103e-08
-3.07374e-08
2.34679e-08
-4.4472e-07
3.05001e-10
-5.26268e-07
-2.28899e-08
-5.26706e-07
-1.89057e-08
-4.43744e-07
-5.65485e-14
-3.06167e-08
-3.94679e-19
-5.86649e-14
-2.2532e-19
-2.63549e-19
1.17986e-25
4.0342e-26
-1.3198e-25
1.29537e-12
-1.32829e-12
3.73501e-08
-6.85384e-08
4.05109e-08
-4.4849e-07
1.4863e-09
-4.87229e-07
-4.2805e-08
-4.82387e-07
-3.61495e-08
-4.51375e-07
-1.57076e-12
-6.71291e-08
-4.40225e-17
-1.62939e-12
-4.37301e-17
-3.73516e-19
6.17586e-25
3.33642e-26
-6.25895e-25
4.03007e-11
-4.1629e-11
5.6105e-08
-1.2252e-07
4.81111e-08
-4.39716e-07
1.70272e-08
-4.56144e-07
-9.02083e-09
-4.56308e-07
-3.22028e-08
-4.26255e-07
-4.02604e-11
-9.63938e-08
-4.7451e-15
-4.18852e-11
-4.78882e-15
-1.08131e-20
5.13967e-25
1.36801e-26
-5.17191e-25
1.12521e-09
-1.16684e-09
7.32326e-08
-1.91683e-07
3.465e-08
-4.00909e-07
-1.38517e-08
-4.07641e-07
-6.12415e-08
-4.08922e-07
-8.414e-08
-4.01538e-07
-1.11163e-09
-1.79466e-07
-4.60363e-13
-1.15307e-09
-4.65151e-13
-9.50553e-22
4.68495e-12
-4.68495e-12
-1.05458e-25
1.68698e-08
-1.80318e-08
9.10144e-08
-2.61572e-07
4.69948e-08
-3.56889e-07
2.16536e-09
-3.62811e-07
-4.16675e-08
-3.65089e-07
-8.4727e-08
-3.58481e-07
-1.64191e-08
-2.57572e-07
-2.6235e-11
-1.75464e-08
-2.67001e-11
-6.17387e-24
8.20214e-10
-8.24899e-10
-2.41116e-23
6.26093e-08
-7.8439e-08
9.50521e-08
-2.93049e-07
5.0688e-08
-3.12524e-07
2.52962e-09
-3.14653e-07
-4.71876e-08
-3.15372e-07
-9.52911e-08
-3.10377e-07
-6.32656e-08
-2.90485e-07
-1.38842e-09
-8.12036e-08
-1.41512e-09
-2.51352e-22
3.0427e-08
-3.12519e-08
-3.03252e-24
1.43936e-07
-1.91648e-07
1.03954e-07
-2.53069e-07
5.30761e-08
-2.61646e-07
2.28883e-10
-2.61806e-07
-5.29726e-08
-2.6217e-07
-1.00046e-07
-2.63304e-07
-1.3986e-07
-2.50671e-07
-3.30553e-08
-1.88768e-07
-3.44705e-08
-2.44037e-23