/*--------------------------------*- C++ -*----------------------------------*\
  =========                 |
  \\      /  F ield         | OpenFOAM: The Open Source CFD Toolbox
   \\    /   O peration     | Website:  https://openfoam.org
    \\  /    A nd           | Version:  8
     \\/     M anipulation  |
\*---------------------------------------------------------------------------*/
FoamFile
{
    version     2.0;
    format      ascii;
    class       surfaceScalarField;
    location    "1";
    object      phi;
}
// * * * * * * * * * * * * * * * * * * * * * * * * * * * * * * * * * * * * * //

dimensions      [0 3 -1 0 0 0 0];

internalField   nonuniform List<scalar> 
18095
(
1.935e-08
-1.71949e-07
1.52599e-07
2.30035e-08
-1.98413e-07
1.9476e-07
1.92475e-08
-2.05575e-07
2.09331e-07
9.86668e-09
-2.10419e-07
2.198e-07
-4.80377e-10
-2.13514e-07
2.23861e-07
-1.03252e-08
-2.1348e-07
2.23324e-07
-1.933e-08
-2.10525e-07
2.19529e-07
-2.30415e-08
-2.0574e-07
2.09451e-07
-1.93672e-08
-1.98435e-07
1.9476e-07
-1.71951e-07
1.52584e-07
1.55166e-08
-1.87465e-07
1.55975e-08
-1.98494e-07
1.22383e-08
-2.02216e-07
6.92826e-09
-2.05109e-07
4.82238e-12
-2.0659e-07
-6.75476e-09
-2.0672e-07
-1.21039e-08
-2.05175e-07
-1.55391e-08
-2.02305e-07
-1.55065e-08
-1.98467e-07
-1.87458e-07
6.86834e-09
-1.94334e-07
8.27029e-09
-1.99896e-07
6.92871e-09
-2.00874e-07
3.66314e-09
-2.01844e-07
1.01115e-10
-2.03028e-07
-3.4738e-09
-2.03145e-07
-6.79197e-09
-2.01857e-07
-8.27947e-09
-2.00817e-07
-6.87509e-09
-1.99872e-07
-1.94333e-07
4.57134e-09
-1.98905e-07
4.59652e-09
-1.99922e-07
4.00517e-09
-2.00283e-07
2.53836e-09
-2.00377e-07
6.55585e-12
-2.00496e-07
-2.61816e-09
-2.0052e-07
-4.09734e-09
-2.00378e-07
-4.63366e-09
-2.00281e-07
-4.57511e-09
-1.9993e-07
-1.98908e-07
1.09502e-09
1.1735e-09
8.90443e-10
5.13635e-10
1.72829e-11
-5.03108e-10
-8.81105e-10
-1.16188e-09
-1.09222e-09
-2.51369e-08
-1.97392e-07
2.22529e-07
-2.75337e-08
-1.98957e-07
2.01354e-07
-2.24191e-08
-2.02323e-07
1.97208e-07
-1.18306e-08
-2.00908e-07
1.9032e-07
8.51375e-10
-2.01443e-07
1.88761e-07
1.33492e-08
-2.01175e-07
1.88677e-07
2.32831e-08
-2.00046e-07
1.90112e-07
2.77216e-08
-2.01497e-07
1.97059e-07
2.52012e-08
-1.98813e-07
2.01333e-07
-1.97445e-07
2.22646e-07
-1.01545e-08
-1.87238e-07
-1.59659e-08
-1.93145e-07
-1.59774e-08
-2.02311e-07
-8.22846e-09
-2.08657e-07
-8.53409e-10
-2.08818e-07
6.657e-09
-2.08686e-07
1.47014e-08
-2.0809e-07
1.55341e-08
-2.0233e-07
1.0078e-08
-1.93357e-07
-1.87367e-07
-1.10336e-08
-1.76204e-07
-8.73455e-09
-1.95444e-07
-5.95658e-09
-2.05089e-07
-5.05259e-09
-2.09561e-07
-1.58878e-09
-2.12282e-07
2.60701e-09
-2.12881e-07
5.50169e-09
-2.10985e-07
8.72141e-09
-2.0555e-07
1.10428e-08
-1.95678e-07
-1.76324e-07
-7.18564e-09
-1.69019e-07
-9.4451e-09
-1.93185e-07
-8.53385e-09
-2.06001e-07
-2.72304e-09
-2.15372e-07
1.85111e-09
-2.16856e-07
6.00971e-09
-2.1704e-07
1.02505e-08
-2.15226e-07
1.02e-08
-2.05499e-07
7.4838e-09
-1.92962e-07
-1.6884e-07
-1.64199e-08
-1.48449e-08
-1.15142e-08
-7.08638e-09
-8.19368e-11
6.20243e-09
1.05059e-08
1.44582e-08
1.62566e-08
3.26652e-08
-1.5664e-07
1.23975e-07
3.71456e-08
-1.98334e-07
1.93854e-07
2.81349e-08
-2.09577e-07
2.18588e-07
1.32934e-08
-2.14679e-07
2.29521e-07
-4.06374e-09
-2.17328e-07
2.34685e-07
-1.84571e-08
-2.17858e-07
2.32251e-07
-2.83522e-08
-2.16863e-07
2.26758e-07
-3.50434e-08
-2.11224e-07
2.17915e-07
-2.80411e-08
-1.99258e-07
1.92256e-07
-1.58238e-07
1.30197e-07
1.68351e-08
-1.73475e-07
1.95869e-08
-2.01086e-07
1.68835e-08
-2.06874e-07
1.14736e-08
-2.09269e-07
3.31496e-09
-2.0917e-07
-5.40292e-09
-2.0914e-07
-1.3355e-08
-2.08911e-07
-1.76732e-08
-2.06906e-07
-1.57005e-08
-2.01231e-07
-1.73939e-07
1.08948e-08
-1.8437e-07
1.02002e-08
-2.00391e-07
8.36089e-09
-2.05034e-07
3.54754e-09
-2.04456e-07
-9.43372e-10
-2.04679e-07
-5.22231e-09
-2.04861e-07
-8.84069e-09
-2.05292e-07
-1.02406e-08
-2.05506e-07
-1.07778e-08
-2.00694e-07
-1.84717e-07
7.74713e-09
-1.92117e-07
6.94976e-09
-1.99594e-07
7.44401e-09
-2.05529e-07
3.58028e-09
-2.00592e-07
1.76472e-09
-2.02863e-07
-2.73524e-10
-2.02823e-07
-5.96366e-09
-1.99602e-07
-6.2905e-09
-2.05179e-07
-7.4629e-09
-1.99521e-07
-1.9218e-07
3.04118e-08
3.21714e-08
2.3851e-08
1.35789e-08
-5.22993e-10
-1.46683e-08
-2.41584e-08
-3.22788e-08
-3.04667e-08
-1.26528e-06
-5.07706e-07
1.77299e-06
-6.24416e-07
-6.40867e-07
-1.07568e-07
-5.16847e-07
2.56048e-07
-3.63616e-07
5.86684e-07
-3.30637e-07
8.79387e-07
-2.92702e-07
1.08557e-06
-2.06184e-07
1.20103e-06
-1.15458e-07
1.27199e-06
-7.09645e-08
-6.40756e-08
1.33607e-06
-4.63491e-07
-8.39318e-07
7.95103e-07
-1.36558e-07
-9.678e-07
1.63261e-07
-8.16666e-07
4.42467e-07
-6.42821e-07
6.7511e-07
-5.6328e-07
8.89698e-07
-5.0729e-07
1.05841e-06
-3.74895e-07
1.12649e-06
-1.83544e-07
1.12539e-06
-6.98621e-08
-2.87082e-08
1.09002e-06
-1.665e-07
-9.57137e-07
2.8432e-07
-5.03732e-08
-1.08393e-06
4.27959e-08
-9.09835e-07
1.39291e-07
-7.39316e-07
2.29235e-07
-6.53225e-07
3.56775e-07
-6.3483e-07
4.97249e-07
-5.15368e-07
6.26421e-07
-3.12715e-07
7.27364e-07
-1.70806e-07
-7.82945e-08
7.7695e-07
-4.51838e-07
-9.58583e-07
4.53283e-07
-5.0008e-07
-1.03569e-06
-5.4519e-07
-8.64725e-07
-6.00619e-07
-6.83887e-07
-5.95854e-07
-6.5799e-07
-4.79713e-07
-7.50971e-07
-3.30711e-07
-6.6437e-07
-1.38554e-07
-5.04873e-07
2.92575e-08
-3.38617e-07
-2.06344e-07
1.57307e-07
-7.39458e-07
-9.08444e-07
6.89319e-07
-7.81064e-07
-9.94079e-07
-8.16201e-07
-8.29587e-07
-8.75434e-07
-6.24654e-07
-8.95828e-07
-6.37595e-07
-8.59422e-07
-7.87377e-07
-7.65865e-07
-7.57927e-07
-6.45859e-07
-6.24878e-07
-4.95429e-07
-4.89048e-07
-3.6733e-07
-3.34444e-07
-7.95659e-07
-8.58745e-07
7.4596e-07
-8.2028e-07
-9.69458e-07
-8.45949e-07
-8.03918e-07
-8.5138e-07
-6.19224e-07
-8.95387e-07
-5.93588e-07
-8.43157e-07
-8.39606e-07
-7.55771e-07
-8.45314e-07
-6.9022e-07
-6.90429e-07
-5.7993e-07
-5.99337e-07
-6.29824e-07
-3.17435e-07
-7.00622e-07
-7.16657e-07
5.58534e-07
-6.33753e-07
-1.03633e-06
-5.94588e-07
-8.43083e-07
-6.04843e-07
-6.08969e-07
-7.11612e-07
-4.86819e-07
-7.45184e-07
-8.06035e-07
-7.48486e-07
-8.42011e-07
-7.94073e-07
-6.44843e-07
-7.83881e-07
-6.09529e-07
-4.87397e-07
-9.26308e-07
-6.91041e-07
-3.10521e-07
2.84906e-07
-6.66387e-07
-1.06098e-06
-5.36342e-07
-9.73129e-07
-4.79758e-07
-6.65553e-07
-5.37043e-07
-4.29534e-07
-7.50447e-07
-5.92631e-07
-7.83599e-07
-8.0886e-07
-7.97629e-07
-6.30813e-07
-1.00006e-06
-4.07095e-07
-3.36251e-07
-1.15121e-06
-5.65972e-07
-1.18165e-07
3.73616e-07
-8.06954e-07
-8.19999e-07
-7.81709e-07
-9.98374e-07
-4.85379e-07
-9.61882e-07
-2.45479e-07
-6.69434e-07
-3.21648e-07
-5.16462e-07
-5.41304e-07
-5.89204e-07
-6.369e-07
-5.35217e-07
-6.08083e-07
-4.35912e-07
-3.50751e-07
-5.93583e-07
-1.40909e-06
-2.15305e-07
1.50623e-06
-1.2479e-06
-9.81187e-07
-1.04782e-06
-1.19846e-06
-6.90168e-07
-1.31953e-06
-1.77027e-07
-1.18257e-06
1.11586e-07
-8.05075e-07
2.13586e-08
-4.98976e-07
-1.65463e-07
-3.48395e-07
-2.61436e-07
-3.39939e-07
-3.3262e-07
-2.79568e-07
-9.82814e-07
8.11928e-08
6.86316e-07
-1.12137e-06
-8.4263e-07
-1.0875e-06
-1.23233e-06
-8.41158e-07
-1.56587e-06
-4.10518e-07
-1.61322e-06
1.303e-07
-1.34589e-06
4.80526e-07
-8.49202e-07
5.13195e-07
-3.81064e-07
4.42241e-07
-2.68985e-07
-1.57625e-07
2.67246e-07
8.94233e-08
1.34399e-07
-1.42629e-07
1.98383e-08
-7.73045e-07
-4.09136e-07
-8.03355e-07
-3.89789e-07
-1.58522e-06
-2.49802e-07
-1.7532e-06
9.05527e-08
-1.68625e-06
5.14737e-07
-1.27339e-06
6.96512e-07
-5.6284e-07
7.55679e-07
-3.28152e-07
-1.95416e-07
7.9347e-07
6.89272e-07
-3.40142e-08
-5.20858e-07
3.24267e-07
-4.08039e-07
-3.21642e-08
-4.46925e-07
-4.08532e-08
-1.57653e-06
3.12265e-08
-1.82528e-06
1.58412e-07
-1.81343e-06
2.92746e-07
-1.40772e-06
4.56653e-07
-7.26746e-07
6.58181e-07
-5.2968e-07
-2.80585e-07
7.4335e-07
3.418e-07
-5.66421e-08
-3.19171e-07
9.48254e-08
-1.61065e-07
4.34599e-09
-3.56445e-07
1.0445e-08
-1.58263e-06
4.00758e-08
-1.85491e-06
9.42466e-08
-1.8676e-06
3.10922e-08
-1.34457e-06
-3.45509e-08
-6.61103e-07
-4.63767e-08
-5.17854e-07
-4.12462e-07
8.55003e-08
3.40407e-07
-2.19194e-09
-3.94857e-07
1.09306e-07
7.00338e-08
-8.46963e-10
-2.46292e-07
2.41821e-08
-1.60766e-06
1.4144e-09
-1.83214e-06
-3.06121e-08
-1.83558e-06
-2.17017e-07
-1.15816e-06
-3.58685e-07
-5.19435e-07
-3.76213e-07
-5.00327e-07
-4.18252e-07
-3.70424e-07
1.65566e-07
4.02549e-08
-2.08013e-07
1.81315e-07
5.42845e-08
1.19153e-07
-1.8413e-07
-1.21888e-08
-1.47632e-06
-4.6995e-09
-1.83963e-06
-1.90312e-09
-1.83837e-06
-6.58349e-08
-1.09423e-06
-1.69656e-07
-4.15614e-07
-1.24053e-07
-5.4593e-07
-1.22902e-07
-4.19404e-07
1.45102e-07
2.89256e-08
-1.33773e-07
2.82357e-07
-8.29705e-08
-1.94096e-09
1.00168e-07
9.09785e-09
-1.48735e-06
1.74189e-09
-1.83228e-06
-1.04623e-08
-1.82617e-06
-7.3155e-08
-1.03154e-06
-2.17304e-07
-2.71466e-07
-2.05414e-07
-5.5782e-07
3.88612e-07
-7.16927e-07
4.74605e-08
-3.08197e-09
-1.5453e-08
5.32034e-07
-5.67543e-07
8.85581e-09
6.23346e-07
2.17274e-08
-1.50022e-06
-1.60635e-09
-1.80894e-06
-1.73561e-08
-1.81042e-06
-2.71816e-07
-7.77076e-07
-3.51821e-07
-1.91461e-07
-5.82406e-07
-3.27235e-07
5.9031e-07
-7.84103e-07
-2.31602e-08
-5.02494e-08
7.03278e-08
-4.18799e-07
-1.71906e-07
-2.31213e-07
4.35759e-07
-2.98157e-08
-1.70162e-06
-3.0371e-08
-1.80839e-06
-4.32238e-08
-1.79757e-06
-3.65784e-07
-4.54516e-07
-4.39636e-07
-1.17609e-07
-6.07147e-07
-1.59723e-07
6.31453e-07
-6.48295e-07
1.14185e-07
-1.85796e-07
2.13606e-08
1.14911e-07
-1.72629e-07
2.94001e-08
5.21271e-07
-3.08242e-08
-1.6414e-06
-4.12112e-08
-1.798e-06
-7.84708e-08
-1.76031e-06
-2.45331e-07
-2.87655e-07
-3.62706e-07
-2.35226e-10
-4.7811e-07
-4.43179e-08
6.25157e-07
-4.71813e-07
-1.30882e-07
-2.31612e-08
-3.17522e-08
-2.51572e-07
-5.19389e-08
5.17292e-08
2.17972e-07
-1.08584e-08
-1.57881e-06
-4.32707e-08
-1.76559e-06
-7.41137e-08
-1.72947e-06
-1.29727e-07
-2.32042e-07
-1.39719e-07
9.75587e-09
-3.08306e-07
1.24269e-07
6.40161e-07
-3.23312e-07
2.92702e-07
1.65292e-07
-4.81155e-07
4.38616e-08
1.96899e-07
1.35382e-07
1.2645e-07
1.23437e-08
-1.45577e-06
-2.33742e-08
-1.72987e-06
-3.36248e-08
-1.71922e-06
-1.04614e-07
-1.61053e-07
-1.49746e-07
5.48881e-08
-2.4801e-07
2.22533e-07
5.33737e-07
-1.41592e-07
2.54602e-07
4.00793e-07
-4.90103e-07
1.00329e-07
3.51168e-07
1.61491e-07
6.52867e-08
2.2767e-08
-1.31705e-06
-1.8571e-09
-1.70525e-06
-1.29779e-08
-1.70809e-06
1.32559e-07
-3.06591e-07
1.23582e-08
1.7509e-07
-7.96647e-09
2.42858e-07
3.77968e-07
1.47802e-07
-2.65108e-07
5.62696e-07
1.03206e-07
-2.63269e-07
3.49329e-07
-7.31715e-08
-1.24813e-07
4.977e-09
-1.39519e-06
-1.18706e-08
-1.6884e-06
-2.79376e-08
-1.69203e-06
3.23754e-07
-6.58282e-07
1.57897e-07
3.40947e-07
1.03092e-07
2.97663e-07
3.33346e-07
1.47716e-07
-4.76149e-07
4.56766e-07
5.82079e-07
-1.96757e-07
6.994e-08
-9.40652e-08
-2.27505e-07
5.53216e-09
-1.49479e-06
1.02291e-09
-1.68389e-06
-8.3957e-09
-1.68261e-06
4.29507e-07
-1.09618e-06
3.0684e-07
4.63613e-07
2.12968e-07
3.91535e-07
3.74026e-07
1.72287e-07
-1.3123e-07
2.17787e-07
3.7021e-07
7.57703e-08
-1.37056e-07
4.01211e-08
-1.91854e-07
1.48257e-08
-1.4695e-06
5.45945e-09
-1.67452e-06
-2.75965e-09
-1.67439e-06
1.72649e-07
-1.27159e-06
1.18549e-07
5.17713e-07
6.91026e-08
4.40982e-07
4.40965e-07
2.16384e-09
-1.20722e-08
9.14453e-08
1.38415e-07
1.96989e-08
-1.68829e-07
8.71468e-08
-2.59302e-07
1.14634e-08
-1.39381e-06
-1.21806e-09
-1.66184e-06
-1.34164e-08
-1.66219e-06
1.45885e-08
-1.2996e-06
1.4783e-07
3.84473e-07
2.65553e-07
3.2326e-07
4.76745e-07
2.29772e-07
2.97124e-07
-2.00779e-08
-1.85601e-07
2.30468e-07
-1.02173e-07
1.36974e-07
-1.65806e-07
1.62764e-08
-1.27311e-06
-1.09533e-09
-1.64447e-06
-1.66704e-08
-1.64662e-06
1.09389e-08
-1.32721e-06
4.81511e-07
-8.60975e-08
5.51625e-07
2.53143e-07
4.31443e-07
5.96926e-07
3.72103e-07
-4.58888e-08
-3.46292e-07
3.01065e-07
-3.11342e-08
5.91793e-08
7.60785e-08
1.6435e-08
-1.23037e-06
-7.68888e-09
-1.62035e-06
-3.40621e-08
-1.62024e-06
-2.50122e-08
-1.33625e-06
4.0077e-07
-5.1188e-07
6.25263e-07
2.8649e-08
3.34596e-07
7.22112e-07
1.9547e-07
8.17532e-08
-3.23112e-07
7.42861e-08
9.00516e-08
-2.67246e-08
1.7709e-07
2.33217e-08
-1.28041e-06
-3.3676e-09
-1.59366e-06
-3.1228e-08
-1.59238e-06
9.43162e-09
-1.37691e-06
1.42426e-07
-6.44874e-07
3.58398e-07
-1.87321e-07
1.05244e-07
5.87751e-07
-1.02516e-07
2.66048e-07
-8.17786e-08
-2.3853e-07
2.26065e-07
-8.85476e-08
2.71091e-08
1.23903e-08
-1.38135e-06
-7.07481e-09
-1.57419e-06
-2.91296e-08
-1.57033e-06
9.4159e-09
-1.41546e-06
7.468e-08
-7.10136e-07
2.46625e-07
-3.59265e-07
-9.0111e-08
4.41979e-07
-1.48881e-07
3.02274e-07
1.12656e-07
-1.98532e-07
2.75715e-07
-7.99683e-08
-9.14552e-08
2.65535e-09
-1.46398e-06
-5.81585e-09
-1.56572e-06
-1.23782e-08
-1.56377e-06
5.84634e-08
-1.4863e-06
1.27317e-07
-7.78988e-07
2.38504e-07
-4.70451e-07
-2.53087e-07
4.01479e-07
-6.89364e-09
2.19032e-07
9.01362e-08
1.10368e-08
2.57783e-07
-4.97652e-08
-3.06526e-08
3.04368e-09
-1.51679e-06
3.10256e-09
-1.56578e-06
9.54213e-10
-1.56162e-06
5.16038e-08
-1.53695e-06
1.31863e-07
-8.59246e-07
2.23473e-07
-5.62061e-07
-4.09625e-07
3.80012e-07
6.94431e-08
1.62674e-07
-1.30855e-08
1.24527e-07
2.02699e-07
4.12909e-08
5.25831e-08
2.00746e-08
-1.49557e-06
1.3009e-08
-1.55871e-06
1.39316e-08
-1.56254e-06
2.25396e-08
-1.54556e-06
9.551e-08
-9.32215e-07
2.02264e-07
-6.68814e-07
-5.45162e-07
3.37801e-07
-2.33071e-08
2.09647e-07
-2.36663e-08
-1.21833e-07
3.01226e-07
-5.82071e-09
-6.34265e-08
9.32464e-09
-1.51072e-06
5.66808e-09
-1.55506e-06
1.42762e-10
-1.55701e-06
-1.71632e-09
-1.5437e-06
5.10926e-08
-9.85022e-07
1.19876e-07
-7.37598e-07
-6.37935e-07
2.12651e-07
-2.438e-07
2.33227e-07
2.2022e-07
-1.66916e-07
2.24343e-07
7.98756e-10
-2.31141e-07
8.56967e-10
-1.51078e-06
-5.19413e-09
-1.549e-06
-1.46429e-08
-1.54757e-06
-1.99547e-08
-1.53839e-06
1.11348e-08
-1.01611e-06
4.10944e-08
-7.67559e-07
-6.70924e-07
7.40823e-08
-1.68432e-07
1.64589e-07
2.37069e-07
-7.44108e-08
1.30322e-07
1.63956e-08
-3.21947e-07
9.05609e-09
-1.50344e-06
-2.33911e-09
-1.53761e-06
-1.10752e-08
-1.53883e-06
-2.31998e-08
-1.52627e-06
-1.27317e-08
-1.02658e-06
-2.14536e-08
-7.58836e-07
-6.5037e-07
-4.20074e-08
-7.07648e-08
6.21999e-08
1.73153e-07
-2.1817e-08
8.13733e-08
-4.62059e-10
-3.43301e-07
-5.3333e-09
-1.49857e-06
-8.72156e-09
-1.53422e-06
-2.00758e-08
-1.52747e-06
-2.81633e-08
-1.51818e-06
-1.41663e-08
-1.04057e-06
-4.44041e-08
-7.28598e-07
-6.03256e-07
-9.15169e-08
-5.68305e-08
7.57944e-09
1.11451e-07
-4.44494e-08
6.89936e-08
2.15354e-08
-4.09286e-07
2.07602e-08
-1.49779e-06
1.02826e-08
-1.52374e-06
7.43064e-09
-1.52462e-06
5.06327e-10
-1.51126e-06
4.21285e-09
-1.04428e-06
-4.02367e-08
-6.84148e-07
-5.60429e-07
-8.30644e-08
-3.02685e-08
3.51981e-08
2.64989e-09
-4.04144e-08
7.91358e-08
3.20086e-08
-4.81709e-07
2.96397e-08
-1.49542e-06
2.18076e-08
-1.51591e-06
1.78511e-08
-1.52067e-06
1.03522e-08
-1.50376e-06
-8.64732e-10
-1.03306e-06
-2.91524e-08
-6.55863e-07
-5.38466e-07
-5.11165e-08
-5.5673e-08
1.18513e-07
-2.76415e-08
-5.22379e-08
7.57044e-08
1.31066e-08
-5.47053e-07
6.39664e-09
-1.48871e-06
1.0651e-09
-1.51058e-06
-8.99459e-09
-1.51061e-06
-1.4323e-08
-1.49843e-06
-9.95964e-09
-1.03743e-06
-1.92473e-08
-6.46577e-07
-5.44852e-07
-1.28616e-08
-1.36768e-07
1.7674e-07
7.8541e-08
-5.29215e-08
-8.13929e-09
2.18863e-08
-6.21862e-07
1.51173e-08
-1.48194e-06
7.75641e-09
-1.50322e-06
1.22016e-09
-1.50407e-06
-4.26623e-09
-1.49294e-06
-4.86841e-09
-1.03683e-06
1.58765e-08
-6.67323e-07
-5.71446e-07
4.24694e-08
-1.37492e-07
1.26722e-07
1.8751e-07
-3.68351e-08
-1.08797e-07
1.22516e-08
-6.70948e-07
4.35976e-09
-1.47405e-06
-4.97309e-09
-1.49389e-06
-1.19709e-08
-1.49707e-06
-1.71275e-08
-1.48778e-06
-1.31822e-08
-1.04077e-06
3.54277e-08
-7.15932e-07
-6.01163e-07
6.51446e-08
-2.73731e-08
7.73951e-08
7.66996e-08
-2.30642e-08
-1.13106e-07
2.08144e-08
-7.14825e-07
3.48674e-09
-1.45672e-06
-7.31537e-09
-1.48308e-06
-2.26111e-08
-1.48178e-06
-3.85001e-08
-1.4719e-06
-5.42602e-08
-1.02501e-06
-8.00343e-09
-7.62191e-07
-6.38452e-07
2.92844e-08
8.36028e-08
2.20693e-08
-2.82769e-08
6.2788e-08
-9.22917e-08
5.64676e-08
-7.08504e-07
1.65447e-08
-1.4168e-06
-2.94459e-10
-1.46624e-06
-1.53465e-08
-1.46672e-06
-5.74019e-08
-1.42984e-06
-7.42413e-08
-1.00817e-06
-4.47957e-08
-7.91638e-07
-6.72367e-07
-1.0881e-08
2.77915e-09
-3.91434e-08
5.84337e-08
6.45497e-08
-1.54062e-07
6.37957e-08
-7.07747e-07
1.86029e-08
-1.37161e-06
-1.09237e-09
-1.44655e-06
-1.97455e-08
-1.44807e-06
-7.18479e-08
-1.37774e-06
-7.76504e-08
-1.00237e-06
-3.55288e-08
-8.33759e-07
-7.18537e-07
1.06405e-08
-1.30488e-07
-9.33749e-08
1.8472e-07
8.41188e-09
-2.92964e-07
3.67151e-08
-7.36051e-07
1.76457e-08
-1.35254e-06
-1.28103e-10
-1.42878e-06
-1.84754e-08
-1.42972e-06
-5.10937e-08
-1.34512e-06
-4.15814e-08
-1.01188e-06
8.60449e-09
-8.83944e-07
-7.76277e-07
6.63444e-08
-2.57705e-08
-1.57238e-07
8.96343e-08
3.94366e-08
-3.58166e-07
2.96264e-08
-7.26239e-07
1.52772e-08
-1.33819e-06
-5.19543e-09
-1.4083e-06
-2.47133e-08
-1.41021e-06
-4.05115e-08
-1.32932e-06
-1.21492e-08
-1.04025e-06
2.56901e-08
-9.21784e-07
-8.30246e-07
7.96579e-08
5.12579e-08
-1.9717e-07
-1.13247e-08
6.62353e-08
-3.73142e-07
3.80142e-08
-6.98019e-07
1.43344e-08
-1.31451e-06
-4.86016e-09
-1.38911e-06
-2.56878e-08
-1.38938e-06
-3.45192e-08
-1.32049e-06
-4.36393e-09
-1.0704e-06
2.80897e-08
-9.54238e-07
-8.8331e-07
8.11519e-08
5.05554e-08
-2.2214e-07
-2.55843e-08
5.9678e-08
-3.82268e-07
3.73712e-08
-6.75711e-07
1.5492e-08
-1.29263e-06
-3.39273e-09
-1.37022e-06
-2.32098e-08
-1.36956e-06
-2.78653e-08
-1.31584e-06
9.5974e-09
-1.10787e-06
4.78428e-08
-9.92483e-07
-9.30853e-07
9.53859e-08
3.5329e-08
-2.3492e-07
-2.25501e-08
3.60112e-08
-3.82952e-07
1.65736e-08
-6.56274e-07
1.67156e-08
-1.29277e-06
-3.38296e-10
-1.35317e-06
-1.71634e-08
-1.35274e-06
-1.71476e-08
-1.31585e-06
1.23115e-08
-1.13732e-06
4.19342e-08
-1.0221e-06
-9.62447e-07
7.35283e-08
2.42975e-08
-2.44837e-07
-1.43798e-08
2.13357e-08
-3.7999e-07
2.72741e-09
-6.37664e-07
1.58494e-08
-1.3059e-06
1.68826e-09
-1.33901e-06
-1.19675e-08
-1.33908e-06
-2.9262e-09
-1.32489e-06
6.18679e-09
-1.14644e-06
1.62325e-08
-1.03215e-06
-9.73552e-07
2.73392e-08
2.68164e-08
-2.57781e-07
-1.38734e-08
1.29637e-08
-3.66143e-07
4.65795e-09
-6.29359e-07
1.24613e-08
-1.3137e-06
-2.09834e-09
-1.32445e-06
-1.02729e-08
-1.33091e-06
-1.06736e-08
-1.32449e-06
-1.20682e-08
-1.14504e-06
-2.01209e-08
-1.02409e-06
-9.6353e-07
-3.01421e-08
1.49107e-08
-2.69995e-07
-2.69826e-09
-1.42167e-08
-3.37017e-07
-1.04381e-08
-6.33137e-07
-1.69493e-08
-1.30719e-06
-2.18129e-08
-1.31958e-06
-3.4948e-08
-1.31777e-06
-3.6098e-08
-1.32334e-06
-4.61221e-08
-1.13502e-06
-7.26977e-08
-9.97519e-07
-9.38379e-07
-9.78469e-08
-9.59073e-09
-3.20374e-07
5.99698e-08
-2.56743e-08
-3.2093e-07
-7.26523e-10
-6.58085e-07
-6.11974e-09
-1.3018e-06
-1.49568e-08
-1.31075e-06
-2.43086e-08
-1.30842e-06
-3.47507e-08
-1.3129e-06
-6.62604e-08
-1.10351e-06
-1.09738e-07
-9.54041e-07
-8.95954e-07
-1.52163e-07
-4.7103e-08
-3.75008e-07
1.01738e-07
-4.95363e-08
-3.18498e-07
8.40431e-09
-7.16025e-07
6.70336e-10
-1.29406e-06
-1.04479e-08
-1.29963e-06
-2.09958e-08
-1.29787e-06
-3.04458e-08
-1.30345e-06
-7.99471e-08
-1.05401e-06
-1.38542e-07
-8.95445e-07
-8.38587e-07
-1.95908e-07
-1.18524e-07
-3.99614e-07
1.4313e-07
-3.79292e-08
-3.99095e-07
2.49922e-08
-7.78947e-07
1.33572e-08
-1.28243e-06
2.99347e-10
-1.28657e-06
-1.32217e-08
-1.28435e-06
-2.56642e-08
-1.29101e-06
-9.73541e-08
-9.82316e-07
-1.71385e-07
-8.21414e-07
-7.6685e-07
-2.43121e-07
-1.1259e-07
-4.36946e-07
1.49922e-07
2.82573e-09
-5.14514e-07
4.12643e-08
-8.17389e-07
2.45038e-08
-1.26567e-06
4.92892e-09
-1.267e-06
-1.04853e-08
-1.26894e-06
-3.13578e-08
-1.27014e-06
-1.0836e-07
-9.05313e-07
-1.89753e-07
-7.4002e-07
-6.83222e-07
-2.73381e-07
-2.69594e-08
-4.89415e-07
7.94295e-08
3.03147e-08
-5.71789e-07
3.31745e-08
-8.20249e-07
1.53606e-08
-1.24785e-06
-2.71309e-09
-1.24892e-06
-2.30324e-08
-1.24862e-06
-4.27546e-08
-1.25041e-06
-1.21459e-07
-8.26608e-07
-2.09023e-07
-6.52456e-07
-5.95936e-07
-2.96309e-07
1.69389e-08
-5.17304e-07
1.09487e-08
3.20688e-08
-5.86918e-07
3.10092e-08
-8.19189e-07
1.8183e-08
-1.23503e-06
-2.0815e-09
-1.22866e-06
-2.24881e-08
-1.22821e-06
-3.96618e-08
-1.23324e-06
-1.28381e-07
-7.37889e-07
-2.20159e-07
-5.60678e-07
-5.00219e-07
-3.15876e-07
3.4802e-08
-5.27277e-07
-2.48298e-08
3.64451e-08
-5.88564e-07
3.38361e-08
-8.16581e-07
2.02065e-08
-1.2214e-06
6.67401e-10
-1.20912e-06
-1.96091e-08
-1.20794e-06
-3.57324e-08
-1.21712e-06
-1.04893e-07
-6.68728e-07
-1.96307e-07
-4.69264e-07
-4.06931e-07
-2.89595e-07
4.16135e-08
-5.30568e-07
-3.83235e-08
3.5032e-08
-5.81987e-07
3.78387e-08
-8.1939e-07
2.38777e-08
-1.20744e-06
2.62339e-09
-1.18787e-06
-1.5896e-08
-1.18942e-06
-3.12321e-08
-1.20178e-06
-7.48931e-08
-6.25067e-07
-1.64697e-07
-3.7946e-07
-3.12258e-07
-2.59372e-07
4.33437e-08
-5.20393e-07
-5.35196e-08
2.68857e-08
-5.65532e-07
3.13925e-08
-8.23897e-07
1.45289e-08
-1.19057e-06
3.96387e-11
-1.17338e-06
-1.50642e-08
-1.17431e-06
-3.20608e-08
-1.18478e-06
-5.23793e-08
-6.04748e-07
-1.29157e-07
-3.02685e-07
-2.22004e-07
-2.19412e-07
5.44872e-08
-4.88448e-07
-8.64351e-08
2.45418e-08
-5.35592e-07
2.89441e-08
-8.28301e-07
1.32095e-08
-1.17484e-06
-2.28284e-09
-1.15788e-06
-1.53245e-08
-1.16127e-06
-3.07011e-08
-1.16941e-06
-3.34128e-08
-6.02036e-07
-9.60826e-08
-2.40015e-07
-1.55686e-07
-1.62401e-07
6.50456e-08
-4.39856e-07
-1.13638e-07
1.96206e-08
-4.90165e-07
7.29321e-09
-8.15972e-07
-1.00864e-08
-1.15746e-06
-1.89942e-08
-1.14898e-06
-3.22746e-08
-1.14799e-06
-4.771e-08
-1.15397e-06
-4.01628e-08
-6.09584e-07
-8.6006e-08
-1.94172e-07
-9.52428e-08
-1.4645e-07
7.56578e-08
-3.88904e-07
-1.2661e-07
3.01368e-08
-4.44648e-07
1.42093e-08
-8.00046e-07
-9.75039e-10
-1.14227e-06
-1.35449e-08
-1.13641e-06
-3.06617e-08
-1.13087e-06
-4.49374e-08
-1.1397e-06
-3.99831e-08
-6.14539e-07
-7.88314e-08
-1.55323e-07
-5.48262e-08
-1.19247e-07
8.8704e-08
-3.4069e-07
-1.36917e-07
4.67345e-08
-4.02679e-07
4.03467e-08
-7.93658e-07
2.73541e-08
-1.12928e-06
1.09766e-08
-1.12003e-06
-1.03117e-09
-1.11887e-06
-1.54263e-08
-1.1253e-06
-3.53628e-08
-5.94603e-07
-8.42916e-08
-1.06395e-07
-9.58625e-09
-1.29532e-07
9.36471e-08
-2.94852e-07
-1.39485e-07
5.20094e-08
-3.61038e-07
4.56201e-08
-7.87267e-07
3.47587e-08
-1.11842e-06
1.26375e-08
-1.09791e-06
-2.4283e-09
-1.1038e-06
-1.38522e-08
-1.11388e-06
-2.20181e-08
-5.86437e-07
-7.18454e-08
-5.65691e-08
3.78909e-08
-1.19323e-07
7.82967e-08
-2.52236e-07
-1.20914e-07
3.87386e-08
-3.21484e-07
1.46412e-08
-7.63171e-07
-4.50956e-10
-1.10333e-06
-1.28222e-08
-1.08554e-06
-3.92767e-08
-1.07735e-06
-5.30883e-08
-1.10006e-06
-5.24595e-08
-5.87066e-07
-1.0915e-07
1.19751e-10
1.10894e-07
-1.82153e-07
7.4701e-08
-2.16462e-07
-1.10475e-07
5.14114e-08
-2.98192e-07
5.34419e-08
-7.65201e-07
3.46938e-08
-1.08458e-06
7.70253e-09
-1.05854e-06
-8.60741e-09
-1.06104e-06
-2.72693e-08
-1.0814e-06
-3.23115e-08
-5.82024e-07
-8.69814e-08
5.47893e-08
1.86002e-07
-1.62089e-07
6.00547e-08
-1.82412e-07
-9.41041e-08
3.77367e-08
-2.75871e-07
3.60888e-08
-7.63555e-07
1.47319e-08
-1.06322e-06
-7.78345e-10
-1.04303e-06
-1.95222e-08
-1.04229e-06
-3.97011e-08
-1.06122e-06
-2.05805e-08
-6.01145e-07
-6.41602e-08
9.83692e-08
2.38881e-07
-1.17039e-07
5.7511e-08
-1.53771e-07
-8.61522e-08
3.80763e-08
-2.56433e-07
3.7211e-08
-7.6269e-07
1.90698e-08
-1.04508e-06
3.70727e-10
-1.02434e-06
-1.74622e-08
-1.02446e-06
-3.52584e-08
-1.04343e-06
-9.89184e-09
-6.26511e-07
-2.71427e-08
1.1562e-07
2.77025e-07
-6.52867e-08
5.65845e-08
-1.31405e-07
-7.89497e-08
3.82967e-08
-2.3814e-07
2.97888e-08
-7.54181e-07
8.96403e-09
-1.02426e-06
-4.21097e-09
-1.01116e-06
-1.56996e-08
-1.01297e-06
-3.55116e-08
-1.02362e-06
-1.92022e-08
-6.42821e-07
-1.15676e-08
1.07985e-07
2.79654e-07
-1.41972e-08
6.26806e-08
-1.11565e-07
-8.25197e-08
4.3645e-08
-2.19105e-07
2.29967e-08
-7.33533e-07
4.67737e-09
-1.00594e-06
-1.25841e-08
-9.93899e-07
-3.40017e-08
-9.91553e-07
-5.17234e-08
-1.00589e-06
-3.07354e-08
-6.6381e-07
3.96639e-09
7.32836e-08
2.56299e-07
2.73218e-08
6.69384e-08
-9.34238e-08
-8.50787e-08
5.06545e-08
-2.0282e-07
3.1025e-08
-7.13903e-07
1.35765e-08
-9.8849e-07
-4.10531e-09
-9.76217e-07
-1.48414e-08
-9.80817e-07
-3.30756e-08
-9.87659e-07
-4.67695e-08
-6.50116e-07
4.11628e-08
-1.46479e-08
2.21988e-07
7.54745e-08
6.79856e-08
-7.67001e-08
-8.47092e-08
4.83962e-08
-1.8323e-07
1.44203e-08
-6.79927e-07
-1.42692e-09
-9.72642e-07
-2.12735e-08
-9.56371e-07
-5.15644e-08
-9.50526e-07
-6.51422e-08
-9.74082e-07
-4.85673e-08
-6.6669e-07
3.64872e-08
-9.97019e-08
1.75505e-07
8.29703e-08
7.02158e-08
-6.36364e-08
-8.32792e-08
5.64654e-08
-1.69477e-07
4.13641e-08
-6.64826e-07
2.37814e-08
-9.55059e-07
1.67616e-10
-9.32757e-07
-1.65604e-08
-9.33798e-07
-3.44635e-08
-9.56178e-07
-4.04662e-08
-6.60686e-07
-3.03272e-08
-1.09841e-07
1.23478e-07
2.16991e-08
7.02746e-08
-4.9309e-08
-8.46011e-08
5.58365e-08
-1.55037e-07
4.91541e-08
-6.58143e-07
3.02292e-08
-9.36134e-07
-1.26412e-09
-9.01264e-07
-3.3334e-08
-9.01728e-07
-5.33e-08
-9.36213e-07
-8.75809e-08
-6.26406e-07
-9.61844e-08
-1.01238e-07
5.10998e-08
-2.38062e-08
5.95155e-08
-3.15381e-08
-7.7286e-08
4.09017e-08
-1.36426e-07
4.23291e-08
-6.5957e-07
1.98103e-08
-9.13615e-07
-8.9024e-10
-8.80563e-07
-2.13913e-08
-8.81227e-07
-4.30025e-08
-9.14602e-07
-3.33316e-08
-6.36077e-07
-6.68065e-09
-1.27889e-07
-9.16192e-09
5.35812e-08
5.97215e-08
-1.46267e-08
-7.66334e-08
4.37175e-08
-1.20424e-07
5.29032e-08
-6.68754e-07
3.12251e-08
-8.91937e-07
4.88779e-10
-8.49827e-07
-2.94884e-08
-8.5125e-07
-5.13887e-08
-8.92701e-07
-4.26043e-08
-6.44861e-07
-5.41451e-08
-1.16348e-07
-9.91684e-09
-5.339e-08
5.72414e-08
1.6387e-09
-7.35077e-08
4.02398e-08
-1.03421e-07
4.0283e-08
-6.68797e-07
1.25077e-08
-8.64161e-07
-5.35179e-11
-8.37266e-07
-1.262e-08
-8.38683e-07
-4.01893e-08
-8.65132e-07
-3.0413e-08
-6.54637e-07
-4.37632e-08
-1.02997e-07
-4.36223e-08
-1.00574e-08
6.69065e-08
1.47922e-08
-8.00596e-08
5.48681e-08
-9.1381e-08
4.82589e-08
-6.62188e-07
2.33269e-08
-8.39229e-07
-5.80749e-11
-8.13881e-07
-2.34854e-08
-8.15256e-07
-4.78273e-08
-8.4079e-07
-3.83943e-08
-6.6407e-07
-5.38192e-08
-8.7571e-08
-8.02202e-08
-1.72209e-08
6.8931e-08
2.5421e-08
-7.95591e-08
5.66615e-08
-7.91121e-08
3.72855e-08
-6.42812e-07
1.173e-08
-8.13674e-07
-3.37023e-10
-8.01814e-07
-1.18266e-08
-8.03766e-07
-3.76818e-08
-8.14935e-07
-4.62011e-08
-6.55551e-07
-3.35831e-08
-1.00188e-07
-9.89136e-08
-1.48891e-08
7.6417e-08
3.30051e-08
-8.40015e-08
6.76066e-08
-7.03043e-08
4.83874e-08
-6.23594e-07
2.74629e-08
-7.92749e-07
2.92246e-11
-7.7438e-07
-2.7911e-08
-7.75826e-07
-4.85914e-08
-7.94254e-07
-3.6476e-08
-6.67666e-07
4.89449e-08
-1.85609e-07
-1.10902e-07
6.0934e-08
7.14404e-08
4.08801e-08
-7.93159e-08
5.99536e-08
-5.88156e-08
4.13966e-08
-6.05037e-07
1.84644e-08
-7.69817e-07
3.69133e-10
-7.56285e-07
-1.92031e-08
-7.56254e-07
-4.19634e-08
-7.71494e-07
-5.09674e-08
-6.58662e-07
-3.41487e-09
-2.3316e-07
-1.37172e-07
2.2856e-08
7.56568e-08
4.61986e-08
-8.09753e-08
6.90648e-08
-5.22208e-08
5.86371e-08
-5.94609e-07
3.68941e-08
-7.48074e-07
8.56085e-10
-7.20247e-07
-3.59977e-08
-7.194e-07
-5.79059e-08
-7.49586e-07
-7.12574e-08
-6.4531e-07
-6.44971e-08
-2.39919e-07
-1.47109e-07
-5.45577e-08
7.03025e-08
5.106e-08
-7.51634e-08
6.31068e-08
-4.50264e-08
5.05349e-08
-5.82038e-07
2.1914e-08
-7.19453e-07
4.97457e-10
-6.9883e-07
-1.99184e-08
-6.98984e-07
-4.91364e-08
-7.20368e-07
-6.93724e-08
-6.25073e-07
-7.55677e-08
-2.33722e-07
-1.50247e-07
-7.24283e-08
7.51192e-08
5.12082e-08
-7.52673e-08
7.63619e-08
-4.62711e-08
6.53673e-08
-5.71043e-07
3.59878e-08
-6.90074e-07
4.66607e-10
-6.63309e-07
-3.43252e-08
-6.64192e-07
-6.39308e-08
-6.90762e-07
-8.45317e-08
-6.04471e-07
-8.85725e-08
-2.2968e-07
-1.49288e-07
-8.9531e-08
6.5819e-08
5.11858e-08
-6.57975e-08
6.84531e-08
-4.89074e-08
4.95163e-08
-5.52106e-07
1.66179e-08
-6.57176e-07
4.62583e-10
-6.47154e-07
-1.67877e-08
-6.46942e-07
-4.83407e-08
-6.59209e-07
-7.95862e-08
-5.73224e-07
-8.86614e-08
-2.20604e-07
-1.38793e-07
-9.91554e-08
5.80035e-08
4.67968e-08
-5.36153e-08
7.77253e-08
-6.86301e-08
6.16485e-08
-5.36029e-07
3.3616e-08
-6.29144e-07
9.9696e-10
-6.14535e-07
-3.27417e-08
-6.13203e-07
-6.29078e-08
-6.29043e-07
-9.23713e-08
-5.4376e-07
-9.149e-08
-2.21484e-07
-1.26821e-07
-1.03462e-07
3.08523e-08
4.79493e-08
-3.20048e-08
5.87625e-08
-9.6543e-08
5.2759e-08
-5.30026e-07
2.25987e-08
-5.98984e-07
3.86657e-10
-5.92322e-07
-2.08113e-08
-5.92005e-07
-5.47135e-08
-5.95141e-07
-6.68342e-08
-5.3164e-07
-6.16499e-08
-2.26667e-07
-1.03648e-07
-8.48216e-08
2.05799e-08
5.74039e-08
-3.0035e-08
4.78243e-08
-1.23793e-07
7.406e-08
-5.56263e-07
4.05218e-08
-5.65445e-07
-1.41051e-09
-5.5039e-07
-4.2751e-08
-5.50665e-07
-7.1825e-08
-5.66067e-07
-4.99429e-08
-5.53521e-07
-4.48928e-08
-2.31716e-07
-7.58773e-08
-7.26618e-08
4.80357e-08
6.19094e-08
-5.25423e-08
8.40006e-08
-1.59761e-07
5.96652e-08
-5.31928e-07
2.37551e-08
-5.29535e-07
2.62505e-10
-5.26898e-07
-2.31302e-08
-5.27272e-07
-6.15798e-08
-5.27617e-07
-8.28794e-08
-5.32221e-07
-8.21173e-08
-2.32478e-07
-6.19719e-08
-9.60216e-08
8.07621e-08
5.90627e-08
-7.79163e-08
1.27763e-07
-2.06762e-07
8.14275e-08
-4.85592e-07
4.09962e-08
-4.89104e-07
1.68593e-09
-4.87587e-07
-4.28977e-08
-4.82689e-07
-7.99842e-08
-4.90531e-07
-1.24083e-07
-4.88122e-07
-1.06628e-07
-2.49932e-07
-5.73795e-08
-1.1122e-07
1.18877e-07
4.47797e-08
-1.04594e-07
1.33827e-07
-2.21713e-07
8.59496e-08
-4.37715e-07
4.84795e-08
-4.51634e-07
1.71373e-08
-4.56245e-07
-9.0388e-09
-4.56512e-07
-5.18826e-08
-4.47687e-07
-1.02926e-07
-4.37079e-07
-1.27503e-07
-2.25355e-07
-6.36979e-08
-1.21185e-07
1.24471e-07
1.56705e-08
-9.53621e-08
1.34789e-07
-2.32035e-07
8.37629e-08
-3.8669e-07
3.45792e-08
-4.0245e-07
-1.42294e-08
-4.07437e-07
-6.18936e-08
-4.08848e-07
-1.06197e-07
-4.03383e-07
-1.55728e-07
-3.87547e-07
-1.50597e-07
-2.30486e-07
-9.67066e-08
-1.17587e-07
6.91335e-08
-3.4147e-08
-1.93177e-08
1.33746e-07
-2.96649e-07
9.22064e-08
-3.4515e-07
4.73058e-08
-3.5755e-07
2.73769e-09
-3.62869e-07
-4.09657e-08
-3.65145e-07
-8.53583e-08
-3.5899e-07
-1.29661e-07
-3.43245e-07
-6.79193e-08
-2.92227e-07
-1.18565e-07
-4.60602e-08
1.60815e-07
-8.60285e-08
-1.08935e-07
1.41828e-07
-2.77662e-07
9.55343e-08
-2.98857e-07