/*--------------------------------*- C++ -*----------------------------------*\
  =========                 |
  \\      /  F ield         | OpenFOAM: The Open Source CFD Toolbox
   \\    /   O peration     | Website:  https://openfoam.org
    \\  /    A nd           | Version:  8
     \\/     M anipulation  |
\*---------------------------------------------------------------------------*/
FoamFile
{
    version     2.0;
    format      ascii;
    class       volScalarField;
    location    "4.5";
    object      alpha.water;
}
// * * * * * * * * * * * * * * * * * * * * * * * * * * * * * * * * * * * * * //

dimensions      [0 0 0 0 0 0 0];

internalField   nonuniform List<scalar> 
9150
(
1
1
1
1
1
1
1
1
1
1
1
1
1
1
1
1
1
1
1
1
1
1
1
1
1
1
1
1
1
1
1
1
1
1
1
1
1
1
1
1
1
1
1
1
1
1
1
1
1
1
1
1
1
1
1
1
1
1
1
1
1
1
1
1
1
1
1
1
1
1
1
1
1
1
1
1
1
1
1
1
1
1
1
1
1
1
1
1
1
1
1
1
1
1
1
1
1
1
1
1
1
1
1
1
1
1
1
1
1
1
1
1
1
1
1
1
1
1
1
1
1
1
1
1
1
1
1
1
1
1
1
1
1
1
1
1
1
1
1
1
1
1
1
1
1
1
1
1
1
1
1
0.999986
0.999984
0.999984
0.999996
1
1
1
1
1
0.999999
0.999999
1
0.999996
0.999984
0.999996
1
1
1
1
1
1
1
0.99999
0.999983
0.999983
0.999991
1
1
1
1
0.999996
0.999983
0.999983
0.999983
0.999992
1
1
1
1
0.999987
0.999987
0.999987
0.999995
0.999998
1
1
1
1
1
0.999991
0.999997
0.999999
1
1
1
1
1
1
1
1
1
1
1
1
1
1
1
1
1
1
1
1
1
1
1
1
1
1
1
1
1
1
1
1
1
1
1
0.999998
0.999996
1
0.999999
1
1
1
1
0.999998
0.999997
0.999997
0.999997
0.999999
0.999999
0.999999
1
1
1
1
1
1
1
0.999999
0.999999
1
1
1
1
1
0.999076
0.994479
0.9943
1
1
1
0.996381
0.993072
0.995679
0.998995
0.995969
0.994054
0.994138
0.983681
0.984872
0.999084
0.997698
0.993059
0.993052
0.993065
0.993316
0.999044
0.999729
0.970998
0.988262
0.999983
0.999557
0.993813
0.993065
0.994002
0.999988
0.999996
0.999998
0.98363
0.999984
0.999986
0.999958
0.998693
0.997729
0.999446
0.999978
0.999988
0.999873
0.999984
0.999986
0.999986
0.999986
0.999984
0.99994
0.999803
0.992624
0.971615
0.971792
0.999977
0.999984
0.999931
0.996744
0.974803
0.970988
0.971311
0.971433
0.971557
0.973959
0.997568
0.973965
0.969705
0.970057
0.970249
0.970422
0.991186
0.99258
0.992775
0.993999
0.969389
0.969389
0.969397
0.978135
0.987462
0.987923
0.988952
0.978043
0.952678
0.952663
0.973569
0.987292
0.987005
0.986794
0.970655
0.898922
0.900668
0.907081
0.982941
0.983341
0.988109
0.987816
0.986234
0.92321
0.899024
0.899024
0.899024
0.951066
0.983501
0.983591
0.982
0.915184
0.903439
0.903439
0.905267
0.94425
0.936411
0.98394
0.983589
0.974499
0.789644
0.874425
0.992072
0.982795
0.987774
0.993863
0.992717
0.988259
0.820956
0.518207
0.855808
0.992437
0.993173
0.993739
0.994763
0.999003
0.997556
0.977168
0.658295
0.518385
0.98716
0.989921
0.973077
0.953405
0.999923
0.999916
0.999597
0.997061
0.922051
0.611583
0.98106
0.860017
0.799434
0.945702
0.999994
0.999985
0.999929
0.999525
0.997171
0.916934
0.783263
0.785644
0.787077
0.948605
0.999999
0.999997
0.999989
0.9999
0.997742
0.996764
0.784314
0.785045
0.792309
0.979346
0.999999
0.999999
0.999997
0.999971
0.99977
0.999647
0.784295
0.784691
0.84634
0.999999
0.999999
0.999999
0.999999
0.999995
0.999887
0.999555
0.78425
0.785359
0.946854
0.999999
1
0.999999
0.999997
0.999807
0.999593
0.99957
0.785386
0.904337
0.999998
1
1
1
0.999998
0.999937
0.999624
0.999592
0.965675
0.994501
1
1
1
1
1
0.999998
0.999958
0.99981
0.999945
0.999992
1
1
1
1
1
0.999999
0.999998
0.999999
0.999997
0.999998
0.999996
0.999997
0.999994
1
1
1
1
1
1
0.999999
0.99999
0.999979
0.999979
0.999986
1
1
0.999999
0.999761
1
1
0.999988
0.999979
0.999979
0.999979
0.999983
0.999998
0.999993
0.999977
1
1
0.999999
0.999991
0.999981
0.99998
0.999991
0.999993
0.999993
0.999941
1
1
1
1
0.999999
0.999999
0.999999
0.999996
0.999958
0.992408
1
1
1
1
1
1
1
0.999998
0.999964
0.996128
1
1
1
1
1
1
1
1
0.999953
0.999858
1
1
1
1
1
1
1
1
0.999999
0.999999
1
1
1
1
1
1
1
1
1
1
1
1
1
1
1
1
1
1
1
0.994086
1
1
1
1
1
1
1
0.996603
0.985285
0.976252
0.999872
0.999468
0.999764
0.999944
0.999778
0.996919
0.98417
0.975766
0.975778
0.975789
0.999458
0.999015
0.999014
0.999491
0.99993
0.989435
0.975766
0.975766
0.975931
0.996036
0.999532
0.999014
0.999014
0.999671
0.999933
0.997031
0.986602
0.993147
0.999973
1
0.999886
0.999446
0.999669
0.999944
0.999933
0.999793
1
1
1
1
0.99999
0.99999
0.999985
0.999984
0.999885
0.999933
0.999989
1
1
1
0.99999
0.99999
0.99999
0.995694
0.998997
0.999989
1
1
1
1
0.99999
0.965033
0.932857
0.99326
0.999918
0.999997
0.999999
1
1
1
0.905738
0.673613
0.852097
0.991149
0.999824
0.999997
0.999999
0.999998
0.999964
0.97929
0.682798
0.672574
0.886401
0.961606
1
0.999999
0.999999
0.999981
0.999551
0.807762
0.674367
0.715116
0.947068
0.962716
1
1
0.999999
0.999985
0.99965
0.703128
0.674332
0.869502
0.970893
0.971521
1
0.999999
0.999994
0.999988
0.999997
0.999971
0.674681
0.924064
0.965588
0.987002
1
0.999999
0.999996
0.999998
1
0.999999
0.82128
0.870805
0.788866
0.991004
1
1
0.999999
0.999998
1
0.999999
0.993324
0.772802
0.412176
0.977432
1
1
0.999998
0.99999
0.999988
0.99999
0.998824
0.660798
0.274957
0.909802
1
1
0.999999
0.999998
0.999993
0.999987
0.998662
0.696932
0.272057
0.746506
1
1
0.999999
0.999999
0.999999
0.999999
0.998596
0.823965
0.268306
0.461222
0.947007
1
0.999992
0.999998
0.999999
0.999998
0.998369
0.815034
0.267273
0.234161
0.55324
0.954109
0.998422
0.999996
0.999995
0.999985
0.998101
0.628422
0.233589
0.233875
0.234161
0.553655
0.983925
0.999859
0.9993
0.992958
0.82125
0.23796
0.233589
0.233589
0.302343
0.777855
0.976865
0.953507
0.909624
0.859481
0.256168
0.23528
0.233589
0.418082
0.904903
0.905279
0.86808
0.82296
0.823466
0.823824
0.253153
0.280555
0.763876
0.902016
0.905302
0.822893
0.821738
0.821738
0.82296
0.862946
0.416391
0.80913
0.8566
0.872033
0.837308
0.821755
0.821738
0.856603
0.959082
0.999615
0.841857
0.858631
0.855509
0.870517
0.871096
0.824828
0.900079
0.997286
0.998762
0.999539
0.99319
0.955044
0.927142
0.860464
0.760097
0.915322
0.981168
0.993642
0.99703
0.994783
0.999538
0.99899
0.904935
0.591062
0.753563
0.90491
0.91355
0.920673
0.939834
0.98635
0.999587
0.999591
0.620273
0.337803
0.6248
0.463759
0.291039
0.467034
0.882365
0.988124
0.999593
0.99959
0.515196
0.218222
0.113703
0.0466793
0.0468758
0.181926
0.80379
0.990158
0.99959
0.995931
0.463318
0.0473049
0.0465483
0.0467216
0.0466771
0.121827
0.759857
0.992698
0.999604
0.982744
0.362809
0.0484548
0.046902
0.0466788
0.0468247
0.169262
0.842244
0.994456
0.99961
0.961095
0.320994
0.049214
0.0476268
0.046902
0.0471403
0.433438
0.957618
0.996905
0.999613
0.902397
0.231394
0.0514714
0.0498714
0.0474636
0.0498658
0.732276
0.991856
0.998259
0.99961
0.864042
0.208329
0.0577244
0.0532028
0.0516048
0.364133
0.932889
0.996328
0.999131
0.951326
0.804508
0.235048
0.0711228
0.0579286
0.0809998
0.751135
0.992719
0.998556
0.999643
0.872588
0.831099
0.466274
0.0923306
0.0710577
0.635555
0.990205
0.998026
0.999582
0.99987
0.861764
0.839256
0.590507
0.131974
0.408399
0.932134
0.997033
0.99946
0.999894
0.99997
0.839631
0.583195
0.357582
0.421444
0.868242
0.997075
0.999533
0.999932
0.999989
0.999986
0.654541
0.314478
0.336132
0.852005
0.997268
0.99965
0.999965
0.999995
0.999999
0.999991
0.273935
0.288884
0.710407
0.998443
0.999866
0.999989
1
1
1
0.999999
0.215727
0.686635
0.999068
0.999972
0.999995
1
1
1
1
1.00001
0.545214
0.999035
0.999936
0.999993
1
1
1
1
1
1.00001
0.905974
0.99994
0.999989
1
1
1
1
1
1
1.00001
0.90102
0.999901
1.00001
0.999999
1
1
1
1
1
1.00028
0.892742
1.0001
0.999996
0.999999
1
1
1
1
1
1
0.915236
0.999947
0.999998
1
1
1
1
1
1
1.00001
0.928868
0.999978
0.999998
1
1
1
1
1
1
0.933508
0.919716
0.999983
0.999986
1
1
1
1
1
1
0.839292
0.89242
0.999983
0.999983
1
1
1
1
1
1
0.804647
0.845504
0.999983
0.999983
1
1
1
1
1
1
0.788433
0.791248
0.999983
0.999984
1
1
1
1
1
0.999776
0.786917
0.743779
0.999847
0.999994
1
1
1
1
1
1.00001
0.81557
0.729468
0.999996
1
1
1
1
1
1
1.00005
0.842816
0.800848
1.00006
1
1
1
1
1
1
1
0.875339
0.878348
1.0001
1
1
1
1
1
1
1
0.914072
0.942414
1
1
1
1
1
1
1
1
0.955104
1
1
1
1
1
1
1
1
0.99999
0.999989
0.999999
1
1
1
1
1
1
1
1
1
1
1
1
1
0.999907
0.999724
0.999724
0.999898
1
1
1
0.999998
0.999998
1
1
1
1
0.999987
0.999901
0.999898
1
0.999999
0.999996
0.999999
1
1
1
0.999992
0.999985
0.999985
0.999987
0.999999
1
1
1
1
1
1
1
1
1
1
1
1
0.999995
1
0.999875
0.999573
0.99969
0.999986
1
1
0.999997
0.999999
1
1
1
0.999999
0.999984
0.999945
1
0.999997
0.999994
0.999999
1
0.999995
0.999988
0.999988
0.99999
0.99999
0.999997
1
1
1
1
1
0.999997
0.999997
0.999999
1
1
1
1
1
1
1
0.999937
0.999572
0.99957
0.999812
1
1
0.999998
0.999997
0.999999
1
1
0.999999
1
1
0.999998
0.999994
0.999994
0.999999
0.999999
0.999991
0.99999
0.999998
1
0.999999
0.999991
0.999999
1
1
1
0.999997
0.999996
0.999999
1
1
1
1
1
1
1
1
0.999869
0.99957
0.99957
0.999828
1
1
1
0.999998
1
1
1
1
1
1
0.999996
0.999994
0.999998
1
0.999998
0.999997
0.999999
1
1
0.999992
0.999991
0.999997
1
1
0.999997
0.999996
0.999997
1
1
0.999985
0.999974
0.999991
0.999999
1
1
1
0.999624
0.99957
0.999686
0.999985
1
1
1
1
1
1
1
1
1
1
0.999999
0.999999
1
0.999994
0.999997
1
1
0.999999
0.999992
0.999991
0.999994
1
1
0.999997
0.999997
0.999998
1
1
0.99995
0.999826
0.999887
1
1
1
1
0.999695
0.999575
0.999723
0.999991
1
1
1
1
1
1
0.997821
0.982653
0.992281
0.995899
0.991219
1
1
0.999993
0.999992
0.999998
0.999997
0.999996
0.999996
0.999997
0.999998
0.999998
0.999998
0.999998
0.999999
1
1
0.999997
0.99988
0.999826
0.999826
0.999947
1
1
0.999994
0.999738
0.999644
0.999802
1
1
0.999998
1
1
1
0.999741
0.98843
0.979069
0.978593
0.978593
0.978614
0.978593
0.999997
0.999993
0.999993
0.999996
0.999999
0.999997
0.999995
0.999995
0.999993
0.999991
0.999998
1
1
1
1
0.999914
0.999826
0.999826
0.999835
0.999989
1
1
0.999977
0.999795
0.999738
0.999912
0.999998
0.999998
0.999969
0.999954
0.999987
1
1
0.989512
0.978593
0.978593
0.978593
0.978593
0.978593
0.978593
0.999995
0.999995
0.999998
0.999998
0.999999
0.999999
0.999987
0.999984
0.999984
0.999993
1
1
0.999998
0.999893
0.999827
0.999827
0.999836
0.999987
0.999998
0.999998
0.999997
0.999936
0.999836
0.999855
0.999995
0.999995
0.999965
0.999822
0.999846
0.999993
0.999999
1
0.99992
0.992789
0.986604
0.991493
0.990904
0.985448
0.989465
0.993394
0.999997
0.999993
0.999972
0.999948
0.999948
0.999959
0.999993
0.999995
0.999998
0.999998
0.999996
0.999883
0.999844
0.999844
0.999881
0.999998
0.999998
0.999998
0.999997
0.999946
0.999859
0.999876
0.999912
0.999912
0.999577
0.997369
0.995424
0.998673
0.999904
0.999678
0.999054
0.999819
0.99994
0.998671
0.99328
0.993376
0.997562
0.997576
0.99758
0.99758
0.999749
0.999479
0.99992
0.999983
0.999957
0.999992
1
1
1
0.999947
0.999871
0.99987
0.999918
1
0.999999
0.999998
0.999998
0.999973
0.999848
0.999809
0.99986
0.999583
0.997927
0.98974
0.955125
0.952856
0.99297
0.999791
0.999163
0.985639
0.978376
0.995037
0.999967
0.995893
0.974318
0.973705
0.978266
0.992334
0.994058
0.995245
0.998828
1
0.999989
0.999998
0.999997
1
1
1
1
0.999971
0.99989
0.999985
1
1
1
0.999999
0.999994
0.999825
0.999719
0.998833
0.993188
0.964649
0.951913
0.951913
0.951913
0.952001
0.987402
0.999791
0.985911
0.978293
0.978293
0.988732
0.999987
0.993886
0.973705
0.973703
0.973703
0.973703
0.973714
0.98531
0.999728
1
0.999999
0.999999
1
1
1
1
0.999981
0.999891
0.999936
1
1
1
1
0.999999
0.999991
0.999829
0.990723
0.954163
0.952235
0.952213
0.952456
0.952004
0.962955
0.991216
0.996741
0.996699
0.981617
0.980382
0.998021
0.99999
0.999987
0.999987
0.996958
0.981601
0.973703
0.973714
0.974494
0.989985
0.999942
1
1
1
1
1
1
0.99997
0.999851
0.999832
0.99996
1
0.999999
1
1
0.999999
0.999991
0.996062
0.958834
0.95256
0.952237
0.977535
0.99998
0.99998
0.99998
0.999683
0.994743
0.99473
0.997834
0.99999
0.99999
0.99999
0.99996
0.999906
0.999905
0.999904
0.99845
0.995713
0.998794
0.99851
0.999999
1
1
0.999244
0.997877
0.997873
0.998465
0.999967
0.999941
0.999784
0.999719
0.999731
0.999917
1
1
0.999997
0.99999
0.997285
0.992704
0.993605
0.999973
0.999978
0.99998
0.99998
0.999958
0.999966
0.999987
0.999927
0.99999
0.99999
0.99999
0.999945
0.999625
0.999372
0.999562
0.999789
0.999973
0.999973
0.999973
0.999973
0.993772
0.982795
0.991441
0.999893
0.999692
0.998505
0.998871
0.999966
0.999948
0.999784
0.999705
0.999952
0.999999
1
0.999988
0.999961
0.999949
0.999957
0.999957
0.999951
0.999921
0.999976
0.999978
0.999978
0.999962
0.999981
0.999989
0.99999
0.99999
0.99999
0.99999
0.999771
0.999225
0.999225
0.999225
0.999225
0.999755
0.999972
0.999973
0.999917
0.972097
0.976628
0.999893
0.999893
0.999897
0.999901
0.999919
0.999961
0.999887
0.999825
0.999694
0.999772
0.999974
0.999998
0.999988
0.999978
0.999975
0.999943
0.999813
0.998759
0.991538
0.982764
0.986355
0.992507
0.998987
0.999964
0.999981
0.999988
0.99999
0.99999
0.999988
0.999872
0.999414
0.999225
0.999225
0.999365
0.999734
0.999994
0.999994
0.999934
0.998199
0.998379
0.999893
0.999893
0.999893
0.999893
0.999914
0.996881
0.995496
0.995616
0.999702
0.999755
0.999215
0.998431
0.999434
0.999977
0.999933
0.998471
0.977475
0.922804
0.859219
0.841109
0.838957
0.865538
0.904769
0.942564
0.977722
0.994901
0.999976
0.999975
0.999984
0.99993
0.999929
0.999733
0.999774
0.999994
0.999994
0.999986
0.999994
0.999994
0.997756
0.998205
0.99228
0.957912
0.957934
0.957898
0.962336
0.997525
0.997656
0.997954
0.998751
0.981869
0.85174
0.75848
0.92744
0.999958
0.999781
0.981549
0.84194
0.834229
0.834229
0.8539
0.827481
0.825926
0.825926
0.825926
0.86089
0.940311
0.933771
0.935354
0.998541
0.999933
0.999987
0.999992
0.999993
0.999994
0.999994
0.999994
0.999994
0.999994
0.952702
0.952884
0.972742
0.988934
0.988952
0.988936
0.988737
0.995427
0.990651
0.7664
0.659599
0.659402
0.659599
0.659979
0.734825
0.999752
0.999119
0.991686
0.87961
0.837615
0.967435
0.99997
0.997886
0.881688
0.827989
0.882437
0.950289
0.920747
0.830917
0.791781
0.791022
0.915643
0.991974
0.999989
0.999992
0.999993
0.999994
0.999994
0.999994
0.999994
0.982717
0.964086
0.974326
0.988732
0.938755
0.668106
0.643222
0.643439
0.931509
0.977976
0.69516
0.659535
0.659404
0.665014
0.909329
0.999087
0.998764
0.999614
0.99997
0.99997
0.99997
0.99997
0.99997
0.99997
0.999971
0.99997
0.999963
0.999897
0.99925
0.808407
0.495289
0.441559
0.692084
0.888082
0.977274
0.99714
0.99997
0.999971
0.999971
0.999955
0.98343
0.973815
0.695785
0.529489
0.538495
0.550428
0.820046
0.999915
0.998652
0.999026
0.996321
0.996162
0.99746
0.990161
0.980311
0.979142
0.9921
0.99997
0.99997
0.99997
0.99997
0.99997
0.99997
0.999971
0.999971
0.99997
0.999961
0.999893
0.999402
0.949951
0.542991
0.417409
0.414945
0.41256
0.548396
0.665799
0.790372
0.869209
0.930816
0.925064
0.667175
0.515288
0.521579
0.524683
0.556284
0.928931
0.999957
0.999959
0.999899
0.999886
0.999864
0.999469
0.999225
0.999867
0.999943
0.999917
0.999919
0.999824
0.99994
0.99997
0.99997
0.99997
0.99997
0.99997
0.999971
0.999971
0.99997
0.999966
0.999947
0.999873
0.943565
0.600825
0.433188
0.381983
0.367314
0.363122
0.362287
0.36186
0.457044
0.500326
0.517293
0.51647
0.517293
0.568714
0.955307
0.999971
0.999998
0.999988
0.99958
0.999265
0.999262
0.999347
0.999964
0.999942
0.99986
0.999689
0.999687
0.999689
0.999917
0.99997
0.99997
0.99997
0.99997
0.99997
0.99997
0.999971
0.99997
0.999968
0.999962
0.999926
0.999867
0.999605
0.999355
0.874703
0.646418
0.486415
0.365674
0.359479
0.359193
0.359229
0.517839
0.517293
0.536841
0.919186
0.999972
1
1
0.999999
0.999847
0.999662
0.999858
1
0.999982
0.999734
0.999689
0.999687
0.999689
0.999748
0.999886
0.999779
0.999968
0.99997
0.99997
0.99997
0.99997
0.999968
0.999962
0.999955
0.999925
0.999827
0.999741
0.999609
0.999474
0.999439
0.999625
0.99973
0.832537
0.543156
0.360249
0.359192
0.518385
0.520118
0.78465
0.999969
0.999999
1
1
0.999998
0.999998
1
1
1
0.999997
0.999981
0.999965
0.999967
0.999985
0.999979
0.999856
0.997059
0.995435
0.998544
0.999959
0.999965
0.999967
0.999934
0.999626
0.999558
0.999586
0.999638
0.999586
0.999472
0.999378
0.999623
0.99973
0.999798
0.999819
0.999838
0.832344
0.475907
0.791417
0.815288
0.984771
0.999999
1
1
1
1
1
1
1
1
1
1
1
1
1
0.999996
0.999974
0.999687
0.987856
0.978835
0.978864
0.996487
0.999885
0.999849
0.998072
0.994144
0.993717
0.993809
0.992687
0.994038
0.997977
0.999169
0.999803
0.99981
0.99983
0.999849
0.999852
0.999852
0.998734
0.999736
0.999891
0.999917
0.999953
1
1
1
1
1
1
0.999999
0.999999
0.999997
0.999995
0.999998
0.999995
0.999993
0.99999
0.999969
0.9999
0.99878
0.900794
0.791371
0.926432
0.984658
0.996808
0.926429
0.742613
0.59098
0.518116
0.547904
0.776837
0.942736
0.999055
0.999798
0.999811
0.999833
0.999851
0.999852
0.999639
0.99994
0.999999
0.999958
0.999944
1
1
1
1
1
1
1
0.999999
0.999992
0.999913
0.999788
0.999779
0.99999
0.999965
0.999913
0.999884
0.999651
0.992637
0.699642
0.455945
0.448699
0.616671
0.382246
0.132839
0.0630236
0.0633657
0.0632282
0.0875858
0.450181
0.931205
0.999737
0.999762
0.999736
0.999844
0.999851
0.999773
0.999999
1
1
0.999998
0.999999
1
1
1
1
1
1
1
0.999999
0.999988
0.999681
0.997318
0.995531
0.997714
0.999885
0.999659
0.99937
0.998543
0.982406
0.501658
0.0723683
0.0631017
0.0631338
0.0631587
0.0630154
0.0629692
0.063344
0.0646087
0.236417
0.828446
0.999292
0.99873
0.995963
0.999784
0.999841
0.999603
0.999894
1
1
1
1
1
1
1
1
1
1
1
1
0.999999
0.999992
0.999559
0.988054
0.981578
0.98367
0.999309
0.993475
0.982157
0.969652
0.889047
0.393856
0.0711309
0.0631597
0.0631619
0.0631685
0.0633694
0.061843
0.262846
0.776735
0.935814
0.975566
0.987644
0.95556
0.994174
0.999286
0.999591
0.999616
0.99999
1
1
1
1
1
1
1
1
1
1
0.999999
0.999998
0.999994
0.999979
0.999939
0.994617
0.895904
0.699775
0.545607
0.468135
0.676723
0.876268
0.776387
0.345026
0.0631781
0.0632339
0.0635741
0.0655507
0.321324
0.813953
0.998966
0.998957
0.996007
0.981596
0.948505
0.963421
0.997983
0.999709
0.999869
1
1
1
1
1
1
1
1
0.999999
0.999999
0.999999
0.999989
0.999932
0.999908
0.99989
0.999223
0.998353
0.795277
0.146425
0.0258454
0.0311778
0.442192
0.82213
0.804904
0.517387
0.063355
0.0636643
0.0700608
0.400947
0.869933
0.998966
0.998968
0.998966
0.998174
0.979018
0.948505
0.9485
0.996056
0.999998
1
1
1
1
1
1
1
1
0.999986
0.999969
0.999969
0.999985
0.999975
0.998088
0.987575
0.978864
0.997341
0.975957
0.451479
0.0244221
0.0245077
0.0258317
0.180076
0.68904
0.773678
0.428203
0.0667695
0.0687349
0.45727
0.925415
0.998912
0.998968
0.999017
0.998969
0.991253
0.954794
0.948505
0.948549
0.994633
1
1
1
1
1
1
1
1
0.999999
0.99997
0.998956
0.997137
0.993362
0.994315
0.967199
0.80403
0.73153
0.928666
0.868104
0.223198
0.0244135
0.024423
0.0248573
0.0866611
0.582284
0.741532
0.282974
0.0763309
0.416639
0.953715
0.998492
0.998853
0.99899
0.999105
0.999209
0.98782
0.949022
0.948578
0.94856
0.993982
0.999549
0.999549
0.999549
0.999774
1
0.999997
0.999984
0.999978
0.99999
0.999884
0.987645
0.870402
0.795678
0.797876
0.735408
0.702921
0.702906
0.807326
0.775149
0.176205
0.024423
0.0244094
0.0246608
0.11183
0.578042
0.688783
0.234208
0.282712
0.937005
0.998234
0.99831
0.994455
0.995368
0.998347
0.999621
0.992121
0.958415
0.948629
0.948551
0.99358
0.999977
0.999974
0.999971
0.999964
0.997633
0.993981
0.992977
0.990945
0.989402
0.981236
0.818164
0.708094
0.707255
0.704992
0.703097
0.702882
0.703097
0.74196
0.952755
0.519485
0.0244176
0.0246804
0.0249941
0.212146
0.570676
0.551011
0.308409
0.835539
0.998099
0.998227
0.995613
0.972179
0.974919
0.995765
0.999749
0.998639
0.996728
0.975508
0.948647
0.986184
0.993084
0.978724
0.974994
0.980477
0.986273
0.987147
0.958761
0.898827
0.885618
0.878488
0.732156
0.708627
0.801599
0.945837
0.916841
0.725754
0.7047
0.870989
0.999092
0.97213
0.372495
0.0249981
0.0252912
0.216821
0.398716
0.479275
0.805837
0.997762
0.998006
0.998063
0.989127
0.972179
0.972179
0.994462
0.999754
0.99976
0.999766
0.999368
0.953307
0.965611
0.92168
0.911437
0.918386
0.928263
0.866015
0.866016
0.866006
0.866118
0.866591
0.894431
0.992259
1
1
0.999999
0.999998
0.993987
0.958121
0.968174
0.999676
0.999092
0.914091
0.317738
0.0760553
0.0869518
0.248557
0.80977
0.997163
0.997415
0.993589
0.987344
0.980039
0.972179
0.977284
0.998211
0.99976
0.999765
0.99977
0.999676
0.989863
0.96414
0.982471
0.980813
0.993279
0.997496
0.951474
0.878856
0.925597
0.996669
0.998708
1
1
1
1
1
0.999999
0.999998
0.999998
0.999996
0.999971
0.999536
0.954704
0.392428
0.0817017
0.245913
0.740369
0.98926
0.996927
0.997038
0.988955
0.971102
0.966387
0.989285
0.998003
0.999728
0.999764
0.99977
0.999773
0.999435
0.999711
0.964623
0.999982
0.999997
0.999997
1
1
1
1
1
1
1
1
1
0.999947
0.999833
0.999846
0.999991
0.999996
0.999993
0.999946
0.999321
0.896937
0.390545
0.284598
0.84265
0.996928
0.996926
0.996923
0.996878
0.992519
0.974498
0.974955
0.999699
0.999743
0.999749
0.999764
0.999773
0.999773
0.999767
0.999745
0.994187
0.999998
0.999997
0.999997
0.999984
1
0.999999
0.999999
1
1
1
1
1
0.999796
0.998707
0.999054
0.999992
0.999993
0.999981
0.999746
0.947285
0.604908
0.464305
0.950159
0.996914
0.996926
0.996921
0.996891
0.99647
0.979506
0.941091
0.964789
0.999473
0.999741
0.999752
0.999676
0.99944
0.999759
0.999865
0.999759
0.99974
0.998492
0.996465
0.996558
0.999864
1
0.999998
0.999998
0.999999
1
1
1
0.999997
0.999195
0.998566
0.998654
0.999985
0.999982
0.99981
0.938537
0.478625
0.36434
0.494509
0.996874
0.996896
0.996914
0.9966
0.995235
0.956046
0.65145
0.412394
0.611366
0.96459
0.999779
0.99977
0.999317
0.999317
0.9994
0.99987
0.999301
0.99818
0.979293
0.97626
0.986449
0.998727
1
0.999997
0.999998
1
1
1
1
0.999984
0.999014
0.998566
0.998883
0.999938
0.999867
0.996363
0.664885
0.361897
0.360141
0.60312
0.996822
0.996874
0.996518
0.994008
0.979286
0.588003
0.180009
0.119464
0.158918
0.563933
0.997606
0.999803
0.999324
0.999315
0.999479
0.999876
0.999182
0.993352
0.976253
0.976254
0.985717
0.998356
0.999989
0.999998
0.999999
0.999999
1
1
1
0.999999
0.999414
0.998569
0.999098
0.999876
0.99973
0.92228
0.436194
0.360141
0.466408
0.971367
0.996617
0.996546
0.994119
0.98962
0.798083
0.175281
0.119137
0.119421
0.119159
0.196117
0.888938
0.999836
0.999331
0.999381
0.99988
0.99988
0.999237
0.993352
0.982272
0.99887
0.999998
0.999998
0.999988
0.999993
0.999999
0.999999
0.999999
0.999997
0.999994
0.999994
0.999368
0.998576
0.999635
0.999744
0.999594
0.751
0.376026
0.403844
0.932604
0.99618
0.996321
0.994937
0.992179
0.95878
0.392347
0.119586
0.119925
0.119545
0.119317
0.130082
0.773034
0.999857
0.999801
0.999873
0.999882
0.999882
0.999606
0.993352
1
1
0.999998
0.999998
0.999996
0.999994
0.999997
1
1
0.999999
0.999998
0.999989
0.999802
0.999738
0.999955
0.999949
0.918235
0.467623
0.376026
0.835072
0.995754
0.996069
0.995414
0.993456
0.992122
0.823442
0.151442
0.119832
0.119547
0.119593
0.11888
0.184803
0.751627
0.99988
0.999881
0.999882
0.999882
0.999881
0.999814
0.993367
1
1
0.999996
0.999996
0.999996
0.999999
1
1
1
1
1
1
1
0.999997
0.999993
0.999989
0.856589
0.283455
0.588014
0.962937
0.973017
0.987608
0.995941
0.996991
0.988391
0.586853
0.119918
0.119865
0.120269
0.118916
0.130574
0.566791
0.903462
0.999643
0.999881
0.999881
0.999881
0.999881
0.999876
0.993451
1
0.999998
0.999995
1
1
1
1
1
1
1
1
1
0.999997
0.998432
0.984316
0.864462
0.48253
0.0798577
0.270876
0.386281
0.486471
0.944901
0.997945
0.998032
0.973098
0.375909
0.119889
0.11995
0.122022
0.118654
0.407143
0.922592
0.9975
0.999212
0.999879
0.999881
0.999888
0.999881
0.999881
0.996916
1
0.999999
0.999996
0.998028
1
0.956953
0.770285
0.658404
0.55475
0.501283
0.478032
0.461499
0.446878
0.418959
0.358351
0.199276
0.0331013
0.00833318
0.0231837
0.00280472
0.0995719
0.794071
0.998215
0.998241
0.97393
0.317522
0.123382
0.120053
0.120085
0.171092
0.816374
0.999576
0.999771
0.999789
0.999873
0.999892
0.999885
0.999883
0.999881
0.999677
1
0.999991
0.962294
0.758597
0.301349
0.170766
0.0814544
0.0376482
0.0131928
0.00584636
0.00359742
0.00251438
0.00177616
0.00105645
0.00104686
0.0019878
0.0037089
0.00825168
0.00509529
0.00277556
0.0249417
0.654448
0.995232
0.998601
0.996255
0.433247
0.120579
0.120108
0.120182
0.394294
0.96616
0.999574
0.999832
0.999867
0.99987
0.999819
0.999586
0.99988
0.999877
0.998297
0.999966
0.739259
0.16917
0.00814068
0.000470713
0.000665452
0.000358902
0.000269496
0.000251555
0.000250607
0.000242603
0.000235282
0.000233554
0.000252614
0.000603623
0.00166906
0.00306136
0.00289205
0.00225688
0.00234997
0.0078529
0.636009
0.998277
0.999423
0.999721
0.671711
0.136722
0.120679
0.120723
0.483213
0.984423
0.998767
0.99938
0.999833
0.999867
0.999568
0.99954
0.999862
0.999798
0.9971
0.578275
0.000222501
0.000221985
0.000221771
0.000221456
0.000221221
0.000222859
0.000221866
0.000222418
0.000222695
0.000224437
0.000224591
0.000224648
0.000232022
0.000726517
0.00122626
0.00122446
0.00125892
0.00138358
0.00206938
0.200779
0.859918
0.998785
0.999803
0.999795
0.847505
0.202609
0.122502
0.121644
0.393624
0.906898
0.987742
0.99658
0.999553
0.999851
0.999554
0.99954
0.999823
0.999674
0.997099
0.0936876
0.000220604
0.000221412
0.000222099
0.00022164
0.000222127
0.000220601
0.000221616
0.000222023
0.000222642
0.000223176
0.000224582
0.000225214
0.000228108
0.000300973
0.000376757
0.000543627
0.00114359
0.004983
0.158354
0.752736
0.999506
0.999921
0.999973
0.999872
0.911046
0.265977
0.124829
0.12301
0.159498
0.504886
0.924086
0.994717
0.999347
0.999786
0.999689
0.99954
0.999612
0.999626
0.9971
0.0506659
0.000221608
0.000221941
0.000221687
0.000221432
0.000221826
0.000222236
0.000221896
0.000222294
0.000222131
0.000223299
0.000225147
0.000225576
0.000232483
0.000332269
0.000956497
0.0632858
0.18313
0.540396
0.995082
0.999966
0.999987
0.999989
0.999987
0.999973
0.913462
0.273447
0.127419
0.124904
0.127535
0.176808
0.749643
0.994871
0.999325
0.999724
0.999696
0.999596
0.999592
0.999637
0.997103
0.873888
0.181764
0.000221291
0.000221479
0.000221479
0.000221479
0.00022126
0.000222098
0.000222222
0.00259573
0.0145229
0.0454033
0.106504
0.217988
0.290557
0.425475
0.861716
0.999995
1.00002
0.999992
0.999991
0.99999
0.999989
0.999989
0.999987
0.777603
0.181361
0.129654
0.127538
0.12905
0.129923
0.643217
0.996111
0.999288
0.999694
0.999712
0.999713
0.9997
0.999706
0.997112
0.999963
0.977638
0.847774
0.692967
0.589013
0.563013
0.546686
0.565414
0.608156
0.681433
0.786276
0.920619
0.999916
0.999953
0.99998
0.99999
0.999992
0.999992
0.999992
0.999992
0.999991
0.999991
0.99999
0.999989
0.99997
0.453699
0.130988
0.128274
0.129955
0.129791
0.130712
0.639397
0.995358
0.99928
0.999688
0.999713
0.999713
0.999713
0.999713
0.997252
1
1
1
1
1
1
1
1
1
0.999996
0.999975
0.999937
0.99995
0.999974
0.999986
0.99999
0.999991
0.999992
0.999992
0.999991
0.999992
0.99999
0.999989
0.999989
0.794952
0.176424
0.13376
0.131293
0.130509
0.130282
0.195484
0.830513
0.996191
0.99927
0.999696
0.999709
0.999713
0.999713
0.999713
0.998426
0.999994
0.999995
0.999998
1
1
1
1
1
0.999843
0.998751
0.998387
0.998401
0.998477
0.99913
0.999686
0.999966
0.99999
0.999991
0.999991
0.999989
1
0.999985
0.999981
0.999883
0.656229
0.147649
0.130601
0.133173
0.132118
0.131418
0.403604
0.944889
0.996966
0.999291
0.999689
0.999715
0.999712
0.999713
0.999714
0.998738
0.999987
0.999987
0.999992
1
0.999999
0.999998
0.999996
0.999996
0.999898
0.999786
0.99859
0.99839
0.998381
0.998383
0.998543
0.999831
0.999982
0.999989
0.999985
0.999949
0.999901
0.999924
0.999888
0.998819
0.884752
0.367537
0.139519
0.134452
0.13307
0.20338
0.772649
0.992206
0.998219
0.999477
0.999688
0.999708
0.999662
0.999712
0.999715
0.998374
0.999998
0.999996
0.99999
0.999992
0.999949
0.99986
0.99982
0.999723
0.999804
0.999697
0.999468
0.99931
0.998488
0.998558
0.999638
0.999936
0.999967
0.999982
0.999973
0.989217
0.938629
0.943043
0.985335
0.995521
0.99062
0.86168
0.31446
0.144787
0.242162
0.75068
0.996913
0.998921
0.999587
0.999696
0.999728
0.999717
0.999615
0.999701
0.999638
0.998352
0.999997
0.999991
0.999957
0.999898
0.977037
0.928452
0.921117
0.947968
0.983987
0.996391
0.999287
0.999323
0.99924
0.999423
0.999611
0.999835
0.999954
0.999967
0.999899
0.901136
0.867117
0.867779
0.877094
0.956839
0.980327
0.946705
0.742653
0.756584
0.949053
0.999055
0.999495
0.999703
0.999727
0.99973
0.999735
0.999722
0.999613
0.999681
0.999682
0.998352
0.99994
0.999877
0.981469
0.947701
0.830965
0.831723
0.831513
0.831393
0.867239
0.975285
0.998258
0.999085
0.998775
0.995735
0.994291
0.998139
0.999854
0.99991
0.968688
0.860878
0.863546
0.868381
0.867072
0.868275
0.867678
0.925976
0.994512
0.997775
0.998997
0.999468
0.999672
0.999744
0.999733
0.999735
0.999735
0.999735
0.999609
0.999697
0.999702
0.998368
0.958831
0.93671
0.835862
0.83592
0.833945
0.832494
0.831773
0.831515
0.835947
0.947609
0.998764
0.999348
0.993095
0.985031
0.98512
0.987149
0.99732
0.998337
0.985459
0.905579
0.865425
0.867901
0.868199
0.867666
0.876379
0.969467
0.99516
0.996536
0.997748
0.996171
0.99508
0.997596
0.999717
0.99973
0.999735
0.999718
0.999581
0.999691
0.999713
0.998306
0.831168
0.832933
0.83398
0.835634
0.850119
0.870019
0.867125
0.899877
0.982075
0.999936
0.999844
0.9997
0.997205
0.98627
0.984819
0.984819
0.985187
0.994008
0.993297
0.991236
0.940338
0.870343
0.89404
0.97657
0.993258
0.994703
0.995361
0.995798
0.99425
0.986719
0.987121
0.991612
0.99933
0.999683
0.999722
0.999678
0.999581
0.999622
0.999722
0.998086
0.826023
0.846961
0.89971
0.960763
0.999956
0.999965
0.999964
0.999957
0.99992
0.999896
0.999883
0.999819
0.999695
0.999149
0.995273
0.98823
0.98528
0.991633
0.991213
0.989269
0.987019
0.984409
0.987245
0.989599
0.993861
0.994967
0.995311
0.995352
0.99448
0.985113
0.986569
0.991619
0.999199
0.999692
0.999725
0.999727
0.999584
0.999742
0.999727
0.998002
0.954907
0.999898
0.999951
0.999967
0.999965
0.999966
0.999964
0.999964
0.999957
0.99992
0.999857
0.999702
0.999511
0.998668
0.996998
0.994838
0.990905
0.989741
0.988721
0.987106
0.975776
0.951258
0.815917
0.851918
0.973138
0.993848
0.99497
0.995294
0.98234
0.984347
0.99579
0.999091
0.999647
0.999722
0.99975
0.999743
0.99974
0.999752
0.999722
0.997905
0.999903
0.999951
0.999964
0.999965
0.999966
0.999966
0.999966
0.999964
0.999933
0.99984
0.999637
0.999472
0.998846
0.997092
0.995022
0.980607
0.955761
0.839218
0.77244
0.813693
0.627858
0.625737
0.635938
0.69978
0.895289
0.906451
0.850436
0.917229
0.993978
0.998071
0.999241
0.999607
0.999706
0.999744
0.999745
0.999744
0.99975
0.999757
0.999169
0.997893
0.999838
0.999935
0.999955
0.999964