/*--------------------------------*- C++ -*----------------------------------*\
  =========                 |
  \\      /  F ield         | OpenFOAM: The Open Source CFD Toolbox
   \\    /   O peration     | Website:  https://openfoam.org
    \\  /    A nd           | Version:  8
     \\/     M anipulation  |
\*---------------------------------------------------------------------------*/
FoamFile
{
    version     2.0;
    format      ascii;
    class       volScalarField;
    location    "4.5";
    object      k;
}
// * * * * * * * * * * * * * * * * * * * * * * * * * * * * * * * * * * * * * //

dimensions      [0 2 -2 0 0 0 0];

internalField   nonuniform List<scalar> 
9150
(
0.00182765
0.000940857
0.000475508
0.000301388
0.000191966
0.000191871
0.000301284
0.000475342
0.0009406
0.00182769
0.00178492
0.000746717
0.000398791
0.000256676
0.000160535
0.000160461
0.000256577
0.000398655
0.0007465
0.00178493
0.00171344
0.000651423
0.000365798
0.000236588
0.000147933
0.000147872
0.000236501
0.000365682
0.000651237
0.00171343
0.00163486
0.000601417
0.000352669
0.000228528
0.00014313
0.000143077
0.000228451
0.000352566
0.000601258
0.00163485
0.0015514
0.000579923
0.000347886
0.000225692
0.000141621
0.000141572
0.000225621
0.00034779
0.000579779
0.00155138
0.0028468
0.0025497
0.001849
0.00161225
0.0013248
0.0013262
0.00161669
0.00185729
0.00256126
0.00284851
0.00230468
0.00150231
0.00127944
0.0012068
0.0009711
0.000971581
0.00120874
0.00128307
0.0015045
0.00230458
0.00204952
0.00125153
0.000887192
0.000805866
0.000623468
0.000623557
0.000806587
0.000888379
0.0012518
0.00204935
0.00186769
0.00110999
0.000649142
0.000529345
0.00038501
0.000384957
0.000529497
0.000649372
0.0011097
0.0018676
0.00178738
0.00102054
0.00052385
0.000371396
0.000252105
0.000252016
0.000371345
0.000523758
0.00102021
0.00178734
0.00872725
0.00455692
0.00256291
0.00189785
0.00153846
0.00153105
0.00189476
0.00276357
0.00621815
0.015501
0.00487816
0.00386741
0.00251242
0.00189058
0.00154348
0.00153953
0.00188971
0.00250572
0.00372759
0.0049665
0.00440034
0.00345132
0.00248431
0.0018855
0.00154937
0.00154925
0.00189274
0.00249224
0.00340567
0.00442202
0.00391581
0.00315239
0.00246696
0.00188211
0.0015556
0.0015579
0.00189084
0.00247756
0.00316084
0.00392457
0.00335746
0.00309234
0.00236373
0.00183731
0.00152782
0.00153063
0.00184509
0.0023751
0.00311347
0.00336098
0.000689375
0.000683462
0.000677419
0.000671226
0.000664865
0.000658322
0.000651585
0.000644643
0.00063749
0.000630105
0.00141313
0.00140642
0.00139929
0.00139169
0.00138357
0.00137489
0.00136563
0.00135574
0.0013452
0.001334
0.00187471
0.00186806
0.0018606
0.00185225
0.001843
0.0018328
0.00182163
0.00180946
0.00179629
0.00178212
0.00224068
0.00223429
0.00222677
0.00221806
0.00220813
0.00219695
0.0021845
0.00217078
0.00215579
0.00213954
0.0025691
0.0025629
0.00255532
0.00254631
0.00253583
0.00252387
0.00251041
0.00249546
0.00247903
0.00246113
0.00288404
0.00287798
0.00287034
0.00286107
0.00285014
0.00283753
0.00282325
0.0028073
0.00278972
0.00277052
0.00319955
0.00319372
0.00318614
0.00317676
0.00316556
0.00315252
0.00313768
0.00312107
0.0031027
0.0030826
0.00352663
0.00352134
0.00351416
0.00350503
0.00349392
0.00348085
0.00346589
0.00344912
0.00343058
0.00341028
0.00387607
0.00387197
0.00386587
0.00385769
0.00384742
0.0038351
0.00382084
0.00380482
0.00378713
0.00376775
0.00426023
0.0042585
0.00425467
0.00424867
0.00424046
0.00423008
0.00421777
0.00420388
0.00418865
0.00417199
0.00469422
0.00469665
0.00469688
0.00469492
0.00469077
0.00468433
0.0046759
0.00466626
0.00465595
0.00464479
0.00519691
0.00520606
0.00521268
0.00521721
0.0052201
0.00522091
0.00521964
0.00521756
0.00521582
0.00521433
0.00579145
0.00581094
0.00582715
0.00584135
0.00585515
0.00586828
0.00588001
0.00589123
0.00590357
0.00591772
0.00650202
0.00653733
0.00656937
0.00659966
0.00663034
0.00666188
0.00669401
0.00672715
0.00676225
0.00680015
0.00735835
0.00741851
0.00747702
0.0075341
0.00759136
0.00764936
0.0077088
0.00777056
0.00783603
0.00790629
0.00840307
0.00849693
0.00859055
0.00868327
0.00877549
0.0088673
0.00895988
0.00905568
0.00915778
0.00926846
0.00966926
0.00980374
0.00993735
0.0100693
0.0102001
0.01033
0.0104602
0.0105957
0.0107425
0.0109055
0.0111673
0.011346
0.0115209
0.0116918
0.0118616
0.0120329
0.0122077
0.0123929
0.012599
0.0128342
0.012873
0.013096
0.0133131
0.0135245
0.0137355
0.0139526
0.0141808
0.0144255
0.0147007
0.0150211
0.0147367
0.0149999
0.0152558
0.0155057
0.0157542
0.0160111
0.0162893
0.0165937
0.0169376
0.0173443
0.0166898
0.0169823
0.0172608
0.0175306
0.0177971
0.0180731
0.0183801
0.0187331
0.0191437
0.019638
0.0186445
0.0189432
0.0192144
0.0194756
0.0197359
0.0200088
0.0203246
0.0207053
0.0211654
0.0217215
0.0204772
0.0207608
0.0210049
0.0212475
0.0215028
0.0217765
0.022089
0.0224665
0.0229304
0.023495
0.0220336
0.022323
0.0225793
0.0228346
0.023098
0.0233747
0.0236803
0.0240385
0.0244745
0.0249898
0.0232753
0.0236149
0.0239389
0.0242454
0.0245393
0.0248353
0.0251505
0.0255059
0.025924
0.0264148
0.0243143
0.0247194
0.0251187
0.0254792
0.0258087
0.0261428
0.0265058
0.0269143
0.0273861
0.0279372
0.0252293
0.0256735
0.026108
0.0265209
0.0269204
0.0273351
0.0277843
0.0282806
0.0288349
0.0294551
0.0260957
0.0265577
0.0270321
0.0275174
0.0280082
0.0285215
0.0290701
0.0296629
0.0303067
0.0310061
0.0269641
0.0274726
0.0280089
0.0285683
0.0291479
0.0297569
0.030403
0.0310925
0.0318306
0.0326207
0.0279179
0.0284837
0.0290838
0.0297137
0.0303742
0.0310709
0.031809
0.0325934
0.0334276
0.0343144
0.0289808
0.0296044
0.0302662
0.030964
0.0317002
0.0324793
0.033305
0.0341809
0.0351096
0.0360926
0.0301212
0.0308078
0.0315356
0.0323046
0.0331173
0.0339772
0.0348875
0.0358506
0.0368684
0.0379417
0.0312913
0.0320494
0.0328509
0.0336962
0.0345877
0.0355281
0.03652
0.0375654
0.0386656
0.0398214
0.032451
0.0332824
0.0341595
0.0350826
0.0360532
0.037073
0.0381438
0.0392673
0.0404446
0.0416769
0.0335571
0.034461
0.0354125
0.0364118
0.0374594
0.0385563
0.0397035
0.0409024
0.0421542
0.0434608
0.0345727
0.0355466
0.0365701
0.0376432
0.0387658
0.0399384
0.0411616
0.0424366
0.043765
0.045149
0.035474
0.0365145
0.0376075
0.0387528
0.0399502
0.0412001
0.0425031
0.0438603
0.0452735
0.0467455
0.0362515
0.037356
0.038517
0.0397347
0.0410093
0.0423414
0.0437322
0.0451834
0.0466973
0.0482768
0.0369103
0.0380782
0.0393085
0.0406017
0.0419587
0.0433811
0.044871
0.0464311
0.0480649
0.0497767
0.0374688
0.0387029
0.0400071
0.0413829
0.0428319
0.0443566
0.0459599
0.0476454
0.0494169
0.0512783
0.0379543
0.0392605
0.0406465
0.0421145
0.0436674
0.0453085
0.0470414
0.0488705
0.0507999
0.0528339
0.0384012
0.0397879
0.0412658
0.0428381
0.0445085
0.0462814
0.0481613
0.050153
0.052261
0.0544892
0.038849
0.0403272
0.0419094
0.0435998
0.045403
0.0473241
0.0493684
0.0515411
0.0538463
0.056287
0.0393406
0.0409242
0.0426256
0.0444499
0.0464024
0.0484888
0.0507148
0.0530853
0.0556041
0.0582721
0.0399199
0.041626
0.0434647
0.0454415
0.047562
0.049832
0.0522564
0.0548394
0.0575838
0.0604897
0.040628
0.0424778
0.0444756
0.0466264
0.0489362
0.0514123
0.0540509
0.0568546
0.0598241
0.062957
0.0414977
0.0435176
0.0457006
0.0480471
0.0505609
0.0532451
0.0561002
0.0591263
0.06232
0.0656715
0.0425427
0.0447545
0.0471412
0.0497012
0.0524335
0.0553379
0.0584151
0.0616617
0.0650692
0.0686307
0.0437445
0.0461775
0.048796
0.0515912
0.0545569
0.0576906
0.0609904
0.0644479
0.0680614
0.0718245
0.0450752
0.0477599
0.0506373
0.0536865
0.0568944
0.0602592
0.0637728
0.0674384
0.0712571
0.0752238
0.0464796
0.0494425
0.0526013
0.0559107
0.0593527
0.0629324
0.0666558
0.0705339
0.0745741
0.0787735
0.0478695
0.051124
0.0545666
0.0581066
0.0617464
0.0655191
0.0694474
0.0735542
0.0778583
0.0823654
0.0491313
0.0526493
0.0563069
0.0600006
0.0637909
0.0677275
0.071847
0.0761935
0.0808128
0.0857438
0.0499988
0.0536471
0.0573932
0.061178
0.0650711
0.0691198
0.0733852
0.0779395
0.0828707
0.0882797
0.0502076
0.0538594
0.0575852
0.0613312
0.0651727
0.0691761
0.0734221
0.0780062
0.0830591
0.0887459
0.0498222
0.0532733
0.0567855
0.0603014
0.0638596
0.0675452
0.0714642
0.0757241
0.0804281
0.0856671
0.0488834
0.052134
0.0553379
0.0584462
0.0615092
0.0646338
0.0679441
0.0715645
0.0755929
0.0800732
0.0477186
0.0508149
0.0537908
0.056451
0.0589531
0.0614805
0.0641647
0.0671272
0.070451
0.0741591
0.0465755
0.0495177
0.052379
0.0547465
0.0568169
0.0588946
0.061108
0.0635676
0.0663471
0.0694859
0.0456748
0.0485255
0.051382
0.0537902
0.0557005
0.0575616
0.0595323
0.0617311
0.0642469
0.0671193
0.045362
0.0483374
0.0515398
0.0544205
0.0564621
0.0583303
0.0602782
0.0624767
0.0650145
0.067937
0.0463071
0.0498158
0.0539397
0.0579606
0.0604006
0.0623975
0.0644814
0.0668771
0.0697113
0.0730526
0.0491493
0.0536308
0.0591163
0.064876
0.068303
0.0705131
0.0729433
0.0758264
0.0793471
0.0835572
0.054094
0.0599597
0.0670589
0.0746411
0.0797242
0.0824509
0.0853375
0.0892963
0.0942682
0.0999728
0.0615682
0.0694348
0.0787578
0.0874482
0.0926827
0.0963318
0.101213
0.107572
0.114726
0.122004
0.0712028
0.0813297
0.0917971
0.0994633
0.105645
0.112882
0.121529
0.130627
0.139216
0.14656
0.081752
0.0925393
0.102164
0.111921
0.122696
0.134246
0.145855
0.15594
0.163763
0.169129
0.0903534
0.1018
0.114574
0.128926
0.143947
0.158409
0.17083
0.179632
0.18488
0.187282
0.0978616
0.112563
0.129588
0.148203
0.166639
0.182515
0.193782
0.200036
0.202274
0.20134
0.105433
0.124003
0.145326
0.168046
0.189184
0.204821
0.21409
0.21783
0.216482
0.211234
0.112741
0.134818
0.160104
0.186927
0.210126
0.22524
0.233782
0.23492
0.228409
0.217515
0.119347
0.14426
0.173069
0.203828
0.229782
0.248085
0.258362
0.254432
0.238909
0.221143
0.125882
0.153127
0.185056
0.220483
0.253555
0.279467
0.291321
0.274776
0.247104
0.222999
0.133257
0.162907
0.198452
0.24046
0.283463
0.314377
0.317253
0.286144
0.250959
0.223148
0.141059
0.173325
0.212661
0.260224
0.309359
0.339686
0.328114
0.287447
0.249832
0.221164
0.148602
0.183318
0.226429
0.279655
0.331748
0.353856
0.326943
0.281832
0.244613
0.217097
0.156424
0.193531
0.240223
0.296805
0.345363
0.351834
0.314437
0.270366
0.235636
0.211116
0.16548
0.204755
0.253824
0.309999
0.350282
0.33752
0.294227
0.254261
0.223864
0.204059
0.176717
0.217367
0.266405
0.317626
0.340165
0.313071
0.271019
0.235694
0.210882
0.197341
0.189653
0.230026
0.275584
0.319395
0.321016
0.283201
0.245282
0.216109
0.19839
0.19267
0.205108
0.244347
0.283855
0.306397
0.287725
0.251357
0.219204
0.1974
0.188227
0.19188
0.224718
0.263161
0.290273
0.284171
0.253447
0.220211
0.194637
0.181363
0.182179
0.196786
0.249404
0.281968
0.282001
0.253218
0.219382
0.190485
0.172552
0.169249
0.181634
0.208934
0.279245
0.284788
0.255594
0.218932
0.185909
0.162534
0.153738
0.161975
0.187477
0.229248
0.293406
0.264106
0.223437
0.184852
0.154121
0.137505
0.139225
0.160068
0.19967
0.257365
0.280491
0.236733
0.192437
0.153101
0.125158
0.116599
0.129624
0.163129
0.216758
0.290963
0.259856
0.211887
0.16526
0.124516
0.100036
0.10053
0.124482
0.169445
0.235782
0.325684
0.250784
0.194786
0.143331
0.100086
0.0795563
0.0889422
0.122145
0.176358
0.252963
0.355897
0.245391
0.182818
0.125693
0.0791695
0.0630537
0.0802634
0.120403
0.181238
0.265054
0.377025
0.245766
0.17475
0.1103
0.0604753
0.0493785
0.0727223
0.117356
0.182234
0.270218
0.386771
0.249076
0.167672
0.0951625
0.0436471
0.0378053
0.0650232
0.111771
0.178383
0.268155
0.386634
0.256258
0.160873
0.0798611
0.0293377
0.0279576
0.0564321
0.103035
0.16919
0.258506
0.376356
0.264094
0.152579
0.0642809
0.0182414
0.019611
0.0467624
0.0911584
0.154734
0.241409
0.356626
0.269444
0.141235
0.0494521
0.0107989
0.0127547
0.0363473
0.0767437
0.135663
0.217211
0.327338
0.268818
0.125259
0.0362198
0.00649764
0.0075501
0.0259449
0.0609288
0.113386
0.187013
0.287956
0.256672
0.104379
0.0251697
0.00427795
0.00414874
0.0165328
0.0450836
0.0899965
0.153364
0.240245
0.23013
0.0803658
0.016358
0.00311095
0.00238708
0.00907597
0.0303656
0.0674132
0.120119
0.191138
0.185877
0.0541321
0.00968389
0.00244539
0.00172684
0.00425599
0.0176183
0.0466328
0.0900938
0.146048
0.127318
0.0311449
0.0055824
0.00210447
0.00156398
0.00207521
0.00789443
0.0275623
0.0636104
0.108403
0.0646179
0.0163992
0.00355118
0.0019531
0.00153849
0.00156287
0.00278987
0.0108594
0.0366937
0.0782155
0.000621871
0.000613265
0.000604423
0.000595381
0.000586169
0.000576807
0.000567311
0.000557683
0.000547921
0.000538022
0.000527969
0.000517735
0.000507289
0.000496606
0.000485671
0.000474481
0.000463049
0.000451478
0.000442908
0.000443605
0.000444005
0.000444162
0.000444093
0.000443148
0.000443603
0.000443748
0.00044262
0.000442625
0.000441839
0.000441716
0.000441705
0.00044189
0.000440929
0.000432504
0.000409812
0.000374516
0.000328564
0.000273318
0.000210258
0.000114428
0.00132138
0.00130751
0.00129291
0.00127762
0.00126168
0.00124511
0.00122794
0.00121018
0.00119181
0.00117286
0.00115331
0.00113311
0.00111223
0.00109065
0.00106837
0.00104541
0.00102176
0.000997282
0.000971536
0.000944889
0.000919047
0.000892547
0.000867096
0.000841386
0.000815218
0.000788837
0.000762059
0.000735449
0.00070914
0.000682781
0.000656304
0.000629623
0.000601676
0.000570662
0.000534413
0.000490945
0.000438875
0.00037592
0.000294644
0.000174047
0.00176601
0.00174798
0.00172883
0.0017086
0.00168736
0.00166514
0.00164197
0.00161789
0.00159292
0.00156706
0.00154032
0.00151268
0.00148414
0.00145469
0.00142436
0.00139316
0.0013611
0.00132821
0.00129447
0.00126
0.00122507
0.00118975
0.0011541
0.00111803
0.0010815
0.00104442
0.00100672
0.000968397
0.000929469
0.000889785
0.000849174
0.00080743
0.000764256
0.0007192
0.000671276
0.000618998
0.000560159
0.000490635
0.000400254
0.000258637
0.00212096
0.00209993
0.00207747
0.00205362
0.00202843
0.00200196
0.00197424
0.00194531
0.00191518
0.00188389
0.00185142
0.00181778
0.00178298
0.00174704
0.00170997
0.00167184
0.0016327
0.00159263
0.00155171
0.00151006
0.00146783
0.00142511
0.00138198
0.00133844
0.00129445
0.00124991
0.00120466
0.00115857
0.00111146
0.00106312
0.00101339
0.000962185
0.000909451
0.000855051
0.000798561
0.00073892
0.000673586
0.000596794
0.000496985
0.000342974
0.0024406
0.00241719
0.00239207
0.00236528
0.00233688
0.0023069
0.00227536
0.0022423
0.00220773
0.00217167
0.00213409
0.00209501
0.00205443
0.00201237
0.00196887
0.00192401
0.00187789
0.00183064
0.00178243
0.00173346
0.00168392
0.00163399
0.00158381
0.00153348
0.00148294
0.00143203
0.00138046
0.00132788
0.00127391
0.00121819
0.00116055
0.00110096
0.00103954
0.000976371
0.000911415
0.00084396
0.000771418
0.000687225
0.00057846
0.00041856
0.00274843
0.00272309
0.00269583
0.00266664
0.00263557
0.0026026
0.00256774
0.00253105
0.00249251
0.00245207
0.00240972
0.00236542
0.00231917
0.00227097
0.00222088
0.00216899
0.00211544
0.00206044
0.00200426
0.0019472
0.00188959
0.00183176
0.00177405
0.00171667
0.00165963
0.00160258
0.00154503
0.00148625
0.00142553
0.00136233
0.00129642
0.00122787
0.00115689
0.00108385
0.00100896
0.000931655
0.000849867
0.00076022
0.000643746
0.000472373
0.0030594
0.00303271
0.00300389
0.00297294
0.00293984
0.00290457
0.00286709
0.00282737
0.00278533
0.00274092
0.00269405
0.00264465
0.00259268
0.00253813
0.00248105
0.00242154
0.00235981
0.00229611
0.00223086
0.00216445
0.00209736
0.00203022
0.00196368
0.00189828
0.00183414
0.0017708
0.0017071
0.00164158
0.0015731
0.00150119
0.00142579
0.00134685
0.00126461
0.00118028
0.00109411
0.00100542
0.000912548
0.000812094
0.000683457
0.000494088
0.00338686
0.00335976
0.00333035
0.00329857
0.00326438
0.00322769
0.00318843
0.00314646
0.00310166
0.00305388
0.00300296
0.00294878
0.00289123
0.00283027
0.00276593
0.00269836
0.00262781
0.00255451
0.00247868
0.00240097
0.00232228
0.0022437
0.00216639
0.00209133
0.00201892
0.00194836
0.00187744
0.00180342
0.00172466
0.00164129
0.00155418
0.00146385
0.00137043
0.00127432
0.00117594
0.00107442
0.000968149
0.000851553
0.000707982
0.000512378
0.00374532
0.0037192
0.00369061
0.00365946
0.00362564
0.00358902
0.0035494
0.00350657
0.0034603
0.00341035
0.00335647
0.00329845
0.0032361
0.00316933
0.00309816
0.00302277
0.00294285
0.00285847
0.00277024
0.00267914
0.00258651
0.00249405
0.00240354
0.00231665
0.00223447
0.00215604
0.00207728
0.00199282
0.00190031
0.00180176
0.00170027
0.00159714
0.00149165
0.00138256
0.00126937
0.00115142
0.00102789
0.000891137
0.000728304
0.000531656
0.00415255
0.00412956
0.00410405
0.00407588
0.00404487
0.00401078
0.00397328
0.00393206
0.00388677
0.00383706
0.0037826
0.00372306
0.00365818
0.0035878
0.00351195
0.00342969
0.00334054
0.00324471
0.00314298
0.00303668
0.00292776
0.00281885
0.00271266
0.00261149
0.00251743
0.00243007
0.00234232
0.00224357
0.00213177
0.00201315
0.00189308
0.00177403
0.0016546
0.00153206
0.00140245
0.00126544
0.00112378
0.000971216
0.000797794
0.000596182
0.00463144
0.00461503
0.00459626
0.00457493
0.00455074
0.00452328
0.00449213
0.00445684
0.004417
0.00437221
0.00432206
0.00426616
0.0042042
0.00413601
0.00406045
0.0039756
0.00388058
0.00377533
0.00366082
0.00353893
0.00341252
0.00328562
0.0031623
0.00304551
0.00293714
0.00283492
0.00272749
0.00260152
0.00246311
0.00232004
0.0021754
0.00203066
0.00188697
0.00174487
0.00159738
0.00144136
0.0012798
0.00110933
0.000922827
0.000711402
0.0052119
0.0052076
0.00520145
0.00519305
0.00518199
0.0051678
0.00514996
0.00512799
0.00510154
0.00507031
0.00503397
0.00499222
0.00494481
0.00489155
0.0048286
0.00475336
0.00466355
0.00455814
0.00443831
0.00430726
0.00416931
0.00403052
0.0038934
0.00376054
0.00362945
0.00348965
0.00332976
0.00315307
0.00297095
0.00278445
0.00259365
0.00239827
0.00220444
0.00201925
0.00183837
0.0016565
0.00147124
0.0012809
0.00107307
0.000834089
0.00593335
0.00594926
0.00596405
0.00597729
0.00598876
0.00599811
0.00600474
0.00600823
0.00600855
0.00600585
0.00600031
0.00599213
0.00598162
0.00596695
0.00594245
0.00590296
0.00584374
0.00576181
0.00565711
0.00553203
0.00539098
0.00523968
0.00508234
0.00491775
0.00473904
0.0045365
0.00430494
0.00405118
0.00378261
0.00350485
0.00322251
0.00294139
0.00266828
0.00240771
0.00216068
0.00192384
0.00169472
0.00146568
0.00121769
0.000942327
0.00684264
0.00688913
0.00693595
0.0069829
0.00703054
0.00707893
0.00712721
0.00717499
0.00722293
0.00727227
0.00732452
0.00738122
0.00744347
0.00750647
0.00756126
0.00759737
0.00760515
0.00757842
0.00751466
0.00741109
0.00727008
0.00710224
0.00691272
0.00669957
0.00645417
0.00616807
0.00583847
0.00546869
0.00506486
0.00464051
0.00420872
0.00378322
0.00337478
0.00299028
0.00263263
0.00229945
0.001985
0.0016809
0.00137425
0.00105398
0.00798534
0.00807481
0.00816813
0.00826582
0.00837003
0.00848062
0.00859583
0.00871471
0.0088389
0.00897201
0.00911864
0.00928305
0.00946742
0.00966305
0.00985214
0.0100122
0.0101224
0.0101683
0.0101453
0.0100599
0.00992491
0.00974762
0.009532
0.00927385
0.00896107
0.00858039
0.00812379
0.00759212
0.0069968
0.00635784
0.0057011
0.00505238
0.00443267
0.00385591
0.00332825
0.00284812
0.00240839
0.00199823
0.00160415
0.00122342
0.00939478
0.00954294
0.00970341
0.00987738
0.0100686
0.0102743
0.0104892
0.0107106
0.010942
0.0111917
0.0114703
0.0117871
0.0121454
0.012531
0.0129079
0.0132308
0.0134638
0.0135908
0.0136159
0.0135549
0.0134266
0.0132478
0.0130255
0.0127444
0.0123794
0.0119068
0.0113097
0.0105825
0.00973649
0.00880478
0.00783439
0.00687084
0.00595211
0.00510322
0.00433467
0.00364472
0.00302229
0.00244995
0.00190529
0.00138521
0.0110954
0.0113249
0.0115823
0.0118676
0.0121845
0.0125243
0.0128739
0.0132256
0.0135849
0.0139701
0.0144022
0.014898
0.0154626
0.0160764
0.0166693
0.0171598
0.0175028
0.0177005
0.0177822
0.0177796
0.0177119
0.0175923
0.0174231
0.0171563
0.0167561
0.0161959
0.0154528
0.0145094
0.0133642
0.0120665
0.0106969
0.00932887
0.00802485
0.00682468
0.00574318
0.00477654
0.00390609
0.00309681
0.00227776
0.00140874
0.0131126
0.0134485
0.0138305
0.0142602
0.01474
0.0152535
0.0157719
0.0162694
0.016753
0.0172626
0.017838
0.0185002
0.019259
0.0200893
0.0208675
0.0214606
0.0218485
0.0220932
0.0222644
0.022402
0.0225078
0.0225629
0.0225216
0.0223201
0.021927
0.0213144
0.0204482
0.0193014
0.0178499
0.0161475
0.0143216
0.0124811
0.0107256
0.0091128
0.00765746
0.00635225
0.00517007
0.00405474
0.00288274
0.00139631
0.0154077
0.0158749
0.0164038
0.0170006
0.0176689
0.0183877
0.0191066
0.0197403
0.020291
0.0208576
0.0215148
0.0222802
0.0231688
0.0241373
0.0249878
0.0255553
0.0259354
0.0262524
0.0265695
0.0268825
0.0271592
0.0274046
0.0275796
0.0275866
0.0273642
0.0268312
0.0259423
0.0246986
0.0230853
0.0210587
0.0187806
0.0164306
0.0141923
0.0121346
0.0102528
0.00854114
0.00697735
0.00548823
0.00389263
0.00169334
0.01785
0.0184762
0.0191816
0.0199567
0.0207981
0.0216687
0.0225154
0.0232009
0.0237319
0.024299
0.0250016
0.0258271
0.0267678
0.0277742
0.0285825
0.0290881
0.0294831
0.0298796
0.0302983
0.0307161
0.0311188
0.0315245
0.0318788
0.0320875
0.0320463
0.0316841
0.0310235
0.0300805
0.0287851
0.0269202
0.0243727
0.0215682
0.0189105
0.016399
0.0139834
0.0117081
0.00961352
0.00762962
0.00550335
0.00249926
0.0202555
0.0210242
0.0218721
0.0227348
0.0236003
0.0244392
0.0252616
0.0259428
0.0264649
0.0270768
0.0278411
0.0287268
0.0296934
0.0306366
0.031393
0.0319563
0.0324424
0.0329102
0.0333746
0.0338402
0.0343113
0.0347741
0.0351581
0.0353827
0.0354122
0.0352685
0.0349856
0.0345366
0.0338902
0.033019
0.0315833
0.0291938
0.0262362
0.0232066
0.0198925
0.0166155
0.0136037
0.0108084
0.00789916
0.003668
0.0223985
0.0232057
0.024052
0.0248528
0.0256131
0.0264006
0.0271356
0.0278109
0.0284757
0.0292134
0.0300408
0.0309329
0.0318664
0.0327711
0.033569
0.0342407
0.0348255
0.0353637
0.0358719
0.0363541
0.0368093
0.037223
0.0375569
0.0377685
0.037845
0.0378152
0.0377304
0.0376381
0.0376106
0.0377853
0.0382272
0.0383224
0.0368924
0.0335624
0.0290612
0.0242715
0.0196945
0.0154677
0.0113259
0.00524853
0.0241602
0.0248916
0.0256106
0.0263708
0.0271801
0.027972
0.0287434
0.0295153
0.0303039
0.0311359
0.0320142
0.0329234
0.0338404
0.0347267
0.0355418
0.036268
0.0369151
0.0375001
0.038032
0.0385133
0.0389406
0.0393035
0.0395831
0.0397621
0.0398393
0.0398407
0.0398189
0.039849
0.0400284
0.0404599
0.0411935
0.0420382
0.0422981
0.0410507
0.0384028
0.034314
0.028336
0.0217402
0.015521
0.00728786
0.0255729
0.026248
0.0270115
0.0278604
0.0287195
0.0295682
0.0304243
0.0312906
0.0321699
0.0330678
0.0339825
0.0349031
0.0358127
0.036694
0.0375243
0.0382906
0.0389913
0.0396304
0.0402104
0.0407304
0.0411855
0.0415661
0.0418603
0.0420576
0.0421568
0.0421742
0.0421447
0.0421192
0.0421562
0.0423023
0.0425463
0.0427592
0.0426891
0.0420945
0.0408749
0.0385204
0.0342117
0.0276081
0.0186009
0.00795946
0.0270102
0.0277506
0.0285857
0.0294749
0.0303738
0.031285
0.0322095
0.0331447
0.0340891
0.0350418
0.0359989
0.0369527
0.037893
0.0388132
0.0397
0.0405446
0.0413429
0.042093
0.0427926
0.043437
0.0440182
0.0445245
0.0449415
0.0452561
0.0454626
0.0455701
0.0455989
0.0455733
0.0455168
0.0454512
0.0453789
0.0452395
0.0448769
0.0440743
0.0426193
0.0401911
0.0364903
0.0311238
0.0225345
0.00769921
0.0286027
0.0293939
0.0302484
0.0311573
0.032099
0.0330648
0.0340497
0.0350511
0.036067
0.0370945
0.0381296
0.039167
0.0402006
0.0412266
0.0422368
0.0432252
0.0441877
0.0451206
0.0460188
0.0468748
0.0476768
0.0484081
0.0490476
0.0495738
0.049983
0.0502951
0.0505325
0.0506992
0.0507804
0.0507743
0.0506972
0.050524
0.0501223
0.0492655
0.0477065
0.0451915
0.0414857
0.0361437
0.0276938
0.0100563
0.030172
0.031013
0.031922
0.0328834
0.0338842
0.0349179
0.0359814
0.0370725
0.0381885
0.0393265
0.0404831
0.0416544
0.042837
0.044023
0.0452081
0.046389
0.0475628
0.0487264
0.049875
0.051
0.0520863
0.0531104
0.0540359
0.0548283
0.055499
0.0561087
0.0567089
0.0572848
0.0577628
0.0581053
0.0583077
0.0583049
0.0578851
0.0567122
0.0544953
0.0510854
0.0464625
0.040416
0.0318271
0.0132484
0.0317942
0.0327044
0.0336827
0.0347174
0.0358008
0.036928
0.0380959
0.0393022
0.0405444
0.04182
0.0431258
0.0444589
0.0458161
0.047184
0.0485622
0.0499507
0.0513498
0.0527596
0.0541782
0.055599
0.0570073
0.0583756
0.0596487
0.0607368
0.0616975
0.062683
0.0637775
0.0649538
0.0661063
0.0671819
0.0680772
0.0685446
0.0681211
0.0662077
0.0626112
0.0575499
0.0512325
0.0435895
0.0340903
0.0164183
0.0335005
0.0345036
0.0355737
0.0367052
0.0378928
0.0391329
0.0404227
0.0417599
0.0431422
0.0445672
0.0460327
0.0475368
0.0490646
0.0506133
0.0521857
0.0537863
0.0554211
0.0570963
0.0588156
0.0605735
0.0623499
0.0641068
0.0657913
0.0673173
0.0686093
0.0700428
0.0718868
0.0740064
0.0761016
0.0779166
0.0798096
0.0816151
0.0814608
0.0776374
0.0716405
0.0647174
0.0569155
0.0477917
0.0366741
0.0194562
0.035296
0.0364068
0.0375857
0.0388292
0.0401338
0.0414967
0.0429155
0.0443881
0.0459127
0.0474878
0.0491125
0.0507774
0.0524736
0.0542079
0.0559905
0.0578363
0.0597646
0.0617962
0.063947
0.0662117
0.06854
0.0708259
0.0729386
0.0748298
0.0766103
0.0784775
0.0809729
0.0846757
0.0877094
0.0904726
0.0944229
0.0975889
0.095517
0.0879996
0.0794752
0.0711345
0.0623859
0.0523925
0.0398308
0.0218932
0.0371772
0.0383982
0.0396891
0.0410467
0.0424686
0.0439526
0.0454967
0.0470998
0.0487614
0.050482
0.0522571
0.0540769
0.0559511
0.0578952
0.0599339
0.062103
0.0644508
0.0670328
0.0698998
0.0730634
0.0764197
0.0796518
0.0822816
0.0841828
0.0857928
0.0877264
0.0904759
0.0943243
0.0993214
0.105927
0.112207
0.111207
0.102853
0.0934139
0.0844387
0.0756313
0.0664398
0.0560482
0.0427352
0.0235851
0.0391231
0.0404476
0.0418431
0.0433073
0.0448379
0.0464336
0.0480935
0.0498178
0.0516085
0.0534655
0.0553801
0.0573645
0.0594372
0.0616266
0.0639789
0.0665644
0.0694814
0.0728546
0.0768264
0.0815104
0.0868431
0.0920735
0.0949755
0.0957816
0.0964738
0.0982665
0.10181
0.107281
0.115085
0.124035
0.124352
0.115356
0.105317
0.0959702
0.087065
0.0781624
0.0687936
0.0582246
0.0446614
0.0245498
0.041091
0.0425092
0.0439995
0.0455603
0.0471904
0.0488891
0.050657
0.0524964
0.0544108
0.0563923
0.0584548
0.0606179
0.0629091
0.065371
0.0680749
0.0711365
0.0747231
0.0790683
0.0845026
0.0914468
0.100209
0.109275
0.110636
0.107869
0.106713
0.108127
0.112388
0.119701
0.129025
0.130739
0.122699
0.113402
0.104597
0.0961479
0.0877138
0.0790032
0.069672
0.0590873
0.045527
0.024946
0.0430282
0.0445336
0.0461132
0.0477664
0.0494931
0.0512943
0.0531722
0.055131
0.0571638
0.0592824
0.0615063
0.0638616
0.0663826
0.0691197
0.0721658
0.0756793
0.0798885
0.0851178
0.0918934
0.100928
0.11247
0.117488
0.120305
0.117183
0.114319
0.114721
0.118162
0.12432
0.127995
0.123332
0.116585
0.10955
0.102391
0.0949636
0.0871365
0.0787666
0.0696041
0.0590923
0.0456215
0.0249852
0.0448926
0.0464857
0.0481571
0.0499078
0.0517391
0.0536535
0.0556552
0.0577406
0.0599139
0.0621886
0.0645876
0.0671408
0.0698818
0.0728569
0.0761623
0.0799709
0.0845224
0.0901399
0.0973288
0.10661
0.116754
0.119152
0.12267
0.121669
0.118606
0.118039
0.119721
0.121986
0.120652
0.116624
0.111785
0.106342
0.100282
0.0935931
0.0862481
0.0781735
0.0691732
0.0587322
0.0453326
0.0248606
0.0466668
0.048356
0.0501311
0.0519942
0.0539476
0.055995
0.0581391
0.0603774
0.0627158
0.0651651
0.067747
0.0704872
0.0734126
0.0765561
0.0799915
0.083871
0.0884221
0.0939414
0.100839
0.109596
0.11871
0.121154
0.12526
0.124715
0.121783
0.120552
0.120557
0.119727
0.117106
0.113641
0.109496
0.104641
0.0990553
0.0927219
0.085622
0.0776996
0.0687721
0.05834
0.04495
0.0247097
0.0483623
0.0501644
0.0520633
0.054061
0.056161
0.0583673
0.0606769
0.0630932
0.0656164
0.0682502
0.0710074
0.0738999
0.0769451
0.080168
0.0836089
0.0873649
0.0916058
0.096553
0.102488
0.109831
0.118857
0.123516
0.126982
0.126563
0.124638
0.123302
0.121958
0.11966
0.116633
0.113097
0.108989
0.104228
0.098741
0.092483
0.0854321
0.0775271
0.0685755
0.0580792
0.0446228
0.0246199
0.0500159
0.0519564
0.0540024
0.05616
0.0584327
0.0608225
0.0633244
0.0659367
0.0686543
0.0714696
0.0743811
0.07739
0.0805
0.0837196
0.087069
0.0905933
0.0943713
0.0985298
0.103229
0.108645
0.114872
0.121283
0.125227
0.127338
0.126979
0.125473
0.123156
0.12036
0.117191
0.113575
0.109412
0.104605
0.0990681
0.0927546
0.0856487
0.0776841
0.0686536
0.0580504
0.0444838
0.02466
0.0516685
0.0537768
0.0559991
0.0583458
0.0608195
0.0634151
0.0661271
0.0689464
0.0718588
0.0748452
0.0778897
0.0809819
0.0841127
0.087281
0.0905029
0.0938014
0.0972047
0.100763
0.104577
0.108776
0.113456
0.118585
0.123898
0.12757
0.127215
0.125105
0.12286
0.120428
0.117568
0.114171
0.110133
0.105352
0.0997737
0.0933904
0.0862103
0.078171
0.0690562
0.0583375
0.044618
0.0248872
0.0533433
0.0556543
0.0580916
0.0606605
0.0633601
0.0661816
0.0691135
0.0721394
0.0752385
0.0783808
0.0815393
0.084695
0.0878318
0.0909427
0.0940329
0.0971131
0.1002
0.103329
0.106569
0.110035
0.113859
0.118149
0.122557
0.124616
0.124161
0.123013
0.121554
0.119745
0.11748
0.114623
0.110962
0.106346
0.100783
0.0943539
0.0871116
0.0790117
0.0698319
0.0590086
0.0450968
0.0253408
0.0550991
0.0576385
0.0603185
0.0631353
0.066083
0.0691463
0.0723052
0.0755353
0.0788085
0.0820895
0.0853447
0.0885466
0.0916745
0.0947176
0.0976759
0.100558
0.103385
0.106189
0.109022
0.111958
0.11508
0.1184
0.121113
0.122069
0.121949
0.121281
0.120271
0.119011
0.117452
0.115342
0.112232
0.107835
0.102255
0.0957283
0.0883949
0.0802343
0.0710051
0.0600891
0.0459563
0.0260409
0.0569782
0.0597696
0.0627126
0.0657974
0.0690085
0.0723236
0.0757145
0.0791483
0.0825884
0.085996
0.0893342
0.0925708
0.0956831
0.0986601
0.101503
0.104228
0.106864
0.109451
0.112031
0.11464
0.11728
0.119706
0.121161
0.121564
0.121295
0.12064
0.119834
0.119037
0.118231
0.117031
0.114523
0.11019
0.104387
0.0975974
0.0900869
0.0818424
0.0725746
0.0615841
0.0472127
0.0269949
0.0590182
0.0620789
0.065299
0.0686625
0.0721448
0.0757166
0.0793422
0.0829801
0.0865855
0.0901143
0.093527
0.0967949
0.0999007
0.10284
0.105622
0.108269
0.110819
0.113316
0.115816
0.11835
0.120811
0.122513
0.122983
0.122729
0.122068
0.121231
0.120494
0.120106
0.12018
0.120221
0.118272
0.113518
0.107123
0.099881
0.0921207
0.083788
0.0745115
0.0634859
0.0488828
0.0281986
0.0612585
0.0645962
0.0680958
0.0717361
0.0754867
0.079309
0.0831564
0.086979
0.0907271
0.0943572
0.0978354
0.10114
0.104264
0.107211
0.109999
0.112655
0.115214
0.117724
0.120234
0.122761
0.12489
0.125732
0.125447
0.124633
0.123547
0.122452
0.12171