/*--------------------------------*- C++ -*----------------------------------*\
  =========                 |
  \\      /  F ield         | OpenFOAM: The Open Source CFD Toolbox
   \\    /   O peration     | Website:  https://openfoam.org
    \\  /    A nd           | Version:  8
     \\/     M anipulation  |
\*---------------------------------------------------------------------------*/
FoamFile
{
    version     2.0;
    format      ascii;
    class       volScalarField;
    location    "4.5";
    object      p_rgh;
}
// * * * * * * * * * * * * * * * * * * * * * * * * * * * * * * * * * * * * * //

dimensions      [1 -1 -2 0 0 0 0];

internalField   nonuniform List<scalar> 
9150
(
2561.63
2534.64
2509.12
2491.92
2483.61
2483.6
2491.88
2509.06
2534.57
2561.57
2552.38
2532.84
2517.18
2505.37
2499.39
2499.38
2505.34
2517.13
2532.79
2552.33
2542.73
2529.17
2520.62
2512.87
2508.75
2508.74
2512.84
2520.58
2529.13
2542.68
2537.63
2527.63
2522.15
2516.79
2513.82
2513.81
2516.77
2522.12
2527.6
2537.59
2535.96
2527.07
2522.47
2518.3
2515.85
2515.84
2518.28
2522.44
2527.04
2535.92
2097.36
2093.19
2118.23
2132.44
2138.96
2138.77
2131.9
2117.41
2092.03
2095.78
2286.72
2262.6
2257.19
2255.96
2256.03
2255.92
2255.66
2256.73
2262.01
2286.12
2410.71
2379.36
2363.43
2353.56
2348.88
2348.82
2353.39
2363.18
2379.07
2410.44
2510.85
2468.69
2440.87
2423.54
2415.04
2415
2423.44
2440.73
2468.53
2510.73
2581
2528.39
2489.79
2467.76
2457.62
2457.59
2467.69
2489.7
2528.3
2580.94
1923.85
1950.26
1939.15
1946.11
1943.2
1941.64
1946.36
1937.27
1946.48
1905.78
1948.12
1960.75
1942.15
1946.5
1943.48
1942.24
1946.32
1936.58
1955.64
1935.69
1922
1950.94
1920.14
1924.98
1928
1927.57
1924.09
1915.42
1946.45
1913.93
1761.82
1884.68
1902.67
1920.12
1935.69
1935.36
1918.52
1899.26
1882.13
1755.11
1636.4
1872.7
1969.11
1998.99
2014.32
2014.03
1997.96
1967.51
1870.84
1631.64
1839.57
1839.62
1839.68
1839.73
1839.79
1839.85
1839.91
1839.96
1840.02
1840.07
1839.65
1839.71
1839.77
1839.83
1839.89
1839.95
1840.01
1840.06
1840.12
1840.17
1839.73
1839.79
1839.85
1839.91
1839.98
1840.04
1840.1
1840.16
1840.21
1840.27
1839.78
1839.84
1839.91
1839.98
1840.04
1840.11
1840.17
1840.23
1840.29
1840.35
1839.8
1839.87
1839.94
1840.01
1840.08
1840.15
1840.22
1840.29
1840.35
1840.41
1839.79
1839.87
1839.94
1840.02
1840.1
1840.17
1840.25
1840.32
1840.39
1840.46
1839.76
1839.84
1839.92
1840.01
1840.09
1840.18
1840.26
1840.34
1840.42
1840.5
1839.7
1839.79
1839.88
1839.97
1840.06
1840.15
1840.25
1840.34
1840.43
1840.52
1839.61
1839.71
1839.8
1839.9
1840
1840.11
1840.21
1840.31
1840.41
1840.51
1839.5
1839.6
1839.7
1839.81
1839.92
1840.03
1840.14
1840.25
1840.37
1840.49
1839.35
1839.45
1839.56
1839.67
1839.79
1839.91
1840.04
1840.16
1840.28
1840.42
1839.17
1839.28
1839.38
1839.48
1839.6
1839.77
1839.95
1839.86
1839.15
1839.29
1838.94
1839.06
1839.21
1838.43
1837.96
1838.54
1839.64
1838.93
1838.79
1838.97
1834.88
1835.39
1838.83
1838.62
1837.41
1837.61
1837.79
1838
1839.63
1840.01
1831.28
1835.71
1839.08
1839.09
1837.32
1837.33
1837.68
1839.51
1839.67
1839.82
1833.87
1838.76
1838.79
1838.84
1838.49
1838.25
1838.92
1839.22
1839.32
1839.43
1838.44
1838.45
1838.46
1838.48
1838.49
1838.57
1838.69
1836.41
1830.3
1830.69
1838.21
1838.14
1838.15
1837.03
1829.73
1828.74
1829
1829.16
1829.35
1830.17
1837.01
1828.54
1827.16
1827.33
1827.44
1827.44
1835.39
1836.02
1836.01
1836.33
1826.24
1826.28
1826.22
1829.29
1833.28
1833.33
1833.55
1829.48
1820.08
1820.49
1826.95
1832.67
1832.44
1832.17
1825.78
1798.4
1799.5
1801.62
1830.86
1831.09
1832.42
1832.26
1831.55
1805.42
1796.25
1796.7
1796.51
1816.72
1830.4
1830.24
1828.74
1799.63
1795.98
1796.15
1796.61
1812.84
1809.09
1829.73
1829.3
1824.71
1744.86
1779
1833.56
1829.1
1831.54
1834.27
1833.31
1830.17
1753.21
1619.49
1768.37
1833.97
1834.22
1834.58
1835.18
1837.59
1836.93
1827.36
1677.6
1614.19
1833.37
1834.13
1823.93
1815.66
1837.51
1838.12
1838.59
1838.34
1802.99
1652.08
1832.98
1765.68
1740.05
1808.2
1836.63
1837.01
1837.37
1837.64
1837.01
1796.62
1724.02
1725.53
1726.05
1810.38
1837.26
1836.87
1836.64
1836.45
1835.23
1834.58
1720.4
1720.38
1723.72
1826.53
1837.02
1836.23
1835.6
1835.04
1834.43
1833.85
1716.59
1716.04
1750.43
1837.62
1836.35
1835.3
1834.39
1833.57
1832.75
1831.84
1712.87
1712.13
1806.67
1836.74
1835.32
1834.11
1833.04
1831.96
1830.94
1830.08
1712.47
1779
1836.23
1834.87
1833.62
1832.5
1831.46
1830.46
1829.36
1828.47
1814
1830.88
1833.51
1832.6
1831.65
1830.71
1829.81
1828.93
1828.06
1827.15
1833.23
1832.42
1831.61
1830.78
1829.95
1829.13
1828.32
1827.53
1826.77
1826.03
1831.4
1830.68
1829.94
1829.2
1828.47
1827.74
1827.04
1826.34
1825.67
1825.03
1829.84
1829.17
1828.51
1827.85
1827.21
1826.59
1825.99
1825.4
1824.82
1824.1
1828.53
1827.93
1827.34
1826.78
1826.23
1825.71
1825.21
1824.72
1824.23
1823.73
1827.5
1826.98
1826.48
1826
1825.55
1825.13
1824.74
1824.36
1823.99
1823.52
1826.78
1826.34
1825.93
1825.56
1825.23
1824.95
1824.71
1824.54
1824.4
1818.71
1826.37
1826
1825.66
1825.36
1825.1
1824.88
1824.7
1824.56
1824.43
1821.42
1826.3
1826
1825.73
1825.49
1825.3
1825.14
1825.02
1824.95
1824.86
1824.78
1826.6
1826.35
1826.13
1825.95
1825.81
1825.7
1825.61
1825.56
1825.53
1825.53
1827.29
1827.08
1826.91
1826.76
1826.65
1826.56
1826.5
1826.45
1826.4
1826.35
1828.38
1828.2
1828.06
1827.95
1827.87
1827.8
1827.75
1827.7
1827.66
1822.54
1829.87
1829.73
1829.61
1829.52
1829.44
1829.38
1829.32
1826.25
1816.24
1808.52
1831.65
1831.18
1831.34
1831.43
1831.2
1828.56
1817.24
1809.83
1809.68
1809.44
1833.56
1833.09
1833.02
1833.4
1833.76
1824.17
1812
1811.81
1811.56
1829.34
1836.23
1835.72
1835.67
1836.24
1836.4
1833.54
1824.08
1829.47
1835.48
1835
1839.47
1839.09
1839.33
1839.61
1839.54
1839.24
1839.14
1838.73
1838.16
1837.43
1842.69
1842.82
1843
1843.15
1843.09
1842.99
1842.71
1842.18
1841.43
1840.46
1845.75
1846.11
1846.65
1843.08
1846.36
1847.24
1846.9
1846.26
1845.31
1844.03
1848.48
1814.52
1785.68
1845
1852.04
1852.1
1851.8
1851.11
1849.89
1848.26
1757.55
1535.77
1707.17
1848.64
1857.74
1858.09
1858.04
1857.56
1856.51
1834.47
1534.8
1528.99
1739.63
1819.78
1861.71
1863.26
1864.4
1865.04
1865.53
1668.55
1524.76
1564.31
1809.31
1826.44
1867.86
1869.96
1872.15
1874.51
1878.19
1570.53
1521.34
1722.15
1834.78
1837.55
1871.09
1874.17
1877.67
1881.74
1887.02
1894.68
1518.09
1780.74
1829.75
1855.96
1872.71
1875.63
1878.99
1882.74
1886.88
1891.55
1665.17
1719.82
1633.85
1859.86
1872.53
1875.71
1879.26
1883.06
1887.05
1891.1
1859.8
1609.45
1225.5
1841.59
1870.74
1874.86
1879.12
1883.36
1887.64
1891.91
1866.94
1477.71
1062.07
1760.05
1870.06
1875.02
1879.85
1884.52
1889.08
1893.54
1863.61
1507.07
1035.35
1567.5
1874.14
1878.69
1883.15
1887.7
1892.31
1896.87
1864.04
1642.61
1003.12
1222.84
1813.45
1884.27
1888.91
1893.03
1897.37
1901.86
1871.73
1642.63
977.58
943.375
1324.27
1827.9
1891.26
1898.23
1902.61
1907.3
1869.15
1412.99
926.062
929.091
932.68
1332.94
1876.7
1903.93
1907.88
1904.98
1645.96
916.254
917.348
919.783
1006.92
1603.82
1868.09
1846.3
1796.4
1740.18
916.664
898.577
899.315
1134.55
1759.5
1765.65
1724.11
1676.26
1685.9
1693.89
890.615
927.286
1559.25
1741.6
1750.03
1647.24
1656.61
1666.29
1675.88
1734.19
1067.73
1587.36
1651.59
1679.23
1638.98
1629.47
1639.19
1694.48
1839.9
1902.47
1607.4
1626.53
1623.08
1648.36
1658.07
1607.75
1716.31
1860.36
1874.59
1885.76
1790.79
1728.9
1684.56
1594.67
1474.28
1689.19
1793.81
1827.89
1849.1
1858.58
1773.16
1757.61
1614.3
1191.7
1415.04
1632.06
1658.62
1696.9
1747.63
1824.34
1759.19
1740.27
1196.39
809.114
1206.2
982.411
763.986
1037.12
1645.09
1809.2
1763.24
1745.57
1045.88
625.797
485.014
400.292
410.227
610.474
1517.53
1798.59
1778.66
1760.16
985.511
389.074
390.761
392.971
395.152
507.525
1440.05
1787.54
1795.79
1760.45
848.442
388.806
386.468
386.425
388.339
569.568
1556.13
1780.85
1814.19
1747.4
792.263
387.46
384.111
382.957
384.207
956.237
1727.93
1780.39
1835.38
1679.81
664.497
391.047
387.373
384.027
384.868
1401.56
1782.18
1783.25
1859.81
1644.55
637.392
402.723
394.324
391.66
859.282
1708.01
1793.32
1788.12
1811.9
1578.12
688.071
427.439
404.931
433.244
1448.46
1805.27
1803.79
1794.69
1711.32
1642.08
1054.82
474.718
428.324
1285.94
1821.98
1822.7
1814.36
1802.67
1713.03
1675.79
1272.6
561.11
949.504
1753.12
1846.64
1839.83
1826.76
1812.14
1687.89
1271.06
931.663
1018.13
1701.67
1884.76
1874.35
1858.58
1840.19
1821.58
1391.94
875.528
905.586
1722.98
1932.38
1913.61
1893.25
1871.24
1848.53
1826.32
808.679
834.128
1508.06
1958.56
1942
1921.98
1899.16
1874.5
1849.15
1824.02
704.653
1458.79
1963.26
1951.68
1937.27
1918.44
1895.6
1870.38
1844.28
1818.74
1205.03
1958.67
1950.84
1940.24
1926.15
1907.5
1884.8
1859.47
1833.23
1807.69
1774.73
1939.19
1933.49
1923.47
1910.2
1892.37
1870.3
1845.44
1819.51
1792.64
1744.54
1924.49
1919.43
1909.18
1895.89
1878.42
1857.14
1833.44
1808.49
1780.37
1737.08
1921.54
1911.68
1899.69
1885.27
1867.83
1847.53
1825.35
1801.37
1772.25
1769.78
1914.22
1904.19
1891.95
1877.47
1860.92
1842.27
1822.1
1799.8
1773.64
1788.67
1909.5
1899.29
1886.86
1872.88
1857.82
1841.32
1823.73
1804.35
1665.5
1771.11
1906.53
1895.53
1883.09
1870.36
1857.43
1843.54
1828.88
1812.96
1509.3
1704.82
1896.63
1888.82
1878.68
1868.62
1858.74
1847.95
1836.54
1824.47
1460.2
1605.21
1887.8
1882.66
1875.35
1868.36
1861.82
1854.17
1845.9
1837.46
1444.44
1487.13
1877.97
1877.39
1874.12
1870.55
1867.35
1862.57
1856.96
1850.88
1455.29
1384.28
1873.21
1877.91
1878.2
1877
1876.18
1873.45
1869.75
1865.78
1522.53
1364.41
1882.82
1887.32
1888.67
1887.85
1887.68
1885.56
1882.95
1879.32
1587.29
1516.63
1900.11
1901.55
1903.07
1901.76
1901.24
1898.78
1897.39
1891.91
1660.42
1687.34
1922.38
1917.7
1919
1916.9
1916.12
1915.82
1918.39
1915.47
1741.81
1823.3
1944.77
1932.18
1934.11
1931.3
1930.34
1933.6
1938.28
1949.45
1825.45
1840.13
1840.19
1840.24
1840.29
1840.34
1840.38
1840.41
1840.45
1840.47
1840.49
1840.51
1840.52
1840.53
1840.53
1840.53
1840.52
1840.51
1840.49
1840.47
1840.44
1840.41
1840.38
1840.36
1840.32
1840.29
1840.25
1840.21
1840.18
1840.15
1840.12
1840.09
1840.06
1840.03
1840.01
1839.99
1839.98
1839.97
1839.97
1839.96
1839.95
1840.23
1840.28
1840.34
1840.38
1840.43
1840.47
1840.5
1840.53
1840.55
1840.57
1840.58
1840.58
1840.59
1840.58
1840.58
1840.56
1840.55
1840.53
1840.51
1840.48
1840.45
1840.42
1840.38
1840.35
1840.32
1840.29
1840.25
1840.21
1840.17
1840.14
1840.11
1840.08
1840.05
1840.03
1840.01
1839.99
1839.97
1839.96
1839.95
1839.95
1840.32
1840.38
1840.43
1840.48
1840.52
1840.56
1840.59
1840.61
1840.63
1840.64
1840.65
1840.65
1840.65
1840.64
1840.63
1840.61
1840.59
1840.57
1840.54
1840.51
1840.47
1840.44
1840.4
1840.36
1840.33
1840.29
1840.25
1840.2
1840.16
1840.12
1840.1
1840.06
1840.03
1840
1839.97
1839.95
1839.93
1839.92
1839.92
1839.93
1840.41
1840.47
1840.52
1840.57
1840.61
1840.65
1840.68
1840.7
1840.72
1840.73
1840.73
1840.73
1840.73
1840.71
1840.7
1840.67
1840.65
1840.62
1840.58
1840.55
1840.51
1840.47
1840.43
1840.38
1840.34
1840.3
1840.25
1840.19
1840.15
1840.11
1840.08
1840.04
1840
1839.96
1839.92
1839.89
1839.87
1839.87
1839.88
1839.9
1840.48
1840.54
1840.6
1840.65
1840.69
1840.73
1840.77
1840.79
1840.81
1840.82
1840.83
1840.82
1840.81
1840.8
1840.77
1840.75
1840.71
1840.68
1840.64
1840.59
1840.54
1840.5
1840.45
1840.41
1840.36
1840.32
1840.24
1840.19
1840.15
1840.12
1840.07
1840.02
1839.97
1839.91
1839.86
1839.8
1839.76
1839.79
1839.83
1839.83
1840.53
1840.6
1840.67
1840.72
1840.78
1840.82
1840.86
1840.89
1840.91
1840.92
1840.93
1840.93
1840.92
1840.9
1840.87
1840.84
1840.8
1840.75
1840.7
1840.64
1840.59
1840.54
1840.49
1840.44
1840.38
1840.3
1840.25
1840.21
1840.19
1840.13
1840.08
1840.02
1839.95
1839.89
1839.82
1839.49
1838.27
1838.98
1839.44
1838.86
1840.58
1840.66
1840.73
1840.8
1840.86
1840.91
1840.96
1841
1841.02
1841.04
1841.05
1841.05
1841.04
1841.02
1840.98
1840.94
1840.9
1840.83
1840.77
1840.7
1840.65
1840.59
1840.53
1840.47
1840.38
1840.32
1840.29
1840.27
1840.22
1840.17
1840.12
1840.06
1840
1839.9
1838.51
1837.47
1837.49
1837.4
1837.36
1837.45
1840.61
1840.7
1840.79
1840.87
1840.94
1841.01
1841.07
1841.11
1841.15
1841.17
1841.19
1841.19
1841.18
1841.16
1841.12
1841.06
1841
1840.94
1840.87
1840.81
1840.73
1840.65
1840.57
1840.47
1840.39
1840.36
1840.34
1840.31
1840.27
1840.23
1840.19
1840.17
1840.14
1838.65
1837.32
1837.32
1837.28
1837.3
1837.27
1837.23
1840.62
1840.73
1840.83
1840.93
1841.02
1841.11
1841.18
1841.24
1841.29
1841.32
1841.35
1841.35
1841.35
1841.31
1841.26
1841.22
1841.15
1841.1
1841.02
1840.92
1840.82
1840.7
1840.58
1840.48
1840.42
1840.36
1840.34
1840.32
1840.3
1840.29
1840.26
1840.25
1840.22
1839.1
1838.25
1839.08
1839.01
1838.11
1838.7
1839.41
1840.61
1840.74
1840.86
1840.98
1841.09
1841.19
1841.29
1841.37
1841.44
1841.49
1841.52
1841.52
1841.52
1841.5
1841.47
1841.44
1841.37
1841.28
1841.18
1841.05
1840.91
1840.78
1840.65
1840.49
1840.24
1839.8
1839.64
1840.18
1840.42
1840.3
1840.13
1840.31
1840.41
1840.14
1839.17
1839.24
1840.22
1840.3
1840.27
1840.22
1840.52
1840.65
1840.86
1841.02
1841.15
1841.28
1841.4
1841.5
1841.59
1841.65
1841.7
1841.73
1841.76
1841.77
1841.74
1841.69
1841.62
1841.52
1841.38
1841.25
1841.12
1840.91
1840.48
1838.67
1832.52
1832.39
1838.99
1840.79
1840.51
1837.87
1836.96
1839.39
1840.72
1839.64
1835.65
1835.51
1836.08
1838.95
1839.31
1839.56
1840.24
1840.68
1840.86
1841.03
1841.19
1841.35
1841.49
1841.63
1841.74
1841.84
1841.91
1841.99
1842.03
1842.05
1842.04
1842
1841.93
1841.79
1841.65
1841.36
1839.92
1833.54
1831.19
1831.22
1831.31
1831.26
1838.26
1841.56
1837.75
1836.54
1836.47
1838.22
1841.14
1839.41
1835.28
1835.23
1835.12
1835.07
1834.98
1837.37
1840.35
1840.61
1840.81
1841.01
1841.2
1841.38
1841.56
1841.73
1841.87
1841.99
1842.11
1842.23
1842.3
1842.35
1842.36
1842.34
1842.28
1842.12
1839.81
1831.59
1831.13
1831.02
1831.03
1830.88
1833.06
1839.51
1840.77
1840.45
1837.19
1836.77
1840.54
1840.93
1840.91
1840.89
1840.21
1836.54
1834.81
1834.81
1834.89
1838.55
1840.24
1840.47
1840.7
1840.92
1841.14
1841.36
1841.58
1841.77
1841.93
1842.09
1842.28
1842.43
1842.55
1842.64
1842.71
1842.73
1842.7
1841.64
1832.43
1831.19
1830.84
1836.59
1842.61
1842.36
1842.11
1841.75
1840.13
1839.93
1840.46
1840.91
1840.8
1840.73
1840.69
1840.7
1840.75
1840.8
1840.43
1839.73
1840.52
1840.46
1839.98
1840.2
1840.5
1840.57
1840.48
1840.75
1841.11
1841.74
1841.94
1842.09
1842.26
1842.44
1842.66
1842.82
1842.92
1842.94
1842.88
1842.01
1840.62
1840.56
1842.31
1842.21
1842.08
1841.91
1841.7
1841.45
1841.17
1840.88
1840.68
1840.51
1840.4
1840.35
1840.28
1840.27
1840.41
1840.57
1840.7
1840.74
1840.75
1840.74
1837.75
1835.35
1837.75
1840.51
1840.73
1840.64
1841
1841.57
1841.79
1841.93
1842.12
1842.39
1842.62
1842.85
1843.04
1843.12
1843.05
1842.85
1842.59
1842.24
1841.89
1841.67
1841.46
1841.34
1841.18
1840.95
1840.67
1840.38
1840.1
1839.9
1839.8
1839.75
1839.7
1839.87
1840.06
1840.23
1840.53
1840.69
1840.71
1840.64
1831.12
1832.58
1839.98
1840.16
1840.41
1840.69
1840.98
1841.24
1841.39
1841.55
1841.7
1841.89
1842.17
1842.55
1842.98
1843.21
1843.15
1842.82
1842.32
1841.41
1838.38
1834.92
1836.12
1838.33
1840.36
1840.39
1840.02
1839.63
1839.23
1838.93
1838.86
1838.97
1839.13
1839.44
1839.82
1840.21
1840.59
1840.84
1840.89
1840.76
1838.86
1839.07
1839.6
1839.53
1839.63
1839.98
1840.45
1839.75
1839.39
1839.32
1840.85
1840.84
1840.53
1840.97
1842.54
1843.47
1843.54
1842.69
1835.43
1816.59
1796.19
1791.21
1789.85
1796.88
1808.93
1820.96
1832.1
1837.32
1838.17
1837.44
1837.38
1837.77
1838.44
1839.13
1839.85
1840.52
1840.99
1841.29
1841.38
1841.2
1837.95
1838.41
1836.28
1824.31
1824.54
1824.45
1826.02
1839.73
1839.53
1838.75
1839.4
1834.25
1787.99
1760.41
1816.74
1843.98
1844.74
1837.69
1790.31
1788.75
1787.9
1794.28
1784.73
1783.69
1783.11
1782.13
1791.41
1817.62
1813.09
1811.83
1834.64
1835.95
1837.3
1838.75
1839.96
1840.9
1841.62
1842.1
1842.23
1842.01
1820.56
1820.5
1827.77
1834.38
1834.22
1833.62
1833.05
1839.6
1839.35
1754.31
1718.81
1719.47
1721.13
1722.24
1747.03
1845.75
1845.49
1842.34
1803.13
1790.09
1835.24
1849.43
1847.84
1801.8
1782.67
1799.25
1824.27
1809.81
1774.27
1758.95
1755.22
1801.26
1832.97
1838.6
1840.34
1841.5
1842.41
1843.09
1843.33
1843.19
1830.88
1823.16
1826.87
1833.89
1813.87
1708.73
1706.27
1706.08
1819.03
1842.75
1726.51
1715.6
1715.9
1717.74
1808.91
1843.8
1843.84
1844.46
1844.78
1844.81
1845.19
1845.77
1845.97
1845.46
1844.47
1843.85
1843.63
1842.88
1841.23
1761.49
1644.25
1623.92
1715.14
1796.35
1833.98
1842.07
1843.48
1844.2
1844.75
1845.03
1829.97
1826.37
1709.05
1644.96
1652.55
1658.7
1765.42
1842.11
1842.77
1844.32
1842.93
1842.76
1843.6
1839.74
1834.53
1833.91
1838.68
1842.03
1842.1
1842.26
1842.55
1842.9
1843.16
1843.3
1843.44
1843.79
1844.39
1845.39
1846.77
1827.07
1659.98
1610.66
1609.22
1606.28
1658.85
1705.58
1757.29
1791.4
1818.58
1817.41
1689.54
1626.52
1631.44
1634.98
1649.18
1810.28
1841.02
1840.76
1840.91
1841.01
1840.87
1840.48
1840.18
1840.05
1839.53
1839
1838.69
1838.49
1838.47
1838.53
1838.69
1838.97
1839.33
1839.8
1840.45
1841.39
1842.7
1844.57
1847.47
1851.62
1831.37
1684.6
1613.64
1591.97
1584.34
1581.28
1577.87
1574.33
1613.72
1633.73
1619.86
1620.48
1621.92
1645.25
1822.8
1841.58
1840.34
1839.53
1838.75
1838.07
1837.54
1837.04
1836.79
1836.2
1835.55
1834.9
1834.42
1834.03
1833.84
1833.67
1833.59
1833.64
1833.84
1834.25
1834.93
1835.98
1837.5
1839.58
1842.48
1846.47
1851.64
1857.51
1862.46
1806.31
1703.09
1630.74
1576.73
1572.15
1570.02
1569.52
1614.58
1614.6
1623.56
1806.08
1842.55
1840.49
1838.9
1837.62
1836.47
1835.43
1834.62
1833.85
1833.02
1832.08
1831.26
1830.49
1829.77
1829.13
1828.58
1827.97
1827.59
1827.22
1826.96
1826.9
1827.17
1827.86
1829.02
1830.71
1833.11
1836.44
1840.94
1846.51
1852.94
1860.04
1867.37
1873.05
1793.2
1654.9
1569.02
1568.42
1610.67
1610.91
1737.08
1842.25
1840.02
1838.1
1836.47
1835.03
1833.74
1832.55
1831.42
1830.35
1829.3
1828.26
1827.24
1826.25
1825.28
1824.31
1823.28
1820.98
1819.23
1819.65
1819.37
1818.45
1817.93
1817.94
1818.26
1819.12
1820.6
1822.99
1826.61
1831.86
1838.88
1847.57
1856.95
1865.97
1873.81
1879.09
1793.95
1619.66
1734.4
1746.4
1830.26
1837.26
1836.03
1834.68
1833.32
1831.99
1830.69
1829.43
1828.2
1827.01
1825.83
1824.66
1823.49
1822.32
1821.14
1819.92
1818.63
1817.14
1809.75
1804.05
1801.57
1807.73
1807.97
1807.4
1806.28
1803.65
1801.94
1800.53
1800.3
1805.27
1815.72
1827.04
1839.23
1851.17
1862.15
1870.28
1872.08
1867.19
1835.46
1835.56
1834.77
1833.84
1832.78
1831.61
1830.36
1829.09
1827.82
1826.56
1825.31
1824.07
1822.84
1821.61
1820.36
1819.1
1817.79
1816.42
1814.94
1813.31
1811.49
1808.81
1754.61
1697.54
1758.65
1789.66
1796.89
1754.08
1648.12
1562.01
1522.91
1540.55
1670.45
1772.71
1817.08
1831.53
1844.62
1855.77
1861.6
1859.41
1833.25
1832.73
1831.98
1831.03
1829.98
1828.9
1827.73
1826.54
1825.33
1824.12
1822.9
1821.7
1820.48
1819.26
1817.97
1816.63
1815.29
1814
1812.48
1810.77
1808.84
1806.5
1799.73
1633.82
1501.15
1487.32
1578.44
1445.59
1307.07
1270.31
1271.59
1273.49
1291
1493.58
1768.42
1818.08
1828.38
1838.15
1845.47
1847.46
1831.19
1830.5
1829.62
1828.67
1827.67
1826.62
1825.54
1824.44
1823.32
1822.2
1821.07
1819.94
1818.8
1817.65
1816.48
1815.12
1812.58
1810.35
1810.26
1810.37
1809.17
1808.19
1806.99
1795.06
1512.15
1272.69
1265.01
1263.29
1263.65
1264.79
1266.12
1267.83
1270.43
1368.39
1709.65
1813.67
1818.55
1822.49
1830
1834.16
1829.23
1828.51
1827.67
1826.74
1825.79
1824.82
1823.83
1822.83
1821.83
1820.81
1819.79
1818.77
1817.74
1816.69
1815.62
1814.54
1813.22
1805.48
1801.12
1801.18
1809.53
1805.68
1802.04
1797.97
1747.74
1452.93
1264.24
1258.82
1259.07
1260.28
1261.74
1261.03
1379.13
1681.3
1773.32
1797.85
1807.95
1792.37
1817.23
1824.35
1827.59
1826.72
1826.07
1825.21
1824.34
1823.46
1822.59
1821.7
1820.82
1819.92
1819.02
1818.1
1817.17
1816.18
1815.11
1813.97
1812.75
1811.4
1806.57
1744.24
1620.75
1521.39
1485.18
1615.24
1754.15
1692.87
1426.79
1251.27
1251.86
1253.74
1255.49
1410.73
1707.42
1816.01
1813.95
1811.72
1803.19
1785.96
1795.14
1819.54
1826.26
1825.54
1824.82
1824.04
1823.27
1822.52
1821.76
1821.02
1820.26
1819.49
1818.71
1817.92
1817.12
1816.23
1815.14
1814.03
1813.02
1811.16
1808.32
1676.75
1268.36
1197
1202.26
1456.54
1712.8
1718.12
1528.54
1237.85
1239.63
1244.98
1453.95
1744.55
1820.01
1817.51
1816.63
1815.59
1802.97
1785.14
1785.02
1817.33
1825.3
1824.57
1823.87
1823.21
1822.57
1821.94
1821.33
1820.73
1820.12
1819.46
1818.78
1818.16
1817.64
1817.01
1814.72
1806.74
1800.96
1814.89
1799.82
1456.77
1179.72
1180.23
1180.78
1281.13
1621.87
1696.13
1450.2
1225.1
1226.76
1475.16
1778.28
1821.71
1820.15
1819.8
1819.33
1813.75
1789.55
1785.48
1785.07
1816.62
1824.39
1823.77
1823.2
1822.67
1822.17
1821.7
1821.24
1820.8
1820.33
1819.74
1818.41
1816.6
1814.02
1815.11
1796.09
1686.9
1641.41
1776.26
1732.67
1302.08
1170.26
1170.99
1171.21
1213.38
1550.84
1676.52
1342.39
1217.31
1427.71
1789.69
1819.78
1820.76
1821.54
1821.89
1821.84
1813.79
1787.39
1786.38
1785.57
1817.06
1823.41
1822.9
1822.46
1822.25
1822.07
1821.74
1821.45
1821.23
1821.01
1820.49
1811.44
1730.59
1679.62
1681.37
1639.36
1619.47
1618.97
1693.29
1672.01
1265.28
1162.47
1162.54
1162.63
1222.51
1547.35
1629.28
1310.65
1334.59
1777.53
1819.31
1820.76
1819.15
1820.67
1823.29
1824.3
1818.76
1794.99
1787.56
1786.28
1817.53
1823.23
1822.81
1822.54
1822.39
1820.58
1817.88
1817.02
1815.6
1814.97
1809.15
1694.48
1620.92
1621.12
1619.85
1619.18
1620.16
1620.73
1648.02
1810.18
1500.86
1152.51
1153.06
1152.18
1283.71
1546.28
1529.29
1354.65
1711.36
1821.49
1821.98
1821.09
1806.2
1808.7
1823.34
1826.43
1825.37
1823.28
1806.67
1787.53
1811.81
1818.04
1807.06
1804.69
1808.5
1812.77
1813.59
1792.69
1749.71
1740.24
1735.87
1636.36
1621.2
1685.61
1795.37
1774.15
1637.27
1625.47
1741.99
1845.16
1828.27
1393.87
1140.99
1138.27
1268.72
1407.68
1467.87
1699.28
1828.58
1825.23
1825.2
1818.89
1807.82
1807.98
1824.18
1828.1
1827.88
1827.27
1825.83
1790.34
1797.22
1766.66
1760.22
1763.48
1770.85
1726.73
1726.8
1726.65
1727.16
1728.21
1748.49
1824.28
1831.29
1832.54
1834.27
1835.41
1831.72
1806.41
1816.11
1844.62
1849.55
1792.74
1341.71
1156.85
1164.49
1277.87
1697.18
1831.78
1826.62
1821.95
1817.43
1812.66
1807.88
1811.8
1827.6
1828.97
1828.85
1828.25
1826.94
1817.65
1796.94
1811.21
1809.81
1820.39
1823.79
1788.21
1736.21
1769.85
1825
1826.83
1828.66
1829.59
1830.46
1831.34
1832.26
1833.24
1834.36
1835.78
1837.65
1840.58
1844.54
1813.54
1374.35
1149.71
1260.56
1631.78
1817.46
1821.3
1820.51
1814.12
1801.67
1800.13
1818.43
1826.41
1828.52
1829.05
1829.09
1828.57
1827.08
1825.39
1797.27
1824.96
1825.19
1825.46
1825.7
1825.88
1826.2
1826.71
1827.17
1827.55
1827.97
1828.41
1828.85
1829.24
1829.58
1830.01
1830.58
1831.11
1831.72
1832.48
1832.98
1750.82
1358.31
1277.04
1697.59
1814.74
1812.47
1811.96
1811.68
1808.88
1797.58
1801.92
1824.64
1826.51
1827.79
1828.58
1828.82
1828.43
1827.28
1825.35
1818.9
1825.57
1825.68
1825.83
1825.98
1826.17
1826.37
1826.59
1826.78
1826.93
1827.05
1827.13
1827.15
1826.94
1825.98
1826.02
1826.41
1825.88
1824.93
1823.04
1778.22
1500.97
1396.58
1777.86
1811.14
1807.72
1805.18
1802.18
1798.68
1784.05
1758.62
1789.29
1824.32
1826.7
1827.51
1828.11
1828.25
1828.25
1827.41
1825.63
1823.62
1825.03
1823.3
1823.47
1826.26
1826.47
1826.51
1826.5
1826.45
1826.32
1826.13
1825.86
1825.5
1824.39
1823.37
1822.77
1823.07
1822.01
1820.31
1767.45
1386.93
1300.98
1401.16
1817.82
1812.49
1806.44
1799.86
1791.59
1752.82
1500.7
1315.01
1489.49
1794.17
1828.79
1828.6
1828.06
1828.19
1828.09
1827.76
1825.79
1823.17
1810.14
1807.86
1815.83
1826.03
1826.98
1826.78
1826.51
1826.17
1825.74
1825.23
1824.63
1823.95
1822.4
1821.3
1820.78
1821
1820.39
1817.71
1537.31
1284.37
1286.79
1477.96
1811.93
1809.61
1804.44
1796.03
1777.44
1443.95
1103.93
1060.4
1096.27
1448.27
1826.62
1829.86
1828.72
1828.58
1828.66
1828.55
1826.75
1820.9
1808.54
1808.44
1816.15
1826.64
1827.63
1827.13
1826.55
1825.87
1825.09
1824.22
1823.27
1822.23
1820.62
1818.8
1818.03
1817.53
1816.66
1750.43
1332.07
1274.22
1358.41
1792.96
1812.65
1810.9
1805.55
1797.68
1629.53
1090.59
1044.75
1046.15
1046.54
1118.06
1727.76
1828.81
1828.84
1829.12
1829.89
1829.87
1828.59
1823.46
1814.84
1829.29
1829.77
1829.08
1828.31
1827.46
1826.51
1825.46
1824.31
1823.07
1821.73
1820.29
1818.18
1815.76
1814.53
1812.16
1810.27
1588.52
1278.97
1298.99
1761.58
1814.99
1815.16
1813.67
1810.06
1779.39
1275.96
1035.56
1037.43
1037.86
1038.16
1048.75
1620.32
1827.14
1829.29
1830.55
1831.54
1832.17
1831.91
1827.45
1832.49
1831.78
1830.93
1829.96
1828.86
1827.64
1826.3
1824.87
1823.37
1821.83
1820.24
1818.6
1816.75
1814.85
1812.84
1810.57
1735.99
1332.94
1260.65
1666.26
1814.47
1816.74
1818.47
1818.4
1818.41
1665.99
1055.76
1028.1
1029
1030.45
1030.88
1088.26
1597.88
1826.88
1830.48
1832.92
1834.79
1836.25
1837.04
1833.42
1834.27
1833.31
1832.15
1830.83
1829.36
1827.75
1826.01
1824.15
1822.29
1820.44
1818.58
1816.68
1814.64
1812.22
1808.71
1803.03
1660.32
1146.96
1421.75
1784.4
1799.22
1817.05
1826.9
1830.33
1824.57
1452.29
1018.79
1019.49
1021.11
1021.8
1032.19
1431.45
1738.8
1830.6
1834.87
1838.09
1840.76
1843.08
1844.95
1842.17
1836.46
1835.18
1833.69
1832.04
1830.22
1828.11
1825.31
1822.22
1819.38
1817.13
1815.55
1814.38
1813.78
1812.42
1797.94
1677.07
1302.5
924.459
1102.5
1218.79
1331.08
1774.64
1832.54
1838.27
1818.04
1252.71
1009.38
1009.74
1012.69
1011.12
1282.55
1765.89
1834.96
1839.25
1843.49
1846.87
1850.12
1853.32
1856.49
1857.24
1839.19
1837.64
1835.83
1831.33
1829.46
1783.55
1597.94
1485.95
1383.4
1330.63
1308.04
1292.03
1278.1
1251.62
1192.56
1035.53
871.433
848.092
862.728
847.456
946.053
1625.08
1835.34
1844.31
1825.68
1192.06
1003.32
999.973
1000.81
1049.69
1673.2
1847.7
1848.79
1851.69
1855.15
1858.8
1862.66
1866.81
1871.18
1875.47
1842.4
1840.23
1799.98
1593.16
1138.15
1008.77
920.111
876.184
851.662
844.257
841.977
840.902
840.197
839.576
839.787
841.001
842.723
847.266
844.422
842.817
864.862
1490.44
1839.06
1850.89
1853.91
1300.18
990.921
989.889
990.375
1260.82
1826.82
1859.87
1862.27
1865.43
1869.14
1873.28
1877.68
1883.08
1888.59
1892.54
1846.64
1582.18
1007.2
846.438
838.71
838.888
838.597
838.55
838.571
838.602
838.626
838.657
838.698
838.765
839.166
840.311
841.862
841.801
841.312
841.509
847.153
1481.22
1854.18
1860.38
1864.32
1536.27
996.632
981.108
980.645
1347.36
1857.78
1873.62
1876.59
1880.52
1884.9
1889.57
1895.06
1901.51
1908.06
1911.87
1425.96
837.927
838.334
838.373
838.381
838.391
838.417
838.45
838.491
838.534
838.58
838.625
838.67
838.723
839.281
839.885
840.002
840.146
840.349
841.175
1045.98
1723.69
1868.86
1871.61
1873.41
1718.61
1054.52
976.094
973.877
1254.54
1789.73
1876.29
1888.3
1895.6
1901.35
1907.18
1913.85
1921.46
1929.11
1933.95
932.935
838.278
838.317
838.331
838.353
838.383
838.412
838.445
838.48
838.525
838.584
838.646
838.7
838.744
838.836
838.909
839.156
840.093
844.365
1003.98
1623.36
1881.76
1883.08
1884.47
1886.3
1795.85
1119.61
972.823
970.847
1007.45
1373.9
1817.6
1897.09
1908.87
1917.12
1925.15
1933.45
1942.47
1951.78
1957.78
890.246
838.3
838.352
838.384
838.42
838.452
838.477
838.492
838.491
838.473
838.459
838.492
838.587
838.687
838.787
839.37
905.068
1029.99
1406.87
1892.26
1896.03
1895.48
1896.31
1898.07
1900.55
1811.32
1127.41
972.432
970.234
972.941
1026.55
1636.93
1905.24
1920.85
1932.62
1943.49
1954.19
1965.28
1976.61
1984.15
1769.19
1028.95
837.872
837.986
838.132
838.199
838.233
838.257
838.224
840.644
853.146
885.813
950.945
1070.11
1145.33
1288.93
1761.07
1909.61
1905.79
1904.52
1904.87
1906.01
1908.07
1911.14
1915.08
1675.94
1027.34
972.195
970.713
972.915
973.25
1527.12
1916.73
1934.52
1949.87
1963.71
1977.14
1990.76
2004.63
2014.24
1897.2
1880.03
1744.34
1580.83
1470.27
1443.12
1425.58
1445.71
1491.66
1570.56
1684.82
1832.52
1918.65
1914.64
1910.07
1908.28
1908.63
1909.28
1909.73
1910.54
1912.11
1914.63
1918.34
1923.43
1928.99
1326.38
969.639
967.987
970.85
971.629
971.665
1530.5
1931.22
1952.51
1970.63
1987.05
2003.03
2019.44
2036.47
2048.99
1895.14
1898.74
1901.83
1905.04
1908.34
1910.93
1912.48
1913.09
1913.2
1913.28
1913.73
1914.31
1914.53
1914.12
1913.39
1913.06
1913.32
1913.76
1914.42
1915.63
1917.79
1921.21
1926.27
1933.1
1708.89
1017.76
970.38
968.911
969.465
970.252
1042.54
1754.93
1952.86
1975.67
1995.52
2013.85
2032.05
2051.28
2071.93
2089
1896.28
1900.48
1904.13
1907.34
1910.19
1912.59
1914.53
1916.09
1917.16
1916.93
1917.34
1917.82
1917.85
1918.01
1917.83
1917.43
1917.07
1917.07
1917.59
1918.81
1921.05
1924.67
1930.26
1937.91
1553.96
981.903
965.053
969.271
969.454
969.711
1280.69
1903.74
1979.25
2002.54
2023.18
2042.79
2062.77
2084.67
2109.18
2130.2
1898.12
1902.65
1906.77
1910.39
1913.43
1915.94
1918.08
1919.93
1921.37
1922.4
1921.65
1921.51
1921.05
1920.19
1919.32
1919.83
1919.31
1919.05
1919.35
1920.15
1921.59
1924.53
1929.74
1936.22
1814.51
1227.83
970.739
968.698
969.104
1053.2
1718.2
1984.22
2009.16
2030.69
2050.88
2070.99
2092.13
2116.43
2144.73
2168.89
1901.55
1906.18
1910.37
1913.97
1916.75
1918.85
1920.62
1922.2
1923.86
1925.06
1925.44
1925.09
1923.27
1922.02
1921.81
1920.75
1919.7
1919.17
1919.13
1906.26
1847.71
1854.59
1908.29
1927.76
1931.57
1792.94
1162.69
979.56
1097.94
1702.78
2002.64
2018.31
2036.07
2054.63
2073.82
2093.88
2115.76
2142.12
2173.77
2201.08
1906.59
1911.36
1915.76
1919.45
1894.53
1838.37
1831.25
1864.11
1907.93
1923.4
1926.96
1926.04
1924.13
1922.07
1919.86
1917.92
1916.4
1915.43
1914.5
1795.28
1755.19
1758.01
1772.04
1872.86
1909.46
1875.43
1648.42
1681.62
1932.18
2005.64
2017.76
2032.19
2048.82
2066.8
2085.81
2106.16
2128.89
2157.04
2191.65
2221.32
1912.49
1917.79
1900.02
1862.27
1723.05
1726.53
1727.89
1728.11
1770.65
1900.41
1926.67
1924.44
1920.08
1912.26
1906.46
1907.49
1906.79
1904.66
1864.67
1733.19
1737.03
1745.09
1747.73
1755.03
1761.43
1841.54
1941.74
1962.96
1980.86
1996.28
2011.53
2027.97
2045.51
2063.98
2083.45
2104.4
2127.99
2157.64
2194.4
2226.05
1867.99
1845.58
1725.55
1729.4
1729.71
1729.59
1728.89
1727.34
1730.7
1864.62
1923.6
1918.15
1903.47
1887.34
1881.36
1878.14
1886.18
1883.66
1864.53
1765.53
1717.15
1722.58
1726.85
1733.07
1753.17
1878.1
1923.37
1939.87
1957.08
1971.09
1986.3
2006.55
2027.08
2045.88
2065.7
2087.06
2111.23
2141.73
2179.69
2212.7
1711.59
1719.52
1724.43
1728.51
1747.24
1771.71
1765.95