/*--------------------------------*- C++ -*----------------------------------*\
  =========                 |
  \\      /  F ield         | OpenFOAM: The Open Source CFD Toolbox
   \\    /   O peration     | Website:  https://openfoam.org
    \\  /    A nd           | Version:  8
     \\/     M anipulation  |
\*---------------------------------------------------------------------------*/
FoamFile
{
    version     2.0;
    format      ascii;
    class       surfaceScalarField;
    location    "4.5";
    object      phi;
}
// * * * * * * * * * * * * * * * * * * * * * * * * * * * * * * * * * * * * * //

dimensions      [0 3 -1 0 0 0 0];

internalField   nonuniform List<scalar> 
18095
(
1.58533e-07
-9.65477e-07
8.06944e-07
1.65426e-07
-1.24819e-06
1.2413e-06
1.22265e-07
-1.24221e-06
1.28537e-06
6.54198e-08
-1.26346e-06
1.32031e-06
1.29227e-10
-1.28047e-06
1.34576e-06
-6.51847e-08
-1.2805e-06
1.34581e-06
-1.22087e-07
-1.26353e-06
1.32043e-06
-1.65312e-07
-1.24228e-06
1.2855e-06
-1.58486e-07
-1.24826e-06
1.24143e-06
-9.65622e-07
8.07135e-07
1.11032e-07
-1.07651e-06
9.94404e-08
-1.2366e-06
7.29079e-08
-1.21568e-06
4.01031e-08
-1.23066e-06
8.67574e-11
-1.24045e-06
-3.99428e-08
-1.24047e-06
-7.27808e-08
-1.23069e-06
-9.9345e-08
-1.21571e-06
-1.10978e-07
-1.23662e-06
-1.0766e-06
6.71662e-08
-1.14368e-06
5.27782e-08
-1.22221e-06
4.21778e-08
-1.20508e-06
2.39059e-08
-1.21239e-06
5.53557e-11
-1.2166e-06
-2.38024e-08
-1.21661e-06
-4.20941e-08
-1.2124e-06
-5.27144e-08
-1.20509e-06
-6.71197e-08
-1.22222e-06
-1.14372e-06
3.96299e-08
-1.18331e-06
2.66383e-08
-1.20922e-06
2.20353e-08
-1.20047e-06
1.25526e-08
-1.20291e-06
3.12688e-11
-1.20408e-06
-1.24937e-08
-1.20408e-06
-2.19869e-08
-1.20291e-06
-2.6602e-08
-1.20048e-06
-3.95988e-08
-1.20922e-06
-1.18332e-06
1.66944e-08
7.47204e-09
6.99801e-09
4.09296e-09
1.04743e-11
-4.07314e-09
-6.9819e-09
-7.46108e-09
-1.66815e-08
-1.74085e-07
-1.16325e-06
1.33734e-06
-2.18181e-07
-1.21595e-06
1.26004e-06
-1.64085e-07
-1.21252e-06
1.15842e-06
-8.58086e-08
-1.20379e-06
1.12551e-06
1.41793e-09
-1.20241e-06
1.11518e-06
8.85819e-08
-1.20263e-06
1.11546e-06
1.66586e-07
-1.20436e-06
1.12636e-06
2.20476e-07
-1.21336e-06
1.15947e-06
1.76184e-07
-1.21712e-06
1.26142e-06
-1.16462e-06
1.3408e-06
-9.26089e-08
-1.07065e-06
-9.50706e-08
-1.21348e-06
-7.86006e-08
-1.22899e-06
-4.34684e-08
-1.23892e-06
8.00529e-10
-1.24668e-06
4.50047e-08
-1.24683e-06
7.99762e-08
-1.23934e-06
9.61987e-08
-1.22958e-06
9.32503e-08
-1.21418e-06
-1.07137e-06
-5.78012e-08
-1.01284e-06
-5.48781e-08
-1.21641e-06
-4.61439e-08
-1.23772e-06
-2.669e-08
-1.25837e-06
4.81882e-10
-1.27385e-06
2.76078e-08
-1.27396e-06
4.69311e-08
-1.25866e-06
5.54526e-08
-1.2381e-06
5.80808e-08
-1.2168e-06
-1.01329e-06
-7.47231e-08
-9.38121e-07
-6.18368e-08
-1.22929e-06
-4.83852e-08
-1.25117e-06
-2.75177e-08
-1.27924e-06
2.99129e-10
-1.30167e-06
2.80827e-08
-1.30174e-06
4.88545e-08
-1.27943e-06
6.21537e-08
-1.2514e-06
7.4871e-08
-1.22952e-06
-9.38417e-07
-1.31177e-07
-1.19171e-07
-8.49716e-08
-4.39008e-08
1.94228e-10
4.42654e-08
8.52694e-08
1.19374e-07
1.31282e-07
-7.41081e-09
-9.03319e-07
9.1073e-07
2.47169e-08
-1.34017e-06
1.30804e-06
2.25548e-08
-1.27888e-06
1.28104e-06
1.64261e-08
-1.22909e-06
1.23522e-06
1.03093e-08
-1.22492e-06
1.23104e-06
4.65627e-09
-1.2261e-06
1.23175e-06
-1.84127e-09
-1.22804e-06
1.23454e-06
6.41462e-09
-1.27418e-06
1.26592e-06
5.98833e-08
-1.34408e-06
1.29061e-06
-9.51215e-07
1.0111e-06
2.67398e-08
-9.30059e-07
3.34495e-08
-1.34688e-06
2.31999e-08
-1.26863e-06
1.57439e-08
-1.22163e-06
8.47267e-09
-1.21765e-06
1.04417e-09
-1.21867e-06
-5.44692e-09
-1.22155e-06
-1.05508e-08
-1.26908e-06
-4.99162e-09
-1.34964e-06
-9.56206e-07
3.54934e-08
-9.65553e-07
2.65184e-08
-1.3379e-06
1.68508e-08
-1.25896e-06
1.16041e-08
-1.21639e-06
5.61414e-09
-1.21166e-06
-1.09779e-09
-1.21196e-06
-5.82829e-09
-1.21682e-06
-1.47126e-08
-1.26019e-06
-2.40547e-08
-1.3403e-06
-9.80261e-07
8.39452e-08
-1.0495e-06
5.81847e-08
-1.31214e-06
3.8813e-08
-1.23959e-06
2.49238e-08
-1.2025e-06
3.69076e-09
-1.19043e-06
-1.75546e-08
-1.19072e-06
-3.05807e-08
-1.20379e-06
-4.953e-08
-1.24124e-06
-7.6575e-08
-1.31325e-06
-1.05684e-06
2.87842e-07
2.3574e-07
1.54566e-07
7.75787e-08
2.33137e-09
-7.29225e-08
-1.50354e-07
-2.32131e-07
-2.83966e-07
7.0337e-08
2.44073e-09
-7.27777e-08
6.78621e-08
2.47256e-09
6.53705e-08
2.49174e-09
6.28669e-08
2.50388e-09
6.03621e-08
2.50527e-09
5.78663e-08
2.49625e-09
5.53895e-08
2.47735e-09
5.294e-08
2.45002e-09
5.05257e-08
2.41481e-09
2.37138e-09
4.81548e-08
6.90582e-08
4.85116e-09
-7.14688e-08
6.66042e-08
4.9261e-09
6.41171e-08
4.97861e-09
6.16109e-08
5.00983e-09
5.90954e-08
5.02036e-09
5.65838e-08
5.00727e-09
5.40864e-08
4.97418e-09
5.1614e-08
4.92174e-09
4.91773e-08
4.8508e-09
4.76159e-09
4.67864e-08
6.05926e-08
7.25192e-09
-6.29934e-08
5.81678e-08
7.3512e-09
5.57286e-08
7.41815e-09
5.32854e-08
7.45347e-09
5.08494e-08
7.45688e-09
4.84289e-08
7.4283e-09
4.60345e-08
7.36907e-09
4.36761e-08
7.28048e-09
4.1364e-08
7.16326e-09
7.01822e-09
3.91077e-08
5.15148e-08
9.66896e-09
-5.3932e-08
4.90874e-08
9.77783e-09
4.66607e-08
9.84453e-09
4.42442e-08
9.86968e-09
4.18455e-08
9.85533e-09
3.94742e-08
9.79933e-09
3.71394e-08
9.70353e-09
3.48509e-08
9.56867e-09
3.26184e-08
9.39551e-09
9.18495e-09
3.04515e-08
4.18971e-08
1.21117e-08
-4.434e-08
3.94557e-08
1.22192e-08
3.70231e-08
1.22773e-08
3.46078e-08
1.2285e-08
3.222e-08
1.22432e-08
2.98675e-08
1.21519e-08
2.75595e-08
1.20115e-08
2.53055e-08
1.18226e-08
2.31151e-08
1.15858e-08
1.13018e-08
2.09982e-08
3.16636e-08
1.4588e-08
-3.414e-08
2.91938e-08
1.46888e-08
2.67394e-08
1.47316e-08
2.43082e-08
1.47161e-08
2.19091e-08
1.46422e-08
1.9551e-08
1.45099e-08
1.72429e-08
1.43194e-08
1.49944e-08
1.4071e-08
1.28154e-08
1.37647e-08
1.3401e-08
1.07162e-08
2.07702e-08
1.71086e-08
-2.32908e-08
1.82589e-08
1.72001e-08
1.5765e-08
1.72255e-08
1.32973e-08
1.71838e-08
1.08647e-08
1.70746e-08
8.47656e-09
1.68979e-08
6.14185e-09
1.6654e-08
3.87003e-09
1.63427e-08
1.67134e-09
1.59633e-08
1.55151e-08
-4.42777e-10
9.1877e-09
1.96892e-08
-1.17683e-08
6.61514e-09
1.97726e-08
4.05979e-09
1.97808e-08
1.53136e-09
1.97121e-08
-9.59997e-10
1.95659e-08
-3.40456e-09
1.93423e-08
-5.79372e-09
1.9043e-08
-8.11919e-09
1.8668e-08
-1.03707e-08
1.82147e-08
1.76792e-08
-1.25347e-08
-3.12455e-09
2.2352e-08
4.61711e-10
-5.78425e-09
2.24321e-08
-8.42956e-09
2.24259e-08
-1.10488e-08
2.23313e-08
-1.36293e-08
2.21461e-08
-1.61589e-08
2.18718e-08
-1.86314e-08
2.15153e-08
-2.10432e-08
2.10798e-08
-2.33856e-08
2.05571e-08
1.99343e-08
-2.56407e-08
-1.6232e-08
2.51276e-08
1.34565e-08
-1.90129e-08
2.52126e-08
-2.17849e-08
2.51978e-08
-2.45348e-08
2.5081e-08
-2.72427e-08
2.48539e-08
-2.98888e-08
2.45178e-08
-3.24722e-08
2.40987e-08
-3.50046e-08
2.36122e-08
-3.74838e-08
2.30363e-08
2.233e-08
-3.98795e-08
-3.0247e-08
2.80562e-08
2.73182e-08
-3.31872e-08
2.81524e-08
-3.61264e-08
2.81369e-08
-3.90599e-08
2.80145e-08
-4.19519e-08
2.77458e-08
-4.47562e-08
2.73221e-08
-4.74707e-08
2.68132e-08
-5.01513e-08
2.62929e-08
-5.28235e-08
2.57086e-08
2.49393e-08
-5.54328e-08
-4.53812e-08
3.11968e-08
4.22405e-08
-4.85151e-08
3.12861e-08
-5.1614e-08
3.12357e-08
-5.47629e-08
3.11635e-08
-5.79614e-08
3.09442e-08
-6.10069e-08
3.03676e-08
-6.38825e-08
2.96888e-08
-6.67618e-08
2.91722e-08
-6.9651e-08
2.85977e-08
2.77297e-08
-7.24415e-08
-6.20492e-08
3.46819e-08
5.85641e-08
-6.54468e-08
3.4684e-08
-6.86578e-08
3.44467e-08
-7.17713e-08
3.42771e-08
-7.49899e-08
3.41629e-08
-7.82822e-08
3.36599e-08
-8.16468e-08
3.30535e-08
-8.48081e-08
3.23336e-08
-8.77601e-08
3.15497e-08
3.074e-08
-9.07703e-08
-8.08873e-08
3.85365e-08
7.70328e-08
-8.44488e-08
3.82457e-08
-8.7702e-08
3.76999e-08
-9.09781e-08
3.75532e-08
-9.4054e-08
3.7239e-08
-9.72316e-08
3.68376e-08
-1.00514e-07
3.6336e-08
-1.03911e-07
3.57306e-08
-1.07423e-07
3.50614e-08
3.42053e-08
-1.10888e-07
-9.94125e-08
4.19295e-08
9.60195e-08
-1.02807e-07
4.16406e-08
-1.06482e-07
4.13744e-08
-1.10097e-07
4.1168e-08
-1.13701e-07
4.08437e-08
-1.17369e-07
4.05055e-08
-1.21171e-07
4.01376e-08
-1.25093e-07
3.96533e-08
-1.29132e-07
3.90998e-08
3.83598e-08
-1.33286e-07
-1.19424e-07
4.535e-08
1.16003e-07
-1.23088e-07
4.53044e-08
-1.26999e-07
4.52847e-08
-1.31099e-07
4.5268e-08
-1.35428e-07
4.51731e-08
-1.3987e-07
4.49472e-08
-1.44328e-07
4.4596e-08
-1.48849e-07
4.41744e-08
-1.53625e-07
4.38756e-08
4.32463e-08
-1.58511e-07
-1.41506e-07
4.94659e-08
1.3739e-07
-1.45922e-07
4.97204e-08
-1.50559e-07
4.99221e-08
-1.55398e-07
5.01068e-08
-1.60564e-07
5.0339e-08
-1.65757e-07
5.01403e-08
-1.70841e-07
4.96794e-08
-1.76034e-07
4.93682e-08
-1.81133e-07
4.89741e-08
4.81767e-08
-1.86063e-07
-1.6614e-07
5.48829e-08
1.60723e-07
-1.71901e-07
5.54808e-08
-1.77556e-07
5.55774e-08
-1.83278e-07
5.58296e-08
-1.88801e-07
5.5862e-08
-1.94238e-07
5.55767e-08
-1.99379e-07
5.48203e-08
-2.0445e-07
5.44395e-08
-2.09359e-07
5.38834e-08
5.31668e-08
-2.14349e-07
-1.94579e-07
6.16185e-08
1.87843e-07
-2.01135e-07
6.20377e-08
-2.07677e-07
6.21192e-08
-2.1383e-07
6.19829e-08
-2.19502e-07
6.15335e-08
-2.25134e-07
6.12089e-08
-2.30842e-07
6.05277e-08
-2.36119e-07
5.97163e-08
-2.41408e-07
5.91729e-08
5.94629e-08
-2.47704e-07
-2.26531e-07
6.92593e-08
2.1889e-07
-2.33794e-07
6.93013e-08
-2.4094e-07
6.92657e-08
-2.47547e-07
6.85901e-08
-2.53987e-07
6.79734e-08
-2.60299e-07
6.75204e-08
-2.67639e-07
6.7868e-08
-2.74012e-07
6.60896e-08
-2.80442e-07
6.56025e-08
6.51816e-08
-2.86161e-07
-2.61229e-07
7.79112e-08
2.52577e-07
-2.69437e-07
7.75102e-08
-2.77064e-07
7.68924e-08
-2.84792e-07
7.63185e-08
-2.9214e-07
7.53208e-08
-2.99478e-07
7.48584e-08
-3.05706e-07
7.40964e-08
-3.12879e-07
7.32621e-08
-3.19943e-07
7.26666e-08
7.35169e-08
-3.28278e-07
-2.99271e-07
8.8089e-08
2.89094e-07
-3.08425e-07
8.6664e-08
-3.17063e-07
8.55301e-08
-3.24685e-07
8.39411e-08
-3.31446e-07
8.20821e-08
-3.36393e-07
7.98049e-08
-3.42308e-07
8.00111e-08
-3.48983e-07
7.99375e-08
-3.57718e-07
8.1401e-08
8.40885e-08
-3.68289e-07
-3.40237e-07
1.01366e-07
3.26961e-07
-3.49915e-07
9.63413e-08
-3.56287e-07
9.19023e-08
-3.61436e-07
8.90899e-08
-3.66159e-07
8.68048e-08
-3.7187e-07
8.55163e-08
-3.77416e-07
8.55572e-08
-3.84088e-07
8.66099e-08
-3.92334e-07
8.96464e-08
9.67587e-08
-4.05004e-07
-3.77365e-07
1.10224e-07
3.68506e-07
-3.8448e-07
1.03456e-07
-3.91011e-07
9.8433e-08
-3.96537e-07
9.4616e-08
-4.01247e-07
9.15153e-08
-4.0543e-07
8.96988e-08
-4.09383e-07
8.95102e-08
-4.14503e-07
9.17305e-08
-4.2352e-07
9.8663e-08
1.08514e-07
-4.35275e-07
-4.02521e-07
1.16973e-07
3.95772e-07
-4.10081e-07
1.11016e-07
-4.18087e-07
1.06439e-07
-4.25722e-07
1.02251e-07
-4.32753e-07
9.85468e-08
-4.39122e-07
9.60679e-08
-4.4511e-07
9.54978e-08
-4.50942e-07
9.75624e-08
-4.55416e-07
1.03137e-07
1.10834e-07
-4.57736e-07
-4.17448e-07
1.23418e-07
4.11004e-07
-4.26076e-07
1.19643e-07
-4.38202e-07
1.18565e-07
-4.48567e-07
1.12615e-07
-4.56467e-07
1.06447e-07
-4.63534e-07
1.03135e-07
-4.69838e-07
1.01802e-07
-4.74779e-07
1.02503e-07
-4.7657e-07
1.04928e-07
1.07367e-07
-4.73102e-07
-4.29258e-07
1.30802e-07
4.21874e-07
-4.41097e-07
1.31483e-07
-4.50352e-07
1.2782e-07
-4.56492e-07
1.18756e-07
-4.62433e-07
1.12388e-07
-4.67432e-07
1.08134e-07
-4.71183e-07
1.05553e-07
-4.72933e-07
1.04253e-07
-4.71603e-07
1.03598e-07
1.02477e-07
-4.66713e-07
-4.30739e-07
1.415e-07
4.20041e-07
-4.37653e-07
1.38396e-07
-4.4262e-07
1.32787e-07
-4.47977e-07
1.24113e-07
-4.52628e-07
1.17038e-07
-4.56357e-07
1.11863e-07
-4.58803e-07
1.08e-07
-4.59548e-07
1.04998e-07
-4.58328e-07
1.02378e-07
9.96423e-08
-4.55493e-07
-4.22875e-07
1.46357e-07
4.18019e-07
-4.26612e-07
1.42133e-07
-4.2927e-07
1.35445e-07
-4.32221e-07
1.27064e-07
-4.35287e-07
1.20105e-07
-4.37788e-07
1.14365e-07
-4.39289e-07
1.09501e-07
-4.39478e-07
1.05186e-07
-4.38201e-07
1.01101e-07
9.6923e-08
-4.35481e-07
-4.10855e-07
1.47855e-07
4.09356e-07
-4.1172e-07
1.42998e-07
-4.12234e-07
1.3596e-07
-4.13549e-07
1.28378e-07
-4.15126e-07
1.21681e-07
-4.16338e-07
1.15577e-07
-4.16767e-07
1.0993e-07
-4.1614e-07
1.04559e-07
-4.14308e-07
9.92691e-08
9.38741e-08
-4.1126e-07
-3.98428e-07
1.45199e-07
4.01085e-07
-3.96709e-07
1.41278e-07
-3.95679e-07
1.3493e-07
-3.95492e-07
1.28191e-07
-3.95402e-07
1.21591e-07
-3.94975e-07
1.15151e-07
-3.9389e-07
1.08845e-07
-3.91934e-07
1.02604e-07
-3.88994e-07
9.63285e-08
8.99118e-08
-3.85031e-07
-3.88532e-07
1.42047e-07
3.91683e-07
-3.84858e-07
1.37605e-07
-3.82052e-07
1.32124e-07
-3.79701e-07
1.2584e-07
-3.77364e-07
1.19254e-07
-3.74755e-07
1.12541e-07
-3.71657e-07
1.05747e-07
-3.67915e-07
9.88621e-08
-3.63436e-07
9.18496e-08
8.46566e-08
-3.58181e-07
-3.76339e-07
1.38861e-07
3.79525e-07
-3.72183e-07
1.33449e-07
-3.67739e-07
1.2768e-07
-3.63304e-07
1.21406e-07
-3.58801e-07
1.1475e-07
-3.54089e-07
1.0783e-07
-3.49042e-07
1.00699e-07
-3.43559e-07
9.33796e-08
-3.37575e-07
8.58656e-08
7.81417e-08
-3.3106e-07
-3.58941e-07
1.34533e-07
3.63269e-07
-3.54166e-07
1.28674e-07
-3.48916e-07
1.2243e-07
-3.43336e-07
1.15826e-07
-3.37489e-07
1.08903e-07
-3.31367e-07
1.01708e-07
-3.24946e-07
9.42785e-08
-3.18203e-07
8.66365e-08
-3.11127e-07
7.87897e-08
7.07363e-08
-3.03721e-07
-3.37813e-07
1.29701e-07
3.42645e-07
-3.32407e-07
1.23269e-07
-3.2651e-07
1.16534e-07
-3.20198e-07
1.09514e-07
-3.1353e-07
1.02235e-07
-3.06551e-07
9.47289e-08
-2.99297e-07
8.70244e-08
-2.91806e-07
7.91453e-08
-2.84123e-07
7.11064e-08
6.29132e-08
-2.763e-07
-3.13561e-07
1.24463e-07
3.18799e-07
-3.07755e-07
1.17463e-07
-3.01443e-07
1.10222e-07
-2.94692e-07
1.02763e-07
-2.87568e-07
9.5111e-08
-2.80137e-07
8.72986e-08
-2.72473e-07
7.93596e-08
-2.64655e-07
7.13276e-08
-2.56782e-07
6.32336e-08
5.5096e-08
-2.48965e-07
-2.87036e-07
1.18984e-07
2.92515e-07
-2.81014e-07
1.11441e-07
-2.74506e-07
1.03715e-07
-2.67577e-07
9.58336e-08
-2.60295e-07
8.78285e-08
-2.52734e-07
7.97384e-08
-2.44982e-07
7.16078e-08
-2.37144e-07
6.34891e-08
-2.29356e-07
5.54466e-08
4.75617e-08
-2.21822e-07
-2.58885e-07
1.13414e-07
2.64455e-07
-2.52825e-07
1.0538e-07
-2.46331e-07
9.72213e-08
-2.39467e-07
8.89701e-08
-2.32305e-07
8.06665e-08
-2.24922e-07
7.23549e-08
-2.17401e-07
6.40868e-08
-2.09836e-07
5.59246e-08
-2.02337e-07
4.79469e-08
4.02617e-08
-1.95036e-07
-2.29573e-07
1.07881e-07
2.35106e-07
-2.23618e-07
9.94262e-08
-2.17305e-07
9.09083e-08
-2.10707e-07
8.2372e-08
-2.03909e-07
7.38685e-08
-1.97007e-07
6.54534e-08
-1.90107e-07
5.71867e-08
-1.83312e-07
4.91302e-08
-1.76712e-07
4.13465e-08
3.39015e-08
-1.70351e-07
-1.99316e-07
1.02432e-07
2.04765e-07
-1.93491e-07
9.3601e-08
-1.87349e-07
8.47664e-08
-1.80962e-07
7.59847e-08
-1.74412e-07
6.73182e-08
-1.6779e-07
5.88323e-08
-1.61197e-07
5.05932e-08
-1.54731e-07
4.26646e-08
-1.48485e-07
3.51009e-08
2.79248e-08
-1.42508e-07
-1.6848e-07
9.70972e-08
1.73815e-07
-1.62791e-07
8.79114e-08
-1.56803e-07
7.87786e-08
-1.50588e-07
6.97694e-08
-1.44231e-07
6.09614e-08
-1.37833e-07
5.24349e-08
-1.31511e-07
4.42713e-08
-1.25396e-07
3.65493e-08
-1.19637e-07
2.9342e-08
2.27212e-08
-1.14433e-07
-1.37499e-07
9.18943e-08
1.42702e-07
-1.31936e-07
8.2348e-08
-1.26066e-07
7.29088e-08
-1.19962e-07
6.36649e-08
-1.13713e-07
5.47127e-08
-1.0743e-07
4.61528e-08
-1.01245e-07
3.80862e-08
-9.53081e-08
3.06123e-08
-8.97908e-08
2.38247e-08
1.77998e-08
-8.48694e-08
-1.06921e-07
8.68385e-08
1.11977e-07
-1.01473e-07
7.69004e-08
-9.56857e-08
6.71211e-08
-8.96312e-08
5.76104e-08
-8.34073e-08
4.8489e-08
-7.71352e-08
3.98809e-08
-7.09595e-08
3.19104e-08
-6.50471e-08
2.46999e-08
-5.95779e-08
1.83554e-08
1.29739e-08
-5.47519e-08
-7.73925e-08
8.19486e-08
8.22823e-08
-7.20572e-08
7.1565e-08
-6.63254e-08
6.13894e-08
-6.02755e-08
5.15606e-08
-5.40185e-08
4.22321e-08
-4.76951e-08
3.35574e-08
-4.14715e-08
2.56868e-08
-3.55327e-08
1.87611e-08
-3.00849e-08
1.29076e-08
8.18548e-09
-2.52965e-08
-4.96106e-08
7.72435e-08
5.43157e-08
-4.43832e-08
6.63375e-08
-3.86722e-08
5.56784e-08
-3.25528e-08
4.54413e-08
-2.61546e-08
3.5834e-08
-1.96409e-08
2.70438e-08
-1.31728e-08
1.92187e-08
-6.96312e-09
1.25516e-08
-1.24507e-09
7.18978e-09
3.00551e-09
3.93513e-09
-2.43393e-08
7.27574e-08
2.88254e-08
-1.92382e-08
6.12365e-08
-1.35424e-08
4.99828e-08
-7.3017e-09
3.92008e-08
-6.36871e-10
2.91693e-08
6.28849e-09
2.01186e-08
1.32724e-08
1.22349e-08
2.01196e-08
5.70461e-09
2.65866e-08
7.23021e-10
-2.66403e-09
3.22564e-08
-2.4381e-09
6.85859e-08
6.60952e-09
2.46139e-09
5.63372e-08
8.06642e-09
4.43779e-08
1.43061e-08
3.29613e-08
2.11089e-08
2.23667e-08
2.83559e-08
1.28719e-08
3.59679e-08
4.62324e-09
4.35572e-08
-1.8844e-09
5.04476e-08
-6.16723e-09
-8.7479e-09
5.65317e-08
1.53836e-08
6.48807e-08
-1.16784e-08
1.99159e-08
5.18049e-08
2.53042e-08
3.89896e-08
3.15159e-08
2.67496e-08
3.84711e-08
1.54116e-08
4.59965e-08
5.34661e-09
5.36552e-08
-3.0353e-09
6.11671e-08
-9.39623e-09
6.85126e-08
-1.35127e-08
-1.52706e-08
7.50355e-08
2.82459e-08
6.20063e-08
-2.53715e-08
3.19679e-08
4.80833e-08
3.66871e-08
3.42706e-08
4.24476e-08
2.09891e-08
4.91216e-08
8.73766e-09
5.64675e-08
-1.99927e-09
6.42102e-08
-1.07779e-08
7.20203e-08
-1.72063e-08
7.95166e-08
-2.10088e-08
-2.20326e-08
8.62787e-08
3.56792e-08
6.05311e-08
-3.42039e-08
3.79536e-08
4.5809e-08
4.14005e-08
3.08237e-08
4.61434e-08
1.62461e-08
5.20594e-08
2.82172e-09
5.887e-08
-8.80986e-09
6.62308e-08
-1.81386e-08
7.37736e-08
-2.4749e-08
8.10792e-08
-2.83143e-08
-2.86435e-08
8.769e-08
3.74336e-08
6.12837e-08
-3.81862e-08
3.73597e-08
4.58826e-08
3.85896e-08
2.95936e-08
4.15909e-08
1.32448e-08
4.6058e-08
-1.64519e-09
5.15216e-08
-1.42734e-08
5.76668e-08
-2.42837e-08
6.41165e-08
-3.11987e-08
7.04286e-08
-3.46264e-08
-3.434e-08
7.61252e-08
3.38217e-08
6.46843e-08
-3.72224e-08
2.93745e-08
5.03296e-08
2.75301e-08
3.14379e-08
2.8587e-08
1.2188e-08
3.04776e-08
-3.53569e-09
3.32687e-08
-1.70644e-08
3.67494e-08
-2.77642e-08
4.05822e-08
-3.50315e-08
4.42603e-08
-3.83045e-08
-3.73371e-08
4.72574e-08
2.22934e-08
7.02571e-08
-2.78663e-08
1.6638e-08
5.5985e-08
1.26312e-08
3.54449e-08
8.84662e-09
1.59727e-08
6.16435e-09
-8.53405e-10
4.13369e-09
-1.50337e-08
2.67631e-09
-2.63068e-08
1.44505e-09
-3.38001e-08
-1.10906e-10
-3.67485e-08
-3.474e-08
-2.70804e-09
-3.78664e-09
8.10322e-08
-6.98858e-09
-1.12459e-08
6.34438e-08
-1.59979e-08
4.0197e-08
-2.20155e-08
2.19903e-08
-2.84701e-08
5.60127e-09
-3.51926e-08
-8.3111e-09
-4.21521e-08
-1.93472e-08
-4.93708e-08
-2.65812e-08
-5.71756e-08
-2.89438e-08
-2.53657e-08
-6.65497e-08
-5.37182e-09
9.1393e-08
-4.98895e-09
-1.68526e-08
7.49241e-08
-3.05242e-08
5.38685e-08
-4.38572e-08
3.53231e-08
-5.71785e-08
1.89224e-08
-7.07268e-08
5.23718e-09
-8.45525e-08
-5.52171e-09
-9.86316e-08
-1.25021e-08
-1.13096e-07
-1.44791e-08
-1.07936e-08
-1.27668e-07
-2.25784e-08
1.03483e-07
1.04885e-08
-3.32883e-08
8.56342e-08
-4.67263e-08
6.73064e-08
-6.14962e-08
5.0093e-08
-7.71626e-08
3.45889e-08
-9.32225e-08
2.12971e-08
-1.09428e-07
1.06834e-08
-1.25373e-07
3.4429e-09
-1.39911e-07
6.0015e-11
1.08481e-09
-1.51789e-07
-1.57342e-08
1.19666e-07
-4.48688e-10
-3.19288e-08
1.01828e-07
-4.69437e-08
8.2321e-08
-6.24638e-08
6.56127e-08
-7.72371e-08
4.93619e-08
-9.05393e-08
3.45991e-08
-1.0183e-07
2.19744e-08
-1.1042e-07
1.20325e-08
-1.15404e-07
5.04417e-09
9.03866e-10
-1.15222e-07
-6.45654e-09
1.32244e-07
-6.12215e-09
-2.43747e-08
1.19746e-07
-4.45951e-08
1.02541e-07
-5.8447e-08
7.94648e-08
-6.94703e-08
6.03853e-08
-7.73534e-08
4.24823e-08
-8.18273e-08
2.64485e-08
-8.24684e-08
1.2674e-08
-7.86687e-08
1.24466e-09
-8.02111e-09
-6.97437e-08
-3.25963e-09
1.44057e-07
-8.55358e-09
-2.04597e-08
1.36946e-07
-4.28268e-08
1.24908e-07
-5.27743e-08
8.94121e-08
-5.77352e-08
6.5346e-08
-5.88917e-08
4.36387e-08
-5.64874e-08
2.40439e-08
-5.04486e-08
6.63494e-09
-4.05387e-08
-8.66533e-09
-2.20602e-08
-2.64996e-08
1.2987e-09
1.5698e-07
-1.42217e-08
-1.61799e-08
1.54425e-07
-3.14232e-08
1.40152e-07
-3.69289e-08
9.49178e-08
-3.64257e-08
6.48428e-08
-3.20872e-08
3.93003e-08
-2.41987e-08
1.61556e-08
-1.28704e-08
-4.69326e-09
1.92789e-09
-2.34635e-08
-4.0416e-08
2.02838e-08
3.12651e-08
1.63516e-07
-3.78005e-08
1.99764e-08
1.65713e-07
3.0965e-09
1.57031e-07
-3.25423e-09
1.01268e-07
-2.11035e-09
6.36988e-08
4.10091e-09
3.30887e-08
1.48334e-08
5.42299e-09
2.96672e-08
-1.9527e-08
4.83681e-08
-4.21641e-08
-6.29365e-08
7.08886e-08
5.1303e-08
1.65962e-07
-5.37494e-08
5.36812e-08
1.63334e-07
4.096e-08
1.69753e-07
2.55855e-08
1.16643e-07
2.61295e-08
6.31552e-08
3.53727e-08
2.38457e-08
5.00678e-08
-9.27227e-09
6.92727e-08
-3.87322e-08
9.26317e-08
-6.5523e-08
-9.04555e-08
1.20151e-07
2.18026e-08
1.75925e-07
-3.17661e-08
9.59872e-09
1.75537e-07
8.39483e-09
1.70956e-07
3.19473e-09
1.21843e-07
1.8665e-08
4.76846e-08
4.10431e-08
1.4675e-09
6.70754e-08
-3.53046e-08
9.51312e-08
-6.6788e-08
1.26101e-07
-9.64932e-08
-1.2513e-07
1.60776e-07
-2.40272e-08
1.88257e-07
1.1696e-08
-3.65598e-08
1.88071e-07
-2.95684e-08
1.63966e-07
-9.33159e-09
1.01606e-07
1.34332e-08
2.49195e-08
4.48738e-08
-2.9973e-08
7.71509e-08
-6.75818e-08
1.1158e-07
-1.01217e-07
1.4971e-07
-1.34623e-07
-1.68858e-07
1.93437e-07
-9.31651e-08
2.07894e-07
7.35281e-08
-9.88569e-08
1.93763e-07
-7.46989e-08
1.39807e-07
-3.60461e-08
6.29533e-08
2.1593e-09
-1.3286e-08
3.24237e-08
-6.02373e-08
6.64159e-08
-1.01574e-07
1.09275e-07
-1.44076e-07
1.60347e-07
-1.85695e-07
-2.29643e-07
2.21133e-07
-1.59748e-07
2.23427e-07
1.44215e-07
-1.37117e-07
1.71131e-07
-9.17924e-08
9.44825e-08
-4.99009e-08
2.10618e-08
-2.21131e-08
-4.10739e-08
1.12949e-08
-9.36456e-08
5.53875e-08
-1.45667e-07
1.12412e-07
-2.01101e-07
1.82526e-07
-2.55809e-07
-3.08404e-07
2.61286e-07
-1.7725e-07
1.95483e-07
2.05194e-07
-1.34343e-07
1.28224e-07
-1.00609e-07
6.0749e-08
-7.47512e-08
-4.79502e-09
-4.63581e-08
-6.94666e-08
-3.05066e-09
-1.36953e-07
5.77757e-08
-2.06493e-07
1.32164e-07
-2.75489e-07
2.16646e-07
-3.40292e-07
-3.98407e-07
3.06649e-07
-1.58207e-07
1.68124e-07
1.85567e-07
-1.3437e-07
1.04386e-07
-1.14907e-07
4.12865e-08
-9.09856e-08
-2.87169e-08
-5.30408e-08
-1.07411e-07
2.41492e-09
-1.92408e-07
7.36353e-08
-2.77713e-07
1.56279e-07
-3.58132e-07
2.4523e-07
-4.29242e-07
-4.92055e-07
3.38878e-07
-1.20297e-07
1.54296e-07
1.34125e-07
-1.12913e-07
9.70018e-08
-1.02043e-07
3.04168e-08
-8.19723e-08
-4.8787e-08
-4.33652e-08
-1.46018e-07
1.47306e-08
-2.50504e-07
8.71049e-08
-3.50088e-07
1.70373e-07
-4.414e-07
2.63809e-07
-5.22678e-07
-5.92856e-07
3.6461e-07
-6.00757e-08
1.49669e-07
6.47027e-08
-5.81257e-08
9.50512e-08
-5.72305e-08
2.95219e-08
-4.64143e-08
-5.96028e-08
-1.2218e-08
-1.80214e-07
4.08786e-08
-3.03601e-07
1.05599e-07
-4.14808e-07
1.88735e-07
-5.24536e-07
2.88812e-07
-6.22755e-07
-7.01162e-07
3.97117e-07
3.98915e-08
1.4465e-07
-3.48728e-08
4.03073e-08
9.46353e-08
3.63937e-08
3.34356e-08
3.53423e-08
-5.85516e-08
6.48194e-08
-2.09691e-07
9.67508e-08
-3.35532e-07
1.44335e-07
-4.62392e-07
2.29579e-07
-6.0978e-07
3.37534e-07
-7.30709e-07
-8.12811e-07
4.49182e-07
1.60074e-07
1.33938e-07
-1.49361e-07
1.66338e-07
8.83703e-08
1.64302e-07
3.54724e-08
1.58339e-07
-5.25892e-08
1.61469e-07
-2.12821e-07
1.63796e-07
-3.37859e-07
2.04691e-07
-5.03287e-07
3.11009e-07
-7.16097e-07
4.23679e-07
-8.43379e-07
-9.15925e-07
5.26793e-07
2.56643e-07
1.18926e-07
-2.41631e-07
2.65822e-07
7.9191e-08
2.67127e-07
3.4167e-08
2.54766e-07
-4.02274e-08
2.26879e-07
-1.84934e-07
2.26435e-07
-3.37415e-07
3.17601e-07
-5.94453e-07
4.3344e-07
-8.31938e-07
5.31568e-07
-9.41507e-07
-9.98622e-07
6.14265e-07
3.04043e-07
1.05353e-07
-2.90469e-07
3.09787e-07
7.34459e-08
3.02108e-07
4.18466e-08
2.64758e-07
-2.87635e-09
2.54984e-07
-1.75159e-07
3.22731e-07
-4.05162e-07
4.50564e-07
-7.22286e-07
5.51866e-07
-9.3324e-07
6.27479e-07
-1.01712e-06
-1.05866e-06
6.8752e-07
3.25602e-07
9.25664e-08
-3.12815e-07
3.32528e-07
6.65188e-08
3.33489e-07
4.08863e-08
3.44063e-07
-1.34495e-08
3.91235e-07
-2.22331e-07
4.81988e-07
-4.95915e-07
5.97327e-07
-8.37625e-07
6.63635e-07
-9.99548e-07
7.07836e-07
-1.06132e-06
-1.09506e-06
7.44238e-07
3.46997e-07
7.53335e-08
-3.29764e-07
3.62843e-07
5.06715e-08
3.8204e-07
2.16895e-08
4.31941e-07
-6.33503e-08
5.15614e-07
-3.06004e-07
6.28121e-07
-6.08422e-07
7.11406e-07
-9.2091e-07
7.43637e-07
-1.03178e-06
7.63425e-07
-1.08111e-06
-1.11432e-06
7.82677e-07
3.7038e-07
4.90292e-08
-3.44075e-07
4.00332e-07
2.0719e-08
4.38712e-07
-1.66905e-08
5.09186e-07
-1.33824e-07
6.02369e-07
-3.99187e-07
7.31265e-07
-7.37319e-07
7.7348e-07
-9.63126e-07
7.85756e-07
-1.04405e-06
7.94382e-07
-1.08974e-06
-1.12495e-06
8.05018e-07
3.84019e-07
1.23428e-08
-3.47332e-07
4.30576e-07
-2.58391e-08
4.93054e-07
-7.91687e-08
5.75578e-07
-2.16348e-07
6.85807e-07
-5.09416e-07
7.81897e-07
-8.33409e-07
7.96756e-07
-9.77984e-07
8.00455e-07
-1.04775e-06
8.06948e-07
-1.09623e-06
-1.13346e-06
8.15462e-07
3.74996e-07
-3.25916e-08
-3.30061e-07
4.3468e-07
-8.55234e-08
5.1043e-07
-1.54919e-07
6.06735e-07
-3.12653e-07
7.37869e-07
-6.40551e-07
7.83452e-07
-8.78992e-07
7.93233e-07
-9.87765e-07
7.99828e-07
-1.05435e-06
8.09494e-07
-1.1059e-06
-1.14292e-06
8.18954e-07
3.56939e-07
-7.93419e-08
-3.10188e-07
4.20457e-07
-1.49041e-07
5.13888e-07
-2.4835e-07
6.41112e-07
-4.39876e-07
7.41445e-07
-7.40884e-07
7.68551e-07
-9.06097e-07
7.80305e-07
-9.99519e-07
7.94057e-07
-1.0681e-06
8.08105e-07
-1.11994e-06
-1.15308e-06
8.18262e-07
3.31715e-07
-1.25452e-07
-2.85605e-07
3.90939e-07
-2.08266e-07
4.98575e-07
-3.55987e-07
6.45376e-07
-5.86676e-07
7.16505e-07
-8.12013e-07
7.45718e-07
-9.3531e-07
7.67305e-07
-1.02111e-06
7.87779e-07
-1.08857e-06
8.04374e-07
-1.13654e-06
-1.16259e-06
8.13886e-07
2.74651e-07
-1.74984e-07
-2.25119e-07
3.67747e-07
-3.01362e-07
5.20921e-07
-5.09161e-07
6.49691e-07
-7.15446e-07
6.96889e-07
-8.59211e-07
7.24802e-07
-9.63223e-07
7.51281e-07
-1.04759e-06
7.75151e-07
-1.11244e-06
7.92686e-07
-1.15407e-06
-1.17126e-06
8.01355e-07
2.37762e-07
-2.43066e-07
-1.6968e-07
3.77135e-07
-4.40736e-07
5.18812e-07
-6.50837e-07
5.96618e-07
-7.93252e-07
6.40344e-07
-9.02937e-07
6.78515e-07
-1.00139e-06
7.1467e-07
-1.08374e-06
7.44437e-07
-1.14221e-06
7.64616e-07
-1.17425e-06
-1.18092e-06
7.74269e-07
2.06844e-07
-3.57749e-07
-9.21614e-08
3.51478e-07
-5.85371e-07
4.4328e-07
-7.42639e-07
5.05255e-07
-8.55227e-07
5.62078e-07
-9.59759e-07
6.1641e-07
-1.05573e-06
6.62767e-07
-1.1301e-06
6.97149e-07
-1.17659e-06
7.19393e-07
-1.1965e-06
-1.19267e-06
7.31148e-07
1.84896e-07
-5.11604e-07
-3.10411e-08
2.91089e-07
-6.91564e-07
3.60031e-07
-8.11581e-07
4.26504e-07
-9.21701e-07
4.95074e-07
-1.02833e-06
5.56971e-07
-1.11762e-06
6.04742e-07
-1.17787e-06
6.3771e-07
-1.20956e-06
6.58926e-07
-1.21771e-06
-1.2051e-06
6.71351e-07
1.52132e-07
-6.15942e-07
-4.7793e-08
2.24194e-07
-7.63628e-07
2.94536e-07
-8.81923e-07
3.69278e-07
-9.96442e-07
4.41097e-07
-1.10015e-06
4.99468e-07
-1.176e-06
5.40998e-07
-1.2194e-06
5.69471e-07
-1.23804e-06
5.89872e-07
-1.23811e-06
-1.22071e-06
6.05481e-07
9.00156e-08
-7.09502e-07
3.54493e-09
1.70405e-07
-8.44018e-07
2.49773e-07
-9.6129e-07
3.25393e-07
-1.07206e-06
3.90178e-07
-1.16493e-06
4.37151e-07
-1.22297e-06
4.6883e-07
-1.25108e-06
4.91613e-07
-1.26082e-06
5.10615e-07
-1.25712e-06
-1.23932e-06
5.29227e-07
7.99713e-08
-7.96262e-07
6.78856e-09
1.55925e-07
-9.19972e-07
2.25163e-07
-1.03053e-06
2.8815e-07
-1.13505e-06
3.37321e-07
-1.2141e-06
3.69481e-07
-1.25513e-06
3.90578e-07
-1.27217e-06
4.06688e-07
-1.27693e-06
4.21721e-07
-1.27215e-06
-1.2565e-06
4.38902e-07
8.96173e-08
-8.52668e-07
-3.32118e-08
1.44275e-07
-9.7463e-07
1.97949e-07
-1.0842e-06
2.46574e-07
-1.18368e-06
2.79887e-07
-1.24742e-06
2.99151e-07
-1.27439e-06
3.11487e-07
-1.28451e-06
3.21443e-07
-1.28688e-06
3.31646e-07
-1.28235e-06
-1.26951e-06
3.44662e-07
7.08643e-08
-8.96656e-07
-2.68767e-08
1.16218e-07
-1.01998e-06
1.62443e-07
-1.13043e-06
2.00354e-07
-1.22159e-06
2.20727e-07
-1.26779e-06
2.30443e-07
-1.28411e-06
2.36152e-07
-1.29022e-06
2.40788e-07
-1.29152e-06
2.46029e-07
-1.28759e-06
-1.27696e-06
2.53471e-07
4.24806e-08
-9.36048e-07
-3.08869e-09
8.44007e-08
-1.0619e-06
1.26155e-07
-1.17218e-06
1.54023e-07
-1.24945e-06
1.64278e-07
-1.27804e-06
1.67556e-07
-1.28739e-06
1.6849e-07
-1.29115e-06
1.68677e-07
-1.29171e-06
1.69303e-07
-1.28822e-06
-1.27924e-06
1.71587e-07
1.55747e-08
-9.67186e-07
1.55637e-08
5.41311e-08
-1.10046e-06
9.13817e-08
-1.20943e-06
1.09899e-07
-1.26797e-06
1.13566e-07
-1.28171e-06
1.13338e-07
-1.28716e-06
1.11343e-07
-1.28916e-06
1.08361e-07
-1.28872e-06
1.05608e-07
-1.28546e-06
-1.27819e-06
1.04556e-07
-1.90129e-08
-1.01003e-06
6.18531e-08
2.31082e-08
-1.14258e-06
5.82131e-08
-1.24454e-06
7.0432e-08
-1.28019e-06
7.11159e-08
-1.2824e-06
6.95299e-08
-1.28557e-06
6.59753e-08
-1.2856e-06
6.06764e-08
-1.28343e-06
5.4978e-08
-1.27977e-06
-1.27394e-06
5.07241e-08
-3.14847e-08
-1.0539e-06
7.5354e-08
6.75736e-09
-1.18082e-06
3.5231e-08
-1.27301e-06
4.15088e-08
-1.28647e-06
4.02462e-08
-1.28113e-06
3.78474e-08
-1.28317e-06
3.35824e-08
-1.28134e-06
2.66787e-08
-1.27652e-06
1.83219e-08
-1.27141e-06
-1.26635e-06
1.07388e-08
-2.70166e-08
-1.0948e-06
6.79198e-08
3.60984e-09
-1.21145e-06
2.38054e-08
-1.29321e-06
2.50556e-08
-1.28772e-06
2.17679e-08
-1.27785e-06
1.80063e-08
-1.27941e-06
1.35367e-08
-1.27687e-06
5.7831e-09
-1.26877e-06
-4.969e-09
-1.26066e-06
-1.25531e-06
-1.60145e-08
-7.03408e-09
-1.12487e-06
3.71106e-08
1.4129e-08
-1.23261e-06
2.49783e-08
-1.30406e-06
2.06261e-08
-1.28337e-06
1.42478e-08
-1.27147e-06
7.79944e-09
-1.27296e-06
3.19817e-09
-1.27227e-06
-4.27246e-09
-1.2613e-06
-1.71202e-08
-1.24781e-06
-1.24016e-06
-3.22645e-08
2.18811e-08
-1.11402e-06
-3.27375e-08
3.15555e-08
-1.24229e-06
3.22901e-08
-1.30479e-06
2.20935e-08
-1.27317e-06
1.26674e-08
-1.26204e-06
3.26898e-09
-1.26357e-06
-1.742e-09
-1.26726e-06
-6.28458e-09
-1.25676e-06
-1.99023e-08
-1.23419e-06
-1.2193e-06
-4.0764e-08
3.00831e-08
-1.06808e-06
-7.60166e-08
4.09692e-08
-1.25317e-06
3.59844e-08
-1.29981e-06
2.26834e-08
-1.25987e-06
1.14574e-08
-1.25081e-06
2.06254e-11
-1.25213e-06
-6.8816e-09
-1.26035e-06
-4.58618e-09
-1.25905e-06
-1.25531e-08
-1.22622e-06
-1.18722e-06
-4.46345e-08
2.14015e-08
-1.00247e-06
-8.70169e-08
4.33013e-08
-1.27507e-06
3.51244e-08
-1.29163e-06
2.12311e-08
-1.24598e-06
9.80442e-09
-1.23939e-06
-1.95562e-09
-1.24037e-06
-1.43773e-08
-1.24793e-06
-6.68102e-09
-1.26675e-06
8.08895e-09
-1.24099e-06
-1.12966e-06
-4.94742e-08
6.61989e-09
-9.83584e-08
3.95889e-08
2.90032e-08
1.82447e-08
9.89804e-09
1.28378e-09