/*--------------------------------*- C++ -*----------------------------------*\
  =========                 |
  \\      /  F ield         | OpenFOAM: The Open Source CFD Toolbox
   \\    /   O peration     | Website:  https://openfoam.org
    \\  /    A nd           | Version:  8
     \\/     M anipulation  |
\*---------------------------------------------------------------------------*/
FoamFile
{
    version     2.0;
    format      ascii;
    class       volVectorField;
    location    "4.5";
    object      U;
}
// * * * * * * * * * * * * * * * * * * * * * * * * * * * * * * * * * * * * * //

dimensions      [0 1 -1 0 0 0 0];

internalField   nonuniform List<vector> 
9150
(
(0.0537005 -0.428937 0)
(0.0878893 -0.622321 0)
(0.0731745 -0.631451 0)
(0.0486855 -0.643716 0)
(0.0171039 -0.654433 0)
(-0.0169771 -0.654451 0)
(-0.0485817 -0.643763 0)
(-0.0731012 -0.631498 0)
(-0.0878493 -0.62237 0)
(-0.0536867 -0.429023 0)
(0.0406484 -0.522789 0)
(0.0573151 -0.625693 0)
(0.0421216 -0.613209 0)
(0.029427 -0.62245 0)
(0.0105337 -0.628861 0)
(-0.0104484 -0.62887 0)
(-0.0293548 -0.622474 0)
(-0.0420664 -0.613234 0)
(-0.0572766 -0.62571 0)
(-0.0406319 -0.522847 0)
(0.0251545 -0.557979 0)
(0.0324312 -0.613849 0)
(0.02303 -0.604473 0)
(0.0172773 -0.609986 0)
(0.00627217 -0.613192 0)
(-0.00621761 -0.613196 0)
(-0.0172302 -0.609997 0)
(-0.022994 -0.604486 0)
(-0.0324023 -0.613853 0)
(-0.0251399 -0.55801 0)
(0.015294 -0.584722 0)
(0.0174206 -0.607491 0)
(0.0117356 -0.601139 0)
(0.0088788 -0.603279 0)
(0.00325612 -0.604399 0)
(-0.00322542 -0.6044 0)
(-0.0088519 -0.603283 0)
(-0.0117149 -0.601144 0)
(-0.0174029 -0.60749 0)
(-0.0152846 -0.584734 0)
(0.00623854 -0.597158 0)
(0.00553785 -0.601406 0)
(0.0035856 -0.60004 0)
(0.00267965 -0.600347 0)
(0.000996916 -0.600483 0)
(-0.000986956 -0.600483 0)
(-0.00267089 -0.600347 0)
(-0.00357884 -0.600041 0)
(-0.00553178 -0.601405 0)
(-0.00623519 -0.597159 0)
(0.469082 -1.16088 1.60625e-24)
(0.283286 -1.0855 0)
(0.16368 -1.06888 0)
(0.0927314 -1.0573 0)
(0.0310655 -1.05278 0)
(-0.0296603 -1.05299 0)
(-0.0914773 -1.05789 0)
(-0.162646 -1.06979 0)
(-0.282566 -1.08671 0)
(-0.469381 -1.16258 -1.62576e-24)
(0.33401 -0.84389 4.45459e-25)
(0.287473 -0.936556 0)
(0.188619 -0.936591 0)
(0.108521 -0.936518 0)
(0.0361309 -0.938955 0)
(-0.0353381 -0.939098 0)
(-0.107838 -0.93691 0)
(-0.188102 -0.937142 0)
(-0.287293 -0.937241 0)
(-0.334223 -0.844762 -4.4931e-25)
(0.278824 -0.70223 7.22366e-26)
(0.259159 -0.804601 0)
(0.178342 -0.817374 0)
(0.104791 -0.828209 0)
(0.0350787 -0.836358 0)
(-0.0346018 -0.836442 0)
(-0.104389 -0.82844 0)
(-0.178073 -0.817694 0)
(-0.259082 -0.804957 0)
(-0.278908 -0.702619 -7.33121e-26)
(0.199551 -0.55414 2.84521e-25)
(0.216625 -0.709415 0)
(0.154433 -0.725796 0)
(0.0914661 -0.741935 0)
(0.0306841 -0.753866 0)
(-0.0303889 -0.753918 0)
(-0.0912231 -0.742074 0)
(-0.154274 -0.725971 0)
(-0.216583 -0.709598 0)
(-0.199589 -0.554363 -2.84318e-25)
(0.118339 -0.44546 -4.57904e-25)
(0.156184 -0.644302 -6.55052e-25)
(0.116772 -0.663745 -2.22304e-25)
(0.0709947 -0.681165 -1.45756e-25)
(0.0240557 -0.694172 -8.43402e-27)
(-0.0238645 -0.694203 -8.23683e-27)
(-0.0708387 -0.681246 -1.45261e-25)
(-0.116669 -0.663837 -2.22113e-25)
(-0.156147 -0.644396 -6.54993e-25)
(-0.118342 -0.445588 -4.58035e-25)
(0.0321748 -0.878277 0)
(-0.0222435 -1.33743 0)
(0.0293236 -1.27744 0)
(0.00417638 -1.22847 0)
(0.00696323 -1.22513 0)
(0.00080862 -1.22624 0)
(0.0091704 -1.22707 0)
(-0.0194555 -1.26982 0)
(0.043253 -1.34123 0)
(-0.0165476 -0.94486 0)
(0.0562969 -0.887166 0)
(-0.0134742 -1.33396 0)
(0.0276723 -1.27263 0)
(0.00722401 -1.22581 0)
(0.00400462 -1.22313 0)
(0.0025821 -1.22421 0)
(0.00354146 -1.22543 0)
(-0.0202348 -1.27092 0)
(0.0273491 -1.33653 0)
(-0.0482221 -0.919175 0)
(0.0810563 -0.932954 0)
(-0.0177364 -1.34729 0)
(0.0188213 -1.2754 0)
(0.0101 -1.2319 0)
(0.00255236 -1.22678 0)
(0.00278749 -1.22735 0)
(-0.0031536 -1.23234 0)
(-0.0145156 -1.27662 0)
(0.0266784 -1.3499 0)
(-0.0765335 -0.953033 0)
(0.146719 -1.07303 0)
(0.00677056 -1.36609 0)
(0.0158835 -1.27108 0)
(0.0239082 -1.22576 0)
(0.00802691 -1.21456 0)
(-0.00394123 -1.21487 0)
(-0.0200223 -1.22679 0)
(-0.0134543 -1.27248 0)
(-0.000837474 -1.36758 0)
(-0.144472 -1.08319 0)
(0.299555 -1.21565 0)
(0.129495 -1.3215 0)
(0.0697456 -1.20977 0)
(0.0572713 -1.16838 0)
(0.0213526 -1.15628 0)
(-0.0189221 -1.15657 0)
(-0.0552435 -1.1694 0)
(-0.0677485 -1.21112 0)
(-0.126683 -1.32284 0)
(-0.299264 -1.22009 0)
(0.0357854 0.001386 0)
(0.0345546 0.00139939 0)
(0.0333116 0.0014058 0)
(0.0320617 0.00140948 0)
(0.0308085 0.00140823 0)
(0.029557 0.00140145 0)
(0.0283128 0.00138972 0)
(0.0270803 0.00137412 0)
(0.0258634 0.00135517 0)
(0.0246659 0.00133308 0)
(0.0351388 0.00366471 0)
(0.0339208 0.00372074 0)
(0.0326841 0.00375982 0)
(0.0314345 0.0037843 0)
(0.0301776 0.00379298 0)
(0.0289193 0.00378418 0)
(0.0276657 0.0037602 0)
(0.0264219 0.00372225 0)
(0.0251934 0.00367103 0)
(0.0239853 0.00360684 0)
(0.0309006 0.00605337 0)
(0.0296928 0.00614547 0)
(0.0284755 0.00620989 0)
(0.0272537 0.00624738 0)
(0.0260327 0.00625803 0)
(0.0248173 0.00624071 0)
(0.0236123 0.00619762 0)
(0.0224229 0.00612995 0)
(0.021254 0.0060385 0)
(0.0201108 0.00592392 0)
(0.0263637 0.00845272 0)
(0.0251514 0.00855976 0)
(0.0239367 0.00862931 0)
(0.0227248 0.00866201 0)
(0.0215198 0.00865894 0)
(0.0203262 0.00861902 0)
(0.0191485 0.00854382 0)
(0.0179915 0.0084343 0)
(0.01686 0.00829128 0)
(0.0157591 0.00811564 0)
(0.0215599 0.0108824 0)
(0.0203378 0.0109926 0)
(0.0191182 0.0110569 0)
(0.0179052 0.0110752 0)
(0.0167033 0.0110487 0)
(0.0155171 0.0109768 0)
(0.0143508 0.0108604 0)
(0.0132091 0.0107002 0)
(0.0120969 0.0104969 0)
(0.0110189 0.0102514 0)
(0.0164507 0.01334 0)
(0.0152132 0.0134453 0)
(0.0139811 0.0134968 0)
(0.0127586 0.013494 0)
(0.0115499 0.0134373 0)
(0.0103595 0.0133266 0)
(0.00919184 0.0131623 0)
(0.00805152 0.0129448 0)
(0.00694344 0.0126745 0)
(0.00587263 0.0123521 0)
(0.0110148 0.0158356 0)
(0.00975578 0.0159319 0)
(0.0085034 0.0159664 0)
(0.00726188 0.0159383 0)
(0.0060357 0.0158474 0)
(0.0048294 0.0156936 0)
(0.00364754 0.0154771 0)
(0.00249472 0.0151978 0)
(0.00137582 0.0148558 0)
(0.000296225 0.0144509 0)
(0.00523871 0.0183818 0)
(0.0039493 0.0184686 0)
(0.0026661 0.0184851 0)
(0.0013939 0.01843 0)
(0.00013774 0.0183027 0)
(-0.00109736 0.0181032 0)
(-0.00230681 0.0178319 0)
(-0.00348657 0.0174888 0)
(-0.00463217 0.0170724 0)
(-0.00573775 0.016581 0)
(-0.000896148 0.0209971 0)
(-0.00222814 0.0210773 0)
(-0.00355589 0.0210774 0)
(-0.00487361 0.0209955 0)
(-0.00617502 0.0208304 0)
(-0.00745364 0.0205828 0)
(-0.00870478 0.0202555 0)
(-0.00992654 0.0198491 0)
(-0.0111165 0.0193594 0)
(-0.0122682 0.0187798 0)
(-0.00742041 0.0237077 0)
(-0.00881134 0.0237879 0)
(-0.0102014 0.023776 0)
(-0.011584 0.0236692 0)
(-0.0129507 0.023464 0)
(-0.0142905 0.0231623 0)
(-0.0155974 0.0227759 0)
(-0.0168757 0.0223122 0)
(-0.01813 0.0217588 0)
(-0.0193525 0.0210935 0)
(-0.0143879 0.0265482 0)
(-0.015858 0.0266373 0)
(-0.0173295 0.0266195 0)
(-0.0187995 0.0264967 0)
(-0.0202604 0.0262505 0)
(-0.0216873 0.0258718 0)
(-0.0230641 0.025409 0)
(-0.0244098 0.024908 0)
(-0.0257497 0.0243285 0)
(-0.0270753 0.0235924 0)
(-0.0219008 0.0295681 0)
(-0.0234748 0.0296688 0)
(-0.0250344 0.0296433 0)
(-0.0265964 0.0295465 0)
(-0.0281858 0.0292982 0)
(-0.0297499 0.0287828 0)
(-0.0312325 0.0281879 0)
(-0.032669 0.0276755 0)
(-0.0341088 0.0271027 0)
(-0.0355321 0.0262836 0)
(-0.0301538 0.032855 0)
(-0.0318859 0.0329324 0)
(-0.0335373 0.032817 0)
(-0.0351086 0.0327269 0)
(-0.0366872 0.0325521 0)
(-0.0383195 0.0320016 0)
(-0.0399877 0.0313382 0)
(-0.0416177 0.0306996 0)
(-0.0431496 0.030006 0)
(-0.0446405 0.0291429 0)
(-0.0394841 0.0366093 0)
(-0.0413576 0.0364477 0)
(-0.0430622 0.0360421 0)
(-0.044679 0.035872 0)
(-0.0462547 0.0356547 0)
(-0.0478127 0.0352022 0)
(-0.0494238 0.0346287 0)
(-0.0511019 0.0339371 0)
(-0.0528268 0.0331832 0)
(-0.0545715 0.0323278 0)
(-0.0488649 0.0402831 0)
(-0.0505621 0.0399455 0)
(-0.0523157 0.039484 0)
(-0.0541329 0.0392441 0)
(-0.055942 0.0389019 0)
(-0.0577574 0.0385155 0)
(-0.0596236 0.0380798 0)
(-0.0615511 0.037528 0)
(-0.0635392 0.0369088 0)
(-0.0655951 0.0361083 0)
(-0.0588556 0.0435495 0)
(-0.0606029 0.0433663 0)
(-0.0624878 0.0431919 0)
(-0.0644988 0.0430532 0)
(-0.0666154 0.0428294 0)
(-0.0688155 0.0425436 0)
(-0.0710393 0.0421822 0)
(-0.0732798 0.041744 0)
(-0.0756045 0.0413438 0)
(-0.0780344 0.0407272 0)
(-0.069703 0.0471416 0)
(-0.0718253 0.0472584 0)
(-0.0740906 0.0473584 0)
(-0.0764679 0.0474783 0)
(-0.078977 0.0475728 0)
(-0.0815782 0.0474138 0)
(-0.0841551 0.0470543 0)
(-0.0867187 0.0467602 0)
(-0.0893039 0.0464417 0)
(-0.0918082 0.0457289 0)
(-0.0816968 0.0518623 0)
(-0.0844939 0.0522953 0)
(-0.0873652 0.0525227 0)
(-0.0902136 0.0528429 0)
(-0.0930294 0.0530396 0)
(-0.0957812 0.0528317 0)
(-0.0984291 0.0522507 0)
(-0.100968 0.0518893 0)
(-0.103445 0.0513578 0)
(-0.105935 0.0505275 0)
(-0.0955919 0.0579951 0)
(-0.0989326 0.0585544 0)
(-0.10224 0.0587082 0)
(-0.10541 0.0587818 0)
(-0.108359 0.0585969 0)
(-0.111186 0.0582187 0)
(-0.11402 0.0575037 0)
(-0.116734 0.0568489 0)
(-0.119354 0.0563584 0)
(-0.122243 0.0561111 0)
(-0.111382 0.0651905 0)
(-0.115124 0.0654979 0)
(-0.118726 0.0654988 0)
(-0.122168 0.0650482 0)
(-0.125397 0.0644558 0)
(-0.128571 0.0641065 0)
(-0.131992 0.0639536 0)
(-0.135424 0.0627853 0)
(-0.138617 0.0622499 0)
(-0.141591 0.0620861 0)
(-0.128516 0.0732673 0)
(-0.132726 0.0731254 0)
(-0.13668 0.0728349 0)
(-0.140517 0.0723071 0)
(-0.144257 0.0717231 0)
(-0.147907 0.0713578 0)
(-0.151276 0.0710866 0)
(-0.154645 0.0695495 0)
(-0.158154 0.0687258 0)
(-0.161896 0.0687952 0)
(-0.1472 0.0826381 0)
(-0.152058 0.0818587 0)
(-0.15648 0.081344 0)
(-0.160535 0.0804781 0)
(-0.164107 0.079027 0)
(-0.167013 0.0775787 0)
(-0.169619 0.0772468 0)
(-0.172698 0.076621 0)
(-0.176426 0.0767807 0)
(-0.181235 0.0781882 0)
(-0.166994 0.094689 0)
(-0.172779 0.0919263 0)
(-0.176811 0.0891337 0)
(-0.179554 0.0868306 0)
(-0.181964 0.084644 0)
(-0.184501 0.0828983 0)
(-0.187229 0.0829249 0)
(-0.19019 0.083292 0)
(-0.193877 0.0854045 0)
(-0.198906 0.0901861 0)
(-0.186795 0.10632 0)
(-0.190857 0.0999625 0)
(-0.194042 0.0949497 0)
(-0.196951 0.0916005 0)
(-0.199506 0.0889547 0)
(-0.201677 0.0874217 0)
(-0.20368 0.0874761 0)
(-0.205874 0.0893585 0)
(-0.209076 0.0947942 0)
(-0.214381 0.104025 0)
(-0.199828 0.113934 0)
(-0.203153 0.106994 0)
(-0.206961 0.101915 0)
(-0.211008 0.09778 0)
(-0.214717 0.0944386 0)
(-0.218041 0.0924048 0)
(-0.221168 0.0922466 0)
(-0.224032 0.0949268 0)
(-0.22667 0.102125 0)
(-0.228672 0.112179 0)
(-0.206941 0.120051 0)
(-0.210605 0.11514 0)
(-0.216012 0.112278 0)
(-0.221855 0.107414 0)
(-0.226438 0.102608 0)
(-0.230125 0.0998006 0)
(-0.233509 0.0989799 0)
(-0.236421 0.100549 0)
(-0.23821 0.104686 0)
(-0.238027 0.109559 0)
(-0.212534 0.127149 0)
(-0.217419 0.125825 0)
(-0.223008 0.12377 0)
(-0.226985 0.116306 0)
(-0.229875 0.10999 0)
(-0.232577 0.106157 0)
(-0.234867 0.104216 0)
(-0.23633 0.103838 0)
(-0.236427 0.104407 0)
(-0.234888 0.104447 0)
(-0.212603 0.13653 0)
(-0.217196 0.135616 0)
(-0.22025 0.131132 0)
(-0.222811 0.122057 0)
(-0.225215 0.115111 0)
(-0.227354 0.110313 0)
(-0.22897 0.10702 0)
(-0.229816 0.104758 0)
(-0.22971 0.102976 0)
(-0.228639 0.101022 0)
(-0.21033 0.144743 0)
(-0.212486 0.141136 0)
(-0.214026 0.134766 0)
(-0.215416 0.126047 0)
(-0.216902 0.118936 0)
(-0.218354 0.113406 0)
(-0.219409 0.108973 0)
(-0.219864 0.105236 0)
(-0.219598 0.101805 0)
(-0.218588 0.0983008 0)
(-0.205133 0.147964 0)
(-0.205653 0.143283 0)
(-0.205973 0.136183 0)
(-0.206438 0.128127 0)
(-0.207173 0.12127 0)
(-0.20793 0.115322 0)
(-0.208389 0.110029 0)
(-0.208367 0.105138 0)
(-0.207763 0.100396 0)
(-0.20654 0.0955626 0)
(-0.199892 0.147173 0)
(-0.198714 0.142673 0)
(-0.198037 0.135924 0)
(-0.197761 0.128767 0)
(-0.197733 0.122133 0)
(-0.19765 0.115855 0)
(-0.19731 0.109846 0)
(-0.196571 0.103991 0)
(-0.195357 0.0981524 0)
(-0.193633 0.0921927 0)
(-0.195052 0.14381 0)
(-0.193281 0.139639 0)
(-0.191706 0.133925 0)
(-0.190425 0.127537 0)
(-0.189281 0.120989 0)
(-0.188075 0.114405 0)
(-0.186672 0.107817 0)
(-0.184979 0.1012 0)
(-0.182933 0.0944943 0)
(-0.180504 0.0876279 0)
(-0.189023 0.140523 0)
(-0.187167 0.135722 0)
(-0.185001 0.130203 0)
(-0.182776 0.124004 0)
(-0.180547 0.117429 0)
(-0.178258 0.11062 0)
(-0.175832 0.103639 0)
(-0.17321 0.0965011 0)
(-0.17035 0.0891904 0)
(-0.167229 0.0816781 0)
(-0.180627 0.136862 0)
(-0.178343 0.131249 0)
(-0.175817 0.12525 0)
(-0.1731 0.118842 0)
(-0.170241 0.112082 0)
(-0.167251 0.105038 0)
(-0.164118 0.0977544 0)
(-0.160829 0.0902522 0)
(-0.157376 0.0825365 0)
(-0.153755 0.0746022 0)
(-0.170192 0.132247 0)
(-0.167621 0.126094 0)
(-0.164787 0.119611 0)
(-0.161726 0.112811 0)
(-0.158474 0.10572 0)
(-0.155058 0.0983723 0)
(-0.151495 0.090797 0)
(-0.147803 0.0830157 0)
(-0.144005 0.0750391 0)
(-0.140123 0.0668704 0)
(-0.158167 0.12716 0)
(-0.155397 0.120441 0)
(-0.152359 0.113452 0)
(-0.149085 0.106212 0)
(-0.145608 0.0987454 0)
(-0.14196 0.0910806 0)
(-0.138177 0.0832472 0)
(-0.134295 0.0752711 0)
(-0.130361 0.0671713 0)
(-0.126427 0.0589556 0)
(-0.14496 0.121763 0)
(-0.142077 0.114482 0)
(-0.138937 0.10699 0)
(-0.13557 0.0993111 0)
(-0.132008 0.0914744 0)
(-0.128287 0.0835141 0)
(-0.124447 0.0754688 0)
(-0.120533 0.067379 0)
(-0.116607 0.059286 0)
(-0.112757 0.0512231 0)
(-0.130901 0.116201 0)
(-0.127986 0.108396 0)
(-0.124839 0.100436 0)
(-0.121491 0.0923503 0)
(-0.117976 0.0841744 0)
(-0.114329 0.0759499 0)
(-0.110592 0.0677265 0)
(-0.106805 0.0595676 0)
(-0.103012 0.0515595 0)
(-0.0992898 0.0438277 0)
(-0.116226 0.110627 0)
(-0.113347 0.102368 0)
(-0.110272 0.094013 0)
(-0.107034 0.0856021 0)
(-0.103674 0.0771797 0)
(-0.100237 0.0687959 0)
(-0.0967726 0.060507 0)
(-0.093335 0.0523775 0)
(-0.0899871 0.0444837 0)
(-0.0867761 0.0369161 0)
(-0.101071 0.105129 0)
(-0.0982457 0.0964785 0)
(-0.0952457 0.0877953 0)
(-0.0921038 0.0791301 0)
(-0.0888583 0.0705394 0)
(-0.0855536 0.0620827 0)
(-0.0822377 0.0538209 0)
(-0.0789577 0.0458113 0)
(-0.0757579 0.0380987 0)
(-0.0726942 0.030701 0)
(-0.0856208 0.0997317 0)
(-0.082859 0.0907214 0)
(-0.0799318 0.0817364 0)
(-0.0768713 0.0728394 0)
(-0.0737165 0.0640993 0)
(-0.0705143 0.0555877 0)
(-0.0673188 0.0473768 0)
(-0.0641913 0.0395365 0)
(-0.0612044 0.0321317 0)
(-0.058446 0.0252232 0)
(-0.0700973 0.0944595 0)
(-0.0674007 0.0850983 0)
(-0.0645348 0.0758177 0)
(-0.0615311 0.0666963 0)
(-0.05843 0.05782 0)
(-0.0552821 0.0492783 0)
(-0.0521475 0.0411612 0)
(-0.0490968 0.0335567 0)
(-0.0462117 0.026547 0)
(-0.0435821 0.0202045 0)
(-0.0547747 0.0893266 0)
(-0.0521443 0.0795949 0)
(-0.049328 0.0699966 0)
(-0.0463567 0.0606294 0)
(-0.0432732 0.0516003 0)
(-0.0401326 0.0430201 0)
(-0.0370011 0.0350008 0)
(-0.0339562 0.0276525 0)
(-0.0310851 0.0210796 0)
(-0.0284885 0.0153743 0)
(-0.0399751 0.08435 0)
(-0.0374148 0.0742051 0)
(-0.0346405 0.0642446 0)
(-0.0316833 0.0545906 0)
(-0.0285908 0.0453778 0)
(-0.0254266 0.0367437 0)
(-0.0222669 0.0288251 0)
(-0.0192009 0.0217606 0)
(-0.0163342 0.0156734 0)
(-0.0137615 0.0106269 0)
(-0.0260468 0.0795483 0)
(-0.0235608 0.0689262 0)
(-0.0208192 0.0585343 0)
(-0.0178494 0.0485277 0)
(-0.0147027 0.0390853 0)
(-0.011452 0.0303775 0)
(-0.00818202 0.0225581 0)
(-0.00499468 0.0157816 0)
(-0.00199151 0.0101714 0)
(0.000765569 0.00570351 0)
(-0.0133675 0.074939 0)
(-0.0109698 0.0637501 0)
(-0.00826447 0.0528219 0)
(-0.00526808 0.042346 0)
(-0.00202487 0.0325655 0)
(0.00138755 0.0236955 0)
(0.00488884 0.0158816 0)
(0.00838854 0.00929639 0)
(0.0117524 0.00411521 0)
(0.0148228 0.000284955 0)
(-0.0023489 0.0705849 0)
(-8.23566e-05 0.0587256 0)
(0.00254795 0.0471509 0)
(0.00552028 0.0360885 0)
(0.00878977 0.0258135 0)
(0.0123167 0.0165636 0)
(0.0160735 0.00850985 0)
(0.0199146 0.00200002 0)
(0.02359 -0.00262477 0)
(0.0268824 -0.0055988 0)
(0.00666974 0.0665889 0)
(0.00872182 0.053946 0)
(0.0112009 0.0415921 0)
(0.0141111 0.0298044 0)
(0.0174239 0.0188759 0)
(0.0210613 0.00911879 0)
(0.0248935 0.000816824 0)
(0.028743 -0.00559557 0)
(0.0324975 -0.00977822 0)
(0.0360074 -0.0119239 0)
(0.0133096 0.0631906 0)
(0.0149402 0.04969 0)
(0.0170402 0.036407 0)
(0.0196645 0.0236977 0)
(0.022793 0.0119554 0)
(0.0263305 0.00160587 0)
(0.0301411 -0.00693186 0)
(0.0340738 -0.0132979 0)
(0.0379514 -0.0172351 0)
(0.0415724 -0.0186327 0)
(0.0173912 0.060861 0)
(0.0182914 0.0464948 0)
(0.019691 0.0321361 0)
(0.0217352 0.0182767 0)
(0.0244232 0.00550807 0)
(0.0276425 -0.00562407 0)
(0.0312293 -0.0146359 0)
(0.0350051 -0.0211241 0)
(0.0387717 -0.0247812 0)
(0.0423038 -0.0254273 0)
(0.0188599 0.0602423 0)
(0.0186014 0.0451676 0)
(0.0188299 0.0296293 0)
(0.0198346 0.0142374 0)
(0.0217574 0.000116356 0)
(0.0242895 -0.0120062 0)
(0.0272385 -0.0216584 0)
(0.0304374 -0.0283956 0)
(0.0336787 -0.0318652 0)
(0.0367337 -0.0318775 0)
(0.0177334 0.0621588 0)
(0.0158776 0.0475146 0)
(0.0140325 0.0301121 0)
(0.0137481 0.0120555 0)
(0.0145923 -0.00346517 0)
(0.0158477 -0.0166164 0)
(0.0174565 -0.027001 0)
(0.019328 -0.0341236 0)
(0.0212247 -0.0375779 0)
(0.0228839 -0.0371726 0)
(0.0128015 0.0671154 0)
(0.00978604 0.0528558 0)
(0.00692782 0.0324756 0)
(0.00526845 0.0131729 0)
(0.00370498 -0.00315992 0)
(0.00251951 -0.0172159 0)
(0.00167937 -0.028346 0)
(0.00102471 -0.0358576 0)
(0.000227599 -0.039132 0)
(-0.00079026 -0.0375942 0)
(0.0010016 0.0750172 0)
(-0.00441185 0.0585867 0)
(-0.00705556 0.0366246 0)
(-0.00937585 0.0175861 0)
(-0.0125393 0.000955636 0)
(-0.0158554 -0.0132023 0)
(-0.0193138 -0.0244491 0)
(-0.0230505 -0.0318646 0)
(-0.0269544 -0.0344052 0)
(-0.0298273 -0.0314461 0)
(0.000100184 0.0859652 0)
(-0.00596009 0.0685829 0)
(-0.0118302 0.0462088 0)
(-0.0183717 0.0275497 0)
(-0.0251855 0.0110139 0)
(-0.0319176 -0.00283913 0)
(-0.0388398 -0.0137323 0)
(-0.0461145 -0.0207165 0)
(-0.0530247 -0.0224739 0)
(-0.0583083 -0.0181478 0)
(-0.00856424 0.0965942 0)
(-0.0142863 0.0797007 0)
(-0.0197059 0.0602987 0)
(-0.0268713 0.0425301 0)
(-0.0345953 0.0266373 0)
(-0.0425602 0.0133516 0)
(-0.0507024 0.00297673 0)
(-0.0588981 -0.00371572 0)
(-0.0668074 -0.00584335 0)
(-0.0732908 -0.00298166 0)
(-0.00402292 0.111347 0)
(-0.011986 0.0930077 0)
(-0.0194271 0.0745983 0)
(-0.0275179 0.0579674 0)
(-0.0350612 0.0425774 0)
(-0.0421432 0.0290481 0)
(-0.0483768 0.0179381 0)
(-0.053454 0.00985638 0)
(-0.0570049 0.00521806 0)
(-0.0584359 0.00396984 0)
(0.000105493 0.126146 0)
(-0.00731178 0.110479 0)
(-0.0171183 0.09234 0)
(-0.0265601 0.0732819 0)
(-0.032336 0.0560984 0)
(-0.0370766 0.0400686 0)
(-0.0402348 0.0259101 0)
(-0.0415781 0.0141118 0)
(-0.0408534 0.00485787 0)
(-0.0377243 -0.00196919 0)
(0.00154838 0.138379 0)
(-0.0047334 0.129069 0)
(-0.016519 0.113765 0)
(-0.0252804 0.0853236 0)
(-0.0279736 0.064258 0)
(-0.0295536 0.0446042 0)
(-0.0292931 0.026793 0)
(-0.027205 0.0111086 0)
(-0.023236 -0.00243282 0)
(-0.0172572 -0.0140157 0)
(0.00429162 0.15113 0)
(-0.00230347 0.14667 0)
(-0.0138207 0.13315 0)
(-0.0180905 0.0928554 0)
(-0.0187125 0.0659096 0)
(-0.0175624 0.0423168 0)
(-0.0145149 0.0210495 0)
(-0.0097036 0.00198413 0)
(-0.0031695 -0.0150397 0)
(0.0051201 -0.0302364 0)
(0.017447 0.161711 0)
(0.0138589 0.160858 0)
(0.00456434 0.148532 0)
(-0.000563533 0.0985225 0)
(-0.00204154 0.0646472 0)
(-0.000149842 0.0365045 0)
(0.00419479 0.0112662 0)
(0.0106483 -0.0113935 0)
(0.0190477 -0.0319009 0)
(0.0293578 -0.0506028 0)
(0.0263626 0.164754 0)
(0.0264469 0.164732 0)
(0.0236702 0.162747 0)
(0.0162304 0.107328 0)
(0.0126157 0.0647979 0)
(0.0143381 0.0309446 0)
(0.0205378 0.000181857 0)
(0.0292955 -0.0273016 0)
(0.0399995 -0.0521673 0)
(0.0527016 -0.0750782 0)
(0.0136098 0.169509 0)
(0.00897111 0.169381 0)
(0.00244087 0.172733 0)
(-0.000381271 0.119809 0)
(0.00701128 0.0572971 0)
(0.0149882 0.0163757 0)
(0.0259243 -0.0188204 0)
(0.0399169 -0.0503033 0)
(0.0549004 -0.0790036 0)
(0.0712404 -0.10591 0)
(-0.00868958 0.180899 0)
(-0.0143492 0.181256 0)
(-0.0192861 0.174023 0)
(-0.0139691 0.12293 0)
(0.00150877 0.0440771 0)
(0.0164074 -0.0132218 0)
(0.0305218 -0.0514241 0)
(0.0460801 -0.082845 0)
(0.0646074 -0.113225 0)
(0.0851298 -0.143539 0)
(-0.0403919 0.19756 0)
(-0.0494371 0.196923 0)
(-0.0476304 0.160333 0)
(-0.0302636 0.0897812 0)
(-0.00885105 0.00220254 0)
(0.0102826 -0.0474608 0)
(0.0245984 -0.0835926 0)
(0.0426566 -0.119325 0)
(0.0661476 -0.155481 0)
(0.0942455 -0.193925 0)
(-0.0770233 0.223382 0)
(-0.0793713 0.194316 0)
(-0.0608263 0.117161 0)
(-0.0338884 0.0314166 0)
(-0.0177644 -0.0294923 0)
(-0.00330871 -0.073681 0)
(0.0153368 -0.118919 0)
(0.0403437 -0.167599 0)
(0.0725818 -0.216008 0)
(0.110049 -0.264998 0)
(-0.102033 0.217062 0)
(-0.0781224 0.142348 0)
(-0.0580265 0.0689324 0)
(-0.0445957 0.00847743 0)
(-0.0306754 -0.0508647 0)
(-0.0141202 -0.111033 0)
(0.0120024 -0.172295 0)
(0.0459564 -0.234849 0)
(0.0860455 -0.295843 0)
(0.130482 -0.352545 0)
(-0.0866171 0.175755 0)
(-0.0732131 0.111054 0)
(-0.0621741 0.0511149 0)
(-0.0523012 -0.0154855 0)
(-0.0377445 -0.087369 0)
(-0.0147508 -0.163021 0)
(0.0171703 -0.240398 0)
(0.0564543 -0.316532 0)
(0.100048 -0.384558 0)
(0.145545 -0.444037 0)
(-0.0637901 0.15854 0)
(-0.0581178 0.0999526 0)
(-0.0544964 0.0338315 0)
(-0.0475381 -0.0414782 0)
(-0.0333 -0.127148 0)
(-0.00971657 -0.221327 0)
(0.0242807 -0.315284 0)
(0.0633952 -0.40014 0)
(0.107414 -0.474395 0)
(0.156509 -0.540182 0)
(-0.0306819 0.150054 0)
(-0.0296528 0.0934257 0)
(-0.0302889 0.026128 0)
(-0.0273746 -0.0565884 0)
(-0.0169855 -0.164297 0)
(0.00547615 -0.280933 0)
(0.0347772 -0.385407 0)
(0.0717564 -0.483114 0)
(0.118012 -0.571182 0)
(0.170946 -0.64571 0)
(0.0193181 0.146712 0)
(0.0195083 0.0935331 0)
(0.0175872 0.0292096 0)
(0.0179667 -0.062421 0)
(0.0223087 -0.202868 0)
(0.0384507 -0.329679 0)
(0.0579923 -0.444314 0)
(0.0910138 -0.564427 0)
(0.140089 -0.674534 0)
(0.196563 -0.757568 0)
(0.0774686 0.141104 0)
(0.0794715 0.0931665 0)
(0.0828135 0.0342165 0)
(0.0821021 -0.0674616 0)
(0.0787438 -0.222481 0)
(0.0765362 -0.345535 0)
(0.0852359 -0.485855 0)
(0.13021 -0.658791 0)
(0.184481 -0.788088 0)
(0.237072 -0.868106 0)
(0.124669 0.127898 0)
(0.128256 0.0851327 0)
(0.132844 0.0353662 0)
(0.13043 -0.0454197 0)
(0.126917 -0.18937 0)
(0.0980154 -0.316495 0)
(0.122045 -0.53375 0)
(0.200275 -0.776082 0)
(0.245854 -0.897679 0)
(0.285491 -0.963004 0)
(0.148897 0.112033 0)
(0.15163 0.0765621 0)
(0.152932 0.0408601 0)
(0.149454 -0.0108771 0)
(0.12435 -0.174632 0)
(0.122705 -0.36977 0)
(0.188743 -0.653896 0)
(0.263916 -0.888463 0)
(0.300692 -0.986744 0)
(0.328025 -1.03496 0)
(0.159835 0.0991003 0)
(0.163001 0.0710833 0)
(0.16624 0.0441868 0)
(0.168159 -0.00203859 0)
(0.17768 -0.190971 0)
(0.206305 -0.445644 0)
(0.277464 -0.779177 0)
(0.322221 -0.975092 0)
(0.34574 -1.04675 0)
(0.362449 -1.08241 0)
(0.169324 0.0856827 0)
(0.175301 0.0614828 0)
(0.183062 0.0352493 0)
(0.198628 -0.0302867 0)
(0.234335 -0.258105 0)
(0.281348 -0.54717 0)
(0.349348 -0.893181 0)
(0.365312 -1.02197 0)
(0.376963 -1.07521 0)
(0.386247 -1.10769 0)
(0.178568 0.0648529 0)
(0.189199 0.03929 0)
(0.203256 0.0069461 0)
(0.233198 -0.0954238 0)
(0.278936 -0.349856 0)
(0.342462 -0.661228 0)
(0.381259 -0.949795 0)
(0.389962 -1.04196 0)
(0.394883 -1.08711 0)
(0.399656 -1.12073 0)
(0.182828 0.0333437 0)
(0.199116 0.0017955 0)
(0.220199 -0.0409286 0)
(0.265639 -0.172821 0)
(0.321111 -0.44841 0)
(0.381662 -0.807253 0)
(0.392235 -0.973123 0)
(0.39918 -1.0457 0)
(0.401938 -1.09242 0)
(0.40552 -1.12905 0)
(0.176597 -0.00805213 0)
(0.198159 -0.05272 0)
(0.222024 -0.115291 0)
(0.278624 -0.272723 0)
(0.355864 -0.565527 0)
(0.381294 -0.86354 0)
(0.393647 -0.984717 0)
(0.39855 -1.05006 0)
(0.40232 -1.09998 0)
(0.407281 -1.13783 0)
(0.167067 -0.0557016 0)
(0.19272 -0.117512 0)
(0.220679 -0.199706 0)
(0.285433 -0.349578 0)
(0.362706 -0.71273 0)
(0.378591 -0.895679 0)
(0.387717 -0.990833 0)
(0.393808 -1.0588 0)
(0.400728 -1.1119 0)
(0.407204 -1.14799 0)
(0.152873 -0.103036 0)
(0.179717 -0.178436 0)
(0.216792 -0.290392 0)
(0.28494 -0.511733 0)
(0.347989 -0.778809 0)
(0.369895 -0.919457 0)
(0.378914 -1.00832 0)
(0.388706 -1.07719 0)
(0.398582 -1.12784 0)
(0.405568 -1.15801 0)
(0.122056 -0.150359 0)
(0.155975 -0.243517 0)
(0.223639 -0.419064 0)
(0.295472 -0.666561 0)
(0.340106 -0.837086 0)
(0.357979 -0.946768 0)
(0.369365 -1.03195 0)
(0.38186 -1.09888 0)
(0.39283 -1.14446 0)
(0.39971 -1.16659 0)
(0.0992629 -0.199579 0)
(0.147115 -0.34881 0)
(0.230509 -0.596875 0)
(0.281629 -0.763894 0)
(0.310512 -0.879149 0)
(0.330534 -0.978017 0)
(0.348837 -1.0624 0)
(0.365679 -1.12557 0)
(0.378474 -1.16339 0)
(0.385969 -1.17569 0)
(0.0679831 -0.269731 0)
(0.141243 -0.529969 0)
(0.200308 -0.709197 0)
(0.238807 -0.825101 0)
(0.267244 -0.928089 0)
(0.295178 -1.02553 0)
(0.321003 -1.10546 0)
(0.34145 -1.15911 0)
(0.355472 -1.18542 0)
(0.363716 -1.18669 0)
(0.0510649 -0.45156 0)
(0.12013 -0.652908 0)
(0.163957 -0.778407 0)
(0.196843 -0.885315 0)
(0.230629 -0.991724 0)
(0.264278 -1.08632 0)
(0.292192 -1.15494 0)
(0.312135 -1.1941 0)
(0.325233 -1.20744 0)
(0.333361 -1.19828 0)
(0.0474086 -0.576917 0)
(0.0945264 -0.728107 0)
(0.129528 -0.842936 0)
(0.165962 -0.957386 0)
(0.203739 -1.06502 0)
(0.237133 -1.14932 0)
(0.26186 -1.20122 0)
(0.278666 -1.22544 0)
(0.29041 -1.22836 0)
(0.299419 -1.21207 0)
(0.025629 -0.66475 0)
(0.0640768 -0.8013 0)
(0.104733 -0.922506 0)
(0.144746 -1.03698 0)
(0.181039 -1.1364 0)
(0.20892 -1.20351 0)
(0.227727 -1.23827 0)
(0.240613 -1.25128 0)
(0.250946 -1.2485 0)
(0.260412 -1.23005 0)
(0.0273046 -0.754602 0)
(0.0573567 -0.886638 0)
(0.0946766 -1.00027 0)
(0.129806 -1.10749 0)
(0.158761 -1.19382 0)
(0.178322 -1.24278 0)
(0.190659 -1.2642 0)
(0.199571 -1.2706 0)
(0.20764 -1.26587 0)
(0.214308 -1.24889 0)
(0.0339712 -0.830435 0)
(0.056779 -0.951362 0)
(0.0850185 -1.06009 0)
(0.112907 -1.16228 0)
(0.133876 -1.23437 0)
(0.145833 -1.2676 0)
(0.152943 -1.28029 0)
(0.158477 -1.28339 0)
(0.163697 -1.27861 0)
(0.166094 -1.26457 0)
(0.0250933 -0.876646 0)
(0.045074 -0.998588 0)
(0.0695312 -1.10859 0)
(0.0929816 -1.20517 0)
(0.107247 -1.26053 0)
(0.113406 -1.28122 0)
(0.116791 -1.28875 0)
(0.119486 -1.2904 0)
(0.121666 -1.28617 0)
(0.120862 -1.27439 0)
(0.01043 -0.917882 0)
(0.0300424 -1.04157 0)
(0.0532234 -1.15217 0)
(0.0726443 -1.23787 0)
(0.0811034 -1.2749 0)
(0.0832499 -1.28686 0)
(0.0841455 -1.29155 0)
(0.084506 -1.29248 0)
(0.0840761 -1.28879 0)
(0.0815239 -1.27892 0)
(-0.00373449 -0.950115 0)
(0.0157978 -1.08052 0)
(0.0379218 -1.19123 0)
(0.0528107 -1.26051 0)
(0.0569856 -1.28087 0)
(0.0568656 -1.28772 0)
(0.0563693 -1.29061 0)
(0.0550876 -1.29081 0)
(0.0528692 -1.28752 0)
(0.0495292 -1.27944 0)
(-0.0219172 -0.987103 0)
(-0.000494109 -1.12147 0)
(0.0228597 -1.22807 0)
(0.034062 -1.27563 0)
(0.0363521 -1.28259 0)
(0.035232 -1.28657 0)
(0.0341706 -1.28763 0)
(0.0318 -1.28653 0)
(0.028267 -1.28324 0)
(0.024521 -1.27679 0)
(-0.026486 -1.03187 0)
(-0.00807308 -1.16339 0)
(0.0138477 -1.26113 0)
(0.0199499 -1.28506 0)
(0.0215409 -1.28245 0)
(0.0194283 -1.28472 0)
(0.0182134 -1.28364 0)
(0.0152259 -1.28032 0)
(0.0106703 -1.27621 0)
(0.00654686 -1.271 0)
(-0.0193176 -1.07794 0)
(-0.0082237 -1.19979 0)
(0.0110855 -1.28641 0)
(0.0114166 -1.28906 0)
(0.0132536 -1.28045 0)
(0.00946365 -1.28187 0)
(0.00820052 -1.27912 0)
(0.00507792 -1.27274 0)
(-0.00028384 -1.26658 0)
(-0.00484253 -1.26177 0)
(-0.00198245 -1.11777 0)
(-0.00148984 -1.22576 0)
(0.0149932 -1.30135 0)
(0.00855988 -1.28706 0)
(0.0109103 -1.27546 0)
(0.0044616 -1.27688 0)
(0.0028763 -1.27443 0)
(8.71156e-05 -1.26461 0)
(-0.00569837 -1.25453 0)
(-0.0106519 -1.24875 0)
(0.017845 -1.12911 0)
(0.00859245 -1.23819 0)
(0.0230889 -1.30565 0)
(0.00866504 -1.27889 0)
(0.0116542 -1.26709 0)
(0.00236372 -1.26892 0)
(0.000270074 -1.2701 0)
(-0.00184296 -1.25812 0)
(-0.00666169 -1.24111 0)
(-0.011447 -1.23132 0)
(0.0238391 -1.09634 0)
(0.0105003 -1.24528 0)
(0.0295477 -1.30278 0)
(0.00826571 -1.26647 0)
(0.012188 -1.2563 0)
(0.000750693 -1.25801 0)
(-0.00144495 -1.26504 0)
(-0.00383439 -1.25629 0)
(-0.00388778 -1.2288 0)
(-0.00708093 -1.20699 0)
(0.0217649 -1.03452 0)
(0.00437429 -1.25949 0)
(0.033271 -1.29548 0)
(0.00699587 -1.25235 0)
(0.0114461 -1.24458 0)
(-0.00107742 -1.24558 0)
(-0.00174794 -1.25492 0)
(-0.00954109 -1.26043 0)
(0.0023516 -1.22363 0)
(-0.000527055 -1.16766 0)
(0.0238627 -0.966251 0)
(-0.00776979 -1.2856 0)
(0.0328358 -1.28585 0)
(0.00505079 -1.23877 0)
(0.00959798 -1.23353 0)
(-0.00110388 -1.23433 0)
(0.00329018 -1.2391 0)
(-0.017605 -1.26819 0)
(0.0158555 -1.25078 0)
(-0.00404136 -1.0904 0)
(0.0234209 0.00130691 0)
(0.022137 0.00127459 0)
(0.020893 0.00123636 0)
(0.0196945 0.00119187 0)
(0.0185471 0.00114151 0)
(0.0174556 0.00108685 0)
(0.0164236 0.00102876 0)
(0.015454 0.000968414 0)
(0.0145476 0.000910708 0)
(0.0137054 0.000849212 0)
(0.0129289 0.000784143 0)
(0.0122178 0.000722816 0)
(0.0115684 0.000666127 0)
(0.0109765 0.000614304 0)
(0.0104373 0.000567509 0)
(0.00994551 0.00052558 0)
(0.00949717 0.000485687 0)
(0.00908697 0.000466541 0)
(0.00868683 0.000525683 0)
(0.00830082 0.000552968 0)
(0.00793058 0.000537092 0)
(0.00757661 0.00050809 0)
(0.00724347 0.000453182 0)
(0.00691783 0.000446043 0)
(0.00659361 0.000452804 0)
(0.00625205 0.000484926 0)
(0.00586132 0.000587048 0)
(0.005409 0.000642629 0)
(0.00491054 0.000670637 0)
(0.00437391 0.000723536 0)
(0.0037919 0.000781895 0)
(0.00312631 0.000880295 0)
(0.00236581 0.000997013 0)
(0.00153304 0.00106425 0)
(0.000636565 0.00106668 0)
(-0.000260381 0.00095059 0)
(-0.00102095 0.000623727 0)
(-0.0014513 5.23346e-05 0)
(-0.00141451 -0.000658484 0)
(-0.000842652 -0.00126307 0)
(0.022728 0.00352539 0)
(0.0214338 0.00342391 0)
(0.0201848 0.00330671 0)
(0.0189873 0.00317364 0)
(0.0178469 0.00302679 0)
(0.0167678 0.00286889 0)
(0.0157541 0.00270187 0)
(0.0148092 0.00252828 0)
(0.0139361 0.00235143 0)
(0.0131359 0.00217153 0)
(0.0124078 0.001992 0)
(0.0117498 0.00181794 0)
(0.0111601 0.00165314 0)
(0.010635 0.00150035 0)
(0.0101692 0.00136175 0)
(0.00975593 0.00123871 0)
(0.00938624 0.00113097 0)
(0.00905427 0.0010389 0)
(0.00876105 0.000963297 0)
(0.00850202 0.000901659 0)
(0.00826531 0.000853892 0)
(0.00803706 0.000817798 0)
(0.00780693 0.000798057 0)