/*--------------------------------*- C++ -*----------------------------------*\
  =========                 |
  \\      /  F ield         | OpenFOAM: The Open Source CFD Toolbox
   \\    /   O peration     | Website:  https://openfoam.org
    \\  /    A nd           | Version:  8
     \\/     M anipulation  |
\*---------------------------------------------------------------------------*/
FoamFile
{
    version     2.0;
    format      ascii;
    class       volVectorField;
    location    "7.65";
    object      U;
}
// * * * * * * * * * * * * * * * * * * * * * * * * * * * * * * * * * * * * * //

dimensions      [0 1 -1 0 0 0 0];

internalField   nonuniform List<vector> 
9150
(
(0.00483741 -0.0783628 0)
(0.0130866 -0.0974177 0)
(0.0108798 -0.10457 0)
(0.0085141 -0.108053 0)
(0.00175621 -0.109628 0)
(-0.00327396 -0.10916 0)
(-0.00936292 -0.107487 0)
(-0.0109176 -0.104359 0)
(-0.013137 -0.0972699 0)
(-0.00479808 -0.078272 0)
(0.00587815 -0.09199 0)
(0.00858404 -0.100541 0)
(0.00742262 -0.102249 0)
(0.00446744 -0.104334 0)
(0.0024077 -0.105184 0)
(-0.00107347 -0.105492 0)
(-0.00424197 -0.104942 0)
(-0.00742009 -0.102248 0)
(-0.00862301 -0.100468 0)
(-0.00588781 -0.0919444 0)
(0.00172376 -0.0954497 0)
(0.0045616 -0.0989935 0)
(0.00369442 -0.10114 0)
(0.00320692 -0.101908 0)
(0.00056048 -0.102693 0)
(-0.00139599 -0.102342 0)
(-0.00343915 -0.101656 0)
(-0.00378963 -0.100968 0)
(-0.00458525 -0.0989439 0)
(-0.00172875 -0.0954236 0)
(0.00173175 -0.0984125 0)
(0.00244681 -0.100405 0)
(0.00220298 -0.100171 0)
(0.00136722 -0.100686 0)
(0.000871088 -0.100889 0)
(-0.000315721 -0.100926 0)
(-0.00130165 -0.100857 0)
(-0.00223318 -0.100221 0)
(-0.00247223 -0.100386 0)
(-0.0017446 -0.0984021 0)
(0.000175841 -0.0994895 0)
(0.000712643 -0.0995832 0)
(0.000435365 -0.100085 0)
(0.000627602 -0.0999042 0)
(0.000125894 -0.100122 0)
(-0.000290376 -0.100104 0)
(-0.000715163 -0.099854 0)
(-0.000499016 -0.0999953 0)
(-0.000716967 -0.0995755 0)
(-0.000179573 -0.0994906 0)
(0.0752237 -0.194253 2.85507e-26)
(0.0493561 -0.184765 0)
(0.0304741 -0.176224 0)
(0.0157195 -0.175731 0)
(0.00439189 -0.176002 0)
(-0.00504367 -0.175448 0)
(-0.0160791 -0.173834 0)
(-0.0306047 -0.176216 0)
(-0.0493398 -0.184733 0)
(-0.0752567 -0.194228 -2.83945e-26)
(0.058389 -0.146597 7.09626e-27)
(0.048623 -0.146489 0)
(0.0284446 -0.156038 0)
(0.0208972 -0.155673 0)
(0.00457711 -0.155086 0)
(-0.00509042 -0.155299 0)
(-0.0208746 -0.157142 0)
(-0.0284182 -0.156181 0)
(-0.0485141 -0.146451 0)
(-0.0583954 -0.146601 -7.10748e-27)
(0.0474699 -0.121423 3.42361e-27)
(0.0428446 -0.131182 0)
(0.0293083 -0.133586 0)
(0.0174234 -0.13781 0)
(0.00676956 -0.140238 0)
(-0.00526654 -0.14054 0)
(-0.0166083 -0.137504 0)
(-0.0291769 -0.133392 0)
(-0.042881 -0.131195 0)
(-0.0474866 -0.121441 -3.33058e-27)
(0.0370388 -0.0993805 6.0007e-27)
(0.0391344 -0.110177 0)
(0.0227886 -0.120751 0)
(0.0172612 -0.125243 0)
(0.00358487 -0.125205 0)
(-0.00565594 -0.125173 0)
(-0.0181931 -0.124237 0)
(-0.0230192 -0.120742 0)
(-0.0391793 -0.110172 0)
(-0.037031 -0.0993896 -6.01465e-27)
(0.0244454 -0.0816454 -1.60349e-26)
(0.0278825 -0.101293 -1.94315e-26)
(0.0198568 -0.108394 -4.94946e-27)
(0.0110558 -0.113906 -4.23783e-27)
(0.00516344 -0.116867 -2.09892e-28)
(-0.00361068 -0.11715 -2.27017e-28)
(-0.0100679 -0.114749 -4.31257e-27)
(-0.0193587 -0.108161 -4.91243e-27)
(-0.027777 -0.101226 -1.93632e-26)
(-0.0243567 -0.0816181 -1.59866e-26)
(0.0187969 -0.146984 0)
(0.0138131 -0.205992 0)
(0.022533 -0.217557 0)
(0.0102796 -0.223027 0)
(0.00705202 -0.225514 0)
(-0.0108897 -0.226491 0)
(-0.0126695 -0.222696 0)
(-0.023721 -0.216409 0)
(-0.0141016 -0.205732 0)
(-0.019155 -0.147564 0)
(0.0161957 -0.166359 0)
(0.00186896 -0.199695 0)
(0.0150317 -0.209512 0)
(0.00210216 -0.213933 0)
(0.00533852 -0.21471 0)
(-0.00427288 -0.215246 0)
(-0.00134625 -0.214676 0)
(-0.0143906 -0.210029 0)
(-0.00173396 -0.199524 0)
(-0.0159411 -0.166058 0)
(0.0143093 -0.172869 0)
(-0.00428159 -0.203787 0)
(0.0104975 -0.20895 0)
(-0.00102767 -0.209558 0)
(0.00395215 -0.210294 0)
(-0.00330624 -0.21051 0)
(0.000872658 -0.209056 0)
(-0.0109163 -0.208654 0)
(0.00422434 -0.203666 0)
(-0.0146104 -0.172727 0)
(0.0184398 -0.195269 0)
(-0.00719345 -0.204366 0)
(0.00917443 -0.210553 0)
(-0.000902183 -0.206744 0)
(0.000639878 -0.206754 0)
(-0.00178401 -0.206421 0)
(0.000420126 -0.206708 0)
(-0.00932802 -0.210525 0)
(0.00714848 -0.204431 0)
(-0.0184608 -0.19542 0)
(0.0358334 -0.217012 0)
(0.0101481 -0.203614 0)
(0.0158665 -0.202505 0)
(0.0121053 -0.195478 0)
(0.00282312 -0.192594 0)
(-0.00126513 -0.193097 0)
(-0.0112557 -0.196417 0)
(-0.0157283 -0.202305 0)
(-0.0100372 -0.203573 0)
(-0.0358452 -0.217022 0)
(-0.0168064 -0.00681113 0)
(-0.0231682 -0.0160873 0)
(-0.0233278 -0.0202722 0)
(-0.0166115 -0.0175385 0)
(-0.0127979 -0.00644865 0)
(-0.0136436 -0.00117542 0)
(-0.0153443 0.00206129 0)
(-0.0183025 0.0068948 0)
(-0.022754 0.0054203 0)
(-0.0265275 -0.000684221 0)
(0.0284728 0.0420393 0)
(0.0197189 0.0312853 0)
(0.0110128 0.0074148 0)
(-0.00550945 -0.0108064 0)
(-0.0132444 0.00122936 0)
(-0.0154519 0.00511613 0)
(-0.0173106 0.0060445 0)
(-0.0179238 0.00987526 0)
(-0.0193083 0.00915278 0)
(-0.0232528 0.005374 0)
(0.0433175 0.0438387 0)
(0.0387734 0.0304039 0)
(0.0359458 0.0327444 0)
(0.0182132 0.0309173 0)
(-0.0109378 0.0181077 0)
(-0.0223847 0.0109233 0)
(-0.0272361 0.0112734 0)
(-0.0279582 0.0129934 0)
(-0.0282054 0.0154007 0)
(-0.0325567 0.0135451 0)
(0.042427 0.0442404 0)
(0.0436935 0.0407607 0)
(0.0437738 0.0444579 0)
(0.0467017 0.0701639 0)
(0.0268102 0.0747171 0)
(-0.00784434 0.0419036 0)
(-0.0295235 0.0169246 0)
(-0.035598 0.00954081 0)
(-0.0356447 0.0188928 0)
(-0.0383184 0.027084 0)
(0.0476104 0.0327777 0)
(0.0495745 0.0319285 0)
(0.0505197 0.0363976 0)
(0.0547467 0.0594695 0)
(0.0574245 0.111968 0)
(0.0352629 0.12497 0)
(-0.00360166 0.0723831 0)
(-0.0278591 0.0204676 0)
(-0.0318253 0.0173557 0)
(-0.0346365 0.0355062 0)
(0.0556244 0.0352367 0)
(0.0582476 0.0371078 0)
(0.0576389 0.0409387 0)
(0.0570716 0.0581474 0)
(0.055862 0.115941 0)
(0.0456899 0.163047 0)
(0.0360603 0.145347 0)
(0.00720138 0.0717691 0)
(-0.0121827 0.0320029 0)
(-0.0169199 0.0407664 0)
(0.0573758 0.0165109 0)
(0.0630106 0.0270945 0)
(0.06014 0.0391705 0)
(0.0546855 0.064425 0)
(0.0463436 0.130114 0)
(0.0391009 0.168068 0)
(0.0374396 0.160144 0)
(0.0303797 0.115589 0)
(0.0149137 0.0601173 0)
(0.00246588 0.056766 0)
(0.0706963 0.00765373 0)
(0.0649662 0.0318404 0)
(0.0536795 0.0527403 0)
(0.0359463 0.0928755 0)
(0.021182 0.153577 0)
(0.0254388 0.163956 0)
(0.0327859 0.156927 0)
(0.034739 0.129486 0)
(0.0278892 0.0831944 0)
(0.0111734 0.084815 0)
(0.0461961 0.027486 0)
(0.0380831 0.0573224 0)
(0.0234151 0.0890652 0)
(0.00865624 0.123457 0)
(0.00591038 0.151397 0)
(0.0161439 0.135373 0)
(0.0247826 0.140895 0)
(0.0279769 0.128264 0)
(0.0169077 0.112891 0)
(0.000314862 0.117314 0)
(-0.0232829 0.0452477 0)
(-0.0235503 0.0795704 0)
(-0.0231583 0.111252 0)
(-0.0199204 0.130063 0)
(-0.0112643 0.1366 0)
(-0.00915005 0.124839 0)
(-0.00809011 0.142851 0)
(-0.00946317 0.140884 0)
(-0.0179124 0.13927 0)
(-0.0217082 0.137525 0)
(-0.0667296 0.0412655 0)
(-0.0681345 0.072472 0)
(-0.0613935 0.10108 0)
(-0.0584785 0.115363 0)
(-0.0505499 0.127532 0)
(-0.0499469 0.135889 0)
(-0.0465693 0.144882 0)
(-0.0453967 0.145745 0)
(-0.0447809 0.142305 0)
(-0.0424525 0.13443 0)
(-0.0816306 0.0474769 0)
(-0.083206 0.0696366 0)
(-0.0792152 0.0884053 0)
(-0.078042 0.102165 0)
(-0.0695591 0.116428 0)
(-0.0679652 0.124039 0)
(-0.063898 0.13391 0)
(-0.0589814 0.138021 0)
(-0.0542919 0.135036 0)
(-0.0511112 0.122582 0)
(-0.0761098 0.0512748 0)
(-0.0797167 0.0701315 0)
(-0.0778952 0.0820091 0)
(-0.0773221 0.0893564 0)
(-0.070259 0.105015 0)
(-0.0648821 0.117776 0)
(-0.0609972 0.122017 0)
(-0.0576141 0.1233 0)
(-0.0530818 0.121412 0)
(-0.0495147 0.114352 0)
(-0.0546348 0.0680264 0)
(-0.0610628 0.0789496 0)
(-0.0644477 0.0832586 0)
(-0.0650922 0.0850796 0)
(-0.0619885 0.0908654 0)
(-0.05827 0.103508 0)
(-0.0523045 0.116561 0)
(-0.0476772 0.119651 0)
(-0.0453343 0.117293 0)
(-0.044096 0.110439 0)
(-0.0410186 0.0709718 0)
(-0.0442946 0.0851807 0)
(-0.0458009 0.0905202 0)
(-0.0479745 0.0917313 0)
(-0.0486159 0.0933651 0)
(-0.0468218 0.0973011 0)
(-0.0409199 0.102182 0)
(-0.0366727 0.108202 0)
(-0.0329902 0.113446 0)
(-0.0311919 0.112827 0)
(-0.0193927 0.0898024 0)
(-0.0298336 0.0932582 0)
(-0.0324988 0.091631 0)
(-0.0340063 0.0884654 0)
(-0.0341264 0.0881133 0)
(-0.0322058 0.0903781 0)
(-0.0279715 0.0949129 0)
(-0.0228363 0.100747 0)
(-0.0190485 0.105243 0)
(-0.0166973 0.108486 0)
(0.0102938 0.104929 0)
(0.00834783 0.108029 0)
(0.00436242 0.10882 0)
(-0.00235144 0.1007 0)
(-0.0104805 0.0911087 0)
(-0.0145968 0.0838526 0)
(-0.0162563 0.0842789 0)
(-0.014628 0.0912053 0)
(-0.00789449 0.0976969 0)
(-0.00426857 0.103952 0)
(0.018628 0.095706 0)
(0.0299589 0.100022 0)
(0.041439 0.10146 0)
(0.0496552 0.113667 0)
(0.0368244 0.124228 0)
(0.0212718 0.112099 0)
(0.00492761 0.0912271 0)
(0.000175818 0.0839583 0)
(0.000268634 0.0846523 0)
(0.00618661 0.0957884 0)
(0.00588822 0.0662349 0)
(0.0205264 0.0690399 0)
(0.0388371 0.0752814 0)
(0.0573229 0.101396 0)
(0.0652857 0.135144 0)
(0.0648506 0.135228 0)
(0.0550756 0.131261 0)
(0.0362695 0.110562 0)
(0.0219148 0.0862213 0)
(0.0228907 0.0868573 0)
(-0.00914037 0.0389253 0)
(0.00228565 0.0283149 0)
(0.0162908 0.0303472 0)
(0.034371 0.0657461 0)
(0.0566287 0.120418 0)
(0.0696853 0.132032 0)
(0.0758109 0.142903 0)
(0.0734459 0.137271 0)
(0.0642382 0.119329 0)
(0.0476846 0.0991826 0)
(-0.00525727 0.0389959 0)
(-0.0101048 0.0163289 0)
(-0.00494347 0.00843234 0)
(0.00578813 0.0275671 0)
(0.0294042 0.0585163 0)
(0.0492654 0.104042 0)
(0.0643089 0.131495 0)
(0.0772321 0.133707 0)
(0.0812349 0.136365 0)
(0.0722794 0.128543 0)
(-0.00544431 0.0433992 0)
(0.00240715 0.0251586 0)
(0.0132133 -0.00145192 0)
(0.0242301 0.00350647 0)
(0.0386942 0.0293189 0)
(0.0477173 0.068951 0)
(0.0646995 0.0838761 0)
(0.0754821 0.111577 0)
(0.0775273 0.139115 0)
(0.0743237 0.146181 0)
(-0.0178591 0.00229067 0)
(0.00406916 -0.0162287 0)
(0.0242211 -0.0342722 0)
(0.0419774 -0.0303679 0)
(0.0542459 0.00596773 0)
(0.0718318 0.0577229 0)
(0.0770064 0.076179 0)
(0.0734366 0.109451 0)
(0.0751593 0.1386 0)
(0.0709671 0.155679 0)
(-0.0423965 -0.0621869 0)
(-0.027324 -0.0673561 0)
(-0.0171007 -0.0718338 0)
(-0.000774598 -0.0745294 0)
(0.0166331 -0.036942 0)
(0.0596575 0.00810491 0)
(0.0775972 0.0729269 0)
(0.0762027 0.108768 0)
(0.0743066 0.139892 0)
(0.0721147 0.161399 0)
(-0.0414518 -0.0690471 0)
(-0.0414605 -0.0733334 0)
(-0.0376441 -0.0845315 0)
(-0.0342198 -0.0940649 0)
(-0.0174966 -0.094136 0)
(-0.0133518 -0.067837 0)
(0.0448027 0.0649474 0)
(0.0698365 0.0957401 0)
(0.0864372 0.14896 0)
(0.0751309 0.180338 0)
(-0.0131632 -0.0628622 0)
(-0.0239677 -0.0570914 0)
(-0.036196 -0.086615 0)
(-0.0404235 -0.0988921 0)
(-0.0413407 -0.103655 0)
(-0.0423151 -0.0980335 0)
(-0.0116602 -0.0685685 0)
(0.0238989 -0.0102329 0)
(0.0678558 0.138092 0)
(0.0741374 0.181966 0)
(-0.0217491 -0.0613357 0)
(-0.0193378 -0.041684 0)
(-0.0211618 -0.0600445 0)
(-0.0381242 -0.0808558 0)
(-0.0484211 -0.0990726 0)
(-0.0507929 -0.104522 0)
(-0.0445516 -0.0981421 0)
(-0.0436094 -0.0616928 0)
(0.0101029 0.0766155 0)
(0.0459096 0.151238 0)
(-0.0280291 -0.0704348 0)
(-0.0279127 -0.0470578 0)
(-0.0314517 -0.0422667 0)
(-0.0389151 -0.0595745 0)
(-0.050189 -0.0748916 0)
(-0.0604189 -0.0986627 0)
(-0.0648984 -0.100744 0)
(-0.0735088 -0.0721112 0)
(-0.0605817 -0.0238776 0)
(-0.0150384 0.0736502 0)
(-0.0208295 -0.0571555 0)
(-0.0253483 -0.0387592 0)
(-0.032593 -0.0353748 0)
(-0.0352248 -0.0540076 0)
(-0.0362798 -0.054825 0)
(-0.0422997 -0.0756789 0)
(-0.0546454 -0.0822258 0)
(-0.0737413 -0.0635055 0)
(-0.0798076 -0.0511897 0)
(-0.0602689 -0.00549517 0)
(-0.00960204 -0.054204 0)
(-0.0117075 -0.0364465 0)
(-0.0185047 -0.016225 0)
(-0.0375024 -0.0418836 0)
(-0.0296901 -0.0614402 0)
(-0.0334782 -0.0637394 0)
(-0.0500989 -0.0544942 0)
(-0.0616787 -0.031917 0)
(-0.0733479 -0.0337251 0)
(-0.074483 -0.0396016 0)
(-0.013226 -0.0313342 0)
(-0.027126 -0.0140391 0)
(-0.0311768 0.0120724 0)
(-0.0230943 -0.0461883 0)
(-0.0226464 -0.0593374 0)
(-0.0349448 -0.0169177 0)
(-0.0635032 -0.0202591 0)
(-0.0652907 -0.0184338 0)
(-0.0632784 -0.0198243 0)
(-0.063161 -0.0336255 0)
(-0.0118817 -0.00557522 0)
(-0.0201982 -0.00851623 0)
(-0.0162083 -0.00954093 0)
(-0.0192518 -0.0489166 0)
(-0.0443769 -0.0348626 0)
(-0.0470947 0.0114386 0)
(-0.0551978 0.000191929 0)
(-0.0579518 -0.0277756 0)
(-0.0520317 -0.0391762 0)
(-0.0444265 -0.0488075 0)
(-0.0092996 -0.000206887 0)
(-0.0100043 -0.0010552 0)
(-0.0151523 0.00317082 0)
(-0.0166806 -0.00191433 0)
(-0.0389841 -0.00441482 0)
(-0.0432029 0.00880853 0)
(-0.0360942 -0.00293032 0)
(-0.0279562 -0.0290268 0)
(-0.027506 -0.0413271 0)
(-0.0270504 -0.0542714 0)
(-0.0251151 -0.00170286 0)
(-0.023411 0.0032535 0)
(-0.0242828 0.00315181 0)
(-0.0206576 0.00737145 0)
(-0.022044 0.0112249 0)
(-0.0206291 0.000542112 0)
(-0.0068678 -0.0267176 0)
(-0.00731369 -0.0344826 0)
(-0.00913522 -0.0434824 0)
(-0.00978449 -0.0472382 0)
(-0.0453061 -0.00951164 0)
(-0.0381309 -0.00298317 0)
(-0.0322945 -0.00309469 0)
(-0.0262278 -0.00538298 0)
(-0.0157706 -0.00576062 0)
(-0.00551529 -0.0195855 0)
(-0.00289496 -0.025257 0)
(-0.00179713 -0.0266211 0)
(-0.000875216 -0.0370361 0)
(0.000929843 -0.0464797 0)
(-0.0795199 -0.026472 0)
(-0.0714943 -0.0198319 0)
(-0.0579525 -0.0180281 0)
(-0.0461601 -0.0253445 0)
(-0.0303464 -0.0279173 0)
(-0.0165622 -0.0303134 0)
(-0.00609262 -0.0333724 0)
(-0.00136523 -0.0385343 0)
(0.00501742 -0.0457841 0)
(0.00592405 -0.0496982 0)
(-0.0835429 -0.0320694 0)
(-0.0742269 -0.043427 0)
(-0.0597993 -0.0587399 0)
(-0.0484754 -0.0640617 0)
(-0.0347178 -0.0684417 0)
(-0.0204541 -0.0701691 0)
(-0.00820898 -0.0537432 0)
(-0.00505482 -0.0517199 0)
(-0.00124593 -0.0545178 0)
(0.000338162 -0.0503139 0)
(-0.0592497 -0.0584502 0)
(-0.0486094 -0.0670421 0)
(-0.0438781 -0.0736926 0)
(-0.0406339 -0.0767396 0)
(-0.0317692 -0.0891085 0)
(-0.0247374 -0.0934053 0)
(-0.0167732 -0.0618875 0)
(-0.0145312 -0.054141 0)
(-0.0103934 -0.0582729 0)
(-0.00567924 -0.0512156 0)
(-0.0277287 -0.0767872 0)
(-0.0250682 -0.0718578 0)
(-0.0222345 -0.0746905 0)
(-0.0219453 -0.0810107 0)
(-0.0195339 -0.0938674 0)
(-0.0202298 -0.0999572 0)
(-0.0185785 -0.0701325 0)
(-0.00680164 -0.0629018 0)
(0.00198184 -0.0683516 0)
(0.00869081 -0.0580136 0)
(0.0181436 -0.0775798 0)
(0.0159386 -0.0746478 0)
(0.0208212 -0.0816065 0)
(0.0289489 -0.0956595 0)
(0.0367794 -0.0925057 0)
(0.0360861 -0.0893143 0)
(0.0309513 -0.0931564 0)
(0.0363644 -0.0919992 0)
(0.0450837 -0.0918885 0)
(0.0522853 -0.0891643 0)
(0.0710436 -0.0850827 0)
(0.072267 -0.083261 0)
(0.0718998 -0.0859389 0)
(0.0653607 -0.0996049 0)
(0.0593474 -0.103127 0)
(0.0611268 -0.0906791 0)
(0.0660866 -0.0872051 0)
(0.0674909 -0.090681 0)
(0.0684269 -0.0953696 0)
(0.0724236 -0.101151 0)
(0.114011 -0.0833209 0)
(0.11429 -0.0678764 0)
(0.105935 -0.065823 0)
(0.0927882 -0.0801238 0)
(0.0850469 -0.0947897 0)
(0.0813194 -0.0989066 0)
(0.0816514 -0.0973698 0)
(0.083031 -0.0955318 0)
(0.0838507 -0.0975632 0)
(0.0836394 -0.105539 0)
(0.124286 -0.105903 0)
(0.126742 -0.0688158 0)
(0.121394 -0.0475474 0)
(0.116068 -0.0513887 0)
(0.109432 -0.0758808 0)
(0.103946 -0.0887358 0)
(0.102605 -0.0912178 0)
(0.0997715 -0.0921524 0)
(0.0980925 -0.096854 0)
(0.0951638 -0.0995029 0)
(0.126176 -0.0865712 0)
(0.115926 -0.058839 0)
(0.113837 -0.0443323 0)
(0.114503 -0.0486189 0)
(0.11577 -0.0732957 0)
(0.111516 -0.084055 0)
(0.108985 -0.0862644 0)
(0.104403 -0.0852339 0)
(0.101654 -0.089992 0)
(0.101943 -0.0964193 0)
(0.125531 -0.0442391 0)
(0.110224 -0.0383771 0)
(0.105762 -0.041147 0)
(0.108512 -0.0538662 0)
(0.106087 -0.0690317 0)
(0.105996 -0.0786473 0)
(0.100112 -0.0811304 0)
(0.100986 -0.0840641 0)
(0.102645 -0.0927878 0)
(0.114397 -0.113041 0)
(0.0838507 -0.0183329 0)
(0.0878744 -0.0242524 0)
(0.0826501 -0.0449966 0)
(0.0836549 -0.0565508 0)
(0.0916429 -0.0638723 0)
(0.0895843 -0.0706462 0)
(0.0943767 -0.0788716 0)
(0.100106 -0.0898323 0)
(0.11182 -0.112572 0)
(0.139686 -0.175143 0)
(0.0279798 -0.0358306 0)
(0.0310663 -0.0282894 0)
(0.0323892 -0.03908 0)
(0.0375015 -0.0632524 0)
(0.0495517 -0.0702352 0)
(0.0664679 -0.0847833 0)
(0.0826873 -0.0952323 0)
(0.0975971 -0.11368 0)
(0.125371 -0.164323 0)
(0.145486 -0.213227 0)
(-0.0438625 -0.0239464 0)
(-0.027897 -0.038939 0)
(-0.00554397 -0.0615539 0)
(0.0108363 -0.0939139 0)
(0.0277769 -0.119156 0)
(0.0472826 -0.135697 0)
(0.0669623 -0.142439 0)
(0.0841256 -0.169454 0)
(0.0997978 -0.210102 0)
(0.102302 -0.235711 0)
(-0.0689044 -0.0782573 0)
(-0.047173 -0.10827 0)
(-0.0189825 -0.120527 0)
(-0.00420748 -0.122938 0)
(0.006493 -0.148152 0)
(0.00874696 -0.155251 0)
(0.0164512 -0.169138 0)
(0.0224629 -0.188803 0)
(0.0166924 -0.210254 0)
(0.00796564 -0.218604 0)
(-0.0928112 -0.126586 0)
(-0.0860315 -0.151544 0)
(-0.0835717 -0.154231 0)
(-0.0775745 -0.149311 0)
(-0.0812767 -0.152986 0)
(-0.0845727 -0.16787 0)
(-0.0890376 -0.17652 0)
(-0.0932364 -0.179088 0)
(-0.0929054 -0.198665 0)
(-0.0854147 -0.215729 0)
(-0.143042 -0.124883 0)
(-0.151618 -0.134726 0)
(-0.161297 -0.130939 0)
(-0.16626 -0.130037 0)
(-0.171088 -0.133932 0)
(-0.171008 -0.138753 0)
(-0.165006 -0.158623 0)
(-0.159139 -0.196414 0)
(-0.146977 -0.233657 0)
(-0.135727 -0.253988 0)
(-0.195805 -0.108875 0)
(-0.207023 -0.109616 0)
(-0.213248 -0.110746 0)
(-0.215192 -0.120705 0)
(-0.217482 -0.138341 0)
(-0.211846 -0.159772 0)
(-0.205659 -0.186156 0)
(-0.20176 -0.214094 0)
(-0.200929 -0.236899 0)
(-0.208422 -0.245831 0)
(-0.257919 -0.087363 0)
(-0.26774 -0.0941538 0)
(-0.269918 -0.109516 0)
(-0.265334 -0.130456 0)
(-0.256 -0.149429 0)
(-0.247726 -0.163588 0)
(-0.240241 -0.189471 0)
(-0.236661 -0.216989 0)
(-0.238136 -0.228062 0)
(-0.242719 -0.232391 0)
(-0.285323 -0.0605468 0)
(-0.29216 -0.0827966 0)
(-0.2972 -0.109666 0)
(-0.295357 -0.150534 0)
(-0.28553 -0.179444 0)
(-0.274063 -0.193358 0)
(-0.263885 -0.212559 0)
(-0.259594 -0.220124 0)
(-0.255646 -0.221497 0)
(-0.252654 -0.219322 0)
(-0.300441 -0.0579566 0)
(-0.304322 -0.0788269 0)
(-0.306351 -0.108948 0)
(-0.308664 -0.155835 0)
(-0.312538 -0.180779 0)
(-0.315372 -0.196657 0)
(-0.310067 -0.216271 0)
(-0.301931 -0.233286 0)
(-0.290853 -0.238604 0)
(-0.273954 -0.232508 0)
(-0.306077 -0.0334367 0)
(-0.312342 -0.0617363 0)
(-0.31866 -0.0947285 0)
(-0.326338 -0.136899 0)
(-0.333919 -0.175553 0)
(-0.334259 -0.207419 0)
(-0.330928 -0.233479 0)
(-0.327028 -0.252786 0)
(-0.320166 -0.265253 0)
(-0.303845 -0.271554 0)
(-0.304987 -0.016172 0)
(-0.319289 -0.0545709 0)
(-0.321032 -0.0800814 0)
(-0.329174 -0.118762 0)
(-0.335317 -0.162815 0)
(-0.338588 -0.204492 0)
(-0.33568 -0.236887 0)
(-0.331242 -0.265336 0)
(-0.326599 -0.293235 0)
(-0.318109 -0.312253 0)
(-0.283718 0.0432196 0)
(-0.295251 -0.0245377 0)
(-0.304654 -0.0698305 0)
(-0.31294 -0.109927 0)
(-0.315383 -0.160897 0)
(-0.319089 -0.213108 0)
(-0.311394 -0.254328 0)
(-0.30529 -0.288726 0)
(-0.300348 -0.310164 0)
(-0.298507 -0.330432 0)
(-0.258681 0.047754 0)
(-0.265996 -0.0193765 0)
(-0.264195 -0.0673169 0)
(-0.258979 -0.116062 0)
(-0.257709 -0.166137 0)
(-0.256003 -0.213481 0)
(-0.249053 -0.259164 0)
(-0.241308 -0.291371 0)
(-0.236656 -0.305358 0)
(-0.239839 -0.321066 0)
(-0.209093 0.0797276 0)
(-0.219982 0.000935855 0)
(-0.225114 -0.0737674 0)
(-0.22476 -0.116251 0)
(-0.222883 -0.154352 0)
(-0.221709 -0.20937 0)
(-0.216581 -0.265302 0)
(-0.203067 -0.296847 0)
(-0.194109 -0.302573 0)
(-0.191827 -0.29949 0)
(-0.228464 0.112579 0)
(-0.222498 0.0187753 0)
(-0.225204 -0.0537799 0)
(-0.224388 -0.0840169 0)
(-0.225403 -0.147872 0)
(-0.218634 -0.212613 0)
(-0.207573 -0.288587 0)
(-0.188832 -0.327306 0)
(-0.176071 -0.326146 0)
(-0.169705 -0.295906 0)
(-0.3631 0.0610022 0)
(-0.359753 -0.00497747 0)
(-0.342446 -0.0701719 0)
(-0.30156 -0.146219 0)
(-0.270142 -0.192925 0)
(-0.217189 -0.267431 0)
(-0.18819 -0.324712 0)
(-0.170299 -0.363733 0)
(-0.157299 -0.3585 0)
(-0.139211 -0.289374 0)
(-0.335206 -0.0217451 0)
(-0.29737 -0.0631923 0)
(-0.233737 -0.150836 0)
(-0.194674 -0.259433 0)
(-0.159793 -0.335073 0)
(-0.115717 -0.399289 0)
(-0.088671 -0.405488 0)
(-0.0739187 -0.383278 0)
(-0.0645873 -0.396569 0)
(-0.0435321 -0.350738 0)
(-0.17028 -0.203397 0)
(-0.179477 -0.245342 0)
(-0.090967 -0.323775 0)
(-0.0262124 -0.330438 0)
(0.00573852 -0.371483 0)
(0.0224808 -0.401011 0)
(0.0301875 -0.416972 0)
(0.0304607 -0.398389 0)
(0.0449208 -0.405156 0)
(0.0513466 -0.393822 0)
(0.113868 -0.0944438 0)
(0.0984421 -0.153597 0)
(0.0737221 -0.304806 0)
(0.101907 -0.404203 0)
(0.0932068 -0.412154 0)
(0.0871955 -0.416027 0)
(0.0949468 -0.415781 0)
(0.0987385 -0.413084 0)
(0.0931355 -0.396811 0)
(0.0932848 -0.380274 0)
(0.206952 -0.130991 0)
(0.213663 -0.218212 0)
(0.207108 -0.260441 0)
(0.215865 -0.331688 0)
(0.186232 -0.382223 0)
(0.160854 -0.408979 0)
(0.150505 -0.411311 0)
(0.14545 -0.401114 0)
(0.138448 -0.382644 0)
(0.129051 -0.367934 0)
(0.24773 -0.116841 0)
(0.267124 -0.177387 0)
(0.274361 -0.240725 0)
(0.268822 -0.308355 0)
(0.261498 -0.352462 0)
(0.240114 -0.372066 0)
(0.216952 -0.375836 0)
(0.196805 -0.374761 0)
(0.179868 -0.35743 0)
(0.161811 -0.330061 0)
(0.269875 -0.18096 0)
(0.290742 -0.213379 0)
(0.309738 -0.268059 0)
(0.314574 -0.314296 0)
(0.299727 -0.340884 0)
(0.279646 -0.339952 0)
(0.255213 -0.328436 0)
(0.232655 -0.311646 0)
(0.212452 -0.295598 0)
(0.177413 -0.255537 0)
(0.316223 -0.210801 0)
(0.337499 -0.25111 0)
(0.343104 -0.284813 0)
(0.34269 -0.298129 0)
(0.332533 -0.300287 0)
(0.31486 -0.287214 0)
(0.281827 -0.28416 0)
(0.262003 -0.273285 0)
(0.24017 -0.236934 0)
(0.168335 -0.12878 0)
(0.336554 -0.278229 0)
(0.34511 -0.285848 0)
(0.348349 -0.288285 0)
(0.347552 -0.285348 0)
(0.339253 -0.279039 0)
(0.327471 -0.266785 0)
(0.30555 -0.251132 0)
(0.291423 -0.214532 0)
(0.259574 -0.124572 0)
(0.147276 0.0266148 0)
(0.340544 -0.289149 0)
(0.342863 -0.289427 0)
(0.343971 -0.284021 0)
(0.337972 -0.274013 0)
(0.321721 -0.250307 0)
(0.29843 -0.236399 0)
(0.28897 -0.218491 0)
(0.281481 -0.175661 0)
(0.265192 -0.0508932 0)
(0.213442 0.129476 0)
(0.300777 -0.305946 0)
(0.298238 -0.296813 0)
(0.29778 -0.276109 0)
(0.282263 -0.240123 0)
(0.256142 -0.210682 0)
(0.228473 -0.192577 0)
(0.22116 -0.171661 0)
(0.220538 -0.129744 0)
(0.230839 0.0182508 0)
(0.269887 0.0781827 0)
(0.248069 -0.289992 0)
(0.239029 -0.269437 0)
(0.216984 -0.229022 0)
(0.188781 -0.187324 0)
(0.175056 -0.162014 0)
(0.168281 -0.162197 0)
(0.159665 -0.179058 0)
(0.166739 -0.184294 0)
(0.201613 -0.154294 0)
(0.288763 -0.0987133 0)
(0.198941 -0.267178 0)
(0.180156 -0.239124 0)
(0.160798 -0.195173 0)
(0.146965 -0.15577 0)
(0.141392 -0.150072 0)
(0.139788 -0.158574 0)
(0.144629 -0.192914 0)
(0.137868 -0.222115 0)
(0.1573 -0.263236 0)
(0.205535 -0.243815 0)
(0.135404 -0.238723 0)
(0.112675 -0.207712 0)
(0.103542 -0.169471 0)
(0.0984193 -0.145158 0)
(0.094368 -0.13817 0)
(0.0854532 -0.139242 0)
(0.0639472 -0.168246 0)
(0.0909405 -0.195702 0)
(0.128008 -0.258864 0)
(0.183335 -0.321674 0)
(0.0408022 -0.184376 0)
(0.0369405 -0.166214 0)
(0.0279509 -0.146481 0)
(0.0213103 -0.136323 0)
(0.0118526 -0.121682 0)
(-0.0133273 -0.116837 0)
(0.00435774 -0.196124 0)
(0.07303 -0.329355 0)
(0.161077 -0.494656 0)
(0.225585 -0.565317 0)
(-0.000435384 -0.171651 0)
(0.01028 -0.174952 0)
(0.0107588 -0.144089 0)
(0.0116983 -0.121647 0)
(0.00877886 -0.096536 0)
(-0.00513606 -0.121467 0)
(0.0675095 -0.371303 0)
(0.141138 -0.55819 0)
(0.192817 -0.620748 0)
(0.22558 -0.622943 0)
(-0.0301004 -0.192523 0)
(-0.00786451 -0.208339 0)
(0.00482608 -0.146025 0)
(0.0150079 -0.127909 0)
(0.0278733 -0.110683 0)
(0.0584034 -0.22174 0)
(0.17279 -0.518826 0)
(0.196614 -0.624579 0)
(0.207978 -0.640004 0)
(0.206756 -0.623161 0)
(-0.0330878 -0.210846 0)
(-0.0241739 -0.251126 0)
(-0.00761427 -0.173409 0)
(0.0237256 -0.161138 0)
(0.0560546 -0.205102 0)
(0.145408 -0.338405 0)
(0.240992 -0.551185 0)
(0.246089 -0.623452 0)
(0.238292 -0.616647 0)
(0.18309 -0.536285 0)
(-0.0131575 -0.223237 0)
(-0.0140059 -0.270692 0)
(-0.0120289 -0.219294 0)
(-0.00300834 -0.234864 0)
(0.0490631 -0.370673 0)
(0.15016 -0.59385 0)
(0.22973 -0.641822 0)
(0.243624 -0.620338 0)
(0.222026 -0.543252 0)
(0.114558 -0.347907 0)
(-0.00527257 -0.22281 0)
(-0.0107758 -0.271437 0)
(0.00449749 -0.228995 0)
(-0.00789562 -0.255523 0)
(0.0586333 -0.605656 0)
(0.115598 -0.756904 0)
(0.171474 -0.739578 0)
(0.170738 -0.632675 0)
(0.0709842 -0.375557 0)
(0.00176905 -0.220891 0)
(-0.017435 -0.244865 0)
(-0.0179132 -0.275662 0)
(-0.0128082 -0.244935 0)
(-0.00681311 -0.257733 0)
(0.0543441 -0.740663 0)
(0.0432805 -0.797989 0)
(0.0765039 -0.735175 0)
(0.0167042 -0.405054 0)
(-0.0445963 -0.242983 0)
(-0.0227944 -0.195458 0)
(-0.0174822 -0.245852 0)
(-0.0264754 -0.255945 0)
(-0.0769855 -0.209714 0)
(-0.0398808 -0.34839 0)
(0.0283914 -0.775389 0)
(-0.00356672 -0.783904 0)
(0.0113458 -0.651543 0)
(-0.073049 -0.231803 0)
(-0.0822737 -0.30508 0)
(-0.0339813 -0.278038 0)
(0.0312109 -0.201598 0)
(0.004989 -0.184564 0)
(-0.097965 -0.141281 0)
(-0.0131748 -0.67535 0)
(0.0250571 -0.781328 0)
(0.00165538 -0.776998 0)
(0.0234294 -0.658475 0)
(-0.00359697 -0.155906 0)
(-0.0512831 -0.337573 0)
(-0.0979766 -0.29126 0)
(0.135392 -0.16319 0)
(0.104919 -0.133397 0)
(-0.0800083 -0.00496143 0)
(0.019214 -0.768937 0)
(0.00807961 -0.772538 0)
(0.000135042 -0.772926 0)
(0.000292601 -0.688806 0)
(0.026024 -0.0982977 0)
(-0.0679638 -0.136946 0)
(-0.188126 -0.157537 0)
(-0.0657017 -0.0662986 0)
(-0.156476 0.211937 0)
(-0.0141967 0.150162 0)
(0.0251154 -0.784743 0)
(0.000753157 -0.732784 0)
(-0.014763 -0.738947 0)
(-0.022913 -0.673866 0)
(-0.0251305 0.0732158 0)
(-0.0279838 -0.0802704 0)
(-0.06325 -0.155362 0)
(-0.226103 0.123315 0)
(-0.184307 0.123982 0)
(0.0362825 -0.579502 0)
(0.00497449 -0.733395 0)
(-0.00401048 -0.715039 0)
(-0.0208472 -0.714571 0)
(-0.0286143 -0.695327 0)
(-0.00551933 -0.0481565 0)
(0.0535431 -0.0952183 0)
(-0.0162151 0.0393348 0)
(-0.140667 -0.111846 0)
(-0.0227041 -0.150901 0)
(0.0306737 -0.546781 0)
(0.0205342 -0.70006 0)
(0.00309783 -0.693303 0)
(-0.00734813 -0.686551 0)
(-0.0270926 -0.697396 0)
(-0.0155626 -0.0975908 0)
(-0.0758286 -0.000159107 0)
(-0.13051 -0.00143721 0)
(-0.0714676 -0.309535 0)
(0.0234545 -0.341102 0)
(0.0399862 -0.549532 0)
(0.0284377 -0.682024 0)
(0.0126236 -0.65691 0)
(-0.0129439 -0.657744 0)
(-0.0213298 -0.67611 0)
(0.00845014 0.076942 0)
(-0.129601 0.225482 0)
(-0.293621 0.0712406 0)
(-0.0177849 -0.403834 0)
(0.0101921 -0.434394 0)
(0.0411685 -0.543428 0)
(0.0214023 -0.643512 0)
(0.00669616 -0.62306 0)
(-0.00694544 -0.623303 0)
(-0.023647 -0.643144 0)
(0.0143786 -0.28141 0)
(0.124806 0.582018 0)
(0.0833679 0.398331 0)
(0.0236322 -0.446301 0)
(0.00699204 -0.472188 0)
(0.0439263 -0.530321 0)
(0.0253093 -0.610485 0)
(0.00705325 -0.603133 0)
(-0.00290936 -0.600723 0)
(-0.024854 -0.608891 0)
(-0.0342515 -0.451097 0)
(0.100044 0.54106 0)
(0.0590173 0.461224 0)
(0.0805207 -0.418388 0)
(-0.0024378 -0.47207 0)
(0.0478097 -0.533908 0)
(0.0275286 -0.582291 0)
(0.00470419 -0.57577 0)
(-0.00648054 -0.576709 0)
(-0.0255548 -0.581425 0)
(-0.0520899 -0.505369 0)
(0.034626 0.469181 0)
(0.0694095 0.454566 0)
(0.128571 -0.294422 0)
(0.0222928 -0.355268 0)
(0.0563051 -0.535187 0)
(0.0275563 -0.546816 0)
(0.0107724 -0.540258 0)
(-0.012204 -0.539316 0)
(-0.0301809 -0.54075 0)
(-0.0531972 -0.522589 0)
(0.0229695 0.274049 0)
(0.133168 0.387039 0)
(0.120813 -0.196864 0)
(0.0658241 -0.28273 0)
(0.0560984 -0.493064 0)
(0.0280487 -0.506368 0)
(0.0070279 -0.506701 0)
(-0.00937102 -0.506879 0)
(-0.0268761 -0.512729 0)
(-0.0582828 -0.487841 0)
(-0.0405749 -0.0679219 0)
(0.079492 0.147055 0)
(0.113263 -0.104335 0)
(0.0607898 -0.216443 0)
(0.0595646 -0.453761 0)
(0.0312268 -0.467306 0)
(0.0130543 -0.469598 0)
(-0.000903774 -0.471045 0)
(-0.0229029 -0.462767 0)
(-0.0496441 -0.452996 0)
(-0.0609699 -0.0611376 0)
(-0.0841462 0.101564 0)
(0.0622208 -0.0403288 0)
(0.0637076 -0.170532 0)
(0.0627431 -0.401295 0)
(0.0301744 -0.424688 0)
(0.00880644 -0.431537 0)
(-0.0167157 -0.43217 0)
(-0.0368217 -0.42801 0)
(-0.0676101 -0.399689 0)
(-0.0359392 -0.0231745 0)
(-0.0756918 0.141486 0)
(-0.0060105 0.000239172 0)
(0.0693826 -0.254409 0)
(0.0649341 -0.361138 0)
(0.0367034 -0.381366 0)
(0.0130707 -0.38201 0)
(-0.0109986 -0.382266 0)
(-0.0327138 -0.379439 0)
(-0.0640505 -0.359439 0)
(-0.0599446 -0.232426 0)
(0.0584289 0.308067 0)
(0.0608173 -0.0312692 0)
(0.0718007 -0.276711 0)
(0.0685028 -0.317803 0)
(0.0363777 -0.32944 0)
(0.0136653 -0.330979 0)
(-0.0128851 -0.334019 0)
(-0.0362811 -0.332318 0)
(-0.0696582 -0.316022 0)
(-0.0738984 -0.272074 0)
(0.00387044 0.260707 0)
(0.100603 -0.166273 0)
(0.0773065 -0.223457 0)
(0.0688187 -0.2625 0)
(0.0396609 -0.28204 0)
(0.0155477 -0.286279 0)
(-0.0165486 -0.285815 0)
(-0.0404625 -0.281208 0)
(-0.06876 -0.261962 0)
(-0.0766891 -0.221434 0)
(-0.0989305 -0.161857 0)
(0.0599163 -0.12075 0)
(0.0484887 -0.196547 0)
(0.0446787 -0.235664 0)
(0.0203725 -0.24685 0)
(0.00908368 -0.250815 0)
(-0.00626946 -0.248121 0)
(-0.0189438 -0.245415 0)
(-0.0450941 -0.236216 0)
(-0.0487863 -0.195364 0)
(-0.0605294 -0.118736 0)
(-0.0247203 -0.0047849 0)
(-0.0235174 -0.0047734 0)
(-0.0250114 -0.00349875 0)
(-0.0303945 -0.00211193 0)
(-0.039248 0.00612422 0)
(-0.0489684 0.0113727 0)
(-0.0561412 0.00533873 0)
(-0.0568269 0.00309883 0)
(-0.0582118 0.00292596 0)
(-0.0590089 0.000654438 0)
(-0.0610476 -0.000189718 0)
(-0.0661498 0.000240188 0)
(-0.0752061 0.00276941 0)
(-0.0877181 0.00842537 0)
(-0.10214 0.0159107 0)
(-0.11622 0.0201133 0)
(-0.125061 0.0155694 0)
(-0.126808 0.00600902 0)
(-0.121273 -0.00386371 0)
(-0.110212 -0.0117455 0)
(-0.0964574 -0.016183 0)
(-0.0818466 -0.0156131 0)
(-0.0679344 -0.0112462 0)
(-0.0576661 -0.00463491 0)
(-0.0554278 -0.00110365 0)
(-0.058685 0.00240618 0)
(-0.0617311 0.00137991 0)
(-0.0612109 -0.00442314 0)
(-0.0555691 -0.00976198 0)
(-0.0500668 -0.007136 0)
(-0.0470468 -0.00481432 0)
(-0.0431722 -0.00795422 0)
(-0.037722 -0.00934785 0)
(-0.0311706 -0.00676456 0)
(-0.0249959 -0.00475659 0)
(-0.0179235 -0.0058405 0)
(-0.00720616 -0.00665663 0)
(0.000703268 -0.00495772 0)
(0.004953 -0.000702992 0)