/*--------------------------------*- C++ -*----------------------------------*\
  =========                 |
  \\      /  F ield         | OpenFOAM: The Open Source CFD Toolbox
   \\    /   O peration     | Website:  https://openfoam.org
    \\  /    A nd           | Version:  8
     \\/     M anipulation  |
\*---------------------------------------------------------------------------*/
FoamFile
{
    version     2.0;
    format      ascii;
    class       surfaceScalarField;
    location    "1.55";
    object      alphaPhi0.water;
}
// * * * * * * * * * * * * * * * * * * * * * * * * * * * * * * * * * * * * * //

dimensions      [0 3 -1 0 0 0 0];

internalField   nonuniform List<scalar> 
18095
(
1.96594e-08
-1.72001e-07
1.52341e-07
2.32383e-08
-1.98274e-07
1.94695e-07
1.94034e-08
-2.0573e-07
2.09564e-07
9.99104e-09
-2.10496e-07
2.19909e-07
-4.85796e-10
-2.13496e-07
2.23972e-07
-1.13303e-08
-2.13442e-07
2.24286e-07
-2.03153e-08
-2.10627e-07
2.19611e-07
-2.33522e-08
-2.05847e-07
2.08884e-07
-1.96752e-08
-1.98187e-07
1.9451e-07
-1.71902e-07
1.52226e-07
1.55321e-08
-1.87533e-07
1.57117e-08
-1.98454e-07
1.21816e-08
-2.022e-07
6.80373e-09
-2.05118e-07
1.42707e-10
-2.06835e-07
-6.4596e-09
-2.0684e-07
-1.19939e-08
-2.05092e-07
-1.58142e-08
-2.02027e-07
-1.55862e-08
-1.98415e-07
-1.87488e-07
6.83258e-09
-1.94365e-07
8.23666e-09
-1.99858e-07
7.05998e-09
-2.01023e-07
3.90079e-09
-2.01959e-07
-1.0266e-10
-2.02831e-07
-4.16587e-09
-2.02776e-07
-7.28319e-09
-2.01975e-07
-8.28075e-09
-2.01029e-07
-6.85196e-09
-1.99844e-07
-1.9434e-07
4.5494e-09
-1.98915e-07
4.6383e-09
-1.99947e-07
3.619e-09
-2.00004e-07
2.03933e-09
-2.00379e-07
-1.17097e-11
-2.0078e-07
-2.03947e-09
-2.00749e-07
-3.60151e-09
-2.00413e-07
-4.66031e-09
-1.9997e-07
-4.57003e-09
-1.99934e-07
-1.9891e-07
1.08518e-09
1.13857e-09
1.13505e-09
7.55621e-10
-2.45299e-11
-7.73173e-10
-1.18605e-09
-1.15624e-09
-1.09023e-09
-2.72376e-08
-1.96993e-07
2.2423e-07
-2.96229e-08
-1.99591e-07
2.01976e-07
-2.38043e-08
-2.02248e-07
1.96429e-07
-1.24584e-08
-2.01075e-07
1.89729e-07
9.4746e-10
-2.01428e-07
1.88022e-07
1.40818e-08
-2.01335e-07
1.88201e-07
2.40336e-08
-2.00377e-07
1.90425e-07
2.90942e-08
-2.01297e-07
1.96236e-07
2.65071e-08
-1.9914e-07
2.01727e-07
-1.96516e-07
2.23024e-07
-1.0337e-08
-1.86656e-07
-1.69123e-08
-1.93016e-07
-1.66363e-08
-2.02524e-07
-8.4293e-09
-2.09282e-07
-2.78567e-10
-2.09579e-07
7.56819e-09
-2.09182e-07
1.57015e-08
-2.0851e-07
1.65925e-08
-2.02188e-07
1.01644e-08
-1.92712e-07
-1.86352e-07
-1.05712e-08
-1.76084e-07
-7.89971e-09
-1.95687e-07
-4.61715e-09
-2.05806e-07
-2.90664e-09
-2.10992e-07
2.97849e-10
-2.12783e-07
3.55011e-09
-2.12434e-07
4.86155e-09
-2.09822e-07
7.87616e-09
-2.05203e-07
1.04448e-08
-1.9528e-07
-1.75907e-07
-7.13241e-09
-1.68952e-07
-9.7936e-09
-1.93026e-07
-1.0106e-08
-2.05494e-07
-6.11596e-09
-2.14982e-07
-2.27594e-09
-2.16623e-07
2.16399e-09
-2.16874e-07
7.89428e-09
-2.15552e-07
8.8077e-09
-2.06116e-07
6.81619e-09
-1.93289e-07
-1.69091e-07
-1.66107e-08
-1.49415e-08
-1.0871e-08
-5.9449e-09
1.40416e-09
8.8164e-09
1.2876e-08
1.56436e-08
1.68647e-08
2.47107e-08
-1.61895e-07
1.37184e-07
2.76277e-08
-2.00798e-07
1.97881e-07
1.85851e-08
-2.12094e-07
2.21136e-07
2.74503e-09
-2.16744e-07
2.32584e-07
-1.33195e-08
-2.1821e-07
2.34275e-07
-2.7726e-08
-2.17305e-07
2.31712e-07
-3.72347e-08
-2.154e-07
2.24908e-07
-4.34186e-08
-2.08831e-07
2.15015e-07
-3.72273e-08
-1.95154e-07
1.88963e-07
-1.53569e-07
1.16342e-07
1.36875e-08
-1.75583e-07
1.6006e-08
-2.03117e-07
1.27667e-08
-2.08854e-07
6.48347e-09
-2.10461e-07
-2.2282e-09
-2.09499e-07
-1.11873e-08
-2.08346e-07
-1.82499e-08
-2.08337e-07
-2.17402e-08
-2.05341e-07
-1.81602e-08
-1.98734e-07
-1.71729e-07
9.57347e-09
-1.85156e-07
7.88733e-09
-2.01431e-07
5.36419e-09
-2.06331e-07
-4.58836e-10
-2.04638e-07
-4.69257e-09
-2.05265e-07
-8.32092e-09
-2.04718e-07
-1.13004e-08
-2.05358e-07
-1.18487e-08
-2.04792e-07
-1.11996e-08
-1.99383e-07
-1.82929e-07
6.82753e-09
-1.91984e-07
5.57237e-09
-2.00176e-07
5.81079e-09
-2.0657e-07
1.19185e-09
-2.00019e-07
-7.19631e-10
-2.03353e-07
-2.83641e-09
-2.02601e-07
-8.09507e-09
-2.00099e-07
-7.57257e-09
-2.05315e-07
-7.69062e-09
-1.99265e-07
-1.90619e-07
3.22466e-08
3.40473e-08
2.39069e-08
1.36173e-08
-1.71368e-09
-1.61136e-08
-2.57875e-08
-3.4866e-08
-3.24041e-08
5.35736e-08
-1.37347e-08
-4.7864e-08
1.06141e-07
-1.10835e-09
1.2767e-07
-8.90716e-10
1.39437e-07
5.48164e-09
1.69391e-07
-2.20769e-09
1.68958e-07
-4.63717e-09
1.1668e-07
1.93224e-08
8.60444e-08
3.06362e-08
6.91527e-08
1.69052e-08
1.59713e-08
5.3191e-08
2.13586e-07
-8.35951e-08
-2.72079e-07
2.51455e-07
-7.43559e-08
3.23481e-07
-8.15884e-08
6.71982e-07
-3.39803e-08
4.04871e-07
-4.44141e-08
9.6821e-08
-5.62323e-08
1.01048e-07
-4.38431e-09
1.03904e-07
7.85799e-09
8.48601e-08
2.53634e-08
2.4322e-08
6.21013e-08
2.78812e-07
-1.23676e-07
-2.24477e-07
3.38837e-07
-1.16922e-07
3.82027e-07
-8.46873e-08
4.20984e-07
-3.38627e-08
4.4099e-07
-2.90377e-08
4.66486e-07
-5.14678e-08
1.91892e-07
-4.0099e-08
1.14448e-07
2.39097e-08
7.40643e-08
2.621e-08
1.86858e-08
7.79527e-08
9.51326e-08
-1.53584e-08
-8.24157e-08
9.23111e-08
-1.14227e-08
6.67729e-08
-5.92712e-09
9.95134e-08
-3.42542e-09
1.78008e-07
-5.5021e-09
2.01588e-07
-6.77365e-09
1.11688e-07
-1.47854e-09
1.01023e-07
2.09344e-08
3.55222e-07
2.95321e-08
3.51305e-08
3.95855e-07
-2.07493e-09
-1.79538e-08
4.43908e-09
-1.98884e-10
-1.38994e-08
4.81306e-09
-1.15486e-08
1.21234e-08
-1.13107e-08
1.74111e-08
-1.13946e-08
1.65352e-08
-6.45285e-09
1.38687e-08
5.76087e-10
2.50563e-08
9.32838e-09
4.5818e-08
8.51403e-09
6.01492e-08
2.14691e-07
-3.16711e-08
-6.01803e-08
8.02513e-08
-2.10443e-08
-2.47574e-08
-1.94681e-08
-1.36879e-08
-1.75535e-08
-1.38377e-08
-1.22621e-08
-1.73819e-08
0
-2.4704e-08
-2.43198e-08
1.5463e-09
-4.01187e-08
2.29548e-08
-6.02242e-08
3.09892e-08
3.27261e-08
-6.45414e-08
-1.95008e-07
-2.79416e-07
6.77571e-07
-5.093e-08
-1.37796e-07
-4.07469e-08
-2.4222e-08
-3.35157e-08
-2.21268e-08
-1.09937e-07
-5.37367e-09
-1.35352e-07
-8.09506e-09
-1.12082e-07
-7.24094e-09
-6.70433e-08
-3.26141e-09
-5.32389e-08
-1.81826e-09
4.97783e-10
-4.12449e-08
-8.6554e-07
-3.55667e-07
9.41322e-07
-4.43944e-07
-3.3873e-07
-1.48197e-07
-2.43138e-07
-6.21556e-08
-1.05412e-07
-5.70354e-08
-3.55878e-08
-5.71793e-08
-2.69396e-08
-5.44434e-08
-2.66305e-08
-5.26396e-08
-2.36325e-08
-4.963e-08
-2.30188e-08
-2.94857e-08
-3.86301e-08
-1.06494e-06
-3.69373e-07
1.07944e-06
-9.9106e-07
-4.14732e-07
-8.501e-07
-3.90833e-07
-4.41025e-07
-3.70139e-07
-1.5421e-07
-3.23722e-07
-6.42185e-08
-1.56339e-07
-4.69165e-08
-6.24998e-08
-5.06964e-08
-4.0628e-08
-3.92915e-08
-6.91724e-08
-8.78561e-08
-1.43333e-08
-1.0285e-06
-1.45824e-07
7.96802e-07
-1.07977e-06
-3.70199e-07
-1.03396e-06
-4.44276e-07
-9.0309e-07
-5.02572e-07
-6.90743e-07
-5.35321e-07
-4.59093e-07
-5.47878e-07
-3.09522e-07
-5.56081e-07
-1.82341e-07
-3.31036e-07
-7.58501e-08
-1.94138e-07
-3.63052e-07
3.11148e-08
-1.93178e-07
-6.66634e-10
4.55224e-08
-5.58819e-07
-7.43972e-09
-8.60445e-07
-1.25762e-07
-8.75023e-07
-4.86756e-07
-7.87836e-07
-6.21584e-07
-6.27775e-07
-7.05058e-07
-4.25521e-07
-7.5674e-07
-2.60082e-07
-7.1868e-07
-1.66297e-08
-6.08316e-07
-6.12534e-07
1.5919e-07
1.53465e-08
6.08385e-09
-2.31194e-08
5.56459e-09
1.58511e-09
-5.74816e-08
-5.90017e-09
-3.74022e-07
-5.98684e-08
-4.42769e-07
-5.49829e-07
-4.24138e-07
-7.21807e-07
-3.00665e-07
-8.78429e-07
-1.02951e-07
-9.14956e-07
7.66681e-08
-7.85086e-07
-6.19597e-07
1.49211e-07
2.03021e-08
8.58891e-09
-2.32534e-08
2.08396e-08
4.5376e-09
3.50933e-08
2.725e-09
4.11799e-08
3.29509e-09
-4.31473e-08
-2.38247e-07
-8.76559e-08
-6.7508e-07
-5.41407e-08
-9.10101e-07
3.94879e-08
-1.00637e-06
8.15392e-08
-5.22787e-07
-4.37557e-08
7.4018e-08
2.86507e-08
2.26301e-08
-1.40412e-08
2.18292e-08
1.32497e-08
2.35067e-08
6.85002e-09
2.70381e-08
3.57653e-09
1.29366e-07
-2.46164e-08
4.85179e-08
-5.04857e-07
3.63646e-08
-8.95729e-07
5.25708e-08
-9.98109e-07
3.47655e-08
-9.57058e-08
-1.43334e-08
4.95116e-09
1.29392e-08
1.85203e-08
-5.45283e-09
1.44395e-08
1.27769e-08
1.0101e-08
4.38295e-09
1.23293e-08
1.30526e-09
1.25532e-07
-2.0621e-09
1.77174e-07
-3.03288e-07
6.67341e-08
-7.80854e-07
5.42079e-09
-7.7999e-07
-1.83819e-09
-5.86768e-08
-1.98975e-08
1.12823e-09
1.21062e-08
1.3659e-08
-6.16325e-09
9.27617e-09
1.69731e-08
3.29859e-09
3.13894e-09
5.32715e-09
-7.81154e-10
3.97563e-08
-1.82767e-09
2.3085e-07
-1.82881e-07
1.20884e-07
-6.58849e-07
1.40209e-08
-6.8491e-07
-3.60367e-09
-8.41068e-08
-2.83665e-08
-3.85674e-10
5.35339e-09
1.00921e-08
-5.38201e-10
4.35711e-09
6.14252e-09
4.06899e-09
3.38926e-09
4.96124e-09
-1.74669e-09
5.50713e-09
-2.43139e-09
2.36591e-07
-1.19782e-07
1.8477e-07
-5.83218e-07
6.22963e-08
-6.95172e-07
1.71297e-09
-3.28354e-07
-2.04182e-07
1.81462e-09
4.34007e-09
8.94815e-09
-3.28187e-09
5.11137e-09
5.3058e-09
5.62324e-09
2.84671e-09
5.45218e-09
-1.64309e-09
1.04372e-08
-7.52126e-09
2.97775e-07
-1.24889e-07
3.1027e-07
-5.06285e-07
1.54163e-07
-7.52026e-07
1.51694e-07
-7.44072e-07
-6.35439e-07
1.03913e-07
2.23545e-09
7.26306e-09
-6.0722e-10
3.26909e-09
4.23137e-09
4.04876e-09
2.03637e-09
3.36386e-09
-9.88872e-10
2.30132e-08
-8.96751e-09
1.80597e-07
-1.15328e-07
3.07246e-07
-3.94831e-07
3.14685e-07
-6.72326e-07
3.69362e-07
-8.0731e-07
-6.28628e-07
2.93579e-07
6.63756e-09
4.86556e-08
-1.10617e-08
4.1159e-09
6.76448e-09
2.09403e-09
4.02756e-09
-1.98755e-09
3.02195e-09
-1.05458e-08
-1.68592e-08
1.20157e-07
-1.56089e-07
2.82912e-07
-5.34859e-07
3.52329e-07
-9.28938e-07
3.72491e-07
-8.32552e-07
-3.47031e-07
1.39463e-07
8.72027e-09
6.66845e-08
-5.49911e-08
3.8937e-09
1.15846e-08
1.91164e-10
7.44422e-09
3.58436e-10
2.31415e-09
-2.68833e-09
2.48464e-09
1.08182e-07
-2.79924e-07
2.2191e-07
-9.52234e-07
2.67166e-07
-9.63653e-07
1.72223e-07
-7.37696e-07
-7.06415e-08
9.26987e-09
1.36242e-09
1.2501e-08
-9.89079e-09
9.51803e-10
1.22094e-08
8.4005e-10
9.08746e-09
1.77613e-08
9.33712e-09
7.216e-09
3.18595e-09
1.27516e-07
-6.38884e-07
2.13554e-07
-1.02902e-06
2.17311e-07
-9.57431e-07
5.47722e-08
-5.3529e-07
-1.22213e-08
1.13778e-09
-2.1707e-09
1.11507e-08
0
-1.08848e-09
1.10933e-08
1.25289e-09
7.18822e-09
2.5908e-09
4.33209e-09
5.14418e-09
-7.26906e-09
1.78551e-07
-8.14377e-07
2.00926e-07
-1.0423e-06
1.67861e-07
-9.15113e-07
7.09393e-09
-3.62424e-07
-9.48465e-09
1.78021e-10
-1.04294e-08
3.61483e-08
2.16599e-08
-4.64859e-09
3.57902e-08
0
2.71308e-08
-7.87332e-09
3.64621e-09
8.69025e-08
-1.70762e-07
1.81462e-07
-9.04282e-07
1.98756e-07
-1.05377e-06
1.13849e-07
-8.16404e-07
1.42733e-09
-1.84275e-07
-1.00405e-08
-2.10897e-10
-1.38287e-08
1.92185e-08
9.59733e-09
3.8593e-10
2.33006e-08
0
2.09205e-08
-2.44749e-08
6.92075e-09
1.38121e-07
-4.52529e-07
1.98037e-07
-9.58119e-07
1.94281e-07
-1.04568e-06
2.06099e-08
-4.44441e-07
1.35136e-09
-1.03893e-07
-2.97573e-08
-7.07016e-11
3.30435e-09
4.59253e-09
-1.55676e-09
7.69618e-09
1.77565e-08
1.07225e-09
1.15962e-08
-1.18535e-08
3.26116e-09
1.44508e-07
-6.33008e-07
2.11968e-07
-1.0195e-06
1.86782e-07
-1.01442e-06
9.65891e-09
-2.68812e-07
6.20681e-09
-1.50509e-07
-3.69179e-08
-5.69146e-10
7.43861e-10
2.38467e-09
8.65419e-10
-4.99663e-10
3.42154e-09
0
4.49117e-09
-1.28077e-08
3.10885e-09
1.26399e-07
-7.36827e-07
1.91675e-07
-1.0787e-06
1.08095e-07
-7.46131e-07
2.11968e-09
-1.80159e-07
-6.35703e-08
-1.1683e-07
-1.18758e-08
-7.65311e-09
-1.63521e-09
1.59336e-09
2.38772e-09
-3.38741e-10
1.99989e-09
8.13034e-10
3.01242e-09
-7.26621e-11
1.18372e-08
1.07412e-07
-8.13738e-07
1.21994e-07
-1.0855e-06
5.59048e-08
-4.09599e-07
-1.09064e-07
-9.29855e-08
-1.5704e-07
-6.16668e-08
-1.25602e-08
-9.03087e-08
-1.77472e-09
1.29001e-09
2.05709e-09
-1.33429e-09
1.52827e-09
0
2.03721e-09
-7.9557e-10
9.29035e-09
4.94327e-08
-8.51556e-07
3.77121e-08
-1.06157e-06
6.19171e-10
-2.20498e-07
-1.41985e-07
-3.69329e-08
-1.23874e-07
-7.23341e-08
-5.97836e-08
-6.94617e-08
-1.93092e-09
1.79522e-09
1.40804e-09
-1.71532e-09
1.29932e-09
0
4.62853e-10
1.1106e-08
7.69354e-10
4.92368e-08
-8.00126e-07
2.70373e-08
-1.01361e-06
-3.62076e-09
-9.73923e-08
-7.95241e-08
1.98835e-09
-8.48453e-08
-6.46245e-08
-4.7577e-08
-8.39058e-08
-3.86146e-10
2.03758e-09
1.30425e-10
-2.03147e-11
9.14738e-10
2.41459e-09
-1.93279e-09
2.89801e-09
4.42605e-10
5.53073e-08
-4.62609e-07
2.78875e-08
-3.85812e-07
2.74135e-11
-2.13835e-08
4.88572e-09
9.68154e-10
2.44032e-09
-9.84254e-09
-2.28516e-09
9.32238e-10
7.66054e-09
4.89811e-08
-1.1387e-08
2.60754e-08
2.16056e-08
3.31182e-08
9.47722e-09
2.64454e-08
1.59043e-08
1.15056e-08
-1.9349e-07
1.22269e-09
-9.94268e-08
0
-1.49972e-08
7.5909e-09
-4.36825e-11
1.52031e-09
-2.73773e-09
-1.60655e-09
1.00892e-10
-6.95472e-09
3.10382e-08
4.82898e-09
2.27227e-08
9.20358e-09
2.1965e-08
2.73203e-08
3.98362e-08
1.64681e-08
5.11878e-09
-2.5754e-07
8.7512e-09
-3.39512e-07
-2.67975e-12
-1.49659e-08
4.07534e-13
-1.07306e-10
9.74803e-10
-6.29239e-11
-4.55691e-11
2.1516e-09
-3.71477e-08
8.8816e-09
0
-4.65791e-08
8.71206e-09
-5.1879e-08
4.96321e-08
1.95015e-08
-1.16893e-08
4.31312e-08
-8.01276e-07
2.14101e-08
-1.07326e-06
1.97229e-10
-4.87919e-09
7.13938e-11
-2.58898e-11
2.22016e-11
-6.67461e-11
-6.47917e-11
1.93373e-11
-1.87026e-08
2.93646e-09
3.64516e-09
-4.7614e-08
3.43801e-09
0
1.99821e-08
-2.63943e-08
-1.46853e-08
-7.54279e-09
-1.16452e-06
-6.55283e-09
-1.15457e-06
-1.13754e-11
-1.88289e-08
0
-5.10724e-11
1.76995e-11
-7.93211e-12
-9.2665e-12
5.33712e-12
-8.68708e-09
5.80857e-10
9.95103e-09
-1.51339e-08
4.72847e-10
-3.11246e-11
1.94204e-11
1.62674e-09
-5.185e-08
-5.10426e-10
-1.15863e-06
6.77185e-09
-1.15676e-06
0
-4.71111e-08
6.40728e-12
-4.33854e-11
1.13229e-12
-9.55934e-12
-3.00186e-11
0
-1.00461e-09
6.50296e-12
1.56284e-09
-7.1373e-10
4.63228e-13
0
-2.73774e-09
-2.86539e-08
-6.33298e-08
-1.80065e-08
-1.16395e-06
-7.91524e-09
-1.15803e-06
-3.55431e-10
-7.3671e-08
1.62928e-12
-2.66204e-10
7.18749e-13
-1.49935e-11
-3.25654e-11
-9.27056e-12
-1.48397e-10
7.14589e-11
4.71865e-11
0
-9.16135e-10
1.07894e-09
-2.92912e-09
1.25978e-08
-7.66924e-08
2.54932e-08
-1.16194e-06
3.00531e-08
-1.1621e-06
2.41479e-10
-7.31857e-08
0
-4.11755e-11
1.72816e-11
-4.12652e-11
-3.23141e-11
9.97612e-11
6.74454e-11
2.12268e-12
3.76299e-11
8.60295e-10
-1.80424e-09
5.37308e-10
-2.37528e-09
5.59426e-10
-7.66482e-08
9.21287e-09
-1.15866e-06
4.42577e-09
-1.15971e-06
1.64715e-10
-7.72397e-08
0
-4.99515e-11
6.11252e-11
-1.15412e-10
-1.7807e-11
9.49072e-11
3.69739e-11
-2.45236e-10
2.82379e-11
1.24092e-10
-8.82125e-10
5.46133e-10
-1.17343e-09
4.05869e-09
-7.55853e-08
7.76311e-09
-1.15683e-06
7.27698e-09
-1.15406e-06
1.51367e-10
-7.64897e-08
0
-3.12973e-11
4.20966e-11
-1.62372e-10
-1.28532e-10
1.73663e-11
-8.8273e-11
-1.27096e-10
3.96957e-11
0
-1.1403e-10
2.23611e-10
-3.20065e-12
2.17439e-09
-6.21576e-08
6.35303e-09
-1.15116e-06
1.80767e-09
-1.14942e-06
-4.72698e-12
-6.66008e-08
0
-1.0319e-10
4.01188e-12
-6.04368e-11
-1.48815e-10
2.43435e-11
-7.80164e-11
-4.45853e-10
1.4343e-10
-3.10035e-13
-1.82088e-10
9.36443e-12
-7.8367e-12
1.13974e-08
-3.01354e-08
2.39335e-08
-1.14073e-06
1.62019e-08
-1.14737e-06
9.78743e-11
-3.54438e-08
0
-4.52198e-12
8.7517e-13
-1.70147e-11
-1.58295e-10
1.07729e-11
1.75933e-10
-5.94885e-10
-1.31234e-10
5.37394e-11
-1.25398e-10
4.67042e-11
-8.13454e-13
1.65768e-09
-7.69374e-09
1.39636e-09
-1.12707e-06
-1.552e-09
-1.1319e-06
-5.21012e-13
-7.96783e-09
-1.32021e-12
-4.40826e-12
-5.55188e-12
-1.74743e-11
-1.69296e-10
5.66244e-12
-4.37624e-11
-1.55864e-12
1.05729e-10
-5.86535e-16
-1.85521e-12
6.11359e-14
-8.87097e-13
1.14028e-09
-1.35823e-10
-3.92949e-09
-1.04435e-06
-4.24022e-09
-1.04833e-06
-1.17891e-12
-2.07699e-10
-2.16059e-12
-4.11325e-12
-5.89623e-12
-1.33563e-11
-1.31375e-10
-1.49273e-12
-4.81156e-13
-1.53582e-12
4.29665e-13
-1.31153e-13
-2.21754e-12
8.78118e-14
-1.11761e-12
7.47085e-10
-3.61244e-12
-1.38161e-09
-9.18153e-07
-1.09996e-09
-9.22257e-07
-2.08554e-13
-9.24171e-12
-1.02275e-12
-4.06827e-12
0
-4.96321e-12
-2.32536e-12
1.19672e-12
-4.91659e-13
-1.09986e-12
7.22916e-13
9.47365e-14
-3.01259e-12
1.29583e-13
-1.16479e-12
5.54585e-12
-9.04014e-12
-2.51349e-09
-8.36074e-07
-8.70716e-12
-8.37405e-07
-2.37647e-13
-1.85257e-11
-3.12434e-13
-4.7237e-12
2.98141e-14
-3.48761e-12
-2.60829e-12
1.10254e-13
1.44229e-13
-1.17582e-13
-1.21995e-13
1.92781e-13
-2.79569e-12
1.77501e-13
-1.16095e-12
2.29252e-11
-3.17923e-11
-9.63663e-10
-7.97899e-07
-3.58571e-11
-7.98256e-07
-5.10553e-13
-5.51629e-11
-2.64805e-13
-5.43404e-12
-8.81853e-14
-3.87887e-12
-2.86618e-12
-2.24726e-14
2.8313e-13
-2.75592e-12
-6.68842e-13
2.86397e-13
-1.73109e-12
2.71257e-13
-1.15021e-12
9.78771e-11
-1.29386e-10
8.07281e-10
-7.79573e-07
-1.35479e-10
-7.81329e-07
-1.59285e-12
-1.97159e-10
-5.86073e-13
-7.73148e-12
-1.5884e-13
-4.77069e-12
-3.1253e-12
-1.14361e-13
2.22983e-13
-2.94404e-11
-4.99468e-12
2.50742e-13
-1.77088e-12
2.54361e-13
-1.1419e-12
4.17204e-10
-5.46302e-10
7.649e-10
-8.46443e-07
-4.90736e-10
-8.55437e-07
-7.20715e-12
-7.16723e-10
-2.08959e-12
-1.8278e-11
-1.00324e-13
-8.90256e-12
-4.01677e-12
-5.32733e-13
1.36058e-12
-4.80561e-11
-1.03533e-11
1.26537e-13
-1.93241e-12
1.42329e-13
-1.1235e-12
1.36192e-09
-1.90799e-09
-1.30033e-09
-9.63079e-07
-1.67028e-09
-9.61947e-07
-3.22668e-11
-2.50034e-09
-1.96907e-11
-3.55326e-10
-4.75421e-12
-1.8339e-10
-1.48381e-11
-3.6313e-12
1.74669e-12
-4.92587e-11
-1.09838e-11
7.52682e-14
-1.24224e-12
1.9025e-13
-1.15649e-12
2.96572e-09
-4.87319e-09
-2.45133e-09
-1.02801e-06
-3.45516e-09
-1.02783e-06
-8.49205e-11
-6.46273e-09
-2.81794e-10
-1.44518e-09
-2.09142e-10
-1.0999e-09
-6.41744e-10
-1.02405e-10
2.49877e-13
-3.10172e-11
-1.31875e-11
7.2284e-14
-1.3526e-12
6.89338e-13
-1.44424e-12
3.56177e-09
-2.54018e-08
1.99444e-09
-1.03919e-06
-3.09344e-09
-1.04294e-06
-1.58696e-10
-2.63216e-08
-6.30058e-10
-9.76561e-10
-3.60232e-10
-1.34056e-09
-1.46448e-09
-4.65475e-10
0
-1.88546e-11
-1.93202e-11
1.71515e-13
-1.18666e-12
2.28272e-12
-1.77711e-12
9.92751e-09
-5.78059e-08
1.95644e-08
-1.03233e-06
1.17329e-08
-1.03472e-06
0
-6.5854e-08
-8.89963e-11
-4.03448e-10
-1.09728e-10
-1.29112e-09
-1.44222e-09
-1.02802e-10
0
-7.66724e-12
-1.80863e-11
3.10312e-13
-8.88224e-13
3.39707e-12
-1.55117e-12
2.1965e-08
-7.16187e-08
4.16394e-08
-1.02558e-06
4.03308e-08
-1.0321e-06
6.68641e-10
-7.86476e-08
0
-1.57422e-10
-4.20172e-12
-1.25747e-09
-1.44873e-09
3.10142e-11
0
-1.90536e-12
-8.05223e-12
1.9574e-13
-6.55583e-13
6.87766e-13
-1.51263e-12
1.64123e-08
-7.31605e-08
3.19131e-08
-1.02206e-06
2.46322e-08
-1.02789e-06
1.53437e-10
-7.72845e-08
0
-2.54388e-11
1.84935e-10
-6.10385e-10
-6.88463e-11
3.47608e-11
0
-3.3479e-13
-3.02607e-12
7.18956e-14
-4.64948e-13
1.31412e-13
-1.4935e-12
1.60162e-10
-6.56747e-08
3.13648e-09
-1.01255e-06
-3.70436e-09
-1.01699e-06
-4.31582e-11
-6.97267e-08
0
-8.1847e-11
6.34518e-11
-1.17402e-11
-7.06523e-12
1.52628e-12
1.48146e-13
-1.06269e-13
0
1.04236e-13
-4.1366e-13
1.24989e-13
-1.51357e-12
1.19749e-08
-4.5752e-08
2.00216e-08
-1.00419e-06
1.03105e-08
-1.00452e-06
7.19151e-11
-4.53917e-08
5.60212e-12
-1.57594e-11
1.55362e-12
-7.85228e-12
-5.69599e-12
4.21574e-14
1.58495e-13
-8.87233e-14
-1.77847e-13
1.40419e-13
-3.95902e-13
1.18978e-13
-1.493e-12
1.19132e-08
-2.54734e-08
1.7329e-08
-9.84488e-07
7.40621e-09
-9.85164e-07
-6.06515e-14
-2.18643e-08
-8.6187e-13
-1.51979e-11
-5.17546e-13
-8.36505e-12
-5.90281e-12
-4.65896e-13
2.01287e-13
-1.33449e-13
-1.59204e-13
1.85287e-13
-3.81184e-13
5.93432e-14
-1.36673e-12
-4.12301e-10
-1.3369e-08
-1.02359e-08
-9.56998e-07
-9.89525e-09
-9.54984e-07
-3.86373e-12
-1.51118e-08
-3.51465e-12
-1.58479e-11
-1.12202e-12
-1.0998e-11
-7.20999e-12
-5.2575e-13
3.32851e-13
-3.27999e-13
-2.12982e-13
3.2644e-13
-3.76276e-13
2.27511e-13
-1.26786e-12
2.68e-09
-1.18275e-08
-8.29985e-09
-9.26668e-07
-7.69595e-09
-9.25977e-07
-1.63152e-11
-1.28557e-08
-1.23359e-11
-1.94782e-11
-2.78249e-12
0
-4.23634e-12
-5.58406e-12
1.59247e-13
-1.50815e-12
-5.43959e-12
2.55331e-13
-4.67825e-13
1.81554e-13
-1.19248e-12
2.16828e-09
-1.00436e-08
-7.55651e-09
-9.0257e-07
-8.27724e-09
-9.08242e-07
-6.13927e-11
-1.54363e-08
-5.99189e-11
-1.85522e-11
-1.27499e-11
-1.88058e-10
-1.25422e-11
-3.9496e-12
4.27514e-13
-1.0573e-14
-7.38267e-12
2.55245e-13
-2.60283e-13
1.74037e-13
-1.10363e-12
9.39233e-10
-1.21851e-08
-1.01752e-08
-8.91679e-07
-9.55211e-09
-8.94361e-07
-1.01912e-10
-1.45384e-08
-9.5218e-11
-1.11061e-11
-6.0058e-11
-2.04942e-10
-3.81294e-11
-1.01415e-11
3.73292e-14
-4.98467e-13
0
2.25167e-13
-3.94786e-13
2.47574e-13
-1.09076e-12
4.91493e-09
-1.95669e-08
-2.43222e-09
-9.06326e-07
-6.56059e-09
-9.04727e-07
-8.00467e-11
-1.93466e-08
-8.53214e-11
-5.91903e-12
-1.18389e-10
-1.54818e-10
-1.20301e-10
-9.14931e-12
5.2419e-13
1.85139e-11
-2.21825e-10
3.71182e-13
-1.29513e-13
4.36984e-13
-1.09138e-12
6.55561e-09
-3.51276e-08
1.40569e-09
-9.30439e-07
-4.74598e-09
-9.28825e-07
-5.44429e-11
-3.44201e-08
-5.88883e-11
-1.47359e-12
-8.84711e-11
-1.07756e-10
-1.23219e-10
-7.85467e-11
-1.20287e-12
4.56786e-12
-6.29627e-12
5.82942e-14
-1.21878e-12
4.70667e-13
-1.39149e-12
4.15291e-09
-5.30074e-08
-3.12279e-09
-9.45997e-07
-7.09059e-09
-9.45538e-07
-1.3731e-13
-5.35466e-08
0
-1.61091e-12
-6.46628e-11
-3.99924e-11
-1.14635e-10
-6.55617e-11
-3.54785e-12
5.86797e-13
7.51934e-12
6.60081e-13
-5.23305e-12
2.86926e-12
-3.42877e-12
4.14352e-09
-6.8086e-08
-2.43058e-09
-9.5154e-07
-6.33696e-09
-9.51148e-07
-1.12925e-13
-6.85442e-08
0
-1.72384e-12
-7.48745e-11
1.42092e-11
-5.03786e-11
-1.31097e-10
1.51598e-13
2.63687e-13
-4.60192e-14
2.46456e-11
-1.52081e-10
2.75253e-11
-6.11476e-12
5.11299e-09
-7.75601e-08
-1.06281e-09
-9.48309e-07
-5.72695e-09
-9.48479e-07
-2.03116e-13
-7.77217e-08
1.96647e-14
-1.94663e-12
1.39921e-11
2.36796e-13
-4.32695e-12
4.16033e-12
2.60737e-12
1.18105e-12
-3.74226e-12
3.63588e-11
-1.33998e-10
4.5472e-11
-1.50859e-11
5.30793e-09
-8.13553e-08
-2.78966e-10
-9.40088e-07
-5.38104e-09
-9.40113e-07
-8.73204e-14
-8.14265e-08
3.92343e-14
-2.0732e-12
4.64774e-13
-1.88771e-13
5.54468e-13
3.43182e-11
6.278e-12
-1.2341e-10
5.0006e-11
1.5927e-10
-2.2503e-10
1.50539e-10
-6.3684e-12
5.23608e-09
-8.24004e-08
-1.40227e-09
-9.28648e-07
-6.65607e-09
-9.28241e-07
-1.01142e-13
-8.24601e-08
-6.5634e-14
-2.10874e-12
9.04693e-14
-3.44938e-13
1.63371e-12
-2.80559e-12
1.64705e-10
-3.30091e-10
4.26333e-11
6.64045e-11
-1.19236e-10
6.1722e-11
-1.71657e-12
6.22302e-09
-8.32297e-08
-1.25351e-09
-9.15111e-07
-7.60002e-09
-9.14839e-07
-1.67535e-13
-8.35308e-08
-1.29929e-13
-2.14641e-12
-8.10152e-14
-3.94226e-13
4.39701e-13
-2.3785e-12
3.28757e-11
-3.86555e-10
2.4184e-11
0
-4.10597e-11
2.40132e-13
-1.98735e-12
9.20717e-09
-8.63814e-08
2.46001e-09
-9.01715e-07
-6.08129e-09
-9.02944e-07
-4.30532e-13
-8.64263e-08
-2.39127e-13
-2.338e-12
-7.25433e-14
-5.72708e-13
4.08529e-13
0
3.93038e-11
-3.09189e-10
-1.15852e-10
0
3.90723e-11
2.00053e-13
-2.21697e-12
7.48465e-09
-9.31068e-08
-6.72803e-10
-8.9272e-07
-8.52577e-09
-8.92889e-07
-2.15968e-12
-9.31186e-08
-1.37407e-12
-3.12371e-12
-6.55305e-13
-3.17989e-12
6.69554e-13
-1.61759e-13
-1.203e-10
-6.13448e-11
1.41668e-11
0
1.63679e-13
9.66224e-13
-3.21384e-12
7.96674e-09
-1.04342e-07
-8.23278e-10
-8.86369e-07
-9.07239e-09
-8.86294e-07
-8.78933e-12
-1.04518e-07
-7.59779e-12
-4.32255e-12
-3.35317e-13
-1.66562e-11
4.46385e-13
-2.15465e-13
-2.28888e-11
-4.16673e-11
2.13014e-11
5.72644e-12
-3.77661e-11
6.63025e-12
-4.1599e-12
9.34447e-09
-1.19735e-07
-4.76866e-10
-8.80698e-07
-9.29389e-09
-8.81435e-07
-1.29153e-11
-1.19532e-07
-1.27203e-11
-4.53309e-12
-1.40367e-11
-1.87132e-11
7.64351e-12
-9.89474e-12
1.30262e-12
-3.53992e-11
7.78716e-13
1.01815e-11
-4.2198e-11
9.67525e-12
-3.77078e-12
9.41173e-09
-1.35533e-07
-4.13682e-10
-8.74736e-07
-9.93045e-09
-8.75421e-07
-7.10157e-12
-1.35371e-07
-6.93982e-12
-4.73001e-12
-1.26462e-11
-1.04773e-11
1.21674e-12
-6.22976e-12
1.46183e-11
-2.34361e-11
-1.69163e-11
1.18928e-11
-4.00361e-12
1.06155e-11
-2.74784e-12
9.43676e-09
-1.48721e-07
-9.37353e-10
-8.66403e-07
-1.05941e-08
-8.67186e-07
-2.5258e-12
-1.48798e-07
-2.49102e-12
-4.81801e-12
-8.74277e-12
-2.11285e-12
7.21491e-13
-8.2627e-12
1.4677e-12
-3.97539e-12
-7.92166e-12
2.02786e-13
-2.99305e-12
1.78159e-13
-2.98149e-12
1.00903e-08
-1.5775e-07
-2.02563e-10
-8.55644e-07
-1.04539e-08
-8.56074e-07
-1.2837e-12
-1.57531e-07
-9.35457e-13
-5.2068e-12
-7.14268e-12
-2.25895e-12
4.2999e-13
-6.83847e-12
5.00886e-12
1.83345e-12
-3.51194e-11
2.01859e-12
-1.15321e-11
2.33875e-12
-3.38375e-12
1.04285e-08
-1.62792e-07
-5.74057e-10
-8.42314e-07
-1.10598e-08
-8.42903e-07
-4.39234e-12
-1.62547e-07
-3.15045e-12
-6.43436e-12
2.84853e-12
-2.09356e-11
0
2.33757e-12
5.34043e-11
8.09642e-12
-5.33988e-11
7.91214e-12
-1.27438e-12
6.92249e-12
-2.29628e-12
1.18583e-08
-1.67241e-07
-3.97114e-10
-8.27158e-07
-1.26458e-08
-8.27365e-07
-1.37049e-11
-1.66985e-07
-1.28819e-11
-7.18963e-12
-3.46529e-12
-1.97971e-11
2.05504e-13
-6.26738e-12
4.60667e-13
3.42342e-12
-2.12491e-12
5.16671e-13
-5.7706e-13
5.90709e-13
-2.26404e-12
1.22306e-08
-1.73231e-07
-8.8323e-10
-8.11955e-07
-1.33442e-08
-8.12352e-07
-1.54311e-11
-1.72883e-07
-1.65671e-11
-6.16276e-12
-2.4738e-12
-2.33788e-11
-8.6393e-13
-2.24698e-12
3.73461e-13
2.4974e-12
0
4.37887e-13
-5.47433e-13
5.2984e-13
-2.2339e-12
1.47503e-08
-1.85708e-07
-2.61295e-10
-7.96375e-07
-1.51837e-08
-7.96851e-07
-1.29648e-11
-1.85243e-07
-1.39962e-11
-5.49574e-12
-8.5979e-12
-1.82214e-11
-3.17608e-12
-2.88099e-12
0
1.82827e-12
-7.65545e-13
1.15184e-12
-4.59051e-12
1.20771e-12
-2.17918e-12
1.52147e-08
-2.04828e-07
4.37618e-10
-7.8263e-07
-1.48871e-08
-7.8264e-07
-7.61124e-12
-2.038e-07
-9.28395e-12
-4.29221e-12
-9.38599e-12
-3.24662e-12
-1.73326e-12
-2.55813e-12
2.7032e-12
1.32122e-12
-2.47998e-12
6.91059e-12
-1.16578e-11
6.7955e-12
-1.95611e-12
1.75294e-08
-2.31353e-07
2.7831e-10
-7.67037e-07
-1.78473e-08
-7.6607e-07
-6.56878e-13
-2.30116e-07
-5.74906e-13
-4.63848e-12
6.97115e-13
-3.33044e-12
-9.64004e-13
7.14601e-13
1.18378e-11
-2.75005e-12
-4.44545e-12
9.78591e-12
-1.19382e-11
9.11357e-12
-1.16567e-12
1.68997e-08
-2.56649e-07
3.14485e-10
-7.51368e-07
-1.69622e-08
-7.49593e-07
-6.83629e-12
-2.55225e-07
-6.96964e-12
-4.36598e-12
-7.06935e-13
-2.55386e-11
-7.92403e-13
0
1.23266e-11
-4.54094e-12
-7.2046e-12
5.04955e-12
-1.04689e-12
4.53395e-12
-5.45688e-13
1.98852e-08
-2.79422e-07
-3.32838e-11
-7.31419e-07
-1.99568e-08
-7.29449e-07
-1.23478e-11
-2.77651e-07
-1.27083e-11
-3.6033e-12
-3.60191e-12
-2.7481e-11
-1.58849e-11
-1.6754e-12
8.94258e-13
-1.28434e-12
2.76653e-13
9.4159e-14
-1.47411e-13
2.27004e-13
-5.73277e-13
1.78188e-08
-2.92582e-07
-1.57506e-09
-7.11467e-07
-1.84677e-08
-7.11759e-07
-1.1814e-11
-2.90634e-07
-1.24041e-11
-2.57355e-12
-9.93849e-12
-2.65258e-11
-2.12063e-11
-6.6775e-12
2.94816e-14
-1.19941e-12
-1.50389e-14
1.11108e-13
-1.35126e-13
7.34434e-13
-1.11373e-12
2.35405e-08
-3.06778e-07
-2.19012e-09
-6.85444e-07
-2.52034e-08
-6.88169e-07
-6.12643e-12
-3.05704e-07
-6.55755e-12
-1.72707e-12
-1.39424e-11
-1.02586e-11
-2.30074e-11
-1.0035e-11
2.47106e-13
-9.84865e-13
-5.27846e-13
1.91645e-13
-2.43398e-14
6.6646e-12
-7.54438e-12
2.39394e-08
-3.25258e-07
2.63461e-09
-6.64677e-07
-2.47143e-08
-6.6076e-07
-4.70002e-12
-3.24235e-07
-1.83424e-12
-4.30421e-12
-8.98093e-12
-5.48011e-13
-1.66858e-11
-1.31964e-11
3.82791e-13
-5.00313e-19
-3.41397e-13
3.58454e-13
-5.39508e-18
6.1802e-11
-6.89759e-11
3.49283e-08
-3.68751e-07
2.86189e-09
-6.33187e-07
-2.11168e-08
-6.36693e-07
-3.1501e-11
-3.51693e-07
-2.77304e-13
-3.54472e-11
-8.06315e-13
-1.95605e-14
-6.97437e-14
-4.94174e-12
1.90284e-19
-5.18721e-19
-2.24672e-19
1.22373e-16
-1.2763e-16
5.374e-10
-6.06375e-10
-9.31926e-09
-3.66579e-07
-3.45959e-08
-6.09196e-07
-6.00119e-08
-6.11687e-07
-2.83115e-10
-4.1936e-07
-9.07104e-15
-3.18554e-10
-7.6558e-15
-2.15042e-14
-1.68056e-14
-6.11543e-14
8.89558e-19
-4.45771e-19
-1.01515e-18
3.02719e-15
-3.154e-15
4.55276e-09
-5.15914e-09
4.91092e-08
-3.9863e-07
3.55405e-08
-5.96298e-07
1.64412e-09
-5.77782e-07
-2.53836e-09
-4.17927e-07
-4.36078e-15
-2.85691e-09
-8.55536e-15
-1.787e-14
-1.4633e-14
-1.12789e-14
5.48197e-19
-4.76034e-19
-6.32243e-19
4.71375e-14
-5.02911e-14
3.28073e-08
-3.79664e-08
1.04315e-07
-4.88079e-07
6.41112e-08
-5.56078e-07
4.50531e-08
-5.58724e-07
1.96337e-09
-3.58625e-07
-1.81966e-14
-6.10596e-10
-2.1374e-14
-1.5223e-14
-9.75886e-15
0
7.66855e-18
-7.39939e-18
-5.77821e-19
1.23266e-12
-1.28294e-12
3.07207e-08
-7.24159e-08
2.60485e-08
-4.83232e-07
-4.32945e-09
-5.25614e-07
-3.41865e-08
-5.28853e-07
-7.52192e-09
-3.78784e-07
-4.42404e-14
-8.13248e-09
-3.39321e-14
-2.56107e-14
-9.64489e-15
-1.85198e-15
8.43496e-16
-8.50077e-16
-8.12517e-19
2.12763e-11
-2.25584e-11
4.43005e-08
-1.07416e-07
3.21473e-08
-4.65661e-07
-3.3506e-09
-4.90165e-07
-3.93047e-08
-4.92834e-07
-1.87002e-08
-4.18064e-07
-5.57617e-13
-3.0759e-08
-1.04862e-14
-5.72133e-13
-5.86123e-17
-3.06467e-16
4.65158e-14
-4.73654e-14
-4.66158e-19
3.57025e-10
-3.79538e-10
5.83249e-08
-1.72837e-07
4.24729e-08
-4.51697e-07
3.48283e-09
-4.51182e-07
-4.12477e-08
-4.48153e-07
-4.65489e-08
-4.09481e-07
-1.81572e-11
-7.39315e-08
-3.61737e-16
-1.87289e-11
3.62132e-18
-3.32139e-16
2.37144e-12
-2.4188e-12
-1.77647e-19
4.92872e-09
-5.30591e-09
6.28145e-08
-2.39851e-07
8.89196e-09
-3.98267e-07
-3.26313e-08
-4.09666e-07
-7.11357e-08
-4.09656e-07
-7.93472e-08
-3.9963e-07
-4.90213e-10
-1.43629e-07
-1.57448e-14
-5.08926e-10
-1.50821e-14
-5.16735e-16
6.79259e-11
-7.03447e-11
-4.42412e-20
3.19321e-08
-3.71705e-08
9.31937e-08
-3.12927e-07
5.65921e-08
-3.61672e-07
1.16112e-08
-3.64685e-07
-3.66731e-08
-3.61379e-07
-8.59133e-08
-3.49621e-07
-8.56295e-09
-2.08388e-07
-6.45969e-12
-9.06539e-09
-6.47454e-12
-2.09283e-16
2.90601e-09
-2.97636e-09
-8.74406e-21
8.03764e-08
-1.16487e-07
5.64946e-08
-2.89845e-07
-8.05201e-11
-3.05096e-07
-5.08544e-08
-3.13911e-07
-9.51709e-08
-3.17062e-07
-1.2944e-07
-3.15354e-07
-5.29886e-08
-2.86266e-07
-6.10345e-10
-6.2435e-08
-6.1682e-10
-1.00599e-16
3.82302e-08
-4.12066e-08
-3.78524e-23
1.37073e-07
-2.07411e-07
1.00241e-07
-2.53006e-07
5.71382e-08
-2.61993e-07
6.22888e-09
-2.63001e-07
-4.67308e-08
-2.64103e-07
-1.00632e-07
-2.61453e-07
-1.38685e-07
-2.48482e-07
-2.7076e-08
-1.76619e-07
-2.76929e-08
-8.71245e-16
9.75224e-08
-3.07718e-29
8.78507e-08
5.59813e-08
2.65722e-08
-2.15442e-09
-3.45454e-08
-7.10901e-08