/*--------------------------------*- C++ -*----------------------------------*\
  =========                 |
  \\      /  F ield         | OpenFOAM: The Open Source CFD Toolbox
   \\    /   O peration     | Website:  https://openfoam.org
    \\  /    A nd           | Version:  8
     \\/     M anipulation  |
\*---------------------------------------------------------------------------*/
FoamFile
{
    version     2.0;
    format      ascii;
    class       volVectorField;
    location    "1.55";
    object      U;
}
// * * * * * * * * * * * * * * * * * * * * * * * * * * * * * * * * * * * * * //

dimensions      [0 1 -1 0 0 0 0];

internalField   nonuniform List<vector> 
9150
(
(0.00503573 -0.0781045 0)
(0.0130008 -0.0975223 0)
(0.0108788 -0.104104 0)
(0.0080872 -0.108107 0)
(0.00198783 -0.109392 0)
(-0.00249806 -0.109162 0)
(-0.00895113 -0.107532 0)
(-0.0109245 -0.104068 0)
(-0.0130487 -0.0974052 0)
(-0.00500913 -0.0780174 0)
(0.00600684 -0.092126 0)
(0.00858252 -0.100496 0)
(0.00721746 -0.102258 0)
(0.00466879 -0.103997 0)
(0.00217831 -0.105248 0)
(-0.0020305 -0.105413 0)
(-0.00441144 -0.104406 0)
(-0.00728961 -0.102204 0)
(-0.0086218 -0.100477 0)
(-0.00602027 -0.0920977 0)
(0.00181192 -0.0955333 0)
(0.00456335 -0.0990124 0)
(0.00372766 -0.100895 0)
(0.00311543 -0.101926 0)
(0.000701618 -0.102443 0)
(-0.000808538 -0.102383 0)
(-0.00327993 -0.101646 0)
(-0.00377042 -0.100839 0)
(-0.00457877 -0.0989983 0)
(-0.00181534 -0.0955186 0)
(0.00177298 -0.0984775 0)
(0.00248855 -0.100414 0)
(0.0021661 -0.100309 0)
(0.00129637 -0.100699 0)
(0.000709221 -0.100834 0)
(-0.000719065 -0.100823 0)
(-0.0012849 -0.100803 0)
(-0.00216641 -0.10032 0)
(-0.00250443 -0.10041 0)
(-0.00177708 -0.098472 0)
(0.000190405 -0.0994977 0)
(0.000736561 -0.0995638 0)
(0.000454948 -0.099946 0)
(0.000614822 -0.0998736 0)
(0.000109819 -0.10012 0)
(-0.000128398 -0.100111 0)
(-0.000650386 -0.0998609 0)
(-0.000465668 -0.09994 0)
(-0.000740879 -0.0995601 0)
(-0.000191266 -0.0994975 0)
(0.076997 -0.195273 1.92656e-26)
(0.0490453 -0.185843 0)
(0.0311368 -0.176548 0)
(0.0168155 -0.17357 0)
(0.00479646 -0.175013 0)
(-0.00377421 -0.175315 0)
(-0.0164123 -0.174988 0)
(-0.0313773 -0.17608 0)
(-0.0492784 -0.185291 0)
(-0.0769029 -0.194598 -1.90179e-26)
(0.0586099 -0.146434 5.15102e-27)
(0.0477823 -0.146723 0)
(0.0272799 -0.15667 0)
(0.0195089 -0.158844 0)
(0.00419515 -0.157021 0)
(-0.00447535 -0.15649 0)
(-0.0198407 -0.156668 0)
(-0.0273453 -0.15596 0)
(-0.0477233 -0.146427 0)
(-0.0586024 -0.14617 -4.85861e-27)
(0.047875 -0.121457 2.42022e-27)
(0.0422159 -0.131623 0)
(0.0305059 -0.134972 0)
(0.0190186 -0.137304 0)
(0.00607487 -0.140465 0)
(-0.00577041 -0.140404 0)
(-0.0189146 -0.138424 0)
(-0.0304894 -0.134773 0)
(-0.0422137 -0.131475 0)
(-0.0478896 -0.121391 -2.24943e-27)
(0.0374046 -0.0993201 3.60249e-27)
(0.0384223 -0.110293 0)
(0.0217429 -0.119637 0)
(0.0163212 -0.125638 0)
(0.00308448 -0.12521 0)
(-0.00533064 -0.125008 0)
(-0.0176696 -0.124296 0)
(-0.0224482 -0.119794 0)
(-0.0387039 -0.110315 0)
(-0.0374725 -0.0993547 -3.63102e-27)
(0.025122 -0.0812049 -1.20014e-26)
(0.0285844 -0.100908 -1.43181e-26)
(0.0207469 -0.108404 -3.63526e-27)
(0.0120884 -0.11342 -3.07845e-27)
(0.0053533 -0.116319 -1.12567e-28)
(-0.00400383 -0.116829 -1.26727e-28)
(-0.0106523 -0.114106 -3.18392e-27)
(-0.0202044 -0.108027 -3.60807e-27)
(-0.0283535 -0.100924 -1.4267e-26)
(-0.025089 -0.0812133 -1.19907e-26)
(0.0177287 -0.147028 0)
(0.00757926 -0.206692 0)
(0.017496 -0.219315 0)
(0.00167898 -0.225784 0)
(0.00100936 -0.227006 0)
(-0.0145564 -0.225202 0)
(-0.0132658 -0.220519 0)
(-0.0251879 -0.213571 0)
(-0.0151959 -0.200656 0)
(-0.0189743 -0.142696 0)
(0.0144915 -0.16895 0)
(0.000542804 -0.200976 0)
(0.0135245 -0.209755 0)
(0.000435752 -0.213817 0)
(0.00523238 -0.214915 0)
(-0.00723469 -0.214238 0)
(-0.00302495 -0.213532 0)
(-0.0166828 -0.207154 0)
(-0.00271994 -0.195712 0)
(-0.0167667 -0.163011 0)
(0.0154601 -0.172477 0)
(-0.00437189 -0.203451 0)
(0.0103051 -0.208912 0)
(-0.00330532 -0.210407 0)
(0.00243385 -0.210184 0)
(-0.00647417 -0.20922 0)
(-0.000672713 -0.208895 0)
(-0.0126398 -0.206744 0)
(0.00309805 -0.201173 0)
(-0.0158482 -0.169704 0)
(0.0166945 -0.194066 0)
(-0.00675883 -0.2044 0)
(0.00954467 -0.210696 0)
(-0.00131344 -0.206005 0)
(0.00173207 -0.207926 0)
(-0.00219884 -0.207525 0)
(0.000379237 -0.207482 0)
(-0.0110668 -0.2094 0)
(0.00657827 -0.202545 0)
(-0.0174888 -0.192444 0)
(0.0349991 -0.218359 0)
(0.00854187 -0.204821 0)
(0.016815 -0.204458 0)
(0.0106286 -0.19707 0)
(0.00131961 -0.193969 0)
(-0.00278774 -0.19385 0)
(-0.011837 -0.196542 0)
(-0.0173027 -0.204274 0)
(-0.00890057 -0.204773 0)
(-0.03474 -0.216893 0)
(0.0960275 -0.0238678 0)
(0.121483 -0.0320441 0)
(0.12163 -0.0185135 0)
(0.109366 -0.046618 0)
(0.118141 -0.0755615 0)
(0.114282 -0.0745364 0)
(0.112353 -0.0913397 0)
(0.0842541 -0.152491 0)
(0.0682587 -0.18622 0)
(0.048518 -0.206302 0)
(0.299804 -0.0409897 0)
(0.372078 0.00650854 0)
(0.405242 -0.00122832 0)
(0.466165 0.0681757 0)
(0.476323 0.067628 0)
(0.494524 0.0442293 0)
(0.52582 0.116387 0)
(0.53359 0.222652 0)
(0.513977 0.223642 0)
(0.357986 0.228055 0)
(0.180174 -0.191117 0)
(0.231497 -0.211981 0)
(0.292403 -0.211575 0)
(0.310694 -0.150111 0)
(0.31899 -0.144836 0)
(0.350419 -0.154853 0)
(0.365947 -0.115779 0)
(0.394993 0.104143 0)
(0.374556 0.362644 0)
(0.32111 0.350136 0)
(0.182419 -0.285075 0)
(0.265766 -0.308667 0)
(0.332737 -0.215313 0)
(0.374707 -0.05029 0)
(0.36817 -0.0666396 0)
(0.379473 -0.15393 0)
(0.392792 -0.112959 0)
(0.354219 0.154476 0)
(0.316363 0.120459 0)
(0.405919 0.00573796 0)
(-0.0742802 -0.42908 0)
(-0.0412166 -0.480716 0)
(0.0330077 -0.370134 0)
(0.189436 -0.248799 0)
(0.371901 -0.190721 0)
(0.467956 -0.217314 0)
(0.466852 -0.044432 0)
(0.371202 0.338039 0)
(0.392083 0.260224 0)
(0.313313 0.148032 0)
(-0.552099 -0.511867 0)
(-0.532757 -0.525568 0)
(-0.479276 -0.621987 0)
(-0.473055 -0.64961 0)
(-0.501783 -0.544505 0)
(-0.45374 -0.265807 0)
(-0.217436 0.136561 0)
(-0.22169 0.342466 0)
(-0.154558 0.383514 0)
(-0.0949332 0.378726 0)
(-0.664709 -0.480449 0)
(-0.68315 -0.441961 0)
(-0.73123 -0.476657 0)
(-0.779693 -0.521906 0)
(-0.868939 -0.362545 0)
(-0.768674 -0.163292 0)
(-0.682072 -0.064167 0)
(-0.593291 -0.0326753 0)
(-0.538752 -0.0301124 0)
(-0.49433 0.108138 0)
(-0.707758 -0.473244 0)
(-0.687319 -0.437975 0)
(-0.702891 -0.391161 0)
(-0.723513 -0.433489 0)
(-0.824954 -0.436982 0)
(-0.797015 -0.439575 0)
(-0.691118 -0.278867 0)
(-0.63556 -0.188705 0)
(-0.606353 -0.180682 0)
(-0.463766 -0.23576 0)
(-0.800678 -0.559599 0)
(-0.754981 -0.550967 0)
(-0.666424 -0.485955 0)
(-0.607221 -0.449255 0)
(-0.571167 -0.502378 0)
(-0.525235 -0.563563 0)
(-0.43815 -0.587943 0)
(-0.225195 -0.361802 0)
(-0.164184 -0.260499 0)
(-0.102641 -0.371127 0)
(-0.809961 -0.6138 0)
(-0.785165 -0.635311 0)
(-0.747068 -0.648169 0)
(-0.659236 -0.645591 0)
(-0.535771 -0.624118 0)
(-0.472009 -0.598862 0)
(-0.405706 -0.637819 0)
(-0.296377 -0.461444 0)
(-0.1528 -0.322556 0)
(-0.0067989 -0.365161 0)
(-0.510326 -0.639937 0)
(-0.651674 -0.712631 0)
(-0.62341 -0.778301 0)
(-0.580654 -0.818216 0)
(-0.530664 -0.864974 0)
(-0.462142 -0.934674 0)
(-0.334069 -0.970757 0)
(-0.225275 -0.946794 0)
(-0.0868579 -0.828732 0)
(0.0798713 -0.825307 0)
(0.664828 0.633139 0)
(0.345814 0.0261911 0)
(0.242924 -0.626554 0)
(-0.242468 -0.788419 0)
(-0.225845 -0.923662 0)
(-0.254522 -1.05315 0)
(-0.22219 -1.20128 0)
(-0.101801 -1.23653 0)
(0.00205691 -1.17852 0)
(0.11541 -1.02191 0)
(0.585118 0.488495 0)
(0.606476 0.203264 0)
(0.494904 0.234275 0)
(0.314107 0.148975 0)
(-0.0199427 -0.68082 0)
(-0.00422019 -0.942587 0)
(-0.0443502 -1.23133 0)
(0.000385034 -1.37652 0)
(0.0763066 -1.34051 0)
(0.124726 -1.06546 0)
(0.414777 0.475541 0)
(0.412514 0.275397 0)
(0.377415 0.267127 0)
(0.385999 0.238307 0)
(0.152204 -0.437482 0)
(0.0912955 -0.851406 0)
(0.00236808 -1.23426 0)
(0.0263166 -1.42968 0)
(0.0633834 -1.44081 0)
(0.031458 -1.09005 0)
(0.227721 0.522379 0)
(0.209129 0.330454 0)
(0.221721 0.335874 0)
(0.347674 0.276782 0)
(0.231414 0.0673532 0)
(0.21804 -0.566486 0)
(0.0797448 -1.09013 0)
(0.0439071 -1.39197 0)
(-0.0439594 -1.41405 0)
(-0.102049 -1.06958 0)
(0.202259 0.729233 0)
(0.191184 0.392624 0)
(0.0438871 0.19814 0)
(0.178944 -0.0411953 0)
(0.177956 -0.124345 0)
(0.219972 -0.408758 0)
(0.142693 -0.90925 0)
(0.119617 -1.20633 0)
(-0.025359 -1.23525 0)
(-0.0664987 -1.15595 0)
(0.157612 0.779126 0)
(0.209918 0.513688 0)
(0.092983 0.315062 0)
(0.216364 -0.10877 0)
(0.194364 -0.192237 0)
(0.231244 -0.358936 0)
(0.188567 -0.805207 0)
(0.180923 -1.15909 0)
(0.168037 -1.24774 0)
(0.17562 -1.17005 0)
(0.136959 0.7674 0)
(0.169393 0.575841 0)
(0.23849 0.385237 0)
(0.218532 -0.102218 0)
(0.178306 -0.208758 0)
(0.224435 -0.29905 0)
(0.192988 -0.760073 0)
(0.262422 -1.18604 0)
(0.285913 -1.28655 0)
(0.275778 -1.21155 0)
(0.0446246 0.59461 0)
(0.0815311 0.426724 0)
(0.202928 0.211178 0)
(0.0744223 -0.131192 0)
(0.0540092 -0.134215 0)
(0.13641 -0.281913 0)
(0.151182 -0.81846 0)
(0.299748 -1.28072 0)
(0.317932 -1.30074 0)
(0.298126 -1.22553 0)
(0.206299 0.469667 0)
(0.142429 0.453571 0)
(0.170942 0.286761 0)
(-0.0929548 0.0773697 0)
(-0.126635 -0.0627538 0)
(0.0122296 -0.425805 0)
(0.164446 -1.31922 0)
(0.266585 -1.43921 0)
(0.304106 -1.33649 0)
(0.265547 -1.22564 0)
(0.22649 0.459267 0)
(0.160173 0.516778 0)
(0.103981 0.475962 0)
(-0.0126113 0.392862 0)
(-0.0257382 -0.121254 0)
(0.00553987 -1.08817 0)
(0.17295 -1.49818 0)
(0.193761 -1.47783 0)
(0.194023 -1.28361 0)
(0.112777 -1.14416 0)
(0.182811 0.463736 0)
(0.130947 0.651502 0)
(-0.0557326 0.735527 0)
(0.12171 0.0490518 0)
(-0.0186786 0.127497 0)
(0.115621 -1.22956 0)
(0.143167 -1.53564 0)
(0.165855 -1.48161 0)
(0.13984 -1.18565 0)
(0.104941 -1.04248 0)
(-0.0250002 0.587538 0)
(-0.0878601 0.795682 0)
(0.0149239 0.702609 0)
(0.0376244 0.148968 0)
(0.0771913 0.0359313 0)
(0.121731 -1.27123 0)
(0.157973 -1.56095 0)
(0.161398 -1.47687 0)
(0.126223 -1.07677 0)
(0.0836938 -0.986506 0)
(-0.132148 0.719122 0)
(-0.164977 0.704692 0)
(0.0106356 0.459672 0)
(-0.138598 0.281832 0)
(0.0858696 -0.213316 0)
(0.104993 -1.29178 0)
(0.160121 -1.57981 0)
(0.160591 -1.47727 0)
(0.151182 -0.974027 0)
(0.0388919 -0.802812 0)
(-0.122528 0.672019 0)
(-0.0522089 0.58015 0)
(0.0218582 0.478141 0)
(-0.150026 -0.0554562 0)
(0.0959198 -0.638134 0)
(0.121545 -1.40217 0)
(0.17915 -1.60088 0)
(0.173238 -1.47583 0)
(0.128755 -0.747064 0)
(0.0201156 -0.650023 0)
(-0.0078228 0.557231 0)
(0.0653687 0.420831 0)
(0.0795083 0.559495 0)
(-0.115146 0.26109 0)
(0.0929695 -0.860939 0)
(0.111694 -1.48119 0)
(0.189951 -1.633 0)
(0.159106 -1.44914 0)
(0.0751655 -0.570701 0)
(-0.0136391 -0.485836 0)
(0.024725 0.461965 0)
(0.0222958 0.388258 0)
(-0.0207018 0.783524 0)
(-0.0967579 0.0155843 0)
(0.0939346 -1.15829 0)
(0.0934142 -1.61961 0)
(0.170016 -1.69265 0)
(0.0709474 -1.24155 0)
(-0.0392769 -0.325417 0)
(-0.132412 -0.160099 0)
(-0.0793275 0.442907 0)
(-0.0965192 0.492993 0)
(0.0808479 0.746464 0)
(-0.0835908 0.287771 0)
(0.0892759 -1.36628 0)
(0.0451377 -1.662 0)
(0.12056 -1.73008 0)
(-0.0266556 -0.748349 0)
(-0.161993 -0.114206 0)
(-0.211683 0.09164 0)
(-0.256068 0.352975 0)
(-0.153024 0.441279 0)
(-0.00400513 0.441072 0)
(-0.0617695 0.194915 0)
(0.0505884 -1.4489 0)
(0.0232211 -1.66728 0)
(0.0442647 -1.68143 0)
(-0.111306 -0.264096 0)
(-0.14112 -0.166972 0)
(-0.128286 -0.1552 0)
(-0.229538 0.319978 0)
(-0.214536 0.372822 0)
(-0.0623018 0.315057 0)
(-0.0284372 0.169445 0)
(0.0603933 -1.46729 0)
(0.0315893 -1.65898 0)
(0.0453553 -1.60027 0)
(-0.114707 -0.0995871 0)
(-0.146485 -0.145714 0)
(-0.100853 -0.0967151 0)
(-0.00728277 0.679907 0)
(-0.0957433 0.218312 0)
(0.155444 -0.266319 0)
(0.105975 -0.0332463 0)
(0.0874522 -1.4402 0)
(0.047136 -1.64943 0)
(0.0549919 -1.58499 0)
(0.0960387 0.140981 0)
(-0.0143157 -0.183346 0)
(0.0407702 -0.367801 0)
(0.0882409 0.133516 0)
(0.26201 0.137115 0)
(0.179456 0.0764586 0)
(0.0885668 0.134037 0)
(0.0937496 -1.32496 0)
(0.0387843 -1.62724 0)
(0.0349016 -1.59919 0)
(0.123297 0.0982401 0)
(0.16149 -0.0702607 0)
(0.170695 -0.298289 0)
(-0.0581868 0.188235 0)
(0.0382203 0.0903454 0)
(0.0269874 0.0620492 0)
(0.0333263 0.0871276 0)
(0.10689 -1.32037 0)
(0.0667382 -1.54158 0)
(0.137106 -1.53055 0)
(0.0192761 -0.210529 0)
(0.16219 -0.331144 0)
(0.196862 -0.368712 0)
(-0.104138 0.104739 0)
(-0.0517065 -0.0428637 0)
(-0.138036 0.1194 0)
(-0.0537632 0.0694608 0)
(0.0453029 -1.48855 0)
(0.0116387 -1.50376 0)
(0.0276223 -1.48505 0)
(0.112775 -0.489521 0)
(0.231996 -0.269588 0)
(0.169048 -0.437944 0)
(-0.0929628 0.142879 0)
(-0.0740699 0.114851 0)
(-0.106346 0.249032 0)
(-0.182179 -0.758416 0)
(0.00739685 -1.50719 0)
(-0.00607266 -1.49745 0)
(-0.00229547 -1.5042 0)
(-0.0121773 -0.604816 0)
(0.0752023 -0.333246 0)
(0.0579023 -0.27606 0)
(-0.324777 -0.0506185 0)
(-0.505258 0.181641 0)
(-0.372313 0.617868 0)
(-0.0292591 -1.1204 0)
(0.00772008 -1.51156 0)
(-0.00331957 -1.50521 0)
(0.0136229 -1.50874 0)
(0.0121405 -0.700873 0)
(0.0498504 -0.359578 0)
(0.0143375 -0.25081 0)
(-0.475357 0.230788 0)
(-0.448999 0.171136 0)
(-0.0910743 -0.155924 0)
(0.00634073 -1.4662 0)
(0.00887488 -1.51513 0)
(-0.000603041 -1.51351 0)
(0.0161918 -1.50534 0)
(0.0151689 -0.693231 0)
(0.0408448 -0.318386 0)
(0.00785591 -0.184369 0)
(-0.184347 0.245508 0)
(-0.0207222 -0.150075 0)
(-0.00107374 -0.359053 0)
(-0.00358056 -1.48651 0)
(0.00682564 -1.51874 0)
(-0.00220389 -1.51459 0)
(0.00395379 -1.50355 0)
(-0.00254623 -0.807756 0)
(0.0551983 -0.350118 0)
(0.0668603 -0.157989 0)
(-0.0177744 0.0997257 0)
(0.0543726 -0.29765 0)
(0.0268089 -0.338522 0)
(0.0204424 -1.4848 0)
(0.0148389 -1.51743 0)
(0.0071074 -1.51593 0)
(0.026113 -1.499 0)
(0.0252912 -0.853998 0)
(0.0571325 -0.449249 0)
(0.0934806 -0.196409 0)
(0.0176128 -0.104772 0)
(-0.00662158 -0.259566 0)
(0.00564905 -0.292962 0)
(-0.00440315 -1.48218 0)
(0.00461653 -1.51393 0)
(-0.0057665 -1.51879 0)
(-0.000755388 -1.49204 0)
(-0.00733758 -0.896736 0)
(0.0308553 -0.466518 0)
(0.0424267 -0.306453 0)
(-0.00192258 -0.186681 0)
(-0.103335 -0.24021 0)
(-0.019436 -0.34772 0)
(-0.00564053 -1.48556 0)
(0.00273354 -1.51512 0)
(-0.00613524 -1.51321 0)
(-0.0020535 -1.48882 0)
(-0.0164651 -0.923272 0)
(0.00709344 -0.459872 0)
(-0.00737593 -0.381552 0)
(-0.053293 -0.138081 0)
(-0.0835476 -0.178943 0)
(-0.001256 -0.658632 0)
(0.000377912 -1.48624 0)
(0.00569921 -1.51317 0)
(-0.00473029 -1.51132 0)
(0.00122191 -1.48521 0)
(-0.020014 -0.944011 0)
(-0.00871509 -0.463145 0)
(-0.0062429 -0.412872 0)
(0.0556211 -0.130474 0)
(0.0768208 -0.145549 0)
(0.0178322 -0.521793 0)
(0.00404654 -1.47116 0)
(0.00442758 -1.50608 0)
(-0.00434584 -1.50777 0)
(-0.00150736 -1.47528 0)
(-0.0305034 -0.893947 0)
(-0.0271157 -0.495457 0)
(-0.00768745 -0.443913 0)
(-0.0162114 -0.187786 0)
(-0.0173241 -0.0622076 0)
(0.018217 -0.592356 0)
(0.00554259 -1.4436 0)
(0.0047534 -1.49617 0)
(-0.00738826 -1.49668 0)
(-0.00902697 -1.44885 0)
(-0.0354263 -0.861085 0)
(-0.0275827 -0.514062 0)
(-0.016443 -0.479976 0)
(-0.148808 -0.159755 0)
(-0.10177 -0.224586 0)
(0.0315229 -0.732715 0)
(0.0112613 -1.4027 0)
(0.00670729 -1.4811 0)
(-0.00655956 -1.48111 0)
(-0.00937967 -1.42217 0)
(-0.0323207 -0.852517 0)
(-0.0165764 -0.539501 0)
(-0.0013809 -0.512525 0)
(-0.0375928 -0.174882 0)
(0.0045067 -0.368755 0)
(0.0349522 -0.749732 0)
(0.0122065 -1.37582 0)
(0.00631437 -1.46075 0)
(-0.00750393 -1.46137 0)
(-0.0137295 -1.40484 0)
(-0.0307636 -0.849009 0)
(-0.00892081 -0.595183 0)
(0.0145004 -0.533197 0)
(0.0152623 -0.254665 0)
(0.0303865 -0.402266 0)
(0.0412539 -0.751676 0)
(0.013051 -1.35486 0)
(0.00826079 -1.4358 0)
(-0.00699611 -1.43543 0)
(-0.0121394 -1.38387 0)
(-0.0289224 -0.845246 0)
(-0.0178805 -0.626472 0)
(-0.000601262 -0.551413 0)
(0.0364036 -0.270527 0)
(0.0308386 -0.415756 0)
(0.0444442 -0.729271 0)
(0.01349 -1.32425 0)
(0.0088684 -1.41171 0)
(-0.00632867 -1.41077 0)
(-0.011294 -1.36558 0)
(-0.0290157 -0.846376 0)
(-0.022808 -0.636624 0)
(-0.0175174 -0.565634 0)
(0.0342661 -0.284072 0)
(0.0285121 -0.417528 0)
(0.0325753 -0.710132 0)
(0.0113069 -1.30366 0)
(0.00799543 -1.3869 0)
(-0.00627368 -1.38695 0)
(-0.00888611 -1.34786 0)
(-0.0317848 -0.849653 0)
(-0.0326843 -0.638751 0)
(-0.0319389 -0.594318 0)
(0.0246718 -0.296844 0)
(0.0181376 -0.414859 0)
(0.0137551 -0.688816 0)
(0.00300087 -1.30383 0)
(0.00791845 -1.36535 0)
(-0.00788647 -1.36487 0)
(-0.00509126 -1.3256 0)
(-0.033414 -0.837344 0)
(-0.0562662 -0.59244 0)
(-0.072945 -0.611602 0)
(0.0209873 -0.294247 0)
(0.0111843 -0.399149 0)
(0.00394557 -0.677543 0)
(0.00462816 -1.32826 0)
(0.00620947 -1.34977 0)
(-0.00671971 -1.34822 0)
(0.00387494 -1.31519 0)
(-0.03437 -0.72729 0)
(-0.0781635 -0.523137 0)
(-0.0965573 -0.588104 0)
(0.0197991 -0.28316 0)
(0.00532781 -0.386599 0)
(0.00377026 -0.668819 0)
(0.00218689 -1.33051 0)
(0.00737154 -1.33395 0)
(-0.0058412 -1.33485 0)
(-0.000668241 -1.31385 0)
(-0.0300307 -0.60024 0)
(-0.0628583 -0.501788 0)
(-0.060482 -0.532079 0)
(0.0308121 -0.245094 0)
(0.00407383 -0.352865 0)
(-0.00720368 -0.663553 0)
(-0.00713553 -1.31834 0)
(0.00224726 -1.3255 0)
(-0.00795352 -1.32371 0)
(-0.011506 -1.31749 0)
(-0.0128192 -0.562372 0)
(-0.0236864 -0.482664 0)
(-0.0230098 -0.526377 0)
(0.0460542 -0.196168 0)
(0.00698367 -0.304802 0)
(0.00674451 -0.665774 0)
(0.00448724 -1.31132 0)
(0.00764018 -1.31891 0)
(-0.0025929 -1.31829 0)
(0.00132792 -1.31286 0)
(-0.00121537 -0.625927 0)
(-0.00579854 -0.459936 0)
(-0.0105108 -0.557066 0)
(0.0519807 -0.132164 0)
(0.0023084 -0.249436 0)
(0.000921285 -0.676713 0)
(-0.00432732 -1.30278 0)
(0.00311164 -1.31217 0)
(-0.00630596 -1.31233 0)
(-0.00667335 -1.30592 0)
(-0.00965364 -0.624873 0)
(0.0507944 -0.402836 0)
(-0.00899164 -0.558389 0)
(0.0390802 -0.0781247 0)
(-0.00362318 -0.211038 0)
(0.0124338 -0.676108 0)
(0.00161499 -1.29698 0)
(0.00571118 -1.3081 0)
(-0.00382819 -1.30575 0)
(-0.000603784 -1.30063 0)
(-0.00784852 -0.834838 0)
(0.0984374 -0.385064 0)
(0.0439515 -0.448685 0)
(0.0352501 -0.0436045 0)
(0.00453255 -0.18813 0)
(0.01948 -0.687858 0)
(0.00769099 -1.2876 0)
(0.00916827 -1.30111 0)
(-0.00229324 -1.29781 0)
(0.000354233 -1.29442 0)
(-0.0204562 -0.90539 0)
(0.0404496 -0.421556 0)
(0.0168636 -0.348852 0)
(0.0429433 -0.0312509 0)
(0.0358217 -0.175349 0)
(0.0548431 -0.689089 0)
(0.0288019 -1.27564 0)
(0.0158044 -1.28514 0)
(0.00242016 -1.28726 0)
(0.0158912 -1.28122 0)
(-0.00269925 -0.865479 0)
(-0.026428 -0.433372 0)
(-0.018134 -0.329673 0)
(0.0489688 -0.0344808 0)
(0.0470917 -0.170865 0)
(0.038994 -0.647066 0)
(0.00565797 -1.26033 0)
(0.00428048 -1.26497 0)
(-0.00886511 -1.2717 0)
(-0.0129338 -1.26435 0)
(-0.0389655 -0.780711 0)
(-0.0633656 -0.425386 0)
(-0.0480789 -0.34199 0)
(0.044845 -0.0363092 0)
(0.0411634 -0.165782 0)
(0.027775 -0.590018 0)
(0.00452667 -1.2291 0)
(0.00339247 -1.24671 0)
(-0.0120379 -1.25065 0)
(-0.0181015 -1.237 0)
(-0.050579 -0.730572 0)
(-0.0802327 -0.440183 0)
(-0.0701381 -0.327928 0)
(0.0283257 -0.0311306 0)
(0.0258342 -0.159222 0)
(0.00552056 -0.554497 0)
(-0.00439269 -1.20971 0)
(-0.000499991 -1.22704 0)
(-0.0152547 -1.22858 0)
(-0.0297831 -1.21433 0)
(-0.0448129 -0.659245 0)
(-0.0809488 -0.437536 0)
(-0.07367 -0.29763 0)
(0.0526301 -0.0348157 0)
(0.0331381 -0.134474 0)
(-0.00841539 -0.506456 0)
(-0.0145193 -1.20258 0)
(-0.00100499 -1.21055 0)
(-0.0177643 -1.20595 0)
(-0.0373728 -1.21175 0)
(-0.035523 -0.590053 0)
(-0.0815205 -0.362697 0)
(-0.0986418 -0.236361 0)
(0.058164 -0.018575 0)
(0.0351864 -0.0790365 0)
(0.0232592 -0.46884 0)
(0.0186905 -1.19586 0)
(0.00996599 -1.18882 0)
(-0.00591383 -1.18357 0)
(-0.00488273 -1.20272 0)
(-0.0129866 -0.536299 0)
(-0.0684997 -0.250559 0)
(-0.0982199 -0.182221 0)
(0.0540436 0.0239105 0)
(0.0232396 -0.0382934 0)
(0.0263926 -0.460076 0)
(0.0104247 -1.18077 0)
(0.00880298 -1.16508 0)
(-0.00742193 -1.16622 0)
(-0.00926318 -1.18372 0)
(-0.0160685 -0.512774 0)
(-0.0546785 -0.17887 0)
(-0.0946847 -0.148666 0)
(-0.0307549 0.116493 0)
(-0.0142239 -0.0473647 0)
(0.0216565 -0.475059 0)
(0.0084825 -1.16553 0)
(0.00647603 -1.14756 0)
(-0.00827636 -1.14822 0)
(-0.00964495 -1.16915 0)
(-0.00209433 -0.553654 0)
(0.00711338 -0.0882965 0)
(-0.0537158 -0.126027 0)
(-0.074393 0.115059 0)
(-0.0048184 -0.194625 0)
(0.0142764 -0.49666 0)
(0.00636911 -1.14979 0)
(0.00637423 -1.13294 0)
(-0.00758539 -1.13183 0)
(-0.00963926 -1.15332 0)
(-0.00479091 -0.570231 0)
(-0.00246884 -0.00704029 0)
(-0.0628889 -0.123767 0)
(0.0120358 0.104723 0)
(0.0252628 -0.205242 0)
(0.0127852 -0.51259 0)
(0.00900271 -1.13384 0)
(0.00683463 -1.11811 0)
(-0.00681605 -1.11828 0)
(-0.00733953 -1.13759 0)
(-0.0142872 -0.672062 0)
(0.0479584 0.0790798 0)
(0.0255704 -0.0374715 0)
(0.051193 0.0743258 0)
(0.0169248 -0.157753 0)
(0.0125651 -0.51858 0)
(0.00983517 -1.11792 0)
(0.00714183 -1.10477 0)
(-0.00536604 -1.10367 0)
(-0.00734883 -1.12151 0)
(-0.0169311 -0.70908 0)
(0.0364795 -0.03071 0)
(0.064064 -0.0195587 0)
(0.025056 -0.00281298 0)
(0.0423669 -0.127634 0)
(0.0293436 -0.447741 0)
(0.0134298 -1.10132 0)
(0.00849442 -1.08912 0)
(-0.00501221 -1.08987 0)
(-0.00638621 -1.10623 0)
(-0.0172417 -0.723741 0)
(0.00347233 -0.107316 0)
(0.0250148 0.033564 0)
(0.0399103 -0.137429 0)
(0.0326519 -0.123175 0)
(0.0155962 -0.452189 0)
(0.0130024 -1.08656 0)
(0.00730403 -1.07266 0)
(-0.006334 -1.07296 0)
(-0.0107392 -1.09008 0)
(-0.0199665 -0.726167 0)
(-0.01498 -0.134259 0)
(0.00325161 0.0582355 0)
(0.0303181 -0.207454 0)
(-0.0228841 -0.0523113 0)
(0.00640896 -0.538476 0)
(0.0139456 -1.06981 0)
(0.007987 -1.05389 0)
(-0.0066699 -1.05492 0)
(-0.0114598 -1.07322 0)
(-0.0210548 -0.722804 0)
(-0.0243231 -0.145062 0)
(-0.00951126 0.0529772 0)
(0.0497114 -0.248237 0)
(-0.00216957 0.00229038 0)
(0.00791386 -0.57147 0)
(0.0135913 -1.05422 0)
(0.00777854 -1.03472 0)
(-0.00708149 -1.03509 0)
(-0.0122742 -1.05643 0)
(-0.0220742 -0.712665 0)
(-0.0271988 -0.158306 0)
(-0.0205215 0.0393709 0)
(-0.0374775 -0.149112 0)
(-0.0625325 0.067523 0)
(0.0148082 -0.669657 0)
(0.0130072 -1.03789 0)
(0.00793009 -1.01427 0)
(-0.00784334 -1.01541 0)
(-0.0129164 -1.03867 0)
(-0.0184216 -0.698854 0)
(-0.025412 -0.157267 0)
(-0.0267496 0.0361606 0)
(-0.0791813 -0.117599 0)
(-0.0200896 -0.0721822 0)
(0.0330188 -0.683758 0)
(0.0135742 -1.01958 0)
(0.00777411 -0.994916 0)
(-0.00774635 -0.994933 0)
(-0.01316 -1.02119 0)
(-0.0214823 -0.683589 0)
(-0.0415244 -0.107018 0)
(-0.0485691 0.0402899 0)
(-0.0102382 -0.193084 0)
(0.0263668 -0.212755 0)
(0.0270119 -0.680469 0)
(0.0129783 -1.00111 0)
(0.00792675 -0.974259 0)
(-0.00754339 -0.975363 0)
(-0.0124254 -1.00173 0)
(-0.0207864 -0.685943 0)
(-0.0189955 -0.0974265 0)
(-0.0292212 0.00613759 0)
(0.0568635 -0.154904 0)
(0.033944 -0.157148 0)
(0.0205454 -0.685546 0)
(0.0127582 -0.979995 0)
(0.0075593 -0.956257 0)
(-0.00764811 -0.956746 0)
(-0.01265 -0.981873 0)
(-0.0229598 -0.685509 0)
(-0.0154683 -0.0818252 0)
(-0.0170874 -0.00453324 0)
(0.0149415 -0.107168 0)
(0.00773949 -0.145168 0)
(0.022904 -0.700685 0)
(0.0129555 -0.960066 0)
(0.00765753 -0.936159 0)
(-0.00712149 -0.936897 0)
(-0.0126613 -0.960634 0)
(-0.0246517 -0.687187 0)
(-0.0178528 -0.0897378 0)
(-0.00959393 0.00458512 0)
(0.0666369 -0.00438908 0)
(0.0445831 -0.128816 0)
(0.0252358 -0.658972 0)
(0.0137951 -0.938032 0)
(0.0076954 -0.918579 0)
(-0.00723516 -0.918726 0)
(-0.0129869 -0.940061 0)
(-0.0218915 -0.696757 0)
(-0.00643784 -0.152614 0)
(0.0246897 -0.0108528 0)
(0.0690553 0.0242743 0)
(0.0556618 -0.060269 0)
(0.0257659 -0.639391 0)
(0.0153436 -0.91795 0)
(0.00811996 -0.896788 0)
(-0.00739131 -0.897918 0)
(-0.0145694 -0.919058 0)
(-0.0209859 -0.691586 0)
(-0.0297131 -0.152968 0)
(-0.0242609 0.0147377 0)
(0.0141819 0.0231964 0)
(0.0166584 -0.0575607 0)
(0.023128 -0.638501 0)
(0.0152122 -0.896695 0)
(0.00809035 -0.876324 0)
(-0.00809272 -0.876036 0)
(-0.0153858 -0.898056 0)
(-0.0243296 -0.676228 0)
(-0.0398647 -0.139394 0)
(-0.0420857 -0.00786162 0)
(0.00918324 0.0461472 0)
(0.0204905 -0.0657363 0)
(0.024388 -0.634009 0)
(0.0168429 -0.876156 0)
(0.00855608 -0.852675 0)
(-0.00850165 -0.852314 0)
(-0.0173426 -0.8764 0)
(-0.0238636 -0.665193 0)
(-0.0293305 -0.125653 0)
(-0.0256202 -0.00976679 0)
(0.00336536 0.0340615 0)
(0.0251019 -0.102342 0)
(0.025139 -0.635907 0)
(0.0166899 -0.855226 0)
(0.00860569 -0.829133 0)
(-0.00774982 -0.828342 0)
(-0.0163898 -0.855243 0)
(-0.027349 -0.650551 0)
(-0.0407247 -0.0885312 0)
(-0.0284816 -0.0299782 0)
(0.0195052 0.0319869 0)
(0.0287664 -0.112268 0)
(0.0239458 -0.632337 0)
(0.0177086 -0.83233 0)
(0.00914917 -0.805382 0)
(-0.00852792 -0.803534 0)
(-0.0178798 -0.831179 0)
(-0.026267 -0.672852 0)
(0.00212189 -0.172348 0)
(0.0488453 -0.0716247 0)
(0.0379706 0.00951722 0)
(0.0456037 -0.0899447 0)
(0.0265875 -0.613375 0)
(0.0168444 -0.808313 0)
(0.00778924 -0.781324 0)
(-0.00743151 -0.779907 0)
(-0.0163712 -0.806579 0)
(-0.0258177 -0.674526 0)
(-0.0252165 -0.22603 0)
(0.00374698 -0.103223 0)
(0.0265754 -0.0284358 0)
(0.0385073 -0.0798498 0)
(0.0272496 -0.606272 0)
(0.0185088 -0.782547 0)
(0.00815839 -0.758571 0)
(-0.00801148 -0.756306 0)
(-0.0178904 -0.779838 0)
(-0.0260285 -0.65947 0)
(-0.0459241 -0.223517 0)
(-0.0363557 -0.118559 0)
(-0.00277315 -0.0519137 0)
(0.0246519 -0.103305 0)
(0.0270789 -0.603919 0)
(0.0173529 -0.75656 0)
(0.00649279 -0.734818 0)
(-0.00727692 -0.733356 0)
(-0.0165737 -0.753411 0)
(-0.0271084 -0.635335 0)
(-0.0548886 -0.206205 0)
(-0.0458814 -0.118436 0)
(0.00557353 -0.0659053 0)
(0.0357606 -0.143854 0)
(0.0299072 -0.589641 0)
(0.0210641 -0.729804 0)
(0.00843875 -0.710269 0)
(-0.0093758 -0.708559 0)
(-0.0210675 -0.727076 0)
(-0.0283031 -0.614543 0)
(-0.0476019 -0.198093 0)
(-0.0338434 -0.130987 0)
(0.0327538 -0.0855717 0)
(0.0538848 -0.155128 0)
(0.0323575 -0.564217 0)
(0.0211924 -0.701945 0)
(0.00837113 -0.681509 0)
(-0.00576019 -0.682733 0)
(-0.0191834 -0.700685 0)
(-0.0310007 -0.594228 0)
(-0.0518732 -0.190027 0)
(-0.0406202 -0.134435 0)
(0.0324952 -0.108299 0)
(0.0500126 -0.173568 0)
(0.0398947 -0.537256 0)
(0.0245381 -0.669785 0)
(0.00761192 -0.646823 0)
(-0.00610004 -0.658145 0)
(-0.0183533 -0.672024 0)
(-0.0289385 -0.576008 0)
(-0.0405765 -0.197069 0)
(-0.0225223 -0.14156 0)
(0.0316446 -0.112623 0)
(0.00958639 -0.189189 0)
(0.0248458 -0.505616 0)
(0.00274913 -0.639723 0)
(-0.0104983 -0.631263 0)
(-0.0243448 -0.622359 0)
(-0.0303845 -0.638436 0)
(-0.0495207 -0.56963 0)
(-0.0529661 -0.212329 0)
(-0.0266374 -0.135899 0)
(0.0399502 -0.103998 0)
(-0.00725847 -0.198198 0)
(0.0612767 -0.489357 0)
(0.0344498 -0.606862 0)
(0.0258998 -0.602577 0)
(0.00996954 -0.589544 0)
(-0.00510318 -0.606877 0)
(-0.00651594 -0.563443 0)
(-0.030844 -0.199898 0)
(-0.0373232 -0.102143 0)
(0.029226 -0.0869725 0)
(0.0288341 -0.221294 0)
(0.0743117 -0.532282 0)
(0.0500401 -0.588953 0)
(0.042955 -0.584163 0)
(0.0279591 -0.58227 0)
(0.00798738 -0.591762 0)
(0.000678889 -0.565296 0)
(-0.0389012 -0.16953 0)
(-0.0464908 -0.0781051 0)
(0.0312889 -0.0804859 0)
(0.0332452 -0.278943 0)
(0.0547478 -0.540469 0)
(0.0154719 -0.540458 0)
(0.00702562 -0.538588 0)
(-0.0109493 -0.542349 0)
(-0.0330951 -0.540284 0)
(-0.0541904 -0.475805 0)
(-0.0463155 -0.139452 0)
(-0.066612 -0.0555589 0)
(0.0563113 -0.0759406 0)
(0.0575055 -0.279619 0)
(0.0541511 -0.487467 0)
(0.0248409 -0.508206 0)
(0.0107747 -0.51328 0)
(-0.0112333 -0.512047 0)
(-0.0342222 -0.510309 0)
(-0.0510871 -0.491844 0)
(0.0263215 -0.162515 0)
(-0.0461059 -0.0244205 0)
(0.0536559 -0.0812276 0)
(0.0537488 -0.273525 0)
(0.0529696 -0.458618 0)
(0.0300217 -0.468761 0)
(0.0131096 -0.464924 0)
(-0.0117432 -0.466628 0)
(-0.0328875 -0.458073 0)
(-0.0730255 -0.44742 0)
(-0.0821727 -0.152354 0)
(-0.0734874 0.00944582 0)
(0.0355684 -0.101224 0)
(0.0665391 -0.314674 0)
(0.0569061 -0.411282 0)
(0.0154931 -0.430297 0)
(-0.00631457 -0.434268 0)
(-0.0282155 -0.428384 0)
(-0.0445636 -0.418771 0)
(-0.0722384 -0.393134 0)
(-0.0743292 -0.18821 0)
(-0.0662369 -0.00844868 0)
(0.0146639 -0.109318 0)
(0.065402 -0.351697 0)
(0.0609718 -0.362583 0)
(0.039601 -0.379211 0)
(0.0189109 -0.380497 0)
(-0.00790673 -0.381133 0)
(-0.0285529 -0.375082 0)
(-0.0697446 -0.361899 0)
(-0.0749589 -0.229963 0)
(-0.0175976 -0.0249643 0)
(0.108761 -0.177748 0)
(0.0653222 -0.289895 0)
(0.052136 -0.311172 0)
(0.0106309 -0.324997 0)
(-0.0107407 -0.334062 0)
(-0.0384846 -0.334341 0)
(-0.0598029 -0.330641 0)
(-0.0782874 -0.309279 0)
(-0.0796121 -0.268405 0)
(-0.0524122 -0.0529441 0)
(0.0879206 -0.230788 0)
(0.0686512 -0.236195 0)
(0.0663091 -0.263202 0)
(0.0385476 -0.279944 0)
(0.0200241 -0.28403 0)
(-0.0122567 -0.286362 0)
(-0.0336566 -0.280173 0)
(-0.0689452 -0.255873 0)
(-0.0777518 -0.213065 0)
(-0.110495 -0.158727 0)
(0.0511996 -0.149813 0)
(0.0504373 -0.199567 0)
(0.0392574 -0.234299 0)
(0.0173753 -0.246672 0)
(0.00954902 -0.24705 0)
(-0.0124284 -0.245581 0)
(-0.0240138 -0.239926 0)
(-0.0490557 -0.230287 0)
(-0.0513539 -0.188126 0)
(-0.0606573 -0.110879 0)
(0.032767 -0.2281 0)
(0.00200786 -0.251817 0)
(0.0234134 -0.250327 0)
(0.126171 -0.3256 0)
(0.252909 -0.259696 0)
(0.363183 -0.206422 0)
(0.406229 -0.144573 0)
(0.397132 -0.144237 0)
(0.375453 -0.132515 0)
(0.331319 -0.107486 0)
(0.339822 -0.0746628 0)
(0.337371 -0.0435105 0)
(0.369076 -0.0304485 0)
(0.410999 -0.0476046 0)
(0.482827 -0.0612363 0)
(0.55542 -0.0486823 0)
(0.635456 -0.0360757 0)
(0.706896 -0.0305844 0)
(0.734555 -0.018825 0)
(0.732628 -0.00782382 0)
(0.715226 0.00123172 0)
(0.691095 0.0194319 0)
(0.661011 0.0624243 0)
(0.610715 0.0819455 0)
(0.56926 0.0566737 0)
(0.560006 0.0267087 0)
(0.560589 0.0107784 0)
(0.566667 0.00194914 0)
(0.576333 -0.00597709 0)
(0.582096 -0.00300304 0)
(0.581041 0.00440776 0)
(0.573616 0.0253174 0)
(0.541298 0.0450123 0)
(0.507051 0.059007 0)
(0.454302 0.0413436 0)
(0.413083 0.039533 0)
(0.331134 0.058534 0)
(0.25582 0.097314 0)
(0.182128 0.137082 0)
(0.0265993 0.121949 0)
(0.237205 0.260872 0)
(0.16371 0.235826 0)
(0.200118 -0.042614 0)
(0.182824 -0.313271 0)
(0.0374942 -0.283445 0)
(0.11226 -0.0570615 0)
(-0.0241368 0.0269617 0)
(0.014112 0.194556 0)
(-0.120906 0.211344 0)
(-0.127598 0.168857 0)
(-0.165474 0.0570249 0)
(-0.106259 -0.0704837 0)
(0.0108423 -0.0493047 0)
(0.0863184 -0.15723 0)
(0.183091 -0.23843 0)
(0.274117 -0.234305 0)
(0.356768 -0.15604 0)
(0.39697 -0.0830088 0)
(0.40994 -0.0188304 0)