/*--------------------------------*- C++ -*----------------------------------*\
  =========                 |
  \\      /  F ield         | OpenFOAM: The Open Source CFD Toolbox
   \\    /   O peration     | Website:  https://openfoam.org
    \\  /    A nd           | Version:  8
     \\/     M anipulation  |
\*---------------------------------------------------------------------------*/
FoamFile
{
    version     2.0;
    format      ascii;
    class       volScalarField;
    location    "3.75";
    object      alpha.water;
}
// * * * * * * * * * * * * * * * * * * * * * * * * * * * * * * * * * * * * * //

dimensions      [0 0 0 0 0 0 0];

internalField   nonuniform List<scalar> 
9150
(
1
1
1
1
1
1
1
1
1
1
1
1
1
1
1
1
1
1
1
1
1
1
1
1
1
1
1
1
1
1
1
1
1
1
1
1
1
1
1
1
1
1
1
1
1
1
1
1
1
1
1
1
1
1
1
1
1
1
1
1
1
1
1
1
1
1
1
1
1
1
1
1
1
1
1
1
1
1
1
1
1
1
1
1
1
1
1
1
1
1
1
1
1
1
1
1
1
1
1
1
1
1
1
1
1
1
1
1
1
1
1
1
1
1
1
1
1
1
1
1
1
1
1
1
1
1
1
1
1
1
1
1
1
1
1
1
1
1
1
1
1
1
1
1
1
1
1
1
1
1
0.954875
0.954733
0.954617
0.954493
0.952638
0.951976
0.950382
0.927714
0.885808
0.88075
0.931397
0.944578
0.946112
0.946856
0.955801
0.905235
0.870004
0.712091
0.708594
0.70858
0.376304
0.516095
0.611475
0.848439
0.973627
0.975084
0.976154
0.920379
0.768804
0.708594
0.308457
0.30847
0.325456
0.746989
0.914715
0.965883
0.978495
0.978565
0.978658
0.961282
0.308452
0.308457
0.487271
0.908388
0.88138
0.873936
0.914696
0.978658
0.978682
0.978688
0.67988
0.890435
0.984493
0.984491
0.984479
0.967249
0.865152
0.947392
0.978691
0.9787
0.984383
0.984493
0.984493
0.984493
0.984491
0.97764
0.860515
0.873322
0.9787
0.978707
0.984477
0.984485
0.984493
0.984491
0.984381
0.898251
0.796908
0.796984
0.897922
0.978716
0.984467
0.984477
0.98448
0.984342
0.983826
0.879212
0.796984
0.796916
0.796984
0.799154
0.926215
0.957872
0.98152
0.98359
0.978372
0.976389
0.974985
0.968044
0.873666
0.800829
0.228006
0.264711
0.629033
0.737207
0.794019
0.88614
0.925966
0.933751
0.927242
0.923525
0.211817
0.19229
0.189815
0.188434
0.184441
0.179873
0.345859
0.505838
0.659058
0.81203
0.89186
0.546152
0.222423
0.194965
0.179873
0.178312
0.177677
0.177699
0.175822
0.174524
0.894356
0.896241
0.89191
0.797961
0.339124
0.219715
0.203266
0.175856
0.174555
0.174153
0.896241
0.89787
0.898139
0.810148
0.731951
0.879329
0.84529
0.356453
0.201466
0.179917
0.897563
0.899462
0.909126
0.780231
0.769959
0.882327
0.883549
0.889157
0.909446
0.746697
0.669139
0.878473
0.928452
0.942231
0.911348
0.839107
0.840813
0.840539
0.912085
0.916413
0.0572082
0.16174
0.714006
0.945129
0.970582
0.974672
0.878448
0.846149
0.848897
0.85099
0.0571993
0.0572117
0.0572189
0.32499
0.940413
0.975876
0.975944
0.975971
0.939297
0.91647
0.0571856
0.0571993
0.0572137
0.0572217
0.415743
0.975944
0.975971
0.976024
0.976024
0.976118
0.244981
0.243924
0.0746896
0.0572273
0.227959
0.875189
0.975944
0.975971
0.976118
0.976292
0.245887
0.245814
0.143851
0.0595582
0.0623551
0.540954
0.959295
0.970315
0.974482
0.976036
0.0730537
0.0877325
0.0698165
0.0620478
0.0620452
0.0624245
0.322194
0.534302
0.600055
0.887137
0.0687268
0.0625308
0.0621325
0.0620452
0.0620323
0.0620289
0.0621275
0.0639379
0.1001
0.325767
0.481073
0.0653241
0.0622315
0.0620321
0.06203
0.0620262
0.062029
0.0621081
0.0623145
0.0625349
0.894875
0.218122
0.0628805
0.0622362
0.0622298
0.0670761
0.0639497
0.0622988
0.062517
0.0626143
0.985215
0.462384
0.0640282
0.062881
0.06338
0.0672529
0.0672532
0.0640068
0.0626143
0.0626351
0.985208
0.66545
0.0879377
0.063064
0.0629036
0.0628604
0.0630186
0.0627429
0.0626853
0.0626689
0.985206
0.985151
0.641094
0.0882855
0.0630579
0.0627647
0.062651
0.0627317
0.0627358
0.0627174
0.977661
0.985144
0.985124
0.985074
0.882018
0.558423
0.360354
0.317172
0.312062
0.424523
0.985108
0.985128
0.985103
0.984903
0.975677
0.985105
0.985463
0.985499
0.985459
0.985459
0.985111
0.98511
0.98511
0.977446
0.973165
0.973206
0.984306
0.985542
0.985499
0.985443
0.98511
0.985111
0.979627
0.973521
0.973294
0.985487
0.985568
0.985554
0.985542
0.985131
0.748235
0.901782
0.985323
0.98555
0.985568
0.985568
0.985568
0.985569
0.985496
0.978611
0.549816
0.554139
0.753155
0.984537
0.985555
0.985568
0.985568
0.985557
0.984972
0.538511
0.54998
0.603067
0.921067
0.981452
0.985511
0.985527
0.985556
0.985428
0.83285
0.108613
0.770303
0.937343
0.969966
0.985382
0.985452
0.985484
0.985483
0.984502
0.415021
0.0498875
0.974928
0.956749
0.973175
0.984637
0.966328
0.985452
0.984588
0.857773
0.159358
0.0481246
0.978023
0.985498
0.985064
0.954789
0.944128
0.984064
0.980684
0.32467
0.0506772
0.0487949
0.985502
0.985504
0.976829
0.888119
0.959466
0.980692
0.706273
0.0807703
0.0492412
0.049003
0.985504
0.985504
0.930651
0.888643
0.946979
0.897376
0.384333
0.0513175
0.0502813
0.0492453
0.985504
0.985504
0.94526
0.964772
0.899705
0.813901
0.299183
0.0574688
0.0513176
0.312194
0.985504
0.985504
0.985504
0.985345
0.90518
0.781386
0.245274
0.0681919
0.2112
0.936427
0.985504
0.985194
0.980479
0.985264
0.845328
0.726244
0.152513
0.304841
0.787237
0.81653
0.895707
0.94381
0.968841
0.985226
0.736704
0.668516
0.109828
0.311447
0.641324
0.141271
0.927857
0.951936
0.964713
0.95196
0.664425
0.66695
0.111199
0.105465
0.16008
7.18448e-05
0.588856
0.459215
0.582334
0.401365
0.496767
0.691391
0.0722102
0.0716062
0.144295
5.12584e-05
0.000310014
0.00822024
0.0586987
0.0643905
0.71939
0.70565
0.0539587
0.0998788
0.145019
9.29674e-05
0.00138212
0.00443619
0.00357927
0.004788
0.71939
0.714116
0.0106407
0.0769595
0.0746481
0.0227167
0.00121206
0.00296952
0.00359337
0.00370824
0.718564
0.718804
0.00478351
0.0409445
0.0744562
0.023544
0.000101395
0.000381993
0.0234698
0.00470872
0.73236
0.73114
0.00469783
0.00487298
0.0168985
0.0141221
8.60867e-05
0.00011681
0.0245736
0.00483278
0.737462
0.737854
0.00431954
0.00848164
0.00806402
0.00180156
7.41901e-05
7.42292e-05
0.0246733
0.0051051
0.746136
0.747051
0.00422718
0.00432323
5.96341e-05
2.08579e-05
7.42841e-05
7.42109e-05
0.0249044
0.00723984
0.754839
0.757666
0.00431963
0.0050433
0.000141033
0.000167636
7.54348e-05
7.43028e-05
0.0251848
0.0114723
0.760246
0.765896
0.00592406
0.00331828
0.000521189
0.00164213
9.77622e-05
0.0001257
0.0251963
0.0162978
0.769942
0.774008
0.0122072
7.60085e-05
0.00171146
0.00170999
0.00128474
0.000957309
0.0252042
0.0189438
0.776081
0.779627
0.0153768
6.45437e-05
0.00170999
0.00171335
0.00181811
0.00359351
0.0251783
0.0221233
0.783331
0.786389
0.0191289
9.68514e-06
0.00141411
0.00154818
0.00166713
0.00375936
0.0251133
0.0242854
0.788883
0.790988
0.0222858
9.65048e-06
0.000566157
9.7959e-06
0.00168471
0.00153716
0.0163959
0.0264697
0.794652
0.795703
0.0254443
9.63004e-06
9.65048e-06
9.73344e-06
0.000414208
0.000423227
0.00136203
0.0281919
0.799118
0.799245
0.028003
9.43245e-06
2.17578e-05
9.80799e-06
0.0011331
0.000818552
7.47623e-06
0.0313619
0.80452
0.804354
0.0314302
8.77309e-06
0.000151689
3.39723e-05
0.00145257
0.00144826
6.75475e-06
0.0351854
0.809787
0.809699
0.0352568
8.20329e-06
0.000156778
0.000202945
0.000644468
0.000344197
6.75475e-06
0.0394612
0.815415
0.815443
0.0394682
7.90176e-06
0.000159978
0.000202945
6.7595e-06
6.75475e-06
6.75438e-06
0.0434912
0.821071
0.821014
0.0435432
7.57897e-06
0.000146339
0.000202945
6.76628e-06
6.75912e-06
6.75475e-06
0.0485564
0.82799
0.827882
0.0486649
7.35248e-06
9.602e-05
0.000180278
1.33203e-05
1.0445e-05
6.75912e-06
0.0550214
0.835904
0.83588
0.0551017
7.29622e-06
2.38356e-05
0.000238912
1.39289e-05
3.56726e-05
6.78713e-06
0.0610175
0.842938
0.842894
0.0611566
6.90805e-06
0.000104438
0.0002439
1.51789e-05
3.58191e-05
6.90778e-06
0.068663
0.851285
0.851232
0.0688089
6.29802e-06
0.000241142
0.000244178
1.67645e-05
2.43176e-05
7.07016e-06
0.075484
0.858253
0.858229
0.0756683
5.88779e-06
0.000181077
0.000241307
1.39679e-05
7.46268e-06
7.2093e-06
0.084144
0.866544
0.866464
0.0843661
5.54996e-06
0.000101715
6.62012e-05
0.000225596
0.000100067
7.46268e-06
0.0920224
0.873514
0.873438
0.092177
5.00839e-06
0.000115344
6.18629e-05
0.0007949
0.000549799
8.80982e-06
0.101743
0.881775
0.881685
0.101899
4.51872e-06
9.67567e-05
0.000119585
0.000794929
0.000791509
1.37869e-05
0.111161
0.889107
0.888924
0.111409
4.42118e-06
3.084e-05
0.000121897
0.000794847
0.000768259
2.06955e-05
0.122891
0.897664
0.897532
0.123032
4.4212e-06
4.42119e-06
4.66316e-05
0.000793605
0.000490379
2.05627e-05
0.134389
0.905228
0.905265
0.134586
4.42119e-06
4.4212e-06
4.42293e-06
0.000410851
0.000270989
1.80976e-05
0.149078
0.914187
0.914215
0.14921
4.42121e-06
4.42141e-06
4.42518e-06
2.79198e-06
9.7108e-05
1.66147e-05
0.163781
0.922122
0.921859
0.16331
4.42141e-06
4.42282e-06
6.77736e-06
2.86533e-06
1.36276e-05
1.4777e-05
0.182172
0.931011
0.931036
0.181722
4.42282e-06
4.42715e-06
3.97188e-05
2.21423e-05
2.87341e-05
1.66147e-05
0.199612
0.938274
0.938951
0.200047
4.42659e-06
4.4293e-06
2.34915e-05
2.57011e-06
0.000154128
1.83276e-05
0.221897
0.946855
0.947405
0.222376
4.4293e-06
4.42915e-06
4.92785e-06
6.63998e-05
0.000169515
2.09293e-05
0.244872
0.954377
0.954384
0.244129
4.4293e-06
4.43085e-06
8.81314e-06
0.000402506
0.000163968
2.35692e-05
0.272787
0.962176
0.962072
0.271419
4.43085e-06
4.44641e-06
5.95798e-05
0.000405677
9.04896e-05
2.34493e-05
0.301262
0.968717
0.9688
0.300481
4.44641e-06
1.54879e-05
0.000155013
0.000173951
0.000166064
2.18365e-05
0.335474
0.975214
0.975402
0.335496
4.54254e-06
1.29352e-05
0.000169254
0.000363576
0.000525143
1.60868e-05
0.372425
0.980758
0.980925
0.373249
4.64491e-06
4.87893e-06
0.000107738
0.000764252
0.000648363
1.01553e-05
0.416036
0.985761
0.985953
0.418242
4.65434e-06
5.53834e-06
2.04232e-05
0.000596743
0.000278022
9.06623e-06
0.465517
0.989557
0.989926
0.46867
4.70763e-06
3.79879e-05
1.76028e-05
2.85185e-06
1.1113e-05
6.00427e-06
0.524717
0.992414
0.992857
0.52779
5.21272e-06
8.94443e-05
0.000137818
2.85098e-06
2.85235e-06
2.85235e-06
0.590757
0.994692
0.994874
0.592572
7.27182e-06
9.92074e-05
0.000171979
3.6281e-06
2.85097e-06
2.86248e-06
0.666014
0.996411
0.996479
0.666373
3.84816e-06
3.03416e-06
0.000171722
4.24458e-05
2.86248e-06
3.01996e-06
0.747423
0.997581
0.99772
0.746853
2.71502e-06
2.71502e-06
9.49587e-05
6.38884e-05
3.01997e-06
0.0244096
0.817198
0.998569
0.998718
0.817316
0.0211124
2.71364e-06
3.80988e-06
1.25567e-05
2.72093e-06
0.107833
0.884085
0.999232
0.999398
0.884519
0.101427
2.64837e-06
2.58146e-06
1.55429e-06
1.55429e-06
0.22333
0.945977
0.999846
0.999589
0.940586
0.204459
2.58146e-06
2.56871e-06
1.37012e-06
1.58154e-06
0.421461
0.98963
0.999905
0.999936
0.977346
0.376805
2.56871e-06
2.5571e-06
1.46794e-10
6.80559e-06
0.642785
0.999924
0.999985
0.999958
0.999943
0.660938
2.56104e-06
2.54938e-06
1.04581e-09
0.135112
0.896483
0.999985
0.999999
0.999997
0.999974
0.851087
0.0595236
6.04181e-07
2.44343e-11
0.633165
0.999899
0.999999
1
1
0.999996
0.998127
0.531332
3.26616e-07
0.374991
0.979875
1
1
1
1
1
1
0.961896
0.308158
0.87831
0.818891
0.904568
0.904568
0.886513
0.897009
0.974614
0.978934
0.978929
0.978916
0.978907
0.978914
0.978747
0.92777
0.795665
0.794388
0.796183
0.820568
0.974727
0.978861
0.978963
0.978925
0.973715
0.931572
0.936368
0.968394
0.968524
0.96865
0.968751
0.968754
0.968754
0.968754
0.918549
0.917429
0.940882
0.943118
0.943118
0.911756
0.81715
0.740298
0.708589
0.708587
0.71374
0.794915
0.885779
0.910258
0.978943
0.978938
0.978939
0.978937
0.97892
0.978937
0.967824
0.815003
0.798602
0.967749
0.960841
0.874437
0.882565
0.957953
0.979074
0.979027
0.912354
0.857529
0.856984
0.85677
0.952668
0.956788
0.952712
0.968751
0.968754
0.968696
0.968641
0.944554
0.885824
0.891039
0.705172
0.669391
0.66939
0.66939
0.70858
0.708615
0.70871
0.825791
0.967095
0.975947
0.978945
0.97894
0.978938
0.978954
0.97892
0.965382
0.781558
0.743434
0.818389
0.968258
0.968258
0.967497
0.973799
0.97908
0.979083
0.979074
0.979063
0.970807
0.893914
0.845986
0.833497
0.833497
0.833236
0.897107
0.941856
0.968641
0.968431
0.945445
0.734754
0.672938
0.669421
0.669391
0.66939
0.66939
0.755705
0.70871
0.926231
0.977116
0.97894
0.978948
0.978947
0.978945
0.97894
0.97892
0.978867
0.845185
0.743171
0.743128
0.743433
0.769066
0.744147
0.755149
0.910815
0.979082
0.97908
0.979067
0.979065
0.979062
0.979061
0.979072
0.9782
0.878539
0.832898
0.820299
0.820299
0.826883
0.936013
0.948271
0.949336
0.942362
0.861262
0.756375
0.669391
0.671018
0.969272
0.963703
0.978851
0.978938
0.978948
0.978951
0.97895
0.978947
0.978944
0.97893
0.978711
0.860799
0.743128
0.743108
0.743109
0.74312
0.743369
0.74357
0.83872
0.97908
0.979067
0.979063
0.979063
0.979063
0.979062
0.979059
0.979041
0.978537
0.978033
0.962255
0.821901
0.727437
0.726999
0.905511
0.961952
0.962262
0.962262
0.93839
0.669655
0.735059
0.978706
0.978697
0.978685
0.978851
0.968624
0.970561
0.978947
0.978945
0.978944
0.978942
0.978937
0.975047
0.857486
0.743109
0.743109
0.743109
0.74312
0.83736
0.912216
0.971613
0.979056
0.979063
0.979063
0.979063
0.979063
0.97906
0.946632
0.948401
0.96364
0.970466
0.970467
0.804892
0.726923
0.726916
0.765106
0.962262
0.962101
0.961293
0.85253
0.745684
0.978716
0.978722
0.978724
0.967409
0.965237
0.965195
0.972438
0.978944
0.978944
0.978944
0.978942
0.978935
0.978509
0.94623
0.906655
0.907204
0.949895
0.961834
0.941485
0.957309
0.962423
0.976868
0.979063
0.979063
0.979063
0.969617
0.923418
0.923412
0.923689
0.970467
0.969917
0.813179
0.726916
0.726916
0.726916
0.886503
0.91505
0.910032
0.906301
0.885828
0.978721
0.978734
0.97876
0.978766
0.965588
0.965211
0.96519
0.975387
0.978944
0.978944
0.978944
0.978938
0.978976
0.978983
0.97899
0.978994
0.979009
0.979019
0.977287
0.957325
0.957965
0.974013
0.979063
0.979063
0.978597
0.931955
0.923412
0.923418
0.952928
0.970449
0.923639
0.728276
0.726923
0.726916
0.729026
0.930913
0.870659
0.68345
0.681625
0.681625
0.879125
0.975992
0.978766
0.978802
0.978834
0.976652
0.975248
0.978944
0.978944
0.978944
0.978917
0.978615
0.978971
0.97899
0.979
0.979009
0.979019
0.979027
0.979031
0.963805
0.97906
0.979061
0.979063
0.979062
0.973381
0.92355
0.923418
0.945642
0.969886
0.970151
0.892046
0.809913
0.851607
0.857342
0.946816
0.975669
0.943638
0.687384
0.68163
0.68162
0.801288
0.80523
0.846528
0.940795
0.978839
0.978879
0.978921
0.978938
0.978944
0.978938
0.978911
0.978617
0.978917
0.978985
0.978991
0.979
0.979009
0.978512
0.979036
0.979045
0.979055
0.97906
0.979061
0.97906
0.977786
0.923609
0.924394
0.969616
0.969886
0.938802
0.897022
0.975668
0.975669
0.975669
0.975669
0.975669
0.973893
0.904827
0.723298
0.68163
0.922634
0.893652
0.779547
0.78971
0.942449
0.978719
0.978912
0.978922
0.978937
0.978927
0.97659
0.978898
0.978982
0.978983
0.978985
0.978991
0.978732
0.974687
0.978997
0.979036
0.979045
0.979061
0.97906
0.979059
0.97907
0.971575
0.965623
0.967569
0.932509
0.924949
0.940824
0.975665
0.975668
0.975669
0.975669
0.975669
0.975669
0.975669
0.975669
0.817256
0.885997
0.896971
0.896899
0.744044
0.603699
0.738635
0.861209
0.931629
0.976545
0.964797
0.975752
0.975657
0.953765
0.978982
0.978982
0.978978
0.963208
0.977172
0.978952
0.978994
0.971221
0.979063
0.979064
0.979062
0.979058
0.979054
0.976644
0.938163
0.932779
0.937224
0.973696
0.975575
0.975663
0.975664
0.975668
0.975666
0.975668
0.975669
0.975669
0.972234
0.315385
0.730186
0.801659
0.671354
0.484401
0.679538
0.8085
0.86102
0.817271
0.837997
0.952193
0.913008
0.724453
0.768727
0.976994
0.978603
0.954528
0.961945
0.89535
0.895752
0.912851
0.967036
0.979064
0.979069
0.979062
0.963245
0.929412
0.929527
0.950598
0.975499
0.975507
0.975511
0.971148
0.965257
0.975655
0.9571
0.975666
0.975668
0.975551
0.920156
0.174153
0.174153
0.174246
0.175676
0.487634
0.714093
0.780329
0.757057
0.768687
0.863846
0.950359
0.82559
0.701222
0.701021
0.710457
0.723212
0.849193
0.866827
0.623913
0.661267
0.913914
0.931318
0.97814
0.979061
0.974086
0.925209
0.925575
0.938972
0.975481
0.975494
0.975505
0.975442
0.946617
0.946617
0.94865
0.954331
0.963895
0.975666
0.975233
0.943919
0.174153
0.174246
0.175708
0.178616
0.182058
0.188294
0.224884
0.698882
0.865975
0.927475
0.939798
0.887216
0.85117
0.838187
0.710396
0.710396
0.815853
0.665318
0.623913
0.623913
0.872178
0.969251
0.977994
0.962478
0.913541
0.913835
0.935354
0.975474
0.975478
0.975446
0.975471
0.963821
0.94683
0.958996
0.975342
0.975358
0.975508
0.975662
0.973221
0.973144
0.389699
0.289991
0.230815
0.245942
0.41212
0.485548
0.451585
0.438967
0.438967
0.62867
0.511255
0.538483
0.863307
0.885326
0.885261
0.872869
0.871781
0.631297
0.623913
0.729907
0.960799
0.977717
0.977783
0.929475
0.913541
0.913541
0.974776
0.975475
0.975474
0.962379
0.928752
0.900307
0.975185
0.975249
0.975305
0.975342
0.967163
0.914295
0.918584
0.965612
0.918397
0.921275
0.872751
0.84956
0.93059
0.931259
0.932321
0.866465
0.574241
0.511255
0.511255
0.511255
0.766742
0.885344
0.754224
0.652251
0.652244
0.664504
0.779117
0.972929
0.97543
0.976996
0.977717
0.97664
0.916842
0.916815
0.97032
0.975458
0.975474
0.965066
0.835767
0.890212
0.974955
0.975185
0.975249
0.975208
0.869769
0.768702
0.768112
0.818025
0.877016
0.923239
0.925803
0.929295
0.930716
0.932321
0.933004
0.93298
0.93298
0.820948
0.566825
0.512848
0.620185
0.746666
0.808368
0.819957
0.803312
0.960703
0.962217
0.964483
0.947115
0.910199
0.972506
0.976249
0.941426
0.885424
0.884841
0.961064
0.975458
0.975192
0.878539
0.76187
0.95341
0.975114
0.975152
0.973128
0.823416
0.768112
0.873063
0.878483
0.901359
0.845058
0.844944
0.860114
0.878819
0.866502
0.896001
0.93298
0.931166
0.933286
0.94203
0.953978
0.965361
0.96538
0.965361
0.965384
0.965074
0.955086
0.957276
0.858807
0.788718
0.840463
0.972953
0.975779
0.939293
0.884841
0.884841
0.88491
0.973447
0.975191
0.975067
0.653028
0.888514
0.974917
0.970427
0.97358
0.925988
0.772023
0.974244
0.974224
0.976292
0.945076
0.860955
0.815722
0.814615
0.814615
0.814615
0.867389
0.832735
0.798483
0.838694
0.900615
0.958845
0.965361
0.965383
0.94872
0.840203
0.743787
0.763386
0.718678
0.729995
0.897345
0.975779
0.975779
0.972791
0.918453
0.884841
0.941443
0.960666
0.975067
0.89926
0.574384
0.898656
0.966668
0.614595
0.685495
0.62232
0.775354
0.973553
0.974246
0.976292
0.976292
0.976289
0.97067
0.904021
0.862199
0.894931
0.862208
0.858266
0.812904
0.699754
0.668948
0.666351
0.852817
0.96519
0.953082
0.731245
0.718715
0.718675
0.718678
0.755428
0.856231
0.975685
0.975779
0.975745
0.975724
0.912582
0.73517
0.63008
0.725122
0.705427
0.572817
0.673391
0.679504
0.588463
0.587662
0.613299
0.947723
0.974948
0.970962
0.976292
0.976289
0.976082
0.975426
0.974539
0.971802
0.957161
0.832573
0.815896
0.809227
0.80322
0.80091
0.617339
0.564241
0.596149
0.867314
0.90341
0.733648
0.718715
0.718673
0.718673
0.718678
0.894371
0.975745
0.975736
0.975555
0.733414
0.572703
0.572686
0.572669
0.572701
0.572713
0.572817
0.574617
0.594576
0.872321
0.965351
0.974991
0.974956
0.959633
0.976036
0.974973
0.963015
0.969579
0.930898
0.771267
0.80014
0.445085
0.285176
0.384203
0.45505
0.491565
0.58621
0.574388
0.359501
0.585852
0.921411
0.957336
0.782701
0.718748
0.718678
0.718674
0.727912
0.945325
0.975667
0.975564
0.890188
0.575406
0.572677
0.572685
0.572685
0.572701
0.572722
0.774637
0.914575
0.974991
0.974992
0.974991
0.974991
0.959864
0.912832
0.870088
0.70279
0.708215
0.663051
0.598344
0.62277
0.418966
0.22179
0.201122
0.199091
0.199901
0.271658
0.203815
0.241971
0.504796
0.942267
0.959495
0.959305
0.90229
0.724678
0.718972
0.720958
0.803582
0.975248
0.97553
0.97553
0.892427
0.658865
0.747707
0.771018
0.713783
0.878932
0.974986
0.974989
0.974992
0.974991
0.974991
0.97497
0.974828
0.47271
0.739083
0.628348
0.601822
0.598344
0.598118
0.601578
0.85412
0.702196
0.419714
0.209652
0.195028
0.193406
0.193406
0.195925
0.502316
0.92245
0.960958
0.960204
0.959175
0.964296
0.964284
0.763086
0.782974
0.958186
0.97553
0.975276
0.919013
0.863844
0.975487
0.9755
0.973857
0.975064
0.974986
0.974352
0.974986
0.974959
0.97497
0.967589
0.955652
0.101566
0.401922
0.633137
0.828542
0.761514
0.598344
0.696145
0.856099
0.856099
0.858053
0.685871
0.322944
0.197881
0.193406
0.19893
0.380224
0.89186
0.964146
0.964287
0.964296
0.964296
0.964296
0.888366
0.783556
0.784227
0.848895
0.974371
0.974272
0.961062
0.9755
0.975511
0.975511
0.975494
0.910715
0.868965
0.910048
0.903178
0.955231
0.937802
0.937752
0.0626684
0.0694092
0.530965
0.843374
0.895824
0.694506
0.684083
0.76057
0.84103
0.860982
0.878047
0.892061
0.672706
0.360023
0.208187
0.204626
0.360599
0.871002
0.964146
0.964287
0.963463
0.941102
0.948831
0.968696
0.858083
0.848666
0.848666
0.922019
0.975203
0.975511
0.975511
0.975511
0.964854
0.886049
0.751787
0.628325
0.500275
0.755951
0.94974
0.951051
0.062713
0.0628186
0.193316
0.716318
0.931304
0.915797
0.763181
0.66408
0.662366
0.66111
0.809322
0.923943
0.929403
0.928292
0.579374
0.20433
0.204029
0.337962
0.88402
0.963995
0.963722
0.945909
0.947456
0.974568
0.975503
0.974559
0.881144
0.881223
0.88141
0.885545
0.970934
0.975503
0.975485
0.975476
0.95297
0.517443
0.475117
0.551576
0.956095
0.972276
0.0640774
0.16088
0.688191
0.968082
0.963308
0.939973
0.694977
0.662366
0.66111
0.660926
0.66097
0.665305
0.910977
0.944966
0.940442
0.555078
0.204029
0.213501
0.663393
0.962462
0.963558
0.872965
0.901293
0.975332
0.975565
0.975588
0.975618
0.975294
0.92102
0.887415
0.889561
0.891307
0.933908
0.975471
0.949714
0.513404
0.474708
0.543584
0.949392
0.972298
0.860732
0.985165
0.984816
0.984734
0.984734
0.98486
0.834758
0.665412
0.66183
0.661048
0.660926
0.661048
0.780818
0.954812
0.945101
0.84748
0.340549
0.251379
0.685812
0.949499
0.831688
0.45767
0.665811
0.963476
0.975584
0.975618
0.975623
0.975623
0.975623
0.975366
0.902026
0.891693
0.892263
0.973348
0.972392
0.634792
0.472088
0.693049
0.971157
0.972198
0.985435
0.985306
0.985069
0.984812
0.98486
0.984959
0.984864
0.854712
0.665412
0.66183
0.661048
0.661172
0.884777
0.967191
0.935662
0.771441
0.774367
0.820607
0.7614
0.536873
0.449675
0.449504
0.450947
0.787322
0.975021
0.975584
0.971036
0.916143
0.954925
0.974651
0.971477
0.943873
0.967537
0.972392
0.972181
0.611338
0.469876
0.735746
0.971746
0.942096
0.985339
0.985264
0.984812
0.984644
0.984703
0.984847
0.984953
0.94899
0.900567
0.811831
0.817474
0.931368
0.969762
0.969382
0.819795
0.773185
0.818957
0.819857
0.498375
0.449675
0.449504
0.449675
0.560441
0.951121
0.973997
0.907925
0.846466
0.846466
0.880868
0.973572
0.972246
0.972172
0.972238
0.972176
0.711862
0.467317
0.470137
0.839443
0.973535
0.89235
0.983407
0.953869
0.893752
0.859391
0.877286
0.922035
0.958379
0.96726
0.969057
0.969594
0.969739
0.969762
0.96976
0.96976
0.799855
0.799677
0.817264
0.623275
0.476788
0.467927
0.461628
0.618253
0.951711
0.973543
0.973543
0.962734
0.939858
0.93775
0.921282
0.792087
0.854712
0.855531
0.762148
0.587231
0.467248
0.467022
0.508849
0.93433
0.974178
0.892324
0.696546
0.389253
0.196577
0.133561
0.151762
0.222611
0.433798
0.74098
0.90198
0.927508
0.944896
0.969295
0.969762
0.937706
0.654977
0.780973
0.81256
0.627158
0.615578
0.691505
0.649498
0.750857
0.973543
0.973543
0.973543
0.973543
0.966293
0.838226
0.70626
0.574628
0.484191
0.476532
0.469803
0.467248
0.467022
0.467125
0.807427
0.974329
0.974342
0.894
0.0528833
0.0474976
0.0465131
0.0463958
0.0463791
0.0464095
0.0464797
0.0481073
0.0816761
0.165593
0.390016
0.80416
0.772588
0.629231
0.628284
0.6539
0.682888
0.753675
0.765786
0.774789
0.905148
0.953802
0.97354
0.973543
0.973539
0.971668
0.874492
0.841737
0.93593
0.883198
0.788538
0.666169
0.57449
0.494457
0.498369
0.701717
0.972762
0.974377
0.974336
0.880527
0.047476
0.0464952
0.0463958
0.0463791
0.0463791
0.0463791
0.0464095
0.0464797
0.0465061
0.0465242
0.047168
0.30422
0.496504
0.728717
0.752145
0.852447
0.77975
0.691741
0.686077
0.758096
0.97291
0.97343
0.973535
0.969595
0.957461
0.957391
0.964038
0.963771
0.950143
0.946295
0.944589
0.937526
0.914173
0.902566
0.905977
0.968393
0.974377
0.974378
0.97112
0.872355
0.0468104
0.0466199
0.0465131
0.0463958
0.0463791
0.0464095
0.0464908
0.0465061
0.0463916
0.0870814
0.531617
0.720166
0.689523
0.665253
0.940676
0.975562
0.875337
0.687623
0.684772
0.666056
0.653177
0.676392
0.879353
0.96939
0.968536
0.967688
0.967127
0.845431
0.553232
0.457257
0.647371
0.852707
0.949385
0.972793
0.974139
0.974372
0.974378
0.974378
0.974378
0.901968
0.0473008
0.0468416
0.0466224
0.0465392
0.0465172
0.0467327
0.0465405
0.0910584
0.598297
0.87681
0.928526
0.881759
0.530387
0.503621
0.950632
0.976707
0.973162
0.86304
0.812953
0.642358
0.540083
0.539817
0.548902
0.813868
0.967859
0.967374
0.937451
0.522455
0.41485
0.414242
0.41429
0.424091
0.655758
0.906818
0.952206
0.895558
0.77638
0.853441
0.824502
0.91628
0.0481688
0.0472801
0.0594754
0.113772
0.188405
0.481629
0.788853
0.908705
0.94484
0.946873
0.939695
0.629464
0.428312
0.453982
0.913382
0.977278
0.978088
0.978083
0.967847
0.718961
0.539817
0.539589
0.539597
0.540582
0.805517
0.96596
0.890247
0.668392
0.414303
0.414307
0.414255
0.41429
0.414471
0.445492
0.466802
0.442046
0.446132
0.451172
0.480868
0.889619
0.0487961
0.155237
0.535803
0.877742
0.939694
0.884654
0.852708
0.944172
0.946276
0.947617
0.91818
0.493255
0.427609
0.427938
0.559364
0.909792
0.978083
0.978315
0.978537
0.937935
0.610578
0.539597
0.539594
0.539597
0.646257
0.967406
0.767476
0.664493
0.784934
0.909222
0.889852
0.467953
0.414771
0.414605
0.414773
0.415354
0.48193
0.768443
0.917662
0.973471
0.291643
0.860035
0.943509
0.943522
0.943509
0.92913
0.696106
0.675151
0.687701
0.947584
0.942676
0.551858
0.42779
0.427609
0.427938
0.468672
0.786825
0.978537
0.978602
0.97869
0.938278
0.724571
0.724799
0.740948
0.869427
0.977684
0.970567
0.953601
0.693953
0.637601
0.637601
0.719825
0.713634
0.634423
0.775873
0.854156
0.972328
0.944512
0.957765
0.976119
0.925673
0.94338
0.94353
0.943509
0.943236
0.942986
0.928849
0.67884
0.679664
0.779821
0.960174
0.829814
0.560073
0.427938
0.430961
0.431527
0.579697
0.967616
0.978692
0.97873
0.978737
0.977218
0.972572
0.977323
0.978332
0.97833
0.978332
0.978313
0.949032
0.925252
0.931862
0.97759
0.825219
0.655993
0.657782
0.735585
0.963534
0.976097
0.976119
0.976119
0.94089
0.943273
0.939975
0.933976
0.94062
0.942752
0.940304
0.858642
0.681024
0.792657
0.961199
0.962901
0.928018
0.813337
0.637385
0.630743
0.762159
0.960778
0.97873
0.97875
0.978754
0.978735
0.931749
0.844994
0.94271
0.97833
0.962706
0.956749
0.973507
0.977644
0.977789
0.977825
0.977844
0.885141
0.65876
0.657797
0.657507
0.859639
0.976097
0.976119
0.640357
0.768449
0.450197
0.345483
0.446905
0.676628
0.93718
0.935943
0.928313
0.823759
0.925786
0.962856
0.962926
0.965323
0.97245
0.973771
0.97537
0.978301
0.978751
0.978754
0.978754
0.978754
0.758102
0.595673
0.620221
0.6326
0.631931
0.631906
0.90445
0.977527
0.977825
0.977844
0.977844
0.977845
0.832496
0.657507
0.657507
0.794976
0.976025
0.976092
0.00904828
0.0613067
4.96802e-05
5.15616e-05
0.00057561
0.0442891
0.270511
0.634101
0.821106
0.833788
0.834626
0.926438
0.911959
0.960523
0.977947
0.978453
0.978711
0.978751
0.978754
0.978754
0.978754
0.944375
0.649179
0.571393
0.565603
0.781538
0.815033
0.817527
0.825138
0.807771
0.822107
0.930285
0.977844
0.977482
0.881028
0.657524
0.657507
0.87196
0.975979
0.976019
4.93731e-05
4.93731e-05
4.93437e-05
4.96802e-05
6.11516e-05
0.000158157
0.0068635
0.138108
0.33496
0.471377
0.557743
0.634437
0.702267
0.783281
0.876824
0.910228
0.91986
0.907007
0.895679
0.869484
0.813415
0.698019
0.631039
0.627299
0.556873
0.376177
0.227188
0.123818
0.0406982
0.0515759
0.128043
0.304009
0.539755
0.827296
0.825381
0.705894
0.839542
0.973583
0.975853
0.908729
4.94612e-05
4.93437e-05
4.94608e-05
5.07116e-05
0.00038323
0.000908322
0.000760403
9.64592e-05
0.00104677
0.0128139
0.0386445
0.0726693
0.125195
0.16025
0.189732
0.185653
0.172552
0.152316
0.120656
0.0592241
0.0384909
0.0554961
0.0523283
0.00639918
0.000143194
0.000113194
0.000114533
0.00011673
0.000551632
0.00322041
0.00779718
0.25288
0.751036
0.93223
0.952425
0.954808
0.97592
0.976093
0.972941
0.844984
0.000134429
4.95079e-05
5.01226e-05
9.48695e-05
7.15651e-05
4.45596e-05
0.000117873
9.41213e-05
8.18523e-05
0.000106036
5.91539e-05
2.30024e-05
2.29379e-05
2.28941e-05
6.90788e-05
0.000350687
7.16991e-05
1.69734e-05
1.52509e-05
1.72083e-05
3.21988e-05
1.46655e-05
1.45746e-05
1.4557e-05
0.000175723
0.000113225
0.000113072
0.000114533
0.000145061
0.000694182
0.0383685
0.616971
0.976002
0.976111
0.976114
0.976111
0.976126
0.976123
0.970735
0.844939
0.000851154
0.000338555
4.15735e-05
1.9428e-05
1.86765e-05
1.86756e-05
1.86753e-05
1.86756e-05
1.86756e-05
1.87177e-05
1.87385e-05
1.89441e-05
2.15978e-05
2.22625e-05
3.45699e-05
4.86817e-05
4.13211e-05
1.6141e-05
1.47338e-05
1.44995e-05
2.88726e-05
3.37956e-05
2.66832e-05
1.4356e-05
0.000294067
0.000605883
0.000114511
0.000115758
0.000194991
0.000682809
0.154685
0.871673
0.976111
0.97613
0.97613
0.97613
0.976131
0.97613
0.974771
0.844963
0.00203146
0.000785578
0.00019393
1.90968e-05
1.87002e-05
1.86765e-05
1.86756e-05
1.86751e-05
1.86801e-05
1.86857e-05
1.87239e-05
2.458e-05
4.5175e-05
7.66239e-05
7.51324e-05
7.21384e-05
7.05001e-05
4.88841e-05
1.42017e-05
1.41935e-05
1.41898e-05
3.35323e-05
1.50842e-05
1.42066e-05
0.0002209
0.000616949
0.000588014
0.000137899
0.000412706
0.00169712
0.0999012
0.727558
0.969276
0.97613
0.97613
0.976131
0.97613
0.97613
0.97613
0.966636
0.00130208
0.000357837
0.000382982
6.35202e-05
1.9043e-05
2.36661e-05
2.3975e-05
1.86801e-05
1.86857e-05
1.94285e-05
2.89347e-05
0.000200861
0.000200845
0.000199397
7.3179e-05
1.4227e-05
1.41878e-05
1.41879e-05
1.41882e-05
1.41889e-05
1.41814e-05
1.50888e-05
1.41951e-05
1.41915e-05
1.41999e-05
0.000624957
0.000655607
0.000394792
0.000358939
0.00151767
0.0223842
0.174586
0.400686
0.628057
0.823504
0.881032
0.899391
0.900089
0.912335
0.898433
2.08569e-05
2.0522e-05
2.04902e-05
2.05929e-05
5.87159e-05
0.00011067
6.25635e-05
1.88732e-05
1.88438e-05
0.000185357
0.000254174
0.000249198
0.000151158
1.53895e-05
1.41898e-05
1.41851e-05
1.41857e-05
1.41877e-05
1.41883e-05
1.41892e-05
1.41901e-05
1.41886e-05
1.41897e-05
1.41898e-05
1.41913e-05
0.000399992
0.000656154
0.000647118
0.000358939
0.000464744
0.0018403
0.00117822
0.00491653
0.0620236
0.138995
0.165275
0.160649
0.154615
0.157154
0.160961
2.0522e-05
2.0486e-05
2.0522e-05
7.97382e-05
0.000110927
0.000110927
4.31009e-05
2.18171e-05
0.000238776
0.000260084
0.000258243