/*--------------------------------*- C++ -*----------------------------------*\
  =========                 |
  \\      /  F ield         | OpenFOAM: The Open Source CFD Toolbox
   \\    /   O peration     | Website:  https://openfoam.org
    \\  /    A nd           | Version:  8
     \\/     M anipulation  |
\*---------------------------------------------------------------------------*/
FoamFile
{
    version     2.0;
    format      ascii;
    class       volScalarField;
    location    "3.75";
    object      p_rgh;
}
// * * * * * * * * * * * * * * * * * * * * * * * * * * * * * * * * * * * * * //

dimensions      [1 -1 -2 0 0 0 0];

internalField   nonuniform List<scalar> 
9150
(
1963.19
1962.18
1961.57
1961.11
1960.88
1960.86
1961.1
1961.59
1962.19
1963.2
1962.76
1962.24
1961.82
1961.5
1961.33
1961.35
1961.53
1961.84
1962.25
1962.77
1962.49
1962.2
1961.95
1961.74
1961.62
1961.62
1961.73
1961.96
1962.21
1962.5
1962.37
1962.19
1962.02
1961.86
1961.78
1961.79
1961.87
1962.03
1962.2
1962.37
1962.37
1962.19
1962.05
1961.92
1961.86
1961.86
1961.92
1962.05
1962.19
1962.37
1951.53
1950.62
1950.79
1951.25
1951.42
1951.43
1951.28
1950.85
1950.64
1951.56
1955.44
1954.74
1954.54
1954.48
1954.59
1954.6
1954.51
1954.57
1954.78
1955.49
1958.54
1957.79
1957.49
1957.14
1957.09
1957.1
1957.16
1957.52
1957.83
1958.57
1961.28
1960.15
1959.73
1959.08
1958.92
1958.92
1959.08
1959.73
1960.16
1961.29
1963.95
1961.84
1961.11
1960.38
1960.14
1960.11
1960.38
1961.12
1961.85
1963.96
1945.49
1944.75
1942.98
1942.06
1941.57
1941.65
1942.27
1943.41
1945.48
1947.15
1945.41
1945.34
1944.49
1944.2
1943.84
1943.95
1944.4
1944.81
1945.85
1946.09
1945.33
1945.48
1944.5
1945.02
1944.48
1944.59
1945.07
1944.73
1945.78
1945.71
1942.27
1945.04
1943.92
1945.66
1945.35
1945.44
1945.65
1944.11
1945.17
1942.43
1935.68
1945.68
1945.97
1947.62
1947.92
1947.93
1947.58
1946.02
1945.73
1935.75
642.141
646.242
651.069
656.16
659.857
661.763
662.751
663.096
662.784
664.492
633.296
637.735
643.129
648.828
653.278
654.286
656.352
655.929
656.206
656.322
611.277
618.783
625.564
637.499
650.178
656.743
661.241
661.262
657.28
656.229
606.32
607.284
608.701
633.579
652.019
661.809
668.027
672.331
675.291
675.996
604.106
605.399
617.851
653.305
658.016
664.784
671.349
681.178
683.45
685.006
634.998
658.081
670.263
672.695
676.368
677.448
675.362
683.098
688.695
690.347
673.732
674.893
675.001
675.221
676.252
677.488
670.479
675.073
689.352
692.596
670.117
671.885
673.356
674.419
675.601
666.242
661.242
665.336
679.313
696.153
667.733
671.996
675.417
677.568
680.354
667.411
661.607
665.991
669.025
671.432
656.85
666.451
675.402
679.936
683.958
690.926
698.156
701.844
683.408
674.873
522.7
528
600.11
627.974
645.151
670.219
684.661
691.312
693.962
696.455
516.546
513.853
515.165
516.403
516.535
517.322
554.651
593.418
630.212
668.201
665.414
585.73
517.005
514.693
514.265
516.583
518.45
519.204
519.991
520.985
653.362
666.429
678.456
662.066
547.419
522.38
521.131
517.334
519.722
522.15
639.175
652.512
665.373
652.86
644.946
700.045
699.288
560.979
524.808
522.348
626.7
639.674
656.803
633.431
644.156
687.723
700.434
712.947
729.119
683.666
546.32
623.891
651.588
671.887
673.255
663.839
677.453
688.568
723.669
734.38
344.468
379.928
571.395
660.063
682.896
698.701
679.887
683.673
697.294
707.143
344.426
344.535
344.172
441.425
668.368
693.48
707.948
722.033
721.064
724.808
345.172
345.772
345.998
345.898
481.209
700.153
708.691
719.589
731.192
742.927
422.916
421.86
351.347
346.091
407.118
668.423
712.621
719.567
728.85
739.057
417.794
415.944
367.407
334.523
332.818
532.806
705.836
711.821
720.981
732.054
336.844
341.035
331.342
326.805
324.948
321.108
433.903
531.418
561.553
686.133
331.959
327.848
326.563
325.828
324.941
324.045
323.458
325.075
341.457
443.241
527.534
326.892
325.302
325.252
325.188
325.18
324.997
324.968
324.905
324.286
742.183
402.427
325.546
325.444
325.55
328.278
326.192
324.899
324.226
323.421
802.027
531.116
326.748
326.494
326.994
329.333
329.243
327.014
325.587
324.658
814.891
646.477
340.08
327.428
327.742
327.965
328.475
328.731
328.518
327.767
823.057
826.881
640.524
342.143
329.275
329.497
330.22
330.733
330.69
329.995
827.051
835.848
840.963
847.145
790.105
606.298
496.779
475.116
472.554
533.054
834.558
839.368
845.105
851.907
851.331
861.876
867.636
874.712
879.943
881.819
835.428
839.212
844.115
845.488
850.817
860.99
879.562
890.799
901.138
903.015
831.053
833.947
833.453
832.145
834.573
845.03
848.51
860.332
863.44
849.579
675.329
770.291
824.474
822.829
817.919
807.666
791.997
796
787.175
748.569
539.508
539.324
663.772
811.393
801.037
781.521
757.081
746.742
734.869
412.351
536.815
570.759
780.683
813.499
804.751
780.296
762.414
742.248
623.701
113.092
693.287
810.055
829.66
836.392
831.167
818.608
797.311
758.061
337.526
74.4393
851.085
838.859
851.298
863.166
855.361
871.451
828.137
687.773
160.694
76.7131
861.248
870.321
874.507
857.047
867.215
891.23
821.208
293.69
80.8899
77.5879
873.358
873.691
880.514
807.822
894.931
876.84
603.994
105.566
77.5821
78.0306
878.137
873.99
842.756
798.694
863.05
792.593
350.653
81.5693
79.4984
78.9471
880.831
878.949
849.163
861.103
805.582
712.824
277.43
87.826
82.9856
287.666
887.092
885.939
885.156
884.318
808.093
681.322
229.175
91.6577
204.854
814.013
890.617
890.398
884.231
887.619
754.408
609.498
142.34
268.937
694.508
724.472
817.593
858.663
880.507
897.171
669.481
565.914
97.1542
270.138
583.937
123.204
847.695
869.866
887.733
878.63
613.175
602.532
102.483
97.262
146.09
0.254566
540.385
419.014
538.151
406.97
470.878
645.645
75.1632
73.1687
135.159
0.472758
0.368588
7.59432
55.5266
66.7276
691.776
684.898
56.8836
96.2093
139.34
0.45046
1.52173
4.65492
4.46783
6.15576
707.307
708.193
14.2715
72.9914
71.713
21.7097
1.22402
3.02303
3.86306
4.08142
720.031
727.052
9.02105
40.6366
73.1177
22.4933
0.144873
0.411995
23.2442
4.79002
751.989
750.075
7.67742
7.32635
18.0934
14.6942
0.168612
0.194123
25.1482
4.99935
770.419
771.521
5.9192
9.71364
8.71799
2.13692
0.18807
0.191106
25.5272
5.40866
793.781
795.187
4.93394
4.81101
0.436711
0.347998
0.218598
0.220443
26.2668
7.75688
818.019
821.033
4.83156
5.54819
0.458511
0.475944
0.239269
0.236124
27.0652
12.4076
838.275
845.102
6.55491
3.77224
0.848789
2.00823
0.255371
0.283615
27.5397
17.8715
864.14
868.915
13.5536
0.385146
2.1118
2.12277
1.55856
1.20205
28.0302
21.125
886.15
890.475
17.3833
0.434013
2.13842
2.15505
2.18531
4.19969
28.5862
25.1667
909.587
913.577
21.84
0.339837
1.80976
1.98545
2.05654
4.48532
29.0847
28.1374
931.406
934.318
25.7582
0.228324
0.83473
0.203808
2.10672
1.94506
19.2957
31.039
953.758
955.18
29.8581
0.196411
0.200228
0.201252
0.623975
0.637887
1.75818
33.417
974.783
974.786
33.3893
0.195319
0.209771
0.195247
1.49011
1.08747
0.159068
37.8646
997.104
996.549
38.0678
0.195135
0.361999
0.217308
1.87962
1.81767
0.152532
43.226
1019.24
1019.14
43.3696
0.191782
0.364923
0.420157
0.879234
0.517563
0.120096
49.2265
1042.09
1042.29
49.2887
0.179709
0.356872
0.4103
0.081197
0.0908059
0.0872132
55.0605
1065.33
1065.31
55.203
0.167931
0.331356
0.40411
0.076216
0.0792052
0.0788545
62.4054
1090.31
1090.23
62.6239
0.157154
0.262891
0.368425
0.0800451
0.0784397
0.0746263
71.7804
1116.88
1117.06
71.9541
0.144847
0.167353
0.443359
0.0823534
0.10968
0.0736714
80.7901
1142.52
1142.76
81.0263
0.128434
0.252
0.438023
0.0845063
0.112029
0.0753024
92.2555
1170.33
1170.52
92.4848
0.113085
0.411572
0.421253
0.0850191
0.0972398
0.0744995
102.89
1196.38
1196.79
103.161
0.0945408
0.32325
0.405451
0.0762258
0.0722038
0.070356
116.333
1224.71
1224.95
116.643
0.0756547
0.202531
0.153096
0.361265
0.196729
0.0713997
129.022
1251.48
1251.56
129.238
0.0688396
0.213935
0.146293
1.17614
0.827465
0.0915337
144.656
1280.34
1280.36
144.867
0.0759994
0.199417
0.231469
1.18901
1.18116
0.114432
160.235
1308.12
1307.95
160.561
0.0739492
0.112775
0.242089
1.20665
1.16426
0.125591
179.537
1338.01
1337.81
179.706
0.0627536
0.0639308
0.124116
1.2385
0.787745
0.124377
198.961
1366.41
1366.89
199.205
0.053316
0.0536162
0.0539029
0.668998
0.466684
0.105428
223.601
1397.52
1397.8
223.768
0.0527801
0.0517938
0.0514239
0.0490169
0.195183
0.076114
248.829
1428.04
1426.21
248.115
0.0543665
0.0518277
0.0531188
0.0465871
0.0630117
0.0625133
280.325
1459.12
1458.5
279.639
0.0490582
0.0466307
0.0969721
0.0707735
0.0817257
0.0630985
311.073
1486.93
1490.07
311.733
0.0340575
0.0342738
0.0616337
0.0391048
0.278769
0.0671255
350.146
1518.56
1521.21
350.87
0.0200675
0.0215873
0.0215258
0.142403
0.309792
0.0744942
391.191
1550.12
1548.85
389.973
0.0125676
0.013063
0.0187913
0.701108
0.315771
0.095994
441.144
1581.35
1578.69
438.882
0.00929345
0.00837083
0.09353
0.701603
0.210374
0.100105
493.093
1609.56
1608.47
491.759
0.0075571
0.0249753
0.247895
0.328216
0.321919
0.0878378
555.649
1637.54
1638.24
555.626
0.00104504
0.0166222
0.267639
0.648776
0.915278
0.08786
624.149
1664.04
1666.3
625.443
-0.0129831
-0.00891857
0.157295
1.34362
1.14595
0.116321
705.423
1688.99
1694.01
709.012
-0.027522
-0.0200688
0.00559522
1.06314
0.534196
0.0972621
798.413
1711.91
1719.83
803.672
-0.0366621
0.0274206
-0.00213029
0.0342348
0.0633036
0.05391
910.191
1734.11
1742.51
915.41
-0.0342735
0.115871
0.202735
0.0316766
0.0390018
0.0368196
1036.31
1756.65
1762.21
1039.41
-0.0225053
0.138847
0.267272
0.0307037
0.0300608
0.0270258
1181.34
1778.56
1780.1
1181.93
-0.0152895
-0.01442
0.275796
0.0977904
0.0255623
0.0366181
1340.22
1798.73
1797.84
1339.18
-0.0161462
-0.0195334
0.142472
0.132617
0.0268905
44.2712
1481.33
1816.65
1817.67
1481.4
38.2311
-0.0295567
-0.0290578
0.036568
0.0202264
197.559
1620.22
1835.32
1836.55
1620.68
185.776
-0.0335269
-0.0341463
0.012013
0.0115973
413.54
1752.18
1855.2
1854.41
1742.41
378.485
-0.0312404
-0.0291111
0.00869368
0.00852001
788.368
1853.06
1873.92
1873.46
1829.92
704.986
-0.0235607
-0.0199478
0.00785879
0.0273487
1213.96
1891.03
1892.63
1892.93
1892.28
1248.99
-0.00546377
-0.014269
0.000729456
257.542
1711.04
1910.79
1911.62
1911.39
1909.97
1623.45
113.355
-0.0217241
0.0250105
1220.16
1926.87
1926.91
1926.83
1926.69
1926.58
1923.09
1023.78
-0.0269577
730.397
1902.91
1938.99
1937.08
1936.28
1936.35
1937.36
1939.46
1868.51
600.232
667.603
671.059
680.727
692.076
701.813
709.966
716.133
719.005
721.855
723.92
725.426
726.541
727.734
727.359
726.287
724.464
722.513
722.226
726.095
733.243
741.306
748.533
754.277
759.017
763.204
769.081
773.412
776.251
777.718
778.126
777.426
775.884
775.88
775.443
774.364
773.894
773.682
771.704
767.172
766.259
656.774
660.793
669.268
680.05
693.396
704.938
713.526
718.202
720.807
722.228
722.922
722.924
721.747
717.684
715.956
720.803
719.234
714.777
719.582
726.358
736.459
744.765
750.915
756.552
760.793
763.639
768.198
770.274
771.714
773.726
774.784
774.874
774.717
773.63
771.598
770.002
765.769
764.151
762.744
763.152
657.68
660.597
665.879
676.496
690.902
700.853
708.208
713.386
716.788
718.419
719.316
718.614
709.2
707.133
703
709.967
707.171
706.54
710.486
718.968
729.701
740.105
749.27
756.21
757.986
760.91
764.16
766.64
768.332
770.046
772.712
775.195
776.418
775.544
767.625
767.358
765.952
764.49
763.119
763.742
666.234
668.253
678.937
688.52
695.065
700.976
705.97
710.261
713.396
715.056
716.267
708.158
701.053
697.01
690.922
688.42
685.869
687.824
699.956
714.259
726.061
736.615
745.795
753.626
759.836
764.628
768.191
764.035
763.684
764.991
765.77
764.027
771.38
774.65
776.743
777
770.966
762.83
757.256
759.2
685.937
688.051
692.392
696.193
700.177
704.043
707.805
711.135
713.63
715.047
716.372
707.874
698.147
695.256
691.285
687.866
686.946
688.864
699.189
718.448
728.286
737.349
745.352
752.232
758.008
762.848
766.74
769.92
772.377
771.556
759.322
756.365
755.027
769.472
777.179
778.788
780.245
778.234
756.494
760.703
692.512
695.207
698.42
701.752
704.417
707.606
711.267
713.795
715.808
717.445
719.032
719.961
708.503
697.105
695.363
693.327
692.523
702.798
714.28
726.32
734.308
741.225
747.623
753.318
758.206
762.207
762.494
765.229
769.646
773.344
774.997
757.197
750.552
752.379
755.385
778.044
781.852
783.54
771.162
761.631
695.822
699.01
702.448
704.643
708.096
711.225
714.655
717.9
720.096
721.833
723.348
724.847
725.965
722.596
718.175
718.229
724.234
727.625
728.499
734.472
739.716
746.324
751.546
756.248
760.418
762.818
760.496
763.188
765.351
775.444
777.269
758.036
749.7
750.618
749.637
770.293
778.299
779.09
779.259
776.487
699.339
702.847
706.449
710.089
711.696
715.058
718.148
722.184
725.377
727.806
729.937
731.877
733.667
735.265
736.659
737.746
739.184
741.032
743.064
743.679
746.813
752.108
756.678
760.333
763.691
760.059
761.97
764.437
771.287
777.578
771.463
747.79
749.474
749.804
749.359
783.369
772.017
748.322
747.129
746.924
686.596
706.591
709.969
713.399
717.276
720.004
723.235
726.991
730.07
733.037
735.864
738.434
740.586
742.473
744.319
746.2
748.114
750.104
752.024
752.091
756.136
758.905
762.185
765.091
767.029
761.968
764.436
769.056
776.884
778.578
767.625
758.512
764.87
767.692
783.364
791.969
784.849
746.629
745.045
745.706
677.663
679.02
688.732
709.565
719.98
723.667
727.326
730.873
734.285
737.535
740.94
743.779
746.111
748.392
750.746
753.283
755.852
757.98
759.281
760.442
762.078
764.234
766.71
769.176
771.292
765.255
767.27
776.617
779.157
773.958
770.55
784.392
786.692
789.157
791.143
793.081
793.071
782.642
749.6
743.858
698.758
694.028
678.949
681.281
715.721
727.158
731.041
734.952
738.368
741.518
744.762
747.785
749.983
752.528
755.47
758.27
761.353
761.896
763.299
764.287
765.899
768.004
770.416
772.772
774.963
775.634
776.187
777.942
772.626
773.617
777.693
786.591
788.438
790.29
791.818
793
793.958
795.867
796.303
766.354
687.061
693.979
701.134
672.151
650.985
679.139
709.135
729.348
742.874
741.578
747.357
749.834
746.962
755.052
757.04
758.81
758.067
762.174
763.473
765.345
766.954
771.709
774.576
777.101
779.176
780.991
781.75
773.276
773.759
776.232
785.569
786.939
788.1
788.859
789.715
790.712
791.92
793.55
794.677
795.204
554.39
665.07
694.901
665.19
631.997
669.791
704.026
720.983
712.908
719.242
751.833
741.189
703.786
711.336
759.812
757.645
751.55
756.918
743.496
746.945
755.716
771.76
778.356
781.498
783.625
780.792
773.634
774.342
779.003
786.19
786.544
786.188
784.634
782.987
786.081
783.24
788.753
791.464
793.054
782.169
524.771
527.894
532.965
538.594
618.683
682.033
704.171
702.012
708.146
736.168
766.885
728.152
700.422
699.631
696.452
694.697
727.345
736.411
681.19
691.662
756.21
766.387
782.527
786.019
786.681
774.543
775.781
779.25
789.519
790.25
790.162
788.937
780.435
780.594
781.227
783.126
786.81
792.252
793.229
787.192
523.891
528.662
534.155
538.378
541.883
548.16
559.449
685.689
740.563
766.9
772.943
757.212
745.884
740.766
705.405
702.234
729.399
682.441
677.626
680.254
750.078
780.994
787.102
784.706
773.975
775.121
780.859
793.283
794.434
796.19
796.934
792.485
786.758
789.173
794.601
795.508
796.684
797.988
797.881
798.765
581.046
558.12
546.526
554.588
608.095
632.567
625.403
626.53
627.69
689.84
655.457
662.078
755.788
762.844
763.293
758.216
756.374
685.809
683.67
711.676
781.643
790.095
792.091
779.101
776.659
777.305
796.628
797.589
799.223
797.91
790.181
783.962
803.254
801.908
801.253
800.801
797.882
783.534
784.569
799.85
741.278
748.558
737.45
737.146
772.049
779.476
784.499
762.951
672.056
657.493
658.392
656.578
731.578
772.787
726.257
697.84
699.104
699.543
732.278
792.559
792.653
794.492
796.175
796.969
778.555
779.589
796.564
800.006
802.2
801.808
771.024
785.024
809.428
807.709
806.402
806.151
772.799
743.32
744.713
757.177
724.267
749.818
757.898
768.297
777.102
784.381
790.039
795.223
798.001
756.914
673.062
659.153
689.81
727.84
746.528
748.609
742.096
799.387
797.577
791.83
783.371
775.828
796.414
798.807
785.165
769.121
768.678
794.164
802.691
806.185
777.373
745.01
803.569
811.352
809.653
808.75
753.972
740.619
773.185
776.575
730.011
719.351
727.567
739.347
753.576
757.15
775.904
798.328
800.983
801.895
805.581
806.964
808.553
803.858
800.894
798.389
797.374
792.67
794.713
753.757
732.107
752.316
798.195
798.806
782.688
762.52
762.616
763.698
799.26
802.414
804.807
706.626
781.033
815.315
808.951
809.3
790.533
741.658
810.023
812.575
754.272
751.538
728.576
720.816
729.424
737.509
742.581
767.627
756.722
745.589
758.048
781.896
804.086
801.88
797.479
788.365
745.014
709.448
717.199
703.186
709.292
772.571
802.805
801.329
796.361
771.782
758.59
780.652
790.578
799.209
770.135
668.969
790.578
823.804
679.555
708.209
685.738
739.008
815.35
816.801
750.278
759.838
767.265
772.606
753.523
744.179
760.997
748.152
747.96
731.526
686.868
676.134
672.654
742.716
792.307
789.162
699.206
697.631
700.951
702.809
718.725
760.994
811.227
810.378
807.052
803.142
773.972
703.508
663.722
699.61
693.389
651.348
693.83
700.485
666.929
671.85
682.295
810.403
821.792
820.608
746.207
757.238
762.16
766.834
771.465
775.844
766.555
709.455
699.748
701.737
707.061
711.618
634.066
611.756
621.933
740.715
772.3
701.021
699.828
704.272
708.608
711.938
788.518
823.642
823.095
821.525
718.258
652.921
651.794
649.604
649.99
651.972
652.21
653.62
662.537
781.268
825.327
827.389
827.783
821.694
745.172
762.463
754.455
758.632
744.272
677.985
692.983
537.035
468.876
501.843
538.657
559.237
603.789
597.39
514.838
609.329
773.388
807.257
730.282
708.865
713.926
719.18
728.064
825.885
840.67
838.912
798.926
662.562
660.218
658.777
658.821
659.198
657.342
743.272
806.949
832.793
835.189
832.415
832.74
826.325
729.749
723.319
640.025
636.134
619.629
590.827
602.226
514.747
434.616
425.875
423.545
419.382
448.573
420.571
439.969
562.264
779.245
805.23
816.956
799.081
724.854
727.404
732.905
771.873
853.042
853.131
850.528
810.376
706.331
742.701
751.419
724.941
797.899
839.991
840.359
839.717
838.719
837.469
836.997
837.018
523.571
661.608
606.758
588.379
584.834
585.765
587.134
720.858
646.031
514.1
419.877
414.542
414.907
416.229
417.597
566.087
784.534
820.573
830.848
836.305
844.13
849.134
759.566
771.533
851.754
860.443
859.796
830.735
803.404
852.446
849.216
844.998
843.306
840.607
837.694
836.483
836.126
836.595
833.758
828.843
341.566
492.262
607.096
705.677
658.072
577.212
615.986
697.928
705.459
716.174
641.114
474.836
423.818
427.99
434.036
527.403
796.858
842.329
849.03
852.678
856.075
859.539
824.508
775.737
776.45
803.83
865.107
862.381
851.789
855.382
850.452
845.469
841.53
806.361
782.167
796.068
791.291
819.655
814.124
816.446
323.62
327.418
562.453
717.648
732.603
606.497
595.104
629.103
673.911
692.652
725.416
758.296
662.64
519.197
454.766
460.442
542.817
812.825
864.242
866.453
867.239
857.719
862.821
873.102
812.442
806.219
804.353
837.713
862.072
856.624
851.109
845.614
836.247
794.724
724.128
658.727
596.898
719.975
822.221
825.081
326.886
325.828
391.87
659.981
766.617
740.639
638.593
577.248
576.551
589.69
690.579
777.124
806.945
829.544
658.502
467.156
475.68
543.727
834.584
878.122
878.102
868.921
868.193
879.881
877.169
873.861
820.702
817.197
812.605
811.273
852.637
850.107
846.809
847.859
838.082
604.799
584.254
620.123
839.635
851.215
329.308
378.617
660.589
806.354
793.266
768.757
625.816
604.506
603.11
608.019
617.501
638.132
795.556
835.736
852.847
647.697
476.443
482.399
724.264
888.776
883.542
829.052
843.335
879.238
877.413
875.309
873.512
870.723
836.445
815.18
813.487
810.104
830.843
861.252
849.599
607.965
590.522
625.122
850.775
864.588
779.837
847.238
837.109
826.106
814.137
804.387
712.225
613.892
613.874
619.518
629.571
639.898
719.828
841.79
855.489
809.774
537.239
494.438
724.663
885.402
802.482
597.123
705.227
869.591
874.798
874.214
874.144
872.063
869.508
866.705
822.755
817.041
816.925
868.451
871.064
677.308
593.817
710.329
871.351
871.605
877.421
863.242
845.687
828.833
814.029
802.56
796.662
719.261
612.188
617.693
626.063
636.3
780.597
854.623
855.605
770.604
778.095
811.243
771.822
632.069
578.135
579.618
577.678
770.48
877.575
875.155
869.588
834.91
855.14
866.065
862.431
844.86
861.888
868.74
871.987
658.358
585.871
732.233
875.454
856.981
889.333
861.016
831.06
808.548
793.061
783.372
780.888
760.695
736.19
691.403
706.486
789.306
831.946
858.76
795.399
784.744
817.547
819.216
616.732
586.315
583.193
584.395
650.281
880.307
887.591
834
789.913
787.604
804.162
861.252
858.657
859.595
862.204
865.358
704.906
567.295
570.277
795.557
883.606
831.239
818.132
760.768
687.934
646.642
654.31
689.971
725.156
741.519
753.183
765.789
780.325
797.972
823.222
856.723
784.809
807.464
820.967
696.279
607.189
600.375
595.881
695.696
910.25
911.781
895.623
872.052
845.37
838.44
823.391
742.93
780.379
783.603
726.928
620.642
549.813
554.986
584.589
855.498
885.017
831.326
525.311
307.99
179.471
133.998
141.422
184.566
322.481
531.727
654.137
691.035
728.5
775.807
808.706
816.511
669.967
777.677
810.475
690.68
683.572
731.64
706.354
774.369
917.296
906.519
896.176
883.244
868.587
778.008
689.91
606.245
551.864
548.315
544.871
545.364
547.881
550.153
775.466
886.47
888.83
835.252
79.2463
68.2598
62.6683
59.1578
56.8632
56.1658
56.3155
58.6433
83.4104
141.922
301.117
604.287
618.189
559.545
602.61
653.475
695.334
749.889
761.448
768.939
862.33
896.777
907.335
900.488
892.414
882.799
812.096
787.482
848.294
808.127
743.131
665.073
609.056
561.445
565.933
701.61
885.353
888.308
890.035
829.649
66.7351
61.577
56.7384
52.5898
50.2477
50.3629
52.4056
55.4597
58.8298
62.3573
67.479
247.219
398.68
580.389
633.674
745.05
721.868
675.028
679.037
729.281
888.48
889.854
888.432
882.21
869.81
865.764
865.593
860.706
847.302
841.043
850.032
845.968
834.483
828.864
834.295
879.713
886.082
888.928
887.76
822.848
69.2451
65.6583
60.5361
54.9899
51.5
50.4413
51.335
53.6348
56.1394
86.273
401.187
541.603
531.83
537.204
767.103
826.896
770.713
649.469
653.931
643.962
635.84
651.739
794.336
858.971
859.154
858.547
854.656
760.052
550.051
485.029
619.677
776.324
855.344
877.179
880.663
882.665
883.616
887.003
886.219
838.777
74.1032
70.3522
65.5909
61.5669
58.5065
56.1055
55.2437
88.5637
460.856
676.134
729.403
702.113
455.871
445.38
779.749
820.171
831.997
763.049
734.227
612.264
540.307
538.852
541.367
731.885
847.693
853.72
833.121
529.667
452.442
453.979
457.759
467.193
638.014
828.996
864.654
822.891
737.855
793.378
772.444
842.969
76.8033
73.9919
80.3664
118.526
172.378
388.325
619.249
720.895
761.85
773.542
776.963
546.537
405.73
415.206
756.5
813.471
827.833
840.025
842.478
659.979
527.909
527.359
526.129
526.124
724.107
859.116
802.487
639.332
457.948
458.421
459.891
461.272
462.306
484.936
503.179
489.765
499.736
508.181
528.827
839.273
77.9705
160.211
453.759
718.99
770.125
736.867
719.865
798.1
803.476
808.707
787.548
460.711
410.184
401.933
491.36
760.116
822.11
832.443
843.913
822.115
576.574
523.834
524.097
524.045
603.145
870.057
712.29
645.462
737.389
842.463
827.731
501.459
462.886
464.586
466.781
469.867
521.246
741.811
860.21
903.275
271.198
722.708
786.72
786.295
789.455
783.365
605.025
592.637
602.672
821.552
820.436
512.711
414.863
409.032
402.223
429.705
679.26
835.794
842.769
850.119
826.833
662.251
659.625
674.266
776.342
871.132
867.213
861.522
657.498
620.897
626.082
694.841
688.466
623.713
731.85
795.003
896.595
878.077
891.113
907.723
787.395
796.293
793.997
794.185
797.049
802.298
795.88
597.897
599.499
678.072
841.047
735.055
523.177
416.799
416.429
414.103
527.314
839.461
850.947
854.743
858.417
859.349
855.041
859.408
859.936
862.637
866.861
874.245
860.075
848.272
859.513
902.907
777.323
638.148
638.644
698.835
893.485
909.103
912.521
914.743
808.444
804.396
795.709
792.29
807.282
817.141
818.803
749.079
608.758
698.474
845.186
853.535
828.43
734.109
587.84
580.192
684.073
845.523
860.689
861.247
862.012
861.866
819.595
745.593
823.482
855.027
845.024
847.39
871.101
883.846
892.158
898.297
903.855
831.336
643.902
645.074
648.274
818.505
919.937
922.971
544.531
666.958
387.166
288.903
377.795
585.552
819.119
823.825
820.109
735.677
825.279
862.94
866.321
869.385
873.419
872
871.274
871.993
871.257
870.566
869.952
868.882
677.54
540.616
556.384
564.31
566.681
571.687
812.844
884.701
892.577
898.647
904.85
910.886
791.106
648.273
653.884
767.158
926.446
929.945
8.60375
54.483
0.421436
0.451763
0.937059
38.5929
236.9
558.148
731.943
749.284
752.216
835.111
824.786
869.933
886.626
886.359
885.277
883.565
882.036
880.862
879.9
848.172
584.64
520.5
512.803
700.221
726.175
725.825
730.655
718.504
741.376
848.267
899.516
907.981
829.338
648.356
652.912
835.469
930.183
932.074
0.343887
0.385441
0.396352
0.412884
0.42911
0.526311
6.51066
124.88
303.724
426.619
504.555
574.562
637.431
712.499
798.253
828.663
836.418
823.824
811.899
786.182
734.802
632.285
572.534
568.525
503.555
338.661
204.457
110.931
36.3711
47.4987
120.781
286.655
502.861
764.602
776.037
683.59
803.736
926.987
932.084
872.272
0.458477
0.416533
0.404078
0.404606
0.708701
1.18708
1.01374
0.37328
1.25486
12.0604
35.8689
67.2868
115.889
148.415
175.601
171.684
159.475
140.857
111.541
54.8568
35.7104
51.505
48.6748
6.33793
0.567428
0.540303
0.532539
0.499217
0.840211
3.62664
9.04909
229.036
689.3
863.486
892.918
902.768
927.988
933.307
932.292
821.061
0.469768
0.378524
0.375365
0.419898
0.397203
0.363693
0.424693
0.395883
0.384805
0.409224
0.382157
0.349168
0.344791
0.337923
0.371987
0.635678
0.384496
0.341778
0.349826
0.361414
0.386544
0.384531
0.401663
0.418623
0.584904
0.533689
0.505775
0.478454
0.51111
1.05839
35.9765
576.993
919.624
925.484
930.786
935.338
938.854
941.915
938.542
826.751
1.01749
0.582692
0.320444
0.313119
0.322131
0.328772
0.330385
0.329987
0.328495
0.32796
0.330622
0.331834
0.330773
0.328219
0.335903
0.347217
0.341281
0.320554
0.325515
0.336009
0.35755
0.37146
0.391887
0.408987
0.694318
1.03571
0.549883
0.544551
0.593766
0.96001
147.429
836.472
941.696
944.669
947.858
950.725
952.638
954.165
953.272
834.867
1.98722
0.940997
0.438345
0.296732
0.306887
0.311959
0.312916
0.313845
0.314919
0.315791
0.316385
0.320653
0.335724
0.361934
0.35644
0.35051
0.349043
0.33074
0.302132
0.309612
0.31893
0.352429
0.351129
0.366109
0.579666
0.999004
0.980736
0.552775
0.790307
1.98246
97.5187
714.376
954.599
963.093
964.356
964.74
965.03
965.23
965.03
955.917
1.52504
0.634693
0.675015
0.352581
0.309665
0.313908
0.312932
0.306155
0.304934
0.303811
0.309822
0.476523
0.471928
0.463095
0.330444
0.269658
0.267989
0.268241
0.270698
0.274873
0.2822
0.292648
0.302023
0.312956
0.323249
0.938706
0.977765
0.721838
0.664677
1.73983
22.3554
175.381
401.545
631.824
829.112
885.605
901.449
900.484
911.873
898.763
0.304723
0.322961
0.334784
0.32676
0.3553
0.404237
0.346788
0.299862
0.2949
0.456069
0.521825
0.506883
0.396314
0.253054
0.247712
0.244485
0.242325
0.242128
0.243183
0.244597
0.247059
0.250595
0.254947
0.260547
0.26383
0.649666
0.915902
0.891265
0.569902
0.600232
1.95686
1.34082
5.25351
63.3013
142.224
169.055
164.005
157.62
160.248
164.253
0.315299
0.298662
0.297853
0.35656
0.390455
0.38816
0.317795
0.292476
0.507362
0.521372
0.5085
0.30529
0.238963
0.233648
0.229787
0.226902
0.225082
0.224558
0.224536
0.224165
0.223696
0.223426
0.223527
0.22376
0.222923
0.217798
0.854875
0.859085
0.668134
0.201104
0.15811
0.133804
0.178614
0.240996
1.08753
2.19716
1.19972
0.463617
0.194383
0.199401
0.343022
0.296224
0.300612
0.386923
0.385261
0.314249
0.310222
0.550207
0.538305
0.509052
0.255939
0.234637
0.229051
0.224935
0.221854
0.21933
0.217675
0.216958
0.216424
0.215188
0.213317
0.210953
0.207951
0.204907
0.201654
0.195165
0.327924
0.863403
0.546455
0.177399
0.136666
0.119157
0.13522
0.126902
0.13664
0.134978
0.90484
0.46054
0.199604
0.207816
0.518331
0.266019
0.435282
0.348074
0.297775
0.296645
0.551703
0.579386
0.478488
0.24085
0.235582
0.230391
0.226273
0.223353
0.221015
0.21929
0.218273
0.218004
0.217154
0.214946
0.211571
0.207229
0.202333
0.197656
0.19191
0.182974
0.171551
0.208565
0.262933
0.19728
0.140718
0.137138
0.134505
0.133897
0.138634
0.140893
0.872199
0.593361
0.221771
0.225942
0.548154
0.507078
0.415681
0.276057
0.278393
0.309764
0.700293
0.558451
0.239777
0.234792
0.231487
0.231688
0.224178
0.22381
0.248557
0.558968
0.797644
0.829306
0.686892
0.482859
0.296009
0.205517
0.197983
0.190179
0.181962
0.171204
0.160118
0.151245
0.144457
0.147417
0.138575
0.137183
0.137593
0.142726
0.151816
0.162761
0.625404
0.693691
0.540867
0.246011
1.50928
1.2481
0.260439
0.263777
0.294519
0.4911
0.693259
0.271277
0.229869
0.227205
0.236092
0.502312
0.539655
0.395837
1.0157
1.62883
1.62772
1.62276
1.61678
1.61158
1.6067
1.53993
1.40512
1.01033
0.56036
0.794882
0.811187
0.266821
0.128069
0.127273
0.127724
0.130218
0.135469
0.144048
0.159035
0.173346
0.303612
0.72009
0.659881
0.267186
1.23227
1.38074
0.362748
0.253862
0.348916
0.83817
0.515873
0.224906
0.221434
0.218412
0.216513
0.678101
1.66026
1.64553
1.63364
1.62447
1.61711
1.60683
1.59781
1.59043
1.58415
1.57489
1.56334
1.55267
1.5425
1.52715
1.51476
1.50735
0.510545
0.107994
0.147777
0.172625
0.129177
0.143832
0.162604
0.181033
0.210411
0.737134
0.629028
0.275329
0.210195
0.209897
0.220635
0.289213
0.75244
0.830473
0.322567
0.209853
0.211141
0.211239
0.211819
0.421476
1.5824
1.65917
1.6421
1.61998
1.59175
1.3671
1.28263
1.49833
1.55063
1.52701
1.49849
1.4601
1.30771
1.42766
1.42724
1.43249
1.09485
0.783864
1.38509
1.37403
0.429052
0.136913
0.162258
0.187188
0.282865
0.752281
0.357932
0.279484
0.203995
0.204188
0.301456
0.901412
0.971215
0.714494
0.207099
0.204908
0.292828
0.394641
0.395302
0.393131
0.524653
1.04245
1.64616
1.47091
0.536528
0.140795
0.136935
0.754967
1.55494
1.51674
0.761375
0.0143155
0.0219817
0.0412549
0.20164
0.14027
1.02031
1.3365
1.36776
1.40316
0.956036
0.13035
0.158762
0.21445
0.406327
0.492158
0.337976
0.379904
0.194826
0.209569
0.781382
0.979303
0.974352
0.465063
0.193882
0.190779
0.187314
0.235218
0.389511
1.20341
1.49886
1.47613
0.892607
0.140555
0.131929
0.126535
0.120301
0.811449
1.57353
0.866686
0.00514711
-0.0103135
-0.029214
-0.0522677
-0.0783273
-0.0655233
0.748888
1.28747
1.30342
1.3652
0.479586
0.10682
0.153134
0.201618
0.383167
0.340909
0.34167
0.933679
0.187023
0.193351
0.753771
0.97978
0.973172
0.308735
0.179642
0.175902
0.171282
0.174342
0.987915
1.51417
1.50359
1.41394
0.169757
0.135707