/*--------------------------------*- C++ -*----------------------------------*\
  =========                 |
  \\      /  F ield         | OpenFOAM: The Open Source CFD Toolbox
   \\    /   O peration     | Website:  https://openfoam.org
    \\  /    A nd           | Version:  8
     \\/     M anipulation  |
\*---------------------------------------------------------------------------*/
FoamFile
{
    version     2.0;
    format      ascii;
    class       surfaceScalarField;
    location    "0.95";
    object      alphaPhi0.water;
}
// * * * * * * * * * * * * * * * * * * * * * * * * * * * * * * * * * * * * * //

dimensions      [0 3 -1 0 0 0 0];

internalField   nonuniform List<scalar> 
18095
(
1.92242e-08
-1.72002e-07
1.52777e-07
2.29277e-08
-1.98557e-07
1.94854e-07
1.9228e-08
-2.05595e-07
2.09294e-07
1.01982e-08
-2.10474e-07
2.19503e-07
5.15109e-10
-2.13756e-07
2.2344e-07
-9.54413e-09
-2.13686e-07
2.23745e-07
-1.89885e-08
-2.10209e-07
2.19654e-07
-2.29109e-08
-2.05207e-07
2.09129e-07
-1.92097e-08
-1.9855e-07
1.94848e-07
-1.71965e-07
1.52755e-07
1.54506e-08
-1.87452e-07
1.54048e-08
-1.98511e-07
1.23043e-08
-2.02494e-07
7.01625e-09
-2.05186e-07
-3.58513e-10
-2.06382e-07
-7.6046e-09
-2.06439e-07
-1.26652e-08
-2.05149e-07
-1.54544e-08
-2.02418e-07
-1.54674e-08
-1.98537e-07
-1.87433e-07
6.8691e-09
-1.94321e-07
8.23256e-09
-1.99875e-07
6.44786e-09
-2.00709e-07
3.21444e-09
-2.01952e-07
-1.09205e-12
-2.03166e-07
-3.27474e-09
-2.03166e-07
-6.51508e-09
-2.01909e-07
-8.21319e-09
-2.00719e-07
-6.87265e-09
-1.99877e-07
-1.94305e-07
4.58116e-09
-1.98902e-07
4.64727e-09
-1.99941e-07
4.20292e-09
-2.00265e-07
2.63259e-09
-2.00382e-07
-3.40797e-11
-2.005e-07
-2.6949e-09
-2.00505e-07
-4.20834e-09
-2.00395e-07
-4.645e-09
-2.00283e-07
-4.59113e-09
-1.99931e-07
-1.98896e-07
1.09767e-09
1.15678e-09
8.91654e-10
5.09773e-10
1.02403e-11
-4.9475e-10
-8.89858e-10
-1.17263e-09
-1.10367e-09
-2.43371e-08
-1.97717e-07
2.22054e-07
-2.71049e-08
-1.9854e-07
2.01308e-07
-2.31511e-08
-2.01403e-07
1.97449e-07
-1.36078e-08
-1.99931e-07
1.90387e-07
-1.2749e-09
-2.01422e-07
1.89089e-07
1.14176e-08
-2.01672e-07
1.8898e-07
2.2192e-08
-2.00953e-07
1.90179e-07
2.69203e-08
-2.02226e-07
1.97497e-07
2.42797e-08
-1.98543e-07
2.01183e-07
-1.97593e-07
2.21873e-07
-1.03688e-08
-1.87348e-07
-1.57256e-08
-1.93184e-07
-1.45985e-08
-2.0253e-07
-6.17713e-09
-2.08352e-07
1.32576e-09
-2.08925e-07
8.66499e-09
-2.09011e-07
1.61025e-08
-2.08391e-07
1.60653e-08
-2.02188e-07
1.04181e-08
-1.92896e-07
-1.87175e-07
-1.09633e-08
-1.76385e-07
-8.58544e-09
-1.95561e-07
-5.42407e-09
-2.05692e-07
-3.04524e-09
-2.10731e-07
5.33989e-10
-2.12504e-07
3.56401e-09
-2.12041e-07
4.98755e-09
-2.09814e-07
8.24594e-09
-2.05447e-07
1.08273e-08
-1.95477e-07
-1.76348e-07
-7.47922e-09
-1.68905e-07
-1.00003e-08
-1.9304e-07
-9.8849e-09
-2.05807e-07
-5.34336e-09
-2.15272e-07
-1.02879e-09
-2.16818e-07
3.72925e-09
-2.16799e-07
9.33589e-09
-2.15421e-07
9.76385e-09
-2.05875e-07
7.37537e-09
-1.93088e-07
-1.68973e-07
-1.61281e-08
-1.43149e-08
-1.08277e-08
-6.59657e-09
2.45767e-11
6.96994e-09
1.12028e-08
1.44572e-08
1.62173e-08
3.11998e-08
-1.56621e-07
1.25421e-07
3.422e-08
-1.98485e-07
1.95465e-07
2.47178e-08
-2.10228e-07
2.1973e-07
9.22926e-09
-2.16232e-07
2.31721e-07
-7.94738e-09
-2.1781e-07
2.34987e-07
-2.39322e-08
-2.17985e-07
2.3397e-07
-3.49577e-08
-2.16839e-07
2.27865e-07
-3.98508e-08
-2.10725e-07
2.15618e-07
-3.35332e-08
-1.98644e-07
1.92326e-07
-1.56429e-07
1.22896e-07
1.68183e-08
-1.7344e-07
1.99926e-08
-2.01659e-07
1.73606e-08
-2.07596e-07
1.11541e-08
-2.10026e-07
2.34963e-09
-2.09006e-07
-6.65784e-09
-2.08978e-07
-1.44003e-08
-2.09097e-07
-1.8387e-08
-2.06738e-07
-1.63135e-08
-2.00718e-07
-1.72743e-07
1.10107e-08
-1.8445e-07
1.00812e-08
-2.0073e-07
7.82696e-09
-2.05342e-07
3.05695e-09
-2.05256e-07
-1.02837e-09
-2.04921e-07
-5.08502e-09
-2.04921e-07
-9.54341e-09
-2.04639e-07
-1.12115e-08
-2.0507e-07
-1.14997e-08
-2.00429e-07
-1.84243e-07
8.22968e-09
-1.9268e-07
7.10352e-09
-1.99604e-07
6.79095e-09
-2.05029e-07
1.3566e-09
-1.99822e-07
-7.68349e-10
-2.02796e-07
-2.8833e-09
-2.02806e-07
-7.33711e-09
-2.00185e-07
-7.38469e-09
-2.05022e-07
-8.32155e-09
-1.99492e-07
-1.92564e-07
2.93738e-08
3.10785e-08
2.34987e-08
1.40643e-08
3.57658e-10
-1.34689e-08
-2.34747e-08
-3.09998e-08
-2.93089e-08
-1.33372e-06
-6.37319e-08
1.24719e-06
-1.23075e-06
-9.74969e-08
-1.02586e-06
-1.92101e-07
-6.2017e-07
-4.57347e-07
-1.64047e-07
-5.90392e-07
2.79083e-07
-6.00984e-07
4.98035e-07
-2.23564e-07
6.02212e-07
-1.06729e-07
6.59179e-07
-5.91559e-08
-3.33054e-08
6.90296e-07
-1.70648e-07
-6.32254e-08
2.10628e-07
-2.66129e-07
-1.4562e-07
-3.73719e-07
-1.78389e-07
-3.35292e-07
-1.41063e-07
-2.84917e-07
-4.9058e-07
3.28565e-08
-8.99632e-07
1.20589e-07
-3.43801e-07
2.1146e-07
-2.02212e-07
3.60643e-07
-2.12125e-07
-1.57684e-07
4.83382e-07
-2.64692e-08
2.06219e-08
-1.86481e-08
-6.29011e-08
-6.92002e-08
-2.16695e-08
-1.78284e-07
-9.94807e-08
-9.86956e-08
-7.63897e-08
-4.38731e-07
-6.45636e-09
-9.32377e-07
6.41117e-08
-6.61876e-07
5.60003e-08
-1.79414e-07
1.28721e-07
-2.71242e-07
-2.21368e-07
2.06132e-07
9.11928e-09
7.22739e-09
-3.83625e-09
4.42481e-09
-2.41603e-08
-3.55956e-09
-1.5205e-07
-5.64633e-08
-8.09721e-08
-2.15796e-08
-7.70569e-07
-3.46417e-08
-9.7142e-07
-1.91282e-08
-6.84301e-07
-1.75675e-08
-1.99562e-07
2.81903e-08
-2.92864e-07
-1.78756e-07
3.62241e-08
5.3606e-09
7.20776e-09
-6.532e-09
4.28164e-08
-1.33977e-08
6.63324e-08
-1.36703e-07
3.32578e-09
-6.41929e-08
9.30616e-09
-8.84506e-07
4.69301e-09
-1.17763e-06
2.89065e-09
-6.8251e-07
7.0708e-09
-2.67144e-07
1.64201e-08
-1.93629e-07
-2.20455e-07
4.73886e-08
1.94828e-09
5.07989e-09
0
3.0213e-08
-1.78585e-08
4.96204e-08
-1.08427e-07
2.40278e-08
-6.12241e-08
2.69554e-08
-8.73005e-07
3.16091e-08
-1.1823e-06
8.16816e-09
-6.59074e-07
1.38764e-08
-3.99433e-07
1.28402e-08
-4.02225e-07
-4.01034e-07
5.93478e-09
2.65436e-09
2.09163e-09
3.19213e-10
5.95345e-08
-7.06918e-09
6.54491e-08
-7.24109e-08
6.41327e-09
-5.26346e-08
2.64206e-08
-8.33821e-07
3.49905e-08
-1.19086e-06
8.23665e-09
-6.32317e-07
-1.55752e-08
-3.75618e-07
-4.51984e-08
-3.72599e-07
-3.6872e-07
-7.75144e-08
1.62886e-09
4.78039e-10
-1.92136e-11
1.1001e-07
1.65647e-10
1.28171e-07
-1.4652e-08
2.90176e-08
-3.78228e-08
5.13853e-08
-8.17031e-07
5.23972e-08
-1.19178e-06
1.60594e-08
-5.95976e-07
-1.47262e-08
-3.4483e-07
-5.01176e-08
-3.37205e-07
-3.36466e-07
-8.23661e-08
1.15907e-09
1.81099e-10
-8.65767e-10
1.51497e-07
3.71635e-08
1.03739e-07
1.94657e-08
3.68479e-08
-4.42559e-10
9.61898e-08
-8.66947e-07
7.45448e-08
-1.07952e-06
1.51422e-08
-5.36566e-07
4.56615e-09
-3.34251e-07
-5.11282e-09
-3.2752e-07
-3.23055e-07
-1.85108e-08
1.66051e-07
6.46128e-08
-1.34301e-09
1.2266e-07
8.92328e-08
8.5487e-08
4.03516e-08
2.74131e-08
1.52062e-09
9.22215e-08
-9.55601e-07
6.97954e-08
-9.02442e-07
1.19858e-08
-4.78607e-07
3.15761e-08
-3.53833e-07
5.20617e-08
-3.47961e-07
-3.37576e-07
6.66931e-08
1.34225e-07
1.14525e-07
-1.34674e-07
1.19775e-07
1.12361e-07
4.46235e-08
5.98579e-08
1.08416e-08
9.96492e-09
6.76614e-08
-1.00716e-06
4.49613e-08
-9.15784e-07
1.6774e-09
-4.32464e-07
2.58199e-08
-3.77911e-07
3.78892e-08
-3.59233e-07
-2.38448e-07
1.04941e-08
-2.36867e-08
1.72952e-07
-3.22434e-08
-6.95799e-08
1.94037e-07
-9.84904e-09
2.61577e-08
2.28291e-09
-7.92873e-09
5.22569e-08
-1.04289e-06
3.50572e-08
-9.48756e-07
-1.14263e-08
-1.52032e-07
-9.94539e-09
-3.78686e-07
-1.46569e-08
-6.1074e-08
1.97655e-11
-6.52449e-08
-7.24526e-08
1.5214e-07
9.55898e-08
-6.29662e-08
2.0996e-07
-3.23648e-08
6.12267e-08
-5.49156e-10
-1.70307e-08
-1.9789e-09
-1.03925e-06
5.77759e-10
-1.0266e-06
-8.53572e-08
-4.81373e-09
-4.0185e-08
-1.00724e-07
-1.03115e-08
-1.08183e-09
9.1627e-10
0
-3.02545e-08
7.52278e-09
2.06956e-08
-2.02902e-10
1.74752e-07
-7.03848e-09
8.32004e-08
-3.15106e-08
-1.80746e-09
-1.94272e-08
-1.0492e-06
-2.11571e-09
-1.044e-06
0
-1.97689e-09
-9.7416e-10
3.16031e-10
-2.18604e-09
1.11472e-10
5.0893e-10
-2.07772e-09
1.17121e-08
2.76571e-10
-2.76845e-09
-1.24754e-09
0
0
5.37162e-08
3.50676e-10
-2.71639e-09
-7.34717e-09
-1.02591e-06
-1.06186e-08
-1.02512e-06
1.38593e-10
-2.61729e-09
3.14451e-10
2.47742e-10
4.27478e-10
3.11541e-10
2.64311e-10
5.95565e-10
-1.56598e-09
9.93695e-10
-2.02414e-10
-1.51397e-08
3.74908e-11
0
7.82809e-10
2.41943e-09
-5.06692e-09
1.52066e-10
-1.01611e-06
-3.66726e-10
-1.01821e-06
2.34886e-10
-4.17855e-09
2.4725e-10
2.06316e-10
3.21473e-10
2.12585e-10
1.60631e-10
4.18654e-10
-1.71758e-10
4.32024e-11
-6.66276e-12
-4.3325e-10
1.18438e-10
-3.39006e-11
2.42128e-10
2.43833e-09
-1.21553e-08
2.98613e-09
-1.01141e-06
-1.28057e-10
-1.01212e-06
0
-1.05715e-08
1.03126e-10
3.47138e-10
1.22979e-10
1.86194e-10
2.11524e-10
6.5551e-11
-2.31899e-11
6.19524e-11
-3.33996e-12
-2.52788e-12
7.23829e-11
1.12996e-10
9.17109e-11
3.15854e-09
-1.33792e-08
2.66025e-09
-1.00538e-06
7.55451e-10
-1.0079e-06
-1.2283e-10
-1.34278e-08
-2.0523e-10
4.29483e-10
-3.96357e-10
3.73179e-10
3.854e-10
-5.7677e-10
-1.75669e-11
7.74457e-11
-3.24896e-13
-6.94886e-12
5.49626e-11
-6.38568e-12
3.34222e-11
-1.00436e-08
-1.02649e-08
-1.74659e-08
-1.00389e-06
-8.37269e-09
-1.00252e-06
-1.63838e-10
-1.01132e-08
-1.7698e-10
4.6553e-10
-3.67006e-10
5.59836e-10
5.62465e-10
-5.47344e-10
-3.3606e-11
8.21811e-11
2.69284e-11
-3.70352e-11
5.69712e-11
6.01734e-11
-5.65799e-12
-1.92412e-10
-2.29298e-09
-5.16922e-09
-9.98243e-07
-9.53357e-10
-9.93778e-07
-1.5185e-10
-4.91107e-09
-4.12151e-11
5.24832e-10
-1.08857e-10
6.24159e-10
5.85719e-10
-1.36957e-10
-4.24897e-11
6.47293e-11
5.79924e-11
-1.48262e-11
2.71387e-11
6.14358e-12
-2.81999e-11
1.35251e-09
-1.49622e-09
-3.67195e-09
-9.92956e-07
-1.56035e-09
-9.87878e-07
-3.04559e-10
-2.43004e-11
-1.16083e-11
3.93024e-10
3.95955e-11
5.69813e-10
6.64783e-10
-4.27871e-11
-3.16772e-11
3.24995e-11
6.19237e-11
0
-4.67404e-14
2.4277e-11
-4.68842e-11
6.36905e-10
-1.11806e-10
-3.8739e-09
-9.83023e-07
-1.80994e-10
-9.80906e-07
-2.02061e-10
-1.0784e-11
3.83832e-11
4.82618e-10
1.69886e-10
9.52979e-10
7.13562e-10
1.11704e-10
-1.65698e-12
1.53665e-12
7.39713e-11
1.3165e-11
-1.70106e-11
3.05112e-11
-4.88771e-11
4.4513e-11
-1.137e-10
4.80366e-11
-7.48657e-07
-3.08287e-12
-7.4422e-07
-1.23387e-11
-1.01301e-11
5.56543e-11
4.81499e-11
2.522e-10
9.01847e-10
1.09204e-09
2.18426e-10
1.08984e-11
-6.4851e-12
1.56084e-11
9.18649e-12
-1.70057e-11
8.68976e-11
-8.30644e-10
1.07751e-10
-1.31574e-10
-3.57607e-09
-5.41838e-07
-7.49555e-12
-5.388e-07
-2.43494e-12
-2.10043e-11
8.35683e-12
7.42611e-12
2.38741e-10
8.21733e-10
1.25414e-09
2.35437e-10
1.73201e-11
-5.77177e-12
-1.42684e-11
2.31726e-10
-2.27414e-10
1.98418e-10
-1.85998e-09
2.46822e-10
-1.78805e-10
-5.10052e-09
-5.39055e-07
-7.82146e-11
-5.51351e-07
-2.51876e-13
-1.02678e-10
2.94131e-12
-1.64042e-13
2.16165e-10
2.13082e-10
1.11738e-09
4.5254e-10
1.59745e-10
-1.45429e-10
-1.51336e-11
3.13178e-10
-7.3876e-10
0
-1.37511e-09
4.09685e-10
-5.90173e-10
-6.83102e-11
-9.84979e-07
-4.87428e-10
-1.00846e-06
3.50019e-12
-5.98003e-10
1.36487e-12
-2.42569e-12
1.85174e-10
1.26685e-11
2.79818e-10
5.14148e-10
7.68812e-10
-6.23909e-10
-6.18901e-10
9.1749e-10
-8.49162e-10
1.57442e-10
-4.36287e-10
1.34067e-09
-1.8324e-09
-5.11389e-10
-1.16799e-06
-1.5911e-09
-1.16913e-06
0
-2.20111e-09
1.29851e-12
-6.74132e-12
8.95306e-12
4.68094e-12
1.6386e-11
6.96349e-11
3.39189e-10
-7.50773e-10
-1.71915e-10
8.87387e-11
-5.58301e-10
0
1.89779e-12
7.0541e-11
-8.03775e-09
-7.771e-10
-1.16452e-06
-5.40092e-11
-1.16933e-06
0
-1.16441e-08
3.01004e-12
-1.46256e-11
2.12043e-12
2.41271e-12
1.3986e-11
9.98789e-12
-8.4117e-10
-1.87789e-11
-2.77994e-11
-2.26071e-11
-2.07378e-11
0
-2.52458e-11
6.01174e-09
-2.13991e-08
1.38899e-08
-1.16748e-06
1.65129e-08
-1.17017e-06
0
-2.17924e-08
0
-4.81957e-12
1.77081e-11
1.48612e-11
3.03897e-11
4.43032e-12
-1.43807e-10
0
1.68176e-10
-6.37387e-11
-7.63219e-11
0
-5.64385e-11
-5.36485e-10
-3.04533e-08
1.25583e-09
-1.16572e-06
-1.03399e-09
-1.16579e-06
-1.09639e-11
-3.26695e-08
0
-2.20069e-11
2.84183e-11
2.95428e-11
8.58535e-11
2.70992e-11
-1.85456e-10
-4.24237e-11
3.53387e-10
0
-3.64182e-11
1.86075e-10
-5.68526e-11
7.78795e-09
-3.70785e-08
1.62995e-08
-1.15989e-06
1.05798e-08
-1.16415e-06
1.72374e-11
-3.83579e-08
0
-3.3722e-12
2.37417e-11
1.30885e-13
5.10176e-11
1.18269e-10
-9.31576e-12
-2.62939e-12
3.95978e-11
0
-8.61014e-12
2.80017e-10
-1.79186e-10
7.61469e-10
-4.27904e-08
1.07686e-09
-1.15373e-06
-1.62507e-09
-1.15634e-06
-2.52511e-12
-4.40866e-08
2.08962e-13
-3.78737e-12
3.19033e-12
-1.45324e-12
3.32548e-12
3.91753e-11
-2.67514e-12
-5.69737e-12
5.24082e-12
-4.55272e-12
-7.29333e-12
7.1916e-11
-5.79377e-10
-1.54136e-09
-4.5749e-08
-5.28213e-09
-1.14818e-06
-4.37864e-09
-1.14762e-06
-2.78722e-12
-4.67448e-08
0
-4.11608e-12
4.34003e-12
-2.72194e-11
1.26424e-12
3.4963e-12
-3.90224e-13
-1.0686e-11
4.8181e-12
4.88739e-12
-1.3851e-11
1.74106e-10
-7.08491e-10
1.40383e-09
-4.56587e-08
-1.00293e-09
-1.13918e-06
-1.55008e-09
-1.1409e-06
-2.27914e-12
-4.65259e-08
0
-4.35879e-12
1.27818e-11
-3.43895e-11
-2.54291e-12
2.58292e-12
0
-2.07517e-10
9.78998e-12
2.04117e-11
-3.74199e-11
2.10535e-10
-7.2333e-10
1.79844e-09
-4.12076e-08
1.00859e-09
-1.13079e-06
-1.22418e-09
-1.13193e-06
-2.30352e-12
-4.08293e-08
0
-4.54154e-12
9.84279e-12
-3.86162e-11
-6.76921e-12
1.5353e-12
4.11829e-11
-1.39212e-09
-1.0845e-11
6.41473e-11
-7.929e-10
2.63393e-10
-6.79818e-10
3.50528e-09
-2.62314e-08
3.8263e-09
-1.12223e-06
-1.60227e-12
-1.12319e-06
-2.06632e-12
-2.42235e-08
0
-4.59813e-12
6.42054e-12
-3.94165e-11
-5.78446e-12
1.98486e-12
5.00189e-10
-1.62602e-09
-2.66268e-10
3.66747e-10
-1.90887e-09
2.77656e-10
-5.53391e-10
5.41107e-09
-1.04519e-08
6.90078e-09
-1.11475e-06
2.87411e-09
-1.11692e-06
-1.08862e-12
-5.81416e-09
0
-4.40827e-12
9.07029e-13
-5.20847e-12
-3.69732e-12
1.11326e-12
3.61441e-10
-1.90625e-09
-8.11846e-11
2.46303e-10
-1.79361e-09
1.34378e-10
-3.28851e-10
1.2666e-09
-3.9671e-11
1.05357e-09
-1.10538e-06
-2.48843e-09
-1.11047e-06
-1.73716e-12
-2.39453e-10
-2.01413e-13
-4.30244e-12
-2.46041e-13
-3.51219e-12
-2.42622e-12
3.96287e-13
9.35424e-11
-2.26854e-09
2.6888e-10
1.72591e-10
-1.87109e-09
4.9608e-11
-2.63746e-10
9.1745e-11
-2.08893e-11
-2.82137e-09
-1.07596e-06
-1.65853e-09
-1.0764e-06
-2.73145e-13
-4.4151e-12
-2.343e-13
-4.12123e-12
-2.92093e-13
-1.81281e-12
-1.20351e-12
2.1465e-15
-1.63004e-10
-2.66127e-09
5.57301e-10
4.34994e-11
-1.77451e-09
3.1043e-11
-2.52961e-10
2.70944e-11
-1.71127e-11
-2.78588e-09
-9.43456e-07
-1.12756e-13
-9.48409e-07
-3.53042e-13
-4.37447e-12
-2.3378e-13
-2.19402e-12
-5.75676e-13
-1.49556e-12
-3.19174e-12
-1.08156e-13
-4.46532e-10
-2.19039e-09
5.72502e-10
4.27138e-12
-2.06976e-09
2.95482e-11
-3.39054e-10
2.39155e-11
-1.32237e-11
1.38734e-10
-8.07974e-07
-3.60506e-13
-8.08637e-07
-3.68748e-13
-4.56633e-12
-7.24683e-13
-3.79742e-12
-2.03969e-12
0
-4.08454e-12
-5.97426e-16
-8.69061e-11
-9.98357e-13
-2.86952e-11
1.35519e-11
-1.99261e-09
2.38927e-11
-4.69742e-10
2.20358e-11
-1.19231e-11
-1.81429e-09
-7.29707e-07
-2.12526e-12
-7.31161e-07
-1.959e-12
-4.95891e-12
-1.98409e-12
-2.95132e-11
-2.86456e-12
-2.00406e-11
-2.55908e-12
-1.25562e-15
2.91379e-13
-7.47468e-13
-5.47052e-13
1.52419e-10
-1.92913e-09
4.35621e-11
-4.02015e-10
3.74948e-11
-6.76392e-12
2.06776e-10
-6.95969e-07
-3.49692e-12
-6.96547e-07
-3.26038e-12
-5.53493e-12
-4.6174e-12
-4.88144e-11
-6.41343e-12
-5.23847e-11
-3.4898e-12
-3.63194e-15
4.39492e-13
-5.66033e-13
-6.25924e-13
1.13032e-10
-3.11844e-12
1.97987e-11
-9.71628e-11
1.43694e-11
-4.39819e-12
3.63209e-10
-6.67109e-07
-5.46282e-12
-6.66863e-07
-4.28296e-12
-7.21386e-12
-1.06349e-11
-5.18944e-11
-1.64339e-12
-5.36781e-11
-3.91427e-12
-4.2373e-15
1.71882e-13
-3.77742e-13
-3.64975e-13
-2.09689e-12
-8.48852e-13
0
-2.31619e-12
6.52651e-12
-1.25135e-11
-1.00451e-10
-6.41165e-07
-1.20922e-11
-6.41187e-07
-3.05703e-12
-1.70048e-11
-9.37752e-12
-2.93843e-11
-1.54749e-12
-5.38193e-11
-3.87552e-12
-9.95859e-15
-1.74014e-13
0
1.31221e-13
-1.97836e-13
-6.17466e-13
5.51291e-15
-2.39258e-12
6.23031e-11
-7.48088e-11
-1.00833e-09
-7.57294e-07
-6.18489e-11
-7.61619e-07
-1.43944e-12
-7.94896e-11
-6.40251e-12
-8.05152e-12
-7.06474e-13
-5.18152e-11
-4.08471e-12
-1.42168e-13
-4.47717e-13
0
1.67937e-12
-1.36958e-13
-7.30207e-13
0
-5.4343e-12
3.99871e-10
-4.76325e-10
-8.73999e-10
-9.57944e-07
-3.9723e-10
-9.56318e-07
-1.05272e-12
-4.74001e-10
-2.18399e-12
-2.17404e-12
-6.39311e-13
-4.56608e-11
-5.79523e-12
-1.81985e-14
-2.99659e-12
-9.94568e-11
2.08607e-11
-1.70076e-13
-4.18223e-11
0
-2.28266e-11
1.56519e-09
-2.04966e-09
-2.61976e-09
-1.0651e-06
-1.87457e-09
-1.06294e-06
-1.8352e-14
-2.35054e-09
6.41307e-16
-4.18031e-12
2.31114e-12
-8.0667e-12
-7.74485e-14
1.20387e-12
-2.85562e-11
-3.77465e-10
6.72374e-11
-3.31186e-14
-3.41019e-10
0
-2.03277e-11
1.92366e-09
-8.91826e-09
5.88649e-10
-1.09495e-06
-2.09898e-09
-1.09182e-06
2.30358e-12
-8.83189e-09
6.79534e-14
-3.91277e-12
1.02803e-12
-1.37728e-11
-1.9608e-12
9.38172e-12
-1.06856e-11
-4.09034e-10
4.22789e-11
0
-3.51632e-10
1.16448e-13
-2.18779e-11
1.78934e-09
-3.89788e-08
4.50837e-10
-1.0913e-06
-2.00686e-09
-1.09209e-06
-1.00595e-12
-4.2291e-08
0
-7.81325e-12
7.54749e-12
-8.30931e-11
-1.5396e-10
2.7453e-11
-2.18533e-11
-4.34079e-10
4.69489e-11
0
-6.4892e-11
3.45606e-11
-1.04178e-10
6.43085e-09
-7.00673e-08
8.43685e-09
-1.08414e-06
9.14679e-09
-1.08887e-06
1.92346e-12
-6.62147e-08
0
-2.3671e-12
1.44529e-11
-1.08648e-10
-1.8392e-10
4.74316e-11
-2.70752e-11
-4.48145e-10
4.1407e-11
0
-5.11311e-13
-1.56226e-10
-4.95574e-11
-2.03287e-08
-7.60359e-08
-2.13059e-08
-1.08389e-06
-1.26161e-08
-1.08147e-06
-2.09334e-13
-7.44688e-08
0
-8.91493e-12
2.65658e-11
-4.43821e-11
-2.14855e-10
6.04812e-11
-3.27959e-12
-1.28199e-10
2.05423e-11
-3.78719e-12
-3.18587e-15
-5.33382e-11
-6.40545e-15
-9.57674e-09
-7.31826e-08
-1.56556e-08
-1.08243e-06
-5.72189e-09
-1.07552e-06
-5.72105e-11
-7.21583e-08
0
-6.93844e-11
3.74814e-11
-3.4192e-11
-2.55763e-10
1.09741e-10
-8.27555e-16
-4.81484e-15
2.72848e-11
-2.57639e-16
-3.75979e-15
3.03198e-16
-6.97025e-15
1.19153e-08
-5.51039e-08
1.69538e-08
-1.07054e-06
1.30651e-08
-1.07283e-06
6.74142e-11
-5.51991e-08
0
-2.26782e-12
1.956e-11
-1.68295e-10
-3.51905e-11
1.67242e-11
-8.11115e-16
-8.84042e-15
4.50859e-15
-6.89689e-18
-4.57226e-15
2.12353e-16
-7.19347e-15
3.3795e-09
-3.49617e-08
3.33139e-09
-1.05309e-06
-2.36499e-09
-1.05384e-06
-6.16171e-14
-3.49995e-08
0
-2.61864e-12
1.65768e-11
-1.78927e-10
-4.98704e-11
1.45795e-12
-6.93706e-16
-1.06611e-13
9.78734e-14
5.51974e-16
-1.59107e-14
7.51071e-16
-7.40081e-15
3.90809e-09
-2.2274e-08
-5.09778e-10
-1.01773e-06
-4.25177e-09
-1.01664e-06
-2.7182e-12
-2.23801e-08
-2.18661e-12
-3.34146e-12
4.6998e-12
-1.81474e-10
-1.42309e-10
7.5667e-13
2.68688e-15
-2.43117e-13
3.09071e-15
1.56761e-15
-2.98964e-14
1.66915e-15
-7.55297e-15
3.65678e-09
-1.50266e-08
-1.07141e-09
-9.85092e-07
-4.68815e-09
-9.84012e-07
-8.82001e-12
-1.51517e-08
-8.7957e-12
-3.71638e-12
-3.88407e-12
-1.69953e-10
-1.72296e-10
1.9018e-12
2.73948e-14
-1.88308e-13
-5.69788e-16
2.97284e-15
-1.12629e-14
2.68696e-15
-7.40131e-15
4.82834e-09
-1.17162e-08
3.04061e-10
-9.60352e-07
-4.60912e-09
-9.59621e-07
-7.34416e-12
-1.18114e-08
-7.43544e-12
-4.17579e-12
-5.69051e-12
-9.77805e-11
-6.75289e-11
-7.4309e-14
0
-1.99042e-13
0
1.33496e-15
-7.73786e-15
1.53623e-15
-7.78351e-15
4.28202e-09
-1.02229e-08
-1.02607e-09
-9.4079e-07
-4.70069e-09
-9.4097e-07
-7.17565e-12
-1.01051e-08
-6.37918e-12
-5.21357e-12
-4.25049e-12
-1.47129e-10
-4.59992e-12
-1.29086e-13
3.06664e-15
-1.86552e-13
0
1.43342e-15
-6.67082e-15
5.59337e-15
-1.21304e-14
4.49166e-09
-9.96163e-09
-7.25892e-10
-9.2349e-07
-5.25229e-09
-9.23278e-07
-1.41142e-11
-9.6375e-09
-1.29032e-11
-6.51995e-12
-1.05535e-12
-1.44168e-10
-6.26972e-12
-1.49327e-13
7.6109e-16
-7.91118e-14
0
4.73594e-15
-1.42022e-14
4.35511e-14
-5.13834e-14
4.64218e-09
-9.50534e-09
6.08615e-10
-9.07776e-07
-3.88062e-09
-9.07353e-07
-2.13773e-11
-8.71413e-09
-2.01155e-11
-7.76249e-12
-7.20317e-12
-1.42064e-10
-3.96155e-11
-4.19014e-13
3.04878e-14
-8.79601e-14
-7.19349e-15
9.56737e-14
-1.04656e-13
4.13002e-13
-3.71534e-13
5.03123e-09
-1.05867e-08
-1.44098e-09
-8.92789e-07
-6.72821e-09
-8.90688e-07
-2.77541e-11
-9.93859e-09
-2.65686e-11
-8.65885e-12
-3.05079e-11
-1.21372e-10
-1.22496e-10
-4.08384e-13
6.97066e-13
-1.09128e-12
-2.79545e-13
1.81271e-12
-1.40237e-12
3.82219e-12
-2.40458e-12
5.76201e-09
-1.37135e-08
2.69469e-09
-8.94235e-07
-3.11186e-09
-8.93788e-07
-2.04972e-11
-1.34191e-08
-1.97212e-11
-9.15937e-12
-2.11932e-11
-9.99983e-11
-1.45749e-10
-3.85721e-13
2.03904e-11
-2.63107e-10
-9.53589e-12
2.9601e-11
-2.27763e-10
3.22258e-11
-5.21141e-12
7.15899e-09
-2.58651e-08
1.54038e-09
-9.09621e-07
-6.03205e-09
-9.08779e-07
-1.93098e-11
-2.60933e-08
-1.91111e-11
-9.35816e-12
-2.28045e-11
-9.43997e-11
-1.48026e-10
-4.72204e-13
8.74013e-11
-2.95153e-10
-4.69224e-11
6.99319e-11
-3.27795e-10
6.63477e-11
-2.10708e-12
4.23764e-09
-4.23679e-08
-9.00384e-10
-9.26756e-07
-5.17643e-09
-9.25489e-07
-1.77285e-11
-4.23176e-08
-1.74817e-11
-9.91195e-12
-1.18329e-11
-1.12655e-10
-1.36828e-10
-1.67925e-12
8.07748e-11
-3.19899e-10
-4.75966e-11
3.83142e-11
-2.76902e-10
3.62073e-11
-9.03303e-17
6.80595e-09
-6.26004e-08
-7.61171e-10
-9.36031e-07
-7.5886e-09
-9.35127e-07
-1.95238e-11
-6.2508e-08
-2.02884e-11
-9.21266e-12
-1.70514e-11
-1.28536e-10
-1.26362e-10
-1.59283e-11
3.02819e-11
-3.08753e-10
-3.29953e-11
0
-1.3108e-10
4.52979e-18
-9.52056e-17
4.11218e-09
-7.82672e-08
-7.80478e-10
-9.43418e-07
-4.64787e-09
-9.42879e-07
-1.67249e-11
-7.80018e-08
-1.79468e-11
-8.3122e-12
-1.75555e-11
-1.30735e-10
-1.11466e-10
-2.5021e-11
9.439e-13
-5.37356e-16
-1.16181e-11
0
-3.81e-16
7.08513e-18
-1.026e-16
7.92558e-09
-9.59211e-08
2.67166e-10
-9.45405e-07
-7.6078e-09
-9.44896e-07
-1.2226e-11
-9.55569e-08
-1.29078e-11
-7.94981e-12
-1.6695e-11
-1.19502e-10
-9.98733e-11
-2.08759e-11
-1.07831e-17
-5.55534e-16
-1.83759e-18
-1.29575e-18
-3.91472e-16
1.30406e-17
-1.17282e-16
4.84603e-09
-1.10324e-07
-1.58346e-10
-9.4883e-07
-4.743e-09
-9.48847e-07
-1.45006e-11
-1.09975e-07
-1.54341e-11
-7.32961e-12
-2.14906e-11
-1.06696e-10
-8.584e-11
-2.8093e-11
9.03115e-18
-5.54062e-16
-8.00503e-17
5.32374e-17
-1.5052e-15
1.09216e-16
-1.74245e-16
9.24709e-09
-1.28555e-07
2.14815e-10
-9.45502e-07
-9.24244e-09
-9.45188e-07
-1.21138e-11
-1.28375e-07
-1.31381e-11
-6.78678e-12
-1.69434e-11
-8.7923e-11
-7.71428e-11
-1.82832e-11
2.42657e-15
-2.90449e-14
-1.73338e-15
5.48992e-16
-7.27726e-15
5.88477e-16
-2.27553e-16
5.10991e-09
-1.38337e-07
-2.07787e-10
-9.39708e-07
-5.0893e-09
-9.39867e-07
-9.23648e-12
-1.38215e-07
-9.96698e-12
-6.40385e-12
-1.44042e-11
-6.95274e-11
-6.84662e-11
-1.47641e-11
1.46636e-14
-1.45977e-13
-6.08005e-14
1.62596e-15
-3.29219e-15
1.46125e-15
-9.92138e-17
9.55355e-09
-1.45793e-07
-2.65689e-10
-9.249e-07
-1.00675e-08
-9.24728e-07
-1.05371e-11
-1.45728e-07
-1.09914e-11
-5.81989e-12
-1.62684e-11
-5.33405e-11
-5.95556e-11
-1.40476e-11
0
-1.33048e-13
-1.38735e-13
8.25567e-16
-1.38999e-15
7.42211e-16
-4.48662e-17
3.27794e-09
-1.40952e-07
7.42339e-10
-9.14075e-07
-2.92824e-09
-9.14277e-07
-7.97532e-12
-1.41126e-07
-8.50564e-12
-5.24027e-12
-1.87152e-11
-3.64637e-11
-5.18619e-11
-1.29201e-11
1.80215e-15
-1.84269e-14
-9.8088e-14
4.88548e-16
-1.05396e-16
4.46067e-16
-2.26258e-18
1.35354e-08
-1.3936e-07
3.98834e-09
-8.95217e-07
-8.14061e-09
-8.96631e-07
-4.35099e-12
-1.39296e-07
-4.90403e-12
-4.93037e-12
-1.55951e-11
-1.88892e-11
-4.31688e-11
-1.03347e-11
1.27484e-16
-4.76848e-16
-2.47266e-14
2.40043e-17
-1.7934e-18
2.19082e-17
-1.55046e-19
5.1091e-09
-1.32421e-07
-1.76679e-09
-8.82075e-07
-8.44847e-09
-8.82185e-07
-2.69499e-12
-1.32581e-07
-3.14982e-12
-4.68009e-12
-7.77409e-12
-7.39843e-12
-1.44424e-11
-2.27819e-11
1.22025e-18
-1.62008e-19
-4.78002e-16
2.53386e-19
-7.90681e-19
2.43678e-19
-1.3605e-19
1.23624e-08
-1.3153e-07
-1.68228e-10
-8.62381e-07
-1.24734e-08
-8.62835e-07
-1.937e-12
-1.31715e-07
-2.21233e-12
-4.59734e-12
-1.78662e-13
-5.34785e-12
-5.93193e-12
-4.63571e-12
1.50896e-19
-3.42445e-19
-1.75824e-19
2.92501e-19
-5.60108e-19
2.8636e-19
-1.22188e-19
9.03986e-09
-1.34646e-07
-1.77441e-10
-8.5013e-07
-9.27248e-09
-8.50631e-07
-1.80882e-12
-1.34752e-07
-2.07137e-12
-4.51918e-12
0
-7.8354e-12
-6.33508e-12
-7.6445e-12
3.71045e-19
-9.3414e-20
-4.08973e-19
1.31349e-19
-2.72635e-19
1.29323e-19
-1.12379e-19
1.4899e-08
-1.57299e-07
9.58379e-11
-8.37596e-07
-1.48153e-08
-8.38124e-07
-6.48663e-12
-1.5714e-07
-7.10412e-12
-4.06332e-12
-1.94484e-12
-1.7821e-11
-8.29085e-12
-3.08999e-11
1.10118e-19
-6.30889e-20
-8.50322e-20
7.88029e-20
-1.84744e-19
8.24904e-20
-1.07681e-19
9.636e-09
-1.76201e-07
1.55973e-10
-8.31571e-07
-9.75931e-09
-8.31669e-07
-1.25037e-11
-1.76043e-07
-1.32663e-11
-3.45539e-12
-1.42257e-11
-2.14891e-11
-9.20311e-13
-4.51905e-11
9.00528e-20
-4.41508e-20
-4.72903e-20
7.04101e-20
-1.24887e-19
7.45222e-20
-1.03932e-19
1.65593e-08
-1.96464e-07
9.66878e-11
-8.16975e-07
-1.6408e-08
-8.1704e-07
-2.03881e-11
-1.96244e-07
-2.16532e-11
-2.33547e-12
-3.88035e-11
-1.00949e-11
1.81798e-11
-5.76271e-11
7.81066e-20
-2.77158e-20
-4.07304e-20
4.441e-20
-6.8884e-20
4.66717e-20
-9.91189e-20
9.78623e-09
-2.01016e-07
1.96316e-10
-8.0624e-07
-9.619e-09
-8.06121e-07
-1.69787e-11
-2.00865e-07
-1.77294e-11
-1.71036e-12
-2.66778e-11
1.18604e-12
2.81581e-11
-3.65699e-11
6.68717e-20
-1.67996e-20
-3.9094e-20
2.92292e-20
-2.61355e-20
9.88345e-20
-1.66284e-19
1.85912e-08
-2.09097e-07
8.40927e-11
-7.85065e-07
-1.83206e-08
-7.85144e-07
-2.0831e-11
-2.09084e-07
-2.18265e-11
-7.9554e-13
-3.99385e-11
1.23878e-11
3.1804e-11
-4.35035e-11
4.57875e-20
-7.33083e-21
-3.30433e-20
1.78107e-20
-4.90592e-22
1.46271e-18
-1.61223e-18
1.21262e-08
-2.12651e-07
-1.30457e-10
-7.70861e-07
-1.16878e-08
-7.71719e-07
-1.03514e-11
-2.12644e-07
-1.10942e-11
-6.71409e-14
-3.26292e-11
1.07408e-11
3.82307e-11
-3.89725e-11
2.63129e-20
-2.08106e-21
-2.38812e-20
2.59436e-20
-1.06047e-22
1.93819e-17
-2.09681e-17
2.26809e-08
-2.35114e-07
-7.49357e-10
-7.47202e-07
-2.27571e-08
-7.49472e-07
-8.16981e-13
-2.35346e-07
-8.76794e-13
-2.58982e-15
1.72542e-12
9.34555e-14
8.37765e-12
5.01999e-12
8.68036e-21
-2.27654e-22
-9.35334e-21
8.58953e-21
-1.98877e-23
2.5536e-16
-2.76319e-16
1.38494e-08
-2.58045e-07
-6.33532e-10
-7.34205e-07
-1.48921e-08
-7.36546e-07
-9.59952e-15
-2.58592e-07
-5.43815e-15
-4.33849e-15
5.49136e-13
-4.36643e-14
0
7.21015e-12
1.73838e-21
-8.67008e-24
-2.21941e-21
1.72301e-21
-6.77185e-24
3.43657e-15
-3.71289e-15
2.63482e-08
-2.92749e-07
1.29055e-09
-7.10495e-07
-2.69781e-08
-7.09578e-07
-4.6487e-14
-2.93291e-07
-4.97275e-14
-1.06832e-15
-7.85359e-14
-8.50729e-16
4.12198e-16
1.14318e-14
1.43765e-22
-5.85724e-26
-2.0075e-22
1.40019e-22
-5.33125e-24
4.67644e-14
-5.04773e-14
1.66387e-08
-3.08671e-07
2.83299e-09
-6.96767e-07
-1.60111e-08
-6.90912e-07
-1.27647e-14
-3.08575e-07
-1.8855e-17
-1.38284e-14
-8.69119e-16
-6.68824e-19
1.43822e-18
-4.68954e-16
5.29258e-24
-3.05843e-28
-6.51959e-24
7.77322e-24
-8.61901e-24
6.54564e-13
-7.05042e-13
3.15758e-08
-3.34185e-07
-2.57523e-09
-6.62297e-07
-3.01576e-08
-6.6313e-07
-1.76815e-13
-3.33135e-07
-3.38229e-18
-1.9064e-13
-3.54532e-18
-6.00935e-19
2.25942e-19
-2.53689e-18
2.65441e-25
-2.92971e-28
-2.71818e-25
1.30944e-21
-1.3178e-21
9.33403e-12
-1.00391e-11
1.14901e-08
-3.42067e-07
-8.91975e-09
-6.41826e-07
-2.45336e-08
-6.47449e-07
-2.51422e-12
-3.54382e-07
-8.79203e-19
-2.70486e-12
-9.76261e-19
-5.94829e-19
1.99089e-19
-1.04329e-18
1.22287e-25
-1.23e-27
-1.21023e-25
1.0206e-19
-1.03378e-19
1.35667e-10
-1.45706e-10
3.56859e-08
-3.77755e-07
2.04332e-08
-6.26511e-07
-1.67608e-08
-6.10272e-07
-3.67456e-11
-3.71808e-07
-8.85664e-19
-3.94505e-11
-9.1892e-19
-6.56711e-19
3.49157e-19
-6.5583e-19
2.00129e-25
-2.54617e-27
-1.99358e-25
7.03866e-18
-7.14204e-18
1.93987e-09
-2.08557e-09
8.56079e-08
-4.55665e-07
4.34909e-08
-5.84346e-07
2.58578e-08
-5.92619e-07
-4.2902e-10
-3.51916e-07
-1.68351e-18
-4.6847e-10
-2.73691e-19
-2.26924e-18
3.31219e-19
-4.53305e-19
4.81757e-25
4.31355e-28
-4.93389e-25
3.71244e-16
-3.78386e-16
1.02851e-08
-1.03743e-08
1.28091e-11
-4.42805e-07
-3.12663e-08
-5.52989e-07
-5.57775e-08
-5.6806e-07
-6.2944e-09
-4.12509e-07
-3.65364e-16
-6.76287e-09
-7.20926e-19
-3.66926e-16
3.62691e-21
-4.02891e-19
2.42633e-25
3.02935e-28
-2.45795e-25
1.87547e-14
-1.91331e-14
1.7772e-08
-2.94972e-08
1.5176e-08
-4.42309e-07
-1.75278e-08
-5.2036e-07
-6.54419e-08
-5.20063e-07
-2.73468e-08
-4.51934e-07
-2.01002e-14
-3.46734e-08
-1.82267e-19
-2.0467e-14
1.89812e-21
-1.84795e-19
7.05838e-27
4.96759e-28
-1.05533e-26
8.17785e-13
-8.36918e-13
1.8676e-08
-5.37613e-08
1.22224e-08
-4.41244e-07
-1.42135e-08
-4.9391e-07
-4.78463e-08
-4.86442e-07
-4.55599e-08
-4.49511e-07
-8.24096e-13
-7.53391e-08
-8.35453e-20
-8.44563e-13
3.19792e-22
-8.4344e-20
2.01747e-17
-2.01747e-17
-1.09635e-25
3.24105e-11
-3.32474e-11
4.65637e-08
-1.02419e-07
3.03844e-08
-4.24785e-07
-1.52231e-08
-4.4832e-07
-5.31525e-08
-4.48509e-07
-5.75658e-08
-4.44762e-07
-2.75477e-11
-1.29731e-07
-7.57475e-22
-2.83923e-11
1.03772e-22
-2.89223e-21
3.60338e-14
-3.6054e-14
-6.98877e-26
1.12516e-09
-1.15837e-09
7.86283e-08
-1.87422e-07
5.66337e-08
-4.04321e-07
1.80435e-08
-4.0973e-07
-2.15519e-08
-4.08913e-07
-6.83099e-08
-3.97277e-07
-8.97432e-10
-1.90077e-07
-4.33074e-16
-9.25823e-10
-4.33071e-16
-2.13467e-21
7.70067e-12
-7.73673e-12
-3.29907e-27
1.82698e-08
-1.94205e-08
8.40676e-08
-2.55522e-07
2.80514e-08
-3.48305e-07
-2.15133e-08
-3.60165e-07
-6.47746e-08
-3.65652e-07
-9.88986e-08
-3.63154e-07
-1.68179e-08
-2.69544e-07
-3.7429e-12
-1.77399e-08
-3.74334e-12
-1.64666e-23
8.48989e-10
-8.56725e-10
-2.79518e-25
6.94285e-08
-8.98555e-08
1.05531e-07
-2.92753e-07
7.08016e-08
-3.13576e-07
2.73228e-08
-3.16687e-07
-2.35215e-08
-3.14808e-07
-7.90799e-08
-3.07595e-07
-5.60223e-08
-2.91755e-07
-6.40966e-10
-7.16185e-08
-6.44709e-10
-3.02828e-25
3.02187e-08
-3.10754e-08
-1.13948e-26
1.31408e-07
-1.91738e-07
8.49479e-08
-2.46293e-07
2.87445e-08
-2.57372e-07
-2.31617e-08
-2.64781e-07
-7.00083e-08
-2.67961e-07
-1.10636e-07
-2.66968e-07
-1.48259e-07
-2.54056e-07
-2.91272e-08
-1.90206e-07
-2.97719e-08
-4.13398e-26
9.49325e-08
-2.44125e-24
9.87532e-08
7.21907e-08
4.65392e-08
1.67455e-08
-1.72455e-08
-5.63483e-08