/*--------------------------------*- C++ -*----------------------------------*\
  =========                 |
  \\      /  F ield         | OpenFOAM: The Open Source CFD Toolbox
   \\    /   O peration     | Website:  https://openfoam.org
    \\  /    A nd           | Version:  8
     \\/     M anipulation  |
\*---------------------------------------------------------------------------*/
FoamFile
{
    version     2.0;
    format      ascii;
    class       volScalarField;
    location    "0.95";
    object      p;
}
// * * * * * * * * * * * * * * * * * * * * * * * * * * * * * * * * * * * * * //

dimensions      [1 -1 -2 0 0 0 0];

internalField   nonuniform List<scalar> 
9150
(
-204.758
-205.736
-206.308
-206.809
-207.049
-207.048
-206.805
-206.307
-205.738
-204.758
-224.772
-225.298
-225.696
-226.028
-226.19
-226.185
-226.03
-225.697
-225.3
-224.772
-244.663
-244.96
-245.197
-245.413
-245.535
-245.532
-245.413
-245.196
-244.96
-244.663
-264.403
-264.586
-264.752
-264.91
-264.985
-264.987
-264.912
-264.754
-264.587
-264.403
-284.017
-284.212
-284.341
-284.476
-284.546
-284.548
-284.478
-284.343
-284.213
-284.018
-118.218
-119.413
-119.451
-118.877
-118.773
-118.776
-118.864
-119.453
-119.402
-118.206
-134.171
-134.858
-135.171
-135.244
-135.162
-135.151
-135.221
-135.135
-134.828
-134.15
-150.761
-151.497
-151.826
-152.149
-152.208
-152.201
-152.152
-151.826
-151.502
-150.764
-167.673
-168.748
-169.141
-169.798
-169.943
-169.945
-169.791
-169.139
-168.75
-167.677
-184.411
-186.576
-187.302
-188.073
-188.311
-188.313
-188.069
-187.301
-186.573
-184.408
-24.9975
-26.4828
-28.1551
-29.1549
-29.7571
-29.8605
-29.4532
-28.4753
-26.4587
-24.8006
-45.631
-45.7506
-46.7128
-46.978
-47.3278
-47.2822
-46.8319
-46.5014
-45.5734
-45.4686
-65.2799
-65.2469
-66.1709
-65.784
-66.2479
-66.2483
-65.8339
-66.1699
-65.2107
-65.2376
-87.977
-85.4413
-86.5329
-84.9687
-85.2648
-85.2546
-84.9338
-86.4963
-85.4161
-87.9315
-115.437
-104.713
-104.659
-102.746
-102.566
-102.545
-102.745
-104.622
-104.688
-115.398
149.585
219.996
364.274
551.789
682.994
678.665
549.228
446.974
377.983
331.288
70.8731
98.5802
155.937
209.95
286.516
342.32
303.612
281.544
259.422
235.939
92.099
103.005
118.282
130.186
160.341
185.856
193.299
189.476
195.769
187.987
68.8286
59.7865
92.1083
82.3365
91.5004
119.011
151.493
149.986
146.438
138.644
60.5628
55.6574
59.2048
58.7177
67.2246
91.1926
118.153
120.567
118.473
117.16
55.0474
54.0015
55.4272
60.1305
63.8336
78.2073
92.5955
95.8874
97.914
97.137
54.7031
53.5538
54.948
59.6779
59.9161
73.1264
86.0461
89.1344
89.7459
87.3605
55.2567
54.8036
60.2484
64.7379
65.9534
71.4392
81.5522
84.2603
84.0222
86.8721
55.0854
54.9445
81.0507
74.9528
66.6866
65.4666
64.5671
69.8534
64.8887
73.2773
52.6933
73.1432
67.3599
88.8414
63.931
53.9057
45.5855
52.5889
47.2508
48.6573
47.8499
53.3455
47.3648
86.88
50.3707
42.3263
29.3861
37.6858
32.7643
42.2437
51.1779
50.992
66.8572
80.4353
45.099
25.3537
2.21689
20.2993
2.61615
-0.145265
33.5437
47.6961
45.3224
58.3541
33.1677
20.1926
9.95721
10.9315
3.08735
4.40315
2.94857
34.1429
3.04782
11.0213
11.402
1.39618
7.39359
5.04729
5.38579
5.19323
0.378602
8.26418
0.499334
5.91299
21.6552
26.514
5.28581
4.69408
4.92864
4.80746
0.954696
0.471512
0.809652
3.38414
20.0726
25.4448
4.06432
3.95104
3.9131
3.78303
0.788499
0.705343
0.719653
0.757948
27.2296
16.4319
3.27888
3.22983
3.25738
3.20443
0.561361
0.535044
0.478661
0.23548
33.3273
9.38835
3.08937
3.03891
3.04469
2.9936
0.423001
0.464119
0.502498
0.319836
28.6853
13.8728
2.62288
2.56543
2.53733
2.45132
0.332326
0.371862
0.453257
0.322405
16.1389
25.5175
1.82684
1.93797
1.94215
1.84626
0.184368
0.223053
0.251973
0.267363
14.226
27.7668
1.46686
1.58304
1.55264
1.49667
0.139669
0.164984
0.174697
0.196973
21.2497
22.0232
1.51725
1.45637
1.38853
1.32815
0.18534
0.209102
0.224989
0.231815
18.6885
18.6659
1.3973
1.34361
1.28379
1.17796
0.218312
0.239991
0.273692
0.304836
10.9464
11.5078
1.21203
1.22322
1.08706
1.03694
0.26953
0.278422
0.290856
0.428154
8.86568
9.82321
1.06211
1.07381
0.943438
0.91519
0.31795
0.346868
0.447676
0.616725
17.8271
20.6511
0.840428
0.80465
0.738929
0.698494
0.245667
0.473839
0.481064
0.949365
26.168
28.2228
0.590464
0.536501
0.505003
0.475199
0.351503
0.371681
0.501817
0.671984
26.2381
26.9678
0.371932
0.341843
0.353497
0.352689
0.196376
0.243663
0.49564
0.171911
3.12161
47.2185
0.0524191
0.18863
0.22972
0.25744
0.0808144
0.10871
0.179776
0.0357022
23.2553
26.7368
0.172199
0.201363
0.181672
0.218724
-0.0109708
-0.00525233
0.0996127
0.193045
13.6834
35.52
0.034585
0.129405
0.15818
0.163162
-0.0870452
-0.0717625
-0.067604
-0.113543
32.2731
16.3753
0.152184
0.113271
0.10618
0.100241
-0.170403
-0.160085
-0.163148
-0.185838
26.92
21.1984
0.0630486
0.046927
0.0289027
0.0243046
-0.249508
-0.244937
-0.250278
-0.240401
23.2632
24.4811
-0.047095
-0.0367982
-0.046927
-0.051879
-0.328272
-0.319986
-0.362048
-0.373578
25.5608
21.8675
-0.100958
-0.104161
-0.10876
-0.113348
-0.470753
-0.395737
-0.468045
-0.501756
30.3277
17.2798
-0.137764
-0.155418
-0.160395
-0.165533
-0.625288
-0.683329
-0.596657
-0.712103
39.804
7.95596
-0.135928
-0.191403
-0.198492
-0.20603
-0.705331
-0.747168
-0.561817
-0.772445
33.8518
14.6934
-0.228413
-0.245691
-0.250766
-0.253778
-0.757636
-0.789464
-0.584758
-0.586503
24.2007
25.1308
-0.293335
-0.291467
-0.291994
-0.292928
-0.779154
-0.783626
-0.600569
-0.567085
22.5369
22.3021
-0.318311
-0.32137
-0.32411
-0.326107
-0.801358
-0.797438
-0.638536
-0.604367
17.8726
18.8813
-0.350316
-0.350124
-0.351594
-0.35331
-0.839682
-0.698994
-0.683673
-0.635524
15.9024
16.0974
-0.370465
-0.371263
-0.372856
-0.374885
-0.81847
-0.627761
-0.680812
-0.629683
15.398
15.8302
-0.381256
-0.384128
-0.383859
-0.391917
-0.774544
-0.723651
-0.71113
-0.67007
15.3139
15.539
-0.389324
-0.393092
-0.394015
-0.404252
-0.764756
-0.763357
-0.750766
-0.748463
14.6623
14.7308
-0.396506
-0.399839
-0.402623
-0.414219
-0.82805
-0.825113
-0.817932
-0.822034
16.1095
17.0174
-0.408426
-0.410286
-0.412655
-0.426897
-0.891946
-0.890304
-0.887384
-0.876709
22.0653
23.04
-0.421355
-0.427407
-0.43116
-0.443745
-0.952659
-0.948056
-0.944195
-0.938679
26.8371
26.5554
-0.457027
-0.46371
-0.466993
-0.471627
-1.02286
-1.01829
-0.997134
-1.03086
27.8038
27.4508
-0.50469
-0.510492
-0.510267
-0.510394
-1.13142
-1.12892
-1.05717
-1.09271
24.9141
29.0457
-0.581525
-0.569148
-0.567289
-0.560652
-1.23317
-1.20711
-1.08956
-0.968531
5.96991
46.7524
-0.78897
-0.644932
-0.632659
-0.614349
-1.36487
-1.33242
-1.35051
-1.47023
44.1557
7.03305
-0.448132
-0.578151
-0.642722
-0.660913
-1.46361
-1.44907
-1.4848
-1.59253
41.1396
10.0909
-0.554106
-0.669376
-0.707811
-0.742937
-1.48999
-1.4849
-1.47776
-1.40644
18.7776
32.5329
-0.916716
-0.859779
-0.84955
-0.859994
-1.53053
-1.5296
-1.5372
-1.53435
25.4291
26.2414
-0.953798
-0.946924
-0.945404
-0.947973
-1.56838
-1.56793
-1.57015
-1.57599
25.4793
25.4061
-1.01985
-1.01249
-1.01579
-1.02071
-1.59055
-1.59066
-1.59149
-1.5956
25.2242
24.5608
-1.05941
-1.05612
-1.0673
-1.07301
-1.60346
-1.60335
-1.60365
-1.60272
24.5021
24.7387
-1.09601
-1.09323
-1.1013
-1.1094
-1.60961
-1.60913
-1.60876
-1.60882
24.4005
24.6902
-1.11312
-1.11047
-1.11778
-1.12735
-1.61249
-1.61193
-1.61251
-1.6158
25.3544
23.6649
-1.10317
-1.10594
-1.11242
-1.12257
-1.61456
-1.615
-1.61759
-1.62558
26.8957
21.9418
-1.07275
-1.08508
-1.09149
-1.10368
-1.61216
-1.61299
-1.61716
-1.63357
27.4646
21.0611
-1.02895
-1.04787
-1.06262
-1.07436
-1.60109
-1.59925
-1.59932
-1.59763
24.4241
24.6329
-1.01902
-1.01783
-1.03029
-1.03529
-1.59053
-1.58364
-1.5734
-1.57799
25.4606
24.878
-0.998997
-0.999059
-1.01138
-1.0145
-1.56877
-1.57605
-1.53044
-1.53849
26.0843
25.858
-0.995894
-0.994378
-1.00878
-1.0104
-1.56895
-1.57399
-1.50436
-1.52268
26.3641
26.1363
-0.999709
-0.999105
-1.01654
-1.01678
-1.56363
-1.58184
-1.51333
-1.54132
26.2424
26.5683
-1.01985
-1.01823
-1.03955
-1.03722
-1.57031
-1.5665
-1.55077
-1.55748
26.2153
26.2319
-1.05421
-1.05147
-1.07347
-1.07107
-1.57949
-1.57831
-1.57966
-1.58072
26.3341
26.1874
-1.08829
-1.08626
-1.10767
-1.10545
-1.57332
-1.57565
-1.57903
-1.57763
26.1212
26.0026
-1.1297
-1.12967
-1.14786
-1.14607
-1.56695
-1.56759
-1.56837
-1.55849
25.8301
26.1001
-1.16867
-1.17643
-1.19192
-1.19072
-1.56216
-1.56071
-1.55951
-1.54655
25.5104
25.7779
-1.20934
-1.22219
-1.23503
-1.23385
-1.56101
-1.55715
-1.55383
-1.53972
23.8652
27.0364
-1.26964
-1.27236
-1.28046
-1.27666
-1.56709
-1.56088
-1.55064
-1.50602
18.4487
32.5048
-1.37019
-1.32867
-1.32575
-1.31709
-1.5841
-1.58377
-1.58661
-1.61017
28.0455
22.7553
-1.3234
-1.33844
-1.34487
-1.3485
-1.59768
-1.59642
-1.59605
-1.61071
25.2301
25.558
-1.39813
-1.37909
-1.38005
-1.38399
-1.61142
-1.61002
-1.60835
-1.64022
25.1583
25.4061
-1.43401
-1.40229
-1.40445
-1.41194
-1.62593
-1.62476
-1.62311
-1.6539
25.0035
25.018
-1.4413
-1.41279
-1.42024
-1.42999
-1.64105
-1.64051
-1.63914
-1.63992
24.8327
24.7923
-1.42002
-1.41946
-1.43445
-1.4472
-1.65628
-1.65623
-1.65632
-1.63383
24.2486
24.3713
-1.41579
-1.43646
-1.45817
-1.45928
-1.67086
-1.67087
-1.67151
-1.65609
23.9391
23.9823
-1.44784
-1.46123
-1.48366
-1.48306
-1.68499
-1.68479
-1.68556
-1.69097
23.39
23.5154
-1.4975
-1.48828
-1.51295
-1.51435
-1.69891
-1.69835
-1.69823
-1.74634
22.8636
22.9454
-1.56484
-1.51566
-1.53402
-1.54417
-1.71352
-1.71297
-1.71324
-1.78762
22.3263
22.1193
-1.62654
-1.55364
-1.55208
-1.57241
-1.72847
-1.72805
-1.72837
-1.77485
21.178
21.2499
-1.63919
-1.5945
-1.59268
-1.6005
-1.74399
-1.74378
-1.74504
-1.741
19.8706
19.9587
-1.62171
-1.62661
-1.62504
-1.62662
-1.75919
-1.7588
-1.76029
-1.74471
18.4851
17.8708
-1.63661
-1.64963
-1.64777
-1.648
-1.77447
-1.77412
-1.77665
-1.79344
16.5734
16.2496
-1.69108
-1.66993
-1.66774
-1.66809
-1.78952
-1.78907
-1.79079
-1.92588
12.6326
15.6789
-1.65768
-1.68934
-1.6864
-1.68753
-1.8048
-1.80493
-1.80481
-2.06258
10.0976
16.9072
-1.56714
-1.71139
-1.70663
-1.70785
-1.82059
-1.82265
-1.83542
-1.90917
12.04
7.98856
-2.08874
-1.73041
-1.73024
-1.73066
-1.82966
-1.83568
-1.80482
-1.66166
8.18226
3.49129
-2.74474
-1.75305
-1.75565
-1.75585
-1.85403
-1.85081
-1.8868
-2.2862
5.0801
3.54745
-2.25012
-1.77964
-1.7789
-1.78158
-1.86385
-1.86256
-1.93821
-1.80598
2.25851
2.90619
-1.88998
-1.8779
-1.80829
-1.80804
-1.88281
-1.88351
-2.09434
-1.74237
0.554799
1.67596
-1.62145
-1.93043
-1.82856
-1.82731
-1.89854
-1.90133
-2.351
-1.25676
-0.323169
0.0882527
-1.18758
-2.26338
-1.85118
-1.84965
-1.91365
-1.9023
-3.29353
-1.46136
-0.742535
-1.02571
-2.21571
-3.3837
-1.86472
-1.87115
-1.93159
-2.54442
-4.69173
-3.50524
-2.4926
-1.88673
-2.05422
-4.2123
-2.46731
-1.89749
-1.93435
-3.85231
-4.95865
-4.98812
-5.38443
-5.60529
-5.78679
-6.03132
-4.20972
-1.91853
-2.82368
-9.60169
-12.7937
-14.5597
-15.139
-15.0342
-14.1595
-12.1792
-9.03969
-2.66754
298.89
272.236
243.686
207.126
168.774
131.344
99.5827
67.0044
28.537
-2.87967
-11.166
0.311251
27.2735
72.9578
125.137
158.844
171.722
171.666
148.144
112.184
88.7145
78.5524
67.2991
50.0451
36.0231
30.22
35.9502
40.1953
32.5017
29.8507
46.3014
70.5623
107.03
142.991
179.497
226.635
281.446
334.974
380.68
406.562
214.006
204.112
193.986
167.56
129.255
90.1807
53.1763
13.9507
-28.0084
-63.608
-80.2171
-83.0419
-68.4529
-19.8388
47.2716
109.692
164.797
185.424
161.12
101.655
52.4865
31.3609
28.1734
20.9497
20.8018
20.1381
19.9842
20.0496
20.1431
21.1136
22.2386
29.7628
36.0947
66.0198
108.899
164.432
218.232
274.079
312.948
340.684
167.072
154.74
144.82
124.916
90.131
48.553
11.3205
-25.7808
-54.2568
-73.4224
-86.8814
-90.9678
-78.7914
-30.1637
33.0316
90.3984
131.163
148.297
114.997
51.7443
28.7312
21.7917
19.2727
19.5271
19.8417
19.8969
19.9574
20.1119
20.2825
20.504
20.9551
21.1585
20.2769
21.9794
38.1249
79.4114
140.22
182.406
207.619
221.313
131.288
128.243
116.024
95.5072
61.0828
14.0352
-13.3367
-41.3165
-62.5769
-78.5151
-91.6539
-99.2391
-79.1418
-35.6542
16.2681
59.5773
93.8438
105.705
68.3084
28.3082
21.9757
19.5646
19.2282
19.3473
19.3926
19.4378
19.4643
19.615
19.888
20.088
20.7266
21.467
22.1521
23.1954
24.1457
29.6295
66.4997
93.7246
114.342
125.852
110.242
100.297
85.6558
81.259
46.0418
17.6066
-8.25203
-33.2565
-50.398
-54.5821
-60.4122
-45.1896
-14.2424
16.4768
48.2683
65.6567
75.0671
67.0897
44.1467
21.3573
20.1678
19.4079
19.0767
19.0434
19.1142
19.1678
19.1985
19.2566
19.5211
19.8057
20.0696
20.3687
21.3573
23.1093
24.9342
26.8314
49.8182
67.4636
77.0087
82.0976
92.9085
88.9237
69.126
71.6396
44.7861
35.5306
14.8311
4.68911
-7.84891
-7.56661
12.8175
36.4884
59.6333
80.939
101.438
99.0808
72.5532
53.8816
33.2213
20.2197
18.6978
18.9381
18.9659
18.9757
18.9101
18.8858
18.8731
18.7925
18.6322
18.5981
18.3962
18.1339
24.1366
29.2545
34.4692
32.4875
34.4829
49.8899
61.6382
62.2596
81.5876
87.1288
74.3972
75.1898
63.4817
55.4316
52.7522
56.0967
69.6877
88.6477
87.2258
81.4534
85.9337
102.35
102.341
85.6904
59.6476
32.7581
19.3243
17.4748
17.4533
17.871
18.2128
18.407
18.4894
18.4723
18.4839
18.3888
18.0745
17.5571
18.2931
28.9743
27.8164
30.5285
36.471
40.6508
33.0755
35.1428
44.1129
45.2097
88.6776
92.4179
95.757
79.7703
73.3935
57.4085
63.6803
75.8915
88.2067
96.2712
93.8747
93.6034
88.7421
85.0292
75.434
56.835
31.9367
18.926
17.608
17.5132
17.6121
17.9309
18.1002
18.0943
18.1591
18.1955
18.2043
18.1004
18.2368
21.4676
26.5418
32.9612
25.1568
22.6056
23.6194
20.682
32.5671
25.8872
29.3321
32.4574
76.5592
82.4994
97.9087
82.8468
81.8797
83.6947
82.2045
86.8514
99.7006
90.9328
97.2119
101.798
86.4599
67.4995
46.2878
25.0559
17.4137
17.6404
17.6247
17.6723
17.7791
17.9172
18.0127
18.0603
18.0707
18.0651
18.0595
18.0275
18.1861
25.0315
27.6185
28.8341
26.2591
24.2441
23.7669
24.7828
22.3418
32.0048
26.9905
33.4108
40.3679
53.1917
68.8919
79.8074
108.087
94.551
91.2824
89.4374
94.0758
95.7001
94.9229
89.6761
70.8038
42.4095
17.9158
17.5254
17.5807
17.5401
17.6621
17.7973
17.935
18.0494
18.1069
18.1176
18.0716
18.0057
17.9463
17.9025
18.0198
21.6228
24.6515
25.5697
25.9666
27.1731
28.7669
29.6282
29.5542
36.3423
31.4594
34.5222
34.6213
37.4359
33.558
53.7163
61.4873
48.2633
60.3788
64.2101
69.3644
70.1131
67.0211
61.964
44.1706
14.0132
16.8272
16.9128
17.1621
17.418
17.7446
17.818
17.9272
18.0381
18.0417
17.9546
17.9123
17.8883
17.8527
17.8003
17.7227
17.9887
20.1666
23.1506
25.2448
26.6742
27.9077
29.519
31.5763
33.7144
34.2021
33.831
20.2972
1.77892
11.1911
10.1026
2.42958
3.55056
6.07135
12.8349
25.2255
32.744
33.6622
30.2113
21.8049
14.4655
16.2844
16.3031
16.2871
17.3853
31.8537
24.6955
15.3644
16.1648
18.3278
17.6494
17.6494
17.7097
17.6867
17.6699
17.6667
17.677
17.8102
19.9722
21.811
23.3755
23.5774
25.2672
27.2009
28.7182
29.0303
29.6808
5.17214
13.4572
25.2655
2.66512
3.29172
3.30837
3.62726
4.34558
3.73688
8.76151
13.5076
13.2923
6.09258
-3.55674
14.0206
11.9321
17.1945
22.5688
22.4343
22.2358
19.2837
20.8285
22.4923
18.1836
17.7445
17.541
17.5646
17.5856
17.6266
17.6622
17.6963
17.7202
17.8505
18.1902
17.4971
17.8674
20.5673
22.3259
22.6083
23.7301
4.32343
5.91712
5.50413
2.16071
2.24529
2.44996
2.59229
2.81703
2.69581
1.53435
4.46791
7.57528
7.07487
6.27934
6.58961
5.97241
3.82767
10.7923
14.0587
15.0343
15.6413
16.9052
17.9868
17.3604
18.4002
17.3894
17.5039
17.5576
17.6103
17.6524
17.6769
17.6936
17.7099
17.7308
17.611
16.3482
17.4962
17.4018
18.5917
18.3996
3.74099
2.53863
2.38088
2.29135
2.44623
2.55346
2.6561
2.77787
2.92802
2.18241
3.35718
11.2011
4.74842
4.96987
5.1825
5.15419
5.05862
5.29324
5.41629
8.5616
10.2313
11.4615
12.8235
14.2089
15.7637
17.585
17.5815
17.6071
17.6176
17.6969
17.7258
17.7304
17.7384
17.7434
17.7388
17.7584
17.7529
14.7447
16.7927
16.1255
3.43653
3.06347
2.90253
2.81771
2.77779
2.79979
2.93689
3.2469
3.7848
4.82106
5.06067
21.2857
4.73266
5.08172
5.18384
5.21262
5.22308
5.25474
5.29508
5.21092
4.14682
6.44485
8.68059
10.6786
12.8219
14.7726
17.2558
17.6867
17.7244
17.7511
17.7731
17.7812
17.7778
17.7834
17.7741
17.8132
17.8107
15.2267
14.9935
14.6609
3.11412
3.14582
3.26134
3.27242
3.25429
3.30669
3.43814
3.97057
6.08485
8.41043
7.94217
29.4334
5.26538
5.16621
5.22826
5.26036
5.26152
5.27826
5.29428
5.28855
5.14483
3.30595
5.59354
7.86598
9.99632
11.6816
15.7873
17.7456
17.7726
17.796
17.8189
17.8341
17.8374
17.836
17.8235
17.8233
17.8366
14.7175
12.9864
13.7854
2.99251
3.14635
3.37761
3.41696
2.98778
2.90928
3.40149
3.34138
4.34146
5.03016
4.25278
16.9926
6.13823
5.26661
5.28047
5.30366
5.3208
5.3274
5.32741
5.32427
5.27279
3.83481
3.89621
6.32911
8.09935
9.91182
10.6959
11.7508
17.2286
17.81
17.8168
17.8529
17.8753
17.8518
17.8185
17.8115
17.2019
11.2263
12.3272
14.417
2.39734
2.63064
2.72876
1.72801
1.74728
1.66105
1.4307
1.59441
2.09751
2.21167
2.0906
14.1287
5.01683
5.35991
5.35043
5.35654
5.35984
5.3552
5.34688
5.32601
5.23106
4.65277
5.26678
8.42983
10.8704
11.3172
11.8322
12.4765
11.8812
9.21201
15.0428
16.5022
17.1698
16.9247
16.5068
11.4482
9.94359
12.2723
15.7636
18.4138
1.67766
1.79632
1.73135
1.44995
1.45457
1.40365
1.33014
1.33247
1.37541
1.35127
1.25063
12.4768
4.11397
5.39621
5.4053
5.38613
5.37809
5.37875
5.37236
5.32151
5.26667
5.57056
8.3077
8.64638
9.38452
9.59823
10.4435
12.1786
13.558
14.5017
12.2037
9.83774
9.17276
6.49534
8.19515
12.4994
16.814
19.8098
22.5059
25.6145
1.39083
1.45284
1.38253
1.28547
1.2577
1.20494
1.15133
1.11215
1.09302
0.986692
1.1749
9.58628
5.02157
5.47268
5.40271
5.38224
5.36916
5.35758
5.35105
5.34018
5.32084
5.36178
5.91537
10.352
15.3537
10.7154
10.7775
12.1056
13.3317
14.4549
15.3023
15.6472
16.3117
17.1334
17.234
18.0728
19.5274
21.3983
21.59
23.6158
1.245
1.21894
1.23601
1.09672
1.04305
0.970391
0.908335
0.863236
0.822041
0.761351
1.1025
5.13127
9.13718
4.91465
5.31763
5.32521
5.3219
5.31575
5.31788
5.32618
5.34231
5.40044
5.46107
5.36503
5.14635
5.33822
5.75446
8.24244
10.9057
13.5242
14.211
13.6948
13.7932
15.2971
16.3475
16.1378
15.7696
16.4899
15.908
16.1937
1.11701
1.01939
1.11574
0.913999
0.827831
0.753851
0.676973
0.620925
0.568683
0.488634
0.474182
1.19529
6.37236
5.86457
5.21535
5.34648
5.29515
5.2849
5.28788
5.30083
5.33212
5.3701
5.39022
5.42918
5.52945
5.64771
5.73775
5.88443
6.09147
6.44086
7.04361
7.54024
8.11088
9.16862
10.1998
11.0829
11.3959
11.9788
12.3877
11.9752
0.946321
0.899361
0.79889
0.848327
0.623261
0.552738
0.467346
0.410679
0.350284
0.282331
0.19699
0.224314
2.60109
7.21522
5.30881
5.1482
5.17448
5.19552
5.22917
5.27816
5.31946
5.35942
5.41557
5.50897
5.60048
5.6647
5.72211
5.82457
6.00329
6.23778
6.96365
8.23282
9.87396
11.3587
12.4504
13.0419
13.3012
13.3596
13.3636
13.3962
0.780427
0.737485
0.650569
0.764982
0.43209
0.343107
0.234804
0.129897
0.0294806
-0.13345
-0.260253
-0.365333
-0.183913
2.29531
6.0588
4.42314
4.38457
4.62895
5.10423
5.14395
5.02673
5.12085
5.37873
5.53533
5.53448
5.24275
4.13708
2.59373
1.54262
1.45904
2.10051
3.7286
6.09336
9.10623
12.0027
13.2266
13.372
13.3845
13.3953
13.4274
0.629983
0.539117
0.484567
0.556871
0.313317
0.178724
0.0625036
-0.122168
-0.264307
-0.456651
-0.591712
-0.694149
-0.802763
-0.695334
0.0125744
3.48474
6.40421
2.05837
6.14277
-0.909146
7.66937
6.62407
2.76428
1.21568
0.965617
-0.00211344
0.246381
2.0292
2.70223
2.96369
3.79664
5.41741
7.40896
9.61706
10.6091
10.8011
11.3362
11.2617
11.1755
12.9677
0.435201
0.397285
0.3556
0.421704
0.206198
0.0755257
-0.0265778
-0.152747
-0.307797
-0.474705
-0.644226
-0.692437
-0.530135
-0.411013
-0.44966
-0.510278
-0.511917
-0.0890661
0.25147
4.80911
11.0535
17.9027
21.6255
19.7256
18.5372
15.9914
13.1844
9.87277
6.99574
4.97883
4.84437
6.63139
9.18067
11.7129
14.5558
17.7626
16.9548
11.1512
11.6647
11.4899
0.347476
0.325991
0.286129
0.273737
0.195771
0.0445709
-0.0278789
-0.105203
-0.18169
-0.264331
-0.374727
-0.463568
-0.534912
-0.58957
-0.49425
-0.469965
-0.48866
-0.531427
-0.576022
-0.57397
-0.517033
-0.436391
-0.294971
-0.173374
0.390548
1.9508
2.50156
0.0856659
-1.10954
-1.38113
-1.13448
0.755067
4.3576
8.94287
12.5275
15.0294
10.67
7.49903
7.26709
7.81439
0.275966
0.265473
0.234041
0.165457
0.149445
0.055902
-0.0274783
-0.0938211
-0.15663
-0.212796
-0.273358
-0.364705
-0.43405
-0.474256
-0.519835
-0.582132
-0.581988
-0.565064
-0.556262
-0.524955
-0.488398
-0.456032
-0.414748
-0.405998
-0.417314
-0.419232
-0.414549
-0.37746
-0.0331731
0.618058
4.60753
6.57894
6.07979
7.24731
6.16992
3.9477
3.63518
3.03693
3.69743
4.02704
0.228192
0.23058
0.21172
0.162587
0.0745548
0.00622782
-0.0652187
-0.127947
-0.190195
-0.243414
-0.28593
-0.338577
-0.395609
-0.428263
-0.464366
-0.499174
-0.439748
-0.443506
-0.469846
-0.475156
-0.439983
-0.410289
-0.378047
-0.357919
-0.350615
-0.338911
-0.315088
-0.271852
-0.227213
-0.251422
-0.255976
-0.237823
-0.207859
-0.179679
-0.346396
-0.462084
-0.479654
0.137132
1.94106
3.30326
0.19261
0.195479
0.174722
0.136283
0.0722247
-0.0200345
-0.108144
-0.188129
-0.260268
-0.316471
-0.350243
-0.371176
-0.392899
-0.402893
-0.415329
-0.380857
-0.380093
-0.347137
-0.335441
-0.337091
-0.337117
-0.32638
-0.313724
-0.305381
-0.30199
-0.296582
-0.289556
-0.281976
-0.27813
-0.278357
-0.257976
-0.238154
-0.228327
-0.227417
-0.216479
-0.136379
-0.0581012
1.20766
3.58642
0.792308
0.0996305
0.108751
0.153792
0.173496
-0.0129648
-0.126005
-0.190969
-0.270455
-0.339704
-0.38529
-0.412123
-0.41996
-0.416331
-0.399596
-0.394695
-0.296963
-0.323795
-0.298041
-0.269432
-0.248299
-0.251875
-0.270179
-0.268564
-0.268532
-0.270295
-0.272447
-0.276452
-0.279963
-0.281225
-0.28106
-0.275899
-0.269933
-0.269315
-0.28091
-0.301577
-0.319573
-0.356476
-0.37833
-0.379983
-0.374453
0.0118938
-0.00397998
-0.0210494
0.00438475
-0.0508996
-0.087174
-0.222091
-0.355237
-0.395668
-0.425946
-0.443203
-0.448216
-0.446905
-0.395531
-0.377477
-0.325429
-0.323006
-0.289654
-0.252964
-0.229148
-0.226048
-0.237511
-0.246752
-0.25183
-0.258852
-0.26926
-0.281242
-0.291895
-0.29761
-0.297306
-0.301362
-0.301523
-0.303806
-0.310157
-0.321425
-0.335846
-0.358718
-0.370688
-0.369351
-0.367298
-0.0645664
-0.0790123
-0.0966761
-0.120923
-0.138524
-0.162738
-0.178254
-0.227205
-0.367776
-0.426195
-0.420933
-0.418067
-0.396148
-0.373159
-0.359476
-0.343985
-0.308798
-0.280673
-0.290983
-0.25532
-0.245322
-0.251905
-0.255411
-0.262032
-0.273303
-0.288102
-0.303126
-0.316577
-0.325382
-0.318547
-0.324673
-0.335696
-0.335635
-0.338165
-0.342918
-0.348812
-0.356427
-0.3674
-0.369887
-0.370306
-0.118775
-0.123906
-0.129677
-0.148384
-0.177838
-0.199375
-0.209847
-0.197045
-0.231056
-0.269718
-0.317984
-0.374619
-0.384032
-0.366433
-0.344568
-0.334209
-0.301941
-0.287983
-0.284526
-0.296668
-0.263625
-0.293264
-0.28674
-0.294172
-0.306388
-0.322094
-0.338931
-0.35374
-0.364405
-0.366711
-0.363673
-0.361992
-0.365472
-0.365312
-0.366723
-0.366187
-0.36749
-0.368834
-0.371
-0.371922
-0.16746
-0.173116
-0.1583
-0.184103
-0.219042
-0.234675
-0.253684
-0.270233
-0.285547
-0.310611
-0.328406
-0.341183
-0.265798
-0.233474
-0.263989
-0.237296
-0.23338
-0.278418
-0.33799
-0.334874
-0.335906
-0.329144
-0.330369
-0.336759
-0.348781
-0.365262
-0.382634
-0.397244
-0.406665
-0.411737
-0.412962
-0.405889
-0.396658
-0.389986
-0.384095
-0.378545
-0.376061
-0.37504
-0.374328
-0.373764
-0.211333
-0.209942
-0.210605
-0.224309
-0.252464
-0.266015
-0.277032
-0.290042
-0.304785
-0.316547
-0.335098
-0.351348
-0.36038
-0.375061
-0.34375
-0.296944
-0.304392
-0.340538
-0.378488
-0.414525
-0.388294
-0.379371
-0.380504
-0.392394
-0.404973
-0.422203
-0.439571
-0.45317
-0.460911
-0.461191
-0.454522
-0.444455
-0.430473
-0.411999
-0.396742
-0.387501
-0.381222
-0.377667
-0.374568
-0.372623
-0.257265
-0.261565
-0.264812
-0.270293
-0.278509
-0.294489
-0.300759
-0.309059
-0.320784
-0.346749
-0.357914
-0.377466
-0.379897
-0.382584
-0.398096
-0.433112
-0.412228
-0.433716
-0.512037
-0.509505
-0.459825
-0.446456
-0.440228
-0.450722
-0.463741
-0.480203
-0.495471
-0.506069
-0.509756
-0.503071
-0.48844
-0.471115
-0.452573
-0.429513
-0.402202
-0.391287
-0.383519
-0.376028
-0.371891
-0.368699
-0.295934
-0.299071
-0.304323
-0.311059
-0.318284
-0.323032
-0.337259
-0.344906
-0.357588
-0.371438
-0.395192
-0.407437
-0.416358
-0.424038
-0.431627
-0.442137
-0.403734
-0.441445
-0.589665
-0.549698
-0.511098
-0.49351
-0.489439
-0.492682
-0.502913
-0.516821
-0.530006
-0.538672
-0.539106
-0.528487
-0.508304
-0.484143
-0.460714
-0.436757
-0.393205
-0.391105
-0.375572
-0.366609
-0.366507
-0.362821
-0.328421
-0.331217
-0.33553
-0.341026
-0.347988
-0.35789
-0.36041
-0.370392
-0.385416
-0.4062
-0.422437
-0.435638
-0.44951
-0.45851
-0.462707
-0.466025
-0.377026
-0.388758
-0.547464
-0.526431
-0.509096
-0.499255
-0.496901
-0.50285
-0.514105
-0.52864
-0.543725
-0.553307
-0.55137
-0.533707
-0.506509
-0.477348
-0.450686
-0.425089
-0.377176
-0.382244
-0.364774
-0.358908
-0.359838
-0.356153
-0.355362
-0.358029
-0.362124
-0.367751
-0.37494
-0.383262
-0.392595
-0.404946
-0.407945
-0.42985
-0.447954
-0.462195
-0.477675
-0.488524
-0.495035
-0.498905
-0.491196
-0.474681
-0.484814
-0.495538
-0.486437
-0.481053
-0.481738
-0.490369
-0.504748
-0.520257
-0.532233
-0.535811
-0.529059
-0.51042
-0.481857
-0.451275
-0.425147
-0.399328
-0.38374
-0.37029
-0.361697
-0.355884
-0.352697
-0.350154
-0.376697
-0.379343
-0.383108
-0.38784
-0.393618
-0.400308
-0.407796
-0.416423
-0.425892
-0.440706
-0.458177
-0.476096
-0.48819
-0.498522
-0.505157
-0.505416
-0.497928
-0.489082
-0.472711
-0.474883
-0.47113
-0.466694
-0.468708
-0.475268
-0.484927
-0.494711
-0.500327
-0.499041
-0.492529
-0.46567
-0.431023
-0.411455
-0.390191
-0.373291
-0.362866
-0.357709
-0.354365
-0.351723
-0.343451
-0.346392
-0.393879
-0.396674
-0.400515
-0.405131
-0.410513
-0.416509
-0.422925
-0.42959
-0.436118
-0.443507
-0.451529
-0.464369
-0.483582
-0.492212
-0.495826
-0.495902
-0.489453
-0.481406
-0.477201
-0.473867
-0.467742
-0.461648
-0.459724
-0.461735
-0.467103
-0.471309
-0.469227
-0.464993
-0.459376
-0.420923
-0.380932
-0.370415
-0.3618
-0.354883
-0.351988
-0.351162
-0.351376
-0.351632
-0.339257
-0.345726
-0.40721
-0.410816
-0.415186
-0.419916
-0.425218
-0.430592
-0.436159
-0.442045
-0.448019
-0.452839
-0.457256
-0.455541
-0.457544
-0.4644
-0.473174
-0.468146
-0.462401
-0.455847
-0.453066
-0.449987
-0.449699
-0.447203
-0.443159
-0.449915
-0.453125
-0.464088
-0.459453
-0.453228
-0.432963
-0.404694
-0.374889
-0.364874
-0.360086
-0.359457
-0.359481
-0.360021
-0.360631
-0.36092
-0.348639
-0.353565
-0.418962
-0.423891
-0.429237
-0.43446
-0.439699
-0.444788
-0.449668
-0.454224
-0.458259
-0.461668
-0.463696
-0.463224
-0.463847
-0.461387
-0.447424
-0.438351
-0.444504
-0.439751
-0.44561
-0.444417
-0.448612
-0.451045
-0.451933
-0.441197
-0.448741
-0.458711
-0.462141
-0.455096
-0.438811
-0.421476
-0.407782
-0.395518
-0.387602
-0.383062
-0.380475
-0.378873
-0.377952
-0.377288
-0.36651
-0.370146
-0.43274
-0.438603
-0.444975
-0.450678
-0.456084
-0.461091
-0.465593
-0.469481
-0.472616
-0.474998
-0.476327
-0.475958
-0.474519
-0.472865
-0.471415
-0.458376
-0.462971
-0.46051
-0.467316
-0.46689
-0.471241
-0.472174
-0.473697
-0.476232
-0.467304
-0.473274
-0.478407
-0.478081
-0.468107
-0.451877
-0.438541
-0.426448
-0.41785
-0.411764
-0.407162
-0.403948
-0.401769
-0.400381
-0.388696
-0.391237
-0.451288
-0.457579
-0.46418
-0.470366
-0.476041
-0.481173
-0.485651
-0.489422
-0.492385
-0.494471
-0.495661
-0.495947
-0.495752
-0.495858
-0.496449
-0.496049
-0.494923
-0.495044
-0.496901
-0.499941
-0.500904
-0.50086
-0.501837
-0.504252
-0.506552
-0.505631
-0.506102
-0.499681
-0.489058
-0.477646
-0.466194
-0.455765
-0.447509
-0.440531
-0.434794
-0.43019
-0.426781
-0.424145
-0.413971
-0.415728
-0.476421
-0.482184
-0.488893
-0.495278
-0.501395
-0.506697
-0.511509
-0.515678
-0.518891
-0.521092
-0.52237
-0.52325
-0.523997
-0.525055
-0.526422
-0.527299
-0.527793
-0.528181
-0.528675
-0.529332
-0.528914
-0.528512
-0.528272
-0.528195
-0.528604
-0.528142
-0.525106
-0.518648
-0.510067
-0.501242
-0.492127
-0.483621
-0.475696
-0.468541
-0.462392
-0.457216
-0.453082
-0.449774
-0.439178
-0.440581
-0.510518
-0.514371
-0.520812
-0.526488
-0.529991
-0.536392
-0.543722
-0.549965
-0.556357
-0.557778
-0.556502
-0.556937
-0.558429
-0.560353
-0.562102
-0.56323
-0.563487
-0.562998
-0.562021
-0.560572
-0.558842
-0.557287
-0.555664
-0.553978
-0.552072
-0.549356
-0.545218
-0.539756
-0.533138
-0.525742
-0.518224
-0.510504
-0.502907
-0.495877
-0.489547
-0.483858
-0.478742
-0.473992
-0.46574
-0.466155
-0.556053
-0.557357
-0.565102
-0.57536
-0.58302
-0.590862
-0.597513
-0.60366
-0.60686
-0.606361
-0.605487
-0.606144
-0.602198
-0.60221
-0.603068
-0.602919
-0.60164
-0.599652
-0.597163
-0.594081
-0.590928
-0.58787
-0.584923
-0.581883
-0.578478
-0.574532
-0.569971
-0.564597
-0.558523
-0.551869
-0.544706
-0.537266
-0.529959
-0.522843
-0.516146
-0.509741
-0.503189
-0.496284
-0.490266
-0.489034
-0.608481
-0.617214
-0.627762
-0.638183
-0.651059
-0.665039
-0.676082
-0.681171
-0.683898
-0.683892
-0.678921
-0.670334
-0.662423
-0.658763
-0.655099
-0.651069
-0.646007
-0.640717
-0.635412
-0.63016
-0.625135
-0.620399
-0.615887
-0.61148
-0.607113
-0.602545
-0.597525
-0.591887
-0.585546
-0.578706
-0.571752
-0.564579
-0.557039
-0.549501
-0.542207
-0.535146
-0.528005
-0.515978
-0.510909
-0.505785
-0.675009
-0.690264
-0.705031
-0.720081
-0.732103
-0.743404
-0.751439
-0.761516
-0.768007
-0.768772
-0.761751
-0.746792
-0.737823
-0.725741
-0.716542
-0.707246
-0.696704
-0.686766
-0.67757
-0.66896
-0.661294
-0.654467
-0.6483
-0.642476
-0.636954
-0.631517
-0.625978
-0.620172
-0.61395
-0.607465
-0.600579
-0.592904
-0.584772
-0.576911
-0.569181
-0.559868
-0.549968
-0.536313
-0.529311
-0.525537
-0.766519
-0.791351
-0.801918
-0.81282
-0.82866
-0.840073
-0.851704
-0.85764
-0.857395
-0.853429
-0.84949
-0.838858
-0.818915
-0.802729
-0.787934
-0.772212
-0.753339
-0.736926
-0.723417
-0.711624
-0.701386
-0.692249
-0.684013
-0.674903
-0.65998
-0.660876
-0.655694
-0.650074
-0.643832
-0.637261
-0.630068
-0.62244
-0.613747
-0.603178
-0.593039
-0.582253
-0.569814
-0.559421
-0.551179
-0.547299
-0.874197
-0.884814
-0.895626
-0.909186
-0.926359
-0.942278
-0.955217
-0.961396
-0.960529
-0.953672
-0.942803
-0.92828
-0.910667
-0.884059
-0.866074
-0.84355
-0.81711
-0.794149
-0.775304
-0.759778
-0.746737
-0.734817
-0.722966
-0.711182
-0.700719
-0.692124
-0.686861
-0.681477
-0.67522
-0.669445
-0.662777
-0.655418