/*--------------------------------*- C++ -*----------------------------------*\
  =========                 |
  \\      /  F ield         | OpenFOAM: The Open Source CFD Toolbox
   \\    /   O peration     | Website:  https://openfoam.org
    \\  /    A nd           | Version:  8
     \\/     M anipulation  |
\*---------------------------------------------------------------------------*/
FoamFile
{
    version     2.0;
    format      ascii;
    class       surfaceScalarField;
    location    "0.9";
    object      alphaPhi0.water;
}
// * * * * * * * * * * * * * * * * * * * * * * * * * * * * * * * * * * * * * //

dimensions      [0 3 -1 0 0 0 0];

internalField   nonuniform List<scalar> 
18095
(
1.59189e-07
-9.6452e-07
8.05331e-07
1.65945e-07
-1.24833e-06
1.24158e-06
1.22619e-07
-1.24246e-06
1.28579e-06
6.5535e-08
-1.26377e-06
1.32085e-06
5.25704e-14
-1.28091e-06
1.34645e-06
-6.55349e-08
-1.28091e-06
1.34645e-06
-1.22619e-07
-1.26377e-06
1.32085e-06
-1.65945e-07
-1.24246e-06
1.28579e-06
-1.59189e-07
-1.24833e-06
1.24158e-06
-9.6452e-07
8.05331e-07
1.11286e-07
-1.07581e-06
9.97888e-08
-1.23684e-06
7.31507e-08
-1.21582e-06
4.01928e-08
-1.23081e-06
8.84409e-15
-1.24072e-06
-4.01928e-08
-1.24072e-06
-7.31506e-08
-1.23081e-06
-9.97887e-08
-1.21582e-06
-1.11286e-07
-1.23684e-06
-1.07581e-06
6.74387e-08
-1.14324e-06
5.30405e-08
-1.22244e-06
4.23582e-08
-1.20514e-06
2.39792e-08
-1.21243e-06
-1.61503e-14
-1.21674e-06
-2.39792e-08
-1.21674e-06
-4.23581e-08
-1.21243e-06
-5.30405e-08
-1.20514e-06
-6.74386e-08
-1.22244e-06
-1.14324e-06
3.98136e-08
-1.18306e-06
2.67841e-08
-1.20941e-06
2.21448e-08
-1.2005e-06
1.26088e-08
-1.2029e-06
-9.14781e-15
-1.20413e-06
-1.26088e-08
-1.20413e-06
-2.21448e-08
-1.2029e-06
-2.67841e-08
-1.2005e-06
-3.98135e-08
-1.20941e-06
-1.18306e-06
1.69422e-08
7.53319e-09
7.0313e-09
4.13351e-09
1.2885e-16
-4.13351e-09
-7.03128e-09
-7.53316e-09
-1.69422e-08
-1.76741e-07
-1.1624e-06
1.33914e-06
-2.21136e-07
-1.21644e-06
1.26084e-06
-1.66547e-07
-1.21315e-06
1.15856e-06
-8.76503e-08
-1.20463e-06
1.12573e-06
3.31915e-13
-1.20338e-06
1.11573e-06
8.76509e-08
-1.20338e-06
1.11573e-06
1.66547e-07
-1.20463e-06
1.12573e-06
2.21137e-07
-1.21315e-06
1.15856e-06
1.76742e-07
-1.21644e-06
1.26084e-06
-1.1624e-06
1.33915e-06
-9.26574e-08
-1.06975e-06
-9.5678e-08
-1.21342e-06
-7.95008e-08
-1.22933e-06
-4.43796e-08
-1.23975e-06
1.82385e-13
-1.24776e-06
4.438e-08
-1.24776e-06
7.95012e-08
-1.23975e-06
9.56784e-08
-1.22933e-06
9.26577e-08
-1.21342e-06
-1.06975e-06
-5.80143e-08
-1.01173e-06
-5.51123e-08
-1.21632e-06
-4.64634e-08
-1.23798e-06
-2.71056e-08
-1.25911e-06
1.3022e-13
-1.27486e-06
2.71059e-08
-1.27486e-06
4.64637e-08
-1.25911e-06
5.51125e-08
-1.23798e-06
5.80144e-08
-1.21632e-06
-1.01173e-06
-7.50285e-08
-9.36703e-07
-6.20858e-08
-1.22927e-06
-4.84884e-08
-1.25157e-06
-2.76755e-08
-1.27992e-06
1.09814e-13
-1.30254e-06
2.76758e-08
-1.30254e-06
4.84886e-08
-1.27992e-06
6.20859e-08
-1.25157e-06
7.50286e-08
-1.22927e-06
-9.36703e-07
-1.31372e-07
-1.19062e-07
-8.48464e-08
-4.39101e-08
8.46205e-14
4.39103e-08
8.48466e-08
1.19062e-07
1.31372e-07
-6.58514e-08
-9.48014e-07
1.01387e-06
-5.56717e-09
-1.3352e-06
1.27492e-06
8.25932e-09
-1.26946e-06
1.25564e-06
3.50413e-09
-1.22504e-06
1.2298e-06
3.18415e-12
-1.22228e-06
1.22578e-06
-3.49792e-09
-1.22228e-06
1.22578e-06
-8.25349e-09
-1.22504e-06
1.2298e-06
5.57617e-09
-1.26946e-06
1.25563e-06
6.58633e-08
-1.3352e-06
1.27491e-06
-9.48027e-07
1.01389e-06
4.16541e-09
-9.52179e-07
1.30249e-08
-1.34406e-06
1.00986e-08
-1.26654e-06
5.58422e-09
-1.22053e-06
2.6481e-12
-1.21669e-06
-5.5788e-09
-1.2167e-06
-1.00935e-08
-1.22053e-06
-1.30195e-08
-1.26654e-06
-4.15895e-09
-1.34406e-06
-9.52186e-07
2.44025e-08
-9.76582e-07
1.69811e-08
-1.33664e-06
8.67078e-09
-1.25823e-06
5.0813e-09
-1.21694e-06
1.61061e-12
-1.21161e-06
-5.07829e-09
-1.21162e-06
-8.66756e-09
-1.21694e-06
-1.69776e-08
-1.25823e-06
-2.43994e-08
-1.33664e-06
-9.76585e-07
7.8378e-08
-1.05496e-06
5.3801e-08
-1.31206e-06
3.48816e-08
-1.23931e-06
2.08071e-08
-1.20286e-06
9.82855e-13
-1.19081e-06
-2.08052e-08
-1.19081e-06
-3.48796e-08
-1.20286e-06
-5.37989e-08
-1.23931e-06
-7.83764e-08
-1.31206e-06
-1.05496e-06
2.84185e-07
2.32961e-07
1.52213e-07
7.50815e-08
5.72539e-13
-7.50804e-08
-1.52212e-07
-2.3296e-07
-2.84184e-07
-6.86787e-07
-1.63197e-07
8.49984e-07
-5.18715e-07
-1.68073e-07
-3.47409e-07
-1.71307e-07
-1.74267e-07
-1.73142e-07
-7.81804e-10
-1.73485e-07
1.72679e-07
-1.73461e-07
3.4576e-07
-1.73081e-07
5.16979e-07
-1.71219e-07
6.84947e-07
-1.67968e-07
-1.63092e-07
8.48039e-07
-5.43131e-07
-2.89649e-07
6.69583e-07
-4.11835e-07
-2.99368e-07
-2.76997e-07
-3.06145e-07
-1.39735e-07
-3.10403e-07
-8.10061e-10
-3.1241e-07
1.38118e-07
-3.12389e-07
2.75384e-07
-3.10346e-07
4.10228e-07
-3.06063e-07
5.4154e-07
-2.9928e-07
-2.89582e-07
6.6803e-07
-4.34706e-07
-3.91383e-07
5.3644e-07
-3.29265e-07
-4.0481e-07
-2.21126e-07
-4.14284e-07
-1.11223e-07
-4.20306e-07
-4.08023e-10
-4.23225e-07
1.10413e-07
-4.23211e-07
2.20335e-07
-4.20268e-07
3.28507e-07
-4.14236e-07
4.34001e-07
-4.04774e-07
-3.91395e-07
5.35814e-07
-3.49502e-07
-4.7395e-07
4.32069e-07
-2.64273e-07
-4.9004e-07
-1.77147e-07
-5.01411e-07
-8.87944e-08
-5.08658e-07
1.61671e-10
-5.12181e-07
8.91251e-08
-5.12174e-07
1.775e-07
-5.08642e-07
2.64664e-07
-5.014e-07
3.49951e-07
-4.90061e-07
-4.74041e-07
4.32597e-07
-2.77497e-07
-5.40109e-07
3.43656e-07
-2.09467e-07
-5.5807e-07
-1.40103e-07
-5.70775e-07
-6.98699e-08
-5.78891e-07
7.9545e-10
-5.82847e-07
7.14677e-08
-5.82846e-07
1.41722e-07
-5.78897e-07
2.11121e-07
-5.70799e-07
2.79201e-07
-5.58141e-07
-5.40267e-07
3.45427e-07
-2.18322e-07
-5.92768e-07
2.7098e-07
-1.64464e-07
-6.11927e-07
-1.09696e-07
-6.25542e-07
-5.43087e-08
-6.34279e-07
1.39485e-09
-6.3855e-07
5.71026e-08
-6.38554e-07
1.12502e-07
-6.34296e-07
1.67287e-07
-6.25584e-07
2.21164e-07
-6.12018e-07
-5.92943e-07
2.7384e-07
-1.76177e-07
-6.36635e-07
2.20044e-07
-1.32067e-07
-6.56037e-07
-8.76493e-08
-6.6996e-07
-4.29565e-08
-6.78971e-07
1.89351e-09
-6.834e-07
4.67444e-08
-6.83405e-07
9.14383e-08
-6.78989e-07
1.35852e-07
-6.69998e-07
1.79945e-07
-6.5611e-07
-6.36766e-07
2.23768e-07
-1.53234e-07
-6.77e-07
1.93599e-07
-1.13797e-07
-6.95475e-07
-7.49014e-08
-7.08855e-07
-3.62736e-08
-7.17599e-07
2.25224e-09
-7.21926e-07
4.07755e-08
-7.21928e-07
7.9394e-08
-7.17608e-07
1.18269e-07
-7.08873e-07
1.57667e-07
-6.95508e-07
-6.77061e-07
1.97961e-07
-1.4445e-07
-7.1712e-07
1.84571e-07
-1.06281e-07
-7.33644e-07
-6.94077e-08
-7.45728e-07
-3.32984e-08
-7.53709e-07
2.46006e-09
-7.57684e-07
3.82081e-08
-7.57676e-07
7.42853e-08
-7.53685e-07
1.11102e-07
-7.45689e-07
1.49184e-07
-7.33591e-07
-7.17051e-07
1.89175e-07
-1.42528e-07
-7.57357e-07
1.82765e-07
-1.04507e-07
-7.71666e-07
-6.80067e-08
-7.82228e-07
-3.2471e-08
-7.89244e-07
2.59158e-09
-7.92747e-07
3.76394e-08
-7.92724e-07
7.31308e-08
-7.89176e-07
1.09557e-07
-7.82116e-07
1.47479e-07
-7.71513e-07
-7.57171e-07
1.87599e-07
-1.43245e-07
-7.97024e-07
1.82907e-07
-1.05061e-07
-8.0985e-07
-6.83153e-08
-8.18973e-07
-3.25516e-08
-8.25008e-07
2.71286e-09
-8.28011e-07
3.79648e-08
-8.27976e-07
7.36914e-08
-8.24903e-07
1.10377e-07
-8.18802e-07
1.48484e-07
-8.0962e-07
-7.96768e-07
1.88074e-07
-1.42155e-07
-8.34329e-07
1.79451e-07
-1.04406e-07
-8.476e-07
-6.79212e-08
-8.55458e-07
-3.23159e-08
-8.60614e-07
2.8402e-09
-8.63167e-07
3.79884e-08
-8.63124e-07
7.35707e-08
-8.60486e-07
1.10019e-07
-8.5525e-07
1.47716e-07
-8.47318e-07
-8.34067e-07
1.85008e-07
-1.38137e-07
-8.66461e-07
1.70273e-07
-1.01564e-07
-8.84173e-07
-6.61274e-08
-8.90895e-07
-3.14045e-08
-8.95337e-07
2.95898e-09
-8.97531e-07
3.73161e-08
-8.97482e-07
7.20201e-08
-8.95191e-07
1.07426e-07
-8.90656e-07
1.43954e-07
-8.83846e-07
-8.66314e-07
1.76204e-07
-1.32679e-07
-8.85742e-07
1.51959e-07
-9.77406e-08
-9.19112e-07
-6.36802e-08
-9.24955e-07
-3.01677e-08
-9.2885e-07
3.06776e-09
-9.30767e-07
3.62966e-08
-9.30711e-07
6.97895e-08
-9.28683e-07
1.03819e-07
-9.24685e-07
1.38717e-07
-9.18744e-07
-8.85814e-07
1.58216e-07
-1.26031e-07
-8.80083e-07
1.20349e-07
-9.31015e-08
-9.52042e-07
-6.06818e-08
-9.57375e-07
-2.86525e-08
-9.60879e-07
3.16383e-09
-9.62583e-07
3.49734e-08
-9.6252e-07
6.69818e-08
-9.60692e-07
9.93649e-08
-9.57068e-07
1.32247e-07
-9.51627e-07
-8.79847e-07
1.26262e-07
-1.18028e-07
-8.33979e-07
8.49358e-08
-8.71936e-08
-9.82876e-07
-5.67846e-08
-9.87784e-07
-2.6694e-08
-9.9097e-07
3.22544e-09
-9.92502e-07
3.31391e-08
-9.92434e-07
6.32109e-08
-9.90763e-07
9.35814e-08
-9.87438e-07
1.24331e-07
-9.82376e-07
-8.34411e-07
9.00316e-08
-1.09116e-07
-7.7253e-07
5.34218e-08
-8.04099e-08
-1.01158e-06
-5.22603e-08
-1.01593e-06
-2.44381e-08
-1.01879e-06
3.22583e-09
-1.02017e-06
3.08822e-08
-1.02009e-06
5.86808e-08
-1.01856e-06
8.67891e-08
-1.01555e-06
1.15432e-07
-1.01102e-06
-7.67682e-07
5.5204e-08
-9.93658e-08
-7.02358e-07
3.39348e-08
-7.31579e-08
-1.03779e-06
-4.74453e-08
-1.04165e-06
-2.20565e-08
-1.04418e-06
3.1745e-09
-1.0454e-06
2.83971e-08
-1.04531e-06
5.37612e-08
-1.04393e-06
7.94353e-08
-1.04122e-06
1.05575e-07
-1.03716e-06
-6.91043e-07
3.41618e-08
-8.89347e-08
-6.31668e-07
1.93605e-08
-6.54346e-08
-1.06129e-06
-4.23531e-08
-1.06473e-06
-1.9569e-08
-1.06696e-06
3.07111e-09
-1.06804e-06
2.57033e-08
-1.06794e-06
4.84637e-08
-1.06669e-06
7.15072e-08
-1.06426e-06
9.4899e-08
-1.06055e-06
-6.14047e-07
1.86046e-08
-7.78168e-08
-5.69682e-07
1.01215e-08
-5.72881e-08
-1.08182e-06
-3.70176e-08
-1.085e-06
-1.70029e-08
-1.08698e-06
2.88974e-09
-1.08793e-06
2.27751e-08
-1.08783e-06
4.27678e-08
-1.08667e-06
6.30011e-08
-1.0845e-06
8.33035e-08
-1.08085e-06
-5.46829e-07
8.99187e-09
-6.59769e-08
-5.2697e-07
4.97893e-09
-4.87992e-08
-1.099e-06
-3.15096e-08
-1.10229e-06
-1.44117e-08
-1.10408e-06
2.59437e-09
-1.10494e-06
1.95938e-08
-1.10483e-06
3.66705e-08
-1.10375e-06
5.3923e-08
-1.10175e-06
7.05718e-08
-1.0975e-06
-4.98872e-07
4.27895e-09
-5.31691e-08
-4.97561e-07
2.4975e-09
-3.99851e-08
-1.11218e-06
-2.58455e-08
-1.11643e-06
-1.18157e-08
-1.1181e-06
2.16173e-09
-1.11891e-06
1.61341e-08
-1.1188e-06
3.01472e-08
-1.11776e-06
4.42532e-08
-1.11586e-06
5.62341e-08
-1.10948e-06
-4.68397e-07
2.73517e-09
-3.9031e-08
-4.94622e-07
1.3621e-09
-3.09522e-08
-1.12026e-06
-2.00865e-08
-1.12729e-06
-9.25178e-09
-1.12893e-06
1.56897e-09
-1.12973e-06
1.23874e-08
-1.12962e-06
2.3212e-08
-1.12859e-06
3.40517e-08
-1.1267e-06
3.84175e-08
-1.11384e-06
-4.66861e-07
6.53728e-10
-2.31488e-08
-5.17147e-07
1.05218e-09
-2.17496e-08
-1.12462e-06
-1.42555e-08
-1.13479e-06
-6.7177e-09
-1.13647e-06
8.42717e-10
-1.13729e-06
8.40592e-09
-1.13718e-06
1.59517e-08
-1.13613e-06
2.34523e-08
-1.1342e-06
2.39836e-08
-1.11927e-06
-4.87169e-07
5.87216e-10
-1.28389e-08
-5.75881e-07
1.18942e-09
-1.2302e-08
-1.1286e-06
-8.28982e-09
-1.1388e-06
-4.14682e-09
-1.14062e-06
6.14479e-11
-1.1415e-06
4.286e-09
-1.14141e-06
8.47791e-09
-1.14033e-06
1.25587e-08
-1.13828e-06
1.28585e-08
-1.12417e-06
-5.42305e-07
8.38563e-10
-2.5086e-09
-6.37699e-07
2.99198e-10
-2.84022e-09
-1.13171e-06
-2.32204e-09
-1.13931e-06
-1.59505e-09
-1.14134e-06
-7.58817e-10
-1.14234e-06
1.10462e-10
-1.14228e-06
9.32509e-10
-1.14115e-06
1.59865e-09
-1.13894e-06
1.62365e-09
-1.12884e-06
-6.01673e-07
1.54372e-10
8.78965e-09
-6.97654e-07
-3.81671e-09
5.90483e-09
-1.13055e-06
3.21308e-09
-1.13662e-06
7.34647e-10
-1.13886e-06
-1.59684e-09
-1.14001e-06
-3.8746e-09
-1.14e-06
-6.19321e-09
-1.13883e-06
-8.62065e-09
-1.1365e-06
-1.09387e-08
-1.12894e-06
-6.60384e-07
-4.18567e-09
1.96628e-08
-7.52994e-07
-9.03902e-09
1.36774e-08
-1.12482e-06
8.03078e-09
-1.13097e-06
2.67475e-09
-1.13351e-06
-2.49294e-09
-1.13484e-06
-7.59293e-09
-1.1349e-06
-1.2747e-08
-1.13367e-06
-1.80604e-08
-1.13118e-06
-2.34945e-08
-1.12431e-06
-7.163e-07
-9.48643e-09
2.93202e-08
-8.0484e-07
-1.3838e-08
2.04148e-08
-1.11606e-06
1.20186e-08
-1.12257e-06
4.13982e-09
-1.12563e-06
-3.41856e-09
-1.12728e-06
-1.08959e-08
-1.12742e-06
-1.85468e-08
-1.12603e-06
-2.65573e-08
-1.12317e-06
-3.49448e-08
-1.11605e-06
-7.71207e-07
-1.45318e-08
3.55432e-08
-8.54818e-07
-1.82207e-08
2.45032e-08
-1.10506e-06
1.40636e-08
-1.11213e-06
4.61615e-09
-1.11618e-06
-4.22386e-09
-1.11844e-06
-1.29749e-08
-1.11867e-06
-2.21237e-08
-1.11688e-06
-3.20684e-08
-1.11323e-06
-4.22998e-08
-1.10584e-06
-8.24747e-07
-1.93304e-08
3.44278e-08
-8.97189e-07
-2.13952e-08
2.22822e-08
-1.09292e-06
1.16506e-08
-1.1015e-06
2.89118e-09
-1.10742e-06
-4.83969e-09
-1.11071e-06
-1.24554e-08
-1.11105e-06
-2.08819e-08
-1.10845e-06
-3.0918e-08
-1.10319e-06
-4.19876e-08
-1.09477e-06
-8.71835e-07
-2.30381e-08
2.02258e-08
-9.20752e-07
-1.81994e-08
9.18349e-09
-1.08188e-06
1.97531e-09
-1.0943e-06
-2.34829e-09
-1.1031e-06
-5.20858e-09
-1.10785e-06
-7.96676e-09
-1.1083e-06
-1.19769e-08
-1.10444e-06
-1.86334e-08
-1.09654e-06
-2.83846e-08
-1.08503e-06
-8.98039e-07
-2.06298e-08
-1.25076e-08
-9.23371e-07
-9.67216e-10
-1.68596e-08
-1.07753e-06
-1.55939e-08
-1.09556e-06
-1.11486e-08
-1.10755e-06
-5.21458e-09
-1.11378e-06
7.87891e-10
-1.1143e-06
5.45756e-09
-1.10911e-06
7.12423e-09
-1.0982e-06
3.38011e-09
-1.08128e-06
-9.04491e-07
-4.52649e-09
-5.37671e-08
-9.09524e-07
2.87338e-08
-4.57614e-08
-1.08553e-06
-3.38833e-08
-1.10744e-06
-1.97661e-08
-1.12167e-06
-4.65574e-09
-1.12889e-06
1.04904e-08
-1.12945e-06
2.47073e-08
-1.12333e-06
3.67615e-08
-1.11026e-06
4.49829e-08
-1.0895e-06
-8.9198e-07
2.25342e-08
-7.24064e-08
-8.83099e-07
3.96446e-08
-5.70745e-08
-1.10086e-06
-4.007e-08
-1.12444e-06
-2.20151e-08
-1.13972e-06
-3.45546e-09
-1.14745e-06
1.51289e-08
-1.14803e-06
3.32623e-08
-1.14146e-06
5.03854e-08
-1.12738e-06
6.58956e-08
-1.10501e-06
-8.65935e-07
3.41296e-08
-7.04677e-08
-8.66263e-07
4.17916e-08
-5.28355e-08
-1.1185e-06
-3.57656e-08
-1.14151e-06
-1.8826e-08
-1.15666e-06
-1.89056e-09
-1.16439e-06
1.51142e-08
-1.16503e-06
3.22631e-08
-1.15861e-06
4.97141e-08
-1.14483e-06
6.79697e-08
-1.12327e-06
-8.50753e-07
3.93816e-08
-5.238e-08
-8.56532e-07
3.04934e-08
-3.80058e-08
-1.13287e-06
-2.49411e-08
-1.15458e-06
-1.25769e-08
-1.16902e-06
-4.81738e-10
-1.17648e-06
1.1674e-08
-1.17719e-06
2.42385e-08
-1.17118e-06
3.76454e-08
-1.15824e-06
5.25681e-08
-1.13819e-06
-8.43886e-07
2.94066e-08
-3.64229e-08
-8.47378e-07
1.77558e-08
-2.48737e-08
-1.14442e-06
-1.53499e-08
-1.1641e-06
-7.02791e-09
-1.17734e-06
7.51351e-10
-1.18426e-06
8.54898e-09
-1.18499e-06
1.69227e-08
-1.17955e-06
2.65668e-08
-1.16788e-06
3.82987e-08
-1.14992e-06
-8.36384e-07
1.73968e-08
-3.08825e-08
-8.38566e-07
1.46476e-08
-1.98926e-08
-1.15541e-06
-1.1296e-08
-1.1727e-06
-4.2283e-09
-1.18441e-06
2.10611e-09
-1.1906e-06
8.44256e-09
-1.19132e-06
1.55201e-08
-1.18662e-06
2.41566e-08
-1.17652e-06
3.52363e-08
-1.161e-06
-8.26659e-07
1.5109e-08
-3.08491e-08
-8.28162e-07
1.32883e-08
-1.97686e-08
-1.16649e-06
-1.08059e-08
-1.18166e-06
-3.28839e-09
-1.19193e-06
3.51708e-09
-1.1974e-06
1.03284e-08
-1.19814e-06
1.78666e-08
-1.19416e-06
2.68574e-08
-1.18551e-06
3.79708e-08
-1.17212e-06
-8.14644e-07
1.42792e-08
-3.48471e-08
-8.13303e-07
1.34828e-08
-2.26945e-08
-1.17864e-06
-1.24902e-08
-1.19187e-06
-3.59134e-09
-1.20083e-06
4.66151e-09
-1.20566e-06
1.29201e-08
-1.20639e-06
2.1829e-08
-1.20307e-06
3.20313e-08
-1.19571e-06
4.41352e-08
-1.18422e-06
-7.96483e-07
1.46138e-08
-3.98945e-08
-7.9345e-07
1.32461e-08
-2.67155e-08
-1.19182e-06
-1.51322e-08
-1.20345e-06
-4.63437e-09
-1.21132e-06
5.32445e-09
-1.21562e-06
1.52855e-08
-1.21636e-06
2.57835e-08
-1.21357e-06
3.73491e-08
-1.20728e-06
5.04667e-08
-1.19734e-06
-7.70849e-07
1.40611e-08
-4.55055e-08
-7.68868e-07
1.26258e-08
-3.13664e-08
-1.20596e-06
-1.84271e-08
-1.21639e-06
-6.33209e-09
-1.22342e-06
5.33816e-09
-1.22729e-06
1.69995e-08
-1.22802e-06
2.90636e-08
-1.22563e-06
4.1937e-08
-1.22015e-06
5.59408e-08
-1.21134e-06
-7.38913e-07
1.26286e-08
-5.22042e-08
-7.40194e-07
1.17655e-08
-3.69238e-08
-1.22124e-06
-2.25198e-08
-1.23079e-06
-8.78029e-09
-1.23716e-06
4.61503e-09
-1.24068e-06
1.79779e-08
-1.24138e-06
3.1609e-08
-1.23926e-06
4.57969e-08
-1.23434e-06
6.06123e-08
-1.22616e-06
-7.0207e-07
1.05902e-08
-6.01539e-08
-7.07079e-07
1.06531e-08
-4.34042e-08
-1.23799e-06
-2.73619e-08
-1.24683e-06
-1.19055e-08
-1.25261e-06
3.23235e-09
-1.25582e-06
1.82987e-08
-1.25645e-06
3.35192e-08
-1.25448e-06
4.90912e-08
-1.24991e-06
6.47007e-08
-1.24177e-06
-6.6129e-07
8.27017e-09
-6.84117e-08
-6.66761e-07
8.90131e-09
-5.03503e-08
-1.25605e-06
-3.26022e-08
-1.26458e-06
-1.54382e-08
-1.26978e-06
1.39998e-09
-1.27266e-06
1.81335e-08
-1.27318e-06
3.49684e-08
-1.27132e-06
5.20955e-08
-1.26704e-06
6.85036e-08
-1.25817e-06
-6.16108e-07
5.89941e-09
-7.44657e-08
-6.18502e-07
6.23102e-09
-5.62259e-08
-1.27429e-06
-3.71828e-08
-1.28363e-06
-1.86771e-08
-1.28828e-06
-4.89613e-10
-1.29084e-06
1.75792e-08
-1.29125e-06
3.57243e-08
-1.28947e-06
5.4135e-08
-1.28545e-06
7.00531e-08
-1.27409e-06
-5.65592e-07
3.61786e-09
-7.66996e-08
-5.63707e-07
3.8749e-09
-6.01507e-08
-1.29084e-06
-4.04174e-08
-1.30336e-06
-2.11019e-08
-1.3076e-06
-2.05545e-09
-1.30989e-06
1.68919e-08
-1.3102e-06
3.59107e-08
-1.30848e-06
5.51601e-08
-1.3047e-06
6.81634e-08
-1.28708e-06
-5.14808e-07
2.79509e-09
-7.4815e-08
-5.07457e-07
2.91104e-09
-6.25544e-08
-1.30309e-06
-4.24782e-08
-1.32344e-06
-2.274e-08
-1.32734e-06
-3.2253e-09
-1.32941e-06
1.62178e-08
-1.32964e-06
3.57485e-08
-1.32801e-06
5.55153e-08
-1.32447e-06
6.04532e-08
-1.29194e-06
-4.69053e-07
2.11558e-09
-6.54849e-08
-4.57132e-07
2.49063e-09
-6.36809e-08
-1.30592e-06
-4.3484e-08
-1.34363e-06
-2.3614e-08
-1.34721e-06
-3.95472e-09
-1.34906e-06
1.56503e-08
-1.34924e-06
3.53736e-08
-1.34773e-06
5.54019e-08
-1.34449e-06
5.54714e-08
-1.30051e-06
-4.26031e-07
2.13653e-09
-6.06075e-08
-4.09965e-07
2.54093e-09
-6.37586e-08
-1.31247e-06
-4.35869e-08
-1.3638e-06
-2.38167e-08
-1.36698e-06
-4.26654e-09
-1.36861e-06
1.52377e-08
-1.36875e-06
3.48806e-08
-1.36738e-06
5.48763e-08
-1.36449e-06
5.24116e-08
-1.30109e-06
-3.84303e-07
2.16478e-09
-5.67021e-08
-3.64481e-07
2.53244e-09
-6.28561e-08
-1.31002e-06
-4.29842e-08
-1.38368e-06
-2.35233e-08
-1.38644e-06
-4.27359e-09
-1.38786e-06
1.49299e-08
-1.38795e-06
3.42548e-08
-1.3867e-06
5.3908e-08
-1.38414e-06
4.90309e-08
-1.2997e-06
-3.4416e-07
2.10784e-09
-5.19457e-08
-3.2156e-07
2.39035e-09
-6.10307e-08
-1.30478e-06
-4.17806e-08
-1.40293e-06
-2.28253e-08
-1.40539e-06
-4.01434e-09
-1.40668e-06
1.47609e-08
-1.40673e-06
3.36082e-08
-1.40555e-06
5.26763e-08
-1.40321e-06
4.52769e-08
-1.29543e-06
-3.06024e-07
2.01748e-09
-4.68032e-08
-2.82014e-07
2.11626e-09
-5.8732e-08
-1.29634e-06
-4.02966e-08
-1.42136e-06
-2.19192e-08
-1.42378e-06
-3.57108e-09
-1.42502e-06
1.47588e-08
-1.42506e-06
3.30825e-08
-1.42388e-06
5.14334e-08
-1.42156e-06
4.14351e-08
-1.28826e-06
-2.70372e-07
1.80021e-09
-4.22772e-08
-2.45784e-07
1.66526e-09
-5.68751e-08
-1.28511e-06
-3.90789e-08
-1.43916e-06
-2.1105e-08
-1.44174e-06
-3.05431e-09
-1.44307e-06
1.49936e-08
-1.4431e-06
3.29612e-08
-1.44184e-06
5.07577e-08
-1.43936e-06
3.81381e-08
-1.27841e-06
-2.3723e-07
1.49438e-09
-3.92085e-08
-2.12003e-07
1.29562e-09
-5.63477e-08
-1.27156e-06
-3.86146e-08
-1.45689e-06
-2.06575e-08
-1.4597e-06
-2.60662e-09
-1.46113e-06
1.54313e-08
-1.46114e-06
3.33473e-08
-1.45976e-06
5.09933e-08
-1.457e-06
3.57327e-08
-1.26622e-06
-2.06092e-07
1.13201e-09
-3.72239e-08
-1.79831e-07
1.10566e-09
-5.70394e-08
-1.25574e-06
-3.88124e-08
-1.47512e-06
-2.04954e-08
-1.47802e-06
-2.13989e-09
-1.47948e-06
1.62042e-08
-1.47949e-06
3.44852e-08
-1.47804e-06
5.26378e-08
-1.47516e-06
3.45929e-08
-1.25179e-06
-1.76022e-07
9.97685e-10
-3.5139e-08
-1.4945e-07
1.00865e-09
-5.78219e-08
-1.23759e-06
-3.90439e-08
-1.49389e-06
-2.03499e-08
-1.49671e-06
-1.69644e-09
-1.49813e-06
1.69491e-08
-1.49813e-06
3.56173e-08
-1.49671e-06
5.4346e-08
-1.49388e-06
3.32538e-08
-1.23491e-06
-1.47187e-07
9.30061e-10
-3.24125e-08
-1.2135e-07
8.80026e-10
-5.77418e-08
-1.21729e-06
-3.873e-08
-1.51291e-06
-1.99512e-08
-1.5155e-06
-1.27966e-09
-1.51681e-06
1.73903e-08
-1.5168e-06
3.61651e-08
-1.51548e-06
5.5173e-08
-1.51289e-06
3.11884e-08
-1.2157e-06
-1.20117e-07
8.56682e-10
-2.88204e-08
-9.63642e-08
7.91083e-10
-5.6081e-08
-1.19544e-06
-3.74546e-08
-1.53153e-06
-1.91241e-08
-1.53383e-06
-9.32679e-10
-1.535e-06
1.72594e-08
-1.53499e-06
3.55927e-08
-1.53382e-06
5.42293e-08
-1.53153e-06
2.80547e-08
-1.19473e-06
-9.57684e-08
7.74447e-10
-2.47305e-08
-7.49003e-08
6.51319e-10
-5.2869e-08
-1.17291e-06
-3.52249e-08
-1.54918e-06
-1.78628e-08
-1.55118e-06
-6.39355e-10
-1.55222e-06
1.65861e-08
-1.55222e-06
3.3955e-08
-1.55118e-06
5.1612e-08
-1.54919e-06
2.42853e-08
-1.17287e-06
-7.46754e-08
6.442e-10
-2.06393e-08
-5.69263e-08
5.03819e-10
-4.84572e-08
-1.15075e-06
-3.22328e-08
-1.5654e-06
-1.6256e-08
-1.56716e-06
-4.05133e-10
-1.56807e-06
1.54483e-08
-1.56807e-06
3.14323e-08
-1.56717e-06
4.76666e-08
-1.56542e-06
2.04063e-08
-1.15115e-06
-5.6894e-08
5.02413e-10
-1.68272e-08
-4.22046e-08
3.80017e-10
-4.32063e-08
-1.12992e-06
-2.87051e-08
-1.5799e-06
-1.44169e-08
-1.58145e-06
-2.3965e-10
-1.58225e-06
1.39392e-08
-1.58225e-06
2.82314e-08
-1.58146e-06
4.27359e-08
-1.57993e-06
1.67187e-08
-1.1306e-06
-4.22603e-08
3.787e-10
-1.34319e-08
-3.03795e-08
2.67862e-10
-3.74758e-08
-1.11123e-06
-2.48848e-08
-1.5925e-06
-1.24601e-08
-1.59388e-06
-1.30986e-10
-1.59458e-06
1.21988e-08
-1.59458e-06
2.46247e-08
-1.59389e-06
3.72148e-08
-1.59252e-06
1.33921e-08
-1.11209e-06
-3.04689e-08
2.679e-10
-1.05113e-08
-2.10521e-08
1.79518e-10
-3.15389e-08
-1.09534e-06
-2.09504e-08
-1.60308e-06
-1.0466e-08
-1.60436e-06
-6.32328e-11
-1.60498e-06
1.03396e-08
-1.60498e-06
2.08237e-08
-1.60437e-06
3.14103e-08
-1.6031e-06
1.05069e-08
-1.09628e-06
-2.11465e-08
1.79892e-10
-8.04691e-09
-1.3886e-08
1.13155e-10
-2.5591e-08
-1.08252e-06
-1.70359e-08
-1.61164e-06
-8.49384e-09
-1.6129e-06
-2.19119e-11
-1.61345e-06
8.44979e-09
-1.61346e-06
1.69909e-08
-1.61291e-06
2.55442e-08
-1.61166e-06
8.05872e-09
-1.08347e-06
-1.39749e-08
1.13466e-10
-5.97755e-09
-8.48074e-09
6.60203e-11
-1.97566e-08
-1.07313e-06
-1.3247e-08
-1.61815e-06
-6.59149e-09
-1.61956e-06
4.06217e-12
-1.62005e-06
6.59924e-09
-1.62005e-06
1.32535e-08
-1.61956e-06
1.97622e-08
-1.61816e-06
5.99543e-09
-1.07406e-06
-8.55773e-09
6.6347e-11
-4.22618e-09
-4.75377e-09
3.4134e-11
-1.40936e-08
-1.06685e-06
-9.65754e-09
-1.62258e-06
-4.79321e-09
-1.62442e-06
2.13987e-11
-1.62486e-06
4.83546e-09
-1.62487e-06
9.69819e-09
-1.62443e-06
1.41338e-08
-1.6226e-06
4.24583e-09
-1.0677e-06
-4.81803e-09
3.44134e-11
-2.71567e-09
-2.10611e-09
1.52313e-11
-8.36e-09
-1.0648e-06
-6.28678e-09
-1.62466e-06
-3.10581e-09
-1.6276e-06
3.42066e-11
-1.628e-06
3.17355e-09
-1.628e-06
6.35259e-09
-1.62761e-06
8.43257e-09
-1.62468e-06
2.73511e-09
-1.06559e-06
-2.15139e-09
1.5369e-11
-1.55413e-09
-7.6943e-10
4.61714e-12
-4.1076e-09
-1.06554e-06
-3.13115e-09
-1.6258e-06
-1.52679e-09
-1.62921e-06
4.35141e-11
-1.62957e-06
1.61309e-09
-1.62957e-06
3.21518e-09
-1.62921e-06
4.17706e-09
-1.62581e-06
1.55498e-09
-1.06627e-06
-8.15872e-10
4.7459e-12
-1.52459e-10
-6.97555e-10
2.56959e-13
-3.6398e-10
-1.06745e-06
-2.19206e-10
-1.62594e-06
-7.02678e-11
-1.62936e-06
4.97582e-11
-1.62969e-06
1.6892e-10
-1.62969e-06
3.15226e-10
-1.62936e-06
4.42523e-10
-1.62594e-06
1.70911e-10
-1.06794e-06
-7.58234e-10
2.90177e-13
1.04037e-09
-1.80619e-09
-2.21771e-19
3.60142e-09
-1.0719e-06
2.45207e-09
-1.62475e-06
1.26358e-09
-1.62817e-06
5.43218e-11
-1.62848e-06
-1.15568e-09
-1.62848e-06
-2.34632e-09
-1.62816e-06
-3.50015e-09
-1.62474e-06
-1.01989e-09
-1.07225e-06
-1.87978e-09
-1.57039e-18
2.16798e-09
-4.40279e-09
-8.56758e-19
7.27421e-09
-1.07844e-06
4.8815e-09
-1.62232e-06
2.47414e-09
-1.62576e-06
5.61457e-11
-1.62607e-06
-2.36208e-09
-1.62607e-06
-4.77059e-09
-1.62576e-06
-7.16582e-09
-1.62231e-06
-2.14786e-09
-1.07869e-06
-4.6048e-09
-1.28545e-18
3.27463e-09
-9.75513e-09
-1.48498e-18
1.06159e-08
-1.08711e-06
7.09579e-09
-1.61877e-06
3.57501e-09
-1.62224e-06
5.11322e-11
-1.62254e-06
-3.47316e-09
-1.62254e-06
-6.99499e-09
-1.62223e-06
-1.05163e-08
-1.61876e-06
-3.25736e-09
-1.08728e-06
-9.84845e-09
-1.19016e-18
4.39118e-09
-1.45722e-08
-2.08249e-18
1.37342e-08
-1.09765e-06
9.17243e-09
-1.61419e-06
4.60791e-09
-1.61767e-06
4.29267e-11
-1.61798e-06
-4.52256e-09
-1.61798e-06
-9.08805e-09
-1.61767e-06
-1.36508e-08
-1.61418e-06
-4.37136e-09
-1.09772e-06
-1.45802e-08
-1.02734e-18
5.49234e-09
-2.03774e-08
-3.59387e-18
1.66409e-08
-1.10981e-06
1.11095e-08
-1.60864e-06
5.57324e-09
-1.61214e-06
3.65718e-11
-1.61244e-06
-5.5001e-09
-1.61244e-06
-1.10365e-08
-1.61213e-06
-1.65678e-08
-1.60863e-06
-5.47426e-09
-1.10982e-06
-2.03872e-08
-1.08876e-18
6.6472e-09
-2.74324e-08
-3.69539e-18
1.93325e-08
-1.12342e-06
1.28968e-08
-1.60219e-06
6.46232e-09
-1.6057e-06
2.92049e-11
-1.60601e-06
-6.40389e-09
-1.60601e-06
-1.28383e-08
-1.6057e-06
-1.92742e-08
-1.60218e-06
-6.63256e-09
-1.12337e-06
-2.74189e-08
-1.11315e-18
7.87583e-09
-3.56431e-08
-5.15416e-18
2.18881e-08
-1.13828e-06
1.45883e-08
-1.59489e-06
7.30099e-09
-1.59841e-06
1.99436e-11
-1.59873e-06
-7.26108e-09
-1.59872e-06
-1.45484e-08
-1.59841e-06
-2.18483e-08
-1.59487e-06
-7.86421e-09
-1.1382e-06
-3.56145e-08
-1.10345e-18
9.21014e-09
-4.52019e-08
-5.8441e-18
2.43713e-08
-1.15424e-06
1.62309e-08
-1.58674e-06
8.11442e-09
-1.5903e-06
9.83704e-12
-1.59062e-06
-8.09467e-09
-1.59062e-06
-1.6211e-08
-1.59029e-06
-2.43511e-08
-1.58673e-06
-9.20272e-09
-1.15415e-06
-4.51634e-08
-1.13418e-18
1.06882e-08
-5.62448e-08
-6.40687e-18
2.68252e-08
-1.17116e-06
1.7855e-08
-1.57777e-06
8.91901e-09
-1.58136e-06
2.59132e-13
-1.5817e-06
-8.91834e-09
-1.5817e-06
-1.78538e-08
-1.58136e-06
-2.68231e-08
-1.57776e-06
-1.0685e-08
-1.17106e-06
-5.62009e-08
-1.13268e-18
1.23473e-08
-6.89696e-08
-6.58304e-18
2.92838e-08
-1.18887e-06
1.94851e-08
-1.56797e-06
9.72767e-09
-1.5716e-06
-7.52149e-12
-1.57197e-06
-9.74248e-09
-1.57197e-06
-1.94992e-08
-1.5716e-06
-2.92967e-08
-1.56797e-06
-1.23481e-08
-1.18878e-06
-6.89251e-08
-1.067e-18
1.4233e-08
-8.36166e-08
-6.43707e-18
3.17618e-08
-1.20718e-06
2.1143e-08
-1.55736e-06
1.05516e-08
-1.56101e-06
-1.25679e-11
-1.5614e-06
-1.05764e-08
-1.5614e-06
-2.1167e-08
-1.56101e-06
-3.1784e-08
-1.55735e-06
-1.42371e-08
-1.20711e-06
-8.35747e-08
-8.59908e-19
1.63976e-08
-1.0048e-07
-6.3653e-18
3.42949e-08
-1.22588e-06
2.28482e-08
-1.54591e-06
1.14005e-08
-1.54957e-06
-1.44473e-11
-1.54999e-06
-1.14291e-08
-1.54999e-06
-2.28759e-08
-1.54956e-06
-3.43206e-08
-1.5459e-06
-1.64036e-08
-1.22582e-06
-1.00442e-07
-6.58999e-19
1.89036e-08
-1.19917e-07
-5.9511e-18
3.69223e-08
-1.24472e-06
2.46177e-08
-1.5336e-06
1.22827e-08
-1.53723e-06
-1.32674e-11
-1.53769e-06
-1.2309e-08
-1.53769e-06
-2.46433e-08
-1.53723e-06
-3.69459e-08
-1.5336e-06
-1.89099e-08
-1.24468e-06
-1.19885e-07
-6.18191e-19
2.18259e-08
-1.42364e-07
-4.7565e-18
3.96711e-08
-1.26341e-06
2.64657e-08
-1.5204e-06
1.32051e-08
-1.52397e-06
-9.73193e-12
-1.52448e-06
-1.32244e-08
-1.52448e-06
-2.64846e-08
-1.52397e-06
-3.96885e-08
-1.5204e-06
-2.18309e-08
-1.26338e-06
-1.42335e-07
-6.68644e-19
2.52552e-08
-1.68349e-07
-3.20923e-18
4.25643e-08
-1.28159e-06
2.84062e-08
-1.50624e-06
1.41732e-08
-1.50974e-06
-5.00878e-12
-1.5103e-06
-1.41833e-08
-1.5103e-06
-2.84161e-08
-1.50974e-06
-4.25736e-08
-1.50624e-06
-2.52575e-08
-1.28156e-06
-1.6832e-07
-6.5304e-19
2.93019e-08
-1.98512e-07
-1.87828e-18
4.56255e-08
-1.29879e-06
3.04522e-08
-1.49107e-06
1.51931e-08
-1.49448e-06
-5.09042e-13
-1.49511e-06
-1.51943e-08
-1.49511e-06
-3.04536e-08
-1.49448e-06
-4.56272e-08
-1.49107e-06
-2.93012e-08
-1.29876e-06
-1.9848e-07
-5.3223e-19
3.41023e-08
-2.33632e-07
-9.84551e-19
4.88849e-08
-1.31444e-06
3.26215e-08
-1.47481e-06
1.62725e-08
-1.47813e-06
2.45019e-12
-1.47884e-06
-1.62678e-08
-1.47884e-06
-3.26173e-08
-1.47813e-06
-4.88818e-08
-1.4748e-06
-3.40991e-08
-1.31441e-06
-2.33594e-07
-4.03846e-19
3.98251e-08
-2.74657e-07
-5.59525e-19
5.23849e-08
-1.32784e-06
3.49412e-08
-1.45736e-06
1.74252e-08
-1.46061e-06
3.00353e-12
-1.46141e-06
-1.74194e-08
-1.46141e-06
-3.49361e-08
-1.46061e-06
-5.23813e-08
-1.45736e-06
-3.98212e-08
-1.32781e-06
-2.74614e-07
-3.32611e-19
4.66765e-08
-3.22739e-07
-3.08816e-19
5.61898e-08
-1.33814e-06
3.74577e-08
-1.43863e-06
1.86759e-08
-1.44183e-06
1.08663e-12
-1.44274e-06
-1.8674e-08
-1.44274e-06
-3.74565e-08
-1.44183e-06
-5.61901e-08
-1.43862e-06
-4.66746e-08
-1.33811e-06
-3.22694e-07
-2.80752e-19
5.4893e-08
-3.79258e-07
-1.3443e-19
6.03839e-08
-1.34433e-06
4.02368e-08
-1.41848e-06
2.00607e-08
-1.42166e-06
-2.51443e-12
-1.42268e-06
-2.0066e-08
-1.42267e-06
-4.02428e-08
-1.42165e-06
-6.03911e-08
-1.41848e-06
-5.48959e-08
-1.34431e-06
-3.79218e-07
-2.24478e-19
6.46837e-08
-4.45785e-07
-8.74921e-20
6.504e-08
-1.34526e-06
4.33348e-08
-1.39678e-06
2.16094e-08
-1.39993e-06
-6.44264e-12
-1.40106e-06
-2.16226e-08
-1.40106e-06
-4.33486e-08
-1.39993e-06
-6.50547e-08
-1.39677e-06
-6.46932e-08
-1.34525e-06
-4.45759e-07
-1.37317e-19
7.60545e-08
-5.23857e-07
-5.21231e-20
7.00781e-08
-1.33972e-06
4.66911e-08
-1.37339e-06
2.32827e-08
-1.37652e-06
-9.27401e-12
-1.37777e-06
-2.33016e-08
-1.37777e-06
-4.67106e-08
-1.37652e-06
-7.00981e-08
-1.37338e-06
-7.60705e-08
-1.33971e-06
-5.23852e-07
-6.78623e-20
8.83777e-08
-6.14368e-07
-2.47075e-20
7.50076e-08
-1.32655e-06
4.9897e-08
-1.34828e-06
2.48427e-08
-1.35147e-06
-1.01341e-11
-1.35292e-06
-2.48632e-08
-1.35291e-06
-4.99179e-08
-1.35146e-06
-7.50287e-08
-1.34827e-06
-8.83971e-08
-1.32654e-06
-6.14388e-07
-2.86175e-20
9.96271e-08
-7.16052e-07
-5.70467e-21
7.83992e-08
-1.30542e-06
5.18859e-08
-1.32177e-06
2.5717e-08
-1.3253e-06
-9.03758e-12
-1.32719e-06
-2.57351e-08
-1.32719e-06
-5.19039e-08
-1.32529e-06
-7.84164e-08
-1.32176e-06
-9.96419e-08
-1.30541e-06
-7.1609e-07
-7.51268e-21
1.01594e-07
-8.19357e-07
-6.39022e-22
7.7891e-08
-1.28176e-06
5.10116e-08
-1.29489e-06
2.52162e-08
-1.2995e-06
-6.73915e-12
-1.30197e-06
-2.52294e-08
-1.30196e-06
-5.10238e-08
-1.2995e-06
-7.7901e-08
-1.29488e-06
-1.01601e-07
-1.28176e-06
-8.194e-07
-2.93535e-21
9.47336e-08
-9.15348e-07
-7.59652e-23
7.02146e-08
-1.25725e-06
4.58967e-08
-1.27057e-06
2.3294e-08
-1.2769e-06
-3.96931e-12
-1.27867e-06
-2.33011e-08
-1.27867e-06
-4.59024e-08
-1.2769e-06
-7.02178e-08
-1.27057e-06
-9.4732e-08
-1.25725e-06
-9.15387e-07
-1.15497e-21
7.50081e-08
-9.91142e-07
-1.6145e-23
5.34748e-08