/*--------------------------------*- C++ -*----------------------------------*\
  =========                 |
  \\      /  F ield         | OpenFOAM: The Open Source CFD Toolbox
   \\    /   O peration     | Website:  https://openfoam.org
    \\  /    A nd           | Version:  8
     \\/     M anipulation  |
\*---------------------------------------------------------------------------*/
FoamFile
{
    version     2.0;
    format      ascii;
    class       volScalarField;
    location    "0.9";
    object      p_rgh;
}
// * * * * * * * * * * * * * * * * * * * * * * * * * * * * * * * * * * * * * //

dimensions      [1 -1 -2 0 0 0 0];

internalField   nonuniform List<scalar> 
9150
(
2533.91
2507.03
2481.42
2464.17
2455.8
2455.8
2464.17
2481.42
2507.03
2533.91
2524.67
2505.22
2489.46
2477.63
2471.6
2471.6
2477.63
2489.46
2505.22
2524.67
2515.02
2501.55
2492.89
2485.14
2480.99
2480.99
2485.14
2492.89
2501.55
2515.02
2509.9
2500
2494.41
2489.07
2486.07
2486.07
2489.07
2494.41
2500
2509.9
2508.18
2499.46
2494.72
2490.56
2488.11
2488.11
2490.56
2494.72
2499.46
2508.18
2069.78
2065.16
2090.3
2104.5
2110.85
2110.85
2104.5
2090.3
2065.16
2069.77
2259.45
2235.07
2229.61
2228.21
2228.05
2228.05
2228.21
2229.61
2235.07
2259.45
2383.73
2351.99
2335.87
2325.85
2320.97
2320.97
2325.85
2335.87
2351.99
2383.73
2483.73
2441.27
2413.21
2395.8
2387.17
2387.17
2395.8
2413.21
2441.27
2483.73
2552.49
2500.72
2462.08
2439.99
2429.77
2429.77
2439.99
2462.08
2500.72
2552.49
1884.28
1925.51
1917.8
1924.22
1920.02
1920.02
1924.22
1917.8
1925.51
1884.27
1910.97
1932.59
1913.85
1921.04
1918.29
1918.29
1921.04
1913.85
1932.59
1910.97
1886.4
1920.17
1891.78
1897.35
1901.39
1901.39
1897.35
1891.78
1920.17
1886.4
1727.53
1853.5
1874.68
1892.24
1907.92
1907.92
1892.24
1874.68
1853.5
1727.53
1611.22
1843.03
1941.1
1971.13
1986.17
1986.17
1971.13
1941.1
1843.03
1611.22
2379.28
2434.08
2475.88
2503.86
2517.66
2517.6
2503.7
2475.62
2433.76
2378.9
2111.56
2157.63
2194.12
2219.68
2233.34
2233.31
2219.56
2193.91
2157.34
2111.19
1844.4
1875.08
1899.39
1916.17
1924.76
1924.69
1915.96
1899.03
1874.55
1843.69
1724.39
1745.57
1762.03
1773.29
1778.93
1778.79
1772.87
1761.33
1744.55
1723.05
1700.25
1710.43
1718.37
1723.8
1726.47
1726.23
1723.08
1717.15
1708.67
1697.93
1747.12
1742.17
1739.55
1737.9
1736.97
1736.62
1736.85
1737.78
1739.65
1743.76
1832.28
1808.26
1795.1
1786.91
1782.62
1782.16
1785.55
1792.82
1804.96
1827.65
1914.49
1873.5
1853.31
1842.14
1836.32
1835.78
1840.52
1850.58
1869.4
1908.47
1971.52
1924.2
1899.82
1888.34
1882.81
1882.29
1886.79
1897.17
1920.23
1966.24
1999.06
1959.89
1932.35
1921.07
1916.59
1916.11
1919.62
1929.89
1956.33
1995.06
1988.34
1973.55
1948.59
1938.75
1935.79
1935.27
1937.2
1945.92
1969.74
1984.31
1960.4
1983.52
1961.06
1950.09
1947.38
1946.79
1948.27
1957.86
1979.01
1956.62
1921.66
1992.21
1972.16
1957.65
1953.95
1953.34
1955.76
1968.88
1987.71
1917.62
1875.85
1985.25
1972.23
1956.67
1952.5
1951.87
1954.74
1968.96
1980.84
1871.53
1826.57
1967.45
1964.59
1949.66
1945.25
1944.56
1947.55
1961.02
1962.55
1820.98
1755.45
1946.56
1958.08
1942.88
1937.03
1936.25
1940.5
1954.09
1941.53
1752.04
1672.81
1922.3
1949.73
1934.36
1926.73
1925.98
1932.12
1945.89
1916.35
1663.77
1608.17
1896.22
1935.1
1920.59
1911.92
1911.19
1918.43
1931.3
1889.54
1595.86
1546.1
1867.44
1914.67
1901.56
1892.34
1891.58
1899.32
1910.6
1859.76
1530.52
1493.89
1837.6
1888.42
1876.91
1867.65
1866.86
1874.56
1883.99
1829.03
1475.57
1452.45
1806.18
1855.63
1846
1837.35
1836.57
1843.63
1851.06
1797.29
1432.24
1421.25
1773.35
1817.08
1809.36
1801.85
1801.11
1807.1
1812.75
1765.08
1400.4
1397.1
1738.38
1773.43
1767.71
1761.73
1761.03
1765.58
1769.42
1730.99
1377.11
1382.44
1701.58
1725.93
1722.19
1718.01
1717.35
1720.16
1721.97
1691.98
1362.33
1395.42
1663.48
1676.67
1674.46
1672.09
1671.52
1672.71
1673.35
1655.51
1373.73
1406.91
1625.4
1627
1625.85
1625.01
1624.67
1624.84
1625.15
1620.58
1384.14
1406.22
1582.12
1574.75
1575.32
1575.88
1575.96
1575.59
1575.25
1581.38
1385.68
1406.12
1537.63
1522.94
1524.18
1525.56
1526.16
1526.1
1526.43
1542.29
1390.38
1409.04
1493.24
1470.45
1470.87
1472.32
1473.41
1474.26
1476.58
1502.24
1398.21
1398.04
1433.06
1406.02
1407.52
1409.77
1411.32
1412.28
1414.51
1445.7
1392.73
1349.84
1336.49
1318.18
1328.08
1333.99
1336.08
1334.45
1329.39
1353.66
1351.91
1222.51
1200.44
1213.08
1240.44
1253.76
1256.48
1248.71
1227.7
1223.21
1234.51
996.127
1059.53
1124.56
1173.04
1195.28
1198.37
1182.41
1140.87
1083.24
1012.05
839.393
1033.92
1126.53
1181.34
1207.69
1211.06
1191.68
1144.1
1058.56
855.31
1064.29
1256.63
1296.54
1324.84
1341.69
1345.12
1335.46
1314.87
1282
1079.15
1334.14
1508.01
1511.76
1517.76
1524.57
1526.64
1524.08
1522.36
1520.88
1332.49
1610.24
1763.12
1739.94
1728.49
1726.21
1727.22
1731.61
1745.17
1768.52
1599.74
1833.91
1982.7
1941.8
1918.33
1909.68
1910
1919.44
1944.1
1985.99
1826.2
1923.35
2115.15
2082.2
2057.08
2046.37
2045.4
2054.17
2077.38
2109.24
1909.08
1960.7
2207.26
2185.6
2159.28
2146.49
2144.11
2151.97
2172.92
2190.33
1934.72
1962.91
2264.82
2253.29
2225.78
2211.15
2207.52
2214.67
2233.99
2237.85
1921.47
1943.19
2292.13
2288.17
2259.85
2243.8
2239.2
2245.82
2263.83
2256.58
1884.1
1892.4
2286.51
2290.29
2262.49
2245.91
2240.87
2247.14
2263.52
2246.02
1819.35
1798.58
2245.66
2260.48
2235.12
2219.21
2214.33
2220.09
2233.63
2204.54
1722.36
1650.88
2169.06
2202.5
2182.56
2168.92
2165.1
2170.61
2180.71
2137.49
1591.04
1485.53
2075.96
2129.21
2115.7
2104.7
2102.18
2107.75
2114.39
2054.94
1437.99
1328.75
1984.67
2053.73
2045.48
2036.61
2035.36
2041.49
2045.8
1972.5
1287.47
1184.92
1902.31
1982.79
1978.21
1970.6
1970.29
1977.21
1980.05
1896.57
1148.38
1050.74
1828.13
1917.73
1916.04
1909.12
1909.47
1917.1
1918.49
1825.94
1019.48
926.384
1763.3
1861.2
1861.35
1854.42
1855.19
1863.58
1863.26
1748.91
901.149
812.054
1687.24
1811.62
1813.85
1806.39
1807.07
1815.68
1812.75
1671.27
790.44
708.198
1615.27
1766.87
1771.84
1764.24
1764.83
1773.31
1767.72
1605.83
695.722
626.622
1555.15
1727.18
1735.23
1728.19
1728.92
1737.17
1729.26
1549.58
622.905
571.293
1506.25
1694.54
1705.05
1698.74
1699.65
1707.67
1698.1
1503.41
569.976
523.638
1464.34
1669.43
1681.07
1674.84
1675.66
1683.39
1672.44
1461.28
521.78
457.032
1416.4
1647.91
1661.19
1654.69
1655.74
1664.25
1652.73
1419.19
465.593
376.352
1361.19
1628.06
1643.38
1635.86
1636.84
1646.23
1632.67
1364.83
384.742
295.534
1301.21
1607.39
1625.42
1616.99
1617.91
1628.19
1611.93
1305.23
302.572
220.822
1237.96
1583.69
1604.95
1596.08
1596.85
1607.27
1587.46
1241.14
225.32
160.542
1177.17
1558.01
1582
1573.33
1573.97
1583.97
1561.25
1180.16
163.724
116.95
1121.44
1530.73
1556.5
1548.65
1549.07
1557.78
1532.84
1123.66
119.069
83.6781
1071.1
1503.79
1530.14
1523.38
1523.6
1530.8
1504.85
1072.48
84.76
58.5478
1027.33
1478.98
1504.57
1498.93
1499.03
1504.89
1479.51
1028.41
59.2009
40.7236
990.563
1456.46
1480.3
1475.84
1475.89
1480.44
1456.73
991.558
41.1857
28.086
960.517
1436.99
1458.31
1454.99
1455.01
1458.36
1437.13
961.487
28.4277
19.0027
937.865
1421.24
1439.42
1437.08
1437.08
1439.44
1421.32
938.772
19.2643
12.676
920.622
1409.09
1423.88
1422.35
1422.35
1423.88
1409.13
921.524
12.8697
8.32271
910.98
1400.21
1411.59
1410.79
1410.79
1411.59
1400.24
911.724
8.49286
5.83795
904.831
1394.41
1402.58
1402.43
1402.43
1402.58
1394.43
905.649
5.94008
4.53824
906.149
1390.21
1397.02
1397.37
1397.37
1397.02
1390.24
906.922
4.67787
2.98014
910.223
1389.97
1394.48
1395.26
1395.26
1394.49
1389.99
910.639
3.11879
2.49945
918.89
1392.92
1394.59
1395.79
1395.79
1394.59
1392.91
919.288
2.63427
2.71939
931.396
1397.73
1397.19
1398.81
1398.81
1397.19
1397.72
931.682
2.9933
6.19914
947.461
1404.94
1402.47
1404.4
1404.41
1402.52
1405
947.723
6.57697
10.0737
967.352
1414.49
1410.35
1412.42
1412.44
1410.41
1414.58
967.55
10.157
13.6975
990.099
1425.26
1419.92
1422.17
1422.19
1419.97
1425.32
990.211
13.7914
19.0544
1015.58
1436.97
1430.84
1433.31
1433.33
1430.88
1437.03
1015.64
19.1512
25.5904
1043.8
1449.71
1443.1
1445.78
1445.8
1443.14
1449.78
1043.83
25.6591
33.5154
1074.7
1463.42
1456.59
1459.46
1459.48
1456.63
1463.5
1074.72
33.5764
43.1011
1108.22
1477.99
1471.18
1474.23
1474.25
1471.23
1478.07
1108.23
43.1532
54.5706
1144.3
1493.34
1486.79
1490
1490.02
1486.84
1493.43
1144.32
54.6191
68.2793
1182.9
1509.37
1503.33
1506.68
1506.7
1503.38
1509.47
1182.93
68.3276
84.6459
1223.94
1526.17
1520.75
1524.24
1524.25
1520.8
1526.25
1223.99
84.6959
104.204
1267.38
1543.67
1539.03
1542.63
1542.65
1539.08
1543.74
1267.42
104.255
127.62
1313.11
1561.88
1558.14
1561.86
1561.87
1558.19
1561.94
1313.16
127.671
155.734
1360.99
1580.82
1578.11
1581.92
1581.93
1578.15
1580.87
1361.04
155.78
189.607
1410.81
1600.53
1598.95
1602.85
1602.86
1598.98
1600.58
1410.84
189.643
230.586
1462.22
1621.07
1620.71
1624.69
1624.69
1620.73
1621.11
1462.24
230.609
280.405
1514.74
1642.53
1643.45
1647.5
1647.51
1643.47
1642.56
1514.76
280.413
341.286
1567.82
1665.02
1667.26
1671.36
1671.37
1667.27
1665.05
1567.84
341.281
416.127
1620.36
1688.69
1692.2
1696.33
1696.33
1692.21
1688.71
1620.38
416.118
508.404
1671.81
1713.63
1718.28
1722.38
1722.39
1718.29
1713.65
1671.83
508.402
622.514
1718.82
1739.78
1745.32
1749.33
1749.33
1745.33
1739.8
1718.85
622.531
761.032
1762.61
1766.72
1772.84
1776.74
1776.74
1772.84
1766.72
1762.63
761.08
928.579
1791.36
1793.75
1800.24
1804.11
1804.11
1800.24
1793.76
1791.37
928.653
1110.02
1820.75
1819.97
1826.78
1830.54
1830.54
1826.78
1819.97
1820.76
1110.1
1298.48
1842.13
1843.84
1850.72
1853.84
1853.84
1850.72
1843.84
1842.13
1298.55
1468.46
1860.97
1867.41
1872.64
1874.64
1874.64
1872.64
1867.4
1860.96
1468.5
1643.92
1893.08
1899.12
1896.2
1895.46
1895.46
1896.2
1899.12
1893.07
1643.93
1778.97
1935.52
1924.25
1915.46
1911.25
1911.25
1915.46
1924.25
1935.52
1778.97
2308.14
2221.87
2127.14
2027.84
1928.62
1834.21
1748.85
1675.79
1616.17
1567.66
1527.68
1494.94
1468.69
1448.04
1431.98
1419.66
1410.4
1403.67
1399.05
1396.21
1394.88
1394.85
1395.97
1398.07
1401.05
1404.8
1409.24
1414.26
1419.78
1425.73
1432
1438.49
1445.15
1451.82
1460.27
1465.89
1469.47
1472.07
1471.99
1473.22
2053.98
1984.18
1909.45
1834.09
1762.18
1697.3
1641.93
1596.92
1562.46
1538.54
1521.64
1508.92
1498.59
1489.59
1481.39
1473.84
1466.97
1460.92
1455.79
1451.64
1448.52
1446.42
1445.32
1445.17
1445.9
1447.43
1449.65
1452.45
1455.71
1459.27
1462.95
1466.53
1469.8
1472.81
1474.71
1473.87
1471.74
1472.47
1472.63
1475.26
1805.59
1759.55
1711.09
1663.75
1620.89
1584.95
1557.5
1538.94
1529.05
1526.19
1526.52
1526.4
1524.91
1522.33
1518.8
1514.55
1509.87
1505.1
1500.52
1496.36
1492.76
1489.8
1487.52
1485.92
1484.97
1484.61
1484.74
1485.25
1485.99
1486.81
1487.52
1487.91
1487.78
1487.11
1485.92
1484.02
1480.59
1479.96
1483.77
1497.77
1695.92
1663.5
1629.28
1595.36
1562.59
1526.62
1487.66
1457.42
1444.91
1455.16
1478.42
1497.74
1508.28
1513.8
1515.82
1516.09
1515.46
1514.1
1512.18
1510
1507.78
1505.7
1503.84
1502.26
1500.96
1499.92
1499.08
1498.36
1497.68
1496.9
1495.94
1494.71
1493.2
1491.54
1489.99
1489.03
1489.87
1494.88
1503.06
1517.39
1685.15
1672.56
1663
1645.45
1594.75
1477.67
1332.04
1257.05
1235.87
1253.97
1305.71
1386.54
1447.53
1485.2
1499.24
1503.04
1504.94
1506.64
1507.78
1508.21
1508.11
1507.66
1507.02
1506.27
1505.44
1504.57
1503.63
1502.61
1501.46
1500.15
1498.67
1497.06
1495.43
1494.08
1493.41
1494.15
1497.77
1507.22
1523.79
1537.07
1755.76
1783.63
1804.28
1712.92
1448.26
1213
1162.7
1154.77
1152.92
1155.09
1163.49
1188.38
1248.57
1365.08
1449.35
1479.43
1486.92
1490.66
1494.48
1497.82
1500.29
1501.96
1503.03
1503.63
1503.85
1503.74
1503.35
1502.69
1501.8
1500.72
1499.51
1498.3
1497.31
1496.91
1497.58
1500.09
1505.96
1517.97
1536.84
1551.99
1874.16
1929.71
1838.16
1448.45
1191.58
1158.51
1154.62
1154.12
1153.92
1153.57
1153.17
1153.54
1155.51
1179.46
1281.33
1415.91
1459.54
1471.6
1477.34
1482.96
1488.06
1492.11
1495.18
1497.45
1499.07
1500.12
1500.7
1500.89
1500.75
1500.39
1499.94
1499.58
1499.59
1500.36
1502.39
1506.4
1513.78
1526.97
1546.12
1561.88
1968.8
1931.63
1544.87
1186.85
1158.87
1154.29
1153.72
1153.69
1153.53
1153.3
1153.09
1153
1153.08
1153.55
1156.77
1243.88
1392.25
1445.53
1459.6
1467.24
1474.43
1480.82
1486.01
1490.09
1493.26
1495.68
1497.47
1498.75
1499.64
1500.27
1500.8
1501.46
1502.52
1504.38
1507.5
1512.51
1520.6
1533.76
1551.82
1566.6
1993.63
1780.23
1283.57
1159.51
1153.55
1152.93
1153.04
1153.04
1152.95
1152.86
1152.78
1152.71
1152.63
1152.59
1152.86
1153.8
1252.51
1399.1
1441.31
1454.09
1462.51
1470.45
1477.45
1483.22
1487.9
1491.69
1494.74
1497.18
1499.16
1500.84
1502.39
1504.03
1506.03
1508.75
1512.58
1518.04
1526.1
1538.33
1554.32
1567.08
1933.1
1514.9
1174.85
1154.01
1152.08
1152.25
1152.42
1152.43
1152.4
1152.37
1152.34
1152.31
1152.28
1152.22
1152.15
1152.25
1154.38
1289.13
1415.64
1442.92
1453.81
1462.47
1470.65
1477.81
1483.83
1488.85
1493.05
1496.58
1499.6
1502.24
1504.69
1507.17
1509.91
1513.2
1517.37
1522.83
1530.31
1540.99
1554.39
1564.81
1833.65
1339.64
1157.83
1151.93
1151.43
1151.71
1151.84
1151.87
1151.87
1151.87
1151.86
1151.85
1151.82
1151.77
1151.68
1151.55
1151.55
1172.73
1345.02
1429.63
1447.25
1457.16
1466.08
1474.28
1481.39
1487.45
1492.62
1497.07
1500.95
1504.38
1507.57
1510.68
1513.92
1517.51
1521.71
1526.81
1533.35
1542.15
1552.74
1560.75
1700.87
1228.9
1154.24
1151.02
1150.97
1151.21
1151.3
1151.33
1151.36
1151.38
1151.4
1151.4
1151.4
1151.38
1151.33
1151.22
1151.17
1151.62
1245.08
1408.4
1441.07
1453.81
1463.74
1472.76
1480.7
1487.55
1493.46
1498.59
1503.09
1507.12
1510.81
1514.32
1517.83
1521.48
1525.45
1529.96
1535.36
1542.17
1549.98
1555.64
1537.2
1172.86
1151.56
1150.2
1150.45
1150.66
1150.74
1150.79
1150.84
1150.89
1150.93
1150.97
1150.99
1151.02
1151.03
1151.03
1151.03
1151.1
1227.08
1406.43
1439.17
1453.43
1464.22
1473.69
1482.01
1489.24
1495.53
1501.03
1505.9
1510.25
1514.21
1517.91
1521.45
1524.95
1528.53
1532.32
1536.51
1541.39
1546.61
1549.94
1420.45
1155.46
1150.14
1149.74
1150.02
1150.15
1150.21
1150.26
1150.32
1150.39
1150.45
1150.52
1150.58
1150.64
1150.71
1150.81
1150.9
1150.69
1255.28
1420.15
1444.23
1457.58
1468.13
1477.31
1485.4
1492.5
1498.75
1504.28
1509.2
1513.6
1517.59
1521.24
1524.63
1527.82
1530.9
1533.9
1536.92
1540.04
1542.98
1544.45
1325.36
1153.14
1149.56
1149.36
1149.55
1149.63
1149.66
1149.71
1149.77
1149.85
1149.93
1150.02
1150.11
1150.2
1150.28
1150.37
1150.61
1158.21
1342.99
1441.89
1455.19
1466.03
1475.17
1483.29
1490.57
1497.07
1502.9
1508.11
1512.79
1516.98
1520.78
1524.19
1527.27
1530.05
1532.54
1534.77
1536.72
1538.31
1539.34
1539.31
1256.85
1151.61
1148.89
1148.8
1148.96
1149
1149.03
1149.09
1149.16
1149.26
1149.37
1149.48
1149.61
1149.74
1149.88
1149.93
1149.52
1246.53
1439.65
1460.4
1469.15
1477.04
1484.21
1490.84
1496.95
1502.53
1507.62
1512.25
1516.44
1520.23
1523.64
1526.66
1529.32
1531.6
1533.49
1534.99
1536.01
1536.34
1535.85
1534.66
1208.61
1150.33
1148.17
1148.12
1148.25
1148.28
1148.31
1148.37
1148.47
1148.59
1148.73
1148.9
1149.1
1149.32
1149.55
1149.69
1201.18
1424.42
1472.74
1477.96
1483.42
1488.77
1494.01
1499.06
1503.86
1508.36
1512.56
1516.43
1519.97
1523.19
1526.07
1528.6
1530.75
1532.5
1533.82
1534.66
1534.87
1534.21
1532.59
1530.76
1178.78
1148.76
1147.25
1147.28
1147.37
1147.4
1147.45
1147.53
1147.64
1147.79
1147.97
1148.19
1148.45
1148.73
1148.93
1180.35
1385.95
1488.9
1490.98
1493.71
1496.83
1500.21
1503.73
1507.28
1510.77
1514.14
1517.36
1520.38
1523.18
1525.73
1528
1529.96
1531.58
1532.81
1533.58
1533.85
1533.42
1532.02
1529.62
1527.39
1160.21
1146.72
1146.08
1146.22
1146.32
1146.37
1146.43
1146.54
1146.67
1146.84
1147.05
1147.31
1147.65
1147.93
1170.86
1358.4
1504.7
1506.82
1507.04
1507.86
1509.21
1510.96
1512.96
1515.13
1517.37
1519.62
1521.83
1523.96
1525.96
1527.8
1529.41
1530.79
1531.86
1532.57
1532.86
1532.64
1531.72
1529.82
1526.97
1524.45
1150.88
1144.91
1144.83
1145.05
1145.15
1145.2
1145.28
1145.38
1145.52
1145.68
1145.85
1146.08
1146.55
1156.72
1342.71
1517.52
1524.44
1522.5
1521.2
1520.57
1520.49
1520.83
1521.48
1522.37
1523.44
1524.62
1525.84
1527.07
1528.27
1529.37
1530.32
1531.1
1531.63
1531.87
1531.71
1531.05
1529.83
1527.66
1524.62
1522.03
1146.86
1143.59
1143.69
1143.88
1143.92
1143.94
1143.99
1144.09
1144.23
1144.42
1144.65
1144.9
1145.17
1281.75
1527.87
1543.1
1539.35
1536.19
1533.77
1531.96
1530.63
1529.73
1529.18
1528.91
1528.88
1529.03
1529.31
1529.66
1530.05
1530.42
1530.73
1530.91
1530.94
1530.72
1530.18
1529.18
1527.73
1525.53
1522.53
1520.03
1144.1
1142.71
1142.89
1142.8
1142.63
1142.55
1142.56
1142.66
1142.86
1143.18
1143.57
1143.73
1196.59
1503.07
1561.98
1557.14
1552.44
1548.43
1545.04
1542.15
1539.71
1537.69
1536.03
1534.69
1533.61
1532.81
1532.18
1531.68
1531.25
1530.95
1530.63
1530.27
1529.8
1529.17
1528.25
1527.09
1525.52
1523.38
1520.59
1518.32
1141.29
1142.08
1142.4
1141.67
1141.12
1140.85
1140.78
1140.85
1141.07
1141.48
1142.11
1147.97
1396.38
1580.63
1576.19
1570.05
1564.55
1559.65
1555.25
1551.31
1547.82
1544.74
1542.05
1539.71
1537.64
1535.86
1534.35
1533.05
1531.91
1530.92
1530.04
1529.14
1528.23
1527.19
1526.04
1524.74
1523.16
1521.17
1518.72
1516.76
1140.58
1141.52
1140.79
1139.46
1138.78
1138.49
1138.41
1138.5
1138.83
1139.45
1139.94
1213.76
1576.96
1596.8
1589.38
1582.23
1575.84
1570
1564.56
1559.56
1555.02
1550.92
1547.22
1543.92
1540.91
1538.27
1535.94
1533.87
1532.03
1530.36
1528.87
1527.53
1526.18
1524.84
1523.52
1522.12
1520.65
1518.84
1516.76
1514.89
1142.6
1139.24
1137.21
1135.91
1135.43
1135.28
1135.29
1135.44
1135.84
1136.89
1142.34
1429.74
1617.97
1611.15
1602.13
1593.96
1586.48
1579.58
1573.03
1566.95
1561.36
1556.24
1551.57
1547.33
1543.42
1539.96
1536.85
1534.09
1531.63
1529.29
1527.26
1525.41
1523.73
1522.16
1520.67
1519.27
1517.89
1516.36
1514.67
1511.47
1140.8
1134.69
1133.54
1132.11
1131.57
1131.45
1131.56
1131.86
1132.29
1132.55
1188.68
1606.95
1634.81
1624.69
1614.35
1605.08
1596.43
1588.36
1580.66
1573.48
1566.82
1560.68
1555.05
1549.91
1545.17
1540.9
1537.07
1533.68
1530.57
1527.68
1525.15
1522.9
1520.88
1519.08
1517.47
1516.09
1514.82
1513.62
1512.28
1509.37
1136.1
1132.1
1130.02
1127.72
1126.99
1126.95
1127.26
1128.02
1129.19
1128.98
1386.23
1655.24
1649.87
1637.68
1626.13
1615.61
1605.71
1596.32
1587.42
1579.09
1571.36
1564.21
1557.64
1551.61
1546.12
1541.09
1536.6
1532.53
1528.85
1525.53
1522.49
1519.88
1517.6
1515.63
1513.92
1512.49
1511.34
1510.47
1509.59
1507.03
1136.32
1145.49
1123.5
1121.22
1120.76
1120.97
1121.42
1122.31
1124.7
1156.79
1607.17
1677.69
1665.29
1650.83
1637.69
1625.6
1614.22
1603.37
1593.18
1583.68
1574.86
1566.72
1559.23
1552.38
1546.13
1540.45
1535.3
1530.65
1526.47
1522.73
1519.35
1516.39
1513.91
1511.76
1509.96
1508.48
1507.45
1506.88
1506.45
1504.19
1134.76
1159.5
1113.9
1113.38
1113.4
1113.93
1115.02
1116.33
1114.89
1331.88
1694.43
1697.34
1680.15
1663.54
1648.58
1634.67
1621.57
1609.21
1597.69
1587
1577.12
1568.03
1559.7
1552.08
1545.15
1538.85
1533.15
1528.02
1523.4
1519.28
1515.63
1512.43
1509.68
1507.36
1505.48
1504.05
1503.09
1502.78
1502.8
1501.39
1120.04
1146.31
1104.45
1104.71
1104.8
1105.26
1106.47
1110.22
1136.9
1604.04
1732.59
1716.91
1695.05
1675.85
1658.59
1642.46
1627.39
1613.43
1600.56
1588.72
1577.86
1567.92
1558.84
1550.58
1543.07
1536.27
1530.12
1524.59
1519.62
1515.2
1511.29
1507.88
1504.92
1502.45
1500.54
1499.1
1498.2
1498.1
1498.57
1499.12
1084.51
1101.64
1092.59
1094.52
1094.85
1095.8
1097.15
1095.42
1332.56
1751.81
1763.16
1735.38
1709.05
1686.69
1666.54
1647.95
1630.92
1615.4
1601.26
1588.41
1576.72
1566.09
1556.45
1547.7
1539.77
1532.61
1526.14
1520.32
1515.11
1510.47
1506.37
1502.79
1499.61
1497.05
1495.04
1493.59
1492.81
1492.79
1493.53
1494.27
988.875
1050.95
1078.31
1082.75
1082.97
1083.64
1088.18
1144.41
1664.22
1817.68
1788.59
1750.98
1720.25
1694.2
1670.87
1649.9
1631.09
1614.24
1599.12
1585.52
1573.28
1562.24
1552.28
1543.27
1535.13
1527.79
1521.16
1515.2
1509.86
1505.1
1500.88
1497.15
1493.89
1491.24
1489.14
1487.61
1486.86
1486.83
1487.64
1488.47
678.318
913.361
1056.3
1069.46
1070.54
1070.37
1068.01
1447.81
1874.71
1863.03
1806.81
1761.13
1725.66
1695.67
1669.48
1646.63
1626.61
1608.99
1593.4
1579.55
1567.18
1556.1
1546.14
1537.17
1529.07
1521.76
1515.16
1509.21
1503.87
1499.08
1494.79
1490.96
1487.72
1484.99
1482.8
1481.2
1480.35
1480.24
1481
1481.8
249.224
438.106
1020.34
1053.88
1062.19
1064.52
1273.62
1860.9
1944.63
1870.65
1804.3
1756.1
1718.08
1686.14
1659
1635.87
1615.93
1598.6
1583.42
1570.02
1558.12
1547.49
1537.94
1529.34
1521.57
1514.53
1508.15
1502.34
1497.09
1492.36
1488.12
1484.38
1481.11
1478.32
1476.06
1474.4
1473.32
1473.03
1473.6
1474.28
315.447
-129.172
553.773
1005
1079.7
1307.56
1864.91
2051.63
1943.58
1845.63
1779.34
1731.55
1693.88
1663.14
1637.78
1616.5
1598.36
1582.67
1568.96
1556.86
1546.1
1536.46
1527.75
1519.84
1512.69
1506.16
1500.15
1494.64
1489.67
1485.15
1481.06
1477.38
1474.11
1471.29
1468.99
1467.12
1465.8
1465.23
1465.48
1465.95
641.989
-40.383
196.847
441.156
1213.07
1759.95
1943.14
1869.64
1792.04
1739.03
1700.71
1669.89
1644.08
1622.31
1603.75
1587.72
1573.71
1561.33
1550.26
1540.35
1531.43
1523.29
1515.84
1508.97
1502.58
1496.76
1491.37
1486.39
1481.78
1477.52
1473.61
1470.04
1466.83
1464
1461.5
1459.41
1457.77
1456.87
1456.69
1456.88
978.374
459.173
625.027
688.655
1209.73
1533.85
1604.34
1608.7
1608.64
1606.74
1600.87
1592.2
1582.47
1572.55
1562.87
1553.6
1544.83
1536.57
1528.86
1521.66
1514.96
1508.64
1502.7
1497.12
1491.73
1486.77
1482.09
1477.74
1473.6
1469.67
1465.97
1462.52
1459.31
1456.35
1453.68
1451.34
1449.18
1447.07
1446.27
1446.21
1233.52
740.303
946.62
848.191
1086.68
1282.17
1385.46
1442.93
1479.88
1503.14
1516.33
1522.84
1525.1
1524.65
1522.48
1519.21
1515.31
1511.07
1506.64
1502.18
1497.7
1493.27
1488.83
1484.62
1480.46
1476.39
1472.55
1468.79
1465.11
1461.54
1458.08
1454.73
1451.52
1448.46
1445.59
1442.47
1440.32
1437.47
1436.15
1435.54
1316.88
910.858
1140.47
991.737
1098.62
1230.46
1315.22
1370.1
1409.23
1437.34
1456.94
1470.14
1478.72
1483.94
1486.74
1487.86
1487.74
1486.75
1485.12
1483.01
1480.55
1477.72
1474.85
1471.91
1469.09
1465.99
1462.86
1459.7
1456.51
1453.31
1450.08
1446.83
1443.59
1440.37
1436.88
1433.72
1431.23
1427.76
1425.74
1424.67
1293.47
1035.54
1200.4
1164.09
1156.08
1237.69
1298.83
1340.17
1372.07
1397.55
1417.31
1432.22
1443.24
1451.23
1456.91
1460.78
1463.26
1464.62
1465.11
1464.82
1463.97
1462.82
1461.33
1459.64
1457.79
1455.59
1453.21
1450.67
1447.97
1445.12
1442.09
1438.91
1435.59
1432.1
1428.19
1424.79
1421.76
1418.5
1415.55
1413.63
1262.68
1086.74
1172.67
1295.93
1206.39
1253.35
1298.92
1329.17
1353.19
1373.93
1391.33
1405.47
1416.75
1425.67
1432.67
1438.05
1442.09
1444.98
1446.85
1448.06
1448.68
1448.78
1448.44
1447.91
1446.84
1445.44
1443.76
1441.81
1439.59
1437.08
1434.24
1431.09
1427.61
1423.79
1419.39
1415.63
1411.72
1408.07
1404.84
1402.86
1225.76
1107.58
1134.98
1369.41
1242.46
1264.44
1301.55
1324.86
1342.74
1359.04
1373.62
1386.17
1396.76
1405.62
1412.97
1419.04
1423.86
1427.64
1430.68
1432.98
1434.62
1435.71
1436.47
1436.65
1436.36
1435.68
1434.53
1432.36
1431.51
1429.33
1426.7
1423.56
1419.9
1415.68
1410.75
1405.86
1401.09
1397.02
1393.52
1391.25
1174.06
1101.42
1090.22
1390.89
1267.06
1268.2
1301.49
1321.42
1335.34
1348.32
1360.51
1371.46
1381.1
1389.49
1396.73
1402.95
1408.17
1412.63
1416.33
1419.35
1421.8
1423.81
1425.2
1426.06
1426.48
1425.71
1423.1
1421.97
1422.34
1422.03
1419.75
1416.72
1413
1408.51
1402.77
1387.02
1389.23
1383.99
1381.17
1380.01
1098.16
1056.45
1032.35
1369.21
1283.19
1267.13
1298.52
1317.15
1328.76
1339.47
1349.86
1359.5
1368.21
1375.99
1383.01
1389.25
1394.75
1399.37
1403.48
1407.09
1410.21
1412.68
1414.65
1416.15
1416.38
1414.42
1414.57
1414.29
1413.54
1415.52
1413.65
1410.98
1407.57
1403.3
1397.41
1339.19
1175.93
1155.49
1210.62
1287.46
986.627
962.974
941.034
1312.75
1294.12
1265.43
1294.36
1312.24
1322.44
1331.57
1340.62
1349.18
1357.04
1364.35
1371.06
1377.22
1382.76
1387.66
1392
1395.96
1399.36
1402.29
1404.77
1406.78
1406.11
1406.1
1406.83
1407.13
1408.24
1409.77
1408.52
1406.62
1404.11
1400.92
1395.98
1327.25
1054.16
975.573
968.458
984.205
857.279
842.844
828.015
1232.66
1310.47
1271.19
1293.04
1308.3
1316.84
1324.46
1332.27
1339.84
1347.07
1353.89
1360.28
1366.3
1371.78
1376.8
1381.37
1385.5
1389.2
1392.5
1395.41
1397.88
1398.09
1398.13
1399.4
1401.25
1404.12
1404.23
1403.72
1402.66
1401.09
1398.99
1395.23
1345.04
1109.06
969.724
962.891
962.269
742.289
729.811
721.231
1142.42
1319.63
1277.17
1291.79
1303.76
1310.75
1317.21
1324.05
1330.9
1337.62
1344.07
1350.28
1356.1
1361.54
1366.61
1371.31
1375.63
1379.58
1383.16
1386.39
1389.24
1391.23
1392.02
1393.58
1396.74
1397.97
1398.56
1398.71
1398.38
1397.62
1396.43
1393.86
1368.48
1114.08
961.379
956.57
952.368
646.945
636.167
630.225
1087.46
1307.63
1272.54
1284.98
1295.69
1302.32
1308.54
1315.08
1321.69
1328.19
1334.51
1340.6
1346.35
1351.79
1356.91
1361.71
1366.18
1370.32
1374.13
1377.61
1380.75
1383.56
1386.01
1388.12
1389.94
1391.38
1392.44
1393.11
1393.35
1393.2
1392.71
1391.17
1373.56
1090.46
951.793
944.143
941.548
562.42
552.288
547.766
1044.63
1286.39
1261.07
1274.02
1284.8
1291.93
1298.57
1305.35
1312.06
1318.63
1325.04
1331.1
1336.88
1342.36
1347.55
1352.44
1357.02
1361.29
1365.27
1368.93
1372.29
1375.32
1378.04
1380.44
1382.5
1384.23
1385.59
1386.58
1387.15
1387.33
1387.13
1386
1374.16
1147.12
948.063
938.011
931.923
480.358
470.595
467.347
1010.84
1263.55
1247.28
1261.18
1272.52
1280.54
1287.9
1295.19
1302.25
1309.07
1315.58
1321.77
1327.58
1333.1
1338.47
1343.43
1348.09
1352.45
1356.52
1360.29
1363.77
1366.95
1369.81
1372.36
1374.58
1376.45
1377.95
1379.07
1379.75
1379.96
1379.65
1378.09
1368.33
1316.66
1243.2
1170.02
1183
405.149
394.273
394.094
983.4
1242.7
1233.22
1247.95
1260.02
1268.99
1277.13
1284.99
1292.5
1299.61
1306.32
1312.63
1318.55
1324.21
1329.57
1334.67
1339.38
1343.78
1347.88
1351.69
1355.21
1358.43
1361.34
1363.94
1366.21
1368.14
1369.7
1370.85
1371.57
1371.79
1371.39
1369.6
1365.25
1365.75
1361.67
1355.4
1349.28
348.278
333.435
340.514
965.615
1224.58
1219.82
1235.38
1248.2
1257.99
1266.83
1275.22
1283.12
1290.52
1297.46
1303.87
1309.95
1315.68
1321.06
1326.21
1330.94
1335.33
1339.41
1343.19
1346.66
1349.83
1352.69
1355.24
1357.48
1359.4
1360.94
1362.1
1362.81
1363.03
1362.63
1361.42
1359.96
1357.26
1352.91
1346.69
1341.54
315.568
295.682
314.035
968.563
1211.34
1208.92
1224.84
1237.98
1248.26
1257.51
1266.33
1274.52
1282.15
1289.24
1295.77
1301.9
1307.67
1313.05
1318.19
1322.87
1327.2
1331.19
1334.86
1338.21
1341.23
1343.94
1346.35
1348.46
1350.31
1351.83
1352.97
1353.68
1353.91
1353.59
1352.7
1351.13
1348.64
1344.75
1339.56
1335.5
303.002
280.381
315.075
990.317
1200.09
1199.19
1215.82
1229.31
1239.86
1249.49
1258.59
1267
1274.74
1281.91
1288.52
1294.59
1300.31
1305.7
1310.69
1315.26
1319.45
1323.3
1326.8
1329.95
1332.75
1335.2
1337.32
1339.22
1340.95
1342.43
1343.56
1344.28
1344.55
1344.33
1343.61
1341.25
1328.11
1315.3
1317.68
1320.56
291.911
275.588
308.965
991.556
1186.07
1187.7
1206.94
1221.69
1232.88
1242.93
1252.23
1260.77
1268.52
1275.64
1282.2
1288.25
1293.83
1299.06
1303.84
1308.23
1312.24
1315.89
1319.17
1322.09
1324.61
1326.7
1323.91
1310.97
1331.45
1332.93
1334.03
1334.81
1333.58
1325.93
1306.9
1293.12
1288.29
1286.57
1284.28
1282.62
266.989
259.32
278.258
973.849
1172.36
1177.16
1199.73
1216.12
1227.99
1238.26
1247.59
1256.01
1263.6
1270.53
1276.91
1282.78
1288.2
1293.19
1297.78
1301.96
1305.76
1309.18
1312.24
1314.94
1316.8
1305.55
1261.31
1254.9
1280.28
1309.04
1317.51
1324.4
1315.6
1282.26
1280.64
1280.33
1280.12
1279.83
1279.39
1278.96
210.298
207.645
205.199
921.965
1168.93
1174.42
1197.99
1214.94
1226.68
1236.3
1245.01
1252.85
1259.99
1266.56
1272.64
1278.27
1283.47
1288.25
1292.62
1296.59
1300.15
1303.31
1306.09
1308.49
1309.59
1262.25
1244.66
1245.52
1246.07
1248.87
1285.79
1311.11
1304.45
1270.64
1270.69
1270.53
1281.96
1292.55
1299.76
1302.16
153.229
150.982
148.62
722.786
1179.56
1182.67
1205.14
1221.35
1230.82
1237.98
1244.74
1251.3
1257.59
1263.58
1269.26
1274.62
1279.62
1284.24
1288.43
1292.19
1295.49
1298.33
1300.73
1302.7
1304.32
1263.84
1236.52
1237.09
1237.23
1237.18
1280.11
1301.13
1299.57
1287.96
1273.15
1292.9
1304.69
1309.34
1313.08
1315.92
102.202
100.031
92.003
247.168
1034.99
1194.28
1222.4
1239.23
1243.21
1244.28
1246.98
1251.19
1256.09
1261.27
1266.52
1271.66
1276.54
1281.07
1285.14
1288.71
1291.74
1294.2
1296.12
1297.55
1298.59
1290.31
1256.54
1229.46
1229.36
1268.64
1289.93
1294.1
1295.53
1294.53
1293.19
1294.08
1295.4
1298.89
1304.74
1309.59
65.7001
65.9231
63.8368
59.3442
370.01
988.893
1089.04
1051.18
1177.96
1247.89
1248
1250.31
1254.12
1258.75
1263.83
1269.01
1274.01
1278.6
1282.68
1286.16
1288.99
1291.1
1292.48
1293.26
1293.61
1293.66
1291.43
1277.29
1278.95
1289.55
1289.2
1287.15
1285.16
1283.2
1281.63
1280.83
1281.66
1285.77
1293.67
1300.58
44.4716
45.3439
44.8214
41.5108
40.0738
218.813
251.192
200.458
430.5
965.938
1230.27
1239.18
1247.03
1253.74
1260.16
1266.37
1272.16
1277.37
1282.04
1286.26
1289.78
1291.96
1292.61
1292.14
1291.16
1290.1
1289.04
1287.86
1286.4
1284.62
1282.49
1280.07
1277.35
1274.42
1271.49
1269.08
1268.27
1271.4
1279.79
1288.09
29.7506
31.0209
31.1308
29.6567
27.2759
26.0799
19.9226
17.6704
17.8053
172.649
629.16
1065.79
1237.59
1247.98
1257.51
1266.06
1273.55
1280.08
1286.03
1291.03
1293.28
1292.69
1292.17
1291.57
1290.58
1289.42
1287.98
1286.16
1284.01
1281.74
1279.32
1276.35
1272.34
1267.45
1262.54
1258.14
1254.39
1253.51
1259.85
1270.48
19.8135
21.1924
21.5606
20.7577
18.9582
16.9006
15.2252
14.1076
14.1198
14.5727
32.6727
234.471
633.072
992.328
1203.77
1266.9
1276.88
1282.09
1243.28
1106.96
800.028
662.666
709.909
841.477
1009.58
1162.97
1216.79
1192.52
1125.29
1042.99
973.607
890.19
777.856
678.35
635.353
646.426
677.784
697.568
765.717
971.092
13.9272
15.0991
15.5997
15.3224
14.4436
13.2715
12.3069
11.6336
11.2755
11.0593
11.0012
10.6939
25.3152
145.024
374.932
697.998
748.907
653.479
484.613
263.787
66.8271
20.6682
24.9826
52.9335
131.021
272.494
358.775
329.491
244.934
161.122
110.912
71.4631
36.8773
17.9201
12.3366
13.5922
17.7094
20.3783
33.6501
124.984
10.2253
11.1622
11.6633
11.6727
11.3272
10.7493