/*--------------------------------*- C++ -*----------------------------------*\
  =========                 |
  \\      /  F ield         | OpenFOAM: The Open Source CFD Toolbox
   \\    /   O peration     | Website:  https://openfoam.org
    \\  /    A nd           | Version:  8
     \\/     M anipulation  |
\*---------------------------------------------------------------------------*/
FoamFile
{
    version     2.0;
    format      ascii;
    class       volVectorField;
    location    "9.95";
    object      U;
}
// * * * * * * * * * * * * * * * * * * * * * * * * * * * * * * * * * * * * * //

dimensions      [0 1 -1 0 0 0 0];

internalField   nonuniform List<vector> 
9150
(
(0.00473745 -0.0786376 0)
(0.0128497 -0.0978898 0)
(0.0104259 -0.10485 0)
(0.00809854 -0.108122 0)
(0.00160323 -0.109404 0)
(-0.00323593 -0.109206 0)
(-0.00921322 -0.107693 0)
(-0.0113144 -0.10399 0)
(-0.0132904 -0.0969476 0)
(-0.00506039 -0.0777761 0)
(0.00587979 -0.0922336 0)
(0.00834177 -0.10079 0)
(0.00699036 -0.102514 0)
(0.00376538 -0.104664 0)
(0.00153179 -0.105513 0)
(-0.00235249 -0.105525 0)
(-0.00482722 -0.104382 0)
(-0.00774044 -0.10201 0)
(-0.00884737 -0.100258 0)
(-0.00598386 -0.0917932 0)
(0.00173902 -0.0955837 0)
(0.00442376 -0.0991425 0)
(0.00342613 -0.101147 0)
(0.00291635 -0.101763 0)
(0.000271098 -0.102509 0)
(-0.00132331 -0.102356 0)
(-0.00369064 -0.1016 0)
(-0.00398919 -0.100881 0)
(-0.00471092 -0.0988307 0)
(-0.00177203 -0.0953324 0)
(0.00170901 -0.0984578 0)
(0.0023518 -0.100425 0)
(0.00201038 -0.100235 0)
(0.00110992 -0.100846 0)
(0.000465124 -0.10088 0)
(-0.000852896 -0.100854 0)
(-0.00144664 -0.100885 0)
(-0.00237232 -0.100167 0)
(-0.00258333 -0.100377 0)
(-0.00178949 -0.098391 0)
(0.00017631 -0.0994859 0)
(0.000722539 -0.0995871 0)
(0.000432787 -0.100056 0)
(0.00061922 -0.0999178 0)
(4.1881e-05 -0.100136 0)
(-0.000187824 -0.100088 0)
(-0.000735657 -0.0998236 0)
(-0.000488731 -0.100037 0)
(-0.000731777 -0.0995685 0)
(-0.000192692 -0.0994978 0)
(0.0770521 -0.2056 3.3695e-26)
(0.0473242 -0.191473 0)
(0.0223781 -0.179128 0)
(0.00866992 -0.177579 0)
(-0.00570816 -0.176288 0)
(-0.0119703 -0.173739 0)
(-0.0257482 -0.170101 0)
(-0.036326 -0.172289 0)
(-0.0514057 -0.178224 0)
(-0.0746476 -0.185025 -1.45413e-26)
(0.0591421 -0.151007 8.42152e-27)
(0.0468382 -0.150483 0)
(0.0275951 -0.161303 0)
(0.0176502 -0.15951 0)
(0.00295977 -0.156707 0)
(-0.00802091 -0.154996 0)
(-0.0212237 -0.154307 0)
(-0.0293586 -0.152361 0)
(-0.0492328 -0.142751 0)
(-0.0578413 -0.142578 -3.80404e-27)
(0.0479614 -0.123865 4.51904e-27)
(0.0424418 -0.133583 0)
(0.0270565 -0.135101 0)
(0.0149039 -0.139156 0)
(0.00180005 -0.140926 0)
(-0.00937344 -0.139305 0)
(-0.0211775 -0.135941 0)
(-0.0314142 -0.131809 0)
(-0.0429305 -0.129173 0)
(-0.0472823 -0.119378 -1.47736e-27)
(0.0375464 -0.100678 4.2502e-27)
(0.0386318 -0.111414 0)
(0.0223 -0.121845 0)
(0.016409 -0.12571 0)
(0.00309814 -0.125366 0)
(-0.00556954 -0.125733 0)
(-0.0185431 -0.124639 0)
(-0.0232099 -0.119408 0)
(-0.0391689 -0.109067 0)
(-0.0370068 -0.0983138 -4.8145e-27)
(0.0247164 -0.0822082 -1.35401e-26)
(0.0279254 -0.101814 -1.60777e-26)
(0.0192744 -0.109005 -3.91617e-27)
(0.0100944 -0.114323 -3.13605e-27)
(0.0038258 -0.117189 -2.33172e-29)
(-0.00561333 -0.116283 -2.65788e-28)
(-0.0119715 -0.113413 -3.94046e-27)
(-0.020558 -0.107507 -4.18782e-27)
(-0.0282322 -0.100552 -1.61519e-26)
(-0.0247134 -0.0808316 -1.35182e-26)
(-0.0487675 -0.454779 0)
(-0.104994 -0.356227 0)
(-0.109701 -0.291451 0)
(-0.127365 -0.250316 0)
(-0.123371 -0.221456 0)
(-0.118528 -0.190296 0)
(-0.0896506 -0.15106 0)
(-0.0609392 -0.125206 0)
(-0.0326634 -0.0979565 0)
(-0.0298776 -0.0244051 0)
(-0.0171178 -0.258612 0)
(-0.0522947 -0.271977 0)
(-0.0549139 -0.254427 0)
(-0.0762405 -0.239257 0)
(-0.0728395 -0.207257 0)
(-0.069311 -0.18339 0)
(-0.0630397 -0.174312 0)
(-0.0598635 -0.163588 0)
(-0.0329064 -0.140042 0)
(-0.0318113 -0.0978965 0)
(0.00857302 -0.235284 0)
(-0.0267462 -0.253039 0)
(-0.023995 -0.243455 0)
(-0.0415296 -0.223821 0)
(-0.0413676 -0.212985 0)
(-0.0407805 -0.204853 0)
(-0.0362257 -0.191174 0)
(-0.0324474 -0.178344 0)
(-0.0125636 -0.166971 0)
(-0.0199989 -0.136358 0)
(0.010947 -0.220508 0)
(-0.022489 -0.226891 0)
(-0.0114278 -0.222366 0)
(-0.0232361 -0.218561 0)
(-0.0222466 -0.209526 0)
(-0.0215193 -0.199313 0)
(-0.0237477 -0.194818 0)
(-0.0244142 -0.190393 0)
(-0.00392128 -0.182234 0)
(-0.0219858 -0.170499 0)
(0.0394416 -0.237623 0)
(0.00215061 -0.217774 0)
(0.0121491 -0.215279 0)
(-1.95942e-05 -0.202631 0)
(-0.00811467 -0.194264 0)
(-0.0141993 -0.191496 0)
(-0.0197079 -0.192331 0)
(-0.0231619 -0.19314 0)
(-0.0138634 -0.194024 0)
(-0.0343095 -0.199321 0)
(0.00790104 -0.000614926 0)
(0.00482345 -0.00079265 0)
(0.00319038 0.000244767 0)
(0.00156553 0.000627994 0)
(-0.000216033 0.00061471 0)
(-0.00228336 0.0013457 0)
(-0.00566482 0.00309789 0)
(-0.00903722 0.00261443 0)
(-0.0105197 0.00141715 0)
(-0.0121782 0.00203866 0)
(0.0225114 0.018085 0)
(0.0137549 0.01044 0)
(0.00744204 0.00669109 0)
(0.00306233 0.00673385 0)
(0.000918073 0.00770114 0)
(-0.00472635 0.00964198 0)
(-0.0103796 0.0105582 0)
(-0.0130173 0.00759742 0)
(-0.0149552 0.0049379 0)
(-0.0167099 0.00453796 0)
(0.0302681 0.0334297 0)
(0.0229344 0.0290716 0)
(0.0147395 0.0207404 0)
(0.0093444 0.0131207 0)
(0.00622683 0.0142408 0)
(0.00436781 0.0236827 0)
(-0.00466556 0.0195604 0)
(-0.0103592 0.0116365 0)
(-0.0135463 0.00891643 0)
(-0.0144611 0.00654967 0)
(0.0319619 0.0445117 0)
(0.0292365 0.0417873 0)
(0.0237848 0.0347882 0)
(0.0158764 0.0251493 0)
(0.00809111 0.0210028 0)
(0.00721215 0.0285421 0)
(0.00550421 0.0374941 0)
(-0.000572626 0.0259907 0)
(-0.00492404 0.0111203 0)
(-0.00960009 0.00466901 0)
(0.0276983 0.0465058 0)
(0.0255928 0.0469627 0)
(0.0211259 0.045534 0)
(0.015672 0.0405847 0)
(0.0107386 0.0312027 0)
(0.0100018 0.029215 0)
(0.0126162 0.0352837 0)
(0.0148454 0.0325612 0)
(0.0131382 0.0281315 0)
(0.00952318 0.0173189 0)
(0.0160738 0.0519506 0)
(0.0125928 0.054708 0)
(0.0105284 0.0547225 0)
(0.00908274 0.046328 0)
(0.0079937 0.0344503 0)
(0.00881031 0.0262926 0)
(0.0110714 0.027852 0)
(0.0157755 0.0275274 0)
(0.0194821 0.0244762 0)
(0.0218989 0.0175899 0)
(-0.000152564 0.0576475 0)
(-0.000644148 0.0574386 0)
(0.000433515 0.0538131 0)
(0.00349651 0.0439254 0)
(0.00594975 0.0333525 0)
(0.00675947 0.0241039 0)
(0.00811272 0.0199494 0)
(0.0111971 0.0156501 0)
(0.0151525 0.0153648 0)
(0.0176345 0.0132147 0)
(-0.00637426 0.0561433 0)
(-0.0050258 0.0553496 0)
(-0.00353975 0.0478692 0)
(-0.000905101 0.0354074 0)
(0.00266173 0.0274848 0)
(0.0044669 0.0216201 0)
(0.00587846 0.0164941 0)
(0.00682131 0.0120459 0)
(0.00826631 0.0111633 0)
(0.00887265 0.00862863 0)
(-0.0102598 0.0507515 0)
(-0.00727551 0.0505587 0)
(-0.00355284 0.0429499 0)
(5.98727e-05 0.0305852 0)
(0.00299162 0.0231178 0)
(0.00520857 0.0186369 0)
(0.00714678 0.0145903 0)
(0.007406 0.0118316 0)
(0.00736722 0.0109354 0)
(0.00766951 0.00741385 0)
(-0.0111682 0.0440785 0)
(-0.00756352 0.0418625 0)
(-0.00360641 0.0328349 0)
(0.00144884 0.0218736 0)
(0.00556894 0.0153963 0)
(0.00935225 0.0132096 0)
(0.0106893 0.0129438 0)
(0.0101088 0.0126185 0)
(0.00810117 0.0114982 0)
(0.00777539 0.00854637 0)
(-0.00558472 0.0377179 0)
(-0.000879812 0.036317 0)
(0.00498743 0.025602 0)
(0.0110401 0.0132597 0)
(0.0141867 0.00778579 0)
(0.0159199 0.00785092 0)
(0.0162524 0.0135949 0)
(0.0112322 0.0182774 0)
(0.00851521 0.0148862 0)
(0.00859121 0.00793526 0)
(-0.00177044 0.0237745 0)
(0.00557136 0.0210802 0)
(0.0138821 0.0103872 0)
(0.0177746 0.00587235 0)
(0.018124 0.00606287 0)
(0.0164044 0.00886078 0)
(0.0123883 0.0221045 0)
(0.00691781 0.0276929 0)
(0.00635356 0.015285 0)
(0.00609046 0.00572008 0)
(0.000629437 0.00917772 0)
(0.00842411 0.00307575 0)
(0.0134973 0.00106464 0)
(0.015071 0.00278044 0)
(0.0144352 0.0094613 0)
(0.0105709 0.0189588 0)
(0.00869999 0.0306568 0)
(0.00861215 0.0306727 0)
(0.00859128 0.0167923 0)
(0.00680401 0.00824213 0)
(0.000185367 -0.0077768 0)
(0.00644055 -0.0067796 0)
(0.00886298 -0.0012297 0)
(0.00966605 0.00489506 0)
(0.00913365 0.0154254 0)
(0.00754766 0.0219858 0)
(0.00817783 0.0280434 0)
(0.00967383 0.0284077 0)
(0.00940914 0.0205949 0)
(0.00523183 0.0152838 0)
(0.00715884 -0.0129995 0)
(0.00929686 -0.0133024 0)
(0.0109076 -0.00617701 0)
(0.0111656 0.00300737 0)
(0.0115883 0.014259 0)
(0.0112199 0.0219781 0)
(0.010928 0.0243784 0)
(0.010043 0.0292906 0)
(0.00709349 0.0260679 0)
(0.000241278 0.0291389 0)
(0.0111933 -0.016739 0)
(0.0108126 -0.0149526 0)
(0.011239 -0.00413477 0)
(0.0103648 0.00216733 0)
(0.01153 0.0132709 0)
(0.0120973 0.0239691 0)
(0.0105859 0.0278686 0)
(0.00820436 0.0359439 0)
(0.00288822 0.039399 0)
(-0.00460459 0.0444524 0)
(0.00397368 -0.0194014 0)
(0.00482144 -0.0121712 0)
(0.0066323 -0.00435301 0)
(0.0106107 0.00262925 0)
(0.0124232 0.012813 0)
(0.012082 0.024728 0)
(0.0101922 0.033476 0)
(0.00638282 0.0434048 0)
(0.00118108 0.0516238 0)
(-0.00537006 0.0609481 0)
(0.000381144 -0.0256821 0)
(0.00493265 -0.0219328 0)
(0.00901355 -0.0189244 0)
(0.0123973 -0.0102878 0)
(0.00956246 0.00844282 0)
(0.00839401 0.0254376 0)
(0.00591617 0.0395687 0)
(0.00220134 0.0527919 0)
(-0.00133019 0.0609824 0)
(-0.00630411 0.0738522 0)
(-0.00982498 -0.0367299 0)
(-0.00578614 -0.0311408 0)
(-0.00566231 -0.018979 0)
(-0.00776325 0.00380416 0)
(-0.00754227 0.0195646 0)
(-0.00732203 0.0325987 0)
(-0.00678891 0.0459389 0)
(-0.00610614 0.0573198 0)
(-0.00687519 0.0678159 0)
(-0.00965679 0.0839751 0)
(-0.0215855 -0.0355687 0)
(-0.0231808 -0.0296145 0)
(-0.0247775 -0.015111 0)
(-0.0224169 -0.00315899 0)
(-0.0207946 0.010702 0)
(-0.0185199 0.0259205 0)
(-0.0175163 0.0406726 0)
(-0.0156775 0.0561477 0)
(-0.0153426 0.072012 0)
(-0.0162828 0.0867183 0)
(-0.0235237 -0.0315153 0)
(-0.0283084 -0.0258807 0)
(-0.0311206 -0.0156327 0)
(-0.0312479 -0.0043395 0)
(-0.0322537 0.00959155 0)
(-0.0299143 0.0263088 0)
(-0.0283841 0.0386072 0)
(-0.0258643 0.0531778 0)
(-0.0224176 0.0700211 0)
(-0.0192126 0.0822247 0)
(-0.0246267 -0.017229 0)
(-0.032503 -0.0156548 0)
(-0.0372055 -0.00872135 0)
(-0.0400029 -0.000468355 0)
(-0.0422408 0.00836355 0)
(-0.0407523 0.0216805 0)
(-0.0390939 0.0326084 0)
(-0.0361895 0.0449761 0)
(-0.0307387 0.061099 0)
(-0.0249867 0.0713615 0)
(-0.0268252 -0.00497488 0)
(-0.0325227 -0.00238596 0)
(-0.03886 -0.000349231 0)
(-0.0422079 0.00485461 0)
(-0.0445437 0.0124316 0)
(-0.0444258 0.0199709 0)
(-0.0432428 0.0279916 0)
(-0.0414391 0.036496 0)
(-0.0368481 0.048967 0)
(-0.0304239 0.0551645 0)
(-0.0213611 0.00669289 0)
(-0.0292414 0.0074475 0)
(-0.0356998 0.0114498 0)
(-0.0389281 0.0125916 0)
(-0.0409865 0.0147214 0)
(-0.0413264 0.0195153 0)
(-0.0394978 0.0258025 0)
(-0.0368886 0.0308177 0)
(-0.0313012 0.0372355 0)
(-0.0243314 0.0417548 0)
(-0.00102525 0.0431037 0)
(-0.0157543 0.0211898 0)
(-0.0239436 0.0173823 0)
(-0.0292078 0.0149901 0)
(-0.0313033 0.0150558 0)
(-0.0312942 0.0160085 0)
(-0.0275857 0.017649 0)
(-0.0239195 0.0209901 0)
(-0.018461 0.023756 0)
(-0.0121262 0.0265858 0)
(0.025325 0.0744689 0)
(0.0149811 0.0520704 0)
(0.00668762 0.0380372 0)
(-0.00252552 0.0321541 0)
(-0.00927638 0.0192349 0)
(-0.0127953 0.0119243 0)
(-0.0114214 0.00980546 0)
(-0.00801211 0.0112297 0)
(-0.00363821 0.0130919 0)
(0.00173303 0.0159498 0)
(0.0253639 0.0758973 0)
(0.0246432 0.062669 0)
(0.0209228 0.0502099 0)
(0.0166702 0.0463125 0)
(0.0144697 0.0374261 0)
(0.0115536 0.0214081 0)
(0.0120053 0.00751545 0)
(0.0136881 0.0050173 0)
(0.0155519 0.0055873 0)
(0.0181742 0.00818575 0)
(0.0200002 0.0727101 0)
(0.0215543 0.0633194 0)
(0.0217827 0.0536822 0)
(0.0236319 0.0433602 0)
(0.0276272 0.0351951 0)
(0.0299091 0.0197768 0)
(0.0300982 0.00595796 0)
(0.0296508 0.00404117 0)
(0.0296495 0.0052422 0)
(0.0279659 0.00809948 0)
(0.013596 0.0612461 0)
(0.0172465 0.0565888 0)
(0.0211157 0.0478186 0)
(0.0258418 0.0318287 0)
(0.029649 0.0274444 0)
(0.0314294 0.0165682 0)
(0.0313194 0.00714174 0)
(0.0305504 0.00649661 0)
(0.0305538 0.00916084 0)
(0.0274201 0.0151691 0)
(-0.00805266 0.0492553 0)
(-0.00139578 0.0505208 0)
(0.00608169 0.0371989 0)
(0.0130548 0.0287932 0)
(0.0167904 0.0250767 0)
(0.0199608 0.0137743 0)
(0.0204014 0.00764407 0)
(0.0221432 0.00747223 0)
(0.024616 0.0101103 0)
(0.0290531 0.0195994 0)
(-0.0380258 0.036912 0)
(-0.0218657 0.0248827 0)
(-0.0151568 0.0121635 0)
(-0.00742372 0.0107196 0)
(-0.0050256 0.0153936 0)
(-0.0030959 0.0116904 0)
(0.00430779 0.0035248 0)
(0.0117165 0.00011742 0)
(0.0204469 -0.005902 0)
(0.0266782 0.00705908 0)
(-0.0466259 0.009568 0)
(-0.0404874 0.00468842 0)
(-0.0367545 0.00537874 0)
(-0.0337423 0.0117608 0)
(-0.0306453 0.0108262 0)
(-0.0183235 -0.00994755 0)
(-0.00771353 -0.0255247 0)
(0.00512405 -0.0239202 0)
(0.0104547 -0.0168151 0)
(0.0176098 -0.00882736 0)
(-0.0348357 0.00430072 0)
(-0.0300767 0.000799618 0)
(-0.023715 -1.57894e-05 0)
(-0.0149504 -0.00231683 0)
(-0.00635984 -0.00932524 0)
(0.00449712 -0.0321577 0)
(0.00482513 -0.043243 0)
(0.0044928 -0.0372188 0)
(0.0111202 -0.0312622 0)
(0.0200659 -0.0384456 0)
(0.00573306 -0.0161509 0)
(0.016838 -0.0199909 0)
(0.0284879 -0.0234666 0)
(0.0395276 -0.0259034 0)
(0.0493626 -0.0269524 0)
(0.0543325 -0.0290594 0)
(0.0505056 -0.0287696 0)
(0.0439978 -0.0363285 0)
(0.0422351 -0.0429329 0)
(0.0444534 -0.0481862 0)
(0.0391798 -0.033455 0)
(0.0457779 -0.0403363 0)
(0.0534345 -0.044763 0)
(0.0614965 -0.0460178 0)
(0.0693624 -0.0410856 0)
(0.0761958 -0.0284906 0)
(0.0775693 -0.0199518 0)
(0.0750588 -0.021861 0)
(0.0687247 -0.0330207 0)
(0.0641035 -0.0467011 0)
(0.0496406 -0.0443507 0)
(0.0546837 -0.0519703 0)
(0.0586107 -0.057229 0)
(0.0630834 -0.0593461 0)
(0.0671377 -0.0566429 0)
(0.071274 -0.0443989 0)
(0.0747965 -0.024251 0)
(0.0755161 -0.0195145 0)
(0.0748904 -0.0222629 0)
(0.0734177 -0.0364336 0)
(0.0520797 -0.0543591 0)
(0.056407 -0.0597896 0)
(0.0589591 -0.0635833 0)
(0.0608467 -0.0635464 0)
(0.0608972 -0.0596895 0)
(0.060387 -0.0445951 0)
(0.0619528 -0.0286922 0)
(0.066894 -0.0233036 0)
(0.0723855 -0.0253591 0)
(0.0763841 -0.0371929 0)
(0.0482454 -0.0601777 0)
(0.0478631 -0.0649194 0)
(0.0471115 -0.067285 0)
(0.046469 -0.0653505 0)
(0.0413055 -0.0536098 0)
(0.0388131 -0.0389791 0)
(0.0420399 -0.0440306 0)
(0.0505493 -0.0374834 0)
(0.0614489 -0.0453577 0)
(0.0693433 -0.0452502 0)
(0.0214336 -0.0543 0)
(0.018397 -0.0586595 0)
(0.0150512 -0.0590205 0)
(0.0159027 -0.0555173 0)
(0.020456 -0.0421985 0)
(0.0238551 -0.0419557 0)
(0.026682 -0.060702 0)
(0.0367739 -0.0635839 0)
(0.0429143 -0.0673824 0)
(0.0392758 -0.0534808 0)
(-0.008991 -0.0513705 0)
(-0.00899 -0.0574516 0)
(-0.00407216 -0.0591639 0)
(-0.00280877 -0.0694162 0)
(0.00736174 -0.0575777 0)
(0.0141137 -0.0580634 0)
(0.0173557 -0.0666075 0)
(0.0185312 -0.0636888 0)
(0.00295759 -0.0520891 0)
(-0.00342009 -0.00670665 0)
(-0.0138324 -0.0531038 0)
(-0.0133222 -0.0640026 0)
(-0.00850576 -0.0746013 0)
(-0.00526026 -0.0810096 0)
(-0.000867735 -0.0755441 0)
(0.00773092 -0.071596 0)
(0.00980326 -0.0648602 0)
(0.0150228 -0.0427893 0)
(-0.00657245 -0.0175403 0)
(-0.0159413 -0.0191487 0)
(-0.00338114 -0.054738 0)
(-0.00242933 -0.0704407 0)
(-0.0030035 -0.0809846 0)
(0.00125611 -0.0856074 0)
(0.00390377 -0.0850405 0)
(0.00975364 -0.079748 0)
(0.0124823 -0.0713151 0)
(0.018578 -0.0433106 0)
(0.01937 0.00730306 0)
(0.00998207 0.00695485 0)
(0.0291646 -0.0458721 0)
(0.0234491 -0.0637466 0)
(0.0249335 -0.0852521 0)
(0.0289589 -0.094078 0)
(0.0302569 -0.0934554 0)
(0.0315652 -0.0888623 0)
(0.0305384 -0.0789394 0)
(0.030441 -0.0607479 0)
(0.0363093 -0.00251093 0)
(0.0411627 0.0131643 0)
(0.0441924 -0.0337929 0)
(0.0320279 -0.055493 0)
(0.0378633 -0.0871716 0)
(0.0408588 -0.0941688 0)
(0.0414646 -0.0919683 0)
(0.041523 -0.085352 0)
(0.0411693 -0.0721565 0)
(0.0344652 -0.060587 0)
(0.0364443 -0.0225748 0)
(0.0460442 0.00129138 0)
(0.0318528 -0.0212342 0)
(0.0256908 -0.0524129 0)
(0.0402191 -0.0965945 0)
(0.0422369 -0.0974995 0)
(0.0424844 -0.0937625 0)
(0.0398738 -0.083517 0)
(0.0373194 -0.0592494 0)
(0.0220874 -0.0483756 0)
(0.0152234 -0.0197002 0)
(0.01436 -0.0120057 0)
(0.00752841 -0.00098415 0)
(0.0124001 -0.0882933 0)
(0.0221544 -0.115621 0)
(0.0197848 -0.103062 0)
(0.0169102 -0.0947915 0)
(0.0127041 -0.0751462 0)
(0.0131049 -0.046492 0)
(-0.00765984 -0.0228977 0)
(-0.0153946 0.00353649 0)
(-0.0420203 0.0427127 0)
(0.00219198 -0.0119195 0)
(0.00449486 -0.094161 0)
(-0.00980184 -0.104248 0)
(-0.011769 -0.0846101 0)
(-0.0156015 -0.09053 0)
(-0.0158073 -0.0607084 0)
(-0.0218685 -0.0221264 0)
(-0.0455729 0.0125821 0)
(-0.0536739 0.0357642 0)
(-0.0626779 0.0480307 0)
(0.0113564 -0.0101176 0)
(-0.00568737 -0.0630503 0)
(-0.0152135 -0.0977841 0)
(-0.013768 -0.0791545 0)
(-0.0191336 -0.0869765 0)
(-0.0249084 -0.0480867 0)
(-0.0329511 0.0167057 0)
(-0.0498045 0.0398815 0)
(-0.0573386 0.0428532 0)
(-0.0601992 0.046016 0)
(0.0173528 -0.00827433 0)
(0.0185135 -0.0318181 0)
(0.00375597 -0.0836954 0)
(-0.00342994 -0.0693494 0)
(-0.00944849 -0.0752938 0)
(-0.0180956 -0.0408454 0)
(-0.0188694 0.020177 0)
(-0.0232221 0.058056 0)
(-0.0343201 0.0550003 0)
(-0.0527833 0.0547448 0)
(0.0232239 -0.0294314 0)
(0.0297012 -0.0346692 0)
(0.0239322 -0.0584121 0)
(0.0124784 -0.0479912 0)
(-0.00259397 -0.0521058 0)
(-0.0173248 -0.023425 0)
(-0.0178624 0.0302284 0)
(-0.0215502 0.0761819 0)
(-0.0311113 0.0916683 0)
(-0.0522751 0.0842204 0)
(0.0214575 -0.0385276 0)
(0.0243484 -0.0370778 0)
(0.019338 -0.0418838 0)
(0.0116889 -0.0319805 0)
(0.00669779 -0.0162051 0)
(-0.00981413 -0.0127673 0)
(-0.0113991 0.0295754 0)
(-0.0120164 0.0815302 0)
(-0.0210176 0.121952 0)
(-0.0361684 0.118343 0)
(0.0352301 -0.0421295 0)
(0.03273 -0.0354349 0)
(0.0305548 -0.0285633 0)
(0.0217242 -0.0241935 0)
(0.018883 -0.00939052 0)
(0.00936368 0.0078561 0)
(-0.00100868 0.0329902 0)
(-0.00169475 0.0872819 0)
(-0.0140257 0.14512 0)
(-0.0223394 0.155505 0)
(0.0469472 -0.0305394 0)
(0.0371143 -0.0250335 0)
(0.0322184 -0.016151 0)
(0.0238052 -0.00971731 0)
(0.0176646 0.0105096 0)
(-0.00225258 0.0355648 0)
(-0.0137995 0.0451501 0)
(-0.0156279 0.104004 0)
(-0.0330815 0.173738 0)
(-0.0422064 0.191678 0)
(0.0460971 -0.0117152 0)
(0.0417045 -0.00955329 0)
(0.0371965 -0.00528696 0)
(0.0306295 0.00464101 0)
(0.0207385 0.035092 0)
(0.00876972 0.0644098 0)
(-0.006888 0.0654839 0)
(-0.0303356 0.146954 0)
(-0.0542944 0.209126 0)
(-0.061009 0.220569 0)
(0.0427397 -0.00274689 0)
(0.039131 -0.00238837 0)
(0.0345394 0.00592338 0)
(0.0206864 0.0254022 0)
(0.00992361 0.061607 0)
(-0.00260455 0.10185 0)
(-0.0290193 0.116289 0)
(-0.0538072 0.196287 0)
(-0.0636409 0.230803 0)
(-0.0661252 0.235153 0)
(0.0337808 0.00269774 0)
(0.0302558 0.0101732 0)
(0.0224558 0.0298301 0)
(0.0109781 0.0565665 0)
(-0.00631618 0.083319 0)
(-0.0132439 0.123401 0)
(-0.0334807 0.157775 0)
(-0.0530366 0.223386 0)
(-0.0593432 0.241802 0)
(-0.0630697 0.239427 0)
(0.0411181 0.00392476 0)
(0.0381029 0.0207404 0)
(0.0249074 0.0478872 0)
(0.00838346 0.0765279 0)
(-0.0104318 0.107015 0)
(-0.0273024 0.154323 0)
(-0.0496273 0.202259 0)
(-0.0580293 0.242187 0)
(-0.0602786 0.247824 0)
(-0.0592045 0.241248 0)
(0.0446707 0.0107572 0)
(0.019403 0.0371276 0)
(-0.00319641 0.0822586 0)
(-0.023383 0.11985 0)
(-0.0390465 0.157942 0)
(-0.0547782 0.193599 0)
(-0.0649927 0.225718 0)
(-0.0645426 0.244725 0)
(-0.0621447 0.246629 0)
(-0.0580873 0.23962 0)
(-0.014438 0.085925 0)
(-0.0468613 0.109207 0)
(-0.061824 0.131886 0)
(-0.0669981 0.155246 0)
(-0.0708267 0.182811 0)
(-0.0727499 0.199831 0)
(-0.0696711 0.22743 0)
(-0.0677571 0.238938 0)
(-0.0618515 0.235474 0)
(-0.0572073 0.233987 0)
(-0.0619565 0.148035 0)
(-0.0758976 0.134037 0)
(-0.0836361 0.138897 0)
(-0.084734 0.1532 0)
(-0.0807009 0.176106 0)
(-0.073306 0.194999 0)
(-0.0654396 0.220992 0)
(-0.0607947 0.229275 0)
(-0.0569867 0.227525 0)
(-0.0594982 0.234619 0)
(-0.0792228 0.148481 0)
(-0.0827864 0.144762 0)
(-0.0855713 0.144065 0)
(-0.0842757 0.143129 0)
(-0.0731641 0.15217 0)
(-0.0602426 0.166018 0)
(-0.0522958 0.197134 0)
(-0.0484948 0.222886 0)
(-0.0517926 0.234238 0)
(-0.061868 0.245451 0)
(-0.0781769 0.14289 0)
(-0.0754264 0.144946 0)
(-0.0689581 0.138812 0)
(-0.0565384 0.121128 0)
(-0.0466085 0.125266 0)
(-0.0490596 0.161241 0)
(-0.0527614 0.192192 0)
(-0.0506526 0.224107 0)
(-0.0481413 0.255196 0)
(-0.0578934 0.278934 0)
(-0.0727365 0.128998 0)
(-0.0701012 0.135837 0)
(-0.0608693 0.112855 0)
(-0.0538779 0.101925 0)
(-0.0517419 0.128806 0)
(-0.0578287 0.178811 0)
(-0.0651023 0.194386 0)
(-0.054719 0.216086 0)
(-0.0451555 0.253205 0)
(-0.0448112 0.293029 0)
(-0.080294 0.12106 0)
(-0.0717315 0.120716 0)
(-0.065012 0.0978427 0)
(-0.0661121 0.0978099 0)
(-0.0695159 0.141059 0)
(-0.0690245 0.184913 0)
(-0.0648063 0.185693 0)
(-0.0576524 0.192332 0)
(-0.0455197 0.239255 0)
(-0.0382532 0.289067 0)
(-0.119876 0.104003 0)
(-0.109535 0.0987155 0)
(-0.10658 0.0932944 0)
(-0.103653 0.109375 0)
(-0.100805 0.15238 0)
(-0.0946058 0.173632 0)
(-0.0850643 0.176281 0)
(-0.0814814 0.178073 0)
(-0.0668399 0.213546 0)
(-0.0429011 0.270353 0)
(-0.156302 0.0949864 0)
(-0.159499 0.0896411 0)
(-0.159583 0.0909343 0)
(-0.157069 0.105762 0)
(-0.146239 0.133072 0)
(-0.134874 0.150683 0)
(-0.123517 0.154111 0)
(-0.109554 0.153088 0)
(-0.0917622 0.179817 0)
(-0.0615791 0.21261 0)
(-0.166848 0.119878 0)
(-0.189171 0.108594 0)
(-0.195574 0.0866398 0)
(-0.187038 0.0807767 0)
(-0.166009 0.0976102 0)
(-0.14398 0.117684 0)
(-0.128576 0.114653 0)
(-0.112268 0.105036 0)
(-0.0956834 0.123252 0)
(-0.0728478 0.135345 0)
(-0.188939 0.154728 0)
(-0.191153 0.131298 0)
(-0.174345 0.0754373 0)
(-0.160709 0.0547536 0)
(-0.138653 0.0567013 0)
(-0.11267 0.0751447 0)
(-0.0823957 0.0954911 0)
(-0.0683266 0.0993058 0)
(-0.042066 0.0941532 0)
(-0.0201967 0.0935222 0)
(-0.205592 0.142396 0)
(-0.176247 0.0949495 0)
(-0.146742 0.0348667 0)
(-0.133439 0.0137406 0)
(-0.114987 0.00887529 0)
(-0.0946934 -0.00440241 0)
(-0.0622541 -0.00402285 0)
(-0.0257545 0.0280676 0)
(0.00352147 0.0456534 0)
(0.0227234 0.0586292 0)
(-0.196573 0.0905599 0)
(-0.154544 0.01042 0)
(-0.125603 -0.0164073 0)
(-0.0983152 -0.0181966 0)
(-0.0684985 -0.0133174 0)
(-0.04652 -0.0218825 0)
(-0.0263209 -0.0358425 0)
(-0.00889085 -0.0422139 0)
(0.00732701 -0.0154718 0)
(0.0331533 -0.0103301 0)
(-0.163422 0.00829913 0)
(-0.124334 -0.0511615 0)
(-0.10753 -0.0806182 0)
(-0.0753701 -0.0998749 0)
(-0.0406263 -0.0988797 0)
(-0.0102365 -0.0953591 0)
(0.0160783 -0.0740222 0)
(0.032104 -0.0531153 0)
(0.0410034 -0.0351123 0)
(0.0555463 -0.0253401 0)
(-0.0930937 -0.0360126 0)
(-0.0965416 -0.0871762 0)
(-0.0755782 -0.134573 0)
(-0.049611 -0.174331 0)
(-0.0176424 -0.162211 0)
(0.0100212 -0.141682 0)
(0.032317 -0.114421 0)
(0.0516399 -0.0817272 0)
(0.0608498 -0.0615189 0)
(0.0665216 -0.0518819 0)
(-0.0501288 -0.0342525 0)
(-0.0501078 -0.0811579 0)
(-0.0154166 -0.177267 0)
(-0.00761682 -0.220128 0)
(0.0104087 -0.212546 0)
(0.0313691 -0.191596 0)
(0.0553335 -0.167645 0)
(0.0784483 -0.109354 0)
(0.0977548 -0.0680864 0)
(0.11154 -0.0571804 0)
(-0.0192339 -0.0759521 0)
(0.000281994 -0.132195 0)
(0.0146691 -0.190439 0)
(0.00858459 -0.223602 0)
(0.0159756 -0.233975 0)
(0.025658 -0.221465 0)
(0.0487162 -0.209494 0)
(0.0832437 -0.17298 0)
(0.121938 -0.124726 0)
(0.155769 -0.0920019 0)
(-0.000932249 -0.0887758 0)
(0.0132209 -0.148383 0)
(0.0197288 -0.190251 0)
(0.0139843 -0.220491 0)
(0.018187 -0.252152 0)
(0.0303919 -0.255533 0)
(0.0546942 -0.262966 0)
(0.0861945 -0.247076 0)
(0.117783 -0.201358 0)
(0.159715 -0.17501 0)
(-0.0164158 -0.104098 0)
(-0.0199281 -0.178169 0)
(-0.00729077 -0.193933 0)
(-0.0053613 -0.213012 0)
(-0.0034266 -0.258709 0)
(0.0105046 -0.293346 0)
(0.0419219 -0.320598 0)
(0.0697239 -0.326013 0)
(0.10535 -0.303941 0)
(0.145025 -0.266095 0)
(-0.0691045 -0.128796 0)
(-0.0746996 -0.176908 0)
(-0.0673609 -0.205911 0)
(-0.0505816 -0.229654 0)
(-0.0386743 -0.292047 0)
(-0.0215491 -0.356971 0)
(0.00251061 -0.396443 0)
(0.0272946 -0.413998 0)
(0.0460856 -0.393034 0)
(0.0718037 -0.317153 0)
(-0.118951 -0.14854 0)
(-0.11344 -0.193857 0)
(-0.105491 -0.24331 0)
(-0.0919354 -0.276142 0)
(-0.0805634 -0.329793 0)
(-0.0773336 -0.383703 0)
(-0.0736851 -0.411921 0)
(-0.0728692 -0.419538 0)
(-0.0672742 -0.385831 0)
(-0.0430718 -0.278323 0)
(-0.126414 -0.157589 0)
(-0.119682 -0.205811 0)
(-0.117295 -0.249061 0)
(-0.112385 -0.284457 0)
(-0.10118 -0.331876 0)
(-0.101607 -0.380674 0)
(-0.100984 -0.409669 0)
(-0.101017 -0.419321 0)
(-0.0966618 -0.392859 0)
(-0.0822758 -0.317611 0)
(-0.0988043 -0.172277 0)
(-0.102157 -0.206411 0)
(-0.0991441 -0.264175 0)
(-0.0996474 -0.309343 0)
(-0.0942545 -0.344054 0)
(-0.0990999 -0.382057 0)
(-0.100256 -0.413556 0)
(-0.100076 -0.425362 0)
(-0.0966664 -0.420199 0)
(-0.0792941 -0.37274 0)
(-0.00733848 -0.17361 0)
(-0.00316245 -0.208987 0)
(0.00125815 -0.252958 0)
(-0.00743602 -0.303956 0)
(-0.0182027 -0.340004 0)
(-0.0325499 -0.371287 0)
(-0.0320461 -0.419399 0)
(-0.0305595 -0.445209 0)
(-0.0274287 -0.453307 0)
(-0.013663 -0.437549 0)
(0.0509173 -0.168758 0)
(0.0617492 -0.207927 0)
(0.0603691 -0.224885 0)
(0.0662812 -0.27174 0)
(0.0665325 -0.31029 0)
(0.0535194 -0.346543 0)
(0.049259 -0.404864 0)
(0.0457128 -0.446301 0)
(0.0476759 -0.445442 0)
(0.0525841 -0.428508 0)
(0.0699752 -0.192664 0)
(0.0793153 -0.234776 0)
(0.0822765 -0.243427 0)
(0.0949131 -0.280094 0)
(0.0950698 -0.303857 0)
(0.0866814 -0.327253 0)
(0.0860961 -0.381383 0)
(0.0835856 -0.439858 0)
(0.0854298 -0.453883 0)
(0.0814677 -0.437099 0)
(0.0725524 -0.234376 0)
(0.0852106 -0.266723 0)
(0.0947804 -0.276589 0)
(0.109291 -0.295047 0)
(0.107735 -0.306263 0)
(0.107408 -0.329704 0)
(0.111488 -0.37963 0)
(0.113425 -0.435335 0)
(0.10849 -0.449378 0)
(0.09332 -0.433631 0)
(0.122768 -0.241987 0)
(0.116647 -0.27157 0)
(0.113182 -0.287128 0)
(0.117545 -0.298845 0)
(0.112847 -0.310025 0)
(0.117847 -0.333887 0)
(0.124098 -0.386888 0)
(0.120657 -0.432951 0)
(0.115572 -0.430238 0)
(0.0909827 -0.399677 0)
(0.148345 -0.225487 0)
(0.135112 -0.256328 0)
(0.126767 -0.282292 0)
(0.12316 -0.293114 0)
(0.111628 -0.309195 0)
(0.116091 -0.337178 0)
(0.116137 -0.395311 0)
(0.108023 -0.414639 0)
(0.0973973 -0.403581 0)
(0.0542509 -0.334444 0)
(0.170705 -0.186871 0)
(0.149859 -0.227643 0)
(0.137755 -0.256046 0)
(0.11833 -0.266676 0)
(0.0994077 -0.289788 0)
(0.104783 -0.337727 0)
(0.0885375 -0.379484 0)
(0.0740325 -0.374298 0)
(0.0407235 -0.331598 0)
(0.00354851 -0.244674 0)
(0.146692 -0.151069 0)
(0.128754 -0.196902 0)
(0.121276 -0.218362 0)
(0.0901248 -0.227755 0)
(0.0812641 -0.27059 0)
(0.0717619 -0.332574 0)
(0.0405641 -0.337439 0)
(0.030417 -0.322766 0)
(0.00767648 -0.283682 0)
(-0.00605477 -0.219702 0)
(0.111107 -0.144685 0)
(0.11051 -0.190904 0)
(0.0969941 -0.197521 0)
(0.0842329 -0.205019 0)
(0.0827918 -0.253897 0)
(0.0620715 -0.283755 0)
(0.0406642 -0.294495 0)
(0.0307288 -0.290947 0)
(0.0194255 -0.260785 0)
(0.00848667 -0.201975 0)
(0.141786 -0.113747 0)
(0.134111 -0.156272 0)
(0.106006 -0.165441 0)
(0.0959401 -0.175126 0)
(0.089374 -0.226811 0)
(0.081651 -0.257247 0)
(0.0664048 -0.268999 0)
(0.0605154 -0.264815 0)
(0.0434991 -0.232658 0)
(0.0164192 -0.179336 0)
(0.152804 -0.0957896 0)
(0.13683 -0.120487 0)
(0.1013 -0.126401 0)
(0.1004 -0.155104 0)
(0.0990908 -0.21849 0)
(0.0935194 -0.242884 0)
(0.0826211 -0.252242 0)
(0.0714868 -0.246626 0)
(0.0616907 -0.19182 0)
(0.0282575 -0.14717 0)
(0.119941 -0.0698791 0)
(0.0867872 -0.0682133 0)
(0.0757406 -0.0976039 0)
(0.0876328 -0.164954 0)
(0.087849 -0.20693 0)
(0.0792994 -0.219833 0)
(0.0702836 -0.223234 0)
(0.0558578 -0.214074 0)
(0.0458258 -0.146801 0)
(0.0281012 -0.101331 0)
(0.0498663 -0.0287704 0)
(0.0454126 -0.0441154 0)
(0.0484476 -0.135201 0)
(0.071701 -0.195299 0)
(0.0756197 -0.208098 0)
(0.0724979 -0.211932 0)
(0.069384 -0.205432 0)
(0.0540057 -0.189676 0)
(0.043665 -0.122041 0)
(0.0229839 -0.061116 0)
(0.0316206 0.0202526 0)
(0.0452883 -0.0706926 0)
(0.0552375 -0.17661 0)
(0.0724894 -0.210652 0)
(0.0731158 -0.213088 0)
(0.0735908 -0.208778 0)
(0.0727471 -0.194739 0)
(0.0563593 -0.164708 0)
(0.0336501 -0.0887565 0)
(0.00755687 -0.0121198 0)
(0.0214738 0.0241263 0)
(0.0600796 -0.0996637 0)
(0.0586776 -0.19021 0)
(0.0739498 -0.217031 0)
(0.0727503 -0.218071 0)
(0.0709128 -0.210544 0)
(0.0613447 -0.185115 0)
(0.0289072 -0.126181 0)
(-0.0162143 -0.022756 0)
(-0.0361946 0.0195429 0)
(0.00896024 0.0227897 0)
(0.0580471 -0.136593 0)
(0.0425797 -0.198057 0)
(0.0493406 -0.215059 0)
(0.0392321 -0.210684 0)
(0.0219061 -0.18373 0)
(-0.0271122 -0.107793 0)
(-0.0754417 0.00507189 0)
(-0.0853661 0.0469493 0)
(-0.0832607 0.0358784 0)
(-0.0126707 -0.0810229 0)
(-0.00912316 -0.14825 0)
(-0.0267898 -0.180749 0)
(-0.0219872 -0.188485 0)
(-0.0457666 -0.164451 0)
(-0.0887592 -0.0519148 0)
(-0.134218 0.0246527 0)
(-0.151565 0.0179486 0)
(-0.147741 0.0111045 0)
(-0.140092 -0.00222009 0)
(-0.114875 0.0104222 0)
(-0.0953475 -0.0825995 0)
(-0.132147 -0.154243 0)
(-0.129336 -0.16502 0)
(-0.145777 -0.121862 0)
(-0.134503 -0.012941 0)
(-0.13044 0.0250561 0)
(-0.12584 0.00326557 0)
(-0.124149 0.0024856 0)
(-0.127183 0.0244049 0)
(-0.367792 -0.146502 0)
(-0.27585 -0.171619 0)
(-0.256302 -0.20007 0)
(-0.225113 -0.19185 0)
(-0.211225 -0.137365 0)
(-0.181725 -0.0440732 0)
(-0.165931 0.00912699 0)
(-0.163935 0.0189581 0)
(-0.156506 0.026506 0)
(-0.149566 0.028769 0)
(-0.43074 -0.37306 0)
(-0.310246 -0.282338 0)
(-0.262144 -0.254072 0)
(-0.232749 -0.217385 0)
(-0.210506 -0.166068 0)
(-0.174987 -0.101357 0)
(-0.139231 -0.0282528 0)
(-0.0819508 -0.0260391 0)
(-0.0461847 -0.0244512 0)
(-0.00253167 0.0253323 0)
(-0.0139256 0.00254089 0)
(-0.0149091 0.00245774 0)
(-0.0149588 0.00133565 0)
(-0.0138237 6.50891e-05 0)
(-0.0120319 -0.00109226 0)
(-0.00921376 -0.00173573 0)
(-0.0054802 -0.00176964 0)
(-0.00101068 -0.00193732 0)
(0.00176252 -0.00191463 0)
(0.00509227 -0.00394418 0)
(0.00895258 -0.00264454 0)
(0.010984 -0.000553125 0)
(0.0107472 8.91315e-05 0)
(0.00944959 0.000110671 0)
(0.00860406 -0.00112199 0)
(0.00911398 -0.0015857 0)
(0.0105725 -0.00100284 0)
(0.011582 0.000590146 0)
(0.0111474 0.00193207 0)
(0.00920184 0.0030338 0)
(0.00608684 0.00296248 0)
(0.00330293 0.0020267 0)
(-2.14607e-05 0.00230507 0)
(-0.00346032 0.00257954 0)
(-0.00569045 9.97709e-05 0)
(-0.00506503 -0.00219343 0)
(-0.00313296 -0.00188012 0)
(-0.00213011 -0.000886729 0)