/*--------------------------------*- C++ -*----------------------------------*\
  =========                 |
  \\      /  F ield         | OpenFOAM: The Open Source CFD Toolbox
   \\    /   O peration     | Website:  https://openfoam.org
    \\  /    A nd           | Version:  8
     \\/     M anipulation  |
\*---------------------------------------------------------------------------*/
FoamFile
{
    version     2.0;
    format      ascii;
    class       volScalarField;
    location    "9.15";
    object      p;
}
// * * * * * * * * * * * * * * * * * * * * * * * * * * * * * * * * * * * * * //

dimensions      [1 -1 -2 0 0 0 0];

internalField   nonuniform List<scalar> 
9150
(
-210.885
-211.919
-212.534
-213.007
-213.248
-213.241
-213.007
-212.542
-211.931
-210.894
-230.944
-231.473
-231.892
-232.205
-232.382
-232.408
-232.231
-231.898
-231.481
-230.95
-250.84
-251.132
-251.388
-251.612
-251.724
-251.722
-251.605
-251.388
-251.136
-250.845
-270.582
-270.763
-270.933
-271.096
-271.175
-271.171
-271.088
-270.933
-270.765
-270.585
-290.206
-290.39
-290.527
-290.659
-290.716
-290.716
-290.656
-290.526
-290.392
-290.208
-124.869
-125.705
-125.447
-125.019
-124.809
-124.799
-124.979
-125.321
-125.62
-124.829
-140.404
-141.099
-141.217
-141.294
-141.194
-141.187
-141.278
-141.186
-141.074
-140.367
-156.833
-157.598
-157.858
-158.254
-158.301
-158.289
-158.246
-157.85
-157.603
-156.841
-173.679
-174.858
-175.286
-175.931
-176.095
-176.095
-175.963
-175.315
-174.887
-173.707
-190.686
-192.802
-193.55
-194.261
-194.55
-194.545
-194.261
-193.556
-192.812
-190.699
-30.8266
-33.4561
-35.2306
-36.1945
-36.809
-36.5951
-35.6808
-34.2953
-32.0823
-31.1442
-51.9775
-52.4167
-53.3578
-53.5018
-54.122
-53.7525
-53.1506
-52.794
-51.2889
-50.7963
-72.1844
-71.9361
-73.1432
-72.31
-73.037
-72.6708
-72.2103
-72.4219
-71.2178
-71.3649
-94.8432
-91.8132
-93.0624
-91.2185
-91.4594
-91.2303
-91.1859
-92.4467
-91.5631
-94.1971
-120.548
-110.741
-110.351
-108.753
-108.422
-108.355
-108.814
-110.069
-110.509
-119.998
1772.44
1772.56
1772.67
1772.73
1772.72
1772.65
1772.54
1772.43
1772.34
1772.25
1752.76
1752.88
1753.01
1753.08
1753.07
1753.01
1752.94
1752.89
1752.81
1752.74
1732.85
1732.88
1732.85
1732.92
1733.22
1733.38
1733.56
1733.53
1733.38
1733.25
1713.72
1713.64
1713.87
1714.15
1714.25
1714.26
1714.29
1714.19
1714.02
1713.85
1694.48
1694.6
1694.83
1695.02
1695.17
1695.26
1695.09
1694.82
1694.42
1694.13
1675.17
1675.43
1675.75
1676.47
1677.21
1676.31
1676
1675.43
1674.99
1674.68
1655.54
1655.88
1656.45
1659.04
1657.43
1657.31
1657.02
1656.65
1656.26
1655.69
1635.81
1636.47
1638.41
1638.26
1637.83
1638.22
1637.99
1637.71
1637.47
1637.14
1617.93
1618.7
1618.65
1618.81
1618.91
1618.93
1618.84
1618.6
1618.39
1618.29
1599.44
1599.35
1599.46
1599.5
1599.59
1599.54
1599.4
1599.22
1599.02
1598.89
1580
1580.27
1580.28
1580.21
1580.19
1580.09
1579.9
1579.69
1579.44
1579.21
1560.85
1560.88
1560.82
1560.74
1560.7
1560.62
1560.38
1560.13
1559.88
1559.52
1541.34
1541.34
1541.31
1541.26
1541.21
1541.14
1541.11
1540.62
1540.22
1539.97
1521.78
1521.79
1521.79
1521.78
1521.77
1521.68
1521.5
1521.37
1520.95
1520.47
1502.28
1502.24
1502.22
1502.2
1502.17
1502.08
1501.86
1501.64
1501.16
1500.85
1482.75
1482.69
1482.63
1482.56
1482.47
1482.36
1482.18
1481.88
1481.81
1481.72
1463.31
1463.23
1463.13
1463.02
1462.88
1462.74
1462.62
1462.53
1462.69
1462.75
1443.75
1443.71
1443.65
1443.49
1443.27
1443.06
1442.96
1443.08
1443.45
1443.45
1424.54
1424.38
1424.02
1423.62
1423.16
1422.67
1422.38
1422.8
1423.01
1422.81
1404.48
1404.06
1403.71
1403.3
1403.1
1402.83
1406.68
1406.54
1402.84
1402.1
1383.74
1383.71
1383.11
1383.57
1384.79
1385.08
1385.83
1385.59
1384.52
1384.33
1363.7
1363.34
1363.16
1364.43
1364.78
1365.12
1365.22
1365.59
1365.39
1365.25
1341.31
1341.86
1342.36
1344.49
1345.54
1345.74
1345.84
1345.05
1345.14
1345.17
1321.21
1321.53
1322.75
1323.96
1324.56
1325.69
1328.14
1325.44
1324.95
1324.98
1301.68
1301.34
1301.1
1302.26
1303.2
1303.88
1304.35
1304.64
1305.41
1306.24
1282.11
1281.37
1281.26
1281.16
1281.79
1282.93
1283.61
1284.32
1285.26
1285.88
1263.56
1262.91
1262.41
1261.97
1261.69
1263.05
1263.35
1264.39
1265.23
1266.39
1245.27
1245.02
1244.26
1243.99
1243.35
1243.79
1244.44
1245.33
1246.4
1247.24
1226.97
1225.64
1224.91
1224.6
1224.42
1224.61
1225.08
1225.75
1226.37
1226.64
1205.35
1204.5
1204.62
1204.54
1204.67
1204.92
1205.26
1205.69
1206.04
1206.15
1186.96
1186.3
1185.83
1185.58
1185.88
1186.34
1186.81
1187.23
1187.32
1186.98
1169.59
1169.12
1168.8
1168.62
1168.71
1169.12
1169.55
1169.95
1170.2
1170.29
1153.08
1152.8
1152.61
1152.19
1152.26
1152.48
1152.84
1153.1
1153.29
1153.57
1137.35
1136.54
1136.03
1135.9
1135.91
1136.01
1136.2
1136.34
1136.33
1136.31
1119.45
1119.46
1119.37
1119.27
1119.24
1119.33
1119.41
1119.56
1119.5
1119.22
1102.89
1102.89
1102.69
1102.44
1102.25
1102.04
1101.75
1101.76
1101.73
1101.67
1086.18
1085.97
1085.55
1085.2
1084.9
1084.46
1083.97
1083.86
1082.85
1083.23
1069.4
1069.1
1068.78
1068.2
1067.46
1067.43
1068.77
1066.2
1065.54
1067.99
1050.72
1050.2
1049.75
1049.53
1048.84
1050.47
1047.95
1047.88
1047.2
1046.48
1032.24
1031.78
1031.63
1031.49
1029.06
1028.12
1027.77
1028.19
1027.63
1027.26
1014.27
1013.71
1013.57
1013.12
1011.94
1010.42
1009.37
1008.84
1008.52
1007.57
995.3
994.942
994.835
993.609
992.556
991.213
989.85
988.85
988.183
987.848
975.133
974.721
974.083
973.265
972.07
970.742
969.478
968.499
967.798
967.247
953.886
953.08
952.489
951.562
950.452
949.209
947.988
947.176
946.596
946.034
931.897
931.08
930.083
929.124
927.965
926.912
926.717
926.09
925.189
924.669
911.101
910.317
909.308
908.053
906.73
905.739
905.214
904.523
903.462
902.968
890.506
889.521
888.736
888.173
887.667
887.016
886.347
885.106
883.955
883.391
871.169
870.831
870.392
870.445
868.785
868.099
866.66
864.979
865.298
864.658
851.187
850.837
850.377
851.641
849.688
849.703
848.407
849.5
852.145
848.097
831.113
830.779
830.381
831.451
831.112
831.651
831.65
833.599
833.731
833.188
810.724
810.841
811.08
811.074
811.847
813.183
814.331
816.68
818.515
818.74
790.597
791.096
791.643
792.054
792.946
793.978
796.588
799.192
800.409
800.464
772.224
772.875
773.6
774.326
775.151
775.442
776.829
778.66
779.831
780.706
756.96
756.568
756.495
756.648
756.835
756.499
756.314
757.21
758.071
758.801
739.593
738.938
738.295
737.892
736.837
735.703
735.297
735.271
735.426
735.798
721.2
720.181
718.405
716.647
715.097
713.8
712.786
712.138
711.703
711.606
701.522
699.32
696.636
694.299
691.805
689.597
688.033
686.824
685.841
685.304
680.856
677.257
672.751
668.591
664.813
661.971
659.702
658.52
657.338
656.011
662.262
655.116
648.646
642.949
636.839
630.474
625.914
622.994
620.68
619.156
638.669
627.94
617.589
607.13
599.64
592.961
588.022
585.544
584.68
584.138
605.606
592.78
580.308
573.274
571.465
570.163
568.93
567.879
568.364
568.862
569.891
557.694
548.285
545.334
545.472
548.928
552.856
555.993
555.511
556.898
539.549
530.176
528.658
530.38
532.607
534.061
536.06
541.398
542.665
542.356
514.16
510.608
512.779
514.148
516.256
518.248
520.719
523.901
524.573
524.374
486.758
488.328
491.297
495.994
501.935
503.699
502.425
506.702
508.647
509.239
453.767
458.929
464.646
470.797
476.152
483.408
488.26
490.038
492.446
494.342
419.806
423
431.081
440.791
450.461
458.707
463.701
470.773
477.767
482.088
404.032
407.694
409.436
413.742
423.546
433.759
443.423
451.012
456.489
462.634
400.763
400.362
402.503
405.992
409.253
416.298
425.615
433.313
439.524
444.597
399.254
398.913
398.818
399.353
399.752
401.317
408.502
416.071
421.031
425.595
390.248
388.531
387.683
389.531
391.428
392.111
393.2
400.959
404.367
407.405
378.452
378.507
376.557
378.836
380.727
382.546
383.599
392.371
391.605
396.079
353.783
357.244
356.461
369.165
367.029
364.754
380.158
379.597
379.498
379.452
334.909
340.143
334.382
358.854
355.256
352.73
359.912
363.376
364.73
363.484
320.578
327.863
320.584
345.4
339.855
338.537
343.273
345.761
348.828
348.041
308.423
320.006
306.309
326.168
318.593
319.73
325.242
328.031
331.218
332.33
299.687
299.353
299.243
308.986
310.637
303.562
305.585
310.341
313.147
315.295
291.091
289.97
298.165
289.355
303.861
301.161
295.036
294.866
296.29
294.743
279.944
279.896
292.423
287.2
292.414
295.142
278.857
278.363
278.585
276.644
266.776
272.154
273.933
270.741
281.921
284.367
267.027
265.64
265.342
261.492
259.485
251.709
260.554
256.776
260.166
264.039
250.882
251.666
249.541
249.143
239.924
239.728
241.596
241.602
242.419
242.48
239.416
236.96
234.745
236.75
239.172
238.088
234.051
228.678
232.471
234.012
232.401
227.281
222.561
229.577
226.87
229.899
226.925
228.61
232.693
232.636
231.622
226.676
222.186
220.796
214.531
215.296
215.617
216.369
215.292
223.744
224.435
214.558
214.746
213.467
198.2
199.179
199.634
199.366
198.93
198.478
197.597
198.146
196.678
194.387
182.109
183.104
183.328
183.583
184.081
184.053
181.211
179.03
175.813
176.371
166.185
166.304
166.41
166.056
165.326
164.599
166.168
165.187
163.425
161.62
152.018
150.358
153.091
155.628
155.705
153.691
151.122
148.603
144.093
140.864
137.894
139.39
141.337
138.383
136.78
134.217
131.124
125.964
121.385
116.112
123.218
120.128
120.859
119.272
115.452
109.92
102.24
93.951
87.7013
90.0034
105.521
104.758
103.296
100.682
96.8684
90.4119
82.3162
79.4538
78.154
76.4254
92.0052
92.7583
88.043
86.1878
82.943
77.9248
77.2365
75.0506
72.4647
70.6497
78.2014
91.5606
73.0261
70.9303
68.6089
66.7912
73.0074
74.3852
64.3119
62.1791
62.6284
67.337
52.8844
53.0782
51.0169
50.6649
54.3486
59.0434
47.89
47.1837
40.6802
47.547
34.487
34.1849
32.2063
30.5031
27.9186
39.9622
27.9624
27.6091
16.7751
21.1854
16.6515
14.5705
12.9494
10.5087
7.03664
5.50202
1.56869
5.18191
-3.51157
-7.63335
-2.33642
-1.38805
-1.8725
-3.71624
-8.06732
-16.0357
-8.94249
-7.61738
-3.70033
-16.2661
-13.6669
-11.33
-10.8106
-11.6149
-14.0653
-15.6296
-8.29452
-8.08635
-9.81426
-19.1857
-21.3468
-22.0029
-22.2166
-22.0552
-21.4455
-19.6177
-14.2522
-4.07507
1772.18
1772.06
1771.91
1771.9
1771.84
1771.79
1771.76
1771.73
1771.72
1771.75
1771.82
1771.96
1772.18
1772.47
1772.78
1773.06
1773.35
1773.63
1773.92
1774.18
1774.47
1774.73
1774.99
1775.02
1775.42
1775.27
1775.34
1775.39
1775.46
1775.51
1775.53
1775.54
1775.54
1775.55
1775.58
1775.62
1775.72
1775.76
1775.77
1775.77
1752.66
1752.49
1752.36
1752.24
1752.11
1752.01
1751.97
1751.94
1751.91
1751.91
1751.93
1752.06
1752.37
1752.71
1753.11
1753.45
1753.76
1754.06
1754.29
1754.56
1754.87
1755.22
1755.51
1755.66
1755.78
1755.75
1755.75
1755.81
1755.89
1755.94
1755.92
1755.89
1755.84
1755.86
1755.91
1755.98
1756.06
1756.11
1756.13
1756.15
1733.1
1732.89
1732.72
1732.58
1732.49
1732.37
1732.31
1732.21
1732.15
1732.07
1731.94
1732.09
1732.26
1732.66
1733.25
1733.74
1733.93
1734.24
1734.55
1734.88
1735.45
1735.92
1736.1
1736.25
1736.34
1736.35
1736.39
1736.52
1736.56
1736.56
1736.63
1736.51
1736.28
1736.21
1736.27
1736.29
1736.4
1736.47
1736.51
1736.54
1713.64
1713.4
1713.25
1713.03
1712.77
1712.56
1712.39
1712.31
1712.31
1712.11
1711.7
1711.48
1711.55
1712.2
1713.13
1713.9
1714.41
1714.66
1714.7
1715.07
1715.52
1715.76
1716.1
1716.25
1716.41
1716.55
1716.7
1716.83
1716.91
1716.89
1716.79
1716.62
1716.71
1716.71
1716.76
1716.82
1716.68
1716.77
1716.9
1716.94
1693.59
1693.12
1693.15
1692.99
1693.31
1693.31
1693.03
1692.95
1692.56
1692.14
1691.62
1691.07
1691.09
1692.48
1693.56
1693.92
1693.9
1694.27
1694.56
1694.89
1695.16
1695.61
1696
1696.22
1696.62
1696.97
1696.97
1696.97
1697.02
1696.95
1696.87
1696.8
1696.94
1697.38
1697.5
1697.6
1697.59
1697.43
1697.47
1697.48
1674.01
1673.95
1673.78
1673.52
1673.37
1673.03
1672.98
1672.85
1672.69
1672.36
1671.95
1671.55
1671.96
1672.62
1673.33
1673.79
1674.08
1674.2
1674.48
1674.78
1675.26
1675.56
1675.84
1676.07
1676.39
1676.59
1676.86
1676.94
1676.9
1676.84
1676.85
1677.07
1677.63
1678.07
1678.31
1678.37
1678.24
1678.07
1678.08
1678.09
1655.08
1655.45
1654.74
1654.52
1654.26
1653.89
1653.45
1653.15
1653.03
1652.64
1652.26
1652.24
1652.68
1653.05
1653.46
1653.68
1653.75
1654.53
1654.28
1654.48
1654.71
1654.76
1654.97
1655.22
1655.4
1655.62
1655.85
1656.12
1656.42
1656.76
1657.12
1657.57
1658.38
1658.82
1658.88
1658.87
1658.66
1658.44
1658.45
1658.61
1636.92
1636.48
1635.96
1635.42
1634.86
1634.39
1634.31
1635.01
1634.08
1633.27
1633.08
1632.83
1632.96
1633.32
1633.57
1633.79
1633.68
1633.85
1633.68
1633.76
1633.54
1633.67
1633.8
1634
1634.21
1634.5
1634.82
1635.16
1635.61
1636.16
1636.75
1637.38
1638.08
1638.73
1639.21
1639.41
1638.9
1638.74
1639.26
1639.09
1617.98
1617.17
1616.81
1616.37
1615.73
1615.58
1615.64
1615.54
1614.64
1614.2
1613.89
1613.63
1613.53
1613.41
1613.67
1614.39
1612.83
1612.74
1612.73
1612.68
1612.6
1612.54
1612.39
1612.54
1612.85
1613.28
1613.74
1614.17
1614.7
1615.32
1616.02
1616.75
1617.46
1618.15
1618.74
1619.07
1619.14
1618.93
1619.15
1619.39
1598.62
1597.94
1597.42
1596.96
1596.64
1596.87
1597.1
1596.59
1595.21
1594.77
1594.25
1593.84
1593.5
1593.22
1592.93
1592.64
1592.19
1591.85
1591.76
1591.73
1591.62
1591.76
1591.79
1591.49
1592.02
1592.68
1593.38
1594.03
1594.7
1595.28
1596.01
1596.73
1597.4
1598.05
1598.42
1598.93
1599.48
1599.7
1599.76
1600
1579.13
1578.64
1577.87
1577.52
1577.35
1577.27
1577.07
1576.74
1576.43
1574.96
1573.79
1573.43
1573.18
1572.88
1572.6
1572.21
1571.52
1570.84
1570.55
1570.61
1570.82
1570.84
1571.12
1571.22
1571.53
1572.32
1573.25
1574.15
1575.05
1575.82
1576.47
1577.13
1577.76
1578.32
1578.8
1579.57
1580.19
1580.42
1580.6
1581.86
1559.35
1558.98
1558.24
1557.82
1557.47
1557.31
1557.18
1557
1556.46
1555.7
1555.16
1553.18
1552.96
1552.24
1551.72
1551.75
1550.91
1549.48
1548.93
1549.35
1549.91
1550.46
1550.75
1551.12
1551.71
1552.52
1553.48
1554.38
1555.44
1556.19
1557.08
1557.74
1558.29
1558.92
1559.49
1559.95
1560.62
1561.13
1561.26
1562.08
1539.6
1539.11
1538.62
1538.17
1537.62
1536.91
1536.9
1536.86
1537.72
1536.66
1536.37
1535.12
1534.29
1533.93
1532.81
1532.62
1530.93
1528.78
1526.77
1527.47
1528.85
1529.75
1530.58
1531.3
1532.16
1533.17
1534.22
1535.14
1536.12
1537.03
1537.71
1538.46
1539.12
1539.54
1539.98
1540.62
1541.08
1541.29
1542.72
1541.9
1519.91
1519.4
1519.07
1518.87
1518.71
1519.28
1519.69
1519.63
1519.43
1519.63
1518.67
1517.25
1516.25
1515.15
1514.82
1513.59
1512.88
1511.64
1508.43
1509.01
1510.08
1510.93
1511.64
1512.38
1513.04
1514
1515.09
1516.11
1516.89
1517.78
1518.54
1519.22
1519.78
1520.5
1520.89
1521.14
1521.63
1521.98
1524.1
1523.09
1500.54
1500.06
1500.16
1500.25
1500.29
1500.32
1500.3
1500.17
1500.37
1500.75
1500.37
1499.41
1498.2
1497.73
1496.53
1497.11
1495.75
1492.2
1492.04
1491.81
1491.9
1492.5
1493.25
1493.22
1493.58
1495.13
1496.14
1497.1
1497.91
1498.78
1499.53
1500.17
1500.75
1501.21
1501.83
1502.2
1502.6
1503.05
1503.73
1503.77
1481.71
1482.14
1482.18
1482.12
1481.69
1481.87
1481.88
1481.8
1481.73
1481.62
1481.22
1481.54
1480.74
1481.1
1479.1
1478.24
1476.95
1475.04
1477.04
1474.86
1475.5
1475.69
1476.01
1476.37
1475.29
1476.63
1477.83
1478.81
1479.6
1480.24
1480.81
1481.34
1481.84
1482.29
1482.68
1483.31
1483.64
1484.14
1484.52
1484.57
1462.67
1462.6
1462.53
1462.42
1462.35
1462.42
1462.46
1462.43
1462.38
1462.35
1462.27
1462.15
1462.13
1461.95
1461.27
1461.22
1460.85
1460.32
1459.6
1458.97
1458.97
1459.13
1459.29
1459.54
1458.57
1459.25
1460.01
1460.67
1461.22
1461.67
1462.07
1462.48
1462.92
1463.37
1463.79
1464.27
1464.76
1464.87
1465.2
1465.3
1443.25
1443.22
1443.12
1443.13
1443.13
1443.09
1443.08
1443.05
1443.02
1442.98
1442.89
1442.78
1442.63
1442.6
1442.83
1443.45
1444.66
1445.13
1444.64
1444.08
1443.52
1443.05
1441.99
1441.47
1441.35
1441.59
1441.98
1442.31
1442.57
1442.8
1443.09
1443.44
1443.85
1444.28
1444.71
1445.14
1445.64
1445.69
1445.77
1445.88
1422.44
1423.22
1423.66
1423.8
1423.65
1423.55
1423.53
1423.55
1423.61
1423.8
1423.77
1423.82
1423.8
1423.81
1423.93
1424.75
1426.09
1426.5
1426.24
1425.75
1424.96
1424.13
1423.66
1423.32
1423.08
1422.99
1423.07
1423.27
1423.5
1423.8
1423.83
1424.13
1424.5
1424.94
1425.38
1425.74
1426.04
1426.33
1426.83
1426.6
1401.92
1403.98
1404.16
1404.22
1404.03
1403.86
1403.85
1403.94
1404.14
1404.3
1404.48
1404.57
1404.62
1404.69
1404.69
1404.75
1405.7
1406.38
1406.35
1405.95
1405.31
1404.79
1404.39
1404.09
1403.88
1403.82
1403.87
1403.9
1404.51
1404.67
1404.33
1404.58
1404.93
1405.36
1405.79
1406.11
1406.45
1406.85
1407.19
1406.84
1384.57
1385.55
1385.73
1385.13
1384.38
1384.16
1384.28
1384.35
1384.68
1385.26
1385.35
1385.46
1385.62
1385.61
1387.46
1388.3
1386.23
1386.36
1386.54
1386.28
1385.77
1385.82
1385.64
1385.46
1385.05
1385.16
1385.04
1385
1385.01
1384.93
1384.76
1384.83
1384.96
1385.19
1385.58
1386.06
1386.4
1386.94
1387.06
1386.99
1365.48
1365.73
1365.35
1364.35
1365.53
1365.75
1364.2
1364.42
1365.52
1366.36
1366.85
1367.73
1368.5
1369.53
1370.02
1370.29
1368.07
1367.68
1367.24
1366.95
1366.79
1366.72
1366.27
1365.99
1365.85
1365.96
1365.63
1365.29
1365.17
1364.97
1364.64
1364.63
1364.68
1364.88
1365.33
1365.7
1366.09
1366.34
1366.45
1366.57
1345.36
1345.64
1345.73
1345.85
1347.23
1347.04
1346.8
1347.29
1348.13
1348.99
1349.75
1350.16
1349.86
1349.83
1350.12
1350.04
1349.26
1348.71
1348.1
1347.36
1347.09
1346.88
1346.61
1346.3
1346.24
1346.01
1345.79
1345.57
1345.39
1345.13
1345.01
1344.89
1344.78
1344.86
1345.15
1345.4
1345.69
1345.74
1345.57
1345.84
1325.17
1325.79
1326.4
1326.66
1326.58
1326.83
1327.19
1327.59
1327.92
1332.14
1331.3
1331.45
1331.55
1331.23
1330.61
1330.08
1329.32
1328.91
1328.23
1327.68
1327.5
1327.38
1327.23
1327.61
1326.79
1326.59
1326.42
1326.18
1325.95
1325.87
1325.86
1325.66
1325.68
1325.68
1325.65
1325.55
1325.47
1325.32
1326.28
1325.74
1306.47
1306.63
1307.28
1307.6
1306.97
1306.77
1307.28
1307.53
1307.83
1310.09
1310.92
1311.67
1311.87
1311.79
1311.32
1310.56
1309.93
1309.08
1308.21
1307.87
1307.84
1307.98
1307.98
1308.67
1307.32
1307.23
1307.17
1307
1306.85
1306.75
1306.76
1306.44
1306.32
1306.21
1306.11
1305.88
1306.06
1307.12
1307.84
1307.16
1286.94
1287.88
1288.34
1288.84
1288.01
1287.47
1286.45
1286.28
1286.84
1288.06
1289.98
1291.27
1291.55
1291.2
1291.08
1290.54
1289.97
1290.73
1290.5
1289.72
1288.49
1288.97
1289.25
1289.23
1288.29
1288
1287.81
1287.59
1287.51
1287.37
1287.29
1287.18
1287.05
1286.9
1286.73
1286.86
1287.81
1288.41
1288.09
1288.49
1267.34
1267.95
1269.6
1269.44
1268.16
1266.43
1264.68
1264.12
1263.92
1264.64
1266.66
1268.57
1269.26
1269.35
1269.57
1269.69
1269.61
1269.58
1270.53
1270.63
1270.43
1270.39
1270.29
1269.46
1269.2
1268.79
1268.27
1268.05
1267.97
1267.84
1267.69
1267.56
1267.42
1267.37
1267.42
1267.82
1268.31
1269.13
1268.75
1268.86
1247.46
1247.97
1249.3
1248.54
1247.93
1246.71
1245.75
1243.68
1243.11
1242.36
1242.66
1246.09
1247.57
1248.33
1248.86
1249.32
1249.57
1249.89
1250.21
1250.15
1250.34
1250.7
1250.52
1249.45
1249.82
1249.63
1249.41
1249.31
1249.41
1249.28
1248.87
1248.58
1248.22
1247.9
1248.1
1248.45
1248.82
1249.33
1249.09
1249.17
1227.57
1227.53
1227.03
1227.21
1227.13
1226.82
1225.86
1224.7
1224.37
1227.39
1223.64
1228.73
1230.13
1229.39
1229.27
1229.59
1229.86
1229.8
1229.74
1229.52
1229.24
1229.07
1228.9
1228.85
1229.39
1229.78
1230.43
1230.86
1231.25
1231.11
1230.94
1230.4
1229.77
1229.49
1229.36
1229.26
1229.43
1229.5
1229.47
1229.47
1206.05
1205.34
1203.99
1205.86
1204.53
1205.6
1206.9
1207.32
1211.44
1212.33
1207.91
1209.78
1212.01
1210.66
1209.76
1209.52
1209.71
1209.38
1209.09
1208.74
1208.27
1207.75
1207.56
1208.24
1209.29
1209.53
1211.11
1212.45
1212.3
1211.7
1211.31
1210.98
1210.76
1210.55
1210.18
1209.57
1209.78
1209.75
1209.62
1209.68
1186.12
1184.59
1183.1
1186.32
1187.23
1190.63
1189.81
1193.52
1193.14
1192.27
1194.13
1192.74
1193.67
1190.2
1189.26
1188.57
1188.43
1188.17
1187.94
1187.72
1187.3
1186.78
1186.6
1187.27
1188.2
1189.37
1190.24
1192
1192.1
1192.37
1192.19
1191.96
1191.7
1191.42
1191.11
1190.29
1190.53
1189.97
1189.86
1190.18
1169.84
1169.62
1168.98
1168.6
1169.18
1171.02
1171.9
1172.61
1174.18
1173.35
1172.54
1171.59
1173.02
1169.69
1168.53
1167.34
1166.74
1166.37
1166.16
1165.79
1165.23
1164.8
1164.91
1165.34
1167.31
1169
1169.96
1172.17
1173.26
1172.2
1172.85
1172.55
1172.29
1172.19
1171.93
1172.32
1171.19
1171.27
1171.21
1171.15
1153.4
1154.25
1154.1
1153.18
1151.46
1150.84
1152.52
1151.88
1151.41
1150.33
1148.77
1148.77
1150.08
1147.99
1147.75
1148.22
1145.06
1145.09
1144.12
1143.37
1142.13
1141.05
1140.63
1141.19
1142.89
1145.62
1149.13
1152.91
1154.47
1152.82
1153.13
1153.32
1152.84
1153.48
1153.4
1152.11
1152.12
1152.24
1152.38
1152.5
1136.32
1137.34
1136.7
1135.87
1134.86
1133.11
1133.01
1131.8
1129.66
1126.75
1124.86
1127.45
1130.15
1128.15
1128.28
1127.44
1126.03
1125.46
1124.3
1122.42
1119.53
1116.48
1115.98
1117.46
1121.03
1124.36
1127.84
1131.89
1132.85
1132.79
1132.72
1132.36
1132.12
1132.04
1132.72
1132.43
1132.94
1133.96
1133.82
1132.89
1119.02
1118.97
1120.19
1118.63
1117.21
1116.09
1115.27
1113.94
1111.26
1108.51
1107.28
1109.88
1109.95
1111.05
1111.3
1110.93
1109.53
1108.4
1107.22
1106.4
1103
1100.67
1103.44
1104.04
1102.91
1105.21
1106.74
1109.23
1111.04
1111.86
1112.15
1112.23
1112.9
1111.83
1110.47
1109.4
1110.1
1110.81
1112.04
1112.22
1100.57
1099.97
1101.79
1099.72
1099.3
1098.49
1097.95
1097.55
1096.16
1095.31
1095.74
1096.55
1096.43
1096.58
1096.54
1096.17
1094.52
1094.25
1092.6
1091.84
1089.98
1089.94
1089.59
1089.31
1088.78
1087.89
1086.54
1086.49
1088.95
1091.45
1092.13
1093.76
1093.49
1092.22
1090.64
1090.3
1091.51
1090.64
1093.56
1092.81
1084.23
1083.12
1083.42
1082.15
1081.26
1080.91
1080.71
1081
1080.94
1081.03
1081.45
1082
1081.43
1081.11
1080.14
1079.3
1078.87
1078.2
1077.92
1077.53
1075.87
1076.6
1076.18
1075.88
1075.57
1074.99
1073.51
1071.24
1072.58
1073.95
1073.9
1075.67
1076.17
1076.55
1076.32
1075.94
1077.98
1076.82
1075.86
1079.81
1067.78
1065.28
1065.11
1064.29
1063.69
1063.3
1063.68
1063.53
1063.55
1063.45
1065.6
1064.1
1063.34
1062.64
1062.09
1061.09
1060.35
1059.84
1060.64
1060.27
1059.98
1060.82
1060.97
1061.03
1060.82
1060.36
1058.6
1055.55
1055.71
1056.08
1056.69
1057.57
1057.87
1057.98
1057.77
1058.24
1058.99
1058.2
1057.67
1060.57
1046.44
1046.05
1045.63
1045.17
1044.9
1044.78
1045.15
1045.27
1046.2
1045.82
1044.82
1044.22
1044.09
1043.3
1042.23
1040.91
1040.1
1040.35
1040.45
1041.24
1041.47
1041.86
1044.53
1046.27
1043.14
1042.14
1041.09
1039.6
1038.96
1038.52
1038.18
1038.04
1038.07
1038.16
1039.62
1039.86
1040.94
1041.49
1040.55
1041.34
1027.07
1026.49
1026
1025.33
1025.14
1025.2
1025.4
1025.79
1026.58
1027.58
1025.59
1024.9
1024.67
1023.95
1022.91
1021.89
1021.32
1020.55
1021.14
1021.52
1021.66
1022.62
1022.59
1022.82
1023.13
1023.08
1022.56
1021.83
1021.68
1022.03
1021.81
1022.49
1023.56
1021.77
1023.62
1022.57
1022.9
1023.99
1023.74
1024.38
1008.27
1008.03
1007.4
1006.91
1006.49
1005.42
1005.53
1005.79
1006.27
1006.31
1005.28
1004.96
1004.83
1004.5
1003.82
1004.22
1003.74
1003.66
1003.46
1003.44
1003.67
1003.7
1003.93
1004
1004.07
1003.83
1003.43
1002.68
1002.2
1001.72
1001.28
1006.3
998.749
1002.33
1004.16
1003.78
1005.83
1006.83
1008.14
1008.37
987.686
987.185
987.117
987.358
986.796
985.143
984.869
984.667
984.475
984.214
984.425
984.154
984.298
984.172
985.312
986.102
986.073
986.211
986.073
985.523
985.372
984.86
984.836
984.765
984.644
984.359
983.887
983.187
982.349
981.594
981.077
979.933
978.31
981.385
983.478
984.463
985.977
986.95
987.389
989.023
966.894
966.468
965.873
965.465
965.08
964.758
964.153
963.972
964.855
965.221
965.683
965.85
965.898
966.307
966.371
967.696
967.844
967.778
967.794
966.901
966.51
965.767
965.494
965.291
965.052
964.717
964.281
963.846
963.696
963.754
963.453
962.572
960.961
961.623
963.716
965.143
966.13
966.961
967.443
967.48
945.462
945.194
945.066
944.916
944.732
944.577
944.323
945.218
946.057
946.35
946.197
946.211
946.301
946.775
947.56
948.475
948.752
948.42
948.097
947.553
947.034
946.232
945.927
945.721
945.532
945.367
945.209
944.967
946.821
947.529
947.132
946.86
944.894
944.261
945.367
945.89
946.434
946.966
947.282
947.383
924.646
924.735
924.076
924.132
924.224
924.358
924.449
924.75
925.153
927.487
925.799
926.67
926.654
926.705
926.267
931.177
927.867
927.669
927.385
927.219
926.828
926.311
925.932
925.784
925.776
925.76
925.784
925.829
930.258
931.35
928.355
928.243
927.934
927.346
927.001
927.195
927.218
927.463
927.439
927.358
903.688
903.466
903.244
903.49
903.894
904.195
904.478
904.729
904.848
904.687
905.185
905.109
905.326
905.555
905.709
909.056
906.009
906.854
907.071
907.002
906.808
906.441
906.095
905.992
906.033
906.041
905.386
906.735
907.827
907.264
907.997
908.248
908.286
907.753
907.917
907.965
907.92
908.518
908.143
909.169
883.471
883.374
883.266
883.645
884.171
884.444
884.789
884.961
885.018
884.843
884.694
884.211
885.768
886.534
887.117
888.092
887.467
887.598
888.018
887.583
887.309
886.94
886.635
886.353
886.41
886.895
887.023
886.824
887.388
887.526
887.662
887.687
887.567
887.668
887.87
888.252
888.806
888.954
889.348
890.395
864.309
863.845
863.722
864.339
864.553
864.997
865.351
865.531
865.805
865.858
865.367
865.371
865.124
865.079
868.06
867.854
868.299
869.086
869.051
868.751
868.453
867.86
867.527
866.639
867.54
868.404
866.719
867.029
867.196
867.309
867.087
866.746
866.269
865.913
866.531
867.41
868.44
869.523
870.506
872.096
847.22
846.728
846.488
846.72
846.945
846.884
846.86
846.724
846.676
846.321
845.601
845.094
845.291
846.05
848.024
849.243
849.519
850.459
851.221
850.953
849.953
848.752
848.56
848.936
847.335
847.49
847.898
848.045
848.05
847.897
847.619
847.206
846.386
844.329
843.232
844.995
848.055
850.519
852.535
853.655
831.963
831.651
831.617
831.577
830.939
829.481
827.621
826.241
825.555
825.485
825.576
827.145
829.834
831.176
832.555
833.808
834.529
833.594
834.684
834.017
831.873
831.976
831.356
828.969
828.639
829.005
829.356
829.365
829.328
829.416
829.526
829.266
829.588
831.701
830.963
829.46
831.276
834.349
836.622
836.4
818.521
816.535
817.213
817.86
816.292
812.641
808.34
805.427
803.759
802.943
803.216
804.683
806.993
811.907
815.311
816.44
819.616
820.029
821.253
820.515
817.704
814.95
810.95
810.176
810.281
810.809
811.226
811.65
811.818
812.442
813.36
814.122
815.629
816.345
816.063
817.239
819.843
820.966
822.926
821.834
802.961
803.739
801.04
801.757
800.251
793.62
784.714
778.001
776.232
777.17
777.914
779.801
783.388
786.826
790.643
795.392
799.608
802.336
803.234
802.96
801.637
798.135
794.911
792.829
792.426
792.64
792.582
792.62
792.779
794.005
795.832
797.339
800.46
803.037
805.25
807.044
808.06
807.513
809.047
807.803
781.387
781.302
782.465
783
779.452
778.221
770.422
756.775
755.084
755.932
753.145
752.179
754.713
759.453
764.594
770.129
775.107
779.366
781.878
782.535
781.575
779.356
774.837
778.113
772.505
772.969
772.74
773.651
775.206
775.767
777.695
780.58
783.005
787.551
789.396
790.24
789.303
790.183
790.563
789.683
759.46
760.072
760.665
760.256
759.275
760.484
754.429
744.992
739.908
741.173
739.673
734.927
732.244
733.283
737.618
744.049
749.915
754.272
757.42
759.936
760.494
758.246
757.615
757.142
756.333
755.555
755.572
752.79
755.166
756.656
758.28
759.511
761.226
764.858
769.209
767.971
769.318
770.545
770.539
771.407
736.217
736.673
736.544
735.888
735.756
733.758
730.995
728.088
724.449
720.907
720.864
718.58
717.861
718.538
719.823
723.329
728.842
732
732.568
736.365
737.825
737.354
737.627
737.2
737.169
737.362
738.287
736.996
736.978
737.32
737.797
739.286
740.69
742.692
745.512
747.513
749.001
750.086
751.955
751.152
711.539
711.312
710.756
709.514
708.876
706.819
706
705.679
704.547
704.267
704.975
705.795
706.423
707.229
707.608
706.756
711.707
711.235
710.331
711.643
713.778
714.055
713.03
715.947
716.303
716.411
714.842
715.045
716.222
716.625
716.364
716.229
716.924
717.534
725.283
724.895
727.764
728.189
733.085
730.793
685.145
684.809
684.306
683.567
683.085
682.944
683.042
683.811
683.857
686.256
688.672
690.818
692.554
693.728
695.179
694.754
699.931
696.479
700.02
693.362
692.251
688.351
690.563
693.686
692.994
694.838
695.955
697.17
696.633
696.352
697.054
697.046
697.574
701.94
704.891
703.733
706.271
708.304
709.791
710.873
655.147
654.902
655.001
655.608
656.523
657.403
660.162
661.944
663.782
666.438
672.046
674.663
676.908
678.433
678.064
683.473
683.348
682.757
686.096
684.81
681.402
682.712
677.426
679.828
679.371
678.95
680.081
681.587
682.427
682.456
685.426
686.324
686.248
691.821
688.817
689.602
687.308
688.307
690.211
691.79
618.521
619.748
622.005
624.478
627.263
630.729
634.937
637.98
642.14
645.72
649.506
655.005
657.841
658.143
660.357
663.169
665.223
666.876
671.211
669.683
674.01
671.818
668.494
667.48
667.213
667.459
667.969
668.76
669.564
670.199
672.309
674.863
671.397
675.29
674.467
677.175
674.485
674.924
675.841
676.421
584.786
588.038
590.275
593.02
596.874
604.752
608.598
613.803
618.479
622.835
626.92
630.906
634.352
637.746
641.189
644.629
647.49
649.095
654.8
655.997
652.484
655.742
653.138
651.543
651.289
651.241
651.496
652.401
653.442
654.733
655.775
657.831
659.734
660.483
660.379
661.527
661.421
660.035
661.037
661.428
570.754
572.447
570.951
566.971
572.188
579.537
585.329
590.885
595.929
600.589
605.211
609.939
614.505
618.802
622.907
626.628
629.724
631.603
636.66
636.817
633.174
639.581
638.788
636.448
635.714
634.777
634.828
635.733
636.638
637.83
642.096
642.402
642.036
643.073
644.667
645.205
646.363
647.066
645.228
644.198
556.565
556.548
558.319
555.825
557.93
562.876
567.148
570.991
575.364
579.816
584.528
589.544
594.477
599.243
603.269
606.505
607.705
619.074
613.569
618.93
613.149
621.235
621.784
619.551
619.649
618.516
618.155
620.936
622.751
623.342
623.713
625.412
626.042
627.06
628.323
628.983
628.508
630.938
629.998
628.359
541.968
541.826
541.741
541.534
542.213
545.177
548.648
552.299
556.264
560.73
565.729
570.636
575.307
579.756
584.137
588.907
592.88
598.252
594.271
597.271
593.91
601.607
600.909
604.069
602.6
600.356
602.336
604.584
605.357
608.52
608.891
607.904
606.909
607.55
609.362
610.892
611.256
611.114
611.167
611.184
524.922
525.649
525.979
525.262
528.946
529.875
532.24
535.888
539.583
543.8
548.416
552.678
556.638
560.673
563.593
571.375
572.702
578.256
574.747
575.432
578.026
580.458
582.73
584.951
580.392
582.126
582.271