/*--------------------------------*- C++ -*----------------------------------*\
  =========                 |
  \\      /  F ield         | OpenFOAM: The Open Source CFD Toolbox
   \\    /   O peration     | Website:  https://openfoam.org
    \\  /    A nd           | Version:  8
     \\/     M anipulation  |
\*---------------------------------------------------------------------------*/
FoamFile
{
    version     2.0;
    format      ascii;
    class       volScalarField;
    location    "7.5";
    object      p_rgh;
}
// * * * * * * * * * * * * * * * * * * * * * * * * * * * * * * * * * * * * * //

dimensions      [1 -1 -2 0 0 0 0];

internalField   nonuniform List<scalar> 
9150
(
1963.55
1962.54
1961.92
1961.45
1961.22
1961.21
1961.45
1961.92
1962.54
1963.55
1963.11
1962.6
1962.18
1961.85
1961.68
1961.7
1961.87
1962.18
1962.6
1963.12
1962.84
1962.56
1962.3
1962.09
1961.98
1961.98
1962.08
1962.31
1962.56
1962.84
1962.72
1962.55
1962.38
1962.22
1962.13
1962.14
1962.22
1962.38
1962.55
1962.72
1962.72
1962.54
1962.41
1962.28
1962.21
1962.21
1962.27
1962.4
1962.54
1962.72
1951.76
1950.93
1951.2
1951.59
1951.8
1951.81
1951.63
1951.23
1950.94
1951.77
1955.83
1955.12
1954.96
1954.89
1954.98
1954.98
1954.88
1954.97
1955.12
1955.84
1958.94
1958.19
1957.9
1957.54
1957.47
1957.47
1957.53
1957.91
1958.2
1958.95
1961.68
1960.53
1960.08
1959.45
1959.28
1959.27
1959.45
1960.07
1960.52
1961.67
1964.25
1962.19
1961.43
1960.73
1960.47
1960.45
1960.75
1961.44
1962.2
1964.26
1947.22
1945.66
1943.88
1942.74
1942.15
1942.1
1942.55
1943.6
1945.72
1947.47
1946.27
1945.96
1944.92
1944.6
1944.18
1944.21
1944.71
1945.1
1946.13
1946.45
1945.74
1945.89
1944.86
1945.3
1944.8
1944.8
1945.23
1944.9
1945.98
1945.85
1942.55
1945.4
1944.39
1945.92
1945.76
1945.77
1945.96
1944.47
1945.45
1942.62
1936.5
1946.07
1946.56
1947.97
1948.37
1948.34
1947.94
1946.56
1946.08
1936.52
1470.62
1471.48
1472.49
1473.76
1475.23
1476.75
1478.71
1480.12
1481.42
1482.01
1469.31
1470.42
1471.62
1472.52
1474.3
1475.88
1477.61
1479.2
1480.5
1481.16
1468.54
1469.41
1470.57
1471.88
1473.27
1474.23
1475.82
1477.52
1478.61
1479.29
1465.64
1466.56
1468.31
1469.62
1470.17
1472.34
1473.99
1475.87
1476.71
1477.15
1461.32
1462.97
1464.49
1464.06
1465.64
1467.89
1472.49
1473.96
1474.77
1475.24
1457.37
1459.11
1460.58
1458.92
1461.78
1465.41
1469.66
1471.21
1472.32
1473.08
1449.9
1457.59
1456.65
1457.7
1461.26
1466.14
1467.93
1469.3
1469.6
1471.05
1446.08
1450.14
1461.98
1463.46
1465.27
1466.75
1468
1467.87
1467.55
1468.53
1446.6
1450.66
1464.6
1465.82
1466.91
1467.85
1468.14
1466.14
1467.03
1468.26
1452.63
1461.03
1466.74
1467.44
1468.31
1469.09
1469.49
1467.64
1467.79
1470.74
1450.62
1446.79
1468.64
1469.6
1469.71
1469.98
1470.04
1470.1
1470.66
1470.99
1433.28
1433.34
1437.22
1442.12
1445.32
1459.01
1464.05
1459.57
1458.37
1470.51
1436.33
1435.87
1435.16
1434.38
1433.55
1432.58
1432.1
1432.3
1432.22
1445.89
1479.57
1449.87
1435.55
1434.74
1434.11
1433.77
1433.16
1432.92
1431.95
1431.38
1481.58
1481.18
1474.62
1463.54
1457.18
1460
1456.27
1447.86
1441.12
1436.88
1480.64
1481.41
1482.14
1482.06
1481.69
1480.56
1479.42
1477.92
1475.45
1472.58
1480.18
1480.66
1480.49
1480.23
1479.98
1479.36
1478.3
1477.85
1476.78
1475.15
1473.78
1465.66
1467.04
1475.28
1477.43
1476.98
1476.38
1475.74
1475.14
1474.45
1456.56
1456.06
1455.51
1454.49
1470.68
1474.21
1473.51
1472.85
1472.31
1471.97
1473.99
1471.3
1469.69
1469.75
1470.87
1470.12
1469.21
1468.56
1468.17
1468.11
1473.25
1471.47
1469.76
1468.04
1466.33
1464.68
1463.39
1462.66
1462.64
1463.2
1469.65
1464.98
1454.66
1437.79
1426.56
1417.12
1413.75
1412.38
1422.15
1451.29
1432.8
1385.02
1337.11
1333.49
1331.75
1330.12
1328.01
1326.77
1328.9
1334.42
1336.83
1335.35
1334.2
1332.99
1331.8
1330.09
1344.15
1344.99
1330.32
1331.08
1368.66
1335.14
1334.43
1333.12
1337.31
1444.59
1474.24
1472.03
1449.44
1421.62
1478.01
1396.85
1336.71
1372.11
1478.72
1477.51
1476.23
1474.61
1472.43
1470.05
1479.19
1478.76
1448.46
1391.1
1431.65
1472.96
1473.72
1473.85
1475.47
1474.51
1480.72
1480.95
1481.08
1452.63
1405.32
1403.1
1400.47
1440.69
1480.27
1476.67
1476.82
1483.37
1484.16
1484.97
1485.36
1475.51
1394.67
1385.35
1384.58
1382.29
1393.3
1470.46
1474.97
1485.43
1488.08
1488.82
1489.78
1489.91
1467.11
1381.36
1384.3
1385.55
1385.63
1418.68
1491.14
1490.45
1491.96
1491.76
1468.43
1437.09
1429.22
1384.95
1384.96
1384.62
1385.06
1472.89
1472.89
1488.55
1487.26
1445.39
1490.65
1488.39
1459.23
1411.59
1441.05
1487.5
1495.24
1495.67
1494.02
1477.19
1494.24
1495.28
1495.06
1490.77
1492.82
1496.11
1496.65
1496.84
1496.96
1497.12
1492.8
1491.62
1495.28
1496.44
1496.58
1496.74
1496.91
1497.11
1497.21
1497.16
1471.89
1491.54
1496.49
1496.83
1497.06
1497.34
1497.69
1497.68
1497.33
1491.55
1458.04
1494.36
1497.4
1497.56
1497.77
1498.06
1498.16
1497.95
1497.36
1479.24
1486.76
1498.99
1498.51
1498.37
1498.35
1498.4
1498.32
1497.83
1496.72
1488.87
1499.15
1498
1498.13
1498.91
1499.24
1499.05
1498.41
1497.47
1495.4
1484.26
1468.84
1441.49
1453.73
1475.86
1483.03
1489.43
1501.22
1499.89
1443.57
1453.64
1435.8
1436.2
1436.49
1436.8
1437.02
1436.75
1435.84
1445.16
1434.86
1430.71
1499.61
1488.95
1474.91
1442.5
1455.04
1487.33
1499.76
1501.04
1495.23
1474.06
1504.43
1505.16
1505.88
1506.5
1494.13
1494.98
1507.42
1506.43
1503.9
1499.83
1505.77
1506.33
1506.81
1506.95
1506.82
1506.36
1505.4
1503.62
1500.66
1496.66
1508.29
1508.22
1508.09
1507.7
1506.56
1503.32
1501.32
1499.19
1494.89
1486.21
1511.42
1511.29
1510.68
1506.44
1500.4
1461.38
1467.32
1495.9
1489.77
1476.55
1515.33
1514.56
1503.4
1466.35
1463.8
1460.34
1459.92
1486.12
1464.14
1412.35
1516.91
1477.92
1462.34
1468.14
1484.92
1508.63
1503.96
1441.75
1392.03
1320.25
1490.91
1437.83
1474.85
1515.77
1513.11
1509.66
1491.91
1459.59
1492.7
1496.05
1415.56
1515.07
1513.44
1510.84
1508.57
1506.11
1503.32
1501.14
1498.99
1498.45
1484.39
1490.96
1478.49
1502.02
1501.01
1500.17
1499.31
1495.72
1470.32
1484.83
1382.15
1379.33
1376.82
1431.5
1481.16
1495.06
1492.08
1469.17
1468.15
1474.65
1470.57
1467.42
1464.76
1348.58
1346.88
1463.93
1464.8
1417.59
1484.97
1486.37
1304.11
1371.7
1340.52
1340.38
1346.69
1290.94
1341.88
1329.09
1318.01
1484.96
996.186
916.215
759.584
755.553
743.853
750.574
1067.13
920.488
942.956
1431.51
757.472
722.798
722.508
723.003
724.399
803.565
804.591
807.468
865.639
1381.05
1390.47
1003.45
1049.15
1143.27
1142.94
1420.69
1170.47
1376.83
1517.39
1506.08
1409.22
1500.83
1524.23
1525.42
1526.74
1528.12
1528.8
1529.57
1518.71
1482.36
1102.59
1114.21
1439.29
1517.79
1521.23
1524.56
1527.17
1527.05
1495.32
1478.84
1301.92
998.772
1054.71
1441.78
1511.68
1517.58
1522.59
1526.1
1514.83
1514.25
1336.69
962.076
972.727
1013.06
1363.34
1512.96
1519.26
1523.6
1526.97
1528.17
1036.08
963.149
971.069
976.131
981.294
1203.1
1515.46
1524.54
1528.79
1532.26
691.926
1182.54
1216.31
979.778
983.468
986.438
1070.78
1465.56
1532.71
1537.16
660.478
839.784
1240.28
1277.86
1144.52
994.07
999.064
1170.04
1475.8
1543.77
661.164
662.79
694.22
1314.78
1428.53
1319.74
1131.42
1175.54
1469.77
1547.96
661.749
664.11
899.598
1407.5
1450.25
1169.86
1147
1280.09
1552.52
1554.47
668.263
997.067
1538.38
1563.65
1521.81
1231.99
1217.35
1542.53
1560.39
1559.42
1014.18
1541.55
1572.46
1579.57
1579.43
1572.92
1558.23
1560.94
1553.56
1479.18
1486.03
1516.6
1589.67
1598.23
1597.56
1587.08
1572.28
1498.38
1109.02
683.478
1462.61
1403.68
1271.28
1401.85
1472.11
1450.09
1516.79
1207.37
670.253
635.469
1362.06
1152.25
1127.91
1267.79
1296.62
1252.66
1322.56
1193.75
1187.25
992.167
950.608
1026.69
1085.3
1348.03
1442.01
1264.98
1256.39
1376.06
1494.46
1360.03
1019.22
1347.08
1183.59
883.892
1451.92
1477.19
1483.96
1498.06
1497.57
1437.67
1540.46
1550.12
1496.74
746.926
1372.12
1496.71
1430.51
1504.97
1503.69
1502.25
1575.52
1577.53
1579.46
764.316
1339.04
1464.78
838.606
1218.31
1474.3
1502.35
1597.01
1599.19
1599.69
694.084
1414.38
1508.95
667.855
635.327
951.36
1312.75
1607.79
1611.28
1493.09
682.708
1500.72
1508.97
680.969
618.425
731.538
1254.51
1613
1615.92
1379.17
669.953
1523.62
1514.08
696.724
619.873
1125.94
1367.01
1619.71
1573.1
1053.61
654.171
1513.12
1499.66
652.346
735.786
1408.13
1376.35
1622.98
1545.92
862.587
619.02
1575.78
1443.47
621.414
684.657
1410.34
1403.8
1601.15
1571.52
1126.05
598.558
1565.07
1463
609.305
669.369
1405.03
1340.6
893.4
1096.27
1091.86
545.001
1568.96
1513.77
594.347
591.244
1321.43
538.643
34.8732
138.222
399.469
517.182
1589.16
1534.49
572.537
609.34
731
372.837
1.70644
1.05693
0.721741
476.277
1604.59
1551.5
529.566
639.654
646.568
241.135
0.283355
0.265384
0.352417
530.389
1625.37
1626.91
532.416
526.893
87.3612
2.23065
0.157805
0.142133
0.154401
607.065
1658.07
1666.62
609.648
2.28119
0.893671
2.39571
0.140523
0.138569
0.139127
715.435
1688.49
1692.06
714.641
0.565061
0.528028
1.3055
0.142838
0.142873
0.142682
829.015
1712.62
1715.91
829.462
0.37106
0.382267
0.399582
0.135286
0.135669
0.134173
952.972
1735.34
1736.57
952.747
0.322946
0.545418
0.56578
0.120239
0.119574
0.115737
1052.37
1758.21
1757.18
1049.97
0.246048
0.499524
0.577213
0.112609
0.103223
0.103787
1191.83
1777.28
1777.61
1190.1
0.146268
0.1479
0.380005
0.0963102
0.0836424
0.0945608
1315.6
1795.99
1799.72
1317.16
0.0914547
0.0851071
0.0871062
0.0759542
0.0664787
44.4694
1478.18
1815.58
1817.72
1478.41
32.5301
0.0676342
0.0593685
0.0511577
0.0504257
204.616
1619.45
1836.68
1835.34
1619.26
183.538
0.0537641
0.0314089
0.0388122
0.037602
450.49
1773.66
1854.82
1854.11
1728.55
360.747
0.0184471
0.0101831
0.0303885
0.0278987
742.496
1840.14
1874.05
1873.66
1840.44
719.399
-0.00888574
-0.00426942
0.0230776
0.0340356
1256.73
1891.52
1892.21
1892.17
1891.33
1223.72
0.00502686
0.00359199
0.0143529
178.98
1652.75
1909.7
1911.05
1911.52
1910.7
1661.05
115.63
0.00990474
0.0102762
1131.8
1927.37
1927.46
1926.99
1926.8
1926.65
1920.22
1012.23
0.00386986
610.078
1865.25
1939.08
1937.47
1936.98
1937.11
1937.92
1939.75
1866.42
584.985
1482.12
1481.88
1481.57
1481.47
1480.81
1480.32
1479.85
1479.36
1478.86
1478.3
1477.67
1477.14
1476.1
1474.8
1473.78
1473.04
1472.51
1472.18
1472.09
1472.2
1472.46
1472.82
1473.19
1473.45
1473.66
1473.9
1474.23
1474.83
1475.76
1476.84
1478.02
1479
1479.45
1479.42
1478.98
1478.47
1478.31
1478.44
1478.76
1478.97
1481.57
1481.59
1481.22
1481.22
1480.49
1480.07
1479.55
1479.02
1478.3
1477.56
1476.67
1475.73
1474.74
1473.66
1472.63
1472.05
1471.62
1471.42
1471.35
1471.36
1471.51
1471.83
1472.17
1472.35
1472.56
1472.82
1473.19
1473.9
1474.88
1476.09
1477.38
1478.22
1478.51
1478.32
1477.76
1477.34
1477.43
1477.85
1478.3
1478.51
1479.89
1480.24
1479.88
1479.78
1479.48
1479.1
1478.63
1478.05
1477.33
1476.36
1475.41
1474.52
1473.42
1471.57
1470.45
1469.88
1469.53
1469.66
1469.83
1470.02
1470.14
1470.3
1470.66
1470.93
1471.37
1471.73
1471.9
1471.9
1472.68
1473.45
1475.65
1476.74
1477.22
1477.47
1477.51
1477.22
1478.05
1478.84
1479.26
1479.65
1477.74
1478.19
1477.84
1477.78
1477.89
1477.61
1477.14
1476.53
1475.74
1474.89
1473.96
1472.95
1471.02
1468.5
1467.46
1466.59
1467.82
1468.8
1469.17
1469.37
1468.58
1468.61
1469.05
1469.65
1470.11
1470.63
1470.16
1470.41
1471.21
1471.91
1472.56
1473.77
1476.29
1476.51
1476.8
1477.57
1478.35
1478.91
1479.42
1479.64
1475.75
1476.11
1475.59
1475.67
1475.82
1475.86
1475.52
1475.01
1474.34
1473.47
1472.58
1471.79
1469.52
1467.22
1466.35
1465.71
1468.2
1468.86
1468.53
1467.92
1466.98
1466.72
1465.47
1466.67
1468.48
1469.17
1469.88
1470.61
1470.6
1469.62
1470.28
1471.78
1471.92
1471.93
1471.95
1472.49
1475.56
1477.84
1478.78
1479.26
1473.75
1474.25
1473.72
1473.75
1473.93
1474.28
1474.02
1473.66
1473.2
1472.59
1472
1471.36
1470.21
1466.19
1465.59
1465.63
1468.82
1468.93
1469.04
1469.05
1469.01
1468.07
1464.2
1463.75
1463.28
1467.34
1467.37
1467.82
1468.68
1469.76
1471.12
1472.6
1472.06
1469.29
1469.36
1469.28
1469.64
1471.65
1476.75
1479.07
1472.13
1472.71
1472.62
1472
1471.9
1473.12
1473.03
1472.82
1472.55
1472.17
1471.71
1471.25
1469.67
1465.61
1465.09
1464.68
1468.69
1469.49
1469.55
1469.62
1469.66
1469.43
1469.04
1467.32
1462.5
1461.24
1462.15
1466.03
1466.87
1467.98
1469.39
1470.9
1472.39
1474.02
1472.06
1467.15
1467.78
1468.06
1471.48
1477.95
1471.28
1471.69
1471.96
1470.92
1470.43
1470.62
1472.09
1472.15
1472.1
1471.97
1471.75
1471.49
1468.53
1465.6
1465.15
1464.72
1464.77
1469.39
1469.88
1470.08
1470.14
1469.98
1470.09
1469.53
1465.36
1461.22
1460.19
1460.9
1467.12
1468.02
1469.06
1470.31
1471.01
1472.92
1474.23
1469.38
1466.63
1466.97
1472.93
1476.45
1470.99
1471.31
1471.47
1471.32
1469.51
1469.44
1469.44
1470.76
1471.51
1471.71
1471.82
1471.79
1470.12
1465.8
1465.49
1465.08
1464.92
1465.44
1470.64
1470.84
1470.98
1470.48
1468.55
1468.32
1469.29
1466.66
1462.5
1461.81
1468.3
1469.57
1470.02
1470.57
1466.11
1469.56
1473.27
1472.74
1469.21
1472.39
1474.77
1475.08
1471.07
1471.31
1471.38
1471.28
1470.2
1469.18
1469.26
1469.79
1471.61
1471.87
1472.03
1472.16
1472.27
1471
1467.53
1465.86
1465.75
1465.72
1471.56
1471.93
1472.14
1472.2
1470.59
1467.97
1467.7
1465.35
1463.67
1467.23
1471.43
1471.19
1471.12
1468.89
1464.64
1465.55
1472.3
1473.23
1473.99
1474.18
1474.18
1474.35
1471.3
1471.59
1471.59
1471.51
1471.38
1470.41
1470.97
1471.49
1471.72
1472.05
1472.06
1472.59
1472.87
1473.17
1473.07
1471.15
1467.02
1469.68
1472.84
1472.93
1473.09
1473.4
1473.53
1473.32
1472.06
1471.5
1472.01
1472.29
1472.54
1472.29
1471.6
1463.79
1463.41
1463.48
1471.04
1473.22
1473.53
1473.63
1473.68
1473.75
1471.44
1472
1472.01
1471.93
1471.69
1471.65
1471.08
1471.76
1469.78
1469.25
1471.59
1473.11
1473.46
1473.76
1474.05
1472.81
1471.83
1474.18
1474.51
1474.68
1474.81
1474.87
1474.91
1474.91
1474.85
1474.75
1474.6
1474.15
1471.9
1468.78
1463.84
1463.15
1463
1462.84
1467.46
1471.96
1472.71
1472.96
1473.02
1473.09
1472.46
1472.96
1472.59
1472.52
1472.05
1469.87
1467.12
1468.25
1468.58
1468.95
1472.32
1473.89
1474.2
1474.56
1474.87
1475.06
1475.69
1476.08
1476.38
1476.56
1476.62
1476.6
1476.49
1476.26
1475.52
1473.51
1468.68
1469.75
1465.68
1465.58
1464.98
1464.73
1464.34
1463.84
1464.68
1463.98
1464.94
1468.05
1471.89
1472.31
1439.83
1465.9
1472.09
1472.28
1467.63
1461.12
1466.33
1471.6
1468.84
1470.17
1473.7
1474.48
1474.87
1475.31
1475.8
1476.32
1476.99
1477.57
1478.05
1478.31
1478.35
1478.28
1477.48
1470.84
1466.16
1465.38
1465.11
1464.51
1467.65
1473.34
1473.12
1472.14
1471.27
1470.75
1465.74
1461.27
1461.41
1461.67
1465.43
1471.81
1440.97
1452.21
1460.08
1459.97
1460.28
1460.18
1469.41
1474.14
1473.47
1474.07
1474.41
1474.91
1475.44
1475.91
1476.5
1477.08
1478.19
1479.12
1479.53
1479.69
1480
1478.56
1466.67
1464.71
1464.29
1467.81
1473.83
1476.74
1475.58
1474
1472.21
1470.39
1468.62
1467.37
1466.96
1465.38
1458.2
1458.7
1459.47
1467.98
1472.05
1466.8
1469.44
1465.45
1461.93
1466.31
1473.53
1474.54
1474.87
1475.07
1475.32
1475.52
1475.82
1476.03
1475.3
1473.06
1478.75
1479.75
1480.26
1472.07
1464.71
1464.67
1463.99
1468.64
1477.75
1478.57
1477.99
1477.08
1475.72
1473.45
1470.36
1467.05
1463.88
1461.45
1460.24
1460.44
1461.84
1458.85
1455.4
1460.09
1475.56
1475.27
1474.83
1474.07
1473.08
1473.91
1474.34
1474.76
1475.16
1475.54
1475.79
1475.96
1476.02
1471.52
1463.43
1464.34
1471.7
1479.42
1479.65
1472.66
1467.43
1478.15
1478.06
1477.48
1477.27
1477.4
1477.49
1476.86
1474.32
1470.3
1465.2
1459.02
1452.29
1443.35
1442.3
1448.18
1453.13
1456.17
1452.25
1453.53
1473.73
1473.63
1473.71
1473.61
1473.7
1473.99
1474.27
1471.46
1469.76
1475.5
1475.72
1475.89
1471.09
1461.28
1461.57
1462.32
1463.03
1474.2
1478.1
1478.06
1476.94
1475.69
1474.41
1473.62
1473.15
1472.59
1473.24
1471.75
1469.24
1464.61
1457.81
1435.7
1387.29
1352.79
1352.33
1394.85
1434.35
1449.65
1452.83
1448.13
1471.27
1471.29
1471.84
1472.31
1472.72
1473.24
1473.75
1466.13
1464.63
1473.78
1474.99
1475.08
1464.97
1459.77
1459.71
1459.74
1459.66
1471.97
1473.44
1471.37
1469.33
1470.67
1468.76
1463.44
1438.84
1429.65
1456.55
1464.91
1464.04
1461.24
1455.24
1393.26
1328.3
1326.13
1328.06
1363.43
1450.38
1452.89
1453.71
1450.14
1468.27
1468.54
1469.37
1470.08
1470.82
1471.59
1472.19
1468.17
1462.33
1463.53
1473.21
1473.98
1462.9
1456.58
1455.97
1455.1
1460.54
1468.01
1465.8
1456.35
1454.4
1463.91
1459.6
1418.73
1406.4
1406.23
1405.37
1430.83
1430.19
1439.23
1447.58
1408.59
1340.72
1333.47
1334.93
1335.52
1432.38
1463.15
1463.18
1459.53
1464.08
1465
1465.99
1467.14
1468.3
1469.41
1470.45
1471.33
1460.47
1458.7
1468.86
1471.38
1463.74
1452.71
1451.34
1453.65
1463.82
1460.98
1433.1
1416.97
1439.3
1458.75
1437.72
1399.01
1398.88
1398.8
1398.58
1398.67
1398.9
1399.14
1416.88
1461.06
1462.43
1380.5
1336.15
1336.47
1336.04
1351.92
1444.75
1456.08
1459.18
1460.75
1462.34
1464.02
1465.64
1467.03
1468.37
1469.34
1458.25
1455.34
1465.64
1467.61
1465.11
1450.03
1448.74
1460.44
1458.26
1446.84
1408.73
1407.92
1430.48
1452.77
1445.1
1393.37
1391.45
1391.38
1391.38
1391.9
1392.96
1394.78
1428.82
1459.67
1463.29
1467.33
1463.3
1362.31
1334.81
1334.55
1333.29
1338.3
1371.92
1434.59
1437.29
1451.45
1462.65
1464.42
1465.61
1466.43
1452.69
1451.83
1463.42
1464.51
1462.39
1457.44
1456.81
1456.09
1453.12
1424.99
1403.09
1413.19
1447.01
1446.73
1446.62
1429.48
1383.33
1384.01
1384.42
1385.01
1400.21
1431.62
1455.46
1459.77
1463.97
1468.08
1471.58
1474.65
1378.2
1334.52
1334.24
1334
1331.05
1354.09
1436.27
1441.74
1457.43
1462.04
1462.94
1463.56
1449.05
1449.25
1461.8
1462.07
1458.6
1457.36
1454.66
1451.57
1447.92
1426.98
1410.32
1438.39
1437.52
1437.54
1428.51
1423.07
1415.6
1383.97
1386.48
1438.34
1450.75
1452.71
1455.28
1459.08
1463.4
1467.55
1471.66
1475.68
1479.7
1417.12
1350.39
1335.58
1412.46
1435.63
1458.88
1456.46
1457.19
1460.2
1460.68
1461.97
1453.71
1448.37
1460.51
1458.57
1456.31
1454.73
1451.51
1447.5
1442.6
1435.05
1382.55
1303.15
1403.5
1424.66
1404.67
1395.97
1398.18
1415.23
1436.36
1441.61
1445.35
1450.22
1454.96
1458.73
1462.52
1466.29
1470.51
1474.95
1479.1
1482.39
1479.81
1434.07
1467.89
1466.94
1466.07
1465.55
1463.8
1463.15
1463.19
1463
1464.54
1462.38
1460.32
1458.13
1456.33
1453.53
1449.83
1445.25
1439.78
1432.27
1302.61
1243.41
1246.13
1410.54
1428.33
1400.06
1395.46
1402.34
1415
1411.19
1405.71
1417.33
1446.66
1458.23
1462
1465.73
1469.49
1473.32
1477.04
1480.41
1474.31
1431
1473.41
1472.47
1471.71
1471.25
1470.98
1468.51
1467.68
1467.1
1467.64
1465.98
1463.65
1459.94
1458.04
1454.58
1450.58
1434.56
1386.2
1309.85
1251.16
1244.93
1305.53
1426.43
1431.31
1433.22
1428.16
1434.62
1437.92
1416.35
1402.92
1405.08
1408.6
1449.56
1462.21
1465.74
1469.24
1472.59
1475.74
1478.4
1465.28
1419.84
1477.94
1477.92
1477.42
1476.89
1476.34
1475.56
1473.41
1471.63
1470.78
1468.51
1466.51
1464.07
1460.75
1436.5
1389.96
1342.46
1323.7
1313.83
1306.01
1298.48
1408.46
1435.84
1435.77
1432.38
1420.79
1422.42
1434.29
1440.24
1446.77
1413.89
1407.31
1411.82
1455.51
1467.15
1470.33
1473.36
1476.23
1478.5
1465.06
1426.58
1434.06
1484.65
1483.47
1482.65
1481.98
1481.01
1480.01
1478.8
1475.52
1474.14
1471.65
1469.05
1466.1
1439.38
1405.19
1384.1
1381.33
1377.37
1372.99
1368.1
1324.67
1264.86
1258.68
1237.24
1198.6
1205.05
1300.84
1428.93
1449.24
1456.3
1413.57
1412.35
1436.06
1470.4
1473.47
1476.07
1478.66
1480.71
1469.98
1437.48
1381.68
1380.9
1392.73
1478.96
1487.82
1486.94
1486.38
1485.65
1477.75
1461.11
1476.08
1474.69
1452.55
1435.34
1424.23
1405.57
1377.89
1367.45
1286.1
1161.35
1086.46
1085.57
1086.46
1088.09
1089.16
1089.69
1090.81
1303.72
1456.94
1464.85
1429.35
1416.66
1431.88
1474.74
1478.48
1480.71
1482.76
1484.53
1480.74
1420.31
1430.06
1441.49
1392.38
1393.67
1397.52
1441.53
1472.4
1480.54
1477.08
1404.64
1362.66
1343.05
1331.7
1254.64
1213.28
1228.48
1197.09
1105.72
1093.92
1090.75
1088.75
1088.42
1089.29
1090.72
1091.87
1092.66
1093.89
1244.08
1463.81
1474.97
1423.94
1421.84
1441.87
1480.71
1483.03
1486.32
1488.16
1489.61
1489.34
1423.23
1431.76
1470.7
1472.51
1443.24
1432.61
1434.66
1437.46
1435.72
1445.09
1424.81
1411.15
1419.62
1418.41
1391.6
1200.27
1170.92
1165.71
1201.63
1351.3
1203.78
1093.67
1093.69
1094.14
1094.92
1094.97
1095.28
1127.51
1420.36
1473.73
1445.92
1427.93
1427.79
1473.26
1489.32
1487.86
1476.16
1489.89
1495.66
1496.46
1427.17
1482.56
1471.25
1474.88
1493.08
1496.89
1493.78
1488.67
1484.3
1469.32
1473.1
1484.49
1497.68
1496.95
1494.3
1460.76
1433.92
1429.52
1454.57
1472.15
1471.4
1469.52
1332.66
1104.08
1094.59
1109.39
1367.64
1480.14
1480.51
1479.43
1436.06
1435.68
1458.89
1494.22
1495.12
1496.11
1474.7
1457.47
1494.13
1503.2
1462.08
1497.55
1498.11
1498.61
1498.98
1499
1498.75
1495.87
1485.37
1468.21
1482.86
1497.26
1497.43
1497.23
1496.64
1495.74
1477.03
1478.07
1487.46
1487.86
1487.91
1488.72
1462.96
1456.78
1461.54
1480.21
1482.95
1483.48
1446.01
1435.93
1436.57
1456.93
1497.69
1498.86
1499.89
1500.87
1485.07
1445.65
1474.68
1508.07
1506.29
1497.04
1496.42
1495.45
1497.06
1496.92
1496.39
1495.89
1495.5
1477.42
1476.14
1483.41
1495.62
1495.76
1494.76
1486.04
1490.29
1489.78
1489.44
1489.65
1490.61
1491.96
1425.45
1396.33
1395.88
1395.59
1468.36
1443.71
1438.78
1454.69
1496.9
1499.12
1499.96
1502.01
1503.48
1505.17
1490.96
1446.88
1459.36
1510.95
1511.12
1484.5
1481.18
1488.98
1494.33
1492.46
1489.35
1489.82
1491.05
1487.75
1473.34
1481.71
1494.09
1494.5
1488.11
1478.72
1480.38
1489.23
1489.06
1489.01
1489.6
1491.58
1462.77
1398.65
1399.23
1444.43
1478.09
1478.36
1490.53
1498.32
1499.91
1501.64
1497.05
1471.69
1492.38
1509.56
1503.34
1448.18
1443.48
1507.72
1504.31
1477.73
1478.59
1491.07
1493.19
1477.93
1447.47
1446.83
1475.62
1486.71
1486.57
1490.18
1493.3
1493.86
1494.04
1485.25
1467.45
1479.18
1477.82
1459.75
1451.17
1455.86
1404.49
1398.26
1413.63
1400.95
1400.01
1400.64
1426.5
1499.03
1502.16
1504.27
1506.67
1425.26
1394.52
1492.15
1510.98
1456
1437.5
1480.8
1503.16
1490.83
1490.52
1488.01
1485.85
1463.01
1430.35
1429.99
1441.51
1487.5
1490.25
1491.57
1492.94
1493.6
1493.8
1494.26
1479.3
1381.46
1362.98
1363.37
1364.03
1365.84
1429.31
1500.3
1502.24
1501.87
1419.44
1435.86
1496.86
1501.12
1502.88
1505.27
1508.09
1463.75
1360.61
1401.52
1517.72
1463.01
1439.44
1448.14
1509.17
1488.42
1487.44
1472.24
1461.75
1462.14
1444.51
1426.58
1427.16
1428.87
1430.96
1449.63
1483.92
1493.89
1450.99
1366.28
1363.39
1362.97
1362.48
1362.32
1384.36
1487.91
1498.31
1499.74
1500.38
1499.87
1499.04
1498.38
1495.44
1496.52
1498.41
1499.28
1503.6
1413.77
1353.07
1360.29
1498.17
1470.29
1439.1
1440.49
1510.86
1486.5
1484.77
1482.02
1457.57
1457.09
1464.98
1463.55
1448.44
1442.41
1463.98
1464.47
1458.94
1432.3
1371.21
1363.08
1362.64
1361.99
1399.37
1493.68
1499.11
1498.95
1499.4
1499.99
1499.85
1498.59
1492.91
1429.55
1358.54
1439.11
1500.74
1446.84
1335.19
1340.47
1345.91
1431.17
1499.73
1443.53
1438.04
1443.38
1513.34
1444.61
1485.31
1483.1
1480.75
1478.51
1476.92
1470.84
1463.16
1476.46
1481.17
1483.65
1485.99
1488.82
1490.51
1491.84
1493.9
1492.74
1483.73
1486.99
1492.66
1497.44
1499.79
1500.81
1501.37
1500.83
1351.39
1292.99
1293.88
1293.76
1293.72
1330.79
1436.77
1455.69
1473.98
1485.68
1482.04
1434.05
1437.52
1440.19
1515.07
1458.01
1453.83
1450.64
1448.29
1448.15
1455.87
1475.66
1475.39
1475.95
1477.4
1479.37
1481.54
1480.66
1481.96
1484.57
1491.86
1495.18
1497.19
1468
1445.67
1444.39
1476.14
1501.79
1505.56
1480.69
1296.94
1293.7
1293.89
1293.58
1292.75
1377.11
1467.14
1470.33
1467.25
1469.84
1490.55
1479.53
1437.77
1447
1525.96
1493.5
1487.43
1483.37
1480.01
1476.59
1473.95
1472.97
1471.55
1471.1
1472.18
1473.52
1458.41
1459.48
1482.55
1488.85
1492.21
1495.21
1498.08
1500.33
1469.7
1439.97
1440.82
1447.73
1508.48
1509.64
1350.7
1291.57
1291.54
1290.8
1289.89
1290.06
1291.3
1427.65
1503.46
1506.7
1511.48
1517.22
1504.55
1513.06
1531.26
1491.62
1485.96
1480.86
1476.38
1472.19
1469.26
1467.24
1464.99
1463.66
1464.07
1466.6
1451.16
1448.24
1454.56
1483.79
1489.99
1494.55
1498.45
1501.66
1504.58
1457.09
1442.97
1445.87
1507.47
1513.36
1454.61
1287.87
1286.83
1285.63
1284.98
1318.57
1392.2
1371.75
1366.16
1394.71
1501.2
1511.62
1518.92
1524.35
1528.95
1474.66
1476.46
1474.06
1469.06
1462.54
1458.43
1450.56
1422.46
1395.39
1387.39
1390.07
1405.8
1451.77
1468.33
1478.39
1486.14
1492.1
1497.29
1501.54
1500.88
1442.87
1444.07
1488.86
1512.91
1511.55
1501.59
1324.95
1380.42
1477.49
1491.06
1500.54
1462.48
1356.5
1355.15
1355.52
1459.52
1473.4
1490.09
1509.43
1513.66
1446.93
1393.34
1345.49
1298.02
1192.51
1173.39
1145.04
973.269
970.743
971.185
1065.77
1143.93
1002.66
1164.53
1450.99
1479.02
1485.97
1492.55
1499.01
1448.23
1441.68
1466.34
1512.15
1511.85
1486.73
1464.89
1493.92
1507.61
1506.63
1505.26
1502.6
1369.58
1348.8
1355.48
1452.22
1448.12
1241.59
1316.47
1470.93
1490.66
1319.95
1012.99
986.921
983.324
980.178
976.355
972.682
969.699
968.464
968.901
968.287
970.279
975.746
1030.72
1408.2
1476.03
1482.99
1479.25
1433.12
1436.72
1457.75
1508.76
1511.01
1501.43
1465.06
1477
1507.39
1506.19
1503.76
1484
1426.18
1426.9
1473.55
1465.04
1357.82
1131.45
1110.92
1128.66
1453.12
1472.23
1200.48
1032.85
985.125
982.217
978.607
975.072
972.527
970.598
970.35
971.289
969.743
971.472
1119.98
1377.38
1472.24
1479.36
1483.4
1455.91
1431.99
1455.5
1504.65
1509.3
1509.4
1470.52
1463.4
1490.62
1507.23
1505.13
1502.23
1461.13
1436.06
1475.12
1467.35
1351.23
1103.16
1098
1098.56
1117.35
1465.98
1468.45
1494.22
1419.47
1111.83
982.705
977.289
1003.26
1069.36
1173.66
1108.4
1009.17
1111.17
1310.84
1473.63
1480.04
1480.33
1481.89
1484.83
1484.31
1472.7
1498.91
1505.51
1507.15
1494.03
1464.8
1464.48
1505.39
1507.43
1505.3
1487.87
1447.81
1442.18
1472.69
1460.65
1164.44
1097.06
1094.81
1095.54
1111.5
1445.85
1442.55
1496.91
1496.09
1495.1
1365.46
1282.29
1437.86
1454.65
1342.36
1116.1
1017.14
1097.88
1286.78
1355.15
1394.73
1451.44
1479.8
1484.99
1488.77
1492.24
1499.44
1502.3
1504.32
1497.93
1464.38
1473.47
1508.42
1508
1506.41
1503.03
1488.33
1486.6
1490.42
1441.24
1126.43
1097.22
1095.82
1095.89
1096.95
1142.88
1118.68
1498.27
1498.27
1498.21
1498.6
1499.04
1498.33
1455.51
1329.14
1326.11
1341.15
1263.95
1218.86
1218.12
1217.92
1218.04
1239.82
1310.04
1375.22
1474.61
1494.09
1498.47
1502.13
1504.9
1464.01
1474.94
1509.18
1508.71
1507.51
1505.88
1503.64
1500.89
1497.72
1490.41
1249.89
1100.5
1099.91
1100.2
1101.36
1098.21
1100.53
1494.76
1499.43
1500.09
1500.48
1500.53
1498.58
1492.31
1499.53
1499.61
1499.84
1499.65
1455.96
1417.69
1383.35
1320.84
1295.73
1263.64
1260.16
1311.05
1456.46
1501.73
1504.63
1505.96
1468.52
1475.61
1508.11
1508.48
1508.13
1507.32
1506.2
1504.94
1503.69
1502.78
1472.54
1166.76
1106.67
1107.77
1108.03
1105.75
1161.62
1486.37
1492.78
1501.69
1501.77
1498.89
1500.29
1502.27
1501.75
1501.69
1501.83
1502.1
1502.57
1503.53
1505.32
1506.99
1500.09
1471.83
1406.04
1275.02
1273.24
1318.07
1496.7
1506.68
1503.71
1500.14
1508.35
1508.82
1508.66
1508.58
1508.53
1508.31
1508.61
1509.55
1511.24
1457.17
1268
1214.29
1184.49
1256.99
1445.86
1488.46
1493
1502.41
1503.24
1499.7
1499.7
1503.42
1502.74
1502.5
1502.51
1502.85
1503.52
1504.49
1505.67
1506.89
1507.71
1508.17
1410.59
1268.38
1269.02
1269.69
1350.18
1507.41
1508.34
1509.01
1509.22
1509.59
1510.22
1510.55
1509.84
1510.02
1511.35
1513.65
1516.55
1514.06
1488.95
1482.06
1468.85
1461.41
1454.29
1500.99
1502.5
1502.99
1503.26
1502.42
1500.78
1501.03
1500.7
1500.41
1500.64
1501.83
1503.07
1504.23
1505.41
1506.61
1507.15
1507.21
1503.65
1357.51
1267.13
1268.56
1269.42
1328.39
1418.44
1488.78
1505.72
1506.1
1510.53
1510.95
1369.42
1447.7
1508.73
1513.27
1516.91
1511.96
1414.63
1438.62
1395.73
1323.12
1377.4
1507.59
1505.02
1501.05
1497.2
1494.69
1492.83
1494.95
1496.59
1497.39
1499.19
1501.86
1503.53
1504.28
1505.15
1506.98
1508.26
1508.54
1508.43
1499.09
1409.01
1332.89
1334.45
1382.65
1384.21
1432.55
1508.24
1509.73
1498.52
1378.06
1213.54
1213.02
1402.95
1518.83
1521.69
1521.73
1307.78
1126.49
1107
1106.54
1107.59
1489.17
1497.73
1481.34
1356.82
1242.5
1300.18
1428.93
1473.29
1434.49
1457.06
1485.85
1489.12
1481.17
1495.11
1510.23
1510.9
1507.89
1505.3
1511.19
1511.08
1497.39
1461.8
1376.47
1428.49
1479.86
1512.37
1512.45
1511.94
1298.32
1208.69
1209.04
1324.54
1522.78
1528.18
1526.8
1267.85
1101.53
1102.84
1104.47
1106.69
1455.65
1403.95
1100.7
815.579
775.899
929.47
1373.9
1102.53
896.543
903.877
911.906
924.751
1083.81
1457.38
1516.1
1515.81
1432.51
1257.46
1258.24
1255.77
1254.37
1256.83
1261.9
1261.41
1395.51
1365.77
1378.91
1505.39
1244.12
1204.04
1207.3
1270.74
1518.61
1534.46
1534.63
1280.99
1100.13
1100.86
1101.37
1263.12
1477.54
1133.78
781.293
777.931
775.671
774.093
774.701
792.786
1280.41
1493.16
1495.93
1496.99
1498.72
1498.94
1498.09
1495.27
1497.1
1501.04
1502.68
1505.78
1443.52
1358.88
1339.94
1329.43
1255.47
1251.84
1248.48
1249.84
1196.47
1200.99
1205.15
1269.76
1523.39
1538.92
1541.38
1361.76
1098.38
1099.37
1099.58
1391.3
1502.97
1068.12
783.258
779.685
778.585
834.176
782.912
823.375
1263.72
1496.86
1497.78
1498.15
1498.36
1435.57
1295.18
1218.02
1329.27
1474.7
1507.71
1509.75
1512.43
1514.72
1516.02
1514.98
1511.76
1477.29
1289.87
1226.25
1199.26
1200.31
1203.82
1366.67
1531.09
1540.57
1544
1500.12
1130.44
1098.88
1297.75
1384.44
1520.17
1285
787.719
1085.38
1519.83
1462.9
1447.07
1483.65
1496.96
1500.37
1500.36
1485.93
1295.83
1100.13
1101.74
1104.02
1107.4
1110.72
1379.21
1509.63
1512.85
1513.66
1513.12
1511.01
1508.6
1506.6
1504.55
1436.31
1389.58
1307.34
1389.27
1517.31
1527.6
1516.13
1527.22
1538.97
1389.63
1100.76
1340.63
1342.49
1532
1262.21
852.712
1369.76
1512.4
1509.62
1507.38
1505.1
1503.42
1502.15
1449.14
1180.07
1095.75
1095.69
1097.69
1100.94
1106.32
1114.08
1126.88
1293.25
1493.15
1505.36
1509.08
1506.48
1503.56
1500.33
1495.74
1507.27
1516.81
1527.56
1533.6
1535.44
1525.8
1517.52
1519.28
1542.57
1514.91
1110.26
1338.79
1314.52
1523.67
1164.81
910.248
1397.95
1508.96
1508.23
1506.49
1462.08
1424.72
1468.97
1407.52
1107.59
1090.79
1090.99
1091.63
1129.26
1429.93
1505.89
1447.83
1340.54
1342.32
1359.93
1507.18
1505.76
1504.43
1409.01
1144.43
1099.66
1386.17
1537.44
1539.98
1541.37
1542.03
1532.04
1539.27
1547.39
1548.38
1385.47
1273.26
1406.52
1537.18
1182.63
940.017
1316.78
1511.44
1509.93
1474.63
1422.45
1420.67
1455.17
1453.74
1280.5
1083.72
1085.03
1221.7
1505.54
1506.46
1508.41
1510.34
1507.34
1377.3
1360.45
1440.76
1511.84
1494.66
1169.78
1098.91
1102.76
1105.62
1109.07
1215.44
1522.89
1550.08