/*--------------------------------*- C++ -*----------------------------------*\
  =========                 |
  \\      /  F ield         | OpenFOAM: The Open Source CFD Toolbox
   \\    /   O peration     | Website:  https://openfoam.org
    \\  /    A nd           | Version:  8
     \\/     M anipulation  |
\*---------------------------------------------------------------------------*/
FoamFile
{
    version     2.0;
    format      ascii;
    class       volScalarField;
    location    "0.1";
    object      alpha.water;
}
// * * * * * * * * * * * * * * * * * * * * * * * * * * * * * * * * * * * * * //

dimensions      [0 0 0 0 0 0 0];

internalField   nonuniform List<scalar> 
9150
(
1
1
1
1
1
1
1
1
1
1
1
1
1
1
1
1
1
1
1
1
1
1
1
1
1
1
1
1
1
1
1
1
1
1
1
1
1
1
1
1
1
1
1
1
1
1
1
1
1
1
1
1
1
1
1
1
1
1
1
1
1
1
1
1
1
1
1
1
1
1
1
1
1
1
1
1
1
1
1
1
1
1
1
1
1
1
1
1
1
1
1
1
1
1
1
1
1
1
1
1
1
1
1
1
1
1
1
1
1
1
1
1
1
1
1
1
1
1
1
1
1
1
1
1
1
1
1
1
1
1
1
1
1
1
1
1
1
1
1
1
1
1
1
1
1
1
1
1
1
1
2.15432e-251
4.75221e-250
6.14257e-249
4.08275e-248
1.09787e-247
1.40231e-247
8.78007e-248
2.18914e-248
2.66372e-249
1.41679e-250
2.57188e-245
5.34474e-244
6.74823e-243
4.50774e-242
1.22436e-241
1.58376e-241
1.00987e-241
2.58243e-242
3.23941e-243
1.77719e-244
1.574e-239
3.11863e-238
3.80485e-237
2.46759e-236
6.55996e-236
8.39158e-236
5.35498e-236
1.38531e-236
1.77214e-237
9.94897e-239
6.69276e-234
1.27978e-232
1.48819e-231
9.24092e-231
2.37719e-230
2.97214e-230
1.87334e-230
4.83244e-231
6.21111e-232
3.52067e-233
2.11217e-228
3.89753e-227
4.27429e-226
2.53146e-225
6.28201e-225
7.65467e-225
4.74555e-225
1.21424e-225
1.55941e-226
8.88735e-228
4.91293e-223
8.74112e-222
9.15132e-221
5.22473e-220
1.26078e-219
1.50469e-219
9.19527e-220
2.33362e-220
2.9918e-221
1.71348e-222
8.52569e-218
1.46106e-216
1.49143e-215
8.3406e-215
1.98014e-214
2.33322e-214
1.41294e-214
3.56937e-215
4.58034e-216
2.64285e-217
1.16712e-212
1.93917e-211
1.95121e-210
1.07841e-209
2.53344e-209
2.95926e-209
1.78158e-209
4.49243e-210
5.78465e-211
3.37056e-212
1.3389e-207
2.1662e-206
2.15232e-205
1.17614e-204
2.73547e-204
3.16969e-204
1.89878e-204
4.78393e-205
6.18606e-206
3.64132e-207
1.33646e-202
2.11071e-201
2.06271e-200
1.11071e-199
2.55209e-199
2.93041e-199
1.7459e-199
4.39309e-200
5.69913e-201
3.38303e-202
1.17415e-197
1.81064e-196
1.73164e-195
9.16322e-195
2.07717e-194
2.36214e-194
1.39909e-194
3.51273e-195
4.56349e-196
2.72423e-197
9.01096e-193
1.35555e-191
1.26767e-190
6.59113e-190
1.47461e-189
1.66159e-189
9.78579e-190
2.4506e-190
3.18425e-191
1.90823e-192
5.97291e-188
8.7644e-187
8.03094e-186
4.10949e-185
9.08593e-185
1.01562e-184
5.95404e-185
1.4887e-185
1.93608e-186
1.16532e-187
3.40383e-183
4.87486e-182
4.38723e-181
2.21206e-180
4.8373e-180
5.37046e-180
3.13999e-180
7.85864e-181
1.02557e-181
6.21638e-183
1.66963e-178
2.33573e-177
2.06621e-176
1.02595e-175
2.21828e-175
2.44839e-175
1.4311e-175
3.59769e-176
4.72696e-177
2.89476e-178
7.04611e-174
9.63676e-173
8.36639e-172
4.0825e-171
8.71627e-171
9.57089e-171
5.6079e-171
1.42172e-171
1.88675e-172
1.17036e-173
2.53639e-169
3.38975e-168
2.88362e-167
1.37869e-166
2.90045e-166
3.17063e-166
1.86877e-166
4.80104e-167
6.45359e-168
4.06266e-169
7.63519e-165
9.95659e-164
8.29317e-163
3.86869e-162
7.98974e-162
8.70014e-162
5.18405e-162
1.35916e-162
1.85683e-163
1.18878e-164
1.85868e-160
2.3585e-159
1.92093e-158
8.66908e-158
1.74243e-157
1.88925e-157
1.14782e-157
3.109e-158
4.33974e-159
2.83587e-160
3.421e-156
4.1947e-155
3.32171e-154
1.41942e-153
2.71225e-153
2.91867e-153
1.84328e-153
5.29652e-154
7.6332e-155
5.13036e-156
3.91764e-152
4.50762e-151
3.40421e-150
1.28957e-149
2.14938e-149
2.2626e-149
1.59636e-149
5.28e-150
8.07337e-151
5.72566e-152
5.45991e-149
6.34576e-149
7.90966e-149
1.58999e-148
2.50127e-148
2.6337e-148
1.79511e-148
8.99357e-149
6.71093e-149
5.73807e-149
4.43905e-147
5.11175e-146
3.89515e-145
1.64545e-144
3.14706e-144
3.36045e-144
1.96603e-144
5.20422e-145
7.44994e-146
4.56432e-147
7.07491e-143
8.0344e-142
6.02596e-141
2.50589e-140
4.73622e-140
5.03403e-140
2.9428e-140
7.82186e-141
1.12694e-141
6.7116e-143
1.01687e-138
1.13111e-137
8.32398e-137
3.3989e-136
6.33197e-136
6.68935e-136
3.9016e-136
1.04062e-136
1.51116e-137
8.85507e-139
1.29955e-134
1.41736e-133
1.02084e-132
4.08607e-132
7.49485e-132
7.86856e-132
4.57985e-132
1.22646e-132
1.79614e-133
1.03228e-134
1.46415e-130
1.56143e-129
1.10182e-128
4.32703e-128
7.82278e-128
8.1699e-128
4.75258e-128
1.27968e-128
1.89165e-129
1.06156e-130
1.44704e-126
1.50546e-125
1.04349e-124
4.02626e-124
7.18347e-124
7.47138e-124
4.35091e-124
1.18044e-124
1.76213e-125
9.60522e-127
1.25702e-122
1.27668e-121
8.69487e-121
3.29488e-120
5.80187e-120
6.01387e-120
3.50858e-120
9.6292e-121
1.44948e-121
7.63137e-123
9.63626e-119
9.56908e-118
6.39122e-117
2.37526e-116
4.12658e-116
4.26513e-116
2.49494e-116
6.93394e-117
1.05254e-117
5.32356e-119
6.52723e-115
6.33602e-114
4.14595e-113
1.51059e-112
2.59019e-112
2.67086e-112
1.56718e-112
4.41256e-113
6.7545e-114
3.26448e-115
3.90373e-111
3.70098e-110
2.37477e-109
8.49033e-109
1.4378e-108
1.47944e-108
8.70808e-109
2.48424e-109
3.83559e-110
1.76112e-111
2.06146e-107
1.91017e-106
1.20298e-105
4.22288e-105
7.06338e-105
7.25182e-105
4.28109e-105
1.23762e-105
1.92804e-106
8.35715e-108
9.6183e-104
8.72342e-103
5.39037e-102
1.85752e-101
3.06773e-101
3.1422e-101
1.86048e-101
5.45266e-102
8.57304e-103
3.48321e-104
3.96254e-100
3.51722e-99
2.13215e-98
7.21198e-98
1.17593e-97
1.20176e-97
7.13927e-98
2.12311e-98
3.36999e-99
1.2721e-100
1.43936e-96
1.24877e-95
7.43341e-95
2.4689e-94
3.97529e-94
4.05458e-94
2.41847e-94
7.30694e-95
1.17113e-95
4.06624e-97
4.60944e-93
3.90893e-92
2.28625e-91
7.45642e-91
1.1858e-90
1.20755e-90
7.23863e-91
2.22457e-91
3.60024e-92
1.13918e-93
1.30332e-89
1.08431e-88
6.26265e-88
2.01732e-87
3.1869e-87
3.24534e-87
1.95333e-87
6.07847e-88
9.88194e-89
2.85172e-90
3.38246e-86
2.77701e-85
1.57923e-84
5.0412e-84
7.94604e-84
8.08294e-84
4.89101e-84
1.53564e-84
2.51496e-85
7.32673e-87
7.76253e-83
6.25903e-82
3.50525e-81
1.10917e-80
1.74452e-80
1.772e-80
1.07853e-80
3.41323e-81
5.63079e-82
1.65712e-83
1.5654e-79
1.23909e-78
6.83931e-78
2.14614e-77
3.36832e-77
3.41666e-77
2.09149e-77
6.672e-78
1.10893e-78
3.29746e-80
2.77355e-76
2.15547e-75
1.17313e-74
3.6517e-74
5.71905e-74
5.79322e-74
3.5657e-74
1.14652e-74
1.92027e-75
5.77259e-77
4.31946e-73
3.29603e-72
1.76937e-71
5.4653e-71
8.54147e-71
8.63996e-71
5.34374e-71
1.73129e-71
2.92272e-72
8.94701e-74
5.91462e-70
4.4324e-69
2.34747e-68
7.19532e-68
1.12193e-67
1.13323e-67
7.04152e-68
2.29879e-68
3.91257e-69
1.22329e-70
7.12117e-67
5.24387e-66
2.73988e-65
8.3304e-65
1.29537e-64
1.30665e-64
8.1597e-65
2.68526e-65
4.60815e-66
1.47456e-67
7.53701e-64
5.45463e-63
2.81131e-62
8.47659e-62
1.31428e-61
1.32417e-61
8.31225e-62
2.7578e-62
4.77128e-63
1.566e-64
7.00821e-61
4.98334e-60
2.534e-59
7.57773e-59
1.17151e-58
1.179e-58
7.43866e-59
2.48818e-59
4.34034e-60
1.46308e-61
5.72254e-58
3.9982e-57
2.00632e-56
5.95033e-56
9.17048e-56
9.21836e-56
5.84511e-56
1.97167e-56
3.46871e-57
1.20159e-58
4.10343e-55
2.81813e-54
1.39544e-53
4.10321e-53
6.30234e-53
6.32855e-53
4.03305e-53
1.37207e-53
2.43447e-54
8.67669e-56
2.58359e-52
1.74458e-51
8.52244e-51
2.48391e-50
3.80173e-50
3.81412e-50
2.44294e-50
8.38081e-51
1.49945e-51
5.50526e-53
1.42741e-49
9.47766e-49
4.56778e-48
1.31939e-47
2.01187e-47
2.01636e-47
1.2979e-47
4.49011e-48
8.10105e-49
3.06448e-50
6.9148e-47
4.51478e-46
2.14681e-45
6.14397e-45
9.3327e-45
9.34198e-45
6.04323e-45
2.10929e-45
3.83795e-46
1.49577e-47
2.93469e-44
1.88415e-43
8.83884e-43
2.50583e-42
3.79111e-42
3.79061e-42
2.46493e-42
8.68313e-43
1.5932e-43
6.39913e-45
1.09027e-41
6.88262e-41
3.18523e-40
8.94314e-40
1.34742e-39
1.34586e-39
8.79781e-40
3.12838e-40
5.78794e-41
2.39602e-42
3.54265e-39
2.19912e-38
1.00389e-37
2.79035e-37
4.18511e-37
4.17574e-37
2.74402e-37
9.8531e-38
1.83832e-38
7.84368e-40
1.00577e-36
6.13972e-36
2.76388e-35
7.60102e-35
1.13431e-34
1.13056e-34
7.47059e-35
2.71032e-35
5.09889e-36
2.24378e-37
2.49143e-34
1.49536e-33
6.63694e-33
1.80492e-32
2.67887e-32
2.66748e-32
1.77297e-32
6.50152e-33
1.23305e-33
5.60212e-35
5.37614e-32
3.1721e-31
1.38785e-30
3.73017e-30
5.50408e-30
5.47556e-30
3.66129e-30
1.35774e-30
2.59563e-31
1.21884e-32
1.00882e-29
5.8517e-29
2.52298e-28
6.69719e-28
9.81902e-28
9.75826e-28
6.56627e-28
2.46453e-28
4.74862e-29
2.30702e-30
1.643e-27
9.36779e-27
3.97867e-26
1.04219e-25
1.51742e-25
1.50656e-25
1.02072e-25
3.88104e-26
7.53485e-27
3.79172e-28
2.31711e-25
1.2983e-24
5.42894e-24
1.40191e-23
2.02601e-23
2.00966e-23
1.37167e-23
5.28897e-24
1.03445e-24
5.39963e-26
2.82203e-23
1.55362e-22
6.39167e-22
1.62515e-21
2.32944e-21
2.30844e-21
1.5883e-21
6.21883e-22
1.22509e-22
6.64897e-24
2.95871e-21
1.59972e-20
6.46967e-20
1.61849e-19
2.30056e-19
2.27758e-19
1.57983e-19
6.28624e-20
1.24683e-20
7.063e-22
2.65985e-19
1.41335e-18
5.6399e-18
1.39187e-17
1.97381e-17
1.95112e-17
1.35668e-17
5.4719e-18
1.08684e-18
6.44809e-20
2.04819e-17
1.08156e-16
4.39078e-16
1.00562e-15
1.35075e-15
1.33719e-15
9.76761e-16
4.24376e-16
8.23783e-17
5.03783e-18
1.37049e-15
6.69708e-15
2.27637e-14
4.33989e-14
4.83902e-14
4.84664e-14
4.21247e-14
2.19448e-14
5.08442e-15
3.33417e-16
6.62283e-14
2.21601e-13
4.02186e-13
9.32449e-13
1.34648e-12
1.32599e-12
9.2635e-13
3.92324e-13
1.56228e-13
1.60311e-14
1.43623e-12
4.44845e-12
1.31637e-11
3.42475e-11
4.92098e-11
4.83608e-11
3.37858e-11
1.19252e-11
2.95752e-12
4.57334e-13
3.23529e-11
1.46023e-10
4.67633e-10
1.12651e-09
1.5546e-09
1.52614e-09
1.10466e-09
4.18717e-10
9.9556e-11
1.37616e-11
7.45341e-10
4.89484e-09
1.54579e-08
2.94989e-08
3.82568e-08
3.7546e-08
2.87346e-08
1.28012e-08
3.01216e-09
3.32502e-10
1.80985e-08
1.45118e-07
4.17562e-07
5.94733e-07
7.00208e-07
6.8924e-07
5.75837e-07
3.61585e-07
8.41589e-08
7.17482e-09
4.10939e-07
3.84872e-06
8.65345e-06
8.59368e-06
8.96401e-06
8.9017e-06
8.32985e-06
7.86763e-06
2.56717e-06
1.95083e-07
8.97272e-06
8.46604e-05
0.000118035
8.16484e-05
8.34069e-05
8.35414e-05
7.99885e-05
0.000108125
6.98961e-05
6.75669e-06
4.42433e-05
0.000900121
0.00115647
0.000620876
0.000658826
0.000661228
0.00061621
0.00107956
0.00089246
5.057e-05
9.05378e-05
0.00233174
0.00808143
0.00379249
0.00400017
0.00394166
0.00373925
0.00706659
0.00243192
0.000101058
0.000100984
0.00249984
0.0205366
0.020439
0.0169309
0.0166045
0.020663
0.0210372
0.0025947
0.000117205
0.000104444
0.000716048
0.0303898
0.373258
0.323526
0.333834
0.375981
0.0390511
0.0007889
0.000128271
0.000115248
0.000416216
0.146414
0.856646
0.910454
0.91671
0.859421
0.171815
0.000776616
0.000154843
0.000118749
0.00121526
0.353001
0.982836
0.998711
0.998711
0.983488
0.382982
0.00194982
0.000159067
8.0537e-05
0.000820378
0.444269
0.998656
0.998711
0.998711
0.998581
0.470667
0.00150247
0.000106836
3.20867e-05
0.000154047
0.41782
0.995909
0.998704
0.998703
0.995854
0.43573
0.000312296
6.16254e-05
1.78817e-05
1.02071e-05
0.201741
0.93397
0.99865
0.99864
0.933584
0.206265
1.28608e-05
4.68859e-05
3.46017e-05
9.07045e-06
0.0534573
0.787719
0.995637
0.995546
0.786472
0.052905
1.10415e-05
5.56251e-05
3.44152e-05
8.27829e-06
0.00754986
0.629997
0.989233
0.98923
0.624491
0.00641066
9.33527e-06
5.5686e-05
3.4618e-05
7.9885e-06
7.49419e-06
0.522472
0.98481
0.983778
0.510804
7.47497e-06
8.68286e-06
5.56265e-05
4.93175e-06
6.76987e-06
7.06028e-06
0.478163
0.980896
0.979427
0.466966
7.31747e-06
7.87083e-06
1.41041e-05
3.79509e-06
9.98816e-06
7.49419e-06
0.468885
0.979609
0.978723
0.458926
6.95961e-06
6.85387e-06
8.24218e-06
2.1639e-05
1.18427e-05
7.99401e-06
0.47968
0.982822
0.98479
0.470893
6.63096e-06
6.50279e-06
6.39976e-06
3.14343e-05
7.28927e-06
6.80101e-06
0.53717
0.988658
0.989389
0.543876
6.3417e-06
6.21366e-06
5.93724e-06
3.14055e-05
4.96804e-06
5.09282e-06
0.622355
0.992696
0.992477
0.629729
5.58088e-06
4.83455e-06
3.02035e-05
3.00584e-05
2.87165e-06
3.74086e-06
0.710247
0.995051
0.994816
0.711875
4.04768e-06
2.95594e-06
3.3835e-05
2.55782e-06
2.18733e-06
2.64809e-06
0.78821
0.996703
0.99673
0.786776
1.9638e-06
9.82567e-07
3.39024e-05
3.9126e-06
1.95115e-06
0.0630195
0.852139
0.99819
0.998082
0.852937
0.0628891
5.13956e-07
1.41734e-05
1.81313e-06
1.17038e-06
0.141541
0.914359
0.998958
0.998903
0.913465
0.140994
6.95817e-08
1.81107e-08
1.7623e-07
2.91771e-07
0.244963
0.957772
0.999353
0.999523
0.958162
0.250103
1.27776e-08
1.01294e-08
8.85487e-09
1.00121e-07
0.398928
0.985447
0.999755
0.999738
0.989443
0.423257
1.28781e-07
9.45906e-09
4.69048e-09
4.1898e-06
0.649874
0.999809
0.999877
0.999898
0.999809
0.651
4.94759e-06
6.58329e-09
2.32513e-09
0.054413
0.858245
0.999922
0.999991
0.999992
0.999933
0.867354
0.0642863
3.52638e-09
3.41958e-10
0.527029
0.996479
0.999987
1
1
0.999988
0.997259
0.535938
-9.94937e-11
0.274807
0.955261
1
1
1
1
1
1
0.956463
0.278931
3.4957e-252
4.26444e-254
2.83256e-256
1.05901e-258
2.33964e-261
3.02565e-264
2.32665e-267
1.05136e-270
2.81667e-274
4.69638e-278
5.24385e-282
4.17363e-286
2.38329e-290
1.0091e-294
3.1204e-299
7.05483e-304
1.16583e-308
1.8003e-313
1.14688e-318
0
0
0
0
0
0
0
0
0
0
0
0
0
0
0
0
0
0
0
0
0
4.51491e-246
5.69139e-248
3.89856e-250
1.49966e-252
3.42052e-255
4.59894e-258
3.72295e-261
1.80625e-264
5.2726e-268
9.5993e-272
1.15152e-275
9.59418e-280
5.75668e-284
2.4627e-288
7.62538e-293
1.74846e-297
3.13506e-302
5.22987e-307
7.91005e-312
1.05513e-316
0
0
0
0
0
0
0
0
0
0
0
0
0
0
0
0
0
0
0
0
2.58853e-240
3.36387e-242
2.38089e-244
9.47244e-247
2.2404e-249
3.13763e-252
2.66189e-255
1.36314e-258
4.21819e-262
8.12503e-266
1.02257e-269
8.85982e-274
5.45114e-278
2.38637e-282
7.52929e-287
1.76603e-291
3.32953e-296
5.46336e-301
8.30757e-306
1.155e-310
1.47144e-315
0
0
0
0
0
0
0
0
0
0
0
0
0
0
0
0
0
0
0
9.29278e-235
1.23598e-236
8.98652e-239
3.68549e-241
9.02457e-244
1.3151e-246
1.1673e-249
6.28372e-253
2.04654e-256
4.14045e-260
5.44764e-264
4.92359e-268
3.15777e-272
1.43824e-276
4.73399e-281
1.16252e-285
2.33468e-290
3.97306e-295
6.28967e-300
9.27091e-305
1.26781e-309
1.61698e-314
0
0
0
0
0
0
0
0
0
0
0
0
0
0
0
0
0
0
2.37286e-229
3.21619e-231
2.39845e-233
1.01388e-235
2.56967e-238
3.89036e-241
3.59692e-244
2.02003e-247
6.86989e-251
1.45167e-254
1.99616e-258
1.88942e-262
1.27015e-266
6.09646e-271
2.11935e-275
5.58325e-280
1.2051e-284
2.19566e-289
3.79408e-294
6.12039e-299
9.1556e-304
1.27001e-308
1.63316e-313
1.14687e-318
0
0
0
0
0
0
0
0
0
0
0
0
0
0
0
0
4.62974e-224
6.4023e-226
4.90112e-228
2.13606e-230
5.59579e-233
8.76751e-236
8.39215e-239
4.88494e-242
1.72412e-245
3.79091e-249
5.44053e-253
5.40218e-257
3.83924e-261
1.96573e-265
7.32018e-270
2.0902e-274
4.85249e-279
9.78691e-284
1.85087e-288
3.24047e-293
5.22475e-298
7.75492e-303
1.06021e-307
1.3476e-312
1.60562e-317
0
0
0
0
0
0
0
0
0
0
0
0
0
0
0
7.25021e-219
1.02529e-220
8.0696e-223
3.62758e-225
9.81257e-228
1.58672e-230
1.56684e-233
9.41173e-237
3.43795e-240
7.85561e-244
1.18013e-247
1.23415e-251
9.3569e-256
5.15523e-260
2.07546e-264
6.40101e-269
1.59534e-273
3.52709e-278
7.20786e-283
1.3519e-287
2.32469e-292
3.67058e-297
5.36734e-302
7.35293e-307
9.50711e-312
1.15834e-316
0
0
0
0
0
0
0
0
0
0
0
0
0
0
9.40971e-214
1.36305e-215
1.10374e-217
5.11789e-220
1.42985e-222
2.38652e-225
2.43266e-228
1.51041e-231
5.71889e-235
1.363e-238
2.15362e-242
2.3992e-246
1.95295e-250
1.16264e-254
5.06341e-259
1.67785e-263
4.48208e-268
1.06536e-272
2.32229e-277
4.63108e-282
8.47277e-287
1.42996e-291
2.26392e-296
3.39494e-301
4.85579e-306
6.63786e-311
8.64742e-316
0
0
0
0
0
0
0
0
0
0
0
0
0
1.03437e-208
1.53345e-210
1.2763e-212
6.10153e-215
1.76131e-217
3.04132e-220
3.21284e-223
2.07325e-226
8.19304e-230
2.04999e-233
3.42579e-237
4.06948e-241
3.55862e-245
2.28618e-249
1.07463e-253
3.81989e-258
1.09296e-262
2.77506e-267
6.45072e-272
1.3753e-276
2.70726e-281
4.98231e-286
8.70193e-291
1.45369e-295
2.32643e-300
3.55629e-305
5.1552e-310
7.02802e-315
0
0
0
0
0
0
0
0
0
0
0
0
9.75386e-204
1.47539e-205
1.259e-207
6.19616e-210
1.84847e-212
3.3118e-215
3.64223e-218
2.45677e-221
1.01862e-224
2.68511e-228
4.74934e-232
6.00572e-236
5.62746e-240
3.89234e-244
1.97226e-248
7.56238e-253
2.33086e-257
6.39613e-262
1.60859e-266
3.7297e-271
8.04487e-276
1.64099e-280
3.20235e-285
5.99475e-290
1.07328e-294
1.82707e-299
2.93931e-304
4.44471e-309
6.28874e-314
1.14686e-318
0
0
0
0
0
0
0
0
0
0
7.94523e-199
1.22203e-200
1.06599e-202
5.39346e-205
1.66471e-207
3.09922e-210
3.56026e-213
2.51945e-216
1.09864e-219
3.05355e-223
5.71279e-227
7.68207e-231
7.71725e-235
5.767e-239
3.17218e-243
1.32377e-247
4.44335e-252
1.34389e-256
3.73244e-261
9.59683e-266
2.30434e-270
5.2525e-275
1.14616e-279
2.39473e-284
4.7732e-289
9.03569e-294
1.61949e-298
2.73995e-303
4.36043e-308
6.48391e-313
8.02808e-318
0
0
0
0
0
0
0
0
0
5.61874e-194
8.77207e-196
7.814e-198
4.06553e-200
1.29903e-202
2.5184e-205
3.0288e-208
2.25174e-211
1.03391e-214
3.03241e-218
6.00764e-222
8.61311e-226
9.32243e-230
7.59511e-234
4.59425e-238
2.10221e-242
7.75075e-247
2.62447e-251
8.17061e-256
2.3565e-260
6.33544e-265
1.61302e-269
3.92023e-274
9.10642e-279
2.02059e-283
4.27783e-288
8.6213e-293
1.64839e-297
2.97039e-302
4.99403e-307
7.7346e-312
1.08952e-316
0
0
0
0
0
0
0
0
3.46707e-189
5.50175e-191
5.01118e-193
2.68526e-195
8.89603e-198
1.79827e-200
2.26591e-203
1.77125e-206
8.57313e-210
2.65843e-213
5.59354e-217
8.58572e-221
1.00758e-224
9.03027e-229
6.07545e-233
3.07215e-237
1.25752e-241
4.77402e-246
1.66551e-250
5.36045e-255
1.60032e-259
4.51962e-264
1.21868e-268
3.15004e-273
7.8205e-278
1.86451e-282
4.25547e-287
9.23965e-292
1.88985e-296
3.59824e-301
6.29369e-306
9.97668e-311
1.41294e-315
0
0
0
0
0
0
0
1.87535e-184
3.03359e-186
2.83228e-188
1.56591e-190
5.38157e-193
1.13419e-195
1.49661e-198
1.23015e-201
6.28285e-205
2.06433e-208
4.62636e-212
7.62466e-216
9.72897e-220
9.62e-224
7.22166e-228
4.0948e-232
1.86879e-236
7.89412e-241
3.05379e-245
1.08627e-249
3.58706e-254
1.12466e-258
3.38106e-263
9.79965e-268
2.74284e-272
7.40046e-277
1.91567e-281
4.71621e-286
1.09303e-290
2.3581e-295
4.68002e-300
8.43908e-305
1.36405e-309
1.94393e-314
0
0
0
0
0
0
8.8936e-180
1.47166e-181
1.41039e-183
8.05144e-186
2.86772e-188
6.29135e-191
8.68529e-194
7.50622e-197
4.05027e-200
1.41296e-203
3.37848e-207
5.97973e-211
8.2858e-215
9.02171e-219
7.54065e-223
4.78595e-227
2.44144e-231
1.14658e-235
4.91356e-240
1.93387e-244
7.11267e-249
2.49742e-253
8.45436e-258
2.77196e-262
8.79085e-267
2.68719e-271
7.86022e-276
2.18269e-280
5.70667e-285
1.39271e-289
3.14191e-294
6.47418e-299
1.19957e-303
1.95721e-308
2.73741e-313
3.44059e-318
0
0
0
0
3.67879e-175
6.24528e-177
6.14586e-179
3.62492e-181
1.33648e-183
3.05078e-186
4.40694e-189
4.00899e-192
2.29002e-195
8.49989e-199
2.17019e-202
4.11985e-206
6.18186e-210
7.39242e-214
6.87283e-218
4.88714e-222
2.79664e-226
1.46795e-230
7.01419e-235
3.07845e-239
1.27205e-243
5.04391e-248
1.93578e-252
7.19698e-257
2.5875e-261
8.93983e-266
2.94962e-270
9.23489e-275
2.7266e-279
7.53979e-284
1.9357e-288
4.55713e-293
9.66665e-298
1.80445e-302
2.87908e-307
3.79156e-312
4.01402e-317
0
0
0
1.31438e-170
2.29813e-172
2.32527e-174
1.42136e-176
5.43076e-179
1.29279e-181
1.95925e-184
1.88102e-187
1.14043e-190
4.51142e-194
1.22982e-197
2.49806e-201
4.04337e-205
5.29465e-209
5.47654e-213
4.38203e-217
2.82036e-221
1.66773e-225
8.97785e-230
4.43884e-234
2.07833e-238
9.3597e-243
4.07849e-247
1.72037e-251
7.00145e-256
2.73738e-260
1.02327e-264
3.63811e-269
1.22264e-273
3.85369e-278
1.1276e-282
3.02148e-287
7.28426e-292
1.54539e-296
2.80646e-301
4.21224e-306
4.99878e-311
4.39248e-316
0
0
4.00036e-166
7.2586e-168
7.58078e-170
4.8413e-172
1.92535e-174
4.8068e-177
7.67965e-180
7.80506e-183
5.03226e-186
2.12236e-189
6.16747e-193
1.3353e-196
2.31818e-200
3.30664e-204
3.79666e-208
3.42514e-212
2.48311e-216
1.66632e-220
1.02122e-224
5.74548e-229
3.06834e-233
1.57568e-237
7.81448e-242
3.74412e-246
1.73007e-250
7.69201e-255
3.2793e-259
1.33345e-263
5.13177e-268
1.84995e-272
6.16729e-277
1.87326e-281
5.09898e-286
1.2207e-290
2.51035e-295
4.29271e-300
5.84023e-305
5.92182e-310
3.84543e-315
0
1.01327e-161
1.93524e-163
2.1025e-165
1.42419e-167
5.93787e-170
1.56819e-172
2.6575e-175
2.8661e-178
1.96727e-181
8.84182e-185
2.73392e-188
6.28519e-192
1.16312e-195
1.79491e-199
2.27658e-203
2.31101e-207
1.89106e-211
1.44739e-215
1.01654e-219
6.5578e-224
4.00885e-228
2.3528e-232
1.33186e-236
7.27719e-241
3.83699e-245
1.94887e-249
9.50139e-254
4.41943e-258
1.94376e-262
7.9902e-267
3.02795e-271
1.04228e-275
3.20906e-280
8.69203e-285
2.03038e-289
3.97491e-294
6.21555e-299
7.20155e-304
5.40218e-309
1.72833e-314
2.03816e-157
4.20899e-159
4.81982e-161
3.55531e-163
1.57015e-165
4.44197e-168
8.05185e-171
9.24082e-174
6.769e-177
3.24703e-180
1.06909e-183
2.60764e-187
5.12393e-191
8.502e-195
1.18461e-198
1.34855e-202
1.25063e-206
1.0914e-210
8.76302e-215
6.46447e-219
4.51626e-223
3.03062e-227
1.96214e-231
1.2275e-235
7.41482e-240
4.31343e-244
2.40517e-248
1.27673e-252
6.39395e-257
2.98818e-261
1.28726e-265
5.0441e-270
1.77189e-274
5.48718e-279
1.4685e-283
3.30286e-288
5.93311e-293
7.79412e-298
6.58494e-303
2.50654e-308
2.91633e-153
6.91129e-155
8.58261e-157
7.25728e-159
3.45335e-161
1.06895e-163
2.1033e-166
2.58307e-169
2.03339e-172
1.04737e-175
3.69116e-179
9.5855e-183
1.99913e-186
3.54932e-190
5.39885e-194
6.86067e-198
7.23313e-202
7.15214e-206
6.51963e-210
5.47336e-214
4.3666e-218
3.3494e-222
2.48393e-226
1.78322e-230
1.23706e-234
8.25758e-239
5.27163e-243
3.1948e-247
1.82261e-251
9.69797e-256
4.7641e-260
2.13567e-264
8.61434e-269
3.07103e-273
9.44945e-278
2.42953e-282
4.97962e-287
7.47179e-292
7.10085e-297
3.07494e-302
2.0743e-149
6.84665e-151
1.01402e-152
1.12011e-154
5.96135e-157
2.10738e-159
4.63409e-162
6.15664e-165
5.28345e-168
2.95603e-171
1.12509e-174
3.13131e-178
6.94704e-182
1.31447e-185
2.1654e-189
3.04927e-193
3.62991e-197
4.04394e-201
4.1764e-205
3.99887e-209
3.6474e-213
3.20614e-217
2.72963e-221
2.25189e-225
1.79498e-229
1.3751e-233
1.00554e-237
6.96565e-242
4.53618e-246
2.75537e-250
1.54744e-254
7.94779e-259
3.68132e-263
1.50923e-267
5.32917e-272
1.56173e-276
3.63977e-281
6.27809e-286
6.84641e-291
3.37184e-296
1.43637e-148
5.74866e-149
3.80946e-149
1.04335e-150
7.0263e-153
3.15695e-155
8.2816e-158
1.21429e-160
1.16691e-163
7.22346e-167
3.00458e-170
9.03689e-174
2.14203e-177
4.30969e-181
7.624e-185
1.17787e-188
1.56587e-192
1.95826e-196
2.29574e-200
2.51552e-204
2.63472e-208
2.66414e-212
2.60881e-216
2.47238e-220
2.26007e-224
1.98239e-228
1.65774e-232
1.31237e-236
9.766e-241
6.78129e-245
4.35678e-249
2.56192e-253
1.35904e-257
6.37771e-262
2.57786e-266
8.65527e-271
2.30371e-275
4.54396e-280
5.70057e-285
3.19871e-290
1.35649e-144
6.0799e-147
1.31208e-148
4.87977e-149
3.2174e-149
2.88035e-151
1.09815e-153
1.85362e-156
2.11089e-159
1.49347e-162
6.90505e-166
2.26949e-169
5.7923e-173
1.2418e-176
2.34575e-180
3.93612e-184
5.78569e-188
8.10575e-192
1.07998e-195
1.35702e-199
1.63502e-203
1.90191e-207
2.13945e-211
2.32392e-215
2.42979e-219
2.43479e-223
2.32606e-227
2.10569e-231
1.79375e-235
1.42649e-239
1.04939e-243
7.06097e-248
4.28006e-252
2.29059e-256
1.05706e-260
4.07622e-265
1.2443e-269
2.79114e-274
3.97759e-279
2.47672e-284
1.58133e-140
9.36451e-143
1.13328e-144
8.71922e-147
9.78308e-149
4.7052e-149
8.26676e-150
1.82741e-152
2.88654e-155
2.50426e-158
1.3256e-161
4.84416e-165
1.34939e-168
3.11096e-172
6.2791e-176
1.13518e-179
1.82754e-183
2.84971e-187
4.29197e-191
6.15958e-195
8.50408e-199
1.13409e-202
1.4612e-206
1.81564e-210
2.16943e-214
2.48375e-218
2.71299e-222
2.8119e-226
2.74582e-230
2.50375e-234
2.10966e-238
1.62261e-242
1.12202e-246
6.8446e-251
3.60161e-255
1.5857e-259
5.53867e-264
1.41483e-268
2.29376e-273
1.60217e-278
1.56072e-136
1.29318e-138
1.61152e-140
1.27033e-142
6.51861e-145
2.27766e-147
4.33604e-149
4.0357e-149
2.38204e-151
3.12508e-154
2.01884e-157
8.45923e-161
2.62981e-164
6.63818e-168
1.44701e-171
2.81565e-175
4.92741e-179
8.43129e-183
1.41784e-186
2.30161e-190
3.61322e-194
5.49072e-198
8.07116e-202
1.14518e-205
1.56341e-209
2.04597e-213
2.55522e-217
3.02876e-221
3.38299e-225
3.52834e-229
3.39782e-233
2.98204e-237
2.3512e-241
1.63804e-245
9.84219e-250
4.92854e-254
1.96306e-258
5.71368e-263
1.05929e-267
8.53983e-273
1.26507e-132
1.57813e-134
2.02329e-136
1.64971e-138
8.80816e-141
3.10314e-143
7.23646e-146
1.72811e-148
3.609e-149
2.27653e-150
2.17975e-153
1.12519e-156
4.07723e-160
1.16224e-163
2.80141e-167
5.94442e-171
1.13086e-174
2.09673e-178
3.8785e-182
7.02468e-186
1.24027e-189
2.13015e-193
3.55182e-197
5.7329e-201
8.92262e-205
1.33274e-208
1.89999e-212
2.56919e-216
3.27152e-220
3.88918e-224
4.27012e-228
4.27465e-232
3.84713e-236
3.0614e-240
2.09947e-244
1.19637e-248
5.41686e-253
1.79101e-257
3.77364e-262
3.51578e-267
7.88839e-129
1.70122e-130
2.24298e-132
1.89114e-134
1.05107e-136
3.88383e-139
9.56843e-142
1.55901e-144
1.73294e-147
3.21566e-149
1.17294e-149
9.57973e-153
4.57856e-156
1.57703e-159
4.38728e-163
1.04619e-166
2.19916e-170
4.4328e-174
8.9457e-178
1.78565e-181
3.50527e-185
6.74117e-189
1.26559e-192
2.31035e-196
4.08127e-200
6.93607e-204
1.12649e-207
1.73573e-211
2.51771e-215
3.40848e-219
4.26402e-223
4.87124e-227
5.0068e-231
4.53977e-235
3.54195e-239
2.2977e-243
1.1807e-247
4.44562e-252
1.0571e-256
1.11012e-261
7.33169e-125
1.6178e-126
2.19384e-128
1.91398e-130
1.10824e-132
4.29867e-135
1.12067e-137
1.94821e-140
2.22434e-143
1.64909e-146
4.29293e-149
2.31963e-149
2.94071e-152
1.50079e-155
5.28852e-159
1.49428e-162
3.58708e-166
8.01718e-170
1.7745e-173
3.8934e-177
8.4559e-181
1.81171e-184
3.81277e-188
7.8419e-192
1.56702e-195
3.02163e-199
5.58005e-203
9.78932e-207
1.6176e-210
2.49469e-214
3.5557e-218
4.63095e-222
5.42527e-226
5.59525e-230
4.96167e-234
3.66321e-238
2.14095e-242
9.23203e-247
2.50238e-251
2.9766e-256
6.00048e-121
1.35523e-122
1.89151e-124
1.70915e-126
1.03206e-128
4.20519e-131
1.16024e-133
2.15105e-136
2.64062e-139
2.11415e-142
1.08591e-145
7.48616e-149
2.18466e-149
7.97005e-152
4.5448e-155
1.68521e-158
4.88305e-162
1.25155e-165
3.09868e-169
7.55769e-173
1.82734e-176
4.37813e-180
1.03527e-183
2.40202e-187
5.43099e-191
1.18763e-194
2.49161e-198
4.97266e-202
9.35711e-206
1.6445e-209
2.67149e-213
3.96178e-217
5.27786e-221
6.19224e-225
6.24654e-229
5.2471e-233
3.49484e-237
1.72041e-241
5.36619e-246
7.35538e-251
4.32329e-117
9.99945e-119
1.43751e-120
1.34652e-122
8.48619e-125
3.63429e-127
1.06151e-129
2.09906e-132
2.77092e-135
2.40696e-138
1.3524e-141
4.74186e-145
1.31181e-148
1.80856e-149
2.29884e-151
1.43196e-154
5.55217e-158
1.73136e-161
4.99443e-165
1.39666e-168
3.84938e-172
1.04966e-175
2.82472e-179
7.46025e-183
1.92037e-186
4.78219e-190
1.14303e-193
2.60036e-197
5.58122e-201
1.11958e-204
2.07592e-208
3.50849e-212
5.31864e-216
7.10606e-220
8.15693e-224
7.79612e-228
5.91229e-232
3.29546e-236
1.17126e-240
1.84168e-245
2.74524e-113
6.50667e-115
9.64209e-117
9.36875e-119
6.16453e-121
2.77472e-123
8.57802e-126
1.80919e-128
2.56891e-131
2.4218e-134
1.48866e-137
5.72333e-141
1.14794e-144
4.03058e-149
1.71461e-149
7.50767e-151
5.02324e-154
2.12457e-157
7.63346e-161
2.57429e-164
8.41085e-168
2.68869e-171
8.41463e-175
2.56908e-178
7.61128e-182
2.1749e-185
5.95404e-189
1.54989e-192
3.80402e-196
8.7197e-200
1.84557e-203
3.5573e-207
6.14882e-211
9.36214e-215
1.22416e-218
1.33269e-222
1.15149e-226
7.27213e-231
2.91881e-235
5.14257e-240
1.53798e-109
3.73797e-111
5.71346e-113
5.76075e-115
3.95721e-117
1.87128e-119
6.11985e-122
1.37622e-124
2.10203e-127
2.15124e-130
1.44664e-133
6.09077e-137
1.28914e-140
2.40141e-147
3.3965e-149
1.9551e-149
2.76107e-150
2.07874e-153
1.03759e-156
4.51415e-160
1.82905e-163
7.06576e-167
2.62453e-170
9.39027e-174
3.23117e-177
1.06567e-180
3.35279e-184
1.0002e-187
2.80776e-191
7.34665e-195
1.77171e-198
3.89008e-202
7.66588e-206
1.32942e-209
1.98243e-213
2.45662e-217
2.41849e-221
1.73884e-225
7.93184e-230
1.55585e-234
7.60075e-106
1.89502e-107
2.98835e-109
3.12692e-111
2.24244e-113
1.11413e-115
3.85566e-118
9.24955e-121
1.52065e-123
1.69038e-126
1.24394e-129
5.73359e-133
1.27236e-136
3.3143e-143
9.96357e-147
3.74202e-149
2.59169e-149
9.74171e-150
9.90445e-153
6.51394e-156
3.54112e-159
1.72421e-162
7.7814e-166
3.30672e-169
1.33201e-172
5.09398e-176
1.84637e-179
6.31761e-183
2.02782e-186
6.05275e-190
1.66263e-193
4.15619e-197
9.32159e-201
1.83908e-204
3.12271e-208
4.39537e-212
4.90695e-216
4.00982e-220
2.08043e-224
4.65183e-229
3.31024e-102
8.46752e-104
1.37761e-105
1.49599e-107
1.12033e-109
5.85247e-112
2.1456e-114
5.49788e-117
9.73874e-120
1.17641e-122
9.47174e-126
4.77453e-129
1.10161e-132
4.15724e-139
1.40455e-142
4.09391e-146
5.18177e-149
3.75783e-149
2.65485e-149
6.08466e-152
5.44198e-155
3.60651e-158
2.04656e-161
1.0504e-164
4.99624e-168
2.22598e-171
9.32048e-175
3.66321e-178
1.34523e-181
4.58279e-185
1.43534e-188
4.08661e-192
1.04217e-195
2.3385e-199
4.50845e-203
7.21508e-207
9.11552e-211
8.45583e-215
4.94286e-219
1.26483e-223
1.26954e-98
3.33263e-100
5.59468e-102
6.30653e-104
4.93395e-106
2.71159e-108
1.05385e-110
2.88588e-113
5.50849e-116
7.22777e-119
6.36077e-122
3.49968e-125
8.27865e-129
4.59973e-135
1.75523e-138
5.76929e-142
1.65862e-145
1.00983e-148
9.22535e-149
5.05922e-149
5.11766e-151
5.79928e-154
4.47212e-157
2.86986e-160
1.64026e-163
8.59292e-167
4.17691e-170
1.8905e-173
7.95297e-177
3.0943e-180
1.1052e-183
3.58341e-187
1.03934e-190
2.65233e-194
5.79803e-198
1.05534e-201
1.514e-205
1.59579e-209
1.05421e-213
3.05421e-218
4.28745e-95
1.1553e-96
2.00172e-98
2.34292e-100
1.91545e-102
1.10769e-104
4.56372e-107
1.33529e-109
2.74541e-112
3.91099e-115
3.75963e-118
2.25386e-121
5.36045e-125
4.48378e-131
1.93112e-134
7.16831e-138
2.32803e-141
7.41293e-145
8.03931e-145
8.065e-147
5.76683e-149
5.19492e-150
7.1151e-153
6.27258e-156
4.50109e-159
2.83746e-162
1.62168e-165
8.5132e-169
4.12041e-172
1.83561e-175
7.48277e-179
2.76316e-182
9.12138e-186
2.64529e-189
6.56482e-193
1.35425e-196
2.20944e-200
2.63772e-204
1.98473e-208
6.50694e-213
1.27532e-91
3.52747e-93
6.30834e-95
7.66759e-97
6.55171e-99
3.98745e-101
1.74182e-103
5.44622e-106
1.20656e-108
1.86699e-111
1.96103e-114
1.27955e-117
2.98401e-121
3.85923e-127
1.87562e-130
7.86679e-134
2.89037e-137
1.04447e-140
1.21864e-140
1.39941e-142
1.05704e-145
1.05112e-148
3.0563e-149
7.55562e-152
8.55226e-155
7.20605e-158
5.12337e-161