/*--------------------------------*- C++ -*----------------------------------*\
  =========                 |
  \\      /  F ield         | OpenFOAM: The Open Source CFD Toolbox
   \\    /   O peration     | Website:  https://openfoam.org
    \\  /    A nd           | Version:  8
     \\/     M anipulation  |
\*---------------------------------------------------------------------------*/
FoamFile
{
    version     2.0;
    format      ascii;
    class       volScalarField;
    location    "0.1";
    object      p;
}
// * * * * * * * * * * * * * * * * * * * * * * * * * * * * * * * * * * * * * //

dimensions      [1 -1 -2 0 0 0 0];

internalField   nonuniform List<scalar> 
9150
(
-205.062
-206.24
-206.804
-207.245
-207.454
-207.454
-207.246
-206.805
-206.241
-205.063
-225.151
-225.756
-226.168
-226.483
-226.674
-226.674
-226.483
-226.169
-225.757
-225.151
-245.001
-245.363
-245.614
-245.831
-245.938
-245.938
-245.831
-245.615
-245.363
-245.002
-264.73
-264.949
-265.135
-265.303
-265.387
-265.387
-265.304
-265.135
-264.95
-264.731
-284.391
-284.599
-284.743
-284.876
-284.943
-284.943
-284.876
-284.744
-284.599
-284.392
-118.99
-119.653
-119.33
-119.142
-119.01
-119.011
-119.145
-119.335
-119.657
-118.995
-134.657
-135.331
-135.279
-135.387
-135.264
-135.264
-135.389
-135.282
-135.335
-134.66
-150.925
-151.825
-151.868
-152.387
-152.43
-152.431
-152.389
-151.87
-151.828
-150.928
-167.644
-169.146
-169.366
-170.049
-170.195
-170.195
-170.05
-169.367
-169.149
-167.646
-184.469
-187.067
-187.707
-188.384
-188.653
-188.653
-188.385
-187.708
-187.069
-184.471
-25.0542
-26.8138
-29.0931
-30.03
-30.4568
-30.4625
-30.055
-29.1456
-26.9145
-25.2662
-45.6878
-46.0499
-47.346
-47.7651
-48.2862
-48.3087
-47.7988
-47.394
-46.1209
-45.7799
-66.2633
-65.6997
-67.429
-66.6621
-67.4749
-67.4964
-66.671
-67.4713
-65.7358
-66.3164
-89.1311
-85.2976
-87.7315
-85.3767
-85.8191
-85.8358
-85.3774
-87.7587
-85.3186
-89.1544
-115.474
-104.288
-104.752
-103.273
-102.718
-102.719
-103.276
-104.763
-104.299
-115.49
0.0466475
0.0466579
0.046668
0.0466782
0.0466886
0.0466992
0.04671
0.0467208
0.0467315
0.0467418
0.0270269
0.027037
0.0270473
0.0270578
0.0270685
0.0270794
0.0270904
0.0271012
0.0271117
0.0271218
0.00740622
0.00741613
0.00742696
0.00743791
0.00744891
0.00745986
0.0074706
0.00748097
0.00749087
0.00750027
-0.0122131
-0.012203
-0.012192
-0.012181
-0.0121702
-0.0121596
-0.0121496
-0.01214
-0.0121309
-0.0121221
-0.0318313
-0.031821
-0.0318106
-0.0318001
-0.0317899
-0.0317802
-0.0317709
-0.0317621
-0.0317535
-0.0317449
-0.0514513
-0.0514409
-0.0514314
-0.0514218
-0.0514123
-0.0514033
-0.0513945
-0.051386
-0.0513772
-0.051368
-0.0710758
-0.0710658
-0.0710567
-0.0710475
-0.0710384
-0.0710295
-0.0710205
-0.0710114
-0.0710017
-0.0709913
-0.090705
-0.0906955
-0.0906859
-0.0906763
-0.0906667
-0.090657
-0.0906471
-0.0906367
-0.0906256
-0.0906138
-0.110335
-0.110326
-0.110315
-0.110304
-0.110293
-0.110282
-0.110271
-0.110259
-0.110247
-0.110234
-0.12996
-0.12995
-0.129938
-0.129926
-0.129914
-0.129902
-0.12989
-0.129877
-0.129865
-0.129852
-0.149578
-0.149566
-0.149554
-0.149542
-0.149529
-0.149517
-0.149504
-0.149492
-0.14948
-0.149468
-0.169191
-0.169179
-0.169167
-0.169155
-0.169142
-0.16913
-0.169118
-0.169105
-0.169094
-0.169082
-0.188807
-0.188793
-0.188781
-0.188769
-0.188757
-0.188744
-0.188732
-0.18872
-0.188708
-0.188697
-0.208427
-0.208413
-0.2084
-0.208387
-0.208374
-0.208361
-0.208348
-0.208335
-0.208322
-0.20831
-0.228049
-0.228034
-0.228019
-0.228005
-0.227991
-0.227976
-0.227962
-0.227948
-0.227934
-0.22792
-0.247667
-0.247651
-0.247635
-0.24762
-0.247605
-0.247589
-0.247574
-0.247558
-0.247543
-0.247527
-0.267281
-0.267263
-0.267247
-0.267231
-0.267215
-0.267199
-0.267182
-0.267166
-0.267149
-0.267134
-0.286894
-0.286875
-0.286859
-0.286842
-0.286825
-0.286808
-0.28679
-0.286773
-0.286756
-0.286741
-0.306513
-0.306493
-0.306475
-0.306456
-0.306437
-0.306417
-0.306399
-0.30638
-0.306363
-0.306348
-0.326135
-0.326115
-0.326093
-0.326071
-0.326049
-0.326028
-0.326008
-0.325989
-0.325971
-0.325954
-0.345756
-0.345734
-0.345708
-0.345684
-0.34566
-0.345638
-0.345617
-0.345597
-0.345579
-0.345561
-0.36537
-0.365345
-0.365318
-0.365293
-0.365269
-0.365246
-0.365225
-0.365204
-0.365185
-0.365165
-0.384978
-0.384952
-0.384926
-0.3849
-0.384876
-0.384853
-0.38483
-0.384809
-0.384787
-0.384766
-0.404588
-0.40456
-0.404534
-0.404508
-0.404482
-0.404458
-0.404433
-0.404409
-0.404386
-0.404362
-0.424199
-0.424171
-0.424142
-0.424114
-0.424087
-0.42406
-0.424033
-0.424007
-0.423981
-0.423955
-0.443808
-0.443778
-0.443748
-0.443718
-0.443689
-0.44366
-0.443631
-0.443603
-0.443575
-0.443548
-0.463412
-0.46338
-0.463349
-0.463318
-0.463288
-0.463258
-0.463228
-0.463198
-0.463169
-0.463141
-0.483012
-0.482978
-0.482947
-0.482917
-0.482886
-0.482855
-0.482823
-0.482793
-0.482762
-0.482733
-0.502614
-0.502578
-0.502545
-0.502513
-0.50248
-0.502447
-0.502415
-0.502383
-0.502353
-0.502323
-0.522216
-0.522178
-0.522141
-0.522105
-0.52207
-0.522035
-0.522002
-0.521969
-0.521938
-0.521907
-0.541816
-0.541774
-0.541734
-0.541694
-0.541656
-0.54162
-0.541584
-0.541551
-0.541518
-0.541486
-0.561414
-0.561368
-0.561324
-0.561282
-0.561241
-0.561202
-0.561164
-0.561129
-0.561094
-0.561061
-0.58101
-0.580961
-0.580914
-0.580868
-0.580824
-0.580782
-0.580742
-0.580703
-0.580666
-0.58063
-0.600605
-0.600553
-0.600501
-0.600451
-0.600403
-0.600357
-0.600314
-0.600272
-0.600232
-0.600194
-0.620192
-0.620136
-0.62008
-0.620026
-0.619975
-0.619925
-0.619878
-0.619833
-0.61979
-0.61975
-0.639768
-0.639707
-0.639648
-0.639591
-0.639536
-0.639484
-0.639433
-0.639386
-0.639341
-0.639299
-0.659335
-0.65927
-0.659208
-0.659147
-0.659089
-0.659033
-0.65898
-0.658929
-0.658882
-0.658837
-0.678896
-0.678827
-0.67876
-0.678695
-0.678632
-0.678573
-0.678516
-0.678463
-0.678413
-0.678367
-0.698449
-0.698375
-0.698302
-0.698232
-0.698165
-0.698102
-0.698042
-0.697987
-0.697934
-0.697885
-0.71799
-0.717909
-0.71783
-0.717755
-0.717684
-0.717618
-0.717556
-0.717497
-0.717443
-0.717391
-0.737515
-0.737428
-0.737344
-0.737265
-0.73719
-0.737119
-0.737054
-0.736992
-0.736934
-0.73688
-0.757025
-0.756932
-0.756842
-0.756757
-0.756677
-0.756603
-0.756533
-0.756467
-0.756406
-0.756349
-0.776519
-0.776418
-0.776322
-0.776231
-0.776146
-0.776066
-0.775991
-0.775922
-0.775857
-0.775797
-0.795995
-0.795885
-0.795782
-0.795685
-0.795594
-0.795508
-0.795428
-0.795354
-0.795286
-0.795224
-0.81545
-0.815331
-0.81522
-0.815116
-0.815018
-0.814927
-0.814841
-0.814763
-0.814692
-0.814628
-0.834882
-0.834753
-0.834633
-0.834521
-0.834415
-0.834317
-0.834227
-0.834144
-0.834069
-0.834003
-0.854287
-0.854147
-0.854016
-0.853893
-0.853779
-0.853674
-0.853577
-0.85349
-0.853413
-0.853345
-0.873658
-0.873505
-0.873361
-0.873227
-0.873104
-0.872991
-0.872889
-0.872798
-0.872718
-0.87265
-0.892989
-0.89282
-0.892663
-0.892518
-0.892384
-0.892264
-0.892156
-0.892061
-0.891979
-0.89191
-0.912276
-0.91209
-0.911918
-0.911759
-0.911615
-0.911485
-0.911371
-0.911271
-0.911186
-0.911115
-0.931513
-0.931308
-0.931118
-0.930944
-0.930786
-0.930646
-0.930523
-0.930418
-0.93033
-0.930259
-0.950687
-0.950461
-0.95025
-0.950058
-0.949886
-0.949734
-0.949603
-0.949493
-0.949403
-0.949333
-0.969785
-0.969533
-0.9693
-0.969089
-0.968901
-0.968738
-0.968599
-0.968484
-0.968393
-0.968326
-0.988794
-0.988512
-0.988255
-0.988023
-0.98782
-0.987644
-0.987497
-0.987379
-0.987288
-0.987226
-1.0077
-1.00739
-1.0071
-1.00685
-1.00663
-1.00644
-1.00628
-1.00616
-1.00607
-1.00602
-1.02649
-1.02614
-1.02582
-1.02554
-1.0253
-1.0251
-1.02494
-1.02482
-1.02473
-1.02469
-1.04516
-1.04476
-1.0444
-1.04409
-1.04382
-1.04361
-1.04344
-1.04332
-1.04324
-1.04322
-1.06367
-1.06321
-1.06281
-1.06246
-1.06217
-1.06193
-1.06176
-1.06164
-1.06158
-1.06157
-1.082
-1.08148
-1.08101
-1.08062
-1.08029
-1.08003
-1.07985
-1.07974
-1.0797
-1.07972
-1.10012
-1.09951
-1.09897
-1.09852
-1.09815
-1.09787
-1.09768
-1.09757
-1.09756
-1.09762
-1.11799
-1.11726
-1.11663
-1.11611
-1.11569
-1.11538
-1.11518
-1.11509
-1.11511
-1.11523
-1.13555
-1.13468
-1.13393
-1.13331
-1.13283
-1.13248
-1.13228
-1.13223
-1.1323
-1.13251
-1.15273
-1.15167
-1.15077
-1.15003
-1.14947
-1.14909
-1.1489
-1.14889
-1.14905
-1.14938
-1.16945
-1.16814
-1.16702
-1.16612
-1.16546
-1.16504
-1.16486
-1.16493
-1.16522
-1.16572
-1.18561
-1.18394
-1.18252
-1.18139
-1.18058
-1.1801
-1.17996
-1.18015
-1.18064
-1.18141
-1.20106
-1.19887
-1.197
-1.19553
-1.19451
-1.19396
-1.1939
-1.19429
-1.19511
-1.19628
-1.21565
-1.21267
-1.21012
-1.20813
-1.2068
-1.20618
-1.20627
-1.20703
-1.20838
-1.2102
-1.22927
-1.22506
-1.22144
-1.21863
-1.21682
-1.21612
-1.21653
-1.21795
-1.22021
-1.22309
-1.24208
-1.23591
-1.23048
-1.22624
-1.2236
-1.2228
-1.22384
-1.22649
-1.23036
-1.23501
-1.25492
-1.24553
-1.23689
-1.23002
-1.22584
-1.22489
-1.22714
-1.23212
-1.23893
-1.24658
-1.27041
-1.25583
-1.24117
-1.22907
-1.22207
-1.22105
-1.22569
-1.2353
-1.24762
-1.26014
-1.29547
-1.27399
-1.24937
-1.22751
-1.21547
-1.21482
-1.22376
-1.24208
-1.26341
-1.28237
-1.35042
-1.32268
-1.28519
-1.25187
-1.22941
-1.22729
-1.24502
-1.2741
-1.30818
-1.33343
-1.46034
-1.42485
-1.37577
-1.32227
-1.27866
-1.27682
-1.31371
-1.36225
-1.40545
-1.44015
-1.57217
-1.5623
-1.29687
-1.40038
-1.3597
-1.35566
-1.39862
-1.33411
-1.53173
-1.54917
-1.60058
-1.63956
-0.874122
-1.09039
-1.30651
-1.28565
-1.09032
-0.846913
-1.61189
-1.57473
-1.56973
-1.52923
-1.4351
6.69333
-0.923587
-0.748257
6.63101
-1.31107
-1.49716
-1.5356
-1.5962
-1.55813
-1.356
7.3143
8.57435
8.72032
7.45862
-1.20297
-1.50651
-1.54789
-1.6954
-1.70995
-1.12124
2.44856
5.0405
5.41791
2.73872
-0.92617
-1.63682
-1.63029
-1.74014
-1.74483
-0.688127
1.97564
3.87126
3.92313
2.15362
-0.503045
-1.67408
-1.66887
-1.7507
-1.75783
-0.888262
0.95806
1.73797
1.53133
0.948968
-0.7707
-1.69895
-1.68855
-1.75086
-1.75592
-1.6417
-1.1604
1.54386
1.21851
-1.14498
-1.58496
-1.69325
-1.68704
-1.74996
-1.75295
-1.79874
-2.58499
6.06373
5.33634
-2.47204
-1.70961
-1.66472
-1.66548
-1.75873
-1.76301
-1.77563
-2.87536
12.0594
7.54038
-2.56755
-1.62192
-1.63487
-1.64147
-1.77684
-1.78628
-1.80085
-2.49614
18.4581
7.61715
-2.26366
-1.60719
-1.6176
-1.62689
-1.78902
-1.7981
-1.81033
-2.20258
21.8269
7.8673
-1.93217
-1.60062
-1.61288
-1.62513
-1.79093
-1.79797
-1.80941
-2.10137
22.7025
8.42715
-1.85676
-1.60757
-1.6207
-1.63343
-1.78878
-1.79209
-1.801
-2.12458
21.706
11.6457
-1.92866
-1.63574
-1.64403
-1.65387
-1.78738
-1.7868
-1.78693
-1.98393
10.8374
17.9671
-1.87729
-1.68846
-1.68234
-1.68401
-1.79563
-1.79624
-1.80171
-1.80206
7.67855
15.7107
-1.70002
-1.73143
-1.71716
-1.71272
-1.80959
-1.81352
-1.81755
-1.89484
7.69492
10.5879
-1.85868
-1.75207
-1.74341
-1.73741
-1.82619
-1.83057
-1.81145
-2.00346
7.25594
5.03491
-1.98043
-1.74262
-1.76115
-1.76063
-1.84393
-1.84191
-1.86111
-1.79435
3.15553
3.81071
-1.89899
-1.81039
-1.78687
-1.78914
-1.85679
-1.8557
-1.90422
-1.88256
2.23519
1.37815
-1.46909
-1.87212
-1.80993
-1.81109
-1.87347
-1.87487
-2.05407
-1.09421
1.18221
1.34511
-1.28161
-1.99834
-1.83684
-1.83542
-1.89234
-1.89801
-2.25997
-0.742051
0.408249
0.723309
-0.693037
-2.205
-1.86533
-1.86023
-1.90618
-1.89567
-3.27438
-0.868796
0.0275948
-0.0283112
-1.10359
-3.34281
-1.86947
-1.87974
-1.92827
-2.2196
-4.76324
-2.18407
-0.730521
-0.671257
-1.97843
-4.63932
-2.24454
-1.90647
-1.93183
-3.84562
-5.56713
-5.49427
-5.22302
-5.22411
-5.52224
-5.59869
-3.8798
-1.91805
-2.71862
-9.92937
-13.2829
-15.0844
-15.9691
-15.9719
-15.1116
-13.3427
-10.0146
-2.73239
0.0467523
0.0467629
0.046773
0.0467828
0.0467926
0.0468029
0.0468139
0.0468258
0.0468386
0.0468518
0.0468651
0.0468778
0.0468893
0.0468993
0.0469078
0.0469151
0.0469219
0.0469286
0.0469357
0.0469431
0.0469504
0.0469572
0.0469627
0.0469671
0.0469705
0.0469739
0.0469778
0.0469824
0.0469874
0.0469921
0.0469957
0.0469982
0.0469998
0.0470013
0.0470031
0.0470052
0.0470072
0.0470087
0.0470096
0.04701
0.0271319
0.027142
0.0271517
0.0271612
0.0271711
0.0271816
0.0271932
0.0272057
0.027219
0.0272327
0.0272461
0.0272586
0.0272698
0.0272795
0.0272877
0.027295
0.027302
0.0273092
0.0273168
0.0273245
0.0273318
0.027338
0.0273429
0.0273466
0.0273499
0.0273536
0.0273581
0.0273632
0.0273683
0.0273725
0.0273755
0.0273775
0.0273792
0.0273813
0.0273837
0.0273862
0.0273882
0.0273896
0.0273902
0.0273901
0.00750979
0.00751953
0.00752923
0.00753922
0.00754978
0.00756109
0.00757321
0.007586
0.0075992
0.00761243
0.00762524
0.00763726
0.00764822
0.00765803
0.00766683
0.00767492
0.00768263
0.0076903
0.00769791
0.00770521
0.00771184
0.00771749
0.00772216
0.0077262
0.00773014
0.00773442
0.00773911
0.00774384
0.00774811
0.00775159
0.00775443
0.00775706
0.00775985
0.0077628
0.0077656
0.0077679
0.00776957
0.00777068
0.00777132
0.00777158
-0.0121129
-0.012103
-0.0120927
-0.0120818
-0.0120703
-0.0120584
-0.0120462
-0.012034
-0.0120218
-0.0120098
-0.0119981
-0.0119866
-0.0119756
-0.0119651
-0.0119553
-0.0119462
-0.0119378
-0.01193
-0.0119226
-0.0119157
-0.0119092
-0.0119033
-0.0118978
-0.0118927
-0.0118879
-0.0118834
-0.0118792
-0.0118752
-0.0118716
-0.011868
-0.0118644
-0.0118606
-0.0118569
-0.0118536
-0.011851
-0.0118492
-0.0118478
-0.0118467
-0.0118459
-0.0118451
-0.0317353
-0.0317246
-0.0317133
-0.0317014
-0.0316893
-0.0316774
-0.0316659
-0.031655
-0.0316445
-0.031634
-0.0316232
-0.0316121
-0.0316006
-0.0315893
-0.0315785
-0.0315687
-0.0315599
-0.0315519
-0.0315445
-0.0315372
-0.0315299
-0.0315227
-0.0315159
-0.0315098
-0.0315047
-0.0315005
-0.0314968
-0.0314932
-0.0314893
-0.0314849
-0.0314802
-0.0314756
-0.0314717
-0.0314686
-0.0314663
-0.0314645
-0.0314632
-0.0314621
-0.0314613
-0.0314606
-0.0513575
-0.0513455
-0.051333
-0.0513202
-0.0513079
-0.0512965
-0.0512861
-0.0512766
-0.0512674
-0.0512579
-0.0512476
-0.0512364
-0.0512246
-0.0512127
-0.0512015
-0.0511913
-0.0511822
-0.0511739
-0.0511658
-0.0511575
-0.0511489
-0.0511405
-0.0511329
-0.0511266
-0.0511217
-0.0511177
-0.0511139
-0.0511097
-0.0511048
-0.0510995
-0.0510943
-0.0510898
-0.0510862
-0.0510833
-0.0510809
-0.0510789
-0.0510773
-0.0510761
-0.0510755
-0.0510755
-0.0709794
-0.0709661
-0.0709525
-0.0709392
-0.0709268
-0.0709158
-0.0709059
-0.070897
-0.0708882
-0.0708789
-0.0708687
-0.0708574
-0.0708456
-0.0708339
-0.0708228
-0.0708127
-0.0708035
-0.0707945
-0.0707854
-0.0707761
-0.0707668
-0.0707581
-0.0707506
-0.0707446
-0.0707396
-0.070735
-0.07073
-0.0707245
-0.0707187
-0.0707131
-0.0707082
-0.0707042
-0.0707008
-0.0706979
-0.0706952
-0.070693
-0.0706911
-0.0706898
-0.070689
-0.0706893
-0.0906006
-0.0905863
-0.0905721
-0.0905584
-0.0905459
-0.0905347
-0.0905246
-0.0905152
-0.0905061
-0.0904965
-0.0904863
-0.0904755
-0.0904643
-0.0904533
-0.0904428
-0.0904328
-0.0904231
-0.0904134
-0.0904036
-0.0903938
-0.0903846
-0.0903764
-0.0903693
-0.090363
-0.090357
-0.0903508
-0.0903442
-0.0903376
-0.0903313
-0.090326
-0.0903214
-0.0903175
-0.0903139
-0.0903108
-0.0903081
-0.0903058
-0.0903041
-0.0903028
-0.0903018
-0.0903011
-0.11022
-0.110206
-0.110191
-0.110178
-0.110165
-0.110153
-0.110142
-0.110132
-0.110122
-0.110113
-0.110103
-0.110093
-0.110083
-0.110072
-0.110062
-0.110052
-0.110041
-0.110031
-0.110021
-0.110012
-0.110003
-0.109995
-0.109987
-0.109979
-0.109972
-0.109963
-0.109956
-0.109949
-0.109942
-0.109937
-0.109932
-0.109928
-0.109924
-0.109921
-0.109918
-0.109916
-0.109915
-0.109914
-0.109912
-0.109911
-0.129838
-0.129824
-0.12981
-0.129797
-0.129784
-0.129771
-0.12976
-0.129749
-0.129739
-0.129729
-0.12972
-0.129711
-0.129701
-0.129691
-0.12968
-0.129669
-0.129658
-0.129648
-0.129638
-0.129629
-0.12962
-0.129612
-0.129603
-0.129593
-0.129583
-0.129574
-0.129565
-0.129558
-0.129552
-0.129546
-0.129541
-0.129536
-0.129532
-0.129529
-0.129526
-0.129524
-0.129522
-0.129521
-0.12952
-0.129519
-0.149455
-0.149442
-0.149429
-0.149415
-0.149402
-0.149389
-0.149377
-0.149365
-0.149355
-0.149346
-0.149336
-0.149327
-0.149317
-0.149307
-0.149295
-0.149284
-0.149274
-0.149264
-0.149255
-0.149246
-0.149237
-0.149226
-0.149215
-0.149204
-0.149193
-0.149183
-0.149175
-0.149167
-0.14916
-0.149154
-0.149149
-0.149144
-0.14914
-0.149137
-0.149134
-0.149132
-0.149129
-0.149127
-0.149126
-0.149126
-0.169071
-0.169058
-0.169045
-0.169032
-0.169018
-0.169005
-0.168992
-0.16898
-0.168969
-0.168959
-0.16895
-0.16894
-0.168929
-0.168918
-0.168907
-0.168897
-0.168887
-0.168878
-0.16887
-0.16886
-0.16885
-0.168839
-0.168827
-0.168815
-0.168804
-0.168794
-0.168785
-0.168777
-0.168769
-0.168762
-0.168757
-0.168752
-0.168748
-0.168745
-0.168742
-0.168739
-0.168737
-0.168734
-0.168732
-0.168732
-0.188685
-0.188672
-0.188658
-0.188644
-0.18863
-0.188617
-0.188604
-0.188591
-0.18858
-0.188569
-0.188558
-0.188547
-0.188536
-0.188526
-0.188516
-0.188507
-0.188499
-0.18849
-0.188481
-0.188471
-0.18846
-0.188449
-0.188437
-0.188426
-0.188415
-0.188405
-0.188395
-0.188386
-0.188378
-0.18837
-0.188364
-0.18836
-0.188355
-0.188352
-0.188348
-0.188345
-0.188342
-0.188341
-0.188339
-0.188338
-0.208296
-0.208282
-0.208268
-0.208254
-0.20824
-0.208226
-0.208213
-0.2082
-0.208187
-0.208175
-0.208163
-0.208152
-0.208141
-0.208131
-0.208123
-0.208115
-0.208107
-0.208098
-0.208088
-0.208078
-0.208066
-0.208055
-0.208044
-0.208033
-0.208023
-0.208012
-0.208002
-0.207993
-0.207985
-0.207978
-0.207971
-0.207966
-0.207961
-0.207956
-0.207952
-0.207949
-0.207946
-0.207945
-0.207945
-0.207944
-0.227905
-0.22789
-0.227876
-0.227862
-0.227848
-0.227835
-0.227821
-0.227807
-0.227793
-0.22778
-0.227767
-0.227755
-0.227745
-0.227736
-0.227727
-0.227719
-0.22771
-0.2277
-0.22769
-0.227679
-0.227668
-0.227657
-0.227647
-0.227636
-0.227626
-0.227615
-0.227605
-0.227597
-0.227589
-0.227582
-0.227576
-0.22757
-0.227564
-0.227559
-0.227555
-0.227552
-0.22755
-0.227549
-0.227549
-0.22755
-0.247512
-0.247497
-0.247483
-0.24747
-0.247456
-0.247443
-0.247428
-0.247414
-0.247399
-0.247384
-0.247371
-0.247359
-0.247349
-0.247339
-0.24733
-0.24732
-0.247309
-0.247298
-0.247287
-0.247277
-0.247266
-0.247257
-0.247246
-0.247236
-0.247226
-0.247216
-0.247207
-0.247199
-0.247192
-0.247185
-0.247178
-0.247172
-0.247167
-0.247162
-0.247159
-0.247157
-0.247156
-0.247155
-0.247155
-0.247155
-0.267119
-0.267104
-0.26709
-0.267077
-0.267063
-0.267049
-0.267034
-0.267018
-0.267003
-0.266988
-0.266975
-0.266963
-0.266952
-0.266941
-0.26693
-0.266918
-0.266906
-0.266895
-0.266884
-0.266873
-0.266863
-0.266854
-0.266844
-0.266834
-0.266825
-0.266817
-0.266809
-0.266802
-0.266794
-0.266787
-0.26678
-0.266774
-0.266769
-0.266765
-0.266762
-0.266761
-0.26676
-0.26676
-0.26676
-0.266759
-0.286725
-0.286711
-0.286696
-0.286682
-0.286667
-0.286652
-0.286636
-0.28662
-0.286605
-0.286591
-0.286578
-0.286565
-0.286553
-0.28654
-0.286528
-0.286515
-0.286503
-0.286491
-0.28648
-0.28647
-0.28646
-0.28645
-0.28644
-0.286432
-0.286424
-0.286418
-0.286411
-0.286404
-0.286397
-0.286389
-0.286382
-0.286376
-0.286371
-0.286368
-0.286365
-0.286363
-0.286361
-0.286361
-0.28636
-0.28636
-0.306332
-0.306316
-0.3063
-0.306284
-0.306268
-0.306251
-0.306235
-0.306219
-0.306205
-0.306191
-0.306178
-0.306165
-0.306151
-0.306137
-0.306123
-0.30611
-0.306098
-0.306086
-0.306076
-0.306065
-0.306054
-0.306045
-0.306036
-0.306029
-0.306022
-0.306016
-0.30601
-0.306003
-0.305997
-0.30599
-0.305983
-0.305978
-0.305973
-0.305969
-0.305966
-0.305963
-0.305961
-0.305959
-0.305957
-0.305957
-0.325937
-0.325919
-0.325902
-0.325884
-0.325866
-0.325849
-0.325833
-0.325818
-0.325803
-0.325789
-0.325775
-0.32576
-0.325746
-0.325731
-0.325717
-0.325704
-0.325691
-0.325679
-0.325668
-0.325657
-0.325647
-0.325638
-0.325631
-0.325625
-0.325618
-0.325612
-0.325606
-0.3256
-0.325594
-0.325588
-0.325582
-0.325577
-0.325573
-0.325568
-0.325565
-0.325562
-0.325559
-0.325555
-0.325553
-0.325552
-0.345542
-0.345522
-0.345502
-0.345483
-0.345464
-0.345447
-0.34543
-0.345415
-0.3454
-0.345385
-0.345369
-0.345353
-0.345338
-0.345323
-0.345309
-0.345296
-0.345283
-0.345271
-0.345259
-0.345248
-0.345239
-0.345231
-0.345225
-0.345219
-0.345213
-0.345207
-0.345201
-0.345195
-0.34519
-0.345185
-0.34518
-0.345175
-0.34517
-0.345165
-0.34516
-0.345157
-0.345154
-0.34515
-0.345148
-0.345147
-0.365144
-0.365123
-0.365101
-0.365081
-0.365061
-0.365044
-0.365027
-0.36501
-0.364994
-0.364978
-0.364961
-0.364945
-0.364929
-0.364915
-0.364901
-0.364888
-0.364875
-0.364862
-0.364851
-0.364841
-0.364832
-0.364825
-0.364819
-0.364813
-0.364807
-0.364801
-0.364795
-0.364789
-0.364784
-0.364779
-0.364774
-0.36477
-0.364765
-0.36476
-0.364755
-0.36475
-0.364746
-0.364744
-0.364742
-0.364741
-0.384743
-0.384719
-0.384697
-0.384676
-0.384656
-0.384638
-0.38462
-0.384603
-0.384585
-0.384568
-0.384552
-0.384536
-0.384521
-0.384506
-0.384492
-0.384479
-0.384466
-0.384454
-0.384444
-0.384435
-0.384427
-0.38442
-0.384413
-0.384405
-0.384399
-0.384392
-0.384386
-0.384381
-0.384376
-0.384371
-0.384366
-0.384361
-0.384357
-0.384353
-0.384349
-0.384344
-0.38434
-0.384337
-0.384335
-0.384334
-0.404337
-0.404312
-0.404289
-0.404267
-0.404247
-0.404228
-0.404209
-0.404191
-0.404174
-0.404157
-0.404141
-0.404125
-0.404111
-0.404096
-0.404082
-0.404068
-0.404056
-0.404045
-0.404035
-0.404027
-0.404019
-0.404011
-0.404003
-0.403996
-0.403989
-0.403982
-0.403976
-0.40397
-0.403964
-0.40396
-0.403955
-0.40395
-0.403946
-0.403942
-0.403938
-0.403934
-0.403932
-0.403929
-0.403926
-0.403926
-0.423929
-0.423903
-0.423879
-0.423856
-0.423835
-0.423815
-0.423796
-0.423777
-0.423759
-0.423743
-0.423727
-0.423712
-0.423697
-0.423682
-0.423668
-0.423654
-0.423642
-0.423632
-0.423623
-0.423614
-0.423606
-0.423598
-0.42359
-0.423582
-0.423575
-0.423569
-0.423563
-0.423557
-0.423551
-0.423546
-0.423542
-0.423538
-0.423534
-0.42353
-0.423525
-0.423522
-0.423519
-0.423517
-0.423516
-0.423516
-0.44352
-0.443493
-0.443468
-0.443444
-0.443422
-0.4434
-0.44338
-0.443361
-0.443343
-0.443327
-0.443311
-0.443295
-0.443279
-0.443264
-0.44325
-0.443237
-0.443225
-0.443215
-0.443206
-0.443197
-0.443188
-0.44318
-0.443173
-0.443165
-0.443158
-0.443152
-0.443146
-0.443141
-0.443136
-0.443131
-0.443126
-0.443123
-0.443121
-0.443118
-0.443114
-0.443111
-0.443108
-0.443106
-0.443104
-0.443104
-0.463112
-0.463084
-0.463057
-0.463031
-0.463007
-0.462984
-0.462963
-0.462944
-0.462926
-0.462909
-0.462892
-0.462875
-0.462859
-0.462843
-0.462829
-0.462817
-0.462806
-0.462796
-0.462786
-0.462776
-0.462768
-0.46276
-0.462753
-0.462746
-0.462739
-0.462732
-0.462726
-0.462721
-0.462717
-0.462714
-0.462711
-0.462708
-0.462705
-0.462704
-0.462702
-0.4627
-0.462698
-0.462697
-0.462695
-0.462694
-0.482704
-0.482674
-0.482645
-0.482618
-0.482592
-0.482568
-0.482546
-0.482526
-0.482507
-0.482489
-0.482471
-0.482454
-0.482437
-0.482422
-0.482409
-0.482397
-0.482385
-0.482374
-0.482363
-0.482353
-0.482344
-0.482336
-0.482329
-0.482323
-0.482317
-0.482312
-0.482307
-0.482303
-0.482299
-0.482297
-0.482295
-0.482293
-0.48229
-0.482288
-0.482287
-0.482285
-0.482285
-0.482284
-0.482285
-0.482284
-0.502292
-0.502261
-0.502231
-0.502202
-0.502175
-0.50215
-0.502127
-0.502106
-0.502086
-0.502066
-0.502048
-0.50203
-0.502014
-0.501999
-0.501986
-0.501974
-0.501961
-0.501949
-0.501938
-0.501928
-0.501919
-0.501911
-0.501904
-0.501898
-0.501893
-0.50189
-0.501887
-0.501884
-0.501882
-0.50188
-0.501879
-0.501877
-0.501875
-0.501872
-0.50187
-0.501868
-0.501868
-0.501867
-0.501868
-0.501868
-0.521875
-0.521843
-0.521812
-0.521782
-0.521754
-0.521729
-0.521704
-0.521681
-0.521659
-0.521638
-0.521619
-0.521601
-0.521586
-0.521571
-0.521558
-0.521545
-0.521533
-0.521522
-0.521511
-0.521502
-0.521493
-0.521486
-0.521479
-0.521473
-0.521469
-0.521466
-0.521464
-0.521463
-0.521462
-0.521461
-0.521459
-0.521457
-0.521456
-0.521454
-0.521453
-0.521452
-0.521452
-0.521451
-0.52145
-0.521449
-0.541454
-0.54142
-0.541388
-0.541357
-0.541328
-0.541301
-0.541275
-0.54125
-0.541226
-0.541204
-0.541184
-0.541167
-0.541152
-0.541138
-0.541125
-0.541113
-0.541101
-0.541091
-0.541082
-0.541073
-0.541066
-0.541058
-0.541052
-0.541048
-0.541044
-0.541042
-0.54104
-0.54104
-0.54104
-0.541039
-0.541038
-0.541036
-0.541035
-0.541033
-0.541033
-0.541033
-0.541033
-0.541035
-0.541033
-0.541032
-0.561027
-0.560992
-0.560959
-0.560927
-0.560897
-0.560868
-0.56084
-0.560813
-0.560788
-0.560766
-0.560746
-0.56073
-0.560715
-0.560702
-0.56069
-0.560678
-0.560667
-0.560658
-0.560649
-0.560641
-0.560634
-0.560628
-0.560623
-0.56062
-0.560618
-0.560618
-0.560618
-0.560617
-0.560617
-0.560617
-0.560617
-0.560616
-0.560614
-0.560614
-0.560613
-0.560613
-0.560613
-0.560614
-0.560614
-0.560614
-0.580594
-0.580558
-0.580524
-0.580491
-0.58046
-0.580429
-0.5804
-0.580373
-0.580348
-0.580326
-0.580306
-0.58029
-0.580275
-0.580262
-0.58025
-0.58024
-0.58023
-0.580222
-0.580214
-0.580207
-0.580201
-0.580196
-0.580193
-0.580191
-0.58019
-0.580191
-0.580193
-0.580194
-0.580194
-0.580194
-0.580194
-0.580194
-0.580194
-0.580195
-0.580195
-0.580196
-0.580195
-0.580194
-0.580195
-0.580195
-0.600156
-0.600118
-0.600083
-0.600049
-0.600017
-0.599985
-0.599956
-0.599929
-0.599904
-0.599883
-0.599863
-0.599846
-0.59983
-0.599817
-0.599806
-0.599797
-0.59979
-0.599783
-0.599777
-0.599772
-0.599768
-0.599765
-0.599763
-0.599763
-0.599763
-0.599764
-0.599766
-0.599768
-0.59977
-0.599771
-0.599771
-0.599772
-0.599774
-0.599775
-0.599776
-0.599777
-0.599778
-0.599777
-0.599777
-0.599777
-0.619711
-0.619672
-0.619635
-0.6196
-0.619566
-0.619534
-0.619505
-0.619478
-0.619454
-0.619433
-0.619414
-0.619397
-0.619382
-0.619369
-0.619359
-0.619351
-0.619346
-0.619341
-0.619337
-0.619334
-0.619332
-0.619332
-0.619332
-0.619334
-0.619335
-0.619337
-0.619339
-0.619341
-0.619344
-0.619347
-0.619349
-0.619352
-0.619355
-0.619356
-0.619358
-0.619358
-0.619359
-0.61936
-0.61936
-0.619359
-0.639257
-0.639216
-0.639177
-0.63914
-0.639105
-0.639073
-0.639044
-0.639018
-0.638995
-0.638974
-0.638956
-0.63894
-0.638927
-0.638917
-0.638908
-0.638902
-0.638897
-0.638893
-0.638892
-0.638891
-0.638892
-0.638894
-0.638897
-0.6389
-0.638904
-0.638908
-0.638912
-0.638915
-0.638918
-0.638922
-0.638926
-0.638931
-0.638935
-0.638938
-0.638942
-0.638942
-0.638943
-0.638944
-0.638944
-0.638943
-0.658793
-0.658749
-0.658708
-0.65867
-0.658635
-0.658603
-0.658575
-0.658549
-0.658527
-0.658507
-0.658489
-0.658475
-0.658464
-0.658455
-0.658449
-0.658444
-0.658441
-0.65844
-0.658441
-0.658444
-0.658448
-0.658454
-0.658459
-0.658465
-0.65847
-0.658475
-0.658482
-0.658488
-0.658493
-0.658498
-0.658505
-0.658511
-0.658516
-0.658521
-0.658526
-0.65853
-0.658531
-0.658532
-0.658531
-0.658531
-0.67832
-0.678273
-0.67823
-0.678191
-0.678155
-0.678123
-0.678096
-0.678071
-0.678049
-0.67803
-0.678014
-0.678001
-0.677991
-0.677984
-0.67798
-0.677978
-0.677978
-0.67798
-0.677985
-0.677992
-0.677999
-0.678008
-0.678017
-0.678026
-0.678034
-0.678042
-0.67805
-0.678058
-0.678067
-0.678076
-0.678085
-0.678094
-0.678101
-0.678108
-0.678112
-0.678118
-0.678121
-0.678123
-0.678123
-0.678123
-0.697836
-0.697788
-0.697743
-0.697702
-0.697666
-0.697634
-0.697606
-0.697582
-0.697561
-0.697543
-0.697529
-0.697518
-0.697511
-0.697506
-0.697505
-0.697506
-0.69751
-0.697516
-0.697525
-0.697535
-0.697547
-0.697558
-0.697571
-0.697584
-0.697597
-0.697609
-0.69762
-0.697631
-0.697643
-0.697655
-0.697667
-0.697678
-0.697689
-0.697698
-0.697705
-0.697711
-0.697715
-0.697718
-0.697719
-0.697719
-0.71734
-0.71729
-0.717244
-0.717203
-0.717166
-0.717133
-0.717105
-0.717081
-0.717061
-0.717046
-0.717036
-0.717028
-0.717024
-0.717023
-0.717025
-0.71703
-0.717038
-0.717048
-0.717061
-0.717075
-0.717091
-0.717108
-0.717125
-0.717141
-0.717158
-0.717174
-0.717191
-0.717207
-0.717222
-0.717238
-0.717252
-0.717264
-0.717278
-0.717289
-0.7173
-0.717307
-0.717313
-0.717317
-0.717319
-0.717319
-0.736826
-0.736775
-0.736728
-0.736687
-0.73665
-0.736619
-0.736592
-0.73657
-0.736553
-0.736541
-0.736534
-0.73653
-0.73653
-0.736533
-0.736539
-0.736549
-0.736561
-0.736577
-0.736594
-0.736613
-0.736633
-0.736655
-0.736677
-0.736699
-0.736719
-0.73674
-0.73676
-0.736781
-0.736801
-0.73682
-0.736838
-0.736856
-0.736872
-0.736884
-0.736897
-0.736906
-0.736914
-0.73692
-0.736922
-0.736923
-0.756293
-0.75624
-0.756194
-0.756153
-0.756118
-0.756089
-0.756064
-0.756045
-0.756032
-0.756024
-0.756021
-0.756022
-0.756026
-0.756034
-0.756046
-0.756061
-0.75608
-0.756101
-0.756123
-0.756148
-0.756173
-0.756198
-0.756225
-0.756252
-0.75628
-0.756306
-0.756332
-0.756357
-0.756381
-0.756404
-0.756426
-0.756448
-0.756467
-0.756484
-0.756498
-0.756509
-0.75652
-0.756527
-0.756531
-0.756532
-0.77574
-0.775687
-0.775641
-0.775601
-0.775568
-0.775541
-0.77552
-0.775505
-0.775496
-0.775492
-0.775494
-0.7755
-0.775511
-0.775525
-0.775544
-0.775566
-0.77559
-0.775617
-0.775646
-0.775677
-0.77571
-0.775742
-0.775774
-0.775806
-0.775839
-0.775872
-0.775905
-0.775936
-0.775965
-0.775992
-0.776018
-0.776043
-0.776066
-0.776088
-0.776103
-0.776118
-0.776131
-0.77614
-0.776144
-0.776146
-0.795166
-0.795113
-0.795067
-0.795028
-0.794997
-0.794973
-0.794956
-0.794946
-0.794943
-0.794945
-0.794953
-0.794965
-0.794983
-0.795005
-0.795031
-0.795061
-0.795093
-0.795127
-0.795164
-0.795203
-0.795243
-0.795284
-0.795324
-0.795364
-0.795403
-0.795442
-0.795481
-0.795518
-0.795553
-0.795587
-0.795619
-0.795648
-0.795673
-0.795698
-0.795717
-0.795735
-0.795749
-0.795759
-0.795765
-0.795766
-0.814568
-0.814514
-0.814469
-0.814432
-0.814404
-0.814384
-0.814373
-0.814369
-0.814373
-0.814382
-0.814397
-0.814417
-0.814443
-0.814473
-0.814509
-0.814547
-0.814589
-0.814634
-0.81468
-0.814727
-0.814775
-0.814824
-0.814873
-0.814923
-0.814971
-0.815018
-0.815064
-0.815108
-0.815149
-0.815188
-0.815226
-0.815261
-0.815292
-0.815318
-0.815342
-0.815363
-0.815379
-0.81539
-0.815397
-0.815398
-0.833942
-0.833888
-0.833845
-0.833811
-0.833788
-0.833774
-0.833769
-0.833772
-0.833783
-0.833801
-0.833825
-0.833855
-0.833891
-0.833932
-0.833978
-0.834027
-0.83408
-0.834135
-0.834192
-0.834251
-0.83431
-0.834369
-0.834427
-0.834485
-0.834543
-0.834599
-0.834653
-0.834705
-0.834755
-0.834801
-0.834843
-0.834883
-0.83492
-0.834951
-0.834978
-0.835002
-0.835021
-0.835033
-0.835041
-0.835043
-0.853284
-0.853231
-0.85319
-0.853162
-0.853144
-0.853137
-0.85314
-0.853151