/*--------------------------------*- C++ -*----------------------------------*\
  =========                 |
  \\      /  F ield         | OpenFOAM: The Open Source CFD Toolbox
   \\    /   O peration     | Website:  https://openfoam.org
    \\  /    A nd           | Version:  8
     \\/     M anipulation  |
\*---------------------------------------------------------------------------*/
FoamFile
{
    version     2.0;
    format      ascii;
    class       volScalarField;
    location    "3.9";
    object      p;
}
// * * * * * * * * * * * * * * * * * * * * * * * * * * * * * * * * * * * * * //

dimensions      [1 -1 -2 0 0 0 0];

internalField   nonuniform List<scalar> 
9150
(
-204.733
-205.734
-206.348
-206.827
-207.066
-207.059
-206.819
-206.342
-205.738
-204.736
-224.781
-225.298
-225.715
-226.043
-226.204
-226.217
-226.048
-225.715
-225.301
-224.782
-244.673
-244.96
-245.214
-245.432
-245.539
-245.543
-245.426
-245.209
-244.959
-244.674
-264.412
-264.589
-264.757
-264.914
-265.003
-264.993
-264.911
-264.757
-264.59
-264.413
-284.031
-284.215
-284.349
-284.477
-284.549
-284.541
-284.482
-284.353
-284.217
-284.033
-118.628
-119.541
-119.334
-118.874
-118.718
-118.709
-118.871
-119.315
-119.509
-118.598
-134.217
-134.93
-135.143
-135.203
-135.109
-135.112
-135.202
-135.144
-134.922
-134.207
-150.725
-151.47
-151.783
-152.14
-152.196
-152.195
-152.135
-151.782
-151.467
-150.722
-167.606
-168.725
-169.165
-169.801
-169.969
-169.969
-169.808
-169.166
-168.724
-167.606
-184.543
-186.627
-187.377
-188.091
-188.36
-188.361
-188.103
-187.385
-186.632
-184.55
-25.5062
-26.5933
-28.265
-29.2263
-29.7632
-29.7939
-29.3197
-28.3012
-26.2226
-24.5365
-45.7033
-45.8531
-46.7914
-47.0541
-47.407
-47.3166
-46.8125
-46.4114
-45.4258
-45.1991
-65.5063
-65.4091
-66.3945
-65.9369
-66.4302
-66.3724
-65.9365
-66.2399
-65.1992
-65.2565
-88.3103
-85.5327
-86.5839
-84.9713
-85.198
-85.1359
-84.9287
-86.4292
-85.4262
-88.1477
-114.465
-104.548
-104.195
-102.626
-102.292
-102.248
-102.586
-104.075
-104.45
-114.32
749.694
748.494
747.675
746.756
746.419
746.355
746.475
746.472
746.415
746.529
727.874
727.147
726.593
725.847
725.712
725.505
725.714
725.741
725.775
725.941
703.686
703.934
703.819
703.89
704.304
704.063
704.382
704.671
704.895
705.033
675.805
677.089
678.889
680.756
682.351
683.33
683.736
684.076
684.186
684.101
654.862
654.668
657.831
659.755
661.079
662.092
663.026
663.599
663.748
663.724
639.944
641.137
641.473
638.686
639.985
641.547
642.542
643.046
643.169
643.023
621.62
624.963
625.725
622.852
620.947
621.197
621.589
621.966
622.156
622.649
601.498
600.866
603.741
602.216
600.04
600.483
600.536
600.311
600.075
599.808
581.915
581.49
581.542
581.331
580.948
580.371
579.716
578.723
577.365
575.911
561.738
561.573
561.388
561.103
560.912
560.835
560.674
559.619
557.546
555.597
541.105
540.71
540.54
540.826
540.859
540.9
540.27
538.413
537.324
537.035
519.401
518.223
517.569
517.471
517.225
516.861
515.535
511.464
511.958
512.093
499.265
498.237
496.212
494.673
492.964
490.391
489.445
487.223
487.884
484.609
480.04
477.418
474.071
469.821
466.467
464.807
463.313
462.976
467.709
468.178
442.273
442.734
444.679
445.164
445.359
453.205
456.887
456.252
455.369
454.198
409.975
412.637
416.495
420.407
424.13
428.036
430.883
432.47
431.444
439.263
383.835
385.498
390.562
397.691
403.064
404.173
404.103
404.114
404.245
403.441
364.183
367.619
372.847
379.7
385.221
387.34
384.86
388.701
391.037
392.86
366.363
366.461
369.961
373.583
378.776
379.394
378.359
381.186
382.218
377.778
357.294
354.946
357.055
361.26
364.121
366.054
367.861
364.728
367.806
367.706
348.033
347.15
347.254
348.603
350.299
351.82
363.171
354.003
352.972
351.961
333.09
335.415
337.03
338.487
339.757
340.788
346.484
340.187
339.631
339.047
330.64
330.216
330.659
330.814
330.692
330.221
331.909
330.356
328.967
327.524
323.564
322.67
321.984
321.107
320.339
319.403
319.556
318.917
318.157
316.774
318.018
314.106
311.614
309.566
307.506
305.814
305.008
305.108
304.588
303.358
309.133
302.159
296.595
293.003
290.449
288.574
287.256
287.319
287.359
287.17
295.778
288.083
280.8
272.773
264.625
263.162
260.516
264.944
269.389
272.062
280.021
269.532
260.077
253.055
245.96
263.688
263.17
246.97
255.42
264.585
269.96
256.426
239.508
242.658
247.394
245.16
245.16
244.219
246.821
249.962
253.439
241.924
231.238
232.044
235.724
224.509
234.794
239.445
242.696
243.881
201.985
195.671
199.867
201.666
205.293
209.408
214.571
216
216.171
217.7
135.172
129.599
131.79
137.37
145.12
154.224
165.94
175.022
183.713
189.415
122.131
118.508
113.156
112.14
112.236
113.931
115.502
119.046
132.671
153.524
122.796
120.721
120.175
120.019
120.917
123.528
126.21
127.17
123.22
126.792
117.958
129.384
115.88
120.205
121.839
123.315
124.069
120.201
126.403
134.155
103.52
120.824
116.159
106.517
106.879
106.081
106.903
116.964
122.277
117.286
99.747
98.3088
101.351
100.667
99.1526
101.283
107.213
114.637
117.69
120.426
98.0923
94.8744
96.787
104.887
111.033
115
119.07
120.943
120.26
114.044
84.9576
85.1783
103.574
124.7
134.051
136.028
136.545
132.927
128.725
124.344
30.7672
64.2815
108.704
146.868
163.295
159.988
160.938
153.15
142.574
133.186
-14.8262
10.7981
57.3733
117.947
171.415
177.706
166.047
157.422
146.556
137.053
-22.4051
-13.5995
-1.9272
43.6572
123.039
167.884
141.912
146.804
142.775
135.046
-18.7506
-13.1251
-1.40512
19.8754
68.1252
117.614
122.275
125.261
116.946
105.711
-0.625777
1.92227
4.68887
11.4958
28.8067
42.0405
61.0193
73.009
72.627
71.7116
9.34732
11.7329
13.1457
13.1391
18.7453
21.1924
29.7853
44.4446
47.5934
49.3505
14.2753
20.1544
21.2613
13.905
19.006
28.1744
36.8987
44.3095
47.9844
50.2148
18.0053
17.8832
17.3839
32.1245
29.2051
44.4601
52.481
51.7844
49.235
46.1731
37.5034
42.412
38.3907
86.9728
61.6103
62.5701
58.41
51.5106
45.147
39.8108
47.8823
59.4309
68.2179
108.006
65.6198
56.8655
52.4384
46.0899
39.3746
33.9696
39.782
49.6411
57.302
110.503
61.018
46.2545
42.9244
39.2319
30.4372
24.1977
27.657
41.014
51.8119
81.0672
49.3664
42.3744
31.4317
30.328
8.85202
5.73782
-4.54639
2.27595
26.6208
42.6233
24.511
35.5891
2.4048
-7.10212
-2.85388
-1.70209
-0.0900504
-0.41596
-1.12496
8.93412
5.61736
32.5273
1.49719
-1.91211
-1.16099
-0.850699
-0.403219
-0.319898
-0.436249
2.2621
19.333
29.4695
-0.518778
-0.899023
-1.0039
-0.944542
-0.669819
-0.00579631
0.127317
0.44151
25.833
26.4257
-1.18509
-1.13015
-1.12182
-1.08661
-0.559413
-0.581576
-0.480627
-0.855899
26.3137
24.3759
-1.16319
-1.15497
-1.15336
-1.13913
-0.59439
-0.53333
-0.456265
-0.579569
26.7172
24.7339
-1.14869
-1.14616
-1.15903
-1.15567
-0.75828
-0.702124
-0.614722
-0.676837
26.673
25.2282
-1.17503
-1.17129
-1.18424
-1.18922
-0.894745
-0.871739
-0.820351
-0.864088
27.0785
25.3866
-1.2131
-1.21227
-1.21997
-1.22742
-0.900332
-0.906749
-0.873347
-0.902722
26.7706
25.9096
-1.26692
-1.25906
-1.26182
-1.26303
-0.855637
-0.856939
-0.82458
-0.835247
24.2578
27.8192
-1.31629
-1.30088
-1.30476
-1.3161
-0.795329
-0.786394
-0.731314
-0.624883
12.4798
39.3453
-1.44424
-1.33452
-1.32208
-1.33615
-0.798616
-0.801721
-0.827271
-0.923059
38.5371
12.1561
-1.20134
-1.31016
-1.35327
-1.35082
-0.845994
-0.838931
-0.822151
-0.698733
8.41329
41.068
-1.52899
-1.44008
-1.42063
-1.40439
-0.888497
-0.904092
-0.933994
-1.0431
40.071
9.83825
-1.26789
-1.40455
-1.43292
-1.44464
-0.889608
-0.883178
-0.868725
-0.795448
12.5326
37.6385
-1.59638
-1.5172
-1.49344
-1.50397
-0.890014
-0.86574
-0.857413
-0.85228
20.8025
29.8662
-1.57914
-1.55309
-1.53553
-1.52889
-0.896215
-0.868129
-0.840607
-0.762297
11.5696
39.0396
-1.67084
-1.59184
-1.57154
-1.55379
-0.920637
-0.893679
-0.855595
-0.735074
6.91236
43.8661
-1.73627
-1.61729
-1.57954
-1.56163
-0.96557
-0.971242
-0.9641
-1.01906
32.863
17.8526
-1.51953
-1.55822
-1.55604
-1.55035
-1.02515
-1.01332
-0.963224
-0.947886
21.9016
29.7775
-1.60809
-1.55967
-1.5517
-1.54958
-1.09686
-1.07384
-1.03344
-1.07586
29.8048
22.5086
-1.52593
-1.53362
-1.54224
-1.55102
-1.16896
-1.14253
-1.09374
-1.1058
24.5121
27.7109
-1.57432
-1.55092
-1.55797
-1.56507
-1.23638
-1.21603
-1.16577
-1.1864
26.921
25.011
-1.57443
-1.56701
-1.57419
-1.58185
-1.28742
-1.27378
-1.22593
-1.22623
25.7455
24.8494
-1.58609
-1.58822
-1.59371
-1.59934
-1.31706
-1.31204
-1.26308
-1.22991
24.8777
24.4799
-1.5724
-1.60928
-1.61321
-1.61678
-1.33016
-1.32267
-1.27117
-1.21291
21.7667
25.8494
-1.58681
-1.63524
-1.6341
-1.63788
-1.33664
-1.32424
-1.25501
-1.12531
12.1667
35.6694
-1.70101
-1.68398
-1.66717
-1.65992
-1.36557
-1.36931
-1.32829
-1.31454
28.3118
18.8765
-1.57721
-1.65894
-1.66141
-1.65886
-1.40303
-1.3945
-1.3787
-1.36412
23.3417
24.5338
-1.66614
-1.66691
-1.66325
-1.66169
-1.43112
-1.41332
-1.42259
-1.47907
27.6939
21.1211
-1.67194
-1.65156
-1.65615
-1.66002
-1.45833
-1.43904
-1.44414
-1.5651
28.0009
20.3122
-1.72348
-1.6433
-1.6549
-1.6602
-1.48464
-1.45926
-1.45323
-1.59251
24.5245
23.5101
-1.80326
-1.66011
-1.66529
-1.67121
-1.51889
-1.49272
-1.48669
-1.55492
22.7928
22.7608
-1.73496
-1.6744
-1.67831
-1.68587
-1.5638
-1.54789
-1.54829
-1.4381
20.5468
21.3352
-1.56514
-1.68523
-1.68631
-1.70403
-1.60322
-1.6003
-1.60611
-1.45548
20.2366
17.4465
-1.53826
-1.69088
-1.70469
-1.71854
-1.6322
-1.63639
-1.64619
-1.59137
21.2725
12.8244
-1.61442
-1.69754
-1.72105
-1.73364
-1.65428
-1.65547
-1.656
-1.63948
12.9646
17.9735
-1.73096
-1.73524
-1.74895
-1.75837
-1.67757
-1.67866
-1.67231
-1.71206
13.4531
15.7145
-1.80204
-1.76469
-1.76297
-1.779
-1.70407
-1.69413
-1.70122
-1.86585
16.5975
9.18271
-1.93381
-1.78867
-1.78592
-1.79679
-1.73465
-1.7316
-1.73882
-2.0112
12.1441
9.30234
-2.08234
-1.80888
-1.80807
-1.81045
-1.7674
-1.76797
-1.77178
-2.23617
8.91401
6.4848
-2.20299
-1.81506
-1.82616
-1.82459
-1.7928
-1.79236
-1.78814
-2.00216
4.0246
5.86318
-2.21954
-1.84684
-1.84107
-1.84344
-1.81306
-1.81478
-1.88755
-2.25205
3.3347
3.49567
-1.37871
-1.92201
-1.86016
-1.86047
-1.82966
-1.83018
-1.89717
-1.38398
1.78829
0.59771
-1.85207
-2.07216
-1.87652
-1.87822
-1.85463
-1.85698
-2.45334
-1.16631
0.170855
-0.50185
-1.44753
-2.14875
-1.88896
-1.88845
-1.8745
-1.86986
-3.66198
-2.32037
-0.864495
-0.545595
-1.10075
-3.11891
-1.9013
-1.91005
-1.8967
-2.54405
-3.6101
-2.17271
-1.87729
-1.95355
-3.28956
-5.11118
-2.22281
-1.92288
-1.92135
-4.28736
-5.75789
-5.73259
-5.61042
-5.75699
-5.65854
-5.36467
-3.79391
-1.93691
-2.78978
-9.8814
-13.2472
-15.0248
-15.6036
-15.3744
-14.3825
-12.4024
-9.2118
-2.68178
746.445
746.271
746.052
745.718
745.401
745.543
745.802
755.759
756.346
758.2
763.397
764.673
767.745
769.339
770.584
771.437
772.301
773.083
773.755
774.386
775.395
776.292
778.086
779.88
780.882
781.116
780.43
779.099
778.172
776.618
774.223
772.66
772.151
772.814
774.708
776.836
779.76
780.605
781.828
784.473
725.939
725.862
725.842
725.838
726.101
727.01
729.499
735.02
738.448
740.393
743.399
745.642
747.398
748.658
750.996
751.779
751.703
752.653
752.138
752.701
754.253
756.855
759.346
761.352
762.228
762.09
762.485
761.111
760.359
757.601
755.169
753.481
750.917
750.843
752.183
755.822
759.093
761.673
763.424
767.175
705.118
705.345
705.401
705.425
705.721
706.52
710
715.747
719.677
721.809
723.654
725.098
726.519
728.132
729.66
731.225
731.862
735.073
738.167
739.877
742.485
745.993
746.269
744.878
746.37
745.135
749.271
748.797
746.296
743.706
741.226
737.704
735.123
734.22
734.412
736.6
740.144
743.019
744.66
749.029
684.143
684.61
684.544
684.145
686.983
690.495
691.476
690.039
696.92
698.859
700.735
702.716
705.219
707.23
709.117
711.645
714.129
718.849
721.788
723.928
725.446
725.726
727.427
727.565
727.053
727.902
726.264
724.588
722.885
721.662
720.444
716.775
717.502
712.778
713.772
713.942
715.382
717.924
721.518
727.938
663.662
663.949
665.088
669.304
670.151
669.826
670.246
670.097
671.519
672.798
676.646
680.024
682.974
685.527
687.991
690.897
694.033
697.093
706.567
701.849
704.962
706.225
707.235
707.928
707.945
706.797
704.856
702.586
700.204
698.16
694.762
690.521
685.337
680.926
681.228
683.056
687.765
694.702
698.188
701.149
643.164
643.972
646.069
649.367
651.505
651.364
650.165
649.521
650.972
652.82
654.548
657.491
661.367
664.85
667.591
670.557
673.806
675.842
678.53
681.039
683.415
685.469
687.046
687.551
686.873
685.138
683.1
680.737
677.456
673.178
668.165
665.958
666.078
665.082
665.415
667.747
671.213
679.187
685.097
688.885
623.247
624.035
626.107
628.933
629.113
628.065
628.935
629.886
631.455
633.379
635.711
637.971
642.213
646.028
649.463
652.287
655.1
657.005
658.611
660.941
662.788
663.532
663.536
664.371
664.552
663.658
661.589
659.039
655.706
651.752
650.242
651.587
654.183
657.527
662.364
667.679
672.114
674.807
678.44
683.259
599.617
600.34
603.125
606.488
605.331
607.324
609.865
611.584
613.088
614.768
617.196
619.509
624.91
629.888
633.33
635.098
636.786
638.173
639
639.899
640.7
640.598
640.264
640.335
640.586
640.39
639.461
638.228
636.186
634.337
635.863
639.526
644.309
649.545
654.864
659.946
665.317
668.33
669.759
670.404
575.296
577.084
582.01
584.488
587.202
589.834
592.557
594.856
596.439
597.852
599.376
602.476
606.887
611.389
615.357
617.374
617.378
619.451
618.675
618.83
618.812
617.655
616.028
615.614
616.374
616.525
616.646
616.917
617.089
620.279
622.753
626.754
632.381
638.071
644.877
655.064
657.574
657.987
661.764
661.55
559.412
561.132
563.876
567.595
569.566
572.67
575.244
578.05
580.018
581.531
582.016
584.731
588.23
591.949
595.032
599.426
597.545
598.761
599.768
600.186
598.472
594.99
591.122
590.59
591.2
592.127
593.474
594.902
597.184
603.01
606.378
609.662
614.341
621.7
628.871
637.428
641.909
646.935
649.498
653.741
537.776
545.005
544.242
551.686
556.605
558.535
557.59
561.694
565.75
562.611
562.614
565.611
568.868
572.49
576.45
580.487
585.198
577.221
578.377
578.676
578.384
576.499
577.716
567.348
566.304
568.645
570.109
571.287
573.15
577.41
588.799
586.921
587.723
593.736
602.744
613.514
622.579
633.451
642.966
647.984
509.59
510.904
517.909
521.858
526.802
530.846
533.817
535.42
537.033
539.046
541.73
544.794
548.315
552.172
556.258
560.227
563.352
569.072
557.074
558.118
557.811
555.831
554.148
555.736
549.48
547.257
545.635
545.251
546.408
549.001
552.096
554.1
554.673
556.734
562.241
570.835
584.619
604.756
625.547
636.932
485.503
485.285
486.269
487.107
491.384
497.867
504.984
509.949
513.921
517.185
520.325
523.385
526.751
530.757
535.311
539.586
543.518
549.055
548.854
538.856
540.154
539.533
538.67
540.083
535.426
526.607
522.197
518.594
517.594
519.322
521.384
520.711
517.061
509.668
498.533
490.122
506.283
537.244
570.151
589.129
467.851
467.163
467.594
472.264
476.052
475.302
480.987
487.543
491.4
496.312
500.158
503.795
506.651
509.348
513.122
517.101
520.089
520.125
532.26
528.278
526.452
525.064
523.931
521.484
519.61
513.84
503.287
491.753
487.059
487.954
491.403
489.5
481.233
467.772
459.787
460.471
448.849
457.57
485.77
507.214
452.763
450.701
447.237
447.268
452.06
456.846
462.192
467.298
470.562
474.971
479.108
483
486.149
489.166
491.559
494.89
498.583
501.26
501.872
511.636
512.272
508.259
508.827
508.163
503.054
496.732
490.472
478.783
469.221
460.772
465.794
464.79
455.938
448.355
443.269
438.707
435.478
437.524
451.104
461.845
432.827
436.331
434
431.715
432.631
435.922
440.417
445.035
450.063
453.826
457.511
460.402
464.057
467.94
471.444
474.156
478.635
483.724
487.686
495.386
500.778
497.041
493.458
491.227
489.305
486.392
478.918
468.535
455.186
451.475
455.402
457.373
453.763
450.824
442.682
438.735
437.232
435.447
443.436
454.787
401.163
400.987
404.526
405.973
407.633
410.415
416.228
422.838
428.782
433.278
435.869
438.077
441.025
443.806
447.64
451.594
457.266
462.855
470.776
479.697
481.515
485.171
486.823
482.944
476.651
476.331
473.096
467.036
458.737
454.456
452.823
454.12
452.45
449.717
446.751
444.839
445.178
445.987
455.016
463.591
393.003
393.424
395.211
396.334
397.126
395.661
399.873
404.24
407.622
410.155
410.879
411.012
413.91
417.116
420.984
426.523
433.029
440.874
449.853
460.264
468.155
471.098
469.947
472.119
471.7
464.919
465.199
456.528
455.135
453.676
451.473
450.798
450.89
450.474
450.399
450.483
451.952
458.05
469.355
477.254
380.282
384.222
386.718
388.82
389.811
383.926
384.126
384.724
383.717
382.008
378.018
377.301
382.359
388.072
393.348
400.099
407.089
415.249
426.26
439.434
450.992
460.84
462.418
460.399
464.508
464.924
454.955
451.867
445.033
445.125
450.628
450.158
450.461
450.943
451.458
453.428
459.029
468.155
476.069
484.347
367.014
366.564
365.697
370.085
363.748
366.459
360.881
364.861
358.817
350.722
344.07
341.477
346.447
360.715
372.421
381.245
390.23
399.275
406.761
419.155
436.471
445.824
449.122
453.164
454.892
452.829
446.404
440.81
437.649
439.417
447.845
447.374
448.07
448.982
449.827
453.31
462.909
470.931
476.064
482.48
350.633
349.243
347.85
344.665
341.351
338.556
330.528
318.978
330.996
318.377
302.984
300.54
309.518
330.134
347.399
359.9
370.726
380.675
389.868
397.899
419.26
423.109
430.442
430.437
436.723
439.478
431.58
430.771
431.98
432.305
437.878
431.864
446.264
447.105
441.857
452.201
462.062
470.239
475.108
482.273
337.667
335.664
332.928
329.384
324.776
320.645
314.641
306.851
307.576
304.823
299.609
297.852
295.928
307.08
325.432
334.952
345.962
354.67
360.564
369.626
381.401
387.701
389.483
390.93
393.156
398.273
399.597
400.064
409.25
407.054
416.159
415.487
440.206
435.014
439.199
449.488
459.358
467.674
473.929
481.6
325.831
323.455
320.19
316.434
311.456
306.263
303.291
302.124
303.989
304.134
302.619
301.374
301.259
297.427
311.63
313.176
318.32
321.395
323.055
323.991
326.988
331.526
335.422
338.33
338.269
353.593
347.347
362.948
377.249
388.304
396.381
402.83
427.891
415.221
428.304
440.651
453.136
465.596
476.405
486.41
315.01
312.501
308.804
304.623
299.972
298.461
298.773
299.966
302.058
303.827
303.66
302.742
299.245
293.944
296.739
300.267
297.352
295.261
290.411
282.051
273.258
267.953
265.83
267.663
272.09
279.595
289.192
310.589
332.815
351.625
369.205
383.129
407.057
399.633
414.716
433.822
453.462
472.184
487.049
498.025
302.163
300.655
298.509
295.139
292.009
292.8
293.753
295.208
296.994
298.654
298.214
293.657
293.919
291.525
289.679
286.989
281.206
274.975
267.07
260.41
257.996
259.575
258.075
257.58
257.877
260.103
264.963
269.051
292.739
320.2
338.743
354.764
383.413
387.071
404.406
427.587
450.187
470.945
486.51
497.641
286.923
285.919
285.62
283.079
283.052
285.45
286.158
287.789
288.608
294.171
295.351
294.095
290.513
290.086
282.662
278.84
272.214
262.595
256.237
256.026
254.511
253.302
252.697
252.154
252.473
254.511
257.49
260.65
272.249
295.178
311.334
328.441
345.834
363.492
383.494
405.606
429.739
455.167
476.032
489.501
274.511
276.233
275.148
271.913
274.426
275.927
274.436
278.957
282.21
284.037
285.65
285.203
287.01
283.848
279.087
272.27
263.605
257.517
255.776
254.934
253.977
252.542
251.377
250.785
250.963
252.402
254.171
256.359
269.623
282.211
287.021
297.502
314.913
333.328
352.296
375.856
401.944
425.989
445.826
459.333
269.919
261.409
262.503
267.067
269.497
269.9
266.593
269.063
272.998
276.716
280.292
282.227
285.326
278.663
274.542
265.464
258.01
256.908
256.187
255.224
254.209
253.271
252.227
251.769
251.889
252.394
252.763
251.946
249.611
246.903
245.297
250.239
267.028
288.58
306.289
335.642
356.239
378.701
393.318
407.033
252.431
254.699
257.464
259.954
259.219
259.157
260.867
266.082
271.717
276.244
280.775
283.217
282.36
280.571
271.702
258.877
255.937
257.334
256.432
255.381
254.251
253.237
252.307
251.679
251.279
251.276
250.378
248.191
242.696
240.141
242.359
249.237
254.45
264.588
280.096
292.558
306.291
322.314
335.659
350.396
245.466
247.405
242.998
246.337
252.116
254.177
258.411
264.659
271.813
279.389
286.443
289.621
289.695
284.32
271.329
260.258
261.45
258.017
255.397
254.513
254.143
252.701
251.683
250.823
250.649
250.791
248.776
249.193
242.936
232.961
231.903
233.234
237.219
240.738
243.425
253.568
269.013
280.843
293.304
301.946
216.651
220.855
227.163
232.757
237.542
242.683
250.628
260.327
270.803
281.589
292.622
299.525
300.901
292.179
287.035
281.236
264.385
250.359
245.642
243.592
245.716
246.934
243.47
241.012
237.788
234.106
232.809
232.273
230.779
222.862
217.004
215.591
220.455
224.59
229.193
239.47
252.174
266.575
275.616
280.11
195.143
199.518
202.882
207.537
213.315
224.458
236.352
252.857
268.844
283.975
298.572
306.544
307.47
305.504
310.614
278.947
266.476
253.401
243.515
238.246
232.25
227.578
226.206
224.574
221.866
220.006
218.238
215.543
206.298
204.462
204.087
204.569
211.711
218.901
226.168
238.185
250.617
261.561
271.507
278.689
167.921
181.61
186.137
192.803
199.384
196.698
203.197
219.963
250.375
277.141
291.879
303.112
316.84
307.137
268.347
260.429
250.342
238.833
227.01
221.459
215.89
211.359
207.538
211.957
205.959
204.769
205.443
205.035
204.019
202.351
202.985
205.345
210.228
216.974
222.637
230.901
245.949
258.13
267.223
271.085
137.761
145.566
141.724
149.443
159.439
161.823
165.269
186.186
206.423
239.99
267.454
282.906
305.362
255.563
246.759
237.128
227.308
217.302
211.123
207.059
202.676
199.308
196.276
193.149
193.415
193.242
198.098
199.619
200.14
202.122
204.633
208.456
215.138
222.022
222.669
227.659
234.682
242.274
246.828
248.795
132.434
147.612
148.802
140.436
139.662
145.756
140.738
153.941
168.363
205.569
224.688
251.295
228.816
218.005
208.921
198.88
193.84
190.297
188.553
187.126
185.502
189.801
185.723
184.514
185.826
186.768
188.46
189.938
193.474
199.751
200.692
202.435
207.291
213.396
217.867
221.067
223.191
225.138
225.953
228.931
123.971
121.263
124.875
123.977
119.715
111.605
106.852
113.161
121.789
132.366
155
160.999
159.16
155.183
151.232
147.248
148.978
152.331
156.952
162.691
166.929
169.043
170.805
172.091
173.16
174.028
175.457
177.622
179.341
181.159
184.761
189.359
194.308
198.253
200.898
202.388
203.983
206.446
207.622
210.908
125.417
111.276
113.346
110.649
101.647
92.2174
92.2198
92.9163
96.2021
103.08
107.301
113.93
102.347
95.3227
100.366
108.52
117.528
125.662
133.782
142.183
148.047
150.886
152.312
153.988
155.752
157.318
158.851
160.671
162.976
164.764
167.71
171.747
175.964
179.95
186.202
188.038
188.353
188.97
192.084
194.978
122.33
108.886
106.166
97.7977
96.1969
94.9763
93.6338
92.7116
93.1159
93.6424
94.6592
96.8785
97.8909
99.6614
100.62
96.7223
100.828
108.349
116.77
126.029
132.361
135.264
136.673
138.096
138.999
139.766
141.038
142.176
143.323
146.135
147.137
148.438
153.538
159.596
163.665
165.615
170.18
172.281
173.961
175.94
122.02
110.765
94.3161
99.6746
99.4244
97.8544
96.6618
96.6872
97.2454
97.0074
95.614
94.6411
95.7913
98.0209
99.1787
99.3992
93.5759
98.3072
105.233
112.56
116.988
118.9
120.354
121.48
122.797
126.669
128.894
129.414
129.343
129.51
129.279
129.357
131.674
138.05
144.617
144.077
147.493
149.79
151.059
151.466
122.428
114.802
102.17
99.0221
101.628
100.619
100.302
100.587
101.544
101.188
99.3948
97.3983
97.092
97.8296
98.5695
99.1264
91.3148
91.1775
95.3487
99.4864
102.543
103.929
104.09
104.046
105.081
107.363
112.247
112.811
113.046
113.105
112.827
112.799
111.783
114.197
116.895
119.622
121.89
124.792
126.124
126.464
127.609
116.89
120.416
93.3967
106.1
97.6209
106.518
101.628
103.967
103.584
102.105
100.088
98.6254
97.7838
95.7703
90.9952
83.7371
82.5859
83.5436
84.8425
85.7597
85.9061
85.6028
85.58
85.9947
86.9204
88.4884
90.3313
90.4009
92.6942
91.5729
88.8448
89.3555
91.0514
93.196
94.1201
95.2905
96.8572
98.2128
99.0571
126.586
114.532
114.745
91.6018
101.314
91.2797
98.5745
98.9424
92.9314
94.7276
95.2283
91.8884
88.6448
84.2087
79.6106
74.9576
70.6005
69.0875
68.8699
68.903
68.8081
68.0441
66.959
66.3387
66.1534
66.3283
66.8175
67.1234
66.9577
65.9722
65.135
64.3441
64.3259
64.6734
65.2825
67.0314
68.6696
70.7131
72.5328
74.1983
93.9843
90.4136
89.6667
84.7899
84.2613
88.8199
81.3275
83.4921
83.4823
81.2224
81.2186
77.6199
72.9123
68.6685
63.9389
59.4652
55.4361
53.1625
51.8291
50.4702
48.8717
47.2233
46.4906
47.1593
48.2286
48.2256
47.4687
46.5716
44.6178
41.0576
35.4556
36.5138
41.2866
42.0874
42.2992
43.7948
44.672
47.4264
48.823
50.1197
67.3206
64.2145
67.8883
64.326
64.6727
57.3338
51.059
52.6156
61.1872
63.0294
62.856
58.76
55.131
50.3986
45.5514
41.5041
38.2066
36.0245
34.2171
30.9612
26.3105
20.1256
19.7725
26.3814
31.7447
32.0398
27.4413
24.4245
21.336
17.7653
13.2641
17.0371
13.4376
16.569
18.2417
19.0392
21.1338
21.8967
23.6081
27.6435
48.9619
47.4248
48.5428
50.185
45.2469
47.7898
41.9855
41.613
41.0665
46.8149
46.0357
42.8078
38.1661
32.721
26.8893
21.0519
17.1608
17.567
18.7208
15.4368
8.70839
-1.54463
-0.209112
4.27417
9.20106
9.98937
4.21136
2.2966
0.996583
0.398497
1.96701
4.50085
1.08587
0.00364905
0.725274
2.72983
2.94648
2.95495
7.29006
16.865
47.8446
45.3619
42.8096
40.7464
33.4956
31.5848
34.0144
28.2743
30.5668
31.39
32.4793
27.6336
21.8028
13.9949
5.71337
-2.33656
-4.393
4.07271
13.662
8.31527
1.14808
-0.501127
-0.350304
-0.238353
-0.371895
-0.648948
-0.714986
-0.77213
-0.687582
-0.665881
-0.653758
-0.63457
-0.601124
-0.572284
-0.553332
-0.533619
-0.476514
-0.518749
-0.620866
0.28163
39.5007
32.782
27.8061
24.5107
20.1792
17.1194
22.418
18.0617
20.3312
20.6437
22.8988
13.1344
8.89431
4.31586
0.0673506
-0.645973
-0.43863
-0.567988
-0.661988
0.058664
-0.795483
-0.811919
-0.808902
-0.805727
-0.81478
-0.818054
-0.807179
-0.809764
-0.79301
-0.771701
-0.75154
-0.730685
-0.683889
-0.639074
-0.612861
-0.596611
-0.590035
-0.604946
-0.611934
-0.610729
33.0239
25.6894
17.2505
10.2524
6.26297
4.02787
6.60106
7.92552
8.11051
3.02465
-0.620645
-0.342918
-0.300877
-0.635665
-0.771143
-0.763271
-0.756853
-0.78468
-0.789534
-0.77156
-0.782179
-0.828214
-0.844766
-0.843133
-0.842494
-0.830816
-0.84247
-0.861861
-0.87175
-0.852485
-0.833548
-0.786275
-0.736493
-0.708909
-0.686545
-0.673924
-0.671711
-0.645179
-0.641588
-0.631515
28.7688
23.0927
16.1801
5.87947
-0.708698
-0.641581
-0.364395
-0.645077
-0.934016
-0.909854
-0.892424
-0.884485
-0.881387
-0.875248
-0.862768
-0.829693
-0.791434
-0.785192
-0.789955
-0.795894
-0.79716
-0.818588
-0.843494
-0.854612
-0.86021
-0.865824
-0.870917
-0.879256
-0.883711
-0.87935
-0.87021
-0.849378
-0.806403
-0.770893
-0.742508
-0.72122
-0.703612
-0.685399
-0.682836
-0.674719
20.9835
17.5957
12.5555
1.96106
-0.254868
-0.510447
-0.643043
-0.825911
-0.895721
-0.875848
-0.881142
-0.871673
-0.89609
-0.892895
-0.908128
-0.895302
-0.86188
-0.828066
-0.837484
-0.8413
-0.834877
-0.847622
-0.854207
-0.870805
-0.881167
-0.887071
-0.888287
-0.886014
-0.882014
-0.880262
-0.876641
-0.864645
-0.844429
-0.821869
-0.788416
-0.757471
-0.733148
-0.716907
-0.718699
-0.702259
6.95671
0.370278
-0.224791
-0.800756
-0.757058
-0.786822
-0.805925
-0.840496
-0.873558
-0.895476
-0.91538
-0.928061
-0.932321
-0.931301
-0.948149
-0.953295
-0.937878
-0.915204
-0.89745
-0.890567
-0.895196
-0.871406
-0.86514
-0.864911
-0.871826
-0.876541
-0.888474
-0.883951
-0.881431
-0.880203
-0.874466
-0.861598
-0.844072
-0.825837
-0.801509
-0.776186
-0.758778
-0.748695
-0.752993
-0.743518
-0.962857
-0.943415
-0.923417
-0.906989
-0.906952
-0.841413
-0.884878
-0.889484
-0.896806
-0.907048
-0.916845
-0.928261
-0.941205
-0.95164
-0.956695
-0.957922
-0.955511
-0.951248
-0.946042
-0.945383
-0.951032
-0.95327
-0.94752
-0.941106
-0.941261
-0.91241
-0.900125
-0.878949
-0.860348
-0.865276
-0.864217
-0.849427
-0.832741
-0.816541
-0.806091
-0.794398
-0.79544
-0.787479
-0.784927
-0.783927
-0.934604
-0.923672
-0.931994
-0.917615
-0.906622
-0.912575
-0.917365
-0.920742
-0.927289
-0.934159
-0.940396
-0.949825
-0.962321
-0.973733
-0.981425
-0.986201
-0.988851
-0.989675
-0.991941
-0.995993
-0.996704
-0.993881
-0.99048
-0.984715
-0.976939
-0.965865
-0.95974
-0.891087
-0.874829
-0.896543
-0.87932
-0.864123
-0.849679
-0.837988
-0.816702
-0.831322
-0.828236
-0.823327
-0.825362
-0.822184
-0.89109
-0.883173
-0.900062
-0.898854
-0.951043
-0.957999
-0.965239
-0.969954
-0.971765
-0.974582
-0.979832
-0.99099
-1.00354
-1.01418
-1.01943
-1.02147
-1.02485
-1.0267
-1.0319
-1.03918
-1.04399
-1.04391
-1.04087
-1.03183
-1.01541
-0.999306
-0.98582
-0.943335
-0.928411
-0.923777
-0.905661
-0.889389
-0.873288
-0.860584
-0.850835
-0.875852
-0.868177
-0.865022
-0.869942
-0.868435
-1.04215
-1.00863
-1.00661
-0.997153
-1.00257
-1.00825
-1.0087
-1.01295
-1.02077
-1.02844
-1.02514
-1.03796
-1.02377
-1.02764
-1.05992
-1.06663
-1.06508
-1.0661
-1.06746
-1.07027
-1.0581
-1.08732
-1.08561
-1.07697
-1.06113
-1.04297
-1.02354
-0.999705
-0.981803
-0.957417
-0.937756
-0.92008
-0.900252
-0.885463
-0.891049
-0.915729
-0.911898
-0.909546
-0.914438
-0.913377
-1.11334
-1.08701
-1.08778
-1.07927
-1.08224
-1.08338
-1.08401
-1.08729
-1.08914
-1.09363
-1.09984
-1.10638
-1.10989
-1.11373
-1.1206
-1.13842
-1.08913
-1.13899
-1.12122
-1.13054
-1.13847
-1.14545
-1.135
-1.1386
-1.11812
-1.09849
-1.07311
-1.05073
-1.0239
-1.00339
-0.98491
-0.963921
-0.942521
-0.932183
-0.942212
-0.957147
-0.956929
-0.954805
-0.959548
-0.957723
-1.15764
-1.15013
-1.14909
-1.15528
-1.16601
-1.17385
-1.17448
-1.17724
-1.18616
-1.19227
-1.19031
-1.19617
-1.18896
-1.1766
-1.21473
-1.21617
-1.21427
-1.22599
-1.20791
-1.20733
-1.22058
-1.22912
-1.21657
-1.20644
-1.17717
-1.14816
-1.1189
-1.09448
-1.07546
-1.04484
-1.03213
-1.01655
-1.02613
-1.01309
-1.00831
-1.00592
-0.99913
-0.995383
-0.99674
-0.995769
-1.18931
-1.19406
-1.19365
-1.2194
-1.21306
-1.21482
-1.22189
-1.23122
-1.2412
-1.24726
-1.25135
-1.25687
-1.26498
-1.2693
-1.26767
-1.26298
-1.26024
-1.26095
-1.26142
-1.26897
-1.26045
-1.28503
-1.26503
-1.24356
-1.21511
-1.18573
-1.16009
-1.13996
-1.11652
-1.09274
-1.09998
-1.08109
-1.07551
-1.08468
-1.07451
-1.05559
-1.03784
-1.02838
-1.03116
-1.02709
-1.22659
-1.21492
-1.24868
-1.25489
-1.25315
-1.26271
-1.26915
-1.28006
-1.28764
-1.29522
-1.30046
-1.30451
-1.30873
-1.31162
-1.31179
-1.31088
-1.30913
-1.30859
-1.3072
-1.30989
-1.25532
-1.28334
-1.27539
-1.25777
-1.2369
-1.21384
-1.19192
-1.16345
-1.14657
-1.14694
-1.13584
-1.12358
-1.11693
-1.11609
-1.115
-1.11546
-1.07244
-1.05461
-1.06951
-1.06287
-1.24577
-1.24103
-1.30156
-1.29351
-1.29569
-1.29636
-1.30363
-1.32034
-1.32937
-1.33772
-1.34508
-1.35083
-1.35511
-1.35806
-1.36017
-1.36435
-1.34337
-1.36081
-1.34744
-1.33688
-1.32642
-1.29409
-1.31801