/*--------------------------------*- C++ -*----------------------------------*\
  =========                 |
  \\      /  F ield         | OpenFOAM: The Open Source CFD Toolbox
   \\    /   O peration     | Website:  https://openfoam.org
    \\  /    A nd           | Version:  8
     \\/     M anipulation  |
\*---------------------------------------------------------------------------*/
FoamFile
{
    version     2.0;
    format      ascii;
    class       volScalarField;
    location    "7.8";
    object      alpha.water;
}
// * * * * * * * * * * * * * * * * * * * * * * * * * * * * * * * * * * * * * //

dimensions      [0 0 0 0 0 0 0];

internalField   nonuniform List<scalar> 
9150
(
1
1
1
1
1
1
1
1
1
1
1
1
1
1
1
1
1
1
1
1
1
1
1
1
1
1
1
1
1
1
1
1
1
1
1
1
1
1
1
1
1
1
1
1
1
1
1
1
1
1
1
1
1
1
1
1
1
1
1
1
1
1
1
1
1
1
1
1
1
1
1
1
1
1
1
1
1
1
1
1
1
1
1
1
1
1
1
1
1
1
1
1
1
1
1
1
1
1
1
1
1
1
1
1
1
1
1
1
1
1
1
1
1
1
1
1
1
1
1
1
1
1
1
1
1
1
1
1
1
1
1
1
1
1
1
1
1
1
1
1
1
1
1
1
1
1
1
1
1
1
0.998284
0.998285
0.99806
0.994579
0.99069
0.99849
0.99849
0.99849
0.99849
0.99849
0.998285
0.997706
0.989075
0.989073
0.989076
0.993936
0.99849
0.99849
0.998488
0.996758
0.998286
0.998285
0.995249
0.989076
0.991544
0.998484
0.99849
0.997523
0.995396
0.995397
0.998285
0.998286
0.996414
0.998442
0.998518
0.997913
0.995286
0.995286
0.995583
0.998594
0.997006
0.986067
0.998529
0.99853
0.99853
0.996488
0.995286
0.995286
0.99744
0.998584
0.992775
0.983192
0.998093
0.998531
0.99853
0.996862
0.995286
0.995962
0.996958
0.991632
0.983683
0.992915
0.998531
0.998531
0.998531
0.998531
0.998523
0.997526
0.995273
0.969381
0.963243
0.98334
0.992597
0.998531
0.998531
0.998531
0.998531
0.99853
0.997801
0.977805
0.958271
0.967245
0.972929
0.977492
0.982692
0.998531
0.99853
0.99853
0.998529
0.994576
0.958339
0.971766
0.997649
0.986682
0.971557
0.971518
0.987446
0.998529
0.998526
0.996018
0.99298
0.995
0.998636
0.998628
0.977818
0.971505
0.971505
0.994271
0.997589
0.997822
0.998445
0.998508
0.998645
0.998636
0.986288
0.971505
0.973339
0.994901
0.995097
0.998579
0.998555
0.998572
0.998647
0.998592
0.992648
0.973134
0.987128
0.994529
0.995166
0.99865
0.953351
0.998647
0.998649
0.99865
0.997755
0.995268
0.994681
0.995223
0.998643
0.99865
0.889089
0.980416
0.99865
0.998653
0.998653
0.99865
0.998652
0.99857
0.998654
0.998652
0.887839
0.897632
0.993934
0.998653
0.998654
0.998654
0.998654
0.998654
0.998654
0.998642
0.887825
0.887854
0.899547
0.983096
0.998654
0.998655
0.998655
0.998654
0.998655
0.998655
0.887854
0.887843
0.887874
0.904142
0.991695
0.998655
0.998655
0.998655
0.998655
0.998655
0.94461
0.907806
0.914109
0.960643
0.989796
0.995641
0.995045
0.995409
0.99676
0.997157
0.997272
0.994434
0.993876
0.996977
0.995895
0.99365
0.993726
0.993785
0.994268
0.996959
0.997574
0.997494
0.997255
0.997036
0.992179
0.993631
0.995006
0.995389
0.996912
0.996948
0.955477
0.967682
0.970775
0.970101
0.979199
0.996567
0.996903
0.996919
0.996926
0.99693
0.952477
0.952475
0.952475
0.952747
0.968837
0.996884
0.996912
0.996914
0.996535
0.994264
0.952474
0.952475
0.952475
0.961951
0.991929
0.996897
0.996912
0.996912
0.996912
0.994728
0.974357
0.962386
0.977456
0.995756
0.996889
0.99691
0.996912
0.996912
0.931345
0.85864
0.881769
0.88186
0.88266
0.931638
0.993042
0.996889
0.961211
0.867789
0.85864
0.858424
0.910881
0.920993
0.920073
0.840817
0.838825
0.907862
0.937407
0.858701
0.858563
0.858592
0.99698
0.972451
0.860897
0.820513
0.820519
0.820627
0.822397
0.963984
0.979933
0.979988
0.997184
0.882272
0.820513
0.820513
0.820513
0.820503
0.879138
0.908503
0.910931
0.960213
0.998595
0.989119
0.856212
0.820512
0.820503
0.820481
0.820469
0.82045
0.82043
0.820443
0.998623
0.998646
0.998645
0.958836
0.828521
0.8205
0.820461
0.820443
0.820443
0.82043
0.998646
0.998647
0.998647
0.998647
0.998646
0.996844
0.961473
0.934417
0.951012
0.962884
0.994409
0.998647
0.998647
0.998647
0.998647
0.998648
0.998644
0.998644
0.98897
0.979771
0.998647
0.998647
0.998647
0.998647
0.998646
0.998644
0.998644
0.998644
0.998644
0.998642
0.998644
0.998647
0.99859
0.998645
0.998644
0.998644
0.998643
0.998645
0.998642
0.99864
0.985065
0.974765
0.942042
0.926197
0.939428
0.954405
0.981117
0.988182
0.989907
0.983566
0.75997
0.759529
0.759529
0.759053
0.758577
0.758622
0.786216
0.828952
0.849332
0.814329
0.762448
0.797171
0.834115
0.865988
0.832755
0.789681
0.751045
0.726776
0.711209
0.716678
0.996413
0.996413
0.996413
0.996413
0.9964
0.996386
0.972094
0.82928
0.703149
0.763406
0.996413
0.996413
0.996413
0.996412
0.996398
0.996382
0.996332
0.901052
0.696853
0.695979
0.996413
0.996412
0.996412
0.983495
0.993091
0.996332
0.996267
0.944736
0.698636
0.694975
0.991788
0.996393
0.996235
0.978295
0.989752
0.996065
0.996126
0.899456
0.697567
0.695979
0.969704
0.988272
0.995825
0.980046
0.987492
0.992621
0.951389
0.719562
0.704818
0.697552
0.994658
0.994662
0.989955
0.91548
0.907573
0.890874
0.769892
0.77056
0.865016
0.94748
0.994663
0.991403
0.891766
0.844772
0.844772
0.902473
0.99662
0.996604
0.996604
0.988923
0.994089
0.935426
0.858591
0.844772
0.916369
0.99662
0.996636
0.996621
0.9966
0.996591
0.835385
0.806664
0.816534
0.985391
0.996605
0.996636
0.996615
0.9966
0.996591
0.996522
0.996783
0.996783
0.996783
0.996774
0.996719
0.995703
0.989514
0.991418
0.996488
0.994215
0.99677
0.996784
0.996774
0.996719
0.996216
0.978713
0.967884
0.968684
0.992119
0.993901
0.996765
0.99677
0.996724
0.996516
0.98886
0.967884
0.967499
0.965305
0.983274
0.993867
0.996756
0.996736
0.996647
0.996335
0.995792
0.981877
0.966746
0.962107
0.980153
0.993356
0.996731
0.996647
0.995595
0.992273
0.987263
0.979417
0.971907
0.966586
0.932381
0.927858
0.99657
0.995898
0.949548
0.856063
0.806859
0.868381
0.967274
0.964366
0.876716
0.67122
0.965731
0.871383
0.540299
0.250352
0.171461
0.280694
0.672429
0.945089
0.794433
0.647464
0.215572
0.171238
0.171238
0.171242
0.171275
0.171298
0.226174
0.829067
0.830379
0.642823
0.171238
0.171238
0.171238
0.171242
0.171252
0.171372
0.297749
0.875631
0.83952
0.639601
0.224679
0.171238
0.171242
0.171252
0.171304
0.171356
0.57596
0.986836
0.879336
0.63925
0.809095
0.752013
0.222301
0.171262
0.171166
0.175712
0.795507
0.990155
0.854387
0.63925
0.677129
0.699397
0.699088
0.650073
0.342276
0.622742
0.977555
0.990359
0.735324
0.63913
0.174511
0.250134
0.379123
0.534534
0.685331
0.990359
0.99036
0.990359
0.7258
0.6395
0.174482
0.174511
0.191608
0.725406
0.980791
0.990276
0.990359
0.99036
0.888856
0.760619
0.1745
0.174492
0.175301
0.251725
0.866851
0.989885
0.990317
0.989975
0.972482
0.943818
0.39383
0.329919
0.265218
0.572634
0.974772
0.98934
0.989924
0.989865
0.986546
0.833584
0.96417
0.964031
0.941181
0.878536
0.935668
0.985004
0.98934
0.989646
0.989174
0.89548
0.964031
0.964197
0.962937
0.938307
0.932746
0.93292
0.970057
0.989174
0.988749
0.960439
0.848786
0.949414
0.943305
0.951902
0.975478
0.977071
0.980716
0.986682
0.987105
0.889319
0.831685
0.842573
0.887276
0.919943
0.968014
0.976445
0.972987
0.912273
0.798246
0.333487
0.831861
0.853708
0.948609
0.927415
0.844095
0.743175
0.612517
0.285986
0.262305
0.253739
0.973533
0.979958
0.960416
0.825011
0.39495
0.319232
0.316293
0.296331
0.270699
0.342968
0.980973
0.980962
0.599187
0.377579
0.354792
0.340467
0.392769
0.476706
0.746601
0.843691
0.980962
0.969207
0.445645
0.379866
0.584745
0.808934
0.873002
0.859006
0.852566
0.847038
0.980962
0.970684
0.752261
0.821354
0.891715
0.889484
0.885803
0.849568
0.851461
0.843679
0.982036
0.95313
0.848946
0.891715
0.891715
0.891715
0.771052
0.455613
0.630545
0.53067
0.983306
0.668056
0.593601
0.853967
0.891715
0.729411
0.469713
0.404704
0.367806
0.361301
0.846853
0.549284
0.60807
0.915727
0.881477
0.52424
0.478201
0.663273
0.90084
0.382151
0.59267
0.544151
0.849409
0.918856
0.868507
0.53223
0.624323
0.894218
0.957347
0.80445
0.545543
0.539537
0.751659
0.927516
0.924033
0.596643
0.861305
0.957347
0.957464
0.957655
0.578133
0.537474
0.544959
0.926643
0.942414
0.918171
0.881709
0.956866
0.957347
0.957389
0.900284
0.539048
0.527411
0.667582
0.942414
0.934053
0.61729
0.955356
0.956479
0.920262
0.723374
0.527452
0.526993
0.530459
0.942414
0.90737
0.614629
0.921645
0.952382
0.834501
0.935289
0.550146
0.525927
0.527747
0.940155
0.953025
0.614629
0.690753
0.928266
0.813422
0.87919
0.528581
0.525401
0.544155
0.939803
0.963857
0.730467
0.603071
0.712087
0.788465
0.755984
0.525402
0.525402
0.648422
0.961204
0.964001
0.860167
0.601929
0.846674
0.781144
0.956465
0.592224
0.525401
0.677964
0.961933
0.964001
0.779572
0.625366
0.915308
0.853341
0.985139
0.941293
0.806132
0.663536
0.953491
0.964001
0.660008
0.699422
0.915201
0.855854
0.952221
0.954337
0.760528
0.663536
0.953056
0.962394
0.656761
0.606766
0.728026
0.854686
0.952321
0.955425
0.744138
0.66683
0.969086
0.966683
0.692675
0.710536
0.609141
0.649697
0.984767
0.984665
0.912648
0.658918
0.97628
0.974521
0.678755
0.861541
0.60942
0.609144
0.974541
0.922604
0.911053
0.627939
0.98013
0.978055
0.632319
0.861172
0.849491
0.887064
0.414232
0.472414
0.669155
0.624952
0.984309
0.979966
0.62712
0.835108
0.768674
0.771215
0.00381421
0.0373992
0.207792
0.619361
0.994815
0.993836
0.622402
0.370389
0.437701
0.117092
0.000297418
0.000123925
0.000855368
0.652714
0.996066
0.996429
0.653611
0.01436
0.0151226
0.0199076
6.22789e-05
6.596e-05
0.010427
0.833259
0.997212
0.997197
0.833252
0.0128674
1.60167e-05
1.1014e-05
5.91011e-05
5.76135e-05
0.0974362
0.875426
0.998985
0.998871
0.874967
0.0965097
1.19551e-05
1.05511e-05
4.31738e-05
2.72663e-05
0.222995
0.951978
0.999377
0.999498
0.952018
0.225947
1.60177e-05
2.05145e-05
1.20335e-06
2.90418e-06
0.379764
0.983037
0.999751
0.999748
0.986111
0.393642
3.14146e-05
2.32101e-05
8.52073e-07
1.66689e-05
0.636519
0.999789
0.999892
0.999936
0.999794
0.645332
5.56612e-05
3.45724e-05
3.94911e-07
0.0573459
0.860461
0.999898
0.999989
0.999984
0.999938
0.884809
0.0745405
3.8243e-05
1.34919e-07
0.539139
0.997596
0.999985
1
1
0.99998
0.997476
0.543404
4.33467e-06
0.285497
0.960088
1
1
1
1
1
1
0.962254
0.291214
0.99526
0.99469
0.996159
0.998594
0.998594
0.998062
0.99796
0.997999
0.998262
0.998261
0.998164
0.997905
0.998086
0.998109
0.998109
0.997845
0.987455
0.986062
0.996949
0.997689
0.997557
0.996892
0.997548
0.998033
0.998033
0.998033
0.998046
0.998055
0.998055
0.998055
0.998055
0.998055
0.998057
0.99806
0.994369
0.993484
0.993484
0.994179
0.996119
0.996427
0.995265
0.997536
0.998595
0.998595
0.998594
0.998565
0.998578
0.998564
0.994763
0.989774
0.989778
0.989869
0.997341
0.998091
0.998099
0.997981
0.968302
0.938003
0.937755
0.937617
0.937604
0.937689
0.985273
0.99219
0.992689
0.998055
0.998055
0.998055
0.998055
0.998055
0.998055
0.998055
0.998054
0.998022
0.997984
0.995265
0.993537
0.993961
0.993292
0.993292
0.998592
0.998595
0.998595
0.998597
0.998594
0.998595
0.998597
0.99851
0.991127
0.989776
0.989771
0.989778
0.989795
0.989808
0.990242
0.997872
0.997898
0.997891
0.997893
0.99456
0.94909
0.934603
0.934521
0.934512
0.934512
0.938874
0.934556
0.946864
0.982147
0.997204
0.996336
0.97919
0.973372
0.996163
0.997968
0.997956
0.997953
0.997956
0.996325
0.993308
0.998594
0.998595
0.998597
0.998595
0.998595
0.998597
0.998598
0.998597
0.998439
0.998418
0.997261
0.994177
0.991155
0.995646
0.992477
0.992244
0.993944
0.997921
0.997942
0.998032
0.998034
0.998036
0.998039
0.998063
0.983898
0.939593
0.933602
0.933599
0.933633
0.93493
0.936985
0.935045
0.935233
0.967539
0.988605
0.997876
0.997956
0.997056
0.997946
0.997945
0.993218
0.981184
0.998595
0.998595
0.998597
0.998598
0.998598
0.998598
0.998336
0.993155
0.992196
0.990461
0.994914
0.99724
0.9973
0.995603
0.987923
0.977198
0.964708
0.975616
0.988272
0.99076
0.995033
0.998117
0.998214
0.998212
0.994414
0.993397
0.991078
0.961884
0.935045
0.935046
0.952929
0.967387
0.963231
0.976306
0.99744
0.995
0.99794
0.997946
0.964274
0.963548
0.975344
0.998595
0.998595
0.998597
0.998598
0.996918
0.994191
0.989797
0.985223
0.978193
0.992378
0.997358
0.997346
0.9973
0.987201
0.958422
0.956289
0.956075
0.96754
0.963589
0.963604
0.969692
0.995406
0.996253
0.998146
0.998462
0.998462
0.998189
0.996943
0.980768
0.950752
0.950745
0.950745
0.954013
0.995244
0.997176
0.991031
0.99623
0.963531
0.963532
0.963537
0.967912
0.988944
0.998595
0.992179
0.971719
0.966951
0.967142
0.967588
0.978224
0.996307
0.997496
0.997393
0.997346
0.997287
0.992863
0.960922
0.953724
0.955636
0.971561
0.963586
0.963392
0.96334
0.96335
0.982353
0.99846
0.998463
0.998463
0.998464
0.998463
0.9675
0.950748
0.950745
0.973215
0.998446
0.998398
0.987622
0.966946
0.963532
0.963531
0.963532
0.963537
0.96359
0.964024
0.964057
0.96412
0.964512
0.977888
0.990928
0.998463
0.998289
0.9977
0.99742
0.997238
0.997213
0.996153
0.984513
0.95274
0.983203
0.987073
0.98722
0.985868
0.96335
0.963339
0.97516
0.998324
0.998463
0.998464
0.998464
0.998464
0.998042
0.974824
0.986314
0.998463
0.998463
0.994516
0.961073
0.959981
0.981652
0.968394
0.96416
0.966607
0.971601
0.982066
0.974852
0.97995
0.996968
0.998654
0.998628
0.998584
0.997453
0.995113
0.980227
0.946009
0.911164
0.904373
0.932501
0.952798
0.973804
0.987217
0.98722
0.983299
0.981499
0.986968
0.997424
0.998463
0.998463
0.998464
0.998464
0.998464
0.998463
0.998463
0.998463
0.998463
0.998463
0.974895
0.956989
0.971677
0.993193
0.995073
0.995982
0.996647
0.997965
0.998657
0.998657
0.998657
0.998657
0.998656
0.997215
0.995279
0.968101
0.85608
0.7685
0.715809
0.715596
0.71598
0.716795
0.787574
0.951597
0.949372
0.969442
0.98112
0.993339
0.995936
0.998361
0.998444
0.998265
0.998268
0.998221
0.998463
0.998463
0.998463
0.998463
0.998463
0.998463
0.965047
0.956977
0.97774
0.996596
0.996831
0.998657
0.998657
0.998657
0.998657
0.998657
0.998657
0.998656
0.998654
0.993704
0.959224
0.748281
0.712843
0.713065
0.715567
0.920204
0.998004
0.993241
0.980764
0.975411
0.982919
0.997038
0.997952
0.997917
0.992698
0.978387
0.978387
0.978387
0.981294
0.987709
0.995852
0.99592
0.998131
0.998463
0.998463
0.990049
0.956976
0.956975
0.977611
0.998649
0.998417
0.998657
0.998657
0.998657
0.998657
0.998657
0.998657
0.9969
0.996483
0.980039
0.763614
0.712021
0.712139
0.712978
0.899867
0.998016
0.998015
0.998011
0.996088
0.992109
0.995787
0.997966
0.997959
0.997954
0.997945
0.98869
0.978387
0.978402
0.98042
0.987154
0.984226
0.983219
0.997605
0.998461
0.986225
0.956976
0.956975
0.956976
0.984337
0.99865
0.998648
0.998614
0.998616
0.998657
0.998657
0.998657
0.998596
0.993073
0.982389
0.847545
0.712021
0.712021
0.712021
0.712327
0.867987
0.998016
0.998016
0.998015
0.99793
0.997961
0.997971
0.997979
0.997966
0.997959
0.997956
0.997944
0.997878
0.988287
0.958937
0.989458
0.998332
0.998335
0.998343
0.998342
0.996696
0.976839
0.960147
0.979719
0.995568
0.99865
0.99865
0.998614
0.998653
0.998657
0.998657
0.998656
0.99784
0.991073
0.848954
0.712727
0.712403
0.712021
0.842782
0.959513
0.988806
0.998016
0.998016
0.998015
0.997997
0.997967
0.998005
0.997994
0.997979
0.997932
0.9979
0.997839
0.997505
0.996833
0.9362
0.828424
0.97726
0.998333
0.998337
0.998338
0.997421
0.997537
0.995961
0.995398
0.995552
0.998609
0.998609
0.998617
0.998657
0.998657
0.998657
0.998655
0.9986
0.951747
0.773808
0.729069
0.975356
0.971842
0.994345
0.997975
0.998015
0.998016
0.998015
0.998015
0.998015
0.998014
0.998011
0.998005
0.997988
0.997945
0.993559
0.984588
0.990669
0.993905
0.926927
0.800971
0.801744
0.998308
0.998325
0.99832
0.997568
0.997537
0.979227
0.870376
0.821292
0.998607
0.998608
0.998657
0.998657
0.998657
0.998657
0.998653
0.998539
0.906048
0.780902
0.971764
0.997596
0.997598
0.997598
0.99776
0.99756
0.972288
0.958516
0.998015
0.998015
0.998012
0.997752
0.996681
0.997933
0.997674
0.986977
0.979143
0.979086
0.991179
0.984238
0.825493
0.736733
0.741975
0.906826
0.947835
0.987161
0.990329
0.97476
0.727478
0.721202
0.998651
0.998654
0.998657
0.998
0.997625
0.998655
0.998653
0.998608
0.94855
0.79877
0.911176
0.997593
0.997596
0.997598
0.997598
0.97578
0.929503
0.929457
0.939653
0.976561
0.988729
0.985289
0.9805
0.969633
0.980084
0.991059
0.979296
0.979039
0.979621
0.981702
0.976321
0.738499
0.676364
0.676364
0.681558
0.822206
0.958095
0.984646
0.850408
0.719889
0.998655
0.998655
0.998655
0.993758
0.992031
0.998653
0.998655
0.998649
0.990971
0.862842
0.831312
0.849997
0.98777
0.997577
0.997593
0.99726
0.98481
0.959493
0.900268
0.879176
0.878211
0.882743
0.913637
0.878343
0.9159
0.99142
0.995096
0.979034
0.979034
0.980659
0.997547
0.998166
0.897007
0.752224
0.685169
0.694462
0.854751
0.985117
0.869668
0.719268
0.998655
0.998654
0.998654
0.994207
0.99169
0.994942
0.998655
0.998656
0.998643
0.977556
0.837445
0.82343
0.825689
0.882044
0.958498
0.996639
0.992822
0.980069
0.951736
0.923908
0.876363
0.876162
0.876162
0.876162
0.898715
0.991004
0.998856
0.989641
0.979034
0.979102
0.992614
0.99824
0.998242
0.998242
0.914887
0.870442
0.953394
0.985421
0.77693
0.719268
0.995593
0.993778
0.993972
0.994755
0.991697
0.992152
0.998656
0.998656
0.998656
0.998647
0.976787
0.867418
0.822617
0.822578
0.82338
0.829536
0.831645
0.834219
0.903193
0.981051
0.963439
0.896641
0.876994
0.920287
0.998636
0.998873
0.998873
0.996315
0.979194
0.979087
0.99089
0.998236
0.998242
0.998242
0.998242
0.998237
0.996139
0.996356
0.83128
0.719268
0.996933
0.989754
0.989091
0.991424
0.995508
0.996383
0.998303
0.998656
0.998656
0.998656
0.998651
0.991576
0.956433
0.922974
0.908796
0.918084
0.926201
0.941706
0.967239
0.997811
0.998872
0.998873
0.998873
0.998873
0.998873
0.998873
0.998873
0.997355
0.980476
0.979128
0.995919
0.998238
0.998242
0.998242
0.998242
0.998226
0.996701
0.996517
0.868196
0.71969
0.996926
0.995001
0.988997
0.988994
0.993087
0.99865
0.998656
0.998656
0.998656
0.998656
0.998656
0.998651
0.998546
0.997717
0.996496
0.994017
0.987798
0.993327
0.998859
0.998872
0.998873
0.998873
0.998873
0.998873
0.998873
0.998873
0.998873
0.997286
0.980723
0.984843
0.997957
0.99824
0.998242
0.998242
0.989836
0.969699
0.986155
0.994801
0.930552
0.819005
0.996919
0.996875
0.990143
0.988994
0.993069
0.998652
0.998656
0.998656
0.998656
0.998656
0.997463
0.976887
0.970253
0.972582
0.969184
0.968764
0.968764
0.986667
0.998845
0.998869
0.998872
0.99887
0.998857
0.998862
0.998873
0.998873
0.998873
0.995567
0.981356
0.986827
0.998184
0.998241
0.998242
0.998242
0.974453
0.936077
0.969762
0.986104
0.984916
0.97121
0.996875
0.996827
0.988531
0.993035
0.998633
0.998656
0.998656
0.998656
0.998656
0.998399
0.971796
0.966955
0.967097
0.976235
0.969085
0.968794
0.987609
0.998794
0.998852
0.998868
0.998876
0.99886
0.998857
0.998857
0.998868
0.998873
0.998873
0.98852
0.981887
0.982087
0.996358
0.998233
0.998241
0.998242
0.993333
0.941537
0.941535
0.964337
0.970531
0.781872
0.858777
0.933034
0.989152
0.991897
0.992104
0.998359
0.998656
0.998656
0.998656
0.979801
0.966962
0.96697
0.974229
0.996653
0.99671
0.99671
0.996574
0.997818
0.998074
0.998222
0.998886
0.998878
0.998867
0.998872
0.998873
0.998873
0.998873
0.987145
0.982054
0.982112
0.990373
0.998152
0.998233
0.998241
0.962718
0.931752
0.963133
0.889502
0.712447
0.685402
0.858382
0.858387
0.858998
0.875958
0.979053
0.998616
0.998654
0.998656
0.998656
0.983349
0.967214
0.977937
0.995886
0.996354
0.995436
0.977776
0.938625
0.930109
0.960826
0.997463
0.998869
0.998874
0.998873
0.998873
0.998873
0.998873
0.998873
0.997521
0.993327
0.987257
0.961828
0.969517
0.997805
0.954121
0.88325
0.914904
0.966121
0.837624
0.68576
0.686012
0.858387
0.858386
0.872968
0.944051
0.987728
0.998626
0.998655
0.998656
0.998656
0.997405
0.993448
0.997951
0.997025
0.981181
0.909276
0.862503
0.862468
0.862478
0.891256
0.993904
0.998833
0.99887
0.998873
0.998873
0.998873
0.998873
0.998864
0.998543
0.974872
0.977654
0.894569
0.854016
0.897244
0.903217
0.870747
0.888474
0.968023
0.934904
0.686012
0.845765
0.978066
0.97587
0.988874
0.997924
0.996249
0.998649
0.998656
0.998656
0.998656
0.998656
0.998635
0.998594
0.947859
0.868461
0.866236
0.863854
0.862503
0.864272
0.953254
0.998864
0.998865
0.998869
0.998872
0.998873
0.998873
0.998873
0.987028
0.961005
0.854305
0.854048
0.854005
0.854048
0.854048
0.85433
0.868643
0.932672
0.969124
0.935052
0.687532
0.987687
0.978317
0.998318
0.998497
0.998577
0.99865
0.998656
0.998656
0.998656
0.998656
0.992304
0.892109
0.873617
0.873617
0.907377
0.964541
0.951605
0.969515
0.998843
0.998844
0.998847
0.998844
0.998857
0.998868
0.998872
0.998873
0.993159
0.871663
0.855789
0.854906
0.854327
0.878641
0.877623
0.87152
0.860288
0.913147
0.972696
0.970536
0.917559
0.910635
0.988414
0.849618
0.990533
0.998486
0.998497
0.998577
0.992208
0.936476
0.911969
0.892395
0.876404
0.874588
0.873811
0.943349
0.998384
0.998788
0.998837
0.998843
0.998844
0.998844
0.998844
0.998844
0.998415
0.995321
0.998744
0.998863
0.891607
0.859886
0.856872
0.899081
0.8985
0.891575
0.634502
0.740124
0.941327
0.972739
0.972849
0.972696
0.911253
0.833097
0.988414
0.820443
0.82062
0.823646
0.845242
0.872075
0.868353
0.852695
0.85271
0.902779
0.997509
0.99748
0.997371
0.995624
0.974374
0.983611
0.998635
0.998837
0.998843
0.998844
0.998844
0.99884
0.982948
0.98544
0.998625
0.988327
0.946543
0.949651
0.965982
0.961392
0.834732
0.375197
0.35482
0.594833
0.972739
0.972849
0.972792
0.972837
0.911177
0.528575
0.957337
0.904026
0.853283
0.909272
0.955194
0.958888
0.965893
0.985787
0.998432
0.998485
0.998487
0.992921
0.985568
0.944773
0.944826
0.944938
0.983076
0.998073
0.998828
0.998842
0.998818
0.993911
0.97313
0.980933
0.997469
0.998024
0.998632
0.998632
0.998618
0.908572
0.385499
0.352093
0.3524
0.372411
0.815941
0.947816
0.938621
0.947707
0.675847
0.528575
0.936537
0.992135
0.998173
0.997905
0.998037
0.998263
0.998381
0.998412
0.998465
0.998487
0.998485
0.970074
0.94682
0.945002
0.944698
0.944737
0.94508
0.967449
0.986698
0.998807
0.988349
0.97313
0.97313
0.974688
0.994093
0.998632
0.998632
0.998632
0.998571
0.859978
0.352093
0.352059
0.352082
0.352372
0.374572
0.43623
0.425703
0.452163
0.361172
0.58935
0.982355
0.99864
0.998637
0.998408
0.997664
0.998011
0.997301
0.995395
0.994023
0.994788
0.99276
0.990225
0.989665
0.982499
0.971407
0.949588
0.945719
0.946163
0.947451
0.978797
0.977761
0.973136
0.97313
0.973132
0.982926
0.998615
0.998632
0.998632
0.998576
0.97766
0.548354
0.352082
0.352059
0.352082
0.352345
0.352659
0.352791
0.355839
0.360047
0.85983
0.994773
0.998637
0.998492
0.995127
0.990041
0.973129
0.955837
0.942911
0.939032
0.944669
0.948017
0.962828
0.984369
0.99637
0.99699
0.997532
0.977812
0.949478
0.947559
0.947788
0.983759
0.983828
0.973136
0.973131
0.980029
0.998447
0.998632
0.996088
0.980354
0.969891
0.941338
0.561765
0.352082
0.35208
0.352181
0.352441
0.352658
0.456051
0.737208
0.994204
0.994855
0.97859
0.97987
0.984976
0.990004
0.953086
0.934117
0.934092
0.934092
0.934092
0.934536
0.935068
0.935185
0.955233
0.988712
0.998506
0.998559
0.997063
0.963822
0.948194
0.984981
0.998585
0.989371
0.973674
0.991972
0.998644
0.998596
0.986328
0.958523
0.957963
0.971543
0.96189
0.795066
0.678223
0.644687
0.661017
0.772136
0.919348
0.993459
0.994856
0.994855
0.79225
0.792988
0.817966
0.930178
0.965044
0.950165
0.934117
0.934092
0.978482
0.97971
0.941431
0.935185
0.935398
0.935641
0.986953
0.99863
0.998642
0.998643
0.992084
0.992969
0.998641
0.998649
0.998649
0.998048
0.99865
0.998648
0.99184
0.969702
0.960359
0.987179
0.990479
0.990571
0.986503
0.974551
0.989312
0.993584
0.994535
0.994554
0.993904
0.990967
0.732181
0.734033
0.73802
0.758961
0.95708
0.969185
0.964009
0.970267
0.981302
0.981457
0.981325
0.978633
0.937323
0.936171
0.975234
0.998593
0.998643
0.998646
0.998646
0.998646
0.998585
0.998649
0.99865
0.99865
0.99865
0.99865
0.989951
0.988249
0.923262
0.886504
0.991032
0.991495
0.992014
0.992897
0.993736
0.994535
0.994554
0.994553
0.985828
0.98119
0.797871
0.780088
0.741885
0.80784
0.964662
0.969941
0.970035
0.970183
0.948305
0.944713
0.967329
0.996828
0.994301
0.986789
0.991576
0.99862
0.998645
0.998646
0.998647
0.998646
0.998646
0.998397
0.998649
0.99865
0.99865
0.997688
0.964763
0.958346
0.822035
0.796626
0.951322
0.991823
0.99213
0.992469
0.993168
0.978868
0.994535
0.992962
0.991296
0.98119
0.703397
0.83624
0.943948
0.96887
0.969332
0.969655
0.969941
0.970003
0.930028
0.952512
0.987436
0.997585
0.997643
0.997636
0.997627
0.99864
0.998646
0.998647
0.998647
0.998647
0.998616
0.998003
0.998029
0.99865
0.99865
0.98952
0.948115
0.929068
0.796396
0.796381
0.804879
0.914981
0.965267
0.933269
0.921688
0.952166
0.944947
0.988002
0.991817
0.991658
0.694975
0.694975
0.916996
0.966249
0.968868
0.968574
0.95846
0.919771
0.921299
0.964045
0.984731
0.994137
0.997585
0.997643
0.997636
0.99534
0.98792
0.994395
0.998647
0.998647
0.998477
0.998003
0.998356
0.998647
0.998649
0.977303
0.947863
0.921897
0.796381
0.796368
0.796381
0.796552
0.79977
0.802197
0.804496
0.856551
0.820891
0.954888
0.99183
0.982608
0.694975
0.759082
0.926738
0.938028
0.903017
0.784486
0.695637
0.715898
0.822678
0.751433
0.755207
0.860093
0.977415
0.997538
0.997631
0.996151
0.973571
0.972258
0.980689
0.998494
0.998641
0.998643
0.998644
0.998645
0.998636
0.975133
0.957233
0.964849
0.796369
0.796369
0.796367
0.796391
0.796562
0.805753
0.804496
0.804438
0.804501
0.867956
0.897741
0.896594
0.787112
0.956236
0.937912
0.72014
0.699349
0.695637
0.694583
0.694926
0.725637
0.671136
0.669754
0.66941
0.760321
0.986715
0.997452
0.983579
0.972258
0.972204
0.972142
0.986269
0.998634
0.998644
0.998644
0.998644
0.994589
0.966717
0.972287
0.996817
0.895699
0.796369
0.796391
0.86661
0.923532
0.957752
0.856776
0.804501
0.819808
0.912235
0.923467
0.898136
0.977091
0.971334
0.882483
0.865768
0.86797
0.851732
0.795191
0.724188
0.671759
0.669803
0.669051
0.66853
0.676301
0.930984
0.997949
0.998293
0.98106
0.972142
0.972133
0.976361
0.998138
0.998634
0.983319
0.981217
0.987369
0.966717
0.992667
0.997964
0.98595
0.952653
0.954705
0.992462
0.993238
0.989759
0.982479
0.979828
0.984143
0.98708
0.99003
0.990142
0.9782
0.99563
0.995645
0.995645
0.995654
0.995645
0.995454
0.921724
0.800564
0.772833
0.707152
0.664817
0.668579
0.863736
0.998574
0.998612
0.986698
0.972133
0.972133
0.978968
0.998489
0.998609
0.955044
0.95364
0.995632
0.993934
0.998008
0.998011
0.997991
0.997958
0.997969
0.997959
0.993824
0.986762
0.984432
0.986987
0.98386
0.982273
0.988486
0.990199
0.996522
0.993942
0.99563
0.995656
0.995645
0.994917
0.903446
0.772498
0.689035
0.662673
0.662576
0.662673
0.79336
0.993047
0.998606
0.998621
0.992849
0.972451
0.972133
0.992561
0.998643
0.998599
0.962004
0.95345
0.995853
0.998008
0.998014
0.998014
0.998013
0.998012
0.998013
0.998013
0.996899
0.994123
0.993654
0.987029
0.98118
0.950649
0.930039
0.981943
0.98892
0.986511
0.986648
0.995603
0.995393
0.989258
0.78935
0.664376
0.663096
0.662576
0.662673
0.873056
0.99806
0.998618
0.998621
0.998625
0.998146
0.989231
0.993708
0.998643
0.998645
0.998643
0.991508
0.953545
0.991681
0.998014
0.998014
0.998014
0.998015
0.998015
0.998015
0.998018
0.998026
0.99803
0.998023
0.998039
0.998039
0.989171
0.928985
0.96684
0.987046
0.986184
0.985404
0.985296
0.988531
0.987932
0.9858
0.862291
0.708557
0.663823
0.670225
0.823763
0.93374
0.941167
0.996571
0.998626
0.998625
0.998614
0.998635
0.998645
0.998644
0.998644
0.998643
0.977411
0.980886
0.989159
0.998014
0.998015
0.998015
0.998015
0.998018
0.998026
0.99803
0.998033
0.998038
0.998039
0.998039
0.998039
0.929559
0.97218
0.993874
0.993841
0.993536
0.981984
0.964749
0.961347
0.981722
0.982803
0.983378
0.984172
0.889507
0.763534
0.763534
0.763534
0.85698
0.998625
0.998626
0.998625
0.998614
0.998578
0.985373
0.985691
0.998634
0.998214
0.964184
0.915688
0.917446
0.948061
0.986816
0.996845
0.974156
0.920574
0.919706
0.97478
0.998033
0.998038
0.998039
0.998039
0.935469
0.977684
0.993841
0.993657
0.992871
0.99193
0.990245
0.9601
0.954078
0.975966
0.984172
0.984244
0.984316
0.966813
0.768857
0.763732
0.76393
0.84948
0.998625
0.998624
0.998608
0.989292
0.951686
0.951724
0.998399
0.97175
0.914412
0.914038
0.914036
0.914067
0.915463
0.918462
0.914787
0.915409
0.916235
0.953895
0.997938
0.998032
0.998037
0.998038
0.921219
0.978287
0.993181
0.992872
0.99145
0.991252
0.990108
0.98603
0.953034
0.952639
0.95712
0.984316
0.984374
0.984431
0.971554
0.781317
0.765426
0.766353
0.767536
0.843718
0.907027
0.914799
0.962595
0.995882
0.998161
0.981625
0.918181
0.914037
0.914038
0.914038
0.914067
0.914139
0.914233
0.94706
0.986106
0.998013
0.998034
0.998035
0.998035
0.997761
0.916925
0.983182
0.884204
0.885659
0.89209
0.956065
0.989148
0.987538
0.985928
0.955647
0.946496
0.965077
0.984431
0.984431
0.984431
0.984415
0.969467
0.936242
0.869476
0.83592
0.870564
0.945503
0.971609
0.996046
0.996994
0.995078
0.988227
0.978394
0.969206
0.963361
0.961752
0.970763
0.987631
0.997755
0.99802
0.998034
0.998035
0.998035
0.998035
0.894591
0.936172
0.995424
0.659733
0.668878
0.819107
0.898019
0.984479
0.985928
0.985451
0.984878
0.949908
0.922204
0.980278
0.984431
0.984415
0.981897
0.955841
0.940437
0.974207
0.98055
0.981497
0.991548
0.990756
0.989187
0.989187
0.992789
0.995232
0.995294
0.995502
0.995827
0.996164
0.996325
0.99632
0.977205
0.83775
0.891462
0.9887
0.985565
0.89233
0.820724
0.974727
0.995678
0.650166
0.760538
0.887225
0.872261
0.834646
0.861946
0.929095
0.983073
0.979728
0.919767
0.914823
0.926598
0.969754
0.985199
0.985307
0.979714
0.967832
0.967828
0.989243
0.995542
0.995561
0.995555
0.992302
0.992704
0.993789
0.986433
0.988451
0.990676
0.975777
0.922207
0.836543
0.815288
0.815237
0.815226
0.830437
0.833625
0.815225
0.819964
0.989078
0.995678
0.696043
0.889057
0.889197
0.875928
0.587024
0.524002
0.615452
0.899228
0.980148
0.93971
0.914656
0.914497
0.925035
0.985307
0.985316
0.985319
0.982456
0.968126
0.969595
0.991149
0.995565
0.995573
0.991019
0.934774
0.928094
0.898254
0.860458
0.818976
0.816855
0.815597
0.815288
0.815237
0.815226
0.815172
0.815112
0.815089
0.815071
0.815447
0.980622
0.99515
0.70733
0.889142
0.888608
0.733324
0.523734
0.523415
0.524002
0.814614
0.98075
0.981907
0.921486
0.914287
0.914102
0.95947
0.985186
0.985316
0.985325
0.985299
0.970618
0.976705
0.995558
0.995577
0.995632
0.99582
0.981758
0.9379
0.935585
0.929297
0.940543
0.915954
0.887532
0.877999
0.820662
0.819269
0.815089
0.815071
0.815073
0.818671
0.977788
0.992345
0.639601
0.836933
0.881951
0.6507
0.523608
0.524002
0.525168
0.751534
0.981907
0.982902
0.978716
0.91484
0.910225
0.940306
0.985125