/*--------------------------------*- C++ -*----------------------------------*\
  =========                 |
  \\      /  F ield         | OpenFOAM: The Open Source CFD Toolbox
   \\    /   O peration     | Website:  https://openfoam.org
    \\  /    A nd           | Version:  8
     \\/     M anipulation  |
\*---------------------------------------------------------------------------*/
FoamFile
{
    version     2.0;
    format      ascii;
    class       volVectorField;
    location    "9.4";
    object      U;
}
// * * * * * * * * * * * * * * * * * * * * * * * * * * * * * * * * * * * * * //

dimensions      [0 1 -1 0 0 0 0];

internalField   nonuniform List<vector> 
9150
(
(0.0049198 -0.0780173 0)
(0.0131264 -0.0973167 0)
(0.0108957 -0.104218 0)
(0.00908328 -0.107407 0)
(0.00313697 -0.109877 0)
(-0.00170523 -0.109913 0)
(-0.00743563 -0.108187 0)
(-0.0107788 -0.104326 0)
(-0.0129402 -0.0976087 0)
(-0.00494231 -0.0782606 0)
(0.00596506 -0.0919801 0)
(0.00864728 -0.100434 0)
(0.00733121 -0.102244 0)
(0.00432778 -0.104689 0)
(0.00112091 -0.105239 0)
(-0.00247096 -0.105143 0)
(-0.00540076 -0.103678 0)
(-0.00715339 -0.102222 0)
(-0.00849743 -0.100511 0)
(-0.00593091 -0.0920778 0)
(0.00176915 -0.0954381 0)
(0.00461911 -0.0989365 0)
(0.00382326 -0.100823 0)
(0.00343048 -0.101612 0)
(0.00157032 -0.102389 0)
(-0.000453708 -0.102637 0)
(-0.00253665 -0.102302 0)
(-0.00370867 -0.100965 0)
(-0.00456806 -0.0989942 0)
(-0.00176574 -0.0954906 0)
(0.00176802 -0.0984195 0)
(0.00251538 -0.100381 0)
(0.00220168 -0.100276 0)
(0.00131042 -0.100864 0)
(0.000303267 -0.100911 0)
(-0.000791516 -0.100798 0)
(-0.00198243 -0.100394 0)
(-0.00221875 -0.100232 0)
(-0.00246696 -0.10041 0)
(-0.00175808 -0.0984417 0)
(0.000191907 -0.099494 0)
(0.000737944 -0.09956 0)
(0.000516155 -0.0999547 0)
(0.000725187 -0.0998496 0)
(0.000279512 -0.100095 0)
(-0.000122531 -0.100084 0)
(-0.000343476 -0.100098 0)
(-0.000437645 -0.100111 0)
(-0.000714668 -0.0995829 0)
(-0.000189372 -0.0994952 0)
(0.0760611 -0.19374 1.92723e-26)
(0.049939 -0.184375 0)
(0.0318308 -0.176359 0)
(0.0173551 -0.17556 0)
(0.00583301 -0.175859 0)
(-0.0030484 -0.175923 0)
(-0.0149035 -0.174942 0)
(-0.0303854 -0.177233 0)
(-0.0489624 -0.185911 0)
(-0.0762871 -0.195694 -2.08893e-26)
(0.0583992 -0.146127 5.09926e-27)
(0.0485505 -0.146257 0)
(0.0282562 -0.156117 0)
(0.0202057 -0.156573 0)
(0.00463865 -0.156039 0)
(-0.00369645 -0.155414 0)
(-0.0197905 -0.156742 0)
(-0.0279421 -0.15668 0)
(-0.0481186 -0.146735 0)
(-0.0584534 -0.146629 -5.43573e-27)
(0.0475417 -0.121366 2.57384e-27)
(0.0422897 -0.131181 0)
(0.0292384 -0.1336 0)
(0.0177987 -0.137087 0)
(0.00577839 -0.140753 0)
(-0.00650353 -0.14062 0)
(-0.017747 -0.137292 0)
(-0.0296018 -0.133688 0)
(-0.0424231 -0.13147 0)
(-0.0477114 -0.121705 -2.71937e-27)
(0.0372805 -0.099371 4.07182e-27)
(0.0392504 -0.11014 0)
(0.0227758 -0.120202 0)
(0.018072 -0.125063 0)
(0.00436678 -0.12543 0)
(-0.00499216 -0.126575 0)
(-0.0181689 -0.125695 0)
(-0.0227217 -0.120713 0)
(-0.0392731 -0.110466 0)
(-0.0374395 -0.0996783 -3.85881e-27)
(0.0248446 -0.0813641 -1.27784e-26)
(0.0279779 -0.10102 -1.51193e-26)
(0.0200251 -0.108039 -3.85822e-27)
(0.0107424 -0.113944 -3.43054e-27)
(0.00480905 -0.115891 -1.28976e-28)
(-0.0040551 -0.115613 -1.37511e-28)
(-0.0110141 -0.113627 -3.26387e-27)
(-0.0201011 -0.108309 -3.70027e-27)
(-0.0280375 -0.101269 -1.50602e-26)
(-0.0249421 -0.0816277 -1.27653e-26)
(0.0309274 -0.128721 0)
(0.0263929 -0.191499 0)
(0.0348459 -0.214694 0)
(0.020464 -0.223248 0)
(0.0177814 -0.226942 0)
(0.00508788 -0.228232 0)
(0.00745602 -0.230686 0)
(-0.00997218 -0.228163 0)
(-0.00241947 -0.219265 0)
(-0.0165552 -0.158258 0)
(0.0184477 -0.153727 0)
(0.00817922 -0.188493 0)
(0.0244118 -0.202138 0)
(0.0130407 -0.209584 0)
(0.0149133 -0.213697 0)
(0.00335834 -0.21617 0)
(0.00596789 -0.217063 0)
(-0.00849583 -0.215713 0)
(0.00238281 -0.209327 0)
(-0.0126669 -0.174858 0)
(0.017209 -0.166086 0)
(-0.000703115 -0.198088 0)
(0.0146828 -0.205123 0)
(0.00448871 -0.208756 0)
(0.00762008 -0.209588 0)
(0.000936959 -0.211037 0)
(0.00754057 -0.211428 0)
(-0.00723791 -0.213271 0)
(0.00523079 -0.207566 0)
(-0.0136427 -0.176534 0)
(0.0179281 -0.190878 0)
(-0.00547337 -0.200109 0)
(0.0125139 -0.20707 0)
(0.00234742 -0.20514 0)
(0.00338884 -0.205821 0)
(0.000381635 -0.2082 0)
(0.00356931 -0.20755 0)
(-0.0073136 -0.213567 0)
(0.00709606 -0.207636 0)
(-0.0162627 -0.196441 0)
(0.0348151 -0.215201 0)
(0.00950559 -0.203685 0)
(0.0176232 -0.202656 0)
(0.0130886 -0.195228 0)
(0.00443977 -0.192311 0)
(-9.49648e-05 -0.193334 0)
(-0.00895803 -0.197408 0)
(-0.0155213 -0.204933 0)
(-0.0084545 -0.204515 0)
(-0.0350584 -0.219666 0)
(-0.00151658 0.00335811 0)
(-0.00583441 0.0031967 0)
(-0.00855064 0.00310236 0)
(-0.0104679 0.00092798 0)
(-0.0100024 -0.0017042 0)
(-0.00826623 -0.00411414 0)
(-0.00557697 -0.00555089 0)
(-0.00169924 -0.00674705 0)
(0.0030964 -0.00454749 0)
(0.00638856 0.000382776 0)
(0.00999816 0.0184608 0)
(0.00327223 0.00931629 0)
(-0.00122417 0.00692617 0)
(-0.00481639 0.00160281 0)
(-0.0046864 -0.00304382 0)
(-0.00407787 -0.00537475 0)
(-0.00471201 -0.00789952 0)
(-0.00533995 -0.0118903 0)
(-0.00477336 -0.0123407 0)
(-0.0017318 -0.00505265 0)
(0.0186682 0.0283263 0)
(0.017998 0.0236167 0)
(0.0154757 0.0190442 0)
(0.0165371 0.00911686 0)
(0.0182405 -0.00315335 0)
(0.0190726 -0.0055413 0)
(0.0193775 -0.003102 0)
(0.0192729 -0.00439676 0)
(0.0167173 -0.0103489 0)
(0.0154221 -0.013401 0)
(0.0259892 0.0263365 0)
(0.0269234 0.0180799 0)
(0.0297084 0.0070997 0)
(0.0363021 -0.000791491 0)
(0.0392124 -0.00715517 0)
(0.0389411 -0.00832604 0)
(0.0388715 -0.00756908 0)
(0.0397378 -0.00574945 0)
(0.0414278 -0.00580877 0)
(0.0420673 -0.0072943 0)
(0.0378292 0.0270021 0)
(0.0405466 0.0162556 0)
(0.0423312 0.000883757 0)
(0.0428701 -0.00665701 0)
(0.043093 -0.00845792 0)
(0.0432495 -0.00721922 0)
(0.0435699 -0.00718312 0)
(0.0449286 -0.00828455 0)
(0.0472101 -0.0117026 0)
(0.0491974 -0.0126322 0)
(0.0415099 0.0213229 0)
(0.0437679 0.0105145 0)
(0.0449657 0.00144859 0)
(0.0441405 -0.00455799 0)
(0.043691 -0.00716748 0)
(0.0428079 -0.00824649 0)
(0.0427611 -0.0105697 0)
(0.0451056 -0.0145179 0)
(0.0481233 -0.0155548 0)
(0.0496322 -0.0154063 0)
(0.0406037 0.0183609 0)
(0.0426577 0.00927645 0)
(0.0433913 0.00158301 0)
(0.0422956 -0.00330061 0)
(0.0415613 -0.00540791 0)
(0.040555 -0.00751115 0)
(0.0400114 -0.0130063 0)
(0.0387135 -0.0174996 0)
(0.0373152 -0.0178253 0)
(0.0349635 -0.0160828 0)
(0.036544 0.0113997 0)
(0.03772 0.00427648 0)
(0.0379552 0.00157818 0)
(0.0401905 -0.000632854 0)
(0.0392333 -0.00257439 0)
(0.0389437 -0.00470428 0)
(0.0389142 -0.00738439 0)
(0.0359542 -0.0109823 0)
(0.0315843 -0.0106238 0)
(0.0295502 -0.00640342 0)
(0.0347601 0.0130981 0)
(0.0342143 0.00469963 0)
(0.0334759 -0.00302318 0)
(0.0326046 -0.00430085 0)
(0.0328327 -0.00460122 0)
(0.0327229 -0.0077405 0)
(0.030645 -0.00756859 0)
(0.0233894 -0.00118024 0)
(0.0148496 -0.00402332 0)
(0.019433 0.00243206 0)
(0.0244668 0.00723234 0)
(0.0242165 0.00668481 0)
(0.0221687 0.00618937 0)
(0.0198814 0.00240497 0)
(0.0164734 -0.00585198 0)
(0.0114073 -0.00122883 0)
(-0.00104559 0.0195641 0)
(-0.00702371 0.0180164 0)
(-0.00202539 -0.0124254 0)
(0.00333211 -0.00938786 0)
(0.00371724 0.0102616 0)
(0.00331638 0.00711722 0)
(0.00317795 0.00538481 0)
(0.00203 0.00629504 0)
(-0.005224 0.0131927 0)
(-0.0119958 0.0262455 0)
(-0.0128056 0.0270797 0)
(-0.00197404 -0.00047893 0)
(-0.00292747 -0.0251635 0)
(-0.0203161 0.00359631 0)
(-0.0170956 0.00969362 0)
(-0.0176332 0.00878332 0)
(-0.0217044 0.0116258 0)
(-0.0265785 0.018092 0)
(-0.0279556 0.0202962 0)
(-0.0274663 0.0186317 0)
(-0.0214217 0.00351285 0)
(-0.0206359 -0.00284434 0)
(-0.0429318 0.0298193 0)
(-0.0612734 0.0497805 0)
(-0.0288394 0.0108087 0)
(-0.0319211 0.0162406 0)
(-0.0372694 0.0191633 0)
(-0.0391259 0.0194334 0)
(-0.0391125 0.0166343 0)
(-0.0372639 0.0135019 0)
(-0.038274 0.0127898 0)
(-0.0499927 0.0308465 0)
(-0.0593625 0.0573175 0)
(-0.0640009 0.0593013 0)
(-0.0347925 0.0162111 0)
(-0.0382635 0.0264882 0)
(-0.0415206 0.0281529 0)
(-0.0457395 0.0234535 0)
(-0.0476924 0.0191677 0)
(-0.0509789 0.0186779 0)
(-0.0561005 0.0251032 0)
(-0.0580822 0.0399207 0)
(-0.05715 0.0625231 0)
(-0.0574602 0.0660571 0)
(-0.0332172 0.0190215 0)
(-0.0366421 0.0314337 0)
(-0.0390519 0.0346718 0)
(-0.0438565 0.030247 0)
(-0.0470602 0.0253591 0)
(-0.0513434 0.0268302 0)
(-0.0564029 0.028886 0)
(-0.0573194 0.0352866 0)
(-0.0553932 0.0600392 0)
(-0.053075 0.0689295 0)
(-0.0281068 0.0257948 0)
(-0.0313385 0.0383473 0)
(-0.0341321 0.0430772 0)
(-0.0402908 0.0386153 0)
(-0.0445201 0.0341061 0)
(-0.0493249 0.0376937 0)
(-0.054485 0.0373824 0)
(-0.0561152 0.0375702 0)
(-0.0552492 0.0514292 0)
(-0.0496446 0.0661064 0)
(-0.022026 0.0297258 0)
(-0.0218734 0.042274 0)
(-0.0223118 0.0521936 0)
(-0.0252002 0.0528986 0)
(-0.0317242 0.0464089 0)
(-0.0372087 0.0446842 0)
(-0.0406619 0.0427962 0)
(-0.0443464 0.040021 0)
(-0.0448765 0.0419013 0)
(-0.0401549 0.0492252 0)
(-0.0164065 0.0286021 0)
(-0.0151284 0.0376763 0)
(-0.0132311 0.048398 0)
(-0.01158 0.0559757 0)
(-0.0130306 0.0570315 0)
(-0.0159259 0.0542007 0)
(-0.0178612 0.0493522 0)
(-0.0204568 0.0467991 0)
(-0.0228096 0.0448738 0)
(-0.0226714 0.0407308 0)
(-0.0163842 0.0299513 0)
(-0.0157571 0.035105 0)
(-0.0131651 0.0444566 0)
(-0.0100304 0.0523681 0)
(-0.00731397 0.0566864 0)
(-0.00616708 0.0562715 0)
(-0.00737361 0.0536727 0)
(-0.00882661 0.0510334 0)
(-0.00977134 0.0491456 0)
(-0.0106025 0.0438124 0)
(-0.0148826 0.0309312 0)
(-0.0139485 0.0315296 0)
(-0.0119469 0.0381659 0)
(-0.0104583 0.0446728 0)
(-0.00923146 0.0501633 0)
(-0.00824518 0.0532665 0)
(-0.00848404 0.053098 0)
(-0.00937016 0.0506709 0)
(-0.00958251 0.048687 0)
(-0.00968106 0.0430723 0)
(-0.00948931 0.0322888 0)
(-0.012998 0.0296431 0)
(-0.0152207 0.035627 0)
(-0.0160134 0.0435516 0)
(-0.0156429 0.0515853 0)
(-0.0164369 0.056868 0)
(-0.0163394 0.0569073 0)
(-0.0171935 0.0534753 0)
(-0.0167367 0.049643 0)
(-0.0160417 0.0426648 0)
(-0.0227683 0.0409698 0)
(-0.0282266 0.0403823 0)
(-0.0315306 0.0447194 0)
(-0.0342268 0.0478191 0)
(-0.0341038 0.0504635 0)
(-0.0331 0.0526601 0)
(-0.0331919 0.055735 0)
(-0.0341238 0.0563221 0)
(-0.0324683 0.0484258 0)
(-0.0268945 0.0335218 0)
(-0.0632962 0.0481739 0)
(-0.0690085 0.0510013 0)
(-0.0740999 0.0554975 0)
(-0.0789686 0.0537908 0)
(-0.0805531 0.0521228 0)
(-0.080412 0.057372 0)
(-0.0788761 0.058127 0)
(-0.0707605 0.04922 0)
(-0.0630163 0.0314955 0)
(-0.0575584 0.0185061 0)
(-0.116432 0.0599545 0)
(-0.118884 0.0613365 0)
(-0.117308 0.0584704 0)
(-0.113073 0.0523149 0)
(-0.113392 0.0496882 0)
(-0.110211 0.0489917 0)
(-0.102744 0.042923 0)
(-0.0913466 0.0257954 0)
(-0.0811238 0.0158785 0)
(-0.0706425 -0.00321684 0)
(-0.120914 0.0671964 0)
(-0.124482 0.0599956 0)
(-0.123534 0.049325 0)
(-0.120312 0.0463539 0)
(-0.115878 0.0441328 0)
(-0.106599 0.0374112 0)
(-0.0915763 0.0198936 0)
(-0.074252 -0.00271952 0)
(-0.0604807 -0.01505 0)
(-0.0484416 -0.0381799 0)
(-0.10883 0.0763944 0)
(-0.110748 0.0662092 0)
(-0.109061 0.0465655 0)
(-0.103763 0.033311 0)
(-0.093369 0.0225761 0)
(-0.0773948 0.00328938 0)
(-0.0579797 -0.0196277 0)
(-0.0432302 -0.0377059 0)
(-0.0294484 -0.0439382 0)
(-0.0203192 -0.0489677 0)
(-0.0847696 0.07169 0)
(-0.0786784 0.0573844 0)
(-0.0701933 0.0371182 0)
(-0.0589303 0.0138792 0)
(-0.0400484 -0.0116315 0)
(-0.0252398 -0.0288472 0)
(-0.00652672 -0.0485627 0)
(0.00346235 -0.0595056 0)
(0.0117643 -0.0628199 0)
(0.0168006 -0.0517867 0)
(-0.0476647 0.0537468 0)
(-0.035037 0.0369779 0)
(-0.0197528 0.0155014 0)
(-0.00767163 -0.0105289 0)
(0.0125521 -0.044827 0)
(0.0197568 -0.0611531 0)
(0.0270755 -0.0683113 0)
(0.0304385 -0.0699402 0)
(0.0316041 -0.0681139 0)
(0.0320598 -0.0611873 0)
(-0.0220848 0.028237 0)
(-0.00666111 0.00139833 0)
(0.00826411 -0.0214771 0)
(0.0211123 -0.0462093 0)
(0.0284303 -0.0611736 0)
(0.0310485 -0.0682714 0)
(0.0331915 -0.0723575 0)
(0.035398 -0.0719488 0)
(0.0375773 -0.0683145 0)
(0.0404051 -0.0586279 0)
(-0.00634292 -0.00422209 0)
(0.00693805 -0.0275723 0)
(0.0163525 -0.0462908 0)
(0.0218715 -0.0586989 0)
(0.0255788 -0.0666391 0)
(0.0267267 -0.0730286 0)
(0.027164 -0.077996 0)
(0.0289476 -0.0799403 0)
(0.0308635 -0.0779966 0)
(0.0350508 -0.0647608 0)
(0.0198579 -0.0220201 0)
(0.0258288 -0.0414557 0)
(0.0293384 -0.0546998 0)
(0.0294611 -0.0623055 0)
(0.026806 -0.0671269 0)
(0.0259329 -0.0726139 0)
(0.0256714 -0.0778423 0)
(0.0253834 -0.0804499 0)
(0.024923 -0.0792693 0)
(0.0246115 -0.0687487 0)
(0.0564872 -0.0253082 0)
(0.05496 -0.0412438 0)
(0.0517429 -0.0490546 0)
(0.0472487 -0.0519484 0)
(0.0430744 -0.0568465 0)
(0.0397891 -0.066069 0)
(0.0357352 -0.0733124 0)
(0.0298983 -0.076435 0)
(0.0233458 -0.07397 0)
(0.0161172 -0.0617061 0)
(0.0739019 -0.0203759 0)
(0.0708725 -0.0346444 0)
(0.067318 -0.0408877 0)
(0.0630583 -0.0453055 0)
(0.060223 -0.0511958 0)
(0.0571718 -0.0572545 0)
(0.0532026 -0.0603162 0)
(0.0482321 -0.0597602 0)
(0.0425686 -0.0550334 0)
(0.0380463 -0.0527572 0)
(0.0759928 -0.0161415 0)
(0.0762629 -0.0275939 0)
(0.0742488 -0.0333993 0)
(0.0696533 -0.0400272 0)
(0.0655298 -0.0464069 0)
(0.0611542 -0.0510299 0)
(0.0584806 -0.0556186 0)
(0.0574273 -0.0562059 0)
(0.0572261 -0.0549507 0)
(0.056712 -0.0504065 0)
(0.0649213 -0.0204915 0)
(0.0691923 -0.0280866 0)
(0.0671894 -0.028438 0)
(0.0612446 -0.0291185 0)
(0.0566063 -0.0343919 0)
(0.0568126 -0.0441625 0)
(0.0576385 -0.0521518 0)
(0.0596145 -0.0547152 0)
(0.0611241 -0.0538197 0)
(0.0635246 -0.0480794 0)
(0.029696 -0.0359741 0)
(0.0324329 -0.0269962 0)
(0.0279449 -0.0173746 0)
(0.028105 -0.0255727 0)
(0.035718 -0.0409324 0)
(0.04452 -0.0518543 0)
(0.0514198 -0.0600108 0)
(0.0585609 -0.0647143 0)
(0.0637517 -0.0632297 0)
(0.0690679 -0.0544845 0)
(-0.00189691 -0.0334177 0)
(0.00446211 -0.019955 0)
(0.0139848 -0.0212422 0)
(0.027655 -0.0500972 0)
(0.0427639 -0.0705584 0)
(0.0534809 -0.0784337 0)
(0.0626718 -0.0792667 0)
(0.0694277 -0.0777793 0)
(0.0726065 -0.0751909 0)
(0.0761789 -0.067905 0)
(0.0138362 -0.0418069 0)
(0.0195142 -0.0635245 0)
(0.037116 -0.0694324 0)
(0.051889 -0.0831436 0)
(0.0611931 -0.0926316 0)
(0.0679415 -0.0950663 0)
(0.0730982 -0.092134 0)
(0.0781272 -0.0831154 0)
(0.0817347 -0.0770405 0)
(0.0818522 -0.0690704 0)
(0.059852 -0.0167068 0)
(0.0598755 -0.0661531 0)
(0.0609186 -0.0804741 0)
(0.0642712 -0.0905702 0)
(0.0684107 -0.0987352 0)
(0.0729829 -0.101054 0)
(0.0762054 -0.0987803 0)
(0.0792778 -0.0917213 0)
(0.0820134 -0.0811039 0)
(0.0824073 -0.0678222 0)
(0.0692037 -0.0410178 0)
(0.0667061 -0.0670488 0)
(0.0647251 -0.0791111 0)
(0.0642625 -0.0920852 0)
(0.0644211 -0.104286 0)
(0.0684373 -0.106623 0)
(0.0697776 -0.103902 0)
(0.0705039 -0.0967291 0)
(0.0707338 -0.0843826 0)
(0.0696971 -0.0635173 0)
(0.0383763 -0.034133 0)
(0.0320469 -0.0588137 0)
(0.0278602 -0.0759582 0)
(0.0272606 -0.0943308 0)
(0.0329629 -0.111326 0)
(0.0392243 -0.114443 0)
(0.0411878 -0.108424 0)
(0.0383147 -0.0985412 0)
(0.0371873 -0.0836972 0)
(0.036126 -0.0623277 0)
(0.00399223 -0.021054 0)
(-0.00262378 -0.0441709 0)
(-0.00664765 -0.0712039 0)
(-0.000813957 -0.113473 0)
(0.00959863 -0.135022 0)
(0.0108369 -0.123957 0)
(0.00227797 -0.0959789 0)
(-0.0127089 -0.0822057 0)
(-0.0162092 -0.0741886 0)
(-0.0149958 -0.0560298 0)
(-0.0285375 -0.0140787 0)
(-0.0263578 -0.0389153 0)
(-0.02882 -0.078885 0)
(-0.0296617 -0.125785 0)
(-0.033118 -0.133626 0)
(-0.0404776 -0.0978236 0)
(-0.0447912 -0.0643173 0)
(-0.0517233 -0.0684687 0)
(-0.0521886 -0.0734706 0)
(-0.0482025 -0.0647783 0)
(-0.0334036 -0.010364 0)
(-0.0310339 -0.0346801 0)
(-0.0386605 -0.0685026 0)
(-0.0513548 -0.110658 0)
(-0.0620974 -0.11858 0)
(-0.0677608 -0.0831317 0)
(-0.0630067 -0.0677075 0)
(-0.0602442 -0.0751654 0)
(-0.0590286 -0.0807092 0)
(-0.0553923 -0.0768941 0)
(-0.0268773 -0.0145349 0)
(-0.0303881 -0.0370794 0)
(-0.0337519 -0.04754 0)
(-0.0446007 -0.088272 0)
(-0.0595658 -0.10506 0)
(-0.0666287 -0.0928934 0)
(-0.0574965 -0.0815355 0)
(-0.051109 -0.0806369 0)
(-0.0504731 -0.0828476 0)
(-0.0501959 -0.0839786 0)
(0.0283826 0.0254992 0)
(0.0317503 -0.0193543 0)
(0.0264384 -0.0384265 0)
(0.0194355 -0.037081 0)
(0.00233432 -0.0629366 0)
(-0.0221221 -0.0921499 0)
(-0.0333197 -0.0957375 0)
(-0.0279439 -0.0860014 0)
(-0.0256804 -0.0802077 0)
(-0.0247265 -0.0778566 0)
(0.0428762 -0.0183297 0)
(0.0498072 -0.0281373 0)
(0.0483485 -0.024425 0)
(0.0434837 -0.0319188 0)
(0.041906 -0.0275943 0)
(0.0311208 -0.0242658 0)
(-0.00752331 -0.074925 0)
(-0.0199282 -0.0868903 0)
(-0.0147023 -0.091967 0)
(-0.0101733 -0.0787071 0)
(0.00879427 -0.0222985 0)
(0.00956488 -0.0318826 0)
(0.0161378 -0.0342952 0)
(0.0273665 -0.0466662 0)
(0.0340066 -0.0384929 0)
(0.033145 0.0108599 0)
(-0.00274945 -0.00340159 0)
(-0.0279598 -0.072043 0)
(-0.0246781 -0.101068 0)
(-0.0260816 -0.0831688 0)
(0.0086608 -0.0206484 0)
(0.00505685 -0.038508 0)
(0.00454643 -0.0554366 0)
(0.0084865 -0.054805 0)
(-0.00871072 -0.0251302 0)
(-0.014509 0.0487726 0)
(-0.025648 0.0374927 0)
(-0.0430394 -0.0572309 0)
(-0.0406171 -0.094846 0)
(-0.065569 -0.0444054 0)
(0.025815 0.00253589 0)
(0.0187071 -0.022769 0)
(0.00943208 -0.0459856 0)
(0.0024751 -0.0358103 0)
(-0.0169769 0.0111985 0)
(-0.0175319 0.0447171 0)
(-0.00445458 0.0478909 0)
(-0.0142965 -0.0233122 0)
(-0.0299306 -0.0664437 0)
(-0.0695095 -1.70552e-05 0)
(0.0227356 0.0107197 0)
(0.0146581 -0.00595707 0)
(0.0036629 -0.0174727 0)
(-0.0169575 -0.000785486 0)
(-0.0244973 0.0219384 0)
(-0.0186187 0.0168362 0)
(-0.00876154 0.0422114 0)
(-0.0154372 0.00729358 0)
(-0.0492468 0.00309026 0)
(-0.0824709 0.0512775 0)
(-0.00840624 0.0276928 0)
(-0.0109924 0.0120424 0)
(-0.0203886 0.014008 0)
(-0.0289612 0.0207302 0)
(-0.0335573 0.0235612 0)
(-0.0414372 0.0051386 0)
(-0.0410194 0.0359288 0)
(-0.0522932 0.0399884 0)
(-0.0874641 0.0636173 0)
(-0.0964236 0.0747131 0)
(-0.0411167 0.0194573 0)
(-0.0376823 0.0154856 0)
(-0.0376863 0.0153278 0)
(-0.0401917 0.0215415 0)
(-0.0475497 0.035083 0)
(-0.0716009 0.0415097 0)
(-0.0940055 0.0816239 0)
(-0.107537 0.0897038 0)
(-0.11346 0.0894238 0)
(-0.114435 0.0821399 0)
(-0.0721683 0.0117623 0)
(-0.0736305 0.0113569 0)
(-0.0800838 0.0238472 0)
(-0.0897422 0.0506916 0)
(-0.111976 0.0828477 0)
(-0.130251 0.0986732 0)
(-0.136481 0.0975642 0)
(-0.138891 0.0901964 0)
(-0.13372 0.077655 0)
(-0.119585 0.0685633 0)
(-0.0854063 0.0265418 0)
(-0.0923991 0.0265795 0)
(-0.108063 0.0523052 0)
(-0.125086 0.0906535 0)
(-0.145351 0.11097 0)
(-0.152555 0.114407 0)
(-0.157166 0.0963073 0)
(-0.153238 0.0689458 0)
(-0.14688 0.0530504 0)
(-0.141879 0.0427524 0)
(-0.0859411 0.0486418 0)
(-0.0983158 0.0489058 0)
(-0.118912 0.0846459 0)
(-0.132118 0.124215 0)
(-0.14034 0.131833 0)
(-0.146336 0.12267 0)
(-0.147859 0.0930517 0)
(-0.146959 0.0645781 0)
(-0.144139 0.0500069 0)
(-0.141635 0.0390067 0)
(-0.0972253 0.065038 0)
(-0.11743 0.0838753 0)
(-0.130921 0.119305 0)
(-0.1312 0.133217 0)
(-0.13084 0.134989 0)
(-0.125828 0.123633 0)
(-0.122656 0.0986355 0)
(-0.123127 0.0696466 0)
(-0.119016 0.0486465 0)
(-0.112867 0.0320905 0)
(-0.132714 0.092912 0)
(-0.144589 0.111646 0)
(-0.143474 0.122993 0)
(-0.137818 0.128543 0)
(-0.130844 0.1259 0)
(-0.121949 0.112365 0)
(-0.112219 0.0882501 0)
(-0.10269 0.0588231 0)
(-0.0896778 0.0316098 0)
(-0.0756366 0.0090313 0)
(-0.176233 0.106567 0)
(-0.169429 0.108478 0)
(-0.158107 0.110704 0)
(-0.143795 0.110323 0)
(-0.126763 0.104973 0)
(-0.107986 0.0876386 0)
(-0.0876721 0.0627138 0)
(-0.0710971 0.0257591 0)
(-0.0553252 -0.00576255 0)
(-0.0494859 -0.0183149 0)
(-0.189367 0.0898797 0)
(-0.172303 0.0805943 0)
(-0.153669 0.0728994 0)
(-0.131292 0.061282 0)
(-0.107591 0.0518309 0)
(-0.0875517 0.0294389 0)
(-0.0677352 0.00729725 0)
(-0.0588584 -0.00566316 0)
(-0.0584225 -0.00777114 0)
(-0.0660892 -0.00371986 0)
(-0.192456 0.0512986 0)
(-0.177747 0.0395341 0)
(-0.161744 0.0293917 0)
(-0.144968 0.0193977 0)
(-0.128655 0.0138523 0)
(-0.113722 0.00360586 0)
(-0.107617 0.000410605 0)
(-0.107229 0.00102017 0)
(-0.111747 0.0078997 0)
(-0.120277 0.0219275 0)
(-0.223742 0.0345487 0)
(-0.210844 0.0179933 0)
(-0.19374 0.00298157 0)
(-0.176844 -0.00647816 0)
(-0.161497 -0.0109492 0)
(-0.147393 -0.0129381 0)
(-0.13487 -0.00872293 0)
(-0.123792 0.00504991 0)
(-0.117774 0.0202438 0)
(-0.115873 0.0263469 0)
(-0.251637 0.0094707 0)
(-0.23607 -0.0205062 0)
(-0.222127 -0.0417734 0)
(-0.209495 -0.0486439 0)
(-0.195991 -0.0523099 0)
(-0.181499 -0.0561695 0)
(-0.166416 -0.052787 0)
(-0.150588 -0.0355107 0)
(-0.135554 -0.00990512 0)
(-0.12571 0.0137455 0)
(-0.256617 -0.0114228 0)
(-0.249717 -0.0470127 0)
(-0.239783 -0.0594838 0)
(-0.22944 -0.0642237 0)
(-0.219069 -0.0688844 0)
(-0.20907 -0.0718132 0)
(-0.202059 -0.0663287 0)
(-0.195276 -0.0474213 0)
(-0.18519 -0.0216128 0)
(-0.17211 0.00834163 0)
(-0.224867 0.00386519 0)
(-0.217235 -0.0459476 0)
(-0.214504 -0.0680356 0)
(-0.209196 -0.0777067 0)
(-0.202348 -0.0850347 0)
(-0.196621 -0.0857018 0)
(-0.192917 -0.082006 0)
(-0.190596 -0.069688 0)
(-0.181798 -0.0556297 0)
(-0.158744 -0.0342516 0)
(-0.219057 -0.0363804 0)
(-0.207759 -0.0647513 0)
(-0.193643 -0.0780008 0)
(-0.179103 -0.0842158 0)
(-0.167284 -0.0953974 0)
(-0.151059 -0.0867597 0)
(-0.135715 -0.0830927 0)
(-0.132339 -0.0675909 0)
(-0.133013 -0.0651572 0)
(-0.120927 -0.0643243 0)
(-0.194398 -0.0464171 0)
(-0.185156 -0.0930417 0)
(-0.183696 -0.128614 0)
(-0.168139 -0.142883 0)
(-0.145397 -0.15004 0)
(-0.126457 -0.138826 0)
(-0.0973881 -0.13552 0)
(-0.0688739 -0.0902431 0)
(-0.0608805 -0.0664772 0)
(-0.0379761 -0.0684674 0)
(-0.113631 -0.0787545 0)
(-0.10177 -0.0980797 0)
(-0.103007 -0.150355 0)
(-0.0843796 -0.183803 0)
(-0.067583 -0.201679 0)
(-0.0495053 -0.201959 0)
(-0.0302709 -0.187114 0)
(-0.012453 -0.163056 0)
(0.00405639 -0.118344 0)
(0.0304458 -0.107623 0)
(0.0716388 -0.0423888 0)
(0.0829353 -0.0729446 0)
(0.0866015 -0.12558 0)
(0.0825503 -0.181946 0)
(0.0864082 -0.221116 0)
(0.088103 -0.220652 0)
(0.0982238 -0.20551 0)
(0.103486 -0.178361 0)
(0.113185 -0.162942 0)
(0.124055 -0.122988 0)
(0.140724 -0.0926246 0)
(0.153791 -0.108205 0)
(0.167607 -0.125203 0)
(0.174004 -0.147944 0)
(0.178212 -0.215515 0)
(0.173998 -0.224438 0)
(0.173322 -0.21795 0)
(0.173739 -0.192795 0)
(0.17465 -0.16622 0)
(0.171945 -0.124331 0)
(0.142074 -0.113556 0)
(0.1481 -0.15666 0)
(0.169266 -0.162638 0)
(0.188465 -0.17558 0)
(0.199856 -0.211509 0)
(0.204744 -0.215191 0)
(0.205291 -0.207822 0)
(0.20189 -0.183834 0)
(0.195604 -0.16201 0)
(0.177203 -0.121315 0)
(0.120642 -0.141709 0)
(0.121992 -0.178716 0)
(0.145748 -0.192713 0)
(0.166864 -0.238093 0)
(0.19081 -0.253916 0)
(0.201749 -0.243786 0)
(0.203629 -0.219366 0)
(0.190639 -0.17457 0)
(0.149436 -0.111988 0)
(0.0812364 -0.0815814 0)
(0.0869445 -0.124698 0)
(0.0666445 -0.181386 0)
(0.0771605 -0.244457 0)
(0.0841682 -0.291887 0)
(0.0903913 -0.290757 0)
(0.0885914 -0.260548 0)
(0.0491076 -0.175885 0)
(-0.0143136 -0.042151 0)
(-0.039243 0.0237429 0)
(-0.0449829 -0.0152696 0)
(0.0393118 -0.0934071 0)
(0.031642 -0.162375 0)
(0.0269807 -0.241238 0)
(0.0195655 -0.270766 0)
(-0.000603043 -0.239727 0)
(-0.0231316 -0.129483 0)
(-0.0623191 0.0188817 0)
(-0.0901137 0.0206994 0)
(-0.0914029 -0.0592309 0)
(-0.0815876 -0.0797048 0)
(0.0194864 -0.0841558 0)
(0.0184853 -0.161522 0)
(0.00407035 -0.225886 0)
(-0.0148875 -0.235158 0)
(-0.0325608 -0.200234 0)
(-0.0455262 -0.120184 0)
(-0.00826966 -0.0696008 0)
(0.0191504 0.0255594 0)
(0.0357522 -0.00621327 0)
(0.0245865 -0.0333533 0)
(0.0233045 -0.0820476 0)
(0.0339364 -0.138724 0)
(0.0170832 -0.181179 0)
(-0.00667661 -0.20143 0)
(-0.0217019 -0.181878 0)
(-0.0257957 -0.133215 0)
(-0.013325 -0.12179 0)
(0.00418563 -0.0683934 0)
(0.0499257 -0.0972005 0)
(0.0764097 -0.0757468 0)
(0.055808 -0.108302 0)
(0.0721662 -0.133608 0)
(0.079462 -0.150373 0)
(0.074587 -0.15286 0)
(0.0631769 -0.168602 0)
(0.0560268 -0.155928 0)
(0.0689554 -0.139015 0)
(0.0852325 -0.111827 0)
(0.0932803 -0.11518 0)
(0.107697 -0.107837 0)
(0.0739554 -0.162448 0)
(0.099175 -0.173384 0)
(0.115931 -0.173255 0)
(0.131435 -0.168906 0)
(0.142534 -0.157262 0)
(0.152017 -0.158812 0)
(0.153973 -0.155457 0)
(0.155508 -0.151381 0)
(0.16197 -0.148277 0)
(0.171504 -0.138721 0)
(0.104384 -0.213649 0)
(0.128413 -0.222399 0)
(0.140119 -0.210826 0)
(0.154875 -0.202457 0)
(0.166357 -0.195009 0)
(0.180686 -0.178853 0)
(0.18929 -0.154033 0)
(0.206474 -0.145002 0)
(0.219451 -0.141874 0)
(0.227043 -0.140993 0)
(0.136941 -0.274161 0)
(0.151786 -0.253018 0)
(0.158343 -0.232239 0)
(0.168551 -0.220073 0)
(0.178683 -0.213243 0)
(0.195122 -0.202416 0)
(0.212216 -0.199377 0)
(0.226838 -0.190589 0)
(0.237783 -0.171676 0)
(0.240789 -0.156614 0)
(0.148508 -0.285282 0)
(0.153696 -0.262319 0)
(0.160769 -0.240647 0)
(0.167362 -0.243125 0)
(0.180647 -0.250692 0)
(0.204559 -0.246353 0)
(0.220452 -0.235534 0)
(0.227512 -0.205734 0)
(0.228382 -0.168585 0)
(0.221026 -0.148517 0)
(0.137075 -0.285473 0)
(0.13219 -0.263705 0)
(0.141538 -0.2628 0)
(0.152601 -0.276466 0)
(0.171987 -0.289906 0)
(0.182101 -0.283843 0)
(0.177288 -0.26622 0)
(0.166774 -0.215562 0)
(0.117358 -0.126406 0)
(0.0969391 -0.115588 0)
(0.0673436 -0.263949 0)
(0.0724859 -0.270236 0)
(0.0801245 -0.29094 0)
(0.0907143 -0.312945 0)
(0.0963511 -0.296304 0)
(0.0718646 -0.26837 0)
(0.0487105 -0.196838 0)
(-0.00374994 -0.0735829 0)
(-0.013006 -0.0618009 0)
(0.0144236 -0.120348 0)
(-0.0139326 -0.259352 0)
(-0.00416646 -0.286525 0)
(-0.00289015 -0.30743 0)
(-0.0175714 -0.299128 0)
(-0.0149321 -0.246526 0)
(-0.0254349 -0.203532 0)
(-0.021515 -0.0953016 0)
(-0.0386441 -0.034652 0)
(0.000601096 -0.150255 0)
(0.0110479 -0.172297 0)
(-0.0523357 -0.284778 0)
(-0.0590938 -0.292806 0)
(-0.0585622 -0.282797 0)
(-0.057473 -0.288825 0)
(-0.0449798 -0.248753 0)
(-0.0401856 -0.228498 0)
(-0.0171502 -0.160559 0)
(0.0213578 -0.113141 0)
(0.0420768 -0.163371 0)
(0.0306997 -0.167062 0)
(-0.0979541 -0.272262 0)
(-0.0947629 -0.277406 0)
(-0.087439 -0.299822 0)
(-0.0722538 -0.301869 0)
(-0.054931 -0.284183 0)
(-0.039518 -0.273326 0)
(-0.0203918 -0.250026 0)
(0.0227087 -0.194752 0)
(0.0406049 -0.160245 0)
(0.0361332 -0.146734 0)
(-0.135097 -0.2753 0)
(-0.121744 -0.30603 0)
(-0.106577 -0.335159 0)
(-0.0844204 -0.3392 0)
(-0.0599302 -0.32424 0)
(-0.0392275 -0.287764 0)
(-0.020556 -0.275722 0)
(-0.00921835 -0.241184 0)
(0.0164052 -0.189481 0)
(0.0318449 -0.156021 0)
(-0.148831 -0.319894 0)
(-0.13301 -0.349477 0)
(-0.113015 -0.377171 0)
(-0.093797 -0.389226 0)
(-0.0677839 -0.378483 0)
(-0.0452819 -0.344231 0)
(-0.0183415 -0.315269 0)
(-0.0121992 -0.268884 0)
(-0.00212931 -0.235182 0)
(0.00943038 -0.207343 0)
(-0.13863 -0.342302 0)
(-0.139644 -0.381248 0)
(-0.126606 -0.423522 0)
(-0.114551 -0.439668 0)
(-0.096548 -0.436731 0)
(-0.0755898 -0.409203 0)
(-0.0571844 -0.357512 0)
(-0.0451732 -0.273771 0)
(-0.0481113 -0.237568 0)
(-0.0478754 -0.219316 0)
(-0.0840786 -0.332462 0)
(-0.119521 -0.388485 0)
(-0.120387 -0.440115 0)
(-0.112471 -0.464601 0)
(-0.100245 -0.464873 0)
(-0.0861917 -0.432128 0)
(-0.0710553 -0.373898 0)
(-0.0507586 -0.273674 0)
(-0.0629571 -0.231423 0)
(-0.0658745 -0.213461 0)
(0.0470564 -0.232813 0)
(0.00741183 -0.321037 0)
(-0.0509826 -0.422595 0)
(-0.0515683 -0.474496 0)
(-0.0574757 -0.48268 0)
(-0.0591389 -0.454776 0)
(-0.0521677 -0.404753 0)
(-0.0423643 -0.266359 0)
(-0.0568947 -0.217345 0)
(-0.0655733 -0.210895 0)
(0.0989683 -0.181737 0)
(0.0915594 -0.229437 0)
(0.0378438 -0.280878 0)
(-0.00284599 -0.423867 0)
(-0.0148853 -0.456669 0)
(-0.0270771 -0.441753 0)
(-0.0319899 -0.41043 0)
(-0.0204353 -0.265547 0)
(-0.0331434 -0.188213 0)
(-0.057857 -0.193635 0)
(0.0923395 -0.154799 0)
(0.0756189 -0.177806 0)
(0.0115197 -0.181985 0)
(0.000504262 -0.39486 0)
(-0.0104877 -0.429435 0)
(-0.01776 -0.428564 0)
(-0.0255885 -0.414098 0)
(-0.0126216 -0.285639 0)
(-0.0200593 -0.132777 0)
(-0.0575568 -0.149846 0)
(0.0545326 -0.134517 0)
(0.0372164 -0.112514 0)
(-0.00747084 -0.136312 0)
(0.00434506 -0.39115 0)
(-0.0149589 -0.417192 0)
(-0.0155839 -0.422701 0)
(-0.0256357 -0.41369 0)
(-0.0198615 -0.297817 0)
(-0.0227973 -0.0899115 0)
(-0.0523373 -0.0978017 0)
(0.0157529 -0.0845401 0)
(-0.0327476 -0.0414103 0)
(-0.0305952 -0.15859 0)
(0.00308551 -0.391927 0)
(-0.0144844 -0.409253 0)
(-0.0185204 -0.411971 0)
(-0.025193 -0.400779 0)
(-0.0368822 -0.320927 0)
(-0.0162825 -0.0520331 0)
(-0.0418542 -0.0539477 0)
(0.0459845 0.00200332 0)
(-0.0353874 0.00450462 0)
(0.0178282 -0.248314 0)
(0.0181532 -0.378016 0)
(0.00704484 -0.390034 0)
(-0.0101574 -0.387445 0)
(-0.0100012 -0.38266 0)
(-0.0330273 -0.343851 0)
(0.0271542 -0.0440881 0)
(0.00688209 -0.0333131 0)
(0.00533776 0.0138905 0)
(-0.00191889 0.0678277 0)
(0.0350573 -0.276082 0)
(0.0173127 -0.362852 0)
(0.0107735 -0.362648 0)
(0.00110775 -0.355391 0)
(-0.0125024 -0.353286 0)
(-0.0333909 -0.340116 0)
(-0.0127958 -0.180434 0)
(0.0486019 0.0404387 0)
(-0.0355044 -0.0688415 0)
(0.0149085 -0.0631986 0)
(0.0720195 -0.291688 0)
(0.0608729 -0.334326 0)
(0.0392425 -0.333079 0)
(0.014947 -0.326395 0)
(0.00708664 -0.326188 0)
(-0.0113034 -0.328558 0)
(-0.0179661 -0.282976 0)
(0.0711716 -0.0674949 0)
(0.00572337 -0.0246976 0)
(0.0753145 -0.179842 0)
(0.0912931 -0.267905 0)
(0.0540846 -0.282279 0)
(0.0290133 -0.284054 0)
(0.00132356 -0.286207 0)
(-0.0126697 -0.285661 0)
(-0.0457688 -0.283842 0)
(-0.0504309 -0.279757 0)
(-0.0717344 -0.257857 0)
(0.0774296 -0.0469925 0)
(0.0759455 -0.182002 0)
(0.071473 -0.222614 0)
(0.0480962 -0.240099 0)
(0.0356755 -0.24721 0)
(0.0104391 -0.247705 0)
(-0.00362151 -0.248983 0)
(-0.0301039 -0.243887 0)
(-0.0463703 -0.22394 0)
(-0.0499845 -0.169816 0)
(0.0055816 0.00263149 0)
(0.00415793 0.000560939 0)
(0.00412224 -0.0028393 0)
(0.00597008 -0.00456798 0)
(0.00773862 -0.00360347 0)
(0.00960176 -0.00254132 0)
(0.00991292 0.00140445 0)
(0.00578249 0.00369153 0)
(0.00146531 0.000355318 0)
(-0.000518947 0.000645739 0)
(-0.00156746 0.000427222 0)
(-0.0011238 0.000456545 0)
(-0.00100097 -4.6244e-05 0)
(-0.00109162 -0.000357174 0)
(-0.00154429 0.000694369 0)
(-0.00198213 0.00075262 0)
(-0.00180966 -0.000264833 0)
(-0.00182873 -0.000959145 0)
(-0.000802753 -0.00104286 0)
(0.00124641 -8.32427e-05 0)
(0.0026796 -0.000464544 0)
(0.00502421 -0.000176598 0)
(0.00594999 0.000939032 0)
(0.00737323 -0.00104239 0)
(0.00878211 0.00218666 0)