/*--------------------------------*- C++ -*----------------------------------*\
  =========                 |
  \\      /  F ield         | OpenFOAM: The Open Source CFD Toolbox
   \\    /   O peration     | Website:  https://openfoam.org
    \\  /    A nd           | Version:  8
     \\/     M anipulation  |
\*---------------------------------------------------------------------------*/
FoamFile
{
    version     2.0;
    format      ascii;
    class       volScalarField;
    location    "6.05";
    object      alpha.water;
}
// * * * * * * * * * * * * * * * * * * * * * * * * * * * * * * * * * * * * * //

dimensions      [0 0 0 0 0 0 0];

internalField   nonuniform List<scalar> 
9150
(
1
1
1
1
1
1
1
1
1
1
1
1
1
1
1
1
1
1
1
1
1
1
1
1
1
1
1
1
1
1
1
1
1
1
1
1
1
1
1
1
1
1
1
1
1
1
1
1
1
1
1
1
1
1
1
1
1
1
1
1
1
1
1
1
1
1
1
1
1
1
1
1
1
1
1
1
1
1
1
1
1
1
1
1
1
1
1
1
1
1
1
1
1
1
1
1
1
1
1
1
1
1
1
1
1
1
1
1
1
1
1
1
1
1
1
1
1
1
1
1
1
1
1
1
1
1
1
1
1
1
1
1
1
1
1
1
1
1
1
1
1
1
1
1
1
1
1
1
1
1
0.990057
0.990057
0.99462
0.995145
0.982581
0.979259
0.979259
0.979518
0.995027
0.995027
0.990057
0.990057
0.991485
0.99519
0.995204
0.984218
0.979259
0.979332
0.989407
0.994989
0.990058
0.990057
0.993925
0.995204
0.995206
0.995208
0.982189
0.979325
0.992532
0.99487
0.995211
0.993706
0.993475
0.994152
0.995208
0.995209
0.986428
0.979334
0.989568
0.993817
0.995231
0.994218
0.993469
0.993475
0.995198
0.99521
0.989763
0.979359
0.985415
0.9949
0.994099
0.993469
0.993473
0.994558
0.99521
0.99521
0.99521
0.984195
0.990332
0.995206
0.995231
0.994151
0.994749
0.99521
0.99521
0.99521
0.99521
0.995209
0.995207
0.995206
0.995231
0.99523
0.995219
0.99521
0.99521
0.99521
0.99521
0.99521
0.995208
0.995206
0.99523
0.995229
0.995168
0.99521
0.99521
0.99521
0.99521
0.990925
0.965326
0.948267
0.870526
0.893545
0.89158
0.901354
0.909201
0.883494
0.842414
0.804463
0.854633
0.960898
0.822248
0.932231
0.976776
0.987086
0.842256
0.801476
0.800978
0.800978
0.800978
0.801725
0.979008
0.988085
0.988147
0.98816
0.985308
0.972154
0.95228
0.968459
0.870887
0.802716
0.983688
0.983818
0.987586
0.988204
0.988204
0.988204
0.988166
0.987901
0.960832
0.930598
0.83605
0.86063
0.958202
0.986269
0.988183
0.977783
0.945226
0.945201
0.95682
0.982329
0.833449
0.847379
0.937858
0.879455
0.875708
0.875999
0.96098
0.983362
0.981774
0.944103
0.832757
0.894305
0.910635
0.875708
0.875675
0.883259
0.987556
0.985267
0.88887
0.86509
0.91046
0.930147
0.893981
0.875675
0.87567
0.8967
0.991832
0.956363
0.86509
0.86509
0.930147
0.930243
0.881406
0.875667
0.875675
0.932801
0.993337
0.960668
0.865853
0.87917
0.93024
0.930173
0.888017
0.880606
0.925425
0.990381
0.993397
0.974891
0.866616
0.973977
0.863872
0.8991
0.968701
0.983059
0.992349
0.993413
0.993402
0.987569
0.933507
0.982809
0.783322
0.830685
0.993299
0.993379
0.993413
0.993413
0.993413
0.991937
0.970478
0.969441
0.808858
0.985801
0.993355
0.993357
0.993379
0.993413
0.989176
0.9887
0.991185
0.976773
0.989705
0.989684
0.983519
0.974636
0.990556
0.993274
0.993225
0.993102
0.992625
0.992104
0.990301
0.989821
0.989684
0.981057
0.858345
0.78495
0.784873
0.841219
0.984424
0.992139
0.991114
0.987637
0.855855
0.784718
0.783607
0.783607
0.783607
0.783915
0.784652
0.840396
0.991727
0.987874
0.881083
0.812732
0.936772
0.903664
0.783915
0.784652
0.784228
0.784652
0.99217
0.991341
0.971729
0.963061
0.974966
0.976914
0.949565
0.904438
0.914956
0.886227
0.992246
0.990392
0.928346
0.892288
0.976914
0.976914
0.977019
0.976857
0.976073
0.963997
0.990882
0.876543
0.743051
0.744055
0.757418
0.792912
0.894797
0.926333
0.933803
0.913518
0.543513
0.54774
0.760167
0.945784
0.93933
0.929315
0.808706
0.564331
0.469561
0.488364
0.54279
0.543513
0.614328
0.956384
0.918284
0.635097
0.467783
0.467932
0.468327
0.469389
0.542672
0.54279
0.702843
0.970321
0.658189
0.467773
0.467762
0.467783
0.467932
0.467391
0.541619
0.550233
0.90676
0.982461
0.626031
0.467767
0.467773
0.467901
0.468307
0.534613
0.540451
0.593024
0.975954
0.989051
0.914201
0.467827
0.467901
0.468095
0.525043
0.88419
0.540365
0.547973
0.890549
0.989151
0.98939
0.869647
0.468094
0.469533
0.470538
0.770088
0.540358
0.540359
0.763932
0.988795
0.989529
0.989489
0.732947
0.470519
0.46869
0.465165
0.540352
0.540349
0.545737
0.867651
0.989302
0.989529
0.928507
0.508652
0.464768
0.463553
0.540349
0.540345
0.540345
0.601128
0.957451
0.989367
0.953809
0.541664
0.463168
0.463233
0.546638
0.540349
0.540583
0.571824
0.938429
0.987895
0.92429
0.499453
0.463233
0.463437
0.74902
0.571968
0.540808
0.551792
0.900439
0.984725
0.869021
0.478651
0.463779
0.463363
0.637713
0.543219
0.542197
0.543229
0.768116
0.73255
0.734864
0.856172
0.799169
0.614693
0.546553
0.546327
0.618531
0.883664
0.899732
0.899813
0.899797
0.879143
0.869938
0.867175
0.783145
0.81846
0.897134
0.897134
0.887495
0.868401
0.818577
0.524781
0.513187
0.513187
0.864084
0.864034
0.677907
0.666118
0.523639
0.517107
0.515383
0.514515
0.513649
0.513137
0.545307
0.545614
0.541602
0.538384
0.536549
0.621733
0.643215
0.569137
0.549805
0.719107
0.64567
0.680341
0.728107
0.858689
0.979211
0.983456
0.983616
0.98365
0.983656
0.98365
0.955259
0.825368
0.836564
0.972418
0.981326
0.982393
0.983456
0.983616
0.98365
0.98365
0.965191
0.973483
0.974486
0.977076
0.980777
0.981326
0.970223
0.952312
0.969048
0.971634
0.915128
0.915493
0.88491
0.84124
0.8119
0.759645
0.625347
0.56119
0.631753
0.576027
0.474726
0.396552
0.369659
0.374675
0.379429
0.422809
0.463758
0.470786
0.46241
0.433356
0.354614
0.356549
0.361386
0.483738
0.75562
0.906683
0.948707
0.932696
0.940667
0.934394
0.686918
0.721158
0.909295
0.9915
0.990614
0.990162
0.988761
0.982061
0.962568
0.92185
0.99156
0.99156
0.99156
0.991558
0.9915
0.989377
0.978044
0.820641
0.624068
0.470491
0.99156
0.99156
0.991558
0.991527
0.990147
0.947476
0.647581
0.319862
0.318963
0.318974
0.99155
0.991558
0.99153
0.990212
0.827
0.66398
0.319916
0.318937
0.318974
0.318934
0.991504
0.99153
0.991186
0.936431
0.631542
0.577595
0.397799
0.319069
0.318944
0.318974
0.991476
0.991488
0.991256
0.903169
0.625536
0.593329
0.758799
0.340333
0.319022
0.319372
0.991476
0.991397
0.991108
0.928008
0.692322
0.631024
0.800258
0.770825
0.327322
0.319938
0.991393
0.991074
0.990906
0.953217
0.726336
0.630863
0.807838
0.819784
0.805368
0.510503
0.981502
0.990829
0.990679
0.962338
0.783433
0.623118
0.520623
0.838602
0.54063
0.507417
0.930941
0.990667
0.990005
0.947276
0.803719
0.771991
0.28816
0.851912
0.598205
0.489906
0.89732
0.984682
0.989507
0.947381
0.815442
0.790248
0.271684
0.855695
0.901339
0.490446
0.902067
0.819758
0.891346
0.946634
0.856677
0.797017
0.271684
0.37582
0.965654
0.811298
0.90103
0.753366
0.848764
0.891972
0.870578
0.79691
0.326039
0.95006
0.989778
0.98014
0.708968
0.763039
0.848468
0.412733
0.843377
0.837136
0.349563
0.989778
0.989862
0.989848
0.563761
0.765277
0.769275
0.187295
0.839944
0.847052
0.170516
0.781408
0.989849
0.989861
0.151762
0.187024
0.190166
0.241431
0.850685
0.848187
0.201419
0.220847
0.739611
0.826396
0.151802
0.151776
0.151997
0.151836
0.857353
0.845347
0.155989
0.128469
0.371213
0.670868
0.359575
0.377658
0.228304
0.144676
0.857819
0.849762
0.13779
0.127037
0.432687
0.675505
0.0344647
0.347798
0.292699
0.146659
0.862145
0.842241
0.123972
0.12629
0.479338
0.0473993
0.0168749
0.125347
0.291847
0.134362
0.864731
0.85566
0.122786
0.123062
0.410212
0.000721219
0.000379901
5.41074e-05
0.236233
0.116828
0.864852
0.861831
0.118662
0.205028
0.211105
0.000578792
5.41072e-05
5.44152e-05
0.163523
0.115479
0.875217
0.872255
0.118492
0.132738
0.0452994
0.000501983
5.59016e-05
0.000732993
0.059853
0.115276
0.886722
0.883753
0.117937
0.0822198
0.00522787
0.000957372
0.00107124
0.000762556
2.15353e-05
0.123753
0.89251
0.897483
0.131267
0.0229253
0.000824221
0.000427223
0.000669923
6.0595e-05
2.15264e-05
0.131595
0.899205
0.907267
0.142032
1.72587e-05
1.72496e-05
0.000174081
0.000179304
2.15846e-05
2.15171e-05
0.149913
0.911933
0.913329
0.153839
1.72496e-05
8.98492e-05
0.00034183
2.20414e-05
2.15116e-05
2.15162e-05
0.16993
0.922708
0.919894
0.166638
1.72587e-05
5.87459e-05
0.000216244
2.15188e-05
2.14983e-05
2.15116e-05
0.19083
0.931905
0.92739
0.181652
1.73405e-05
7.54566e-05
7.38517e-05
2.14983e-05
2.14972e-05
2.14983e-05
0.209931
0.939225
0.939614
0.207872
1.77949e-05
5.74319e-05
0.000117017
2.14978e-05
2.14979e-05
2.14974e-05
0.229013
0.945778
0.949748
0.236582
1.80617e-05
9.75194e-05
0.00041109
0.000197671
4.62547e-05
2.15974e-05
0.256205
0.953876
0.956919
0.264319
1.69088e-05
0.000144608
0.000411033
0.000248847
0.000143551
2.22334e-05
0.28605
0.961267
0.962394
0.293217
1.66606e-05
6.19805e-05
0.000411244
0.000249824
0.000186817
2.40941e-05
0.318666
0.968329
0.965833
0.315271
1.62827e-05
3.92295e-05
0.000361319
0.000250822
0.000191827
2.66086e-05
0.349415
0.973923
0.971139
0.338062
1.55073e-05
0.000113622
0.000401194
0.000249438
0.000158506
2.83942e-05
0.369955
0.977011
0.977564
0.376997
1.51904e-05
4.42279e-05
0.0003999
0.000224748
5.25401e-05
2.95929e-05
0.407615
0.982305
0.981633
0.412043
1.50037e-05
1.45915e-05
0.000119269
0.000120671
3.14502e-05
3.03135e-05
0.456575
0.987362
0.985482
0.463121
1.45915e-05
1.45915e-05
1.45915e-05
0.000239617
8.74751e-05
3.14502e-05
0.528648
0.990944
0.989906
0.517079
1.58387e-05
3.36891e-05
1.68566e-05
0.000244022
7.25296e-05
2.46217e-05
0.598178
0.993817
0.992849
0.600576
2.18364e-05
4.26489e-05
0.000247332
0.000110784
3.27419e-06
4.64813e-06
0.680838
0.995566
0.994517
0.681322
1.02851e-05
1.0083e-05
8.3365e-05
3.47512e-06
3.24921e-06
3.30896e-06
0.752607
0.997475
0.995912
0.752317
1.0155e-05
1.00038e-05
2.84271e-05
5.57076e-05
3.1525e-06
0.0234231
0.820207
0.997601
0.998206
0.820105
0.02982
8.98695e-06
0.000126282
7.48321e-06
1.64313e-06
0.0643416
0.845234
0.998138
0.999472
0.914636
0.149711
4.89851e-06
7.94572e-06
4.76003e-08
8.4493e-08
0.143121
0.906045
0.99953
0.999594
0.969999
0.287679
1.58355e-06
1.5764e-06
8.48144e-09
6.5804e-07
0.348416
0.979497
0.999759
0.999899
0.990303
0.449633
2.75326e-06
1.02987e-06
3.52989e-10
1.76078e-05
0.618417
0.999834
0.999961
0.999916
0.999901
0.706155
2.78906e-05
2.35419e-07
-1.47204e-12
0.0654272
0.881836
0.999964
0.999987
0.999999
0.999926
0.877635
0.133205
8.63068e-10
-3.5137e-09
0.534228
0.997788
0.999986
1
1
0.999998
0.999826
0.639481
-1.10371e-08
0.314969
0.967463
1
1
1
1
1
1
0.973525
0.34864
0.995026
0.994926
0.995085
0.994997
0.989679
0.989046
0.989046
0.989046
0.989046
0.989048
0.992788
0.995058
0.995032
0.960098
0.89476
0.985583
0.995109
0.99511
0.995108
0.995089
0.994387
0.931802
0.885348
0.885343
0.885472
0.909468
0.994654
0.994654
0.994654
0.994655
0.994707
0.992636
0.941731
0.917058
0.928445
0.917589
0.925885
0.967459
0.968188
0.968188
0.995007
0.995091
0.995116
0.995096
0.992726
0.989046
0.989046
0.989046
0.990324
0.995083
0.995083
0.99508
0.995058
0.954878
0.889107
0.968049
0.995109
0.995108
0.995004
0.931759
0.88434
0.884387
0.88477
0.932121
0.994353
0.994458
0.994609
0.994654
0.994654
0.994704
0.99476
0.982379
0.855403
0.832108
0.832099
0.832091
0.832091
0.857651
0.860397
0.858676
0.995142
0.995148
0.995134
0.995116
0.991417
0.989047
0.994436
0.995075
0.994937
0.995083
0.995083
0.995083
0.995075
0.970995
0.881996
0.963982
0.995102
0.995009
0.946647
0.884339
0.884329
0.884331
0.884343
0.893278
0.985711
0.988457
0.977729
0.991084
0.994699
0.99476
0.994876
0.994997
0.965834
0.846175
0.832102
0.832091
0.832091
0.832105
0.832163
0.832281
0.995175
0.995168
0.995135
0.995121
0.99352
0.995088
0.995086
0.995085
0.995084
0.995083
0.995083
0.995083
0.995079
0.976645
0.879228
0.952893
0.995003
0.994892
0.956273
0.884329
0.884329
0.884329
0.884331
0.884343
0.884381
0.884408
0.921081
0.97992
0.968335
0.972933
0.994997
0.995002
0.995002
0.994991
0.924822
0.832109
0.832105
0.845828
0.838011
0.848989
0.995205
0.99349
0.992342
0.99297
0.995093
0.995089
0.995088
0.995086
0.994801
0.994476
0.995083
0.995083
0.995079
0.969218
0.879068
0.889711
0.994624
0.994681
0.993069
0.918207
0.884329
0.884329
0.88433
0.884355
0.909856
0.993354
0.99327
0.955144
0.955051
0.955051
0.97966
0.995002
0.995002
0.995002
0.994991
0.971584
0.920813
0.930438
0.967207
0.957765
0.995206
0.99486
0.992342
0.99459
0.995102
0.992346
0.994418
0.995082
0.993025
0.991032
0.991028
0.994888
0.994677
0.977911
0.879104
0.879
0.901947
0.994118
0.994834
0.990076
0.904319
0.88433
0.884341
0.92263
0.995132
0.995135
0.995137
0.995139
0.971749
0.955176
0.992089
0.995002
0.995002
0.995002
0.993476
0.986169
0.990035
0.981938
0.977281
0.958354
0.995206
0.995206
0.995154
0.995138
0.995129
0.995127
0.969742
0.94454
0.99257
0.993787
0.990741
0.990839
0.994645
0.99393
0.928388
0.87913
0.879021
0.970457
0.994924
0.995076
0.989429
0.918375
0.884778
0.889651
0.965523
0.99514
0.99514
0.995137
0.989968
0.987779
0.992044
0.995002
0.995002
0.994644
0.982489
0.993781
0.993794
0.993795
0.993432
0.942714
0.995206
0.995206
0.995206
0.995124
0.995127
0.984463
0.937979
0.937855
0.960361
0.993811
0.993819
0.993855
0.993927
0.992219
0.985337
0.924224
0.887508
0.959512
0.995076
0.995101
0.995119
0.993555
0.973156
0.975914
0.988128
0.995143
0.995142
0.99514
0.976506
0.964617
0.978576
0.995
0.995
0.994715
0.982489
0.99091
0.993795
0.993795
0.993795
0.970421
0.945885
0.945888
0.953505
0.994561
0.995124
0.964008
0.937855
0.937855
0.955288
0.993821
0.993827
0.993826
0.988443
0.983423
0.986264
0.9913
0.9889
0.985304
0.994236
0.995121
0.995125
0.99514
0.995143
0.995143
0.995143
0.995143
0.995143
0.995142
0.972661
0.964608
0.981103
0.994942
0.994996
0.990555
0.983492
0.991193
0.993791
0.993795
0.993795
0.99379
0.974694
0.975412
0.957136
0.979764
0.995122
0.990284
0.938067
0.940521
0.986782
0.989991
0.975048
0.97594
0.976018
0.983315
0.992718
0.995131
0.995133
0.995137
0.995136
0.995119
0.994979
0.995139
0.995143
0.995143
0.995143
0.995143
0.995143
0.983898
0.963714
0.972337
0.994893
0.994803
0.986422
0.981727
0.987792
0.987801
0.988166
0.993318
0.99379
0.993789
0.802716
0.817525
0.970143
0.986902
0.994897
0.99402
0.980691
0.986819
0.99384
0.975235
0.973904
0.973904
0.978909
0.994376
0.995131
0.995133
0.995137
0.99514
0.995141
0.99509
0.994974
0.994975
0.995047
0.995143
0.995143
0.995143
0.972394
0.958836
0.963624
0.994962
0.99493
0.988344
0.980018
0.975941
0.978927
0.87609
0.826495
0.88643
0.970494
0.993119
0.824735
0.970929
0.993701
0.993807
0.993579
0.993692
0.993838
0.993841
0.993844
0.984465
0.973904
0.983847
0.994431
0.994389
0.972451
0.990082
0.995139
0.995141
0.995141
0.994981
0.994974
0.995052
0.995142
0.995142
0.980386
0.956587
0.956643
0.966414
0.995026
0.994997
0.992985
0.980669
0.979254
0.978042
0.836024
0.774339
0.774339
0.774339
0.804881
0.867284
0.970137
0.993702
0.993813
0.993827
0.993836
0.993841
0.993843
0.993844
0.993844
0.993844
0.993319
0.993831
0.988794
0.955506
0.95246
0.959557
0.993506
0.995141
0.995141
0.994983
0.995011
0.995141
0.995141
0.971467
0.956569
0.95657
0.971824
0.994421
0.995047
0.993568
0.979148
0.978141
0.977768
0.914364
0.774339
0.774339
0.774339
0.774339
0.774348
0.774365
0.985358
0.990848
0.993819
0.993836
0.993841
0.993844
0.993844
0.993844
0.993844
0.993844
0.993841
0.993834
0.99024
0.982762
0.952467
0.952462
0.988805
0.995141
0.995141
0.995051
0.995141
0.995141
0.99494
0.973367
0.970256
0.983206
0.99495
0.995083
0.995068
0.985877
0.972967
0.978236
0.955003
0.798116
0.774339
0.774339
0.77434
0.774348
0.774365
0.774368
0.918334
0.921735
0.920988
0.933596
0.927417
0.861556
0.882225
0.961174
0.993844
0.993841
0.993836
0.988482
0.993156
0.993172
0.982097
0.952487
0.987398
0.994544
0.995141
0.995141
0.995141
0.995142
0.99499
0.994365
0.995135
0.99513
0.995106
0.995098
0.99316
0.953816
0.953572
0.97362
0.912144
0.77434
0.774339
0.77434
0.774373
0.784442
0.82225
0.812867
0.91594
0.850509
0.828619
0.827287
0.827331
0.827376
0.828404
0.923047
0.99383
0.993836
0.944716
0.947433
0.992571
0.993172
0.993172
0.981665
0.988786
0.995141
0.995141
0.995141
0.995137
0.995142
0.995142
0.995141
0.995137
0.995133
0.994514
0.995077
0.995057
0.977763
0.953735
0.954205
0.893863
0.77434
0.77434
0.77437
0.806187
0.889005
0.88869
0.886943
0.957979
0.92641
0.855195
0.827288
0.827285
0.827331
0.828655
0.965843
0.993396
0.967812
0.93004
0.949601
0.993172
0.993172
0.991102
0.995123
0.995127
0.995141
0.99514
0.995141
0.995064
0.995142
0.995142
0.995142
0.994823
0.995129
0.995124
0.985283
0.984208
0.980087
0.982687
0.982687
0.863429
0.774341
0.774369
0.813456
0.890153
0.889678
0.841039
0.813052
0.992754
0.993278
0.969584
0.877545
0.851927
0.877043
0.957071
0.98342
0.982162
0.93004
0.93014
0.983159
0.993
0.982789
0.991303
0.99513
0.995129
0.994882
0.992321
0.993524
0.995142
0.995142
0.995142
0.995141
0.99348
0.898887
0.847573
0.842019
0.859441
0.934775
0.982707
0.981708
0.836213
0.77437
0.808205
0.890668
0.890668
0.726736
0.345387
0.275532
0.993284
0.993289
0.993293
0.989362
0.984254
0.981711
0.981747
0.968927
0.935356
0.930326
0.975678
0.983401
0.907204
0.90303
0.99513
0.99513
0.99513
0.995129
0.992883
0.987635
0.995142
0.995142
0.945705
0.866072
0.842565
0.841781
0.841781
0.841781
0.893289
0.981789
0.982649
0.971003
0.839381
0.781168
0.889303
0.890668
0.689385
0.27101
0.242329
0.241779
0.986117
0.992396
0.993293
0.993293
0.993197
0.968199
0.957719
0.936028
0.935367
0.970424
0.975356
0.891173
0.867166
0.881693
0.995131
0.995131
0.99513
0.99513
0.995109
0.97732
0.880773
0.842417
0.842251
0.842241
0.84226
0.931481
0.953481
0.956197
0.987196
0.987001
0.972382
0.881823
0.8343
0.824472
0.812482
0.65175
0.253065
0.242152
0.241828
0.244118
0.969874
0.977815
0.993293
0.983494
0.943339
0.943049
0.944169
0.962932
0.963638
0.964402
0.870214
0.864624
0.8655
0.938786
0.995132
0.995131
0.995132
0.99513
0.995082
0.943955
0.842274
0.842251
0.842241
0.842251
0.842241
0.842264
0.92628
0.987364
0.987304
0.98712
0.888603
0.80224
0.647616
0.494856
0.384975
0.26264
0.245671
0.242524
0.298371
0.696792
0.973677
0.991696
0.993142
0.968887
0.94292
0.942832
0.961691
0.962643
0.933747
0.863591
0.863656
0.863747
0.913881
0.995132
0.995132
0.995132
0.995131
0.995137
0.995148
0.985249
0.910574
0.884142
0.929889
0.898615
0.84226
0.84245
0.896974
0.987455
0.987364
0.98726
0.912419
0.598929
0.453298
0.452322
0.548579
0.624621
0.350722
0.439637
0.834465
0.969373
0.992159
0.992163
0.992573
0.987698
0.969595
0.952521
0.896728
0.860412
0.861673
0.863708
0.863656
0.926522
0.995108
0.995132
0.995133
0.995132
0.995132
0.995131
0.995135
0.995134
0.97355
0.948256
0.948999
0.950261
0.951446
0.917469
0.903832
0.987528
0.987455
0.987361
0.981009
0.734802
0.52608
0.732919
0.959282
0.977261
0.930715
0.940152
0.971134
0.970327
0.992152
0.99216
0.992157
0.992058
0.990425
0.895931
0.82145
0.817297
0.886444
0.971324
0.973669
0.993052
0.995132
0.995133
0.995134
0.995133
0.995132
0.995132
0.995132
0.995131
0.994861
0.989361
0.992649
0.992634
0.992611
0.948066
0.907247
0.987663
0.987528
0.987455
0.978939
0.897341
0.930102
0.977256
0.977266
0.977263
0.977261
0.97446
0.973126
0.963354
0.979717
0.992152
0.992137
0.992066
0.990507
0.980661
0.889635
0.817613
0.814386
0.865366
0.994843
0.99513
0.995131
0.995133
0.995134
0.993511
0.992153
0.995132
0.995133
0.988293
0.979236
0.992645
0.992688
0.99266
0.992634
0.974995
0.958559
0.987783
0.987137
0.968916
0.978825
0.941579
0.977234
0.977266
0.977266
0.977266
0.97369
0.94203
0.962869
0.958933
0.78663
0.831357
0.869598
0.84575
0.841182
0.841182
0.842584
0.905356
0.814733
0.814386
0.814958
0.915593
0.99513
0.989055
0.977564
0.976894
0.976923
0.986688
0.980259
0.970458
0.97709
0.992768
0.992733
0.992692
0.99266
0.992634
0.992411
0.988568
0.919775
0.915315
0.930427
0.97606
0.977123
0.977266
0.977263
0.971431
0.892232
0.948694
0.967152
0.959194
0.792816
0.798557
0.800145
0.922253
0.967073
0.946317
0.939905
0.938614
0.921313
0.914253
0.933948
0.961384
0.974624
0.980736
0.987282
0.992055
0.988363
0.962207
0.955968
0.9702
0.993287
0.992838
0.992762
0.992733
0.992692
0.944724
0.903683
0.901731
0.902274
0.917742
0.920467
0.872798
0.929313
0.977217
0.977099
0.836827
0.730157
0.917207
0.967559
0.96782
0.85675
0.842512
0.979899
0.992826
0.992923
0.992923
0.992923
0.992903
0.986965
0.98269
0.993523
0.993658
0.993795
0.993827
0.99383
0.993829
0.965403
0.955967
0.955973
0.990151
0.993314
0.991073
0.920871
0.889249
0.884912
0.88258
0.882675
0.916261
0.916323
0.887699
0.661826
0.63906
0.965519
0.976945
0.918925
0.640628
0.547087
0.497862
0.96782
0.96782
0.92565
0.985271
0.992362
0.992433
0.991035
0.991903
0.992903
0.992662
0.990704
0.988574
0.991845
0.992783
0.989711
0.993795
0.993827
0.99383
0.976822
0.955973
0.955969
0.9858
0.993497
0.993079
0.958929
0.911574
0.930485
0.948896
0.948745
0.948559
0.865695
0.359285
0.169339
0.2622
0.779186
0.813023
0.583929
0.450615
0.327581
0.332142
0.937994
0.96782
0.790843
0.986811
0.988074
0.938474
0.938558
0.94485
0.98916
0.926941
0.872176
0.909181
0.947877
0.902853
0.906137
0.944301
0.98846
0.993807
0.993523
0.97781
0.955973
0.982324
0.993686
0.9937
0.992501
0.9907
0.981982
0.970009
0.904137
0.831422
0.568091
0.17638
0.168824
0.168887
0.203237
0.167252
0.167253
0.167494
0.167977
0.568743
0.94536
0.967638
0.471617
0.74997
0.97244
0.964555
0.953618
0.947287
0.835387
0.733811
0.734738
0.843816
0.919792
0.856384
0.856384
0.856384
0.88369
0.973642
0.993349
0.993116
0.990241
0.991843
0.9937
0.993707
0.993701
0.947402
0.918025
0.751252
0.623502
0.700924
0.616929
0.408053
0.168887
0.168038
0.167252
0.167252
0.167252
0.167736
0.219984
0.86463
0.951688
0.947802
0.469779
0.515338
0.926045
0.955665
0.952635
0.815753
0.733811
0.73363
0.733811
0.768755
0.862309
0.868528
0.85903
0.858209
0.860243
0.861207
0.964215
0.993176
0.993678
0.993695
0.993707
0.993708
0.993708
0.993697
0.818875
0.623502
0.622934
0.622934
0.627761
0.752914
0.740521
0.37725
0.18853
0.261553
0.246355
0.368178
0.794449
0.94608
0.949014
0.871888
0.795408
0.785874
0.759524
0.849363
0.933972
0.73626
0.73363
0.733811
0.735191
0.736943
0.757415
0.887367
0.887867
0.887832
0.864674
0.865075
0.938009
0.992454
0.993497
0.993681
0.993706
0.993708
0.993708
0.993708
0.94996
0.82327
0.65485
0.622934
0.624806
0.816648
0.80494
0.797763
0.787895
0.825128
0.823994
0.833543
0.942172
0.942653
0.875533
0.871888
0.902198
0.903685
0.899668
0.903761
0.903166
0.794309
0.815241
0.820793
0.761299
0.73639
0.739275
0.845109
0.887367
0.887964
0.886578
0.882089
0.71607
0.635973
0.860606
0.993497
0.993682
0.993706
0.993708
0.993682
0.984609
0.947575
0.862625
0.750939
0.843626
0.956086
0.964146
0.96546
0.96546
0.96546
0.965451
0.891027
0.806864
0.927942
0.874032
0.871888
0.903661
0.903661
0.903812
0.903884
0.90389
0.904053
0.904061
0.904053
0.904053
0.762016
0.740167
0.83147
0.884562
0.886578
0.86904
0.740179
0.366106
0.320079
0.335335
0.731094
0.992373
0.993522
0.993682
0.993675
0.943468
0.861631
0.859541
0.886725
0.94791
0.950528
0.755876
0.711303
0.920811
0.965451
0.965325
0.781701
0.657217
0.793618
0.920167
0.878871
0.547522
0.694119
0.857239
0.868382
0.900183
0.90389
0.904053
0.904065
0.90368
0.812104
0.74436
0.844051
0.87946
0.819607
0.45153
0.319603
0.319381
0.319385
0.319385
0.319734
0.331114
0.451592
0.808601
0.980092
0.935874
0.865171
0.861166
0.909788
0.93912
0.918259
0.651912
0.580393
0.57194
0.637973
0.957022
0.731341
0.65471
0.768158
0.922262
0.953777
0.463664
0.463857
0.463808
0.463709
0.614749
0.887885
0.903514
0.90368
0.872578
0.811129
0.869593
0.879279
0.790087
0.357729
0.31957
0.319381
0.319382
0.319381
0.319385
0.319433
0.319734
0.320356
0.323502
0.394392
0.815844
0.905698
0.91396
0.922938
0.928144
0.783717
0.58039
0.571932
0.569529
0.571933
0.902437
0.732735
0.649772
0.654762
0.918368
0.95431
0.463531
0.463809
0.463766
0.463574
0.463457
0.668398
0.899833
0.894211
0.746299
0.867254
0.892459
0.891058
0.386934
0.320638
0.320114
0.319606
0.319379
0.319385
0.319433
0.322514
0.668352
0.873942
0.879316
0.875416
0.894469
0.902141
0.906472
0.823501
0.784448
0.741165
0.581213
0.569911
0.571829
0.709575
0.88646
0.72668
0.646387
0.647022
0.901879
0.955062
0.463386
0.463586
0.463826
0.463772
0.463597
0.671416
0.885714
0.71185
0.739747
0.892459
0.892725
0.848368
0.335449
0.321199
0.32065
0.320076
0.319742
0.319584
0.462055
0.80156
0.868119
0.878007
0.883295
0.893665
0.893595
0.879833
0.707307
0.706352
0.706352
0.768234
0.782363
0.773705
0.56003
0.539165
0.856417
0.646387
0.646387
0.646387
0.921676
0.955437
0.463575
0.463805
0.463819
0.463144
0.567425
0.854263
0.642355
0.616686
0.868309
0.892725
0.892865
0.892043
0.42949
0.324542
0.321248
0.467359
0.557702
0.593677
0.444136
0.353174
0.429026
0.578363
0.428705
0.329059
0.475358
0.758982
0.778399
0.779783
0.781522
0.782373
0.782337
0.774805
0.535717
0.537441
0.682044
0.8752
0.646387
0.690616
0.938133
0.955616
0.738772
0.730287
0.469545
0.588
0.916735
0.86778
0.550223
0.603035
0.881236
0.892695
0.893005
0.892872
0.603773
0.331561
0.465374
0.765253
0.74826
0.673211
0.671791
0.341378
0.328251
0.328161
0.328257
0.328508
0.329021
0.553304
0.781411
0.781792
0.781411
0.766155
0.60919
0.535717
0.535717
0.535717
0.831265
0.90788
0.745774
0.708894
0.938594
0.955664
0.788204
0.529643
0.49067
0.524614
0.936843
0.853204
0.536857
0.50491
0.75611
0.891564
0.892762
0.892931
0.735346
0.343364
0.491055
0.780543
0.868185
0.87049
0.870128
0.646073
0.328153
0.328119
0.369742
0.329498
0.330109
0.561116
0.741481
0.580226
0.567211
0.545811
0.543499
0.54192
0.574746
0.838115
0.90788
0.907761
0.747488
0.763955
0.951174
0.955629
0.513137
0.513187
0.551022
0.897859
0.971655
0.964095
0.566209
0.497939
0.665835
0.889153
0.891564
0.892762
0.815843
0.376912
0.34543
0.612161
0.737336
0.806971
0.87049
0.774691
0.328109
0.328109
0.328177
0.328317
0.329446
0.520307
0.861638
0.623384
0.557336
0.552538
0.650585
0.806103
0.887643
0.896603
0.898597
0.793459
0.792503
0.900468
0.956052
0.933389
0.513187
0.741565
0.981229
0.97853
0.97583
0.731367
0.461431
0.481785
0.782282
0.886331
0.88915
0.891446
0.797619
0.333706
0.306587
0.30641
0.322857
0.507842
0.869931
0.789124
0.328159
0.328109
0.328224
0.329247
0.37505
0.836647
0.912849
0.902357
0.81074
0.825551
0.883564
0.888926
0.89001
0.829669
0.770475
0.771464
0.783468
0.989309
0.956188
0.9207
0.982036
0.983188
0.981996
0.981229
0.78402
0.420528
0.445778
0.703432
0.87118
0.878278
0.88634
0.809598
0.511347
0.306587
0.30641
0.30641
0.30641
0.542459
0.867473
0.614255
0.328452
0.328224
0.328638
0.33143
0.621483
0.912849
0.912849
0.912849
0.912149
0.909263
0.883676
0.774934
0.772584
0.770475
0.770475
0.770475
0.921641
0.990484
0.928284
0.920683
0.983657
0.983636
0.983188
0.685144
0.3676
0.40889
0.731861
0.846528
0.860994
0.871172
0.78491
0.388017
0.395364
0.428613
0.306587
0.30641
0.346552
0.806986
0.85633
0.444114
0.328594
0.328517
0.329431
0.432859
0.904761
0.911902
0.912231
0.819665
0.761484
0.764689
0.769224
0.771164
0.771164
0.771017
0.837444
0.940811
0.990877
0.990911
0.940924
0.92069
0.983636
0.976956
0.510494
0.335731
0.349218
0.805023
0.837615
0.824829
0.753546
0.717267
0.525845
0.36985
0.441243
0.436157
0.306689
0.306941
0.445332
0.911385
0.53406
0.331339
0.328593
0.336696
0.714932
0.803413
0.847745
0.754462
0.753977
0.757023
0.758969
0.759294
0.787181
0.890483
0.901743
0.950195
0.986087
0.990877
0.990915
0.990911
0.986639
0.945392
0.916783
0.410246
0.322156
0.326805
0.780664
0.857947
0.846924
0.706588
0.709415
0.792098
0.675525
0.376021
0.437866
0.37749
0.30708
0.30874
0.614542
0.960647
0.497367
0.334495
0.732967
0.947821
0.891353
0.752903
0.752646
0.752646
0.752646
0.753945
0.901439
0.945896
0.966175
0.986903
0.988966
0.985796
0.98422
0.972817
0.985339
0.986352
0.956516
0.94509
0.317507
0.317507
0.317507
0.701255
0.863023
0.860485
0.70589
0.706588
0.776558
0.792098
0.534213
0.306067
0.306982
0.311721
0.307393
0.494443
0.967252
0.9762
0.818841
0.822327
0.985027
0.986104
0.885573
0.753542
0.752903
0.752646
0.895051
0.980316
0.982451
0.983574
0.984695
0.989265
0.993984
0.97818
0.946673
0.946248
0.945672
0.945206
0.94509
0.945094
0.324909
0.317507
0.65924
0.866444
0.864733
0.854257
0.63803
0.759927
0.935575
0.666147
0.305875
0.305934
0.30607
0.306973
0.323479
0.817837
0.989457
0.989326
0.989159
0.988978
0.988834
0.988341
0.974862
0.863171
0.824901
0.958577
0.98685
0.981877
0.979587
0.992706
0.994414
0.99442
0.994462
0.991295
0.983979
0.980941
0.981599
0.980372
0.973225
0.980655
0.754622
0.822641
0.866444
0.866444
0.866444
0.564661
0.650535
0.970259
0.934725
0.408049
0.305708
0.305821
0.305934
0.307037
0.426748
0.978533
0.989525
0.989457
0.989326
0.989159
0.988992
0.988836
0.987366
0.957176
0.961904
0.993076
0.993732
0.994175
0.994324
0.994414
0.99442
0.994462
0.994501
0.994503
0.994503
0.994519
0.994505
0.994505
0.994506
0.994507
0.892859
0.871684
0.862638
0.859377
0.663646
0.528278
0.686078
0.970259
0.755783
0.305708
0.305708
0.305708
0.306016
0.308932
0.715019
0.989525
0.989525
0.989525
0.989259
0.988581
0.976239
0.936209
0.935607
0.935127
0.934555
0.936898
0.981706
0.994042
0.994071
0.993907
0.990355
0.986993
0.990639
0.994503
0.994503
0.994508
0.994506
0.994506
0.994507
0.994507
0.384684
0.40822
0.431739
0.337692
0.346841
0.599679
0.975973
0.943022
0.464575
0.305915
0.305708
0.305915
0.307964
0.561198
0.990247
0.989969
0.989372
0.968046
0.967168
0.967679
0.968286
0.97963
0.980181
0.938724
0.934736
0.934636
0.972183
0.922771
0.873789
0.873315
0.872969
0.872883
0.926338
0.99388
0.994503
0.994515
0.994505
0.994505
0.994514
0.994507
0.319108
0.319115
0.319158
0.32066
0.494538
0.971467
0.983533
0.936161
0.427916
0.306186
0.305915
0.307968
0.706862
0.977527
0.990967
0.990754
0.976831
0.966981
0.966902
0.971364
0.985606
0.985606
0.985606
0.985557
0.982652
0.986992
0.989083
0.989119
0.98954
0.988509
0.924093
0.872883
0.872616
0.904159
0.994515
0.994508
0.994517
0.994513
0.994519
0.994506
0.318974
0.319108
0.320826
0.46793
0.962265
0.989871
0.988637
0.976817
0.642
0.352712
0.506697
0.87514
0.99015
0.991047
0.99108
0.9911
0.990587
0.975416
0.968252
0.981369
0.984683
0.97105
0.953711
0.971503
0.980003
0.986812
0.989392
0.989586
0.989586
0.989586
0.989573
0.981432
0.889495
0.896111
0.994504
0.99451
0.994481
0.994413
0.994374
0.994224
0.319355
0.320668
0.420025
0.90746
0.990074
0.990166
0.99
0.984321
0.950329
0.923758
0.954407
0.99078
0.991093
0.991082
0.991059
0.991056
0.991067
0.991026
0.990229
0.986844
0.75097
0.438027
0.427518
0.427015