/*--------------------------------*- C++ -*----------------------------------*\
  =========                 |
  \\      /  F ield         | OpenFOAM: The Open Source CFD Toolbox
   \\    /   O peration     | Website:  https://openfoam.org
    \\  /    A nd           | Version:  8
     \\/     M anipulation  |
\*---------------------------------------------------------------------------*/
FoamFile
{
    version     2.0;
    format      ascii;
    class       volScalarField;
    location    "6.05";
    object      p;
}
// * * * * * * * * * * * * * * * * * * * * * * * * * * * * * * * * * * * * * //

dimensions      [1 -1 -2 0 0 0 0];

internalField   nonuniform List<scalar> 
9150
(
-205.465
-206.472
-207.115
-207.583
-207.818
-207.811
-207.573
-207.113
-206.477
-205.469
-225.526
-226.036
-226.463
-226.778
-226.948
-226.972
-226.795
-226.466
-226.039
-225.528
-245.418
-245.697
-245.955
-246.174
-246.283
-246.284
-246.17
-245.953
-245.698
-245.42
-265.157
-265.33
-265.5
-265.66
-265.741
-265.734
-265.653
-265.499
-265.33
-265.158
-284.78
-284.957
-285.094
-285.223
-285.284
-285.283
-285.222
-285.093
-284.957
-284.781
-119.583
-120.278
-119.901
-119.541
-119.363
-119.388
-119.598
-119.984
-120.337
-119.631
-134.984
-135.701
-135.83
-135.891
-135.787
-135.801
-135.887
-135.831
-135.699
-134.986
-151.43
-152.19
-152.492
-152.853
-152.92
-152.911
-152.841
-152.484
-152.181
-151.425
-168.27
-169.434
-169.915
-170.531
-170.721
-170.716
-170.54
-169.929
-169.445
-168.281
-185.377
-187.395
-188.171
-188.844
-189.131
-189.128
-188.854
-188.182
-187.401
-185.383
-25.9289
-26.9897
-29.0224
-30.1075
-30.5919
-30.5424
-29.9362
-28.9164
-27.2212
-26.387
-46.0192
-46.2833
-47.2931
-47.6892
-48.2009
-48.2493
-47.8232
-47.509
-46.5578
-46.3277
-66.2635
-66.0918
-67.1458
-66.837
-67.2577
-67.2767
-66.7824
-67.2611
-66.2338
-66.4618
-89.086
-86.215
-87.1397
-85.6963
-85.8147
-85.8464
-85.7665
-87.2472
-86.3124
-89.1967
-114.31
-105.122
-104.519
-103.277
-102.834
-102.828
-103.274
-104.551
-105.17
-114.415
1179.67
1179.92
1180.51
1180.77
1181.05
1181.23
1181.31
1181.33
1181.47
1181.59
1160.06
1160.36
1160.62
1161.09
1161.38
1161.5
1161.83
1161.87
1161.87
1162.03
1140.3
1140.6
1140.83
1141.19
1141.54
1141.85
1142.11
1142.66
1142.21
1142.45
1120.18
1120.48
1120.81
1121.13
1121.55
1121.89
1122.18
1123.08
1122.54
1122.73
1100.02
1100.29
1100.66
1100.96
1101.35
1101.63
1101.92
1102.89
1102.59
1102.7
1079.72
1080.09
1080.39
1080.69
1080.98
1081.26
1081.53
1082.26
1082.09
1082.25
1059.31
1059.73
1060.06
1060.4
1060.73
1061.02
1061.22
1061.48
1061.7
1061.95
1038.7
1039.17
1039.66
1040.29
1040.56
1040.85
1040.78
1040.8
1041.05
1041.5
1017.98
1018.56
1019.04
1020.01
1020.66
1021.12
1020.9
1020.31
1020.11
1020.73
1000.24
1001.08
1002.47
1001.67
1002.97
1003.44
1004.33
1004.83
1000.28
999.224
982.7
982.905
986.233
986.968
987.448
989.898
989.036
986.645
984.448
983.49
962.569
964.852
966.425
966.426
966.171
966.993
967.134
967.169
965.294
969.869
942.734
943.017
944.341
945.213
945.036
944.758
944.618
944.1
943.726
944.962
925.756
924.156
923.277
923.758
923.385
922.798
922.726
923.773
923.516
924.931
905.041
903.827
907.671
904.141
905.299
905.635
903.114
903.954
903.061
903.12
885.147
882.79
884.898
884.663
885.851
886.4
888.341
889.644
885.711
888.028
861.854
864.44
863.044
865.272
865.903
865.979
872.032
869.521
871.566
872.496
842.897
845.166
844.148
846.393
847.328
847.861
852.193
850.301
856.109
854.825
822.047
824.092
826.974
829.038
828.798
829.881
831.723
832.113
841.029
834.057
800.952
803.49
805.403
807.447
808.983
810.317
811.447
812.16
816.283
814.932
784.798
785.397
785.265
787.096
788.621
789.749
790.94
792.33
794.456
796.162
758.182
761.803
764.454
766.605
768.068
769.071
770.087
771.857
774.144
776.289
740.898
742.62
743.602
745.09
745.365
746.59
748.289
750.51
752.868
754.985
722.449
722.557
723.205
724.194
725.127
729.285
730.817
730.59
733.019
735.181
702.302
701.991
703.415
706.44
707.796
708.691
709.866
711.287
712.715
713.201
678.808
679.024
681.18
686.452
684.776
685.017
686.884
689.863
692.115
693.439
653.916
654.386
654.478
655.505
659.142
662.185
664.389
667.067
668.879
670.641
627.539
627.885
629.51
629.257
627.001
628.526
635.569
643.455
647.342
647.187
602.281
601.711
606.28
612.187
608.855
606.594
609.532
611.684
612.631
614.124
585.31
583.271
576.615
582.88
581.957
574.689
572.587
576.312
584.559
587.2
559.744
555.927
549.261
562.618
556.78
546.182
545.777
548.423
553.211
556.328
546.86
543.781
540.819
560.051
543.224
541.687
536.213
531.762
528.856
526.328
531.872
531.66
537.456
549.888
537.597
539.853
534.213
524.116
512.341
499.657
513.351
508.72
515.032
525.161
528.151
534.437
525.471
508.032
489.847
475.308
495.189
489.226
490.495
502.901
509.95
513.515
503.484
487.534
467.446
447.742
480.473
476.353
473.793
477.724
483.346
487.054
480.269
465.578
450.874
435.638
469.384
465.493
461.947
460.462
464.276
466.604
460.261
452.543
446.393
439.552
461.3
458.572
456.516
454.665
454.457
457.06
451.742
448.299
445.874
442.438
454.64
453.542
452.733
451.273
449.733
452.571
445.755
445.321
444.419
441.973
455.216
447.104
448.375
445.46
442.537
446.535
436.808
440.064
439.348
436.946
441.513
442.887
442.368
441.352
434.778
433.39
431.356
434.097
429.066
427.082
439.562
437.961
434.526
435.581
433.221
430.225
427.541
425.753
424.304
424.351
421.83
421.173
422.92
422.561
418.823
415.999
412.617
411.752
410.525
408.522
407.579
406.733
402.803
401.815
407.147
407.277
407.043
406.008
404.458
402.834
394.571
396.096
397.071
397.256
395.054
392.854
394.699
396.177
395.235
387.04
380.408
382.538
383.56
384.244
386.526
385.982
384.145
381.167
378.049
374.779
372.237
370.828
371.548
371.202
372.641
372.947
372.263
370.545
368.054
363.732
356.231
356.931
356.81
357.852
359.289
360.463
360.458
360.21
359.433
354.52
337.707
334.903
334.28
335.535
338.637
346.335
350.436
352.39
351.195
347.589
319.591
321.112
325.138
328.987
333.247
333.237
336.526
338.629
339.481
340.048
309.59
309.772
309.348
303.768
297.959
302.739
305.962
306.429
305.073
300.666
283.813
281.377
277.641
271.739
258.535
250.963
248.702
244.384
231.055
214.684
263.031
261.447
257.694
250.301
237.127
205.113
177.69
154.647
138.806
133.915
239.207
242.197
242.53
237.933
213.697
166.894
134.638
121.582
107.971
99.1528
214.501
222.495
227.186
228.01
195.861
155.274
135.314
119.927
107.506
99.1251
188.91
199.861
210.742
213.351
176.7
144.937
144.562
138.152
132.003
128.555
163.455
172.636
183.001
176.78
163.636
160.763
161.462
155.665
154.037
154.107
139.36
146.848
154.377
158.371
159.03
168.355
172.465
167.273
165.483
165.948
118.162
122.643
125.34
136.479
152.49
177.308
172.158
172.621
167.61
162.15
102.898
105.697
109.315
114.227
141.033
172.092
174.43
183.866
163.792
162.575
96.875
105.896
112.942
107.969
142.14
164.462
195.508
180.166
165.41
168.787
96.4179
109.981
120.834
123.532
141.221
159.391
203.779
157.775
171.665
151.337
98.1029
109.597
116.988
126.287
122.48
116.091
151.173
140.087
166.884
152.124
80.1885
99.779
102.493
101.782
112.123
120.34
143.048
112.705
119.671
121.392
47.0587
59.6054
67.4154
87.828
105.462
123.719
146.941
113.149
108.359
105.004
20.8663
39.4506
52.7152
97.0357
82.4301
97.4156
147.306
93.838
82.8504
77.8409
28.4728
29.8542
36.687
47.9779
77.6476
71.6954
93.9907
79.0044
54.3205
51.7326
19.0313
17.684
17.6929
22.5773
66.3754
62.2128
60.0953
58.3451
40.9159
35.5892
-0.548857
-1.50185
1.61721
11.7504
54.01
42.3032
40.5546
39.2108
22.9113
18.191
-1.06788
-2.07284
-1.68049
1.64516
44.6532
30.9364
27.8351
25.4507
25.1624
-1.94972
-1.75034
-1.89188
-6.54779
-6.72502
37.38
25.1117
19.1961
17.7988
23.0309
-1.37412
-1.43628
-1.51475
-3.15628
-5.17825
26.1063
28.2632
4.15538
1.95308
1.82109
-1.30824
-1.36888
-1.38957
-1.58869
-2.9764
23.5615
24.5468
-3.58992
-2.87544
-1.1817
-1.39936
-1.3186
-1.29816
-0.943206
-2.10942
24.3071
24.3525
-2.57863
-2.01438
-1.4972
-1.46861
-1.21878
-1.21819
-1.05767
-1.84064
14.2134
34.4939
-2.05223
-1.03917
-1.29932
-1.42154
-1.31643
-1.31061
-1.28877
-1.5015
12.7484
37.1109
-1.7353
-1.26478
-1.34013
-1.41101
-1.38035
-1.37026
-1.36101
-1.34319
20.7445
30.1713
-1.63631
-1.46534
-1.48167
-1.50282
-1.40402
-1.4001
-1.40405
-1.42807
30.3996
19.5495
-1.52208
-1.52506
-1.53154
-1.5494
-1.42264
-1.42329
-1.43572
-1.4879
33.0191
15.3834
-1.52413
-1.55492
-1.57243
-1.58417
-1.43896
-1.43775
-1.44435
-1.47344
25.7643
22.6604
-1.59805
-1.59366
-1.60084
-1.61033
-1.45375
-1.44789
-1.4403
-1.42723
15.2047
31.3786
-1.65747
-1.62217
-1.61937
-1.63256
-1.47658
-1.46114
-1.44966
-1.43322
14.2889
30.8612
-1.66235
-1.63346
-1.63239
-1.64376
-1.50686
-1.49606
-1.47846
-1.45098
15.2135
28.2033
-1.65954
-1.63618
-1.62834
-1.64875
-1.54357
-1.545
-1.53768
-1.54985
25.8159
16.0271
-1.6101
-1.61925
-1.62526
-1.6514
-1.57565
-1.5785
-1.57643
-1.62577
28.493
12.1046
-1.62504
-1.62408
-1.64348
-1.66704
-1.60596
-1.59569
-1.57915
-1.60928
14.4133
24.4885
-1.74569
-1.67627
-1.67242
-1.69067
-1.64184
-1.62432
-1.61794
-1.71122
14.5499
21.9246
-1.78271
-1.71202
-1.70625
-1.71323
-1.6774
-1.66288
-1.66053
-1.74071
13.3379
20.9739
-1.86263
-1.74275
-1.73457
-1.73493
-1.70599
-1.70292
-1.71002
-1.79687
19.8547
9.58621
-1.82525
-1.74221
-1.74573
-1.74902
-1.71976
-1.70671
-1.70739
-1.70169
11.2011
13.3433
-1.76406
-1.75619
-1.75435
-1.76388
-1.72925
-1.71579
-1.72217
-1.74543
10.4108
9.01328
-1.75087
-1.77135
-1.77213
-1.77868
-1.75335
-1.74999
-1.75662
-1.83722
8.82505
5.51574
-2.07999
-1.79176
-1.80337
-1.80389
-1.78567
-1.78124
-1.78054
-1.63419
4.05975
4.45634
-2.69226
-1.84584
-1.82505
-1.83246
-1.8103
-1.81245
-1.88142
-2.47817
1.22719
2.26758
-1.93859
-1.89711
-1.85101
-1.85055
-1.83938
-1.83992
-2.0079
-2.31403
-0.15142
0.757065
-1.45297
-1.99093
-1.88109
-1.87761
-1.86843
-1.86997
-2.19797
-1.40339
-0.386395
-0.0777554
-1.55051
-2.42552
-1.90819
-1.9008
-1.88876
-1.88337
-3.11506
-2.06168
-1.05336
-0.768185
-1.55328
-3.48211
-1.88255
-1.91036
-1.90224
-2.25386
-4.06664
-2.0931
-1.58482
-1.96462
-3.23159
-4.91097
-2.58942
-1.9327
-1.92934
-4.21393
-6.06679
-6.10072
-6.08108
-6.00361
-5.6081
-5.18931
-4.01731
-1.94317
-2.69905
-9.87896
-13.1031
-15.0158
-15.8256
-15.9172
-15.3035
-13.5742
-10.3262
-2.93879
1181.71
1181.84
1181.96
1182.09
1182.26
1182.43
1182.6
1182.78
1182.99
1183.2
1183.31
1183.63
1183.81
1183.71
1186.45
1180.49
1179.82
1179.05
1177.96
1177.05
1176.1
1173.05
1171.71
1172.22
1173.54
1174.41
1176.31
1179.36
1181.75
1183.57
1184.3
1183.4
1181.72
1179.47
1179.44
1179.01
1178.74
1180.15
1180.57
1181.41
1162.15
1162.28
1162.4
1162.53
1162.68
1162.91
1163.07
1163.24
1163.41
1163.61
1163.79
1163.94
1163.96
1163.89
1166.72
1161.16
1160.08
1158.83
1156.95
1155.68
1154.65
1152.82
1151.23
1150.13
1152.5
1153.75
1155.21
1157.26
1159.25
1160.79
1161.53
1161.22
1161.36
1161.73
1161.25
1160.52
1159.07
1158.54
1157.94
1158.49
1142.64
1142.75
1142.81
1142.91
1143.1
1143.36
1143.31
1143.48
1143.63
1143.79
1143.95
1144.04
1143.94
1143.11
1148.2
1140.9
1140.66
1138.81
1136.62
1135.4
1133.62
1131.52
1129.3
1127.63
1129.54
1130.28
1131.58
1133.52
1135.72
1137.38
1138.81
1139.81
1140.85
1143.25
1143.94
1143.61
1143.37
1143.43
1143.86
1144.42
1122.86
1122.97
1123.06
1123.18
1123.37
1123.48
1123.62
1123.74
1123.84
1123.91
1123.96
1123.93
1123.74
1122.99
1127.76
1121.25
1120.16
1119.3
1116.07
1114.92
1112.51
1110.02
1107.98
1107.21
1108.03
1109.39
1109.48
1111.43
1113.48
1115.95
1117.81
1119.87
1122.06
1124.17
1125
1126.71
1127.21
1126.98
1127.1
1127.21
1102.81
1102.79
1102.95
1103.04
1103.22
1103.43
1103.73
1103.93
1104.12
1104.23
1104.31
1104.2
1103.8
1102.88
1105.77
1102.5
1099.98
1098.12
1095.87
1093.61
1090.83
1088.52
1087.08
1086.57
1086.6
1087.94
1089.54
1090.94
1093.65
1096.04
1097.72
1099.86
1102.06
1103.95
1105.34
1106.07
1107.32
1107.39
1107.49
1107.57
1082.46
1082.62
1083.03
1083.12
1083.57
1084.24
1084.31
1084.46
1084.78
1085.3
1085.47
1085.62
1085.44
1085.19
1085.14
1083.72
1080.19
1078
1076.18
1073.71
1071.3
1069.44
1067.97
1067.03
1067.67
1068.24
1069.59
1071.44
1073.93
1077.44
1077.72
1079.77
1081.7
1083.38
1084.62
1085.39
1085.96
1086.48
1086.59
1086.71
1062.4
1063.04
1063.55
1064.05
1064.54
1064.94
1065.67
1067.33
1065.56
1066.54
1067.06
1067.18
1067.27
1066.86
1066.3
1066.65
1064.33
1060.19
1057.54
1055.1
1052.42
1050.18
1050.58
1050.37
1049.05
1049.99
1051.6
1053.68
1055.76
1057.59
1059.35
1060.79
1062.12
1063.11
1064.65
1064.83
1065.34
1065.7
1065.85
1067.61
1042.07
1042.88
1043.82
1044.82
1045.73
1046.41
1047.75
1048.18
1046.85
1047.89
1048.54
1048.63
1048.56
1048.29
1047.55
1047.31
1048.45
1042.56
1040.02
1037.83
1035.78
1033.98
1033.09
1032.87
1033.29
1034.68
1036.42
1038.13
1039.71
1041.68
1041.58
1042.2
1042.9
1043.34
1044.59
1044.16
1044.6
1044.73
1044.66
1045.47
1021.88
1023.14
1024.38
1025.61
1027.6
1027.78
1029.35
1029.85
1028.88
1029.41
1029.82
1029.87
1029.56
1029.62
1029.03
1028.35
1026.98
1025.78
1024.08
1022.74
1021.55
1020.62
1019.97
1019.65
1019.77
1020.39
1021.37
1022.5
1023.37
1024.72
1023.78
1024.03
1024.03
1023.76
1024.01
1023.54
1023.57
1023.6
1023.71
1023.84
999.948
1001.17
1004.16
1005.5
1008.59
1009.84
1012.58
1012.66
1011.12
1011.45
1011.01
1011.15
1011.16
1010.91
1010.81
1010.38
1009.58
1008.71
1007.88
1007.12
1006.45
1005.86
1005.37
1005.02
1004.91
1005.09
1005.43
1005.8
1007.3
1006.71
1006.23
1005.71
1004.61
1004.05
1003.13
1002.16
1001.44
1001.78
1002.34
1002.61
984.284
985.438
985.541
987.862
990.642
992.242
993.262
993.186
993.474
992.893
992.856
992.773
992.523
992.581
992.387
991.927
991.493
991.04
990.637
990.298
990.058
989.924
989.624
989.241
988.921
988.814
988.629
989.582
989.139
988.826
988.213
986.827
985.769
984.515
982.662
982.131
983.448
981.739
981.452
982.454
967.744
965.526
967.185
969.154
970.856
972.589
973.779
974.556
974.694
974.529
974.77
973.879
973.925
973.383
973.665
972.827
972.666
972.648
972.725
972.802
972.875
972.772
972.286
971.748
971.402
971.44
971.506
970.89
970.756
970.314
969.407
968.415
967.186
965.629
964.662
964.228
963.661
962.472
961.118
962.308
944.545
945.493
946.599
948.07
949.393
951.14
953.253
954.822
955.446
955.414
955.29
955.354
955.074
955.151
955.242
954.744
954.478
954.589
954.674
954.746
954.732
954.526
954.113
953.85
954.336
953.919
952.834
952.448
952.113
951.484
950.636
949.622
948.299
947.019
946.407
945.784
945.199
944.039
943.545
943.973
924.451
924.495
924.949
925.534
925.77
927.06
931.095
934.171
935.244
935.518
935.871
936.232
936.32
936.259
937.684
937.582
936.503
936.556
936.584
936.553
936.413
936.107
935.684
935.977
935.414
934.512
934.032
933.582
933.009
932.347
931.416
930.458
929.095
928.568
928.472
927.973
927.331
926.803
926.764
927.347
903.739
903.299
902.828
903.224
903.863
907.867
911.514
912.293
914.395
915.678
916.249
916.806
917.573
917.879
918.442
920.642
918.58
918.625
918.637
918.433
918.265
917.898
917.327
916.898
916.334
915.828
915.278
914.692
914.1
914.129
913.457
911.468
910.483
910.352
910.059
909.516
909.092
908.711
909.126
909.758
886.808
886.974
887.678
887.216
887.852
890.272
893.516
894.093
896.172
897.988
898.712
899.963
899.167
899.988
900.659
901.296
901.051
900.958
900.862
900.607
900.248
899.689
899.073
898.442
897.753
897.103
896.546
896.011
895.807
895.592
894.47
893.31
892.216
891.867
891.17
890.3
889.498
890.737
890.586
889.824
871.526
871.039
871.569
873.037
874.234
875.875
877.664
877.153
879.604
879.103
882.779
882.037
882.502
883.008
883.357
883.786
883.875
883.723
883.352
882.914
882.375
881.633
880.782
879.936
878.994
877.924
876.874
875.562
874.283
873.988
874.81
875.028
873.689
873.488
872.76
869.633
869.976
866.825
861.926
859.93
854.863
855.703
855.227
856.895
859.118
859.537
859.813
861.369
861.61
864.09
865.024
865.77
866.173
866.529
867.1
866.798
866.703
866.453
866.051
865.381
864.744
863.914
862.669
861.779
861.25
860.433
861.685
861.242
857.839
854.308
857.614
856.582
855.024
857.291
852.94
856.022
852.251
847.791
849.397
850.775
835.378
836.379
837.129
838.147
839.357
841.049
841.843
842.039
845.463
846.421
849.203
849.554
850.932
852.464
849.859
849.815
849.696
849.195
848.636
848.163
847.425
846.985
845.41
844.639
844.78
845.436
846.106
846.179
843.286
840.896
841.404
840.445
838.908
840.045
843.045
840.908
838.073
838.824
839.776
840.491
816.131
817.348
818.53
819.697
821.125
821.488
823.182
826.539
827.671
830.632
831.864
832.358
835.556
835.416
834.138
833.716
833.084
832.298
831.404
830.401
831.05
830.907
829.936
829.528
829.092
828.16
828.378
827.61
826.264
825.814
824.033
823.429
823.649
823.552
823.337
824.724
827.019
829.767
830.532
831.444
797.391
798.178
799.94
800.512
802.516
804.293
806.12
808.659
810.81
812.218
814.249
816.501
817.833
818.306
817.909
817.44
816.723
815.894
815.12
814.647
815.951
815.419
814.233
812.893
811.989
811.257
809.568
809.225
807.667
805.924
805.206
804.821
806.983
809.671
813.79
819.846
821.719
822.104
819.025
828.275
778.124
779.4
781.011
782.097
784.366
786.13
788.287
790.569
792.442
795.953
798.26
800.117
801.385
801.779
801.471
800.812
800.052
799.214
798.494
797.751
798.068
797.739
796.792
795.153
795.595
795.246
791.802
790.365
788.657
787.421
786.538
787.946
796.095
799.52
797.643
802.934
809.829
808.11
803.123
809.722
757.106
759.47
761.329
763.099
765.056
767.135
770.749
774.01
776.889
779.802
782.302
783.936
785.346
785.735
785.455
784.729
783.779
782.83
782.155
781.521
780.642
779.524
778.265
776.948
775.441
774.715
774.907
770.971
769.11
767.203
766.029
768.524
779.995
773.246
783.289
784.82
783.034
783.458
784.63
787.829
737.583
740.284
742.763
745.46
748.771
751.641
757.903
761.998
760.196
765.343
768.044
770.33
771.011
770.969
770.383
769.291
767.801
766.24
765.283
764.718
763.708
762.186
760.702
759.414
757.818
755.692
756.357
749.473
747.414
744.971
744.142
748.132
747.495
752.414
758.305
761.059
763.756
766.257
765.471
766.016
715.905
719.327
722.81
726.524
730.883
735.694
740.897
746.789
751.494
751.192
755.469
756.891
757.563
757.611
756.787
755.166
752.92
750.157
748.55
747.231
746.033
743.306
740.752
738.173
735.855
733.701
731.935
728.332
726.343
723.507
722.801
723.987
726.019
729.946
734.702
737.999
740.174
743.714
741.432
741.212
694.204
696.246
700.109
705.217
711.909
719.057
724.889
733.168
736.63
741.179
743.873
743.515
744.275
744.609
744.006
742.589
739.857
737.187
734.195
732.251
728.932
725.279
721.513
718.079
714.918
711.564
711.114
705.964
702.838
701.75
700.099
701.325
701.246
701.976
704.448
704.881
708.126
708.723
710.328
710.217
673.785
676.137
678.893
681.192
687.851
694.699
703.191
710.863
717.431
722.749
726.858
729.204
730.91
731.382
730.923
729.609
726.972
724.419
721.702
717.483
713.556
708.95
703.832
699.673
695.911
691.63
688.413
684.436
679.083
676.629
675.014
677.206
678.168
678.497
672.275
668.89
670.04
664.464
669.335
671.577
648.378
650.636
651.142
656.864
663.712
671.973
680.794
689.448
697.002
704.2
710.913
715.398
718.167
719.458
719.44
718.075
715.479
712.824
708.588
703.92
699.372
694.143
688.715
685.814
681.494
678.077
672.83
666.496
658.526
646.83
646.803
657.015
652.54
652.847
648.124
642.274
634.533
638.972
634.76
640.449
617.719
623.273
627.011
631.896
639.383
648.882
657.741
666.09
675.161
685.743
695.381
701.042
705.453
708.43
709.538
708.44
705.209
701.873
696.19
689.925
684.903
678.874
673.191
669.868
663.59
659.341
655.57
647.261
635.901
630.281
638.077
634.526
639.418
640.441
629.862
625.247
628.242
628.829
624.609
629.186
586.388
595.754
604.248
611.585
619.699
624.18
631.056
637.185
649.411
662.744
675.932
685.752
694.047
699.008
701.782
700.913
696.359
689.949
684.855
676.068
668.864
662.113
655.712
649.938
643.879
638.417
633.294
630.256
622.427
623.43
623.379
622.304
619.329
619.207
621.35
623.969
626.236
617.698
618.45
622.97
558.813
557.623
558.184
560.575
565.52
571.624
579.127
591.452
604.104
615.463
637.127
655.642
672.773
683.72
688.39
687.553
680.204
670.793
661.537
653.123
645.792
639.48
633.207
626.814
621.537
618.909
618.248
617.436
612.937
614.676
619.961
619.473
616.415
616.107
617.713
619.426
618.962
612.588
614.791
615.369
524.506
518.698
506.784
501.985
503.239
507.33
514.412
523.638
536.402
553.225
577.19
602.567
624.499
641.384
651.394
653.845
646.895
635.866
626.4
619.975
614.673
610.241
606.174
603.094
602.195
603.852
602.552
603.065
604.294
608.668
610.437
609.038
610.873
607.783
608.647
606.691
605.403
606.809
609.319
610.017
486.742
472.438
465.469
455.768
461.268
461.782
470.969
478.784
488.984
504.978
526.686
548.906
566.296
576.808
584.29
584.037
580.648
574.72
572.064
574.189
576.385
577.008
576.589
577.171
579.518
581.515
582.017
584.269
583.894
583.86
580.651
580.185
581.906
582.086
585.791
589.57
594.743
601.262
602.377
606.77
456.036
443.377
435.663
430.762
428.808
435.592
443.395
453.759
464.414
479.592
492.864
504.187
513.232
516.034
511.819
499.878
495.51
499.793
507.551
521.892
531.843
537.524
544.028
551.145
555.203
554.523
552.943
555.909
552.911
551.665
550.581
549.183
551.684
561.989
573.786
581.017
588.927
591.965
597.362
601.61
426.149
411.708
406.616
405.89
406.819
413.477
424.752
436.997
448.119
457.564
468.353
468.394
472.362
471.052
465.823
459.739
459.837
468.336
475.886
481.603
493.445
502.36
512.402
519.698
522.891
525.459
525.279
522.258
523.429
522.196
525.327
529.683
534.496
547.482
564.871
575.038
591.176
587.289
591.853
592.061
419.311
407.176
402.524
403.191
406.19
411.994
418.936
428.47
437.431
443.947
452.313
448.107
449.696
445.02
443.767
442.852
443.762
452.347
462.961
470.315
476.31
479.605
479.371
489.303
494.692
499.076
500.414
500.008
505.68
509.985
516.604
525.558
533.993
543.117
574.316
576.763
588.412
583.243
585.415
588.32
430.932
424.097
421.057
420.488
419.137
420.054
426.189
431.122
434.949
440.759
441.078
441.906
438.357
438.58
438.075
440.555
445.831
452.299
458.491
463.54
469.059
474.811
479.806
475.925
470.339
474.882
476.748
481.449
487.767
494.752
505.43
516.416
528.166
539.3
567.179
566.221
577.186
579.502
582.335
586.024
437.427
431.866
427.551
426.25
427.02
426.41
434.257
436.383
439.645
430.545
430.569
431.174
435.176
436.292
437.258
439.806
443.912
447.302
448.969
447.663
448.844
455.342
453.16
450.285
445.896
446.365
447.62
450.641
460
471.455
486.499
500.023
512.731
523.474
550.53
554.807
567.066
571.073
573.304
575.921
437.965
432.903
428.923
426.655
425.785
422.265
428.905
424.437
426.012
422.203
422.891
422.641
427.875
430.014
431.522
432.508
433.65
433.041
426.445
424.941
425.763
418.987
407.668
398.984
403.293
411.79
419.103
427.792
435.44
446.471
462.464
475.593
493.228
507.674
533.776
539.837
548.573
552.559
554.418
556.372
432.568
428.712
425.717
420.647
415.761
423.061
413.091
413.323
407.251
410.401
413.014
415.998
419.234
424.961
424.443
422.449
419.454
416.018
405.037
401.76
389.361
383.803
373.225
378.144
379.738
382.414
391.752
399.391
408.614
420.784
436.744
451.63
467.433
488.947
498.071
520.032
527.328
529.622
530.244
532.07
424.488
418.523
422.874
411.627
421.058
407.127
405.595
394.699
393.059
397.623
402.982
408.314
410.651
425.794
416.705
419.548
411.889
400.749
393.02
384.959
376.023
367.79
361.788
361.28
364.474
366.337
372.41
378.013
384.706
393.828
407.693
432.094
451.195
464.267
472.703
493.788
497.693
506.702
503.254
505.315
416.506
410.529
409.959
403.257
414.714
399.821
391.188
389.27
378.067
386.017
393.824
400.625
402.716
421.927
410.051
407.978
405.37
398.651
386.433
371.521
362.242
355.474
348.736
346.42
347.367
346.224
356.26
365.267
377.469
390.636
402.921
416.481
429.977
441.062
457.538
466.226
478.934
482.942
481.247
482.536
408.106
405.986
403.22
398.783
400.777
393.693
387.358
389.464
376.092
381.549
389.216
395.943
400.291
402.938
402.948
390.483
389.039
386.059
384.511
368.933
359.797
353.544
346.154
342.71
342.939
343.747
363.162
361.01
375.381
386.903
395.234
406.908
420.244
431.94
439.068
449.167
456.961
460.78
463.056
463.424
401.259
395.589
393.168
390.052
386.622
382.051
395.098
389.771
379.809
378.487
381.41
384.757
383.562
382.42
384.259
385.035
386.124
378.972
387.368
371.48
364.561
360.304
356.392
353.996
352.627
354.268
364.783
370.588
374.979
382.966
393.117
404.705
412.758
417.587
427.407
436.263
441.748
447.273
447.917
448.011
385.651
382.613
378.777
375.765
374.243
384.982
388.062
375.271
370.408
367.773
368.083
369.282
368.792
369.653
372.741
377.741
379.507
372.985
383.855
360.33
358.412
357.115
355.684
355.423
355.965
361.051
366.057
370.073
375.909
383.068
387.809
393.6
402.858
411.169
418.592
424.699
428.567
434.959
432.691
433.723
370.776
366.495
361.435
356.38
376.767
372.538
367.726
363.023
357.738
352.688
350.027
354.478
358.263
360.872
363.891
368.091
368.402
367.647
370.957
348.429
351.165
351.357
351.331
350.94
351.77
355.066
356.894
358.752
365.793
373.149
380.918
388.023
395.389
402.406
407.279
412.126
416.995
419.153
418.691
419.923
358.328
352.608
348.263
359.9
361.408
360.091
356.936
348.678
341.517
335.775
334.108
338.729
344.181
344.979
353.183
354.633
351.268
367.993
343.812
347.153
346.772
345.329
341.178
340.129
344.225
342.433
346.251
351.276
357.776
365.061
371.702
378.439
385.365
391.633
396.386
399.977
402.019
403.231
403.538
404.066
347.282
341.161
345.405
345.762
345.405
348.42
343.774
338.424
332.097
325.378
315.713
322.714
327.75
330.66
338.113
341.167
339.622
360.399
336.928
346.496
329.971
337.482
335.684
330.695
332.316
334.733
338.914
343.223
347.664
354.188
360.885
368.2
375.013
380.082
383.27
385.28
386.703
387.504
387.357
388.064
346.418
340.817
335.349
332.078
337.799
340.066
337.235
336.172
327.287
317.729
309.239
310.957
314.824
317.931
322.451
324.239
326.695
326.573
319.507
318.51
317.07
319.567
316.315
320.202
321.821
322.71
324.638
330.432
336.114
341.883
348.271
354.898
360.711
364.439
368.355
370.661
371.845
372.059
371.618
371.528
342.173
335.57
322.043
315.457
317.634
323.584
340.848
333.303
335.05
306.928
303.469
302.155
302.622
304.056
305.668
305.838
306.531
305.486
303.099
302.334
301.02
300.58
299.981
303.312
306.263
305.659
309.492
313.68
318.395
323.46
329.523
335.856
341.39
346.152
350.03
352.187
353.064
353.261
353.084
352.9
291.689
285.012
281.295
277.686
282.058
307.949
313.851
326.666
300.041
287.866
287.373
287.219
287.512
288.071
287.401
286.763
286.641
285.644
283.572
281.95
280.481
280.431
280.638
281.103
282.843
285.721
289.252
293.082
296.759
300.49
305.014
310.159
315.589
320.889
325.642
329.24
331.443
332.482
333.217
333.689
204.79
202.332
204.996
212.18
224.145
260.516
264.116
279.453
262.253
262.939
266.31
268.601
270.352
271.372
268.496
267.729
267.197
265.154
262.423
260.159
258.596
258.704
259.11
260.265
262.259
264.336
266.356
268.908
271.155
273.302
275.606
278.59
283.502
290.165
296.639
302.279
306.674
310.324
313.464
314.783
131.843
133.987
145.326
166.724
184.098
192.188
229.556
236.938
237.314
242.948
247.438
250.669
253.415
253.587
250.897
249.773
246.82
243.406
239.978
237.268
235.386
234.705
234.616
236.547
239.972
243.118
246.391
248.54
253.085
255.29
255.884
256.285
256.64
260.308
266.166
272.832
278.936
285.281
291.8
296.349
97.158
105.593
118.442
131.721
148.853
168.797
194.993
208.086
220.521
229.655
233.856
235.997
234.769
232.652
231.433
229.014
225.016
221.053
216.682
212.28
209.473
207.398
207.117
210.155
215.055
220.034
224.666
228.269
231.148
232.777
233.422
234.723
233.666
232.926
236.628
242.389
248.106
255.328
265.267
273.511
95.5228
99.561
112.305
125.278
142.505
161.629
175.289
186.738
200.945
220.043
214.584
213.355
213.112
211.117
209.152
206.436
202.29
197.059
190.773
183.278
175.999
171.581
168.963
167.132
170.37
180.526
191.616
200.777
208.083
212.64
213.81
210.985
209.688
205.865
206.049
209.726
213.195
217.311
225.495
233.46
127.899
129.166
130.096
138.967
150.201
159.544
165.779
171.403
177.569
182.252
186.682
188.699
189.367
188.715
187.164
185.639
181.539
173.304
163.316
153.947
148.268
151.329
147.509
144.342
143.381
146.189
155.397
167.419
180.743
189.789
194.386
194.008
186.043
181.111
173.421
176.801
179.263
180.636
178.881
182.898
154.361
151.982
149.311
151.608
154.518
157.375
158.695
160.031
161.66
163.689
165.921
167.699
169.371
170.511
170.394
169.224
166.11
161.184
153.391
143.506
137.303
135.589
131.449
128.993
129.536
133.394
139.464
141.672
153.817
165.559
170.609
170.928
165.251
159.5
148.193
150.327
155.302
158.427
160.565
161.57
164.936
162.809
159.916
154.818
152.827
151.32
149.447
147.361
145.85
146.183
147.244
148.011
149.47
151.969
153.641
154.34
153.859
151.253
146.346
138.418
132.683
130.896
128.169
126.921
127.608
129.597
133.124
134.308
136.381
149.285
150.066
153.739
152.385
144.787
136.481
135.344
146.185
153.616
158.795
162.1
167.848
165.206
154.262
150.228
147.106
143.097
140.039
138.016
132.918
129.872
130.378
131.083
131.56
132.74
134.201
135.534
136.469
135.867
132.541
132.248
134.414
133.166
129.633
127.947
127.374
127.404
129.887
131.47
130.048
141.409
139.877
143.575
142.436
139.86
136.876
131.244
135.384
127.36
153.962
152.144
149.737
150.489
146.943
143.663
139.734
134.003
130.614
126.165
121.186
116.607
114.862
114.902
115.06
115.159
115.04
115.517
116.488
117.685
118.208
120.494
131.254
128.43
125.638
124.145
126.111
127.766
131.237
126.828
123.907
131.918
130.636
131.78
134.798
133.823
133.753
125.126
127.283
135.409
136.043
144.69
143.979
146.487
143.67
138.58
131.89
125.149
120.128
115.889
109.425
105.318
102.152
100.275
99.6772
99.4183
98.163
97.9866
99.0103
101.112
102.361
108.496
110.141
115.993
114.906
114.783
117.524
118.628
117.9
121.26
117.571
121.163
122.932
123.937
123.676
126.279
125.5
125.393
126.128
125.691
128
142.307
154.064
138.82
138.693
133.357
124.496
115.187
107.679
102.11
97.9584
93.3248
90.0426
88.3512
87.9438
87.3272
83.2423
82.7951
85.4764
88.4065
89.5191
95.165
97.4718
104.423
105.597
109.555
106.593
111.547
112.545
113.021
112.819
113.618
114.717
114.905
116.484
117.344
120.848
122.531
121.879
120.873
120.604
138.362
146.52
143.642
130.473
124.518
116.147
105.966
97.1815
91.2877
85.8911
81.949
79.6402
78.0978
76.2914
74.3716
70.2311
66.5987
69.1353
73.7468
77.939
82.5278
86.3665
90.1242
94.5963
98.4139
100.37
103.565
105.128
106.355
105.511
105.206
106.726
107.622
109.266
110.594