/*--------------------------------*- C++ -*----------------------------------*\
  =========                 |
  \\      /  F ield         | OpenFOAM: The Open Source CFD Toolbox
   \\    /   O peration     | Website:  https://openfoam.org
    \\  /    A nd           | Version:  8
     \\/     M anipulation  |
\*---------------------------------------------------------------------------*/
FoamFile
{
    version     2.0;
    format      ascii;
    class       surfaceScalarField;
    location    "6.05";
    object      phi;
}
// * * * * * * * * * * * * * * * * * * * * * * * * * * * * * * * * * * * * * //

dimensions      [0 3 -1 0 0 0 0];

internalField   nonuniform List<scalar> 
18095
(
1.99744e-08
-1.72054e-07
1.5208e-07
2.32815e-08
-1.97538e-07
1.94231e-07
2.04797e-08
-2.06244e-07
2.09046e-07
1.22303e-08
-2.11008e-07
2.19257e-07
9.7423e-10
-2.13322e-07
2.24578e-07
-1.08335e-08
-2.13316e-07
2.25123e-07
-1.98879e-08
-2.109e-07
2.19954e-07
-2.31487e-08
-2.0603e-07
2.09291e-07
-1.99439e-08
-1.97501e-07
1.94297e-07
-1.72088e-07
1.52144e-07
1.55692e-08
-1.87624e-07
1.6182e-08
-1.9815e-07
1.19105e-08
-2.01972e-07
6.20841e-09
-2.05306e-07
1.06851e-10
-2.0722e-07
-6.30776e-09
-2.06901e-07
-1.20332e-08
-2.05175e-07
-1.6167e-08
-2.01896e-07
-1.55307e-08
-1.98138e-07
-1.87618e-07
6.80036e-09
-1.94424e-07
8.40448e-09
-1.99755e-07
7.44747e-09
-2.01015e-07
4.11063e-09
-2.01969e-07
-4.74285e-10
-2.02635e-07
-4.57287e-09
-2.02803e-07
-7.36254e-09
-2.02385e-07
-8.37485e-09
-2.00884e-07
-6.79796e-09
-1.99715e-07
-1.94416e-07
4.50697e-09
-1.98931e-07
4.71218e-09
-1.9996e-07
3.65167e-09
-1.99955e-07
2.13429e-09
-2.00452e-07
4.20654e-10
-2.00922e-07
-1.61498e-09
-2.00767e-07
-3.6798e-09
-2.0032e-07
-4.73277e-09
-1.99831e-07
-4.51504e-09
-1.99932e-07
-1.98931e-07
1.06916e-09
1.10946e-09
1.15467e-09
7.03043e-10
-2.18531e-10
-9.85378e-10
-1.30545e-09
-1.13638e-09
-1.06867e-09
-2.84449e-08
-1.95836e-07
2.24281e-07
-3.09485e-08
-1.99026e-07
2.0153e-07
-2.60759e-08
-2.00506e-07
1.95634e-07
-1.57932e-08
-2.0102e-07
1.90737e-07
-1.51794e-09
-2.01943e-07
1.87667e-07
1.32016e-08
-2.02306e-07
1.87586e-07
2.5047e-08
-2.02141e-07
1.90295e-07
3.10249e-08
-2.01671e-07
1.95693e-07
2.87114e-08
-1.99452e-07
2.01765e-07
-1.961e-07
2.24812e-07
-9.37779e-09
-1.86458e-07
-1.50068e-08
-1.93397e-07
-1.21087e-08
-2.03405e-07
-5.70421e-09
-2.07424e-07
4.30591e-11
-2.0769e-07
6.15019e-09
-2.08413e-07
1.32393e-08
-2.0923e-07
1.54242e-08
-2.03856e-07
9.50369e-09
-1.93531e-07
-1.86597e-07
-9.76713e-09
-1.76691e-07
-7.69273e-09
-1.95471e-07
-6.0969e-09
-2.05e-07
-3.09618e-09
-2.10425e-07
2.45831e-09
-2.13244e-07
7.06294e-09
-2.13018e-07
7.71057e-09
-2.09878e-07
8.45184e-09
-2.04597e-07
1.00675e-08
-1.95147e-07
-1.76529e-07
-6.4766e-09
-1.70215e-07
-8.40321e-09
-1.93545e-07
-8.00595e-09
-2.05398e-07
-3.1773e-09
-2.15254e-07
1.83012e-10
-2.16604e-07
3.08485e-09
-2.15919e-07
7.35446e-09
-2.14147e-07
7.9231e-09
-2.05166e-07
6.31205e-09
-1.93536e-07
-1.70217e-07
-1.81347e-08
-1.74488e-08
-1.38009e-08
-9.79709e-09
-1.82379e-09
7.38018e-09
1.31875e-08
1.73125e-08
1.80733e-08
3.24569e-08
-1.57371e-07
1.24915e-07
4.07874e-08
-1.98028e-07
1.89697e-07
3.62793e-08
-2.10166e-07
2.14674e-07
2.51773e-08
-2.1593e-07
2.27032e-07
8.59513e-09
-2.17132e-07
2.33714e-07
-9.51429e-09
-2.17441e-07
2.35551e-07
-2.46494e-08
-2.14943e-07
2.30078e-07
-3.35711e-08
-2.09899e-07
2.18821e-07
-2.87361e-08
-1.99194e-07
1.94359e-07
-1.59896e-07
1.3116e-07
1.68092e-08
-1.74181e-07
1.93664e-08
-2.00585e-07
1.5758e-08
-2.06558e-07
7.74737e-09
-2.0792e-07
-1.83069e-09
-2.07554e-07
-1.07933e-08
-2.08479e-07
-1.62238e-08
-2.09512e-07
-1.83131e-08
-2.0781e-07
-1.53481e-08
-2.02159e-07
-1.75244e-07
8.36316e-09
-1.82544e-07
9.24003e-09
-2.01462e-07
8.7324e-09
-2.0605e-07
5.67535e-09
-2.04863e-07
2.65326e-09
-2.04532e-07
-1.12301e-09
-2.04702e-07
-6.53662e-09
-2.04099e-07
-7.94047e-09
-2.06406e-07
-8.12265e-09
-2.01977e-07
-1.83366e-07
7.89926e-09
-1.90443e-07
5.61006e-09
-1.99173e-07
6.40151e-09
-2.06841e-07
8.9215e-10
-1.99353e-07
-8.05777e-10
-2.02834e-07
-2.28216e-09
-2.03226e-07
-6.2204e-09
-2.00161e-07
-5.15337e-09
-2.07473e-07
-7.49711e-09
-1.99633e-07
-1.90863e-07
3.3838e-08
3.61949e-08
2.49873e-08
1.6371e-08
1.20456e-09
-1.44351e-08
-2.43002e-08
-3.60802e-08
-3.39484e-08
7.08195e-08
8.8451e-09
-7.96646e-08
6.18564e-08
8.96313e-09
4.7942e-08
1.39145e-08
3.45082e-08
1.34339e-08
2.28561e-08
1.16522e-08
6.68855e-09
1.61677e-08
-7.7498e-09
1.44385e-08
-1.6349e-08
8.59929e-09
-1.55672e-08
-7.81684e-10
-3.99277e-09
-1.15743e-08
8.29482e-08
1.86098e-08
-9.27129e-08
7.30838e-08
1.88279e-08
6.51284e-08
2.187e-08
5.2755e-08
2.58076e-08
3.64934e-08
2.7914e-08
2.03529e-08
3.23085e-08
8.06187e-09
2.67297e-08
-1.48067e-10
1.68094e-08
-6.22676e-09
5.29711e-09
9.76174e-10
-1.11956e-08
8.44204e-08
2.6154e-08
-9.19645e-08
7.63582e-08
2.68906e-08
6.77211e-08
3.05073e-08
5.89455e-08
3.45834e-08
4.90255e-08
3.78342e-08
4.08817e-08
4.04524e-08
2.61019e-08
4.15095e-08
1.19057e-08
3.10056e-08
-1.58741e-09
1.87902e-08
1.82423e-08
-1.88535e-08
8.39615e-08
3.18629e-08
-8.96702e-08
7.7218e-08
3.36347e-08
6.81783e-08
3.95471e-08
5.56995e-08
4.70623e-08
4.17892e-08
5.17445e-08
3.07525e-08
5.1489e-08
2.07257e-08
5.15363e-08
5.39411e-09
4.6337e-08
-1.2698e-08
3.68823e-08
3.90779e-08
-3.35336e-08
7.65367e-08
4.24322e-08
-8.71059e-08
6.33362e-08
4.68354e-08
4.95593e-08
5.3324e-08
3.90434e-08
5.75781e-08
3.08819e-08
5.99059e-08
2.4095e-08
5.82758e-08
1.69959e-08
5.86353e-08
7.96924e-09
5.53636e-08
-7.7317e-09
5.25832e-08
5.34797e-08
-2.21335e-08
5.40123e-08
5.69049e-08
-6.8485e-08
4.15089e-08
5.93385e-08
3.1855e-08
6.29777e-08
2.46785e-08
6.47544e-08
1.9961e-08
6.46232e-08
1.73871e-08
6.08495e-08
1.72432e-08
5.87791e-08
1.29908e-08
5.96159e-08
1.0122e-08
5.5452e-08
5.50475e-08
8.55419e-09
3.28045e-08
6.61096e-08
-4.20093e-08
2.77125e-08
6.44301e-08
2.44694e-08
6.62205e-08
1.9165e-08
7.00585e-08
1.11319e-08
7.26562e-08
7.7287e-09
6.42526e-08
8.76983e-09
5.77379e-08
1.05126e-08
5.78731e-08
8.35937e-09
5.76052e-08
6.04259e-08
2.98097e-09
5.70321e-09
6.70397e-08
-6.63352e-09
1.43063e-10
6.99901e-08
-4.97338e-09
7.13369e-08
-2.60314e-09
6.76882e-08
-1.73672e-09
7.17897e-08
-6.01059e-09
6.85263e-08
-1.3956e-08
6.56832e-08
-1.64224e-08
6.03394e-08
-2.02525e-08
6.14353e-08
6.76833e-08
-2.751e-08
-1.84739e-08
6.73413e-08
1.81722e-08
-2.47908e-08
7.63071e-08
-3.10401e-08
7.75861e-08
-1.63863e-08
5.30344e-08
-6.81147e-09
6.22148e-08
-1.30343e-08
7.47492e-08
-4.03977e-08
9.30466e-08
-6.78999e-08
8.78416e-08
-7.69284e-08
7.04637e-08
5.62088e-08
-6.5454e-08
-5.33262e-08
4.87795e-08
7.1888e-08
-1.93865e-08
4.23676e-08
-1.60607e-09
5.98057e-08
-2.78263e-10
5.17065e-08
1.09546e-08
5.09819e-08
1.96746e-08
6.60291e-08
2.46852e-08
8.80359e-08
1.90713e-08
9.34556e-08
1.2947e-08
7.6588e-08
4.87406e-08
2.04153e-08
1.18806e-08
1.64173e-08
2.04817e-08
4.84418e-08
5.80647e-09
8.55854e-08
2.26621e-08
1.08765e-07
2.85268e-08
1.30335e-07
2.94122e-08
1.68429e-07
2.79349e-08
2.00072e-07
5.63927e-08
2.17414e-07
7.61138e-08
2.21377e-07
7.26252e-08
4.42609e-08
2.25857e-07
1.74602e-07
-9.95039e-09
-1.48235e-07
1.9766e-07
-1.72508e-08
2.34859e-07
-1.45369e-08
2.66214e-07
-2.82852e-09
2.83905e-07
1.17213e-08
2.92841e-07
1.89984e-08
3.10395e-07
3.88396e-08
3.25776e-07
6.07328e-08
3.4138e-07
5.70212e-08
3.99751e-08
3.45665e-07
2.60584e-07
-5.57374e-09
-2.64961e-07
2.57987e-07
-1.46537e-08
2.68586e-07
-2.5136e-08
2.86318e-07
-2.05608e-08
3.06289e-07
-8.24917e-09
3.26292e-07
-1.00475e-09
3.40097e-07
2.50346e-08
3.48528e-07
5.23019e-08
3.49766e-07
5.57836e-08
4.82829e-08
3.41458e-07
2.78941e-07
9.47134e-09
-2.93986e-07
2.73021e-07
-8.73347e-09
2.8271e-07
-3.48259e-08
2.88326e-07
-2.61764e-08
2.7481e-07
5.26716e-09
2.55653e-07
1.8152e-08
2.59671e-07
2.10163e-08
2.72399e-07
3.95744e-08
2.86648e-07
4.15344e-08
3.84728e-08
2.96458e-07
3.03964e-07
1.67872e-08
-3.1128e-07
2.90088e-07
5.14272e-09
2.5804e-07
-2.77826e-09
2.12395e-07
1.94691e-08
1.61408e-07
5.62539e-08
1.16302e-07
6.32582e-08
1.22004e-07
1.53147e-08
1.51612e-07
9.96626e-09
1.67661e-07
2.54849e-08
5.74166e-08
1.48718e-07
2.58581e-07
2.69418e-08
-2.68735e-07
2.35081e-07
2.8642e-08
1.88973e-07
4.33303e-08
1.36972e-07
7.14698e-08
1.05657e-07
8.75694e-08
9.44451e-08
7.447e-08
8.58848e-08
2.38751e-08
7.66812e-08
1.917e-08
7.19568e-08
3.02094e-08
7.02902e-08
5.90834e-08
1.74593e-07
4.88926e-08
-1.96544e-07
1.54776e-07
4.84594e-08
1.3032e-07
6.77864e-08
1.08612e-07
9.31774e-08
9.71209e-08
9.90606e-08
9.15372e-08
8.00537e-08
6.88214e-08
4.65909e-08
5.77242e-08
3.02671e-08
4.82944e-08
3.96394e-08
8.04139e-08
3.81708e-08
1.55644e-07
7.03119e-08
-1.77064e-07
1.27364e-07
7.67403e-08
1.01895e-07
9.3255e-08
9.01446e-08
1.04928e-07
8.40698e-08
1.05135e-07
8.08459e-08
8.32778e-08
5.93755e-08
6.80614e-08
3.33426e-08
5.63001e-08
1.30078e-08
5.99743e-08
9.80156e-08
-4.59376e-09
1.59993e-07
9.13392e-08
-1.81021e-07
1.14512e-07
1.22222e-07
8.13159e-08
1.26451e-07
6.41983e-08
1.22046e-07
6.53148e-08
1.04019e-07
5.80379e-08
9.05548e-08
3.36082e-08
9.24912e-08
-3.56387e-09
9.34723e-08
-3.95801e-08
9.59907e-08
1.02605e-07
-4.41692e-08
8.97562e-08
1.86513e-07
-1.84929e-07
4.61142e-08
1.65864e-07
3.53186e-08
1.37246e-07
2.97747e-08
1.27589e-07
2.29715e-08
1.10822e-07
9.44457e-09
1.04082e-07
-2.474e-09
1.0441e-07
-2.32393e-08
1.14238e-07
-5.0884e-08
1.23636e-07
1.19129e-07
-6.74076e-08
-3.63773e-08
2.28305e-07
-5.41495e-09
-3.84624e-08
1.67949e-07
-4.5738e-08
1.44522e-07
-5.34824e-08
1.35334e-07
-6.28795e-08
1.2022e-07
-7.46139e-08
1.15816e-07
-8.82581e-08
1.18054e-07
-1.06298e-07
1.32278e-07
-1.15833e-07
1.33171e-07
1.22205e-07
-1.1891e-07
-2.05668e-07
1.69622e-07
2.64351e-07
-1.73849e-07
1.3613e-07
-1.66524e-07
1.37198e-07
-1.70961e-07
1.39771e-07
-1.89657e-07
1.38916e-07
-2.05326e-07
1.31486e-07
-2.12697e-07
1.25425e-07
-2.00637e-07
1.20219e-07
-1.80247e-07
1.12781e-07
1.08558e-07
-1.666e-07
-3.06588e-07
1.39685e-07
3.36525e-07
-3.08299e-07
1.37841e-07
-3.13928e-07
1.42827e-07
-3.13244e-07
1.39087e-07
-3.09992e-07
1.35665e-07
-3.05858e-07
1.27352e-07
-3.06174e-07
1.25741e-07
-3.03922e-07
1.17967e-07
-2.99803e-07
1.08662e-07
1.03907e-07
-2.95152e-07
-4.84829e-07
1.27385e-07
4.97128e-07
-4.66913e-07
1.19925e-07
-4.38109e-07
1.14023e-07
-4.12952e-07
1.13929e-07
-4.03781e-07
1.26494e-07
-4.03582e-07
1.27154e-07
-4.08853e-07
1.31012e-07
-4.22147e-07
1.31261e-07
-4.42361e-07
1.28876e-07
1.26116e-07
-4.6457e-07
-6.47721e-07
1.15851e-07
6.59256e-07
-6.32012e-07
1.04217e-07
-6.19491e-07
1.01502e-07
-6.05725e-07
1.00164e-07
-5.83303e-07
1.04071e-07
-5.65332e-07
1.09183e-07
-5.53965e-07
1.19645e-07
-5.54495e-07
1.31791e-07
-5.64783e-07
1.39164e-07
1.39089e-07
-5.77756e-07
-7.1382e-07
1.18206e-07
7.11464e-07
-7.16757e-07
1.07155e-07
-7.19742e-07
1.04487e-07
-7.20568e-07
1.0099e-07
-7.18804e-07
1.02307e-07
-7.06779e-07
9.71579e-08
-6.75141e-07
8.80075e-08
-6.40362e-07
9.7011e-08
-6.14131e-07
1.12934e-07
1.22387e-07
-5.97429e-07
-7.09618e-07
1.25796e-07
7.02028e-07
-7.22295e-07
1.19832e-07
-7.34549e-07
1.16741e-07
-7.44182e-07
1.10623e-07
-7.23273e-07
8.13976e-08
-6.86656e-07
6.05413e-08
-6.49206e-07
5.05575e-08
-6.17535e-07
6.53399e-08
-5.95912e-07
9.13103e-08
1.06951e-07
-5.80475e-07
-5.93069e-07
1.21361e-07
5.97504e-07
-5.95014e-07
1.21777e-07
-5.96626e-07
1.18354e-07
-5.94149e-07
1.08146e-07
-5.74816e-07
6.2065e-08
-5.44643e-07
3.03683e-08
-5.02212e-07
8.12622e-09
-4.51316e-07
1.44432e-08
-4.18406e-07
5.84006e-08
1.01316e-07
-4.12771e-07
-5.62123e-07
1.26993e-07
5.56491e-07
-5.53164e-07
1.12818e-07
-4.65981e-07
3.1171e-08
-3.14692e-07
-4.31434e-08
-2.07088e-07
-4.55385e-08
-1.63673e-07
-1.30475e-08
-1.51324e-07
-4.22309e-09
-1.70019e-07
3.3138e-08
-2.23737e-07
1.12119e-07
1.54352e-07
-2.76774e-07
-5.02508e-07
1.48832e-07
4.80668e-07
-4.77423e-07
8.77336e-08
-3.66086e-07
-8.01669e-08
-2.54803e-07
-1.54426e-07
-1.42534e-07
-1.57808e-07
-6.28606e-08
-9.27214e-08
-6.21371e-08
-4.94689e-09
-1.5045e-07
1.21451e-07
-2.43215e-07
2.04884e-07
2.11156e-07
-3.00019e-07
-3.21489e-07
1.5577e-07
3.14551e-07
-2.98114e-07
6.43588e-08
-2.67499e-07
-1.10783e-07
-2.36797e-07
-1.85128e-07
-2.24465e-07
-1.7014e-07
-2.58871e-07
-5.83148e-08
-3.57938e-07
9.412e-08
-4.44452e-07
2.07965e-07
-5.10674e-07
2.71105e-07
2.82321e-07
-5.81838e-07
-1.95414e-07
1.66589e-07
1.84596e-07
-1.90286e-07
5.92307e-08
-1.90951e-07
-1.10118e-07
-2.41593e-07
-1.34486e-07
-3.26084e-07
-8.56493e-08
-4.82081e-07
9.76824e-08
-6.04588e-07
2.16628e-07
-6.77434e-07
2.80811e-07
-7.18774e-07
3.12445e-07
3.12888e-07
-7.49342e-07
-1.81642e-07
2.00294e-07
1.47937e-07
-1.92606e-07
7.01939e-08
-2.35032e-07
-6.76921e-08
-2.92276e-07
-7.72423e-08
-3.43111e-07
-3.48136e-08
-4.28929e-07
1.835e-07
-4.99581e-07
2.87281e-07
-5.39976e-07
3.21206e-07
-5.56689e-07
3.29159e-07
2.93213e-07
-5.37014e-07
-1.40794e-07
2.17552e-07
1.23535e-07
-1.91457e-07
1.20857e-07
-2.20403e-07
-3.87451e-08
-2.0728e-07
-9.03658e-08
-1.87412e-07
-5.46811e-08
-1.40324e-07
1.36413e-07
-1.91793e-07
3.3875e-07
-2.53809e-07
3.83222e-07
-2.89834e-07
3.65185e-07
2.72993e-07
-2.69614e-07
-1.47382e-10
1.96934e-07
2.07655e-08
-3.07719e-08
1.51481e-07
-7.32719e-08
3.75496e-09
-8.06815e-08
-8.2956e-08
-4.71366e-08
-8.82259e-08
1.05673e-07
-1.63965e-08
1.9577e-07
2.48652e-07
1.68881e-07
4.10111e-07
1.32057e-07
4.02009e-07
3.30354e-07
7.46967e-08
9.5356e-08
1.65309e-07
-6.37304e-08
9.57191e-08
1.51118e-07
4.36864e-08
5.57877e-08
3.54073e-08
-7.46769e-08
7.37553e-08
-1.26574e-07
1.62453e-07
-1.05094e-07
3.28137e-07
8.29693e-08
4.26846e-07
3.11402e-07
4.74633e-07
3.54222e-07
3.26976e-07
4.78011e-07
2.05519e-07
1.62351e-07
-2.02562e-07
2.12505e-07
1.44132e-07
1.73383e-07
9.49099e-08
1.29502e-07
-3.07961e-08
1.30083e-07
-1.27154e-07
1.6123e-07
-1.36241e-07
2.82351e-07
-3.81515e-08
4.13672e-07
1.80082e-07
5.008e-07
2.67094e-07
2.65315e-07
5.62461e-07
3.819e-07
1.80348e-07
-3.99897e-07
3.59752e-07
1.6628e-07
3.17791e-07
1.36871e-07
2.42745e-07
4.42496e-08
2.00992e-07
-8.5401e-08
1.74814e-07
-1.10063e-07
2.03393e-07
-6.67297e-08
3.10002e-07
7.34723e-08
4.12781e-07
1.64316e-07
1.77553e-07
5.00543e-07
3.86881e-07
2.03548e-07
-4.10081e-07
3.63121e-07
1.9004e-07
3.37216e-07
1.62776e-07
2.93685e-07
8.7781e-08
2.53968e-07
-4.5683e-08
2.1287e-07
-6.89659e-08
1.93485e-07
-4.73448e-08
2.54255e-07
1.27023e-08
3.39312e-07
7.92579e-08
8.27107e-08
4.34154e-07
3.26834e-07
1.99021e-07
-3.22307e-07
3.2056e-07
1.96315e-07
3.11787e-07
1.7155e-07
3.12818e-07
8.67506e-08
3.04685e-07
-3.75501e-08
2.85699e-07
-4.99794e-08
2.87785e-07
-4.94316e-08
3.13552e-07
-1.30646e-08
3.75034e-07
1.77755e-08
4.03616e-09
4.53709e-07
2.50989e-07
1.50187e-07
-2.02155e-07
2.95871e-07
1.51433e-07
3.28946e-07
1.38475e-07
3.39053e-07
7.66435e-08
3.1063e-07
-9.12802e-09
3.12561e-07
-5.19096e-08
3.01355e-07
-3.82258e-08
3.02992e-07
-1.47011e-08
3.31306e-07
-1.05381e-08
-2.57624e-08
3.61104e-07
1.91089e-07
8.46062e-08
-1.25508e-07
2.40377e-07
1.02145e-07
2.74362e-07
1.0449e-07
2.88392e-07
6.26128e-08
2.58564e-07
2.07001e-08
2.30852e-07
-2.41979e-08
2.04873e-07
-1.22466e-08
1.90831e-07
-6.59224e-10
2.12973e-07
-3.26796e-08
-6.08039e-08
2.48015e-07
8.00594e-08
3.48546e-08
-3.03079e-08
1.2795e-07
5.42539e-08
1.74039e-07
5.84013e-08
1.55069e-07
8.15835e-08
1.26901e-07
4.88677e-08
1.37855e-07
-3.51522e-08
1.61849e-07
-3.62408e-08
1.86865e-07
-2.56748e-08
1.99428e-07
-4.52431e-08
-7.48115e-08
2.13436e-07
2.43686e-08
-4.94892e-08
5.99751e-08
5.84234e-08
2.01992e-08
5.8316e-08
5.85084e-08
6.87128e-08
7.11865e-08
9.11791e-08
2.64012e-08
1.3794e-07
-8.1913e-08
2.02198e-07
-1.00498e-07
2.69828e-07
-9.33055e-08
3.1467e-07
-9.00845e-08
-1.27939e-07
3.67798e-07
-1.41782e-08
-3.75046e-08
2.19373e-09
2.28003e-08
-1.67784e-08
9.03088e-08
-9.00051e-09
1.62668e-07
-1.17344e-09
2.12552e-07
-2.34833e-08
2.46064e-07
-1.15425e-07
2.85447e-07
-1.39881e-07
3.51389e-07
-1.59248e-07
4.14882e-07
-1.53578e-07
-1.4461e-07
4.31552e-07
6.76407e-08
-1.86783e-08
-8.64671e-08
1.06257e-07
-5.53953e-08
1.70611e-07
-7.33535e-08
2.42757e-07
-7.33194e-08
3.11241e-07
-9.19679e-08
3.25351e-07
-1.29534e-07
3.402e-07
-1.5473e-07
3.48911e-07
-1.67959e-07
3.68844e-07
-1.73512e-07
-1.65338e-07
3.89573e-07
1.83911e-07
-3.04541e-08
-1.72135e-07
1.76184e-07
-4.76682e-08
1.89141e-07
-8.63097e-08
2.33768e-07
-1.17947e-07
2.72856e-07
-1.31056e-07
2.8169e-07
-1.38368e-07
2.79693e-07
-1.52733e-07
2.91895e-07
-1.80161e-07
3.18981e-07
-2.00598e-07
-1.90707e-07
3.44351e-07
1.63912e-07
-6.73806e-08
-1.26985e-07
1.90632e-07
-7.43882e-08
1.85812e-07
-8.14898e-08
1.66584e-07
-9.87175e-08
1.4864e-07
-1.13113e-07
1.42532e-07
-1.3226e-07
1.45728e-07
-1.55928e-07
1.91569e-07
-2.26001e-07
2.66542e-07
-2.75572e-07
-2.31312e-07
3.07147e-07
-4.33132e-09
-7.82277e-08
1.51784e-08
7.47029e-09
-8.61895e-08
4.50599e-09
-7.85257e-08
-9.94151e-09
-8.427e-08
-1.30658e-08
-1.09989e-07
2.1817e-08
-1.67142e-07
8.83166e-08
-2.22427e-07
1.55905e-07
-2.93589e-07
2.19059e-07
-3.38727e-07
-2.46112e-07
2.33859e-07
-3.1577e-07
-5.30654e-08
2.90608e-07
-3.32907e-07
-6.90526e-08
-3.1747e-07
-9.39633e-08
-2.88776e-07
-1.12964e-07
-2.27886e-07
-1.70877e-07
-1.40783e-07
-2.54246e-07
4.09527e-08
-4.04163e-07
2.0116e-07
-4.53797e-07
3.10054e-07
-4.47621e-07
-3.88276e-07
4.52218e-07
-3.7698e-07
-8.8661e-08
4.12576e-07
-3.31662e-07
-1.14369e-07
-2.64578e-07
-1.61048e-07
-2.09959e-07
-1.67584e-07
-1.36814e-07
-2.44022e-07
5.56307e-08
-4.46691e-07
2.36209e-07
-5.84741e-07
4.10789e-07
-6.28377e-07
5.73435e-07
-6.10267e-07
-5.19003e-07
7.04162e-07
-2.02136e-07
-1.56246e-07
2.69721e-07
-1.36197e-07
-1.80307e-07
-8.10441e-08
-2.16201e-07
-1.09991e-08
-2.37629e-07
1.2133e-07
-3.76351e-07
3.60329e-07
-6.8569e-07
5.66131e-07
-7.90543e-07
7.12467e-07
-7.74712e-07
7.89939e-07
-6.87739e-07
-5.52681e-07
8.23618e-07
-1.42655e-07
-2.56078e-07
2.42486e-07
-4.66622e-08
-2.76299e-07
3.2804e-08
-2.95667e-07
1.27739e-07
-3.32564e-07
4.03108e-07
-6.5172e-07
6.03218e-07
-8.858e-07
7.00051e-07
-8.87376e-07
7.55296e-07
-8.29957e-07
7.75364e-07
-7.07808e-07
-5.53779e-07
7.76463e-07
-1.49991e-07
-3.31455e-07
2.25368e-07
-7.03887e-08
-3.55902e-07
3.64129e-08
-4.02468e-07
2.19822e-07
-5.15974e-07
5.01313e-07
-9.33211e-07
5.79904e-07
-9.64391e-07
5.61833e-07
-8.69306e-07
5.02221e-07
-7.70345e-07
4.19687e-07
-6.25273e-07
-4.40076e-07
3.05984e-07
-2.1464e-07
-3.7419e-07
2.57375e-07
-1.6153e-07
-4.09012e-07
-4.61747e-08
-5.17824e-07
1.9943e-07
-7.61578e-07
3.15013e-07
-1.04879e-06
2.13624e-07
-8.63002e-07
1.96763e-08
-6.75359e-07
-1.40336e-07
-6.10332e-07
-2.87302e-07
-4.78308e-07
-2.90843e-07
-4.36533e-07
-2.72041e-07
-3.82758e-07
2.80609e-07
-2.58002e-07
-4.23051e-07
-1.77455e-07
-5.98372e-07
-2.33501e-08
-9.15683e-07
-5.58485e-08
-1.0163e-06
-1.86554e-07
-7.32296e-07
-3.1488e-07
-5.47033e-07
-4.49597e-07
-4.75615e-07
-5.83588e-07
-3.44316e-07
-1.75936e-07
-6.98495e-07
-2.7069e-07
-3.72625e-07
2.60557e-07
-2.81377e-07
-4.12365e-07
-2.51675e-07
-6.28075e-07
-2.0996e-07
-9.57397e-07
-2.24845e-07
-1.00141e-06
-2.79156e-07
-6.77986e-07
-3.93327e-07
-4.32861e-07
-5.13955e-07
-3.54987e-07
-6.43924e-07
-2.14346e-07
-1.29564e-07
-6.90296e-07
-2.3437e-07
-3.49903e-07
2.11649e-07
-2.77755e-07
-3.68979e-07
-3.27322e-07
-5.78509e-07
-3.42189e-07
-9.42531e-07
-3.16007e-07
-1.02759e-06
-2.7988e-07
-7.14113e-07
-3.59139e-07
-3.53602e-07
-4.16001e-07
-2.98125e-07
-4.7262e-07
-1.57727e-07
-8.6434e-08
-5.15751e-07
-1.27827e-07
-3.33659e-07
1.11582e-07
-1.77635e-07
-3.1917e-07
-3.23556e-07
-4.32587e-07
-4.0264e-07
-8.63448e-07
-3.62288e-07
-1.06794e-06
-2.54779e-07
-8.21622e-07
-3.15498e-07
-2.92883e-07
-3.25782e-07
-2.87839e-07
-3.28361e-07
-1.55147e-07
-6.63673e-08
-3.48427e-07
9.79399e-09
-3.23047e-07
-2.04052e-08
5.2708e-09
-3.14647e-07
-1.16216e-07
-3.11101e-07
-3.40804e-07
-6.38859e-07
-2.99593e-07
-1.10915e-06
-1.30971e-07
-9.90245e-07
-2.38045e-07
-1.85809e-07
-3.3053e-07
-1.95354e-07
-3.29741e-07
-1.55937e-07
-3.66214e-08
-3.59486e-07
1.27106e-07
-3.0367e-07
-1.46483e-07
1.18584e-07
-3.06125e-07
6.97647e-08
-2.62282e-07
-1.63201e-07
-4.05893e-07
-1.64391e-07
-1.10796e-06
-1.21562e-07
-1.03307e-06
-2.15305e-07
-9.20656e-08
-3.26163e-07
-8.4496e-08
-3.93746e-07
-8.83538e-08
-1.18216e-08
-4.18546e-07
2.17349e-07
-2.57952e-07
-2.63067e-07
1.58695e-07
-2.47471e-07
9.91995e-08
-2.02788e-07
-4.78429e-08
-2.58851e-07
-7.51862e-08
-1.08062e-06
-9.73176e-08
-1.01094e-06
-1.51674e-07
-3.77104e-08
-2.21656e-07
-1.45146e-08
-2.596e-07
-5.04094e-08
-1.79654e-08
-2.53456e-07
2.6848e-07
-1.85041e-07
-3.41392e-07
1.56241e-07
-1.35231e-07
4.02196e-08
-8.67672e-08
-2.81597e-08
-1.90472e-07
-2.43179e-08
-1.08446e-06
1.14098e-08
-1.04667e-06
1.17658e-07
-1.43959e-07
5.74424e-08
4.5701e-08
-4.88612e-08
5.58945e-08
5.71548e-08
-1.23981e-07
3.24967e-07
-1.04202e-07
-4.05806e-07
1.70909e-07
1.88279e-08
3.12874e-08
5.28545e-08
-6.7909e-08
-9.12759e-08
-7.49161e-08
-1.07745e-06
-8.90164e-08
-1.03257e-06
-2.35137e-07
2.16279e-09
-2.28289e-07
3.88519e-08
-2.24459e-07
5.20639e-08
4.63521e-08
-2.13656e-07
2.17082e-07
6.69746e-08
-3.88258e-07
1.31225e-07
1.04686e-07
9.28386e-08
9.12408e-08
-2.64479e-08
2.80108e-08
-6.14207e-08
-1.04248e-06
-6.47013e-08
-1.02929e-06
-1.41605e-07
7.9067e-08
-1.88013e-07
8.5259e-08
-2.10529e-07
7.45801e-08
5.01463e-08
-2.14323e-07
-1.15103e-07
1.76778e-07
5.29874e-09
-9.39446e-08
8.35286e-08
-1.53244e-07
1.50539e-07
-2.58946e-08
-9.93391e-08
-3.6393e-09
-1.06474e-06
2.06235e-08
-1.05355e-06
1.14988e-07
-1.5299e-08
-1.3927e-08
2.14174e-07
-8.63698e-08
1.47023e-07
7.88916e-08
-1.15115e-07
-4.85261e-07
2.11336e-07
4.507e-07
-5.51594e-07
1.49865e-07
-4.09032e-07
7.97831e-09
4.31495e-08
-5.5152e-07
2.99251e-08
-1.05151e-06
3.78926e-08
-1.06152e-06
3.99134e-07
-3.7654e-07
2.15302e-07
3.98008e-07
1.0189e-07
2.60436e-07
1.01286e-07
7.94951e-08
-4.34603e-07
2.52932e-07
3.93002e-07
-3.58866e-07
7.413e-08
-2.71497e-07
-7.93918e-08
9.44891e-09
-8.32466e-07
1.01578e-08
-1.05222e-06
-3.24283e-09
-1.04812e-06
2.57518e-07
-6.37302e-07
1.52564e-07
5.02959e-07
1.57029e-07
2.5597e-07
2.97028e-08
2.28613e-07
-2.91868e-08
6.42848e-08
2.17835e-07
1.16903e-07
-7.1959e-08
-1.61538e-08
5.36646e-08
2.25455e-08
-8.71164e-07
2.1857e-08
-1.05153e-06
3.1212e-08
-1.05747e-06
1.13281e-07
-7.1937e-07
1.29481e-08
6.03292e-07
1.8102e-07
8.78983e-08
-4.51592e-08
2.55882e-07
3.98567e-08
4.04223e-08
-1.59944e-08
5.61231e-08
-8.82261e-08
-2.81525e-08
1.37939e-07
7.98344e-09
-9.07301e-07
1.75971e-09
-1.04531e-06
-1.01147e-08
-1.0456e-06
7.7674e-08
-8.07159e-07
1.10534e-07
5.70431e-07
1.16627e-07
8.18058e-08
1.05191e-07
-3.37242e-08
-3.34208e-07
4.90406e-08
3.25589e-07
3.15211e-08
-4.53954e-07
-7.37316e-08
2.43192e-07
-5.97112e-09
-9.75061e-07
-8.03038e-09
-1.04325e-06
-7.77307e-09
-1.04586e-06
4.33982e-08
-8.5833e-07
3.74195e-09
6.10088e-07
-1.66782e-07
2.52325e-07
2.41499e-07
-3.03084e-07
3.21539e-07
-8.01696e-08
-1.92331e-07
9.48423e-08
-2.27302e-07
-2.48459e-08
3.62893e-07
-1.12799e-08
-9.88627e-07
-2.16214e-08
-1.03291e-06
-3.62547e-08
-1.03122e-06
5.73477e-08
-9.51933e-07
3.95904e-08
6.27843e-07
-1.39454e-07
4.31375e-07
3.07578e-07
-2.05539e-07
4.15795e-07
1.90444e-08
-5.15013e-07
3.55887e-08
1.52872e-07
6.79262e-09
3.91691e-07
1.3264e-08
-9.951e-07
-6.2424e-09
-1.0134e-06
-2.46631e-08
-1.0128e-06
-6.36233e-09
-9.70233e-07
1.13437e-08
6.10137e-07
-6.34955e-08
5.06215e-07
2.77668e-07
-3.35947e-08
-3.51384e-07
2.22198e-07
1.48232e-07
-4.31652e-07
2.33141e-07
-5.16776e-09
-3.47937e-08
5.06482e-09
-1.00533e-06
-2.15822e-08
-9.86756e-07
-4.41297e-08
-9.90257e-07
-4.19359e-08
-9.72427e-07
5.7262e-08
5.1094e-07
2.06817e-07
3.5666e-07
4.36213e-08
4.40864e-07
-4.46779e-07
2.88107e-07
3.8087e-07
-4.48118e-07
2.34479e-07
-1.09497e-09
-4.81827e-07
-1.50608e-08
-9.91359e-07
-2.95232e-08
-9.72294e-07
-5.55601e-08
-9.6422e-07
-4.46041e-08
-9.83381e-07
4.73766e-07
-7.43108e-09
7.769e-07
5.35236e-08
-1.13161e-07
9.33697e-07
-1.91074e-07
3.11641e-07
1.67533e-07
-1.27315e-07
1.70719e-07
3.40448e-08
-6.43182e-07
1.19122e-08
-9.69222e-07
-9.53118e-09
-9.5085e-07
-2.94207e-08
-9.4433e-07
-4.55058e-08
-9.67298e-07
4.45783e-07
-4.98716e-07
6.24441e-07
-1.25152e-07
-9.80881e-08
6.09365e-07
4.60062e-08
3.15279e-07
-4.96383e-08
5.20268e-08
1.64693e-07
5.62935e-08
-6.47465e-07
3.6455e-08
-9.49383e-07
1.27672e-08
-9.27162e-07
-5.98259e-09
-9.2558e-07
-2.47625e-08
-9.48516e-07
1.22751e-07
-6.46217e-07
1.58327e-07
-1.60719e-07
-1.80933e-07
2.41172e-07
5.15995e-08
3.16956e-07
-5.32713e-08
7.46578e-08
1.41626e-07
6.44419e-08
-6.37253e-07
4.39009e-08
-9.28852e-07
2.13501e-08
-9.04612e-07
3.88847e-09
-9.08119e-07
-1.68387e-08
-9.27786e-07
2.40987e-08
-6.87162e-07
1.1079e-07
-2.47416e-07
-2.40995e-07
1.70859e-07
2.89919e-08
2.99998e-07
-1.20347e-08
5.56254e-08
1.14985e-07
5.13284e-08
-6.32943e-07
3.04008e-08
-9.07917e-07
6.36432e-09
-8.80575e-07
-1.43777e-08
-8.87377e-07
-3.55029e-08
-9.06654e-07
-2.62353e-08
-6.96433e-07
7.84588e-09
-2.81495e-07
-2.26517e-07
-6.63495e-09
1.81517e-08
2.78551e-07
3.28793e-09
3.15775e-08
1.01511e-07
1.22594e-08
-6.13639e-07
-8.81117e-09
-8.86853e-07
-2.52745e-08
-8.64112e-07
-5.08368e-08
-8.61815e-07
-7.13179e-08
-8.86176e-07
-7.35057e-08
-6.94248e-07
-8.01131e-08
-2.74895e-07
-1.89817e-07
-1.16806e-07
1.71396e-08
2.49264e-07
1.21453e-08
3.26163e-08
8.60704e-08
1.28743e-08
-5.93897e-07
-9.11593e-09
-8.64866e-07
-2.89659e-08
-8.44263e-07
-5.1964e-08
-8.38817e-07
-7.49509e-08
-8.63195e-07
-1.02168e-07
-6.67024e-07
-1.59157e-07
-2.17917e-07
-1.44358e-07
-2.04619e-07
7.69605e-08
2.16309e-07
-4.40152e-08
5.79206e-08
1.05119e-07
2.954e-08
-5.65526e-07
5.41007e-09
-8.40734e-07
-1.68176e-08
-8.22035e-07
-3.95307e-08
-8.16103e-07
-6.30401e-08
-8.39687e-07
-8.8798e-08
-6.4127e-07
-1.66535e-07
-1.40191e-07
-1.01146e-07
-2.09734e-07
7.85821e-08
2.14027e-07
-7.63044e-08
5.97876e-08
1.2391e-07
4.40518e-08
-5.4978e-07
2.10451e-08
-8.17718e-07
-1.53947e-09
-7.9945e-07
-2.4418e-08
-7.93225e-07
-4.76535e-08
-8.1645e-07
-7.15651e-08
-6.17368e-07
-1.24385e-07
-8.73727e-08
-4.91012e-08
-1.7644e-07
9.80918e-08
2.34313e-07
-1.18374e-07
7.09971e-08
1.50992e-07
7.36086e-08
-5.52407e-07
4.88391e-08
-7.92948e-07
1.88515e-08
-7.69462e-07
2.72424e-09
-7.77098e-07
-2.16294e-08
-7.92082e-07
-5.28628e-08
-5.8616e-07
-9.42769e-08
-4.59548e-08
-8.50101e-11
-1.4329e-07
1.07137e-07
2.73988e-07
-1.46805e-07
5.33045e-08
2.04853e-07
4.01082e-08
-5.39194e-07
1.43093e-08
-7.67155e-07
-8.45638e-09
-7.46696e-07
-3.31804e-08
-7.52374e-07
-5.83177e-08
-7.66947e-07
-8.26196e-08
-5.61868e-07
-1.48269e-07
1.96858e-08
3.81538e-08
-1.86504e-07
1.03826e-07
3.15977e-07
-1.45813e-07
4.27767e-08
2.65904e-07
1.76668e-08
-5.14079e-07
-7.6742e-09
-7.41819e-07
-2.73842e-08
-7.26987e-07
-5.80202e-08
-7.21738e-07
-8.21857e-08
-7.42792e-07
-8.81984e-08
-5.55841e-07
-1.35392e-07
6.68856e-08
8.96587e-08
-1.86913e-07
5.99822e-08
3.59365e-07
-1.03375e-07
4.83343e-08
2.77566e-07
4.62281e-08
-5.11967e-07
1.87962e-08
-7.14382e-07
-9.04027e-09
-6.99151e-07
-3.57192e-08
-6.95059e-07
-6.22665e-08
-7.16254e-07
-6.4559e-08
-5.5355e-07
-6.75802e-08
6.99105e-08
1.42222e-07
-1.20125e-07
2.89779e-08
3.73086e-07
-4.26997e-08
6.0577e-08
2.45968e-07
6.36185e-08
-5.15024e-07
3.54008e-08
-6.86161e-07
5.71815e-09
-6.69468e-07
-1.98157e-08
-6.69525e-07
-4.73707e-08
-6.88697e-07
-6.8386e-08
-5.32535e-07
-5.45025e-08
5.60218e-08
1.55511e-07
-6.77866e-08
1.80473e-08
3.5195e-07
3.09243e-09
6.84537e-08
1.95574e-07
7.03879e-08
-5.16947e-07
4.12317e-08
-6.57001e-07
8.50483e-09
-6.36741e-07
-1.72054e-08
-6.43815e-07
-4.61464e-08
-6.59756e-07
-7.22985e-08
-5.0638e-07
-5.99548e-08
4.36925e-08
1.58446e-07
-6.28788e-08
6.93836e-09
2.87551e-07
5.74715e-08
7.63804e-08
1.26104e-07
5.92687e-08
-4.9984e-07
2.79742e-08
-6.25709e-07
-1.54877e-09
-6.07218e-07
-3.40709e-08
-6.11293e-07
-6.47457e-08
-6.29079e-07
-9.39874e-08
-4.77131e-07
-8.27144e-08
3.24272e-08
1.10729e-07
-3.49825e-08
-8.06947e-08
1.77437e-07
1.90807e-07
5.7056e-08
-1.1617e-08
6.19858e-08
-5.04763e-07
2.72684e-08
-5.90988e-07
6.43419e-09
-5.86384e-07
-2.28234e-08
-5.82035e-07
-5.73458e-08
-5.94557e-07
-4.38052e-08
-4.9067e-07
4.43113e-08
-5.56992e-08
5.83948e-08
9.6646e-08
-8.11508e-08
5.37535e-08
2.04825e-07
3.72076e-08
-1.30008e-07
7.01061e-08
-5.37668e-07
3.96656e-08
-5.60547e-07
6.96499e-09
-5.53683e-07
-2.493e-08
-5.5014e-07
-5.76797e-08
-5.61807e-07
-2.648e-08
-5.21871e-07
5.36517e-08
-1.35827e-07
1.29852e-08
9.90715e-08
2.06682e-08
6.44324e-09
2.66434e-08
4.19794e-08
-1.51314e-07
3.23879e-08
-5.28073e-07
2.15214e-10
-5.28374e-07
-3.64991e-08
-5.16969e-07
-5.71177e-08
-5.29521e-07
-9.7975e-08
-5.2095e-07
-8.51514e-08
-5.34697e-07
-4.50696e-08
-1.75905e-07
1.97761e-09
-3.40695e-08
9.53365e-08
-4.93259e-08
-3.95719e-08
1.2332e-07
-1.79306e-07
6.05245e-08
-4.65277e-07
1.51763e-08
-4.83026e-07
-1.42798e-08
-4.87512e-07
-6.15245e-08
-4.82277e-07
-8.79267e-08
-4.94548e-07
-1.35666e-07
-4.86955e-07
-7.67514e-08
-2.34821e-07
-7.94631e-08
4.68327e-09
1.02019e-07
-8.89931e-08
-6.23503e-08
1.09883e-07
-1.87163e-07
8.70298e-08
-4.42433e-07
5.56439e-08
-4.5164e-07
2.13327e-08
-4.53201e-07
-1.37835e-08
-4.4716e-07
-6.31475e-08
-4.45184e-07
-1.16184e-07
-4.33918e-07
-1.12713e-07
-2.38299e-07
-1.41194e-07
-5.09755e-08
1.2082e-07
-1.20688e-07
-8.91216e-08
1.48771e-07
-2.15061e-07
8.7299e-08
-3.80961e-07
2.87286e-08
-3.9307e-07
-2.01361e-08
-4.04337e-07
-5.80098e-08
-4.09287e-07
-9.36011e-08
-4.09592e-07
-1.35915e-07
-3.91605e-07
-1.2022e-07
-2.53997e-07
-1.78044e-07
-8.33714e-08
9.65986e-08
-1.43352e-07
-7.39378e-08
1.4712e-07
-2.65573e-07
1.06964e-07
-3.40805e-07
7.38924e-08
-3.59998e-07
3.47284e-08
-3.65173e-07
-1.05068e-08
-3.64052e-07
-6.61325e-08
-3.53967e-07
-1.16431e-07
-3.41306e-07
-6.8096e-08
-3.0233e-07
-1.6945e-07
-7.66883e-08
1.14259e-07
-1.39737e-07
-1.17869e-07
1.27974e-07
-2.79289e-07
8.30376e-08
-2.95869e-07
3.02866e-08
-3.07247e-07
-2.20898e-08
-3.12796e-07
-7.07475e-08
-3.15394e-07
-1.09446e-07
-3.15269e-07
-1.49587e-07
-3.01165e-07
-1.68787e-07
-2.83128e-07
-1.63735e-07
-1.74501e-07
2.21906e-07
-2.13457e-07
-1.48182e-07
1.5817e-07
-2.15553e-07
1.16099e-07
-2.53797e-07
7.5575e-08
-2.66723e-07
2.97547e-08
-2.66976e-07
-2.10613e-08
-2.64578e-07
-8.13322e-08
-2.54998e-07
-1.33222e-07
-2.49275e-07
-1.97921e-07