/*--------------------------------*- C++ -*----------------------------------*\
  =========                 |
  \\      /  F ield         | OpenFOAM: The Open Source CFD Toolbox
   \\    /   O peration     | Website:  https://openfoam.org
    \\  /    A nd           | Version:  8
     \\/     M anipulation  |
\*---------------------------------------------------------------------------*/
FoamFile
{
    version     2.0;
    format      ascii;
    class       volVectorField;
    location    "6.05";
    object      U;
}
// * * * * * * * * * * * * * * * * * * * * * * * * * * * * * * * * * * * * * //

dimensions      [0 1 -1 0 0 0 0];

internalField   nonuniform List<vector> 
9150
(
(0.00482091 -0.0784628 0)
(0.0131441 -0.0973657 0)
(0.0109299 -0.104555 0)
(0.00914131 -0.107433 0)
(0.00297306 -0.10923 0)
(-0.00196632 -0.10956 0)
(-0.00869915 -0.107939 0)
(-0.0108554 -0.104603 0)
(-0.0130962 -0.0974098 0)
(-0.00483202 -0.0785031 0)
(0.00585779 -0.0919822 0)
(0.00857372 -0.100508 0)
(0.00739543 -0.102293 0)
(0.00426038 -0.104915 0)
(0.00188473 -0.10556 0)
(-0.00181388 -0.105519 0)
(-0.00430496 -0.104599 0)
(-0.00744753 -0.102154 0)
(-0.00853847 -0.100486 0)
(-0.00585145 -0.0919844 0)
(0.00170775 -0.0954556 0)
(0.00455358 -0.0989716 0)
(0.00370841 -0.101113 0)
(0.00346744 -0.101664 0)
(0.000699186 -0.102471 0)
(-0.00119745 -0.102339 0)
(-0.00337293 -0.101683 0)
(-0.00371947 -0.101069 0)
(-0.00455072 -0.0989589 0)
(-0.00170589 -0.0954528 0)
(0.00171871 -0.0984064 0)
(0.00244486 -0.100391 0)
(0.00219075 -0.100241 0)
(0.00126846 -0.100868 0)
(0.000801212 -0.100874 0)
(-0.000347606 -0.100934 0)
(-0.00129649 -0.100843 0)
(-0.0022035 -0.100187 0)
(-0.00244764 -0.100382 0)
(-0.00172313 -0.0984071 0)
(0.000172798 -0.099484 0)
(0.000713004 -0.0995812 0)
(0.000462725 -0.100035 0)
(0.0005981 -0.0998966 0)
(9.62239e-05 -0.100133 0)
(-0.000303528 -0.100107 0)
(-0.000711199 -0.0998542 0)
(-0.000492814 -0.100014 0)
(-0.00071132 -0.0995797 0)
(-0.000173922 -0.0994859 0)
(0.0748675 -0.193987 3.07863e-26)
(0.049294 -0.184287 0)
(0.0300556 -0.17543 0)
(0.0150538 -0.175171 0)
(0.00391767 -0.175797 0)
(-0.00550634 -0.175711 0)
(-0.0159327 -0.17388 0)
(-0.0302162 -0.176168 0)
(-0.049312 -0.184803 0)
(-0.0749605 -0.194334 -3.07443e-26)
(0.0584717 -0.146661 7.55679e-27)
(0.048656 -0.146574 0)
(0.0285213 -0.155828 0)
(0.0209581 -0.155132 0)
(0.00495532 -0.154887 0)
(-0.00493146 -0.155513 0)
(-0.0207923 -0.157819 0)
(-0.0283288 -0.156577 0)
(-0.0486609 -0.146613 0)
(-0.058407 -0.146732 -7.8942e-27)
(0.0474811 -0.12137 3.47851e-27)
(0.0430396 -0.131276 0)
(0.029677 -0.13358 0)
(0.0178114 -0.13782 0)
(0.00726247 -0.140199 0)
(-0.00471516 -0.140315 0)
(-0.0165724 -0.137515 0)
(-0.0291076 -0.133304 0)
(-0.0427558 -0.131117 0)
(-0.0473961 -0.121346 -3.53321e-27)
(0.0369871 -0.0993122 6.60469e-27)
(0.0392394 -0.110177 0)
(0.0227596 -0.120769 0)
(0.0175137 -0.125284 0)
(0.00473196 -0.125439 0)
(-0.00450455 -0.125034 0)
(-0.0177858 -0.124689 0)
(-0.0230157 -0.120633 0)
(-0.03939 -0.110181 0)
(-0.0370022 -0.0992813 -6.65975e-27)
(0.0242587 -0.0817026 -1.7034e-26)
(0.0276855 -0.101339 -2.05149e-26)
(0.0196897 -0.108378 -5.14444e-27)
(0.010264 -0.114308 -4.54082e-27)
(0.00351948 -0.11714 -2.29533e-28)
(-0.00533631 -0.116997 -2.13914e-28)
(-0.0108056 -0.114085 -4.42946e-27)
(-0.0197297 -0.108393 -5.15252e-27)
(-0.0277651 -0.101337 -2.05383e-26)
(-0.0242587 -0.0817239 -1.70256e-26)
(0.0190061 -0.139375 0)
(0.0126253 -0.203571 0)
(0.0237068 -0.214924 0)
(0.014145 -0.221709 0)
(0.0115152 -0.225828 0)
(-0.00316108 -0.226714 0)
(-0.00573748 -0.22426 0)
(-0.0201277 -0.216905 0)
(-0.0099115 -0.20533 0)
(-0.019097 -0.142786 0)
(0.0166836 -0.166145 0)
(0.00157516 -0.1987 0)
(0.0151269 -0.208937 0)
(0.00233912 -0.214462 0)
(0.00428882 -0.214969 0)
(-0.00620729 -0.215146 0)
(-0.00331149 -0.212943 0)
(-0.0145775 -0.209056 0)
(-0.00120535 -0.20008 0)
(-0.0155315 -0.167629 0)
(0.0144228 -0.171888 0)
(-0.00423022 -0.203433 0)
(0.0109082 -0.208794 0)
(0.000107819 -0.209339 0)
(0.00415661 -0.209932 0)
(-0.00180868 -0.210496 0)
(0.00140992 -0.210474 0)
(-0.0101 -0.209355 0)
(0.00461885 -0.204101 0)
(-0.0146026 -0.172747 0)
(0.0190684 -0.195292 0)
(-0.00716163 -0.204277 0)
(0.00953836 -0.210587 0)
(-0.000359759 -0.207239 0)
(0.00056288 -0.206845 0)
(-0.00145491 -0.206813 0)
(0.000276775 -0.205661 0)
(-0.00924982 -0.210813 0)
(0.0072175 -0.204833 0)
(-0.0186339 -0.195753 0)
(0.036522 -0.216567 0)
(0.0104059 -0.203609 0)
(0.0159412 -0.202099 0)
(0.0123386 -0.1953 0)
(0.00267771 -0.192015 0)
(-0.0014136 -0.192342 0)
(-0.0117218 -0.196401 0)
(-0.0158835 -0.202078 0)
(-0.0103335 -0.203813 0)
(-0.0367636 -0.217161 0)
(0.037293 0.00316827 0)
(0.0342117 0.00421431 0)
(0.0278011 0.00921645 0)
(0.0201885 0.00588642 0)
(0.014274 0.00043285 0)
(0.00799949 0.00398863 0)
(-0.00110705 0.00890963 0)
(-0.00708614 0.00582704 0)
(-0.00889298 -0.00149015 0)
(-0.00632194 -0.00408869 0)
(0.0440235 0.0145775 0)
(0.0389899 0.0140777 0)
(0.0342689 0.0179466 0)
(0.0307322 0.0209574 0)
(0.0235031 0.0224527 0)
(0.0127321 0.0267257 0)
(0.00660383 0.018828 0)
(0.00131867 0.0101463 0)
(-0.00151932 -0.000186484 0)
(-0.0041671 -0.00411897 0)
(0.0440939 0.0231026 0)
(0.0405779 0.0233901 0)
(0.0363957 0.0264865 0)
(0.032062 0.0300856 0)
(0.0273869 0.0327433 0)
(0.0215809 0.0377924 0)
(0.0177061 0.0362338 0)
(0.00944545 0.0253623 0)
(0.00315988 0.010774 0)
(-0.00486695 0.00625756 0)
(0.0433149 0.028332 0)
(0.0404203 0.0293767 0)
(0.0369412 0.0337246 0)
(0.0315152 0.0395107 0)
(0.0240684 0.044197 0)
(0.0180185 0.0448836 0)
(0.0130098 0.046009 0)
(0.00726931 0.0376613 0)
(-0.00137607 0.0275107 0)
(-0.0112709 0.0300001 0)
(0.0408829 0.036153 0)
(0.0353208 0.0384751 0)
(0.0282341 0.0454488 0)
(0.021492 0.0537435 0)
(0.0170794 0.0579463 0)
(0.0138464 0.0561246 0)
(0.0106155 0.0556841 0)
(0.00725787 0.0519688 0)
(-3.7546e-05 0.0466862 0)
(-0.00732018 0.0487539 0)
(0.0311825 0.0483588 0)
(0.0232839 0.0551445 0)
(0.0178004 0.0613532 0)
(0.0139859 0.0618463 0)
(0.0104006 0.0614889 0)
(0.00994896 0.0608199 0)
(0.00810041 0.0612264 0)
(0.00794147 0.0606762 0)
(0.00584953 0.0565282 0)
(0.00483704 0.0557394 0)
(0.0175545 0.0651027 0)
(0.0147537 0.0640757 0)
(0.012739 0.0643744 0)
(0.0114415 0.0671212 0)
(0.0082788 0.0691008 0)
(0.00298544 0.0626002 0)
(0.00417357 0.0578675 0)
(0.00501261 0.0575249 0)
(0.00518304 0.0553681 0)
(0.00261341 0.0553618 0)
(0.00361112 0.0662069 0)
(0.00186396 0.0637993 0)
(-0.00181162 0.0679064 0)
(-0.0023188 0.0720033 0)
(-0.000788897 0.0741243 0)
(-0.000542217 0.0637018 0)
(-0.00640496 0.0579204 0)
(-0.00794449 0.059956 0)
(-0.00801715 0.0623393 0)
(-0.0116049 0.0684549 0)
(-0.00909536 0.0714203 0)
(-0.00954266 0.0781919 0)
(-0.0159999 0.073716 0)
(-0.0125778 0.0567684 0)
(-0.00479001 0.0661331 0)
(-0.0010251 0.0738784 0)
(-0.013429 0.0780398 0)
(-0.0296475 0.0671752 0)
(-0.0385295 0.062461 0)
(-0.0357991 0.0645857 0)
(-0.0332973 0.0584657 0)
(-0.0157557 0.0652331 0)
(-0.00235457 0.0773236 0)
(-0.00049649 0.055925 0)
(0.00110193 0.062887 0)
(0.0106038 0.0805267 0)
(0.0116098 0.102467 0)
(0.00906193 0.0972329 0)
(0.0072275 0.0699688 0)
(0.0073193 0.0427663 0)
(-0.00148095 0.0408712 0)
(0.0166026 0.0277269 0)
(0.0329824 0.050659 0)
(0.0462734 0.0466546 0)
(0.0604188 0.0392068 0)
(0.0766658 0.0411848 0)
(0.0883045 0.0771092 0)
(0.105376 0.0948828 0)
(0.107698 0.0848387 0)
(0.113683 0.0515737 0)
(0.0842819 -0.0086157 0)
(0.0963035 -0.0172683 0)
(0.102638 -0.00842011 0)
(0.125266 0.010008 0)
(0.141936 0.0218383 0)
(0.147243 0.023987 0)
(0.145366 0.0390541 0)
(0.159795 0.0639744 0)
(0.166619 0.0633807 0)
(0.174334 0.0413245 0)
(0.133751 -0.0108813 0)
(0.130021 -0.0185338 0)
(0.131232 -0.0217522 0)
(0.135992 -0.0159343 0)
(0.146093 -0.000894951 0)
(0.16111 0.00709126 0)
(0.168131 0.0302395 0)
(0.172683 0.0513169 0)
(0.174169 0.0506647 0)
(0.173399 0.0422425 0)
(0.14468 0.000958279 0)
(0.137451 -0.0148266 0)
(0.13699 -0.0338553 0)
(0.142111 -0.0285835 0)
(0.143212 -0.0168959 0)
(0.133629 -0.00912929 0)
(0.12762 0.0178931 0)
(0.132177 0.0546698 0)
(0.138345 0.0590773 0)
(0.145956 0.0470773 0)
(0.154771 0.015646 0)
(0.151684 -0.00072328 0)
(0.136195 -0.0264909 0)
(0.121401 -0.0187678 0)
(0.094387 0.0291151 0)
(0.0639802 0.049566 0)
(0.0551922 0.0236257 0)
(0.0665356 0.0180094 0)
(0.0809932 0.0215364 0)
(0.0832645 0.034087 0)
(0.132093 0.01693 0)
(0.125122 0.0115649 0)
(0.110144 0.0193895 0)
(0.080076 0.0534422 0)
(0.056203 0.0786554 0)
(0.0502245 0.0721367 0)
(0.0437461 0.0124607 0)
(0.0402415 0.00739869 0)
(0.0348391 0.0294347 0)
(0.0365812 0.0746374 0)
(0.0901645 0.0378102 0)
(0.0840376 0.0415684 0)
(0.0732107 0.0635374 0)
(0.0567764 0.0896763 0)
(0.0493833 0.0966703 0)
(0.0493329 0.0768617 0)
(0.0406338 0.0331474 0)
(0.0303246 0.0255557 0)
(0.0255461 0.0335594 0)
(0.0219398 0.070628 0)
(0.0852341 0.0641785 0)
(0.0736407 0.0589335 0)
(0.0560561 0.0744795 0)
(0.0449092 0.0962788 0)
(0.0419773 0.102955 0)
(0.0435212 0.0855998 0)
(0.0379808 0.0560248 0)
(0.0226865 0.0375322 0)
(0.00896706 0.0473761 0)
(0.00183864 0.0899841 0)
(0.0900602 0.0777879 0)
(0.0731242 0.0939809 0)
(0.0437899 0.116912 0)
(0.033276 0.120316 0)
(0.0325744 0.108275 0)
(0.0326139 0.0815968 0)
(0.0256266 0.0807667 0)
(0.0103165 0.0794395 0)
(-0.0147373 0.0781321 0)
(-0.0226343 0.0998511 0)
(0.0798828 0.11699 0)
(0.0229026 0.14642 0)
(0.0174525 0.126767 0)
(0.0158303 0.116757 0)
(0.0144476 0.101294 0)
(0.0095076 0.10181 0)
(-2.79414e-05 0.103185 0)
(-0.00337261 0.100788 0)
(-0.018507 0.108208 0)
(-0.0310729 0.10936 0)
(-0.00791279 0.230806 0)
(-0.0276939 0.183401 0)
(-0.0201228 0.153915 0)
(-0.0226047 0.142099 0)
(-0.0294327 0.116466 0)
(-0.035274 0.0999995 0)
(-0.0421389 0.102055 0)
(-0.048766 0.129674 0)
(-0.0534779 0.141383 0)
(-0.0596762 0.129976 0)
(-0.114587 0.213682 0)
(-0.0957507 0.142336 0)
(-0.0824723 0.12937 0)
(-0.0822135 0.127331 0)
(-0.0893644 0.128847 0)
(-0.102073 0.137568 0)
(-0.105606 0.139321 0)
(-0.106242 0.137654 0)
(-0.0936301 0.126843 0)
(-0.0839766 0.116639 0)
(-0.158109 0.143102 0)
(-0.153465 0.139031 0)
(-0.155696 0.149956 0)
(-0.157227 0.152436 0)
(-0.157984 0.145989 0)
(-0.153221 0.124224 0)
(-0.150778 0.114727 0)
(-0.153007 0.107777 0)
(-0.151895 0.101572 0)
(-0.148593 0.0983403 0)
(-0.245171 0.142571 0)
(-0.242176 0.140449 0)
(-0.226897 0.13467 0)
(-0.21154 0.127812 0)
(-0.202127 0.131903 0)
(-0.200702 0.132453 0)
(-0.202288 0.131237 0)
(-0.206858 0.123997 0)
(-0.214477 0.116191 0)
(-0.227838 0.113555 0)
(-0.32602 0.111249 0)
(-0.320723 0.100106 0)
(-0.314236 0.098827 0)
(-0.306078 0.102916 0)
(-0.295699 0.114928 0)
(-0.287414 0.12026 0)
(-0.278344 0.131897 0)
(-0.275417 0.137109 0)
(-0.278895 0.137222 0)
(-0.286535 0.134518 0)
(-0.356027 0.116555 0)
(-0.357724 0.104088 0)
(-0.358927 0.0996253 0)
(-0.361111 0.0973199 0)
(-0.36189 0.100079 0)
(-0.358932 0.104047 0)
(-0.345068 0.108837 0)
(-0.324757 0.126175 0)
(-0.309962 0.140817 0)
(-0.303309 0.143824 0)
(-0.353801 0.117733 0)
(-0.357166 0.108665 0)
(-0.363893 0.106059 0)
(-0.372748 0.10298 0)
(-0.371518 0.0981525 0)
(-0.355144 0.0870821 0)
(-0.33184 0.0775322 0)
(-0.311742 0.0814846 0)
(-0.300145 0.094431 0)
(-0.290558 0.106732 0)
(-0.299937 0.128495 0)
(-0.295398 0.12683 0)
(-0.294989 0.127537 0)
(-0.300514 0.12126 0)
(-0.302351 0.0659584 0)
(-0.290186 0.0173135 0)
(-0.260903 0.0090176 0)
(-0.223538 0.0376146 0)
(-0.211505 0.0886226 0)
(-0.20815 0.112818 0)
(-0.284076 0.122001 0)
(-0.286836 0.127772 0)
(-0.26001 0.119809 0)
(-0.180469 0.0810416 0)
(-0.126599 0.0549227 0)
(-0.095918 0.0598529 0)
(-0.074008 0.013439 0)
(-0.0718873 -0.00496731 0)
(-0.0967878 0.0351889 0)
(-0.131454 0.0954505 0)
(-0.255045 0.12562 0)
(-0.269743 0.0819327 0)
(-0.202168 -0.0659976 0)
(-0.141616 -0.152903 0)
(-0.100466 -0.150665 0)
(-0.0494956 -0.0946055 0)
(-0.0240785 -0.0286974 0)
(-0.0420227 0.0657374 0)
(-0.0983761 0.165491 0)
(-0.138209 0.189538 0)
(-0.159624 0.159151 0)
(-0.17961 0.0707869 0)
(-0.130079 -0.112008 0)
(-0.119705 -0.182151 0)
(-0.113082 -0.180716 0)
(-0.112998 -0.117553 0)
(-0.16086 0.00507983 0)
(-0.201743 0.155892 0)
(-0.227126 0.237373 0)
(-0.278171 0.251249 0)
(-0.0947832 0.168286 0)
(-0.102326 0.0820504 0)
(-0.0920041 -0.107318 0)
(-0.100166 -0.1588 0)
(-0.123681 -0.132234 0)
(-0.196518 0.0278825 0)
(-0.294714 0.200643 0)
(-0.330654 0.277781 0)
(-0.348559 0.312333 0)
(-0.37065 0.314417 0)
(-0.0844127 0.175951 0)
(-0.0966613 0.053986 0)
(-0.106475 -0.0873665 0)
(-0.121169 -0.0945658 0)
(-0.148264 -0.038321 0)
(-0.179 0.17606 0)
(-0.248337 0.266835 0)
(-0.27255 0.317043 0)
(-0.276118 0.338998 0)
(-0.280674 0.326803 0)
(-0.0658907 0.205893 0)
(-0.0904931 0.0664679 0)
(-0.102545 -0.0608942 0)
(-0.100884 -0.0771912 0)
(-0.0997302 -0.0298892 0)
(-0.0539533 0.200081 0)
(-0.101787 0.306957 0)
(-0.117648 0.306623 0)
(-0.14545 0.292629 0)
(-0.16276 0.228338 0)
(0.0022981 0.224856 0)
(-0.00715479 0.164718 0)
(-0.0226599 -0.0229892 0)
(-0.0391529 -0.0959865 0)
(-0.0378247 -0.0806997 0)
(0.00515042 0.0504031 0)
(0.0963468 0.324698 0)
(0.0856638 0.421086 0)
(0.0795769 0.400514 0)
(0.0395165 0.289979 0)
(0.0454059 0.165323 0)
(0.0462114 0.152296 0)
(0.0370508 0.0323656 0)
(0.0152131 -0.0833041 0)
(0.0276171 -0.114267 0)
(0.0577944 -0.0884973 0)
(0.110489 0.160539 0)
(0.195353 0.371451 0)
(0.23437 0.396589 0)
(0.229047 0.366049 0)
(0.105814 0.160828 0)
(0.101487 0.134788 0)
(0.0966586 0.0704478 0)
(0.0820081 -0.073059 0)
(0.0623658 -0.140895 0)
(0.068681 -0.130413 0)
(0.0963164 -0.00370164 0)
(0.176129 0.259912 0)
(0.235494 0.335109 0)
(0.257757 0.318717 0)
(0.197135 0.173203 0)
(0.188059 0.162756 0)
(0.167882 0.128778 0)
(0.146169 0.0213354 0)
(0.112506 -0.102177 0)
(0.0891587 -0.127725 0)
(0.0826786 -0.0668932 0)
(0.129874 0.126695 0)
(0.182744 0.222513 0)
(0.220287 0.224706 0)
(0.199629 0.190946 0)
(0.191311 0.18207 0)
(0.173207 0.153366 0)
(0.158322 0.073052 0)
(0.137977 -0.0571524 0)
(0.117791 -0.0829041 0)
(0.0980521 -0.0605693 0)
(0.100955 0.0380621 0)
(0.148121 0.123146 0)
(0.188654 0.143099 0)
(0.160432 0.211442 0)
(0.162483 0.198594 0)
(0.155971 0.171295 0)
(0.156812 0.0896966 0)
(0.154348 -0.0396979 0)
(0.14957 -0.0489931 0)
(0.143035 -0.0403929 0)
(0.147091 -0.0110193 0)
(0.171162 0.0266555 0)
(0.202362 0.0136819 0)
(0.111474 0.185671 0)
(0.138292 0.179627 0)
(0.154505 0.159597 0)
(0.172284 0.0862632 0)
(0.162989 -0.0262408 0)
(0.154338 -0.0577599 0)
(0.15345 -0.054412 0)
(0.14941 -0.0210913 0)
(0.15991 0.00398739 0)
(0.174343 -0.00767839 0)
(0.0799557 0.115475 0)
(0.108013 0.14008 0)
(0.128288 0.136145 0)
(0.145433 0.0741884 0)
(0.1386 0.00686607 0)
(0.118545 -0.0346525 0)
(0.112202 -0.0204337 0)
(0.0974653 -0.00228315 0)
(0.0974431 -0.0208985 0)
(0.114669 -0.0466781 0)
(0.0307249 0.0713837 0)
(0.0505554 0.0584845 0)
(0.0818093 0.0563837 0)
(0.0877779 0.053414 0)
(0.0627483 0.0408912 0)
(0.0644829 -0.0157885 0)
(0.0733848 -0.00525993 0)
(0.0881948 -0.00138587 0)
(0.09621 -0.0412774 0)
(0.101333 -0.0575571 0)
(-0.00519597 -0.0182738 0)
(0.024556 0.0381082 0)
(0.0310577 0.0649928 0)
(0.0304139 0.0953123 0)
(0.0333547 0.0387145 0)
(0.0637479 -0.0639622 0)
(0.0796586 -0.0640695 0)
(0.116279 -0.0438378 0)
(0.146187 -0.051127 0)
(0.177212 -0.109311 0)
(-0.00321523 -0.0636983 0)
(-0.00859433 0.00966599 0)
(0.0320449 0.0401494 0)
(0.0574663 0.0472535 0)
(0.0898427 0.0173225 0)
(0.127754 -0.106389 0)
(0.132942 -0.142898 0)
(0.151225 -0.155483 0)
(0.192112 -0.1399 0)
(0.216666 -0.137085 0)
(0.0374828 -0.022309 0)
(0.0399491 -0.0492149 0)
(0.0626528 -0.0569745 0)
(0.099711 -0.0464461 0)
(0.143835 -0.0562903 0)
(0.164293 -0.11287 0)
(0.167542 -0.145641 0)
(0.169981 -0.159799 0)
(0.175928 -0.163046 0)
(0.191345 -0.154913 0)
(0.0878116 -0.0136766 0)
(0.091642 -0.0444746 0)
(0.0907104 -0.086479 0)
(0.103034 -0.106681 0)
(0.125562 -0.124001 0)
(0.143363 -0.142419 0)
(0.142735 -0.152804 0)
(0.140519 -0.169412 0)
(0.151319 -0.179696 0)
(0.16336 -0.172344 0)
(0.072502 -0.0492493 0)
(0.0925931 -0.0637907 0)
(0.0998869 -0.082876 0)
(0.0882725 -0.114371 0)
(0.0765514 -0.126454 0)
(0.0713128 -0.133348 0)
(0.0708866 -0.143007 0)
(0.0792775 -0.185602 0)
(0.116181 -0.228509 0)
(0.138795 -0.213007 0)
(-0.00886809 -0.0829213 0)
(0.00188251 -0.0834752 0)
(0.00383842 -0.0746352 0)
(-0.00164432 -0.0785091 0)
(-0.00871317 -0.0947028 0)
(-0.00020528 -0.11972 0)
(0.0241597 -0.155636 0)
(0.060852 -0.262549 0)
(0.0892579 -0.297535 0)
(0.123734 -0.225216 0)
(-0.152675 -0.0634228 0)
(-0.165011 -0.0758639 0)
(-0.165873 -0.08376 0)
(-0.153756 -0.0954372 0)
(-0.131233 -0.129722 0)
(-0.0993084 -0.19772 0)
(-0.0207695 -0.314382 0)
(0.0581659 -0.349242 0)
(0.140743 -0.366499 0)
(0.191436 -0.255014 0)
(-0.197119 -0.0566104 0)
(-0.183572 -0.0786542 0)
(-0.148691 -0.117241 0)
(-0.119404 -0.129262 0)
(-0.0954539 -0.20211 0)
(-0.023698 -0.333691 0)
(0.0806119 -0.444944 0)
(0.163394 -0.49422 0)
(0.251653 -0.505349 0)
(0.316504 -0.485986 0)
(-0.125229 -0.106162 0)
(-0.0866566 -0.136505 0)
(-0.0486322 -0.18642 0)
(-0.0262286 -0.208146 0)
(0.00283166 -0.290086 0)
(0.120112 -0.54336 0)
(0.250721 -0.717847 0)
(0.326231 -0.750636 0)
(0.373507 -0.697247 0)
(0.406856 -0.579587 0)
(-0.0937229 -0.221574 0)
(-0.0472882 -0.237566 0)
(0.000501359 -0.25295 0)
(0.0313615 -0.273491 0)
(0.112006 -0.465687 0)
(0.270238 -0.836272 0)
(0.336416 -0.874804 0)
(0.360322 -0.837266 0)
(0.381624 -0.737765 0)
(0.391232 -0.593459 0)
(-0.0933341 -0.303637 0)
(-0.0600769 -0.32819 0)
(-0.00241923 -0.353453 0)
(0.0483019 -0.407403 0)
(0.189037 -0.844042 0)
(0.266651 -0.955954 0)
(0.301822 -0.923225 0)
(0.263525 -0.867027 0)
(0.227697 -0.743277 0)
(0.178559 -0.571649 0)
(-0.115042 -0.368054 0)
(-0.101478 -0.392708 0)
(-0.0584071 -0.459293 0)
(0.030633 -0.626681 0)
(0.148144 -1.02799 0)
(0.118819 -0.97171 0)
(0.0839835 -0.814745 0)
(-0.0449603 -0.676714 0)
(-0.103666 -0.531164 0)
(-0.186972 -0.34728 0)
(-0.134742 -0.382683 0)
(-0.138368 -0.423046 0)
(-0.11648 -0.573086 0)
(-0.0236723 -0.884592 0)
(-0.016024 -1.06234 0)
(-0.0513878 -0.765739 0)
(-0.0937532 -0.553909 0)
(-0.213105 -0.504657 0)
(-0.251631 -0.359366 0)
(-0.331343 -0.172328 0)
(-0.131846 -0.38104 0)
(-0.143705 -0.424179 0)
(-0.125053 -0.62458 0)
(-0.110497 -0.955971 0)
(-0.130887 -0.989773 0)
(-0.0985778 -0.686821 0)
(-0.147773 -0.471639 0)
(-0.254226 -0.387738 0)
(-0.285676 -0.258836 0)
(-0.343919 -0.125996 0)
(-0.110717 -0.362828 0)
(-0.13124 -0.398731 0)
(-0.135134 -0.628824 0)
(-0.181978 -0.956926 0)
(-0.183413 -1.00429 0)
(-0.121403 -0.664708 0)
(-0.146356 -0.382676 0)
(-0.214058 -0.311895 0)
(-0.217007 -0.170593 0)
(-0.246651 -0.13379 0)
(-0.0579099 -0.337079 0)
(-0.0735902 -0.340528 0)
(-0.111008 -0.535973 0)
(-0.205107 -0.92646 0)
(-0.202174 -1.04373 0)
(-0.130659 -0.734322 0)
(-0.136059 -0.3285 0)
(-0.172627 -0.293827 0)
(-0.17062 -0.145316 0)
(-0.159043 -0.0688809 0)
(0.0116926 -0.329935 0)
(-0.00373455 -0.304655 0)
(0.00958528 -0.337759 0)
(-0.152903 -0.806334 0)
(-0.156239 -1.10513 0)
(-0.083383 -0.944727 0)
(-0.0880515 -0.233954 0)
(-0.161324 -0.233349 0)
(-0.172999 -0.16093 0)
(-0.157365 -0.0529969 0)
(0.0741764 -0.320182 0)
(0.0532222 -0.318157 0)
(0.0802955 -0.272434 0)
(-0.0399063 -0.501182 0)
(-0.0747123 -1.11052 0)
(-0.0610771 -1.00869 0)
(-0.0901312 -0.135657 0)
(-0.148079 -0.135027 0)
(-0.179963 -0.118078 0)
(-0.203873 0.00343632 0)
(0.133929 -0.272136 0)
(0.0937716 -0.275189 0)
(0.081556 -0.241934 0)
(-0.00880526 -0.28453 0)
(-0.0270646 -1.08734 0)
(-0.0339651 -1.02937 0)
(-0.0800311 0.0336689 0)
(-0.0803279 -0.0551227 0)
(-0.11389 -0.0834366 0)
(-0.133956 -0.0467574 0)
(0.163346 -0.209499 0)
(0.120992 -0.186468 0)
(0.0480934 -0.139475 0)
(-0.0166713 -0.202125 0)
(-0.00658039 -1.08816 0)
(-0.0244759 -1.04778 0)
(0.0396239 -0.182766 0)
(0.0650069 0.0258405 0)
(0.00244127 0.00810471 0)
(-0.0547478 0.0302877 0)
(0.195897 -0.143988 0)
(0.144533 -0.0734636 0)
(0.0490804 -0.0241392 0)
(-0.0348008 -0.186716 0)
(-0.018379 -1.08345 0)
(-0.0464263 -1.0211 0)
(-0.0761556 -0.0290522 0)
(-0.107617 0.0462755 0)
(-0.113526 0.0712445 0)
(-0.114442 0.0585776 0)
(0.177838 -0.0926387 0)
(0.0704969 0.0919027 0)
(0.0635421 0.102789 0)
(-0.0105483 -0.0118423 0)
(0.000981673 -1.05522 0)
(-0.0436275 -1.02268 0)
(-0.0404506 0.0518863 0)
(-0.0891119 0.0555668 0)
(-0.106177 0.0590719 0)
(-0.109085 0.0536495 0)
(-0.0337526 0.205465 0)
(-0.0612273 0.103737 0)
(-0.0214208 0.111349 0)
(-0.0816031 0.102205 0)
(0.0293361 -1.05762 0)
(-0.0245212 -1.05549 0)
(0.0640033 0.142947 0)
(0.00857863 0.132692 0)
(-0.0309842 0.0774091 0)
(-0.0566769 0.0332578 0)
(-0.228171 0.180952 0)
(-0.280966 0.132071 0)
(-0.267492 0.21437 0)
(-0.0261842 -0.379265 0)
(0.0339348 -1.05355 0)
(-0.00997224 -1.05561 0)
(0.0825296 -0.211066 0)
(0.191971 0.270293 0)
(0.0706519 0.21767 0)
(0.0228829 0.12801 0)
(-0.194633 0.266958 0)
(-0.236754 0.0792459 0)
(-0.174273 -0.220806 0)
(-0.0203207 -0.762994 0)
(0.0161122 -1.05559 0)
(-0.00838688 -1.05396 0)
(0.0154568 -0.496987 0)
(0.168629 0.460409 0)
(0.0325137 0.311396 0)
(0.0981241 0.08303 0)
(-0.0628308 0.171487 0)
(0.0398576 0.0594445 0)
(0.0402615 0.0969668 0)
(-0.0192979 -0.788496 0)
(0.018045 -1.05251 0)
(-0.00289723 -1.05414 0)
(0.0415344 -0.696253 0)
(0.0288287 0.605766 0)
(0.0163294 0.155691 0)
(0.117741 -0.0265473 0)
(0.032282 0.00897491 0)
(0.0504926 -0.183561 0)
(0.00869512 0.0433915 0)
(-0.0113198 -0.914561 0)
(0.00496473 -1.0515 0)
(-0.00745079 -1.05441 0)
(0.00389542 -0.784712 0)
(0.0684501 0.594113 0)
(0.036817 0.0422147 0)
(0.0304403 -0.0373569 0)
(-0.261707 0.0325614 0)
(0.0322006 0.0409488 0)
(-0.0233914 0.184054 0)
(-0.0162531 -0.965068 0)
(-0.000451867 -1.04516 0)
(-0.00867579 -1.04713 0)
(0.00609759 -0.85829 0)
(0.01811 0.544847 0)
(0.00380103 0.158303 0)
(-0.155649 0.245417 0)
(0.156071 0.052776 0)
(0.153549 -0.650645 0)
(-0.0498 0.358426 0)
(0.00587459 -0.980024 0)
(-0.00516314 -1.03307 0)
(-0.0103846 -1.03197 0)
(-0.0188096 -0.926432 0)
(0.0547294 0.643294 0)
(-0.00381179 0.354817 0)
(-0.120699 0.25121 0)
(0.253114 -0.181465 0)
(0.0806126 -0.0344777 0)
(-0.0131652 0.418418 0)
(0.0133471 -0.971981 0)
(0.00605846 -1.0168 0)
(-0.00912795 -1.01694 0)
(-0.0281443 -0.957529 0)
(0.0286425 0.673996 0)
(-0.0114102 0.496291 0)
(-0.0647638 0.303248 0)
(-0.211196 0.228097 0)
(-0.251567 0.341563 0)
(-0.0209439 0.417681 0)
(0.00563873 -1.01425 0)
(-0.00108492 -0.997646 0)
(-0.014702 -0.999269 0)
(-0.0311927 -0.947338 0)
(-0.000434453 0.629406 0)
(0.0325066 0.52553 0)
(0.171704 0.231219 0)
(-0.228446 0.225623 0)
(-0.302375 0.170384 0)
(-0.0325296 -0.507363 0)
(-0.00482739 -1.00635 0)
(-0.00252157 -0.979625 0)
(-0.0150565 -0.976407 0)
(-0.0302664 -0.994483 0)
(-0.0050058 0.515435 0)
(0.316587 0.307755 0)
(0.513481 -0.119658 0)
(-0.0999172 0.289192 0)
(-0.137946 0.185507 0)
(0.0291758 -0.572645 0)
(0.00967963 -0.97752 0)
(0.00630541 -0.961386 0)
(-0.00712052 -0.955317 0)
(-0.0124964 -0.979071 0)
(-0.00671148 -0.544507 0)
(0.32154 -0.222843 0)
(0.319857 -0.106193 0)
(0.0220761 0.337014 0)
(0.0198235 0.210022 0)
(0.0408882 -0.620698 0)
(0.0192406 -0.961509 0)
(0.0119641 -0.93799 0)
(-0.000934572 -0.93433 0)
(-0.00392372 -0.958802 0)
(-0.0061434 -0.562449 0)
(0.0878694 -0.091552 0)
(0.0931346 -0.139027 0)
(0.0255857 0.326941 0)
(0.0364016 0.157496 0)
(0.0433915 -0.638296 0)
(0.0208164 -0.938213 0)
(0.012915 -0.916044 0)
(0.000577551 -0.916793 0)
(-0.00272355 -0.939819 0)
(-0.00448659 -0.678827 0)
(0.0381649 -0.222278 0)
(0.0678645 -0.231074 0)
(0.0074349 0.309165 0)
(0.0285807 0.117253 0)
(0.0337847 -0.63871 0)
(0.012901 -0.920062 0)
(0.00717114 -0.892017 0)
(-0.00688423 -0.897229 0)
(-0.0115844 -0.916889 0)
(-0.0195591 -0.692583 0)
(0.004043 -0.27581 0)
(0.00340078 -0.243027 0)
(0.00374293 0.288748 0)
(0.0189246 0.106179 0)
(0.00856444 -0.627496 0)
(-0.00109891 -0.896374 0)
(-0.00466493 -0.872892 0)
(-0.015689 -0.874339 0)
(-0.0256798 -0.89674 0)
(-0.0449127 -0.698916 0)
(-0.0381272 -0.282616 0)
(-0.0496241 -0.198984 0)
(-0.000703259 0.265765 0)
(0.0210894 0.0860292 0)
(0.00395109 -0.603564 0)
(0.00172571 -0.877677 0)
(-0.00306209 -0.85357 0)
(-0.0163237 -0.849815 0)
(-0.0237605 -0.875316 0)
(-0.0486565 -0.671938 0)
(-0.0702439 -0.237316 0)
(-0.0898805 -0.16715 0)
(0.0303179 0.226245 0)
(0.0424558 0.0989202 0)
(0.0137075 -0.573541 0)
(0.00927385 -0.852538 0)
(0.000432528 -0.832437 0)
(-0.0107689 -0.827284 0)
(-0.0203868 -0.85162 0)
(-0.0374092 -0.64997 0)
(-0.0652807 -0.175419 0)
(-0.096804 -0.119125 0)
(0.0409072 0.211448 0)
(0.0393704 0.10855 0)
(0.0231648 -0.562246 0)
(0.0145731 -0.829622 0)
(0.00625159 -0.810256 0)
(-0.00570522 -0.804244 0)
(-0.0132618 -0.828271 0)
(-0.0282192 -0.632074 0)
(-0.0497571 -0.113388 0)
(-0.0765039 -0.07588 0)
(0.0540015 0.219061 0)
(0.0457023 0.130831 0)
(0.0421167 -0.550029 0)
(0.023627 -0.806073 0)
(0.0126874 -0.785604 0)
(0.0016729 -0.786802 0)
(-0.00608077 -0.80509 0)
(-0.00978293 -0.603325 0)
(-0.0367372 -0.0715515 0)
(-0.0584137 -0.0219101 0)
(0.0624249 0.248845 0)
(0.0413472 0.178685 0)
(0.0223256 -0.545254 0)
(0.00917779 -0.779602 0)
(0.000487173 -0.757574 0)
(-0.0107827 -0.762966 0)
(-0.0200869 -0.77919 0)
(-0.0298244 -0.567253 0)
(-0.0609883 -0.0104729 0)
(-0.0830861 0.019 0)
(0.0623791 0.294313 0)
(0.0380103 0.234205 0)
(0.00221375 -0.523321 0)
(0.00634798 -0.755441 0)
(-0.00543246 -0.737577 0)
(-0.0173726 -0.737405 0)
(-0.0277978 -0.75573 0)
(-0.0479332 -0.561562 0)
(-0.0564892 0.0453996 0)
(-0.0797641 0.0631631 0)
(0.0409965 0.327067 0)
(0.0240555 0.27316 0)
(0.021888 -0.515885 0)
(0.0171848 -0.728945 0)
(0.00431835 -0.711465 0)
(-0.0103303 -0.708148 0)
(-0.0219773 -0.73032 0)
(-0.0335584 -0.558706 0)
(-0.0357189 0.0725592 0)
(-0.0402235 0.114816 0)
(0.0106948 0.372634 0)
(0.0247233 0.269891 0)
(0.0344346 -0.516467 0)
(0.022472 -0.700766 0)
(0.00939769 -0.683213 0)
(-0.00363994 -0.682612 0)
(-0.0159358 -0.702935 0)
(-0.0251447 -0.547878 0)
(-0.0382471 0.0680646 0)
(-0.0241151 0.156432 0)
(-0.00238331 0.370644 0)
(0.0260953 0.229845 0)
(0.0415431 -0.520016 0)
(0.0239105 -0.672333 0)
(0.0108219 -0.652873 0)
(-0.00367138 -0.655984 0)
(-0.0176303 -0.675249 0)
(-0.0235671 -0.520082 0)
(-0.0417264 0.0391118 0)
(-0.025819 0.159178 0)
(-0.0206146 0.344976 0)
(0.0304169 0.190667 0)
(0.035411 -0.499232 0)
(0.0224289 -0.64017 0)
(0.00727999 -0.625345 0)
(-0.00899401 -0.627309 0)
(-0.0261658 -0.643162 0)
(-0.0386458 -0.481016 0)
(-0.0536989 0.0654349 0)
(-0.0261957 0.149331 0)
(-0.0711623 0.266806 0)
(0.00444526 0.0734271 0)
(0.0416576 -0.495878 0)
(0.0219422 -0.608175 0)
(0.00839802 -0.596953 0)
(-0.00272394 -0.598139 0)
(-0.0217535 -0.611048 0)
(-0.0463001 -0.477449 0)
(0.0139773 -0.0111399 0)
(0.0312641 0.0941985 0)
(-0.066155 0.0651302 0)
(-0.00482341 -0.10555 0)
(0.0405176 -0.529918 0)
(0.0268193 -0.575472 0)
(0.0112159 -0.56738 0)
(-0.00478995 -0.572202 0)
(-0.0257159 -0.577962 0)
(-0.0554991 -0.517684 0)
(0.0457541 -0.114677 0)
(0.0231978 0.00544399 0)
(0.00532663 0.0381629 0)
(0.00858404 -0.146089 0)
(0.0321481 -0.536518 0)
(0.0113836 -0.541942 0)
(-0.011638 -0.53805 0)
(-0.0229349 -0.539417 0)
(-0.0382707 -0.543446 0)
(-0.0718625 -0.524835 0)
(-0.01291 -0.136297 0)
(-0.0257292 0.0272109 0)
(0.0399139 -0.0259947 0)
(0.0596563 -0.16293 0)
(0.0471183 -0.495693 0)
(0.0200582 -0.507006 0)
(0.00040643 -0.508916 0)
(-0.0191542 -0.505056 0)
(-0.0342567 -0.505148 0)
(-0.0639554 -0.487419 0)
(-0.0607205 -0.223781 0)
(-0.0189688 -0.0259168 0)
(0.0451204 -0.0757371 0)
(0.0447086 -0.190782 0)
(0.0570915 -0.450994 0)
(0.0437992 -0.466473 0)
(0.01874 -0.46894 0)
(0.00131523 -0.468021 0)
(-0.0164121 -0.466673 0)
(-0.054622 -0.449626 0)
(-0.0587379 -0.248692 0)
(-0.0446055 -0.132111 0)
(0.047494 -0.111391 0)
(0.070325 -0.195181 0)
(0.0707115 -0.399297 0)
(0.0278282 -0.418889 0)
(0.00255523 -0.424714 0)
(-0.0212517 -0.425514 0)
(-0.0402454 -0.423638 0)
(-0.0625706 -0.400994 0)
(-0.0679799 -0.241149 0)
(-0.048492 -0.162763 0)
(0.029234 -0.127313 0)
(0.0750684 -0.254145 0)
(0.0654146 -0.350294 0)
(0.0488636 -0.374816 0)
(0.0295682 -0.38081 0)
(0.00632942 -0.382012 0)
(-0.0162327 -0.380605 0)
(-0.0585393 -0.365471 0)
(-0.0643195 -0.288555 0)
(-0.0100118 -0.169645 0)
(0.07005 -0.146504 0)
(0.0690961 -0.274325 0)
(0.0663066 -0.310384 0)
(0.025451 -0.32433 0)
(0.00285386 -0.330926 0)
(-0.0244677 -0.332527 0)
(-0.049174 -0.329636 0)
(-0.0695621 -0.309482 0)
(-0.0711048 -0.290329 0)
(-0.0978224 -0.179387 0)
(0.104072 -0.204607 0)
(0.0780008 -0.21757 0)
(0.0732509 -0.258161 0)
(0.0479754 -0.28297 0)
(0.0280647 -0.287346 0)
(0.000895196 -0.285649 0)
(-0.0211497 -0.27767 0)
(-0.0625967 -0.261047 0)
(-0.0689626 -0.224325 0)
(-0.091249 -0.218814 0)
(0.0538671 -0.136082 0)
(0.0514197 -0.18786 0)
(0.043841 -0.232206 0)
(0.0171872 -0.244345 0)
(0.00365311 -0.249422 0)
(-0.0175267 -0.249947 0)
(-0.0270226 -0.243091 0)
(-0.042856 -0.233084 0)
(-0.0524787 -0.193598 0)
(-0.0516813 -0.144456 0)
(-0.00524795 -0.00414386 0)
(-0.00569192 -0.00354439 0)
(-0.00765487 0.000436701 0)
(-0.00908441 0.0038369 0)
(-0.0123817 0.00528005 0)
(-0.0162215 0.00540835 0)
(-0.0198738 0.00490912 0)
(-0.0241129 0.00475327 0)
(-0.0289917 0.00286731 0)
(-0.0321317 0.000181421 0)
(-0.035387 0.00115011 0)
(-0.0398855 0.00284459 0)
(-0.0481185 0.0105294 0)
(-0.0632052 0.021742 0)
(-0.0981347 0.0330668 0)
(-0.119426 0.0165302 0)
(-0.123147 0.00907366 0)
(-0.131228 0.0115999 0)
(-0.144762 0.01584 0)
(-0.160272 0.0116417 0)
(-0.171506 0.0023327 0)
(-0.183025 0.00558741 0)
(-0.20091 0.0128243 0)
(-0.213199 0.0134596 0)
(-0.218117 0.00308355 0)
(-0.210902 -0.00830357 0)
(-0.18995 -0.0224434 0)
(-0.162726 -0.0305862 0)
(-0.137355 -0.0274892 0)
(-0.107453 -0.0291079 0)
(-0.075678 -0.035347 0)
(-0.0423832 -0.0335186 0)
(-0.0108075 -0.0197515 0)
(0.00897206 -0.000680333 0)
(0.00743195 0.00676214 0)
(0.0147859 -0.00571936 0)
(0.022051 -0.0114063 0)
(0.0340192 -0.0249305 0)
(0.0341736 -0.0202986 0)
(0.0296986 0.0313645 0)
(-0.00756971 0.00297367 0)
(-0.0135077 0.00741725 0)
(-0.0165418 0.00524178 0)
(-0.0170837 0.00512109 0)
(-0.0176915 0.00703789 0)
(-0.0182224 0.0071308 0)
(-0.0191798 0.00886314 0)
(-0.020678 0.0113916 0)
(-0.0240037 0.0120149 0)
(-0.0291762 0.0110184 0)
(-0.0364302 0.0139426 0)
(-0.0439235 0.0216857 0)
(-0.0527342 0.0362762 0)
(-0.0658489 0.0572789 0)
(-0.0811062 0.0577188 0)