/*--------------------------------*- C++ -*----------------------------------*\
  =========                 |
  \\      /  F ield         | OpenFOAM: The Open Source CFD Toolbox
   \\    /   O peration     | Website:  https://openfoam.org
    \\  /    A nd           | Version:  8
     \\/     M anipulation  |
\*---------------------------------------------------------------------------*/
FoamFile
{
    version     2.0;
    format      ascii;
    class       volScalarField;
    location    "1.5";
    object      alpha.water;
}
// * * * * * * * * * * * * * * * * * * * * * * * * * * * * * * * * * * * * * //

dimensions      [0 0 0 0 0 0 0];

internalField   nonuniform List<scalar> 
9150
(
1
1
1
1
1
1
1
1
1
1
1
1
1
1
1
1
1
1
1
1
1
1
1
1
1
1
1
1
1
1
1
1
1
1
1
1
1
1
1
1
1
1
1
1
1
1
1
1
1
1
1
1
1
1
1
1
1
1
1
1
1
1
1
1
1
1
1
1
1
1
1
1
1
1
1
1
1
1
1
1
1
1
1
1
1
1
1
1
1
1
1
1
1
1
1
1
1
1
1
1
1
1
1
1
1
1
1
1
1
1
1
1
1
1
1
1
1
1
1
1
1
1
1
1
1
1
1
1
1
1
1
1
1
1
1
1
1
1
1
1
1
1
1
1
1
1
1
1
1
1
0.175849
0.143164
0.140217
0.139329
0.122649
0.119879
0.12002
0.275263
0.560564
0.565903
0.255666
0.17329
0.294685
0.563641
0.459189
0.154992
0.11077
0.104285
0.117886
0.139899
0.671292
0.664887
0.69789
0.699085
0.699029
0.520734
0.111455
0.100392
0.100392
0.100392
0.671507
0.591531
0.623279
0.688119
0.699605
0.699529
0.497379
0.25896
0.289391
0.327754
0.648826
0.330246
0.329489
0.392637
0.69309
0.699605
0.699529
0.695302
0.695333
0.688384
0.357388
0.362928
0.332652
0.348882
0.458968
0.699375
0.699429
0.699337
0.699191
0.698856
0.112755
0.455478
0.562945
0.580075
0.399121
0.394726
0.642234
0.699191
0.661942
0.448194
0.00952103
0.0793737
0.381228
0.699863
0.716729
0.393844
0.570556
0.69725
0.615464
0.174793
0.00951615
0.00951751
0.00951643
0.506171
0.729872
0.708401
0.258907
0.550224
0.398379
0.0330393
0.00951886
0.00951615
0.00951886
0.2336
0.731521
0.731521
0.112307
0.0733425
0.112664
0.0161522
0.00954055
0.00951886
0.00952521
0.228629
0.731521
0.731533
0.0655257
0.0036695
0.0028827
0.0094678
0.0096907
0.00954055
0.00959395
0.44752
0.73146
0.731521
0.319768
0.00227353
0.00133563
0.00112375
0.0100074
0.00969006
0.0103422
0.609316
0.73076
0.73146
0.645388
0.00186553
0.00114459
0.0011149
0.0104394
0.0219366
0.212509
0.668843
0.728322
0.73076
0.6838
0.0434252
0.00111991
0.00111603
0.0331729
0.31193
0.567429
0.653762
0.62705
0.696146
0.269927
0.00107835
0.0011153
0.00111579
0.368529
0.585423
0.585351
0.475424
0.205766
0.204225
0.00113474
0.00112024
0.00111675
0.00111474
0.585466
0.585536
0.585423
0.473259
0.167137
0.00526336
0.00111555
0.0011149
0.0011187
0.00112523
0.585433
0.585696
0.590138
0.596813
0.284209
0.00111555
0.0011149
0.0011149
0.0011149
0.0011187
0.585296
0.590836
0.604015
0.61396
0.477528
0.00123269
0.00111555
0.00111478
0.0011185
0.00111769
0.389761
0.540202
0.449795
0.628045
0.635496
0.354778
0.0161716
0.00113209
0.00111606
0.0011279
0.0161753
0.196806
0.336828
0.568747
0.652944
0.634159
0.0665843
0.00140489
0.00116336
0.00115712
0.0116795
0.0150073
0.0997765
0.548845
0.658174
0.656802
0.330151
0.00291122
0.00121727
0.00116544
0.154902
0.145769
0.201731
0.513598
0.660355
0.659149
0.616616
0.162666
0.00173869
0.00115998
0.706553
0.706565
0.706565
0.672754
0.670406
0.65969
0.482857
0.321499
0.0274026
0.00132596
0.706565
0.706565
0.706565
0.668468
0.668476
0.663696
0.164068
0.169625
0.0363136
0.00124934
0.70656
0.706565
0.706565
0.677525
0.669833
0.656405
0.108608
0.137315
0.0850186
0.00109153
0.706544
0.706564
0.706565
0.602348
0.599123
0.650929
0.100977
0.121672
0.464231
0.339916
0.666357
0.47974
0.701119
0.175487
0.629312
0.653036
0.099713
0.134496
0.717505
0.739712
0.106131
0.100888
0.180276
0.0906826
0.642875
0.653048
0.086976
0.264553
0.739751
0.739692
0.0320982
0.0303174
0.0294822
0.0948434
0.646799
0.653036
0.0870902
0.219644
0.329477
0.274592
0.0507786
0.02951
0.0287244
0.0690241
0.648939
0.652036
0.0618691
0.0483269
0.00920823
0.00492171
0.0366181
0.0310414
0.0205903
0.0420674
0.644392
0.603702
0.0363534
0.0275125
0.0278562
0.01521
0.0619621
0.0289143
0.0153965
0.0287495
0.542323
0.505706
0.0317246
0.0401206
0.020829
0.000684554
0.0196376
0.0161695
0.0154021
0.0228782
0.424393
0.404785
0.0199109
0.0453294
0.0458003
0.0149598
0.000642931
0.00249392
0.0194572
0.0165134
0.36535
0.352383
0.012091
0.035201
0.0480654
0.0443946
0.000630006
0.00316687
0.0238506
0.00321715
0.363855
0.353012
0.00686462
0.0308634
0.0480654
0.0126528
0.000627525
0.00739616
0.0236434
0.000166933
0.528928
0.499892
9.45309e-05
0.021659
0.0322521
0.00010563
0.00107662
0.0103896
0.0238502
0.000148995
0.702185
0.676667
9.45112e-05
0.00351102
0.00357408
0.00518113
0.00123527
0.0101664
0.0237644
0.000147626
0.756254
0.750218
0.000112199
0.00113109
0.000558436
0.000165154
0.00146766
0.00597865
0.0078288
0.00193431
0.758553
0.758883
0.00175596
4.57809e-05
4.62452e-05
5.83024e-05
0.000627748
0.000633147
0.00272304
0.0132546
0.757128
0.758883
0.0150633
7.02356e-05
4.72087e-05
1.12336e-05
0.000627058
0.000627838
0.00349926
0.0313847
0.758264
0.758287
0.0308201
2.94866e-05
0.000220194
1.14495e-05
0.0130503
0.0110232
0.00665909
0.0466711
0.757848
0.759096
0.0463939
2.94408e-05
0.000220271
2.66367e-05
0.00922823
0.00674376
0.00324783
0.0541017
0.758857
0.759097
0.0528793
3.72068e-05
0.000220194
6.3196e-05
0.000261136
8.82113e-05
2.88408e-05
0.0532929
0.758176
0.759097
0.0552317
7.76453e-06
0.000210293
0.000152042
1.49134e-05
1.40718e-05
3.08126e-06
0.0433284
0.75857
0.758707
0.0424589
7.76453e-06
0.000198088
0.000359041
2.73272e-05
1.44724e-05
3.06526e-06
0.0218453
0.758405
0.755554
0.0212563
7.76302e-06
0.000263224
0.000359036
0.000115274
7.13532e-05
3.04638e-06
0.00537743
0.748679
0.743794
0.00518486
7.21565e-06
0.000344233
0.000359106
0.000115274
0.000115274
3.95474e-06
2.18958e-06
0.711004
0.709343
0.000193763
6.11647e-06
0.000329566
0.00035928
0.000115274
0.000114463
4.28276e-06
2.17576e-06
0.679316
0.67685
3.50238e-06
3.43881e-06
0.00020006
0.000359601
0.000115025
4.81545e-05
1.9796e-06
2.09226e-06
0.666517
0.665819
3.33995e-06
2.93223e-06
0.000146431
0.000359601
0.000114494
1.01487e-05
1.95191e-06
1.9796e-06
0.663009
0.66375
2.85417e-06
2.52184e-06
0.000113824
0.000359601
6.13974e-05
4.37704e-06
1.94609e-06
1.95191e-06
0.661359
0.665188
2.52184e-06
2.4367e-06
3.17143e-05
0.000327395
1.98662e-06
1.94602e-06
1.94721e-06
1.94634e-06
0.683164
0.68223
2.46207e-06
2.14401e-06
2.06392e-06
5.13735e-05
2.06567e-06
2.71945e-06
1.94574e-06
1.95161e-06
0.730199
0.72479
7.23705e-06
1.93109e-06
9.43918e-07
7.29694e-07
2.10402e-06
1.71838e-05
1.95161e-06
0.000604955
0.770175
0.767894
0.000156546
0.000173768
7.60923e-07
7.22057e-07
1.03198e-05
1.79078e-05
1.99158e-06
0.014061
0.792692
0.791337
0.0134027
0.000638271
2.00941e-06
7.75821e-07
1.78735e-05
1.7916e-05
2.03896e-06
0.0335771
0.800551
0.799899
0.0334967
0.000817505
0.0014924
0.000997795
1.77494e-05
1.49474e-05
2.07039e-06
0.0447659
0.801316
0.801358
0.0448152
0.000528547
0.00288533
0.00288533
1.76741e-05
4.11369e-06
2.08355e-06
0.04804
0.801149
0.801358
0.0484614
2.92349e-06
0.00288532
0.00288534
1.7203e-05
2.40372e-06
2.08362e-06
0.0474662
0.80074
0.800977
0.0473248
2.92349e-06
0.00266771
0.00288532
4.04871e-06
2.08362e-06
2.08362e-06
0.0376457
0.797373
0.796477
0.037321
2.92303e-06
0.00172863
0.00286083
2.17779e-06
3.82116e-06
2.08362e-06
0.025707
0.783723
0.783663
0.0254023
2.92349e-06
0.000888898
0.000527379
2.16356e-06
6.54424e-06
2.08892e-06
0.018969
0.771512
0.771574
0.0183933
2.91509e-06
0.000147809
0.000158351
2.14936e-06
6.55345e-06
2.10584e-06
0.0165163
0.766452
0.766625
0.0161566
2.87667e-06
2.21359e-05
0.000365893
2.14321e-06
5.48897e-06
2.12514e-06
0.0171059
0.766991
0.766266
0.0162225
2.87666e-06
2.87667e-06
0.000181159
2.14321e-06
2.14595e-06
2.13703e-06
0.0245557
0.78554
0.783242
0.0231537
2.87667e-06
2.87666e-06
4.20932e-06
2.14689e-06
2.25651e-06
2.14838e-06
0.0436613
0.824509
0.823842
0.0431149
2.87667e-06
2.87673e-06
2.88388e-06
4.01824e-05
0.00016691
2.25893e-06
0.0736874
0.862826
0.86274
0.0736664
2.87673e-06
4.46893e-06
8.98099e-06
0.00137405
0.00109476
3.35042e-06
0.10398
0.885521
0.885773
0.104287
2.87771e-06
5.00001e-06
2.83249e-05
0.00185329
0.00152437
5.43773e-06
0.123721
0.893065
0.893389
0.12357
2.87875e-06
3.4343e-06
3.13707e-05
0.00185332
0.00109808
4.16593e-06
0.130415
0.893483
0.893978
0.131149
2.87935e-06
3.0227e-06
3.61714e-05
0.00185334
0.000377973
3.67261e-06
0.130016
0.893293
0.893924
0.130717
2.88057e-06
3.78905e-06
5.80766e-05
0.00109772
5.33723e-05
3.60373e-06
0.123617
0.892989
0.892609
0.123581
2.88848e-06
1.92131e-05
0.000238269
0.000739055
5.59985e-05
3.48585e-06
0.118103
0.891331
0.892375
0.118824
2.94629e-06
1.10544e-05
0.000222307
0.000325434
0.000100146
3.26405e-06
0.117663
0.893745
0.893152
0.117282
2.99694e-06
1.29398e-05
6.1453e-05
0.000131733
0.000124011
3.02038e-06
0.123122
0.899962
0.899656
0.123078
3.01338e-06
1.66904e-05
5.81788e-06
0.000184859
8.46087e-05
2.83264e-06
0.153394
0.91711
0.916601
0.152833
3.06938e-06
4.31883e-05
5.82844e-06
0.0002953
2.97015e-05
2.76764e-06
0.187564
0.932924
0.932535
0.186947
3.25166e-06
0.000250021
7.72813e-05
0.000197334
7.45066e-06
2.76066e-06
0.220336
0.946126
0.945921
0.219943
4.00246e-06
0.000340268
0.000341621
9.12951e-05
8.80012e-06
2.74838e-06
0.244404
0.954274
0.954179
0.244325
5.68007e-06
0.000401527
0.000157206
0.000103278
6.73863e-06
2.74172e-06
0.263219
0.960235
0.960304
0.263055
6.76978e-06
0.000399434
0.000486081
3.24405e-05
3.48756e-06
2.74838e-06
0.275714
0.963932
0.964059
0.275771
7.12915e-06
0.000106362
0.000309601
8.84863e-06
4.24587e-06
2.74172e-06
0.293005
0.968813
0.96886
0.292988
7.46833e-06
7.49806e-06
7.60338e-06
1.96624e-05
6.43585e-05
2.61558e-06
0.315273
0.973853
0.973882
0.314533
7.49806e-06
4.56527e-05
1.7529e-05
0.000256816
9.43601e-05
2.25868e-06
0.357122
0.98119
0.981434
0.357405
7.38735e-06
0.000184052
0.000183536
0.000298245
5.4603e-05
2.05444e-06
0.40691
0.987325
0.987696
0.408622
6.30698e-06
0.000204013
0.000224713
2.10976e-06
2.05447e-06
2.05939e-06
0.470065
0.992571
0.992799
0.470294
5.77053e-06
0.000121723
0.000224713
4.1652e-05
7.02358e-06
2.05444e-06
0.530069
0.995338
0.995639
0.528262
5.08192e-06
4.30901e-05
0.000224709
7.43961e-05
8.62178e-06
1.35582e-06
0.59538
0.996806
0.99726
0.594469
2.22587e-06
4.21419e-06
8.17866e-06
2.27003e-05
7.22307e-09
8.21755e-08
0.665844
0.997887
0.998364
0.664863
5.84462e-08
5.84462e-08
5.84248e-08
1.02201e-11
6.98768e-09
7.22307e-09
0.748232
0.998509
0.999243
0.747614
6.95458e-08
5.84251e-08
4.20697e-06
9.10509e-12
1.02201e-11
0.0330566
0.819076
0.999246
0.999724
0.819162
0.0266723
6.95458e-08
4.69872e-06
9.12479e-12
5.04316e-11
0.138319
0.898551
0.999847
0.999759
0.868245
0.0873531
9.26492e-08
4.69436e-06
7.54351e-12
1.60264e-09
0.287271
0.96953
0.999869
0.999884
0.892978
0.147382
1.22802e-07
2.19914e-06
5.25714e-12
6.49473e-08
0.424538
0.985776
0.999986
0.999959
0.982066
0.367172
2.03732e-07
2.18248e-07
2.17227e-12
2.48924e-06
0.705963
0.99999
0.999995
0.999986
0.999919
0.592029
2.18248e-07
2.16185e-07
-3.89431e-11
0.168794
0.904074
0.999997
1
0.999999
0.999985
0.833097
0.046242
2.16185e-07
-2.53746e-10
0.660098
0.999974
1
1
1
0.999999
0.995595
0.52453
2.16185e-07
0.401409
0.981765
1
1
1
1
1
1
0.962322
0.318129
0.5668
0.566902
0.566823
0.355225
0.533808
0.709089
0.730599
0.608319
0.608093
0.608515
0.76749
0.767141
0.766924
0.766931
0.766932
0.766931
0.735308
0.754521
0.7679
0.768024
0.768091
0.768257
0.768396
0.768452
0.768471
0.768473
0.768471
0.59187
0.432512
0.437086
0.62176
0.769597
0.769205
0.738302
0.49159
0.491502
0.491534
0.642842
0.784839
0.76892
0.211899
0.23641
0.184668
0.175189
0.175189
0.313453
0.755065
0.765308
0.765381
0.768391
0.768382
0.72933
0.766878
0.766924
0.766931
0.766931
0.7304
0.765256
0.766827
0.767408
0.741821
0.729669
0.743235
0.76804
0.768336
0.519238
0.433938
0.432542
0.433423
0.5063
0.775061
0.772817
0.734906
0.727721
0.768956
0.635796
0.491502
0.61269
0.785516
0.785534
0.100596
0.101928
0.10394
0.191312
0.456218
0.723968
0.764888
0.765934
0.767798
0.768382
0.768347
0.531167
0.613575
0.766707
0.766903
0.766905
0.693728
0.669618
0.603448
0.36001
0.176333
0.194309
0.151554
0.0884855
0.0905147
0.278216
0.684379
0.764158
0.741857
0.775322
0.779085
0.754058
0.731011
0.729839
0.784349
0.784984
0.50072
0.65313
0.78554
0.785575
0.197912
0.132157
0.367565
0.658304
0.729974
0.729841
0.644572
0.385006
0.411048
0.768613
0.768874
0.534832
0.437935
0.676289
0.565029
0.596537
0.291199
0.079019
0.0788197
0.0788197
0.0788197
0.0788263
0.0798097
0.0842546
0.0878886
0.0905028
0.555701
0.776325
0.778006
0.779086
0.780273
0.777058
0.73199
0.774983
0.785264
0.785407
0.52244
0.631478
0.785581
0.785679
0.657524
0.696328
0.726019
0.727443
0.727345
0.558062
0.190895
0.00663233
0.125354
0.745069
0.769012
0.744217
0.314468
0.140371
0.0971273
0.491765
0.407857
0.088143
0.0808811
0.0788197
0.0878297
0.211584
0.44692
0.485572
0.444222
0.254403
0.249186
0.476312
0.777918
0.780274
0.780885
0.782135
0.783298
0.785425
0.785481
0.785946
0.602879
0.621579
0.785754
0.785763
0.680814
0.623181
0.637257
0.56916
0.359827
0.0831074
0.00295907
0.00498809
0.218809
0.725158
0.76918
0.769181
0.217767
0.0845141
0.0872446
0.738061
0.768159
0.541316
0.549035
0.359644
0.581831
0.7992
0.799225
0.799238
0.799225
0.768639
0.267317
0.0827489
0.14794
0.282274
0.54431
0.784259
0.785224
0.785568
0.785581
0.785838
0.786079
0.784513
0.785897
0.785792
0.302926
0.150313
0.115836
0.063165
0.00740125
0.00155755
0.00196698
0.00283149
0.51805
0.769155
0.769181
0.769181
0.253116
0.0828064
0.207645
0.569541
0.768709
0.794823
0.79542
0.796194
0.798451
0.799188
0.799238
0.799246
0.799238
0.68727
0.0680158
0.064211
0.0638047
0.0637859
0.0696859
0.146322
0.345959
0.658524
0.785771
0.78602
0.786079
0.785972
0.785979
0.781793
0.0105702
0.00203959
0.00274377
0.00157003
0.00119541
0.00126199
0.00174498
0.0928365
0.72057
0.769175
0.769181
0.769181
0.321227
0.0813055
0.111049
0.13288
0.340453
0.624409
0.787004
0.795416
0.582071
0.755211
0.797813
0.79925
0.799246
0.765621
0.307103
0.063808
0.0637862
0.0637783
0.063776
0.0638673
0.065173
0.328349
0.667286
0.78604
0.786031
0.786006
0.786011
0.751897
0.00175112
0.00118448
0.00113659
0.00113638
0.00114385
0.00114772
0.00126205
0.509865
0.769148
0.769181
0.769181
0.769181
0.316737
0.0765759
0.076126
0.0761142
0.0761142
0.0955359
0.464344
0.762153
0.482911
0.510646
0.794427
0.799248
0.79925
0.799251
0.719196
0.180904
0.0637765
0.063776
0.0637734
0.0637558
0.0638676
0.182446
0.729627
0.786041
0.786042
0.786031
0.755766
0.751738
0.00118589
0.00112148
0.0011192
0.00112793
0.00113851
0.00114418
0.0889368
0.720977
0.769172
0.76918
0.769181
0.769181
0.572159
0.0761269
0.0761151
0.0761142
0.0761142
0.0761142
0.110965
0.563076
0.488495
0.498879
0.796957
0.799271
0.799252
0.799263
0.799262
0.711001
0.140302
0.0637734
0.0637531
0.0636925
0.0638027
0.115768
0.678412
0.786042
0.786046
0.786042
0.779858
0.751732
0.00112129
0.0011139
0.00111582
0.00111925
0.00112772
0.00113426
0.507736
0.769358
0.769163
0.769172
0.76918
0.769181
0.760437
0.107098
0.0761269
0.0761151
0.0761142
0.0761206
0.0923791
0.513111
0.453454
0.555576
0.790593
0.799054
0.799314
0.79926
0.799267
0.79927
0.71463
0.11458
0.0636925
0.0636498
0.063679
0.0640051
0.34715
0.77214
0.786047
0.786046
0.785832
0.751735
0.00111389
0.00111301
0.00111313
0.00111582
0.00116466
0.208107
0.746403
0.769166
0.769361
0.769161
0.769172
0.769176
0.769092
0.507136
0.122031
0.076238
0.0762943
0.124478
0.201618
0.419608
0.340833
0.34087
0.506773
0.476648
0.67966
0.799268
0.79927
0.799271
0.799272
0.71559
0.09246
0.0636598
0.0636536
0.063679
0.0738993
0.477111
0.786047
0.786047
0.786046
0.780091
0.00111299
0.00111313
0.00111294
0.00111313
0.075293
0.668604
0.76871
0.769072
0.76921
0.769635
0.769074
0.769252
0.768913
0.767376
0.552348
0.373273
0.44069
0.672961
0.386462
0.344321
0.341098
0.340785
0.342253
0.365933
0.591611
0.799186
0.799271
0.799272
0.799272
0.797182
0.577198
0.0638588
0.0636609
0.0636719
0.0637346
0.16414
0.786047
0.786047
0.786047
0.786045
0.00111422
0.00111301
0.00111284
0.0125678
0.584189
0.767854
0.768292
0.768717
0.769244
0.740961
0.678527
0.672183
0.689746
0.692976
0.719351
0.719351
0.707744
0.678778
0.620718
0.695786
0.649712
0.589186
0.715737
0.781084
0.784886
0.786198
0.799254
0.799272
0.799272
0.799272
0.769942
0.115622
0.0636719
0.0637051
0.0637357
0.0638331
0.56423
0.786047
0.786047
0.786046
0.00111556
0.00111393
0.00111582
0.478025
0.76701
0.76743
0.767858
0.734916
0.528548
0.297218
0.196974
0.187386
0.19868
0.220233
0.404021
0.676174
0.715998
0.740245
0.77723
0.777236
0.777094
0.776409
0.768701
0.65168
0.457354
0.384961
0.580018
0.799261
0.799272
0.799261
0.789802
0.240218
0.0637074
0.0637363
0.0637385
0.0637532
0.118206
0.658703
0.786046
0.786044
0.00110119
0.00111309
0.142756
0.766655
0.766862
0.76701
0.615268
0.297572
0.184637
0.184632
0.184632
0.184632
0.184632
0.184633
0.184644
0.317085
0.727591
0.735964
0.730999
0.71941
0.678595
0.374244
0.499233
0.193581
0.157826
0.157782
0.15774
0.463139
0.799261
0.799258
0.79918
0.505289
0.0637233
0.0637385
0.0637367
0.0637424
0.063761
0.262223
0.77442
0.786042
0.00121297
0.0168368
0.565069
0.766714
0.766615
0.548954
0.222527
0.186846
0.184725
0.184637
0.184632
0.184632
0.184633
0.184644
0.184729
0.184963
0.46688
0.500677
0.248015
0.196086
0.187684
0.188085
0.18841
0.319978
0.22491
0.157716
0.157725
0.159243
0.526514
0.79918
0.799153
0.788422
0.248827
0.0636981
0.0637077
0.0637426
0.0637442
0.176048
0.728487
0.730991
0.0012304
0.109015
0.689978
0.766556
0.602705
0.237307
0.227401
0.322591
0.308135
0.184758
0.184642
0.184636
0.184652
0.184729
0.184963
0.191507
0.188018
0.187395
0.18734
0.18734
0.18734
0.187684
0.296294
0.802803
0.547695
0.157716
0.157716
0.157724
0.15981
0.430234
0.759888
0.798569
0.77053
0.352272
0.174981
0.063742
0.0638201
0.369478
0.744094
0.771852
0.00154274
0.100629
0.67368
0.76409
0.382609
0.23829
0.409814
0.596661
0.596695
0.399743
0.185208
0.184713
0.185091
0.280438
0.536299
0.596088
0.38817
0.212214
0.187395
0.18734
0.193666
0.427105
0.800828
0.811072
0.586224
0.157716
0.157714
0.157715
0.157728
0.157945
0.29456
0.711352
0.806597
0.805591
0.732175
0.501615
0.364465
0.767525
0.810999
0.811918
0.00115863
0.0198463
0.453868
0.756282
0.426066
0.241617
0.534023
0.596661
0.596204
0.595634
0.557664
0.191022
0.430656
0.77829
0.809737
0.810177
0.810666
0.723174
0.39762
0.289844
0.622397
0.81181
0.811696
0.811601
0.811215
0.438722
0.157715
0.157711
0.157707
0.157715
0.157807
0.241964
0.698116
0.811626
0.81273
0.812941
0.810602
0.812976
0.812609
0.812192
0.00116587
0.00117343
0.136707
0.616974
0.613785
0.255589
0.255982
0.516284
0.582439
0.481212
0.432292
0.712913
0.80127
0.808196
0.810173
0.810666
0.810908
0.811353
0.811579
0.811991
0.812288
0.812005
0.811785
0.811638
0.811601
0.811585
0.61859
0.172948
0.157706
0.157706
0.15771
0.157764
0.234716
0.726553
0.813012
0.813423
0.813301
0.813178
0.812976
0.735075
0.00115877
0.00115075
0.00116371
0.00112777
0.276554
0.389992
0.389602
0.176485
0.102859
0.0885517
0.0456453
0.125875
0.270222
0.534444
0.748137
0.810462
0.811163
0.81159
0.81199
0.812288
0.812427
0.812475
0.806572
0.811111
0.811536
0.812403
0.814078
0.521553
0.157706
0.157706
0.157706
0.15771
0.157764
0.278343
0.772672
0.813491
0.813423
0.813301
0.807488
0.69906
0.00114153
0.00111535
0.00110189
0.00108521
0.0010867
0.0010893
0.00116853
0.242961
0.410448
0.340529
0.0266938
0.00130306
0.000985133
0.000594679
0.112458
0.560621
0.799118
0.812128
0.812284
0.812427
0.812614
0.812701
0.798568
0.791024
0.791016
0.797545
0.814944
0.812529
0.399862
0.157706
0.15771
0.157764
0.158343
0.253675
0.805895
0.813993
0.794634
0.694232
0.69341
0.700347
0.00110559
0.00108716
0.00108003
0.00108153
0.0010883
0.00108832
0.00108802
0.00108787
0.113313
0.648588
0.367144
0.0113651
0.000594679
0.000400668
0.000162564
0.000229864
0.222877
0.698095
0.811981
0.812614
0.812785
0.81339
0.806693
0.791052
0.791322
0.8022
0.815062
0.814969
0.81482
0.7276
0.350506
0.289626
0.624606
0.761542
0.814645
0.814586
0.773789
0.659834
0.655434
0.699703
0.0010903
0.00108716
0.0010829
0.00108571
0.00108766
0.00108786
0.0010879
0.00107868
0.228179
0.689428
0.478427
0.0351549
0.000401876
0.000162564
0.000162564
0.000162645
0.000229864
0.0565557
0.551894
0.78383
0.813303
0.814397
0.81479
0.814948
0.814995
0.815062
0.815062
0.815062
0.814933
0.814819
0.814525
0.81307
0.814684
0.81464
0.8147
0.814652
0.814984
0.773636
0.652572
0.549581
0.00108858
0.00108734
0.00108716
0.00108734
0.00108768
0.00108779
0.00108611
0.0712852
0.62681
0.696513
0.502576
0.0342132
0.000340503
0.000165582
0.00109701
0.00146034
0.00115192
0.00117233
0.00147604
0.12821
0.550833
0.732595
0.81071
0.814803
0.814952
0.814989
0.815062
0.814969
0.814691
0.814808
0.81485
0.814773
0.81469
0.814721
0.814652
0.814723
0.814647
0.814537
0.446535
0.412487
0.204094
0.0994912
0.0421998
0.0115232
0.00108837
0.0185609
0.293171
0.682586
0.696513
0.695405
0.313203
0.00517896
0.000636902
9.13818e-05
0.000291697
0.000220006
0.0010762
0.00189019
0.0018731
0.000108488
5.83195e-05
0.0193421
0.295628
0.552952
0.738109
0.814961
0.814948
0.814809
0.814841
0.814862
0.814793
0.814698
0.814681
0.81466
0.81471
0.81465
0.781198
0.535757
0.412727
0.412789
0.730983
0.687899
0.637987
0.597035
0.589321
0.632398
0.699368
0.696271
0.67205
0.256601
0.0164464
0.00275813
0.000362754
7.65846e-05
8.40551e-05
9.27727e-05
9.28773e-05
0.00122554
0.001775
0.00013849
5.83195e-05
5.83015e-05
8.55249e-05
0.000438774
0.112371
0.493688
0.708232
0.780027
0.814431
0.814803
0.81472
0.814667
0.81466
0.709516
0.551208
0.49303
0.434082
0.415249
0.414683
0.687038
0.739795
0.739692
0.73906
0.737703
0.735863
0.733945
0.705674
0.418689
0.0835004
0.00131274
0.00023211
0.000289406
7.71546e-05
7.77524e-05
0.000539599
0.000836393
0.000485993
0.000461203
0.000419251
4.08389e-05
0.00010092
0.000722583
0.000742621
0.000753382
0.000758004
0.000774905
0.000974456
0.108708
0.347005
0.574284
0.671667
0.718563
0.702375
0.377212
0.172246
0.407278
0.632958
0.676049
0.690265
0.690265
0.342942
0.277321
0.323178
0.279178
0.205498
0.116815
0.0443554
0.00568166
0.000294838
0.000144289
0.000121113
0.00010656
9.21799e-05
0.00255142
0.00186805
0.000363777
0.000130637
4.87607e-05
3.09165e-05
3.09165e-05
0.000932871
0.00223336
0.00223336
0.00223336
0.00123655
0.00116085
0.00115038
0.000149279
0.000134773
8.62621e-05
0.03367
0.128631
0.270907
0.329385
0.166472
0.221983
0.268483
0.350835
0.381426
0.415581
0.00330309
0.00182534
0.00227731
0.000152901
0.00033573
0.00424708
0.000838499
9.4355e-05
5.43119e-05
0.000108873
0.000138319
0.000401233
0.00440758
0.00452209
0.0011022
2.69256e-05
1.00361e-05
4.02296e-05
0.000124295
0.000448155
0.00171549
0.0019014
0.00159887
0.00130859
0.00233836
0.00238399
0.00238738
0.00238531
0.00121223
5.42931e-05
5.42931e-05
5.42931e-05
0.00545856
0.0335189
0.0481744
0.00877628
0.000317055
0.00274216
0.00339423
0.00143163
0.000227161
6.51384e-05
4.51934e-05
4.37724e-05
4.3585e-05
0.00172872
0.000777317
5.50146e-05
3.98097e-05
0.000417273
0.00128931
0.00469813
0.00497374
0.00399265
0.00023523
1.00346e-05
9.6944e-06
3.7527e-05
0.000612582
0.000744996
0.000393221
1.30442e-05
6.32467e-06
6.3252e-06
3.6312e-05
0.000912386
0.00231697
0.00238738
0.00233078
0.000334866
5.36974e-05
5.76179e-05
0.000242029
0.000191007
0.000149143
9.00591e-05
0.000301354
0.00189158
0.0021702
0.0014312
0.000677547
6.5059e-05
4.37724e-05
4.3585e-05
4.35424e-05
4.54148e-05
0.000801731
0.000197353
3.81573e-05
0.000246847
0.00476884
0.00497389
0.00497159
0.00305274
3.31731e-05
9.6944e-06
9.67724e-06
9.63544e-06
0.000520272
0.000477837
3.89858e-05
6.37191e-06
6.32806e-06
6.32434e-06
6.32806e-06
6.38342e-06
0.000281782
0.00087717
0.000226594
4.95398e-05
5.31894e-05
0.0001307
0.000111633
6.26142e-05
6.181e-05
6.12886e-05
6.12155e-05
0.000501637
0.000905027
0.00159753
0.00301789
6.06925e-05
4.76407e-05
4.35408e-05
4.35717e-05
4.3548e-05
0.000454463
0.000258365
3.53195e-05
6.92346e-05
0.0012518
0.00419468
0.00497331
0.00359056
6.70619e-05
9.69352e-06
9.63543e-06
9.62738e-06
5.66172e-05
3.40506e-05
1.26408e-05
6.3945e-06
6.36027e-06
6.32806e-06
6.38342e-06
9.09472e-06
5.76304e-06
5.75244e-06
1.25076e-05
1.24745e-05
5.92232e-05
0.000130717
8.45662e-05
6.18101e-05
6.12886e-05
6.11135e-05
6.11026e-05
0.000403029
0.00177991
0.00179167
0.00324996
0.0032795
0.00313406
0.00228938
0.000124963
4.4472e-05
4.73139e-05
9.10105e-05
3.47617e-05
2.62003e-05
2.73706e-05
0.000282667
0.000810851
0.00280775
0.00110657
1.10356e-05
9.63543e-06
9.52683e-06
7.269e-06
6.5774e-06
6.40318e-06
6.38916e-06
6.3945e-06
4.64293e-05
0.000157075
4.17308e-05
5.74942e-06
5.73136e-06
1.55517e-05
1.26179e-05
1.27114e-05
2.65383e-05
0.000148107
8.47927e-05
6.11135e-05
6.11026e-05
6.1102e-05
0.000570968
0.00180376
0.00182853
0.00791924
0.00570648
0.00548651
0.00574026
0.00517583
0.000408458
2.99326e-05
2.6818e-05
2.62334e-05
2.59428e-05
2.5765e-05
0.000103312
7.66232e-05
0.000106043
0.00090043
0.000629768
0.000126531
7.27337e-06
6.64984e-06
6.55608e-06
6.52339e-06
1.9812e-05
0.000362707
0.000384967
0.000369048
3.52686e-05
5.72392e-06
5.71013e-06
5.71288e-06
8.1339e-05
0.000365256
0.000176174
0.000218716
0.000114684
6.11112e-05
6.1102e-05
6.11018e-05
0.000461007
0.00181621
0.00182853
8.54977e-05
2.25688e-05
2.29134e-05
0.000568275
0.00166385
0.00185145
0.000485807
2.69166e-05
2.59428e-05
2.57093e-05
2.54896e-05
4.85828e-05
5.52225e-05
1.76113e-05
6.00431e-05
0.000193671
8.68595e-05
3.09324e-05
9.50383e-05
0.000241435
0.000392054
0.0003954
0.000392211
0.000259726
1.75338e-05
5.73531e-06
5.71013e-06
5.70982e-06
5.71013e-06
0.000498688
0.000627204
0.000627351
0.000347619
7.32047e-05
6.11043e-05
6.11018e-05
6.11018e-05
0.00103949
0.0018285
0.00182853
0.00158989
2.47495e-05
2.65174e-05
5.27608e-06
5.13699e-06
1.33769e-05
0.000139151
3.89036e-05
2.57093e-05
2.54896e-05
2.49925e-05
2.36109e-05
2.22884e-05
1.05978e-05
4.47515e-06
3.99896e-06
4.26889e-06
3.35351e-05
0.000364234
0.000395068
0.000395491
0.000395302
0.000343831
3.3616e-05
5.77024e-06
5.71188e-06
5.70982e-06
5.71013e-06
0.000358392
0.000627204
0.000627378
0.000627398
0.000596209
0.000115374
6.11058e-05
6.11018e-05
6.11018e-05
0.000982249
0.00182514
0.00102283
7.6443e-05
9.92919e-05
9.88718e-05
4.74729e-05
4.92741e-06
4.91202e-06
4.94175e-05
2.6264e-05
2.61827e-05
0.000139409
0.000178682
3.24338e-05
9.08711e-06
8.99859e-06
3.85955e-06
3.48947e-06
3.80665e-06
0.000213023
0.000395005
0.000395491
0.000395302
0.000279227
3.08582e-05
5.83349e-06
5.71822e-06
5.71169e-06
5.71088e-06
0.000107242
0.000623702
0.000627378
0.000627398
0.000627399
0.000514777
0.000151321
0.000102788
6.11053e-05
6.11018e-05
0.000717786
0.000949336
0.00102123
3.16015e-05
4.47366e-05
9.88411e-05
2.68434e-05
4.91215e-06
4.91369e-06
0.000104993
0.000352656
0.00038268
0.000414022
0.000418461
0.000418568
0.000186434
4.34404e-06
2.73589e-06
3.27846e-06
0.000127522
0.000388156
0.000390663
0.000319725
0.00010461
1.18538e-05
5.78099e-06
5.7225e-06
5.71394e-06
5.71182e-06
5.71181e-06
0.000512934
0.000627239
0.00062739
0.000627399
0.000627398
0.000214886
8.70794e-05
6.15003e-05
6.11087e-05
6.14504e-05
0.00149095
0.00389897
0.00436755
1.12512e-05
1.1231e-05
1.12798e-05
1.74662e-05
5.01927e-06
4.91203e-06
1.86762e-05
0.000100587
0.000206336
0.000406197
0.000418579
0.000418461
0.000253349
4.6635e-06
2.30711e-06
7.0377e-06
0.000180083
0.000244828
0.000160918
3.56977e-05
6.07712e-06
5.74956e-06
5.7212e-06
5.71854e-06
5.72097e-06
8.53949e-06
0.00051416
0.000627027
0.000627234
0.000627246
0.000504157
0.000244182
5.35204e-05
5.66858e-05
6.13971e-05
0.00168753
0.00606763
0.00607843
0.00607843
0.00607843
1.1231e-05
1.12607e-05
2.4247e-05
3.88737e-05
4.02288e-05
2.62197e-05
1.30619e-05
1.07969e-05
8.37651e-06
2.60195e-05
9.17571e-05
0.000124034
8.04469e-05
1.03523e-05
2.05434e-06
1.47209e-05
3.17211e-05
2.97758e-05
3.52134e-05
1.66282e-05
5.74956e-06
5.72132e-06
5.71979e-06
5.7212e-06
0.00017399
0.000613236
0.000624126
0.000623906
0.000481812
0.000196685
6.07051e-05
1.18277e-05
2.42491e-05
9.00187e-05
0.00371311
0.00605257
0.00606663
0.00607385
0.00607843
0.00607813
1.13134e-05
0.00016865
0.000794586
0.000938563
0.000936085
0.000743254
0.000356789
2.06803e-05
3.55715e-06
3.13684e-06
2.17441e-06
2.11997e-06
2.07544e-06
3.03973e-06
2.03507e-06
2.2415e-06
2.39858e-06
2.62989e-05
3.03055e-05
8.14322e-06
5.74723e-06
5.74956e-06
4.52935e-05
0.000478121
0.000618796
0.000618796
0.000607358
0.000250494
4.00161e-05
2.12701e-06
2.01915e-06
6.72927e-06
4.10115e-05
0.00147378
0.00595697
0.00602039
0.00374901
0.00471131
0.00354572
0.00351311
8.93139e-05
0.00109118
0.00127724
0.00127724
0.00127724
0.00127722
0.00127716
0.000693804
5.13149e-06
2.1744e-06
2.11997e-06
2.07544e-06
2.03817e-06
2.02576e-06
2.03507e-06
1.11612e-05
6.30862e-05
7.01244e-05
2.59424e-05
5.83634e-06
5.81061e-06
0.000158954
0.00058987
0.00058987
0.0005546
0.000287366
8.55156e-05
3.95506e-06
1.59088e-06
1.51582e-06
1.59411e-06
7.87408e-06
5.99408e-05
0.00105124
0.00418643
0.00178956
1.79324e-05
1.93645e-05
1.92871e-05
1.92924e-05
0.000277632
0.00127723
0.00127724
0.00127724
0.00127722
0.00127716
0.00127702
0.00127167
0.000246345
2.25428e-06
2.15962e-06
2.13561e-06
3.07856e-06
1.99523e-05
5.51664e-05
7.26334e-05
7.24013e-05
7.17796e-05
1.42882e-05
6.25998e-06
7.90568e-05
0.000340901
0.000384252
0.000205787
4.89854e-05
4.48442e-06
1.6684e-06
1.48947e-06
1.47655e-06
1.48009e-06
1.51609e-06
1.99905e-06
0.000116708
0.00133438
0.00116803
4.8072e-06
1.77441e-05
5.06395e-05
4.57991e-05
3.29926e-05
0.000306015
0.00127718
0.00127723
0.00127704
0.00127667
0.0011654
0.000871717
0.000599509
0.000163095
6.40512e-06
2.22184e-06
3.53107e-06
5.71449e-05
7.24479e-05
7.2701e-05
7.26334e-05
5.85919e-05
1.48609e-05
3.41898e-05
7.7148e-05
0.000104725
7.99417e-05
1.19559e-05
1.83707e-06
2.22613e-06
1.50321e-06
1.45265e-06
1.46653e-06
1.4701e-06
1.47659e-06
1.4801e-06
1.71563e-06
0.000834445
0.0013309
8.83906e-05
4.45301e-06
1.80232e-05
0.000130285
0.000174327
0.000176617
0.000262259
0.00127593
0.00127674
0.00105757
0.000386698
2.85746e-05
2.39496e-06
2.29139e-06
1.78184e-05
5.14842e-06
3.23283e-06
7.5737e-06