/*--------------------------------*- C++ -*----------------------------------*\
  =========                 |
  \\      /  F ield         | OpenFOAM: The Open Source CFD Toolbox
   \\    /   O peration     | Website:  https://openfoam.org
    \\  /    A nd           | Version:  8
     \\/     M anipulation  |
\*---------------------------------------------------------------------------*/
FoamFile
{
    version     2.0;
    format      ascii;
    class       surfaceScalarField;
    location    "2.5";
    object      alphaPhi0.water;
}
// * * * * * * * * * * * * * * * * * * * * * * * * * * * * * * * * * * * * * //

dimensions      [0 3 -1 0 0 0 0];

internalField   nonuniform List<scalar> 
18095
(
1.93607e-08
-1.71901e-07
1.5254e-07
2.30205e-08
-1.98359e-07
1.947e-07
1.94175e-08
-2.057e-07
2.09303e-07
1.03464e-08
-2.10842e-07
2.19913e-07
1.02087e-10
-2.13537e-07
2.23781e-07
-1.06629e-08
-2.13263e-07
2.24028e-07
-1.99397e-08
-2.10303e-07
2.1958e-07
-2.30788e-08
-2.05785e-07
2.08924e-07
-1.93548e-08
-1.98421e-07
1.94697e-07
-1.71889e-07
1.52535e-07
1.55463e-08
-1.87447e-07
1.56807e-08
-1.98494e-07
1.20138e-08
-2.02033e-07
6.18599e-09
-2.05014e-07
-4.33055e-10
-2.06918e-07
-6.92794e-09
-2.06768e-07
-1.21113e-08
-2.0512e-07
-1.56454e-08
-2.02251e-07
-1.5553e-08
-1.98513e-07
-1.87442e-07
6.87329e-09
-1.94321e-07
8.26677e-09
-1.99887e-07
7.27131e-09
-2.01037e-07
4.055e-09
-2.01798e-07
-7.71238e-11
-2.02786e-07
-4.02513e-09
-2.0282e-07
-6.99885e-09
-2.02146e-07
-8.21327e-09
-2.01036e-07
-6.87654e-09
-1.9985e-07
-1.94319e-07
4.5755e-09
-1.98896e-07
4.63373e-09
-1.99946e-07
3.65017e-09
-2.00054e-07
2.23388e-09
-2.00382e-07
2.28919e-10
-2.00781e-07
-1.84582e-09
-2.00745e-07
-3.58114e-09
-2.00411e-07
-4.66114e-09
-1.99956e-07
-4.57758e-09
-1.99933e-07
-1.98897e-07
1.10398e-09
1.15834e-09
1.10474e-09
7.22933e-10
-5.77429e-11
-8.02644e-10
-1.21364e-09
-1.16995e-09
-1.10343e-09
-2.47806e-08
-1.97586e-07
2.22366e-07
-2.74799e-08
-1.98647e-07
2.01346e-07
-2.33557e-08
-2.01703e-07
1.97578e-07
-1.28376e-08
-2.0121e-07
1.90692e-07
2.274e-10
-2.02015e-07
1.8895e-07
1.29021e-08
-2.01366e-07
1.88692e-07
2.3168e-08
-2.00303e-07
1.90037e-07
2.74109e-08
-2.01466e-07
1.97223e-07
2.48367e-08
-1.98323e-07
2.00897e-07
-1.97381e-07
2.22218e-07
-1.02036e-08
-1.87382e-07
-1.53617e-08
-1.93489e-07
-1.41205e-08
-2.02944e-07
-6.17476e-09
-2.09156e-07
9.32114e-10
-2.09121e-07
7.88677e-09
-2.08321e-07
1.5055e-08
-2.07471e-07
1.55003e-08
-2.01912e-07
1.02233e-08
-1.93046e-07
-1.87158e-07
-1.13124e-08
-1.7607e-07
-9.6671e-09
-1.95134e-07
-7.76802e-09
-2.04843e-07
-6.8948e-09
-2.10029e-07
-3.18792e-09
-2.12828e-07
1.34475e-09
-2.12854e-07
4.45422e-09
-2.10581e-07
8.06126e-09
-2.05519e-07
1.07068e-08
-1.95691e-07
-1.76451e-07
-7.08126e-09
-1.68989e-07
-9.1204e-09
-1.93095e-07
-8.45203e-09
-2.05511e-07
-4.0889e-09
-2.14392e-07
-6.37174e-10
-2.1628e-07
3.90126e-09
-2.17392e-07
9.42433e-09
-2.16104e-07
9.74718e-09
-2.05841e-07
7.29781e-09
-1.93242e-07
-1.69154e-07
-1.64484e-08
-1.48438e-08
-1.10525e-08
-5.53145e-09
1.96961e-09
8.60504e-09
1.20814e-08
1.51639e-08
1.6619e-08
3.26535e-08
-1.56199e-07
1.23545e-07
4.00191e-08
-1.98014e-07
1.90648e-07
3.46337e-08
-2.10214e-07
2.15599e-07
2.38371e-08
-2.16435e-07
2.27232e-07
7.9137e-09
-2.18004e-07
2.33928e-07
-9.47795e-09
-2.18232e-07
2.35624e-07
-2.57458e-08
-2.16397e-07
2.32665e-07
-3.44975e-08
-2.10705e-07
2.19457e-07
-3.16817e-08
-1.98711e-07
1.95895e-07
-1.5709e-07
1.25408e-07
1.67201e-08
-1.72919e-07
1.91554e-08
-2.00449e-07
1.50266e-08
-2.06085e-07
7.06495e-09
-2.08473e-07
-2.14525e-09
-2.08794e-07
-1.10311e-08
-2.09346e-07
-1.72569e-08
-2.10171e-07
-2.01302e-08
-2.07832e-07
-1.69273e-08
-2.01913e-07
-1.74017e-07
1.13402e-08
-1.84259e-07
1.14109e-08
-2.0052e-07
1.02113e-08
-2.04885e-07
6.49973e-09
-2.04762e-07
2.30026e-09
-2.04595e-07
-2.22754e-09
-2.04818e-07
-7.46615e-09
-2.04932e-07
-9.76615e-09
-2.05532e-07
-1.06262e-08
-2.01053e-07
-1.84643e-07
8.29084e-09
-1.9255e-07
7.23091e-09
-1.9946e-07
7.07868e-09
-2.04733e-07
1.63408e-09
-1.99317e-07
-3.40898e-10
-2.0262e-07
-2.1008e-09
-2.03059e-07
-6.6516e-09
-2.00382e-07
-6.68905e-09
-2.05494e-07
-8.14243e-09
-1.996e-07
-1.92786e-07
2.98165e-08
3.17028e-08
2.45482e-08
1.59232e-08
2.25319e-09
-1.21137e-08
-2.24583e-08
-3.07293e-08
-2.94324e-08
-6.4865e-08
2.22227e-08
4.14729e-08
-1.44484e-07
2.84735e-08
-1.68053e-07
2.47715e-08
-1.63709e-07
-3.14689e-09
-1.46787e-07
9.93633e-10
-1.50531e-07
2.9668e-09
-1.60862e-07
9.55398e-09
-2.55669e-07
1.90995e-08
-2.69915e-07
1.42463e-08
8.30729e-09
-2.78223e-07
-6.47841e-08
1.29254e-08
8.49243e-08
-4.48989e-08
1.52612e-08
-2.05519e-08
9.77662e-09
-4.8686e-08
-1.95949e-09
-8.97996e-08
9.12513e-09
-1.17518e-07
3.14906e-08
-1.19835e-07
3.12172e-08
-1.2373e-07
1.60477e-08
-1.28059e-07
1.16747e-08
2.45502e-08
-2.16838e-07
4.11694e-07
5.22511e-08
-4.5801e-07
2.38499e-07
5.44956e-08
2.04261e-07
6.29183e-08
2.06548e-07
7.81372e-08
1.16165e-07
1.00281e-07
1.94363e-08
1.29019e-07
-6.35897e-08
1.15017e-07
-1.03241e-07
5.65278e-08
-7.49234e-08
6.01316e-09
1.48174e-08
-7.77387e-08
6.43141e-07
1.21777e-08
-6.39495e-07
6.58805e-07
3.1806e-08
6.11356e-07
1.17166e-07
2.53695e-07
1.19487e-07
7.61512e-08
5.15132e-08
9.79331e-08
3.57552e-08
1.14313e-07
3.94241e-08
1.13997e-07
3.37056e-08
1.37538e-07
5.30571e-08
5.54474e-08
1.10967e-07
4.72079e-07
-7.77531e-08
-4.37552e-07
2.85314e-07
-7.55307e-08
6.91966e-08
-2.59001e-08
1.14529e-07
8.42707e-10
1.34321e-07
1.14319e-08
1.36066e-07
1.57924e-08
1.36875e-07
2.10035e-08
1.16597e-07
3.64431e-08
1.14158e-07
3.04272e-08
3.67334e-08
1.12507e-07
3.58217e-08
-1.47549e-07
-9.1754e-09
7.77814e-08
-8.43731e-08
1.72261e-07
-6.08931e-08
2.82097e-07
-6.70557e-08
3.26747e-07
-4.8824e-08
2.76692e-07
-4.49874e-08
1.13856e-07
-2.18285e-08
1.07732e-07
2.75121e-08
1.0803e-07
1.63346e-08
2.53636e-08
1.05606e-07
-1.37466e-07
-1.12632e-07
1.87498e-07
-1.0129e-07
-1.22469e-07
-1.0046e-07
-1.69117e-07
-8.90145e-08
-1.60741e-07
-4.68475e-08
-1.44639e-07
1.44243e-08
-1.58418e-07
8.29686e-08
-1.51313e-07
1.59091e-07
-8.00617e-08
1.85064e-07
-3.25608e-08
5.75964e-08
9.40674e-08
-2.81759e-07
-2.35327e-07
3.21236e-07
-4.12338e-07
-1.98644e-07
-4.04931e-07
-1.78885e-07
-3.86859e-07
-1.79866e-07
-3.46838e-07
-1.8504e-07
-3.01653e-07
-2.04339e-07
-2.32382e-07
-2.23057e-07
-1.06644e-07
-1.99396e-07
-5.96138e-09
-7.25838e-08
1.63921e-09
2.00908e-08
-5.28886e-07
-2.38899e-07
5.32859e-07
-4.97519e-07
-2.2929e-07
-4.65813e-07
-2.12547e-07
-4.16643e-07
-1.47839e-07
-4.17142e-07
-1.30198e-07
-4.87508e-07
-1.54756e-07
-5.00128e-07
-2.11737e-07
-3.2288e-07
-1.5083e-07
-5.48587e-08
-1.79127e-08
-1.5747e-09
-5.16975e-08
-5.61888e-07
-2.85291e-07
6.09443e-07
-5.21082e-07
-2.29026e-07
-3.78379e-07
-1.66431e-07
-4.08122e-07
-1.21058e-07
-4.52598e-07
-8.83188e-08
-6.12082e-07
-8.09912e-08
-7.00043e-07
-1.15787e-07
-2.43299e-07
-7.86964e-08
-5.99589e-08
-8.22414e-09
-7.96062e-10
-6.0757e-08
-7.84554e-07
-2.81928e-07
8.01977e-07
-5.9831e-07
-2.13601e-07
-6.05408e-07
-1.61867e-07
-6.1797e-07
-1.11111e-07
-6.40007e-07
-6.92439e-08
-8.21595e-07
-5.04555e-08
-8.74472e-07
-3.12719e-08
-3.2834e-07
-1.38448e-08
-7.57075e-08
2.60907e-09
4.93543e-09
-8.1467e-08
-1.2064e-06
-2.73943e-07
1.20171e-06
-9.80074e-07
-2.52603e-07
-9.27036e-07
-2.15578e-07
-8.82313e-07
-1.58796e-07
-1.0811e-06
-9.06466e-08
-1.05784e-06
-6.68223e-08
-1.03135e-06
-2.52811e-08
-4.90901e-07
2.32501e-08
-7.92957e-08
2.93401e-08
1.03169e-08
-8.46986e-08
-1.35225e-06
-2.54855e-07
1.34789e-06
-1.3481e-06
-2.41954e-07
-1.32933e-06
-2.26846e-07
-1.27284e-06
-2.01668e-07
-1.20326e-06
-1.54289e-07
-1.17167e-06
-1.1534e-07
-1.1218e-06
-5.80325e-08
-1.08486e-06
3.40377e-09
-1.04532e-06
7.32938e-08
6.92812e-08
-1.9735e-07
-9.44052e-07
-2.85912e-08
6.06638e-07
-1.21476e-06
-5.61117e-08
-1.33204e-06
-1.35959e-07
-1.31466e-06
-2.03888e-07
-1.29845e-06
-1.63596e-07
-1.27817e-06
-1.32549e-07
-9.58061e-07
-8.33893e-08
-5.04613e-07
-8.36157e-09
-3.28405e-07
8.67961e-09
1.93073e-08
-2.06493e-07
-4.21418e-08
-3.92505e-09
1.97518e-08
-9.37662e-08
-2.94392e-09
-4.23895e-07
-2.68957e-09
-9.15923e-07
5.02279e-09
-1.20713e-06
-1.17161e-08
-1.40802e-06
-2.25013e-08
-1.03283e-06
-8.2823e-08
-4.89249e-07
-7.70669e-08
-3.1332e-07
-2.72231e-08
1.26226e-09
-2.36444e-07
6.01189e-09
7.73067e-09
-1.61242e-08
1.82328e-09
2.52064e-09
-8.41608e-09
8.83179e-09
-2.01221e-08
0
-4.6599e-08
0
-8.47386e-08
2.36943e-10
-8.85759e-07
-1.30422e-08
-9.50584e-07
-1.36091e-08
-1.00076e-06
2.35476e-08
1.11936e-09
-9.98856e-07
-5.68115e-08
-8.47683e-10
1.19355e-07
-3.64891e-08
-1.38079e-08
1.7065e-08
2.95228e-09
4.91798e-08
1.90275e-08
1.02196e-07
3.44559e-08
1.83597e-07
3.00903e-08
2.13351e-07
-1.21638e-08
1.20516e-07
3.59977e-08
-3.08245e-07
2.70022e-07
2.35329e-07
-7.5737e-07
-3.15433e-08
-7.01963e-08
1.99331e-07
3.17298e-08
-8.67186e-08
4.63538e-08
-2.54824e-08
4.57124e-08
7.77006e-09
5.85631e-08
2.47976e-08
7.55146e-08
1.99684e-08
1.40707e-07
-2.66515e-08
3.66803e-08
6.57628e-08
-6.53066e-08
8.02964e-08
6.79234e-08
-1.41097e-07
2.85552e-08
-7.60947e-08
-7.76889e-09
3.43538e-08
-7.02891e-08
1.09657e-08
-2.3256e-08
1.45679e-08
-8.37598e-10
3.45708e-08
4.31151e-09
4.4206e-08
8.4873e-09
3.65971e-08
2.3958e-08
-1.98704e-08
3.20621e-08
-1.66639e-08
6.12834e-08
5.96222e-08
-2.18591e-08
-2.51904e-09
-5.7147e-08
1.74539e-09
4.46639e-10
-5.23535e-08
2.95492e-09
-1.99199e-08
1.12577e-09
4.41651e-10
-3.1973e-09
8.06746e-09
-1.30691e-08
2.51787e-08
-1.94764e-08
1.44767e-08
-1.42842e-08
1.54945e-08
-7.33361e-10
3.2871e-08
3.43506e-08
1.04568e-08
-3.11793e-08
-3.80936e-08
2.76081e-08
-2.34658e-08
-4.44577e-08
-1.16655e-08
-2.04284e-08
-1.24013e-08
6.10399e-10
-1.32518e-08
8.36812e-09
-1.08578e-08
1.26704e-08
-1.03914e-08
1.35034e-08
-1.25029e-08
1.72168e-08
-2.92924e-09
3.01753e-08
3.967e-08
7.49248e-09
-2.63915e-08
-9.32905e-09
1.01296e-08
-3.83585e-08
-1.71197e-08
-1.43281e-08
-2.97527e-08
-7.89983e-09
-6.37193e-09
-4.34095e-09
4.15136e-09
-2.67109e-09
1.03553e-08
-3.52928e-09
1.37863e-08
-4.04816e-09
1.72287e-08
1.07844e-09
2.1956e-08
3.31912e-08
1.13796e-08
-7.54509e-09
-4.60973e-09
2.79811e-09
-1.9922e-08
-5.06789e-09
-3.16194e-08
-6.43679e-09
-1.9921e-08
-7.73154e-09
1.30149e-09
-6.74229e-09
1.28651e-08
8.26721e-09
1.48253e-08
1.13192e-08
2.23922e-08
9.27258e-09
3.09313e-08
1.30037e-08
2.21645e-08
4.0748e-08
-7.65378e-09
-1.03491e-09
4.05172e-09
-9.95982e-09
-2.7895e-09
-1.03935e-08
-6.03075e-09
-9.55672e-09
-8.22607e-09
-5.0183e-09
-5.65795e-09
1.13485e-08
0
2.68494e-08
-1.14761e-09
4.00643e-08
0
4.00283e-08
0
-9.71333e-10
5.46325e-08
3.82117e-09
-1.34315e-09
-3.54241e-09
4.70995e-09
-3.70591e-09
5.47032e-09
-6.82663e-09
8.38944e-09
-1.17313e-08
1.87729e-08
-1.86248e-08
4.46975e-08
-2.43148e-08
1.40695e-07
-8.28875e-08
2.67272e-07
-1.09771e-07
3.56536e-07
-1.45106e-07
-1.87313e-07
3.71257e-07
2.14866e-08
-3.69965e-09
-1.91996e-08
4.10517e-08
-2.23908e-08
6.79287e-08
-9.93266e-08
9.51304e-08
-1.30988e-07
2.41587e-07
-1.33008e-07
4.69282e-07
-2.1344e-07
6.36218e-07
-1.96411e-07
7.13488e-07
-1.88639e-07
7.75324e-07
-2.06887e-07
-2.45475e-07
8.33521e-07
4.02416e-07
-1.71315e-07
-2.74821e-07
6.4974e-07
-1.8836e-07
6.34824e-07
-2.42956e-07
5.09358e-07
-3.12502e-07
5.43393e-07
-2.21883e-07
6.99602e-07
-1.83307e-07
7.27524e-07
-2.21761e-07
7.94861e-07
-2.55267e-07
8.64967e-07
-2.76822e-07
-2.96469e-07
9.16017e-07
6.72593e-07
-1.98195e-07
-6.45711e-07
7.09602e-07
-2.25416e-07
7.27826e-07
-2.61363e-07
7.07892e-07
-2.92968e-07
4.88209e-07
-2.32208e-07
5.00206e-07
-2.1027e-07
6.45219e-07
-2.11087e-07
7.75121e-07
-2.37112e-07
8.1178e-07
-3.12773e-07
-3.5043e-07
8.65911e-07
6.92673e-07
-2.03187e-07
-6.87814e-07
7.02833e-07
-2.35574e-07
7.10894e-07
-2.69456e-07
5.43362e-07
-2.83261e-07
4.59082e-07
-2.15737e-07
4.31419e-07
-1.95825e-07
4.35753e-07
-2.30387e-07
5.85849e-07
-2.73001e-07
6.79812e-07
-3.33314e-07
-4.49729e-07
7.80039e-07
7.0227e-07
-1.99779e-07
-7.06126e-07
6.97989e-07
-2.31431e-07
6.80059e-07
-2.51516e-07
3.93251e-07
-2.26143e-07
3.60396e-07
-1.97659e-07
3.73518e-07
-2.23914e-07
4.20461e-07
-1.54494e-07
4.9017e-07
-2.16586e-07
6.29859e-07
-3.48012e-07
-7.9247e-07
9.7238e-07
6.87013e-07
-2.03582e-07
-6.83724e-07
6.71136e-07
-2.16282e-07
4.5167e-07
-1.68478e-07
2.34845e-07
-9.8384e-08
2.07989e-07
-1.38799e-07
2.23063e-07
-1.34052e-07
2.0361e-07
-1.90079e-07
4.24226e-07
-4.9274e-07
8.55731e-07
-7.78692e-07
-9.70004e-07
1.03704e-06
5.07426e-07
-1.34434e-07
-5.77365e-07
4.08337e-07
-1.18165e-07
9.61374e-08
-3.02608e-08
7.33944e-08
1.36119e-08
9.55003e-08
-2.83891e-08
2.04136e-07
-1.56583e-07
4.04678e-07
-5.44717e-07
7.32839e-07
-8.08667e-07
7.37084e-07
-7.99708e-07
-2.8852e-07
2.23557e-07
2.9562e-07
5.15607e-09
-4.35685e-07
6.14888e-08
-9.58951e-09
1.54509e-08
-5.07153e-09
7.62308e-09
9.99857e-09
6.80598e-08
-1.38856e-07
3.32043e-07
-5.78997e-07
7.12886e-07
-8.21844e-07
6.94432e-07
-7.54733e-07
2.08416e-07
-1.4667e-07
-1.50265e-08
5.20719e-08
6.65263e-08
1.14202e-07
-2.46778e-07
3.96013e-09
1.36226e-08
-1.36593e-09
-9.41605e-09
3.80202e-10
3.21118e-08
2.26287e-07
-3.53892e-07
5.49558e-07
-8.92008e-07
4.55043e-07
-5.95532e-07
1.56256e-07
-8.09634e-08
1.61184e-08
-5.70717e-09
-3.4844e-10
1.46975e-09
2.33259e-07
1.29385e-07
-2.48893e-07
7.25558e-08
1.12785e-07
3.47169e-08
7.7052e-08
4.90504e-08
4.87654e-08
2.95375e-07
-5.89957e-07
2.92118e-07
-7.37437e-07
7.75644e-08
-8.65796e-08
5.44883e-09
-8.01483e-09
1.98289e-10
-4.29074e-10
-1.52978e-10
6.00066e-13
2.29804e-07
1.19606e-07
-2.20097e-07
9.1269e-08
1.25919e-07
1.09235e-07
1.03997e-07
1.22611e-07
6.35283e-08
1.57946e-07
-5.67337e-07
2.7706e-08
-5.47054e-07
5.10641e-09
-7.43216e-08
2.86027e-10
-3.31072e-09
-5.54487e-12
-2.37352e-10
-2.62217e-10
-4.32525e-11
1.09369e-07
6.14283e-08
-1.09004e-07
1.29998e-07
1.02666e-07
1.35849e-07
1.11416e-07
1.20827e-07
9.89313e-08
5.7397e-08
-5.96879e-07
3.22203e-08
-7.75055e-07
1.92568e-09
-1.04154e-07
0
-1.49275e-09
-1.68296e-10
-1.80257e-10
-3.84048e-10
-2.3065e-10
5.13957e-08
1.7443e-08
-1.01134e-08
8.30281e-08
6.82696e-08
1.01406e-07
1.27588e-07
6.32989e-08
1.54e-07
6.95291e-08
-8.09677e-07
8.35217e-08
-1.13464e-06
0
-8.24673e-08
-3.3709e-11
-2.26692e-09
-1.26816e-10
-1.59945e-10
-2.62743e-10
-1.49073e-10
-5.88431e-08
-7.15288e-08
1.59701e-07
1.48945e-08
2.08301e-08
2.88249e-08
6.59491e-08
3.69233e-08
7.10128e-08
7.14597e-08
-1.01813e-06
6.41752e-08
-1.1267e-06
0
-9.32893e-08
7.092e-12
-3.94436e-09
-2.0094e-11
-2.03066e-10
-7.19068e-11
-1.88269e-10
-1.15524e-07
-5.44264e-08
1.79834e-07
-2.19045e-08
-2.14139e-08
1.67671e-09
3.28981e-08
3.46133e-08
4.37381e-08
6.77035e-08
-1.0506e-06
6.44207e-08
-1.12276e-06
0
-1.0418e-07
0
-3.65539e-09
-2.42386e-11
-4.57757e-10
-2.39648e-11
-1.08567e-10
-1.97025e-08
-2.33847e-09
3.79169e-10
-2.39538e-08
-2.31845e-08
6.65878e-10
8.10566e-09
6.3449e-08
7.38673e-09
7.08592e-08
-1.0525e-06
7.17e-08
-1.12298e-06
0
-8.93943e-08
0
-2.61224e-09
0
-3.26223e-10
7.94357e-12
-6.35329e-11
-2.58922e-09
-8.89099e-11
3.435e-10
-2.50652e-08
-7.0878e-10
0
-9.45317e-09
4.00342e-08
-2.76877e-08
8.01585e-08
-1.07495e-06
7.81198e-08
-1.12029e-06
0
-4.71669e-08
0
-5.14722e-10
7.63482e-12
-9.44741e-11
3.60339e-12
2.40605e-12
-9.13704e-11
-1.34977e-11
1.66284e-11
-6.93937e-10
-1.02845e-10
-1.00497e-08
-4.51253e-10
2.38876e-09
-5.84528e-08
2.1192e-08
-1.09116e-06
3.43559e-09
-1.10081e-06
0
-5.75588e-08
0
-2.81608e-11
4.16685e-13
-1.34109e-11
-7.29178e-12
2.59334e-11
5.79325e-12
-7.03073e-12
-1.08307e-12
2.29748e-13
-1.59901e-10
-4.22774e-10
-4.54633e-11
-1.33618e-10
-5.93424e-08
3.30756e-09
-1.09198e-06
-1.59361e-09
-1.0926e-06
-4.99986e-11
-6.05264e-08
7.37827e-12
-8.88772e-11
7.47347e-12
-1.91701e-11
-5.12151e-12
5.53555e-11
1.6992e-11
-1.09103e-11
-1.25788e-12
4.94535e-11
-1.82034e-10
3.21549e-11
-4.37963e-11
1.21798e-08
-5.43667e-08
2.53519e-08
-1.08507e-06
1.49084e-08
-1.09218e-06
5.87475e-11
-5.52763e-08
4.61708e-13
-3.15023e-11
1.45746e-11
-3.51634e-11
-7.36281e-12
2.71451e-11
6.33738e-12
-3.29115e-11
-1.39765e-12
2.59984e-11
-1.91669e-10
9.28915e-12
-4.27598e-11
5.96876e-10
-3.35702e-08
1.88409e-09
-1.07833e-06
-2.64074e-09
-1.08284e-06
-9.81459e-13
-3.41525e-08
0
-3.33945e-11
2.8379e-11
-2.93612e-10
-1.84761e-11
3.21399e-11
1.18895e-11
-4.00419e-11
0
2.8773e-11
-1.98418e-10
1.32864e-11
-4.28324e-11
5.26452e-09
-8.44276e-09
6.21666e-09
-1.06767e-06
9.08689e-10
-1.07074e-06
-1.10037e-11
-8.86091e-09
-9.14568e-12
-3.62673e-11
6.69679e-12
-3.01359e-10
-3.23525e-11
8.34044e-12
1.72146e-11
-3.33697e-11
-3.24187e-14
3.71574e-11
-2.08333e-10
2.40357e-11
-4.53836e-11
3.02061e-09
-6.10331e-11
1.26271e-11
-1.03141e-06
-4.05089e-09
-1.03205e-06
-5.77797e-11
-2.84962e-10
-5.22401e-11
-4.4113e-11
-1.04607e-11
-3.3537e-10
-9.50922e-11
2.15919e-12
7.35782e-12
-2.91626e-11
-1.27081e-13
2.57694e-11
-2.16611e-10
4.87925e-12
-4.50702e-11
1.79536e-12
-6.07576e-11
1.85174e-09
-9.92593e-07
-1.81365e-09
-9.91204e-07
-1.22554e-11
-5.51647e-11
-4.9169e-11
-3.40852e-11
-7.02136e-11
-3.0623e-10
-2.63215e-10
-6.74713e-12
1.48517e-11
-4.41612e-11
-3.17055e-13
2.60428e-11
-2.17301e-10
4.51075e-12
-4.33436e-11
8.79402e-12
-6.69395e-11
-4.84824e-10
-9.68585e-07
-8.75199e-11
-9.68467e-07
-5.72171e-12
-4.38943e-11
-1.94832e-11
-2.49913e-11
-5.94838e-11
-2.50551e-10
-2.92907e-10
-2.87004e-11
4.00828e-11
-6.30631e-11
-6.75077e-13
1.26432e-11
-2.1625e-10
3.89288e-12
-4.37042e-11
5.16759e-11
-1.20633e-10
1.7877e-09
-9.53991e-07
-3.88559e-11
-9.53596e-07
-1.83658e-12
-3.83487e-11
-3.44783e-12
-2.25165e-11
-3.17546e-11
-2.20312e-10
-2.94161e-10
-2.71627e-11
3.64926e-11
-4.94866e-11
-2.75653e-12
1.63794e-11
-2.20684e-10
3.91857e-12
-3.47493e-11
3.73785e-10
-4.8898e-10
5.30986e-09
-9.40789e-07
-8.15604e-12
-9.42128e-07
-8.07934e-13
-3.69762e-11
-1.27494e-12
-2.28517e-11
8.98249e-12
-3.00424e-10
-3.12322e-10
2.98009e-11
4.71825e-11
-3.41039e-11
-1.08445e-11
1.33786e-11
-1.99264e-10
5.78316e-12
-1.91572e-11
3.97645e-10
-4.47112e-11
-7.33149e-09
-9.42778e-07
-1.76691e-11
-9.3849e-07
-2.27275e-12
-4.39461e-11
-1.20193e-11
-1.85809e-11
-1.34529e-11
-3.71331e-10
-3.43395e-10
2.09584e-11
4.90014e-11
-5.2254e-11
-9.02798e-12
9.06759e-12
-1.04234e-10
2.43931e-12
-1.16509e-11
1.53801e-10
-1.95382e-10
1.79762e-09
-9.56433e-07
-1.44554e-10
-9.56435e-07
-1.73681e-12
-1.80785e-10
-8.57004e-12
-5.03242e-12
-3.58967e-11
-2.24809e-10
-3.31191e-10
-4.45798e-11
2.78556e-11
-5.91478e-11
-4.28706e-12
5.43342e-12
-1.16901e-10
3.45154e-12
-9.54242e-12
9.23664e-10
-1.11539e-09
2.82037e-10
-9.76068e-07
-9.59496e-10
-9.75812e-07
-1.10446e-12
-1.13683e-09
-9.83007e-13
-3.83701e-12
-3.38257e-11
-9.91628e-11
-1.80207e-12
-5.12982e-13
1.94695e-11
-6.6969e-11
-7.84934e-12
1.00525e-11
-1.22046e-10
3.21356e-12
-4.81206e-12
3.44286e-09
-5.30542e-09
1.98578e-11
-9.86448e-07
-3.5756e-09
-9.85505e-07
0
-5.64192e-09
-1.11984e-12
-2.3539e-12
-2.49658e-13
-1.18186e-10
-1.5901e-12
-4.61617e-13
1.29931e-11
-6.63311e-11
-1.13958e-11
1.56698e-11
-1.22402e-10
1.51456e-11
-4.24227e-12
3.71638e-09
-1.57331e-08
-7.55731e-10
-9.88356e-07
-3.88504e-09
-9.88501e-07
-3.87175e-13
-1.594e-08
0
-2.44049e-12
1.55693e-13
-1.13669e-10
-5.34075e-12
-1.78883e-13
1.30022e-11
-6.8989e-11
-8.03081e-12
9.5222e-12
-1.16615e-10
8.93791e-12
-4.00354e-12
3.02947e-09
-2.14908e-08
-1.40594e-09
-9.86634e-07
-4.21723e-09
-9.86135e-07
-8.50053e-13
-2.1604e-08
0
-2.67323e-12
-3.58924e-13
-1.08649e-10
-7.04828e-12
-1.19528e-13
1.67947e-11
-7.64172e-11
-7.04522e-12
2.84179e-12
-9.35784e-11
2.51173e-12
-4.04675e-12
3.31575e-09
-2.53702e-08
-1.27819e-09
-9.81137e-07
-4.34569e-09
-9.80405e-07
-8.32765e-12
-2.54906e-08
-7.6704e-12
-2.50493e-12
-5.13027e-12
-1.06517e-10
-4.76762e-12
-1.63107e-13
1.81373e-11
-8.11046e-11
-1.12011e-11
2.42283e-12
-5.70441e-11
2.369e-12
-4.15406e-12
4.2326e-09
-2.81529e-08
5.14288e-11
-9.73076e-07
-4.01258e-09
-9.7296e-07
-1.10822e-11
-2.83237e-08
-1.0739e-11
-2.18932e-12
-2.86435e-12
-1.09353e-10
-1.27125e-12
-4.8803e-13
1.64383e-11
-8.2546e-11
-1.27346e-11
3.08052e-12
-2.29397e-11
2.97577e-12
-4.06739e-12
4.55705e-09
-3.06243e-08
2.5307e-10
-9.64403e-07
-4.16068e-09
-9.64693e-07
-1.22156e-11
-3.07468e-08
-1.21891e-11
-1.81742e-12
-2.19522e-12
-1.09699e-10
-1.58562e-12
-1.14086e-12
-3.92873e-12
-1.71226e-12
6.20962e-13
1.95051e-13
-4.98832e-12
3.66228e-13
-4.23778e-12
4.6065e-09
-3.35985e-08
-2.09068e-10
-9.56454e-07
-5.05143e-09
-9.55896e-07
-9.58076e-12
-3.37725e-08
-9.84538e-12
-1.43156e-12
-8.29883e-12
-3.02553e-11
-2.12328e-12
-6.9967e-12
-8.7382e-13
-1.02835e-12
1.32561e-13
0
-1.43783e-12
1.86217e-13
-4.42571e-12
4.44223e-09
-3.68137e-08
-1.24689e-09
-9.48505e-07
-5.38023e-09
-9.48063e-07
-2.66985e-12
-3.70969e-08
-2.76281e-12
-1.29576e-12
0
-9.62914e-13
-1.67153e-12
-5.25859e-12
6.05842e-14
-4.68415e-13
-6.82659e-13
2.02719e-13
-1.57768e-12
2.09985e-13
-4.43425e-12
4.9296e-09
-4.06762e-08
-1.07277e-09
-9.40647e-07
-5.64654e-09
-9.40611e-07
-4.29917e-12
-4.10262e-08
-4.10777e-12
-1.40406e-12
-1.10781e-12
-1.89239e-11
-1.6272e-13
-1.20079e-11
3.63577e-13
-3.77827e-13
-4.37712e-13
3.74381e-13
-1.57587e-12
3.54417e-13
-4.412e-12
5.18321e-09
-4.51791e-08
-3.29899e-10
-9.3417e-07
-5.60671e-09
-9.33904e-07
-1.31272e-11
-4.55783e-08
-1.36076e-11
-7.91216e-13
-9.77533e-12
-5.13104e-12
1.9532e-12
-1.53119e-11
5.89707e-13
-5.23393e-13
-4.38605e-13
8.58427e-13
-2.22368e-12
1.25145e-12
-4.80272e-12
5.90287e-09
-5.11604e-08
-2.63674e-10
-9.28484e-07
-5.82627e-09
-9.28957e-07
-3.69171e-12
-5.15135e-08
-3.49002e-12
-8.74817e-13
-2.31452e-12
1.13221e-11
4.30844e-12
-6.21203e-12
4.94077e-12
-3.76226e-13
-5.06657e-13
9.27084e-12
-3.85639e-11
9.66958e-12
-5.20175e-12
6.40012e-09
-5.87546e-08
5.80276e-10
-9.24701e-07
-6.02124e-09
-9.24742e-07
-1.01473e-11
-5.89721e-08
-1.05489e-11
-3.9793e-13
1.27563e-13
2.03144e-12
2.24937e-11
-1.93062e-12
4.48953e-13
-3.30325e-13
-1.00774e-12
1.26219e-11
-4.26261e-11
1.27233e-11
-5.31808e-12
6.25762e-09
-6.72044e-08
-1.02722e-10
-9.21297e-07
-6.28956e-09
-9.21552e-07
-2.77742e-13
-6.75048e-08
-2.21906e-13
-3.94385e-13
8.52941e-12
-3.69081e-12
8.09232e-12
1.95772e-11
2.59558e-13
5.7131e-14
-1.1761e-12
4.3391e-12
-3.8514e-11
5.19492e-12
-6.12694e-12
6.78464e-09
-7.71341e-08
-1.55445e-10
-9.17962e-07
-7.02415e-09
-9.1816e-07
-6.98851e-13
-7.75385e-08
-6.12483e-13
-4.47526e-13
6.2336e-13
-3.37572e-12
5.09017e-12
3.35048e-12
0
1.02268e-12
-4.20206e-12
1.15076e-11
-4.18024e-11
1.20537e-11
-6.48919e-12
7.01808e-09
-8.79434e-08
-4.03332e-11
-9.14737e-07
-6.85795e-09
-9.15256e-07
-1.71399e-12
-8.82153e-08
-1.85473e-12
-3.04949e-13
0
-3.80833e-12
1.69522e-11
-7.20183e-12
-1.7236e-13
2.22179e-12
-3.7381e-12
9.98109e-12
-3.1842e-11
1.08358e-11
-7.23557e-12
7.81869e-09
-9.99626e-08
1.68272e-10
-9.10783e-07
-7.78889e-09
-9.111e-07
-3.2756e-13
-1.00268e-07
-3.25825e-13
-3.2197e-13
3.0463e-12
-5.24969e-12
1.78799e-12
1.56774e-11
1.89474e-12
4.04663e-11
-6.39099e-13
1.38516e-11
-2.4821e-11
1.41948e-11
-7.43089e-12
7.52292e-09
-1.11262e-07
-4.31162e-11
-9.06038e-07
-7.60637e-09
-9.06382e-07
-6.79071e-13
-1.11636e-07
-7.41824e-13
-2.82684e-13
-2.06245e-12
-2.26545e-12
1.07104e-12
3.99313e-12
2.04101e-11
4.42118e-11
-2.10718e-11
2.40273e-11
-7.82766e-11
2.30936e-11
-6.7186e-12
8.47452e-09
-1.22101e-07
-6.03328e-12
-8.98996e-07
-8.42705e-09
-8.99462e-07
-2.88704e-13
-1.22459e-07
-3.38755e-13
-2.6015e-13
-1.99947e-12
-3.84905e-13
-2.94139e-13
-4.57322e-13
8.79758e-11
9.97165e-12
-4.95362e-11
5.8794e-11
-7.27421e-11
5.65294e-11
-4.29417e-12
8.48234e-09
-1.31227e-07
2.71998e-10
-8.91023e-07
-8.43868e-09
-8.91074e-07
-7.44119e-14
-1.31658e-07
-1.02788e-13
-2.64307e-13
-7.98624e-15
0
-2.32469e-14
-3.02802e-13
8.01631e-11
-3.99766e-11
-2.60155e-11
4.25449e-11
-3.18537e-11
4.07225e-11
-2.43289e-12
9.6726e-09
-1.39464e-07
-2.48533e-10
-8.80128e-07
-9.52165e-09
-8.80947e-07
-6.18401e-13
-1.39931e-07
-6.5543e-13
-2.57419e-13
-9.07914e-14
-5.73446e-13
-6.61666e-15
-1.30974e-13
-1.30803e-11
-8.06898e-12
3.75131e-11
7.53558e-12
-1.92538e-11
7.16897e-12
-2.09402e-12
9.33924e-09
-1.45151e-07
2.1535e-10
-8.68902e-07
-9.37255e-09
-8.69314e-07
-1.35135e-12
-1.4574e-07
-1.42659e-12
-2.0282e-13
-2.09549e-13
-2.89486e-12
-1.75896e-13
-6.57508e-14
-8.14467e-12
-4.31774e-13
4.99876e-13
6.78577e-13
-7.21729e-12
7.30748e-13
-2.1654e-12
1.11633e-08
-1.51279e-07
3.62454e-10
-8.55487e-07
-1.09703e-08
-8.55426e-07
-1.14698e-12
-1.51765e-07
-1.19606e-12
-1.61117e-13
-1.26223e-12
-5.09571e-12
-2.45328e-12
-1.09196e-12
-9.83646e-14
-4.73724e-13
1.30741e-13
5.96067e-13
-7.91957e-12
1.06763e-12
-2.65116e-12
1.1122e-08
-1.56646e-07
1.53015e-10
-8.41824e-07
-1.08566e-08
-8.41863e-07
-1.47641e-12
-1.5711e-07
-1.5889e-12
-4.88389e-14
-6.93361e-12
-1.82746e-12
-5.48392e-12
-3.46011e-12
3.15245e-12
-3.02119e-12
-6.12825e-13
1.31638e-11
-2.71774e-11
1.29345e-11
-2.33965e-12
1.26029e-08
-1.63558e-07
1.74794e-10
-8.26968e-07
-1.23174e-08
-8.27049e-07
-2.74615e-13
-1.63962e-07
-2.9735e-13
-2.6173e-14
-2.13578e-12
-5.94612e-14
-2.59773e-12
-4.83385e-12
1.18351e-11
-1.30103e-11
-4.19526e-12
1.85785e-11
-2.68888e-11
1.80706e-11
-1.68723e-12
1.29155e-08
-1.72836e-07
-3.01661e-10
-8.1243e-07
-1.32051e-08
-8.12754e-07
-3.52544e-15
-1.73451e-07
-3.72199e-15
-2.60595e-14
-5.42993e-14
-8.95262e-15
-1.0205e-13
-1.31163e-12
9.85903e-12
-1.284e-11
-2.94735e-12
1.77718e-11
-2.78053e-11
1.71737e-11
-1.01226e-12
1.44279e-08
-1.86696e-07
-3.01329e-10
-7.97555e-07
-1.4725e-08
-7.98153e-07
-2.85185e-15
-1.87489e-07
-3.21846e-15
-2.5777e-14
-5.12228e-15
-7.13181e-15
-8.6106e-15
-9.87242e-14
1.22912e-11
-1.02406e-11
-7.96172e-12
1.04318e-11
-1.46629e-11
1.00283e-11
-5.81929e-13
1.56944e-08
-2.04551e-07
6.60087e-10
-7.8311e-07
-1.48998e-08
-7.8348e-07
-2.77878e-15
-2.05171e-07
-3.16636e-15
-2.54726e-14
-3.82972e-15
-6.55261e-15
-6.64928e-15
-5.94849e-15
1.06871e-11
-8.49821e-13
-1.4418e-12
4.50324e-12
-2.88482e-12
4.21749e-12
-2.90683e-13
1.71894e-08
-2.26008e-07
4.76756e-10
-7.67392e-07
-1.66098e-08
-7.67546e-07
-5.23903e-15
-2.26493e-07
-4.77905e-15
-2.60167e-14
0
-1.20917e-14
-6.03504e-14
0
3.03065e-12
0
-1.50178e-12
1.144e-12
-1.97233e-13
1.07873e-12
-2.19356e-13
1.73795e-08
-2.48226e-07
1.24092e-10
-7.51033e-07
-1.76147e-08
-7.50674e-07
-1.52178e-14
-2.48714e-07
-1.32698e-14
-2.80733e-14
0
-8.76979e-14
-3.28763e-13
0
4.05006e-13
0
-8.90114e-14
2.16236e-13
0
2.06615e-13
-2.03273e-13
1.91707e-08
-2.70702e-07
7.69136e-11
-7.32376e-07
-1.89991e-08
-7.32174e-07
-4.29526e-14
-2.71553e-07
-4.44712e-14
-2.69364e-14
-2.38805e-13
-4.12298e-14
-5.5234e-14
-6.1924e-13
3.78813e-14
1.57324e-14
-2.97489e-14
4.2582e-14
1.00967e-14
4.58653e-14
-1.99696e-13
2.06306e-08
-2.92995e-07
8.85021e-11
-7.12072e-07
-2.02717e-08
-7.12075e-07
-2.70515e-14
-2.94098e-07
-2.78028e-14
-2.72873e-14
-2.75428e-14
-7.71457e-15
0
-2.08649e-14
2.49151e-14
4.29617e-14
-8.02846e-14
2.61356e-14
1.62261e-14
5.24808e-14
-2.18948e-13
2.07347e-08
-3.14931e-07
-1.64888e-09
-6.90067e-07
-2.3289e-08
-6.90399e-07
-2.27829e-14
-3.15785e-07
-5.81212e-15
-4.52311e-14
-1.02664e-14
-3.73113e-15
2.71922e-14
-2.01052e-14
2.0151e-14
5.05963e-14
-2.05051e-14
2.27437e-14
2.09707e-14
3.93876e-13
-5.82743e-13
2.13729e-08
-3.37569e-07
-3.53992e-09
-6.65747e-07
-2.75322e-08
-6.66515e-07
-2.91482e-13
-3.38447e-07
-1.34134e-14
-3.24271e-13
-2.89952e-14
-1.54275e-15
7.59576e-14
-5.24258e-14
3.47083e-14
4.68186e-14
-2.46095e-14
2.64044e-12
4.44019e-13
6.55156e-12
-4.48437e-12
2.29648e-08
-3.61708e-07
-3.78331e-09
-6.39455e-07
-3.019e-08
-6.40578e-07
-4.38581e-12
-3.6319e-07
-2.22697e-14
-4.68945e-12
-2.4987e-14
-3.19834e-15
5.93889e-14
-5.29008e-15
1.64775e-14
4.63649e-14
-1.00979e-14
5.36082e-12
-6.66567e-14
6.43402e-11
-6.34151e-11
2.64431e-08
-3.88512e-07
-1.35325e-09
-6.11595e-07
-3.06099e-08
-6.1174e-07
-7.13106e-11
-3.90434e-07
-1.28243e-14
-7.59906e-11
-1.21831e-14
-8.21196e-15
2.70561e-14
-2.73409e-15
5.8071e-13
1.10531e-11
-2.10474e-15
1.25191e-12
-6.9908e-13
9.07989e-10
-9.69927e-10
3.11334e-08
-4.14666e-07
4.43746e-09
-5.84642e-07
-2.35524e-08
-5.84217e-07
-1.10819e-09
-4.14783e-07
-1.29078e-14
-1.18417e-09
-1.18552e-14
-1.3538e-14
4.23668e-14
1.36384e-14
0
1.71775e-11
3.37475e-12
8.27769e-13
-1.4689e-12
9.33761e-09
-1.03065e-08
2.8783e-08
-4.3177e-07
3.50899e-09
-5.59443e-07
-2.83922e-08
-5.52382e-07
-1.01378e-08
-4.34447e-07
-2.9193e-15
-1.1322e-08
2.69448e-17
-2.07711e-14
9.41294e-14
-3.42461e-16
9.06699e-12
1.10303e-11
-2.13276e-12
9.79854e-12
-2.15566e-12
2.1402e-08
-3.14342e-08
4.03954e-08
-4.50557e-07
4.52874e-10
-5.19547e-07
-2.12011e-08
-5.30798e-07
-1.90719e-08
-4.36748e-07
-2.37196e-13
-3.06316e-08
-2.11559e-13
-5.06869e-14
1.25544e-13
-1.8795e-13
1.99392e-11
1.02266e-11
-2.28169e-11
2.05698e-11
-2.78696e-12
1.65446e-08
-4.78679e-08
-6.39016e-09
-4.2754e-07
-3.53407e-08
-4.9062e-07
-7.83712e-08
-4.87811e-07
-5.06793e-08
-4.64257e-07
-1.54385e-12
-8.14286e-08
-7.2262e-13
-8.75702e-13
8.5045e-14
-6.71301e-13
1.77865e-11
6.60519e-12
-2.7911e-11
3.12344e-11
-1.63104e-11
5.14186e-08
-9.96377e-08
5.80113e-08
-4.34166e-07
2.21699e-08
-4.5479e-07
-1.45615e-08
-4.51082e-07
-4.4563e-08
-4.33981e-07
-3.10749e-11
-1.25621e-07
-3.98247e-13
-3.15566e-11
7.06179e-15
-8.01224e-13
8.56329e-12
4.38304e-13
-4.19195e-12
6.04535e-10
-6.125e-10
6.74725e-08
-1.67159e-07
2.64956e-08
-3.9329e-07
-2.22823e-08
-4.06013e-07
-6.28543e-08
-4.10514e-07
-8.87246e-08
-4.07897e-07
-1.10692e-09
-2.12778e-07
-4.88527e-14
-1.13845e-09
-4.34677e-15
-5.80472e-14
2.70561e-12
-2.18997e-12
-5.83467e-13
1.42374e-08
-1.48476e-08
1.05501e-07
-2.57832e-07
7.3204e-08
-3.60993e-07
3.38442e-08
-3.66654e-07
-1.09729e-08
-3.65699e-07
-6.69685e-08
-3.51904e-07
-1.79483e-08
-2.61009e-07
-3.88878e-12
-1.90828e-08
-3.89125e-12
-2.71729e-15
6.2424e-10
-6.19498e-10
-6.20537e-12
5.05379e-08
-6.48418e-08
8.1341e-08
-2.88158e-07
2.75507e-08
-3.07203e-07
-2.42019e-08
-3.14901e-07
-7.2493e-08
-3.17408e-07
-1.09257e-07
-3.15141e-07
-7.32836e-08
-2.96007e-07
-6.7609e-10
-9.09057e-08
-6.7998e-10
-1.23224e-15
2.86628e-08
-2.92782e-08
-4.11239e-12
1.48216e-07
-1.84151e-07
1.13905e-07
-2.53522e-07
7.40643e-08
-2.67362e-07
2.78404e-08
-2.68677e-07
-2.30421e-08
-2.66526e-07
-7.93106e-08
-2.58873e-07
-1.29689e-07
-2.45628e-07
-2.92301e-08
-1.90755e-07
-2.99101e-08
-3.53513e-16
9.03482e-08
-1.04268e-14