/*--------------------------------*- C++ -*----------------------------------*\
  =========                 |
  \\      /  F ield         | OpenFOAM: The Open Source CFD Toolbox
   \\    /   O peration     | Website:  https://openfoam.org
    \\  /    A nd           | Version:  8
     \\/     M anipulation  |
\*---------------------------------------------------------------------------*/
FoamFile
{
    version     2.0;
    format      ascii;
    class       volScalarField;
    location    "2.5";
    object      alpha.water;
}
// * * * * * * * * * * * * * * * * * * * * * * * * * * * * * * * * * * * * * //

dimensions      [0 0 0 0 0 0 0];

internalField   nonuniform List<scalar> 
9150
(
1
1
1
1
1
1
1
1
1
1
1
1
1
1
1
1
1
1
1
1
1
1
1
1
1
1
1
1
1
1
1
1
1
1
1
1
1
1
1
1
1
1
1
1
1
1
1
1
1
1
1
1
1
1
1
1
1
1
1
1
1
1
1
1
1
1
1
1
1
1
1
1
1
1
1
1
1
1
1
1
1
1
1
1
1
1
1
1
1
1
1
1
1
1
1
1
1
1
1
1
1
1
1
1
1
1
1
1
1
1
1
1
1
1
1
1
1
1
1
1
1
1
1
1
1
1
1
1
1
1
1
1
1
1
1
1
1
1
1
1
1
1
1
1
1
1
1
1
1
1
0.399089
0.562396
0.695936
0.696057
0.669331
0.613905
0.613905
0.725671
0.899297
0.899297
0.401081
0.402232
0.40466
0.449913
0.728727
0.771279
0.71282
0.607174
0.607084
0.800134
0.723328
0.476055
0.406334
0.743608
0.771294
0.771226
0.771295
0.771147
0.620967
0.599616
0.727349
0.723328
0.720649
0.613981
0.233223
0.215988
0.17853
0.190647
0.676087
0.780976
0.732585
0.617277
0.362508
0.0872008
0.0713344
0.068561
0.0674756
0.0653775
0.081041
0.0753838
0.620316
0.570897
0.530377
0.561252
0.665862
0.603917
0.241417
0.0613409
0.060002
0.060002
0.730934
0.636655
0.674604
0.760019
0.758671
0.720693
0.698996
0.601596
0.559624
0.288525
0.669779
0.842583
0.938375
0.937906
0.937225
0.935759
0.934807
0.859573
0.537465
0.441104
0.940868
0.940814
0.940352
0.885941
0.840264
0.905299
0.93331
0.840844
0.208029
0.0574234
0.941447
0.93091
0.770305
0.686088
0.685928
0.719767
0.928836
0.59065
0.0574234
0.0574014
0.937747
0.719892
0.685995
0.685918
0.686088
0.724909
0.912441
0.545544
0.0584105
0.0574025
0.938592
0.783828
0.68635
0.686088
0.751094
0.874468
0.887445
0.696937
0.0938279
0.0574016
0.921865
0.916407
0.913544
0.911152
0.844014
0.852422
0.875686
0.875698
0.864541
0.408264
0.632386
0.808953
0.884726
0.906699
0.902184
0.899549
0.808574
0.34102
0.225922
0.210154
0.0563162
0.0556084
0.188306
0.695146
0.826768
0.855112
0.746066
0.353475
0.23378
0.232074
0.0556084
0.0554906
0.0554496
0.0537684
0.0528196
0.0530969
0.352071
0.82876
0.82876
0.831396
0.255824
0.231077
0.35533
0.338918
0.245473
0.287223
0.347554
0.468078
0.748342
0.799242
0.655707
0.476202
0.319071
0.280129
0.225572
0.16337
0.384918
0.424316
0.255755
0.173715
0.124277
0.150152
0.0777047
0.0273983
0.0269472
0.0295382
0.291523
0.238871
0.0373655
0.0374061
0.10753
0.0857663
0.0413898
0.0266263
0.0266743
0.0690392
0.105636
0.0337911
0.0352881
0.0371576
0.109817
0.109632
0.071767
0.0266743
0.0266263
0.0374256
0.0269806
0.0271204
0.0499233
0.0703527
0.0645922
0.109787
0.0834454
0.0266814
0.0267891
0.0267288
0.0268547
0.0269806
0.0424554
0.0800238
0.0222923
0.0224851
0.0649675
0.0837893
0.0837768
0.0639692
0.0269806
0.0271204
0.027158
0.031114
0.0222928
0.0222907
0.0222961
0.0227023
0.0681522
0.0975364
0.0996422
0.0853097
0.052813
0.0337826
0.0222926
0.0222961
0.0223899
0.0234446
0.0255035
0.0346473
0.107115
0.222637
0.343984
0.396526
0.0223528
0.035425
0.079613
0.0747819
0.145451
0.354343
0.755671
0.897564
0.897741
0.897797
0.361123
0.5754
0.774068
0.723299
0.643657
0.795235
0.895823
0.89742
0.897739
0.897789
0.924074
0.924075
0.92408
0.924088
0.79135
0.597373
0.601715
0.843321
0.89742
0.897739
0.924091
0.924074
0.924076
0.917581
0.607123
0.597034
0.597373
0.616869
0.876183
0.897233
0.924136
0.924091
0.924076
0.801492
0.597366
0.597373
0.668476
0.692294
0.687199
0.862997
0.924174
0.924226
0.894587
0.624649
0.615481
0.602075
0.520917
0.521079
0.547552
0.817968
0.924264
0.924298
0.539728
0.360549
0.398706
0.416013
0.537984
0.742395
0.726812
0.451338
0.924179
0.692809
0.117249
0.112739
0.229324
0.622432
0.769747
0.764312
0.495656
0.0446672
0.825667
0.163943
0.115257
0.186902
0.809567
0.810422
0.762038
0.308662
0.000552469
4.77385e-05
0.924171
0.409668
0.600625
0.7967
0.810422
0.764897
0.16399
0.000561069
4.86301e-05
1.6603e-05
0.924131
0.644618
0.610236
0.796591
0.737211
0.391304
0.0146217
0.000304906
0.00024785
0.000270403
0.595139
0.504028
0.649187
0.797012
0.512084
0.335533
0.0503608
0.000363116
0.000402988
0.000831994
0.504003
0.504201
0.686321
0.796959
0.522916
0.669697
0.0667572
0.000739427
0.000351612
0.000617229
0.78092
0.566133
0.508891
0.511646
0.753606
0.753674
0.0543545
0.00506674
0.000349406
0.000365178
0.661803
0.682346
0.534387
0.475106
0.753689
0.753655
0.066188
0.00714049
0.000731957
0.00013685
0.0271887
0.271323
0.47304
0.384688
0.752772
0.753689
0.0700893
0.00669525
0.00138025
0.000108518
2.86927e-05
0.000180468
0.0378345
0.0719938
0.738264
0.753655
0.0483285
0.00400251
0.00060942
8.37523e-05
9.18978e-06
2.8691e-05
0.000124648
0.0362396
0.750075
0.753358
0.0318435
0.000648615
0.000149553
0.000174699
2.50991e-05
0.000104331
5.50437e-05
0.0408358
0.750106
0.751196
0.0410108
4.97966e-05
5.20148e-05
0.000129983
3.52031e-05
0.000473463
5.44167e-05
0.0398765
0.747548
0.75053
0.0422848
4.76148e-05
5.16347e-05
6.09583e-05
7.81273e-05
0.000474164
5.44835e-05
0.0321122
0.748361
0.748664
0.0319622
4.76148e-05
0.000515699
7.95413e-05
0.000157092
0.000474083
5.43901e-05
0.0152571
0.746114
0.746262
0.0159557
4.75785e-05
0.000718765
0.000133846
0.000152849
0.000474164
5.44835e-05
0.0029343
0.733356
0.733384
0.00309947
4.802e-05
0.000719642
0.000180706
0.000100062
0.000474083
5.9728e-05
4.37034e-05
0.712093
0.712367
3.82002e-05
6.09483e-05
0.000718765
0.000514892
9.13558e-05
0.000473563
5.99664e-05
4.35938e-05
0.699762
0.698856
3.21701e-05
4.22561e-05
0.000612633
0.000760897
0.000164184
0.000459831
5.91433e-05
4.39774e-05
0.696325
0.696353
2.96779e-05
3.72928e-05
0.00051028
0.000761857
0.000193793
0.000457073
6.16102e-05
4.71569e-05
0.696076
0.695934
2.92172e-05
3.68565e-05
0.000531217
0.000761939
0.000147784
0.000451017
3.81575e-05
0.00032196
0.702771
0.698406
2.73019e-05
3.68495e-05
0.000687398
0.000761857
0.000155811
0.000327643
2.21629e-05
2.10326e-05
0.717286
0.718312
1.6619e-05
2.18236e-05
0.000577774
0.000761485
0.00041194
0.000304464
1.55577e-05
1.67875e-05
0.742271
0.741382
7.3981e-06
6.89376e-06
0.000243488
0.000411286
0.000472073
0.000464515
1.45156e-05
0.000117776
0.762261
0.761869
0.000142731
6.1903e-06
0.000160608
2.88466e-06
0.000474013
0.000473755
7.39604e-06
0.00768494
0.774218
0.773714
0.00797012
4.40007e-06
0.000337847
5.05558e-06
0.000473756
0.000473861
7.02658e-06
0.0148691
0.782054
0.781645
0.0149188
4.31051e-06
0.000337849
2.73392e-05
0.00047345
0.000453655
6.92476e-06
0.0186599
0.786915
0.786511
0.0186621
3.93752e-06
0.000337847
3.30412e-05
0.000473401
0.000310057
6.7342e-06
0.0214784
0.790188
0.789826
0.021596
3.33498e-06
0.000337466
1.67018e-05
0.00047287
0.000210917
6.56267e-06
0.0238072
0.793016
0.79265
0.0239405
2.69294e-06
0.000336018
6.606e-06
0.000244728
8.3547e-05
6.55257e-06
0.0262683
0.796372
0.795868
0.0263004
2.27155e-06
0.000214049
9.20643e-06
6.6179e-06
8.1221e-06
6.55274e-06
0.0292801
0.800796
0.800368
0.0293868
2.17291e-06
3.9957e-05
2.33484e-05
6.58207e-06
6.55132e-06
6.55274e-06
0.0325448
0.805565
0.805253
0.0327896
1.83084e-06
9.52365e-05
3.07399e-05
6.51774e-06
6.53365e-06
6.55132e-06
0.0366453
0.811537
0.811289
0.0369459
1.32477e-06
0.000261778
2.80628e-05
1.02796e-05
6.66175e-06
6.55552e-06
0.0415928
0.818759
0.818582
0.0419078
1.02235e-06
0.000261726
2.78232e-05
8.22163e-06
0.000172787
6.59562e-06
0.0482377
0.828111
0.827813
0.0484667
6.1902e-07
0.000238941
0.000227907
7.00888e-06
0.000298949
6.98808e-06
0.0563457
0.838506
0.838088
0.0565269
6.03541e-07
3.3567e-05
0.000106296
7.33816e-06
0.000299179
7.65688e-06
0.0654957
0.849043
0.848763
0.0656794
5.43376e-07
2.99032e-05
3.24992e-05
1.03921e-05
0.00029923
8.02152e-06
0.0762957
0.860365
0.86013
0.0765039
4.61817e-07
3.5642e-05
0.000312769
1.07246e-05
0.000290648
8.5189e-06
0.0881061
0.871487
0.871131
0.0883436
4.35192e-07
4.43414e-05
4.96546e-05
0.000112785
0.000180985
9.17019e-06
0.101106
0.882354
0.882096
0.101261
3.87038e-07
2.96032e-05
0.000129457
0.000616416
0.000368398
8.3032e-06
0.113549
0.891518
0.891313
0.113705
3.70543e-07
9.22872e-06
0.000125856
0.000805111
0.000699155
5.17843e-06
0.125594
0.899815
0.899596
0.125816
3.67743e-07
2.11408e-06
1.89236e-06
0.000805111
0.000792148
3.41705e-06
0.136396
0.906715
0.906515
0.136671
3.26166e-07
1.05358e-05
1.8909e-06
0.000733459
0.000535007
3.06941e-06
0.146583
0.912968
0.912755
0.146917
2.60604e-07
2.17515e-05
1.88863e-06
2.83663e-06
6.97085e-05
3.04682e-06
0.155271
0.918001
0.917806
0.155571
1.52096e-07
2.43014e-05
5.5139e-05
2.83071e-06
2.83882e-06
2.96084e-06
0.165165
0.923859
0.923517
0.165572
5.5531e-08
2.96771e-05
0.00012262
2.83882e-06
0.000130822
2.81547e-06
0.175378
0.929395
0.928994
0.17574
3.91411e-08
4.85103e-06
0.00012161
4.62377e-05
0.000199883
2.08413e-06
0.189254
0.936324
0.935867
0.189629
3.90842e-08
3.91411e-08
6.31948e-06
0.000199864
0.000199642
1.24877e-06
0.207653
0.944201
0.943859
0.208238
3.90871e-08
3.90842e-08
3.96124e-08
0.000199705
0.000161872
6.9048e-07
0.233196
0.953489
0.953121
0.23385
3.90847e-08
3.90871e-08
3.94033e-08
0.000147032
6.86235e-05
4.1063e-07
0.264559
0.962781
0.962259
0.264848
3.90871e-08
3.92888e-08
2.72358e-07
4.4132e-05
2.21574e-05
3.4417e-07
0.301406
0.971541
0.970986
0.301591
3.91615e-08
1.91744e-07
2.65872e-06
4.74796e-06
2.90507e-06
3.34783e-07
0.340478
0.978756
0.978234
0.340962
3.99946e-08
5.81267e-07
5.72541e-06
1.58832e-06
3.34774e-07
3.33632e-07
0.383007
0.984716
0.984225
0.383939
4.28277e-08
2.39479e-07
2.2824e-07
4.36484e-07
3.30218e-07
3.31269e-07
0.42862
0.989411
0.98886
0.429619
4.46263e-08
4.63371e-08
1.77593e-07
3.27853e-07
3.29299e-07
3.30286e-07
0.478207
0.993037
0.992435
0.478779
4.56698e-08
1.22019e-07
7.10447e-07
3.27115e-07
2.39476e-05
3.52787e-07
0.534267
0.995692
0.995162
0.535149
6.32438e-08
1.09147e-07
8.50815e-07
3.26975e-07
4.51159e-05
7.01156e-07
0.598076
0.997232
0.996876
0.599674
9.48317e-08
1.09547e-07
3.79671e-07
1.9109e-05
1.19182e-05
4.60932e-06
0.67147
0.998277
0.997754
0.673397
1.09547e-07
1.09451e-07
5.3494e-07
0.000120182
1.19444e-05
1.00776e-05
0.747181
0.999029
0.998561
0.747159
1.09469e-07
1.09469e-07
1.22522e-06
0.00014841
1.19539e-05
0.0274024
0.815995
0.999808
0.999014
0.815046
0.0341534
1.09459e-07
3.18885e-06
0.000179102
1.2403e-05
0.0959594
0.878476
0.999853
0.999812
0.879081
0.114935
1.22991e-07
5.79397e-06
0.000149956
1.35402e-05
0.163876
0.909237
0.999898
0.999846
0.961848
0.265792
2.11384e-07
1.0469e-06
2.35136e-05
1.55035e-05
0.373015
0.983421
0.999959
0.999983
0.985412
0.430423
2.37632e-07
2.3119e-07
2.23171e-05
1.96984e-05
0.618451
0.999975
0.999995
0.999986
0.999984
0.701561
2.45264e-07
2.38074e-09
6.97623e-06
0.0725975
0.878743
0.999996
0.999999
1
0.999991
0.87356
0.126205
6.4678e-10
1.48754e-07
0.534749
0.996146
0.999999
1
1
1
0.999972
0.619078
5.68903e-10
0.327971
0.965882
1
1
1
1
1
1
0.966011
0.344233
0.899297
0.899297
0.899297
0.899296
0.898416
0.894113
0.894113
0.91113
0.936091
0.884091
0.864222
0.864206
0.881838
0.93789
0.93789
0.937865
0.907703
0.885051
0.884994
0.890427
0.93685
0.915459
0.679753
0.650032
0.650032
0.742823
0.938741
0.938738
0.916301
0.844237
0.844234
0.844238
0.844376
0.930443
0.938826
0.938826
0.938822
0.938779
0.938848
0.939081
0.899297
0.899297
0.899297
0.899296
0.899295
0.894164
0.895332
0.93363
0.936759
0.937688
0.93709
0.936646
0.93789
0.93789
0.93789
0.937884
0.93786
0.937623
0.937221
0.936887
0.936898
0.936909
0.885462
0.667996
0.815571
0.938742
0.938741
0.938742
0.938739
0.93814
0.855842
0.8586
0.938827
0.938827
0.938827
0.938823
0.938799
0.938927
0.939081
0.93903
0.599395
0.606522
0.788804
0.899293
0.899281
0.899198
0.78233
0.484832
0.841908
0.937692
0.937702
0.937707
0.937793
0.93789
0.937885
0.937861
0.930769
0.79796
0.827827
0.936898
0.936908
0.936908
0.936908
0.93177
0.935584
0.93874
0.938743
0.938742
0.938739
0.93875
0.938513
0.935003
0.938827
0.938827
0.93883
0.938877
0.938964
0.938883
0.939031
0.939031
0.780439
0.771441
0.798118
0.810823
0.805568
0.897838
0.845147
0.425618
0.425053
0.741038
0.858028
0.8443
0.795346
0.795922
0.84542
0.894371
0.885534
0.690517
0.689144
0.722832
0.93689
0.936908
0.936805
0.858304
0.805848
0.805869
0.925071
0.93874
0.93875
0.938781
0.938812
0.938824
0.938826
0.938826
0.938847
0.938818
0.93888
0.915632
0.826935
0.894481
0.0991775
0.516569
0.79785
0.783533
0.86351
0.880316
0.783143
0.500346
0.287087
0.270671
0.297071
0.299732
0.278212
0.259411
0.246501
0.221218
0.500664
0.718468
0.764837
0.644353
0.643086
0.833492
0.93494
0.885881
0.806026
0.806615
0.834022
0.93874
0.938739
0.93875
0.938781
0.938812
0.938824
0.935918
0.929039
0.904537
0.852505
0.740205
0.729013
0.845715
0.060002
0.0604313
0.143825
0.644645
0.870218
0.877679
0.866977
0.758355
0.368241
0.263227
0.262297
0.261818
0.262125
0.40073
0.44267
0.0898964
0.089156
0.443141
0.874396
0.785016
0.642938
0.642978
0.8626
0.942722
0.942708
0.9416
0.702238
0.56627
0.859291
0.933689
0.927935
0.888484
0.895793
0.919301
0.830697
0.732928
0.731551
0.730282
0.729013
0.903637
0.0604313
0.0606791
0.0598855
0.256815
0.804041
0.873022
0.868393
0.864948
0.775188
0.321262
0.261953
0.262058
0.390118
0.800367
0.558636
0.0979355
0.0881238
0.388076
0.877739
0.857052
0.642978
0.642938
0.751723
0.942803
0.9428
0.916575
0.611306
0.52162
0.521635
0.526244
0.602146
0.610413
0.78299
0.940379
0.851968
0.848063
0.845836
0.794854
0.875027
0.940385
0.211465
0.0584157
0.059209
0.102091
0.667835
0.868092
0.864948
0.86351
0.861509
0.762039
0.504137
0.566782
0.827062
0.814952
0.388795
0.087999
0.0884977
0.547279
0.877667
0.880633
0.664521
0.643523
0.740854
0.942951
0.942894
0.741596
0.522105
0.521635
0.521592
0.522029
0.526862
0.66076
0.863548
0.940396
0.940398
0.9404
0.940403
0.940399
0.940399
0.940394
0.0675841
0.0578982
0.0653192
0.067086
0.359376
0.610144
0.759434
0.86151
0.858396
0.85583
0.852468
0.843357
0.834624
0.615545
0.0986321
0.0881388
0.178009
0.824816
0.881003
0.880986
0.734279
0.644043
0.681661
0.942985
0.942951
0.942894
0.888434
0.631054
0.59803
0.82307
0.906096
0.941281
0.941281
0.939695
0.940356
0.940403
0.940403
0.940404
0.940401
0.940399
0.0574083
0.0574525
0.0691066
0.0960486
0.0908711
0.153622
0.273577
0.48852
0.606658
0.685369
0.749207
0.6634
0.385145
0.104048
0.0958325
0.231496
0.807234
0.881003
0.881003
0.880126
0.643606
0.643791
0.811504
0.943034
0.942985
0.942861
0.937745
0.941786
0.941627
0.941499
0.941236
0.941281
0.941281
0.937811
0.937813
0.940358
0.940404
0.940405
0.940402
0.887344
0.0574019
0.0574083
0.057442
0.0577705
0.0585102
0.116726
0.0860183
0.0863816
0.101233
0.149282
0.167324
0.165213
0.151861
0.146477
0.580727
0.855778
0.880986
0.880994
0.881003
0.672801
0.643606
0.675726
0.943067
0.943089
0.939818
0.933094
0.942346
0.942219
0.937006
0.916766
0.937098
0.941202
0.94127
0.938196
0.937811
0.939458
0.940405
0.940405
0.940405
0.859448
0.0574025
0.0574161
0.0575184
0.0583922
0.118591
0.0860542
0.0860971
0.0860353
0.0863816
0.102542
0.301634
0.47434
0.630156
0.795915
0.880493
0.880592
0.880716
0.876159
0.642502
0.64283
0.643606
0.851076
0.943089
0.943107
0.943118
0.94313
0.943126
0.905338
0.653319
0.553392
0.675574
0.794914
0.934888
0.939763
0.939802
0.940405
0.940405
0.940405
0.940401
0.85913
0.0574058
0.0575184
0.0576912
0.0588746
0.242841
0.484295
0.6261
0.695203
0.731609
0.764721
0.830465
0.879236
0.880167
0.880304
0.880344
0.880493
0.718125
0.604446
0.605212
0.65634
0.923663
0.942098
0.929842
0.925312
0.940537
0.943139
0.94314
0.750338
0.546747
0.546745
0.546745
0.546744
0.706121
0.936187
0.940402
0.940405
0.940405
0.940405
0.909617
0.858771
0.203266
0.339443
0.705766
0.864677
0.873966
0.877519
0.878293
0.87835
0.87835
0.87835
0.871741
0.875
0.880101
0.880205
0.880301
0.803522
0.604332
0.604203
0.67427
0.942261
0.942302
0.942201
0.940083
0.925343
0.943139
0.94314
0.94314
0.830507
0.549366
0.546747
0.546743
0.546745
0.579174
0.922686
0.940388
0.940399
0.940405
0.940399
0.868304
0.858755
0.45564
0.682068
0.695358
0.624678
0.679382
0.877293
0.877798
0.878293
0.877809
0.754928
0.570886
0.574635
0.877297
0.880101
0.817502
0.622048
0.604203
0.750966
0.942408
0.942464
0.942398
0.942279
0.941163
0.941064
0.94297
0.94314
0.943141
0.94314
0.706029
0.546869
0.546751
0.546809
0.776353
0.940363
0.940439
0.940395
0.940436
0.926445
0.858755
0.858755
0.829453
0.58562
0.560751
0.560646
0.560886
0.598319
0.861273
0.628313
0.576251
0.575814
0.652991
0.54619
0.544277
0.546649
0.540032
0.541124
0.701035
0.942408
0.942464
0.942532
0.940656
0.938808
0.938803
0.941065
0.938797
0.942653
0.943142
0.94314
0.739965
0.548316
0.546967
0.641635
0.922578
0.940388
0.940394
0.940422
0.940395
0.910684
0.858756
0.858755
0.834316
0.834363
0.834135
0.834049
0.833912
0.832117
0.591919
0.464604
0.634754
0.653386
0.654061
0.6534
0.652424
0.538111
0.538012
0.561197
0.648164
0.766797
0.905084
0.942594
0.942594
0.939356
0.938796
0.938796
0.938796
0.9431
0.943147
0.883867
0.654687
0.648438
0.849874
0.842124
0.679672
0.930452
0.940384
0.940397
0.940296
0.939937
0.925252
0.862542
0.517924
0.834315
0.834119
0.833811
0.429327
0.122719
0.191221
0.526142
0.637283
0.560039
0.495189
0.481325
0.436978
0.494965
0.63737
0.709177
0.745659
0.765068
0.767091
0.839107
0.942594
0.942523
0.942437
0.938812
0.939048
0.943147
0.943154
0.781757
0.767312
0.9431
0.942421
0.66526
0.405557
0.929901
0.940319
0.920474
0.902441
0.892126
0.766061
0.783679
0.0588887
0.252325
0.321494
0.153339
0.0389959
0.0271176
0.198827
0.358086
0.470891
0.284478
0.273395
0.255776
0.196275
0.14803
0.14552
0.152727
0.232737
0.339521
0.478833
0.712898
0.873691
0.942317
0.943126
0.943142
0.943147
0.943154
0.943156
0.859089
0.937038
0.943115
0.907
0.384295
0.383164
0.612582
0.85444
0.624382
0.485082
0.54311
0.549477
0.559028
0.0368006
0.0358653
0.0277103
0.0270487
0.0269153
0.0268948
0.0298499
0.0426188
0.212825
0.503467
0.515881
0.509635
0.509635
0.438505
0.151559
0.0903343
0.0878171
0.0871816
0.0872088
0.0871707
0.0862517
0.529043
0.942842
0.943125
0.943149
0.943156
0.943156
0.943156
0.943155
0.943135
0.910308
0.383489
0.383125
0.383164
0.383198
0.457839
0.460131
0.478281
0.724871
0.710894
0.0721325
0.0310115
0.027053
0.0269154
0.0268948
0.0268924
0.0268948
0.0268948
0.0420928
0.461299
0.525065
0.515881
0.508555
0.49537
0.460614
0.198974
0.0903428
0.116177
0.224598
0.130245
0.0743851
0.16589
0.233586
0.542832
0.940617
0.943145
0.943156
0.943155
0.941138
0.943115
0.942815
0.617978
0.383164
0.383125
0.383372
0.383929
0.483718
0.868066
0.944211
0.944207
0.0800238
0.079982
0.079506
0.0514341
0.0269154
0.0268948
0.0268924
0.0269102
0.0271353
0.443188
0.551977
0.507728
0.297955
0.0513265
0.0202318
0.141697
0.221853
0.224598
0.223736
0.171092
0.0547383
0.114541
0.220576
0.386152
0.627019
0.938095
0.942994
0.942808
0.889962
0.912448
0.942793
0.917503
0.621635
0.404408
0.444831
0.643353
0.900785
0.944259
0.94423
0.944211
0.0325683
0.0330413
0.072776
0.0342983
0.0271262
0.0270117
0.0269176
0.0270271
0.253579
0.625338
0.570766
0.109369
0.0184484
0.0146164
0.0128255
0.0111144
0.0166603
0.0252566
0.0298368
0.0263189
0.00789773
0.0569407
0.239937
0.208993
0.170953
0.552106
0.939991
0.941582
0.8888
0.883724
0.926565
0.944272
0.944272
0.930307
0.94427
0.944269
0.944269
0.944268
0.944259
0.944226
0.0330504
0.0315733
0.0296811
0.0281744
0.0276348
0.0272226
0.0270346
0.0528858
0.612401
0.640185
0.297811
0.0360807
0.0284877
0.0359316
0.0373236
0.00841819
0.00764635
0.00760168
0.0075681
0.00755681
0.00756332
0.0104273
0.0580952
0.056983
0.0591623
0.291759
0.782864
0.942234
0.94338
0.942914
0.944272
0.944272
0.944272
0.944272
0.944272
0.94427
0.944268
0.943914
0.897674
0.898199
0.385999
0.314284
0.17737
0.0601458
0.0281697
0.0276348
0.0308807
0.533561
0.755341
0.642883
0.0967483
0.0425849
0.144573
0.547907
0.576362
0.178775
0.0077147
0.0075681
0.00755681
0.00754715
0.00755538
0.00756332
0.0230453
0.137826
0.131414
0.261903
0.422561
0.778266
0.944179
0.94427
0.944272
0.944272
0.944272
0.944272
0.944267
0.944267
0.94426
0.918658
0.834297
0.834306
0.8978
0.897797
0.872548
0.673125
0.250508
0.198828
0.620696
0.817483
0.780509
0.350075
0.0179781
0.0765734
0.719477
0.906615
0.907794
0.732554
0.187793
0.00770408
0.00755032
0.00755032
0.00755032
0.0124128
0.192745
0.30058
0.301082
0.270809
0.286259
0.583917
0.94271
0.944154
0.930722
0.94422
0.944272
0.941123
0.885695
0.937191
0.944033
0.913727
0.834322
0.834294
0.897797
0.8978
0.897795
0.897612
0.890306
0.885662
0.873729
0.842159
0.465189
0.0190165
0.00412857
0.0638454
0.663627
0.907794
0.909598
0.914263
0.810432
0.29292
0.119292
0.0788335
0.268525
0.425674
0.465911
0.326625
0.336058
0.283588
0.286193
0.468601
0.920624
0.944048
0.930722
0.944181
0.932592
0.876853
0.876853
0.876853
0.883031
0.918266
0.927681
0.834322
0.897789
0.897795
0.897618
0.895924
0.885101
0.864804
0.744628
0.323817
0.00120937
0.000420934
0.000833996
0.0165881
0.179486
0.672324
0.910522
0.917126
0.918984
0.908635
0.826682
0.809245
0.851869
0.775452
0.55728
0.550429
0.520845
0.333563
0.291916
0.312554
0.807672
0.94382
0.943346
0.94372
0.903479
0.876856
0.876942
0.904098
0.883892
0.8902
0.944269
0.912754
0.897682
0.897618
0.83425
0.467065
0.37866
0.278926
0.0131637
0.000122706
0.00017412
0.000182811
0.000341584
0.00108035
0.00132632
0.0270248
0.403898
0.793749
0.920146
0.922635
0.925472
0.827241
0.917452
0.894492
0.897153
0.933972
0.932707
0.851428
0.470771
0.31725
0.53475
0.927234
0.944016
0.944028
0.938012
0.896996
0.944269
0.94427
0.918911
0.936431
0.944289
0.944271
0.896326
0.889163
0.557386
0.0171162
0.000854442
0.000134997
3.24745e-05
6.00697e-05
0.000163439
0.000178124
0.000105676
0.000180546
0.000376011
0.00171258
0.000612799
0.0534853
0.478051
0.841299
0.931181
0.938792
0.938809
0.938776
0.938805
0.938779
0.938661
0.938488
0.938013
0.539236
0.408796
0.809903
0.94403
0.944167
0.944278
0.944268
0.944269
0.944294
0.944311
0.944305
0.944308
0.938735
0.719935
0.364917
0.00813929
0.000181775
3.00788e-05
1.37662e-05
1.61008e-05
4.49744e-05
0.000647352
0.000230288
7.82938e-05
9.79958e-05
0.000174462
0.000899228
0.000581281
0.000196036
0.000195569
0.158249
0.509231
0.846935
0.938119
0.938798
0.938792
0.938776
0.93859
0.938508
0.93846
0.881466
0.388997
0.779385
0.944117
0.944278
0.944275
0.944273
0.944273
0.944277
0.944301
0.944314
0.94421
0.908699
0.0721265
0.00066163
6.36778e-05
1.48905e-05
1.17947e-05
1.19798e-05
1.37719e-05
0.00065174
0.000655507
0.000164845
7.22016e-05
7.82938e-05
0.000115622
0.000171387
0.000196036
0.000195377
0.000195627
0.000195374
0.000196263
0.215567
0.821253
0.938736
0.938776
0.811036
0.702451
0.850199
0.938021
0.797507
0.271965
0.766606
0.944152
0.944275
0.944291
0.944277
0.944275
0.944286
0.944294
0.944305
0.944293
0.908676
0.000136569
1.55967e-05
1.07159e-05
1.15445e-05
1.16875e-05
1.18296e-05
5.09687e-05
0.000572496
0.00065109
6.1189e-05
6.56111e-05
0.000140205
0.000430055
0.000236138
0.000450859
0.000307223
0.000195434
0.000196263
0.00020109
0.0269791
0.698343
0.937164
0.897807
0.292462
0.16753
0.278268
0.539233
0.381747
0.271965
0.536817
0.887643
0.944152
0.885509
0.652815
0.718462
0.935184
0.944291
0.944294
0.944294
0.916199
1.59115e-05
1.16671e-05
1.1662e-05
1.16743e-05
1.16685e-05
1.16876e-05
7.51216e-05
0.000415045
0.000334281
5.92282e-05
6.1189e-05
0.000107783
0.000915868
0.00130207
0.00159175
0.000488222
0.000321761
0.00189367
0.000202892
0.0517832
0.703282
0.933193
0.773249
0.170281
0.167439
0.16753
0.169623
0.180367
0.284671
0.448644
0.576284
0.693572
0.614807
0.607324
0.608125
0.822995
0.944251
0.944291
0.944294
0.899005
1.1667e-05
1.1662e-05
1.1662e-05
1.1662e-05
1.16849e-05
1.17425e-05
5.75656e-05
0.000204552
9.35583e-05
5.46639e-05
5.92282e-05
0.000226247
0.00176144
0.00176144
0.00105778
0.000447063
0.00229028
0.00272825
0.000216065
0.0261048
0.504067
0.62714
0.604703
0.187967
0.167439
0.167439
0.203293
0.471186
0.72032
0.832371
0.748196
0.60758
0.607324
0.607518
0.770181
0.944166
0.944254
0.94427
0.941285
0.898734
8.62366e-05
1.16704e-05
1.1662e-05
1.16852e-05
1.17425e-05
1.19221e-05
1.38027e-05
2.60306e-05
3.16923e-05
5.31934e-05
5.75598e-05
0.00036473
0.00145494
0.000589065
0.000440633
0.000464646
0.00247754
0.00274405
0.000875924
0.00091129
0.231066
0.392154
0.114717
0.165747
0.16657
0.246541
0.665314
0.879747
0.888715
0.888811
0.888775
0.849656
0.840234
0.867046
0.942643
0.944012
0.932121
0.944106
0.933492
0.898742
0.000834576
1.18198e-05
1.17074e-05
2.99086e-05
3.68555e-05
1.20955e-05
1.20669e-05
1.22788e-05
3.50144e-05
7.44107e-05
0.000153089
0.000366465
0.000211071
0.000343781
0.00044377
0.000231528
9.96707e-05
0.00138833
0.000926152
0.000965169
0.375518
0.414525
0.0550149
0.178022
0.447918
0.700548
0.888168
0.888715
0.88879
0.888775
0.888802
0.888775
0.888119
0.848278
0.934228
0.944159
0.94356
0.944161
0.944161
0.931132
0.00140923
1.52078e-05
1.22221e-05
5.00614e-05
5.5673e-05
5.5673e-05
5.41506e-05
2.91026e-05
2.90146e-05
8.38195e-05
0.000217791
0.000206652
0.000197379
0.000739489
0.000736112
7.98563e-05
8.26301e-05
0.00020417
0.00194163
0.170565
0.677113
0.364655
0.0489096
0.177696
0.455329
0.494323
0.571377
0.604828
0.601736
0.556056
0.506259
0.546301
0.624295
0.766005
0.944159
0.94416
0.944161
0.944161
0.944161
0.944161
0.00142767
0.000891724
1.40346e-05
2.45827e-05
5.48836e-05
5.53488e-05
3.45309e-05
2.48697e-05
2.4926e-05
4.28708e-05
6.85003e-05
4.81172e-05
0.000433041
0.000739489
0.000117188
4.37884e-05
0.000154046
0.00187764
0.149336
0.714534
0.699379
0.0812676
0.048601
0.0650592
0.0827278
0.0588956
0.0607316
0.0637891
0.0635453
0.0559189
0.051518
0.0560816
0.141533
0.5867
0.898306
0.879653
0.944161
0.944161
0.944161
0.944161
0.00143019
0.00165979
0.000371056
2.66669e-05
2.70438e-05
2.73268e-05
2.48697e-05
2.48441e-05
2.4847e-05
2.48846e-05
2.50057e-05
2.51006e-05
0.000247684
0.000235983
3.60573e-05
4.04781e-05
0.000194349
0.00037239
0.19494
0.726468
0.726468
0.433961
0.0485361
0.0484954
0.0485101
0.0484738
0.0485203
0.0485264
0.0485091
0.0485462
0.0486243
0.0486659
0.0491286
0.122608
0.461859
0.806243
0.94416
0.944161
0.944161
0.944161
0.00132505
0.00166052
0.00166052
0.00107103
2.7597e-05
0.000156744
0.000101324
2.4847e-05
2.48462e-05
2.4847e-05
2.48846e-05
2.50057e-05
2.51006e-05
2.64936e-05
2.78591e-05
2.78591e-05
0.0001306
0.000932953
0.000919448
0.335662
0.726468
0.30979
0.0484953
0.0484994
0.0484825
0.0485207
0.0485308
0.0485091
0.0485022
0.0485091
0.0485464
0.0486244
0.0487142
0.0752424
0.426491
0.933817
0.94416
0.944161
0.944161
0.944161
0.000296515
0.00166052
0.00166052
0.00166052
0.00166052
0.00166048
0.00165981
0.00142382
0.000835772
0.000472058
0.000549099
0.00118887
0.00114799
0.000261536
2.78619e-05
2.78479e-05
2.80552e-05
0.000646922
0.000866041
0.0265088
0.352227
0.380682
0.0485359
0.0484955
0.0485323
0.0485046
0.0485162
0.0485022
0.0485022
0.0485022
0.0485322
0.0485616
0.164926
0.664686
0.944147
0.944161
0.944161
0.944161
0.944161
0.944161
0.000129165
0.000180136
0.000169219
0.000887356
0.00166048
0.00166014
0.00165984
0.00076218
0.000110486
0.000367712
0.00114399
0.00130683
0.00130698
0.000474268
3.78162e-05
7.92038e-05
0.000664332
0.000307067
0.000304069
0.0166156
0.334091
0.435214
0.149076
0.0485159
0.0484028
0.0485117
0.0485029
0.0485138
0.0485022
0.0741864
0.254236
0.649779
0.905395
0.944148
0.944161
0.944161
0.944161
0.944161
0.917352
0.935095
0.000226992
0.000176134
0.000141421
0.000142184
0.000233647
0.000387304
0.000375546
0.000138774
7.99421e-06
2.48941e-05
2.29616e-05
0.000422804
0.00130698
0.00130293
0.000154763
0.00089376
0.00048659
0.000181573
0.000188642
0.00389305
0.249231
0.433219
0.435214
0.273122
0.255978
0.360331
0.403885
0.417876
0.519485
0.60957
0.789208
0.924053
0.936946
0.939111
0.895449
0.831093
0.654132
0.439878
0.412284
0.473701
0.000234409
0.000611776
0.000612338
0.00061271
0.000557173
6.9273e-05
1.08427e-05
7.99421e-06
7.86722e-06
7.84725e-06
7.84544e-06
7.8782e-06
0.000417273
0.001293
0.00129586
0.00129086
0.000903406
0.000182187
0.000194804
0.00119039
0.0150748
0.189288
0.299293
0.252404
0.202118
0.259642
0.297787
0.322563
0.345551
0.343122
0.333801
0.326324
0.346838
0.309999
0.212331
0.0995551
0.000463131
0.00313808
0.00326146
0.00704097
0.000175483
0.000612355
0.00061271
0.00061271
0.00061271
0.000451134
1.72818e-05
7.86722e-06
7.84269e-06
7.84188e-06
7.84366e-06
7.84544e-06
1.06479e-05
0.000282635
0.000291145
0.000977947
0.000974467
0.000678524
0.000214959
0.000251124
0.00026929
0.00086349
0.00931376
0.00900485
0.0113843
0.00815824
0.0090447
0.0112996
0.00828646
0.00351006
0.00108201
0.000987861
0.000578737
0.000705564
0.000409746
0.000391021
0.000437993
0.000255416
0.000131757
0.000161166
1.78724e-05
0.000260093
0.000612355
0.00061271
0.000403576
0.000104403
8.17999e-06
7.84269e-06
7.84219e-06
7.84269e-06
7.84265e-06
3.09164e-05
0.000563603
0.000650284
0.000600875
0.000527198
0.000833367
0.000821575
0.00079134
0.000303395
0.00027862
0.00025466
0.000179752
7.68402e-05
3.44297e-05
6.09841e-05
6.37271e-05
3.54296e-05
2.12672e-05
1.98165e-05
2.62388e-05
5.21689e-05
0.000379529
0.00068636
0.000672019
0.000381549
0.000121796
0.000115166
0.000106315
0.000103672
1.71744e-05
3.974e-05
0.000244091
7.82503e-06
1.95659e-05
9.83899e-06
9.08869e-06
8.99354e-05
0.000165029
0.000225859
4.98171e-05
0.000479076
0.000650284
0.000650398
0.000650284
0.000505568
7.02973e-05
0.000190093
0.000590301
0.000589311
0.000581263
0.00037513
2.79807e-05
2.46669e-05
2.03244e-05
1.95154e-05
1.94268e-05
1.9408e-05
1.94507e-05
1.94585e-05
1.9461e-05
4.44038e-05
8.01414e-05
8.08169e-05
0.000113016
0.000331571
0.000436452
0.000438447
0.000147942
0.000103522
1.67666e-05
1.66434e-05
9.16747e-06
5.08457e-06
5.212e-06
0.00021076
0.000445739
0.000443216
0.000440073
0.000377417
0.000201766
0.000638599
0.000646883
0.000614109
0.000107336
2.98187e-05
2.69547e-05
2.41525e-05
3.73857e-05
0.000348118
0.000576026
0.000570444
0.000384171
3.09729e-05
1.95154e-05
1.94273e-05
1.93838e-05
1.93704e-05
1.94082e-05
1.9451e-05
1.94585e-05
2.93919e-05
3.35145e-05
8.65018e-05