/*--------------------------------*- C++ -*----------------------------------*\
  =========                 |
  \\      /  F ield         | OpenFOAM: The Open Source CFD Toolbox
   \\    /   O peration     | Website:  https://openfoam.org
    \\  /    A nd           | Version:  8
     \\/     M anipulation  |
\*---------------------------------------------------------------------------*/
FoamFile
{
    version     2.0;
    format      ascii;
    class       volVectorField;
    location    "2.5";
    object      U;
}
// * * * * * * * * * * * * * * * * * * * * * * * * * * * * * * * * * * * * * //

dimensions      [0 1 -1 0 0 0 0];

internalField   nonuniform List<vector> 
9150
(
(0.00505723 -0.0776675 0)
(0.0129658 -0.0974148 0)
(0.010817 -0.10402 0)
(0.00810366 -0.108109 0)
(0.00225723 -0.109278 0)
(-0.0021634 -0.109179 0)
(-0.00863649 -0.10768 0)
(-0.0108199 -0.103957 0)
(-0.0129905 -0.0974198 0)
(-0.00503351 -0.0776375 0)
(0.00606792 -0.0921037 0)
(0.00865511 -0.100553 0)
(0.00730085 -0.102184 0)
(0.00439883 -0.104264 0)
(0.00186272 -0.105378 0)
(-0.00231264 -0.105308 0)
(-0.00456047 -0.104091 0)
(-0.00724309 -0.102268 0)
(-0.00866604 -0.10057 0)
(-0.00606575 -0.0921036 0)
(0.00184532 -0.095464 0)
(0.00462924 -0.0990298 0)
(0.00375413 -0.100855 0)
(0.00331295 -0.101704 0)
(0.000751445 -0.102395 0)
(-0.000831533 -0.102395 0)
(-0.00310831 -0.101885 0)
(-0.00369609 -0.10095 0)
(-0.00463366 -0.09902 0)
(-0.00184423 -0.0954612 0)
(0.00180316 -0.0984491 0)
(0.00252364 -0.100427 0)
(0.0021475 -0.100364 0)
(0.00137493 -0.100655 0)
(0.00080577 -0.100836 0)
(-0.00056506 -0.100853 0)
(-0.00127254 -0.100784 0)
(-0.00217466 -0.100284 0)
(-0.00251991 -0.10042 0)
(-0.00180793 -0.0984493 0)
(0.000215053 -0.0995049 0)
(0.000757712 -0.0995628 0)
(0.000464949 -0.0999508 0)
(0.000581195 -0.0999662 0)
(0.000114468 -0.100116 0)
(-0.000164354 -0.100099 0)
(-0.000663072 -0.0998726 0)
(-0.000481423 -0.0999419 0)
(-0.000755169 -0.0995627 0)
(-0.000216485 -0.0995063 0)
(0.0780682 -0.196212 6.9766e-27)
(0.0501557 -0.185988 0)
(0.0324752 -0.178223 0)
(0.016778 -0.176152 0)
(0.0048527 -0.176767 0)
(-0.00461461 -0.176031 0)
(-0.0166826 -0.173902 0)
(-0.0322253 -0.177584 0)
(-0.0500438 -0.185495 0)
(-0.0779061 -0.195929 -6.94784e-27)
(0.058249 -0.145922 2.75466e-27)
(0.0480445 -0.146362 0)
(0.0281487 -0.156569 0)
(0.0206542 -0.157015 0)
(0.00484572 -0.15632 0)
(-0.0039108 -0.155878 0)
(-0.0199527 -0.15708 0)
(-0.0278823 -0.155975 0)
(-0.0479451 -0.146194 0)
(-0.0582594 -0.145874 -2.74801e-27)
(0.0477928 -0.121707 1.31061e-27)
(0.0415988 -0.131422 0)
(0.0291319 -0.134316 0)
(0.0171608 -0.138545 0)
(0.00421915 -0.140443 0)
(-0.00743434 -0.139979 0)
(-0.0190841 -0.136776 0)
(-0.0302612 -0.134258 0)
(-0.0420688 -0.131594 0)
(-0.048017 -0.121814 -1.17871e-27)
(0.0376354 -0.099762 1.56406e-27)
(0.0386204 -0.110329 0)
(0.0221487 -0.119801 0)
(0.0174541 -0.124243 0)
(0.00382302 -0.125266 0)
(-0.0044807 -0.125899 0)
(-0.0171057 -0.126021 0)
(-0.0218948 -0.120264 0)
(-0.0384532 -0.11043 0)
(-0.0376608 -0.0999209 -1.53882e-27)
(0.0255841 -0.0811721 -7.40606e-27)
(0.0287321 -0.100859 -8.34155e-27)
(0.0205209 -0.108253 -1.99161e-27)
(0.0120908 -0.113528 -1.88782e-27)
(0.00569626 -0.116142 -4.25628e-29)
(-0.00368768 -0.11656 -4.82266e-29)
(-0.0111856 -0.113688 -1.92662e-27)
(-0.0203566 -0.108064 -1.99696e-27)
(-0.028564 -0.100907 -8.31963e-27)
(-0.0256023 -0.0812069 -7.40795e-27)
(0.017523 -0.143392 0)
(0.0134797 -0.202311 0)
(0.0236983 -0.213527 0)
(0.0122756 -0.221104 0)
(0.0117988 -0.225407 0)
(-0.00391237 -0.226605 0)
(-0.00541592 -0.225111 0)
(-0.020725 -0.218744 0)
(-0.0121153 -0.204281 0)
(-0.0174558 -0.145401 0)
(0.0159238 -0.165365 0)
(0.00211432 -0.198232 0)
(0.0150936 -0.208214 0)
(0.00118444 -0.214045 0)
(0.00514935 -0.214258 0)
(-0.00737484 -0.214474 0)
(-0.00276582 -0.213135 0)
(-0.015861 -0.208205 0)
(-0.00227042 -0.199269 0)
(-0.0159422 -0.166404 0)
(0.0153623 -0.171388 0)
(-0.00269879 -0.202333 0)
(0.0122574 -0.2067 0)
(-0.000352825 -0.208317 0)
(0.00582327 -0.209089 0)
(-0.00370115 -0.209556 0)
(0.00212965 -0.210301 0)
(-0.0111054 -0.207939 0)
(0.00303929 -0.203052 0)
(-0.014917 -0.17222 0)
(0.0166453 -0.1919 0)
(-0.00584728 -0.202973 0)
(0.0107094 -0.208793 0)
(-0.0015534 -0.206593 0)
(0.00249593 -0.206747 0)
(-0.0028834 -0.207046 0)
(0.00159829 -0.205985 0)
(-0.0102927 -0.209485 0)
(0.00590716 -0.203489 0)
(-0.0165546 -0.192251 0)
(0.0312611 -0.218049 0)
(0.00721232 -0.20445 0)
(0.017326 -0.204988 0)
(0.0107119 -0.196582 0)
(0.00339009 -0.194263 0)
(-0.00124162 -0.194546 0)
(-0.00918656 -0.197792 0)
(-0.0167009 -0.205005 0)
(-0.0069547 -0.204063 0)
(-0.0310793 -0.218066 0)
(-0.0580354 0.0629751 0)
(-0.0880064 0.0529335 0)
(-0.1243 0.00611701 0)
(-0.119621 -0.0422689 0)
(-0.116962 -0.0439545 0)
(-0.113503 -0.035836 0)
(-0.125162 -0.016553 0)
(-0.13726 0.0128594 0)
(-0.145606 0.0127356 0)
(-0.148784 0.00746522 0)
(-0.0654989 0.0118656 0)
(-0.0618149 0.0263559 0)
(-0.0587846 0.0396477 0)
(-0.0413837 0.0218015 0)
(-0.0568797 0.0450103 0)
(-0.0693144 0.0463279 0)
(-0.0901543 0.0493027 0)
(-0.0995586 0.0456044 0)
(-0.103456 0.0197784 0)
(-0.11406 0.0124281 0)
(0.312764 0.0681709 0)
(0.287735 0.0749145 0)
(0.247418 0.033589 0)
(0.169172 -0.0211611 0)
(0.106152 -0.00916992 0)
(0.0524176 0.0462904 0)
(-0.0224707 0.0534493 0)
(-0.0561959 0.0203753 0)
(-0.0630586 0.0535423 0)
(-0.0649586 0.0648357 0)
(0.433925 0.045687 0)
(0.467976 0.0865519 0)
(0.480843 0.185474 0)
(0.419842 0.265055 0)
(0.354401 0.249866 0)
(0.297792 0.247557 0)
(0.195278 0.224371 0)
(0.19318 0.149086 0)
(0.116866 -0.0306822 0)
(0.0750954 3.42285e-05 0)
(0.393317 -0.00767961 0)
(0.464933 0.00411564 0)
(0.519495 0.0974279 0)
(0.646872 0.197592 0)
(0.831432 0.246503 0)
(0.941896 0.276552 0)
(0.962884 0.368389 0)
(0.911774 0.43379 0)
(0.818276 0.319062 0)
(0.564174 0.211932 0)
(0.026449 -0.223209 0)
(0.0698254 -0.241964 0)
(0.122003 -0.202537 0)
(0.168844 -0.16336 0)
(0.251894 -0.0681947 0)
(0.337353 -0.0100361 0)
(0.471832 0.0565563 0)
(0.708663 0.349375 0)
(0.791333 0.430556 0)
(0.894395 0.631804 0)
(-0.0890923 -0.208934 0)
(-0.0758759 -0.180285 0)
(-0.0789538 -0.172521 0)
(-0.0824147 -0.162 0)
(-0.0404184 -0.146916 0)
(-0.0112518 -0.167984 0)
(0.0278515 -0.15599 0)
(0.127894 -0.0532936 0)
(0.222075 -0.0149463 0)
(0.365539 0.192471 0)
(-0.23314 -0.252774 0)
(-0.22803 -0.19965 0)
(-0.223448 -0.175914 0)
(-0.208737 -0.171602 0)
(-0.190786 -0.180952 0)
(-0.172565 -0.199288 0)
(-0.145979 -0.215727 0)
(-0.0970971 -0.191875 0)
(-0.0374548 -0.130311 0)
(0.0247373 0.0434927 0)
(-0.286105 -0.23858 0)
(-0.274352 -0.226902 0)
(-0.248479 -0.230667 0)
(-0.235575 -0.227016 0)
(-0.236608 -0.219985 0)
(-0.251623 -0.23783 0)
(-0.266845 -0.259506 0)
(-0.286943 -0.246189 0)
(-0.29818 -0.20376 0)
(-0.285086 -0.00856673 0)
(-0.311342 -0.29415 0)
(-0.282954 -0.276495 0)
(-0.271013 -0.240416 0)
(-0.285628 -0.190788 0)
(-0.305448 -0.149616 0)
(-0.341108 -0.156346 0)
(-0.399278 -0.194675 0)
(-0.445593 -0.195486 0)
(-0.50449 -0.161994 0)
(-0.533463 -0.0533299 0)
(-0.436155 -0.302138 0)
(-0.443095 -0.284417 0)
(-0.447239 -0.228827 0)
(-0.451614 -0.157631 0)
(-0.452876 -0.100025 0)
(-0.472424 -0.073335 0)
(-0.518501 -0.0729834 0)
(-0.572896 -0.0751167 0)
(-0.647768 -0.0433491 0)
(-0.706111 0.0193281 0)
(-0.65229 -0.287911 0)
(-0.66058 -0.275589 0)
(-0.661257 -0.21899 0)
(-0.652044 -0.150909 0)
(-0.63236 -0.0930074 0)
(-0.611539 -0.0473113 0)
(-0.609755 -0.0051607 0)
(-0.625134 0.029915 0)
(-0.665757 0.12484 0)
(-0.732462 0.159551 0)
(-0.741169 -0.28924 0)
(-0.73889 -0.284776 0)
(-0.729647 -0.246513 0)
(-0.725374 -0.19165 0)
(-0.706115 -0.132815 0)
(-0.675193 -0.083774 0)
(-0.663336 -0.026447 0)
(-0.642344 0.0487136 0)
(-0.627397 0.131723 0)
(-0.60904 0.174453 0)
(-0.767054 -0.304831 0)
(-0.751833 -0.282914 0)
(-0.733495 -0.251492 0)
(-0.739927 -0.226778 0)
(-0.740312 -0.188638 0)
(-0.722707 -0.147785 0)
(-0.710812 -0.0966925 0)
(-0.687601 -0.00555803 0)
(-0.672427 0.0975698 0)
(-0.625416 0.141918 0)
(-0.233402 -0.241911 0)
(-0.342708 -0.183725 0)
(-0.491397 -0.268694 0)
(-0.672727 -0.290111 0)
(-0.755783 -0.224204 0)
(-0.761928 -0.156833 0)
(-0.726939 -0.0974995 0)
(-0.702226 -0.0197445 0)
(-0.694014 0.013243 0)
(-0.643816 0.0301 0)
(0.0753316 0.100333 0)
(0.0323328 0.0532076 0)
(-0.0185474 0.263067 0)
(-0.165148 0.357043 0)
(-0.295145 0.1338 0)
(-0.465039 0.0623143 0)
(-0.495959 -0.125824 0)
(-0.561606 -0.144616 0)
(-0.6275 -0.0953561 0)
(-0.602731 -0.0264819 0)
(-0.103585 0.0898365 0)
(-0.0647745 0.0524071 0)
(-0.0172712 0.0551935 0)
(0.0683274 0.0715704 0)
(0.151346 0.159393 0)
(0.161335 0.126386 0)
(0.139117 0.0519424 0)
(0.183636 0.118457 0)
(-0.0367228 0.176705 0)
(-0.454156 0.050606 0)
(-0.0725755 -0.0966939 0)
(0.0339684 -0.160946 0)
(0.159668 -0.0316186 0)
(0.182286 0.046088 0)
(0.127503 0.127383 0)
(0.141443 0.120682 0)
(0.0820177 -0.122089 0)
(0.129738 0.120768 0)
(0.0260155 0.814372 0)
(-0.40882 0.526948 0)
(0.0748164 -0.287765 0)
(0.124555 -0.351951 0)
(0.182028 -0.222939 0)
(0.339891 0.108391 0)
(0.27596 0.293628 0)
(0.415274 0.271112 0)
(0.00234426 0.0492343 0)
(0.11222 0.430027 0)
(-0.152538 1.3607 0)
(-0.13262 1.28438 0)
(-0.0208455 -0.42707 0)
(-0.0004314 -0.460496 0)
(0.0284548 -0.353052 0)
(0.0629029 -0.117154 0)
(0.00893194 0.201841 0)
(-0.0140298 0.450616 0)
(-0.180867 0.435442 0)
(-0.0707309 0.737337 0)
(-0.106952 1.28334 0)
(0.11159 1.25216 0)
(-0.147937 -0.413307 0)
(-0.155291 -0.416297 0)
(-0.182882 -0.278451 0)
(-0.183897 0.176005 0)
(-0.177646 0.35818 0)
(-0.144576 0.409625 0)
(-0.196567 0.363002 0)
(-0.159968 0.53324 0)
(-0.166006 0.70344 0)
(0.050384 0.667307 0)
(-0.133838 -0.438863 0)
(-0.171923 -0.35949 0)
(-0.197979 -0.219066 0)
(-0.146921 -0.0978262 0)
(-0.0968684 0.264711 0)
(-0.0407292 0.415867 0)
(-0.0493525 0.519695 0)
(-0.0542311 0.578571 0)
(-0.0255728 0.55267 0)
(0.0688898 0.409809 0)
(-0.114424 -0.309341 0)
(-0.226112 -0.330285 0)
(-0.241099 -0.189934 0)
(-0.173795 -0.0914146 0)
(-0.0314567 0.00525133 0)
(0.0503659 0.177753 0)
(0.25492 0.376591 0)
(0.315162 0.492456 0)
(0.485294 0.528834 0)
(0.477937 0.492133 0)
(-0.145071 -0.0816105 0)
(-0.219895 -0.161409 0)
(-0.216518 -0.304802 0)
(-0.202247 -0.386403 0)
(-0.146164 -0.185481 0)
(-0.0674271 -0.0400151 0)
(0.144701 0.0624436 0)
(0.249556 0.0940765 0)
(0.516288 0.1069 0)
(0.692704 0.135834 0)
(0.0809893 -0.0352521 0)
(0.0942309 -0.13346 0)
(0.0964357 -0.302471 0)
(0.134424 -0.419959 0)
(0.174626 -0.439821 0)
(0.21282 -0.379405 0)
(0.291216 -0.218095 0)
(0.339024 -0.176862 0)
(0.375249 -0.20037 0)
(0.422737 -0.232135 0)
(0.340951 -0.108934 0)
(0.357511 -0.108152 0)
(0.379045 -0.223257 0)
(0.352335 -0.415164 0)
(0.34369 -0.439711 0)
(0.331118 -0.345567 0)
(0.349721 -0.198796 0)
(0.38624 -0.158081 0)
(0.417015 -0.16989 0)
(0.44389 -0.224268 0)
(0.341326 -0.165158 0)
(0.38496 -0.16022 0)
(0.418534 -0.21428 0)
(0.403652 -0.324834 0)
(0.365402 -0.345447 0)
(0.352744 -0.30584 0)
(0.378004 -0.273666 0)
(0.420382 -0.259464 0)
(0.46234 -0.272139 0)
(0.49514 -0.297579 0)
(0.354206 -0.180985 0)
(0.369879 -0.219516 0)
(0.38831 -0.270422 0)
(0.39254 -0.322683 0)
(0.383938 -0.355192 0)
(0.382938 -0.35843 0)
(0.391987 -0.349992 0)
(0.414819 -0.333155 0)
(0.433213 -0.343966 0)
(0.456915 -0.363045 0)
(0.374264 -0.234456 0)
(0.376956 -0.259704 0)
(0.381954 -0.292621 0)
(0.38283 -0.332214 0)
(0.373107 -0.359821 0)
(0.367122 -0.358824 0)
(0.349652 -0.360139 0)
(0.343475 -0.358592 0)
(0.35915 -0.364108 0)
(0.389564 -0.404075 0)
(0.380921 -0.215571 0)
(0.380442 -0.253808 0)
(0.376947 -0.290444 0)
(0.361328 -0.305914 0)
(0.335443 -0.318877 0)
(0.308778 -0.299216 0)
(0.266779 -0.304285 0)
(0.278746 -0.323442 0)
(0.321515 -0.380089 0)
(0.435097 -0.596069 0)
(0.368713 -0.222014 0)
(0.364973 -0.254673 0)
(0.342458 -0.26161 0)
(0.298104 -0.217205 0)
(0.233795 -0.231291 0)
(0.177222 -0.219818 0)
(0.194566 -0.27026 0)
(0.263079 -0.446876 0)
(0.430686 -0.718782 0)
(0.64836 -1.11064 0)
(0.303542 -0.206453 0)
(0.241119 -0.202597 0)
(0.213439 -0.148489 0)
(0.158452 -0.0502326 0)
(0.079564 -0.115914 0)
(0.101801 -0.20429 0)
(0.216832 -0.465891 0)
(0.430772 -0.915616 0)
(0.605571 -1.20158 0)
(0.723349 -1.3156 0)
(0.215986 -0.071106 0)
(0.126368 -0.08634 0)
(0.0629555 -0.0756304 0)
(0.065206 0.114088 0)
(-0.00513137 -0.138971 0)
(0.152445 -0.489088 0)
(0.379482 -0.987987 0)
(0.537206 -1.29212 0)
(0.632641 -1.37077 0)
(0.693178 -1.39505 0)
(0.105773 0.0855301 0)
(0.0256861 0.0042912 0)
(0.0114387 -0.0540849 0)
(-0.0249254 0.115646 0)
(0.0352085 -0.216 0)
(0.25902 -1.03161 0)
(0.410557 -1.35887 0)
(0.500047 -1.46018 0)
(0.529871 -1.45053 0)
(0.489941 -1.36021 0)
(0.135034 0.159139 0)
(0.117905 0.158374 0)
(0.0645567 0.0397421 0)
(-0.0303901 0.0305194 0)
(0.112917 -0.66129 0)
(0.240607 -1.38024 0)
(0.321516 -1.50949 0)
(0.336519 -1.48697 0)
(0.295726 -1.2215 0)
(0.073943 -0.741177 0)
(0.132425 0.14091 0)
(0.10968 0.181619 0)
(0.139216 0.147843 0)
(0.0171316 0.0776679 0)
(0.165464 -0.917149 0)
(0.16248 -1.49801 0)
(0.213977 -1.51724 0)
(0.266158 -1.25952 0)
(0.111171 -0.70376 0)
(-0.087697 -0.648415 0)
(0.112589 0.105944 0)
(0.0968678 0.206884 0)
(0.123222 0.173986 0)
(0.0658961 0.106018 0)
(0.122532 -1.04706 0)
(0.158757 -1.54052 0)
(0.17859 -1.55717 0)
(0.153538 -1.03159 0)
(-0.0920016 -0.599089 0)
(-0.0827495 -0.57585 0)
(0.0290834 0.0916754 0)
(0.059322 0.203952 0)
(0.104531 0.177948 0)
(0.0309646 0.144553 0)
(0.0798695 -1.28206 0)
(0.0679736 -1.51975 0)
(0.0875298 -1.51982 0)
(0.0454435 -0.633933 0)
(-0.0954708 -0.475809 0)
(-0.0830859 -0.485484 0)
(-0.0636848 -0.0161365 0)
(-0.00417198 0.0638647 0)
(0.0318329 0.183786 0)
(0.022886 0.236471 0)
(0.0542533 -1.36331 0)
(0.0371118 -1.50135 0)
(0.0548479 -1.50268 0)
(0.022286 -0.553492 0)
(0.00318394 -0.41966 0)
(-0.0255838 -0.364881 0)
(-0.114848 -0.136479 0)
(-0.0383884 0.0176962 0)
(-0.00289242 0.139237 0)
(0.0117332 0.139399 0)
(0.0623616 -1.39753 0)
(0.0354061 -1.49406 0)
(0.0577191 -1.48625 0)
(0.0235021 -0.508941 0)
(0.0142993 -0.362136 0)
(-0.05799 -0.222999 0)
(-0.196069 -0.26893 0)
(-0.10221 -0.175021 0)
(0.00199182 0.0789998 0)
(0.00605538 0.124462 0)
(0.0740592 -1.39292 0)
(0.0477684 -1.49105 0)
(0.0711849 -1.48129 0)
(0.0642685 -0.466478 0)
(0.0032455 -0.350795 0)
(0.0322655 -0.0256755 0)
(-0.694191 -0.212996 0)
(-0.716905 -0.256848 0)
(-0.404789 -0.0457597 0)
(0.00122791 -0.0981196 0)
(0.0567356 -1.42868 0)
(0.0403796 -1.48817 0)
(0.0620455 -1.4645 0)
(0.0562047 -0.383122 0)
(-0.00743318 -0.314682 0)
(0.031489 0.132373 0)
(-0.619332 -0.516482 0)
(-0.780547 -0.762816 0)
(-0.410992 -1.1901 0)
(-0.0243689 -1.347 0)
(0.0164762 -1.46061 0)
(0.00181965 -1.47749 0)
(0.00467099 -1.44218 0)
(0.00204917 -0.376871 0)
(0.0626952 -0.250601 0)
(0.00869554 -0.0258705 0)
(0.053366 -0.17927 0)
(0.00992077 -0.382971 0)
(-0.025073 -0.644251 0)
(-0.00769186 -1.42878 0)
(0.00396878 -1.45856 0)
(-0.00512383 -1.46362 0)
(-0.00417757 -1.43965 0)
(-0.013368 -0.584435 0)
(0.104813 -0.246342 0)
(0.0510137 -0.0717331 0)
(0.0606572 -0.279932 0)
(0.0267083 -0.452542 0)
(0.0301 -0.814448 0)
(0.00169327 -1.44098 0)
(0.00665376 -1.45815 0)
(-0.0034273 -1.4586 0)
(0.00190663 -1.43615 0)
(-0.00885903 -0.65373 0)
(0.0652296 -0.323831 0)
(0.0857023 -0.0700419 0)
(0.031796 -0.221521 0)
(0.0162753 -0.412474 0)
(0.0160441 -0.792314 0)
(0.00148813 -1.43222 0)
(0.0050729 -1.45098 0)
(-0.00449361 -1.45173 0)
(-0.00233322 -1.42979 0)
(-0.0123312 -0.676979 0)
(0.0155643 -0.410154 0)
(0.0675533 -0.131066 0)
(0.00998085 -0.23437 0)
(0.0152753 -0.411328 0)
(0.0248023 -0.778156 0)
(0.00809488 -1.4251 0)
(0.00785559 -1.44309 0)
(-0.00314696 -1.444 0)
(0.00237247 -1.42005 0)
(-0.0187418 -0.707891 0)
(0.00149982 -0.451729 0)
(0.0065167 -0.247571 0)
(0.0199081 -0.278102 0)
(0.0132608 -0.430055 0)
(0.0336823 -0.760493 0)
(0.0071077 -1.41316 0)
(0.0063116 -1.4305 0)
(-0.00586255 -1.43118 0)
(-0.0113302 -1.3961 0)
(-0.039537 -0.70952 0)
(-0.0150866 -0.465581 0)
(-0.0208503 -0.34493 0)
(0.0268702 -0.305219 0)
(0.0203172 -0.44391 0)
(0.0388629 -0.749396 0)
(0.0144506 -1.37891 0)
(0.00715954 -1.41292 0)
(-0.00493311 -1.41358 0)
(-0.0091857 -1.34531 0)
(-0.0492127 -0.677076 0)
(-0.0424825 -0.459404 0)
(-0.0533969 -0.390753 0)
(0.0357508 -0.3257 0)
(0.0285199 -0.451013 0)
(0.0399085 -0.728417 0)
(0.00963889 -1.35076 0)
(0.0071175 -1.39569 0)
(-0.00742857 -1.396 0)
(-0.00813352 -1.29488 0)
(-0.0553448 -0.626762 0)
(-0.0560517 -0.443841 0)
(-0.0695745 -0.394464 0)
(0.0397293 -0.339665 0)
(0.0291813 -0.453161 0)
(0.0314437 -0.706794 0)
(0.00884481 -1.32553 0)
(0.00704502 -1.37818 0)
(-0.00536981 -1.37672 0)
(-0.00617455 -1.27412 0)
(-0.0215373 -0.604651 0)
(-0.0233587 -0.430762 0)
(-0.0217559 -0.382777 0)
(0.0489596 -0.336583 0)
(0.0324138 -0.441622 0)
(0.0196783 -0.68209 0)
(0.0123771 -1.31891 0)
(0.0080346 -1.35978 0)
(-0.00553415 -1.36217 0)
(-0.00370887 -1.27619 0)
(-0.0102738 -0.610081 0)
(-0.00165794 -0.465294 0)
(0.0194445 -0.389503 0)
(0.0635314 -0.299847 0)
(0.0354426 -0.40624 0)
(0.0226673 -0.653869 0)
(0.00490533 -1.31685 0)
(0.00496086 -1.3442 0)
(-0.00952886 -1.34411 0)
(-0.0113779 -1.26873 0)
(-0.0211422 -0.607331 0)
(-0.0244775 -0.503704 0)
(0.00716995 -0.451919 0)
(0.0666709 -0.234658 0)
(0.0389211 -0.348909 0)
(0.0270484 -0.618388 0)
(0.0120685 -1.28105 0)
(0.00873808 -1.32819 0)
(-0.0062573 -1.32791 0)
(-0.00716594 -1.244 0)
(-0.019026 -0.573274 0)
(-0.0344919 -0.507529 0)
(-0.038739 -0.479066 0)
(0.0739076 -0.182323 0)
(0.0463696 -0.311507 0)
(0.0265546 -0.589063 0)
(0.00742195 -1.26531 0)
(0.00763448 -1.30941 0)
(-0.00724521 -1.30997 0)
(-0.00642391 -1.24069 0)
(-0.00132662 -0.536253 0)
(-0.032766 -0.44757 0)
(-0.0832297 -0.430452 0)
(0.0313909 -0.150673 0)
(0.0161619 -0.287137 0)
(0.00517242 -0.572217 0)
(0.00521132 -1.26564 0)
(0.00772426 -1.29489 0)
(-0.00742664 -1.29525 0)
(-0.00396683 -1.26215 0)
(0.00510595 -0.529303 0)
(-0.00860906 -0.365667 0)
(-0.0625632 -0.329046 0)
(0.0212644 -0.141151 0)
(0.013887 -0.265864 0)
(0.00706076 -0.5564 0)
(0.0061341 -1.26882 0)
(0.00707666 -1.27935 0)
(-0.00765194 -1.27976 0)
(-0.00617394 -1.26765 0)
(-0.0011633 -0.547039 0)
(0.0136726 -0.345866 0)
(-0.0127956 -0.267856 0)
(0.0186648 -0.140591 0)
(0.00716106 -0.251943 0)
(0.0126896 -0.556408 0)
(0.00634104 -1.26283 0)
(0.00703694 -1.26578 0)
(-0.00763824 -1.26656 0)
(-0.00727405 -1.26538 0)
(-0.0105617 -0.579885 0)
(0.00965105 -0.333706 0)
(-0.0191016 -0.22894 0)
(0.0244882 -0.157265 0)
(0.00216996 -0.226414 0)
(0.00857839 -0.572492 0)
(0.00774808 -1.2511 0)
(0.00711885 -1.25267 0)
(-0.00726146 -1.25241 0)
(-0.00709749 -1.25235 0)
(-0.0158059 -0.590088 0)
(-0.00164895 -0.314037 0)
(-0.0289109 -0.20843 0)
(0.0351313 -0.160577 0)
(-0.000231923 -0.183495 0)
(0.0127053 -0.582759 0)
(0.00897308 -1.24031 0)
(0.00738174 -1.23822 0)
(-0.00683391 -1.23811 0)
(-0.00694952 -1.2414 0)
(-0.0145592 -0.597784 0)
(-0.00973457 -0.289517 0)
(-0.0351821 -0.196893 0)
(0.0428787 -0.154809 0)
(0.00518925 -0.143021 0)
(0.0166655 -0.602556 0)
(0.00920176 -1.22701 0)
(0.00767135 -1.22363 0)
(-0.00711337 -1.22413 0)
(-0.00790799 -1.22879 0)
(-0.0153564 -0.601546 0)
(-0.0123816 -0.256312 0)
(-0.0439739 -0.178526 0)
(0.00060557 -0.156484 0)
(-0.0144152 -0.126935 0)
(0.0190794 -0.646818 0)
(0.00993303 -1.21278 0)
(0.00756157 -1.20691 0)
(-0.00703438 -1.20753 0)
(-0.00906195 -1.21351 0)
(-0.0158133 -0.600097 0)
(-0.0186406 -0.202687 0)
(-0.0585683 -0.149796 0)
(-0.0274902 -0.129447 0)
(-0.0218413 -0.18756 0)
(0.0219811 -0.669275 0)
(0.00899397 -1.19947 0)
(0.00723293 -1.19105 0)
(-0.00781245 -1.19172 0)
(-0.00934498 -1.19977 0)
(-0.0200802 -0.598182 0)
(-0.0196911 -0.153149 0)
(-0.0584115 -0.0990905 0)
(0.00334752 -0.084264 0)
(0.008755 -0.226077 0)
(0.0202579 -0.673946 0)
(0.00956715 -1.18469 0)
(0.00728904 -1.17423 0)
(-0.00791647 -1.17471 0)
(-0.0106747 -1.18469 0)
(-0.0178697 -0.598224 0)
(-0.0139917 -0.133775 0)
(-0.0480985 -0.0435447 0)
(0.0296357 -0.0711702 0)
(0.0247474 -0.223439 0)
(0.020243 -0.67033 0)
(0.00980332 -1.16994 0)
(0.00746547 -1.15722 0)
(-0.00757651 -1.15725 0)
(-0.0102382 -1.17052 0)
(-0.0156949 -0.594074 0)
(-0.0265056 -0.0539485 0)
(-0.0788366 0.0316283 0)
(0.0309206 -0.0603037 0)
(0.0261726 -0.21395 0)
(0.0203171 -0.654423 0)
(0.0108551 -1.15445 0)
(0.00780952 -1.1397 0)
(-0.00797055 -1.14075 0)
(-0.0105844 -1.15573 0)
(-0.0161287 -0.614596 0)
(0.00346279 0.0098217 0)
(-0.0674054 0.0916888 0)
(0.035282 -0.0551942 0)
(0.0226955 -0.192928 0)
(0.01846 -0.64833 0)
(0.0112254 -1.13912 0)
(0.00784411 -1.12121 0)
(-0.00719028 -1.1213 0)
(-0.0109649 -1.13996 0)
(-0.0229184 -0.612443 0)
(-0.00662287 0.0834247 0)
(0.0070469 0.178522 0)
(0.0421597 -0.0517449 0)
(0.0155833 -0.156271 0)
(0.0182045 -0.649919 0)
(0.0107986 -1.12343 0)
(0.00790544 -1.10357 0)
(-0.00792393 -1.10479 0)
(-0.0101489 -1.12503 0)
(-0.0201852 -0.65703 0)
(0.0164425 -0.0605817 0)
(0.0563291 0.129043 0)
(0.0258372 -0.0198 0)
(-0.00289461 -0.135479 0)
(0.016332 -0.682707 0)
(0.0113885 -1.10724 0)
(0.00741585 -1.08545 0)
(-0.0074283 -1.08587 0)
(-0.0116039 -1.10838 0)
(-0.0164096 -0.663273 0)
(-0.00269734 -0.106463 0)
(0.0208725 0.103128 0)
(0.0295821 0.0339635 0)
(0.00512417 -0.116144 0)
(0.0218167 -0.691034 0)
(0.010859 -1.09069 0)
(0.00768646 -1.06764 0)
(-0.00761178 -1.06847 0)
(-0.0105766 -1.0919 0)
(-0.0226743 -0.658619 0)
(-0.02993 -0.0732905 0)
(-0.0309567 0.072298 0)
(-0.00240854 0.0698504 0)
(0.00213879 -0.132459 0)
(0.0216561 -0.701321 0)
(0.0117505 -1.07322 0)
(0.00754561 -1.04964 0)
(-0.00728078 -1.05051 0)
(-0.0117726 -1.0747 0)
(-0.0170033 -0.685643 0)
(0.00964069 -0.119546 0)
(0.023053 0.0447424 0)
(0.00506024 0.0903859 0)
(0.0176406 -0.153871 0)
(0.0258947 -0.7032 0)
(0.0109747 -1.05543 0)
(0.00730386 -1.03166 0)
(-0.00725734 -1.03188 0)
(-0.010752 -1.0568 0)
(-0.0202069 -0.69123 0)
(-0.0094283 -0.118996 0)
(-0.00296568 0.0316074 0)
(0.0263707 0.0671118 0)
(0.0357672 -0.196983 0)
(0.024689 -0.691578 0)
(0.0119831 -1.03689 0)
(0.00714203 -1.01402 0)
(-0.00704548 -1.01542 0)
(-0.0116986 -1.03849 0)
(-0.0223976 -0.703575 0)
(-0.015772 -0.136316 0)
(-0.0132143 -0.0114542 0)
(0.0614157 0.0447845 0)
(0.057028 -0.12566 0)
(0.0176433 -0.640114 0)
(0.0115293 -1.0179 0)
(0.00734936 -0.996767 0)
(-0.00706127 -0.996877 0)
(-0.0114296 -1.01965 0)
(-0.0218099 -0.709698 0)
(-0.00785554 -0.149803 0)
(-0.00547178 -0.0144637 0)
(0.0480209 -0.0174095 0)
(0.0335925 -0.0580181 0)
(0.0147187 -0.63067 0)
(0.0130747 -0.998559 0)
(0.00709043 -0.977393 0)
(-0.00730584 -0.978245 0)
(-0.0127141 -1.00017 0)
(-0.022681 -0.709473 0)
(-0.020211 -0.149878 0)
(-0.0211717 -0.00584551 0)
(-0.0130795 -0.0958051 0)
(-0.00400091 -0.0179694 0)
(0.0197063 -0.683209 0)
(0.0117158 -0.979898 0)
(0.00723654 -0.96037 0)
(-0.00701841 -0.960719 0)
(-0.0121073 -0.981108 0)
(-0.0229302 -0.708694 0)
(-0.0231122 -0.157715 0)
(-0.0173067 -0.00188279 0)
(-0.0745287 -0.0960859 0)
(-0.02385 -0.117172 0)
(0.0270467 -0.701965 0)
(0.014304 -0.959986 0)
(0.00782203 -0.939733 0)
(-0.00755137 -0.940553 0)
(-0.0140947 -0.960952 0)
(-0.02407 -0.69673 0)
(-0.0274267 -0.164462 0)
(-0.015549 -0.0130073 0)
(-0.0274741 -0.159926 0)
(0.0192556 -0.252823 0)
(0.0280181 -0.704273 0)
(0.0135551 -0.940317 0)
(0.00768361 -0.920273 0)
(-0.00759697 -0.920216 0)
(-0.0132812 -0.941014 0)
(-0.0239169 -0.681683 0)
(-0.0324921 -0.160179 0)
(-0.0215566 -0.0295318 0)
(0.0679798 -0.128369 0)
(0.0505607 -0.229312 0)
(0.02215 -0.674245 0)
(0.0154151 -0.919993 0)
(0.00804028 -0.898129 0)
(-0.00786967 -0.899647 0)
(-0.015129 -0.920921 0)
(-0.0246644 -0.674939 0)
(-0.0311126 -0.164352 0)
(-0.0218958 -0.0588722 0)
(0.07211 -0.0898969 0)
(0.046442 -0.158569 0)
(0.0223803 -0.653503 0)
(0.0150554 -0.899605 0)
(0.00818375 -0.877075 0)
(-0.00839474 -0.876691 0)
(-0.0151842 -0.900486 0)
(-0.023909 -0.672761 0)
(-0.0225167 -0.175447 0)
(-0.0120832 -0.0729493 0)
(0.038853 -0.0692834 0)
(0.0343839 -0.134091 0)
(0.0255434 -0.64463 0)
(0.0164008 -0.878281 0)
(0.00821654 -0.852711 0)
(-0.00849626 -0.854096 0)
(-0.0166838 -0.879333 0)
(-0.0250715 -0.660826 0)
(-0.0312046 -0.176659 0)
(-0.0244956 -0.0740056 0)
(0.0420709 -0.0700132 0)
(0.0286813 -0.123958 0)
(0.0250423 -0.639239 0)
(0.0164434 -0.856287 0)
(0.00861661 -0.830297 0)
(-0.00806627 -0.830006 0)
(-0.0162201 -0.857433 0)
(-0.0251202 -0.655633 0)
(-0.0342629 -0.171973 0)
(-0.0292505 -0.0719408 0)
(0.0776409 -0.0368906 0)
(0.0428173 -0.0734024 0)
(0.0263615 -0.626475 0)
(0.0175587 -0.833004 0)
(0.00853047 -0.805248 0)
(-0.00804162 -0.806633 0)
(-0.0170634 -0.834107 0)
(-0.0259844 -0.646483 0)
(-0.0364207 -0.170658 0)
(-0.0311738 -0.0735994 0)
(0.0619291 0.0271104 0)
(0.0273147 -0.0329272 0)
(0.0260593 -0.626176 0)
(0.0172531 -0.808454 0)
(0.00783682 -0.782088 0)
(-0.00758499 -0.782128 0)
(-0.017206 -0.809501 0)
(-0.025861 -0.634679 0)
(-0.0405687 -0.164789 0)
(-0.0400427 -0.0764486 0)
(0.0572548 0.0886956 0)
(0.0397359 0.00526484 0)
(0.0271507 -0.609801 0)
(0.0181356 -0.783171 0)
(0.00779052 -0.757774 0)
(-0.00771516 -0.75887 0)
(-0.0178596 -0.784139 0)
(-0.0265302 -0.612601 0)
(-0.0500853 -0.126276 0)
(-0.0648643 -0.044521 0)
(0.0462256 0.127395 0)
(0.0386616 0.0276797 0)
(0.0270058 -0.603024 0)
(0.0187741 -0.756705 0)
(0.00719013 -0.733543 0)
(-0.00739031 -0.733934 0)
(-0.018835 -0.757535 0)
(-0.0270821 -0.593225 0)
(-0.0510671 -0.0806637 0)
(-0.0693509 -0.00527026 0)
(0.0357304 0.145879 0)
(0.0379889 0.0395848 0)
(0.0266922 -0.589258 0)
(0.0187522 -0.729765 0)
(0.00651235 -0.708533 0)
(-0.00831435 -0.709418 0)
(-0.0199715 -0.730475 0)
(-0.0287753 -0.577138 0)
(-0.0469508 -0.0446045 0)
(-0.0585369 0.0331886 0)
(0.0267624 0.152723 0)
(0.0385823 0.0381109 0)
(0.0271072 -0.576319 0)
(0.0196785 -0.702034 0)
(0.00582591 -0.683431 0)
(-0.00884959 -0.683902 0)
(-0.021855 -0.702741 0)
(-0.0307956 -0.560817 0)
(-0.0452975 -0.0161792 0)
(-0.0470304 0.070336 0)
(0.0206371 0.149462 0)
(0.0416696 0.0297627 0)
(0.0275768 -0.557897 0)
(0.020011 -0.673174 0)
(0.00569722 -0.656733 0)
(-0.00935103 -0.657161 0)
(-0.0227949 -0.673888 0)
(-0.0327911 -0.547876 0)
(-0.0389486 -0.0129158 0)
(-0.0232193 0.0883587 0)
(0.0154621 0.132451 0)
(0.0385094 0.00606034 0)
(0.0313455 -0.538377 0)
(0.021152 -0.642931 0)
(0.00586772 -0.629946 0)
(-0.00876198 -0.629749 0)
(-0.0236861 -0.643718 0)
(-0.03832 -0.534591 0)
(-0.0345154 -0.041897 0)
(-4.27855e-05 0.0751477 0)
(0.00273423 0.118976 0)
(0.0219676 -0.0159931 0)
(0.0425764 -0.526798 0)
(0.0226595 -0.611406 0)
(0.00754795 -0.60125 0)
(-0.00525027 -0.601097 0)
(-0.0214641 -0.612204 0)
(-0.0431818 -0.532682 0)
(-0.0154628 -0.110408 0)
(-0.00241832 0.0367138 0)
(-0.00883417 0.086175 0)
(-0.0224661 -0.107696 0)
(0.0510352 -0.538982 0)
(0.0243918 -0.578772 0)
(0.0084925 -0.570834 0)
(-0.00459501 -0.573349 0)
(-0.0217956 -0.579662 0)
(-0.0458094 -0.545119 0)
(0.0264733 -0.1493 0)
(-0.0173863 0.0200864 0)
(0.0155876 0.0797938 0)
(0.0423125 -0.124691 0)
(0.0491493 -0.541827 0)
(0.0269811 -0.543864 0)
(0.00803458 -0.537827 0)
(-0.00691917 -0.54086 0)
(-0.0197569 -0.544776 0)
(-0.0463068 -0.544112 0)
(-0.0370778 -0.145322 0)
(-0.0299867 0.0422025 0)
(0.0427838 0.0612836 0)
(0.0572865 -0.162738 0)
(0.0346277 -0.498975 0)
(0.00678794 -0.509479 0)
(-0.0109737 -0.511965 0)
(-0.0287285 -0.512058 0)
(-0.0440087 -0.512176 0)
(-0.0721771 -0.494016 0)
(-0.0640784 -0.209513 0)
(-0.0444551 0.0147536 0)
(0.0531839 0.0731177 0)
(0.0508289 -0.171395 0)
(0.0602612 -0.454936 0)
(0.0418773 -0.467894 0)
(0.0207612 -0.472078 0)
(0.000161731 -0.471412 0)
(-0.0155609 -0.469662 0)
(-0.0537744 -0.456849 0)
(-0.0558584 -0.241785 0)
(-0.0569103 0.0203986 0)
(0.0371089 0.0569979 0)
(0.0651686 -0.209881 0)
(0.0657645 -0.403284 0)
(0.0235365 -0.420751 0)
(0.00207724 -0.429338 0)
(-0.0232608 -0.429035 0)
(-0.0412436 -0.425254 0)
(-0.065921 -0.40334 0)
(-0.0728891 -0.236246 0)
(-0.0646562 0.00101013 0)
(0.00846035 -0.00392522 0)
(0.0772087 -0.263516 0)
(0.064415 -0.356718 0)
(0.0468638 -0.380291 0)
(0.0293505 -0.386117 0)
(0.00467601 -0.386375 0)
(-0.0146846 -0.381422 0)
(-0.0583082 -0.366851 0)
(-0.069999 -0.285788 0)
(0.0277335 -0.0279492 0)
(0.0740203 -0.0795449 0)
(0.0702388 -0.283001 0)
(0.064362 -0.314849 0)
(0.0236118 -0.326525 0)
(0.00193206 -0.333881 0)
(-0.0266172 -0.335917 0)
(-0.0473376 -0.331837 0)
(-0.068233 -0.314186 0)
(-0.0759476 -0.288761 0)
(-0.0996653 -0.0780274 0)
(0.098366 -0.179978 0)
(0.0771391 -0.21957 0)
(0.072236 -0.260905 0)
(0.0464345 -0.283804 0)
(0.0273732 -0.288605 0)
(-0.000743193 -0.287444 0)
(-0.0208448 -0.280847 0)
(-0.0613396 -0.264141 0)
(-0.069862 -0.224333 0)
(-0.0903291 -0.179001 0)
(0.0587461 -0.121994 0)
(0.0505493 -0.190289 0)
(0.0431565 -0.23183 0)
(0.0161419 -0.243703 0)
(0.00317911 -0.249647 0)
(-0.0190826 -0.250384 0)
(-0.0296568 -0.245502 0)
(-0.0457466 -0.228581 0)
(-0.0505276 -0.196735 0)
(-0.0601393 -0.122622 0)
(-0.162041 0.0219238 0)
(-0.175791 0.0228382 0)
(-0.187475 0.0114308 0)
(-0.192825 -0.00588412 0)
(-0.183592 -0.0171581 0)
(-0.175938 -0.0265359 0)
(-0.152504 -0.043761 0)
(-0.139721 -0.0542698 0)
(-0.145532 -0.0567194 0)
(-0.171039 -0.0364912 0)
(-0.21477 0.035573 0)
(-0.286562 0.118381 0)
(-0.345524 0.112362 0)
(-0.373302 0.0417772 0)
(-0.348868 -0.0148489 0)
(-0.315471 -0.0305821 0)
(-0.280131 -0.0258937 0)
(-0.249514 -0.0219082 0)
(-0.22743 -0.0214755 0)
(-0.210233 -0.0174123 0)
(-0.196833 0.00150553 0)
(-0.190838 0.00818781 0)
(-0.188657 0.00564525 0)
(-0.189971 -0.00764889 0)
(-0.191882 -0.00734939 0)
(-0.201888 0.00974602 0)
(-0.204809 0.0128472 0)
(-0.210456 0.0109575 0)
(-0.21944 0.00727577 0)
(-0.227036 0.00935749 0)
(-0.241832 0.0126923 0)
(-0.250554 0.00562577 0)
(-0.250255 -0.00220171 0)
(-0.237589 -0.0100809 0)
(-0.213917 -0.0178014 0)
(-0.185775 -0.025741 0)
(-0.154725 -0.0299424 0)
(-0.1177 -0.0330791 0)
(-0.0714581 -0.041182 0)
(-0.0261311 -0.0320664 0)
(-0.123781 0.0331973 0)
(-0.14583 0.0118557 0)
(-0.173092 0.0206505 0)
(-0.187119 0.00418141 0)
(-0.187412 -0.0100341 0)
(-0.192664 -0.0230412 0)
(-0.197465 -0.0198263 0)
(-0.241191 0.0398203 0)
(-0.379547 0.145967 0)
(-0.450533 0.175835 0)
(-0.493054 0.14415 0)
(-0.494115 0.0925467 0)
(-0.474561 0.0421301 0)
(-0.452997 -0.038313 0)
(-0.431727 -0.0671104 0)
(-0.41049 -0.0817469 0)
(-0.37914 -0.0923123 0)