/*--------------------------------*- C++ -*----------------------------------*\
  =========                 |
  \\      /  F ield         | OpenFOAM: The Open Source CFD Toolbox
   \\    /   O peration     | Website:  https://openfoam.org
    \\  /    A nd           | Version:  8
     \\/     M anipulation  |
\*---------------------------------------------------------------------------*/
FoamFile
{
    version     2.0;
    format      ascii;
    class       volScalarField;
    location    "0.65";
    object      p;
}
// * * * * * * * * * * * * * * * * * * * * * * * * * * * * * * * * * * * * * //

dimensions      [1 -1 -2 0 0 0 0];

internalField   nonuniform List<scalar> 
9150
(
-204.653
-205.635
-206.226
-206.719
-206.957
-206.951
-206.704
-206.206
-205.637
-204.654
-224.684
-225.204
-225.606
-225.938
-226.095
-226.107
-225.941
-225.609
-225.205
-224.684
-244.574
-244.864
-245.108
-245.327
-245.44
-245.447
-245.324
-245.105
-244.864
-244.574
-264.312
-264.492
-264.659
-264.816
-264.899
-264.898
-264.818
-264.658
-264.492
-264.312
-283.928
-284.118
-284.251
-284.378
-284.451
-284.443
-284.378
-284.251
-284.117
-283.928
-118.276
-119.374
-119.344
-118.791
-118.672
-118.671
-118.799
-119.335
-119.388
-118.294
-134.09
-134.785
-135.068
-135.14
-135.063
-135.071
-135.156
-135.08
-134.793
-134.094
-150.657
-151.401
-151.737
-152.076
-152.115
-152.118
-152.036
-151.719
-151.376
-150.64
-167.549
-168.639
-169.057
-169.699
-169.868
-169.864
-169.71
-169.065
-168.637
-167.549
-184.377
-186.499
-187.239
-187.976
-188.233
-188.227
-187.996
-187.25
-186.508
-184.385
-25.02
-26.4365
-28.2804
-29.2696
-30.0293
-30.0796
-29.3494
-28.3332
-26.515
-25.1425
-45.4951
-45.617
-46.5637
-46.8536
-47.2545
-47.2384
-46.8732
-46.5905
-45.682
-45.5615
-65.2032
-65.1563
-66.0854
-65.6871
-66.175
-66.1799
-65.7575
-66.1173
-65.1774
-65.2271
-87.9409
-85.3443
-86.4039
-84.8298
-85.1011
-85.0839
-84.8098
-86.378
-85.3456
-87.9411
-114.921
-104.496
-104.304
-102.547
-102.316
-102.331
-102.596
-104.345
-104.53
-114.947
43.699
141.299
300.498
489.025
668.627
755.236
688.907
509.564
314.261
171.112
6.01772
6.66675
7.48492
43.8373
207.006
334.667
308.033
207.995
106.243
51.2883
6.84992
6.74429
7.41325
10.0002
12.8242
87.6204
109.041
79.6139
36.2548
10.5481
6.37803
6.4242
6.45025
6.11934
0.501532
8.77789
27.1728
26.5265
13.1765
3.13926
6.21889
6.26653
6.50195
6.31121
0.342905
4.91246
-0.925111
10.3584
-0.0520921
12.51
5.97365
5.99577
7.12989
9.43675
18.8851
7.94887
-4.70564
-5.0772
-2.42789
-1.26025
5.75683
5.78385
8.30807
13.8893
27.3005
4.80449
-4.97791
-6.66952
-4.76495
-3.00309
5.59576
5.62272
10.6172
12.3096
17.9575
1.82284
-8.60303
-3.61192
-2.96202
-2.51218
5.41191
5.68281
10.4277
10.6012
22.7882
9.64478
-2.36951
-1.87224
-2.20895
-2.22294
5.05257
5.2973
4.89792
7.95403
14.6386
22.4592
3.17984
-0.801464
-2.27311
-2.01407
4.8417
4.84398
4.88293
3.50252
9.72985
20.8389
2.35819
-2.27202
-2.58177
-2.65596
4.65107
4.65548
4.66352
4.6383
12.0876
22.9903
-0.66821
-3.382
-3.20514
-3.16479
4.40919
4.42959
4.48168
5.02965
14.7183
20.5513
-3.41464
-3.50112
-3.25304
-3.18638
4.1479
4.16166
4.15245
4.26397
20.1134
13.7396
-3.38355
-3.25662
-3.08751
-3.09524
3.94521
3.95138
3.92749
3.84311
18.713
15.5872
-2.55738
-3.05458
-2.97481
-2.9955
3.78575
3.79649
3.79796
3.71462
16.7916
18.8866
-2.17392
-2.96793
-2.93959
-2.95714
3.64375
3.67371
3.72832
3.74132
19.3562
20.9338
-2.7443
-2.99687
-3.0331
-3.01066
3.46213
3.56881
3.73309
5.73562
25.2584
18.5829
-3.27712
-3.1878
-2.92641
-3.00977
3.35338
3.78283
4.07585
4.89836
19.8351
24.1084
-3.24792
-2.46522
-2.95722
-2.98977
2.85782
2.63671
2.48048
2.4758
36.3391
6.95073
-1.8446
-2.83966
-2.95912
-2.95874
2.41797
2.23775
2.03393
2.10728
3.17652
38.3994
-2.8792
-3.35467
-3.08586
-2.97038
2.42126
2.39791
2.44465
2.60077
3.67372
38.0035
-3.4035
-3.01476
-2.94802
-2.92518
2.40152
2.44641
2.54639
2.75741
3.89158
37.9646
-3.33025
-2.90436
-2.95192
-2.86591
2.33623
2.42219
2.58081
2.97525
4.53072
37.6571
-3.21381
-2.8342
-2.84939
-2.81081
2.16136
2.17396
2.16825
2.0383
37.3007
5.29926
-2.21164
-2.4346
-2.6238
-2.69183
2.01374
2.00367
1.97858
2.07113
6.11981
35.6991
-2.75043
-2.40669
-2.57637
-2.58104
1.88752
1.86257
1.80216
1.63371
41.7301
-0.732071
-2.55548
-2.50685
-2.54292
-2.58217
1.79064
1.7678
1.71065
1.47246
42.1831
-0.86288
-2.54139
-2.59925
-2.60553
-2.63978
1.72821
1.70247
1.63162
1.06082
40.5133
0.834589
-2.38966
-2.628
-2.68997
-2.71471
1.6957
1.68919
1.6912
1.62378
5.27039
35.7952
-2.86889
-2.76777
-2.78608
-2.77057
1.64791
1.64528
1.65358
1.77116
9.70384
31.7828
-2.95596
-2.86743
-2.86436
-2.82495
1.58753
1.5804
1.55796
1.38493
32.7766
8.0326
-2.84281
-2.9372
-2.91257
-2.87814
1.53798
1.54609
1.56936
1.51711
19.9905
21.1675
-2.92297
-2.98765
-2.98343
-2.97093
1.48081
1.51235
1.58007
1.79298
2.74978
38.2103
-3.22072
-3.13638
-3.09858
-3.07739
1.37544
1.4282
1.52736
1.85883
4.50023
37.0491
-3.43382
-3.23192
-3.15022
-3.11374
1.20296
1.21532
1.20119
1.08607
40.2159
0.228942
-3.03238
-3.07186
-3.06775
-3.04554
1.05381
1.05784
1.04592
0.988488
18.2282
22.5505
-2.95183
-2.97291
-2.99724
-3.00751
0.932348
0.948155
0.967933
0.97658
21.2892
20.6629
-2.86293
-2.8991
-2.91148
-2.96544
0.821126
0.838858
0.858599
0.863487
21.8655
21.5257
-2.80634
-2.83681
-2.89423
-2.92792
0.717794
0.732879
0.747073
0.743813
22.0199
22.4044
-2.80064
-2.79178
-2.88349
-2.91367
0.62394
0.634968
0.643183
0.631886
23.397
21.5731
-2.82284
-2.80907
-2.86928
-2.89054
0.544794
0.549857
0.556132
0.544983
23.1732
22.0626
-2.85286
-2.84311
-2.86666
-2.85485
0.489629
0.48863
0.494595
0.487394
22.8916
22.5675
-2.86387
-2.86085
-2.87678
-2.88261
0.463559
0.463562
0.471351
0.46144
23.019
22.9646
-2.85
-2.85066
-2.85167
-2.85356
0.444762
0.43846
0.454182
0.456948
23.4233
23.2116
-2.80716
-2.81921
-2.79854
-2.80234
0.427472
0.426246
0.449417
0.451299
23.8426
23.3863
-2.67174
-2.68741
-2.69223
-2.69759
0.394348
0.374663
0.298605
0.4008
24.7988
23.2072
-2.40201
-2.40786
-2.57651
-2.59226
0.367217
0.332928
0.240338
0.225893
25.7032
22.3698
-2.19365
-2.16853
-2.38323
-2.39734
0.363986
0.195255
0.0479441
-0.0089665
26.5958
21.5928
-2.10783
-2.24466
-2.19354
-2.21223
-0.120095
0.106865
-0.23736
0.899351
26.3218
23.0103
-2.00269
-2.02177
-2.03413
-2.09159
0.278889
0.440068
0.391808
1.59374
26.2418
24.3934
-2.08061
-2.05787
-2.10348
-2.1536
0.536371
0.799942
1.06738
1.26641
25.1021
25.1003
-2.23085
-2.22992
-2.25885
-2.28958
0.538333
0.743037
1.02821
0.964281
25.7667
24.767
-2.32078
-2.32626
-2.34357
-2.36353
0.522292
0.629423
0.731093
0.708886
25.3071
24.8615
-2.3709
-2.37411
-2.38154
-2.39153
0.391015
0.424604
0.455545
0.470849
25.1738
25.4607
-2.3975
-2.40311
-2.40802
-2.41418
0.275204
0.287732
0.297954
0.299613
25.1789
25.2012
-2.42665
-2.42677
-2.43062
-2.43572
0.175775
0.181331
0.185222
0.182294
25.4604
25.3619
-2.45756
-2.45804
-2.46053
-2.46621
0.0889618
0.0912917
0.0952962
0.0914883
25.2907
25.3067
-2.50819
-2.5051
-2.50782
-2.51535
0.0136247
0.0136927
0.0173958
0.012646
25.4571
25.5279
-2.58082
-2.5756
-2.58276
-2.59772
-0.0546186
-0.0541835
-0.0525898
-0.0556955
25.3786
25.3089
-2.70592
-2.68508
-2.70656
-2.73866
-0.116672
-0.116011
-0.114468
-0.117707
25.4523
25.5283
-2.86651
-2.83199
-2.87259
-2.92014
-0.174205
-0.173748
-0.172705
-0.175714
25.3507
25.4248
-2.95314
-2.92566
-2.96405
-3.03399
-0.228509
-0.22822
-0.226682
-0.228744
25.5442
25.6191
-2.85758
-2.82726
-2.87873
-2.96038
-0.280556
-0.280259
-0.279578
-0.283944
25.6418
25.6419
-2.60001
-2.59939
-2.64903
-2.72119
-0.330962
-0.330749
-0.32931
-0.331043
25.9888
25.9127
-2.27615
-2.28943
-2.33752
-2.40784
-0.380473
-0.380243
-0.379747
-0.38408
26.0882
25.9436
-1.95267
-1.97368
-2.02645
-2.0972
-0.429203
-0.429046
-0.427746
-0.429515
26.3874
26.224
-1.66937
-1.70237
-1.75387
-1.82325
-0.477625
-0.477493
-0.477204
-0.481435
26.3658
26.1742
-1.49222
-1.52363
-1.56711
-1.63564
-0.525524
-0.525458
-0.524401
-0.52705
26.5302
26.3043
-1.4703
-1.47753
-1.50218
-1.56836
-0.573199
-0.573156
-0.573094
-0.577904
26.3864
26.0614
-1.53137
-1.52605
-1.54931
-1.60833
-0.620376
-0.620347
-0.619434
-0.623462
26.4513
26.0863
-1.66701
-1.64512
-1.66867
-1.70974
-0.667379
-0.667371
-0.667449
-0.673358
26.1991
25.8303
-1.80826
-1.78765
-1.80949
-1.83404
-0.713943
-0.713874
-0.712915
-0.718124
26.1711
25.838
-1.93031
-1.91544
-1.93181
-1.94828
-0.760387
-0.760354
-0.760471
-0.767501
25.8915
25.6195
-2.02397
-2.01718
-2.02238
-2.03118
-0.80646
-0.806321
-0.805319
-0.811199
25.7935
25.6178
-2.08068
-2.07582
-2.07558
-2.07896
-0.852502
-0.852404
-0.85255
-0.860166
25.48
25.3912
-2.1079
-2.10269
-2.0997
-2.10005
-0.898236
-0.898024
-0.897218
-0.903639
25.3099
25.3009
-2.11586
-2.11004
-2.10769
-2.10722
-0.943996
-0.943833
-0.944067
-0.951355
24.953
24.9764
-2.11702
-2.11052
-2.10851
-2.10746
-0.989253
-0.989059
-0.988845
-0.996898
24.6887
24.7073
-2.11251
-2.10571
-2.1047
-2.10347
-1.03469
-1.03453
-1.03497
-1.04397
24.2531
24.244
-2.1105
-2.10108
-2.09973
-2.0983
-1.07977
-1.07948
-1.07949
-1.09148
23.8045
23.8
-2.10362
-2.0929
-2.09189
-2.09142
-1.12492
-1.12468
-1.12532
-1.13977
23.2397
23.2062
-2.10157
-2.08729
-2.08589
-2.08518
-1.16969
-1.16927
-1.16954
-1.1891
22.5506
22.5146
-2.09872
-2.08016
-2.07896
-2.07853
-1.21456
-1.21422
-1.21515
-1.23885
21.8022
21.7153
-2.09736
-2.07411
-2.07259
-2.0722
-1.259
-1.25844
-1.2591
-1.29034
20.7664
20.6679
-2.09756
-2.06705
-2.06579
-2.06576
-1.30351
-1.30303
-1.30443
-1.34013
19.7301
19.5653
-2.09678
-2.06169
-2.05989
-2.0598
-1.34752
-1.34664
-1.34782
-1.39151
18.1332
18.0751
-2.09891
-2.05568
-2.05371
-2.05391
-1.39157
-1.3907
-1.39277
-1.44029
16.6249
16.6724
-2.09867
-2.05119
-2.04836
-2.0484
-1.43521
-1.43407
-1.43628
-1.49301
14.5082
14.4844
-2.10176
-2.04533
-2.04252
-2.04286
-1.47879
-1.47779
-1.48119
-1.53801
12.5441
12.7167
-2.09979
-2.04283
-2.03806
-2.03781
-1.52197
-1.52166
-1.5231
-1.63226
9.69196
9.83381
-2.14453
-2.04064
-2.0341
-2.0323
-1.56651
-1.56626
-1.55875
-1.8842
7.47806
7.56387
-2.33077
-2.01491
-2.02719
-2.02666
-1.61194
-1.60951
-1.62596
-1.9791
4.80052
4.7481
-2.42513
-2.05266
-2.02594
-2.02646
-1.65604
-1.65451
-1.72331
-1.80077
3.05225
3.15064
-2.24343
-2.09501
-2.02137
-2.02093
-1.6994
-1.69935
-1.86082
-1.31729
1.0366
1.09404
-1.73923
-2.19293
-2.01786
-2.01526
-1.74447
-1.7465
-2.16482
-1.06551
0.125483
0.367554
-1.66865
-2.47913
-2.01628
-2.00991
-1.78714
-1.76778
-3.28508
-1.58148
-1.22107
-1.20979
-1.67836
-3.36269
-1.99408
-2.00274
-1.83392
-2.38379
-4.80231
-2.94692
-1.43455
-1.33084
-2.65422
-4.55547
-2.60969
-2.00031
-1.8666
-3.81124
-5.11258
-5.43363
-5.82046
-5.83999
-5.67081
-5.52935
-4.05832
-1.98214
-2.75048
-9.57292
-12.8035
-14.7005
-15.1716
-15.1409
-14.6875
-12.8038
-9.60321
-2.79877
90.6003
54.0032
44.4897
60.1999
64.267
57.1739
53.6831
52.1748
50.1839
45.8916
40.9181
34.2325
24.2488
18.0036
13.9558
12.6766
13.2169
11.3154
15.4444
15.7504
6.70536
9.93053
10.5535
10.3266
9.8411
7.57433
11.6923
13.9004
29.6491
47.065
62.4628
82.1833
112.818
153.749
200.985
255.689
328.154
407.884
473.405
518.942
10.8304
-2.80791
-4.04345
-3.19452
-3.16662
-3.60399
-3.41218
-2.67078
0.7704
-0.613423
-2.65627
-3.35816
-3.72186
-4.27017
-4.84349
-4.7633
-4.56066
-4.35725
-4.37787
-3.62271
-3.23362
0.834298
4.0705
4.59922
0.12077
-2.05146
-3.8723
-6.52197
-0.357167
12.4387
19.1227
30.5845
47.0509
70.9845
103.084
154.993
212.53
298.135
366.158
406.539
-2.32888
-3.57332
-3.93579
-3.83772
-3.61772
-3.44073
-3.22512
-2.81792
-2.43955
-2.1892
-2.1193
-2.184
-2.62355
-3.10867
-3.45715
-3.8451
-4.26674
-4.39874
-4.16907
-3.69892
-4.64275
12.8523
18.451
10.9228
8.70971
-2.51929
-2.50125
1.75232
9.94671
8.94413
2.92058
6.4062
18.563
35.5147
67.1438
92.518
110.859
150.225
194.22
228.466
-3.99199
-4.04969
-4.05341
-3.92998
-3.73432
-3.54171
-3.31546
-3.01918
-2.75382
-2.56208
-2.33757
-2.51579
-3.56463
-4.6617
-5.2619
-5.55912
-5.64009
-5.65889
-5.44888
-5.24173
-5.58592
-1.65547
4.88979
-2.15098
-5.68967
-5.94135
-5.23435
-4.73195
-4.6309
-5.31266
-5.26768
-5.33414
-4.58722
16.8582
23.3342
36.3458
50.5092
67.3804
87.3543
103.586
-3.60203
-3.823
-3.76496
-3.66048
-3.54031
-3.4034
-3.24086
-3.05339
-2.81097
-2.51204
-2.25386
-2.28828
-3.55577
-5.67995
-6.07343
-6.0076
-5.96251
-5.89207
-5.81726
-5.71076
-5.72457
-5.75749
-5.75562
-5.75734
-5.75873
-5.78936
-5.78615
-5.61816
-5.5362
-5.49347
-5.46203
-5.50426
-5.43157
-5.86296
3.15005
25.0117
27.8769
38.6919
49.772
58.617
-3.013
-3.6955
-3.6912
-3.64251
-3.57902
-3.50508
-3.4418
-3.39632
-3.28952
-3.05772
-1.65205
4.75385
8.37535
-4.05141
-5.86222
-5.99891
-6.00286
-5.93433
-5.81692
-5.70979
-5.65893
-5.72826
-5.75692
-5.76814
-5.76944
-5.76317
-5.71298
-5.64376
-5.60913
-5.56843
-5.53838
-5.52577
-5.5612
-5.56143
6.36502
21.2703
24.249
35.7316
42.8693
53.892
-3.24152
-3.60047
-3.60991
-3.6027
-3.58717
-3.59165
-3.61286
-3.66551
-3.74339
-3.8766
0.311796
2.98141
2.10996
-2.09936
-5.30511
-5.96828
-5.95183
-5.89696
-5.78473
-5.72012
-5.69274
-5.70411
-5.7253
-5.74061
-5.74819
-5.74468
-5.71795
-5.68607
-5.65344
-5.61083
-5.57993
-5.55333
-5.56214
-5.39241
0.758715
14.1907
21.681
34.7098
36.0666
40.0103
-2.71894
-2.78107
-3.61331
-3.62715
-3.60821
-3.63313
-3.68597
-3.76579
-3.82578
-3.72896
-0.641104
0.969783
0.0710396
-2.04775
-4.30725
-5.8609
-5.88224
-5.84619
-5.8023
-5.76711
-5.75677
-5.76617
-5.78027
-5.78758
-5.78523
-5.77762
-5.76163
-5.73974
-5.71227
-5.67551
-5.64765
-5.61081
-5.62454
-5.60243
-4.04938
3.01318
12.0163
17.1217
19.2244
21.7362
-2.83515
-2.93167
-3.63429
-3.65927
-3.63333
-3.65279
-3.693
-3.76462
-3.83718
-3.87856
-3.44003
-2.53341
-1.97099
-2.74333
-5.55781
-5.79745
-5.81064
-5.79544
-5.79151
-5.76191
-5.75344
-5.77511
-5.7862
-5.79486
-5.79945
-5.79877
-5.79163
-5.78319
-5.76458
-5.73911
-5.71705
-5.70321
-5.70137
-5.7453
-5.5071
-4.79262
1.26128
5.53401
7.80045
9.07256
-2.73855
-2.80857
-3.61884
-3.63281
-3.61932
-3.63234
-3.64487
-3.6726
-3.6957
-3.69573
-3.66512
-3.70816
-4.67727
-2.3178
-6.16627
-5.84455
-5.80283
-5.80203
-5.80176
-5.80317
-5.81221
-5.82908
-5.78283
-5.79642
-5.81844
-5.80955
-5.80507
-5.80132
-5.78889
-5.77273
-5.75159
-5.73911
-5.71836
-5.69986
-5.67858
-5.59176
-4.83562
-0.9592
0.947837
1.67499
-2.91442
-3.3223
-3.55654
-3.54416
-3.55178
-3.55553
-3.54963
-3.54733
-3.56083
-3.5645
-3.56587
-3.59624
-4.62743
6.88709
-1.7125
-5.98739
-5.84761
-5.83661
-5.83713
-5.84888
-5.86432
-5.87019
-5.8677
-5.86272
-5.82604
-5.84198
-5.81288
-5.81491
-5.80861
-5.79109
-5.76808
-5.74762
-5.72292
-5.70389
-5.70407
-5.65448
-5.89271
-6.01553
-2.40517
-2.83616
-3.26248
-3.35236
-3.4029
-3.42944
-3.4446
-3.44271
-3.44827
-3.42964
-3.44323
-3.43662
-3.4323
-3.39982
-3.65979
-3.46081
1.11987
-6.60857
-5.90968
-5.87344
-5.87166
-5.88799
-5.90949
-5.9195
-5.91342
-5.89596
-5.87964
-5.82392
-5.80779
-5.82304
-5.81995
-5.80518
-5.77648
-5.73206
-5.67452
-5.65374
-5.6469
-5.62943
-5.59403
-7.82056
-6.32578
-4.14171
-3.24028
-3.28043
-3.31776
-3.33518
-3.32548
-3.31777
-3.31657
-3.31199
-3.30274
-3.2864
-3.2991
-3.26151
-3.21309
-2.99949
-1.07246
-6.56682
-5.81476
-5.85841
-5.87462
-5.88979
-5.90697
-5.91518
-5.90748
-5.89908
-5.89595
-5.88494
-5.84721
-5.87092
-5.86132
-5.8368
-5.80501
-5.73264
-5.63531
-5.61604
-5.61411
-5.59184
-5.48618
-6.82213
-12.135
-8.09799
-3.11859
-3.15185
-3.18973
-3.20499
-3.20466
-3.20132
-3.19803
-3.20781
-3.18614
-3.20572
-3.16496
-3.12462
-3.05988
-2.63767
1.2091
-2.67819
-6.60408
-5.88465
-5.87876
-5.88494
-5.89281
-5.89941
-5.90181
-5.90738
-5.91599
-5.89931
-5.91849
-5.94649
-5.93242
-5.92904
-5.9398
-5.75198
-4.66864
-5.62763
-6.83386
-7.85402
-15.0145
-8.62578
-17.7699
-14.9913
-3.01956
-2.99899
-3.04244
-3.07553
-3.09787
-3.11719
-3.13241
-3.13693
-3.13776
-3.13186
-3.08396
-3.06583
-3.0757
-2.93013
-2.04639
-3.51915
-5.73123
-6.31062
-5.86325
-5.87453
-5.88116
-5.8894
-5.90258
-5.92167
-5.94466
-5.96198
-5.96752
-5.9688
-5.95579
-5.95286
-5.93487
-5.51476
2.81467
3.71444
-3.45181
-8.53551
-14.236
-19.9819
-18.1817
-17.2486
-2.9848
-2.92957
-2.96773
-3.00325
-3.04081
-3.07225
-3.09319
-3.10621
-3.11809
-3.06209
-3.08942
-3.07507
-3.0763
-3.07275
-2.79319
-3.24985
-4.8288
-6.85126
-6.06547
-5.87298
-5.87149
-5.87649
-5.88415
-5.89798
-5.91551
-5.93114
-5.93783
-5.94129
-5.9439
-5.95425
-5.96379
-5.47488
0.0762721
0.941417
-0.190923
-6.70406
-13.7608
-18.1785
-17.9753
-18.3243
-3.03731
-2.95746
-2.98367
-3.00648
-3.02661
-3.0461
-3.06351
-3.07545
-3.03947
-3.0438
-3.04259
-3.04242
-3.0412
-3.01928
-3.01002
-2.32715
-3.60599
-4.86398
-7.3153
-6.458
-5.86855
-5.8606
-5.87776
-5.88981
-5.89973
-5.90739
-5.92442
-5.93926
-5.953
-5.96076
-5.92692
-5.55586
-5.66361
-5.05099
-6.58899
-10.474
-16.2226
-19.0785
-20.1783
-19.1899
-3.0259
-3.01634
-3.04294
-3.03554
-3.02933
-3.03032
-3.03553
-3.03895
-3.00352
-3.02519
-3.01691
-3.01166
-3.00642
-2.99644
-3.01665
-2.98272
-2.44156
-3.71419
-5.2804
-7.4968
-7.99703
-6.22794
-5.8941
-5.9095
-5.9628
-5.96557
-5.97376
-5.97726
-5.99421
-6.00609
-5.98726
-6.02167
-6.05552
-6.11963
-6.30422
-7.01446
-13.9684
-16.6788
-18.8869
-17.2319
-3.00172
-3.03034
-3.03614
-3.0342
-3.02347
-3.01462
-3.00881
-3.00226
-2.99633
-2.98714
-2.9799
-2.97278
-2.96507
-2.95474
-2.94181
-2.93873
-3.01782
-2.07381
-3.29967
-4.68943
-5.92163
-8.09249
-7.78176
-6.089
-6.1177
-6.09874
-6.03697
-6.05495
-6.04033
-6.03822
-6.02988
-6.01855
-6.06936
-6.08109
-6.13165
-6.37842
-10.9556
-15.7989
-17.6673
-16.0292
-2.95599
-2.95849
-2.96412
-2.97469
-2.98686
-2.99334
-2.97178
-2.97405
-2.96382
-2.9565
-2.94793
-2.93877
-2.92913
-2.9191
-2.90872
-2.89392
-2.88571
-2.97479
-3.41538
-2.64881
-2.17975
-2.22617
-3.27905
-4.65904
-6.18586
-5.90877
-6.26302
-6.2278
-6.1661
-6.14823
-6.16695
-6.19466
-6.21982
-6.24739
-6.25397
-7.6469
-19.4459
-20.8862
-14.6543
-11.8743
-2.91633
-2.90121
-2.91112
-2.93026
-2.9556
-2.97458
-2.97141
-2.95681
-2.94048
-2.934
-2.91988
-2.90761
-2.89506
-2.88239
-2.86862
-2.85275
-2.83537
-2.82404
-2.82587
-2.92952
-2.70102
-1.755
-1.453
0.291906
0.931656
-3.51625
-6.56703
-5.181
-7.11782
-7.80936
-3.82665
-3.91424
-9.714
-14.43
-16.7053
-19.6863
-19.5264
-16.9315
-7.40851
-2.56481
-2.89949
-2.86376
-2.87502
-2.90201
-2.93609
-2.9739
-3.0086
-2.97696
-2.92816
-2.8998
-2.88428
-2.87219
-2.85928
-2.84607
-2.83308
-2.82001
-2.80718
-2.79386
-2.75832
-2.74428
-2.81873
-3.66262
-2.40659
0.816718
1.18363
0.259582
19.7864
4.84994
8.80924
10.7995
9.5734
7.84017
4.31327
-0.0743843
-1.74273
-0.456165
2.18983
8.39453
16.2423
21.7951
-2.92725
-2.87385
-2.87687
-2.89492
-2.90422
-2.92609
-2.93737
-2.90145
-2.86766
-2.84463
-2.83514
-2.82604
-2.8166
-2.80747
-2.79831
-2.78714
-2.77276
-2.76097
-2.74145
-2.71488
-2.67589
-2.68352
-2.80887
-2.77027
-1.45039
3.8684
8.93485
12.7567
17.4914
15.3658
15.3719
16.1982
16.7765
17.2759
17.3668
18.3614
20.276
25.6122
29.476
31.9686
-2.8295
-2.8719
-2.90898
-2.90751
-2.87884
-2.83762
-2.81917
-2.76442
-2.78026
-2.77992
-2.77778
-2.77542
-2.77291
-2.77008
-2.76683
-2.76285
-2.75591
-2.7504
-2.73857
-2.72098
-2.70467
-2.67755
-2.68585
-2.72152
-3.08717
0.348936
10.91
17.8997
19.7494
26.6338
30.9004
19.6837
18.8594
18.9174
20.8131
22.7592
23.9491
25.649
26.1127
26.5953
-2.73804
-2.80294
-2.86012
-2.91519
-2.89599
-2.80981
-2.74826
-2.71538
-2.7248
-2.73071
-2.73158
-2.73305
-2.73499
-2.73725
-2.74102
-2.74531
-2.74887
-2.75094
-2.75051
-2.74607
-2.73613
-2.72065
-2.70382
-2.66351
-2.67457
-2.66402
-3.11068
1.9168
8.72387
12.9455
14.9081
25.3987
12.2975
15.3634
17.4519
19.1442
20.5693
20.1296
20.4927
20.8202
-2.65062
-2.78051
-2.82804
-2.83626
-2.81532
-2.78053
-2.74289
-2.72008
-2.71561
-2.71251
-2.70981
-2.70926
-2.71063
-2.7147
-2.72242
-2.73199
-2.74112
-2.75014
-2.75685
-2.75819
-2.7569
-2.74419
-2.72319
-2.70925
-2.69554
-2.68501
-2.6657
-2.79059
-2.35007
3.26569
5.4455
-1.49909
15.7381
2.58565
9.46581
11.5128
14.1064
15.4862
14.7182
15.7874
-2.63753
-2.71723
-2.75011
-2.75625
-2.7575
-2.75466
-2.74223
-2.73002
-2.722
-2.71456
-2.70836
-2.70463
-2.70333
-2.70657
-2.71419
-2.72407
-2.73352
-2.74376
-2.75223
-2.75608
-2.75376
-2.74157
-2.72246
-2.70508
-2.70023
-2.69845
-2.69585
-2.71328
-2.72049
-2.60399
4.16815
0.461183
8.49317
11.3189
7.34369
6.60971
6.6056
10.5523
10.2161
10.3734
-2.69295
-2.70847
-2.72106
-2.75278
-2.7608
-2.75768
-2.75183
-2.74239
-2.73411
-2.7262
-2.71885
-2.71316
-2.70973
-2.71039
-2.71522
-2.72299
-2.73225
-2.74198
-2.74837
-2.75135
-2.74821
-2.73645
-2.72059
-2.709
-2.70683
-2.70924
-2.71499
-2.72076
-2.72208
-2.88931
-0.627919
10.1805
4.99711
8.83067
8.23984
7.93548
7.13357
7.35253
9.57753
9.85861
-2.7305
-2.75444
-2.70122
-2.77488
-2.7828
-2.77686
-2.76865
-2.76047
-2.754
-2.74645
-2.7384
-2.73154
-2.72715
-2.72603
-2.72921
-2.73597
-2.74395
-2.75021
-2.75489
-2.76019
-2.75946
-2.75008
-2.73752
-2.72807
-2.72456
-2.72786
-2.73517
-2.74469
-2.75921
-2.80113
-3.33356
13.2551
7.93316
7.62399
7.59906
7.54839
7.48748
7.36496
5.85676
10.8567
-2.77502
-2.79012
-2.72693
-2.78983
-2.79996
-2.80197
-2.79802
-2.79224
-2.78562
-2.77818
-2.7706
-2.76334
-2.75782
-2.7557
-2.7581
-2.76436
-2.7729
-2.78311
-2.7943
-2.80198
-2.8016
-2.79403
-2.78315
-2.7683
-2.75708
-2.75503
-2.758
-2.75929
-2.75742
-2.74355
-2.76057
-2.86433
8.36455
6.37619
7.3733
7.46806
7.33949
7.4141
4.32784
12.9065
-2.82152
-2.83011
-2.82563
-2.80174
-2.83954
-2.84221
-2.8377
-2.83413
-2.83003
-2.82514
-2.82054
-2.81715
-2.81632
-2.81982
-2.82822
-2.84038
-2.85234
-2.86637
-2.86218
-2.87809
-2.88436
-2.87913
-2.86843
-2.85104
-2.82021
-2.829
-2.8294
-2.82516
-2.82063
-2.81473
-2.83441
-3.28673
-1.10763
2.57077
0.91671
3.14481
6.91172
7.03009
-1.50394
8.11781
-2.88221
-2.888
-2.89749
-2.84626
-2.89837
-2.89625
-2.88871
-2.88547
-2.88434
-2.88506
-2.8875
-2.89242
-2.90129
-2.91604
-2.93736
-2.96353
-2.99083
-3.01452
-3.02526
-3.026
-3.02315
-3.01444
-3.00395
-3.00028
-2.98441
-2.9708
-2.95937
-2.95445
-2.93942
-2.95775
-3.06627
-3.27812
-3.4593
-4.91456
-5.66029
-7.46889
-4.91898
2.2541
-11.7401
-8.80124
-2.98499
-2.98676
-3.00286
-2.91423
-2.95075
-2.94668
-2.94096
-2.94181
-2.94545
-2.95262
-2.96383
-2.98037
-3.00395
-3.03593
-3.07816
-3.12956
-3.17769
-3.21086
-3.2194
-3.2129
-3.19907
-3.1886
-3.16662
-3.16418
-3.14269
-3.12746
-3.11073
-3.09832
-3.09553
-3.14473
-3.30363
-3.56817
-3.65468
-6.74719
-7.73127
-8.70259
-8.62495
-10.1081
-7.10661
-5.4222
-3.08987
-3.10193
-3.11296
-2.98981
-2.99624
-2.99036
-2.98961
-2.99508
-3.00549
-3.02112
-3.04308
-3.07255
-3.11223
-3.16397
-3.22725
-3.29923
-3.36329
-3.41024
-3.4165
-3.38784
-3.35497
-3.32425
-3.29469
-3.27079
-3.24957
-3.23262
-3.21768
-3.19991
-3.17574
-3.2019
-3.3251
-3.48727
-3.65339
-3.58505
-0.586707
-0.998187
-0.657011
-0.253479
2.3168
3.12421
-3.1544
-3.1495
-3.17019
-3.03874
-3.02901
-3.02528
-3.02882
-3.03968
-3.0579
-3.08188
-3.11374
-3.15476
-3.20605
-3.26736
-3.33733
-3.41044
-3.47367
-3.51548
-3.52147
-3.49292
-3.46076
-3.42018
-3.38214
-3.35101
-3.32365
-3.29722
-3.27332
-3.25272
-3.24067
-3.23878
-3.24253
-3.24823
-3.19504
-3.10624
-2.93615
-2.84677
-1.20728
2.6106
4.30855
4.84656
-3.10428
-3.11431
-3.12038
-3.0231
-3.03781
-3.04765
-3.05909
-3.07765
-3.10249
-3.1329
-3.17069
-3.21686
-3.27097
-3.3324
-3.39916
-3.46485
-3.51968
-3.55521
-3.56786
-3.55702
-3.53006
-3.49439
-3.45718
-3.42377
-3.3892
-3.35556
-3.32094
-3.28379
-3.24378
-3.1986
-3.15292
-3.10467
-3.02313
-2.91885
-2.83033
-2.73275
-2.28968
-1.03409
1.31338
2.6197
-3.01302
-3.03159
-3.04482
-3.02262
-3.04569
-3.05954
-3.08048
-3.10772
-3.13876
-3.17367
-3.2147
-3.26245
-3.31553
-3.37292
-3.43296
-3.49067
-3.53986
-3.5743
-3.59044
-3.58886
-3.57348
-3.54104
-3.5033
-3.46663
-3.4278
-3.39058
-3.3514
-3.30493
-3.24767
-3.17402
-3.09338
-2.99596
-2.89759
-2.80162
-2.66663
-2.48027
-2.30038
-2.17883
-2.10225
-2.08947
-2.9621
-2.99073
-2.97534
-3.02831
-3.0469
-3.07117
-3.09953
-3.13248
-3.16792
-3.20536
-3.24692
-3.29364
-3.34388
-3.39623
-3.44943
-3.49971
-3.54217
-3.5725
-3.5887
-3.5881
-3.5734
-3.54323
-3.50684
-3.46897
-3.43072
-3.39161
-3.34748
-3.29436
-3.22753
-3.14382
-3.04941
-2.94549
-2.84122
-2.7498
-2.62506
-2.461
-2.3108
-2.17736
-2.11527
-2.09816
-2.96022
-2.9731
-3.00328
-3.03233
-3.05519
-3.08442
-3.11657
-3.15083
-3.18647
-3.22851
-3.26887
-3.3132
-3.35969
-3.4062
-3.45098
-3.49198
-3.52546
-3.54815
-3.5596
-3.56125
-3.54717
-3.52034
-3.48978
-3.45339
-3.41142
-3.37037
-3.32215
-3.26501
-3.19557
-3.12142
-3.04786
-2.9524
-2.85166
-2.73764
-2.64365
-2.55849
-2.44151
-2.32092
-2.26852
-2.22477
-2.94267
-2.97686
-3.0139
-3.03687
-3.06104
-3.09125
-3.12401
-3.15475
-3.19534
-3.23819
-3.27676
-3.31746
-3.35883
-3.39949
-3.4381
-3.4726
-3.50182
-3.52404
-3.53315
-3.53193
-3.52293
-3.49992
-3.46934
-3.43373
-3.39272
-3.34857
-3.29979
-3.24069
-3.17354
-3.10491
-3.03849
-2.96587
-2.87796
-2.80161
-2.70115
-2.63546
-2.58928
-2.49863
-2.42199
-2.39876
-2.92001
-2.97223
-2.99707
-3.0228
-3.05338
-3.08703
-3.12297
-3.15559
-3.1984
-3.23832
-3.27685
-3.31649
-3.35608
-3.39414
-3.42974
-3.46318
-3.49151
-3.50904
-3.51687
-3.5101
-3.49401
-3.46979
-3.43624
-3.39794
-3.35524
-3.30947
-3.25954
-3.20346
-3.15169
-3.09364
-3.03569
-2.97965
-2.91828
-2.84934
-2.78404
-2.71232
-2.69347
-2.65265
-2.58368
-2.55922
-2.90497
-2.95483
-2.97233
-2.99834
-3.03428
-3.07409
-3.11348
-3.15374
-3.19791
-3.23898
-3.2784
-3.31897
-3.35963
-3.39831
-3.43403
-3.46144
-3.47991
-3.48808
-3.48445
-3.4711
-3.44942
-3.42149
-3.38861
-3.35
-3.30815
-3.26457
-3.2157
-3.16479
-3.11992
-3.07434
-3.03137
-2.99062
-2.9492
-2.89971
-2.84541
-2.8044
-2.77011
-2.75188
-2.71182
-2.6884
-2.9014
-2.92029
-2.94116
-2.97237
-3.00967
-3.05062
-3.09518
-3.14401
-3.19065
-3.23584
-3.27761
-3.31675
-3.35606
-3.39384
-3.42538
-3.44645
-3.453
-3.4492
-3.43759
-3.41883
-3.39487
-3.36628
-3.33314
-3.29607
-3.25718
-3.21493
-3.16998
-3.1279
-3.09189
-3.05665
-3.02383
-2.99342
-2.96519
-2.93105
-2.88264
-2.8547
-2.82935
-2.81134
-2.78627
-2.79842
-2.86782
-2.88655
-2.90527
-2.93226
-2.96809
-3.01197
-3.06111
-3.11382
-3.16507
-3.21519
-3.26258
-3.30261
-3.33691
-3.3656
-3.38824
-3.40188
-3.40243
-3.39491
-3.38072
-3.36137
-3.33763
-3.30849
-3.27356
-3.23635
-3.19846
-3.15563
-3.11642
-3.08276
-3.05173
-3.02289
-2.99835
-2.98122
-2.96339
-2.94479
-2.91554
-2.88007
-2.87859
-2.82454
-2.81685
-2.8085
-2.81871
-2.84176
-2.85862
-2.88054
-2.91421
-2.9562
-3.0042
-3.05824
-3.11399
-3.16853
-3.21782
-3.2594
-3.29291
-3.3185
-3.3362
-3.34545
-3.3454
-3.33759
-3.32347
-3.30265
-3.27635
-3.24472
-3.20732
-3.16889
-3.1312
-3.09315
-3.0631
-3.0376
-3.01687
-2.99959
-2.98116
-2.96137
-2.94442
-2.92686
-2.90634
-2.89161
-2.87687
-2.83633
-2.8663
-2.84836
-2.70779
-2.74554
-2.7948
-2.8121
-2.8408
-2.87918
-2.92541
-2.97796
-3.0345
-3.09072
-3.14163
-3.18643
-3.22283
-3.25017
-3.26895
-3.2792
-3.28046
-3.27396
-3.259
-3.23566
-3.20586
-3.17108
-3.13314
-3.09668
-3.06136
-3.03495
-3.01385
-2.99942
-2.99329
-2.97273
-2.96226
-2.94644
-2.92698
-2.90938
-2.89782
-2.88713
-2.83451
-2.86592
-2.85924
-2.84989
-2.56113
-2.59281
-2.67899
-2.72982
-2.7562
-2.78976
-2.83556
-2.88934
-2.94543
-2.9997
-3.05067
-3.09687
-3.13534
-3.16565
-3.18609
-3.19787
-3.20141
-3.19574
-3.17981
-3.15631
-3.12521
-3.08927
-3.05391
-3.02182
-2.99752
-2.98568
-2.97646
-2.97064
-2.96429
-2.93635
-2.93035
-2.92593
-2.90582
-2.8977
-2.89174
-2.81666
-2.83375
-2.82355
-2.81573
-2.80881
-2.42912
-2.48721
-2.56659
-2.64342
-2.67523
-2.7035
-2.74826
-2.80243
-2.85706
-2.90993
-2.96044
-3.00588
-3.04417
-3.07407
-3.09522
-3.10733
-3.11348
-3.10828
-3.09342
-3.07135
-3.04443
-3.0127
-2.98307
-2.96512
-2.95594
-2.95227
-2.9508
-2.94968
-2.94572
-2.93284
-2.91998
-2.90917
-2.8871
-2.87178
-2.87083
-2.77359
-2.80389
-2.78526
-2.77181
-2.76353
-2.27381
-2.36261
-2.46981
-2.57113
-2.60432
-2.63242
-2.67751
-2.7278
-2.77801
-2.8274
-2.87454
-2.91679
-2.95326
-2.9829
-3.00559
-3.02047
-3.02622
-3.02378
-3.01466
-2.99748
-2.96869
-2.95615
-2.94117
-2.93367
-2.93408
-2.9389
-2.9447
-2.94991
-2.95149
-2.94186
-2.93109
-2.91002
-2.88487
-2.83775
-2.84062
-2.75147
-2.76686
-2.74141
-2.72373
-2.7131
-2.1716
-2.27687
-2.39812
-2.51807
-2.5524
-2.58919
-2.62966
-2.67238
-2.71689
-2.76199
-2.80527
-2.84515
-2.88093
-2.91091
-2.93428
-2.94955
-2.95647
-2.9566
-2.95228
-2.94344
-2.93139
-2.91979
-2.91341
-2.91782
-2.93431
-2.95421
-2.97076
-2.98906
-2.99974
-2.99595
-2.97914
-2.94437
-2.89254
-2.83052
-2.80532
-2.72797
-2.70328
-2.68701
-2.66359
-2.64863
-2.22729
-2.32149
-2.39896
-2.44445
-2.50151
-2.56304
-2.60153
-2.63628
-2.67603
-2.71741
-2.75673
-2.79379
-2.82765
-2.85674
-2.8793
-2.89458
-2.90425
-2.90963
-2.91024
-2.90698
-2.90186
-2.90285
-2.91022
-2.92742
-2.95471
-2.98985
-3.03415
-3.0693
-3.09166
-3.09299
-3.07538
-3.03536
-2.95092
-2.84571
-2.77681
-2.70285
-2.6189
-2.59911
-2.56658
-2.5477
-2.32524
-2.36875
-2.41559
-2.45826
-2.49993
-2.53271
-2.574
-2.62038
-2.66
-2.69041
-2.72182
-2.75423
-2.78169
-2.81182
-2.83803
-2.8556
-2.86996
-2.87588
-2.87478
-2.87416
-2.87642
-2.88213
-2.89582
-2.92204
-2.96309
-3.01793
-3.07414
-3.13108
-3.1733
-3.19482
-3.16034
-3.11094
-3.00273
-2.87
-2.72838
-2.60771
-2.48443
-2.43814
-2.41345
-2.38179
-2.38555
-2.41238
-2.43963
-2.47107
-2.50711
-2.54595
-2.56446
-2.61707
-2.65255
-2.67685
-2.70324
-2.72968
-2.75757
-2.78391
-2.80945
-2.83002
-2.84484
-2.85316
-2.85147
-2.84627
-2.84296
-2.8474
-2.86589
-2.89617
-2.93112
-2.96846
-3.01269
-3.06009
-3.08589
-3.06958
-3.02251
-2.9883
-2.95624
-2.71313
-2.49867
-2.40714
-2.27786
-2.23129
-2.20572
-2.16801
-2.40631
-2.42636
-2.45202
-2.48343
-2.51796
-2.55436
-2.58903
-2.62021
-2.6475
-2.67252
-2.69679
-2.72268
-2.74942
-2.77581
-2.79975
-2.81956
-2.8353
-2.84412
-2.83634
-2.82216
-2.81123
-2.80912
-2.81595
-2.82708
-2.84053
-2.85075
-2.8578
-2.85214
-2.83903
-2.8061
-2.81333
-2.67921
-2.49038
-2.32863
-2.1669
-2.11381
-2.02436
-1.98413
-1.96488
-1.93447
-2.42645
-2.44572
-2.47075
-2.50057
-2.53363
-2.56751
-2.60017
-2.63062
-2.65883
-2.68668
-2.71432
-2.74011
-2.76754
-2.7994
-2.83222
-2.84656
-2.86511
-2.86216
-2.83958
-2.80663
-2.77751
-2.75355
-2.74124
-2.73495
-2.72803
-2.71971
-2.71178
-2.69804
-2.69257
-2.67309
-2.62424
-2.30622
-2.04585
-1.86899
-1.81766
-1.81957
-1.77532
-1.75261
-1.7495
-1.73459
-2.44812
-2.46865
-2.49552