/*--------------------------------*- C++ -*----------------------------------*\
  =========                 |
  \\      /  F ield         | OpenFOAM: The Open Source CFD Toolbox
   \\    /   O peration     | Website:  https://openfoam.org
    \\  /    A nd           | Version:  8
     \\/     M anipulation  |
\*---------------------------------------------------------------------------*/
FoamFile
{
    version     2.0;
    format      ascii;
    class       volVectorField;
    location    "0.65";
    object      U;
}
// * * * * * * * * * * * * * * * * * * * * * * * * * * * * * * * * * * * * * //

dimensions      [0 1 -1 0 0 0 0];

internalField   nonuniform List<vector> 
9150
(
(0.00505547 -0.0778427 0)
(0.0129148 -0.0974916 0)
(0.0108228 -0.103943 0)
(0.00820952 -0.107926 0)
(0.00240973 -0.109028 0)
(-0.00190159 -0.109445 0)
(-0.00751337 -0.108197 0)
(-0.0108305 -0.103896 0)
(-0.0128726 -0.0975571 0)
(-0.0050859 -0.0778918 0)
(0.00604494 -0.0921566 0)
(0.00858477 -0.10053 0)
(0.00719311 -0.102257 0)
(0.00460246 -0.104003 0)
(0.00216694 -0.105234 0)
(-0.00203833 -0.105301 0)
(-0.00494091 -0.10376 0)
(-0.00715219 -0.102265 0)
(-0.00857026 -0.100517 0)
(-0.0060308 -0.0921597 0)
(0.00184115 -0.0955044 0)
(0.00460064 -0.0990307 0)
(0.00374007 -0.100845 0)
(0.00302663 -0.101969 0)
(0.000641967 -0.102464 0)
(-0.000935518 -0.10232 0)
(-0.00302046 -0.102 0)
(-0.00372462 -0.100872 0)
(-0.00459865 -0.0990194 0)
(-0.0018366 -0.0955016 0)
(0.0017972 -0.0984673 0)
(0.00251063 -0.100423 0)
(0.0021363 -0.100386 0)
(0.00150175 -0.100493 0)
(0.000801056 -0.100825 0)
(-0.000594337 -0.100848 0)
(-0.00129104 -0.100705 0)
(-0.00215753 -0.100346 0)
(-0.00251169 -0.100415 0)
(-0.00179741 -0.098466 0)
(0.000208233 -0.0995051 0)
(0.000746947 -0.0995626 0)
(0.000469492 -0.0999203 0)
(0.00052018 -0.100051 0)
(0.000115081 -0.100109 0)
(-0.000176798 -0.100092 0)
(-0.00062955 -0.0998757 0)
(-0.000484043 -0.0998875 0)
(-0.000748126 -0.0995607 0)
(-0.000208238 -0.0995059 0)
(0.077826 -0.195584 1.09926e-26)
(0.0498178 -0.185809 0)
(0.0323343 -0.177666 0)
(0.0169796 -0.174087 0)
(0.00494751 -0.175861 0)
(-0.00453469 -0.176231 0)
(-0.0167082 -0.175713 0)
(-0.0323246 -0.177767 0)
(-0.0498461 -0.185952 0)
(-0.0778046 -0.195659 -1.10761e-26)
(0.058428 -0.146048 3.38749e-27)
(0.0479781 -0.146397 0)
(0.0277888 -0.15624 0)
(0.0198214 -0.157861 0)
(0.00411203 -0.156226 0)
(-0.00444115 -0.156222 0)
(-0.0201343 -0.156889 0)
(-0.0278468 -0.156301 0)
(-0.0480576 -0.146415 0)
(-0.0583597 -0.145991 -3.39837e-27)
(0.0480091 -0.121716 1.63019e-27)
(0.0419052 -0.131608 0)
(0.0300994 -0.134359 0)
(0.0184248 -0.136971 0)
(0.00588505 -0.140155 0)
(-0.00595235 -0.140241 0)
(-0.0182399 -0.137687 0)
(-0.0296603 -0.134528 0)
(-0.041711 -0.131468 0)
(-0.047882 -0.121592 -1.73042e-27)
(0.0376109 -0.0997256 2.14304e-27)
(0.0383678 -0.110383 0)
(0.0217135 -0.119785 0)
(0.0173585 -0.125423 0)
(0.00473552 -0.125785 0)
(-0.00337254 -0.125835 0)
(-0.0168127 -0.125466 0)
(-0.0217648 -0.119663 0)
(-0.0383405 -0.110273 0)
(-0.037585 -0.0995951 -2.1701e-27)
(0.0255169 -0.0812093 -8.83913e-27)
(0.0287838 -0.100843 -1.03026e-26)
(0.0206231 -0.108248 -2.56603e-27)
(0.0116836 -0.11341 -2.32478e-27)
(0.00402534 -0.116249 -7.59518e-29)
(-0.00540077 -0.115856 -5.89565e-29)
(-0.0126689 -0.113276 -2.25975e-27)
(-0.0209732 -0.108425 -2.58502e-27)
(-0.0289633 -0.100807 -1.03119e-26)
(-0.0255321 -0.081175 -8.84695e-27)
(0.0170197 -0.143933 0)
(0.0117021 -0.204437 0)
(0.0208795 -0.216637 0)
(0.00660976 -0.223436 0)
(0.00545176 -0.226264 0)
(-0.0067816 -0.224852 0)
(-0.00711569 -0.223187 0)
(-0.021379 -0.216569 0)
(-0.0125634 -0.204075 0)
(-0.0174028 -0.144467 0)
(0.0157852 -0.166768 0)
(0.00177648 -0.199317 0)
(0.0151536 -0.208339 0)
(0.0021037 -0.213204 0)
(0.00749756 -0.214659 0)
(-0.00629676 -0.214152 0)
(-0.00160451 -0.212799 0)
(-0.0154897 -0.207974 0)
(-0.00205108 -0.198863 0)
(-0.0159921 -0.165883 0)
(0.0151647 -0.171805 0)
(-0.00332537 -0.202759 0)
(0.0112429 -0.207694 0)
(-0.00209271 -0.210169 0)
(0.00391569 -0.2097 0)
(-0.00551675 -0.209212 0)
(0.00128064 -0.208901 0)
(-0.0115428 -0.207249 0)
(0.00313728 -0.202472 0)
(-0.0153156 -0.171534 0)
(0.0167023 -0.192456 0)
(-0.00619771 -0.203404 0)
(0.0103192 -0.20947 0)
(-0.00135876 -0.206134 0)
(0.00287631 -0.20725 0)
(-0.00230551 -0.207124 0)
(0.00155589 -0.206608 0)
(-0.0103598 -0.20918 0)
(0.00616102 -0.203123 0)
(-0.0166501 -0.192214 0)
(0.0322228 -0.21785 0)
(0.00747235 -0.204292 0)
(0.016866 -0.205033 0)
(0.00979931 -0.197794 0)
(0.00156025 -0.194649 0)
(-0.0030163 -0.194298 0)
(-0.0107074 -0.196609 0)
(-0.0171761 -0.205076 0)
(-0.0076117 -0.204397 0)
(-0.0322923 -0.217829 0)
(-1.27238 -0.519402 0)
(-1.107 -0.51422 0)
(-0.972865 -0.5885 0)
(-0.640043 -0.61136 0)
(-0.374888 -0.749165 0)
(0.0503056 -0.982947 0)
(0.452134 -0.882498 0)
(0.890522 -0.692361 0)
(1.25096 -0.609603 0)
(1.45961 -0.560207 0)
(-0.865235 0.484396 0)
(-0.604999 -0.181288 0)
(-0.635799 -0.730727 0)
(-0.51757 -0.949183 0)
(-0.348361 -1.15812 0)
(-0.133526 -1.38065 0)
(0.0891623 -1.29051 0)
(0.39994 -0.842644 0)
(0.622702 -0.543977 0)
(0.828499 -0.33476 0)
(-0.273607 -0.701705 0)
(-0.516976 -0.462602 0)
(-0.323858 -0.40844 0)
(0.00054885 -0.811322 0)
(-0.0920576 -1.30759 0)
(-0.0249041 -1.64342 0)
(0.0153496 -1.6417 0)
(0.147596 -1.30961 0)
(0.234405 -0.95855 0)
(0.216024 -0.892892 0)
(-0.0470047 -0.350347 0)
(0.0424774 -0.366645 0)
(0.1755 -0.854961 0)
(0.146065 -0.867794 0)
(0.0868944 -1.17037 0)
(0.111276 -1.6961 0)
(0.0865782 -1.7673 0)
(0.125547 -1.46469 0)
(0.11082 -0.939704 0)
(0.0494408 -0.907115 0)
(-0.0516921 -0.589036 0)
(-0.0776759 -0.577864 0)
(0.102062 -0.972359 0)
(0.0639986 -0.952043 0)
(0.0900937 -1.17049 0)
(0.145696 -1.70429 0)
(0.142209 -1.78934 0)
(0.150276 -1.50706 0)
(0.0490798 -0.773168 0)
(-0.0137888 -0.862132 0)
(0.0453762 -0.655985 0)
(0.113533 -0.720257 0)
(0.128235 -0.818816 0)
(0.023891 -0.853991 0)
(0.0518914 -1.27705 0)
(0.15203 -1.77652 0)
(0.154819 -1.7843 0)
(0.0963882 -1.4062 0)
(-0.0854749 -0.571366 0)
(-0.0322718 -0.843887 0)
(0.0752244 -0.797481 0)
(0.086306 -0.823195 0)
(0.119552 -0.78853 0)
(0.0151497 -0.798055 0)
(0.0385197 -1.50856 0)
(0.131983 -1.83562 0)
(0.143503 -1.73734 0)
(-0.00282829 -0.934335 0)
(-0.0964377 -0.568881 0)
(-0.00717848 -0.856014 0)
(0.073949 -0.805193 0)
(0.0867933 -0.825457 0)
(0.106614 -0.749843 0)
(-0.00930051 -0.725137 0)
(0.0411723 -1.68659 0)
(0.0611476 -1.88646 0)
(0.0568729 -1.61342 0)
(-0.110247 -0.751175 0)
(-0.135563 -0.614639 0)
(-0.115489 -0.833142 0)
(0.138824 -0.644288 0)
(0.150739 -0.805391 0)
(0.11954 -0.677676 0)
(-0.0112975 -0.618437 0)
(0.0256354 -1.7373 0)
(0.00874199 -1.88146 0)
(0.0043724 -1.24831 0)
(-0.154864 -0.648461 0)
(-0.160117 -0.614349 0)
(-0.19707 -0.782413 0)
(0.340252 -0.565231 0)
(0.198292 -0.781813 0)
(0.142716 -0.512517 0)
(-0.0293679 -0.557258 0)
(0.00630592 -1.74591 0)
(-0.0174071 -1.85779 0)
(-0.00808689 -1.10958 0)
(-0.0962217 -0.471758 0)
(-0.146049 -0.567953 0)
(-0.189908 -0.74208 0)
(0.267932 -0.567959 0)
(0.11402 -0.506948 0)
(0.0846329 -0.115387 0)
(-0.00805556 -0.528314 0)
(0.012276 -1.73767 0)
(-0.0114664 -1.8409 0)
(0.025095 -1.19056 0)
(0.0241156 -0.338268 0)
(-0.0653063 -0.39974 0)
(-0.228215 -0.662199 0)
(0.171229 -0.513679 0)
(0.0310347 -0.240641 0)
(0.112843 -0.171575 0)
(0.0158024 -0.351827 0)
(0.0271825 -1.70185 0)
(0.00456431 -1.836 0)
(0.0446065 -1.39234 0)
(0.0629416 -0.249339 0)
(0.0963045 -0.12102 0)
(-0.0551502 -0.340544 0)
(0.140378 -0.35298 0)
(0.00944909 -0.154055 0)
(0.0526422 -0.219286 0)
(0.0105816 -0.332676 0)
(0.0247208 -1.69993 0)
(0.00922912 -1.82892 0)
(0.0266821 -1.48152 0)
(0.0153419 -0.195936 0)
(-2.83099e-05 -0.111074 0)
(-0.0127651 -0.310894 0)
(0.116547 -0.240241 0)
(0.0620821 -0.0842244 0)
(0.0461983 -0.196745 0)
(0.0101124 -0.303417 0)
(0.0184922 -1.72317 0)
(0.00783899 -1.81715 0)
(0.0185178 -1.5045 0)
(0.00193488 -0.120443 0)
(-0.0333178 -0.0423208 0)
(-0.0629786 -0.339135 0)
(0.115661 -0.229115 0)
(0.122836 -0.0333809 0)
(0.0561454 -0.0437215 0)
(-0.00540525 -0.287875 0)
(0.0127089 -1.72927 0)
(-0.00544141 -1.79995 0)
(0.00241645 -1.4754 0)
(-0.0110683 -0.0707917 0)
(-0.0160884 -0.0722856 0)
(-0.0450626 -0.197398 0)
(0.13575 -0.239105 0)
(0.15696 -0.042027 0)
(0.119741 0.109265 0)
(0.00601014 -0.219104 0)
(0.0162472 -1.72596 0)
(-0.00080749 -1.78328 0)
(0.0207159 -1.4734 0)
(0.0164683 -0.0398923 0)
(-0.00245884 -0.0501974 0)
(-0.0776253 -0.12209 0)
(0.0840472 -0.265766 0)
(0.0815017 -0.00478126 0)
(0.0835603 0.17096 0)
(0.00360478 -0.0786885 0)
(0.0180196 -1.71843 0)
(0.00513354 -1.77316 0)
(0.00507502 -1.60588 0)
(0.0453596 0.0194149 0)
(-0.0307732 0.0972305 0)
(-0.000898581 -0.132974 0)
(-0.176119 -0.225175 0)
(-0.180292 0.0327819 0)
(-0.192586 0.224704 0)
(-0.0195549 0.00748783 0)
(0.0190619 -1.71753 0)
(0.00405607 -1.76472 0)
(0.0166793 -1.66935 0)
(0.0227748 0.0911383 0)
(-0.0394437 0.103658 0)
(0.172357 -0.205893 0)
(-0.445972 0.0668581 0)
(-0.455877 0.153217 0)
(-0.468474 0.163078 0)
(-0.0462846 -0.768018 0)
(0.00894672 -1.72331 0)
(-0.00705054 -1.74749 0)
(-0.00154221 -1.63024 0)
(-0.00765032 0.156585 0)
(-0.0614577 -0.254705 0)
(0.0630104 -0.349036 0)
(-0.333331 0.044819 0)
(-0.381182 -0.0654689 0)
(-0.324388 -0.415237 0)
(0.000391869 -1.56971 0)
(0.0120744 -1.7193 0)
(-0.00193614 -1.73694 0)
(0.0336618 -1.59183 0)
(-0.0393514 0.240358 0)
(-0.0910563 -0.191943 0)
(-0.146048 -0.246547 0)
(-0.0184936 0.249377 0)
(-0.0285214 0.0947827 0)
(-0.0537525 -0.0950323 0)
(0.0059701 -1.58546 0)
(0.0112877 -1.71332 0)
(-0.00274166 -1.7319 0)
(0.0104169 -1.68567 0)
(-0.00328784 0.35067 0)
(0.0223136 0.107301 0)
(-0.0587826 -0.189712 0)
(0.000914012 0.287431 0)
(-0.0111887 -0.0853625 0)
(-0.000549993 -0.273977 0)
(-0.00110619 -1.61115 0)
(0.0065027 -1.71202 0)
(-0.00661427 -1.72508 0)
(-0.0114661 -1.67067 0)
(0.0108755 0.293672 0)
(0.142245 -0.0796931 0)
(-0.00697343 0.000310849 0)
(0.0574672 0.22236 0)
(0.0668842 0.0805838 0)
(0.0424052 -0.221632 0)
(0.00954325 -1.57961 0)
(0.0105291 -1.70449 0)
(-0.0030174 -1.71862 0)
(-0.00534589 -1.66394 0)
(-0.0104315 0.143625 0)
(-0.0687327 0.0761478 0)
(-0.0949474 0.0818189 0)
(0.0216427 0.0488016 0)
(0.0478612 0.0165495 0)
(0.0236914 -0.144487 0)
(-0.00428314 -1.54506 0)
(0.00593822 -1.69487 0)
(-0.00852728 -1.70778 0)
(-0.0148116 -1.62516 0)
(-0.055211 0.254067 0)
(-0.19689 0.142945 0)
(-0.196777 0.0434502 0)
(0.0346681 0.0739457 0)
(0.031477 0.062061 0)
(0.0170095 -0.124509 0)
(0.0117877 -1.58408 0)
(0.00852936 -1.68712 0)
(-0.00568717 -1.69254 0)
(0.000136243 -1.59086 0)
(-0.0236987 0.496439 0)
(-0.20675 0.231904 0)
(-0.246144 0.0364779 0)
(0.0385421 0.119396 0)
(0.0274849 0.0910177 0)
(-0.000673574 -0.0961102 0)
(0.00452619 -1.51962 0)
(0.0110513 -1.67625 0)
(-0.00401896 -1.67756 0)
(-0.00789378 -1.615 0)
(-0.0150164 0.768791 0)
(-0.145614 0.514944 0)
(-0.247709 0.139223 0)
(0.0451901 0.157705 0)
(0.029473 0.124584 0)
(-0.00326712 -0.0959972 0)
(0.0322675 -1.58756 0)
(0.0182387 -1.66468 0)
(0.0048395 -1.66608 0)
(0.0240074 -1.57647 0)
(0.025453 0.838665 0)
(-0.0601247 0.775944 0)
(-0.227733 0.238188 0)
(0.0698474 0.210181 0)
(0.069933 0.162391 0)
(0.0200466 -0.0949505 0)
(0.024792 -1.58765 0)
(0.0125576 -1.65289 0)
(-0.000665773 -1.66338 0)
(0.0163589 -1.57789 0)
(0.0330177 0.858938 0)
(0.012244 1.06456 0)
(-0.173076 0.53568 0)
(0.084458 0.256357 0)
(0.0828978 0.214767 0)
(0.0260071 -0.00600313 0)
(0.00655301 -1.56854 0)
(0.00391358 -1.6471 0)
(-0.00911766 -1.65889 0)
(-0.004825 -1.57724 0)
(0.00533507 0.801335 0)
(0.0726964 1.18082 0)
(-0.0414447 0.887617 0)
(0.0731288 0.306844 0)
(0.049992 0.260228 0)
(0.00712915 0.025985 0)
(-0.0258644 -1.52562 0)
(-0.00612731 -1.64323 0)
(-0.0184393 -1.64399 0)
(-0.0369084 -1.57762 0)
(-0.0308068 0.631826 0)
(0.0777793 1.19028 0)
(0.0134856 1.07237 0)
(0.0949994 0.38964 0)
(0.0907458 0.340528 0)
(0.0140678 0.0973644 0)
(0.00282454 -1.49197 0)
(0.0078734 -1.63528 0)
(-0.00609042 -1.62742 0)
(-0.00712618 -1.56599 0)
(-0.0271194 0.487002 0)
(0.0736551 1.18228 0)
(0.0226522 1.18892 0)
(0.109938 0.457722 0)
(0.0998401 0.410689 0)
(0.0220971 0.183724 0)
(0.0325258 -1.50322 0)
(0.0155954 -1.61652 0)
(0.00143293 -1.61917 0)
(0.0204053 -1.54661 0)
(-0.0130544 0.490375 0)
(0.038593 1.18398 0)
(-0.0192816 1.28489 0)
(0.116102 0.54968 0)
(0.101936 0.510908 0)
(0.0108731 0.269677 0)
(0.00193481 -1.50375 0)
(0.00531976 -1.60202 0)
(-0.00700561 -1.60779 0)
(-0.00739666 -1.53263 0)
(-0.020574 0.533806 0)
(-0.0151448 1.18302 0)
(-0.0302609 1.31327 0)
(0.115259 0.643321 0)
(0.0817127 0.591181 0)
(0.00915171 0.327969 0)
(0.00412291 -1.47749 0)
(0.00963768 -1.59179 0)
(-0.00507939 -1.59622 0)
(-0.00846731 -1.55333 0)
(-0.0157586 0.517346 0)
(-0.0214388 1.17898 0)
(-0.0270511 1.31066 0)
(0.133932 0.755105 0)
(0.112779 0.708153 0)
(0.0179186 0.45831 0)
(-0.000633284 -1.48491 0)
(0.00434829 -1.57932 0)
(-0.0100512 -1.5824 0)
(-0.0236278 -1.52803 0)
(-0.0411839 0.532689 0)
(-0.0217869 1.16633 0)
(-0.0153639 1.29273 0)
(0.166534 0.835514 0)
(0.131376 0.794784 0)
(0.0818427 0.573488 0)
(0.0211933 -1.47532 0)
(0.00692382 -1.56967 0)
(-0.00720583 -1.56912 0)
(-0.012079 -1.46271 0)
(-0.0475834 0.538319 0)
(-0.0196117 1.12299 0)
(0.0111603 1.25045 0)
(0.137062 0.893641 0)
(0.106064 0.871028 0)
(0.0858672 0.638395 0)
(0.016531 -1.26189 0)
(0.00975612 -1.5527 0)
(-0.00527324 -1.55439 0)
(-0.000128336 -1.39146 0)
(-0.0438454 0.571473 0)
(-0.0392258 1.04762 0)
(0.00290597 1.17047 0)
(0.0939655 0.982446 0)
(0.0639913 0.958734 0)
(0.0361123 0.683767 0)
(0.00168356 -1.25555 0)
(0.00746107 -1.53611 0)
(-0.00605386 -1.53849 0)
(-0.000838305 -1.36926 0)
(-0.0377556 0.5915 0)
(-0.0455736 1.01332 0)
(-0.0143819 1.10967 0)
(0.0662437 1.03923 0)
(0.0333723 1.00703 0)
(0.0102594 0.719711 0)
(-0.000512376 -1.24604 0)
(0.00782534 -1.525 0)
(-0.00761676 -1.52609 0)
(-0.00262775 -1.36324 0)
(-0.0163818 0.626348 0)
(-0.0340483 1.00315 0)
(-0.00986799 1.0663 0)
(0.0466362 1.08206 0)
(0.00383822 1.09522 0)
(0.00159856 0.722589 0)
(0.00489184 -1.24993 0)
(0.00811827 -1.51067 0)
(-0.00704482 -1.51236 0)
(-0.00923439 -1.36694 0)
(0.0118199 0.629075 0)
(-0.010848 1.01107 0)
(0.00645774 1.01732 0)
(-0.0133726 1.14415 0)
(-0.0525486 1.12296 0)
(0.00399061 0.685379 0)
(0.00748205 -1.25387 0)
(0.00760589 -1.49889 0)
(-0.00688343 -1.50104 0)
(-0.00897546 -1.37752 0)
(0.0219448 0.593924 0)
(0.0568237 1.03048 0)
(0.0310263 1.00151 0)
(-0.0488484 1.16239 0)
(-0.0777517 1.10031 0)
(0.0109004 0.56805 0)
(0.0057835 -1.24269 0)
(0.007457 -1.4874 0)
(-0.00769049 -1.48927 0)
(-0.00846887 -1.39212 0)
(0.0217365 0.446538 0)
(0.108829 1.01746 0)
(0.076848 1.01857 0)
(-0.0475352 1.15317 0)
(-0.0653342 1.07 0)
(0.0253751 0.493019 0)
(0.00850221 -1.20899 0)
(0.0067835 -1.47404 0)
(-0.00781146 -1.47552 0)
(-0.00814572 -1.4022 0)
(0.00773233 0.289179 0)
(0.107996 0.981986 0)
(0.117325 1.01744 0)
(-0.0514081 1.12256 0)
(-0.0702416 0.988423 0)
(0.0514008 0.365975 0)
(0.0113332 -1.17151 0)
(0.00749796 -1.46263 0)
(-0.00718679 -1.46487 0)
(-0.00495061 -1.41244 0)
(-0.0173301 0.172841 0)
(0.0873752 0.853161 0)
(0.136639 0.970901 0)
(-0.0497933 1.06851 0)
(-0.0646125 0.883519 0)
(0.0634384 0.232981 0)
(0.00327544 -1.09694 0)
(0.0073206 -1.44935 0)
(-0.00800011 -1.45013 0)
(-1.3525e-05 -1.41676 0)
(-0.0146375 0.136606 0)
(0.0248349 0.689535 0)
(0.113751 0.860211 0)
(-0.00412982 1.01164 0)
(0.0414219 0.847227 0)
(0.0580164 0.215324 0)
(0.00610871 -1.00221 0)
(0.00709015 -1.43609 0)
(-0.00718799 -1.43813 0)
(-0.00608598 -1.36826 0)
(-0.0164622 0.159441 0)
(-0.0074891 0.637571 0)
(0.00422484 0.775153 0)
(0.052225 0.886668 0)
(0.139772 0.774887 0)
(0.0320092 0.366357 0)
(-0.00464342 -0.983504 0)
(0.00760917 -1.42408 0)
(-0.00792033 -1.4249 0)
(-0.0116787 -1.32986 0)
(-0.0409325 0.16168 0)
(-0.00398577 0.662795 0)
(-0.0136639 0.735001 0)
(0.0816854 0.716149 0)
(0.126202 0.787605 0)
(0.0208676 0.509433 0)
(0.00127522 -1.0545 0)
(0.00809601 -1.41061 0)
(-0.00671923 -1.4115 0)
(-0.0224856 -1.2961 0)
(-0.0337793 -0.0611237 0)
(0.0430853 0.606658 0)
(0.0806015 0.651692 0)
(0.0563127 0.699035 0)
(0.0520311 0.868116 0)
(0.0363171 0.640989 0)
(-0.0287375 -1.0088 0)
(0.0081732 -1.39727 0)
(-0.00718084 -1.3984 0)
(0.0100835 -1.23045 0)
(-0.0329889 -0.0850584 0)
(0.00218059 0.459084 0)
(0.123096 0.561095 0)
(0.0044101 0.681399 0)
(0.0673825 0.818886 0)
(0.0599493 0.728086 0)
(0.0129909 -0.861633 0)
(0.00776494 -1.38375 0)
(-0.0074055 -1.38512 0)
(-0.021306 -1.14988 0)
(-0.0322298 0.0683047 0)
(0.0798869 0.285866 0)
(0.176198 0.440004 0)
(-0.0896213 0.603755 0)
(0.0239308 0.751686 0)
(-0.00224564 0.811954 0)
(-0.0168693 -1.12844 0)
(0.00724904 -1.37002 0)
(-0.00803365 -1.3703 0)
(-0.00389597 -1.21967 0)
(0.0504218 -0.38985 0)
(0.243756 -0.0473893 0)
(0.375336 0.18791 0)
(-0.288078 0.475047 0)
(-0.107167 0.703542 0)
(-0.0780045 0.848749 0)
(0.0405029 -1.03433 0)
(0.00733747 -1.35609 0)
(-0.00782518 -1.35711 0)
(-0.0112926 -1.23089 0)
(0.0454473 -0.632558 0)
(0.181286 -0.281854 0)
(0.274142 -0.0633915 0)
(-0.64244 0.00599319 0)
(-0.416677 0.174964 0)
(-0.153353 0.266825 0)
(0.00841367 -1.12339 0)
(0.00767591 -1.34189 0)
(-0.00780834 -1.34223 0)
(0.00258845 -1.26463 0)
(0.0183018 -0.73462 0)
(0.070834 -0.362552 0)
(0.128396 -0.154241 0)
(-0.35343 0.0356962 0)
(-0.286769 -0.0592051 0)
(-0.0998266 -0.400521 0)
(0.00954825 -1.2053 0)
(0.00744955 -1.32747 0)
(-0.00825495 -1.32777 0)
(-0.00841933 -1.2803 0)
(-0.00189537 -0.787006 0)
(0.0427541 -0.467002 0)
(0.0735857 -0.274706 0)
(-0.14267 -0.0700445 0)
(-0.100907 -0.174797 0)
(-0.031039 -0.528285 0)
(0.000893782 -1.26158 0)
(0.00762075 -1.31319 0)
(-0.00746027 -1.31374 0)
(-0.002432 -1.29215 0)
(-0.00238267 -0.852522 0)
(0.0427115 -0.530014 0)
(0.0727341 -0.344848 0)
(-0.064217 -0.134575 0)
(-0.0417393 -0.246911 0)
(0.00714793 -0.606482 0)
(0.00858832 -1.2718 0)
(0.00810605 -1.29811 0)
(-0.0082674 -1.29805 0)
(-0.00879791 -1.28949 0)
(-0.0178841 -0.887807 0)
(0.0461354 -0.610411 0)
(0.0829073 -0.440297 0)
(-0.0335533 -0.189015 0)
(-0.0221561 -0.301058 0)
(0.00545228 -0.663187 0)
(0.0035979 -1.27571 0)
(0.00739526 -1.28296 0)
(-0.00727658 -1.28388 0)
(-0.00397402 -1.28615 0)
(-0.00657139 -0.974764 0)
(0.0637785 -0.706265 0)
(0.110292 -0.547286 0)
(-0.0100016 -0.216189 0)
(-0.00825874 -0.323749 0)
(0.0154957 -0.686688 0)
(0.0101519 -1.2649 0)
(0.00822311 -1.26828 0)
(-0.00853491 -1.26846 0)
(-0.0096748 -1.27959 0)
(-0.0165962 -1.0453 0)
(0.0817233 -0.831492 0)
(0.151981 -0.68216 0)
(0.00036292 -0.232783 0)
(-0.00214916 -0.339232 0)
(0.0136744 -0.713021 0)
(0.00320421 -1.25499 0)
(0.00744149 -1.25245 0)
(-0.00724939 -1.25315 0)
(-0.00474308 -1.27358 0)
(-0.00448126 -1.1747 0)
(0.106681 -1.01462 0)
(0.203324 -0.863036 0)
(0.0112565 -0.235993 0)
(0.00483804 -0.342183 0)
(0.0190982 -0.723188 0)
(0.010859 -1.242 0)
(0.00824421 -1.23763 0)
(-0.00855439 -1.23791 0)
(-0.0104184 -1.26816 0)
(-0.00543845 -1.3088 0)
(0.127446 -1.22477 0)
(0.23558 -1.08958 0)
(0.0168118 -0.233372 0)
(0.00673274 -0.341648 0)
(0.0171185 -0.733487 0)
(0.00315452 -1.22908 0)
(0.00742541 -1.22179 0)
(-0.00727486 -1.2222 0)
(-0.00515517 -1.26204 0)
(0.00163845 -1.54776 0)
(0.121788 -1.48552 0)
(0.210583 -1.33103 0)
(0.0231785 -0.221479 0)
(0.0128969 -0.330076 0)
(0.0199916 -0.736194 0)
(0.0114724 -1.21529 0)
(0.00839035 -1.20631 0)
(-0.00867314 -1.20649 0)
(-0.0128324 -1.25281 0)
(-0.00438114 -1.68213 0)
(0.0712856 -1.59456 0)
(0.0945342 -1.4236 0)
(0.0247995 -0.209375 0)
(0.0107169 -0.323048 0)
(0.0187017 -0.741101 0)
(0.0034105 -1.20103 0)
(0.00742658 -1.19047 0)
(-0.00715807 -1.19087 0)
(-0.00383625 -1.23583 0)
(-0.00787808 -1.71863 0)
(-0.0435619 -1.58213 0)
(-0.092561 -1.35533 0)
(0.0290125 -0.191134 0)
(0.0175621 -0.305394 0)
(0.0216281 -0.738395 0)
(0.0126653 -1.1865 0)
(0.00884497 -1.17415 0)
(-0.00874928 -1.1742 0)
(-0.0127815 -1.21695 0)
(-0.0182912 -1.64398 0)
(-0.175815 -1.37034 0)
(-0.249571 -1.15876 0)
(0.0280606 -0.176004 0)
(0.0132585 -0.295844 0)
(0.0195266 -0.741349 0)
(0.00382921 -1.17129 0)
(0.00735997 -1.15736 0)
(-0.00699411 -1.15768 0)
(-0.00237677 -1.18493 0)
(-0.0257947 -1.39052 0)
(-0.217376 -1.13574 0)
(-0.294441 -1.01088 0)
(0.0308535 -0.15551 0)
(0.0198729 -0.276718 0)
(0.0227109 -0.736157 0)
(0.0135075 -1.15594 0)
(0.0090878 -1.14104 0)
(-0.00876837 -1.14103 0)
(-0.0126558 -1.16275 0)
(-0.0271851 -1.16179 0)
(-0.237155 -0.931863 0)
(-0.334315 -0.808365 0)
(0.0286392 -0.141668 0)
(0.0147945 -0.267324 0)
(0.0202753 -0.737978 0)
(0.00415086 -1.13995 0)
(0.00731795 -1.12298 0)
(-0.0070213 -1.12335 0)
(-0.00257977 -1.136 0)
(-0.0329352 -0.899855 0)
(-0.265804 -0.663228 0)
(-0.378629 -0.550035 0)
(0.0307297 -0.122074 0)
(0.0212159 -0.24909 0)
(0.0232619 -0.731608 0)
(0.0140575 -1.12396 0)
(0.00911045 -1.10702 0)
(-0.00884823 -1.10694 0)
(-0.0134357 -1.11728 0)
(-0.0388531 -0.594051 0)
(-0.259995 -0.388508 0)
(-0.381134 -0.306176 0)
(0.028247 -0.110521 0)
(0.0162552 -0.240708 0)
(0.0209933 -0.732404 0)
(0.00439188 -1.10739 0)
(0.00720834 -1.08799 0)
(-0.00706812 -1.08827 0)
(-0.00418976 -1.09853 0)
(-0.019757 -0.393426 0)
(-0.148264 -0.147419 0)
(-0.296956 -0.0995063 0)
(0.0300605 -0.0934802 0)
(0.0225833 -0.224229 0)
(0.0236564 -0.725125 0)
(0.0147053 -1.09063 0)
(0.00930473 -1.07184 0)
(-0.00909817 -1.07181 0)
(-0.0143252 -1.08276 0)
(-0.0162975 -0.258121 0)
(-0.100689 0.125119 0)
(-0.244277 0.1279 0)
(0.0275697 -0.0843546 0)
(0.0180317 -0.217101 0)
(0.0214649 -0.72507 0)
(0.0048285 -1.0734 0)
(0.00699498 -1.05219 0)
(-0.00696052 -1.05242 0)
(-0.00532278 -1.06658 0)
(-0.00750439 -0.260835 0)
(0.00480369 0.298658 0)
(-0.118779 0.319212 0)
(0.0292839 -0.0702749 0)
(0.0237698 -0.202341 0)
(0.0239283 -0.717098 0)
(0.0154434 -1.05602 0)
(0.00961757 -1.03532 0)
(-0.00956279 -1.03528 0)
(-0.0153293 -1.05108 0)
(-0.00998992 -0.310125 0)
(0.0526949 0.405032 0)
(-0.0212544 0.481228 0)
(0.0268673 -0.0630825 0)
(0.0196657 -0.19637 0)
(0.0215969 -0.716738 0)
(0.00540517 -1.03808 0)
(0.0067267 -1.0151 0)
(-0.00680864 -1.01527 0)
(-0.0057553 -1.03438 0)
(-0.0116105 -0.452681 0)
(0.0723029 0.383244 0)
(0.0465973 0.544893 0)
(0.0287778 -0.0518332 0)
(0.0249939 -0.183153 0)
(0.0243905 -0.708574 0)
(0.0162057 -1.02003 0)
(0.00991949 -0.997381 0)
(-0.00996556 -0.997368 0)
(-0.0162862 -1.01743 0)
(-0.0193127 -0.527417 0)
(0.0609207 0.344059 0)
(0.0673194 0.526551 0)
(0.0264907 -0.0461911 0)
(0.0211948 -0.178108 0)
(0.0218058 -0.708005 0)
(0.00608061 -1.00135 0)
(0.00643906 -0.976596 0)
(-0.00663133 -0.976579 0)
(-0.00624621 -0.999479 0)
(-0.020868 -0.607831 0)
(0.0428513 0.26012 0)
(0.0634728 0.484846 0)
(0.0286891 -0.0374197 0)
(0.0267143 -0.166128 0)
(0.025118 -0.699188 0)
(0.0170532 -0.982261 0)
(0.010196 -0.958079 0)
(-0.0102661 -0.958221 0)
(-0.0172562 -0.980983 0)
(-0.0271791 -0.637462 0)
(0.0136317 0.190409 0)
(0.0482522 0.413991 0)
(0.0267961 -0.0331621 0)
(0.0237145 -0.161882 0)
(0.0220369 -0.698011 0)
(0.00695515 -0.962666 0)
(0.00617509 -0.936632 0)
(-0.0063629 -0.936487 0)
(-0.00706627 -0.961537 0)
(-0.0236099 -0.664863 0)
(0.00278061 0.107096 0)
(0.0343689 0.339254 0)
(0.029237 -0.0265184 0)
(0.0291238 -0.150834 0)
(0.0259805 -0.687556 0)
(0.0180299 -0.942427 0)
(0.010448 -0.917561 0)
(-0.0105696 -0.917839 0)
(-0.0182413 -0.941626 0)
(-0.0275848 -0.670198 0)
(-0.0129614 0.0711996 0)
(0.0163057 0.284829 0)
(0.0278658 -0.023564 0)
(0.0270772 -0.147375 0)
(0.0224169 -0.684911 0)
(0.00810809 -0.921751 0)
(0.00589794 -0.89509 0)
(-0.00600136 -0.895053 0)
(-0.00815394 -0.921009 0)
(-0.0243849 -0.679563 0)
(-0.0133703 0.0217318 0)
(0.00631187 0.230044 0)
(0.0302669 -0.0186064 0)
(0.0320674 -0.136926 0)
(0.0269387 -0.672278 0)
(0.0191707 -0.900325 0)
(0.0108041 -0.875701 0)
(-0.0109625 -0.876014 0)
(-0.019341 -0.89977 0)
(-0.0276566 -0.674581 0)
(-0.0245702 0.0114355 0)
(-0.00541062 0.194107 0)
(0.0290184 -0.0167365 0)
(0.0304444 -0.134057 0)
(0.0230073 -0.668068 0)
(0.00938246 -0.878485 0)
(0.0055308 -0.851628 0)
(-0.00560119 -0.851848 0)
(-0.00942342 -0.87804 0)
(-0.0248577 -0.677118 0)
(-0.0211609 -0.0185523 0)
(-0.0087631 0.158817 0)
(0.0313196 -0.0131603 0)
(0.0352305 -0.124221 0)
(0.028058 -0.653167 0)
(0.0203543 -0.85586 0)
(0.0112677 -0.832112 0)
(-0.0114194 -0.832405 0)
(-0.0204956 -0.855552 0)
(-0.0285849 -0.666031 0)
(-0.0315594 -0.0177296 0)
(-0.0167151 0.138125 0)
(0.0301761 -0.0122794 0)
(0.033927 -0.121911 0)
(0.0237074 -0.647638 0)
(0.0108623 -0.832704 0)
(0.00517679 -0.805868 0)
(-0.00522401 -0.806267 0)
(-0.0108968 -0.83252 0)
(-0.025109 -0.664188 0)
(-0.0282794 -0.0383521 0)
(-0.017366 0.114614 0)
(0.0324077 -0.00971882 0)
(0.0386093 -0.112794 0)
(0.0293534 -0.630575 0)
(0.0215753 -0.808712 0)
(0.0117559 -0.786203 0)
(-0.0118292 -0.7865 0)
(-0.0216955 -0.808623 0)
(-0.0298648 -0.647895 0)
(-0.0368661 -0.0341757 0)
(-0.0232393 0.101309 0)
(0.0309749 -0.00977481 0)
(0.0377523 -0.111215 0)
(0.0246302 -0.623649 0)
(0.0125221 -0.784007 0)
(0.00476663 -0.757825 0)
(-0.0047765 -0.758139 0)
(-0.0125219 -0.783988 0)
(-0.0253014 -0.642817 0)
(-0.0347124 -0.0486697 0)
(-0.0222833 0.0843589 0)
(0.0331827 -0.00843121 0)
(0.042463 -0.103811 0)
(0.0310438 -0.604181 0)
(0.0229667 -0.758209 0)
(0.0123336 -0.737651 0)
(-0.0121989 -0.738023 0)
(-0.0230072 -0.758227 0)
(-0.0313006 -0.623649 0)
(-0.0415978 -0.0440798 0)
(-0.0270379 0.0746225 0)
(0.0306784 -0.0101411 0)
(0.0421001 -0.10458 0)
(0.0254594 -0.595308 0)
(0.0143937 -0.731595 0)
(0.00402538 -0.707272 0)
(-0.00394695 -0.707226 0)
(-0.0143024 -0.731558 0)
(-0.0259451 -0.615873 0)
(-0.0401231 -0.0562806 0)
(-0.0249072 0.060995 0)
(0.0314733 -0.0108686 0)
(0.0463422 -0.099866 0)
(0.0328396 -0.572031 0)
(0.024546 -0.703689 0)
(0.012741 -0.686615 0)
(-0.0125841 -0.687089 0)
(-0.0245567 -0.703629 0)
(-0.0331618 -0.591686 0)
(-0.0463732 -0.0536228 0)
(-0.0277219 0.0522775 0)
(0.0260212 -0.015969 0)
(0.0428172 -0.109797 0)
(0.0268003 -0.560618 0)
(0.0166258 -0.674865 0)
(0.00313823 -0.654131 0)
(-0.0031097 -0.653821 0)
(-0.0165963 -0.674686 0)
(-0.0271568 -0.579598 0)
(-0.0426802 -0.0713494 0)
(-0.022569 0.0382564 0)
(0.0244983 -0.0196376 0)
(0.0423615 -0.115469 0)
(0.0366711 -0.535914 0)
(0.026416 -0.644436 0)
(0.0132341 -0.632682 0)
(-0.0133619 -0.632998 0)
(-0.0266241 -0.644296 0)
(-0.0373841 -0.552301 0)
(-0.0450787 -0.0773775 0)
(-0.0205382 0.0283088 0)
(0.0221843 -0.0271271 0)
(0.0160586 -0.152404 0)
(0.0378845 -0.529294 0)
(0.0191768 -0.613084 0)
(0.00223396 -0.598239 0)
(-0.00210035 -0.597972 0)
(-0.0192446 -0.612897 0)
(-0.0393993 -0.545212 0)
(-0.0211505 -0.124691 0)
(-0.0166683 0.0104154 0)
(0.0215516 -0.0177785 0)
(-0.000727035 -0.163268 0)
(0.0441035 -0.546505 0)
(0.0289267 -0.580364 0)
(0.0141765 -0.575411 0)
(-0.01414 -0.575032 0)
(-0.028763 -0.580129 0)
(-0.0448296 -0.551139 0)
(0.00285389 -0.141989 0)
(-0.0139325 0.0121652 0)
(0.0287709 -0.00281311 0)
(0.0373779 -0.172826 0)
(0.0418195 -0.548634 0)
(0.0220169 -0.545727 0)
(0.0022067 -0.537628 0)
(-0.00223154 -0.537156 0)
(-0.0220395 -0.545444 0)
(-0.0418333 -0.548725 0)
(-0.0395706 -0.167927 0)
(-0.0200547 0.0228061 0)
(0.04813 -0.00719344 0)
(0.0575307 -0.207124 0)
(0.0581408 -0.495221 0)
(0.0317906 -0.506699 0)
(0.0168126 -0.510824 0)
(-0.0167482 -0.51066 0)
(-0.0311853 -0.50677 0)
(-0.0580006 -0.495808 0)
(-0.0569024 -0.224474 0)
(-0.037424 0.0169217 0)
(0.0630952 -0.00747988 0)
(0.0580814 -0.22329 0)
(0.0542877 -0.45606 0)
(0.0250111 -0.467568 0)
(0.00327597 -0.467035 0)
(-0.00410889 -0.467126 0)
(-0.0258562 -0.46822 0)
(-0.0540283 -0.457277 0)
(-0.0601151 -0.243574 0)
(-0.0586712 0.0130435 0)
(0.0547552 -0.0382986 0)
(0.0702744 -0.214702 0)
(0.0672635 -0.401373 0)
(0.0364693 -0.422672 0)
(0.0195063 -0.432773 0)
(-0.0190893 -0.433009 0)
(-0.0366588 -0.423273 0)
(-0.0682212 -0.401656 0)
(-0.0734541 -0.234477 0)
(-0.0631766 -0.0141461 0)
(-0.00862019 -0.0633438 0)
(0.071306 -0.271773 0)
(0.0610101 -0.363319 0)
(0.0264575 -0.381716 0)
(0.00274476 -0.381057 0)
(-0.00627492 -0.381428 0)
(-0.0297699 -0.381984 0)
(-0.0616907 -0.362599 0)
(-0.0722737 -0.281615 0)
(0.0047144 -0.0539192 0)
(0.0917637 -0.108586 0)
(0.0737453 -0.284756 0)
(0.0706783 -0.313247 0)
(0.0422664 -0.327801 0)
(0.0244148 -0.335263 0)
(-0.0169659 -0.335344 0)
(-0.0362176 -0.326613 0)
(-0.06752 -0.313909 0)
(-0.0735028 -0.28778 0)
(-0.0941121 -0.103276 0)
(0.0924972 -0.192773 0)
(0.0723163 -0.222184 0)
(0.0644111 -0.259682 0)
(0.0314367 -0.284113 0)
(0.00523336 -0.281334 0)
(-0.0112526 -0.27907 0)
(-0.0364507 -0.282243 0)
(-0.0668278 -0.260597 0)
(-0.0742455 -0.223927 0)
(-0.0959461 -0.180351 0)
(0.0562402 -0.129199 0)
(0.0503453 -0.194523 0)
(0.0449161 -0.233085 0)
(0.0199951 -0.241443 0)
(0.0172147 -0.248048 0)
(-0.0151677 -0.248496 0)
(-0.0200108 -0.24133 0)
(-0.0458401 -0.233398 0)
(-0.0494147 -0.195011 0)
(-0.0600719 -0.123086 0)
(1.54854 -0.522382 0)
(1.55134 -0.520969 0)
(1.51178 -0.537084 0)
(1.44727 -0.551725 0)
(1.41351 -0.541796 0)
(1.38286 -0.52275 0)
(1.34501 -0.508575 0)
(1.3076 -0.511081 0)
(1.28122 -0.520386 0)
(1.26353 -0.515814 0)
(1.24877 -0.494496 0)
(1.23513 -0.467986 0)
(1.2187 -0.438643 0)
(1.19666 -0.41258 0)
(1.1805 -0.388226 0)
(1.1741 -0.374629 0)
(1.16426 -0.363669 0)
(1.15605 -0.353284 0)
(1.16591 -0.342093 0)
(1.17926 -0.313568 0)
(1.16219 -0.279503 0)
(1.15324 -0.232628 0)
(1.17038 -0.211766 0)
(1.19257 -0.216449 0)
(1.23705 -0.214261 0)
(1.26175 -0.218226 0)
(1.2952 -0.211026 0)
(1.31703 -0.192962 0)
(1.31022 -0.16657 0)
(1.29924 -0.121862 0)
(1.28496 -0.0994028 0)
(1.26954 -0.0551417 0)
(1.2219 -0.0359118 0)
(1.1654 0.0123361 0)
(1.06841 0.0455219 0)
(0.984358 0.103992 0)
(0.845138 0.180827 0)
(0.616621 0.236238 0)
(0.416008 0.308761 0)
(0.173156 0.312716 0)
(1.32473 0.055965 0)
(1.60198 0.448692 0)
(1.59252 0.581794 0)
(1.52565 0.585422 0)
(1.45182 0.55562 0)
(1.40679 0.539692 0)
(1.35552 0.533871 0)
(1.22861 0.561909 0)
(1.17093 0.564106 0)
(1.14594 0.547938 0)
(1.13508 0.510622 0)
(1.13153 0.477076 0)
(1.1417 0.454301 0)
(1.14941 0.420851 0)
(1.17614 0.369776 0)
(1.16903 0.317844 0)
(1.15477 0.297079 0)
(1.09626 0.333149 0)
(1.04854 0.27307 0)
(1.04768 0.191562 0)
(1.03729 0.24342 0)
(1.00958 0.190598 0)
(0.978804 0.125142 0)
(0.97479 0.0875679 0)
(0.966294 0.086408 0)
(0.966789 0.0885911 0)
(0.969964 0.108784 0)