/*--------------------------------*- C++ -*----------------------------------*\
  =========                 |
  \\      /  F ield         | OpenFOAM: The Open Source CFD Toolbox
   \\    /   O peration     | Website:  https://openfoam.org
    \\  /    A nd           | Version:  8
     \\/     M anipulation  |
\*---------------------------------------------------------------------------*/
FoamFile
{
    version     2.0;
    format      ascii;
    class       volScalarField;
    location    "6.35";
    object      p_rgh;
}
// * * * * * * * * * * * * * * * * * * * * * * * * * * * * * * * * * * * * * //

dimensions      [1 -1 -2 0 0 0 0];

internalField   nonuniform List<scalar> 
9150
(
1962.78
1961.77
1961.14
1960.67
1960.44
1960.45
1960.68
1961.14
1961.77
1962.78
1962.35
1961.83
1961.41
1961.09
1960.92
1960.9
1961.07
1961.4
1961.83
1962.34
1962.07
1961.79
1961.53
1961.31
1961.2
1961.2
1961.32
1961.54
1961.79
1962.07
1961.95
1961.78
1961.61
1961.45
1961.37
1961.37
1961.45
1961.61
1961.78
1961.95
1961.95
1961.77
1961.63
1961.5
1961.45
1961.45
1961.51
1961.64
1961.77
1961.95
1950.91
1950.15
1950.47
1950.87
1951.06
1951.07
1950.87
1950.5
1950.16
1950.91
1955.05
1954.33
1954.2
1954.13
1954.22
1954.23
1954.13
1954.2
1954.34
1955.05
1958.18
1957.43
1957.13
1956.75
1956.69
1956.7
1956.78
1957.14
1957.43
1958.19
1960.93
1959.77
1959.29
1958.69
1958.49
1958.51
1958.67
1959.3
1959.76
1960.92
1963.46
1961.42
1960.65
1959.98
1959.69
1959.7
1959.96
1960.64
1961.41
1963.45
1945.71
1944.78
1942.92
1941.85
1941.27
1941.29
1941.87
1942.94
1944.82
1945.73
1945.39
1945.18
1944.27
1943.97
1943.47
1943.44
1943.86
1944.19
1945.17
1945.41
1944.89
1945.09
1944.06
1944.46
1944.01
1944.05
1944.54
1944.1
1945.11
1944.92
1941.78
1944.63
1943.68
1945.18
1945.06
1945.06
1945.16
1943.67
1944.64
1941.78
1935.96
1945.36
1945.91
1947.23
1947.66
1947.65
1947.22
1945.89
1945.35
1935.97
1246.51
1246.41
1246.21
1246.17
1246.03
1245.88
1245.82
1245.74
1245.69
1245.95
1246.42
1246.31
1246.22
1246.12
1246.12
1246.03
1245.88
1245.42
1245.41
1245.39
1245.98
1245.92
1245.85
1245.7
1245.53
1245.44
1245.25
1244.87
1244.99
1245.48
1245.15
1245.12
1244.95
1244.21
1244.06
1243.89
1244.25
1244.68
1244.9
1245.15
1244.1
1244.01
1243.93
1243.86
1243.89
1243.05
1242.07
1242.19
1242.3
1244.72
1243.13
1242.93
1242.64
1242.6
1242.8
1243.16
1243.09
1241.1
1241.33
1241.53
1241.1
1238.65
1239.93
1241.02
1241.31
1242.06
1242.9
1243.66
1240.71
1240.86
1238.94
1226.06
1224.66
1224.15
1227.3
1240.86
1242.73
1243.59
1243.59
1240.41
1240.99
1223.35
1222.6
1222.52
1222.49
1222.68
1236.65
1244.04
1244.99
1241.07
1242.34
1242.86
1222.5
1220.28
1220.53
1220.56
1237.96
1244.13
1244.66
1242.2
1241.58
1242.12
1242.84
1221.45
1220.08
1232.62
1242.77
1243.33
1243.56
1241.09
1240.18
1239.13
1232.83
1228.72
1233.46
1240.83
1241.63
1242.18
1242.6
1243
1233.88
1233.68
1235.34
1239.43
1239.6
1239.83
1240.25
1240.76
1241.35
1240.34
1237.08
1238
1238.45
1238.18
1238.03
1238.17
1238.75
1239.62
1235.85
1232.51
1238.83
1238.55
1238.21
1237.87
1237.57
1234.86
1231.81
1230.33
1230.89
1231.9
1238.91
1238.69
1238.51
1235.88
1229.88
1229.32
1229.78
1230.47
1231.35
1234.42
1238.7
1238.93
1238.91
1236.1
1230.46
1230.83
1234.96
1238.79
1240.53
1241.62
1238.8
1238.77
1238.92
1238.67
1237.51
1239
1240.25
1240.83
1241.44
1242.01
1238.89
1238.87
1239.01
1239.33
1239.69
1240.16
1240.67
1241.2
1241.72
1242.19
1238.75
1238.63
1238.86
1239.27
1239.75
1240.26
1240.84
1241.56
1242.1
1242.49
1237.54
1238.37
1238.74
1239.26
1239.98
1239.58
1236.76
1239.96
1242.67
1242.07
1232.15
1238.53
1239.79
1237.87
1234.47
1233.13
1233.89
1234.54
1236.22
1242.79
1181.28
1227.78
1241.76
1240.9
1233.33
1234.29
1235.08
1235.72
1236.32
1245.02
1174.53
1176.1
1215.92
1242.91
1241.09
1235.92
1236.78
1237.23
1241.51
1247.44
1176.01
1176.47
1176.98
1201.25
1243.69
1244.83
1240.82
1242.6
1248.35
1249.38
1224.42
1181.07
1178.42
1178.69
1209.55
1249.71
1250.34
1250.64
1250.83
1251.37
1252.29
1246.48
1222.77
1180.06
1181.5
1232.53
1252.19
1252.4
1252.73
1253.09
1253.69
1254
1254.14
1237.42
1206.77
1218.65
1248.41
1254.08
1254.29
1254.32
1255.5
1255.71
1255.86
1256.06
1255.89
1240.16
1247.01
1256.28
1256.41
1249.24
1257.42
1257.57
1257.78
1257.96
1258.16
1258.45
1257.66
1258.03
1248.56
1183.69
1258.73
1258.98
1259.16
1259.06
1259.19
1260.05
1261.15
1244.81
1179.8
1171.09
1259.67
1260.98
1261.45
1261.92
1263.35
1256.66
1219.16
1172.56
1170.14
1170.5
1180.61
1229.49
1230.17
1199.92
1189.41
1176.87
1172.88
1172.43
1171.66
1170.68
1177.43
1178.66
1180.22
1180.82
1181.08
1180.24
1179.49
1177.22
1174.06
1211.16
1214.14
1267.34
1276.99
1264.36
1256.7
1247.7
1206.58
1216.53
1272.95
1275.6
1281.55
1282.03
1282.56
1282.89
1281.66
1279.13
1273.62
1232.68
1158.64
1261.95
1280.7
1279.92
1279.01
1277.73
1275.16
1271.42
1261.57
982.287
886.362
1112.98
1278.02
1272.7
1274.68
1272.16
1268.88
1266.04
1260.26
1007.28
862.569
855.306
1206.06
1185.18
1228.68
1218.69
1201.19
1214.42
1252.19
1258.76
912.756
838.795
1169.73
1162.78
1157.73
1152.35
1148.36
1146.1
1153.41
1260.98
1232.58
912.372
1216.3
1167.44
1169.67
1221.68
1171.5
1137.42
1135.58
1160.42
1233.07
1212.74
1148.29
1213.04
1241.59
1237.94
1232.35
1179.43
1121.7
1124.45
1173.33
1222.75
1182.83
1175.93
1192.05
1202.51
1199.28
1204.24
1155.09
1110.06
1115.64
1208.23
1212.94
1193.5
1169.43
1161.69
1162.11
1174.67
1195.52
1117.6
1108.06
1116.05
1200.69
1181.74
1164.19
1109.87
1072.56
1091.62
1116.06
1138.81
1148.14
1144.53
1203.61
1193.49
1180.05
1030.71
1015.32
1024.53
1033.88
1137.85
1196.93
1207.57
1209.96
1206.11
1202.56
1121.84
1033.74
1039.36
1040.73
1147.1
1206.7
1217.46
1209.53
1217.75
1218.5
1221.16
1190.5
1058.19
1037.81
1134.96
1220.76
1231.95
947.546
1209.49
1232.09
1235.92
1239.19
1241.75
1050.82
788.623
981.816
1183.12
745.158
845.225
1200.16
1247.25
1251.94
1190.79
776.615
687.094
688.01
955.036
744.06
746.013
808.85
1204.42
1258.33
1087.83
693.774
688.054
693.606
697.554
740.955
743.412
744.401
784.458
1146.61
1168.87
1129.47
756.873
707.584
714.511
774.391
734.199
728.872
726.135
808.169
1141.91
1176.43
1205.96
1162.04
856.55
1159.2
716.296
706.101
693.49
697.519
964.535
1162.57
1200.59
1228.32
1247.58
1260.41
857.595
686.749
669.987
664.667
828.67
1066.4
1163.58
1193.96
1210.33
1188.82
966.502
681.243
671.383
668.058
850.354
1074.53
1106.76
1118.51
1120.36
856.23
705.733
687.03
682.067
763.143
1051.71
1033.35
1007.83
883.548
715.073
692.489
691.197
689.145
685.259
1070.23
1037.62
1005.5
554.538
445.853
447.114
694.182
691.884
689.436
859.361
1102
1039.51
587.554
429.675
422.742
420.517
727.763
697.955
694.995
849.885
1120.74
967.532
441.63
429.517
423.196
421.105
1140.85
730.917
955.11
717.363
1146.29
746.04
444.636
433.634
429.734
430.718
1340
1202.18
1120.22
739.622
1163.55
705.285
464.888
451.686
446.402
448.952
1363.49
1371.5
1112.45
766.163
1201.37
866.306
660.359
1124.41
1033.21
559.332
1390.15
1402.15
1129.01
712.687
1245.48
1135.63
1167.08
1393.55
1360.37
912.493
1403.22
1411.96
1215.07
697.161
1300.86
1308.14
1276.51
1458.38
1429.29
1210.51
1406.24
1411.09
1225.3
673.406
1317.98
1285.78
1311.51
1466.2
1447.87
1411.99
1406.69
1410.78
1192.71
649.5
1329.57
1177.94
747.166
1429.82
1442.37
1432.73
1408.2
1410.43
1131.86
622.469
1317.52
1114
446.648
812.258
1409.64
1432.08
1327.14
1350.23
1121.84
568.92
1312.68
1107.38
422.638
421.738
1095.36
1428.61
1172.26
904.433
466.06
454.979
1321.62
1223.19
408.04
406.139
835.26
1203.88
607.314
333.772
293.207
332.65
1327.32
1243.61
392.856
442.033
991.4
988.65
301.03
286.656
285.637
288.323
1332.35
1272.34
360.528
389.524
894.325
1078.22
413.545
416.201
362.631
277.591
1336.38
1293.94
331.935
316.134
427.613
1026.49
351.615
417.942
418.205
276.737
1325.66
1315.5
311.505
294.623
295.036
707.187
156.635
265.483
336.325
248.648
1338.33
1312.77
292.616
284.643
285.326
287.614
2.21013
4.63549
43.0834
232.611
1381.53
1307.38
283.18
284.694
395.303
340.865
0.252585
0.17078
0.272278
253.836
1418.29
1351.49
284.297
407.251
410.41
359.046
0.108052
0.105007
0.122948
258.555
1437.97
1385.1
281.158
385.395
184.547
2.97415
0.115932
0.114178
0.115597
282.406
1450.3
1457.08
279.898
157.047
0.132146
0.141985
0.202945
0.136115
0.13806
316.983
1478.57
1493.12
321.195
0.193197
0.123505
0.108018
0.177996
0.796911
0.134962
360.383
1519.04
1515.4
355.971
0.0899773
0.117043
0.334198
0.161832
1.9647
0.169918
401.996
1554.07
1540.15
394.587
0.0743508
0.293152
0.526465
2.15167
1.96674
0.266297
447.245
1582.73
1569.99
437.339
0.0730822
0.567134
0.591957
0.164201
0.173807
0.192496
498.372
1600.01
1613.98
505.475
0.0499404
0.546555
0.58721
0.16565
0.171289
0.179076
555.445
1627.54
1643.93
568.076
0.0255206
0.354768
0.392489
0.203928
0.171575
0.175553
641.354
1661.42
1666.86
644.829
0.030609
0.273655
0.443908
0.245171
0.166582
0.161828
734.528
1691.96
1685.35
728.227
0.0412539
0.413062
0.533369
0.411096
0.171748
0.163863
839.746
1714.74
1710.17
831.593
0.0348252
0.473678
0.534542
0.53928
0.383615
0.183693
935.754
1729.52
1740.1
944.652
-0.0144204
0.343649
0.515995
0.542561
0.219512
0.127404
1060.62
1754.28
1758.32
1062.89
-0.045536
-0.0322446
-0.0366474
0.112772
0.0408098
0.0331608
1193.26
1779.17
1774.07
1185.82
-0.0354482
-0.0332498
-0.0345277
0.0288496
0.0260444
0.0306208
1327.4
1797.02
1796.71
1325.23
-0.0196552
-0.0294611
-0.0268005
0.0407676
0.0250103
42.6765
1473.59
1815.23
1817.87
1474.5
32.5561
-0.0214586
-0.0188154
0.0199429
0.0198511
209.952
1625.35
1835.86
1834.93
1625.53
186.4
-0.0232256
-0.0230356
0.0151684
0.013609
457.759
1774.31
1854.59
1854.25
1731.03
360.826
-0.0233272
-0.0225332
0.0123
0.00756619
768.136
1845.02
1873.76
1873.4
1844.41
731.249
-0.022521
-0.0214065
0.0128396
0.0593065
1259.99
1891.69
1892.62
1892.51
1891.04
1227.83
0.0312514
-0.0149831
0.0112263
186.56
1622.2
1909.43
1911.27
1911.94
1911.24
1714.44
190.332
-0.0076435
0.00534673
1189.16
1927.24
1927.09
1926.53
1926.17
1926.01
1923.8
1081.36
-0.0123797
668.934
1889.32
1938.75
1936.89
1936.14
1935.74
1936.7
1938.91
1889.65
657.718
1245.82
1246.04
1246.05
1246.04
1246.22
1246.24
1246.21
1246.29
1246.08
1245.92
1245.63
1245.26
1244.77
1244.24
1243.65
1242.91
1241.96
1240.84
1239.66
1238.6
1237.75
1237.12
1236.59
1236.11
1235.75
1234.75
1233.43
1233.83
1234.86
1234.59
1234.51
1234.94
1238.44
1238.88
1240.49
1241.6
1242.05
1242.23
1242.17
1242.24
1246
1245.9
1245.91
1245.95
1246.16
1246.32
1246.35
1246.36
1246.38
1246.21
1245.87
1245.43
1244.86
1244.14
1243.24
1242.23
1241.06
1239.7
1238.36
1237.13
1235.89
1235.08
1234.87
1233.86
1231.72
1232.63
1232.8
1233.6
1234.58
1234.86
1234.86
1235.43
1236.74
1237.96
1238.82
1241.43
1241.84
1241.21
1241.89
1241.82
1245.68
1245.83
1245.8
1246.04
1246.09
1246.53
1246.53
1246.33
1246.27
1246.06
1245.7
1245.16
1244.41
1243.48
1242.37
1241.07
1239.41
1237.29
1235.43
1234.2
1231.06
1229.36
1229.63
1230.87
1232.49
1234.58
1236.65
1232.71
1233.39
1234.6
1235.45
1239.83
1242.18
1242.31
1242
1241.59
1241.8
1241.92
1241.41
1241.4
1245.37
1245.58
1245.78
1245.72
1245.83
1246.69
1246.77
1246.28
1246.12
1245.93
1245.4
1244.63
1243.68
1242.47
1241.1
1239.48
1237.05
1230.77
1226.61
1224.57
1225.65
1220.41
1219.89
1223.4
1228.84
1231.93
1234.4
1235.96
1238.36
1240.05
1241.81
1243.13
1243.64
1243.72
1243.84
1243.97
1244.06
1244.42
1244.59
1243
1245.15
1245.41
1245.72
1245.48
1245.53
1246.07
1246.5
1245.57
1245.29
1245.01
1244.86
1243.98
1242.81
1241.34
1239.74
1237.98
1233.28
1225.06
1222.04
1219.21
1217.61
1216.75
1216.79
1222.83
1226.04
1228.7
1231.9
1235.79
1238.24
1239.36
1238.5
1239.42
1242.26
1243.56
1243.77
1243.95
1244.1
1244.31
1244.45
1244.42
1243.28
1245.3
1245.69
1245
1245.06
1245.18
1246.14
1245.78
1244.38
1243.79
1243.61
1243.1
1241.97
1240.62
1239.12
1237.59
1234.91
1224.84
1221.79
1219.83
1218.48
1217.79
1218.75
1226.79
1232.23
1230.37
1233.6
1238.07
1240.85
1241.66
1238.13
1238.21
1237.81
1241.23
1243.77
1244.08
1244.22
1244.33
1244.45
1244.21
1241.2
1244.37
1245.8
1244.74
1244.7
1244.72
1245.7
1245.49
1243.88
1243.05
1242.16
1241.44
1241.54
1240.33
1238.97
1237.62
1236.42
1234
1229.48
1222.37
1221.75
1227.7
1231.29
1232.33
1234.07
1235.2
1234.59
1236.06
1237.48
1241.44
1243.02
1243.35
1236.81
1236.27
1241.71
1244.02
1244.32
1244.51
1244.54
1244.02
1241.1
1243.49
1245.78
1244.63
1244.52
1244.67
1245.23
1245.01
1244.67
1243.09
1241.63
1240.76
1239.72
1239.47
1238.63
1237.24
1236.9
1236.13
1235.3
1234.17
1233.84
1234.2
1234.81
1235.41
1236.19
1237.09
1238.04
1236.56
1237.22
1237.9
1240.38
1243.17
1242.67
1235.2
1240.46
1243.98
1243.87
1244.81
1244.9
1244.04
1240.87
1243.29
1245.68
1244.49
1244.35
1244.89
1244.96
1244.58
1244.44
1244.09
1243.43
1241.16
1240.27
1239.6
1238.85
1238.08
1237.33
1238.36
1237.47
1236.13
1236
1235.92
1237.86
1238.09
1238.19
1238.55
1238.59
1238.77
1237.74
1239.3
1240.57
1241.3
1242.12
1231.43
1239.85
1243.24
1242.45
1243.11
1245.04
1244.2
1240.54
1244.47
1245.43
1244.36
1244.57
1245.13
1244.86
1244.47
1244.35
1244.15
1243.83
1243.43
1242.3
1240.6
1240.55
1242.04
1240.78
1239.32
1239.19
1239.14
1240.24
1241.45
1240.75
1238.66
1236.74
1239.3
1239.08
1238.56
1238.3
1238.51
1239.36
1240.16
1232.13
1226
1237.06
1243.91
1242.02
1242.37
1244.7
1245.78
1242.09
1244.88
1245.01
1244.59
1245.02
1244.93
1244.75
1244.52
1244.34
1244.17
1243.97
1243.72
1243.44
1242.9
1242.99
1242.94
1242.9
1241.32
1241.21
1243.24
1243.45
1243.02
1238.09
1236.49
1236.66
1238.66
1234.09
1236.75
1238.03
1232.15
1227.79
1224.22
1220.5
1222.18
1234.4
1243.94
1242.32
1242.59
1245.22
1246.45
1238.14
1241.1
1244.24
1244.52
1244.17
1244.18
1244.5
1244.39
1244.25
1244.09
1243.94
1243.8
1243.64
1243.46
1243.34
1243.25
1243.18
1243.09
1243.22
1243.23
1243.03
1236.89
1234.28
1237.42
1240.56
1236.77
1227.58
1225.1
1223.7
1221.12
1221.42
1221.75
1221.84
1221.6
1224.67
1244.29
1244.23
1243.91
1247.25
1247.8
1235.46
1236.22
1242.46
1244.38
1243.25
1243.01
1243.15
1244.33
1244.27
1244.16
1244.03
1243.9
1243.74
1243.53
1243.33
1243.11
1242.87
1242.9
1242.7
1242.4
1233.54
1231.46
1232.36
1234.7
1236.71
1241.69
1243.05
1244.05
1245.07
1235.38
1221.15
1221.79
1222.32
1222.16
1241.08
1248.21
1245.87
1245.41
1247.68
1249.53
1233.68
1234.71
1242.88
1244.25
1242.6
1242.76
1242.89
1244
1244.45
1244.34
1244.23
1244.13
1243.98
1243.7
1242.86
1238.67
1241.64
1242.65
1242.32
1242
1241.33
1241.62
1230.35
1211.34
1214.64
1236.56
1242.89
1244.36
1245.74
1246.96
1247.87
1244.14
1239.17
1242.87
1248.11
1248.4
1248.13
1247.15
1249.7
1250.37
1232.97
1240.39
1243.63
1244.09
1242.59
1242.81
1243.88
1244.81
1244.75
1244.62
1244.45
1244.33
1244.17
1243.27
1236.96
1236.67
1236.35
1242.38
1243.08
1243.06
1243.18
1243.48
1243.75
1210.48
1200.21
1200.01
1223.82
1244.88
1246.12
1247.09
1247.79
1248.22
1248.4
1248.44
1248.49
1248.63
1248.83
1249.11
1249.42
1249.95
1240.23
1242.97
1243.55
1244.03
1244.38
1244.13
1243.71
1242.89
1245.01
1244.82
1244.57
1244.51
1244.44
1237.14
1236.64
1236.59
1236.5
1239.13
1243.77
1243.8
1243.84
1244
1240.72
1198.8
1198.24
1198.83
1204.64
1242.96
1246.55
1247.19
1247.65
1247.94
1247.69
1247.61
1247.52
1247.72
1247.84
1247.94
1248.08
1248.37
1242.38
1242.98
1243.46
1244.02
1244.56
1245.21
1242.4
1242.16
1242.19
1244.34
1240.71
1241.19
1243.88
1243.53
1236.74
1236.64
1236.54
1243.53
1244.3
1244.48
1244.52
1241.17
1199.17
1196.32
1197.08
1197.57
1206.13
1245.03
1247.63
1247.5
1247.07
1245.54
1246.69
1248.2
1250.22
1249.23
1247.46
1245.17
1245.53
1246.17
1242.51
1242.06
1242.6
1244.06
1244.6
1245.23
1243.76
1243.83
1243.23
1241.84
1234.94
1235.53
1241.57
1244.82
1244.35
1242.25
1243.37
1244.49
1244.61
1244.87
1245.19
1245.51
1205.38
1196.05
1196.5
1206.06
1246.35
1249.88
1249.66
1248.91
1247.98
1247.31
1246.93
1246.74
1247.88
1247.87
1241.83
1233.79
1244.34
1245.94
1241.7
1242.01
1242.25
1243.42
1241.81
1238.95
1241.9
1242.1
1236.87
1232.36
1232.66
1238.86
1244.48
1244.49
1244.47
1244.36
1244.27
1244.34
1244.48
1244.67
1244.96
1245.44
1240.54
1214.28
1221.46
1245.75
1250.3
1250.75
1250.13
1243.81
1244.17
1242.88
1226.84
1243
1242.73
1242.39
1222.51
1180.23
1172.32
1202.01
1241.84
1242.31
1243.18
1240.79
1231.81
1230.56
1238.68
1234.98
1193.09
1191.49
1192.3
1225.32
1244.2
1243.99
1244.08
1244.28
1244.35
1244.06
1243.81
1243.87
1244.12
1244.65
1245.48
1246.25
1247.51
1248.8
1250.18
1251.43
1251.46
1202.41
1176.11
1172.12
1164.67
1167.67
1176.07
1185.91
1196.35
1162.64
1166.07
1168.2
1242.76
1244.01
1244.16
1235.09
1232.67
1238.18
1239.36
1194.3
1188.07
1189.28
1192.57
1237.29
1243.22
1245.22
1244.93
1244.61
1244.08
1243.31
1242.77
1242.61
1242.79
1243.04
1243.53
1244.35
1245.55
1247.3
1249.47
1251.72
1227.11
1168.67
1167.55
1165.4
1163.53
1160.76
1157.71
1157.49
1222.44
1233.98
1182.54
1180.99
1245.14
1245.66
1242.14
1236.82
1241.85
1241.87
1203.01
1186.02
1186.15
1197.55
1238.06
1243.31
1244.85
1245.92
1245.57
1244.8
1243.26
1241.54
1240.25
1240.32
1240.81
1241.06
1240.92
1241.12
1242.16
1243.85
1245.82
1228.96
1196.4
1192.09
1234.11
1211.01
1184.32
1194.51
1203.19
1220.71
1234.16
1233.88
1233.57
1235.21
1246.72
1247.3
1243.98
1243.87
1248.03
1239.72
1185.75
1184.71
1184.47
1218.38
1247.98
1247.28
1246.77
1245.96
1245.12
1242.61
1236.66
1222.24
1202.57
1238.87
1238.33
1237.99
1236.97
1235.74
1235.96
1239.15
1208.81
1192.32
1192.81
1238.04
1239.49
1238.43
1237.67
1236.15
1234.72
1233.67
1233.84
1234.03
1210.35
1238.38
1248.27
1248.7
1248.92
1249.32
1248.79
1206.05
1183.27
1183.26
1182.82
1198.04
1247.19
1247.33
1246.87
1246.32
1245.51
1244.15
1216.01
1144.33
1143.36
1167.93
1226.77
1240.65
1239.22
1237.81
1238.24
1215.96
1186.57
1189.6
1209.78
1237.16
1235.9
1232.6
1209.46
1176.93
1140.7
1157.58
1174.8
1185.94
1165.62
1237.24
1249.93
1250.38
1245.98
1237.93
1236.76
1205.94
1181.73
1181.56
1181.26
1180.62
1226.25
1247.43
1247.38
1247.1
1247.07
1245.8
1239.01
1204.86
1144.5
1144.22
1144.03
1161.56
1242.96
1245.62
1231.25
1190.24
1198.25
1219.52
1238.36
1239.05
1237.76
1200.05
1033.68
974.023
972.721
973.762
1047.51
1217.54
1241.36
1241.96
1251.92
1252.42
1239.39
1239.01
1249.63
1248.55
1195.06
1180.73
1180.57
1179.82
1220.65
1248.69
1248.23
1247.76
1247.21
1246.74
1215.22
1245.63
1238.04
1172.66
1144.69
1144.58
1160.3
1213.91
1148.71
1191.65
1237.37
1238.76
1240.8
1241.95
1169.68
974.246
970.53
969.925
970.274
970.29
968.08
1088.1
1239.54
1240.45
1253.53
1253.78
1244.57
1250.58
1252.14
1252.24
1249.21
1198.9
1181.69
1199.52
1246.05
1250.28
1249.32
1248.41
1247.65
1228.56
1205.61
1230.07
1249.37
1247.76
1224.83
1149.02
1144.26
1143.4
1142.92
1183.05
1236.85
1238.86
1240.66
1163.31
1020.17
1009.9
1092.97
984.744
987.828
1097.66
1101.33
1182.71
1240.19
1241.4
1254.18
1242.56
1251.18
1252.85
1252.87
1252.62
1252.4
1246.42
1235.91
1250.08
1252.93
1251.44
1250.12
1236.41
1217.8
1202.91
1201.3
1221.72
1247.41
1249.09
1248.52
1222.89
1138.33
1138.54
1137.45
1203.87
1237.94
1239.9
1122.23
1081.77
1098.64
1181.52
1264.19
1239.7
1191.47
1205.37
1232.08
1242.45
1244.24
1243.7
1197.76
1191.16
1247.96
1253.86
1253.66
1251.1
1252.12
1255.65
1255.7
1255.47
1254.75
1237.68
1223.79
1220.61
1218.51
1229.96
1227.66
1207.09
1146.43
1231.99
1240.9
1241.21
1208.07
1141.89
1209.45
1238.55
1240.38
1176.16
1130.07
1207.61
1258.21
1258.82
1259.08
1236.6
1183.1
1103.08
1078.38
1112.76
1214.47
1234.82
1172.84
1176.27
1251.94
1256.73
1254.01
1253.05
1254.21
1257.2
1257.14
1257
1237.8
1230.26
1233.19
1251.48
1246.27
1147.03
1095.43
1092.4
1094.17
1110.45
1238.17
1237.74
1237.5
1226.6
1192.05
1201.57
1199.78
1223.28
1251.41
1254.9
1255.2
1255.57
1254.52
1237.85
1196.29
1152.38
1066.89
1064.75
1065.93
1144.55
1171.29
1198.5
1258.22
1258.59
1256.18
1255.78
1259.3
1258.73
1249.17
1220.54
1220.83
1255.15
1253.29
1250.71
1234.92
1114.73
1090.6
1132.73
1168.04
1159.8
1187.1
1164.46
1157.44
1122.98
1021.9
1124.98
1248.22
1250.13
1249.79
1249.41
1249.3
1249.3
1248.86
1248.1
1246.56
1243.8
1126.96
1056.17
1060.59
1094.57
1170.68
1235.55
1261.5
1261.16
1258.35
1261.31
1261.08
1225.11
1192.28
1196.53
1257.43
1256.35
1254.7
1252.37
1237.26
1230.36
1232.72
1235.93
1237.25
1227.06
1076.29
971.873
970.098
974.057
987.224
1163.67
1234.13
1235.05
1236.24
1237.74
1238.8
1239.57
1240.43
1241.69
1240.77
1239.01
1170.33
1048.18
1052.02
1118.48
1192.84
1262.63
1263.63
1262.84
1261.43
1259.32
1210.32
1188.66
1188.67
1210.54
1257.39
1256.52
1255.36
1253.85
1252.25
1250.57
1248.57
1246.18
1243.04
1233.98
1051.78
962.534
959.251
955.733
1028.25
1216.28
1213.74
1215.21
1217.63
1221.28
1225.58
1227.05
1227.24
1232.57
1233.93
1229.99
1156.63
1114.49
1049.94
1118.84
1264.48
1268.83
1266.91
1264.05
1259.06
1201.7
1186.61
1185.72
1184.51
1231.12
1257.08
1256.78
1256.52
1254.45
1254.42
1255.6
1255.27
1254.04
1251.8
1248.31
1179.74
969.986
953.938
945.442
1011.63
1202.73
1195.31
1167.47
1146.97
1183.71
1212.32
1211.72
1105.23
1053.75
1169.91
1208.92
1052.08
1044.79
1048.78
1090.7
1273.89
1271.81
1268.5
1264.2
1260.45
1224.59
1183.28
1182.28
1221.39
1256.75
1256.52
1257.01
1257.96
1255.72
1246.66
1259.4
1262.01
1263.25
1262.25
1260.24
1257.35
1093.07
951.602
942.82
931.992
1050.8
1060.18
935.307
912.413
1005.76
1217.62
1198.2
1006.42
837.083
856.269
1015.8
1109.65
1123.76
1050.93
1047.76
1268.61
1266.3
1263.96
1260.95
1258.4
1255.21
1250.8
1238.54
1254.04
1254.46
1255.26
1257.13
1259.48
1260
1249.27
1251.6
1261.66
1270.44
1271.14
1269.25
1171.73
1000.78
957.123
949.621
941.137
932.89
926.748
924.651
924.098
938.991
1098.83
962.189
947.356
824.091
824.319
826.994
1038.61
1166.93
1168.05
1046.89
1260.15
1258.51
1257.17
1255.51
1251.37
1206.21
1144.09
1197.27
1203.84
1192.77
1186.58
1206.31
1245.92
1255.85
1257.55
1262.85
1262.99
1252.8
1269.66
1188.79
979.919
962.909
961.918
958.686
951.946
946.633
941.053
936.484
948.254
1185.66
1003.68
831.369
832.195
830.989
827.324
826.566
827.936
979.037
1176.86
1060.9
1159.31
1254.62
1252.75
1253.29
1215.67
948.09
800.85
900.409
1072.11
1116.72
1128.43
1132.85
1142.84
1155.49
1203.67
1269.9
1273.33
1276.59
1230.17
1000.35
967.268
963.361
1039.18
1064.17
1040.57
1014
1029.7
1111.18
1229.38
1230.63
1040.82
841.591
832.065
831.894
831.807
831.88
832.745
833.955
1150.54
1187.23
837.806
991.163
1168.21
1239.95
1052.88
783.311
779.545
774.486
964.528
1202.66
1238.96
1254.35
1261.28
1268.52
1274.07
1266.11
1266.81
1279.89
1268.64
990.505
965.487
962.37
960.077
1033.3
1227.4
1239.42
1238.45
1239.74
1239.11
1239.07
1240.19
1231.53
995.002
831.307
832.16
832.856
833.656
834.273
1036.43
1197.33
801.426
787.504
805.125
860.765
784.335
773.422
771.187
768.288
964.386
1245.34
1254.84
1260.2
1265.72
1271.41
1276.68
1278.57
1214.17
1182.47
1217.7
1173.37
1130.62
962.58
963.984
964.128
962.318
1100.34
1246
1244.97
1240.73
1238.6
1239.65
1244.28
1251.2
1182.54
882.508
833.891
833.278
833.36
898.344
1206.5
859.315
774.441
772.049
770.886
770.848
770.87
769.802
768.564
1080.53
1259.1
1263
1267.25
1271.85
1276.49
1281.01
1260.5
1174.45
1177.61
1180.48
1205.51
1207.2
1177.41
1148.71
1156.69
1040.55
1039.17
1037.49
1124.63
1067.86
1059.65
1183.87
1251.21
1259.16
1267.39
1274.51
1196.73
843.51
834.159
835.926
1141.02
1133.5
801.226
765.774
768.052
768.841
769.244
768.986
865.883
1239.29
1269.54
1271.51
1274.44
1277.95
1281.8
1285.8
1272.77
1177.92
1179.3
1181.76
1183.53
1185.49
1274.29
1291.08
1288.3
1277.51
1266.4
1236.78
1066.11
1060.51
1060.93
1062
1073.11
1258.74
1276.68
1283.08
1220.28
850.776
838.458
840.333
1101.87
1210.16
1091.21
806.52
765.989
767.993
769.191
804.049
1189.82
1279.35
1278.23
1278.34
1280.31
1283.16
1286.4
1289.94
1293.32
1265.42
1181.93
1202.77
1280.06
1293.16
1291.21
1288.73
1286.35
1285.2
1283.93
1283.66
1284.84
1165.74
1094.29
1233.87
1267.1
1274.35
1281.39
1199.37
850.272
834.745
836.402
837.546
1119.12
1194
1192.66
1067
1036.18
984.398
996.362
1138.08
1225.05
1187.24
1156.14
1226.44
1285.61
1288.24
1290.32
1293.34
1297.09
1299.53
1301.33
1302.95
1303.94
1303.21
1242.25
1219.65
1258.04
1281.05
1275.94
1039.26
903.44
1062.79
1107.36
982.146
984.604
990.006
953.433
962.383
1038.6
1042.92
835.354
852.957
1212.04
1156.65
1167.9
1215.83
1226.74
1230.89
1233.98
1227.82
1164.65
1139.77
1139.31
1138.84
1199.62
1293.11
1296.76
1299.66
1302.11
1304
1303.37
1304.16
1306.11
1307.65
1166.63
930.279
926.21
896.665
892.2
889.98
890.236
890.431
950.942
1238.56
1026.09
932.749
937.723
970.401
1243.08
1241.67
1011.81
855.294
1208.98
1175.4
1173.55
1227.65
1233.18
1237.02
1240.09
1175.35
1144.49
1144.78
1144.47
1143.99
1191.59
1299.53
1303.96
1305.6
1307.63
1309.48
1310.45
1309.86
1310.02
1311.94
1230.17
979.176
1241.87
1249.84
1272.07
1242.92
1196.77
1171.96
1208.72
1226.94
1228.39
1073.83
1059.31
1217.41
1234.93
1233.31
945.374
936.213
1240.78
1226.72
1231.44
1236.37
1240.66
1146.85
1085.79
1159.93
1239.49
1165.78
1151.52
1225.5
1308.46
1311.15
1311.73
1312.02
1312.75
1314.3
1316.08
1318.41
1309.21
1275.91
1314.03
1291.02
1295.82
1292.75
1276.74
1247.9
1241.78
1241.73
1242.34
1070.71
1011.77
1016.12
1019.59
1185.48
1162.36
965.243
941.131
1146.25
1240.93
1240.74
1187.23
1195.92
1104.88
1081.52
1084.18
1166.99
1247.86
1280.96
1314.51
1322.74
1320.94
1319.47
1318.13
1316.71
1315.65
1314.24
1152.78
930.979
1181.96
1292.94
1312.07
1307.77
1267.76
1187.51
927.514
806.96
809.778
871.291
878.437
885.938
1053.72
1176.44
1148.9
1092.6
1094.09
1073.14
1067.35
1202.3
1208.39
1177.5
1085.35
1087.89
1089.7
1098.84
1262.74
1158.08
1091.13
1128.58
1252.42
1252.96
1282.48
1327.95
1326.66
1324.31
1146.25
894.739
739.458
748.293
852.888
1283.75
1317.26
1217.41
844.843
807.943
806.29
805.967
806.631
809.515
1133.22
1284.28
1285.65
1294.21
1285.32
1134.81
1104.45
1284.09
1304.93
1308.54
1266.68
1078.57
1145.35
1175.25
1219.95
1269.85
1285.59
1098.47
1094.63
1090.95
1087.72
1253.64
1248.12
1120.26
1097.61
839.164
726.142
728.66
733.916
739.061
1147.98
1331.56
1252.86
855.874
810.805
810.243
809.486
809.054
813.54
1166.04
1300.15
1301.22
1303.03
1305.94
1309.34
1240.58
1121.16
1283.19
1309.29
1315.16
1319.26
699.591
701.722
913.408
1288.04
1353.01
1336.89
1240.38
1209.27
1266.95
1291.61
1261.07
865.649
722.251
723.523
724.005
725.318
727.143
750.162
1247.02
1346.68
1339.94
1056.43
813.16
812.315
811.534
810.866
810.604
860.608
1283.39
1309.65
1309.55
1311.06
1313.09
1315.68
1205.82
1121.89
1148.69
1302.62
1306.63
1310.38
717.347
735.729
1244.91
1371.04
1368.24
1365.01
1360.04
1355.33
1351.97
1348.64
1174.04
720.677
721.126
722.081
722.828
723.735
773.78
1269.77
1351.99
1350.08
1345.76
1165.71
812.689
811.839
811.485
811.183
811.273
812.8
1051.35
1315.42
1314.89
1316.78
1319.44
1260.73
1119.7
1119.54
1116.99
1120.56
1116.92
1232.25
739.264
739.022
825.237
1344.53
1379.12
1373.69
1368.94
1364.53
1360.4
1356.89
1348.26
1039.38
721.641
722.461
722.072
1000.25
1270.53
1356.96
1356.5
1355.03
1352.72
1350.42
1188.59
824.168
810.523
812.218
813.078
814.66
884.442
1202.65
1296.65
1300.12
1259.16
1248.66
1191.73
1120.29
1119.49
1118.78
1119.35
1180.25
1188.87
840.014
733.19
731.308
1295.67
1378.61
1374.54
1370.67
1366.44
1363.14
1360.44
1347.33
1204.69
1135.28
1211.71
1347.72
1358.28
1358.45
1358.37
1357.25
1356.06
1356.06
1357.99
1289.57
1149.45
1102.36
1191.88
1232.81
1256.61
1257
1296.33
1317.4
1294.11
1313.21
1339.52
1326.44
1293.79
1171.49
1121.46
1247.75
1215.26
1203.28
1016.2
715.463
742.488
1313.89
1371.63
1367.83
1362.72
1358.3
1352.7
1310.72
1330.34
1355.76
1356.01
1357.18
1358.28
1357.99
1356.39
1355.13
1354.85
1327.54
1013.77
896.505
906.529
1191.14
1353.82
1352.06
1350.46
1349.46
1347.61
1348.89
1348.08
1347.43
1347.53
1348.62
1349.86
1349.97
1151.72
1246.97
915.105
974.052
1127.69
1149.51
727.012
821.834
1173.29
1371.3
1286.43
933.322
843.734
1136.65
1350.99
1351.33
1352.25
1354.18
1355.27
1355.3
1354.22
1218.61
894.53
887.803
887.739
888.636
891.951
1233.67
1352.26
1351.3
1351.26
1351.19
1351.28
1351.03
1350
1348.29
1347.92
1349.49
1351.13
1340.16
1200.44
1256.13
513.488
598.355
1074.66
1126.89
915.609
808.573
1236.27
1332.92
895.82
811.63
813.157
826.031
1233.43
1347.84
1348.46
1349.16
1350.01
1343.63
1038.61
883.812
884.431
884.963
884.694
883.846
882.564
881.42
1175.66
1344.52
1343.52
1350.08
1313.86
1292.57
1342.66
1350.16
1351.21
1352.58
1353.67
1353.72
1332.51
1322.16
453.001
469.051
903.277
1091.63
1114.28
790.79
1191.02
1240.67
793.931
796.586
798.321
799.481
809.709
1120.26
1343.07
1339.79
1338.67
1341.09
1302.27
1262.42
1265.05
1187.94
926.997
880.048
880.146
880.321
881.675
1022.14
1237.73
1230.27
1174.15
1178.2
1223.68
1291.14
1330.96
1338.22
1348.51
1338.04
1335.04
1334.57
423.755
444.713
808.233
1071.09
1097.45
774.907
1220.67
1243.1
786.844
789.301
790.002
815.718
804.239
809.205
840.672
970.707
1131.32
1197.31
1207.19
1278.53
1322.66
1329.12
1314.31
1304.7
1312.66
1337.29
1334.73
1335.25
1277.74
1086.88
1091.58
1225.32
1223.6
1176.99
1177.14
1178.64
1249.55
1178.73
1179.09
1216.52
425.492
442.603
947.027
1065.67
1037.09
772.363
1330.14
1276.49
879.74
831.22
1191.58
1221.33
839.308
809.487
810.426
1010.25
1221.54
1302.55
1339.06
1353.27
1357.81
1362.32
1366.42
1369.82
1371.7
1354.39
1335.13
1334.25
1331.07
1296.97
1229.65
1319.19
1355.44
1202.9
1179.26
1235.76
1237.27
1264.91
1214.28
1210.39
436.611
535.695
1028.24
1026.24
935.632
945.914
1324.1
1296.29
1234.47
1279.96
1345.31
1343.9
1231.28
1152.67
1217.34
1322.39
1343.55
1345.18
1346.35
1348.64
1352.35
1357.63
1363.14
1367.86
1370.53
1356.52
1321.6
1312.94
1315.21
1364.02
1363.72
1363.64
1364.2
1364.28
1264.31
1235.95
1341.41
1366.38
1366.62
1361.84
455.463
816.026
1085.63
1064.78
1060.2
1309.03
1324.56
1329.41
1333.66
1337.78
1341.73
1343.44
1343.22
1343.09
1342.05
1340.91
1339.88
1338.99
1338.64
1339.01
1341.68
1348.66
1356.07
1361.7
1363.43
1364.24
1363.2
1346.58
1310.72
1343.26
1359.29
1359.85
1360.61
1361.43
1314.84
1237.06
1287.65
1366.4
1365.94
1365.42
512.289
937.36
1230.31
1293.11
1309.04
1324.35
1327.26
1329.46
1332.3
1335.86
1339.04
1340.7
1340.75
1339.51
1337.55
1335.45
1333.53
1331.47
1329.1
1317.42
1262.46
1229.47
1333.25
1349.83
1352.18
1352.16
1351.12
1345.13
1335.81
1328.66
1347.62
1354.46
1356.51
1357.95
1297.61
1235.23
1280.15
1355.27
1364.05
1363.86
602.351
955.615
1273.35
1331.9
1331.33
1330.9
1329.65
1329.97
1330.26
1332.07
1334.83
1337.2
1338.75
1337.79
1333.64
1330.13
1184.34
998.067
895.638
850.635
668.131
903.877
1305.58
1338.26
1339.02
1331.92
1261.25
1132.38