/*--------------------------------*- C++ -*----------------------------------*\
  =========                 |
  \\      /  F ield         | OpenFOAM: The Open Source CFD Toolbox
   \\    /   O peration     | Website:  https://openfoam.org
    \\  /    A nd           | Version:  8
     \\/     M anipulation  |
\*---------------------------------------------------------------------------*/
FoamFile
{
    version     2.0;
    format      ascii;
    class       volVectorField;
    location    "5.05";
    object      U;
}
// * * * * * * * * * * * * * * * * * * * * * * * * * * * * * * * * * * * * * //

dimensions      [0 1 -1 0 0 0 0];

internalField   nonuniform List<vector> 
9150
(
(0.00495971 -0.0781157 0)
(0.0130691 -0.09747 0)
(0.0108684 -0.104341 0)
(0.00836273 -0.108037 0)
(0.00179131 -0.109595 0)
(-0.00321906 -0.109219 0)
(-0.00886281 -0.107666 0)
(-0.0108546 -0.104286 0)
(-0.0131006 -0.0974168 0)
(-0.00496404 -0.0780905 0)
(0.00594992 -0.0920344 0)
(0.00857824 -0.100536 0)
(0.00734296 -0.102224 0)
(0.00467219 -0.104068 0)
(0.0023312 -0.105299 0)
(-0.0015666 -0.105649 0)
(-0.00424046 -0.104687 0)
(-0.00730168 -0.10228 0)
(-0.00859283 -0.10049 0)
(-0.00595066 -0.0920101 0)
(0.0017667 -0.0954677 0)
(0.00458288 -0.0989976 0)
(0.003693 -0.101051 0)
(0.00316234 -0.10194 0)
(0.000720054 -0.102505 0)
(-0.000930293 -0.102338 0)
(-0.00336983 -0.101659 0)
(-0.00374188 -0.100944 0)
(-0.00459727 -0.0989709 0)
(-0.00176999 -0.0954524 0)
(0.00175558 -0.0984268 0)
(0.00247862 -0.100405 0)
(0.0021849 -0.100241 0)
(0.00130057 -0.100763 0)
(0.000680701 -0.100854 0)
(-0.000532618 -0.10086 0)
(-0.00127278 -0.100876 0)
(-0.00218886 -0.10026 0)
(-0.0024912 -0.100395 0)
(-0.00176128 -0.0984197 0)
(0.000193997 -0.0994916 0)
(0.000732698 -0.0995765 0)
(0.000455395 -0.100003 0)
(0.000648317 -0.0998698 0)
(0.000108061 -0.100128 0)
(-0.000161346 -0.100097 0)
(-0.000681699 -0.0998719 0)
(-0.000485622 -0.099983 0)
(-0.000737214 -0.0995713 0)
(-0.000195838 -0.0994915 0)
(0.0762157 -0.195301 7.53514e-27)
(0.0495168 -0.18487 0)
(0.0307154 -0.176499 0)
(0.0162515 -0.17398 0)
(0.00514037 -0.175902 0)
(-0.00409723 -0.176515 0)
(-0.0157222 -0.175591 0)
(-0.0310497 -0.176663 0)
(-0.0496915 -0.185032 0)
(-0.0763592 -0.195367 -7.377e-27)
(0.0583737 -0.146342 3.04151e-27)
(0.0483166 -0.14641 0)
(0.0284032 -0.156688 0)
(0.0207588 -0.157633 0)
(0.00498563 -0.155668 0)
(-0.00457876 -0.155487 0)
(-0.020546 -0.156227 0)
(-0.0283254 -0.156369 0)
(-0.0484456 -0.146591 0)
(-0.0584336 -0.146436 -3.11017e-27)
(0.047681 -0.121566 9.38824e-28)
(0.0423198 -0.131317 0)
(0.0296808 -0.133709 0)
(0.017634 -0.137494 0)
(0.00546709 -0.14012 0)
(-0.00638342 -0.140281 0)
(-0.0177676 -0.13794 0)
(-0.0295251 -0.133962 0)
(-0.0422171 -0.131367 0)
(-0.0476469 -0.121529 -9.99236e-28)
(0.0374092 -0.0996229 2.62837e-27)
(0.0393104 -0.110351 0)
(0.0226949 -0.120536 0)
(0.0176221 -0.125062 0)
(0.00477185 -0.125112 0)
(-0.00380057 -0.125538 0)
(-0.0170864 -0.12501 0)
(-0.0222318 -0.120112 0)
(-0.0389871 -0.110224 0)
(-0.037327 -0.0994868 -2.69096e-27)
(0.0249316 -0.0815428 -8.98454e-27)
(0.0280275 -0.101191 -9.44618e-27)
(0.0199717 -0.108234 -1.78483e-27)
(0.010945 -0.113958 -1.95936e-27)
(0.00477188 -0.116966 -6.20921e-29)
(-0.00441388 -0.116793 -4.38731e-29)
(-0.0111877 -0.113613 -2.03568e-27)
(-0.0202035 -0.10828 -1.79547e-27)
(-0.028211 -0.10108 -9.41557e-27)
(-0.0248911 -0.0814387 -8.96746e-27)
(0.0178171 -0.143911 0)
(0.011405 -0.205372 0)
(0.0223561 -0.21575 0)
(0.0115662 -0.222807 0)
(0.00989342 -0.226474 0)
(-0.00545166 -0.226751 0)
(-0.00763241 -0.224579 0)
(-0.0226858 -0.216431 0)
(-0.0141675 -0.20302 0)
(-0.0188433 -0.14295 0)
(0.0159507 -0.167315 0)
(0.00121897 -0.200325 0)
(0.0139575 -0.210085 0)
(0.000379024 -0.215223 0)
(0.00337013 -0.215223 0)
(-0.00823022 -0.214556 0)
(-0.0048481 -0.212391 0)
(-0.0169398 -0.20746 0)
(-0.00273942 -0.197636 0)
(-0.0170407 -0.164442 0)
(0.0148189 -0.172395 0)
(-0.00382264 -0.203952 0)
(0.0109569 -0.208641 0)
(-0.0010996 -0.209557 0)
(0.00400299 -0.210142 0)
(-0.00339874 -0.20973 0)
(0.000698578 -0.210017 0)
(-0.0113902 -0.207937 0)
(0.00342427 -0.202803 0)
(-0.0147611 -0.171206 0)
(0.0171533 -0.193913 0)
(-0.00666098 -0.204572 0)
(0.00952069 -0.210462 0)
(-0.00137368 -0.207232 0)
(0.00118881 -0.207449 0)
(-0.00223791 -0.206594 0)
(0.00030603 -0.205412 0)
(-0.0105668 -0.20965 0)
(0.00649726 -0.203691 0)
(-0.0178788 -0.193311 0)
(0.0339528 -0.217909 0)
(0.00835548 -0.203858 0)
(0.0164597 -0.203058 0)
(0.0105798 -0.195657 0)
(0.000927377 -0.193057 0)
(-0.0029708 -0.192938 0)
(-0.011792 -0.196873 0)
(-0.0168391 -0.203572 0)
(-0.00864156 -0.204152 0)
(-0.0338151 -0.21745 0)
(-0.0433634 0.00718754 0)
(-0.0438683 0.00780986 0)
(-0.0442895 0.00886658 0)
(-0.0445071 0.0108556 0)
(-0.0461445 0.012143 0)
(-0.051051 0.0113799 0)
(-0.0600601 0.00793945 0)
(-0.0731858 0.0023664 0)
(-0.0884063 0.00100062 0)
(-0.104348 0.00841345 0)
(-0.0665507 -0.00579774 0)
(-0.0642247 -0.00576189 0)
(-0.065791 -0.00873695 0)
(-0.0734996 -0.00856026 0)
(-0.0838553 0.0006119 0)
(-0.0948585 0.01709 0)
(-0.107463 0.0395916 0)
(-0.123582 0.0578726 0)
(-0.143018 0.0620584 0)
(-0.159239 0.0543904 0)
(-0.0912886 -0.0132166 0)
(-0.100006 0.00668897 0)
(-0.112798 0.0296382 0)
(-0.129566 0.0460973 0)
(-0.146842 0.0548197 0)
(-0.160222 0.0580884 0)
(-0.166538 0.0612806 0)
(-0.171927 0.0663507 0)
(-0.182077 0.0693056 0)
(-0.199104 0.0698893 0)
(-0.136716 0.019589 0)
(-0.158532 0.0451064 0)
(-0.169582 0.054721 0)
(-0.176069 0.0562314 0)
(-0.178881 0.0580362 0)
(-0.18185 0.0644871 0)
(-0.187216 0.0770455 0)
(-0.196978 0.0964345 0)
(-0.207498 0.111427 0)
(-0.216293 0.110807 0)
(-0.163464 0.0721116 0)
(-0.179374 0.0729283 0)
(-0.186847 0.0684283 0)
(-0.190208 0.0619344 0)
(-0.19155 0.0624515 0)
(-0.195064 0.0695169 0)
(-0.200059 0.0868961 0)
(-0.207715 0.108479 0)
(-0.210358 0.116143 0)
(-0.210984 0.116299 0)
(-0.159744 0.101598 0)
(-0.174847 0.0911178 0)
(-0.18049 0.0779399 0)
(-0.189982 0.0692426 0)
(-0.1985 0.0705307 0)
(-0.204094 0.0791403 0)
(-0.206534 0.0994285 0)
(-0.207482 0.115941 0)
(-0.208258 0.120231 0)
(-0.209044 0.119439 0)
(-0.151483 0.119288 0)
(-0.16668 0.111655 0)
(-0.182263 0.103578 0)
(-0.195071 0.0980179 0)
(-0.20443 0.0923234 0)
(-0.210218 0.0926132 0)
(-0.216071 0.103399 0)
(-0.215846 0.115585 0)
(-0.213904 0.120172 0)
(-0.209349 0.117945 0)
(-0.124121 0.160717 0)
(-0.138942 0.150521 0)
(-0.165216 0.127432 0)
(-0.186362 0.105373 0)
(-0.194377 0.0972908 0)
(-0.19736 0.096853 0)
(-0.199949 0.103178 0)
(-0.200199 0.106119 0)
(-0.200295 0.104535 0)
(-0.19226 0.0839711 0)
(-0.0944487 0.179282 0)
(-0.0994127 0.194368 0)
(-0.108117 0.19161 0)
(-0.132451 0.15845 0)
(-0.145277 0.117565 0)
(-0.142797 0.100821 0)
(-0.135152 0.102266 0)
(-0.124515 0.108871 0)
(-0.121251 0.110437 0)
(-0.10903 0.0788691 0)
(-0.0583468 0.180131 0)
(-0.0630843 0.184746 0)
(-0.0645052 0.187686 0)
(-0.0658204 0.171908 0)
(-0.0665625 0.13082 0)
(-0.0614279 0.0901571 0)
(-0.0586344 0.0827474 0)
(-0.0568409 0.0776981 0)
(-0.0398852 0.0632316 0)
(-0.0204298 0.0289431 0)
(0.0170076 0.215922 0)
(0.0079999 0.210208 0)
(0.000353661 0.201824 0)
(-0.00638966 0.176998 0)
(-0.0151633 0.131982 0)
(-0.0263559 0.092014 0)
(-0.0341169 0.0770476 0)
(-0.0373269 0.0653552 0)
(-0.0311218 0.0248066 0)
(-0.0159977 -0.0223052 0)
(0.0624881 0.222154 0)
(0.0664984 0.221649 0)
(0.0647684 0.218047 0)
(0.0586471 0.206233 0)
(0.0468189 0.176769 0)
(0.0313781 0.134121 0)
(0.00989046 0.097856 0)
(-0.00034907 0.0774808 0)
(-0.0132238 0.0355363 0)
(-0.0289168 0.00464034 0)
(0.0704601 0.201755 0)
(0.0770735 0.20953 0)
(0.0870777 0.209581 0)
(0.0936534 0.206555 0)
(0.0921524 0.194976 0)
(0.0887792 0.169778 0)
(0.0728706 0.139103 0)
(0.0525151 0.116626 0)
(0.0262346 0.0848742 0)
(0.00691771 0.0575715 0)
(0.0610123 0.177816 0)
(0.0703189 0.178925 0)
(0.0842085 0.18334 0)
(0.102335 0.184872 0)
(0.108352 0.18496 0)
(0.107712 0.179896 0)
(0.102184 0.166961 0)
(0.0869536 0.15643 0)
(0.0584576 0.133763 0)
(0.0439104 0.110879 0)
(0.0605469 0.165484 0)
(0.0663784 0.151328 0)
(0.0791682 0.147708 0)
(0.0941186 0.154857 0)
(0.106842 0.174889 0)
(0.107995 0.184001 0)
(0.102061 0.184928 0)
(0.088078 0.186136 0)
(0.0694646 0.174135 0)
(0.0525983 0.152074 0)
(0.0828686 0.16961 0)
(0.0797505 0.140996 0)
(0.0821009 0.133474 0)
(0.0863961 0.13666 0)
(0.095431 0.161399 0)
(0.100895 0.187902 0)
(0.0964084 0.202821 0)
(0.0847037 0.214475 0)
(0.0709263 0.208554 0)
(0.0508241 0.204759 0)
(0.123835 0.212273 0)
(0.0988343 0.153676 0)
(0.0896205 0.133622 0)
(0.0878928 0.134727 0)
(0.0897916 0.150339 0)
(0.0931932 0.191405 0)
(0.0903732 0.219132 0)
(0.0868234 0.235236 0)
(0.0802648 0.238716 0)
(0.0747824 0.25384 0)
(0.145216 0.253256 0)
(0.122194 0.198904 0)
(0.0960527 0.149684 0)
(0.0859867 0.142078 0)
(0.0792371 0.152805 0)
(0.08066 0.186593 0)
(0.0817906 0.221543 0)
(0.0834486 0.23865 0)
(0.0848145 0.245421 0)
(0.0902678 0.274771 0)
(0.140117 0.273517 0)
(0.127044 0.252831 0)
(0.0953362 0.196515 0)
(0.0685152 0.168077 0)
(0.0543197 0.17564 0)
(0.0473111 0.18869 0)
(0.0535255 0.206945 0)
(0.0665589 0.223357 0)
(0.0742939 0.237921 0)
(0.0790579 0.285304 0)
(0.108849 0.303105 0)
(0.103887 0.286978 0)
(0.0921972 0.252679 0)
(0.0703719 0.219951 0)
(0.0450346 0.201672 0)
(0.0299469 0.202744 0)
(0.0209702 0.201229 0)
(0.0205709 0.202315 0)
(0.0219478 0.217203 0)
(0.0305144 0.290669 0)
(0.0725995 0.314867 0)
(0.0819568 0.288856 0)
(0.0876472 0.261894 0)
(0.0889976 0.250114 0)
(0.077157 0.242695 0)
(0.0530274 0.228356 0)
(0.025699 0.215178 0)
(0.0129617 0.209984 0)
(-0.00529372 0.228055 0)
(-0.0111382 0.248406 0)
(0.0572313 0.290237 0)
(0.0735813 0.26542 0)
(0.0877497 0.249548 0)
(0.0977403 0.245822 0)
(0.10149 0.265159 0)
(0.0887492 0.293553 0)
(0.0642668 0.280705 0)
(0.0332478 0.24716 0)
(0.00826416 0.254313 0)
(-0.00535501 0.251741 0)
(0.0599101 0.245201 0)
(0.0681348 0.226842 0)
(0.0803838 0.21673 0)
(0.0916613 0.223959 0)
(0.0974468 0.264749 0)
(0.0848199 0.321109 0)
(0.0683666 0.33263 0)
(0.0655649 0.309409 0)
(0.0570663 0.297029 0)
(0.0528327 0.263663 0)
(0.0666375 0.232193 0)
(0.0658862 0.222618 0)
(0.0592734 0.203611 0)
(0.0589305 0.20846 0)
(0.0590063 0.27358 0)
(0.0437142 0.337629 0)
(0.0561148 0.334438 0)
(0.0714084 0.305669 0)
(0.0816234 0.279876 0)
(0.101202 0.220428 0)
(0.0621149 0.247504 0)
(0.0551193 0.235197 0)
(0.0295018 0.215376 0)
(0.0114957 0.237056 0)
(-0.0139137 0.309031 0)
(0.00452273 0.296938 0)
(0.0457131 0.277082 0)
(0.0670023 0.260661 0)
(0.0782254 0.236309 0)
(0.0948471 0.166684 0)
(0.0325082 0.255912 0)
(0.018208 0.278081 0)
(-0.022053 0.281558 0)
(-0.0342798 0.29057 0)
(-0.0342912 0.295829 0)
(-0.0211317 0.222537 0)
(-0.00789123 0.218851 0)
(0.00363574 0.239042 0)
(0.0148231 0.208929 0)
(0.0248237 0.155728 0)
(-0.0742053 0.316369 0)
(-0.0963307 0.329469 0)
(-0.100212 0.297646 0)
(-0.0954539 0.285564 0)
(-0.0880643 0.263355 0)
(-0.0886936 0.224664 0)
(-0.089855 0.220112 0)
(-0.0713789 0.213442 0)
(-0.0594431 0.18755 0)
(-0.0502659 0.170343 0)
(-0.225399 0.332801 0)
(-0.20894 0.318732 0)
(-0.195913 0.302716 0)
(-0.17718 0.295769 0)
(-0.166153 0.256966 0)
(-0.156225 0.221641 0)
(-0.13904 0.206209 0)
(-0.113139 0.192534 0)
(-0.100103 0.164746 0)
(-0.0833285 0.138644 0)
(-0.258311 0.289564 0)
(-0.244697 0.266673 0)
(-0.236506 0.253798 0)
(-0.223682 0.243597 0)
(-0.20481 0.218565 0)
(-0.183124 0.176779 0)
(-0.165542 0.13853 0)
(-0.146371 0.125792 0)
(-0.133912 0.118701 0)
(-0.121946 0.119235 0)
(-0.293747 0.242714 0)
(-0.288146 0.249128 0)
(-0.281807 0.24839 0)
(-0.27031 0.232968 0)
(-0.251937 0.185169 0)
(-0.244511 0.14737 0)
(-0.243215 0.134151 0)
(-0.241805 0.12815 0)
(-0.241903 0.122385 0)
(-0.234688 0.114836 0)
(-0.395939 0.275056 0)
(-0.412812 0.26072 0)
(-0.410988 0.223639 0)
(-0.383402 0.174933 0)
(-0.363781 0.138509 0)
(-0.353792 0.124863 0)
(-0.341644 0.117669 0)
(-0.326919 0.107993 0)
(-0.311594 0.0923255 0)
(-0.302247 0.078796 0)
(-0.48648 0.29989 0)
(-0.464182 0.240931 0)
(-0.442736 0.181882 0)
(-0.414427 0.136865 0)
(-0.380893 0.106658 0)
(-0.357358 0.101979 0)
(-0.340163 0.0965529 0)
(-0.324812 0.078083 0)
(-0.308966 0.0615438 0)
(-0.300466 0.0537628 0)
(-0.431202 0.255138 0)
(-0.409285 0.201378 0)
(-0.391765 0.126309 0)
(-0.349293 0.0453223 0)
(-0.314371 0.0151112 0)
(-0.283835 0.0224415 0)
(-0.266998 0.0495601 0)
(-0.265006 0.0581662 0)
(-0.267001 0.0575456 0)
(-0.272667 0.058326 0)
(-0.316074 0.2064 0)
(-0.292879 0.182066 0)
(-0.286759 0.129897 0)
(-0.283977 0.0212772 0)
(-0.290354 -0.0114224 0)
(-0.305358 0.00467441 0)
(-0.320737 0.0510316 0)
(-0.320847 0.0598837 0)
(-0.32091 0.0548518 0)
(-0.303484 0.0502763 0)
(-0.268661 0.0863835 0)
(-0.240143 0.0984673 0)
(-0.209407 0.0793476 0)
(-0.207523 0.0668655 0)
(-0.219323 0.0700149 0)
(-0.220152 0.0728413 0)
(-0.212849 0.112701 0)
(-0.198423 0.0926283 0)
(-0.189526 0.0416143 0)
(-0.167372 -0.0379375 0)
(-0.249014 0.0521901 0)
(-0.255678 0.0781576 0)
(-0.259417 0.0423397 0)
(-0.255555 0.0244412 0)
(-0.253412 0.0157525 0)
(-0.238962 -0.0287797 0)
(-0.192469 -0.0302192 0)
(-0.1433 -0.0113972 0)
(-0.104784 -0.0307808 0)
(-0.0626495 -0.0985184 0)
(-0.198937 0.063933 0)
(-0.188837 0.12818 0)
(-0.174024 0.0801467 0)
(-0.172958 0.047677 0)
(-0.194152 0.0474409 0)
(-0.202338 -0.00787309 0)
(-0.195471 -0.07504 0)
(-0.191278 -0.0875121 0)
(-0.125514 -0.112494 0)
(-0.0777333 -0.179806 0)
(-0.243925 -0.0326022 0)
(-0.193322 0.0137428 0)
(-0.150424 0.0517588 0)
(-0.131468 0.0721297 0)
(-0.100141 0.0668133 0)
(-0.088902 0.0326295 0)
(-0.0747301 -0.0378314 0)
(-0.0118316 -0.172621 0)
(0.0503664 -0.260712 0)
(0.0993557 -0.323516 0)
(-0.150457 -0.0684055 0)
(-0.146961 -0.120542 0)
(-0.102457 -0.0898167 0)
(-0.0553807 -0.0543701 0)
(-0.0050763 -0.046397 0)
(-0.00594922 -0.0981977 0)
(0.0274898 -0.245924 0)
(0.126546 -0.353142 0)
(0.181338 -0.377181 0)
(0.230607 -0.414482 0)
(0.0929402 -0.0470685 0)
(0.0985619 -0.073465 0)
(0.109227 -0.09435 0)
(0.130214 -0.0804468 0)
(0.178648 -0.0921574 0)
(0.242911 -0.0225929 0)
(0.318043 -0.25635 0)
(0.297723 -0.420253 0)
(0.296446 -0.43943 0)
(0.305056 -0.455016 0)
(0.185059 -0.114545 0)
(0.188804 -0.142981 0)
(0.203098 -0.165064 0)
(0.237528 -0.193206 0)
(0.275419 -0.288319 0)
(0.338978 -0.280075 0)
(0.39003 -0.306921 0)
(0.382354 -0.367572 0)
(0.379279 -0.407482 0)
(0.3752 -0.469946 0)
(0.231698 -0.0838734 0)
(0.242152 -0.144414 0)
(0.28698 -0.177599 0)
(0.317234 -0.255576 0)
(0.331455 -0.299742 0)
(0.3483 -0.31571 0)
(0.364144 -0.363494 0)
(0.386045 -0.393497 0)
(0.409076 -0.425042 0)
(0.443581 -0.50429 0)
(0.219087 -0.0868343 0)
(0.245581 -0.219655 0)
(0.275849 -0.264946 0)
(0.294195 -0.289772 0)
(0.314492 -0.335243 0)
(0.341637 -0.373482 0)
(0.356942 -0.396027 0)
(0.378921 -0.424645 0)
(0.413534 -0.489842 0)
(0.479882 -0.655234 0)
(0.228744 -0.200362 0)
(0.251683 -0.258432 0)
(0.276564 -0.288842 0)
(0.288354 -0.343465 0)
(0.314019 -0.373675 0)
(0.318384 -0.396684 0)
(0.327014 -0.43197 0)
(0.360763 -0.500688 0)
(0.421148 -0.662621 0)
(0.534788 -0.869773 0)
(0.240481 -0.247882 0)
(0.251633 -0.292143 0)
(0.267299 -0.332847 0)
(0.275835 -0.369982 0)
(0.277091 -0.38452 0)
(0.272805 -0.414775 0)
(0.290714 -0.499711 0)
(0.352306 -0.682045 0)
(0.450518 -0.913739 0)
(0.610815 -1.10694 0)
(0.239414 -0.284688 0)
(0.240872 -0.317466 0)
(0.252043 -0.34866 0)
(0.235584 -0.36232 0)
(0.240001 -0.370882 0)
(0.228748 -0.442773 0)
(0.260607 -0.69047 0)
(0.340131 -0.862616 0)
(0.472913 -1.11927 0)
(0.515968 -1.21709 0)
(0.217669 -0.299053 0)
(0.217887 -0.321384 0)
(0.21422 -0.328781 0)
(0.198607 -0.331124 0)
(0.194004 -0.349036 0)
(0.183029 -0.517977 0)
(0.211121 -0.804105 0)
(0.226915 -0.923779 0)
(0.297709 -1.20773 0)
(0.257637 -1.19925 0)
(0.202144 -0.30532 0)
(0.202552 -0.31135 0)
(0.200435 -0.315324 0)
(0.184473 -0.304387 0)
(0.171733 -0.327202 0)
(0.166473 -0.530567 0)
(0.0972714 -0.782248 0)
(0.0655061 -0.826889 0)
(0.0446395 -1.04447 0)
(-0.0990597 -0.909181 0)
(0.194524 -0.304034 0)
(0.195566 -0.313832 0)
(0.200114 -0.311006 0)
(0.194596 -0.276944 0)
(0.188534 -0.28611 0)
(0.167519 -0.448358 0)
(0.064765 -0.686084 0)
(0.0169039 -0.739496 0)
(-0.060753 -0.748179 0)
(-0.342166 -0.41583 0)
(0.174978 -0.310145 0)
(0.186441 -0.326193 0)
(0.202269 -0.323426 0)
(0.216598 -0.283147 0)
(0.233735 -0.270318 0)
(0.242956 -0.303557 0)
(0.15723 -0.516119 0)
(0.0513967 -0.610555 0)
(0.00811281 -0.512397 0)
(-0.130954 -0.138662 0)
(0.099429 -0.309763 0)
(0.121648 -0.367849 0)
(0.164931 -0.379924 0)
(0.230206 -0.348774 0)
(0.281595 -0.310385 0)
(0.331386 -0.285414 0)
(0.31986 -0.298831 0)
(0.229565 -0.417128 0)
(0.144051 -0.424723 0)
(0.13999 -0.200235 0)
(-0.0645827 -0.265319 0)
(-0.0154264 -0.436649 0)
(0.0816248 -0.497665 0)
(0.209116 -0.481335 0)
(0.304986 -0.411778 0)
(0.378928 -0.296308 0)
(0.376822 -0.23348 0)
(0.345998 -0.221275 0)
(0.234509 -0.231538 0)
(0.117212 -0.116624 0)
(-0.196565 -0.256145 0)
(-0.144081 -0.701736 0)
(-0.0310805 -0.852492 0)
(0.122031 -0.822103 0)
(0.211453 -0.656509 0)
(0.303433 -0.372644 0)
(0.325285 -0.198462 0)
(0.302675 -0.111038 0)
(0.214653 -0.0757702 0)
(0.140975 -0.0250938 0)
(-0.238877 -0.398886 0)
(-0.21063 -0.980109 0)
(-0.127842 -1.1455 0)
(-0.0147938 -1.12162 0)
(0.0559652 -0.910962 0)
(0.130367 -0.521313 0)
(0.168725 -0.248611 0)
(0.17688 -0.0892241 0)
(0.175714 -0.0190383 0)
(0.0950944 0.0685136 0)
(-0.165119 -0.0490344 0)
(-0.189432 -1.04855 0)
(-0.178977 -1.23009 0)
(-0.126086 -1.20074 0)
(-0.090042 -0.957116 0)
(0.00100502 -0.498093 0)
(-0.028326 -0.314971 0)
(-0.00780262 -0.13591 0)
(-0.0538539 0.0880555 0)
(-0.132968 0.205055 0)
(-0.104129 0.134209 0)
(-0.180932 -1.05854 0)
(-0.197538 -1.25611 0)
(-0.180932 -1.21935 0)
(-0.178419 -0.994785 0)
(-0.0731482 -0.439179 0)
(-0.17791 -0.185998 0)
(-0.225511 0.0819884 0)
(-0.273587 0.224766 0)
(-0.284335 0.238159 0)
(-0.0669133 0.0807759 0)
(-0.148665 -0.962707 0)
(-0.202345 -1.25871 0)
(-0.186572 -1.2392 0)
(-0.181108 -1.11489 0)
(-0.128244 -0.487122 0)
(-0.141915 -0.0416248 0)
(-0.203529 0.153118 0)
(-0.229851 0.238341 0)
(-0.259317 0.234722 0)
(0.145422 0.00739152 0)
(-0.0257339 -0.431026 0)
(-0.12606 -1.22293 0)
(-0.132211 -1.24842 0)
(-0.0974805 -1.17145 0)
(-0.0923514 -0.808579 0)
(0.03774 0.0316512 0)
(-0.111171 0.205489 0)
(-0.134387 0.329055 0)
(-0.202273 0.291186 0)
(0.0899689 0.0321734 0)
(0.0236239 -0.203412 0)
(-0.106375 -1.14016 0)
(-0.109405 -1.24038 0)
(-0.0733115 -1.19677 0)
(-0.0812593 -0.930964 0)
(0.061404 0.0517802 0)
(-0.140208 0.314027 0)
(-0.118068 0.390834 0)
(-0.126258 0.400127 0)
(-0.033094 -0.203502 0)
(-0.0202089 -0.0752017 0)
(-0.0983041 -1.10957 0)
(-0.102468 -1.23206 0)
(-0.0748994 -1.20639 0)
(-0.12974 -1.00422 0)
(0.020698 0.267043 0)
(-0.136263 0.517446 0)
(-0.0877372 0.358744 0)
(-0.0781705 0.386067 0)
(-0.054708 -0.252796 0)
(0.000625415 0.0628028 0)
(-0.0747119 -1.11587 0)
(-0.083616 -1.21933 0)
(-0.058234 -1.20089 0)
(-0.0946074 -1.07771 0)
(-0.00666149 0.188498 0)
(0.116337 0.542678 0)
(0.226921 0.38955 0)
(0.0963513 0.36847 0)
(-0.167096 -0.162214 0)
(-0.0775525 0.0108715 0)
(-0.0590159 -1.03688 0)
(-0.0916872 -1.20478 0)
(-0.0472191 -1.20264 0)
(-0.0873405 -1.15646 0)
(0.0352697 -0.202157 0)
(0.222916 -0.0401624 0)
(0.42272 0.185139 0)
(0.416056 0.480882 0)
(-0.106351 -0.344315 0)
(0.0429158 -0.358717 0)
(0.010456 -0.882253 0)
(-0.0215273 -1.19516 0)
(-0.00601073 -1.201 0)
(-0.0320257 -1.18634 0)
(0.0178321 -0.796006 0)
(0.253568 -0.0491954 0)
(0.142448 0.0505986 0)
(0.221693 0.289048 0)
(0.0876809 -0.219678 0)
(0.0354145 -0.390586 0)
(0.0297424 -0.809059 0)
(-0.000651801 -1.18337 0)
(0.00632078 -1.19552 0)
(-0.0107929 -1.18205 0)
(-0.00581966 -0.909228 0)
(0.004142 0.0826239 0)
(-0.0610542 0.0950813 0)
(-0.0572449 0.384216 0)
(0.133726 -0.169023 0)
(0.0602455 -0.285883 0)
(0.0210492 -0.732072 0)
(-0.00519318 -1.1708 0)
(0.000713253 -1.17433 0)
(-0.0171197 -1.16939 0)
(-0.0562523 -0.782757 0)
(-0.0919594 0.0173759 0)
(-0.0381942 0.146286 0)
(-0.12423 0.256651 0)
(0.131707 -0.127187 0)
(0.0545422 -0.191027 0)
(0.024019 -0.665654 0)
(0.00315025 -1.15082 0)
(0.00691006 -1.15911 0)
(-0.0169878 -1.14019 0)
(-0.0136288 -0.659394 0)
(-0.0566113 0.0606917 0)
(-0.0391052 0.183767 0)
(-0.0255477 0.249918 0)
(0.0813395 -0.0511056 0)
(0.0326187 -0.132066 0)
(0.0433215 -0.61052 0)
(0.0176066 -1.14087 0)
(0.0224364 -1.13696 0)
(-0.00493879 -1.13146 0)
(0.0251125 -0.606064 0)
(-0.111659 0.112248 0)
(-0.107562 0.0943766 0)
(-0.0587327 0.22388 0)
(0.0800179 0.00775401 0)
(0.0392448 -0.0722178 0)
(0.0436108 -0.60214 0)
(0.0201816 -1.12064 0)
(0.015003 -1.10999 0)
(-0.0157945 -1.11873 0)
(0.069537 -0.735647 0)
(0.0129697 0.293968 0)
(-0.0155942 -0.0194396 0)
(-0.133262 0.156425 0)
(0.0380384 0.0416453 0)
(0.0121079 -0.0552943 0)
(0.0160613 -0.599819 0)
(-0.000653344 -1.10692 0)
(0.00401089 -1.08329 0)
(-0.0170347 -1.0819 0)
(0.013327 -0.954754 0)
(0.0713456 0.50497 0)
(-0.0893411 0.280889 0)
(-0.0922041 0.377478 0)
(0.0241964 0.110339 0)
(0.00585557 -0.0346224 0)
(0.0231185 -0.595034 0)
(0.0157855 -1.08832 0)
(0.0115012 -1.05921 0)
(-0.00977774 -1.05503 0)
(-0.0125096 -1.05538 0)
(0.072276 0.634394 0)
(0.249502 0.304358 0)
(0.336563 0.258017 0)
(-0.00880789 0.126615 0)
(-0.0117759 -0.0359857 0)
(0.0189696 -0.634512 0)
(0.00954345 -1.06967 0)
(0.0118268 -1.03689 0)
(-0.00899542 -1.03668 0)
(-0.010093 -1.07292 0)
(0.00319038 0.0377893 0)
(0.316539 -0.117629 0)
(0.358115 -0.0540462 0)
(-0.0340096 0.0946434 0)
(-0.0152444 -0.0903305 0)
(0.0191598 -0.68864 0)
(0.007748 -1.04846 0)
(0.00922828 -1.01773 0)
(-0.00897921 -1.01686 0)
(-0.00589673 -1.04267 0)
(0.00324056 -0.507633 0)
(0.152627 -0.0295628 0)
(0.0841187 0.162778 0)
(-0.00726825 0.0520175 0)
(-0.00672954 -0.11823 0)
(0.0203804 -0.72202 0)
(0.0040532 -1.02875 0)
(0.00881386 -1.005 0)
(-0.00780391 -1.00411 0)
(-0.00435557 -1.02639 0)
(-0.00924428 -0.527659 0)
(0.00716762 0.00628244 0)
(-0.0301338 0.207176 0)
(0.0281488 0.0408463 0)
(0.00259563 -0.122427 0)
(0.0217902 -0.730825 0)
(0.00658538 -1.00954 0)
(0.00861169 -0.991704 0)
(-0.0082727 -0.993318 0)
(-0.00354505 -1.00435 0)
(-0.0189322 -0.556753 0)
(-0.0144759 0.0491852 0)
(-0.0450876 0.234267 0)
(0.0607562 0.0419105 0)
(0.0366019 -0.0584004 0)
(0.0134019 -0.708602 0)
(-0.00213517 -0.990318 0)
(0.00374089 -0.978194 0)
(-0.0127763 -0.977328 0)
(-0.0126931 -0.98747 0)
(-0.0383151 -0.559136 0)
(-0.015782 0.1061 0)
(-0.0503135 0.260293 0)
(0.00943464 0.0351839 0)
(0.00712833 -0.00711988 0)
(0.0274584 -0.706827 0)
(0.00773615 -0.973053 0)
(0.00860581 -0.960723 0)
(-0.00960274 -0.96022 0)
(-0.00673396 -0.969707 0)
(-0.0361239 -0.569104 0)
(-0.00747053 0.0985104 0)
(-0.0232684 0.291901 0)
(-0.0772856 0.0132317 0)
(-0.0109777 -0.123585 0)
(0.0266175 -0.72417 0)
(0.00695828 -0.953737 0)
(0.00822145 -0.938831 0)
(-0.0133047 -0.938998 0)
(-0.0128381 -0.951696 0)
(-0.0311643 -0.579483 0)
(-0.00329945 0.0840512 0)
(-0.00817881 0.330246 0)
(-0.0477807 -0.0531703 0)
(0.011939 -0.231618 0)
(0.0274012 -0.72793 0)
(0.0132265 -0.934449 0)
(0.0126163 -0.916171 0)
(-0.0101764 -0.91516 0)
(-0.011419 -0.932552 0)
(-0.0259226 -0.58057 0)
(-0.0154 0.0565943 0)
(0.00683201 0.341538 0)
(0.00233045 -0.108294 0)
(0.0252585 -0.258525 0)
(0.0279345 -0.726167 0)
(0.0125486 -0.913436 0)
(0.0117895 -0.892241 0)
(-0.0100393 -0.893714 0)
(-0.0107424 -0.911633 0)
(-0.0184691 -0.586627 0)
(-0.0310824 0.0168907 0)
(-0.00939877 0.33856 0)
(-0.00354366 -0.160106 0)
(0.0218881 -0.29198 0)
(0.028254 -0.72542 0)
(0.0117512 -0.890875 0)
(0.0108848 -0.870881 0)
(-0.00920066 -0.870798 0)
(-0.0101852 -0.889176 0)
(-0.0212815 -0.527435 0)
(-0.0639481 0.092952 0)
(-0.0519597 0.330932 0)
(-0.0155705 -0.225227 0)
(0.0228073 -0.358573 0)
(0.0275678 -0.727242 0)
(0.0101174 -0.869884 0)
(0.0104509 -0.852266 0)
(-0.00885776 -0.852901 0)
(-0.0100357 -0.867598 0)
(-0.0177048 -0.513913 0)
(-0.0560771 0.106596 0)
(-0.0658335 0.177777 0)
(0.0075565 -0.27304 0)
(0.0313311 -0.383134 0)
(0.0273534 -0.716606 0)
(0.0105664 -0.848418 0)
(0.0105427 -0.833374 0)
(-0.00874544 -0.832162 0)
(-0.0089917 -0.845966 0)
(-0.00791194 -0.604605 0)
(0.016426 0.19519 0)
(-0.0143984 0.096851 0)
(0.0494817 -0.320881 0)
(0.0692889 -0.3631 0)
(0.0292783 -0.658533 0)
(0.00885628 -0.830409 0)
(0.00919021 -0.815604 0)
(-0.011334 -0.812781 0)
(-0.00944606 -0.826722 0)
(-0.0291641 -0.625095 0)
(0.0332741 0.196206 0)
(0.0749693 0.137534 0)
(0.0521981 -0.379058 0)
(0.0588 -0.306924 0)
(0.0243336 -0.628377 0)
(0.00781855 -0.809241 0)
(0.0101251 -0.794833 0)
(-0.0117817 -0.788031 0)
(-0.0124775 -0.8048 0)
(-0.0338541 -0.637799 0)
(-0.00739111 -0.0100599 0)
(0.071449 0.104067 0)
(0.00961633 -0.404313 0)
(0.0235691 -0.283746 0)
(0.0411093 -0.633671 0)
(0.020283 -0.784827 0)
(0.0216606 -0.768503 0)
(-0.00033693 -0.76791 0)
(-0.00210058 -0.781133 0)
(-0.0194573 -0.634888 0)
(-0.024484 -0.067562 0)
(0.0127391 0.107628 0)
(-0.0205047 -0.38885 0)
(-0.000948927 -0.330095 0)
(0.0379585 -0.661168 0)
(0.0141477 -0.762678 0)
(0.0123393 -0.741146 0)
(-0.0105301 -0.744404 0)
(-0.0127994 -0.759063 0)
(-0.0259198 -0.609641 0)
(-0.0433638 -0.0774386 0)
(-0.0299165 0.0970444 0)
(0.021024 -0.343798 0)
(0.0279522 -0.38069 0)
(0.0111974 -0.646889 0)
(0.00144841 -0.73663 0)
(-0.00413511 -0.715237 0)
(-0.019656 -0.709966 0)
(-0.0328189 -0.734516 0)
(-0.0596296 -0.60317 0)
(-0.0575682 -0.083105 0)
(-0.0417503 0.0823001 0)
(0.0801611 -0.328316 0)
(0.0746366 -0.359469 0)
(0.0463305 -0.613759 0)
(0.0299928 -0.709725 0)
(0.0193579 -0.690229 0)
(0.0018206 -0.680261 0)
(-0.00984746 -0.696843 0)
(-0.0331008 -0.574582 0)
(-0.0652885 -0.0573512 0)
(-0.05646 0.0740039 0)
(0.0947664 -0.313088 0)
(0.0783189 -0.311606 0)
(0.0379039 -0.565149 0)
(0.0220825 -0.673436 0)
(0.00517561 -0.648301 0)
(-0.00491941 -0.645033 0)
(-0.0152665 -0.662406 0)
(-0.0238583 -0.532034 0)
(-0.0488216 -0.0525452 0)
(-0.0449067 0.0572387 0)
(0.10155 -0.288747 0)
(0.0415094 -0.249742 0)
(0.022982 -0.514873 0)
(0.00338124 -0.644759 0)
(-0.00764742 -0.636142 0)
(-0.0206291 -0.630396 0)
(-0.0318844 -0.646458 0)
(-0.0454556 -0.514099 0)
(-0.0583874 -0.0202848 0)
(-0.0594012 0.0305663 0)
(0.121588 -0.212847 0)
(0.0182254 -0.150971 0)
(0.0569494 -0.487951 0)
(0.0387821 -0.607708 0)
(0.0263579 -0.601917 0)
(0.0127151 -0.593675 0)
(0.000707595 -0.601158 0)
(-0.0130379 -0.539971 0)
(-0.00754133 0.021545 0)
(-0.0442496 0.0279593 0)
(0.144129 -0.163913 0)
(0.0268813 -0.0606541 0)
(0.0767093 -0.534072 0)
(0.0511526 -0.582668 0)
(0.0448106 -0.578876 0)
(0.0257923 -0.582758 0)
(0.00594381 -0.576955 0)
(0.00750847 -0.554672 0)
(-0.0162771 0.0556337 0)
(0.0177626 0.0918199 0)
(0.0573173 0.0511465 0)
(0.0116325 -0.0373318 0)
(0.0566822 -0.545336 0)
(0.0205735 -0.543724 0)
(0.0108046 -0.537907 0)
(-0.00654196 -0.541071 0)
(-0.0326111 -0.547708 0)
(-0.0370475 -0.499125 0)
(-0.0278203 -0.00764044 0)
(0.025399 0.0824947 0)
(-0.0329856 0.195157 0)
(0.0455435 -0.188017 0)
(0.0582449 -0.491191 0)
(0.0297909 -0.507378 0)
(0.0143932 -0.508509 0)
(0.00129971 -0.509214 0)
(-0.021569 -0.501883 0)
(-0.0367672 -0.502361 0)
(-0.0119022 -0.108281 0)
(0.00238389 0.0669325 0)
(0.0238615 0.116842 0)
(0.0632263 -0.224924 0)
(0.0510792 -0.456132 0)
(0.0281289 -0.472916 0)
(0.0094946 -0.473578 0)
(-0.016961 -0.473668 0)
(-0.0396734 -0.466567 0)
(-0.0667345 -0.441269 0)
(-0.069635 -0.133183 0)
(-0.0472452 0.0858658 0)
(0.0430801 0.00222701 0)
(0.0722524 -0.227679 0)
(0.0651261 -0.409261 0)
(0.0236789 -0.426448 0)
(0.000260528 -0.425816 0)
(-0.0210976 -0.424099 0)
(-0.0396683 -0.418288 0)
(-0.0707268 -0.397848 0)
(-0.0655518 -0.18831 0)
(-0.0462455 0.0761606 0)
(-0.00726353 -0.0765226 0)
(0.0697674 -0.280765 0)
(0.0562223 -0.3646 0)
(0.0381395 -0.379272 0)
(0.0207437 -0.385042 0)
(-0.00451459 -0.385431 0)
(-0.0283721 -0.381096 0)
(-0.0671359 -0.35803 0)
(-0.0721378 -0.258264 0)
(0.0107171 0.0534843 0)
(0.0917195 -0.136232 0)
(0.0683985 -0.287136 0)
(0.0629134 -0.315868 0)
(0.0220094 -0.330579 0)
(-0.00311603 -0.333082 0)
(-0.0295178 -0.331757 0)
(-0.0473543 -0.327606 0)
(-0.0718175 -0.311397 0)
(-0.0752299 -0.27905 0)
(-0.0775289 -0.0337661 0)
(0.0915345 -0.2063 0)
(0.0750093 -0.224564 0)
(0.06775 -0.262492 0)
(0.0422133 -0.282543 0)
(0.0228568 -0.288414 0)
(-0.00400868 -0.286313 0)
(-0.0309834 -0.280618 0)
(-0.0681535 -0.260366 0)
(-0.0744328 -0.219412 0)
(-0.0980215 -0.167046 0)
(0.0548291 -0.134955 0)
(0.0495241 -0.194582 0)
(0.0402066 -0.233953 0)
(0.0135186 -0.245924 0)
(0.00101115 -0.250032 0)
(-0.0205062 -0.249449 0)
(-0.0288515 -0.241619 0)
(-0.045653 -0.232084 0)
(-0.0506011 -0.193091 0)
(-0.0606308 -0.115323 0)
(-0.122197 0.01879 0)
(-0.141686 0.0222576 0)
(-0.158466 0.0142174 0)
(-0.170991 -0.000229496 0)
(-0.177962 -0.00655677 0)
(-0.184289 -0.00563298 0)
(-0.190137 -0.00202715 0)
(-0.193018 -0.00033168 0)
(-0.193499 0.00018657 0)
(-0.191329 0.000425514 0)
(-0.184575 -0.00101871 0)
(-0.174542 -0.00209013 0)
(-0.163284 -0.00247297 0)
(-0.151979 -0.00280533 0)
(-0.141388 -0.00407656 0)
(-0.131962 -0.00663257 0)
(-0.122664 -0.00920907 0)
(-0.117201 -0.00895686 0)
(-0.114675 -0.0062018 0)
(-0.117435 0.00224797 0)
(-0.131619 0.016658 0)
(-0.1431 0.0205021 0)
(-0.152571 0.0188744 0)
(-0.174801 0.0235981 0)
(-0.201076 0.0268584 0)
(-0.217602 0.0187985 0)
(-0.222558 0.00507028 0)
(-0.21214 -0.00922609 0)
(-0.195492 -0.0146523 0)
(-0.179287 -0.0156598 0)
(-0.148583 -0.0308291 0)
(-0.107287 -0.0443786 0)
(-0.0655937 -0.0413928 0)
(-0.0223626 -0.0256293 0)
(0.00836782 -0.0144314 0)
(0.00862432 0.00518425 0)
(-0.00495778 0.0100983 0)
(-0.00576754 0.00593802 0)
(0.000649148 0.00526818 0)
(0.0013073 0.0035888 0)
(-0.169647 0.0454579 0)
(-0.17943 0.0399893 0)
(-0.191122 0.037098 0)
(-0.20449 0.036574 0)
(-0.215836 0.0344976 0)
(-0.223476 0.0271454 0)
(-0.226518 0.018005 0)
(-0.227303 0.0087118 0)
(-0.223803 -0.0032721 0)
(-0.213974 -0.0161364 0)
(-0.199545 -0.0265865 0)
(-0.182835 -0.0336122 0)
(-0.166385 -0.0360654 0)
(-0.151192 -0.0346723 0)
(-0.137392 -0.0298578 0)
(-0.124388 -0.0240639 0)
(-0.11281 -0.0160929 0)
(-0.102828 -0.00403186 0)
(-0.0989499 0.00892022 0)
(-0.112575 0.0196744 0)
(-0.126082 0.0277998 0)
(-0.130322 0.0302574 0)
(-0.130147 0.0334403 0)
(-0.141469 0.0453036 0)
(-0.172745 0.0484053 0)
(-0.193695 0.0234619 0)