/*--------------------------------*- C++ -*----------------------------------*\
  =========                 |
  \\      /  F ield         | OpenFOAM: The Open Source CFD Toolbox
   \\    /   O peration     | Website:  https://openfoam.org
    \\  /    A nd           | Version:  8
     \\/     M anipulation  |
\*---------------------------------------------------------------------------*/
FoamFile
{
    version     2.0;
    format      ascii;
    class       surfaceScalarField;
    location    "2.9";
    object      alphaPhi0.water;
}
// * * * * * * * * * * * * * * * * * * * * * * * * * * * * * * * * * * * * * //

dimensions      [0 3 -1 0 0 0 0];

internalField   nonuniform List<scalar> 
18095
(
1.57834e-07
-9.66153e-07
8.08319e-07
1.6507e-07
-1.24789e-06
1.24065e-06
1.22125e-07
-1.24206e-06
1.285e-06
6.53766e-08
-1.26337e-06
1.32011e-06
1.29206e-10
-1.28035e-06
1.3456e-06
-6.51416e-08
-1.28038e-06
1.34565e-06
-1.21947e-07
-1.26343e-06
1.32024e-06
-1.64956e-07
-1.24213e-06
1.28514e-06
-1.57788e-07
-1.24795e-06
1.24078e-06
-9.66296e-07
8.08508e-07
1.1086e-07
-1.07701e-06
9.92618e-08
-1.23629e-06
7.28229e-08
-1.21562e-06
4.00722e-08
-1.23061e-06
8.69166e-11
-1.24037e-06
-3.99117e-08
-1.24038e-06
-7.26957e-08
-1.23065e-06
-9.91665e-08
-1.21566e-06
-1.10806e-07
-1.23631e-06
-1.0771e-06
6.69818e-08
-1.144e-06
5.26556e-08
-1.22196e-06
4.20937e-08
-1.20506e-06
2.38695e-08
-1.21239e-06
5.55926e-11
-1.21655e-06
-2.37657e-08
-1.21656e-06
-4.20099e-08
-1.2124e-06
-5.2592e-08
-1.20507e-06
-6.69358e-08
-1.22196e-06
-1.14404e-06
3.95214e-08
-1.18352e-06
2.65872e-08
-1.20903e-06
2.19904e-08
-1.20046e-06
1.25266e-08
-1.20293e-06
3.13137e-11
-1.20406e-06
-1.24677e-08
-1.20406e-06
-2.19422e-08
-1.20293e-06
-2.65514e-08
-1.20047e-06
-3.94907e-08
-1.20902e-06
-1.18353e-06
1.64835e-08
7.45671e-09
6.9966e-09
4.06989e-09
1.03595e-11
-4.05034e-09
-6.98075e-09
-7.44605e-09
-1.64711e-08
-1.73015e-07
-1.16419e-06
1.3372e-06
-2.16707e-07
-1.21544e-06
1.25913e-06
-1.63338e-07
-1.21209e-06
1.15873e-06
-8.56821e-08
-1.20372e-06
1.12607e-06
1.40859e-09
-1.20247e-06
1.11538e-06
8.84584e-08
-1.20269e-06
1.11564e-06
1.65834e-07
-1.20431e-06
1.12694e-06
2.18949e-07
-1.21293e-06
1.15982e-06
1.75078e-07
-1.21661e-06
1.26048e-06
-1.16554e-06
1.34062e-06
-9.31023e-08
-1.07108e-06
-9.53103e-08
-1.21323e-06
-7.8579e-08
-1.22883e-06
-4.3433e-08
-1.23887e-06
7.9674e-10
-1.2467e-06
4.49619e-08
-1.24685e-06
7.99383e-08
-1.23929e-06
9.64226e-08
-1.22941e-06
9.374e-08
-1.21392e-06
-1.0718e-06
-5.77242e-08
-1.01336e-06
-5.48683e-08
-1.21609e-06
-4.60942e-08
-1.2376e-06
-2.66374e-08
-1.25833e-06
4.79314e-10
-1.27382e-06
2.75493e-08
-1.27392e-06
4.68736e-08
-1.25861e-06
5.54377e-08
-1.23798e-06
5.80022e-08
-1.21649e-06
-1.0138e-06
-7.43484e-08
-9.39012e-07
-6.14737e-08
-1.22897e-06
-4.82173e-08
-1.25086e-06
-2.74482e-08
-1.2791e-06
2.97881e-10
-1.30156e-06
2.80102e-08
-1.30164e-06
4.86836e-08
-1.27929e-06
6.17889e-08
-1.25108e-06
7.44955e-08
-1.22919e-06
-9.39305e-07
-1.30693e-07
-1.19009e-07
-8.48619e-08
-4.38444e-08
1.93811e-10
4.4208e-08
8.51589e-08
1.19212e-07
1.30797e-07
-2.80621e-08
-9.16679e-07
9.44742e-07
1.92197e-08
-1.33628e-06
1.289e-06
2.35617e-08
-1.27355e-06
1.26921e-06
1.92888e-08
-1.22487e-06
1.22915e-06
1.49609e-08
-1.22205e-06
1.22638e-06
1.03347e-08
-1.22406e-06
1.22869e-06
4.43407e-09
-1.22691e-06
1.23281e-06
1.26166e-08
-1.2732e-06
1.26501e-06
6.44552e-08
-1.34565e-06
1.29381e-06
-9.56742e-07
1.0212e-06
1.90823e-08
-9.35762e-07
2.90414e-08
-1.34624e-06
2.16785e-08
-1.26619e-06
1.60393e-08
-1.21924e-06
1.02558e-08
-1.21627e-06
3.99425e-09
-1.2178e-06
-2.77202e-09
-1.22014e-06
-7.86639e-09
-1.2681e-06
-2.93623e-09
-1.35058e-06
-9.59678e-07
3.29526e-08
-9.68714e-07
2.48999e-08
-1.33819e-06
1.69087e-08
-1.2582e-06
1.22427e-08
-1.21457e-06
6.62049e-09
-1.21064e-06
1.63807e-10
-1.21134e-06
-5.01917e-09
-1.21496e-06
-1.32798e-08
-1.25984e-06
-2.3138e-08
-1.34072e-06
-9.82816e-07
8.17197e-08
-1.05043e-06
5.4834e-08
-1.3113e-06
3.66288e-08
-1.23999e-06
2.43723e-08
-1.20231e-06
3.85549e-09
-1.19013e-06
-1.70622e-08
-1.19042e-06
-2.8511e-08
-1.20351e-06
-4.64698e-08
-1.24188e-06
-7.47504e-08
-1.31244e-06
-1.05757e-06
2.86768e-07
2.34598e-07
1.53329e-07
7.70838e-08
2.33695e-09
-7.24473e-08
-1.4902e-07
-2.31087e-07
-2.83055e-07
-1.1737e-07
2.10398e-09
1.15266e-07
-1.19443e-07
2.07065e-09
-1.21468e-07
2.02536e-09
-1.23433e-07
1.96617e-09
-1.25325e-07
1.89134e-09
-1.27126e-07
1.80087e-09
-1.28819e-07
1.6923e-09
-1.30382e-07
1.56355e-09
-1.31795e-07
1.41255e-09
1.23663e-09
-1.33031e-07
-1.22382e-07
4.05638e-09
1.20429e-07
-1.24269e-07
3.9555e-09
-1.26072e-07
3.82837e-09
-1.27779e-07
3.67338e-09
-1.29374e-07
3.48811e-09
-1.30844e-07
3.2707e-09
-1.32171e-07
3.01904e-09
-1.33338e-07
2.73065e-09
-1.34329e-07
2.40366e-09
2.03624e-09
-1.35128e-07
-1.21283e-07
5.88104e-09
1.19458e-07
-1.23039e-07
5.70967e-09
-1.24712e-07
5.50222e-09
-1.26295e-07
5.25607e-09
-1.27775e-07
4.96843e-09
-1.29141e-07
4.6365e-09
-1.3038e-07
4.25771e-09
-1.31479e-07
3.82982e-09
-1.32426e-07
3.35108e-09
2.82041e-09
-1.3321e-07
-1.19872e-07
7.61928e-09
1.18134e-07
-1.21544e-07
7.38046e-09
-1.23139e-07
7.0981e-09
-1.24652e-07
6.76875e-09
-1.26073e-07
6.38901e-09
-1.27392e-07
5.95562e-09
-1.286e-07
5.46572e-09
-1.29687e-07
4.9168e-09
-1.30643e-07
4.30707e-09
3.63535e-09
-1.31458e-07
-1.18488e-07
9.30238e-09
1.16805e-07
-1.2011e-07
9.00178e-09
-1.21663e-07
8.65185e-09
-1.23143e-07
8.24858e-09
-1.24542e-07
7.78792e-09
-1.25853e-07
7.26616e-09
-1.27067e-07
6.68001e-09
-1.28177e-07
6.02668e-09
-1.29175e-07
5.30404e-09
4.51065e-09
-1.3005e-07
-1.17222e-07
1.0954e-08
1.1557e-07
-1.18819e-07
1.05988e-08
-1.20357e-07
1.019e-08
-1.21832e-07
9.72289e-09
-1.23237e-07
9.19285e-09
-1.24566e-07
8.59567e-09
-1.25814e-07
7.9276e-09
-1.26973e-07
7.18547e-09
-1.28036e-07
6.36673e-09
5.46963e-09
-1.28995e-07
-1.16112e-07
1.25918e-08
1.14474e-07
-1.17704e-07
1.21904e-08
-1.19246e-07
1.17321e-08
-1.20735e-07
1.12116e-08
-1.22166e-07
1.06238e-08
-1.23535e-07
9.96394e-09
-1.24835e-07
9.22765e-09
-1.26061e-07
8.41138e-09
-1.27206e-07
7.51215e-09
6.52778e-09
-1.28264e-07
-1.15175e-07
1.42282e-08
1.13538e-07
-1.16774e-07
1.37895e-08
-1.18334e-07
1.32915e-08
-1.19851e-07
1.27285e-08
-1.21321e-07
1.20945e-08
-1.22741e-07
1.13842e-08
-1.24106e-07
1.05927e-08
-1.25411e-07
9.71588e-09
-1.26649e-07
8.7504e-09
7.69364e-09
-1.27815e-07
-1.14412e-07
1.58709e-08
1.12769e-07
-1.16027e-07
1.54041e-08
-1.17613e-07
1.48766e-08
-1.19166e-07
1.42819e-08
-1.20685e-07
1.3613e-08
-1.22165e-07
1.28641e-08
-1.23601e-07
1.20296e-08
-1.2499e-07
1.11048e-08
-1.26325e-07
1.00859e-08
8.96981e-09
-1.27602e-07
-1.13822e-07
1.75235e-08
1.12169e-07
-1.15457e-07
1.70384e-08
-1.17072e-07
1.64918e-08
-1.18666e-07
1.5876e-08
-1.20236e-07
1.51836e-08
-1.2178e-07
1.44072e-08
-1.23292e-07
1.35412e-08
-1.24767e-07
1.25799e-08
-1.262e-07
1.15189e-08
1.03547e-08
-1.27585e-07
-1.13401e-07
1.91867e-08
1.11737e-07
-1.15056e-07
1.86933e-08
-1.16702e-07
1.8138e-08
-1.18336e-07
1.75118e-08
-1.19959e-07
1.68066e-08
-1.21566e-07
1.6014e-08
-1.23155e-07
1.51272e-08
-1.24715e-07
1.41399e-08
-1.26243e-07
1.30468e-08
1.18439e-08
-1.27732e-07
-1.13145e-07
2.08578e-08
1.11474e-07
-1.14819e-07
2.03666e-08
-1.16494e-07
1.98134e-08
-1.18169e-07
1.91885e-08
-1.19844e-07
1.84813e-08
-1.21513e-07
1.76833e-08
-1.23174e-07
1.6786e-08
-1.24817e-07
1.57824e-08
-1.26436e-07
1.46659e-08
1.3432e-08
-1.28025e-07
-1.13056e-07
2.25308e-08
1.11384e-07
-1.14741e-07
2.20525e-08
-1.16442e-07
2.15135e-08
-1.18156e-07
2.09014e-08
-1.1988e-07
2.02061e-08
-1.21612e-07
1.94139e-08
-1.23343e-07
1.85164e-08
-1.25066e-07
1.7505e-08
-1.26773e-07
1.63726e-08
1.51137e-08
-1.28455e-07
-1.13144e-07
2.41978e-08
1.11477e-07
-1.14835e-07
2.37439e-08
-1.16542e-07
2.32313e-08
-1.18284e-07
2.26446e-08
-1.20071e-07
2.19752e-08
-1.21862e-07
2.12044e-08
-1.23663e-07
2.0317e-08
-1.25463e-07
1.93059e-08
-1.27256e-07
1.8164e-08
1.68842e-08
-1.29028e-07
-1.13422e-07
2.5848e-08
1.11772e-07
-1.15108e-07
2.54297e-08
-1.16821e-07
2.49571e-08
-1.18581e-07
2.44165e-08
-1.20421e-07
2.37833e-08
-1.22273e-07
2.30568e-08
-1.24147e-07
2.2192e-08
-1.26021e-07
2.11852e-08
-1.27894e-07
2.00362e-08
1.87402e-08
-1.29757e-07
-1.13918e-07
2.74699e-08
1.12297e-07
-1.15587e-07
2.70985e-08
-1.17309e-07
2.66806e-08
-1.19074e-07
2.6197e-08
-1.2089e-07
2.56325e-08
-1.22862e-07
2.4927e-08
-1.2481e-07
2.41414e-08
-1.26766e-07
2.31467e-08
-1.28723e-07
2.19925e-08
2.0684e-08
-1.30667e-07
-1.1467e-07
2.90528e-08
1.13087e-07
-1.16312e-07
2.87402e-08
-1.1802e-07
2.83889e-08
-1.19802e-07
2.79828e-08
-1.21441e-07
2.74924e-08
-1.23108e-07
2.68093e-08
-1.25681e-07
2.60025e-08
-1.27722e-07
2.51871e-08
-1.29766e-07
2.4035e-08
2.27191e-08
-1.31783e-07
-1.15728e-07
3.05904e-08
1.1419e-07
-1.17341e-07
3.03537e-08
-1.19042e-07
3.00896e-08
-1.20839e-07
2.97802e-08
-1.22728e-07
2.94037e-08
-1.24123e-07
2.8809e-08
-1.26151e-07
2.79694e-08
-1.28885e-07
2.7202e-08
-1.31021e-07
2.61723e-08
2.48682e-08
-1.3316e-07
-1.17086e-07
3.20537e-08
1.15622e-07
-1.18636e-07
3.19041e-08
-1.20284e-07
3.1738e-08
-1.22038e-07
3.15341e-08
-1.23898e-07
3.12658e-08
-1.24932e-07
3.07964e-08
-1.27127e-07
3.01223e-08
-1.30238e-07
2.92732e-08
-1.32524e-07
2.84598e-08
2.71786e-08
-1.34829e-07
-1.18838e-07
3.34251e-08
1.17467e-07
-1.20313e-07
3.33793e-08
-1.21907e-07
3.33322e-08
-1.23631e-07
3.32578e-08
-1.25487e-07
3.31237e-08
-1.26385e-07
3.27682e-08
-1.28566e-07
3.22659e-08
-1.31298e-07
3.15806e-08
-1.34437e-07
3.08764e-08
2.96653e-08
-1.36924e-07
-1.21063e-07
3.46772e-08
1.19811e-07
-1.22439e-07
3.47567e-08
-1.23968e-07
3.48608e-08
-1.2567e-07
3.49604e-08
-1.27553e-07
3.50169e-08
-1.28517e-07
3.48607e-08
-1.30764e-07
3.44893e-08
-1.33242e-07
3.40206e-08
-1.36913e-07
3.33443e-08
3.23222e-08
-1.3957e-07
-1.23863e-07
3.57593e-08
1.22781e-07
-1.25077e-07
3.59711e-08
-1.26459e-07
3.62427e-08
-1.28042e-07
3.65442e-08
-1.29858e-07
3.68345e-08
-1.30983e-07
3.70375e-08
-1.33363e-07
3.6846e-08
-1.35776e-07
3.6621e-08
-1.39695e-07
3.61906e-08
3.53108e-08
-1.42684e-07
-1.27506e-07
3.66387e-08
1.26626e-07
-1.2851e-07
3.69752e-08
-1.29682e-07
3.7415e-08
-1.3107e-07
3.79322e-08
-1.32724e-07
3.84897e-08
-1.34698e-07
3.90347e-08
-1.36456e-07
3.9472e-08
-1.38994e-07
3.96348e-08
-1.43112e-07
3.93905e-08
3.87791e-08
-1.4658e-07
-1.32381e-07
3.73218e-08
1.31697e-07
-1.3317e-07
3.77641e-08
-1.34114e-07
3.83592e-08
-1.35272e-07
3.9091e-08
-1.36718e-07
3.99351e-08
-1.38539e-07
4.08564e-08
-1.40712e-07
4.17973e-08
-1.42961e-07
4.25627e-08
-1.47571e-07
4.23258e-08
4.28061e-08
-1.51598e-07
-1.38934e-07
3.78585e-08
1.38398e-07
-1.39543e-07
3.83726e-08
-1.4027e-07
3.90859e-08
-1.41171e-07
3.99923e-08
-1.42319e-07
4.1083e-08
-1.43809e-07
4.23468e-08
-1.45776e-07
4.37666e-08
-1.46468e-07
4.52626e-08
-1.47521e-07
4.56227e-08
4.20682e-08
-1.57453e-07
-1.47706e-07
3.83715e-08
1.47193e-07
-1.4826e-07
3.89269e-08
-1.48896e-07
3.97225e-08
-1.49666e-07
4.07622e-08
-1.50634e-07
4.2051e-08
-1.51886e-07
4.35994e-08
-1.53547e-07
4.54284e-08
-1.55798e-07
4.7552e-08
-1.48245e-07
4.87766e-08
4.12848e-08
-1.398e-07
-1.5918e-07
3.90393e-08
1.58512e-07
-1.59874e-07
3.96218e-08
-1.6064e-07
4.04882e-08
-1.61534e-07
4.16561e-08
-1.62633e-07
4.31502e-08
-1.64041e-07
4.50083e-08
-1.65895e-07
4.72835e-08
-1.68349e-07
5.00305e-08
-1.62703e-07
5.25218e-08
4.42634e-08
-1.48007e-07
-1.73594e-07
3.99936e-08
1.72639e-07
-1.74524e-07
4.05522e-08
-1.7545e-07
4.1415e-08
-1.76398e-07
4.26045e-08
-1.774e-07
4.41521e-08
-1.78494e-07
4.61015e-08
-1.79716e-07
4.85079e-08
-1.81068e-07
5.14182e-08
-1.69409e-07
5.39477e-08
4.69266e-08
-1.40065e-07
-1.91547e-07
4.14633e-08
1.90078e-07
-1.9294e-07
4.19449e-08
-1.94251e-07
4.27256e-08
-1.95476e-07
4.383e-08
-1.96619e-07
4.52948e-08
-1.97676e-07
4.71592e-08
-1.98612e-07
4.94463e-08
-1.9931e-07
5.21521e-08
-1.88456e-07
5.47864e-08
4.97863e-08
-1.45062e-07
-2.13483e-07
4.37211e-08
2.11225e-07
-2.15593e-07
4.40556e-08
-2.17506e-07
4.46387e-08
-2.19179e-07
4.55022e-08
-2.20604e-07
4.67205e-08
-2.21815e-07
4.83698e-08
-2.22812e-07
5.04447e-08
-2.23489e-07
5.28508e-08
-2.23249e-07
5.54338e-08
5.51412e-08
-1.63692e-07
-2.39961e-07
4.71849e-08
2.36498e-07
-2.43216e-07
4.73103e-08
-2.46103e-07
4.75255e-08
-2.48451e-07
4.78507e-08
-2.50206e-07
4.84755e-08
-2.51474e-07
4.96374e-08
-2.52309e-07
5.12809e-08
-2.52429e-07
5.29785e-08
-2.51212e-07
5.43216e-08
5.54795e-08
-2.37e-07
-2.71302e-07
5.25058e-08
2.65981e-07
-2.76525e-07
5.25333e-08
-2.81263e-07
5.22635e-08
-2.84997e-07
5.15843e-08
-2.87614e-07
5.10935e-08
-2.89559e-07
5.15821e-08
-2.9143e-07
5.31521e-08
-2.92838e-07
5.43873e-08
-2.9211e-07
5.36023e-08
5.10798e-08
-2.87618e-07
-3.06669e-07
6.02866e-08
2.98888e-07
-3.14979e-07
6.08432e-08
-3.23064e-07
6.03485e-08
-3.29322e-07
5.78424e-08
-3.33445e-07
5.52161e-08
-3.36804e-07
5.49419e-08
-3.41212e-07
5.75603e-08
-3.48539e-07
6.17167e-08
-3.54744e-07
5.98374e-08
4.32896e-08
-3.4667e-07
-3.42255e-07
6.99246e-08
3.32617e-07
-3.54005e-07
7.25937e-08
-3.69508e-07
7.58512e-08
-3.84132e-07
7.2467e-08
-3.89047e-07
6.01309e-08
-3.8835e-07
5.42447e-08
-3.46004e-07
5.39022e-08
-1.85624e-07
3.38547e-08
-1.30599e-07
1.78822e-08
1.42469e-08
-1.18232e-07
-3.63242e-07
6.85084e-08
3.64658e-07
-2.51083e-07
4.65874e-08
-1.97133e-07
3.24521e-08
-2.34339e-07
2.06002e-08
-2.92006e-07
3.67967e-08
-1.55945e-07
2.90933e-08
-1.22114e-07
1.8515e-08
-1.10416e-07
2.04471e-08
-1.08905e-07
1.47577e-08
9.40118e-09
-1.06019e-07
-1.27855e-07
2.97914e-08
1.67855e-07
-1.13023e-07
2.87438e-08
-1.19547e-07
3.54125e-08
-1.31458e-07
3.18908e-08
-1.20285e-07
2.54684e-08
-1.16087e-07
2.37707e-08
-1.13432e-07
1.44729e-08
-1.08776e-07
1.45239e-08
-1.08485e-07
1.28826e-08
9.32631e-09
-2.8414e-07
-1.08783e-07
3.18958e-08
1.03446e-07
-1.14799e-07
3.15272e-08
-1.19647e-07
3.66702e-08
-2.15692e-07
5.44081e-08
-3.49644e-07
8.37211e-08
-3.58591e-07
6.86616e-08
-3.49688e-07
5.07975e-08
-3.92212e-07
3.20408e-08
-4.03297e-07
1.30336e-08
-6.30705e-09
-3.89187e-07
-1.27695e-07
4.82209e-08
1.08177e-07
-2.40042e-07
8.96976e-08
-3.46096e-07
1.11454e-07
-4.13343e-07
9.76784e-08
-4.19131e-07
8.06771e-08
-4.12669e-07
6.22162e-08
-4.04535e-07
4.26819e-08
-3.94797e-07
2.23056e-08
-3.83251e-07
1.48916e-09
-1.983e-08
-3.69728e-07
-3.53042e-07
1.31185e-07
2.13993e-07
-3.99374e-07
1.23607e-07
-3.98701e-07
1.1077e-07
-3.95484e-07
9.4466e-08
-3.90864e-07
7.60828e-08
-3.85051e-07
5.6401e-08
-3.78137e-07
3.57666e-08
-3.70233e-07
1.44016e-08
-3.61116e-07
-7.62717e-09
-3.04656e-08
-3.5048e-07
-3.81193e-07
1.30431e-07
3.81783e-07
-3.78004e-07
1.20404e-07
-3.73875e-07
1.06641e-07
-3.69132e-07
8.97426e-08
-3.63606e-07
7.06125e-08
-3.57387e-07
5.01346e-08
-3.50656e-07
2.89288e-08
-3.43527e-07
7.27341e-09
-3.36194e-07
-1.49592e-08
-3.83476e-08
-3.28308e-07
-3.45881e-07
1.29136e-07
3.47175e-07
-3.43894e-07
1.18416e-07
-3.40938e-07
1.03685e-07
-3.36481e-07
8.52847e-08
-3.30255e-07
6.44552e-08
-3.22763e-07
4.26374e-08
-3.14796e-07
2.08907e-08
-3.07215e-07
-3.06654e-10
-3.00909e-07
-2.1221e-08
-4.32205e-08
-2.95934e-07
-3.02078e-07
1.2868e-07
3.02533e-07
-3.02041e-07
1.1838e-07
-3.0096e-07
1.02604e-07
-2.96914e-07
8.12381e-08
-2.89359e-07
5.69007e-08
-2.79259e-07
3.25194e-08
-2.68172e-07
9.79482e-09
-2.58027e-07
-1.03907e-08
-2.49989e-07
-2.8243e-08
-4.37288e-08
-2.41842e-07
-2.55697e-07
1.27111e-07
2.57266e-07
-2.56612e-07
1.19294e-07
-2.584e-07
1.04392e-07
-2.54087e-07
7.69247e-08
-2.44921e-07
4.77352e-08
-2.32793e-07
2.03913e-08
-2.19938e-07
-3.0616e-09
-2.08393e-07
-2.18768e-08
-1.82984e-07
-2.63371e-08
-1.08401e-08
-1.28315e-07
-1.62117e-07
5.96026e-08
2.12755e-07
-1.0954e-07
3.23598e-08
-6.78171e-08
2.27964e-08
-1.06892e-07
1.3258e-08
-1.56663e-07
1.44321e-08
-1.69026e-07
6.62255e-09
-1.72429e-07
-5.20669e-09
-1.40665e-07
-1.31236e-08
-3.93486e-08
-1.47068e-08
-1.06624e-08
-3.52659e-08
-5.99765e-08
2.58951e-08
9.39411e-08
-4.79767e-08
2.08428e-08
-4.08904e-08
1.60779e-08
-3.77463e-08
1.05217e-08
-3.51029e-08
4.73167e-09
-3.18751e-08
2.79911e-10
-3.3074e-08
-4.56606e-09
-3.31608e-08
-7.86114e-09
-2.85063e-08
-1.04983e-08
-1.25407e-08
-2.57459e-08
-5.27503e-08
2.42702e-08
5.48522e-08
-5.03227e-08
1.884e-08
-4.74104e-08
1.33957e-08
-4.38287e-08
7.41265e-09
-4.00781e-08
1.53299e-09
-3.53338e-08
-3.658e-09
-3.01717e-08
-8.54844e-09
-2.51093e-08
-1.16111e-08
-1.88835e-08
-1.49422e-08
-1.62683e-08
-1.26971e-08
-5.91719e-08
2.43058e-08
5.95394e-08
-5.75111e-08
1.74792e-08
-5.7519e-08
1.37321e-08
-5.53e-08
1.01086e-08
-7.13488e-08
-6.03801e-09
-7.43889e-08
-2.7479e-08
-5.56478e-08
-4.18632e-08
-3.67418e-08
-4.42168e-08
-2.10734e-08
-3.89486e-08
-2.70513e-08
-9.30988e-09
-1.27299e-07
8.85453e-08
1.58711e-07
-7.88123e-08
5.04502e-08
-1.03042e-07
2.62472e-08
-1.99057e-07
6.68431e-09
-2.07237e-07
-2.44487e-08
-1.87494e-07
-5.90271e-08
-1.56327e-07
-9.52507e-08
-1.25447e-07
-1.29526e-07
-8.69034e-08
-1.58242e-07
-1.75697e-07
-3.19205e-08
-1.96767e-07
8.94334e-08
2.08047e-07
-1.915e-07
6.3896e-08
-1.92954e-07
3.38874e-08
-1.86969e-07
7.84386e-10
-1.74572e-07
-3.68016e-08
-1.55843e-07
-7.77429e-08
-1.32005e-07
-1.19068e-07
-1.04564e-07
-1.56964e-07
-7.28755e-08
-1.89928e-07
-2.18049e-07
-3.05221e-08
-1.22606e-07
8.41533e-08
1.2783e-07
-1.20867e-07
6.22219e-08
-1.22013e-07
3.51826e-08
-1.22375e-07
1.26826e-09
-1.17536e-07
-4.15552e-08
-1.0119e-07
-9.40707e-08
-7.53921e-08
-1.44863e-07
-4.51321e-08
-1.87222e-07
-1.27681e-08
-2.2229e-07
-2.51723e-07
2.09077e-08
-2.62471e-08
7.78024e-08
3.26244e-08
-2.5749e-08
5.40122e-08
-2.98975e-08
2.71157e-08
-3.79553e-08
7.48654e-09
-4.25036e-08
-1.24242e-08
-3.53425e-08
-6.58796e-08
-7.42142e-09
-1.64703e-07
2.56973e-08
-2.20032e-07
5.82365e-08
-2.54828e-07
-2.83289e-07
8.98038e-08
3.96969e-08
6.11435e-08
-4.33147e-08
1.92747e-08
2.7061e-08
3.53862e-09
3.14215e-09
2.06209e-10
1.79338e-09
-5.03086e-11
-6.36265e-10
2.3284e-08
-2.12852e-08
7.23306e-08
-1.6369e-07
1.04389e-07
-2.51384e-07
1.32536e-07
-2.8297e-07
-3.08506e-07
1.57752e-07
3.94578e-08
5.28974e-08
-8.33803e-08
2.25188e-10
5.6327e-09
2.33463e-10
2.16042e-09
-7.50639e-11
2.00265e-09
1.14586e-09
-1.9463e-09
4.32087e-08
-2.01544e-08
1.45557e-07
-1.93865e-07
1.74325e-07
-2.80141e-07
1.97321e-07
-3.05999e-07
-3.26269e-07
2.15055e-07
2.19931e-08
4.57154e-08
-8.5377e-08
1.81428e-09
3.08013e-09
5.92985e-10
3.24918e-09
1.25341e-09
1.232e-09
4.61255e-09
-5.3977e-09
9.2753e-08
-6.24533e-08
2.07855e-07
-2.67253e-07
2.30035e-07
-3.02789e-07
2.47914e-07
-3.24364e-07
-3.27884e-07
2.4908e-07
4.76194e-09
3.04735e-08
-6.47638e-08
9.15903e-10
3.07637e-09
1.31984e-09
2.72949e-09
3.78765e-09
-1.36375e-09
2.74495e-08
-2.91477e-08
2.21939e-07
-1.81527e-07
2.55848e-07
-2.91542e-07
2.68056e-07
-3.14877e-07
2.77676e-07
-3.34245e-07
-3.06918e-07
1.98381e-07
5.68027e-10
1.08561e-08
-2.33911e-08
6.95692e-10
2.84919e-09
2.91098e-09
4.14689e-10
1.46992e-08
-1.32677e-08
1.4432e-07
-1.07035e-07
2.76759e-07
-2.69325e-07
2.86822e-07
-3.01449e-07
2.93954e-07
-3.22006e-07
2.97782e-07
-3.37948e-07
-2.24721e-07
9.93349e-08
8.07279e-10
2.20907e-09
-2.60926e-09
2.45665e-09
1.07307e-09
1.0617e-08
-7.84519e-09
1.01992e-07
-8.1449e-08
2.80277e-07
-2.41793e-07
2.94484e-07
-2.83471e-07
3.0026e-07
-3.07209e-07
3.07162e-07
-3.28912e-07
2.88937e-07
-3.1972e-07
-1.56978e-07
1.09756e-07
1.21162e-09
1.26664e-09
0
8.81011e-09
-6.68133e-09
9.46011e-08
-7.43171e-08
2.67709e-07
-2.16667e-07
2.87302e-07
-2.61313e-07
2.92402e-07
-2.88568e-07
2.98755e-07
-3.13564e-07
3.06771e-07
-3.3693e-07
1.93408e-07
-3.15751e-07
-1.3669e-07
1.0686e-07
1.07406e-08
-7.26475e-09
-1.88605e-09
9.3818e-08
-7.21356e-08
2.48435e-07
-1.92177e-07
2.69113e-07
-2.37321e-07
2.75711e-07
-2.67913e-07
2.83588e-07
-2.96445e-07
2.93508e-07
-3.23484e-07
3.05372e-07
-3.48795e-07
1.59468e-07
-3.18549e-07
-1.36112e-07
1.04486e-07
9.06543e-08
-7.12574e-08
-2.11641e-08
2.14828e-07
-1.71661e-07
2.38747e-07
-2.16083e-07
2.50441e-07
-2.49015e-07
2.62647e-07
-2.80119e-07
2.76066e-07
-3.09863e-07
2.90805e-07
-3.38223e-07
3.07065e-07
-3.65054e-07
1.51669e-07
-3.2902e-07
-1.43722e-07
1.11755e-07
1.87361e-07
-1.45421e-07
-9.96855e-08
2.13115e-07
-1.97403e-07
2.29688e-07
-2.32657e-07
2.45906e-07
-2.65233e-07
2.62331e-07
-2.96543e-07
2.79323e-07
-3.26855e-07
2.97225e-07
-3.56124e-07
3.16163e-07
-3.83993e-07
1.44373e-07
-3.29901e-07
-1.53259e-07
1.1712e-07
2.25869e-07
-1.68683e-07
-2.02431e-07
2.37022e-07
-2.08554e-07
2.487e-07
-2.44334e-07
2.61779e-07
-2.78312e-07
2.76483e-07
-3.11247e-07
2.93044e-07
-3.43416e-07
3.11671e-07
-3.74751e-07
3.32199e-07
-4.04521e-07
1.1361e-07
-2.99456e-07
-1.72523e-07
1.16574e-07
2.42799e-07
-1.79481e-07
-2.31926e-07
2.5167e-07
-2.17422e-07
2.61437e-07
-2.541e-07
2.7298e-07
-2.89855e-07
2.86687e-07
-3.24953e-07
3.02809e-07
-3.59538e-07
3.2164e-07
-3.93582e-07
3.42434e-07
-4.25315e-07
1.57211e-07
-2.77151e-07
-1.95527e-07
1.72884e-07
2.40802e-07
-1.90424e-07
-2.29851e-07
2.51465e-07
-2.28085e-07
2.62855e-07
-2.6549e-07
2.75645e-07
-3.02646e-07
2.90264e-07
-3.39572e-07
3.06969e-07
-3.76242e-07
3.25964e-07
-4.12577e-07
3.37959e-07
-4.37312e-07
1.75775e-07
-2.58824e-07
-2.05108e-07
1.74394e-07
2.35328e-07
-2.0301e-07
-2.22742e-07
2.48078e-07
-2.40835e-07
2.61552e-07
-2.78963e-07
2.76269e-07
-3.17363e-07
2.92658e-07
-3.55962e-07
3.10995e-07
-3.94579e-07
3.31351e-07
-4.32932e-07
2.81071e-07
-4.55117e-07
1.63685e-07
-2.57316e-07
-2.44785e-07
1.88109e-07
2.33633e-07
-2.16524e-07
-2.20119e-07
2.47744e-07
-2.54945e-07
2.62844e-07
-2.94062e-07
2.79378e-07
-3.33898e-07
2.97802e-07
-3.74386e-07
3.18474e-07
-4.15252e-07
3.41015e-07
-4.55479e-07
2.4042e-07
-4.41976e-07
1.70829e-07
-2.69902e-07
-3.01067e-07
2.0197e-07
2.36076e-07
-2.3108e-07
-2.2152e-07
2.51382e-07
-2.70251e-07
2.67832e-07
-3.10512e-07
2.85892e-07
-3.51957e-07
3.06125e-07
-3.94619e-07
3.29255e-07
-4.38382e-07
3.53896e-07
-4.80121e-07
2.27774e-07
-4.24713e-07
2.01823e-07
-2.95429e-07
-3.34685e-07
3.18977e-07
2.43656e-07
-2.46068e-07
-2.28668e-07
2.59506e-07
-2.861e-07
2.76466e-07
-3.27473e-07
2.94777e-07
-3.70268e-07
3.14631e-07
-4.14473e-07
3.36142e-07
-4.59893e-07
3.4555e-07
-4.89537e-07
2.48503e-07
-3.82248e-07
2.39594e-07
-3.21248e-07
-4.83539e-07
4.32259e-07
2.55126e-07
-2.61765e-07
-2.39429e-07
2.71644e-07
-3.02618e-07
2.89228e-07
-3.45057e-07
3.08062e-07
-3.89103e-07
3.28148e-07
-4.34559e-07
3.48091e-07
-4.79835e-07
2.9232e-07
-4.70477e-07
2.38611e-07
-3.29939e-07
2.34966e-07
-3.74024e-07
-6.60674e-07
4.95874e-07
2.69946e-07
-2.77622e-07
-2.54088e-07
2.86685e-07
-3.19356e-07
3.04563e-07
-3.62935e-07
3.23784e-07
-4.08323e-07
3.44482e-07
-4.55257e-07
3.57999e-07
-4.93379e-07
2.50947e-07
-3.99434e-07
2.71732e-07
-3.39937e-07
3.3978e-07
-4.23331e-07
-8.00393e-07
5.38193e-07
2.8622e-07
-2.92971e-07
-2.70872e-07
3.02627e-07
-3.35763e-07
3.2019e-07
-3.80499e-07
3.38827e-07
-4.26961e-07
3.5721e-07
-4.73632e-07
3.24169e-07
-4.60401e-07
2.26522e-07
-3.23182e-07
2.52269e-07
-3.50314e-07
4.60041e-07
-5.28504e-07
-8.86924e-07
5.67947e-07
3.01654e-07
-3.08129e-07
-2.86497e-07
3.18054e-07
-3.52161e-07
3.35939e-07
-3.98384e-07
3.55533e-07
-4.46555e-07
3.71292e-07
-4.8935e-07
2.28948e-07
-4.12712e-07
2.15825e-07
-3.10667e-07
2.6614e-07
-3.86757e-07
5.44266e-07
-7.04049e-07
-9.40338e-07
6.02589e-07
3.14482e-07
-3.22592e-07
-3.00018e-07
3.29943e-07
-3.67622e-07
3.4644e-07
-4.14881e-07
3.63409e-07
-4.63524e-07
3.47508e-07
-4.73481e-07
2.23796e-07
-3.22109e-07
2.48331e-07
-3.25027e-07
3.56398e-07
-4.87504e-07
5.80879e-07
-8.81211e-07
-9.88506e-07
6.29554e-07
3.25829e-07
-3.36412e-07
-3.12009e-07
3.40692e-07
-3.82485e-07
3.56642e-07
-4.30831e-07
3.69649e-07
-4.76521e-07
2.44512e-07
-4.17849e-07
2.00055e-07
-2.83977e-07
2.4285e-07
-3.58788e-07
5.23877e-07
-6.65806e-07
6.08644e-07
-9.55501e-07
-1.03158e-06
6.51887e-07
3.3359e-07
-3.48906e-07
-3.21096e-07
3.47005e-07
-3.95899e-07
3.61242e-07
-4.45068e-07
3.54398e-07
-4.69697e-07
2.13519e-07
-3.15775e-07
2.34443e-07
-2.97255e-07
3.39215e-07
-4.55789e-07
5.79517e-07
-8.87534e-07
6.3186e-07
-1.00758e-06
-1.06956e-06
6.69881e-07
3.37622e-07
-3.59491e-07
-3.27037e-07
3.48773e-07
-4.0705e-07
3.57356e-07
-4.53647e-07
2.60003e-07
-4.07695e-07
1.8095e-07
-2.48933e-07
2.12725e-07
-3.26384e-07
5.02322e-07
-6.73475e-07
5.96878e-07
-9.73166e-07
6.42551e-07
-1.05312e-06
-1.10574e-06
6.78752e-07
3.37515e-07
-3.67901e-07
-3.29105e-07
3.46486e-07
-4.16022e-07
3.39773e-07
-4.4695e-07
1.94008e-07
-2.92488e-07
2.04756e-07
-2.61901e-07
3.14026e-07
-4.37942e-07
5.59764e-07
-9.03621e-07
6.13231e-07
-1.0264e-06
6.52616e-07
-1.09247e-06
-1.138e-06
6.84882e-07
3.32956e-07
-3.73546e-07
-3.27312e-07
3.36402e-07
-4.19467e-07
2.50873e-07
-3.80944e-07
1.57801e-07
-2.11414e-07
1.76037e-07
-2.85642e-07
4.81362e-07
-6.53097e-07
5.73158e-07
-9.85901e-07
6.19371e-07
-1.07245e-06
6.56437e-07
-1.12951e-06
-1.16738e-06
6.85822e-07
3.293e-07
-3.78308e-07
-3.24538e-07
3.24705e-07
-4.1489e-07
1.79597e-07
-2.66922e-07
1.75111e-07
-2.15117e-07
2.71035e-07
-3.90056e-07
5.40123e-07
-8.93957e-07
5.92219e-07
-1.03753e-06
6.30316e-07
-1.11047e-06
6.61534e-07
-1.16071e-06
-1.19133e-06
6.85484e-07
3.21038e-07
-3.79069e-07
-3.20271e-07
2.52748e-07
-3.46636e-07
1.39391e-07
-1.77117e-07
1.50416e-07
-2.38126e-07
4.4751e-07
-5.82954e-07
5.54634e-07
-9.84649e-07
5.98916e-07
-1.08156e-06
6.3369e-07
-1.14521e-06
6.6107e-07
-1.18809e-06
-1.21076e-06
6.80504e-07
3.21223e-07
-3.80029e-07
-3.20318e-07
1.74472e-07
-2.58374e-07
1.61557e-07
-1.7702e-07
2.2535e-07
-3.17559e-07
5.247e-07
-8.37045e-07
5.73521e-07
-1.03292e-06
6.07692e-07
-1.11565e-06
6.35999e-07
-1.1735e-06
6.57864e-07
-1.20995e-06
-1.22513e-06
6.72235e-07
2.63568e-07
-3.38511e-07
-3.05093e-07
1.26533e-07
-1.56289e-07
1.31472e-07
-1.92218e-07
3.74713e-07
-4.77581e-07
5.28099e-07
-9.63977e-07
5.69877e-07
-1.07447e-06
6.02171e-07
-1.14791e-06
6.28118e-07
-1.19944e-06
6.46831e-07
-1.22867e-06
-1.23625e-06
6.57956e-07
1.45942e-07
-2.60923e-07
-2.90656e-07
9.33331e-08
-1.37276e-07
1.42713e-07
-2.57496e-07
4.73909e-07
-7.54666e-07
5.26985e-07
-1.01686e-06
5.61986e-07
-1.10939e-06
5.91338e-07
-1.17726e-06
6.143e-07
-1.2224e-06
6.29876e-07
-1.24424e-06
-1.24458e-06
6.382e-07
1.07108e-07
-1.62165e-07
-2.35523e-07
1.03663e-07
-1.52658e-07
2.61348e-07
-3.65945e-07
4.68536e-07
-9.34173e-07
5.10716e-07
-1.05896e-06
5.43855e-07
-1.14251e-06
5.71459e-07
-1.20486e-06
5.9188e-07
-1.24283e-06
6.0503e-07
-1.25739e-06
-1.25165e-06
6.12104e-07
7.24787e-08
-1.10842e-07
-1.47373e-07
9.50339e-08
-1.93941e-07
3.95389e-07
-6.6127e-07
4.57399e-07
-9.95121e-07
4.92848e-07
-1.09439e-06
5.23248e-07
-1.17291e-06
5.4699e-07
-1.2286e-06
5.62738e-07
-1.25857e-06
5.7135e-07
-1.266e-06
-1.25456e-06
5.7426e-07
9.35281e-08
-1.18702e-07
-1.01064e-07
1.87304e-07
-3.05607e-07
4.1106e-07
-8.88257e-07
4.45217e-07
-1.02931e-06
4.73297e-07
-1.12248e-06
4.99068e-07
-1.19868e-06
5.18223e-07
-1.24776e-06
5.29965e-07
-1.27032e-06
5.35976e-07
-1.27202e-06
-1.2563e-06
5.37714e-07
6.27859e-08
-1.32181e-07
-6.29859e-08
3.05034e-07
-5.45321e-07
3.75001e-07
-9.57473e-07
4.08897e-07
-1.0632e-06
4.40083e-07
-1.15366e-06
4.656e-07
-1.2242e-06
4.8247e-07
-1.26463e-06
4.92506e-07
-1.28035e-06
4.98993e-07
-1.2785e-06
-1.26153e-06
5.04222e-07
6.47714e-08
-1.75663e-07
-3.97005e-08
3.09181e-07
-7.79598e-07
3.47841e-07
-9.96086e-07
3.78577e-07
-1.09393e-06
4.07126e-07
-1.18221e-06
4.28223e-07
-1.24529e-06
4.40679e-07
-1.27708e-06
4.47982e-07
-1.28765e-06
4.54004e-07
-1.28452e-06
-1.26924e-06
4.61721e-07
1.58264e-07
-2.64629e-07
-3.77908e-08
2.85133e-07
-8.95019e-07
3.14519e-07
-1.02543e-06
3.4257e-07
-1.12198e-06
3.67402e-07
-1.20704e-06
3.83316e-07
-1.26121e-06
3.9124e-07
-1.28501e-06
3.95406e-07
-1.29182e-06
3.99354e-07
-1.28847e-06
-1.27588e-06
4.05993e-07
1.86608e-07
-4.09431e-07
-2.22399e-08
2.39687e-07
-9.46285e-07
2.71604e-07
-1.05734e-06
3.00124e-07
-1.1505e-06
3.21779e-07
-1.2287e-06
3.32967e-07
-1.27239e-06
3.37041e-07
-1.28908e-06
3.38395e-07
-1.29317e-06
3.39943e-07
-1.29002e-06
-1.27962e-06
3.43679e-07
1.62639e-07
-5.53523e-07
-1.18131e-08
2.02064e-07
-9.85481e-07
2.3228e-07
-1.08756e-06
2.58273e-07
-1.1765e-06
2.75052e-07
-1.24548e-06
2.81261e-07
-1.2786e-06
2.81708e-07
-1.28953e-06
2.80179e-07
-1.29165e-06
2.78804e-07
-1.28864e-06
-1.27825e-06
2.7744e-07
1.38597e-07
-6.86812e-07
-5.13996e-09
1.69825e-07
-1.01672e-06
1.96577e-07
-1.11431e-06
2.19069e-07
-1.19899e-06
2.2999e-07
-1.2564e-06
2.31354e-07
-1.27997e-06
2.28532e-07
-1.28671e-06
2.2419e-07
-1.2873e-06
2.19757e-07
-1.28421e-06
-1.26924e-06
2.10748e-07
1.1369e-07
-7.92633e-07
-7.16453e-09
1.3964e-07
-1.04267e-06
1.6393e-07
-1.1386e-06
1.82472e-07
-1.21753e-06
1.87181e-07
-1.26111e-06
1.84582e-07
-1.27737e-06
1.79474e-07
-1.2816e-06
1.72979e-07
-1.28081e-06
1.65983e-07
-1.27722e-06
-1.24645e-06
1.43185e-07
9.07665e-08
-8.61461e-07
-1.16464e-08
1.0965e-07
-1.06154e-06
1.31791e-07
-1.16074e-06
1.46337e-07
-1.23207e-06
1.46204e-07
-1.26097e-06
1.4156e-07
-1.27272e-06
1.35797e-07
-1.27583e-06
1.2829e-07
-1.2733e-06
1.19485e-07
-1.26841e-06
-1.21101e-06
7.9691e-08
4.25691e-08
-9.01252e-07
-1.61642e-10
7.07745e-08
-1.08975e-06
9.8123e-08
-1.18809e-06
1.11216e-07
-1.24517e-06
1.09087e-07
-1.25884e-06
1.04015e-07
-1.26765e-06
9.89387e-08
-1.27076e-06
9.146e-08
-1.26582e-06
8.12632e-08
-1.25821e-06
-1.17782e-06
4.59406e-08
1.52626e-08
-9.33141e-07
1.06349e-08
4.72433e-08
-1.12174e-06
7.56525e-08
-1.2165e-06
8.41561e-08
-1.25367e-06
8.01257e-08
-1.25481e-06
7.41331e-08
-1.26166e-06
6.99063e-08
-1.26653e-06
6.33992e-08
-1.25932e-06
5.19571e-08
-1.24677e-06
-1.15122e-06
2.39717e-08
6.96159e-09
-9.63683e-07
1.3943e-08
3.84225e-08
-1.1532e-06
6.37277e-08
-1.24181e-06
6.51668e-08
-1.25511e-06
5.9197e-08
-1.24884e-06
5.16237e-08
-1.25409e-06
4.75709e-08
-1.26248e-06
4.40115e-08
-1.25576e-06
3.22942e-08
-1.23505e-06
-1.1283e-06
8.55207e-09
9.84213e-09
-9.78408e-07
1.38442e-31
3.95027e-08
-1.18286e-06
5.74013e-08
-1.2597e-06
5.11072e-08
-1.24882e-06
4.32181e-08
-1.24096e-06
3.41334e-08
-1.245e-06
2.81865e-08
-1.25653e-06
3.10479e-08
-1.25862e-06
2.44485e-08
-1.22846e-06
-1.10439e-06
2.14054e-41
-4.03881e-09
-9.6748e-07
6.73767e-31
3.91708e-08
-1.22607e-06
4.92351e-08
-1.26977e-06
3.86888e-08
-1.23827e-06
3.02173e-08
-1.23248e-06
2.08006e-08
-1.23559e-06
9.55574e-09
-1.24529e-06
1.66434e-08
-1.26571e-06
3.2385e-08