/*--------------------------------*- C++ -*----------------------------------*\
  =========                 |
  \\      /  F ield         | OpenFOAM: The Open Source CFD Toolbox
   \\    /   O peration     | Website:  https://openfoam.org
    \\  /    A nd           | Version:  8
     \\/     M anipulation  |
\*---------------------------------------------------------------------------*/
FoamFile
{
    version     2.0;
    format      ascii;
    class       volScalarField;
    location    "2.9";
    object      epsilon;
}
// * * * * * * * * * * * * * * * * * * * * * * * * * * * * * * * * * * * * * //

dimensions      [0 2 -3 0 0 0 0];

internalField   nonuniform List<scalar> 
9150
(
0.0313178
0.0124191
0.00309055
0.000938354
0.000448894
0.000448881
0.000937992
0.00308871
0.0124155
0.0313191
0.0302299
0.00872314
0.00172619
0.000603018
0.000338121
0.000338176
0.000602966
0.00172518
0.0087204
0.0302306
0.02843
0.00692136
0.00111372
0.000494318
0.000302386
0.000302466
0.000494411
0.0011133
0.00691927
0.0284303
0.0264965
0.00598111
0.000834959
0.000461676
0.000291375
0.000291467
0.000461825
0.000834876
0.00597957
0.0264966
0.0244932
0.00557544
0.000696496
0.000454474
0.000289566
0.000289666
0.000454645
0.000696592
0.00557421
0.0244933
0.123832
0.0525768
0.0223196
0.0136335
0.00980538
0.00983097
0.0137053
0.0224727
0.0529385
0.123955
0.0762252
0.0230229
0.0130184
0.00865698
0.00608515
0.00609565
0.00868591
0.0130733
0.0230668
0.0762238
0.0554351
0.0178844
0.00757895
0.00451405
0.00298186
0.00298514
0.00452314
0.00759334
0.0178899
0.0554305
0.0425462
0.0152151
0.00477291
0.00227883
0.00135068
0.00135147
0.00228073
0.00477498
0.0152106
0.0425445
0.0356251
0.013701
0.00350532
0.00129388
0.000681878
0.000682013
0.0012939
0.00350412
0.0136959
0.0356248
1.23486
0.168883
0.0489028
0.021219
0.0126131
0.0123353
0.0202819
0.0476117
0.167419
1.54345
0.276732
0.121982
0.0460198
0.020766
0.0126044
0.012442
0.020285
0.0446449
0.114066
0.281397
0.234661
0.104901
0.0446437
0.020405
0.0126309
0.0125644
0.0202608
0.044219
0.102025
0.236336
0.19703
0.0916167
0.0436803
0.0200763
0.012686
0.012689
0.0200891
0.0436526
0.0914274
0.197693
0.156544
0.086287
0.0400605
0.0188648
0.0123307
0.012363
0.0189486
0.0402455
0.0869083
0.1568
0.0434306
0.0433322
0.043232
0.0431329
0.0430387
0.0429523
0.0428765
0.0428135
0.0427653
0.0427335
0.0219014
0.0218159
0.0217236
0.021626
0.0215244
0.0214202
0.0213144
0.0212081
0.0211023
0.020998
0.0181218
0.0180521
0.0179755
0.017893
0.0178058
0.0177148
0.0176212
0.017526
0.0174303
0.0173353
0.0169292
0.0168732
0.0168105
0.016742
0.0166687
0.0165915
0.0165114
0.0164293
0.0163462
0.0162631
0.0165597
0.0165161
0.0164662
0.0164107
0.0163505
0.0162864
0.0162192
0.0161499
0.0160793
0.0160082
0.0165668
0.0165351
0.0164975
0.0164545
0.0164069
0.0163556
0.0163012
0.0162445
0.0161863
0.0161272
0.0167869
0.016767
0.0167414
0.0167109
0.0166759
0.0166373
0.0165957
0.0165517
0.016506
0.0164593
0.0171472
0.0171392
0.0171258
0.0171077
0.0170855
0.0170598
0.0170313
0.0170003
0.0169676
0.0169337
0.0176118
0.0176159
0.0176151
0.0176099
0.0176008
0.0175885
0.0175734
0.0175561
0.017537
0.0175167
0.018163
0.0181798
0.018192
0.0182001
0.0182048
0.0182064
0.0182056
0.0182027
0.0181983
0.0181926
0.0187933
0.0188232
0.0188491
0.0188714
0.0188905
0.0189071
0.0189215
0.0189342
0.0189457
0.0189562
0.0195017
0.0195456
0.019586
0.0196233
0.019658
0.0196907
0.0197217
0.0197515
0.0197805
0.0198091
0.0202926
0.0203515
0.0204074
0.020461
0.0205126
0.0205627
0.020612
0.0206608
0.0207095
0.0207586
0.0211751
0.02125
0.0213228
0.0213939
0.021464
0.0215336
0.0216031
0.0216732
0.0217443
0.0218168
0.0221632
0.0222554
0.0223464
0.0224368
0.0225273
0.0226184
0.0227108
0.022805
0.0229015
0.0230011
0.0232764
0.0233874
0.0234983
0.0236098
0.0237229
0.0238383
0.0239566
0.0240782
0.0242041
0.024335
0.0245412
0.0246728
0.0248055
0.0249404
0.0250786
0.0252213
0.0253691
0.0255225
0.0256825
0.0258501
0.0259924
0.026147
0.026304
0.0264649
0.0266313
0.0268047
0.0269863
0.0271769
0.0273773
0.0275886
0.0276765
0.0278569
0.0280413
0.0282318
0.0284304
0.0286394
0.0288607
0.0290954
0.0293439
0.0296077
0.0296554
0.0298657
0.0300819
0.0303068
0.0305432
0.0307941
0.0310622
0.0313495
0.0316567
0.031985
0.0320126
0.0322583
0.0325123
0.0327782
0.0330598
0.0333613
0.0336865
0.0340386
0.034419
0.0348287
0.034862
0.0351516
0.0354517
0.0357675
0.0361046
0.0364691
0.0368668
0.0373022
0.0377777
0.0382938
0.0383616
0.0387084
0.0390677
0.039447
0.0398546
0.0402995
0.040791
0.0413365
0.0419397
0.0425997
0.0427319
0.0431584
0.0435988
0.0440633
0.0445637
0.0451138
0.0457281
0.0464202
0.0471987
0.0480613
0.0482836
0.0488285
0.0493877
0.0499743
0.0506046
0.0512979
0.0520767
0.0529652
0.0539851
0.0551424
0.0554572
0.0561885
0.0569339
0.0577097
0.0585369
0.0594417
0.0604556
0.0616156
0.062962
0.0645274
0.0648756
0.065911
0.0669614
0.0680465
0.0691924
0.0704334
0.0718118
0.0733785
0.0751915
0.0773083
0.0774145
0.0789552
0.0805171
0.0821229
0.0838046
0.0856054
0.0875814
0.0898041
0.0923622
0.0953612
0.0942721
0.0966561
0.0990826
0.101578
0.104181
0.10695
0.10996
0.113308
0.117123
0.121567
0.116991
0.12076
0.124622
0.128605
0.13276
0.137166
0.141931
0.147188
0.153098
0.159873
0.14736
0.153336
0.159506
0.165888
0.172545
0.179606
0.187245
0.19564
0.204964
0.215429
0.18705
0.196365
0.206048
0.216053
0.226444
0.237479
0.249513
0.262826
0.277471
0.293367
0.236898
0.250894
0.265556
0.280586
0.295885
0.312005
0.329802
0.349758
0.371439
0.393975
0.296323
0.316286
0.337366
0.358393
0.378669
0.399575
0.423102
0.450276
0.480324
0.510395
0.362604
0.388268
0.4158
0.442581
0.466437
0.490917
0.518734
0.551382
0.588874
0.628255
0.430135
0.456797
0.482953
0.511595
0.541406
0.57409
0.611807
0.654327
0.698029
0.738536
0.479854
0.507929
0.538715
0.573104
0.61022
0.650458
0.694203
0.740286
0.787078
0.833515
0.525052
0.559035
0.596118
0.636223
0.679079
0.724668
0.772767
0.822779
0.874071
0.926039
0.574117
0.612809
0.654865
0.699964
0.747674
0.797694
0.849752
0.903567
0.958879
1.0151
0.623052
0.665658
0.711752
0.760851
0.812381
0.865931
0.921327
0.978625
1.03802
1.09932
0.67134
0.717406
0.767028
0.819681
0.874625
0.931337
0.989776
1.05042
1.11409
1.18131
0.721807
0.77171
0.825351
0.882075
0.940844
1.00102
1.06278
1.12715
1.19546
1.26953
0.780408
0.835517
0.894607
0.956515
1.01962
1.0834
1.14871
1.21739
1.29167
1.37443
0.856323
0.919355
0.98661
1.05496
1.12127
1.18747
1.25621
1.32971
1.41098
1.50288
0.957156
1.03292
1.11172
1.18843
1.26002
1.32961
1.40119
1.47821
1.56426
1.66154
1.07172
1.1611
1.2528
1.34257
1.42809
1.51092
1.59344
1.67912
1.7692
1.86441
1.17274
1.27248
1.3739
1.47558
1.57724
1.67909
1.78251
1.88687
1.98839
2.08605
1.246
1.35171
1.4602
1.56934
1.6805
1.79233
1.90239
2.00973
2.11662
2.22662
1.30901
1.42129
1.53996
1.66297
1.78771
1.90819
2.01857
2.11869
2.21406
2.31179
1.3875
1.51649
1.6561
1.80186
1.946
2.0754
2.17958
2.26147
2.33338
2.40815
1.5041
1.66658
1.84765
2.03856
2.21637
2.35116
2.42558
2.46237
2.49056
2.53036
1.68225
1.90525
2.16488
2.44847
2.69329
2.79997
2.76515
2.70886
2.67192
2.67036
1.93515
2.25216
2.63872
3.04297
3.42095
3.36912
3.12622
2.94919
2.84427
2.80826
2.24484
2.66695
3.16605
3.76423
4.06994
3.70113
3.3359
3.09181
2.95478
2.91242
2.57529
3.09094
3.71884
4.48309
4.33859
3.76331
3.36022
3.10799
2.98106
2.96328
2.8903
3.48977
4.26206
4.57114
4.01951
3.52812
3.19723
3.00467
2.9318
2.9671
3.10339
3.7498
4.29655
3.97191
3.48989
3.14874
2.93586
2.83632
2.84173
2.94778
3.17038
3.68825
3.55986
3.20304
2.93166
2.75277
2.66219
2.65829
2.74353
2.91905
2.90991
2.9181
2.74533
2.59115
2.48258
2.42802
2.43385
2.50735
2.65728
2.88574
2.30959
2.27331
2.22205
2.18384
2.17187
2.19676
2.26823
2.39642
2.59217
2.85561
1.89507
1.90493
1.9119
1.93083
1.97206
2.04492
2.15857
2.32338
2.54994
2.83278
1.6811
1.70578
1.73734
1.78478
1.85556
1.95712
2.09777
2.28804
2.53755
2.82688
1.57489
1.6067
1.65073
1.71322
1.80043
1.91928
2.07804
2.28803
2.55809
2.84512
1.51165
1.55096
1.60474
1.67844
1.77805
1.91056
2.08454
2.31195
2.60023
2.8767
1.45997
1.50775
1.57197
1.65768
1.77076
1.91821
2.10886
2.35413
2.65689
2.91214
1.41284
1.47003
1.54601
1.6457
1.77497
1.94082
2.15217
2.41845
2.72914
2.95125
1.3706
1.43868
1.5281
1.64407
1.79282
1.98166
2.21979
2.51302
2.8241
3.00149
1.33527
1.41612
1.52095
1.65552
1.82677
2.04288
2.31326
2.63787
2.9409
3.06349
1.31075
1.40626
1.52882
1.68503
1.88282
2.13178
2.44
2.7915
3.06621
3.12848
1.30023
1.41238
1.55557
1.73788
1.96899
2.26103
2.61853
2.98578
3.20147
3.20412
1.30698
1.43757
1.60471
1.81847
2.0911
2.43575
2.84585
3.20248
3.33148
3.28477
1.332
1.48419
1.68088
1.93486
2.26163
2.67078
3.11761
3.4141
3.44223
3.36318
1.3753
1.55398
1.78805
2.09421
2.49059
2.97604
3.42563
3.60614
3.5406
3.45046
1.44
1.65235
1.93477
2.30868
2.79047
3.33945
3.71588
3.73932
3.61471
3.54722
1.53021
1.78637
2.13301
2.59667
3.1846
3.74899
3.95912
3.83347
3.68206
3.66471
1.65004
1.96292
2.39379
2.97051
3.65812
4.131
4.10387
3.87965
3.74723
3.81536
1.80423
2.19169
2.73399
3.45409
4.17734
4.4088
4.16228
3.89323
3.81753
4.01338
1.997
2.48296
3.16785
4.03516
4.64377
4.5315
4.14484
3.88896
3.91165
4.28532
2.23759
2.85593
3.72506
4.66332
4.95089
4.53983
4.08391
3.88169
4.04858
4.6599
2.5428
3.33563
4.41215
5.23333
5.06019
4.45946
4.00011
3.89306
4.25602
5.17517
2.94556
3.9677
5.17807
5.61677
5.04374
4.33655
3.90765
3.93493
4.55396
5.86743
3.48791
4.80447
5.95299
5.78987
4.93448
4.17573
3.80917
4.0174
4.96438
6.77925
4.21019
5.78298
6.51923
5.76878
4.73994
3.96866
3.69776
4.14054
5.49983
7.94824
5.20025
6.83217
6.79235
5.62504
4.47787
3.71499
3.57464
4.30728
6.16866
9.40492
6.35974
7.60127
6.73991
5.3581
4.16048
3.42567
3.44474
4.51259
6.9579
11.147
7.67145
8.09487
6.66607
5.09592
3.81873
3.11096
3.3087
4.73898
7.82398
13.1074
9.01122
8.27076
6.46977
4.76513
3.41409
2.75735
3.15318
4.94838
8.68401
15.1401
10.0865
8.38599
6.27326
4.39741
2.96181
2.37605
2.96664
5.08573
9.41376
17.016
11.0858
8.55437
6.07102
3.9803
2.47294
1.98244
2.73869
5.08876
9.85665
18.4146
11.5308
8.53114
5.75882
3.48941
1.96574
1.59387
2.46006
4.90065
9.85472
18.9535
12.0961
8.47867
5.38373
2.96412
1.48069
1.23105
2.13149
4.49827
9.32348
18.3948
12.6536
8.38844
4.9542
2.42711
1.04618
0.908455
1.76694
3.90648
8.2839
16.6684
13.2344
8.22435
4.43856
1.88617
0.680504
0.635623
1.39267
3.1978
6.89067
14.0567
13.7637
7.87442
3.79566
1.36003
0.398136
0.417936
1.03864
2.46493
5.36296
11.0066
13.6744
7.14107
3.0198
0.890962
0.206758
0.255224
0.729115
1.79216
3.92284
8.05368
13.0597
6.13146
2.22175
0.528892
0.097077
0.141696
0.476821
1.23013
2.70853
5.53973
11.5885
4.82106
1.45919
0.276594
0.0433144
0.069454
0.284051
0.794084
1.76479
3.55654
9.04259
3.28011
0.806496
0.123822
0.0214728
0.0306412
0.147447
0.476044
1.08696
2.09797
5.18557
1.69905
0.341576
0.049995
0.0144976
0.0156064
0.0630071
0.255568
0.647381
1.13723
1.66706
0.621652
0.113978
0.0257973
0.0128707
0.0124966
0.0262937
0.111893
0.393991
0.75249
0.0427198
0.0427286
0.0427723
0.0428754
0.04309
0.0433493
0.0436022
0.0438367
0.0440464
0.0442246
0.0443634
0.0444537
0.0444857
0.0444485
0.0443304
0.044119
0.0438006
0.0433608
0.0427844
0.0420552
0.0411571
0.0400744
0.0387926
0.0373005
0.0355917
0.0336687
0.0315452
0.0292305
0.0268246
0.0243608
0.0217764
0.0191078
0.0164162
0.0137916
0.0114876
0.00935232
0.00734946
0.00549429
0.00387707
0.00243999
0.0208933
0.0207871
0.0206909
0.020612
0.0205632
0.0205338
0.0205117
0.0204909
0.0204676
0.0204389
0.0204022
0.0203546
0.020293
0.0202139
0.0201134
0.0199873
0.0198307
0.0196383
0.0194042
0.0191221
0.0187854
0.0183873
0.0179211
0.0173812
0.0167633
0.0160653
0.0152883
0.0144369
0.0135225
0.0125528
0.0115357
0.0104851
0.00943729
0.0084168
0.00745401
0.00651606
0.00561085
0.0047939
0.00425538
0.00490224
0.0172382
0.0171392
0.0170465
0.0169631
0.0168913
0.0168283
0.0167712
0.0167177
0.0166656
0.0166134
0.0165591
0.016501
0.0164369
0.0163645
0.0162812
0.0161837
0.0160688
0.0159325
0.0157705
0.015578
0.0153499
0.0150808
0.0147651
0.0143977
0.0139738
0.0134899
0.0129443
0.0123377
0.0116744
0.0109621
0.0102137
0.0094464
0.00867929
0.00792718
0.00720084
0.00650823
0.00587593
0.00538548
0.00530817
0.00692115
0.0161774
0.0160889
0.0160044
0.0159254
0.0158528
0.0157857
0.015723
0.0156636
0.0156061
0.0155495
0.0154923
0.015433
0.01537
0.0153014
0.0152251
0.0151386
0.0150393
0.0149241
0.0147898
0.0146326
0.0144486
0.0142336
0.0139829
0.0136918
0.0133556
0.0129696
0.0125295
0.0120323
0.0114769
0.0108667
0.0102129
0.00953623
0.0088623
0.00821224
0.00760018
0.0070389
0.00655676
0.00624749
0.00639878
0.00835568
0.015934
0.0158567
0.0157819
0.0157104
0.015643
0.0155793
0.0155187
0.0154605
0.0154038
0.0153475
0.0152906
0.0152317
0.0151694
0.0151022
0.0150282
0.0149456
0.0148523
0.014746
0.0146245
0.0144851
0.0143251
0.0141416
0.0139314
0.0136909
0.0134161
0.0131023
0.0127438
0.0123337
0.0118642
0.0113291
0.0107306
0.0100919
0.00945591
0.00885978
0.00832616
0.00787219
0.00753121
0.00741397
0.00794838
0.00876996
0.0160649
0.0159995
0.0159354
0.0158732
0.0158135
0.0157563
0.0157011
0.0156472
0.0155939
0.0155402
0.0154851
0.0154273
0.0153656
0.0152985
0.0152247
0.0151425
0.0150503
0.0149467
0.01483
0.0146987
0.0145512
0.0143861
0.0142017
0.0139964
0.013768
0.0135137
0.0132292
0.0129078
0.0125384
0.0121039
0.0115863
0.01099
0.010379
0.00981586
0.00933473
0.00895416
0.008709
0.00875316
0.00966185
0.00877534
0.0164095
0.0163566
0.0163042
0.0162527
0.0162025
0.0161537
0.0161059
0.0160584
0.0160105
0.0159611
0.0159092
0.0158536
0.015793
0.0157263
0.0156519
0.0155687
0.0154753
0.0153706
0.0152536
0.0151234
0.0149794
0.014821
0.0146481
0.0144606
0.0142589
0.014043
0.0138129
0.0135676
0.0133037
0.0130112
0.0126652
0.0122196
0.0116964
0.0111696
0.0106951
0.0102908
0.00999948
0.0100184
0.0109467
0.00885265
0.0168971
0.0168577
0.0168182
0.0167789
0.0167397
0.0167011
0.0166626
0.0166235
0.016583
0.01654
0.0164934
0.016442
0.0163844
0.0163194
0.0162458
0.0161622
0.0160676
0.015961
0.0158417
0.0157091
0.015563
0.0154034
0.015231
0.0150465
0.0148517
0.0146487
0.0144412
0.0142346
0.0140378
0.0138648
0.0137334
0.0136241
0.0134185
0.0130264
0.0125009
0.0119204
0.0114076
0.0112246
0.0123467
0.0375899
0.0174942
0.0174696
0.0174445
0.017419
0.017393
0.0173665
0.0173396
0.0173115
0.0172812
0.0172475
0.0172093
0.0171652
0.017114
0.0170543
0.0169848
0.0169044
0.0168119
0.0167066
0.0165878
0.0164552
0.0163089
0.0161495
0.015978
0.0157962
0.0156069
0.0154141
0.0152242
0.0150467
0.0148954
0.014789
0.014744
0.0147467
0.0147026
0.0145208
0.0141492
0.0136137
0.01307
0.0127745
0.0135484
0.0376245
0.0181857
0.0181775
0.0181686
0.018159
0.0181487
0.0181372
0.018125
0.0181113
0.0180949
0.0180746
0.0180493
0.0180176
0.017978
0.0179292
0.0178701
0.0177993
0.017716
0.0176195
0.0175093
0.0173856
0.0172489
0.0171002
0.0169417
0.0167761
0.0166075
0.0164417
0.0162863
0.0161515
0.0160498
0.015994
0.0159908
0.0160254
0.0160438
0.0159776
0.0157506
0.0153758
0.0150281
0.0148877
0.0153311
0.00884135
0.0189665
0.0189769
0.0189868
0.0189961
0.0190047
0.0190123
0.0190185
0.0190235
0.019026
0.0190248
0.0190185
0.0190058
0.0189852
0.0189555
0.0189154
0.0188639
0.0188001
0.0187236
0.0186343
0.0185328
0.0184202
0.0182985
0.0181707
0.018041
0.0179151
0.0178002
0.0177055
0.0176417
0.0176198
0.0176487
0.0177293
0.0178456
0.0179576
0.0180126
0.0179743
0.0178664
0.017782
0.0178284
0.0183205
0.00882174
0.019839
0.0198708
0.0199026
0.0199345
0.0199662
0.0199973
0.0200273
0.0200569
0.0200847
0.0201096
0.0201302
0.0201451
0.0201529
0.0201524
0.0201424
0.0201219
0.0200903
0.0200475
0.0199937
0.0199299
0.0198578
0.0197803
0.0197015
0.0196268
0.0195636
0.0195213
0.0195112
0.019546
0.0196376
0.019793
0.0200096
0.0202698
0.0205384
0.0207682
0.0209226
0.0210112
0.0210931
0.0213208
0.0221435
0.00884394
0.020811
0.0208676
0.0209254
0.0209843
0.0210443
0.0211049
0.0211656
0.0212264
0.0212874
0.0213469
0.0214038
0.0214566
0.0215038
0.0215443
0.021577
0.0216009
0.0216157
0.0216212
0.0216181
0.0216076
0.0215919
0.0215745
0.0215602
0.0215558
0.0215703
0.0216155
0.0217065
0.0218604
0.0220923
0.022408
0.0227986
0.0232423
0.0237068
0.0241536
0.0245504
0.0248938
0.0252464
0.0258272
0.027781
0.0410383
0.0218952
0.0219809
0.0220695
0.0221611
0.0222555
0.0223524
0.0224515
0.0225523
0.0226555
0.0227599
0.0228638
0.022966
0.023065
0.0231595
0.0232483
0.0233306
0.023406
0.0234744
0.0235366
0.023594
0.0236491
0.0237057
0.0237692
0.0238475
0.023951
0.0240944
0.0242976
0.0245854
0.0249788
0.0254776
0.0260565
0.0266828
0.0273287
0.0279764
0.0286252
0.0292895
0.0300232
0.0311045
0.0340846
0.0525658
0.0231097
0.0232297
0.023355
0.0234857
0.0236218
0.0237633
0.0239097
0.0240604
0.0242165
0.0243768
0.0245399
0.0247041
0.0248678
0.0250296
0.0251881
0.0253423
0.0254917
0.0256362
0.0257765
0.0259143
0.0260524
0.0261948
0.0263481
0.026521
0.0267263
0.0269812
0.0273104
0.0277472
0.02832
0.0290109
0.0297628
0.0305334
0.0313044
0.0320776
0.0328763
0.0337496
0.0348201
0.0365662
0.0411489
0.0658883
0.0244791
0.0246396
0.0248084
0.0249859
0.0251724
0.0253678
0.0255719
0.0257843
0.0260045
0.0262333
0.0264684
0.0267079
0.0269499
0.0271922
0.0274332
0.0276715
0.0279062
0.0281372
0.0283653
0.0285924
0.0288218
0.0290589
0.0293113
0.029591
0.0299147
0.0303053
0.03079
0.0314016
0.0321627
0.0330184
0.0338818
0.034721
0.0355368
0.0363507
0.0372116
0.0382191
0.0396068
0.0420717
0.0484326
0.0814828
0.026036
0.0262444
0.0264651
0.0266986
0.0269453
0.0272055
0.0274789
0.0277653
0.0280636
0.0283748
0.0286963
0.0290255
0.0293595
0.0296955
0.030031
0.0303637
0.0306924
0.0310168
0.0313381
0.0316592
0.0319847
0.0323219
0.0326815
0.0330798
0.0335414
0.0340985
0.0347805
0.0356031
0.0365347
0.0374846
0.038374
0.0391966
0.0399862
0.0407848
0.0416646
0.0427658
0.0444101
0.0475173
0.0558154
0.0989364
0.0278243
0.02809
0.0283728
0.0286733
0.0289923
0.02933
0.0296868
0.030062
0.0304541
0.0308639
0.0312881
0.0317232
0.0321648
0.0326086
0.0330503
0.0334867
0.0339159
0.0343375
0.0347538
0.0351696
0.0355928
0.0360349
0.0365113
0.0370431
0.0376606
0.0383984
0.0392729
0.040267
0.041315
0.042311
0.0431674
0.043911
0.0446229
0.0453676
0.046236
0.0474036
0.0492728
0.0529863
0.0631877
0.117261
0.0299035
0.0302385
0.0305964
0.030978
0.0313842
0.0318155
0.0322725
0.0327549
0.0332607
0.0337889
0.0343366
0.0348983
0.035467
0.0360358
0.0365978
0.0371479
0.037683
0.0382028
0.0387109
0.0392151
0.0397286
0.0402701
0.040863
0.0415352
0.0423174
0.0432295
0.0442557
0.0453432
0.0464084
0.0473438
0.0481019
0.0487535
0.0493852
0.0500728
0.0509273
0.0521604
0.0542532
0.0585623
0.0705968
0.135843
0.0323549
0.0327755
0.033226
0.0337074
0.0342207
0.034767
0.0353469
0.0359601
0.036605
0.037279
0.0379789
0.0386959
0.0394194
0.0401376
0.04084
0.0415183
0.0421674
0.0427867
0.0433805
0.0439596
0.0445426
0.0451569
0.0458374
0.0466206
0.0475345
0.0485696
0.0496664
0.0507425
0.0517091
0.0525054
0.0531498
0.0537153
0.0542762
0.0549177
0.0557707
0.0570835
0.0594152
0.0643279
0.0781603
0.154359
0.0352927
0.0358219
0.0363898
0.0369973
0.0376459
0.0383369
0.0390714
0.0398488
0.040668
0.0415267
0.0424195
0.043334
0.0442533
0.045158
0.0460314
0.0468613
0.0476402
0.0483659
0.0490427
0.0496834
0.0503101
0.0509565
0.0516649
0.0524768
0.0534063
0.0544102
0.0554197
0.0563617
0.0571663
0.0578232
0.0583653
0.0588495
0.0593474
0.0599545
0.0608228
0.0622393
0.064842
0.0703993
0.0860742
0.173068
0.0388807
0.0395516
0.0402722
0.0410438
0.0418685
0.0427482
0.0436839
0.0446753
0.0457216
0.0468209
0.0479658
0.0491394
0.0503145
0.0514586
0.0525455
0.0535592
0.0544888
0.0553299
0.056086
0.0567712
0.0574129
0.0580521
0.0587281
0.0594605
0.0602422
0.0610369
0.0617905
0.0624654
0.063039
0.0635158
0.0639215
0.0643031
0.0647299
0.0653052
0.066202
0.0677494
0.0706708
0.0769535
0.0946197
0.192668
0.0433529
0.0442144
0.04514
0.0461323
0.0471946
0.0483297
0.0495388
0.0508216
0.0521768
0.0536028
0.0550875
0.0566084
0.0581232
0.0595758
0.0609297
0.0621653
0.0632669
0.0642265
0.0650467
0.0657433
0.0663485
0.0669048
0.0674382
0.0679503
0.0684362
0.0688772
0.06925
0.0695528
0.0697962
0.0699978
0.0701859
0.0704019
0.0707114
0.071224
0.0721358
0.0738264
0.0771201
0.0842509
0.104185
0.214158
0.0490483
0.0501748
0.0513835
0.0526812
0.0540742
0.0555668
0.0571606
0.0588551
0.0606493
0.0625419
0.0645082
0.0665082
0.0684724
0.0703203
0.0720087
0.0735103
0.0748
0.0758681
0.0767187
0.0773703
0.0778518
0.0781883
0.0783893
0.0784655
0.0784471
0.0783513
0.0781967
0.0780176
0.0778417
0.0776846
0.0775695
0.0775366
0.0776539
0.0780409
0.0789233
0.0807485
0.0844716
0.0926216
0.11526
0.238828
0.0564749
0.0579812
0.0595903
0.0613207
0.0631844
0.0651878
0.0673339
0.0696228
0.0720546
0.0746273
0.077284
0.0799483
0.0825177
0.0848886
0.0869954
0.0887961
0.0902614
0.0913861
0.0921808
0.0926684
0.0928739
0.0927993
0.0924405
0.0918172
0.0910135
0.0901213
0.0892404
0.0884306
0.0877068
0.0870687
0.086531
0.0861357
0.0859581
0.0861292
0.0869108
0.0888424
0.0930538
0.102436
0.128387
0.268333
0.0663828
0.0684687
0.07067
0.0730356
0.0755843
0.0783272
0.0812721
0.0844237
0.0877834
0.0913347
0.0949658
0.098545
0.101922
0.104959
0.107549
0.10963
0.111187
0.11223
0.112776
0.112855
0.112498
0.111717
0.110507
0.108896
0.107025
0.105072
0.103213
0.101542
0.100061
0.0987486
0.0976095
0.0966897
0.096076
0.0959139
0.0965057
0.0984969
0.103239
0.114059
0.144038
0.304641
0.0799067
0.0829338
0.086077
0.0894138
0.0929758
0.0967877
0.100875
0.105258
0.109944
0.114857
0.119825
0.124618
0.128999
0.132772
0.135802
0.138033
0.139468
0.140138
0.140087
0.139366
0.138023
0.136101
0.133654
0.130778
0.127569
0.124222
0.121019
0.118154
0.115619
0.113365
0.111386
0.109733
0.108501
0.107862
0.10817
0.110168
0.115428
0.12781
0.162537
0.349631
0.0991072
0.103617
0.10826
0.113066
0.118097
0.123406
0.129063
0.135123
0.141605
0.148328
0.155005
0.161259
0.166719
0.171111
0.174302
0.17628
0.177106
0.176869
0.175668
0.173603
0.170768
0.167262
0.163193
0.158676
0.153811
0.148722
0.143706
0.139195
0.135192
0.131638
0.128515
0.125866
0.123798
0.122512
0.122412
0.124334
0.130064
0.144102
0.184335
0.404487
0.127094
0.133846
0.140882
0.147936
0.155065
0.162403
0.170102
0.178296
0.187026
0.195944
0.204585
0.212319
0.218564
0.223007
0.225613
0.226518
0.225911
0.223984
0.220907
0.216835
0.21191
0.206273
0.20007
0.193454
0.186581
0.179554
0.172392
0.165664
0.15969
0.154406
0.149771
0.145815
0.142645
0.14049
0.139806
0.141532
0.147698
0.163559
0.210107
0.469906
0.168156
0.178333
0.189171
0.199742
0.209842
0.219797
0.229968
0.240683
0.251817
0.262927
0.273265
0.281822
0.28774
0.290865
0.291515
0.290111
0.287017
0.282513
0.276811
0.270088
0.262499
0.254195
0.245337
0.236091
0.226633
0.21715
0.207667
0.198426
0.18998
0.182497
0.175939
0.170307
0.165714
0.162421
0.160945
0.16236
0.169023
0.187173
0.241356
0.547557
0.227959
0.243322
0.259986
0.275899
0.290013
0.303007
0.315936
0.3293
0.342661
0.355298
0.365877
0.372907
0.37574
0.375127
0.371988
0.366961
0.36044
0.352661
0.343784
0.33394
0.323264
0.311872
0.299931
0.2876
0.275054
0.262514
0.25014
0.238114
0.226818
0.216637
0.207687
0.199975
0.193608
0.188876
0.186374
0.187333
0.194498
0.215243
0.278686
0.641896
0.311646
0.334033
0.358883
0.381805
0.40028
0.416748
0.433201
0.449967
0.465891
0.478868
0.485441
0.4848
0.479961
0.473201
0.465055
0.455768
0.445431
0.434084
0.421766
0.408517
0.394509
0.379816
0.364526
0.348735
0.332606
0.316474
0.300655
0.28538
0.270906
0.257583
0.245732
0.23548
0.226949
0.220456
0.216683
0.217043
0.224717
0.24835
0.322432
0.752576
0.419052
0.44995
0.484904
0.514059
0.535014
0.556637
0.580674
0.603149
0.618804
0.623778
0.617441
0.605682
0.593604
0.581615
0.569132
0.555911
0.541805
0.526747
0.510828
0.494063
0.476516
0.458267
0.439384
0.419903
0.399858
0.379672
0.359938
0.340927
0.322847
0.306002
0.290773
0.277497
0.266376
0.257773
0.252461
0.252054
0.260199
0.286921
0.372366
0.870937
0.541824
0.579751
0.620665
0.655174
0.682805
0.709359
0.733495
0.748314
0.751951
0.747627
0.738789
0.727323
0.71434
0.700079
0.684559
0.667799
0.649884
0.631006
0.611243
0.590634
0.569231
0.547109
0.524353
0.501019
0.476983
0.452486
0.428373
0.405139
0.382997
0.362247
0.343266
0.32652
0.312389
0.301292
0.294123
0.292712
0.301227
0.331215
0.428985
1.00272
0.669066
0.713749
0.75526
0.78728
0.813557
0.835867
0.853123
0.864364
0.869161
0.868371
0.863029
0.853905
0.841495
0.826273
0.808726
0.789176
0.768057
0.745634
0.72213
0.697653
0.672276
0.646083
0.619176
0.591664
0.563463
0.534617
0.505908
0.478055
0.451417
0.426357
0.403284
0.382693
0.365211
0.351318
0.341972
0.339306
0.348142
0.381813
0.494165
1.16182
0.779539
0.824011
0.865211
0.900951
0.931522
0.956577
0.975549
0.988399
0.995367
0.99689
0.9934
0.985333
0.973133
0.957273
0.938286
0.916887
0.893471
0.868326
0.841696
0.813758
0.784649
0.75448
0.723362
0.691416
0.658743
0.625509
0.592189
0.559522
0.528075
0.498291
0.470701
0.445938
0.424803
0.407977
0.396242
0.392108
0.401271
0.439118
0.567885
1.3406
0.881574
0.930953
0.976708
1.01728
1.05202
1.08041
1.1021
1.11713
1.12585
1.12875
1.12629
1.11887
1.10685
1.09068
1.07106
1.0486
1.02372
0.996674
0.967691
0.936966
0.904664
0.870931
0.835905
0.799738
0.762601
0.724816
0.68688
0.649415
0.612978
0.578194
0.545832
0.516636
0.491414
0.471092
0.456768
0.451109
0.460709
0.503155
0.649816
1.53836
0.980037
1.03538
1.08692
1.13298
1.17242
1.20457
1.22919
1.24644
1.25677
1.26075
1.25896
1.25191
1.24006
1.22398
1.20434
1.18158
1.15605
1.12797
1.09752
1.06485
1.03012
0.993483
0.955099
0.915169
0.873944
0.831781
0.78926
0.747076
0.705668
0.66577
0.62847
0.594612
0.565027
0.540923
0.523943
0.516823
0.526796
0.573917
0.739099
1.74493
1.07443
1.13628
1.19479
1.24745
1.29233
1.32842
1.35557
1.37424
1.38522
1.38941
1.38767
1.38069
1.36909
1.35356
1.33453
1.31232
1.28711
1.25904
1.22819
1.19462
1.15844
1.11977
1.07879
1.03573
0.990934
0.944848
0.898036
0.85114
0.804846
0.760067
0.717834
0.679101
0.644876
0.616775
0.597204
0.589016
0.599304
0.650964
0.835574
1.96962
1.16536
1.23553
1.30249
1.36235
1.41225
1.45099
1.47889
1.4971
1.50709
1.51027
1.50785
1.50071
1.48968
1.47523
1.45765
1.43702
1.41336
1.38661
1.35667
1.3235
1.2871
1.24753
1.20496
1.15966
1.11201
1.06254
1.01186
0.96066
0.909797
0.86032
0.813349
0.769972
0.731342
0.699188
0.676111
0.66593
0.676677
0.733742
0.940457
2.21585
1.25574
1.33648
1.41348
1.48042
1.53341
1.5717
1.59698
1.61176
1.61846
1.61911
1.6152
1.60786
1.59774
1.58513
1.57003
1.55228
1.53159
1.50766
1.48018
1.44892
1.41374
1.37461
1.33167
1.28518
1.23556
1.1834
1.12938
1.07433
1.01922
0.96522
0.913564
0.865506
0.822398
0.786098
0.759674
0.748316
0.76088
0.824594
1.05454
2.4835
1.35424
1.44814
1.53613
1.60782
1.65906
1.69109
1.70855
1.7159
1.71656
1.71299
1.70692
1.69931
1.69056
1.68062
1.66915
1.65563
1.63944
1.61994
1.59655
1.56878
1.53631
1.49901
1.45692
1.4103
1.35961
1.30547
1.24869
1.19023
1.13121
1.07292
1.01674
0.964172
0.916884
0.877134
0.848607
0.837117
0.852738
0.925911
1.18665
2.80222
1.47247
1.58412
1.68321
1.75242
1.79256
1.8104
1.81399
1.80951
1.80121
1.79182
1.78277
1.77468
1.76758
1.76101
1.75421
1.74619
1.73592
1.72236
1.70457
1.68177
1.65342
1.6192
1.57909
1.53331
1.48234
1.42691
1.36794
1.30658
1.24412
1.18205
1.12198
1.0657
1.01528
0.972458
0.940868
0.926985
0.943148
1.02401
1.3165
3.12673
1.61364
1.74367
1.85823
1.9185
1.93467
1.93043
1.91535
1.89533
1.87548
1.85839
1.84517
1.83604
1.83055
1.82776
1.82635
1.82484
1.82165
1.81527
1.80433
1.7877
1.76456
1.73441
1.6971
1.65284
1.60216
1.54589
1.48512
1.42119
1.35561
1.29009
1.22652
1.16668
1.11195
1.06496
1.02971
1.01328
1.03012
1.11837
1.43834
3.4344
1.77782
1.91332
2.03562
2.0919
2.08292
2.05228
2.01497
1.97672
1.94284
1.91612
1.89744
1.88656
1.88249
1.88368
1.88821
1.89396
1.89873
1.90045
1.89724
1.88757
1.87029
1.8447
1.81052
1.76797
1.71764
1.66052
1.59788
1.53127
1.46244
1.39333
1.32568
1.2609
1.2014
1.15009
1.11129
1.09297
1.11141
1.20791
1.55699
3.75273
1.97397
2.10422
2.22641
2.27406
2.23814
2.17699
2.11325
2.05389
2.00405
1.96649
1.94171
1.92891
1.92646
1.93212
1.94327
1.95702
1.97051
1.98098
1.98602
1.98361
1.97227
1.95107
1.91967
1.87828
1.82765
1.76896
1.70374
1.63378
1.56106
1.48753
1.41453
1.34447
1.28003
1.22447
1.18255
1.16321
1.18412
1.28941
1.6691
4.07002
2.18898
2.30822
2.42817
2.46846
2.40153
2.30131
2.20607
2.12358
2.05724
2.00909
1.9789
1.96512
1.96539
1.9767
1.99559
2.01838
2.0414
2.06117
2.07464
2.0793
2.07331
2.05555
2.02564
1.98391
1.93135
1.8695
1.80022
1.72559
1.64784
1.56834
1.48955
1.41411
1.34493
1.28562
1.24131
1.22157
1.24492
1.35869
1.76776
4.36306
2.34666
2.47237
2.59378
2.63401
2.54346
2.4049
2.28027
2.1779
2.09827
2.04242
2.00946
1.99719
2.0025
2.02157
2.05007
2.08343
2.11707
2.1467
2.16856
2.17957
2.17755
2.16127
2.13038
2.08551
2.02813
1.96039
1.8847
1.80355
1.7186
1.63239
1.54764
1.46719
1.39412
1.33224
1.28678
1.26722
1.29233
1.4126
1.84371
4.56561
2.42651
2.56627
2.69982
2.73758
2.62817
2.46579
2.32376
2.21025
2.12407
2.06592
2.03473
2.02793
2.04183
2.07184
2.1127
2.15883
2.20467
2.24497
2.27506
2.29123
2.29095
2.27292
2.23698
2.18427
2.11729
2.0394
1.95388
1.86311
1.76948
1.67588
1.58515
1.50017
1.42403
1.36041
1.31444
1.29537
1.32229
1.44733
1.89227
4.68668
2.50332
2.63414
2.77106
2.7946
2.6599
2.4876
2.33999
2.22339
2.13728
2.08256
2.0583
2.06175
2.08871
2.13376
2.19063
2.25263
2.31305
2.36544
2.40398
2.42392
2.42224
2.39764
2.35006
2.28168
2.19753
2.1034
2.00359
1.90047
1.79678
1.69534
1.59891
1.5102
1.43199
1.36764
1.32203
1.30412
1.33313
1.46169
1.91347
4.7278
2.60036
2.71894
2.85047
2.83895
2.67227
2.4929
2.34338
2.2271
2.14504
2.09825
2.08575
2.10445
2.14946
2.21438
2.29183
2.37387
2.45248
2.51971
2.56779
2.59006
2.58281
2.54509
2.47709
2.38156
2.26908
2.15074
2.03155
1.91374
1.79905
1.68984
1.58855
1.49736
1.41852
1.35484
1.31076
1.29491
1.32627
1.45712
1.90934
4.6978
2.71743
2.82983
2.94101
2.87468
2.68135
2.49451
2.34307
2.22883
2.15376
2.11885
2.12277
2.16183
2.2302
2.32037
2.42372
2.531
2.63256
2.7182
2.77696
2.79939
2.78249
2.72828
2.63354
2.49621
2.33973
2.18829
2.04536
1.90969
1.78224
1.66495
1.55948
1.46702
1.38885
1.32701
1.2854
1.27219
1.30583
1.43733
1.88367
4.60319
2.84307
2.95629
3.02402
2.89213
2.68205
2.49123
2.33998
2.23101
2.16689
2.14842
2.17379
2.23851
2.33569