/*--------------------------------*- C++ -*----------------------------------*\
  =========                 |
  \\      /  F ield         | OpenFOAM: The Open Source CFD Toolbox
   \\    /   O peration     | Website:  https://openfoam.org
    \\  /    A nd           | Version:  8
     \\/     M anipulation  |
\*---------------------------------------------------------------------------*/
FoamFile
{
    version     2.0;
    format      ascii;
    class       volScalarField;
    location    "2.9";
    object      nut;
}
// * * * * * * * * * * * * * * * * * * * * * * * * * * * * * * * * * * * * * //

dimensions      [0 2 -1 0 0 0 0];

internalField   nonuniform List<scalar> 
9150
(
9.60083e-06
6.40027e-06
6.58537e-06
8.79661e-06
7.67871e-06
7.68181e-06
8.80469e-06
6.58853e-06
6.39939e-06
9.60097e-06
9.48834e-06
5.73126e-06
8.29825e-06
9.94334e-06
7.14667e-06
7.14863e-06
9.94936e-06
8.30322e-06
5.73058e-06
9.48842e-06
9.29616e-06
5.49461e-06
1.08289e-05
1.03191e-05
6.79713e-06
6.79907e-06
1.03234e-05
1.08345e-05
5.49409e-06
9.2962e-06
9.08046e-06
5.41705e-06
1.34312e-05
1.03168e-05
6.6099e-06
6.612e-06
1.03206e-05
1.34356e-05
5.41662e-06
9.08048e-06
8.8456e-06
5.40085e-06
1.56709e-05
1.02254e-05
6.51485e-06
6.51706e-06
1.02292e-05
1.5673e-05
5.40044e-06
8.84561e-06
5.91726e-06
1.12805e-05
1.38932e-05
1.75233e-05
1.68169e-05
1.68287e-05
1.75554e-05
1.39398e-05
1.13097e-05
5.91922e-06
6.28289e-06
8.86328e-06
1.13828e-05
1.5395e-05
1.45502e-05
1.45579e-05
1.54158e-05
1.14104e-05
8.87472e-06
6.28285e-06
6.83338e-06
7.90626e-06
9.40808e-06
1.31427e-05
1.22382e-05
1.22442e-05
1.31583e-05
9.42318e-06
7.9091e-06
6.83319e-06
7.3895e-06
7.29709e-06
7.99571e-06
1.1219e-05
1.0294e-05
1.02989e-05
1.12313e-05
8.00386e-06
7.29694e-06
7.3894e-06
8.07584e-06
6.8453e-06
7.07066e-06
9.70811e-06
8.72842e-06
8.73236e-06
9.71778e-06
7.07527e-06
6.84447e-06
8.07582e-06
1.30327e-05
1.47445e-05
1.26118e-05
1.55373e-05
1.75021e-05
1.77437e-05
1.62801e-05
1.4504e-05
2.02457e-05
1.39345e-05
7.87803e-06
1.07726e-05
1.2312e-05
1.57639e-05
1.7621e-05
1.77866e-05
1.62167e-05
1.27078e-05
1.0872e-05
7.92053e-06
7.45566e-06
1.01687e-05
1.24367e-05
1.60044e-05
1.77241e-05
1.78368e-05
1.63002e-05
1.26621e-05
1.02341e-05
7.47335e-06
7.03366e-06
9.77539e-06
1.25029e-05
1.6193e-05
1.78042e-05
1.78796e-05
1.63819e-05
1.2642e-05
9.85507e-06
7.04156e-06
6.51449e-06
1.00425e-05
1.25334e-05
1.64101e-05
1.77255e-05
1.77703e-05
1.65094e-05
1.2612e-05
1.01088e-05
6.51804e-06
1.0684e-05
1.06764e-05
1.06687e-05
1.06611e-05
1.06539e-05
1.06474e-05
1.06418e-05
1.06373e-05
1.0634e-05
1.0632e-05
9.26276e-05
9.25657e-05
9.25172e-05
9.24869e-05
9.24796e-05
9.24998e-05
9.25521e-05
9.26407e-05
9.27691e-05
9.29399e-05
0.000185027
0.000184963
0.000184908
0.000184869
0.000184853
0.000184865
0.00018491
0.000184989
0.000185104
0.00018525
0.000267265
0.000267141
0.000267001
0.000266855
0.000266709
0.000266567
0.000266433
0.000266306
0.000266185
0.000266062
0.000339563
0.000339322
0.000339031
0.000338699
0.00033833
0.00033793
0.0003375
0.000337038
0.000336542
0.000336003
0.000403448
0.000403051
0.000402564
0.000401993
0.000401344
0.00040062
0.000399823
0.000398951
0.000397999
0.00039696
0.000460283
0.000459703
0.000458989
0.000458148
0.000457184
0.000456101
0.000454899
0.000453575
0.000452126
0.000450544
0.000511164
0.000510384
0.000509428
0.000508299
0.000507004
0.000505545
0.000503921
0.00050213
0.000500168
0.000498029
0.000556973
0.000555985
0.000554778
0.000553356
0.000551725
0.000549886
0.000547839
0.000545582
0.000543111
0.000540419
0.000598422
0.000597221
0.000595762
0.000594049
0.000592085
0.000589874
0.000587414
0.000584703
0.000581738
0.000578511
0.000636085
0.000634673
0.000632965
0.000630968
0.000628683
0.000626113
0.000623257
0.000620113
0.000616677
0.000612944
0.000670426
0.000668807
0.00066686
0.000664589
0.000661999
0.000659089
0.000655861
0.000652311
0.000648435
0.00064423
0.000701813
0.000699994
0.000697819
0.000695292
0.000692416
0.000689192
0.000685619
0.000681696
0.000677418
0.00067278
0.000730523
0.000728516
0.000726129
0.000723366
0.00072023
0.000716721
0.000712839
0.00070858
0.000703942
0.000698919
0.000756751
0.00075457
0.000751991
0.000749018
0.000745653
0.000741895
0.000737744
0.000733196
0.000728247
0.000722892
0.000780605
0.000778269
0.000775524
0.000772372
0.000768816
0.000764853
0.000760482
0.000755697
0.000750495
0.00074487
0.000802104
0.000799638
0.000796758
0.000793467
0.000789765
0.000785649
0.000781115
0.000776158
0.00077077
0.000764948
0.00082118
0.000818612
0.000815637
0.000812253
0.000808459
0.000804251
0.000799623
0.000794567
0.000789075
0.000783139
0.00083767
0.000835038
0.000832011
0.00082859
0.000824768
0.000820541
0.0008159
0.000810832
0.000805325
0.00079937
0.000851332
0.000848675
0.00084565
0.000842253
0.000838478
0.000834312
0.000829744
0.000824758
0.000819337
0.000813467
0.00086185
0.000859209
0.000856241
0.000852937
0.000849285
0.000845269
0.000840869
0.000836065
0.000830834
0.000825158
0.000868866
0.00086628
0.000863421
0.000860276
0.000856827
0.000853049
0.000848916
0.000844399
0.000839466
0.000834092
0.000872031
0.000869529
0.000866823
0.000863894
0.000860718
0.000857263
0.00085349
0.00084936
0.00084483
0.000839858
0.000871078
0.000868673
0.000866144
0.00086347
0.000860618
0.000857547
0.000854208
0.000850549
0.00084651
0.000842033
0.00086592
0.000863605
0.000861253
0.000858841
0.000856331
0.000853675
0.000850814
0.000847681
0.000844206
0.000840305
0.000856785
0.000854534
0.000852336
0.000850164
0.00084798
0.00084573
0.000843349
0.00084076
0.000837879
0.000834612
0.000844357
0.000842147
0.00084007
0.000838101
0.000836202
0.00083432
0.000832387
0.000830321
0.000828025
0.000825397
0.000829902
0.000827754
0.000825805
0.000824033
0.000822405
0.000820873
0.000819379
0.000817846
0.000816187
0.000814301
0.000815302
0.000813344
0.00081164
0.000810173
0.000808916
0.000807833
0.00080688
0.000806005
0.000805151
0.000804259
0.000802915
0.000801438
0.000800269
0.000799398
0.000798809
0.000798478
0.000798381
0.000798492
0.000798793
0.000799269
0.000795199
0.00079468
0.000794535
0.000794759
0.000795344
0.000796282
0.00079757
0.000799217
0.00080124
0.000803654
0.000794106
0.000795157
0.000796666
0.000798614
0.000800993
0.000803815
0.000807121
0.000810964
0.000815365
0.000820277
0.000800452
0.000803672
0.000807453
0.000811713
0.000816378
0.000821494
0.000827201
0.000833615
0.000840665
0.000848147
0.000813704
0.000819522
0.000825981
0.000832767
0.000839641
0.000846791
0.000854625
0.00086345
0.000873156
0.000883064
0.00083207
0.000840312
0.00084922
0.000858095
0.000866383
0.000874876
0.000884156
0.000894662
0.000906426
0.000918822
0.000852683
0.000861988
0.000871107
0.000880549
0.000890205
0.000900573
0.0009122
0.000925122
0.00093863
0.000951761
0.000869256
0.00087893
0.000889012
0.000899769
0.000911146
0.000923356
0.000936448
0.0009502
0.000964149
0.000977891
0.000882843
0.000893627
0.000904968
0.000916935
0.000929534
0.000942763
0.00095651
0.000970576
0.000984697
0.000998607
0.00089571
0.000907303
0.000919498
0.000932268
0.00094553
0.000959171
0.000973041
0.000986971
0.00100078
0.00101432
0.000907798
0.000919914
0.000932572
0.00094567
0.000959057
0.000972566
0.00098604
0.000999349
0.00101239
0.00102512
0.000918971
0.000931349
0.00094412
0.000957151
0.000970238
0.000983178
0.000995815
0.00100807
0.00101992
0.00103146
0.000928957
0.000941463
0.000954169
0.000966911
0.000979439
0.00099152
0.00100301
0.00101389
0.00102431
0.00103441
0.000937386
0.00095004
0.000962683
0.00097508
0.000986903
0.000997927
0.00100809
0.0010175
0.00102644
0.00103513
0.000943874
0.000956875
0.000969698
0.000981839
0.000992843
0.0010027
0.00101154
0.00101965
0.0010273
0.00103471
0.000948289
0.00096189
0.0009751
0.000987141
0.000997591
0.00100661
0.00101447
0.00102161
0.00102829
0.00103465
0.000949961
0.000963688
0.000976906
0.000988993
0.000999549
0.00100857
0.00101653
0.00102369
0.0010301
0.00103567
0.000948135
0.000961475
0.000974246
0.000986055
0.000996714
0.0010063
0.00101502
0.00102288
0.00102958
0.00103485
0.000943685
0.00095614
0.000968139
0.000979377
0.000989748
0.00099931
0.00100791
0.00101542
0.00102177
0.00102688
0.000937126
0.000948315
0.000959321
0.00096999
0.000980074
0.000989434
0.000997737
0.00100471
0.00101019
0.00101406
0.000928838
0.000938869
0.000949037
0.000959253
0.000969131
0.000978286
0.000986303
0.000992688
0.000997129
0.000999486
0.000919381
0.000928722
0.000938681
0.000949257
0.000959734
0.000968841
0.000976431
0.000981772
0.000984635
0.000985071
0.00090946
0.000919453
0.000931045
0.000944235
0.000956794
0.000965754
0.000970984
0.000973658
0.000973989
0.000971959
0.00090134
0.000913952
0.000929621
0.000946451
0.000962544
0.000969436
0.000968786
0.000967444
0.000964731
0.000959991
0.00089738
0.000913931
0.000933517
0.000955527
0.000970087
0.000968109
0.000963495
0.000959432
0.000954328
0.00094723
0.000896551
0.000916119
0.000938865
0.000963688
0.000968917
0.000959838
0.000953475
0.000947685
0.000940473
0.00093111
0.0008977
0.000919673
0.000946207
0.000961502
0.000954318
0.000945928
0.000939036
0.000931428
0.000921711
0.000909902
0.000900977
0.00092524
0.00094625
0.000945289
0.000935964
0.000928134
0.000919869
0.000909601
0.000897044
0.000883195
0.000904188
0.000925353
0.000928964
0.000921637
0.000914144
0.000905456
0.000894455
0.000880948
0.000865886
0.000850997
0.000901517
0.000907133
0.000903394
0.000897179
0.000888421
0.000876692
0.000862157
0.000845786
0.000829283
0.000814469
0.000884916
0.000883677
0.00087845
0.000869631
0.000857305
0.000841933
0.000824513
0.000806579
0.000790013
0.000776272
0.000864601
0.000859549
0.000850418
0.000837625
0.000821733
0.000803667
0.000784742
0.0007666
0.000750954
0.00073871
0.000843234
0.000833497
0.00082017
0.000803824
0.000785266
0.000765602
0.00074621
0.000728639
0.000714318
0.000703395
0.000820234
0.00080657
0.000789835
0.000770763
0.000750341
0.000729788
0.000710468
0.000693818
0.000680975
0.000671097
0.000795042
0.000778464
0.000759272
0.000738343
0.000716796
0.000695916
0.000677054
0.000661549
0.000650251
0.000641126
0.000767656
0.000748904
0.000728009
0.000705949
0.000683919
0.00066324
0.000645238
0.000631132
0.000621431
0.000612822
0.000738745
0.000718312
0.000696238
0.000673586
0.0006516
0.000631604
0.000614881
0.00060247
0.000594303
0.000586063
0.000708918
0.000687214
0.000664379
0.000641564
0.000620068
0.000601208
0.000586213
0.000575862
0.000569151
0.000561092
0.00067879
0.000656173
0.000632911
0.000610251
0.000589556
0.000572166
0.000559253
0.000551277
0.000545898
0.00053777
0.000649091
0.000625869
0.000602468
0.000580234
0.000560615
0.000545003
0.00053446
0.000528853
0.000524449
0.000516058
0.000620499
0.00059691
0.000573583
0.000552017
0.000533803
0.000520449
0.000512799
0.000509442
0.000505241
0.000496555
0.000593648
0.000569687
0.00054646
0.000525687
0.000509165
0.000498463
0.000493955
0.000492232
0.000487461
0.000478777
0.000568578
0.000544146
0.000521047
0.000501286
0.000486903
0.000479314
0.000477681
0.00047648
0.000470652
0.000462357
0.000544806
0.000519825
0.000496961
0.000478597
0.000466952
0.000462981
0.000463513
0.000461556
0.000454857
0.000447508
0.000521992
0.000496444
0.000474063
0.000457647
0.000449342
0.000448807
0.000449911
0.00044611
0.000439575
0.000434125
0.000499851
0.000473836
0.000452423
0.000438737
0.000434475
0.000436474
0.000436268
0.000430927
0.000425498
0.000422558
0.000478127
0.000451897
0.000432142
0.000421964
0.000421647
0.000424161
0.000421166
0.00041582
0.000412829
0.000413073
0.000456689
0.000430772
0.000413602
0.000407784
0.000410203
0.000410542
0.000405271
0.000401472
0.000401854
0.000405916
0.00043544
0.00041072
0.000397146
0.000395713
0.0003983
0.000394501
0.000389075
0.000388542
0.000393123
0.000401585
0.000414526
0.000392258
0.000383401
0.000384997
0.000384583
0.000377436
0.000373729
0.000377607
0.000387078
0.000400529
0.000394415
0.000376055
0.000372322
0.000374097
0.000368216
0.000360164
0.000360175
0.000369475
0.000384339
0.000403311
0.000375854
0.000362966
0.000363217
0.000361779
0.000351029
0.000343966
0.00034894
0.000364422
0.000385125
0.000410238
0.000359523
0.00035345
0.000354922
0.000347132
0.000333609
0.000329246
0.000340377
0.000362636
0.000389613
0.000421587
0.000346262
0.000346384
0.000345462
0.000330633
0.000316019
0.000315613
0.000334063
0.000363695
0.000397649
0.000437427
0.000337628
0.000340972
0.000333466
0.000313317
0.000298403
0.000302922
0.000329813
0.000367327
0.000409166
0.000457773
0.000332474
0.000334697
0.00031847
0.000294953
0.000280586
0.000291038
0.000327332
0.00037316
0.000423882
0.000482314
0.000330495
0.000327718
0.000304449
0.00027731
0.000262802
0.000279982
0.000326393
0.00038083
0.000441214
0.000510113
0.000330268
0.000318183
0.00028958
0.00025894
0.000244052
0.00026932
0.000326412
0.000389669
0.000460165
0.00053976
0.000329964
0.000309217
0.000275495
0.000240048
0.000223884
0.000258569
0.000326565
0.000398736
0.000479364
0.000569576
0.000331054
0.000302431
0.000262528
0.000220566
0.000202231
0.000247728
0.000326248
0.000406995
0.000497098
0.000597389
0.000328641
0.000295092
0.000249299
0.00019991
0.000178857
0.000236458
0.000324665
0.00041323
0.000511408
0.000620419
0.000328523
0.000288971
0.000236433
0.000178499
0.000153955
0.000224323
0.000321143
0.000416482
0.000520767
0.00063625
0.000330488
0.000284308
0.000224004
0.000156492
0.000127886
0.000210838
0.00031523
0.00041638
0.000524689
0.000643805
0.000334665
0.000280645
0.000211129
0.000133654
0.000101344
0.00019531
0.000306558
0.000413203
0.000523924
0.000643741
0.000340765
0.000276744
0.000196389
0.000109964
7.5655e-05
0.000176443
0.000294473
0.000407692
0.000520613
0.000639005
0.000345937
0.000270405
0.000178301
8.61757e-05
5.27123e-05
0.000152103
0.000277366
0.000400238
0.000517493
0.00063394
0.000350276
0.000261127
0.000156551
6.39773e-05
3.46629e-05
0.000120541
0.000251968
0.0003899
0.000517704
0.00063487
0.00035282
0.000247557
0.000130617
4.48191e-05
2.32932e-05
8.31351e-05
0.000212672
0.00037193
0.00052384
0.000652929
0.000354204
0.00022796
0.000100756
3.02365e-05
1.85123e-05
4.71105e-05
0.000153094
0.000331662
0.000530219
0.000704648
0.000359152
0.000199794
6.85462e-05
2.12525e-05
1.75275e-05
2.43938e-05
7.81337e-05
0.00023947
0.000494619
0.000797971
0.000427268
0.000148734
3.57388e-05
1.68362e-05
1.74252e-05
1.81637e-05
2.51993e-05
9.0467e-05
0.000294596
0.000702436
1.06316e-05
1.06332e-05
1.06378e-05
1.06476e-05
1.06668e-05
1.06888e-05
1.071e-05
1.07296e-05
1.0747e-05
1.07618e-05
1.07733e-05
1.07809e-05
1.07836e-05
1.07808e-05
1.07714e-05
1.07543e-05
1.07284e-05
1.06924e-05
1.06447e-05
1.05838e-05
1.05077e-05
1.04144e-05
1.03017e-05
1.01673e-05
1.00089e-05
9.82424e-06
9.6119e-06
9.36946e-06
9.10228e-06
8.81301e-06
8.4884e-06
8.12536e-06
7.72348e-06
7.28676e-06
6.85471e-06
6.39997e-06
5.90559e-06
5.35961e-06
4.77128e-06
5.47673e-06
9.3159e-05
9.34372e-05
9.37421e-05
9.40397e-05
9.42392e-05
9.43609e-05
9.44535e-05
9.4536e-05
9.46128e-05
9.46817e-05
9.47373e-05
9.47721e-05
9.47772e-05
9.47419e-05
9.46542e-05
9.45004e-05
9.42647e-05
9.39295e-05
9.34747e-05
9.28776e-05
9.21126e-05
9.11515e-05
8.99631e-05
8.85139e-05
8.6769e-05
8.4693e-05
8.22535e-05
7.94247e-05
7.6181e-05
7.25385e-05
6.85372e-05
6.41913e-05
5.95058e-05
5.43595e-05
4.83785e-05
4.22134e-05
3.59103e-05
2.92545e-05
2.14466e-05
1.10085e-05
0.000185426
0.00018563
0.000185823
0.000185968
0.000186026
0.000186007
0.000185924
0.000185784
0.000185582
0.000185311
0.000184959
0.000184511
0.000183949
0.000183252
0.000182401
0.00018137
0.000180133
0.000178663
0.000176927
0.000174892
0.00017252
0.000169771
0.000166602
0.000162965
0.000158816
0.000154106
0.000148795
0.000142851
0.000136257
0.000129024
0.000121186
0.000112783
0.000103832
9.42841e-05
8.40119e-05
7.29185e-05
6.10539e-05
4.79589e-05
3.28105e-05
1.55504e-05
0.00026592
0.000265741
0.000265508
0.00026519
0.000264773
0.000264253
0.000263625
0.00026288
0.000262006
0.000260987
0.000259806
0.000258442
0.000256871
0.00025507
0.000253012
0.000250669
0.000248012
0.000245011
0.000241633
0.000237843
0.000233606
0.000228882
0.000223634
0.000217818
0.000211392
0.000204316
0.000196546
0.00018805
0.0001788
0.000168789
0.000158036
0.000146577
0.000134442
0.00012159
0.000107891
9.31239e-05
7.69881e-05
5.91761e-05
3.9315e-05
1.879e-05
0.00033538
0.000334639
0.000333794
0.000332821
0.000331701
0.000330434
0.000329005
0.000327398
0.000325593
0.00032357
0.000321305
0.000318775
0.000315954
0.000312815
0.00030933
0.000305472
0.000301212
0.000296519
0.000291365
0.00028572
0.000279555
0.00027284
0.000265547
0.000257648
0.000249115
0.00023992
0.000230036
0.000219432
0.000208075
0.000195933
0.000182988
0.00016925
0.000154728
0.000139348
0.00012291
0.000105097
8.54666e-05
6.3497e-05
3.89356e-05
1.97862e-05
0.000395761
0.000394355
0.000392792
0.000391047
0.000389096
0.000386946
0.000384575
0.000381964
0.000379088
0.000375924
0.000372448
0.000368631
0.000364449
0.000359872
0.000354873
0.000349425
0.0003435
0.00033707
0.000330112
0.0003226
0.000314513
0.000305831
0.00029654
0.000286627
0.000276084
0.000264906
0.000253092
0.000240635
0.000227519
0.000213706
0.000199133
0.000183746
0.000167539
0.000150407
0.000132093
0.000112212
9.01691e-05
6.52606e-05
3.73317e-05
1.98651e-05
0.000448723
0.000446602
0.000444266
0.000441692
0.000438856
0.000435762
0.000432389
0.000428713
0.000424712
0.000420359
0.000415628
0.000410492
0.000404924
0.000398895
0.00039238
0.000385349
0.000377778
0.000369641
0.000360916
0.000351583
0.000341625
0.000331031
0.000319793
0.000307913
0.000295399
0.000282269
0.000268551
0.00025428
0.000239495
0.000224223
0.000208441
0.00019202
0.000174852
0.00015679
0.000137584
0.000116812
9.37339e-05
6.73402e-05
3.7662e-05
2.0089e-05
0.000495573
0.000492721
0.0004896
0.000486188
0.000482458
0.00047841
0.000474025
0.000469282
0.000464157
0.000458623
0.000452655
0.000446226
0.000439308
0.000431874
0.000423897
0.000415352
0.000406212
0.000396455
0.000386059
0.000375005
0.00036328
0.000350874
0.000337784
0.000324015
0.000309583
0.000294515
0.000278859
0.000262678
0.000246065
0.000229146
0.000212069
0.0001949
0.00017734
0.000158943
0.000139377
0.000118254
9.50012e-05
6.85293e-05
3.72189e-05
4.67223e-06
0.000537334
0.000533764
0.000529872
0.00052564
0.000521043
0.00051606
0.000510692
0.000504916
0.000498708
0.000492043
0.000484895
0.000477238
0.000469047
0.000460295
0.000450958
0.000441008
0.000430424
0.000419182
0.000407262
0.000394646
0.000381321
0.000367277
0.000352511
0.000337031
0.000320854
0.000304015
0.00028657
0.000268603
0.000250237
0.000231631
0.00021296
0.000194299
0.000175408
0.000155928
0.000135424
0.00011352
8.99832e-05
6.4329e-05
3.49752e-05
4.674e-06
0.00057482
0.000570558
0.000565927
0.000560908
0.00055548
0.000549618
0.000543323
0.000536574
0.000529349
0.000521626
0.000513381
0.000504591
0.000495231
0.000485278
0.000474709
0.0004635
0.000451629
0.000439077
0.000425823
0.000411852
0.00039715
0.000381709
0.000365526
0.00034861
0.00033098
0.000312674
0.000293755
0.000274311
0.000254465
0.000234362
0.000214135
0.000193835
0.000173336
0.000152378
0.000130574
0.000107606
8.35241e-05
5.83252e-05
3.20522e-05
1.99812e-05
0.000608679
0.000603765
0.000598439
0.000592684
0.00058648
0.000579806
0.000572647
0.000564997
0.000556837
0.000548146
0.000538905
0.000529091
0.000518685
0.000507665
0.000496014
0.00048371
0.000470735
0.000457072
0.000442704
0.000427617
0.000411799
0.000395244
0.00037795
0.000359925
0.000341192
0.000321789
0.000301779
0.000281253
0.000260325
0.00023912
0.000217744
0.000196228
0.000174492
0.000152344
0.000129562
0.000106028
8.17626e-05
5.67514e-05
3.07793e-05
2.00064e-05
0.000639432
0.000633914
0.000627945
0.00062151
0.000614592
0.000607172
0.000599231
0.000590767
0.000581764
0.000572206
0.000562077
0.00055136
0.000540039
0.0005281
0.000515526
0.000502303
0.000488417
0.000473854
0.000458602
0.000442651
0.000425989
0.000408612
0.000390519
0.000371716
0.000352224
0.00033208
0.000311345
0.000290106
0.000268475
0.000246567
0.000224467
0.000202194
0.000179674
0.000156743
0.000133195
0.000108869
8.36284e-05
5.73575e-05
3.01662e-05
2.01493e-05
0.000667497
0.000661428
0.000654875
0.000647825
0.000640262
0.000632172
0.000623537
0.000614348
0.000604599
0.00059428
0.000583379
0.000571885
0.000559788
0.000547077
0.000533745
0.000519781
0.000505178
0.000489926
0.000474017
0.000457444
0.000440197
0.000422272
0.000403666
0.000384381
0.00036443
0.000343844
0.000322676
0.000301014
0.000278966
0.000256642
0.0002341
0.000211324
0.000188213
0.000164595
0.000140251
0.000114935
8.8412e-05
6.03718e-05
3.08838e-05
4.89049e-06
0.000693203
0.000686645
0.000679574
0.000671979
0.000663848
0.000655167
0.000645925
0.000636109
0.00062572
0.000614751
0.000603198
0.000591057
0.000578323
0.000564994
0.000551066
0.000536537
0.000521403
0.00050566
0.000489303
0.000472327
0.000454725
0.000436488
0.000417611
0.00039809
0.000377929
0.000357145
0.000335783
0.000313929
0.000291699
0.000269185
0.000246393
0.000223233
0.000199543
0.000175124
0.000149759
0.000123213
9.51785e-05
6.52908e-05
3.35966e-05
5.31088e-06
0.000716803
0.000709826
0.000702311
0.000694249
0.000685632
0.00067645
0.000666693
0.000656355
0.000645435
0.000633935
0.000621855
0.000609199
0.000595971
0.000582174
0.000567811
0.000552884
0.000537395
0.000521342
0.000504723
0.000487533
0.000469764
0.000451407
0.000432451
0.000412889
0.000392718
0.000371949
0.000350618
0.000328806
0.000306637
0.000284163
0.000261296
0.000237846
0.000213581
0.000188248
0.000161586
0.000133297
0.000103013
7.03877e-05
3.5731e-05
5.72527e-06
0.000738479
0.00073116
0.000723284
0.000714844
0.000705834
0.000696248
0.000686082
0.000675332
0.000663998
0.000652088
0.000639613
0.000626582
0.000613005
0.000598891
0.00058425
0.000569088
0.000553407
0.000537209
0.000520489
0.000503243
0.00048546
0.000467128
0.000448237
0.000428777
0.000408752
0.000388183
0.000367114
0.000345612
0.000323759
0.0003015
0.00027863
0.000254886
0.000229984
0.000203626
0.000175494
0.000145231
0.00011244
7.68029e-05
3.87694e-05
6.14482e-06
0.000758335
0.000750765
0.000742623
0.000733903
0.000724603
0.000714721
0.000704258
0.000693216
0.000681596
0.000669411
0.000656678
0.000643416
0.000629641
0.000615367
0.000600607
0.000585369
0.000569655
0.000553465
0.000536793
0.000519631
0.000501966
0.000483785
0.000465077
0.00044584
0.00042609
0.000405876
0.000385261
0.000364292
0.00034289
0.000320842
0.000297882
0.000273721
0.00024806
0.000220578
0.000190913
0.000158641
0.00012327
8.43276e-05
4.22685e-05
6.55188e-06
0.000776398
0.000768679
0.000760377
0.000751489
0.000742014
0.000731955
0.000721319
0.000710112
0.000698343
0.000686024
0.000673181
0.00065984
0.000646024
0.000631752
0.000617036
0.000601885
0.0005863
0.000570275
0.000553801
0.000536865
0.000519452
0.000501553
0.000483162
0.000464285
0.000444952
0.000425215
0.000405107
0.000384584
0.000363475
0.000341486
0.000318257
0.000293483
0.000266883
0.000238126
0.000206811
0.000172452
0.00013445
9.21853e-05
4.60405e-05
6.93028e-06
0.000792605
0.000784851
0.000776506
0.000767569
0.000758043
0.000747936
0.000737258
0.000726025
0.000714247
0.000701942
0.000689142
0.00067588
0.000662187
0.000648084
0.000633585
0.000618694
0.000603409
0.000587717
0.000571601
0.000555043
0.000538026
0.000520539
0.000502586
0.000484186
0.00046537
0.000446155
0.000426498
0.000406259
0.000385188
0.000362931
0.000339132
0.00031351
0.000285774
0.000255573
0.000222475
0.000185942
0.000145299
9.98197e-05
4.9801e-05
7.27579e-06
0.000806791
0.000799124
0.00079086
0.000782001
0.000772552
0.000762527
0.000751943
0.00074082
0.000729178
0.000717035
0.00070443
0.000691408
0.000678005
0.000664246
0.000650143
0.000635697
0.000620899
0.000605729
0.000590159
0.00057416
0.000557703
0.000540774
0.000523376
0.000505532
0.000487262
0.000468525
0.000449177
0.000428986
0.00040765
0.00038483
0.000360225
0.000333556
0.000304509
0.000272709
0.000237696
0.000198892
0.000155575
0.000106958
5.33061e-05
7.59126e-06
0.000818688
0.000811233
0.000803176
0.000794517
0.00078527
0.000775453
0.000765091
0.00075421
0.000742836
0.000730996
0.000718734
0.000706109
0.000693163
0.000679923
0.000666401
0.000652594
0.000638487
0.000624049
0.000609241
0.000594018
0.000578335
0.000562157
0.000545464
0.000528254
0.000510505
0.000492092
0.000472817
0.000452433
0.000430624
0.000407095
0.000381563
0.000353727
0.000323247
0.000289727
0.000252678
0.000211495
0.000165426
0.000113666
5.65305e-05
7.88746e-06
0.000827942
0.000820817
0.000813077
0.00080473
0.000795793
0.000786295
0.000776267
0.000765745
0.000754762
0.00074335
0.000731568
0.000719489
0.000707162
0.000694613
0.000681854
0.00066888
0.000655667
0.000642175
0.000628349
0.000614126
0.000599442
0.000584239
0.000568455
0.000552009
0.000534784
0.000516626
0.000497319
0.000476618
0.000454263
0.000429976
0.000403458
0.000374389
0.000342403
0.000307072
0.000267876
0.00022418
0.000175218
0.000120205
5.95864e-05
8.17825e-06
0.00083413
0.000827431
0.000820101
0.000812154
0.000803617
0.00079453
0.000784934
0.000774874
0.000764392
0.000753525
0.000742354
0.00073097
0.000719421
0.000707732
0.000695917
0.000683967
0.000671851
0.000659512
0.000646879
0.000633868
0.000620389
0.000606342
0.000591604
0.00057602
0.000559419
0.000541606
0.000522364
0.000501463
0.000478654
0.000453669
0.000426208
0.000395928
0.000362432
0.000325247
0.000283809
0.000237445
0.000185382
0.000126885
6.26181e-05
8.47792e-06
0.000836812
0.000830618
0.000823767
0.000816287
0.000808225
0.000799633
0.000790565
0.000781075
0.000771212
0.00076102
0.000750613
0.000740095
0.000729505
0.000718861
0.000708181
0.000697454
0.000686634
0.000675649
0.000664407
0.0006528
0.000640702
0.000627954
0.000614366
0.000599737
0.000583868
0.000566544
0.000547544
0.000526644
0.0005036
0.00047813
0.000449914
0.000418574
0.000383669
0.000344666
0.000300935
0.000251751
0.000196332
0.000134022
6.57776e-05
8.80077e-06
0.000835676
0.000830045
0.000823724
0.000816776
0.000809275
0.000801288
0.000792882
0.000784112
0.000775036
0.000765699
0.000756252
0.000746806
0.000737401
0.000728043
0.000718731
0.000709438
0.000700104
0.000690638
0.000680926
0.000670836
0.000660208
0.00064883
0.000636463
0.000622873
0.000607843
0.000591161
0.000572619
0.000551985
0.00052899
0.000503323
0.000474618
0.000442451
0.000406319
0.000365615
0.000319612
0.000267506
0.000208488
0.000141985
6.92756e-05
9.16106e-06
0.000830659
0.000825668
0.000819959
0.000813665
0.000806889
0.00079971
0.000792196
0.000784403
0.000776379
0.000768172
0.000759978
0.000751896
0.000743964
0.000736167
0.000728467
0.000720799
0.000713084
0.000705213
0.000697051
0.000688444
0.000679209
0.000669124
0.000657935
0.000645399
0.000631297
0.000615431
0.000597578
0.000577474
0.000554812
0.000529236
0.000500326
0.000467592
0.00043046
0.000388231
0.00034007
0.000285042
0.000222278
0.000151252
7.34481e-05
9.57062e-06
0.000822197
0.000818026
0.00081316
0.000807801
0.000802073
0.000796059
0.000789816
0.000783384
0.000776787
0.000770123
0.000763575
0.000757226
0.000751084
0.000745098
0.000739182
0.000733239
0.000727156
0.000720806
0.000714048
0.000706723
0.000698652
0.000689633
0.000679455
0.000667904
0.000654747
0.000639762
0.00062271
0.000603298
0.000581168
0.000555908
0.000527033
0.000493975
0.00045606
0.000412488
0.000362327
0.000304528
0.000238085
0.000162272
7.86682e-05
1.00336e-05
0.00081204
0.000809031
0.000805411
0.000801408
0.000797173
0.000792786
0.000788291
0.000783699
0.000779
0.000774335
0.000769841
0.000765559
0.000761445
0.000757394
0.000753268
0.000748935
0.000744268
0.000739148
0.000733452
0.000727051
0.000719807
0.000711565
0.000702159
0.000691402
0.000679063
0.000664884
0.000648584
0.000629866
0.000608333
0.000583502
0.000554809
0.000521591
0.00048307
0.000438324
0.0003863
0.000325843
0.000255736
0.000174962
8.49654e-05
1.05434e-05
0.000803285
0.000801914
0.00080009
0.000797968
0.00079573
0.000793465
0.000791189
0.000788882
0.0007865
0.000784212
0.000782058
0.000779996
0.000777911
0.000775633
0.000772995
0.000769865
0.000766148
0.000761764
0.00075664
0.0007507
0.000743853
0.000735997
0.000727009
0.000716732
0.000704967
0.000691431
0.000675747
0.000657612
0.000636626
0.000612236
0.00058379
0.000550523
0.000511538
0.000465775
0.000412007
0.000348867
0.000274913
0.000188903
9.20638e-05
1.10914e-05
0.000800024
0.000800825
0.000801459
0.000801849
0.000802112
0.000802335
0.000802525
0.000802656
0.000802771
0.000802926
0.000803047
0.000802988
0.000802532
0.00080147
0.000799673
0.000797084
0.000793682
0.000789453
0.000784381
0.000778435
0.000771568
0.000763709
0.000754764
0.000744598
0.000733025
0.000719786
0.000704504
0.000686783
0.000666222
0.000642223
0.000614025
0.000580743
0.000541336
0.000494575
0.000439019
0.000373022
0.000294847
0.000203061
9.92325e-05
1.16785e-05
0.000806725
0.000810322
0.000814069
0.000817533
0.000820559
0.000823199
0.000825624
0.000827966
0.000830313
0.000832537
0.000834388
0.000835548
0.000835744
0.000834899
0.000833046
0.000830244
0.000826544
0.000821976
0.000816551
0.000810259
0.000803066
0.000794918
0.00078573
0.000775386
0.000763711
0.000750457
0.000735277
0.000717755
0.000697418
0.000673645
0.000645603
0.000612268
0.000572444
0.000524709
0.000467384
0.000398536
0.000316075
0.00021829
0.000106738
1.23278e-05
0.00082609
0.00083287
0.00084011
0.000846807
0.000852287
0.000856889
0.00086133
0.000865726
0.000869955
0.000873577
0.000875873
0.000876482
0.000875775
0.000874025
0.000871334
0.000867784
0.000863416
0.000858246
0.000852269
0.000845471
0.000837818
0.000829254
0.000819694
0.000809014
0.000797045
0.000783565
0.000768256
0.000750709
0.000730407
0.000706675
0.000678628
0.000645135
0.000604826
0.000556082
0.000496971
0.000425242
0.000338432
0.000234431
0.000114721
1.29904e-05
0.000856682
0.000866744
0.000877573
0.000886785
0.000893941
0.000900712
0.000907635
0.00091411
0.00091917
0.000921968
0.000922318
0.000921044
0.000918851
0.000915896
0.000912206
0.000907812
0.000902715
0.000896906
0.000890363
0.000883063
0.000874963
0.000865997
0.000856064
0.000845026
0.000832703
0.000818895
0.000803334
0.000785621
0.000765202
0.00074136
0.000713154
0.000679363
0.00063846
0.000588608
0.00052761
0.000452861
0.000361475
0.000250928
0.000122804
1.36264e-05
0.000893822
0.000906237