/*--------------------------------*- C++ -*----------------------------------*\
  =========                 |
  \\      /  F ield         | OpenFOAM: The Open Source CFD Toolbox
   \\    /   O peration     | Website:  https://openfoam.org
    \\  /    A nd           | Version:  8
     \\/     M anipulation  |
\*---------------------------------------------------------------------------*/
FoamFile
{
    version     2.0;
    format      ascii;
    class       volScalarField;
    location    "2.9";
    object      p_rgh;
}
// * * * * * * * * * * * * * * * * * * * * * * * * * * * * * * * * * * * * * //

dimensions      [1 -1 -2 0 0 0 0];

internalField   nonuniform List<scalar> 
9150
(
2568.07
2541.01
2515.57
2498.36
2490.05
2490.03
2498.32
2515.51
2540.95
2568.01
2558.83
2539.2
2523.61
2511.78
2505.81
2505.8
2511.75
2523.56
2539.15
2558.77
2549.15
2535.51
2527.04
2519.25
2515.16
2515.15
2519.23
2527.01
2535.47
2549.1
2544.08
2533.95
2528.57
2523.18
2520.21
2520.21
2523.16
2528.54
2533.92
2544.04
2542.44
2533.35
2528.89
2524.69
2522.24
2522.23
2524.67
2528.86
2533.32
2542.4
2103.44
2100.03
2124.84
2138.75
2145.27
2145.08
2138.2
2124.02
2098.9
2101.89
2292.93
2269.08
2263.63
2262.29
2262.36
2262.26
2261.99
2263.18
2268.5
2292.35
2416.55
2385.67
2369.87
2359.93
2355.26
2355.2
2359.76
2369.62
2385.38
2416.29
2516.69
2474.96
2447.38
2429.98
2421.46
2421.43
2429.88
2447.24
2474.81
2516.57
2588.4
2534.93
2496.31
2474.22
2464.06
2464.04
2474.16
2496.22
2534.84
2588.33
1925.5
1965.75
1951.91
1958.5
1953.72
1950.9
1954.33
1943.24
1951.37
1909.31
1952.9
1969.56
1950.93
1956.95
1952.28
1950.18
1955.2
1942.87
1961.65
1941.08
1930.69
1959.28
1926.5
1934.09
1936.09
1935.1
1933.12
1920.92
1954.22
1922.86
1770.91
1894.08
1907.72
1926.78
1942.64
1942.23
1925.28
1903.92
1891.51
1764.36
1636.54
1880.57
1974.8
2004.76
2020.59
2020.3
2003.74
1973.1
1878.75
1631.84
1858.14
1858.51
1858.89
1859.28
1859.67
1860.07
1860.48
1860.89
1861.31
1861.74
1858.27
1858.64
1859.01
1859.39
1859.78
1860.17
1860.56
1860.97
1861.37
1861.78
1858.36
1858.73
1859.1
1859.47
1859.85
1860.24
1860.62
1861.02
1861.41
1861.81
1858.39
1858.75
1859.12
1859.49
1859.87
1860.25
1860.63
1861.02
1861.4
1861.8
1858.35
1858.71
1859.08
1859.45
1859.83
1860.21
1860.59
1860.98
1861.36
1861.75
1858.25
1858.62
1858.99
1859.36
1859.74
1860.13
1860.51
1860.9
1861.29
1861.68
1858.1
1858.47
1858.85
1859.23
1859.62
1860
1860.4
1860.79
1861.19
1861.59
1857.91
1858.29
1858.67
1859.06
1859.45
1859.85
1860.25
1860.65
1861.06
1861.47
1857.66
1858.05
1858.44
1858.84
1859.24
1859.65
1860.06
1860.48
1860.9
1861.32
1857.37
1857.77
1858.17
1858.58
1859
1859.42
1859.84
1860.27
1860.71
1861.15
1857.03
1857.44
1857.86
1858.28
1858.7
1859.14
1859.59
1860.03
1860.49
1860.94
1856.63
1857.06
1857.49
1857.93
1858.37
1858.82
1859.28
1859.75
1860.23
1860.7
1856.19
1856.62
1857.07
1857.52
1857.99
1858.46
1858.94
1859.43
1859.92
1860.42
1855.68
1856.14
1856.59
1857.03
1857.55
1858.05
1858.55
1859.06
1859.57
1860.1
1855.12
1855.59
1856.05
1856.51
1857.02
1857.58
1858.1
1858.62
1859.16
1859.72
1854.49
1854.98
1855.47
1855.93
1856.38
1856.96
1857.58
1858.14
1858.71
1859.3
1853.8
1854.3
1854.81
1855.34
1855.75
1855.31
1855.91
1857.6
1858.23
1858.83
1853.04
1853.56
1854.1
1854.66
1855.24
1854.34
1853.83
1856.53
1857.66
1858.3
1852.18
1852.72
1853.27
1853.84
1854.43
1853.74
1852.88
1854.53
1857.05
1857.74
1851.24
1851.79
1852.35
1852.94
1853.54
1852.58
1851.77
1852.49
1856.21
1857.07
1850.22
1850.77
1851.35
1851.95
1852.57
1851.37
1850.66
1851.32
1853.88
1856.23
1849.09
1849.66
1850.25
1850.87
1851.52
1851.38
1849.41
1850.18
1852.64
1855.2
1847.86
1848.43
1849.02
1849.63
1850.28
1850.93
1850.34
1849.07
1852.73
1854.01
1846.53
1847.1
1847.69
1848.3
1848.92
1849.57
1850.17
1848.83
1848.66
1852.46
1845.11
1845.68
1846.27
1846.87
1847.48
1848.08
1848.66
1848.24
1836.46
1837.02
1843.61
1844.2
1844.82
1845.45
1846.1
1846.73
1847.34
1847.9
1835.21
1783.96
1842.03
1842.68
1843.38
1844.13
1844.94
1845.81
1846.75
1847.8
1841.86
1750.92
1840.25
1840.93
1841.67
1842.48
1843.36
1844.31
1845.35
1846.52
1839.2
1730.4
1838.26
1838.97
1839.75
1840.6
1841.52
1842.5
1843.54
1844.65
1839.91
1731.69
1836.02
1836.76
1837.59
1838.52
1839.55
1840.68
1841.94
1843.4
1844.72
1772.81
1833.44
1834.18
1835.03
1836
1837.07
1838.19
1839.41
1840.89
1842.63
1837.47
1830.43
1831.15
1832.05
1833.16
1834.3
1835.34
1836.24
1837.42
1839.26
1841.11
1827.06
1827.7
1828.77
1830.27
1831.5
1831.97
1831.39
1830.72
1834.64
1844.95
1822.63
1821.63
1821.1
1824.52
1830.09
1831.6
1816.99
1514.65
1349.7
1354.6
1818.05
1708.99
1426.24
1414.79
1575.62
1452.9
1321.22
1326.62
1330.87
1335.35
1294.16
1295.26
1300.48
1302.98
1305
1307.1
1310.89
1312.18
1313.39
1475.18
1281.4
1283.88
1286.22
1325.45
1660.81
1733.34
1688.98
1740.76
1820.6
1836.99
1270.81
1395.65
1713.57
1780.39
1828.22
1828.16
1826.87
1826.35
1826.93
1828.75
1673.54
1804.11
1821.06
1818.53
1816.87
1816.01
1815.68
1815.91
1816.9
1818.69
1807.73
1806.68
1805.34
1804.21
1803.3
1802.81
1802.77
1803.09
1803.89
1805.48
1793.35
1792.12
1791.09
1790.4
1789.96
1789.52
1789.32
1789.32
1789.08
1789.39
1780.67
1778.48
1777.19
1777.03
1777.33
1777.16
1776.32
1774.63
1769.61
1759.52
1766.94
1761.87
1760.09
1763.9
1767.84
1769.67
1769.43
1766.52
1720.72
1471.87
1604.59
1308.28
1237.08
1349.44
1567.68
1679.52
1696.74
1625.62
1304.69
1090.3
1095.48
1083.34
1083.62
1083.1
1090.9
1091.69
1089.42
1107.2
1093.91
1083.12
1081.36
1081.99
1082.67
1083.59
1083.76
1082.79
1081.13
1079.54
1078.17
1076.13
1076.92
1077.62
1078.41
1115.23
1152.42
1189.67
1157.38
1093.31
1074.78
1065.59
1366.18
1208.57
1200.17
1567.73
1764.88
1773.18
1709.86
1630.81
1546.38
1363.79
1770.37
1749.2
1754.09
1772.08
1775.56
1780.55
1785.59
1791.14
1798.18
1802.72
1761.71
1757.62
1754.29
1754.01
1758.27
1767.29
1775.92
1782.5
1788.99
1794.66
1746.46
1711.17
1624.92
1518.76
1463.08
1600.51
1756.3
1779.58
1785.52
1789.63
1653.25
1436.35
1075.14
875.164
829.08
1037.12
1631.82
1783.6
1788.17
1789.04
1568.68
951.834
747.75
749.126
752.672
823.972
1514.32
1786.35
1788.88
1787.07
1458.52
777.492
740.064
741.053
743.268
868.003
1595.95
1784.62
1784.94
1780.14
1261.81
734.229
732.901
733.92
734.526
1218.04
1772.14
1785.83
1784.54
1750.02
973.255
722.303
724.365
725.715
866.737
1623.43
1783.73
1784.7
1783.19
1478.36
743.713
713.836
714.87
763.555
1469.71
1783.54
1783.65
1782.77
1779.64
1193.05
706.585
704.359
749.018
1428.05
1785.62
1785.02
1785.91
1785.96
1704.69
1041.17
696.365
753.867
1447.59
1787.03
1785.67
1787.15
1788.7
1789.44
1637.8
999.878
819.19
1493.23
1780.3
1781.73
1784.7
1787.32
1789.71
1791.37
1615.86
982.332
1544.97
1769.89
1775.19
1780.26
1783.88
1786.81
1789.65
1791.67
1588.61
971.108
1768.44
1782.35
1783.54
1784.9
1786.19
1787.68
1789.33
1789.98
1482.52
963.593
1788.44
1787.46
1787.04
1786.99
1787.17
1787.44
1787.32
1784.62
1318.96
972.257
1789.15
1788.77
1788.56
1788.52
1788.69
1789.07
1789.28
1786.99
1210.51
992.552
1789.45
1789.32
1789.24
1789.34
1789.72
1790.48
1791.44
1790.57
1142.51
994.188
1789.23
1788.88
1788.67
1788.7
1789.02
1789.74
1790.58
1714.45
1110.42
997.177
1787.84
1787.33
1786.92
1786.64
1786.53
1786.51
1785.72
1562.64
1092.57
1018.92
1786.59
1785.81
1785.15
1784.64
1784.29
1783.93
1782.32
1385.75
1104.59
1264.69
1784.9
1783.94
1783.02
1782.14
1781.26
1780.19
1771.13
1212.6
1105.83
1443.79
1783.76
1782.72
1781.59
1780.31
1778.53
1775.21
1436.01
1104.66
1096.2
1643.62
1784.19
1783.19
1782.23
1781.32
1780.19
1778.62
1182.57
1086.85
1230.54
1737.5
1785.58
1784.49
1783.47
1782.37
1780.69
1556.6
1039.66
1064.49
1438.61
1773.61
1787.93
1786.89
1785.93
1784.73
1782.53
1185.2
1018.1
1027.45
1648.43
1780.97
1790.74
1789.77
1788.78
1787.45
1679.44
996.401
998.004
1308.28
1765.47
1782.2
1794.17
1793.22
1791.93
1789.58
1200.68
945.447
957.855
1627.96
1787.92
1786.46
1798.37
1797.51
1796.36
1753.22
954.228
925.23
1257.72
1771.21
1790.28
1787.11
1802.93
1801.57
1799.27
1203.38
867.539
880.634
1644.09
1798.11
1795.28
1789.49
1808.56
1807.03
1789.05
901.267
849.906
1244.05
1786.36
1800.06
1796.07
1789.96
1813.86
1810.31
1199.09
791.859
805.903
1620.81
1810.35
1806.79
1799.9
1792.17
1822.07
1821.02
861.802
777.895
1104.17
1785.29
1814.12
1809.19
1801.79
1793.48
1827.54
1285.3
720.161
742.364
1553.68
1827.98
1823.4
1815.1
1805.77
1795.99
1845.95
873.708
713.31
905.727
1765.38
1833.82
1827.31
1818.24
1808.19
1797.68
1583.87
667.801
688.595
1426.13
1842.36
1839.33
1831.37
1821.25
1810.03
1798.45
959.141
645.656
689.844
1724.17
1854.82
1846.91
1836.29
1824.23
1811.08
1797.13
682.437
632.735
1285.51
1858.63
1859.91
1851.91
1841.17
1828.68
1815.2
1801.22
587.886
599.188
1692.59
1880.86
1871.35
1859.81
1846.95
1833.21
1819.32
1806.16
583.917
1111.76
1875.1
1883.97
1874.45
1862.73
1849.04
1834.13
1818.99
1804.62
563.841
1566.51
1900.35
1891.48
1880.2
1866.81
1851.26
1834.39
1817.2
1799.72
550.178
1828.29
1914.27
1900.33
1886.12
1870.57
1853.3
1835.01
1816.43
1796.26
1002.68
1914.66
1916.61
1902.83
1888.38
1872.4
1854.74
1836.04
1816.52
1794.16
1228.69
1927.09
1916.7
1903.52
1889.6
1874.16
1857.1
1838.91
1819.31
1796.98
1423.4
1924.35
1915.08
1904.21
1891.74
1877.57
1861.74
1844.71
1826.09
1805.73
1597.62
1925.23
1918.54
1909.11
1897.22
1883.88
1869.11
1853.41
1836.39
1819.05
1743.02
1944.14
1930.34
1917.62
1904.5
1891.48
1877.8
1863.62
1848.59
1814.66
1814.19
1947.2
1933.64
1920.93
1908.94
1897.85
1886.27
1874.24
1861.65
1759.99
1810.61
1937.86
1929.6
1920.07
1911.42
1903.39
1894.52
1885.07
1875.01
1750.01
1785.07
1924.32
1924.46
1919.78
1914.93
1909.59
1902.7
1895.55
1887.15
1747.8
1801.53
1930.6
1929.77
1926.28
1922.7
1918.34
1912.3
1907.3
1898.57
1753.55
1835.43
1949.79
1942.15
1937.66
1933.41
1929.54
1926.21
1926.38
1919.63
1782.59
1863.29
1967.21
1952.02
1949.33
1944.42
1941.26
1942.06
1944.18
1952.82
1837.03
1862.2
1862.69
1863.18
1863.68
1864.18
1864.69
1865.2
1865.71
1866.23
1866.74
1867.25
1867.76
1868.25
1868.74
1869.21
1869.66
1870.08
1870.49
1870.86
1871.19
1871.49
1871.74
1871.95
1872.11
1872.23
1872.3
1872.34
1872.34
1872.32
1872.28
1872.24
1872.21
1872.18
1872.18
1872.18
1872.2
1872.23
1872.26
1872.28
1872.32
1862.22
1862.69
1863.16
1863.63
1864.11
1864.59
1865.08
1865.56
1866.04
1866.52
1866.99
1867.46
1867.92
1868.37
1868.8
1869.22
1869.61
1869.99
1870.33
1870.64
1870.93
1871.17
1871.38
1871.55
1871.69
1871.79
1871.86
1871.91
1871.94
1871.97
1871.99
1872.02
1872.05
1872.09
1872.14
1872.2
1872.25
1872.3
1872.33
1872.36
1862.23
1862.69
1863.14
1863.59
1864.05
1864.51
1864.97
1865.42
1865.88
1866.33
1866.77
1867.21
1867.64
1868.06
1868.47
1868.86
1869.23
1869.58
1869.91
1870.22
1870.49
1870.74
1870.96
1871.15
1871.31
1871.44
1871.55
1871.64
1871.71
1871.78
1871.85
1871.93
1872.01
1872.09
1872.17
1872.24
1872.3
1872.34
1872.37
1872.35
1862.21
1862.65
1863.1
1863.54
1863.99
1864.43
1864.87
1865.32
1865.76
1866.19
1866.62
1867.05
1867.46
1867.87
1868.27
1868.65
1869.02
1869.37
1869.7
1870
1870.29
1870.55
1870.78
1870.99
1871.17
1871.32
1871.44
1871.55
1871.64
1871.71
1871.79
1871.87
1871.98
1872.1
1872.22
1872.32
1872.4
1872.44
1872.45
1872.35
1862.17
1862.61
1863.05
1863.49
1863.93
1864.37
1864.81
1865.24
1865.68
1866.11
1866.54
1866.96
1867.37
1867.78
1868.18
1868.56
1868.94
1869.29
1869.64
1869.96
1870.26
1870.54
1870.79
1871.02
1871.22
1871.38
1871.52
1871.63
1871.7
1871.74
1871.77
1871.84
1871.96
1872.14
1872.33
1872.49
1872.59
1872.64
1872.6
1872.43
1862.1
1862.54
1862.98
1863.42
1863.87
1864.31
1864.75
1865.19
1865.63
1866.07
1866.5
1866.92
1867.35
1867.76
1868.17
1868.56
1868.95
1869.32
1869.68
1870.03
1870.35
1870.66
1870.94
1871.19
1871.42
1871.61
1871.76
1871.87
1871.92
1871.87
1871.63
1871.51
1871.79
1872.16
1872.46
1872.72
1872.87
1872.93
1872.9
1872.7
1862.01
1862.46
1862.91
1863.36
1863.81
1864.26
1864.71
1865.16
1865.6
1866.05
1866.49
1866.93
1867.36
1867.79
1868.21
1868.63
1869.03
1869.43
1869.81
1870.18
1870.54
1870.88
1871.2
1871.5
1871.77
1872.01
1872.21
1872.35
1872.44
1872.42
1870.85
1865.29
1864.2
1868.15
1870.44
1872.95
1873.24
1873.24
1873.21
1873.11
1861.9
1862.36
1862.82
1863.28
1863.74
1864.2
1864.66
1865.13
1865.59
1866.04
1866.5
1866.95
1867.4
1867.85
1868.29
1868.73
1869.15
1869.58
1869.99
1870.39
1870.79
1871.17
1871.54
1871.91
1872.26
1872.6
1872.94
1873.27
1873.6
1873.95
1871.78
1859.54
1859.01
1858.69
1858.25
1862.99
1865.74
1869.34
1871.75
1872.93
1861.77
1862.24
1862.71
1863.19
1863.67
1864.14
1864.62
1865.1
1865.58
1866.05
1866.52
1867
1867.47
1867.93
1868.39
1868.85
1869.3
1869.75
1870.19
1870.62
1871.05
1871.48
1871.9
1872.32
1872.73
1873.15
1873.58
1874.02
1874.48
1875
1875.59
1875.25
1865.98
1860.15
1858.52
1858.54
1858.44
1858.31
1858.18
1858.09
1861.61
1862.1
1862.59
1863.08
1863.58
1864.07
1864.57
1865.07
1865.56
1866.06
1866.55
1867.04
1867.53
1868.02
1868.5
1868.98
1869.45
1869.92
1870.39
1870.85
1871.31
1871.77
1872.22
1872.68
1873.14
1873.61
1874.09
1874.59
1875.1
1875.64
1876.18
1876.7
1877.21
1877.6
1877.76
1874.68
1874.22
1874.13
1868.66
1867.59
1861.42
1861.93
1862.44
1862.96
1863.47
1863.99
1864.51
1865.03
1865.55
1866.06
1866.58
1867.09
1867.6
1868.11
1868.61
1869.11
1869.61
1870.1
1870.58
1871.06
1871.54
1872.02
1872.5
1872.98
1873.47
1873.96
1874.46
1874.98
1875.52
1876.06
1876.49
1876.55
1876.98
1877.79
1878.25
1878.48
1878.58
1878.52
1878.28
1877.85
1861.2
1861.74
1862.27
1862.81
1863.35
1863.89
1864.44
1864.98
1865.52
1866.06
1866.6
1867.14
1867.67
1868.2
1868.73
1869.24
1869.76
1870.26
1870.76
1871.26
1871.75
1872.24
1872.72
1873.21
1873.7
1874.2
1874.71
1875.23
1875.77
1876.32
1876.77
1876.9
1877.17
1877.44
1877.67
1877.83
1877.59
1878.4
1878.64
1878.23
1860.95
1861.51
1862.07
1862.63
1863.2
1863.77
1864.34
1864.92
1865.48
1866.05
1866.62
1867.18
1867.74
1868.29
1868.84
1869.38
1869.91
1870.43
1870.94
1871.45
1871.94
1872.43
1872.91
1873.39
1873.86
1874.34
1874.83
1875.34
1875.89
1876.47
1877.04
1877.58
1878.06
1878.15
1876.37
1873.87
1873.88
1874.17
1875.58
1876.91
1860.66
1861.25
1861.84
1862.43
1863.03
1863.63
1864.24
1864.84
1865.44
1866.03
1866.63
1867.23
1867.81
1868.39
1868.96
1869.52
1870.07
1870.6
1871.13
1871.64
1872.14
1872.62
1873.09
1873.54
1873.97
1874.4
1874.82
1875.29
1875.86
1876.5
1877.12
1877.7
1878.21
1878.65
1876.41
1873.67
1873.73
1873.58
1873.29
1872.91
1860.32
1860.94
1861.57
1862.19
1862.83
1863.47
1864.11
1864.74
1865.38
1866.01
1866.64
1867.27
1867.89
1868.49
1869.09
1869.68
1870.25
1870.8
1871.34
1871.86
1872.36
1872.84
1873.29
1873.71
1874.09
1874.41
1874.45
1873.8
1874.26
1876.37
1877.13
1877.75
1878.27
1878.71
1878.79
1876.71
1875.29
1875.76
1875.4
1873.04
1859.94
1860.6
1861.25
1861.89
1862.57
1863.28
1863.95
1864.63
1865.31
1865.98
1866.65
1867.32
1867.97
1868.61
1869.24
1869.86
1870.46
1871.04
1871.61
1872.15
1872.66
1873.16
1873.61
1874.04
1874.42
1874.71
1867.51
1853.27
1854.06
1873.23
1877.31
1877.9
1878.37
1878.77
1879.08
1879.31
1879.41
1879.38
1879.14
1877.78
1859.46
1860.16
1860.9
1861.58
1862.3
1863.04
1863.77
1864.49
1865.22
1865.94
1866.66
1867.37
1868.06
1868.75
1869.42
1870.07
1870.71
1871.33
1871.92
1872.5
1873.06
1873.59
1874.09
1874.54
1874.65
1864.63
1845.02
1846.04
1846.52
1851.36
1877.54
1878.23
1878.59
1878.88
1879.11
1879.26
1879.31
1879.23
1879
1878.72
1858.96
1859.7
1860.47
1861.26
1862.02
1862.77
1863.24
1863.77
1864.97
1865.89
1866.66
1867.42
1868.17
1868.9
1869.61
1870.31
1870.99
1871.65
1872.29
1872.9
1873.49
1874.07
1874.61
1874.81
1860.12
1843.34
1844.15
1844.8
1845.31
1845.82
1871.43
1878.71
1878.94
1879.13
1879.27
1879.35
1879.34
1879.23
1879
1878.79
1858.42
1859.2
1860.03
1860.87
1861.69
1862.33
1862.06
1862.82
1864.43
1865.84
1866.66
1867.48
1868.28
1869.07
1869.84
1870.58
1871.31
1872.02
1872.7
1873.36
1874.02
1874.67
1875.34
1873.78
1846.28
1842.44
1843.04
1843.63
1844.04
1862.66
1879.16
1879.32
1879.41
1879.49
1879.58
1879.61
1879.56
1879.42
1879.2
1879.01
1857.82
1858.62
1859.5
1860.41
1861.22
1860.94
1861.59
1862.49
1863.4
1865.64
1866.65
1867.53
1868.4
1869.25
1870.08
1870.88
1871.66
1872.41
1873.14
1873.83
1874.52
1875.22
1876.02
1876.55
1854.15
1841.22
1841.95
1842.39
1860.39
1879.93
1879.9
1879.92
1879.94
1880
1880.05
1880.06
1879.98
1879.82
1879.59
1879.4
1857.06
1857.96
1858.9
1859.86
1860.64
1860.24
1861.21
1862.18
1863.13
1865.25
1866.62
1867.56
1868.51
1869.45
1870.35
1871.22
1872.04
1872.83
1873.56
1874.24
1874.85
1875.13
1870.3
1865.3
1866.78
1846.75
1841.74
1856.01
1880.07
1880.28
1880.41
1880.47
1880.55
1880.61
1880.65
1880.67
1880.58
1880.42
1880.18
1879.99
1856.11
1857.12
1858.16
1859.22
1860.28
1860.42
1860.8
1861.86
1863.37
1865.52
1866.51
1867.53
1868.6
1869.67
1870.69
1871.64
1872.54
1873.38
1874.17
1874.87
1875.42
1867.56
1837.67
1836.28
1836.71
1869.78
1877.49
1879.26
1880.69
1880.89
1881.05
1881.15
1881.25
1881.33
1881.41
1881.42
1881.34
1881.19
1880.95
1880.75
1854.99
1856.1
1857.24
1858.41
1859.63
1860.79
1861.39
1862.19
1864.01
1865.31
1865.31
1865.05
1867.19
1869.97
1871.13
1872.19
1873.19
1874.14
1875.02
1875.74
1869.64
1836.01
1834.56
1835.24
1835.78
1839.08
1880.1
1881.05
1881.29
1881.53
1881.74
1881.93
1882.06
1882.19
1882.29
1882.31
1882.26
1882.13
1881.91
1881.7
1853.57
1854.85
1856.17
1857.54
1858.93
1860.33
1861.65
1862.94
1864.17
1865.17
1853.64
1846.11
1852.25
1870.64
1871.74
1872.92
1873.97
1875.05
1876.04
1876.57
1849.87
1833.29
1833.98
1834.61
1835.26
1844.53
1875.34
1881.61
1881.96
1882.26
1882.53
1882.78
1882.99
1883.16
1883.27
1883.33
1883.34
1883.27
1883.08
1882.86
1851.75
1853.41
1855
1856.6
1858.18
1859.77
1861.3
1862.77
1863.66
1849.26
1843.71
1845.18
1846.39
1847.61
1863.42
1873.61
1874.82
1876.03
1877.14
1877.34
1846.16
1832.84
1833.41
1833.8
1847.5
1880.78
1882.11
1882.06
1882.78
1883.12
1883.4
1883.76
1884.05
1884.26
1884.25
1884.48
1884.58
1884.61
1884.48
1884.28
1801.16
1851.62
1853.73
1855.61
1857.43
1859.23
1861
1862.71
1856.88
1841.75
1843.34
1844.87
1846.34
1847.73
1849.58
1870.7
1875.86
1877.04
1878.2
1879.29
1869.51
1833.62
1833.72
1844.69
1882.23
1882.54
1882.73
1883.1
1883.58
1884.06
1883.41
1882.1
1884.22
1885.7
1884.39
1880.81
1878.6
1886.17
1886.18
1886.06
1717.65
1832.86
1852.46
1854.71
1856.73
1858.69
1860.59
1862.48
1864.36
1856.52
1842.91
1844.59
1846.17
1853.1
1868.62
1875.48
1876.78
1877.99
1879.1
1880.12
1880.98
1876.73
1856.45
1879.01
1882.48
1881.79
1882.92
1883.61
1884.45
1885.17
1883.88
1880.42
1881.3
1887.82
1885.74
1860.22
1857.52
1885.59
1888.31
1888.32
1706.18
1746.95
1852.39
1854.51
1856.45
1858.29
1860.11
1861.93
1863.37
1865.35
1867.93
1869.84
1871.7
1873.4
1874.98
1876.35
1877.89
1879.18
1880.32
1881.35
1882.26
1883
1883.66
1884.03
1882.36
1840.33
1825.51
1868.32
1885.77
1886.79
1886.05
1881.9
1882.43
1888.87
1888.17
1857.48
1857.9
1867.04
1890.07
1891.08
1697.43
1697.32
1806.91
1854.08
1855.99
1857.69
1859.34
1861.05
1862.91
1864.99
1867.32
1869.76
1872.07
1874.15
1876.02
1877.71
1879.24
1880.63
1881.89
1883.02
1884.05
1884.99
1885.81
1886.54
1886.89
1810.96
1754.88
1772.76
1861.31
1889.36
1889.36
1885.79
1884.34
1887.88
1891.09
1868.03
1858.88
1858.78
1888.03
1894.37
1689.99
1691.23
1709.35
1852.45
1855.09
1856.76
1858.04
1859.31
1860.81
1862.98
1866.11
1869.61
1872.66
1875.19
1877.33
1879.18
1880.85
1882.35
1883.73
1884.99
1886.16
1887.24
1888.28
1889.31
1890.32
1863.61
1754.77
1749.54
1762.6
1864.06
1891.68
1892.18
1887.13
1888.48
1893.67
1894.99
1862.36
1861.5
1882.23
1897.95
1734.6
1684.35
1748.36
1852.99
1855.15
1855.81
1855.65
1855.58
1855.27
1852.81
1853.56
1864.48
1874.51
1877.21
1879.3
1881.16
1882.84
1884.39
1885.82
1887.15
1888.4
1889.57
1890.7
1891.81
1892.94
1894.22
1866.22
1754.35
1747.37
1762.97
1870.85
1894.27
1894.77
1892.98
1895.95
1898.35
1889.88
1864.38
1879.66
1902.46
1829.41
1730.22
1721.87
1844.17
1858.79
1857.11
1827.47
1753.89
1640.26
1573.77
1611.66
1819.99
1880.13
1881.19
1882.75
1884.01
1885.41
1886.7
1888.21
1889.54
1890.81
1892.03
1893.19
1894.13
1895.25
1896.51
1897.71
1877.08
1754.66
1746.44
1768.49
1879.21
1897.79
1899.08
1899.49
1901.21
1902.1
1867.53
1882.15
1907.01
1823.13
1489.62
1369.14
1475.22
1702.71
1567.68
1399.93
1404.11
1408.97
1413.45
1512.92
1780.84
1870.5
1872.73
1879.62
1878.03
1884.41
1889.2
1890.79
1892.07
1893.34
1894.61
1895.81
1889.41
1866.03
1873.39
1897.86
1900.39
1881.97
1753.76
1746.3
1775.98
1888.19
1902.45
1903.72
1904.97
1906.37
1881.26
1886.69
1910.9
1382.11
1357.22
1363.03
1367.29
1372.47
1383.78
1414.75
1459.97
1572.85
1738.09
1849.64
1866.84
1864.77
1863.34
1864.49
1865.66
1874.52
1891.34
1893.21
1894.57
1895.96
1897.41
1898.91
1882.97
1793.89
1791.95
1840.17
1899.67
1903.52
1883.52
1751.37
1746.98
1789.48
1899
1907.23
1908.9
1910.65
1910.73
1892.05
1914.38
1339.98
1342.44
1370.96
1521.66
1641.48
1749.24
1829.67
1871.35
1874.93
1876.54
1879.38
1882.6
1885.39
1885.33
1865.79
1866.51
1874.83
1893.09
1895.27
1896.75
1898.24
1899.74
1901.25
1891.26
1801.89
1790.31
1790.72
1817.39
1899.51
1906.47
1878.93
1747.63
1749.05
1819.54
1910.05
1913.16
1915.18
1917.39
1902.44
1918.44
1814.25
1855.12
1855.9
1857.57
1859.17
1861.64
1864.51
1867.74
1871.32
1875.09
1878.76
1882.06
1884.92
1887.01
1884.48
1881.17
1890.91
1895.23
1896.96
1898.6
1900.2
1901.77
1903.27
1904.81
1898.01
1805.59
1790.31
1791.17
1811.32
1902.7
1912.06
1853.65
1748.87
1752.05
1868.99
1918.6
1920.38
1922.75
1914.58
1922.54
1840.63
1843.49
1846.25
1849.59
1853.61
1857.92
1862.25
1866.46
1870.53
1874.45
1878.15
1881.57
1884.68
1887.46
1889.96
1892.31
1894.51
1896.58
1898.49
1900.28
1901.99
1903.63
1905.19
1906.68
1908.23
1909.7
1811.95
1791.15
1791.94
1873.38
1915.26
1915.43
1818.39
1754.16
1772.22
1907.34
1924.91
1927.66
1916.18
1926.49
1831.78
1835.55
1839.61
1844.03
1848.77
1853.69
1858.63
1863.48
1868.16
1872.63
1876.83
1880.72
1884.28
1887.5
1890.41
1893.07
1895.52
1897.77
1899.83
1901.73
1903.51
1905.18
1906.76
1908.25
1909.64
1911
1912.66
1810.84
1804.56
1895.12
1916.9
1918.26
1920.84
1774.85
1757.76
1828.96
1927.89
1932.3
1920.97
1931.54
1821.51
1825.55
1830.46
1836
1841.88
1847.89
1853.84
1859.63
1865.15
1870.36
1875.2
1879.64
1883.69
1887.35
1890.64
1893.61
1896.28
1898.7
1900.89
1902.88
1904.71
1906.41
1907.98
1909.46
1910.84
1912.09
1913.3
1908.13
1908.08
1913.49
1918.22
1919.3
1920.81
1878.3
1756.8
1764.97
1906.15
1936.75
1934.59
1937.8
1808.36
1813.1
1819.29
1826.38
1833.82
1841.23
1848.42
1855.29
1861.75
1867.76
1873.29
1878.33
1882.88
1886.96
1890.61
1893.85
1896.73
1899.3
1901.59
1903.64
1905.5
1907.2
1908.77
1910.26
1911.68
1913.05
1914.43
1915.97
1917.6
1919.02
1917.54
1918.35
1922.92
1926.26
1793.3
1762.1
1833.58
1938.72
1943.72
1947.7
1791.57
1797.53
1806.16
1815.71
1825.16
1834.17
1842.75
1850.76
1858.18
1865
1871.22
1876.83
1881.86
1886.33
1890.28
1893.75
1896.79
1899.46
1901.8
1903.86
1905.7
1907.36
1908.88
1910.31
1911.68
1913.03
1914.38
1915.78
1917.22
1918.68
1918.3
1918.06
1921.09
1925.03
1862.09
1759.67
1790.49
1932.02
1948.18
1953.75
1737.89
1736.48
1785.86
1806.48
1818.49
1828.44
1837.85
1846.72
1854.91
1862.38
1869.15
1875.23
1880.64
1885.41
1889.59
1893.21
1896.34
1899.03
1901.36
1903.37
1905.13
1906.69
1908.11
1909.44
1910.71
1911.98
1913.26
1914.59
1915.98
1917.44
1919.04
1917.9
1919.97
1923.66
1906.09
1757.01
1770.99
1915.17
1950.1
1956.54
1276.33
1238.94
1470.09
1729.57
1815.57
1826.1
1835.03
1843.91
1852.36
1860.16
1867.23
1873.58
1879.21
1884.14
1888.42
1892.08
1895.2
1897.84
1900.07
1901.95
1903.56
1904.97
1906.23
1907.41
1908.55
1909.71
1910.91
1912.2
1913.61
1915.17
1916.94
1918.39
1918.7
1922.87
1929.27
1793.78
1764.73
1867.49
1950.43
1957.22
1092.75
1094.1
1100.3
1389.86
1811.69
1824.72
1833.96
1842.18
1850.43
1858.22
1865.33
1871.73
1877.4
1882.35
1886.59
1890.18
1893.18
1895.66
1897.7
1899.37
1900.75
1901.92
1902.96
1903.93
1904.89
1905.89
1906.98
1908.18
1909.54
1911.08
1912.86
1914.85
1914.76
1918.96
1924.77
1836.99
1758.73
1831.47
1949.18
1956.98
1083.19
1083.16
1084.23
1205.09
1719.78
1820.19
1832.71
1840.66
1848.57
1856.19
1863.19
1869.48
1875.02
1879.83
1883.9
1887.29
1890.06
1892.27
1894.01
1895.37
1896.44
1897.3
1898.04
1898.74
1899.46
1900.27
1901.21
1902.31
1903.59
1905.1
1906.86
1908.92
1909.08
1912.94
1917.87
1872.46
1751.12
1804.07
1942.69
1954.72
1074.51
1072.23
1072.28
1134.04
1607.55
1815.53
1831.83
1839.49
1846.79
1853.99
1860.66
1866.64
1871.89
1876.39
1880.15
1883.21
1885.61
1887.44
1888.79
1889.74
1890.39
1890.85
1891.21
1891.56
1891.99
1892.57
1893.34
1894.34
1895.59
1897.11
1898.91
1901.02
1902.24
1905.06
1909.56
1894.4
1742.55
1782.59
1930.42
1949.15
1062.42
1059.13
1057.52
1065.66
1436.85
1803.85
1831.29
1838.37
1844.77
1851.36
1857.52
1863.03
1867.82
1871.87
1875.18
1877.77
1879.7
1881.04
1881.88
1882.31
1882.45
1882.39
1882.25
1882.17
1882.24
1882.56
1883.18
1884.12
1885.41
1887.04
1889.02
1891.36
1893.98
1896.64
1901.19
1907.53
1737.18
1759.96
1912.22
1939.2
1099.75
1042.09
1040.76
1044.43
1271.72
1777.88
1829.76
1836.43
1841.97
1847.91
1853.5
1858.44
1862.67
1866.17
1868.92
1870.94
1872.3
1873.06
1873.29
1873.09
1872.55
1871.82
1871.02
1870.35
1869.98
1870.03
1870.54
1871.52
1872.98
1874.9
1877.24
1880.04
1883.31
1887.05
1891.7
1898.72
1759.81
1733.77
1883.77
1927.42
1526.33
1059.02
1024.1
1028.57
1217.39
1764.53
1826.82
1833.11
1838.16
1843.52
1848.53
1852.87
1856.47
1859.33
1861.45
1862.86
1863.58
1863.67
1863.17
1862.16
1860.77
1859.15
1857.47
1855.97
1854.99
1854.75
1855.25
1856.43
1858.25
1860.62
1863.47
1866.77
1870.51
1874.7
1879.59
1886.37
1769.55
1716.82
1856.85
1914.44
1726.33
1123.01
1010.47
1014.63
1300.61
1788.91
1823.09
1828.86
1833.61
1838.44
1842.81
1846.48
1849.42
1851.62
1853.1
1853.88
1853.96
1853.35
1852.1
1850.31
1848.17
1845.69
1842.65
1839.32
1837.09
1836.58
1837.38
1839.03
1841.45
1844.57
1848.2
1852.23
1856.56
1861.19
1866.3
1872.82
1774.29
1698.19
1832.87
1900.51
1753.04
1139.66
998.983
1001.85
1497.55
1809.54
1819.58
1824.31
1828.67
1832.89
1836.57
1839.57
1841.87
1843.49
1844.45
1844.77
1844.49
1843.68
1842.34
1840.35
1837.72
1833.48
1825.33
1814.87
1809.71
1812.99
1817.32
1819.79
1823.33
1827.67
1832.42
1837.43
1842.54
1847.74
1853.16
1859.5
1778.02
1678.94
1807.79
1885.82
1694.3
1064.52
991.809
1009.09
1654.94
1807.65
1815.16
1819.34
1823.32
1826.99
1830.04
1832.43
1834.19
1835.39
1836.09
1836.41
1836.66
1836.9
1835.29
1828.71
1804.1
1713.44
1478.34
1491.11
1694.52
1790.99
1793.8
1798.03
1804.23
1810.89
1817.38
1823.64
1829.67
1835.51
1841.27
1847.55
1761.36
1660.05
1784.29
1871
1540.33
997.68
986.191
1213.75
1755.79
1804.21
1810.46
1814.52
1818.1
1821.14
1823.52
1825.29
1826.54
1827.36
1827.93
1828.69
1829.86
1828.21
1755.74
1526.75
1301.6
1036.87
1036.43
1035.94
1353.64
1435.02
1565.55
1764.32
1785.63
1795.8
1804.66
1812.31
1819.22
1825.58
1831.6
1837.76
1740.24
1642.85
1770.97
1853.73
1276.58
982.744
975.115
1461.32
1797.85
1805.3
1808.62
1811.29
1813.73
1815.75
1817.25
1818.27
1818.88
1819.22
1819.69
1820.71
1818.7
1697.31
1207.41
1014.75
1012.33
1013.33
1015.58
1113.3
1109.88
1012.32
1052.17
1588.38
1776.15
1786.96
1797.12
1805.37
1812.43
1818.8
1824.71
1830.59
1718.76
1627.69
1765.61
1833.87
1081.56
985.361
1008.18
1653.56
1798.4
1803.19
1805.47
1807.43
1809.11
1810.32
1811.06
1811.38
1811.35
1811.27
1811.61
1810.78
1675.16
1080.64
993.498
994.917
1000.33
1003.16
1018.01
1118.52
1034.81
1000.42
995.582
1300.53
1765.61
1786.69
1795.37
1802.81
1809.13
1814.83
1820.18
1825.5
1688.48
1614.89
1770.42
1822.73
981.389
982.486
1203.45
1753.91
1796.74
1800.53
1802.41
1803.81
1804.77
1805.24
1805.3
1805.02
1804.59
1804.5
1804.49
1768.33
1139.86
975.319
979.712
987.403
989.446
993.816
1048.66
1114.1
1113.59
995.761
988.862
1079.4
1705.11
1788.59
1795.35
1801.9
1807.32
1812.14
1816.68
1821.26
1606.26
1602.72
1780.58
1816.43
971.591
968.585
1414.35
1791.31
1798.32
1799.69
1800.33
1800.74
1800.82
1800.53
1799.92
1799.11
1798.38
1798.09
1796.2
1317.43
965.355
962.464
970.9
975.211
980.617
1032.74
1107.61
1108
1037.37
976.971
977.663
973.601
1542.7
1793.38
1796.73
1801.87
1806.25
1810.08
1813.79
1817.89
1584.96
1592.62
1784.76
1809.72
968.819
957.279
1584.46
1793.66
1796.95
1797.36
1797.44
1797.28
1796.77
1795.91
1794.78
1793.56
1792.69
1791.86
1654.12
1006.41
948.214
949.581
954.472
972.087
998.528
1180.17
991.2
972.615
968.942
969.916
970.06
968.317
1281.54
1788.58
1797.44
1801.12
1804.67
1807.62
1810.49
1813.85
1577.01
1578.89
1781.06
1804.02
965.218
1056.27
1682.23
1791.6
1794.06
1794.28
1794.16
1793.7
1792.83
1791.56
1790
1788.32
1786.85
1784.24
1253.89
942.265
936.064
935.566
1166.88
1656.18
1547.07
1175.1
1037.39
1022.5
963.155
967.598
966.755
963.26
954.378
1641.88
1798.13
1799.12
1802.06
1804.51
1806.88
1810.07
1572.47
1540.23
1774.98
1799.14
955.238
1143.33
1735.63
1788.78
1790.68
1790.92
1790.82
1790.28
1789.27
1787.85
1786.12
1784.26
1782.31
1682.34
1000.93
935.248
930.955
1377.8
1787.55
1796.16
1792.79
1759.69
1633.25
1639.33
1586.94
1137.84
950.958
951.186
945.881
1319.52
1793.39
1795.82
1797.8
1799.99
1802.07
1805.2
1561.72
1530.59
1765.66
1794.39
947.026
1256.11
1764.21
1785.31
1787.25
1787.79
1787.84
1787.35
1786.36
1784.95
1783.28
1781.77
1781.18
1432.64
937.615
922.186
1224.77
1755.91
1780.36
1781.23
1780.66
1781.59
1785.57
1790.31
1793.93
1730.2
1243.29
929.763
932.491
924.982
1639.23
1790.23
1790.91
1793.3
1795.52
1798.79
1555.41
1520.49
1754.32
1789.56
939.297
1404.86
1775.75
1783.53
1785.25
1785.79
1785.78
1785.23
1784.15
1782.56
1780.42
1777.93
1775.87
1205.5
912.814
905.791
1315.25
1760.11
1768.31
1769.11
1769.58
1770.27
1771.74
1773.49
1774.72
1777.09
1777.77
1149.74
912.862
918.234
1379.94
1783.03
1783.52
1785.54
1787.86
1791.42
1564.15
1510.01
1747.28
1784.15
954.982
1576.91
1782.36
1785.21
1785.25
1785.01
1784.62
1783.93
1782.87
1781.42
1779.61
1777.58
1767.29
1014.68
888.069
885.823
1286.03
1750.14
1758.79
1759.37
1759.1
1758.52
1758.41
1759.14
1760.5
1762.28
1766.47
1712.49
990.225
901.11
1113.56
1731.87
1773.25
1775.53
1778.31
1782.39
1563.4
1498.43
1747.98
1778.43
1080.92
1694.5
1783.66
1784.66
1784.21
1783.78
1783.3
1782.62
1781.64
1780.33
1778.9
1777.69
1546.27
886.013
866.256
866.701
1253.9
1742.9
1752.61
1752.41
1750.38
1747.17
1744.65
1744.02
1744.88
1746.61
1749.04
1754.66
1236
879.058
968.397
1643.52
1764.23
1765.07
1766.64
1768.49
1485.46
1576.82
1761.48
1774
1245.75
1756.98
1782.04