/*--------------------------------*- C++ -*----------------------------------*\
  =========                 |
  \\      /  F ield         | OpenFOAM: The Open Source CFD Toolbox
   \\    /   O peration     | Website:  https://openfoam.org
    \\  /    A nd           | Version:  8
     \\/     M anipulation  |
\*---------------------------------------------------------------------------*/
FoamFile
{
    version     2.0;
    format      ascii;
    class       surfaceScalarField;
    location    "0.25";
    object      alphaPhi0.water;
}
// * * * * * * * * * * * * * * * * * * * * * * * * * * * * * * * * * * * * * //

dimensions      [0 3 -1 0 0 0 0];

internalField   nonuniform List<scalar> 
18095
(
1.54182e-07
-9.67738e-07
8.13556e-07
1.63274e-07
-1.24674e-06
1.23765e-06
1.21339e-07
-1.24219e-06
1.28413e-06
6.50898e-08
-1.26325e-06
1.3195e-06
-4.99888e-14
-1.28008e-06
1.34517e-06
-6.50899e-08
-1.28008e-06
1.34517e-06
-1.21339e-07
-1.26325e-06
1.3195e-06
-1.63274e-07
-1.24219e-06
1.28413e-06
-1.54182e-07
-1.24674e-06
1.23765e-06
-9.67738e-07
8.13555e-07
1.10155e-07
-1.07789e-06
9.88632e-08
-1.23545e-06
7.25474e-08
-1.21588e-06
3.99113e-08
-1.23061e-06
-3.76047e-14
-1.24017e-06
-3.99113e-08
-1.24017e-06
-7.25474e-08
-1.23061e-06
-9.88632e-08
-1.21588e-06
-1.10155e-07
-1.23545e-06
-1.07789e-06
6.64018e-08
-1.1443e-06
5.24337e-08
-1.22148e-06
4.1828e-08
-1.20527e-06
2.37303e-08
-1.21251e-06
-3.16141e-14
-1.21644e-06
-2.37304e-08
-1.21644e-06
-4.1828e-08
-1.21251e-06
-5.24337e-08
-1.20527e-06
-6.64018e-08
-1.22148e-06
-1.1443e-06
3.94945e-08
-1.18379e-06
2.66601e-08
-1.20865e-06
2.19372e-08
-1.20055e-06
1.24531e-08
-1.20303e-06
-2.71299e-14
-1.20398e-06
-1.24532e-08
-1.20398e-06
-2.19372e-08
-1.20303e-06
-2.66601e-08
-1.20055e-06
-3.94945e-08
-1.20865e-06
-1.18379e-06
1.62105e-08
7.5612e-09
7.01253e-09
3.98407e-09
-1.05781e-14
-3.9841e-09
-7.01255e-09
-7.56122e-09
-1.62105e-08
-1.66078e-07
-1.16926e-06
1.33534e-06
-2.08111e-07
-1.21326e-06
1.25529e-06
-1.60769e-07
-1.21126e-06
1.16392e-06
-8.64066e-08
-1.20373e-06
1.12937e-06
-6.14153e-13
-1.20249e-06
1.11609e-06
8.64053e-08
-1.20249e-06
1.11609e-06
1.60767e-07
-1.20373e-06
1.12937e-06
2.0811e-07
-1.21126e-06
1.16392e-06
1.66077e-07
-1.21326e-06
1.25529e-06
-1.16926e-06
1.33533e-06
-9.58884e-08
-1.07337e-06
-9.69515e-08
-1.2122e-06
-7.92036e-08
-1.22901e-06
-4.42357e-08
-1.2387e-06
-3.52884e-13
-1.24673e-06
4.4235e-08
-1.24673e-06
7.9203e-08
-1.2387e-06
9.6951e-08
-1.22901e-06
9.5888e-08
-1.21219e-06
-1.07337e-06
-5.8398e-08
-1.01497e-06
-5.58989e-08
-1.21469e-06
-4.66851e-08
-1.23823e-06
-2.7071e-08
-1.25831e-06
-1.85005e-13
-1.2738e-06
2.70706e-08
-1.2738e-06
4.66848e-08
-1.25831e-06
5.58987e-08
-1.23822e-06
5.83979e-08
-1.21469e-06
-1.01497e-06
-7.35337e-08
-9.41438e-07
-6.06073e-08
-1.22762e-06
-4.80113e-08
-1.25082e-06
-2.75401e-08
-1.27878e-06
-8.21251e-14
-1.30134e-06
2.754e-08
-1.30134e-06
4.80112e-08
-1.27878e-06
6.06074e-08
-1.25082e-06
7.35337e-08
-1.22762e-06
-9.41438e-07
-1.27883e-07
-1.1785e-07
-8.45437e-08
-4.38291e-08
-5.43797e-14
4.3829e-08
8.45436e-08
1.1785e-07
1.27883e-07
-7.305e-08
-9.54264e-07
1.02731e-06
-1.12375e-08
-1.33861e-06
1.2768e-06
5.46553e-09
-1.2664e-06
1.24969e-06
1.14766e-09
-1.22119e-06
1.22551e-06
-7.33967e-12
-1.21955e-06
1.22071e-06
-1.16315e-09
-1.21955e-06
1.22071e-06
-5.47858e-09
-1.22118e-06
1.2255e-06
1.12242e-08
-1.2664e-06
1.24969e-06
7.30318e-08
-1.33861e-06
1.2768e-06
-9.54244e-07
1.02728e-06
6.26267e-09
-9.60526e-07
1.43542e-08
-1.3467e-06
1.0751e-08
-1.26279e-06
5.23805e-09
-1.21568e-06
-5.68771e-12
-1.21431e-06
-5.25032e-09
-1.21431e-06
-1.07602e-08
-1.21567e-06
-1.43656e-08
-1.26279e-06
-6.27145e-09
-1.3467e-06
-9.60515e-07
2.74328e-08
-9.87959e-07
1.88083e-08
-1.33808e-06
1.17638e-08
-1.25575e-06
4.23256e-09
-1.20814e-06
-3.90788e-12
-1.21007e-06
-4.24057e-09
-1.21007e-06
-1.17701e-08
-1.20815e-06
-1.88153e-08
-1.25575e-06
-2.74377e-08
-1.33808e-06
-9.87953e-07
7.19484e-08
-1.05991e-06
4.15199e-08
-1.30765e-06
2.89119e-08
-1.24314e-06
2.07241e-08
-1.19996e-06
-2.06079e-12
-1.18935e-06
-2.07265e-08
-1.18935e-06
-2.89159e-08
-1.19996e-06
-4.15232e-08
-1.24314e-06
-7.19515e-08
-1.30765e-06
-1.0599e-06
2.75428e-07
2.23069e-07
1.4385e-07
7.32592e-08
-1.06307e-12
-7.32612e-08
-1.43852e-07
-2.2307e-07
-2.7543e-07
-9.22557e-27
-6.22807e-26
8.9454e-27
-8.46911e-27
-8.37735e-26
-6.58744e-27
-1.06135e-25
-3.7223e-27
-1.27805e-25
4.2341e-29
-1.47778e-25
3.79537e-27
-1.47152e-25
6.6284e-27
-1.26812e-25
8.45116e-27
-1.04614e-25
9.11239e-27
-8.17096e-26
-5.98347e-26
8.70867e-27
-3.23599e-25
-3.69104e-25
3.46771e-25
-2.73533e-25
-4.27353e-25
-1.9847e-25
-4.77552e-25
-1.04336e-25
-5.14522e-25
1.53022e-27
-5.41686e-25
1.07399e-25
-5.40863e-25
2.0158e-25
-5.14985e-25
2.76609e-25
-4.78269e-25
3.25405e-25
-4.27337e-25
-3.66908e-25
3.45291e-25
-1.89214e-23
-3.0131e-23
2.04593e-23
-1.58838e-23
-3.45609e-23
-1.14762e-23
-3.83467e-23
-6.00813e-24
-4.11217e-23
9.56979e-26
-4.25757e-23
6.20134e-24
-4.25832e-23
1.16674e-23
-4.11486e-23
1.60659e-23
-3.83886e-23
1.90346e-23
-3.45513e-23
-2.99716e-23
2.0404e-23
-7.43997e-22
-1.52631e-21
8.12873e-22
-6.19342e-22
-1.73604e-21
-4.44647e-22
-1.91378e-21
-2.31774e-22
-2.04311e-21
3.70402e-24
-2.1104e-21
2.39232e-22
-2.11069e-21
4.51987e-22
-2.04417e-21
6.2631e-22
-1.91546e-21
7.4864e-22
-1.73557e-21
-1.51951e-21
8.11846e-22
-2.23134e-20
-6.03385e-20
2.46208e-20
-1.84299e-20
-6.90171e-20
-1.31552e-20
-7.67013e-20
-6.83211e-21
-8.25246e-20
1.04273e-22
-8.56459e-20
7.042e-21
-8.56587e-20
1.33621e-20
-8.25676e-20
1.86273e-20
-7.67658e-20
2.24532e-20
-6.90203e-20
-6.01412e-20
2.46183e-20
-5.24465e-19
-1.27342e-18
5.86075e-19
-4.28803e-19
-1.3893e-18
-3.03768e-19
-1.48426e-18
-1.57014e-19
-1.55174e-18
2.22851e-21
-1.58617e-18
1.61499e-19
-1.58629e-18
3.08202e-19
-1.55222e-18
4.33067e-19
-1.48504e-18
5.27662e-19
-1.38882e-18
-1.26893e-18
5.86554e-19
-8.98517e-18
-7.61337e-18
1.01956e-17
-7.25479e-18
-7.03536e-18
-5.0913e-18
-6.42429e-18
-2.61656e-18
-5.93273e-18
3.41836e-20
-5.67074e-18
2.68531e-18
-5.66913e-18
5.15947e-18
-5.92829e-18
7.32081e-18
-6.41839e-18
9.03811e-18
-7.02296e-18
-7.58452e-18
1.02152e-17
-1.48042e-16
-1.19994e-16
1.66673e-16
-1.20352e-16
-1.36771e-16
-8.4918e-17
-1.50531e-16
-4.38298e-17
-1.60278e-16
5.26238e-19
-1.65572e-16
4.48885e-17
-1.65587e-16
8.59657e-17
-1.60295e-16
1.2137e-16
-1.50549e-16
1.48957e-16
-1.37069e-16
-1.21033e-16
1.67346e-16
-2.2398e-15
-1.90776e-15
2.53651e-15
-1.81358e-15
-2.1965e-15
-1.2769e-15
-2.43567e-15
-6.58885e-16
-2.60646e-15
7.23477e-18
-2.69943e-15
6.73436e-16
-2.69971e-15
1.29137e-15
-2.60699e-15
1.82774e-15
-2.43631e-15
2.25291e-15
-2.20061e-15
-1.92104e-15
2.54717e-15
-2.97543e-14
-2.69748e-14
3.39768e-14
-2.39412e-14
-3.06639e-14
-1.67828e-14
-3.36917e-14
-8.63801e-15
-3.58376e-14
8.79459e-17
-3.69931e-14
8.81485e-15
-3.69968e-14
1.69592e-14
-3.58454e-14
2.41149e-14
-3.37021e-14
2.99198e-14
-3.07052e-14
-2.70956e-14
3.41224e-14
-3.42973e-13
-3.33869e-13
3.95353e-13
-2.73992e-13
-3.74386e-13
-1.9108e-13
-4.07316e-13
-9.80281e-14
-4.30408e-13
9.08856e-16
-4.42611e-13
9.98577e-14
-4.42655e-13
1.92915e-13
-4.30511e-13
2.75817e-13
-4.07458e-13
3.44761e-13
-3.74747e-13
-3.34737e-13
3.97026e-13
-3.37535e-12
-3.62733e-12
3.92852e-12
-2.67685e-12
-4.01411e-12
-1.85698e-12
-4.32557e-12
-9.49455e-13
-4.54138e-12
8.00068e-15
-4.65268e-12
9.65593e-13
-4.65316e-12
1.8733e-12
-4.5426e-12
2.69326e-12
-4.32729e-12
3.39183e-12
-4.01711e-12
-3.6325e-12
3.94459e-12
-2.72812e-11
-3.47577e-11
3.20743e-11
-2.14723e-11
-3.7968e-11
-1.48138e-11
-4.05312e-11
-7.54846e-12
-4.22802e-11
5.525e-14
-4.31544e-11
7.66035e-12
-4.31592e-11
1.49287e-11
-4.22934e-11
2.159e-11
-4.05497e-11
2.74033e-11
-3.79951e-11
-3.47881e-11
3.21952e-11
-1.64397e-10
-2.95268e-10
1.95515e-10
-1.28221e-10
-3.18589e-10
-8.78472e-11
-3.36952e-10
-4.45633e-11
-3.492e-10
3.03173e-13
-3.5507e-10
4.51753e-11
-3.55106e-10
8.84731e-11
-3.49306e-10
1.28848e-10
-3.37094e-10
1.65048e-10
-3.18806e-10
-2.95479e-10
1.9615e-10
-6.19735e-10
-2.27561e-09
7.54225e-10
-4.74036e-10
-2.42923e-09
-3.20522e-10
-2.5468e-09
-1.61532e-10
-2.62394e-09
3.68654e-13
-2.65908e-09
1.62303e-10
-2.65934e-09
3.21351e-10
-2.62471e-09
4.74937e-10
-2.54797e-09
6.2067e-10
-2.43078e-09
-2.27749e-09
7.55273e-10
-2.96578e-09
-1.34434e-07
3.44229e-09
-2.36638e-09
-1.50806e-07
-1.65383e-09
-1.63421e-07
-8.52682e-10
-1.71635e-07
-2.54682e-12
-1.75238e-07
8.47882e-10
-1.75267e-07
1.64969e-09
-1.71728e-07
2.36349e-09
-1.63565e-07
2.96402e-09
-1.50996e-07
-1.34661e-07
3.44209e-09
-3.06691e-08
-1.0875e-06
3.68397e-08
-2.37348e-08
-1.08877e-06
-1.62073e-08
-1.08973e-06
-8.24427e-09
-1.09037e-06
-2.41866e-11
-1.0907e-06
8.19767e-09
-1.0907e-06
1.6165e-08
-1.09038e-06
2.36983e-08
-1.08974e-06
3.0641e-08
-1.08879e-06
-1.08753e-06
3.68215e-08
-5.25377e-08
-1.10066e-06
6.56933e-08
-3.9393e-08
-1.10192e-06
-2.62604e-08
-1.10286e-06
-1.3141e-08
-1.10349e-06
-3.22408e-11
-1.10381e-06
1.30766e-08
-1.10381e-06
2.61961e-08
-1.1035e-06
3.93297e-08
-1.10287e-06
5.24746e-08
-1.10194e-06
-1.10069e-06
6.56332e-08
-5.06452e-08
-1.11339e-06
6.33715e-08
-3.79509e-08
-1.11461e-06
-2.52877e-08
-1.11552e-06
-1.26478e-08
-1.11613e-06
-2.10482e-11
-1.11644e-06
1.26058e-08
-1.11644e-06
2.52458e-08
-1.11614e-06
3.7909e-08
-1.11554e-06
5.06031e-08
-1.11463e-06
-1.11342e-06
6.33292e-08
-4.81815e-08
-1.12549e-06
6.02871e-08
-3.6106e-08
-1.12669e-06
-2.40567e-08
-1.12757e-06
-1.20271e-08
-1.12816e-06
-7.9203e-12
-1.12845e-06
1.20111e-08
-1.12846e-06
2.40405e-08
-1.12817e-06
3.60892e-08
-1.12759e-06
4.81644e-08
-1.12671e-06
-1.12552e-06
6.02687e-08
-4.54324e-08
-1.1369e-06
5.68389e-08
-3.40494e-08
-1.13807e-06
-2.26861e-08
-1.13893e-06
-1.13374e-08
-1.13951e-06
3.69508e-12
-1.1398e-06
1.13447e-08
-1.1398e-06
2.26932e-08
-1.13952e-06
3.4056e-08
-1.13895e-06
4.54385e-08
-1.13809e-06
-1.13693e-06
5.68445e-08
-4.25528e-08
-1.14757e-06
5.32274e-08
-3.18944e-08
-1.14873e-06
-2.12491e-08
-1.14958e-06
-1.06131e-08
-1.15014e-06
1.8012e-11
-1.15043e-06
1.0649e-08
-1.15043e-06
2.12848e-08
-1.15015e-06
3.19296e-08
-1.14959e-06
4.25872e-08
-1.14875e-06
-1.1476e-06
5.32609e-08
-3.96662e-08
-1.1575e-06
4.95893e-08
-2.97417e-08
-1.15865e-06
-1.98166e-08
-1.1595e-06
-9.89141e-09
-1.16007e-06
3.36535e-11
-1.16035e-06
9.95859e-09
-1.16035e-06
1.98834e-08
-1.16008e-06
2.98079e-08
-1.15952e-06
3.97316e-08
-1.15867e-06
-1.15752e-06
4.96539e-08
-3.69819e-08
-1.1667e-06
4.61837e-08
-2.77499e-08
-1.16788e-06
-1.84955e-08
-1.16876e-06
-9.22657e-09
-1.16934e-06
4.95246e-11
-1.16963e-06
9.32552e-09
-1.16963e-06
1.85942e-08
-1.16935e-06
2.78482e-08
-1.16877e-06
3.70797e-08
-1.1679e-06
-1.16672e-06
4.6281e-08
-3.47897e-08
-1.17529e-06
4.33814e-08
-2.61323e-08
-1.17654e-06
-1.74265e-08
-1.17746e-06
-8.68879e-09
-1.17808e-06
6.46145e-11
-1.17838e-06
8.81797e-09
-1.17838e-06
1.75555e-08
-1.17808e-06
2.62612e-08
-1.17748e-06
3.49184e-08
-1.17656e-06
-1.17532e-06
4.351e-08
-3.34322e-08
-1.18349e-06
4.16328e-08
-2.51364e-08
-1.18484e-06
-1.67703e-08
-1.18583e-06
-8.35785e-09
-1.18649e-06
7.75567e-11
-1.18682e-06
8.51299e-09
-1.18682e-06
1.69255e-08
-1.1865e-06
2.52917e-08
-1.18584e-06
3.35876e-08
-1.18486e-06
-1.18352e-06
4.17882e-08
-3.32163e-08
-1.19162e-06
4.13485e-08
-2.49805e-08
-1.19307e-06
-1.66673e-08
-1.19414e-06
-8.30262e-09
-1.19485e-06
8.77387e-11
-1.19521e-06
8.4781e-09
-1.19521e-06
1.68428e-08
-1.19486e-06
2.51561e-08
-1.19416e-06
3.33919e-08
-1.19309e-06
-1.19165e-06
4.15239e-08
-3.42848e-08
-1.20005e-06
4.27151e-08
-2.57679e-08
-1.20159e-06
-1.71845e-08
-1.20273e-06
-8.55625e-09
-1.20348e-06
9.47247e-11
-1.20386e-06
8.74563e-09
-1.20386e-06
1.73738e-08
-1.20349e-06
2.59568e-08
-1.20274e-06
3.44732e-08
-1.20161e-06
-1.20008e-06
4.29028e-08
-3.655e-08
-1.20911e-06
4.5606e-08
-2.74399e-08
-1.2107e-06
-1.82861e-08
-1.21188e-06
-9.10168e-09
-1.21267e-06
9.83512e-11
-1.21306e-06
9.29822e-09
-1.21306e-06
1.84821e-08
-1.21267e-06
2.76351e-08
-1.21189e-06
3.6744e-08
-1.21072e-06
-1.20913e-06
4.57984e-08
-3.97299e-08
-1.21902e-06
4.96407e-08
-2.97971e-08
-1.22063e-06
-1.98446e-08
-1.22183e-06
-9.87691e-09
-1.22263e-06
9.86457e-11
-1.22303e-06
1.0074e-08
-1.22304e-06
2.00408e-08
-1.22264e-06
2.99921e-08
-1.22185e-06
3.99229e-08
-1.22065e-06
-1.21904e-06
4.98312e-08
-4.34352e-08
-1.22989e-06
5.43078e-08
-3.25592e-08
-1.23151e-06
-2.16782e-08
-1.23271e-06
-1.07925e-08
-1.23352e-06
9.59443e-11
-1.23392e-06
1.0984e-08
-1.23392e-06
2.18687e-08
-1.23352e-06
3.2748e-08
-1.23272e-06
4.36214e-08
-1.23152e-06
-1.22991e-06
5.44906e-08
-4.72738e-08
-1.24172e-06
5.91047e-08
-3.54379e-08
-1.24335e-06
-2.35977e-08
-1.24456e-06
-1.17543e-08
-1.24536e-06
9.07248e-11
-1.24577e-06
1.19354e-08
-1.24577e-06
2.37776e-08
-1.24537e-06
3.56157e-08
-1.24456e-06
4.74486e-08
-1.24336e-06
-1.24174e-06
5.92757e-08
-5.09305e-08
-1.25443e-06
6.36401e-08
-3.81961e-08
-1.25608e-06
-2.54448e-08
-1.25731e-06
-1.2683e-08
-1.25812e-06
8.36632e-11
-1.25853e-06
1.28499e-08
-1.25853e-06
2.56104e-08
-1.25813e-06
3.83595e-08
-1.25731e-06
5.10907e-08
-1.25609e-06
-1.25444e-06
6.37962e-08
-5.42043e-08
-1.2679e-06
6.7675e-08
-4.06779e-08
-1.26961e-06
-2.71132e-08
-1.27087e-06
-1.35245e-08
-1.27171e-06
7.54668e-11
-1.27213e-06
1.36751e-08
-1.27213e-06
2.72624e-08
-1.27171e-06
4.0825e-08
-1.27087e-06
5.43483e-08
-1.26961e-06
-1.26791e-06
6.78148e-08
-5.70091e-08
-1.28201e-06
7.11182e-08
-4.28115e-08
-1.2838e-06
-2.85515e-08
-1.28513e-06
-1.42519e-08
-1.28601e-06
6.66678e-11
-1.28645e-06
1.43848e-08
-1.28645e-06
2.86831e-08
-1.28601e-06
4.29411e-08
-1.28513e-06
5.71357e-08
-1.2838e-06
-1.28201e-06
7.12407e-08
-5.93436e-08
-1.29665e-06
7.39816e-08
-4.45894e-08
-1.29855e-06
-2.97516e-08
-1.29997e-06
-1.486e-08
-1.3009e-06
5.76118e-11
-1.30137e-06
1.49749e-08
-1.30137e-06
2.98653e-08
-1.3009e-06
4.47011e-08
-1.29997e-06
5.94524e-08
-1.29855e-06
-1.29664e-06
7.40868e-08
-6.12597e-08
-1.31173e-06
7.63387e-08
-4.60465e-08
-1.31377e-06
-3.0735e-08
-1.31528e-06
-1.53591e-08
-1.31628e-06
4.83175e-11
-1.31678e-06
1.54554e-08
-1.31678e-06
3.08302e-08
-1.31628e-06
4.61398e-08
-1.31527e-06
6.13503e-08
-1.31376e-06
-1.31172e-06
7.64261e-08
-6.2829e-08
-1.32717e-06
7.82739e-08
-4.7236e-08
-1.32936e-06
-3.15364e-08
-1.33098e-06
-1.57661e-08
-1.33205e-06
3.90565e-11
-1.33258e-06
1.58439e-08
-1.33258e-06
3.16132e-08
-1.33205e-06
4.73111e-08
-1.33097e-06
6.29017e-08
-1.32935e-06
-1.32716e-06
7.83436e-08
-6.41592e-08
-1.34296e-06
7.99481e-08
-4.82313e-08
-1.34529e-06
-3.22016e-08
-1.34701e-06
-1.6103e-08
-1.34815e-06
3.00584e-11
-1.34872e-06
1.61628e-08
-1.34871e-06
3.22605e-08
-1.34815e-06
4.82885e-08
-1.347e-06
6.42143e-08
-1.34528e-06
-1.34295e-06
8.00002e-08
-6.52162e-08
-1.35901e-06
8.12649e-08
-4.90275e-08
-1.36148e-06
-3.27358e-08
-1.3633e-06
-1.63748e-08
-1.36451e-06
2.11238e-11
-1.36511e-06
1.64168e-08
-1.36511e-06
3.2777e-08
-1.36451e-06
4.90673e-08
-1.36329e-06
6.52542e-08
-1.36147e-06
-1.359e-06
8.13003e-08
-6.61954e-08
-1.37532e-06
8.25022e-08
-4.9749e-08
-1.37793e-06
-3.32103e-08
-1.37984e-06
-1.66131e-08
-1.38111e-06
1.33674e-11
-1.38174e-06
1.66397e-08
-1.38174e-06
3.32362e-08
-1.3811e-06
4.97739e-08
-1.37983e-06
6.62186e-08
-1.37792e-06
-1.3753e-06
8.2523e-08
-6.69846e-08
-1.39185e-06
8.35207e-08
-5.03198e-08
-1.39459e-06
-3.35821e-08
-1.39658e-06
-1.67996e-08
-1.39789e-06
5.69554e-12
-1.39854e-06
1.68107e-08
-1.39854e-06
3.35928e-08
-1.39788e-06
5.03295e-08
-1.39657e-06
6.6993e-08
-1.39458e-06
-1.39184e-06
8.35271e-08
-6.74426e-08
-1.40858e-06
8.41691e-08
-5.06439e-08
-1.41139e-06
-3.37942e-08
-1.41343e-06
-1.69078e-08
-1.41478e-06
-1.99246e-12
-1.41545e-06
1.69038e-08
-1.41545e-06
3.37902e-08
-1.41477e-06
5.06399e-08
-1.41342e-06
6.7438e-08
-1.41138e-06
-1.40856e-06
8.41635e-08
-6.78218e-08
-1.42551e-06
8.47497e-08
-5.09051e-08
-1.42831e-06
-3.39593e-08
-1.43037e-06
-1.69906e-08
-1.43174e-06
-9.98815e-12
-1.43243e-06
1.69708e-08
-1.43243e-06
3.39404e-08
-1.43174e-06
5.08871e-08
-1.43037e-06
6.78046e-08
-1.42829e-06
-1.42549e-06
8.47318e-08
-6.78527e-08
-1.44227e-06
8.46181e-08
-5.09555e-08
-1.4452e-06
-3.39972e-08
-1.44733e-06
-1.70129e-08
-1.44873e-06
-1.8928e-11
-1.44942e-06
1.69752e-08
-1.44942e-06
3.39601e-08
-1.44873e-06
5.09194e-08
-1.44732e-06
6.7818e-08
-1.44519e-06
-1.44225e-06
8.45832e-08
-6.74403e-08
-1.45871e-06
8.38774e-08
-5.06419e-08
-1.462e-06
-3.37818e-08
-1.46419e-06
-1.69071e-08
-1.4656e-06
-2.89181e-11
-1.4663e-06
1.68495e-08
-1.4663e-06
3.37244e-08
-1.4656e-06
5.05852e-08
-1.46419e-06
6.73855e-08
-1.46199e-06
-1.45869e-06
8.38237e-08
-6.67178e-08
-1.47467e-06
8.26746e-08
-4.99814e-08
-1.47874e-06
-3.33055e-08
-1.48087e-06
-1.66629e-08
-1.48225e-06
-3.59965e-11
-1.48293e-06
1.65911e-08
-1.48293e-06
3.32337e-08
-1.48224e-06
4.99107e-08
-1.48086e-06
6.66495e-08
-1.47873e-06
-1.47464e-06
8.26012e-08
-6.54434e-08
-1.48698e-06
7.77505e-08
-4.89381e-08
-1.49524e-06
-3.25866e-08
-1.49722e-06
-1.6299e-08
-1.49853e-06
-3.75365e-11
-1.49919e-06
1.6224e-08
-1.49919e-06
3.25118e-08
-1.49853e-06
4.88644e-08
-1.49721e-06
6.5372e-08
-1.49524e-06
-1.4869e-06
7.76325e-08
-6.33633e-08
-1.4888e-06
6.51894e-08
-4.747e-08
-1.51114e-06
-3.1636e-08
-1.51305e-06
-1.58296e-08
-1.51434e-06
-3.61438e-11
-1.51498e-06
1.57575e-08
-1.51498e-06
3.15646e-08
-1.51434e-06
4.73996e-08
-1.51305e-06
6.32942e-08
-1.51113e-06
-1.48864e-06
6.50255e-08
-6.07318e-08
-1.43311e-06
5.43194e-08
-4.56411e-08
-1.52623e-06
-3.04522e-08
-1.52824e-06
-1.52436e-08
-1.52955e-06
-3.431e-11
-1.53019e-06
1.51752e-08
-1.53019e-06
3.03845e-08
-1.52955e-06
4.55743e-08
-1.52824e-06
6.06653e-08
-1.52623e-06
-1.43188e-06
5.42016e-08
-5.78827e-08
-1.25092e-06
3.67689e-08
-4.34659e-08
-1.54065e-06
-2.89909e-08
-1.54272e-06
-1.45097e-08
-1.54403e-06
-3.28235e-11
-1.54467e-06
1.44443e-08
-1.54467e-06
2.89262e-08
-1.54403e-06
4.34024e-08
-1.54272e-06
5.78208e-08
-1.54064e-06
-1.24898e-06
3.65851e-08
-5.48128e-08
-1.05349e-06
1.96403e-08
-4.10134e-08
-1.55444e-06
-2.73011e-08
-1.55643e-06
-1.36518e-08
-1.55768e-06
-3.14925e-11
-1.55829e-06
1.3589e-08
-1.55829e-06
2.72389e-08
-1.55768e-06
4.09526e-08
-1.55643e-06
5.47533e-08
-1.55444e-06
-1.05124e-06
1.94946e-08
-5.09608e-08
-8.77068e-07
8.99809e-09
-3.81542e-08
-1.56725e-06
-2.53565e-08
-1.56923e-06
-1.26693e-08
-1.57037e-06
-3.07559e-11
-1.57093e-06
1.26079e-08
-1.57093e-06
2.52956e-08
-1.57037e-06
3.8094e-08
-1.56923e-06
5.0897e-08
-1.56725e-06
-8.74786e-07
8.89929e-09
-4.57005e-08
-7.19244e-07
3.04578e-09
-3.48541e-08
-1.5781e-06
-2.31529e-08
-1.58093e-06
-1.15655e-08
-1.58195e-06
-3.005e-11
-1.58246e-06
1.15054e-08
-1.58246e-06
2.30929e-08
-1.58195e-06
3.47942e-08
-1.58093e-06
4.5616e-08
-1.57807e-06
-7.17079e-07
2.98652e-09
-3.76938e-08
-5.80402e-07
0
-3.12335e-08
-1.58456e-06
-2.07556e-08
-1.59141e-06
-1.03706e-08
-1.59234e-06
-2.9747e-11
-1.5928e-06
1.0311e-08
-1.5928e-06
2.06958e-08
-1.59234e-06
3.11732e-08
-1.59141e-06
3.75641e-08
-1.58446e-06
-5.78539e-07
0
-2.81708e-08
-4.7184e-07
5.25184e-10
-2.73952e-08
-1.57934e-06
-1.82192e-08
-1.60058e-06
-9.10754e-09
-1.60145e-06
-3.0254e-11
-1.60188e-06
9.04695e-09
-1.60188e-06
1.81583e-08
-1.60145e-06
2.73335e-08
-1.60058e-06
2.81065e-08
-1.57863e-06
-4.70279e-07
5.2389e-10
-2.22494e-08
-3.86294e-07
3.72015e-10
-2.34406e-08
-1.5334e-06
-1.55895e-08
-1.60843e-06
-7.79524e-09
-1.60924e-06
-3.12758e-11
-1.60965e-06
7.73262e-09
-1.60965e-06
1.55268e-08
-1.60924e-06
2.33776e-08
-1.60843e-06
2.21606e-08
-1.53246e-06
-3.84901e-07
3.70633e-10
-1.64932e-08
-3.15945e-07
2.78031e-10
-1.94421e-08
-1.49037e-06
-1.29176e-08
-1.61496e-06
-6.4591e-09
-1.6157e-06
-3.25831e-11
-1.61607e-06
6.39391e-09
-1.61607e-06
1.28523e-08
-1.6157e-06
1.93768e-08
-1.61496e-06
1.64203e-08
-1.48946e-06
-3.14689e-07
2.76985e-10
-1.19102e-08
-2.58509e-07
2.0496e-10
-1.53917e-08
-1.45255e-06
-1.02204e-08
-1.62013e-06
-5.11133e-09
-1.62081e-06
-3.42276e-11
-1.62115e-06
5.04285e-09
-1.62115e-06
1.01518e-08
-1.62081e-06
1.53228e-08
-1.62013e-06
1.18476e-08
-1.45158e-06
-2.57396e-07
2.04052e-10
-8.07484e-09
-2.12647e-07
1.47441e-10
-1.13261e-08
-1.41518e-06
-7.52258e-09
-1.62393e-06
-3.76418e-09
-1.62457e-06
-3.55624e-11
-1.62488e-06
3.69303e-09
-1.62488e-06
7.45135e-09
-1.62457e-06
1.12543e-08
-1.62393e-06
8.02006e-09
-1.41413e-06
-2.11661e-07
1.46702e-10
-4.84431e-09
-1.76355e-07
1.06348e-10
-7.29803e-09
-1.37812e-06
-4.87925e-09
-1.62635e-06
-2.44385e-09
-1.62701e-06
-3.64078e-11
-1.62729e-06
2.37103e-09
-1.62729e-06
4.80644e-09
-1.627e-06
7.22307e-09
-1.62635e-06
4.79773e-09
-1.37701e-06
-1.75476e-07
1.05748e-10
-2.16487e-09
-1.47809e-07
7.84058e-11
-3.26176e-09
-1.34373e-06
-2.32229e-09
-1.62722e-06
-1.16656e-09
-1.62816e-06
-3.69198e-11
-1.62842e-06
1.09258e-09
-1.62841e-06
2.24857e-09
-1.62816e-06
3.19292e-09
-1.6272e-06
2.1267e-09
-1.34259e-06
-1.47017e-07
7.74389e-11
4.72971e-11
-1.25443e-07
4.72719e-13
1.62323e-10
-1.31299e-06
1.34684e-10
-1.62684e-06
6.04517e-11
-1.62809e-06
-3.66733e-11
-1.62832e-06
-1.33538e-10
-1.62832e-06
-2.08323e-10
-1.62808e-06
-2.36512e-10
-1.62684e-06
-7.6887e-11
-1.31184e-06
-1.24716e-07
-1.35061e-15
1.82499e-09
-1.08073e-07
-2.87629e-25
3.68698e-09
-1.28651e-06
2.47977e-09
-1.62559e-06
1.23147e-09
-1.62684e-06
-3.71879e-11
-1.62705e-06
-1.30599e-09
-1.62705e-06
-2.55406e-09
-1.62684e-06
-3.76097e-09
-1.62558e-06
-1.84876e-09
-1.28536e-06
-1.07401e-07
-5.20026e-26
3.35093e-09
-9.50325e-08
-6.93377e-29
7.03557e-09
-1.26447e-06
4.70666e-09
-1.62327e-06
2.34334e-09
-1.62447e-06
-3.70778e-11
-1.62467e-06
-2.41748e-09
-1.62467e-06
-4.78078e-09
-1.62447e-06
-7.10964e-09
-1.62327e-06
-3.37007e-09
-1.26333e-06
-9.4409e-08
-4.31321e-28
4.69267e-09
-8.56659e-08
-7.90986e-28
1.0197e-08
-1.24685e-06
6.80935e-09
-1.6199e-06
3.39332e-09
-1.62106e-06
-3.68658e-11
-1.62124e-06
-3.46706e-09
-1.62124e-06
-6.88312e-09
-1.62106e-06
-1.02708e-08
-1.6199e-06
-4.70787e-09
-1.24573e-06
-8.50809e-08
-6.31168e-27
5.90764e-09
-7.94149e-08
-2.63123e-27
1.3169e-08
-1.23343e-06
8.78614e-09
-1.61554e-06
4.38044e-09
-1.61665e-06
-3.66523e-11
-1.61682e-06
-4.45377e-09
-1.61682e-06
-8.85954e-09
-1.61665e-06
-1.32425e-08
-1.61553e-06
-5.91955e-09
-1.23235e-06
-7.88604e-08
-1.05038e-26
7.0417e-09
-7.58867e-08
-6.77205e-27
1.59522e-08
-1.22395e-06
1.06371e-08
-1.61025e-06
5.30459e-09
-1.61132e-06
-3.65002e-11
-1.61148e-06
-5.37762e-09
-1.61148e-06
-1.07102e-08
-1.61132e-06
-1.60255e-08
-1.61025e-06
-7.05092e-09
-1.22289e-06
-7.53553e-08
-1.57732e-26
8.12632e-09
-7.454e-08
-1.37515e-26
1.85459e-08
-1.21782e-06
1.23617e-08
-1.6041e-06
6.16557e-09
-1.60512e-06
-3.64678e-11
-1.60528e-06
-6.23853e-09
-1.60528e-06
-1.24347e-08
-1.60512e-06
-1.86191e-08
-1.60409e-06
-8.13333e-09
-1.21679e-06
-7.40267e-08
-2.31902e-26
9.17149e-09
-7.47712e-08
-2.51781e-26
2.09609e-08
-1.21439e-06
1.39676e-08
-1.59713e-06
6.96752e-09
-1.59812e-06
-3.66568e-11
-1.59827e-06
-7.04085e-09
-1.59827e-06
-1.4041e-08
-1.59812e-06
-2.10344e-08
-1.59712e-06
-9.17666e-09
-1.21342e-06
-7.42757e-08
-3.42736e-26
1.02679e-08
-7.86461e-08
-4.12812e-26
2.3224e-08
-1.21724e-06
1.5474e-08
-1.5894e-06
7.71988e-09
-1.59037e-06
-3.70829e-11
-1.59052e-06
-7.79406e-09
-1.59052e-06
-1.55482e-08
-1.59037e-06
-2.32983e-08
-1.58939e-06
-1.02729e-08
-1.21632e-06
-7.81692e-08
-6.12904e-26
1.14578e-08
-8.38847e-08
-5.60004e-26
2.53378e-08
-1.22075e-06
1.68827e-08
-1.58096e-06
8.42353e-09
-1.58191e-06
-3.76372e-11
-1.58206e-06
-8.4988e-09
-1.58206e-06
-1.69579e-08
-1.58191e-06
-2.5413e-08
-1.58095e-06
-1.14623e-08
-1.21989e-06
-8.34156e-08
-7.95041e-26
1.26519e-08
-9.06648e-08
-5.71571e-26
2.72963e-08
-1.22626e-06
1.81866e-08
-1.57186e-06
9.07488e-09
-1.5728e-06
-3.83421e-11
-1.57294e-06
-9.15154e-09
-1.57294e-06
-1.82632e-08
-1.5728e-06
-2.73727e-08
-1.57186e-06
-1.26564e-08
-1.22546e-06
-9.02119e-08
-9.38647e-26
1.39296e-08
-9.96643e-08
-7.59405e-26
2.91191e-08
-1.23439e-06
1.94005e-08
-1.56215e-06
9.68111e-09
-1.56308e-06
-3.92301e-11
-1.56322e-06
-9.75951e-09
-1.56322e-06
-1.94787e-08
-1.56308e-06
-2.91967e-08
-1.56214e-06
-1.39352e-08
-1.23367e-06
-9.92296e-08
-9.58012e-26
1.53215e-08
-1.10661e-07
-5.93385e-26
3.0821e-08
-1.24407e-06
2.05391e-08
-1.55186e-06
1.02499e-08
-1.55279e-06
-4.01313e-11
-1.55293e-06
-1.033e-08
-1.55293e-06
-2.0619e-08
-1.55279e-06
-3.09003e-08
-1.55186e-06
-1.53287e-08
-1.24343e-06
-1.10246e-07
-7.81016e-26
1.68216e-08
-1.23676e-07
-3.75027e-26
3.24065e-08
-1.25488e-06
2.16033e-08
-1.54106e-06
1.07817e-08
-1.54197e-06
-4.08724e-11
-1.54211e-06
-1.08634e-08
-1.54211e-06
-2.16846e-08
-1.54197e-06
-3.24869e-08
-1.54106e-06
-1.68309e-08
-1.25431e-06
-1.23286e-07
-4.94943e-26
1.84472e-08
-1.38905e-07
-2.01719e-26
3.38854e-08
-1.26662e-06
2.25963e-08
-1.52977e-06
1.12783e-08
-1.53065e-06
-4.13087e-11
-1.53079e-06
-1.13608e-08
-1.53079e-06
-2.26782e-08
-1.53065e-06
-3.39663e-08
-1.52977e-06
-1.84591e-08
-1.26614e-06
-1.38544e-07
-2.64005e-26
2.02149e-08
-1.56465e-07
-1.01933e-26
3.52646e-08
-1.27891e-06
2.35224e-08
-1.51803e-06
1.17419e-08
-1.51887e-06
-4.12738e-11
-1.51901e-06
-1.18242e-08
-1.51901e-06
-2.36042e-08
-1.51887e-06
-3.53451e-08
-1.51803e-06
-2.02296e-08
-1.27851e-06
-1.56137e-07
-1.28125e-26
2.21312e-08
-1.7647e-07
-5.24296e-27
3.65451e-08
-1.29133e-06
2.43825e-08
-1.50587e-06
1.21728e-08
-1.50666e-06
-4.06322e-11
-1.50679e-06
-1.22538e-08
-1.50679e-06
-2.44629e-08
-1.50666e-06
-3.6624e-08
-1.50587e-06
-2.21488e-08
-1.29101e-06
-1.76178e-07
-6.33624e-27
2.41992e-08
-1.99049e-07
-2.04546e-27
3.77243e-08
-1.30351e-06
2.51745e-08
-1.49332e-06
1.25699e-08
-1.49406e-06
-3.9312e-11
-1.49418e-06
-1.26483e-08
-1.49419e-06
-2.52522e-08
-1.49406e-06
-3.78005e-08
-1.49332e-06
-2.42196e-08
-1.30326e-06
-1.98796e-07
-2.65101e-27
2.64168e-08
-2.24326e-07
-1.65965e-27
3.87966e-08
-1.31508e-06
2.58939e-08
-1.48041e-06
1.29308e-08
-1.48109e-06
-3.7311e-11
-1.48122e-06
-1.30052e-08
-1.48122e-06
-2.59675e-08
-1.4811e-06
-3.88688e-08
-1.48042e-06
-2.64396e-08
-1.3149e-06
-2.2411e-07
-2.45175e-27
2.87738e-08
-2.52418e-07
-3.25189e-27
3.97521e-08
-1.32568e-06
2.65331e-08
-1.46719e-06
1.32514e-08
-1.46781e-06
-3.47041e-11
-1.46793e-06
-1.33205e-08
-1.46793e-06
-2.66015e-08
-1.46781e-06
-3.98191e-08
-1.4672e-06
-2.87983e-08
-1.32555e-06
-2.52238e-07
-4.55771e-27
3.12517e-08
-2.83454e-07
-4.35756e-27
4.05777e-08
-1.33497e-06
2.70822e-08
-1.4537e-06
1.35261e-08
-1.45426e-06
-3.16351e-11
-1.45437e-06
-1.35892e-08
-1.45437e-06
-2.71445e-08
-1.45426e-06
-4.06387e-08
-1.45371e-06
-3.1277e-08
-1.33488e-06
-2.83305e-07
-5.59463e-27
3.38236e-08
-3.17562e-07
-4.28536e-27
4.12584e-08
-1.34264e-06
2.75296e-08
-1.43997e-06
1.37488e-08
-1.44047e-06
-2.82903e-11
-1.4406e-06
-1.38051e-08
-1.4406e-06
-2.75853e-08
-1.44048e-06
-4.13129e-08
-1.43998e-06
-3.38489e-08
-1.34258e-06
-3.17439e-07
-4.97536e-27
3.64533e-08
-3.54846e-07
-3.51032e-27
4.17805e-08
-1.3484e-06
2.78645e-08
-1.42605e-06
1.39133e-08
-1.42652e-06
-2.48609e-11
-1.42666e-06
-1.39628e-08
-1.42666e-06
-2.79134e-08
-1.42653e-06
-4.18283e-08
-1.42606e-06
-3.64779e-08
-1.34836e-06
-3.54742e-07
-3.74387e-27
3.90971e-08
-3.95348e-07
-2.38436e-27
4.21343e-08
-1.352e-06
2.8079e-08
-1.412e-06
1.40151e-08
-1.41246e-06
-2.15082e-11
-1.41262e-06
-1.40579e-08
-1.41262e-06
-2.81213e-08
-1.41247e-06
-4.21758e-08
-1.41201e-06
-3.91202e-08
-1.35197e-06
-3.95256e-07
-2.46951e-27
4.17066e-08
-4.3902e-07
-1.16782e-27
4.23206e-08
-1.35322e-06
2.81721e-08
-1.39785e-06
1.40533e-08
-1.39834e-06
-1.83435e-11
-1.39855e-06
-1.40898e-08
-1.39855e-06
-2.82083e-08
-1.39835e-06
-4.23562e-08
-1.39786e-06
-4.17279e-08
-1.3532e-06
-4.3893e-07
-1.20341e-27
4.42381e-08
-4.85695e-07
-3.87797e-28
4.23558e-08
-1.35192e-06
2.81544e-08
-1.38365e-06
1.40328e-08
-1.38422e-06
-1.54304e-11
-1.3845e-06
-1.40636e-08
-1.3845e-06
-2.8185e-08
-1.38423e-06
-4.23862e-08
-1.38366e-06
-4.42573e-08
-1.3519e-06
-4.85602e-07
-3.91509e-28
4.66651e-08
-5.35092e-07
-1.02118e-28
4.228e-08
-1.34802e-06
2.80532e-08
-1.36942e-06
1.39675e-08
-1.37013e-06
-1.28053e-11
-1.37052e-06
-1.39931e-08
-1.37052e-06
-2.80789e-08
-1.37014e-06
-4.2306e-08
-1.36943e-06
-4.66824e-08
-1.34801e-06
-5.3499e-07
-1.01675e-28
4.89953e-08
-5.86835e-07
-2.89968e-29
4.21642e-08
-1.34153e-06
2.79181e-08
-1.35518e-06
1.38823e-08
-1.3561e-06
-1.05028e-11
-1.35663e-06
-1.39034e-08
-1.35663e-06
-2.79396e-08
-1.3561e-06
-4.21865e-08
-1.35519e-06
-4.90113e-08
-1.34153e-06
-5.86723e-07
-2.78112e-29
5.12867e-08
-6.40535e-07
-4.56342e-30
4.2115e-08
-1.33257e-06
2.78244e-08
-1.34089e-06
1.38156e-08
-1.34209e-06
-8.57382e-12
-1.3428e-06
-1.3833e-08
-1.34281e-06
-2.78426e-08
-1.34209e-06
-4.21347e-08
-1.34089e-06
-5.13021e-08
-1.33257e-06
-6.40413e-07
-4.39824e-30
5.36522e-08
-6.95943e-07
-5.60165e-31
4.22708e-08
-1.32128e-06
2.7869e-08
-1.32648e-06
1.38159e-08
-1.32804e-06
-7.08541e-12
-1.32898e-06
-1.38305e-08
-1.32898e-06
-2.78848e-08
-1.32804e-06
-4.22889e-08
-1.32649e-06
-5.36684e-08
-1.32128e-06
-6.95814e-07
-5.1337e-31
5.62303e-08
-7.5312e-07
-7.46433e-32
4.27675e-08
-1.30784e-06
2.81416e-08
-1.31186e-06
1.39244e-08
-1.31382e-06
-6.10528e-12
-1.31505e-06
-1.39372e-08
-1.31505e-06
-2.81562e-08
-1.31382e-06
-4.27853e-08
-1.31186e-06
-5.62485e-08
-1.30784e-06
-7.52988e-07
-7.47619e-32
5.86859e-08
-8.12054e-07
-5.79424e-33
4.36289e-08
-1.29278e-06
2.86391e-08
-1.29687e-06
1.41274e-08
-1.29931e-06
-5.68591e-12
-1.30092e-06
-1.41395e-08
-1.30092e-06
-2.86536e-08
-1.29931e-06
-4.36476e-08
-1.29687e-06
-5.87099e-08
-1.29277e-06
-8.11928e-07
-7.01238e-33
6.01289e-08
-8.72026e-07
-1.91709e-34
4.4544e-08
-1.27719e-06
2.91177e-08
-1.28144e-06
1.43063e-08
-1.2845e-06
-5.88285e-12
-1.2866e-06
-1.43189e-08
-1.2866e-06
-2.91332e-08
-1.28449e-06
-4.45645e-08
-1.28143e-06
-6.01556e-08
-1.27718e-06
-8.71913e-07
-2.13326e-34
6.07368e-08
-9.32483e-07
-3.48491e-36
4.44965e-08
-1.26095e-06
2.89394e-08
-1.26588e-06
1.43245e-08
-1.26988e-06
-6.82028e-12
-1.27227e-06
-1.43391e-08
-1.27227e-06
-2.89563e-08
-1.26987e-06
-4.45181e-08
-1.26587e-06
-6.07651e-08
-1.26094e-06
-9.3239e-07
-2.60647e-36
5.82451e-08
-9.90413e-07
-9.88921e-39
4.11444e-08
-1.24385e-06
2.71201e-08
-1.25186e-06
1.43238e-08
-1.25708e-06
-8.75544e-12
-1.25794e-06
-1.43424e-08
-1.25794e-06
-2.71389e-08
-1.25708e-06
-4.11647e-08
-1.25185e-06
-5.8271e-08
-1.24383e-06
-9.90343e-07
-1.10695e-38