/*--------------------------------*- C++ -*----------------------------------*\
  =========                 |
  \\      /  F ield         | OpenFOAM: The Open Source CFD Toolbox
   \\    /   O peration     | Website:  https://openfoam.org
    \\  /    A nd           | Version:  8
     \\/     M anipulation  |
\*---------------------------------------------------------------------------*/
FoamFile
{
    version     2.0;
    format      ascii;
    class       volScalarField;
    location    "0.25";
    object      alpha.water;
}
// * * * * * * * * * * * * * * * * * * * * * * * * * * * * * * * * * * * * * //

dimensions      [0 0 0 0 0 0 0];

internalField   nonuniform List<scalar> 
9150
(
1
1
1
1
1
1
1
1
1
1
1
1
1
1
1
1
1
1
1
1
1
1
1
1
1
1
1
1
1
1
1
1
1
1
1
1
1
1
1
1
1
1
1
1
1
1
1
1
1
1
1
1
1
1
1
1
1
1
1
1
1
1
1
1
1
1
1
1
1
1
1
1
1
1
1
1
1
1
1
1
1
1
1
1
1
1
1
1
1
1
1
1
1
1
1
1
1
1
1
1
1
1
1
1
1
1
1
1
1
1
1
1
1
1
1
1
1
1
1
1
1
1
1
1
1
1
1
1
1
1
1
1
1
1
1
1
1
1
1
1
1
1
1
1
1
1
1
1
1
1
2.08354e-20
2.77288e-20
3.4875e-20
4.1849e-20
4.82971e-20
4.81108e-20
4.15496e-20
3.44101e-20
2.70841e-20
2.00483e-20
9.4277e-20
9.76712e-20
9.87187e-20
9.75551e-20
9.71405e-20
9.70836e-20
9.80062e-20
9.94606e-20
9.76514e-20
9.18109e-20
9.66914e-18
1.06723e-17
1.15009e-17
1.20897e-17
1.23668e-17
1.23691e-17
1.20998e-17
1.15185e-17
1.06384e-17
9.49157e-18
5.02354e-16
5.55706e-16
5.99984e-16
6.31596e-16
6.4707e-16
6.47152e-16
6.32012e-16
6.00696e-16
5.54521e-16
4.95769e-16
1.98986e-14
2.21504e-14
2.40809e-14
2.55017e-14
2.62261e-14
2.62293e-14
2.55162e-14
2.41048e-14
2.21215e-14
1.97135e-14
4.94491e-13
5.31387e-13
5.60977e-13
5.81575e-13
5.91435e-13
5.91475e-13
5.81804e-13
5.6138e-13
5.30605e-13
4.90185e-13
4.68169e-12
4.65581e-12
4.59293e-12
4.5287e-12
4.48434e-12
4.4841e-12
4.52903e-12
4.59414e-12
4.64239e-12
4.62696e-12
4.20825e-11
4.58231e-11
4.88296e-11
5.09222e-11
5.19783e-11
5.19825e-11
5.0937e-11
4.88527e-11
4.57817e-11
4.18559e-11
6.50345e-10
7.08131e-10
7.54686e-10
7.87017e-10
8.03215e-10
8.03287e-10
7.87256e-10
7.55054e-10
7.07909e-10
6.48297e-10
9.48985e-09
1.02424e-08
1.08421e-08
1.12536e-08
1.14563e-08
1.14573e-08
1.12569e-08
1.08472e-08
1.02434e-08
9.47587e-09
1.20987e-07
1.29521e-07
1.36252e-07
1.40814e-07
1.43022e-07
1.43034e-07
1.40853e-07
1.36313e-07
1.29567e-07
1.20946e-07
1.36161e-06
1.44684e-06
1.51343e-06
1.55799e-06
1.57915e-06
1.57928e-06
1.55841e-06
1.51407e-06
1.44758e-06
1.36207e-06
1.36792e-05
1.44408e-05
1.50306e-05
1.54203e-05
1.56016e-05
1.56029e-05
1.54243e-05
1.50366e-05
1.44489e-05
1.36876e-05
0.000124297
0.000130513
0.000135293
0.000138415
0.000139838
0.000139849
0.00013845
0.000135345
0.000130587
0.00012438
0.00103861
0.00108615
0.00112255
0.00114611
0.00115666
0.00115675
0.00114638
0.00112296
0.00108673
0.00103925
0.0273249
0.0310916
0.0340239
0.0359416
0.036784
0.036791
0.0359633
0.0340573
0.0311358
0.0273768
0.599845
0.616131
0.628174
0.635796
0.639077
0.639104
0.635881
0.628308
0.616314
0.600075
1
1
1
1
1
1
1
1
1
1
1
1
1
1
1
1
1
1
1
1
1
1
1
1
1
1
1
1
1
1
1
1
1
1
1
1
1
1
1
1
1
1
1
1
1
1
1
1
1
1
1
1
1
1
1
1
1
1
1
1
1
1
1
1
1
1
1
1
1
1
1
1
1
1
1
1
1
1
1
1
1
1
1
1
1
1
1
1
1
1
1
1
1
1
1
1
1
1
1
1
1
1
1
1
1
1
1
1
1
1
1
1
1
1
1
1
1
1
1
1
1
1
1
1
1
1
1
1
1
1
1
1
1
1
1
1
1
1
1
1
1
1
1
1
1
1
1
1
1
1
1
1
1
1
1
1
1
1
1
1
1
1
1
1
1
1
1
1
1
1
0.999999
0.999998
1
1
1
1
1
1
0.999998
0.999999
0.999997
0.999997
0.999999
1
1
1
1
0.999999
0.999997
0.999997
0.999997
0.999997
0.999998
1
1
1
1
0.999998
0.999997
0.999997
0.999998
0.999997
0.999997
1
1
1
1
0.999997
0.999997
0.999998
1
0.999997
0.999997
1
1
1
1
0.999997
0.999997
1
1
0.999997
0.999997
1
1
1
1
0.999997
0.999997
1
1
0.999999
0.999997
1
1
1
1
0.999997
0.999999
1
1
1
1
1
1
1
1
1
1
1
1
1
1
1
1
1
1
1
1
1
1
1
1
1
1
1
1
1
1
1
1
1
1
1
1
1
1
1
1
1
1
1
1
1
1
1
1
1
1
1
1
1
1
1
1
1
1
1
1
1
1
1
1
1
1
1
1
1
1
1
1
1
1
1
1
1
1
1
1
1
0.986036
1
1
1
1
1
1
1
1
0.985636
0.872676
1
1
1
1
1
1
1
1
0.87141
0.720596
1
1
1
1
1
1
1
1
0.719106
0.590078
1
1
1
1
1
1
1
1
0.588586
0.483376
1
1
1
1
1
1
1
1
0.481988
0.390768
1
1
1
1
1
1
1
1
0.389534
0.314143
0.999006
1
1
1
1
1
1
0.998894
0.313123
0.256345
0.973209
1
1
1
1
1
1
0.972555
0.255473
0.209939
0.936525
1
1
1
1
1
1
0.935926
0.209147
0.171689
0.907606
1
1
1
1
0.999999
1
0.90702
0.170982
0.140971
0.881878
1
0.999999
1
1
0.999999
1
0.881242
0.140346
0.116689
0.856875
0.999999
0.999999
1
1
0.999999
0.999999
0.856191
0.116133
0.0975772
0.83358
0.99999
0.999999
1
1
0.999999
0.999987
0.832875
0.0970763
0.0825591
0.813361
0.999645
0.999999
1
1
0.999999
0.999637
0.812651
0.0821007
0.070724
0.796468
0.999554
0.999999
1
1
0.999999
0.999552
0.795756
0.0702993
0.0616609
0.782906
0.999602
0.999999
1
1
0.999999
0.999602
0.782202
0.0612665
0.0550233
0.772623
0.999667
0.999999
1
1
0.999999
0.999667
0.77193
0.0546535
0.0504386
0.765463
0.999726
0.999999
1
1
0.999999
0.999726
0.764785
0.0500881
0.0476498
0.761283
0.999786
0.999999
1
1
0.999999
0.999786
0.760622
0.0473144
0.0462669
0.759432
0.999844
0.999999
1
1
0.999999
0.999844
0.758786
0.0459413
0.0458303
0.75908
0.999897
0.999999
1
1
0.999999
0.999897
0.758449
0.0455095
0.0473114
0.763765
0.999937
1
1
1
1
0.999937
0.763195
0.0470109
0.0509047
0.77054
0.999966
1
1
1
1
0.999967
0.769986
0.0506047
0.0548923
0.777646
0.999988
1
1
1
1
0.999988
0.777125
0.0545973
0.0602909
0.786991
0.999997
1
1
1
1
0.999997
0.786517
0.0600062
0.0672493
0.798152
0.999998
1
1
1
1
0.999998
0.797725
0.0669747
0.0755951
0.810398
0.999998
1
1
1
1
0.999998
0.810018
0.0753329
0.0854992
0.823705
0.999998
1
1
1
1
0.999998
0.823377
0.0852529
0.0971325
0.837927
0.999998
1
1
1
1
0.999998
0.83765
0.096905
0.110613
0.852775
0.999998
1
1
1
1
0.999998
0.852546
0.110406
0.126083
0.868004
0.999998
1
1
1
1
0.999998
0.867821
0.1259
0.143699
0.883378
0.999998
1
1
1
1
0.999998
0.883237
0.143541
0.163615
0.898649
0.999998
1
1
1
1
0.999998
0.898543
0.16348
0.185989
0.913571
0.999998
1
1
1
1
0.999998
0.913492
0.185876
0.210991
0.927903
0.999999
1
1
1
1
0.999999
0.927846
0.210896
0.238782
0.941409
0.999999
1
1
1
1
0.999999
0.941367
0.238701
0.269489
0.953861
0.999999
1
1
1
1
0.999999
0.95383
0.269416
0.303173
0.965047
0.999999
1
1
1
1
0.999999
0.965024
0.303104
0.339814
0.974785
0.999999
1
1
1
1
0.999999
0.974767
0.339742
0.379293
0.982942
1
1
1
1
1
1
0.982928
0.379215
0.421415
0.989443
1
1
1
1
1
1
0.989432
0.421329
0.46595
0.994285
1
1
1
1
1
1
0.994277
0.465857
0.512719
0.997539
1
1
1
1
1
1
0.997534
0.512621
0.561706
0.999342
1
1
1
1
1
1
0.99934
0.561607
0.613013
0.999984
1
1
1
1
1
1
0.999984
0.612917
0.666573
0.999986
1
1
1
1
1
1
0.999986
0.666489
0.721759
0.999989
1
1
1
1
1
1
0.999989
0.721692
0.778215
0.999993
1
1
1
1
1
1
0.999993
0.77817
0.83435
0.999997
1
1
1
1
1
1
0.999997
0.834326
0.889504
1
1
1
1
1
1
1
1
0.889496
0.94536
1
1
1
1
1
1
1
1
0.945359
1.3868e-20
8.8732e-21
5.19247e-21
2.75285e-21
1.32254e-21
5.70226e-22
2.11039e-22
6.54765e-23
1.63896e-23
3.55915e-24
6.59267e-25
1.01643e-25
1.30925e-26
1.43862e-27
1.44103e-28
1.80113e-29
4.65364e-30
7.86703e-31
8.69868e-32
9.17434e-33
9.5126e-34
9.51207e-35
9.07788e-36
8.21387e-37
7.00021e-38
5.57911e-39
4.12559e-40
2.80582e-41
1.73762e-42
9.68641e-44
4.79462e-45
2.07274e-46
7.66625e-48
2.36232e-49
5.85285e-51
1.10913e-52
1.49252e-54
1.26526e-56
4.79787e-59
2.08846e-59
8.20277e-20
6.87319e-20
5.42749e-20
3.83792e-20
2.39942e-20
1.30229e-20
5.73359e-21
2.07485e-21
7.38409e-22
2.12663e-22
4.7597e-23
7.82552e-24
8.3936e-25
3.14709e-26
1.43754e-27
8.08351e-28
4.99419e-28
2.43449e-28
3.26323e-29
3.32572e-30
3.65198e-31
4.00431e-32
4.24568e-33
4.31229e-34
4.16894e-35
3.80802e-36
3.25938e-37
2.59026e-38
1.89161e-39
1.25438e-40
7.44838e-42
3.89414e-43
1.75545e-44
6.6421e-46
2.03448e-47
4.79159e-49
8.01487e-51
8.26667e-53
3.71942e-55
2.48816e-59
8.10366e-18
6.53926e-18
4.99082e-18
3.48105e-18
2.19118e-18
1.22351e-18
5.91785e-19
2.36583e-19
6.93241e-20
2.15749e-20
5.39827e-21
1.04787e-21
1.52503e-22
1.47804e-23
8.15788e-25
1.22571e-25
5.19155e-26
2.33927e-26
4.41057e-27
4.93342e-28
5.4006e-29
5.94784e-30
6.38398e-31
6.57931e-32
6.4617e-33
6.0036e-34
5.23296e-35
4.239e-36
3.15749e-37
2.1364e-38
1.29439e-39
6.90225e-41
3.17013e-42
1.21912e-43
3.77339e-45
8.84235e-47
1.40059e-48
1.07869e-50
4.08567e-53
1.93399e-55
4.24719e-16
3.44439e-16
2.64476e-16
1.87179e-16
1.20733e-16
6.99477e-17
3.56691e-17
1.55805e-17
5.46304e-18
1.43802e-18
3.90335e-19
8.52186e-20
1.47188e-20
1.90741e-21
1.69455e-22
1.79729e-23
4.67482e-24
1.40419e-24
3.86648e-25
5.09781e-26
5.658e-27
6.28018e-28
6.84941e-29
7.19548e-30
7.21411e-31
6.85394e-32
6.12056e-33
5.08858e-34
3.89544e-35
2.71037e-36
1.68748e-37
9.22165e-39
4.31406e-40
1.66884e-41
5.05751e-43
1.08222e-44
1.15729e-46
1.09786e-48
1.34387e-50
7.84814e-53
1.68634e-14
1.36991e-14
1.05708e-14
7.57287e-15
4.97902e-15
2.96106e-15
1.57088e-15
7.27796e-16
2.85354e-16
8.50871e-17
2.08341e-17
4.9837e-18
9.76071e-19
1.49635e-19
1.6384e-20
1.70141e-21
3.50882e-22
8.68328e-23
3.00253e-23
4.37165e-24
4.98626e-25
5.65839e-26
6.32457e-27
6.81656e-28
7.01447e-29
6.84523e-30
6.28689e-31
5.38473e-32
4.25412e-33
3.05884e-34
1.96824e-35
1.10854e-36
5.29728e-38
2.04528e-39
5.80495e-41
8.7977e-43
1.13976e-44
2.301e-46
3.11753e-48
1.98257e-50
4.38762e-13
3.7658e-13
3.09108e-13
2.37052e-13
1.67418e-13
1.05933e-13
5.79461e-14
2.78815e-14
1.15514e-14
4.00521e-15
9.83109e-16
2.31603e-16
5.08655e-17
9.0334e-18
1.15767e-18
1.21848e-19
2.14817e-20
5.32098e-21
2.05832e-21
3.28927e-22
3.90881e-23
4.5915e-24
5.31407e-25
5.9277e-26
6.30538e-27
6.35368e-28
6.02125e-29
5.31931e-30
4.33314e-31
3.21021e-32
2.12368e-33
1.22225e-34
5.87309e-36
2.17815e-37
4.86777e-39
7.29947e-41
2.09317e-42
4.72175e-44
6.73657e-46
4.59e-48
4.52589e-12
4.2771e-12
3.86366e-12
3.25812e-12
2.54258e-12
1.82572e-12
1.19747e-12
6.88081e-13
3.41532e-13
1.41199e-13
4.55174e-14
9.51503e-15
2.21865e-15
4.65065e-16
7.27544e-17
8.72414e-18
1.32511e-18
3.00864e-19
1.27333e-19
2.26046e-20
2.84955e-21
3.50586e-22
4.24465e-23
4.94734e-24
5.48609e-25
5.74809e-26
5.64967e-27
5.16272e-28
4.33671e-29
3.29881e-30
2.22468e-31
1.28669e-32
6.00084e-34
1.89961e-35
3.04486e-37
1.13711e-38
3.83775e-40
9.17439e-42
1.4149e-43
1.03651e-45
3.68942e-11
3.10342e-11
2.48175e-11
1.85963e-11
1.30025e-11
8.89675e-12
7.35256e-12
5.73814e-12
4.13837e-12
2.45289e-12
1.07985e-12
3.45697e-13
8.04438e-14
2.02593e-14
3.92979e-15
5.77384e-16
8.67696e-17
1.69168e-17
7.38097e-18
1.43144e-18
1.9559e-19
2.55648e-20
3.26967e-21
4.01685e-22
4.68169e-23
5.13799e-24
5.26956e-25
5.00289e-26
4.34209e-27
3.38564e-28
2.30927e-29
1.31404e-30
5.58634e-32
9.28173e-34
3.99507e-35
1.86173e-36
6.6068e-38
1.7338e-39
2.94322e-41
2.36962e-43
5.73203e-10
4.85036e-10
3.9175e-10
2.98114e-10
2.11568e-10
1.38291e-10
8.11416e-11
5.08254e-11
2.99835e-11
1.70306e-11
8.35191e-12
3.73362e-12
1.60314e-12
6.52547e-13
1.68189e-13
3.09479e-14
5.13199e-15
9.27173e-16
3.89239e-16
8.19948e-17
1.24494e-17
1.75224e-18
2.38658e-19
3.11184e-20
3.83761e-21
4.43902e-22
4.77672e-23
4.73209e-24
4.25422e-25
3.39761e-26
2.32544e-27
1.26543e-28
4.04863e-30
1.07556e-31
5.78787e-33
2.87576e-34
1.10445e-35
3.17736e-37
5.99599e-39
5.44416e-41
8.49769e-09
7.33348e-09
6.07883e-09
4.78771e-09
3.54477e-09
2.43138e-09
1.51216e-09
9.66927e-10
5.94986e-10
3.08267e-10
1.45225e-10
7.12357e-11
3.44051e-11
1.41862e-11
4.39454e-12
1.11227e-12
2.42434e-13
5.46585e-14
1.89473e-14
4.21788e-15
7.13419e-16
1.09217e-16
1.59457e-17
2.21698e-18
2.90524e-19
3.55634e-20
4.02968e-21
4.17732e-22
3.89547e-23
3.18097e-24
2.16188e-25
1.06035e-26
2.3286e-28
1.31833e-29
8.44247e-31
4.29377e-32
1.7725e-33
5.54233e-35
1.1576e-36
1.19734e-38
1.09856e-07
9.65243e-08
8.19575e-08
6.66403e-08
5.13566e-08
3.70416e-08
2.45819e-08
1.65776e-08
1.13414e-08
7.0338e-09
3.81146e-09
1.8929e-09
8.75334e-10
3.33727e-10
1.04246e-10
3.03657e-11
8.06306e-12
2.67826e-12
8.54619e-13
1.96265e-13
3.64283e-14
6.08732e-15
9.56873e-16
1.42191e-16
1.98288e-17
2.57181e-18
3.07141e-19
3.33287e-20
3.22071e-21
2.67682e-22
1.77616e-23
6.71182e-25
2.36918e-26
1.6537e-27
1.10606e-28
5.98419e-30
2.63967e-31
8.89211e-33
2.03102e-34
2.1986e-36
1.25124e-06
1.1171e-06
9.69167e-07
8.10512e-07
6.46834e-07
4.87261e-07
3.42064e-07
2.29706e-07
1.69097e-07
1.18363e-07
7.45629e-08
4.42531e-08
2.44003e-08
1.07927e-08
3.32762e-09
7.33921e-10
1.70932e-10
6.82353e-11
2.53733e-11
6.89363e-12
1.50967e-12
2.83541e-13
4.83802e-14
7.70662e-15
1.14545e-15
1.57538e-16
1.98316e-17
2.25105e-18
2.24925e-19
1.89089e-20
1.18143e-21
3.42855e-23
2.32792e-24
1.94889e-25
1.31631e-26
7.56435e-28
3.55324e-29
1.28092e-30
3.15736e-32
3.27307e-34
1.26955e-05
1.14917e-05
1.01581e-05
8.70166e-06
7.1514e-06
5.58408e-06
4.10115e-06
2.79696e-06
1.99197e-06
1.48228e-06
1.04678e-06
7.11279e-07
4.55931e-07
2.4066e-07
9.60992e-08
3.03939e-08
7.92086e-09
1.62186e-09
2.23058e-10
4.71711e-11
2.002e-11
7.4177e-12
1.69756e-12
2.92293e-13
4.62026e-14
6.76059e-15
9.00654e-16
1.07198e-16
1.10871e-17
9.41877e-19
5.21009e-20
2.45912e-21
2.10626e-22
1.82741e-23
1.30841e-24
7.97481e-26
3.97846e-27
1.52698e-28
4.01928e-30
4.47776e-32
0.000116265
0.000106434
9.55531e-05
8.34696e-05
7.02358e-05
5.64157e-05
4.28987e-05
3.05671e-05
2.02797e-05
1.38202e-05
1.04211e-05
8.03706e-06
5.87534e-06
3.55049e-06
1.69136e-06
6.98211e-07
2.49498e-07
6.3706e-08
4.9925e-09
2.48355e-10
5.68971e-11
1.77707e-11
6.08573e-12
4.33946e-12
1.66226e-12
1.99258e-13
2.54228e-14
3.15604e-15
3.40306e-16
2.91028e-17
1.4635e-18
1.26628e-19
1.33201e-20
1.15429e-21
8.74774e-23
5.64452e-24
2.98255e-25
1.21384e-26
2.85476e-28
4.09756e-30
0.000977298
0.000902458
0.000820097
0.000727212
0.000622777
0.00051091
0.000398463
0.000292832
0.0002013
0.000130252
8.18023e-05
6.05112e-05
5.03846e-05
3.44047e-05
1.87534e-05
9.59806e-06
4.39846e-06
1.4261e-06
2.42222e-07
4.84049e-09
9.71186e-10
1.92249e-10
4.06974e-11
1.18598e-11
4.5953e-12
2.56973e-12
7.81158e-13
8.12979e-14
7.87314e-15
6.30699e-16
4.25457e-17
4.41248e-18
4.81364e-19
4.40691e-20
3.52808e-21
2.40455e-22
1.34187e-23
5.77569e-25
1.12755e-26
2.17078e-28
0.0226593
0.0173949
0.0124137
0.00775182
0.00508941
0.00424167
0.00336988
0.00253128
0.001786
0.00119045
0.000774726
0.000500001
0.000297909
0.000197073
0.000131179
8.17842e-05
4.49715e-05
1.77002e-05
4.66415e-06
1.44691e-07
2.40742e-08
4.17919e-09
8.32107e-10
1.59297e-10
3.16719e-11
9.87102e-12
3.51649e-12
1.11913e-12
1.74164e-13
1.16538e-14
9.76019e-16
1.18648e-16
1.31744e-17
1.26663e-18
1.06458e-19
7.61496e-21
4.46879e-22
1.72881e-23
2.94691e-25
8.82628e-27
0.576681
0.544144
0.50047
0.446688
0.388103
0.321469
0.250372
0.178594
0.111282
0.0552776
0.0185406
0.00445784
0.00265462
0.00142144
0.000712681
0.000406945
0.000274811
0.000129073
4.58702e-05
5.81755e-06
4.37382e-07
7.12509e-08
1.34291e-08
2.69053e-09
5.23838e-10
9.91914e-11
2.6791e-11
5.69686e-12
1.08145e-12
1.48397e-13
1.80689e-14
2.293e-15
2.5835e-16
2.59465e-17
2.27907e-18
1.70742e-19
9.05512e-21
3.01223e-22
5.1111e-24
2.46683e-25
1
1
1
0.996739
0.98145
0.956399
0.919515
0.86588
0.788487
0.677975
0.524312
0.360903
0.205157
0.083311
0.0174287
0.00304928
0.00128676
0.000574131
0.000288765
5.84143e-05
5.99008e-06
1.08599e-06
1.79077e-07
3.30814e-08
6.5493e-09
1.28165e-09
2.4048e-10
5.97119e-11
1.08521e-11
1.69627e-12
2.40334e-13
3.10951e-14
3.65005e-15
3.8216e-16
3.31341e-17
2.18461e-18
1.07476e-19
3.60692e-21
5.99633e-23
4.53009e-24
1
1
1
1
1
1
1
1
1
1
1
0.961154
0.873524
0.719807
0.486257
0.24703
0.0699332
0.0059862
0.00133586
0.000361037
6.16056e-05
1.13784e-05
1.98951e-06
3.34954e-07
5.88423e-08
1.14814e-08
2.18631e-09
4.01099e-10
9.24946e-11
1.59223e-11
2.37163e-12
3.15624e-13
3.57762e-14
3.4413e-15
2.80124e-16
1.84214e-17
9.22481e-19
3.13502e-20
5.36324e-22
5.74571e-23
1
1
1
1
1
1
1
1
1
1
1
1
0.999999
0.999999
0.988768
0.887815
0.659839
0.334886
0.0760529
0.00298883
0.000600259
0.000106117
1.77067e-05
2.96367e-06
5.14166e-07
9.03151e-08
1.58431e-08
2.73166e-09
4.68053e-10
9.60532e-11
1.46294e-11
1.88034e-12
2.10727e-13
2.04633e-14
1.67976e-15
1.1213e-16
5.72191e-18
1.99598e-19
3.6133e-21
5.36655e-22
1
1
1
1
1
1
1
1
1
1
1
0.999999
0.999999
0.999997
0.999985
0.999971
0.999967
0.920946
0.642472
0.241923
0.0191396
0.000830347
0.000105445
1.63794e-05
2.54465e-06
4.16359e-07
6.90059e-08
1.12902e-08
1.77419e-09
3.08968e-10
5.3261e-11
7.0936e-12
7.93664e-13
7.87196e-14
6.63357e-15
4.50041e-16
2.33865e-17
8.31627e-19
1.55621e-20
3.63404e-21
1
1
1
1
1
1
1
1
1
1
0.999999
0.999996
0.999989
0.999981
0.999971
0.999967
0.999946
0.999928
0.998539
0.842962
0.405612
0.0355051
0.000717516
8.26706e-05
7.64957e-06
1.15688e-06
1.82976e-07
2.9249e-08
4.59159e-09
6.761e-10
1.21687e-10
1.64291e-11
2.24386e-12
2.26176e-13
1.6065e-14
1.10781e-15
6.07443e-17
2.18574e-18
4.36022e-20
1.53433e-20
1
1
1
1
1
1
1
1
1
0.999999
0.999992
0.99996
0.999906
0.999866
0.99989
0.999909
0.999926
0.999935
0.999938
0.999938
0.920039
0.440857
0.0183251
0.000755499
3.11211e-05
2.22073e-06
3.21431e-07
4.8849e-08
7.41956e-09
1.09159e-09
1.82753e-10
3.46174e-11
6.73128e-12
7.87992e-13
5.22208e-14
2.48692e-15
1.05005e-16
3.85851e-18
8.86483e-20
4.17066e-20
1
1
1
1
1
1
1
1
1
0.999996
0.999938
0.999686
0.999258
0.99894
0.999047
0.999367
0.999754
0.99992
0.999938
0.999939
0.999939
0.908157
0.237099
0.00463728
0.00016863
3.77055e-06
4.21936e-07
5.93344e-08
9.30493e-09
1.3977e-09
2.20081e-10
6.84528e-11
1.72135e-11
2.15401e-12
1.41194e-13
6.09102e-15
2.18282e-16
5.89935e-18
1.42427e-19
8.3787e-20
1
1
1
1
1
1
1
1
0.999998
0.999967
0.999509
0.997573
0.98859
0.964487
0.97166
0.9916
0.99838
0.999704
0.999933
0.999939
0.999939
0.999939
0.675277
0.0377033
0.000249583
6.38794e-06
7.78383e-07
1.13117e-07
1.61273e-08
2.22596e-09
3.02606e-10
1.13117e-10
2.98622e-11
4.1182e-12
2.97711e-13
1.33304e-14
4.57155e-16
1.13161e-17
2.10039e-19
1.37471e-19
1
1
1
1
1
1
1
0.999999
0.999984
0.999753
0.993277
0.842109
0.555594
0.366798
0.404981
0.60594
0.900972
0.997783
0.999886
0.999921
0.999939
0.999938
0.925291
0.165779
0.000100372
7.10112e-06
1.04533e-06
1.52016e-07
2.09816e-08
2.88223e-09
3.51825e-10
1.44506e-10
4.19817e-11
6.58005e-12
5.27061e-13
2.44265e-14
8.33446e-16
2.24303e-17
3.63307e-19
1.96874e-19
1
1
1
1
1
1
1
0.999994
0.999916
0.993728
0.709885
0.236937
0.0266793
1.14349e-07
2.28586e-07
0.0591628
0.360915
0.829704
0.997075
0.999858
0.999938
0.999933
0.978443
0.356074
1.6329e-06
7.21607e-06
1.06023e-06
1.55594e-07
2.33076e-08
3.26576e-09
3.59693e-10
1.63342e-10
5.29199e-11
9.31929e-12
8.15841e-13
3.94633e-14
1.36122e-15
3.61298e-17
6.06249e-19
2.57051e-19
1
1
1
1
1
1
0.999999
0.999968
0.999421
0.742201
0.161378
1.55684e-05
1.13985e-07
5.47579e-09
1.06448e-09
2.28548e-07
0.0176565
0.289967
0.829153
0.999923
0.999937
0.999866
0.987392
0.445321
1.23623e-06
2.93389e-06
7.37039e-07
1.22962e-07
2.27984e-08
3.29356e-09
3.74161e-10
1.75646e-10
6.20516e-11
1.21175e-11
1.14647e-12
5.77532e-14
1.99614e-15
5.08363e-17
5.54175e-19
3.15995e-19
1
1
1
1
1
1
0.99999
0.999764
0.878871
0.213335
3.44495e-05
5.38148e-07
2.19643e-09
1.10976e-10
3.98442e-10
4.47025e-10
1.10998e-06
0.00885737
0.338406
0.977484
0.999923
0.999679
0.985778
0.426714
7.96501e-07
7.84399e-07
7.81924e-07
9.38654e-08
1.87778e-08
3.04174e-09
4.05899e-10
1.80422e-10
6.80624e-11
1.4742e-11
1.51346e-12
7.83793e-14
2.76491e-15
6.10564e-17
4.23791e-19
3.74931e-19
1
1
1
1
1
0.999998
0.999925
0.974304
0.380777
0.00490667
4.51357e-07
-5.6627e-09
1.33828e-10
4.47031e-11
1.97379e-10
3.98043e-10
3.55237e-08
9.75437e-06
0.0432407
0.698578
0.999811
0.999244
0.976905
0.366381
8.66773e-07
6.74708e-07
8.66576e-07
2.2838e-07
1.34328e-08
2.26322e-09
4.10941e-10
1.81352e-10
7.21625e-11
1.73716e-11
1.95976e-12
1.02103e-13
3.0997e-15
5.11072e-17
4.70352e-19
4.42776e-19
1
1
1
1
1
0.999982
0.999051
0.618543
0.0419715
5.31489e-06
6.49049e-08
-1.90084e-08
-5.92813e-11
6.72465e-11
8.15831e-11
-3.10549e-09
2.16833e-08
1.36789e-06
0.000110187
0.298453
0.998744
0.998654
0.975809
0.353183
3.55117e-06
3.13565e-07
2.78858e-07
2.89097e-07
2.1082e-08
1.72855e-09
3.3416e-10
1.77781e-10
7.89922e-11
2.06263e-11
2.51453e-12
1.24249e-13
2.12536e-15
7.54686e-18
4.18195e-19
5.43302e-19
1
1
1
1
0.999997
0.999877
0.842669
0.137606
2.4041e-05
2.37964e-07
-8.64176e-08
3.56184e-11
4.29299e-11
6.66489e-11
6.71939e-11
1.6333e-10
-9.8948e-08
8.05753e-07
3.92789e-05
0.0744164
0.796598
0.997615
0.990986
0.542943
7.05171e-05
3.35148e-06
-8.84667e-08
9.00394e-09
3.57662e-09
4.17283e-10
1.54367e-10
1.18842e-10
7.83314e-11
3.15586e-11
5.34158e-12
2.84306e-13
8.49343e-16
2.18333e-17
1.1168e-18
7.2421e-19
1
1
1
1
0.999981
0.979271
0.336196
0.000761729
1.1941e-06
1.19185e-08
8.25482e-11
2.26888e-11
4.28608e-11
6.71953e-11
6.74302e-11
8.37665e-11
1.53054e-09
-5.19696e-08
4.98217e-06
0.000193504
0.287535
0.977672
0.977546
0.794508
0.0606094
6.59633e-05
2.55826e-06
1.30344e-08
1.30891e-09
4.4579e-10
9.5416e-11
3.72191e-11
1.9474e-11
7.41043e-12
9.685e-13
1.42967e-14
5.71157e-16
4.29723e-17
1.29159e-18
1.32476e-18
1
1
1
0.999999
0.999879
0.652838
0.0372284
6.48806e-06
7.34699e-08
-1.46278e-09
2.47834e-11
2.33849e-11
4.29096e-11
6.91242e-11
7.65216e-11
7.0565e-11
2.65331e-10
1.17087e-08
2.73054e-07
2.3143e-05
0.0185824
0.463793
0.943425
0.915725
0.369699
0.00105883
0.00017641
6.03255e-06
2.94457e-07
-9.05211e-09
-6.96912e-09
-8.36555e-09
-8.06174e-10
-7.36606e-11
-1.9029e-11
-2.40977e-12
-1.31007e-13
-2.14587e-14
-9.0627e-16
-7.72962e-18
1
1
1
0.999993
0.941861
0.177803
3.0794e-05
4.67054e-07
-5.80273e-08
4.66554e-11
1.9337e-11
2.32775e-11
4.23779e-11
7.05022e-11
9.79294e-11
1.00779e-10
9.11141e-11
1.50602e-10
1.53068e-09
1.15392e-07
4.0136e-06
0.0106682
0.379284
0.786854
0.680083
0.360403
0.0707018
0.00596835
0.000235521
1.27605e-05
1.47879e-07
2.2989e-08
-3.57797e-08
-2.90235e-09
-4.57423e-09
-1.85955e-10
-3.24117e-11
-1.67546e-12
-5.45307e-14
-1.25889e-14
1
1
1
0.999955
0.534123
0.0132465
3.41336e-06
5.14516e-08
3.61904e-10
2.03982e-11
1.80135e-11
2.32384e-11
3.9864e-11
6.97096e-11
1.03499e-10
1.36401e-10
1.38449e-10
1.35974e-10
1.67826e-10
-9.4318e-09
8.54277e-08
4.18e-06
0.000150285
0.167554
0.699902
0.77172
0.701442
0.422876
0.14481
0.0117229
5.63487e-05
6.34607e-06
1.00578e-06
-3.33384e-08
1.33927e-08
1.80641e-09
1.57965e-10
3.31049e-11
-2.83999e-12
-3.97428e-13
1
1
1
0.940286
0.13066
2.01032e-05
3.07253e-07
3.29213e-09
4.78902e-11
1.63779e-11
1.7643e-11
2.25517e-11
3.51016e-11
6.33424e-11
1.02179e-10
1.44221e-10
1.81749e-10
1.88274e-10
1.87484e-10
1.96819e-10
9.2278e-10
4.57656e-09
2.82662e-06
9.84105e-05
0.2097
0.766545
0.880534
0.883551
0.781407
0.455358
0.100612
0.000189845
2.36525e-05
3.79201e-06
6.37634e-07
1.00185e-07
1.44174e-08
-1.40354e-09
-2.57289e-10
3.93347e-12
1
1
1.00001
0.547982
0.0133596
2.86968e-06
-2.28348e-07
3.95438e-10
-2.51858e-12
1.63942e-11
1.75459e-11
2.10501e-11
2.95173e-11
5.02522e-11
8.65379e-11
1.35122e-10
1.87762e-10
2.47476e-10
2.21092e-10
1.9506e-10
-5.20511e-11
8.53341e-10
-3.90352e-08
-2.78527e-07
0.000102326
0.142542
0.777625
0.883538
0.883277
0.883288
0.684018
0.190864
6.13566e-05
1.16974e-05
1.92978e-06
3.14572e-07
1.68453e-08
3.23079e-09
2.72625e-10
6.9907e-11
1
1
0.984412
0.162288
2.46116e-05
3.73862e-07
4.82484e-09
8.86709e-11
1.58801e-11
1.53593e-11
1.73919e-11
1.95968e-11
2.45823e-11
3.67287e-11
6.12296e-11
1.01616e-10
1.56379e-10
2.47494e-10
2.78306e-10
2.01204e-10
1.40179e-10
-3.51646e-10
-2.76269e-08
7.59956e-08
1.75597e-06
0.00014249
0.203626
0.883541
0.883082
0.883165
0.882779
0.649742
0.019583
1.34978e-05
2.70336e-05
3.68396e-06
1.20519e-08
5.3397e-09
5.81892e-10
2.86435e-10
1
1.00001
0.719275
0.0331322
5.47682e-06
-5.95566e-08
9.88121e-10
2.61893e-11
1.48674e-11
1.5041e-11
1.69972e-11
1.85901e-11
2.12366e-11
2.74381e-11
4.08247e-11
6.54748e-11
1.03858e-10
1.74383e-10
2.73388e-10
2.80418e-10
1.39527e-10
2.70259e-11
5.73573e-11
-5.73334e-08
5.30157e-07
1.54464e-05
0.0184351
0.570065
0.883062
0.882779
0.881419
0.69395
0.0504792
1.21097e-05
3.21927e-05
7.17068e-06
1.91215e-07
2.36193e-08
2.17349e-09
5.90424e-10
1
0.999995
0.304568
0.00216671
1.22943e-06
1.25251e-08
-2.8914e-10
1.66765e-11
1.43771e-11
1.48743e-11
1.64474e-11
1.78899e-11
1.95057e-11
2.27796e-11
3.0063e-11
4.4397e-11
6.86332e-11
1.04073e-10
1.9671e-10
2.74029e-10
2.25574e-10
2.6038e-11
-3.4507e-12
-1.60975e-10
-2.3541e-07
2.99671e-06
0.000114158
0.172094
0.83075
0.881507
0.70348
0.21043
0.0231765
9.22089e-06
3.22379e-05
1.11293e-05
7.79237e-08
7.04838e-08
6.85251e-09
8.80013e-10
1
0.961178
0.105012
2.34335e-05
4.18402e-07
3.05594e-09
8.58717e-11
1.39888e-11
1.33163e-11
1.41727e-11
1.56254e-11
1.72327e-11
1.87297e-11
2.12537e-11
2.65761e-11
3.71886e-11
5.50269e-11
8.09559e-11
1.23919e-10
2.15286e-10
2.3683e-10
8.57505e-11
-8.99753e-11
-5.85604e-13
-1.471e-10
-3.89936e-07
-3.07507e-09
0.00155
0.228399
0.439737
0.10927
1.1822e-06
1.81417e-06
5.81258e-06
2.80027e-05
9.46808e-06
7.3256e-08
7.0813e-08
7.8285e-09
9.6614e-10
1
0.667604
0.0327435
8.48701e-06
1.22179e-07
1.21578e-09
3.44994e-11
1.32029e-11
1.30079e-11
1.32764e-11
1.43677e-11
1.62076e-11
1.81501e-11
2.10143e-11
2.63441e-11
3.53499e-11
5.08319e-11
8.53857e-11
1.26833e-10
1.89212e-10
2.07115e-10
1.71983e-10
-3.08247e-11
-1.57143e-10
-1.34261e-10
-4.36139e-11
-7.97035e-11
-1.74617e-11
0
0
2.5376e-09
5.27901e-07
4.34875e-05
0.000149215
5.11561e-06
1.03771e-05
7.19833e-08
5.80284e-08
2.72998e-09
1.04127e-09
1
0.327517
0.00321569
1.87559e-06
2.5353e-08
3.52335e-10
1.76691e-11
1.30346e-11
1.29034e-11
1.28657e-11
1.31854e-11
1.43694e-11
1.66006e-11
2.0952e-11
2.91052e-11
3.74526e-11
9.05847e-11
1.68708e-10
1.72903e-10
2.07065e-10
2.05003e-10
1.93027e-10
1.09292e-10
-7.59799e-11
-2.29109e-10
-1.83435e-10
-6.01201e-10
-2.23028e-10
-3.26418e-11
-1.76964e-12
-5.42985e-17
2.00572e-05
0.000169529
0.000169306
1.73302e-06
4.87679e-06
4.91694e-08
6.61041e-08
1.11999e-09
1.0953e-09
0.997349
0.164982
4.55652e-05
5.26414e-07
7.37847e-09
1.19463e-10
1.59306e-11
1.37973e-11
1.32483e-11
1.27979e-11
1.26729e-11
1.21389e-11
1.19176e-11
1.45354e-11
1.84573e-11
1.13743e-10
6.04246e-10
1.5912e-09
1.31666e-09
1.22786e-09
4.96518e-10
2.11404e-10
1.95879e-10
1.00432e-10
6.91133e-12
-8.61594e-13
-4.37217e-13
1.29569e-12
1.09101e-12
-2.36385e-15
2.11171e-12
1.164e-06
0.000113181
0.000159894
7.91523e-07
2.90684e-08
4.28403e-08
7.60761e-08
1.37476e-09
1.1745e-09
0.875561
0.084357
1.53837e-05
2.19112e-07
3.12211e-09
6.71623e-11
2.26792e-11
2.17226e-11
1.70946e-11
1.39141e-11
1.26996e-11
1.07868e-11
6.18749e-12
1.35609e-12
1.25539e-12
9.88029e-10
7.60573e-09
2.2336e-08
1.99351e-08
2.21558e-08
7.2376e-09
5.75779e-10
2.35938e-10
1.08386e-10
2.30625e-11
8.02853e-11
9.97828e-11
3.80882e-10
8.69219e-11
2.1117e-12
3.17042e-08
6.35509e-08
1.96727e-05
6.68079e-05
1.12536e-07
3.03225e-08
3.16024e-08
7.30462e-08
1.31258e-09
1.2802e-09
0.602539
0.0242135
4.7986e-06
6.22082e-08
8.63246e-10
4.78492e-11
3.64487e-11
3.68547e-11
2.86123e-11
2.11902e-11
1.57191e-11
1.0546e-11
3.9969e-12
-1.84263e-13
-7.75327e-14
1.10029e-08
9.76255e-08
3.06214e-07
2.95153e-07
3.3686e-07
9.14143e-08
7.35906e-09
8.88173e-10
2.11852e-10
2.55248e-10
2.21847e-09
9.18035e-09
1.65696e-08
6.95264e-09
2.1243e-08
5.01054e-08
1.29262e-08
2.71894e-06
9.8249e-06
8.85235e-08
2.85747e-08
2.99827e-08
3.17663e-08
1.40495e-09
1.43341e-09
0.386229
0.0022776
1.1545e-06
1.43575e-08
2.30843e-10
4.83948e-11
4.65233e-11
4.65681e-11
5.21711e-11
4.4604e-11
3.20607e-11
1.56453e-11
4.28437e-12
-6.36286e-12
-1.59109e-12
1.3149e-07
1.17363e-06
1.6536e-05
1.1904e-05
4.72029e-06
2.17452e-06
1.33981e-07
7.28237e-09
1.21135e-09
5.56259e-09
5.71259e-08
2.74277e-07
5.72275e-07
1.94514e-07
1.90832e-08
1.88967e-08
6.20825e-09
1.67485e-06
4.52405e-06
1.88271e-06
1.88661e-08
2.35139e-08
1.85517e-08
1.5399e-09
1.59233e-09
0.263467
4.92353e-05
4.57357e-07
6.06274e-09
1.32163e-10
5.14404e-11
5.05066e-11
4.84505e-11
1.14267e-10
1.18879e-10
1.0571e-10
4.77575e-11
7.16465e-12
-3.2468e-11
-1.49263e-10
8.54436e-07
0.000144072
0.000673951
0.000600556
0.000148095
9.13547e-06
5.42024e-07
3.40527e-08
9.98141e-09
6.56991e-08
4.41122e-05
4.69058e-05
1.13089e-05
4.59453e-08
7.27679e-09
6.24106e-09
6.24143e-09
8.84146e-07
3.29533e-06
1.26152e-05
1.16364e-08
9.35253e-09
3.11032e-08
1.62625e-09
1.71662e-09
0.175008
2.0133e-05
2.54909e-07
3.5286e-09
9.28425e-11
4.62269e-11
5.13249e-11
3.38152e-11
4.55377e-10
5.41152e-10
4.32272e-10
1.38623e-10
1.69726e-11
-7.27782e-11
-2.05202e-09
0.000178494
0.000935003
0.00101002
0.00100862
0.000693262
2.78047e-05
9.83536e-07
1.556e-07
1.32621e-07
5.46228e-05
0.000155754
0.000156041
4.69425e-05
1.12869e-07
9.32729e-09
7.3047e-09
1.17499e-08
1.45778e-07
2.05422e-06
1.34489e-05
2.15971e-07
5.87353e-09
3.29104e-08
1.83193e-09
1.80141e-09
0.0975789
1.00011e-05
1.21347e-07
1.64951e-09
4.54516e-11
2.1345e-11
4.36153e-11
9.49754e-12
2.40533e-09
3.40094e-09
1.44599e-09
2.6814e-10
3.01561e-11
7.01497e-27
0.000142903
0.000970033
0.00101077
0.00101002
0.00101002
0.00090188
5.64689e-05
1.29962e-06
3.43056e-06
7.81167e-05
0.000155652
0.000155881
0.000155938
0.000117314
3.57969e-06
3.55133e-09
9.78923e-09
1.13393e-07
9.31867e-07
1.53854e-06
1.34489e-05
1.2489e-06
4.76031e-09
2.95639e-08
1.84902e-09
1.86822e-09
0.0441556
4.14268e-06
4.61028e-08
5.88448e-10
2.07318e-11
1.28765e-11
2.96906e-11
8.71751e-12
6.32286e-09
8.9076e-09
2.74147e-09
4.574e-10
1.60967e-10
4.12114e-11
0.000647998
0.00100492
0.00100835
0.00101002
0.00100801
0.000349859
5.30559e-07
3.57059e-08
4.58479e-05
0.000155554
0.0001558
0.000155849
0.000155868
0.000144167
1.05592e-05
1.91835e-08
1.42544e-08
5.44105e-07
1.98064e-05
1.80052e-05
1.2117e-05
3.7605e-06
4.17274e-09
1.29265e-08
2.04256e-09
1.92989e-09
0.0166982
1.41569e-06
1.36909e-08
1.6168e-10
1.2468e-11
1.12278e-11
1.92198e-11
8.66476e-12
8.40835e-09
9.99126e-09
3.37104e-09
2.06531e-09
1.20633e-09
3.72669e-10
0.000473285
0.000990716
0.00100552
0.000855025
0.000250779
2.47298e-08
6.69821e-09
4.67512e-09
2.40705e-05
0.000152699
0.000155773
0.000155813
0.000155849
0.000118605
5.40435e-06
2.08368e-08
1.90898e-08
1.61283e-06
5.78427e-05
6.16325e-05
4.2977e-06
4.61656e-06
3.99885e-09
3.19028e-09
2.53377e-09
1.96896e-09
0.00452425
4.17987e-07
3.4821e-09
4.29696e-11
1.12275e-11
1.11544e-11
1.318e-11
8.68082e-12
5.22192e-09
7.82399e-09
5.11365e-09
5.53436e-08
3.66778e-08
2.78601e-09
1.27406e-06
0.000469822
0.000403138
1.12795e-09