/*--------------------------------*- C++ -*----------------------------------*\
  =========                 |
  \\      /  F ield         | OpenFOAM: The Open Source CFD Toolbox
   \\    /   O peration     | Website:  https://openfoam.org
    \\  /    A nd           | Version:  8
     \\/     M anipulation  |
\*---------------------------------------------------------------------------*/
FoamFile
{
    version     2.0;
    format      ascii;
    class       volScalarField;
    location    "0.25";
    object      epsilon;
}
// * * * * * * * * * * * * * * * * * * * * * * * * * * * * * * * * * * * * * //

dimensions      [0 2 -3 0 0 0 0];

internalField   nonuniform List<scalar> 
9150
(
0.0569034
0.0256591
0.0113416
0.00802542
0.00744317
0.00744317
0.00802542
0.0113416
0.0256591
0.0569034
0.0553186
0.0197428
0.00945668
0.00755016
0.00722803
0.00722803
0.00755016
0.00945668
0.0197428
0.0553186
0.0523825
0.0169766
0.00878455
0.0074761
0.00723165
0.00723165
0.0074761
0.00878455
0.0169766
0.0523825
0.049161
0.0156413
0.00863545
0.00755422
0.00733024
0.00733024
0.00755422
0.00863545
0.0156413
0.049161
0.0457539
0.0152067
0.00870591
0.00769543
0.0074744
0.0074744
0.00769543
0.00870591
0.0152067
0.0457539
0.207232
0.0824898
0.0343566
0.0221589
0.0189794
0.0189794
0.0221589
0.0343566
0.0824897
0.207232
0.13279
0.0419714
0.0242853
0.0173173
0.0152925
0.0152925
0.0173173
0.0242853
0.0419714
0.13279
0.0989064
0.0343763
0.0178033
0.0129706
0.01171
0.01171
0.0129706
0.0178033
0.0343763
0.0989064
0.0771399
0.0302062
0.0139539
0.010179
0.0093122
0.0093122
0.010179
0.0139539
0.0302062
0.0771399
0.0650443
0.0278645
0.0119893
0.00865802
0.00800545
0.00800545
0.00865802
0.0119893
0.0278645
0.0650443
1.92696
0.225295
0.0652372
0.0288557
0.0198533
0.0198535
0.0288559
0.0652321
0.225256
1.92611
0.416062
0.161294
0.0611833
0.028925
0.0202244
0.0202245
0.0289254
0.0611842
0.161298
0.416057
0.360647
0.148632
0.0604697
0.0290311
0.0205967
0.0205967
0.0290313
0.0604701
0.148634
0.360646
0.311672
0.135109
0.0596519
0.0290155
0.0210065
0.0210065
0.0290155
0.059652
0.135109
0.311671
0.255924
0.129707
0.0560754
0.0279442
0.0210864
0.0210864
0.0279442
0.0560754
0.129707
0.255924
1.23963
1.25898
1.27375
1.28383
1.28903
1.28902
1.2838
1.2737
1.2589
1.23953
0.708348
0.721098
0.73085
0.737487
0.740874
0.740868
0.737473
0.730826
0.721062
0.708298
0.844818
0.859034
0.869849
0.877164
0.880871
0.880869
0.877161
0.869845
0.859026
0.8448
1.16403
1.18102
1.1939
1.20257
1.20695
1.20697
1.20261
1.19397
1.18112
1.16413
1.63925
1.65891
1.67375
1.68373
1.68877
1.68882
1.68387
1.67399
1.65923
1.6396
2.26922
2.29023
2.30605
2.31665
2.32202
2.32213
2.31696
2.30656
2.29093
2.27
3.03605
3.05564
3.07034
3.08016
3.08515
3.08533
3.08069
3.07123
3.05687
3.03745
3.89544
3.90922
3.91949
3.9263
3.92981
3.93008
3.92711
3.92084
3.91109
3.89758
4.77625
4.77828
4.77963
4.78042
4.78093
4.7813
4.78151
4.78144
4.78081
4.77917
5.58626
5.56926
5.5562
5.54732
5.54299
5.54343
5.54864
5.5584
5.57233
5.58987
6.22532
6.18117
6.14766
6.12509
6.1139
6.11439
6.12656
6.1501
6.18458
6.22942
6.60838
6.52924
6.46955
6.42955
6.40963
6.41014
6.43106
6.47208
6.53278
6.61273
6.69653
6.57739
6.48818
6.42867
6.39905
6.39957
6.43024
6.49078
6.58104
6.70109
6.53887
6.3851
6.27093
6.19533
6.15781
6.15831
6.19684
6.27346
6.38864
6.5434
6.25155
6.08439
5.96148
5.88076
5.8409
5.84135
5.88211
5.96375
6.08758
6.25574
5.94139
5.77724
5.6569
5.57806
5.53919
5.53958
5.57923
5.65887
5.78003
5.9451
5.66104
5.50167
5.38495
5.30852
5.27082
5.27116
5.30952
5.38665
5.5041
5.66428
5.4145
5.25978
5.14659
5.0725
5.03597
5.03625
5.07335
5.14802
5.26184
5.41727
5.19458
5.04445
4.93473
4.86296
4.82757
4.82779
4.86365
4.93589
5.04613
5.19686
4.99766
4.85207
4.74579
4.67631
4.64204
4.64221
4.67683
4.74668
4.85337
4.99943
4.82267
4.68151
4.57855
4.51129
4.4781
4.47822
4.51165
4.57917
4.68241
4.82392
4.66902
4.53204
4.43223
4.36707
4.3349
4.33497
4.36727
4.43258
4.53256
4.66975
4.53622
4.4031
4.3062
4.24296
4.21174
4.21176
4.24301
4.30629
4.40325
4.53646
4.42378
4.29412
4.19983
4.13833
4.10796
4.10793
4.13824
4.19968
4.29392
4.42355
4.33096
4.20431
4.11231
4.05234
4.02272
4.02264
4.05212
4.11194
4.20379
4.33029
4.25662
4.13257
4.04255
3.98389
3.95491
3.9548
3.98355
4.04197
4.13176
4.25556
4.19926
4.07743
3.9891
3.93158
3.90316
3.90301
3.93114
3.98835
4.07636
4.19784
4.15702
4.03714
3.95029
3.89375
3.8658
3.86562
3.89321
3.94938
4.03584
4.15529
4.12786
4.00973
3.92419
3.86852
3.841
3.84079
3.86791
3.92315
4.00823
4.12587
4.10973
3.99318
3.90882
3.85391
3.82676
3.82653
3.85323
3.90766
3.99152
4.10751
4.10062
3.98547
3.90213
3.8479
3.82106
3.82081
3.84715
3.90088
3.98366
4.0982
4.09863
3.98466
3.90216
3.84847
3.82189
3.82162
3.84767
3.90082
3.98272
4.09605
4.102
3.98888
3.907
3.8537
3.8273
3.82703
3.85286
3.90558
3.98684
4.09927
4.10902
3.9964
3.91487
3.8618
3.83551
3.83522
3.86092
3.91339
3.99426
4.10616
4.11812
4.00562
3.92418
3.87114
3.84487
3.84457
3.87024
3.92264
4.0034
4.11515
4.12784
4.0151
3.93347
3.88031
3.85397
3.85366
3.87938
3.93188
4.01281
4.12477
4.13686
4.02356
3.94152
3.88808
3.86159
3.86127
3.88712
3.93988
4.02121
4.13371
4.14404
4.02992
3.94727
3.89344
3.86674
3.86642
3.89245
3.94559
4.02751
4.1408
4.14839
4.03329
3.9499
3.89558
3.86865
3.86832
3.89457
3.94819
4.03082
4.14508
4.14914
4.03296
3.94878
3.89394
3.86674
3.8664
3.8929
3.94703
4.03044
4.14576
4.14575
4.02849
3.94349
3.88812
3.86066
3.86031
3.88707
3.94171
4.02592
4.14231
4.13786
4.01958
3.93381
3.87793
3.85022
3.84987
3.87686
3.932
4.01697
4.13436
4.12545
4.00623
3.91973
3.86338
3.83544
3.83508
3.8623
3.9179
4.00359
4.12191
4.10874
3.98858
3.90143
3.84465
3.8165
3.81614
3.84356
3.89958
3.98592
4.10517
4.08766
3.96676
3.87911
3.82201
3.7937
3.79334
3.82092
3.87726
3.96408
4.08407
4.06262
3.94123
3.85324
3.79588
3.76745
3.76709
3.79479
3.85138
3.93854
4.05902
4.03491
3.91284
3.82447
3.76686
3.73831
3.73795
3.76577
3.82261
3.91016
4.03131
4.00506
3.88205
3.7933
3.73551
3.70688
3.70652
3.73442
3.79145
3.87937
4.00147
3.97259
3.84897
3.76015
3.70242
3.67383
3.67347
3.70133
3.75831
3.8463
3.969
3.93725
3.81409
3.72575
3.66837
3.63996
3.63961
3.6673
3.72392
3.81144
3.93368
3.9007
3.77872
3.69124
3.63441
3.60627
3.60592
3.63336
3.68944
3.77611
3.89719
3.86478
3.74437
3.65787
3.60165
3.57379
3.57345
3.60062
3.65611
3.74181
3.86134
3.83164
3.71256
3.62684
3.57109
3.54343
3.5431
3.57008
3.62512
3.71008
3.82831
3.80337
3.68464
3.5991
3.54346
3.51585
3.51553
3.54247
3.59742
3.68222
3.80014
3.78049
3.661
3.57498
3.51906
3.49133
3.49101
3.51809
3.57332
3.65863
3.77733
3.7615
3.64103
3.55421
3.49777
3.46978
3.46946
3.4968
3.55258
3.63868
3.75838
3.7455
3.62413
3.53639
3.47924
3.45088
3.45056
3.47828
3.53477
3.62181
3.74243
3.73261
3.61011
3.52118
3.46309
3.43422
3.4339
3.46213
3.51956
3.6078
3.72956
3.72288
3.59876
3.50819
3.44882
3.41927
3.41895
3.44786
3.50657
3.59646
3.71986
3.71628
3.58977
3.49693
3.43584
3.40538
3.40506
3.43488
3.49531
3.58749
3.7133
3.71258
3.58267
3.48676
3.42339
3.39173
3.39141
3.42242
3.48514
3.58038
3.70962
3.7113
3.57676
3.47685
3.41057
3.37739
3.37706
3.40959
3.47522
3.57448
3.70836
3.71177
3.57122
3.46624
3.39634
3.36126
3.36093
3.39534
3.4646
3.56893
3.70886
3.71319
3.56505
3.45384
3.37953
3.34218
3.34184
3.37852
3.45217
3.56276
3.71028
3.71443
3.55704
3.43837
3.35886
3.31884
3.31849
3.35783
3.43668
3.55472
3.71153
3.71425
3.54588
3.4185
3.333
3.28992
3.28956
3.33195
3.41678
3.54353
3.71134
3.71129
3.53019
3.39289
3.30061
3.25409
3.25373
3.29953
3.39113
3.52781
3.70836
3.70405
3.50853
3.36014
3.26037
3.21007
3.2097
3.25926
3.35834
3.50611
3.7011
3.69096
3.47944
3.31891
3.21102
3.15664
3.15626
3.20988
3.31707
3.47698
3.68799
3.67035
3.44144
3.26789
3.15136
3.09268
3.09229
3.15019
3.26599
3.43892
3.66735
3.64048
3.39307
3.20584
3.08036
3.01724
3.01683
3.07915
3.20389
3.39049
3.63743
3.59955
3.3329
3.13168
2.99712
2.92955
2.92912
2.99587
3.12968
3.33027
3.59647
3.5458
3.25966
3.04449
2.90103
2.82911
2.82867
2.89973
3.04243
3.25696
3.54267
3.4775
3.1722
2.94361
2.79172
2.71574
2.71529
2.79039
2.94148
3.16942
3.47432
3.39303
3.06962
2.82869
2.66923
2.58967
2.5892
2.66786
2.8265
3.06677
3.38977
3.29099
2.95135
2.69978
2.53401
2.45153
2.45106
2.5326
2.69753
2.94843
3.28767
3.17036
2.81727
2.55739
2.38698
2.30247
2.30198
2.38555
2.55509
2.81427
3.16695
3.03059
2.66775
2.40255
2.2296
2.14411
2.14362
2.22814
2.40021
2.6647
3.0271
2.87178
2.50381
2.23689
2.06382
1.97859
1.9781
2.06237
2.23454
2.50072
2.86822
2.69483
2.32716
2.06259
1.89212
1.80849
1.80801
1.89069
2.06027
2.32407
2.69123
2.50159
2.14025
1.88243
1.71738
1.63674
1.63628
1.71599
1.88016
2.1372
2.49799
2.29489
1.94622
1.69962
1.54278
1.46647
1.46603
1.54147
1.69746
1.94328
2.29136
2.07861
1.74887
1.5177
1.37163
1.30084
1.30044
1.37042
1.5157
1.74611
2.07523
1.85752
1.55244
1.34037
1.20716
1.14285
1.14249
1.20608
1.33855
1.54991
1.85437
1.63705
1.36133
1.17114
1.05232
0.995107
0.994797
1.05138
1.16955
1.35908
1.63421
1.42288
1.1798
1.0132
0.909508
0.859684
0.859424
0.908715
1.01185
1.17787
1.42041
1.22046
1.0116
0.869066
0.780499
0.737966
0.737753
0.779852
0.867959
1.01001
1.21839
1.03451
0.859655
0.740453
0.666287
0.630611
0.630443
0.665775
0.739573
0.858385
1.03284
0.868521
0.725819
0.628187
0.567099
0.537574
0.537445
0.566704
0.627509
0.724838
0.867231
0.724551
0.61083
0.532233
0.482462
0.45818
0.458083
0.482165
0.531723
0.610095
0.723586
0.603153
0.514404
0.451834
0.411336
0.39124
0.391166
0.411113
0.451456
0.513863
0.602451
0.503626
0.435494
0.385732
0.352258
0.335139
0.335083
0.352089
0.385448
0.435096
0.503119
0.424443
0.372655
0.332422
0.303481
0.287878
0.287833
0.303345
0.332202
0.372354
0.424069
0.363805
0.324476
0.290446
0.26306
0.246981
0.24694
0.262943
0.290262
0.324233
0.36351
0.320224
0.29006
0.258674
0.228876
0.209248
0.209208
0.228766
0.258509
0.289846
0.319968
0.293194
0.269589
0.236523
0.198549
0.170487
0.170443
0.198438
0.236367
0.269389
0.29295
0.28431
0.265114
0.223568
0.169018
0.126128
0.126077
0.168903
0.223419
0.264924
0.284065
0.300626
0.281662
0.216433
0.134999
0.0757929
0.0757413
0.13489
0.216298
0.281488
0.300382
0.369741
0.326303
0.198744
0.0886486
0.0341788
0.0341523
0.0885711
0.198632
0.326155
0.369505
0.625701
0.373548
0.135998
0.0413757
0.0203902
0.0203888
0.0413566
0.135935
0.373427
0.625406
1.21386
1.18219
1.14553
1.10432
1.05916
1.01077
0.959895
0.907347
0.853927
0.800417
0.747556
0.696012
0.646366
0.599086
0.554527
0.513083
0.476538
0.444518
0.416366
0.391491
0.369343
0.349406
0.331199
0.314286
0.298275
0.282823
0.267628
0.252428
0.236992
0.221117
0.204622
0.187345
0.169141
0.149873
0.129408
0.107594
0.084229
0.0590661
0.0321994
0.0190376
0.691593
0.670582
0.646326
0.619206
0.589701
0.558361
0.525771
0.492535
0.459249
0.426486
0.394776
0.364592
0.336338
0.310343
0.286873
0.266213
0.248986
0.234954
0.223686
0.214774
0.207813
0.202395
0.198107
0.19454
0.191299
0.188011
0.184335
0.179966
0.174641
0.168136
0.16027
0.150901
0.139935
0.127324
0.113092
0.0973618
0.0804679
0.0635104
0.0510348
0.088766
0.826091
0.802253
0.774506
0.74322
0.708882
0.672057
0.633364
0.593454
0.552986
0.512609
0.472943
0.43456
0.397975
0.363636
0.331924
0.303176
0.277707
0.255917
0.237689
0.222709
0.210653
0.201179
0.193915
0.188452
0.184342
0.181105
0.178241
0.175252
0.171664
0.167059
0.161094
0.153526
0.144224
0.133191
0.120589
0.106788
0.0925305
0.0798214
0.0769831
0.168684
1.14165
1.11275
1.0788
1.04011
0.997141
0.950479
0.90078
0.848768
0.795202
0.740862
0.686527
0.632953
0.58086
0.530916
0.483733
0.43987
0.399854
0.364247
0.333373
0.30688
0.284412
0.265605
0.250076
0.237413
0.227163
0.218826
0.211849
0.205634
0.199559
0.193012
0.185445
0.176434
0.165739
0.153362
0.139592
0.125049
0.110862
0.0999254
0.104589
0.250037
1.61347
1.57955
1.53926
1.49276
1.44043
1.38274
1.32035
1.25396
1.18439
1.11253
1.03928
0.965603
0.892462
0.820812
0.751588
0.685704
0.624067
0.567629
0.51729
0.472699
0.43349
0.399276
0.369647
0.344164
0.32235
0.303679
0.287578
0.273413
0.260501
0.248126
0.235581
0.222226
0.207581
0.191432
0.173945
0.15579
0.138445
0.125934
0.135389
0.337246
2.24192
2.20502
2.16057
2.10848
2.04885
1.98199
1.90832
1.82846
1.74311
1.65312
1.55947
1.46321
1.36551
1.26761
1.1708
1.07643
0.985949
0.900887
0.823015
0.752109
0.687912
0.63012
0.578386
0.53231
0.491438
0.455256
0.423188
0.394596
0.368777
0.34498
0.322418
0.300317
0.277972
0.254854
0.230747
0.205965
0.18193
0.16371
0.174309
0.443455
3.01105
2.9757
2.93222
2.88008
2.819
2.74886
2.66972
2.5818
2.48551
2.38145
2.27041
2.15339
2.03159
1.90642
1.77949
1.65259
1.52774
1.40725
1.29405
1.18822
1.08982
0.998812
0.915088
0.838455
0.768632
0.70524
0.64781
0.595775
0.54848
0.505189
0.4651
0.427371
0.391161
0.355697
0.320393
0.285083
0.250813
0.223366
0.232604
0.599496
3.87864
3.85219
3.81816
3.77549
3.72329
3.66081
3.58743
3.50273
3.40647
3.29867
3.17962
3.04993
2.91057
2.76285
2.60852
2.44971
2.28901
2.12953
1.97555
1.82775
1.68668
1.55284
1.42658
1.30818
1.19775
1.09528
1.0006
0.9134
0.83322
0.759457
0.691385
0.628177
0.56894
0.512779
0.458911
0.406939
0.35791
0.319239
0.331826
0.86881
4.7756
4.76826
4.75572
4.73627
4.70823
4.66996
4.61984
4.55643
4.47842
4.38482
4.27496
4.14861
4.00602
3.84806
3.67625
3.49284
3.30088
3.10434
2.90832
2.71493
2.52539
2.34091
2.1626
1.99144
1.82825
1.67369
1.52818
1.39193
1.26492
1.14688
1.03735
0.935668
0.841036
0.752616
0.669713
0.592216
0.522229
0.471611
0.50422
1.34476
5.61145
5.63605
5.66041
5.68214
5.69861
5.70699
5.70435
5.68772
5.65427
5.60142
5.52693
5.42907
5.30677
5.15978
4.98892
4.79614
4.58468
4.35915
4.12579
3.88821
3.64854
3.4089
3.17142
2.93812
2.71086
2.49129
2.28078
2.0804
1.89086
1.71256
1.54554
1.38958
1.24422
1.10901
0.983816
0.869601
0.771163
0.709055
0.787921
2.11168
6.28719
6.35855
6.43802
6.52265
6.60879
6.69219
6.76812
6.83163
6.87777
6.9017
6.89886
6.86509
6.79691
6.69203
6.54971
6.37107
6.15916
5.91913
5.65846
5.38289
5.0955
4.79959
4.49855
4.19578
3.89453
3.59782
3.30833
3.02837
2.75975
2.50387
2.26162
2.03356
1.81997
1.62127
1.43854
1.27491
1.13987
1.06772
1.22384
3.2236
6.71767
6.85113
7.00538
7.17726
7.36222
7.5544
7.74685
7.93212
8.10251
8.25027
8.36754
8.44625
8.47863
8.45839
8.3819
8.24864
8.06112
7.82498
7.54936
7.24374
6.91234
6.5599
6.19149
5.81223
5.42719
5.04114
4.65847
4.28304
3.91818
3.56658
3.23039
2.91132
2.61089
2.33094
2.0746
1.8484
1.66875
1.58924
1.85705
4.72436
6.86078
7.06814
7.31384
7.59574
7.90944
8.24789
8.60173
8.96026
9.31228
9.64646
9.95061
10.2104
10.4097
10.5339
10.5735
10.5253
10.3904
10.175
9.89116
9.55676
9.17792
8.76168
8.31554
7.84706
7.36357
6.872
6.37873
5.88948
5.40927
4.94241
4.49254
4.06289
3.65664
3.27766
2.93196
2.6307
2.39963
2.31779
2.73667
6.66108
6.7519
7.02742
7.36095
7.75415
8.20712
8.71681
9.27501
9.86927
10.4835
11.0998
11.6983
12.2533
12.7315
13.1004
13.3387
13.4365
13.3914
13.2082
12.9039
12.5175
12.0615
11.5485
10.9908
10.3999
9.78613
9.15886
8.52652
7.89659
7.27568
6.66959
6.08346
5.52209
4.99051
4.49503
4.04517
3.65794
3.37095
3.29551
3.9112
9.07712
6.48474
6.79195
7.17087
7.62921
8.17498
8.81572
9.55756
10.4029
11.3468
12.3716
13.4395
14.5005
15.4955
16.343
16.9867
17.3943
17.5437
17.4301
17.0815
16.5622
15.9365
15.2309
14.4691
13.6705
12.8505
12.0213
11.1928
10.3733
9.56994
8.78891
8.03595
7.31678
6.63783
6.00765
5.43949
4.95712
4.61254
4.55646
5.42052
11.9969
6.17052
6.47417
6.85063
7.30974
7.86332
8.52608
9.31656
10.2565
11.3703
12.6819
14.2026
15.9056
17.7308
19.5713
21.2308
22.525
23.3352
23.581
23.2834
22.5355
21.5642
20.4566
19.2782
18.0744
16.8743
15.6957
14.5493
13.4415
12.3765
11.3578
10.3886
9.47319
8.61737
7.83053
7.12886
6.54308
6.1416
6.12124
7.28756
15.4122
5.88339
6.17929
6.54722
6.99727
7.54201
8.19689
8.98077
9.91646
11.0315
12.3592
13.9398
15.8184
18.0417
20.6636
23.6635
26.7802
29.5713
31.4607
32.1542
31.6494
30.2332
28.4204
26.4376
24.4309
22.4865
20.6474
18.9289
17.3315
15.8493
14.4747
13.2012
12.0249
10.9462
9.97133
9.11673
8.41867
7.96267
7.99656
9.51538
19.273
5.63023
5.91849
6.27784
6.71865
7.25385
7.89938
8.67474
9.60363
10.7148
12.0429
13.6297
15.5251
17.7901
20.4998
23.7471
27.6282
32.1827
37.118
41.3203
43.416
43.0048
40.6694
37.516
34.1124
30.7877
27.7068
24.9292
22.4558
20.261
18.311
16.5739
15.0244
13.646
12.4338
11.3986
10.5788
10.0758
10.1888
12.0992
23.4578
5.40371
5.68429
6.03494
6.46626
6.99154
7.62721
8.39343
9.31485
10.4214
11.7496
13.3434
15.2563
17.5531
20.3124
23.6292
27.6186
32.4251
38.2406
45.1618
52.4347
57.2576
57.3873
53.8453
48.748
43.2884
38.1029
33.4693
29.4598
26.0404
23.1354
20.6626
18.5508
16.7467
15.2194
13.9656
13.0257
12.5294
12.8555
15.3388
27.6255
5.20017
5.47304
5.81485
6.23648
6.75152
7.3769
8.13346
9.04677
10.1481
11.4753
13.0747
15.0024
17.3264
20.1295
23.5127
27.5996
32.5423
38.5278
45.7848
54.6235
64.8388
73.1479
74.1535
69.0403
61.3567
53.2207
45.6918
39.1842
33.758
29.3077
25.6757
22.7096
20.288
18.3318
16.8169
15.8102
15.5986
17.2817
27.0488
126.455
5.0187
5.28398
5.61707
6.02905
6.53383
7.1488
7.89545
8.80021
9.89548
11.2208
12.8241
14.7641
17.1116
19.9531
23.3937
27.5616
32.6138
38.7423
46.1823
55.2202
66.1922
79.468
91.572
92.759
85.0909
73.9669
62.59
52.4486
44.0021
37.2101
31.8385
27.6173
24.3151
21.77
19.9122
18.8138
18.866
21.5493
34.3206
134.883
4.85886
5.11693
5.44171
5.84449
6.3395
6.94456
7.6818
8.57851
9.66817
10.9916
12.5987
14.5499
16.9186
19.7941
23.2849
27.5225
32.6673
38.9145
46.5026
55.7246
66.9436
80.6298
97.3689
112.287
111.43
99.5774
84.2193
69.5454
57.0768
47.0789
39.3053
33.3586
28.8606
25.5268
23.205
21.935
22.1496
25.538
40.321
146.682
4.72034
4.97177
5.28894
5.68335
6.16956
6.76589
7.49513
8.38545
9.47142
10.7953
12.4082
14.3725
16.7636
19.6728
23.2113
27.5133
32.741
39.0902
46.7981
56.1535
67.5097
81.3007
98.0589
118.139
132.933
126.472
108.859
89.6953
72.6814
58.8359
48.083
39.9585
33.9395
29.596
26.6627
25.1132
25.3791
29.2846
45.7269
159.855
4.60276
4.84829
5.15877
5.54594
6.02477
6.61416
7.33768
8.22453
9.31056
10.6393
12.2636
14.2469
16.6658
19.6134
23.2033
27.5728
32.8854
39.336
47.1585
56.6355
68.1104
82.0049
98.8404
119.259
142.006
148.131
132.497
110.762
89.8263
72.1092
58.0919
47.4506
39.611
34.025
30.3087
28.35
28.5547
32.853
50.8106
173.481
4.50543
4.74588
5.0507
5.43195
5.9051
6.48976
7.21054
8.09801
9.18967
10.5309
12.176
14.1893
16.6472
19.6429
23.2929
27.7402
33.1509
39.7199
47.6784
57.3034
68.9294
82.9641
99.909
120.38
145.023
161.525
151.44
130.338
107.341
86.5261
69.3696
56.0309
46.0959
39.0026
34.2843
31.7448
31.7517
36.3257
55.6929
187.064
4.42722
4.66339
4.96354
5.34013
5.80921
6.39133
7.11247
8.0051
9.10915
10.4727
12.1523
14.2129
16.729
19.7894
23.5088
28.0448
33.5715
40.2866
48.421
58.2496
70.1041
84.3915
101.621
122.444
147.643
168.498
164.66
147.085
124.446
101.94
82.182
66.1426
53.8544
44.9266
38.9019
35.5304
35.1413
39.8328
60.4715
200.445
4.36652
4.59904
4.8953
5.26812
5.73424
6.31528
7.03889
7.94004
9.06217
10.4581
12.1904
14.3278
16.9379
20.0901
23.8603
28.4803
34.1407
41.034
49.3913
59.4854
71.6432
86.2648
103.848
125.023
150.541
173.55
174.649
161.478
140.994
118.349
96.8672
78.3618
63.536
52.3991
44.6596
40.0917
39.0085
43.5798
65.2948
213.853
4.32135
4.55064
4.84339
5.21279
5.6762
6.25629
6.98246
7.89256
9.03497
10.4718
12.2802
14.5398
17.2269
20.3295
24.2188
28.9763
34.7867
41.8862
50.5016
60.9048
73.4156
88.4172
106.376
127.863
153.528
177.594
182.79
174.41
157.366
136.054
113.922
93.4166
75.9856
62.2446
52.2709
45.9973
43.7822
47.88
70.413
227.97
4.28954
4.5158
4.80515
5.17101
5.63121
6.20923
6.93589
7.85157
9.01012
10.4849
12.3718
14.6193
17.177
20.309
24.3144
29.3476
35.4042
42.7221
51.619
62.3729
75.2971
90.7573
109.188
131.104
157.057
182.09
191.263
188.038
175.361
156.536
134.714
112.683
92.5758
75.7428
62.8358
54.1277
50.1307
53.2293
76.2504
244.051
4.26898
4.49235
4.77831
5.14039
5.59669
6.17116
6.89544
7.81158
8.97547
10.4578
12.3136
14.4707
16.9835
20.1514
24.2353
29.414
35.7887
43.4064
52.585
63.7239
77.1347
93.1784
112.277
134.918
161.59
188.299
202.492
205.37
198.135
182.852
162.148
138.909
115.859
95.1655
78.2642
65.9971
59.2003
60.4843
83.5552
264.202
4.25769
4.4784
4.76114
5.1195
5.57168
6.14199
6.86313
7.7796
8.95023
10.4431
12.2454
14.2712
16.7401
19.9027
24.0017
29.2315
35.7527
43.7093
53.2246
64.7479
78.7154
95.4921
115.528
139.337
167.417
197.062
218.336
229.335
229.561
219.578
201.157
177.045
150.507
124.676
102.054
84.3829
73.0993
71.2315
93.7146
292.022
4.25388
4.47234
4.75231
5.10738
5.55582
6.12234
6.84108
7.75908
8.93565
10.3847
12.033
13.9733
16.3783
19.4808
23.518
28.7216
35.3016
43.4686
53.3064
65.2083
79.7449
97.3626
118.589
144.049
174.407
208.624
239.314
261.735
273.508
272.678
259.193
235.181
204.488
171.562
140.454
114.334
95.7204
88.4475
109.357
333.879
4.25586
4.47263
4.75049
5.10299
5.54844
6.11209
6.82919
7.74639
8.89497
10.2356
11.7548
13.5692
15.8562
18.8254
22.7173
27.7879
34.2918
42.4877
52.6155
64.8529
79.8482
98.284
120.782
148.126
181.241
221.041
265.252
305.433
335.515
350.604
347.091
325.425
290.06
247.335
203.623
164.314
133.781
117.414
135.278
401
4.26201
4.47774
4.75426
5.10501
5.54846
6.11055
6.82637
7.73651
8.82226
10.0093
11.3803
13.0485
15.172
17.9423
21.6002
26.4211
32.7019
40.7557
50.9026
63.3359
78.6232
97.6794
121.317
150.561
186.682
231.199
285.821
352.281
420.353
466.423
480.217
464.004
423.407
367.446
305.599
246.451
197.311
166.354
179.295
511.697
4.27078
4.48614
4.76205
5.11182
5.55427
6.11588
6.83031
7.69543
8.64939
9.70928
10.939
12.4399
14.3551
16.8649
20.1971
24.6322
30.4958
38.1533
48.009
60.4744
75.9072
95.1954
119.509
150.106
188.575
236.999
298.231
376.504
477.637
601.044
688.039
688.755
636.514
556.761
465.64
375.933
298.554
245.541
251.726
690.794
4.28067
4.49629
4.77225
5.12188
5.5639
6.12274
6.82025
7.61668
8.4511
9.37599
10.4547
11.7753
13.4592
15.671
18.6173
22.5698
27.8635
34.9013
44.1547
56.1619
71.5083
90.8479
115.344
146.545
186.465
237.706
303.957
390.417
504.394
656.172
862.164
1037.26
1004.57
880.477
727.05
578.243
452.456
365.024
362.08
961.29
4.29031
4.50673
4.78343
5.13409
5.57782
6.137
6.79485
7.48424
8.21326
9.02001
9.95821
11.103
12.5568
14.4591
16.9987
20.4273
25.0688
31.3413
39.759
50.9442
65.6301
84.6605
109.094
140.384
180.78
233.6
303.028
395.169
518.813
686.796
918.327
1242.69
1534.97
1428.88
1167.72
898.33
679.476
532.846
514.365
1329.94
4.29843
4.51603
4.79412
5.14633
5.59005
6.13716
6.74257
7.34477
7.97537
8.67084
9.47835
10.4605
11.7017
13.318
15.4706
18.3829
22.3636
27.8362
35.3339
45.5458
59.2984
77.5496
101.415
132.427
172.841
226.075
296.953
391.98
520.729
697.355
943.187
1291.26
1794.5
2183.03
1832.93
1358.96
982.017
742.06
698.567
1771.12
4.30398
4.52312
4.80347
5.15943
5.60736
6.12709
6.65471
7.18304
7.73262
8.33482
9.03046
9.87172
10.928
12.2951
14.1081
16.5603
19.9285
24.6069
31.1473
40.2996
52.9418
70.1426
93.1509
123.57
163.655
216.648
287.671
383.545
513.664
691.748
937.593
1279.85
1759.92
2420.47
2530.83
1879.92
1313.95
959.518
884.636
2201.74
4.30601
4.52693
4.80943
5.16686
5.60922
6.09705
6.56269
7.022
7.49863
8.02086
8.62258
9.34617
10.2479
11.4057
12.931
14.9864
17.8117
21.7609
27.3504
35.3151
46.667
62.5584
84.3946
113.913
153.43
206.002
276.656
372.708
503.63
683.139
931.088
1276.56
1763.13
2453.7
2813.79
2236.09
1596.89
1159.56
1053.58
2543.71
4.30396
4.5272
4.8134
5.17524
5.60657
6.04664
6.45742
6.8598
7.27663
7.73295
8.2572
8.884
9.65861
10.6436
11.9286
13.6462
15.9952
19.2771
23.9468
30.6768
40.4289
54.5157
74.6193
102.583
140.981
193.1
263.245
359.021
490.816
672.465
924.197
1275.05
1766.85
2451.5
2865.13
2449.35
1843.27
1361.07
1216.49
2778.43
4.29734
4.5228
4.81263
5.17777
5.58711
5.97493
6.33872
6.69513
7.0641
7.46749
7.92916
8.4773
9.14807
9.99076
11.0757
12.5067
14.4408
17.119
20.9137
26.3951
34.4171
46.2131
63.4942
88.5821
124.6
174.929
244.317
339.588
471.974
656.821
915.743
1280.25
1786.61
2368.8
2653.12
2459.17
2006.45
1563.16
1400.39
2962.71
4.28625
4.51355
4.80461
5.16581
5.5527
5.89729
6.21831
6.53398
6.86271
7.22287
7.63383
8.11802
8.70372
9.42888
10.3469
11.536
13.1135
15.2597
18.2555
22.5407
28.7988
38.0706
51.8939
72.4746
102.926
147.671
213.242
307.873
440.071
626.274
889.839
1255.65
1717.23
2168.27
2444.89
2394.02
2088.3
1726.67
1571.13
3097.57
4.27128
4.50188
4.79722
5.15055
5.50238
5.81189
6.09921
6.38229
6.67816
7.00276
7.37193
7.80332
8.31856
8.9461
9.72522
10.7122
11.9904
13.6858
15.9938
19.2223
23.8601
30.6799
40.8861
56.3246
79.7861
115.476
169.712
251.777
375.154
559.2
828.158
1189.91
1592.6
1973.65
2232.87
2262.87
2079.56
1814.48
1687.29
3160.79
4.25172
4.48579
4.78626
5.1246
5.43608
5.71656
5.97858
6.23768
6.50913
6.80656
7.14284
7.53172
7.98953
8.53715
9.20276
10.0257
11.0623
12.396
14.1535
16.536
19.8692
24.687
31.868
42.8671
60.1062
87.618
132.017
203.721
317.944
493.934
747.763
1077.95
1436.88
1771.63
2015.85
2094.13
2001.96
1823.94
1735.76
3147.69
4.22738
4.46213
4.76146
5.08604
5.36765
5.62093
5.86121
6.10259
6.35732
6.63595
6.94836
7.30493
7.71781
8.20232
8.77873
9.4745
10.3275
11.3911
12.7444
14.5168
16.9292
20.3629
25.4816
33.4618
46.4212
68.1534
105.207
168.033
271.242
431.103
658.362
952.717
1276.72
1578.1
1806.61
1911.19
1881.97
1771.8
1723.08
3068.6
4.20071
4.43619
4.73156
5.03987
5.29783
5.53188
5.75757
5.98751
6.23171
6.49822
6.7943
7.12755
7.50693
7.94388
8.45353
9.05612
9.77838
10.6553
11.7367
13.1105
14.9419
17.5342
21.4375
27.6677
38.1347
56.389
88.6458
144.617
237.104
379.105
579.838
836.325
1124.21
1395.13
1608.03
1725.98
1737.64
1676.66
1662.9
2940.53
4.17297
4.41219
4.69993
4.98117
5.22631
5.45136
5.6703
5.89507
6.13448
6.39485
6.68142
6.99954
7.3557
7.75871
8.22067
8.75737
9.38812
10.1397
11.0558
12.2038
13.7153
15.8592
19.1366
24.4858
33.6991
50.142
79.6481
130.96
214.817
341.552
517.295
738.598
989.005
1229.03
1424.54
1546.43
1582.84
1556.08
1570.81
2779.55
4.1423
4.38505
4.66331
4.91896
5.15257
5.3727
5.59064
5.81666
6.05788
6.31892
6.60317
6.91399
7.25596
7.63646
8.0668
8.55933
9.12573
9.79686
10.6282
11.6863
13.0764
15.0404
18.0668
23.0693
31.7844
47.4469
75.5284
123.793
201.005
314.882
468.96
659.869
874.811
1084.57
1260.58
1379.45
1429.29
1425.42
1461.19
2597.21
4.10662
4.34878
4.62104
4.85968
5.08105
5.29673
5.51682
5.74896
5.99787
6.26607
6.55502
6.8662
7.20274
7.57203
7.98604
8.45467
8.99721
9.6497
10.4611
11.5077
12.9049
14.8703
17.8815
22.8549
31.5046
46.9594
74.3381
120.489
192.408
295.382
431.227
596.501
780.92
962.28
1118.15
1229.44
1284.89
1295.5
1344.82
2401.15
4.06834
4.30736
4.57232
4.79868
5.01302
5.22891
5.4554
5.6981
5.95964
6.24079
6.54153
6.86216
7.20519
7.5776
7.99206
8.46885
9.03514
9.71889
10.5676
11.6656
13.1418
15.2167
18.3617
23.4995
32.3366
47.8876
74.8638
119.241
186.585
280.319
400.948
544.962
703.824
859.783
996.316
1097.6
1153.47
1172.19
1228.27
2197.56
4.02976
4.26303
4.51856
4.73938
4.95429
5.17687
5.4151
5.67307
5.95209
6.25206
6.57265
6.91441
7.28036
7.67425
8.11344
8.63003
9.2494
9.99975
10.9339
12.1399
13.7495
16.0007
19.3764
24.8025
33.9615
49.7125
76.3361
118.996
182.102
267.798
375.722
502.368
639.041
773.29
892.45
982.852
1035.67
1057.66
1114.98
1992.92
3.99418
4.22071
4.46605
4.68741
4.91015
5.14593
5.40145
5.67979
5.98171
6.30717
6.65658
7.03195
7.43768
7.87736
8.3665
8.9417
9.6362
10.484
11.5399
12.8901
14.6754
17.1594
20.8352
26.6208
36.15
52.0943
78.288
119.12
178.05
256.442
353.467
465.489
583.371
699.365
803.238
882.717
930.323
952.052
1006.73
1794.15
3.9652
4.18583
4.42036
4.64689
4.88256
5.13642
5.414
5.71781
6.04864
6.4071
6.79473
7.21505
7.67409
8.17938
8.74197
9.39334
10.1812
11.1468
12.3408
13.8579
15.8584
18.6194
22.6409
28.8199
38.7104
54.7912
80.4395
119.178
173.707
245.195
332.82
431.564
534.254
634.937
725.201
794.231
835.608
854.848
904.655
1607.69
3.94356
4.15928
4.3841
4.61757
4.86839
5.14326
5.44656
5.78042
6.14595
6.54454
6.97882
7.45348
7.97567
8.55531
9.20705
9.95752
10.85
11.9366
13.2833
14.9915
17.2287
20.2833
24.6619
31.2387
41.4633
57.5327
82.2771
118.57
168.6
233.395
312.365
399.789
489.749
577.323
655.514
714.881
749.825
765.539
809.741
1438.37
3.9256
4.13916
4.3603
4.60025
4.86606
5.16281
5.4937
5.86048
6.26457
6.70819
7.19502
7.7308
8.32368
8.98506
9.7318
10.5916
11.606
12.8313
14.3426
16.2494
18.7294
22.0796
26.8003
33.7201
44.1504
59.9889
83.5978
117.334
162.945
221.278
291.922
369.635
448.743
524.894
592.375
642.997
671.861
683.938
722.882
1288.79
3.91025
4.12396
4.3467
4.59506
4.87652
5.19538
5.5542
5.95471
6.39896
6.89019
7.43331
8.03531
8.70572
9.45765
10.31
11.291
12.4425
13.8222
15.5102
17.6243
20.3495
23.985
29.0146
36.2072
46.7289
62.204
84.5526
115.719
157.073
209.283
272.04
341.187
410.83
476.943
534.941
577.795
601.251
610.127
644.741
1159.41
3.89812
4.11329
4.34181
4.60168
4.90029
5.24159
5.62812
6.0623
6.54737
7.08807
7.69094
8.36466
9.1204
9.97301
10.9429
12.0592
13.3632
14.9133
16.7924
19.1234
22.0946
26.0008
31.3014
38.6977
49.212
64.2171
85.288
113.999
151.388
197.911
253.368
314.743
376.004
433.312
482.957
519.031
537.885
544.215
575.596
1049.08
3.88965
4.10749
4.34493
4.61883
4.93594
5.30001
5.71412
6.18198
6.70867
7.30104
7.96774
8.71942
9.56906
10.533
11.6326
12.8973
14.3683
16.1039
18.1883
20.7456
23.9632
28.1257
33.6621
41.205
51.6436
66.1343
85.9659
112.398
146.187
187.587
236.45
290.534
344.417
394.031
436.345
466.599
481.665
486.122
515.292
955.72
3.88521
4.10696
4.35535
4.64479
4.98108
5.36795
5.80948
6.31124
6.88079
7.5276
8.26284
9.09933
10.0518
11.1376
12.3789
13.8049
15.4564
17.3913
19.6931
22.485
25.9493
30.3561
36.1017
43.7516
54.0762
68.0436
86.7075
111.065
141.67
178.59
221.555
268.808
316.212
359.175
395.039
420.337
432.351
435.518
463.319
876.863
3.8849
4.11192
4.37255
4.6781
5.03342
5.44252
5.91098
6.44687
7.06073
7.76514
8.57406
9.50251
10.5667
11.785
13.1794
14.779
16.6234
18.7693
21.2989
24.3316
28.0421
32.6839
38.6193
46.3518
56.55
69.9996
87.5802
110.076
137.905
170.956
208.74
249.991
291.425
328.667
358.949
379.966
389.501
391.846
418.884
810.013
3.88853
4.12238
4.39604
4.7175
5.09086
5.52092
6.01539
6.58541
7.24507
8.01037
8.89824
9.92586
11.1107
12.4715
14.0299
15.814
17.8621
20.229
22.9938
26.2713
30.2265
35.0941
41.2023
48.996
59.0493
72.0133
88.6097
109.455
134.847
164.544
197.924
234.013