/*--------------------------------*- C++ -*----------------------------------*\
  =========                 |
  \\      /  F ield         | OpenFOAM: The Open Source CFD Toolbox
   \\    /   O peration     | Website:  https://openfoam.org
    \\  /    A nd           | Version:  8
     \\/     M anipulation  |
\*---------------------------------------------------------------------------*/
FoamFile
{
    version     2.0;
    format      ascii;
    class       volScalarField;
    location    "0.25";
    object      k;
}
// * * * * * * * * * * * * * * * * * * * * * * * * * * * * * * * * * * * * * //

dimensions      [0 2 -2 0 0 0 0];

internalField   nonuniform List<scalar> 
9150
(
0.00271899
0.00159146
0.000935172
0.000762989
0.000729179
0.000729179
0.000762989
0.000935172
0.00159146
0.00271899
0.00266826
0.00133587
0.00083569
0.000727722
0.000707376
0.000707376
0.000727722
0.00083569
0.00133587
0.00266826
0.00257298
0.00121481
0.000794698
0.00071607
0.000700288
0.000700288
0.00071607
0.000794698
0.00121481
0.00257298
0.00246637
0.00115254
0.000780042
0.000713793
0.0006995
0.0006995
0.000713793
0.000780042
0.00115254
0.00246637
0.00235104
0.00112748
0.00077687
0.000715378
0.000701578
0.000701578
0.000715378
0.00077687
0.00112748
0.00235104
0.00401837
0.00347399
0.0020858
0.00159125
0.00143888
0.00143888
0.00159125
0.0020858
0.00347398
0.00401837
0.00333676
0.00228937
0.00164552
0.00133608
0.00123268
0.00123268
0.00133608
0.00164552
0.00228936
0.00333676
0.0030151
0.00200056
0.0013225
0.00109055
0.00102123
0.00102123
0.00109055
0.0013225
0.00200056
0.0030151
0.00277633
0.00182069
0.00110827
0.000916966
0.000866767
0.000866767
0.000916966
0.00110827
0.00182069
0.00277633
0.00266825
0.00170509
0.00098589
0.000812655
0.000774292
0.000774292
0.000812655
0.000985889
0.00170509
0.00266825
0.0179458
0.0077546
0.00326152
0.00190356
0.00153249
0.00153249
0.0019035
0.00326076
0.00775206
0.0179405
0.00645446
0.00464635
0.0027974
0.00187332
0.00154024
0.00154024
0.00187333
0.0027974
0.00464639
0.00645441
0.00586745
0.0043545
0.00276707
0.00186936
0.00154906
0.00154906
0.00186936
0.00276707
0.00435452
0.00586744
0.00532304
0.00409382
0.00273724
0.00185993
0.00155922
0.00155922
0.00185993
0.00273724
0.00409381
0.00532304
0.00466741
0.0040738
0.00263449
0.00180993
0.00155323
0.00155323
0.00180993
0.00263449
0.0040738
0.00466741
0.0439089
0.0446003
0.0451282
0.0454885
0.0456742
0.0456738
0.0454875
0.0451265
0.0445978
0.0439053
0.0920538
0.0933164
0.0942751
0.0949231
0.0952515
0.0952505
0.0949205
0.0942709
0.0933104
0.092046
0.134213
0.135819
0.137034
0.137851
0.138263
0.138261
0.137847
0.137027
0.13581
0.134201
0.179094
0.180948
0.182345
0.183282
0.183753
0.183752
0.183278
0.182339
0.18094
0.179083
0.230195
0.232198
0.233704
0.234711
0.235217
0.235217
0.23471
0.233702
0.232196
0.230191
0.287818
0.289843
0.291361
0.292374
0.292883
0.292885
0.292378
0.291367
0.289852
0.287828
0.350224
0.352096
0.353495
0.354427
0.354895
0.354898
0.354438
0.353514
0.352122
0.350254
0.414144
0.41564
0.416751
0.417487
0.417857
0.417864
0.417507
0.416784
0.415686
0.414198
0.475264
0.476111
0.476727
0.47713
0.477333
0.477343
0.477159
0.476775
0.476177
0.475343
0.52871
0.52859
0.528474
0.528383
0.528339
0.528351
0.528419
0.528534
0.528674
0.52881
0.569688
0.568252
0.56714
0.566382
0.566002
0.566016
0.566423
0.567209
0.568348
0.569806
0.594452
0.591349
0.588983
0.587385
0.586584
0.586599
0.58743
0.589057
0.591453
0.594581
0.601578
0.596569
0.592781
0.590236
0.588962
0.588979
0.590287
0.592864
0.596684
0.601721
0.593953
0.587293
0.582299
0.578967
0.577305
0.577322
0.579019
0.582384
0.587411
0.594102
0.577759
0.57052
0.565149
0.561597
0.559834
0.559849
0.561642
0.565225
0.570626
0.577896
0.558979
0.551986
0.546815
0.543404
0.541715
0.541727
0.543442
0.546878
0.552076
0.559096
0.540693
0.534031
0.529109
0.525865
0.524258
0.524268
0.525896
0.529161
0.534104
0.540789
0.523413
0.517073
0.512395
0.509314
0.507788
0.507796
0.509338
0.512435
0.51713
0.523489
0.507017
0.500993
0.496554
0.493632
0.492184
0.49219
0.493649
0.496582
0.501034
0.507072
0.491528
0.485813
0.481607
0.478841
0.477471
0.477474
0.478852
0.481625
0.485839
0.491563
0.477074
0.47166
0.46768
0.465064
0.463768
0.463769
0.465069
0.467687
0.471671
0.47709
0.463787
0.458658
0.454892
0.452418
0.451192
0.451192
0.452417
0.454889
0.458655
0.463784
0.45178
0.446916
0.443347
0.441005
0.439844
0.439841
0.440998
0.443335
0.446899
0.451759
0.441143
0.436516
0.433126
0.430902
0.429799
0.429795
0.43089
0.433105
0.436487
0.441105
0.431927
0.427508
0.424274
0.422153
0.421101
0.421095
0.422136
0.424245
0.427468
0.431874
0.42414
0.419897
0.416793
0.414759
0.413749
0.413742
0.414738
0.416757
0.419846
0.424074
0.417743
0.413641
0.410643
0.408679
0.407703
0.407695
0.408653
0.4106
0.413581
0.417664
0.412649
0.408657
0.405741
0.40383
0.402881
0.402871
0.403801
0.405692
0.408588
0.412559
0.408735
0.404824
0.401968
0.400096
0.399165
0.399154
0.400064
0.401914
0.404748
0.408635
0.405852
0.401995
0.399177
0.39733
0.396411
0.3964
0.397295
0.399118
0.401912
0.405742
0.403836
0.400006
0.397206
0.39537
0.394456
0.394443
0.395332
0.397143
0.399916
0.403718
0.402515
0.398682
0.395879
0.394041
0.393125
0.393112
0.394001
0.395813
0.398587
0.402389
0.401716
0.397851
0.395023
0.393167
0.392242
0.392229
0.393126
0.394953
0.397751
0.401584
0.40127
0.397342
0.394467
0.392579
0.391638
0.391623
0.392535
0.394393
0.397237
0.401131
0.401015
0.396993
0.394049
0.392116
0.391152
0.391136
0.39207
0.393972
0.396884
0.40087
0.400799
0.396657
0.393624
0.391633
0.390639
0.390624
0.391585
0.393544
0.396543
0.400649
0.400485
0.3962
0.393062
0.391002
0.389974
0.389958
0.390953
0.39298
0.396082
0.400329
0.399948
0.395505
0.392252
0.390116
0.38905
0.389034
0.390065
0.392167
0.395384
0.399788
0.399085
0.394476
0.391101
0.388886
0.387781
0.387764
0.388834
0.391014
0.394351
0.398921
0.39781
0.393034
0.389539
0.387245
0.386102
0.386084
0.387192
0.389449
0.392907
0.397641
0.39606
0.391127
0.387517
0.385149
0.383969
0.383951
0.385095
0.387426
0.390997
0.395887
0.393793
0.38872
0.385008
0.382573
0.38136
0.381342
0.382518
0.384915
0.388588
0.393617
0.390998
0.385807
0.382007
0.379516
0.378276
0.378258
0.379461
0.381913
0.385672
0.390821
0.387692
0.382401
0.378533
0.375998
0.374737
0.374718
0.375942
0.378438
0.382266
0.387512
0.383881
0.378525
0.374613
0.372052
0.370777
0.370759
0.371996
0.374519
0.378389
0.383701
0.379615
0.374232
0.370303
0.367729
0.366449
0.366431
0.367674
0.370208
0.374096
0.379435
0.375001
0.369603
0.365672
0.363098
0.361818
0.3618
0.363043
0.365579
0.369468
0.374821
0.370109
0.364706
0.360789
0.358228
0.356956
0.356938
0.358174
0.360697
0.364573
0.369931
0.364959
0.35959
0.355717
0.353192
0.351938
0.351921
0.353138
0.355626
0.359459
0.364784
0.359587
0.354322
0.350536
0.348071
0.346848
0.346831
0.348019
0.350448
0.354194
0.359415
0.354123
0.349016
0.345348
0.342961
0.341777
0.341761
0.342911
0.345262
0.348893
0.353957
0.348705
0.343789
0.340256
0.337957
0.336817
0.336801
0.337909
0.340174
0.34367
0.348545
0.343482
0.338757
0.335357
0.333145
0.332047
0.332032
0.333099
0.335279
0.338645
0.343331
0.338595
0.334019
0.330728
0.328589
0.327527
0.327513
0.328545
0.330654
0.333913
0.338453
0.334093
0.329617
0.326406
0.324322
0.32329
0.323276
0.324281
0.326336
0.329517
0.333959
0.329911
0.325529
0.322386
0.320349
0.319339
0.319327
0.32031
0.32232
0.325434
0.329783
0.32601
0.321729
0.31865
0.316653
0.315664
0.315651
0.316616
0.318587
0.321638
0.325889
0.322392
0.318204
0.31518
0.313214
0.312239
0.312228
0.313179
0.31512
0.318117
0.322277
0.319055
0.314939
0.311952
0.310003
0.309036
0.309024
0.309969
0.311895
0.314857
0.318946
0.315989
0.311912
0.308935
0.306984
0.306013
0.306002
0.306951
0.30888
0.311834
0.315886
0.313174
0.309089
0.306087
0.304109
0.303123
0.303113
0.304079
0.306035
0.309016
0.313077
0.310575
0.306428
0.303358
0.301325
0.300309
0.300299
0.301296
0.303308
0.306359
0.310484
0.308147
0.303875
0.300688
0.298569
0.297507
0.297498
0.298541
0.300642
0.303809
0.308062
0.305835
0.301368
0.298014
0.295773
0.294647
0.294638
0.295746
0.29797
0.301307
0.305757
0.303577
0.29884
0.295262
0.292863
0.291655
0.291647
0.292837
0.29522
0.298782
0.303505
0.301302
0.296217
0.292359
0.289764
0.288457
0.288448
0.28974
0.292319
0.296163
0.301235
0.298937
0.293425
0.289229
0.286403
0.284976
0.284968
0.286379
0.289191
0.293374
0.298875
0.296404
0.290388
0.285799
0.282704
0.281142
0.281134
0.282682
0.285763
0.29034
0.296348
0.293628
0.287032
0.281996
0.278599
0.276885
0.276877
0.278577
0.281962
0.286987
0.293576
0.290529
0.283283
0.277752
0.274022
0.27214
0.272133
0.274
0.277718
0.28324
0.290481
0.28703
0.279071
0.273002
0.268913
0.266852
0.266844
0.268891
0.272969
0.27903
0.286986
0.283055
0.27433
0.267689
0.263221
0.260971
0.260964
0.263199
0.267656
0.27429
0.283014
0.278531
0.269002
0.261764
0.256905
0.254461
0.254453
0.256883
0.261731
0.268962
0.278493
0.273391
0.263034
0.25519
0.249936
0.247297
0.247289
0.249913
0.255155
0.262993
0.273353
0.267572
0.256385
0.247941
0.2423
0.239473
0.239464
0.242276
0.247904
0.256343
0.267533
0.261021
0.249028
0.240009
0.234003
0.230998
0.230989
0.233976
0.239969
0.248982
0.26098
0.253698
0.240949
0.231403
0.225067
0.221904
0.221894
0.225038
0.231359
0.240899
0.253653
0.245581
0.232159
0.222156
0.215541
0.212247
0.212236
0.215509
0.222107
0.232102
0.245529
0.236667
0.222687
0.212322
0.205496
0.202105
0.202093
0.205461
0.212269
0.222623
0.236606
0.22698
0.212592
0.201984
0.195028
0.191582
0.191569
0.194991
0.201926
0.212522
0.22691
0.216577
0.201962
0.191249
0.184256
0.180801
0.180787
0.184216
0.191187
0.201885
0.216497
0.205549
0.190913
0.180249
0.173319
0.169904
0.16989
0.173278
0.180184
0.19083
0.20546
0.194027
0.179592
0.169136
0.16237
0.159045
0.159031
0.162329
0.169069
0.179505
0.19393
0.18218
0.168171
0.158077
0.15157
0.148378
0.148364
0.151528
0.15801
0.168082
0.182078
0.170212
0.156839
0.147243
0.141071
0.138047
0.138034
0.141031
0.147177
0.15675
0.170108
0.158354
0.145791
0.136796
0.131013
0.128179
0.128166
0.130975
0.136733
0.145704
0.15825
0.146845
0.135216
0.12688
0.121505
0.118865
0.118853
0.121469
0.12682
0.135133
0.146744
0.135921
0.125279
0.117604
0.112619
0.110155
0.110144
0.112585
0.117547
0.125202
0.135824
0.125786
0.116108
0.109032
0.104375
0.10205
0.10204
0.104343
0.10898
0.116035
0.125695
0.116602
0.107781
0.101181
0.0967406
0.0944906
0.0944809
0.0967114
0.101132
0.107713
0.116517
0.108473
0.100325
0.0940107
0.0896231
0.0873498
0.0873404
0.0895952
0.0939646
0.100262
0.108393
0.101452
0.0937233
0.0874311
0.0828622
0.0804214
0.0804121
0.0828347
0.0873863
0.0936623
0.101376
0.0955469
0.0879221
0.0813064
0.0762225
0.0733954
0.0733858
0.0761945
0.0812617
0.0878625
0.095474
0.0907526
0.0828558
0.0754621
0.0693788
0.0658206
0.0658103
0.0693492
0.0754164
0.0827963
0.0906811
0.0870739
0.0784584
0.0696868
0.0618984
0.057057
0.0570454
0.0618665
0.0696394
0.0783983
0.0870024
0.0845413
0.0746423
0.063698
0.0532377
0.046281
0.0462678
0.0532032
0.0636493
0.0745819
0.0844696
0.0831847
0.0711522
0.0569686
0.0427891
0.0328026
0.0327875
0.0427533
0.0569207
0.0710935
0.0831138
0.0828861
0.0670459
0.0481572
0.0300426
0.0174507
0.0174359
0.0300101
0.0481146
0.0669934
0.0828201
0.0827071
0.0592202
0.03435
0.0153935
0.00532626
0.00531892
0.015373
0.0343196
0.0591809
0.0826544
0.0764854
0.0396502
0.0146257
0.00406756
0.00169211
0.00169172
0.00406341
0.0146141
0.0396328
0.0764603
0.0429874
0.0418546
0.0405423
0.0390662
0.0374479
0.0357122
0.0338865
0.0319992
0.0300793
0.0281548
0.0262524
0.0243966
0.0226085
0.0209053
0.0193006
0.0178091
0.0164942
0.0153434
0.0143335
0.0134439
0.012655
0.0119484
0.0113069
0.0107145
0.0101572
0.00962227
0.00909883
0.00857731
0.00804938
0.00750773
0.00694588
0.00635812
0.0057393
0.00508471
0.00438976
0.00364929
0.00285651
0.00200318
0.00109241
0.000204939
0.0903799
0.0882575
0.0857775
0.082965
0.0798544
0.0764868
0.0729084
0.0691691
0.065321
0.0614171
0.0575095
0.0536488
0.0498822
0.0462522
0.0427956
0.0395424
0.036509
0.0337869
0.0313618
0.0292146
0.027322
0.0256565
0.0241875
0.0228824
0.0217081
0.0206319
0.0196228
0.0186521
0.0176934
0.0167231
0.0157197
0.0146639
0.0135379
0.0123249
0.0110075
0.00956583
0.00797044
0.00616815
0.00397377
0.000956471
0.132074
0.129342
0.126134
0.122477
0.118409
0.113978
0.109236
0.104243
0.0990605
0.0937535
0.0883873
0.0830264
0.077733
0.0725656
0.067578
0.0628195
0.0583325
0.0541889
0.0504154
0.0469981
0.0439177
0.0411493
0.0386621
0.0364199
0.0343821
0.0325056
0.0307467
0.0290632
0.0274161
0.0257708
0.0240979
0.0223728
0.0205756
0.0186888
0.0166953
0.014572
0.0122752
0.0097121
0.00654744
0.00181979
0.176622
0.173443
0.169691
0.16539
0.160573
0.155286
0.149584
0.143528
0.137185
0.130625
0.123923
0.117154
0.110395
0.103719
0.0972003
0.090909
0.0849141
0.0792868
0.0740962
0.0693296
0.0649681
0.060986
0.0573501
0.0540201
0.0509483
0.048081
0.0453607
0.0427287
0.0401284
0.0375094
0.0348315
0.0320673
0.0292038
0.0262406
0.0231843
0.0200341
0.0167545
0.0132309
0.00901682
0.00270257
0.227524
0.22406
0.219947
0.215196
0.209831
0.203889
0.197419
0.190476
0.183123
0.175432
0.167478
0.159343
0.151111
0.14287
0.134711
0.126724
0.119004
0.111645
0.104756
0.0983349
0.09237
0.0868429
0.0817257
0.0769808
0.0725604
0.0684075
0.0644568
0.0606364
0.0568712
0.0530871
0.0492161
0.0452033
0.0410131
0.0366343
0.0320802
0.0273761
0.0225283
0.0174685
0.011744
0.00365727
0.285123
0.281587
0.277353
0.272416
0.266784
0.260479
0.253534
0.24599
0.237899
0.229323
0.220332
0.211002
0.201422
0.191684
0.18189
0.172148
0.162572
0.153288
0.144446
0.136059
0.128133
0.120665
0.113643
0.10704
0.10082
0.0949342
0.0893215
0.0839098
0.0786177
0.0733577
0.0680395
0.0625756
0.0568873
0.0509119
0.0446081
0.0379553
0.0309418
0.0235405
0.015383
0.00483935
0.34774
0.344421
0.340402
0.335655
0.330166
0.323932
0.316963
0.309277
0.300904
0.291886
0.282275
0.272136
0.261545
0.250593
0.239383
0.228031
0.216668
0.205441
0.194544
0.184012
0.173871
0.164143
0.154836
0.145947
0.137462
0.129351
0.121569
0.114057
0.10674
0.099534
0.0923396
0.0850508
0.0775555
0.0697384
0.0614826
0.0526663
0.0431573
0.0328096
0.021089
0.00661389
0.412172
0.40945
0.406088
0.402033
0.39724
0.391675
0.385315
0.378144
0.370158
0.361367
0.351793
0.341475
0.330467
0.318844
0.306698
0.294144
0.281318
0.268382
0.255562
0.24292
0.230507
0.218372
0.206552
0.195073
0.183951
0.173185
0.162757
0.152632
0.142757
0.133058
0.123445
0.113806
0.104012
0.0939143
0.083336
0.0720632
0.0598229
0.046256
0.0302668
0.00971357
0.474165
0.472507
0.470354
0.467621
0.464228
0.460101
0.45517
0.449374
0.442662
0.434998
0.426361
0.416748
0.406178
0.394692
0.382361
0.369284
0.355595
0.341464
0.327104
0.312637
0.298137
0.283678
0.269329
0.255151
0.241192
0.227489
0.214059
0.2009
0.187987
0.175273
0.162681
0.15011
0.137427
0.124462
0.111007
0.0967831
0.0814074
0.064317
0.0437679
0.0151599
0.528904
0.528861
0.528572
0.527921
0.526783
0.525032
0.522538
0.519179
0.514844
0.509433
0.502867
0.495085
0.48605
0.475757
0.464236
0.451559
0.437843
0.423249
0.407994
0.392237
0.376076
0.359613
0.342949
0.326179
0.309391
0.292661
0.276047
0.259586
0.243289
0.227137
0.211081
0.195033
0.178868
0.162414
0.145443
0.127639
0.108534
0.0873672
0.0617759
0.0238173
0.571642
0.573836
0.576165
0.578478
0.5806
0.582333
0.583472
0.583812
0.583163
0.581348
0.57821
0.573609
0.567429
0.559591
0.550069
0.538895
0.52616
0.51201
0.49666
0.480317
0.463099
0.445133
0.42655
0.407485
0.388065
0.368407
0.348613
0.328759
0.308896
0.289038
0.269165
0.249212
0.229067
0.208564
0.187472
0.165443
0.141927
0.11594
0.0844755
0.0362294
0.598639
0.603725
0.609486
0.615742
0.622257
0.628744
0.634891
0.640387
0.644943
0.648288
0.650169
0.650334
0.648539
0.644589
0.638375
0.629883
0.619177
0.606394
0.591751
0.575539
0.557893
0.538968
0.518932
0.497956
0.47621
0.453851
0.431022
0.407839
0.38439
0.360724
0.336848
0.312722
0.288253
0.263285
0.237583
0.210768
0.182186
0.150586
0.112274
0.0528599
0.608351
0.616843
0.626731
0.637839
0.649888
0.662495
0.675208
0.687562
0.699125
0.709516
0.718368
0.725257
0.729711
0.731304
0.7298
0.72514
0.717378
0.706658
0.693233
0.677577
0.659865
0.640301
0.619099
0.596478
0.572646
0.547801
0.522116
0.495741
0.468792
0.441346
0.413435
0.385038
0.356078
0.326407
0.295777
0.263762
0.229574
0.191651
0.145583
0.0742102
0.603011
0.614607
0.628382
0.644268
0.662112
0.681621
0.702298
0.723521
0.744602
0.764882
0.783739
0.800419
0.813961
0.823497
0.828565
0.829063
0.825042
0.816654
0.804264
0.78879
0.770573
0.749949
0.727235
0.702716
0.676645
0.649242
0.620697
0.59117
0.560785
0.529627
0.497736
0.465097
0.431634
0.397192
0.361495
0.324042
0.283878
0.239096
0.184578
0.100725
0.587683
0.600609
0.616254
0.634766
0.65626
0.680786
0.708303
0.738608
0.771233
0.805302
0.839345
0.871685
0.900607
0.923898
0.940362
0.949603
0.951433
0.94596
0.933931
0.916771
0.896018
0.872357
0.846361
0.81847
0.789
0.758183
0.726185
0.69313
0.659102
0.624151
0.588282
0.551452
0.513556
0.474399
0.433644
0.390684
0.344367
0.292417
0.229046
0.132627
0.568577
0.581151
0.596453
0.614713
0.63619
0.661201
0.690144
0.723452
0.761555
0.804764
0.852886
0.904455
0.957228
1.00801
1.05157
1.08363
1.10216
1.10613
1.09662
1.07604
1.04923
1.01833
0.984857
0.94981
0.913764
0.877008
0.839653
0.801706
0.763118
0.723806
0.683658
0.642528
0.600213
0.556422
0.510704
0.462299
0.409828
0.350632
0.278319
0.169777
0.549834
0.561866
0.576555
0.594143
0.61492
0.639227
0.667463
0.70008
0.737589
0.780573
0.829682
0.885531
0.948607
1.01951
1.09682
1.17329
1.23853
1.28052
1.2944
1.28168
1.24889
1.20623
1.15872
1.10951
1.06042
1.01226
0.965216
0.919114
0.873624
0.828362
0.782932
0.736936
0.689952
0.641485
0.590882
0.53716
0.478662
0.412342
0.331283
0.211577
0.532108
0.543603
0.557678
0.574584
0.594624
0.618152
0.645582
0.677385
0.714098
0.756325
0.804739
0.860079
0.923194
0.995086
1.07691
1.16958
1.27247
1.3782
1.46419
1.50569
1.49764
1.45156
1.3873
1.31605
1.24438
1.17565
1.11107
1.05059
0.993532
0.938997
0.88604
0.833763
0.781304
0.727786
0.672205
0.613234
0.548844
0.475537
0.385965
0.25659
0.515272
0.526235
0.539696
0.555915
0.575206
0.597936
0.624538
0.655504
0.691399
0.732862
0.780609
0.835448
0.898281
0.970119
1.05208
1.14539
1.25154
1.3725
1.50801
1.6428
1.72951
1.73389
1.67362
1.5825
1.48124
1.3814
1.28845
1.20409
1.12789
1.05842
0.993931
0.932688
0.873068
0.813538
0.752525
0.688185
0.617963
0.537596
0.437901
0.300849
0.499349
0.509784
0.522632
0.538162
0.556698
0.578622
0.604382
0.634497
0.669559
0.710237
0.757288
0.811557
0.873989
0.945638
1.02768
1.12145
1.22846
1.35042
1.48927
1.64772
1.81964
1.95386
1.97384
1.8974
1.77499
1.63918
1.50757
1.38805
1.28266
1.19025
1.10832
1.03398
0.964481
0.897309
0.830082
0.760305
0.684833
0.598251
0.483904
0.31639
0.484474
0.494393
0.50664
0.52149
0.539276
0.560394
0.58531
0.614562
0.648771
0.688636
0.734947
0.788588
0.850541
0.921897
1.00387
1.0978
1.20521
1.32779
1.46742
1.62624
1.8064
2.0099
2.18622
2.20961
2.10614
1.94514
1.77106
1.60702
1.46211
1.3376
1.231
1.13832
1.05541
0.978421
0.903837
0.828195
0.747338
0.65421
0.527732
0.332156
0.470786
0.480212
0.491882
0.506077
0.523137
0.543472
0.567563
0.595969
0.629333
0.668384
0.713943
0.766923
0.828337
0.899306
0.981066
1.07498
1.18255
1.30542
1.44544
1.60469
1.78557
1.99114
2.22483
2.42236
2.42082
2.27256
2.06612
1.8557
1.66479
1.50068
1.36261
1.24622
1.14605
1.05672
0.973292
0.89099
0.804308
0.704417
0.567696
0.351279
0.458405
0.467373
0.478504
0.492085
0.508465
0.528063
0.551377
0.578986
0.611555
0.649838
0.694681
0.747021
0.807893
0.878439
0.959916
1.0537
1.16127
1.28423
1.42435
1.58356
1.76401
1.96817
2.19881
2.4554
2.63715
2.57183
2.36261
2.11685
1.88197
1.67585
1.50222
1.35792
1.23696
1.13267
1.03861
0.948538
0.855479
0.748927
0.603525
0.371872
0.44743
0.455983
0.466626
0.479651
0.495415
0.514349
0.536967
0.563867
0.595738
0.633357
0.677588
0.729381
0.789774
0.85992
0.9411
1.03472
1.14228
1.26532
1.40552
1.56469
1.7448
1.9481
2.17717
2.43488
2.70222
2.78142
2.61633
2.36373
2.09982
1.85759
1.64896
1.47473
1.33015
1.20822
1.10137
1.00199
0.901679
0.788394
0.635277
0.392462
0.437918
0.446108
0.456326
0.468867
0.484097
0.502462
0.524494
0.550816
0.582145
0.619282
0.663103
0.714543
0.774605
0.844408
0.92528
1.01874
1.12633
1.24959
1.39013
1.54965
1.73001
1.93328
2.16184
2.41835
2.70461
2.89177
2.80011
2.57493
2.30669
2.04231
1.80438
1.60073
1.43043
1.28789
1.16539
1.05438
0.945186
0.82437
0.663627
0.412331
0.429881
0.437766
0.447625
0.459761
0.47455
0.492454
0.514029
0.539933
0.570923
0.607834
0.651554
0.702984
0.763021
0.832619
0.913029
1.00616
1.11375
1.23739
1.37863
1.53912
1.72066
1.92533
2.15559
2.41453
2.70553
2.93717
2.91724
2.74398
2.49698
2.22902
1.97195
1.7422
1.54515
1.37883
1.23692
1.11079
0.989903
0.859569
0.690063
0.431376
0.423279
0.430915
0.440483
0.45229
0.466723
0.484263
0.505497
0.531128
0.561974
0.598947
0.643026
0.695118
0.755828
0.825501
0.904521
0.996657
1.10407
1.22816
1.37041
1.53238
1.7158
1.92265
2.15534
2.41687
2.71048
2.96463
2.99886
2.88079
2.67085
2.41686
2.15377
1.90466
1.68201
1.48939
1.32384
1.17799
1.04122
0.897891
0.71695
0.450051
0.418023
0.425461
0.434796
0.446337
0.46048
0.477723
0.498685
0.524121
0.554945
0.592269
0.637368
0.69129
0.75194
0.818037
0.896847
0.988625
1.09563
1.22012
1.36342
1.52704
1.71255
1.92179
2.15691
2.42046
2.71496
2.98073
3.05877
2.99577
2.83274
2.6074
2.35211
2.09296
1.84837
1.62837
1.43507
1.26409
1.10587
0.944456
0.747597
0.469394
0.413985
0.421273
0.430424
0.44175
0.45565
0.472632
0.493335
0.518556
0.54933
0.58702
0.63333
0.685416
0.741016
0.805574
0.884186
0.978246
1.08633
1.21099
1.35517
1.52039
1.70813
1.92002
2.15793
2.42402
2.72019
2.99604
3.11547
3.10847
2.99885
2.8127
2.57665
2.31649
2.05453
1.80683
1.58164
1.37923
1.19251
1.00604
0.786586
0.491133
0.411015
0.418196
0.427212
0.438373
0.452076
0.468829
0.489272
0.514225
0.544734
0.582021
0.626507
0.674855
0.72762
0.790764
0.868369
0.962236
1.07252
1.19834
1.34287
1.50943
1.6994
1.91427
2.1558
2.42593
2.72626
3.01686
3.18501
3.24029
3.19176
3.05394
2.84659
2.59308
2.31762
2.04144
1.77935
1.53763
1.31323
1.09225
0.840573
0.517978
0.408949
0.416069
0.425006
0.436063
0.449635
0.466227
0.486496
0.51131
0.541749
0.578878
0.62091
0.664353
0.714132
0.774866
0.850147
0.942005
1.05138
1.17868
1.32386
1.49099
1.6829
1.90095
2.14696
2.42303
2.73078
3.04328
3.27325
3.40393
3.43013
3.35421
3.18744
2.94902
2.66376
2.35741
2.05174
1.76035
1.48595
1.21751
0.919783
0.554261
0.407618
0.414731
0.423651
0.434681
0.448211
0.464749
0.484988
0.509848
0.540389
0.575774
0.612554
0.652568
0.699211
0.756598
0.828235
0.916723
1.02367
1.15024
1.2954
1.46227
1.65515
1.87588
2.1266
2.4099
2.72829
3.06949
3.37065
3.59445
3.71946
3.73057
3.62528
3.4157
3.12659
2.78864
2.43137
2.0772
1.73661
1.40313
1.03996
0.607005
0.406852
0.414014
0.42299
0.43408
0.44767
0.464287
0.48465
0.509651
0.539285
0.571044
0.603651
0.63953
0.682131
0.735065
0.801826
0.885388
0.987949
1.11111
1.25565
1.42126
1.61298
1.83477
2.0889
2.3784
2.70675
3.07654
3.46537
3.80902
4.06449
4.19716
4.18324
4.02277
3.73994
3.37126
2.95511
2.52399
2.09804
1.67747
1.22339
0.687159
0.406483
0.413753
0.422859
0.434095
0.44786
0.464706
0.485344
0.510431
0.538159
0.565134
0.593284
0.624927
0.66297
0.710614
0.771332
0.848422
0.944684
1.06231
1.20282
1.36556
1.55405
1.77434
2.02956
2.32351
2.66066
3.04589
3.48371
3.97606
4.45251
4.77365
4.87937
4.78615
4.52096
4.12642
3.6486
3.12983
2.60075
2.06985
1.49575
0.809488
0.406347
0.413782
0.423085
0.434551
0.4486
0.465819
0.486886
0.51081
0.534429
0.55774
0.582059
0.609411
0.642414
0.684043
0.7376
0.80655
0.894183
1.00337
1.1365
1.29507
1.47935
1.69465
1.947
2.24095
2.5816
2.97552
3.43167
3.96383
4.58965
5.28755
5.76761
5.79264
5.52806
5.0844
4.52669
3.90507
3.25691
2.59591
1.8751
0.988497
0.406288
0.413939
0.423497
0.435271
0.44969
0.467271
0.488242
0.510214
0.530323
0.549922
0.570394
0.593476
0.621358
0.656712
0.702557
0.762339
0.839659
0.938036
1.06069
1.21037
1.38919
1.59902
1.84538
2.13458
2.47371
2.87081
3.3372
3.8881
4.5434
5.32863
6.28334
7.04411
6.93446
6.40319
5.67814
4.88054
4.06722
3.24826
2.35759
1.22964
0.406161
0.414068
0.423938
0.436105
0.451034
0.46919
0.489225
0.507868
0.525042
0.541632
0.558785
0.577986
0.60108
0.63034
0.668536
0.718946
0.785232
0.871372
0.981333
1.11889
1.28745
1.48999
1.7301
2.01271
2.34602
2.74174
3.2118
3.77309
4.44811
5.26703
6.27153
7.51945
8.54148
8.19985
7.24593
6.13103
5.04256
4.00475
2.91503
1.52272
0.405834
0.414023
0.424247
0.436854
0.452252
0.470487
0.489087
0.505192
0.519721
0.533575
0.547787
0.56359
0.582489
0.606366
0.637595
0.679147
0.734658
0.808449
0.905048
1.02921
1.18534
1.37725
1.60841
1.88376
2.21091
2.60155
3.07033
3.63412
4.31614
5.14773
6.17158
7.44752
9.06181
10.1734
9.17378
7.61456
6.12314
4.79541
3.48443
1.83915
0.405192
0.413682
0.424307
0.437462
0.45354
0.471197
0.487323
0.501389
0.513908
0.525657
0.537552
0.550628
0.566113
0.585543
0.610901
0.644775
0.690517
0.752352
0.835384
0.945412
1.08767
1.26709
1.48799
1.75536
2.07624
2.46069
2.92502
3.48691
4.16762
4.99553
6.00681
7.24686
8.77091
10.5965
10.8719
9.05799
7.14942
5.49944
3.96584
2.12398
0.404135
0.412931
0.423943
0.437536
0.453842
0.470718
0.485005
0.497178
0.507929
0.517989
0.528118
0.539141
0.552031
0.568013
0.588692
0.616232
0.653566
0.704607
0.774414
0.86918
0.995998
1.16094
1.36971
1.62798
1.94266
2.32199
2.78155
3.34157
4.02269
4.85212
5.86481
7.10601
8.63593
10.5276
11.4176
9.93006
7.93325
6.06391
4.32476
2.33728
0.402596
0.411711
0.423171
0.437327
0.453589
0.468946
0.481616
0.49231
0.50173
0.510545
0.5194
0.528961
0.539992
0.553445
0.570576
0.593109
0.623461
0.66501
0.722385
0.801653
0.910261
1.05661
1.24921
1.49454
1.80084
2.17698
2.63331
3.19185
3.87701
4.71488
5.73993
6.99508
8.53338
10.3985
11.4193
10.3667
8.53096
6.56246
4.6175
2.47678
0.400519
0.409923
0.421798
0.436432
0.452124
0.465733
0.477045
0.486626
0.4951
0.503069
0.511083
0.519686
0.529476
0.541177
0.555737
0.574467
0.599231
0.632723
0.678806
0.742882
0.832142
0.955514
1.12325
1.34653
1.63748
2.00469
2.4597
3.01891
3.71053
4.56525
5.61901
6.91798
8.49573
10.1039
10.8262
10.2668
8.82082
6.95828
4.88191
2.58281
0.397894
0.407538
0.419676
0.434408
0.449451
0.461626
0.471681
0.480275
0.488006
0.495391
0.502878
0.510897
0.519908
0.530448
0.54321
0.559138
0.579584
0.606522
0.642873
0.692922
0.762792
0.860821
0.997662
1.18606
1.44064
1.77827
2.22
2.78596
3.48747
4.35974
5.44384
6.76184
8.2279
9.51372
10.2091
9.95696
8.84893
7.17734
5.0635
2.65769
0.39475
0.404672
0.417179
0.431768
0.44551
0.456516
0.4656
0.473435
0.480601
0.487563
0.4947
0.502353
0.510867
0.520632
0.532134
0.546021
0.563205
0.585017
0.613451
0.651537
0.70385
0.777109
0.88076
1.02742
1.23315
1.51791
1.90619
2.4271
3.11482
4.00894
5.14259
6.47167
7.78906
8.90076
9.54697
9.46314
8.62516
7.17541
5.12541
2.69022
0.39106
0.401223
0.414085
0.428138
0.440281
0.450286
0.458653
0.465972
0.472782
0.479496
0.486436
0.493874
0.502069
0.5113
0.521899
0.534294
0.549057
0.567001
0.589346
0.618041
0.656243
0.708959
0.783884
0.892517
1.05151
1.28416
1.62153
2.10234
2.76935
3.65806
4.76665
6.02191
7.23398
8.23493
8.84437
8.86433
8.22981
6.98816
5.07067
2.67829
0.38684
0.397061
0.40992
0.423425
0.43436
0.443358
0.451053
0.457994
0.464615
0.471241
0.478121
0.485459
0.49345
0.502294
0.512227
0.523529
0.536547
0.551716
0.56967
0.591576
0.619629
0.657665
0.712038
0.793046
0.917075
1.10912
1.40432
1.84589
2.47622
3.31887
4.35417
5.51859
6.64787
7.57212
8.14755
8.22981
7.74496
6.6813
4.92803
2.62788
0.382255
0.392491
0.40516
0.417926
0.427842
0.436081
0.443299
0.449993
0.456523
0.463139
0.470019
0.477311
0.48515
0.493687
0.503098
0.51359
0.525381
0.538667
0.553681
0.571103
0.592601
0.621404
0.663096
0.727086
0.829119
0.994417
1.25915
1.66614
2.25234
3.03093
3.98263
5.03895
6.07609
6.92925
7.47383
7.59633
7.22184
6.30744
4.72684
2.54879
0.377416
0.387772
0.400019
0.411478
0.420779
0.428618
0.435587
0.442169
0.44869
0.455348
0.462269
0.469541
0.477255
0.485522
0.494487
0.504312
0.515113
0.527007
0.540276
0.555321
0.573344
0.59729
0.6324
0.687562
0.777926
0.928234
1.17383
1.55433
2.09935
2.8153
3.67712
4.62203
5.55436
6.33054
6.83996
6.98538
6.69236
5.90289
4.48842
2.45042
0.372273
0.382698
0.394389
0.404567
0.413238
0.42077
0.427639
0.434264
0.440911
0.44772
0.454759
0.462062
0.469675
0.477691
0.486276
0.495532
0.505405
0.516224
0.528694
0.543282
0.560596
0.583079
0.615912
0.667811
0.753493
0.896905
1.13155
1.49248
2.00162
2.6584
3.43412
4.27387
5.09855
5.79351
6.25991
6.41267
6.17849
5.49202
4.227
2.33945
0.366778
0.377035
0.388288
0.397531
0.405489
0.412665
0.419487
0.426262
0.433157
0.440235
0.447493
0.454906
0.462479
0.470328
0.478656
0.48751
0.4971
0.50793
0.520519
0.535581
0.553961
0.577449
0.610899
0.663044
0.748292
0.889601
1.118
1.46356
1.94096
2.54275
3.23993
3.9841
4.70919
5.32238
5.74014
5.88723
5.69298
5.08913
3.95217
2.21974
0.361101
0.371038
0.381755
0.390235
0.397664
0.404634
0.411523
0.418551
0.425796
0.433248
0.440848
0.448531
0.456282
0.464208
0.472532
0.481625
0.491932
0.503687
0.517326
0.53373
0.553985
0.579796
0.615663
0.670198
0.757542
0.899356
1.12336
1.45464
1.90228
2.45403
3.08119
3.74079
4.37683
4.91196
5.27917
5.41119
5.24143
4.70156
3.6717
2.09373
0.355407
0.364877
0.374931
0.382917
0.390116
0.397114
0.404242
0.411647
0.419349
0.427297
0.435417
0.443644
0.451978
0.460406
0.469285
0.479331
0.490895
0.504168
0.519671
0.538282
0.561027
0.589827
0.629177
0.687427
0.778164
0.921257
1.14092
1.45765
1.8762
2.38199
2.94731
3.53358
4.08803
4.55251
4.87123
4.98253
4.82506
4.33333
3.39343
1.9639
0.349906
0.358847
0.368183
0.375922
0.383179
0.390452
0.398004
0.405936
0.414236
0.422846
0.431709
0.440803
0.450158
0.459734
0.469804
0.481176
0.494378
0.509707
0.527652
0.548917
0.574597
0.607001
0.650555
0.713182
0.807631
0.951766
1.16632
1.46741
1.85659
2.3191
2.82913
3.35093
3.83319
4.23532
4.50907
4.59683
4.44309
3.9875
3.12531
1.83343
0.344816
0.35326
0.361839
0.369518
0.377036
0.384763
0.392905
0.401523
0.410598
0.420083
0.429947
0.440206
0.450921
0.462155
0.474008
0.487083
0.50226
0.519965
0.54048
0.564598
0.593709
0.630192
0.678359