/*--------------------------------*- C++ -*----------------------------------*\
  =========                 |
  \\      /  F ield         | OpenFOAM: The Open Source CFD Toolbox
   \\    /   O peration     | Website:  https://openfoam.org
    \\  /    A nd           | Version:  8
     \\/     M anipulation  |
\*---------------------------------------------------------------------------*/
FoamFile
{
    version     2.0;
    format      ascii;
    class       volScalarField;
    location    "0.25";
    object      p_rgh;
}
// * * * * * * * * * * * * * * * * * * * * * * * * * * * * * * * * * * * * * //

dimensions      [1 -1 -2 0 0 0 0];

internalField   nonuniform List<scalar> 
9150
(
2529.85
2503.06
2477.86
2460.75
2452.47
2452.47
2460.75
2477.86
2503.06
2529.85
2520.95
2501.32
2485.92
2474.11
2468.21
2468.21
2474.11
2485.92
2501.32
2520.95
2511.3
2497.6
2489.42
2481.53
2477.52
2477.52
2481.53
2489.42
2497.6
2511.3
2506.46
2496.07
2491.05
2485.45
2482.55
2482.55
2485.45
2491.05
2496.07
2506.46
2505.08
2495.42
2491.44
2486.99
2484.55
2484.55
2486.99
2491.44
2495.42
2505.08
2064.46
2063.53
2086.77
2100.17
2107.03
2107.03
2100.17
2086.77
2063.53
2064.46
2254.17
2230.92
2225.3
2224
2224.21
2224.21
2224
2225.3
2230.92
2254.17
2376.11
2346.78
2331.56
2321.81
2317.29
2317.29
2321.81
2331.56
2346.78
2376.11
2475.63
2436.09
2409.54
2392.24
2383.74
2383.74
2392.24
2409.54
2436.09
2475.63
2554.72
2497.74
2458.88
2436.72
2426.49
2426.49
2436.72
2458.88
2497.74
2554.72
1876.68
1922.27
1915.17
1923.73
1919.25
1919.25
1923.73
1915.18
1922.28
1876.69
1904.77
1929.82
1912.4
1925.93
1916.59
1916.6
1925.93
1912.4
1929.82
1904.78
1900.63
1924.87
1885.97
1906.55
1899.23
1899.23
1906.54
1885.97
1924.87
1900.64
1747.14
1865.86
1860.17
1892.05
1905.46
1905.47
1892.05
1860.18
1865.87
1747.14
1566.93
1845.69
1928.44
1963.58
1981.78
1981.78
1963.58
1928.45
1845.69
1566.93
35.2026
35.2194
35.2319
35.2402
35.2443
35.244
35.2395
35.2307
35.2177
35.2005
35.1524
35.1682
35.1801
35.188
35.1918
35.1915
35.1872
35.1788
35.1664
35.1502
35.1115
35.1266
35.1379
35.1455
35.1491
35.1488
35.1446
35.1366
35.1247
35.1091
35.0984
35.1138
35.1253
35.1329
35.1365
35.1362
35.132
35.1238
35.1118
35.0959
35.1028
35.1188
35.1307
35.1386
35.1424
35.1421
35.1377
35.1293
35.1168
35.1005
35.1177
35.1345
35.1472
35.1556
35.1597
35.1595
35.1551
35.1463
35.1332
35.116
35.142
35.1601
35.1738
35.183
35.1875
35.1875
35.1828
35.1735
35.1595
35.1411
35.1768
35.1965
35.2116
35.2217
35.2268
35.2268
35.2217
35.2116
35.1964
35.1765
35.224
35.2457
35.2623
35.2735
35.2791
35.2791
35.2735
35.2623
35.2455
35.2235
35.2853
35.3095
35.3279
35.3402
35.3463
35.3462
35.3398
35.3271
35.3083
35.2837
35.3625
35.3897
35.4104
35.4241
35.4308
35.4304
35.4231
35.4087
35.3875
35.3597
35.4568
35.488
35.5115
35.5273
35.5349
35.5345
35.5261
35.5097
35.4856
35.4538
35.5715
35.6077
35.6356
35.6544
35.6637
35.6636
35.6541
35.6352
35.6072
35.5705
35.7572
35.8063
35.8432
35.8679
35.8803
35.8805
35.8683
35.8437
35.8066
35.7568
35.9042
35.9705
36.0134
36.0384
36.0492
36.0487
36.0372
36.0113
35.9673
35.9005
41.2935
42.2548
42.9855
43.4524
43.6497
43.6509
43.456
42.9904
42.2605
41.2996
199.087
203.212
206.304
208.221
208.99
208.996
208.24
206.328
203.242
199.125
323.25
323.351
323.477
323.542
323.559
323.554
323.526
323.444
323.304
323.202
354.461
354.869
355.134
355.301
355.38
355.382
355.305
355.143
354.884
354.485
385.477
385.701
385.853
385.955
386.009
386.015
385.969
385.875
385.735
385.524
413.975
414.173
414.314
414.41
414.46
414.459
414.41
414.317
414.183
413.997
441.909
442.087
442.21
442.292
442.332
442.329
442.285
442.205
442.09
441.926
468.967
469.089
469.172
469.227
469.255
469.255
469.23
469.182
469.11
469.002
495.109
495.159
495.194
495.223
495.243
495.252
495.249
495.236
495.213
495.173
520.324
520.305
520.3
520.307
520.322
520.337
520.351
520.365
520.385
520.412
544.587
544.527
544.5
544.494
544.502
544.515
544.532
544.558
544.602
544.671
567.86
567.81
567.79
567.786
567.788
567.792
567.8
567.815
567.846
567.907
590.165
590.181
590.207
590.227
590.236
590.234
590.221
590.201
590.18
590.172
611.614
611.746
611.854
611.926
611.961
611.96
611.921
611.846
611.737
611.61
632.382
632.664
632.886
633.035
633.112
633.117
633.048
632.904
632.685
632.406
652.682
653.125
653.471
653.706
653.831
653.843
653.743
653.526
653.193
652.758
672.718
673.305
673.761
674.073
674.237
674.255
674.124
673.842
673.409
672.836
692.645
693.344
693.881
694.246
694.438
694.455
694.298
693.965
693.455
692.773
712.559
713.343
713.93
714.326
714.531
714.544
714.365
713.995
713.431
712.663
732.505
733.354
733.971
734.381
734.59
734.597
734.403
734.01
733.408
732.57
752.489
753.387
754.027
754.442
754.65
754.652
754.45
754.044
753.411
752.518
772.556
773.435
774.091
774.506
774.709
774.708
774.506
774.094
773.441
772.56
792.711
793.447
794.114
794.533
794.73
794.728
794.528
794.11
793.443
792.7
812.918
813.363
814.025
814.461
814.659
814.657
814.455
814.018
813.352
812.896
833.538
833.363
833.883
834.308
834.499
834.496
834.301
833.873
833.348
833.513
853.694
853.014
853.404
853.867
854.082
854.08
853.861
853.397
853.002
853.674
873.805
872.721
872.83
873.261
873.491
873.491
873.26
872.828
872.716
873.791
893.901
892.634
892.194
892.476
892.701
892.704
892.485
892.206
892.645
893.904
912.289
911.805
910.99
911.16
911.414
911.427
911.194
911.034
911.849
912.321
929.376
930.274
929.367
929.444
929.72
929.748
929.513
929.453
930.364
929.448
945.415
948.772
947.764
947.595
947.823
947.857
947.682
947.881
948.905
945.517
959.535
967.178
966.14
965.547
965.659
965.692
965.636
966.266
967.327
959.634
972.934
984.564
983.879
982.993
982.996
983.026
983.076
983.997
984.693
973.003
986.846
1000.63
1000.65
999.776
999.747
999.773
999.846
1000.74
1000.72
986.882
987.364
1016.13
1017.03
1016.24
1016.18
1016.2
1016.29
1017.1
1016.19
986.982
887.655
1031.14
1033.6
1032.78
1032.56
1032.57
1032.81
1033.65
1031.17
886.379
744.475
1045.69
1049.98
1049.17
1048.78
1048.79
1049.2
1050.01
1045.7
742.943
619.137
1060.3
1065.98
1065.28
1064.77
1064.78
1065.3
1065.99
1060.3
617.577
515.053
1075.08
1081.55
1081.06
1080.51
1080.51
1081.07
1081.56
1075.07
513.58
422.765
1090.01
1096.81
1096.56
1096.04
1096.04
1096.56
1096.81
1090
421.436
344.974
1104.18
1111.96
1111.95
1111.5
1111.5
1111.96
1111.96
1104.05
343.859
285.579
1091.1
1127.14
1127.4
1127.01
1127.01
1127.4
1127.13
1090.37
284.609
237.104
1065.12
1142.44
1142.93
1142.62
1142.62
1142.93
1142.44
1064.44
236.211
196.422
1047.14
1158.01
1158.59
1158.37
1158.37
1158.59
1158.01
1046.46
195.612
163.241
1032.2
1173.85
1174.44
1174.29
1174.29
1174.44
1173.85
1031.46
162.516
136.663
1017.47
1189.94
1190.46
1190.4
1190.4
1190.46
1189.94
1016.66
136.008
115.498
1004.13
1206.26
1206.67
1206.69
1206.69
1206.67
1206.26
1003.28
114.9
98.6988
993.942
1222.45
1223.11
1223.2
1223.2
1223.11
1222.43
993.072
98.1438
85.3488
987.334
1239.17
1239.77
1239.93
1239.93
1239.77
1239.18
986.455
84.8271
75.0944
984.486
1256.33
1256.66
1256.89
1256.89
1256.66
1256.33
983.604
74.6029
67.6375
985.482
1273.74
1273.78
1274.07
1274.07
1273.78
1273.75
984.602
67.1703
62.6218
990.283
1291.37
1291.13
1291.47
1291.47
1291.13
1291.37
989.41
62.1727
59.8173
998.853
1309.2
1308.71
1309.09
1309.09
1308.7
1309.2
997.988
59.3814
58.7993
1010.46
1327.21
1326.48
1326.91
1326.91
1326.48
1327.21
1009.6
58.37
59.0221
1024.09
1345.38
1344.45
1344.92
1344.92
1344.45
1345.38
1023.24
58.5928
61.8688
1044.74
1363.72
1362.64
1363.13
1363.13
1362.63
1363.72
1043.96
61.4609
67.7183
1068.52
1382.2
1381.01
1381.52
1381.52
1381.01
1382.2
1067.75
67.305
74.2702
1093.07
1400.79
1399.53
1400.07
1400.06
1399.53
1400.79
1092.33
73.8579
83.0003
1121.13
1419.49
1418.21
1418.76
1418.76
1418.21
1419.48
1120.46
82.5965
94.2084
1152.25
1438.3
1437.04
1437.59
1437.59
1437.03
1438.29
1151.63
93.8131
107.734
1185.42
1457.21
1456
1456.56
1456.55
1455.99
1457.21
1184.87
107.351
123.913
1220.69
1476.23
1475.08
1475.63
1475.63
1475.07
1476.22
1220.2
123.548
143.098
1257.88
1495.34
1494.27
1494.81
1494.81
1494.26
1495.33
1257.46
142.756
165.571
1296.62
1514.53
1513.55
1514.08
1514.08
1513.54
1514.53
1296.27
165.258
191.667
1336.55
1533.8
1532.92
1533.42
1533.42
1532.91
1533.79
1336.26
191.385
221.745
1377.32
1553.13
1552.34
1552.83
1552.82
1552.34
1553.12
1377.1
221.498
256.177
1418.55
1572.51
1571.82
1572.27
1572.27
1571.81
1572.5
1418.37
255.965
295.354
1459.81
1591.92
1591.33
1591.75
1591.75
1591.32
1591.91
1459.68
295.174
339.692
1500.7
1611.34
1610.85
1611.24
1611.24
1610.84
1611.34
1500.6
339.54
389.605
1540.76
1630.76
1630.37
1630.74
1630.74
1630.37
1630.76
1540.69
389.474
445.458
1579.54
1650.16
1649.88
1650.24
1650.24
1649.88
1650.15
1579.49
445.341
507.515
1616.61
1669.51
1669.37
1669.74
1669.74
1669.37
1669.51
1616.57
507.402
575.892
1651.55
1688.81
1688.86
1689.27
1689.27
1688.86
1688.81
1651.52
575.774
650.537
1684.01
1708.07
1708.37
1708.85
1708.85
1708.37
1708.07
1683.99
650.409
731.248
1713.76
1727.29
1727.94
1728.56
1728.56
1727.94
1727.29
1713.74
731.105
817.742
1740.68
1746.52
1747.66
1748.49
1748.49
1747.66
1746.53
1740.67
817.586
909.818
1764.83
1765.84
1767.62
1768.76
1768.76
1767.63
1765.85
1764.84
909.652
1007.57
1786.4
1785.31
1787.91
1789.45
1789.45
1787.91
1785.32
1786.41
1007.4
1111.31
1805.82
1804.89
1808.48
1810.54
1810.55
1808.49
1804.9
1805.84
1111.14
1221.03
1823.94
1824.49
1829.19
1831.86
1831.86
1829.2
1824.51
1823.96
1220.89
1335.52
1841.48
1843.62
1849.36
1852.39
1852.4
1849.37
1843.64
1841.5
1335.41
1453.02
1856.68
1861.07
1867.28
1870.01
1870.02
1867.29
1861.09
1856.7
1452.94
1566.86
1870.09
1879.09
1883.1
1885.74
1885.74
1883.11
1879.11
1870.1
1566.83
1672.85
1898.2
1906.14
1899.41
1901.71
1901.71
1899.42
1906.15
1898.21
1672.85
1787.8
1937.15
1925.1
1913.91
1913.2
1913.21
1913.92
1925.1
1937.15
1787.81
35.178
35.1494
35.1161
35.0786
35.037
34.992
34.9438
34.893
34.8401
34.7857
34.7302
34.6742
34.6182
34.5628
34.5084
34.4555
34.404
34.3544
34.3066
34.2611
34.218
34.1774
34.1395
34.1044
34.0719
34.0422
34.0151
33.9907
33.9688
33.9494
33.9323
33.9175
33.9049
33.8942
33.8855
33.8787
33.8736
33.87
33.868
33.8673
35.1291
35.1021
35.0708
35.0354
34.9963
34.9538
34.9084
34.8605
34.8105
34.7589
34.7062
34.6529
34.5993
34.5459
34.493
34.441
34.3908
34.3424
34.2958
34.2515
34.2094
34.1698
34.1327
34.0982
34.0663
34.037
34.0103
33.9862
33.9645
33.9452
33.9283
33.9136
33.9009
33.8903
33.8816
33.8746
33.8694
33.866
33.8644
33.864
35.089
35.0634
35.0335
34.9998
34.9625
34.9219
34.8784
34.8325
34.7845
34.7348
34.684
34.6324
34.5805
34.5286
34.4772
34.4266
34.3773
34.3294
34.2833
34.2392
34.1972
34.1575
34.1203
34.0855
34.0534
34.0237
33.9967
33.9721
33.95
33.9303
33.913
33.898
33.8851
33.8744
33.8657
33.859
33.8542
33.8517
33.8512
33.8518
35.0755
35.0498
35.0199
34.986
34.9484
34.9076
34.8638
34.8175
34.7691
34.719
34.6676
34.6155
34.5629
34.5104
34.4584
34.4072
34.3572
34.3087
34.262
34.2173
34.1748
34.1346
34.0969
34.0617
34.0289
33.9988
33.9712
33.9461
33.9235
33.9034
33.8856
33.8702
33.8571
33.8463
33.8378
33.8315
33.8276
33.8265
33.8278
33.8294
35.0794
35.0529
35.022
34.987
34.9482
34.906
34.8606
34.8126
34.7623
34.7103
34.6568
34.6025
34.5478
34.493
34.4387
34.3853
34.3331
34.2824
34.2336
34.1869
34.1425
34.1006
34.0612
34.0245
33.9905
33.9593
33.9308
33.9049
33.8817
33.8612
33.8431
33.8276
33.8146
33.8042
33.7962
33.791
33.7886
33.7896
33.793
33.796
35.0938
35.066
35.0335
34.9967
34.9558
34.9112
34.8633
34.8125
34.7593
34.7042
34.6476
34.5899
34.5318
34.4736
34.4158
34.3588
34.3031
34.249
34.1969
34.147
34.0994
34.0546
34.0125
33.9733
33.9371
33.9039
33.8737
33.8466
33.8224
33.8012
33.7828
33.7674
33.7548
33.7451
33.7384
33.7348
33.7349
33.739
33.7456
33.7505
35.1175
35.0877
35.0531
35.0137
34.9699
34.9221
34.8707
34.8162
34.759
34.6996
34.6385
34.5763
34.5134
34.4504
34.3878
34.3261
34.2657
34.2069
34.1502
34.0959
34.0441
33.9952
33.9494
33.9068
33.8675
33.8315
33.799
33.7698
33.7441
33.7217
33.7028
33.6872
33.675
33.6663
33.6612
33.66
33.6635
33.6722
33.6835
33.6914
35.1508
35.1186
35.081
35.0382
34.9907
34.9388
34.8829
34.8235
34.761
34.696
34.6291
34.5609
34.4918
34.4226
34.3537
34.2857
34.219
34.1543
34.0917
34.0317
33.9745
33.9205
33.8699
33.8229
33.7796
33.7401
33.7045
33.6727
33.6449
33.6209
33.6009
33.5849
33.5729
33.5652
33.5617
33.5632
33.5706
33.5853
33.6037
33.6163
35.1952
35.1596
35.1182
35.0712
35.019
34.9619
34.9004
34.8348
34.7657
34.6936
34.6192
34.5431
34.4661
34.3888
34.3117
34.2357
34.1611
34.0887
34.0187
33.9516
33.8877
33.8274
33.771
33.7186
33.6705
33.6267
33.5873
33.5524
33.5219
33.496
33.4746
33.4578
33.4458
33.4387
33.4369
33.4409
33.4526
33.4746
33.5024
33.5217
35.252
35.2122
35.1661
35.1139
35.056
34.9927
34.9243
34.8512
34.7739
34.6929
34.6091
34.5231
34.4359
34.3482
34.2607
34.1742
34.0895
34.0072
33.9278
33.8519
33.7797
33.7117
33.6483
33.5896
33.5359
33.4871
33.4434
33.4048
33.3714
33.3431
33.32
33.3022
33.2899
33.2834
33.2831
33.2898
33.306
33.3361
33.3754
33.403
35.3237
35.2785
35.2265
35.168
35.1035
35.0331
34.9568
34.8748
34.7874
34.6953
34.5996
34.5012
34.4012
34.3003
34.1995
34.0997
34.0019
33.907
33.8156
33.7284
33.6459
33.5685
33.4967
33.4306
33.3704
33.316
33.2676
33.225
33.1884
33.1576
33.1327
33.1138
33.1012
33.0952
33.0964
33.106
33.1274
33.1664
33.2184
33.2555
35.4123
35.3604
35.3014
35.2361
35.1648
35.0871
35.0022
34.9096
34.8096
34.7032
34.592
34.4778
34.3618
34.2445
34.1269
34.0103
33.8958
33.7848
33.6781
33.5766
33.4811
33.3921
33.3101
33.2353
33.1676
33.1071
33.0536
33.0069
32.967
32.9338
32.9073
32.8876
32.8749
32.8698
32.8728
32.8858
32.913
32.9618
33.0274
33.0746
35.522
35.4606
35.3918
35.3178
35.2399
35.1566
35.0649
34.9623
34.8479
34.723
34.5914
34.4569
34.3208
34.1826
34.0432
33.9047
33.7688
33.6369
33.5106
33.391
33.2792
33.1759
33.0817
32.9965
32.9204
32.8531
32.7942
32.7435
32.7007
32.6655
32.6379
32.6179
32.6058
32.6021
32.6078
32.6249
32.6588
32.7182
32.798
32.8557
35.6896
35.6047
35.5113
35.4162
35.3261
35.2376
35.1414
35.0326
34.9086
34.7683
34.6132
34.4528
34.2922
34.1267
33.9567
33.7872
33.6221
33.462
33.3092
33.1657
33.0333
32.9125
32.8037
32.7066
32.621
32.5464
32.4821
32.4277
32.3825
32.3462
32.3183
32.299
32.2884
32.2872
32.2966
32.3189
32.3605
32.4311
32.5258
32.5942
35.8072
35.7077
35.6176
35.5494
35.5008
35.4365
35.3344
35.1976
35.0281
34.8267
34.6074
34.4078
34.2474
34.0745
33.8743
33.6663
33.4642
33.2652
33.0742
32.897
32.7369
32.5943
32.4681
32.3574
32.2614
32.1792
32.1098
32.0523
32.0057
31.9693
31.9425
31.9253
31.9176
31.9203
31.9347
31.9635
32.0138
32.0963
32.2063
32.2854
40.0888
38.7995
37.6424
36.5772
36.0632
36.0461
35.9783
35.8116
35.4424
34.861
34.3853
34.2029
34.103
33.9412
33.7236
33.4853
33.2745
33.0397
32.8037
32.5811
32.3843
32.2145
32.0679
31.9416
31.8342
31.7443
31.6703
31.6106
31.564
31.5291
31.5052
31.4918
31.4889
31.4972
31.5182
31.5551
31.6152
31.7104
31.8358
31.9257
193.281
184.757
172.982
158.222
142.005
123.29
103.242
83.0176
64.1437
48.6423
38.8374
35.473
35.1198
34.1198
33.3209
33.0582
32.9537
32.7127
32.4581
32.1994
31.9656
31.7662
31.5972
31.4537
31.3338
31.2359
31.1579
31.0974
31.0525
31.0212
31.0022
30.9948
30.9987
31.0147
31.0444
31.0911
31.1626
31.2713
31.4125
31.5135
323.318
323.485
323.984
323.694
319.465
312.297
301.895
287.03
265.743
234.741
189.967
141.351
94.2371
57.6662
38.426
34.281
32.8304
32.242
32.028
31.7368
31.4918
31.2665
31.0643
30.8955
30.7591
30.6515
30.5694
30.5093
30.468
30.4428
30.4314
30.4324
30.4456
30.4714
30.5118
30.5705
30.6553
30.7783
30.9359
31.0529
353.865
353.207
352.508
351.639
350.512
349.139
347.602
346.048
344.729
344.137
344.963
333.679
307.832
261.671
188.757
112.272
54.9467
34.4623
31.9148
31.209
31.0055
30.7693
30.5063
30.2831
30.1152
29.9918
29.9036
29.8447
29.8094
29.7932
29.7925
29.8048
29.8293
29.8664
29.9178
29.9879
30.0831
30.2102
30.3695
30.5591
385.165
384.681
384.089
383.33
382.348
381.121
379.644
377.905
375.887
373.552
370.829
367.903
365.405
364.406
362.233
330.741
257.385
148.354
58.1806
31.8049
30.5363
30.1932
29.8732
29.5944
29.3906
29.2483
29.1552
29.1007
29.0762
29.074
29.0885
29.116
29.1545
29.2039
29.2659
29.3457
29.4521
29.5923
29.7543
29.9732
413.695
413.235
412.652
411.933
411.053
409.994
408.744
407.289
405.607
403.662
401.385
398.706
395.619
392.097
388.204
385.03
385.104
359.895
264.219
120.428
37.5064
29.7552
29.1471
28.8329
28.5906
28.421
28.323
28.2789
28.2725
28.2918
28.3286
28.3773
28.435
28.5013
28.5784
28.6727
28.7959
28.9552
29.1234
29.3087
441.647
441.225
440.692
440.036
439.234
438.262
437.094
435.701
434.047
432.085
429.752
426.985
423.777
420.192
416.338
412.276
408.019
404.573
405.553
352.252
188.515
43.2824
28.6467
28.1459
27.8031
27.539
27.4207
27.3929
27.4127
27.4619
27.529
27.6058
27.6885
27.7763
27.8721
27.9831
28.1216
28.2943
28.4682
28.6243
468.802
468.488
468.089
467.596
466.986
466.229
465.289
464.114
462.623
460.687
458.137
454.831
450.782
446.189
441.426
436.878
432.722
428.829
425.215
424.769
400.229
209.951
34.2533
27.6298
26.9253
26.5028
26.4016
26.4351
26.5095
26.6047
26.7125
26.8248
26.9369
27.0488
27.1638
27.2897
27.4387
27.6169
27.7933
27.9294
495.078
494.917
494.716
494.474
494.175
493.797
493.301
492.612
491.588
490.052
487.847
484.725
480.207
473.771
466.172
459.155
453.701
449.626
446.303
443.374
443.736
414.676
126.494
27.4913
26.0249
25.4355
25.3578
25.478
25.6251
25.7743
25.9253
26.0726
26.2124
26.3453
26.4757
26.6117
26.7649
26.9414
27.1139
27.239
520.431
520.446
520.486
520.567
520.704
520.909
521.177
521.472
521.844
522.617
523.785
522.964
513.002
487.998
477.092
474.773
469.692
465.634
463.138
461.206
459.875
465.189
330.107
40.5823
24.6494
24.3281
24.425
24.636
24.8448
25.0399
25.2236
25.3943
25.5508
25.6947
25.8313
25.9689
26.1186
26.2864
26.4491
26.5633
544.776
544.936
545.183
545.56
546.115
546.896
547.95
549.517
552.359
556.849
556.062
472.663
308.651
194.119
205.619
298.854
435.329
476.484
475.355
475.462
475.879
479.176
458.687
100.197
23.1174
23.5721
23.8193
24.0441
24.2659
24.4725
24.6603
24.8298
24.982
25.1196
25.248
25.3753
25.5121
25.6644
25.812
25.9145
568.024
568.221
568.528
568.988
569.643
570.517
571.818
574.362
578.549
575.298
412.307
141.133
16.7505
0.898368
-0.20543
28.276
176.906
407.153
486.251
487.325
490.001
494.253
497.777
198.288
22.9936
23.4107
23.5752
23.7419
23.9214
24.0934
24.2496
24.3893
24.5136
24.625
24.7287
24.8327
24.9472
25.078
25.2073
25.2975
590.21
590.316
590.504
590.796
591.187
591.791
593.309
596.37
595.26
437.937
97.9194
0.443186
-0.216858
-0.414792
-0.445227
-0.551809
8.00598
146.303
418.119
500.596
502.744
509.092
517.982
251.85
22.986
23.3296
23.4413
23.5604
23.698
23.8291
23.9434
24.0402
24.1218
24.1922
24.2577
24.3273
24.4117
24.5174
24.6277
24.706
611.493
611.396
611.316
611.227
611.157
611.599
613.392
613.118
529.339
129.312
-0.213502
-0.538465
-0.570551
-0.539182
-0.529788
-0.540753
-0.687585
3.26146
173.305
506.864
514.165
522.618
533.586
249.981
22.8882
23.2399
23.3417
23.4376
23.544
23.6357
23.7034
23.7484
23.7756
23.792
23.807
23.8319
23.88
23.9592
24.0523
24.1208
632.085
631.711
631.252
630.675
630.263
630.847
631.066
604.818
233.706
2.84901
-0.619303
-0.636737
-0.612256
-0.61278
-0.627643
-0.632931
-0.63884
-0.839899
21.0054
375.449
529.77
534.87
544.066
223.212
22.7711
23.1937
23.3036
23.3834
23.4583
23.5034
23.5115
23.4883
23.4438
23.3895
23.3389
23.3075
23.3126
23.3654
23.4464
23.5094
652.221
651.539
650.668
649.727
649.398
649.568
642.028
389.89
26.4021
-0.733629
-0.811637
-0.759858
-0.729799
-0.723056
-0.72513
-0.72528
-0.709433
-0.702525
-0.828418
163.794
553.46
548.713
556.209
220.354
22.6801
23.273
23.3793
23.4238
23.4499
23.428
23.3506
23.2308
23.087
22.9379
22.8019
22.6994
22.6537
22.6814
22.7591
22.824
672.099
671.119
669.933
669.022
668.938
665.386
548.665
89.3413
-0.787105
-0.951245
-0.893942
-0.842
-0.818198
-0.807478
-0.80257
-0.796656
-0.772775
-0.743495
-0.945747
40.6754
460.17
571.257
575.74
335.903
22.8219
23.6368
23.6804
23.6291
23.553
23.4144
23.199
22.9325
22.6464
22.368
22.1212
21.9302
21.8246
21.8301
21.9187
21.9986
691.861
690.644
689.43
688.998
687.782
661.131
224.054
-0.0798913
-0.943352
-0.950972
-0.916637
-0.897933
-0.88762
-0.880417
-0.876059
-0.874128
-0.868977
-0.853313
-0.863105
-0.963781
170.32
583.334
579.353
486.544
56.133
23.6151
23.9266
23.9644
23.7871
23.4732
23.0126
22.505
22.0129
21.5642
21.1807
20.8866
20.7155
20.7056
20.8269
20.9429
711.609
710.319
709.509
709.234
702.009
448.499
25.3012
-0.964492
-1.03257
-0.999143
-0.976085
-0.964042
-0.955139
-0.94802
-0.9432
-0.940835
-0.93759
-0.922111
-0.900498
-1.00505
10.205
287.426
585.705
564.663
230.234
19.4892
23.4594
24.0711
24.0914
23.719
22.8265
21.8606
21.0308
20.3515
19.8078
19.4065
19.1762
19.167
19.3532
19.5367
731.441
730.39
730.242
727.939
670.143
125.92
-0.809447
-1.11571
-1.08951
-1.05095
-1.03448
-1.02538
-1.0184
-1.01348
-1.01128
-1.01214
-1.01565
-1.01921
-1.01882
-1.02994
-1.12646
5.39245
239.711
490.586
407.813
224.212
64.4317
28.8353
23.8324
22.5616
21.7979
20.5275
19.3625
18.4472
17.7553
17.274
17.0174
17.0431
17.3374
17.6305
751.463
751.018
750.899
741.348
387.961
9.07484
-1.12287
-1.16425
-1.12611
-1.10455
-1.09382
-1.0858
-1.07954
-1.07581
-1.07521
-1.07808
-1.08494
-1.0962
-1.11123
-1.12406
-1.13308
-1.21109
-1.73991
98.2075
435.236
488.847
460.623
292.891
116.732
31.1008
19.0051
17.8262
16.697
15.6107
14.7899
14.2776
14.0564
14.1699
14.6191
15.0649
771.847
772.137
769.756
706.116
98.0774
-0.939214
-1.23976
-1.21169
-1.17459
-1.15916
-1.15009
-1.14235
-1.13639
-1.133
-1.13256
-1.13533
-1.14164
-1.15182
-1.16603
-1.18372
-1.20066
-1.20872
-1.22365
-1.37947
140.02
518.485
595.419
602.712
543.012
330.03
87.9365
15.0666
13.7873
12.1637
10.9579
10.3596
10.2164
10.4672
11.1021
11.7265
792.627
793.066
783.754
420.476
9.63237
-1.24501
-1.28984
-1.24687
-1.22341
-1.21216
-1.20331
-1.19545
-1.18928
-1.18527
-1.18361
-1.18441
-1.18764
-1.19315
-1.20072
-1.21038
-1.22114
-1.22479
-1.20438
-1.19792
-1.31044
97.9596
551.996
626.742
628.792
636.009
504.498
153.159
10.1213
8.16261
6.21518
5.51016
5.55953
6.01893
6.84899
7.64839
813.484
812.214
780.724
128.592
-0.994789
-1.34464
-1.32054
-1.28309
-1.26881
-1.26064
-1.25261
-1.24511
-1.2389
-1.23429
-1.23141
-1.23033
-1.23098
-1.23308
-1.23622
-1.24001
-1.24407
-1.24658
-1.24216
-1.22609
-1.21327
-1.15368
148.585
656.215
657.619
662.578
668.983
495.276
14.8639
2.32484
-0.722345
-0.652229
0.184046
1.10643
2.1764
3.11403
834.644
828.39
581.422
26.4763
-1.25697
-1.38355
-1.34862
-1.32483
-1.31526
-1.3079
-1.30025
-1.29304
-1.28678
-1.28169
-1.27786
-1.27536
-1.27413
-1.27398
-1.27456
-1.27543
-1.27629
-1.27666
-1.27441
-1.26384
-1.24532
-1.25952
12.7181
437.308
684.093
692.151
696.067
542.416
30.9098
-7.85389
-6.43201
-5.29654
-4.13166
-3.00724
-1.92211
-1.03752
854.102
838.994
253.084
0.767285
-1.4335
-1.42705
-1.38671
-1.37064
-1.36283
-1.35525
-1.34759
-1.34048
-1.3342
-1.32883
-1.32445
-1.32115
-1.31894
-1.31777
-1.31751
-1.31806
-1.31939
-1.32157
-1.32419
-1.32492
-1.3211
-1.31852
-1.26329
134.84
670.533
725.447
574.219
166.68
6.46413
-11.8754
-8.48083
-7.16653
-6.13522
-5.21057
-4.44693
-3.77729
872.228
817.54
89.6211
-1.13616
-1.46184
-1.44386
-1.41699
-1.40973
-1.40557
-1.39985
-1.39341
-1.38716
-1.38139
-1.37626
-1.37191
-1.36849
-1.36611
-1.36487
-1.36485
-1.36618
-1.3691
-1.37396
-1.38079
-1.388
-1.39106
-1.39003
-1.41502
-0.217974
190.045
370.332
86.5447
-6.68032
-8.68553
-9.29121
-7.8965
-6.86218
-6.08253
-5.54157
-5.21885
-4.84589
887.424
579.955
27.978
-1.3871
-1.51954
-1.48681
-1.46563
-1.45858
-1.45329
-1.44716
-1.44086
-1.43491
-1.42946
-1.42465
-1.42062
-1.41757
-1.41575
-1.41541
-1.4169
-1.42061
-1.42707
-1.43697
-1.45088
-1.46863
-1.48838
-1.50385
-1.49885
-1.45946
-1.58971
-3.74309
-5.16314
-5.673
-6.03591
-5.75766
-5.38626
-5.05905
-4.84154
-4.75354
-4.81683
-4.74915
898.716
291.523
1.72134
-1.57426
-1.57384
-1.53166
-1.5151
-1.50811
-1.5017
-1.49513
-1.48887
-1.48312
-1.47793
-1.47341
-1.46973
-1.46716
-1.46606
-1.46696
-1.47049
-1.47748
-1.48892
-1.50624
-1.53151
-1.56764
-1.61851
-1.68922
-1.789
-1.94557
-2.231
-2.64179
-3.09304
-3.47891
-3.61981
-3.6791
-3.76326
-3.72264
-3.74432
-3.84946
-4.08166
-4.22932
908.596
150.119
-1.26364
-1.61391
-1.59157
-1.56217
-1.5549
-1.55168
-1.54705
-1.54164
-1.53621
-1.53101
-1.52616
-1.52181
-1.51817
-1.51556
-1.51442
-1.51545
-1.51955
-1.52753
-1.53997
-1.55747
-1.58086
-1.61112
-1.6493
-1.69685
-1.75814
-1.84557
-1.97546
-2.13137
-2.30459
-2.49102
-2.60471
-2.75653
-2.95639
-2.96129
-3.0233
-3.16733
-3.43559
-3.70293
811.448
77.9591
-1.39704
-1.63765
-1.62136
-1.60331
-1.60008
-1.59812
-1.59422
-1.5894
-1.5844
-1.57944
-1.57462
-1.57003
-1.56581
-1.56215
-1.55951
-1.55896
-1.56246
-1.57084
-1.5835
-1.59967
-1.61889
-1.64065
-1.66406
-1.6882
-1.71375
-1.74533
-1.79054
-1.85111
-1.91823
-1.99102
-2.10212
-2.24026
-2.40252
-2.43159
-2.5091
-2.66344
-2.93035
-3.25282
569.124
22.0477
-1.62192
-1.71488
-1.68004
-1.66079
-1.6544
-1.64959
-1.64428
-1.63894
-1.63379
-1.6288
-1.62383
-1.61873
-1.61336
-1.60756
-1.60102
-1.59496
-1.59538
-1.60525
-1.6213
-1.63852
-1.6551
-1.67031
-1.68287
-1.69133
-1.69582
-1.69983
-1.70917
-1.72781
-1.75452
-1.79021
-1.84878
-1.94013
-2.02865
-2.08262
-2.17447
-2.32764
-2.57033
-2.88733
371.609
0.792098
-1.77526
-1.76568
-1.72596
-1.71073
-1.70433
-1.69876
-1.69333
-1.68835
-1.68382
-1.67957
-1.67539
-1.67116
-1.66683
-1.66117
-1.64986
-1.61959
-1.61333
-1.62799
-1.65336
-1.6782
-1.69528
-1.70695
-1.71319
-1.7124
-1.70505
-1.69655
-1.69368
-1.69798
-1.71002
-1.7316
-1.76582
-1.81526
-1.87023
-1.93269
-2.0264
-2.16548
-2.3662
-2.62816
258.104
-1.50962
-1.80812
-1.78481
-1.75824
-1.75126
-1.74832
-1.74474
-1.74098
-1.73763
-1.73482
-1.73257
-1.73113
-1.73112
-1.73156
-1.72354
-1.56096
-1.0117
-1.0788
-1.53913
-1.69932
-1.73262
-1.74818
-1.75629
-1.75787
-1.70848
-1.69135
-1.71161
-1.71643
-1.72008
-1.73053
-1.74851
-1.77612
-1.81471
-1.85236
-1.92484
-2.01111
-2.1304
-2.28715
-2.47382
174.308
-1.61429
-1.83022
-1.81298
-1.79616
-1.79381
-1.79321
-1.79135
-1.7892
-1.78748
-1.78653
-1.78682
-1.78951
-1.79437
-1.79062
-1.58829
-0.810998
-0.722244
-0.742648
-1.07952
-1.75655
-1.80357
-1.81283
-1.81416
-1.75687
-1.64742
-1.63404
-1.72608
-1.76276
-1.76929
-1.78402
-1.80454
-1.83185
-1.86728
-1.90335
-1.9767
-2.05328
-2.15308
-2.2743
-2.39365
98.4993
-1.69668
-1.87342
-1.85674
-1.84278
-1.84129
-1.841
-1.83963
-1.8382
-1.83748
-1.83802
-1.84101
-1.84787
-1.8525
-1.69041
-0.825846
-0.767168
-0.779547
-0.800802
-0.943757
-1.81666
-1.8784
-1.87584
-1.79624
-1.7108
-1.70299
-1.695
-1.71915
-1.82148
-1.83109
-1.84925
-1.87357
-1.89818
-1.92676
-1.95892
-2.02938
-2.098
-2.18098
-2.27733
-2.35252
44.6057
-1.79165
-1.92533
-1.90725
-1.89422
-1.89175
-1.89037
-1.88836
-1.88663
-1.88587
-1.88676
-1.89063
-1.89754
-1.89565
-1.21608
-0.824318
-0.816568
-0.827408
-0.859951
-1.57213
-1.94592
-1.94116
-1.88969
-1.76993
-1.76123
-1.75236
-1.74357
-1.74556
-1.87422
-1.88865
-1.90564
-1.93135
-1.93313
-1.95009
-1.99239
-2.05701
-2.11986
-2.18843
-2.26878
-2.32529
16.0753
-1.92676
-1.98768
-1.96344
-1.94962
-1.94437
-1.94043
-1.93669
-1.93366
-1.93169
-1.93112
-1.93246
-1.93485
-1.93076
-1.4302
-0.872812
-0.861782
-1.05352
-1.71487
-1.99309
-1.99172
-1.9811
-1.94882
-1.81133
-1.80072
-1.78763
-1.77776
-1.81327
-1.92638
-1.92773
-1.93466
-1.95261
-1.91258
-1.9211
-2.01182
-2.05932
-2.1135
-2.16988
-2.24059
-2.29763
3.03545
-2.0477
-2.04517
-2.01627
-2.0023
-1.99492
-1.98892
-1.98374
-1.97959
-1.97648
-1.97435
-1.97295
-1.97158
-1.96858
-1.9649
-1.46463
-1.55905
-2.01266
-2.02665
-2.026
-2.01839
-2.00941
-2.00079
-1.95603
-1.82677
-1.81694
-1.88695
-1.9571
-1.95514
-1.94168
-1.93234
-1.93884
-1.89215
-1.91061
-2.00645
-2.04068
-2.08296
-2.13134
-2.19711
-2.26338
-1.39275
-2.10039
-2.08018
-2.05712
-2.04677
-2.04022
-2.03436
-2.02924
-2.02509
-2.02194
-2.01961
-2.01683
-2.01563
-2.01491
-2.01378
-2.02215
-2.03844
-2.04898
-2.05113
-2.04991
-2.04633
-2.04031
-2.03167
-2.01981
-1.99174
-1.9967
-1.99432
-1.97933
-1.95698
-1.878
-1.9145
-1.91127
-1.8728
-1.88401
-1.97857
-2.00614
-2.04125
-2.08632
-2.14963
-2.22382
-1.99869
-2.12277
-2.1085
-2.09412
-2.08788
-2.08321
-2.0785
-2.07422
-2.07073
-2.06814
-2.06544
-2.0638
-2.06386
-2.06512
-2.06795
-2.07185
-2.07804
-2.08318
-2.08528
-2.08478
-2.08166
-2.07566
-2.06649
-2.0543
-2.03993
-2.02231
-2.00037
-1.97753
-1.93562
-1.8517
-1.86992
-1.8939
-1.86243
-1.85817
-1.95209
-1.97489
-2.00692
-2.05047
-2.11089
-2.18605
-2.07171
-2.15717
-2.14617
-2.13571
-2.1311
-2.12731
-2.12336
-2.11977
-2.11693
-2.11481
-2.11199
-2.11189
-2.11274
-2.11444
-2.11827
-2.12188
-2.12521
-2.12765
-2.12825
-2.12652
-2.12212
-2.11461
-2.10354
-2.08847
-2.06921
-2.04552
-2.0181
-1.99051
-1.94469
-1.8627
-1.83819
-1.90081
-1.87284
-1.85069
-1.94342
-1.96253
-1.99212
-2.03378
-2.0895
-2.1583
-2.13765
-2.20005
-2.18968
-2.18057
-2.17626
-2.17269
-2.16914
-2.16608
-2.16382
-2.16213
-2.16018
-2.16077
-2.16226
-2.16451
-2.16874
-2.17195
-2.1744
-2.1758
-2.17552
-2.17301
-2.16773
-2.15914
-2.14673
-2.12999
-2.10867
-2.08288
-2.05345
-2.02336
-1.99036
-1.88962
-1.86766
-1.93081
-1.90855
-1.86664
-1.95741
-1.97338
-2.00066
-2.0396
-2.08891
-2.14634
-2.20152
-2.24496
-2.23502
-2.22668
-2.22229
-2.21871
-2.21544
-2.21283
-2.21116
-2.21037
-2.20967
-2.21031
-2.21269
-2.2169
-2.22059
-2.22361
-2.22604
-2.22731
-2.22691
-2.22425
-2.2188
-2.21002
-2.19738
-2.18046
-2.15912
-2.13357
-2.10457
-2.07431
-2.04904
-1.93973
-1.92063
-1.98176
-1.96428
-1.90702
-1.99003
-2.00635
-2.03194
-2.06757
-2.10941
-2.15313
-2.26321
-2.28996
-2.28069
-2.27303
-2.26845
-2.26481
-2.26177
-2.25964
-2.2586
-2.25871
-2.25993
-2.26148
-2.26526
-2.26917
-2.27306
-2.27674
-2.27975
-2.28157
-2.28168
-2.27958
-2.27476
-2.26667
-2.25487
-2.23903
-2.21909
-2.19522
-2.16814
-2.13901
-2.11325
-2.02218
-1.9946
-2.00827
-2.03258
-1.97029
-2.01202
-2.06365
-2.08593
-2.11635
-2.14994
-2.17959
-2.32243
-2.3341
-2.32571
-2.31874
-2.31401
-2.31033
-2.30758
-2.30597
-2.30565
-2.30663
-2.30886
-2.31221
-2.31643
-2.32119
-2.32613
-2.33083
-2.33484
-2.33769
-2.33887
-2.33792
-2.33435
-2.32771
-2.31764
-2.30388
-2.28639
-2.26537