/*--------------------------------*- C++ -*----------------------------------*\
  =========                 |
  \\      /  F ield         | OpenFOAM: The Open Source CFD Toolbox
   \\    /   O peration     | Website:  https://openfoam.org
    \\  /    A nd           | Version:  8
     \\/     M anipulation  |
\*---------------------------------------------------------------------------*/
FoamFile
{
    version     2.0;
    format      ascii;
    class       surfaceScalarField;
    location    "0.25";
    object      phi;
}
// * * * * * * * * * * * * * * * * * * * * * * * * * * * * * * * * * * * * * //

dimensions      [0 3 -1 0 0 0 0];

internalField   nonuniform List<scalar> 
18095
(
1.54192e-07
-9.67734e-07
8.13543e-07
1.63278e-07
-1.24675e-06
1.23766e-06
1.2134e-07
-1.24219e-06
1.28413e-06
6.50899e-08
-1.26325e-06
1.3195e-06
-5.20903e-14
-1.28008e-06
1.34517e-06
-6.509e-08
-1.28008e-06
1.34517e-06
-1.2134e-07
-1.26325e-06
1.3195e-06
-1.63278e-07
-1.24219e-06
1.28413e-06
-1.54192e-07
-1.24675e-06
1.23766e-06
-9.67734e-07
8.13543e-07
1.10153e-07
-1.07789e-06
9.88614e-08
-1.23546e-06
7.25467e-08
-1.21588e-06
3.9911e-08
-1.23061e-06
-3.89916e-14
-1.24017e-06
-3.99111e-08
-1.24017e-06
-7.25468e-08
-1.23061e-06
-9.88614e-08
-1.21588e-06
-1.10154e-07
-1.23546e-06
-1.07789e-06
6.64033e-08
-1.14429e-06
5.2434e-08
-1.22149e-06
4.18289e-08
-1.20527e-06
2.37306e-08
-1.21251e-06
-3.30052e-14
-1.21644e-06
-2.37307e-08
-1.21644e-06
-4.1829e-08
-1.21251e-06
-5.2434e-08
-1.20527e-06
-6.64033e-08
-1.22149e-06
-1.14429e-06
3.94959e-08
-1.18379e-06
2.666e-08
-1.20865e-06
2.19377e-08
-1.20055e-06
1.24536e-08
-1.20303e-06
-2.72595e-14
-1.20398e-06
-1.24537e-08
-1.20398e-06
-2.19378e-08
-1.20303e-06
-2.66601e-08
-1.20055e-06
-3.94959e-08
-1.20865e-06
-1.18379e-06
1.6213e-08
7.56115e-09
7.01278e-09
3.98452e-09
-9.81506e-15
-3.98454e-09
-7.0128e-09
-7.56117e-09
-1.6213e-08
-1.66081e-07
-1.16925e-06
1.33533e-06
-2.08123e-07
-1.21326e-06
1.2553e-06
-1.6077e-07
-1.21127e-06
1.16392e-06
-8.64061e-08
-1.20373e-06
1.12937e-06
-6.24697e-13
-1.2025e-06
1.11609e-06
8.64048e-08
-1.2025e-06
1.11609e-06
1.60769e-07
-1.20373e-06
1.12936e-06
2.08121e-07
-1.21127e-06
1.16391e-06
1.6608e-07
-1.21326e-06
1.2553e-06
-1.16925e-06
1.33533e-06
-9.58764e-08
-1.07337e-06
-9.69366e-08
-1.2122e-06
-7.91952e-08
-1.22901e-06
-4.42309e-08
-1.23869e-06
-3.57963e-13
-1.24673e-06
4.42302e-08
-1.24673e-06
7.91946e-08
-1.23869e-06
9.69361e-08
-1.22901e-06
9.5876e-08
-1.2122e-06
-1.07337e-06
-5.83911e-08
-1.01498e-06
-5.58934e-08
-1.2147e-06
-4.66833e-08
-1.23822e-06
-2.70705e-08
-1.25831e-06
-1.85815e-13
-1.2738e-06
2.70702e-08
-1.2738e-06
4.6683e-08
-1.25831e-06
5.58932e-08
-1.23822e-06
5.8391e-08
-1.2147e-06
-1.01498e-06
-7.35401e-08
-9.41439e-07
-6.06154e-08
-1.22762e-06
-4.8016e-08
-1.25082e-06
-2.7542e-08
-1.27878e-06
-8.48944e-14
-1.30134e-06
2.75418e-08
-1.30134e-06
4.80159e-08
-1.27878e-06
6.06154e-08
-1.25082e-06
7.35402e-08
-1.22762e-06
-9.41439e-07
-1.27896e-07
-1.17856e-07
-8.45463e-08
-4.38303e-08
-5.84582e-14
4.38302e-08
8.45463e-08
1.17856e-07
1.27896e-07
-7.30662e-08
-9.54237e-07
1.0273e-06
-1.12477e-08
-1.33862e-06
1.2768e-06
5.46543e-09
-1.26641e-06
1.2497e-06
1.14658e-09
-1.22119e-06
1.22551e-06
-7.44355e-12
-1.21956e-06
1.22071e-06
-1.16228e-09
-1.21956e-06
1.22071e-06
-5.47863e-09
-1.22119e-06
1.2255e-06
1.12343e-08
-1.26641e-06
1.2497e-06
7.3048e-08
-1.33861e-06
1.2768e-06
-9.54217e-07
1.02726e-06
6.23591e-09
-9.60473e-07
1.4337e-08
-1.34672e-06
1.07458e-08
-1.26282e-06
5.23087e-09
-1.21568e-06
-5.76849e-12
-1.21432e-06
-5.24332e-09
-1.21432e-06
-1.07552e-08
-1.21568e-06
-1.43485e-08
-1.26282e-06
-6.24476e-09
-1.34671e-06
-9.60462e-07
2.74157e-08
-9.87888e-07
1.88e-08
-1.3381e-06
1.17647e-08
-1.25579e-06
4.24155e-09
-1.20815e-06
-3.96228e-12
-1.21007e-06
-4.24967e-09
-1.21007e-06
-1.17711e-08
-1.20815e-06
-1.8807e-08
-1.25579e-06
-2.74207e-08
-1.3381e-06
-9.87882e-07
7.19831e-08
-1.05987e-06
4.15557e-08
-1.30767e-06
2.89167e-08
-1.24315e-06
2.0731e-08
-1.19997e-06
-2.08582e-12
-1.18934e-06
-2.07334e-08
-1.18934e-06
-2.89208e-08
-1.19997e-06
-4.1559e-08
-1.24315e-06
-7.19862e-08
-1.30767e-06
-1.05987e-06
2.75456e-07
2.23084e-07
1.43851e-07
7.32487e-08
-1.07763e-12
-7.32506e-08
-1.43853e-07
-2.23086e-07
-2.75457e-07
-2.74357e-07
-6.69004e-08
3.41257e-07
-2.06443e-07
-6.79155e-08
-1.3776e-07
-6.86823e-08
-6.85625e-08
-6.91978e-08
8.68644e-10
-6.94311e-08
7.03037e-08
-6.9435e-08
1.39512e-07
-6.9208e-08
2.08209e-07
-6.86973e-08
2.76145e-07
-6.79357e-08
-6.69233e-08
3.43068e-07
-2.66967e-07
-1.3225e-07
3.32316e-07
-2.0077e-07
-1.34112e-07
-1.33906e-07
-1.35545e-07
-6.6577e-08
-1.36527e-07
1.01755e-09
-1.37025e-07
6.86135e-08
-1.37031e-07
1.35948e-07
-1.36542e-07
2.02821e-07
-1.3557e-07
2.69029e-07
-1.34144e-07
-1.32286e-07
3.34393e-07
-2.62539e-07
-1.96742e-07
3.2703e-07
-1.97311e-07
-1.9934e-07
-1.31512e-07
-2.01345e-07
-6.53223e-08
-2.02717e-07
1.06914e-09
-2.03417e-07
6.74601e-08
-2.03422e-07
1.33648e-07
-2.02731e-07
1.99445e-07
-2.01367e-07
2.64669e-07
-1.99368e-07
-1.96775e-07
3.29157e-07
-2.64291e-07
-2.6177e-07
3.2932e-07
-1.9857e-07
-2.6506e-07
-1.32323e-07
-2.67592e-07
-6.57176e-08
-2.69322e-07
1.06754e-09
-2.70202e-07
6.78519e-08
-2.70206e-07
1.34455e-07
-2.69333e-07
2.00698e-07
-2.6761e-07
2.66413e-07
-2.65083e-07
-2.61795e-07
3.31434e-07
-2.71439e-07
-3.28605e-07
3.38274e-07
-2.03925e-07
-3.32574e-07
-1.35893e-07
-3.35624e-07
-6.75115e-08
-3.37703e-07
1.04599e-09
-3.3876e-07
6.9603e-08
-3.38763e-07
1.37983e-07
-3.37713e-07
2.06011e-07
-3.35639e-07
2.73521e-07
-3.32593e-07
-3.28622e-07
3.40348e-07
-2.83249e-07
-3.98388e-07
3.53032e-07
-2.12787e-07
-4.03036e-07
-1.41809e-07
-4.06602e-07
-7.04823e-08
-4.0903e-07
1.01972e-09
-4.10262e-07
7.2521e-08
-4.10264e-07
1.43846e-07
-4.09037e-07
2.1482e-07
-4.06613e-07
2.85278e-07
-4.03051e-07
-3.984e-07
3.55056e-07
-2.98795e-07
-4.72065e-07
3.72472e-07
-2.24444e-07
-4.77387e-07
-1.49585e-07
-4.81462e-07
-7.43817e-08
-4.84232e-07
9.93726e-10
-4.85637e-07
7.63683e-08
-4.85639e-07
1.51569e-07
-4.84238e-07
2.26426e-07
-4.8147e-07
3.00773e-07
-4.77398e-07
-4.72075e-07
3.74447e-07
-3.16836e-07
-5.50299e-07
3.9507e-07
-2.37953e-07
-5.56269e-07
-1.58586e-07
-5.60829e-07
-7.88925e-08
-5.63926e-07
9.65572e-10
-5.65495e-07
8.08236e-08
-5.65497e-07
1.60517e-07
-5.63932e-07
2.39885e-07
-5.60837e-07
3.18766e-07
-5.56279e-07
-5.5031e-07
3.97001e-07
-3.35539e-07
-6.33335e-07
4.18575e-07
-2.51921e-07
-6.39887e-07
-1.67874e-07
-6.44876e-07
-8.35383e-08
-6.48262e-07
9.40409e-10
-6.49974e-07
8.54188e-08
-6.49976e-07
1.69753e-07
-6.48266e-07
2.538e-07
-6.44884e-07
3.37415e-07
-6.39895e-07
-6.33348e-07
4.20453e-07
-3.51856e-07
-7.20712e-07
4.39233e-07
-2.64039e-07
-7.27703e-07
-1.759e-07
-7.33015e-07
-8.75515e-08
-7.36611e-07
9.01057e-10
-7.38427e-07
8.93536e-08
-7.38428e-07
1.77702e-07
-7.36615e-07
2.65841e-07
-7.33023e-07
3.53659e-07
-7.27713e-07
-7.20727e-07
4.41039e-07
-3.60352e-07
-8.10688e-07
4.50328e-07
-2.7019e-07
-8.17866e-07
-1.79906e-07
-8.23299e-07
-8.9548e-08
-8.26968e-07
8.42362e-10
-8.28817e-07
9.12328e-08
-8.28819e-07
1.8159e-07
-8.26972e-07
2.71876e-07
-8.23308e-07
3.62037e-07
-8.17875e-07
-8.1071e-07
4.5202e-07
-3.51188e-07
-8.99179e-07
4.39679e-07
-2.62937e-07
-9.06117e-07
-1.74903e-07
-9.11333e-07
-8.70299e-08
-9.14841e-07
7.47726e-10
-9.16595e-07
8.85243e-08
-9.16595e-07
1.76394e-07
-9.14842e-07
2.64429e-07
-9.11344e-07
3.52678e-07
-9.06123e-07
-8.99217e-07
4.41184e-07
-3.08056e-07
-9.78161e-07
3.87039e-07
-2.30037e-07
-9.84136e-07
-1.52706e-07
-9.88664e-07
-7.59304e-08
-9.91617e-07
5.60349e-10
-9.93085e-07
7.70556e-08
-9.9309e-07
1.53852e-07
-9.91638e-07
2.31195e-07
-9.88687e-07
3.09261e-07
-9.84188e-07
-9.78196e-07
3.8824e-07
-2.13698e-07
-1.03536e-06
2.70898e-07
-1.58327e-07
-1.03951e-06
-1.04468e-07
-1.04252e-06
-5.17329e-08
-1.04435e-06
4.01053e-10
-1.04522e-06
5.25288e-08
-1.04522e-06
1.05251e-07
-1.04436e-06
1.59086e-07
-1.04252e-06
2.14435e-07
-1.03954e-06
-1.03536e-06
2.71601e-07
-8.85492e-08
-1.06201e-06
1.15197e-07
-6.43297e-08
-1.06373e-06
-4.19634e-08
-1.06489e-06
-2.07123e-08
-1.0656e-06
-6.55798e-12
-1.06593e-06
2.07037e-08
-1.06593e-06
4.1956e-08
-1.06561e-06
6.43365e-08
-1.0649e-06
8.85424e-08
-1.06374e-06
-1.06203e-06
1.15212e-07
-5.7769e-08
-1.07696e-06
7.27228e-08
-4.31899e-08
-1.07831e-06
-2.87818e-08
-1.0793e-06
-1.44212e-08
-1.07996e-06
-4.43477e-11
-1.0803e-06
1.43323e-08
-1.08031e-06
2.86931e-08
-1.07997e-06
4.3103e-08
-1.07931e-06
5.76851e-08
-1.07833e-06
-1.07699e-06
7.26426e-08
-5.38107e-08
-1.09053e-06
6.73791e-08
-4.03211e-08
-1.09179e-06
-2.68746e-08
-1.09274e-06
-1.34514e-08
-1.09339e-06
-3.8185e-11
-1.09372e-06
1.3375e-08
-1.09372e-06
2.67983e-08
-1.0934e-06
4.02456e-08
-1.09276e-06
5.37374e-08
-1.09182e-06
-1.09056e-06
6.73091e-08
-5.23471e-08
-1.10365e-06
6.5464e-08
-3.92451e-08
-1.1049e-06
-2.6159e-08
-1.10583e-06
-1.30894e-08
-1.10646e-06
-3.18655e-11
-1.10677e-06
1.30258e-08
-1.10678e-06
2.60957e-08
-1.10647e-06
3.91828e-08
-1.10585e-06
5.22854e-08
-1.10492e-06
-1.10368e-06
6.54046e-08
-5.03457e-08
-1.1163e-06
6.29937e-08
-3.77275e-08
-1.11751e-06
-2.51387e-08
-1.11842e-06
-1.25726e-08
-1.11902e-06
-1.9493e-11
-1.11933e-06
1.25336e-08
-1.11933e-06
2.50998e-08
-1.11903e-06
3.76884e-08
-1.11844e-06
5.03064e-08
-1.11754e-06
-1.11633e-06
6.29536e-08
-4.7842e-08
-1.12831e-06
5.98598e-08
-3.58529e-08
-1.1295e-06
-2.38887e-08
-1.13038e-06
-1.1943e-08
-1.13097e-06
-7.36186e-12
-1.13126e-06
1.19282e-08
-1.13126e-06
2.38737e-08
-1.13098e-06
3.58376e-08
-1.1304e-06
4.78266e-08
-1.12953e-06
-1.12834e-06
5.98435e-08
-4.50907e-08
-1.13964e-06
5.64119e-08
-3.37931e-08
-1.1408e-06
-2.2515e-08
-1.14166e-06
-1.12513e-08
-1.14223e-06
4.9805e-12
-1.14252e-06
1.12611e-08
-1.14252e-06
2.25246e-08
-1.14224e-06
3.38021e-08
-1.14168e-06
4.5099e-08
-1.14082e-06
-1.13966e-06
5.64195e-08
-4.22121e-08
-1.15022e-06
5.28002e-08
-3.16392e-08
-1.15137e-06
-2.10788e-08
-1.15222e-06
-1.05272e-08
-1.15278e-06
1.9643e-11
-1.15306e-06
1.05664e-08
-1.15307e-06
2.11176e-08
-1.15279e-06
3.16774e-08
-1.15224e-06
4.22493e-08
-1.1514e-06
-1.15025e-06
5.28364e-08
-3.93403e-08
-1.16006e-06
4.91779e-08
-2.94989e-08
-1.16122e-06
-1.96553e-08
-1.16207e-06
-9.81032e-09
-1.16263e-06
3.5141e-11
-1.16291e-06
9.88052e-09
-1.16291e-06
1.97252e-08
-1.16264e-06
2.95684e-08
-1.16208e-06
3.94091e-08
-1.16124e-06
-1.16009e-06
4.92459e-08
-3.66962e-08
-1.16919e-06
4.58202e-08
-2.75382e-08
-1.17037e-06
-1.83554e-08
-1.17125e-06
-9.15616e-09
-1.17183e-06
5.10795e-11
-1.17212e-06
9.25824e-09
-1.17212e-06
1.84572e-08
-1.17184e-06
2.76398e-08
-1.17126e-06
3.67973e-08
-1.17039e-06
-1.16921e-06
4.59209e-08
-3.45789e-08
-1.17772e-06
4.31114e-08
-2.59769e-08
-1.17898e-06
-1.73238e-08
-1.1799e-06
-8.63714e-09
-1.18051e-06
6.61661e-11
-1.18082e-06
8.76942e-09
-1.18082e-06
1.7456e-08
-1.18052e-06
2.61089e-08
-1.17992e-06
3.47107e-08
-1.179e-06
-1.17774e-06
4.32431e-08
-3.33341e-08
-1.18589e-06
4.1507e-08
-2.5064e-08
-1.18725e-06
-1.67223e-08
-1.18824e-06
-8.33331e-09
-1.1889e-06
7.90598e-11
-1.18923e-06
8.49142e-09
-1.18924e-06
1.68803e-08
-1.18891e-06
2.5222e-08
-1.18826e-06
3.34921e-08
-1.18727e-06
-1.18592e-06
4.1665e-08
-3.32573e-08
-1.19404e-06
4.14022e-08
-2.50099e-08
-1.19549e-06
-1.66861e-08
-1.19657e-06
-8.31131e-09
-1.19728e-06
8.89235e-11
-1.19763e-06
8.48917e-09
-1.19764e-06
1.6864e-08
-1.19729e-06
2.51878e-08
-1.19658e-06
3.3435e-08
-1.19551e-06
-1.19406e-06
4.15798e-08
-3.44661e-08
-1.20252e-06
4.29489e-08
-2.59006e-08
-1.20406e-06
-1.72714e-08
-1.2052e-06
-8.59888e-09
-1.20595e-06
9.54592e-11
-1.20633e-06
8.78975e-09
-1.20633e-06
1.74621e-08
-1.20596e-06
2.6091e-08
-1.20521e-06
3.46559e-08
-1.20408e-06
-1.20254e-06
4.31379e-08
-3.68475e-08
-1.21166e-06
4.59864e-08
-2.76591e-08
-1.21325e-06
-1.84303e-08
-1.21443e-06
-9.17317e-09
-1.21521e-06
9.86243e-11
-1.2156e-06
9.37026e-09
-1.2156e-06
1.8627e-08
-1.21522e-06
2.78549e-08
-1.21444e-06
3.7042e-08
-1.21326e-06
-1.21168e-06
4.61792e-08
-4.01017e-08
-1.22167e-06
5.0112e-08
-3.00731e-08
-1.22328e-06
-2.0027e-08
-1.22447e-06
-9.96777e-09
-1.22527e-06
9.85662e-11
-1.22567e-06
1.01646e-08
-1.22567e-06
2.02231e-08
-1.22527e-06
3.02677e-08
-1.22448e-06
4.02944e-08
-1.22329e-06
-1.22169e-06
5.0302e-08
-4.38344e-08
-1.23264e-06
5.48089e-08
-3.28575e-08
-1.23425e-06
-2.18765e-08
-1.23545e-06
-1.08916e-08
-1.23625e-06
9.56379e-11
-1.23665e-06
1.10825e-08
-1.23665e-06
2.20664e-08
-1.23626e-06
3.30456e-08
-1.23546e-06
4.40198e-08
-1.23427e-06
-1.23266e-06
5.49909e-08
-4.76595e-08
-1.24457e-06
5.95842e-08
-3.57281e-08
-1.24618e-06
-2.37917e-08
-1.24739e-06
-1.18516e-08
-1.24819e-06
9.03612e-11
-1.24859e-06
1.20319e-08
-1.2486e-06
2.39708e-08
-1.2482e-06
3.59051e-08
-1.2474e-06
4.78334e-08
-1.24619e-06
-1.24458e-06
5.97542e-08
-5.12753e-08
-1.25736e-06
6.40648e-08
-3.84575e-08
-1.259e-06
-2.56204e-08
-1.26023e-06
-1.27714e-08
-1.26104e-06
8.32659e-11
-1.26145e-06
1.29375e-08
-1.26145e-06
2.57852e-08
-1.26104e-06
3.862e-08
-1.26023e-06
5.14347e-08
-1.25901e-06
-1.25737e-06
6.422e-08
-5.44953e-08
-1.27089e-06
6.80309e-08
-4.08998e-08
-1.2726e-06
-2.72629e-08
-1.27386e-06
-1.36001e-08
-1.2747e-06
7.50122e-11
-1.27512e-06
1.37497e-08
-1.27513e-06
2.74112e-08
-1.27471e-06
4.10459e-08
-1.27387e-06
5.46383e-08
-1.2726e-06
-1.2709e-06
6.81697e-08
-5.72444e-08
-1.28505e-06
7.14044e-08
-4.29916e-08
-1.28685e-06
-2.86734e-08
-1.28818e-06
-1.43137e-08
-1.28906e-06
6.60541e-11
-1.2895e-06
1.44453e-08
-1.2895e-06
2.88038e-08
-1.28906e-06
4.312e-08
-1.28818e-06
5.73698e-08
-1.28685e-06
-1.28505e-06
7.15258e-08
-5.95292e-08
-1.29973e-06
7.42077e-08
-4.47315e-08
-1.30165e-06
-2.98479e-08
-1.30306e-06
-1.4909e-08
-1.304e-06
5.68675e-11
-1.30447e-06
1.50223e-08
-1.30447e-06
2.99601e-08
-1.304e-06
4.48417e-08
-1.30306e-06
5.96366e-08
-1.30165e-06
-1.29973e-06
7.43115e-08
-6.14022e-08
-1.31484e-06
7.65119e-08
-4.61558e-08
-1.31689e-06
-3.08092e-08
-1.31841e-06
-1.53969e-08
-1.31942e-06
4.74938e-11
-1.31991e-06
1.54915e-08
-1.31991e-06
3.09027e-08
-1.31941e-06
4.62474e-08
-1.31841e-06
6.14912e-08
-1.31689e-06
-1.31483e-06
7.65977e-08
-6.2944e-08
-1.33031e-06
7.84164e-08
-4.7323e-08
-1.33252e-06
-3.15948e-08
-1.33414e-06
-1.57958e-08
-1.33521e-06
3.82159e-11
-1.33575e-06
1.5872e-08
-1.33575e-06
3.167e-08
-1.33521e-06
4.73965e-08
-1.33413e-06
6.30152e-08
-1.33251e-06
-1.3303e-06
7.84846e-08
-6.42473e-08
-1.34612e-06
8.00583e-08
-4.82978e-08
-1.34846e-06
-3.22463e-08
-1.35019e-06
-1.61259e-08
-1.35133e-06
2.92344e-11
-1.3519e-06
1.6184e-08
-1.3519e-06
3.23035e-08
-1.35133e-06
4.83533e-08
-1.35018e-06
6.43007e-08
-1.34846e-06
-1.34611e-06
8.01087e-08
-6.5287e-08
-1.36219e-06
8.1351e-08
-4.90811e-08
-1.36467e-06
-3.27717e-08
-1.3665e-06
-1.6393e-08
-1.36771e-06
2.0439e-11
-1.36832e-06
1.64336e-08
-1.36832e-06
3.28114e-08
-1.36771e-06
4.91195e-08
-1.36649e-06
6.53235e-08
-1.36466e-06
-1.36217e-06
8.13849e-08
-6.62699e-08
-1.37852e-06
8.25985e-08
-4.98022e-08
-1.38114e-06
-3.32443e-08
-1.38306e-06
-1.663e-08
-1.38433e-06
1.26854e-11
-1.38496e-06
1.66552e-08
-1.38496e-06
3.32689e-08
-1.38432e-06
4.98258e-08
-1.38305e-06
6.62917e-08
-1.38113e-06
-1.3785e-06
8.26178e-08
-6.70155e-08
-1.39506e-06
8.35629e-08
-5.03417e-08
-1.39781e-06
-3.35966e-08
-1.3998e-06
-1.68071e-08
-1.40112e-06
4.95327e-12
-1.40177e-06
1.68168e-08
-1.40177e-06
3.36058e-08
-1.40111e-06
5.035e-08
-1.39979e-06
6.70226e-08
-1.3978e-06
-1.39505e-06
8.35681e-08
-6.74646e-08
-1.41181e-06
8.42143e-08
-5.06571e-08
-1.41462e-06
-3.38021e-08
-1.41666e-06
-1.69119e-08
-1.41801e-06
-2.76191e-12
-1.41868e-06
1.69063e-08
-1.41868e-06
3.37968e-08
-1.418e-06
5.06519e-08
-1.41665e-06
6.74589e-08
-1.41461e-06
-1.41179e-06
8.42076e-08
-6.78334e-08
-1.42874e-06
8.47639e-08
-5.09156e-08
-1.43154e-06
-3.39666e-08
-1.43361e-06
-1.69945e-08
-1.43498e-06
-1.09788e-11
-1.43566e-06
1.69728e-08
-1.43566e-06
3.39458e-08
-1.43497e-06
5.08957e-08
-1.4336e-06
6.78143e-08
-1.43152e-06
-1.42872e-06
8.47443e-08
-6.78141e-08
-1.44549e-06
8.45573e-08
-5.09319e-08
-1.44842e-06
-3.39825e-08
-1.45056e-06
-1.70063e-08
-1.45196e-06
-2.035e-11
-1.45265e-06
1.69657e-08
-1.45265e-06
3.39425e-08
-1.45195e-06
5.08928e-08
-1.45055e-06
6.77765e-08
-1.44841e-06
-1.44547e-06
8.45201e-08
-6.737e-08
-1.46209e-06
8.39728e-08
-5.05801e-08
-1.46521e-06
-3.37378e-08
-1.4674e-06
-1.68851e-08
-1.46881e-06
-3.05657e-11
-1.46951e-06
1.68242e-08
-1.4695e-06
3.3677e-08
-1.4688e-06
5.05201e-08
-1.46739e-06
6.7312e-08
-1.4652e-06
-1.46207e-06
8.39189e-08
-6.66168e-08
-1.47901e-06
8.35326e-08
-4.98873e-08
-1.48194e-06
-3.32378e-08
-1.48405e-06
-1.66284e-08
-1.48542e-06
-3.70778e-11
-1.4861e-06
1.65545e-08
-1.4861e-06
3.31639e-08
-1.48541e-06
4.98145e-08
-1.48404e-06
6.65466e-08
-1.48193e-06
-1.479e-06
8.34704e-08
-6.52524e-08
-1.49586e-06
8.21098e-08
-4.87983e-08
-1.49839e-06
-3.24952e-08
-1.50035e-06
-1.62541e-08
-1.50166e-06
-3.80767e-11
-1.50231e-06
1.6178e-08
-1.50231e-06
3.24195e-08
-1.50166e-06
4.87238e-08
-1.50035e-06
6.51803e-08
-1.49839e-06
-1.49586e-06
8.20437e-08
-6.30943e-08
-1.51179e-06
7.90175e-08
-4.7292e-08
-1.5142e-06
-3.15241e-08
-1.51612e-06
-1.57752e-08
-1.51741e-06
-3.62657e-11
-1.51805e-06
1.57028e-08
-1.51805e-06
3.14525e-08
-1.51741e-06
4.72213e-08
-1.51612e-06
6.30247e-08
-1.51419e-06
-1.51178e-06
7.89478e-08
-6.04323e-08
-1.52654e-06
7.51896e-08
-4.54269e-08
-1.5292e-06
-3.03123e-08
-1.53123e-06
-1.51741e-08
-1.53255e-06
-3.43684e-11
-1.53319e-06
1.51057e-08
-1.53319e-06
3.02444e-08
-1.53254e-06
4.536e-08
-1.53123e-06
6.03659e-08
-1.5292e-06
-1.52654e-06
7.51214e-08
-5.75969e-08
-1.54071e-06
7.1759e-08
-4.32255e-08
-1.54357e-06
-2.88247e-08
-1.54563e-06
-1.44254e-08
-1.54695e-06
-3.27611e-11
-1.54758e-06
1.43601e-08
-1.54758e-06
2.87602e-08
-1.54694e-06
4.31623e-08
-1.54563e-06
5.75357e-08
-1.54357e-06
-1.5407e-06
7.17002e-08
-5.4509e-08
-1.55454e-06
6.83415e-08
-4.07396e-08
-1.55734e-06
-2.71109e-08
-1.55926e-06
-1.35548e-08
-1.5605e-06
-3.13883e-11
-1.56111e-06
1.34922e-08
-1.56111e-06
2.7049e-08
-1.5605e-06
4.0679e-08
-1.55926e-06
5.44506e-08
-1.55734e-06
-1.55454e-06
6.82867e-08
-5.07203e-08
-1.56765e-06
6.38277e-08
-3.78231e-08
-1.57024e-06
-2.51332e-08
-1.57195e-06
-1.25568e-08
-1.57308e-06
-3.05674e-11
-1.57363e-06
1.24958e-08
-1.57363e-06
2.50726e-08
-1.57308e-06
3.77632e-08
-1.57195e-06
5.06616e-08
-1.57024e-06
-1.56765e-06
6.37711e-08
-4.62417e-08
-1.57964e-06
5.82316e-08
-3.44765e-08
-1.582e-06
-2.29025e-08
-1.58353e-06
-1.14404e-08
-1.58454e-06
-2.97399e-11
-1.58504e-06
1.1381e-08
-1.58504e-06
2.2843e-08
-1.58454e-06
3.4417e-08
-1.58353e-06
4.61821e-08
-1.58201e-06
-1.57964e-06
5.81717e-08
-4.13084e-08
-1.59032e-06
5.19926e-08
-3.08228e-08
-1.59249e-06
-2.04851e-08
-1.59386e-06
-1.0236e-08
-1.59479e-06
-2.94622e-11
-1.59525e-06
1.0177e-08
-1.59525e-06
2.04258e-08
-1.59479e-06
3.07628e-08
-1.59386e-06
4.12468e-08
-1.59249e-06
-1.59032e-06
5.19285e-08
-3.60822e-08
-1.5996e-06
4.53656e-08
-2.6963e-08
-1.60161e-06
-1.79338e-08
-1.60289e-06
-8.96536e-09
-1.60376e-06
-3.00546e-11
-1.60419e-06
8.90516e-09
-1.60419e-06
1.78734e-08
-1.60376e-06
2.69017e-08
-1.60289e-06
3.60189e-08
-1.60161e-06
-1.5996e-06
4.52995e-08
-3.07754e-08
-1.60749e-06
3.86598e-08
-2.30005e-08
-1.60938e-06
-1.5295e-08
-1.6106e-06
-7.6479e-09
-1.6114e-06
-3.11247e-11
-1.6118e-06
7.58558e-09
-1.6118e-06
1.52326e-08
-1.6114e-06
2.2938e-08
-1.6106e-06
3.07126e-08
-1.60938e-06
-1.60749e-06
3.85956e-08
-2.54539e-08
-1.61402e-06
3.19814e-08
-1.8994e-08
-1.61584e-06
-1.2618e-08
-1.61698e-06
-6.30911e-09
-1.61771e-06
-3.25053e-11
-1.61808e-06
6.24408e-09
-1.61808e-06
1.25529e-08
-1.61771e-06
1.89288e-08
-1.61697e-06
2.53885e-08
-1.61584e-06
-1.61401e-06
3.19157e-08
-2.00426e-08
-1.6192e-06
2.52279e-08
-1.49358e-08
-1.62095e-06
-9.91511e-09
-1.622e-06
-4.95873e-09
-1.62267e-06
-3.4177e-11
-1.623e-06
4.89034e-09
-1.623e-06
9.84656e-09
-1.62267e-06
1.4867e-08
-1.62199e-06
1.99735e-08
-1.62095e-06
-1.6192e-06
2.5159e-08
-1.46335e-08
-1.62305e-06
1.8485e-08
-1.08846e-08
-1.6247e-06
-7.21861e-09
-1.62566e-06
-3.61221e-09
-1.62628e-06
-3.54558e-11
-1.62658e-06
3.54127e-09
-1.62658e-06
7.14757e-09
-1.62627e-06
1.08134e-08
-1.62566e-06
1.45623e-08
-1.6247e-06
-1.62305e-06
1.84143e-08
-9.35229e-09
-1.62559e-06
1.1889e-08
-6.92652e-09
-1.62712e-06
-4.58268e-09
-1.62801e-06
-2.29552e-09
-1.62856e-06
-3.62439e-11
-1.62884e-06
2.22302e-09
-1.62884e-06
4.51014e-09
-1.62856e-06
6.85399e-09
-1.628e-06
9.27991e-09
-1.62712e-06
-1.62559e-06
1.18172e-08
-4.24397e-09
-1.62684e-06
5.49796e-09
-3.10083e-09
-1.62827e-06
-2.03565e-09
-1.62907e-06
-1.02318e-09
-1.62958e-06
-3.66612e-11
-1.62983e-06
9.49812e-10
-1.62983e-06
1.96231e-09
-1.62957e-06
3.02746e-09
-1.62907e-06
4.1705e-09
-1.62827e-06
-1.62684e-06
5.42495e-09
6.72119e-10
-1.62686e-06
-6.56098e-10
5.76646e-10
-1.62817e-06
4.1032e-10
-1.6289e-06
1.98154e-10
-1.62936e-06
-3.66234e-11
-1.62959e-06
-2.71282e-10
-1.62959e-06
-4.83419e-10
-1.62936e-06
-6.4942e-10
-1.6289e-06
-7.44175e-10
-1.62817e-06
-1.62686e-06
-7.28069e-10
5.35709e-09
-1.62569e-06
-6.52666e-09
4.08108e-09
-1.6269e-06
2.74211e-09
-1.62757e-06
1.36261e-09
-1.62798e-06
-3.69208e-11
-1.62819e-06
-1.43651e-09
-1.62819e-06
-2.816e-09
-1.62798e-06
-4.15504e-09
-1.62756e-06
-5.4312e-09
-1.62689e-06
-1.62569e-06
-6.6005e-09
9.80712e-09
-1.62339e-06
-1.21032e-08
7.40835e-09
-1.6245e-06
4.95476e-09
-1.62511e-06
2.46734e-09
-1.6255e-06
-3.68687e-11
-1.62569e-06
-2.54109e-09
-1.62569e-06
-5.02854e-09
-1.6255e-06
-7.48216e-09
-1.62511e-06
-9.8809e-09
-1.6245e-06
-1.62339e-06
-1.21769e-08
1.40054e-08
-1.62003e-06
-1.73671e-08
1.05471e-08
-1.62104e-06
7.04236e-09
-1.62161e-06
3.50977e-09
-1.62196e-06
-3.6684e-11
-1.62214e-06
-3.58316e-09
-1.62214e-06
-7.1158e-09
-1.62196e-06
-1.06206e-08
-1.62161e-06
-1.4079e-08
-1.62104e-06
-1.62003e-06
-1.74407e-08
1.79491e-08
-1.61567e-06
-2.23124e-08
1.34958e-08
-1.61659e-06
9.00363e-09
-1.61712e-06
4.48913e-09
-1.61745e-06
-3.64921e-11
-1.61762e-06
-4.56214e-09
-1.61762e-06
-9.07672e-09
-1.61745e-06
-1.3569e-08
-1.61711e-06
-1.80224e-08
-1.61658e-06
-1.61567e-06
-2.23859e-08
2.16406e-08
-1.61037e-06
-2.69404e-08
1.62554e-08
-1.6112e-06
1.08387e-08
-1.6117e-06
5.40533e-09
-1.61202e-06
-3.63601e-11
-1.61217e-06
-5.47808e-09
-1.61217e-06
-1.09115e-08
-1.61201e-06
-1.63284e-08
-1.6117e-06
-2.17138e-08
-1.6112e-06
-1.61037e-06
-2.70139e-08
2.50804e-08
-1.60419e-06
-3.12585e-08
1.88248e-08
-1.60495e-06
1.25472e-08
-1.60542e-06
6.25829e-09
-1.60573e-06
-3.63555e-11
-1.60588e-06
-6.33102e-09
-1.60588e-06
-1.262e-08
-1.60573e-06
-1.88978e-08
-1.60542e-06
-2.51536e-08
-1.60494e-06
-1.60419e-06
-3.13321e-08
2.8285e-08
-1.59718e-06
-3.52938e-08
2.12183e-08
-1.59788e-06
1.41389e-08
-1.59834e-06
7.0531e-09
-1.59864e-06
-3.65847e-11
-1.59879e-06
-7.12629e-09
-1.59879e-06
-1.42121e-08
-1.59864e-06
-2.12917e-08
-1.59834e-06
-2.83587e-08
-1.59788e-06
-1.59718e-06
-3.5368e-08
3.12805e-08
-1.58942e-06
-3.90466e-08
2.34615e-08
-1.59006e-06
1.56324e-08
-1.59051e-06
7.79904e-09
-1.59081e-06
-3.70439e-11
-1.59095e-06
-7.87314e-09
-1.59095e-06
-1.57065e-08
-1.59081e-06
-2.35358e-08
-1.59051e-06
-3.13549e-08
-1.59006e-06
-1.58941e-06
-3.9121e-08
3.40696e-08
-1.58096e-06
-4.25219e-08
2.55543e-08
-1.58154e-06
1.70269e-08
-1.58199e-06
8.49561e-09
-1.58228e-06
-3.76224e-11
-1.58242e-06
-8.57085e-09
-1.58242e-06
-1.71021e-08
-1.58228e-06
-2.56295e-08
-1.58198e-06
-3.41449e-08
-1.58154e-06
-1.58096e-06
-4.25973e-08
3.66613e-08
-1.57184e-06
-4.57811e-08
2.74925e-08
-1.57238e-06
1.83173e-08
-1.57281e-06
9.14018e-09
-1.5731e-06
-3.83562e-11
-1.57324e-06
-9.21685e-09
-1.57324e-06
-1.83939e-08
-1.5731e-06
-2.7569e-08
-1.57281e-06
-3.67377e-08
-1.57237e-06
-1.57184e-06
-4.58574e-08
3.90749e-08
-1.56211e-06
-4.88119e-08
2.92989e-08
-1.5626e-06
1.952e-08
-1.56303e-06
9.74082e-09
-1.56332e-06
-3.92592e-11
-1.56346e-06
-9.81927e-09
-1.56346e-06
-1.95982e-08
-1.56332e-06
-2.93768e-08
-1.56303e-06
-3.91526e-08
-1.5626e-06
-1.5621e-06
-4.88891e-08
4.13333e-08
-1.5518e-06
-5.16374e-08
3.09919e-08
-1.55226e-06
2.06481e-08
-1.55269e-06
1.03043e-08
-1.55298e-06
-4.01484e-11
-1.55312e-06
-1.03845e-08
-1.55312e-06
-2.0728e-08
-1.55298e-06
-3.10713e-08
-1.55269e-06
-4.14121e-08
-1.55226e-06
-1.5518e-06
-5.17155e-08
4.34404e-08
-1.54097e-06
-5.42754e-08
3.25724e-08
-1.54139e-06
2.1702e-08
-1.54182e-06
1.08311e-08
-1.54211e-06
-4.08569e-11
-1.54225e-06
-1.09127e-08
-1.54225e-06
-2.17832e-08
-1.54211e-06
-3.26529e-08
-1.54182e-06
-4.352e-08
-1.54139e-06
-1.54097e-06
-5.43539e-08
4.54041e-08
-1.52964e-06
-5.67336e-08
3.40464e-08
-1.53003e-06
2.26855e-08
-1.53046e-06
1.1323e-08
-1.53074e-06
-4.12391e-11
-1.53088e-06
-1.14053e-08
-1.53088e-06
-2.27673e-08
-1.53074e-06
-3.41273e-08
-1.53046e-06
-4.54839e-08
-1.53003e-06
-1.52964e-06
-5.68119e-08
4.72321e-08
-1.51785e-06
-5.90188e-08
3.542e-08
-1.51822e-06
2.36028e-08
-1.51864e-06
1.17822e-08
-1.51892e-06
-4.11328e-11
-1.51906e-06
-1.18642e-08
-1.51906e-06
-2.36843e-08
-1.51892e-06
-3.55005e-08
-1.51864e-06
-4.73112e-08
-1.51822e-06
-1.51785e-06
-5.90961e-08
4.89258e-08
-1.50564e-06
-6.11339e-08
3.66941e-08
-1.50599e-06
2.44544e-08
-1.5064e-06
1.22088e-08
-1.50668e-06
-4.04105e-11
-1.50681e-06
-1.22894e-08
-1.50681e-06
-2.45343e-08
-1.50668e-06
-3.67728e-08
-1.5064e-06
-4.9003e-08
-1.50599e-06
-1.50565e-06
-6.12093e-08
5.04821e-08
-1.49305e-06
-6.30761e-08
3.78656e-08
-1.49337e-06
2.52378e-08
-1.49377e-06
1.26017e-08
-1.49404e-06
-3.90103e-11
-1.49417e-06
-1.26795e-08
-1.49417e-06
-2.53148e-08
-1.49404e-06
-3.79415e-08
-1.49377e-06
-5.05563e-08
-1.49338e-06
-1.49306e-06
-6.31484e-08
5.18939e-08
-1.48011e-06
-6.48377e-08
3.89285e-08
-1.48041e-06
2.59484e-08
-1.48079e-06
1.29583e-08
-1.48105e-06
-3.69426e-11
-1.48117e-06
-1.30319e-08
-1.48117e-06
-2.60213e-08
-1.48105e-06
-3.90002e-08
-1.4808e-06
-5.1964e-08
-1.48041e-06
-1.48011e-06
-6.49058e-08
5.31498e-08
-1.46685e-06
-6.64064e-08
3.98726e-08
-1.46713e-06
2.65785e-08
-1.4675e-06
1.32742e-08
-1.46775e-06
-3.42925e-11
-1.46786e-06
-1.33426e-08
-1.46787e-06
-2.6646e-08
-1.46775e-06
-3.9939e-08
-1.4675e-06
-5.32147e-08
-1.46714e-06
-1.46686e-06
-6.64695e-08
5.42344e-08
-1.45332e-06
-6.77663e-08
4.06843e-08
-1.45358e-06
2.71177e-08
-1.45393e-06
1.35441e-08
-1.45417e-06
-3.12098e-11
-1.45429e-06
-1.36062e-08
-1.45429e-06
-2.71792e-08
-1.45418e-06
-4.07446e-08
-1.45394e-06
-5.42934e-08
-1.45359e-06
-1.45333e-06
-6.78237e-08
5.51314e-08
-1.43955e-06
-6.89008e-08
4.13487e-08
-1.4398e-06
2.75548e-08
-1.44014e-06
1.37615e-08
-1.44038e-06
-2.7881e-11
-1.4405e-06
-1.3817e-08
-1.4405e-06
-2.76096e-08
-1.44038e-06
-4.14025e-08
-1.44014e-06
-5.5184e-08
-1.43981e-06
-1.43956e-06
-6.89522e-08
5.58261e-08
-1.42558e-06
-6.97964e-08
4.1852e-08
-1.42582e-06
2.78787e-08
-1.42616e-06
1.39204e-08
-1.42642e-06
-2.4492e-11
-1.42655e-06
-1.39692e-08
-1.42656e-06
-2.79269e-08
-1.42643e-06
-4.18993e-08
-1.42617e-06
-5.58724e-08
-1.42583e-06
-1.42559e-06
-6.98418e-08
5.6311e-08
-1.41144e-06
-7.04491e-08
4.21853e-08
-1.4117e-06
2.8082e-08
-1.41206e-06
1.40166e-08
-1.41236e-06
-2.11946e-11
-1.41252e-06
-1.40588e-08
-1.41252e-06
-2.81237e-08
-1.41236e-06
-4.22263e-08
-1.41207e-06
-5.63513e-08
-1.41171e-06
-1.41145e-06
-7.04887e-08
5.65915e-08
-1.39716e-06
-7.08705e-08
4.23502e-08
-1.39746e-06
2.81643e-08
-1.39787e-06
1.40493e-08
-1.39824e-06
-1.80907e-11
-1.39845e-06
-1.40854e-08
-1.39845e-06
-2.82e-08
-1.39825e-06
-4.23854e-08
-1.39788e-06
-5.66263e-08
-1.39747e-06
-1.39718e-06
-7.09051e-08
5.66935e-08
-1.38276e-06
-7.10967e-08
4.23642e-08
-1.38313e-06
2.81367e-08
-1.38365e-06
1.40239e-08
-1.38413e-06
-1.5237e-11
-1.38441e-06
-1.40544e-08
-1.38441e-06
-2.8167e-08
-1.38413e-06
-4.23944e-08
-1.38366e-06
-5.67237e-08
-1.38314e-06
-1.38277e-06
-7.11272e-08
5.66716e-08
-1.36823e-06
-7.11957e-08
4.2269e-08
-1.36872e-06
2.80272e-08
-1.3694e-06
1.39545e-08
-1.37006e-06
-1.26662e-11
-1.37044e-06
-1.39798e-08
-1.37045e-06
-2.80527e-08
-1.37006e-06
-4.22948e-08
-1.36941e-06
-5.6698e-08
-1.36874e-06
-1.36825e-06
-7.12232e-08
5.66166e-08
-1.35358e-06
-7.12739e-08
4.21369e-08
-1.35424e-06
2.78861e-08
-1.35515e-06
1.38664e-08
-1.35604e-06
-1.04138e-11
-1.35657e-06
-1.38873e-08
-1.35657e-06
-2.79075e-08
-1.35604e-06
-4.21592e-08
-1.35516e-06
-5.66403e-08
-1.35425e-06
-1.35359e-06
-7.12996e-08
5.66596e-08
-1.33876e-06
-7.14773e-08
4.20758e-08
-1.33966e-06
2.7789e-08
-1.34087e-06
1.37981e-08
-1.34204e-06
-8.533e-12
-1.34276e-06
-1.38155e-08
-1.34276e-06
-2.78072e-08
-1.34205e-06
-4.20956e-08
-1.34087e-06
-5.66817e-08
-1.33967e-06
-1.33877e-06
-7.15025e-08
5.69666e-08
-1.32374e-06
-7.19804e-08
4.22247e-08
-1.32492e-06
2.78332e-08
-1.32648e-06
1.37983e-08
-1.32801e-06
-7.09477e-12
-1.32895e-06
-1.38129e-08
-1.32896e-06
-2.78491e-08
-1.32801e-06
-4.2243e-08
-1.32648e-06
-5.69884e-08
-1.32492e-06
-1.32375e-06
-7.20064e-08
5.77045e-08
-1.3085e-06
-7.29523e-08
4.27202e-08
-1.30993e-06
2.81085e-08
-1.31186e-06
1.39083e-08
-1.31381e-06
-6.16833e-12
-1.31504e-06
-1.39212e-08
-1.31504e-06
-2.81233e-08
-1.31381e-06
-4.27383e-08
-1.31187e-06
-5.77271e-08
-1.30993e-06
-1.3085e-06
-7.29804e-08
5.893e-08
-1.29297e-06
-7.44614e-08
4.35873e-08
-1.29459e-06
2.86118e-08
-1.29689e-06
1.41145e-08
-1.29931e-06
-5.8039e-12
-1.30092e-06
-1.41268e-08
-1.30092e-06
-2.86266e-08
-1.29931e-06
-4.36065e-08
-1.29689e-06
-5.89548e-08
-1.29459e-06
-1.29296e-06
-7.44925e-08
6.0361e-08
-1.27704e-06
-7.62853e-08
4.45152e-08
-1.27875e-06
2.90992e-08
-1.28147e-06
1.42979e-08
-1.28451e-06
-6.05505e-12
-1.28662e-06
-1.43108e-08
-1.28661e-06
-2.91151e-08
-1.28451e-06
-4.45362e-08
-1.28146e-06
-6.03884e-08
-1.27873e-06
-1.27703e-06
-7.63196e-08
6.10483e-08
-1.26034e-06
-7.77482e-08
4.44851e-08
-1.26218e-06
2.89315e-08
-1.26592e-06
1.43205e-08
-1.2699e-06
-7.04596e-12
-1.27229e-06
-1.43355e-08
-1.27229e-06
-2.89489e-08
-1.26989e-06
-4.45073e-08
-1.26591e-06
-6.10774e-08
-1.26216e-06
-1.26032e-06
-7.77846e-08
5.8682e-08
-1.2412e-06
-7.7821e-08
4.11533e-08
-1.24465e-06
2.7123e-08
-1.25189e-06
1.43228e-08
-1.2571e-06
-9.03014e-12
-1.25796e-06
-1.4342e-08
-1.25795e-06
-2.71424e-08
-1.25709e-06
-4.1174e-08
-1.25187e-06
-5.87088e-08
-1.24463e-06
-1.24117e-06
-7.78562e-08
4.75024e-08
-1.21295e-06
-7.57566e-08
3.17631e-08
-1.22891e-06
2.44306e-08
-1.24456e-06