/*--------------------------------*- C++ -*----------------------------------*\
  =========                 |
  \\      /  F ield         | OpenFOAM: The Open Source CFD Toolbox
   \\    /   O peration     | Website:  https://openfoam.org
    \\  /    A nd           | Version:  8
     \\/     M anipulation  |
\*---------------------------------------------------------------------------*/
FoamFile
{
    version     2.0;
    format      ascii;
    class       surfaceScalarField;
    location    "8.8";
    object      phi;
}
// * * * * * * * * * * * * * * * * * * * * * * * * * * * * * * * * * * * * * //

dimensions      [0 3 -1 0 0 0 0];

internalField   nonuniform List<scalar> 
18095
(
1.99118e-08
-1.72027e-07
1.52116e-07
2.32304e-08
-1.97393e-07
1.94074e-07
2.07326e-08
-2.0626e-07
2.08758e-07
1.304e-08
-2.11983e-07
2.19676e-07
1.54219e-09
-2.13366e-07
2.24864e-07
-1.13438e-08
-2.12718e-07
2.25604e-07
-2.04824e-08
-2.10598e-07
2.19737e-07
-2.3198e-08
-2.06138e-07
2.08854e-07
-1.99014e-08
-1.97446e-07
1.94149e-07
-1.72069e-07
1.52167e-07
1.55678e-08
-1.87595e-07
1.62617e-08
-1.98086e-07
1.18268e-08
-2.01826e-07
5.27977e-09
-2.05437e-07
-1.43392e-09
-2.06653e-07
-7.01242e-09
-2.07139e-07
-1.20879e-08
-2.05523e-07
-1.62603e-08
-2.01966e-07
-1.55518e-08
-1.98154e-07
-1.87621e-07
6.80558e-09
-1.94402e-07
8.45857e-09
-1.99739e-07
7.52907e-09
-2.00896e-07
4.6345e-09
-2.02542e-07
6.04331e-10
-2.02623e-07
-4.01348e-09
-2.02522e-07
-7.31612e-09
-2.0222e-07
-8.38772e-09
-2.00894e-07
-6.79692e-09
-1.99745e-07
-1.94418e-07
4.52312e-09
-1.98925e-07
4.73231e-09
-1.99948e-07
3.68673e-09
-1.9985e-07
1.58697e-09
-2.00442e-07
-2.18442e-10
-2.00817e-07
-1.91505e-09
-2.00825e-07
-3.69803e-09
-2.00437e-07
-4.73372e-09
-1.99858e-07
-4.51038e-09
-1.99968e-07
-1.98928e-07
1.07501e-09
1.12696e-09
1.27646e-09
8.34317e-10
1.72026e-11
-8.0798e-10
-1.24511e-09
-1.1036e-09
-1.07174e-09
-2.8464e-08
-1.95991e-07
2.24455e-07
-3.0809e-08
-1.99174e-07
2.01519e-07
-2.50241e-08
-2.01803e-07
1.96017e-07
-1.36713e-08
-2.02312e-07
1.90959e-07
1.13502e-09
-2.02631e-07
1.87825e-07
1.51553e-08
-2.01943e-07
1.87923e-07
2.5426e-08
-2.01112e-07
1.90841e-07
3.07337e-08
-2.00845e-07
1.95538e-07
2.82836e-08
-1.98534e-07
2.00985e-07
-1.9565e-07
2.23933e-07
-9.47679e-09
-1.86514e-07
-1.49655e-08
-1.93685e-07
-1.26135e-08
-2.04154e-07
-7.05606e-09
-2.07869e-07
-2.18346e-09
-2.07505e-07
3.38763e-09
-2.07515e-07
1.05408e-08
-2.08266e-07
1.41922e-08
-2.04496e-07
9.30227e-09
-1.93645e-07
-1.86348e-07
-9.48293e-09
-1.77031e-07
-8.06127e-09
-1.95108e-07
-7.80001e-09
-2.04415e-07
-5.83799e-09
-2.09831e-07
2.4618e-10
-2.13588e-07
6.39527e-09
-2.13664e-07
7.95185e-09
-2.09823e-07
7.85614e-09
-2.04401e-07
9.28352e-09
-1.95072e-07
-1.77064e-07
-6.7694e-09
-1.70261e-07
-8.49875e-09
-1.93378e-07
-7.67925e-09
-2.05235e-07
-2.40743e-09
-2.15102e-07
3.46293e-11
-2.1603e-07
2.20362e-09
-2.15833e-07
6.8212e-09
-2.14441e-07
7.81945e-09
-2.05399e-07
6.54038e-09
-1.93793e-07
-1.70524e-07
-1.81457e-08
-1.74504e-08
-1.39273e-08
-9.35366e-09
-5.19907e-10
9.25069e-09
1.45464e-08
1.80003e-08
1.83564e-08
3.75967e-08
-1.57936e-07
1.20339e-07
3.86635e-08
-1.98687e-07
1.9762e-07
2.6728e-08
-2.109e-07
2.22836e-07
9.91592e-09
-2.15019e-07
2.31832e-07
-9.31254e-09
-2.17867e-07
2.37095e-07
-2.69602e-08
-2.17362e-07
2.35011e-07
-3.88313e-08
-2.16359e-07
2.2823e-07
-4.46599e-08
-2.10836e-07
2.16665e-07
-4.04126e-08
-1.97869e-07
1.93622e-07
-1.57162e-07
1.16749e-07
1.72976e-08
-1.75233e-07
2.03736e-08
-2.01763e-07
1.7624e-08
-2.0815e-07
1.13988e-08
-2.08794e-07
1.71418e-09
-2.08182e-07
-7.8666e-09
-2.07782e-07
-1.604e-08
-2.08186e-07
-1.99691e-08
-2.06908e-07
-1.70515e-08
-2.00787e-07
-1.74213e-07
7.78774e-09
-1.83021e-07
8.41624e-09
-2.02392e-07
6.90188e-09
-2.06636e-07
1.74629e-09
-2.03639e-07
-1.6498e-09
-2.04785e-07
-4.63402e-09
-2.04798e-07
-8.56297e-09
-2.04257e-07
-9.36633e-09
-2.06104e-07
-8.3915e-09
-2.01762e-07
-1.82604e-07
8.29674e-09
-1.91317e-07
5.33098e-09
-1.99426e-07
6.25558e-09
-2.07561e-07
2.79479e-09
-2.00178e-07
1.0583e-09
-2.03048e-07
-1.00549e-09
-2.02735e-07
-6.13344e-09
-1.9913e-07
-5.41787e-09
-2.0682e-07
-8.20695e-09
-1.98972e-07
-1.90811e-07
3.31383e-08
3.52325e-08
2.36877e-08
1.44692e-08
-7.53087e-10
-1.55652e-08
-2.38524e-08
-3.51347e-08
-3.31222e-08
3.95712e-08
2.20909e-08
-6.16622e-08
2.73571e-08
1.22133e-08
2.48322e-08
2.52458e-09
2.68863e-08
-2.05449e-09
2.81528e-08
-1.26696e-09
2.56585e-08
2.49399e-09
2.26016e-08
3.05652e-09
2.39189e-08
-1.31769e-09
2.91342e-08
-5.21558e-09
-6.14393e-09
3.52778e-08
7.69108e-08
4.80258e-08
-1.02846e-07
5.46151e-08
3.45087e-08
4.17424e-08
1.53974e-08
3.65499e-08
3.13825e-09
3.27132e-08
2.57001e-09
2.81112e-08
7.09637e-09
2.55582e-08
5.6099e-09
2.57393e-08
-1.49842e-09
2.78515e-08
-7.32755e-09
-6.56429e-09
2.82721e-08
8.16034e-08
6.11084e-08
-9.46863e-08
6.4637e-08
5.14744e-08
4.80905e-08
3.19435e-08
3.65766e-08
1.46517e-08
2.81126e-08
1.10336e-08
2.18263e-08
1.33823e-08
1.75991e-08
9.83674e-09
1.4051e-08
2.04936e-09
1.17442e-08
-5.02101e-09
-2.27096e-09
7.45058e-09
7.22658e-08
7.08798e-08
-8.20373e-08
6.01851e-08
6.35554e-08
4.66021e-08
4.55267e-08
3.41249e-08
2.71291e-08
2.46492e-08
2.05095e-08
1.74981e-08
2.05335e-08
1.06769e-08
1.6658e-08
4.79751e-09
7.92879e-09
-1.13843e-09
9.14854e-10
4.92177e-09
-8.33131e-09
5.68438e-08
7.9007e-08
-6.49709e-08
4.78612e-08
7.25379e-08
3.73332e-08
5.60546e-08
2.73674e-08
3.70949e-08
1.77976e-08
3.00792e-08
1.09565e-08
2.73746e-08
5.65402e-09
2.19603e-08
-3.05224e-09
1.66349e-08
-1.4425e-08
1.22875e-08
1.62668e-08
-2.57701e-08
1.75982e-08
8.71531e-08
-2.57443e-08
1.5056e-08
7.50803e-08
1.29394e-08
5.81713e-08
6.12488e-09
4.39095e-08
-1.24741e-09
3.74515e-08
-6.20108e-09
3.23282e-08
-1.14695e-08
2.72286e-08
-2.10067e-08
2.61721e-08
-3.50802e-08
2.63609e-08
2.81415e-08
-4.6955e-08
-1.30396e-08
8.45148e-08
1.56779e-08
-7.44409e-09
6.94849e-08
-6.97011e-09
5.76973e-08
-1.13757e-08
4.83151e-08
-1.72502e-08
4.33259e-08
-2.06471e-08
3.5725e-08
-2.64391e-08
3.30206e-08
-2.92288e-08
2.89618e-08
-3.72345e-08
3.43666e-08
3.68549e-08
-4.59479e-08
-3.25908e-08
7.17255e-08
4.53802e-08
-2.38222e-08
6.07162e-08
-1.8753e-08
5.26279e-08
-1.6155e-08
4.57169e-08
-1.43453e-08
4.15161e-08
-1.80637e-08
3.94432e-08
-2.15524e-08
3.65093e-08
-2.54986e-08
3.29079e-08
-2.9935e-08
3.88029e-08
4.18662e-08
-3.49462e-08
-4.30871e-08
5.71039e-08
5.77087e-08
-3.32376e-08
5.08662e-08
-2.84481e-08
4.78382e-08
-2.59755e-08
4.32441e-08
-2.37163e-08
3.92568e-08
-2.22938e-08
3.80205e-08
-1.94741e-08
3.36895e-08
-1.97712e-08
3.32049e-08
-1.90107e-08
3.80425e-08
3.89381e-08
-1.60826e-08
-4.68157e-08
4.12648e-08
6.26546e-08
-3.65662e-08
4.06159e-08
-3.03416e-08
4.16132e-08
-2.41717e-08
3.70739e-08
-2.03213e-08
3.54061e-08
-1.63781e-08
3.4077e-08
-1.16682e-08
2.89794e-08
-7.62601e-09
2.91625e-08
-2.46211e-09
3.28785e-08
3.60747e-08
4.01212e-10
-4.97938e-08
2.80389e-08
6.30195e-08
-3.81797e-08
2.90009e-08
-2.68743e-08
3.03075e-08
-1.6525e-08
2.67242e-08
-1.15461e-08
3.04269e-08
-6.0675e-09
2.85982e-08
-1.59216e-09
2.45039e-08
2.58607e-09
2.49841e-08
7.60517e-09
2.78592e-08
3.21233e-08
1.15565e-08
-4.79196e-08
1.60576e-08
5.99007e-08
-3.31419e-08
1.42225e-08
-2.03236e-08
1.74889e-08
-1.10687e-08
1.74691e-08
-7.02644e-11
1.94282e-08
9.90597e-09
1.86217e-08
1.54969e-08
1.89127e-08
1.67595e-08
2.37213e-08
1.80449e-08
2.65736e-08
2.80842e-08
2.20838e-08
-3.52954e-08
8.39258e-10
5.05134e-08
-1.96389e-08
-1.43427e-09
-5.06944e-09
2.91926e-09
4.67338e-09
7.72608e-09
1.35416e-08
1.05598e-08
2.10068e-08
1.11563e-08
2.67678e-08
1.31515e-08
3.26029e-08
1.7886e-08
3.63504e-08
2.28258e-08
2.56477e-08
3.87866e-08
-3.03157e-08
-2.05333e-08
5.16881e-08
-9.44359e-09
-2.23063e-08
9.6862e-09
-1.62106e-08
2.43991e-08
-6.98689e-09
3.24667e-08
2.49208e-09
3.52314e-08
8.39141e-09
3.67433e-08
1.16394e-08
3.97128e-08
1.49164e-08
4.40521e-08
1.84864e-08
2.05088e-08
4.91908e-08
-2.08011e-08
-3.92415e-08
3.95093e-08
-2.54721e-09
-4.05599e-08
1.21265e-08
-3.08842e-08
2.77337e-08
-2.2594e-08
4.22701e-08
-1.20443e-08
5.05748e-08
8.66637e-11
5.42881e-08
7.92609e-09
5.40622e-08
1.51423e-08
5.5846e-08
1.67025e-08
1.80218e-08
5.83329e-08
-1.30466e-08
-5.60531e-08
2.98584e-08
5.00262e-09
-5.8609e-08
2.0897e-08
-4.67785e-08
3.17245e-08
-3.34214e-08
4.36134e-08
-2.39331e-08
5.77828e-08
-1.40826e-08
7.38671e-08
-8.15808e-09
8.89541e-08
5.53461e-11
9.39523e-08
1.17043e-08
1.99488e-08
9.20254e-08
-2.422e-08
-6.68699e-08
3.50369e-08
-1.14104e-08
-7.14186e-08
5.47858e-09
-6.36673e-08
2.11269e-08
-4.90696e-08
3.7467e-08
-4.02732e-08
5.63906e-08
-3.30059e-08
7.55074e-08
-2.72747e-08
9.53914e-08
-1.98285e-08
1.14325e-07
-7.22928e-09
1.12506e-08
1.23023e-07
-2.62492e-08
-7.14552e-08
3.08346e-08
-2.27918e-08
-7.48761e-08
-1.78008e-08
-6.86584e-08
-5.64229e-09
-6.1228e-08
1.34632e-08
-5.93785e-08
3.30346e-08
-5.25772e-08
4.92797e-08
-4.35197e-08
6.76423e-08
-3.81909e-08
8.82595e-08
-2.78464e-08
-4.43503e-09
1.03945e-07
-4.78069e-08
-7.24654e-08
4.88171e-08
-4.87469e-08
-7.39362e-08
-4.49917e-08
-7.24136e-08
-3.24305e-08
-7.37892e-08
-1.74869e-08
-7.43221e-08
-5.59567e-09
-6.44683e-08
5.69239e-09
-5.48076e-08
2.39711e-08
-5.64694e-08
4.44819e-08
-4.83571e-08
-2.29168e-08
6.29639e-08
-7.62184e-08
-7.56576e-08
7.94106e-08
-7.33515e-08
-7.68029e-08
-6.59426e-08
-7.98225e-08
-5.70101e-08
-8.27216e-08
-4.5927e-08
-8.54051e-08
-3.33264e-08
-7.70688e-08
-1.92269e-08
-6.89071e-08
-2.81203e-09
-7.28842e-08
9.11929e-09
-6.02883e-08
-3.62699e-08
2.24726e-08
-8.32651e-08
-7.98649e-08
8.74725e-08
-7.74142e-08
-8.26537e-08
-7.16738e-08
-8.55627e-08
-6.74943e-08
-8.6901e-08
-5.97403e-08
-9.31591e-08
-3.9407e-08
-9.74021e-08
-1.50761e-08
-9.32379e-08
-6.9978e-09
-8.09625e-08
-7.82054e-09
-5.94654e-08
-4.14364e-08
-2.65395e-09
-7.19446e-08
-8.74783e-08
7.95581e-08
-6.63252e-08
-8.82732e-08
-6.1862e-08
-9.0026e-08
-5.49498e-08
-9.38131e-08
-4.06502e-08
-1.07458e-07
-2.08175e-08
-1.17235e-07
-1.22905e-08
-1.01765e-07
-9.71079e-09
-8.35421e-08
-6.07508e-09
-6.3101e-08
-4.4771e-08
-2.74028e-09
-4.12033e-08
-9.67289e-08
5.0454e-08
-3.42922e-08
-9.51846e-08
-3.1226e-08
-9.30922e-08
-2.68447e-08
-9.81943e-08
-1.66309e-08
-1.17672e-07
-9.78505e-09
-1.2408e-07
-1.32728e-08
-9.82767e-08
-1.75692e-08
-7.92455e-08
-1.44911e-08
-6.61789e-08
-5.60402e-08
-3.22164e-09
-1.89988e-08
-1.04706e-07
2.69763e-08
-1.52161e-08
-9.89677e-08
-1.56646e-08
-9.26437e-08
-1.28576e-08
-1.01001e-07
-6.40264e-09
-1.24127e-07
-1.32311e-08
-1.17252e-07
-4.0249e-08
-7.12587e-08
-5.57743e-08
-6.372e-08
-4.65066e-08
-7.54465e-08
-7.30081e-08
-2.95387e-08
-4.91229e-09
-9.72171e-08
-2.57717e-09
-9.05907e-09
-9.48215e-08
-1.16094e-08
-9.00934e-08
-1.05196e-08
-1.02091e-07
-8.57928e-09
-1.26067e-07
-3.46935e-08
-9.11373e-08
-9.24684e-08
-1.34835e-08
-1.11893e-07
-4.42951e-08
-1.06435e-07
-8.09046e-08
-7.83353e-08
-1.01108e-07
3.32053e-08
-7.30034e-08
-5.74194e-08
1.12306e-08
-7.2847e-08
-5.55836e-09
-7.33044e-08
-1.68759e-08
-9.07734e-08
-3.37073e-08
-1.09236e-07
-5.5486e-08
-6.93584e-08
-9.00957e-08
2.11265e-08
-1.22891e-07
-1.14999e-08
-1.36004e-07
-6.77909e-08
-5.88847e-08
-1.55455e-07
9.03613e-08
-4.22568e-08
-1.21108e-07
5.97107e-08
-4.21963e-08
2.71579e-08
-4.07515e-08
-1.15086e-08
-5.21068e-08
-4.64895e-08
-7.42547e-08
-4.98561e-08
-6.59916e-08
-3.56787e-08
6.9493e-09
-7.08504e-08
2.36719e-08
-1.30912e-07
-7.72905e-09
-2.872e-08
-1.61077e-07
1.03627e-07
-1.79684e-08
-1.27915e-07
7.62168e-08
-1.47855e-08
5.02983e-08
-1.48326e-08
1.57359e-08
-1.75441e-08
-2.74005e-08
-3.11181e-08
-4.31055e-08
-5.02864e-08
-8.65738e-09
-2.74986e-08
-6.11925e-09
2.11339e-08
-3.69889e-08
2.31407e-08
-3.23123e-09
-6.24776e-08
1.81951e-07
1.21077e-08
-2.12027e-07
1.41438e-07
2.57292e-08
1.03955e-07
2.26503e-08
7.67912e-08
9.61993e-09
4.32038e-08
2.46959e-09
5.23137e-09
-1.23137e-08
5.15014e-09
-2.74172e-08
3.39071e-08
-7.62297e-09
5.40825e-08
2.96536e-09
-5.85219e-09
5.67035e-08
2.06699e-07
3.85781e-08
-2.33169e-07
1.78683e-07
5.37463e-08
1.40691e-07
6.06425e-08
1.07036e-07
4.32753e-08
8.3316e-08
2.61897e-08
5.11561e-08
1.98463e-08
1.54402e-08
8.29883e-09
1.37601e-08
-5.94284e-09
3.46026e-08
-1.7877e-08
-2.06393e-08
4.93897e-08
2.0861e-07
6.40785e-08
-2.3411e-07
1.85665e-07
7.66923e-08
1.58249e-07
8.80585e-08
1.3102e-07
7.05047e-08
1.12266e-07
4.49443e-08
9.558e-08
3.65324e-08
7.42586e-08
2.96203e-08
5.0499e-08
1.78168e-08
4.14991e-08
-8.87709e-09
-3.21153e-08
5.29751e-08
1.6844e-07
9.64717e-08
-2.00833e-07
1.40007e-07
1.05125e-07
1.24915e-07
1.03151e-07
1.17964e-07
7.74554e-08
1.07254e-07
5.56549e-08
9.25531e-08
5.12333e-08
7.4236e-08
4.79374e-08
5.66645e-08
3.53882e-08
3.42727e-08
1.35146e-08
-2.44827e-08
2.66399e-08
9.79589e-08
1.20507e-07
-1.21994e-07
8.85955e-08
1.14489e-07
9.4028e-08
9.77184e-08
9.88464e-08
7.2637e-08
9.37711e-08
6.07301e-08
8.66976e-08
5.83068e-08
8.102e-08
5.3615e-08
7.11773e-08
4.52308e-08
4.47364e-08
3.99553e-08
6.49269e-09
1.37608e-08
4.98899e-08
1.102e-07
-3.95837e-08
6.76326e-08
9.67469e-08
8.28482e-08
8.25027e-08
8.77014e-08
6.77838e-08
8.50833e-08
6.3348e-08
8.10533e-08
6.23367e-08
8.34296e-08
5.12385e-08
7.75397e-08
5.11205e-08
4.75685e-08
6.99262e-08
4.11379e-08
1.2923e-08
2.36799e-08
9.1801e-08
-5.28072e-09
4.50673e-08
7.53595e-08
5.98739e-08
6.7696e-08
6.5398e-08
6.22594e-08
5.9203e-08
6.95428e-08
5.86682e-08
6.28713e-08
6.10929e-08
4.88135e-08
4.75223e-08
6.46908e-08
4.50837e-08
7.23644e-08
3.33543e-08
5.28671e-08
-2.01489e-08
7.71164e-08
3.48335e-08
-1.8188e-08
7.33985e-08
-2.08613e-08
7.03693e-08
-1.97025e-08
6.11004e-08
-1.0109e-08
5.99492e-08
-4.44507e-10
5.32068e-08
7.43645e-09
4.09325e-08
1.7675e-08
5.44521e-08
4.74494e-08
4.25898e-08
6.93163e-09
7.38719e-08
-1.06586e-07
7.95261e-08
1.04176e-07
-1.05913e-07
7.27255e-08
-9.74694e-08
6.19263e-08
-8.26149e-08
4.6246e-08
-6.98095e-08
4.71438e-08
-5.00465e-08
3.34437e-08
-3.29775e-08
2.38634e-08
-1.09002e-08
3.23747e-08
1.91323e-08
1.25572e-08
-3.24808e-09
2.9312e-08
-1.37019e-07
6.44208e-08
1.52125e-07
-1.24992e-07
6.06981e-08
-1.14929e-07
5.18641e-08
-1.03583e-07
3.48991e-08
-8.03918e-08
2.39528e-08
-6.16645e-08
1.47163e-08
-4.87672e-08
1.0966e-08
-3.32544e-08
1.68617e-08
-3.86999e-08
1.80025e-08
9.53971e-09
-5.14878e-08
-1.38495e-07
4.59512e-08
1.56965e-07
-1.17134e-07
3.93377e-08
-9.96061e-08
3.43357e-08
-8.59849e-08
2.12777e-08
-7.36207e-08
1.15883e-08
-6.90254e-08
1.01206e-08
-6.78808e-08
9.821e-09
-6.47207e-08
1.37012e-08
-6.11932e-08
1.44746e-08
6.21366e-09
-5.78675e-08
-1.24709e-07
3.69438e-08
1.33717e-07
-1.16775e-07
3.14038e-08
-1.11199e-07
2.87599e-08
-1.13343e-07
2.34205e-08
-1.16151e-07
1.43962e-08
-1.12117e-07
6.08649e-09
-1.03662e-07
1.36479e-09
-9.22697e-08
2.30898e-09
-8.00598e-08
2.26435e-09
-3.59941e-09
-7.02469e-08
-1.05246e-07
4.07634e-08
1.01426e-07
-1.08907e-07
3.50655e-08
-1.11871e-07
3.17234e-08
-1.17377e-07
2.89256e-08
-1.2294e-07
1.9959e-08
-1.25331e-07
8.4772e-09
-1.28134e-07
4.16695e-09
-1.23649e-07
-2.17641e-09
-1.11977e-07
-9.40731e-09
-1.66922e-08
-9.88848e-08
-7.91894e-08
5.0442e-08
6.9511e-08
-9.0266e-08
4.61416e-08
-1.00408e-07
4.18649e-08
-1.09628e-07
3.81453e-08
-1.13656e-07
2.39859e-08
-1.13585e-07
8.40587e-09
-1.1235e-07
2.9317e-09
-1.07519e-07
-7.00726e-09
-1.00868e-07
-1.60596e-08
-2.28709e-08
-9.46891e-08
-3.96211e-08
6.49215e-08
2.51416e-08
-5.18893e-08
5.84096e-08
-6.1478e-08
5.14534e-08
-6.84547e-08
4.51218e-08
-7.64226e-08
3.19538e-08
-8.66898e-08
1.8673e-08
-1.01739e-07
1.79808e-08
-1.19096e-07
1.03495e-08
-1.12068e-07
-2.3087e-08
-3.49957e-08
-9.99433e-08
4.90429e-08
6.65174e-08
-5.0639e-08
5.25667e-08
5.48858e-08
6.04264e-08
4.35934e-08
6.95062e-08
3.60418e-08
7.12831e-08
3.01768e-08
6.29883e-08
2.69678e-08
4.46213e-08
3.63476e-08
4.18323e-09
5.07871e-08
-3.75753e-08
1.86711e-08
-2.23318e-08
-5.02395e-08
9.37884e-08
5.60862e-08
-8.33573e-08
1.06675e-07
4.19996e-08
1.17877e-07
3.23915e-08
1.26324e-07
2.75944e-08
1.29803e-07
2.6698e-08
1.24547e-07
3.22238e-08
1.19619e-07
4.12761e-08
1.20928e-07
4.94781e-08
1.00174e-07
3.94254e-08
-8.83348e-10
7.87253e-08
1.00542e-07
4.22527e-08
-8.67079e-08
1.12124e-07
3.0418e-08
1.17561e-07
2.69553e-08
1.17836e-07
2.7319e-08
1.14299e-07
3.0235e-08
1.07258e-07
3.92657e-08
1.07205e-07
4.13282e-08
1.20159e-07
3.65239e-08
1.47473e-07
1.21116e-08
-1.59557e-08
1.62545e-07
9.33043e-08
4.01883e-08
-9.12396e-08
9.29795e-08
3.07428e-08
8.55816e-08
3.43526e-08
7.36174e-08
3.92831e-08
7.2037e-08
3.18156e-08
9.44494e-08
1.68537e-08
1.2357e-07
1.22084e-08
1.61358e-07
-1.26446e-09
1.96858e-07
-2.33877e-08
-3.08534e-08
2.11755e-07
7.0987e-08
5.07903e-08
-8.15889e-08
6.14434e-08
4.02875e-08
5.44719e-08
4.13241e-08
5.59132e-08
3.78417e-08
6.40927e-08
2.36362e-08
7.43418e-08
6.60464e-09
9.21936e-08
-5.64325e-09
1.14265e-07
-2.33356e-08
1.22244e-07
-3.13662e-08
-2.25314e-08
1.13922e-07
5.70234e-08
7.63407e-08
-8.2574e-08
5.70522e-08
4.02577e-08
4.75946e-08
5.07814e-08
4.06e-08
4.48365e-08
3.93841e-08
2.48528e-08
3.74076e-08
8.58202e-09
3.54132e-08
-3.64823e-09
2.47825e-08
-1.27047e-08
4.60265e-09
-1.11862e-08
2.09607e-09
-2.00246e-08
2.04044e-08
9.98711e-08
-4.3935e-08
7.59341e-09
5.30684e-08
-1.17912e-08
7.01659e-08
-3.66282e-08
6.96735e-08
-6.01676e-08
4.83924e-08
-7.78272e-08
2.62421e-08
-9.83522e-08
1.68774e-08
-1.22794e-07
1.17378e-08
-1.43428e-07
9.44795e-09
5.63381e-09
-1.46965e-07
2.19433e-08
1.29999e-07
-5.20715e-08
-2.7303e-08
1.02314e-07
-6.7393e-08
1.10256e-07
-1.04157e-07
1.06438e-07
-1.38036e-07
8.22718e-08
-1.73869e-07
6.20757e-08
-2.05368e-07
4.83767e-08
-2.26081e-07
3.24515e-08
-2.29327e-07
1.2694e-08
-1.27782e-08
-2.10915e-07
2.65833e-08
1.57315e-07
-5.38998e-08
-1.72576e-08
1.46156e-07
-5.10111e-08
1.4401e-07
-7.89915e-08
1.34419e-07
-1.04795e-07
1.08076e-07
-1.23432e-07
8.07137e-08
-1.33628e-07
5.85724e-08
-1.30835e-07
2.96594e-08
-1.24414e-07
6.27261e-09
-3.08917e-08
-1.063e-07
4.83714e-08
1.67602e-07
-5.86582e-08
3.33848e-08
1.61143e-07
2.2756e-08
1.54639e-07
1.40554e-08
1.4312e-07
3.02939e-09
1.19102e-07
-4.3696e-09
8.81131e-08
-1.91335e-09
5.61166e-08
6.27568e-09
2.14708e-08
2.01179e-08
-7.56908e-09
-4.19715e-08
3.11983e-08
5.50746e-08
1.8153e-07
-6.90019e-08
4.76334e-08
1.68584e-07
4.62583e-08
1.56014e-07
4.8714e-08
1.40664e-07
5.1347e-08
1.16469e-07
5.54116e-08
8.40485e-08
6.2502e-08
4.9026e-08
6.57837e-08
1.81888e-08
7.27605e-08
-1.4546e-08
-4.09862e-08
7.17752e-08
3.73942e-08
1.90068e-07
-4.59324e-08
3.8224e-08
1.67755e-07
4.21441e-08
1.52094e-07
4.77542e-08
1.35054e-07
5.50795e-08
1.09144e-07
6.52408e-08
7.38878e-08
6.99555e-08
4.43119e-08
7.55689e-08
1.25758e-08
7.53555e-08
-1.43323e-08
-3.80089e-08
7.23781e-08
1.27056e-08
1.97217e-07
-1.98544e-08
1.45612e-08
1.65899e-07
2.08031e-08
1.45852e-07
2.99849e-08
1.25872e-07
4.05141e-08
9.86145e-08
4.733e-08
6.70715e-08
5.22308e-08
3.94108e-08
5.87773e-08
6.02906e-09
6.05905e-08
-1.61454e-08
-3.04211e-08
5.30027e-08
-4.13809e-09
2.06204e-07
-4.84902e-09
-1.05397e-08
1.723e-07
-1.13357e-08
1.46648e-07
-4.43408e-10
1.1498e-07
1.32638e-08
8.49077e-08
2.20282e-08
5.83075e-08
3.52891e-08
2.615e-08
4.39048e-08
-2.58664e-09
4.29367e-08
-1.51773e-08
-2.55057e-08
3.80216e-08
-1.8257e-08
2.11808e-07
1.26533e-08
-3.22405e-08
1.86284e-07
-3.11874e-08
1.45595e-07
-2.6404e-08
1.10197e-07
-1.79127e-08
7.64163e-08
-2.04351e-09
4.24384e-08
8.12706e-09
1.59797e-08
6.6313e-09
-1.09031e-09
-3.35781e-09
-5.18799e-09
-5.3868e-08
2.50042e-08
-5.1033e-08
2.26118e-07
3.67236e-08
-5.29483e-08
1.88199e-07
-4.74024e-08
1.4005e-07
-4.09455e-08
1.0374e-07
-1.84208e-08
5.38916e-08
3.06278e-09
2.09545e-08
9.35046e-09
9.69192e-09
-4.80046e-09
1.30609e-08
-7.38367e-09
-2.60416e-09
-8.51337e-08
2.38828e-08
-8.5559e-08
2.37414e-07
7.42625e-08
-7.57251e-08
1.78365e-07
-6.90754e-08
1.334e-07
-4.5055e-08
7.97203e-08
-1.99692e-08
2.88066e-08
-9.95086e-09
1.09368e-08
-1.44289e-08
1.41705e-08
-2.8856e-08
2.74885e-08
-5.83503e-09
-2.56251e-08
-6.88506e-08
-2.21181e-08
-1.33905e-07
2.36087e-07
1.35233e-07
-1.14328e-07
1.58787e-07
-7.80229e-08
9.70952e-08
-3.66903e-08
3.83877e-08
-1.71015e-08
9.21789e-09
-1.06126e-08
4.44849e-09
-1.2326e-08
1.5885e-08
-7.74905e-10
1.59385e-08
6.18983e-09
-3.2589e-08
-1.08648e-08
-5.17958e-08
-1.75033e-07
1.83422e-07
2.27698e-07
-1.24176e-07
1.07931e-07
-7.30765e-08
4.59958e-08
-5.03419e-08
1.56532e-08
-4.18291e-08
7.04926e-10
-1.40321e-08
-2.33485e-08
8.0724e-09
-6.21949e-09
1.94074e-08
4.60357e-09
-9.08746e-09
-4.09399e-09
2.28408e-08
-4.2793e-08
-1.37622e-07
1.08213e-07
2.12831e-07
-8.53397e-08
5.565e-08
-6.87875e-08
2.94434e-08
-8.26763e-08
2.9542e-08
-1.06806e-07
2.48348e-08
-1.30317e-07
1.63306e-10
-1.30196e-07
-6.33909e-09
-1.11439e-07
-1.41529e-08
-1.35016e-07
1.94836e-08
2.73261e-08
-1.39501e-07
-1.55742e-07
7.97115e-08
1.84243e-07
-1.3545e-07
3.53578e-08
-1.49412e-07
4.34045e-08
-1.87902e-07
6.80325e-08
-2.31747e-07
6.86788e-08
-2.83044e-07
5.146e-08
-3.13358e-07
2.39756e-08
-3.37869e-07
1.03579e-08
-3.30203e-07
1.1817e-08
9.55997e-09
-3.12438e-07
-2.7018e-07
7.65184e-08
2.73373e-07
-3.12189e-07
7.73652e-08
-3.59357e-07
9.05722e-08
-3.88367e-07
9.70427e-08
-4.08455e-07
8.87678e-08
-4.16896e-07
5.99016e-08
-4.17266e-07
2.43459e-08
-4.13355e-07
6.44774e-09
-3.94891e-07
-6.64559e-09
-1.05365e-08
-3.74795e-07
-4.65222e-07
5.74698e-08
4.84271e-07
-4.59395e-07
7.15348e-08
-4.58346e-07
8.95224e-08
-4.52062e-07
9.07585e-08
-4.35212e-07
7.1919e-08
-4.15915e-07
4.06046e-08
-4.02284e-07
1.07149e-08
-3.85339e-07
-1.04985e-08
-3.60982e-07
-3.10024e-08
-4.27055e-08
-3.28813e-07
-6.36511e-07
4.3535e-08
6.50447e-07
-6.1465e-07
4.96729e-08
-5.8305e-07
5.79225e-08
-5.51935e-07
5.96447e-08
-5.16298e-07
3.62832e-08
-4.63637e-07
-1.20553e-08
-3.94078e-07
-5.88426e-08
-3.26074e-07
-7.85028e-08
-2.69385e-07
-8.76907e-08
-6.11333e-08
-2.50957e-07
-6.76549e-07
3.65586e-08
6.83525e-07
-6.63592e-07
3.67161e-08
-6.4103e-07
3.536e-08
-6.03509e-07
2.21236e-08
-5.55014e-07
-1.22112e-08
-4.88606e-07
-7.8463e-08
-4.01441e-07
-1.46006e-07
-3.11052e-07
-1.68891e-07
-2.36092e-07
-1.62649e-07
-1.47348e-07
-1.49876e-07
-5.87786e-07
3.23097e-08
5.92035e-07
-5.83239e-07
3.21688e-08
-5.76034e-07
2.81557e-08
-5.61287e-07
7.37729e-09
-5.24781e-07
-4.87173e-08
-4.6559e-07
-1.37654e-07
-3.91312e-07
-2.20283e-07
-3.01588e-07
-2.58614e-07
-1.98845e-07
-2.65392e-07
-2.55345e-07
-9.08477e-08
-4.59795e-07
3.68739e-08
4.55231e-07
-4.63353e-07
3.57257e-08
-4.67406e-07
3.22092e-08
-4.68564e-07
8.53618e-09
-4.60663e-07
-5.66171e-08
-4.11623e-07
-1.86693e-07
-3.35598e-07
-2.96308e-07
-2.33154e-07
-3.61059e-07
-1.16236e-07
-3.82308e-07
-3.67508e-07
-4.07453e-09
-2.43611e-07
2.19643e-08
2.5852e-07
-2.35742e-07
2.78569e-08
-2.26934e-07
2.34007e-08
-2.19175e-07
7.76526e-10
-2.18327e-07
-5.74642e-08
-2.08065e-07
-1.96955e-07
-2.02e-07
-3.02372e-07
-1.58398e-07
-4.0466e-07
-7.90145e-08
-4.61692e-07
-4.52097e-07
5.57495e-09
-9.46226e-08
-2.29877e-08
1.39575e-07
-5.32355e-08
-1.35297e-08
-1.10728e-08
-1.8762e-08
3.20205e-08
-4.23165e-08
6.66104e-08
-9.20541e-08
6.73371e-08
-1.97682e-07
3.48468e-08
-2.69882e-07
3.03512e-08
-4.00165e-07
4.30728e-08
-4.74413e-07
-4.7327e-07
6.42459e-08
-1.70258e-08
-7.61774e-08
7.02153e-08
4.6374e-08
-7.69296e-08
1.06507e-07
-7.88942e-08
1.53294e-07
-8.91033e-08
1.784e-07
-1.17159e-07
1.59154e-07
-1.78435e-07
1.35377e-07
-2.46103e-07
1.32217e-07
-3.97004e-07
1.30995e-07
-4.73191e-07
-4.63322e-07
1.21047e-07
8.05611e-08
-1.12976e-07
-4.37631e-08
1.21373e-07
-1.17743e-07
1.58658e-07
-1.1618e-07
1.72801e-07
-1.03246e-07
1.72584e-07
-1.16941e-07
1.34944e-07
-1.40795e-07
1.41755e-07
-2.52914e-07
1.59444e-07
-4.14693e-07
1.53928e-07
-4.67676e-07
-4.42912e-07
1.33518e-07
6.99534e-08
-1.62522e-07
-2.04075e-08
9.95515e-08
-1.47341e-07
1.10696e-07
-1.27323e-07
1.03359e-07
-9.59069e-08
6.61294e-08
-7.9711e-08
2.09097e-08
-9.55746e-08
6.30287e-08
-2.95032e-07
9.27717e-08
-4.44436e-07
9.83101e-08
-4.73215e-07
-4.20176e-07
7.55741e-08
8.0796e-08
-1.86334e-07
-5.69836e-08
9.06215e-08
-1.57166e-07
9.24063e-08
-1.29108e-07
6.61861e-08
-6.96864e-08
1.6399e-08
-2.99242e-08
-1.92139e-08
-5.99622e-08
-1.10192e-08
-3.03227e-07
-1.9702e-08
-4.35754e-07
-1.07039e-08
-4.82214e-07
-4.44002e-07
1.31212e-08
1.43362e-07
-2.03177e-07
-1.26518e-07
1.41477e-07
-1.5528e-07
1.29649e-07
-1.17278e-07
1.14286e-07
-5.43227e-08
7.07388e-08
1.36231e-08
2.50285e-08
-1.42519e-08
-3.23489e-08
-2.45849e-07
-5.93098e-08
-4.08792e-07
-5.6724e-08
-4.84799e-07
-4.84304e-07
-1.64222e-08
1.49829e-07
-2.25589e-07
-1.27418e-07
1.54225e-07
-1.59675e-07
1.68444e-07
-1.31497e-07
1.7829e-07
-6.4169e-08
1.61028e-07
3.08846e-08
1.46242e-07
5.34033e-10
5.49661e-08
-1.54575e-07
-9.3545e-09
-3.44472e-07
-1.62596e-08
-4.77894e-07
-5.26849e-07
2.62849e-08
1.20075e-07
-2.29426e-07
-1.16238e-07
1.34987e-07
-1.74586e-07
1.73191e-07
-1.69702e-07
2.0534e-07
-9.63169e-08
2.58612e-07
-2.23869e-08
3.0003e-07
-4.08837e-08
2.81462e-07
-1.36007e-07
2.41902e-07
-3.04912e-07
2.10425e-07
-4.46417e-07
-5.11681e-07
1.95258e-07
3.3801e-08
-2.17642e-07
-4.55851e-08
3.47214e-08
-1.75506e-07
5.33063e-08
-1.88287e-07
1.2713e-07
-1.70141e-07
2.3298e-07
-1.28238e-07
3.30679e-07
-1.38583e-07
3.95864e-07
-2.01192e-07
4.24587e-07
-3.33634e-07
4.22935e-07
-4.44766e-07
-4.88653e-07
3.99907e-07
-3.85029e-08
-2.20602e-07
4.14633e-08
-1.3462e-08
-2.00548e-07
2.37946e-08
-2.25543e-07
8.68472e-08
-2.33193e-07
1.76541e-07
-2.17932e-07
2.78061e-07
-2.40102e-07
4.00296e-07
-3.23427e-07
4.75784e-07
-4.09121e-07
4.92758e-07
-4.61739e-07
-4.73141e-07
4.77248e-07
-1.98709e-08
-2.16294e-07
1.55634e-08
1.00346e-08
-2.30455e-07
3.79465e-08
-2.53455e-07
5.79532e-08
-2.53201e-07
1.09003e-07
-2.68982e-07
2.31277e-07
-3.62377e-07
3.75242e-07
-4.67393e-07
4.51034e-07
-4.84913e-07
4.72435e-07
-4.8314e-07
-4.46991e-07
4.46285e-07
6.59763e-08
-2.09787e-07
-7.24838e-08
7.57425e-08
-2.40221e-07
7.97014e-08
-2.57413e-07
8.57137e-08
-2.59212e-07
1.4703e-07
-3.30298e-07
2.70105e-07
-4.8545e-07
3.32804e-07
-5.30091e-07
3.64414e-07
-5.16522e-07
3.24297e-07
-4.43023e-07
-3.35976e-07
2.13284e-07
1.312e-07
-1.84939e-07
-1.56049e-07
1.1146e-07
-2.20481e-07
9.49235e-08
-2.40877e-07
7.24393e-08
-2.36728e-07
1.40922e-07
-3.98781e-07
2.18955e-07
-5.63483e-07
2.55858e-07
-5.66994e-07
1.85049e-07
-4.45713e-07
6.2311e-08
-3.20285e-07
-2.28144e-07
-4.55212e-08
1.44999e-07
-1.55085e-07
-1.74853e-07
1.15667e-07
-1.9115e-07
7.45673e-08
-1.99776e-07
4.17439e-08
-2.03904e-07
8.66836e-08
-4.4372e-07
7.28539e-08
-5.49653e-07
3.34009e-08
-5.2754e-07
-5.81904e-08
-3.54121e-07
-1.25301e-07
-2.53173e-07
-2.14606e-07
-1.38838e-07
1.31125e-07
-1.24889e-07
-1.6132e-07
9.50579e-08
-1.55082e-07
3.90408e-08
-1.43759e-07
-1.63797e-09
-1.63226e-07
-1.96996e-08
-4.25659e-07
-5.45502e-08
-5.14803e-07
-7.08894e-08
-5.11201e-07
-1.14675e-07
-3.10334e-07
-1.24278e-07
-2.43569e-07
-2.27006e-07
-1.11878e-07
1.33124e-07
-9.6046e-08
-1.61967e-07
9.50435e-08
-1.17001e-07
6.49556e-08
-1.13669e-07
3.041e-08
-1.2868e-07
-3.02652e-08
-3.64984e-07
-6.1594e-08
-4.83473e-07
-6.38278e-08
-5.08967e-07
-3.66839e-08
-3.37478e-07
-1.82422e-08
-2.62011e-07
-2.27543e-07
-1.77061e-08
1.41106e-07
-5.42161e-08
-1.82936e-07
1.00102e-07
-7.59993e-08
8.58223e-08
-9.93895e-08
9.29973e-08
-1.35855e-07
5.93142e-08
-3.31302e-07
4.47841e-08
-4.68943e-07
3.35454e-08
-4.97728e-07
8.42833e-08
-3.88216e-07
8.68436e-08
-2.6457e-07
-2.01783e-07
6.10861e-08
1.4637e-07
-3.13316e-08
-1.69254e-07
1.13913e-07
-4.35427e-08
1.01063e-07
-8.65397e-08
1.07071e-07
-1.41865e-07
1.12549e-07
-3.36779e-07
1.10067e-07
-4.66462e-07
9.22061e-08
-4.79868e-07
1.2213e-07
-4.1814e-07
1.02786e-07
-2.45227e-07
-1.68157e-07
6.91586e-08
2.06724e-07
-2.43801e-08
-2.13675e-07
1.94798e-07
-3.1616e-08
1.59551e-07
-5.12932e-08
1.31578e-07
-1.13894e-07
1.2864e-07
-3.33842e-07
1.18255e-07
-4.56076e-07
1.0622e-07
-4.67831e-07
1.11757e-07
-4.23676e-07
5.71075e-08
-1.90577e-07
-1.22906e-07
1.1857e-08
1.37347e-07
1.11903e-09
-1.62846e-07
1.12553e-07
-6.82471e-09
7.04144e-08
-9.15457e-09
1.1083e-07
-1.5431e-07
1.41784e-07
-3.64795e-07
1.32577e-07
-4.4687e-07
1.14575e-07
-4.4983e-07
7.20252e-08
-3.81126e-07
-5.08661e-08
-6.76853e-08
-3.76808e-09
-1.70004e-07
6.60394e-08
1.4211e-08
-7.913e-08
4.72058e-08
1.20102e-08
2.34854e-08
1.4564e-08
1.19725e-07
-2.5055e-07
1.59394e-07
-4.04464e-07
1.56554e-07
-4.44031e-07
1.4659e-07
-4.39866e-07
7.07096e-08
-3.05246e-07
-1.00632e-07
1.03658e-07
1.30866e-07
-2.35265e-07
7.23852e-08
6.31771e-09
-6.44929e-08
3.36805e-08
5.07167e-08
2.598e-08
2.2263e-08
1.30314e-07
-3.54884e-07
1.57843e-07
-4.31994e-07
1.61728e-07
-4.47915e-07
1.62702e-07
-4.40841e-07
9.12513e-08
-2.33796e-07
-4.08774e-08
2.35786e-07
1.66875e-07
-7.68862e-08
-7.8453e-08
5.22849e-08
3.24862e-08
-1.10785e-07
8.30497e-08
2.5562e-08
-1.14085e-07
7.44462e-08
-4.0377e-07
7.5019e-08
-4.32568e-07
8.73534e-08
-4.60248e-07
1.17156e-07
-4.70643e-07
7.64486e-08
-1.93086e-07
5.92007e-08
2.53035e-07
1.72418e-07
5.36574e-08
-2.06354e-07
5.60878e-08
2.02551e-07
-2.14195e-07
9.08909e-08
-3.36122e-08
-2.94667e-07
-1.00552e-08
-4.27326e-07
-8.92374e-09
-4.33699e-07
-2.45509e-08
-4.44622e-07
-4.48849e-08
-4.5031e-07
5.47863e-08
-2.92757e-07
7.5568e-08
2.32255e-07
2.15087e-07
3.28984e-08
1.31192e-08
8.06139e-08
-3.76459e-08
-7.89003e-08
1.8291e-07
-1.5633e-08
-3.57937e-07
-2.29335e-08
-4.20025e-07
-3.09789e-08
-4.25653e-07
-5.13573e-08
-4.24244e-07
-8.05632e-08
-4.21104e-07
2.33535e-08
-3.96673e-07
2.68723e-07
-1.31168e-08
5.1498e-07
-3.11734e-08
4.61998e-08
2.1109e-07
-1.76675e-07
7.2163e-08
1.56948e-07
7.28437e-08
-3.58618e-07
3.59038e-08
-3.83085e-07
-1.53938e-08
-3.74355e-07
-6.85824e-08
-3.71055e-07
-1.25264e-07
-3.64423e-07
-1.71924e-07
-3.50013e-07
1.30445e-08
-1.98073e-07
4.75966e-07
5.20706e-08
-1.78238e-07
1.01708e-07
2.87614e-07
1.51799e-07
-1.73084e-07
9.97342e-08
-3.06552e-07
3.89259e-08
-3.22277e-07
-1.2625e-08
-3.22804e-07
-6.42366e-08
-3.19443e-07
-1.1396e-07
-3.14699e-07
-1.64858e-07
-2.99116e-07
-7.98221e-08
-2.8313e-07
2.52843e-07
1.43364e-07
7.93842e-08
-2.23898e-07
2.46238e-07
1.42316e-07
-2.36021e-07
9.65253e-08
-2.60761e-07
3.55329e-08
-2.61284e-07
-2.0403e-08
-2.66869e-07
-7.14249e-08
-2.68422e-07
-1.17695e-07
-2.68428e-07
-1.60421e-07
-2.5639e-07
-2.27019e-07
-2.16518e-07
-1.57999e-07
1.83782e-07
1.4273e-07