/*--------------------------------*- C++ -*----------------------------------*\
  =========                 |
  \\      /  F ield         | OpenFOAM: The Open Source CFD Toolbox
   \\    /   O peration     | Website:  https://openfoam.org
    \\  /    A nd           | Version:  8
     \\/     M anipulation  |
\*---------------------------------------------------------------------------*/
FoamFile
{
    version     2.0;
    format      ascii;
    class       volScalarField;
    location    "8.85";
    object      p;
}
// * * * * * * * * * * * * * * * * * * * * * * * * * * * * * * * * * * * * * //

dimensions      [1 -1 -2 0 0 0 0];

internalField   nonuniform List<scalar> 
9150
(
-208.406
-209.426
-210.054
-210.507
-210.749
-210.761
-210.539
-210.076
-209.444
-208.424
-228.467
-228.985
-229.41
-229.725
-229.909
-229.911
-229.737
-229.422
-228.999
-228.482
-248.36
-248.642
-248.897
-249.12
-249.231
-249.236
-249.132
-248.912
-248.656
-248.373
-268.099
-268.274
-268.444
-268.605
-268.686
-268.692
-268.616
-268.455
-268.286
-268.111
-287.723
-287.902
-288.041
-288.174
-288.238
-288.235
-288.18
-288.05
-287.913
-287.735
-122.356
-123.064
-122.729
-122.431
-122.281
-122.317
-122.551
-122.925
-123.316
-122.647
-137.852
-138.567
-138.673
-138.766
-138.693
-138.712
-138.834
-138.77
-138.695
-137.984
-154.314
-155.084
-155.356
-155.741
-155.814
-155.838
-155.788
-155.416
-155.152
-154.386
-171.174
-172.359
-172.814
-173.448
-173.629
-173.655
-173.473
-172.871
-172.407
-171.219
-188.286
-190.335
-191.096
-191.794
-192.074
-192.068
-191.77
-191.12
-190.353
-188.306
-26.6593
-28.1491
-30.3585
-31.707
-32.5021
-32.8996
-32.7236
-33.0473
-31.7861
-32.0205
-47.6144
-48.1203
-49.3191
-49.9466
-50.6994
-51.1368
-50.972
-51.4192
-50.7341
-51.0766
-68.5203
-68.3756
-69.555
-69.4773
-70.0304
-70.4127
-69.9953
-70.9601
-69.9626
-70.5519
-91.6703
-88.8382
-89.7503
-88.537
-88.6692
-88.8942
-88.83
-90.803
-89.6254
-92.7671
-117.009
-107.871
-107.264
-106.13
-105.698
-105.828
-106.352
-107.812
-108.358
-117.704
1723.98
1724
1723.92
1723.89
1723.86
1723.79
1723.75
1723.47
1723.35
1723.19
1703.99
1704.15
1704.24
1704.41
1704.37
1704.3
1704.34
1704
1703.86
1703.65
1684.14
1684.53
1684.75
1685.13
1685.11
1685.03
1685.03
1684.73
1684.56
1684.3
1664.42
1664.86
1665.18
1665.68
1665.7
1665.64
1665.66
1665.45
1665.26
1665.01
1644.74
1645.24
1645.7
1646.22
1646.3
1646.33
1646.45
1646.38
1646.22
1646.09
1625.19
1625.8
1626.35
1626.76
1626.84
1626.98
1627.08
1626.88
1626.99
1626.89
1605.62
1606.3
1606.68
1606.99
1606.94
1607.33
1607.33
1607.4
1607.43
1607.43
1585.98
1586.47
1586.9
1587.17
1587.32
1587.69
1587.67
1587.77
1587.83
1587.83
1566.66
1567.08
1567.39
1567.61
1567.83
1568.04
1568.03
1568.19
1568.28
1568.21
1547.54
1547.8
1548.01
1548.12
1548.41
1548.52
1548.6
1548.72
1548.68
1548.75
1528.47
1528.59
1528.81
1528.96
1529.03
1529.08
1529.12
1529.16
1529.16
1529.21
1509.36
1509.58
1509.63
1509.63
1509.64
1509.58
1509.59
1509.61
1509.61
1509.57
1490
1490.02
1490.11
1490.11
1490.09
1490.03
1490
1490
1489.98
1489.96
1470.16
1470.32
1470.39
1470.37
1470.35
1470.31
1470.28
1470.27
1470.26
1470.22
1450.04
1450.21
1450.3
1450.35
1450.39
1450.44
1450.48
1450.45
1450.48
1450.47
1429.71
1429.86
1429.99
1430.13
1430.27
1430.4
1430.53
1430.7
1430.77
1430.77
1409.55
1409.62
1409.75
1409.91
1410.04
1410.22
1410.47
1410.67
1410.74
1410.61
1389.3
1389.43
1389.5
1389.73
1389.96
1389.96
1390.1
1390.13
1389.99
1389.65
1368.9
1369.11
1369.31
1369.58
1370.09
1370.1
1369.71
1369.55
1369.79
1369.55
1348.13
1348.38
1348.62
1348.84
1349.19
1349.36
1349.58
1349.64
1349.65
1349.92
1327.22
1327.56
1327.94
1328.2
1328.39
1328.69
1328.84
1329.04
1329.67
1330.37
1306.32
1306.82
1307.21
1307.56
1307.8
1308.18
1308.49
1308.87
1309.49
1310.56
1285.64
1286.19
1286.57
1287.03
1287.26
1287.74
1288.12
1288.39
1289.26
1290.23
1265.25
1265.95
1266.59
1266.96
1269.51
1267.72
1268.48
1268.42
1269.09
1269.61
1244.74
1245.85
1247.33
1248.54
1250.64
1254.58
1249.56
1249.08
1249.38
1248.46
1225.27
1226.28
1228.7
1230.04
1231.52
1236.38
1234.18
1229.49
1228.62
1228.35
1206.63
1207.98
1209.98
1211.87
1213.11
1213.74
1215.4
1214.33
1212.27
1210.46
1190.06
1190.63
1192.05
1193.32
1195.15
1196.1
1197.03
1197.92
1197.98
1197.79
1174.8
1176.01
1177.17
1177.03
1178.26
1179.65
1180.38
1180.5
1180.37
1180.81
1160.13
1161.03
1161.54
1161.59
1161.94
1162.74
1163.12
1163.38
1163.44
1163.42
1143.92
1144.6
1145.25
1145.36
1145.27
1145.95
1146.51
1146.78
1146.91
1147.04
1127.09
1128.74
1129.19
1128.99
1129.23
1129.55
1130.03
1130.01
1130.04
1129.98
1110.6
1115.41
1111.58
1111.82
1112.16
1112.92
1112.69
1112.27
1112.13
1112.02
1091.67
1094.19
1092.89
1094.04
1094.15
1094.42
1094.32
1094.16
1093.93
1093.65
1072.52
1074.07
1074.29
1075.39
1075.33
1076.12
1076.77
1076.47
1076.08
1075.67
1053.98
1054.67
1056.68
1057.38
1057.48
1058.58
1058.32
1058.13
1058.36
1059.19
1035.73
1036.88
1037.96
1038.98
1039.8
1040.3
1040.54
1040.88
1041.1
1040.82
1017.39
1018.24
1020.33
1020.4
1020.6
1020.98
1021.26
1021.72
1023.16
1022.04
998.032
998.925
1000.1
1000.85
1000.93
1001.6
1002.11
1002.51
1002.7
1002.63
978.418
979.091
980.341
981.172
981.829
982.518
983.068
983.349
983.675
983.423
958.223
958.983
960.785
960.647
961.439
961.975
962.618
963.206
963.648
963.541
938.603
939.157
939.818
940.565
941.334
942.027
942.594
943.053
943.409
943.631
919.179
919.645
920.012
920.586
921.296
922.016
922.413
922.488
923.024
923.932
899.884
900.058
900.286
900.811
901.612
902.702
903.731
904.792
905.311
904.379
882.359
882.709
883.101
883.588
884.118
884.655
885.096
885.183
884.804
885.767
864.943
865.281
865.568
865.878
866.188
866.704
867.181
867.831
867.564
868.67
847.598
848.04
848.359
848.617
848.853
849.162
850.103
851.001
851.923
852.386
830.385
830.812
831.315
832.869
833.267
833.527
832.534
833.643
833.431
833.097
813.154
814.262
815.616
816.887
816.406
815.067
816.399
816.085
815.081
814.393
794.812
797.311
798.153
797.996
799.88
799.818
798.038
799.017
798.523
798.356
780.903
780.807
780.05
779.947
779.461
778.668
777.885
781.754
781.578
781.303
759.052
759.965
760.445
759.057
758.626
757.712
757.338
757.949
759.565
761.377
740.583
740.629
740.209
738.742
738.714
738.295
737.894
738.601
739.963
741.565
722.4
722.505
722.078
721.228
721.065
720.792
720.653
721.22
722.18
723.289
706.087
706.23
706.114
705.804
705.405
705.074
705
705.203
705.551
706.01
690.883
691.074
691.065
690.904
690.581
690.104
689.791
689.617
689.53
689.482
676.106
676.346
676.414
676.287
675.949
675.441
674.667
673.962
673.414
672.854
661.087
661.354
661.3
661.076
660.632
659.843
658.926
658.006
657.271
657.718
645.382
645.413
645.21
644.81
644.207
643.429
642.564
641.702
640.643
644.644
629.278
629.038
628.498
627.817
627.172
626.587
625.867
624.652
622.444
625.781
613.665
612.831
611.59
610.212
609.602
609.645
609.143
607.21
605.135
604.563
597.072
596.008
594.789
595.509
595.701
593.511
594.445
590.989
588.149
587.909
580.317
581.113
579.984
578.545
578.458
579.163
577.276
575.91
574.136
573.407
560.402
561.273
561.753
563.032
562.681
564.029
566.298
565.11
563.44
560.344
534.857
536.28
538
540.25
544.892
546.66
547.271
547.485
546.299
543.547
504.584
505.874
507.062
512.619
514.134
519.018
521.921
522.857
520.526
518.982
472.397
473.948
473.996
475.631
480.68
485.134
488.891
491.8
492.69
494.761
441.482
443.353
445.433
448.71
452.359
457.028
462.609
467.554
471.177
473.818
416.306
421.168
425.924
430.478
436.381
441.984
443.883
451.471
453.814
454.918
403.535
407.93
413.51
418.581
422.522
426.974
430.707
431.451
433.823
434.423
395.287
396.319
399.125
402.58
406.772
410.204
412.013
414.574
413.468
412.731
379.108
379.485
381.034
384.121
386.761
389.79
390.684
390.701
389.128
386.269
359.904
359.56
361.372
363.512
365.346
367.145
366.927
367.59
367.178
366.611
341.205
342.164
343.164
344.06
345.259
349.064
353.793
356.374
355.943
353.97
322.191
322.992
324.02
325.687
328.22
332.523
338.835
343.352
344.646
344.626
303.179
303.652
304.364
305.111
305.206
304.646
307.082
313.658
316.637
316.52
282.692
282.569
282.75
282.995
281.975
277.386
276.712
282.582
282.777
285.803
262.312
261.605
260.995
261.098
260.12
259.767
256.305
254.814
258.156
260.93
242.615
241.367
240.624
240.175
239.246
238.065
236.583
232.033
237.501
236.032
223.859
223.839
220.134
219.456
217.98
215.169
215.245
208.811
210.84
211.347
203.908
210.292
205.65
203.212
201.877
194.284
193.691
189.031
186.222
187.596
186.941
192.004
191.033
188.339
187.788
179.339
178.118
174.898
169.483
167.384
171.483
176.609
175.129
177.397
170.514
166.723
164.091
160.539
154.441
149.597
158.216
163.928
161.966
165.233
157.268
153.971
149.255
143.932
137.752
132.105
150.948
152.694
151.488
149.194
146.069
140.279
132.95
126.964
120.328
114.379
145.246
144.676
142.893
139.528
130.317
122.383
114.806
107.626
103.224
98.6507
137.695
137.234
136.613
128.963
117.033
106.162
97.9196
95.52
91.0876
87.6018
129.406
129.755
124.588
115.148
103.404
91.7765
86.2997
86.4013
86.5303
86.3004
116.082
114.412
108.123
97.9487
87.3765
84.4313
83.6088
85.0451
83.5109
81.782
96.373
96.1207
89.7568
84.8832
78.0481
78.2638
78.0522
79.8744
78.0166
76.0726
80.8842
73.6642
72.0022
71.3762
71.0325
72.7301
72.4288
72.4791
71.2809
70.8208
60.0507
48.6702
51.8276
55.4223
59.2341
62.5943
62.9233
62.2146
59.4562
67.3302
38.034
25.1381
32.1181
38.272
43.4609
47.5493
49.0261
49.2822
45.5016
61.69
16.7503
9.5109
13.3465
18.689
23.936
29.3467
40.3436
34.4318
34.0197
35.9506
-8.80102
-3.56958
-6.32787
2.0937
8.7439
13.7982
19.0001
24.4476
18.3196
16.8788
-1.90534
-4.75606
-10.8334
-1.88598
3.78846
6.33263
7.04945
24.5799
23.0172
16.9428
-1.92877
-1.95005
-6.90612
0.0926476
4.21023
5.58671
7.20522
27.2622
18.6737
6.25958
-1.92134
-2.51754
-5.99761
-2.36949
0.656889
2.546
3.75129
3.1463
5.71929
1.06796
-1.9411
-4.19584
-6.22461
-5.99658
-5.71506
-5.39997
-5.13054
-4.32937
0.282129
-4.95627
-2.67035
-10.2685
-13.7483
-15.9434
-17.0305
-17.4395
-16.9544
-16.2155
-13.2749
-14.1801
1722.97
1722.68
1722.36
1722.04
1721.77
1721.55
1721.4
1721.36
1721.52
1721.79
1722.12
1722.49
1722.88
1723.15
1723.49
1723.38
1723.12
1722.84
1722.53
1722.3
1722.2
1721.96
1721.89
1721.72
1721.38
1721.21
1721.31
1721.57
1721.79
1721.95
1722.06
1722.17
1722.27
1722.48
1722.47
1722.46
1722.51
1722.52
1722.62
1722.65
1703.39
1703.06
1702.7
1702.31
1701.96
1701.63
1701.37
1701.48
1701.76
1702.1
1702.42
1702.64
1703.43
1704.1
1704.45
1704.37
1704.09
1703.42
1702.93
1702.6
1702.36
1702.3
1701.89
1701.59
1701.05
1700.87
1701.39
1701.83
1702.14
1702.29
1702.38
1702.45
1702.65
1702.85
1702.83
1702.82
1702.88
1702.93
1702.99
1703.07
1683.98
1683.58
1683.1
1682.62
1682.13
1681.7
1681.22
1681.04
1680.95
1681.83
1682.65
1683.24
1685.69
1685.93
1685.68
1684.98
1684.4
1683.79
1683.25
1682.95
1682.62
1682.53
1682.2
1681.7
1681.52
1681.38
1681.89
1682.26
1682.55
1682.67
1682.71
1682.69
1682.92
1683.16
1683.25
1683.35
1683.43
1683.49
1683.52
1683.6
1664.68
1664.19
1663.48
1663.17
1662.05
1660.92
1660.12
1660.27
1661.17
1662.76
1662.97
1662.24
1663.55
1664.62
1664.81
1664.51
1663.84
1663.01
1662.42
1662.82
1663.81
1664.75
1665.06
1663.7
1661.88
1662.42
1662.96
1663.15
1663.31
1663.15
1663.12
1663.11
1663.24
1663.43
1663.54
1663.68
1663.83
1663.9
1663.99
1664.07
1645.91
1645.69
1645.06
1643.98
1642.94
1641.59
1640.83
1641.16
1642.52
1643.1
1642.02
1642.54
1642.88
1643.41
1643.66
1643.57
1643.07
1642.45
1642.37
1643.66
1645.09
1644.84
1645.17
1645.09
1644.3
1644.71
1644.98
1644.74
1644.34
1644.21
1644.1
1644.4
1643.97
1643.97
1644.03
1644.15
1644.24
1644.44
1644.5
1644.55
1626.79
1626.71
1625.94
1625.41
1624.43
1623.57
1624.69
1624.15
1622.22
1623.29
1622.6
1621.73
1622.11
1622.55
1622.78
1622.81
1622.83
1622.61
1622.56
1625.5
1623.31
1623.97
1624.53
1624.96
1625.26
1626.17
1625.57
1625.17
1624.75
1624.81
1625.29
1625.34
1625.32
1625.49
1625.71
1625.86
1625.31
1625.33
1625.37
1625.38
1607.43
1607.33
1606.83
1606.55
1605.81
1605.85
1604.53
1603.24
1602.58
1604.34
1603.02
1602.42
1600.85
1601.19
1601.78
1602.3
1602.52
1602.59
1604.67
1602.76
1603.32
1603.61
1604.07
1604.48
1604.75
1604.89
1604.95
1604.9
1604.69
1604.62
1604.86
1605.17
1605.52
1606.02
1606.35
1606.89
1606.24
1606.1
1606.01
1606.05
1587.8
1587.79
1587.32
1587.02
1586.51
1586.44
1585.53
1584.04
1582.88
1582.46
1582.32
1581.98
1581.95
1581.44
1581.93
1582.63
1582.85
1584.08
1584.59
1582.34
1582.82
1583.32
1583.81
1584.21
1584.57
1584.77
1584.82
1584.75
1584.57
1584.46
1584.61
1585.06
1585.45
1586.06
1586.5
1586.88
1587.06
1587.16
1587.07
1587.09
1568.25
1568.25
1568.22
1567.51
1567.18
1566.7
1566.16
1565.16
1564.16
1563.81
1563.45
1563.12
1562.78
1562.35
1562.84
1563.44
1563.88
1564.81
1564.83
1564.25
1563.55
1563.38
1563.79
1564.29
1564.68
1564.97
1565.15
1565.13
1564.97
1565.22
1566.02
1566.57
1567.2
1567.64
1567.95
1567.66
1568.09
1568.08
1568.07
1568.07
1548.73
1548.81
1548.67
1548.38
1547.8
1547.31
1547.02
1546.68
1545.94
1545.73
1545.3
1544.94
1544.4
1544.14
1544.34
1544.61
1544.97
1545.43
1545.87
1545.85
1545.34
1544.95
1544.8
1544.83
1545.17
1545.45
1545.7
1545.94
1546.25
1546.92
1547.85
1548.36
1548.83
1549.01
1548.98
1548.96
1548.88
1548.93
1549.24
1549.27
1529.21
1529.17
1529.08
1528.88
1528.55
1527.91
1527.35
1526.84
1526.79
1527.92
1526.11
1525.38
1525.14
1525.02
1524.95
1525.16
1525.46
1525.93
1526.44
1526.86
1527.1
1526.85
1526.6
1526.44
1526.19
1526.23
1526.27
1526.49
1526.88
1527.41
1527.89
1528.93
1529.47
1529.44
1529.73
1529.86
1529.81
1530.27
1530.44
1530.41
1509.59
1509.42
1509.36
1509.16
1508.83
1508.66
1507.69
1507.35
1506.69
1506.07
1505.53
1505.05
1504.67
1504.36
1504.32
1504.6
1505.1
1505.77
1506.65
1507.59
1507.88
1508.1
1508.32
1508.22
1508.14
1506.98
1506.64
1506.71
1506.99
1507.47
1507.92
1508.38
1508.87
1509.33
1509.72
1510.05
1510.24
1510.49
1510.58
1510.95
1489.93
1489.74
1489.7
1489.58
1489.38
1489.12
1488.57
1487.84
1487.65
1487.09
1486.26
1485.69
1485.38
1485.05
1484.88
1485.02
1485.62
1486.52
1487.38
1488.2
1488.69
1488.9
1488.88
1488.56
1490.45
1487.88
1486.73
1487.09
1487.25
1487.58
1487.95
1488.32
1488.73
1489.16
1489.71
1489.97
1490.36
1490.65
1490.74
1490.75
1470.22
1470.17
1470.06
1470.02
1469.96
1469.77
1469.44
1469.24
1468.89
1468.48
1468.13
1467.82
1467.54
1467.29
1467.22
1467.02
1467.29
1467.75
1468.26
1468.87
1469.33
1469.53
1469.37
1468.94
1468.55
1468.3
1468.11
1468.1
1468.02
1467.95
1468.09
1468.31
1468.64
1469.05
1469.5
1469.88
1470.27
1470.67
1470.84
1470.94
1450.43
1450.4
1450.39
1450.36
1450.4
1450.39
1450.26
1450.08
1449.87
1449.7
1449.69
1449.34
1449.34
1448.88
1448.92
1448.88
1448.97
1449.19
1449.43
1449.92
1450.21
1450.14
1449.79
1449.36
1448.92
1448.57
1448.3
1448.18
1448.28
1448.21
1448.14
1448.24
1448.47
1448.81
1449.27
1449.75
1450.28
1450.71
1451.13
1451.44
1430.73
1430.62
1430.6
1430.62
1430.65
1430.75
1430.75
1430.73
1430.66
1430.5
1430.33
1430.2
1430.12
1429.99
1429.9
1429.81
1429.99
1430.05
1430.25
1430.34
1430.4
1430.31
1429.99
1429.54
1429.03
1428.68
1428.57
1428.51
1428.51
1428.5
1428.5
1428.6
1428.87
1429.03
1429.37
1429.72
1430.34
1430.95
1431.41
1431.75
1410.5
1410.51
1410.67
1410.84
1410.97
1411.02
1411.03
1411.04
1411.01
1410.96
1410.86
1410.75
1410.67
1410.6
1410.53
1410.5
1410.5
1410.51
1410.86
1410.7
1410.46
1410.38
1410.08
1409.62
1409.27
1409.03
1408.91
1408.88
1408.93
1409.02
1409.27
1409.51
1409.73
1409.86
1410.08
1410.61
1410.92
1411.63
1411.93
1412.18
1389.53
1390.08
1390.93
1392
1391.35
1391.47
1391.49
1391.49
1391.44
1391.34
1391.22
1391.14
1391.06
1390.98
1390.88
1390.78
1390.67
1390.57
1390.74
1390.61
1390.45
1390.42
1390.21
1389.95
1389.75
1389.64
1389.63
1389.76
1389.87
1389.93
1390.4
1390.88
1391.19
1392.03
1391.78
1391.96
1392.29
1392.72
1393.29
1393.49
1369.58
1370.59
1371.97
1372.7
1372.5
1372.45
1372.23
1372.08
1371.99
1371.88
1371.74
1371.61
1371.5
1371.41
1371.25
1371.02
1370.77
1370.5
1370.26
1370.18
1370.35
1370.53
1370.56
1370.51
1370.53
1370.72
1370.88
1371.06
1372.05
1371.52
1372.12
1372.87
1372.99
1373.97
1374.27
1374.44
1374.49
1374.78
1375.11
1375.31
1350.55
1351.48
1352.63
1353.07
1353.07
1352.7
1352.51
1352.72
1352.55
1352.4
1352.17
1351.98
1351.8
1351.66
1351.52
1351.34
1351.11
1350.75
1350.2
1350.09
1350.36
1351.13
1352.09
1351.48
1351.87
1352.29
1352.58
1352.73
1353.73
1353.97
1353.81
1355.68
1355.47
1356.04
1356.3
1356.59
1356.83
1356.88
1357.13
1357.3
1331.21
1332.1
1332.95
1333.46
1333.64
1333.73
1334.02
1334.21
1334.04
1333.56
1333.09
1332.77
1332.41
1332.23
1332.13
1332.01
1331.84
1331.51
1331.08
1331.01
1331.44
1332.52
1333.04
1332.87
1333.8
1334.02
1334.09
1334.59
1335.22
1335.71
1336.26
1336.69
1337.95
1337.95
1338.12
1338.51
1338.87
1339.01
1339.25
1339.4
1311.65
1312.27
1313.19
1313.92
1314.32
1314.57
1314.67
1314.57
1314.23
1313.64
1313.41
1313.13
1313.01
1312.88
1312.99
1312.84
1312.83
1312.8
1312.76
1312.71
1313.18
1313.87
1314.43
1315.64
1316.01
1315.9
1316.09
1316.53
1317.12
1317.71
1318.35
1318.94
1319.39
1320.66
1319.71
1320.68
1320.91
1320.93
1321.08
1321.25
1291.67
1292.14
1293.15
1294.02
1294.54
1294.83
1294.81
1294.47
1294.19
1293.85
1293.4
1293.28
1293.19
1293.34
1293.64
1293.73
1293.6
1293.78
1293.93
1294.22
1294.72
1295.29
1295.84
1296.23
1296.4
1297.48
1297.32
1297.79
1298.55
1299.18
1299.75
1300.34
1300.55
1302.18
1301.97
1302.42
1303.04
1302.25
1302.67
1302.95
1270.33
1271.2
1272.12
1272.93
1273.64
1274.1
1274.24
1275.03
1273.92
1273.87
1273.07
1273.27
1272.86
1273.35
1273.78
1274.22
1274.62
1274.93
1275.26
1275.53
1275.82
1276.21
1276.61
1276.85
1276.96
1277.4
1278.13
1279.17
1279.34
1280.11
1280.88
1281.53
1281.83
1283
1283.29
1284.18
1284.81
1283.63
1284
1284.19
1248.61
1248.78
1249.46
1250.39
1251.34
1252.19
1252.77
1255.04
1254.02
1252.76
1252.42
1252.25
1252.24
1253.12
1254.01
1254.68
1255.17
1255.67
1255.86
1256.21
1256.49
1256.75
1256.93
1257.01
1257.19
1257.6
1258.19
1259.08
1259.99
1261.55
1262.68
1262.26
1262.86
1263.6
1263.63
1265.56
1265.38
1265.1
1265.27
1265.4
1227.74
1227.15
1227.3
1228.01
1228.93
1229.92
1230.76
1231.66
1232.3
1231.7
1231.91
1232.56
1232.62
1233.61
1234.67
1235.69
1236.32
1236.37
1236.52
1236.72
1236.79
1236.81
1236.89
1237
1237.27
1237.55
1238.21
1239.01
1239.84
1240.95
1241.97
1242.61
1243.44
1244.19
1244.9
1246.48
1245.64
1245.85
1245.91
1245.94
1208.85
1208.31
1208.3
1208.61
1209.32
1210.39
1211.24
1211.55
1209.49
1214.23
1210.82
1212.41
1213.42
1214.91
1215.41
1216.56
1217.31
1217.61
1217.54
1217.43
1217.13
1216.84
1216.83
1216.76
1217.07
1217.53
1218.17
1219
1219.92
1220.93
1221.94
1222.84
1223.62
1224.32
1226.04
1226.07
1226.25
1226.34
1226.34
1226.35
1197.4
1196.96
1194.51
1192.84
1193.65
1194.22
1194.24
1193.54
1192.27
1195.48
1195.52
1194.15
1194.8
1196.2
1197.23
1197.97
1198.5
1198.54
1198.13
1197.64
1197.05
1197.52
1196.19
1196.54
1196.84
1197.15
1197.86
1198.68
1199.7
1200.78
1201.83
1202.81
1203.75
1205.42
1206.08
1206.43
1206.73
1206.8
1206.71
1206.66
1180.88
1179.83
1179.66
1178.82
1177.92
1178.35
1179.32
1179.6
1178.97
1178.96
1179.24
1178.71
1178.14
1176.91
1177.14
1177.75
1178.32
1178.33
1178.21
1177.72
1177.45
1177.76
1177.47
1177.24
1176.49
1176.75
1177.03
1178.05
1178.96
1180.32
1181.73
1182.76
1184.25
1186
1185.71
1186.53
1186.99
1187.04
1186.96
1186.93
1163.58
1163.67
1162.89
1161.63
1162.61
1163.22
1165.48
1164.97
1164.65
1164.15
1163.13
1161.89
1160.31
1157.54
1156.4
1156.51
1157.31
1157.69
1157.86
1157.73
1157.41
1157.16
1157.22
1156.99
1156.01
1155.81
1156.18
1156.68
1159.09
1159.79
1161.96
1162.39
1164.73
1164.66
1165.65
1166.4
1166.9
1166.99
1166.96
1166.93
1147.08
1146.84
1146.25
1145.15
1146.5
1146.36
1149.33
1148.84
1148.3
1148.7
1147.94
1147.13
1146.07
1144.41
1141.97
1137.52
1137.76
1137.98
1137.87
1137.58
1137.13
1136.66
1136.09
1136.69
1136.53
1134.96
1135.43
1136.29
1138.04
1139.58
1140.88
1142.17
1143.31
1144.16
1144.96
1145.62
1146.12
1146.38
1146.5
1146.58
1129.83
1129.49
1129.12
1129.69
1130.03
1128.51
1129.33
1129.84
1130.45
1131.25
1132.62
1132.08
1131.15
1130.1
1126.75
1121.68
1119.93
1118.77
1117.69
1116.67
1115.7
1114.93
1114.33
1114.2
1114.37
1114.48
1114.98
1115.88
1117.2
1118.86
1120.31
1121.56
1122.32
1122.82
1123.05
1123.37
1124.03
1124.85
1125.25
1125.65
1111.79
1111.54
1111.39
1113.36
1113.03
1110.49
1110.88
1111.38
1111.8
1112.31
1111.91
1111.26
1110.25
1108.6
1106.32
1103.82
1101.47
1099.18
1096.91
1094.79
1093
1091.47
1090.76
1091.31
1092.26
1092.66
1093.61
1094.99
1097.01
1099.09
1100.23
1100.87
1101.27
1101.2
1100.26
1099.24
1099.6
1101.03
1101.98
1102.89
1093.36
1093.2
1093.04
1093.06
1095.04
1092.31
1092.31
1092.68
1093.02
1093.37
1093.11
1092.39
1091.43
1089.97
1087.98
1085.42
1082.45
1079.31
1076.11
1073.6
1072.15
1071.23
1073.43
1072.33
1072.99
1073.8
1075.1
1076.59
1078.39
1080.74
1081.18
1081.09
1081.1
1080.52
1079.27
1076.88
1074.94
1075.7
1077.78
1079.56
1077.03
1074.95
1075.2
1075.24
1075.09
1074.41
1074.55
1074.52
1074.56
1074.73
1074.54
1074.2
1073.68
1072.27
1070.2
1067.6
1064.61
1061.74
1059.47
1057.66
1055.98
1054.9
1054.94
1055.33
1056.75
1058
1059.37
1060.78
1062.05
1062.76
1062.78
1063.11
1063
1062.42
1061.28
1059.59
1060.5
1060.06
1060.77
1062.22
1059.19
1058.03
1057.65
1057.19
1056.31
1056.04
1056.1
1056.14
1056.22
1056.75
1057
1056.92
1056.56
1055.09
1053.27
1050.9
1048.13
1046.98
1045.21
1043.66
1042.49
1041.79
1041.42
1041.28
1041.53
1041.72
1042.97
1044.23
1045.18
1045.51
1045.32
1045.9
1046.25
1047.52
1048.23
1048.55
1049.09
1049.17
1046.85
1048.99
1041.33
1040.39
1039.09
1038.03
1037.47
1037.03
1036.75
1036.84
1037.14
1038.22
1039.36
1040.04
1039.43
1038.09
1036.36
1034.39
1032.82
1032.62
1031.37
1029.82
1028.28
1027.32
1026.73
1026.46
1025.99
1025.77
1025.6
1026.02
1026.28
1026.12
1025.95
1027.01
1029.32
1031.84
1034.49
1035.47
1037.51
1036.15
1033.8
1033.12
1021.49
1020.66
1019.45
1018.37
1017.42
1017.59
1017.33
1016.13
1017
1018.44
1019.84
1020.46
1020.2
1019.99
1019.29
1018.22
1017.02
1017.49
1016.79
1015.26
1013.62
1015.75
1011.01
1011.11
1009
1006.44
1006.41
1006.37
1005.46
1005.68
1007.11
1008.77
1010.78
1014.51
1016.95
1018.51
1019.31
1017.83
1017.8
1017.66
1002.05
1000.96
999.407
998.802
999.633
999.112
998.716
996.672
998.317
1000.18
999.365
999.964
1000.58
1001.26
1001.38
1001.16
1000.89
1000.32
1003.26
1000.24
998.206
996.74
993.239
990.399
988.15
987.784
987.212
987.899
987.41
990.928
992.849
991.22
991.566
993.944
996.982
998.173
998.069
998.359
998.228
998.825
982.651
981.474
980.465
982.505
982.821
981.815
982.049
981.573
982.681
983.449
983.385
982.974
982.861
984.423
985.392
985.498
985.158
984.42
983.414
982.427
980.216
977.642
975.064
971.775
968.4
966.521
965.869
968.013
970.439
973.236
975.897
978.018
978.22
976.345
978.169
977.395
978.23
979.854
980.453
980.684
962.922
962.084
962.752
963.112
963.387
963.44
965.515
965.76
967.599
967.773
967.622
965.249
965.969
966.682
967.516
967.981
967.829
967.579
965.395
963.48
961.914
959.604
956.775
953.486
950.978
952.718
951.822
952.393
954.333
955.919
957.697
959.407
960.154
960.097
961.162
964.149
964.211
962.43
962.78
962.785
943.706
943.752
945.6
945.9
946.373
946.667
946.656
946.981
948.67
948.855
948.661
948.303
948.912
949.062
949.492
949.126
950.27
947.091
946.154
944.476
942.867
940.255
936.883
934.04
932.855
932.678
932.27
933.781
937.609
939.672
940.954
942.229
943.296
944.373
945.089
944.529
951.5
945.148
944.668
945.035
924.486
925.098
926.093
927.332
929.072
927.643
927.27
927.811
928.537
929.174
929.45
929.588
929.388
929.701
930.143
930.233
928.748
928.692
928.818
927.36
925.486
922.607
920.302
918.141
916.192
914.853
915.132
914.504
916.025
919.626
921.996
923.177
924.494
925.662
926.382
926.885
930.606
930.434
927.674
927.615
903.76
904.113
906.007
907.531
908.017
908.153
908.028
908.177
908.601
909.11
909.295
909.308
908.968
908.495
908.382
908.113
907.779
906.919
906.406
905.724
903.929
904.253
902.821
900.782
899.024
898.214
897.955
898.531
899.873
901.486
902.76
903.114
905.385
907.13
908.168
908.112
917.212
911.192
909.706
909.911
887.799
886.564
886.234
888.133
889.216
889.717
889.707
889.732
890.005
890.239
889.963
889.191
888.374
888.02
887.232
887.094
886.799
885.971
885.075
885.118
885.122
884.393
882.943
882.016
880.248
879.267
879.074
879.575
881.034
882.882
883.469
885.423
888.071
890.158
891.84
893.759
895.531
892.733
892.949
892.761
868.744
868.442
869.052
870.235
871.273
871.631
871.996
872.355
872.72
872.818
872.994
872.794
871.83
871.075
870.286
868.925
867.423
866.89
866.875
867.592
868.373
868.05
867.445
865.989
860.64
858.145
858.175
858.656
860.183
861.883
864.087
866.929
870.155
871.907
873.044
874.855
871.055
870.303
870.381
870.441
852.596
852.13
852.458
853.126
853.747
854.058
854.481
855.015
855.395
855.661
855.703
855.273
854.617
853.701
853.629
852.65
851.161
850.433
850.092
850.328
849.374
846.678
841.89
835.605
832.357
832.33
833.509
835.779
839.496
842.041
843.972
845.872
847.049
847.848
847.588
845.116
843.46
840.209
839.388
842.671
833.212
834.075
835.593
835.975
835.508
835.59
836.256
837.142
836.7
837.137
838.098
838.267
837.947
836.583
836.192
835.395
834.162
833.667
832.401
831.754
830.343
826.045
819.471
819.964
818.602
819.217
821.085
820.334
819.625
824.282
825.562
825.931
823.913
824.597
824.133
820.229
818.587
817.522
825.202
823.019
814.638
815.534
816.269
817.598
817.517
817.835
818.528
818.841
819.415
819.587
819.79
822.879
820.409
821.792
817.66
817.27
816.413
815.201
813.838
812.851
810.965
807.975
805.06
810.379
809.263
809.424
810.845
811.497
808.198
810.105
809.892
808.738
807.991
808.552
808.138
806.025
804.265
807.042
809.95
809.545
799.246
800.524
801.326
801.559
800.585
800.878
801.185
801.233
800.634
800.956
802.573
802.564
801.871
804.951
802.607
801.338
799.808
798.085
795.975
794.644
792.178
789.963
791.33
793.349
796.074
801.883
803.48
803.865
803.911
797.037
796.12
797.69
793.739
794.266
794.47
797.377
797.9
798.779
793.46
800.069
782.479
782.843
782.963
783.1
783.349
783.129
783.365
782.546
782.115
782.571
783.18
783.539
783.952
784.083
784.911
784.25
779.926
777.197
773.932
770.425
768.11
770.063
771.37
777.884
784.506
788.445
788.03
785.928
787.612
785.593
782.974
785.828
786.155
787.495
787.821
786.316
787.064
787.666
784.629
787.711
762.619
763.637
764.306
764.83
765.173
765.211
765.246
764.545
763.93
763.822
764.166
763.581
763.72
763.932
763.889
763.399
761.706
758.996
756.044
754.115
753.003
753.012
754.537
758.424
763.215
766.681
769.151
768.146
761.565
763.179
763.522
767.004
772.704
775.778
776.632
775.815
776.043
774.439
772.903
773.49
743.063
744.246
744.983
745.405
745.842
746.403
746.388
745.216
745.032
743.835
743.959
744.299
743.335
743.194
743.371
743.275
742.474
741.522
740.944
740.401
740.199
740.988
741.797
742.764
743.959
744.031
743.622
745.086
747.003
740.425
746.748
755.25
753.419
759.859
759.286
758.416
757.949
756.814
756.251
755.818
724.304
725.12
725.737
725.794
725.702
724.982
724.613
723.608
722.913
722.003
721.432
720.977
721.946
721.809
722.732
723.391
723.833
724.347
724.633
724.934
724.868
724.935
725.695
725.931
726.093
727.713
731.94
733.009
732.809
731.738
732.945
739.468
738.497
737.992
737.841
737.986
737.907
738.301
737.13
737.047
706.37
706.947
706.855
706.41
705.672
704.682
703.406
701.849
699.985
699.825
699.196
699.277
699.395
699.709
702.158
704.424
705.139
705.781
707.34
709.068
711.147
713.802
713.58
711.975
718.084
721.426
721.56
722.903
723.49
723.433
718.565
719.753
720.622
720.547
719.693
719.509
719.57
718.959
718.576
718.696
689.408
689.341
688.585
687.986
687.046
686.006
684.554
682.927
680.776
678.03
675.014
671.627
672.904
678.999
683.414
686.06
686.994
688.556
691.584
693.453
696.739
697.18
695.898
702.32
700.187
704.478
703.288
706.637
706.897
704.785
701.663
700.238
699.798
700.867
701.537
701.964
702.968
699.771
699.689
699.81
672.69
671.636
671.063
670.713
670.417
669.207
668.252
665.951
663.751
661.145
657.262
658.797
661.943
666.408
667.848
670.838
672.504
676.777
679.641
681.201
679.043
678.739
678.132
677.017
678.112
678.494
678.491
681.274
680.741
681.359
680.776
679.266
679.798
679.085
679.975
680.528
680.427
680.469
681.409
682.209
656.473
655.82
655.446
654.449
653.909
653.572
651.928
650.995
649.614
646.741
644.678
647.507
649.838
652.354
655.03
655.661
653.568
656.703
657.463
658.493
659.556
658.587
656.92
654.431
654.429
659.819
654.035
656.79
656.913
656.537
655.697
655.724
653.783
653.164
653.037
653.33
654.304
655.818
657.377
658.954
640.637
639.992
639.101
638.483
637.248
636.285
635.606
635.256
634.717
633.657
634.595
635.352
636.619
636.319
635.615
636.117
636.259
637.37
638.517
639.333
639.728
639.593
638.559
636.964
638.755
640.377
637.28
637.321
635.541
633.572
631.778
630.34
628.926
627.153
625.94
625.272
625.67
628.185
630.788
632.361
625.27
621.009
620.111
619.256
618.879
618.261
617.813
617.841
618.612
618.54
623.071
617.458
621.905
621.572
620.605
620.031
619.065
619.401
620.746
621.673
621.613
621.654
621.846
621.726
625.862
626.023
624.68
619.262
614.112
609.509
606.925
605.216
604.692
604.02
603.488
603.685
604.414
605.105
608.901
610.481
608.754
604.784
601.719
600.968
600.926
600.485
599.74
600.473
603.547
604.251
601.946
603.192
603.985
604.224
603.516
602.893
601.378
600.796
603.771
604.87
606.769
604.421
604.983
607.458
609.433
612.767
611.415
605.646
598.5
591.428
587.209
584.897
586.355
587.685
590.764
591.872
592.3
590.614
592.858
594.097
587.495
585.455
582.196
582.62
583.618
583.606
583.256
583.974
587.889
588.955
589.103
587.685
586.297
586.962
586.731
586.821
586.072
583.461
586.465
586.319
587.797
588.948
585.969
589.498
592.847
594.243
591.55
589.069
585.363
580.031
574.891
572.679
575.235
574.379
576.401
577.274
578.043
577.871
579.488
580.192
571.362
567.828
564.365
565.331
566.843
566.404
564.222
562.929
562.901
564.417
565.22
565.615
566.043
566.755
566.96
566.488
565.054
565.048
564.788
564.529
565.577
567.113
567.981
567.919
569.794
571.028
570.717
569.836
566.431
563.944
564.162
562.869
561.887
562.766
564.136
564.902
565.573
566.109
567.857
568.517
556.809
552.432
550.666
549.624
549.333
548.264
546.166
542.503
542.765
542.119
544.604
545.407
546.108
546.734
546.652
545.285
543.278
542.017
542.705
543.13
544.857
546.701
547.88