/*--------------------------------*- C++ -*----------------------------------*\
  =========                 |
  \\      /  F ield         | OpenFOAM: The Open Source CFD Toolbox
   \\    /   O peration     | Website:  https://openfoam.org
    \\  /    A nd           | Version:  8
     \\/     M anipulation  |
\*---------------------------------------------------------------------------*/
FoamFile
{
    version     2.0;
    format      ascii;
    class       volScalarField;
    location    "8.85";
    object      p_rgh;
}
// * * * * * * * * * * * * * * * * * * * * * * * * * * * * * * * * * * * * * //

dimensions      [1 -1 -2 0 0 0 0];

internalField   nonuniform List<scalar> 
9150
(
1959.6
1958.58
1957.96
1957.5
1957.26
1957.25
1957.47
1957.93
1958.57
1959.59
1959.16
1958.65
1958.22
1957.91
1957.72
1957.72
1957.89
1958.21
1958.63
1959.15
1958.89
1958.61
1958.35
1958.13
1958.02
1958.01
1958.12
1958.34
1958.59
1958.88
1958.77
1958.59
1958.42
1958.26
1958.18
1958.18
1958.25
1958.41
1958.58
1958.76
1958.77
1958.59
1958.45
1958.32
1958.25
1958.25
1958.31
1958.44
1958.58
1958.75
1947.85
1947.14
1947.48
1947.78
1947.93
1947.89
1947.66
1947.28
1946.89
1947.56
1951.93
1951.22
1951.11
1951.02
1951.09
1951.07
1950.95
1951.01
1951.09
1951.8
1955.06
1954.28
1954.01
1953.63
1953.56
1953.53
1953.58
1953.95
1954.22
1954.98
1957.79
1956.6
1956.15
1955.52
1955.34
1955.31
1955.49
1956.09
1956.56
1957.74
1960.28
1958.23
1957.47
1956.77
1956.49
1956.5
1956.79
1957.44
1958.21
1960.26
1945.15
1943.66
1941.45
1940.1
1939.31
1938.91
1939.09
1938.76
1940.02
1939.79
1943.81
1943.31
1942.11
1941.48
1940.73
1940.29
1940.46
1940.01
1940.7
1940.36
1942.53
1942.67
1941.49
1941.57
1941.02
1940.64
1941.06
1940.09
1941.09
1940.5
1939
1941.83
1940.92
1942.14
1942
1941.78
1941.84
1939.87
1941.05
1937.91
1933.28
1942.42
1943.03
1944.16
1944.59
1944.46
1943.94
1942.48
1941.93
1932.59
1733.74
1733.8
1733.72
1733.69
1733.65
1733.52
1733.48
1733.22
1733.15
1732.98
1733.24
1733.4
1733.58
1733.8
1733.77
1733.53
1733.51
1733.27
1733.26
1733.04
1732.9
1733.29
1733.51
1734.12
1734.1
1733.7
1733.65
1733.5
1733.55
1733.29
1732.67
1733.11
1733.43
1734.27
1734.28
1733.8
1733.73
1733.62
1733.85
1733.6
1732.5
1732.99
1733.6
1734.4
1734.48
1733.96
1733.96
1733.96
1734.41
1734.28
1732.45
1733.06
1734.04
1734.54
1734.55
1733.95
1734.05
1734.31
1734.77
1734.67
1732.38
1733.07
1734.06
1734.36
1733.89
1733.75
1733.89
1734.78
1734.81
1734.79
1732.61
1733.35
1733.87
1734.14
1733.67
1733.56
1733.84
1734.74
1734.8
1734.8
1733.23
1733.66
1733.96
1734.07
1733.14
1733.35
1733.81
1734.76
1734.82
1734.44
1733.71
1733.97
1734.18
1733.24
1733.16
1733.28
1734.67
1734.89
1734.45
1734.44
1734.24
1734.02
1733.03
1733.17
1733.24
1733.69
1734.88
1734.93
1734.77
1734.44
1733.17
1733.28
1733.32
1733.71
1733.84
1734.73
1734.94
1734.95
1734.94
1734.73
1733.92
1734.79
1735.03
1735.06
1735.04
1734.98
1734.96
1734.95
1734.93
1734.33
1734.71
1734.87
1734.94
1734.92
1734.9
1734.86
1734.83
1734.82
1734.81
1734.53
1734.19
1734.36
1734.44
1734.5
1734.54
1734.18
1734.19
1734.47
1734.62
1734.61
1733.27
1733.61
1733.73
1733.87
1734.02
1734.14
1733.96
1733.47
1733.53
1733.54
1732.47
1732.77
1732.85
1733.23
1733.38
1733.55
1733.8
1734
1734.04
1733.81
1732.15
1732.34
1732.11
1730.37
1729.46
1730.16
1732.56
1733
1732.88
1732.54
1731.42
1731.62
1731.82
1728.19
1725.12
1725.13
1725.94
1727.35
1730.98
1729.97
1730.24
1730.49
1730.73
1730.41
1726.71
1724.31
1722.51
1722.55
1722.56
1722.83
1728.92
1729.26
1729.64
1729.9
1730.09
1730.39
1729
1723.92
1721.7
1722.4
1727.62
1728.11
1728.51
1728.86
1729.09
1729.47
1729.78
1730.16
1726.6
1721.71
1726.53
1727.08
1727.45
1726.39
1726.73
1728.62
1729
1729.26
1730.12
1728.79
1725.73
1726.44
1727.05
1724.56
1709.51
1721.79
1728.95
1727.68
1720.71
1723.79
1716.06
1724.1
1727.34
1728.51
1699.82
1677.35
1727.2
1718.99
1714.17
1719.97
1703.6
1718.97
1728.27
1729.59
1708.73
1668.19
1665.38
1703.63
1719.72
1726.62
1690.27
1714.86
1727.32
1730.8
1732.06
1705.49
1663.35
1662.28
1663.46
1713.61
1631.65
1679.36
1716.6
1730.19
1733.72
1734.95
1722.43
1675.19
1665.83
1665.65
1632.45
1633.66
1634.81
1702.48
1733.87
1738.11
1738.84
1738.97
1727.16
1693.49
1633.84
1634.74
1635.24
1664.98
1731.2
1740.15
1741.18
1741.44
1741.5
1741.47
1633.68
1634.36
1635.02
1656.61
1723.82
1733.91
1743.03
1744.43
1744.57
1744.7
1635.19
1634.57
1635.01
1686.01
1725.11
1721.18
1734.87
1747.25
1747.29
1747.23
1664.09
1637.58
1685.08
1724.68
1725.09
1719.28
1721.32
1746.88
1748.97
1748.86
1704.27
1688.95
1722.53
1725.75
1719.33
1719.5
1732.43
1750.52
1750.37
1750.09
1742.96
1739.21
1722.9
1718.66
1723.3
1742.3
1752.78
1752.5
1752.11
1745.63
1735.66
1729.15
1718.22
1718.64
1733.93
1744.9
1741.5
1733.72
1726.88
1722.89
1724.5
1725.83
1727.26
1718.81
1718.74
1719.13
1719
1719.3
1719.53
1738.45
1724.95
1734.22
1752.45
1745.95
1736.72
1737.34
1737.66
1728.24
1720.16
1730.6
1736.8
1750.57
1751.75
1752.49
1741.96
1728.91
1729.19
1729.45
1735.21
1755.1
1752.09
1736.55
1727.37
1727.97
1728.47
1728.87
1730.95
1752.79
1757.81
1757.56
1751.95
1746.24
1734.87
1747.78
1755.17
1754.29
1755.81
1756.94
1757.38
1757.27
1751.93
1752.02
1752.78
1753.9
1754.67
1755.36
1755.93
1756.38
1756.74
1756.95
1751.38
1751.71
1752.14
1753.52
1754.23
1754.95
1755.02
1753.36
1753.15
1756.78
1752.42
1752.42
1751.87
1751.98
1753.58
1755.23
1755.45
1722.22
1722.08
1730.47
1754.49
1754.84
1755.24
1755.17
1756.21
1756.77
1757.21
1757.29
1756.89
1697.34
1756.68
1757.02
1757.3
1757.61
1757.92
1758.35
1756.1
1759.43
1691.66
1663.2
1758.93
1759.37
1759.69
1757.74
1760.18
1729.32
1677.18
1678.37
1668.92
1664.47
1761.32
1761.74
1751.77
1667.24
1667.87
1668.37
1721.28
1753.68
1753.46
1752.44
1763.68
1697.07
1664.94
1666.21
1678.87
1756.11
1759.65
1751.94
1736.7
1691.3
1680.27
1664.34
1665.04
1730.69
1766.16
1766.1
1719.39
1690.01
1689.49
1690.03
1673.98
1679.29
1763.58
1765.73
1765.26
1764.41
1745.3
1690.72
1697.94
1763.12
1687.72
1757.29
1769.1
1756.49
1733.03
1732.1
1731.86
1739.56
1764.87
1768.35
1743.51
1768.99
1768.57
1756.33
1731.99
1731.56
1736.6
1763.9
1767.6
1769.92
1769.56
1770.46
1770.03
1767.61
1757.06
1755.61
1767.23
1769.17
1770.13
1771.24
1773.45
1773.77
1773.66
1773.35
1772.95
1772.62
1772.54
1772.74
1773.09
1773.55
1778.01
1778.2
1778.19
1778.03
1777.71
1777.23
1776.92
1776.75
1776.66
1776.61
1782.82
1783.06
1783.13
1783
1782.67
1782.16
1781.38
1780.68
1776.99
1771.08
1787.39
1787.66
1787.61
1787.38
1786.92
1786.15
1785.23
1784.31
1772.91
1740.78
1791.28
1791.31
1791.1
1790.7
1790.1
1789.32
1788.46
1781.9
1779.15
1680.01
1794.76
1794.52
1793.06
1791.59
1792.65
1792.07
1789.87
1773.53
1762.02
1643.7
1798.73
1794.85
1792.82
1787.58
1784.58
1793.44
1792.11
1778.51
1731.12
1568.9
1801.59
1778.32
1730.28
1677.84
1660.64
1724.88
1770.49
1737.15
1563.28
1465.32
1770.11
1658.13
1656.89
1656.79
1667.48
1621.99
1635.69
1606.67
1465.82
1465.06
1742.78
1793.26
1792.9
1792.59
1754.86
1563.65
1472.95
1471.13
1469.36
1466.27
1787.69
1788.49
1776.51
1651.61
1588.99
1588.47
1578.16
1505.75
1466.58
1463.73
1777.71
1761.27
1671.23
1640.52
1700.3
1772.75
1775.78
1776.95
1726.18
1566.11
1606.56
1599.95
1622.73
1737.43
1751.61
1758.14
1762.14
1765.04
1765.93
1767.92
1584.42
1584.28
1585.01
1585.2
1586.73
1722.91
1754.6
1759.94
1763.48
1753.16
1732.68
1659.15
1652.9
1644.83
1560.56
1558.49
1628.58
1762.26
1747.46
1664.38
1756.1
1760.65
1766.26
1771.33
1722.79
1556.43
1553.6
1581.34
1574.63
1673.27
1756.33
1758.02
1771.33
1774.8
1779.01
1611.43
1547.24
1505.27
1504.14
1712.52
1740.07
1740.44
1756.62
1775.82
1778.46
1627.14
1669.18
1496.86
1495.62
1525.1
1743.02
1739.55
1767.41
1774.68
1776.51
1709.11
1716.02
1532.95
1498.43
1475.24
1767.42
1763.48
1773.79
1774.69
1775.89
1776.48
1773.05
1780.3
1769.93
1698.54
1771.67
1768.14
1774.07
1775.78
1778.31
1782.53
1788.68
1792.94
1794.07
1793.61
1772.35
1772.99
1773.79
1772.64
1774.13
1772.22
1769.47
1782.54
1780.8
1748.17
1771.18
1771.2
1771.44
1763.54
1705.98
1641.55
1611.64
1764.95
1666.44
1629.46
1756.89
1769.55
1769
1768.9
1651.26
1567.47
1564.3
1655.49
1620.64
1622.2
1691.24
1768.12
1767.88
1767.33
1729.7
1566.83
1561.15
1614.49
1717.35
1620.81
1719.28
1671.47
1742.63
1765.89
1763.12
1625.98
1557.17
1642.75
1716.2
1715.91
1758.17
1567.9
1624.4
1766.03
1765.95
1621.17
1551.91
1546.96
1697.15
1722.95
1760.5
1560.32
1568.33
1754.55
1769.73
1579.3
1552.66
1549.69
1646.88
1725.6
1764.14
1544.11
1559.49
1758.93
1661.37
1558.5
1555.7
1552.09
1701.74
1728.24
1705.87
1530.08
1551.55
1733.34
1568.04
1563.66
1557.9
1697.14
1734.85
1729.53
1555.56
1535.21
1666.19
1588.95
1577.54
1570.76
1712.9
1741.56
1735.5
1730.6
1546.48
1543.55
1702.44
1755.04
1708.28
1772.17
1757.35
1743.06
1736.95
1732.14
1617.36
1777.73
1793.32
1822.05
1808.53
1790.45
1747.65
1502.77
1576.53
1358.7
1842.53
1844.23
1839.83
1828.7
1770.31
1610.72
1528.76
1232.08
939.297
818.628
1846.8
1844.96
1843.26
1830.51
1703.73
1510.25
1382.57
846.254
822.141
820.373
1767.85
1735.92
1844.64
1839.73
1735.7
1516.34
1349.06
826.85
824.953
823.048
1535.39
1690.72
1846.6
1846.22
1830.81
1665.8
1538.13
1141.21
826.603
827.669
1418.29
1735.44
1846.28
1850.04
1853.69
1774.92
1639.98
1692.16
1084.86
836.665
1282.93
1740.55
1846.35
1852.53
1857.69
1825.99
1670.57
1714.66
1591.65
992.404
1089.9
1618.14
1832.3
1852.56
1857.81
1833.01
1553.55
1717.7
1710.79
1286.07
978.677
817.79
1718.27
1855.58
1862.42
1858.17
1385.26
1174
1333.01
1726.54
-0.0195266
158.585
1560.62
1871.42
1877.36
1878.15
1435.19
1043.97
1042.44
1545.11
-0.0350077
-0.0444913
1411.31
1892.76
1897.49
1898.89
1790.98
1087.68
1194.86
1779.3
-0.00740757
196.615
1665.04
1910.52
1913.59
1915.5
1916.68
1874.37
1270.66
1533.38
-0.00679783
931.644
1911.3
1926.55
1926.85
1927.17
1927.44
1927.95
1879.33
1869.75
465.473
1815.79
1938.44
1936.25
1935.16
1934.75
1935.24
1935.97
1938.92
1704.49
1732.76
1732.48
1732.16
1731.84
1731.56
1731.33
1731.18
1731.15
1731.32
1731.59
1731.92
1732.28
1732.67
1732.92
1733.24
1733.14
1732.91
1732.62
1732.32
1732.04
1731.93
1731.73
1731.69
1731.51
1731.18
1731.01
1731.11
1731.37
1731.59
1731.75
1731.85
1731.97
1732.07
1732.23
1732.26
1732.25
1732.3
1732.31
1732.38
1732.41
1732.78
1732.46
1732.09
1731.7
1731.35
1731
1730.72
1730.74
1731.03
1731.48
1731.81
1732.03
1732.62
1733.34
1733.79
1733.73
1733.45
1732.74
1732.17
1731.8
1731.64
1731.64
1731.24
1730.99
1730.43
1730.23
1730.75
1731.23
1731.54
1731.69
1731.77
1731.82
1731.88
1732.05
1732.06
1732.2
1732.26
1732.32
1732.37
1732.38
1732.97
1732.58
1732.09
1731.55
1731.08
1730.67
1729.69
1729.43
1729.53
1730.81
1731.63
1731.99
1733.74
1734.46
1734.67
1733.97
1733.39
1732.78
1732.04
1731.52
1731.39
1731.01
1730.01
1729.53
1729.21
1729.75
1730.89
1731.26
1731.54
1731.66
1731.71
1731.47
1731.6
1731.84
1732.14
1732.32
1732.41
1732.46
1732.5
1732.53
1733.27
1732.78
1731.91
1731.31
1730.28
1729.47
1728.68
1728.81
1728
1728.2
1728.4
1730.06
1732.06
1733.21
1733.4
1733.1
1732.43
1731.6
1730.86
1730.02
1728.93
1728.79
1729.1
1727.75
1728.09
1730.52
1731.55
1731.73
1731.89
1731.74
1731.71
1731.7
1731.73
1731.95
1732.11
1732.25
1732.4
1732.46
1732.56
1732.64
1734.07
1733.41
1732.77
1732.05
1731.05
1729.68
1723.35
1719.92
1721.39
1722.07
1727.61
1730.73
1731.06
1731.59
1731.84
1731.76
1731.25
1730.64
1727.87
1725.89
1727.3
1727.84
1733.04
1732.59
1729.22
1729.63
1729.9
1729.92
1730.97
1729.76
1729.64
1729.39
1729.8
1731.55
1731.61
1731.73
1732.32
1732.59
1732.66
1732.7
1734.07
1733.72
1733.34
1733.11
1732.1
1724.56
1720.68
1720.19
1724.48
1729.9
1729.66
1729.51
1729.88
1730.23
1730.46
1730.58
1730.61
1730.39
1728.27
1725.99
1729.15
1731.77
1732.33
1732.75
1730.68
1729.97
1730.21
1731.51
1730.21
1729.4
1729.05
1729.11
1729.08
1729.24
1729.46
1729.62
1732.21
1733.07
1732.97
1733.02
1733.97
1733.8
1733.63
1733.85
1731.67
1719.59
1717.97
1716.68
1718.32
1725.61
1716.46
1716.71
1724.51
1727.95
1729.16
1729.68
1729.88
1726.79
1722.94
1727.13
1730.72
1731.01
1731.47
1731.88
1732.15
1732.29
1732.35
1732.3
1732.09
1732.02
1732.11
1732.41
1732.76
1733.26
1732.93
1732.75
1733.57
1733.44
1733.15
1732.93
1734.24
1733.71
1733.25
1733.91
1733.29
1724.35
1716.42
1714.93
1713.77
1713.35
1713.21
1712.87
1712.85
1720.44
1728.91
1729.62
1729
1720.23
1719.46
1720.38
1729.82
1730.32
1730.81
1731.21
1731.57
1731.77
1731.82
1731.75
1731.57
1731.02
1730.73
1731.06
1729.52
1729.52
1733.4
1733.79
1733.99
1734.08
1733.44
1733.16
1734.59
1734.26
1733.68
1733.99
1733.71
1732.72
1720.32
1713.51
1712.5
1712.16
1711.79
1711.46
1719.8
1727.92
1729.4
1730.03
1730.33
1722.33
1717.68
1717.08
1716.38
1725.55
1730.38
1730.89
1731.28
1731.57
1731.75
1731.73
1731.51
1727.83
1727.06
1727.6
1728.23
1728.67
1728.99
1731.22
1733.9
1733.55
1731.43
1731.37
1734.61
1734.93
1734.78
1734.46
1733.92
1733.43
1732.3
1718.17
1711.74
1711.52
1711.1
1724.19
1730.47
1730.33
1730.54
1730.81
1731.17
1730.76
1719.02
1716.66
1716.15
1715.76
1717.44
1730.5
1731.37
1731.65
1731.89
1732.14
1732.45
1729.77
1727.83
1728.34
1728.81
1729.03
1730.22
1730.75
1731.35
1730.91
1730.23
1730.17
1734.44
1734.88
1734.84
1734.64
1733.71
1733.57
1732.99
1731.58
1720.72
1714.12
1720.61
1731.17
1730.93
1730.81
1730.74
1730.95
1731.25
1731.72
1731.78
1719.86
1715.88
1715.64
1715.38
1715.23
1728.42
1732.03
1732.07
1732.29
1732.68
1733.21
1733.06
1729.41
1729.68
1735.08
1735.53
1735.65
1733.49
1729.31
1729.45
1729.42
1734.36
1734.58
1734.71
1734.51
1732.47
1730.68
1730.82
1731.9
1731.1
1729.51
1730.22
1730.44
1730.06
1729.75
1729.71
1729.99
1730.49
1731.16
1732.04
1732.98
1731.35
1717.29
1715.08
1715
1714.94
1724.06
1731.29
1730.47
1732.39
1732.87
1733.32
1733.78
1734.27
1734.73
1735.12
1735.43
1735.41
1734.52
1732.9
1730
1734.25
1734.49
1734.65
1734.53
1733.81
1730.42
1729.86
1729.12
1731.18
1730.51
1727.86
1729.09
1730.37
1730.03
1729.86
1730.01
1730.61
1731.51
1732.37
1733.19
1733.67
1733.88
1733.53
1720.97
1715.33
1720.03
1728.05
1727.36
1730.46
1732.58
1732.95
1733.32
1733.73
1733.79
1733.62
1734.63
1735.36
1735.65
1735.74
1735.75
1734.08
1734.04
1734.6
1734.56
1734.5
1733.37
1731.78
1729.67
1729.3
1728.86
1728.51
1728.2
1727.95
1727.73
1727.69
1729.6
1731.87
1732.34
1732.85
1733.46
1733.92
1734.12
1733.95
1733.53
1733.14
1732.58
1726.99
1727.59
1728.58
1732.55
1732.69
1732.91
1733.22
1732.36
1732.66
1733.04
1734.48
1735.26
1735.44
1735.54
1734.53
1734.28
1734.27
1734.28
1734.54
1734.44
1734.1
1732.96
1732.56
1730.71
1729.37
1729.34
1733.03
1729.74
1728.71
1728.69
1728.79
1729.02
1732.72
1734.1
1734.39
1734.33
1733.87
1733.43
1733.1
1732.75
1732.48
1732.36
1731.88
1732.41
1732.34
1732.44
1732.67
1732.52
1731.93
1732.4
1732.94
1734.5
1735.33
1735.64
1733.49
1733.97
1734.21
1734.23
1734.13
1734.05
1734.05
1734.29
1734.34
1734.2
1733.55
1733.67
1733.89
1733.71
1733.66
1732.36
1729.12
1729.18
1729.39
1732.03
1734.19
1734.1
1733.78
1733.25
1732.74
1732.44
1732.36
1732.29
1732.3
1731.83
1731.81
1732.24
1732.67
1732.82
1732.99
1732.09
1732.51
1733.16
1735.21
1735.54
1733.75
1733.69
1733.86
1734.03
1734.16
1733.95
1733.9
1733.91
1734.25
1734.33
1734.22
1734.12
1734.03
1733.97
1733.9
1733.87
1733.87
1729.67
1729.31
1729.88
1733.71
1733.77
1733.46
1733
1732.59
1732.41
1732.29
1732.26
1732.32
1731.6
1731.77
1732
1732.63
1733.16
1733.31
1733.79
1733.13
1733.46
1735.33
1735.58
1732.42
1732.97
1728.76
1727.7
1732.86
1734.43
1734.46
1734.45
1734.4
1734.3
1734.19
1734.11
1734.03
1733.94
1733.85
1733.74
1733.64
1733.51
1730.84
1731.31
1733.38
1733.4
1733.2
1732.94
1732.73
1732.57
1732.57
1732.75
1732.85
1732.91
1733.38
1733.85
1731.87
1725.74
1727.73
1731.86
1734.11
1735.36
1736.26
1736.49
1725.82
1724.74
1725.97
1726.7
1733.76
1735.02
1734.79
1734.65
1734.56
1734.44
1734.31
1734.18
1734.06
1733.97
1733.81
1733.58
1733.33
1733.08
1732.83
1732.68
1732.93
1733.11
1733.14
1733.1
1733.12
1733.3
1733.47
1731.96
1723.85
1730
1734.69
1735.44
1732.33
1721.96
1722.26
1722.42
1731.68
1737.31
1737.71
1737.91
1723.46
1724.39
1727.11
1733.76
1735.11
1734.83
1733.49
1731.74
1733.19
1734.56
1734.33
1734.14
1733.96
1733.82
1733.68
1733.5
1733.26
1732.92
1732.38
1732.27
1732.53
1727.32
1723.41
1732.37
1734.05
1734.48
1734.76
1724.01
1717.55
1717.79
1724.44
1737.84
1733.73
1722.83
1723.09
1723.38
1723.62
1736.03
1739.33
1739.5
1723.24
1724.13
1731.29
1732.84
1732.01
1731.74
1729.44
1727.2
1726.93
1726.43
1725.93
1725.59
1726.91
1733.33
1733.89
1733.77
1733.58
1733.28
1732.85
1732.79
1728.72
1720.6
1721.12
1722.09
1732.24
1730.89
1717.85
1717.06
1717.69
1718.19
1718.73
1728.92
1736.5
1733.75
1723.73
1724.11
1724.48
1734.14
1741.05
1741.2
1722.81
1727.14
1733.42
1734.15
1734.55
1734.8
1734.87
1734.79
1734.45
1729.69
1725.39
1725.1
1724.99
1724.86
1724.96
1729.43
1734.19
1734.17
1734.13
1734.08
1733.01
1730.92
1724.73
1717.11
1717.27
1717.05
1717.22
1717.66
1718.25
1718.84
1719.48
1720.07
1736.16
1741.74
1729.27
1725.09
1725.32
1735.3
1742.48
1742.65
1725.65
1731.92
1732.92
1733.8
1734.32
1734.61
1734.52
1734.21
1733.96
1733.59
1728.66
1724.42
1724.33
1724.48
1724.78
1726.1
1734.13
1734.74
1734.9
1735.19
1735.68
1736.24
1735.98
1736.39
1728.09
1717.43
1720.54
1717.58
1718.34
1718.97
1719.53
1720.13
1733.13
1743
1738.81
1725.65
1726.26
1734.92
1743.67
1743.95
1729.65
1730.52
1731.44
1732.25
1732.96
1733.42
1728.44
1721.71
1723.73
1733.14
1730.27
1723.64
1725.7
1732.15
1732.78
1733.95
1735.17
1735.49
1735.81
1736.08
1736.37
1736.76
1737.16
1737.41
1736.57
1733.16
1736.96
1739.41
1722.08
1718.55
1719.33
1719.97
1737.6
1743.5
1741.97
1726.86
1726.84
1741.19
1744.6
1744.79
1727.48
1727.65
1728.33
1729.26
1730.21
1731.06
1725.03
1714.9
1714.06
1726.66
1728.83
1728.71
1728.87
1731.02
1733.19
1734.38
1734.49
1733.57
1735.55
1736.36
1736.65
1736.9
1737.08
1737.17
1737.34
1737.75
1738.29
1739.17
1740.09
1720.3
1719.79
1731.68
1742.95
1743.7
1739.16
1727.19
1729.58
1744.3
1745.47
1745.6
1726.15
1725.56
1725.71
1726.43
1727.35
1728.33
1724.57
1723.86
1712.88
1711.13
1725.02
1724.88
1720.49
1721.96
1722.95
1723.97
1724.62
1729.62
1736.14
1736.37
1736.54
1736.57
1736.64
1734.4
1733.86
1735.5
1737.9
1738.7
1739.54
1736.09
1735.6
1741.62
1743.14
1743.89
1732.5
1727.08
1739.91
1745.65
1745.71
1745.74
1707.02
1714.05
1721.44
1726.34
1727.28
1728.3
1712.46
1728.41
1713.42
1653.77
1702.69
1718.13
1715.76
1716.86
1728.22
1734.12
1735.4
1735.7
1735.21
1734.81
1734.55
1735.76
1736.17
1733.28
1733.14
1733.6
1735.46
1738.29
1739.22
1740.23
1741.24
1742.14
1742.91
1737.67
1729.88
1733.77
1745.53
1745.74
1745.74
1745.73
1665.26
1664.82
1679.94
1705.34
1730.16
1729.34
1714.32
1728.45
1657.57
1608.59
1612.98
1657.42
1693.3
1716.39
1729.66
1734.95
1735.6
1735.56
1735.22
1736.25
1724.04
1713.2
1724.28
1733.35
1733.66
1732.97
1732.67
1733.46
1738.54
1739.67
1740.73
1741.71
1742.18
1729.2
1731.41
1744.91
1745.74
1745.8
1745.71
1745.65
1683.86
1691.3
1683.39
1683.37
1705.42
1704.09
1718.84
1731.57
1626.98
1607.1
1607.38
1606.86
1613.78
1720.36
1734.56
1735.19
1735.29
1736.01
1736.7
1736.21
1720.8
1704.17
1703.88
1703.64
1723.08
1733.84
1732.67
1730.4
1736.67
1738.81
1740.22
1741.25
1728.05
1728.48
1742.65
1744.98
1745.43
1744.92
1745.56
1745.53
1741.64
1741.73
1734.18
1702.55
1698.12
1698.78
1732.19
1738.58
1633.95
1607.31
1606.29
1605.05
1603.48
1650.97
1731.45
1730.16
1735.39
1735.77
1735.95
1735.11
1735.34
1724.97
1703.91
1701.88
1708.3
1732.77
1733.87
1731.21
1717.25
1724.92
1739.1
1727.54
1720.66
1733.25
1743.78
1744.27
1743.8
1743.88
1745.17
1745.13
1744.73
1744.49
1743.78
1713.12
1700.17
1702.94
1747.02
1746.54
1697.33
1606.89
1606.12
1605.31
1604.26
1602.6
1604.53
1709.77
1735.4
1735.66
1735.55
1735.1
1734.78
1734.31
1733.75
1704.57
1706.73
1731.1
1732.71
1733.06
1712.53
1713.87
1716.11
1716.52
1717.88
1741.69
1742.7
1742.07
1742.57
1743.8
1744.3
1744.38
1747.08
1746.74
1735.27
1701.55
1701.85
1721.05
1746.62
1747.15
1747.78
1698.33
1608.54
1605.29
1604.74
1603.51
1634.11
1714.99
1737.25
1736.06
1734.96
1733.94
1732.96
1732.18
1731.58
1730.24
1726.54
1730.64
1731.84
1732.74
1713.03
1711.97
1713.42
1714.71
1721.41
1740.22
1740.44
1740.06
1741.24
1742.25
1742.65
1743.06
1748.63
1748.34
1735.35
1703.61
1703.11
1734.14
1747.31
1748.29
1748.72
1749.23
1748.84
1717.06
1726.11
1740.07
1743.25
1740.75
1738.39
1736.1
1733.8
1731.65
1728.66
1724.42
1720.43
1727.74
1728.73
1729.09
1729.79
1731.31
1716.12
1711.03
1712.16
1712.81
1735.76
1738.19
1737.25
1736.23
1736.25
1734.75
1738.99
1739.89
1747.07
1748.37
1748.63
1740.06
1711.05
1736.4
1739.82
1742.93
1749.27
1749.89
1749.37
1748.91
1747.96
1746.49
1744.5
1741.94
1738.97
1734.8
1725.85
1693.04
1664.9
1650.92
1626.71
1672.27
1729.19
1730
1731.3
1732.77
1724.05
1711.51
1714.78
1730.31
1737.69
1737.12
1735.86
1731.91
1709.46
1716.77
1734.38
1736.16
1727.14
1744.7
1750.37
1750.41
1750.26
1743.43
1738.54
1738.52
1748.66
1750.85
1750.67
1750.32
1749.8
1748.39
1746.32
1743.72
1737.63
1712.99
1649.42
1627.23
1625.55
1624.47
1624.56
1630.17
1726.36
1733.78
1735.16
1736.56
1736.67
1733.64
1736.25
1739.3
1739.19
1738.62
1737.48
1735.78
1669.97
1675.09
1734.58
1737.61
1722.95
1738.5
1752.28
1751.15
1742.3
1739.34
1739.36
1741.16
1751.15
1752.47
1752.72
1752.64
1752.28
1750.81
1748.99
1746.61
1723.98
1633.19
1631.29
1629.74
1628.57
1627.87
1627.51
1627.25
1631.35
1712.33
1738.35
1739.61
1740.55
1740.84
1732.06
1724.45
1739.43
1743.32
1742.32
1732.91
1672.88
1672.97
1717.61
1736.73
1746.84
1752.21
1749.94
1743.42
1740.87
1740.41
1744.82
1752.16
1752.46
1753.54
1754.68
1755.36
1754.75
1753.4
1751.67
1749.65
1695.74
1635.21
1633.96
1632.4
1630.87
1629.89
1629.18
1628.77
1628.5
1643.4
1740.25
1740.97
1741.22
1740.01
1732.13
1717.87
1692.54
1675.21
1660.75
1664.63
1701.78
1700.47
1670.23
1677.84
1745.66
1754.23
1754.26
1753.18
1751.77
1741.35
1746.38
1749.97
1751.91
1753.36
1754.75
1755.37
1755.12
1754.91
1754.2
1753.07
1732.63
1636.76
1635.89
1634.36
1656.11
1728.45
1668.39
1630.16
1628.45
1710.12
1739.22
1738.92
1729.25
1729.27
1731.97
1701.2
1653.23
1656.72
1659.16
1660.72
1661.86
1660.75
1661.1
1661.6
1756.57
1755.48
1753.75
1739.23
1715.06
1723.04
1747.17
1741.05
1698.92
1693.51
1748.4
1754.48
1754.83
1754.68
1752.61
1755.11
1754.93
1728.88
1654.1
1679.64
1751.6
1750.65
1737.39
1715.01
1724.54
1739.31
1739.02
1739.22
1678.17
1560.52
1557.25
1603.18
1691.58
1694.02
1699.71
1702
1701.95
1695.77
1714.2
1734.04
1756.79
1754.29
1719.67
1675.32
1679.7
1725.78
1726
1686.16
1687.17
1687.91
1687.91
1694.7
1748.01
1757.39
1756.1
1753.76
1758.78
1757.75
1752.41
1750.33
1752.83
1751.22
1748.55
1730.62
1634.59
1586.75
1572.96
1551.5
1549.34
1552.14
1554.82
1557.08
1557.75
1596.9
1692.04
1676.16
1696.16
1741.75
1742.36
1742.59
1756.64
1735.95
1673.1
1673.43
1673.68
1712.84
1738.13
1727.75
1689.91
1690.09
1691.05
1746.55
1753.61
1754.35
1756.09
1751.86
1755.01
1760.86
1758.68
1756.74
1755.14
1752.82
1746.84
1720.92
1612.12
1546.48
1545.38
1545.95
1547.89
1555.58
1592.59
1612.06
1609.29
1632.33
1604.24
1592.73
1592.99
1703.15
1743.97
1743.98
1756.99
1734.08
1673.45
1673.74
1674.21
1674.5
1674.76
1733.44
1762.01
1761.23
1753.26
1739.88
1738.75
1738.9
1751.02
1733.63
1715.89
1731.8
1755.92
1757.29
1755.67
1741.67
1687.39
1650.51
1623.58
1612.42
1617.25
1697.34
1730.1
1744.35
1751.48
1752.76
1753.83
1754.91
1755.62
1666.14
1595.6
1663.27
1739.49
1745.52
1757.18
1757.72
1753.52
1690.8
1674.51
1700.3
1760.21
1760.75
1761.48
1762.11
1762.39
1761.91
1753.61
1745.52
1757.54
1759.87
1738.92
1696.93
1667.75
1657.43
1649.78
1644.54
1641.18
1638.86
1639.7
1638.85
1619.83
1630.26
1659.54
1730.96
1751.24
1753.24
1754.56
1755.73
1756.45
1756.95
1648.25
1663.59
1745.86
1747.39
1748.89
1752.96
1758.54
1760.07
1760.56
1760.69
1760.57
1760.72
1761.14
1761.65
1761.83
1761.84
1761.1
1758.65
1757.92
1757.38
1757.03
1750.41
1743.36
1745.32
1724.34
1642.22
1640.49
1638.44
1638.08
1639.25
1638.99
1633.51
1635.36
1637.56
1647.81
1741.04
1754.98
1756.72
1757.76
1744.64
1629.57
1704.87
1748.77
1748.97
1664.86
1678.83
1735.62
1760.08
1761.35
1761.85
1761.84
1761.87
1762.14
1762.38
1762.1
1751.65
1726.65
1706.81
1724.63
1707.64
1707.47
1706.9
1706.26
1744.28
1753.73
1752.22
1681.66
1636.62
1635.66
1637.33
1632.68
1631.97
1634.03
1636.22
1688.05
1754.31
1757.19
1759.28
1760.97
1706.2
1679.3
1751.08
1751.3
1751.11
1663.27
1662.97
1688.15
1759.28
1763.01
1763.37
1763.73
1764.09
1764.46
1764.55
1738.96
1697.46
1693.47
1692.71
1692.92
1702.01
1732.86
1752.71
1752.73
1754.91
1756.5
1755.32
1750.92
1747.52
1676.5
1629.27
1628.53
1628.56
1661.76
1728.81
1741.5
1747.16
1758.8
1760.56
1746.9
1705.31
1748.06
1747.92
1748.02
1748.08
1664.59
1695.4
1762.08
1764.46
1765.08
1765.39
1765.82
1766.35
1766.73
1759.18
1695.06
1694.61
1693.97
1733.18
1763.12
1762.15
1753.94
1748.73
1749.12
1757.97
1757.02
1754.32
1749.18
1721.5
1684.96
1658.81
1660.24
1660.35
1626.22
1628.76
1699.85
1742.39
1755.21
1756.02
1740.8
1714.64
1739.61
1732.47
1719.14
1739.6
1753.35
1746.49
1748.73
1766.66
1766.43
1766.43
1766.92
1765.16
1744.98
1713.98
1695.48
1695.67
1697.37
1758.33
1765.26
1764.48
1759.3
1751.25
1759.1
1758.91
1757.5
1751.82
1682.62
1403.14
1338.88
1338.62
1341.03
1407.09
1666.81
1735.02
1736.53
1737
1737.07
1752.29
1747.21
1723.27
1733.91
1681.16
1520.27
1737.93
1686.92
1687.82
1696.3
1747.21
1734.59
1712.3
1698.71
1695.39
1695.94
1696.16
1730.31
1771.34
1718.58
1703.8
1766.3
1765.91
1765.06
1763.84
1762.3
1744.48
1733.78
1726.41
1575.84
1342.05
1339.6
1339.76
1341.18
1342.3
1559.21
1740.38
1740.19
1736.85
1716.55
1755.75
1754.48
1628.38
1672.48
1477.19
1471.35
1725.77
1693.95
1691.15
1692.02
1692.48
1698.72
1695.7
1695.89
1695.85
1712.6
1754.75
1770.63
1770.68
1734.93
1703.97
1723.12
1769.54
1768.01
1766.28
1759.02
1699.23
1695.85
1695.34
1738.22
1746.58
1458.73
1343.15
1344.92
1345.38
1346.11
1484.15
1670.79
1729.34
1650.09
1449.33
1469.76
1334.4
1334.17
1333.77
1519.01
1752.76
1764.38
1756.38
1748.1
1743.89
1740.7
1737.2
1712.99
1724.36
1746.13
1757.51
1762.76
1771.27
1772.14
1772.27
1727.9
1726.89
1765.33
1764.92
1761.65
1754.2
1721.33
1695.05
1714.97
1765.9
1772.52
1775.62
1747.11
1718.28
1736.78
1723.2
1405.33
1360.84
1357.67
1333.35
1333.55
1331.99
1332.74
1333.34
1672.68
1760.45
1763.98
1762.16
1764.56
1760.11
1744.57
1720.01
1713.8
1713.88
1719.73
1719.19
1719.53
1738.43
1770.72
1771.68
1771.62
1742.48
1741
1738.69
1754.88
1759.62
1758.72
1758.73
1762.12
1766.01
1770.8
1774.26
1762.39
1725.2
1729.39
1730.04
1736.07
1554.22
1361.31
1332.37
1333.11
1332.29
1332.52
1602.96
1764.91
1765.49
1763.02
1761.68
1764.69
1764.16
1744.4
1720.93
1714.16
1719.09
1755.3
1741.5
1717.87
1718.39
1736.09
1770.3
1770.59
1770.54
1768.94
1752.03
1749.27
1748.73
1750.9
1767.84
1768.94
1769.91
1771.11
1768.57
1670.9
1351.3
1288.36
1430.87
1744.38
1775.74
1682.04
1425.75
1496.59
1511
1703.44
1743.76
1767.11
1767.08
1771.45
1761.38
1760.58
1771.25
1771.61
1762.5
1746.01
1766.6
1765.93
1764.93
1764.18
1758.57
1741.48
1754.59
1769.58
1770.24
1770.69
1771.2
1765.53
1754.88
1767.4
1771.61
1772.39
1772.64
1772.79
1462.98
1269.8
1270.67
1270.38
1269.3
1551.99
1779.96
1780.16
1751.46
1758.29
1754.24
1735.19
1765.33
1710.5
1712.76
1764.14
1758.92
1758.86
1771.64
1771.13
1770.14
1768.86
1767.18
1760.34
1735.31
1736.22
1762.97
1765.76
1766.13
1768.58
1770.84
1771.56
1772.2
1773.76
1775.44
1777.39
1779.04
1779.82
1683.08
1305.29
1269.34
1269.27
1270.53
1271.11
1271.06
1588.7
1780.88
1781.75
1781.64
1766.67
1749.82
1772.14
1765.28
1697.54
1697.66
1760.56
1760.53
1769.99
1772.97
1772.05
1770.3
1761.46
1756.48
1735.68
1732.52
1746.05
1731.92
1722.76
1664.47
1760.88
1772.05
1772.51
1740.98
1713.27
1632.26
1558.22
1558.61
1590.54
1493.98
1491
1727.9
1633.07
1433.12
1443.57
1563.6
1780.68
1780.03
1749.86
1745.69
1746.38
1749.64
1786.03
1749
1696.62
1696.74
1761.3
1768.51
1775.57
1775.22
1772.66
1756.93
1751.26
1753.5
1768.72
1765.86
1719.3
1447.81
1409.38
1414.13
1551.52
1617.36
1547.31
1551.14
1554.34
1556.23
1639.14
1778.79
1778.18
1776.46
1759.05
1760.94
1760.99
1651.57
1770.18
1783.67
1781.04
1756.21
1748.91
1771.45
1782.75
1783.32
1783.05
1728.23
1696.32
1697.1
1765.32
1778.19
1777.87
1778.3
1764.76
1761.39
1771.65
1775.7
1774.23
1758.1
1492.21
1408.17
1410.51
1413.02
1415.98
1434.26
1722
1776.11
1761.07
1766.48
1779.08
1778.11
1776.44
1732.37
1585.97
1495.47
1674.74
1778.97
1779.22
1778.85
1775.51
1754.94
1768.94
1775.49
1775.36
1775.65
1776.62
1778.1
1774.46
1755.5
1755.28
1757.65
1773.63
1782.88
1781.65
1780.69
1780.01
1779.64
1778.83
1709.41
1417.84
1409.41
1410.51
1451.58
1730.7
1747.32
1757.37
1776.3
1777.45
1778.3
1778.72
1778.58
1777.5
1615.45
1480.98
1482.18
1530.2
1779.15
1777.38
1775.41
1773.62
1772.08
1770.77
1769
1767.78
1767.1
1767.46
1769.84
1772.26
1773.79
1613.74
1714.08
1784.07
1783.22
1782.84
1782.22
1781.75
1775.65
1685.62
1499.45
1427.08
1558.82
1767.59
1769.86
1775.53
1777.36
1776.94
1777.8
1779.15
1777.9
1780.05
1780.08
1779.69
1712.15
1482.06
1482.18
1480.88
1642.8
1775.47
1770.87
1768.28
1766.58
1766.05
1765.38
1751.42
1670.25
1648.38
1741.17
1769.84
1761.25
1472.47
1516.7
1770.91
1784.49
1784.45
1783.99
1781.34
1621.28
1503.48
1498.82
1540.73
1758.93
1767.58
1768.46
1758.19
1732.57
1723.62
1745.12
1781.63
1769.58
1715.96
1748.09
1780.97
1784.7
1754.96
1483.35
1481.98
1476.43
1521.96
1604.8
1729.11
1765.77
1767.23
1697.85
1463.41
1462.47
1462.9
1637.84
1773.09
1755.74
1465.01
1465.06
1736.84
1785.71
1786.7
1786.68
1786.16
1696.23
1511.62
1503.76
1508.17
1560.64
1654.4
1661.78
1681.68
1682.8
1683.26
1713.6
1783.45
1781.47
1626.47
1603.38
1698.28
1787.07
1790.49
1776.04
1738.3
1512.41
1491.66
1481.09
1470.55
1579.33
1631.6
1465.66
1461.39
1462.25
1463.03
1613.95
1776.86
1761.03
1463.02
1460.35
1715.08
1787.98
1789.49
1789.05
1786.86
1783.63
1725.34
1695.86
1710.81
1739.43
1769.84
1777.54
1789.15
1787.26
1746.74
1769.33
1771.22
1688.29
1596.37
1597.94
1601.3
1767.39
1787.01
1788.26
1787.96
1762.3
1727.93
1542.46
1468.76
1464.86
1461.57
1462.16
1463.5
1464.27
1464.94
1729.41
1780.6
1769.34
1462.73
1538.84
1741.83
1788.91
1791.54
1790.46
1788.36
1700.5
1653.79
1732.96
1786.79
1787.71
1788.43
1789.06
1788.98
1764.89
1715.67
1689.71
1597.66
1590.42
1592.15
1593.99
1649.58
1781.46
1784.97
1785.25
1785.27
1784.93
1784.2
1782.7
1657.42
1460.82
1462.41
1463.97
1465.11
1465.97
1573.07
1788.51
1791.55
1776.32
1461.22
1457.79
1479.32
1524.99
1730.05
1758.4