/*--------------------------------*- C++ -*----------------------------------*\
  =========                 |
  \\      /  F ield         | OpenFOAM: The Open Source CFD Toolbox
   \\    /   O peration     | Website:  https://openfoam.org
    \\  /    A nd           | Version:  8
     \\/     M anipulation  |
\*---------------------------------------------------------------------------*/
FoamFile
{
    version     2.0;
    format      ascii;
    class       surfaceScalarField;
    location    "0.25";
    object      alphaPhi0.water;
}
// * * * * * * * * * * * * * * * * * * * * * * * * * * * * * * * * * * * * * //

dimensions      [0 3 -1 0 0 0 0];

internalField   nonuniform List<scalar> 
18095
(
1.92702e-08
-1.71405e-07
1.52135e-07
2.32057e-08
-1.98414e-07
1.94479e-07
2.01801e-08
-2.05956e-07
2.08982e-07
1.11464e-08
-2.10991e-07
2.20025e-07
-1.45951e-10
-2.13193e-07
2.24486e-07
-1.15172e-08
-2.13214e-07
2.24586e-07
-2.04814e-08
-2.11053e-07
2.20017e-07
-2.32503e-08
-2.05996e-07
2.08765e-07
-1.92713e-08
-1.98401e-07
1.94422e-07
-1.71375e-07
1.52104e-07
1.58268e-08
-1.87232e-07
1.59127e-08
-1.985e-07
1.18695e-08
-2.01913e-07
6.35146e-09
-2.05473e-07
1.08374e-11
-2.06853e-07
-6.34311e-09
-2.0686e-07
-1.18485e-08
-2.05547e-07
-1.59311e-08
-2.01913e-07
-1.58455e-08
-1.98487e-07
-1.87221e-07
6.98095e-09
-1.94213e-07
8.32956e-09
-1.99849e-07
7.39919e-09
-2.00983e-07
4.2006e-09
-2.02275e-07
2.15395e-11
-2.02674e-07
-4.16614e-09
-2.02673e-07
-7.41832e-09
-2.02295e-07
-8.34661e-09
-2.00985e-07
-6.98658e-09
-1.99847e-07
-1.94207e-07
4.6731e-09
-1.98886e-07
4.73591e-09
-1.99912e-07
3.68824e-09
-1.99935e-07
1.83886e-09
-2.00425e-07
1.51007e-12
-2.00836e-07
-1.83114e-09
-2.0084e-07
-3.69238e-09
-2.00434e-07
-4.74104e-09
-1.99936e-07
-4.67765e-09
-1.9991e-07
-1.98885e-07
1.11368e-09
1.20218e-09
1.26711e-09
8.41818e-10
5.58531e-12
-8.34386e-10
-1.26833e-09
-1.20458e-09
-1.11489e-09
-2.38354e-08
-1.98011e-07
2.21847e-07
-2.56411e-08
-1.99208e-07
2.01013e-07
-2.16467e-08
-2.01576e-07
1.97581e-07
-1.24365e-08
-1.99753e-07
1.90543e-07
-9.27736e-10
-2.00873e-07
1.89364e-07
1.08446e-08
-2.00933e-07
1.89161e-07
2.09556e-08
-2.00229e-07
1.90118e-07
2.54549e-08
-2.02062e-07
1.97562e-07
2.37982e-08
-1.99303e-07
2.0096e-07
-1.98052e-07
2.2185e-07
-1.0924e-08
-1.87087e-07
-1.69564e-08
-1.93175e-07
-1.60992e-08
-2.02433e-07
-7.66258e-09
-2.0819e-07
4.49628e-10
-2.08985e-07
8.70863e-09
-2.09192e-07
1.68847e-08
-2.08406e-07
1.71661e-08
-2.02343e-07
1.09824e-08
-1.93119e-07
-1.87069e-07
-1.08047e-08
-1.76283e-07
-8.71768e-09
-1.95262e-07
-5.97126e-09
-2.05179e-07
-3.44979e-09
-2.10711e-07
8.0246e-10
-2.13238e-07
4.45664e-09
-2.12846e-07
6.03301e-09
-2.09982e-07
8.62269e-09
-2.04933e-07
1.07552e-08
-1.95252e-07
-1.76314e-07
-7.94517e-09
-1.68338e-07
-1.007e-08
-1.93137e-07
-8.83374e-09
-2.06415e-07
-4.38936e-09
-2.15156e-07
-1.19023e-09
-2.16437e-07
2.51178e-09
-2.16548e-07
8.21634e-09
-2.15686e-07
9.94649e-09
-2.06663e-07
7.92511e-09
-1.9323e-07
-1.68389e-07
-1.62024e-08
-1.4861e-08
-1.22947e-08
-7.42547e-09
6.23434e-10
8.6605e-09
1.2991e-08
1.50928e-08
1.62848e-08
3.08616e-08
-1.5836e-07
1.27499e-07
3.58915e-08
-1.99385e-07
1.94355e-07
2.74308e-08
-2.1047e-07
2.18931e-07
1.45852e-08
-2.14985e-07
2.27831e-07
-2.50946e-10
-2.16575e-07
2.31411e-07
-1.47676e-08
-2.16705e-07
2.31221e-07
-2.71673e-08
-2.1509e-07
2.2749e-07
-3.5594e-08
-2.10603e-07
2.1903e-07
-3.06908e-08
-1.99456e-07
1.94553e-07
-1.58369e-07
1.27678e-07
1.60238e-08
-1.74384e-07
1.78448e-08
-2.01206e-07
1.44107e-08
-2.07036e-07
8.07722e-09
-2.08652e-07
1.49325e-10
-2.08647e-07
-7.76252e-09
-2.08793e-07
-1.40791e-08
-2.08774e-07
-1.76517e-08
-2.07031e-07
-1.59496e-08
-2.01158e-07
-1.74319e-07
1.03066e-08
-1.84691e-07
9.41115e-09
-2.00311e-07
7.79006e-09
-2.05415e-07
3.89307e-09
-2.04755e-07
7.02625e-11
-2.04825e-07
-3.8722e-09
-2.04851e-07
-7.9446e-09
-2.04701e-07
-9.56784e-09
-2.05408e-07
-1.04075e-08
-2.00318e-07
-1.84726e-07
7.28796e-09
-1.91979e-07
6.21767e-09
-1.99241e-07
6.16104e-09
-2.05359e-07
1.69823e-09
-2.00292e-07
-2.88938e-10
-2.02837e-07
-2.17735e-09
-2.02962e-07
-6.32925e-09
-2.00549e-07
-6.29863e-09
-2.05438e-07
-7.31322e-09
-1.99304e-07
-1.9204e-07
2.98682e-08
3.16409e-08
2.38636e-08
1.41148e-08
6.41694e-10
-1.31595e-08
-2.35904e-08
-3.14662e-08
-2.98103e-08
-1.3555e-06
-1.69413e-09
1.41477e-06
-1.2581e-06
-2.9549e-08
-1.20994e-06
8.43051e-09
-8.2867e-07
-4.06686e-07
-2.11681e-09
-8.26203e-07
8.26716e-07
-8.28483e-07
1.21163e-06
-4.0566e-07
1.25779e-06
7.91371e-09
1.35429e-06
-2.96057e-08
-1.62795e-09
1.41414e-06
-6.57291e-09
-4.05463e-11
4.17973e-09
-3.17639e-08
-2.71544e-10
-2.00381e-08
-2.96889e-09
-3.48721e-07
-9.85452e-08
-1.15281e-08
-1.16302e-06
3.20596e-07
-1.16026e-06
1.96004e-08
-1.00967e-07
3.07468e-08
-3.04036e-09
6.15336e-09
-2.76482e-10
-3.95665e-11
3.97876e-09
-3.94656e-11
-1.3199e-11
1.2919e-11
-2.93936e-10
-1.38089e-11
-3.24284e-09
-1.73035e-11
-3.93576e-08
-4.75033e-08
2.9386e-10
-1.20206e-06
4.25608e-08
-1.20211e-06
3.35012e-09
-4.75703e-08
3.10395e-10
-1.76132e-11
3.85099e-11
-5.31916e-12
-1.36614e-11
1.31274e-11
-3.90505e-12
-8.2854e-12
2.48174e-12
2.764e-13
-1.52467e-11
6.2247e-13
-1.79104e-11
5.15241e-09
-2.67793e-08
5.46026e-09
-1.19103e-06
-1.87628e-09
-1.19228e-06
-1.44004e-11
-3.04044e-08
-4.22101e-14
-3.92715e-11
2.17867e-12
-1.67809e-11
-1.27765e-11
4.84499e-12
-3.73544e-13
-6.3842e-14
8.30496e-15
1.3411e-12
-5.77512e-11
2.43973e-12
-1.92196e-11
1.08786e-08
-6.27531e-09
2.37208e-08
-1.18304e-06
1.51149e-08
-1.18859e-06
3.39776e-11
-6.34255e-09
0
-1.09397e-11
2.88557e-13
-3.91364e-11
-2.17122e-12
3.75429e-14
4.00192e-14
-1.01472e-13
-2.16793e-14
9.23698e-12
-6.17564e-11
8.86e-12
-1.9684e-11
-4.81938e-10
-3.09146e-11
-1.81086e-09
-1.17307e-06
-3.29242e-09
-1.17874e-06
-1.41566e-12
-1.34912e-10
-6.80852e-12
-1.18374e-11
-1.45617e-12
-4.07713e-11
-3.36267e-13
-1.24782e-13
4.36568e-13
-7.47661e-13
-6.237e-14
5.0851e-12
-6.08131e-11
7.96129e-13
-2.1291e-11
1.95828e-10
-1.32843e-12
-1.45115e-09
-1.17031e-06
-8.55191e-10
-1.16969e-06
-1.33266e-12
-8.94655e-13
-6.11923e-12
-9.97761e-12
-5.76497e-13
-4.24366e-11
-1.20531e-12
-1.10114e-13
1.11863e-12
-9.30782e-13
-7.07192e-13
4.63057e-12
-5.8549e-11
3.79298e-13
-2.1107e-11
7.02299e-15
-1.34387e-12
7.28748e-10
-1.16845e-06
-2.62118e-15
-1.1703e-06
-2.41024e-13
-9.00278e-13
-3.38251e-12
-1.43102e-11
-9.63438e-13
-4.0867e-11
-1.28253e-12
-7.7144e-13
5.89354e-13
-1.43726e-12
-7.99651e-13
4.38322e-12
-5.64937e-11
3.97004e-13
-2.03725e-11
1.00845e-13
-1.43543e-12
9.50451e-10
-1.15985e-06
-5.49453e-14
-1.1635e-06
-2.35116e-13
-9.64132e-13
-3.05223e-12
-1.32698e-11
-4.10138e-13
-3.94662e-11
-1.27841e-12
-6.94329e-13
4.23343e-13
-2.43673e-12
-8.46842e-13
4.43307e-12
-5.46543e-11
5.28728e-13
-1.97821e-11
4.56584e-13
-1.78911e-12
1.05562e-09
-9.35244e-07
-3.10423e-13
-9.33876e-07
-2.82816e-13
-1.24726e-12
-2.89294e-12
-1.22013e-11
-2.74765e-13
-3.80415e-11
-1.61745e-12
-5.2155e-13
1.04251e-12
-7.35362e-12
-6.01285e-13
5.65624e-12
-5.34188e-11
7.74369e-13
-1.65996e-11
1.70567e-12
-3.27517e-12
8.59223e-10
-5.0224e-07
-1.32754e-12
-5.03673e-07
-4.19512e-13
-2.47547e-12
-3.81811e-12
-8.94299e-12
-6.66085e-13
-3.71506e-11
-3.80339e-12
-4.65139e-16
2.41344e-12
-7.72971e-12
-1.23508e-14
5.97235e-12
-5.11204e-11
6.59254e-13
-8.07567e-12
6.95314e-12
-1.05739e-11
6.771e-10
-2.92362e-07
-5.71223e-12
-2.93329e-07
-3.25053e-13
-8.45559e-12
-3.67332e-12
-3.48706e-12
-1.85497e-12
-3.48566e-11
-3.40112e-12
-1.84862e-14
7.64643e-12
-5.91927e-12
-3.33946e-14
3.1826e-12
-3.65636e-11
5.4847e-13
-1.56932e-12
3.42341e-11
-4.65835e-11
1.28225e-09
-3.77864e-07
-2.91369e-11
-3.76553e-07
-2.43813e-13
-3.85361e-11
-1.7281e-12
-3.23466e-13
-3.38184e-12
-8.12772e-13
-3.68773e-12
-2.87569e-14
9.06875e-13
-1.82281e-12
-3.25191e-14
5.45825e-13
-7.61209e-14
5.96545e-13
-1.70079e-13
1.8679e-10
-2.32457e-10
1.25902e-09
-8.97377e-07
-1.57144e-10
-8.99847e-07
-1.92529e-13
-1.95078e-10
-4.47428e-15
-1.27979e-13
-7.41635e-13
-9.02563e-14
-3.05945e-12
-2.83623e-14
5.17951e-14
-2.12341e-14
-8.00038e-15
1.58343e-15
-2.37647e-14
6.86644e-13
-9.20629e-13
8.21303e-10
-1.05343e-09
1.54573e-09
-1.09987e-06
-6.687e-10
-1.09999e-06
-8.00667e-13
-8.63065e-10
-4.21356e-15
-1.43267e-12
-1.00743e-13
-1.79795e-14
-1.63697e-14
-2.52745e-14
1.77525e-15
-1.45256e-14
-6.13701e-15
4.34529e-15
-2.33483e-14
9.22029e-13
-4.307e-12
2.35524e-10
-4.96061e-09
6.8804e-10
-1.09946e-06
-1.04039e-10
-1.09404e-06
0
-2.3085e-09
-9.06252e-15
-3.048e-12
-1.22033e-15
-2.47257e-14
-9.71304e-15
-6.66067e-15
1.74979e-15
-9.25191e-15
-4.87463e-15
1.82882e-14
-3.75401e-14
0
-4.76185e-12
-1.2372e-08
-6.05841e-09
-1.41458e-08
-1.0949e-06
-6.56921e-09
-1.0946e-06
-1.36497e-11
-6.42027e-09
-4.04737e-14
-9.82266e-13
-1.64554e-15
-6.23375e-14
-6.91406e-15
-2.81585e-15
2.88645e-15
-8.37023e-15
-2.31774e-15
1.6458e-14
-4.89627e-14
-3.45689e-12
-2.46705e-12
-1.14211e-08
-5.2554e-09
-2.29753e-08
-1.09433e-06
-7.90969e-09
-1.09173e-06
-1.03769e-11
-5.08138e-09
-7.16129e-14
-2.60314e-12
-5.01432e-15
-1.27307e-13
-6.6475e-15
-2.57236e-15
6.06865e-15
-8.59136e-15
-3.07587e-15
6.30036e-14
-3.08352e-12
-7.07272e-12
-1.85075e-12
-3.64721e-09
-3.46544e-09
-8.33424e-09
-1.08947e-06
-1.07784e-09
-1.08608e-06
-1.33119e-11
-3.65212e-09
-4.6377e-13
-2.40331e-12
-8.8626e-15
-1.02007e-11
-7.88501e-15
-5.99643e-15
3.63705e-14
-3.83075e-14
-5.77245e-15
7.16419e-13
-1.21219e-11
1.17881e-13
-2.94881e-12
1.14963e-09
-3.47404e-09
-2.78275e-09
-1.08102e-06
-1.44713e-09
-1.08125e-06
-4.45996e-12
-2.05294e-09
-1.41459e-12
-2.28777e-12
-4.27442e-14
-1.04406e-11
-4.19344e-14
-7.61367e-15
5.66308e-14
-1.36903e-13
-1.12863e-14
8.68689e-13
-1.19843e-11
-6.71676e-13
-1.96773e-12
-8.10463e-09
-1.4248e-09
-1.63023e-08
-1.07461e-06
-7.39377e-09
-1.07367e-06
-1.87059e-12
-2.54135e-09
-1.8728e-12
-2.19741e-12
-1.05166e-13
-1.09767e-11
-1.89077e-13
-1.43237e-14
1.54332e-13
-1.49249e-12
-1.80035e-14
9.83627e-13
-1.18402e-11
7.65998e-13
-1.96708e-12
-1.1767e-09
-3.58149e-09
-8.57804e-09
-1.06751e-06
-6.38097e-10
-1.06697e-06
-2.58432e-12
-5.04743e-10
-1.83872e-12
-1.99016e-12
-8.57626e-13
-1.07278e-11
-1.4164e-12
-2.0574e-14
6.6091e-13
-2.64903e-12
-1.37036e-14
1.08626e-12
-1.1316e-11
0
-1.57266e-12
-9.08781e-09
-2.51198e-09
-1.35093e-08
-1.06154e-06
-4.62551e-09
-1.06194e-06
-1.46057e-12
-1.05803e-09
-2.12081e-12
-1.78989e-12
-1.13976e-12
-1.04773e-11
-2.44958e-12
-1.54546e-14
1.35683e-12
-2.26946e-12
-5.07556e-15
1.5516e-12
-1.05335e-11
2.49493e-12
-1.43841e-12
-7.09252e-09
-7.86776e-11
-1.1651e-08
-1.05513e-06
-4.44813e-09
-1.0563e-06
-3.05463e-12
-1.57942e-11
-2.12146e-12
-1.64862e-12
-1.39535e-12
-9.99337e-12
-1.99249e-12
-4.80682e-15
2.17361e-12
-2.44871e-12
-1.8912e-15
1.61794e-12
-4.76693e-12
1.27952e-12
-1.26282e-12
5.83925e-10
-2.66583e-12
4.88936e-10
-1.05274e-06
-9.52484e-11
-1.04133e-06
-3.37191e-13
-1.34124e-12
-6.54328e-13
-1.4207e-12
-2.26798e-12
-6.11634e-12
-2.03548e-12
-8.93225e-16
5.39528e-13
-2.62885e-12
-7.51719e-15
3.13197e-13
-2.64407e-12
6.87588e-14
-1.24564e-12
3.86867e-14
-2.85999e-12
2.17892e-09
-9.8231e-07
-1.4306e-14
-9.84325e-07
-8.43184e-14
-1.38487e-12
-6.71316e-15
-1.33301e-12
-4.48806e-13
-3.71542e-12
-2.48859e-12
-1.37061e-14
1.29726e-12
-2.43321e-12
-1.03145e-14
3.03222e-13
-2.64967e-12
9.1046e-14
-1.21743e-12
1.1302e-12
-4.13366e-12
1.34708e-10
-8.5463e-07
-3.38881e-13
-8.56966e-07
-9.18172e-14
-1.74472e-12
-3.55769e-14
-1.27844e-12
-1.15967e-12
-3.313e-12
-2.2999e-12
-1.5132e-14
9.05105e-13
-1.53223e-12
-3.23496e-13
2.55792e-13
-2.50565e-12
1.17926e-13
-1.22161e-12
6.9632e-12
-1.115e-11
1.39297e-09
-7.99071e-07
-1.92861e-12
-7.98869e-07
-1.09557e-13
-3.63862e-12
-6.19798e-14
-1.47625e-12
-8.03523e-13
-2.49166e-12
-1.39075e-12
-3.79427e-13
6.39783e-13
-2.62068e-15
-7.53869e-16
1.59927e-13
-2.51479e-12
2.41954e-13
-1.38718e-12
3.89946e-11
-5.00215e-11
-1.62596e-10
-8.1296e-07
-9.79903e-12
-8.13121e-07
-1.8268e-13
-1.30788e-11
-1.37879e-13
-2.01635e-12
-6.64026e-13
-3.07796e-12
-7.08361e-15
-5.39238e-15
1.36628e-15
-1.78991e-15
-1.79809e-15
3.35101e-13
-2.21585e-12
5.37368e-13
-1.39678e-12
2.11893e-10
-2.61425e-10
1.91201e-10
-9.77588e-07
-4.82591e-11
-9.80187e-07
-2.67347e-13
-5.93758e-11
-5.72496e-13
-2.12447e-12
-4.34323e-15
-3.23649e-12
-4.63402e-15
-5.11344e-15
3.60895e-15
-1.63883e-15
-3.50666e-15
3.03781e-13
-2.18365e-12
3.38938e-13
-1.79209e-12
9.97766e-10
-1.25944e-09
1.46883e-09
-1.05751e-06
-2.46282e-10
-1.05209e-06
-3.56337e-13
-3.0364e-10
-5.22076e-13
-1.8014e-12
-1.28403e-14
-3.24433e-12
-4.08756e-15
-4.06837e-15
2.7477e-15
-1.59736e-15
-2.46474e-15
1.00415e-13
-2.25685e-12
0
-6.27027e-13
5.81708e-11
-5.06287e-09
1.43759e-11
-1.04946e-06
-3.84541e-10
-1.04857e-06
0
-7.20693e-10
-1.97304e-13
-8.41604e-13
-6.07816e-15
-3.0187e-12
-9.14118e-15
-2.98708e-15
1.2788e-14
-1.18859e-14
-2.05584e-15
1.56777e-13
-2.17255e-12
8.11363e-12
-1.11332e-13
1.01475e-09
-3.09313e-09
5.84262e-09
-1.04663e-06
1.36341e-09
-1.04651e-06
0
-2.36735e-09
-8.42809e-14
-1.07308e-13
-9.5278e-14
-3.13237e-12
-1.11666e-13
-2.72409e-15
3.51164e-14
-3.7381e-14
-3.6155e-15
4.4087e-13
-2.27748e-12
1.57816e-13
-1.2029e-13
2.23006e-09
-7.08003e-12
6.21264e-09
-1.04155e-06
1.37353e-09
-1.04198e-06
-1.66723e-13
-4.2952e-14
-3.27412e-13
-1.07529e-13
-1.31272e-13
-3.01188e-12
-6.20816e-13
-5.42323e-17
1.74774e-13
-1.95141e-13
-3.42601e-16
3.35905e-13
-2.19682e-12
1.78004e-13
-9.95216e-14
6.16776e-11
-7.57146e-13
1.50067e-09
-1.02729e-06
-1.01633e-13
-1.02969e-06
-5.75033e-15
-2.21571e-14
-2.73516e-13
-5.79232e-14
-6.49803e-13
-2.71949e-12
-8.77335e-13
-3.65867e-17
6.04613e-13
-5.6001e-13
-7.88404e-16
1.67806e-13
-1.37477e-12
1.91937e-14
-4.33324e-14
2.88629e-12
-3.694e-12
2.19345e-09
-9.97243e-07
-1.31532e-14
-9.97004e-07
-2.61301e-15
-1.91935e-14
-4.45944e-14
-2.79136e-14
-3.95835e-13
-1.22608e-12
-8.73822e-13
-8.9126e-16
3.29789e-13
-5.37245e-13
-9.93671e-16
4.51874e-14
-8.30825e-13
1.78752e-14
-3.53958e-14
1.74729e-11
-2.11776e-11
4.50725e-10
-9.75988e-07
-8.79312e-16
-9.76269e-07
-1.0947e-15
-1.89221e-14
0
-1.94359e-14
-3.54448e-13
-7.93376e-13
-8.25858e-13
-1.73434e-15
3.10791e-13
-4.96703e-13
-1.48e-16
6.9377e-14
-4.43904e-13
5.75635e-14
-3.07333e-14
1.04806e-10
-1.25814e-10
6.99746e-09
-9.62715e-07
-2.91513e-16
-9.64269e-07
-5.55693e-16
-1.87341e-14
0
-1.4987e-14
-3.69194e-13
-3.49627e-13
-7.40025e-13
-5.24727e-14
2.43321e-13
-3.02823e-13
-8.60158e-14
2.22464e-14
-2.88229e-13
2.15641e-14
-2.70513e-14
6.20669e-10
-1.85717e-14
-6.68681e-10
-9.65828e-07
-6.48425e-16
-9.64234e-07
-9.54754e-16
-1.85484e-14
0
-1.47893e-14
-2.2683e-13
-8.87532e-14
-3.51342e-13
-2.12971e-13
8.27917e-14
-2.3132e-14
-1.8409e-14
0
-2.64016e-13
1.61151e-15
-3.04572e-14
7.67101e-16
-1.82592e-14
7.36298e-10
-9.79591e-07
-5.67831e-16
-9.79557e-07
-9.63836e-16
-1.82836e-14
-1.9309e-15
-1.6286e-14
-1.60946e-14
-8.31683e-14
-4.80235e-14
-9.72596e-15
1.99658e-15
-2.44159e-14
-2.9229e-16
1.55429e-14
-1.85088e-13
1.58265e-15
-2.18696e-14
7.06228e-16
-1.79384e-14
4.58241e-10
-9.913e-07
-5.86945e-16
-9.91891e-07
-9.70354e-16
-1.80404e-14
-6.18868e-15
-1.27579e-14
-1.1221e-14
-1.34891e-13
-9.31596e-14
-1.04594e-14
9.17019e-15
-1.02326e-14
-4.82614e-15
2.19055e-15
-3.68149e-14
1.05084e-15
-2.07305e-14
2.96428e-16
-1.77545e-14
4.92349e-10
-9.9989e-07
-4.56219e-16
-1.00005e-06
-7.97378e-16
-1.78453e-14
0
-1.36773e-14
-4.54397e-14
-1.28146e-13
-3.54699e-14
-4.56574e-14
1.22514e-15
-4.99454e-15
-6.40138e-15
6.30534e-17
-9.34952e-15
1.1132e-15
-2.50471e-14
4.10488e-16
-1.76233e-14
1.43192e-09
-1.00764e-06
-3.89042e-16
-1.00728e-06
-7.15267e-16
-1.76683e-14
-2.09559e-15
-1.12626e-14
-1.6954e-15
-1.07385e-13
-2.94437e-14
-2.33765e-14
1.78332e-15
-1.19648e-14
-4.45612e-15
4.75275e-15
-1.61473e-13
1.04137e-15
-2.52909e-14
3.46297e-16
-1.74691e-14
4.02925e-10
-1.01277e-06
-3.76368e-16
-1.01297e-06
-6.27643e-16
-1.75631e-14
-2.57603e-15
-7.96921e-15
-5.00848e-15
-5.16126e-14
-2.60125e-14
-1.82892e-15
3.24082e-15
-2.99696e-14
-3.57997e-15
1.18896e-14
-1.33186e-13
9.34993e-16
-9.44878e-15
2.79083e-16
-1.73002e-14
2.08339e-10
-1.01315e-06
-4.61971e-16
-1.01314e-06
-4.98716e-16
-1.76764e-14
-6.53494e-16
-7.97529e-15
-5.6495e-15
-2.80953e-14
-2.62574e-14
-5.65487e-16
2.57336e-15
-5.23534e-14
-1.56733e-15
9.49105e-16
-4.64533e-14
6.35477e-16
-7.87906e-15
1.5061e-15
-1.84316e-14
2.56329e-10
-1.00884e-06
-1.71138e-15
-1.00856e-06
-4.53026e-16
-1.90956e-14
-5.8236e-16
-8.02301e-15
-4.41791e-15
-1.59764e-14
-2.5758e-14
-7.82445e-17
8.79962e-15
-5.17804e-14
-3.53082e-16
3.06231e-16
-2.38796e-14
5.14837e-16
-7.80438e-15
9.84529e-15
-2.76048e-14
-3.25652e-10
-1.00161e-06
-9.75325e-15
-1.00189e-06
-3.89677e-16
-2.86362e-14
-4.65873e-16
-8.13362e-15
-3.00265e-15
-9.36091e-15
-2.29089e-14
-1.01266e-15
7.82935e-15
-4.89623e-14
-1.62783e-15
1.16813e-16
-1.87394e-14
6.34592e-16
-7.79084e-15
6.12016e-14
-8.76919e-14
1.09646e-09
-9.94808e-07
-6.18463e-14
-9.94033e-07
-3.55588e-16
-9.03138e-14
-4.02372e-16
-8.26065e-15
-1.29918e-15
-9.14666e-15
-4.61473e-15
-6.07959e-16
3.92902e-15
-2.296e-15
-9.96924e-16
1.77042e-16
-1.00363e-14
1.01186e-15
-7.79727e-15
3.90475e-13
-4.76363e-13
-3.26339e-10
-9.89157e-07
-3.97681e-13
-9.90042e-07
-5.7052e-16
-4.87598e-13
-4.71099e-16
-8.37976e-15
-2.53275e-16
-9.59526e-15
-4.32006e-15
-5.43418e-16
8.53136e-17
-2.27844e-15
-7.75319e-17
8.2137e-16
0
1.51881e-15
-7.85576e-15
2.52365e-12
-2.99774e-12
1.39025e-09
-9.87878e-07
-2.57281e-12
-9.87183e-07
-8.6245e-16
-3.05957e-12
-6.60266e-16
-8.48216e-15
-5.54428e-17
-2.56671e-15
-3.11545e-15
-1.13756e-15
1.14678e-15
-1.02948e-14
-4.996e-16
1.90144e-15
-1.30771e-14
2.03082e-15
-7.76863e-15
1.64239e-11
-1.94192e-11
-9.76912e-11
-9.8623e-07
-1.67147e-11
-9.8703e-07
-5.49299e-16
-1.97736e-11
-3.10619e-16
-8.578e-15
-1.16457e-16
0
-1.66626e-15
-1.90269e-15
1.27486e-14
-1.37413e-14
-3.15598e-15
1.45448e-14
-3.4242e-13
1.4334e-14
-6.76018e-15
1.05929e-10
-1.25334e-10
1.02002e-09
-9.877e-07
-1.07398e-10
-9.87455e-07
-3.59599e-15
-1.27167e-10
-2.36017e-15
-8.252e-15
-1.03429e-15
-1.05747e-13
-5.72981e-15
-2.28797e-15
6.62692e-15
-1.40317e-14
-3.87016e-15
3.0511e-14
-3.43652e-13
2.91806e-14
-5.23172e-15
6.13694e-10
-7.38999e-10
1.5495e-10
-9.89784e-07
-6.12974e-10
-9.90256e-07
-1.92808e-14
-7.4012e-10
-1.89396e-14
-7.07488e-15
-1.62021e-14
-3.97163e-13
-1.45157e-14
-3.80085e-15
6.21259e-15
-1.21096e-14
-4.28063e-15
2.25351e-14
-3.37356e-13
2.15754e-14
-4.1141e-15
2.8738e-09
-3.61277e-09
5.87922e-10
-9.90559e-07
-2.78779e-09
-9.90885e-07
-2.34562e-14
-3.52789e-09
-2.3427e-14
-6.00245e-15
-5.88895e-15
-3.83741e-13
-1.37429e-14
-4.8084e-15
1.17819e-14
-9.23439e-15
-7.93384e-16
2.74753e-14
-3.30397e-13
2.69401e-14
-3.36907e-15
3.68803e-09
-8.39622e-09
4.81168e-10
-9.89692e-07
-3.36461e-09
-9.9006e-07
-2.97678e-14
-8.47885e-09
-2.97828e-14
-5.31463e-15
-8.37131e-15
-3.7346e-13
-1.06171e-14
-4.82632e-15
1.91842e-14
-7.74953e-15
-5.70606e-17
2.91959e-14
-5.21395e-15
2.75231e-14
-1.71268e-15
3.99546e-09
-1.30399e-08
6.26697e-10
-9.87736e-07
-3.66575e-09
-9.87829e-07
-3.79822e-14
-1.31187e-08
-4.00618e-14
-3.07533e-15
-2.26461e-14
-1.83834e-13
-3.75408e-15
-3.71285e-15
4.12472e-15
-5.59417e-15
-1.61546e-16
6.66521e-17
-1.17236e-15
7.08703e-17
-1.73345e-15
3.81145e-09
-1.72351e-08
3.75841e-10
-9.85138e-07
-3.51675e-09
-9.85367e-07
-1.43827e-15
-1.73216e-08
-1.57485e-15
-3.03215e-15
-1.20307e-15
-2.3051e-15
-2.54536e-16
-7.13859e-16
1.03304e-15
-1.79516e-16
-2.03105e-16
1.08063e-16
-2.59303e-16
1.53368e-16
-1.79531e-15
4.41801e-09
-2.20189e-08
4.58945e-10
-9.82005e-07
-4.09515e-09
-9.82243e-07
-1.32144e-16
-2.20972e-08
-1.15455e-16
-3.14361e-15
-1.08172e-16
-2.36826e-15
-1.35042e-16
-2.48094e-16
6.18782e-17
-1.40885e-16
-7.82233e-17
4.73078e-16
-6.43998e-16
1.68457e-15
-3.0035e-15
4.24049e-09
-2.64655e-08
5.40442e-10
-9.78687e-07
-3.92453e-09
-9.78736e-07
-1.2067e-15
-2.65394e-08
-4.69813e-16
-3.93741e-15
-1.13135e-16
-2.74537e-15
-1.2024e-16
-1.48366e-16
2.53324e-15
-1.22798e-16
-2.95537e-16
1.38281e-14
-2.90822e-13
1.72461e-14
-6.4925e-15
4.48119e-09
-3.07207e-08
3.30934e-10
-9.74023e-07
-4.19926e-09
-9.74199e-07
-1.21602e-14
-3.07902e-08
-1.09549e-14
-5.23764e-15
-3.34538e-16
-1.26807e-13
-1.40513e-16
-3.34694e-16
2.31917e-15
-1.13871e-16
-5.12858e-16
5.92625e-14
-2.99177e-13
6.13513e-14
-9.17979e-15
4.8212e-09
-3.50878e-08
5.32854e-10
-9.68829e-07
-4.5208e-09
-9.68753e-07
-2.50758e-14
-3.51499e-08
-2.41092e-14
-6.44358e-15
-1.28246e-15
-1.30143e-13
-3.45451e-16
-7.51863e-16
1.88213e-15
-1.01766e-16
-5.71151e-16
6.38232e-14
-3.12579e-13
6.60437e-14
-1.2456e-14
4.9279e-09
-3.94362e-08
2.51402e-10
-9.63034e-07
-4.64999e-09
-9.63204e-07
-2.73266e-14
-3.94906e-08
-2.62583e-14
-7.7532e-15
-1.0306e-15
-1.35895e-13
-2.83442e-16
-1.28997e-15
3.72425e-15
-2.27242e-15
-5.36739e-16
6.66219e-14
-3.05657e-13
6.87475e-14
-1.57059e-14
5.09661e-09
-4.37165e-08
3.29849e-10
-9.56839e-07
-4.80224e-09
-9.57122e-07
-2.83118e-14
-4.37582e-08
-2.7318e-14
-8.83805e-15
-2.50196e-15
-1.41228e-13
-1.76343e-15
-1.21411e-15
1.18644e-14
-6.89783e-15
-9.90779e-16
7.14191e-14
-3.02928e-13
7.3239e-14
-1.87865e-14
5.33251e-09
-4.8297e-08
4.31506e-10
-9.50739e-07
-5.04123e-09
-9.50904e-07
-2.60981e-14
-4.83232e-08
-2.54962e-14
-9.45109e-15
-1.87978e-14
-9.25959e-14
-7.98787e-15
-1.42029e-15
4.30399e-14
-2.83163e-15
-5.38509e-16
7.38291e-14
-2.73832e-13
7.25532e-14
-1.88308e-14
5.78834e-09
-5.36432e-08
3.63755e-10
-9.4465e-07
-5.51655e-09
-9.44773e-07
-1.22614e-14
-5.36569e-08
-1.12489e-14
-1.03318e-14
-2.41734e-14
-7.2989e-14
-6.15428e-15
-7.2379e-16
5.20719e-14
-4.98897e-15
-3.9785e-16
5.83004e-14
-1.88418e-13
6.04273e-14
-1.56145e-14
5.72674e-09
-5.91294e-08
2.8775e-10
-9.38864e-07
-5.46378e-09
-9.39058e-07
-1.30166e-14
-5.9132e-08
-1.21785e-14
-1.10747e-14
-2.41661e-14
-6.62976e-14
-4.23693e-15
-8.02026e-16
3.81148e-14
-2.32758e-15
-3.26424e-16
2.65979e-14
-1.54611e-13
2.99589e-14
-1.40804e-14
6.48061e-09
-6.57105e-08
4.18198e-10
-9.32907e-07
-6.21711e-09
-9.3289e-07
-1.3012e-14
-6.57106e-08
-1.23192e-14
-1.18455e-14
-2.44455e-14
-5.82167e-14
-2.46524e-15
-9.3619e-16
3.817e-14
4.0603e-16
-4.52613e-16
3.94152e-14
-1.47223e-13
4.18703e-14
-1.21672e-14
6.2999e-09
-7.24025e-08
2.07966e-10
-9.27227e-07
-6.03654e-09
-9.27391e-07
-1.22946e-14
-7.24014e-08
-1.13969e-14
-1.29177e-14
-2.36532e-14
-5.4599e-14
-1.2434e-16
-5.30427e-16
3.83978e-14
3.05097e-15
-6.30648e-16
4.11626e-14
-1.37412e-13
4.26111e-14
-9.89844e-15
7.01998e-09
-7.98366e-08
3.90719e-10
-9.20987e-07
-6.75837e-09
-9.20944e-07
-2.26474e-14
-7.98413e-08
-2.16207e-14
-1.41467e-14
-1.34114e-14
-6.68261e-14
1.50252e-16
-3.40049e-16
3.80551e-14
5.54334e-15
-1.93438e-16
2.47482e-14
-1.02766e-13
2.61187e-14
-8.28941e-15
7.03826e-09
-8.71311e-08
2.03347e-10
-9.14392e-07
-6.787e-09
-9.1447e-07
-2.73996e-14
-8.71381e-08
-2.63859e-14
-1.52991e-14
-5.96086e-16
-6.98386e-14
1.29225e-17
-2.41484e-16
3.85484e-14
7.37982e-15
-8.7838e-17
1.6366e-14
-5.40925e-14
1.72728e-14
-6.94064e-15
7.63118e-09
-9.46718e-08
2.71073e-10
-9.07047e-07
-7.42091e-09
-9.07015e-07
-2.82053e-14
-9.46798e-08
-2.77943e-14
-1.56906e-14
-6.51958e-16
-7.43198e-14
2.0618e-17
-3.53941e-16
8.96183e-15
1.24714e-15
-4.7637e-17
1.15721e-14
-3.15949e-14
1.25018e-14
-6.21821e-15
7.90426e-09
-1.02106e-07
1.05803e-10
-8.9911e-07
-7.7722e-09
-8.99158e-07
-2.83376e-14
-1.02134e-07
-2.86804e-14
-1.44117e-14
-6.25324e-16
-7.6562e-14
3.77628e-17
-3.62015e-16
1.08793e-15
2.80074e-16
-9.53209e-17
7.58427e-15
-2.68728e-14
8.51841e-15
-5.93027e-15
8.2513e-09
-1.09313e-07
1.14863e-10
-8.90564e-07
-8.15451e-09
-8.90644e-07
-3.00835e-14
-1.09388e-07
-3.03976e-14
-1.32637e-14
-1.15918e-14
-6.87009e-14
3.12267e-15
-4.3979e-16
8.67987e-15
3.59222e-15
-1.54434e-16
1.14478e-14
-2.29432e-14
1.17648e-14
-5.30709e-15
8.96883e-09
-1.16786e-07
3.8236e-10
-8.81439e-07
-8.6037e-09
-8.81476e-07
-2.92677e-14
-1.1684e-07
-3.0208e-14
-1.15862e-14
-1.93814e-14
-4.90792e-14
1.41416e-15
-1.72759e-16
1.20802e-14
4.13302e-15
-1.53345e-16
8.0188e-15
-1.8786e-14
8.26375e-15
-4.78907e-15
9.74597e-09
-1.24934e-07
6.45094e-10
-8.71897e-07
-8.99305e-09
-8.71945e-07
-7.896e-15
-1.24873e-07
-7.70744e-15
-1.11075e-14
-1.32171e-14
-3.13244e-14
5.05693e-15
-1.1662e-16
1.22537e-14
4.54185e-15
-1.94794e-16
7.4133e-15
-1.90232e-14
7.70673e-15
-4.38773e-15
1.01708e-08
-1.33792e-07
4.00255e-10
-8.6193e-07
-9.7021e-09
-8.61955e-07
-1.00464e-14
-1.33711e-07
-1.00636e-14
-1.04919e-14
-1.62605e-14
-2.08342e-14
5.65408e-15
-4.03427e-17
1.23894e-14
4.8956e-15
-2.90163e-16
1.52865e-14
-3.07657e-14
1.53315e-14
-3.80789e-15
1.05129e-08
-1.43741e-07
-7.39241e-11
-8.51519e-07
-1.07964e-08
-8.51311e-07
-7.68514e-15
-1.43856e-07
-7.69759e-15
-9.89769e-15
-1.64839e-14
-1.71642e-14
6.0685e-15
-7.48294e-17
3.54311e-15
1.37573e-16
-2.37725e-16
2.12424e-14
-3.14425e-14
2.07972e-14
-2.88703e-15
1.14669e-08
-1.55368e-07
-1.17006e-10
-8.40284e-07
-1.16257e-08
-8.40157e-07
-1.15955e-14
-1.55624e-07
-1.13654e-14
-9.55858e-15
-8.51622e-15
-2.84873e-14
2.66485e-15
-5.13861e-17
2.55112e-16
2.02911e-17
-1.31627e-16
2.18712e-14
-3.60765e-14
2.14233e-14
-2.09846e-15
1.22746e-08
-1.68138e-07
5.00093e-10
-8.2878e-07
-1.15477e-08
-8.28796e-07
-2.15241e-14
-1.68321e-07
-2.19576e-14
-8.5967e-15
-2.69844e-15
-3.00073e-14
1.7446e-17
-4.58285e-17
1.39263e-16
2.07938e-17
-1.34326e-16
2.15427e-14
-2.86773e-14
2.06051e-14
-1.00201e-15
1.33269e-08
-1.82229e-07
7.51067e-10
-8.1646e-07
-1.23859e-08
-8.16402e-07
-2.2345e-14
-1.82367e-07
-2.2706e-14
-7.71886e-15
-5.2203e-17
-3.50202e-14
7.15956e-18
-3.7188e-17
1.01915e-16
2.14686e-17
-9.73334e-17
5.49705e-15
-2.63965e-15
5.22025e-15
-6.87695e-16
1.42929e-08
-1.97114e-07
5.32341e-10
-8.02839e-07
-1.35089e-08
-8.02894e-07
-2.20192e-14
-1.97276e-07
-2.27352e-14
-6.59507e-15
-3.84384e-17
-3.16374e-14
7.43281e-18
-3.3863e-17
5.2738e-17
2.87758e-17
-5.48436e-17
1.95915e-16
-2.77757e-15
8.16644e-16
-1.28773e-15
1.56893e-08
-2.12562e-07
7.92577e-10
-7.87771e-07
-1.46516e-08
-7.87699e-07
-8.65806e-15
-2.12671e-07
-8.93661e-15
-6.04752e-15
-3.12031e-17
-1.14746e-14
7.65556e-18
-2.65223e-17
1.04533e-16
3.50402e-17
-8.6388e-17
9.14261e-15
-1.52058e-14
9.9125e-15
-2.02006e-15
1.67344e-08
-2.28342e-07
6.03038e-10
-7.71245e-07
-1.56649e-08
-7.71397e-07
-5.6662e-15
-2.28394e-07
-5.59279e-15
-5.94067e-15
-2.38337e-17
-1.78325e-14
1.57252e-17
-2.695e-17
7.52731e-15
3.97873e-15
-9.06368e-17
1.70843e-14
-1.64498e-14
1.77371e-14
-2.63627e-15
1.78945e-08
-2.45044e-07
4.03784e-10
-7.533e-07
-1.72749e-08
-7.53452e-07
-1.70322e-14
-2.45108e-07
-1.76129e-14
-5.28555e-15
-1.04631e-14
-1.66895e-14
5.92388e-15
-3.88012e-17
1.46509e-14
3.51355e-15
-1.69528e-17
1.76002e-14
-1.10089e-14
1.78646e-14
-2.81724e-15
1.87985e-08
-2.62417e-07
1.11511e-10
-7.34139e-07
-1.85877e-08
-7.34343e-07
-1.72302e-14
-2.62524e-07
-1.81401e-14
-4.44113e-15
-1.2236e-14
-1.39841e-14
3.89327e-15
-2.06817e-17
1.05468e-14
3.65406e-15
-7.19935e-18
4.75745e-15
-3.84927e-15
6.77171e-15
-4.65938e-15
2.02233e-08
-2.81214e-07
6.38935e-11
-7.13587e-07
-2.0146e-08
-7.13767e-07
-4.39189e-15
-2.81359e-07
-4.99033e-15
-4.00215e-15
-1.07098e-14
-2.94157e-15
3.30137e-15
-1.73061e-17
4.02409e-15
2.46837e-16
-1.21361e-17
1.58623e-15
-1.27597e-15
2.48319e-14
-2.76394e-14
2.23526e-08
-3.0295e-07
-4.56306e-11
-6.91027e-07
-2.23026e-08
-6.9136e-07
-2.28533e-14
-3.03105e-07
-1.02595e-15
-2.59038e-14
-3.96157e-15
-7.39437e-17
1.37954e-16
-2.56505e-17
2.67743e-15
3.48322e-16
-8.69695e-18
2.49544e-15
-1.56391e-16
3.09599e-13
-3.344e-13
2.44881e-08
-3.27326e-07
2.06001e-10
-6.66722e-07
-2.44079e-08
-6.66737e-07
-3.16023e-13
-3.27472e-07
-3.76554e-17
-3.41877e-13
-4.98845e-17
-4.99236e-17
1.25225e-16
-2.61404e-17
3.02621e-15
2.02978e-16
-7.56701e-18
3.03637e-15
-1.24147e-16
4.24055e-12
-4.57186e-12
2.68808e-08
-3.53887e-07
6.21516e-11
-6.39875e-07
-2.66431e-08
-6.4006e-07
-4.32973e-12
-3.5398e-07
-2.23922e-15
-4.66934e-12
-2.02977e-15
-2.46845e-16
1.40863e-15
-4.13179e-17
2.79243e-15
-5.84371e-18
-8.16782e-18
2.83541e-15
-1.33569e-16
5.97949e-11
-6.43639e-11
2.79781e-08
-3.80966e-07
3.40596e-10
-6.12216e-07
-2.75528e-08
-6.12181e-07
-6.09279e-11
-3.80902e-07
-2.31585e-14
-6.5574e-11
-2.27824e-14
-5.95055e-16
-3.34956e-16
-4.32692e-17
8.15386e-17
-1.74406e-17
-4.36328e-17
1.48949e-16
-1.71207e-16
8.29594e-10
-8.93958e-10
2.88456e-08
-4.08023e-07
1.93483e-10
-5.83568e-07
-2.86594e-08
-5.83336e-07
-8.42783e-10
-4.07938e-07
-3.1809e-14
-9.08325e-10
-3.17847e-14
-8.70968e-16
-7.53006e-15
-4.13589e-17
1.85133e-16
2.50069e-17
-5.32558e-17
7.42406e-16
-6.94921e-16
7.78297e-09
-8.67693e-09
2.96329e-08
-4.2981e-07
-2.10089e-10
-5.53729e-07
-2.98516e-08
-5.53708e-07
-7.87567e-09
-4.29797e-07
-1.69566e-14
-8.78398e-09
-1.64353e-14
-1.11666e-15
1.42692e-15
-1.68007e-17
1.73088e-15
1.53925e-16
-4.39081e-16
2.38565e-14
-2.27818e-14
1.84986e-08
-2.70829e-08
3.104e-08
-4.42887e-07
-1.26223e-10
-5.22566e-07
-3.13244e-08
-5.22518e-07
-1.85051e-08
-4.43241e-07
-2.43396e-14
-2.72227e-08
-1.88687e-15
-2.37466e-14
9.67944e-17
-9.49025e-17
9.74666e-16
9.13761e-18
-8.32582e-16
8.88899e-13
-9.10694e-13
3.24492e-08
-6.01112e-08
3.39435e-08
-4.449e-07
9.71027e-11
-4.8872e-07
-3.39953e-08
-4.88428e-07
-3.24968e-08
-4.45311e-07
-9.24201e-13
-6.02935e-08
-1.96973e-16
-9.47723e-13
9.34167e-19
-8.57064e-17
3.93172e-16
-3.31282e-17
-3.56958e-16
3.02829e-11
-3.11932e-11
4.6276e-08
-1.07484e-07
3.60679e-08
-4.35022e-07
-3.96135e-10
-4.52258e-07
-3.58461e-08
-4.52979e-07
-4.65703e-08
-4.34912e-07
-3.12375e-11
-1.07827e-07
-1.36945e-16
-3.2185e-11
-4.67579e-17
-6.20116e-17
5.15701e-14
-5.15499e-14
-5.28055e-17
9.89667e-10
-1.02081e-09
7.48621e-08
-1.83618e-07
4.26852e-08
-4.03088e-07
-8.13783e-10
-4.08759e-07
-4.49466e-08
-4.08846e-07
-7.60758e-08
-4.03933e-07
-1.01463e-09
-1.84478e-07
-5.89904e-14
-1.04676e-09
-5.90208e-14
-1.50803e-17
9.21706e-12
-9.26857e-12
-4.62509e-17
1.69562e-08
-1.79677e-08
9.06021e-08
-2.59121e-07
4.59895e-08
-3.58475e-07
1.29953e-09
-3.64069e-07
-4.32248e-08
-3.64322e-07
-8.90098e-08
-3.58148e-07
-1.70878e-08
-2.5822e-07
-9.75189e-12
-1.81249e-08
-9.81087e-12
-4.29672e-17
9.14084e-10
-9.23352e-10
-7.23581e-17
6.40365e-08
-8.17287e-08
9.68272e-08
-2.92207e-07
4.9552e-08
-3.112e-07
-1.50161e-09