/*--------------------------------*- C++ -*----------------------------------*\
  =========                 |
  \\      /  F ield         | OpenFOAM: The Open Source CFD Toolbox
   \\    /   O peration     | Website:  https://openfoam.org
    \\  /    A nd           | Version:  8
     \\/     M anipulation  |
\*---------------------------------------------------------------------------*/
FoamFile
{
    version     2.0;
    format      ascii;
    class       surfaceScalarField;
    location    "0.25";
    object      phi;
}
// * * * * * * * * * * * * * * * * * * * * * * * * * * * * * * * * * * * * * //

dimensions      [0 3 -1 0 0 0 0];

internalField   nonuniform List<scalar> 
18095
(
1.92745e-08
-1.7141e-07
1.52135e-07
2.32076e-08
-1.98412e-07
1.94479e-07
2.01789e-08
-2.05955e-07
2.08983e-07
1.11442e-08
-2.10989e-07
2.20024e-07
-1.50024e-10
-2.13194e-07
2.24488e-07
-1.15211e-08
-2.13215e-07
2.24586e-07
-2.04821e-08
-2.11051e-07
2.20012e-07
-2.32524e-08
-2.05995e-07
2.08765e-07
-1.92756e-08
-1.98399e-07
1.94422e-07
-1.7138e-07
1.52104e-07
1.58249e-08
-1.87235e-07
1.59117e-08
-1.98499e-07
1.18697e-08
-2.01913e-07
6.3523e-09
-2.05472e-07
1.16101e-11
-2.06853e-07
-6.34285e-09
-2.06861e-07
-1.18478e-08
-2.05546e-07
-1.59301e-08
-2.01913e-07
-1.58435e-08
-1.98486e-07
-1.87223e-07
6.97974e-09
-1.94214e-07
8.32929e-09
-1.99849e-07
7.39964e-09
-2.00983e-07
4.20096e-09
-2.02273e-07
2.14506e-11
-2.02674e-07
-4.16662e-09
-2.02673e-07
-7.4191e-09
-2.02294e-07
-8.34656e-09
-2.00985e-07
-6.98543e-09
-1.99847e-07
-1.94209e-07
4.67223e-09
-1.98887e-07
4.73547e-09
-1.99912e-07
3.68775e-09
-1.99935e-07
1.84e-09
-2.00425e-07
1.55582e-12
-2.00835e-07
-1.83205e-09
-2.00839e-07
-3.69193e-09
-2.00434e-07
-4.74065e-09
-1.99937e-07
-4.67682e-09
-1.99911e-07
-1.98885e-07
1.11344e-09
1.20162e-09
1.26624e-09
8.41027e-10
5.64742e-12
-8.33495e-10
-1.26747e-09
-1.20405e-09
-1.11466e-09
-2.38556e-08
-1.98006e-07
2.21861e-07
-2.56666e-08
-1.99212e-07
2.01023e-07
-2.16629e-08
-2.01577e-07
1.97574e-07
-1.24481e-08
-1.9975e-07
1.90535e-07
-9.30954e-10
-2.00868e-07
1.89351e-07
1.08554e-08
-2.00934e-07
1.89147e-07
2.09758e-08
-2.00235e-07
1.90114e-07
2.54808e-08
-2.02063e-07
1.97558e-07
2.38193e-08
-1.99308e-07
2.0097e-07
-1.98046e-07
2.21866e-07
-1.09269e-08
-1.87079e-07
-1.69667e-08
-1.93173e-07
-1.61116e-08
-2.02432e-07
-7.65713e-09
-2.08205e-07
4.68202e-10
-2.08994e-07
8.73147e-09
-2.09197e-07
1.69059e-08
-2.08409e-07
1.71786e-08
-2.02336e-07
1.09864e-08
-1.93116e-07
-1.8706e-07
-1.08016e-08
-1.76277e-07
-8.71019e-09
-1.95264e-07
-5.95846e-09
-2.05184e-07
-3.44823e-09
-2.10715e-07
7.89267e-10
-2.13231e-07
4.43072e-09
-2.12838e-07
6.00743e-09
-2.09986e-07
8.61158e-09
-2.0494e-07
1.07507e-08
-1.95255e-07
-1.76309e-07
-7.93975e-09
-1.68337e-07
-1.00691e-08
-1.93135e-07
-8.84058e-09
-2.06413e-07
-4.40059e-09
-2.15155e-07
-1.1936e-09
-2.16438e-07
2.52227e-09
-2.16554e-07
8.22885e-09
-2.15692e-07
9.94969e-09
-2.06661e-07
7.92061e-09
-1.93226e-07
-1.68388e-07
-1.62022e-08
-1.48578e-08
-1.22871e-08
-7.41822e-09
6.31864e-10
8.6641e-09
1.29841e-08
1.50886e-08
1.62846e-08
3.08682e-08
-1.58361e-07
1.27493e-07
3.58895e-08
-1.99378e-07
1.94357e-07
2.74378e-08
-2.10469e-07
2.18921e-07
1.46053e-08
-2.14987e-07
2.27819e-07
-2.30725e-10
-2.16577e-07
2.31413e-07
-1.47491e-08
-2.16712e-07
2.3123e-07
-2.71464e-08
-2.15096e-07
2.27493e-07
-3.55769e-08
-2.10601e-07
2.19031e-07
-3.06751e-08
-1.99445e-07
1.94544e-07
-1.58373e-07
1.27698e-07
1.60129e-08
-1.74374e-07
1.78343e-08
-2.012e-07
1.44035e-08
-2.07039e-07
8.07995e-09
-2.08663e-07
1.52492e-10
-2.0865e-07
-7.76554e-09
-2.08794e-07
-1.408e-08
-2.08782e-07
-1.76483e-08
-2.07032e-07
-1.59401e-08
-2.01154e-07
-1.74313e-07
1.02982e-08
-1.84672e-07
9.40614e-09
-2.00308e-07
7.78379e-09
-2.05416e-07
3.88407e-09
-2.04763e-07
6.60628e-11
-2.04832e-07
-3.87013e-09
-2.04858e-07
-7.93828e-09
-2.04714e-07
-9.55995e-09
-2.05411e-07
-1.03968e-08
-2.00317e-07
-1.8471e-07
7.29931e-09
-1.91972e-07
6.23295e-09
-1.99241e-07
6.17656e-09
-2.0536e-07
1.70896e-09
-2.00296e-07
-2.78671e-10
-2.02844e-07
-2.17094e-09
-2.02966e-07
-6.33836e-09
-2.00546e-07
-6.30988e-09
-2.05439e-07
-7.32289e-09
-1.99304e-07
-1.92033e-07
2.98897e-08
3.16717e-08
2.38856e-08
1.41251e-08
6.32051e-10
-1.31863e-08
-2.36182e-08
-3.1499e-08
-2.98328e-08
-2.56599e-06
-6.85543e-08
2.63454e-06
-2.31992e-06
-2.46066e-07
-2.33907e-06
1.91537e-08
-1.34027e-06
-9.98802e-07
-2.56264e-09
-1.33771e-06
1.33525e-06
-1.33781e-06
2.33529e-06
-1.00003e-06
2.31749e-06
1.77909e-08
2.56818e-06
-2.50688e-07
-6.672e-08
2.6349e-06
-2.37975e-06
-1.99286e-07
2.51048e-06
-2.24833e-06
-3.77479e-07
-1.3722e-06
-8.56974e-07
-5.45221e-07
-1.82579e-06
-2.14248e-09
-1.88079e-06
5.39508e-07
-1.87947e-06
1.36226e-06
-1.82278e-06
2.23571e-06
-8.55656e-07
2.36595e-06
-3.80932e-07
-2.01952e-07
2.50118e-06
-8.70368e-07
-4.745e-07
1.14558e-06
-6.36542e-07
-6.11303e-07
-1.86397e-07
-1.30712e-06
-8.20098e-08
-1.93017e-06
-2.52771e-09
-1.96027e-06
7.77723e-08
-1.95977e-06
1.83317e-07
-1.92833e-06
6.20971e-07
-1.29331e-06
8.47114e-07
-6.07074e-07
-4.78043e-07
1.1232e-06
-2.54555e-07
-6.23801e-07
4.03855e-07
5.72064e-09
-8.71579e-07
3.7208e-08
-1.33861e-06
1.50231e-08
-1.90799e-06
1.92878e-10
-1.94544e-06
-1.26629e-08
-1.94691e-06
-3.21069e-08
-1.90888e-06
-7.41761e-09
-1.31801e-06
2.3823e-07
-8.52719e-07
-6.23574e-07
3.83763e-07
-3.2225e-08
-6.1019e-07
1.86121e-08
3.54544e-09
-9.07354e-07
1.23207e-08
-1.34738e-06
-3.946e-10
-1.89527e-06
-7.9077e-09
-1.93793e-06
-1.63471e-08
-1.93847e-06
-2.5852e-08
-1.89938e-06
-1.19722e-08
-1.33189e-06
2.02776e-08
-8.84971e-07
-6.08642e-07
5.34213e-09
1.26313e-07
-5.43194e-07
-1.9331e-07
7.25307e-08
-8.53574e-07
2.34152e-08
-1.29827e-06
5.43422e-09
-1.87729e-06
-1.18157e-09
-1.93131e-06
-9.91436e-09
-1.92974e-06
-3.19747e-08
-1.87732e-06
-8.51159e-08
-1.27874e-06
-1.41687e-07
-8.28399e-07
-5.40439e-07
-2.09886e-07
1.23889e-07
-4.67193e-07
-1.9989e-07
6.95628e-08
-7.99243e-07
2.52273e-08
-1.25393e-06
1.22063e-08
-1.86427e-06
1.59919e-09
-1.9207e-06
-6.04633e-09
-1.92209e-06
-2.37259e-08
-1.85964e-06
-7.10863e-08
-1.23138e-06
-1.28861e-07
-7.70626e-07
-4.59235e-07
-2.10062e-07
1.03028e-07
-4.25255e-07
-1.44967e-07
6.77467e-08
-7.63963e-07
1.69671e-08
-1.20315e-06
-6.80355e-10
-1.84662e-06
-6.70724e-09
-1.91468e-06
-1.51789e-08
-1.91362e-06
-2.65532e-08
-1.84827e-06
-7.34142e-08
-1.18452e-06
-1.07046e-07
-7.36996e-07
-4.15302e-07
-1.50978e-07
8.83007e-08
-4.02162e-07
-1.11392e-07
5.97881e-08
-7.35455e-07
2.25739e-08
-1.16594e-06
8.20643e-09
-1.83226e-06
6.29495e-11
-1.90653e-06
-6.48655e-09
-1.90707e-06
-2.28132e-08
-1.83194e-06
-5.96892e-08
-1.14764e-06
-8.61092e-08
-7.10577e-07
-3.90665e-07
-1.10742e-07
8.16548e-08
-3.88335e-07
-9.54807e-08
5.92159e-08
-7.13012e-07
3.27934e-08
-1.13951e-06
8.82308e-09
-1.80829e-06
3.62168e-10
-1.89807e-06
-8.95051e-09
-1.89776e-06
-3.1813e-08
-1.80908e-06
-5.75708e-08
-1.12188e-06
-8.02708e-08
-6.87881e-07
-3.75785e-07
-9.51474e-08
9.57526e-08
-3.79056e-07
-1.05032e-07
7.63227e-08
-6.93585e-07
5.06339e-08
-1.11382e-06
2.37988e-08
-1.78145e-06
-3.29969e-10
-1.87394e-06
-2.37937e-08
-1.87429e-06
-5.2242e-08
-1.78063e-06
-7.66746e-08
-1.09745e-06
-9.66417e-08
-6.67913e-07
-3.6798e-07
-1.0445e-07
9.59898e-08
-3.70741e-07
-1.04306e-07
7.95559e-08
-6.7715e-07
5.55705e-08
-1.08984e-06
3.37984e-08
-1.75968e-06
-2.01513e-09
-1.83813e-06
-3.79648e-08
-1.83834e-06
-6.08257e-08
-1.75776e-06
-8.15439e-08
-1.07673e-06
-9.37934e-08
-6.55664e-07
-3.62357e-07
-9.94161e-08
1.01688e-07
-3.63274e-07
-1.09155e-07
7.8974e-08
-6.54439e-07
4.79135e-08
-1.05878e-06
3.06029e-08
-1.74236e-06
5.73567e-10
-1.8081e-06
-3.01667e-08
-1.8076e-06
-4.71884e-08
-1.74075e-06
-7.60749e-08
-1.04784e-06
-9.66537e-08
-6.35085e-07
-3.57406e-07
-1.01604e-07
8.87618e-08
-3.5087e-07
-1.01166e-07
5.93845e-08
-6.2506e-07
3.2971e-08
-1.03236e-06
2.36843e-08
-1.73308e-06
1.23126e-11
-1.78443e-06
-2.30856e-08
-1.78451e-06
-3.19776e-08
-1.73185e-06
-5.45463e-08
-1.02527e-06
-7.95747e-08
-6.10059e-07
-3.46324e-07
-9.06601e-08
6.72386e-08
-3.32343e-07
-8.5766e-08
3.98625e-08
-5.97685e-07
1.22207e-08
-1.00473e-06
1.20995e-08
-1.73296e-06
5.39069e-10
-1.77286e-06
-1.11072e-08
-1.77286e-06
-1.26077e-08
-1.73036e-06
-3.5705e-08
-1.00217e-06
-5.72848e-08
-5.88477e-07
-3.30656e-07
-7.29528e-08
5.38893e-08
-3.14291e-07
-7.19425e-08
2.5681e-08
-5.69478e-07
-1.84069e-09
-9.77205e-07
5.91322e-09
-1.74071e-06
1.06192e-09
-1.76801e-06
-6.33939e-09
-1.76546e-06
3.47546e-09
-1.74017e-06
-1.62382e-08
-9.82458e-07
-3.86274e-08
-5.66088e-07
-3.12583e-07
-5.67003e-08
4.9395e-08
-2.97963e-07
-6.57231e-08
3.02681e-08
-5.50353e-07
1.44776e-08
-9.61413e-07
2.14564e-08
-1.74769e-06
1.4996e-08
-1.76155e-06
1.26636e-08
-1.76313e-06
1.47812e-08
-1.74229e-06
-9.34623e-09
-9.58331e-07
-3.11056e-08
-5.44329e-07
-2.93113e-07
-5.05749e-08
4.98249e-08
-2.84073e-07
-6.37161e-08
3.25285e-08
-5.33057e-07
1.85757e-08
-9.47461e-07
1.29778e-08
-1.74209e-06
8.30947e-09
-1.75689e-06
4.68325e-09
-1.7595e-06
-8.78542e-10
-1.73673e-06
-1.79659e-08
-9.41242e-07
-3.63015e-08
-5.25996e-07
-2.78089e-07
-5.13259e-08
5.17356e-08
-2.70403e-07
-6.54063e-08
2.96323e-08
-5.10953e-07
6.19278e-09
-9.24021e-07
7.43846e-10
-1.73664e-06
-2.09804e-09
-1.75404e-06
-9.44494e-09
-1.75215e-06
-1.23556e-08
-1.73382e-06
-2.93756e-08
-9.24222e-07
-4.74908e-08
-5.07882e-07
-2.66237e-07
-5.93416e-08
5.14998e-08
-2.54817e-07
-6.70857e-08
3.05891e-08
-4.90048e-07
9.82306e-09
-9.03256e-07
6.46115e-09
-1.73328e-06
-1.40285e-09
-1.74618e-06
-5.95007e-09
-1.74761e-06
-1.04112e-08
-1.72936e-06
-3.09902e-08
-9.03643e-07
-5.02322e-08
-4.88637e-07
-2.5293e-07
-6.35387e-08
5.29706e-08
-2.39638e-07
-6.81494e-08
3.04296e-08
-4.67509e-07
9.10112e-09
-8.81927e-07
6.06552e-09
-1.73024e-06
-3.64027e-09
-1.73647e-06
-8.67639e-09
-1.74257e-06
-1.98616e-08
-1.71817e-06
-4.09907e-08
-8.82511e-07
-5.97156e-08
-4.69913e-07
-2.4145e-07
-7.11956e-08
5.22219e-08
-2.21215e-07
-7.06455e-08
2.28845e-08
-4.3817e-07
-1.28286e-08
-8.46212e-07
-3.71099e-08
-1.70596e-06
-3.515e-08
-1.73843e-06
-5.37101e-08
-1.72401e-06
-4.53296e-08
-1.72655e-06
-5.05042e-08
-8.77336e-07
-6.42763e-08
-4.5614e-07
-2.30253e-07
-7.54722e-08
6.6631e-08
-2.07968e-07
-7.98786e-08
5.11139e-08
-4.22651e-07
3.60955e-08
-8.31193e-07
3.87344e-08
-1.7086e-06
2.26304e-08
-1.72233e-06
2.26628e-08
-1.72404e-06
-5.47517e-09
-1.69841e-06
-3.7021e-08
-8.45788e-07
-6.02773e-08
-4.32881e-07
-2.14563e-07
-7.59678e-08
7.92381e-08
-1.97868e-07
-8.93385e-08
6.24375e-08
-4.05849e-07
4.49056e-08
-8.13661e-07
2.62185e-08
-1.68992e-06
1.84937e-08
-1.7146e-06
1.21822e-08
-1.71773e-06
-1.17581e-08
-1.67447e-06
-3.89258e-08
-8.18618e-07
-6.34125e-08
-4.08395e-07
-1.99182e-07
-7.87927e-08
8.40135e-08
-1.87817e-07
-9.40643e-08
6.37173e-08
-3.85552e-07
4.06619e-08
-7.90606e-07
5.74275e-09
-1.655e-06
3.0034e-11
-1.70889e-06
-8.76597e-09
-1.70894e-06
-3.22866e-08
-1.65095e-06
-5.39182e-08
-7.96986e-07
-7.32492e-08
-3.89066e-07
-1.86397e-07
-8.60362e-08
8.52223e-08
-1.76034e-07
-9.70038e-08
6.894e-08
-3.69271e-07
4.24034e-08
-7.64069e-07
1.20155e-08
-1.62461e-06
5.96374e-10
-1.69747e-06
-1.06675e-08
-1.69767e-06
-3.77008e-08
-1.62392e-06
-6.31786e-08
-7.71506e-07
-7.88286e-08
-3.73414e-07
-1.75507e-07
-8.97188e-08
8.48786e-08
-1.64274e-07
-9.66391e-08
6.70708e-08
-3.51465e-07
4.01668e-08
-7.37168e-07
1.38009e-08
-1.59824e-06
-2.18491e-09
-1.68149e-06
-1.84466e-08
-1.68141e-06
-4.20766e-08
-1.60029e-06
-6.53259e-08
-7.48254e-07
-8.16236e-08
-3.57117e-07
-1.64929e-07
-9.22021e-08
7.70502e-08
-1.52562e-07
-8.87623e-08
6.13455e-08
-3.35755e-07
4.34294e-08
-7.1925e-07
2.12371e-08
-1.57605e-06
5.40216e-10
-1.66079e-06
-2.04111e-08
-1.66046e-06
-4.21749e-08
-1.57853e-06
-6.04445e-08
-7.29985e-07
-7.50954e-08
-3.42466e-07
-1.54201e-07
-8.58247e-08
6.52061e-08
-1.39971e-07
-7.77974e-08
5.19866e-08
-3.22538e-07
3.62074e-08
-7.03474e-07
2.02742e-08
-1.56012e-06
-2.65874e-09
-1.63786e-06
-2.46155e-08
-1.6385e-06
-3.91616e-08
-1.56398e-06
-5.46272e-08
-7.14521e-07
-6.59864e-08
-3.31105e-07
-1.43442e-07
-7.67463e-08
5.32523e-08
-1.27967e-07
-6.52562e-08
3.93014e-08
-3.08586e-07
2.355e-08
-6.87723e-07
1.61392e-08
-1.55271e-06
-1.33653e-09
-1.62038e-06
-1.86415e-08
-1.6212e-06
-2.91147e-08
-1.55351e-06
-4.39869e-08
-6.99649e-07
-5.59458e-08
-3.19146e-07
-1.34438e-07
-6.49498e-08
3.97314e-08
-1.15658e-07
-5.20411e-08
2.3378e-08
-2.92234e-07
6.05542e-09
-6.70402e-07
1.22868e-08
-1.55893e-06
1.03713e-09
-1.60913e-06
-1.37477e-08
-1.60641e-06
-1.36379e-08
-1.55362e-06
-2.61239e-08
-6.87165e-07
-3.8228e-08
-3.07044e-07
-1.23947e-07
-4.87189e-08
2.72506e-08
-1.01707e-07
-4.12025e-08
1.23675e-08
-2.77352e-07
6.21635e-11
-6.58097e-07
8.81264e-09
-1.56768e-06
2.48008e-09
-1.6028e-06
-7.3094e-09
-1.59662e-06
7.6773e-09
-1.5686e-06
-4.75399e-09
-6.74733e-07
-2.00526e-08
-2.91745e-07
-1.10048e-07
-3.39525e-08
3.55248e-08
-9.33875e-08
-4.38449e-08
2.97804e-08
-2.7161e-07
3.57239e-08
-6.64041e-07
4.88297e-08
-1.58079e-06
3.70609e-08
-1.59103e-06
3.84002e-08
-1.59796e-06
3.16787e-08
-1.56188e-06
9.84836e-09
-6.52902e-07
-1.12789e-08
-2.70616e-07
-9.43384e-08
-2.69877e-08
4.42904e-08
-8.97545e-08
-4.79238e-08
3.98873e-08
-2.67206e-07
3.56753e-08
-6.59826e-07
1.23262e-08
-1.55744e-06
8.97919e-09
-1.58768e-06
-9.01048e-10
-1.58808e-06
-1.88767e-08
-1.54391e-06
-2.30197e-08
-6.48761e-07
-3.05089e-08
-2.63128e-07
-8.7799e-08
-3.70485e-08
4.82611e-08
-8.74768e-08
-5.05394e-08
4.69555e-08
-2.65905e-07
4.19082e-08
-6.54779e-07
1.07929e-08
-1.52632e-06
-3.94144e-11
-1.57685e-06
-1.00189e-08
-1.5781e-06
-4.06653e-08
-1.51326e-06
-4.27646e-08
-6.46661e-07
-4.4173e-08
-2.61718e-07
-8.52021e-08
-4.67706e-08
4.56402e-08
-8.47033e-08
-4.84137e-08
4.23236e-08
-2.62588e-07
3.7308e-08
-6.49762e-07
1.07488e-08
-1.49976e-06
2.03356e-11
-1.56612e-06
-1.21868e-08
-1.56589e-06
-3.39012e-08
-1.49155e-06
-4.27594e-08
-6.37803e-07
-4.88274e-08
-2.55648e-07
-8.11926e-08
-5.28353e-08
4.03902e-08
-7.83664e-08
-4.67271e-08
3.26607e-08
-2.54862e-07
2.53704e-08
-6.42472e-07
1.593e-08
-1.49032e-06
-2.46435e-09
-1.54773e-06
-1.33295e-08
-1.55503e-06
-3.08181e-08
-1.47406e-06
-3.93325e-08
-6.29289e-07
-4.61733e-08
-2.48807e-07
-7.61623e-08
-5.12022e-08
3.14285e-08
-6.97425e-08
-4.00527e-08
1.82395e-08
-2.41673e-07
1.31874e-11
-6.24245e-07
-2.6224e-08
-1.46409e-06
-3.30517e-08
-1.5409e-06
-5.48848e-08
-1.5332e-06
-4.50292e-08
-1.48391e-06
-4.40628e-08
-6.30255e-07
-4.67494e-08
-2.4612e-07
-7.18548e-08
-5.10577e-08
3.46383e-08
-6.53027e-08
-3.90785e-08
2.98897e-08
-2.36925e-07
2.68048e-08
-6.21158e-07
2.33892e-08
-1.46067e-06
4.88633e-09
-1.5224e-06
-5.10679e-09
-1.5232e-06
-2.91466e-08
-1.45987e-06
-3.65834e-08
-6.22818e-07
-4.19768e-08
-2.40726e-07
-6.80524e-08
-4.57788e-08
3.72412e-08
-6.2069e-08
-4.04746e-08
3.55743e-08
-2.35257e-07
3.16495e-08
-6.17233e-07
1.22687e-08
-1.44129e-06
-6.6108e-10
-1.50947e-06
-1.37661e-08
-1.5101e-06
-3.21942e-08
-1.44144e-06
-3.68096e-08
-6.18201e-07
-4.03038e-08
-2.37233e-07
-6.41704e-08
-4.41853e-08
3.46225e-08
-6.03798e-08
-3.6312e-08
3.32958e-08
-2.33931e-07
2.91252e-08
-6.1306e-07
1.31571e-08
-1.42533e-06
-3.22818e-10
-1.49599e-06
-1.43223e-08
-1.4961e-06
-3.01497e-08
-1.42562e-06
-3.5297e-08
-6.13054e-07
-3.67014e-08
-2.35828e-07
-6.22281e-08
-3.86439e-08
2.87826e-08
-5.87779e-08
-3.03839e-08
2.81761e-08
-2.33324e-07
2.52645e-08
-6.10149e-07
1.15664e-08
-1.41163e-06
-5.68034e-10
-1.48385e-06
-1.32438e-08
-1.48342e-06
-2.73195e-08
-1.41154e-06
-3.04219e-08
-6.09952e-07
-3.16393e-08
-2.34611e-07
-6.05163e-08
-3.33501e-08
2.35762e-08
-5.74066e-08
-2.49474e-08
2.41105e-08
-2.33858e-07
2.49659e-08
-6.11007e-07
1.35637e-08
-1.40023e-06
8.61515e-10
-1.47115e-06
-1.16744e-08
-1.47089e-06
-2.44324e-08
-1.39878e-06
-2.46046e-08
-6.09779e-07
-2.46034e-08
-2.34612e-07
-5.89122e-08
-2.62079e-08
1.80775e-08
-5.65577e-08
-1.89257e-08
1.95052e-08
-2.3528e-07
2.35038e-08
-6.15002e-07
1.31266e-08
-1.38985e-06
-6.40487e-10
-1.45738e-06
-1.39323e-08
-1.4576e-06
-2.437e-08
-1.38835e-06
-2.02393e-08
-6.1391e-07
-1.91649e-08
-2.35686e-07
-5.75541e-08
-2.05225e-08
1.31585e-08
-5.56314e-08
-1.40854e-08
1.55428e-08
-2.37673e-07
2.2905e-08
-6.22369e-07
1.093e-08
-1.37788e-06
-1.02637e-09
-1.44543e-06
-1.35716e-08
-1.44505e-06
-2.48244e-08
-1.37709e-06
-1.73239e-08
-6.2141e-07
-1.48615e-08
-2.38148e-07
-5.65987e-08
-1.58178e-08
8.93691e-09
-5.46155e-08
-9.95216e-09
1.28662e-08
-2.416e-07
2.28425e-08
-6.32341e-07
1.09181e-08
-1.36595e-06
-1.45311e-09
-1.43305e-06
-1.41352e-08
-1.43237e-06
-2.52907e-08
-1.36594e-06
-1.51411e-08
-6.31559e-07
-1.10911e-08
-2.42197e-07
-5.57112e-08
-1.19785e-08
7.68918e-09
-5.41762e-08
-8.12955e-09
1.25842e-08
-2.465e-07
2.26048e-08
-6.42364e-07
1.18488e-08
-1.3552e-06
-1.48277e-09
-1.41972e-06
-1.36918e-08
-1.42016e-06
-2.4826e-08
-1.3548e-06
-1.45472e-08
-6.41837e-07
-9.78236e-09
-2.46961e-07
-5.54683e-08
-1.00249e-08
8.22595e-09
-5.42742e-08
-8.12816e-09
1.33106e-08
-2.51584e-07
2.37446e-08
-6.52796e-07
1.16077e-08
-1.34306e-06
-3.9605e-10
-1.40772e-06
-1.42958e-08
-1.40626e-06
-2.58706e-08
-1.34323e-06
-1.52885e-08
-6.52419e-07
-1.02105e-08
-2.52038e-07
-5.54682e-08
-1.02101e-08
9.42959e-09
-5.41059e-08
-9.59853e-09
1.47857e-08
-2.56941e-07
2.56648e-08
-6.63675e-07
1.36927e-08
-1.33109e-06
-2.27094e-09
-1.39176e-06
-1.61005e-08
-1.39243e-06
-2.77437e-08
-1.33158e-06
-1.65319e-08
-6.63629e-07
-1.1596e-08
-2.56975e-07
-5.5264e-08
-1.1801e-08
1.3285e-08
-5.44283e-08
-1.29631e-08
1.72243e-08
-2.60883e-07
2.62128e-08
-6.72666e-07
1.44917e-08
-1.31937e-06
9.33403e-10
-1.3782e-06
-1.44551e-08
-1.37704e-06
-2.66513e-08
-1.31939e-06
-1.82532e-08
-6.72027e-07
-1.47481e-08
-2.60481e-07
-5.52361e-08
-1.47753e-08
1.7241e-08
-5.49273e-08
-1.67418e-08
1.91385e-08
-2.62777e-07
2.59656e-08
-6.79493e-07
1.34999e-08
-1.3069e-06
-1.52733e-09
-1.36317e-06
-1.46023e-08
-1.36397e-06
-2.68201e-08
-1.30717e-06
-1.9761e-08
-6.79084e-07
-1.81722e-08
-2.62069e-07
-5.53312e-08
-1.8077e-08
1.79782e-08
-5.39961e-08
-1.89094e-08
1.73613e-08
-2.62159e-07
2.34722e-08
-6.85603e-07
1.45937e-08
-1.29802e-06
4.65188e-10
-1.34904e-06
-1.50871e-08
-1.34841e-06
-2.39255e-08
-1.29833e-06
-1.77847e-08
-6.85225e-07
-1.84659e-08
-2.61388e-07
-5.40308e-08
-1.97684e-08
1.89828e-08
-5.13104e-08
-2.16685e-08
1.39147e-08
-2.57094e-07
1.76526e-08
-6.89343e-07
1.4097e-08
-1.29447e-06
-8.39011e-10
-1.33411e-06
-1.47934e-08
-1.33446e-06
-1.82641e-08
-1.29486e-06
-1.43957e-08
-6.89095e-07
-1.95491e-08
-2.56236e-07
-5.11077e-08
-2.24718e-08
1.90115e-08
-4.60906e-08
-2.42312e-08
9.97232e-09
-2.48052e-07
1.00088e-08
-6.89379e-07
1.49021e-08
-1.29936e-06
-6.66425e-11
-1.31914e-06
-1.50534e-08
-1.31947e-06
-1.03845e-08
-1.29953e-06
-1.04686e-08
-6.89012e-07
-1.94419e-08
-2.47264e-07
-4.57794e-08
-2.47713e-08
2.1046e-08
-4.10859e-08
-2.60508e-08
1.28299e-08
-2.39833e-07
1.22424e-08
-6.88789e-07
1.40786e-08
-1.3012e-06
-3.17284e-10
-1.30474e-06
-1.4705e-08
-1.30509e-06
-1.28722e-08
-1.30136e-06
-1.32973e-08
-6.88587e-07
-2.15101e-08
-2.39051e-07
-4.0607e-08
-2.6682e-08
2.41289e-08
-3.76227e-08
-2.75919e-08
1.90596e-08
-2.34767e-07
2.37015e-08
-6.93433e-07
1.48236e-08
-1.29232e-06
-4.47474e-11
-1.28987e-06
-1.52328e-08
-1.2899e-06
-2.42899e-08
-1.2923e-06
-1.95075e-08
-6.93371e-07
-2.4599e-08
-2.33961e-07
-3.70228e-08
-2.81833e-08
2.5202e-08
-3.45029e-08
-2.83208e-08
2.06598e-08
-2.30221e-07
2.75963e-08
-7.00368e-07
1.38001e-08
-1.27852e-06
-3.27437e-10
-1.27575e-06
-1.42821e-08
-1.27594e-06
-2.79783e-08
-1.27861e-06
-2.09973e-08
-7.00352e-07
-2.5602e-08
-2.29356e-07
-3.37224e-08
-2.89039e-08
2.57772e-08
-3.11687e-08
-2.91117e-08
2.13289e-08
-2.25776e-07
2.83595e-08
-7.07399e-07
1.56022e-08
-1.26577e-06
-1.90743e-10
-1.25995e-06
-1.59571e-08
-1.26018e-06
-2.86904e-08
-1.26587e-06
-2.16464e-08
-7.07396e-07
-2.61296e-08
-2.24873e-07
-3.03246e-08
-2.95285e-08
2.68007e-08
-2.76651e-08
-3.0305e-08
2.18697e-08
-2.2085e-07
2.77308e-08
-7.13262e-07
1.44053e-08
-1.25244e-06
-5.87382e-11
-1.24549e-06
-1.47479e-08
-1.24549e-06
-2.80431e-08
-1.25258e-06
-2.221e-08
-7.1323e-07
-2.70156e-08
-2.20068e-07
-2.68125e-08
-3.05282e-08
2.8221e-08
-2.4142e-08
-3.17449e-08
2.35833e-08
-2.16211e-07
2.86066e-08
-7.18285e-07
1.49402e-08
-1.23878e-06
-2.9277e-10
-1.23026e-06
-1.5401e-08
-1.23038e-06
-2.90661e-08
-1.23891e-06
-2.39576e-08
-7.1834e-07
-2.86744e-08
-2.15353e-07
-2.33051e-08
-3.21814e-08
3.01575e-08
-2.07965e-08
-3.35038e-08
2.53881e-08
-2.1144e-07
2.96484e-08
-7.22545e-07
1.56725e-08
-1.2248e-06
-4.00419e-11
-1.21454e-06
-1.60542e-08
-1.21436e-06
-3.00517e-08
-1.22492e-06
-2.57552e-08
-7.22636e-07
-3.05256e-08
-2.10584e-07
-2.00502e-08
-3.37809e-08
3.24653e-08
-1.7677e-08
-3.55849e-08
2.73492e-08
-2.06327e-07
3.01457e-08
-7.25343e-07
1.55593e-08
-1.21021e-06
-3.53522e-10
-1.19863e-06
-1.59569e-08
-1.19876e-06
-3.05242e-08
-1.21035e-06
-2.78852e-08
-7.25276e-07
-3.28309e-08
-2.0564e-07
-1.7027e-08
-3.58556e-08
3.40511e-08
-1.45953e-08
-3.71326e-08
2.86939e-08
-2.00973e-07
3.0209e-08
-7.2686e-07
1.57481e-08
-1.19575e-06
-2.04329e-10
-1.18268e-06
-1.60563e-08
-1.18291e-06
-3.05306e-08
-1.19588e-06
-2.90209e-08
-7.26786e-07
-3.42837e-08
-2.00376e-07
-1.40393e-08
-3.7271e-08
3.58158e-08
-1.17434e-08
-3.86681e-08
3.06774e-08
-1.95833e-07
3.15241e-08
-7.27706e-07
1.6106e-08
-1.18034e-06
-4.32097e-11
-1.16653e-06
-1.63345e-08
-1.16662e-06
-3.17682e-08
-1.18044e-06
-3.09324e-08
-7.27624e-07
-3.60965e-08
-1.95212e-07
-1.12034e-08
-3.89324e-08
3.68802e-08
-8.97169e-09
-3.96528e-08
3.17367e-08
-1.90692e-07
3.21967e-08
-7.28166e-07
1.69951e-08
-1.16513e-06
-7.52053e-11
-1.14946e-06
-1.71829e-08
-1.14951e-06
-3.23998e-08
-1.16522e-06
-3.20521e-08
-7.27971e-07
-3.72905e-08
-1.89975e-07
-8.44905e-09
-4.00471e-08
3.74834e-08
-6.15112e-09
-4.03046e-08
3.20591e-08
-1.8527e-07
3.20233e-08
-7.28131e-07
1.63026e-08
-1.14941e-06
-1.19263e-10
-1.13304e-06
-1.64985e-08
-1.13313e-06
-3.22331e-08
-1.14949e-06
-3.22383e-08
-7.27965e-07
-3.76186e-08
-1.84595e-07
-5.47635e-09
-4.05919e-08
3.8994e-08
-3.38799e-09
-4.1757e-08
3.36694e-08
-1.79944e-07
3.38659e-08
-7.28327e-07
1.79155e-08
-1.13346e-06
5.55785e-11
-1.11518e-06
-1.80387e-08
-1.11504e-06
-3.40198e-08
-1.13351e-06
-3.37269e-08
-7.28259e-07
-3.90241e-08
-1.79297e-07
-2.69643e-09
-4.18041e-08
3.93835e-08
-5.32591e-10
-4.22389e-08
3.3596e-08
-1.74158e-07
3.31795e-08
-7.2791e-07
1.67342e-08
-1.11702e-06
-1.58147e-10
-1.09828e-06
-1.68279e-08
-1.09837e-06
-3.32714e-08
-1.11707e-06
-3.38592e-08
-7.27672e-07
-3.96285e-08
-1.73529e-07
4.42961e-11
-4.23717e-08
4.08029e-08
2.21492e-09
-4.35509e-08
3.50579e-08
-1.68416e-07
3.48364e-08
-7.2769e-07
1.80305e-08
-1.10021e-06
8.33924e-11
-1.08034e-06
-1.81133e-08
-1.08017e-06
-3.49726e-08
-1.10021e-06
-3.51878e-08
-7.27455e-07
-4.06716e-08
-1.68046e-07
2.85146e-09
-4.34804e-08
4.15487e-08
4.99024e-09
-4.43247e-08
3.57053e-08
-1.62571e-07
3.44413e-08
-7.26425e-07
1.73807e-08
-1.08315e-06
-1.23381e-10
-1.06283e-06
-1.74467e-08
-1.06285e-06
-3.45263e-08
-1.08313e-06
-3.58369e-08
-7.26145e-07
-4.17483e-08
-1.62136e-07
5.58844e-09
-4.44847e-08
4.34111e-08
7.42207e-09
-4.5843e-08
3.76033e-08
-1.56762e-07
3.58058e-08
-7.24628e-07
1.82237e-08
-1.06557e-06
-1.15646e-11
-1.0446e-06
-1.83632e-08
-1.0445e-06
-3.59467e-08
-1.06554e-06
-3.77269e-08
-7.24367e-07
-4.34875e-08
-1.56377e-07
8.09735e-09
-4.59963e-08
4.41801e-08
1.00329e-08
-4.67899e-08
3.86486e-08
-1.51227e-07
3.60011e-08
-7.2198e-07
1.81465e-08
-1.04771e-06
-2.03472e-10
-1.02625e-06
-1.84689e-08
-1.02623e-06
-3.63837e-08
-1.04763e-06
-3.91173e-08
-7.21634e-07
-4.47794e-08
-1.50716e-07
1.05252e-08
-4.72076e-08
4.63082e-08
1.23774e-08
-4.86518e-08
4.0442e-08
-1.4536e-07
3.64594e-08
-7.17996e-07
1.82302e-08
-1.02948e-06
-2.49578e-10
-1.00777e-06
-1.87673e-08
-1.00771e-06
-3.69792e-08
-1.02942e-06
-4.07479e-08
-7.17864e-07
-4.65339e-08
-1.44929e-07
1.27535e-08
-4.87614e-08
4.81898e-08
1.43566e-08
-5.01687e-08
4.25063e-08
-1.39677e-07
3.76412e-08
-7.13131e-07
1.9054e-08
-1.0109e-06
-2.60724e-11
-9.88687e-07
-1.92203e-08
-9.88518e-07
-3.7846e-08
-1.01079e-06
-4.2522e-08
-7.13189e-07
-4.81374e-08
-1.39313e-07
1.47214e-08
-5.01051e-08
4.96229e-08
1.61492e-08
-5.14153e-08
4.41797e-08
-1.34232e-07
3.90405e-08
-7.07991e-07
2.00504e-08
-9.91907e-07
3.589e-10
-9.68996e-07
-1.92107e-08
-9.68948e-07
-3.82166e-08
-9.91785e-07
-4.37667e-08
-7.0764e-07
-4.9423e-08
-1.33658e-07
1.66195e-08
-5.13224e-08
5.06772e-08
1.7879e-08
-5.24067e-08
4.51535e-08
-1.28707e-07
3.96733e-08
-7.0251e-07
2.03849e-08
-9.72618e-07
3.00936e-10
-9.48912e-07
-1.96461e-08
-9.49001e-07
-3.89366e-08
-9.72494e-07
-4.48167e-08
-7.01759e-07
-5.05699e-08
-1.27904e-07
1.84693e-08
-5.24203e-08
5.17906e-08
1.95225e-08
-5.34338e-08
4.61661e-08
-1.23082e-07
3.99761e-08
-6.9632e-07
2.01681e-08
-9.5281e-07
-2.56067e-10
-9.28488e-07
-2.09944e-08
-9.28263e-07
-4.07844e-08
-9.52704e-07
-4.65788e-08
-6.95964e-07
-5.20455e-08
-1.22437e-07
2.00059e-08
-5.35815e-08
5.2731e-08
2.12569e-08
-5.44651e-08
4.71836e-08
-1.17534e-07
4.08763e-08
-6.90013e-07
2.06691e-08
-9.32603e-07
-5.56777e-10
-9.07262e-07
-2.18923e-08
-9.06927e-07
-4.20945e-08
-9.32502e-07
-4.77829e-08
-6.90277e-07
-5.29828e-08
-1.17238e-07
2.16393e-08
-5.46166e-08
5.43896e-08
2.27959e-08
-5.59286e-08
4.86757e-08
-1.1182e-07
4.18595e-08
-6.83196e-07
2.09381e-08
-9.11681e-07
-3.13432e-11
-8.86293e-07
-2.08432e-08
-8.86115e-07
-4.17569e-08
-9.11588e-07
-4.85101e-08
-6.83523e-07
-5.42171e-08
-1.11533e-07
2.32367e-08
-5.58161e-08
5.63056e-08
2.40301e-08
-5.75398e-08
5.07811e-08
-1.06295e-07
4.36238e-08
-6.76039e-07
2.18307e-08
-8.89888e-07
3.91826e-10
-8.64854e-07
-2.10234e-08
-8.647e-07
-4.2776e-08
-8.89835e-07
-5.01715e-08
-6.76127e-07
-5.58539e-08
-1.05852e-07
2.45716e-08
-5.71903e-08
5.80892e-08
2.50366e-08
-5.90956e-08
5.28121e-08
-1.01018e-07
4.46955e-08
-6.67922e-07
2.22676e-08
-8.6746e-07
2.30601e-10
-8.42817e-07
-2.16683e-08
-8.42801e-07
-4.40257e-08
-8.67478e-07
-5.20954e-08
-6.68059e-07
-5.74621e-08
-1.00486e-07
2.56959e-08
-5.85875e-08
6.01161e-08
2.56153e-08
-6.06947e-08
5.53303e-08
-9.62316e-08
4.60053e-08
-6.58597e-07
2.32198e-08
-8.44675e-07
5.18284e-10
-8.20115e-07
-2.23028e-08
-8.1998e-07
-4.50724e-08
-8.44708e-07
-5.44476e-08
-6.58686e-07
-5.93657e-08
-9.55685e-08
2.63868e-08
-6.00575e-08
6.23157e-08
2.5632e-08
-6.23324e-08
5.79708e-08
-9.18873e-08
4.73427e-08
-6.47969e-07
2.36882e-08
-8.2102e-07
4.40443e-10
-7.96867e-07
-2.25157e-08
-7.97024e-07
-4.60628e-08
-8.21161e-07
-5.69227e-08
-6.47827e-07
-6.14019e-08
-9.10909e-08
2.65388e-08
-6.15542e-08
6.44383e-08
2.51394e-08
-6.39459e-08
6.04122e-08
-8.78623e-08
4.86888e-08
-6.36246e-07
2.41951e-08
-7.96527e-07
3.59442e-10
-7.73032e-07
-2.34477e-08
-7.73217e-07
-4.78186e-08
-7.9679e-07
-5.96632e-08
-6.35982e-07
-6.38071e-08
-8.69478e-08
2.6117e-08
-6.33846e-08
6.59378e-08
2.42575e-08
-6.50562e-08
6.23111e-08
-8.42367e-08
4.925e-08
-6.23186e-07
2.41515e-08
-7.71429e-07
7.69675e-11
-7.48957e-07
-2.39508e-08
-7.49189e-07
-4.90012e-08
-7.7174e-07
-6.19563e-08
-6.23027e-07
-6.55443e-08
-8.33585e-08
2.52535e-08
-6.46799e-08
6.75877e-08
2.25706e-08
-6.59011e-08
6.51074e-08
-8.17582e-08
5.08092e-08
-6.08888e-07
2.47026e-08
-7.45322e-07
3.43574e-12
-7.24258e-07
-2.47312e-08
-7.24454e-07
-5.07985e-08
-7.45673e-07
-6.49619e-08
-6.08863e-07
-6.73283e-08
-8.09896e-08
2.35073e-08
-6.55814e-08
6.86807e-08
1.97665e-08
-6.58772e-08
6.82782e-08
-8.13582e-08
5.31645e-08
-5.93776e-07
2.5919e-08
-7.18077e-07
-9.05855e-11
-6.98249e-07
-2.59693e-08
-6.98576e-07
-5.32059e-08
-7.18436e-07
-6.82621e-08
-5.93806e-07
-6.8531e-08
-8.07196e-08
2.06439e-08
-6.56672e-08
6.86527e-08
1.52879e-08
-6.4175e-08
7.16803e-08
-8.43885e-08
5.52297e-08
-5.77326e-07
2.6972e-08
-6.8982e-07
1.83554e-10
-6.7146e-07
-2.6924e-08
-6.71468e-07
-5.52252e-08
-6.90135e-07
-7.17717e-08
-5.77259e-07
-6.85264e-08
-8.3965e-08
1.60241e-08
-6.39062e-08
6.53683e-08
8.36307e-09
-5.84444e-08
7.55597e-08
-9.45824e-08
5.70656e-08
-5.58833e-07
2.82779e-08
-6.61033e-07
2.90374e-11
-6.43211e-07
-2.80362e-08
-6.43403e-07
-5.70033e-08
-6.61168e-07
-7.57e-08
-5.58562e-07
-6.52535e-08
-9.44112e-08
8.84579e-09
-5.80747e-08
5.70196e-08
-1.41308e-09
-4.72443e-08
7.78019e-08
-1.15367e-07
5.94864e-08
-5.40518e-07
2.8929e-08
-6.30476e-07
2.79937e-10
-6.14562e-07
-2.86186e-08
-6.14504e-07
-5.94305e-08
-6.30356e-07
-7.79924e-08
-5.4e-07
-5.70849e-08
-1.15318e-07
-1.2524e-09
-4.69862e-08
4.3932e-08
-7.2562e-09
-3.80896e-08
7.02357e-08
-1.41672e-07
6.30676e-08
-5.3335e-07
2.96742e-08
-5.97082e-07
1.91811e-10
-5.8508e-07
-2.94464e-08
-5.84866e-07
-6.28384e-08
-5.96964e-07
-7.03525e-08
-5.32485e-07
-4.39376e-08
-1.41732e-07
-7.19672e-09
-3.79929e-08
2.07269e-08
3.56619e-09
-3.15498e-08
4.13374e-08
-1.62282e-07
6.40612e-08
-5.56074e-07
3.0224e-08
-5.63245e-07
-2.21163e-10
-5.54635e-07
-3.04551e-08
-5.54632e-07
-6.42001e-08
-5.63219e-07
-4.10651e-08
-5.5562e-07
-2.03661e-08
-1.62431e-07
3.5359e-09
-3.10986e-08
5.67211e-08
7.18161e-09
-6.03365e-08
8.23735e-08
-1.87933e-07
6.44797e-08
-5.3818e-07
3.14108e-08
-5.30176e-07
-1.62566e-10
-5.23061e-07
-3.17943e-08
-5.23001e-07
-6.44276e-08
-5.30586e-07
-8.25852e-08
-5.37462e-07
-5.66622e-08
-1.88354e-07
6.96148e-09
-6.00879e-08
8.93804e-08
3.85672e-09
-8.60549e-08
1.24047e-07
-2.22597e-07
7.40472e-08
-4.8818e-07
3.41864e-08
-4.90315e-07
7.14991e-11
-4.88946e-07
-3.4268e-08
-4.88661e-07
-7.40587e-08
-4.90795e-07
-1.23871e-07
-4.87649e-07
-8.94176e-08
-2.22808e-07
3.63449e-09
-8.60912e-08
1.2261e-07
-1.01534e-08
-1.08599e-07
1.24727e-07
-2.24714e-07
7.55305e-08
-4.38983e-07
3.62352e-08
-4.5102e-07
-3.93122e-10
-4.52318e-07
-3.5996e-08
-4.53058e-07
-7.58741e-08
-4.50917e-07
-1.24509e-07
-4.39015e-07
-1.2298e-07
-2.24336e-07
-1.07018e-08
-1.08646e-07
1.30821e-07
-3.9828e-08
-1.01146e-07
1.4043e-07
-2.34325e-07
8.92049e-08
-3.87758e-07
4.27558e-08
-4.04571e-07
-8.04661e-10
-4.08758e-07
-4.5013e-08
-4.0885e-07
-9.05536e-08
-4.05376e-07
-1.41195e-07
-3.88373e-07
-1.31503e-07
-2.34029e-07
-4.11611e-08
-1.01045e-07
7.0561e-08
-7.2799e-08
-3.75906e-08
1.3533e-07
-2.99097e-07
9.15817e-08
-3.4401e-07
4.59789e-08
-3.58968e-07
1.29308e-09
-3.64072e-07
-4.32363e-08
-3.64321e-07
-8.99619e-08
-3.58651e-07
-1.34288e-07
-3.44047e-07