/*--------------------------------*- C++ -*----------------------------------*\
  =========                 |
  \\      /  F ield         | OpenFOAM: The Open Source CFD Toolbox
   \\    /   O peration     | Website:  https://openfoam.org
    \\  /    A nd           | Version:  8
     \\/     M anipulation  |
\*---------------------------------------------------------------------------*/
FoamFile
{
    version     2.0;
    format      ascii;
    class       volVectorField;
    location    "0.25";
    object      U;
}
// * * * * * * * * * * * * * * * * * * * * * * * * * * * * * * * * * * * * * //

dimensions      [0 1 -1 0 0 0 0];

internalField   nonuniform List<vector> 
9150
(
(0.00499374 -0.0773445 0)
(0.0130167 -0.0972339 0)
(0.0107755 -0.103816 0)
(0.00896557 -0.107497 0)
(0.00230003 -0.109157 0)
(-0.00245589 -0.109069 0)
(-0.00920679 -0.107244 0)
(-0.0108116 -0.103764 0)
(-0.0130308 -0.0972066 0)
(-0.0049821 -0.0773166 0)
(0.00617008 -0.0920528 0)
(0.00887732 -0.100512 0)
(0.00725416 -0.102132 0)
(0.004344 -0.104682 0)
(0.00194754 -0.105295 0)
(-0.00193412 -0.105327 0)
(-0.00434541 -0.104815 0)
(-0.00724572 -0.102159 0)
(-0.00889437 -0.100508 0)
(-0.00617249 -0.0920461 0)
(0.00192014 -0.0954108 0)
(0.00466983 -0.098983 0)
(0.00377516 -0.100815 0)
(0.00343991 -0.101608 0)
(0.000717025 -0.102374 0)
(-0.00069375 -0.102374 0)
(-0.00344422 -0.101605 0)
(-0.00378743 -0.100802 0)
(-0.00467412 -0.098979 0)
(-0.0019215 -0.0954073 0)
(0.00187445 -0.0984745 0)
(0.00255298 -0.10044 0)
(0.00224567 -0.100262 0)
(0.00131024 -0.10084 0)
(0.00052801 -0.100854 0)
(-0.00052647 -0.100852 0)
(-0.00130913 -0.100845 0)
(-0.00224846 -0.100268 0)
(-0.00255629 -0.100439 0)
(-0.00187558 -0.0984731 0)
(0.000224919 -0.0995252 0)
(0.0007559 -0.0995613 0)
(0.000504623 -0.0999335 0)
(0.000688731 -0.0998519 0)
(0.000182723 -0.100091 0)
(-0.000177027 -0.100093 0)
(-0.000687795 -0.0998535 0)
(-0.000506116 -0.0999313 0)
(-0.000756729 -0.0995608 0)
(-0.00022524 -0.0995251 0)
(0.0783432 -0.195882 9.17906e-27)
(0.0506373 -0.186038 0)
(0.0330722 -0.178055 0)
(0.0176804 -0.17493 0)
(0.00410745 -0.175966 0)
(-0.00507931 -0.175522 0)
(-0.0182168 -0.174227 0)
(-0.0331153 -0.17826 0)
(-0.050684 -0.186042 0)
(-0.0783546 -0.195884 -9.18077e-27)
(0.0584095 -0.146142 2.73202e-27)
(0.0472183 -0.146422 0)
(0.0269248 -0.155046 0)
(0.0194995 -0.155941 0)
(0.00439822 -0.155807 0)
(-0.00393076 -0.156256 0)
(-0.0190754 -0.15716 0)
(-0.0268252 -0.155185 0)
(-0.0471637 -0.146403 0)
(-0.0584108 -0.146172 -2.78532e-27)
(0.0479831 -0.121825 1.28663e-27)
(0.0421285 -0.131774 0)
(0.0299541 -0.135566 0)
(0.0185958 -0.138906 0)
(0.00618968 -0.140823 0)
(-0.00540579 -0.140695 0)
(-0.01835 -0.138143 0)
(-0.0299415 -0.135339 0)
(-0.0421747 -0.131784 0)
(-0.0480012 -0.121854 -1.24833e-27)
(0.0375577 -0.0997099 1.90105e-27)
(0.0378348 -0.110455 0)
(0.0220366 -0.119956 0)
(0.017425 -0.125098 0)
(0.00355683 -0.125243 0)
(-0.00478497 -0.124993 0)
(-0.0179406 -0.124979 0)
(-0.0221815 -0.120124 0)
(-0.0378734 -0.110521 0)
(-0.037575 -0.0997416 -1.91019e-27)
(0.0255941 -0.080816 -7.6701e-27)
(0.0287883 -0.100665 -9.00479e-27)
(0.020187 -0.107958 -2.32624e-27)
(0.0112346 -0.113868 -2.05796e-27)
(0.00476212 -0.116409 -5.75746e-29)
(-0.00411805 -0.116693 -6.30503e-29)
(-0.0107333 -0.114249 -2.07703e-27)
(-0.0200215 -0.107868 -2.32715e-27)
(-0.0287104 -0.100654 -8.9794e-27)
(-0.0255806 -0.0808211 -7.66786e-27)
(0.0165416 -0.146044 0)
(0.0123881 -0.204543 0)
(0.0214069 -0.21584 0)
(0.00672931 -0.222137 0)
(0.00760195 -0.224418 0)
(-0.00785371 -0.224628 0)
(-0.00658207 -0.222175 0)
(-0.0212693 -0.215898 0)
(-0.0122315 -0.204639 0)
(-0.0165244 -0.146073 0)
(0.0155413 -0.16752 0)
(0.00156139 -0.19917 0)
(0.0146488 -0.208296 0)
(0.000641485 -0.212623 0)
(0.00685483 -0.213617 0)
(-0.00671953 -0.21369 0)
(-0.000439287 -0.212684 0)
(-0.0145268 -0.208335 0)
(-0.00152018 -0.199179 0)
(-0.0155035 -0.167466 0)
(0.0149274 -0.172529 0)
(-0.00355502 -0.201941 0)
(0.0114162 -0.207187 0)
(-0.00224381 -0.208714 0)
(0.00535236 -0.208997 0)
(-0.00527315 -0.209092 0)
(0.00216923 -0.208692 0)
(-0.011511 -0.207154 0)
(0.00351283 -0.201923 0)
(-0.0149918 -0.1725 0)
(0.0160544 -0.191031 0)
(-0.00635852 -0.20258 0)
(0.0103876 -0.209115 0)
(-0.00235291 -0.206708 0)
(0.00337954 -0.207341 0)
(-0.0036267 -0.207332 0)
(0.00222152 -0.206794 0)
(-0.0104366 -0.209119 0)
(0.00634057 -0.202661 0)
(-0.0160608 -0.191134 0)
(0.0314479 -0.217653 0)
(0.00738619 -0.204279 0)
(0.017265 -0.206284 0)
(0.0097688 -0.198132 0)
(0.00279273 -0.196006 0)
(-0.00213474 -0.196114 0)
(-0.00954844 -0.198138 0)
(-0.0171948 -0.206215 0)
(-0.00730447 -0.204246 0)
(-0.0314662 -0.217674 0)
(-1.33864 -1.02231 0)
(-1.34476 -1.0352 0)
(-1.24207 -1.10185 0)
(-0.752243 -1.11413 0)
(-0.285655 -1.38086 0)
(0.283224 -1.38263 0)
(0.74997 -1.11505 0)
(1.24046 -1.10294 0)
(1.34426 -1.035 0)
(1.3392 -1.02219 0)
(-1.35394 0.684963 0)
(-1.30586 0.331059 0)
(-0.9486 0.23808 0)
(-0.230083 -1.43155 0)
(-0.0583773 -1.72637 0)
(0.0570993 -1.72379 0)
(0.226519 -1.43016 0)
(0.938661 0.240173 0)
(1.30397 0.325322 0)
(1.35173 0.688718 0)
(-0.545808 -0.77066 0)
(-0.442937 -0.791538 0)
(-0.149042 -1.07454 0)
(-0.0516485 -1.86907 0)
(0.00989012 -1.9083 0)
(-0.0103689 -1.90808 0)
(0.0491065 -1.86945 0)
(0.144538 -1.07733 0)
(0.432185 -0.794326 0)
(0.533403 -0.775327 0)
(-0.171036 -0.47097 0)
(-0.0469484 -0.703725 0)
(0.0389468 -1.08166 0)
(0.00950746 -1.90098 0)
(0.00497942 -1.94477 0)
(-0.0037188 -1.9453 0)
(-0.00645818 -1.90017 0)
(-0.0358453 -1.06779 0)
(0.0393747 -0.690881 0)
(0.160744 -0.475632 0)
(-0.0198446 -0.64463 0)
(-0.00854186 -0.905448 0)
(0.00770058 -1.35553 0)
(0.000193245 -1.90432 0)
(0.00421547 -1.94205 0)
(-0.00537604 -1.94335 0)
(-0.00599725 -1.90862 0)
(-0.0201734 -1.34357 0)
(0.00041493 -0.886349 0)
(0.0133107 -0.643822 0)
(0.0823722 -0.545665 0)
(0.0536712 -0.857686 0)
(0.0216319 -1.30588 0)
(-0.0011746 -1.8842 0)
(0.0047854 -1.93441 0)
(-0.00592338 -1.93375 0)
(-0.00382087 -1.8837 0)
(-0.0257893 -1.2854 0)
(-0.0597571 -0.832568 0)
(-0.0915562 -0.543643 0)
(0.0835035 -0.49334 0)
(0.0409015 -0.801171 0)
(0.0236539 -1.25626 0)
(0.00443897 -1.86761 0)
(0.00607963 -1.92596 0)
(-0.00560563 -1.92592 0)
(-6.17656e-05 -1.86697 0)
(-0.0250791 -1.23512 0)
(-0.0411061 -0.774589 0)
(-0.088354 -0.488325 0)
(0.0605059 -0.433306 0)
(0.0401573 -0.771846 0)
(0.0223473 -1.22629 0)
(-0.00533731 -1.85839 0)
(0.00520613 -1.91695 0)
(-0.0081239 -1.91754 0)
(-0.00501769 -1.85572 0)
(-0.0261947 -1.20266 0)
(-0.0426004 -0.741717 0)
(-0.0634722 -0.42303 0)
(0.0506138 -0.413742 0)
(0.0346708 -0.745021 0)
(0.0209537 -1.18022 0)
(0.00244252 -1.84241 0)
(0.00668434 -1.911 0)
(-0.00619595 -1.91065 0)
(-0.0018171 -1.84375 0)
(-0.0208259 -1.16292 0)
(-0.0343452 -0.72137 0)
(-0.0497459 -0.403352 0)
(0.0457518 -0.396573 0)
(0.0335823 -0.723963 0)
(0.0239004 -1.15757 0)
(0.00497427 -1.82533 0)
(0.00692406 -1.90362 0)
(-0.00646666 -1.90363 0)
(-0.00535668 -1.82618 0)
(-0.0231117 -1.14237 0)
(-0.0326436 -0.701998 0)
(-0.0448175 -0.385833 0)
(0.0514258 -0.382675 0)
(0.0422181 -0.7003 0)
(0.0325512 -1.12405 0)
(0.0166171 -1.79742 0)
(0.00772902 -1.88728 0)
(-0.00754033 -1.88742 0)
(-0.0163676 -1.79747 0)
(-0.0341218 -1.10579 0)
(-0.0423319 -0.673873 0)
(-0.0515208 -0.370617 0)
(0.0501532 -0.380139 0)
(0.0427443 -0.69221 0)
(0.0359989 -1.10888 0)
(0.0240902 -1.77099 0)
(0.00580223 -1.8562 0)
(-0.00644512 -1.85661 0)
(-0.0266676 -1.76825 0)
(-0.039271 -1.09086 0)
(-0.0423759 -0.665707 0)
(-0.0485392 -0.36853 0)
(0.0551991 -0.366208 0)
(0.0446138 -0.666941 0)
(0.0342122 -1.07183 0)
(0.0178662 -1.74695 0)
(0.008325 -1.82099 0)
(-0.00710041 -1.8204 0)
(-0.0178641 -1.74608 0)
(-0.0345991 -1.06181 0)
(-0.0418003 -0.64765 0)
(-0.0522455 -0.359536 0)
(0.0507324 -0.359407 0)
(0.0368406 -0.639053 0)
(0.0264247 -1.04413 0)
(0.0108971 -1.73495 0)
(0.00656592 -1.79589 0)
(-0.00631259 -1.79611 0)
(-0.0111301 -1.73341 0)
(-0.0252962 -1.03429 0)
(-0.0323379 -0.620692 0)
(-0.0459268 -0.354873 0)
(0.0416683 -0.339535 0)
(0.026147 -0.605997 0)
(0.0159411 -1.01513 0)
(0.00092995 -1.72977 0)
(0.0067938 -1.77873 0)
(-0.00611132 -1.77902 0)
(-0.00106195 -1.72829 0)
(-0.0155629 -1.00965 0)
(-0.0219832 -0.594344 0)
(-0.0357372 -0.334582 0)
(0.0342846 -0.321565 0)
(0.0204419 -0.584886 0)
(0.0020418 -0.990476 0)
(-0.00168306 -1.73578 0)
(0.00662845 -1.77073 0)
(-0.00569005 -1.7694 0)
(0.00269834 -1.73604 0)
(-0.00104283 -0.992002 0)
(-0.0133753 -0.580167 0)
(-0.0262466 -0.323114 0)
(0.0302202 -0.308266 0)
(0.0223891 -0.557882 0)
(0.0060148 -0.964994 0)
(0.0127172 -1.74824 0)
(0.00842386 -1.76478 0)
(-0.00311486 -1.76434 0)
(0.00958729 -1.74096 0)
(0.0115313 -0.966329 0)
(-0.0112395 -0.552357 0)
(-0.0216978 -0.303324 0)
(0.0302481 -0.288411 0)
(0.0247334 -0.541412 0)
(0.0109935 -0.957579 0)
(0.00753855 -1.74598 0)
(0.00632563 -1.75979 0)
(-0.0051399 -1.76155 0)
(0.00172368 -1.74237 0)
(0.00234039 -0.954289 0)
(-0.0173919 -0.535562 0)
(-0.0234227 -0.284005 0)
(0.0311881 -0.279216 0)
(0.0231163 -0.525806 0)
(0.00598729 -0.936959 0)
(-0.00204226 -1.73848 0)
(0.00438606 -1.75536 0)
(-0.00647087 -1.75625 0)
(-0.00418263 -1.73466 0)
(-0.00826056 -0.933407 0)
(-0.0222589 -0.520018 0)
(-0.028092 -0.272896 0)
(0.0300421 -0.26419 0)
(0.0239098 -0.498997 0)
(0.00812826 -0.913272 0)
(0.00146916 -1.73363 0)
(0.00436041 -1.75031 0)
(-0.0063933 -1.74979 0)
(-0.00146666 -1.73036 0)
(-0.00730104 -0.913128 0)
(-0.0235491 -0.498027 0)
(-0.0286231 -0.262227 0)
(0.030995 -0.246011 0)
(0.0247008 -0.480668 0)
(0.00871992 -0.89324 0)
(0.0025044 -1.73239 0)
(0.00277009 -1.74135 0)
(-0.00825245 -1.74529 0)
(-0.00664747 -1.72195 0)
(-0.0123198 -0.893362 0)
(-0.0278223 -0.479105 0)
(-0.0336556 -0.245 0)
(0.0324233 -0.231896 0)
(0.0201547 -0.451914 0)
(-0.00350902 -0.860655 0)
(-0.0223465 -1.71392 0)
(-0.00370142 -1.73718 0)
(-0.0135741 -1.73315 0)
(-0.032923 -1.72481 0)
(-0.0263292 -0.880282 0)
(-0.0306386 -0.465335 0)
(-0.0363049 -0.238831 0)
(0.0371421 -0.21479 0)
(0.0325031 -0.429606 0)
(0.0181679 -0.841865 0)
(0.0264312 -1.71314 0)
(0.0102429 -1.7299 0)
(0.000449406 -1.72346 0)
(0.0101282 -1.71142 0)
(-0.00454626 -0.860809 0)
(-0.0271812 -0.441774 0)
(-0.0351094 -0.221013 0)
(0.0431611 -0.2024 0)
(0.0387086 -0.417291 0)
(0.0251524 -0.824157 0)
(0.0185029 -1.70367 0)
(0.00941437 -1.71747 0)
(-0.00201671 -1.72003 0)
(0.00380122 -1.69236 0)
(-0.00691615 -0.835796 0)
(-0.0282627 -0.42505 0)
(-0.0369444 -0.207337 0)
(0.0462559 -0.19462 0)
(0.0383395 -0.394073 0)
(0.0279117 -0.800225 0)
(0.00439644 -1.67369 0)
(0.00552003 -1.71178 0)
(-0.00530795 -1.71334 0)
(-0.00276719 -1.66409 0)
(-0.0235164 -0.804227 0)
(-0.0335497 -0.395514 0)
(-0.0407036 -0.194537 0)
(0.0465783 -0.182045 0)
(0.0395714 -0.376514 0)
(0.0319078 -0.778057 0)
(0.00687402 -1.63747 0)
(0.00632693 -1.70371 0)
(-0.00517703 -1.70395 0)
(-0.0052436 -1.63537 0)
(-0.0292972 -0.78639 0)
(-0.0368122 -0.380198 0)
(-0.0430464 -0.178917 0)
(0.0466714 -0.167875 0)
(0.0392379 -0.359618 0)
(0.0303187 -0.750068 0)
(0.00754059 -1.61164 0)
(0.0061906 -1.68923 0)
(-0.00744783 -1.68913 0)
(-0.00993553 -1.61298 0)
(-0.0311151 -0.758477 0)
(-0.0372268 -0.366142 0)
(-0.0450091 -0.170278 0)
(0.0431485 -0.159888 0)
(0.0337797 -0.34386 0)
(0.0310577 -0.725388 0)
(0.0117818 -1.5852 0)
(0.00767731 -1.67035 0)
(-0.00684234 -1.67049 0)
(-0.0111833 -1.58709 0)
(-0.0308997 -0.736136 0)
(-0.033302 -0.348012 0)
(-0.0414044 -0.159935 0)
(0.0369291 -0.144875 0)
(0.0282427 -0.328084 0)
(0.0279883 -0.711532 0)
(0.0106264 -1.56806 0)
(0.0056881 -1.64875 0)
(-0.00766291 -1.64895 0)
(-0.0126635 -1.57189 0)
(-0.029331 -0.724933 0)
(-0.0289824 -0.338631 0)
(-0.0364802 -0.148489 0)
(0.0307628 -0.134325 0)
(0.0218994 -0.317969 0)
(0.021174 -0.697588 0)
(0.00585911 -1.55302 0)
(0.00593977 -1.62782 0)
(-0.00654496 -1.62792 0)
(-0.00815705 -1.55561 0)
(-0.0240792 -0.705483 0)
(-0.0237124 -0.324154 0)
(-0.0314298 -0.137838 0)
(0.0240278 -0.120476 0)
(0.014622 -0.296766 0)
(0.0100284 -0.672531 0)
(0.00128068 -1.54951 0)
(0.00641369 -1.61358 0)
(-0.00505181 -1.61334 0)
(-0.0042638 -1.55089 0)
(-0.0139766 -0.689339 0)
(-0.0151948 -0.311713 0)
(-0.0225282 -0.129535 0)
(0.0181274 -0.109108 0)
(0.00827152 -0.284166 0)
(-0.00292407 -0.661878 0)
(0.00416526 -1.56433 0)
(0.00714261 -1.60427 0)
(-0.00546585 -1.60026 0)
(0.00313781 -1.55926 0)
(0.00190228 -0.678647 0)
(-0.00581694 -0.29771 0)
(-0.0144496 -0.115641 0)
(0.020547 -0.0970563 0)
(0.0176024 -0.275113 0)
(0.0147495 -0.665999 0)
(0.0300472 -1.57887 0)
(0.0151674 -1.59711 0)
(0.00372287 -1.59657 0)
(0.0265686 -1.56473 0)
(0.0185632 -0.665604 0)
(-0.00290815 -0.282435 0)
(-0.0102797 -0.102871 0)
(0.0232823 -0.0924408 0)
(0.0228302 -0.270238 0)
(0.0218175 -0.662683 0)
(0.0117015 -1.57532 0)
(0.00719608 -1.58961 0)
(-0.00355823 -1.59381 0)
(0.000275797 -1.56712 0)
(-0.00965076 -0.654443 0)
(-0.0151752 -0.268621 0)
(-0.0170534 -0.091806 0)
(0.024835 -0.0880736 0)
(0.0236428 -0.266229 0)
(0.0276777 -0.656748 0)
(0.00760856 -1.54253 0)
(0.00596342 -1.58298 0)
(-0.00586593 -1.5837 0)
(-0.00596683 -1.5224 0)
(-0.0256559 -0.645014 0)
(-0.0224485 -0.26163 0)
(-0.0227429 -0.0870006 0)
(0.0238508 -0.0872491 0)
(0.0209788 -0.265237 0)
(0.0258715 -0.65207 0)
(0.00646957 -1.5097 0)
(0.00592107 -1.57181 0)
(-0.00500756 -1.57229 0)
(-0.00686471 -1.50105 0)
(-0.024502 -0.642719 0)
(-0.022327 -0.258025 0)
(-0.0261319 -0.0818064 0)
(0.02273 -0.0798938 0)
(0.0165257 -0.25666 0)
(0.0208045 -0.643978 0)
(0.00610114 -1.49253 0)
(0.00552896 -1.55651 0)
(-0.00763257 -1.56045 0)
(-0.00735206 -1.47904 0)
(-0.0214866 -0.631249 0)
(-0.0194989 -0.252628 0)
(-0.0253032 -0.0793741 0)
(0.0190224 -0.074236 0)
(0.0101852 -0.248671 0)
(0.00882212 -0.632986 0)
(-0.0187648 -1.47573 0)
(-0.00212301 -1.54484 0)
(-0.0138812 -1.54397 0)
(-0.0322206 -1.47935 0)
(-0.026376 -0.629969 0)
(-0.0202059 -0.246451 0)
(-0.025435 -0.0729978 0)
(0.0194754 -0.0678698 0)
(0.0139407 -0.239279 0)
(0.0191949 -0.62396 0)
(0.0117302 -1.46822 0)
(0.00741946 -1.53059 0)
(-0.00554557 -1.52706 0)
(-0.00297654 -1.47762 0)
(-0.0222735 -0.627386 0)
(-0.0174346 -0.244007 0)
(-0.0228904 -0.0707915 0)
(0.0205835 -0.0630129 0)
(0.0152562 -0.235538 0)
(0.0232416 -0.619131 0)
(0.00646444 -1.45012 0)
(0.00598146 -1.51631 0)
(-0.00607392 -1.51616 0)
(-0.00758231 -1.44755 0)
(-0.0231651 -0.620271 0)
(-0.0165217 -0.238104 0)
(-0.0223793 -0.0649384 0)
(0.0191322 -0.0606303 0)
(0.0135692 -0.233854 0)
(0.0228023 -0.613644 0)
(0.00559409 -1.43038 0)
(0.00611428 -1.50203 0)
(-0.00623832 -1.50238 0)
(-0.00656881 -1.4342 0)
(-0.0238169 -0.615105 0)
(-0.0144498 -0.236182 0)
(-0.0202336 -0.0635237 0)
(0.0163819 -0.0597898 0)
(0.0103203 -0.23323 0)
(0.0208809 -0.610744 0)
(0.00397779 -1.41886 0)
(0.00627644 -1.4899 0)
(-0.00614193 -1.48937 0)
(-0.00538893 -1.41623 0)
(-0.0218112 -0.609996 0)
(-0.0117879 -0.234307 0)
(-0.0178279 -0.0604087 0)
(0.0136797 -0.057362 0)
(0.00818901 -0.232692 0)
(0.0186496 -0.609406 0)
(0.00576381 -1.40517 0)
(0.00675283 -1.47658 0)
(-0.00601738 -1.47679 0)
(-0.00448251 -1.40512 0)
(-0.0189625 -0.608447 0)
(-0.00838708 -0.234254 0)
(-0.0142617 -0.0599521 0)
(0.0108354 -0.0571398 0)
(0.00565941 -0.23465 0)
(0.0166332 -0.61223 0)
(0.00582799 -1.39611 0)
(0.00614772 -1.46404 0)
(-0.0066046 -1.46413 0)
(-0.00630125 -1.39442 0)
(-0.0169089 -0.610878 0)
(-0.00595577 -0.234581 0)
(-0.011599 -0.0578933 0)
(0.00865316 -0.0558917 0)
(0.00283504 -0.235708 0)
(0.0154653 -0.616778 0)
(0.00452828 -1.38346 0)
(0.00631482 -1.45098 0)
(-0.00673216 -1.45115 0)
(-0.00655317 -1.38272 0)
(-0.0163682 -0.616287 0)
(-0.00372099 -0.236438 0)
(-0.00947997 -0.0569019 0)
(0.00656557 -0.0548799 0)
(0.000722093 -0.238666 0)
(0.014811 -0.626276 0)
(0.00515818 -1.37226 0)
(0.00579073 -1.43884 0)
(-0.00642848 -1.43867 0)
(-0.00722588 -1.3716 0)
(-0.016067 -0.625556 0)
(-0.00181442 -0.23945 0)
(-0.00764536 -0.0559884 0)
(0.00579255 -0.0544712 0)
(0.000351456 -0.244459 0)
(0.0148398 -0.639028 0)
(0.00528356 -1.36073 0)
(0.00604667 -1.42612 0)
(-0.00683414 -1.42605 0)
(-0.00693955 -1.3606 0)
(-0.0157546 -0.63792 0)
(-0.00140176 -0.244932 0)
(-0.00679157 -0.0557144 0)
(0.00596234 -0.0544683 0)
(0.000687724 -0.249287 0)
(0.0152442 -0.646932 0)
(0.00580732 -1.34927 0)
(0.00627414 -1.4135 0)
(-0.00617822 -1.41349 0)
(-0.0075686 -1.34918 0)
(-0.016421 -0.646673 0)
(-0.00158831 -0.249721 0)
(-0.00702438 -0.0557451 0)
(0.00663374 -0.0544239 0)
(0.00125199 -0.254497 0)
(0.0163445 -0.658326 0)
(0.00691733 -1.3373 0)
(0.00600499 -1.39956 0)
(-0.00722872 -1.39927 0)
(-0.00869584 -1.33761 0)
(-0.0171312 -0.658217 0)
(-0.00225613 -0.25481 0)
(-0.00776962 -0.0554264 0)
(0.007929 -0.0547213 0)
(0.00382296 -0.260232 0)
(0.0164016 -0.669718 0)
(0.00739873 -1.3254 0)
(0.00688072 -1.38469 0)
(-0.00598136 -1.38447 0)
(-0.00755673 -1.32556 0)
(-0.0170249 -0.669288 0)
(-0.00420862 -0.259995 0)
(-0.0089406 -0.0558956 0)
(0.00933573 -0.0547627 0)
(0.00639693 -0.261816 0)
(0.01593 -0.675299 0)
(0.00731374 -1.31288 0)
(0.00603524 -1.37063 0)
(-0.00712561 -1.3708 0)
(-0.00794963 -1.313 0)
(-0.0160899 -0.674682 0)
(-0.00676356 -0.26109 0)
(-0.00996192 -0.0551424 0)
(0.00999043 -0.0548373 0)
(0.00690231 -0.263118 0)
(0.0134128 -0.684356 0)
(0.00758003 -1.30104 0)
(0.00687739 -1.35594 0)
(-0.00627966 -1.35599 0)
(-0.00824597 -1.30143 0)
(-0.0136903 -0.684053 0)
(-0.00704461 -0.262481 0)
(-0.0103251 -0.0552057 0)
(0.0113773 -0.0536829 0)
(0.00710413 -0.261578 0)
(0.00907928 -0.688142 0)
(0.0070495 -1.29616 0)
(0.00641454 -1.3413 0)
(-0.00688751 -1.34093 0)
(-0.0073585 -1.29644 0)
(-0.0094133 -0.687856 0)
(-0.00729821 -0.260717 0)
(-0.0116947 -0.0534198 0)
(0.0130411 -0.0485074 0)
(0.00471787 -0.252373 0)
(0.00582835 -0.689134 0)
(0.00594708 -1.2967 0)
(0.00688118 -1.32647 0)
(-0.00676001 -1.32654 0)
(-0.00630742 -1.29686 0)
(-0.00602802 -0.68883 0)
(-0.0049135 -0.25165 0)
(-0.0132696 -0.0484265 0)
(0.0142823 -0.0429988 0)
(0.00478768 -0.242926 0)
(0.00754517 -0.688514 0)
(0.00631722 -1.30089 0)
(0.00666322 -1.31152 0)
(-0.00673933 -1.31156 0)
(-0.00666441 -1.30114 0)
(-0.00806334 -0.688194 0)
(-0.00496078 -0.242141 0)
(-0.0145734 -0.0425137 0)
(0.0153218 -0.0391055 0)
(0.00635724 -0.236766 0)
(0.0150326 -0.690111 0)
(0.00765838 -1.29468 0)
(0.00673358 -1.29683 0)
(-0.00663124 -1.29692 0)
(-0.00790521 -1.29476 0)
(-0.0154072 -0.690026 0)
(-0.006582 -0.236002 0)
(-0.0155931 -0.0386141 0)
(0.0155552 -0.0361282 0)
(0.00725978 -0.232463 0)
(0.0168114 -0.69702 0)
(0.00749818 -1.28319 0)
(0.0066167 -1.28273 0)
(-0.00673643 -1.2827 0)
(-0.00774421 -1.28331 0)
(-0.0170599 -0.69694 0)
(-0.00749735 -0.231505 0)
(-0.0157605 -0.0354547 0)
(0.0157072 -0.0328251 0)
(0.0079562 -0.227804 0)
(0.0166077 -0.703904 0)
(0.00863547 -1.27102 0)
(0.00692367 -1.26787 0)
(-0.00693104 -1.26786 0)
(-0.0089321 -1.27111 0)
(-0.0168894 -0.703873 0)
(-0.00812288 -0.22685 0)
(-0.0158791 -0.0317785 0)
(0.016124 -0.0294537 0)
(0.00852685 -0.22366 0)
(0.0165257 -0.710755 0)
(0.00815593 -1.25859 0)
(0.00672201 -1.25203 0)
(-0.00666007 -1.25205 0)
(-0.00812786 -1.25874 0)
(-0.0169846 -0.710798 0)
(-0.0085693 -0.223085 0)
(-0.0162782 -0.0289714 0)
(0.016783 -0.0257974 0)
(0.00930288 -0.21807 0)
(0.0172641 -0.715513 0)
(0.00855836 -1.24467 0)
(0.00680295 -1.23787 0)
(-0.00691224 -1.23821 0)
(-0.00882756 -1.24482 0)
(-0.017529 -0.71555 0)
(-0.00955744 -0.216949 0)
(-0.0170109 -0.0246029 0)
(0.017576 -0.0226292 0)
(0.0104928 -0.214392 0)
(0.0179315 -0.721362 0)
(0.00892673 -1.23176 0)
(0.00692067 -1.22218 0)
(-0.00684618 -1.22205 0)
(-0.00918144 -1.23187 0)
(-0.0182463 -0.721398 0)
(-0.0106845 -0.213867 0)
(-0.0177539 -0.022063 0)
(0.0185756 -0.0190934 0)
(0.0118489 -0.208643 0)
(0.0183847 -0.723965 0)
(0.00916585 -1.21666 0)
(0.00692101 -1.20642 0)
(-0.00709549 -1.2066 0)
(-0.00921499 -1.21679 0)
(-0.0188081 -0.724002 0)
(-0.0120793 -0.207405 0)
(-0.0187372 -0.0182375 0)
(0.0193069 -0.0162257 0)
(0.0128468 -0.20395 0)
(0.0186357 -0.726638 0)
(0.00909186 -1.20288 0)
(0.00685499 -1.19064 0)
(-0.00691156 -1.1907 0)
(-0.00938025 -1.20302 0)
(-0.0188235 -0.726622 0)
(-0.0130297 -0.20379 0)
(-0.0193739 -0.0157235 0)
(0.0199795 -0.0131175 0)
(0.0141126 -0.198191 0)
(0.0192586 -0.727333 0)
(0.00967092 -1.18768 0)
(0.0072851 -1.17464 0)
(-0.00723464 -1.17488 0)
(-0.00981201 -1.18779 0)
(-0.0195094 -0.727189 0)
(-0.0142102 -0.197397 0)
(-0.020126 -0.0126117 0)
(0.0204354 -0.0101793 0)
(0.0147174 -0.193086 0)
(0.0196291 -0.727868 0)
(0.0103045 -1.17265 0)
(0.00707568 -1.15763 0)
(-0.00706828 -1.15738 0)
(-0.0103286 -1.17272 0)
(-0.0198616 -0.727645 0)
(-0.0149079 -0.19225 0)
(-0.0206633 -0.00948393 0)
(0.0207237 -0.00782128 0)
(0.014914 -0.18845 0)
(0.0197814 -0.728325 0)
(0.00984872 -1.15706 0)
(0.00725464 -1.14095 0)
(-0.00728317 -1.14146 0)
(-0.00990457 -1.15719 0)
(-0.0199588 -0.728203 0)
(-0.015004 -0.18796 0)
(-0.0208239 -0.00733964 0)
(0.0212523 -0.00438555 0)
(0.0162226 -0.181887 0)
(0.0203336 -0.728085 0)
(0.0109202 -1.14151 0)
(0.0073657 -1.12399 0)
(-0.00726607 -1.12385 0)
(-0.0110734 -1.14154 0)
(-0.0204112 -0.727982 0)
(-0.0162556 -0.18116 0)
(-0.021255 -0.00369885 0)
(0.0213654 -0.00226346 0)
(0.016471 -0.177918 0)
(0.0200764 -0.728343 0)
(0.0103418 -1.12503 0)
(0.00721146 -1.10632 0)
(-0.00728176 -1.1063 0)
(-0.0102709 -1.12507 0)
(-0.0202539 -0.728203 0)
(-0.0166565 -0.177239 0)
(-0.0214506 -0.00156304 0)
(0.0218109 0.00115377 0)
(0.0176835 -0.170491 0)
(0.0205156 -0.727592 0)
(0.0113501 -1.1087 0)
(0.00742975 -1.08904 0)
(-0.00732031 -1.08951 0)
(-0.0114219 -1.10877 0)
(-0.0205927 -0.727385 0)
(-0.0177663 -0.17025 0)
(-0.021718 0.00163635 0)
(0.0220804 0.00336623 0)
(0.01837 -0.166091 0)
(0.0204912 -0.727641 0)
(0.0109064 -1.09165 0)
(0.00711826 -1.07123 0)
(-0.00717308 -1.07071 0)
(-0.0109557 -1.09157 0)
(-0.0205033 -0.727338 0)
(-0.0185565 -0.165502 0)
(-0.0221445 0.00413079 0)
(0.022812 0.00649685 0)
(0.0196481 -0.159117 0)
(0.0210085 -0.725342 0)
(0.0117208 -1.07434 0)
(0.00737228 -1.05359 0)
(-0.00734493 -1.05406 0)
(-0.0117627 -1.07436 0)
(-0.0211742 -0.725041 0)
(-0.0196712 -0.158897 0)
(-0.0228444 0.00696168 0)
(0.0230596 0.00843822 0)
(0.0204027 -0.154821 0)
(0.0212401 -0.724136 0)
(0.0117411 -1.05664 0)
(0.00712614 -1.03509 0)
(-0.00723983 -1.03476 0)
(-0.0118667 -1.05655 0)
(-0.0215229 -0.723617 0)
(-0.0207136 -0.153768 0)
(-0.0233366 0.00926385 0)
(0.0239424 0.0113923 0)
(0.0218285 -0.14776 0)
(0.0213866 -0.719787 0)
(0.0120638 -1.0385 0)
(0.00713486 -1.01684 0)
(-0.00721686 -1.01693 0)
(-0.0123655 -1.03844 0)
(-0.0217031 -0.719826 0)
(-0.0220034 -0.147732 0)
(-0.024047 0.0116741 0)
(0.0247251 0.0134275 0)
(0.0232176 -0.142623 0)
(0.0220092 -0.716222 0)
(0.012687 -1.02026 0)
(0.00729847 -0.99815 0)
(-0.00721519 -0.997905 0)
(-0.0127111 -1.02017 0)
(-0.0222349 -0.716054 0)
(-0.0231953 -0.142192 0)
(-0.024694 0.0137841 0)
(0.0253214 0.0152679 0)
(0.0244739 -0.136877 0)
(0.0226846 -0.710196 0)
(0.0133099 -1.00143 0)
(0.0075776 -0.978442 0)
(-0.00725991 -0.978341 0)
(-0.0129523 -1.00131 0)
(-0.0221658 -0.710122 0)
(-0.0243595 -0.136411 0)
(-0.0252418 0.0156958 0)
(0.0257872 0.0170778 0)
(0.0254401 -0.131475 0)
(0.0228196 -0.705645 0)
(0.0137158 -0.982444 0)
(0.00741959 -0.958736 0)
(-0.00721341 -0.958749 0)
(-0.0134485 -0.982337 0)
(-0.0223261 -0.704995 0)
(-0.025288 -0.130699 0)
(-0.0257744 0.0176244 0)
(0.0262848 0.0187135 0)
(0.0263135 -0.12595 0)
(0.0228168 -0.699215 0)
(0.0138046 -0.962898 0)
(0.00743431 -0.93847 0)
(-0.00762737 -0.938381 0)
(-0.0141712 -0.962762 0)
(-0.0233409 -0.698702 0)
(-0.0264549 -0.125228 0)
(-0.0263941 0.0192812 0)
(0.0266817 0.0204262 0)
(0.0271482 -0.120168 0)
(0.0231394 -0.69319 0)
(0.0141802 -0.942942 0)
(0.0073608 -0.917725 0)
(-0.00770469 -0.917581 0)
(-0.0146058 -0.942845 0)
(-0.0240168 -0.693133 0)
(-0.0274324 -0.119766 0)
(-0.0267824 0.0208042 0)
(0.0273092 0.022066 0)
(0.0285016 -0.114779 0)
(0.0235989 -0.687021 0)
(0.0144356 -0.922448 0)
(0.00753643 -0.896787 0)
(-0.00739009 -0.896427 0)
(-0.0143965 -0.922351 0)
(-0.0236022 -0.687371 0)
(-0.0284704 -0.114454 0)
(-0.0272369 0.0225001 0)
(0.0280643 0.0234429 0)
(0.0298949 -0.10903 0)
(0.0242948 -0.679525 0)
(0.0154278 -0.901156 0)
(0.00778142 -0.874905 0)
(-0.00739841 -0.874921 0)
(-0.015043 -0.901095 0)
(-0.0238288 -0.679669 0)
(-0.0296113 -0.108689 0)
(-0.0278641 0.0239245 0)
(0.0287692 0.02465 0)
(0.031209 -0.10351 0)
(0.024911 -0.672337 0)
(0.0159308 -0.879131 0)
(0.00763154 -0.853372 0)
(-0.00740621 -0.853083 0)
(-0.0156171 -0.879099 0)
(-0.0244888 -0.672479 0)
(-0.0308594 -0.102993 0)
(-0.028493 0.0252491 0)
(0.0294475 0.0254175 0)
(0.0329483 -0.0985564 0)
(0.0256622 -0.663623 0)
(0.016519 -0.856526 0)
(0.00773221 -0.830941 0)
(-0.00728602 -0.831125 0)
(-0.0161486 -0.856557 0)
(-0.025047 -0.66373 0)
(-0.0325253 -0.0979313 0)
(-0.029108 0.0261609 0)
(0.0301201 0.0256829 0)
(0.0349124 -0.0940909 0)
(0.0263897 -0.653818 0)
(0.0169938 -0.833276 0)
(0.00763682 -0.808557 0)
(-0.0072877 -0.808368 0)
(-0.0164559 -0.833343 0)
(-0.0255631 -0.653801 0)
(-0.0343927 -0.0934193 0)
(-0.0296968 0.0264934 0)
(0.0307595 0.0255194 0)
(0.0368432 -0.0896865 0)
(0.0268317 -0.642067 0)
(0.0176669 -0.809016 0)
(0.00773469 -0.784823 0)
(-0.00746169 -0.785159 0)
(-0.0173877 -0.809227 0)
(-0.0262165 -0.641847 0)
(-0.0364554 -0.0887813 0)
(-0.0304671 0.0264841 0)
(0.0310622 0.0248722 0)
(0.0384618 -0.0858488 0)
(0.0268962 -0.63016 0)
(0.0180624 -0.784347 0)
(0.00742426 -0.76069 0)
(-0.00737998 -0.760924 0)
(-0.0179467 -0.78463 0)
(-0.0267211 -0.629956 0)
(-0.0382408 -0.0849652 0)
(-0.0308752 0.0258602 0)
(0.0312029 0.0236167 0)
(0.0403967 -0.0827151 0)
(0.0275885 -0.616292 0)
(0.0186827 -0.758897 0)
(0.00759196 -0.736459 0)
(-0.00759209 -0.736555 0)
(-0.0187442 -0.759226 0)
(-0.0275194 -0.6162 0)
(-0.0402763 -0.0818893 0)
(-0.031058 0.0245794 0)
(0.0308976 0.0214813 0)
(0.0422896 -0.0809587 0)
(0.0285275 -0.601439 0)
(0.019866 -0.732342 0)
(0.00793036 -0.710188 0)
(-0.0080152 -0.710457 0)
(-0.0198265 -0.732766 0)
(-0.0285901 -0.601487 0)
(-0.0422305 -0.0802454 0)
(-0.0308131 0.0224045 0)
(0.0296264 0.0180016 0)
(0.0441858 -0.0815863 0)
(0.0295182 -0.58612 0)
(0.0207784 -0.704705 0)
(0.00817982 -0.68402 0)
(-0.00801717 -0.684312 0)
(-0.0208771 -0.705046 0)
(-0.0294726 -0.586109 0)
(-0.0441729 -0.0810499 0)
(-0.0295166 0.0188204 0)
(0.0262319 0.0124836 0)
(0.044821 -0.0867514 0)
(0.0304632 -0.56841 0)
(0.0220869 -0.675549 0)
(0.00807058 -0.657201 0)
(-0.00803811 -0.656981 0)
(-0.02194 -0.675814 0)
(-0.0304903 -0.568287 0)
(-0.0449082 -0.0864807 0)
(-0.0260633 0.0131069 0)
(0.0208165 0.00419608 0)
(0.0418181 -0.100129 0)
(0.0334627 -0.548118 0)
(0.0228414 -0.644977 0)
(0.00785792 -0.629328 0)
(-0.00759046 -0.629728 0)
(-0.0228592 -0.64508 0)
(-0.0333882 -0.547657 0)
(-0.0419946 -0.100026 0)
(-0.0207425 0.00450556 0)
(0.0218064 -0.00678122 0)
(0.0262614 -0.132481 0)
(0.0395344 -0.538871 0)
(0.0239062 -0.613655 0)
(0.00763993 -0.601776 0)
(-0.00747291 -0.601324 0)
(-0.0238461 -0.613603 0)
(-0.0394795 -0.538244 0)
(-0.0262861 -0.13244 0)
(-0.0218154 -0.00674886 0)
(0.0202248 -0.0065141 0)
(-0.00493326 -0.155603 0)
(0.0445268 -0.547631 0)
(0.0248806 -0.581168 0)
(0.00760107 -0.571911 0)
(-0.00784015 -0.572054 0)
(-0.0248617 -0.581131 0)
(-0.0444433 -0.546695 0)
(0.00495119 -0.155637 0)
(-0.0199852 -0.00640175 0)
(0.023541 0.0122011 0)
(0.035098 -0.161674 0)
(0.0434312 -0.549749 0)
(0.0258288 -0.547132 0)
(0.00825227 -0.541044 0)
(-0.00839483 -0.540935 0)
(-0.0261004 -0.547267 0)
(-0.0432111 -0.549265 0)
(-0.0353548 -0.162183 0)
(-0.0233636 0.0121043 0)
(0.0387498 0.00343277 0)
(0.0576329 -0.215971 0)
(0.0548716 -0.501565 0)
(0.0264906 -0.508189 0)
(0.00986276 -0.506896 0)
(-0.00981388 -0.506579 0)
(-0.0265514 -0.508403 0)
(-0.0549445 -0.500814 0)
(-0.0574006 -0.216196 0)
(-0.0388611 0.00312462 0)
(0.0607379 0.00444811 0)
(0.0619384 -0.230945 0)
(0.0542004 -0.458079 0)
(0.0288958 -0.469017 0)
(0.00921273 -0.471283 0)
(-0.00954153 -0.471209 0)
(-0.0285668 -0.469283 0)
(-0.0549209 -0.457776 0)
(-0.0612945 -0.230847 0)
(-0.0608498 0.00431214 0)
(0.0573199 -0.0255317 0)
(0.0696235 -0.227329 0)
(0.0651757 -0.403859 0)
(0.0318147 -0.423854 0)
(0.0122799 -0.429268 0)
(-0.0131955 -0.42968 0)
(-0.0323313 -0.424079 0)
(-0.0660069 -0.40407 0)
(-0.0698775 -0.227376 0)
(-0.0575342 -0.0264776 0)
(-0.00201955 -0.0508266 0)
(0.0737379 -0.276897 0)
(0.0648724 -0.362268 0)
(0.0333889 -0.381087 0)
(0.0124099 -0.384217 0)
(-0.0110096 -0.384384 0)
(-0.0322935 -0.381337 0)
(-0.0642823 -0.363201 0)
(-0.0737479 -0.276807 0)
(0.00376063 -0.0523935 0)
(0.0906052 -0.101467 0)
(0.074923 -0.287641 0)
(0.0679921 -0.315302 0)
(0.0354422 -0.32961 0)
(0.0145739 -0.332971 0)
(-0.016046 -0.333536 0)
(-0.0370694 -0.329767 0)
(-0.0683666 -0.315351 0)
(-0.0750704 -0.287393 0)
(-0.091578 -0.102231 0)
(0.0953811 -0.186702 0)
(0.0749584 -0.223509 0)
(0.0686074 -0.261273 0)
(0.0391196 -0.28057 0)
(0.0167809 -0.282285 0)
(-0.0140274 -0.282312 0)
(-0.0371369 -0.280506 0)
(-0.0671912 -0.260749 0)
(-0.0747167 -0.223595 0)
(-0.0943073 -0.186851 0)
(0.0577942 -0.126649 0)
(0.050414 -0.194746 0)
(0.0439457 -0.233992 0)
(0.0189467 -0.242832 0)
(0.0103841 -0.245724 0)
(-0.01159 -0.245052 0)
(-0.0200252 -0.241928 0)
(-0.0444956 -0.233813 0)
(-0.0505013 -0.194807 0)
(-0.0579331 -0.126974 0)
(1.32627 -1.01171 0)
(1.29116 -0.9833 0)
(1.27775 -0.954269 0)
(1.27142 -0.918015 0)
(1.2794 -0.876045 0)
(1.2644 -0.841393 0)
(1.18294 -0.779408 0)
(1.17215 -0.615166 0)
(1.19349 -0.338581 0)
(1.17507 -0.0973127 0)
(1.10534 0.0175479 0)
(1.01993 0.0107899 0)
(0.943345 -0.0512029 0)
(0.891318 -0.0996547 0)
(0.870669 -0.114696 0)
(0.83756 -0.124738 0)
(0.76436 -0.145238 0)
(0.782734 -0.14958 0)
(0.864336 -0.158108 0)
(0.914096 -0.171906 0)
(0.947678 -0.184728 0)
(0.978907 -0.199748 0)
(1.00976 -0.211566 0)
(1.04696 -0.221815 0)
(1.10437 -0.227471 0)
(1.16921 -0.224697 0)
(1.22703 -0.209953 0)
(1.26791 -0.200046 0)
(1.23484 -0.21807 0)
(1.24356 -0.226369 0)
(1.30103 -0.238291 0)
(1.36257 -0.249187 0)
(1.37608 -0.248066 0)
(1.40445 -0.261374 0)
(1.39336 -0.260076 0)
(1.33879 -0.249483 0)
(1.202 -0.172174 0)
(0.98176 -0.0961955 0)
(0.591888 0.219003 0)
(0.36692 0.354208 0)
(1.31014 0.762457 0)
(1.31276 0.759437 0)
(1.37457 0.760151 0)