/*--------------------------------*- C++ -*----------------------------------*\
  =========                 |
  \\      /  F ield         | OpenFOAM: The Open Source CFD Toolbox
   \\    /   O peration     | Website:  https://openfoam.org
    \\  /    A nd           | Version:  8
     \\/     M anipulation  |
\*---------------------------------------------------------------------------*/
FoamFile
{
    version     2.0;
    format      ascii;
    class       surfaceScalarField;
    location    "6.75";
    object      alphaPhi0.water;
}
// * * * * * * * * * * * * * * * * * * * * * * * * * * * * * * * * * * * * * //

dimensions      [0 3 -1 0 0 0 0];

internalField   nonuniform List<scalar> 
18095
(
1.99567e-08
-1.72024e-07
1.52068e-07
2.32708e-08
-1.97484e-07
1.9417e-07
2.06546e-08
-2.06323e-07
2.08939e-07
1.29685e-08
-2.11409e-07
2.19095e-07
2.09619e-09
-2.13343e-07
2.24215e-07
-9.83544e-09
-2.1335e-07
2.25281e-07
-1.96144e-08
-2.10514e-07
2.20293e-07
-2.31201e-08
-2.05889e-07
2.09395e-07
-1.99444e-08
-1.97526e-07
1.94351e-07
-1.72138e-07
1.52193e-07
1.55677e-08
-1.87592e-07
1.6178e-08
-1.98095e-07
1.18095e-08
-2.01954e-07
5.94445e-09
-2.05544e-07
-2.4547e-10
-2.07153e-07
-6.7768e-09
-2.06818e-07
-1.23155e-08
-2.04975e-07
-1.61683e-08
-2.02037e-07
-1.55092e-08
-1.98185e-07
-1.87647e-07
6.81413e-09
-1.94406e-07
8.44906e-09
-1.9973e-07
7.41282e-09
-2.00918e-07
3.98809e-09
-2.02119e-07
-5.2439e-10
-2.0264e-07
-4.6123e-09
-2.02731e-07
-7.24285e-09
-2.02344e-07
-8.34205e-09
-2.00937e-07
-6.78253e-09
-1.99745e-07
-1.94429e-07
4.52305e-09
-1.98929e-07
4.74925e-09
-1.99956e-07
3.71439e-09
-1.99883e-07
2.06192e-09
-2.00467e-07
3.3281e-10
-2.00911e-07
-1.6472e-09
-2.00751e-07
-3.62175e-09
-2.0037e-07
-4.70496e-09
-1.99854e-07
-4.50311e-09
-1.99947e-07
-1.98932e-07
1.07071e-09
1.11477e-09
1.23179e-09
7.64823e-10
-1.46266e-10
-8.96779e-10
-1.26667e-09
-1.12078e-09
-1.06759e-09
-2.84843e-08
-1.96083e-07
2.24567e-07
-3.0925e-08
-1.9923e-07
2.01671e-07
-2.58781e-08
-2.00813e-07
1.95767e-07
-1.49577e-08
-2.01507e-07
1.90587e-07
-1.39687e-10
-2.02279e-07
1.87461e-07
1.45055e-08
-2.02265e-07
1.8762e-07
2.55417e-08
-2.01601e-07
1.90565e-07
3.10112e-08
-2.01185e-07
1.95715e-07
2.85615e-08
-1.9916e-07
2.0161e-07
-1.95878e-07
2.24439e-07
-9.36282e-09
-1.8672e-07
-1.4891e-08
-1.93702e-07
-1.19945e-08
-2.0371e-07
-5.52705e-09
-2.07974e-07
2.65808e-10
-2.08072e-07
6.19873e-09
-2.08198e-07
1.31211e-08
-2.08523e-07
1.53917e-08
-2.03455e-07
9.51427e-09
-1.93283e-07
-1.86364e-07
-9.96042e-09
-1.76759e-07
-8.09519e-09
-1.95567e-07
-6.79505e-09
-2.0501e-07
-4.36071e-09
-2.10409e-07
9.75187e-10
-2.13407e-07
5.81977e-09
-2.13043e-07
7.17469e-09
-2.09878e-07
8.24531e-09
-2.04526e-07
9.97236e-09
-1.9501e-07
-1.76391e-07
-6.56207e-09
-1.70197e-07
-8.62655e-09
-1.93502e-07
-8.33689e-09
-2.053e-07
-3.60889e-09
-2.15137e-07
-2.46058e-10
-2.1677e-07
2.65365e-09
-2.15942e-07
6.96905e-09
-2.14193e-07
7.56234e-09
-2.05119e-07
6.11277e-09
-1.9356e-07
-1.70278e-07
-1.81296e-08
-1.74616e-08
-1.38225e-08
-9.86397e-09
-2.41932e-09
6.91979e-09
1.30189e-08
1.72949e-08
1.80853e-08
3.65291e-08
-1.58039e-07
1.2151e-07
4.01578e-08
-1.98882e-07
1.95253e-07
3.1954e-08
-2.11251e-07
2.19455e-07
1.85675e-08
-2.15824e-07
2.2921e-07
-3.89112e-10
-2.16365e-07
2.35322e-07
-2.0097e-08
-2.15738e-07
2.35446e-07
-3.36903e-08
-2.14785e-07
2.28378e-07
-4.08164e-08
-2.10998e-07
2.18124e-07
-3.53743e-08
-1.99403e-07
1.93961e-07
-1.58716e-07
1.23341e-07
1.69615e-08
-1.75e-07
1.91648e-08
-2.01085e-07
1.49547e-08
-2.07041e-07
6.94978e-09
-2.07819e-07
-1.73658e-09
-2.07679e-07
-9.27939e-09
-2.08195e-07
-1.51393e-08
-2.08925e-07
-1.85549e-08
-2.07582e-07
-1.65515e-08
-2.01407e-07
-1.75267e-07
8.04365e-09
-1.83044e-07
8.69605e-09
-2.01737e-07
7.85832e-09
-2.06203e-07
4.70588e-09
-2.04666e-07
1.63115e-09
-2.04604e-07
-1.96998e-09
-2.04594e-07
-7.06791e-09
-2.03827e-07
-8.36506e-09
-2.06285e-07
-7.80683e-09
-2.01965e-07
-1.83074e-07
7.57928e-09
-1.90623e-07
5.13344e-09
-1.99292e-07
5.85006e-09
-2.0692e-07
4.14576e-11
-1.98858e-07
-1.78929e-09
-2.02773e-07
-3.09184e-09
-2.03292e-07
-6.45946e-09
-2.00459e-07
-5.23715e-09
-2.07507e-07
-7.66945e-09
-1.99533e-07
-1.90743e-07
3.39434e-08
3.63225e-08
2.5169e-08
1.6898e-08
1.58526e-09
-1.40866e-08
-2.39812e-08
-3.57732e-08
-3.36959e-08
6.10383e-07
3.23842e-08
-6.42769e-07
5.75979e-07
3.44045e-08
5.41303e-07
3.46751e-08
5.33455e-07
3.19132e-08
5.09949e-07
2.36694e-08
4.90147e-07
1.97994e-08
4.40208e-07
3.1991e-08
3.87978e-07
4.86387e-08
3.49702e-07
4.47215e-08
3.56136e-08
3.24173e-07
5.99445e-07
4.90363e-08
-6.161e-07
5.76804e-07
5.70447e-08
5.70857e-07
6.45999e-08
5.4107e-07
6.39801e-08
5.09971e-07
5.47178e-08
4.77678e-07
5.21255e-08
4.17405e-07
6.53693e-08
3.782e-07
8.28092e-08
3.42823e-07
8.02865e-08
6.74428e-08
3.35035e-07
5.58005e-07
5.71568e-08
-5.5611e-07
5.5068e-07
7.03846e-08
5.35629e-07
7.9791e-08
5.16255e-07
8.34189e-08
4.8445e-07
8.64814e-08
4.39808e-07
9.67194e-08
3.74696e-07
1.03084e-07
3.50389e-07
1.04867e-07
3.35681e-07
9.27834e-08
8.78468e-08
3.39339e-07
4.53894e-07
4.28534e-08
-4.39433e-07
4.65987e-07
5.83384e-08
4.61977e-07
8.38381e-08
4.39465e-07
1.05924e-07
3.9962e-07
1.26345e-07
3.36595e-07
1.2879e-07
3.12378e-07
1.24854e-07
3.04544e-07
1.10697e-07
3.19862e-07
1.04267e-07
1.0502e-07
3.04547e-07
2.93592e-07
3.43183e-08
-2.8501e-07
3.02235e-07
4.9734e-08
2.94533e-07
9.15841e-08
2.54436e-07
1.20145e-07
2.37458e-07
1.35439e-07
2.26526e-07
1.39747e-07
2.18495e-07
1.32713e-07
2.32612e-07
1.20738e-07
2.23391e-07
1.14227e-07
1.17026e-07
2.11393e-07
2.20649e-07
3.70234e-08
-2.23255e-07
2.00845e-07
6.95844e-08
1.6981e-07
1.06114e-07
1.59789e-07
1.28591e-07
1.6e-07
1.33653e-07
1.69932e-07
1.46369e-07
1.69634e-07
1.45558e-07
1.5697e-07
1.33538e-07
1.41827e-07
1.29376e-07
1.32091e-07
1.26763e-07
1.64643e-07
4.07905e-08
-1.66654e-07
1.68158e-07
7.39521e-08
1.63476e-07
1.12759e-07
1.64103e-07
1.30558e-07
1.69723e-07
1.3915e-07
1.75637e-07
1.47252e-07
1.62686e-07
1.58553e-07
1.3728e-07
1.58949e-07
1.17592e-07
1.49064e-07
1.40686e-07
1.08997e-07
1.87493e-07
4.13736e-08
-1.87212e-07
1.85788e-07
9.41335e-08
1.76139e-07
1.32832e-07
1.80708e-07
1.26478e-07
2.00664e-07
1.18696e-07
2.1059e-07
1.35771e-07
1.87308e-07
1.81722e-07
1.58868e-07
1.87386e-07
1.37538e-07
1.70394e-07
1.42977e-07
1.35248e-07
1.58131e-07
6.52653e-08
-1.84054e-07
1.36918e-07
9.73601e-08
1.56253e-07
1.13083e-07
1.65566e-07
1.17481e-07
1.72675e-07
1.05489e-07
1.69055e-07
1.14587e-07
1.58238e-07
1.47047e-07
1.89697e-07
1.54453e-07
2.02274e-07
1.50246e-07
1.21394e-07
2.22257e-07
1.16722e-07
7.29169e-08
-1.24438e-07
1.06003e-07
9.51976e-08
1.20654e-07
9.81496e-08
1.42859e-07
9.48527e-08
1.48582e-07
9.16728e-08
1.54722e-07
1.01835e-07
1.71683e-07
1.29838e-07
1.96937e-07
1.29007e-07
2.29629e-07
1.17815e-07
9.01819e-08
2.82255e-07
4.2975e-08
4.59504e-08
-1.60739e-08
7.17521e-08
6.53732e-08
9.67078e-08
7.42544e-08
1.18475e-07
7.25125e-08
1.3853e-07
7.12066e-08
1.51038e-07
8.90791e-08
1.79085e-07
1.01573e-07
2.05269e-07
1.02575e-07
2.65663e-07
1.02001e-07
8.73015e-08
2.85013e-07
-4.12249e-08
1.03257e-08
7.63315e-08
-2.78069e-09
2.68196e-08
3.17631e-08
3.95382e-08
5.66836e-08
5.2277e-08
6.88512e-08
6.88507e-08
9.52706e-08
7.78642e-08
1.33681e-07
8.02389e-08
1.72128e-07
8.35038e-08
1.94298e-07
8.50639e-08
8.40841e-08
1.97527e-07
-8.90415e-08
-2.78825e-08
1.27254e-07
-5.31421e-08
-9.0763e-09
-3.52271e-08
2.163e-08
-2.92193e-08
4.62767e-08
-2.31417e-08
6.28242e-08
-1.20974e-08
6.74581e-08
1.75772e-08
5.09305e-08
4.18724e-08
5.93037e-08
4.76904e-08
7.92595e-08
8.38702e-08
4.79051e-08
-1.38414e-07
-5.56941e-08
1.66495e-07
-1.13688e-07
-3.08925e-08
-9.92359e-08
9.75711e-09
-1.03779e-07
5.2738e-08
-1.11259e-07
6.16345e-08
-1.03781e-07
4.43816e-08
-8.96817e-08
3.15423e-08
-8.88194e-08
5.08129e-08
-9.12593e-08
6.76779e-08
6.72942e-08
-8.63685e-08
-2.11665e-07
-5.67974e-08
2.13323e-07
-1.73691e-07
-3.82463e-08
-1.62135e-07
-2.10564e-09
-1.36502e-07
2.68829e-08
-1.14722e-07
3.97398e-08
-1.10695e-07
3.84593e-08
-1.24658e-07
4.22397e-08
-1.30795e-07
5.55216e-08
-1.23279e-07
6.00052e-08
6.11358e-08
-1.23039e-07
-2.13347e-07
-4.46665e-08
2.01202e-07
-2.19555e-07
-3.20131e-08
-1.92741e-07
-1.03225e-08
-1.55293e-07
1.05436e-08
-1.377e-07
2.20266e-08
-1.31269e-07
3.19139e-08
-1.32141e-07
4.29916e-08
-1.3226e-07
5.55018e-08
-1.3246e-07
6.00527e-08
5.79816e-08
-1.29463e-07
-1.77576e-07
-3.35635e-08
1.66698e-07
-1.85474e-07
-2.39605e-08
-1.87655e-07
-8.04247e-09
-1.78427e-07
5.1427e-09
-1.64449e-07
1.6862e-08
-1.52312e-07
3.21997e-08
-1.41113e-07
4.52096e-08
-1.27275e-07
5.48948e-08
-1.11897e-07
5.77819e-08
5.33834e-08
-9.50364e-08
-1.66746e-07
-2.46171e-08
1.58478e-07
-1.74092e-07
-1.7343e-08
-1.77088e-07
-7.83142e-09
-1.71892e-07
-5.3795e-11
-1.61968e-07
6.93643e-09
-1.48579e-07
1.89801e-08
-1.31989e-07
2.95493e-08
-1.11354e-07
3.57301e-08
-9.13158e-08
3.97104e-08
4.08924e-08
-7.65614e-08
-1.85714e-07
-2.30611e-08
1.84825e-07
-1.84723e-07
-2.02907e-08
-1.79522e-07
-1.52636e-08
-1.69536e-07
-1.00418e-08
-1.58512e-07
-4.08895e-09
-1.45548e-07
6.01431e-09
-1.30185e-07
1.41842e-08
-1.1331e-07
1.88525e-08
-9.61907e-08
2.25884e-08
2.66624e-08
-8.19629e-08
-1.96471e-07
-3.13349e-08
2.03126e-07
-1.84843e-07
-3.48612e-08
-1.67827e-07
-3.22812e-08
-1.53317e-07
-2.45531e-08
-1.4246e-07
-1.49482e-08
-1.32805e-07
-3.64274e-09
-1.21494e-07
2.87036e-09
-1.09493e-07
6.8485e-09
-9.64057e-08
9.49888e-09
1.3522e-08
-8.32672e-08
-1.69598e-07
-4.99539e-08
1.88216e-07
-1.46759e-07
-5.77013e-08
-1.23787e-07
-5.5255e-08
-1.04147e-07
-4.4194e-08
-8.98577e-08
-2.92393e-08
-8.19952e-08
-1.15742e-08
-7.80518e-08
-1.07568e-09
-7.33232e-08
2.11749e-09
-6.47877e-08
9.61432e-10
2.69719e-09
-5.39646e-08
-9.71468e-08
-6.6699e-08
1.13891e-07
-8.47598e-08
-7.00893e-08
-7.09183e-08
-6.90974e-08
-5.3374e-08
-6.17396e-08
-3.62052e-08
-4.5943e-08
-2.20988e-08
-2.5411e-08
-1.39056e-08
-9.26365e-09
-7.66958e-09
-4.11454e-09
-2.53981e-09
-4.1479e-09
-2.26634e-09
2.48708e-09
-3.74366e-08
-7.31251e-08
4.35978e-08
-3.53548e-08
-7.21714e-08
-3.36421e-08
-7.0811e-08
-3.06818e-08
-6.46681e-08
-2.50467e-08
-5.06051e-08
-1.65161e-08
-3.31236e-08
-1.05055e-08
-1.50186e-08
-8.01221e-09
-6.655e-09
-7.11985e-09
-4.89622e-09
-3.92322e-09
-5.49795e-09
-2.55326e-08
-8.07592e-08
3.3128e-08
-2.22356e-08
-7.55497e-08
-2.42897e-08
-6.88347e-08
-2.79347e-08
-6.09017e-08
-2.91881e-08
-4.90264e-08
-2.65686e-08
-3.57875e-08
-2.6733e-08
-1.48957e-08
-2.65356e-08
-6.89194e-09
-2.34136e-08
-8.05563e-09
-3.38911e-09
-2.39827e-08
-2.48907e-08
-9.32373e-08
3.73686e-08
-1.7921e-08
-8.25197e-08
-1.58672e-08
-7.08884e-08
-1.7788e-08
-5.89809e-08
-1.83895e-08
-4.89651e-08
-2.03464e-08
-3.45177e-08
-2.67061e-08
-8.89169e-09
-3.24936e-08
-9.8543e-10
-4.05713e-08
-8.11561e-11
3.2263e-09
-4.75246e-08
1.25457e-08
-1.04708e-07
-1.07533e-09
2.03284e-08
-9.03022e-08
2.22871e-08
-7.28469e-08
1.57335e-08
-5.24408e-08
1.96854e-09
-3.51997e-08
-1.05778e-08
-2.19709e-08
-1.10908e-08
-8.37823e-09
-1.21526e-08
7.68681e-11
-1.68292e-08
4.71339e-09
6.44567e-09
-2.00472e-08
8.31425e-08
-9.46488e-08
-9.32015e-08
7.51571e-08
-8.23166e-08
7.28859e-08
-7.05757e-08
7.18475e-08
-5.14134e-08
6.79485e-08
-3.12987e-08
6.08397e-08
-1.48616e-08
5.51668e-08
-2.70473e-09
4.86022e-08
6.64193e-09
4.12848e-08
1.20313e-08
1.31133e-08
3.45877e-08
1.16744e-07
-7.813e-08
-1.33261e-07
1.00966e-07
-6.65389e-08
9.0118e-08
-5.97272e-08
8.71046e-08
-4.83997e-08
9.25651e-08
-3.68247e-08
1.02936e-07
-2.52595e-08
1.09188e-07
-8.98395e-09
1.07476e-07
8.43392e-09
9.91517e-08
2.03536e-08
2.40353e-08
8.82257e-08
1.07563e-07
-5.95389e-08
-1.2397e-07
9.58003e-08
-5.47741e-08
8.72269e-08
-5.11534e-08
8.44295e-08
-4.56019e-08
9.02299e-08
-4.26248e-08
1.03127e-07
-3.81569e-08
1.20334e-07
-2.61902e-08
1.34701e-07
-5.93489e-09
1.46923e-07
8.13015e-09
1.56499e-08
1.54357e-07
5.76498e-08
-4.29542e-08
-6.53469e-08
5.27147e-08
-4.5569e-08
5.06562e-08
-4.89479e-08
5.59472e-08
-5.08921e-08
6.98599e-08
-5.65373e-08
8.23449e-08
-5.06419e-08
9.07249e-08
-3.43538e-08
1.03188e-07
-1.82299e-08
1.19941e-07
-8.80221e-09
-5.64972e-09
1.4106e-07
1.10165e-08
-4.88105e-08
-5.17791e-09
8.43494e-09
-3.84247e-08
4.70176e-09
-3.94232e-08
1.19714e-08
-5.61825e-08
2.27905e-08
-6.73566e-08
3.40447e-08
-6.21439e-08
4.80576e-08
-4.88952e-08
6.69084e-08
-3.55934e-08
8.78642e-08
-2.76735e-08
-3.58322e-08
1.19003e-07
-1.62246e-08
-5.35413e-08
2.09403e-08
-9.30761e-09
-4.53841e-08
-6.80631e-09
-4.20202e-08
-4.26827e-09
-5.83645e-08
-4.897e-10
-7.09133e-08
5.64003e-10
-6.33812e-08
1.12248e-08
-6.05519e-08
2.40392e-08
-4.77751e-08
3.46193e-08
-3.90215e-08
-4.98941e-08
4.99189e-08
-1.30016e-08
-6.72101e-08
2.37225e-08
3.20451e-09
-6.64659e-08
2.36003e-08
-6.86182e-08
3.37525e-08
-7.09539e-08
3.38005e-08
-7.09272e-08
3.07977e-08
-6.06015e-08
1.56332e-08
-4.53719e-08
4.87991e-09
-3.88378e-08
7.18476e-09
-4.34781e-08
-5.48067e-08
1.13587e-08
2.52578e-08
-8.97386e-08
-8.75447e-09
4.15607e-08
-8.81985e-08
6.00305e-08
-8.70859e-08
6.77787e-08
-7.86887e-08
6.1833e-08
-6.61383e-08
5.0261e-08
-4.89235e-08
3.50952e-08
-3.01798e-08
2.79403e-08
-3.16566e-08
2.21997e-08
-3.77112e-08
-4.53274e-08
1.27496e-08
3.72656e-08
-1.0476e-07
-2.22439e-08
5.21443e-08
-1.03077e-07
5.83698e-08
-9.33109e-08
5.58494e-08
-7.61661e-08
4.29003e-08
-5.31619e-08
2.39243e-08
-2.98291e-08
1.49287e-08
-2.09649e-08
1.36992e-08
-3.00773e-08
1.46463e-08
-3.78794e-08
-4.51073e-08
1.5055e-08
-1.72181e-08
-9.69649e-08
9.42327e-09
-3.34074e-08
-8.68869e-08
-5.38288e-08
-7.28874e-08
-7.47232e-08
-5.28891e-08
-9.28002e-08
-3.23087e-08
-1.05344e-07
-1.60548e-08
-1.12141e-07
-1.41379e-08
-1.16082e-07
-2.43213e-08
-1.19865e-07
-3.51951e-08
-4.09882e-08
-1.25098e-07
-1.96362e-07
-4.14072e-08
1.40804e-07
-2.50235e-07
-3.30075e-08
-2.83425e-07
-3.31514e-08
-2.99543e-07
-2.93897e-08
-3.10461e-07
-2.33262e-08
-3.06044e-07
-2.24112e-08
-3.12701e-07
-2.28645e-08
-3.05847e-07
-3.11703e-08
-3.04327e-07
-3.67102e-08
-3.5566e-08
-3.09735e-07
-3.1169e-07
7.02762e-10
2.69593e-07
-3.3856e-07
-1.7626e-09
-3.64885e-07
-9.61939e-09
-3.79086e-07
-1.53752e-08
-3.86384e-07
-1.61528e-08
-3.84758e-07
-2.41297e-08
-3.73544e-07
-3.40837e-08
-3.66886e-07
-3.78255e-08
-3.69907e-07
-3.36844e-08
-2.15135e-08
-3.8395e-07
-2.89945e-07
6.20587e-09
2.84098e-07
-3.08582e-07
1.51876e-08
-3.2497e-07
1.7714e-08
-3.25957e-07
2.02295e-09
-3.36622e-07
-4.39222e-09
-3.68216e-07
-8.76495e-09
-3.76019e-07
-2.98606e-08
-3.64223e-07
-5.0922e-08
-3.5362e-07
-4.42773e-08
-1.0654e-08
-3.64418e-07
-2.19826e-07
-3.40826e-08
3.05802e-07
-1.86457e-07
-1.85489e-08
-1.48176e-07
-2.13949e-08
-1.38391e-07
-8.59017e-09
-1.2281e-07
-2.0802e-08
-9.77314e-08
-3.48109e-08
-1.45945e-07
-2.31047e-08
-1.824e-07
-3.58257e-08
-1.96704e-07
-2.58569e-08
-8.83161e-10
-2.10092e-07
-2.72092e-07
-8.03503e-08
3.18767e-07
-2.22822e-07
-6.72948e-08
-1.49816e-07
-5.32779e-08
-1.12024e-07
-3.03191e-08
-1.27013e-07
-3.5271e-08
-1.65291e-07
-3.63875e-08
-1.69588e-07
-2.94539e-08
-1.8156e-07
-1.76093e-08
-1.54854e-07
-2.33628e-08
-2.29667e-08
-1.36575e-07
-1.90452e-07
-9.58001e-08
2.06475e-07
-1.81078e-07
-7.57444e-08
-1.79905e-07
-5.32444e-08
-1.72193e-07
-3.80831e-08
-1.83959e-07
-2.36484e-08
-2.07176e-07
-1.32278e-08
-2.17499e-07
-1.91396e-08
-2.0221e-07
-3.28878e-08
-1.76947e-07
-4.8607e-08
-5.43722e-08
-1.45518e-07
-1.95885e-07
-7.45429e-08
2.07084e-07
-1.8965e-07
-3.45222e-08
-1.93904e-07
-2.23502e-08
-2.20662e-07
-5.44356e-09
-2.74076e-07
1.89142e-08
-3.21728e-07
2.43415e-08
-3.3719e-07
-1.55262e-08
-3.2149e-07
-5.21701e-08
-3.00106e-07
-6.99676e-08
-6.80171e-08
-2.8525e-07
-2.34918e-07
-2.63545e-08
3.30959e-07
-2.54971e-07
-1.46265e-08
-2.73436e-07
-3.66705e-09
-2.87932e-07
8.82831e-09
-2.88125e-07
1.46037e-08
-4.78614e-07
1.19612e-08
-6.19811e-07
-1.32123e-08
-6.29912e-07
-4.54659e-08
-6.37239e-07
-5.46926e-08
-5.75618e-08
-6.49872e-07
-4.00803e-07
-6.2967e-09
3.80739e-07
-4.13898e-07
-1.54242e-09
-4.2202e-07
4.3513e-09
-4.20766e-07
7.32164e-09
-4.10659e-07
8.02648e-09
-3.9041e-07
4.56352e-09
-7.1252e-07
-5.39502e-09
-8.81797e-07
-2.65746e-08
-8.74757e-07
-7.55073e-08
-1.04032e-07
-8.3406e-07
-4.46125e-07
-9.9312e-09
4.49749e-07
-4.41457e-07
-6.23297e-09
-4.37934e-07
2.91011e-10
-4.37675e-07
3.77385e-09
-4.05721e-07
-1.10502e-09
-3.55127e-07
-1.13923e-08
-3.31015e-07
-1.67342e-08
-5.55629e-07
-3.90634e-08
-6.21971e-07
-8.17877e-08
-8.01965e-08
-5.94111e-07
-4.46223e-07
-1.96756e-08
4.55946e-07
-4.30585e-07
-2.19186e-08
-4.16196e-07
-1.6685e-08
-4.03604e-07
-2.23754e-08
-3.80834e-07
-2.12237e-08
-3.43298e-07
-3.61586e-08
-3.3422e-07
-4.91192e-08
-3.28763e-07
-6.5445e-08
-3.46853e-07
-8.29881e-08
-8.91211e-08
-3.50307e-07
-4.80578e-07
-5.58174e-08
6.66136e-07
-4.37279e-07
-6.59927e-08
-6.99221e-07
-6.56295e-08
-7.35409e-07
-6.81008e-08
-4.94006e-07
-8.06029e-08
-4.5603e-07
-8.92774e-08
-6.69144e-07
-9.66412e-08
-6.40515e-07
-1.00352e-07
-5.14623e-07
-1.29695e-07
-1.6404e-07
-4.15932e-07
-6.78706e-07
-6.58367e-08
6.57075e-07
-6.95773e-07
-6.22964e-08
-6.81967e-07
-7.84014e-08
-6.39068e-07
-1.10567e-07
-6.17906e-07
-1.0379e-07
-6.13697e-07
-9.69338e-08
-6.02878e-07
-1.09754e-07
-5.92653e-07
-1.19099e-07
-5.95533e-07
-1.33542e-07
-1.47393e-07
-6.14113e-07
-1.43046e-07
-7.52479e-08
1.52107e-07
-1.33192e-07
-7.27302e-08
-1.83024e-07
-6.5678e-08
-2.344e-07
-6.28522e-08
-2.65762e-07
-6.6532e-08
-2.98766e-07
-6.30753e-08
-3.47571e-07
-4.74251e-08
-4.07453e-07
-5.07939e-08
-4.27992e-07
-1.12665e-07
-1.44279e-07
-4.35118e-07
-9.2251e-08
-1.14053e-07
1.30476e-07
-6.2934e-08
-1.17673e-07
-4.51246e-08
-1.04572e-07
-1.89913e-08
-1.10565e-07
2.8533e-09
-1.07112e-07
1.52131e-08
-9.31507e-08
5.48018e-08
-9.91501e-08
2.96382e-08
-3.80763e-08
-1.40194e-08
-3.10867e-08
-2.85369e-08
-8.99894e-08
-2.08221e-07
-1.86662e-07
2.7541e-07
-1.17821e-07
-2.09984e-07
-5.87954e-08
-1.80365e-07
-9.4163e-09
-1.82188e-07
4.21966e-08
-1.76557e-07
7.71933e-08
-1.41294e-07
6.96846e-08
-1.21134e-07
6.12596e-08
-7.39994e-08
7.31608e-08
-5.63754e-08
-7.69901e-08
1.09071e-07
-1.21148e-07
-1.78599e-07
2.00326e-07
-6.53387e-08
-1.10495e-07
-5.40672e-08
-6.14332e-08
-5.47457e-08
-6.86725e-08
-2.31762e-08
-1.42827e-07
2.77545e-08
-1.70075e-07
5.80311e-08
-1.29593e-07
1.20328e-07
-1.1448e-07
1.97808e-07
-1.12038e-07
-1.2704e-07
1.84394e-07
1.18572e-08
-2.44871e-07
-3.63887e-08
5.56196e-09
-1.31537e-07
7.51261e-09
-6.79257e-08
1.75687e-09
-6.85473e-08
-3.74288e-09
-5.63948e-08
-1.01637e-08
-5.85353e-08
-4.46095e-10
-1.08817e-07
3.1974e-08
-1.25034e-07
8.91303e-08
-1.28741e-07
-2.11086e-07
1.79975e-07
2.06311e-07
-2.41501e-07
-2.91003e-07
7.55366e-08
-2.49997e-07
5.32028e-08
-1.55102e-07
3.01975e-08
-4.98276e-08
2.61731e-09
-3.31002e-08
-2.60801e-08
-3.41234e-08
-5.41496e-09
-1.22017e-07
2.73212e-08
-2.28767e-07
9.20365e-08
-3.04479e-07
-2.09889e-07
6.77742e-08
3.69866e-07
-2.17763e-07
-3.93572e-07
3.36318e-07
-2.16416e-07
1.9019e-07
-2.03764e-07
8.13159e-08
-1.37166e-07
8.90244e-08
-4.50943e-08
7.99841e-08
-2.74435e-08
1.82016e-07
-6.92391e-08
1.48223e-07
-1.91094e-07
1.16622e-07
-2.72606e-07
-3.1729e-07
6.4316e-08
4.64501e-07
-2.23729e-07
-4.58501e-07
4.69455e-07
-2.21354e-07
4.78135e-07
-2.12413e-07
3.87091e-07
-1.89053e-07
1.65617e-07
-1.15502e-07
1.56191e-07
-2.15858e-08
2.5028e-07
-2.88799e-08
2.98152e-07
-8.78496e-08
2.38889e-07
-2.11088e-07
-2.59169e-07
1.82097e-07
5.45219e-07
-2.49827e-07
-5.19128e-07
5.56523e-07
-2.32626e-07
5.57098e-07
-2.1295e-07
5.5874e-07
-1.90601e-07
4.79214e-07
-1.32522e-07
2.47067e-07
-2.19013e-08
1.43939e-07
4.36871e-09
2.83914e-07
-2.43993e-08
2.74113e-07
-1.62114e-07
-2.16634e-07
2.3191e-07
5.92684e-07
-2.69616e-07
-5.73035e-07
5.90932e-07
-2.309e-07
5.75887e-07
-1.97824e-07
5.58654e-07
-1.73146e-07
5.44543e-07
-1.16411e-07
3.11042e-07
1.98871e-08
1.86792e-07
5.87391e-08
2.91151e-07
6.24295e-10
2.97421e-07
-1.44673e-07
-2.02571e-07
2.83571e-07
5.59659e-07
-2.82261e-07
-5.47176e-07
5.1864e-07
-1.9219e-07
4.64521e-07
-1.09069e-07
4.35286e-07
-5.70282e-08
3.44878e-07
-1.72018e-08
1.01781e-07
5.89199e-08
1.71988e-07
6.85256e-08
2.98092e-07
-2.31319e-08
3.22137e-07
-1.60899e-07
-2.37477e-07
3.59051e-07
2.85565e-07
-1.15855e-07
-4.7527e-07
1.09821e-07
-4.03763e-08
1.09732e-07
-2.74587e-08
6.4523e-08
-1.19552e-08
3.47707e-08
1.25258e-08
5.64992e-08
3.71321e-08
1.57845e-07
2.53196e-08
3.08632e-07
-3.84261e-08
4.33828e-07
-1.094e-07
-2.90035e-07
5.56009e-07
7.53033e-08
-5.18864e-08
-1.51874e-07
5.48441e-08
-1.99419e-08
3.11616e-08
-3.81249e-09
4.21632e-09
1.4942e-08
-1.54987e-08
3.22238e-08
3.35415e-09
1.82679e-08
7.50633e-08
-4.64173e-08
1.66814e-07
-1.33289e-07
4.71122e-07
-2.6712e-07
-4.39615e-07
7.78276e-07
6.27907e-09
-1.60379e-08
-4.21526e-08
-1.9638e-08
5.94961e-09
-4.36205e-08
2.01402e-08
-5.71608e-08
2.84461e-08
-5.46932e-08
2.97395e-08
3.16098e-08
-9.53957e-08
2.69738e-07
-4.21625e-07
5.19166e-07
-4.96311e-07
7.64454e-07
-5.20787e-07
-5.45328e-07
8.92994e-07
-5.17414e-09
1.342e-08
-2.43083e-08
-2.56093e-08
2.63537e-08
-3.79078e-08
3.2412e-08
-3.83247e-08
2.88177e-08
1.91533e-09
-2.50987e-08
3.09933e-07
-5.81175e-07
5.40863e-07
-6.38574e-07
6.64076e-07
-6.21923e-07
7.21585e-07
-5.87065e-07
-4.43435e-07
6.41693e-07
-1.41586e-08
3.85727e-08
-1.10176e-08
-2.905e-08
4.12184e-08
-3.03819e-08
3.37202e-08
-2.57674e-08
2.04418e-08
1.91293e-07
-3.41261e-07
4.20491e-07
-7.9966e-07
5.08764e-07
-7.18557e-07
4.5322e-07
-4.41016e-07
4.10371e-07
-4.25424e-07
-4.20006e-07
2.95279e-07
-1.70699e-08
5.26381e-08
2.97731e-09
-2.70542e-08
5.11791e-08
-2.23297e-08
2.90064e-08
6.58133e-09
-1.63814e-08
2.62429e-07
-5.86396e-07
3.55278e-07
-8.81796e-07
2.66775e-07
-5.17253e-07
8.73877e-08
-3.31788e-07
2.9557e-08
-4.14093e-07
-4.49971e-07
-1.5879e-08
4.88962e-09
4.13176e-08
6.406e-09
1.53318e-08
4.07096e-08
8.56698e-08
5.12243e-08
8.55047e-08
2.44186e-09
1.91411e-07
-6.76866e-07
1.86206e-07
-8.65878e-07
5.01697e-08
-3.47426e-07
-4.75472e-08
-3.46583e-07
-1.08672e-07
-4.21142e-07
-4.02905e-07
-1.55765e-07
-2.00088e-09
8.65964e-08
7.15801e-09
3.63493e-08
8.37935e-08
6.1408e-08
6.03327e-08
4.85289e-08
1.55304e-08
1.05852e-07
-7.39153e-07
1.01259e-07
-8.60641e-07
7.92682e-09
-2.32852e-07
-7.39256e-08
-3.13138e-07
-1.53548e-07
-3.41541e-07
-3.25699e-07
-2.30836e-07
7.1845e-09
1.35099e-07
2.04206e-08
4.065e-08
9.27015e-08
3.47576e-08
6.63873e-08
2.83324e-08
2.20186e-08
5.26705e-08
-7.68466e-07
3.8009e-08
-8.47299e-07
-4.0041e-08
-1.64368e-07
-1.14854e-07
-2.43528e-07
-1.98836e-07
-2.57614e-07
-2.45052e-07
-2.79601e-07
2.3511e-09
1.27373e-07
5.57791e-09
-9.59599e-09
1.04811e-07
-2.29685e-08
7.9922e-08
1.03895e-08
-1.12126e-08
3.71376e-08
-8.06138e-07
2.16275e-08
-8.32204e-07
1.31463e-08
-1.31638e-07
-9.0609e-08
-1.20698e-07
-1.93761e-07
-1.54525e-07
-1.71571e-07
-2.67274e-07
-3.43665e-08
1.40769e-07
2.10384e-08
-5.95753e-08
1.30294e-07
-8.01124e-08
1.05471e-07
-9.74915e-09
-2.70806e-08
2.33599e-08
-8.4178e-07
3.65213e-08
-8.45377e-07
-7.9109e-09
-7.93937e-08
-8.40817e-08
-3.53245e-08
-1.67588e-07
-7.5658e-08
-9.99725e-08
-2.39259e-07
-6.32749e-08
1.32822e-07
7.12944e-08
-7.86394e-08
1.45727e-07
-4.73119e-08
1.12763e-07
1.69301e-09
-7.93365e-08
6.57368e-09
-8.42236e-07
-1.38239e-09
-8.42184e-07
2.41873e-08
-1.0075e-07
-2.34446e-08
4.09537e-08
-1.27118e-07
2.47896e-08
3.1335e-09
-2.35785e-07
-1.41011e-07
1.57441e-07
1.16446e-07
-8.95713e-08
9.71416e-08
-3.4541e-08
5.7295e-08
1.05231e-08
-1.24541e-07
1.17856e-08
-8.41313e-07
1.29959e-08
-8.40727e-07
2.15072e-08
-1.05201e-07
-4.74766e-08
1.14587e-07
-1.59034e-07
1.2944e-07
1.04128e-07
-2.71288e-07
-1.21127e-07
1.1886e-07
1.94848e-07
-9.78675e-08
7.359e-08
-4.03336e-08
-5.77176e-10
-1.64839e-08
-1.54597e-07
-1.03109e-08
-8.54448e-07
1.36416e-09
-8.45699e-07
3.54847e-08
-1.41021e-07
8.56348e-08
6.18447e-08
1.38087e-07
7.21904e-08
6.68619e-08
1.65176e-07
-6.27571e-08
7.85606e-08
1.02765e-07
-4.49619e-08
5.54566e-08
-8.7244e-09
-3.7153e-08
-3.99392e-09
-1.63623e-07
-1.55556e-08
-8.49219e-07
-1.97864e-08
-8.34059e-07
3.22089e-09
-1.60584e-07
-4.98059e-09
6.16306e-08
8.0545e-08
1.53468e-09
6.93797e-09
1.24987e-07
-3.55528e-08
6.15628e-08
5.22227e-08
-1.42537e-08
3.38344e-08
-1.00546e-08
-4.16903e-08
5.77723e-09
-1.75511e-07
6.79494e-09
-8.49559e-07
1.24654e-08
-8.42967e-07
2.43422e-09
-1.5894e-07
-2.54641e-08
8.67232e-08
-2.66759e-08
2.57725e-09
6.94089e-12
-2.53281e-08
-1.9537e-10
2.08804e-08
4.61464e-08
3.15895e-08
7.55699e-09
3.89256e-09
-1.65037e-08
1.79381e-09
-1.73486e-07
-3.4834e-09
-8.50447e-07
-7.85127e-09
-8.36671e-07
6.06917e-09
-1.75709e-07
1.06363e-08
7.87831e-08
1.58184e-09
5.90461e-09
5.56975e-10
-5.08566e-10
3.82277e-09
3.19937e-09
2.19087e-08
2.74523e-08
-1.05577e-08
1.25904e-08
1.56327e-09
1.54582e-08
-1.76619e-07
8.50698e-09
-8.41293e-07
-5.35883e-09
-8.23879e-07
3.33626e-10
-1.87686e-07
3.36958e-09
8.00069e-08
-8.83876e-10
7.53473e-09
8.18821e-11
-5.07805e-10
2.13634e-09
5.19619e-11
-3.73877e-09
-2.88401e-09
1.43581e-11
-6.06473e-10
1.96527e-09
1.65762e-08
-1.88105e-07
1.25345e-08
-8.31413e-07
7.43704e-09
-8.20625e-07
-1.52352e-09
-1.84919e-07
9.45474e-09
7.05551e-08
0
9.93794e-09
1.55373e-10
-8.80248e-11
-2.38209e-10
5.16451e-12
2.78448e-10
-2.25059e-10
-8.29892e-13
6.67634e-09
-1.96617e-12
1.66348e-08
-1.91993e-07
7.80679e-10
-8.11283e-07
-7.86043e-09
-8.12921e-07
-8.02192e-09
-1.91236e-07
5.80709e-09
5.83077e-08
9.67474e-11
8.26703e-09
2.20723e-10
2.42408e-11
-5.75325e-13
1.40715e-12
4.33448e-12
-1.39659e-13
-1.21947e-12
3.30348e-13
-2.39009e-12
1.66272e-08
-2.0069e-07
9.26804e-09
-8.00416e-07
-8.23781e-09
-7.99254e-07
2.33559e-11
-2.01448e-07
2.22538e-09
1.54957e-08
0
3.93308e-09
6.79999e-10
8.74783e-11
3.85103e-14
2.55882e-12
-4.87167e-12
1.69931e-12
-2.48314e-12
1.98782e-12
-2.45035e-12
2.33213e-08
-2.18287e-07
7.47462e-09
-7.82759e-07
-1.15436e-08
-7.8263e-07
-1.99911e-09
-2.19155e-07
0
-1.24437e-11
3.32286e-10
2.97671e-10
5.96669e-10
0
0
2.29559e-12
-4.14647e-12
6.62902e-12
-3.4124e-12
6.28281e-12
-1.85443e-12
2.1897e-08
-2.36645e-07
5.29465e-09
-7.6632e-07
-9.60074e-09
-7.68066e-07
-4.03018e-11
-2.31598e-07
5.67362e-12
-5.98051e-11
3.01959e-10
0
0
5.33778e-10
7.42506e-13
2.48151e-12
3.29429e-12
4.37433e-12
-1.8217e-12
3.8802e-12
-1.33525e-12
9.88765e-10
-2.51527e-07
-2.02742e-08
-7.48459e-07
-3.94166e-08
-7.45351e-07
-1.82533e-11
-2.57436e-07
0
-7.92787e-11
8.50716e-11
-1.0476e-10
1.44376e-11
7.9013e-11
-9.11691e-13
-1.34279e-12
7.52926e-12
2.61765e-13
-3.37138e-13
2.53743e-13
-1.32866e-12
1.54479e-08
-2.66803e-07
-1.73684e-09
-7.31055e-07
-1.67325e-08
-7.303e-07
-4.3988e-11
-2.74192e-07
-4.41637e-11
-8.0489e-11
-1.40648e-11
-6.52009e-11
-1.0401e-12
1.22196e-12
-7.61129e-15
-2.39159e-13
3.20632e-13
1.11674e-13
-4.59699e-13
3.03147e-13
-1.52097e-12
3.20449e-08
-2.925e-07
6.8324e-09
-7.04274e-07
-1.71263e-08
-7.07602e-07
-4.93916e-11
-2.96005e-07
-5.18638e-11
-8.07335e-11
-7.69633e-12
-6.47831e-12
-6.35508e-12
-2.57328e-12
1.39378e-13
-2.40634e-13
-1.40811e-13
1.40714e-13
-4.60903e-13
1.1345e-12
-2.51849e-12
2.18201e-08
-3.09154e-07
7.07637e-09
-6.88014e-07
-1.30837e-08
-6.88776e-07
-8.65341e-11
-3.12516e-07
-8.30112e-11
-8.60347e-11
-2.66273e-11
0
-1.16272e-11
-2.15459e-11
3.70065e-13
-2.59704e-13
-3.56689e-13
2.80605e-13
-3.7524e-13
6.51908e-12
-8.76506e-12
3.89858e-08
-3.40402e-07
1.00312e-08
-6.58319e-07
-1.89004e-08
-6.6079e-07
-1.50325e-10
-3.395e-07
-1.36404e-10
-9.74211e-11
-4.56971e-11
-7.25955e-12
9.23963e-12
-1.02174e-10
7.14604e-13
8.5579e-14
-1.10872e-12
5.26248e-13
-1.94987e-13
4.19715e-11
-5.02616e-11
2.47661e-08
-3.62382e-07
4.51862e-09
-6.38426e-07
-1.57202e-08
-6.40277e-07
-2.62504e-10
-3.59466e-07
-2.16848e-10
-1.34007e-10
-1.66925e-10
3.23722e-11
6.08803e-11
-2.5512e-10
8.66526e-13
3.43558e-13
-1.18223e-12
6.81479e-13
-3.26677e-14
2.94682e-10
-3.4432e-10
2.81953e-08
-3.94989e-07
-4.6995e-09
-6.06292e-07
-3.69651e-08
-6.0726e-07
-4.61822e-10
-3.93467e-07
-1.05542e-10
-4.72225e-10
-4.76658e-11
3.8845e-11
8.70631e-11
-3.7066e-11
5.44927e-13
4.14377e-13
-6.47446e-13
3.36875e-13
1.47931e-13
1.93726e-09
-2.28128e-09
1.46268e-08
-4.1268e-07
-5.81224e-09
-5.85743e-07
-2.84409e-08
-5.84685e-07
-2.28348e-09
-4.14415e-07
-1.06791e-10
-2.6274e-09
-9.60041e-11
9.0511e-11
3.57794e-11
-4.37689e-12
2.24006e-13
5.47541e-13
-3.8887e-13
1.1587e-13
2.24366e-13
1.01941e-08
-1.24752e-08
3.74109e-08
-4.38176e-07
1.94102e-09
-5.5021e-07
-3.29654e-08
-5.49851e-07
-1.00124e-08
-4.38124e-07
-2.05875e-10
-1.24282e-08
1.59018e-12
8.04989e-12
2.55582e-11
1.96346e-13
2.39129e-13
1.87919e-12
-1.59091e-12
2.47393e-13
1.89012e-13
1.82909e-08
-3.05878e-08
2.43817e-08
-4.44374e-07
9.51718e-10
-5.268e-07
-2.42345e-08
-5.24641e-07
-1.84781e-08
-4.44326e-07
-8.20626e-12
-3.13213e-08
0
-2.41716e-13
3.46309e-15
1.46191e-11
3.94509e-13
4.88086e-12
-1.03336e-12
8.30489e-13
-2.67097e-13
3.59485e-08
-6.66658e-08
4.21951e-08
-4.50719e-07
3.67741e-10
-4.84958e-07
-4.05627e-08
-4.83715e-07
-3.57334e-08
-4.49088e-07
-5.39714e-12
-6.67825e-08
-5.1676e-14
-5.60614e-12
-7.61367e-16
-5.13313e-14
5.2745e-13
9.15392e-12
3.08147e-13
5.70744e-11
-5.68355e-11
4.32915e-08
-1.09933e-07
2.7663e-08
-4.34836e-07
-1.2651e-09
-4.56042e-07
-2.91952e-08
-4.55762e-07
-4.42678e-08
-4.33648e-07
-8.2615e-11
-1.09582e-07
-4.93202e-15
-8.82193e-11
-6.3006e-15
-2.15134e-15
4.34092e-12
3.2592e-12
5.76219e-13
1.48682e-09
-1.53952e-09
7.80937e-08
-1.8992e-07
4.61569e-08
-4.03454e-07
-7.23164e-10
-4.09162e-07
-4.90977e-08
-4.07389e-07
-7.75641e-08
-4.04351e-07
-1.42827e-09
-1.81142e-07
-8.96909e-13
-1.51561e-09
-9.03195e-13
-1.5025e-17
5.28557e-13
1.23395e-12
5.25741e-13
1.55307e-08
-1.70706e-08
8.12631e-08
-2.56242e-07
3.77868e-08
-3.59977e-07
-2.79514e-09
-3.68578e-07
-4.12182e-08
-3.68967e-07
-8.46592e-08
-3.60912e-07
-1.46609e-08
-2.50472e-07
-4.02843e-11
-1.61366e-08
-4.11875e-11
-4.94429e-18
7.92742e-10
-7.92171e-10
0
5.81028e-08
-7.33674e-08
9.73752e-08
-2.94172e-07
5.12672e-08
-3.13867e-07
-2.34669e-09
-3.14964e-07
-5.47159e-08
-3.16598e-07
-1.00198e-07
-3.1543e-07
-5.71951e-08
-2.94132e-07
-1.36479e-09
-7.32042e-08
-1.40597e-09
-4.41923e-18
2.89247e-08
-2.97094e-08
-7.76622e-12
1.44001e-07
-1.87487e-07
1.05194e-07
-2.55334e-07
5.44424e-08
-2.63116e-07
1.84387e-09
-2.62366e-07
-5.20728e-08
-2.62681e-07
-1.04886e-07