/*--------------------------------*- C++ -*----------------------------------*\
  =========                 |
  \\      /  F ield         | OpenFOAM: The Open Source CFD Toolbox
   \\    /   O peration     | Website:  https://openfoam.org
    \\  /    A nd           | Version:  8
     \\/     M anipulation  |
\*---------------------------------------------------------------------------*/
FoamFile
{
    version     2.0;
    format      ascii;
    class       volScalarField;
    location    "6.75";
    object      p_rgh;
}
// * * * * * * * * * * * * * * * * * * * * * * * * * * * * * * * * * * * * * //

dimensions      [1 -1 -2 0 0 0 0];

internalField   nonuniform List<scalar> 
9150
(
1963.75
1962.75
1962.1
1961.63
1961.4
1961.41
1961.64
1962.1
1962.73
1963.75
1963.31
1962.8
1962.37
1962.06
1961.89
1961.85
1962.03
1962.37
1962.79
1963.31
1963.04
1962.76
1962.5
1962.28
1962.17
1962.17
1962.29
1962.5
1962.76
1963.04
1962.92
1962.75
1962.58
1962.42
1962.34
1962.34
1962.42
1962.58
1962.75
1962.92
1962.92
1962.74
1962.6
1962.47
1962.41
1962.42
1962.48
1962.6
1962.74
1962.92
1951.81
1951.11
1951.48
1951.86
1952.04
1952.03
1951.84
1951.46
1951.11
1951.82
1955.99
1955.27
1955.15
1955.09
1955.19
1955.2
1955.11
1955.16
1955.3
1956.02
1959.15
1958.39
1958.09
1957.72
1957.65
1957.67
1957.73
1958.09
1958.39
1959.14
1961.91
1960.74
1960.26
1959.66
1959.46
1959.46
1959.62
1960.24
1960.71
1961.88
1964.4
1962.38
1961.6
1960.93
1960.64
1960.65
1960.92
1961.59
1962.37
1964.39
1947.43
1945.76
1943.69
1942.6
1942.06
1942.05
1942.53
1943.53
1945.6
1947.17
1946.53
1946.18
1945.17
1944.78
1944.25
1944.23
1944.71
1945.12
1946.13
1946.44
1945.9
1946.09
1945.03
1945.4
1944.96
1944.97
1945.44
1945.02
1946.04
1945.84
1942.71
1945.62
1944.67
1946.18
1946.04
1946.04
1946.15
1944.64
1945.6
1942.68
1937.1
1946.33
1946.93
1948.21
1948.65
1948.68
1948.24
1946.96
1946.35
1937.11
1295.01
1297.51
1300.17
1302.92
1305.8
1308.3
1309.98
1315.77
1316.16
1318.16
1292.09
1294.72
1297.71
1301.38
1304.47
1307.31
1309.63
1311.84
1314.64
1315.4
1288.41
1291.76
1295.13
1297.98
1301.19
1304.31
1304.33
1307.25
1309.06
1312.1
1285.35
1287.45
1290.29
1293.53
1297.28
1297.35
1299.75
1302.18
1304.76
1311.48
1284.53
1285.59
1287.24
1288.86
1288.74
1292.37
1295.3
1301.86
1307.74
1308.52
1286.86
1288.16
1286.19
1284.47
1288.03
1291.43
1299.45
1303.31
1305.31
1306.84
1266.54
1279.85
1287.18
1289.63
1291.85
1297.16
1300.51
1302.36
1304.09
1305.87
1268.03
1269.22
1286.85
1294.11
1296.74
1298.46
1299.43
1300.56
1302.06
1303.69
1289.1
1274.87
1270.87
1277.17
1298.19
1297.34
1282.08
1278.87
1286.64
1300.49
1290.53
1284.27
1268.46
1270.03
1272.18
1272.82
1274.21
1276.16
1277.21
1284.16
1292.52
1294.15
1286.68
1270.17
1271.95
1273.22
1274.6
1276.51
1285.7
1303
1297.35
1298.96
1299.27
1293.15
1287.41
1288.64
1293.91
1301.35
1307.54
1308.55
1301.08
1301.53
1302.02
1303.02
1304.62
1306.45
1307.9
1308.36
1309
1309.47
1303.07
1300.71
1298.16
1281.84
1276.3
1298.35
1304.61
1301.14
1300.21
1305.85
1308.07
1280.53
1256.91
1257.59
1258.16
1258.23
1259.86
1259.39
1259.65
1262
1313.69
1314.43
1305.51
1261.16
1260.06
1260.44
1260.87
1261.46
1262.02
1262.73
1317.27
1318.17
1318.99
1315.59
1303.63
1290.78
1283.25
1280.82
1278.88
1276.87
1314.3
1315.68
1320.78
1322.78
1323.75
1324.64
1325.22
1325.62
1325.8
1325.86
1316.61
1319.01
1324.09
1325.45
1326.28
1327.01
1327.69
1328.26
1328.71
1329.09
1320.25
1325.27
1327.09
1327.92
1328.57
1329.06
1329.45
1329.83
1330.18
1330.49
1327.11
1328.1
1329.16
1330.05
1330.69
1330.38
1331.26
1331.39
1331.55
1331.71
1328.53
1329.49
1330.37
1331.05
1330.13
1329.91
1330.91
1332.01
1332.05
1331.98
1329.45
1330.53
1331.24
1331.68
1325.2
1320.87
1320.96
1323.29
1323.02
1321.03
1330.92
1331.4
1332.15
1332.45
1323.26
1321.31
1321.33
1321.34
1321.39
1321.33
1332.56
1333.21
1333.72
1334.08
1331.81
1325.33
1330.34
1331.76
1326.84
1332.43
1333.93
1334.71
1335.34
1335.73
1336.1
1336.14
1336
1335.73
1332.34
1328.34
1334.63
1335.33
1335.72
1335.93
1336.26
1336.43
1336.42
1336.12
1335.67
1334.35
1333.97
1334.58
1335.07
1335.39
1335.55
1335.3
1335.36
1335.36
1335.71
1335.5
1330.76
1333.85
1334.42
1334.8
1335.04
1335.13
1335.09
1335.01
1334.94
1332.26
1283.9
1320.17
1334.61
1334.89
1334.96
1334.73
1333.2
1333.94
1334.47
1334.58
1249.2
1260.38
1301.18
1325.42
1335.48
1333.81
1325.52
1322.53
1325.58
1331.91
1250.36
1250.07
1249.54
1309.86
1335.27
1332.06
1327.14
1314.11
1302.29
1304.33
1253.6
1257.34
1278.71
1307.74
1334.08
1334.61
1334.97
1321.22
1305
1297.37
1340.69
1338.97
1340.12
1338.56
1334.62
1332.32
1335.12
1334.79
1334.2
1333.52
1343.83
1341.37
1339
1337.02
1335.62
1331.12
1332.88
1334.37
1331.02
1325.52
1344.48
1341.22
1337.98
1331.21
1321.78
1316.11
1317.83
1315.25
1314.9
1313.72
1346.31
1342.7
1335.29
1299.4
1298.65
1298.4
1317.3
1335.84
1335.58
1334.66
1343.8
1333.41
1325.77
1336.84
1335.44
1335.56
1336.01
1336.42
1336.59
1336.7
1319.02
1318.61
1307.35
1264.66
1250.75
1296.62
1320.8
1333.94
1337.44
1337.72
1098.64
1078.49
1075.18
1074.19
1074.07
1074
1126.65
1320.21
1326.45
1308.83
1337.85
1336.04
1216.09
1070.05
1094.61
1282.03
1329.86
1324.1
1183.47
1118.7
1328.46
1327.2
1327.31
1329.38
1331.75
1333.48
1335.81
1337.7
1338.75
1339.85
1277.85
1244.26
1226.61
1230.43
1260.85
1294
1316.82
1336.88
1338.38
1338.17
882.469
850.95
852.244
855.386
862.284
976.874
1304.53
1335.06
1335.75
1319.06
845.6
845.993
847.68
850.775
851.958
852.222
1010.52
1311.83
1325.93
1322.83
844.207
845.17
845.791
850.104
841.451
839.375
845.711
943.348
1223.67
1224.01
840.048
841.638
843.068
854.89
848.404
843.921
854.821
873.416
877.469
878.509
860.711
841.959
1091.63
1320.62
1091.5
895.117
1225.27
1333.57
1131.69
897.773
1228.7
1293.98
1309.99
1318.55
1322.61
1324.86
1323.91
1326.26
1326.59
1327.45
808.999
812.9
898.38
1125.11
1139.9
1160.67
1227.88
1255.81
1313.77
1320.96
812.207
827.384
872.723
881.785
885.475
880.621
876.94
873.354
1030.16
1125.4
1154.55
1148.87
1168.35
1187.3
1192.78
1197.97
1178.08
1006.69
869.381
864.845
997.885
849.989
832.814
918.125
1135.95
1203.19
1206.84
1209.91
1211.43
1198.33
916.531
586.386
555.99
556.299
612.43
868.741
1060.08
1076.62
1052.25
1114.89
1322.41
1088.45
619.573
553.975
554.886
552.42
723.194
813.674
858.431
974.627
1362.59
1370.96
1283.36
696.386
553.871
553.557
789.566
1338.53
1384.97
1222.81
1372.44
1378.12
1383.78
1373.17
796.91
557.172
683.609
1234.03
1396.12
1399.41
1378.6
1382.38
1388.09
1393.97
1399.68
775.247
663.338
860.025
1382.05
1405.99
1386
1385.57
1386.79
1390.89
1391.65
1241.86
665.08
941.244
1395.39
1408.31
1389.9
1361.85
1283.39
1261.75
1305.83
788.017
710.662
1240.05
1393.45
1400.83
1209.24
867.403
592.792
469.714
470.301
475.693
581.158
859.122
1083.67
1347.69
476.533
464.886
467.704
471.793
476.181
485.243
494.752
502.169
654.453
1240.76
466.752
466.941
467.477
469.064
473.049
496.74
673.433
848.179
1165.02
1347.75
467.658
466.98
466.592
466.271
481.94
1068.35
1372.64
1330.54
1292.91
1215.54
461.899
461.265
460.853
462.825
1136.39
1404.54
1381.46
1219.76
1214.2
1027.11
454.536
453.77
453.942
904.881
1422.64
1408.24
1163.63
904.612
934.764
1235.6
447.943
446.518
753.646
1446.07
1409.89
1402.91
693.682
923.301
1391.53
1417.33
479.784
679.45
1404.01
1487.09
1322.72
1347.87
600.876
1389.61
1442.28
1435.81
1189.58
1385.43
1484.11
1486.34
1327.81
1335.1
570.709
1461.96
1458.55
1452.46
1475.19
1474.1
1478.71
1481.49
1323.04
1333.59
534.614
1365.77
1470.42
1464.16
1466.9
1466.49
1460.24
1233.79
1324.55
1326.62
460.406
1204.99
1471.11
1472.05
1460.1
1456.8
1151.66
421.806
1336.84
1321.92
443.925
971.046
1397.55
1440.79
1456.78
916.96
359.05
387.467
1344.92
1340.21
422.492
1075.5
1395.46
1406.41
911.723
327.706
329.597
338.813
1357.27
1325.04
391.258
706.476
1174.15
1362.7
316.484
312.666
313.896
317.124
1352.47
1339.16
364.624
369.515
931.384
980.165
312.061
308.714
304.654
318.325
1367.69
1361.63
343.086
337.668
814.173
527.321
363.778
364.071
354.86
309.859
1391.4
1363.91
325.269
322.038
404.775
55.9553
342.499
369.805
274.858
314.317
1420.27
1416.61
324.43
369.058
114.768
0.775662
85.3204
142.225
242.628
319.547
1452.93
1438.76
344.756
393.062
82.426
0.674072
0.322203
0.309948
48.4986
313.043
1487.03
1449.85
353.034
398.73
76.1768
0.429994
0.225238
0.224367
0.242804
352.001
1513.48
1515.53
358.995
275.431
47.4542
2.26347
0.218295
0.221839
0.207767
397.101
1541.18
1547.8
402.246
16.8614
9.61863
7.10855
0.224418
0.302386
0.193407
452.675
1581.48
1570.55
443.984
0.365626
0.304978
1.12172
0.289517
0.287624
0.188902
507.18
1610.65
1600.19
498.815
0.182769
0.860344
0.156746
0.277834
0.19326
0.197764
559.501
1623.79
1644.42
581.116
0.104159
0.755163
0.0513341
0.150741
0.159454
0.168057
628.649
1651.95
1667.7
643.057
0.107293
0.380895
0.0621505
0.125358
0.135879
0.143066
721.562
1681.76
1691.49
727.601
0.129287
1.04798
0.0675193
0.125291
0.134419
0.141899
803.663
1707.85
1714.37
811.318
0.181452
1.52551
0.28149
0.130657
0.132771
0.129074
936.603
1738.21
1729.6
930.189
0.274714
3.25899
0.630576
0.132055
0.13348
0.128605
1049.86
1760.86
1752.64
1041.41
0.31824
4.33021
1.4777
0.138041
0.141439
0.147263
1205.75
1777.11
1776
1204.36
0.453464
4.37939
1.64333
0.132421
0.135142
0.147837
1336.03
1795.65
1798.51
1339.28
1.25599
3.24944
1.78024
0.113512
0.119045
46.177
1495.59
1816.37
1815.66
1494.61
48.7381
-0.0279007
0.168033
0.0925085
0.101498
188.985
1617.62
1835.59
1835.44
1617.73
189.597
-0.0404179
-0.0399261
0.085015
0.0549536
399.297
1754.79
1854.5
1853.91
1754.22
396.007
-0.0334804
-0.0312862
0.0324448
0.0242544
726.551
1839
1874.07
1874.04
1839.59
709.651
-0.0273012
-0.0239345
0.0412055
0.0392982
1249.87
1891.77
1892.57
1892.54
1891.52
1202.47
0.0054074
-0.0165094
0.0278967
143.019
1658.66
1910.33
1911.75
1911.71
1910.22
1640.01
126.622
-0.00773934
-0.0184811
1069.14
1924.6
1926.75
1926.72
1926.69
1926.77
1924.99
1071.97
-0.00480689
587.04
1867.08
1939.27
1937.35
1936.47
1936.51
1937.46
1939.42
1875.64
602.9
1320.17
1322.23
1323.37
1323.81
1323.4
1322.63
1321.54
1320.71
1320.08
1319.8
1319.77
1319.66
1319.59
1319.56
1319.66
1319.74
1319.93
1320.02
1320.27
1320.4
1320.53
1320.63
1320.63
1320.65
1320.71
1320.57
1320.39
1320.2
1320.16
1319.81
1320.07
1320.25
1320.59
1320.92
1320.74
1321.38
1321.78
1321.75
1322.56
1322.8
1317.66
1320.43
1322.32
1322.45
1321.81
1321.03
1320.29
1319.55
1319.55
1318.98
1319.34
1319.09
1319.24
1319.22
1319.46
1319.74
1319.88
1320.19
1320.19
1320.4
1320.54
1320.57
1320.72
1320.47
1320.43
1320.25
1319.87
1319.59
1319.47
1319.1
1319.61
1319.79
1320.11
1320.63
1320.72
1321.38
1321.62
1321.85
1322.07
1322.22
1316.3
1315.22
1317.3
1318.38
1318.44
1318.28
1317.88
1317.23
1318.44
1317.35
1318.81
1318.65
1319.04
1319.18
1319.25
1319.58
1319.88
1319.99
1320.16
1320.45
1320.96
1320.94
1320.79
1320.36
1320.09
1319.66
1319.76
1319.89
1319.45
1320.01
1321.39
1322.2
1322.46
1322.27
1322.01
1322.07
1322.05
1322.03
1322.43
1322.52
1311.72
1306.97
1308.49
1311.92
1315.06
1315.57
1315.85
1316.24
1316.48
1317.41
1314.27
1315.95
1316
1318.86
1319.59
1319.6
1320.02
1320.16
1320.23
1320.37
1321.32
1321.18
1320.94
1320.65
1319.63
1318.2
1317.23
1318.72
1319.78
1319.13
1318.57
1320.17
1321.46
1322.3
1321.79
1320.93
1321.35
1321.38
1322.62
1322.81
1301.82
1298.45
1300.38
1300.84
1308.52
1314.06
1314.87
1315.52
1316.23
1316.64
1316.65
1315.7
1315.49
1316.41
1319.8
1320.56
1320.91
1320.9
1320.38
1320.49
1320.61
1321.37
1321.23
1321.02
1320.73
1313.78
1311.04
1309.22
1315.68
1314.86
1317.15
1317.86
1318.2
1320.87
1322.16
1320.64
1321.19
1322.03
1322.84
1323.02
1296.82
1295.68
1297.65
1298.86
1304.27
1314.39
1315.2
1315.88
1316.57
1316.5
1317.84
1318.65
1317.8
1313.22
1316.86
1321.01
1321.43
1321.72
1321.18
1320.75
1320.66
1321.75
1322.04
1321.94
1321.92
1321.69
1310.62
1306.19
1306.61
1306.87
1316.21
1319.91
1318.57
1318.91
1322.26
1323.06
1322.22
1323.18
1323.31
1323.36
1304.84
1298.68
1296.68
1301.04
1311.64
1314.66
1315.42
1316.16
1317
1316.57
1318.5
1319.33
1317.58
1310.53
1312.48
1321.39
1322.01
1322.3
1322.59
1321.55
1321.22
1321.25
1322.56
1322.98
1323.04
1323.01
1318.85
1307.04
1307.18
1306.68
1308.51
1321.19
1321.87
1319.63
1320.68
1323.46
1323.42
1323.46
1323.74
1323.76
1305.72
1307.42
1308.23
1311.08
1313.01
1314.18
1315.29
1316.3
1317.12
1316.67
1318.84
1320.37
1318.44
1307.29
1307.52
1318.96
1322.43
1322.86
1323.26
1323.16
1321.74
1321.98
1322.6
1324.17
1324.47
1323.8
1310.98
1307.53
1307.72
1307.85
1311.13
1322.69
1323.22
1319.9
1322.68
1323.86
1323.81
1323.89
1323.88
1320.63
1304.13
1306.66
1308.95
1310.89
1312.53
1314
1315.26
1316.42
1316.2
1316.65
1319.22
1321.37
1316.53
1304.24
1305.27
1313.56
1323.02
1323.55
1323.94
1323.84
1322.31
1322.55
1323.32
1324.96
1325.19
1325.31
1314.65
1308.01
1307.88
1318.72
1325.5
1323.98
1322.7
1322.67
1324.52
1324.82
1324.58
1324.49
1324.08
1315.75
1304.8
1307.52
1309.2
1310.74
1312.15
1313.57
1315.09
1315.37
1315.59
1316.67
1320.66
1322.17
1315.28
1302.06
1302.99
1310.26
1324.21
1324.56
1324.74
1324.22
1322.97
1323.05
1325.32
1325.87
1326.04
1326.17
1321.82
1322.6
1325.56
1327.81
1325.64
1323.87
1325.47
1326.32
1326.04
1325.67
1325.19
1325.84
1319.89
1312.85
1307.73
1308.23
1309.16
1310.63
1312.2
1313.78
1315.31
1313.99
1315.68
1318.62
1321.8
1323.06
1320.62
1300.18
1300.95
1303.59
1324.12
1325.33
1325.5
1325.05
1323.51
1323.89
1326.53
1326.78
1326.96
1326.66
1326.61
1327.47
1327.77
1327.9
1325.74
1326.3
1326.16
1325.31
1323.64
1320.88
1311
1314.25
1310.81
1312.02
1308.73
1309.1
1309.66
1310.5
1311.78
1313.4
1315.28
1316.45
1318.15
1320.62
1321
1323.68
1324.44
1304.24
1299.38
1299.28
1313.28
1326.03
1326.32
1325.7
1323.98
1324.16
1327.17
1327.59
1327.77
1327.52
1328.07
1328.24
1328.44
1328.64
1328.09
1326.66
1322.38
1311.41
1304.93
1304.58
1304.67
1305.01
1305.26
1329.14
1309.61
1309.52
1309.85
1310.58
1311.59
1312.89
1314.5
1316.26
1318.79
1320.07
1318.86
1324.26
1325.13
1301.7
1298.22
1298.39
1304.75
1326.49
1327.49
1325.15
1324.38
1324.59
1327.72
1328.35
1328.57
1328.57
1328.55
1328.08
1325.63
1322.38
1328.38
1322.63
1307.39
1304.02
1304.14
1304.41
1304.67
1310.39
1323.87
1328.59
1308.67
1308.73
1306.89
1306.28
1306.15
1305.59
1305.17
1304.65
1299.51
1295.31
1316.27
1323.38
1324.1
1296.34
1297.13
1297.18
1316.21
1327.36
1327.26
1324.39
1324.78
1325.58
1328.72
1329.06
1329.29
1329.25
1329.23
1327.99
1314.82
1313.42
1313.1
1311.79
1309.97
1309.85
1303.49
1312.07
1325.44
1330.13
1329.89
1329.75
1264.09
1264.26
1264.08
1266.57
1268.74
1271.04
1273.21
1275.71
1277.89
1284.23
1319.75
1324.09
1325.29
1301.03
1299.32
1316.62
1328.73
1328.31
1324.76
1324.93
1325.15
1328.2
1329.34
1329.66
1329.81
1329.44
1329.15
1328.49
1318.05
1313.65
1316.8
1328.87
1320.75
1321.32
1325.16
1329.67
1329.93
1329.99
1330.12
1330.21
1263.66
1264.93
1266.39
1267.65
1280.72
1290.03
1293.18
1293.28
1290.49
1308.18
1325.98
1326.75
1322.83
1321.45
1324.85
1328.56
1328.91
1329.03
1325.59
1325.51
1327.71
1329.52
1329.69
1329.92
1330.02
1329.43
1328.74
1328.16
1326.09
1321.42
1327.37
1327.57
1326.74
1320.54
1324.47
1329.86
1330.18
1330.27
1330.42
1330.3
1277.51
1286.59
1296.31
1311.39
1323.23
1328.6
1330.48
1330.66
1329.56
1330.02
1329.13
1327.94
1327.26
1328.7
1328.91
1328.95
1329.11
1329.24
1328.98
1328.94
1329.63
1329.69
1329.69
1329.66
1329.56
1328.29
1326.47
1327.32
1327.87
1325.87
1325.21
1325.22
1326.3
1319.63
1320.09
1327.53
1330.44
1330.78
1330.45
1330.53
1326.09
1327.45
1328.88
1329.49
1330.18
1330.82
1331.3
1331.5
1331.37
1330.79
1330.25
1329.86
1329.6
1329.16
1327.22
1329.12
1329.14
1329.38
1329.57
1329.52
1329.38
1329.35
1329.34
1329.34
1329.34
1327.06
1326.83
1327.17
1328.55
1328.06
1303.45
1308.24
1326.8
1328.59
1320.91
1327.66
1331.26
1331.64
1331.35
1331.38
1329.46
1329.54
1330.22
1330.6
1331
1331.33
1331.59
1331.68
1331.59
1331.29
1330.9
1330.58
1330.32
1324.16
1322.22
1322.72
1327.93
1329.12
1328.91
1328.71
1328.5
1328.4
1328.22
1328.21
1328.52
1327.92
1327.67
1330.26
1330.52
1328.39
1287.01
1290.96
1325.7
1332.12
1324.61
1330.07
1332.62
1332.91
1333.1
1332.59
1330.77
1330.94
1331.29
1331.52
1331.71
1331.87
1332.01
1332.05
1331.98
1331.82
1331.58
1330.62
1324.3
1322.61
1322.38
1322
1323.21
1329.21
1324.09
1323.44
1324.35
1326.46
1326.04
1326.38
1327.68
1329.32
1330.65
1331.61
1332.16
1291.92
1284.4
1286.03
1327.58
1333.79
1333.67
1333.48
1334.37
1334.53
1334.65
1334.08
1331.88
1332.08
1332.21
1332.24
1332.21
1332.27
1332.4
1332.49
1332.52
1332.49
1332.39
1332.26
1324.3
1323.27
1323.08
1322.65
1330.2
1328.88
1293.59
1290.74
1326.84
1327.13
1326.87
1327.26
1328.84
1330.73
1332.1
1319.73
1289.04
1282.38
1282.84
1300.94
1333.99
1335.68
1335.93
1336.04
1336.14
1336.25
1336.1
1335.68
1332.3
1332.46
1332.57
1332.66
1329.65
1330.09
1332.7
1332.92
1333.06
1333.14
1333.2
1333.28
1330.86
1324.04
1324.13
1328.82
1333.24
1306.71
1282.47
1283.77
1307.11
1306.86
1306.53
1292.54
1293.05
1293.11
1287.56
1281.98
1282.29
1282.76
1294.58
1331.29
1335.08
1337.53
1337.59
1337.66
1337.76
1337.84
1337.79
1337.19
1323.16
1324.24
1324.59
1325.25
1325.16
1325.3
1325.28
1332.4
1333.58
1333.66
1333.79
1333.99
1328.99
1324.64
1324.9
1329.33
1335.19
1318.27
1283.95
1284.38
1284.32
1284.64
1284.87
1307.01
1302.83
1298.73
1294.26
1289.33
1290.75
1310.28
1336.9
1339.11
1336.7
1338.78
1338.87
1338.91
1339.02
1339.15
1339.17
1338.44
1327.64
1332.05
1331.88
1329.94
1330.08
1329.7
1331.96
1333.9
1334.02
1334.14
1334.05
1327.39
1324.99
1325.15
1325.12
1326.23
1336.25
1335.91
1310.8
1285.96
1299.47
1316.81
1323.42
1335.93
1336.36
1335.94
1335.29
1334.02
1335.68
1339.81
1340.26
1340.08
1339.85
1339.69
1339.67
1339.71
1339.83
1339.99
1339.85
1339.77
1332.38
1332.35
1332.2
1329.08
1332.18
1332.25
1332.31
1332.34
1332.95
1334.69
1334.05
1333.56
1325.34
1325.24
1326.24
1333.72
1336.51
1337.23
1337.29
1330.79
1335.41
1337.98
1337.65
1337.8
1338.28
1338.61
1339
1339.37
1339.63
1340.25
1340.38
1340.34
1340.23
1340.14
1340.12
1340.17
1339.05
1331.96
1338.21
1340.34
1328.09
1327.94
1327.84
1327.73
1327.66
1327.59
1329.18
1334.24
1334.42
1334.69
1334.96
1335.25
1335.15
1332.4
1331
1335.74
1336.59
1337.24
1337.74
1338.15
1338.34
1338.41
1338.37
1338.52
1338.85
1339.16
1339.48
1339.12
1339.07
1339.32
1340.54
1340.58
1340.53
1340.49
1340.58
1337.81
1330.03
1329.99
1334.83
1341
1333.67
1334.48
1329.63
1327.76
1327.62
1327.38
1331.33
1333.94
1334.05
1333.96
1334.38
1334.47
1334.11
1325.86
1304.34
1313.65
1336.51
1337.14
1337.68
1338.19
1338.55
1338.79
1338.93
1339.1
1339.41
1339.66
1339.19
1338.93
1339.17
1339.37
1340.2
1340.9
1340.85
1336.6
1332.41
1329.55
1329.74
1329.9
1335.45
1341.69
1335.18
1334.91
1334.43
1333.66
1332.27
1332.32
1333.28
1333.3
1333.32
1333.11
1332.71
1334.04
1335.21
1327.07
1303.71
1304.82
1306.7
1327.64
1338.23
1338.7
1339.04
1339.28
1339.48
1339.64
1339.84
1340.07
1340.17
1339.15
1339.35
1339.53
1340.64
1341.16
1341.26
1332.98
1329.67
1329.89
1330.1
1330.24
1339.78
1342.22
1331.63
1331.5
1331.37
1332.27
1333.94
1333.43
1332.87
1332.62
1332.87
1333.68
1330.98
1320.96
1327.46
1335.04
1330.1
1314.08
1307.32
1307.51
1312.15
1336.82
1339.69
1339.9
1340.03
1340.09
1340.21
1340.34
1340.43
1340.3
1339.4
1339.56
1341.05
1341.25
1341.49
1338.87
1334.47
1331.37
1332.04
1338.67
1342.98
1342.51
1332.79
1331.01
1330.62
1333.13
1333.46
1333.05
1332.52
1332.65
1333.97
1334.76
1335.55
1324.67
1290.63
1326.94
1336.64
1337.19
1326.72
1307.54
1307.56
1307.4
1322.46
1340.42
1340.55
1340.56
1340.49
1340.49
1340.52
1340.6
1339.88
1340.18
1341.03
1341.21
1341.41
1341.85
1342.31
1342.33
1342.61
1343.45
1343.59
1343.05
1332.83
1332.18
1332.66
1332.94
1333.25
1333.57
1334.03
1334.59
1335.22
1335.61
1332.73
1288.61
1286.74
1287.46
1302.98
1337.3
1337.9
1333.8
1311.72
1307.32
1307.24
1314.95
1339.45
1340.86
1340.8
1340.69
1340.59
1340.57
1340.64
1340.83
1341.07
1341.35
1341.49
1342.09
1342.7
1343.29
1343.79
1344.21
1344.4
1343.94
1315.17
1311.53
1312
1313.87
1307.53
1286.37
1283.46
1299.71
1300.25
1283.58
1283.94
1284.89
1285.78
1292.45
1325.48
1329.02
1326.06
1339.21
1340.54
1316.76
1306.9
1307.02
1322.9
1340.87
1340.86
1340.74
1340.59
1340.48
1340.46
1340.8
1341.26
1341.74
1342.01
1342.52
1343.21
1344.09
1344.69
1345.22
1345.43
1345.55
1291.66
1290.94
1281.9
1281.82
1281.79
1282.04
1282.35
1282.67
1283.08
1295.64
1329.32
1332.46
1333.4
1337.17
1335.59
1323.45
1323.7
1328.96
1339.47
1339.73
1318.36
1306.68
1325.36
1340.64
1340.67
1340.65
1340.47
1340.28
1340.25
1340.7
1341.49
1342.31
1342.85
1343.4
1344.14
1344.86
1345.71
1346.33
1346.67
1346.82
1332.85
1331.58
1326.86
1320.7
1319.07
1316.51
1320.26
1328.34
1329.3
1334.89
1336.28
1336.26
1336.98
1337.42
1329.27
1328.9
1332.06
1337.35
1338.96
1339.49
1339.11
1335.15
1338.06
1338.49
1339.73
1334.25
1310.18
1307.32
1325.16
1341.44
1342.49
1343.43
1344.11
1344.79
1345.46
1346.02
1346.65
1347.5
1347.86
1348
1319.54
1316.26
1315.3
1306.63
1306.8
1307.31
1321.13
1333.05
1333.32
1334.85
1335.81
1335.82
1333.4
1339.12
1338.97
1340.17
1339.95
1339.8
1339.96
1340.33
1340.56
1340.62
1340.61
1327.34
1297.47
1290.66
1290.4
1290.93
1291.12
1315.11
1344.62
1345.24
1345.7
1346.23
1346.82
1347.2
1347.93
1348.53
1348.84
1348.96
1312.13
1310.39
1323.68
1330.35
1330.77
1331.58
1331.52
1304.56
1252.6
1252.75
1253.16
1267.85
1330.98
1339.66
1340.26
1335.75
1325.3
1330.68
1340.98
1341.89
1342.1
1342.14
1342.13
1331.09
1315.9
1290.74
1291.54
1292.49
1292.97
1315.57
1347.19
1347.24
1347.29
1347.55
1347.95
1348.46
1349
1349.33
1349.75
1336.92
1333.32
1332.24
1328.15
1271.02
1249.24
1250.02
1250.95
1250.55
1251.94
1253.74
1255.3
1256.31
1258.98
1323.93
1342.3
1317.55
1312.43
1312.88
1312.97
1312.74
1341.29
1335.3
1337.16
1336.78
1337.98
1334.66
1298.87
1293.61
1310.03
1344.99
1349.35
1348.66
1348.39
1348.45
1348.82
1349.34
1349.78
1350.27
1347.56
1334.75
1336.27
1331.26
1261.57
1247.45
1249.11
1251.17
1278.83
1320.28
1321.52
1316.66
1271.75
1298.02
1339.8
1341.7
1341.62
1340.72
1340.54
1340.27
1336.24
1339.21
1306.51
1305.06
1305.39
1323.77
1337.57
1341.17
1341.79
1336.73
1349.7
1351.16
1350.31
1349.3
1348.75
1348.71
1348.97
1349.77
1350.09
1350.4
1342.23
1334.99
1334.19
1314.47
1300.23
1291.32
1294.29
1308.45
1311.63
1281.04
1311.44
1330.36
1331.4
1332.07
1331.22
1337.49
1339.81
1336.71
1338.86
1339.86
1339.63
1338.6
1313.61
1303.54
1304.74
1325.92
1316.57
1323.72
1349.33
1351.28
1352.09
1351.44
1349.85
1347.82
1346.7
1347.47
1348.73
1349.12
1349.54
1349.54
1348.23
1337.68
1316.39
1197.45
1113.14
1112.69
1153.37
1300.57
1282.8
1270.05
1270.57
1269.77
1295.12
1302.82
1282.13
1281.02
1311.7
1289.16
1259.47
1222.5
1326.17
1339.63
1339.81
1329.77
1339.13
1328.99
1211.77
1300.31
1348.28
1350.23
1350.69
1349.12
1346.1
1314.64
1298.05
1346.79
1347.84
1348.7
1349.34
1348.37
1346.14
1327.19
1118.25
1118.04
1113.83
1114.42
1144.4
1187.22
1264.95
1310.34
1317.43
1343.69
1343.18
1306.19
1299.36
1280.85
1292.78
1292.44
1126.87
1089.06
1235.78
1340.6
1340.98
1339.8
1339.13
1290.44
1199.1
1252.76
1347.34
1349.19
1349.78
1348.45
1314.8
1237.31
1238.84
1319.15
1350.29
1351.23
1351.58
1350.24
1275.64
1281.13
1340.83
1342.7
1335.17
1320.09
1346.04
1346.72
1347.13
1347.33
1346.86
1344.24
1344.02
1342.71
1341.1
1335.95
1171
1072.14
1080.23
1082.63
1256.16
1342.29
1340.74
1339.43
1306.41
1188.23
1191.29
1193.92
1327.51
1346.6
1342.02
1350
1316.77
1237.93
1238.94
1239.99
1297.27
1316.23
1328.71
1320.32
1241.68
1273.69
1337.79
1342.36
1345.62
1347.8
1349.23
1350.15
1350.36
1344.34
1337.27
1335.52
1343
1344.12
1340.59
1265.34
1084.84
1070.01
1225.45
1352.06
1348.33
1345.28
1342.87
1329.99
1211.19
1188.53
1190.77
1192.34
1198.81
1199.98
1237.69
1339.96
1345.91
1321.4
1241.55
1242.52
1242.7
1243.53
1243.18
1244.13
1244.42
1279.69
1320.07
1333.92
1344.65
1346.41
1343.68
1338.18
1339.63
1339.16
1337.78
1343.71
1344.6
1345.24
1226.34
1061.51
1062.64
1062.76
1238.48
1353.84
1351.55
1348.92
1346.83
1296.76
1189.2
1190.91
1193.43
1194.89
1194.92
1195.57
1196.62
1213.74
1339.44
1361.39
1339.81
1288.31
1258.33
1245.96
1246.1
1257.56
1270.76
1305.53
1329.58
1336.53
1341.13
1335.35
1332.89
1344.5
1347.66
1347.38
1345.78
1344.49
1344.63
1346.66
1224.05
1062.17
1064.75
1156.57
1359.31
1358.27
1356.53
1354.64
1353.34
1300.25
1193.43
1195.6
1197.49
1198.31
1198.22
1198.26
1198.7
1199.07
1292.82
1363.4
1364.75
1363.91
1355.36
1328.68
1303.42
1351.31
1360.67
1312.28
1188.8
1253.97
1266.78
1082.04
1042.86
1243.69
1320.65
1342.94
1342.97
1342.85
1344.41
1348.41
1235.11
1064.78
1165.65
1362.07
1362.76
1354.49
1348.44
1362.35
1356.54
1256.08
1200.43
1201.25
1201.48
1201.08
1200.66
1200.37
1200.8
1200.64
1329.27
1366.05
1367.03
1367.57
1367.83
1368.03
1368.18
1368.69
1368.79
1311.16
881.438
883.791
1051.43
942
943.785
944.182
1002.24
1298.01
1338.81
1344.52
1348.1
1347.56
1295.74
1305.79
1361.91
1365.04
1343.4
1253.49
1297.54
1371.26
1326.41
1204.09
1204.32
1206.28
1289.53
1290.81
1284.47
1282.24
1287.51
1312.69
1366.04
1369.42
1369.58
1369.81
1369.95
1370.07
1370.18
1370.4
1370.5
1312.78
892.551
1071.1
1111.05
938.856
937.616
938.972
940.749
949.352
1273.16
1349.29
1354.5
1359.22
1309.65
1273.75
1343.55
1355.8
1322.67
1212.63
1335.27
1369.33
1366.95
1351.08
1273.29
1211.82
1271.33
1314.14
1323.79
1349.81
1370.71
1375.95
1373.94
1372.2
1371.45
1371.83
1371.81
1371.83
1371.89
1372.1
1372.27
1350.12
1328.51
1332.64
1336.03
1330.08
1055.34
943.49
938.963
979.801
1229.22
1351.62
1357.35
1363.01
1266.13
1203.67
1206.95
1207.23
1308.35
1199.44
1248.72
1356.91
1371.85
1241.28
1128.97
1129.5
1128.79
1127.81
1129.03
1203.72
1286.91
1330.47
1311.12
1222.24
1221
1251.23
1267.94
1314.29
1354.19
1373.83
1374.12
1374.45
1323.2
1325.56
1328.29
1331.51
1335.31
1338.59
1340.37
1280.62
1194.94
1347.68
1355.3
1363.55
1370.79
1375.01
1289.61
1212.29
1168.69
1164.73
1159.96
1158.07
1253.46
1350.53
1348.9
1227.61
1102.74
1143.06
1178.76
1174.47
1180.18
1329.05
1329.6
1327.86
1217.61
1214.74
1214.25
1213.43
1213.9
1247.1
1351.36
1377.11
1198.65
1287.04
1321.71
1327.04
1333.78
1324.09
1289.53
1131.07
1026.07
1177.39
1345.15
1360.35
1368.43
1374.07
1379.17
1383.37
1384.79
1374.53
1324.63
1322.39
1314.09
1164.04
1016.2
1017.74
1018.52
1016.62
1015.21
1013.71
1010.15
1146.67
1301.89
1353.7
1375.82
1374.88
1368.89
1262.28
1216.28
1217.36
1283.95
1380.32
863.983
959.18
1292.2
1336.3
1332.11
1287.09
971.096
656.069
588.53
631.832
959.084
1298.38
1365.84
1372.53
1378.96
1382.92
1377.86
1386.41
1386.31
1385.62
1387.39
1360.79
1020.12
1019.19
1017.14
1015.22
1018.03
1050.53
1013.59
1008.39
1028.03
1251.71
1380.33
1379.73
1379.03
1374.28
1365.73
1356.31
1309.29
1374.65
875.869
925.621
1188.92
1320.52
1333.18
1314.27
741.872
574.149
575.991
574.965
574.303
837.261
1263.23
1360.91
1382.22
1382.24
1275.27
1269.76
1389.77
1396.43
1395.65
1374.42
1113.59
1026.53
1165.61
1278.02
1299.54
1292.68
1282.8
1197.19
1249.02
1349.62
1378.37
1375.93
1374.38
1375.32
1373.36
1350.1
1364.41
1376.41
1110.75
1089.93
952.833
764.685
921.254
1101.98
658.071
562.015
563.541
562.399
560.345
686.395
1055.2
1155.72
1288.75
1385.61
1260.15
1165.92
1164.17
1398.95
1409.72
1405.86
1396.72
1400.75
1397.38
1391.96
1366.43
1105.71
819.356
804.117
830.893
926.802
988.807
1015.88
943.622
1098.08
959.355
957.515
1298.42
1377.36
888.959
641.016
553.979
554.051
553.021
632.833
594.787
552.944
552.471
550.296
546.467
870.005
1070.52
1092.86
1107.27
1170.46
1285.43
1213.95
1105.25
1156.86
1426.81
1419.24
1412.43
1406.39
1400.92
1393.36
1174.15
809.9
806.409
804.362
802.943
818.586
794.648
791.832
789.861
786.408
786.762
786.768
964.942
1387.27
787.754
557.478
555.094
554.697
554.34
553.522
552.139
551.146
549.346
546.885
544.287
655.826
1280.11
1383.47
1207.43
1150.23
1175.41
1321.16
1171.66
1135.19
1415.67
1428.16
1417.71
1410.15
1403.02
1396.78
1391.13
1228.59
848.075
808.942
1106.34
1111.98
1024.62
788.843
785.893
784.647
783.907
782.504
783.012
933.657
1371.93
946.088
587.927
555.361
554.81
554.594
554.016
551.703
548.671
546.361
545.732
664.534
1263.6
1394.86
1405.25
1388.22
1233.77
1209.54
1279.1
1279.87
1195.46
1215.77
1404.06
1411.99
1403.45
1399.03
1396.18
1394.72
1394.21
1320.99
1086.04
999.262
1198.36
1204.2
1188.78
825.751
801.376
1041.35
1012.63
976.73
1408.11
1410.15
1230.94
985.988
803.091
685.905
672.713
804.494
1029.15
970.655
910.57
1108.63
1381.15
1400.43
1405.79
1417.11
1429.5
1276.14
1224.33
1275.01
1129.88
1100.45
1085.9
1140.15
1257.73
1403.33
1399.16
1394.53
1389.89
1342
984.044
950.422
950.251
1032.53
1279.69
1313.13
1350.56
1359.69
1363.16
1351.07
1408.66
1410.98
1413.19
1412.96
1412.18
1410.89
1408.61
1405.5
1397.97
1388.98
1382.53
1380.37
1380.12
1381.98
1377.89
1387.06
1402.85
1413.71
1421.66
1348.63
1168.28
1077.02
1072.94
1070.98
1119.59
1363.76
1357.39
1383.38
1383.68
1381.38
1296.02
972.629
947.289
976.761
955.151
958.992
971.341
1269.19
1378.09
1379.92
1404.42
1406.48
1406.58
1403.11
1397.43
1391.28
1383.95
1376.25
1366.86
1357.33
1348.49
1341.85
1283.41
1212.99
1296.1
1348.14
1365.8
1376.37
1384.87
1389.09
1242.9
1050.81
1050.24
1050.23
1158.1
1344.27
1332.06
1320.14
1144.32
1032.24
1115.62
1217.68
1235.44
1243.23
1196.47
1026.57
941.648
943.591
1272.43
1378
1402.59
1398.89
1393.38
1385.21
1375.06
1363.87
1352.03
1339.24
1327
1315.74
1302.65
1184.52
694.513
880.018
1245.94
1266.12
1188.72
1282.53
1341.32
1328.81
999.62
830.741
1134.21
1197.35
1296.66
1288.34
1080.7
874.296
491.904
395.087
392.104
613.048
943.8
1196.89
1342.49
1352.07
1128.35
947.762
1224.31
1383.94
1394.1
1385.25
1370.23
1337.66
1317.62
1320.92
1314.24
1299.44
1193.31
1178.3
1174.17
715.964
280.449
638.077
931.409
846.766
866.37
1213.27
1304.57
1282.98
779.132
786.298
1052.44
1264.75
1271.66
1272.84
1075.75
481.676
381.921
382.879
384.187
385.5
387.555
442.058
1153.37
1350.52
1361.57
1330.39
1346.16
1384.34
1346.8
1326.8
1276.56
996.552
919.698
1148.78
1267.31
1082.79
485.182
423.75
470.328
258.239
194.781
216.24
502.167
808.072
1098.45
1267.47
1290.99
1299.89
948.308
751.16
791.97
1216.15
1259.34
1215.91
681.522
448.148
663.405
1109.07
724.632
381.859
385.274
390.788
891.255
1354.78
1341.66
1379.83
1382.7
1385.9
1119.26
1034.1
827.035
746.687
699.614
696.919
506.859
198.503
270.998
233.073
190.124
190.313
192.007
193.812
194.648
201.804
351.412
1025.84
1279.72
1285.04
1278.1
837.006
426.489
781.325
1047.75
684.67
433.699
434.993
695.653
1161.28
1175.26
1052.89