/*--------------------------------*- C++ -*----------------------------------*\
  =========                 |
  \\      /  F ield         | OpenFOAM: The Open Source CFD Toolbox
   \\    /   O peration     | Website:  https://openfoam.org
    \\  /    A nd           | Version:  8
     \\/     M anipulation  |
\*---------------------------------------------------------------------------*/
FoamFile
{
    version     2.0;
    format      ascii;
    class       volScalarField;
    location    "4.3";
    object      alpha.water;
}
// * * * * * * * * * * * * * * * * * * * * * * * * * * * * * * * * * * * * * //

dimensions      [0 0 0 0 0 0 0];

internalField   nonuniform List<scalar> 
9150
(
1
1
1
1
1
1
1
1
1
1
1
1
1
1
1
1
1
1
1
1
1
1
1
1
1
1
1
1
1
1
1
1
1
1
1
1
1
1
1
1
1
1
1
1
1
1
1
1
1
1
1
1
1
1
1
1
1
1
1
1
1
1
1
1
1
1
1
1
1
1
1
1
1
1
1
1
1
1
1
1
1
1
1
1
1
1
1
1
1
1
1
1
1
1
1
1
1
1
1
1
1
1
1
1
1
1
1
1
1
1
1
1
1
1
1
1
1
1
1
1
1
1
1
1
1
1
1
1
1
1
1
1
1
1
1
1
1
1
1
1
1
1
1
1
1
1
1
1
1
1
1
1
0.999998
0.999997
0.999997
1
1
1
1
1
1
1
1
1
1
0.999993
0.999991
0.999993
0.999999
1
0.999996
1
1
1
1
1
0.999995
0.999991
0.999991
0.999999
1
1
1
1
0.999998
0.999991
0.999991
0.999991
0.999993
1
1
1
1
1
0.999997
0.999998
0.999998
0.999997
0.999999
1
1
1
1
1
1
1
1
1
1
1
1
1
1
1
1
1
1
1
1
1
1
1
1
1
1
1
1
1
0.999992
0.999987
1
1
1
1
1
1
0.999992
0.999988
0.999988
0.99999
1
1
1
1
1
0.999989
0.999989
0.999991
0.999997
0.999999
1
0.999987
0.999984
0.999984
0.999993
0.999996
0.999999
0.999999
0.999999
0.999999
0.999999
0.999987
0.999987
0.999998
0.999998
0.999999
0.999999
0.977879
0.99183
0.994203
1
1
1
1
0.996595
0.976315
0.959881
0.959934
0.969634
0.999059
1
1
0.971692
0.94339
0.940247
0.940576
0.94075
0.973578
0.999999
0.999988
0.945963
0.968045
0.940007
0.940007
0.940007
0.961762
0.994023
0.997981
1
1
0.953151
0.941537
0.941526
0.988789
0.992753
0.998706
1
1
1
1
0.981886
0.96982
0.995145
0.999927
0.99996
0.999974
1
1
1
1
0.999708
0.999534
0.999572
0.999751
1
1
1
1
0.999981
0.999944
0.999783
0.99944
0.999977
0.999992
0.999999
1
1
1
0.999999
0.999641
0.999988
0.999991
0.999991
0.999991
0.999999
0.999941
0.998292
0.996069
0.996792
0.997351
0.999985
0.999329
0.994304
0.991217
0.994059
0.992791
0.960806
0.955089
0.955089
0.955083
0.971309
0.968555
0.977585
0.992747
0.993597
0.983473
0.955435
0.955095
0.9785
0.986147
0.947977
0.989479
0.989521
0.987299
0.957638
0.963515
0.995518
0.995144
0.96998
0.969862
0.968965
0.989523
0.968442
0.957127
0.957267
0.967358
0.999846
0.999765
0.997679
0.996656
0.989165
0.957014
0.95656
0.956626
0.979384
0.999845
0.999845
0.999846
0.999844
0.999825
0.991475
0.960725
0.956559
0.956559
0.982322
0.999843
0.999846
0.999844
0.999826
0.999778
0.992412
0.979097
0.95656
0.956596
0.982457
0.999846
0.999843
0.99981
0.999582
0.997963
0.992512
0.97319
0.956597
0.960587
0.998372
0.999843
0.999846
0.999816
0.999701
0.999441
0.982578
0.95008
0.968072
0.998359
0.999566
0.999825
0.994479
0.9893
0.989411
0.990296
0.904941
0.964588
0.998769
0.99947
0.999391
0.996148
0.989362
0.989328
0.989362
0.989445
0.902649
0.97439
0.999486
0.999486
0.999471
0.999277
0.993271
0.989362
0.989438
0.995851
0.931774
0.999488
0.999488
0.999485
0.999486
0.999471
0.998722
0.997921
0.99808
0.999814
0.937967
0.999255
0.999486
0.995298
0.984746
0.99738
0.999951
0.999952
0.999954
0.999955
0.982181
0.999094
0.997036
0.983853
0.984114
0.988846
0.999952
0.999953
0.999953
0.999954
0.998162
0.998853
0.99008
0.983853
0.983853
0.991885
0.999952
0.999952
0.999954
0.999736
0.997777
0.998175
0.994045
0.983853
0.987331
0.999859
0.99995
0.999948
0.992718
0.985843
0.997777
0.997778
0.997767
0.995886
0.99642
0.999567
0.836445
0.641586
0.941794
0.999956
0.997781
0.997777
0.997758
0.997499
0.990869
0.705966
0.542737
0.55299
0.811394
0.999973
0.997778
0.99776
0.997488
0.977998
0.650024
0.533872
0.538304
0.542737
0.887919
0.999973
0.997692
0.997513
0.98711
0.686084
0.531412
0.532642
0.533872
0.671285
0.999948
0.999973
0.997375
0.996483
0.836258
0.531358
0.531378
0.531412
0.568418
0.971087
0.999352
0.999353
0.996437
0.994733
0.737022
0.53256
0.531412
0.560561
0.919791
0.998749
0.998879
0.997786
0.450568
0.537093
0.555075
0.72372
0.779439
0.918578
0.996573
0.995404
0.991831
0.997909
0.22509
0.239641
0.608056
0.999063
0.999128
0.99966
0.997105
0.970466
0.964054
0.983185
0.22367
0.225689
0.642214
0.999827
0.999888
0.999921
0.998489
0.972055
0.964061
0.964044
0.223597
0.249834
0.782131
0.999888
0.99992
0.999932
0.999891
0.99306
0.979036
0.966046
0.221781
0.44856
0.94709
0.999876
0.999887
0.999933
0.99994
0.999963
0.999455
0.99755
0.387794
0.83796
0.997915
0.999841
0.999826
0.999857
0.999941
0.999969
0.999994
0.999997
0.868586
0.997401
0.999937
0.999961
0.999878
0.999854
0.999854
0.999955
0.999997
0.999998
0.999658
0.999968
0.999995
0.999996
0.999984
0.999949
0.99986
0.999952
0.999998
0.999998
0.999984
0.999994
0.999996
0.999996
0.999996
0.999996
0.999957
0.999953
0.999991
0.999979
0.999998
0.999994
0.999994
0.999996
0.999996
0.999994
0.999996
0.999997
0.999997
0.999883
0.999998
0.99999
0.999989
0.99999
0.999997
0.999998
0.999998
0.999997
0.999997
0.999997
0.999998
0.999989
0.999989
0.999996
0.999998
0.999998
0.999986
0.999955
0.999965
0.999925
0.999935
0.999993
0.999997
0.999998
0.999998
0.999998
0.999903
0.999881
0.999881
0.999961
0.999891
0.999996
0.999997
0.999998
0.999998
0.999972
0.999883
0.999882
0.999958
0.99996
0.999951
0.999993
0.999997
0.999997
0.999995
0.999988
0.999953
0.999992
0.999978
0.999657
0.999994
0.999993
0.999996
0.99999
0.999989
0.999996
0.999996
0.999996
0.999929
0.998118
0.999997
0.999996
0.999994
0.999986
0.999992
0.999996
0.999996
0.999996
0.999977
0.998873
0.999998
0.999997
0.99999
0.999986
0.999993
0.999996
0.999996
0.999996
0.999996
0.999996
0.999998
0.999998
0.999989
0.999986
0.999994
0.999996
0.999996
0.999995
0.999996
0.999997
0.999998
0.999998
0.99998
0.999986
0.999996
0.999996
0.999996
0.999996
0.999997
0.999997
0.999998
0.999938
0.999893
0.999961
0.999996
0.999994
0.999988
0.999994
0.999997
0.999997
0.999976
0.999924
0.999762
0.999768
0.999924
0.99994
0.999946
0.99999
0.999996
0.999996
0.999214
0.999881
0.999016
0.998416
0.999514
0.999932
0.999974
0.999995
0.999996
0.999996
0.992496
0.995103
0.984206
0.99264
0.99988
0.999975
0.999993
0.999995
0.999995
0.999996
0.644881
0.721358
0.939522
0.998127
0.999609
0.999918
0.999988
0.999993
0.999995
0.999994
0.482733
0.488222
0.674071
0.985233
0.999318
0.999879
0.999971
0.999989
0.999993
0.999977
0.473291
0.482736
0.811347
0.997466
0.999544
0.999839
0.999909
0.999978
0.999975
0.999709
0.458418
0.686895
0.989947
0.999206
0.999567
0.999662
0.999855
0.999952
0.999721
0.974238
0.446566
0.907484
0.9979
0.999013
0.999254
0.999568
0.999638
0.999407
0.977887
0.651793
0.30572
0.862748
0.996342
0.998001
0.999013
0.999172
0.967014
0.940474
0.607048
0.531143
0.255221
0.848411
0.991782
0.996675
0.997497
0.93884
0.650567
0.617268
0.609999
0.658661
0.78437
0.97659
0.984386
0.969993
0.810881
0.565068
0.587097
0.621074
0.851809
0.998984
0.96413
0.970641
0.894815
0.578893
0.544294
0.544294
0.658128
0.992311
0.999651
0.999922
0.962038
0.81823
0.3823
0.389531
0.55895
0.878833
0.999434
0.999879
1.00004
0.999998
0.868994
0.19605
0.200991
0.589303
0.995153
0.999122
0.999856
0.999991
0.999996
0.999999
0.259937
0.0841276
0.404973
0.974556
0.999076
0.999914
0.999975
0.999996
1
0.999999
0.0315107
0.0779797
0.880387
0.998594
0.999958
0.999971
1
0.999999
1
0.999999
0.031144
0.459128
0.986315
0.999574
0.999963
0.999999
0.999999
1
1
1
0.0295585
0.69131
0.997845
0.999819
0.99998
0.999998
1
1
1
1
0.0636597
0.823241
0.998904
0.999913
0.999993
0.999999
1
1
1
1
0.185917
0.900795
0.999471
0.999962
0.999997
1
1
1
1
1.00001
0.253096
0.944844
0.999746
0.999984
0.999999
1
1
1
1
1.00003
0.342131
0.977504
0.999899
0.999994
1
1
1
1
1
1
0.463157
0.993701
0.999967
0.999998
1
1
1
1
1
1
0.554162
0.998463
0.999989
0.999999
1
1
1
1
1
1.00001
0.616935
0.999833
0.999996
1
1
1
1
1
1
0.981379
0.648959
0.999883
0.999997
1
1
1
1
1
1
0.909599
0.681247
0.999903
0.999998
1
1
1
1
1
1
0.87542
0.711422
0.999922
0.999998
1
1
1
1
1
1
0.84645
0.744787
0.999953
0.999999
1
1
1
1
1
1
0.819413
0.771868
0.999978
1
1
1
1
1
1
1
0.79038
0.785622
0.999836
0.999999
1
1
1
1
1
1
0.773375
0.789149
0.999678
0.999999
1
1
1
1
1
0.999779
0.771258
0.788904
0.99985
1
1
1
1
1
1
1.00001
0.799843
0.807837
0.999992
1
1
1
1
1
1
1.00003
0.828567
0.858942
1
1
1
1
1
1
1
1
0.864428
0.896077
1
1
1
1
1
1
1
1
0.907221
0.950667
1
1
1
1
1
1
1
1
0.952722
1
1
1
1
1
0.999983
0.999986
0.999998
1
1
1
1
1
1
1
1
1
1
1
1
1
1
1
0.999786
0.999672
0.999686
0.999966
1
1
1
1
0.999997
0.999999
1
1
1
0.999999
0.999997
0.999927
0.999886
1
0.999998
0.999984
0.999983
0.999983
0.999983
0.999984
0.999998
1
1
1
1
1
0.999995
0.999993
0.999994
1
1
1
1
1
1
0.999998
0.999997
1
0.999648
0.999543
0.999733
0.999998
1
1
0.999998
0.999995
0.999999
1
1
1
0.999999
0.99998
0.999924
1
0.99999
0.999984
0.999986
0.999998
1
0.999999
0.999989
0.999996
1
1
1
1
0.999995
0.999993
0.999994
1
1
1
1
1
0.999999
0.999999
1
1
0.99969
0.999543
0.999574
0.999963
1
1
0.999997
0.999995
0.999998
1
1
1
1
1
1
1
0.999998
0.999993
0.999997
1
1
0.999999
0.999988
0.999989
0.999998
1
1
1
0.999994
0.999994
0.999999
1
1
1
0.999999
0.999997
0.999998
1
1
1
0.999616
0.999543
0.999639
0.999984
1
1
0.999999
0.999998
0.999999
0.999999
1
1
1
1
1
1
0.999997
0.999992
0.999999
1
1
0.999993
0.999988
0.999988
0.999997
1
1
0.999997
0.999994
0.999997
1
1
0.999999
0.999882
0.999939
0.999999
1
1
1
0.999861
0.99955
0.99955
0.999912
1
1
1
1
1
1
0.999954
0.985065
0.990112
1
1
1
1
0.999989
0.999989
0.999999
1
0.999991
0.999988
0.999988
0.999993
0.999999
0.999999
0.999997
0.999997
0.999998
1
1
1
0.999895
0.999812
0.999853
0.999993
1
1
1
0.999676
0.999553
0.999813
1
1
1
1
1
1
0.999391
0.983296
0.978556
0.978556
0.986781
0.985354
0.981542
0.999989
0.999987
0.999993
0.999997
0.999988
0.999988
0.99999
0.999998
0.999999
0.999998
0.999996
0.999998
1
1
1
1
0.999893
0.999812
0.999812
0.999882
0.999998
1
1
0.999863
0.999652
0.999759
0.999995
1
1
0.999996
0.999996
1
1
0.992217
0.978556
0.978556
0.978556
0.978556
0.97857
0.978586
0.999987
0.99999
0.999999
0.999999
0.999993
0.999997
0.999998
0.999998
0.999982
0.99998
0.999994
1
1
1
0.999995
0.999849
0.999812
0.999812
0.99987
0.999989
1
1
0.999946
0.999794
0.999807
0.999988
1
1
1
0.999887
0.999979
1
1
0.994498
0.982052
0.980833
0.989781
0.981641
0.978586
0.985744
0.999996
1
1
1
1
0.999991
0.999963
0.999963
0.999963
0.999984
0.999999
1
1
0.999944
0.999818
0.999813
0.999813
0.999925
0.999996
1
1
0.999984
0.999823
0.999847
0.999993
1
1
0.996291
0.998114
0.999976
0.999996
1
1
0.999165
0.997903
0.99788
0.997839
0.996955
0.9959
0.998656
1
1
1
0.99926
0.999495
0.999969
0.999969
0.999971
0.999985
0.999999
1
1
0.99994
0.999812
0.999812
0.999878
0.999971
1
1
1
1
0.999854
0.999823
0.99996
1
1
0.992672
0.952336
0.986226
1
1
1
0.999833
0.999367
0.997798
0.987314
0.982494
0.997354
0.998698
0.998698
0.999396
0.991847
0.990114
0.993156
0.999833
0.999989
0.999998
0.999999
1
1
1
0.99999
0.999902
0.999886
0.999955
0.999996
1
1
1
0.999997
0.999877
0.999838
0.999862
0.999996
0.999999
0.992797
0.951395
0.951344
0.961081
1
0.997957
0.977942
0.981295
0.998425
0.991557
0.973588
0.973562
0.976027
0.987106
0.996684
0.987927
0.987927
0.988017
0.998174
1
0.999999
1
1
1
0.999997
0.999995
0.999988
0.999985
0.999998
0.999999
0.999999
0.999997
0.999989
1
0.999966
0.999871
0.999871
0.999981
0.999996
0.99048
0.951284
0.95129
0.951295
0.965264
0.999313
0.976928
0.974781
0.974787
0.998695
0.992474
0.973845
0.973562
0.973562
0.973562
0.990244
0.992918
0.99184
0.998806
1
1
1
0.999969
0.999894
0.999978
1
0.999998
0.999999
0.999999
0.999998
0.999869
0.99965
0.999906
0.999994
0.999994
0.999988
0.999986
0.999988
0.999987
0.998846
0.964597
0.951316
0.951295
0.957556
0.987458
0.977406
0.974775
0.974775
0.992509
0.99949
0.998271
0.993868
0.97989
0.973562
0.973562
0.991965
0.999872
0.999837
0.999999
0.999999
0.999971
0.999783
0.99978
0.999808
1
1
1
1
0.999999
0.999197
0.998087
0.999902
0.999987
0.999993
0.999994
0.999984
0.999941
0.999994
0.99999
0.998347
0.962404
0.95131
0.965033
0.997315
0.993092
0.976921
0.986181
0.997063
0.99997
0.999891
0.999924
0.999928
0.998133
0.987997
0.99194
0.997903
1
0.999999
0.999974
0.999795
0.999766
0.999766
0.999837
0.999999
1
1
0.999705
0.962167
0.935776
0.992258
0.999984
0.999985
0.999986
0.999965
0.999442
0.999266
0.999864
1
1
0.998796
0.988795
0.986226
0.99713
0.999732
0.998761
0.998222
0.999754
0.99997
0.99997
0.999967
0.999938
0.999938
0.999925
0.999918
0.99985
0.999843
1
0.999852
0.999688
0.999688
0.999908
0.999934
0.999936
0.999968
0.984342
0.933182
0.929082
0.929549
0.935351
0.998959
0.999983
0.999984
0.999817
0.999247
0.999247
0.99926
0.999932
1
0.999991
0.999952
0.999979
0.999946
0.999913
0.999911
0.999914
0.99997
0.99997
0.99997
0.99997
0.999948
0.999436
0.999263
0.99981
0.999918
0.999917
0.999876
1
0.9999
0.999688
0.99969
0.999905
0.996974
0.950787
0.928745
0.928596
0.928599
0.928598
0.968547
0.999486
0.997786
0.999982
0.999937
0.999263
0.999247
0.999308
0.999991
1
1
1
1
1
0.999897
0.999809
0.99986
0.99997
0.99997
0.99997
0.99997
0.999942
0.999594
0.99922
0.99922
0.99922
0.999792
0.99998
0.999902
0.999979
0.999975
0.999966
0.998994
0.952799
0.929277
0.92917
0.929027
0.985516
0.990463
0.990222
0.998586
0.999497
0.999217
0.999215
0.99965
0.999933
0.999892
0.999967
1
1
1
1
0.999992
0.999978
0.999815
0.999809
0.999881
0.99997
0.99997
0.999969
0.999926
0.999767
0.999222
0.99922
0.99922
0.999248
0.999827
0.999988
0.999977
0.998296
0.997482
0.997485
0.998109
0.994718
0.94557
0.929232
0.929178
0.962878
0.999511
0.999541
0.999487
0.999664
0.999931
0.999932
0.999933
0.999933
0.999948
0.999965
0.990601
0.871659
0.829843
0.850573
0.99387
0.999989
0.999989
0.999983
0.999983
0.999952
0.999934
0.999922
0.999908
0.999835
0.999787
0.999705
0.999763
0.999894
0.99996
0.999988
0.999991
0.967256
0.951525
0.951526
0.951813
0.949976
0.94941
0.965607
0.998445
0.998492
0.999469
0.999536
0.99958
0.999648
0.99992
0.951884
0.822842
0.822768
0.826316
0.857119
0.831602
0.829333
0.829375
0.834038
0.96042
0.999989
0.999989
0.999987
0.999981
0.999939
0.999933
0.999968
0.999981
0.999978
0.999979
0.99999
0.99999
0.99999
0.999992
0.999992
0.999992
0.955094
0.963855
0.987698
0.987706
0.987692
0.987649
0.9801
0.976514
0.976566
0.996645
0.999546
0.999561
0.969013
0.822907
0.822663
0.822663
0.822663
0.823003
0.823435
0.826926
0.939897
0.999965
0.999968
0.999977
0.999985
0.999988
0.999985
0.99998
0.999967
0.999963
0.99997
0.999981
0.999188
0.995569
0.998759
0.999981
0.999992
0.999992
0.999992
0.999992
0.986184
0.986149
0.969011
0.966798
0.966785
0.966798
0.970406
0.998048
0.999488
0.999491
0.999501
0.999507
0.999363
0.987568
0.862442
0.822708
0.866612
0.999492
0.999492
0.999499
0.999627
0.999757
0.999963
0.999968
0.999979
0.999977
0.999966
0.999924
0.999951
0.99995
0.999965
0.999968
0.997705
0.983691
0.937761
0.933462
0.957664
0.991162
0.99953
0.997933
0.969851
0.969862
0.973036
0.996357
0.997627
0.99789
0.999358
0.999368
0.999392
0.999346
0.999491
0.986201
0.863339
0.833151
0.894236
0.997636
0.997632
0.997887
0.998119
0.993687
0.991264
0.990272
0.981397
0.963494
0.957576
0.974342
0.981388
0.958473
0.938709
0.948511
0.986761
0.99428
0.997418
0.984373
0.873664
0.838231
0.838388
0.886924
0.930257
0.934487
0.996829
0.997009
0.997144
0.997274
0.997519
0.995775
0.876891
0.800244
0.800192
0.800207
0.805412
0.801915
0.774292
0.876782
0.96139
0.979279
0.997496
0.966525
0.761368
0.626247
0.605099
0.628203
0.605426
0.551074
0.544239
0.628332
0.634386
0.520058
0.438763
0.518281
0.72623
0.823991
0.898067
0.949659
0.933073
0.838672
0.838251
0.883185
0.933414
0.933934
0.999697
0.999299
0.986706
0.635158
0.341063
0.353507
0.69897
0.831817
0.831817
0.831785
0.831455
0.829588
0.675101
0.447483
0.450909
0.715264
0.999003
0.827749
0.426845
0.424892
0.424892
0.424892
0.425616
0.435782
0.48724
0.464715
0.419966
0.410737
0.408115
0.407273
0.407273
0.407273
0.428041
0.55482
0.664373
0.782828
0.875974
0.894995
0.90123
0.907286
0.999088
0.750201
0.342619
0.339043
0.339299
0.339958
0.370066
0.655284
0.5116
0.425294
0.42437
0.426492
0.436732
0.439675
0.480434
0.843573
0.999598
0.999626
0.968511
0.628255
0.436503
0.465898
0.744721
0.964114
0.99927
0.999145
0.938409
0.740559
0.590248
0.502124
0.43844
0.418771
0.429096
0.435302
0.433075
0.433133
0.468371
0.50473
0.511241
0.542475
0.960647
0.513036
0.339043
0.339043
0.339043
0.339158
0.338082
0.491068
0.96559
0.999808
0.999807
0.999802
0.999502
0.975419
0.969048
0.98961
0.999626
0.999629
0.99963
0.999634
0.999645
0.999634
0.999628
0.999606
0.9995
0.99927
0.999162
0.999154
0.999164
0.999057
0.977374
0.90277
0.835245
0.764258
0.678101
0.543751
0.364042
0.293356
0.29154
0.29154
0.997451
0.970316
0.726009
0.382413
0.339299
0.519622
0.984372
0.998862
0.999809
0.999809
0.999809
0.999808
0.999791
0.999772
0.999678
0.999325
0.998764
0.999579
0.999632
0.999645
0.999655
0.999646
0.999612
0.995837
0.990613
0.999084
0.99915
0.999154
0.999058
0.998546
0.998319
0.998154
0.998171
0.998156
0.998171
0.998133
0.977389
0.698203
0.452731
0.334049
0.99738
0.998797
0.977141
0.938892
0.931153
0.978257
0.999789
0.999796
0.999805
0.999809
0.999809
0.999805
0.998393
0.993024
0.993024
0.993009
0.99302
0.995342
0.998634
0.99922
0.999655
0.999655
0.999605
0.998376
0.950565
0.904317
0.962546
0.998349
0.998527
0.998203
0.99804
0.99806
0.998169
0.998171
0.998137
0.996909
0.995921
0.995619
0.995604
0.931173
0.995321
0.999899
0.999816
0.999165
0.998509
0.997813
0.991214
0.988843
0.9964
0.999689
0.99979
0.999776
0.99939
0.994823
0.993035
0.993026
0.993094
0.993154
0.99316
0.996756
0.999655
0.999654
0.998817
0.9945
0.980975
0.828362
0.746355
0.784567
0.829879
0.863957
0.848634
0.867296
0.938437
0.961537
0.969792
0.982314
0.994216
0.995584
0.995234
0.994291
0.999949
0.999924
0.999912
0.999799
0.997543
0.972432
0.966307
0.9663
0.966298
0.980431
0.999744
0.998622
0.999222
1
1
0.999988
0.997473
0.993202
0.99523
0.99972
0.99973
0.999223
0.994609
0.991618
0.994798
0.978718
0.741515
0.600647
0.595078
0.590472
0.587584
0.585481
0.612281
0.631803
0.631901
0.662467
0.745523
0.864074
0.970315
0.986507
0.999955
0.999952
0.999939
0.999843
0.986589
0.966306
0.966301
0.966297
0.966293
0.966105
0.966067
0.978922
1
1
1
1
1
1
1
1
0.999542
0.997334
0.997544
1
1
1
1
0.897233
0.737497
0.658393
0.61208
0.586502
0.560339
0.550096
0.544352
0.541878
0.540187
0.538448
0.66402
0.878886
0.999955
0.999955
0.999952
0.999902
0.999503
0.999359
0.993202
0.968055
0.966293
0.966364
0.966483
0.972408
0.999356
1
0.999999
0.999997
1
1
1
1
1
1
1
1
1
1
1
1
0.999998
0.999979
0.98749
0.951518
0.895343
0.809078
0.698303
0.583292
0.538448
0.537555
0.537708
0.818008
0.999955
0.999952
0.999866
0.996805
0.995638
0.999986
0.999991
0.999991
0.999881
0.998637
0.990397
0.988376
0.999778
0.999999
0.999974
0.999958
0.999997
1
1
1
1
1
1
1
1
1
1
1
1
0.999998
0.99998
0.999842
0.999435
0.99895
0.99863
0.965107
0.775931
0.543144
0.537565
0.817992
0.998712
0.996066
0.994766
0.994278
0.994644
0.998811
0.999991
0.999991
0.999992
0.999998
0.999999
1
1
0.999971
0.999956
0.999956
0.99999
1
0.999999
1
1
1
1
1
1
1
1
1
0.999999
0.999992
0.997733
0.99247
0.991566
0.994517
0.998082
0.999256
0.999826
0.849161
0.538455
0.84679
0.998132
0.996958
0.994237
0.99424
0.994278
0.99862
0.999993
0.999985
0.999805
0.999762
0.999936
1
1
1
0.999999
0.999999
0.999998
0.999998
0.999999
1
1
1
1
1
1
1
0.999999
0.999999
1
1
0.997005
0.988112
0.987998
0.988003
0.989087
0.996887
0.999883
0.998275
0.712275
0.836148
0.999939
0.997164
0.99424
0.994234
0.994878
0.999988
0.999997
0.999885
0.99976
0.999759
0.999825
1
1
1
1
1
1
1
1
1
1
1
1
1
1
1
0.999999
0.999999
1
1
1
0.998985
0.991842
0.988003
0.988286
0.989957
0.999887
0.999663
0.999577
0.901388
0.999972
0.999694
0.997697
0.997169
0.999537
0.999998
0.999998
0.999997
0.999887
0.99978
0.99999
1
1
1
1
1
1
1
1
1
1
1
1
1
1
1
1
1
1
1
1
1
1
0.998188
0.992656
0.998013
0.99992
0.998781
0.994534
0.929032
0.999973
0.999972
0.999974
0.999999
0.999999
0.999998
0.999998
0.999998
0.999998
0.999998
0.999999
0.999999
0.999988
0.999985
0.999997
1
1
1
1
1
1
1
1
1
1
1
1
1
0.999999
0.999999
1
1
1
1
1
1
0.999965
0.996908
0.934845
0.884003
0.999648
0.998238
0.999854
1
1
0.999992
0.999979
0.999979
0.999994
0.999998
0.999997
0.999996
0.999987
0.999949
0.999962
1
1
1
0.999999
0.999999
1
1
1
1
1
1
1
1
0.999999
0.999999
0.999999
1
1
1
1
1
0.999998
0.995277
0.890557
0.881139
0.990653
0.988911
0.995799
1
1
1
0.999999
0.999948
0.999702
0.999624
0.999941
0.999949
0.999975
0.999944
0.999949
0.999998
1
0.999999
0.999997
0.999997
0.999998
0.999999
1
1
1
1
1
1
0.999999
0.999999
0.999999
1
1
1
1
1
0.999999
0.99844
0.940884
0.881138
0.988911
0.988911
0.989212
0.999942
1
1
1
0.999998
0.999853
0.993781
0.989851
0.998482
0.999751
0.999917
0.99994
0.999948
0.999972
0.999996
0.999983
0.999985
0.999985
0.999991
0.999996
0.999998
0.999999
1
1
1
0.999999
0.999999
1
1
1
1
1
0.999999
0.999999
0.999993
0.992475
0.881139
0.996992
0.991277
0.993484
0.999916
1
1
1
0.999999
0.999995
0.999851
0.915514
0.728172
0.768502
0.999399
0.999919
0.999916
0.999672
0.999967
0.999843
0.99987
0.999863
0.99992
0.999961
0.999984
0.999995
0.999999
1
0.999999
0.999998
0.999999
0.999998
0.999998
1
1
1
0.999999
0.999999
0.999999
0.995319
0.881148
0.99893
0.999622
0.999766
0.999983
1
1
1
1
0.999998
0.999993
0.975373
0.445637
0.181933
0.607842
0.99957
0.99986
0.999204
0.998392
0.998847
0.998846
0.998777
0.999312
0.999665
0.999873
0.999957
0.999989
0.999998
0.999999
0.999996
0.999975
0.999927
0.99999
1
1
1
1
1
0.999999
0.99611
0.881218
0.970664
0.997754
0.999999
1
1
0.999998
0.999998
0.999999
0.999999
0.999779
0.999854
0.830883
0.175616
0.14461
0.732476
0.988371
0.998839
0.997068
0.990331
0.908084
0.908346
0.978741
0.997337
0.998978
0.999656
0.999915
0.999983
0.999996
0.999993
0.999925
0.999885
0.999981
1
1
1
1
1
1
0.998365
0.882626
0.973316
0.995343
0.999993
0.999998
1
0.999999
0.999999
1
0.999859
0.999517
0.999862
0.999893
0.480461
0.144537
0.204761
0.622917
0.964616
0.995747
0.877414
0.328508
0.24863
0.489793
0.782431
0.964589
0.997622
0.999347
0.999877
0.999977
0.999986
0.999889
0.999886
0.999984
1
0.999999
0.999999
1
1
1
0.999486
0.943144
0.997736
0.998325
0.999587
0.999998
0.999999
0.999999
0.999999
1
0.999687
0.99939
0.999692
0.999914
0.999965
0.493171
0.218636
0.224549
0.454174
0.668768
0.399253
0.0218128
0.00142917
0.0121967
0.13804
0.451153
0.835107
0.993615
0.999099
0.999837
0.99995
0.999782
0.999954
0.999992
1
0.999999
0.999999
0.999999
1
1
0.999857
0.968363
0.999994
0.999997
0.999961
0.999985
0.999998
0.999995
0.999998
1
0.999516
0.999385
0.999387
0.999707
0.999986
0.999988
0.75131
0.334627
0.0796696
0.025267
0.00169475
0.00142599
0.00141531
0.00140033
0.00137942
0.00988884
0.216827
0.68005
0.980356
0.998916
0.99963
0.999647
0.999985
0.999996
1
1
0.999999
0.999999
1
1
0.999946
0.957181
0.999998
0.999997
0.999997
0.999997
0.999568
0.998389
0.998992
0.999819
0.999578
0.99939
0.999385
0.99955
0.999984
0.999991
0.999991
0.938377
0.303497
0.00483217
0.00154995
0.00141037
0.00139906
0.0013907
0.00137404
0.00138193
0.00138316
0.117301
0.60738
0.963187
0.994038
0.999179
0.999919
0.999992
0.999999
1
1
1
1
1
1
0.953483
0.999998
0.999998
0.999997
0.998871
0.998389
0.998387
0.998387
0.998387
0.998463
0.99978
0.999987
0.999991
0.999991
0.999991
0.999991
0.999991
0.801916
0.110189
0.00223884
0.00143512
0.00138276
0.00139478
0.00140511
0.00138176
0.00138556
0.00138196
0.102918
0.683351
0.973335
0.99609
0.999568
0.999953
0.999994
1
1
1
0.999999
1
1
0.953515
0.999992
0.999823
0.998636
0.99843
0.998412
0.998389
0.998389
0.999111
0.999977
0.999989
0.99999
0.99999
0.999991
0.999991
0.999991
0.999988
0.869618
0.163262
0.00282917
0.00142972
0.00138274
0.00138803
0.00140668
0.00141076
0.00139525
0.0013908
0.00140256
0.20181
0.843357
0.990516
0.998823
0.999865
0.999987
0.999999
1
1
0.999999
1
1
0.96706
0.998638
0.998562
0.998562
0.99946
0.999975
0.999977
0.999978
0.999979
0.999979
0.999985
0.999989
0.99999
0.999994
0.99999
0.999985
0.999891
0.648802
0.0431925
0.00173279
0.00139863
0.00139212
0.00139849
0.00139345
0.00139475
0.00135619
0.00137478
0.00141153
0.0134568
0.561518
0.983411
0.998127
0.999743
0.999976
0.999998
1
1
1
1
1
0.972715
0.999609
0.998584
0.999585
0.999965
0.999969
0.999975
0.999977
0.999978
0.999977
0.999982
0.999984
0.999973
0.999956
0.999923
0.998017
0.708111
0.0772714
0.00154798
0.00143654
0.00142201
0.00141208
0.00139312
0.00137954
0.00134217
0.00132939
0.00141375
0.00152422
0.00221592
0.383143
0.96591
0.998032
0.999694
0.999963
0.999998
1
1
1
0.999998
1
0.974185
0.999965
0.999965
0.999965
0.999961
0.999964
0.999968
0.99996
0.999921
0.999861
0.999832
0.996172
0.952399
0.914566
0.768601
0.226391
0.00181964
0.00157917
0.00149624
0.00147433
0.00143701
0.00142086
0.00140475
0.00140407
0.00142666
0.00145328
0.00167193
0.00220084
0.00422164
0.385875
0.961423
0.998513
0.99975
0.999938
0.999987
0.999999
1
0.999999
0.999914
0.999998
0.974952
0.999965
0.999965
0.999961
0.999927
0.999841
0.998278
0.974016
0.880313
0.758314
0.679991
0.542068
0.176952
0.00191526
0.00192186
0.00191656
0.0019171
0.00179234
0.00157912
0.00149213
0.00148603
0.00158201
0.00173407
0.00205479
0.00255104
0.00342051
0.00430089
0.00620171
0.175675
0.804614
0.99474
0.998908
0.99969
0.999814
0.9999
0.999997
0.999999
0.999588
0.997865
0.999973
0.974987
0.999963
0.999925
0.999757
0.960967
0.829151
0.565359
0.341688
0.0562957
0.00251645
0.00251435
0.00251645
0.00253663
0.00250016
0.00211425
0.00192184
0.00207755
0.00191905
0.00242777
0.00523182
0.010518
0.019359
0.0366696
0.0638079
0.099665
0.169051
0.285198
0.485908
0.874948
0.999654
0.999805
0.999822
0.999778
0.999742
0.999765
0.999953
0.999997
0.997656
0.995221
0.999374
0.975064
0.999017
0.958725
0.705201
0.313491
0.0576495
0.00259006
0.00254861
0.00263962
0.00270288
0.0040015
0.00258835
0.0146305
0.0402909
0.0874077
0.152191
0.217734
0.285992
0.366884
0.44923
0.523486
0.594886
0.671402
0.745304
0.813274
0.943513
0.999883
0.999918
0.999869
0.99986
0.999854
0.999848
0.999832
0.999757
0.999741
0.999832
0.999991
0.996619
0.994159
0.999048
0.975234
0.8984
0.344249
0.00336628
0.00259774
0.00260196
0.00255649
0.00263971
0.00696957
0.0509248
0.166046
0.361444
0.558029
0.711603
0.822167
0.898784
0.95006
0.993904
0.99985
0.999845
0.99984
0.999842
0.999843
0.99985
0.999862
0.999866
0.999879
0.999868
0.999865
0.99986
0.999866
0.999847
0.999842
0.999796
0.999741
0.99983
0.999977
0.99742
0.993388
0.997693
0.975445
0.565408
0.00269382
0.00259774
0.00259772
0.00259754
0.0283042
0.156149
0.415069
0.695585
0.919748
0.997211
0.999171
0.999639
0.999773
0.999818
0.999835
0.999843
0.999844
0.99984
0.999838
0.999838
0.999837
0.999853
0.999853
0.99986
0.999865
0.999865
0.999859
0.999862
0.999859
0.999753
0.999283
0.999518
0.999828
0.999954
0.999961
0.998415
0.987781
0.995242
0.975686
0.808948
0.225697
0.0844445
0.171516
0.328933
0.585604
0.871308
0.97717
0.987266
0.994466
0.997714
0.999025
0.999535
0.999732
0.999802
0.999838
0.999839
0.99984
0.999838
0.999839
0.999839
0.999844
0.999848
0.999843
0.999848
0.999842
0.999823
0.999854
0.999852
0.999817
0.999119
0.999119
0.999194
0.999907
0.999952
0.999955
0.996203
0.987867
0.992949
0.975965
0.999997
0.964699
0.890273
0.904598
0.904636
0.902228
0.879893
0.855646
0.87227
0.918896
0.980206
0.99591
0.998773
0.999517
0.999759
0.99981
0.999842
0.999837
0.999839
0.999836
0.999837
0.999834
0.999839
0.999839
0.99984
0.999823
0.999818
0.999845
0.999848
0.999571
0.999134
0.999119
0.999312
0.999475
0.999829
0.999952
0.999164
0.98852
0.99056
0.97625
0.999997
0.999995
0.999854
0.885476
0.690365
0.476705
0.295108
0.176843
0.262542
0.710054
0.976607
0.992616
0.997563
0.999065
0.999551
0.999756
0.999804
0.99983
0.999828
0.999825
0.999813
0.999813
0.999814
0.999821
0.99969
0.999411
0.999496
0.999756
0.99984
0.999797
0.999432
0.9992
0.999141
0.998118
0.998774
0.999933
0.999207
0.992832
0.991435
0.976554
0.999997
0.999926
0.743197
0.150034
0.1037
0.103093
0.102711
0.102143
0.102018
0.590958
0.974451
0.992507
0.997279
0.998731
0.999288
0.999572
0.999732
0.999764
0.999758
0.999697
0.999583
0.999511
0.999503
0.999451
0.99901
0.998307
0.997029
0.997209
0.999546
0.999758
0.999635
0.999515
0.998163
0.998103
0.998118
0.999527
0.999608
0.984547
0.991369
0.98951
0.999998
0.721868
0.12566
0.10409
0.103649
0.103327
0.103356
0.100854
0.221849
0.766294
0.984116
0.994428
0.997352
0.998404
0.998943
0.999332
0.99956
0.999515
0.999177
0.998668
0.997866
0.997433
0.991595
0.97185
0.966536
0.970682
0.984276
0.99864
0.99947
0.999639
0.99956
0.99952
0.998158
0.998106
0.998282
0.999661
0.999614
0.959391
0.9897
0.990276
0.897897
0.233647
0.105475
0.103741
0.103931
0.103632
0.101037
0.0994391
0.598516
0.974758
0.991387
0.995718
0.997153
0.997874
0.998455
0.998983
0.999047
0.998229
0.997049
0.96079
0.876961
0.752724
0.619239
0.433873
0.447153
0.487918
0.575567
0.869885
0.998867
0.999441
0.997382
0.996057
0.998019
0.999124
0.99965
0.999678
0.999661
0.952047
0.983679
0.990266
0.696871
0.137301
0.0986858
0.104438
0.102844
0.10166
0.100782
0.451006
0.939308
0.988427
0.993416
0.995225
0.996229
0.997161
0.997875
0.998036
0.996953
0.934869
0.865433
0.44799
0.196407
0.199108
0.201155
0.206108
0.216068
0.190881
0.188876
0.288113
0.561996
0.866232
0.996285
0.999001
0.999569
0.99966
0.999678
0.999675
0.99132
0.950278
0.968663
0.987615
0.6497
0.12942
0.10753
0.101546
0.104184
0.102978
0.380401
0.9187
0.988556
0.989685
0.99175
0.993723
0.995278
0.996265
0.99658
0.994369
0.896762
0.461671
0.196793
0.193756
0.196056
0.200323
0.203883
0.224171
0.213669
0.18826
0.187314
0.186302
0.184287
0.477871
0.968372
0.999419
0.999652
0.999673
0.999672
0.999209
0.956915
0.949994
0.97147
0.963489
0.695064
0.149733
0.115653
0.108344
0.107464
0.429925
0.95473
0.991728
0.990665
0.989628
0.98868
0.991513
0.993822
0.994319
0.990597
0.797439
0.244328
0.1951
0.198091
0.195914
0.197964
0.220269
0.224144
0.22394
0.222911
0.188321
0.185888
0.187653
0.186251
0.291364
0.925458
0.996688
0.999419
0.98418
0.996243
0.970565
0.950024
0.950058
0.991376
0.962883
0.699304
0.190121
0.131906
0.174432
0.566036
0.986337
0.992747
0.992747
0.99193
0.990665
0.989568
0.989916