/*--------------------------------*- C++ -*----------------------------------*\
  =========                 |
  \\      /  F ield         | OpenFOAM: The Open Source CFD Toolbox
   \\    /   O peration     | Website:  https://openfoam.org
    \\  /    A nd           | Version:  8
     \\/     M anipulation  |
\*---------------------------------------------------------------------------*/
FoamFile
{
    version     2.0;
    format      ascii;
    class       surfaceScalarField;
    location    "4.3";
    object      alphaPhi0.water;
}
// * * * * * * * * * * * * * * * * * * * * * * * * * * * * * * * * * * * * * //

dimensions      [0 3 -1 0 0 0 0];

internalField   nonuniform List<scalar> 
18095
(
1.58389e-07
-9.65533e-07
8.07144e-07
1.65346e-07
-1.24823e-06
1.24128e-06
1.22188e-07
-1.24224e-06
1.2854e-06
6.53382e-08
-1.26347e-06
1.32032e-06
4.49358e-11
-1.28046e-06
1.34575e-06
-6.52564e-08
-1.28047e-06
1.34577e-06
-1.22126e-07
-1.26349e-06
1.32036e-06
-1.65306e-07
-1.24227e-06
1.28545e-06
-1.58374e-07
-1.24825e-06
1.24132e-06
-9.65583e-07
8.07209e-07
1.11027e-07
-1.07656e-06
9.9405e-08
-1.23661e-06
7.28545e-08
-1.21569e-06
4.00479e-08
-1.23066e-06
3.02407e-11
-1.24044e-06
-3.99921e-08
-1.24045e-06
-7.28101e-08
-1.23067e-06
-9.93719e-08
-1.21571e-06
-1.11009e-07
-1.23662e-06
-1.07659e-06
6.71631e-08
-1.14372e-06
5.27486e-08
-1.22219e-06
4.21343e-08
-1.20508e-06
2.38669e-08
-1.21239e-06
1.93789e-11
-1.2166e-06
-2.38307e-08
-1.2166e-06
-4.21051e-08
-1.2124e-06
-5.27264e-08
-1.20509e-06
-6.71472e-08
-1.2222e-06
-1.14374e-06
3.96268e-08
-1.18335e-06
2.66189e-08
-1.20919e-06
2.20094e-08
-1.20047e-06
1.25283e-08
-1.20291e-06
1.0985e-11
-1.20408e-06
-1.25077e-08
-1.20408e-06
-2.19924e-08
-1.20291e-06
-2.66062e-08
-1.20047e-06
-3.96161e-08
-1.20919e-06
-1.18335e-06
1.66499e-08
7.46316e-09
6.99279e-09
4.08137e-09
3.7291e-12
-4.07432e-09
-6.98706e-09
-7.45926e-09
-1.66454e-08
-1.74595e-07
-1.16386e-06
1.33845e-06
-2.18639e-07
-1.21625e-06
1.2603e-06
-1.64748e-07
-1.21272e-06
1.15882e-06
-8.66972e-08
-1.20396e-06
1.12591e-06
4.86797e-10
-1.20249e-06
1.11531e-06
8.76507e-08
-1.20257e-06
1.1154e-06
1.65607e-07
-1.20416e-06
1.12621e-06
2.19423e-07
-1.21301e-06
1.15919e-06
1.75305e-07
-1.21666e-06
1.26078e-06
-1.16432e-06
1.33963e-06
-9.29535e-08
-1.0709e-06
-9.55081e-08
-1.2137e-06
-7.90521e-08
-1.22917e-06
-4.39675e-08
-1.23905e-06
2.75355e-10
-1.24674e-06
4.44958e-08
-1.24679e-06
7.95237e-08
-1.23919e-06
9.58932e-08
-1.22938e-06
9.31725e-08
-1.21394e-06
-1.07115e-06
-5.79153e-08
-1.01299e-06
-5.50859e-08
-1.21653e-06
-4.63983e-08
-1.23786e-06
-2.69834e-08
-1.25846e-06
1.66183e-10
-1.27388e-06
2.72998e-08
-1.27392e-06
4.6669e-08
-1.25856e-06
5.52829e-08
-1.23799e-06
5.80115e-08
-1.21667e-06
-1.01314e-06
-7.47271e-08
-9.38259e-07
-6.1887e-08
-1.22937e-06
-4.85089e-08
-1.25124e-06
-2.76901e-08
-1.27928e-06
1.03538e-10
-1.30168e-06
2.78856e-08
-1.3017e-06
4.86712e-08
-1.27935e-06
6.19964e-08
-1.25132e-06
7.47784e-08
-1.22945e-06
-9.3836e-07
-1.31115e-07
-1.19208e-07
-8.50444e-08
-4.40074e-08
6.75084e-11
4.4134e-08
8.51477e-08
1.19279e-07
1.31151e-07
-3.01854e-08
-9.22767e-07
9.52952e-07
1.25588e-08
-1.34068e-06
1.29794e-06
1.53463e-08
-1.27607e-06
1.27328e-06
9.61966e-09
-1.22748e-06
1.2332e-06
4.16838e-09
-1.22444e-06
1.22989e-06
-1.17973e-09
-1.22508e-06
1.23043e-06
-7.39596e-09
-1.22733e-06
1.23354e-06
-1.63707e-09
-1.27473e-06
1.26897e-06
4.75279e-08
-1.34328e-06
1.29411e-06
-9.38157e-07
9.85685e-07
1.7721e-08
-9.40488e-07
2.45345e-08
-1.3475e-06
1.65561e-08
-1.26809e-06
1.00369e-08
-1.22096e-06
3.27368e-09
-1.21767e-06
-3.59485e-09
-1.21821e-06
-1.021e-08
-1.22071e-06
-1.61209e-08
-1.26882e-06
-1.08531e-08
-1.34855e-06
-9.4901e-07
3.08377e-08
-9.71326e-07
2.1994e-08
-1.33865e-06
1.32544e-08
-1.25935e-06
8.30458e-09
-1.21601e-06
2.01578e-09
-1.21138e-06
-4.70637e-09
-1.21149e-06
-9.27653e-09
-1.21614e-06
-1.82201e-08
-1.25988e-06
-2.72321e-08
-1.33953e-06
-9.76242e-07
8.08426e-08
-1.05217e-06
5.44735e-08
-1.31228e-06
3.53708e-08
-1.24025e-06
2.22564e-08
-1.20289e-06
1.27369e-09
-1.1904e-06
-1.97235e-08
-1.1905e-06
-3.25235e-08
-1.20334e-06
-5.15654e-08
-1.24083e-06
-7.83942e-08
-1.31271e-06
-1.05464e-06
2.86283e-07
2.34298e-07
1.52875e-07
7.58935e-08
8.00865e-10
-7.42901e-08
-1.51423e-07
-2.33064e-07
-2.84992e-07
1.0674e-07
1.55923e-09
-1.08299e-07
1.05071e-07
1.66854e-09
1.033e-07
1.77094e-09
1.01433e-07
1.86648e-09
9.94779e-08
1.95526e-09
9.7441e-08
2.03689e-09
9.53293e-08
2.11159e-09
9.31527e-08
2.17653e-09
9.09196e-08
2.23302e-09
2.27973e-09
8.86397e-08
1.06894e-07
2.85254e-09
-1.08187e-07
1.05514e-07
3.04859e-09
1.04052e-07
3.23328e-09
1.02511e-07
3.40716e-09
1.00896e-07
3.57009e-09
9.92107e-08
3.72189e-09
9.74601e-08
3.86203e-09
9.56483e-08
3.98908e-09
9.378e-08
4.10168e-09
4.19931e-09
9.18604e-08
9.96085e-08
4.25275e-09
-1.01007e-07
9.81487e-08
4.50843e-09
9.66336e-08
4.74832e-09
9.50675e-08
4.97309e-09
9.34546e-08
5.18285e-09
9.17987e-08
5.37764e-09
9.01031e-08
5.55667e-09
8.83735e-08
5.71866e-09
8.66126e-08
5.86255e-09
5.98802e-09
8.48242e-08
9.15649e-08
5.75561e-09
-9.30678e-08
9.00209e-08
6.05245e-09
8.84401e-08
6.32923e-09
8.68263e-08
6.5868e-09
8.51829e-08
6.82542e-09
8.35156e-08
7.04494e-09
8.1828e-08
7.24428e-09
8.01237e-08
7.42297e-09
7.84076e-08
7.57941e-09
7.71317e-09
7.66828e-08
8.27888e-08
7.34162e-09
-8.43748e-08
8.11776e-08
7.66366e-09
7.95447e-08
7.96203e-09
7.78935e-08
8.23781e-09
7.62273e-08
8.4912e-09
7.45508e-08
8.72165e-09
7.28674e-08
8.92777e-09
7.11823e-08
9.10817e-09
6.95001e-08
9.26181e-09
9.38829e-09
6.78251e-08
7.31802e-08
8.99695e-09
-7.48355e-08
7.15155e-08
9.32837e-09
6.98436e-08
9.63393e-09
6.81666e-08
9.91478e-09
6.64872e-08
1.01706e-08
6.48091e-08
1.03998e-08
6.3137e-08
1.06001e-08
6.14763e-08
1.07689e-08
5.98331e-08
1.09051e-08
1.10089e-08
5.82126e-08
6.26575e-08
1.07095e-08
-6.437e-08
6.09522e-08
1.10337e-08
5.92541e-08
1.1332e-08
5.75632e-08
1.16056e-08
5.58808e-08
1.18531e-08
5.42101e-08
1.20707e-08
5.25568e-08
1.22535e-08
5.09291e-08
1.23967e-08
4.93359e-08
1.24983e-08
1.25611e-08
4.77834e-08
5.11474e-08
1.24678e-08
-5.29058e-08
4.94151e-08
1.2766e-08
4.7705e-08
1.30422e-08
4.60132e-08
1.32974e-08
4.43381e-08
1.35282e-08
4.26821e-08
1.37267e-08
4.10533e-08
1.38823e-08
3.94662e-08
1.39838e-08
3.79385e-08
1.40255e-08
1.40185e-08
3.64809e-08
3.85758e-08
1.42616e-08
-4.03696e-08
3.68321e-08
1.45096e-08
3.5127e-08
1.47472e-08
3.34496e-08
1.49748e-08
3.17927e-08
1.51851e-08
3.01549e-08
1.53643e-08
2.85466e-08
1.54903e-08
2.69981e-08
1.55322e-08
2.55558e-08
1.54677e-08
1.53381e-08
2.42366e-08
2.48547e-08
1.60832e-08
-2.66763e-08
2.31194e-08
1.62448e-08
2.14411e-08
1.64255e-08
1.97974e-08
1.66184e-08
1.81715e-08
1.68108e-08
1.65518e-08
1.69838e-08
1.4938e-08
1.71039e-08
1.33935e-08
1.70768e-08
1.20458e-08
1.68157e-08
1.64554e-08
1.09285e-08
9.86671e-09
1.79334e-08
-1.1717e-08
8.16404e-09
1.79471e-08
6.53553e-09
1.80537e-08
4.93781e-09
1.82159e-08
3.35218e-09
1.83963e-08
1.75311e-09
1.85829e-08
1.22991e-10
1.8734e-08
-1.51112e-09
1.87109e-08
-2.90151e-09
1.82061e-08
1.71248e-08
-3.57087e-09
-6.53435e-09
1.98268e-08
4.64095e-09
-8.18446e-09
1.95975e-08
-9.77635e-09
1.96456e-08
-1.13777e-08
1.98173e-08
-1.29985e-08
2.00171e-08
-1.45196e-08
2.0104e-08
-1.5785e-08
1.99994e-08
-1.7578e-08
1.99414e-08
-1.83809e-08
1.86171e-08
1.75262e-08
-1.89154e-08
-2.4473e-08
2.17468e-08
2.2553e-08
-2.58875e-08
2.1012e-08
-2.76118e-08
2.137e-08
-2.92743e-08
2.148e-08
-3.08561e-08
2.11892e-08
-3.22193e-08
2.12717e-08
-3.24363e-08
1.97989e-08
-3.19483e-08
1.90361e-08
-3.21051e-08
1.80112e-08
1.72367e-08
-3.1942e-08
-4.36163e-08
2.37619e-08
4.16014e-08
-4.42944e-08
2.16902e-08
-4.4941e-08
2.18827e-08
-4.5068e-08
2.15169e-08
-4.50428e-08
2.10398e-08
-4.42518e-08
2.03518e-08
-4.42437e-08
1.96632e-08
-4.59341e-08
1.90568e-08
-4.58051e-08
1.78822e-08
1.6727e-08
-4.52936e-08
-5.61704e-08
2.48569e-08
5.19527e-08
-5.9431e-08
2.46925e-08
-6.02735e-08
2.26089e-08
-5.96967e-08
2.08238e-08
-5.97763e-08
2.10032e-08
-6.09205e-08
2.07872e-08
-6.15816e-08
1.99451e-08
-6.14349e-08
1.87385e-08
-6.10441e-08
1.74914e-08
1.63956e-08
-6.07128e-08
-7.06001e-08
2.78079e-08
7.02012e-08
-7.05632e-08
2.40422e-08
-7.28685e-08
2.42765e-08
-7.68366e-08
2.39297e-08
-7.84669e-08
2.27842e-08
-7.91264e-08
2.14197e-08
-7.92391e-08
2.00577e-08
-7.92256e-08
1.87251e-08
-7.92143e-08
1.74801e-08
1.6399e-08
-7.92177e-08
-9.12193e-08
3.02853e-08
9.10465e-08
-9.44202e-08
2.83562e-08
-9.75524e-08
2.66326e-08
-9.87999e-08
2.51635e-08
-9.96396e-08
2.36102e-08
-1.00256e-07
2.20308e-08
-1.00681e-07
2.04836e-08
-1.00993e-07
1.90367e-08
-1.01264e-07
1.77513e-08
1.66957e-08
-1.01561e-07
-1.16311e-07
3.29569e-08
1.13689e-07
-1.18811e-07
3.09089e-08
-1.21064e-07
2.88788e-08
-1.22822e-07
2.68626e-08
-1.24119e-07
2.49072e-08
-1.25122e-07
2.30336e-08
-1.2592e-07
2.12814e-08
-1.26558e-07
1.96746e-08
-1.27107e-07
1.83056e-08
1.73125e-08
-1.27731e-07
-1.43074e-07
3.62203e-08
1.39841e-07
-1.46127e-07
3.39371e-08
-1.48801e-07
3.15138e-08
-1.5095e-07
2.90121e-08
-1.52637e-07
2.65941e-08
-1.54006e-07
2.44027e-08
-1.55166e-07
2.24413e-08
-1.56099e-07
2.06076e-08
-1.56799e-07
1.90055e-08
1.79402e-08
-1.57321e-07
-1.74016e-07
4.04088e-08
1.69827e-07
-1.77749e-07
3.76702e-08
-1.80965e-07
3.47306e-08
-1.83634e-07
3.16818e-08
-1.85524e-07
2.84832e-08
-1.87093e-07
2.60204e-08
-1.88123e-07
2.36184e-08
-1.8966e-07
2.20331e-08
-1.91113e-07
2.00065e-08
1.92753e-08
-1.91305e-07
-2.08558e-07
4.54234e-08
2.03542e-07
-2.1318e-07
4.25966e-08
-2.15529e-07
3.7813e-08
-2.19173e-07
3.42475e-08
-2.23093e-07
3.0716e-08
-2.22407e-07
2.76396e-08
-2.16529e-07
2.45919e-08
-2.17285e-07
2.19378e-08
-2.18242e-07
2.01108e-08
1.88408e-08
-2.18657e-07
-2.40087e-07
4.83866e-08
2.37979e-07
-2.46778e-07
4.55443e-08
-2.53545e-07
4.20302e-08
-2.58643e-07
3.83096e-08
-2.63176e-07
3.38755e-08
-2.55783e-07
2.93027e-08
-2.57535e-07
2.60687e-08
-2.59603e-07
2.31597e-08
-2.66014e-07
2.16917e-08
2.04355e-08
-2.66881e-07
-2.83893e-07
5.57594e-08
2.5893e-07
-2.89337e-07
5.21235e-08
-2.93473e-07
4.71787e-08
-2.91684e-07
4.25818e-08
-2.93246e-07
3.70595e-08
-3.01133e-07
3.26128e-08
-3.08861e-07
2.88199e-08
-3.07706e-07
2.54099e-08
-3.03931e-07
2.20001e-08
2.03506e-08
-3.04219e-07
-3.18565e-07
6.51908e-08
2.93908e-07
-3.24806e-07
5.93729e-08
-3.26687e-07
5.31614e-08
-3.31493e-07
4.62267e-08
-3.36656e-07
4.09863e-08
-3.52435e-07
3.5717e-08
-3.5508e-07
3.14631e-08
-3.56615e-07
2.71632e-08
-3.5775e-07
2.41536e-08
2.29887e-08
-3.59701e-07
-3.51708e-07
7.55123e-08
3.44468e-07
-3.54863e-07
6.67729e-08
-3.63341e-07
6.0478e-08
-3.72261e-07
5.39748e-08
-3.9165e-07
4.82794e-08
-3.98169e-07
4.22386e-08
-4.02906e-07
3.62094e-08
-4.06957e-07
3.12206e-08
-4.10646e-07
2.78564e-08
2.67676e-08
-4.14398e-07
-3.909e-07
8.61595e-08
3.81694e-07
-3.89281e-07
7.85747e-08
-4.00695e-07
7.07005e-08
-4.11437e-07
6.35566e-08
-4.3685e-07
5.74536e-08
-4.45491e-07
5.0896e-08
-4.5339e-07
4.41084e-08
-4.60493e-07
3.83368e-08
-4.66803e-07
3.41938e-08
3.23891e-08
-4.72362e-07
-4.2371e-07
9.93722e-08
4.1075e-07
-4.21825e-07
9.19836e-08
-4.35455e-07
8.31356e-08
-4.49324e-07
7.63279e-08
-4.79127e-07
6.97467e-08
-4.91397e-07
6.31814e-08
-5.03443e-07
5.61706e-08
-5.15204e-07
5.01387e-08
-5.26369e-07
4.55994e-08
4.31292e-08
-5.35629e-07
-4.47409e-07
1.13749e-07
4.33274e-07
-4.48019e-07
1.0648e-07
-4.63796e-07
9.78116e-08
-4.84803e-07
9.16063e-08
-5.11733e-07
8.55349e-08
-5.26558e-07
7.80223e-08
-5.41347e-07
7.0975e-08
-5.55997e-07
6.48475e-08
-5.7039e-07
6.00786e-08
5.6785e-08
-5.83784e-07
-4.44989e-07
1.23025e-07
4.48736e-07
-4.70806e-07
1.19249e-07
-4.9086e-07
1.15598e-07
-5.15335e-07
1.09108e-07
-5.30904e-07
1.01038e-07
-5.45841e-07
9.30249e-08
-5.56083e-07
8.52472e-08
-5.69488e-07
7.81732e-08
-5.81832e-07
7.23115e-08
6.74878e-08
-5.9412e-07
-4.23866e-07
1.37983e-07
4.38362e-07
-4.83806e-07
1.37411e-07
-5.09104e-07
1.32389e-07
-5.24185e-07
1.2422e-07
-5.38619e-07
1.15537e-07
-5.47809e-07
1.06826e-07
-5.60683e-07
9.80387e-08
-5.72802e-07
9.02668e-08
-5.83517e-07
8.29441e-08
7.61131e-08
-5.92312e-07
-4.67651e-07
1.49579e-07
4.16365e-07
-4.94697e-07
1.52666e-07
-5.09595e-07
1.47295e-07
-5.23591e-07
1.3824e-07
-5.3713e-07
1.29105e-07
-5.49956e-07
1.20016e-07
-5.56856e-07
1.10911e-07
-5.67744e-07
1.01054e-07
-5.77354e-07
9.23943e-08
8.4011e-08
-5.89488e-07
-4.69118e-07
1.6952e-07
3.92393e-07
-4.87129e-07
1.70686e-07
-5.01033e-07
1.61217e-07
-5.14489e-07
1.51717e-07
-5.27402e-07
1.42039e-07
-5.39596e-07
1.32237e-07
-5.50442e-07
1.22298e-07
-5.60252e-07
1.12175e-07
-5.69683e-07
1.01753e-07
9.11077e-08
-5.77211e-07
-4.60928e-07
1.82235e-07
3.99376e-07
-4.73689e-07
1.83328e-07
-4.86035e-07
1.73571e-07
-4.94832e-07
1.63141e-07
-5.06708e-07
1.52428e-07
-5.23695e-07
1.43277e-07
-5.34962e-07
1.335e-07
-5.45072e-07
1.22291e-07
-5.53886e-07
1.10571e-07
9.84054e-08
-5.6118e-07
-4.42384e-07
1.99007e-07
3.6828e-07
-4.54273e-07
1.94933e-07
-4.62168e-07
1.84489e-07
-4.7301e-07
1.73444e-07
-4.85343e-07
1.63921e-07
-5.03373e-07
1.54479e-07
-5.1474e-07
1.44873e-07
-5.25278e-07
1.32835e-07
-5.34569e-07
1.19865e-07
1.06156e-07
-5.42315e-07
-4.20219e-07
2.14331e-07
3.97253e-07
-4.31126e-07
2.0556e-07
-4.36622e-07
1.95016e-07
-4.48124e-07
1.84474e-07
-4.60636e-07
1.75612e-07
-4.78849e-07
1.6684e-07
-4.91114e-07
1.57136e-07
-5.02666e-07
1.44392e-07
-5.12637e-07
1.29841e-07
1.1437e-07
-5.20875e-07
-3.95911e-07
2.23627e-07
3.86697e-07
-4.0509e-07
2.14679e-07
-4.09786e-07
2.05726e-07
-4.21043e-07
1.94963e-07
-4.37012e-07
1.8723e-07
-4.50617e-07
1.80364e-07
-4.63909e-07
1.70406e-07
-4.74944e-07
1.55435e-07
-4.82706e-07
1.36901e-07
1.20612e-07
-4.96747e-07
-3.69852e-07
2.31282e-07
3.6229e-07
-3.78128e-07
2.23045e-07
-3.87293e-07
2.15036e-07
-3.97226e-07
2.06869e-07
-4.07943e-07
1.98136e-07
-4.06041e-07
1.77635e-07
-3.26227e-07
1.4207e-07
-3.36264e-07
9.24656e-08
-4.61499e-07
1.3032e-07
1.27555e-07
-4.68451e-07
-3.42841e-07
2.39152e-07
3.34951e-07
-3.51419e-07
2.31715e-07
-3.60821e-07
2.24486e-07
-3.69875e-07
2.15923e-07
-3.54884e-07
1.89814e-07
-2.49434e-07
1.36433e-07
-2.2588e-07
1.10532e-07
-2.4471e-07
1.03242e-07
-4.22994e-07
1.24377e-07
1.31381e-07
-4.26815e-07
-3.15868e-07
2.4745e-07
3.07225e-07
-3.24576e-07
2.4046e-07
-3.32831e-07
2.32689e-07
-3.05104e-07
2.02246e-07
-2.17785e-07
1.41342e-07
-2.03886e-07
1.18119e-07
-2.10065e-07
1.10511e-07
-2.2804e-07
1.13234e-07
-3.72569e-07
1.36614e-07
1.33849e-07
-3.75031e-07
-2.91665e-07
2.56657e-07
2.81794e-07
-3.00096e-07
2.48743e-07
-2.88364e-07
2.29731e-07
-1.89617e-07
1.56118e-07
-1.76506e-07
1.24929e-07
-1.79e-07
1.16755e-07
-1.87329e-07
1.14426e-07
-3.01499e-07
1.4236e-07
-3.18257e-07
1.5328e-07
1.34367e-07
-3.18769e-07
-2.7439e-07
2.6677e-07
2.63562e-07
-2.77867e-07
2.51991e-07
-1.78749e-07
1.84743e-07
-1.57596e-07
1.31605e-07
-1.56895e-07
1.20896e-07
-1.58703e-07
1.15261e-07
-2.0826e-07
1.30557e-07
-2.66018e-07
1.63742e-07
-2.62904e-07
1.49977e-07
1.32092e-07
-2.60499e-07
-2.57669e-07
2.76222e-07
2.47724e-07
-2.46594e-07
2.26873e-07
-1.50158e-07
1.36255e-07
-1.47644e-07
1.26469e-07
-1.45931e-07
1.1588e-07
-1.60571e-07
1.38661e-07
-2.19779e-07
1.70755e-07
-2.15135e-07
1.58467e-07
-2.07457e-07
1.41779e-07
1.25861e-07
-2.00143e-07
-1.1941e-07
8.65123e-08
1.30254e-07
-9.77308e-08
6.58528e-08
-1.11525e-07
1.35598e-07
-1.36809e-07
1.90163e-07
-1.60037e-07
1.91834e-07
-1.81903e-07
1.76275e-07
-1.71185e-07
1.60435e-07
-1.5811e-07
1.42755e-07
-1.48058e-07
1.2795e-07
1.16599e-07
-1.38321e-07
-4.10867e-08
6.49591e-08
6.40076e-08
-4.52061e-08
5.76919e-08
-1.46403e-07
1.42991e-07
-1.51696e-07
1.9557e-07
-1.37699e-07
1.78694e-07
-1.22474e-07
1.61281e-07
-1.06834e-07
1.45247e-07
-9.15511e-08
1.27365e-07
-7.77048e-08
1.13849e-07
1.02863e-07
-6.83276e-08
-3.40261e-08
6.05027e-08
3.97443e-08
-3.46051e-08
5.98596e-08
-1.02175e-07
1.39854e-07
-8.61251e-08
1.79537e-07
-6.93407e-08
1.61917e-07
-5.37583e-08
1.45699e-07
-3.87552e-08
1.30724e-07
-2.40661e-08
1.14855e-07
-1.11181e-08
1.00646e-07
8.99491e-08
1.53818e-09
-2.13313e-08
5.51265e-08
2.66719e-08
-2.35475e-08
6.86095e-08
-3.88854e-08
1.56887e-07
-2.07656e-08
1.61425e-07
-4.53598e-09
1.45689e-07
1.0537e-08
1.30625e-07
2.48932e-08
1.16379e-07
3.81993e-08
1.02939e-07
5.06488e-08
8.99921e-08
7.75213e-08
6.55549e-08
-9.30332e-09
5.18753e-08
1.46158e-08
-2.34542e-09
1.17337e-07
1.56423e-08
1.57615e-07
3.21837e-08
1.44878e-07
4.77262e-08
1.30138e-07
6.28183e-08
1.15531e-07
7.77767e-08
1.0142e-07
9.27362e-08
8.79877e-08
1.07655e-07
7.53714e-08
6.36414e-08
1.22464e-07
1.03301e-08
1.09694e-07
4.30552e-09
3.27008e-08
1.53453e-07
4.91895e-08
1.42802e-07
6.5608e-08
1.28479e-07
8.20707e-08
1.13684e-07
9.86753e-08
9.8923e-08
1.15486e-07
8.46089e-08
1.32492e-07
7.09892e-08
1.49616e-07
5.82492e-08
4.65156e-08
1.66742e-07
2.71108e-08
1.53536e-07
-7.7629e-09
4.41008e-08
1.39441e-07
6.20357e-08
1.24908e-07
8.06961e-08
1.09835e-07
9.97976e-08
9.45769e-08
1.19212e-07
7.9506e-08
1.38839e-07
6.4979e-08
1.58583e-07
5.12607e-08
1.78284e-07
3.85488e-08
2.69945e-08
1.97805e-07
2.11948e-08
1.33816e-07
-1.31242e-09
4.17051e-08
1.18946e-07
6.29925e-08
1.03621e-07
8.47773e-08
8.80506e-08
1.06849e-07
7.25039e-08
1.29045e-07
5.73076e-08
1.51267e-07
4.27753e-08
1.73351e-07
2.91832e-08
1.95146e-07
1.67544e-08
5.65253e-09
2.16488e-07
1.76243e-08
1.12481e-07
3.71722e-09
3.97173e-08
9.68537e-08
6.24201e-08
8.09188e-08
8.55518e-08
6.49191e-08
1.08922e-07
4.91341e-08
1.32354e-07
3.38751e-08
1.55676e-07
1.94493e-08
1.78729e-07
6.13594e-09
2.01317e-07
-5.83098e-09
-1.6274e-08
2.23241e-07
1.92862e-08
9.25034e-08
6.91884e-10
4.02665e-08
7.58734e-08
6.20229e-08
5.91623e-08
8.43312e-08
4.2611e-08
1.06963e-07
2.65026e-08
1.29697e-07
1.11406e-08
1.52321e-07
-3.17397e-09
1.74623e-07
-1.6166e-08
1.96395e-07
-2.76026e-08
-3.73078e-08
2.17215e-07
2.12389e-08
7.4931e-08
-3.6666e-09
3.97917e-08
5.73198e-08
5.91161e-08
3.98374e-08
7.89885e-08
2.2739e-08
9.91821e-08
6.30926e-09
1.19475e-07
-9.15291e-09
1.39654e-07
-2.33528e-08
1.59509e-07
-3.60211e-08
1.78833e-07
-4.69262e-08
-5.5888e-08
1.97413e-07
2.08914e-08
6.06219e-08
-6.58234e-09
3.59437e-08
4.22674e-08
5.15656e-08
2.42163e-08
6.75707e-08
6.73422e-09
8.37742e-08
-9.89423e-09
9.9993e-08
-2.53717e-08
1.16042e-07
-3.94043e-08
1.31748e-07
-5.1724e-08
1.46936e-07
-6.21053e-08
-7.03747e-08
1.61413e-07
1.75908e-08
5.05496e-08
-7.5229e-09
2.80484e-08
3.18099e-08
3.87487e-08
1.35162e-08
4.95486e-08
-4.06579e-09
6.03098e-08
-2.06554e-08
7.08951e-08
-3.59569e-08
8.1163e-08
-4.96759e-08
9.09815e-08
-6.15444e-08
1.00209e-07
-7.13344e-08
-7.8898e-08
1.08737e-07
1.21384e-08
4.54598e-08
-7.04591e-09
1.71753e-08
2.67729e-08
2.2029e-08
8.6622e-09
2.65838e-08
-8.62077e-09
3.07343e-08
-2.48059e-08
3.43774e-08
-3.96031e-08
3.74107e-08
-5.27111e-08
3.97165e-08
-6.38522e-08
4.11554e-08
-7.27746e-08
-7.93518e-08
4.16139e-08
7.12147e-09
4.55145e-08
-7.1721e-09
6.52113e-09
2.73732e-08
5.25023e-09
9.93295e-09
3.20254e-09
-6.57316e-09
2.86864e-10
-2.18902e-08
-3.57542e-09
-3.5741e-08
-8.46978e-09
-4.78214e-08
-1.4513e-08
-5.78101e-08
-2.18808e-08
-6.54037e-08
-7.03234e-08
-3.07871e-08
6.79444e-09
5.01612e-08
-1.14405e-08
1.22754e-09
3.29405e-08
-5.41031e-09
1.65708e-08
-1.32531e-08
1.26983e-09
-2.24097e-08
-1.27339e-08
-3.29581e-08
-2.51927e-08
-4.49457e-08
-3.5834e-08
-5.83993e-08
-4.43566e-08
-7.32973e-08
-5.04936e-08
-5.39533e-08
-8.92684e-08
1.56964e-08
5.77292e-08
-2.32646e-08
7.11655e-09
4.15203e-08
-2.65731e-09
2.63446e-08
-1.38006e-08
1.24132e-08
-2.64706e-08
-6.36176e-11
-4.0806e-08
-1.08574e-08
-5.68948e-08
-1.97453e-08
-7.47471e-08
-2.65042e-08
-9.44124e-08
-3.08323e-08
-3.19647e-08
-1.15167e-07
3.77257e-08
6.55519e-08
-4.55484e-08
2.93723e-08
4.98735e-08
2.03973e-08
3.5319e-08
1.07427e-08
2.20679e-08
3.99378e-10
1.02795e-08
-1.05263e-08
6.79581e-11
-2.19108e-08
-8.3612e-09
-3.34398e-08
-1.49757e-08
-4.46423e-08
-1.96298e-08
-2.22461e-08
-5.43615e-08
7.2853e-08
7.11562e-08
-7.84575e-08
6.76752e-08
5.50514e-08
6.29765e-08
4.00165e-08
5.88847e-08
2.61604e-08
5.56119e-08
1.35529e-08
5.34519e-08
2.22833e-09
5.2898e-08
-7.80762e-09
5.45307e-08
-1.66085e-08
5.91709e-08
-2.427e-08
-3.09127e-08
6.78372e-08
1.16912e-07
7.29962e-08
-1.18752e-07
1.16422e-07
5.55416e-08
1.17431e-07
3.90016e-08
1.2016e-07
2.34326e-08
1.24863e-07
8.84972e-09
1.3183e-07
-4.73872e-09
1.41374e-07
-1.73525e-08
1.53803e-07
-2.90375e-08
1.69378e-07
-3.98453e-08
-4.97872e-08
1.88252e-07
1.66343e-07
7.16158e-08
-1.64962e-07
1.69938e-07
5.19223e-08
1.75908e-07
3.30331e-08
1.84382e-07
1.4969e-08
1.9546e-07
-2.22819e-09
2.09193e-07
-1.84721e-08
2.25514e-07
-3.3673e-08
2.44191e-07
-4.77124e-08
2.6473e-07
-6.03849e-08
-7.13387e-08
2.86281e-07
2.16061e-07
6.81339e-08
-2.12577e-07
2.22209e-07
4.57348e-08
2.31324e-07
2.38808e-08
2.43487e-07
2.81491e-09
2.58585e-07
-1.72839e-08
2.76279e-07
-3.61599e-08
2.96171e-07
-5.35669e-08
3.17642e-07
-6.91803e-08
3.39766e-07
-8.25092e-08
-9.27924e-08
3.61219e-07
2.60658e-07
6.28251e-08
-2.55119e-07
2.68064e-07
3.82955e-08
2.78564e-07
1.2993e-08
2.92999e-07
-1.15161e-08
3.10938e-07
-3.49065e-08
3.3126e-07
-5.64815e-08
3.53787e-07
-7.60964e-08
3.77994e-07
-9.33876e-08
4.03286e-07
-1.07801e-07
-1.18657e-07
4.29149e-07
2.97018e-07
5.21862e-08
-2.83175e-07
3.02056e-07
2.84129e-08
3.12045e-07
1.49089e-09
3.31931e-07
-2.78217e-08
3.51614e-07
-5.45452e-08
3.74149e-07
-7.90142e-08
3.99346e-07
-1.01294e-07
4.27158e-07
-1.21199e-07
4.57759e-07
-1.38402e-07
-1.52685e-07
4.91785e-07
2.34303e-07
3.05214e-08
-2.15149e-07
2.85649e-07
1.51573e-08
3.36581e-07
-1.1603e-08
3.57358e-07
-4.74122e-08
3.80186e-07
-7.71627e-08
4.0551e-07
-1.04299e-07
4.33855e-07
-1.29637e-07
4.65906e-07
-1.53249e-07
5.02634e-07
-1.75129e-07
-1.95347e-07
5.45293e-07
1.56259e-07
2.49348e-08
-1.64527e-07
1.85056e-07
2.92215e-09
3.33191e-07
-2.78782e-08
3.76351e-07
-7.05377e-08
4.01615e-07
-1.02077e-07
4.29624e-07
-1.32251e-07
4.61564e-07
-1.61569e-07
4.98454e-07
-1.90137e-07
5.41513e-07
-2.18176e-07
-2.44901e-07
5.91064e-07
1.65323e-07
1.3043e-08
-1.63793e-07
1.90835e-07
-1.21508e-08
3.54858e-07
-5.99155e-08
3.838e-07
-9.82876e-08
4.14369e-07
-1.32442e-07
4.4867e-07
-1.6648e-07
4.87905e-07
-2.00778e-07
5.3321e-07
-2.35433e-07
5.85115e-07
-2.70088e-07
-2.89542e-07
6.30278e-07
1.62564e-07
3.54623e-09
-1.24644e-07
3.10347e-07
-4.4879e-08
3.57341e-07
-9.30216e-08
3.91228e-07
-1.31848e-07
4.29287e-07
-1.70332e-07
4.727e-07
-2.09743e-07
5.22665e-07
-2.50697e-07
5.80735e-07
-2.93483e-07
6.43436e-07
-3.32821e-07
-2.96508e-07
5.64172e-07
2.25099e-07
-8.78607e-09
-1.23133e-07
3.25395e-07
-7.15089e-08
3.59731e-07
-1.2642e-07
3.99016e-07
-1.7071e-07
4.4463e-07
-2.15624e-07
4.97476e-07
-2.62419e-07
5.58189e-07
-3.11182e-07
6.28142e-07
-3.63358e-07
5.93038e-07
-3.05671e-07
-3.12709e-07
5.17813e-07
1.79769e-07
-1.45949e-08
-7.31617e-08
3.02413e-07
-1.01743e-07
3.43028e-07
-1.65406e-07
3.89715e-07
-2.16544e-07
4.4354e-07
-2.69026e-07
5.03556e-07
-3.22191e-07
5.36557e-07
-3.2685e-07
5.08532e-07
-3.20536e-07
5.09415e-07
-3.70484e-07
-4.49418e-07
5.98133e-07
1.2636e-07
-6.06727e-08
-2.31344e-08
2.46035e-07
-1.57767e-07
2.95648e-07
-2.11524e-07
3.49107e-07
-2.68515e-07
4.04155e-07
-3.21898e-07
3.77418e-07
-2.79958e-07
4.17175e-07
-3.22272e-07
4.87104e-07
-4.13016e-07
6.44119e-07
-5.74071e-07
-7.32026e-07
8.64147e-07
1.46531e-07
-1.31495e-07
-6.34529e-08
1.88024e-07
-1.91793e-07
2.3038e-07
-2.49276e-07
2.6679e-07
-2.8328e-07
2.77031e-07
-2.42412e-07
3.22629e-07
-3.56987e-07
4.46782e-07
-4.71012e-07
6.9718e-07
-6.79316e-07
8.88368e-07
-8.12619e-07
-8.88016e-07
1.04391e-06
1.04674e-07
-1.49005e-07
-8.01558e-08
1.26495e-07
-2.06386e-07
1.34667e-07
-2.12882e-07
1.94892e-07
-2.50766e-07
2.63318e-07
-3.7083e-07
4.18736e-07
-5.65063e-07
6.63309e-07
-7.59203e-07
8.3756e-07
-8.69762e-07
9.45965e-07
-9.21258e-07
-9.63569e-07
1.02146e-06
6.57835e-08
-1.46063e-07
-6.15168e-08
5.18604e-08
-1.0831e-07
7.93036e-08
-1.74283e-07
2.27599e-07
-3.35618e-07
4.82371e-07
-6.80958e-07
6.15054e-07
-8.23013e-07
7.56192e-07
-9.0064e-07
8.3859e-07
-9.52216e-07
9.11331e-07
-9.93977e-07
-1.02668e-06
9.74447e-07
1.64006e-08
-8.71706e-08
-2.82696e-08
2.05713e-08
-4.59793e-08
1.3583e-07
-2.21613e-07
4.01238e-07
-6.94517e-07
5.60843e-07
-8.54169e-07
6.59608e-07
-9.22029e-07
7.34755e-07
-9.75805e-07
8.0327e-07
-1.02072e-06
8.65595e-07
-1.0563e-06
-1.07979e-06
9.18707e-07
8.39484e-09
-1.23848e-08
-1.52431e-08
3.73263e-08
-7.74956e-08
3.22114e-07
-5.61315e-07
4.82042e-07
-8.64972e-07
5.64484e-07
-9.36803e-07
6.34352e-07
-9.91917e-07
6.9886e-07
-1.04031e-06
7.58598e-07
-1.08046e-06
8.11067e-07
-1.10877e-06
-1.12157e-06
8.52841e-07
1.41099e-08
-9.56591e-09
-1.97096e-08
1.4373e-07
-2.12302e-07
3.98868e-07
-8.24137e-07
4.72391e-07
-9.38692e-07
5.34904e-07
-9.99561e-07
5.94794e-07
-1.05181e-06
6.51564e-07
-1.09708e-06
7.02918e-07
-1.13181e-06
7.4572e-07
-1.15157e-06
-1.15261e-06
7.76763e-07
6.92641e-09
-2.52644e-08
2.33689e-09
2.70916e-07
-4.69864e-07
3.71451e-07
-9.24898e-07
4.34601e-07
-1.00185e-06
4.91718e-07
-1.05671e-06
5.45653e-07
-1.10574e-06
5.95509e-07
-1.14694e-06
6.38731e-07
-1.17504e-06
6.72306e-07
-1.18515e-06
-1.174e-06
6.93699e-07
3.22477e-08
-6.56102e-08
-4.7052e-10
2.86565e-07
-6.90129e-07
3.50015e-07
-9.88055e-07
4.00642e-07
-1.05246e-06
4.48369e-07
-1.10443e-06
4.9404e-07
-1.15141e-06
5.35773e-07
-1.18867e-06
5.70527e-07
-1.20979e-06
5.9557e-07
-1.21019e-06
-1.18737e-06
6.08938e-07
8.90649e-08
-1.23837e-07
-5.21711e-11
2.66916e-07
-8.36852e-07
3.16025e-07
-1.03697e-06
3.58233e-07
-1.09464e-06
3.99034e-07
-1.14523e-06
4.38172e-07
-1.19055e-06
4.72975e-07
-1.22348e-06
5.00568e-07
-1.23738e-06
5.19434e-07
-1.22906e-06
-1.19683e-06
5.28889e-07
1.14018e-07
-1.99303e-07
-7.12414e-11
2.35664e-07
-9.36509e-07
2.77277e-07
-1.07848e-06
3.13614e-07
-1.13097e-06
3.48794e-07
-1.18041e-06
3.82076e-07
-1.22383e-06
4.10443e-07
-1.25184e-06
4.31716e-07
-1.25866e-06
4.45746e-07
-1.24309e-06
-1.20408e-06
4.53003e-07
1.23386e-07
-2.86029e-07
-2.06351e-10
2.12485e-07
-1.01302e-06
2.43233e-07
-1.10918e-06
2.71726e-07
-1.15946e-06
3.00461e-07
-1.20914e-06
3.27326e-07
-1.2507e-06
3.4901e-07
-1.27353e-06
3.64486e-07
-1.27413e-06
3.7516e-07
-1.25376e-06
-1.2114e-06
3.82463e-07
1.41042e-07
-4.01455e-07
-6.96902e-10
1.90985e-07
-1.0578e-06
2.09676e-07
-1.12786e-06
2.30927e-07
-1.18071e-06
2.53689e-07
-1.23191e-06
2.7411e-07
-1.27112e-06
2.88972e-07
-1.28839e-06
2.98424e-07
-1.28359e-06
3.04584e-07
-1.25992e-06
-1.21353e-06
3.0672e-07
1.28618e-07
-5.11999e-07
-1.72699e-09
1.52681e-07
-1.08052e-06
1.6949e-07
-1.14466e-06
1.89051e-07
-1.20027e-06
2.08655e-07
-1.25151e-06
2.2431e-07
-1.28677e-06
2.34101e-07
-1.29818e-06
2.39517e-07
-1.289e-06
2.42724e-07
-1.26313e-06
-1.20603e-06
2.35217e-07
1.00578e-07
-5.98818e-07
-4.36443e-09
1.1672e-07
-1.09634e-06
1.33218e-07
-1.16116e-06
1.51615e-07
-1.21866e-06
1.68364e-07
-1.26826e-06
1.79922e-07
-1.29833e-06
1.8603e-07
-1.30429e-06
1.89192e-07
-1.29216e-06
1.91541e-07
-1.26548e-06
-1.18284e-06
1.68353e-07
6.34956e-08
-6.53683e-07
-1.81559e-09
8.20525e-08
-1.11489e-06
1.01293e-07
-1.1804e-06
1.19647e-07
-1.23702e-06
1.3395e-07
-1.28256e-06
1.41911e-07
-1.30629e-06
1.45134e-07
-1.30751e-06
1.46681e-07
-1.29371e-06
1.48443e-07
-1.26724e-06
-1.13976e-06
1.0497e-07
4.98079e-08
-6.92811e-07
-3.27322e-09
6.53539e-08
-1.13043e-06
8.27161e-08
-1.19776e-06
9.80248e-08
-1.25233e-06
1.07972e-07
-1.29251e-06
1.11573e-07
-1.30989e-06
1.11747e-07
-1.30769e-06
1.11474e-07
-1.29344e-06
1.12139e-07
-1.2679e-06
-1.09292e-06
6.44316e-08
4.30571e-08
-7.28397e-07
-4.3341e-09
5.80116e-08
-1.14538e-06
7.30154e-08
-1.21277e-06
8.45642e-08
-1.26388e-06
8.95856e-08
-1.29753e-06
8.88805e-08
-1.30919e-06
8.61331e-08
-1.30494e-06
8.38708e-08
-1.29117e-06
8.34598e-08
-1.26749e-06
-1.05429e-06
4.27365e-08
4.53432e-08
-7.71168e-07
-4.32079e-09
5.82737e-08
-1.1583e-06
6.93607e-08
-1.22385e-06
7.67678e-08
-1.27128e-06
7.72287e-08
-1.29799e-06
7.35622e-08
-1.30552e-06
6.94063e-08
-1.30078e-06
6.6161e-08
-1.28793e-06
6.54746e-08
-1.2668e-06
-1.02325e-06
3.10319e-08
4.3107e-08
-8.18381e-07
-1.578e-09
5.48247e-08
-1.17002e-06
6.35068e-08
-1.23254e-06
6.84007e-08
-1.27618e-06
6.59271e-08
-1.29552e-06
6.12654e-08
-1.30086e-06
5.78935e-08
-1.29741e-06
5.62462e-08
-1.28628e-06
5.99574e-08
-1.27052e-06
-9.9905e-07
3.2419e-08
3.01272e-08
-8.56196e-07
-1.83418e-11
4.37683e-08
-1.18367e-06
5.2868e-08
-1.24164e-06
5.67231e-08
-1.28003e-06
5.23316e-08
-1.29113e-06
4.67502e-08
-1.29528e-06
4.31424e-08
-1.2938e-06
4.01068e-08
-1.28325e-06
4.06073e-08
-1.27102e-06
-9.81111e-07
2.06868e-08
1.80999e-08
-8.86178e-07
4.06763e-09
3.16842e-08
-1.19722e-06
4.13109e-08
-1.25126e-06
4.38852e-08
-1.28261e-06
3.82208e-08
-1.28546e-06
3.1727e-08
-1.28878e-06
2.75611e-08
-1.28964e-06
2.22496e-08
-1.27793e-06
1.5406e-08
-1.26417e-06
-9.71119e-07
4.8625e-09
1.1753e-08
-9.07436e-07
4.63922e-09
2.33022e-08
-1.20869e-06
3.33014e-08
-1.26126e-06
3.3633e-08
-1.28294e-06
2.67586e-08
-1.27859e-06
1.89409e-08
-1.28097e-06
1.40824e-08
-1.28478e-06
8.02106e-09
-1.27187e-06
-3.13802e-09
-1.25301e-06
-9.7468e-07
-4.04169e-16
1.76885e-08
-9.25209e-07
-3.16272e-11
2.48162e-08
-1.21576e-06
3.30062e-08
-1.26945e-06
2.84821e-08
-1.27842e-06
1.94268e-08
-1.26953e-06
9.66853e-09
-1.27121e-06
3.28783e-09
-1.2784e-06
-1.88844e-09
-1.2667e-06
-1.52459e-08
-1.23964e-06
-9.90282e-07
-1.33428e-15
3.34778e-08
-9.55275e-07
-1.67296e-10
3.08343e-08
-1.21312e-06
3.42094e-08
-1.27283e-06
2.43249e-08
-1.26853e-06
1.39079e-08
-1.25912e-06
3.27288e-09
-1.26057e-06
-4.74726e-09
-1.27038e-06
-6.23283e-09
-1.26521e-06
-1.84537e-08
-1.22742e-06
-1.00869e-06
-8.67249e-16
1.48176e-08
-9.69664e-07
-1.33624e-10
2.44375e-08
-1.22274e-06
3.01923e-08
-1.27858e-06
1.92844e-08
-1.25762e-06
8.98681e-09
-1.24882e-06
-1.77396e-09
-1.24981e-06
-1.21045e-08
-1.26005e-06
-8.33215e-09
-1.26898e-06
-1.18147e-08
-1.22393e-06
-1.02065e-06
-2.06918e-16
3.43801e-11
-9.68893e-07
-1.89216e-10
2.78573e-08
-1.25056e-06
2.98691e-08
-1.28059e-06
1.68245e-08
-1.24458e-06
6.08422e-09
-1.23808e-06
-4.92968e-09
-1.2388e-06
-1.89046e-08
-1.24607e-06
-1.38983e-08
-1.27399e-06
6.38328e-09
-1.24422e-06
-1.01438e-06
1.74608e-35
-1.57627e-08
3.49995e-89
3.16139e-08
2.43013e-08
1.29243e-08
4.73369e-09
-3.63404e-09
-1.61654e-08
-2.1185e-08