/*--------------------------------*- C++ -*----------------------------------*\
  =========                 |
  \\      /  F ield         | OpenFOAM: The Open Source CFD Toolbox
   \\    /   O peration     | Website:  https://openfoam.org
    \\  /    A nd           | Version:  8
     \\/     M anipulation  |
\*---------------------------------------------------------------------------*/
FoamFile
{
    version     2.0;
    format      ascii;
    class       volScalarField;
    location    "4.3";
    object      p_rgh;
}
// * * * * * * * * * * * * * * * * * * * * * * * * * * * * * * * * * * * * * //

dimensions      [1 -1 -2 0 0 0 0];

internalField   nonuniform List<scalar> 
9150
(
2562.4
2535.39
2509.9
2492.71
2484.4
2484.4
2492.69
2509.88
2535.37
2562.37
2553.16
2533.6
2517.96
2506.15
2500.17
2500.17
2506.14
2517.94
2533.58
2553.14
2543.51
2529.93
2521.4
2513.64
2509.54
2509.53
2513.63
2521.39
2529.92
2543.49
2538.42
2528.39
2522.93
2517.57
2514.6
2514.6
2517.56
2522.92
2528.38
2538.41
2536.76
2527.82
2523.25
2519.08
2516.63
2516.63
2519.07
2523.24
2527.81
2536.74
2097.55
2093.69
2118.81
2133.04
2139.68
2139.61
2132.84
2118.51
2093.27
2096.99
2287.27
2263.21
2257.84
2256.63
2256.77
2256.73
2256.53
2257.68
2262.99
2287.06
2411.28
2380.03
2364.15
2354.28
2349.64
2349.62
2354.22
2364.06
2379.92
2411.18
2511.47
2469.39
2441.64
2424.31
2415.82
2415.81
2424.27
2441.59
2469.33
2511.42
2581.98
2529.17
2490.57
2468.54
2458.41
2458.4
2468.52
2490.54
2529.14
2581.95
1917.53
1952.86
1940.53
1948.75
1944.71
1943.78
1948.62
1939.18
1949.83
1910.96
1944.6
1960.68
1941.7
1948.39
1944.5
1943.79
1948.53
1939.02
1958.56
1939.95
1920.66
1950.95
1919.19
1926.27
1929.23
1929.04
1925.99
1917.34
1949.22
1917.69
1760.98
1885.38
1902.04
1920.48
1936.61
1936.48
1919.91
1900.78
1884.41
1758.6
1634.21
1873.24
1969.26
1999.33
2015.03
2014.92
1998.96
1968.68
1872.56
1632.53
1817.72
1817.82
1817.92
1818.02
1818.13
1818.24
1818.36
1818.47
1818.59
1818.71
1817.75
1817.86
1817.96
1818.07
1818.19
1818.3
1818.42
1818.54
1818.66
1818.78
1817.79
1817.9
1818.01
1818.13
1818.24
1818.36
1818.48
1818.6
1818.73
1818.85
1817.81
1817.92
1818.04
1818.16
1818.28
1818.4
1818.52
1818.64
1818.77
1818.9
1817.81
1817.92
1818.04
1818.17
1818.29
1818.41
1818.54
1818.67
1818.8
1818.92
1817.79
1817.91
1818.03
1818.16
1818.29
1818.41
1818.54
1818.67
1818.8
1818.94
1817.75
1817.88
1818.01
1818.14
1818.27
1818.4
1818.53
1818.67
1818.8
1818.93
1817.71
1817.84
1817.97
1818.11
1818.24
1818.37
1818.51
1818.64
1818.78
1818.92
1817.66
1817.79
1817.93
1818.07
1818.2
1818.34
1818.47
1818.61
1818.75
1818.89
1817.61
1817.75
1817.89
1818.02
1818.16
1818.29
1818.42
1818.56
1818.71
1818.86
1817.56
1817.71
1817.85
1817.99
1818.11
1818.23
1818.35
1818.47
1818.65
1818.88
1817.55
1817.71
1817.85
1817.98
1818.1
1818.23
1818.32
1814.02
1816.79
1817.69
1817.61
1817.84
1817.93
1818.1
1817.4
1812.49
1809.36
1809.99
1811.92
1819.12
1818.02
1818.59
1810.74
1804.18
1803.85
1804.32
1804.52
1812.5
1819.45
1819.51
1802.95
1810.19
1802.11
1802.92
1803.14
1808.65
1817.85
1819
1819.57
1819.6
1804.9
1802.58
1802.09
1816.19
1817.47
1819.3
1819.67
1819.67
1819.66
1819.67
1813.83
1810.3
1817.86
1819.55
1819.62
1819.63
1819.64
1819.64
1819.64
1819.65
1819.54
1819.48
1819.48
1819.57
1819.67
1819.66
1819.64
1819.61
1819.58
1819.55
1819.59
1819.51
1819.72
1819.73
1819.7
1819.63
1819.56
1819.49
1819.44
1819.23
1819.68
1819.73
1819.74
1819.74
1819.73
1819.55
1818.77
1817.85
1818.18
1818.39
1819.64
1819.37
1817.5
1816.46
1817.52
1816.86
1804.53
1802.44
1802.2
1802.14
1807.93
1807.52
1810.53
1817.22
1817.69
1813.01
1802.1
1801.89
1809.93
1812.97
1797.48
1815.5
1815.6
1814.26
1802.54
1804.49
1818.45
1817.91
1805.46
1805.18
1805.74
1816.35
1805.28
1800.7
1801.06
1804.93
1819.42
1818.94
1817.19
1815.95
1815.86
1799.17
1799.33
1799.41
1809.92
1819.57
1819.04
1818.44
1817.68
1816.74
1815.56
1800.14
1798.41
1798.26
1810.77
1819.21
1818.71
1818.1
1817.25
1816.08
1814.66
1807.69
1797.24
1797.09
1810.01
1818.86
1818.86
1818.92
1818.94
1818.52
1812.91
1802.58
1794.95
1796.8
1816.66
1817.63
1818.04
1818.65
1819.54
1820.91
1804.49
1788.41
1797.26
1814.07
1814.7
1814.98
1812.38
1810.14
1810.92
1812.33
1761.16
1791.47
1810.97
1811.16
1811.05
1809.27
1805.66
1806
1806.49
1807.16
1752.65
1792.27
1806.93
1806.75
1806.66
1806.53
1803.09
1801.12
1801.4
1805.41
1762.57
1803.28
1802.59
1802.16
1801.83
1801.59
1800.97
1800.45
1800.62
1801.83
1759.66
1798.06
1797.7
1794.34
1787.82
1794.66
1796
1795.78
1795.68
1795.71
1785.68
1795.01
1792.12
1782.27
1781.6
1783.49
1790.05
1789.59
1789.32
1789.22
1791.19
1789.79
1781.9
1776.82
1775.46
1779.44
1783.91
1783.23
1782.81
1782.46
1785.62
1784.07
1779.31
1771.19
1771.42
1778.49
1776.69
1775.79
1771.03
1766.88
1781.75
1779.56
1777.43
1773.87
1771.81
1771.45
1654.69
1528.38
1726.99
1769.03
1779.91
1777.01
1774.31
1771.43
1764.17
1554.37
1442.36
1449.39
1629.64
1766.14
1777.73
1774.42
1771.13
1754.12
1506.56
1419.81
1423.89
1426.49
1682.2
1764.19
1775.59
1772.03
1760.62
1527.26
1408.04
1409.16
1409.96
1514.55
1765.43
1762.82
1773.54
1769.92
1639.78
1399.95
1400.08
1399.75
1428.17
1745.09
1764.44
1761.64
1768.61
1767.68
1552.95
1392.9
1393.03
1414.93
1703.75
1765.81
1763.15
1759.54
1308.56
1379.7
1398.23
1539.44
1585.97
1701.24
1764.41
1761.89
1756.64
1759.71
1113.54
1126.95
1438.43
1777.73
1776.27
1773.48
1768.53
1743.49
1736.44
1749.58
1101.8
1105.27
1469.03
1783.55
1781.59
1778.37
1774.2
1748.87
1739.92
1737.83
1095.55
1120.36
1595.87
1790.35
1787.25
1783.59
1780.46
1771.77
1757.03
1743.89
1089.62
1296.43
1750.19
1796.15
1792.24
1788.69
1785.68
1783.06
1780.2
1776.29
1238.38
1654.72
1801.06
1799.54
1796.09
1793.1
1790.53
1788.16
1786
1784.02
1685.54
1804.47
1804.22
1801.67
1799.12
1796.76
1794.59
1792.66
1790.83
1789.12
1807.47
1806.02
1804.58
1802.99
1801.27
1799.52
1797.74
1796.2
1794.72
1793.3
1806.42
1805.72
1804.78
1803.67
1802.46
1801.18
1799.83
1798.54
1797.33
1796.14
1805.77
1805.13
1804.38
1803.54
1802.62
1801.62
1800.57
1799.51
1798.45
1797.33
1804.2
1803.67
1803.09
1802.43
1801.69
1800.85
1799.93
1798.97
1797.98
1797.02
1802.08
1801.63
1801.11
1800.52
1799.81
1798.98
1798.04
1796.99
1795.94
1794.84
1799.63
1799.2
1798.63
1797.96
1797.16
1796.21
1795.02
1793.78
1792.46
1791.18
1797.09
1796.56
1795.83
1794.98
1793.98
1792.77
1791.31
1789.75
1788.08
1786.13
1794.66
1793.85
1792.9
1791.81
1790.55
1789.07
1787.32
1785.35
1782.87
1779.5
1792.48
1791.35
1790.11
1788.74
1787.19
1785.43
1783.38
1780.84
1777.45
1772.06
1790.7
1789.3
1787.83
1786.26
1784.62
1782.86
1780.98
1778.82
1776.45
1775.85
1789.5
1787.84
1786.08
1784.21
1782.23
1780.17
1777.93
1775.49
1772.67
1770.02
1789.46
1787.62
1785.64
1783.54
1781.27
1778.79
1776.11
1773.07
1769.35
1764.52
1790.99
1789.18
1787.21
1785.13
1782.89
1780.46
1777.8
1774.82
1771.41
1767.37
1794.79
1792.96
1791.06
1789.18
1787.14
1784.87
1782.34
1779.49
1776.21
1772.42
1801.03
1799.29
1797.36
1795.64
1794
1792
1789.74
1787.19
1784.16
1780.32
1808.15
1807.63
1805.11
1803.03
1802.92
1801.74
1799.82
1797.55
1794.76
1790.25
1809.21
1812.36
1798.05
1807.75
1815.58
1814.18
1812.52
1810.66
1808.31
1803.12
1366.6
1466.4
1750.55
1828.02
1829.05
1828.09
1826.87
1825.61
1824.06
1819.25
1166.42
1176.09
1414.78
1825.92
1844.16
1843.48
1842.3
1841.36
1840.59
1836.94
1156.04
1168.76
1606.19
1855.63
1858.23
1857.5
1856.3
1855.29
1854.34
1850.14
1141.77
1442.1
1857.19
1870.77
1871.37
1870.55
1869.06
1866.98
1863.53
1821.72
1124.31
1760.93
1887.91
1888.79
1887.71
1886.03
1883.83
1881.05
1845.38
1382.55
931.904
1714.84
1904.62
1905.09
1903.76
1901.45
1856.23
1817
1341.33
1228.93
848.783
1690.85
1901.48
1911.36
1914.21
1831.75
1421.9
1373.02
1354.39
1405.11
1592.25
1872.01
1891.4
1879.13
1655.17
1306.75
1335.91
1375.17
1691.41
1883.62
1844.73
1863.58
1763.05
1317.02
1276.93
1274.1
1428.99
1903.52
1894.4
1870.49
1840.44
1637.06
1017.5
1042.31
1284.72
1751.61
1914.8
1896.19
1876.03
1852.8
1700.32
717.223
743.347
1309.12
1919.75
1913.15
1897.05
1878.99
1857.95
1833.69
770.588
542.96
1018.36
1883.45
1912.47
1899.69
1882.72
1862.94
1840.19
1814.83
441.441
511.595
1743.47
1916.68
1904.01
1887.07
1868.27
1846.93
1823.01
1796.97
430.177
1072.38
1888.67
1901.55
1888.71
1872.32
1853.36
1831.67
1807.51
1781.54
388.735
1422.1
1903.67
1894.06
1878.39
1860.97
1841.3
1819.17
1795.11
1770.01
410.703
1626.31
1899.98
1885.55
1868.32
1850.33
1830.49
1808.55
1785.09
1760.88
577.004
1733.43
1886.22
1872.67
1856.84
1839.83
1820.85
1800.05
1778.29
1756.33
656.268
1791.81
1874.85
1862.3
1847.8
1831.68
1813.47
1793.67
1773.32
1753.34
795.542
1844.67
1870.22
1856.82
1842.56
1826.8
1809.11
1789.96
1769.89
1749.07
982.113
1865.79
1864.91
1852.37
1839.02
1824.28
1807.97
1790.66
1772.91
1755.26
1123.75
1869.66
1860.52
1848.42
1836.18
1823.01
1808.69
1793.76
1778.65
1763.98
1200.32
1857.2
1851.27
1842.56
1833.1
1822.53
1810.81
1798.41
1785.68
1741.79
1237.47
1847.89
1845.15
1839.44
1832.76
1824.93
1815.89
1805.93
1795.68
1631.07
1279.47
1842.38
1842.91
1840.18
1836.12
1830.9
1824.57
1817.63
1811.55
1591.32
1336.5
1849.27
1848.63
1846.29
1842.93
1838.82
1834.12
1829.98
1828.66
1558.85
1409.56
1862.87
1858.68
1854.95
1850.81
1846.26
1841.29
1836.88
1833.46
1502.97
1464.99
1873.07
1867.49
1862.87
1858.18
1853.31
1847.93
1842.55
1836.16
1444.26
1488.69
1877.76
1873.16
1868.78
1864.74
1860.51
1855.48
1849.95
1843.23
1420.09
1484.76
1876.55
1876.46
1874.09
1871.97
1869.21
1865.12
1860.37
1853.97
1427.46
1476.01
1878.95
1883.65
1882.74
1881.77
1880.06
1876.94
1873.83
1868.24
1494.05
1534.04
1895.83
1897.01
1894.72
1893.37
1891.91
1889.13
1887.44
1882.21
1561.7
1637.79
1905.72
1907.44
1906.78
1905.87
1904.77
1902.38
1901.33
1896.04
1642.65
1722.04
1924.05
1922
1921.63
1920.01
1919.17
1918.98
1919.89
1918.75
1735.88
1832.7
1950.51
1937.57
1937.1
1933.83
1933.07
1935.99
1938.48
1950.31
1828.2
1818.83
1818.97
1819.1
1819.24
1819.38
1819.52
1819.65
1819.79
1819.92
1820.06
1820.19
1820.32
1820.44
1820.57
1820.69
1820.81
1820.92
1821.03
1821.13
1821.23
1821.33
1821.42
1821.5
1821.58
1821.66
1821.72
1821.79
1821.84
1821.9
1821.96
1822.01
1822.04
1822.06
1822.09
1822.13
1822.16
1822.18
1822.21
1822.22
1822.21
1818.91
1819.05
1819.19
1819.33
1819.46
1819.6
1819.74
1819.87
1820.01
1820.14
1820.27
1820.4
1820.53
1820.65
1820.78
1820.89
1821.01
1821.12
1821.22
1821.32
1821.41
1821.5
1821.59
1821.67
1821.75
1821.81
1821.88
1821.94
1821.99
1822.04
1822.09
1822.13
1822.16
1822.18
1822.19
1822.2
1822.21
1822.22
1822.22
1822.23
1818.98
1819.12
1819.26
1819.4
1819.54
1819.68
1819.82
1819.95
1820.09
1820.22
1820.35
1820.48
1820.61
1820.73
1820.85
1820.97
1821.09
1821.19
1821.3
1821.4
1821.49
1821.58
1821.66
1821.74
1821.82
1821.87
1821.93
1821.98
1822.04
1822.09
1822.12
1822.16
1822.18
1822.19
1822.2
1822.21
1822.22
1822.24
1822.25
1822.28
1819.03
1819.17
1819.31
1819.46
1819.6
1819.74
1819.88
1820.02
1820.15
1820.29
1820.42
1820.55
1820.68
1820.81
1820.93
1821.05
1821.16
1821.27
1821.38
1821.47
1821.57
1821.66
1821.74
1821.82
1821.9
1821.94
1822
1822.05
1822.12
1822.15
1822.18
1822.2
1822.21
1822.22
1822.21
1822.2
1822.22
1822.28
1822.32
1822.35
1819.06
1819.21
1819.35
1819.5
1819.64
1819.78
1819.92
1820.07
1820.2
1820.34
1820.48
1820.61
1820.75
1820.87
1821
1821.12
1821.24
1821.35
1821.45
1821.55
1821.65
1821.74
1821.83
1821.9
1821.96
1822.02
1822.08
1822.15
1822.2
1822.24
1822.26
1822.27
1822.27
1822.25
1822.2
1821.33
1821.53
1822.39
1822.42
1822.46
1819.08
1819.22
1819.37
1819.52
1819.67
1819.81
1819.96
1820.11
1820.25
1820.39
1820.54
1820.67
1820.81
1820.94
1821.07
1821.2
1821.32
1821.42
1821.53
1821.63
1821.75
1821.84
1821.92
1822
1822.05
1822.11
1822.19
1822.27
1822.32
1822.36
1822.4
1822.42
1822.44
1822.37
1820.78
1820.55
1820.48
1821.22
1821.03
1820.73
1819.08
1819.23
1819.38
1819.53
1819.68
1819.84
1819.99
1820.14
1820.29
1820.44
1820.59
1820.74
1820.88
1821.02
1821.16
1821.29
1821.4
1821.52
1821.63
1821.74
1821.86
1821.95
1822.04
1822.1
1822.16
1822.23
1822.32
1822.39
1822.46
1822.52
1822.58
1822.63
1822.68
1821.78
1820.34
1820.4
1820.4
1820.41
1820.45
1820.49
1819.06
1819.22
1819.37
1819.53
1819.69
1819.85
1820.01
1820.17
1820.33
1820.48
1820.64
1820.8
1820.95
1821.1
1821.25
1821.37
1821.5
1821.63
1821.76
1821.89
1821.99
1822.09
1822.17
1822.23
1822.3
1822.38
1822.44
1822.51
1822.59
1822.68
1822.77
1822.84
1822.9
1822.19
1820.79
1820.58
1822.01
1820.78
1820.52
1821.39
1819.04
1819.19
1819.35
1819.52
1819.69
1819.86
1820.02
1820.19
1820.36
1820.53
1820.69
1820.86
1821.03
1821.18
1821.32
1821.48
1821.63
1821.79
1821.93
1822.05
1822.17
1822.26
1822.33
1822.41
1822.49
1822.53
1822.53
1822
1822.43
1822.89
1823.01
1823.1
1823.2
1823.19
1823.16
1823.38
1823.42
1823.25
1823.09
1823.59
1819.01
1819.15
1819.29
1819.36
1819.61
1819.86
1820.04
1820.21
1820.39
1820.57
1820.74
1820.92
1821.09
1821.25
1821.43
1821.61
1821.8
1821.96
1822.11
1822.25
1822.38
1822.48
1822.58
1822.69
1822.77
1822.82
1821.49
1815.9
1820.62
1823.28
1823.37
1823.27
1823.33
1823.47
1823.19
1821.36
1820.75
1823.37
1823.77
1823.73
1818.9
1817.6
1817.61
1818.25
1819.7
1819.9
1820.07
1820.25
1820.42
1820.6
1820.79
1820.97
1821.15
1821.35
1821.56
1821.77
1821.97
1822.15
1822.32
1822.49
1822.62
1822.77
1822.92
1823.1
1823.24
1821.95
1813.84
1814.32
1815.78
1824.21
1823.72
1819.38
1819.94
1823.93
1822.24
1818.97
1818.99
1819.19
1821.33
1823.52
1816.46
1816.82
1817.01
1819.26
1819.8
1819.95
1820.11
1820.28
1820.45
1820.63
1820.81
1821
1821.22
1821.45
1821.69
1821.92
1822.14
1822.35
1822.55
1822.73
1822.9
1823.08
1823.28
1823.45
1821.5
1813.11
1813.35
1813.48
1816.38
1825.47
1818.83
1818.62
1818.54
1824.72
1822.9
1818.98
1818.86
1818.73
1818.59
1822.47
1817.65
1817.59
1819.28
1819.71
1819.85
1820
1820.14
1820.28
1820.46
1820.64
1820.81
1820.99
1821.22
1821.5
1821.76
1822
1822.3
1822.56
1822.79
1823.01
1823.23
1823.44
1823.66
1823.6
1815.68
1813.13
1813.29
1814.67
1821.62
1819.05
1818.68
1818.74
1822.95
1824.91
1824.59
1823.48
1820.09
1818.82
1818.71
1823.16
1819.54
1819.58
1819.7
1819.81
1819.91
1819.99
1820.13
1820.29
1820.49
1820.65
1820.8
1820.88
1821.07
1821.31
1821.51
1822.22
1822.53
1822.8
1823.04
1823.28
1823.5
1823.76
1824.01
1823.85
1815.23
1813.22
1816.11
1825.03
1823.59
1819.6
1821.45
1824.34
1825.15
1825.16
1825.18
1825.18
1824.67
1822.19
1823.07
1824.65
1819.65
1819.71
1819.77
1819.8
1819.91
1820.03
1820.21
1820.43
1820.59
1820.83
1821.06
1810.91
1805.99
1819.43
1822.11
1822.48
1822.79
1823.06
1823.17
1823.37
1823.74
1824.02
1824.27
1824.18
1821.84
1821.37
1824.5
1825.45
1825.17
1824.89
1825.32
1825.39
1825.39
1825.38
1825.35
1825.33
1825.31
1825.29
1825.27
1825.27
1819.69
1819.69
1819.72
1819.8
1819.97
1820.11
1820.3
1820.67
1815.96
1801.76
1801.35
1802.17
1803.97
1822.33
1822.78
1822.99
1823.17
1823.24
1823.47
1823.66
1824.05
1824.3
1824.59
1824.89
1825.19
1825.44
1825.6
1825.72
1825.74
1825.73
1825.7
1825.66
1825.61
1825.56
1825.36
1825.27
1825.4
1825.41
1825.41
1825.4
1819.67
1819.69
1819.72
1819.82
1820.01
1819.28
1804.64
1798.49
1799.33
1799.97
1800.55
1812.63
1822.87
1822.42
1823.19
1823.37
1823.36
1823.62
1823.85
1824.19
1824.25
1824.44
1824.82
1825.27
1825.62
1825.83
1825.96
1826.05
1826.09
1826.05
1825.98
1825.89
1825.79
1825.58
1825.39
1825.33
1825.28
1825.45
1825.53
1825.55
1819.57
1819.65
1819.82
1819.7
1804.14
1797.2
1797.7
1798.02
1817.14
1819.34
1819.44
1822.44
1822.98
1823.02
1823.15
1823.49
1823.9
1824.27
1824.6
1824.63
1824.27
1824.04
1824.92
1825.74
1826.16
1826.32
1826.41
1826.44
1826.42
1826.33
1826.21
1826.06
1825.86
1825.53
1825.41
1825.33
1825.3
1825.5
1825.6
1825.71
1818.66
1818.4
1818.63
1819.36
1818.29
1801.55
1797.05
1797.38
1808.87
1822.79
1823.03
1823.13
1823.32
1823.52
1823.55
1823.62
1824.09
1825.02
1826.22
1823.21
1781
1769.61
1775.88
1824.59
1827.04
1827.06
1826.98
1826.86
1826.7
1826.53
1826.36
1826.16
1825.93
1825.7
1825.5
1825.42
1825.46
1825.54
1825.66
1825.84
1806.92
1801.69
1801.91
1802.08
1802.13
1802.2
1808.51
1821.57
1822.15
1822.96
1823.38
1823.7
1823.96
1824.42
1806.31
1759.55
1760.47
1762.13
1773.8
1765.05
1765.94
1767.07
1768.88
1813.28
1828.02
1827.76
1827.48
1827.17
1826.89
1826.67
1826.49
1826.27
1825.99
1825.69
1825.44
1825.35
1825.43
1825.63
1825.83
1826.02
1801.84
1805.12
1814.45
1814.88
1815.28
1816.01
1813.6
1813.18
1813.59
1822.22
1824.18
1824.84
1813.02
1756.4
1758.07
1759.1
1759.74
1760.14
1760.32
1761.59
1805.16
1830.58
1830.13
1829.3
1828.76
1828.34
1827.86
1827.35
1826.97
1826.78
1826.66
1826.47
1825.78
1823.93
1824.67
1825.13
1825.5
1826.04
1826.45
1826.55
1813.12
1812.89
1805.62
1805
1805.46
1806.13
1808.18
1821.67
1823.11
1823.74
1824.45
1825.23
1826.34
1821.55
1771.53
1758.51
1775.21
1832.03
1831.74
1831.49
1831.05
1830.73
1830.34
1829.7
1829.1
1828.75
1828.14
1827.27
1826.73
1826.74
1827.03
1827.17
1826
1819.44
1800.58
1798.46
1808.59
1823.26
1827.39
1826.64
1804.74
1804.44
1805.51
1816.56
1817.68
1818.71
1820.23
1821.01
1822.07
1823.47
1824.9
1819.1
1764.93
1754.69
1781.64
1833.3
1832.16
1830.49
1829.09
1826.89
1826.56
1827.1
1822.98
1813.91
1810.67
1819.49
1821.99
1809.31
1798.8
1803.61
1821.77
1826.3
1828.9
1823.54
1773.79
1760.04
1760.26
1779.94
1798.61
1800.14
1815.36
1814.84
1814.16
1812.82
1813.15
1817.08
1764.31
1731.51
1732.37
1732.75
1735.66
1734.88
1722.92
1769.9
1813.31
1824.54
1835.07
1816.83
1724.67
1664.48
1655.43
1666.32
1657.19
1633.03
1630.44
1666.57
1668.48
1615.67
1580.33
1612.97
1705.18
1749.07
1784.39
1810.99
1804.62
1758.69
1759.38
1778.15
1801.66
1801.44
1815.49
1814.42
1808.94
1640.86
1510.82
1518.28
1676.68
1745.22
1745.52
1746.25
1748.91
1750.85
1678.06
1582.89
1586.03
1701.55
1851.35
1760.85
1577.3
1577.5
1577.3
1577.81
1577.93
1583
1604.46
1593.66
1573.44
1568.26
1565.9
1564.01
1562.73
1561.89
1569.05
1624.62
1674.24
1729.93
1775.52
1784.92
1785.93
1788.94
1814.38
1692.18
1499.52
1499.34
1501.18
1502.13
1516.3
1664.73
1594.36
1560.34
1562.64
1564.23
1570.21
1573.6
1592.35
1763.4
1845.06
1848.64
1834.11
1665.51
1577.4
1590.27
1723.07
1833.57
1852.25
1850.82
1819.46
1720.63
1647.56
1604.91
1573.64
1563.36
1567.54
1568.92
1566.13
1563.16
1575.98
1591.12
1592.64
1608.09
1800.8
1576.81
1494.3
1495.08
1496.04
1496.49
1496.4
1570.67
1817.67
1835.65
1834.23
1836.68
1838.85
1826.02
1822.01
1832.81
1840.32
1842.91
1844.79
1845.77
1845.21
1845.52
1846.4
1847.54
1848.37
1848.86
1849.63
1850.78
1852.34
1853.98
1843.47
1804.15
1768.02
1730.84
1685.54
1615.52
1524.44
1489.3
1488.17
1487.55
1822.44
1812.66
1685.61
1508.47
1488.65
1578.3
1827.5
1832.4
1831.6
1831.32
1831.51
1832.4
1833.54
1834.45
1835.19
1836.2
1837.48
1839.59
1841.06
1842.07
1842.87
1843.83
1844.97
1843.89
1841.71
1846.64
1847.73
1848.79
1849.93
1850.89
1852.06
1853.2
1853.84
1854.86
1856.17
1857.39
1846.1
1693.96
1564.86
1504.66
1818.07
1821.33
1811.89
1791.96
1786.47
1812.36
1824.96
1825.56
1826.07
1826.67
1827.47
1828.5
1828.86
1827.05
1828.31
1829.73
1831.34
1834.21
1837.63
1839.42
1841.02
1842.36
1843.63
1843.99
1818.48
1794.73
1824.51
1846.36
1847.56
1848.1
1848.63
1849.7
1851.41
1852.67
1853.63
1853.66
1853.89
1854.64
1854.87
1817.67
1811.35
1815.31
1816.45
1816.88
1817
1817.02
1813.61
1813.1
1818.35
1821.32
1822.55
1823.8
1824.94
1823.82
1824.37
1825.97
1827.76
1829.62
1831.47
1835.3
1838.81
1840.68
1842.08
1841.55
1835.37
1749.75
1706.15
1724.54
1749.61
1769.81
1760.65
1771.58
1814.4
1828.67
1833.22
1840.65
1848.95
1851.82
1852.14
1851.08
1808.36
1809.09
1809.88
1810.54
1809.82
1795.55
1793.13
1793.99
1794.88
1804.2
1817.23
1818.02
1819.96
1822.1
1823.87
1825.75
1826.17
1825.84
1829.06
1833.84
1836.14
1838.18
1838.01
1839.1
1843.95
1837.07
1699.29
1620.1
1617.87
1614.69
1612.59
1610.39
1623.21
1633.33
1632.26
1648.47
1696.43
1767.07
1831.76
1843.77
1802.25
1802.75
1803.36
1804.02
1796.66
1785.61
1786.46
1787.4
1788.5
1789.69
1791.13
1800.35
1814.94
1816.83
1818.8
1820.89
1823.08
1825.36
1827.73
1830.2
1832.47
1833.87
1836.73
1841.15
1844.3
1847.64
1850.82
1789.79
1694.09
1648.4
1621.32
1605.78
1590.45
1583.23
1577.53
1574.31
1570.54
1566.87
1640.89
1778.01
1795.87
1796.22
1796.74
1797.4
1798.02
1798.99
1796.1
1781.45
1781.67
1783.12
1784.86
1790.02
1808.64
1811.07
1813.23
1815.51
1817.92
1820.43
1823.05
1825.76
1828.55
1831.42
1834.36
1837.35
1840.38
1843.39
1846.24
1848.97
1851.72
1854.55
1849.23
1827.59
1791.07
1736.29
1666.07
1592.21
1562.35
1559.51
1557.2
1739.9
1789.25
1789.46
1789.8
1788.4
1788.46
1792.29
1793.41
1794.62
1795.91
1796.55
1792.65
1793.2
1802.31
1804.69
1807.04
1809.52
1812.17
1814.92
1817.78
1820.73
1823.75
1826.85
1829.98
1833.14
1836.28
1839.36
1842.29
1845.02
1847.61
1850.12
1852.42
1854.19
1855.44
1856.75
1858.16
1835.9
1708.25
1559.34
1554.5
1735.92
1781.72
1780.07
1779.53
1779.73
1780.62
1784.23
1786.05
1787.21
1788.54
1790.04
1791.69
1793.52
1795.58
1797.86
1800.34
1803
1805.85
1808.82
1811.91
1815.1
1818.38
1821.7
1825.06
1828.42
1831.75
1835
1838.14
1841.12
1843.94
1846.54
1847.33
1845.68
1846.64
1850.02
1853.63
1854.87
1854.18
1749.1
1555.27
1751.8
1774.63
1773.93
1772.26
1772.69
1773.26
1776.94
1778.76
1779.8
1780.91
1782.32
1784.09
1786.01
1788.14
1790.51
1793.1
1795.92
1798.93
1802.11
1805.44
1808.9
1812.43
1816.03
1819.64
1823.24
1826.79
1830.25
1833.58
1836.77
1839.77
1842.55
1842.97
1839.09
1840.82
1842.21
1843.86
1849.71
1851.63
1849.21
1655.27
1736.42
1769.43
1767.59
1765.81
1766.09
1766.87
1770.96
1771.61
1772.37
1773.34
1774.62
1776.2
1778.13
1780.22
1782.61
1785.28
1788.23
1791.42
1794.82
1798.41
1802.14
1805.97
1809.86
1813.77
1817.66
1821.48
1825.2
1828.78
1832.2
1835.41
1838.39
1841.11
1842.79
1839.75
1838.81
1840.29
1842.16
1849.43
1848.92
1848.24
1776.02
1765.35
1764.69
1762.96
1762.43
1764.08
1764.55
1764.85
1765.36
1766.02
1766.94
1768.37
1769.99
1771.96
1774.29
1776.98
1780.02
1783.37
1787
1790.85
1794.88
1799.03
1803.25
1807.5
1811.72
1815.87
1819.9
1823.78
1827.47
1830.93
1834.14
1837.07
1839.68
1841.93
1842.41
1839.91
1844.55
1846.39
1845.12
1840.56
1790.35
1762.57
1761.37
1760.45
1759.76
1759.23
1758.88
1758.72
1758.76
1759.05
1759.61
1760.5
1761.78
1763.49
1765.68
1768.34
1771.43
1774.92
1778.75
1782.87
1787.21
1791.71
1796.29
1800.92
1805.52
1810.04
1814.44
1818.67
1822.69
1826.47
1829.97
1833.16
1836.01
1838.47
1840.5
1842.07
1843.11
1843.5
1840.65
1792.57
1754.09
1760.27
1757.38
1757.14
1756.04
1755.01
1754.15
1753.44
1752.93
1752.64
1752.62
1752.95
1753.73
1755.07
1756.98
1759.53
1762.66
1766.25
1770.28
1774.66
1779.32
1784.17
1789.14
1794.16
1799.18
1804.12
1808.94
1813.58
1818
1822.15
1826.01
1829.54
1832.7
1835.45
1837.76
1839.58
1840.86
1841.52
1837.63
1756.35
1748.3
1751.97
1748.59
1751.86
1753.51
1752.03
1750.67
1749.43
1748.27
1747.13
1746.32
1746.17
1746.3
1747.14
1748.68
1751.02
1754.1
1757.77
1761.97
1766.59
1771.52
1776.7
1782.03
1787.45
1792.88
1798.26
1803.53
1808.63
1813.5
1818.1
1822.39
1826.32
1829.86
1832.97
1835.6
1837.71
1839.25
1840.13
1838.93
1792.61
1745.88
1749.87
1747.65
1745.76
1752.4
1750.59
1748.8
1747.07
1745.37
1743.62
1737.32
1732.58
1738.25
1739.78
1741.25
1743.32
1746.25
1749.98
1754.31
1759.05
1764.13
1769.5
1775.14
1780.94
1786.79
1792.61
1798.35
1803.95
1809.33
1814.44
1819.23
1823.64
1827.64
1831.17
1834.18
1836.63
1838.45
1839.57
1839.82
1833
1744.22
1756.88
1749.95
1749.66
1752.83
1750.88
1748.83
1746.75
1744.56
1742.23
1739.88
1668.27
1516.93
1543.61
1733.46
1736.63
1739.67
1743.31
1747.98
1752.64
1757.71
1763.07
1768.83
1774.88
1781.08
1787.32
1793.54
1799.65
1805.59
1811.28
1816.66
1821.64
1826.19
1830.23
1833.71
1836.58
1838.76
1840.19
1840.7
1836.27
1743.65
1760.88
1759.34
1757.3
1755.36
1753.3
1751.24
1749.19
1747.11
1744.86
1742.63
1721.48
1279.58
1072.5
1403.03
1733.26
1735.61
1739.24
1743.46
1749.06
1754.3
1759.23
1765.01
1770.72
1776.64
1782.89
1789.39
1795.94
1802.43
1808.75
1814.78
1820.4
1825.65
1830.32
1834.38
1837.76
1840.41
1842.25
1843.1
1839.55
1744.88
1740.7
1761.73
1761.55
1759.43
1757.37
1755.36
1753.4
1751.48
1749.56
1747.55
1747.14
1604.04
1047.82
1022.2
1501.42
1725.49
1739.37
1743.6
1742.45
1673.62
1672.69
1742.53
1766.15
1773.1
1779.3
1785.9
1792.82
1799.89
1806.9
1813.65
1820.09
1826.16
1831.59
1836.34
1840.37
1843.6
1845.93
1847.23
1846.01
1749.3
1747.76
1764.64
1766.7
1764.7
1762.78
1760.91
1759.07
1757.23
1755.19
1752.77
1750.76
1749.09
1287.68
1007.6
1047.65
1408.76
1717.41
1752.07
1641.39
1150.87
1068.1
1288.61
1561.68
1734.67
1772.46
1781.52
1789.63
1797.63
1805.6
1813.31
1820.77
1827.82
1834.18
1839.79
1844.59
1848.51
1851.45
1853.22
1853.31
1805.09
1774.38
1772.89
1772.12
1770.72
1769.03
1767.4
1765.8
1764.19
1762.24
1760.19
1758.37
1756.25
1754.37
1292.8
1048.99
1049.54
1247.56
1456.91
1206.84
857.457
839.708
848.753
964.188
1255.48
1615.69
1770.82
1785.6
1795.58
1804.91
1813.8
1822.63
1830.82
1838.31
1844.97
1850.75
1855.56
1859.32
1861.87
1863.02
1835.68
1782.11
1780.29
1778.6
1777.13
1775.77
1774.5
1773.31
1772.16
1770.54
1769.21
1767.86
1766.51
1764.68
1762.02
1525.79
1133.24
903.588
857.883
837.123
836.975
836.992
836.997
837.075
845.172
1039.65
1476.46
1765.38
1793.52
1804.97
1815.49
1825.9
1835.45
1844.25
1852.16
1859.09
1864.99
1869.78
1873.36
1875.54
1838.44
1787.47
1785.9
1784.53
1783.35
1781.95
1780.05
1779.94
1780.21
1779.57
1779.05
1778.75
1778.6
1778.57
1777.69
1776.24
1715.7
1114.29
839.234
836.755
836.763
836.78
836.714
836.636
836.669
836.692
947.06
1414.4
1760.05
1801.05
1818.28
1830.83
1842.04
1852.35
1861.68
1869.93
1877.08
1883.1
1887.89
1891.31
1851.56
1791.91
1790.62
1789.54
1787.61
1786.58
1786.26
1786.21
1786.41
1786.93
1788.86
1789.93
1791.01
1792.28
1793.58
1794.73
1796.83
1609.28
940.547
837.419
836.764
836.68
836.636
836.598
836.543
836.523
836.458
934.129
1495.77
1784.07
1819.76
1837.42
1850.95
1863.01
1873.93
1883.67
1892.24
1899.69
1906.1
1911.36
1872.07
1795.01
1793.78
1791.79
1791.08
1790.88
1791.04
1791.62
1793.31
1795.56
1797.32
1799.4
1801.87
1804.71
1807.68
1810.68
1815.09
1692.83
994.77
837.733
836.523
836.474
836.463
836.479
836.483
836.472
836.464
836.327
1031.77
1663.77
1820.69
1845.89
1862.7
1876.81
1889.39
1900.67
1910.73
1919.77
1928.08
1935.6
1910.21
1795.1
1794.13
1793.48
1794.09
1794.78
1795.44
1796.66
1798.52
1800.99
1803.88
1807.18
1811.07
1815.47
1819.69
1824.23
1832
1486.22
877.025
836.229
836.185
836.229
836.279
836.334
836.398
836.426
836.509
836.531
848.035
1393.95
1825.01
1858.25
1878.35
1894.49
1908.59
1921.25
1932.73
1943.42
1953.93
1964.35
1946.43
1795.66
1793.79
1794.19
1794.43
1794.84
1795.93
1797.81
1800.7
1804.43
1808.01
1811.46
1816.73
1824.88
1832.25
1838.29
1554.58
911.968
835.364
835.644
835.799
835.928
836.048
836.169
836.263
836.377
836.595
836.801
837.221
1223.28
1825.57
1877.71
1899.39
1916.78
1931.81
1945.37
1957.94
1970.17
1983.07
1996.92
1983.21
1793.79
1792.78
1792.08
1791.85
1792.32
1793.45
1795.13
1798.86
1805.26
1809.19
1804.5
1764.03
1751.83
1626.77
1062.24
832.105
833.98
834.636
835.036
835.331
835.588
835.798
835.993
836.207
836.465
837.044
838.109
840.971
1239.8
1850.59
1907.39
1927.24
1943.89
1958.63
1972.21
1985.26
1998.72
2013.97
2031.73
2021.99
1789.73
1788.27
1786.94
1785.72
1785.11
1783.41
1755.33
1657.25
1547.86
1489.94
1354.83
971.956
803.183
820.188
830.134
832.39
833.292
833.853
834.321
834.768
835.278
835.881
836.751
837.912
839.751
842.582
847.899
1036.81
1715.28
1927.69
1944.74
1959.69
1973.5
1986.54
1999.3
2012.25
2026.17
2042
2065.92
2059.58
1783.94
1781.89
1779.98
1735.34
1591.64
1313
1077.51
773.377
733.296
754.981
777.469
791.658
798.062
803.815
813.046
824.079
830.226
833.814
838.206
844.563
854.615
874.088
904.852
946.022
1024.85
1156.28
1388.53
1828.13
1968.93
1972.1
1979.1
1988.79
1999.37
2010.41
2022.26
2035.13
2047.85
2065.13
2095.1
2092.56
1775.88
1731.72
1455.13
1024.19
745.083
695.658
709.274
715.841
720.705
729.328
742.377
776.909
825.513
884.978
961.776
1044.14
1123.77
1215.47
1309.02
1393.81
1476.09
1565.44
1653.24
1736.82
1892.16
1966.68
1977.35
1982.72
1984.7
1988.61
1995.7
2004.59
2014.31
2024.86
2036.55
2050.01
2062.68
2082.07
2116.25
2116.64
1660.36
1048.84
675.35
680.74
683.681
685.85
689.255
702.34
762.541
893.906
1115.23
1353.51
1538.17
1665.98
1754.03
1814.85
1868.46
1881.22
1888.96
1897.56
1906.51
1915.77
1925.29
1935.19
1944.89
1953.9
1962.16
1969.73
1977.48
1986.19
1995.73
2005.85
2016.38
2027.57
2040.01
2054.4
2069.23
2088.74
2124.86
2128.58
1290.51
665.417
667.685
669.956
673.525
707.046
851.096
1146.92
1469.82
1729.21
1820.52
1827.72
1836.21
1846.1
1855.68
1863.86
1870.87
1877.31
1883.54
1889.68
1895.91
1902.46
1909.54
1917.22
1925.52
1934.38
1943.75
1953.51
1963.57
1973.92
1984.44
1994.85
2006.44
2018.79
2032.1
2047.24
2064.32
2077.7
2118.92
2126.56
1549.54
892.91
748.075
849.163
1031.47
1321.8
1641.1
1756.55
1770.21
1793.06
1814.39
1830.73
1843.39
1853.59
1861.43
1867.1
1871.11
1874.12
1876.7
1879.32
1882.35
1886.14
1890.92
1896.82
1903.9
1912.02
1921.01
1930.76
1940.98
1951.58
1961.79
1973.17
1985.1
1998.53
2012.41
2028.29
2043.55
2060.06
2099.13
2109.92
1759.53
1719.73
1641.13
1658.6
1645.65
1625.97
1589.95
1565.22
1611.4
1699.86
1796.27
1830.16
1843.48
1851.4
1856.28
1858.83
1859.89
1860.03
1859.85
1859.83
1860.42
1862
1864.85
1869.13
1874.86
1881.89
1890.07
1899.2
1909.04
1919.16
1929.68
1941.23
1953.65
1966.9
1981.64
1998.1
2017.06
2030.54
2065.73
2079.04
1762.41
1756.77
1749.51
1598.98
1354.97
1099.25
887.375
759.153
881.949
1447.41
1796.52
1826.7
1836.2
1840.66
1842.31
1841.74
1839.7
1836.95
1833.98
1831.38
1829.64
1829.21
1830.32
1833.07
1837.2
1842.63
1849.77
1858.24
1867.58
1877.74
1888.34
1899.84
1912.33
1924.62
1940.06
1958.02
1976.91
1994.54
2024.22
2035.52
1767.41
1758.93
1432.75
704.118
649.115
652.597
657.762
663.498
675.133
1292.67
1790.38
1818.53
1821.71
1821.35
1819.17
1815.2
1810.12
1804.54
1799.11
1794.36
1790.66
1788.44
1788.03
1789.36
1791.78
1795.47
1799.67
1806.7
1817.8
1827.92
1838.94
1851.04
1862.54
1876.5
1891.54
1909.89
1929.36
1935.19
1972.31
1996.86
1773.79
1417.8
671.496
644.198
645.095
646.541
648.935
651.439
811.156
1504.77
1789.87
1800.86
1798.36
1793.92
1788.09
1780.97
1773.14
1765.01
1757.04
1749.63
1741.91
1734.58
1721.4
1693.1
1687.48
1698.29
1723.12
1750.37
1761.34
1772.24
1784.18
1797.43
1809.94
1824.72
1840.4
1858.67
1877.37
1851.61
1912.97
1937.59
1651.95
804.37
639.445
636.957
637.813
638.178
636.624