/*--------------------------------*- C++ -*----------------------------------*\
  =========                 |
  \\      /  F ield         | OpenFOAM: The Open Source CFD Toolbox
   \\    /   O peration     | Website:  https://openfoam.org
    \\  /    A nd           | Version:  8
     \\/     M anipulation  |
\*---------------------------------------------------------------------------*/
FoamFile
{
    version     2.0;
    format      ascii;
    class       volScalarField;
    location    "2";
    object      alpha.water;
}
// * * * * * * * * * * * * * * * * * * * * * * * * * * * * * * * * * * * * * //

dimensions      [0 0 0 0 0 0 0];

internalField   nonuniform List<scalar> 
9150
(
1
1
1
1
1
1
1
1
1
1
1
1
1
1
1
1
1
1
1
1
1
1
1
1
1
1
1
1
1
1
1
1
1
1
1
1
1
1
1
1
1
1
1
1
1
1
1
1
1
1
1
1
1
1
1
1
1
1
1
1
1
1
1
1
1
1
1
1
1
1
1
1
1
1
1
1
1
1
1
1
1
1
1
1
1
1
1
1
1
1
1
1
1
1
1
1
1
1
1
1
1
1
1
1
1
1
1
1
1
1
1
1
1
1
1
1
1
1
1
1
1
1
1
1
1
1
1
1
1
1
1
1
1
1
1
1
1
1
1
1
1
1
1
1
1
1
1
1
1
1
0.840472
0.840472
0.840472
0.840454
0.84046
0.840536
0.840601
0.840498
0.83581
0.835835
0.326687
0.74509
0.840454
0.840442
0.72358
0.548594
0.713467
0.840549
0.839194
0.837728
0.20661
0.178493
0.175743
0.171927
0.171888
0.387997
0.816359
0.83828
0.837656
0.763184
0.683264
0.259473
0.173258
0.171888
0.171888
0.171888
0.174555
0.641718
0.835752
0.638438
0.849579
0.715527
0.572918
0.435927
0.308501
0.258298
0.406118
0.352058
0.294195
0.294195
0.739315
0.810581
0.810729
0.810672
0.810672
0.810317
0.809581
0.809068
0.470896
0.340797
0.692097
0.695128
0.810672
0.810749
0.810317
0.809581
0.809068
0.80299
0.785287
0.764263
0.699398
0.698623
0.744534
0.784499
0.564579
0.406297
0.387566
0.39452
0.370597
0.306698
0.789051
0.780185
0.787453
0.729884
0.095609
0.0217588
0.021689
0.0217588
0.0216808
0.0219814
0.78444
0.786241
0.78907
0.699855
0.0528822
0.02218
0.0217588
0.0216763
0.0219814
0.110689
0.45721
0.708106
0.786241
0.76376
0.344024
0.0894774
0.0271493
0.0225138
0.0537054
0.600928
0.311677
0.319431
0.449748
0.568278
0.751177
0.649714
0.381829
0.0817661
0.103027
0.726589
0.387406
0.322661
0.338222
0.350552
0.778264
0.801273
0.804707
0.579515
0.110488
0.39951
0.847052
0.614361
0.352244
0.350565
0.686558
0.804707
0.804766
0.8048
0.283671
0.176945
0.85037
0.845066
0.73003
0.65935
0.800161
0.804608
0.804819
0.804772
0.518449
0.176945
0.780513
0.843367
0.832767
0.80926
0.802348
0.803933
0.804608
0.804797
0.748311
0.177174
0.432714
0.761259
0.551019
0.655538
0.779472
0.802348
0.614388
0.668002
0.59478
0.180774
0.4238
0.209013
0.0144696
0.0816947
0.233217
0.358992
0.346704
0.618729
0.650193
0.431135
0.381209
0.0166395
0.0144613
0.0144696
0.0144696
0.0144811
0.163164
0.219877
0.648174
0.649846
0.301983
0.0145787
0.0144696
0.0144613
0.0144811
0.0145232
0.0146104
0.0289243
0.418495
0.468636
0.0994186
0.014747
0.0145787
0.0144994
0.0145232
0.0146645
0.0160868
0.185379
0.297492
0.0278359
0.0218531
0.015646
0.0152629
0.01478
0.0147621
0.0153848
0.0344674
0.0763076
0.0299041
0.0182366
0.166607
0.0549327
0.0416453
0.0165425
0.0154949
0.0158322
0.0156132
0.0153597
0.0169241
0.018253
0.791235
0.646501
0.564986
0.311833
0.0511347
0.0156116
0.0153598
0.0150583
0.020323
0.0205142
0.847439
0.868837
0.879365
0.889893
0.605628
0.11559
0.0150583
0.0149986
0.0149642
0.0149652
0.394406
0.724762
0.889893
0.894149
0.898405
0.726471
0.213519
0.0150583
0.0149986
0.0149647
0.0988253
0.14148
0.689635
0.898405
0.902034
0.906569
0.797789
0.302281
0.117948
0.369668
0.100377
0.0937762
0.171982
0.86515
0.906569
0.909648
0.9116
0.907515
0.900142
0.911981
0.251608
0.0883504
0.0527243
0.409143
0.898551
0.911874
0.911928
0.911933
0.911965
0.911997
0.386717
0.0979903
0.043122
0.196037
0.579822
0.800186
0.91023
0.911928
0.907018
0.883736
0.044635
0.0263429
0.0295489
0.183275
0.28408
0.418614
0.910718
0.911826
0.909437
0.895854
0.0262405
0.0262405
0.037904
0.216573
0.216573
0.32329
0.894455
0.896687
0.90763
0.906667
0.0262405
0.0373263
0.235288
0.202066
0.430132
0.330599
0.644658
0.895598
0.90063
0.901609
0.231757
0.33474
0.333835
0.0971862
0.637105
0.479944
0.130467
0.570075
0.470883
0.509902
0.336958
0.335566
0.281507
0.0300379
0.696179
0.712359
0.035336
0.051338
0.00595674
0.00143329
0.187308
0.140042
0.0551212
0.0281977
0.711143
0.71266
0.0228722
0.0363053
0.0138007
0.000977056
0.00693063
0.0138056
0.00669256
0.024509
0.712962
0.7125
0.0218982
0.0295354
0.0129411
0.000388597
0.0105294
0.0139053
0.00630376
0.00690502
0.707263
0.711087
0.0211813
0.0280997
0.0152236
0.000157546
0.000378808
0.00128649
0.00285808
0.0150043
0.711873
0.712243
0.0212482
0.0282418
0.0177247
0.000122555
0.000301523
0.000375529
6.68493e-05
0.0237113
0.716649
0.712329
0.0228111
0.0249291
0.0251584
0.019486
0.000849784
0.000357065
6.62317e-05
0.0307855
0.717215
0.718967
0.0341662
0.00544023
0.000695891
0.000613089
0.000542717
0.000129383
6.66208e-05
0.0403149
0.717517
0.719086
0.0440199
0.00275446
0.000617122
0.000469107
5.42583e-05
6.61258e-05
6.64825e-05
0.0485243
0.719406
0.718123
0.045732
0.00287652
0.0031023
0.00351227
0.000231441
0.000452598
7.20963e-05
0.0518881
0.719406
0.717708
0.0463085
0.00117969
0.00396726
0.003965
0.000848819
0.000848819
7.84146e-05
0.0468706
0.719492
0.719599
0.0472949
0.000231209
0.0038406
0.00396744
0.00084882
0.000848818
7.79844e-05
0.0394798
0.717318
0.719599
0.0429612
0.000201971
0.00251813
0.00396425
0.000848818
0.000832194
7.89991e-05
0.0300911
0.716973
0.719231
0.0294013
0.00017477
0.00227735
0.00392989
0.000848803
0.000847249
7.29156e-05
0.0187611
0.716767
0.714496
0.0139531
4.7381e-05
0.00230207
0.00384062
0.000848654
0.000839681
6.5614e-05
0.00375143
0.714779
0.713956
0.00437853
1.85809e-05
0.00173639
0.00336385
0.000847447
0.000549272
5.87239e-05
5.73596e-05
0.707357
0.70758
0.000343019
1.48188e-05
0.00125521
0.000777077
0.000651485
0.000137908
5.41711e-05
5.71482e-05
0.689283
0.687301
1.4823e-05
1.48188e-05
0.000808015
2.29647e-05
6.29303e-06
3.2304e-05
4.83782e-05
5.22577e-05
0.666341
0.667205
1.48502e-05
1.4823e-05
0.00043006
2.7125e-05
6.2506e-06
0.000121435
0.000128113
5.70266e-05
0.649733
0.64772
1.4985e-05
1.48708e-05
3.89194e-05
2.26492e-05
2.49768e-05
0.000659248
0.000233524
5.84166e-05
0.63958
0.638687
1.56322e-05
2.13396e-05
1.65171e-05
1.58528e-05
0.000379893
0.000661851
0.000254585
6.29351e-05
0.635593
0.636611
1.86801e-05
4.46324e-05
0.000178213
8.7967e-05
0.00061268
0.000661851
0.000136542
6.58364e-05
0.655752
0.654577
3.08753e-05
5.48855e-05
0.000362097
0.000362384
0.000636746
0.000661851
3.74051e-05
3.90916e-05
0.717007
0.712032
1.53162e-05
1.45327e-05
0.000362253
0.000361786
0.000533427
0.000545093
6.44124e-06
0.000650556
0.774573
0.77641
0.000733624
4.91559e-06
0.000260227
0.000361065
0.000467057
0.000355174
6.82355e-07
0.0189585
0.81842
0.817675
0.0188561
4.91276e-06
8.5908e-05
0.000361065
0.000460235
0.000472913
3.98448e-07
0.050327
0.843123
0.842487
0.0496417
4.91559e-06
2.05669e-05
0.000348652
0.000661816
0.000672488
2.24973e-07
0.0740993
0.852574
0.851522
0.0734378
4.95224e-06
4.44009e-05
0.000139668
0.000835357
0.000692994
2.25214e-07
0.0880501
0.853694
0.852725
0.0872323
5.32669e-06
4.52015e-05
2.0593e-05
0.000842167
0.000710431
2.24914e-07
0.0924038
0.853296
0.851405
0.0929379
8.73706e-06
2.14091e-05
2.05799e-05
0.000845551
0.000778754
3.44589e-07
0.0876995
0.848375
0.853166
0.0969851
7.31062e-06
0.000112967
2.05909e-05
0.000845819
0.000771008
5.91535e-07
0.0811583
0.849812
0.850918
0.0796043
6.24256e-06
0.000191808
0.000100472
0.000733704
0.000255515
1.48959e-07
0.0661388
0.844213
0.842036
0.0653244
4.82973e-06
0.000192065
0.000324506
8.34117e-05
1.48959e-07
1.34603e-07
0.0546695
0.828052
0.828176
0.0542012
4.02637e-06
0.000130604
9.77238e-05
1.57366e-07
1.34624e-07
1.34624e-07
0.0481147
0.818423
0.818881
0.0480505
3.22745e-06
0.000129591
4.03953e-05
3.01134e-07
8.09044e-07
1.22068e-07
0.0455242
0.814185
0.816511
0.0469145
2.75574e-06
0.000119668
5.77648e-05
5.82949e-06
4.21183e-06
8.97581e-08
0.0469493
0.816253
0.816412
0.0465939
2.60913e-06
4.94417e-05
0.000181981
1.42291e-05
5.97382e-06
6.11496e-08
0.0545425
0.833005
0.835812
0.0555112
2.58088e-06
5.47933e-06
0.000107226
1.4266e-05
5.16272e-06
4.34473e-08
0.0786845
0.865353
0.865842
0.0791373
2.20544e-06
8.92449e-05
4.87193e-06
4.76696e-06
4.74998e-06
3.22546e-08
0.118145
0.893982
0.893773
0.117754
1.70563e-06
0.000162359
4.87165e-06
1.44064e-07
1.07807e-06
2.99261e-08
0.149366
0.90749
0.907761
0.149671
1.10923e-06
0.000162669
1.36686e-05
2.97652e-08
2.98346e-08
2.99235e-08
0.162464
0.910442
0.910846
0.162548
4.0737e-07
0.00016196
0.000220473
2.97393e-08
2.97393e-08
2.98346e-08
0.163005
0.91075
0.910846
0.165295
1.48021e-07
9.47856e-05
0.000248967
2.97393e-08
1.79193e-07
2.99607e-08
0.15583
0.908978
0.909814
0.158053
1.47319e-07
1.48021e-07
0.000165383
3.09004e-08
2.34527e-07
2.91474e-08
0.143512
0.906517
0.905122
0.143119
1.4456e-07
1.77205e-07
1.68514e-07
3.16953e-08
1.97191e-07
2.81399e-08
0.137434
0.905683
0.902087
0.133844
1.34822e-07
1.74795e-06
2.07659e-07
1.86761e-06
4.56948e-08
2.77993e-08
0.132558
0.906977
0.908058
0.133945
1.22807e-07
2.12166e-06
1.6456e-06
9.65219e-08
2.77993e-08
2.77878e-08
0.157011
0.924312
0.9261
0.159008
1.11775e-07
2.12342e-06
2.12266e-06
2.79004e-08
2.77869e-08
2.77878e-08
0.224099
0.948904
0.948576
0.222914
1.02252e-07
1.82751e-06
2.07504e-06
2.78458e-08
2.77878e-08
2.77875e-08
0.294313
0.966847
0.966986
0.294219
9.73626e-08
1.3037e-06
2.76764e-07
2.78495e-08
2.78017e-08
2.77878e-08
0.343993
0.976324
0.97635
0.343541
9.72056e-08
1.59788e-07
1.2254e-07
2.79953e-08
2.78495e-08
2.78017e-08
0.372509
0.980612
0.980623
0.372072
9.73626e-08
9.73671e-08
8.87334e-07
1.38176e-07
4.70457e-08
2.79429e-08
0.390468
0.983183
0.983177
0.390189
9.72665e-08
9.79484e-08
9.64911e-07
3.49101e-07
5.72246e-07
2.93023e-08
0.408434
0.985897
0.985797
0.408196
9.79484e-08
9.39676e-08
1.19556e-06
5.62291e-07
6.849e-07
4.11003e-08
0.444528
0.989709
0.989463
0.444505
8.17546e-08
5.47518e-08
4.15222e-06
4.88141e-07
4.26629e-07
1.25837e-07
0.513489
0.993483
0.993086
0.512599
3.48279e-08
2.42852e-08
3.34802e-06
1.4917e-07
1.36282e-07
1.43543e-07
0.597882
0.995545
0.995189
0.596966
7.0159e-09
6.43617e-09
7.20406e-08
5.28704e-07
1.34725e-07
1.36282e-07
0.674096
0.996767
0.996621
0.674485
6.43617e-09
6.43617e-09
6.429e-09
2.18741e-06
1.35028e-07
1.3487e-07
0.745447
0.998039
0.997643
0.74634
6.71531e-09
5.57382e-09
1.34549e-08
1.73483e-06
1.34723e-07
0.0215138
0.813006
0.998997
0.998531
0.812707
0.0224449
1.55155e-09
2.14205e-09
3.70357e-07
1.15075e-07
0.0951789
0.881423
0.999372
0.999539
0.881489
0.109532
4.11697e-10
3.63908e-10
6.42601e-08
8.53496e-08
0.181598
0.933395
0.999633
0.9999
0.95702
0.25594
2.10495e-09
2.84429e-10
4.34185e-08
5.95296e-08
0.33261
0.973472
0.999923
0.999957
0.99308
0.475433
9.71653e-08
2.07516e-10
4.24908e-08
4.34185e-08
0.609895
0.999943
0.999974
0.99999
0.999966
0.713303
4.3878e-06
1.18071e-10
6.13217e-09
0.0754562
0.858017
0.999981
0.999999
0.999999
0.99999
0.911804
0.159181
3.94117e-11
3.84652e-10
0.578109
0.9999
0.999998
1
1
0.999999
0.999912
0.624389
-6.42939e-10
0.345389
0.97317
1
1
1
1
1
1
0.978477
0.374082
0.854209
0.861296
0.861396
0.861304
0.706317
0.620677
0.620223
0.620425
0.637883
0.878373
0.861049
0.598771
0.585834
0.585666
0.585772
0.690088
0.87585
0.876202
0.876209
0.876209
0.87452
0.872517
0.873969
0.874221
0.874219
0.874198
0.875637
0.877723
0.877736
0.877737
0.877738
0.877738
0.877738
0.877764
0.877831
0.877784
0.489634
0.527796
0.868763
0.889292
0.630886
0.514234
0.806961
0.861304
0.860819
0.865617
0.647827
0.620228
0.844588
0.880382
0.880557
0.880534
0.880534
0.741902
0.586076
0.589129
0.634586
0.851702
0.862686
0.803096
0.830987
0.881838
0.873669
0.719036
0.461507
0.458684
0.583258
0.813952
0.877447
0.877736
0.877737
0.877738
0.877804
0.877828
0.877787
0.794227
0.469176
0.469176
0.712787
0.889292
0.39737
0.394655
0.402915
0.428613
0.785513
0.873057
0.874781
0.875184
0.877046
0.879729
0.880382
0.880557
0.880343
0.880129
0.880692
0.802056
0.729372
0.878564
0.881862
0.881761
0.881879
0.88188
0.88188
0.84086
0.29797
0.108362
0.104796
0.104221
0.102594
0.10691
0.570266
0.877706
0.789541
0.864349
0.877831
0.876925
0.55365
0.469147
0.699821
0.88827
0.296304
0.460042
0.788953
0.809111
0.807161
0.628006
0.413037
0.412978
0.462043
0.704874
0.780201
0.806918
0.87203
0.880729
0.88147
0.881734
0.881876
0.881875
0.881876
0.881879
0.88188
0.88188
0.88188
0.88188
0.881672
0.399236
0.10811
0.102528
0.101227
0.100785
0.100733
0.109441
0.431435
0.871791
0.876925
0.875959
0.67225
0.4702
0.684716
0.886865
0.294195
0.296304
0.34799
0.755517
0.807825
0.793423
0.789033
0.75869
0.372789
0.0510172
0.024189
0.0378706
0.366677
0.845696
0.880742
0.881532
0.881763
0.881886
0.881862
0.881876
0.881879
0.88188
0.790263
0.556
0.595827
0.390972
0.106047
0.101508
0.100785
0.100733
0.100733
0.100733
0.126592
0.721967
0.875094
0.875786
0.867857
0.474631
0.6852
0.885394
0.689424
0.749742
0.754329
0.778885
0.795135
0.789081
0.785044
0.665444
0.187696
0.0178752
0.0148527
0.0204987
0.0301169
0.29715
0.766089
0.816968
0.835882
0.881708
0.807347
0.47314
0.325162
0.323587
0.323531
0.323531
0.323574
0.350838
0.627829
0.675913
0.653295
0.375069
0.100733
0.19872
0.602379
0.872088
0.874606
0.87513
0.874606
0.504315
0.689996
0.883267
0.746814
0.741841
0.648996
0.52206
0.562142
0.656315
0.485148
0.098375
0.0149498
0.0136002
0.0132041
0.0298263
0.153329
0.216982
0.107433
0.0244107
0.0269511
0.0557587
0.057895
0.25052
0.532966
0.400202
0.351858
0.41222
0.51417
0.673681
0.677872
0.67833
0.678321
0.678322
0.366905
0.402486
0.79181
0.873791
0.874606
0.874606
0.874606
0.536412
0.660677
0.881018
0.311651
0.299964
0.190036
0.145042
0.108623
0.0927803
0.0708545
0.0251918
0.0132795
0.0130441
0.0129404
0.0146623
0.012771
0.0127533
0.0128062
0.0137152
0.0213878
0.408839
0.681788
0.76691
0.779626
0.784017
0.7831
0.778049
0.769685
0.610279
0.535108
0.264558
0.0921837
0.110803
0.108078
0.121236
0.366202
0.837464
0.874492
0.874606
0.874564
0.667598
0.642287
0.874344
0.0272807
0.116456
0.494879
0.599582
0.410064
0.216123
0.0206812
0.0132795
0.0130441
0.0129404
0.0128559
0.0130412
0.0127508
0.0127504
0.0127533
0.0128257
0.228912
0.792555
0.793299
0.793295
0.770393
0.783234
0.784067
0.714086
0.372232
0.231536
0.443978
0.118223
0.0884716
0.0883571
0.0883591
0.0885089
0.0898291
0.397246
0.872019
0.874511
0.87454
0.654063
0.642739
0.888258
0.484233
0.841583
0.914749
0.914824
0.914648
0.755541
0.292441
0.0145772
0.0133439
0.063183
0.0674005
0.0278633
0.0127501
0.0127507
0.0127507
0.0127588
0.173142
0.638867
0.400175
0.307249
0.225892
0.282832
0.185174
0.154558
0.0973199
0.379047
0.555498
0.204959
0.0883572
0.0883573
0.0883571
0.0883591
0.0885089
0.391875
0.873639
0.874001
0.85063
0.638106
0.786573
0.890426
0.915187
0.914867
0.914879
0.91489
0.914838
0.914613
0.78106
0.126419
0.0141662
0.0678903
0.0680652
0.0423943
0.0127508
0.0127502
0.0182964
0.0129827
0.0492366
0.189498
0.120263
0.044361
0.0294739
0.0781541
0.116429
0.0874486
0.0871448
0.0899067
0.541978
0.637569
0.126324
0.0883573
0.0883591
0.0884276
0.268223
0.723631
0.868433
0.754307
0.527505
0.685814
0.890426
0.890435
0.914866
0.914929
0.91489
0.914907
0.91489
0.914816
0.850721
0.177519
0.0135094
0.0280899
0.0652895
0.0342351
0.0129495
0.0156598
0.0279516
0.02517
0.0143219
0.0135846
0.0769193
0.0476822
0.0262097
0.0274595
0.0549969
0.0872288
0.0866541
0.151859
0.596731
0.894599
0.537484
0.143093
0.283219
0.64213
0.858845
0.85491
0.671809
0.514332
0.5141
0.666639
0.890433
0.890428
0.91502
0.914914
0.91491
0.914907
0.914907
0.914919
0.876035
0.258259
0.0131563
0.0129583
0.0133628
0.0134518
0.0128035
0.0140548
0.0279468
0.0279516
0.0140205
0.0133228
0.0133847
0.0205162
0.0258449
0.0283755
0.0515308
0.0481295
0.0611596
0.233277
0.816563
0.896527
0.850585
0.713486
0.802947
0.896325
0.895765
0.853392
0.514332
0.512485
0.512568
0.558706
0.889872
0.856058
0.719899
0.914933
0.914895
0.914885
0.914923
0.915023
0.914385
0.539895
0.0129576
0.0128379
0.0128182
0.0128035
0.0128035
0.0128035
0.0167063
0.0146133
0.0132217
0.0132634
0.0133228
0.0171185
0.0273159
0.0268577
0.0268301
0.0277047
0.0978354
0.707346
0.896604
0.896732
0.896691
0.896496
0.896689
0.896998
0.896969
0.89554
0.6869
0.512568
0.512514
0.512568
0.826334
0.75511
0.424824
0.91492
0.914962
0.914623
0.914836
0.915411
0.915632
0.868564
0.250861
0.0129583
0.012829
0.0128093
0.0128035
0.0128669
0.0129617
0.0136692
0.0132515
0.0159969
0.0158059
0.0161143
0.0250589
0.0254223
0.0261333
0.214933
0.686942
0.89661
0.896747
0.89679
0.896819
0.896768
0.89672
0.896882
0.897297
0.896984
0.89525
0.761721
0.541019
0.513785
0.608873
0.805129
0.313567
0.914934
0.914786
0.914634
0.914715
0.915087
0.915624
0.914544
0.791876
0.155076
0.0130281
0.0128744
0.0128093
0.0129126
0.0207755
0.0340771
0.0344299
0.0199497
0.0160741
0.0166425
0.0176329
0.271047
0.694896
0.848867
0.844521
0.742363
0.7802
0.896819
0.896825
0.896819
0.896753
0.896624
0.896677
0.897018
0.896741
0.895974
0.837835
0.592748
0.601901
0.889862
0.674791
0.914934
0.914916
0.914656
0.914717
0.914869
0.915038
0.914509
0.871032
0.662043
0.374624
0.152209
0.0334438
0.0133046
0.0135718
0.0245787
0.0411501
0.0193017
0.0166425
0.277449
0.759314
0.885774
0.893572
0.89064
0.79367
0.680236
0.680725
0.803694
0.896819
0.896825
0.89677
0.896835
0.897044
0.896875
0.896651
0.896542
0.895961
0.879394
0.804837
0.893254
0.617522
0.914927
0.914912
0.91482
0.914785
0.914803
0.914433
0.792295
0.666128
0.666209
0.863878
0.894873
0.897139
0.784896
0.220245
0.0255649
0.041828
0.362025
0.731258
0.874538
0.893866
0.893948
0.893932
0.893572
0.814391
0.680423
0.680018
0.680725
0.807427
0.896816
0.896794
0.896696
0.896917
0.852446
0.81895
0.895965
0.893705
0.893534
0.893401
0.89326
0.575884
0.914927
0.914819
0.914782
0.914785
0.914782
0.914675
0.913002
0.716924
0.655114
0.657855
0.860569
0.897139
0.897174
0.868558
0.761914
0.747054
0.860371
0.89344
0.893866
0.893948
0.893932
0.893945
0.893932
0.89351
0.773602
0.680372
0.680018
0.696478
0.896729
0.896657
0.896637
0.60339
0.406122
0.398846
0.479119
0.702869
0.891696
0.89326
0.893254
0.0713269
0.466686
0.835667
0.914711
0.914781
0.914713
0.914578
0.914013
0.845858
0.655153
0.655114
0.760942
0.897143
0.897139
0.897073
0.897043
0.896063
0.894089
0.892968
0.89344
0.849159
0.830401
0.850236
0.89351
0.891807
0.892217
0.802714
0.698611
0.840982
0.896616
0.896238
0.819295
0.398584
0.397786
0.397801
0.398756
0.420903
0.891964
0.893169
0.765256
0.018982
0.0232821
0.268672
0.884067
0.91471
0.914553
0.914276
0.913798
0.811152
0.655131
0.655153
0.69403
0.893413
0.816708
0.48879
0.266752
0.26156
0.315328
0.261943
0.24023
0.220164
0.188937
0.186231
0.432831
0.802091
0.8951
0.897813
0.896496
0.895203
0.896065
0.895376
0.894399
0.574293
0.397801
0.397792
0.397801
0.578107
0.886332
0.819684
0.634068
0.018183
0.018982
0.0628847
0.669189
0.914498
0.914275
0.913895
0.912898
0.811791
0.659833
0.700468
0.561808
0.0781403
0.0766798
0.076683
0.0767052
0.076759
0.0768698
0.0765215
0.0783177
0.0811253
0.0846529
0.0891766
0.109031
0.542205
0.900904
0.898458
0.897813
0.892084
0.724515
0.546722
0.567442
0.803822
0.804212
0.763276
0.802281
0.891698
0.883318
0.726702
0.72652
0.0181594
0.0224961
0.0409588
0.574363
0.914098
0.913844
0.913248
0.875961
0.643496
0.648082
0.843563
0.708537
0.136938
0.0766822
0.0766798
0.076683
0.0767052
0.0767583
0.0768697
0.0744579
0.0777486
0.195025
0.749603
0.902918
0.902901
0.902796
0.895117
0.563895
0.430123
0.427586
0.427586
0.427586
0.652068
0.899599
0.899454
0.899244
0.898605
0.897816
0.77744
0.847736
0.0179937
0.0180466
0.19221
0.832819
0.913691
0.913387
0.912441
0.751652
0.590624
0.808582
0.904183
0.904138
0.646694
0.0938302
0.076683
0.0766827
0.0766902
0.0767474
0.0764274
0.0781869
0.446786
0.902395
0.902916
0.902918
0.902916
0.9029
0.902816
0.901922
0.755566
0.453114
0.427586
0.539692
0.899872
0.89974
0.899603
0.899454
0.899244
0.815428
0.718822
0.787388
0.014964
0.0681945
0.654755
0.913048
0.913349
0.913048
0.906504
0.654482
0.575789
0.811744
0.904266
0.905041
0.90484
0.877772
0.489844
0.148968
0.0775361
0.0975638
0.419088
0.815916
0.902853
0.902891
0.902918
0.902916
0.9029
0.856827
0.757535
0.755666
0.753719
0.752138
0.826344
0.900464
0.900186
0.899872
0.768716
0.7518
0.794857
0.718845
0.71886
0.718822
0.0322994
0.618467
0.912656
0.912868
0.913048
0.912457
0.804657
0.575355
0.57247
0.638837
0.905041
0.905076
0.905073
0.905049
0.900252
0.841107
0.812959
0.833472
0.889427
0.902847
0.90285
0.902857
0.902891
0.902862
0.902708
0.856198
0.759375
0.793181
0.899448
0.900141
0.900464
0.900488
0.900495
0.873061
0.728809
0.728809
0.728809
0.799598
0.807505
0.861714
0.842463
0.912241
0.912397
0.912656
0.912595
0.912169
0.889745
0.594721
0.572788
0.572555
0.661637
0.905073
0.905076
0.905073
0.905049
0.904935
0.904545
0.904017
0.903641
0.90311
0.902845
0.90285
0.902837
0.902068
0.894258
0.871722
0.860925
0.870844
0.895054
0.900075
0.900417
0.90051
0.900495
0.900607
0.880171
0.863871
0.888451
0.901236
0.901237
0.901237
0.912046
0.912103
0.912239
0.912382
0.912208
0.912126
0.912132
0.888915
0.773658
0.778994
0.785389
0.57662
0.70024
0.901394
0.902732
0.856135
0.827036
0.789788
0.731569
0.67255
0.618435
0.545382
0.47045
0.416707
0.374578
0.344015
0.338937
0.384896
0.435427
0.607211
0.75207
0.853835
0.894228
0.900765
0.901007
0.90121
0.901236
0.901237
0.901237
0.901237
0.912009
0.911857
0.912117
0.912208
0.912112
0.912126
0.912172
0.912204
0.911736
0.90972
0.876202
0.507885
0.397521
0.480292
0.245714
0.0950042
0.089768
0.0892401
0.0669039
0.0350277
0.0350278
0.0350278
0.0350278
0.035028
0.0350286
0.0350306
0.0350328
0.035034
0.0354994
0.0537844
0.0876906
0.176261
0.394926
0.791358
0.866644
0.878012
0.901236
0.901237
0.901237
0.901237
0.883713
0.889192
0.912042
0.888832
0.847468
0.847585
0.83739
0.778938
0.671161
0.522121
0.344243
0.194709
0.126541
0.0899473
0.0351905
0.0350316
0.0350278
0.0350278
0.0350277
0.0350277
0.0350277
0.0350278
0.035028
0.0350286
0.0350306
0.0350328
0.0350341
0.0350354
0.0350418
0.0350658
0.0997402
0.135351
0.0925087
0.0931901
0.238687
0.783723
0.863313
0.901236
0.901237
0.901237
0.899074
0.881479
0.843563
0.886559
0.885276
0.883177
0.882185
0.883328
0.883318
0.745948
0.392673
0.571282
0.755858
0.627983
0.207197
0.0351868
0.0350323
0.0350279
0.0350278
0.0350278
0.0350278
0.0350312
0.0350328
0.0350347
0.0350483
0.0350444
0.0350353
0.0350418
0.0350659
0.0888995
0.233079
0.233397
0.233084
0.232872
0.187922
0.216927
0.297349
0.522598
0.901178
0.901237
0.903668
0.890444
0.833527
0.827291
0.884406
0.883631
0.883328
0.883328
0.883328
0.836443
0.820979
0.877588
0.882108
0.881949
0.770505
0.157627
0.0353805
0.0350686
0.0350314
0.0350292
0.0350312
0.0486251
0.0427769
0.0399171
0.0832727
0.117345
0.074242
0.198063
0.230969
0.231956
0.233386
0.233333
0.233316
0.190953
0.0346837
0.00411748
0.011298
0.15807
0.765518
0.901221
0.901734
0.859212
0.622324
0.491247
0.826783
0.883146
0.883306
0.883328
0.883318
0.883146
0.882855
0.882618
0.882342
0.882108
0.854
0.405667
0.0368983
0.0354201
0.0366246
0.0404511
0.0589681
0.16943
0.205749
0.229016
0.23083
0.23083
0.23083
0.230379
0.229845
0.223766
0.107211
0.00667701
0.00283535
0.0106877
0.00283411
0.00281481
0.00309458
0.0401877
0.471537
0.88162
0.653485
0.685722
0.380433
0.0623267
0.185069
0.492241
0.690147
0.810438
0.831415
0.83425
0.825451
0.817307
0.825604
0.656491
0.165251
0.0781589
0.0534623
0.0521406
0.160009
0.195176
0.195194
0.19709
0.199825
0.167216
0.15083
0.18879
0.164844
0.0822641
0.00287481
0.000406486
0.000678982
0.00232829
0.00282338
0.00288364
0.00265709
0.00266653
0.00285242
0.0057325
0.00607769
0.247939
0.108166
0.206084
0.0539084
9.89654e-05
8.08041e-05
7.99599e-05
7.91856e-05
0.0918598
0.146976
0.164663
0.142104
0.104565
0.0439164
0.0939599
0.100677
0.0732918
0.073362
0.0757185
0.0642007
0.0876954
0.129784
0.11478
0.0439863
0.000170155
0.000250734
0.000310379
0.00031315
0.000310378
0.00146276
0.000324294
0.000402166
0.00209481
0.00589723
0.00500218
0.00265813
0.00265813
0.00459735
0.0063351
0.00632466
0.00640008
0.00333167
0.00154102
0.000533481
8.08041e-05
7.996e-05
7.91857e-05
7.79475e-05
7.5988e-05
7.47612e-05
7.17171e-05
5.9349e-05
4.76644e-05
0.0115912
0.014265
4.20126e-05
4.19095e-05
4.25376e-05
5.88421e-05
5.76805e-05
5.82144e-05
6.80501e-05
9.22794e-05
0.000119757
0.000151233
0.000326714
0.000699929
0.000704253
0.000616691
0.000249654
0.000271212
0.000354183
0.00373894
0.00593403
0.00593623
0.00595071
0.00490455
0.00381391
0.00328375
0.00516215
0.00688275
0.000146316
0.000216482
0.000136892
9.54376e-05
9.8307e-05
8.13001e-05
9.74015e-05
7.79475e-05
7.19646e-05
5.9349e-05
4.76644e-05
4.24221e-05
4.1524e-05
4.15891e-05
4.46941e-05
0.00013563
0.000162314
5.76804e-05
5.82144e-05
0.00100717
0.00186431
0.00187603
0.00186904
0.000444795
0.000230557
0.000229431
0.00069067
0.000598032
0.000232283
0.000249654
0.000271218
0.000472699
0.00190088
0.00576305
0.00598777
0.00594376
0.00292736
0.00291766
0.00291213
0.00426391
0.000122873
0.000117185
0.000110887
0.00010538
0.00011855
0.000179995
0.000631645
0.00126483
0.00124515
0.000816552
0.000274551
0.000170417
8.23151e-05
4.15011e-05
8.74814e-05
0.000588909
0.000607586
0.000342556
0.000103865
0.000362267
0.00036177
0.000637836
0.00211344
0.00211869
0.00152722
0.000227626
0.000221486
0.000222338
0.000223412
0.000271349
0.000322558
0.00212877
0.00598409
0.00598919
0.00598919
0.00597686
0.00592683
0.00346465
0.00204659
0.00216316
0.000119929
0.000113791
0.000111061
0.000110887
0.000111061
0.000111208
0.000385668
0.00249187
0.00326151
0.00326828
0.00266441
0.00119186
0.000135256
4.2269e-05
6.53549e-05
0.000370834
0.000608008
0.000606885
0.000312756
0.000442959
0.000619042
0.000586673
0.000371592
0.00113327
0.00283151
0.00222054
0.000221816
0.000221486
0.000221816
0.000236113
0.000513432
0.00477895
0.00599061
0.00549289
0.00505682
0.00335077
0.00132101
0.00108094
0.00152975
0.00221775
0.00602641
0.000121881
0.000123243
0.000115384
0.000111208
0.000111818
0.000120205
0.000123298
0.000124821
0.00151466
0.00446775
0.0045025
0.00270133
0.000277276
2.82984e-05
2.31539e-05
7.82718e-05
0.000584065
0.00060971
0.000394623
0.000339481
0.000588295
0.000360166
0.000356538
0.00164883
0.00315346
0.00236126
0.000221816
0.000223412
0.000230657
0.000348237
0.00261183
0.00337975
1.03312e-05
1.03292e-05
1.03278e-05
1.03253e-05
1.03278e-05
1.03826e-05
0.000204154
0.000892584
0.000951362
0.00095152
0.000951362
0.00093977
0.000931542
0.000921945
0.00021923
0.000124634
0.00013936
0.00224682
0.00459415
0.00459544
0.00241777
4.84507e-05
1.81241e-05
1.52985e-05
1.47013e-05
0.000417203
0.00053519
0.000361826
0.000605555
0.000516059
0.000356538
0.000378808
0.00308891
0.00337071
0.00299521
0.00155703
0.000461789
0.000347508
0.00154563
1.14107e-05
1.03546e-05
1.03298e-05
1.03253e-05
1.03253e-05
1.03253e-05
1.03285e-05
1.044e-05
0.000398985
0.000396169
0.000183339
9.1088e-05
0.000607006
0.000921945
0.000437818
0.000153506
0.000141071
0.00116654
0.00461515
0.00463509
0.00459415
0.00276366
9.29623e-05
2.26294e-05
1.50642e-05
1.25104e-05
9.99332e-06
0.00014807
0.000360764
0.0006154
0.000616613
0.000410944
0.000383774
0.00119331
0.0033644
0.00337071
0.00336156
0.00327285
0.000763951
0.000435204
0.00115255
0.000150807
2.30578e-05
1.03291e-05
1.03253e-05
1.03285e-05
1.23985e-05
9.66373e-05
0.00314625
0.00155947
9.98323e-05
6.80953e-05
6.75818e-05
7.6383e-05
6.48449e-05
0.000362846
0.00385368
0.00461515
0.00463509
0.00463161
0.00414565
0.00045728
7.3112e-06
1.55184e-05
2.59987e-05
1.47211e-05
8.66575e-06
6.78324e-06
0.000131788
0.000616613
0.000619284
0.000622147
0.000450214
0.000138108
0.00110566
0.00296494
0.0032947
0.00248875
0.00108109
0.000164578
0.000882364
0.000604482
9.04093e-05
1.16115e-05
1.03291e-05
1.0333e-05
1.03341e-05
0.00114659
0.00396744
0.00182245
6.80953e-05
6.59389e-05
6.49607e-05
6.48442e-05
6.49257e-05
0.00144228
0.00444705
0.00451597
0.00263464
0.000105993
5.97632e-06
6.82109e-06
5.20803e-06
5.2112e-06
2.56697e-05
2.61906e-05
1.61681e-05
5.97952e-06
1.16525e-05
0.000569122
0.000622147
0.000622328
0.000622147
0.000126258
5.55574e-05
0.000515224
0.00083176
0.000484008
0.000511177
0.000132181
4.00087e-05
4.19546e-05
4.02491e-05
1.67665e-05
1.03374e-05
1.03341e-05
1.3443e-05
0.00145712
0.00350242
0.000342486
8.53344e-05
9.49334e-05
0.000131858
0.000149748
0.000138608
0.00015724
9.90996e-05
5.44353e-05
1.64171e-05
7.42962e-06
5.36328e-06
5.14692e-06
5.15035e-06
5.16748e-06
8.92469e-06
2.61906e-05
1.00449e-05
5.70165e-06
5.97952e-06
0.000542072
0.000622321
0.000622312
0.000589581
8.39154e-05
4.98207e-05
4.98012e-05
0.000307169
0.000321762
6.56638e-05
2.22925e-05
2.20052e-05
2.20134e-05
2.52449e-05
1.30493e-05
1.03438e-05
1.0338e-05
0.000224005
0.00145869
0.000642183
0.000108279
0.000178368
0.000788639
0.000979708
0.000600998
7.63102e-05
5.13415e-06
5.11951e-06
5.11849e-06
5.11845e-06
5.54291e-06
5.16409e-06
5.13041e-06
5.14002e-06
5.15035e-06
5.16748e-06
7.53175e-06
5.68563e-06
5.67707e-06
8.28734e-05
0.000615256
0.00061939
0.000609335
0.000182401
4.97606e-05
4.85449e-05
4.81986e-05
6.95512e-05
6.83033e-05
7.71992e-05
0.000308599
0.000483334
0.000484889
0.000414558
8.85186e-05
1.04431e-05
1.03438e-05
0.00078806
0.00145886
0.000188551
0.000106439
0.000860887
0.000986711
0.000987321
0.000126238
5.13315e-06
5.11957e-06
5.11852e-06
5.11845e-06
5.11846e-06
5.31705e-06
5.30522e-06
5.12154e-06
5.13041e-06
5.14002e-06
6.58546e-06
5.68563e-06
5.67259e-06
5.67707e-06
0.000428901
0.000607549
0.000514533
0.000161882
4.97606e-05
4.85437e-05
4.81956e-05
4.69299e-05
4.50001e-05
4.40408e-05
6.1133e-05
0.000480485
0.000484892
0.000484918
0.000484912
0.000454666
3.75425e-05
1.0392e-05
0.00108556
0.00145886
0.000138417
0.000271062
0.000986768
0.000987511
0.000844159
5.14711e-06
5.14191e-06
5.12564e-06
5.11898e-06
5.11846e-06
5.11845e-06
5.11846e-06
5.11857e-06
5.1204e-06
1.07697e-05
1.96737e-05
1.93582e-05
5.76858e-06
5.68563e-06
8.30702e-05
0.000504667
0.000419605
0.000184674
8.6591e-05
5.0301e-05
4.96949e-05
5.05039e-05
5.44869e-05
4.40408e-05
4.35608e-05
4.39252e-05
0.000230348
0.000484703
0.000484912
0.000484915
0.000370423
1.70016e-05
1.08927e-05
0.00104649
0.00145886
2.66356e-05