/*--------------------------------*- C++ -*----------------------------------*\
  =========                 |
  \\      /  F ield         | OpenFOAM: The Open Source CFD Toolbox
   \\    /   O peration     | Website:  https://openfoam.org
    \\  /    A nd           | Version:  8
     \\/     M anipulation  |
\*---------------------------------------------------------------------------*/
FoamFile
{
    version     2.0;
    format      ascii;
    class       volVectorField;
    location    "2";
    object      U;
}
// * * * * * * * * * * * * * * * * * * * * * * * * * * * * * * * * * * * * * //

dimensions      [0 1 -1 0 0 0 0];

internalField   nonuniform List<vector> 
9150
(
(0.00498777 -0.077961 0)
(0.0129995 -0.0974679 0)
(0.0108363 -0.104169 0)
(0.0082101 -0.108124 0)
(0.00179286 -0.109503 0)
(-0.00281275 -0.108984 0)
(-0.00879477 -0.107674 0)
(-0.0108433 -0.10416 0)
(-0.0130407 -0.097424 0)
(-0.00496853 -0.0779421 0)
(0.00599302 -0.0920661 0)
(0.00861042 -0.100507 0)
(0.00731768 -0.102191 0)
(0.0045867 -0.104032 0)
(0.00182734 -0.105424 0)
(-0.00212825 -0.105323 0)
(-0.00428515 -0.104474 0)
(-0.00727695 -0.102317 0)
(-0.00862041 -0.100515 0)
(-0.00600469 -0.0920681 0)
(0.00179731 -0.095469 0)
(0.00460827 -0.0989868 0)
(0.00371927 -0.100937 0)
(0.00323742 -0.101753 0)
(0.00127855 -0.102326 0)
(-0.000510495 -0.102566 0)
(-0.00309187 -0.101889 0)
(-0.00376692 -0.1009 0)
(-0.00460763 -0.0990046 0)
(-0.00180548 -0.0954801 0)
(0.00178073 -0.0984426 0)
(0.00250153 -0.100399 0)
(0.00215816 -0.10028 0)
(0.00126588 -0.100853 0)
(0.000403353 -0.100898 0)
(-0.000802034 -0.100843 0)
(-0.00152193 -0.100503 0)
(-0.00217737 -0.100307 0)
(-0.0024954 -0.100421 0)
(-0.00177747 -0.0984478 0)
(0.000199245 -0.0995003 0)
(0.000739975 -0.0995628 0)
(0.00049726 -0.0999314 0)
(0.000691445 -0.0998667 0)
(0.000213575 -0.100093 0)
(-0.000128053 -0.100103 0)
(-0.000540418 -0.100024 0)
(-0.000442971 -0.100004 0)
(-0.000735358 -0.0995718 0)
(-0.000197245 -0.099499 0)
(0.0768578 -0.195046 1.45465e-26)
(0.0495472 -0.185297 0)
(0.0314744 -0.17709 0)
(0.0167923 -0.17528 0)
(0.00519753 -0.176224 0)
(-0.00395533 -0.176151 0)
(-0.0161388 -0.174307 0)
(-0.0316396 -0.176939 0)
(-0.0495491 -0.185474 0)
(-0.0769959 -0.195346 -1.4583e-26)
(0.0584023 -0.146135 4.05381e-27)
(0.0481094 -0.146298 0)
(0.0281686 -0.156558 0)
(0.0202834 -0.157659 0)
(0.00416656 -0.156072 0)
(-0.00481051 -0.155741 0)
(-0.0205534 -0.156702 0)
(-0.0282319 -0.156347 0)
(-0.0482976 -0.146681 0)
(-0.0585691 -0.14649 -4.15961e-27)
(0.0477669 -0.121545 1.99151e-27)
(0.0419926 -0.131334 0)
(0.0297381 -0.133922 0)
(0.0176905 -0.137195 0)
(0.00518212 -0.140144 0)
(-0.00668976 -0.140385 0)
(-0.0183141 -0.137914 0)
(-0.0299406 -0.134434 0)
(-0.0420984 -0.131693 0)
(-0.0478703 -0.121768 -2.03488e-27)
(0.0374921 -0.0995802 2.91775e-27)
(0.0390314 -0.110347 0)
(0.0224534 -0.120082 0)
(0.0177032 -0.124902 0)
(0.00471185 -0.125122 0)
(-0.00367813 -0.125672 0)
(-0.0168284 -0.12543 0)
(-0.0218523 -0.119982 0)
(-0.0386803 -0.110374 0)
(-0.0374474 -0.0996421 -2.95256e-27)
(0.0251911 -0.0813424 -1.05681e-26)
(0.0283059 -0.101016 -1.23182e-26)
(0.0202789 -0.108165 -3.05009e-27)
(0.0114761 -0.113726 -2.70776e-27)
(0.00535898 -0.116601 -8.9821e-29)
(-0.00399532 -0.116619 -9.28204e-29)
(-0.0113576 -0.113582 -2.77e-27)
(-0.0202919 -0.108233 -3.04455e-27)
(-0.0283227 -0.100996 -1.2315e-26)
(-0.025166 -0.0813213 -1.05603e-26)
(0.0179188 -0.140968 0)
(0.0125741 -0.202964 0)
(0.0229941 -0.214848 0)
(0.011146 -0.221235 0)
(0.011811 -0.225111 0)
(-0.00300203 -0.226658 0)
(-0.00432225 -0.224448 0)
(-0.01984 -0.216551 0)
(-0.00972891 -0.204899 0)
(-0.0179988 -0.143249 0)
(0.0161969 -0.165745 0)
(0.002068 -0.198471 0)
(0.0152866 -0.208357 0)
(0.00159528 -0.214132 0)
(0.00542139 -0.214462 0)
(-0.00646031 -0.214411 0)
(-0.00232861 -0.212893 0)
(-0.0145938 -0.208627 0)
(-0.00142833 -0.199914 0)
(-0.0152487 -0.167451 0)
(0.0155188 -0.171121 0)
(-0.00316614 -0.202739 0)
(0.0118173 -0.207327 0)
(-0.000237035 -0.208913 0)
(0.00544793 -0.20942 0)
(-0.00307836 -0.209703 0)
(0.00214282 -0.209861 0)
(-0.0108046 -0.208116 0)
(0.00371132 -0.203162 0)
(-0.0154089 -0.171815 0)
(0.0170316 -0.193309 0)
(-0.00649542 -0.20348 0)
(0.010163 -0.209531 0)
(-0.00137801 -0.207082 0)
(0.00154117 -0.207213 0)
(-0.00265374 -0.207044 0)
(0.000945595 -0.205648 0)
(-0.00994906 -0.209964 0)
(0.00644109 -0.203896 0)
(-0.0169323 -0.193732 0)
(0.0335862 -0.21753 0)
(0.00824137 -0.204128 0)
(0.0167622 -0.203888 0)
(0.0111671 -0.195645 0)
(0.00239212 -0.193474 0)
(-0.00177615 -0.193938 0)
(-0.0104406 -0.197999 0)
(-0.0166837 -0.204334 0)
(-0.00812295 -0.204167 0)
(-0.0336974 -0.217967 0)
(0.242952 -0.0104395 0)
(0.232564 -0.0165575 0)
(0.232078 -0.01552 0)
(0.24059 -0.00720322 0)
(0.254183 -0.000377293 0)
(0.262419 -0.00102398 0)
(0.267122 -0.017795 0)
(0.273945 -0.0326415 0)
(0.278127 -0.0317525 0)
(0.283035 -0.0179684 0)
(0.461724 0.0729631 0)
(0.401848 0.0536085 0)
(0.354299 -0.0201436 0)
(0.333214 -0.0497075 0)
(0.326396 -0.0519817 0)
(0.33529 -0.0337212 0)
(0.361862 -0.00430596 0)
(0.373609 0.00401569 0)
(0.3807 0.00681465 0)
(0.386268 0.0121895 0)
(0.527263 0.0467521 0)
(0.613101 0.175073 0)
(0.620371 0.132146 0)
(0.587363 0.0967362 0)
(0.495247 0.0171301 0)
(0.41255 -0.0721129 0)
(0.392487 -0.0861163 0)
(0.395949 -0.080873 0)
(0.431783 -0.0524442 0)
(0.464275 -0.0238913 0)
(0.0929896 -0.317279 0)
(0.199896 -0.108339 0)
(0.341038 0.00115039 0)
(0.423934 0.118662 0)
(0.484594 0.167883 0)
(0.524936 0.164317 0)
(0.513538 0.0820053 0)
(0.480115 -0.0697816 0)
(0.483414 -0.107796 0)
(0.501124 -0.102726 0)
(-0.0946246 -0.392858 0)
(-0.0510338 -0.240403 0)
(0.0481257 -0.1797 0)
(0.127069 -0.182081 0)
(0.220574 -0.181551 0)
(0.32959 -0.108437 0)
(0.512983 0.0011506 0)
(0.54767 -0.0302464 0)
(0.612609 -0.106481 0)
(0.687137 -0.115464 0)
(-0.210696 -0.495956 0)
(-0.147424 -0.446609 0)
(-0.0753692 -0.414569 0)
(-0.00682475 -0.387471 0)
(0.0575305 -0.331722 0)
(0.12683 -0.296619 0)
(0.186144 -0.265509 0)
(0.267435 -0.308978 0)
(0.300145 -0.324131 0)
(0.335239 -0.328342 0)
(-0.315725 -0.588229 0)
(-0.248139 -0.564772 0)
(-0.199126 -0.509479 0)
(-0.1213 -0.456453 0)
(-0.0710741 -0.431185 0)
(-0.00481736 -0.406669 0)
(0.0226697 -0.380829 0)
(0.0752861 -0.368452 0)
(0.126431 -0.373425 0)
(0.180438 -0.409825 0)
(-0.32079 -0.666068 0)
(-0.261155 -0.655399 0)
(-0.21326 -0.632822 0)
(-0.155583 -0.594739 0)
(-0.0857186 -0.57129 0)
(-0.054276 -0.460707 0)
(-0.0490365 -0.424822 0)
(-0.0088213 -0.431607 0)
(0.0784775 -0.443 0)
(0.183423 -0.5008 0)
(-0.282863 -0.791443 0)
(-0.244422 -0.756821 0)
(-0.197145 -0.738606 0)
(-0.167003 -0.720138 0)
(-0.108425 -0.663357 0)
(-0.0747814 -0.451388 0)
(-0.00901613 -0.465744 0)
(0.0779661 -0.615985 0)
(0.219401 -0.783209 0)
(0.282467 -0.689937 0)
(-0.276436 -0.843958 0)
(-0.251685 -0.822243 0)
(-0.218763 -0.806303 0)
(-0.199044 -0.768411 0)
(-0.182544 -0.656281 0)
(-0.168039 -0.61141 0)
(-0.101966 -0.691509 0)
(-0.000887179 -0.894955 0)
(0.0303446 -0.86975 0)
(-0.0592751 -0.591148 0)
(-0.212426 -0.840495 0)
(-0.216766 -0.875527 0)
(-0.193854 -0.849561 0)
(-0.160324 -0.802536 0)
(-0.144326 -0.720917 0)
(-0.0877845 -0.704896 0)
(-0.141693 -0.713805 0)
(-0.0800993 -0.954472 0)
(-0.135295 -0.750923 0)
(-0.161312 -0.540272 0)
(0.0351286 -0.640199 0)
(-0.0447949 -0.812263 0)
(-0.0856435 -0.909107 0)
(-0.0612244 -0.856117 0)
(-0.0492403 -0.768897 0)
(-0.00741011 -0.714522 0)
(-0.0238403 -0.680901 0)
(-0.0380809 -0.7075 0)
(-0.172578 -0.631323 0)
(-0.184611 -0.5015 0)
(0.164198 -0.522611 0)
(0.141838 -0.660056 0)
(0.120486 -0.844997 0)
(0.0716402 -0.87512 0)
(0.0766727 -0.816517 0)
(0.0856505 -0.724649 0)
(0.0782025 -0.647538 0)
(0.0590756 -0.591686 0)
(-0.0596897 -0.494393 0)
(-0.146618 -0.449119 0)
(0.175911 -0.517991 0)
(0.190145 -0.649877 0)
(0.232384 -0.805478 0)
(0.21655 -0.810204 0)
(0.21252 -0.792136 0)
(0.193228 -0.717953 0)
(0.153982 -0.59749 0)
(0.111008 -0.539151 0)
(0.0857131 -0.385299 0)
(-0.0316261 -0.316885 0)
(0.14079 -0.555448 0)
(0.211497 -0.697757 0)
(0.266438 -0.813609 0)
(0.262196 -0.809975 0)
(0.250586 -0.768816 0)
(0.222411 -0.676665 0)
(0.182683 -0.475348 0)
(0.084522 -0.396501 0)
(0.0371816 -0.233552 0)
(-0.0248193 -0.129363 0)
(0.0930187 -0.724652 0)
(0.162584 -0.909306 0)
(0.237161 -0.888535 0)
(0.246766 -0.821407 0)
(0.230477 -0.742567 0)
(0.185818 -0.63399 0)
(0.16391 -0.37584 0)
(0.0687047 -0.265289 0)
(0.0502997 -0.256681 0)
(0.0494434 -0.122516 0)
(0.0956174 -0.872529 0)
(0.0915066 -0.978498 0)
(0.100223 -0.976591 0)
(0.0526456 -0.797727 0)
(0.0309833 -0.693246 0)
(0.0421851 -0.543787 0)
(-0.03101 -0.223382 0)
(-0.081136 -0.134919 0)
(-0.105609 -0.126595 0)
(-0.195288 0.122464 0)
(0.0464604 -0.862893 0)
(-0.0941116 -0.859035 0)
(-0.0956092 -0.797362 0)
(-0.134925 -0.681287 0)
(-0.0979863 -0.676472 0)
(-0.0748439 -0.442193 0)
(-0.15044 -0.10115 0)
(-0.114051 -0.122696 0)
(-0.127984 -0.0904307 0)
(-0.087798 0.156395 0)
(-0.156241 -0.670385 0)
(-0.122574 -0.702553 0)
(-0.0540716 -0.775519 0)
(-0.03011 -0.800663 0)
(-0.0123678 -0.786534 0)
(-0.0399207 -0.348775 0)
(-0.0459068 -0.110008 0)
(-0.0455653 -0.235104 0)
(-0.0481131 -0.187768 0)
(-0.10126 0.0747318 0)
(-0.228285 -0.567977 0)
(-0.125255 -0.932881 0)
(-0.0546156 -1.03262 0)
(0.0137898 -0.983083 0)
(0.103162 -0.900337 0)
(0.105792 -0.681793 0)
(0.166531 -0.17424 0)
(0.0742509 -0.140481 0)
(-0.213335 0.123301 0)
(-0.252594 0.500898 0)
(-0.310322 -0.576995 0)
(-0.220076 -0.980299 0)
(-0.295474 -1.02399 0)
(-0.331535 -1.02169 0)
(-0.390931 -0.835968 0)
(-0.385734 -0.389998 0)
(-0.363211 0.260712 0)
(-0.557877 0.509425 0)
(-0.584841 0.557022 0)
(-0.540763 0.545174 0)
(-0.365513 -0.717422 0)
(-0.373759 -0.842332 0)
(-0.431205 -0.863572 0)
(-0.521785 -0.805406 0)
(-0.649628 -0.687266 0)
(-0.711527 -0.328283 0)
(-0.652088 0.14678 0)
(-0.580006 0.361728 0)
(-0.575451 0.416489 0)
(-0.531089 0.427886 0)
(-0.402918 -0.753737 0)
(-0.413993 -0.826291 0)
(-0.382898 -0.806954 0)
(-0.413189 -0.652739 0)
(-0.52724 -0.535312 0)
(-0.661953 -0.366097 0)
(-0.530944 -0.027972 0)
(-0.453571 0.186641 0)
(-0.349765 0.25255 0)
(-0.267206 0.246599 0)
(-0.468488 -0.756735 0)
(-0.413224 -0.858312 0)
(-0.320957 -0.856053 0)
(-0.238438 -0.72748 0)
(-0.148687 -0.460555 0)
(-0.238097 -0.307854 0)
(-0.273711 -0.198771 0)
(-0.266338 -0.0282146 0)
(-0.153249 -0.000227401 0)
(-0.0575753 -0.0669203 0)
(-0.600636 -1.02669 0)
(-0.502354 -1.03971 0)
(-0.365079 -1.03786 0)
(-0.266129 -0.881216 0)
(-0.123913 -0.545462 0)
(-0.103653 -0.258572 0)
(-0.137153 -0.148147 0)
(-0.0551096 -0.0147786 0)
(-0.0243845 -0.0314578 0)
(-0.00589183 -0.0426325 0)
(-0.630403 -1.14262 0)
(-0.561316 -1.31484 0)
(-0.468205 -1.35733 0)
(-0.390576 -1.24004 0)
(-0.221735 -0.710018 0)
(-0.127451 -0.31101 0)
(-0.190209 -0.20106 0)
(-0.18442 -0.112952 0)
(-0.117259 -0.235783 0)
(-0.0739775 0.0105676 0)
(-0.374735 -0.997029 0)
(-0.493507 -1.37161 0)
(-0.460122 -1.44169 0)
(-0.419772 -1.41674 0)
(-0.327072 -1.03579 0)
(-0.174742 -0.322409 0)
(-0.173101 -0.215652 0)
(-0.210377 -0.181407 0)
(-0.209093 -0.127055 0)
(-0.213792 -0.00332614 0)
(0.0468284 -0.411954 0)
(-0.231748 -1.09056 0)
(-0.423744 -1.44601 0)
(-0.421012 -1.46385 0)
(-0.361573 -1.29815 0)
(-0.199239 -0.404833 0)
(-0.148547 -0.138417 0)
(-0.231739 -0.0899181 0)
(-0.243884 -0.0345565 0)
(-0.246045 -0.0128786 0)
(0.125507 -0.226782 0)
(0.0590462 -0.489605 0)
(-0.192656 -1.06178 0)
(-0.356469 -1.45798 0)
(-0.326072 -1.52025 0)
(-0.181827 -0.81508 0)
(-0.10349 -0.105974 0)
(-0.157968 -0.0792099 0)
(-0.150926 -0.0548158 0)
(-0.16524 -0.0390672 0)
(0.141083 -0.155051 0)
(0.119051 -0.377384 0)
(0.127863 -0.553866 0)
(-0.186335 -1.1395 0)
(-0.203612 -1.59654 0)
(-0.132609 -1.24861 0)
(-0.0570612 -0.0640432 0)
(-0.103561 -0.0508618 0)
(-0.0747839 -0.0271385 0)
(-0.0783421 0.0111867 0)
(0.271178 -0.293884 0)
(0.189857 -0.408604 0)
(0.219901 -0.454517 0)
(-0.0189067 -0.536364 0)
(-0.0976631 -1.53276 0)
(-0.0718802 -1.37521 0)
(-0.055894 -0.0542737 0)
(-0.0700145 -0.0547951 0)
(-0.0472094 -0.0743714 0)
(-0.0396764 -0.0510839 0)
(0.194793 -0.386222 0)
(0.122568 -0.345016 0)
(0.0681982 -0.305461 0)
(-0.036925 -0.334601 0)
(-0.0576324 -1.51124 0)
(-0.0311519 -1.45841 0)
(-0.0243161 -0.0294005 0)
(-0.0359966 -0.0396386 0)
(-0.0213739 -0.0889884 0)
(-0.0173094 -0.0309187 0)
(0.215266 -0.241925 0)
(0.0768309 -0.0441241 0)
(0.100021 -0.12188 0)
(-0.0350736 -0.201351 0)
(0.0124148 -1.53013 0)
(-0.00953549 -1.51587 0)
(0.0135405 -0.0150413 0)
(-0.0339706 -0.0155787 0)
(-0.0282084 -0.14527 0)
(0.00893221 -0.0283375 0)
(0.0823892 -0.0129703 0)
(0.0818639 0.00725632 0)
(0.114075 -0.0854771 0)
(0.0609406 -0.114189 0)
(0.0338395 -1.51261 0)
(0.0104305 -1.52786 0)
(0.0826113 -0.0451292 0)
(-0.0366264 0.0653257 0)
(0.0271736 -0.216 0)
(0.0265503 -0.155237 0)
(0.0785541 -0.0789385 0)
(0.108489 -0.156598 0)
(0.0917821 -0.0858866 0)
(-0.0792328 -0.0691599 0)
(0.02216 -1.53728 0)
(-0.00892402 -1.53645 0)
(0.0466859 0.111083 0)
(0.099956 0.0780931 0)
(0.1536 -0.225074 0)
(0.0350391 -0.0623907 0)
(0.0912847 -0.173178 0)
(-0.0724146 -0.0162703 0)
(-0.203639 0.327328 0)
(-0.0720252 -0.205802 0)
(0.0179702 -1.52894 0)
(-0.00778183 -1.52947 0)
(0.0687305 -0.270057 0)
(0.232764 -0.044534 0)
(0.237708 -0.122119 0)
(0.312966 0.0130745 0)
(-0.339837 0.156179 0)
(-0.426424 0.378162 0)
(-0.52643 0.495643 0)
(-0.0321187 -1.31045 0)
(0.0119028 -1.5283 0)
(-0.00213889 -1.5281 0)
(0.070409 -0.903009 0)
(0.252122 -0.0425981 0)
(0.217313 -0.0689299 0)
(0.168402 0.102923 0)
(-0.167694 -0.0597258 0)
(-0.0332963 0.0415317 0)
(-0.0339776 0.416367 0)
(0.00716859 -1.44925 0)
(0.0121872 -1.52027 0)
(-0.000779113 -1.51806 0)
(0.0199075 -1.37415 0)
(0.17531 0.0536023 0)
(0.138649 0.0404591 0)
(0.0351608 0.196661 0)
(-0.351611 -0.148806 0)
(-0.279078 0.0986086 0)
(-0.0575167 0.330151 0)
(0.0243885 -1.47941 0)
(0.0115321 -1.51557 0)
(0.000568692 -1.51091 0)
(0.00385711 -1.43315 0)
(0.0604019 0.131478 0)
(-0.048498 0.103123 0)
(-0.08497 -0.0216058 0)
(-0.277945 -0.236546 0)
(-0.24376 -0.306724 0)
(0.0151053 -0.47671 0)
(0.0326863 -1.48619 0)
(0.017537 -1.50264 0)
(0.00645178 -1.50685 0)
(0.0148985 -1.38753 0)
(-0.0121453 0.342507 0)
(0.00662172 0.248904 0)
(0.166172 0.221046 0)
(-0.0902169 -0.169736 0)
(-0.113347 -0.212067 0)
(-0.0221818 -0.558065 0)
(-0.0105342 -1.47256 0)
(-0.000736197 -1.48962 0)
(-0.00972721 -1.49468 0)
(-0.017535 -1.44905 0)
(0.0476796 -0.023615 0)
(0.363167 -0.279903 0)
(0.53589 -0.366694 0)
(-0.104274 -0.232901 0)
(-0.0857068 -0.24202 0)
(0.00116329 -0.746823 0)
(-0.00204747 -1.46403 0)
(0.00467441 -1.48766 0)
(-0.00545088 -1.4841 0)
(-0.00626552 -1.4424 0)
(0.00225431 -0.63787 0)
(0.217508 -0.537988 0)
(0.307597 -0.423582 0)
(-0.153531 -0.288207 0)
(-0.0746243 -0.476797 0)
(0.028533 -0.844575 0)
(0.0207307 -1.45885 0)
(0.014367 -1.47789 0)
(0.00403649 -1.47927 0)
(0.0186422 -1.43385 0)
(0.024196 -0.661633 0)
(0.0234324 -0.564299 0)
(0.0490684 -0.546572 0)
(-0.0610932 -0.387916 0)
(-0.0208487 -0.580599 0)
(0.00931129 -0.908556 0)
(0.000520133 -1.4545 0)
(0.00304277 -1.46837 0)
(-0.00759805 -1.47613 0)
(-0.00313638 -1.4299 0)
(0.00320803 -0.663911 0)
(-0.0142936 -0.581841 0)
(-0.0111938 -0.605596 0)
(0.0065222 -0.452464 0)
(0.00845566 -0.579907 0)
(-0.0180365 -0.888795 0)
(-0.0246762 -1.44465 0)
(-0.00870098 -1.46368 0)
(-0.0182609 -1.46417 0)
(-0.0286047 -1.43091 0)
(-0.034629 -0.673694 0)
(-0.0303538 -0.569516 0)
(-0.0172858 -0.652757 0)
(0.0129045 -0.498622 0)
(0.0198738 -0.569305 0)
(0.00744476 -0.856606 0)
(-0.00303154 -1.43711 0)
(0.00369084 -1.45672 0)
(-0.00894535 -1.45368 0)
(-0.0090877 -1.42712 0)
(-0.0338172 -0.687563 0)
(-0.0459174 -0.553933 0)
(-0.0518052 -0.662776 0)
(0.016492 -0.527276 0)
(0.0203237 -0.569848 0)
(0.0130687 -0.830433 0)
(0.00122421 -1.42713 0)
(0.00277895 -1.44344 0)
(-0.00733203 -1.44248 0)
(-0.00728057 -1.40767 0)
(-0.043918 -0.588185 0)
(-0.0765878 -0.526338 0)
(-0.102013 -0.622817 0)
(0.0375571 -0.540717 0)
(0.0318427 -0.569765 0)
(0.0332717 -0.811354 0)
(0.00813944 -1.41902 0)
(0.00589106 -1.43598 0)
(-0.00600171 -1.43261 0)
(-0.00518052 -1.38474 0)
(-0.0411545 -0.482766 0)
(-0.0947551 -0.455294 0)
(-0.135532 -0.576926 0)
(0.0565134 -0.549683 0)
(0.0433367 -0.555153 0)
(0.043938 -0.75815 0)
(0.0122056 -1.39125 0)
(0.00820446 -1.41803 0)
(-0.00423459 -1.41774 0)
(-0.00668828 -1.34823 0)
(-0.026137 -0.387186 0)
(-0.0743359 -0.358798 0)
(-0.114594 -0.524869 0)
(0.0552815 -0.551726 0)
(0.041852 -0.525634 0)
(0.0282084 -0.731377 0)
(0.0111827 -1.35416 0)
(0.00700493 -1.40106 0)
(-0.00689308 -1.40201 0)
(-0.0113589 -1.32894 0)
(0.00544027 -0.362354 0)
(-0.00351885 -0.254862 0)
(-0.0675136 -0.457915 0)
(0.0543647 -0.522703 0)
(0.024769 -0.493855 0)
(0.0228392 -0.720335 0)
(0.00543867 -1.34772 0)
(0.00555877 -1.38663 0)
(-0.0080356 -1.38709 0)
(-0.0192392 -1.32521 0)
(0.00986888 -0.480797 0)
(0.0706026 -0.152384 0)
(-0.0107821 -0.354625 0)
(0.0560389 -0.437859 0)
(0.0226353 -0.478001 0)
(0.0319325 -0.715287 0)
(0.00914578 -1.32385 0)
(0.00734638 -1.37043 0)
(-0.00766227 -1.36953 0)
(-0.00746634 -1.31843 0)
(-0.0188306 -0.661946 0)
(0.0620105 -0.11996 0)
(-0.0186525 -0.234164 0)
(0.054443 -0.355796 0)
(0.0338212 -0.46098 0)
(0.0391961 -0.71276 0)
(0.0104921 -1.29599 0)
(0.00807957 -1.34987 0)
(-0.00684083 -1.34921 0)
(0.000691051 -1.31513 0)
(-0.0304055 -0.691019 0)
(0.0391636 -0.116086 0)
(0.036826 -0.0875931 0)
(0.069424 -0.329491 0)
(0.0692963 -0.431221 0)
(0.051638 -0.646815 0)
(0.0138465 -1.25806 0)
(0.00899823 -1.32956 0)
(-0.00631341 -1.32936 0)
(-0.00473464 -1.2909 0)
(-0.055455 -0.602899 0)
(-0.0581116 -0.2191 0)
(-0.0133042 -0.110813 0)
(0.059064 -0.323805 0)
(0.0631085 -0.401478 0)
(0.0342688 -0.568586 0)
(0.014511 -1.24022 0)
(0.0100026 -1.30771 0)
(-0.00657328 -1.30624 0)
(-0.00551175 -1.25545 0)
(-0.0357499 -0.558494 0)
(-0.063737 -0.21225 0)
(-0.0530775 -0.110115 0)
(0.0297966 -0.325512 0)
(0.0251198 -0.384702 0)
(0.0119919 -0.547035 0)
(0.0096367 -1.2336 0)
(0.00822045 -1.28336 0)
(-0.00841598 -1.28626 0)
(-0.00957221 -1.23483 0)
(-0.0313838 -0.490346 0)
(-0.0609484 -0.174326 0)
(-0.0552762 -0.100459 0)
(0.0257555 -0.327183 0)
(0.013083 -0.382501 0)
(0.00422984 -0.544824 0)
(0.00649907 -1.24701 0)
(0.006218 -1.26484 0)
(-0.00963172 -1.26201 0)
(-0.00990255 -1.23758 0)
(-0.00954047 -0.480106 0)
(-0.028391 -0.169505 0)
(-0.0434376 -0.111231 0)
(0.0460091 -0.307792 0)
(0.0178076 -0.35617 0)
(0.00394174 -0.527591 0)
(0.00519795 -1.25977 0)
(0.00879486 -1.24571 0)
(-0.00773945 -1.24464 0)
(-0.00626007 -1.25464 0)
(0.00448201 -0.489938 0)
(0.0105218 -0.10988 0)
(-0.0354761 -0.0660309 0)
(0.0448027 -0.245956 0)
(0.000636562 -0.314922 0)
(0.00160857 -0.527622 0)
(0.00466094 -1.2535 0)
(0.00633276 -1.22921 0)
(-0.00734466 -1.22737 0)
(-0.00636082 -1.25129 0)
(-0.00275621 -0.529895 0)
(0.0275261 -0.0619478 0)
(-0.0263757 0.0458053 0)
(0.0656836 -0.14251 0)
(0.00432863 -0.244771 0)
(0.00980948 -0.535475 0)
(0.00450776 -1.23848 0)
(0.00641719 -1.21741 0)
(-0.00698124 -1.21557 0)
(-0.00344324 -1.23865 0)
(-0.00837361 -0.570503 0)
(0.0204419 -0.0427193 0)
(0.00808192 0.128181 0)
(0.0556625 -0.0796093 0)
(-0.00446314 -0.187393 0)
(0.0124706 -0.576628 0)
(0.0061976 -1.22299 0)
(0.00761053 -1.20852 0)
(-0.00379609 -1.20334 0)
(-0.00161577 -1.22404 0)
(-0.00620546 -0.625214 0)
(0.0380877 -0.0813399 0)
(0.0409326 0.159833 0)
(0.054107 -0.0470293 0)
(-0.00220263 -0.133136 0)
(0.0318116 -0.610233 0)
(0.0155806 -1.20674 0)
(0.0118332 -1.19779 0)
(0.00235672 -1.197 0)
(0.010645 -1.20611 0)
(0.00390752 -0.686981 0)
(0.0467857 -0.100092 0)
(0.0462237 0.175745 0)
(0.0596347 -0.00971917 0)
(-0.0158549 -0.061811 0)
(0.0192115 -0.629375 0)
(0.00156256 -1.19476 0)
(0.00458593 -1.19043 0)
(-0.00438861 -1.18976 0)
(-0.00487931 -1.19403 0)
(-0.0184349 -0.724289 0)
(0.0286207 -0.136069 0)
(0.0346294 0.1485 0)
(0.0694895 0.0138872 0)
(-0.00500822 -0.0119189 0)
(0.0117653 -0.692733 0)
(0.0118544 -1.18269 0)
(0.010756 -1.18256 0)
(-0.000337191 -1.18069 0)
(0.00301465 -1.18232 0)
(-0.0153004 -0.772657 0)
(0.00539024 -0.153819 0)
(-0.0126427 0.0962237 0)
(0.087934 0.0165092 0)
(-0.00385325 0.088519 0)
(0.0211999 -0.716477 0)
(0.00785701 -1.16674 0)
(0.00708252 -1.16818 0)
(-0.00365175 -1.16909 0)
(-0.00514507 -1.16523 0)
(-0.0214674 -0.733339 0)
(-0.0169611 -0.139927 0)
(-0.0329034 0.0922087 0)
(0.0317431 0.0941531 0)
(-0.0117557 0.167365 0)
(0.0326555 -0.727819 0)
(0.0102951 -1.15021 0)
(0.00723868 -1.15414 0)
(-0.00560689 -1.15479 0)
(-0.00667792 -1.14873 0)
(-0.0293228 -0.706582 0)
(-0.0376024 -0.0999013 0)
(-0.0444044 0.0678474 0)
(-0.0455676 0.174439 0)
(-0.0188436 0.105906 0)
(0.0322918 -0.731611 0)
(0.0095578 -1.13506 0)
(0.0068397 -1.13773 0)
(-0.0081466 -1.13822 0)
(-0.0103744 -1.13418 0)
(-0.0287659 -0.708001 0)
(-0.00717167 -0.166194 0)
(0.00997657 -0.0171415 0)
(-0.0499929 0.19826 0)
(0.00786735 -0.0655062 0)
(0.0314105 -0.731999 0)
(0.0124965 -1.1176 0)
(0.00762046 -1.11716 0)
(-0.00836201 -1.11888 0)
(-0.013874 -1.11587 0)
(-0.025864 -0.671695 0)
(-0.0277774 -0.164382 0)
(-0.0330362 -0.0255061 0)
(-0.0334903 0.194128 0)
(0.0189929 -0.116393 0)
(0.00991623 -0.713925 0)
(0.00133553 -1.09952 0)
(0.00421752 -1.09643 0)
(-0.0136968 -1.09478 0)
(-0.0232912 -1.09871 0)
(-0.0380016 -0.659862 0)
(-0.0322229 -0.139459 0)
(-0.0443339 -0.0468275 0)
(-0.00244751 0.122809 0)
(0.0283517 -0.14769 0)
(0.0323907 -0.696392 0)
(0.020527 -1.08914 0)
(0.0134224 -1.07359 0)
(-0.0040783 -1.0713 0)
(-0.00312522 -1.0884 0)
(-0.015121 -0.655309 0)
(-0.0217474 -0.115492 0)
(-0.0298359 -0.00327538 0)
(0.015147 0.053713 0)
(0.0223186 -0.164523 0)
(0.0220602 -0.696006 0)
(0.0111478 -1.07922 0)
(0.00889494 -1.04797 0)
(-0.00926079 -1.051 0)
(-0.0113041 -1.07806 0)
(-0.0230685 -0.660508 0)
(-0.00480138 -0.176525 0)
(0.0208147 -0.00248234 0)
(0.0193409 0.0218505 0)
(0.0149402 -0.16403 0)
(0.0167665 -0.694445 0)
(0.00394608 -1.0629 0)
(0.00542516 -1.02765 0)
(-0.012747 -1.02737 0)
(-0.0186872 -1.06188 0)
(-0.029255 -0.669138 0)
(-0.00937484 -0.205615 0)
(0.0104522 -0.0466345 0)
(0.0170351 0.0135579 0)
(0.0100824 -0.155943 0)
(0.023077 -0.709848 0)
(0.0110181 -1.037 0)
(0.00810995 -1.00741 0)
(-0.0074926 -1.00521 0)
(-0.00730682 -1.03588 0)
(-0.0197597 -0.686897 0)
(-0.0216514 -0.186693 0)
(-0.0317495 -0.0109799 0)
(0.0165434 0.0115161 0)
(0.00991988 -0.150568 0)
(0.0191778 -0.729413 0)
(0.00751113 -1.01637 0)
(0.00713908 -0.991676 0)
(-0.00654829 -0.991951 0)
(-0.0076197 -1.01526 0)
(-0.0172275 -0.69844 0)
(-0.0152609 -0.164242 0)
(-0.0399079 -0.0114892 0)
(0.0191789 0.00675016 0)
(0.0155493 -0.147722 0)
(0.0204427 -0.732535 0)
(0.00703047 -0.997392 0)
(0.00527329 -0.978756 0)
(-0.00736846 -0.979763 0)
(-0.00936128 -0.996025 0)
(-0.0233855 -0.692208 0)
(-0.0269426 -0.114464 0)
(-0.0449565 -0.00919649 0)
(0.024513 0.00251819 0)
(0.0227351 -0.140548 0)
(0.0164674 -0.720733 0)
(0.00165432 -0.975847 0)
(0.00180678 -0.964148 0)
(-0.00935168 -0.964192 0)
(-0.0131438 -0.974346 0)
(-0.0343473 -0.691343 0)
(-0.0233163 -0.0920653 0)
(-0.0338621 -0.0347783 0)
(0.0323547 -0.00376038 0)
(0.0336332 -0.134526 0)
(0.0238875 -0.695577 0)
(0.00836162 -0.956044 0)
(0.00581413 -0.950214 0)
(-0.00718528 -0.947497 0)
(-0.0113325 -0.955292 0)
(-0.0305195 -0.692647 0)
(-0.0136986 -0.107103 0)
(0.0102566 -0.0461431 0)
(0.0410405 -0.011042 0)
(0.0440758 -0.128687 0)
(0.0373064 -0.668115 0)
(0.0194299 -0.937254 0)
(0.0118152 -0.928276 0)
(-0.00299623 -0.927754 0)
(-0.00538347 -0.935906 0)
(-0.015284 -0.689539 0)
(-0.00677854 -0.184264 0)
(0.0300322 -0.0679827 0)
(0.048075 -0.0112782 0)
(0.0453806 -0.117248 0)
(0.0318932 -0.64294 0)
(0.0158956 -0.921553 0)
(0.0105221 -0.903267 0)
(-0.00680667 -0.905677 0)
(-0.0107433 -0.921419 0)
(-0.0201449 -0.667306 0)
(-0.0291904 -0.204174 0)
(-0.0099173 -0.0907167 0)
(0.0552729 0.00631624 0)
(0.0451935 -0.0908417 0)
(0.0304054 -0.621123 0)
(0.0198547 -0.903924 0)
(0.0119002 -0.875992 0)
(-0.00719642 -0.877425 0)
(-0.0134479 -0.904886 0)
(-0.0212944 -0.653859 0)
(-0.0313207 -0.21031 0)
(-0.022984 -0.114792 0)
(0.0528427 0.0363637 0)
(0.0355522 -0.0572132 0)
(0.0214508 -0.613214 0)
(0.0171659 -0.884066 0)
(0.00912141 -0.847432 0)
(-0.0108407 -0.849747 0)
(-0.0203586 -0.885168 0)
(-0.0267117 -0.650983 0)
(-0.0304408 -0.208793 0)
(-0.0291061 -0.121338 0)
(0.0500226 0.0739095 0)
(0.0303257 -0.0187939 0)
(0.0242282 -0.617435 0)
(0.0173301 -0.861826 0)
(0.00893046 -0.821285 0)
(-0.00853219 -0.82127 0)
(-0.0180217 -0.86266 0)
(-0.0251526 -0.655743 0)
(-0.0289516 -0.189878 0)
(-0.0367343 -0.1112 0)
(0.0483301 0.108501 0)
(0.0308215 0.0142587 0)
(0.0257207 -0.622526 0)
(0.0162134 -0.833953 0)
(0.00761298 -0.797642 0)
(-0.00669832 -0.798353 0)
(-0.015293 -0.834959 0)
(-0.0263053 -0.659582 0)
(-0.0290365 -0.17412 0)
(-0.0345772 -0.0943411 0)
(0.0500958 0.138085 0)
(0.0368429 0.0425208 0)
(0.0258958 -0.617609 0)
(0.0155174 -0.805086 0)
(0.005594 -0.778472 0)
(-0.00526723 -0.778748 0)
(-0.0155256 -0.805695 0)
(-0.0258773 -0.655056 0)
(-0.03371 -0.167218 0)
(-0.0303754 -0.0838782 0)
(0.0572423 0.16701 0)
(0.0452928 0.0751459 0)
(0.0260693 -0.59656 0)
(0.0168419 -0.777575 0)
(0.00539386 -0.759795 0)
(-0.0055741 -0.759447 0)
(-0.0165821 -0.777706 0)
(-0.0246072 -0.639122 0)
(-0.0385396 -0.165081 0)
(-0.0278212 -0.0837431 0)
(0.0630924 0.197456 0)
(0.0498139 0.108752 0)
(0.0254231 -0.572991 0)
(0.0178198 -0.753267 0)
(0.0062334 -0.739366 0)
(-0.00574721 -0.737732 0)
(-0.0185798 -0.75291 0)
(-0.0237082 -0.620607 0)
(-0.0408463 -0.16664 0)
(-0.0255167 -0.0913083 0)
(0.0658448 0.238791 0)
(0.0510752 0.151762 0)
(0.0255711 -0.549665 0)
(0.0198366 -0.730539 0)
(0.00903201 -0.714606 0)
(-0.00696002 -0.713472 0)
(-0.0201852 -0.729574 0)
(-0.026215 -0.60174 0)
(-0.0419857 -0.173254 0)
(-0.024598 -0.107532 0)
(0.0556091 0.279169 0)
(0.0465523 0.184628 0)
(0.028052 -0.533707 0)
(0.0223034 -0.706488 0)
(0.00982602 -0.686043 0)
(-0.0081734 -0.684358 0)
(-0.0217073 -0.70489 0)
(-0.0298179 -0.583437 0)
(-0.0443844 -0.181765 0)
(-0.0274299 -0.123497 0)
(0.0502732 0.313929 0)
(0.0466633 0.212792 0)
(0.0322772 -0.518552 0)
(0.0238263 -0.677821 0)
(0.00957611 -0.656847 0)
(-0.00872507 -0.655149 0)
(-0.0222528 -0.675826 0)
(-0.0323884 -0.564754 0)
(-0.0463033 -0.189894 0)
(-0.0306402 -0.133521 0)
(0.0365743 0.326697 0)
(0.0397301 0.216846 0)
(0.0322998 -0.505697 0)
(0.0213558 -0.644922 0)
(0.00587242 -0.627059 0)
(-0.00728619 -0.62434 0)
(-0.0233191 -0.642317 0)
(-0.034278 -0.543484 0)
(-0.0410315 -0.200982 0)
(-0.0326585 -0.137642 0)
(0.0201547 0.349826 0)
(0.0196727 0.216282 0)
(0.035269 -0.493037 0)
(0.0226813 -0.611578 0)
(0.0048107 -0.60041 0)
(-0.00722382 -0.597807 0)
(-0.0249454 -0.608577 0)
(-0.0409259 -0.532854 0)
(-0.0216791 -0.217727 0)
(-0.0347846 -0.137512 0)
(-0.0176131 0.366993 0)
(-0.0327741 0.168593 0)
(0.0485905 -0.523211 0)
(0.0267904 -0.579401 0)
(0.00784225 -0.57309 0)
(-0.00553947 -0.571104 0)
(-0.0250316 -0.576843 0)
(-0.0440467 -0.544781 0)
(0.000615269 -0.221244 0)
(-0.0319146 -0.121146 0)
(-0.0556056 0.354599 0)
(0.001054 0.0671889 0)
(0.0540665 -0.53336 0)
(0.025871 -0.545836 0)
(0.00702855 -0.539654 0)
(-0.00819484 -0.542474 0)
(-0.0262371 -0.544571 0)
(-0.0439869 -0.545596 0)
(-0.0340397 -0.217948 0)
(-0.0392152 -0.107361 0)
(-0.0479878 0.339272 0)
(0.0438588 -0.143304 0)
(0.0480307 -0.494743 0)
(0.0218964 -0.504277 0)
(0.00065491 -0.501842 0)
(-0.020528 -0.50498 0)
(-0.0356992 -0.506533 0)
(-0.0632451 -0.49296 0)
(-0.0601643 -0.24169 0)
(-0.0544807 -0.103368 0)
(0.00564746 0.303972 0)
(0.0604394 -0.187563 0)
(0.050543 -0.453768 0)
(0.0247567 -0.461454 0)
(0.00273687 -0.469886 0)
(-0.011768 -0.468137 0)
(-0.0324563 -0.468174 0)
(-0.0605103 -0.450349 0)
(-0.0610056 -0.268176 0)
(-0.0602595 -0.104169 0)
(0.0474519 0.226231 0)
(0.0779598 -0.187931 0)
(0.0684826 -0.400202 0)
(0.0385333 -0.420731 0)
(0.0187889 -0.429372 0)
(-0.0041635 -0.429441 0)
(-0.0251525 -0.423508 0)
(-0.0606209 -0.400503 0)
(-0.0689385 -0.279169 0)
(-0.050375 -0.113384 0)
(-0.0155309 0.143234 0)
(0.0757088 -0.258161 0)
(0.0635885 -0.356723 0)
(0.037383 -0.38005 0)
(0.0154274 -0.381675 0)
(-0.0127606 -0.383479 0)
(-0.034095 -0.378525 0)
(-0.0634425 -0.357495 0)
(-0.068698 -0.316054 0)
(-0.00681976 -0.117552 0)
(0.0727298 -0.0827895 0)
(0.0736526 -0.27657 0)
(0.0713383 -0.312523 0)
(0.039897 -0.325464 0)
(0.0161351 -0.330383 0)
(-0.0074584 -0.327767 0)
(-0.0290247 -0.326169 0)
(-0.0616095 -0.312731 0)
(-0.0712364 -0.293462 0)
(-0.106832 -0.151717 0)
(0.0964163 -0.19251 0)
(0.0764799 -0.218471 0)
(0.0673049 -0.256616 0)
(0.0370394 -0.279454 0)
(0.0173898 -0.28572 0)
(-0.0145748 -0.286414 0)
(-0.0383184 -0.27945 0)
(-0.0677072 -0.261568 0)
(-0.0713258 -0.227207 0)
(-0.0953889 -0.217425 0)
(0.0558163 -0.128198 0)
(0.0506679 -0.191015 0)
(0.0456125 -0.231505 0)
(0.0200618 -0.240788 0)
(0.00854498 -0.245532 0)
(-0.0128813 -0.245557 0)
(-0.0187853 -0.243879 0)
(-0.0406363 -0.234839 0)
(-0.0516529 -0.195073 0)
(-0.0522654 -0.140814 0)
(0.280421 -0.013106 0)
(0.274526 -0.018045 0)
(0.275044 -0.0175933 0)
(0.289203 -0.00762468 0)
(0.309644 -0.00594968 0)
(0.324499 -0.0166498 0)
(0.331776 -0.0310611 0)
(0.344966 -0.0367257 0)
(0.366917 -0.0344489 0)
(0.370161 -0.0284211 0)
(0.369355 -0.0287398 0)
(0.368747 -0.0239053 0)
(0.371456 -0.00412906 0)
(0.355227 0.0576572 0)
(0.298745 0.0796779 0)
(0.241588 0.0553019 0)
(0.205522 0.0326313 0)
(0.172585 0.0194396 0)
(0.142631 0.0207005 0)
(0.121039 0.0165632 0)
(0.108464 0.0110701 0)
(0.104984 0.0112552 0)
(0.105065 0.0097343 0)
(0.103165 0.00161902 0)
(0.0987484 -0.0104817 0)
(0.0975313 -0.0222367 0)
(0.10089 -0.0236444 0)
(0.105646 -0.0321981 0)
(0.116388 -0.0386631 0)
(0.121141 -0.0342777 0)
(0.130374 -0.0395119 0)
(0.14684 -0.048771 0)
(0.164946 -0.0476431 0)
(0.177019 -0.0470972 0)
(0.190495 -0.0449909 0)
(0.198495 -0.030057 0)
(0.169992 0.03819 0)
(0.0735151 0.0363959 0)
(0.0297532 0.00952337 0)
(0.00405919 -0.000253921 0)
(0.390564 0.0317245 0)
(0.371097 0.0367051 0)
(0.341846 -0.0176835 0)
(0.331487 -0.0545337 0)
(0.327227 -0.0590583 0)
(0.328188 -0.0488174 0)
(0.3382 -0.0253134 0)
(0.337963 -0.00954636 0)
(0.334423 9.88126e-05 0)
(0.341877 0.0154243 0)
(0.348011 0.0152297 0)
(0.349622 0.0218002 0)