/*--------------------------------*- C++ -*----------------------------------*\
  =========                 |
  \\      /  F ield         | OpenFOAM: The Open Source CFD Toolbox
   \\    /   O peration     | Website:  https://openfoam.org
    \\  /    A nd           | Version:  8
     \\/     M anipulation  |
\*---------------------------------------------------------------------------*/
FoamFile
{
    version     2.0;
    format      ascii;
    class       volScalarField;
    location    "8.9";
    object      alpha.water;
}
// * * * * * * * * * * * * * * * * * * * * * * * * * * * * * * * * * * * * * //

dimensions      [0 0 0 0 0 0 0];

internalField   nonuniform List<scalar> 
9150
(
1
1
1
1
1
0.999999
0.999999
1
1
1
1
1
1
1
1
0.999999
0.999999
1
1
1
1
1
1
1
1
1
1
1
1
1
1
1
1
1
1
1
1
1
1
1
1
1
1
1
1
1
1
1
1
1
1
1
1
1
1
1
1
1
1
1
1
1
1
1
1
1
1
1
1
1
1
1
1
1
1
1
1
1
1
1
1
1
1
1
1
1
1
1
1
1
1
1
1
1
1
1
1
1
1
1
1
1
1
1
1
1
1
1
1
1
1
1
1
1
1
1
1
1
1
1
1
1
1
1
1
1
1
1
1
1
1
1
1
1
1
1
1
1
1
1
1
1
1
1
1
1
1
1
1
1
0.997228
0.997586
0.998781
0.998786
0.998786
0.997769
0.991554
0.991553
0.994705
0.99882
0.997424
0.993967
0.993953
0.997312
0.998786
0.998774
0.99189
0.991553
0.995211
0.998818
0.996476
0.993953
0.993952
0.994419
0.998773
0.997236
0.991553
0.991552
0.996267
0.998813
0.996977
0.993952
0.993952
0.993952
0.998654
0.996098
0.991552
0.991552
0.996449
0.998804
0.996381
0.993952
0.993952
0.995024
0.998648
0.995632
0.991552
0.991552
0.997861
0.998781
0.99536
0.993952
0.993952
0.997967
0.998644
0.992365
0.991567
0.996939
0.998809
0.998547
0.993969
0.993957
0.996818
0.998508
0.996935
0.991791
0.994137
0.998821
0.998818
0.996793
0.993984
0.99592
0.998665
0.998508
0.991783
0.991785
0.996984
0.998822
0.998821
0.9963
0.996
0.99872
0.998692
0.995883
0.991387
0.992055
0.998824
0.998823
0.998822
0.997241
0.998771
0.998737
0.996937
0.991337
0.991361
0.993529
0.998824
0.998824
0.998405
0.996492
0.998805
0.995192
0.991336
0.991337
0.991337
0.995469
0.998824
0.998824
0.996668
0.996484
0.991355
0.991336
0.991336
0.991336
0.991866
0.998211
0.998824
0.998824
0.998392
0.996587
0.994791
0.997343
0.995793
0.996428
0.997719
0.998824
0.998824
0.998824
0.998824
0.997533
0.99881
0.998784
0.998824
0.998825
0.998825
0.998824
0.99878
0.998824
0.998824
0.998824
0.998826
0.998826
0.998825
0.998825
0.998825
0.998169
0.99783
0.997834
0.998824
0.998822
0.998826
0.998786
0.998306
0.998825
0.998825
0.998823
0.998821
0.996845
0.99674
0.996579
0.998826
0.998824
0.991705
0.98759
0.99418
0.998821
0.998788
0.99865
0.99863
0.998616
0.998826
0.998826
0.989747
0.978059
0.977935
0.984283
0.990737
0.991181
0.995506
0.997854
0.998827
0.998826
0.998827
0.993276
0.977829
0.974671
0.974671
0.974671
0.974672
0.979265
0.998827
0.998826
0.998824
0.998823
0.998775
0.980668
0.974671
0.974671
0.974671
0.974672
0.99867
0.998824
0.998823
0.998817
0.998809
0.990808
0.974671
0.974671
0.974672
0.976249
0.997807
0.994002
0.99828
0.998809
0.998806
0.998159
0.980113
0.974675
0.9868
0.996206
0.998415
0.974266
0.965401
0.998806
0.998787
0.998768
0.993412
0.987264
0.996205
0.996206
0.998088
0.95431
0.929659
0.965026
0.998768
0.998608
0.992753
0.988336
0.996205
0.996205
0.996819
0.961391
0.929577
0.92938
0.929311
0.980879
0.993616
0.993692
0.995743
0.98855
0.985239
0.981621
0.981261
0.980637
0.928574
0.901217
0.900904
0.944049
0.943348
0.919075
0.840551
0.846809
0.927346
0.963206
0.968274
0.968246
0.930737
0.933396
0.914746
0.904592
0.818491
0.818156
0.818142
0.818142
0.911331
0.956448
0.994336
0.998666
0.99868
0.989362
0.872657
0.818224
0.818142
0.818138
0.818137
0.818138
0.853878
0.98647
0.998728
0.998736
0.998451
0.899712
0.818226
0.818142
0.818138
0.818137
0.818138
0.862754
0.992546
0.998732
0.998455
0.998451
0.979295
0.826682
0.818147
0.818138
0.818138
0.818139
0.950047
0.998711
0.998427
0.998404
0.998361
0.966328
0.82023
0.818152
0.818139
0.81814
0.922611
0.998693
0.977634
0.998361
0.998299
0.98751
0.828215
0.818163
0.818143
0.81814
0.954955
0.998691
0.94508
0.998087
0.998211
0.969319
0.819521
0.818179
0.818163
0.889398
0.99752
0.998701
0.992321
0.998073
0.998107
0.91915
0.819543
0.818315
0.91653
0.996837
0.99828
0.998336
0.997997
0.998017
0.995713
0.886939
0.878771
0.959151
0.997535
0.997671
0.997546
0.964639
0.986988
0.963779
0.949598
0.932736
0.947554
0.978472
0.963302
0.957597
0.954794
0.959674
0.988849
0.970265
0.968339
0.96864
0.954778
0.951257
0.951232
0.951236
0.955616
0.990951
0.992594
0.990708
0.971267
0.951666
0.951598
0.951349
0.974322
0.998746
0.998749
0.996006
0.964735
0.96471
0.964735
0.966541
0.998215
0.99877
0.99877
0.998729
0.987444
0.916417
0.998211
0.996059
0.993956
0.998105
0.998854
0.998851
0.998816
0.965619
0.895058
0.895026
0.998854
0.998856
0.998857
0.998857
0.998868
0.998852
0.996855
0.928429
0.895028
0.895028
0.998852
0.998854
0.998856
0.998868
0.99888
0.992537
0.985992
0.984618
0.984558
0.961271
0.997963
0.997796
0.997798
0.998595
0.998881
0.99888
0.985487
0.966973
0.969776
0.98565
0.998883
0.998883
0.998884
0.998884
0.998882
0.99888
0.998825
0.998441
0.998348
0.997209
0.995512
0.998884
0.998884
0.998881
0.99888
0.997995
0.970033
0.986891
0.987135
0.930289
0.998525
0.99887
0.99797
0.956877
0.98306
0.940398
0.943812
0.96271
0.960718
0.904898
0.998509
0.984049
0.937229
0.905614
0.905497
0.905747
0.951326
0.932949
0.935209
0.977754
0.985373
0.906228
0.906102
0.924634
0.958495
0.958537
0.954144
0.918659
0.918521
0.918521
0.907875
0.915855
0.976452
0.9709
0.948906
0.948814
0.979796
0.998188
0.95037
0.918838
0.955472
0.994446
0.972872
0.952078
0.963759
0.998394
0.998394
0.998395
0.998395
0.998395
0.998301
0.994956
0.961378
0.951806
0.997878
0.998394
0.998394
0.998394
0.998394
0.998396
0.998338
0.996091
0.959588
0.951816
0.969591
0.993144
0.998394
0.998393
0.998393
0.998394
0.998334
0.998321
0.987576
0.976656
0.980366
0.993897
0.998394
0.998393
0.998393
0.998393
0.997817
0.998393
0.998393
0.998323
0.998393
0.998393
0.998379
0.998393
0.998394
0.998393
0.998387
0.998393
0.998393
0.998393
0.998393
0.998393
0.998393
0.998394
0.998394
0.994687
0.998393
0.998393
0.998393
0.998393
0.998393
0.998393
0.998394
0.998394
0.998393
0.961151
0.998393
0.998393
0.998393
0.998393
0.998393
0.998393
0.998393
0.998393
0.995153
0.953726
0.998392
0.998393
0.998393
0.998393
0.998393
0.998393
0.998393
0.995911
0.98394
0.96122
0.998391
0.998388
0.998254
0.998389
0.998387
0.998371
0.998373
0.98508
0.983647
0.996989
0.981005
0.949203
0.8883
0.903325
0.933343
0.919855
0.934432
0.994276
0.994412
0.996989
0.948087
0.800124
0.789393
0.78931
0.78141
0.728308
0.730163
0.933861
0.996982
0.996989
0.976948
0.874713
0.84645
0.89334
0.845805
0.727782
0.727729
0.734842
0.895852
0.945621
0.967998
0.960292
0.973301
0.973332
0.97323
0.807734
0.727778
0.727734
0.727804
0.731549
0.877198
0.884927
0.973315
0.97323
0.97276
0.850227
0.727734
0.727724
0.727628
0.727469
0.874906
0.871728
0.908394
0.97276
0.971514
0.971253
0.825873
0.727628
0.727553
0.727553
0.972674
0.870926
0.857657
0.916704
0.971253
0.971253
0.971253
0.956205
0.758507
0.727553
0.988594
0.981698
0.855459
0.844294
0.864531
0.970181
0.970065
0.966984
0.916529
0.840091
0.987886
0.991916
0.987711
0.852645
0.825195
0.825195
0.83654
0.944521
0.833922
0.829032
0.991916
0.991935
0.991951
0.984043
0.847216
0.825367
0.826028
0.856946
0.967748
0.907678
0.991923
0.991951
0.991976
0.992003
0.985039
0.894684
0.89846
0.992002
0.989443
0.984903
0.991891
0.991947
0.992004
0.992005
0.992005
0.992005
0.992005
0.992004
0.98996
0.938767
0.991623
0.980881
0.986377
0.992003
0.992005
0.992005
0.992004
0.992002
0.991952
0.947205
0.901842
0.902177
0.975102
0.991978
0.992002
0.992003
0.991991
0.991953
0.991887
0.991114
0.686073
0.819716
0.976008
0.991799
0.991971
0.99197
0.986867
0.948073
0.956044
0.989792
0.669783
0.682
0.924973
0.990617
0.991793
0.987914
0.910348
0.890371
0.890373
0.933503
0.669638
0.670363
0.870909
0.987417
0.983582
0.896551
0.890371
0.890371
0.890371
0.890373
0.670363
0.757375
0.953577
0.979462
0.900793
0.891379
0.890822
0.890371
0.89062
0.901097
0.836902
0.978672
0.993378
0.928478
0.894147
0.89208
0.893121
0.914055
0.942523
0.942523
0.996647
0.996908
0.993893
0.982496
0.93762
0.92531
0.963571
0.957636
0.924239
0.926993
0.992499
0.99711
0.997107
0.997107
0.996899
0.992764
0.971444
0.899753
0.889335
0.910758
0.988469
0.997164
0.997113
0.997089
0.974899
0.801007
0.649574
0.732339
0.912056
0.977681
0.994724
0.997264
0.997165
0.988661
0.616519
0.446251
0.523717
0.931983
0.991676
0.991675
0.997434
0.997349
0.997264
0.715339
0.437058
0.437685
0.767794
0.991676
0.991677
0.991676
0.997455
0.997434
0.971435
0.504577
0.436838
0.438385
0.837184
0.991676
0.991676
0.991668
0.997475
0.992174
0.820097
0.436535
0.436657
0.436838
0.677585
0.991676
0.991673
0.991622
0.997264
0.970731
0.599604
0.436535
0.436487
0.436657
0.610568
0.991673
0.991658
0.991434
0.99634
0.942038
0.499054
0.436512
0.436535
0.437127
0.720493
0.991658
0.991619
0.988619
0.993944
0.961113
0.548372
0.436535
0.437127
0.473037
0.929702
0.991619
0.991559
0.990798
0.991007
0.9894
0.79304
0.437163
0.439565
0.701096
0.991328
0.991559
0.991328
0.990921
0.9894
0.981538
0.972619
0.684929
0.46205
0.859974
0.991116
0.991328
0.990914
0.989912
0.810891
0.9563
0.969801
0.976374
0.913375
0.870307
0.978746
0.922638
0.897153
0.966282
0.140677
0.410073
0.76117
0.999496
0.99971
0.999952
0.901399
0.8519
0.799416
0.803494
0.0746461
0.0312446
0.0586714
0.854241
0.999952
0.99998
0.999982
0.992437
0.905386
0.73984
0.0232455
0.0307887
0.0104305
0.5538
0.998636
0.999959
0.999982
0.999982
0.971652
0.63315
0.000226655
0.00615623
0.00676491
0.54608
0.998724
0.999981
0.999982
0.999506
0.711072
0.0262806
0.000226655
0.000226655
0.0574776
0.839553
0.999861
0.999989
0.999981
0.994786
0.496213
4.50446e-07
0.000226655
0.00033104
0.512271
0.99757
0.999986
0.999999
0.99999
0.994198
0.453257
1.21627e-07
0.000329436
0.219035
0.913187
0.999919
0.999999
1
0.999999
0.999906
0.733885
0.000991305
0.157654
0.869671
1
1
1
1
1
1
0.996079
0.478929
0.998815
0.998814
0.998814
0.998817
0.998817
0.998817
0.998566
0.99713
0.997849
0.998513
0.998513
0.998513
0.998513
0.998511
0.995824
0.994826
0.994828
0.998079
0.998175
0.99695
0.992976
0.992977
0.994803
0.998756
0.998762
0.998763
0.998816
0.998817
0.998814
0.998812
0.998816
0.998817
0.998817
0.995863
0.998208
0.998461
0.998462
0.997306
0.994857
0.994857
0.998814
0.998814
0.998814
0.998808
0.998817
0.998817
0.998817
0.998542
0.993188
0.997633
0.998513
0.998512
0.995653
0.993709
0.996125
0.997771
0.998849
0.99867
0.996222
0.990851
0.995216
0.995593
0.995594
0.994451
0.992738
0.994425
0.998024
0.998817
0.998817
0.998817
0.998817
0.998817
0.995585
0.9933
0.993872
0.998462
0.998462
0.998462
0.998462
0.995696
0.998814
0.998814
0.998814
0.997549
0.998444
0.998817
0.996306
0.990694
0.993084
0.997618
0.993609
0.990483
0.991825
0.998869
0.998869
0.998869
0.998863
0.998837
0.994133
0.990798
0.992372
0.975306
0.959943
0.952989
0.969377
0.995749
0.998817
0.998817
0.998817
0.998817
0.998817
0.994895
0.9933
0.9933
0.99664
0.998461
0.998462
0.998462
0.998462
0.998162
0.998813
0.99846
0.99654
0.994576
0.995663
0.998767
0.997826
0.988718
0.988697
0.993893
0.998856
0.997586
0.998112
0.998869
0.998829
0.99624
0.993441
0.993885
0.973927
0.945277
0.945254
0.945282
0.945356
0.964708
0.998518
0.998534
0.998812
0.997866
0.998402
0.998817
0.998817
0.998816
0.997472
0.99694
0.998447
0.998461
0.998461
0.998461
0.998462
0.998461
0.995811
0.994519
0.996145
0.996139
0.991716
0.973163
0.98666
0.998669
0.997013
0.998117
0.998857
0.998858
0.998862
0.998869
0.998157
0.956181
0.93801
0.937952
0.945845
0.998959
0.998931
0.996106
0.965157
0.958412
0.958408
0.958412
0.978633
0.980082
0.985244
0.981596
0.985509
0.972272
0.977526
0.994847
0.991539
0.984733
0.991967
0.998461
0.998461
0.998461
0.996237
0.995306
0.987823
0.914827
0.895916
0.985969
0.998744
0.998751
0.998757
0.998761
0.998762
0.998642
0.998721
0.998836
0.998803
0.985704
0.943736
0.989132
0.998972
0.998972
0.998972
0.998973
0.998913
0.984517
0.977146
0.997363
0.998901
0.998904
0.97792
0.9643
0.964233
0.964233
0.964233
0.964235
0.964236
0.964263
0.977572
0.998399
0.998151
0.998428
0.995402
0.987589
0.90512
0.889699
0.889704
0.959151
0.998745
0.998745
0.998751
0.998757
0.998418
0.998871
0.998897
0.998871
0.983023
0.955849
0.989352
0.998972
0.998972
0.998972
0.998972
0.998973
0.998973
0.998973
0.998973
0.998972
0.998813
0.998015
0.997949
0.994126
0.988904
0.98861
0.990345
0.993583
0.991056
0.992085
0.998425
0.998426
0.997397
0.995185
0.99357
0.990428
0.915808
0.889691
0.889629
0.88964
0.952991
0.988307
0.918535
0.901387
0.991746
0.998897
0.998928
0.998894
0.960794
0.921802
0.924713
0.992237
0.998972
0.998554
0.998972
0.998973
0.998973
0.998973
0.998972
0.998962
0.984551
0.967539
0.977108
0.986264
0.970003
0.981987
0.995499
0.995521
0.996194
0.99835
0.998356
0.997132
0.993722
0.992504
0.991863
0.990354
0.982894
0.917469
0.88964
0.889567
0.889504
0.892298
0.889427
0.889423
0.895353
0.988091
0.998934
0.998929
0.99201
0.925941
0.916754
0.916458
0.916637
0.970504
0.997779
0.995337
0.998973
0.998972
0.998966
0.996979
0.970206
0.965806
0.965806
0.965806
0.965806
0.965811
0.96588
0.970331
0.991096
0.996796
0.982463
0.972536
0.972457
0.978528
0.993342
0.994095
0.996518
0.99413
0.943441
0.893433
0.889469
0.889427
0.88942
0.889419
0.889421
0.943823
0.998934
0.998934
0.998934
0.989533
0.921424
0.916456
0.916446
0.916436
0.916437
0.950133
0.998967
0.998966
0.99895
0.998941
0.998921
0.980811
0.965839
0.965806
0.966271
0.985994
0.997255
0.998447
0.998533
0.988969
0.971251
0.967066
0.967032
0.967032
0.997852
0.998751
0.998753
0.998753
0.997974
0.975921
0.912263
0.88942
0.889419
0.889419
0.889419
0.985165
0.998934
0.998934
0.998934
0.998934
0.998762
0.954354
0.916437
0.916437
0.916436
0.916437
0.916448
0.973032
0.998941
0.998936
0.998945
0.998953
0.998971
0.997441
0.998964
0.998852
0.998742
0.998191
0.998909
0.998918
0.998888
0.983937
0.975083
0.967032
0.996739
0.998753
0.998754
0.998754
0.998754
0.998749
0.989138
0.938257
0.88942
0.889419
0.934337
0.998763
0.998934
0.998934
0.998934
0.998934
0.998934
0.998934
0.998928
0.983484
0.921447
0.916444
0.916453
0.916587
0.949711
0.99893
0.996406
0.998763
0.998972
0.998971
0.998971
0.998533
0.994161
0.994144
0.996875
0.998981
0.998981
0.998981
0.998981
0.991289
0.996615
0.996816
0.998754
0.998755
0.998755
0.998755
0.998244
0.992502
0.964434
0.937163
0.973363
0.99893
0.998934
0.998934
0.998934
0.998934
0.998934
0.998934
0.998934
0.998934
0.998934
0.998931
0.983366
0.936492
0.936623
0.96576
0.989019
0.992899
0.998971
0.998972
0.998971
0.997158
0.994144
0.994144
0.994144
0.99527
0.998981
0.998981
0.998981
0.998981
0.996647
0.99656
0.997441
0.998755
0.998755
0.998755
0.998342
0.995511
0.994858
0.991953
0.975288
0.981748
0.98895
0.997864
0.997389
0.986729
0.985632
0.98906
0.998679
0.998931
0.998934
0.998934
0.998934
0.998934
0.998934
0.998934
0.987162
0.986934
0.992343
0.998971
0.998971
0.998968
0.998026
0.994634
0.994153
0.994248
0.9982
0.998981
0.998981
0.998981
0.998821
0.997388
0.996547
0.997469
0.998755
0.998755
0.998755
0.998508
0.998458
0.99712
0.982627
0.981823
0.981893
0.982
0.988039
0.986821
0.985615
0.985615
0.985615
0.985627
0.986058
0.99742
0.998934
0.998933
0.998836
0.998879
0.998928
0.998927
0.998928
0.99889
0.998279
0.998012
0.99871
0.998713
0.997999
0.997
0.998274
0.998981
0.998981
0.998981
0.996549
0.996547
0.996549
0.998202
0.998755
0.998755
0.998755
0.998625
0.997609
0.997909
0.998279
0.991829
0.982
0.982151
0.993003
0.998308
0.99819
0.9989
0.99418
0.98565
0.985666
0.985671
0.989986
0.998914
0.998928
0.998928
0.998928
0.998928
0.998928
0.998712
0.996995
0.996995
0.998008
0.998717
0.998713
0.994537
0.99398
0.998721
0.998981
0.998981
0.998606
0.997016
0.998449
0.998755
0.998755
0.998755
0.998434
0.997601
0.997609
0.998824
0.998914
0.998852
0.996665
0.996784
0.998593
0.998914
0.998914
0.998914
0.998914
0.998914
0.990985
0.985701
0.985795
0.989923
0.998866
0.998928
0.998928
0.998928
0.998928
0.998928
0.998743
0.997247
0.998717
0.998716
0.995306
0.965341
0.967179
0.99242
0.998914
0.998981
0.998513
0.998614
0.99861
0.997447
0.988081
0.993629
0.998869
0.998892
0.998886
0.998914
0.998914
0.998914
0.998914
0.998914
0.998914
0.998914
0.998914
0.998914
0.998914
0.998914
0.998914
0.992033
0.98586
0.986019
0.995663
0.998924
0.998928
0.998928
0.998928
0.998928
0.998891
0.998556
0.998716
0.998716
0.976411
0.958726
0.958723
0.964888
0.995382
0.998981
0.983106
0.986345
0.985233
0.981276
0.981276
0.981276
0.99439
0.998911
0.998914
0.998914
0.998914
0.998914
0.998914
0.998914
0.998914
0.998905
0.99889
0.998904
0.998914
0.998914
0.998914
0.998914
0.992375
0.989093
0.9977
0.998926
0.998928
0.998928
0.998928
0.998928
0.998109
0.993842
0.995575
0.998716
0.968529
0.958723
0.958722
0.958722
0.987377
0.998976
0.974677
0.97533
0.990495
0.992712
0.992077
0.996288
0.998881
0.998895
0.998003
0.992986
0.994677
0.99852
0.998914
0.998914
0.998914
0.998914
0.998896
0.998912
0.998914
0.998914
0.998914
0.998914
0.998824
0.998809
0.998926
0.998928
0.998928
0.998928
0.998928
0.998928
0.998928
0.95906
0.959196
0.995834
0.982539
0.958726
0.958722
0.958722
0.985678
0.998926
0.995335
0.996206
0.996206
0.996206
0.995839
0.996552
0.996684
0.997728
0.996826
0.982748
0.97815
0.978046
0.978017
0.976735
0.976649
0.982334
0.997764
0.998583
0.998175
0.99883
0.998914
0.998914
0.998914
0.998914
0.997024
0.99241
0.998193
0.998928
0.998928
0.998928
0.969268
0.950693
0.950687
0.96518
0.984134
0.97303
0.958725
0.958722
0.987217
0.998915
0.996206
0.996206
0.996206
0.996206
0.996203
0.987776
0.975275
0.977009
0.987746
0.995614
0.995617
0.995617
0.985583
0.976636
0.976627
0.976623
0.976623
0.976641
0.989905
0.99891
0.998914
0.998914
0.998914
0.997477
0.983191
0.983191
0.987509
0.998909
0.990549
0.953571
0.950684
0.950682
0.950681
0.950662
0.979956
0.98831
0.958831
0.959106
0.992191
0.998944
0.996206
0.996206
0.996206
0.996203
0.996177
0.979014
0.970301
0.970273
0.978356
0.995611
0.995617
0.995617
0.989334
0.976627
0.976623
0.976623
0.976623
0.977283
0.99676
0.998914
0.998914
0.998914
0.998914
0.998914
0.989332
0.990911
0.985925
0.95347
0.950719
0.950683
0.950682
0.950678
0.950666
0.950657
0.971038
0.992509
0.962421
0.961009
0.993212
0.99897
0.996203
0.996201
0.996197
0.996177
0.995751
0.988753
0.971139
0.981151
0.985498
0.98994
0.995609
0.995617
0.985007
0.976663
0.976627
0.988344
0.994081
0.998385
0.998914
0.998914
0.998914
0.998914
0.998914
0.998914
0.998914
0.998913
0.995367
0.992819
0.967387
0.950675
0.950678
0.950666
0.950652
0.950657
0.972195
0.992612
0.962448
0.970581
0.997544
0.998977
0.974683
0.975153
0.966224
0.947422
0.942718
0.969029
0.98728
0.987244
0.936935
0.95396
0.987009
0.995188
0.994992
0.995144
0.996429
0.997283
0.997283
0.995656
0.995514
0.998694
0.998914
0.998914
0.998914
0.998914
0.998914
0.998914
0.998913
0.998891
0.99884
0.986607
0.950692
0.950677
0.950665
0.950657
0.981884
0.992655
0.962596
0.970272
0.997304
0.998983
0.897567
0.895873
0.894897
0.894314
0.894448
0.895778
0.976357
0.987279
0.833464
0.910657
0.989083
0.989251
0.974954
0.975026
0.981385
0.988534
0.98575
0.985339
0.989778
0.998589
0.998913
0.997636
0.998531
0.998914
0.998914
0.995607
0.997057
0.99884
0.998802
0.998793
0.966687
0.950687
0.950677
0.966118
0.995902
0.991373
0.962695
0.982017
0.998983
0.998983
0.898343
0.909631
0.959709
0.934167
0.894313
0.894614
0.945802
0.986602
0.784153
0.89389
0.989019
0.976187
0.971345
0.980161
0.998257
0.9971
0.996149
0.995661
0.997373
0.998911
0.998912
0.997181
0.981281
0.988926
0.997887
0.994774
0.993576
0.998395
0.998793
0.998787
0.994496
0.954322
0.964163
0.996075
0.996238
0.975956
0.969452
0.996274
0.998984
0.998983
0.964173
0.992662
0.998108
0.998119
0.895099
0.896911
0.980679
0.929945
0.772212
0.76619
0.915182
0.997788
0.997813
0.997894
0.998269
0.998674
0.998859
0.998907
0.99891
0.998911
0.998911
0.998911
0.967787
0.950568
0.978987
0.994702
0.990923
0.99485
0.998488
0.998779
0.998775
0.993929
0.997336
0.998084
0.979832
0.974066
0.993876
0.998984
0.998984
0.998964
0.998736
0.998736
0.998143
0.968884
0.927911
0.988057
0.996594
0.912429
0.765612
0.765559
0.765567
0.861614
0.997707
0.993468
0.997248
0.992799
0.985907
0.995175
0.998714
0.998862
0.998911
0.998911
0.978185
0.950328
0.9502
0.953072
0.988146
0.992683
0.997482
0.998775
0.998769
0.998766
0.998725
0.98735
0.976355
0.986682
0.99886
0.998866
0.998984
0.998983
0.998736
0.998736
0.991493
0.940061
0.975368
0.996757
0.996792
0.961979
0.765562
0.765562
0.765559
0.765567
0.766205
0.770732
0.890414
0.854862
0.843636
0.958334
0.998578
0.998909
0.998911
0.998911
0.998911
0.983894
0.950054
0.950054
0.965331
0.993779
0.998541
0.998769
0.998768
0.998768
0.991831
0.984743
0.98553
0.998871
0.998256
0.998253
0.998984
0.998984
0.998735
0.998736
0.99101
0.940041
0.942363
0.993832
0.996792
0.996792
0.923746
0.76733
0.765686
0.768405
0.767026
0.767701
0.768526
0.769442
0.770651
0.933039
0.998741
0.998894
0.998909
0.998911
0.998911
0.99891
0.965693
0.950054
0.971103
0.997399
0.998768
0.998768
0.998768
0.997954
0.984912
0.984803
0.998878
0.998878
0.998247
0.998779
0.998984
0.998984
0.998734
0.998735
0.996704
0.9612
0.941556
0.968261
0.995366
0.995709
0.995534
0.990533
0.961767
0.90589
0.910403
0.888078
0.865944
0.910793
0.996148
0.99721
0.997459
0.998319
0.998738
0.997538
0.998814
0.998909
0.983212
0.954162
0.988697
0.998767
0.998768
0.998768
0.998768
0.998744
0.985064
0.996802
0.99888
0.998879
0.998879
0.998879
0.998983
0.998984
0.998725
0.998734
0.998725
0.998626
0.970541
0.967473
0.981589
0.983664
0.992951
0.998864
0.998866
0.998866
0.998866
0.998866
0.998864
0.998839
0.99865
0.996748
0.978588
0.952498
0.927445
0.952453
0.990835
0.998907
0.997883
0.995242
0.998158
0.998703
0.992265
0.983931
0.980394
0.983899
0.99566
0.998963
0.99892
0.995308
0.991588
0.98371
0.990997
0.998411
0.998709
0.997256
0.987093
0.99567
0.997254
0.997244
0.979025
0.978796
0.978796
0.996817
0.998865
0.998866
0.998866
0.998863
0.998797
0.987882
0.949225
0.894784
0.840034
0.840157
0.840179
0.966918
0.998877
0.99889
0.998876
0.998858
0.998795
0.989887
0.960611
0.959957
0.960007
0.962625
0.998963
0.998966
0.998964
0.995305
0.930864
0.888618
0.903974
0.931791
0.998694
0.973666
0.970035
0.991247
0.997244
0.997254
0.983864
0.978796
0.985977
0.998585
0.998864
0.998865
0.998864
0.993885
0.931958
0.850595
0.839923
0.839923
0.839927
0.840546
0.963308
0.998861
0.998871
0.998877
0.998871
0.99885
0.983386
0.959945
0.959925
0.959928
0.959957
0.960982
0.998966
0.998966
0.998966
0.998942
0.985418
0.888464
0.888464
0.888464
0.963963
0.963977
0.970308
0.996348
0.997171
0.989979
0.983889
0.987166
0.998865
0.998865
0.998864
0.998852
0.990905
0.883833
0.839917
0.839917
0.839917
0.839924
0.840819
0.965748
0.998844
0.998853
0.998861
0.998871
0.998855
0.994106
0.959945
0.959925
0.959925
0.959925
0.959928
0.980718
0.998966
0.998966
0.998966
0.998966
0.976359
0.888618
0.888464
0.888466
0.9849
0.995649
0.995726
0.995915
0.990694
0.988025
0.989866
0.998865
0.998865
0.998865
0.998865
0.998844
0.954672
0.839918
0.839917
0.839917
0.83992
0.839988
0.882094
0.998827
0.998836
0.998844
0.998853
0.998855
0.998843
0.998475
0.976831
0.959945
0.959925
0.962154
0.989826
0.998966
0.998966
0.998966
0.998966
0.966965
0.934669
0.913386
0.931161
0.940429
0.99517
0.995235
0.983086
0.975234
0.977438
0.99399
0.998865
0.998865
0.998865
0.998865
0.998855
0.998823
0.977463
0.850476
0.839918
0.839919
0.839921
0.83993
0.840076
0.939875
0.998827
0.998836
0.998811
0.998843
0.998835
0.998822
0.997519
0.986048
0.983652
0.99657
0.998828
0.998883
0.998966
0.954516
0.926382
0.920008
0.920088
0.983079
0.983085
0.983085
0.981923
0.929868
0.920329
0.956935
0.983049
0.983178
0.993546
0.998796
0.996451
0.997742
0.998832
0.998819
0.99878
0.983597
0.861854
0.839916
0.83993
0.842024
0.843115
0.906614
0.988991
0.99882
0.975846
0.856598
0.871234
0.99878
0.998761
0.998723
0.998483
0.9692
0.878027
0.897337
0.976031
0.9627
0.928901
0.929216
0.920256
0.975715
0.983085
0.983085
0.895075
0.895148
0.938433
0.965428
0.952533
0.921205
0.921203
0.921503
0.948338
0.998795
0.998819
0.997593
0.993473
0.993342
0.993288
0.982309
0.969664
0.978588
0.968873
0.943291
0.973074
0.926746
0.748085
0.747097
0.747056
0.756129
0.905177
0.972678
0.924095
0.850125
0.850125
0.850125
0.921195
0.962188
0.887504
0.833958
0.823265
0.851755
0.96822
0.983085
0.895028
0.895075
0.94193
0.965416
0.951975
0.921207
0.921208
0.921292
0.933536
0.985776
0.998795
0.992108
0.985497
0.985999
0.992933
0.993251
0.996648
0.996817
0.997048
0.997408
0.997173
0.9863
0.815224
0.747056
0.747007
0.747013
0.747055
0.747258
0.759539
0.909031
0.959662
0.941785
0.960316
0.958025
0.916866
0.905754
0.823248
0.823993
0.94893
0.983083
0.895026
0.895028
0.895098
0.965294
0.998915
0.998915
0.998915
0.998915
0.998915
0.998915
0.996913
0.99089
0.985869
0.985073
0.990833
0.974956
0.974956
0.974956
0.982096
0.997623
0.997623
0.997623
0.980624
0.800552
0.747013
0.747011
0.747013
0.747055
0.827745
0.93842
0.995445
0.995453
0.995453
0.995453
0.995453
0.995453
0.91361
0.833333
0.982482
0.983081
0.895028
0.905758
0.994939
0.998915
0.998915
0.998915
0.998915
0.998915
0.998915
0.998915
0.998914
0.984799
0.962017
0.934682
0.961168
0.987341
0.98874
0.987761
0.982141
0.990708
0.997623
0.997621
0.997618
0.981108
0.917852
0.762291
0.747055
0.747141
0.747189
0.76501
0.954906
0.995445
0.995453
0.995453
0.995453
0.995453
0.993633
0.94556
0.981299
0.983081
0.993519
0.993259
0.983238
0.995475
0.998862
0.998915
0.998915
0.998915
0.998915
0.998915
0.975434
0.926466
0.923927
0.92392
0.924291
0.946131
0.986085
0.987674
0.987459
0.972212
0.97513
0.992322
0.997384
0.997154
0.996784
0.993094
0.859593
0.747189
0.747934
0.748489
0.748642
0.895904
0.995431
0.995452
0.995453
0.977839
0.925867
0.926012
0.983028
0.983079
0.997169
0.909912
0.891229
0.935434
0.995345
0.998915
0.998915
0.998915
0.998915
0.996791
0.923431
0.923467
0.925841
0.963585
0.974657
0.966879
0.961989
0.953823
0.950932
0.950965
0.950954
0.966541
0.996848
0.996907
0.996737
0.996677
0.886926
0.863681
0.93133
0.794162
0.748988
0.750652
0.846438
0.989713
0.995452
0.950289
0.925911
0.981531
0.982986
0.983005
0.891497
0.891229
0.891243
0.892975
0.987927
0.998913
0.998915
0.998915
0.99868
0.952891
0.923431
0.92502
0.991558
0.996727
0.996727
0.996727
0.996727
0.996725
0.996384
0.993051
0.988847
0.994099
0.996711
0.996741
0.996693
0.974747
0.943776
0.982111
0.987899
0.956947
0.767291
0.753207
0.755231
0.891566
0.99538
0.968069
0.926123
0.980915
0.926543
0.910301
0.891425
0.891304
0.891302
0.953388
0.998657
0.998771
0.998913
0.998494
0.977241
0.923747
0.923431
0.965803
0.996694
0.996727
0.996727
0.996727
0.996726
0.993446
0.964956
0.892384
0.864325
0.905584
0.951512
0.993935
0.996432
0.988187
0.988349
0.988104
0.987899
0.987899
0.803734
0.755231
0.758051
0.821305
0.985809
0.973628
0.964867
0.981178
0.833997
0.854986
0.977808
0.977849
0.988887
0.988937
0.975059
0.983538
0.969703
0.956738
0.934778
0.923847
0.957272
0.982937
0.988375
0.993724
0.996727
0.996726
0.996669
0.943927
0.668556
0.564192
0.564161
0.564192
0.566363
0.747284
0.96186
0.988371
0.988389
0.981787
0.972444
0.973633
0.862212
0.758315
0.76443
0.923396
0.994513
0.975812
0.994127
0.994925
0.836722
0.955471
0.918521
0.925147
0.98868
0.949328
0.920888
0.920812
0.920801
0.920812
0.920807
0.988654
0.992437
0.985043
0.960588
0.963103
0.996705
0.996697
0.995644
0.823518
0.564212
0.564161
0.564161
0.564161
0.564278
0.585326
0.938252
0.988389
0.985617
0.964218
0.964218
0.968743
0.966178
0.939151
0.957111
0.992796
0.99502
0.995014
0.994967
0.994918
0.747484
0.955572
0.929406
0.962416
0.959022
0.933652
0.925931
0.940749
0.924211
0.920801
0.925336
0.976989
0.992173
0.992509
0.977289
0.961928
0.963147
0.994607
0.978239
0.977066
0.876182
0.572272
0.564169
0.564531
0.564943
0.569461
0.785691
0.935255
0.950688
0.966282
0.972733
0.930574
0.976114
0.995006
0.995012
0.99502
0.99502
0.99502
0.981707
0.935763
0.773928
0.958535
0.998395
0.99835
0.996247
0.99617
0.99584
0.995924
0.993743
0.940509
0.923075
0.923075
0.933906
0.982813
0.995306
0.995532
0.985269
0.975274
0.974414
0.978533
0.979426
0.992118
0.997038
0.997075
0.997102
0.997125
0.997126
0.997126
0.997126
0.997126
0.997126
0.892178
0.951151
0.995005
0.995006
0.995012
0.99502
0.808594
0.587095
0.664942
0.969312
0.969312
0.998394
0.993178
0.991051
0.992342
0.995924
0.995929
0.995929
0.995929
0.981718
0.927451
0.922914
0.922914
0.924904
0.990803
0.99495
0.994929
0.994892
0.979957
0.975292
0.975298
0.975309
0.993161
0.993965
0.994568
0.997125
0.997126
0.997126
0.997126
0.996131
0.843603
0.590542
0.742052
0.798243
0.716539
0.60305
0.570877
0.571954
0.602764
0.938842
0.969312
0.998393
0.987313
0.986202
0.986204
0.991514
0.995926
0.995929
0.995929
0.995929
0.995929
0.995168
0.995351
0.984048
0.953443
0.953416
0.953427
0.983188
0.997282
0.997284
0.997292
0.985468
0.972333
0.97222
0.977047
0.996823
0.997125
0.997126
0.997126
0.985925
0.677725
0.574674
0.572789
0.571512
0.570792
0.570792
0.570792
0.62049
0.966622
0.96662
0.949118
0.99839
0.987152
0.986204
0.986315
0.995625
0.996028
0.995926
0.995929
0.995929
0.995929
0.995381
0.995362
0.995451
0.995489
0.953728
0.974596
0.997281
0.997293
0.997294
0.997294
0.997294
0.983396
0.971807
0.987089
0.9963
0.996196
0.997125
0.997126
0.997112
0.883103
0.6009
0.573935
0.572789
0.699351
0.690909
0.737308
0.963591
0.970034
0.922955
0.915544
0.985748
0.985623
0.989651
0.996721
0.996618
0.996099
0.995984
0.99592
0.995538
0.995928
0.977068
0.973945
0.975299
0.996003
0.996563
0.997232
0.997246
0.99629
0.99693
0.997294
0.996337
0.971593
0.971536
0.984715
0.987814
0.983707
0.928111
0.785008
0.827327
0.569347
0.782388
0.9435
0.894819
0.957502
0.966925
0.970235
0.991269
0.964274
0.915544
0.915544
0.96199
0.98634
0.996835
0.996778
0.987575
0.983799
0.968285
0.950702
0.9622
0.98912
0.993816
0.993799
0.99469
0.996843
0.996638
0.996236
0.987138
0.89386
0.873272
0.873297
0.906657
0.941489
0.991016
0.990629
0.96629
0.718118
0.529386
0.518357
0.519067
0.518919
0.626087
0.990899
0.993304
0.975083
0.972407
0.988073
0.990448
0.93193
0.915674
0.915544
0.961529
0.995801
0.996882
0.996123
0.971061
0.883333
0.716067
0.72586
0.982134
0.995728
0.934413