/*--------------------------------*- C++ -*----------------------------------*\
  =========                 |
  \\      /  F ield         | OpenFOAM: The Open Source CFD Toolbox
   \\    /   O peration     | Website:  https://openfoam.org
    \\  /    A nd           | Version:  8
     \\/     M anipulation  |
\*---------------------------------------------------------------------------*/
FoamFile
{
    version     2.0;
    format      ascii;
    class       surfaceScalarField;
    location    "8.9";
    object      alphaPhi0.water;
}
// * * * * * * * * * * * * * * * * * * * * * * * * * * * * * * * * * * * * * //

dimensions      [0 3 -1 0 0 0 0];

internalField   nonuniform List<scalar> 
18095
(
1.9951e-08
-1.72019e-07
1.52068e-07
2.3246e-08
-1.97413e-07
1.94118e-07
2.01429e-08
-2.05951e-07
2.09054e-07
1.09153e-08
-2.10596e-07
2.19824e-07
-1.33577e-09
-2.12974e-07
2.25225e-07
-1.27214e-08
-2.13359e-07
2.24745e-07
-2.06891e-08
-2.1189e-07
2.19858e-07
-2.32113e-08
-2.06248e-07
2.0877e-07
-1.98687e-08
-1.97489e-07
1.94146e-07
-1.72061e-07
1.52192e-07
1.55776e-08
-1.87597e-07
1.62838e-08
-1.98119e-07
1.22415e-08
-2.01909e-07
6.89317e-09
-2.05248e-07
1.15667e-09
-2.07237e-07
-5.30483e-09
-2.06898e-07
-1.18092e-08
-2.05386e-07
-1.62129e-08
-2.01844e-07
-1.55593e-08
-1.98142e-07
-1.8762e-07
6.80999e-09
-1.94407e-07
8.40723e-09
-1.99716e-07
7.37264e-09
-2.00874e-07
4.42297e-09
-2.02298e-07
-1.83947e-10
-2.0263e-07
-4.5867e-09
-2.02495e-07
-7.50713e-09
-2.02465e-07
-8.41969e-09
-2.00931e-07
-6.79517e-09
-1.99767e-07
-1.94415e-07
4.5255e-09
-1.98932e-07
4.75371e-09
-1.99944e-07
3.70995e-09
-1.99831e-07
1.7235e-09
-2.00312e-07
-8.04379e-11
-2.00826e-07
-1.68141e-09
-2.00894e-07
-3.64437e-09
-2.00503e-07
-4.70012e-09
-1.99876e-07
-4.51162e-09
-1.99956e-07
-1.98927e-07
1.06771e-09
1.12343e-09
1.29286e-09
9.81204e-10
1.54778e-10
-7.39259e-10
-1.24185e-09
-1.11761e-09
-1.07315e-09
-2.72582e-08
-1.95207e-07
2.22466e-07
-2.94647e-08
-1.98701e-07
2.00908e-07
-2.37863e-08
-2.00988e-07
1.95309e-07
-1.31675e-08
-2.01437e-07
1.90819e-07
9.09796e-10
-2.01905e-07
1.87828e-07
1.52734e-08
-2.01938e-07
1.87574e-07
2.68147e-08
-2.01828e-07
1.90286e-07
3.19483e-08
-2.01655e-07
1.96522e-07
2.94889e-08
-1.99631e-07
2.0209e-07
-1.96708e-07
2.26197e-07
-9.1399e-09
-1.86068e-07
-1.47416e-08
-1.93099e-07
-1.23841e-08
-2.03346e-07
-6.16674e-09
-2.07655e-07
-2.76161e-10
-2.07796e-07
5.93719e-09
-2.08151e-07
1.26303e-08
-2.08521e-07
1.52546e-08
-2.04279e-07
9.70874e-09
-1.94085e-07
-1.87e-07
-9.51322e-09
-1.76554e-07
-7.71891e-09
-1.94894e-07
-6.53089e-09
-2.04534e-07
-3.76368e-09
-2.10422e-07
1.59575e-09
-2.13155e-07
6.82975e-09
-2.13385e-07
8.27997e-09
-2.09971e-07
8.55125e-09
-2.04551e-07
9.83944e-09
-1.95373e-07
-1.7716e-07
-6.53942e-09
-1.70015e-07
-8.15875e-09
-1.93275e-07
-7.69528e-09
-2.04997e-07
-3.98596e-09
-2.14132e-07
-1.26313e-09
-2.15878e-07
1.92145e-09
-2.1657e-07
7.31473e-09
-2.15364e-07
8.48442e-09
-2.0572e-07
6.79028e-09
-1.93679e-07
-1.7037e-07
-1.79466e-08
-1.71037e-08
-1.30466e-08
-7.35435e-09
1.99245e-09
1.01677e-08
1.46613e-08
1.77107e-08
1.81778e-08
5.40134e-08
-1.43706e-07
8.96929e-08
5.85638e-08
-1.87217e-07
1.82667e-07
4.96035e-08
-2.04456e-07
2.13416e-07
3.62745e-08
-2.1092e-07
2.24249e-07
1.94542e-08
-2.15591e-07
2.32411e-07
2.22144e-09
-2.18455e-07
2.35688e-07
-1.05553e-08
-2.19499e-07
2.32275e-07
-1.89419e-08
-2.19261e-07
2.27648e-07
-2.1129e-08
-2.09344e-07
2.11531e-07
-1.7155e-07
1.50421e-07
2.42868e-08
-1.67993e-07
3.16141e-08
-1.94545e-07
3.03992e-08
-2.03241e-07
2.6292e-08
-2.06813e-07
1.83437e-08
-2.07642e-07
9.00312e-09
-2.09114e-07
-9.68569e-10
-2.09527e-07
-8.01688e-09
-2.12213e-07
-9.52303e-09
-2.07838e-07
-1.81073e-07
1.13292e-08
-1.79322e-07
1.4579e-08
-1.97794e-07
1.49423e-08
-2.03605e-07
1.21726e-08
-2.04043e-07
8.26648e-09
-2.03736e-07
4.63856e-09
-2.05486e-07
-2.47283e-10
-2.04641e-07
-2.87503e-09
-2.09585e-07
-5.31017e-09
-2.05403e-07
-1.86383e-07
9.57285e-09
-1.88895e-07
9.55662e-09
-1.97778e-07
1.12106e-08
-2.05259e-07
6.92952e-09
-1.99762e-07
5.11355e-09
-2.0192e-07
3.38964e-09
-2.03762e-07
-1.59453e-09
-1.99657e-07
-1.57244e-09
-2.09607e-07
-6.37419e-09
-2.00601e-07
-1.92758e-07
3.35704e-08
3.67e-08
2.67508e-08
1.78071e-08
3.71501e-09
-1.24731e-08
-2.18433e-08
-3.4929e-08
-3.34397e-08
8.34747e-08
2.01081e-08
-1.03763e-07
6.07847e-08
2.27175e-08
4.45556e-08
1.62319e-08
3.62561e-08
8.29981e-09
3.82873e-08
-2.03087e-09
4.12677e-08
-3.27812e-09
4.20844e-08
-8.17837e-10
4.20092e-08
7.40905e-11
4.42587e-08
-1.89351e-09
-6.51324e-09
5.07486e-08
9.87847e-08
2.29927e-08
-1.02195e-07
9.0858e-08
3.0643e-08
7.55066e-08
3.15824e-08
5.91861e-08
2.47896e-08
5.08609e-08
6.29456e-09
4.83236e-08
-7.55546e-10
4.71857e-08
1.92854e-11
4.70681e-08
1.90707e-10
5.19003e-08
-6.35933e-09
-1.27102e-08
5.80824e-08
9.11603e-08
2.75394e-08
-9.61695e-08
8.4652e-08
3.71505e-08
7.57477e-08
4.04861e-08
6.45129e-08
3.624e-08
5.47381e-08
1.60712e-08
4.8026e-08
5.67942e-09
4.37261e-08
4.31813e-09
4.28705e-08
1.04522e-09
4.72104e-08
-1.03751e-08
-1.53788e-08
4.98792e-08
7.51596e-08
3.91236e-08
-8.7135e-08
6.37684e-08
4.85411e-08
5.43511e-08
4.99028e-08
4.75804e-08
4.30101e-08
4.25143e-08
2.12456e-08
3.77035e-08
1.03867e-08
3.44141e-08
7.60648e-09
3.44217e-08
1.03657e-09
3.7977e-08
-1.37477e-08
-1.73083e-08
3.99068e-08
4.74594e-08
5.1594e-08
-6.02732e-08
3.9741e-08
5.62588e-08
3.35805e-08
5.60628e-08
3.22971e-08
4.45041e-08
2.88647e-08
2.47304e-08
2.43672e-08
1.47502e-08
2.10263e-08
1.09463e-08
1.84277e-08
3.63414e-09
1.04035e-08
-5.63592e-09
-4.96958e-09
-1.93382e-09
2.30181e-08
6.10572e-08
-3.26641e-08
1.62208e-08
6.30555e-08
1.33523e-08
5.89307e-08
1.27519e-08
4.5188e-08
4.84052e-09
3.26559e-08
-4.90983e-09
2.44367e-08
-1.2779e-08
1.88136e-08
-2.00477e-08
1.08537e-08
-3.70542e-08
1.1368e-08
1.64051e-08
-5.84874e-08
-1.63268e-08
7.16234e-08
5.75658e-09
-2.21606e-08
6.8888e-08
-1.99184e-08
5.68438e-08
-1.8192e-08
4.3506e-08
-2.07099e-08
3.51012e-08
-2.78973e-08
3.15414e-08
-3.6611e-08
2.7502e-08
-4.93017e-08
2.35433e-08
-6.56119e-08
2.76767e-08
3.40408e-08
-8.34549e-08
-4.98947e-08
6.85905e-08
5.29257e-08
-4.07612e-08
5.9811e-08
-3.35045e-08
4.96023e-08
-3.25592e-08
4.2606e-08
-3.6335e-08
3.89247e-08
-4.13505e-08
3.64913e-08
-4.51941e-08
3.11854e-08
-5.33818e-08
3.173e-08
-6.32148e-08
3.75086e-08
4.50816e-08
-7.43596e-08
-6.74734e-08
5.50494e-08
8.10628e-08
-5.55327e-08
4.7885e-08
-4.84614e-08
4.25462e-08
-4.51096e-08
3.93898e-08
-4.57975e-08
3.96068e-08
-4.61592e-08
3.66186e-08
-4.77394e-08
3.2765e-08
-5.06289e-08
3.46186e-08
-5.40709e-08
4.09497e-08
4.57666e-08
-5.47033e-08
-6.69539e-08
3.94298e-08
8.25878e-08
-5.83066e-08
3.92518e-08
-5.26639e-08
3.70447e-08
-5.01119e-08
3.68359e-08
-4.73953e-08
3.68868e-08
-4.44058e-08
3.34298e-08
-4.27696e-08
3.11284e-08
-4.25066e-08
3.4355e-08
-4.15035e-08
3.98471e-08
4.17693e-08
-3.74515e-08
-6.18103e-08
2.98413e-08
7.14129e-08
-5.57442e-08
3.33229e-08
-4.77469e-08
2.90455e-08
-4.19798e-08
3.10668e-08
-3.86363e-08
3.35414e-08
-3.59302e-08
3.05482e-08
-3.24266e-08
2.76245e-08
-2.75824e-08
2.95104e-08
-2.08675e-08
3.31498e-08
3.80534e-08
-1.71409e-08
-5.17344e-08
1.71189e-08
6.44559e-08
-3.93345e-08
2.09212e-08
-3.30149e-08
2.27241e-08
-2.55143e-08
2.35644e-08
-1.93858e-08
2.74662e-08
-1.46387e-08
2.57313e-08
-1.05519e-08
2.35375e-08
-6.75064e-09
2.57088e-08
-2.69866e-09
2.91421e-08
3.44395e-08
9.58651e-10
-3.80823e-08
6.80557e-10
5.44445e-08
-2.2723e-08
5.62796e-09
-1.36709e-08
1.38187e-08
-5.93829e-09
1.59777e-08
9.19025e-10
2.06836e-08
5.94012e-09
2.071e-08
9.09117e-09
2.03862e-08
1.27717e-08
2.20281e-08
1.70572e-08
2.48563e-08
2.98374e-08
2.16468e-08
-2.87858e-08
-1.68102e-08
4.62765e-08
-1.06383e-08
-1.25251e-08
3.34772e-09
-1.67043e-10
1.34643e-08
5.86079e-09
2.2138e-08
1.20097e-08
2.5356e-08
1.74919e-08
2.55527e-08
2.01882e-08
2.69457e-08
2.06348e-08
2.91917e-08
2.26098e-08
2.68328e-08
3.21959e-08
-3.24004e-08
-3.34552e-08
4.90456e-08
-1.72341e-08
-2.76916e-08
-3.90638e-09
-1.34947e-08
6.86099e-09
-4.90641e-09
1.85722e-08
2.98163e-10
2.76406e-08
8.40328e-09
3.41723e-08
1.3628e-08
3.74189e-08
1.73582e-08
3.78408e-08
2.21874e-08
2.39344e-08
4.07386e-08
-5.18774e-08
-4.49817e-08
6.34038e-08
-3.84372e-08
-4.11182e-08
-2.28675e-08
-2.89958e-08
-1.19818e-08
-1.57924e-08
-3.53854e-09
-8.14534e-09
7.69433e-09
-2.82963e-09
1.87742e-08
2.54658e-09
2.9497e-08
6.52062e-09
4.38136e-08
7.79879e-09
1.26364e-08
5.51436e-08
-7.57638e-08
-5.15004e-08
8.22821e-08
-6.31304e-08
-5.37518e-08
-4.38703e-08
-4.76444e-08
-3.11697e-08
-2.79751e-08
-2.61829e-08
-1.32256e-08
-1.63049e-08
-1.27077e-08
-2.53815e-09
-1.12402e-08
1.46351e-08
-1.06455e-08
3.59704e-08
-1.35503e-08
-7.33739e-09
5.59482e-08
-8.99893e-08
-5.99564e-08
9.84452e-08
-7.92187e-08
-6.45242e-08
-6.4043e-08
-6.24801e-08
-4.40471e-08
-4.77522e-08
-2.87544e-08
-2.82908e-08
-1.93645e-08
-2.18936e-08
-9.65753e-09
-2.06268e-08
4.69448e-09
-2.45167e-08
1.98282e-08
-2.80577e-08
-1.90212e-08
3.16308e-08
-8.76854e-08
-6.9039e-08
9.67655e-08
-7.93953e-08
-7.28133e-08
-7.13856e-08
-7.04874e-08
-5.90803e-08
-6.03454e-08
-4.26243e-08
-4.451e-08
-3.25393e-08
-3.19784e-08
-3.10672e-08
-2.20988e-08
-3.60398e-08
-1.9544e-08
-4.50691e-08
-1.90285e-08
-1.21471e-08
-5.13443e-08
-8.11997e-08
-7.70113e-08
8.91701e-08
-7.86898e-08
-7.5324e-08
-8.02325e-08
-6.89459e-08
-8.19218e-08
-5.86573e-08
-8.20936e-08
-4.42551e-08
-8.70104e-08
-2.54294e-08
-9.52696e-08
-1.38395e-08
-1.06092e-07
-8.72198e-09
-1.15943e-07
-9.17676e-09
-1.03329e-08
-1.17758e-07
-9.04476e-08
-8.27049e-08
9.62071e-08
-9.53603e-08
-7.04138e-08
-1.09013e-07
-5.52939e-08
-1.23155e-07
-4.45143e-08
-1.34161e-07
-3.32454e-08
-1.40474e-07
-1.61167e-08
-1.44916e-07
-9.39773e-09
-1.4372e-07
-9.91721e-09
-1.40796e-07
-1.21015e-08
-1.62342e-08
-1.36263e-07
-1.06972e-07
-8.24061e-08
1.06992e-07
-1.26113e-07
-5.12136e-08
-1.47561e-07
-3.40802e-08
-1.5976e-07
-3.23115e-08
-1.65658e-07
-2.73428e-08
-1.71571e-07
-9.55373e-09
-1.74303e-07
-4.18944e-09
-1.78195e-07
-6.02699e-09
-1.83154e-07
-1.02588e-08
-2.07001e-08
-1.78688e-07
-1.30528e-07
-7.21351e-08
1.20878e-07
-1.45909e-07
-3.12153e-08
-1.73178e-07
-9.96238e-09
-1.85821e-07
-1.96644e-08
-1.9083e-07
-2.23335e-08
-1.95888e-07
-4.49899e-09
-2.0116e-07
2.25964e-09
-2.08435e-07
4.35277e-10
-2.04792e-07
-1.39012e-08
-3.38892e-08
-1.91603e-07
-1.48955e-07
-6.07191e-08
1.3826e-07
-1.44309e-07
-2.81479e-08
-1.54908e-07
-1.28002e-10
-1.77387e-07
-4.73272e-09
-1.90165e-07
-9.55859e-09
-1.86958e-07
-7.73244e-09
-1.81854e-07
-2.62961e-09
-1.69044e-07
-1.20762e-08
-1.53352e-07
-2.95926e-08
-5.03629e-08
-1.36878e-07
-1.60108e-07
-4.46958e-08
1.44928e-07
-1.42402e-07
-3.85268e-08
-1.17132e-07
-2.61878e-08
-9.16895e-08
-3.11921e-08
-8.76702e-08
-1.47153e-08
-7.50897e-08
-2.44607e-08
-7.44071e-08
-3.03144e-09
-5.68234e-08
-2.92922e-08
-3.1965e-08
-5.40699e-08
-6.16146e-08
-1.86192e-08
-1.1275e-07
1.26263e-08
5.55945e-08
-1.2864e-07
-2.15678e-08
-8.97858e-08
-6.40141e-08
-6.20991e-08
-5.7844e-08
-2.9668e-08
-4.75058e-08
1.0758e-08
-6.54484e-08
1.55192e-08
-8.43478e-09
2.51831e-08
-3.67436e-08
3.18259e-08
-5.9224e-08
-6.61355e-08
3.74393e-08
6.27563e-08
5.74031e-08
-1.21075e-07
9.02859e-09
3.77595e-08
-4.54488e-08
-6.51217e-09
-7.08158e-08
-2.82473e-08
-5.08777e-08
-6.44982e-08
-5.26692e-08
-6.0697e-08
-2.39752e-08
-3.94785e-08
6.90213e-09
-7.06422e-08
2.31665e-08
-8.25282e-08
-8.74852e-08
4.28069e-08
1.31285e-07
4.74846e-08
-1.21391e-07
1.23105e-07
4.59368e-08
8.39146e-08
3.26753e-08
4.68967e-08
8.7673e-09
5.55677e-09
-1.51281e-08
-2.57585e-08
-2.56035e-08
-2.62212e-09
-5.96543e-08
1.33516e-08
-8.663e-08
2.19916e-08
-9.11724e-08
-9.96404e-08
2.7688e-08
1.57875e-07
3.46468e-08
-1.726e-07
1.67421e-07
3.63489e-08
1.70044e-07
3.00489e-08
1.6075e-07
1.806e-08
1.32774e-07
1.28471e-08
1.0114e-07
6.02984e-09
8.12607e-08
-2.1821e-08
5.54961e-08
-5.35269e-08
4.50573e-08
-8.07295e-08
-9.41307e-08
3.95478e-08
1.96187e-07
2.90968e-08
-1.90625e-07
1.79003e-07
2.42791e-08
1.87452e-07
2.15574e-08
1.85188e-07
2.0321e-08
1.75687e-07
2.23468e-08
1.60558e-07
2.11583e-08
1.2691e-07
1.18265e-08
1.11463e-07
-1.50584e-08
9.30255e-08
-5.66283e-08
-7.2557e-08
7.14541e-08
2.23315e-07
3.62328e-08
-2.30439e-07
2.28669e-07
1.8936e-08
2.09787e-07
1.68414e-08
1.96392e-07
2.06916e-08
1.86676e-07
3.20588e-08
1.69576e-07
3.82569e-08
1.46781e-07
3.46211e-08
1.211e-07
1.06211e-08
1.26889e-07
-3.4667e-08
-5.00262e-08
1.04373e-07
2.30311e-07
5.32118e-08
-2.47208e-07
2.24098e-07
2.515e-08
2.21222e-07
1.97116e-08
1.80235e-07
3.12792e-08
1.63084e-07
4.45474e-08
1.52344e-07
4.89909e-08
1.4202e-07
4.49439e-08
1.28667e-07
2.39727e-08
1.33392e-07
-1.28145e-08
-2.76429e-08
1.11025e-07
2.35177e-07
6.55875e-08
-2.40778e-07
2.16489e-07
4.38325e-08
1.94126e-07
4.19913e-08
1.52876e-07
5.35876e-08
1.331e-07
5.22492e-08
1.32334e-07
4.97681e-08
1.32839e-07
4.44591e-08
1.3035e-07
2.64779e-08
1.42182e-07
3.02403e-09
-1.53133e-08
1.29869e-07
2.14856e-07
7.35502e-08
-2.0514e-07
1.8804e-07
7.09317e-08
1.56495e-07
7.34139e-08
1.18615e-07
6.76741e-08
1.20998e-07
4.67031e-08
1.23302e-07
4.74427e-08
1.21689e-07
4.60837e-08
1.37594e-07
3.92164e-08
1.35207e-07
7.44813e-09
-1.59549e-08
1.35852e-07
1.37507e-07
8.95144e-08
-1.49581e-07
1.1787e-07
9.05099e-08
9.9824e-08
9.13946e-08
8.85555e-08
5.51448e-08
9.4295e-08
4.65123e-08
9.56767e-08
5.35047e-08
1.13183e-07
5.14902e-08
1.26266e-07
2.76468e-08
1.33343e-07
4.55019e-10
-1.35722e-08
1.3104e-07
2.70481e-08
8.18986e-08
-1.94508e-08
3.11307e-08
8.63937e-08
3.47532e-08
8.45074e-08
3.00989e-08
5.74952e-08
2.73429e-08
5.62135e-08
5.23998e-08
3.79447e-08
7.69468e-08
2.75631e-08
8.48044e-08
2.00404e-08
6.99272e-08
1.41611e-08
-7.87217e-10
5.62055e-08
-6.2621e-08
6.87906e-08
7.45715e-08
-4.94878e-08
7.08589e-08
-2.59893e-08
5.93247e-08
-1.81187e-08
5.39995e-08
-7.79338e-09
4.61437e-08
7.43184e-10
3.01902e-08
6.74172e-09
2.04457e-08
6.41372e-09
1.95719e-08
4.75354e-09
1.52e-08
-1.29626e-08
1.72616e-08
-1.38324e-07
5.97827e-08
1.4748e-07
-1.19689e-07
5.39646e-08
-1.02662e-07
4.45003e-08
-8.21486e-08
3.54627e-08
-6.34066e-08
2.80819e-08
-5.74915e-08
2.40189e-08
-5.16335e-08
1.4327e-08
-2.48974e-08
-7.42647e-09
-7.03163e-10
-9.50367e-09
-3.77751e-08
2.36048e-08
-1.62527e-07
4.15308e-08
1.79996e-07
-1.44734e-07
3.6846e-08
-1.29366e-07
3.48249e-08
-1.17845e-07
2.37101e-08
-9.90556e-08
9.05727e-09
-7.97077e-08
4.42162e-09
-6.29199e-08
-5.76085e-09
-3.9929e-08
-3.03837e-08
-1.10745e-08
-3.8337e-08
-2.88096e-08
-1.88935e-08
-1.88418e-07
2.35884e-08
2.05618e-07
-1.76785e-07
2.44671e-08
-1.57822e-07
1.51199e-08
-1.40738e-07
4.37499e-09
-1.25755e-07
-7.6429e-09
-1.02569e-07
-1.8708e-08
-8.25685e-08
-2.57174e-08
-8.34893e-08
-2.93646e-08
-1.03423e-07
-1.40412e-08
8.6734e-09
-1.30747e-07
-2.27246e-07
1.46573e-08
2.34255e-07
-2.13414e-07
1.15936e-08
-1.9942e-07
1.10682e-09
-1.85316e-07
-1.01284e-08
-1.72569e-07
-2.03851e-08
-1.62205e-07
-2.90674e-08
-1.56676e-07
-3.12224e-08
-1.43857e-07
-2.43157e-08
-1.56985e-07
-9.28803e-10
1.59945e-08
-1.64316e-07
-2.26659e-07
4.05606e-09
2.37261e-07
-2.12973e-07
-2.09113e-09
-2.04016e-07
-7.84747e-09
-2.00714e-07
-1.34271e-08
-2.01394e-07
-1.97033e-08
-2.06085e-07
-2.43691e-08
-2.09386e-07
-2.54134e-08
-1.93792e-07
-2.14854e-08
-1.86348e-07
-8.38197e-09
2.41254e-09
-1.72775e-07
-1.97986e-07
-6.23096e-10
2.02666e-07
-1.9304e-07
-7.03613e-09
-1.88494e-07
-1.23928e-08
-1.84341e-07
-1.75784e-08
-1.81866e-07
-2.21766e-08
-1.83854e-07
-2.22804e-08
-1.92752e-07
-1.57592e-08
-2.07577e-07
-6.2701e-09
-1.96547e-07
-1.8637e-08
-1.74157e-08
-1.60573e-07
-9.79339e-08
-8.65294e-09
1.06078e-07
-8.91049e-08
-1.5883e-08
-7.59495e-08
-2.55664e-08
-5.90298e-08
-3.45923e-08
-4.10459e-08
-4.01589e-08
-2.37272e-08
-3.95975e-08
-1.37128e-08
-2.55574e-08
-2.68705e-09
-1.79958e-08
7.82886e-09
-3.00823e-08
-1.91626e-08
8.86996e-09
-1.95991e-08
-1.36148e-08
2.45628e-08
-1.06761e-08
-2.48046e-08
1.05632e-09
-3.72976e-08
1.01157e-08
-4.36505e-08
1.39515e-08
-4.39934e-08
1.93047e-08
-4.49491e-08
3.093e-08
-3.7184e-08
6.36934e-08
-5.07378e-08
8.16984e-08
-4.80633e-08
-2.12892e-08
8.42194e-08
2.23202e-08
-9.33041e-09
-2.62061e-08
3.04284e-08
-3.29112e-08
3.63849e-08
-4.3253e-08
3.64131e-08
-4.36774e-08
2.2948e-08
-3.05267e-08
2.29231e-08
-4.45081e-08
1.69639e-08
-3.09517e-08
2.93312e-08
-6.31354e-08
3.79149e-08
-5.72691e-08
-2.60033e-08
3.93912e-08
2.51648e-08
-1.58466e-08
-1.85399e-08
3.80033e-08
-4.57472e-08
3.2696e-08
-3.74939e-08
1.40393e-08
-2.30134e-08
-6.71415e-09
-8.09123e-09
-8.74984e-09
-4.00886e-08
9.63816e-09
-4.81545e-08
5.65742e-09
-5.91632e-08
9.11259e-10
-5.29095e-08
-3.60594e-08
8.846e-09
2.574e-09
-1.09872e-08
-7.32092e-09
-2.02039e-08
-2.07667e-08
-3.54067e-08
-1.82327e-08
-3.28967e-08
-2.64891e-08
-1.94876e-09
-4.00161e-08
-1.1791e-09
-4.18332e-08
1.5538e-09
-4.8717e-08
-1.11376e-08
-4.13542e-08
-3.38372e-08
-2.81226e-08
-2.31902e-08
-4.60293e-08
-3.54165e-08
1.01141e-08
1.7154e-08
-6.00406e-08
3.30568e-09
-6.2064e-08
-1.67507e-08
-7.78124e-08
-1.31055e-08
-8.44731e-08
-3.28041e-08
-9.17892e-08
-3.39734e-08
-1.0927e-07
-3.07988e-08
-1.23622e-07
-2.7095e-08
-1.20575e-07
-3.12766e-08
-3.06893e-08
-1.13182e-07
-8.13382e-08
1.36636e-08
7.62686e-08
-1.0943e-07
2.52491e-08
-1.41573e-07
1.78708e-08
-1.55985e-07
2.84498e-09
-1.69567e-07
-2.07502e-08
-1.71247e-07
-3.38757e-08
-1.80727e-07
-3.28775e-08
-1.74252e-07
-3.33087e-08
-1.4911e-07
-5.23511e-08
-6.70001e-08
-1.12921e-07
-1.72627e-07
4.08098e-08
1.36392e-07
-1.86758e-07
4.04203e-08
-1.97658e-07
3.44053e-08
-2.00737e-07
4.35637e-09
-2.09784e-07
-2.01249e-08
-1.99507e-07
-4.41543e-08
-1.73848e-07
-5.8538e-08
-1.38467e-07
-6.86934e-08
-1.09933e-07
-8.08927e-08
-8.71408e-08
-8.97875e-08
-1.33124e-07
4.78826e-08
1.25845e-07
-1.38097e-07
4.64226e-08
-1.39601e-07
3.84543e-08
-1.4454e-07
8.13702e-09
-1.42829e-07
-2.38746e-08
-1.36294e-07
-5.06903e-08
-1.22666e-07
-7.21654e-08
-1.01126e-07
-9.02368e-08
-7.93741e-08
-1.02648e-07
-1.08663e-07
-5.78616e-08
-8.16732e-08
5.11586e-08
7.84148e-08
-7.87425e-08
4.42317e-08
-6.46999e-08
2.73735e-08
-5.38794e-08
-3.83875e-09
-4.35641e-08
-3.4261e-08
-3.98481e-08
-5.56085e-08
-3.21754e-08
-7.98406e-08
-1.82381e-08
-1.04176e-07
1.03176e-09
-1.21918e-07
-1.25533e-07
1.78967e-08
-1.63137e-08
3.9411e-08
2.8079e-08
-1.0208e-09
2.8978e-08
9.77729e-09
1.70753e-08
1.28824e-08
-6.89619e-09
1.53399e-08
-3.75111e-08
2.34952e-08
-6.39975e-08
3.19316e-08
-8.82818e-08
4.28398e-08
-1.15085e-07
5.66972e-08
-1.35776e-07
-1.38611e-07
6.97748e-08
1.11269e-08
2.72995e-08
9.56791e-10
2.97104e-08
1.03918e-08
4.5427e-08
1.35678e-09
5.60144e-08
-1.75714e-08
5.89602e-08
-4.04579e-08
6.52476e-08
-7.02861e-08
7.4136e-08
-9.7173e-08
8.14258e-08
-1.22375e-07
8.63965e-08
-1.40748e-07
-1.43649e-07
9.14334e-08
1.38782e-08
1.34621e-08
-2.34818e-11
2.87012e-08
-4.43318e-09
4.40369e-08
-1.39815e-08
5.63818e-08
-2.99189e-08
6.682e-08
-5.08975e-08
7.6506e-08
-7.99733e-08
8.77181e-08
-1.08386e-07
9.15876e-08
-1.26247e-07
9.17279e-08
-1.40891e-07
-1.38358e-07
8.77377e-08
1.39274e-08
-4.20071e-09
3.73341e-09
2.53311e-08
-1.58384e-08
3.64961e-08
-2.51485e-08
4.65316e-08
-3.9955e-08
6.00408e-08
-6.4409e-08
7.19407e-08
-9.18751e-08
8.0528e-08
-1.16975e-07
7.98765e-08
-1.25598e-07
6.45937e-08
-1.25611e-07
-1.09532e-07
3.62315e-08
2.22939e-08
-1.69353e-08
-9.56028e-09
2.82992e-08
-2.18453e-08
3.43837e-08
-3.12339e-08
4.29699e-08
-4.85435e-08
5.02517e-08
-7.1691e-08
6.05832e-08
-1.02208e-07
6.20363e-08
-1.18429e-07
4.92354e-08
-1.12799e-07
1.68613e-08
-9.23218e-08
-6.25546e-08
-3.22661e-08
3.05001e-08
-3.24526e-08
-1.49838e-08
4.43944e-08
-3.57404e-08
5.55081e-08
-4.23483e-08
5.71638e-08
-5.01988e-08
4.95414e-08
-6.40682e-08
4.51851e-08
-9.78519e-08
3.17191e-08
-1.04967e-07
-1.10116e-08
-6.9374e-08
-7.23957e-08
-3.05648e-08
-2.99643e-08
-1.08111e-07
7.67766e-08
-6.48112e-08
-4.44202e-08
9.6408e-08
-5.53719e-08
9.73643e-08
-4.30977e-08
7.6839e-08
-2.96733e-08
5.19369e-08
-3.91509e-08
3.00165e-08
-7.59418e-08
-7.48265e-09
-6.74663e-08
-7.90974e-08
2.44305e-09
-1.33157e-07
2.18905e-08
-2.25668e-08
-1.40553e-07
8.77956e-08
-1.0983e-07
-4.13224e-08
1.09845e-07
-7.41329e-08
1.0461e-07
-3.04003e-08
8.39143e-08
-1.7367e-09
6.41626e-08
-1.5989e-08
1.7927e-08
-2.06083e-08
-7.30304e-08
2.08901e-08
-1.64428e-07
9.259e-08
-1.96671e-07
5.28718e-08
-1.95367e-08
-1.99691e-07
-6.78863e-08
-1.45378e-07
1.07474e-07
-2.19105e-08
-1.09349e-07
2.83001e-08
-8.38122e-08
5.40105e-08
-3.09813e-08
6.42355e-08
-1.59756e-08
2.79638e-08
1.54408e-08
-2.87433e-08
7.38747e-08
-1.11658e-07
1.37507e-07
-1.79148e-07
1.20389e-07
3.80977e-08
-2.36761e-07
-1.93558e-07
-1.72773e-07
2.22942e-07
-1.47397e-07
-1.58874e-07
-8.24154e-08
-1.67952e-07
-1.74062e-08
-1.14783e-07
2.28823e-08
-6.46054e-08
3.15693e-08
6.53359e-09
2.63298e-08
7.89316e-08
1.92038e-08
1.33567e-07
-2.3535e-08
1.25019e-07
8.77494e-08
-9.82283e-08
-2.6655e-07
-1.60612e-07
2.72936e-07
-2.60362e-07
-1.65553e-07
-2.48551e-07
-1.79008e-07
-1.98817e-07
-1.63767e-07
-1.45512e-07
-1.17107e-07
-7.29447e-08
-3.47095e-08
-3.84322e-08
4.42066e-08
3.63813e-09
9.1348e-08
3.35738e-08
9.49633e-08
7.1601e-08
4.42652e-08
-2.80473e-07
-1.47492e-07
2.68804e-07
-3.19054e-07
-1.41843e-07
-3.36881e-07
-1.60423e-07
-3.35123e-07
-1.64722e-07
-3.15937e-07
-1.35249e-07
-2.02736e-07
-9.22857e-08
-1.35133e-07
-2.35312e-08
-6.90617e-08
2.51773e-08
-1.49054e-08
4.07435e-08
3.79607e-08
1.86983e-08
-2.80506e-07
-1.3156e-07
2.65551e-07
-3.11475e-07
-1.08371e-07
-3.79339e-07
-1.11558e-07
-4.0773e-07
-1.35287e-07
-4.06777e-07
-1.35117e-07
-3.73926e-07
-1.23509e-07
-2.46873e-07
-9.37191e-08
-1.71405e-07
-5.03522e-08
-1.20375e-07
-1.035e-08
-8.35281e-09
-7.41237e-08
-2.40855e-07
-1.20834e-07
2.36068e-07
-2.56995e-07
-8.9658e-08
-2.98701e-07
-5.90971e-08
-3.85431e-07
-6.88378e-08
-4.16853e-07
-1.02067e-07
-4.05517e-07
-1.33217e-07
-3.67818e-07
-1.29789e-07
-2.90865e-07
-1.09313e-07
-2.02605e-07
-5.93761e-08
-6.28146e-08
-1.48206e-07
-2.06969e-07
-1.26941e-07
2.13309e-07
-1.81325e-07
-1.07807e-07
-1.62663e-07
-6.71936e-08
-2.06443e-07
-3.15517e-08
-2.75107e-07
-4.28107e-08
-3.30288e-07
-7.62969e-08
-3.28668e-07
-1.29156e-07
-2.79734e-07
-1.55758e-07
-2.178e-07
-9.9454e-08
-6.36006e-08
-1.87036e-07
-1.88066e-07
-1.56762e-07
2.15383e-07
-1.61403e-07
-1.34457e-07
-1.20931e-07
-1.0487e-07
-9.17195e-08
-5.06717e-08
-1.03572e-07
-3.21145e-08
-1.27669e-07
-5.33557e-08
-1.53404e-07
-1.03236e-07
-1.75416e-07
-1.30001e-07
-1.51499e-07
-1.31098e-07
-1.15172e-07
-9.76937e-08
-2.0815e-07
-1.99652e-07
2.49425e-07
-1.72128e-07
-1.70469e-07
-1.38656e-07
-1.38334e-07
-1.0428e-07
-8.17674e-08
-7.68195e-08
-5.40303e-08
-7.20895e-08
-5.92511e-08
-7.44263e-08
-1.02229e-07
-7.5099e-08
-1.51265e-07
-7.68774e-08
-1.48358e-07
-1.70131e-07
-4.39389e-08
-2.17847e-07
-2.34038e-07
2.52243e-07
-1.76348e-07
-2.1196e-07
-1.36172e-07
-1.78506e-07
-9.66279e-08
-1.21311e-07
-5.93934e-08
-9.11875e-08
-4.41738e-08
-8.03436e-08
-6.06154e-08
-1.0435e-07
-5.47278e-08
-1.61993e-07
-2.20573e-08
-1.8427e-07
-1.85688e-07
-4.19064e-09
-1.76514e-07
-2.51957e-07
1.9445e-07
-1.51281e-07
-2.37185e-07
-1.10617e-07
-2.1917e-07
-5.22458e-08
-1.79681e-07
-6.70226e-10
-1.42763e-07
3.82253e-08
-1.19239e-07
5.70467e-08
-1.23171e-07
5.65166e-08
-1.61462e-07
5.33269e-08
-1.84204e-07
-1.85562e-07
4.82004e-08
-7.07806e-08
-2.56293e-07
7.51974e-08
-6.29319e-08
-2.44528e-07
-3.11692e-08
-2.48703e-07
3.23808e-08
-2.43231e-07
1.10147e-07
-2.20529e-07
1.82594e-07
-1.91685e-07
2.35362e-07
-1.7594e-07
2.51584e-07
-1.77684e-07
2.49391e-07
-1.81995e-07
-1.81945e-07
2.03057e-07
4.41863e-08
-2.16241e-07
-5.44602e-08
6.61756e-08
-2.49199e-07
1.09432e-07
-2.88219e-07
1.66696e-07
-3.00484e-07
2.38889e-07
-2.92723e-07
3.09351e-07
-2.62148e-07
3.47812e-07
-2.14402e-07
3.54969e-07
-1.84825e-07
3.50797e-07
-1.77772e-07
-1.80172e-07
3.49388e-07
1.18204e-07
-1.73175e-07
-8.65408e-08
1.74689e-07
-2.34682e-07
2.23787e-07
-3.26651e-07
2.70192e-07
-3.46799e-07
3.16105e-07
-3.38621e-07
3.58703e-07
-3.04735e-07
3.67728e-07
-2.25482e-07
3.62839e-07
-1.65928e-07
3.69166e-07
-1.58149e-07
-1.7894e-07
3.71384e-07
1.46268e-07
-2.04555e-07
-1.15966e-07
2.09515e-07
-2.28472e-07
2.67468e-07
-3.22911e-07
2.91926e-07
-3.70374e-07
3.16566e-07
-3.63166e-07
3.25875e-07
-3.11823e-07
3.32447e-07
-2.29408e-07
3.44825e-07
-1.78972e-07
3.48689e-07
-1.62657e-07
-1.66923e-07
3.91964e-07
1.83009e-07
-2.41527e-07
-1.47388e-07
2.11343e-07
-2.58656e-07
2.90775e-07
-3.42047e-07
3.01741e-07
-3.7811e-07
2.85673e-07
-3.46496e-07
2.80394e-07
-3.04875e-07
3.08998e-07
-2.5868e-07
3.46524e-07
-2.17165e-07
3.71239e-07
-1.88038e-07
-1.93323e-07
3.96996e-07
2.03901e-07
-2.85656e-07
-1.61622e-07
2.69156e-07
-3.31533e-07
2.90584e-07
-3.73206e-07
2.749e-07
-3.58783e-07
2.71499e-07
-3.44018e-07
2.86473e-07
-3.20579e-07
3.1879e-07
-2.91539e-07
3.62302e-07
-2.61343e-07
4.14435e-07
-2.41453e-07
-2.39694e-07
4.55453e-07
2.21308e-07
-3.75754e-07
-2.064e-07
2.56661e-07
-3.81589e-07
2.63612e-07
-3.88269e-07
2.66111e-07
-3.93029e-07
2.91626e-07
-3.71732e-07
3.25709e-07
-3.55811e-07
3.69776e-07
-3.36802e-07
3.90078e-07
-2.9944e-07
4.29504e-07
-2.7473e-07
-2.71006e-07
4.65449e-07
2.0959e-07
-3.75229e-07
-2.11776e-07
2.23482e-07
-3.96341e-07
2.63618e-07
-4.36422e-07
2.94666e-07
-4.52942e-07
3.16552e-07
-4.3584e-07
3.49262e-07
-4.14971e-07
3.58304e-07
-3.51408e-07
3.53069e-07
-2.97793e-07
3.72633e-07
-2.74089e-07
-2.84563e-07
4.04817e-07
1.96538e-07
-3.82484e-07
-1.89545e-07
2.46097e-07
-4.46038e-07
2.92076e-07
-4.82259e-07
3.18525e-07
-4.79369e-07
3.23771e-07
-4.4131e-07
2.97669e-07
-3.83522e-07
2.29858e-07
-2.71543e-07
1.87201e-07
-2.25282e-07
1.65855e-07
-2.60892e-07
-2.82245e-07
1.64205e-07
2.09292e-07
-4.32049e-07
-1.57681e-07
2.65467e-07
-5.0194e-07
2.93066e-07
-5.09735e-07
2.9013e-07
-4.7623e-07
2.15507e-07
-3.39689e-07
6.78607e-08
-1.28433e-07
-7.57687e-09
-1.1142e-07
-2.76784e-08
-2.15428e-07
-2.15237e-08
-2.99055e-07
-3.06465e-07
-1.26299e-08
2.11957e-07
-4.88346e-07
-1.55943e-07
2.3082e-07
-5.20537e-07
2.22376e-07
-5.01018e-07
1.22054e-07
-3.61361e-07
-8.90182e-09
-1.06256e-07
-7.64367e-08
-6.05945e-08
-1.11092e-07
-1.18923e-07
-1.11775e-07
-3.04007e-07
-8.45946e-08
-3.26234e-07
-3.27488e-07
-6.357e-08
1.72315e-07
-5.07737e-07
-1.52812e-07
1.54811e-07
-5.02845e-07
8.76858e-08
-4.33628e-07
-2.95793e-08
-1.58094e-07
-9.39584e-08
-4.21905e-08
-1.11767e-07
-4.32503e-08
-1.39488e-07
-2.11909e-07
-1.1514e-07
-3.28354e-07
-1.03002e-07
-3.38371e-07
-3.37788e-07
-9.27005e-08
1.05729e-07
-4.98123e-07
-1.15241e-07
7.05454e-08
-4.6755e-07
-6.25372e-09
-3.37628e-07
-4.54932e-08
-7.38549e-08
-6.0424e-08
-2.76347e-08
-5.9173e-08
-4.78334e-08
-1.13459e-07
-2.00905e-07
-1.1655e-07
-3.25261e-07
-1.19905e-07
-3.35014e-07
-3.30702e-07
-1.26982e-07
2.17272e-08
-4.70904e-07
-4.88552e-08
-2.47586e-08
-4.15725e-07
-6.11483e-08
-2.11685e-07
-5.94024e-08
-5.18029e-08
-5.47582e-08
-3.25932e-08
-5.08224e-08
-5.21443e-08
-1.26043e-07
-1.61429e-07
-1.39228e-07
-3.12074e-07
-1.49764e-07
-3.24475e-07
-3.20989e-07
-1.59443e-07
-9.16394e-08
-4.37931e-07
5.90522e-08
-1.33591e-07
-3.42392e-07
-9.61667e-08
-1.20748e-07
-9.27282e-08
-5.54846e-08
-7.52259e-08
-5.03163e-08
-6.36246e-08
-6.40599e-08
-1.58944e-07
-1.45458e-07
-1.82362e-07
-2.88653e-07
-2.04495e-07
-3.02342e-07
-2.9635e-07
-2.29025e-07
-2.22269e-07
-3.96829e-07
1.82294e-07
-2.08727e-07
-2.99927e-07
-1.3085e-07
-9.48408e-08
-1.17261e-07
-6.93055e-08
-9.71557e-08
-7.06652e-08
-8.63915e-08
-7.54239e-08
-1.98116e-07
-1.89159e-07
-2.21717e-07
-2.65054e-07
-2.46559e-07
-2.77557e-07
-2.72811e-07
-2.64233e-07
-3.13613e-07
-3.71261e-07
2.91323e-07
-2.73618e-07
-3.04612e-07
-1.43704e-07
-1.32975e-07
-1.26712e-07
-8.65403e-08
-1.02208e-07
-9.57689e-08
-1.34258e-07
-1.0084e-07
-2.06882e-07
-2.20922e-07
-2.2445e-07
-2.47542e-07
-2.49473e-07
-2.52811e-07
-2.50008e-07
-2.71766e-07
-3.82684e-07
-3.37369e-07
3.53762e-07
-3.61346e-07
-3.21075e-07
-1.9009e-07
-2.40135e-07
-1.4707e-07
-1.29976e-07
-1.33338e-07
-1.11907e-07
-2.13575e-07
-1.71657e-07
-2.15848e-07
-2.19104e-07
-2.26616e-07
-2.37052e-07
-2.44471e-07
-2.35411e-07
-2.31173e-07
-2.63587e-07
-4.35467e-07
-3.04164e-07
4.07137e-07
-3.9926e-07
-3.52496e-07
-3.0445e-07
-3.29229e-07
-1.65725e-07
-2.50852e-07
-1.38339e-07
-1.72829e-07
-2.07197e-07
-2.07067e-07
-1.99691e-07
-2.26955e-07
-2.03196e-07
-2.34002e-07
-2.22709e-07
-2.16155e-07
-2.15727e-07
-2.37857e-07
-4.1278e-07
-7.20176e-08
2.29115e-07
-4.50427e-07
-2.94612e-07
-4.006e-07
-3.89926e-07
-2.98282e-07
-3.78556e-07
-2.27315e-07
-3.33068e-07
-1.7386e-07
-3.12203e-07
-1.17273e-07
-2.76427e-07
-7.4201e-08
-2.44749e-07
-9.09661e-08
-1.69194e-07
-1.80897e-07
-1.17833e-07
-4.273e-08
1.79657e-09
-1.19943e-08
-2.06089e-07
-1.50661e-08
-3.54792e-07
-1.26656e-07
-2.94893e-07
-4.38538e-07
-1.75767e-07
-4.52257e-07
-8.34926e-08
-4.04614e-07
-1.38425e-08
-3.76259e-07
4.23715e-08
-3.29294e-07
8.76405e-08
-2.185e-07
-1.84516e-07
8.98156e-08
1.72442e-08
4.00359e-09
-2.47473e-08
6.14937e-09
7.75315e-12
-5.15738e-08
-6.07239e-09
-9.65943e-08
-2.9059e-07
-8.53751e-08
-4.63613e-07
-4.72394e-08
-4.42913e-07
-1.16004e-09
-4.22336e-07
5.33347e-08
-4.05491e-07
1.08137e-07
-3.36957e-07
-2.39995e-07
1.54984e-07
1.41566e-08
-9.52071e-11
-6.2656e-10
1.64956e-08
1.91411e-09
1.18e-08
-1.06638e-09
6.02894e-08
-2.44394e-07
2.92402e-08
-4.3167e-07
1.61574e-08
-4.2981e-07
2.37515e-08
-4.29928e-07
4.41713e-08
-4.25908e-07
8.43137e-08
-3.56218e-07
-7.95751e-08
7.86203e-08
2.95459e-12
2.50697e-11
-1.40954e-10
0
1.45367e-09
1.48836e-08
-1.63093e-08
9.99278e-08
-2.74896e-07
7.80548e-08
-4.0803e-07
5.34263e-08
-4.0518e-07
2.97694e-08
-4.06269e-07
1.13721e-08
-4.07352e-07
3.17719e-09
-2.38628e-07
-2.39516e-10
5.65748e-09
-2.23631e-11
5.09523e-11
-2.16136e-11
1.34159e-09
7.19918e-11
7.13244e-08
-7.59273e-08
1.35604e-07
-3.36833e-07
8.99465e-08
-3.62379e-07
5.51012e-08
-3.70334e-07
1.80599e-08
-3.69226e-07
-2.29351e-08
-3.63381e-07
-4.45484e-10
-1.73928e-07
-6.85299e-10
-5.17916e-13
-1.16664e-10
1.4979e-10
1.03246e-13
2.57763e-08
-2.5833e-08
1.52979e-07
-2.07322e-07
1.20519e-07
-3.04941e-07
7.22566e-08
-3.14118e-07
1.91698e-08
-3.17247e-07
-2.49598e-08
-3.25108e-07
-6.26972e-08
-3.21075e-07
-5.6573e-09
-1.7076e-07
-6.34226e-09