/*--------------------------------*- C++ -*----------------------------------*\
  =========                 |
  \\      /  F ield         | OpenFOAM: The Open Source CFD Toolbox
   \\    /   O peration     | Website:  https://openfoam.org
    \\  /    A nd           | Version:  8
     \\/     M anipulation  |
\*---------------------------------------------------------------------------*/
FoamFile
{
    version     2.0;
    format      ascii;
    class       volScalarField;
    location    "8.9";
    object      p_rgh;
}
// * * * * * * * * * * * * * * * * * * * * * * * * * * * * * * * * * * * * * //

dimensions      [1 -1 -2 0 0 0 0];

internalField   nonuniform List<scalar> 
9150
(
1963.98
1962.97
1962.34
1961.88
1961.65
1961.64
1961.87
1962.34
1962.97
1963.98
1963.54
1963.03
1962.6
1962.27
1962.1
1962.12
1962.29
1962.61
1963.03
1963.54
1963.27
1962.99
1962.74
1962.52
1962.41
1962.4
1962.51
1962.73
1962.99
1963.27
1963.15
1962.98
1962.81
1962.66
1962.57
1962.57
1962.65
1962.81
1962.98
1963.15
1963.15
1962.97
1962.84
1962.71
1962.65
1962.65
1962.7
1962.83
1962.97
1963.15
1952.15
1951.42
1951.77
1952.11
1952.28
1952.26
1952.05
1951.62
1951.29
1952.04
1956.29
1955.57
1955.45
1955.36
1955.45
1955.43
1955.31
1955.38
1955.5
1956.2
1959.41
1958.65
1958.36
1958
1957.91
1957.89
1957.94
1958.32
1958.62
1959.38
1962.14
1960.97
1960.5
1959.88
1959.71
1959.69
1959.88
1960.49
1960.96
1962.13
1964.65
1962.61
1961.84
1961.16
1960.89
1960.88
1961.18
1961.85
1962.62
1964.65
1949.18
1947.16
1944.89
1943.39
1942.35
1941.91
1942.32
1943.2
1944.92
1945.67
1947.78
1947.19
1945.77
1945.22
1944.56
1944.25
1944.74
1944.9
1945.52
1945.68
1946.76
1946.82
1945.64
1945.85
1945.37
1944.92
1945.53
1944.76
1945.76
1945.45
1943.32
1946.06
1945.23
1946.39
1946.38
1946.1
1946.33
1944.43
1945.62
1942.53
1937.52
1946.7
1947.31
1948.43
1948.9
1948.84
1948.41
1946.9
1946.38
1936.92
1744.83
1745.06
1745.16
1745.08
1745.1
1745.08
1744.98
1744.94
1744.7
1744.69
1744.52
1744.78
1744.87
1744.94
1745.16
1745.15
1744.89
1744.85
1744.63
1744.63
1744.51
1744.69
1744.93
1745.08
1745.61
1745.42
1745.09
1745.03
1744.84
1744.78
1744.62
1744.73
1745.02
1745.19
1745.88
1745.41
1745.2
1744.98
1745
1744.78
1744.66
1744.78
1745.09
1745.42
1746.13
1745.63
1745.46
1745.31
1745.46
1745.15
1744.52
1744.88
1745.27
1746.26
1746.54
1745.84
1745.77
1746.03
1746.06
1745.65
1744.42
1744.95
1745.63
1746.28
1746.1
1745.81
1745.97
1746.55
1746.46
1745.93
1744.44
1745.06
1745.99
1746.18
1745.47
1745.62
1746.21
1746.65
1746.64
1746.23
1744.88
1745.81
1746.08
1745.69
1745.34
1745.49
1746.68
1746.75
1746.78
1746.54
1745.85
1746.07
1745.92
1745.03
1745.22
1745.65
1746.77
1746.9
1746.88
1746.57
1746.27
1745.64
1745.03
1745.14
1745.21
1746.12
1746.91
1747.04
1746.62
1746.71
1745.08
1745.19
1745.21
1745.29
1745.39
1746.77
1746.98
1747.07
1747.01
1746.75
1745.88
1746.59
1746.18
1746.33
1746.61
1746.83
1746.88
1746.96
1747.04
1746.79
1746.65
1746.71
1746.69
1746.64
1746.62
1746.61
1746.65
1746.75
1746.84
1746.93
1746.02
1746.04
1746.02
1746.05
1746.1
1745.98
1746
1746.11
1746.52
1746.65
1745.36
1745.32
1745.16
1745.31
1745.4
1745.59
1745.8
1745.38
1745.54
1745.65
1744.8
1744.78
1742.63
1741.51
1743.37
1745.1
1745.31
1745.52
1745.76
1745.88
1744.25
1744.21
1741.12
1737.52
1737.47
1739.25
1741.63
1741.9
1743.41
1744.18
1743.3
1743.22
1743.15
1741.18
1735.7
1734.73
1734.89
1735.18
1735.39
1737.07
1742.16
1742.09
1742.05
1742.09
1742.17
1735.42
1733.75
1734.25
1734.71
1735.42
1740.86
1740.9
1741
1741.11
1741.23
1738.29
1732.48
1733.2
1733.84
1735.21
1739.46
1737.93
1739.91
1740.35
1740.53
1740.61
1733.73
1732.44
1737.44
1742.08
1739.32
1729.12
1725.68
1739.57
1739.86
1739.99
1737.82
1735.64
1739.44
1739.89
1739.51
1719.42
1710.28
1723.53
1739.29
1739.29
1735.88
1733.69
1737.15
1737.27
1739.41
1721.35
1706.65
1706.47
1706.19
1731.19
1736.01
1735.19
1736.12
1732.59
1730.91
1728.64
1729.83
1730.11
1704.16
1692.63
1692.3
1713.05
1712.59
1700.82
1658.36
1660.86
1700.11
1719.22
1723.8
1724.27
1705.45
1707.47
1699.32
1695.34
1644.59
1643.07
1641.83
1642.32
1692.33
1717.18
1738.86
1742.51
1743.29
1738.76
1673.18
1642.97
1642.4
1641.89
1641.89
1642.31
1662.18
1736.99
1745.1
1745.99
1745.45
1689.27
1642.69
1642.6
1642.75
1642.88
1643.05
1668.97
1744.37
1748.81
1748.07
1749.52
1739.01
1647.49
1642.79
1643.3
1643.78
1644.08
1722.67
1752.26
1751.05
1752.48
1753.47
1734.24
1643.86
1643.44
1643.89
1644.36
1708.58
1755.7
1741.59
1756.11
1757.12
1750.34
1648.91
1643.27
1643.75
1644.36
1730.91
1758.61
1723.68
1759.26
1760.76
1741.09
1644.04
1643.84
1644.05
1690.87
1761.1
1761.49
1756.31
1761.47
1762.24
1709.24
1646.72
1645.91
1709.76
1764.19
1764.45
1763.78
1761.3
1762.48
1762.12
1689.81
1684.97
1738.64
1766.09
1766.58
1766.32
1742.8
1754.27
1739.26
1730.73
1720.26
1730.36
1754.42
1742.47
1738.32
1736.47
1739.41
1756.71
1744.52
1744.31
1745.5
1735.72
1733.59
1733.74
1733.83
1736.55
1761.96
1760.39
1760.04
1746.23
1732.64
1733.17
1733.27
1750.1
1768.72
1768.55
1765.38
1739.46
1740.42
1741.38
1743.32
1768.54
1769.08
1769
1768.61
1759.38
1703.94
1765.24
1764.32
1763.35
1767.1
1768.14
1768.34
1767.89
1740.77
1685.47
1685.9
1765.04
1765.74
1766.38
1767.04
1767.59
1768.02
1766.65
1711.8
1686.42
1685.93
1764.62
1765.23
1765.92
1766.72
1767.65
1763.31
1758.14
1756.85
1757.4
1738.15
1763.38
1764.05
1764.87
1766.43
1767.7
1768.63
1757.87
1743.14
1745.31
1760.19
1765.51
1766.2
1766.93
1767.74
1768.57
1769.28
1769.8
1770
1769.75
1768.9
1764.78
1768.13
1768.38
1768.7
1769
1768.66
1744.34
1760.17
1759.87
1708.77
1770.06
1770.33
1769.11
1732.45
1756.48
1717.82
1721.5
1738.43
1736.94
1686.16
1772.4
1758.58
1715.42
1687.01
1687.77
1686.9
1729.2
1711.31
1713.93
1754.14
1761.31
1687.5
1688.04
1704.39
1736.88
1737.01
1732.34
1698.91
1699.08
1699.61
1688.06
1695.51
1754.93
1749.46
1727.35
1727.05
1757.62
1777.1
1729.56
1701.07
1731.53
1771.48
1748.37
1727.91
1738.83
1774.04
1774.54
1775.17
1775.75
1776.43
1774.69
1770.52
1735.49
1726.08
1769.92
1771.14
1772.12
1773.22
1774.27
1775.31
1774.88
1771.24
1732.82
1724.51
1741.06
1765.37
1771.48
1772.47
1773.62
1774.67
1775.71
1775.17
1762.62
1750.85
1754.36
1768.19
1773.13
1773.68
1774.4
1774.93
1778.61
1778.76
1778.08
1777.34
1776.84
1776.47
1776.24
1776.19
1776.35
1776.27
1783.33
1782.84
1782.31
1781.71
1781.2
1780.72
1780.3
1779.86
1779.38
1774.76
1786.99
1786.38
1785.76
1785.18
1784.64
1784.15
1783.61
1783.2
1782.85
1741.89
1790.87
1789.79
1788.74
1787.96
1787.38
1786.97
1786.52
1786.03
1781.77
1737.81
1794.01
1792.44
1791.03
1790.16
1789.71
1789.56
1789.42
1786.48
1772.68
1747.61
1796.41
1794.08
1792.07
1791.24
1790.99
1791.08
1791.6
1776.38
1775.04
1788.96
1776.65
1735.27
1662.21
1678.15
1713.19
1697.58
1716.3
1786.68
1786.57
1788.44
1738.08
1558.27
1543.49
1541.18
1530.99
1470.39
1472.06
1713.46
1787.66
1786.07
1771.01
1644
1606.82
1661.32
1599.26
1454.7
1455.42
1463.09
1659.43
1720.36
1758.67
1746.66
1759.96
1756.47
1752.01
1543.46
1445.98
1449.5
1449.91
1454.08
1646.78
1653.59
1761.73
1758.73
1754.9
1599.26
1447.88
1451.89
1454.78
1456.79
1641.52
1636.99
1679.92
1761.57
1759.74
1760.73
1578
1456.09
1458.66
1460.46
1765.37
1634.35
1617.99
1689.71
1762.27
1764.99
1769.06
1753.46
1497.27
1460.11
1783.36
1776.33
1609.91
1595.93
1620.74
1762.16
1765.84
1765.92
1699.46
1602.3
1779.97
1788.12
1783.78
1602.5
1565.91
1565.45
1581.56
1734.15
1585.03
1579.76
1783.75
1786.93
1789.3
1780.09
1595.09
1567.01
1568.08
1609.41
1764.83
1681.61
1782.66
1786.68
1789.98
1792.19
1782.82
1659.51
1663.44
1791.15
1789.83
1784.59
1782.2
1787.19
1791.71
1795.01
1795.89
1793.57
1790.76
1789.22
1786.86
1715.9
1781.66
1770.65
1783.22
1796.12
1798.29
1797.16
1793.36
1789.88
1788.62
1725.49
1649.46
1654.94
1763.06
1792.28
1795.66
1796.32
1793.79
1790.89
1789.06
1787.14
1339.5
1530.8
1760.72
1786.71
1788.8
1788.92
1779.96
1722.21
1732.1
1780.48
1310.01
1326.47
1684.09
1781.9
1783.73
1776.43
1661.13
1631.84
1630.9
1692.87
1304.29
1304.35
1600.86
1776.62
1769.56
1635.22
1625.68
1625.05
1623.47
1622.01
1300.3
1427.6
1722
1761.6
1637.14
1622.14
1620.02
1617.69
1615.68
1628.33
1543.89
1758.39
1780.85
1676.29
1622.44
1616.58
1615.17
1643.93
1686.36
1682.94
1784.98
1784.09
1776.9
1755.21
1682.56
1659.52
1717.78
1705.18
1649.34
1649.51
1776.55
1781.36
1777.48
1773.59
1769.2
1759.08
1723.85
1611.01
1592.67
1620.06
1771.33
1779.7
1773.82
1768.36
1727.91
1450.33
1218.86
1345.45
1626.77
1729.3
1784.87
1783.16
1776.33
1755.76
1153.6
889.978
1012.07
1666.72
1759.5
1755.32
1795.34
1788.2
1779.79
1311.22
867.833
868.289
1401.11
1766.99
1763.88
1760.26
1802.09
1793.69
1742.45
967.212
860.449
861.788
1521.09
1774.77
1771.22
1767.18
1809.66
1791.13
1495.55
853.817
855.831
856.794
1259.53
1783.35
1780.05
1776.05
1817.06
1762.09
1129.34
854.672
856.035
857.09
1150.99
1793.82
1791.27
1787.39
1823
1721.45
963.688
857.617
857.719
858.413
1342.49
1805.18
1803.19
1795.56
1826.76
1765.07
1051.92
859.206
860.07
918.833
1709.06
1815.06
1813.84
1811.5
1828.79
1823.45
1479.13
862.24
868.113
1312.67
1822.44
1823.08
1822.85
1822.51
1818.31
1805.51
1792.2
1288.41
911.653
1594.53
1829.03
1830.62
1830.25
1829.21
1469.93
1738.31
1771.8
1791.81
1686.64
1616.93
1815.02
1715.13
1670.73
1793.89
259.475
726.171
1370.11
1821.43
1838.56
1847.11
1674.27
1589.49
1499.52
1501.88
135.848
58.3927
107.211
1562.37
1842.85
1849.05
1851.57
1839.29
1678.12
1375.62
43.656
57.3745
20.6133
1023.74
1850.96
1857.56
1858.61
1857.08
1800.24
1169.08
0.63723
11.5465
13.2007
1019.32
1867.58
1871.68
1871.63
1869.23
1325.61
48.8334
0.583424
0.601866
108.328
1585
1889.88
1890.89
1890.16
1878.58
934.927
-0.0189261
0.521955
0.76274
977.659
1905.27
1910.14
1910.06
1909.45
1896.02
862.951
-0.00993768
0.664698
422.036
1759.69
1926.43
1926.28
1926.01
1925.93
1925.05
1412.08
1.95153
307.131
1689.21
1939.52
1937.59
1936.69
1936.61
1937.18
1938.57
1933.8
933.125
1744.64
1744.57
1744.5
1744.47
1744.5
1744.61
1744.77
1744.97
1745.15
1745.31
1745.38
1745.34
1745.25
1745.04
1744.74
1744.57
1744.3
1744.01
1743.88
1743.71
1743.71
1743.65
1743.5
1743.63
1743.62
1743.6
1743.68
1743.82
1744.02
1744.22
1744.39
1744.56
1744.72
1744.88
1744.94
1744.98
1745.04
1745.07
1745.14
1745.17
1744.49
1744.33
1744.19
1744.13
1744.22
1744.41
1744.64
1744.93
1745.39
1745.46
1745.39
1745.39
1745.32
1745.29
1744.83
1744.54
1744.33
1743.97
1743.6
1743.55
1743.57
1743.47
1743.25
1743.11
1743.15
1743.16
1743.32
1743.65
1743.91
1744.09
1744.27
1744.43
1744.54
1744.83
1744.89
1744.96
1745.04
1745.08
1745.13
1745.13
1744.54
1744.27
1744.03
1743.86
1743.97
1744.24
1744.3
1744.67
1745.37
1746.25
1746.08
1746.33
1745.95
1745.49
1744.86
1744.37
1743.95
1743.43
1743.43
1743.6
1744.06
1742.85
1742.24
1742.45
1742.27
1743.56
1743.71
1743.79
1743.97
1744.1
1744.24
1744.11
1744.32
1744.63
1744.94
1745.11
1745.17
1745.21
1745.23
1745.27
1744.28
1743.66
1742.96
1742.61
1742.69
1743.7
1744.45
1745.11
1745.89
1745.85
1746
1745.63
1745.34
1744.68
1743.76
1743.11
1743.17
1743.6
1742.42
1741.8
1742.13
1741.85
1741.42
1741.85
1744.32
1744.25
1744.06
1744
1744.15
1744.2
1744.32
1744.41
1744.5
1744.73
1744.99
1745.08
1745.16
1745.24
1745.31
1745.37
1744.19
1743.27
1742.23
1741.59
1741.49
1741.31
1741.89
1743.75
1744.18
1744.65
1744.9
1744.94
1744.46
1743.82
1743.2
1739.56
1738.9
1739.68
1740.31
1745.39
1745.55
1745.07
1742.22
1741.86
1742.13
1741.88
1742.66
1742.6
1742.86
1742.57
1743.12
1742.5
1742.91
1744.75
1744.52
1744.15
1744.66
1745.35
1745.41
1745.45
1744.82
1743.89
1741.94
1734.72
1734.13
1740.97
1742.78
1742.78
1742.66
1742.89
1743.1
1743.21
1743.28
1743.34
1743.16
1741.7
1739.38
1742.04
1743.58
1744.05
1744.33
1744.51
1744.71
1743.42
1742.69
1744.04
1744.2
1744.18
1741.54
1740.95
1741.59
1741.99
1742.33
1742.82
1743.02
1743.06
1744
1745.92
1746.01
1746
1745.44
1743.92
1733.79
1732.31
1730.87
1737.96
1742.75
1742.4
1741.46
1740.81
1740.92
1741.39
1741.67
1742.12
1740.45
1737.78
1740.39
1741.38
1742
1742.7
1743.16
1743.53
1743.78
1743.78
1743.62
1743.49
1743.37
1743.3
1743.69
1743.57
1743.36
1744.16
1745.22
1746.24
1745.96
1745.9
1746.45
1746.18
1745.98
1745.76
1745.66
1745.03
1734.77
1730.33
1728.54
1726.61
1735.73
1741.97
1729.52
1726.51
1736.74
1739.19
1740.22
1740.99
1735.98
1732.12
1731
1740.23
1741.22
1741.5
1742.04
1742.54
1742.96
1743.2
1743.28
1743.17
1741.03
1739.42
1740.72
1742.89
1741.06
1743.16
1745.93
1746.16
1746.41
1746.92
1746.75
1746.39
1745.91
1745.82
1745.68
1745.33
1744.05
1732.92
1727.21
1725.75
1724.47
1723.94
1722.81
1721.59
1721.71
1737.35
1740.29
1741.34
1740.71
1730.61
1728.97
1728.02
1727.9
1736.34
1741.48
1741.4
1742.46
1742.96
1743.3
1743.23
1739.48
1739.36
1739.82
1740.35
1741.04
1741.5
1741.81
1742.53
1745.78
1747.07
1744.19
1742.99
1742.98
1743.91
1746.12
1746.22
1746.66
1745.98
1735.8
1725.69
1724.06
1723.19
1722.32
1721.67
1720.97
1730.89
1741.9
1742.54
1743.02
1741.68
1729.27
1728.42
1727.85
1727.55
1727.41
1733.16
1742.68
1743.1
1743.52
1743.96
1744.53
1741.73
1739.76
1740.28
1740.79
1744.52
1746.94
1747.37
1747.54
1745.7
1742.81
1742.36
1742.38
1742.29
1747.02
1747.33
1747.3
1747.14
1746.68
1741.63
1727.78
1722.5
1721.86
1721.49
1721.21
1740.49
1743.38
1743.43
1743.43
1743.68
1743.92
1734.6
1727.44
1727.42
1727.26
1727.2
1727.19
1738.12
1743.76
1743.95
1744.48
1744.95
1745.31
1745.36
1746.1
1746.47
1746.79
1747.01
1747.49
1747.73
1747.92
1745.05
1743.43
1742.06
1746.76
1747.37
1747.38
1747.34
1747.23
1746.92
1744.24
1732.26
1721.72
1721.33
1729.6
1743.61
1743.46
1743.26
1743.13
1743.03
1743.12
1743.6
1744.37
1741.22
1727.86
1727.04
1727.09
1727.07
1733.5
1744.07
1743.71
1744.59
1744.88
1745.15
1745.49
1745.74
1745.16
1745.52
1746.42
1747.32
1747.67
1748.02
1748.14
1746.43
1746.65
1746.75
1747.25
1747.27
1747.18
1746.92
1746.3
1744.18
1736.73
1730.52
1737.63
1743.22
1742.78
1742.45
1742.28
1742.36
1742.94
1743.6
1744.21
1744.77
1745.13
1745.31
1741.21
1730.57
1730.96
1736.2
1741.52
1742.87
1744.58
1744.75
1744.93
1744.75
1744.4
1744.72
1745.08
1745.76
1747.16
1747.59
1747.86
1748.03
1746.41
1746.47
1746.71
1747.08
1747.07
1746.9
1746.44
1745.32
1744.64
1743.27
1738.71
1739.6
1741.11
1743.57
1743.32
1740.48
1740.29
1741.1
1744.02
1744.73
1745.25
1745.37
1745.26
1745.28
1745.2
1745.16
1741.85
1741.97
1743.04
1744.7
1744.67
1744.75
1744.69
1744.09
1744.35
1744.81
1746.36
1747.14
1747.64
1748.1
1746.74
1746.41
1746.35
1746.64
1747.08
1747.08
1746.98
1746.75
1746.48
1745.71
1741.28
1740.72
1740.49
1740.29
1741.71
1741.38
1741.18
1741.31
1741.51
1741.75
1742.09
1745.36
1745.97
1745.93
1745.66
1745.41
1745.17
1745.01
1744.95
1744.76
1744.39
1744.21
1744.71
1744.96
1744.95
1744.88
1745.64
1746.56
1747.22
1747.68
1745.79
1745.96
1746.11
1746.77
1747.14
1747.29
1747.36
1747.26
1746.81
1746.68
1746.61
1744.38
1741.48
1741.3
1743.97
1745.57
1745.48
1745.74
1744.28
1741.93
1742.09
1742.16
1743.47
1746.18
1746.12
1745.87
1745.56
1745.32
1745.24
1745.14
1744.59
1744.57
1744.92
1745.3
1745.38
1744.3
1744.33
1746.17
1746.88
1747.24
1746.03
1745.74
1746.58
1747.04
1747.31
1747.49
1747.49
1747.26
1747.18
1747.41
1747.23
1746.93
1745.94
1745.74
1746.19
1746.24
1746.19
1746.19
1746.22
1746.34
1743.77
1742.31
1742.47
1743.59
1746.29
1746.1
1745.84
1745.63
1745.52
1745.42
1745.37
1745.12
1745.98
1746.34
1745.44
1736.73
1737.3
1744.97
1747.58
1747.92
1744.62
1745.4
1746.29
1746.67
1744.33
1746.32
1748.1
1748.1
1747.94
1747.7
1747.42
1747.14
1746.88
1746.66
1746.53
1746.46
1746.43
1746.44
1746.47
1746.52
1746.59
1744.24
1742.48
1742.45
1745.39
1746.43
1746.29
1746.06
1746.05
1746.23
1746.48
1746.66
1747.03
1747.54
1740.31
1734.9
1735.25
1737.17
1747.83
1749.45
1738.98
1741.3
1742.1
1741.97
1742.98
1743.15
1747.48
1748.79
1748.38
1747.94
1747.58
1747.27
1747.03
1746.87
1746.77
1746.7
1746.7
1746.71
1746.67
1746.62
1746.54
1746.48
1744.29
1743.31
1746.12
1746.78
1746.94
1747.03
1747.31
1747.57
1747.44
1746.23
1747.42
1749.44
1738.39
1735.39
1735.78
1736.09
1746.53
1751.19
1736.5
1737.91
1744.6
1746.54
1746.91
1748.55
1749.2
1748.7
1747.8
1745.68
1745.93
1747.03
1746.95
1746.78
1746.7
1746.7
1746.72
1746.73
1746.69
1746.58
1746.4
1746.19
1746.07
1746.13
1746.6
1747.11
1747.5
1747.86
1748.27
1748.5
1748.68
1734.83
1735.25
1750.16
1744.99
1736.17
1736.52
1736.81
1747.21
1752.79
1743.83
1745.34
1746.41
1747.32
1747.72
1748.19
1748.06
1748.39
1747.77
1741.71
1739.68
1739.25
1738.79
1738.1
1738.04
1740.16
1746.5
1746.87
1746.66
1746.73
1746.47
1746.09
1745.66
1745.86
1745.78
1744.83
1747.61
1748.59
1749.13
1749.58
1737.99
1731.51
1732.17
1737.88
1746.88
1742.06
1737.25
1737.45
1749.06
1754.25
1742.86
1743.77
1744.66
1745.55
1746.33
1743.43
1739.13
1740.28
1744.08
1746.5
1745.83
1745.35
1740.8
1737.26
1737.53
1737.87
1738.24
1738.55
1743.77
1747.35
1747.05
1746.68
1746.34
1745.93
1740.83
1741.73
1743.82
1749.6
1746.23
1731.25
1730.78
1731.5
1732.15
1732.78
1745.62
1750.33
1738.07
1738.39
1752.22
1755.41
1740.54
1741.2
1741.79
1742.47
1743.42
1736.66
1733.99
1735.02
1737.51
1744.51
1744.3
1744.18
1741.41
1736.27
1736.87
1737.53
1738.12
1738.73
1747.01
1747.91
1747.76
1747.54
1747.34
1747.47
1744.02
1745.35
1743.87
1730.86
1730.16
1730.46
1731.06
1731.78
1732.48
1733.11
1742.51
1753.81
1739.89
1739.81
1753.41
1756.39
1737.74
1738.33
1738.69
1738.9
1739.32
1737.07
1730.56
1735.56
1737.76
1739.56
1742.96
1743.27
1738.42
1735.42
1736.18
1742.16
1745.48
1748.01
1748.54
1748.56
1748.53
1748.58
1748.67
1748.93
1749.44
1750.07
1748.91
1748.28
1737.25
1730.16
1730.83
1731.68
1732.38
1732.88
1743.22
1754.22
1740.43
1743.87
1756.36
1757.17
1726.41
1727.43
1723.18
1713.85
1711.94
1725.26
1737.32
1738.25
1715.6
1722.97
1738.44
1742.24
1742.54
1743.35
1745.03
1746.41
1747.23
1746.83
1747
1748.69
1749.03
1749.21
1749.38
1749.66
1750.09
1750.49
1750.91
1751.33
1751.93
1746.81
1730.25
1731.11
1731.85
1732.48
1748.07
1754.44
1740.54
1743.95
1756.95
1757.95
1691.25
1691
1690.84
1690.43
1690
1689.54
1732.69
1738.73
1670.07
1704.01
1741.64
1741.13
1733.79
1734.38
1737.79
1742
1741.52
1741.93
1744.26
1748.84
1749.28
1748.78
1749.32
1749.67
1749.94
1748.67
1749.69
1751.14
1751.83
1752.69
1737.55
1730.97
1731.7
1739.45
1756.27
1753.73
1741.21
1749.59
1758.02
1758.04
1693.1
1697.99
1724.2
1709.57
1690.21
1688.83
1715.13
1736.37
1641.17
1692.66
1741.9
1734.26
1732.04
1736.38
1746.13
1746.07
1746.26
1746.61
1747.89
1748.9
1749
1748.08
1740.48
1744.06
1749.14
1747.89
1747.78
1750.79
1751.83
1752.74
1751.46
1733.07
1738.29
1755.15
1756.28
1745.56
1743.13
1756.31
1757.85
1757.92
1726.52
1742.33
1746.45
1746.48
1693.04
1692.86
1737.75
1706.65
1624.61
1622.66
1698.89
1743.64
1744.24
1744.69
1745.29
1745.7
1745.97
1746.69
1747.45
1747.92
1748.27
1748.44
1732.16
1724.36
1738.47
1747.6
1746.18
1748.89
1751.64
1752.74
1753.68
1752.2
1755.04
1756.17
1746.68
1744.7
1754.75
1757.78
1757.86
1757.88
1746.77
1747.62
1748.24
1731.89
1710.82
1743.62
1749.81
1700.06
1620.28
1619.11
1616.73
1669.05
1745.73
1741.84
1743.47
1740.25
1734.45
1741.2
1745.1
1746.79
1748.04
1748.87
1737.93
1723.33
1723.56
1725.23
1744.73
1747.84
1751.25
1752.83
1753.74
1754.67
1755.55
1749.72
1744.98
1750.57
1757.73
1757.82
1757.93
1757.93
1749.48
1750.07
1746.27
1720.01
1738.4
1752.14
1752.24
1731.5
1619.89
1619.54
1617.99
1616.34
1614.8
1616.13
1684.5
1662.5
1655.75
1718.9
1744.53
1746.94
1748.62
1749.65
1750.24
1741.85
1722.59
1722.96
1731.16
1748.05
1751.64
1752.65
1753.49
1754.33
1751.09
1748.14
1749.21
1757.32
1757.34
1757.45
1757.99
1758.03
1752.89
1753.38
1748.96
1721.36
1722.12
1752.44
1754.63
1754.91
1712.78
1621.77
1619.91
1620.43
1618.54
1617.4
1616.8
1616.42
1615.6
1707.1
1746.1
1747.07
1748.02
1748.69
1749.12
1749.37
1729.55
1721.52
1732.8
1748.93
1750.73
1751.97
1752.8
1753.11
1746.73
1747.44
1756.4
1756.9
1756.83
1757.4
1757.82
1758.02
1756.08
1756.33
1755.03
1733.85
1723.43
1738.24
1755.43
1756.47
1757.1
1754.67
1736.21
1700.82
1701.52
1686.15
1671.51
1696.43
1747.76
1746.73
1745.28
1745.18
1745.6
1745.49
1746.67
1746.93
1737.65
1721.75
1741.6
1748.48
1749.51
1750.7
1751.7
1752.44
1745.35
1752.51
1754.29
1754.83
1755.22
1755.86
1756.78
1757.53
1758.54
1758.45
1758.35
1758.52
1741.13
1739.55
1747.85
1749.21
1755.7
1760.07
1759.29
1758.24
1756.83
1755.06
1752.92
1750.63
1747.82
1743.66
1729.36
1711.49
1697.81
1714.33
1738.52
1744.18
1744.16
1743.23
1745.79
1746.63
1743.75
1739.87
1738.49
1741.05
1748.74
1750.96
1750.7
1748.52
1746.26
1741.51
1747.52
1753.26
1761.06
1759.7
1752.99
1758.54
1759.94
1759.75
1747.58
1747.42
1747.15
1758.43
1759.04
1757.94
1756.45
1754.6
1752.36
1742.03
1713.74
1676.26
1639.96
1640.1
1640.92
1722.09
1742.8
1742.72
1743.14
1743.79
1744.55
1739.72
1722.2
1723.2
1724
1726.08
1749.39
1748.41
1746.79
1743.4
1701.98
1676.72
1686.89
1706.2
1763.5
1746.61
1744.24
1757.11
1761.54
1761.45
1752.15
1748.83
1752.97
1760.75
1760.06
1758.73
1756.65
1750.76
1706.53
1650.32
1641.51
1639.92
1639.44
1640.49
1722.66
1745.91
1744.98
1744.43
1744.29
1744.51
1734.73
1720.02
1721.33
1722.52
1723.36
1724.39
1749.6
1749.2
1748.35
1748.29
1740.62
1676.63
1677.07
1677.88
1742.14
1741.54
1745.23
1762.65
1763.05
1757.66
1753.83
1755.86
1763.61
1762.97
1762.06
1760.38
1752.6
1676.52
1644.53
1643.41
1642.18
1641.3
1641.3
1728.83
1750.89
1749.56
1748.24
1747.31
1747.01
1743.81
1720.87
1721.7
1722.73
1723.81
1724.84
1739.98
1753.01
1753.31
1753.55
1753.93
1738.6
1678.59
1678.59
1678.5
1756.66
1764.57
1764.11
1763.15
1758.85
1757.13
1758.85
1766.14
1766.08
1765.12
1763.99
1762.3
1728.93
1646.8
1645.78
1644.96
1643.64
1642.42
1671.53
1755.11
1753.78
1752.18
1751.02
1750.08
1749.44
1748.86
1733.91
1723.04
1723.95
1726.51
1748.16
1756.06
1756.51
1756.73
1757.29
1733.77
1710.82
1696.37
1708.48
1715.56
1764.51
1763.6
1754.12
1748.21
1749.15
1761.44
1765.36
1765.69
1765.93
1765.5
1764.87
1764.06
1747.63
1655.12
1646.94
1646.33
1645.18
1643.83
1642.62
1713.68
1755.65
1754.27
1752.28
1751.15
1750.78
1750.69
1749.83
1741.58
1740.75
1752.35
1755.79
1757.96
1759.46
1726.45
1705.76
1700.83
1700.55
1747.4
1747.32
1747.18
1755.01
1715.84
1709
1733.75
1752.57
1752.32
1760.37
1764.33
1762.43
1763.75
1764.96
1765.36
1765.74
1754.81
1664.05
1647.64
1646.5
1646.81
1646.4
1690.63
1751.08
1757.77
1737.59
1648.54
1658.31
1752.85
1752.56
1752.32
1752.66
1731.83
1667.67
1682.95
1742.25
1733.13
1706.93
1705.34
1698.5
1740.83
1746.91
1747.2
1687.93
1688.21
1720.12
1742.01
1731.42
1708.21
1707.59
1706.89
1726.34
1765.09
1766.17
1766.27
1764.31
1765.41
1765.85
1756.35
1745.63
1751.04
1741.49
1720.77
1742.65
1705.71
1570.71
1568.18
1565.26
1569.35
1682.84
1736.06
1696.39
1640.43
1644.09
1645.59
1699.38
1734.63
1674.54
1635.25
1627.67
1647.89
1736.95
1749.23
1686.11
1685.99
1722.53
1742.38
1731.53
1708.41
1708.05
1707.67
1716.28
1756.5
1767.99
1763.19
1759.36
1760.99
1767.64
1768.58
1770.5
1768.58
1766.95
1765.96
1764.8
1755.57
1621.67
1567.25
1563.66
1560.68
1557.72
1555.73
1564.23
1680.96
1724.1
1711.36
1727.99
1728.14
1696.8
1688.88
1627.94
1628.29
1723.81
1751.35
1685.58
1685.21
1685.07
1741.54
1769.57
1769.51
1769.12
1768.55
1768.29
1768.29
1766.85
1762.62
1759.54
1759.61
1764.99
1751.78
1751.62
1750.95
1755.8
1768.19
1767.63
1766.75
1752.81
1606.58
1560.41
1557.32
1554.37
1551.22
1613.09
1703.15
1752.98
1756.24
1757.58
1759.23
1760.58
1761.79
1695.96
1636.52
1749.71
1750.48
1684.96
1692.24
1765.65
1769.38
1769.56
1769.51
1769.26
1769.04
1768.95
1769.08
1769.12
1757.44
1738.78
1717.53
1738.71
1760.32
1761.95
1760.67
1755.32
1761.74
1766.96
1766.53
1766.45
1752.82
1698.71
1567.18
1552.3
1550.11
1547.92
1561.07
1721.18
1757.71
1759.25
1760.34
1761.09
1761.29
1759.91
1720.64
1750.91
1751.92
1766.89
1764.59
1754.74
1765.67
1769.22
1769.76
1769.83
1769.85
1769.92
1769.93
1749.91
1708.51
1706.44
1706.95
1707.12
1724.71
1758.25
1759.01
1757.92
1744.56
1746.67
1760.97
1765.5
1765.63
1765.44
1762.15
1645.78
1550.66
1549.95
1549.92
1550.48
1676.79
1761.58
1761.77
1762.2
1746.88
1704.42
1705.49
1753.61
1753.04
1769.24
1692.59
1677.3
1714.11
1766.65
1770.61
1771
1771.17
1771.37
1769.54
1705.96
1705.63
1707.02
1739.46
1748.95
1741.2
1735.86
1727.76
1723.99
1723.12
1722.95
1736.26
1763.17
1763.6
1763.82
1764.02
1669.72
1649.58
1709.54
1586.79
1549.87
1551.4
1634.18
1759.1
1765.43
1724.62
1704.26
1749.16
1750.44
1750.78
1675.44
1675.89
1676.05
1677.82
1761.95
1772.25
1772.56
1772.68
1772.59
1731.37
1706.3
1706.79
1765.72
1769.62
1768.66
1767.31
1765.66
1763.74
1761.3
1756.81
1752.44
1757.23
1760.53
1761.76
1763.05
1744.73
1719.73
1754.54
1761.44
1732.78
1562.68
1551.58
1553.02
1673.47
1767.53
1742.83
1704.13
1750.45
1699.01
1685.23
1675.63
1676.87
1677.52
1732.91
1774.04
1774.22
1774.62
1774.25
1754.66
1706.48
1706.47
1742.91
1770.92
1770.25
1769.08
1767.3
1764.62
1757.75
1727.35
1660.21
1635.36
1673.26
1716.97
1758.33
1763.7
1757.99
1759.37
1760.49
1761.53
1762.04
1593.94
1552.93
1554.94
1611.19
1760.08
1749.04
1739.91
1754.36
1620.13
1640.74
1755.64
1756.88
1768.54
1767.39
1753.11
1760.82
1748.07
1735.99
1715.54
1706.49
1735.87
1759.36
1764.28
1769.01
1771.25
1769.91
1766.64
1712.59
1455.76
1359.08
1358.92
1360.47
1364.87
1532.53
1733.24
1760.54
1761.92
1756.11
1748.71
1750.44
1646.84
1555.05
1560.03
1703.53
1768.95
1751.75
1769.68
1769.7
1629.79
1739.91
1700.04
1706.13
1770.87
1730.25
1704.2
1703.81
1703.36
1702.91
1702.39
1767.21
1771.91
1763.86
1741.45
1743.57
1774.75
1774.43
1771.64
1605.65
1361.06
1359.15
1358.95
1359.77
1361.15
1381.93
1714.54
1764.06
1762.25
1742.15
1742.42
1745.79
1741.72
1715.73
1732.7
1767.06
1770.31
1771.42
1772.37
1773.23
1557.72
1743.3
1711.18
1743.02
1739.99
1716.62
1709.55
1723.14
1706.85
1703.44
1706.73
1756.65
1772.44
1772.88
1757.74
1744.53
1747.46
1779.13
1760.21
1755.84
1657.28
1366.25
1359.63
1360.98
1361.23
1365.66
1568.14
1712.04
1727.88
1743.12
1749.46
1709.1
1751.28
1770.4
1769.76
1769.42
1769.93
1771.04
1760.68
1717.16
1570.41
1743.27
1777.26
1778.03
1776.53
1777
1777.3
1777.66
1775.41
1722.1
1704.71
1705.1
1715.35
1763.39
1776.3
1776.93
1766.56
1756.44
1754.44
1757.57
1759.77
1772.35
1776.69
1776.79
1775
1772.38
1772.12
1773.19
1774.19
1773.88
1772.54
1671.58
1725.93
1770.99
1770.43
1769.32
1769.93
1585.38
1377.09
1449.82
1748.47
1750.22
1776.29
1771.89
1770.41
1772.34
1776.46
1776.38
1776.19
1776.08
1761.7
1707.56
1703.29
1703.57
1705.78
1772.19
1777.12
1777.54
1776.81
1760.8
1754.93
1753.62
1753.24
1772.24
1772.8
1773.08
1775.88
1776.38
1776.7
1776.06
1772.88
1615.34
1370.99
1517.18
1575.29
1490.92
1378
1349.01
1352.94
1383.6
1717.84
1752.42
1775.45
1764.72
1764.09
1764.17
1769.26
1773.48
1773.2
1773.06
1773.19
1773.53
1773.27
1774.47
1763.74
1733.32
1734.12
1734.7
1765.1
1780.07
1780.23
1780.49
1768.02
1754.57
1754.25
1758.86
1779.49
1781.05
1782.31
1783.66
1771.71
1450.7
1348.62
1347.75
1346.25
1346.92
1348.62
1350.08
1399.16
1753.75
1752.8
1734.16
1775.2
1763.24
1761.97
1761.54
1770.51
1770.4
1769.91
1769.8
1770.09
1770.56
1770.72
1772.24
1774.41
1776.07
1736.09
1757.39
1781.24
1781.4
1781.45
1781.68
1782.25
1767.65
1756.11
1770.51
1780.63
1781.86
1785.3
1789.16
1787.93
1663.27
1371.06
1344.93
1344.65
1476.04
1467.72
1516.11
1753.73
1759.12
1707.14
1699.63
1762.54
1761.65
1764.66
1770.76
1769.09
1767.26
1766.43
1766.69
1767.15
1768.84
1749.68
1748.06
1751.26
1776.83
1779.79
1781.8
1782.47
1781.78
1782.92
1784.51
1784.19
1757.42
1755.62
1766.37
1767.23
1761.08
1702.07
1552.13
1598.49
1328.8
1553.16
1731.96
1678.16
1746.44
1756.96
1760.14
1783.12
1752.6
1700.57
1700.84
1740.48
1764.07
1773.83
1771.32
1758.42
1751.81
1731.64
1715.41
1731.55
1761.85
1768.77
1770.84
1774.92
1780.84
1782.98
1783.92
1774.5
1674.86
1654.57
1654.92
1688.79
1724.66
1775.81
1771.9
1739.69
1470.21
1270.67
1261.08
1263.62
1264.77
1378.72
1779.81
1784.38
1764.62
1762.38
1780.86
1783.31
1718.58
1700.94
1700.91
1742.02
1776.55
1775.74
1772.63
1742.84
1645.13
1464.37
1474.42
1754.27
1772.48
1704.03
1673.71
1677.64
1681.01
1682.75
1683.28
1682.66
1681.91
1700.66
1769.19
1781.68
1779.78
1778.01
1773.77
1759.11
1446.62
1254.8
1256.15
1257.73
1258.98
1516.06
1779.99
1786.2
1786.31
1784.76
1786.38
1786.27
1773.34
1761.15
1745.09
1766.16
1781.03
1778.47
1750.13
1509.22
1415.38
1415.57
1416.36
1643.42
1770.92
1773.36
1772.46
1769.07
1771.26
1772.38
1772.74
1767.25
1768.32
1781.99
1781.53
1780.51
1778.81
1746.96
1601.29
1748.09
1659.49
1253.33
1255.1
1255.96
1293.38
1771.73
1786.54
1784.94
1783.56
1782.36
1781.13
1778.05
1778.24
1779.81
1781.29
1785.25
1783.76
1781.92
1607.71
1413.9
1412.99
1411.02
1408.8
1552.06
1768.48
1771.84
1772.99
1763.88
1763.55
1770.49
1772.55
1759.82
1748.13
1752.92
1777.41
1780.64
1761.31
1686.32
1523.6
1661.33
1785.45
1605.81
1399.37
1518.06
1652.7
1784.75
1784.55
1782.43
1780.34
1778.1
1766.51
1709.53
1647.38
1757
1769.66
1787.03
1785.9
1784.23
1597.2
1411
1409.14
1406.78
1455.19
1759.07
1771.79
1773.17
1748.96
1747.8
1750.6
1752.32
1760.02
1731.17
1727.1
1727.58
1760.9
1784.4
1744.98
1680.22
1523.25
1545.27
1786.75
1787.79
1779.05
1788.93
1788.6
1784.28
1783.9
1781.84
1781.51
1778.02
1776.32
1670.7
1475.73
1613.51
1757.81
1787.16
1785.72
1771.61
1510.63
1408.36
1407.52
1419.66
1743.59
1776.58
1774.68
1773.03
1767.88
1769.18
1769
1771.24
1760.21
1760.34
1732.28
1743.88
1780.02
1784.63
1758.23
1753.59
1617.22
1525.21
1596.98
1793.76
1793.97
1791.44
1789.99
1787.15
1784.27
1782.07
1781.98
1746.88
1535.49
1474.01
1474.47
1529.27
1762.3
1786.38
1786.56
1727.16
1420.98
1406.71
1406.03
1405.14
1440.6
1670.43
1777.31
1776.33
1777.14
1779.08
1781.15
1782.92
1706.19
1685.76
1730.84
1731.78
1734.08
1765.06
1775.39
1771.35
1734.74
1575.79
1542.45
1571
1618.15
1701.79
1791.9
1789.22
1745.45
1757.22
1781.7
1747.04
1471.95
1472.55
1473.38
1515.81
1767.55
1770.14
1780.41
1774.96
1775.15
1758.49
1680.21
1641.59
1681.43
1751.7
1779.35
1774.26
1775.36
1779.32
1782.13
1775.43
1681.2
1649.96
1643.72
1546.89
1517.27
1585.52
1620.92
1532.03
1694.1
1791.1
1660.56
1725.05
1718.33
1761.69
1718.98
1692.92
1688.53
1684.38
1733.3
1761.28
1616.95
1475.45
1475.93
1506.17
1777.03
1460.98
1450.53
1492.48
1613.88
1659.93
1704.83
1757.08
1764.63
1761.7
1701.79
1586.65
1606.4
1717.17
1783.65
1771.04
1766.88
1715.88
1513.46
1513.6
1513.96
1515.26
1517.99
1520.5
1652.83
1794.53
1796.9
1795.25
1794.43
1793.62
1792.21
1738.73
1689.92
1689.11
1763.16
1765.69
1593.38
1476.62
1478.7
1579.54
1794.57
1457.65
1458.24
1458.84
1459.5
1460.54