/*--------------------------------*- C++ -*----------------------------------*\
  =========                 |
  \\      /  F ield         | OpenFOAM: The Open Source CFD Toolbox
   \\    /   O peration     | Website:  https://openfoam.org
    \\  /    A nd           | Version:  8
     \\/     M anipulation  |
\*---------------------------------------------------------------------------*/
FoamFile
{
    version     2.0;
    format      ascii;
    class       volScalarField;
    location    "2.45";
    object      nut;
}
// * * * * * * * * * * * * * * * * * * * * * * * * * * * * * * * * * * * * * //

dimensions      [0 2 -1 0 0 0 0];

internalField   nonuniform List<scalar> 
9150
(
9.60039e-06
6.40838e-06
6.60818e-06
8.8989e-06
7.90097e-06
7.90263e-06
8.89752e-06
6.60787e-06
6.4095e-06
9.60033e-06
9.48739e-06
5.74155e-06
8.32812e-06
1.00545e-05
7.35746e-06
7.35977e-06
1.00552e-05
8.32717e-06
5.74251e-06
9.48738e-06
9.29557e-06
5.50415e-06
1.08691e-05
1.04334e-05
7.00306e-06
7.00523e-06
1.04357e-05
1.08685e-05
5.50498e-06
9.29559e-06
9.07996e-06
5.42623e-06
1.34865e-05
1.04324e-05
6.81417e-06
6.81612e-06
1.04351e-05
1.34877e-05
5.42696e-06
9.08e-06
8.84516e-06
5.40972e-06
1.5741e-05
1.03411e-05
6.71856e-06
6.72037e-06
1.03439e-05
1.57449e-05
5.4104e-06
8.84521e-06
5.91163e-06
1.13358e-05
1.40599e-05
1.78112e-05
1.72793e-05
1.72764e-05
1.77919e-05
1.40251e-05
1.1312e-05
5.91004e-06
6.27889e-06
8.87735e-06
1.14817e-05
1.56311e-05
1.49591e-05
1.49595e-05
1.56214e-05
1.14624e-05
8.86865e-06
6.27902e-06
6.82836e-06
7.90953e-06
9.46524e-06
1.33314e-05
1.2587e-05
1.25881e-05
1.33256e-05
9.45603e-06
7.90797e-06
6.82861e-06
7.38573e-06
7.3004e-06
8.03034e-06
1.13707e-05
1.05903e-05
1.05915e-05
1.13671e-05
8.02658e-06
7.30124e-06
7.3859e-06
8.07413e-06
6.84848e-06
7.09618e-06
9.83062e-06
8.9812e-06
8.98265e-06
9.82847e-06
7.095e-06
6.84975e-06
8.07422e-06
1.22742e-05
1.45602e-05
1.31261e-05
1.62802e-05
1.81518e-05
1.79465e-05
1.57418e-05
1.23052e-05
1.16526e-05
9.80435e-06
7.88896e-06
1.0852e-05
1.27188e-05
1.63232e-05
1.82141e-05
1.80699e-05
1.5956e-05
1.23942e-05
1.0803e-05
7.83962e-06
7.46446e-06
1.02518e-05
1.27402e-05
1.64343e-05
1.82768e-05
1.81844e-05
1.61968e-05
1.25518e-05
1.0196e-05
7.44926e-06
7.03307e-06
9.86902e-06
1.27547e-05
1.6537e-05
1.83308e-05
1.82689e-05
1.63847e-05
1.26395e-05
9.80035e-06
7.02634e-06
6.50831e-06
1.01194e-05
1.27529e-05
1.67129e-05
1.82201e-05
1.81881e-05
1.66367e-05
1.2689e-05
1.00623e-05
6.50535e-06
1.87151e-05
1.86996e-05
1.86722e-05
1.86336e-05
1.85841e-05
1.85244e-05
1.84549e-05
1.83764e-05
1.82896e-05
1.8195e-05
0.000174754
0.000174911
0.000174952
0.000174878
0.000174693
0.0001744
0.000174004
0.000173511
0.000172927
0.000172261
0.000346748
0.000347106
0.000347214
0.000347075
0.000346696
0.000346085
0.000345252
0.000344211
0.000342974
0.000341559
0.000497539
0.000498082
0.000498257
0.000498072
0.000497534
0.000496655
0.00049545
0.000493935
0.000492129
0.000490055
0.000628115
0.000628823
0.000629069
0.000628861
0.000628208
0.000627123
0.000625623
0.000623726
0.000621455
0.000618834
0.000741577
0.000742432
0.00074275
0.000742538
0.000741805
0.000740566
0.000738837
0.000736637
0.000733988
0.000730918
0.000840674
0.00084166
0.000842049
0.000841846
0.000841062
0.000839709
0.000837802
0.000835362
0.00083241
0.000828969
0.000927646
0.000928748
0.000929205
0.000929021
0.000928205
0.00092677
0.000924729
0.0009221
0.000918902
0.000915159
0.0010043
0.0010055
0.00100603
0.00100587
0.00100503
0.00100354
0.0010014
0.000998623
0.00099523
0.000991242
0.0010721
0.0010734
0.00107397
0.00107384
0.001073
0.00107147
0.00106925
0.00106637
0.00106282
0.00105864
0.00113225
0.00113361
0.00113424
0.00113413
0.00113329
0.00113174
0.00112947
0.0011265
0.00112284
0.0011185
0.00118571
0.00118713
0.00118779
0.0011877
0.00118687
0.00118529
0.00118299
0.00117996
0.00117622
0.00117177
0.0012333
0.00123475
0.00123544
0.00123536
0.00123452
0.00123293
0.00123059
0.00122753
0.00122373
0.00121921
0.00127569
0.00127715
0.00127783
0.00127774
0.00127689
0.00127528
0.00127292
0.00126982
0.00126599
0.00126143
0.00131343
0.00131486
0.00131551
0.00131539
0.0013145
0.00131285
0.00131046
0.00130733
0.00130348
0.0012989
0.00134699
0.00134835
0.00134894
0.00134874
0.00134778
0.00134607
0.00134362
0.00134045
0.00133655
0.00133195
0.00137675
0.001378
0.00137847
0.00137816
0.00137709
0.00137527
0.00137273
0.00136946
0.00136549
0.00136083
0.00140303
0.00140411
0.00140441
0.00140393
0.0014027
0.00140073
0.00139804
0.00139464
0.00139054
0.00138577
0.00142608
0.00142694
0.00142701
0.00142631
0.00142486
0.00142268
0.00141979
0.00141621
0.00141195
0.00140703
0.00144614
0.0014467
0.00144649
0.0014455
0.00144378
0.00144133
0.00143819
0.00143438
0.0014299
0.00142479
0.00146335
0.00146356
0.00146299
0.00146166
0.00145959
0.00145682
0.00145337
0.00144927
0.00144454
0.00143919
0.00147787
0.00147765
0.00147666
0.0014749
0.00147243
0.00146927
0.00146546
0.00146101
0.00145596
0.00145032
0.00148979
0.00148907
0.00148757
0.00148533
0.00148238
0.00147877
0.00147452
0.00146967
0.00146425
0.00145826
0.0014992
0.00149789
0.00149581
0.001493
0.00148951
0.00148537
0.00148063
0.00147532
0.00146946
0.00146306
0.00150613
0.00150415
0.00150141
0.00149796
0.00149385
0.00148913
0.00148384
0.001478
0.00147165
0.00146479
0.00151059
0.00150785
0.00150438
0.00150023
0.00149544
0.00149008
0.00148418
0.00147777
0.00147088
0.00146352
0.00151249
0.00150895
0.0015047
0.0014998
0.0014943
0.00148827
0.00148172
0.00147471
0.00146725
0.00145936
0.00151179
0.00150741
0.00150237
0.00149671
0.00149048
0.00148375
0.00147655
0.00146891
0.00146086
0.00145241
0.00150854
0.00150334
0.00149749
0.00149106
0.0014841
0.00147666
0.00146878
0.00146051
0.00145186
0.00144285
0.00150288
0.00149685
0.00149019
0.00148298
0.00147527
0.00146712
0.00145858
0.00144967
0.00144043
0.00143086
0.00149483
0.00148799
0.00148055
0.00147258
0.00146415
0.00145531
0.00144611
0.00143659
0.00142676
0.00141666
0.00148451
0.00147691
0.00146873
0.00146004
0.00145091
0.00144142
0.0014316
0.00142149
0.00141112
0.00140051
0.00147216
0.00146384
0.00145495
0.00144559
0.00143582
0.00142571
0.00141531
0.00140467
0.0013938
0.00138272
0.00145808
0.00144907
0.00143952
0.00142952
0.00141915
0.00140848
0.00139756
0.00138643
0.00137512
0.00136364
0.00144255
0.00143288
0.00142271
0.00141213
0.00140122
0.00139005
0.00137868
0.00136714
0.00135547
0.00134368
0.00142581
0.00141553
0.0014048
0.0013937
0.00138233
0.00137075
0.00135902
0.00134718
0.00133527
0.00132329
0.00140808
0.00139727
0.00138606
0.00137454
0.00136281
0.00135093
0.00133896
0.00132697
0.00131496
0.00130296
0.0013896
0.00137836
0.00136678
0.00135496
0.00134299
0.00133095
0.0013189
0.00130691
0.001295
0.00128319
0.00137066
0.00135911
0.00134728
0.00133528
0.00132321
0.00131115
0.00129919
0.00128739
0.00127579
0.00126442
0.00135156
0.0013398
0.00132785
0.0013158
0.00130377
0.00129185
0.00128013
0.0012687
0.00125762
0.00124693
0.00133262
0.00132072
0.00130874
0.00129677
0.00128491
0.00127326
0.00126194
0.00125103
0.00124062
0.0012308
0.00131408
0.00130213
0.00129018
0.00127835
0.00126676
0.0012555
0.00124467
0.00123438
0.00122474
0.00121585
0.00129611
0.00128416
0.0012723
0.00126065
0.00124934
0.00123849
0.0012282
0.00121858
0.00120972
0.00120171
0.00127873
0.00126683
0.0012551
0.00124368
0.00123268
0.00122223
0.00121245
0.00120344
0.0011953
0.0011881
0.00126193
0.00125009
0.00123851
0.0012273
0.0012166
0.00120654
0.00119723
0.00118877
0.00118123
0.00117469
0.00124564
0.00123385
0.00122238
0.00121136
0.00120091
0.00119117
0.00118224
0.00117422
0.00116716
0.00116113
0.00122977
0.00121799
0.0012066
0.00119571
0.00118545
0.00117595
0.00116732
0.00115963
0.00115294
0.00114727
0.00121421
0.0012024
0.00119102
0.00118019
0.00117005
0.00116073
0.00115231
0.00114487
0.00113846
0.00113306
0.00119875
0.00118684
0.00117539
0.00116455
0.00115445
0.00114522
0.00113693
0.00112966
0.00112342
0.00111821
0.001183
0.00117091
0.0011593
0.00114834
0.00113817
0.00112889
0.0011206
0.00111335
0.00110716
0.00110199
0.00116642
0.001154
0.00114208
0.00113084
0.0011204
0.00111089
0.00110239
0.00109495
0.00108858
0.00108326
0.00114826
0.0011353
0.00112285
0.00111108
0.00110013
0.00109013
0.00108115
0.00107325
0.00106644
0.00106069
0.00112768
0.00111393
0.00110066
0.00108808
0.00107633
0.00106554
0.00105581
0.00104717
0.00103966
0.00103325
0.00110385
0.00108902
0.00107467
0.001061
0.00104819
0.00103637
0.00102566
0.00101612
0.00100779
0.00100065
0.00107617
0.00106004
0.00104437
0.0010294
0.00101535
0.00100239
0.00099067
0.000980274
0.000971256
0.000963695
0.00104454
0.00102689
0.00100972
0.000993339
0.000978018
0.000963992
0.000951437
0.00094048
0.000931199
0.000924029
0.00100919
0.000989814
0.000971009
0.00095319
0.000936719
0.00092188
0.000908872
0.000897826
0.000889191
0.000883159
0.000970126
0.000948779
0.000928267
0.000909153
0.00089186
0.000876672
0.000863754
0.000853468
0.000846236
0.000842148
0.000926397
0.000902921
0.000880951
0.000861062
0.00084362
0.000828816
0.000816776
0.000808229
0.000803317
0.000802065
0.000876287
0.000851334
0.00082885
0.000809266
0.000792778
0.000779393
0.000769764
0.000764264
0.000763013
0.000765891
0.000819552
0.000794918
0.000773616
0.000756073
0.000742421
0.000732542
0.000727309
0.000727046
0.000731707
0.000740901
0.000759631
0.000737139
0.000719193
0.000706275
0.000698442
0.000695356
0.000697659
0.000705729
0.000719275
0.00073708
0.000700149
0.00068274
0.00067166
0.000667293
0.000669375
0.000677099
0.000690418
0.000710009
0.00073382
0.000754831
0.00064765
0.000639431
0.00063948
0.000647671
0.000663134
0.000684545
0.000711191
0.000739756
0.000757109
0.000760328
0.000611189
0.000615554
0.000629324
0.000651699
0.000681223
0.000715349
0.000746423
0.000756673
0.000750184
0.000737859
0.000595933
0.000613554
0.000640502
0.000675629
0.000717237
0.000750853
0.000757193
0.000743334
0.000724738
0.000704957
0.000599577
0.000628361
0.000665468
0.000709727
0.000757321
0.000773398
0.00074782
0.000720246
0.000693389
0.000667703
0.00061731
0.000654814
0.00069966
0.000750566
0.000782209
0.000765195
0.000727713
0.000691739
0.000658665
0.000628513
0.000640992
0.00068374
0.000732332
0.000782414
0.000790942
0.000748068
0.00070144
0.000659282
0.000621939
0.000589379
0.000666111
0.00071303
0.000765122
0.000801176
0.000779598
0.000722409
0.000670127
0.000624344
0.000585112
0.000552547
0.000690308
0.000742165
0.000794755
0.000802687
0.000749883
0.00068923
0.000634983
0.000588337
0.000549849
0.000519823
0.000715963
0.000773413
0.000810242
0.000779757
0.000713019
0.000651519
0.000597632
0.000552639
0.000517514
0.000492416
0.000741084
0.000799916
0.000800358
0.000737538
0.000671393
0.00061136
0.000559919
0.000518922
0.000489458
0.000470918
0.000765947
0.000803577
0.000766661
0.000694419
0.000628622
0.000571054
0.000523738
0.000488713
0.000466456
0.000454789
0.000788232
0.000787145
0.000719263
0.000650033
0.000586905
0.000532935
0.000491012
0.000463153
0.000448326
0.000442494
0.000782951
0.000752681
0.000676996
0.000608057
0.000547544
0.000497949
0.000462377
0.000442015
0.000433623
0.000432399
0.000760603
0.000704361
0.000634606
0.000569006
0.00051196
0.000467159
0.000437966
0.000424137
0.000420586
0.000423964
0.000737037
0.000668144
0.00059809
0.000534497
0.000480646
0.000440298
0.000416541
0.000407508
0.000407976
0.00041745
0.000724917
0.000640214
0.000567914
0.000505595
0.000453877
0.000416425
0.000396145
0.000390302
0.000395487
0.000412953
0.000687882
0.000612116
0.000542999
0.00048142
0.000429684
0.000392961
0.000374474
0.000371631
0.00038325
0.000409656
0.000664252
0.00058881
0.000520081
0.000457424
0.000404173
0.000367288
0.000350453
0.000351826
0.000371334
0.000406343
0.000639607
0.000566453
0.000497104
0.000431801
0.000376093
0.000339023
0.000324638
0.000331833
0.000359785
0.000402114
0.000616285
0.000543946
0.000472002
0.000403242
0.000345166
0.000308671
0.000298133
0.000312812
0.00034915
0.000397346
0.000589952
0.000517317
0.000443335
0.000371998
0.000312153
0.000277107
0.000272133
0.000295963
0.000340312
0.000393088
0.000560603
0.000488166
0.000413118
0.000339569
0.000277859
0.000244896
0.000247733
0.000282339
0.000334052
0.000390064
0.000531197
0.000459028
0.000382682
0.000306469
0.00024237
0.000212301
0.000226028
0.000272593
0.000331014
0.000389741
0.000502224
0.000429895
0.000351887
0.000272658
0.000205765
0.000179816
0.000207639
0.00026575
0.000329617
0.00039046
0.000474881
0.000401492
0.000321296
0.000238742
0.000168761
0.000148528
0.000192336
0.000259889
0.000327685
0.000390152
0.000449817
0.000374445
0.000291454
0.000205348
0.000132544
0.000120054
0.00017948
0.000254088
0.000324694
0.000388108
0.000427211
0.00034908
0.000262597
0.000172943
9.89085e-05
9.59689e-05
0.000167864
0.000248172
0.000321759
0.000386861
0.000407866
0.000325173
0.000234178
0.000141681
7.01524e-05
7.64533e-05
0.000154968
0.000240797
0.000318357
0.000385837
0.000392211
0.000302745
0.000206535
0.000112525
4.72501e-05
5.86901e-05
0.000137939
0.000229984
0.00031335
0.000384328
0.00037833
0.000280357
0.000179394
8.65978e-05
3.09154e-05
4.15626e-05
0.000114763
0.000213034
0.00030498
0.000382036
0.000361925
0.000256247
0.000152858
6.50835e-05
2.10985e-05
2.64609e-05
8.621e-05
0.000187902
0.000291433
0.000377839
0.000341804
0.000230629
0.000128063
4.8761e-05
1.69388e-05
1.59073e-05
5.67805e-05
0.000154524
0.000272093
0.000371498
0.000315853
0.000204611
0.000106406
3.74941e-05
1.67662e-05
1.10448e-05
3.24687e-05
0.00011462
0.00024489
0.000362237
0.00028545
0.000182371
8.942e-05
3.03526e-05
1.79259e-05
1.13462e-05
1.71302e-05
7.27641e-05
0.000204823
0.000346816
0.000265837
0.000173151
7.67517e-05
2.54881e-05
1.83967e-05
1.49369e-05
1.09894e-05
3.68233e-05
0.000147
0.00031567
0.000305942
0.000180737
6.18076e-05
2.10076e-05
1.82624e-05
1.7317e-05
1.28764e-05
1.56763e-05
7.61235e-05
0.000241477
0.000475725
0.00015687
3.53213e-05
1.74136e-05
1.81367e-05
1.78064e-05
1.54243e-05
1.25165e-05
2.65242e-05
0.000113756
1.80906e-05
1.79729e-05
1.78507e-05
1.77257e-05
1.75995e-05
1.74737e-05
1.73496e-05
1.72281e-05
1.711e-05
1.69958e-05
1.68856e-05
1.67792e-05
1.6676e-05
1.65753e-05
1.64758e-05
1.63764e-05
1.62754e-05
1.61712e-05
1.60618e-05
1.59453e-05
1.58194e-05
1.56818e-05
1.55299e-05
1.53609e-05
1.51721e-05
1.49608e-05
1.47238e-05
1.44599e-05
1.41673e-05
1.38301e-05
1.34396e-05
1.29848e-05
1.24536e-05
1.18377e-05
1.11832e-05
1.04576e-05
9.61066e-06
8.57673e-06
7.28607e-06
1.26331e-05
0.000171473
0.000170559
0.000169579
0.000168546
0.000167475
0.000166376
0.000165262
0.00016414
0.000163018
0.000161899
0.000160786
0.000159675
0.000158564
0.000157444
0.000156307
0.00015514
0.000153929
0.000152656
0.000151302
0.000149845
0.000148261
0.000146521
0.000144596
0.000142449
0.00014004
0.000137324
0.000134248
0.000130751
0.00012678
0.000122287
0.000117231
0.000111523
0.000105014
9.74127e-05
8.80813e-05
7.74876e-05
6.54456e-05
5.10253e-05
3.11918e-05
4.67494e-06
0.000339887
0.000337942
0.000335851
0.000333643
0.000331347
0.000328985
0.00032658
0.000324148
0.0003217
0.000319241
0.00031677
0.000314279
0.000311753
0.000309173
0.000306513
0.000303743
0.000300826
0.000297724
0.000294393
0.000290787
0.000286855
0.000282544
0.000277795
0.000272545
0.000266726
0.000260267
0.000253088
0.000245106
0.000236229
0.000226355
0.00021535
0.000203033
0.000189177
0.000173493
0.000155494
0.000134795
0.000110744
8.16137e-05
4.442e-05
5.19068e-06
0.000487596
0.000484721
0.000481613
0.000478311
0.00047485
0.000471264
0.000467579
0.000463816
0.000459988
0.000456098
0.000452143
0.000448107
0.000443967
0.000439694
0.000435247
0.000430583
0.000425649
0.00042039
0.000414746
0.000408653
0.000402043
0.000394845
0.000386986
0.000378388
0.000368968
0.000358641
0.000347314
0.000334888
0.000321251
0.000306276
0.000289804
0.000271632
0.000251489
0.000228988
0.000203589
0.000174589
0.000140997
0.00010099
5.24739e-05
5.73158e-06
0.000615712
0.000612041
0.000608046
0.000603771
0.000599256
0.000594537
0.000589645
0.0005846
0.000579415
0.000574092
0.000568623
0.000562988
0.000557158
0.000551094
0.000544747
0.000538063
0.00053098
0.000523431
0.000515345
0.000506648
0.000497261
0.000487104
0.000476095
0.000464146
0.00045117
0.000437075
0.000421763
0.000405133
0.000387069
0.000367441
0.000346089
0.000322808
0.000297319
0.000269216
0.000237896
0.000202434
0.000161679
0.000113965
5.7888e-05
6.12168e-06
0.000727242
0.000722893
0.000718131
0.000713
0.000707543
0.000701795
0.000695787
0.000689539
0.000683061
0.000676353
0.000669403
0.000662189
0.000654677
0.00064682
0.000638566
0.000629851
0.000620609
0.000610764
0.000600239
0.000588953
0.00057682
0.000563755
0.00054967
0.000534473
0.000518075
0.000500381
0.000481295
0.000460718
0.000438542
0.000414648
0.000388895
0.000361102
0.000331015
0.000298254
0.000262217
0.000221953
0.000176037
0.000122765
6.13099e-05
6.40671e-06
0.000824831
0.000819906
0.000814483
0.000808605
0.000802312
0.000795641
0.000788618
0.00078126
0.000773575
0.000765559
0.000757201
0.000748474
0.000739341
0.000729754
0.000719653
0.000708973
0.00069764
0.000685575
0.000672695
0.000658916
0.000644148
0.000628301
0.000611282
0.000592999
0.000573358
0.000552264
0.000529622
0.000505335
0.000479306
0.000451431
0.000421597
0.000389667
0.000355457
0.00031868
0.000278841
0.000235018
0.000185612
0.000128622
6.34366e-05
6.64061e-06
0.000910635
0.000905225
0.000899235
0.000892708
0.000885683
0.000878194
0.000870268
0.000861907
0.000853112
0.000843878
0.000834202
0.000824056
0.0008134
0.000802182
0.000790341
0.000777806
0.0007645
0.000750343
0.000735247
0.000719125
0.000701883
0.00068343
0.000663669
0.000642503
0.000619835
0.000595566
0.000569599
0.000541834
0.000512175
0.000480524
0.000446784
0.000410858
0.000372636
0.000331977
0.000288643
0.000242093
0.000190802
0.00013291
6.66701e-05
7.10585e-06
0.0009864
0.000980582
0.000974111
0.000967026
0.000959366
0.000951165
0.000942423
0.000933153
0.00092336
0.000913034
0.000902153
0.000890697
0.000878637
0.000865915
0.000852467
0.000838219
0.000823092
0.000807003
0.000789865
0.000771585
0.00075207
0.000731225
0.000708949
0.000685144
0.000659706
0.000632531
0.000603513
0.000572545
0.000539516
0.000504318
0.000466839
0.000426973
0.000384614
0.000339671
0.000292067
0.000241751
0.000188477
0.000130795
6.59224e-05
7.13842e-06
0.00105354
0.00104738
0.00104051
0.00103295
0.00102474
0.00101589
0.00100642
0.000996337
0.000985653
0.000974353
0.000962414
0.000949798
0.000936468
0.000922386
0.000907482
0.000891683
0.000874907
0.00085707
0.000838083
0.000817856
0.000796294
0.000773299
0.000748771
0.000722607
0.000694701
0.000664945
0.000633225
0.000599424
0.000563422
0.000525094
0.000484313
0.000440951
0.000394891
0.000346043
0.000294376
0.000239975
0.000182993
0.000123202
6.06374e-05
6.94511e-06
0.0011132
0.00110677
0.00109956
0.0010916
0.00108291
0.0010735
0.00106339
0.0010526
0.00104113
0.00102897
0.00101609
0.00100246
0.000988023
0.000972734
0.000956537
0.000939357
0.000921113
0.000901722
0.000881095
0.000859143
0.000835772
0.000810886
0.000784386
0.000756169
0.00072613
0.000694159
0.000660142
0.000623962
0.000585497
0.000544619
0.000501202
0.000455123
0.00040627
0.000354568
0.000300009
0.000242704
0.00018293
0.000121172
5.8537e-05
6.86706e-06
0.00116632
0.00115969
0.00115221
0.00114393
0.00113483
0.00112494
0.00111429
0.00110288
0.00109073
0.00107782
0.00106412
0.0010496
0.0010342
0.00101786
0.00100054
0.000982149
0.00096262
0.000941869
0.000919809
0.000896355
0.000871415
0.000844897
0.000816705
0.000786742
0.000754905
0.00072109
0.00068519
0.000647093
0.000606686
0.000563854
0.000518486
0.000470475
0.000419735
0.000366209
0.000309893
0.000250864
0.000189295
0.000125508
6.07504e-05
7.13921e-06
0.00121366
0.00120689
0.00119923
0.0011907
0.00118129
0.00117102
0.0011599
0.00114797
0.00113522
0.00112165
0.00110725
0.00109196
0.00107573
0.0010585
0.0010402
0.00102077
0.00100013
0.000978199
0.000954903
0.000930156
0.000903871
0.000875963
0.00084634
0.000814911
0.000781582
0.000746257
0.000708837
0.000669221
0.000627308
0.000582996
0.000536184
0.00048678
0.000434695
0.000379858
0.000322212
0.00026171
0.000198312
0.00013206
6.40123e-05
7.49489e-06
0.00125583
0.00124898
0.00124122
0.00123254
0.00122294
0.00121238
0.00120088
0.00118848
0.00117522
0.0011611
0.00114609
0.00113015
0.00111321
0.00109521
0.00107608
0.00105575
0.00103416
0.00101122
0.000986861
0.000961006
0.000933574
0.000904484
0.000873653
0.000840997
0.000806429
0.000769861
0.000731205
0.000690369
0.000647258
0.000601776
0.000553826
0.000503305
0.000450105
0.000394106
0.000335166
0.000273106
0.000207698
0.000138764
6.72766e-05
7.82278e-06
0.00129328
0.00128641
0.00127864
0.00126992
0.00126025
0.00124952
0.00123773
0.00122494
0.00121124
0.00119664
0.00118113
0.00116464
0.00114711
0.00112846
0.00110861
0.00108752
0.0010651
0.00104128
0.00101601
0.000989198
0.000960778
0.000930675
0.000898812
0.000865112
0.000829496
0.000791884
0.000752192
0.000710335
0.000666221
0.000619753
0.000570822
0.000519308
0.000465066
0.000407922
0.000347651
0.000283962
0.000216489
0.00014492
7.02202e-05
8.1123e-06
0.00132631
0.00131946
0.00131172
0.00130307
0.00129347
0.00128275
0.00127076
0.00125767
0.00124363
0.00122867
0.00121276
0.00119582
0.00117778
0.00115857
0.00113811
0.00111634
0.0010932
0.00106861
0.00104253
0.00101488
0.000985595
0.000954603
0.000921836
0.000887224
0.000850694
0.00081217
0.000771574
0.000728821
0.00068382
0.000636466
0.000586638
0.000534191
0.000478944
0.000420672
0.00035908
0.000293794
0.00022435
0.000150353
7.27914e-05
8.36591e-06
0.00135515
0.00134828
0.00134056
0.00133198
0.0013225
0.00131201
0.00129994
0.00128676
0.00127258
0.0012574
0.00124121
0.00122392
0.00120545
0.00118574
0.00116474
0.00114236
0.00111857
0.0010933
0.0010665
0.00103809
0.00100802
0.000976226
0.000942643
0.000907206
0.000869846
0.000830494
0.000789074
0.000745502
0.000699683
0.000651506
0.000600836
0.000547505
0.000491304
0.000431963
0.000369135
0.000302381
0.000231166
0.000155034
7.49991e-05
8.58816e-06
0.00138
0.00137305
0.00136527
0.00135667
0.00134724
0.00133694
0.00132544
0.00131219
0.0012979
0.00128269
0.0012664
0.00124888
0.00123007
0.00120994
0.00118846
0.00116557
0.0011412
0.00111532
0.00108785
0.00105875
0.00102796
0.00099542
0.000961076
0.000924868
0.000886732
0.000846603
0.000804408
0.000760064
0.000713475
0.000664524
0.000613064
0.000558913
0.000501836
0.000441532
0.000377615
0.000309594
0.00023688
0.000158961
7.68621e-05
8.78308e-06
0.00140113
0.00139406
0.0013862
0.00137755
0.00136808
0.00135778
0.00134652
0.00133397
0.00131978
0.00130445
0.00128819
0.00127051
0.00125142
0.00123098
0.00120913
0.00118581
0.00116097
0.00113454
0.00110647
0.00107673
0.00104526
0.00101201
0.000976943
0.000939997
0.000901118
0.000860245
0.000817309
0.00077223
0.000724912
0.000675235
0.000623048
0.000568157
0.000510311
0.000449188
0.000384372
0.000315334
0.000241437
0.000162118
7.83862e-05
8.95373e-06
0.00141871
0.00141148
0.00140347
0.00139469
0.00138509
0.00137464
0.00136324
0.00135076
0.00133708
0.00132216
0.00130578
0.00128824
0.00126915
0.0012486
0.00122656
0.00120295
0.00117772
0.00115082
0.00112221
0.00109186
0.00105974
0.00102581
0.000990044
0.000952385
0.000912788
0.000871198
0.000827552
0.000781775
0.000733774
0.000683431
0.000630592
0.00057506
0.000516575
0.0004548
0.000389299
0.000319516
0.000244776
0.000164463
7.95516e-05
9.10259e-06
0.00143287
0.00142543
0.00141723
0.00140826
0.00139851
0.00138792
0.00137643
0.00136397
0.00135051
0.00133601
0.00132012
0.00130239
0.0012833
0.00126281
0.0012407
0.00121689
0.00119133
0.00116401
0.00113489
0.00110396
0.00107122
0.00103664
0.0010002
0.000961857
0.000921573
0.000879302
0.000834986
0.00078856
0.000739935
0.000688999
0.000635601
0.000579544
0.000520565
0.000458321
0.000392363
0.000322114
0.000246864
0.000165949
8.03006e-05
9.23287e-06
0.00144372
0.00143601
0.00142757
0.00141839
0.00140845
0.0013977
0.0013861
0.00137358
0.00136008
0.00134553
0.00132976
0.00131249
0.00129349
0.00127303
0.00125113
0.00122725
0.00120146
0.0011738
0.00114425
0.00111282
0.00107951
0.00104433
0.00100727
0.00096829
0.000927372
0.000884474
0.000839552
0.000792546
0.00074338
0.000691948
0.000638107
0.000581662
0.000522353
0.000459835
0.000393652
0.000323215
0.000247788
0.000166656
8.06929e-05
9.35126e-06
0.00145132
0.00144328
0.00143455
0.00142511
0.00141493
0.00140397
0.00139218
0.00137949
0.00136583
0.00135109
0.00133514
0.00131783
0.00129902
0.00127875
0.00125692
0.00123337
0.00120763
0.0011798
0.00114998
0.00111817
0.00108441
0.00104873
0.00101114
0.000971625
0.000930164
0.000886734
0.000841302
0.000793824
0.000744233
0.000692434
0.000638293
0.000581622
0.000522163
0.000459576
0.000393404
0.00032305
0.00024776
0.00016677
8.08676e-05
9.46696e-06
0.00145572
0.0014473
0.00143822
0.00142845
0.00141796
0.00140672
0.00139467
0.00138174
0.00136784
0.00135289
0.00133677
0.00131937
0.00130062
0.00128043
0.0012586
0.00123511
0.00120976
0.00118199
0.001152
0.00111993
0.00108584
0.00104979
0.00101181
0.00097189
0.000930027
0.000886207
0.000840413
0.000792614
0.000742759
0.000690764
0.000636502
0.000579793
0.000520384
0.000457936
0.000391996
0.000321963
0.000247065
0.000166491
8.09126e-05
9.58768e-06
0.001457
0.00144813
0.00143863
0.00142848
0.00141764
0.00140606
0.00139369
0.00138046
0.00136628
0.00135107
0.00133474
0.00131717
0.00129827
0.00127795
0.00125609
0.00123263
0.00120759
0.0011803
0.00115031
0.00111808
0.00108378
0.00104752
0.00100933
0.000969203
0.000927136
0.000883124
0.000837169
0.000789258
0.000739352
0.000687379
0.000633217
0.000576688
0.000517543
0.000455442
0.000389929
0.000320397
0.000246053
0.000166035
8.08904e-05
9.72044e-06
0.00145523
0.00144587
0.00143591
0.00142533
0.00141409
0.00140213
0.0013894
0.00137582
0.00136132
0.0013458
0.00132919
0.00131136
0.00129224
0.00127172
0.00124973
0.00122622
0.0012012
0.0011744
0.00114483
0.00111264
0.00107835
0.0010421
0.00100393
0.000963841
0.000921805
0.00087784
0.000831972
0.000784205
0.000734512
0.000682823
0.000629017
0.000572912
0.000514253
0.000452694
0.000387767
0.000318849
0.000245121
0.00016567
8.09334e-05
9.8716e-06
0.00145053
0.00144064
0.00143019
0.00141915
0.00140747
0.0013951
0.00138198
0.00136804
0.00135318
0.00133733
0.00132039
0.00130227
0.00128289
0.00126217
0.00124007
0.00121654
0.00119155
0.00116508
0.00113616
0.00110432
0.00107021
0.00103412
0.000996139
0.000956274
0.000914498
0.000870833
0.000825329
0.000777999
0.000728812
0.000677694
0.000624514
0.000569078
0.000511118
0.000450268
0.000386039
0.000317777
0.000244622
0.000165607
8.11116e-05
1.00446e-05
0.00144303
0.0014326
0.00142164
0.00141013
0.001398
0.00138522
0.0013717
0.00135737
0.00134215
0.00132595
0.00130867
0.00129023
0.00127057
0.00124964
0.00122741
0.00120387
0.00117906
0.001153
0.00112488
0.00109363
0.00105985
0.00102408
0.000986445
0.000946995
0.000905719
0.000862643
0.000817811
0.000771225
0.000722841
0.000672568
0.000620258
0.000565704
0.000508614
0.000448599
0.000385134
0.000317516
0.000244825
0.000166022
8.14563e-05
1.02397e-05
0.00143291
0.00142193
0.00141047
0.00139848
0.00138591
0.00137271
0.0013588
0.00134411
0.00132854
0.00131201
0.00129442
0.0012757
0.00125581
0.0012347
0.00121236
0.00118879
0.00116406
0.00113828
0.00111076
0.00108028
0.00104718
0.00101209
0.000975182
0.000936506
0.000896068
0.000853905
0.000810047
0.000764477
0.000717132
0.000667906
0.000616638
0.000563101
0.000506985
0.00044787
0.000385191
0.000318188
0.000245864
0.000167088
8.21494e-05
1.04563e-05
0.00142037
0.00140886
0.00139689
0.00138444
0.00137145
0.00135785
0.00134358
0.00132854
0.00131266
0.00129584
0.00127799
0.00125909
0.00123908
0.00121793
0.00119562
0.00117215
0.00114759
0.00112204
0.00109505
0.00106539
0.00103321
0.000999095
0.000963227
0.000925638
0.000886328
0.000845325
0.00080264
0.00075824
0.000712053
0.000663962
0.000613793
0.000561306
0.000506174
0.000447948
0.000386027
0.000319594
0.000247567
0.000168696
8.31539e-05
1.06875e-05
0.00140565
0.00139361
0.00138117
0.00136829
0.0013549
0.00134094
0.00132633
0.00131099
0.00129485
0.0012778
0.0012598
0.00124083
0.00122086
0.00119987
0.00117786
0.00115486
0.00113093
0.00110614
0.00108
0.0010512
0.00101994
0.000986803
0.000951971
0.000915487
0.000877342
0.000837532
0.000796039
0.00075281
0.000707758
0.000660755
0.000611622
0.000560107
0.00050587
0.000448447
0.000387207
0.000321291
0.000249537
0.000170567
8.43737e-05
1.09256e-05
0.001389
0.00137649
0.00136362
0.00135034
0.0013366
0.00132232
0.00130744
0.00129188
0.00127555
0.00125838
0.00124039
0.00122154
0.00120182
0.00118123
0.00115979
0.00113757
0.00111468
0.00109118
0.00106609
0.00103824
0.00100802
0.000975931
0.000942133
0.000906692
0.000869619
0.000830896
0.000790475
0.000748282
0.000704219
0.000658148
0.000609883
0.00055917
0.000505663
0.000448895
0.000388225
0.000322767
0.000251309
0.00017235
8.56511e-05
1.11651e-05
0.00137077
0.00135783
0.00134458
0.00133097
0.00131695
0.00130244
0.00128738
0.00127169
0.0012553
0.00123823
0.00122046
0.00120195
0.00118271
0.00116274
0.00114209
0.00112084
0.00109912
0.00107677
0.00105262
0.00102583
0.000996911
0.000966109
0.000933525
0.000899203
0.000863173
0.000825428
0.00078592
0.000744575
0.000701294
0.00065594
0.000608327
0.000558204
0.00050523
0.000448943
0.00038871
0.000323646
0.000252513
0.000173724
8.68025e-05
1.14049e-05
0.00135132
0.00133803
0.00132449
0.00131064
0.00129643
0.00128181
0.0012667
0.00125103
0.00123486
0.00121813
0.00120082
0.00118292
0.00116443
0.00114537
0.00112582
0.00110589
0.00108563
0.00106443
0.00104094
0.00101509
0.000987329
0.00095774
0.000926314
0.000893041
0.000857944
0.000821023
0.000782243
0.000741544
0.000698838
0.000653996
0.00060684
0.000557122
0.000504506
0.000448547
0.000388628
0.00032388
0.000253067
0.000174557
8.76792e-05
1.16517e-05
0.00133108
0.00131756
0.00130385
0.00128989
0.00127564
0.00126106
0.00124607
0.00123074
0.00121504
0.00119895
0.00118243
0.00116548
0.0011481
0.00113029
0.00111214
0.00109375
0.00107497
0.00105455
0.00103165
0.00100671
0.000979938
0.000951313
0.000920775
0.000888301
0.000853907
0.000817594
0.000779342
0.00073911
0.000696825
0.000652369
0.000605561
0.000556146
0.000503794
0.000448071
0.000388385
0.00032388
0.000253329
0.000175084
8.83636e-05
1.19206e-05