/*--------------------------------*- C++ -*----------------------------------*\
  =========                 |
  \\      /  F ield         | OpenFOAM: The Open Source CFD Toolbox
   \\    /   O peration     | Website:  https://openfoam.org
    \\  /    A nd           | Version:  8
     \\/     M anipulation  |
\*---------------------------------------------------------------------------*/
FoamFile
{
    version     2.0;
    format      ascii;
    class       volScalarField;
    location    "2.45";
    object      p_rgh;
}
// * * * * * * * * * * * * * * * * * * * * * * * * * * * * * * * * * * * * * //

dimensions      [1 -1 -2 0 0 0 0];

internalField   nonuniform List<scalar> 
9150
(
2577.41
2550.43
2524.87
2507.67
2499.37
2499.38
2507.7
2524.91
2550.48
2577.46
2568.14
2548.62
2532.92
2521.13
2515.14
2515.15
2521.15
2532.96
2548.67
2568.19
2558.48
2544.95
2536.37
2528.62
2524.51
2524.52
2528.64
2536.4
2544.99
2558.52
2553.37
2543.42
2537.9
2532.56
2529.58
2529.59
2532.57
2537.92
2543.45
2553.41
2551.68
2542.87
2538.22
2534.06
2531.62
2531.63
2534.08
2538.24
2542.9
2551.72
2112.43
2108.29
2133.63
2148.11
2154.88
2155.02
2148.51
2134.23
2109.17
2113.67
2302.5
2278.2
2272.84
2271.71
2271.9
2271.97
2271.92
2273.17
2278.63
2302.93
2426.78
2395.17
2379.17
2369.33
2364.69
2364.74
2369.45
2379.34
2395.38
2426.96
2526.93
2484.54
2456.6
2439.29
2430.81
2430.83
2439.36
2456.7
2484.64
2527.01
2596.53
2544.16
2505.51
2483.49
2473.37
2473.38
2483.54
2505.58
2544.22
2596.57
1924.54
1960.59
1951.21
1962.34
1959.18
1960.82
1963.1
1954.65
1961.94
1935.14
1954.45
1971.83
1952.88
1962
1958.84
1959.86
1962.17
1957.46
1975.36
1963.21
1930.56
1962.95
1932.59
1939.96
1943.83
1944.11
1940.61
1936.25
1966.23
1936.76
1771.51
1897.84
1916.57
1935.11
1951.66
1951.9
1936.38
1919.19
1899.79
1776.89
1650.52
1886.86
1984.2
2014.57
2030.34
2030.57
2015.35
1985.41
1888.3
1654.39
1822.67
1822.78
1822.89
1822.99
1823.1
1823.21
1823.31
1823.42
1823.52
1823.63
1822.29
1822.4
1822.52
1822.63
1822.75
1822.87
1823
1823.12
1823.25
1823.39
1821.97
1822.08
1822.19
1822.31
1822.44
1822.57
1822.7
1822.85
1822.99
1823.14
1821.77
1821.87
1821.98
1822.09
1822.22
1822.35
1822.49
1822.64
1822.79
1822.95
1821.64
1821.73
1821.83
1821.94
1822.05
1822.18
1822.32
1822.46
1822.61
1822.77
1821.54
1821.62
1821.71
1821.81
1821.92
1822.04
1822.17
1822.3
1822.45
1822.6
1821.48
1821.54
1821.62
1821.71
1821.8
1821.91
1822.02
1822.15
1822.28
1822.42
1821.43
1821.48
1821.55
1821.62
1821.7
1821.79
1821.88
1821.99
1822.1
1822.22
1821.4
1821.44
1821.48
1821.54
1821.6
1821.67
1821.74
1821.82
1821.91
1822
1821.38
1821.41
1821.44
1821.47
1821.51
1821.55
1821.6
1821.65
1821.7
1821.76
1821.4
1821.41
1821.42
1821.43
1821.45
1821.46
1821.47
1821.48
1821.49
1821.5
1821.44
1821.44
1821.44
1821.43
1821.42
1821.4
1821.38
1821.34
1821.3
1821.25
1821.54
1821.53
1821.51
1821.49
1821.46
1821.41
1821.35
1821.27
1821.18
1821.06
1821.69
1821.68
1821.66
1821.63
1821.58
1821.52
1821.44
1821.33
1821.19
1821.01
1821.9
1821.9
1821.89
1821.86
1821.82
1821.76
1821.67
1821.55
1821.4
1821.19
1822.19
1822.21
1822.21
1822.21
1822.2
1822.16
1822.11
1822.02
1821.9
1821.73
1822.53
1822.58
1822.62
1822.66
1822.68
1822.7
1822.69
1822.67
1822.61
1822.51
1822.91
1823
1823.09
1823.19
1823.29
1823.39
1823.49
1823.61
1823.73
1823.88
1823.3
1823.43
1823.58
1823.73
1823.89
1824.07
1824.26
1824.47
1824.7
1824.97
1823.66
1823.84
1824.04
1824.25
1824.48
1824.72
1824.99
1825.28
1825.61
1825.97
1823.97
1824.21
1824.46
1824.72
1825
1825.31
1825.63
1825.99
1826.38
1826.81
1824.21
1824.5
1824.81
1825.13
1825.46
1825.82
1826.19
1826.59
1827.02
1827.48
1824.37
1824.73
1825.09
1825.47
1825.85
1826.25
1826.66
1827.09
1827.55
1828.03
1824.45
1824.89
1825.33
1825.76
1826.2
1826.63
1827.07
1827.53
1827.99
1828.48
1824.5
1825.04
1825.56
1826.05
1826.53
1827
1827.46
1827.92
1828.39
1828.87
1824.66
1825.28
1825.87
1826.41
1826.92
1827.4
1827.87
1828.32
1828.78
1829.24
1824.9
1825.65
1826.3
1826.88
1827.39
1827.87
1828.32
1828.75
1829.18
1829.6
1825.58
1826.37
1827.01
1827.55
1828.03
1828.45
1828.85
1829.24
1829.61
1829.98
1827.74
1828.06
1828.36
1828.65
1828.94
1829.23
1829.51
1829.8
1830.09
1830.38
1829.37
1829.43
1829.54
1829.67
1829.82
1829.98
1830.15
1830.34
1830.55
1830.76
1830.73
1830.65
1830.61
1830.62
1830.64
1830.69
1830.75
1830.84
1830.96
1831.09
1831.86
1831.68
1831.55
1831.45
1831.37
1831.31
1831.28
1831.27
1831.29
1831.33
1832.62
1832.54
1832.35
1832.16
1831.98
1831.83
1831.71
1831.6
1831.53
1831.47
1833.19
1833.33
1833.04
1832.76
1832.5
1832.26
1832.04
1831.84
1831.66
1831.5
1833.92
1833.97
1833.61
1833.26
1832.92
1832.59
1832.28
1831.98
1831.69
1831.42
1834.93
1834.5
1834.09
1833.68
1833.27
1832.86
1832.45
1832.04
1831.64
1831.23
1835.4
1834.96
1834.52
1834.07
1833.6
1833.11
1832.6
1832.07
1831.53
1830.98
1835.83
1835.41
1834.95
1834.46
1833.94
1833.38
1832.77
1832.12
1831.42
1830.7
1836.3
1835.89
1835.44
1834.94
1834.38
1833.75
1833.05
1832.27
1831.42
1830.51
1836.83
1836.48
1836.06
1835.58
1835.01
1834.34
1833.57
1832.66
1831.62
1830.43
1837.46
1837.19
1836.85
1836.43
1835.9
1835.24
1834.41
1833.37
1832.07
1830.43
1838.19
1838.05
1837.86
1837.59
1837.23
1836.74
1836.09
1835.23
1834.07
1832.46
1838.96
1839
1839.01
1838.99
1838.93
1838.81
1838.61
1838.34
1837.93
1837.18
1839.65
1839.87
1840.11
1840.35
1840.6
1840.89
1841.22
1841.64
1842.18
1842.8
1840.09
1840.43
1840.85
1841.4
1842.01
1838.61
1831.9
1838.64
1844.75
1846.15
1840.21
1840.21
1831.23
1823.91
1838.32
1840.06
1803.43
1792.64
1832.26
1847.46
1840.37
1830.08
1787.63
1788.3
1792.14
1831.37
1800.12
1791.19
1792.02
1792.98
1835.4
1825.76
1786.39
1787.1
1787.63
1788.14
1789
1790.16
1791.19
1792.42
1831.44
1841.48
1815.09
1785.84
1786.96
1787.65
1788.23
1824.47
1843.99
1805.05
1777.09
1840.84
1842.46
1830.35
1791.87
1788.09
1825.34
1847.34
1847.77
1844.4
1739.69
1834.76
1841.48
1841.73
1835.7
1834.43
1844.32
1846.87
1848
1849.06
1775.27
1838.92
1840.25
1841.54
1842.85
1844.17
1845.49
1846.83
1848.17
1849.49
1831.72
1838.7
1839.9
1841.2
1842.57
1844.01
1845.49
1847.02
1848.58
1850.14
1836.51
1837.71
1839.1
1840.6
1842.19
1843.83
1845.51
1847.16
1848.99
1850.88
1834.39
1836.17
1837.94
1839.84
1841.73
1843.64
1845.45
1847.38
1849.38
1851.41
1832.63
1834.78
1836.93
1839.09
1841.32
1843.49
1845.66
1847.79
1849.88
1852.09
1831.09
1833.42
1836.21
1838.68
1841.11
1843.49
1845.85
1848.17
1850.46
1852.72
1829.64
1832.92
1835.65
1838.41
1841.14
1843.77
1846.32
1848.78
1851.16
1853.41
1827.33
1831.84
1835.19
1838.31
1841.42
1844.49
1847.37
1849.93
1851.7
1853.59
1828.67
1832.89
1836.23
1839.42
1842.63
1845.91
1848.94
1850.17
1851.41
1855.06
1831.92
1834.76
1837.77
1841.03
1844.57
1848.27
1849.48
1849.57
1855.1
1847.39
1833.92
1835.81
1838.42
1841.67
1845.1
1848.95
1852.55
1840.81
1672.94
1369.42
1832.36
1829.85
1814.25
1836.3
1841.61
1848.25
1781.43
1335.18
1025.88
1017.59
1819.95
1788.43
1788.56
1812.02
1832.1
1658.5
1009.35
939.089
949.131
1031.53
1779.96
1762.12
1776.29
1789.72
1442.76
787.22
821.858
978.653
1351.89
1806.4
1751.58
1743.99
1751.32
1258.83
629.49
640.268
1013.47
1760.06
1881.41
1880.27
1768.65
1760.39
1255.41
541.874
532.592
544.842
1460.74
1874.12
1878.59
1870.65
1787.21
1420.53
558.757
503.864
511.602
619.946
1550.04
1862.56
1862.34
1849.84
1632.67
713.428
483.384
486.214
491.388
761.924
1683.47
1845.65
1838.96
1823.53
1112.42
468.21
470.791
472.668
477.019
1217.5
1807.35
1825.43
1811.33
1794.5
492.429
455.735
458.195
461.806
577.015
1587.92
1810.34
1802.21
1785.61
1767.04
440.044
443.472
446.303
450.434
1347.19
1799.75
1796.41
1781.82
1763.9
1743.75
425.022
427.776
432.508
755.913
1669.87
1795.54
1783.68
1766.57
1747.07
1725.38
411.173
414.336
414.822
1527.38
1798.49
1788.89
1773.29
1755.02
1734.55
1711.89
393.891
399.014
939.413
1747.74
1795.28
1782.56
1766.08
1747.29
1726.43
1703.52
377.708
372.648
1562.88
1801.72
1792.35
1778.15
1761.77
1743.37
1722.93
1700.27
363.744
765.797
1732.58
1799.65
1790.39
1776.77
1760.92
1743.34
1724.28
1704.41
345.33
1346.07
1818.7
1807.98
1794.52
1779.67
1763.26
1745.37
1725.85
1705.68
333.005
1595.05
1823.44
1811.12
1797.44
1783.08
1767.71
1751.2
1733.41
1716.52
655.761
1742.72
1819.68
1810.58
1799.45
1787.01
1773.57
1759.23
1744.23
1731.62
849.257
1802.07
1823.3
1813.87
1803.46
1792.18
1780.12
1767.48
1754.82
1745
1046.19
1822.71
1824.65
1816.43
1807.26
1797.22
1786.31
1774.83
1763.39
1754.09
1221.24
1827.51
1825.05
1819.1
1811.53
1802.79
1792.94
1782.58
1772.35
1739.22
1360.73
1831.74
1830.18
1824.92
1817.77
1809.04
1798.86
1788.27
1778.11
1538.19
1522.96
1846.51
1842.56
1836.2
1828.1
1817.98
1805.71
1791.96
1776.54
1381.17
1693.78
1866.03
1859.6
1852.05
1843.29
1832.75
1820.28
1806.86
1793.52
1250.07
1826.61
1883.29
1876.12
1868.22
1859.65
1849.84
1838.86
1828.15
1820.27
1213.13
1888.89
1898.11
1890.28
1882.07
1873.6
1864.33
1854.57
1845.85
1838.28
1226.51
1914.54
1908.42
1900.25
1891.93
1883.43
1874.29
1864.88
1856.47
1830.08
1215.4
1919.49
1913.32
1905.71
1898.05
1890.01
1881.27
1871.88
1863.14
1827.99
1023.04
1918.86
1914.72
1908.74
1902.56
1895.59
1887.71
1879.13
1870.18
1831.82
854.626
1920.61
1917.44
1912.57
1907.73
1902.22
1896.02
1889.23
1881.14
1855.12
828.674
1925.62
1921.53
1916.35
1912.47
1908.96
1905.24
1901.42
1895.77
1885.52
1164.97
1915.97
1918.23
1916.04
1914.77
1914.6
1914.08
1913.71
1911.46
1906.08
1590.4
1897.92
1910.1
1914.19
1916.75
1920.42
1923.43
1926.88
1930.04
1927.91
1815.96
1819.7
1905.05
1914.82
1920.63
1927.28
1933.32
1940.02
1947.89
1950.65
1931.17
1764.76
1906.21
1918.12
1925.91
1934.19
1942.4
1951.57
1961.8
1970.3
1983.44
1760.62
1912.64
1923.47
1931.58
1939.34
1947.95
1958.35
1969.21
1986.04
1988.52
1777.81
1928.4
1934.01
1939.56
1943.4
1949.24
1956.92
1961.82
1981.74
1966.98
1858.22
1955.73
1947.02
1951.39
1950.23
1952.64
1955.69
1948.86
1957.96
1919.19
1823.75
1823.88
1824.01
1824.16
1824.3
1824.46
1824.62
1824.78
1824.95
1825.13
1825.31
1825.49
1825.67
1825.86
1826.04
1826.22
1826.39
1826.55
1826.7
1826.84
1826.95
1827.05
1827.12
1827.16
1827.17
1827.15
1827.1
1827.02
1826.91
1826.78
1826.64
1826.49
1826.36
1826.26
1826.18
1826.15
1826.14
1826.15
1826.16
1826.29
1823.53
1823.69
1823.86
1824.02
1824.19
1824.36
1824.53
1824.7
1824.88
1825.05
1825.21
1825.38
1825.54
1825.69
1825.84
1825.99
1826.12
1826.24
1826.35
1826.45
1826.53
1826.59
1826.63
1826.64
1826.64
1826.62
1826.57
1826.51
1826.43
1826.34
1826.26
1826.18
1826.12
1826.08
1826.08
1826.1
1826.14
1826.18
1826.21
1826.38
1823.31
1823.49
1823.67
1823.86
1824.04
1824.22
1824.4
1824.58
1824.75
1824.92
1825.08
1825.23
1825.37
1825.51
1825.63
1825.75
1825.86
1825.95
1826.04
1826.11
1826.16
1826.21
1826.23
1826.25
1826.24
1826.23
1826.2
1826.16
1826.12
1826.08
1826.04
1826.01
1825.99
1825.98
1825.99
1826
1826
1826.01
1826.06
1826.19
1823.12
1823.31
1823.5
1823.69
1823.88
1824.07
1824.25
1824.43
1824.6
1824.77
1824.93
1825.08
1825.22
1825.35
1825.47
1825.58
1825.68
1825.78
1825.86
1825.93
1825.99
1826.03
1826.07
1826.09
1826.1
1826.11
1826.1
1826.08
1826.05
1826.03
1825.99
1825.96
1825.93
1825.9
1825.86
1825.83
1825.8
1825.8
1825.85
1825.96
1822.94
1823.13
1823.32
1823.51
1823.71
1823.9
1824.08
1824.27
1824.44
1824.61
1824.78
1824.93
1825.08
1825.22
1825.35
1825.47
1825.58
1825.69
1825.78
1825.87
1825.95
1826.01
1826.07
1826.12
1826.15
1826.18
1826.19
1826.19
1826.17
1826.15
1826.1
1826.04
1825.97
1825.87
1825.76
1825.65
1825.56
1825.53
1825.56
1825.63
1822.76
1822.94
1823.13
1823.32
1823.51
1823.7
1823.89
1824.08
1824.27
1824.45
1824.62
1824.79
1824.95
1825.11
1825.26
1825.4
1825.53
1825.66
1825.78
1825.9
1826
1826.1
1826.19
1826.27
1826.34
1826.39
1826.43
1826.45
1826.45
1826.42
1826.36
1826.27
1826.13
1825.94
1825.69
1825.44
1825.23
1825.19
1825.25
1825.29
1822.57
1822.74
1822.92
1823.1
1823.29
1823.48
1823.67
1823.86
1824.06
1824.25
1824.44
1824.63
1824.82
1825
1825.18
1825.35
1825.52
1825.68
1825.84
1825.99
1826.13
1826.27
1826.4
1826.52
1826.63
1826.73
1826.8
1826.86
1826.88
1826.87
1826.82
1826.7
1826.5
1826.2
1825.75
1824.92
1824.35
1824.5
1824.8
1824.93
1822.36
1822.51
1822.67
1822.83
1823.01
1823.2
1823.39
1823.6
1823.81
1824.02
1824.23
1824.45
1824.67
1824.88
1825.1
1825.31
1825.52
1825.72
1825.92
1826.12
1826.31
1826.5
1826.68
1826.85
1827.01
1827.16
1827.29
1827.41
1827.49
1827.53
1827.51
1827.42
1827.22
1826.88
1826.31
1822.56
1809.14
1807.04
1809.7
1812.47
1822.11
1822.23
1822.36
1822.51
1822.67
1822.84
1823.04
1823.25
1823.48
1823.72
1823.97
1824.22
1824.48
1824.74
1825
1825.26
1825.51
1825.77
1826.02
1826.27
1826.52
1826.76
1827
1827.23
1827.45
1827.67
1827.88
1828.08
1828.26
1828.42
1828.57
1828.69
1828.77
1828.82
1828.82
1823.32
1801.57
1799.61
1798.83
1798.61
1821.83
1821.9
1821.98
1822.09
1822.22
1822.37
1822.56
1822.79
1823.05
1823.34
1823.63
1823.93
1824.24
1824.55
1824.87
1825.18
1825.5
1825.81
1826.12
1826.42
1826.73
1827.03
1827.33
1827.62
1827.91
1828.19
1828.47
1828.75
1829.03
1829.31
1829.58
1829.87
1830.17
1830.48
1830.82
1831.19
1826.5
1801.12
1798.35
1797.93
1821.51
1821.52
1821.49
1821.48
1821.58
1821.72
1821.93
1822.2
1822.5
1822.83
1823.18
1823.55
1823.93
1824.31
1824.69
1825.08
1825.45
1825.83
1826.2
1826.56
1826.93
1827.29
1827.64
1827.99
1828.34
1828.68
1829.03
1829.37
1829.72
1830.07
1830.43
1830.8
1831.2
1831.63
1832.09
1832.58
1833.07
1833.43
1827.08
1817.75
1821.18
1821.1
1820.95
1820.3
1820.16
1820.85
1821.04
1821.35
1821.7
1822.05
1822.52
1823.07
1823.54
1824.01
1824.48
1824.94
1825.39
1825.83
1826.26
1826.69
1827.11
1827.53
1827.94
1828.34
1828.73
1829.12
1829.51
1829.89
1830.27
1830.65
1831.03
1831.42
1831.8
1832.18
1832.56
1832.9
1833.15
1833.15
1832.79
1832.14
1820.9
1820.7
1820.46
1819.51
1813.8
1814
1819.85
1820.2
1820.36
1820.97
1821.66
1822.51
1823.09
1823.67
1824.23
1824.77
1825.3
1825.81
1826.32
1826.81
1827.29
1827.75
1828.21
1828.66
1829.09
1829.52
1829.93
1830.34
1830.73
1831.11
1831.48
1831.84
1832.17
1832.47
1832.72
1832.9
1832.96
1832.79
1832.35
1831.76
1820.78
1820.46
1820.08
1819.61
1810.06
1800.64
1817.99
1818.57
1819.1
1819.92
1820.96
1821.87
1822.6
1823.3
1823.97
1824.6
1825.21
1825.78
1826.35
1826.92
1827.46
1827.98
1828.48
1828.96
1829.43
1829.88
1830.31
1830.73
1831.12
1831.5
1831.84
1832.16
1832.43
1832.65
1832.81
1832.87
1832.81
1832.55
1832.08
1831.55
1820.92
1820.52
1820.03
1819.47
1809.44
1771.16
1794
1816.02
1817.47
1818.67
1820.19
1821.25
1822.16
1822.98
1823.76
1824.48
1825.15
1825.76
1826.39
1827.02
1827.65
1828.22
1828.76
1829.28
1829.77
1830.24
1830.69
1831.11
1831.51
1831.86
1832.19
1832.46
1832.68
1832.85
1832.93
1832.92
1832.78
1832.48
1832.01
1831.52
1821.49
1821.14
1820.68
1820.15
1818.94
1743.41
1680.77
1803.2
1815.79
1818.03
1819.58
1820.82
1821.86
1822.79
1823.64
1824.44
1825.18
1825.84
1826.52
1827.18
1827.86
1828.49
1829.07
1829.62
1830.14
1830.63
1831.09
1831.52
1831.91
1832.26
1832.56
1832.81
1832.99
1833.11
1833.15
1833.09
1832.91
1832.58
1832.11
1831.65
1822.33
1822.03
1821.58
1820.87
1819.39
1733.78
1610.15
1633.2
1809.86
1820.2
1820.8
1821.4
1822.14
1822.93
1823.75
1824.58
1825.36
1826.1
1826.77
1827.45
1828.16
1828.83
1829.45
1830.03
1830.58
1831.09
1831.55
1831.98
1832.38
1832.72
1833
1833.23
1833.39
1833.48
1833.48
1833.39
1833.18
1832.84
1832.37
1831.94
1824.06
1824.34
1824.77
1825.47
1826.28
1763.92
1587.2
1581.74
1596.06
1767.45
1821.33
1821.43
1822.25
1823.06
1823.88
1824.71
1825.58
1826.38
1827.14
1827.86
1828.5
1829.17
1829.89
1830.52
1831.09
1831.62
1832.1
1832.54
1832.94
1833.27
1833.55
1833.76
1833.91
1833.97
1833.95
1833.83
1833.61
1833.25
1832.79
1832.37
1825.3
1825.73
1826.27
1826.99
1827.99
1828.84
1761.5
1581.27
1562.87
1562.62
1672.53
1810.24
1821.94
1823.2
1824.04
1824.93
1825.82
1826.74
1827.57
1828.35
1828.53
1828.66
1829.9
1831.01
1831.72
1832.26
1832.75
1833.2
1833.61
1833.94
1834.22
1834.42
1834.55
1834.6
1834.56
1834.43
1834.18
1833.8
1833.33
1832.91
1826.42
1826.96
1827.61
1828.38
1829.32
1830.54
1832.2
1808.03
1639.89
1539.09
1537.14
1577.81
1777.63
1822.95
1824.33
1825.33
1826.26
1827.23
1828.14
1828.93
1828.78
1829.24
1829.92
1830.56
1831.84
1832.71
1833.55
1834.01
1834.41
1834.74
1835.01
1835.21
1835.33
1835.37
1835.32
1835.16
1834.89
1834.5
1833.99
1833.34
1827.31
1827.91
1828.6
1829.39
1830.3
1831.33
1832.47
1833.72
1828.47
1672.54
1523.86
1521.32
1529.61
1726.21
1825.01
1826.33
1827.26
1828.08
1828.93
1829.76
1830.34
1830.08
1830.72
1831.39
1832.02
1832.6
1834.14
1834.94
1835.34
1835.68
1835.95
1836.14
1836.26
1836.28
1836.22
1836.04
1835.76
1835.32
1834.47
1833.5
1828.01
1828.63
1829.31
1830.07
1830.91
1831.83
1832.81
1833.82
1835.03
1835.04
1727.72
1528.13
1507.78
1503.78
1621.44
1809.65
1827.71
1828.95
1829.81
1830.66
1831.51
1832.32
1832.21
1832.33
1833
1833.61
1834.5
1836.01
1836.42
1836.76
1837.02
1837.21
1837.31
1837.32
1837.24
1837.05
1836.73
1836.24
1834.9
1834.3
1828.57
1829.17
1829.82
1830.53
1831.29
1832.11
1832.96
1833.83
1834.73
1835.72
1836.78
1801.58
1641.9
1517.12
1517.13
1553.75
1783.36
1829.33
1830.74
1831.68
1832.55
1833.38
1834.18
1834.91
1834.57
1834.79
1836.31
1837.21
1837.62
1837.95
1838.21
1838.38
1838.47
1838.46
1838.35
1838.13
1837.79
1837.24
1835.83
1835.16
1829.01
1829.59
1830.21
1830.87
1831.56
1832.29
1833.05
1833.84
1834.65
1835.45
1836.2
1837.09
1835.61
1743.87
1535.49
1513.13
1534.76
1785.26
1832.04
1833.19
1833.92
1834.53
1835.3
1836.1
1836.81
1837.45
1838.03
1838.53
1838.93
1839.25
1839.49
1839.64
1839.7
1839.66
1839.52
1839.27
1838.87
1838.31
1837.47
1836.15
1829.38
1829.94
1830.51
1831.12
1831.75
1832.4
1833.09
1833.8
1834.53
1835.29
1836.06
1836.86
1837.81
1838.63
1744.9
1516.47
1505.51
1537.7
1798.73
1834.27
1835.34
1835.35
1834.75
1834.75
1838.2
1838.95
1839.49
1839.95
1840.33
1840.62
1840.82
1840.94
1840.97
1840.89
1840.71
1840.41
1839.96
1839.32
1838.59
1837.83
1829.72
1830.23
1830.76
1831.31
1831.87
1832.46
1833.07
1833.71
1834.37
1835.08
1835.85
1836.69
1837.67
1838.89
1839.68
1687.62
1496.63
1497.11
1596.78
1834.63
1836.81
1837.26
1817.54
1808.01
1837.1
1840.5
1841.02
1841.43
1841.76
1842.01
1842.17
1842.24
1842.22
1842.1
1841.86
1841.51
1841
1840.22
1839.25
1838.42
1830.04
1830.5
1830.97
1831.46
1831.95
1832.46
1832.98
1833.52
1834.07
1834.64
1835.23
1835.85
1836.53
1837.31
1838.24
1813.39
1557.87
1490.09
1506.26
1783.78
1842.06
1831.93
1805.85
1807.07
1825.19
1842.05
1842.54
1842.9
1843.17
1843.35
1843.45
1843.47
1843.39
1843.22
1842.94
1842.53
1841.98
1841.15
1838.99
1837.28
1830.37
1830.77
1831.17
1831.58
1832.01
1832.44
1832.88
1833.32
1833.76
1834.2
1834.61
1834.99
1835.3
1835.54
1835.66
1833.43
1637.33
1484.24
1488.13
1741.28
1845.94
1833.24
1806.77
1807.7
1828.22
1843.69
1844.07
1844.33
1844.5
1844.6
1844.63
1844.58
1844.44
1844.21
1843.88
1843.43
1842.84
1841.99
1839.27
1837.82
1830.69
1831.02
1831.35
1831.7
1832.05
1832.42
1832.8
1833.18
1833.56
1833.93
1834.27
1834.57
1834.76
1834.77
1834.52
1833.67
1695.49
1477.62
1491.65
1741.2
1847.73
1837.06
1807.76
1807.63
1837.92
1845.55
1845.6
1845.66
1845.69
1845.69
1845.63
1845.51
1845.31
1845.03
1844.65
1844.15
1843.52
1842.51
1839.69
1838.33
1830.99
1831.24
1831.5
1831.77
1832.07
1832.38
1832.71
1833.06
1833.42
1833.79
1834.15
1834.47
1834.71
1834.79
1834.62
1833.83
1691.51
1475.28
1488.92
1743.96
1848.22
1839.69
1807.82
1810.67
1843.56
1846.65
1846.64
1846.6
1846.55
1846.5
1846.4
1846.22
1845.98
1845.64
1845.22
1844.69
1844.03
1842.63
1839.5
1838.71
1831.23
1831.39
1831.58
1831.79
1832.02
1832.29
1832.58
1832.92
1833.29
1833.69
1834.13
1834.58
1835.04
1835.45
1835.76
1831.71
1620.06
1471.06
1490.94
1775.4
1847.62
1836.97
1807.89
1818.41
1847.16
1847.21
1847.21
1847.17
1847.11
1847.02
1846.9
1846.71
1846.43
1846.06
1845.61
1845.06
1844.38
1842.85
1839.78
1838.99
1831.39
1831.46
1831.56
1831.7
1831.87
1832.09
1832.36
1832.7
1833.11
1833.61
1834.23
1834.96
1835.84
1836.89
1838.12
1809.01
1534.76
1464.47
1528.05
1837.15
1845.5
1833.61
1809.1
1834.29
1847.18
1847.35
1847.41
1847.41
1847.38
1847.29
1847.17
1846.97
1846.68
1846.3
1845.84
1845.28
1844.59
1843.52
1841.77
1839.39
1831.43
1831.41
1831.41
1831.46
1831.56
1831.72
1831.94
1832.26
1832.69
1833.25
1833.98
1834.91
1836.07
1837.53
1839.35
1758.48
1481.02
1459.4
1666.53
1840.52
1842.97
1834.47
1817.39
1846.41
1846.91
1847.21
1847.37
1847.41
1847.4
1847.37
1847.25
1847.04
1846.76
1846.39
1845.94
1845.38
1844.68
1843.84
1842.9
1841.98
1831.35
1831.21
1831.1
1831.05
1831.04
1831.11
1831.25
1831.49
1831.83
1832.3
1832.9
1833.59
1834.32
1835.09
1815.3
1543.28
1459.84
1456.65
1721.62
1844.14
1843.45
1828.32
1834.12
1846.88
1847.06
1847.2
1847.27
1847.3
1847.28
1847.25
1847.14
1846.94
1846.67
1846.32
1845.9
1845.37
1844.7
1843.86
1842.9
1842.1
1831.14
1830.87
1830.64
1830.45
1830.33
1830.29
1830.34
1830.5
1830.78
1831.2
1831.8
1832.55
1833.55
1832.53
1628.02
1448.13
1449.46
1542.96
1840.76
1842.65
1820.01
1817.58
1833.65
1846.37
1846.66
1846.8
1846.85
1846.86
1846.87
1846.9
1846.84
1846.65
1846.37
1846.05
1845.7
1845.25
1844.63
1843.81
1842.84
1841.98
1830.82
1830.4
1830.01
1829.68
1829.41
1829.24
1829.18
1829.23
1829.35
1829.58
1829.94
1830.41
1831.11
1771.21
1466.31
1439.43
1500.01
1824.99
1825.96
1815.45
1805.63
1821.28
1845.62
1845.97
1846.18
1846.21
1846.09
1845.99
1846.1
1846.3
1846.36
1846.1
1845.74
1845.46
1845.25
1844.93
1844.42
1843.68
1842.71
1841.8
1830.4
1829.8
1829.22
1828.69
1828.24
1827.92
1827.76
1827.66
1827.44
1827.04
1826.42
1825.51
1823.64
1613.41
1329.62
1599.93
1842.38
1840.38
1805
1801.19
1803.93
1843.8
1845.24
1845.55
1845.66
1845.53
1844.28
1836.08
1827.46
1840.59
1846.17
1844.52
1836.2
1835.08
1841.97
1844.18
1844.03
1843.46
1842.53
1841.61
1829.93
1829.11
1828.29
1827.59
1827.08
1826.84
1826.94
1827.12
1826.94
1826.14
1824.54
1822.99
1725.93
1311.6
1281.05
1758.36
1839.6
1841.02
1829.24
1812.37
1837.68
1843.87
1844.69
1845.16
1845.31
1844.17
1815.51
1771.88
1764.16
1782.33
1812.99
1801.66
1770.23
1766.49
1789.43
1808.58
1833.35
1842.97
1842.35
1841.48
1829.51
1828.5
1827.35
1825.74
1825.66
1824.27
1824.63
1827.54
1827.39
1823.53
1774.06
1354.6
1190.24
1201.52
1216.9
1633.99
1840.87
1841.59
1841.66
1842.18
1842.7
1842.28
1843.04
1844.13
1840.19
1797.63
1761.24
1761.84
1762.23
1762.67
1762.93
1762.95
1762.78
1762.5
1762.23
1761.72
1775.64
1820.28
1842.22
1841.38
1829.06
1827.64
1826.35
1823.76
1773.42
1564.46
1503.21
1667.61
1690.67
1327.23
1135.83
1116.14
1130.5
1280.19
1766.07
1837.19
1837.42
1836.09
1835.96
1840.66
1838.92
1838.64
1840.17
1843.42
1819
1759.74
1759.98
1760.22
1777.97
1787.02
1761.87
1761.87
1761.59
1761.94
1761.15
1760.86
1760.89
1778.25
1840.99
1841.17
1828.24
1825.22
1805.43
1421.25
1096.85
1072.54
1089.85
1127.34
1124.64
1077.51
1080.98
1089.91
1269.88
1772.59
1838.56
1839.86
1806.11
1738.16
1721.12
1802.92
1836.11
1842.04
1843.8
1844.99
1827.57
1760.24
1759.26
1799.9
1849.7
1849.86
1832.57
1812.52
1828
1831.5
1804.67
1777.84
1766.84
1783.31
1827.32
1840.66
1829.93
1808.81
1371.8
1062.02
1061.98
1061.8
1061.78
1061.62
1062.62
1064.81
1068.3
1162.95
1696.85
1840.22
1840.96
1757.61
1701.95
1703.3
1704.03
1731.95
1841.96
1842.43
1842.97
1843.64
1844.24
1830.17
1810.23
1845.51
1846.39
1846.89
1847.02
1847.04
1847.02
1846.8
1846.1
1845.06
1843.44
1841.17
1815.9
1838.44
1835.63
1780.41
1254.93
1060.21
1060.69
1060.57
1060.58
1060.83
1060.73
1061.38
1078.08
1538.82
1839.7
1841.19
1740.47
1701.1
1700.83
1700.69
1747.39
1836.61
1840.77
1840.96
1841.27
1841.67
1842.12
1842.57
1842.99
1843.44
1844.04
1844.53
1844.85
1845.04
1845.1
1844.94
1844.51
1843.78
1842.78
1840.28
1814.12
1821.19
1843.53
1844.21
1716.31
1190.69
1057.87
1058.59
1058.61
1058.44
1058.84
1060.69
1453.8
1855.5
1837.01
1752.64
1702.2
1700.22
1717.22
1831.35
1841.37
1840.14
1839.61
1839.41
1839.39
1839.51
1839.75
1840.07
1840.47
1840.97
1841.51
1842.03
1842.49
1842.86
1843.1
1843.17
1843
1842.56
1841.78
1837.15
1812.76
1810.05
1847.84
1850.12
1849.77
1783.54
1493.69
1177.61
1085.83
1102.44
1391.95
1732.82
1850.05
1855.12
1818.4
1709.31
1703.88
1814.75
1842.53
1840.76
1839.48
1838.5
1837.78
1837.29
1837.02
1836.92
1836.99
1837.2
1837.56
1838.04
1838.61
1839.23
1839.86
1840.45
1840.94
1841.26
1841.36
1841.17
1840.6
1837.81
1831.12
1808.56
1846.76
1825.33
1810.64
1813.92
1817.29
1773.3
1743.17
1760.4
1836.06
1855.45
1852.91
1850.41
1847.34
1845.27
1843.34
1841.28
1839.69
1838.38
1837.22
1836.2
1835.35
1834.68
1834.2
1833.91
1833.8
1833.9
1834.2
1834.68
1835.33
1836.11
1836.96
1837.83
1838.63
1839.29
1839.7
1839.8
1839.47
1838.43
1834.56
1807.04
1794.59
1811.72
1849.01
1837.25
1811.73
1845.51
1852.66
1853.56
1852.85
1851.13
1847.07
1844.73
1845.72
1843.17
1840.73
1838.7
1837.15
1835.89
1834.72
1833.65
1832.7
1831.85
1831.11
1830.55
1830.2
1830.13
1830.35
1830.82
1831.55
1832.51
1833.66
1834.91
1836.13
1837.22
1838.05
1838.52
1838.49
1837.74
1832.23
1806.11
1793.57
1835.01
1852.37
1824.29
1812.4
1821.74
1845.52
1852.83
1851.85
1847.11
1844.48
1842.13
1840.71
1840.52
1837.58
1835.31
1834.06
1832.81
1832.05
1829.88
1828.42
1829.15
1828.08
1827.03
1826.26
1825.95
1826.07
1826.47
1827.23
1828.4
1829.92
1831.64
1833.41
1835.08
1836.49
1837.47
1837.84
1837.37
1831.88
1816.83
1799.83
1850.08
1851.64
1843.36
1817.19
1830.92
1852.71
1852.26
1851.25
1847.73
1843.68
1841.1
1839.11
1834.82
1821.35
1800.3
1806.75
1830.28
1830.04
1813.01
1809.8
1824.07
1822.68
1822.62
1821.56
1820.62
1820.58
1820.42
1820.84
1822.38
1824.81
1827.63
1830.43
1833.04
1835.29
1836.95
1837.89
1837.77
1834.41
1825.63
1844.4
1849.89
1851.6
1851.89
1851.6
1852.18
1853.26
1852.93
1852.11
1850.77
1848.9
1846.49
1843.12
1829.22
1573.14
1367.14
1638.59
1830.57
1826.7
1808.84
1807.64
1812.12
1808.67
1740.92
1728.17
1700.63
1724.51
1679.43
1658.54
1679.58
1725.72
1779.43
1815.57
1829.48
1834.37
1837.47
1839.15
1839.49
1837.6
1827.52
1850.17
1851.29
1852.35
1853.28
1854.07
1854.68
1855.05
1855.07
1854.71
1853.93
1852.77
1851.15
1847.06
1642.02
1218.76
1224.5
1475.05
1833.03
1828.5
1812.5
1810.81
1816.98
1812.88
1670.79
1331.13
1180.43
1217.57
1152.33
1116.17
1136.51
1192.71
1302.54
1458.8
1633.25
1785.75
1837.75
1841.96
1843.03
1842.12
1833.36
1850.85
1852.25
1853.59
1854.84
1855.98
1856.97
1857.75
1858.26
1858.46
1858.33
1857.32
1850.83
1733.34
1221.3
1012.15
1261.07
1770.19
1838.16
1831.93
1838.52
1835.82
1834.75
1832.77
1729.33
1241.33
1024.49
1010.6
1016.4
1025.77
1033.71
1042.33
1051.44
1103.92
1199.76
1410.97
1699.81
1841.2
1847.37
1848.79
1850.29
1851.77
1853.47
1855.13
1856.75
1858.3
1859.76
1861.06
1862.16
1862.92
1863.5
1863.95
1812.74
1364.86
975.58
984.249
1464.84
1848.46
1848
1847.86
1848.1
1848.43
1844.42
1795.45
1742.64
1371.11
1124.68
982.868
1025.26
1107.47
1094.02
1088.28
1107.72
1119.71
1141.88
1156.82
1322.25
1717.82
1844.23
1857.69
1860.84
1852.78
1854.79
1856.77
1858.68
1860.81
1862.8
1864.73
1866.42
1868.1
1870.2
1870.84
1813.98
1219.68
908.339
892.244
1438.8
1855.94
1857.94
1858.04
1858.27
1855.55
1492.95
1134.88
1090.95
1190.79
1152.1
905.176
1113.84
1417.01
1506.66
1521.36
1520.64
1448.15
1286.6
1189.76
1204.54
1414.03
1812
1867.23
1874.13
1853.71
1856.06
1857.92
1858.72
1857.4
1858.28
1857.6
1861.7
1870.83
1878.27
1881.75
1882.57
1571.6
922.737
831.843
1062.08
1637.98
1844.49
1870.39
1871.07
1561.56
912.093
799.419
798.655
797.93
814.359
818.878
898.337
1203.26
1512.87
1611.61
1623.84
1626.81
1624.3
1422.84
1221.05
1254.94
1684.06
1877.05
1889.68
1854.57
1857.11
1858.8
1860.66
1843.43
1832.45
1836.09
1839.86
1861.03
1885.92
1892.48
1898.33
1780.52
999.659
814.673
812.521
870.918
1191.32
1396.03
1259.9
880.559
796.641
796.95
797.301
797.567
797.826
798.16
798.659
805.471
875.906
1082.87
1392.82
1619.71
1638.99
1635.01
1387.62
1272.89
1518.1
1881.57
1902.77
1855.1
1857.62
1860.23
1863.02
1856.31
1840.43
1840.7
1849.6
1866.54
1892.69
1903.97
1911.39
1491.82
849.196
810.39
810.355
814.123
816.35
810.998
802.08
796.656
796.265
796.688
797.341
798.016
798.652
799.386
800.406
801.334
802.07
803.039
804.46
1023.05
1552.9
1648.19
1638.89
1292.53
1472.02
1884.34
1917.34
1855.59
1857.67
1859.55
1861.43
1864.07
1868.02
1872.68
1866.14
1854.81
1859.96
1877.01
1758.05
1106.6
856.379
815.497
832.002
848.082
871.367
926.459
975.354
974.271
942.677
879.947
832.733
816.999
811.78
809.591
805.081
803.266
804.047
804.55
805.055
805.422
918.775
1592.68
1647.63
1340.33
1492.25
1888.13
1932.55
1856.21
1857.49
1858.2
1858.85
1859.98
1849
1817.77
1797.43
1720.6
1718.06
1727.16
1612.42
1328.43
1356.8
1481.62
1576.37
1622.96
1696.1
1788.86
1806.52
1788.93
1726.84
1586.98
1449.8
1402.99
1353.97
1211.24
998.079
840.323
805.25
805.701
806.012
806.506
806.688
1045.17
1631.68
1583.53
1582.41
1893.47
1949.53
1860.13
1859.7
1806.64
1686.2
1519.99
1457.6
1630.64
1737.6
1748.57
1717.23
1712.36
1719.09
1866.43
1865.92
1868.15
1870.97
1873.71
1877.39
1881.27
1884.37
1887.1
1890.21
1894.59
1901.78
1911.95
1922.76
1932.25
1934.63
1685.15
964.824
806.748
808.088
808.537
809.099
809.447
1336.54
1690.72
1713.47
1906.29
1967.62
1750.53
1503.61
1248.41
1087.26
1103.96
1288.75
1815.06
1906.62
1900.78
1890.63
1852.81
1875.47
1872.9
1869.14
1867.99
1868.3
1869.42
1871.2
1873.41
1875.83
1878.6
1882
1886.33
1892.1
1899.39
1907.82
1917.01
1923.31
1923.34
1925.21
1868.26
1238.69
813.664
813.883
817
996.13
1642.92
1798.33
1927.8
1984.68
1152.53
1066.1
1070.36
1076.92
1162.83
1712.86
1923.07
1911.95
1898.38
1887.28
1878.25
1870.79
1864.79
1860.43
1857.83
1856.62
1856.4
1857.05
1858.45
1860.57
1863.41
1867.1
1871.78
1877.63
1884.81
1893.35
1903.27
1914.75
1928.6
1945.13
1964
1974.67
1697.59
912.334
829.314
899.843
1505.27
1830.81
1944.96
2002.18
1023.8
1042.98
1125.85
1321.76
1846.04
1921.71
1909.83
1895.25
1882.26
1870.98
1860.94
1852.33
1845.18
1839.73
1835.99
1833.84
1833.06
1833.39
1834.8
1837.23
1840.61
1844.91
1850.22
1856.63
1864.28
1873.35
1883.94
1896.23
1910.5
1927.11
1946.15
1968.55
1995.28
1811.93
973.959
921.506
1331.8
1826.2
1947.78
2017.85
1269.66
1573.17
1905.65
1908.54
1901.78
1893.17
1881.71
1868.81
1855.32
1843.19
1831.75
1821.68
1813.23
1806.57
1801.76
1798.89
1798.02
1798.68
1800.55
1803.2
1807.5
1813.47
1820.55
1827.88
1836.38
1846.54
1858.57
1871.63
1886.37
1902.95
1921.37
1941.72
1965.28
1994.21
1493.34
934.891
1246.52
1798.35
1936.02
2029.03
1898.36
1893.5
1888.04
1881.87
1874.16
1863.62
1850.44
1835.27
1818.6
1803.71
1789.44