/*--------------------------------*- C++ -*----------------------------------*\
  =========                 |
  \\      /  F ield         | OpenFOAM: The Open Source CFD Toolbox
   \\    /   O peration     | Website:  https://openfoam.org
    \\  /    A nd           | Version:  8
     \\/     M anipulation  |
\*---------------------------------------------------------------------------*/
FoamFile
{
    version     2.0;
    format      ascii;
    class       surfaceScalarField;
    location    "2.45";
    object      phi;
}
// * * * * * * * * * * * * * * * * * * * * * * * * * * * * * * * * * * * * * //

dimensions      [0 3 -1 0 0 0 0];

internalField   nonuniform List<scalar> 
18095
(
1.58812e-07
-9.65219e-07
8.06408e-07
1.6555e-07
-1.24838e-06
1.24164e-06
1.22232e-07
-1.24237e-06
1.28569e-06
6.52649e-08
-1.2636e-06
1.32057e-06
-1.11091e-10
-1.2806e-06
1.34597e-06
-6.54663e-08
-1.28057e-06
1.34593e-06
-1.22382e-07
-1.26354e-06
1.32045e-06
-1.65642e-07
-1.2423e-06
1.28556e-06
-1.58844e-07
-1.24832e-06
1.24152e-06
-9.65096e-07
8.06252e-07
1.1111e-07
-1.07633e-06
9.9481e-08
-1.23675e-06
7.28637e-08
-1.21575e-06
3.99914e-08
-1.23073e-06
-7.5717e-11
-1.24053e-06
-4.0131e-08
-1.24052e-06
-7.29734e-08
-1.2307e-06
-9.95613e-08
-1.21572e-06
-1.11152e-07
-1.23673e-06
-1.07625e-06
6.72364e-08
-1.14357e-06
5.28006e-08
-1.22232e-06
4.21556e-08
-1.20511e-06
2.38383e-08
-1.21241e-06
-4.95698e-11
-1.21664e-06
-2.39307e-08
-1.21664e-06
-4.22299e-08
-1.2124e-06
-5.28563e-08
-1.20509e-06
-6.7275e-08
-1.22231e-06
-1.14352e-06
3.96655e-08
-1.18323e-06
2.66427e-08
-1.20929e-06
2.20217e-08
-1.20049e-06
1.25157e-08
-1.2029e-06
-2.91837e-11
-1.2041e-06
-1.25706e-08
-1.2041e-06
-2.20668e-08
-1.2029e-06
-2.66762e-08
-1.20048e-06
-3.96929e-08
-1.20929e-06
-1.18322e-06
1.67692e-08
7.4762e-09
6.98992e-09
4.08546e-09
-1.16267e-11
-4.10762e-09
-7.00852e-09
-7.48963e-09
-1.67837e-08
-1.76416e-07
-1.16411e-06
1.34052e-06
-2.20856e-07
-1.21717e-06
1.26161e-06
-1.66743e-07
-1.21344e-06
1.15933e-06
-8.84816e-08
-1.2044e-06
1.12614e-06
-1.22314e-09
-1.2027e-06
1.11544e-06
8.60945e-08
-1.20251e-06
1.11519e-06
1.64591e-07
-1.2039e-06
1.12541e-06
2.18876e-07
-1.21271e-06
1.15842e-06
1.74627e-07
-1.21615e-06
1.26039e-06
-1.16293e-06
1.33755e-06
-9.31044e-08
-1.071e-06
-9.60943e-08
-1.21418e-06
-7.99308e-08
-1.2296e-06
-4.49403e-08
-1.23939e-06
-6.90827e-10
-1.24694e-06
4.3614e-08
-1.24681e-06
7.87435e-08
-1.23903e-06
9.51249e-08
-1.22909e-06
9.25532e-08
-1.21357e-06
-1.07037e-06
-5.8154e-08
-1.01285e-06
-5.54657e-08
-1.21687e-06
-4.69143e-08
-1.23816e-06
-2.75723e-08
-1.25874e-06
-4.17456e-10
-1.2741e-06
2.67765e-08
-1.27401e-06
4.62304e-08
-1.25849e-06
5.49655e-08
-1.23782e-06
5.79079e-08
-1.21652e-06
-1.01246e-06
-7.50302e-08
-9.37817e-07
-6.22753e-08
-1.22962e-06
-4.88757e-08
-1.25156e-06
-2.80612e-08
-1.27955e-06
-2.59527e-10
-1.3019e-06
2.75702e-08
-1.30184e-06
4.84657e-08
-1.27938e-06
6.19958e-08
-1.25135e-06
7.48967e-08
-1.22942e-06
-9.37568e-07
-1.31409e-07
-1.19389e-07
-8.52569e-08
-4.42393e-08
-1.67654e-10
4.39239e-08
8.49972e-08
1.19209e-07
1.31316e-07
-4.28253e-08
-9.41704e-07
9.84529e-07
-2.09966e-09
-1.34657e-06
1.30585e-06
-2.0025e-10
-1.27699e-06
1.27509e-06
-5.86858e-09
-1.2295e-06
1.23517e-06
-1.09366e-08
-1.22628e-06
1.23135e-06
-1.5606e-08
-1.22497e-06
1.22964e-06
-1.97263e-08
-1.22939e-06
1.23351e-06
-2.27257e-08
-1.2795e-06
1.2825e-06
-3.38948e-09
-1.34113e-06
1.32179e-06
-9.03955e-07
9.00566e-07
1.02433e-08
-9.51947e-07
1.33842e-08
-1.34971e-06
6.46128e-09
-1.27007e-06
-5.63371e-10
-1.22248e-06
-7.87573e-09
-1.21897e-06
-1.48381e-08
-1.21801e-06
-2.20023e-08
-1.22223e-06
-3.22538e-08
-1.26925e-06
-2.6011e-08
-1.34737e-06
-9.29966e-07
2.61711e-08
-9.78118e-07
1.64611e-08
-1.34e-06
6.72763e-09
-1.26033e-06
1.77064e-09
-1.21752e-06
-4.90637e-09
-1.2123e-06
-1.08796e-08
-1.21203e-06
-1.60763e-08
-1.21703e-06
-2.61067e-08
-1.25922e-06
-3.5739e-08
-1.33774e-06
-9.65705e-07
7.79598e-08
-1.05608e-06
5.13941e-08
-1.31344e-06
3.19849e-08
-1.24092e-06
1.82176e-08
-1.20376e-06
-3.21313e-09
-1.19086e-06
-2.46439e-08
-1.1906e-06
-3.90766e-08
-1.2026e-06
-5.87624e-08
-1.23953e-06
-8.40962e-08
-1.31241e-06
-1.0498e-06
2.84444e-07
2.32614e-07
1.51018e-07
7.3405e-08
-2.02212e-09
-7.74343e-08
-1.54625e-07
-2.35738e-07
-2.8775e-07
-8.35101e-08
-2.71611e-09
8.62262e-08
-8.08094e-08
-2.70546e-09
-7.8149e-08
-2.66058e-09
-7.55645e-08
-2.58464e-09
-7.30861e-08
-2.47859e-09
-7.07412e-08
-2.34506e-09
-6.85541e-08
-2.18725e-09
-6.65451e-08
-2.00907e-09
-6.47303e-08
-1.81484e-09
-1.60782e-09
-6.31224e-08
-8.44427e-08
-4.71243e-09
8.64391e-08
-8.24371e-08
-4.71026e-09
-8.04482e-08
-4.64899e-09
-7.85015e-08
-4.53092e-09
-7.66205e-08
-4.35922e-09
-7.48268e-08
-4.13859e-09
-7.31394e-08
-3.8744e-09
-7.15747e-08
-3.57357e-09
-7.01458e-08
-3.24357e-09
-2.89282e-09
-6.88607e-08
-8.31102e-08
-6.26704e-09
8.46647e-08
-8.15365e-08
-6.28406e-09
-7.99654e-08
-6.22028e-09
-7.84181e-08
-6.07825e-09
-7.6915e-08
-5.86245e-09
-7.54748e-08
-5.57885e-09
-7.4114e-08
-5.23519e-09
-7.2847e-08
-4.8406e-09
-7.1685e-08
-4.40563e-09
-3.94219e-09
-7.06357e-08
-8.13224e-08
-7.51408e-09
8.25694e-08
-8.00485e-08
-7.55775e-09
-7.87681e-08
-7.50062e-09
-7.75006e-08
-7.34571e-09
-7.62648e-08
-7.09821e-09
-7.50784e-08
-6.76535e-09
-7.39574e-08
-6.3563e-09
-7.29159e-08
-5.88224e-09
-7.19654e-08
-5.35623e-09
-4.79334e-09
-7.11142e-08
-7.93707e-08
-8.54039e-09
8.03971e-08
-7.83112e-08
-8.6169e-09
-7.72385e-08
-8.57337e-09
-7.61715e-08
-8.41278e-09
-7.5129e-08
-8.1407e-09
-7.41294e-08
-7.76508e-09
-7.31895e-08
-7.2963e-09
-7.23246e-08
-6.74722e-09
-7.15477e-08
-6.13307e-09
-5.47175e-09
-7.08694e-08
-7.73884e-08
-9.41388e-09
7.82621e-08
-7.64756e-08
-9.52951e-09
-7.55435e-08
-9.50554e-09
-7.46118e-08
-9.34452e-09
-7.37007e-08
-9.05189e-09
-7.283e-08
-8.63583e-09
-7.2019e-08
-8.10743e-09
-7.12854e-08
-7.48078e-09
-7.06454e-08
-6.77303e-09
-6.00472e-09
-7.01124e-08
-7.54715e-08
-1.01916e-08
7.62493e-08
-7.46471e-08
-1.0354e-08
-7.37964e-08
-1.03563e-08
-7.29409e-08
-1.02001e-08
-7.21028e-08
-9.89009e-09
-7.13046e-08
-9.43403e-09
-7.05691e-08
-8.84302e-09
-6.9918e-08
-8.13182e-09
-6.93721e-08
-7.31898e-09
-6.42737e-09
-6.89494e-08
-7.37094e-08
-1.09223e-08
7.444e-08
-7.29218e-08
-1.11417e-08
-7.20986e-08
-1.11795e-08
-7.12631e-08
-1.10356e-08
-7.04402e-08
-1.07131e-08
-6.9656e-08
-1.02183e-08
-6.89375e-08
-9.56149e-09
-6.83123e-08
-8.75704e-09
-6.78073e-08
-7.82405e-09
-6.78711e-09
-6.74475e-08
-7.21973e-08
-1.16464e-08
7.29214e-08
-7.14019e-08
-1.19372e-08
-7.05575e-08
-1.2024e-08
-6.9689e-08
-1.19042e-08
-6.88239e-08
-1.15783e-08
-6.79921e-08
-1.10502e-08
-6.7226e-08
-1.03276e-08
-6.65598e-08
-9.42325e-09
-6.60287e-08
-8.35512e-09
-7.14812e-09
-6.56677e-08
-7.10421e-08
-1.2394e-08
7.17897e-08
-7.0204e-08
-1.27752e-08
-6.9298e-08
-1.29302e-08
-6.83495e-08
-1.28528e-08
-6.7388e-08
-1.254e-08
-6.64468e-08
-1.19915e-08
-6.55635e-08
-1.1211e-08
-6.47794e-08
-1.02073e-08
-6.41398e-08
-8.99467e-09
-7.59568e-09
-6.36921e-08
-7.03624e-08
-1.31808e-08
7.11491e-08
-6.94617e-08
-1.36762e-08
-6.84675e-08
-1.39244e-08
-6.74049e-08
-1.39156e-08
-6.63033e-08
-1.36417e-08
-6.51977e-08
-1.30971e-08
-6.41293e-08
-1.22794e-08
-6.3146e-08
-1.11905e-08
-6.23028e-08
-9.83787e-09
-8.23723e-09
-6.16612e-08
-7.02833e-08
-1.4002e-08
7.11045e-08
-6.93211e-08
-1.46387e-08
-6.82348e-08
-1.50109e-08
-6.70464e-08
-1.51042e-08
-6.57828e-08
-1.49053e-08
-6.44778e-08
-1.44021e-08
-6.3173e-08
-1.35842e-08
-6.19193e-08
-1.24442e-08
-6.07785e-08
-1.09787e-08
-9.19155e-09
-5.98243e-08
-7.09228e-08
-1.48282e-08
7.17488e-08
-6.99278e-08
-1.5634e-08
-6.87757e-08
-1.61631e-08
-6.7483e-08
-1.6397e-08
-6.60713e-08
-1.6317e-08
-6.45693e-08
-1.59041e-08
-6.30143e-08
-1.51393e-08
-6.14546e-08
-1.4004e-08
-5.99521e-08
-1.24813e-08
-1.05581e-08
-5.85856e-08
-7.23692e-08
-1.56033e-08
7.31442e-08
-7.14003e-08
-1.66031e-08
-7.02433e-08
-1.73201e-08
-6.89079e-08
-1.77324e-08
-6.74083e-08
-1.78168e-08
-6.57643e-08
-1.75482e-08
-6.40043e-08
-1.68994e-08
-6.2167e-08
-1.58414e-08
-6.03056e-08
-1.43428e-08
-1.23715e-08
-5.84923e-08
-7.46557e-08
-1.62502e-08
7.53025e-08
-7.37963e-08
-1.74627e-08
-7.27244e-08
-1.83921e-08
-7.14429e-08
-1.90139e-08
-6.99579e-08
-1.9302e-08
-6.82792e-08
-1.9227e-08
-6.64224e-08
-1.87564e-08
-6.44107e-08
-1.78532e-08
-6.22781e-08
-1.64753e-08
-1.45745e-08
-6.00751e-08
-7.77441e-08
-1.66821e-08
7.8176e-08
-7.70881e-08
-1.81187e-08
-7.6205e-08
-1.92752e-08
-7.50933e-08
-2.01258e-08
-7.37529e-08
-2.06425e-08
-7.21854e-08
-2.07945e-08
-7.03945e-08
-2.05474e-08
-6.83863e-08
-1.98615e-08
-6.61704e-08
-1.86911e-08
-1.69819e-08
-6.3763e-08
-8.15186e-08
-1.68231e-08
8.16596e-08
-8.11468e-08
-1.84905e-08
-8.05408e-08
-1.98813e-08
-7.9698e-08
-2.09687e-08
-7.86162e-08
-2.17244e-08
-7.72928e-08
-2.2118e-08
-7.57236e-08
-2.21166e-08
-7.39011e-08
-2.16841e-08
-7.18126e-08
-2.07797e-08
-1.93577e-08
-6.94368e-08
-8.58253e-08
-1.6623e-08
8.56252e-08
-8.57891e-08
-1.85267e-08
-8.55167e-08
-2.01537e-08
-8.501e-08
-2.14754e-08
-8.42724e-08
-2.24621e-08
-8.33079e-08
-2.30825e-08
-8.21211e-08
-2.33036e-08
-8.07157e-08
-2.30896e-08
-7.90942e-08
-2.24013e-08
-2.11949e-08
-7.7257e-08
-9.04857e-08
-1.60786e-08
8.99414e-08
-9.07799e-08
-1.82326e-08
-9.08276e-08
-2.01061e-08
-9.0635e-08
-2.16682e-08
-9.02097e-08
-2.28875e-08
-8.95602e-08
-2.37321e-08
-8.86945e-08
-2.41693e-08
-8.76189e-08
-2.41653e-08
-8.63361e-08
-2.36841e-08
-2.26876e-08
-8.48435e-08
-9.53805e-08
-1.5226e-08
9.45278e-08
-9.5958e-08
-1.76552e-08
-9.62679e-08
-1.97962e-08
-9.6321e-08
-2.16152e-08
-9.61293e-08
-2.30792e-08
-9.5705e-08
-2.41564e-08
-9.50589e-08
-2.48155e-08
-9.41983e-08
-2.50259e-08
-9.31254e-08
-2.47571e-08
-2.39789e-08
-9.18341e-08
-1.00444e-07
-1.41336e-08
9.93516e-08
-1.01225e-07
-1.68748e-08
-1.01707e-07
-1.93145e-08
-1.01906e-07
-2.14156e-08
-1.01841e-07
-2.31442e-08
-1.01529e-07
-2.44689e-08
-1.00983e-07
-2.53613e-08
-1.00214e-07
-2.57949e-08
-9.92259e-08
-2.57452e-08
-2.51904e-08
-9.80144e-08
-1.05657e-07
-1.28957e-08
1.04419e-07
-1.06537e-07
-1.59957e-08
-1.0708e-07
-1.87714e-08
-1.07312e-07
-2.1183e-08
-1.0726e-07
-2.31964e-08
-1.06946e-07
-2.47826e-08
-1.06391e-07
-2.59168e-08
-1.05607e-07
-2.65783e-08
-1.04603e-07
-2.67494e-08
-2.64162e-08
-1.03377e-07
-1.11014e-07
-1.16329e-08
1.09751e-07
-1.11866e-07
-1.51436e-08
-1.12346e-07
-1.82913e-08
-1.12493e-07
-2.10354e-08
-1.12345e-07
-2.33444e-08
-1.11934e-07
-2.51941e-08
-1.11284e-07
-2.65661e-08
-1.10416e-07
-2.74467e-08
-1.09339e-07
-2.78261e-08
-2.76983e-08
-1.08057e-07
-1.1647e-07
-1.05006e-08
1.15338e-07
-1.17145e-07
-1.44681e-08
-1.17428e-07
-1.80088e-08
-1.17376e-07
-2.10876e-08
-1.17039e-07
-2.36811e-08
-1.16459e-07
-2.57742e-08
-1.15667e-07
-2.73581e-08
-1.14686e-07
-2.8428e-08
-1.13529e-07
-2.89827e-08
-2.90242e-08
-1.12204e-07
-1.21872e-07
-9.69764e-09
1.21069e-07
-1.22201e-07
-1.41381e-08
-1.22153e-07
-1.80568e-08
-1.21806e-07
-2.14355e-08
-1.21219e-07
-2.42681e-08
-1.20439e-07
-2.65543e-08
-1.19499e-07
-2.82974e-08
-1.18424e-07
-2.95032e-08
-1.17228e-07
-3.01792e-08
-3.0335e-08
-1.15917e-07
-1.26879e-07
-9.47438e-09
1.26656e-07
-1.26692e-07
-1.43258e-08
-1.26211e-07
-1.85371e-08
-1.25522e-07
-2.21254e-08
-1.24681e-07
-2.51093e-08
-1.23729e-07
-2.7506e-08
-1.22695e-07
-2.93318e-08
-1.21596e-07
-3.06019e-08
-1.20445e-07
-3.13307e-08
-3.15333e-08
-1.19246e-07
-1.30906e-07
-1.00933e-08
1.31525e-07
-1.30096e-07
-1.51358e-08
-1.29178e-07
-1.9455e-08
-1.28201e-07
-2.31023e-08
-1.27196e-07
-2.61147e-08
-1.26181e-07
-2.85205e-08
-1.2517e-07
-3.03428e-08
-1.24171e-07
-3.16009e-08
-1.2319e-07
-3.23124e-08
-3.24945e-08
-1.22228e-07
-1.32652e-07
-1.12537e-08
1.33813e-07
-1.31544e-07
-1.62444e-08
-1.30494e-07
-2.05043e-08
-1.29506e-07
-2.40904e-08
-1.28581e-07
-2.70406e-08
-1.27718e-07
-2.93832e-08
-1.2692e-07
-3.11404e-08
-1.2619e-07
-3.23311e-08
-1.25531e-07
-3.2972e-08
-3.30801e-08
-1.24945e-07
-1.31372e-07
-1.19057e-08
1.32024e-07
-1.30726e-07
-1.68911e-08
-1.30102e-07
-2.11278e-08
-1.29519e-07
-2.46733e-08
-1.28992e-07
-2.75681e-08
-1.28532e-07
-2.9843e-08
-1.28151e-07
-3.15219e-08
-1.27858e-07
-3.26244e-08
-1.27662e-07
-3.31677e-08
-3.31689e-08
-1.27573e-07
-1.30115e-07
-1.23347e-08
1.30544e-07
-1.29783e-07
-1.72233e-08
-1.29533e-07
-2.13774e-08
-1.29364e-07
-2.48425e-08
-1.29279e-07
-2.76532e-08
-1.29285e-07
-2.98375e-08
-1.2939e-07
-3.14169e-08
-1.29604e-07
-3.24098e-08
-1.2994e-07
-3.28316e-08
-3.26986e-08
-1.30411e-07
-1.29284e-07
-1.25997e-08
1.29549e-07
-1.29228e-07
-1.72791e-08
-1.29337e-07
-2.12683e-08
-1.29586e-07
-2.45944e-08
-1.29959e-07
-2.72798e-08
-1.30453e-07
-2.93431e-08
-1.31071e-07
-3.07991e-08
-1.3182e-07
-3.16607e-08
-1.32712e-07
-3.19393e-08
-3.16483e-08
-1.33763e-07
-1.291e-07
-1.25391e-08
1.29039e-07
-1.29419e-07
-1.69598e-08
-1.29944e-07
-2.07434e-08
-1.3064e-07
-2.38987e-08
-1.31485e-07
-2.64342e-08
-1.32471e-07
-2.83568e-08
-1.33598e-07
-2.9672e-08
-1.34874e-07
-3.0385e-08
-1.36312e-07
-3.05014e-08
-3.00305e-08
-1.37929e-07
-1.30036e-07
-1.20226e-08
1.29519e-07
-1.30806e-07
-1.61899e-08
-1.31784e-07
-1.97653e-08
-1.32937e-07
-2.27459e-08
-1.34245e-07
-2.51263e-08
-1.357e-07
-2.69013e-08
-1.37305e-07
-2.80662e-08
-1.39072e-07
-2.8618e-08
-1.41018e-07
-2.85553e-08
-2.78828e-08
-1.43166e-07
-1.32486e-07
-1.0977e-08
1.3144e-07
-1.33748e-07
-1.49279e-08
-1.35189e-07
-1.83242e-08
-1.36785e-07
-2.11497e-08
-1.38524e-07
-2.33871e-08
-1.40405e-07
-2.50198e-08
-1.42438e-07
-2.60331e-08
-1.44641e-07
-2.64149e-08
-1.47039e-07
-2.61571e-08
-2.5259e-08
-1.49663e-07
-1.36835e-07
-9.42192e-09
1.3528e-07
-1.38558e-07
-1.32046e-08
-1.40422e-07
-1.64601e-08
-1.42412e-07
-1.91597e-08
-1.44524e-07
-2.12751e-08
-1.46766e-07
-2.27783e-08
-1.49155e-07
-2.36435e-08
-1.51721e-07
-2.38489e-08
-1.545e-07
-2.33779e-08
-2.22245e-08
-1.57535e-07
-1.43262e-07
-7.42612e-09
1.41266e-07
-1.45383e-07
-1.10836e-08
-1.47607e-07
-1.42357e-08
-1.49924e-07
-1.68425e-08
-1.52336e-07
-1.88632e-08
-1.54858e-07
-2.02565e-08
-1.57518e-07
-2.09832e-08
-1.60359e-07
-2.10082e-08
-1.63433e-07
-2.03041e-08
-1.88568e-08
-1.668e-07
-1.51717e-07
-5.04786e-09
1.49339e-07
-1.54186e-07
-8.61522e-09
-1.5672e-07
-1.1702e-08
-1.59306e-07
-1.42555e-08
-1.6195e-07
-1.62198e-08
-1.6467e-07
-1.75365e-08
-1.67505e-07
-1.81478e-08
-1.70513e-07
-1.79998e-08
-1.7377e-07
-1.70469e-08
-1.52607e-08
-1.77366e-07
-1.61948e-07
-2.26794e-09
1.59168e-07
-1.64775e-07
-5.78801e-09
-1.67617e-07
-8.85998e-09
-1.70455e-07
-1.14171e-08
-1.73289e-07
-1.33857e-08
-1.7614e-07
-1.46862e-08
-1.79051e-07
-1.52359e-08
-1.82098e-07
-1.49526e-08
-1.85385e-07
-1.37602e-08
-1.16e-08
-1.89046e-07
-1.73642e-07
1.00414e-09
1.7037e-07
-1.76907e-07
-2.52308e-09
-1.80121e-07
-5.64588e-09
-1.83253e-07
-8.28488e-09
-1.8629e-07
-1.03491e-08
-1.8924e-07
-1.17357e-08
-1.92144e-07
-1.23317e-08
-1.95081e-07
-1.20162e-08
-1.98175e-07
-1.0666e-08
-8.16817e-09
-2.01607e-07
-1.8647e-07
4.91192e-09
1.82562e-07
-1.90317e-07
1.32375e-09
-1.94043e-07
-1.91891e-09
-1.97599e-07
-4.72927e-09
-2.00943e-07
-7.00456e-09
-2.04055e-07
-8.62435e-09
-2.06937e-07
-9.44928e-09
-2.09633e-07
-9.32043e-09
-2.12237e-07
-8.06135e-09
-5.48884e-09
-2.14916e-07
-2.00026e-07
9.63387e-09
1.95304e-07
-2.04658e-07
5.95613e-09
-2.09129e-07
2.5521e-09
-2.13366e-07
-4.92063e-10
-2.17298e-07
-3.07251e-09
-2.20857e-07
-5.06563e-09
-2.2398e-07
-6.32533e-09
-2.26624e-07
-6.67625e-09
-2.2878e-07
-5.90554e-09
-3.76131e-09
-2.30508e-07
-2.13731e-07
1.53483e-08
2.08017e-07
-2.19385e-07
1.16099e-08
-2.24911e-07
8.07874e-09
-2.30241e-07
4.83771e-09
-2.35303e-07
1.98908e-09
-2.40022e-07
-3.46096e-10
-2.44319e-07
-2.02871e-09
-2.48109e-07
-2.88533e-09
-2.51333e-07
-2.68164e-09
-1.1004e-09
-2.53994e-07
-2.2663e-07
2.21283e-08
2.1985e-07
-2.33429e-07
1.84095e-08
-2.40205e-07
1.48552e-08
-2.46918e-07
1.15503e-08
-2.5354e-07
8.61135e-09
-2.60057e-07
6.17095e-09
-2.66443e-07
4.35799e-09
-2.72659e-07
3.33007e-09
-2.78666e-07
3.32543e-09
4.69888e-09
-2.84465e-07
-2.37448e-07
2.9833e-08
2.29744e-07
-2.45253e-07
2.62138e-08
-2.53129e-07
2.27311e-08
-2.61041e-07
1.94626e-08
-2.69007e-07
1.65774e-08
-2.7714e-07
1.43039e-08
-2.85456e-07
1.2674e-08
-2.93926e-07
1.18006e-08
-3.02508e-07
1.19078e-08
1.33637e-08
-3.11173e-07
-2.44975e-07
3.80941e-08
2.36714e-07
-2.53374e-07
3.46122e-08
-2.61891e-07
3.12491e-08
-2.7041e-07
2.79808e-08
-2.7883e-07
2.4998e-08
-2.87327e-07
2.28013e-08
-2.96308e-07
2.16544e-08
-3.05412e-07
2.09051e-08
-3.14238e-07
2.07343e-08
2.18786e-08
-3.22753e-07
-2.48546e-07
4.641e-08
2.4023e-07
-2.5694e-07
4.30062e-08
-2.65521e-07
3.98301e-08
-2.74263e-07
3.67227e-08
-2.82476e-07
3.3211e-08
-2.90293e-07
3.06187e-08
-2.9808e-07
2.94406e-08
-3.05655e-07
2.84809e-08
-3.12786e-07
2.78648e-08
2.78456e-08
-3.18753e-07
-2.4879e-07
5.45237e-08
2.40676e-07
-2.56777e-07
5.09932e-08
-2.64609e-07
4.76619e-08
-2.7202e-07
4.41342e-08
-2.79489e-07
4.06795e-08
-2.86509e-07
3.76398e-08
-2.92549e-07
3.54805e-08
-2.97868e-07
3.38e-08
-3.02339e-07
3.23353e-08
3.14704e-08
-3.05964e-07
-2.46178e-07
6.2384e-08
2.38317e-07
-2.53439e-07
5.82542e-08
-2.60169e-07
5.43926e-08
-2.66402e-07
5.03671e-08
-2.72076e-07
4.63528e-08
-2.77157e-07
4.27211e-08
-2.81294e-07
3.96172e-08
-2.84379e-07
3.68856e-08
-2.86474e-07
3.44301e-08
3.19673e-08
-2.86971e-07
-2.41158e-07
6.96268e-08
2.33915e-07
-2.47522e-07
6.46175e-08
-2.52894e-07
5.97643e-08
-2.57404e-07
5.48775e-08
-2.61014e-07
4.99626e-08
-2.63715e-07
4.54221e-08
-2.6557e-07
4.14718e-08
-2.6643e-07
3.77458e-08
-2.66213e-07
3.42135e-08
3.04989e-08
-2.64745e-07
-2.33264e-07
7.58836e-08
2.27007e-07
-2.38341e-07
6.96939e-08
-2.42337e-07
6.37602e-08
-2.45297e-07
5.78367e-08
-2.4728e-07
5.1946e-08
-2.48155e-07
4.62968e-08
-2.4788e-07
4.11971e-08
-2.46452e-07
3.63172e-08
-2.43791e-07
3.15529e-08
2.6956e-08
-2.40248e-07
-2.2291e-07
8.0909e-08
2.17884e-07
-2.268e-07
7.35839e-08
-2.29531e-07
6.64914e-08
-2.31121e-07
5.9427e-08
-2.31655e-07
5.24795e-08
-2.31127e-07
4.57688e-08
-2.29249e-07
3.932e-08
-2.26114e-07
3.31822e-08
-2.2183e-07
2.72685e-08
2.15858e-08
-2.1646e-07
-2.12748e-07
8.46472e-08
2.0901e-07
-2.15411e-07
7.62473e-08
-2.16861e-07
6.79416e-08
-2.17142e-07
5.97075e-08
-2.16266e-07
5.16036e-08
-2.14197e-07
4.36993e-08
-2.10932e-07
3.60551e-08
-2.06433e-07
2.86835e-08
-2.00746e-07
2.15819e-08
1.47498e-08
-1.93911e-07
-2.00778e-07
8.83807e-08
1.97045e-07
-2.03075e-07
7.85447e-08
-2.03939e-07
6.88058e-08
-2.03416e-07
5.91841e-08
-2.01563e-07
4.97506e-08
-1.98426e-07
4.05623e-08
-1.9403e-07
3.16596e-08
-1.88404e-07
2.30581e-08
-1.81579e-07
1.47564e-08
6.75187e-09
-1.73581e-07
-1.91828e-07
9.12703e-08
1.88938e-07
-1.93309e-07
8.00258e-08
-1.93296e-07
6.87925e-08
-1.9184e-07
5.77281e-08
-1.89016e-07
4.69266e-08
-1.84893e-07
3.6439e-08
-1.79525e-07
2.62916e-08
-1.72954e-07
1.64869e-08
-1.65208e-07
7.01084e-09
-2.15452e-09
-1.56302e-07
-1.8578e-07
9.34971e-08
1.83554e-07
-1.86306e-07
8.05516e-08
-1.85252e-07
6.77378e-08
-1.82749e-07
5.5225e-08
-1.78912e-07
4.30903e-08
-1.73836e-07
3.13635e-08
-1.67586e-07
2.00413e-08
-1.60198e-07
9.09943e-09
-1.51688e-07
-1.49946e-09
-1.17894e-08
-1.42054e-07
-1.81356e-07
9.52841e-08
1.79569e-07
-1.81029e-07
8.02241e-08
-1.78936e-07
6.56456e-08
-1.7536e-07
5.16486e-08
-1.70494e-07
3.82246e-08
-1.64462e-07
2.53309e-08
-1.57325e-07
1.29042e-08
-1.491e-07
8.75149e-10
-1.39775e-07
-1.08241e-08
-2.22488e-08
-1.29316e-07
-1.79428e-07
9.57468e-08
1.78965e-07
-1.77452e-07
7.82486e-08
-1.73767e-07
6.19606e-08
-1.68734e-07
4.66155e-08
-1.62558e-07
3.20489e-08
-1.55305e-07
1.80777e-08
-1.46961e-07
4.56033e-09
-1.37459e-07
-8.62715e-09
-1.26704e-07
-2.15796e-08
-3.4356e-08
-1.14596e-07
-1.7982e-07
9.13528e-08
1.84214e-07
-1.74364e-07
7.27926e-08
-1.68113e-07
5.57099e-08
-1.61127e-07
3.96293e-08
-1.53306e-07
2.42284e-08
-1.44458e-07
9.22979e-09
-1.3434e-07
-5.55715e-09
-1.22692e-07
-2.02749e-08
-1.09256e-07
-3.50157e-08
-4.97853e-08
-9.38269e-08
-1.74114e-07
8.18683e-08
1.83599e-07
-1.6581e-07
6.44879e-08
-1.57893e-07
4.77937e-08
-1.49762e-07
3.14975e-08
-1.40822e-07
1.52887e-08
-1.30519e-07
-1.07304e-09
-1.18297e-07
-1.77791e-08
-1.03632e-07
-3.49393e-08
-8.60779e-08
-5.25699e-08
-7.05387e-08
-6.53246e-08
-1.52385e-07
7.57566e-08
1.58496e-07
-1.46908e-07
5.90115e-08
-1.41293e-07
4.21779e-08
-1.3479e-07
2.49947e-08
-1.26651e-07
7.14993e-09
-1.16126e-07
-1.15977e-08
-1.02534e-07
-3.13712e-08
-8.52942e-08
-5.21794e-08
-6.38836e-08
-7.39805e-08
-9.6717e-08
-3.77054e-08
-1.24846e-07
7.77609e-08
1.22842e-07
-1.25877e-07
6.00425e-08
-1.25625e-07
4.19253e-08
-1.23417e-07
2.27871e-08
-1.18489e-07
2.22204e-09
-1.10073e-07
-2.00138e-08
-9.75681e-08
-4.38759e-08
-8.03582e-08
-6.93891e-08
-5.70091e-08
-9.73295e-08
-1.29313e-07
-2.44129e-08
-1.07126e-07
8.65887e-08
9.82981e-08
-1.15176e-07
6.80925e-08
-1.21726e-07
4.84752e-08
-1.25941e-07
2.7002e-08
-1.26883e-07
3.1633e-09
-1.23523e-07
-2.33733e-08
-1.14215e-07
-5.31839e-08
-9.45745e-08
-8.90299e-08
-5.53404e-08
-1.36564e-07
-1.94981e-07
1.03276e-08
-1.07678e-07
9.99173e-08
9.43493e-08
-1.22036e-07
8.24507e-08
-1.36745e-07
6.3184e-08
-1.49639e-07
3.98963e-08
-1.59429e-07
1.29537e-08
-1.62864e-07
-1.99387e-08
-1.48493e-07
-6.75549e-08
-8.97421e-08
-1.4778e-07
2.49923e-08
-2.51298e-07
-3.49356e-07
1.79367e-07
-1.21117e-07
1.16941e-07
1.04093e-07
-1.41504e-07
1.02838e-07
-1.63978e-07
8.56573e-08
-1.87811e-07
6.37295e-08
-2.08369e-07
3.35109e-08
-2.05383e-07
-2.29237e-08
-1.19851e-07
-1.53088e-07
4.75162e-08
-3.15147e-07
2.4538e-07
-4.49162e-07
-5.20532e-07
4.16556e-07
-1.3151e-07
1.35627e-07
1.12824e-07
-1.54772e-07
1.261e-07
-1.81966e-07
1.12852e-07
-2.13766e-07
9.55289e-08
-2.4325e-07
6.29958e-08
-1.4617e-07
-1.20003e-07
7.18939e-08
-3.71151e-07
2.8097e-07
-5.24223e-07
4.26158e-07
-5.9435e-07
-6.33257e-07
5.38884e-07
-1.26789e-07
1.51614e-07
1.10802e-07
-1.4604e-07
1.4535e-07
-1.68375e-07
1.35188e-07
-1.88664e-07
1.15818e-07
-1.62183e-07
3.65149e-08
7.28576e-08
-3.55045e-07
2.74869e-07
-5.73163e-07
4.06994e-07
-6.56348e-07
5.14024e-07
-7.01381e-07
-7.31828e-07
6.12595e-07
-1.19651e-07
1.65473e-07
1.05792e-07
-1.37531e-07
1.63231e-07
-1.64465e-07
1.62122e-07
-1.85499e-07
1.36853e-07
1.66579e-08
-1.65638e-07
2.57841e-07
-5.96223e-07
3.95528e-07
-7.1085e-07
5.03652e-07
-7.64472e-07
6.02317e-07
-8.00045e-07
-8.26935e-07
6.97425e-07
-1.05587e-07
1.76477e-07
9.45839e-08
-1.22511e-07
1.80155e-07
-1.50262e-07
1.89873e-07
-7.6406e-08
6.29951e-08
2.09995e-07
-4.52045e-07
3.62609e-07
-7.48839e-07
4.83341e-07
-8.31582e-07
5.87292e-07
-8.68423e-07
6.82514e-07
-8.95268e-07
-9.17235e-07
7.72814e-07
-9.48181e-08
1.87633e-07
8.36614e-08
-1.16859e-07
2.02196e-07
-9.33718e-08
1.66388e-07
1.0324e-07
-1.33608e-07
3.50495e-07
-6.99294e-07
4.78927e-07
-8.7727e-07
5.77548e-07
-9.30204e-07
6.65375e-07
-9.5625e-07
7.47869e-07
-9.77761e-07
-9.96178e-07
8.26812e-07
-9.01201e-08
2.02188e-07
7.55659e-08
-1.07681e-07
2.19756e-07
1.56899e-08
4.30135e-08
3.12957e-07
-4.3088e-07
4.88709e-07
-8.75048e-07
5.79806e-07
-9.68367e-07
6.51206e-07
-1.0016e-06
7.19266e-07
-1.02431e-06
7.86055e-07
-1.04455e-06
-1.06127e-06
8.51149e-07
-9.81274e-08
2.30356e-07
6.99599e-08
-5.71622e-08
1.78796e-07
1.59813e-07
-1.73957e-07
4.7725e-07
-7.48314e-07
5.7636e-07
-9.74157e-07
6.35586e-07
-1.02759e-06
6.8758e-07
-1.0536e-06
7.39897e-07
-1.07663e-06
7.9273e-07
-1.09738e-06
-1.11306e-06
8.4452e-07
-1.04693e-07
2.57122e-07
7.79264e-08
1.92864e-08
5.4816e-08
3.61737e-07
-5.1641e-07
5.54672e-07
-9.41249e-07
6.09778e-07
-1.02926e-06
6.47518e-07
-1.06533e-06
6.86781e-07
-1.09286e-06
7.28235e-07
-1.11808e-06
7.70206e-07
-1.13935e-06
-1.15316e-06
8.10306e-07
-6.59403e-08
2.14162e-07
1.08901e-07
1.72931e-07
-1.8405e-07
4.92172e-07
-8.35649e-07
5.61107e-07
-1.01018e-06
5.95418e-07
-1.06357e-06
6.25528e-07
-1.09544e-06
6.57775e-07
-1.12511e-06
6.91704e-07
-1.15201e-06
7.25063e-07
-1.17271e-06
-1.18307e-06
7.54976e-07
-9.95711e-09
9.56953e-08
1.28424e-07
3.55839e-07
-5.49844e-07
4.92041e-07
-9.71851e-07
5.31666e-07
-1.04981e-06
5.55834e-07
-1.08774e-06
5.81938e-07
-1.12155e-06
6.10168e-07
-1.15334e-06
6.38426e-07
-1.18027e-06
6.6406e-07
-1.19835e-06
-1.20336e-06
6.8435e-07
1.13988e-07
-8.78552e-08
6.95638e-08
4.18468e-07
-8.54323e-07
4.60962e-07
-1.01434e-06
4.8285e-07
-1.0717e-06
5.05004e-07
-1.1099e-06
5.28981e-07
-1.14552e-06
5.53323e-07
-1.17768e-06
5.75616e-07
-1.20256e-06
5.93078e-07
-1.21581e-06
-1.21353e-06
6.03245e-07
2.84556e-07
-4.07315e-07
3.49054e-08
3.7854e-07
-9.48308e-07
4.10969e-07
-1.04677e-06
4.31059e-07
-1.09179e-06
4.51799e-07
-1.13064e-06
4.73067e-07
-1.16679e-06
4.9287e-07
-1.19748e-06
5.08586e-07
-1.21828e-06
5.17669e-07
-1.22489e-06
-1.21426e-06
5.18399e-07
2.96139e-07
-7.30705e-07
2.72497e-08
3.41678e-07
-9.93846e-07
3.64349e-07
-1.06944e-06
3.83246e-07
-1.11068e-06
4.01583e-07
-1.14897e-06
4.19218e-07
-1.18443e-06
4.34049e-07
-1.21231e-06
4.43067e-07
-1.2273e-06
4.43636e-07
-1.22546e-06
-1.20469e-06
4.3406e-07
2.75972e-07
-9.06519e-07
-1.00157e-07
3.1537e-07
-1.03325e-06
3.28616e-07
-1.08269e-06
3.41071e-07
-1.12314e-06
3.55154e-07
-1.16306e-06
3.69274e-07
-1.19855e-06
3.80259e-07
-1.2233e-06
3.84761e-07
-1.2318e-06
3.80799e-07
-1.2215e-06
-1.19258e-06
3.68696e-07
2.54632e-07
-9.69555e-07
-1.91596e-07
2.71849e-07
-1.05046e-06
2.81382e-07
-1.09222e-06
2.93423e-07
-1.13518e-06
3.07899e-07
-1.17753e-06
3.21783e-07
-1.21243e-06
3.30971e-07
-1.23249e-06
3.31883e-07
-1.23271e-06
3.22872e-07
-1.21249e-06
-1.17457e-06
3.04858e-07
2.1814e-07
-9.87922e-07
-1.99773e-07
2.25896e-07
-1.05822e-06
2.37336e-07
-1.10366e-06
2.52508e-07
-1.15035e-06
2.69242e-07
-1.19427e-06
2.84065e-07
-1.22725e-06
2.92813e-07
-1.24123e-06
2.9217e-07
-1.23207e-06
2.81099e-07
-1.20142e-06
-1.15472e-06
2.61247e-07
1.9262e-07
-1.00309e-06
-1.77454e-07
1.97965e-07
-1.06356e-06
2.08406e-07
-1.1141e-06
2.23914e-07
-1.16586e-06
2.41324e-07
-1.21168e-06
2.56562e-07
-1.24249e-06
2.65367e-07
-1.25004e-06
2.64787e-07
-1.23149e-06
2.5456e-07
-1.19119e-06
-1.1372e-06
2.37046e-07
1.67491e-07
-9.96983e-07
-1.73597e-07
1.70653e-07
-1.06673e-06
1.82803e-07
-1.12625e-06
2.0013e-07
-1.18319e-06
2.18655e-07
-1.2302e-06
2.34392e-07
-1.25823e-06
2.43419e-07
-1.25907e-06
2.43534e-07
-1.2316e-06
2.35469e-07
-1.18313e-06
-1.12336e-06
2.21627e-07
1.41679e-07
-9.89109e-07
-1.49553e-07
1.49044e-07
-1.07409e-06
1.64311e-07
-1.14152e-06
1.8249e-07
-1.20137e-06
2.00362e-07
-1.24807e-06
2.14767e-07
-1.27263e-06
2.22224e-07
-1.26652e-06
2.21331e-07
-1.23071e-06
2.13652e-07
-1.17545e-06
-1.10979e-06
2.00079e-07
1.29651e-07
-9.91462e-07
-1.27297e-07
1.40022e-07
-1.08446e-06
1.542e-07
-1.1557e-06
1.69351e-07
-1.21652e-06
1.83783e-07
-1.26251e-06
1.94905e-07
-1.28375e-06
1.99273e-07
-1.27089e-06
1.96223e-07
-1.22766e-06
1.87105e-07
-1.16633e-06
-1.09011e-06
1.67431e-07
1.27519e-07
-1.00094e-06
-1.18036e-07
1.34785e-07
-1.09173e-06
1.43564e-07
-1.16448e-06
1.53027e-07
-1.22598e-06
1.6217e-07
-1.27165e-06
1.68368e-07
-1.28995e-06
1.68168e-07
-1.27069e-06
1.62661e-07
-1.22215e-06
1.55138e-07
-1.15881e-06
-1.07832e-06
1.43341e-07
1.17529e-07
-1.00321e-06
-1.1526e-07
1.19438e-07
-1.09364e-06
1.23189e-07
-1.16823e-06
1.27485e-07
-1.23028e-06
1.3096e-07
-1.27512e-06
1.30485e-07
-1.28948e-06
1.22089e-07
-1.2623e-06
1.07185e-07
-1.20725e-06
8.84743e-08
-1.1401e-06
-1.05309e-06
6.32473e-08
8.53333e-08
-1.00727e-06
-8.12817e-08
8.86668e-08
-1.09697e-06
9.26325e-08
-1.17219e-06
9.55659e-08
-1.23321e-06
9.60823e-08
-1.27564e-06
9.15885e-08
-1.28498e-06
7.84687e-08
-1.24918e-06
5.77086e-08
-1.18649e-06
3.02212e-08
-1.11261e-06
-1.01645e-06
-6.4139e-09
4.65797e-08
-1.0135e-06
-4.03491e-08
5.34685e-08
-1.10386e-06
5.98082e-08
-1.17853e-06
6.35677e-08
-1.23697e-06
6.37039e-08
-1.27578e-06
5.95716e-08
-1.28085e-06
4.92558e-08
-1.23886e-06
3.33339e-08
-1.17057e-06
1.12728e-08
-1.09055e-06
-9.83924e-07
-2.12571e-08
4.29529e-09
-1.02538e-06
7.59085e-09
1.6129e-08
-1.11569e-06
2.57238e-08
-1.18813e-06
3.10969e-08
-1.24234e-06
3.15422e-08
-1.27622e-06
2.92679e-08
-1.27858e-06
2.45893e-08
-1.23418e-06
1.78039e-08
-1.16378e-06
9.3476e-09
-1.08209e-06
-9.70745e-07
-3.83116e-09
-3.7245e-08
-1.04395e-06
5.58089e-08
-2.06962e-08
-1.13224e-06
-8.47429e-09
-1.20035e-06
-2.28105e-09
-1.24854e-06
-2.8112e-09
-1.27569e-06
-5.08272e-09
-1.2763e-06
-6.92153e-09
-1.23234e-06
-9.81461e-09
-1.16089e-06
-1.16389e-08
-1.08027e-06
-9.68253e-07
-1.4131e-08
-7.23245e-08
-1.06807e-06
9.6453e-08
-5.28916e-08
-1.15168e-06
-3.96437e-08
-1.2136e-06
-3.39569e-08
-1.25422e-06
-3.65437e-08
-1.2731e-06
-4.00095e-08
-1.27284e-06
-4.13345e-08
-1.23102e-06
-4.54767e-08
-1.15675e-06
-4.98191e-08
-1.07593e-06
-9.69423e-07
-4.8649e-08
-9.6385e-08
-1.09456e-06
1.22869e-07
-7.67376e-08
-1.17132e-06
-6.42521e-08
-1.22608e-06
-6.01476e-08
-1.25833e-06
-6.48366e-08
-1.26842e-06
-6.93209e-08
-1.26835e-06
-6.8909e-08
-1.23143e-06
-7.46824e-08
-1.15097e-06
-8.87794e-08
-1.06183e-06
-9.56453e-07
-1.01748e-07
-1.11226e-07
-1.11992e-06
1.36589e-07
-9.327e-08
-1.18928e-06
-8.18724e-08
-1.23748e-06
-7.87493e-08
-1.26145e-06
-8.35783e-08
-1.26359e-06
-8.73872e-08
-1.26455e-06
-8.15201e-08
-1.2373e-06
-8.18454e-08
-1.15065e-06
-1.02274e-07
-1.0414e-06
-9.23554e-07
-1.35173e-07
-1.22656e-07
-1.15066e-06
1.53393e-07
-1.04228e-07
-1.20771e-06
-9.20056e-08
-1.24971e-06
-8.84636e-08
-1.26499e-06
-9.17248e-08
-1.26033e-06
-9.46527e-08
-1.26162e-06
-8.3341e-08
-1.24861e-06
-6.91706e-08
-1.16482e-06
-8.16047e-08
-1.02897e-06
-8.88133e-07
-1.17025e-07
-1.16145e-07
-1.17965e-06
1.45138e-07
-1.01133e-07
-1.22272e-06
-8.98513e-08
-1.26099e-06
-8.77184e-08
-1.26713e-06
-9.0743e-08
-1.2573e-06
-9.51458e-08
-1.25722e-06
-8.62648e-08
-1.25749e-06
-5.91086e-08
-1.19197e-06
-5.78765e-08
-1.0302e-06
-8.50814e-07
-9.51957e-08
-9.13904e-08
-1.1912e-06
1.02936e-07
-8.45208e-08
-1.22959e-06
-7.65928e-08
-1.26891e-06
-7.81983e-08
-1.26552e-06
-8.26815e-08
-1.25282e-06
-8.93916e-08
-1.25051e-06
-8.92385e-08
-1.25764e-06
-5.67057e-08
-1.22451e-06
-3.49181e-08
-1.05199e-06
-8.22028e-07
-6.37048e-08
-6.35682e-08
-1.17897e-06
5.13423e-08
-6.21269e-08
-1.23103e-06
-5.68246e-08
-1.27422e-06
-6.20326e-08
-1.26031e-06
-6.79893e-08
-1.24686e-06
-7.59114e-08
-1.24258e-06
-8.36922e-08
-1.24986e-06
-5.48695e-08
-1.25333e-06
-3.25157e-09
-1.1036e-06
-8.15523e-07
-9.75613e-09
-4.35076e-08