/*--------------------------------*- C++ -*----------------------------------*\
  =========                 |
  \\      /  F ield         | OpenFOAM: The Open Source CFD Toolbox
   \\    /   O peration     | Website:  https://openfoam.org
    \\  /    A nd           | Version:  8
     \\/     M anipulation  |
\*---------------------------------------------------------------------------*/
FoamFile
{
    version     2.0;
    format      ascii;
    class       volScalarField;
    location    "1.4";
    object      alpha.water;
}
// * * * * * * * * * * * * * * * * * * * * * * * * * * * * * * * * * * * * * //

dimensions      [0 0 0 0 0 0 0];

internalField   nonuniform List<scalar> 
9150
(
1
1
1
1
1
1
1
1
1
1
1
1
1
1
1
1
1
1
1
1
1
1
1
1
1
1
1
1
1
1
1
1
1
1
1
1
1
1
1
1
1
1
1
1
1
1
1
1
1
1
1
1
1
1
1
1
1
1
1
1
1
1
1
1
1
1
1
1
1
1
1
1
1
1
1
1
1
1
1
1
1
1
1
1
1
1
1
1
1
1
1
1
1
1
1
1
1
1
1
1
1
1
1
1
1
1
1
1
1
1
1
1
1
1
1
1
1
1
1
1
1
1
1
1
1
1
1
1
1
1
1
1
1
1
1
1
1
1
1
1
1
1
1
1
1
1
1
1
1
1
1
1
1
1
1
1
0.999999
0.999999
1
1
0.999999
0.999999
0.999999
0.999999
0.999999
0.999999
0.999999
0.999999
1
1
0.999999
0.999999
0.999999
0.999999
0.999999
0.999999
0.999999
1
1
1
0.999999
1
1
1
1
1
1
1
1
1
0.999999
0.999999
1
1
1
1
1
1
0.999999
0.999996
0.99999
0.999991
0.999997
1
1
1
1
1
0.999997
0.999995
0.999988
0.999988
0.999989
0.999996
1
1
1
1
0.999998
0.999995
0.999988
0.999988
0.999988
0.999993
1
1
1
1
0.999996
0.999995
0.999988
0.999988
0.999988
0.999996
1
1
1
0.999997
0.999992
0.999995
0.999988
0.999988
0.999989
1
1
1
1
0.999992
0.999992
0.999995
0.999988
0.999988
0.999997
1
1
1
1
0.999993
0.999992
0.999997
0.999997
0.999991
1
1
1
1
1
0.999998
0.999995
1
1
1
1
0.999999
1
1
1
1
1
1
1
1
1
0.999999
1
1
1
1
1
1
1
1
1
0.999999
1
1
1
1
1
1
1
1
1
1
1
1
1
0.999922
0.999996
0.999996
1
1
1
1
1
0.999999
1
0.999759
0.999987
0.999996
1
1
1
1
1
0.999998
1
0.99976
0.999985
0.99999
1
1
1
1
1
0.999997
1
0.999759
0.99998
0.999971
1
1
1
1
0.999999
0.999997
1
0.999864
0.999984
0.999272
1
1
1
1
0.999999
0.99999
0.999999
0.999998
1.00001
0.872967
1
1
1
1
0.999999
0.999986
0.999997
0.999997
0.999996
0.669138
1
1
1
1
0.999998
0.999986
0.999984
0.999996
0.999995
0.498946
1
1
1
1
0.999997
0.999987
0.999788
0.999994
0.984522
0.350742
1
1
1
1
0.999997
0.999979
0.999674
0.999985
0.892395
0.232529
1
1
1
0.999999
0.999996
0.999968
0.999671
0.999958
0.804491
0.146122
1
1
1
0.999997
0.999994
0.999956
0.99968
0.999862
0.711281
0.0880564
1
1
1
0.999994
0.999984
0.999944
0.999555
0.999676
0.617022
0.054478
1
1
1
0.999992
0.999955
0.999937
0.999501
0.990544
0.542029
0.0419978
0.999895
1
1
0.999991
0.999939
0.999933
0.999419
0.983616
0.494451
0.037472
0.917487
1
0.999999
0.999993
0.999967
0.999932
0.999302
0.979469
0.469256
0.0356239
0.753614
0.999999
0.999999
0.999996
0.999992
0.999933
0.99908
0.975761
0.465806
0.0403065
0.60976
0.999999
0.999999
0.999997
0.999995
0.999938
0.998753
0.970587
0.558739
0.161866
0.466546
1
0.999999
0.999998
0.999993
0.999944
0.998616
0.954562
0.714691
0.574434
0.334457
1
0.999999
0.999997
0.999992
0.999957
0.998796
0.924821
0.798482
0.769102
0.230597
0.986318
0.999999
0.999997
0.999992
0.999973
0.999453
0.899381
0.631007
0.683946
0.161132
0.891135
0.999996
0.999996
0.999992
0.999982
0.999808
0.889158
0.414148
0.408661
0.124832
0.836178
0.999989
0.999994
0.999986
0.999982
0.999862
0.904535
0.378597
0.378597
0.101142
0.785825
0.999972
0.999989
0.999983
0.999979
0.999895
0.95465
0.479928
0.375924
0.0878686
0.746528
0.999924
0.999981
0.99998
0.999978
0.999921
0.984236
0.668046
0.383224
0.129849
0.715894
0.999765
0.999979
0.999978
0.999977
0.999928
0.988225
0.765349
0.559824
0.479704
0.696179
0.999166
1.00001
0.999978
0.999976
0.999933
0.980787
0.794413
0.785941
0.836487
0.74178
0.996774
1.00001
0.999978
0.999977
0.999951
0.987143
0.731931
0.627758
0.84841
0.84879
0.835449
0.984623
0.999978
0.99998
0.999969
0.996945
0.702999
0.519598
0.848787
0.845672
0.594105
0.925529
0.999981
0.999985
0.999979
0.999756
0.803856
0.518024
0.84841
0.698209
0.591187
0.863017
0.999985
0.999987
0.999985
0.999929
0.879061
0.518024
0.846892
0.589068
0.589632
0.840732
0.999987
0.999988
0.999992
0.999974
0.917719
0.518024
0.844274
0.58904
0.589064
0.839312
0.999987
0.999988
0.999999
0.999993
0.955617
0.518092
0.807242
0.589052
0.589289
0.876776
0.999611
0.999988
1
0.999999
0.981513
0.537829
0.613452
0.589491
0.589349
0.915869
0.999901
0.999993
1
1
0.994691
0.625397
0.596315
0.590216
0.589955
0.94376
0.999986
0.999998
1
1
0.999165
0.653036
0.745407
0.591474
0.613161
0.969691
0.999979
1
1
1
1
0.654567
0.80991
0.594632
0.726756
0.989926
0.999983
0.999999
1
1
1
0.655544
0.757204
0.599834
0.775884
0.997472
0.999986
1
1
1
1
0.653657
0.652056
0.604552
0.829992
0.999602
0.99999
1
1
1
1
0.670516
0.617058
0.607756
0.916839
0.999845
0.999994
1
1
1
1
0.773341
0.630867
0.640889
0.969089
0.999932
0.999997
1
1
1
1
0.876894
0.639691
0.798664
0.995596
0.999975
0.999999
1
1
1
1
0.91384
0.644329
0.875006
0.999785
0.99999
1
1
1
1
1
0.920285
0.647557
0.938827
0.999884
0.999996
1
1
1
1
1
0.924171
0.717728
0.983907
0.999966
0.999999
1
1
1
1
1
0.946685
0.882689
0.999751
0.999992
1
1
1
1
1
1
0.976517
0.939959
0.99992
0.999997
1
1
1
1
1
1
0.993346
0.98268
0.999977
0.999999
1
1
1
1
1
1
0.999238
0.999858
0.999996
1
1
1
1
1
1
1
0.999979
0.999969
0.999999
1
1
1
1
1
1
1
0.999996
0.999992
1
1
1
1
1
1
1
1
0.999999
0.999999
1
1
1
1
1
1
1
1
1
1
1
1
1
1
1
1
1
1
1
1
1
1
1
1
1
1
1
1
1
1
1
1
1
1
1
1
1
1
1
1
1
1
1
1
1
1
1
1
1
1
1
1
1
1
1
1
1
1
1
1
1
1
1
1
1
1
1
1
1
1
1
1
1
1
1
1
1
1
1
1
1
1
1
1
1
1
1
1
1
1
1
1
1
1
1
1
1
1
1
1
1
1
1
1
1
1
1
1
1
1
1
1
0.999999
0.999999
0.999999
1
1
1
1
1
1
1
0.999999
0.999999
0.999999
1
1
1
1
1
1
1
1
0.999999
0.999999
1
1
1
1
1
1
1
1
1
1
1
1
1
1
1
1
1
1
1
1
1
1
1
1
1
1
1
1
1
1
1
1
1
1
1
1
1
1
1
1
1
1
1
1
1
1
1
1
1
1
1
1
1
1
1.00002
1
1
1
1
1
1
1
1
1.00002
1.00001
1
1
1
1
1
1
1
1
1.00001
1.00023
1
1
1
1
1
1
1
1
1.00024
1
1
1
1
1
1
1
1
1
1
1.00002
1
1
1
1
1
1
1
1
1.00001
0.895021
1
1
1
1
1
1
1
1
0.900924
0.82314
1
1
1
1
1
1
1
1
0.826962
0.790431
0.999999
0.999999
1
1
1
1
0.999999
0.999999
0.794564
0.780019
0.999542
0.999997
1
1
1
1
0.999998
0.999555
0.784173
0.787394
0.999996
1
1
1
1
1
1
0.999996
0.789238
0.825425
0.999996
1
1
1
1
1
1
0.999996
0.827577
0.858263
1.00001
1
1
1
1
1
1
1.00001
0.859624
0.90455
1
1
1
1
1
1
1
1
0.905213
0.950573
1
1
1
1
1
1
1
1
0.95079
1
1
1
1
1
1
1
1
0.999999
0.999997
0.999996
0.999997
0.999999
1
1
1
1
1
1
0.999997
0.999999
1
1
1
1
1
1
1
1
1
0.999999
0.999999
0.999999
1
1
0.846787
0.758447
0.758374
0.777593
0.913308
1
1
1
1
0.999999
0.999996
0.999999
0.999991
0.999965
0.999967
0.999981
0.999999
1
1
1
1
0.999994
0.99996
0.999983
0.999999
0.999999
1
1
1
1
0.999999
0.999999
0.999999
1
1
0.999995
0.999996
1
1
1
0.986253
0.937786
0.758961
0.759298
0.909731
1
1
0.999996
0.999996
0.999986
0.999966
0.999964
0.999963
0.999964
0.999969
0.999994
0.999998
0.999998
0.999985
0.999953
0.999951
0.999951
0.999951
0.999978
0.999999
1
1
1
1
0.999999
0.999999
1
1
1
0.999999
0.999992
0.999992
0.999997
1
1
1
0.999968
0.984344
0.842476
0.879199
1
1
0.999988
0.999969
0.999967
0.999966
0.999963
0.999963
0.999987
0.999993
0.999994
0.999997
0.9999
0.999862
0.999959
0.999992
0.999994
0.999993
0.999998
0.999999
0.999998
0.999996
0.999998
0.999999
0.999995
0.999997
1
1
1
0.999997
0.999992
0.999992
0.999994
1
1
1
0.999999
0.999987
0.989878
0.944532
0.999998
0.999998
0.999986
0.999983
0.999988
0.999986
0.999982
0.999965
0.999981
0.999991
0.999988
0.999969
0.999877
0.999861
0.999862
0.999896
0.999996
0.999998
0.999998
0.999994
0.999986
0.999986
0.99999
0.999999
0.999996
0.999987
0.99999
0.999994
0.99999
0.99999
0.999992
0.999995
0.999998
1
1
1
1
0.999999
0.999988
0.971478
0.999995
0.999997
0.999997
0.999997
0.999996
0.999988
0.999971
0.999933
0.999921
0.999915
0.999907
0.999445
0.999966
0.999993
0.999996
0.999998
0.999998
0.999998
0.999998
0.999989
0.999986
0.999986
0.99999
0.999996
0.999988
0.999987
0.999987
0.999987
0.999987
0.999991
0.999998
1
1
0.999999
0.999998
0.999999
0.999999
1
0.999999
0.98238
0.999997
0.999997
0.999997
0.999997
0.999988
0.999921
0.999762
0.999382
0.990622
0.946419
0.883114
0.821484
0.840486
0.915436
1
0.999996
1
0.999998
0.999998
0.999993
0.999992
0.999992
0.999987
0.999987
0.999987
0.999987
0.999987
0.999987
0.999988
0.999998
1
1
1
0.999998
0.999998
0.999998
0.999999
1
1
0.986859
0.999997
0.999997
0.999997
0.999993
0.999886
0.999209
0.989949
0.793464
0.5145
0.251796
0.0875273
0.0700921
0.0996561
0.17075
0.368016
0.841255
0.999948
0.999994
0.999996
0.999995
0.999994
0.99999
0.999987
0.999987
0.999987
0.999987
0.999987
0.99999
0.999998
1
1
1
1
0.999998
0.999998
0.999998
0.999999
1
1
0.994992
0.999997
0.999997
0.999996
0.999958
0.99928
0.892508
0.488151
0.0128982
0.000332955
0.000279234
0.000277975
0.000269449
0.000296014
0.000354711
0.000492759
0.26988
0.808953
0.999874
0.999986
0.999993
0.999994
0.999994
0.999991
0.999995
0.999994
0.999993
0.999997
0.999999
1
1
1
1
1
0.999998
0.999998
0.999998
0.999999
1
1
1
0.999997
0.999997
1
0.999694
0.879024
0.237594
0.00124535
0.000329699
0.000278825
0.000277864
0.000277876
0.000277939
0.000277942
0.000276656
0.000286818
0.00245552
0.344769
0.81666
0.99842
0.999976
0.999993
0.999998
0.999998
0.999998
0.999997
0.999997
0.999998
0.999999
0.999999
1
1
1
1
0.999998
0.999998
0.999998
0.999999
1
1
1
0.999998
1
0.999945
0.971581
0.270907
0.00133587
0.000330144
0.000278673
0.000277857
0.00027778
0.000277858
0.000277848
0.000277889
0.000277852
0.000278576
0.000287031
0.110468
0.821652
0.999993
0.999982
0.999991
0.999998
0.999998
0.999998
0.999993
0.999985
0.999969
0.999987
0.999998
1
1
1
1
0.999998
0.999998
0.999999
0.999999
0.999999
1
1
1
0.999995
0.999721
0.479898
0.00742228
0.000533614
0.000398244
0.000379068
0.00103666
0.00144268
0.000277842
0.000277816
0.000277867
0.000277901
0.000278591
0.00032649
0.179813
0.924605
0.999997
0.999996
0.999993
0.999998
0.999986
0.999973
0.999968
0.999968
0.999968
0.999969
1
1
1
1
1
0.999999
0.999999
0.999999
0.999999
0.999999
0.999963
0.997272
1
0.99999
0.843496
0.10695
0.00500925
0.00374438
0.00338549
0.00408255
0.00259663
0.00146532
0.0047129
0.00583677
0.00118002
0.000278604
0.000320641
0.00102181
0.440891
0.999997
0.999997
0.999997
0.999993
0.999974
0.999968
0.999968
0.999968
0.999968
0.999968
0.999983
1
1
1
1
1
1
0.999999
0.999995
0.999994
0.999999
0.999587
0.976545
0.999999
0.999914
0.376241
0.00981766
0.00641408
0.00458347
0.00608813
0.0293468
0.0385766
0.0339836
0.045646
0.0292556
0.00206027
0.000306033
0.000496685
0.0785616
0.798126
0.999998
0.999997
0.999997
0.999986
0.999968
0.999968
0.999968
0.999972
0.999979
0.999989
0.999999
0.999999
1
1
1
1
0.999999
0.999999
0.999993
0.999993
0.999996
0.9981
0.974565
1.00005
0.880866
0.12
0.0176114
0.0101553
0.0216665
0.0398793
0.0534066
0.0521012
0.050352
0.0489979
0.0350059
0.00203027
0.000477772
0.000720008
0.324077
0.999991
0.999997
0.999997
0.999997
0.999993
0.999968
0.999968
0.999991
0.999998
1
1
1
0.999999
0.999997
0.999998
0.999997
0.999995
0.999994
0.999995
0.999997
0.999996
0.999995
0.995939
0.974565
1.00006
0.43457
0.030768
0.0204275
0.0464738
0.0925833
0.100232
0.0683992
0.0296101
0.047192
0.0424969
0.0222557
0.00144195
0.000783562
0.0307015
0.656747
0.999997
0.999997
0.999997
0.999997
0.999997
0.999994
0.999991
0.999984
0.999992
1
1
1
0.999999
0.999995
0.999994
0.999994
0.999994
0.999994
0.999994
0.999997
0.999997
0.999991
0.996559
0.976014
0.975748
0.167093
0.0327246
0.0276923
0.0984636
0.0988618
0.099599
0.0572161
0.00486238
0.023447
0.0412972
0.00488333
0.00167105
0.0013835
0.143582
0.890434
0.999997
0.999997
0.999997
0.999997
0.999997
0.999997
0.999987
0.999964
0.999968
0.999998
1
1
1
0.999997
0.999994
0.999994
0.999994
0.999994
0.999994
0.999997
0.999997
0.999961
0.998627
0.997794
0.664646
0.0555172
0.0329426
0.0831729
0.098132
0.0985565
0.0989836
0.0447986
0.00279059
0.00676224
0.0262902
0.00169522
0.00178828
0.00209822
0.319198
0.999996
0.999997
0.999997
0.999997
0.999997
0.999997
0.99999
0.999964
0.999964
0.999964
0.99998
1
1
1
1
0.999997
0.999994
0.999994
0.999994
0.999995
0.999997
0.999996
0.999984
0.998565
0.988918
0.374441
0.0329184
0.0327164
0.0924
0.0979772
0.098132
0.0984271
0.0282406
0.000809382
0.00108163
0.00403086
0.00160186
0.0018466
0.00721049
0.518651
0.999997
0.999997
0.999997
0.999997
0.999997
0.999996
0.999969
0.999964
0.999964
0.999964
0.999981
1
1
1
1
0.999997
0.999994
0.999994
0.999997
0.999999
0.999997
0.999997
0.999995
0.994231
0.962861
0.218995
0.0326909
0.0326541
0.0435709
0.0980544
0.0979772
0.0556819
0.0015102
0.000509181
0.000228205
0.000550368
0.000674512
0.00155275
0.0286208
0.65664
0.999997
0.999997
0.999997
0.999996
0.999995
0.999996
0.999974
0.999964
0.999964
0.999964
0.999998
1
1
1
0.999999
0.999995
0.999994
0.999997
1
1
0.999999
0.999999
0.999631
0.976195
0.962774
0.117175
0.0325589
0.0326403
0.0329982
0.096372
0.0932828
0.0075172
0.000316438
0.000539463
0.000139697
0.000200314
0.000426475
0.000854855
0.0547436
0.735343
0.999997
0.999997
0.999997
0.999976
0.999937
0.999994
0.999994
0.999968
0.999964
0.999978
1
1
1
1
0.999998
0.999995
0.999997
1
1
1
0.999999
0.999998
0.999386
0.974641
0.96279
0.0549732
0.0321727
0.0326541
0.0461735
0.0945077
0.031635
0.000304973
0.000217696
0.000242544
0.000140876
0.000148008
0.000312628
0.000454734
0.0762837
0.778302
0.999997
0.999997
0.999989
0.999933
0.999933
0.999962
0.999997
0.999996
0.999983
0.999997
1
1
1
1
0.999999
0.999999
1
1
1
1
0.999995
0.999992
0.999295
0.990872
0.988754
0.0346326
0.0318247
0.0322056
0.0622954
0.0923622
0.0162743
0.000199926
0.000155879
0.000142502
0.000143322
0.000142908
0.000199235
0.000298538
0.0957208
0.809876
0.999996
0.999997
0.999968
0.999933
0.999933
0.999934
0.999992
1
1
0.999999
1
0.999998
1
1
1
1
1
0.999998
0.999995
0.999995
0.999996
0.999983
0.999772
0.99979
0.999579
0.0273716
0.0294645
0.0342101
0.0621298
0.0592004
0.010229
0.000173261
0.000144817
0.000141733
0.000142502
0.000142515
0.000151068
0.000316452
0.110019
0.831446
0.999996
0.999996
0.999966
0.999933
0.999933
0.999933
0.999989
1
1
0.999999
0.999997
0.999997
0.999999
1
1
1
0.999994
0.999987
0.999987
0.999995
0.999999
0.999991
0.999879
0.999876
0.939278
0.0218453
0.0279027
0.0523019
0.0617687
0.049529
0.00944906
0.000273107
0.000143483
0.000142725
0.000143857
0.000143116
0.000156142
0.000475832
0.103388
0.81901
0.999996
0.999996
0.99998
0.999933
0.999933
0.999933
0.999998
1
1
0.999999
0.999997
0.999997
0.999997
1
0.999998
0.99999
0.999987
0.999987
0.999988
0.999999
0.999999
0.999999
0.997718
0.95669
0.912289
0.0138226
0.0484017
0.0556644
0.0476475
0.0496017
0.0175352
0.000327175
0.00019066
0.000145569
0.000145644
0.000156571
0.000159265
0.000615933
0.0938287
0.797615
0.999996
0.999996
0.999995
0.999957
0.999933
0.999943
1
1
1
0.999999
0.999997
0.999997
0.999999
0.999998
0.999988
0.999987
0.999987
0.999987
0.999995
1
1
0.999999
0.991781
0.912289
0.912289
0.00883357
0.0537818
0.0555864
0.00978437
0.0493935
0.020092
0.00021864
0.00025206
0.000144939
0.000136016
0.000136419
0.000154618
0.000741295
0.0941155
0.800827
0.999996
0.999996
0.999994
0.999985
0.999933
0.999973
1
1
1
1
0.999998
0.999998
0.999999
0.999995
0.999987
0.999987
0.999987
0.999991
1
1
1
0.999984
0.993954
0.936465
0.921528
0.00844398
0.0493577
0.0310816
0.00950393
0.048571
0.00950955
0.000153567
0.000163791
0.000136016
0.000135834
0.000135927
0.00015672
0.000745789
0.0883131
0.844944
0.999996
0.999995
0.999992
0.999985
0.999934
0.999984
1
1
1
1
1
1
0.999999
0.999988
0.999987
0.999987
0.999989
0.999999
1
1
1
0.99993
0.997238
0.995226
0.993186
0.00756516
0.00789919
0.00404129
0.00990098
0.0325912
0.00174031
0.000143158
0.000137915
0.000136474
0.000135656
0.000150989
0.000208328
0.000393337
0.0676515
0.883682
0.999996
0.999996
0.999994
0.999972
0.999934
0.999973
0.999998
1
1
1
1
1
0.999999
0.999987
0.999987
0.99999
0.999998
1
1
1
0.999999
0.999938
0.999937
0.999863
0.999866
0.00604829
0.00404129
0.00404129
0.0084557
0.00080374
0.000226521
0.000149917
0.000143415
0.000173675
0.00018181
0.000193119
0.000194357
0.000173551
0.0539977
0.874382
0.999996
0.999996
0.999995
0.999964
0.999977
0.999965
0.999968
0.999981
1
1
1
1
0.999991
0.999987
0.99999
0.999999
1
1
1
1
1
0.999981
0.99998
0.999783
0.999868
0.00760369
0.00424027
0.00397098
0.000811123
0.000149858
0.000147805
0.000147404
0.000175116
0.000183115
0.000183879
0.000187604
0.000172898
0.000172624
0.0619884
0.862189
0.999983
0.999987
0.99999
0.999964
0.999997
0.999965
0.999965
0.999965
0.999998
1
1
0.999994
0.999988
0.999988
0.999999
1
1
1
1
1
1
0.999993
0.99984
0.999653
0.999868
0.0167852
0.0339267
0.0053083
0.000160571
0.00014745
0.000146207
0.000147281
0.000158734
0.000182364
0.000183115
0.000171524
0.000172644
0.000172643
0.105531
0.871345
0.999918
0.999972
0.999965
0.999964
0.999997
0.999985
0.999965
0.999965
0.999998
1
1
0.999989
0.999988
0.999995
1
1
1
1
1
1
1
0.999994
0.999674
0.999673
0.999868
0.205267
0.186332
0.00364463
0.000146505
0.000146141
0.00014683
0.0001467
0.000147091
0.000159507
0.000163533
0.000163676
0.0002277
0.000172622
0.189948
0.908309
0.999767
0.999972
0.999963
0.999966
0.999998
0.999999
0.999965
0.999981
0.999998
1
1
0.999994
0.999993
1
1
1
0.999999
1
1
1
1
0.999997
0.999801
0.999827
0.997885
0.626078
0.223745
0.000162674
0.000146748
0.000146727
0.000146261
0.000146054
0.000146528
0.000147311
0.000148822
0.000209969
0.000244991
0.000172769
0.298721
0.954224
0.999705
0.99998
0.999967
0.999988
0.999999
0.999999
0.999987
0.999999
0.999999
1
1
1
1
1
1
0.999999
0.999998
0.999999
1
1
1
0.999999
0.999985
0.999846
0.99454
0.679377
0.150209
0.000155459
0.000146511
0.000146191
0.000146045
0.000146179
0.000146179
0.000146361
0.00015422
0.000255321
0.000229206
0.000173172
0.433481
0.984829
0.999806
0.999991
0.999995
0.999999
0.999999
0.999999
0.999998
1
1
1
0.999999
1
1
1
1
0.999998
0.999998
0.999999
1
1
1
0.999995
0.999995
0.996896
0.994536
0.430518
0.0757875
0.000162403
0.00016003
0.000146274
0.000145996
0.000215288
0.000243537
0.000312314
0.000362972
0.000251481
0.000173583
0.000173555
0.605122
0.99618
0.999917
0.999998
0.999999
0.999999
0.999997
0.999946
0.999989
1
1
0.999999
0.999997
1
1
1
1
0.999998
0.999998
0.999999
1
1
1
0.999984
0.999269
0.994536
0.994536
0.277523
0.0552975
0.000171237
0.00148123
0.000284832
0.000154272
0.000357507
0.000368958
0.000366297
0.000366994
0.000189397
0.000179532
0.0285716
0.777383
0.9978
0.999957
0.999999
0.999999
0.999999
0.999937
0.999893
0.999976
1
1
0.999998
0.999997
0.999999
1
1
1
0.999998
0.999998
0.999999
1
1
1
0.999951
0.995425
0.994536
0.994536
0.50608
0.126189
0.000199271
0.00525077
0.00584179
0.000155823
0.000234239
0.000367327
0.000366998
0.000367147
0.000184527
0.000185263
0.160983
0.908425
0.998683
0.999974
0.999999
0.999999
0.999995
0.999893
0.999893
0.999976
1
0.999999
0.999997
0.999997
0.999999
1
1
0.999998
0.999998
0.999998
1
1
1
0.999999
0.999849
0.995871
0.994537
0.998134
0.723781
0.325695
0.000254749
0.00586599
0.00889844
0.00173505
0.000185813
0.000368327
0.0003679
0.00036889
0.000183651
0.00018437
0.440865
0.979617
0.999463
0.999988
0.999999
0.999999
0.99993
0.999893
0.999898
0.999987
1
0.999997
0.999997
0.999998
1
1
0.999999
0.999998
0.999998
1
1
1
1
0.999993
0.999771
0.999286
0.998899
0.999473
0.730391
0.453263
0.000344613
0.00428145
0.00890413
0.0039915
0.000181235
0.000271096
0.000366998
0.000224018
0.000183611
0.00520816
0.74816
0.995947
0.99986
0.999997
0.999999
0.999991
0.999893
0.999893
0.999963
0.999996
1
0.999998
0.999997
1
1
1
0.999998
0.999998
0.999998
1
1
1
1
0.999984
0.999886
0.999997
0.999974
0.999508
0.735948
0.474179
0.000453359
0.00180899
0.00886649
0.00155701
0.00017884
0.000186299
0.000364285
0.000184997
0.000183616
0.139886
0.923241
0.998669
0.999971
0.999999
0.999999
0.999916
0.999893
0.999913
0.999997
0.999997
1
1
1
1
1
1
0.999999
0.999998
1
1
1
1
0.999998
0.999987
1
0.999998
0.999951
0.998888
0.743424
0.476971
0.000288032
0.000327103
0.00743451
0.00231078
0.000178576
0.000179158
0.000250457
0.000182597
0.000183475
0.560213
0.98874
0.999652
0.999996
0.999999
0.999981
0.999893
0.999893
0.999985
0.999999
0.999997
1
1
1
0.999998
0.999999
1
1
1
1
1
1
0.999998
0.999998
0.999999
1
0.999998
0.999649
0.998864
0.747639
0.597178
9.31431e-06
8.57414e-08
0.00354514
0.00675109
0.000179158
0.000179903
0.000178744
0.000182093
0.0529943
0.911632
0.998879
0.999959
0.999997
0.999999
0.999901
0.999893
0.999914
0.999999
0.999999
0.999997
1
1
0.999998
0.999993
0.999994
1
1
1
1
1
0.999998
0.999997
0.999998
1
1
0.999995
0.9992
0.998864
0.756229
0.724226
-1.16366e-05
5.98908e-08
0.000612815
0.00697781
0.000180542
0.000180585
0.000181346
0.000181869
0.418951
0.993434
0.999904
0.999996
0.999997
0.999951
0.999894
0.999893
0.999964
0.999996
1
1
1
1
0.999993
0.999993
0.999994
1
1
1
1
0.999998
0.999997
0.999997
0.999999
1
1
0.999989
0.999405
0.999114
0.766164
0.792493
0.020398
1.1359e-07
2.88462e-07
0.00689973
0.000724268
0.000181346
0.000181613
0.0451464
0.877592
0.999523
0.999991
0.999995
0.999987
0.999896
0.999895
0.999922
0.999942
0.999845
0.999966
1
1
0.999995
0.999993
0.999993
0.999998
1
1
1
1
0.999997
0.999997
0.999998
1
1
1
0.999988
0.999938
0.999964
0.663858
0.850588
0.16505
2.8867e-07
1.08224e-06
0.00313174
0.00663053
0.000181628
0.000181979
0.378217
0.993259
0.999941
0.999994
0.999995
0.999919
0.999897
0.999913
0.999922
0.999829
0.99982
0.999925
1
0.999999
0.999993
0.999993
0.999996
1
1
1
1
1
0.999997
0.999997
1
1
1
1
0.999995
1
1
0.617124
0.881022
0.299674
1.08224e-06
2.03169e-06
0.0020834
0.0104144
0.000278986
0.0549432
0.856135
0.999585
0.999993
0.999989
0.999942
0.999897
0.999914
0.999919
0.999921
0.999818
0.999819
0.999955
1
0.999999
0.999993
0.999995
1
1
1
1
1
1
0.999999
1
1
1
1
1
1
1
1
0.57729
0.886496
0.413675
3.75579e-06
1.10095e-05
0.00106589
0.0105983
0.00923413
0.39425
0.992582
0.999945
0.999999
0.999968
0.999897
0.999897
0.999916
0.999917
0.999825
0.999818
0.999833
0.999998
1
0.999999
0.999999
0.999999
1
1
1
1
1
0.999999
1
1
1
1
0.999988
1
1
1
1
0.553019
0.89012
0.505291
1.07037e-05
1.72481e-05
0.00061394
0.00907459
0.062528
0.861202
0.999545
0.999994
0.999999
0.999958
0.999897
0.999896
0.999901
0.999838
0.999817
0.999817
0.99994
1
1
1
1
1
0.999963
0.999882
0.999987
1
1
0.999999
1
1
1
0.999959
0.999931
0.999975
1
0.999999
1
0.555344
0.892372
0.581234
1.05734e-05
9.96717e-06
0.000441062
0.0107405
0.263046
0.98852
0.999927
0.999999
0.999999
0.99997
0.999929
0.999899
0.999817
0.999817
0.999817
0.999818
1
1
1
1
0.999998
0.999966
0.999843
0.999841
0.999864
0.999961
0.999988
1
1
1
0.999992
0.99993
0.999931
0.999958
1
1
0.999997
0.554774
0.893694
0.643976
3.00452e-06
2.89278e-06
3.03925e-06
0.0300926
0.635501
0.999183
0.999989
1
1
0.999995
0.99999
0.999908
0.999817
0.999817
0.999817
0.999905
1
1
1
1
0.999974
0.999845
0.999841
0.999841
0.999841
0.999843
0.99993
1
1
0.999996
0.999939
0.99993
0.99993
0.999982
1
1
0.999996
0.552936
0.894205
0.70914
1.60576e-06
2.86083e-06
2.89282e-06
0.0835907
0.865945
0.999894
0.999999
1
1
1
0.999999
0.99993
0.999817
0.999817
0.999817
0.999995
1
1
1
1
0.99996
0.999841
0.999841
0.999841
0.999841
0.999841
0.999943
1
1
0.999975
0.99993
0.99993
0.999931
1
1
1
0.999996
0.551842
0.894238
0.779645
-4.53313e-06
2.33875e-06
3.25583e-06
0.131514
0.883414
0.999995
1
1
1
1
0.999998
0.999959
0.999819
0.999817
0.9999
1
1
1
1
1
0.999976
0.999884
0.999841
0.999841
0.999841
0.999891
0.999991
1
1
0.999956
0.99993
0.99993
0.999962
1
1
0.999998
0.999997
0.551679
0.894238
0.84853
0.00553872
3.25583e-06
3.61951e-06
0.128286
0.87379
0.999995
1
1
1
0.999992
0.999992
0.999984
0.99995
0.999887
0.999992
1
1
1
1
1
0.999996
0.999989
0.999934
0.99988
0.999903
0.99999
1
1
1
0.999966
0.99993
0.999936
0.999997
0.999991
0.999988
0.999918
0.999997
0.551679
0.894503
0.906644
0.119272
5.21695e-06
3.62056e-06
0.112556
0.854826
1.00003
0.999999
0.999999
0.999993
0.999989
0.999989
1
1
0.999998
1
1
1
1
1
1
1
1
0.999999
0.999994
0.999996
1
1
1
1
0.999992
0.999973
0.999986
0.999999
0.999968
0.999732
0.999908
0.999997
0.552184
0.895199
0.938346
0.349641
8.81273e-06
5.21801e-06
0.0871538
0.828348
0.999992
0.999999
0.999999
0.999989
0.999989
0.999989
1
1
1
1
1
1
1
1
1
1
1
0.999999
0.999998
0.999996
0.999996
0.999999
1
1
1
1
1
1
0.999963
0.999713
0.999875
0.999244
0.553643
0.881588
0.945609
0.579207
6.73361e-06
7.65522e-06
0.0554044
0.770711
0.999989
0.999998
0.999999
0.99999
0.999989
0.999989
1
1
1
1
1
1
1
1
1
1
1
0.999997
0.999989
0.999988
0.999988
0.999993
1
1
1
1
1
1
0.999927
0.999713
0.99984
0.996727
0.556084
0.769401
0.94581
0.728249
-2.94392e-07
6.87147e-06
0.0189907
0.593163
0.999975
0.999998
0.999999
0.999996
0.999989
0.999993
1
1
1
1
1
1
1
1
1
1
1
0.999997
0.999988
0.999988
0.999988
0.999993
1
1
1
1
1
0.999999
0.999749
0.999713
0.999841
0.996686
0.559002
0.645479
0.945958
0.820942
0.0054537
9.0066e-06
-6.12685e-07
0.253974
0.947454
0.999995
0.999998
0.999999
0.999996
0.999999
1
1
1
1
1
1
1
1
1
1
1
0.999998
0.99999
0.999988
0.999988
0.999998
0.999993
1
1
1
1
0.999998
0.999707
0.999744
0.999879
0.996686
0.561711
0.612474
0.945958
0.895133
0.0963794
9.86275e-06
0.000258675
0.0118062
0.542276
0.995445
1
1
1
1
1
1
1
1
1
1
1
1
1
1
1
0.999999
0.999998
0.999992
0.999996
1
0.999992
0.999877
0.999773
0.999985
1
0.999875
0.999707
0.999903
0.999966
0.996686
0.565796
0.636989
0.949874
0.943183
0.40001
0.000257919
0.000385538
0.00043991
0.0458676
0.760349
0.999948
0.999999
1
1
1
1
1
1
1
1
1
1
1
1
1
1
1
1
1
1
0.999999
0.999707
0.999706
0.999755
0.999898
0.999704
0.999707
0.999928
0.999997
0.996867
0.619262
0.652834
0.953996
0.958473
0.717981
0.000346292
0.000378713
0.000372012
0.000777273
0.166382
0.749586
0.999943
1
1
1
1
1
1
1
0.989427
0.988978
1
1
1
1
1
1
1
1
1
1
0.999785
0.999705
0.999704
0.999703
0.999703
0.999703
0.999918
0.999997
0.997061
0.847672
0.651895
0.855331
0.959318
0.875631
0.0279245
0.000389664
0.000580696
0.000708727
0.00132055
0.123762
0.541271
0.873623
0.999995
1
1
1
1
0.996173
0.661255
0.38772
0.658394
0.956491
1
1
1
1
1
1
1
0.999994
0.999964
0.999771
0.999703
0.999703
0.999703
0.999703
0.999931
0.999997
0.997058
0.925381
0.651976
0.682231
0.962133
0.951363
0.381022
0.000672075
0.000715461
0.000631491
0.000738299
0.00191036
0.0273469
0.199721
0.456921
0.670366
0.821171
0.859638
0.822683
0.612051
0.136546
0.00432651
0.0822056
0.45291
0.855222
0.999997
1
1
1
1
1
0.999992
0.999998
0.99997
0.999773
0.999703
0.999703
0.999765
0.999977
0.999997
0.997059
0.939844
0.65188
0.654433
0.968444
0.973715
0.790522
0.000874154
0.00062345
0.000540447
0.000365539
0.00050473
0.00120687
0.00260161
0.00944741
0.0476861
0.120373
0.151569
0.129542
0.0569119
0.00490469
0.000771385
0.000856076
0.018613
0.236097
0.70689
0.999994
1
1
1
1
0.999995
1
1
0.999971
0.999785
0.999796
0.999959
0.999995
0.999997
0.997708
0.970298
0.654374
0.658763
0.88293
0.974206
0.94392
0.243665
0.000570546
0.000402341
0.000244866
0.000151014
0.000196564
0.000445018
0.000790787
0.00109284
0.00148308
0.00162951
0.00160364
0.00202103
0.00143002
0.000253287
0.000125841
0.000318294
0.000947749
0.0992691
0.625366
0.994555
1
1
1
1
1
1
1
0.99999
0.99999
0.999998
0.999998
0.999987
0.999792
0.995341
0.835397
0.661851
0.694657
0.9795
0.985635
0.755732
0.000841464
0.000243796
0.000176659
8.6029e-05
5.10867e-05
7.00268e-05
0.000124156
0.000179861
0.000235983
0.000254477
0.000337121
0.000449555
0.000405616
0.000157726
2.8647e-05
3.926e-05
0.000109108
0.000358068
0.0557844
0.649558
0.999955
0.999999
1
1
1
1
1
1
0.999999
0.999998
0.999998
0.999975
0.999991
0.999994
0.97545
0.663854
0.664807
0.969391
0.986593
0.957233
0.300529
4.87618e-05
8.629e-05
6.15709e-05
2.45882e-05
1.4353e-05
1.98875e-05
2.99556e-05
4.05017e-05
4.57668e-05
5.61473e-05
6.55844e-05
6.87168e-05
7.07308e-05
1.27313e-05
5.69622e-06
1.09703e-05
3.20535e-05
0.000209725
0.0558439
0.760097
0.999955
0.999999
1
1
1
1
1
1
0.999971
0.99999
0.999973
0.999991
0.999997
0.99177
0.715984
0.663998
0.780481
0.9896
0.992971
0.817582
0.0132997
5.34678e-05
2.464e-05
1.78897e-05
5.8451e-06
3.18314e-06
4.60622e-06
6.99136e-06
8.70297e-06
8.75034e-06
9.49481e-06
1.01609e-05
9.10323e-06
4.24977e-06
1.15116e-06
1.11858e-06
4.78973e-06
1.62315e-05
0.000180734
0.1532
0.871892
0.999957
0.999998
1
1
1
1
1
0.999889
0.999894
0.999977
0.999991
1
0.999754
0.955378
0.660598
0.658283
0.989678
0.993316
0.987672
0.479883
0.000357756
1.8594e-05
5.9925e-06
2.13789e-06
6.11293e-07
7.43029e-07
1.17936e-06
1.61192e-06
1.79343e-06
1.71819e-06
1.64441e-06
1.43898e-06
7.97303e-07
3.26128e-07
3.72443e-07
3.48063e-07
1.86081e-06
1.81446e-05
0.000175203
0.437596
0.980286
0.99997
0.999999
1
1
1
1
0.999874
0.999863
0.999971
0.999991
1
0.999999
0.997383
0.699533
0.658283
0.84872
0.995141
0.997083
0.902287
0.115361
2.75111e-05
3.21988e-07
7.51019e-07
2.45858e-07
1.91954e-07
2.43512e-07
3.31209e-07
4.00795e-07
4.08736e-07
3.76713e-07
3.04398e-07
1.99702e-07
1.48099e-07
1.52333e-07
1.55556e-07
4.52476e-07
1.1982e-06
1.65589e-05
0.0175226
0.760091
0.999767
0.99999
1
1
1
1
0.999877
0.999863
0.999968
0.999991
1
1
0.999917
0.956993
0.651603
0.648238
0.997083
0.997159
0.997714
0.70145
0.000367602
2.378e-06
-4.31106e-07
1.41144e-07
1.34719e-07
1.33993e-07
1.42428e-07
1.43395e-07
1.4597e-07
1.39691e-07
1.33164e-07
1.24098e-07
1.2112e-07
1.21491e-07
1.27038e-07
1.12245e-07
2.38173e-07
1.99929e-06
2.60282e-05
0.371718
0.972747
0.99993
0.999998
1
1
1
0.999876
0.999863
0.999971
0.999991
1
1
0.999999
0.999833
0.727677
0.644166
0.897522
0.99779
0.998446
0.969827
0.341969
-7.00441e-05
-5.59467e-07
1.37245e-07
1.25386e-07
1.23116e-07
1.20171e-07
1.20832e-07
1.18202e-07
1.18388e-07
1.16749e-07
1.16498e-07
1.16958e-07
1.17069e-07
1.1776e-07
1.15017e-07
1.29725e-07
3.56673e-07
2.66468e-06
0.107074
0.84497
0.999658
0.999986
1
1
0.999996
0.999868
0.999879
0.999977
0.999973
1
1
1
1
0.9801
0.635574
0.628589
0.998446
0.99872
0.999202
0.863013
0.0419295
8.94717e-07
6.83213e-08
1.23211e-07
1.20329e-07
1.17115e-07
1.15579e-07
1.15094e-07
1.14718e-07
1.14622e-07
1.14829e-07
1.15546e-07
1.15913e-07
1.16276e-07
1.15798e-07
1.16642e-07
1.31013e-07
3.34738e-07
0.00849992
0.674409
0.999104
0.999957
0.999999
1
0.999973
0.999864
0.999924
0.999977
0.999644
1
1
1
1
1
0.761282
0.583116
0.979471
0.999181
0.999356
0.999393
0.598937
-1.18679e-06