/*--------------------------------*- C++ -*----------------------------------*\
  =========                 |
  \\      /  F ield         | OpenFOAM: The Open Source CFD Toolbox
   \\    /   O peration     | Website:  https://openfoam.org
    \\  /    A nd           | Version:  8
     \\/     M anipulation  |
\*---------------------------------------------------------------------------*/
FoamFile
{
    version     2.0;
    format      ascii;
    class       volScalarField;
    location    "1.4";
    object      epsilon;
}
// * * * * * * * * * * * * * * * * * * * * * * * * * * * * * * * * * * * * * //

dimensions      [0 2 -3 0 0 0 0];

internalField   nonuniform List<scalar> 
9150
(
0.0313345
0.0124818
0.00314729
0.00101784
0.000574739
0.000574737
0.00101783
0.00314727
0.0124818
0.0313345
0.0302421
0.00878793
0.00177168
0.000668106
0.000440552
0.000440552
0.000668104
0.00177167
0.00878791
0.0302421
0.0284456
0.0069862
0.00115319
0.000554543
0.000397422
0.000397421
0.000554542
0.00115319
0.0069862
0.0284456
0.0265124
0.00604835
0.000870809
0.000520755
0.000384638
0.000384638
0.000520755
0.000870808
0.00604835
0.0265124
0.0245088
0.00564748
0.000729891
0.000513665
0.000383043
0.000383043
0.000513665
0.000729893
0.00564749
0.0245088
0.124531
0.0534925
0.0242447
0.015873
0.0125842
0.0125847
0.0158744
0.0242474
0.0534985
0.124533
0.0763049
0.0232256
0.0138691
0.00999119
0.00785092
0.00785111
0.00999172
0.0138701
0.0232264
0.076305
0.0554207
0.0179569
0.00791702
0.00514489
0.00385737
0.00385742
0.00514505
0.00791728
0.0179571
0.0554207
0.0425493
0.0152742
0.00491593
0.00255506
0.00174586
0.00174587
0.00255509
0.00491598
0.0152742
0.0425493
0.0356466
0.0137485
0.00358303
0.00142456
0.000877612
0.000877611
0.00142456
0.00358302
0.0137485
0.0356466
1.66839
0.184532
0.0518882
0.0234169
0.0155509
0.0155466
0.0234109
0.051997
0.185236
1.68862
0.282342
0.118741
0.0479007
0.0231552
0.0156845
0.0156819
0.0231467
0.0478816
0.11859
0.282473
0.23716
0.104731
0.0472953
0.0229895
0.0158271
0.0158265
0.0229869
0.0472889
0.104676
0.237186
0.198475
0.0932888
0.046667
0.0227614
0.0159679
0.0159683
0.0227619
0.0466674
0.093287
0.198485
0.157387
0.0881077
0.0429074
0.0214985
0.0155848
0.0155855
0.0215002
0.042911
0.0881188
0.157391
142.415
143.009
143.293
143.325
143.194
142.962
142.556
141.888
140.917
139.614
60.0926
60.3619
60.5255
60.5912
60.5671
60.4572
60.2579
59.9612
59.5597
59.0476
45.8466
46.0536
46.1869
46.2483
46.2391
46.1597
46.01
45.7884
45.4932
45.1225
41.3292
41.5058
41.6216
41.6773
41.6733
41.6093
41.4854
41.3009
41.0546
40.7454
40.0238
40.1779
40.2799
40.3304
40.3297
40.2774
40.1732
40.0161
39.8049
39.538
40.3168
40.45
40.5392
40.5853
40.5883
40.5477
40.4628
40.3323
40.1543
39.9267
41.6142
41.7254
41.8019
41.8443
41.8526
41.8262
41.7639
41.664
41.524
41.3408
43.6392
43.7265
43.7899
43.83
43.8467
43.8391
43.8056
43.7442
43.6517
43.5244
46.2356
46.297
46.3477
46.3881
46.4178
46.4357
46.4398
46.4276
46.396
46.3408
49.2974
49.3323
49.3722
49.4172
49.4664
49.5182
49.5704
49.6204
49.6648
49.6999
52.741
52.7512
52.7847
52.8407
52.9177
53.0136
53.1259
53.2516
53.3874
53.5297
56.494
56.4847
56.5189
56.595
56.7106
56.863
57.0487
57.2643
57.5059
57.7698
60.4906
60.4711
60.517
60.6255
60.7934
61.017
61.2922
61.6143
61.9782
62.3784
64.6729
64.6569
64.7286
64.8846
65.1212
65.4343
65.8189
66.2693
66.779
67.3396
68.9953
68.9982
69.1111
69.3308
69.6542
70.0774
70.5955
71.2024
71.8902
72.6487
73.4287
73.4631
73.6296
73.9271
74.3541
74.9082
75.5856
76.3813
77.2881
78.2954
77.9597
78.0286
78.2539
78.6373
79.1799
79.8821
80.7425
81.7586
82.9257
84.2362
82.5811
82.6748
82.9535
83.4221
84.0847
84.9449
86.0048
87.266
88.7286
90.391
87.2772
87.3745
87.6915
88.2354
89.0131
90.0314
91.2965
92.815
94.5929
96.6369
92.014
92.0875
92.4211
93.023
93.9021
95.0684
96.532
98.3045
100.399
102.83
96.7396
96.7616
97.0876
97.7257
98.6861
99.9809
101.624
103.632
106.025
108.826
101.39
101.34
101.636
102.287
103.304
104.7
106.493
108.705
111.36
114.49
105.91
105.772
106.02
106.661
107.706
109.172
111.078
113.448
116.313
119.712
110.266
110.029
110.211
110.818
111.863
113.364
115.339
117.818
120.833
124.428
114.444
114.101
114.201
114.752
115.769
117.267
119.269
121.804
124.906
128.62
118.469
118.005
118.005
118.477
119.436
120.898
122.887
125.429
128.56
132.321
122.39
121.782
121.657
122.024
122.896
124.291
126.231
128.74
131.854
135.61
126.249
125.467
125.191
125.428
126.189
127.49
129.352
131.799
134.864
138.583
130.064
129.084
128.636
128.723
129.352
130.538
132.298
134.659
137.653
141.317
133.835
132.649
132.019
131.942
132.424
133.474
135.112
137.361
140.257
143.843
137.566
136.182
135.37
135.125
135.448
136.347
137.836
139.939
142.686
146.117
141.304
139.735
138.747
138.331
138.489
139.224
140.548
142.477
145.032
148.239
145.141
143.391
142.227
141.641
141.631
142.199
143.353
145.105
147.471
150.47
149.185
147.247
145.903
145.142
144.962
145.363
146.35
147.936
150.136
152.976
153.531
151.394
149.862
148.922
148.569
148.8
149.62
151.038
153.072
155.747
158.258
155.92
154.195
153.07
152.539
152.596
153.243
154.486
156.338
158.821
163.49
160.934
159.002
157.684
156.969
156.849
157.321
158.385
160.042
162.298
169.363
166.552
164.389
162.861
161.956
161.663
161.973
162.878
164.367
166.426
175.985
172.872
170.445
168.686
167.583
167.126
167.302
168.099
169.501
171.482
183.412
179.966
177.237
175.217
173.898
173.278
173.348
174.1
175.519
177.583
191.809
187.955
184.845
182.492
180.906
180.093
180.059
180.804
182.327
184.62
201.486
197.016
193.351
190.525
188.56
187.475
187.286
188.008
189.658
192.252
212.669
207.246
202.763
199.253
196.742
195.252
194.805
195.424
197.137
199.98
225.254
218.521
212.93
208.502
205.253
203.198
202.354
202.742
204.394
207.352
238.891
230.518
223.552
217.987
213.817
211.039
209.658
209.685
211.142
214.061
252.991
242.739
234.2
227.331
222.096
218.471
216.439
216.002
217.174
219.984
266.859
254.609
244.388
236.117
229.729
225.169
222.402
221.413
222.209
224.825
279.86
265.573
253.64
243.94
236.365
230.829
227.27
225.649
225.962
228.232
291.379
275.1
261.516
250.438
241.711
235.211
230.844
228.545
228.283
230.061
300.601
282.615
267.596
255.304
245.545
238.162
233.031
230.062
229.198
230.41
306.998
287.774
271.644
258.371
247.754
239.621
233.829
230.266
228.848
229.517
310.835
290.691
273.694
259.641
248.337
239.606
233.293
229.266
227.42
227.675
312.789
291.689
273.892
259.176
247.327
238.15
231.471
227.145
225.048
225.084
312.799
290.698
272.179
256.929
244.688
235.23
228.362
223.92
221.767
221.794
309.818
287.234
268.305
252.754
240.323
230.776
223.91
219.551
217.555
217.804
304.596
281.508
262.278
246.585
234.142
224.692
218.019
213.941
212.313
213.022
296.595
273.173
253.85
238.233
225.988
216.835
210.542
206.926
205.847
207.208
284.869
261.688
242.696
227.487
215.709
207.068
201.332
198.321
197.913
200.037
269.423
246.995
228.769
214.319
203.28
195.356
190.317
187.999
188.3
191.179
250.439
229.268
212.244
198.899
188.854
181.817
177.57
175.971
176.944
180.481
227.973
208.804
193.492
181.598
172.771
166.744
163.328
162.41
163.947
167.973
203.191
186.52
173.269
163.054
155.572
150.599
147.981
147.635
149.55
153.786
177.44
163.527
152.494
144.038
137.918
133.958
132.043
132.115
134.177
138.294
152.146
140.962
132.099
125.334
120.492
117.442
116.102
116.435
118.449
122.201
128.472
119.772
112.874
107.626
103.906
101.626
100.728
101.191
103.025
106.27
107.199
100.613
95.3859
91.4194
88.6341
86.9718
86.3962
86.8933
88.471
91.1576
88.7124
83.8364
79.9609
77.0261
74.9834
73.7964
73.4426
73.913
75.2119
77.3562
73.0912
69.5391
66.7111
64.5737
63.0985
62.2642
62.0568
62.4704
63.5059
65.1717
60.1937
57.6288
55.584
54.0417
52.9865
52.4062
52.2924
52.6407
53.4499
54.7227
49.7409
47.8908
46.4147
45.3043
44.5518
44.1504
44.0952
44.3824
45.0101
45.9775
41.3936
40.0495
38.9771
38.1732
37.6344
37.357
37.3379
37.5741
38.0633
38.8032
34.8056
33.8136
33.023
32.4333
32.0431
31.8506
31.8539
32.0505
32.4379
33.0133
29.6578
28.9082
28.3119
27.8698
27.5817
27.4471
27.4645
27.6319
27.9468
28.4063
25.6765
25.0915
24.6272
24.2854
24.0668
23.9714
23.9982
24.1455
24.4108
24.7909
22.6382
22.1621
21.7849
21.5093
21.3368
21.2679
21.3021
21.4374
21.6713
22
20.3676
19.9584
19.6345
19.3995
19.256
19.205
19.2461
19.3774
19.5957
19.8963
18.7329
18.3558
18.0568
17.8414
17.7132
17.674
17.7235
17.8594
18.0775
18.3719
17.6383
17.2597
16.9586
16.7428
16.6175
16.5856
16.6467
16.798
17.0337
17.346
17.016
16.5983
16.2649
16.0268
15.8916
15.8633
15.9416
16.1226
16.3987
16.759
16.8164
16.3117
15.9086
15.622
15.462
15.4341
15.538
15.7686
16.1156
16.5646
16.9928
16.3384
15.8178
15.4499
15.2475
15.217
15.3582
15.6644
16.1232
16.7159
17.4793
16.5954
15.8989
15.411
15.1456
15.1098
15.303
15.7173
16.3384
17.1454
18.1629
16.9581
16.0214
15.3722
15.0228
14.9796
15.2413
15.7992
16.6395
17.7421
18.8676
17.2526
16.0159
15.1684
14.7169
14.6655
15.0118
15.7473
16.8612
18.34
19.3802
17.287
15.706
14.634
14.0684
14.0098
14.4543
15.3939
16.8242
18.743
19.5233
16.9206
14.974
13.6656
12.9821
12.9185
13.4695
14.6283
16.3986
18.79
19.2287
16.1236
13.8168
12.2773
11.4805
11.4148
12.0726
13.4498
15.5584
18.4192
18.5336
14.9726
12.3435
10.5999
9.70556
9.63995
10.393
11.965
14.3774
17.6644
17.5195
13.5889
10.7155
8.82159
7.85782
7.79403
8.6173
10.3333
12.9747
16.6049
16.2459
12.0859
9.08068
7.11201
6.11695
6.05664
6.91517
8.70319
11.4659
15.306
14.7169
10.534
7.5331
5.57564
4.59107
4.53644
5.39278
7.17208
9.92718
13.7811
13.0133
8.98559
6.11567
4.25114
3.31655
3.27026
4.09059
5.78669
8.41681
12.117
11.1728
7.45336
4.82973
3.13399
2.28533
2.24982
3.00391
4.54929
6.95005
10.3564
9.24717
5.95224
3.67077
2.20923
1.47666
1.45316
2.11466
3.45135
5.53771
8.54698
7.27485
4.51012
2.64716
1.46784
0.872563
0.860378
1.40852
2.49339
4.19859
6.7197
5.29828
3.18469
1.78545
0.905177
0.455877
0.452223
0.875116
1.69214
2.97789
4.90681
3.5404
2.07784
1.11213
0.506377
0.200663
0.201553
0.49608
1.06554
1.95893
3.29584
2.1393
1.25387
0.633367
0.247129
0.0718338
0.0733796
0.246558
0.616526
1.1981
2.01189
1.18429
0.723863
0.3223
0.0981362
0.0252959
0.0257977
0.099615
0.319798
0.705301
1.13627
0.791925
0.432828
0.134172
0.0345674
0.0161255
0.0161496
0.0349451
0.135089
0.430989
0.78588
137.812
135.546
132.839
129.688
126.102
122.098
117.707
112.969
107.935
102.666
97.2214
91.6589
86.0565
80.7477
75.6938
70.787
65.9983
61.3303
56.7964
52.4125
48.1924
44.1472
40.2845
36.6092
33.1234
29.8272
26.719
23.7959
21.054
18.4883
16.0931
13.8616
11.7856
9.85419
8.04696
6.2859
4.65841
3.18774
1.96683
1.05741
58.3807
57.5388
56.5535
55.4258
54.1592
52.7603
51.2382
49.605
47.8749
46.0639
44.1891
42.2715
40.3434
38.4689
36.6297
34.8022
32.9752
31.1467
29.3201
27.5021
25.701
23.9255
22.1841
20.4847
18.8342
17.2385
15.7021
14.2288
12.821
11.4803
10.2075
9.00299
7.86686
6.80002
5.80551
4.89292
4.09921
3.49221
3.24016
5.05378
44.6471
44.0486
43.3529
42.5613
41.6768
40.7041
39.6499
38.5227
37.3323
36.0895
34.8056
33.4923
32.1634
30.8347
29.5077
28.1778
26.8423
25.5006
24.1545
22.8074
21.464
20.1298
18.8106
17.5123
16.2409
15.0017
13.7997
12.6392
11.5242
10.4582
9.4448
8.48776
7.59223
6.76604
6.0224
5.38582
4.90714
4.70823
5.23496
10.4803
40.3487
39.8478
39.2642
38.5981
37.8512
37.0265
36.1291
35.166
34.1455
33.0771
31.9704
30.8346
29.6787
28.5109
27.3341
26.1489
24.9562
23.7581
22.557
21.3563
20.16
18.9726
17.7989
16.6439
15.5123
14.4092
13.3391
12.3065
11.3158
10.3714
9.4783
8.64239
7.87171
7.17805
6.58049
6.11296
5.8452
5.95772
7.16168
15.8477
39.1934
38.7543
38.2379
37.6426
36.9677
36.2139
35.3841
34.4836
33.52
32.5027
31.4419
30.3472
29.2272
28.0895
26.9376
25.775
24.6054
23.4325
22.2603
21.0929
19.9343
18.7889
17.6612
16.5556
15.4766
14.4285
13.4157
12.4424
11.5132
10.6329
9.8071
9.04296
8.35024
7.74345
7.24613
6.90083
6.79705
7.17277
8.9783
20.6903
39.6291
39.2441
38.7841
38.2446
37.6213
36.9116
36.1148
35.2336
34.2746
33.2482
32.167
31.0436
29.8894
28.7119
27.5171
26.311
25.0996
23.8888
22.6839
21.4897
20.3109
19.1519
18.0171
16.9108
15.837
14.7998
13.803
12.8509
11.9476
11.0982
10.3086
9.58668
8.94331
8.3952
7.96995
7.71844
7.74958
8.35636
10.7107
25.1868
41.0962
40.7721
40.3751
39.8966
39.3278
38.66
37.8864
37.0039
36.016
34.938
33.7896
32.5887
31.3501
30.0824
28.7951
27.4976
26.1985
24.9052
23.6242
22.3615
21.1221
19.9109
18.7324
17.5905
16.489
15.4317
14.4221
13.4639
12.5612
11.7188
10.9429
10.2416
9.62693
9.11751
8.74483
8.56791
8.71457
9.53012
12.3933
29.4229
43.3472
43.1021
42.7888
42.3945
41.9034
41.2966
40.5555
39.6658
38.6221
37.4516
36.1903
34.8682
33.5001
32.1008
30.6787
29.2466
27.818
26.4024
25.0073
23.6396
22.3049
21.0087
19.7552
18.5485
17.392
16.2889
15.2424
14.2558
13.3328
12.478
11.6975
10.9998
10.3977
9.91183
9.57739
9.46142
9.70995
10.7182
14.0591
33.4757
46.2517
46.1126
45.9164
45.6463
45.2783
44.7828
44.1243
43.2647
42.1497
40.7971
39.3382
37.8363
36.3071
34.7532
33.1661
31.556
29.953
28.3709
26.8198
25.308
23.8422
22.4276
21.0688
19.7691
18.5316
17.359
16.2537
15.2185
14.2566
13.3723
12.5715
11.8629
11.2603
10.7859
10.4787
10.4135
10.754
11.943
15.738
37.4173
49.7221
49.7201
49.681
49.5882
49.4198
49.1435
48.6964
47.8085
46.4428
44.8853
43.2011
41.4937
39.7907
38.0694
36.28
34.4543
32.6258
30.8255
29.0702
27.3706
25.7342
24.1661
22.6701
21.2489
19.9047
18.6391
17.4539
16.351
15.3329
14.4034
13.5682
12.8362
12.2218
11.7489
11.4604
11.4383
11.8637
13.2256
17.4603
41.3381
53.6839
53.8452
53.9975
54.1363
54.26
54.3478
53.9755
52.6919
51.0696
49.3834
47.6469
45.8548
44.0267
42.1518
40.1317
38
35.8653
33.7808
31.7657
29.8307
27.9821
26.2239
24.5584
22.9869
21.5102
20.1287
18.843
17.6539
16.5633
15.5741
14.6917
13.9249
13.289
12.8096
12.533
12.5489
13.0553
14.587
19.2568
45.3199
58.0697
58.4059
58.7609
59.1484
59.5988
59.873
59.1867
57.8618
56.3581
54.7438
53.0293
51.1679
49.1435
46.9727
44.6758
42.1889
39.6599
37.2235
34.8935
32.6762
30.575
28.591
26.7245
24.9749
23.3409
21.8216
20.416
19.1238
17.9455
16.8835
15.9426
15.1317
14.4664
13.9743
13.7053
13.7573
14.3464
16.0563
21.1885
49.5467
62.8355
63.3487
63.8885
64.46
65.0434
65.2127
64.6691
63.7066
62.4219
60.8638
59.0677
57.1986
55.2777
52.9136
50.0221
46.9534
43.9522
41.1081
38.4173
35.878
33.4886
31.2472
29.1514
27.1981
25.3844
23.7071
22.1638
20.7526
19.473
18.3263
17.3167
16.453
15.7516
15.2418
14.9778
15.0663
15.7433
17.6472
23.2874
54.094
67.9789
68.695
69.4417
70.2077
70.7967
70.9488
70.6496
69.8407
68.6817
67.2037
65.4667
63.6282
61.7656
59.3584
55.7519
52.0937
48.6317
45.3635
42.2855
39.3948
36.6886
34.163
31.8132
29.6342
27.6208
25.768
24.0714
22.5275
21.1345
19.8926
18.8053
17.8814
17.1379
16.6061
16.3446
16.4695
17.2378
19.3446
25.516
58.9155
73.5154
74.4864
75.488
76.4582
77.2055
77.5939
77.6371
77.276
76.4165
75.011
73.1695
71.0758
68.7888
65.7272
61.7772
57.6187
53.6742
49.9528
46.4569
43.1858
40.1361
37.3022
34.6772
32.2537
30.024
27.9809
26.118
24.4301
22.9137
21.5679
20.3956
19.4053
18.6147
18.0574
17.7965
17.9578
18.8205
21.1391
27.8683
64.0448
79.459
80.7821
82.1639
83.4757
84.5492
85.4137
86.0486
86.3343
85.983
84.6062
82.45
79.8913
76.8442
73.0168
68.2947
63.5672
59.0749
54.8464
50.8903
47.2055
43.7858
40.6219
37.7037
35.0204
32.5613
30.3167
28.2777
26.437
24.7896
23.3334
22.0704
21.009
20.1678
19.5824
19.3209
19.5194
20.4804
23.0213
30.3396
69.497
85.7712
87.5499
89.4305
91.2489
92.93
94.5426
96.0131
97.2018
97.6899
96.1852
93.2036
89.9238
85.8825
81.4825
75.5457
69.9829
64.8017
59.9864
55.5214
51.391
47.5788
44.0687
40.8446
37.8912
35.1944
32.741
30.5195
28.5207
26.7376
25.1667
23.8094
22.674
21.7797
21.1648
20.9025
21.1398
22.2036
24.9779
32.9183
75.2454
92.3674
94.7021
97.1709
99.6363
102.169
104.768
107.346
109.74
111.379
109.555
104.906
100.113
95.3954
89.8912
82.9199
76.5225
70.6386
65.2218
60.2359
55.6506
51.4391
47.5775
44.0434
40.8169
37.8796
35.215
32.8091
30.6501
28.7294
27.0423
25.5893
24.3787
23.4306
22.786
22.5234
22.8013
23.9723
26.9894
35.5766
81.2621
99.0992
102.052
105.208
108.475
112.019
115.839
119.858
123.907
127.171
124.35
117.344
110.823
105.239
97.7608
90.0039
82.8949
76.3754
70.3952
64.9111
59.8854
55.2846
51.0787
47.2403
43.7449
40.5705
37.6977
35.1095
32.7921
30.7352
28.9329
27.385
26.0998
25.0988
24.4253
24.1639
24.4847
25.7672
29.0363
38.2953
87.4192
105.79
109.374
113.288
117.478
122.145
127.387
133.247
139.76
142.702
136.304
128.256
121.419
114.064
105.094
96.697
88.9762
81.8906
75.3959
69.4491
64.0095
59.0398
54.5058
50.3763
46.623
43.2207
40.1471
37.383
34.9126
32.7239
30.8101
29.1703
27.8132
26.7612
26.0609
25.8025
26.1686
27.5657
31.0921
41.0348
93.6847
112.266
116.456
121.101
126.217
131.996
138.577
146.002
153.347
153.547
145.786
137.459
130.634
121.982
112.134
103.068
94.752
87.1315
80.1562
73.7784
67.9532
62.6394
57.7987
53.3965
49.4013
45.7848
42.5223
39.5924
36.9775
34.6644
32.6452
30.9187
29.4939
28.3946
27.6703
27.4175
27.8308
29.3442
33.1296
43.7594
99.9954
118.36
123.091
128.387
134.369
141.232
149.158
158.257
165.029
162.195
153.934
145.718
138.811
129.319
118.746
109.044
100.162
92.0368
84.6125
77.8348
71.6539
66.0236
60.9016
56.2494
52.0324
48.2195
44.7837
41.7016
38.954
36.5265
34.4103
32.6043
31.1177
29.9758
29.2313
28.9866
29.4488
31.0789
35.1218
46.4349
106.215
123.936
129.117
134.968
141.663
149.406
158.364
168.51
174.78
170.468
161.678
153.42
146.343
136.151
124.876
114.557
105.134
96.5347
88.6946
81.5514
75.0484
69.1337
63.76
58.8851
54.4708
50.4835
46.8936
43.6761
40.8103
38.281
36.0786
34.2021
32.661
31.4825
30.7222
30.4886
31.0007
32.746
37.0402
49.0167
112.304
128.911
134.434
140.723
147.987
156.435
166.254
177.301
183.399
178.013
168.793
160.508
153.301
142.426
130.424
119.498
109.562
100.528
92.315
84.8498
78.0669
71.9074
66.3188
61.2543
56.6724
52.5368
48.8161
45.4834
42.517
39.9009
37.6252
35.6887
34.1021
32.8939
32.1228
31.9034
32.4661
34.3236
38.859
51.4685
118.085
133.264
138.998
145.576
153.223
162.142
172.539
184.238
190.452
184.433
174.851
166.605
159.334
147.812
135.13
123.658
113.279
103.879
95.3605
87.6363
80.6312
74.2789
68.5215
63.3082
58.5947
54.3424
50.518
47.0939
44.0473
41.3617
39.0274
37.0434
35.4212
34.1911
33.415
33.2131
33.8267
35.7927
40.5584
53.7687
123.415
137.028
142.845
149.564
157.375
166.459
177.024
189.077
195.529
188.875
179.07
171.019
163.819
151.809
138.609
126.745
116.062
106.419
97.7013
89.8096
82.6607
76.1829
70.3145
65.0022
60.1997
55.8672
51.9707
48.4819
45.3781
42.6426
40.2661
38.2482
36.6015
35.3581
34.5831
34.4018
35.0661
37.135
42.1146
55.8768
128.357
140.31
146.106
152.821
160.597
169.571
179.947
191.737
197.408
190.284
180.702
173.017
165.918
153.731
140.4
128.443
117.689
107.988
99.2192
91.2807
84.0871
77.566
71.6551
66.301
61.4578
57.086
53.152
49.628
46.4919
43.7275
41.3264
39.2891
37.6297
36.3821
35.6144
35.457
36.1711
38.3357
43.5097
57.771
132.936
143.239
148.961
155.571
163.147
171.799
181.708
192.384
195.904
188.643
179.659
172.27
165.104
153.188
140.242
128.572
118.034
108.497
99.8505
92.0027
84.8752
78.4005
72.5209
67.1863
62.3534
57.9851
54.0496
50.5208
47.3779
44.6063
42.1986
40.1569
38.4966
37.254
36.4998
36.3694
37.1323
39.3856
44.7358
59.447
136.946
145.941
151.636
158.088
165.357
173.628
183.042
191.278
191.105
184.225
176.058
168.828
161.545
150.362
138.243
127.203
117.147
107.981
99.6208
91.9947
85.0388
78.6967
72.9191
67.6626
62.889
58.5653
54.663
51.1587
48.0338
45.2758
42.8789
40.8472
39.1978
37.9689
37.2342
37.1333
37.9433
40.2769
45.7814
60.8795
140.402
148.423
154.092
160.345
167.374
175.416
183.257
186.932
184.427
177.894
170.359
163.295
156.048
145.82
134.819
124.639
115.249
106.603
98.6511
91.3472
84.646
78.506
72.8887
67.7595
63.087
58.8435
55.0048
51.5508
48.4661
45.7404
43.3703
41.3616
39.7334
38.5262
37.8163
37.7469
38.6017
41.0064
46.6425
62.0649
143.272
150.534
156.086
162.304
169.002
175.625
180.164
180.574
176.84
170.525
163.506
156.756
149.759
140.491
130.63
121.356
112.689
104.621
97.1346
90.2057
83.8079
77.9136
72.4959
67.5287
62.9879
58.8513
55.0997
51.7166
48.6899
46.012
43.6817
41.707
40.109
38.93
38.2489
38.2123
39.109
41.5756
47.3203
63.003
145.547
152.35
157.544
163.582
169.916
174.446
175.807
173.99
169.467
163.344
156.814
150.433
143.753
135.273
126.343
117.856
109.847
102.327
95.2958
88.7447
82.6603
77.026
71.8241
67.0359
62.6436
58.6303
54.981
51.6831
48.7271
46.1083
43.8277
41.8952
40.3339
39.1882
38.5389
38.5354
39.4709
41.9904
47.8238
63.7131
147.28
154.346
159.3
165.114
171.047
173.884
172.829
169.22
163.867
157.644
151.302
145.104
138.609
130.667
122.403
114.516
107.036
99.9762
93.3425
87.1325
81.3396
75.9538
70.963
66.354
62.1136
58.2289
54.6884
51.4823
48.6041
46.0509
43.8261
41.9412
40.4211
39.3116
38.6954
38.7241
39.6941
42.2564
48.1557
64.1906
148.461
156.706
161.564
167.415
172.772
173.742
171.295
166.5
160.358
153.751
147.272
141.019
134.528
126.883
119.044
111.566
104.467
97.7573
91.4384
85.5092
79.9646
74.7968
69.9966
65.5535
61.4569
57.6965
54.2631
51.1492
48.35
45.8647
43.698
41.8629
40.3856
39.3133
38.73
38.7886
39.7877
42.3818
48.3238
64.443
149.097
159.308
163.997
169.685
174.546
174.462
171.121
165.499
158.619
151.479
144.675
138.219
131.564
123.988
116.369
109.125
102.265
95.7901
89.6958
83.977
78.6266
73.636
68.9956
64.6957
60.7266
57.0789
53.7447
50.7178
47.9945
45.5751
43.4653
41.6794
40.2444
39.2083
38.656
38.7412
39.7635
42.3784
48.3414
64.4894
149.244
162.165
166.617
172.094
176.442
175.611
171.823
165.737
158.27
150.594
143.4
136.686
129.752
121.997
114.398
107.231
100.482
94.135
88.1787
82.6003
77.3879
72.5297
68.014
63.8299
59.9669
56.4157
53.1684
50.2192
47.5649
45.2063
43.1498
41.4101
40.0147
39.0123
38.4879
38.5957
39.6348
42.2601
48.2241
64.3518
148.957
165.345
169.377
174.252
177.697
176.746
173.164
166.774
158.859
150.795
143.333
136.453
128.84
120.704
113.037
105.844
99.1074
92.8032
86.9106
81.4101
76.2836
71.5147
67.0885
62.9914
59.2115
55.7383
52.5633
49.6801
47.0856
44.7806
42.7716
41.0733
39.7136
38.741
38.2406
38.3661
39.4156
42.0413
47.9883
64.0518
148.291
169.202
172.813
177.035
179.266
177.323
174.277
168.428
160.009
151.594
143.981
136.878
128.652
120.14
112.245
104.917
98.1067
91.7744
85.8858
80.4116
75.3268
70.6095
66.2407
62.2037
58.4843
55.0704
51.952
49.1222
46.5772
44.3172
42.3485
40.6858
39.3566
38.4092
37.9282
38.0663
39.1198
41.7364
47.6496
63.6089
147.28
174.166
177.635
181.627
183.194
179.988
175.929
170.106
161.65
152.961
145.229
137.79
128.893
119.981
111.823
104.321
97.3987
90.999
85.076
79.5919
74.5152
69.8191
65.4806
61.48
57.8005
54.4281
51.3514
48.5622
46.0557
43.8317
41.8959
40.2622
38.9579
38.0305
37.5639
37.7094
38.7606
41.3594
47.2241
63.0442
145.972
180.422
184.129
188.413
189.601
184.872
179.385
172.983
164.287
155.093
147.031
138.635
128.962
119.883
111.568
103.931
96.9034
90.4256
84.4489
78.932
73.8395
69.1412
64.811
60.8266
57.1689
53.8219
50.7728
48.0121
45.5338
43.3368
41.426
39.8148
38.5294
37.6168
37.1597
37.3074
38.3504
40.9238
46.7274
62.38
144.428
187.858
192.2
197.372
198.389
191.879
185.005
177.202
167.44
157.576
148.709
139.077
129.099
119.918
111.482
103.727
96.5948
90.0302
83.9853
78.4178
73.2904
68.5708
64.2306
60.2452
56.5935
53.2578
50.2237
47.4802
45.0204
42.8418
40.9486
39.3533
38.0812
37.1782
36.7256
36.8708
37.9004
40.4417
46.1736
61.6348
142.683
196.029
201.274
207.792
209.037
200.511
191.55
182.007
171.129
160.332
150.312
139.77
129.58
120.223
111.629
103.733
96.4774
89.8078
83.6766
78.0404
72.8605
68.1025
63.736
59.7346
56.0753
52.7385
49.7081
46.9718
44.5213
42.3533
40.4707
38.8851
37.6208
36.7226
36.2701
36.4084
37.4201
39.9239
45.5764
60.8301
140.798
204.253
210.355
218.155
220.987
211.05
199.305
187.592
175.201
163.315
152.011
140.786
130.397
120.83
112.038
103.965
96.5547
89.7547
83.5151
77.7907
72.5409
67.7289
63.322
59.2915
55.6123
52.2632
49.2266
46.4885
44.0395
41.875
39.9967
38.4152
37.1537
36.2557
35.7991
35.9266
36.9162
39.3775
44.9435
59.9742
138.779
211.945
218.651
227.394
233.8
224.084
209.021
194.483
180.082
166.895
154.359
142.546
131.72
121.806
112.73
104.423
96.8181
89.8573
83.4863
77.6552
72.3195
67.4393
62.9792
58.9081
55.1989
51.8284
48.7771
46.0297
43.5754
41.4082
39.5288
37.9466
36.6836
35.7818
35.3175
35.4305
36.3942
38.8087
44.2815
59.0757
136.657
218.755
225.68
234.589
245.107
239.188
219.723
201.906
185.593
171.01
157.265
144.764
133.401
123.06
113.641
105.056
97.2267
90.0829
83.5625
77.6099
72.1758
67.2167
62.6939
58.5737
54.8266
51.4274
48.3549
45.5923
43.1272
40.9524
39.0675
37.4806
36.2124
35.3036
34.8284
34.9239
35.8586
38.2225
43.597
58.1439
134.453
224.76
232.026
241.589
253.504
250.274
228.497
208.583
191.014
175.07
160.353
147.13
135.205
124.421
114.647
105.775
97.7124
90.3781
83.7016
77.6213
72.0832
67.0395
62.4487
58.2742
54.4843
51.0517
47.9536
45.1715
42.6917
40.5057
38.6119
37.0171
35.7409
34.8223
34.3338
34.4093
35.3126
37.6229
42.895
57.1862
132.189
229.604
237.18
247.486
260.83
259.151
235.512
214.203
195.391
178.298
162.97
149.218
136.846
125.687
115.602
106.472
98.1944
90.6811
83.8558
77.652
72.0117
66.8841
62.2247
57.9945
54.1598
50.6917
47.5655
44.7614
42.2644
40.0649
38.1598
36.555
35.2687
34.3385
33.8348
33.8886
34.7584
37.0131
42.1795
56.2089
129.881
232.787
240.309
250.767
264.505
264.054
239.794
217.765
198.161
180.61
164.906
150.816
138.141
126.713
116.393
107.058
98.6031
90.9374
83.9819
77.6675
71.9338
66.728
62.0034
57.7196
53.841
50.3373
47.1826
44.3557
41.8405
39.6261
37.7086
36.0925
34.7948
33.8518
33.3316
33.3625
34.1976
36.395
41.4536
55.2169
127.541
234.156
241.227
251.221
264.389
264.361
240.787
218.999
199.414
181.839
166.047
151.83
139.009
127.429
116.959
107.482
98.8961
91.1117
84.0504
77.643
71.8286
66.5535
61.7701
57.4369
53.5174
49.9799
46.7977
43.9485
41.415
39.1856
37.2552
35.6273
34.3178
33.3612
32.824
32.8312
33.6309
35.7701
40.7196
54.214
125.181
233.909
240.304
249.517
261.747
262.112
239.732
218.61
199.474
182.166
166.506
152.33
139.489
127.853
117.306
107.741
99.0657
91.1936
84.0498
77.5669
71.6848
66.3501
61.5151
57.1377
53.181
49.6125
46.4047
43.5344
40.9837
38.7398
36.7969
35.1574
33.8359
32.8658
32.3114
32.2948
33.0587
35.1393
39.979
53.203
122.809
232.411
238.062
246.327
257.249
258.359
237.778
217.504
198.954
182.021
166.583
152.522
139.723
128.081
117.496
107.877
99.1368
91.1974
83.9871
77.4412
71.5013
66.1146
61.234
56.8172
52.827
49.2303
45.9991
43.1096
40.5429
38.2856
36.3309
34.6804
33.3476
32.3643
31.7929
31.7528
32.481
34.5032
39.2329
52.1862
120.431
230.11
235.205
242.773
252.748
255
236.244
216.67
198.584
181.94
166.668
152.687
139.911
128.254
117.63
107.957
99.1566
91.1543
83.8824
77.2782
71.2848
65.8501
60.9273
56.4742
52.453
48.8306
45.578
42.6709
40.0898
37.8204
35.8551
34.1946
32.8512
31.8555
31.2679
31.2047
31.8978
33.8619
38.482
51.1649
118.053
227.306
232.186
239.568
249.493
253.552
236.295
217.055
199.076
182.443
167.136
153.097
140.252
128.517
117.812
108.059
99.1797
91.1031
83.7623
77.0956
71.0465
65.5632
60.5984
56.1097
52.0589
48.412
45.1395
42.2164
39.6223
37.3422
35.3676
33.6983
32.3455
31.3383
30.7354
30.65
31.3088
33.2155
37.7268
50.1402
115.676
224.038
228.953
236.322
246.056
254.314
240.035
219.716
201.014
183.891
168.237
153.939
140.887
128.981
118.128
108.246
99.2541
91.0786
83.6517
76.9107
70.7979
65.2608
60.2512
55.7255
51.6446
47.9737
44.6823
41.7444
39.1387
36.8494
34.8669
33.1902
31.8293
30.8119
30.1948
30.0883
30.7137
32.564
36.9675
49.1128
113.303
220.348
225.643
233.435
243.587
255.686
246.445
224.022
204.048
186.128
169.929
155.227
141.858
129.694
118.625
108.56
99.4124
91.1059
83.5688
76.7359
70.5472
64.9479
59.8881
55.3224
51.2101
47.5149
44.205
41.2533
38.6373
36.3403
34.3516
32.669
31.3015
30.2754
29.6455
29.519
30.1123
31.9072
36.204
48.0826
110.933
216.166
222.252
231.038
242.472
256.515
249.394
227.15
206.919
188.609
171.993
156.892
143.16
130.673
119.326
109.021
99.6722
91.1975
83.5219
76.5762
70.2966
64.6251
59.5085
54.8989
50.7533
47.0333
43.7055
40.7411
38.1164
35.8133
33.8202
32.1336
30.7613
29.7281
29.0869
28.942
29.5044
31.2452
35.4363
47.0494
108.565
211.179
218.34
228.442
241.459
257.298
252.517
230.57
210.292
191.675
174.626
159.054
144.865
131.964
120.255
109.643
100.038
91.3537
83.5084
76.4272
70.0413
64.2871
59.1075
54.4506
50.2702
46.5255
43.1807
40.2053
37.5738
35.2668
33.2714
31.5828
30.2077
29.1694
28.5186
28.3568
28.8898
30.5778
34.6646
46.0134
106.192
204.955
213.352
225.032
240.164
259.046
257.935
236.078
215.392
196.099
178.284
161.965
147.103
133.622
121.428
110.419
100.494
91.5549
83.5093
76.2725
69.7669
63.9223
58.6754
53.9695
49.7546
45.9865
42.6267
39.6426
37.007
34.6988
32.7037
31.0157
29.6401
28.5987
27.9404
27.7635
28.2687
29.9052
33.8887
44.9739
103.814
196.987
206.483
219.46
236.077
256.438
264.727
245.667
223.687
202.719
183.383
165.798
149.918
135.629
122.801
111.297
100.989
91.7555
83.4854
76.0793
69.4474
63.5101
58.1963
53.4438
49.1975
45.4096
42.0387
39.0497
36.4136
34.1075
32.1159
30.4314
29.058
28.0159
27.3522
27.1621
27.6411
29.2278
33.1092
43.9313
101.43
187.019
197.383
211.388
229.225
250.944
275.778
262.288
237.145
211.828
189.756
170.299
153.068
137.783
124.209
112.147
101.421
91.8758
83.3758
75.8014
69.0482
63.0247
57.6514
52.8593
48.5883
44.7869
41.4106
38.422
35.7901
33.4906
31.5063
29.8288
28.4606
27.4207
26.754
26.5529
27.0077
28.546
32.3266
42.8865
99.0391
175.004
185.963
200.814
220.07
244.411
274.688
268.619
245.194
219.171
195.461
174.454
155.954
139.688
125.376
112.768
101.642
91.8084
83.1021
75.3828
68.5297
62.4389
57.0217
52.2027
47.9177
44.1116
40.7376
37.756
35.134
32.846
30.8735
29.2068
27.8474
26.8126
26.1456
25.936
26.3687
27.8607
31.5425
41.8415
96.6469
160.897
171.834
186.666
206.153
231.487
264.692
281.307
252.469
227.885
201.221
178.159
158.251
141.012
126.024
112.945
101.492
91.4357
82.5812
74.7669
67.8555
61.7304
56.293
51.4645
47.1788
43.379
40.0162
37.0492
34.4438
32.1728
30.2169
28.5653
27.2181
26.1916
25.527
25.3111
25.7239
27.1716
30.7563
40.796
94.246
144.985
155.079
168.565
185.939
207.784
234.65
265.427
256.312
230.378
205.36
180.253
159.175
141.228
125.794
112.429
100.799
90.6387
81.7333
73.9039
67.0006
60.8927
55.4624
50.6413
46.3688
42.587
39.2454
36.3013
33.7192
31.4712
29.5368
27.9043
26.5731
25.5579
24.8985