/*--------------------------------*- C++ -*----------------------------------*\
  =========                 |
  \\      /  F ield         | OpenFOAM: The Open Source CFD Toolbox
   \\    /   O peration     | Website:  https://openfoam.org
    \\  /    A nd           | Version:  8
     \\/     M anipulation  |
\*---------------------------------------------------------------------------*/
FoamFile
{
    version     2.0;
    format      ascii;
    class       volScalarField;
    location    "1.4";
    object      k;
}
// * * * * * * * * * * * * * * * * * * * * * * * * * * * * * * * * * * * * * //

dimensions      [0 2 -2 0 0 0 0];

internalField   nonuniform List<scalar> 
9150
(
0.00182845
0.000944221
0.0004911
0.000336247
0.000252489
0.000252489
0.000336247
0.0004911
0.000944219
0.00182845
0.0017857
0.000750039
0.000414786
0.000288781
0.000213663
0.000213663
0.000288781
0.000414786
0.000750038
0.0017857
0.00171426
0.000654778
0.000382266
0.00026775
0.000198492
0.000198492
0.00026775
0.000382267
0.000654778
0.00171426
0.00163569
0.00060482
0.000369485
0.000259543
0.000192991
0.000192991
0.000259544
0.000369486
0.00060482
0.00163569
0.0015522
0.000583394
0.000364913
0.000256779
0.000191445
0.000191445
0.00025678
0.000364914
0.000583394
0.0015522
0.00286408
0.00263975
0.00203276
0.00190439
0.00173913
0.00173917
0.0019045
0.00203292
0.00263996
0.00286412
0.00230841
0.00152728
0.00137943
0.00141016
0.00128051
0.00128053
0.00141021
0.0013795
0.00152733
0.00230842
0.00205124
0.00126341
0.000941624
0.000932165
0.000824445
0.000824452
0.000932185
0.000941651
0.00126342
0.00205124
0.00186913
0.00111783
0.000681084
0.000605561
0.000509287
0.000509289
0.000605567
0.000681092
0.00111783
0.00186913
0.00178865
0.00102603
0.000544904
0.000419481
0.000332714
0.000332714
0.000419483
0.000544905
0.00102603
0.00178865
0.0162923
0.00680011
0.00307676
0.00222004
0.00196192
0.00196197
0.00222157
0.00309377
0.00686355
0.0164249
0.00498757
0.00385389
0.00271396
0.00219979
0.0019753
0.00197531
0.00219987
0.00271425
0.00385223
0.00498915
0.00444025
0.00350435
0.00269645
0.00220101
0.00199083
0.0019909
0.00220119
0.00269669
0.00350365
0.00444059
0.00394322
0.00324474
0.00268004
0.00219762
0.0020059
0.002006
0.00219784
0.0026803
0.00324493
0.00394335
0.00337825
0.00319463
0.00257121
0.00214797
0.00198009
0.00198018
0.00214816
0.00257145
0.00319501
0.00337832
0.501469
0.502862
0.503532
0.503613
0.503315
0.502782
0.501833
0.500264
0.49798
0.494901
1.03471
1.03886
1.04155
1.04281
1.04267
1.04111
1.03816
1.03378
1.02794
1.02061
1.28824
1.29326
1.29654
1.2981
1.29796
1.2961
1.29254
1.28726
1.28025
1.27147
1.46546
1.47081
1.47431
1.47598
1.47582
1.47384
1.47003
1.46437
1.45686
1.44745
1.61292
1.6183
1.62181
1.62347
1.6233
1.62128
1.61741
1.61168
1.60404
1.59447
1.74719
1.75237
1.75574
1.75733
1.75713
1.75516
1.75139
1.7458
1.73835
1.72897
1.87601
1.8808
1.88391
1.88537
1.88518
1.88333
1.87981
1.87459
1.8676
1.85877
2.00345
2.00769
2.01045
2.01175
2.0116
2.00999
2.0069
2.00227
1.99605
1.98815
2.13164
2.13521
2.13756
2.13872
2.13868
2.13744
2.13495
2.13119
2.12607
2.11951
2.26153
2.26435
2.26629
2.26735
2.26753
2.2668
2.26513
2.26248
2.25878
2.25396
2.39327
2.39536
2.39694
2.398
2.39852
2.39847
2.39782
2.39651
2.3945
2.39172
2.52655
2.52799
2.52932
2.53052
2.53156
2.53239
2.53295
2.5332
2.53307
2.53249
2.66072
2.6617
2.66299
2.66455
2.66633
2.66826
2.67028
2.6723
2.67424
2.676
2.79506
2.79586
2.79739
2.79958
2.80238
2.80571
2.80948
2.81358
2.8179
2.82229
2.92897
2.92991
2.93197
2.93511
2.93924
2.9443
2.9502
2.95682
2.964
2.97156
3.06207
3.06344
3.06629
3.07062
3.07638
3.08352
3.09196
3.10161
3.11231
3.12384
3.19432
3.19618
3.19993
3.20559
3.21317
3.22267
3.23403
3.24721
3.26207
3.27847
3.32574
3.32792
3.33245
3.33941
3.34886
3.36084
3.37536
3.39243
3.41201
3.43402
3.45615
3.45824
3.46325
3.47129
3.48248
3.4969
3.51463
3.53573
3.56026
3.58827
3.58493
3.5864
3.59146
3.60026
3.61291
3.62955
3.6503
3.67531
3.70471
3.73869
3.71103
3.71137
3.71606
3.72521
3.73895
3.75743
3.78084
3.80938
3.84327
3.88282
3.83312
3.832
3.83595
3.84505
3.85945
3.87931
3.90485
3.93633
3.97405
4.01842
3.95004
3.94727
3.9502
3.95889
3.9735
3.99421
4.02125
4.05491
4.09558
4.14372
4.06107
4.05654
4.05822
4.06617
4.08055
4.10154
4.1294
4.16444
4.20706
4.25778
4.16589
4.15957
4.15982
4.16672
4.18044
4.20117
4.22918
4.26478
4.30839
4.3605
4.26493
4.25668
4.25525
4.26077
4.27341
4.29338
4.32094
4.35638
4.40009
4.45254
4.35908
4.34853
4.34507
4.34884
4.36001
4.37877
4.40537
4.44009
4.48328
4.53535
4.44905
4.43575
4.42987
4.43152
4.44084
4.45803
4.4833
4.51692
4.55922
4.61058
4.53513
4.51869
4.51007
4.5093
4.5165
4.53181
4.55544
4.58769
4.62888
4.6794
4.61717
4.59749
4.58598
4.58262
4.58746
4.60064
4.62235
4.65288
4.69263
4.74211
4.69514
4.67238
4.65802
4.652
4.65433
4.66511
4.68452
4.71281
4.75033
4.79754
4.76966
4.74407
4.72695
4.71825
4.71797
4.72618
4.74299
4.76858
4.80315
4.84695
4.84215
4.81377
4.79391
4.78251
4.77958
4.78514
4.79929
4.82213
4.85382
4.89447
4.91418
4.88286
4.86016
4.846
4.84037
4.84328
4.8548
4.87505
4.9042
4.94251
4.98691
4.95249
4.92685
4.90987
4.90148
4.9017
4.91055
4.92817
4.95474
4.99056
5.06116
5.02367
4.99505
4.97519
4.964
4.96146
4.96756
4.98237
5.00605
5.03886
5.13832
5.09763
5.06593
5.04313
5.02912
5.02379
5.0271
5.03901
5.0595
5.08862
5.21988
5.17562
5.14065
5.11484
5.09802
5.09005
5.0908
5.10009
5.11775
5.1435
5.30668
5.25847
5.22003
5.19115
5.17164
5.16133
5.16005
5.16756
5.18358
5.2077
5.39855
5.34647
5.30449
5.27248
5.25035
5.23799
5.23529
5.24206
5.25805
5.2829
5.49698
5.44065
5.39458
5.35896
5.33388
5.31941
5.31557
5.32233
5.33964
5.36734
5.60565
5.54288
5.49096
5.45032
5.42124
5.40393
5.39856
5.4053
5.4243
5.45577
5.72669
5.65375
5.59316
5.5453
5.51049
5.48896
5.48095
5.48673
5.5066
5.54101
5.85743
5.77072
5.69855
5.64113
5.59864
5.57122
5.55906
5.56239
5.58154
5.61696
5.99211
5.88876
5.80266
5.73372
5.68186
5.64705
5.62931
5.62875
5.64556
5.68001
6.12254
6.00113
5.89981
5.81816
5.75584
5.7126
5.6883
5.68291
5.69654
5.72944
6.24038
6.10089
5.98413
5.88943
5.81622
5.76403
5.73254
5.72162
5.73133
5.76198
6.33915
6.18225
6.05055
5.94312
5.85913
5.79789
5.75888
5.74179
5.74658
5.77349
6.41363
6.24043
6.0949
5.97568
5.8816
5.8117
5.76521
5.74162
5.74066
5.76233
6.45685
6.27046
6.11354
5.98442
5.88168
5.80414
5.75081
5.72095
5.71405
5.72984
6.46465
6.26972
6.10474
5.96819
5.8587
5.77502
5.71605
5.68087
5.66873
5.67907
6.44057
6.24016
6.06954
5.92761
5.81318
5.72504
5.66201
5.62304
5.60721
5.61372
6.39203
6.18569
6.01002
5.86388
5.74598
5.65499
5.58965
5.54879
5.53134
5.53639
6.31915
6.10629
5.92621
5.77705
5.65717
5.56506
5.49929
5.45857
5.44175
5.44777
6.21259
5.99787
5.81615
5.66607
5.54611
5.45475
5.39053
5.35212
5.33829
5.34797
6.0806
5.86318
5.68039
5.53058
5.41205
5.32316
5.26237
5.22834
5.21986
5.23592
5.91843
5.69917
5.51668
5.36873
5.25332
5.16861
5.113
5.08515
5.08395
5.10854
5.7174
5.50077
5.32179
5.17824
5.06802
4.98924
4.94031
4.91996
4.92726
4.96162
5.47797
5.26737
5.09494
4.95833
4.85531
4.784
4.74282
4.73063
4.74671
4.79073
5.20103
4.99983
4.83705
4.70988
4.61595
4.55329
4.52045
4.51644
4.54077
4.59343
4.88559
4.69967
4.55061
4.43565
4.3525
4.29935
4.27491
4.27843
4.30974
4.36923
4.54041
4.37414
4.2419
4.14115
4.06984
4.0264
4.00976
4.01942
4.05546
4.11857
4.17674
4.03307
3.9195
3.83394
3.77469
3.74048
3.73047
3.74434
3.78229
3.84501
3.80808
3.68779
3.59318
3.52265
3.47487
3.44889
3.44408
3.46025
3.4976
3.55674
3.4471
3.34915
3.27244
3.21583
3.17835
3.15931
3.15828
3.17514
3.21007
3.26352
3.10425
3.0263
2.96549
2.92106
2.89235
2.87888
2.88036
2.8967
2.92803
2.97467
2.78689
2.72595
2.67859
2.64433
2.62274
2.61352
2.61647
2.63152
2.65873
2.69828
2.49945
2.45234
2.41585
2.38972
2.3737
2.36759
2.37125
2.38463
2.40773
2.44063
2.24374
2.2074
2.17935
2.15947
2.14762
2.14369
2.14758
2.15922
2.17859
2.20568
2.01935
1.9911
1.96938
1.95414
1.94531
1.94285
1.94667
1.95671
1.97293
1.99525
1.82436
1.802
1.78486
1.77295
1.76625
1.76473
1.76834
1.77703
1.79071
1.80931
1.65592
1.63772
1.62379
1.6142
1.60894
1.60801
1.61137
1.61897
1.63071
1.64652
1.5108
1.49543
1.4837
1.47565
1.47134
1.47076
1.47388
1.48065
1.49098
1.50477
1.38577
1.37225
1.36192
1.35486
1.35113
1.35074
1.35366
1.35985
1.36922
1.38164
1.27787
1.26543
1.2559
1.2494
1.24598
1.24567
1.24847
1.25431
1.2631
1.2747
1.1845
1.17253
1.16332
1.15701
1.1537
1.15343
1.15618
1.1619
1.17047
1.18173
1.10355
1.09147
1.08214
1.07573
1.07235
1.07208
1.07489
1.08072
1.08943
1.10084
1.03335
1.0206
1.0107
1.00387
1.00026
0.999957
1.00295
1.00916
1.01841
1.03047
0.972645
0.958582
0.947605
0.940006
0.935986
0.935646
0.938982
0.945886
0.956154
0.969493
0.920568
0.90438
0.891705
0.882915
0.878262
0.877877
0.881756
0.889765
0.901649
0.917044
0.87641
0.857044
0.841879
0.831366
0.825813
0.825376
0.830051
0.839672
0.853933
0.872391
0.83925
0.815378
0.796745
0.783868
0.777092
0.776595
0.782366
0.794209
0.811772
0.834546
0.807411
0.777486
0.754278
0.738319
0.729963
0.729399
0.736602
0.751347
0.773256
0.80179
0.778078
0.74052
0.711618
0.69186
0.681575
0.680946
0.689929
0.708271
0.735592
0.771376
0.747728
0.701166
0.665574
0.641369
0.628839
0.62816
0.639266
0.661862
0.695574
0.739929
0.713442
0.656969
0.613905
0.584701
0.569654
0.56895
0.582492
0.609922
0.650822
0.704669
0.674348
0.607577
0.556544
0.521927
0.504145
0.503433
0.519658
0.552355
0.600958
0.664723
0.631642
0.554752
0.495699
0.455515
0.434895
0.434175
0.453179
0.491277
0.547624
0.621145
0.587322
0.501146
0.434711
0.389246
0.365881
0.365141
0.386796
0.429968
0.493401
0.575853
0.542667
0.449058
0.376609
0.326637
0.30084
0.300073
0.324047
0.371497
0.440652
0.530236
0.497263
0.399479
0.323093
0.269785
0.242035
0.24127
0.267118
0.317706
0.390555
0.484083
0.451448
0.352559
0.27451
0.219238
0.1901
0.189403
0.216677
0.269135
0.343507
0.437978
0.404466
0.307381
0.230131
0.174504
0.144622
0.14409
0.172314
0.225202
0.298788
0.3914
0.355782
0.263032
0.189091
0.134935
0.105026
0.104754
0.13338
0.185059
0.255538
0.343906
0.30473
0.219029
0.150986
0.100297
0.071178
0.0712204
0.0995342
0.148186
0.213185
0.29483
0.25081
0.17587
0.116131
0.070762
0.0435023
0.0438275
0.0707606
0.114664
0.172017
0.243581
0.198548
0.135794
0.0850851
0.0462823
0.0226873
0.0231453
0.0468093
0.0847629
0.133824
0.194028
0.15148
0.100488
0.0579137
0.0265297
0.00943976
0.0097833
0.0272011
0.0583214
0.0999821
0.149358
0.112147
0.0697445
0.0337467
0.0116694
0.00343292
0.00353823
0.0120915
0.0343334
0.0700369
0.111718
0.0800274
0.0393642
0.0129319
0.00364977
0.00204891
0.00205505
0.00372688
0.0131992
0.0396971
0.0802396
0.490628
0.485228
0.478738
0.471128
0.462391
0.452539
0.441611
0.429668
0.4168
0.403115
0.388729
0.373754
0.358369
0.343498
0.329024
0.314657
0.30031
0.285986
0.271723
0.257566
0.24356
0.229747
0.216157
0.202817
0.189746
0.176957
0.164458
0.152253
0.140339
0.128713
0.117361
0.106264
0.0953892
0.0846784
0.0739966
0.0627787
0.0514211
0.0399294
0.0289248
0.0130422
1.01119
0.999355
0.985574
0.969851
0.952218
0.932739
0.911523
0.888714
0.864493
0.83906
0.812617
0.78535
0.757413
0.72888
0.70003
0.671014
0.641954
0.612956
0.584114
0.555513
0.527226
0.499315
0.471833
0.44482
0.418311
0.39233
0.366894
0.342012
0.317684
0.293899
0.270634
0.247849
0.225478
0.203423
0.18153
0.159558
0.13729
0.113947
0.0852617
0.0369958
1.26024
1.24611
1.22969
1.21098
1.19003
1.16692
1.14178
1.11477
1.08612
1.05606
1.02483
0.992649
0.959718
0.926192
0.892193
0.857851
0.823283
0.788604
0.75392
0.719333
0.684936
0.650813
0.617043
0.583694
0.550825
0.518486
0.486718
0.455551
0.425002
0.395077
0.365766
0.337039
0.308842
0.281079
0.253586
0.22607
0.197957
0.167737
0.130197
0.0601174
1.43541
1.42023
1.40255
1.38237
1.35971
1.33464
1.30728
1.27781
1.24645
1.21347
1.17914
1.1437
1.10737
1.07035
1.03272
0.994626
0.956197
0.917561
0.87884
0.840147
0.80159
0.763267
0.72527
0.68768
0.650571
0.614006
0.578037
0.542706
0.50804
0.474054
0.440744
0.408085
0.376016
0.344421
0.313083
0.281574
0.248995
0.213144
0.167131
0.0791898
1.5822
1.56665
1.54847
1.52761
1.50405
1.47782
1.44899
1.41773
1.38427
1.34889
1.3119
1.27359
1.23423
1.19401
1.15304
1.1115
1.06956
1.02736
0.985058
0.942775
0.900634
0.858747
0.817214
0.776126
0.735561
0.695587
0.65626
0.617623
0.579704
0.542515
0.506045
0.470255
0.43506
0.400296
0.365664
0.330589
0.293885
0.252781
0.198872
0.0945797
1.7169
1.70153
1.68344
1.66251
1.63865
1.61181
1.58199
1.5493
1.51395
1.47626
1.43661
1.39538
1.3529
1.30934
1.26491
1.21983
1.1743
1.12851
1.08263
1.03682
0.991206
0.945914
0.901049
0.856706
0.812965
0.769892
0.727539
0.685943
0.645122
0.605076
0.565776
0.527156
0.489093
0.451368
0.413592
0.375051
0.334322
0.288153
0.226839
0.107818
1.84735
1.83269
1.81528
1.79493
1.77142
1.74456
1.71422
1.68036
1.64311
1.60292
1.56033
1.51586
1.4699
1.42266
1.37443
1.32548
1.27609
1.22646
1.17681
1.1273
1.07809
1.0293
0.981059
0.933448
0.886548
0.84042
0.795106
0.750629
0.706994
0.664178
0.622128
0.580746
0.539866
0.499209
0.458304
0.416313
0.371606
0.320515
0.25218
0.119582
1.97787
1.96455
1.94857
1.92962
1.90733
1.88128
1.85104
1.81631
1.77701
1.73387
1.68779
1.63959
1.58959
1.53822
1.4857
1.43239
1.37866
1.32478
1.27098
1.21743
1.16432
1.11179
1.05994
1.00888
0.958672
0.909368
0.860996
0.813562
0.767048
0.721409
0.676561
0.632372
0.588629
0.544999
0.500931
0.455475
0.406811
0.350891
0.275788
0.130318
2.1109
2.09965
2.08598
2.0695
2.04968
2.02581
1.99711
1.9627
1.92132
1.87343
1.8222
1.76921
1.71487
1.65925
1.60216
1.54386
1.48512
1.42631
1.36773
1.3096
1.25211
1.19541
1.1396
1.08477
1.03099
0.978272
0.92664
0.876073
0.82653
0.777935
0.730173
0.683074
0.63638
0.5897
0.54241
0.493449
0.44082
0.380105
0.298358
0.140349
2.24755
2.23906
2.22864
2.21589
2.20033
2.18126
2.15724
2.12194
2.07447
2.02162
1.96492
1.90688
1.84822
1.78839
1.72618
1.66236
1.59775
1.53313
1.46896
1.40553
1.34303
1.28161
1.22138
1.16238
1.10467
1.04824
0.993082
0.939152
0.886376
0.834649
0.783821
0.733678
0.683919
0.634095
0.583506
0.530981
0.474344
0.408815
0.320446
0.149983
2.38788
2.38266
2.37615
2.36827
2.35902
2.34794
2.32529
2.28065
2.22726
2.17149
2.1137
2.05381
1.99232
1.92898
1.86135
1.79017
1.71812
1.64648
1.57575
1.5062
1.43802
1.3713
1.30613
1.24253
1.1805
1.12002
1.06105
1.0035
0.947269
0.892217
0.838152
0.784817
0.731868
0.678796
0.624821
0.568658
0.507947
0.437542
0.342493
0.159457
2.53136
2.52946
2.52691
2.52406
2.52159
2.51409
2.48393
2.43844
2.38797
2.33412
2.27714
2.21592
2.15009
2.0801
2.00639
1.92728
1.8462
1.76639
1.68821
1.61181
1.5373
1.46475
1.39416
1.32553
1.25882
1.19396
1.13088
1.06947
1.00957
0.951005
0.893551
0.836904
0.78066
0.724246
0.666801
0.606925
0.542067
0.466703
0.364867
0.169217
2.67757
2.67874
2.67941
2.67973
2.6793
2.6687
2.64142
2.60402
2.55867
2.50642
2.44803
2.38707
2.32402
2.25017
2.16357
2.07187
1.9806
1.89188
1.80564
1.72187
1.64058
1.56175
1.48535
1.41134
1.33963
1.27012
1.20268
1.13718
1.07342
1.01118
0.950192
0.890105
0.830459
0.770616
0.709628
0.645973
0.576898
0.496482
0.387703
0.17941
2.82682
2.83127
2.83522
2.83852
2.83696
2.82499
2.80243
2.76814
2.72559
2.67539
2.61881
2.55913
2.49794
2.42397
2.32279
2.21921
2.11871
2.02128
1.92688
1.83551
1.74715
1.66176
1.57927
1.49961
1.42266
1.34827
1.27629
1.20652
1.13875
1.0727
1.00806
0.944438
0.881309
0.817969
0.753382
0.685901
0.612565
0.527046
0.411245
0.189905
2.97971
2.98814
2.99596
3.00196
3.00216
2.99383
2.97741
2.95188
2.91546
2.86716
2.8091
2.74489
2.67557
2.5889
2.48217
2.36952
2.25997
2.15377
2.05105
1.95185
1.85619
1.76402
1.67525
1.58976
1.5074
1.42799
1.35132
1.27718
1.20528
1.13534
1.06698
0.999754
0.933092
0.866216
0.798003
0.726676
0.649068
0.558437
0.435579
0.200761
3.13674
3.15079
3.16462
3.17568
3.18061
3.18018
3.17419
3.16052
3.13379
3.08648
3.02313
2.95071
2.86725
2.76655
2.64607
2.52366
2.40434
2.28878
2.17729
2.06995
1.96677
1.86764
1.77245
1.68102
1.59315
1.50864
1.42723
1.34865
1.2726
1.19872
1.12661
1.05576
0.985551
0.915135
0.8433
0.768142
0.686285
0.590569
0.460655
0.211984
3.29732
3.31867
3.34041
3.35929
3.37395
3.38592
3.39403
3.39591
3.38408
3.33487
3.25731
3.17261
3.07164
2.96154
2.81957
2.68271
2.5513
2.42522
2.30435
2.18855
2.07766
1.97149
1.86983
1.77245
1.67908
1.58948
1.50333
1.42034
1.34014
1.26234
1.1865
1.11205
1.03832
0.964394
0.888976
0.810033
0.723981
0.623239
0.486296
0.223501
3.45991
3.49013
3.52102
3.54988
3.57816
3.606
3.63197
3.65342
3.66056
3.60619
3.50069
3.3903
3.27858
3.14968
2.99075
2.84005
2.69674
2.56021
2.43004
2.30586
2.18737
2.07426
1.96624
1.863
1.76424
1.66964
1.57885
1.49152
1.40726
1.32562
1.2461
1.16813
1.09094
1.01358
0.934648
0.851999
0.761839
0.656171
0.512315
0.235251
3.6218
3.66169
3.70314
3.74433
3.78835
3.83517
3.88351
3.93062
3.96301
3.8926
3.74946
3.61106
3.48543
3.32305
3.15236
2.99052
2.83689
2.6909
2.55208
2.42001
2.29428
2.17455
2.06043
1.95158
1.84763
1.74822
1.65296
1.56145
1.47325
1.3879
1.30484
1.22345
1.14292
1.06222
0.979879
0.893629
0.799467
0.688972
0.53826
0.246978
3.77987
3.82939
3.88234
3.93756
3.99855
4.06686
4.143
4.22735
4.25154
4.12434
3.96645
3.82434
3.66955
3.48333
3.30349
3.13241
2.96985
2.81543
2.66877
2.52942
2.39699
2.27107
2.15124
2.03711
1.92827
1.82432
1.72482
1.62935
1.53742
1.44853
1.3621
1.27744
1.19371
1.10981
1.02421
0.934497
0.836481
0.721323
0.563953
0.258629
3.9312
3.9897
4.0534
4.12236
4.19968
4.2874
4.38587
4.47997
4.45937
4.31182
4.15098
4.00994
3.83482
3.63561
3.44595
3.26586
3.09493
2.93276
2.77889
2.63288
2.49429
2.36268
2.23759
2.11858
2.00522
1.89706
1.79363
1.69446
1.59906
1.50686
1.41726
1.32953
1.24278
1.15587
1.06717
0.974172
0.872489
0.752881
0.589133
0.270101
4.07308
4.1393
4.21225
4.29366
4.38648
4.49318
4.61496
4.69689
4.62921
4.47486
4.31678
4.17493
3.98731
3.77766
3.57864
3.38998
3.21121
3.04183
2.88135
2.72927
2.58509
2.44832
2.31847
2.19506
2.0776
1.96561
1.85861
1.75608
1.65749
1.56225
1.46973
1.37916
1.28962
1.19989
1.1083
1.01222
0.907081
0.78326
0.613408
0.281178
4.20334
4.27577
4.35633
4.44758
4.5524
4.67286
4.80781
4.87963
4.78964
4.62817
4.47022
4.32605
4.12826
3.90852
3.70041
3.50358
3.31747
3.14147
2.97501
2.81748
2.66833
2.527
2.39295
2.26565
2.14458
2.02922
1.91904
1.81352
1.71208
1.61413
1.51897
1.42582
1.33372
1.24142
1.14715
1.04822
0.939866
0.812114
0.636572
0.29181
4.32082
4.3977
4.48403
4.5828
4.6968
4.82822
4.97401
5.04114
4.93533
4.76819
4.61042
4.46445
4.2568
4.02654
3.80947
3.60493
3.4121
3.23021
3.05851
2.8963
2.74292
2.59772
2.46012
2.32954
2.2054
2.08717
1.97429
1.86619
1.76228
1.66195
1.56447
1.46904
1.37466
1.28003
1.18334
1.08178
0.970466
0.839058
0.65819
0.301737
4.42542
4.50474
4.59454
4.69797
4.81759
4.95575
5.10879
5.17576
5.06062
4.88856
4.73168
4.58474
4.36776
4.12764
3.90253
3.69133
3.4929
3.30622
3.13035
2.96444
2.80773
2.65952
2.51913
2.38595
2.25939
2.13885
2.02377
1.91356
1.80761
1.70527
1.60582
1.50842
1.41205
1.31537
1.21651
1.1126
0.998575
0.863783
0.677907
0.310737
4.51789
4.59775
4.68887
4.79373
4.91446
5.05338
5.20959
5.27822
5.15337
4.97795
4.82385
4.67782
4.45371
4.20603
3.97515
3.7594
3.55727
3.36748
3.18891
3.02062
2.86174
2.71152
2.56925
2.43427
2.30597
2.18376
2.06704
1.95521
1.84766
1.74373
1.64267
1.54365
1.44559
1.34716
1.24643
1.14045
1.02402
0.886218
0.695885
0.318966
4.60018
4.67916
4.76955
4.87303
4.99099
5.12575
5.27648
5.33212
5.19914
5.026
4.8766
4.73159
4.5047
4.25502
4.02271
3.80589
3.60287
3.41227
3.23293
3.06386
2.90418
2.75311
2.60995
2.47405
2.34478
2.22155
2.10378
1.99086
1.88218
1.77708
1.6748
1.57449
1.47509
1.37521
1.27291
1.16516
1.04668
0.906287
0.712137
0.326494
4.67454
4.75208
4.84048
4.94032
5.05265
5.17952
5.31259
5.33554
5.19829
5.03195
4.88564
4.7388
4.51533
4.27103
4.04284
3.82918
3.62859
3.43984
3.26187
3.09377
2.93474
2.78406
2.64106
2.50512
2.37566
2.2521
2.13387
2.02038
1.91104
1.80518
1.70206
1.60082
1.5004
1.39938
1.29581
1.1866
1.06639
0.923769
0.726249
0.333022
4.74296
4.82021
4.9061
5.00098
5.10719
5.22613
5.32203
5.28922
5.15453
4.99768
4.85193
4.70219
4.48864
4.25607
4.03696
3.83038
3.63531
3.45088
3.27629
3.11083
2.95383
2.80468
2.66282
2.52769
2.39876
2.2755
2.15737
2.04382
1.93426
1.82805
1.72445
1.62262
1.52148
1.41963
1.31508
1.20472
1.08308
0.938613
0.73827
0.338601
4.80529
4.88257
4.96569
5.05718
5.16015
5.25477
5.2814
5.21197
5.07952
4.92951
4.78432
4.63374
4.43329
4.21672
4.01006
3.81325
3.62591
3.44762
3.27793
3.11638
2.96249
2.81582
2.67591
2.54229
2.41452
2.29211
2.17457
2.06139
1.95201
1.84581
1.74207
1.63996
1.5384
1.436
1.33074
1.21951
1.09676
0.950804
0.748155
0.343202
4.85845
4.93449
5.01792
5.10506
5.18635
5.23021
5.20675
5.11706
4.98553
4.84113
4.69899
4.55079
4.36351
4.16329
3.96975
3.78351
3.60473
3.43339
3.26937
3.11245
2.96235
2.81877
2.68136
2.54978
2.42362
2.30248
2.18592
2.07347
1.9646
1.85872
1.75513
1.65301
1.5513
1.4486
1.3429
1.23105
1.10749
0.960389
0.755938
0.346837
4.90322
4.97398
5.05546
5.13803
5.18734
5.1824
5.12426
5.02121
4.89096
4.75246
4.61458
4.46991
4.29332
4.10628
3.92402
3.74731
3.57656
3.41197
3.25362
3.10145
2.95533
2.81508
2.68045
2.55117
2.42691
2.30733
2.19203
2.08057
1.97247
1.86715
1.76394
1.66204
1.5604
1.45763
1.35171
1.2395
1.11538
0.967468
0.76169
0.349607
4.94727
5.01472
5.09343
5.17066
5.19412
5.15185
5.06568
4.949
4.81613
4.6794
4.54321
4.40016
4.23051
4.05268
3.87884
3.70967
3.54557
3.38681
3.23352
3.08573
2.94339
2.80638
2.67453
2.54761
2.42535
2.30745
2.19355
2.08325
1.97608
1.8715
1.76886
1.66736
1.56598
1.46332
1.35739
1.24503
1.12061
0.9722
0.765557
0.351501
4.99331
5.05976
5.13985
5.20863
5.20326
5.13972
5.03517
4.90585
4.76634
4.62668
4.48869
4.34457
4.17834
4.00614
3.83785
3.67397
3.51481
3.36058
3.2114
3.0673
2.92825
2.79416
2.66486
2.54019
2.41988
2.30366
2.19121
2.08213
1.97599
1.87225
1.7703
1.66933
1.56835
1.46597
1.3602
1.24787
1.12338
0.974745
0.767656
0.352541
5.03889
5.10301
5.181
5.24253
5.22136
5.14456
5.02755
4.88676
4.73865
4.59345
4.45163
4.30397
4.13778
3.96818
3.80285
3.64212
3.48617
3.33509
3.18894
3.0477
2.9113
2.77964
2.65257
2.52988
2.41136
2.29673
2.18567
2.0778
1.97271
1.86987
1.76867
1.66833
1.56785
1.46587
1.36039
1.24827
1.1239
0.975298
0.768148
0.352816
5.08384
5.14441
5.21939
5.2733
5.24121
5.15841
5.03504
4.88558
4.72928
4.57789
4.43174
4.27897
4.10898
3.93903
3.77432
3.61484
3.46052
3.31132
3.16715
3.02792
2.89351
2.76376
2.63849
2.5175
2.40053
2.28732
2.17754
2.07083
1.96675
1.86481
1.7644
1.66473
1.56483
1.46334
1.35827
1.24649
1.12241
0.974066
0.767202
0.352416
5.12882
5.18271
5.24824
5.28836
5.25548
5.17727
5.05032
4.89483
4.73316
4.57808
4.42959
4.2651
4.08824
3.91687
3.75143
3.59185
3.43796
3.28956
3.14648
3.00852
2.87547
2.74713
2.62326
2.50363
2.38797
2.27599
2.16735
2.06169
1.95858
1.85751
1.75787
1.6589
1.55962
1.45868
1.35411
1.24279
1.11914
0.971257
0.764987
0.351422
5.1791
5.22606
5.28115
5.30261
5.25522
5.18695
5.07027
4.9081
4.74199
4.58545
4.4339
4.25927
4.07616
3.90102
3.73329
3.57245
3.41803
3.26966
3.12698
2.98969
2.8575
2.73013
2.60729
2.48872
2.37412
2.26317
2.15552
2.0508
1.94857
1.84832
1.74944
1.65117
1.55254
1.4522
1.34819
1.23742
1.11432
0.967068
0.761654
0.349885
5.24132
5.28543
5.33639
5.3478
5.28197
5.19932
5.08485
4.92402
4.75507
4.59787
4.4416
4.25627
4.06701
3.8879
3.71761
3.55517
3.39986
3.25109
3.1084
2.97138
2.83967
2.71294
2.59084
2.47307
2.35931
2.2492
2.1424
2.0385
1.93707
1.83758
1.73942
1.64185
1.54387
1.44415
1.34076
1.23061
1.10817
0.961687
0.757355
0.347875
5.31812
5.36486
5.41924
5.42487
5.33712
5.23403
5.11254
4.95022
4.7751
4.61402
4.44288
4.24556
4.05476
3.87399
3.70225
3.53867
3.38256
3.23332
3.09044
2.95347
2.822
2.69564
2.57406
2.45688
2.34376
2.23435
2.12825
2.02507
1.92434
1.82555
1.72808
1.63118
1.53385
1.43479
1.33205
1.22258
1.10088
0.955294
0.752241
0.345485
5.40753
5.46234
5.52829
5.53092
5.41813
5.2959
5.15494
4.97836
4.79484
4.62242
4.43229
4.23174
4.04096
3.85958
3.68702
3.52265
3.36587
3.21614
3.07296
2.93588
2.80446
2.67831
2.55704
2.44028
2.32766
2.21879
2.11329
2.01072
1.91063
1.81248
1.71566
1.6194
1.52272
1.42432
1.32227
1.21352
1.09264
0.948049
0.746439
0.342757
5.50266
5.56873
5.65173
5.65643
5.51608
5.36486
5.1999
5.00888
4.81327
4.62444
4.42166
4.22004
4.02839
3.84612
3.67265
3.50741
3.34989
3.19956
3.05595
2.91861
2.78709
2.66098
2.53988
2.42339
2.31113
2.2027
2.09768
1.99564
1.89611
1.79855
1.70233
1.60669
1.51066
1.41292
1.31158
1.2036
1.0836
0.940085
0.740055
0.339783
5.59362
5.66952
5.76721
5.79209
5.63391
5.4448
5.25048
5.03976
4.8303
4.6238
4.41286
4.21079
4.01805
3.8345
3.65974
3.49335
3.33483
3.1837
3.03947
2.90169
2.76991
2.6437
2.52263
2.40629
2.29427
2.18616
2.08154
1.97996
1.88093
1.7839
1.68825
1.59321
1.49782
1.40075
1.30013
1.19295
1.07387
0.931516
0.733181
0.336587
5.67259
5.75425
5.86098
5.93172
5.77905
5.54661
5.31512
5.07846
4.85281
4.63047
4.41361
4.20746
4.01161
3.82554
3.64873
3.48066
3.32077
3.16856
3.02351
2.88512
2.75293
2.62647
2.5053
2.389
2.27713
2.16926
2.06496
1.96377
1.86518
1.76865
1.67354
1.57909
1.48432
1.38793
1.28805
1.1817
1.06359
0.92245
0.725912
0.333202
5.73569
5.81771
5.92267
6.04478
5.94498
5.65696
5.38372
5.1237
4.88113
4.644
4.41992
4.20825
4.00811
3.81868
3.63922
3.46903
3.30748
3.15396
3.0079
2.86876
2.73603
2.60922
2.48786
2.37151
2.25971
2.15202
2.04799
1.94713
1.84895
1.75289
1.6583
1.56442
1.47027
1.37457
1.27544
1.16995
1.05284
0.912976
0.71832
0.329662
5.78523
5.86968
5.98002
6.11617
6.05128
5.73779
5.44023
5.16643
4.90761
4.65957
4.42768
4.21011
4.00542
3.81242
3.63014
3.45772
3.2944
3.13949
2.99234
2.85238
2.71904
2.59182
2.47023
2.35377
2.242
2.13444
2.03063
1.93009
1.83229
1.73667
1.64259
1.54928
1.45576
1.36075
1.26239
1.15777
1.04171
0.903168
0.710469
0.325998
5.81739
5.90447
6.02194
6.17277
6.12692
5.79382
5.48145
5.19383
4.9219
4.66812
4.43113
4.20921
4.00088
3.80489
3.62016
3.44575
3.28082
3.1246
2.97643
2.83567
2.70175
2.57412
2.45227
2.3357
2.22393
2.11649
2.01289
1.91264
1.81522
1.72004
1.62646
1.53371
1.44083
1.34652
1.24896
1.14525
1.03026
0.893086
0.702408
0.322234
5.82614
5.91187
6.02978
6.18305
6.15166
5.81404
5.49518
5.19955
4.92399
4.66735
4.42766
4.20324
3.99264
3.79465
3.60818
3.43227
3.26606
3.1088
2.95977
2.81834
2.68391
2.55593
2.43386
2.3172
2.20546
2.09814
1.99475
1.8948
1.79775
1.70301
1.60995
1.51778
1.42554
1.33195
1.2352
1.13242
1.01854
0.882777
0.694177
0.318392
5.80973
5.88983
6.0014
6.14645
6.12008
5.79309
5.47932
5.1859
4.91199
4.65596
4.41619
4.19124
3.97986
3.78097
3.59357
3.41676
3.24973
3.09174
2.94209
2.80016
2.66536
2.53711
2.4149
2.29819
2.1865
2.07933
1.97618
1.87654
1.77988
1.6856
1.59306
1.50149
1.40991
1.31707
1.22115
1.11933
1.0066
0.872278
0.685809
0.314487
5.77068
5.84292
5.94508
6.07863
6.05761
5.74693
5.44312
5.15709
4.88827
4.6355
4.39767
4.17376
3.96281
3.76394
3.57632
3.39915
3.23171
3.0733
2.92328
2.78103
2.64598
2.51758
2.39529
2.27861
2.16702
2.06004
1.95716
1.85786
1.76161
1.66782
1.57582
1.48486
1.39397
1.3019
1.20684
1.10601
0.994448
0.861618
0.677328
0.310534
5.71346
5.77737
5.86861
5.98693
5.97632
5.6894
5.39765
5.12062
4.85813
4.60968
4.37472
4.15261
3.94271
3.74438
3.55695
3.37978
3.2122
3.05359
2.90337
2.76095
2.62577
2.4973
2.37502
2.25842
2.14699
2.04023
1.93766
1.83874
1.74293
1.64964
1.55823
1.46791
1.37773
1.28645
1.19229
1.09248
0.982124
0.850817
0.668751
0.306542
5.64359
5.70167
5.78531
5.89312
5.89821
5.63583
5.35464
5.08521
4.82804
4.58326
4.35075
4.13023
3.92131
3.72352
3.53635
3.35923
3.19159
3.03288
2.88253
2.74001
2.60477
2.4763
2.35407
2.2376
2.12637
2.0199
1.91766
1.81915
1.72382
1.63109
1.54028
1.45063
1.3612
1.27075
1.17751
1.07875
0.969636
0.83989
0.660091
0.302519
5.56475
5.62121
5.70356
5.81187
5.84075
5.59966
5.32507
5.05917
4.80411
4.56066
4.32901
4.10902
3.90036
3.70265
3.51542
3.33817
3.17036
3.01148
2.86098
2.71835
2.58306
2.45461
2.33247
2.21616
2.10518
1.99901
1.89716
1.7991
1.70429
1.61213
1.52197
1.43303
1.34438
1.25479
1.16251
1.06484
0.956993
0.828845
0.651354
0.298469
5.47737
5.53509
5.61793
5.72441
5.80632
5.60602
5.32125
5.0491
4.79033
4.54463
4.31154
4.09053
3.88109
3.68272
3.49492
3.31716
3.14893
2.98969
2.83892
2.69611
2.56073
2.43228
2.31024
2.19411
2.08339
1.97756
1.87613
1.77856
1.6843
1.59276
1.50328
1.4151
1.32727
1.23857
1.14728
1.05073
0.944197
0.817683
0.642542
0.294395
5.38208
5.44518
5.53373
5.6456
5.77508
5.64015
5.33395
5.04971
4.78408
4.53416
4.2982
4.07508
3.86398
3.66423
3.47528
3.29657
3.12756
2.96771
2.81649
2.67337
2.53783
2.40934
2.28737
2.17143
2.06099
1.95554
1.85456
1.75752
1.66386
1.57298
1.48422
1.39682
1.30985
1.22208
1.13183
1.03643
0.931244
0.806403
0.633653
0.290296
5.27807
5.35144
5.45254
5.58026
5.73342
5.62712
5.32813
5.04505
4.77826
4.52626
4.28792
4.06243
3.84911
3.6474
3.45672
3.27657
3.10638
2.94562
2.79373
2.65015
2.51434
2.38576
2.26385
2.14809
2.03795
1.9329
1.83241
1.73594
1.64292
1.55275
1.46476
1.37819
1.29211
1.20532
1.11613
1.02193
0.918129
0.794996
0.62468
0.286169
5.16137
5.24834
5.36575
5.51265
5.68714
5.61169
5.32192
5.04326
4.77699
4.52327
4.28213
4.05346
3.83703
3.63248
3.43937
3.25719
3.08538
2.92337
2.77056
2.62637
2.4902
2.36146
2.2396
2.12403
2.01422
1.90961
1.80966
1.7138
1.62147
1.53205
1.44488
1.35919
1.27406
1.18828
1.1002
1.00723
0.904841
0.783449
0.6156
0.282
5.02656
5.12913
5.26599
5.43826
5.64835
5.61849
5.33652
5.05892
4.78957
4.53075
4.28391
4.04975
3.82841
3.61969
3.42314
3.23822
3.06429
2.90069
2.74676
2.60182
2.46522
2.33633
2.21451
2.09917
1.98973
1.88561
1.78625
1.69107
1.59948
1.51088
1.42458
1.33981
1.25567
1.17095
1.08401
0.992308
0.891371
0.771756
0.606414
0.27779
4.86723
4.98398
5.13718
5.32745
5.55452
5.63486
5.39421
5.10896
4.82585
4.55368
4.29541
4.05189
3.82307
3.60846
3.40737
3.21899
3.0425
2.87707
2.72189
2.57616
2.43915
2.31012
2.18842
2.07338
1.96439
1.86084
1.76214
1.6677
1.57693
1.4892
1.40382
1.32004
1.23693
1.15331
1.06756
0.977165
0.877714
0.759909
0.597113
0.273534
4.67993
4.80876
4.97596
5.18202
5.42513
5.69341
5.52827
5.21639
4.88944
4.59027
4.31371
4.05707
3.81859
3.59681
3.39043
3.19821
3.019
2.85171
2.69534
2.54893
2.41163
2.28262
2.16116
2.04654
1.9381
1.83521
1.73726
1.64365
1.55377
1.46698
1.38259
1.29985
1.21783
1.13537
1.05085
0.961796
0.863869
0.747909
0.587694
0.269228
4.4634
4.602
4.78257
5.00915
5.28688