/*--------------------------------*- C++ -*----------------------------------*\
  =========                 |
  \\      /  F ield         | OpenFOAM: The Open Source CFD Toolbox
   \\    /   O peration     | Website:  https://openfoam.org
    \\  /    A nd           | Version:  8
     \\/     M anipulation  |
\*---------------------------------------------------------------------------*/
FoamFile
{
    version     2.0;
    format      ascii;
    class       volScalarField;
    location    "1.4";
    object      p;
}
// * * * * * * * * * * * * * * * * * * * * * * * * * * * * * * * * * * * * * //

dimensions      [1 -1 -2 0 0 0 0];

internalField   nonuniform List<scalar> 
9150
(
380.787
353.838
328.288
311.069
302.734
302.733
311.068
328.286
353.835
380.784
351.927
332.421
316.721
304.907
298.903
298.902
304.906
316.719
332.418
351.924
322.658
309.133
300.541
292.787
288.66
288.659
292.786
300.538
309.13
322.655
297.934
287.971
282.448
277.095
274.114
274.114
277.094
282.445
287.968
297.931
276.624
267.798
263.142
258.976
256.528
256.528
258.975
263.14
267.795
276.621
13.8848
9.72334
34.9458
49.2196
55.7461
55.742
49.2081
34.9289
9.70085
13.8551
184.132
159.921
154.549
153.283
153.287
153.285
153.277
154.541
159.912
184.123
288.741
257.242
241.259
231.34
226.591
226.59
231.337
241.255
257.237
288.737
369.272
326.991
299.088
281.729
273.177
273.177
281.728
299.085
326.987
369.269
419.291
367.008
328.393
306.343
296.17
296.17
306.341
328.391
367.005
419.289
-73.1632
-31.5156
-40.117
-32.2047
-36.7087
-36.7353
-32.2656
-40.1916
-31.7156
-73.5291
-64.9581
-44.2
-63.1242
-54.6686
-58.4193
-58.4572
-54.6866
-63.2208
-44.3394
-65.227
-108.03
-75.029
-105.125
-98.0448
-94.5078
-94.5216
-98.0796
-105.208
-75.1515
-108.189
-286.714
-160.664
-141.801
-123.556
-107.468
-107.477
-123.592
-141.868
-160.728
-286.843
-427.358
-191.594
-94.4384
-64.3455
-48.9098
-48.9165
-64.3674
-94.4724
-191.636
-427.445
1926.28
1936.13
1942.63
1945.78
1945.6
1942.14
1935.38
1925.33
1912.1
1895.81
1808.69
1817.17
1822.97
1825.92
1825.81
1822.54
1816.31
1807.3
1795.67
1781.67
1679.58
1685.42
1689.32
1691.11
1690.73
1688.15
1683.43
1676.64
1667.9
1657.47
1593.17
1597.39
1600.03
1601.06
1600.43
1598.15
1594.23
1588.73
1581.73
1573.36
1534.53
1537.23
1538.78
1539.14
1538.27
1536.16
1532.82
1528.29
1522.64
1515.96
1495.94
1497.28
1497.85
1497.61
1496.53
1494.59
1491.79
1488.15
1483.71
1478.52
1472.36
1472.38
1472.03
1471.27
1470.06
1468.38
1466.21
1463.56
1460.47
1456.95
1459.11
1457.86
1456.68
1455.49
1454.27
1453
1451.65
1450.25
1448.83
1447.44
1451.86
1449.55
1447.72
1446.29
1445.21
1444.47
1444.08
1444.08
1444.54
1445.48
1447.09
1444.08
1441.87
1440.37
1439.55
1439.39
1439.94
1441.28
1443.47
1446.46
1442.05
1438.81
1436.55
1435.17
1434.64
1434.97
1436.23
1438.49
1441.74
1446.24
1435.04
1432.11
1430.1
1428.94
1428.65
1429.24
1430.76
1433.17
1436.55
1442.34
1425.73
1423.48
1421.89
1421
1420.84
1421.42
1422.72
1424.62
1427.7
1434.98
1414.67
1413.23
1412.11
1411.43
1411.26
1411.57
1412.24
1413.18
1415.92
1424.39
1402.82
1402.11
1401.4
1400.87
1400.63
1400.59
1400.56
1400.82
1403.86
1411.88
1390.9
1390.77
1390.41
1390.02
1389.71
1389.4
1388.92
1389.33
1393.75
1398.1
1379.8
1379.75
1379.56
1379.2
1378.82
1378.32
1377.83
1379.23
1384.98
1381.32
1370.78
1369.75
1369.32
1368.8
1368.3
1367.82
1368.09
1371.93
1378.67
1357.16
1361.03
1358.86
1358.18
1357.46
1356.63
1355.83
1356.28
1361.09
1365.12
1323.22
1352.94
1348.4
1346.82
1345.58
1344.09
1342.58
1342.63
1347
1345.99
1286.97
1345.9
1338.37
1335.46
1333.61
1331.51
1329.56
1329.93
1334.2
1324.18
1246.81
1336.03
1327.14
1323.13
1320.75
1318.12
1315.8
1316.47
1319.5
1296.26
1204.29
1327.7
1317.83
1311.52
1307.91
1304.38
1301.28
1301.28
1301.09
1264.57
1167.33
1317.14
1308.58
1300.16
1295.37
1291.17
1287.63
1287.11
1282.97
1233.95
1136.56
1299.85
1296.51
1287.98
1282.84
1278.66
1275.5
1274.98
1265.02
1203.56
1111.14
1282.11
1286.97
1278.16
1272.12
1267.79
1265.11
1264.62
1249.28
1179.45
1095.66
1266.41
1281.33
1271.52
1263.63
1258.68
1256.21
1255.33
1234.56
1159.16
1085.31
1247.1
1271.2
1262.72
1254.46
1249.8
1248.27
1247.79
1223.48
1147.44
1085.45
1225.29
1256.81
1251.25
1243.86
1240.01
1239.47
1238.89
1211.04
1134
1078.8
1202.4
1241.94
1239.59
1233.06
1229.98
1230.44
1230.23
1199.99
1120.41
1066.41
1176.9
1226.9
1229.65
1223.6
1221.05
1223.01
1225.03
1195.67
1113.71
1057.55
1155.89
1211.13
1219.71
1213.78
1210.86
1213.35
1216.75
1189.52
1109.39
1054.98
1147.09
1197.69
1208.02
1200.77
1195.52
1194.51
1193.35
1170.19
1111.32
1071.65
1132.37
1180.8
1193.26
1184.9
1177.31
1172.49
1165.91
1147.7
1116.81
1090.16
1110.99
1158.51
1175.02
1167.46
1159.48
1153.42
1144.56
1128.93
1110.07
1097.53
1094.82
1135.47
1154.44
1149.5
1143.17
1138.94
1131.66
1115.07
1100.85
1090.58
1082.83
1110.63
1129.55
1129.52
1127.11
1127.33
1125.03
1108.16
1090.23
1074.77
1072.94
1086.32
1100.16
1104.51
1107.13
1112.17
1115.45
1102.64
1084.65
1078.22
1061.12
1061.4
1067.79
1075.01
1082.05
1090.54
1098.37
1093.44
1078.7
1084.78
1033.54
1026.33
1032.25
1043.1
1053.48
1063.96
1074
1076.12
1066
1082.38
978.02
959.285
980.168
1004.4
1022.09
1036.36
1049.09
1056.52
1056.13
1061.27
961.466
941.8
960.934
984.421
1001.93
1015.92
1028.19
1037.24
1042.44
1050.04
997.539
980.248
979.559
988.16
995.981
1003.73
1012
1018.92
1023.86
1031.89
1003.6
989.651
985.851
984.379
983.932
986.259
990.298
994.623
998.392
1013.89
985.602
977.691
993
967.596
961.693
961.001
962.486
964.753
967.764
992.16
963.4
955.813
966.13
942.198
934.872
933.699
935.114
937.821
943.954
967.043
936.299
929.51
932.956
914.077
906.435
906.603
909.959
915.956
930.121
952.884
905.543
898.454
903.646
880.351
874.17
875.781
880.3
887.441
906.772
929.27
869.533
875.561
873.915
858.799
847.641
847.06
849.618
854.55
873.896
900.214
836.647
846.513
842.515
826.139
814.457
813.784
815.496
818.838
836.543
863.472
817.302
822.856
814.962
794.096
780.395
778.895
779.196
780.845
798.009
826.015
791.462
800.658
788.307
761.903
745.646
742.438
740.456
739.79
756.679
786.589
755.6
773.579
751.253
724.134
708.536
703.79
699.205
695.876
711.44
741.337
703.741
726.168
701.861
677.922
665.478
660.894
654.878
649.147
661.823
690.043
667.391
682.541
653.824
632.35
623.223
619.427
613.301
606.731
617.062
646.624
648.19
646.236
618.981
595.553
587.462
583.465
577.821
572.022
579.699
609.555
612.241
601.827
571.801
553.024
548.07
545.309
541.327
537.471
543.613
571.863
562.301
540.913
518.253
507.951
505.54
502.932
498.736
493.846
495.694
517.41
518.202
490.272
472.506
466.146
463.951
460.381
454.719
447.227
443.692
457.547
474.974
450.749
433.601
428.93
426.325
421.93
415.32
406.354
399.867
409.431
426.661
404.491
394.079
392.855
391.323
387.707
382.013
373.96
367.737
377.848
381.668
365.791
362.038
362.474
361.461
358.735
354.456
348.212
343.042
352.788
345.842
334.813
334.438
335.682
335.22
333.384
330.444
326.102
321.601
325.125
316.749
308.881
310.762
312.426
312.246
310.888
308.581
305.038
300.459
299.779
289.48
288.32
291.219
292.719
292.684
291.645
289.692
286.42
281.568
278.855
271.131
272.562
275.332
276.629
276.795
276.166
274.759
272.199
267.96
264.545
253.609
257.746
261.178
262.957
263.689
263.627
262.804
261.035
257.802
253.859
242.77
247.579
250.845
252.812
253.914
254.29
253.971
252.915
250.868
247.61
236.095
240.651
243.685
245.716
246.999
247.545
247.342
246.39
244.465
241.083
230.86
235.464
238.739
241.091
242.643
243.364
243.241
242.279
240.369
237.17
229.576
233.801
237.078
239.568
241.252
242.08
242.037
241.119
239.334
236.553
229.778
234.181
237.742
240.463
242.295
243.199
243.159
242.161
240.223
237.313
233.034
237.526
241.238
244.086
246.009
246.981
246.978
245.991
244.038
241.164
238.721
243.357
247.194
250.125
252.106
253.11
253.111
252.09
250.048
247.052
247.118
251.695
255.483
258.381
260.35
261.354
261.372
260.384
258.386
255.443
257.41
261.819
265.472
268.264
270.16
271.131
271.154
270.208
268.296
265.483
269.133
273.17
276.533
279.117
280.879
281.782
281.798
280.912
279.13
276.518
280.667
284.452
287.585
289.978
291.594
292.408
292.397
291.547
289.874
287.435
291.681
295.131
297.993
300.175
301.631
302.342
302.296
301.492
299.964
297.787
301.081
304.219
306.862
308.868
310.18
310.767
310.623
309.767
308.245
306.182
307.753
310.735
313.306
315.251
316.479
316.933
316.609
315.548
313.838
311.672
309.838
313.283
316.21
318.382
319.663
319.98
319.317
317.731
315.335
312.327
305.859
310.713
314.614
317.407
318.958
319.174
318.038
315.619
312.022
307.361
295.492
302.34
307.776
311.533
313.534
313.692
311.983
308.457
303.169
296.339
281.297
288.806
295.562
300.306
302.779
302.916
300.684
296.097
289.376
281.761
265.027
270.641
277.464
282.879
285.762
285.916
283.295
278.025
271.189
265.405
244.574
248.423
253.416
258.673
261.776
261.969
259.19
254.103
249.101
245.098
213.669
221.363
223.644
227.714
230.721
230.956
228.336
224.47
222.215
214.44
165.878
187.959
189.094
191.301
193.802
194.069
192.013
190.052
189.014
167.065
111.845
146.578
149.68
151.142
153.244
153.529
151.908
150.761
147.865
113.15
68.0212
104.109
109.815
111.619
113.527
113.788
112.327
110.837
105.35
69.1308
36.2172
67.2658
74.8477
77.1007
78.805
79.009
77.659
75.6733
68.3039
37.0996
16.9627
39.0917
46.461
49.1613
50.8201
50.9572
49.5507
47.0634
39.8316
17.4778
6.09711
18.8064
24.8948
28.0146
29.7696
29.8419
28.2388
25.2745
19.2825
6.37937
-0.654733
4.63394
9.44758
12.8873
14.7138
14.7359
12.9728
9.64964
4.9568
-0.493513
-5.20924
-5.66343
-1.64859
1.84785
3.44875
3.44111
1.82414
-1.62242
-5.55417
-5.14351
-9.63323
-14.8345
-10.8629
-7.69747
-6.30283
-6.31596
-7.76835
-10.9632
-14.8742
-9.64754
-16.7027
-23.4584
-17.6176
-15.4859
-13.7956
-13.8077
-15.558
-17.7684
-23.6662
-16.8963
-29.1211
-19.2038
-15.4832
-18.6219
-18.5643
-18.5733
-18.6642
-15.4774
-19.3966
-29.724
-42.9788
-4.77557
-15.6209
-21.9959
-25.1816
-25.1958
-22.027
-15.569
-4.80364
-43.5258
1875.46
1850.87
1823.55
1793.95
1762.65
1730.3
1697.56
1665.11
1633.62
1603.7
1575.88
1550.65
1528.39
1508.93
1492.07
1477.63
1465.58
1455.85
1448.34
1442.84
1439.16
1437.08
1436.42
1436.98
1438.58
1441.04
1444.23
1447.98
1452.17
1456.66
1461.33
1466.04
1470.69
1475.14
1479.39
1485.12
1490.87
1492.74
1492.65
1497.39
1764.61
1743.8
1720.86
1696.38
1670.9
1644.98
1619.23
1594.19
1570.36
1548.13
1527.78
1509.45
1493.18
1479.67
1468.44
1459.31
1452.1
1446.65
1442.75
1440.23
1438.93
1438.69
1439.37
1440.84
1442.98
1445.67
1448.81
1452.26
1455.93
1459.68
1463.37
1466.84
1469.92
1472.41
1474.29
1475.98
1476.82
1480.11
1480.9
1481.66
1644.89
1629.61
1612.87
1595.22
1577.15
1559.13
1541.61
1525.01
1509.66
1495.81
1483.58
1473.03
1464.11
1456.82
1450.97
1446.41
1443.01
1440.66
1439.22
1438.61
1438.71
1439.42
1440.65
1442.33
1444.36
1446.67
1449.17
1451.77
1454.35
1456.8
1458.99
1460.77
1462
1462.55
1462.46
1461.92
1461.36
1462.34
1468.29
1474.6
1563.22
1551.29
1538.43
1524.97
1511.3
1497.76
1484.72
1472.5
1461.41
1451.75
1443.64
1437.1
1432.02
1428.24
1425.55
1423.83
1422.91
1422.69
1423.08
1423.97
1425.26
1426.87
1428.71
1430.73
1432.84
1434.99
1437.11
1439.12
1440.94
1442.48
1443.65
1444.39
1444.64
1444.45
1444
1443.72
1444.65
1449.08
1458.77
1469.97
1507.91
1498.42
1488.14
1477.27
1466.01
1454.55
1443.17
1432.23
1422.23
1413.7
1406.99
1402.15
1398.96
1397.28
1396.5
1396.49
1397.21
1398.52
1400.31
1402.43
1404.78
1407.24
1409.75
1412.23
1414.62
1416.86
1418.9
1420.7
1422.19
1423.34
1424.12
1424.52
1424.61
1424.56
1424.65
1425.48
1428.27
1435.43
1448.25
1461.55
1472.29
1464.87
1456.66
1447.63
1437.76
1427.28
1416.73
1406.01
1394.53
1382.97
1372.89
1366.52
1364.76
1365.9
1367.22
1367.43
1368.02
1369.81
1372.62
1375.96
1379.49
1383.02
1386.45
1389.68
1392.65
1395.32
1397.65
1399.62
1401.21
1402.42
1403.28
1403.85
1404.25
1404.72
1405.61
1407.54
1411.69
1420.22
1433.91
1447.2
1452.79
1447.8
1442.12
1435.78
1429.25
1423.45
1417.45
1402.33
1369.17
1328.59
1291.98
1276.99
1281.73
1299.25
1321.92
1333.55
1335.65
1337.05
1340.6
1345.39
1350.51
1355.54
1360.28
1364.65
1368.57
1372.03
1375
1377.5
1379.55
1381.18
1382.45
1383.47
1384.39
1385.47
1387.07
1389.73
1394.48
1403.1
1415.91
1427.86
1445.98
1444.39
1443.2
1443.84
1447.24
1446.33
1418.26
1338.29
1243.55
1215.98
1205.98
1204.04
1205.5
1210.08
1233.77
1260.1
1280.15
1291.73
1300.69
1309.42
1317.75
1325.39
1332.23
1338.3
1343.61
1348.21
1352.14
1355.46
1358.22
1360.49
1362.37
1363.96
1365.44
1367.04
1369.08
1372
1376.61
1384.25
1395.01
1404.54
1446.97
1449.8
1456.46
1468.46
1467.92
1406.89
1282.53
1202.96
1194.87
1193.11
1193.51
1194
1194.62
1195.79
1196.81
1203.52
1220.71
1240.91
1258.36
1272.28
1284.32
1294.88
1304.1
1312.08
1318.97
1324.89
1329.93
1334.21
1337.8
1340.81
1343.34
1345.51
1347.48
1349.44
1351.63
1354.38
1358.27
1364.22
1372.27
1379.13
1451.08
1460.66
1478.06
1483.78
1408.63
1268.84
1194.78
1193.1
1192.73
1192.81
1193.11
1193.46
1193.82
1194.13
1194.25
1193.88
1190.7
1195.6
1214.78
1235.28
1252.04
1265.72
1277.26
1287.12
1295.55
1302.75
1308.89
1314.11
1318.53
1322.25
1325.4
1328.08
1330.41
1332.54
1334.63
1336.88
1339.65
1343.52
1348.54
1352.72
1454.75
1472.48
1486.46
1421.68
1267.93
1192.75
1190.91
1191.28
1192.04
1192.64
1193.13
1193.59
1194.08
1194.42
1194.45
1193.78
1187.16
1170.24
1181.31
1204.82
1224.88
1240.56
1253.55
1264.65
1274.18
1282.35
1289.34
1295.32
1300.42
1304.75
1308.4
1311.46
1314.01
1316.13
1317.92
1319.47
1320.92
1322.56
1324.51
1326.1
1455.13
1472.38
1437.61
1292.62
1190.59
1186.63
1187.87
1189.69
1191.21
1192.14
1193.09
1194.14
1194.89
1195.39
1195.53
1194.95
1183
1156.69
1162.72
1185.33
1205.12
1220.7
1233.82
1245.25
1255.21
1263.85
1271.33
1277.8
1283.36
1288.1
1292.09
1295.38
1298
1299.98
1301.34
1302.09
1302.2
1301.66
1300.68
1299.96
1449.26
1445.15
1342.18
1204.37
1175.32
1177.14
1181.2
1185.01
1189.03
1192.24
1194.37
1195.79
1196.87
1197.72
1197.94
1197.81
1173.62
1145.61
1153.38
1173.66
1190.97
1205.1
1217.48
1228.53
1238.35
1247.01
1254.63
1261.3
1267.08
1272.04
1276.2
1279.57
1282.14
1283.89
1284.78
1284.74
1283.63
1281.19
1277.67
1275.65
1432.91
1381.86
1240.36
1166.45
1161.45
1166.87
1175.22
1183.8
1188.67
1191.68
1192.94
1193.5
1198.35
1200.24
1200.82
1193.86
1157.54
1137.43
1148.83
1165.71
1179.92
1192.22
1203.46
1213.75
1223.07
1231.43
1238.91
1245.53
1251.32
1256.3
1260.46
1263.76
1266.17
1267.62
1268.02
1267.25
1265.04
1260.97
1255.31
1251.42
1403
1302.23
1174
1143.81
1150.11
1164
1183.53
1197.23
1192.05
1180.16
1177.36
1184.95
1195.98
1199.76
1201.06
1176.17
1135.24
1129.38
1143.77
1157.91
1169.76
1180.57
1190.71
1200.13
1208.79
1216.69
1223.83
1230.21
1235.82
1240.65
1244.65
1247.77
1249.94
1251.04
1250.94
1249.48
1246.32
1240.89
1233.54
1228.21
1355.98
1227.52
1150.51
1137.53
1147.49
1173.52
1197.56
1204.09
1186.24
1158.91
1156.26
1168.01
1179.32
1190.14
1186.59
1148.82
1119.2
1124.39
1138.23
1149.94
1160.08
1169.62
1178.7
1187.23
1195.15
1202.46
1209.13
1215.12
1220.41
1224.94
1228.67
1231.51
1233.36
1234.08
1233.51
1231.45
1227.51
1221.04
1212.46
1206.1
1306.49
1181.53
1140.31
1145.09
1162.2
1180.11
1191.05
1190.15
1174.02
1142.88
1132.95
1144.1
1151.38
1157.68
1151.79
1126.65
1115.17
1122.84
1133.26
1142.41
1150.93
1159.2
1167.18
1174.76
1181.9
1188.53
1194.62
1200.11
1204.96
1209.11
1212.48
1214.98
1216.47
1216.8
1215.8
1213.24
1208.71
1201.52
1192.22
1184.61
1256.16
1161.68
1136.26
1143.57
1160.86
1169.13
1170.79
1160.74
1148.16
1126.28
1113.27
1120.24
1126.91
1126.99
1122.16
1112.29
1112.21
1119.24
1126.93
1134.29
1141.56
1148.73
1155.72
1162.42
1168.77
1174.7
1180.16
1185.1
1189.46
1193.17
1196.13
1198.24
1199.35
1199.31
1197.93
1194.98
1190.01
1182.33
1172.54
1164.94
1214.18
1154.03
1140.72
1140
1147.61
1155.63
1147.17
1121.62
1109.34
1105.23
1100.65
1103.43
1108.34
1106.03
1100.58
1098.42
1103.98
1111.42
1118.38
1125.02
1131.54
1137.93
1144.11
1150.04
1155.65
1160.9
1165.74
1170.1
1173.94
1177.18
1179.71
1181.43
1182.19
1181.84
1180.2
1177.06
1171.97
1164.25
1154.54
1148.07
1177.05
1136.55
1132.71
1133.31
1138.93
1142.51
1117.97
1095.12
1092.63
1093.08
1092.5
1093.53
1096.36
1095.17
1091.23
1090.96
1096.72
1103.57
1109.84
1115.75
1121.51
1127.12
1132.53
1137.7
1142.6
1147.17
1151.38
1155.17
1158.48
1161.23
1163.33
1164.66
1165.11
1164.5
1162.69
1159.49
1154.47
1146.95
1137.73
1131.13
1143.39
1114.63
1115.01
1122.53
1133.06
1119.81
1092.26
1085.17
1085.6
1086.52
1086.71
1086.96
1087.71
1087.82
1086.32
1086.38
1090.78
1096.36
1101.65
1106.7
1111.63
1116.43
1121.06
1125.48
1129.67
1133.58
1137.17
1140.38
1143.16
1145.43
1147.1
1148.07
1148.21
1147.39
1145.46
1142.25
1137.38
1130.25
1121.73
1115.4
1118.39
1098.95
1101.59
1111.61
1119.33
1096.26
1083.9
1081.13
1081.36
1081.83
1082.04
1082.11
1082.32
1082.25
1080.38
1080.35
1084.14
1088.9
1093.39
1097.66
1101.81
1105.84
1109.72
1113.43
1116.93
1120.19
1123.17
1125.83
1128.09
1129.89
1131.16
1131.78
1131.66
1130.66
1128.66
1125.49
1120.84
1114.18
1106.31
1100.1
1101.37
1088.59
1092.59
1101.81
1102.43
1083.5
1078.72
1077.9
1077.88
1077.97
1078.02
1078.09
1078.29
1077.72
1074.88
1074.3
1077.56
1081.57
1085.28
1088.78
1092.17
1095.45
1098.61
1101.63
1104.47
1107.1
1109.5
1111.61
1113.37
1114.74
1115.62
1115.93
1115.57
1114.43
1112.41
1109.34
1104.94
1098.81
1091.56
1086.09
1087.34
1079.48
1084.88
1092.2
1085.59
1076.11
1074.18
1073.97
1073.93
1073.93
1073.97
1074.07
1074.2
1073.29
1070.1
1068.96
1071.44
1074.6
1077.48
1080.18
1082.81
1085.36
1087.82
1090.16
1092.36
1094.39
1096.22
1097.8
1099.09
1100.03
1100.55
1100.59
1100.05
1098.85
1096.88
1094.02
1090.01
1084.5
1078.09
1075.24
1075.16
1073.24
1079.94
1081.81
1073.97
1070.48
1070.24
1069.87
1069.69
1069.61
1069.63
1069.73
1069.8
1068.88
1065.6
1064.07
1065.68
1067.95
1070
1071.91
1073.78
1075.61
1077.38
1079.07
1080.64
1082.08
1083.36
1084.43
1085.26
1085.8
1086
1085.81
1085.17
1084.01
1082.26
1079.82
1076.49
1071.95
1067.02
1065.02
1070.86
1069.65
1076.4
1070.59
1064.08
1064.42
1065.3
1064.9
1064.78
1064.73
1064.76
1064.86
1064.89
1064.24
1061.34
1059.65
1060.36
1061.68
1062.88
1064
1065.11
1066.21
1067.29
1068.32
1069.28
1070.14
1070.88
1071.45
1071.84
1072.01
1071.93
1071.56
1070.86
1069.77
1068.26
1066.27
1063.64
1060.08
1056.89
1053.98
1072.37
1069.78
1069.72
1062.71
1059.4
1058.33
1058.53
1059.02
1059.23
1059.38
1059.47
1059.49
1059.39
1059.28
1057.83
1056.09
1055.69
1055.89
1056.14
1056.42
1056.73
1057.09
1057.46
1057.84
1058.19
1058.48
1058.7
1058.81
1058.79
1058.62
1058.27
1057.73
1056.95
1055.89
1054.53
1052.81
1050.62
1047.71
1045.3
1043.15
1075.58
1068.78
1059.09
1055.86
1056.2
1052.45
1051.48
1053.14
1053.82
1054.16
1054.26
1054.09
1053.75
1054.36
1055.1
1053.26
1051.49
1050.41
1049.63
1049.02
1048.52
1048.12
1047.81
1047.54
1047.31
1047.06
1046.79
1046.47
1046.08
1045.61
1045.04
1044.34
1043.48
1042.45
1041.21
1039.73
1037.93
1035.72
1033.14
1031.17
1070.07
1063.17
1057.38
1054.31
1051.37
1045.33
1046.4
1048.32
1049.31
1049.76
1049.84
1049.55
1049.05
1049.84
1051.78
1049.85
1046.91
1044.69
1042.98
1041.53
1040.27
1039.18
1038.22
1037.37
1036.59
1035.86
1035.14
1034.44
1033.72
1032.98
1032.2
1031.36
1030.44
1029.42
1028.29
1027.03
1025.59
1023.9
1022.11
1020.82
1059.23
1058.02
1056.38
1052.89
1045.93
1043.61
1044.11
1045.4
1046.2
1046.55
1046.58
1046.33
1045.84
1046.22
1047.22
1044.93
1041.29
1038.33
1035.9
1033.78
1031.88
1030.19
1028.67
1027.3
1026.03
1024.86
1023.75
1022.7
1021.69
1020.71
1019.74
1018.78
1017.8
1016.8
1015.77
1014.71
1013.6
1012.43
1011.33
1010.61
1051.1
1053.12
1052.76
1047.74
1044.14
1043.31
1043.5
1043.89
1044.13
1044.23
1044.19
1044
1043.61
1043.68
1042.46
1038.93
1034.81
1031.39
1028.44
1025.76
1023.34
1021.13
1019.13
1017.3
1015.61
1014.06
1012.61
1011.25
1009.98
1008.77
1007.63
1006.54
1005.51
1004.52
1003.58
1002.69
1001.87
1001.15
1000.64
1000.36
1048.48
1053.52
1048.99
1043.87
1042.15
1041.98
1042.08
1042.14
1042.18
1042.19
1042.14
1041.99
1041.68
1041.48
1037.9
1032.53
1027.86
1024.08
1020.68
1017.54
1014.65
1012.01
1009.59
1007.36
1005.31
1003.41
1001.66
1000.03
998.504
997.092
995.787
994.585
993.489
992.503
991.634
990.896
990.311
989.955
989.881
989.959
1053.66
1062.86
1042.62
1039.49
1039.51
1039.88
1040.09
1040.2
1040.25
1040.27
1040.24
1040.11
1039.81
1038.97
1033.04
1025.82
1020.63
1016.48
1012.66
1009.1
1005.81
1002.79
999.997
997.425
995.052
992.856
990.82
988.933
987.192
985.598
984.147
982.842
981.689
980.693
979.869
979.231
978.817
978.713
978.958
979.339
1082.92
1058.28
1038.62
1037.4
1037.75
1038.14
1038.33
1038.43
1038.49
1038.51
1038.48
1038.36
1038.05
1035.91
1027.18
1018.51
1012.96
1008.49
1004.3
1000.38
996.744
993.391
990.291
987.42
984.759
982.29
980.004
977.897
975.968
974.217
972.642
971.248
970.037
969.018
968.209
967.628
967.332
967.415
967.892
968.567
1079.52
1047.75
1036.94
1036.39
1036.6
1036.74
1036.79
1036.85
1036.88
1036.89
1036.9
1036.87
1036.44
1031.68
1019.39
1010
1004.53
999.906
995.45
991.251
987.353
983.736
980.375
977.248
974.34
971.641
969.149
966.858
964.769
962.877
961.188
959.705
958.43
957.374
956.551
955.99
955.754
955.944
956.541
957.206
1065.12
1038.89
1032.85
1034.13
1035.47
1035.63
1035.4
1035.31
1035.3
1035.37
1035.67
1036.13
1035.38
1024.88
1008.58
999.818
995.055
990.544
985.985
981.634
977.564
973.753
970.187
966.855
963.747
960.862
958.198
955.751
953.517
951.499
949.702
948.128
946.779
945.667
944.807
944.23
943.998
944.213
944.847
945.436
1052.55
1031.24
1025.63
1029.42
1033.95
1035.24
1034.28
1033.51
1033.2
1033.15
1033.55
1034.97
1033.12
1015.87
997.5
989.803
985.394
980.811
976.116
971.631
967.418
963.447
959.718
956.22
952.951
949.912
947.1
944.514
942.153
940.023
938.124
936.457
935.026
933.84
932.919
932.291
932.006
932.186
932.751
933.256
1064.88
1033.96
1022.46
1023.84
1029.66
1032.1
1031.46
1030.5
1030.03
1029.91
1030
1030.1
1025.51
1004.5
987.391
980.474
975.745
970.806
965.898
961.264
956.911
952.804
948.94
945.31
941.911
938.743
935.806
933.104
930.637
928.407
926.41
924.648
923.13
921.863
920.868
920.163
919.781
919.872
920.31
920.642
1085.13
1045.62
1026.12
1020.6
1021.6
1025.31
1026.88
1026.41
1026.19
1026.44
1026.83
1025.98
1014.22
989.24
975.467
969.962
965.18
960.073
955.087
950.39
945.955
941.759
937.799
934.069
930.569
927.298
924.263
921.468
918.915
916.598
914.513
912.662
911.054
909.697
908.605
907.788
907.271
907.096
907.257
907.51
1081.14
1051.32
1029.33
1018.77
1016.24
1019.23
1020.97
1021.4
1021.66
1022.26
1023.34
1021.67
999.297
973.052
963.229
958.763
953.94
948.771
943.773
939.045
934.553
930.293
926.263
922.458
918.878
915.527
912.415
909.548
906.924
904.532
902.371
900.441
898.744
897.288
896.075
895.112
894.42
894.015
893.914
893.956
1069.41
1047.49
1026.15
1015.16
1011.32
1013.89
1015.71
1016.51
1016.87
1017.17
1017.68
1010.76
980.9
959.208
952.157
947.574
942.388
937.086
932.033
927.245
922.697
918.38
914.29
910.425
906.782
903.371
900.204
897.285
894.605
892.153
889.926
887.921
886.135
884.568
883.222
882.101
881.205
880.551
880.164
880.023
1054.72
1038.57
1018.07
1011.61
1006.94
1009.13
1012.24
1012.98
1013.31
1013.54
1011.83
992.75
960.019
945.606
940.521
935.624
930.167
924.803
919.715
914.885
910.294
905.936
901.804
897.896
894.212
890.766
887.565
884.61
881.887
879.389
877.107
875.033
873.161
871.485
870.008
868.727
867.63
866.713
866.026
865.672
1039.92
1029.4
1012.05
1011.03
1006.19
1004.58
1007.8
1008.97
1009.38
1010.43
1005.53
971.465
941.588
932.828
928.319
922.987
917.339
911.921
906.789
901.915
897.284
892.892
888.735
884.808
881.114
877.658
874.441
871.46
868.706
866.172
863.846
861.716
859.77
858.002
856.406
854.972
853.675
852.498
851.514
850.926
1012.17
1010.78
1010.29
1011.94
1006.89
1002.02
1003.11
1004.87
1005.42
1004.19
984.25
944.402
925.544
920.153
915.286
909.548
903.806
898.351
893.176
888.259
883.597
879.188
875.027
871.109
867.428
863.983
860.769
857.783
855.02
852.471
850.121
847.949
845.94
844.088
842.379
840.796
839.306
837.876
836.604
835.792
983.148
989.356
1008.09
1010.59
1001.68
997.433
998.453
1000.24
1001.95
997.25
958.34
921.881
911.585
907.032
901.463
895.408
889.577
884.061
878.832
873.884
869.2
864.791
860.643
856.749
853.1
849.687
846.501
843.538
840.791
838.247
835.885
833.685
831.629
829.705
827.895
826.176
824.51
822.851
821.307
820.289
959.775
970.3
988.487
994.64
992.045
990.459
992.141
993.511
991.582
969.504
925.013
903.502
897.838
892.797
886.656
880.449
874.558
868.986
863.716
858.743
854.056
849.66
845.538
841.682
838.081
834.723
831.592
828.677
825.965
823.44
821.081
818.866
816.778
814.799
812.908
811.081
809.274
807.425
805.656
804.47
949.918
965.578
967.747
981.042
981.169
980.928
982.971
986.152
976.066
935.725
899.647
889.092
884.043
877.874
871.203
864.797
858.774
853.104
847.776
842.772
838.091
833.72
829.646
825.852
822.32
819.033
815.972
813.118
810.456
807.97
805.638
803.437
801.346
799.342
797.405
795.507
793.598
791.605
789.657
788.335
930.693
936.848
947.159
968.789
969.469
969.758
971.558
970.368
948.509
906.352
884.163
876.433
869.665
862.245
855.025
848.319
842.09
836.286
830.884
825.86
821.201
816.883
812.882
809.174
805.735
802.54
799.569
796.8
794.215
791.796
789.521
787.366
785.306
783.317
781.376
779.454
777.49
775.401
773.327
771.904
904.49
902.813
923.96
956.464
957.34
957.819
959.573
954.647
922.212
885.202
870.334
861.942
853.523
845.227
837.58
830.604
824.202
818.306
812.88
807.887
803.295
799.073
795.181
791.59
788.274
785.201
782.353
779.696
777.224
774.91
772.73
770.66
768.672
766.739
764.836
762.932
760.957
758.826
756.681
755.199
871.338
867.66
898.057
944.314
945.401
945.546
945.484
932.629
894.084
865.762
853.553
844.157
834.858
826.176
818.344
811.267
804.831
798.964
793.613
788.734
784.278
780.205
776.48
773.063
769.921
767.021
764.33
761.831
759.508
757.338
755.29
753.342
751.466
749.629
747.805
745.959
744.022
741.902
739.744
738.242
834.389
826.465
871.081
933.195
934.411
934.152
932.197
908.027
866.487
844.379
833.099
823.102
813.505
804.805
797.048
790.089
783.805
778.124
772.981
768.325
764.104
760.268
756.779
753.598
750.682
747.998
745.52
743.23
741.105
739.118
737.243
735.451
733.718
732.013
730.304
728.558
726.704
724.649
722.536
721.056
793.333
781.088
842.507
924.294
925.77
924.924
918.806
882.073
838.326
819.306
808.627
798.649
789.262
780.91
773.529
766.943
761.032
755.719
750.944
746.647
742.774
739.274
736.101
733.221
730.592
728.183
725.975
723.942
722.055
720.286
718.615
717.016
715.459
713.921
712.366
710.759
709.033
707.095
705.083
703.666
743.849
722.869
804.52
919.102
921.082
919.568
905.439
850.111
801.908
786.419
778.49
770.027
761.71
754.266
747.673
741.783
736.502
731.765
727.53
723.736
720.327
717.258
714.487
711.979
709.706
707.638
705.751
704.018
702.408
700.894
699.459
698.081
696.734
695.393
694.025
692.593
691.034
689.262
687.408
686.094
687.69
651.552
743.957
908.036
913.345
907.464
886.31
814.844
760.863
748.807
744.481
738.254
731.495
725.312
719.789
714.832
710.382
706.394
702.841
699.675
696.843
694.305
692.026
689.97
688.114
686.439
684.918
683.519
682.216
680.99
679.819
678.687
677.576
676.461
675.308
674.084
672.735
671.181
669.542
668.369
650.163
609.566
669.854
844.764
883.785
846.862
822.788
771.239
724.997
713.752
710.259
705.342
699.896
694.89
690.447
686.49
682.964
679.836
677.067
674.621
672.463
670.545
668.831
667.294
665.912
664.666
663.533
662.492
661.521
660.603
659.725
658.87
658.023
657.163
656.26
655.285
654.183
652.906
651.511
650.518
630.816
600.636
616.3
716.959
752.859
745.329
735.164
713.145
688.081
679.066
675.117
670.997
666.828
663.055
659.766
656.899
654.405
652.239
650.368
648.752
647.352
646.128
645.039
644.061
643.184
642.391
641.666
640.999
640.376
639.786
639.223
638.676
638.127
637.558
636.942
636.252
635.443
634.457
633.355
632.573
608.268
577.511
584.172
634.077
670.181
677.047
673.085
664.652
652.124
643.79
639.274
635.723
632.639
630.07
627.973
626.268
624.895
623.8
622.936
622.257
621.71
621.244
620.822
620.427
620.06
619.721
619.41
619.123
618.86
618.617
618.393
618.179
617.962
617.721
617.43
617.066
616.589
615.946
615.177
614.718
555.192
524.921
517.832
571.953
642.27
649.524
645.192
626.707
611.167
602.96
600.014
598.058
596.569
595.561
594.944
594.63
594.558
594.688
594.976
595.365
595.784
596.158
596.438
596.624
596.741
596.824
596.9
596.983
597.082
597.201
597.338
597.484
597.625
597.739
597.801
597.786
597.662
597.38
596.955
596.709
492.171
463.925
440.623
492.587
604.126
607.808
591.964
574.242
563.186
557.986
557.365
557.879
558.691
559.743
560.945
562.258
563.665
565.166
566.747
568.355
569.885
571.201
572.207
572.933
573.471
573.909
574.314
574.727
575.169
575.647
576.155
576.681
577.201
577.691
578.123
578.474
578.72
578.813
578.74
578.713
445.959
423.908
398.764
420.571
523.83
543.417
511.9
502.257
503.808
507.173
510.639
515.209
519.367
522.997
526.301
529.398
532.376
535.31
538.319
541.468
544.46
546.766
548.345
549.46
550.304
551.018
551.7
552.413
553.187
554.026
554.915
555.834
556.755
557.635
558.462
559.198
559.839
560.322
560.606
560.799
416.723
403.679
382.567
379.581
434.324
454.892
455.786
449.329
449.942
451.103
460.666
472.432
480.824
486.912
491.96
496.548
500.903
505.274
510.175
516.233
522.355
525.729
526.564
526.829
527.344
528.093
528.977
529.979
531.099
532.326
533.63
534.977
536.323
537.634
538.895
540.06
541.109
541.999
542.621
543.029
386.612
385.671
348.936
334.12
371.605
424.941
430.439
425.744
419.152
412.586
417.365
433.586
447.08
455.215
460.439
465.095
469.857
475.012
481.129
488.132
497.254
509.207
511.384
508.23
505.991
505.588
506.248
507.409
508.86
510.505
512.273
514.102
515.94
517.746
519.485
521.122
522.617
523.926
524.891
525.492
343.647
359.472
319.969
293.343
322.672
400.974
411.69
403.835
398.617
393.693
384.181
387.898
405.127
420.626
427.731
432.62
436.448
438.498
437.707
432.852
430.522
454.956
476.749
483.381
482.506
481.492
482.113
483.787
485.915
488.244
490.673
493.135
495.582
497.974
500.27
502.433
504.42
506.175
507.495
508.307
311.981
334.407
311.448
284.181
286.375
350.192
380.011
382.681
381.284
377.877
374.09
368.566
369.928
373.933
381.871
392.908
398.545
393.912
379.92
368.787
365.918
373.549
394.016
424.937
445.193
452.685
455.494
458.433
461.842
465.324
468.727
472.033
475.235
478.317
481.256
484.011
486.546