/*--------------------------------*- C++ -*----------------------------------*\
  =========                 |
  \\      /  F ield         | OpenFOAM: The Open Source CFD Toolbox
   \\    /   O peration     | Website:  https://openfoam.org
    \\  /    A nd           | Version:  8
     \\/     M anipulation  |
\*---------------------------------------------------------------------------*/
FoamFile
{
    version     2.0;
    format      ascii;
    class       volScalarField;
    location    "1.4";
    object      p_rgh;
}
// * * * * * * * * * * * * * * * * * * * * * * * * * * * * * * * * * * * * * //

dimensions      [1 -1 -2 0 0 0 0];

internalField   nonuniform List<scalar> 
9150
(
2548.8
2521.85
2496.3
2479.08
2470.74
2470.74
2479.08
2496.3
2521.85
2548.79
2539.56
2520.05
2504.35
2492.54
2486.53
2486.53
2492.54
2504.35
2520.05
2539.55
2529.91
2516.38
2507.79
2500.04
2495.91
2495.91
2500.04
2507.79
2516.38
2529.9
2524.8
2514.84
2509.32
2503.97
2500.98
2500.98
2503.96
2509.32
2514.84
2524.8
2523.11
2514.29
2509.63
2505.47
2503.02
2503.02
2505.46
2509.63
2514.28
2523.11
2084.09
2079.93
2105.15
2119.43
2125.95
2125.95
2119.42
2105.14
2079.91
2084.06
2273.91
2249.7
2244.33
2243.06
2243.07
2243.07
2243.06
2244.32
2249.69
2273.9
2398.11
2366.61
2350.63
2340.71
2335.96
2335.96
2340.7
2350.62
2366.61
2398.1
2498.23
2455.95
2428.05
2410.69
2402.14
2402.14
2410.69
2428.05
2455.95
2498.23
2567.85
2515.57
2476.96
2454.91
2444.73
2444.73
2454.9
2476.95
2515.57
2567.85
1898.65
1940.29
1931.69
1939.61
1935.1
1935.07
1939.54
1931.62
1940.09
1898.28
1926.47
1947.23
1928.31
1936.76
1933.01
1932.97
1936.74
1928.21
1947.09
1926.2
1903.02
1936.02
1905.92
1913.01
1916.54
1916.53
1912.97
1905.84
1935.9
1902.86
1743.96
1870.01
1888.87
1907.11
1923.2
1923.19
1907.08
1888.8
1869.94
1743.83
1622.93
1858.7
1955.85
1985.94
2001.38
2001.37
1985.92
1955.82
1858.65
1622.84
1936.09
1945.94
1952.44
1955.59
1955.41
1951.95
1945.19
1935.14
1921.91
1905.62
1838.12
1846.6
1852.4
1855.35
1855.24
1851.97
1845.74
1836.73
1825.1
1811.1
1728.63
1734.47
1738.37
1740.16
1739.78
1737.2
1732.48
1725.69
1716.95
1706.52
1661.84
1666.06
1668.7
1669.73
1669.1
1666.82
1662.9
1657.4
1650.4
1642.03
1622.82
1625.52
1627.07
1627.43
1626.56
1624.45
1621.11
1616.58
1610.93
1604.25
1603.85
1605.19
1605.76
1605.52
1604.44
1602.5
1599.7
1596.06
1591.62
1586.43
1599.89
1599.91
1599.56
1598.8
1597.59
1595.91
1593.74
1591.09
1588
1584.48
1606.26
1605.01
1603.82
1602.64
1601.42
1600.15
1598.8
1597.4
1595.98
1594.59
1618.62
1616.32
1614.49
1613.06
1611.98
1611.24
1610.85
1610.85
1611.31
1612.25
1633.48
1630.46
1628.26
1626.76
1625.94
1625.78
1626.33
1627.67
1629.86
1632.85
1648.06
1644.82
1642.56
1641.18
1640.65
1640.98
1642.24
1644.5
1647.74
1652.25
1660.67
1657.74
1655.73
1654.57
1654.28
1654.87
1656.39
1658.8
1662.18
1667.97
1670.98
1668.73
1667.14
1666.25
1666.09
1666.67
1667.97
1669.87
1672.95
1680.23
1679.54
1678.1
1676.98
1676.3
1676.13
1676.44
1677.11
1678.05
1680.79
1689.26
1687.31
1686.6
1685.89
1685.36
1685.12
1685.08
1685.05
1685.31
1688.35
1696.37
1695.01
1694.88
1694.52
1694.13
1693.82
1693.51
1693.03
1693.41
1697.86
1702.21
1703.53
1703.48
1703.29
1702.93
1702.55
1702.05
1701.56
1702.88
1708.71
1705.05
1714.13
1713.1
1712.67
1712.15
1711.65
1711.17
1711.44
1715.2
1722.01
1700.51
1724
1721.83
1721.15
1720.43
1719.6
1718.8
1719.25
1723.98
1728.08
1686.18
1735.53
1730.99
1729.41
1728.17
1726.68
1725.17
1725.22
1729.54
1728.58
1669.29
1748.11
1740.58
1737.67
1735.82
1733.72
1731.77
1732.14
1736.41
1726.39
1597.98
1757.86
1748.97
1744.96
1742.58
1739.95
1737.62
1738.3
1741.32
1718.09
1486.7
1769.15
1759.28
1752.97
1749.36
1745.83
1742.72
1742.73
1742.54
1706.02
1387.81
1778.21
1769.65
1761.23
1756.44
1752.24
1748.69
1748.08
1744.04
1687.89
1298.58
1780.54
1777.2
1768.67
1763.53
1759.34
1756.18
1755.52
1745.71
1632.58
1223.29
1782.42
1787.28
1778.47
1772.43
1768.1
1765.41
1764.77
1749.57
1582.05
1169.2
1786.34
1801.26
1791.45
1783.56
1778.61
1776.12
1775.09
1754.42
1529.12
1131.56
1786.65
1810.75
1802.27
1794.01
1789.34
1787.79
1787.1
1762.86
1480.56
1115.35
1784.46
1815.98
1810.42
1803.02
1799.16
1798.61
1797.78
1764.93
1437.34
1102.82
1781.13
1820.73
1818.38
1811.84
1808.73
1809.19
1808.68
1769.3
1406.89
1088.66
1725.98
1825.31
1828.06
1822
1819.44
1821.38
1823.02
1781.8
1394.84
1079.45
1621.79
1829.16
1837.74
1831.81
1828.88
1831.34
1834.21
1792.59
1397.6
1080.49
1536.15
1835.34
1845.67
1838.42
1833.17
1832.12
1830.21
1789.1
1467.89
1175.4
1439.36
1838.07
1850.53
1842.17
1834.57
1829.72
1822.27
1775.14
1586.74
1468
1337.83
1835.4
1851.91
1844.35
1836.37
1830.28
1820.63
1754.98
1650.69
1618.29
1255.97
1822.46
1850.95
1846
1839.67
1835.43
1827.79
1741.57
1540.61
1567.17
1198.82
1748.87
1845.68
1845.64
1843.23
1843.45
1841.02
1744.99
1387.23
1367.85
1165.42
1701.66
1835.91
1840.26
1842.87
1847.91
1851.1
1768.22
1363.66
1357.23
1138.2
1655.15
1823.14
1830.37
1837.41
1845.89
1853.67
1814.59
1441.62
1369.21
1102.35
1605.08
1807.18
1818.07
1828.45
1838.93
1848.93
1838.9
1583.98
1379.85
1081.89
1528.37
1774.59
1798.99
1816.68
1830.95
1843.64
1841.78
1664.47
1506.46
1352.48
1508.9
1774.49
1798.66
1816.14
1830.13
1842.37
1835.85
1689.45
1690.15
1695.18
1599
1810.72
1822.01
1829.81
1837.56
1845.81
1842.06
1634.4
1555.66
1727.82
1714.2
1699.02
1824.74
1837.38
1839.71
1843.74
1845.49
1598.63
1457.76
1726.8
1716.17
1512.06
1775.73
1834.77
1834.08
1835.56
1837.63
1669.77
1444.86
1720.92
1579.38
1494.25
1712.74
1827.57
1826.4
1827.81
1830.47
1728.81
1429.92
1709.08
1467.31
1471.27
1681.25
1818.75
1818.92
1822.28
1828.26
1767.46
1425.93
1692.51
1447.79
1453.01
1662.7
1806.11
1807.72
1812.25
1819.38
1797.4
1412.56
1637.86
1436.48
1435.06
1693.23
1798.84
1798.62
1801.19
1806.12
1807.89
1412.44
1432.8
1419.42
1415.28
1715.7
1785.55
1784.97
1786.69
1790.03
1802.58
1471.22
1408.54
1408.05
1399.9
1729.24
1771.19
1769.7
1770.01
1771.66
1787.99
1473.39
1544.9
1398.71
1408.25
1741.74
1756.06
1752.87
1750.89
1750.22
1767.11
1448.33
1590.04
1386.5
1500.13
1743.82
1738.57
1733.84
1729.25
1725.93
1741.49
1416.93
1498.81
1356.22
1516.52
1724.94
1715.13
1710.56
1704.55
1698.82
1711.49
1376.53
1365
1329.4
1541.51
1701.22
1692.5
1688.72
1682.59
1676.02
1686.35
1363.95
1320.53
1308.45
1617.43
1684.29
1676.37
1672.37
1666.73
1660.93
1668.61
1451.9
1311.99
1312.67
1646.1
1661.48
1656.6
1653.84
1649.86
1646
1652.14
1544.06
1284.37
1442.15
1641.44
1636.07
1633.69
1631.08
1626.89
1622
1623.84
1548.46
1258.15
1494.72
1620.03
1613.9
1611.72
1608.15
1602.49
1595
1591.46
1513.91
1231.34
1546.8
1600.86
1596.32
1593.72
1589.32
1582.71
1573.74
1567.26
1488.39
1278.95
1572.42
1581.05
1579.86
1578.33
1574.72
1569.02
1560.97
1554.75
1501.63
1446.89
1572.12
1568.66
1569.1
1568.09
1565.36
1561.09
1554.84
1549.67
1531.11
1498.54
1560.96
1560.68
1561.93
1561.47
1559.63
1556.69
1552.35
1547.85
1543.22
1541.06
1554.72
1556.63
1558.3
1558.12
1556.76
1554.45
1550.91
1546.33
1544.7
1554.79
1553.81
1556.71
1558.21
1558.17
1557.14
1555.18
1551.91
1547.06
1544.32
1556.2
1557.67
1560.44
1561.74
1561.91
1561.28
1559.87
1557.31
1553.07
1549.65
1558.33
1562.48
1565.91
1567.69
1568.42
1568.36
1567.53
1565.76
1562.53
1558.59
1567.12
1571.93
1575.2
1577.16
1578.26
1578.64
1578.32
1577.26
1575.22
1571.96
1580.07
1584.62
1587.66
1589.69
1590.97
1591.52
1591.31
1590.36
1588.44
1585.05
1594.45
1599.05
1602.33
1604.68
1606.23
1606.95
1606.83
1605.87
1603.96
1600.76
1612.79
1617.01
1620.29
1622.78
1624.46
1625.29
1625.25
1624.33
1622.54
1619.76
1632.61
1637.01
1640.57
1643.29
1645.12
1646.03
1645.99
1644.99
1643.05
1640.14
1655.48
1659.98
1663.69
1666.54
1668.46
1669.43
1669.43
1668.44
1666.49
1663.61
1680.79
1685.43
1689.26
1692.19
1694.18
1695.18
1695.18
1694.16
1692.12
1689.12
1708.81
1713.39
1717.17
1720.07
1722.04
1723.04
1723.06
1722.07
1720.08
1717.13
1738.72
1743.13
1746.78
1749.57
1751.47
1752.44
1752.46
1751.52
1749.61
1746.79
1770.06
1774.1
1777.46
1780.05
1781.81
1782.71
1782.73
1781.84
1780.06
1777.45
1801.22
1805
1808.13
1810.53
1812.14
1812.96
1812.95
1812.1
1810.42
1807.99
1831.85
1835.3
1838.16
1840.34
1841.8
1842.51
1842.47
1841.66
1840.13
1837.96
1860.87
1864.01
1866.65
1868.66
1869.97
1870.56
1870.41
1869.56
1868.03
1865.97
1887.16
1890.15
1892.72
1894.66
1895.89
1896.34
1896.02
1894.96
1893.25
1891.08
1908.87
1912.31
1915.24
1917.41
1918.69
1919.01
1918.35
1916.76
1914.37
1911.36
1924.51
1929.36
1933.26
1936.06
1937.61
1937.82
1936.69
1934.27
1930.67
1926.01
1933.76
1940.61
1946.05
1949.8
1951.8
1951.96
1950.25
1946.73
1941.44
1934.61
1939.19
1946.7
1953.45
1958.19
1960.67
1960.81
1958.57
1953.99
1947.27
1939.65
1942.54
1948.15
1954.97
1960.39
1963.27
1963.43
1960.8
1955.53
1948.7
1942.92
1941.73
1945.55
1950.55
1955.8
1958.91
1959.1
1956.32
1951.23
1946.23
1942.26
1930.44
1938.11
1940.39
1944.46
1947.47
1947.71
1945.08
1941.22
1938.96
1931.21
1902.65
1924.33
1925.46
1927.67
1930.17
1930.44
1928.38
1926.42
1925.38
1903.84
1867.84
1902.57
1905.67
1907.13
1909.23
1909.52
1907.9
1906.75
1903.86
1869.15
1843.66
1879.72
1885.42
1887.23
1889.14
1889.4
1887.94
1886.45
1880.96
1844.77
1643.17
1862.5
1870.08
1872.33
1874.04
1874.24
1872.89
1870.9
1863.54
1654.64
1511.16
1853.94
1861.31
1864.01
1865.67
1865.81
1864.4
1861.91
1854.68
1518.6
1456.5
1853.27
1859.36
1862.48
1864.24
1864.31
1862.71
1859.74
1853.75
1464.36
1445.98
1857.88
1863.53
1866.98
1868.8
1868.83
1867.06
1863.74
1858.22
1453.83
1470.54
1868.04
1872.06
1875.56
1877.16
1877.15
1875.53
1872.09
1868.15
1474.06
1553.5
1878.49
1882.47
1885.63
1887.03
1887.01
1885.56
1882.37
1878.45
1557.56
1625.38
1889.51
1895.33
1897.46
1899.15
1899.14
1897.39
1895.18
1889.31
1627.79
1719.17
1913.37
1917.09
1913.95
1914.01
1914
1913.91
1917.09
1913.17
1719.85
1812.82
1947.41
1936.57
1930.19
1927.01
1926.99
1930.16
1936.62
1947.39
1812.69
1885.27
1860.68
1833.36
1803.76
1772.46
1740.11
1707.37
1674.92
1643.43
1613.51
1585.69
1560.46
1538.2
1518.74
1501.88
1487.44
1475.39
1465.66
1458.15
1452.65
1448.97
1446.89
1446.23
1446.79
1448.39
1450.85
1454.04
1457.79
1461.98
1466.47
1471.14
1475.85
1480.5
1484.95
1489.2
1493.43
1498.31
1500.19
1500.28
1506.35
1794.04
1773.23
1750.29
1725.81
1700.33
1674.41
1648.66
1623.62
1599.79
1577.56
1557.21
1538.88
1522.61
1509.1
1497.87
1488.74
1481.53
1476.08
1472.18
1469.66
1468.36
1468.12
1468.8
1470.27
1472.41
1475.1
1478.24
1481.69
1485.36
1489.11
1492.8
1496.27
1499.35
1501.84
1503.72
1505.01
1504.42
1502.46
1503.25
1508.43
1693.94
1678.66
1661.92
1644.27
1626.2
1608.18
1590.66
1574.06
1558.71
1544.86
1532.63
1522.08
1513.16
1505.87
1500.02
1495.46
1492.06
1489.7
1488.27
1487.66
1487.76
1488.47
1489.7
1491.38
1493.41
1495.72
1498.22
1500.82
1503.4
1505.85
1508.04
1509.82
1511.05
1511.6
1511.51
1510.97
1510.41
1510.62
1509.62
1517.74
1631.89
1619.96
1607.1
1593.64
1579.97
1566.43
1553.39
1541.16
1530.08
1520.41
1512.31
1505.77
1500.68
1496.9
1494.22
1492.5
1491.58
1491.36
1491.75
1492.64
1493.93
1495.54
1497.38
1499.4
1501.51
1503.66
1505.78
1507.79
1509.61
1511.15
1512.32
1513.06
1513.31
1513.12
1512.67
1512.39
1513.32
1517.75
1526.75
1534.84
1596.2
1586.71
1576.43
1565.56
1554.3
1542.84
1531.46
1520.51
1510.52
1501.99
1495.28
1490.43
1487.24
1485.56
1484.78
1484.77
1485.49
1486.81
1488.6
1490.72
1493.06
1495.53
1498.04
1500.52
1502.91
1505.15
1507.19
1508.99
1510.48
1511.63
1512.41
1512.81
1512.9
1512.85
1512.94
1513.77
1516.56
1523.72
1536.54
1547.32
1580.2
1572.78
1564.57
1555.54
1545.67
1535.19
1524.64
1513.91
1502.44
1490.87
1480.79
1474.37
1472.67
1473.8
1475.13
1475.34
1475.93
1477.72
1480.53
1483.87
1487.4
1490.93
1494.36
1497.59
1500.56
1503.23
1505.56
1507.53
1509.12
1510.33
1511.19
1511.76
1512.16
1512.63
1513.52
1515.45
1519.6
1528.13
1541.82
1553.21
1580.32
1575.33
1569.65
1563.3
1556.78
1550.97
1544.95
1529.78
1495.5
1449.3
1404.62
1381.77
1388.94
1416
1449.45
1461.07
1463.18
1464.58
1468.13
1472.92
1478.04
1483.07
1487.81
1492.18
1496.1
1499.56
1502.53
1505.03
1507.08
1508.71
1509.98
1511
1511.92
1513
1514.6
1517.26
1522.01
1530.63
1543.44
1553.72
1593.13
1591.54
1590.35
1590.99
1594.38
1593.37
1563.94
1455.08
1319.33
1253.14
1218.99
1214.5
1220.3
1235.32
1288.01
1383.91
1427.29
1438.87
1447.84
1456.57
1464.9
1472.54
1479.38
1485.45
1490.76
1495.36
1499.29
1502.61
1505.37
1507.64
1509.52
1511.11
1512.59
1514.19
1516.23
1519.15
1523.76
1531.4
1542.16
1550.95
1613.74
1616.57
1623.23
1635.22
1634.57
1555.75
1364.02
1205.28
1195.09
1193.33
1193.72
1194.21
1194.84
1196.02
1197.06
1248.65
1355.65
1407.66
1425.13
1439.04
1451.09
1461.65
1470.87
1478.85
1485.74
1491.66
1496.7
1500.98
1504.57
1507.58
1510.11
1512.28
1514.25
1516.21
1518.4
1521.15
1525.04
1530.99
1539.04
1545.9
1637.47
1647.05
1664.45
1670.11
1572.49
1313.27
1195.2
1193.35
1192.97
1193.05
1193.35
1193.7
1194.06
1194.37
1194.49
1194.52
1255.08
1347.85
1400.88
1421.66
1438.43
1452.11
1463.65
1473.51
1481.94
1489.14
1495.28
1500.5
1504.92
1508.64
1511.79
1514.47
1516.8
1518.93
1521.02
1523.27
1526.04
1529.91
1534.93
1539.11
1660.76
1678.49
1692.46
1621.84
1323.89
1193.23
1191.18
1191.54
1192.31
1192.91
1193.39
1193.86
1194.34
1194.69
1194.71
1194.05
1210.1
1339.54
1387.32
1410.83
1430.89
1446.57
1459.56
1470.66
1480.19
1488.35
1495.35
1501.33
1506.43
1510.76
1514.41
1517.47
1520.02
1522.14
1523.93
1525.47
1526.93
1528.57
1530.52
1532.11
1680.76
1698
1663.17
1401.02
1192.49
1186.97
1188.19
1190
1191.67
1192.69
1193.37
1194.43
1195.18
1195.68
1195.82
1195.25
1223.75
1365.33
1388.35
1410.96
1430.75
1446.33
1459.45
1470.88
1480.83
1489.47
1496.95
1503.42
1508.99
1513.73
1517.72
1521.01
1523.63
1525.61
1526.97
1527.72
1527.83
1527.29
1526.3
1524.97
1694.52
1690.39
1549.09
1230.82
1176.79
1178.3
1182.28
1186.26
1189.92
1192.84
1195.77
1197.47
1197.4
1198.04
1198.27
1198.31
1281.88
1390.86
1398.63
1418.91
1436.21
1450.34
1462.72
1473.78
1483.59
1492.25
1499.87
1506.54
1512.33
1517.29
1521.45
1524.82
1527.39
1529.14
1530.03
1529.99
1528.88
1526.44
1522.82
1515.16
1697.78
1646.71
1340.18
1169.31
1163.42
1168.35
1177.09
1191.83
1199.14
1200.93
1205.28
1201.51
1199.16
1200.59
1201.21
1214.91
1368.99
1402.3
1413.7
1430.58
1444.78
1457.08
1468.33
1478.61
1487.93
1496.3
1503.77
1510.4
1516.19
1521.17
1525.33
1528.63
1531.04
1532.49
1532.89
1532.12
1529.91
1525.84
1519.68
1509.56
1687.51
1552.86
1208.39
1149.1
1153.28
1170.44
1195.15
1212.69
1207.14
1194.75
1191.57
1195.18
1196.85
1200.18
1201.55
1268.56
1419.73
1413.87
1428.26
1442.4
1454.25
1465.05
1475.19
1484.62
1493.28
1501.18
1508.32
1514.7
1520.31
1525.14
1529.14
1532.26
1534.43
1535.53
1535.43
1533.97
1530.81
1525.38
1516.87
1505.47
1660.11
1359.85
1160.16
1144.04
1161.92
1201.95
1228.32
1225.18
1195.54
1173.55
1169.47
1175.08
1180.06
1190.69
1196.22
1348.64
1423.31
1428.5
1442.34
1454.05
1464.19
1473.73
1482.81
1491.33
1499.26
1506.57
1513.24
1519.23
1524.51
1529.05
1532.78
1535.62
1537.47
1538.19
1537.62
1535.56
1531.61
1525.14
1515.53
1502.92
1622.38
1235.89
1151.22
1154.37
1194.36
1212.41
1223.59
1208.98
1175.92
1150.79
1146.63
1146.01
1152.24
1158.45
1198.55
1414.94
1438.9
1446.57
1456.99
1466.14
1474.66
1482.93
1490.9
1498.48
1505.62
1512.26
1518.35
1523.84
1528.69
1532.84
1536.21
1538.71
1540.2
1540.53
1539.53
1536.97
1532.44
1525.24
1515.5
1507.63
1484.48
1181.07
1147.9
1172.44
1194.87
1203.28
1205.08
1176.45
1149.46
1128.94
1122.63
1121.16
1127.86
1128.05
1231.99
1455.64
1455.56
1462.59
1470.28
1477.64
1484.9
1492.08
1499.06
1505.76
1512.11
1518.05
1523.51
1528.45
1532.81
1536.52
1539.48
1541.59
1542.7
1542.66
1541.28
1538.33
1533.36
1525.68
1515.4
1504.49
1350.32
1166.33
1152.95
1173.87
1183.5
1191.57
1183.22
1132.22
1109.99
1105.98
1102.47
1104.37
1109.37
1109.01
1289.01
1461.39
1466.95
1474.39
1481.35
1487.99
1494.51
1500.89
1507.07
1513
1518.61
1523.87
1528.71
1533.07
1536.91
1540.15
1542.68
1544.4
1545.16
1544.81
1543.17
1540.03
1534.94
1527.22
1515.42
1497.57
1261.14
1149.42
1145.57
1150.35
1176.79
1180.34
1139.64
1096.08
1093.21
1093.55
1093.09
1094.17
1097.34
1106.49
1342.58
1473.55
1479.31
1486.16
1492.42
1498.34
1504.1
1509.7
1515.11
1520.28
1525.17
1529.76
1533.97
1537.76
1541.07
1543.82
1545.92
1547.25
1547.69
1547.09
1545.28
1542.08
1537.06
1529.4
1511.22
1499.5
1190.87
1128.12
1128.52
1136.19
1172.18
1157.7
1095.69
1085.7
1086.22
1086.98
1087.19
1087.53
1088.45
1110.22
1382.19
1488.59
1492.99
1498.57
1503.85
1508.89
1513.84
1518.64
1523.26
1527.68
1531.87
1535.79
1539.38
1542.59
1545.37
1547.64
1549.31
1550.28
1550.42
1549.6
1547.67
1544.46
1539.59
1532.21
1513.75
1502.66
1141.98
1112.93
1115.77
1131.49
1159.58
1110.01
1084.45
1081.64
1081.89
1082.32
1082.53
1082.66
1082.94
1114.82
1408.79
1502.18
1505.97
1510.72
1515.19
1519.46
1523.62
1527.67
1531.55
1535.25
1538.76
1542.02
1545
1547.66
1549.92
1551.72
1552.99
1553.61
1553.49
1552.49
1550.49
1547.32
1542.67
1535.71
1524.29
1517.19
1117.08
1103.07
1107.23
1129.72
1143.6
1091.12
1079.25
1078.41
1078.38
1078.47
1078.52
1078.62
1078.87
1120.38
1432.49
1515.75
1519.01
1523.01
1526.7
1530.2
1533.59
1536.9
1540.06
1543.08
1545.92
1548.55
1550.95
1553.06
1554.82
1556.19
1557.07
1557.38
1557.02
1555.88
1553.85
1550.79
1546.38
1540.16
1532.92
1527.36
1100.41
1093.51
1101.1
1121.27
1113.32
1081.29
1074.72
1074.49
1074.46
1074.46
1074.5
1074.6
1074.81
1124.43
1453.53
1530.03
1532.51
1535.65
1538.52
1541.22
1543.85
1546.42
1548.89
1551.23
1553.43
1555.46
1557.29
1558.87
1560.16
1561.1
1561.62
1561.65
1561.11
1559.91
1557.95
1555.09
1551.07
1545.52
1539.1
1508.34
1086.13
1087.12
1105.54
1111.95
1098.24
1075.5
1070.85
1070.42
1070.24
1070.16
1070.18
1070.29
1070.51
1119.01
1459.37
1544.76
1546.37
1548.63
1550.66
1552.57
1554.44
1556.3
1558.07
1559.76
1561.33
1562.77
1564.05
1565.12
1565.95
1566.49
1566.69
1566.5
1565.86
1564.7
1562.95
1560.51
1557.18
1551.54
1526.91
1503.59
1078.27
1094.34
1104.73
1094.9
1089.37
1073.69
1065.96
1065.49
1065.35
1065.31
1065.34
1065.44
1065.7
1111.64
1460.49
1559.95
1560.67
1561.98
1563.17
1564.28
1565.39
1566.52
1567.6
1568.63
1569.59
1570.45
1571.18
1571.76
1572.15
1572.31
1572.23
1571.86
1571.16
1570.08
1568.57
1566.58
1563.95
1556.29
1513.36
1510.45
1077.48
1098.24
1099.11
1068.31
1085.57
1069.29
1059.16
1059.67
1059.83
1059.97
1060.06
1060.09
1060.3
1108.68
1474.31
1576.02
1575.62
1575.82
1576.07
1576.31
1576.65
1577.02
1577.39
1577.77
1578.12
1578.41
1578.63
1578.74
1578.71
1578.54
1578.2
1577.65
1576.87
1575.82
1574.46
1572.74
1570.54
1564.5
1532.23
1522.32
1080.67
1095.92
1076.38
1061.52
1082.92
1058.12
1052.11
1053.77
1054.43
1054.77
1054.87
1054.71
1054.69
1102.5
1511.07
1592.8
1591.04
1589.95
1589.18
1588.53
1588.06
1587.67
1587.36
1587.09
1586.86
1586.61
1586.34
1586.02
1585.63
1585.16
1584.58
1583.88
1583.03
1582
1580.76
1579.28
1577.44
1573.78
1570.11
1567.05
1074.86
1068.14
1060.2
1060.4
1070.13
1046.86
1047.04
1048.96
1049.95
1050.4
1050.49
1050.23
1049.83
1088.19
1545.98
1609.02
1606.08
1603.86
1602.13
1600.66
1599.42
1598.35
1597.39
1596.54
1595.76
1595.03
1594.31
1593.61
1592.88
1592.14
1591.36
1590.53
1589.61
1588.59
1587.46
1586.2
1584.73
1583.04
1581.2
1579.92
1063.31
1060.94
1059.3
1058.35
1046.98
1044.32
1044.77
1046.06
1046.87
1047.24
1047.27
1047.02
1046.52
1078.02
1553.37
1623.71
1620.08
1617.12
1614.67
1612.55
1610.65
1608.96
1607.45
1606.09
1604.82
1603.65
1602.54
1601.49
1600.48
1599.49
1598.53
1597.57
1596.59
1595.59
1594.56
1593.5
1592.38
1591.21
1589.99
1589.32
1056.24
1056.25
1055.73
1048.82
1044.83
1044
1044.19
1044.59
1044.84
1044.94
1044.9
1044.7
1044.31
1081.34
1558.49
1637.33
1633.21
1629.79
1626.82
1624.17
1621.72
1619.52
1617.52
1615.71
1614.02
1612.47
1611.01
1609.66
1608.38
1607.18
1606.04
1604.95
1603.92
1602.93
1601.99
1601.1
1600.27
1599.47
1598.84
1598.69
1059.46
1075.09
1052.89
1044.59
1042.86
1042.68
1042.78
1042.86
1042.91
1042.92
1042.87
1042.71
1042.41
1107.25
1576.5
1650.51
1645.87
1642.09
1638.69
1635.57
1632.67
1630.02
1627.59
1625.38
1623.34
1621.44
1619.68
1618.05
1616.53
1615.12
1613.82
1612.62
1611.52
1610.53
1609.66
1608.93
1608.34
1607.78
1607.71
1607.91
1185.06
1182.2
1045.58
1040.22
1040.24
1040.61
1040.82
1040.93
1040.99
1041.01
1040.98
1040.89
1040.56
1160.61
1612.28
1663.33
1658.26
1654.11
1650.29
1646.75
1643.46
1640.41
1637.63
1635.07
1632.7
1630.51
1628.47
1626.58
1624.84
1623.25
1621.8
1620.49
1619.34
1618.34
1617.52
1616.88
1616.47
1616.24
1616.5
1615.64
1494.67
1205.86
1039.38
1038.16
1038.5
1038.89
1039.09
1039.19
1039.24
1039.26
1039.27
1039.18
1038.82
1232.71
1654.4
1675.59
1670.22
1665.74
1661.56
1657.65
1654.01
1650.65
1647.56
1644.69
1642.03
1639.56
1637.27
1635.17
1633.24
1631.49
1629.91
1628.52
1627.31
1626.29
1625.48
1624.9
1624.6
1624.68
1625.06
1622.25
1539.6
1150
1037.72
1037.17
1037.37
1037.52
1037.57
1037.62
1037.66
1037.67
1037.75
1037.71
1037.23
1325.48
1686.02
1686.75
1681.41
1676.79
1672.34
1668.14
1664.24
1660.62
1657.26
1654.14
1651.23
1648.53
1646.04
1643.75
1641.66
1639.77
1638.08
1636.59
1635.32
1634.26
1633.44
1632.88
1632.64
1632.83
1631.33
1630.4
1365.38
1092.32
1033.66
1034.94
1036.27
1036.43
1036.24
1036.17
1036.22
1036.32
1036.55
1036.94
1036.2
1446.63
1702.43
1696.27
1691.56
1687.05
1682.49
1678.14
1674.04
1670.25
1666.7
1663.36
1660.26
1657.37
1654.71
1652.26
1650.03
1648.01
1646.21
1644.64
1643.29
1642.18
1641.32
1640.74
1640.5
1640.21
1637.56
1638.14
1251.81
1071.52
1026.47
1031.19
1034.87
1036.07
1035.25
1034.49
1034.18
1034.13
1034.4
1035.81
1054.27
1572.74
1712.06
1705.9
1701.52
1696.94
1692.25
1687.72
1683.47
1679.56
1675.85
1672.35
1669.08
1666.04
1663.23
1660.64
1658.28
1656.15
1654.25
1652.59
1651.16
1649.97
1649.05
1648.42
1648.1
1645.04
1644.97
1645.48
1437.59
1127.45
1023.34
1028.44
1034.69
1032.95
1032.37
1031.51
1031.04
1030.91
1030.87
1030.97
1144.57
1672.94
1722.17
1716.2
1711.49
1706.56
1701.64
1696.93
1692.58
1688.54
1684.69
1681.06
1677.66
1674.49
1671.56
1668.85
1666.39
1664.16
1662.16
1660.4
1658.88
1657.61
1656.62
1655.91
1655.42
1652.59
1652.04
1655.02
1632.07
1292.15
1027.07
1025.79
1029.07
1027.38
1027.78
1027.45
1027.23
1027.48
1027.72
1026.88
1347.66
1729.23
1730.43
1725.32
1720.55
1715.44
1710.4
1705.68
1701.25
1697.12
1693.17
1689.44
1685.94
1682.67
1679.63
1676.84
1674.28
1671.97
1669.88
1668.03
1666.42
1665.07
1663.97
1663.15
1662.47
1661.93
1661.8
1662.48
1647.4
1403.02
1030.37
1022.86
1023.91
1023.09
1021.89
1022.38
1022.72
1023.2
1024.26
1026.47
1579.31
1744.9
1738.11
1733.75
1728.93
1723.75
1718.68
1713.95
1709.51
1705.28
1701.25
1697.45
1693.87
1690.52
1687.4
1684.54
1681.91
1679.52
1677.36
1675.43
1673.73
1672.28
1671.06
1670.09
1669.32
1669
1668.88
1668.57
1654.41
1424.7
1027.3
1017.39
1019.16
1015.92
1016.65
1017.46
1017.95
1018.11
1018.62
1122.59
1714.58
1752.76
1746.74
1742.18
1737
1731.63
1726.56
1721.79
1717.3
1712.99
1708.9
1705.03
1701.39
1697.98
1694.81
1691.9
1689.21
1686.76
1684.54
1682.53
1680.75
1679.18
1677.83
1676.7
1675.81
1675.16
1674.74
1673.75
1660.24
1427.36
1019.12
1012.69
1013.8
1011.83
1013.2
1013.94
1014.33
1014.5
1012.79
1449.25
1765.09
1759.55
1754.75
1749.85
1744.38
1738.95
1733.86
1729.1
1724.52
1720.16
1716.03
1712.13
1708.44
1704.99
1701.79
1698.84
1696.12
1693.62
1691.34
1689.26
1687.39
1685.71
1684.24
1682.96
1681.86
1680.94
1679.97
1678.98
1663.54
1527.69
1012.89
1011.86
1009.97
1011.04
1008.78
1009.96
1010.36
1011.42
1050.51
1731.7
1774.5
1766.64
1762.17
1756.84
1751.11
1745.68
1740.57
1735.76
1731.13
1726.74
1722.59
1718.66
1714.96
1711.5
1708.29
1705.31
1702.56
1700.02
1697.7
1695.57
1693.62
1691.85
1690.25
1688.82
1687.53
1686.34
1684.7
1683.83
1657.79
1629.12
1011.13
1012.79
1008.27
1008.82
1004.12
1005.88
1006.42
1005.2
1342.31
1792.27
1778.93
1773.62
1768.75
1762.98
1757.19
1751.73
1746.61
1741.73
1737.07
1732.66
1728.5
1724.58
1720.89
1717.45
1714.23
1711.25
1708.49
1705.94
1703.59
1701.42
1699.41
1697.56
1695.85
1694.27
1692.78
1691.34
1689.57
1688.51
1652.28
1681.45
1026.75
1011.46
1002.56
1004.32
999.958
1001.27
1002.98
1037.5
1724.66
1794.56
1784.67
1780.12
1774.54
1768.41
1762.58
1757.08
1751.87
1746.84
1742.26
1737.88
1733.73
1729.84
1726.18
1722.77
1719.59
1716.63
1713.88
1711.34
1708.97
1706.77
1704.72
1702.79
1700.98
1699.27
1697.6
1695.93
1694.34
1693.35
1552.71
1729.76
1136.57
995.533
992.939
994.144
998.947
994.566
992.637
1307.7
1811.71
1796.16
1790.54
1785.5
1779.29
1773.07
1767.19
1761.63
1756.27
1751.29
1746.7
1742.37
1738.25
1734.39
1730.79
1727.43
1724.3
1721.39
1718.67
1716.15
1713.79
1711.57
1709.49
1707.51
1705.62
1703.79
1701.98
1700.13
1698.37
1697.18
1513.29
1769.47
1241.79
981.956
982.083
983.739
993.375
987.319
1027.05
1716.93
1811.6
1801.42
1796.36
1790.15
1783.44
1777.05
1771.03
1765.36
1759.94
1754.94
1750.38
1746.05
1741.97
1738.18
1734.65
1731.36
1728.3
1725.45
1722.79
1720.3
1717.97
1715.77
1713.68
1711.67
1709.73
1707.84
1705.93
1703.93
1701.99
1700.67
1469.09
1763.12
1333.23
969.724
970.412
971.683
982.357
979.898
1316.49
1831.4
1816.06
1808.38
1801.59
1794.1
1786.88
1780.19
1773.96
1768.07
1762.66
1757.65
1753.15
1748.83
1744.83
1741.12
1737.68
1734.49
1731.52
1728.75
1726.17
1723.75
1721.47
1719.32
1717.26
1715.27
1713.33
1711.39
1709.44
1707.35
1705.28
1703.85
1431.15
1749.93
1405.25
957.426
958.308
959.354
969.151
1015.04
1741.84
1836.34
1821.9
1813.51
1805.05
1796.7
1789.05
1782.08
1775.62
1769.7
1764.28
1759.4
1754.87
1750.64
1746.75
1743.16
1739.84
1736.74
1733.81
1731.25
1728.79
1726.48
1724.3
1722.23
1720.24
1718.31
1716.37
1714.44
1712.5
1710.4
1708.25
1706.77
1411.11
1734.43
1462.95
945.296
946.382
946.945
956.876
1188.81
1854.14
1836.88
1824.74
1815.35
1806.02
1797.3
1789.44
1782.28
1775.84
1769.98
1764.63
1759.92
1755.47
1751.39
1747.67
1744.25
1741.08
1738.06
1735.37
1732.89
1730.66
1728.52
1726.48
1724.53
1722.66
1720.81
1718.93
1717.08
1715.17
1713.09
1710.93
1709.43
1384.51
1712.05
1509.49
934.189
935.404
935.146
962.974
1538.05
1856.49
1835.18
1823.91
1813.91
1804.31
1795.6
1787.77
1780.72
1774.43
1768.75
1763.7
1759.13
1754.91
1751.08
1747.59
1744.38
1741.34
1738.65
1736.17
1733.88
1731.76
1729.86
1728.05
1726.26
1724.52
1722.76
1721.05
1719.3
1717.5
1715.46
1713.35
1711.86
1352.49
1684.73
1559.34
925.306
926.784
925.937
1004.19
1757.19
1848.65
1829.73
1819.06
1809.08
1799.69
1791.34
1783.89
1777.19
1771.28
1765.96
1761.37
1757.08
1753.2
1749.7
1746.53
1743.61
1740.86
1738.45
1736.24
1734.21
1732.32
1730.66
1729.05
1727.45
1725.86
1724.28
1722.73
1721.12
1719.46
1717.52
1715.51
1714.09
1312.74
1644.09
1607.82
920.127
922.115
920.602
1041.8
1760.19
1831.95
1816.47
1808.54
1800.08
1791.76
1784.31
1777.68
1771.65
1766.36
1761.71
1757.58
1753.79
1750.38
1747.31
1744.54
1742
1739.64
1737.52
1735.64
1733.9
1732.35
1730.94
1729.51
1728.13
1726.74
1725.37
1724
1722.6
1721.08
1719.31
1717.46
1716.14
1267.24
1590.32
1634.79
914.894
914.399
908.517
1021.88
1732.17
1810.53
1798.48
1794.15
1787.92
1781.16
1774.97
1769.44
1764.45
1759.93
1756.06
1752.51
1749.35
1746.51
1743.98
1741.7
1739.64
1737.77
1736.04
1734.46
1733.09
1731.88
1730.66
1729.49
1728.36
1727.21
1726.06
1724.91
1723.75
1722.39
1720.84
1719.13
1718.04
1240.55
1566.16
1639.42
973.243
884.86
847.935
944.092
1685.45
1794.31
1783.04
1779.55
1774.62
1769.17
1764.17
1759.74
1755.78
1752.25
1749.13
1746.36
1743.91
1741.75
1739.83
1738.12
1736.58
1735.2
1733.95
1732.82
1731.78
1730.81
1729.89
1729.01
1728.16
1727.3
1726.42
1725.54
1724.57
1723.44
1721.91
1720.7
1719.8
1232.58
1575.54
1638.14
1098.39
753.957
746.424
831.061
1615.33
1776.98
1767.97
1764.03
1759.9
1755.73
1751.95
1748.68
1745.81
1743.31
1741.15
1739.28
1737.66
1736.26
1735.04
1733.95
1732.97
1732.09
1731.3
1730.57
1729.9
1729.28
1728.69
1728.13
1727.59
1727.04
1726.47
1725.85
1725.16
1724.31
1723.06
1722.13
1720.66
1222.49
1554.91
1632.47
1276.61
671.297
678.164
735.549
1519.26
1760.64
1752.32
1747.8
1744.24
1741.16
1738.59
1736.5
1734.8
1733.43
1732.33
1731.47
1730.79
1730.24
1729.77
1729.35
1728.96
1728.59
1728.25
1727.93
1727.64
1727.38
1727.14
1726.92
1726.71
1726.49
1726.25
1725.96
1725.6
1725.04
1724.16
1723.53
1719.62
1183.04
1393.18
1584.91
1393.83
643.398
650.66
667.723
1296.34
1739.29
1731.11
1728.16
1726.2
1724.71
1723.7
1723.09
1722.78
1722.71
1722.84
1723.13
1723.52
1723.93
1724.31
1724.59
1724.77
1724.89
1724.97
1725.04
1725.12
1725.22
1725.34
1725.49
1725.63
1725.78
1725.89
1725.95
1725.94
1725.53
1725.21
1724.93
1721.12
1134.28
1205.19
1526.43
1435.05
611.528
608.966
593.111
866.603
1650.71
1705.75
1705.13
1705.65
1706.46
1707.51
1708.71
1710.03
1711.44
1712.94
1714.52
1716.13
1717.65
1718.97
1719.98
1720.7
1721.24
1721.68
1722.07
1722.48
1722.93
1723.42
1723.92
1724.45
1724.97
1725.46
1725.89
1726.24
1726.15
1726.29
1726.37
1722.68
1102.21
1139.36
1503.13
1465.66
637.397
544.596
513.369
517.193
1137.39
1669.25
1678.03
1682.6
1686.76
1690.39
1693.69
1696.79
1699.77
1702.7
1705.71
1708.86
1711.85
1714.16
1715.73
1716.85
1717.69
1718.41
1719.09
1719.79
1720.57
1721.42
1722.3
1723.08
1723.88
1725.01
1725.85
1726.44
1726.89
1727.6
1727.96
1724.32
1088.84
1160.22
1510.14
1499.22
909.852
456.385
457.431
451.038
505.52
1353.93
1647.61
1659.44
1667.83
1673.92
1678.97
1683.56
1687.91
1692.28
1697.18
1703.24
1709.36
1712.74
1713.57
1713.84
1714.35
1715.1
1715.99
1716.99
1718.11
1719.34
1720.64
1721.64
1722.98
1724.35
1725.78
1726.72
1727.77
1728.92
1729.63
1726.32
1134.29
1173.82
1500.11
1490.69
1238.28
426.565
432.103
427.399
421.295
614.354
1322.14
1640.15
1653.71
1661.84
1667.07
1671.73
1676.49
1681.64
1687.76
1682.02
1690.6
1715.84
1718.01
1714.86
1712.62
1712.22
1712.88
1714.04
1715.49
1717.14
1718.9
1720.47
1722.21
1724.02
1725.76
1727.39
1728.89
1730.46
1731.52
1728.58
1383.29
1159.29
1369
1469.76
1396.57
436.409
413.394
405.773
400.711
396.537
537.019
1052.19
1476.56
1646.87
1653.98
1658.87
1662.7
1664.75
1659.27
1244.13
906.714
1262.73
1649.7
1709.63
1708.76
1707.74
1708.36
1710.04
1712.16
1714.49
1716.92
1719.34
1721.55
1723.86
1726.16
1728.32
1730.31
1732.34
1733.74
1730.95
1464.98
1147.12
1161.81
1482.92
1471.71
825.667
382.093
384.817
383.316
380.042
377.713
403.848
619.751
943.874
1217.47
1416.2
1469.72
1419.09
1142.94
539.982
372.549
477.11
958.964
1490.61
1691.06
1698.55
1701.36
1704.3
1707.71
1711.19
1714.59
1717.9
1721.07
1723.9
1726.76
1729.51
1732.12
1734.64
1736.39
1733.79
1477.62