/*--------------------------------*- C++ -*----------------------------------*\
  =========                 |
  \\      /  F ield         | OpenFOAM: The Open Source CFD Toolbox
   \\    /   O peration     | Website:  https://openfoam.org
    \\  /    A nd           | Version:  8
     \\/     M anipulation  |
\*---------------------------------------------------------------------------*/
FoamFile
{
    version     2.0;
    format      ascii;
    class       surfaceScalarField;
    location    "1.4";
    object      phi;
}
// * * * * * * * * * * * * * * * * * * * * * * * * * * * * * * * * * * * * * //

dimensions      [0 3 -1 0 0 0 0];

internalField   nonuniform List<scalar> 
18095
(
1.58807e-07
-9.65065e-07
8.06258e-07
1.65631e-07
-1.24831e-06
1.24148e-06
1.22375e-07
-1.24234e-06
1.28559e-06
6.54148e-08
-1.26361e-06
1.32057e-06
2.20658e-12
-1.28068e-06
1.34609e-06
-6.54107e-08
-1.28068e-06
1.3461e-06
-1.22372e-07
-1.26361e-06
1.32057e-06
-1.65629e-07
-1.24234e-06
1.28559e-06
-1.58807e-07
-1.24831e-06
1.24149e-06
-9.65068e-07
8.06261e-07
1.11155e-07
-1.07622e-06
9.95753e-08
-1.23673e-06
7.29799e-08
-1.21574e-06
4.01043e-08
-1.23073e-06
1.53958e-12
-1.24058e-06
-4.01014e-08
-1.24058e-06
-7.29776e-08
-1.23073e-06
-9.95736e-08
-1.21574e-06
-1.11154e-07
-1.23673e-06
-1.07622e-06
6.72882e-08
-1.14351e-06
5.28734e-08
-1.22231e-06
4.22331e-08
-1.2051e-06
2.39128e-08
-1.21241e-06
1.05752e-12
-1.21667e-06
-2.39108e-08
-1.21667e-06
-4.22315e-08
-1.21241e-06
-5.28723e-08
-1.2051e-06
-6.72875e-08
-1.22231e-06
-1.14351e-06
3.9705e-08
-1.18321e-06
2.66883e-08
-1.20929e-06
2.20702e-08
-1.20048e-06
1.25628e-08
-1.2029e-06
7.01155e-13
-1.20411e-06
-1.25615e-08
-1.20411e-06
-2.20691e-08
-1.2029e-06
-2.66875e-08
-1.20048e-06
-3.97045e-08
-1.20929e-06
-1.18321e-06
1.67866e-08
7.49245e-09
7.0097e-09
4.1061e-09
5.45593e-13
-4.1051e-09
-7.00889e-09
-7.4919e-09
-1.67862e-08
-1.75981e-07
-1.1633e-06
1.33928e-06
-2.20198e-07
-1.21652e-06
1.26074e-06
-1.65916e-07
-1.21298e-06
1.1587e-06
-8.74344e-08
-1.20427e-06
1.12578e-06
2.34737e-11
-1.2029e-06
1.11544e-06
8.74801e-08
-1.2029e-06
1.11544e-06
1.65957e-07
-1.20428e-06
1.1258e-06
2.20235e-07
-1.21299e-06
1.15872e-06
1.76014e-07
-1.21654e-06
1.26076e-06
-1.16332e-06
1.33934e-06
-9.28745e-08
-1.07043e-06
-9.57144e-08
-1.21368e-06
-7.94131e-08
-1.22928e-06
-4.43116e-08
-1.23937e-06
1.31737e-11
-1.24722e-06
4.43368e-08
-1.24722e-06
7.9435e-08
-1.23937e-06
9.57317e-08
-1.22929e-06
9.28842e-08
-1.21369e-06
-1.07044e-06
-5.79931e-08
-1.01243e-06
-5.51627e-08
-1.21651e-06
-4.65113e-08
-1.23793e-06
-2.71261e-08
-1.25875e-06
7.9011e-12
-1.27436e-06
2.71412e-08
-1.27436e-06
4.65242e-08
-1.25876e-06
5.51719e-08
-1.23794e-06
5.79975e-08
-1.21652e-06
-1.01244e-06
-7.48946e-08
-9.37537e-07
-6.20308e-08
-1.22938e-06
-4.8554e-08
-1.25141e-06
-2.77345e-08
-1.27957e-06
4.95075e-12
-1.3021e-06
2.7744e-08
-1.3021e-06
4.8562e-08
-1.27957e-06
6.20364e-08
-1.25141e-06
7.48973e-08
-1.22938e-06
-9.37543e-07
-1.3128e-07
-1.19173e-07
-8.49899e-08
-4.39949e-08
3.18783e-12
4.40012e-08
8.49955e-08
1.19177e-07
1.31282e-07
-6.16547e-08
-9.44534e-07
1.00619e-06
-3.76142e-09
-1.33817e-06
1.28028e-06
7.92898e-09
-1.27052e-06
1.25883e-06
3.37581e-09
-1.22439e-06
1.22895e-06
2.065e-10
-1.22194e-06
1.22511e-06
-2.96213e-09
-1.22195e-06
1.22512e-06
-7.50523e-09
-1.22443e-06
1.22897e-06
4.36976e-09
-1.27049e-06
1.25862e-06
6.24862e-08
-1.33821e-06
1.2801e-06
-9.45365e-07
1.00785e-06
5.87132e-09
-9.50405e-07
1.36656e-08
-1.34596e-06
1.01796e-08
-1.26703e-06
5.53373e-09
-1.21975e-06
1.81345e-10
-1.21658e-06
-5.15763e-09
-1.21661e-06
-9.83867e-09
-1.21975e-06
-1.32982e-08
-1.26703e-06
-5.47456e-09
-1.34604e-06
-9.5084e-07
2.56932e-08
-9.76099e-07
1.75556e-08
-1.33783e-06
9.24852e-09
-1.25872e-06
5.58312e-09
-1.21608e-06
1.0549e-10
-1.21111e-06
-5.39394e-09
-1.21111e-06
-9.04195e-09
-1.2161e-06
-1.73326e-08
-1.25874e-06
-2.54877e-08
-1.33788e-06
-9.76327e-07
7.84073e-08
-1.05451e-06
5.28299e-08
-1.31225e-06
3.39562e-08
-1.23985e-06
2.0736e-08
-1.20286e-06
6.37937e-11
-1.19043e-06
-2.06103e-08
-1.19044e-06
-3.38234e-08
-1.20289e-06
-5.26838e-08
-1.23988e-06
-7.82927e-08
-1.31227e-06
-1.05462e-06
2.84775e-07
2.33265e-07
1.52113e-07
7.50349e-08
3.99549e-11
-7.49559e-08
-1.52042e-07
-2.33206e-07
-2.84716e-07
-2.74256e-07
-7.98368e-08
3.54093e-07
-1.93546e-07
-8.07102e-08
-1.12337e-07
-8.12092e-08
-3.09802e-08
-8.13568e-08
5.02871e-08
-8.12674e-08
1.3133e-07
-8.10434e-08
2.11856e-07
-8.05257e-08
2.91489e-07
-7.96335e-08
3.69879e-07
-7.83904e-08
-7.67461e-08
4.46625e-07
-2.35365e-07
-1.46562e-07
3.0209e-07
-1.67597e-07
-1.48478e-07
-9.90872e-08
-1.49719e-07
-3.01069e-08
-1.50337e-07
3.89835e-08
-1.50358e-07
1.0773e-07
-1.4979e-07
1.75812e-07
-1.48607e-07
2.42956e-07
-1.46778e-07
3.08832e-07
-1.44266e-07
-1.41008e-07
3.73094e-07
-2.03716e-07
-2.03823e-07
2.60977e-07
-1.45542e-07
-2.06652e-07
-8.67205e-08
-2.08541e-07
-2.75317e-08
-2.09526e-07
3.17389e-08
-2.09628e-07
9.07978e-08
-2.08849e-07
1.49361e-07
-2.07171e-07
2.07145e-07
-2.04561e-07
2.63845e-07
-2.00967e-07
-1.96325e-07
3.19162e-07
-1.77173e-07
-2.53478e-07
2.26827e-07
-1.26717e-07
-2.57108e-07
-7.57052e-08
-2.59553e-07
-2.43748e-08
-2.60856e-07
2.70368e-08
-2.6104e-07
7.8293e-08
-2.60105e-07
1.29152e-07
-2.5803e-07
1.79364e-07
-2.54773e-07
2.28666e-07
-2.50269e-07
-2.4444e-07
2.76782e-07
-1.53604e-07
-2.9659e-07
1.96716e-07
-1.09805e-07
-3.00906e-07
-6.55273e-08
-3.03831e-07
-2.09696e-08
-3.05414e-07
2.36693e-08
-3.05679e-07
6.81898e-08
-3.04625e-07
1.12388e-07
-3.02228e-07
1.56052e-07
-2.98437e-07
1.98958e-07
-2.93175e-07
-2.86346e-07
2.40863e-07
-1.32657e-07
-3.34003e-07
1.7007e-07
-9.468e-08
-3.38883e-07
-5.63062e-08
-3.42205e-07
-1.76999e-08
-3.4402e-07
2.09762e-08
-3.44355e-07
5.95579e-08
-3.43207e-07
9.78768e-08
-3.40547e-07
1.35757e-07
-3.36317e-07
1.73012e-07
-3.3043e-07
-3.2277e-07
2.09436e-07
-1.14423e-07
-3.66473e-07
1.46893e-07
-8.15116e-08
-3.71795e-07
-4.8292e-08
-3.75425e-07
-1.48964e-08
-3.77416e-07
1.85436e-08
-3.77795e-07
5.18946e-08
-3.76558e-07
8.50192e-08
-3.73672e-07
1.17773e-07
-3.69071e-07
1.50001e-07
-3.62658e-07
-3.54299e-07
1.8153e-07
-9.92266e-08
-3.94798e-07
1.27551e-07
-7.05921e-08
-4.0043e-07
-4.17492e-08
-4.04268e-07
-1.27994e-08
-4.06366e-07
1.61536e-08
-4.06748e-07
4.50034e-08
-4.05408e-07
7.36394e-08
-4.02308e-07
1.01945e-07
-3.97376e-07
1.29792e-07
-3.90505e-07
-3.81546e-07
1.5704e-07
-8.74149e-08
-4.19878e-07
1.12494e-07
-6.2182e-08
-4.25663e-07
-3.68573e-08
-4.29592e-07
-1.15091e-08
-4.31714e-07
1.37896e-08
-4.32046e-07
3.8961e-08
-4.30579e-07
6.39238e-08
-4.2727e-07
8.85928e-08
-4.22045e-07
1.12878e-07
-4.1479e-07
-4.05351e-07
1.36682e-07
-7.90682e-08
-4.42634e-07
1.01825e-07
-5.63248e-08
-4.48406e-07
-3.36143e-08
-4.52303e-07
-1.09673e-08
-4.54361e-07
1.15777e-08
-4.54591e-07
3.39771e-08
-4.52978e-07
5.61849e-08
-4.49478e-07
7.81561e-08
-4.44016e-07
9.98499e-08
-4.36484e-07
-4.26739e-07
1.21237e-07
-7.3907e-08
-4.63918e-07
9.51906e-08
-5.27928e-08
-4.6952e-07
-3.18267e-08
-4.73269e-07
-1.10009e-08
-4.75187e-07
9.68436e-09
-4.75277e-07
3.02247e-08
-4.73519e-07
5.06164e-08
-4.6987e-07
7.08625e-08
-4.64263e-07
9.09834e-08
-4.56605e-07
-4.46784e-07
1.11029e-07
-7.12637e-08
-4.84388e-07
9.17337e-08
-5.10825e-08
-4.89702e-07
-3.11363e-08
-4.93215e-07
-1.13824e-08
-4.94941e-07
8.21563e-09
-4.94875e-07
2.76932e-08
-4.92996e-07
4.70899e-08
-4.89267e-07
6.64573e-08
-4.8363e-07
8.58724e-08
-4.7602e-07
-4.66348e-07
1.05436e-07
-7.02098e-08
-5.04428e-07
9.02498e-08
-5.05184e-08
-5.09393e-07
-3.11045e-08
-5.12629e-07
-1.19022e-08
-5.14143e-07
7.15311e-09
-5.1393e-07
2.6128e-08
-5.11971e-07
4.50956e-08
-5.08234e-07
6.41415e-08
-5.02676e-07
8.337e-08
-4.95249e-07
-4.85873e-07
1.02895e-07
-6.98251e-08
-5.24165e-07
8.95626e-08
-5.04345e-08
-5.28784e-07
-3.1318e-08
-5.31745e-07
-1.23998e-08
-5.33061e-07
6.40052e-09
-5.3273e-07
2.51681e-08
-5.30739e-07
4.39951e-08
-5.27061e-07
6.29834e-08
-5.21664e-07
8.22322e-08
-5.14498e-07
-5.05456e-07
1.01815e-07
-6.9401e-08
-5.43556e-07
8.8791e-08
-5.03199e-08
-5.47865e-07
-3.14808e-08
-5.50585e-07
-1.28079e-08
-5.51734e-07
5.78283e-09
-5.51321e-07
2.4382e-08
-5.49338e-07
4.30871e-08
-5.45766e-07
6.20006e-08
-5.40578e-07
8.12144e-08
-5.33711e-07
-5.2504e-07
1.00798e-07
-6.85152e-08
-5.62462e-07
8.74212e-08
-4.98718e-08
-5.66509e-07
-3.1431e-08
-5.69025e-07
-1.31224e-08
-5.70043e-07
5.13249e-09
-5.69576e-07
2.34195e-08
-5.67625e-07
4.1829e-08
-5.64176e-07
6.04411e-08
-5.5919e-07
7.93099e-08
-5.5258e-07
-5.44243e-07
9.85127e-08
-6.69443e-08
-5.80681e-07
8.51642e-08
-4.89336e-08
-5.84519e-07
-3.10811e-08
-5.86878e-07
-1.33286e-08
-5.87795e-07
4.39004e-09
-5.87295e-07
2.21492e-08
-5.85384e-07
4.00296e-08
-5.82056e-07
5.81092e-08
-5.77269e-07
7.64351e-08
-5.70906e-07
-5.62812e-07
9.50042e-08
-6.46771e-08
-5.97997e-07
8.19924e-08
-4.74887e-08
-6.01708e-07
-3.04063e-08
-6.0396e-07
-1.33932e-08
-6.04808e-07
3.59634e-09
-6.04284e-07
2.06172e-08
-6.02405e-07
3.77311e-08
-5.9917e-07
5.50108e-08
-5.94549e-07
7.25663e-08
-5.88461e-07
-5.80877e-07
9.06315e-08
-6.22626e-08
-6.14535e-07
7.88008e-08
-4.58321e-08
-6.18138e-07
-2.94919e-08
-6.203e-07
-1.32066e-08
-6.21093e-07
3.06549e-09
-6.20556e-07
1.9374e-08
-6.18714e-07
3.57733e-08
-6.15569e-07
5.23249e-08
-6.11101e-07
6.91451e-08
-6.05282e-07
-5.98206e-07
8.64738e-08
-5.97067e-08
-6.30381e-07
7.55532e-08
-4.39795e-08
-6.33865e-07
-2.83365e-08
-6.35943e-07
-1.27351e-08
-6.36695e-07
2.87197e-09
-6.36163e-07
1.85382e-08
-6.3438e-07
3.43199e-08
-6.31351e-07
5.0261e-08
-6.27042e-07
6.63741e-08
-6.21395e-07
-6.14399e-07
8.25673e-08
-5.72159e-08
-6.45566e-07
7.24008e-08
-4.21461e-08
-6.48935e-07
-2.71616e-08
-6.50928e-07
-1.22187e-08
-6.51638e-07
2.73417e-09
-6.51116e-07
1.77516e-08
-6.49397e-07
3.28936e-08
-6.46493e-07
4.82245e-08
-6.42373e-07
6.38261e-08
-6.36996e-07
-6.30042e-07
7.94695e-08
-5.5307e-08
-6.60317e-07
7.00572e-08
-4.07204e-08
-6.63522e-07
-2.62583e-08
-6.6539e-07
-1.18612e-08
-6.66035e-07
2.53394e-09
-6.65511e-07
1.69881e-08
-6.63851e-07
3.15671e-08
-6.61072e-07
4.63659e-08
-6.57172e-07
6.15731e-08
-6.52203e-07
-6.45538e-07
7.70683e-08
-5.37568e-08
-6.74667e-07
6.81077e-08
-3.96316e-08
-6.77647e-07
-2.56446e-08
-6.79377e-07
-1.1723e-08
-6.79956e-07
2.19946e-09
-6.79434e-07
1.61845e-08
-6.77836e-07
3.02879e-08
-6.75176e-07
4.45721e-08
-6.71456e-07
5.91294e-08
-6.66761e-07
-6.60282e-07
7.38736e-08
-5.29967e-08
-6.88645e-07
6.69739e-08
-3.92891e-08
-6.91354e-07
-2.57245e-08
-6.92942e-07
-1.22328e-08
-6.93448e-07
1.2507e-09
-6.92917e-07
1.47859e-08
-6.91372e-07
2.84147e-08
-6.88804e-07
4.21511e-08
-6.85192e-07
5.59526e-08
-6.80562e-07
-6.74096e-07
6.97671e-08
-5.35953e-08
-7.02309e-07
6.72592e-08
-4.01747e-08
-7.04775e-07
-2.69403e-08
-7.06176e-07
-1.38289e-08
-7.06559e-07
-7.68939e-10
-7.05977e-07
1.23054e-08
-7.04446e-07
2.54515e-08
-7.01951e-07
3.87322e-08
-6.98473e-07
5.20989e-08
-6.93929e-07
-6.87435e-07
6.54379e-08
-5.49086e-08
-7.15656e-07
6.82561e-08
-4.18745e-08
-7.17809e-07
-2.90861e-08
-7.18965e-07
-1.64607e-08
-7.19185e-07
-3.91773e-09
-7.1852e-07
8.61338e-09
-7.16977e-07
2.11988e-08
-7.14536e-07
3.39143e-08
-7.11188e-07
4.67358e-08
-7.0675e-07
-7.00155e-07
5.94556e-08
-5.65242e-08
-7.28515e-07
6.93826e-08
-4.41459e-08
-7.30188e-07
-3.20358e-08
-7.31075e-07
-2.00734e-08
-7.31147e-07
-8.17761e-09
-7.30416e-07
3.71873e-09
-7.28873e-07
1.56818e-08
-7.26499e-07
2.77894e-08
-7.23296e-07
4.01004e-08
-7.19061e-07
-7.12888e-07
5.28325e-08
-5.9442e-08
-7.40595e-07
7.15227e-08
-4.7785e-08
-7.41845e-07
-3.63614e-08
-7.42498e-07
-2.50582e-08
-7.4245e-07
-1.38025e-08
-7.41672e-07
-2.53566e-09
-7.4014e-07
8.78959e-09
-7.37824e-07
2.02139e-08
-7.3472e-07
3.17452e-08
-7.30593e-07
-7.24138e-07
4.29956e-08
-6.40378e-08
-7.51682e-07
7.51245e-08
-5.31102e-08
-7.52772e-07
-4.22981e-08
-7.5331e-07
-3.15463e-08
-7.53202e-07
-2.07978e-08
-7.5242e-07
-9.99117e-09
-7.50947e-07
9.40965e-10
-7.48756e-07
1.20393e-08
-7.45819e-07
2.32859e-08
-7.41839e-07
-7.352e-07
3.43476e-08
-7.0174e-08
-7.61933e-07
8.0425e-08
-5.98753e-08
-7.63071e-07
-4.95945e-08
-7.63591e-07
-3.93203e-08
-7.63476e-07
-2.89984e-08
-7.62742e-07
-1.85394e-08
-7.61406e-07
-7.83474e-09
-7.59461e-07
3.22816e-09
-7.56882e-07
1.48159e-08
-7.53427e-07
-7.47829e-07
2.74455e-08
-7.73776e-08
-7.71788e-07
8.72324e-08
-6.75508e-08
-7.72898e-07
-5.78021e-08
-7.7334e-07
-4.80725e-08
-7.73206e-07
-3.82704e-08
-7.72544e-07
-2.82753e-08
-7.71401e-07
-1.78954e-08
-7.69841e-07
-6.82567e-09
-7.67951e-07
5.60809e-09
-7.65861e-07
-7.63518e-07
2.12972e-08
-8.45808e-08
-7.81169e-07
9.39616e-08
-7.53217e-08
-7.82156e-07
-6.62084e-08
-7.82453e-07
-5.71055e-08
-7.82309e-07
-4.79028e-08
-7.81747e-07
-3.84594e-08
-7.80844e-07
-2.85432e-08
-7.79757e-07
-1.768e-08
-7.78815e-07
-4.80457e-09
-7.78737e-07
-7.81114e-07
1.27905e-08
-9.07813e-08
-7.89376e-07
9.8989e-08
-8.24007e-08
-7.90537e-07
-7.40216e-08
-7.90832e-07
-6.55384e-08
-7.90792e-07
-5.68535e-08
-7.90432e-07
-4.78586e-08
-7.89839e-07
-3.84292e-08
-7.89187e-07
-2.84386e-08
-7.88805e-07
-1.76272e-08
-7.89548e-07
-7.91464e-07
-7.27674e-09
-9.66113e-08
-7.96816e-07
1.04051e-07
-8.90121e-08
-7.98136e-07
-8.13316e-08
-7.98513e-07
-7.3467e-08
-7.98657e-07
-6.5353e-08
-7.98546e-07
-5.69887e-08
-7.98203e-07
-4.84903e-08
-7.97685e-07
-4.01634e-08
-7.97132e-07
-3.28515e-08
-7.9686e-07
-7.96133e-07
-2.81823e-08
-1.02429e-07
-8.03797e-07
1.0941e-07
-9.55603e-08
-8.05005e-07
-8.86155e-08
-8.05458e-07
-8.1481e-08
-8.05791e-07
-7.41243e-08
-8.05902e-07
-6.66107e-08
-8.05717e-07
-5.91704e-08
-8.05125e-07
-5.22711e-08
-8.04031e-07
-4.6567e-08
-8.02564e-07
-8.0069e-07
-4.20106e-08
-1.07658e-07
-8.09536e-07
1.13396e-07
-1.0187e-07
-8.10792e-07
-9.59222e-08
-8.11405e-07
-8.97539e-08
-8.11959e-07
-8.33425e-08
-8.12314e-07
-7.67454e-08
-8.12314e-07
-7.0109e-08
-8.11762e-07
-6.3701e-08
-8.10439e-07
-5.79591e-08
-8.08306e-07
-8.06413e-07
-5.22361e-08
-1.12277e-07
-8.13421e-07
1.16162e-07
-1.07907e-07
-8.15163e-07
-1.03249e-07
-8.16063e-07
-9.82958e-08
-8.16913e-07
-9.30104e-08
-8.17599e-07
-8.73997e-08
-8.17925e-07
-8.14639e-08
-8.17698e-07
-7.5114e-08
-8.16789e-07
-6.79935e-08
-8.15426e-07
-8.14605e-07
-5.98012e-08
-1.15712e-07
-8.14701e-07
1.16992e-07
-1.13276e-07
-8.17599e-07
-1.10207e-07
-8.19132e-07
-1.06613e-07
-8.20507e-07
-1.02517e-07
-8.21695e-07
-9.79228e-08
-8.22519e-07
-9.2761e-08
-8.22859e-07
-8.68703e-08
-8.2268e-07
-7.99287e-08
-8.22368e-07
-8.22339e-07
-7.21943e-08
-1.17995e-07
-8.13016e-07
1.1631e-07
-1.17632e-07
-8.17962e-07
-1.16177e-07
-8.20587e-07
-1.13895e-07
-8.22789e-07
-1.10899e-07
-8.2469e-07
-1.07257e-07
-8.26161e-07
-1.02985e-07
-8.27131e-07
-9.80672e-08
-8.27598e-07
-9.26101e-08
-8.27825e-07
-8.27861e-07
-8.70885e-08
-1.20555e-07
-8.09297e-07
1.16836e-07
-1.21635e-07
-8.16882e-07
-1.21224e-07
-8.20997e-07
-1.19757e-07
-8.24257e-07
-1.17447e-07
-8.27e-07
-1.14423e-07
-8.29184e-07
-1.10773e-07
-8.30781e-07
-1.06576e-07
-8.31795e-07
-1.01954e-07
-8.32447e-07
-8.32511e-07
-9.73037e-08
-1.25894e-07
-8.07386e-07
1.23983e-07
-1.26605e-07
-8.16172e-07
-1.25903e-07
-8.21698e-07
-1.24317e-07
-8.25843e-07
-1.2207e-07
-8.29247e-07
-1.19299e-07
-8.31956e-07
-1.16083e-07
-8.33998e-07
-1.12484e-07
-8.35394e-07
-1.08649e-07
-8.36282e-07
-8.36493e-07
-1.04667e-07
-1.22421e-07
-8.03538e-07
1.18572e-07
-1.24229e-07
-8.14364e-07
-1.24303e-07
-8.21624e-07
-1.23315e-07
-8.26831e-07
-1.21657e-07
-8.30905e-07
-1.1953e-07
-8.34083e-07
-1.17037e-07
-8.36491e-07
-1.14237e-07
-8.38193e-07
-1.11283e-07
-8.39236e-07
-8.39683e-07
-1.08093e-07
-1.06957e-07
-7.99957e-07
1.03376e-07
-1.10518e-07
-8.10803e-07
-1.12542e-07
-8.196e-07
-1.13417e-07
-8.25955e-07
-1.13468e-07
-8.30855e-07
-1.12874e-07
-8.34677e-07
-1.11769e-07
-8.37596e-07
-1.10226e-07
-8.39737e-07
-1.08379e-07
-8.41083e-07
-8.41593e-07
-1.0647e-07
-8.79301e-08
-7.96785e-07
8.47581e-08
-9.17677e-08
-8.06965e-07
-9.5116e-08
-8.16252e-07
-9.75548e-08
-8.23516e-07
-9.9232e-08
-8.29178e-07
-1.00195e-07
-8.33714e-07
-1.00526e-07
-8.37265e-07
-1.00309e-07
-8.39954e-07
-9.96225e-08
-8.41769e-07
-8.42725e-07
-9.84898e-08
-6.74509e-08
-7.93392e-07
6.40578e-08
-7.15472e-08
-8.02869e-07
-7.57691e-08
-8.1203e-07
-7.91677e-08
-8.20118e-07
-8.19008e-08
-8.26445e-07
-8.39941e-08
-8.31621e-07
-8.54819e-08
-8.35777e-07
-8.64457e-08
-8.3899e-07
-8.69377e-08
-8.41277e-07
-8.4228e-07
-8.73828e-08
-4.75716e-08
-7.89329e-07
4.35089e-08
-5.19995e-08
-7.98441e-07
-5.62861e-08
-8.07743e-07
-6.02228e-08
-8.16181e-07
-6.37358e-08
-8.22932e-07
-6.68273e-08
-8.28529e-07
-6.95126e-08
-8.33092e-07
-7.18609e-08
-8.36641e-07
-7.39454e-08
-8.39193e-07
-8.40391e-07
-7.58345e-08
-2.79044e-08
-7.84507e-07
2.30821e-08
-3.26278e-08
-7.93718e-07
-3.70501e-08
-8.03321e-07
-4.15873e-08
-8.11644e-07
-4.5935e-08
-8.18584e-07
-5.01554e-08
-8.24309e-07
-5.4313e-08
-8.28934e-07
-5.84926e-08
-8.32462e-07
-6.27968e-08
-8.34888e-07
-8.35861e-07
-6.73263e-08
-8.03979e-09
-7.79155e-07
2.68774e-09
-1.29267e-08
-7.88831e-07
-1.79951e-08
-7.98253e-07
-2.29625e-08
-8.06677e-07
-2.81117e-08
-8.13435e-07
-3.34194e-08
-8.19001e-07
-3.89394e-08
-8.23414e-07
-4.47245e-08
-8.26677e-07
-5.0805e-08
-8.28808e-07
-8.29504e-07
-5.71622e-08
1.5614e-08
-7.73807e-07
-2.09621e-08
9.91796e-09
-7.83135e-07
4.09147e-09
-7.92426e-07
-2.18564e-09
-8.00399e-07
-8.60694e-09
-8.07014e-07
-1.52326e-08
-8.12375e-07
-2.21242e-08
-8.16523e-07
-2.93161e-08
-8.19485e-07
-3.68232e-08
-8.21301e-07
-8.21589e-07
-4.47383e-08
3.8778e-08
-7.66883e-07
-4.57021e-08
3.23195e-08
-7.76676e-07
2.56055e-08
-7.85712e-07
1.85357e-08
-7.93329e-07
1.11169e-08
-7.99595e-07
3.35624e-09
-8.04615e-07
-4.77137e-09
-8.08395e-07
-1.32716e-08
-8.10984e-07
-2.21098e-08
-8.12462e-07
-8.12452e-07
-3.12472e-08
6.37842e-08
-7.58847e-07
-7.18199e-08
5.5855e-08
-7.68747e-07
4.77777e-08
-7.77635e-07
3.95093e-08
-7.85061e-07
3.09383e-08
-7.91024e-07
2.19871e-08
-7.95664e-07
1.25919e-08
-7.99e-07
2.71953e-09
-8.01112e-07
-7.63225e-09
-8.02111e-07
-8.01576e-07
-1.85079e-08
8.75575e-08
-7.50549e-07
-9.58551e-08
7.85936e-08
-7.59783e-07
6.92495e-08
-7.68291e-07
5.98008e-08
-7.75612e-07
5.01027e-08
-7.81326e-07
4.00102e-08
-7.85571e-07
2.94149e-08
-7.88405e-07
1.8216e-08
-7.89913e-07
6.31217e-09
-7.90207e-07
-7.88724e-07
-6.53961e-09
1.06944e-07
-7.4144e-07
-1.16053e-07
9.73308e-08
-7.5017e-07
8.76289e-08
-7.58589e-07
7.76216e-08
-7.65605e-07
6.72336e-08
-7.70938e-07
5.63967e-08
-7.74734e-07
4.49987e-08
-7.77007e-07
3.28897e-08
-7.77804e-07
1.98843e-08
-7.77201e-07
-7.74472e-07
5.63233e-09
1.19799e-07
-7.32165e-07
-1.29074e-07
1.10754e-07
-7.41125e-07
1.01344e-07
-7.49179e-07
9.14446e-08
-7.55706e-07
8.10409e-08
-7.60534e-07
7.00937e-08
-7.63787e-07
5.85238e-08
-7.65437e-07
4.61893e-08
-7.6547e-07
3.28905e-08
-7.63903e-07
-7.59939e-07
1.83574e-08
1.30698e-07
-7.22318e-07
-1.40545e-07
1.21384e-07
-7.31812e-07
1.1194e-07
-7.39735e-07
1.01947e-07
-7.45713e-07
9.14498e-08
-7.50037e-07
8.03927e-08
-7.5273e-07
6.87053e-08
-7.53749e-07
5.6269e-08
-7.53033e-07
4.28657e-08
-7.50499e-07
-7.45485e-07
2.84111e-08
1.4209e-07
-7.11554e-07
-1.52854e-07
1.3155e-07
-7.21271e-07
1.20865e-07
-7.2905e-07
1.09928e-07
-7.34776e-07
9.86576e-08
-7.38766e-07
8.69404e-08
-7.41013e-07
7.46782e-08
-7.41487e-07
6.17779e-08
-7.40133e-07
4.81316e-08
-7.36853e-07
-7.31298e-07
3.39447e-08
1.46834e-07
-7.01154e-07
-1.57235e-07
1.35902e-07
-7.10339e-07
1.24824e-07
-7.17971e-07
1.1342e-07
-7.23373e-07
1.01625e-07
-7.26971e-07
8.93656e-08
-7.28753e-07
7.65824e-08
-7.28704e-07
6.32441e-08
-7.26794e-07
4.93866e-08
-7.22995e-07
-7.17176e-07
3.52648e-08
1.44768e-07
-6.91696e-07
-1.54226e-07
1.34856e-07
-7.00427e-07
1.24144e-07
-7.0726e-07
1.12866e-07
-7.12094e-07
1.01086e-07
-7.15191e-07
8.88474e-08
-7.16514e-07
7.61874e-08
-7.16044e-07
6.31707e-08
-7.13778e-07
4.99144e-08
-7.09739e-07
-7.03869e-07
3.66076e-08
1.42069e-07
-6.81721e-07
-1.52044e-07
1.31999e-07
-6.90356e-07
1.21214e-07
-6.96475e-07
1.09958e-07
-7.00838e-07
9.83009e-08
-7.03534e-07
8.63262e-08
-7.04539e-07
7.41285e-08
-7.03846e-07
6.18116e-08
-7.01461e-07
4.94818e-08
-6.97409e-07
-6.91626e-07
3.72383e-08
1.39121e-07
-6.71142e-07
-1.497e-07
1.28048e-07
-6.79283e-07
1.1667e-07
-6.85097e-07
1.05066e-07
-6.89234e-07
9.32639e-08
-6.91732e-07
8.13233e-08
-6.92599e-07
6.93157e-08
-6.91839e-07
5.73021e-08
-6.89447e-07
4.53031e-08
-6.8541e-07
-6.79664e-07
3.33411e-08
1.3156e-07
-6.6065e-07
-1.42053e-07
1.20404e-07
-6.68127e-07
1.08885e-07
-6.73578e-07
9.70993e-08
-6.77449e-07
8.511e-08
-6.79743e-07
7.29728e-08
-6.80461e-07
6.07262e-08
-6.79592e-07
4.83757e-08
-6.77097e-07
3.58609e-08
-6.72896e-07
-6.66905e-07
2.3102e-08
1.22296e-07
-6.50017e-07
-1.32928e-07
1.10865e-07
-6.56696e-07
9.90385e-08
-6.61751e-07
8.69141e-08
-6.65324e-07
7.45518e-08
-6.6738e-07
6.19832e-08
-6.67893e-07
4.92202e-08
-6.66829e-07
3.62537e-08
-6.6413e-07
2.30488e-08
-6.59691e-07
-6.53357e-07
9.50121e-09
1.12139e-07
-6.38488e-07
-1.23668e-07
1.0015e-07
-6.44707e-07
8.7891e-08
-6.49492e-07
7.5386e-08
-6.52819e-07
6.26511e-08
-6.54646e-07
4.97004e-08
-6.54942e-07
3.65416e-08
-6.5367e-07
2.31988e-08
-6.50787e-07
9.75498e-09
-6.46247e-07
-6.40019e-07
-3.58365e-09
1.01279e-07
-6.26083e-07
-1.13684e-07
8.88115e-08
-6.32239e-07
7.6225e-08
-6.36906e-07
6.34959e-08
-6.4009e-07
5.06181e-08
-6.41768e-07
3.75897e-08
-6.41914e-07
2.44231e-08
-6.40504e-07
1.11606e-08
-6.37525e-07
-2.09469e-09
-6.32992e-07
-6.26964e-07
-1.51499e-08
8.93085e-08
-6.13761e-07
-1.0163e-07
7.68514e-08
-6.19782e-07
6.43259e-08
-6.2438e-07
5.17317e-08
-6.27496e-07
3.90562e-08
-6.29092e-07
2.62855e-08
-6.29143e-07
1.34168e-08
-6.27635e-07
4.66415e-10
-6.24575e-07
-1.25405e-08
-6.19985e-07
-6.13911e-07
-2.5593e-08
7.7089e-08
-6.01479e-07
-8.93714e-08
6.4881e-08
-6.07574e-07
5.27208e-08
-6.1222e-07
4.05728e-08
-6.15348e-07
2.83965e-08
-6.16916e-07
1.61492e-08
-6.16895e-07
3.79214e-09
-6.15278e-07
-8.70852e-09
-6.12074e-07
-2.13951e-08
-6.07298e-07
-6.00965e-07
-3.43411e-08
6.4633e-08
-5.89757e-07
-7.63549e-08
5.31001e-08
-5.96041e-07
4.16911e-08
-6.00811e-07
3.03469e-08
-6.04004e-07
1.90046e-08
-6.05573e-07
7.60035e-09
-6.05491e-07
-3.92657e-09
-6.03751e-07
-1.56371e-08
-6.00364e-07
-2.75792e-08
-5.95356e-07
-5.88759e-07
-3.97847e-08
5.27203e-08
-5.78895e-07
-6.35825e-08
4.21257e-08
-5.85446e-07
3.17299e-08
-5.90415e-07
2.14568e-08
-5.93731e-07
1.12219e-08
-5.95338e-07
9.39426e-10
-5.95209e-07
-9.47472e-09
-5.93337e-07
-2.0097e-08
-5.89741e-07
-3.09904e-08
-5.84462e-07
-5.77557e-07
-4.21927e-08
4.14692e-08
-5.69134e-07
-5.123e-08
3.20838e-08
-5.76061e-07
2.29827e-08
-5.81314e-07
1.40682e-08
-5.84816e-07
5.23769e-09
-5.86508e-07
-3.6111e-09
-5.8636e-07
-1.25769e-08
-5.84371e-07
-2.17485e-08
-5.8057e-07
-3.12024e-08
-5.75009e-07
-5.67765e-07
-4.09948e-08
3.06509e-08
-5.60873e-07
-3.89116e-08
2.28314e-08
-5.68241e-07
1.5348e-08
-5.73831e-07
8.08897e-09
-5.77557e-07
9.42687e-10
-5.79361e-07
-6.20159e-09
-5.79216e-07
-1.34515e-08
-5.77121e-07
-2.09096e-08
-5.73112e-07
-2.86702e-08
-5.67248e-07
-5.59619e-07
-3.68155e-08
2.08131e-08
-5.54248e-07
-2.74383e-08
1.46976e-08
-5.62126e-07
8.97085e-09
-5.68104e-07
3.50959e-09
-5.72096e-07
-1.80937e-09
-5.74042e-07
-7.10805e-09
-5.73917e-07
-1.25048e-08
-5.71725e-07
-1.81171e-08
-5.67499e-07
-2.40573e-08
-5.61308e-07
-5.53242e-07
-3.04343e-08
1.16753e-08
-5.49511e-07
-1.64126e-08
7.46096e-09
-5.57911e-07
3.64672e-09
-5.6429e-07
1.0999e-10
-5.68559e-07
-3.27167e-09
-5.70661e-07
-6.62062e-09
-5.70568e-07
-1.00573e-08
-5.68288e-07
-1.37021e-08
-5.63855e-07
-1.76728e-08
-5.57337e-07
-5.48829e-07
-2.20861e-08
3.50571e-09
-5.46688e-07
-6.32829e-09
1.21357e-09
-5.55619e-07
-6.71294e-10
-5.62405e-07
-2.27246e-09
-5.66958e-07
-3.71322e-09
-5.6922e-07
-5.11599e-09
-5.69165e-07
-6.60392e-09
-5.668e-07
-8.29991e-09
-5.62159e-07
-1.03273e-08
-5.5531e-07
-5.46346e-07
-1.28108e-08
-3.7303e-09
-5.45765e-07
2.80648e-09
-4.12826e-09
-5.55221e-07
-4.1212e-09
-5.62412e-07
-3.83002e-09
-5.67249e-07
-3.3769e-09
-5.69673e-07
-2.88477e-09
-5.69657e-07
-2.47684e-09
-5.67208e-07
-2.27542e-09
-5.6236e-07
-2.40294e-09
-5.55182e-07
-5.45767e-07
-2.98202e-09
-1.01341e-08
-5.46636e-07
1.10052e-08
-8.72502e-09
-5.5663e-07
-6.89991e-09
-5.64237e-07
-4.78318e-09
-5.69366e-07
-2.50188e-09
-5.71954e-07
-1.84731e-10
-5.71975e-07
2.03949e-09
-5.69432e-07
4.04258e-09
-5.64363e-07
5.6987e-09
-5.56838e-07
-5.46952e-07
6.88394e-09
-1.61386e-08
-5.49244e-07
1.87466e-08
-1.29571e-08
-5.59812e-07
-9.32947e-09
-5.67865e-07
-5.38949e-09
-5.73306e-07
-1.27602e-09
-5.76067e-07
2.86873e-09
-5.76119e-07
6.90255e-09
-5.73466e-07
1.06849e-08
-5.68146e-07
1.40796e-08
-5.60233e-07
-5.49828e-07
1.69559e-08
-2.24638e-08
-5.53609e-07
2.68286e-08
-1.74338e-08
-5.64842e-07
-1.1884e-08
-5.73414e-07
-5.97162e-09
-5.79218e-07
1.38503e-10
-5.82178e-07
6.27758e-09
-5.82258e-07
1.22771e-08
-5.79465e-07
1.79733e-08
-5.73842e-07
2.3211e-08
-5.65471e-07
-5.54466e-07
2.78483e-08
-3.05242e-08
-5.60108e-07
3.7024e-08
-2.32393e-08
-5.72127e-07
-1.53332e-08
-5.81321e-07
-6.99092e-09
-5.8756e-07
1.58499e-09
-5.90754e-07
1.01854e-08
-5.90859e-07
1.8601e-08
-5.87881e-07
2.6631e-08
-5.81872e-07
3.4091e-08
-5.72931e-07
-5.61195e-07
4.08202e-08
-4.18121e-08
-5.69337e-07
5.10409e-08
-3.15802e-08
-5.82358e-07
-2.05493e-08
-5.92352e-07
-8.95907e-09
-5.9915e-07
2.92392e-09
-6.02637e-07
1.48218e-08
-6.02757e-07
2.6455e-08
-5.99514e-07
3.75554e-08
-5.92972e-07
4.78783e-08
-5.83254e-07
-5.70529e-07
5.72122e-08
-5.81649e-08
-5.82212e-07
7.10401e-08
-4.39057e-08
-5.96618e-07
-2.85486e-08
-6.07709e-07
-1.24295e-08
-6.15269e-07
4.08282e-09
-6.19149e-07
2.06019e-08
-6.19276e-07
3.67401e-08
-6.15652e-07
5.21241e-08
-6.08356e-07
6.64089e-08
-5.97538e-07
-5.83415e-07
7.92951e-08
-8.18453e-08
-6.0019e-07
9.98229e-08
-6.1932e-08
-6.16531e-07
-4.05005e-08
-6.2914e-07
-1.80263e-08
-6.37743e-07
4.98088e-09
-6.42156e-07
2.79934e-08
-6.42288e-07
5.04834e-08
-6.38142e-07
7.19382e-08
-6.29811e-07
9.1877e-08
-6.17477e-07
-6.01409e-07
1.09871e-07
-1.15166e-07
-6.25598e-07
1.40574e-07
-8.72685e-08
-6.44428e-07
-5.74408e-08
-6.58968e-07
-2.62983e-08
-6.68886e-07
5.51169e-09
-6.73966e-07
3.73289e-08
-6.74105e-07
6.84944e-08
-6.69308e-07
9.83671e-08
-6.59684e-07
1.26339e-07
-6.4545e-07
-6.26931e-07
1.51861e-07
-1.58317e-07
-6.61218e-07
1.93937e-07
-1.1988e-07
-6.82865e-07
-7.92826e-08
-6.99565e-07
-3.72328e-08
-7.10936e-07
5.54316e-09
-7.16742e-07
4.83134e-08
-7.16876e-07
9.03501e-08
-7.11344e-07
1.30938e-07
-7.00272e-07
1.69389e-07
-6.839e-07
-6.62603e-07
2.05062e-07
-2.06875e-07
-7.08885e-07
2.54542e-07
-1.56357e-07
-7.33384e-07
-1.0371e-07
-7.52212e-07
-4.9665e-08
-7.64981e-07
5.05596e-09
-7.71463e-07
5.97418e-08
-7.71562e-07
1.13689e-07
-7.65292e-07
1.66191e-07
-7.52774e-07
2.16542e-07
-7.34251e-07
-7.10105e-07
2.64044e-07
-2.51711e-07
-7.67936e-07
3.10762e-07
-1.89908e-07
-7.95187e-07
-1.26193e-07
-8.15928e-07
-6.12855e-08
-8.29888e-07
4.1603e-09
-8.36909e-07
6.95377e-08
-8.36939e-07
1.34247e-07
-8.30001e-07
1.97658e-07
-8.16185e-07
2.5908e-07
-7.95673e-07
-7.68737e-07
3.17712e-07
-2.83845e-07
-8.35623e-07
3.51532e-07
-2.13687e-07
-8.65345e-07
-1.42073e-07
-8.87543e-07
-6.96688e-08
-9.02292e-07
3.0391e-09
-9.09617e-07
7.56527e-08
-9.09553e-07
1.47781e-07
-9.02129e-07
2.18967e-07
-8.87371e-07
2.8858e-07
-8.65286e-07
-8.3581e-07
3.55653e-07
-2.97336e-07
-9.08129e-07
3.69842e-07
-2.23085e-07
-9.39596e-07
-1.48167e-07
-9.62461e-07
-7.31085e-08
-9.7735e-07
1.89938e-09
-9.84625e-07
7.68061e-08
-9.84459e-07
1.5157e-07
-9.76893e-07
2.26026e-07
-9.61827e-07
2.99689e-07
-9.38949e-07
-9.07656e-07
3.71536e-07
-2.9081e-07
-9.82178e-07
3.6486e-07
-2.16817e-07
-1.01359e-06
-1.43542e-07
-1.03574e-06
-7.1061e-08
-1.04983e-06
9.09206e-10
-1.05659e-06
7.27953e-08
-1.05635e-06
1.45033e-07
-1.04913e-06
2.17923e-07
-1.03472e-06
2.91419e-07
-1.01245e-06
-9.81134e-07
3.64897e-07
-2.64853e-07
-1.05497e-06
3.37648e-07
-1.95762e-07
-1.08268e-06
-1.29075e-07
-1.10242e-06
-6.40099e-08
-1.1149e-06
1.80378e-10
-1.12079e-06
6.4323e-08
-1.12049e-06
1.29251e-07
-1.11406e-06
1.95725e-07
-1.10119e-06
2.64531e-07
-1.08125e-06
-1.05353e-06
3.36925e-07
-2.23863e-07
-1.12042e-06
2.89309e-07
-1.64055e-07
-1.14249e-06
-1.07699e-07
-1.15878e-06
-5.34425e-08
-1.16915e-06
-2.33703e-10
-1.17399e-06
5.29674e-08
-1.17369e-06
1.07205e-07
-1.1683e-06
1.6354e-07
-1.15753e-06
2.23314e-07
-1.14103e-06
-1.11892e-06
2.88703e-07
-1.72679e-07
-1.17191e-06
2.24171e-07
-1.25766e-07
-1.1894e-06
-8.22352e-08
-1.20231e-06
-4.08084e-08
-1.21058e-06
-3.53489e-10
-1.21445e-06
4.01288e-08
-1.21417e-06
8.16428e-08
-1.20981e-06
1.2532e-07
-1.2012e-06
1.72423e-07
-1.18813e-06
-1.17063e-06
2.24141e-07
-1.184e-07
-1.20908e-06
1.55567e-07
-8.55513e-08
-1.22225e-06
-5.58455e-08
-1.23202e-06
-2.77755e-08
-1.23865e-06
-2.89585e-10
-1.24193e-06
2.72423e-08
-1.2417e-06
5.54611e-08
-1.23803e-06
8.54119e-08
-1.23115e-06
1.1855e-07
-1.22127e-06
-1.20807e-06
1.55988e-07
-6.84249e-08
-1.23215e-06
9.1494e-08
-4.92295e-08
-1.24144e-06
-3.23438e-08
-1.2489e-06
-1.62617e-08
-1.25473e-06
-1.48299e-10
-1.25805e-06
1.60064e-08
-1.25786e-06
3.22397e-08
-1.25426e-06
4.9386e-08
-1.2483e-06
6.89101e-08
-1.24079e-06
-1.23149e-06
9.23257e-08
-2.77306e-08
-1.24214e-06
3.77189e-08
-2.0332e-08
-1.24884e-06
-1.39741e-08
-1.25526e-06
-7.33474e-09
-1.26137e-06
3.72725e-12
-1.26539e-06
7.36532e-09
-1.26522e-06
1.41191e-08
-1.26102e-06
2.07058e-08
-1.25489e-06
2.8412e-08
-1.2485e-06
-1.24181e-06
3.87364e-08
1.55872e-09
-1.24171e-06
-1.98792e-09
-1.44346e-10
-1.24714e-06
-1.2734e-09
-1.25413e-06
-9.78716e-10
-1.26167e-06
1.25276e-10
-1.26649e-06
1.24071e-09
-1.26633e-06
1.58717e-09
-1.26136e-06
6.16589e-10
-1.25392e-06
-8.40854e-10
-1.24704e-06
-1.24167e-06
-9.80843e-10
1.95532e-08
-1.233e-06
-2.8261e-08
1.14872e-08
-1.23907e-06
6.46617e-09
-1.24911e-06
3.67614e-09
-1.25888e-06
1.98072e-10
-1.26301e-06
-3.23596e-09
-1.2629e-06
-6.02616e-09
-1.25857e-06
-1.09764e-08
-1.24897e-06
-1.88027e-08
-1.23921e-06
-1.23329e-06
-2.71882e-08
2.70724e-08
-1.21621e-06
-4.38604e-08
1.51974e-08
-1.2272e-06
1.07255e-08
-1.24464e-06
7.4445e-09
-1.25559e-06
2.221e-10
-1.25579e-06
-6.90385e-09
-1.25578e-06
-1.01758e-08
-1.2553e-06
-1.47253e-08
-1.24442e-06
-2.64205e-08
-1.22752e-06
-1.21693e-06
-4.27777e-08
2.17395e-08
-1.18641e-06