/*--------------------------------*- C++ -*----------------------------------*\
  =========                 |
  \\      /  F ield         | OpenFOAM: The Open Source CFD Toolbox
   \\    /   O peration     | Website:  https://openfoam.org
    \\  /    A nd           | Version:  8
     \\/     M anipulation  |
\*---------------------------------------------------------------------------*/
FoamFile
{
    version     2.0;
    format      ascii;
    class       volVectorField;
    location    "1.4";
    object      U;
}
// * * * * * * * * * * * * * * * * * * * * * * * * * * * * * * * * * * * * * //

dimensions      [0 1 -1 0 0 0 0];

internalField   nonuniform List<vector> 
9150
(
(0.0536261 -0.428927 0)
(0.0878957 -0.622412 0)
(0.0732948 -0.631534 0)
(0.0486882 -0.643802 0)
(0.0170687 -0.654551 0)
(-0.0170665 -0.654551 0)
(-0.0486863 -0.643803 0)
(-0.0732934 -0.631535 0)
(-0.0878951 -0.622413 0)
(-0.053626 -0.428928 0)
(0.0405394 -0.522589 0)
(0.0572923 -0.625751 0)
(0.0422137 -0.61325 0)
(0.0294235 -0.622491 0)
(0.0105166 -0.628931 0)
(-0.0105151 -0.628932 0)
(-0.0294221 -0.622491 0)
(-0.0422127 -0.613251 0)
(-0.0572916 -0.625752 0)
(-0.0405391 -0.52259 0)
(0.0250788 -0.557881 0)
(0.0324281 -0.613915 0)
(0.023103 -0.604491 0)
(0.017273 -0.610003 0)
(0.00626186 -0.613231 0)
(-0.00626081 -0.613231 0)
(-0.0172721 -0.610003 0)
(-0.0231023 -0.604491 0)
(-0.0324276 -0.613915 0)
(-0.0250785 -0.557881 0)
(0.0152322 -0.584662 0)
(0.0174109 -0.607531 0)
(0.0117857 -0.601145 0)
(0.00887691 -0.603282 0)
(0.00325103 -0.604416 0)
(-0.00325034 -0.604416 0)
(-0.00887634 -0.603282 0)
(-0.0117853 -0.601145 0)
(-0.0174106 -0.607531 0)
(-0.015232 -0.584662 0)
(0.00621192 -0.597141 0)
(0.00553298 -0.601423 0)
(0.00360866 -0.600042 0)
(0.00268143 -0.600348 0)
(0.000996059 -0.600488 0)
(-0.000995538 -0.600488 0)
(-0.00268098 -0.600348 0)
(-0.00360831 -0.600042 0)
(-0.00553275 -0.601423 0)
(-0.00621182 -0.597141 0)
(0.468439 -1.16067 1.70644e-24)
(0.282684 -1.0861 0)
(0.162886 -1.06929 0)
(0.0918147 -1.0577 0)
(0.0302823 -1.05321 0)
(-0.0302592 -1.05321 0)
(-0.0917943 -1.05771 0)
(-0.162869 -1.06931 0)
(-0.282672 -1.08612 0)
(-0.468444 -1.16069 -1.70675e-24)
(0.333822 -0.843949 4.75169e-25)
(0.28743 -0.936736 0)
(0.188386 -0.936857 0)
(0.108034 -0.936892 0)
(0.0357 -0.939375 0)
(-0.0356871 -0.939377 0)
(-0.108023 -0.936898 0)
(-0.188378 -0.936866 0)
(-0.287428 -0.936748 0)
(-0.333826 -0.843964 -4.75203e-25)
(0.278318 -0.701828 7.41569e-26)
(0.259087 -0.804665 0)
(0.178339 -0.817517 0)
(0.104537 -0.82847 0)
(0.0348416 -0.836692 0)
(-0.0348339 -0.836693 0)
(-0.10453 -0.828474 0)
(-0.178335 -0.817522 0)
(-0.259086 -0.804672 0)
(-0.27832 -0.701836 -7.41648e-26)
(0.198953 -0.55379 3.09948e-25)
(0.216436 -0.709477 0)
(0.154512 -0.725925 0)
(0.0913522 -0.742135 0)
(0.0305565 -0.754118 0)
(-0.0305517 -0.754119 0)
(-0.091348 -0.742137 0)
(-0.154509 -0.725928 0)
(-0.216435 -0.709481 0)
(-0.198954 -0.553794 -3.09934e-25)
(0.117859 -0.445489 -4.89878e-25)
(0.155919 -0.64442 -6.98858e-25)
(0.116869 -0.663864 -2.38214e-25)
(0.070966 -0.681306 -1.56334e-25)
(0.0239906 -0.69435 -9.03584e-27)
(-0.0239874 -0.69435 -9.02978e-27)
(-0.0709633 -0.681307 -1.56316e-25)
(-0.116867 -0.663865 -2.38205e-25)
(-0.155918 -0.644422 -6.98845e-25)
(-0.117859 -0.445492 -4.89874e-25)
(0.0154189 -0.938023 0)
(-0.0423074 -1.33323 0)
(0.0206172 -1.26537 0)
(-0.00466415 -1.22254 0)
(0.00331563 -1.22107 0)
(-0.00312178 -1.22109 0)
(0.00488347 -1.22254 0)
(-0.0203741 -1.26532 0)
(0.0426385 -1.33312 0)
(-0.0150864 -0.939282 0)
(0.0490532 -0.912165 0)
(-0.0258875 -1.33216 0)
(0.0210791 -1.26822 0)
(0.000136025 -1.22299 0)
(0.000558235 -1.22123 0)
(-0.000425473 -1.22125 0)
(1.8592e-05 -1.223 0)
(-0.0209313 -1.26819 0)
(0.026142 -1.33229 0)
(-0.0489745 -0.912671 0)
(0.0778428 -0.948644 0)
(-0.0247533 -1.34696 0)
(0.0147168 -1.27476 0)
(0.00587962 -1.23098 0)
(-0.000297074 -1.22587 0)
(0.000398254 -1.22589 0)
(-0.00576757 -1.231 0)
(-0.0146325 -1.27477 0)
(0.0248945 -1.34701 0)
(-0.0777889 -0.948975 0)
(0.146219 -1.08045 0)
(0.00336751 -1.36605 0)
(0.0135034 -1.27102 0)
(0.0215416 -1.22583 0)
(0.00596742 -1.21435 0)
(-0.00589821 -1.21436 0)
(-0.021476 -1.22585 0)
(-0.0134602 -1.27104 0)
(-0.00327463 -1.36609 0)
(-0.146183 -1.0806 0)
(0.300127 -1.21749 0)
(0.128871 -1.32176 0)
(0.0682916 -1.21012 0)
(0.0558109 -1.16877 0)
(0.020023 -1.15657 0)
(-0.0199817 -1.15657 0)
(-0.0557762 -1.16879 0)
(-0.0682584 -1.21015 0)
(-0.128828 -1.32179 0)
(-0.300123 -1.21756 0)
(-0.157176 -0.0612054 0)
(-0.116995 -0.0620605 0)
(-0.0764828 -0.0627699 0)
(-0.0358237 -0.063231 0)
(0.00483962 -0.0633064 0)
(0.0454232 -0.062926 0)
(0.085832 -0.0621732 0)
(0.125903 -0.0611492 0)
(0.16545 -0.0599105 0)
(0.204276 -0.0585161 0)
(-0.134512 -0.118425 0)
(-0.10084 -0.119935 0)
(-0.0667356 -0.120935 0)
(-0.032325 -0.121441 0)
(0.00223125 -0.121448 0)
(0.0367289 -0.120951 0)
(0.0709754 -0.119947 0)
(0.104818 -0.118426 0)
(0.138107 -0.116371 0)
(0.170689 -0.113755 0)
(-0.116307 -0.176739 0)
(-0.0874074 -0.179121 0)
(-0.0581257 -0.180696 0)
(-0.0285899 -0.181503 0)
(0.0010594 -0.181563 0)
(0.0306764 -0.18088 0)
(0.0601166 -0.179436 0)
(0.0892374 -0.177198 0)
(0.117893 -0.17412 0)
(0.145937 -0.170144 0)
(-0.101119 -0.230229 0)
(-0.0760571 -0.233491 0)
(-0.0506592 -0.235676 0)
(-0.0250444 -0.236828 0)
(0.000669958 -0.236969 0)
(0.0263661 -0.236103 0)
(0.0519246 -0.23421 0)
(0.0772234 -0.23125 0)
(0.102135 -0.227165 0)
(0.126524 -0.22188 0)
(-0.0876814 -0.276483 0)
(-0.0659249 -0.280486 0)
(-0.0438797 -0.283191 0)
(-0.0216461 -0.284644 0)
(0.000677169 -0.28487 0)
(0.0229917 -0.283868 0)
(0.0451968 -0.281616 0)
(0.0671889 -0.278067 0)
(0.0888602 -0.273151 0)
(0.110094 -0.266777 0)
(-0.0757649 -0.316577 0)
(-0.056894 -0.321206 0)
(-0.0377852 -0.324351 0)
(-0.0185199 -0.326063 0)
(0.000820722 -0.326367 0)
(0.0201555 -0.325263 0)
(0.0394019 -0.322723 0)
(0.0584738 -0.318693 0)
(0.077282 -0.31309 0)
(0.0957282 -0.305808 0)
(-0.0653937 -0.351345 0)
(-0.04903 -0.356478 0)
(-0.0324806 -0.359977 0)
(-0.0158105 -0.361896 0)
(0.000914741 -0.362261 0)
(0.0176292 -0.36107 0)
(0.0342653 -0.358292 0)
(0.0507532 -0.353864 0)
(0.0670192 -0.347694 0)
(0.082981 -0.339657 0)
(-0.0567391 -0.381538 0)
(-0.0424861 -0.387052 0)
(-0.0281046 -0.390814 0)
(-0.0136437 -0.392878 0)
(0.000844895 -0.39327 0)
(0.0153089 -0.391987 0)
(0.0296942 -0.388992 0)
(0.0439442 -0.384218 0)
(0.0579996 -0.377559 0)
(0.0717926 -0.368872 0)
(-0.0499986 -0.408013 0)
(-0.0374133 -0.413765 0)
(-0.0247668 -0.41768 0)
(-0.0120898 -0.419812 0)
(0.000581079 -0.420183 0)
(0.0132082 -0.418785 0)
(0.0257518 -0.415578 0)
(0.0381705 -0.410487 0)
(0.0504221 -0.4034 0)
(0.0624551 -0.394162 0)
(-0.0452207 -0.43171 0)
(-0.033844 -0.437531 0)
(-0.0224786 -0.441476 0)
(-0.011135 -0.443586 0)
(0.00016773 -0.44388 0)
(0.011409 -0.442342 0)
(0.0225664 -0.438929 0)
(0.0336173 -0.433565 0)
(0.0445395 -0.426137 0)
(0.0552977 -0.416493 0)
(-0.0422507 -0.453541 0)
(-0.0316541 -0.459264 0)
(-0.0211367 -0.463113 0)
(-0.0106895 -0.465117 0)
(-0.000311781 -0.465284 0)
(0.00999487 -0.463595 0)
(0.0202284 -0.460005 0)
(0.030388 -0.454442 0)
(0.0404691 -0.446803 0)
(0.0504665 -0.436959 0)
(-0.0407104 -0.474292 0)
(-0.0305536 -0.479772 0)
(-0.0205281 -0.483419 0)
(-0.0106081 -0.48525 0)
(-0.000774849 -0.485262 0)
(0.00898968 -0.483435 0)
(0.018704 -0.479728 0)
(0.0283844 -0.474077 0)
(0.0380448 -0.466406 0)
(0.0477483 -0.456613 0)
(-0.0400685 -0.49449 0)
(-0.0301436 -0.499635 0)
(-0.0203756 -0.503013 0)
(-0.0107295 -0.504633 0)
(-0.00117316 -0.504488 0)
(0.0083268 -0.502559 0)
(0.0178032 -0.498807 0)
(0.0272816 -0.493187 0)
(0.0368023 -0.485642 0)
(0.0465268 -0.476086 0)
(-0.0397995 -0.514376 0)
(-0.0300277 -0.519159 0)
(-0.0204093 -0.522251 0)
(-0.0109097 -0.523659 0)
(-0.00148979 -0.523379 0)
(0.00789282 -0.521393 0)
(0.0172764 -0.517673 0)
(0.0266911 -0.512184 0)
(0.0362193 -0.50488 0)
(0.0461266 -0.495673 0)
(-0.0395004 -0.533962 0)
(-0.0298977 -0.538415 0)
(-0.0204258 -0.541246 0)
(-0.0110566 -0.542469 0)
(-0.00175007 -0.542089 0)
(0.00753658 -0.540093 0)
(0.0168402 -0.536461 0)
(0.0262023 -0.531161 0)
(0.0357587 -0.524135 0)
(0.0458463 -0.515246 0)
(-0.0389321 -0.553156 0)
(-0.0295685 -0.55732 0)
(-0.0203066 -0.559927 0)
(-0.0111266 -0.561002 0)
(-0.00199399 -0.560556 0)
(0.00712894 -0.558586 0)
(0.0162727 -0.555076 0)
(0.0255011 -0.549998 0)
(0.0350114 -0.543282 0)
(0.0450884 -0.534818 0)
(-0.0379716 -0.571778 0)
(-0.0289435 -0.575703 0)
(-0.0199896 -0.578128 0)
(-0.011094 -0.579087 0)
(-0.002233 -0.578599 0)
(0.00662099 -0.576668 0)
(0.0154966 -0.573282 0)
(0.0244902 -0.568393 0)
(0.0338537 -0.561888 0)
(0.0435994 -0.553629 0)
(-0.0366172 -0.589561 0)
(-0.028014 -0.593319 0)
(-0.0194637 -0.595616 0)
(-0.0109442 -0.596492 0)
(-0.00244912 -0.595978 0)
(0.00603358 -0.594083 0)
(0.0145371 -0.590802 0)
(0.0232039 -0.586092 0)
(0.0323273 -0.579842 0)
(0.0411181 -0.571969 0)
(-0.0352292 -0.606452 0)
(-0.0269877 -0.610107 0)
(-0.01882 -0.61231 0)
(-0.0106708 -0.613127 0)
(-0.00253801 -0.612593 0)
(0.00558375 -0.610729 0)
(0.0137399 -0.607541 0)
(0.0221162 -0.603008 0)
(0.0309482 -0.597095 0)
(0.0386087 -0.589852 0)
(-0.0338162 -0.622612 0)
(-0.0258766 -0.62617 0)
(-0.0180618 -0.628293 0)
(-0.0102656 -0.629064 0)
(-0.0024729 -0.628526 0)
(0.00531962 -0.62671 0)
(0.0131747 -0.623621 0)
(0.0212994 -0.61923 0)
(0.0298073 -0.613493 0)
(0.0364838 -0.606536 0)
(-0.0324902 -0.638119 0)
(-0.0247911 -0.641548 0)
(-0.0172998 -0.643586 0)
(-0.00984184 -0.64432 0)
(-0.00238306 -0.643794 0)
(0.00508363 -0.642042 0)
(0.0126431 -0.639068 0)
(0.0205348 -0.634829 0)
(0.0285526 -0.629268 0)
(0.0346013 -0.622246 0)
(-0.0315213 -0.653048 0)
(-0.0239643 -0.656346 0)
(-0.0167069 -0.658283 0)
(-0.00952261 -0.658963 0)
(-0.00234728 -0.658442 0)
(0.00484037 -0.656753 0)
(0.012157 -0.653911 0)
(0.0198504 -0.649903 0)
(0.0272505 -0.644743 0)
(0.0329075 -0.637921 0)
(-0.0308019 -0.667557 0)
(-0.0233428 -0.670684 0)
(-0.016276 -0.672494 0)
(-0.00932924 -0.673109 0)
(-0.00239909 -0.672588 0)
(0.00455817 -0.670962 0)
(0.0116759 -0.668254 0)
(0.0191591 -0.664471 0)
(0.0258875 -0.659704 0)
(0.0311701 -0.653181 0)
(-0.0304731 -0.681744 0)
(-0.0231308 -0.684588 0)
(-0.0162094 -0.686252 0)
(-0.00947038 -0.686802 0)
(-0.00276346 -0.686281 0)
(0.00397902 -0.684715 0)
(0.0109055 -0.682105 0)
(0.0181262 -0.67844 0)
(0.0241921 -0.673803 0)
(0.0290755 -0.667387 0)
(-0.0307505 -0.695592 0)
(-0.0235603 -0.69816 0)
(-0.0167384 -0.699655 0)
(-0.0101664 -0.700107 0)
(-0.00366351 -0.69956 0)
(0.00287089 -0.698029 0)
(0.0096111 -0.695502 0)
(0.0164754 -0.69196 0)
(0.0220678 -0.68737 0)
(0.0267488 -0.680937 0)
(-0.0312344 -0.709044 0)
(-0.0243938 -0.711401 0)
(-0.017715 -0.712703 0)
(-0.0113558 -0.713014 0)
(-0.00510417 -0.712395 0)
(0.00117859 -0.710861 0)
(0.00768047 -0.708394 0)
(0.0141263 -0.704978 0)
(0.0192565 -0.700468 0)
(0.0236466 -0.693862 0)
(-0.0316736 -0.722225 0)
(-0.0254681 -0.724159 0)
(-0.0190539 -0.725188 0)
(-0.0129965 -0.725335 0)
(-0.0070702 -0.724634 0)
(-0.00109518 -0.723089 0)
(0.00511988 -0.720682 0)
(0.0111082 -0.717418 0)
(0.0158237 -0.713085 0)
(0.0200557 -0.706688 0)
(-0.0326933 -0.734811 0)
(-0.0271653 -0.736218 0)
(-0.0210788 -0.736958 0)
(-0.01533 -0.736954 0)
(-0.00972169 -0.73619 0)
(-0.00405156 -0.734645 0)
(0.00186608 -0.732295 0)
(0.00738112 -0.729137 0)
(0.0117039 -0.724925 0)
(0.0157249 -0.718418 0)
(-0.0345602 -0.74639 0)
(-0.029674 -0.747498 0)
(-0.0239254 -0.748056 0)
(-0.0184473 -0.747955 0)
(-0.0130957 -0.747158 0)
(-0.00765549 -0.74564 0)
(-0.00195396 -0.743365 0)
(0.00327369 -0.740324 0)
(0.00742901 -0.736282 0)
(0.0114616 -0.729871 0)
(-0.0372353 -0.756956 0)
(-0.0329221 -0.758049 0)
(-0.0274729 -0.758578 0)
(-0.0222265 -0.75846 0)
(-0.0170953 -0.757692 0)
(-0.0118447 -0.756267 0)
(-0.00628583 -0.754171 0)
(-0.0011939 -0.751356 0)
(0.00295698 -0.747502 0)
(0.00711123 -0.741036 0)
(-0.0404809 -0.766954 0)
(-0.0365958 -0.768088 0)
(-0.031491 -0.768592 0)
(-0.0264794 -0.768481 0)
(-0.021607 -0.767776 0)
(-0.016602 -0.766519 0)
(-0.0112383 -0.764707 0)
(-0.00626432 -0.762341 0)
(-0.00210391 -0.759298 0)
(0.00246691 -0.754801 0)
(-0.043764 -0.776695 0)
(-0.0402075 -0.777728 0)
(-0.0355858 -0.778075 0)
(-0.030861 -0.777911 0)
(-0.0262776 -0.777286 0)
(-0.0215636 -0.776235 0)
(-0.0164606 -0.774892 0)
(-0.0116688 -0.773472 0)
(-0.00749179 -0.772501 0)
(-0.0022484 -0.77317 0)
(-0.0466189 -0.785449 0)
(-0.0434135 -0.786543 0)
(-0.0393436 -0.786822 0)
(-0.0349438 -0.786708 0)
(-0.0306252 -0.786223 0)
(-0.0261687 -0.785493 0)
(-0.0213877 -0.784697 0)
(-0.0167764 -0.784233 0)
(-0.0124893 -0.784955 0)
(-0.00671547 -0.78816 0)
(-0.0492357 -0.793275 0)
(-0.0464228 -0.794515 0)
(-0.0428539 -0.794839 0)
(-0.0387703 -0.794885 0)
(-0.0347238 -0.794663 0)
(-0.0305678 -0.794228 0)
(-0.0262837 -0.793747 0)
(-0.0221508 -0.793429 0)
(-0.0183008 -0.793939 0)
(-0.014984 -0.794108 0)
(-0.0517971 -0.800535 0)
(-0.0493846 -0.801791 0)
(-0.0463322 -0.802194 0)
(-0.0426033 -0.802436 0)
(-0.0389094 -0.802436 0)
(-0.0351509 -0.80219 0)
(-0.0314028 -0.80164 0)
(-0.0278361 -0.800843 0)
(-0.0245616 -0.799872 0)
(-0.0218544 -0.798319 0)
(-0.0541175 -0.807063 0)
(-0.0521787 -0.808202 0)
(-0.049715 -0.808708 0)
(-0.0465136 -0.809137 0)
(-0.0432875 -0.80936 0)
(-0.0399854 -0.809233 0)
(-0.0366683 -0.808597 0)
(-0.0335633 -0.80724 0)
(-0.0302899 -0.805183 0)
(-0.0272922 -0.803016 0)
(-0.0563098 -0.811986 0)
(-0.0548239 -0.813396 0)
(-0.0529815 -0.814101 0)
(-0.0504993 -0.814761 0)
(-0.0478647 -0.815239 0)
(-0.0450756 -0.815352 0)
(-0.0421545 -0.814863 0)
(-0.0394224 -0.8136 0)
(-0.0359692 -0.8116 0)
(-0.0316372 -0.810102 0)
(-0.0579607 -0.814759 0)
(-0.0571404 -0.816922 0)
(-0.0559995 -0.818035 0)
(-0.0543194 -0.819067 0)
(-0.0523502 -0.819951 0)
(-0.0501096 -0.820477 0)
(-0.0476121 -0.8205 0)
(-0.0452456 -0.819941 0)
(-0.0421499 -0.819198 0)
(-0.0373006 -0.818998 0)
(-0.0589506 -0.814209 0)
(-0.0589936 -0.818184 0)
(-0.0585365 -0.820227 0)
(-0.0576276 -0.821961 0)
(-0.0562895 -0.82345 0)
(-0.0545807 -0.82457 0)
(-0.0525076 -0.82522 0)
(-0.050471 -0.825385 0)
(-0.0481564 -0.825468 0)
(-0.0443673 -0.825496 0)
(-0.0598296 -0.811412 0)
(-0.0606857 -0.817508 0)
(-0.0607891 -0.820849 0)
(-0.060358 -0.823587 0)
(-0.0594064 -0.825936 0)
(-0.0580327 -0.827779 0)
(-0.0562863 -0.82909 0)
(-0.0544077 -0.829856 0)
(-0.0524932 -0.830284 0)
(-0.0495905 -0.830302 0)
(-0.0622629 -0.809541 0)
(-0.0628294 -0.817103 0)
(-0.0631014 -0.821503 0)
(-0.0626643 -0.825101 0)
(-0.0616958 -0.828162 0)
(-0.0604005 -0.830646 0)
(-0.0588453 -0.832504 0)
(-0.0571891 -0.83375 0)
(-0.0554642 -0.834531 0)
(-0.0532273 -0.834705 0)
(-0.0604241 -0.804559 0)
(-0.0614302 -0.815306 0)
(-0.0621516 -0.821942 0)
(-0.0620142 -0.826625 0)
(-0.0613351 -0.830356 0)
(-0.0603476 -0.833276 0)
(-0.0591608 -0.835497 0)
(-0.0578722 -0.837044 0)
(-0.0564521 -0.838014 0)
(-0.0547543 -0.838325 0)
(-0.0526286 -0.801458 0)
(-0.054353 -0.812621 0)
(-0.0558474 -0.820928 0)
(-0.0566065 -0.826816 0)
(-0.0568201 -0.831312 0)
(-0.0566561 -0.834794 0)
(-0.0561915 -0.837413 0)
(-0.0555448 -0.839292 0)
(-0.0547531 -0.840431 0)
(-0.053678 -0.840908 0)
(-0.0431224 -0.798514 0)
(-0.0449094 -0.809021 0)
(-0.046743 -0.818199 0)
(-0.0483086 -0.825039 0)
(-0.0492867 -0.830366 0)
(-0.0499323 -0.83454 0)
(-0.0502421 -0.837774 0)
(-0.0502609 -0.840183 0)
(-0.0500533 -0.841768 0)
(-0.0495573 -0.842488 0)
(-0.0328867 -0.795224 0)
(-0.034537 -0.804979 0)
(-0.0368419 -0.814252 0)
(-0.0389445 -0.822025 0)
(-0.0403282 -0.828029 0)
(-0.041531 -0.832929 0)
(-0.042443 -0.836803 0)
(-0.043037 -0.839788 0)
(-0.0433424 -0.841884 0)
(-0.0436264 -0.842861 0)
(-0.0227046 -0.791554 0)
(-0.0245882 -0.80078 0)
(-0.027174 -0.809954 0)
(-0.0292998 -0.818259 0)
(-0.0310247 -0.824882 0)
(-0.0326589 -0.830328 0)
(-0.0341494 -0.834765 0)
(-0.0353971 -0.838207 0)
(-0.0363651 -0.840693 0)
(-0.0374153 -0.841872 0)
(-0.0125636 -0.78711 0)
(-0.0148121 -0.796192 0)
(-0.0175573 -0.805648 0)
(-0.0198072 -0.814081 0)
(-0.021871 -0.820965 0)
(-0.0239949 -0.826701 0)
(-0.0261522 -0.831371 0)
(-0.0282447 -0.834989 0)
(-0.0301205 -0.837522 0)
(-0.0324091 -0.83866 0)
(-0.00237149 -0.781932 0)
(-0.00492285 -0.791352 0)
(-0.00787309 -0.800944 0)
(-0.0103668 -0.809374 0)
(-0.0127235 -0.816277 0)
(-0.0153138 -0.821959 0)
(-0.0181012 -0.826523 0)
(-0.020983 -0.82995 0)
(-0.0235996 -0.832251 0)
(-0.0267366 -0.833115 0)
(0.00954315 -0.7766 0)
(0.00669842 -0.786139 0)
(0.0033657 -0.795545 0)
(0.000336272 -0.80377 0)
(-0.0026157 -0.810497 0)
(-0.00587457 -0.815993 0)
(-0.0093464 -0.820288 0)
(-0.0129612 -0.823415 0)
(-0.0162383 -0.825406 0)
(-0.0199758 -0.825878 0)
(0.0215984 -0.770668 0)
(0.0179394 -0.780275 0)
(0.0143183 -0.789373 0)
(0.0109072 -0.797134 0)
(0.00753802 -0.803575 0)
(0.00371566 -0.808779 0)
(-0.000347694 -0.812767 0)
(-0.00461951 -0.815558 0)
(-0.008584 -0.817222 0)
(-0.0128348 -0.817382 0)
(0.0343651 -0.763034 0)
(0.0301074 -0.773028 0)
(0.025692 -0.782022 0)
(0.0216664 -0.789518 0)
(0.0177669 -0.795616 0)
(0.0133374 -0.80045 0)
(0.0086569 -0.804021 0)
(0.003714 -0.806404 0)
(-0.000940779 -0.807689 0)
(-0.00591926 -0.807501 0)
(0.0463148 -0.754836 0)
(0.0419112 -0.764385 0)
(0.0366417 -0.773129 0)
(0.032097 -0.780555 0)
(0.0276567 -0.786418 0)
(0.0226368 -0.790872 0)
(0.0173721 -0.793978 0)
(0.0117857 -0.795821 0)
(0.00648579 -0.796522 0)
(0.000716642 -0.795603 0)
(0.0562866 -0.746141 0)
(0.0513405 -0.754992 0)
(0.0458734 -0.763436 0)
(0.0412454 -0.770644 0)
(0.0363972 -0.776204 0)
(0.0310115 -0.780254 0)
(0.0253676 -0.782827 0)
(0.019347 -0.784005 0)
(0.0136013 -0.783886 0)
(0.00730164 -0.78184 0)
(0.0628456 -0.737031 0)
(0.0576753 -0.745644 0)
(0.0526879 -0.753888 0)
(0.0482068 -0.760643 0)
(0.0433093 -0.765726 0)
(0.0378865 -0.76926 0)
(0.0321788 -0.771234 0)
(0.0260476 -0.771661 0)
(0.0201791 -0.770597 0)
(0.0138236 -0.76727 0)
(0.0684052 -0.727328 0)
(0.0628022 -0.736653 0)
(0.0580284 -0.744598 0)
(0.053551 -0.750841 0)
(0.0485223 -0.755391 0)
(0.0430578 -0.758348 0)
(0.0373029 -0.759668 0)
(0.0311118 -0.759308 0)
(0.0251147 -0.757232 0)
(0.0188395 -0.752607 0)
(0.074275 -0.716965 0)
(0.0680566 -0.726778 0)
(0.0628009 -0.734608 0)
(0.0578496 -0.740457 0)
(0.0522804 -0.744596 0)
(0.0464772 -0.747047 0)
(0.0404373 -0.747771 0)
(0.0340071 -0.746696 0)
(0.0276147 -0.743712 0)
(0.0213935 -0.738279 0)
(0.0763781 -0.706102 0)
(0.0702637 -0.715682 0)
(0.0649926 -0.723546 0)
(0.0597581 -0.729122 0)
(0.0538736 -0.732939 0)
(0.0478125 -0.73496 0)
(0.0415292 -0.735158 0)
(0.0348802 -0.733489 0)
(0.0281429 -0.729878 0)
(0.0218791 -0.724143 0)
(0.0746772 -0.696488 0)
(0.069553 -0.70531 0)
(0.0647975 -0.712532 0)
(0.0594417 -0.717677 0)
(0.0535739 -0.721039 0)
(0.0475378 -0.722582 0)
(0.0412932 -0.72229 0)
(0.034761 -0.720151 0)
(0.028169 -0.71618 0)
(0.0221948 -0.710319 0)
(0.0732816 -0.68684 0)
(0.0682441 -0.695555 0)
(0.0634225 -0.701978 0)
(0.0579411 -0.706525 0)
(0.0521217 -0.709372 0)
(0.0461923 -0.710487 0)
(0.0401286 -0.709854 0)
(0.0338933 -0.707484 0)
(0.0276687 -0.703411 0)
(0.0221038 -0.697598 0)
(0.0718871 -0.676537 0)
(0.0665603 -0.684952 0)
(0.0613459 -0.690898 0)
(0.0555329 -0.695117 0)
(0.0496084 -0.697684 0)
(0.0436633 -0.698594 0)
(0.0376622 -0.697854 0)
(0.0315621 -0.695465 0)
(0.0254824 -0.691443 0)
(0.0200289 -0.68571 0)
(0.0680294 -0.66587 0)
(0.0629392 -0.673766 0)
(0.0575131 -0.679379 0)
(0.0515651 -0.683397 0)
(0.0455695 -0.685806 0)
(0.03954 -0.686614 0)
(0.0334379 -0.685822 0)
(0.0272067 -0.683414 0)
(0.0208872 -0.67934 0)
(0.0151291 -0.673513 0)
(0.063501 -0.6555 0)
(0.0584197 -0.662485 0)
(0.0526244 -0.667748 0)
(0.0465321 -0.67148 0)
(0.0403872 -0.673666 0)
(0.0341611 -0.674294 0)
(0.0278301 -0.673342 0)
(0.0213289 -0.670751 0)
(0.0146487 -0.666412 0)
(0.00843708 -0.660194 0)
(0.058727 -0.644496 0)
(0.0532398 -0.650877 0)
(0.0471135 -0.655751 0)
(0.040849 -0.659169 0)
(0.0345297 -0.661092 0)
(0.0281154 -0.661485 0)
(0.0215909 -0.660303 0)
(0.0149245 -0.657483 0)
(0.00810552 -0.652939 0)
(0.00151908 -0.646569 0)
(0.0536379 -0.632409 0)
(0.0477153 -0.63854 0)
(0.0413213 -0.643237 0)
(0.0349398 -0.646471 0)
(0.0285412 -0.648201 0)
(0.0220717 -0.648405 0)
(0.015524 -0.647048 0)
(0.00889456 -0.644107 0)
(0.00216115 -0.639575 0)
(-0.00444444 -0.633492 0)
(0.0478723 -0.619837 0)
(0.0416645 -0.625934 0)
(0.0353137 -0.630571 0)
(0.029015 -0.633711 0)
(0.0227044 -0.635338 0)
(0.0163496 -0.635429 0)
(0.00994457 -0.633971 0)
(0.0034777 -0.630965 0)
(-0.00309189 -0.626441 0)
(-0.00966148 -0.620459 0)
(0.0417765 -0.607586 0)
(0.0355534 -0.613586 0)
(0.0293946 -0.618169 0)
(0.0233179 -0.621268 0)
(0.0172469 -0.622838 0)
(0.011149 -0.622849 0)
(0.00500847 -0.621289 0)
(-0.00120463 -0.618171 0)
(-0.00756066 -0.61351 0)
(-0.0140867 -0.60733 0)
(0.0353901 -0.595444 0)
(0.0294473 -0.601606 0)
(0.0236759 -0.606296 0)
(0.0180003 -0.609441 0)
(0.0123404 -0.611001 0)
(0.0066633 -0.610946 0)
(0.000941318 -0.609269 0)
(-0.00485594 -0.605978 0)
(-0.010799 -0.601085 0)
(-0.0169475 -0.594611 0)
(0.0291349 -0.584039 0)
(0.0236842 -0.59046 0)
(0.0184352 -0.59532 0)
(0.0132837 -0.598561 0)
(0.00816957 -0.600141 0)
(0.0030515 -0.60003 0)
(-0.00211114 -0.598223 0)
(-0.00735746 -0.594733 0)
(-0.0127344 -0.589596 0)
(-0.0183357 -0.582853 0)
(0.0231717 -0.573715 0)
(0.018339 -0.580414 0)
(0.0137313 -0.5855 0)
(0.00924477 -0.588893 0)
(0.00482306 -0.590533 0)
(0.000414789 -0.590388 0)
(-0.00402594 -0.588455 0)
(-0.00854552 -0.584759 0)
(-0.0131912 -0.579349 0)
(-0.0180432 -0.572295 0)
(0.0173388 -0.564588 0)
(0.0133139 -0.571732 0)
(0.0095064 -0.577144 0)
(0.00583827 -0.580748 0)
(0.00225132 -0.582489 0)
(-0.00130842 -0.582337 0)
(-0.0048934 -0.580293 0)
(-0.00855545 -0.576388 0)
(-0.0123456 -0.570679 0)
(-0.0163241 -0.563244 0)
(0.0119862 -0.557125 0)
(0.00881741 -0.564732 0)
(0.00587568 -0.570506 0)
(0.00309554 -0.574358 0)
(0.000415219 -0.576228 0)
(-0.00222431 -0.576088 0)
(-0.00488379 -0.573943 0)
(-0.00762125 -0.569826 0)
(-0.0104925 -0.563804 0)
(-0.0135554 -0.55597 0)
(0.00694189 -0.551394 0)
(0.00472564 -0.559533 0)
(0.00273505 -0.56571 0)
(0.000912913 -0.569839 0)
(-0.000802037 -0.571861 0)
(-0.00246926 -0.57175 0)
(-0.00415113 -0.569512 0)
(-0.00590678 -0.565181 0)
(-0.00779444 -0.558826 0)
(-0.00987092 -0.550538 0)
(0.00238122 -0.54762 0)
(0.00112223 -0.556284 0)
(9.35303e-05 -0.562866 0)
(-0.000763258 -0.567276 0)
(-0.00150857 -0.569457 0)
(-0.00220408 -0.569383 0)
(-0.00291177 -0.56706 0)
(-0.00369271 -0.562522 0)
(-0.00460848 -0.55584 0)
(-0.00571672 -0.547107 0)
(-0.00170851 -0.545761 0)
(-0.00202076 -0.554955 0)
(-0.00210456 -0.561943 0)
(-0.00201544 -0.566638 0)
(-0.00181388 -0.56898 0)
(-0.00156238 -0.568945 0)
(-0.0013219 -0.566538 0)
(-0.00115503 -0.561795 0)
(-0.00112238 -0.554782 0)
(-0.00128031 -0.545592 0)
(-0.00535842 -0.545757 0)
(-0.00477209 -0.555478 0)
(-0.00394996 -0.562873 0)
(-0.00294879 -0.567853 0)
(-0.00183343 -0.570358 0)
(-0.000667896 -0.570362 0)
(0.000483695 -0.567869 0)
(0.00155583 -0.562916 0)
(0.00248478 -0.555572 0)
(0.00321208 -0.54593 0)
(-0.00879865 -0.547508 0)
(-0.00733528 -0.557775 0)
(-0.00561854 -0.565593 0)
(-0.00370983 -0.570869 0)
(-0.00167886 -0.573541 0)
(0.000403562 -0.573578 0)
(0.00246575 -0.570985 0)
(0.00443656 -0.565801 0)
(0.0062463 -0.558095 0)
(0.00783066 -0.547965 0)
(-0.0124115 -0.550953 0)
(-0.010046 -0.561828 0)
(-0.00738424 -0.570119 0)
(-0.00449839 -0.575727 0)
(-0.00147199 -0.57858 0)
(0.00161133 -0.578647 0)
(0.00466674 -0.575932 0)
(0.00761002 -0.570475 0)
(0.010361 -0.562354 0)
(0.012847 -0.551673 0)
(-0.0169908 -0.556258 0)
(-0.0135268 -0.567846 0)
(-0.00970924 -0.576698 0)
(-0.00562264 -0.582697 0)
(-0.00136737 -0.585763 0)
(0.00295316 -0.585858 0)
(0.00723261 -0.582987 0)
(0.0113678 -0.577197 0)
(0.015261 -0.568577 0)
(0.0188268 -0.55725 0)
(-0.0233454 -0.563937 0)
(-0.0184592 -0.576387 0)
(-0.0131174 -0.585925 0)
(-0.00743015 -0.592406 0)
(-0.00152817 -0.595727 0)
(0.00445256 -0.595842 0)
(0.0103692 -0.592756 0)
(0.0160845 -0.586526 0)
(0.0214679 -0.577261 0)
(0.0264055 -0.565111 0)
(-0.0324842 -0.57471 0)
(-0.02567 -0.588306 0)
(-0.0182295 -0.598756 0)
(-0.0103167 -0.605875 0)
(-0.00211144 -0.609527 0)
(0.0061945 -0.609652 0)
(0.0144065 -0.606252 0)
(0.0223316 -0.599397 0)
(0.0297872 -0.589224 0)
(0.0366134 -0.575921 0)
(-0.0456742 -0.589664 0)
(-0.0361551 -0.604891 0)
(-0.0257666 -0.616629 0)
(-0.0147294 -0.624636 0)
(-0.00329429 -0.628745 0)
(0.00827533 -0.628874 0)
(0.019716 -0.625025 0)
(0.0307632 -0.617283 0)
(0.0411658 -0.605814 0)
(0.050697 -0.590856 0)
(-0.064268 -0.610664 0)
(-0.0508795 -0.628131 0)
(-0.0363764 -0.641616 0)
(-0.0210569 -0.650819 0)
(-0.00523753 -0.655538 0)
(0.01075 -0.655675 0)
(0.0265758 -0.651232 0)
(0.0419124 -0.642311 0)
(0.056444 -0.629111 0)
(0.0698795 -0.611928 0)
(-0.0884316 -0.640504 0)
(-0.0698578 -0.660691 0)
(-0.0500125 -0.676284 0)
(-0.0292618 -0.686917 0)
(-0.00796526 -0.692358 0)
(0.0135094 -0.6925 0)
(0.0347996 -0.687349 0)
(0.0555439 -0.677022 0)
(0.0753871 -0.661753 0)
(0.0939765 -0.641904 0)
(-0.115684 -0.681999 0)
(-0.0911043 -0.705045 0)
(-0.0652348 -0.722826 0)
(-0.0384695 -0.734925 0)
(-0.0111893 -0.741092 0)
(0.0162466 -0.741216 0)
(0.0434911 -0.735311 0)
(0.0701935 -0.723502 0)
(0.0959822 -0.706051 0)
(0.120476 -0.683368 0)
(-0.140945 -0.735825 0)
(-0.110616 -0.761726 0)
(-0.0792004 -0.781563 0)
(-0.0469726 -0.794989 0)
(-0.0143073 -0.801783 0)
(0.0184697 -0.801856 0)
(0.0510656 -0.795226 0)
(0.083164 -0.782012 0)
(0.114404 -0.762455 0)
(0.144529 -0.736897 0)
(-0.159604 -0.799962 0)
(-0.124483 -0.828657 0)
(-0.0889956 -0.850271 0)
(-0.0529854 -0.864742 0)
(-0.0166663 -0.871984 0)
(0.0197086 -0.871971 0)
(0.0559321 -0.86473 0)
(0.091761 -0.850334 0)
(0.126999 -0.828899 0)
(0.161817 -0.800491 0)
(-0.1688 -0.871 0)
(-0.130314 -0.901985 0)
(-0.0926914 -0.924802 0)
(-0.0552584 -0.939816 0)
(-0.0177802 -0.947218 0)
(0.0196845 -0.947102 0)
(0.0570595 -0.939502 0)
(0.0942969 -0.924392 0)
(0.131648 -0.901621 0)
(0.169786 -0.870845 0)
(-0.167129 -0.944931 0)
(-0.127667 -0.97712 0)
(-0.0898346 -1.00014 0)
(-0.0534238 -1.01492 0)
(-0.0174633 -1.02206 0)
(0.0183802 -1.02185 0)
(0.0542513 -1.01432 0)
(0.0905002 -0.999285 0)
(0.128092 -0.976192 0)
(0.167257 -0.944149 0)
(-0.151782 -1.01989 0)
(-0.116958 -1.04995 0)
(-0.0810862 -1.07131 0)
(-0.0479023 -1.08481 0)
(-0.0158223 -1.09123 0)
(0.016012 -1.09094 0)
(0.0480389 -1.08401 0)
(0.0811202 -1.07013 0)
(0.11684 -1.0486 0)
(0.151559 -1.01855 0)
(-0.125692 -1.09102 0)
(-0.0993521 -1.11576 0)
(-0.0680893 -1.13377 0)
(-0.0398834 -1.14523 0)
(-0.013248 -1.15061 0)
(0.0130245 -1.15029 0)
(0.0396427 -1.14435 0)
(0.0678262 -1.13248 0)
(0.0990673 -1.11424 0)
(0.125473 -1.08944 0)
(-0.0944194 -1.14995 0)
(-0.0766588 -1.16963 0)
(-0.0523363 -1.18413 0)
(-0.0304304 -1.19338 0)
(-0.0101281 -1.19768 0)
(0.0097846 -1.19738 0)
(0.0301029 -1.19255 0)
(0.0520599 -1.18292 0)
(0.0764831 -1.16823 0)
(0.0943985 -1.14853 0)
(-0.063088 -1.19396 0)
(-0.0521508 -1.2094 0)
(-0.0358196 -1.22064 0)
(-0.0207192 -1.22793 0)
(-0.00690017 -1.23139 0)
(0.00661831 -1.23113 0)
(0.0204731 -1.22723 0)
(0.0356681 -1.21964 0)
(0.0521753 -1.20826 0)
(0.0632755 -1.19281 0)
(-0.0353775 -1.22401 0)
(-0.0298954 -1.23508 0)
(-0.0208063 -1.24345 0)
(-0.012111 -1.24943 0)
(-0.00405594 -1.25255 0)
(0.00391062 -1.25234 0)
(0.0120037 -1.24889 0)
(0.0208079 -1.24272 0)
(0.0300746 -1.23426 0)
(0.035703 -1.22318 0)
(-0.0135357 -1.23997 0)
(-0.0120716 -1.2477 0)
(-0.008835 -1.25433 0)
(-0.00540494 -1.26001 0)
(-0.00184987 -1.26352 0)
(0.00185106 -1.26334 0)
(0.00543429 -1.25961 0)
(0.00895828 -1.25386 0)
(0.0123506 -1.24722 0)
(0.0139326 -1.2395 0)
(0.00185175 -1.24415 0)
(0.000502555 -1.24981 0)
(-0.000505509 -1.25606 0)
(-0.000687968 -1.26257 0)
(-0.000219774 -1.26706 0)
(0.000338378 -1.2669 0)
(0.000823216 -1.26226 0)
(0.000696035 -1.25578 0)
(-0.00018128 -1.2496 0)
(-0.0014259 -1.24397 0)
(0.011333 -1.23909 0)
(0.00805715 -1.24423 0)
(0.00433241 -1.25198 0)
(0.00248519 -1.26048 0)
(0.00115703 -1.26565 0)
(-0.000961455 -1.2655 0)
(-0.00226126 -1.26019 0)
(-0.00410106 -1.25183 0)
(-0.00773369 -1.24426 0)
(-0.0109235 -1.2392 0)
(0.0150122 -1.22661 0)
(0.0108087 -1.23386 0)
(0.00630989 -1.24632 0)
(0.00472869 -1.25733 0)
(0.00265928 -1.26055 0)
(-0.00242906 -1.26047 0)
(-0.00444274 -1.25701 0)
(-0.0060527 -1.24619 0)
(-0.0105285 -1.23411 0)
(-0.0146676 -1.22707 0)
(0.0121075 -1.2055 0)
(0.00870363 -1.22183 0)
(0.00727373 -1.24383 0)
(0.00664512 -1.25441 0)
(0.00454531 -1.25121 0)
(-0.00429994 -1.25125 0)
(-0.00635545 -1.25413 0)
(-0.00693672 -1.24352 0)
(-0.00850401 -1.22221 0)
(-0.0119075 -1.20648 0)
(0.00506365 -1.16779 0)
(0.00208864 -1.21427 0)
(0.0113398 -1.24803 0)
(0.00757445 -1.24738 0)
(0.00627612 -1.23834 0)
(-0.00603189 -1.23841 0)
(-0.00737522 -1.24734 0)
(-0.0108678 -1.2475 0)
(-0.0019782 -1.21448 0)
(-0.00496249 -1.16947 0)
(0.00602546 -1.08836 0)
(-0.0126819 -1.23901 0)
(0.0187395 -1.25945 0)
(0.00254 -1.2333 0)
(0.00583908 -1.22717 0)
(-0.00560733 -1.22719 0)
(-0.00237357 -1.23338 0)
(-0.0182968 -1.2591 0)
(0.012791 -1.2388 0)
(-0.00576695 -1.09029 0)
(0.244427 -0.0568855 0)
(0.285389 -0.0547284 0)
(0.324591 -0.0520755 0)
(0.361687 -0.0489553 0)
(0.396278 -0.0453815 0)
(0.427965 -0.041357 0)
(0.456364 -0.0368947 0)
(0.481118 -0.0320276 0)
(0.501912 -0.0268118 0)
(0.5185 -0.0213201 0)
(0.530716 -0.0156225 0)
(0.538459 -0.00974589 0)
(0.541961 -0.00366636 0)
(0.540663 0.00233386 0)
(0.534837 0.00802981 0)
(0.525092 0.0132292 0)
(0.51187 0.0178167 0)
(0.495558 0.0217632 0)
(0.47655 0.0250982 0)
(0.455234 0.0278783 0)
(0.431963 0.0301694 0)
(0.407047 0.032041 0)
(0.380756 0.0335605 0)
(0.353321 0.0347913 0)
(0.324936 0.0357901 0)
(0.295768 0.0366052 0)
(0.265954 0.0372752 0)
(0.235616 0.0378275 0)
(0.20487 0.0382755 0)
(0.173836 0.0386145 0)
(0.142661 0.0388124 0)
(0.111546 0.0387946 0)
(0.0807528 0.038416 0)
(0.0506003 0.0373851 0)
(0.0225901 0.0351387 0)
(-0.00296737 0.0320883 0)
(-0.0262971 0.0235786 0)
(-0.0412998 -0.00117256 0)
(-0.0388951 -0.0334249 0)
(-0.0169549 -0.0458799 0)
(0.204437 -0.110333 0)
(0.238861 -0.105867 0)
(0.271623 -0.100481 0)
(0.302414 -0.0941251 0)
(0.330932 -0.0867697 0)
(0.356866 -0.0784192 0)
(0.379914 -0.0691262 0)