/*--------------------------------*- C++ -*----------------------------------*\
  =========                 |
  \\      /  F ield         | OpenFOAM: The Open Source CFD Toolbox
   \\    /   O peration     | Website:  https://openfoam.org
    \\  /    A nd           | Version:  8
     \\/     M anipulation  |
\*---------------------------------------------------------------------------*/
FoamFile
{
    version     2.0;
    format      ascii;
    class       surfaceScalarField;
    location    "2.15";
    object      alphaPhi0.water;
}
// * * * * * * * * * * * * * * * * * * * * * * * * * * * * * * * * * * * * * //

dimensions      [0 3 -1 0 0 0 0];

internalField   nonuniform List<scalar> 
18095
(
1.58129e-07
-9.65315e-07
8.07186e-07
1.65238e-07
-1.24837e-06
1.24126e-06
1.22133e-07
-1.24236e-06
1.28546e-06
6.52803e-08
-1.2635e-06
1.32035e-06
-3.00897e-11
-1.28051e-06
1.34582e-06
-6.53355e-08
-1.28051e-06
1.34581e-06
-1.22175e-07
-1.26348e-06
1.32032e-06
-1.65265e-07
-1.24233e-06
1.28542e-06
-1.5814e-07
-1.24834e-06
1.24122e-06
-9.6528e-07
8.0714e-07
1.11001e-07
-1.07632e-06
9.93826e-08
-1.23675e-06
7.28291e-08
-1.2158e-06
4.00104e-08
-1.23068e-06
-2.20183e-11
-1.24048e-06
-4.00511e-08
-1.24048e-06
-7.28614e-08
-1.23067e-06
-9.94057e-08
-1.21579e-06
-1.11013e-07
-1.23674e-06
-1.07629e-06
6.72331e-08
-1.14355e-06
5.27871e-08
-1.2223e-06
4.21294e-08
-1.20514e-06
2.38499e-08
-1.2124e-06
-1.57885e-11
-1.21662e-06
-2.38796e-08
-1.21661e-06
-4.21538e-08
-1.2124e-06
-5.28049e-08
-1.20514e-06
-6.7244e-08
-1.2223e-06
-1.14354e-06
3.97686e-08
-1.18332e-06
2.66684e-08
-1.2092e-06
2.20106e-08
-1.20049e-06
1.25248e-08
-1.20292e-06
-1.05881e-11
-1.20408e-06
-1.25448e-08
-1.20408e-06
-2.20273e-08
-1.20292e-06
-2.66806e-08
-1.20048e-06
-3.97769e-08
-1.2092e-06
-1.18331e-06
1.66827e-08
7.47989e-09
6.9936e-09
4.07562e-09
-4.61219e-12
-4.08439e-09
-7.00092e-09
-7.48497e-09
-1.66868e-08
-1.74292e-07
-1.16431e-06
1.3386e-06
-2.18153e-07
-1.21612e-06
1.25998e-06
-1.64805e-07
-1.21284e-06
1.1595e-06
-8.72812e-08
-1.20432e-06
1.1268e-06
-3.24103e-10
-1.20289e-06
1.11593e-06
8.66474e-08
-1.20284e-06
1.11587e-06
1.64232e-07
-1.20418e-06
1.1266e-06
2.17644e-07
-1.21264e-06
1.15923e-06
1.73863e-07
-1.21585e-06
1.25963e-06
-1.16401e-06
1.33787e-06
-9.31561e-08
-1.07115e-06
-9.55882e-08
-1.21369e-06
-7.91696e-08
-1.22926e-06
-4.42695e-08
-1.23922e-06
-1.81571e-10
-1.24698e-06
4.39213e-08
-1.24694e-06
7.88618e-08
-1.23912e-06
9.53444e-08
-1.22912e-06
9.30186e-08
-1.21352e-06
-1.07099e-06
-5.7951e-08
-1.0132e-06
-5.52014e-08
-1.21644e-06
-4.65406e-08
-1.23792e-06
-2.71863e-08
-1.25857e-06
-1.0778e-10
-1.27405e-06
2.69813e-08
-1.27403e-06
4.63657e-08
-1.25851e-06
5.5075e-08
-1.23783e-06
5.78891e-08
-1.21634e-06
-1.0131e-06
-7.48779e-08
-9.38327e-07
-6.20288e-08
-1.22929e-06
-4.8623e-08
-1.25133e-06
-2.78171e-08
-1.27938e-06
-6.61891e-11
-1.3018e-06
2.76922e-08
-1.30179e-06
4.85196e-08
-1.27933e-06
6.19587e-08
-1.25127e-06
7.48444e-08
-1.22922e-06
-9.38256e-07
-1.31141e-07
-1.1917e-07
-8.50368e-08
-4.40624e-08
-4.31929e-11
4.3981e-08
8.497e-08
1.19123e-07
1.31117e-07
-3.00361e-08
-9.28516e-07
9.58552e-07
6.12362e-09
-1.34448e-06
1.30832e-06
7.42066e-09
-1.27804e-06
1.27674e-06
1.63741e-09
-1.22905e-06
1.23483e-06
-3.38642e-09
-1.2261e-06
1.23112e-06
-8.14628e-09
-1.22567e-06
1.23043e-06
-1.32547e-08
-1.22882e-06
1.23393e-06
-1.21576e-08
-1.27822e-06
1.27712e-06
1.62043e-08
-1.34263e-06
1.31426e-06
-9.18494e-07
9.34698e-07
1.59329e-08
-9.44448e-07
2.08574e-08
-1.3494e-06
1.2096e-08
-1.26927e-06
4.57682e-09
-1.22153e-06
-2.53431e-09
-1.21898e-06
-9.6583e-09
-1.21854e-06
-1.69047e-08
-1.22157e-06
-2.65944e-08
-1.26853e-06
-2.07104e-08
-1.34851e-06
-9.39204e-07
2.94235e-08
-9.73872e-07
1.99072e-08
-1.33989e-06
1.12289e-08
-1.2606e-06
5.76791e-09
-1.21606e-06
-1.41162e-09
-1.21181e-06
-8.24289e-09
-1.21171e-06
-1.38477e-08
-1.21597e-06
-2.2338e-08
-1.26004e-06
-3.17664e-08
-1.33908e-06
-9.70971e-07
7.95932e-08
-1.05346e-06
5.18543e-08
-1.31215e-06
3.27109e-08
-1.24145e-06
2.01592e-08
-1.20351e-06
-8.78825e-10
-1.19077e-06
-2.18959e-08
-1.1907e-06
-3.46573e-08
-1.20321e-06
-5.36929e-08
-1.241e-06
-8.10272e-08
-1.31175e-06
-1.052e-06
2.85137e-07
2.32967e-07
1.51009e-07
7.42924e-08
-5.43087e-10
-7.53729e-08
-1.51983e-07
-2.3376e-07
-2.85874e-07
-5.54389e-08
-1.08438e-08
6.62827e-08
-4.43094e-08
-1.11295e-08
-3.29847e-08
-1.13248e-08
-2.15521e-08
-1.14327e-08
-1.01005e-08
-1.14516e-08
1.28209e-09
-1.13826e-08
1.25141e-08
-1.1232e-08
2.35161e-08
-1.1002e-08
3.4208e-08
-1.06919e-08
-1.03003e-08
4.45083e-08
-4.66878e-08
-1.96217e-08
5.54657e-08
-3.76597e-08
-2.01577e-08
-2.84552e-08
-2.05293e-08
-1.91506e-08
-2.07372e-08
-9.81977e-09
-2.07823e-08
-5.35543e-10
-2.06666e-08
8.62654e-09
-2.03939e-08
1.75928e-08
-1.9968e-08
2.62941e-08
-1.9393e-08
-1.86725e-08
3.46665e-08
-4.0257e-08
-2.70163e-08
4.76516e-08
-3.26486e-08
-2.77663e-08
-2.48899e-08
-2.82881e-08
-1.70457e-08
-2.85813e-08
-9.18046e-09
-2.86476e-08
-1.35728e-09
-2.84899e-08
6.36097e-09
-2.81122e-08
1.39128e-08
-2.75199e-08
2.12388e-08
-2.67192e-08
-2.57182e-08
2.82844e-08
-3.52708e-08
-3.33755e-08
4.163e-08
-2.87271e-08
-3.43099e-08
-2.20556e-08
-3.49597e-08
-1.53122e-08
-3.53247e-08
-8.55291e-09
-3.54069e-08
-1.8332e-09
-3.52096e-08
4.7924e-09
-3.47379e-08
1.12705e-08
-3.3998e-08
1.75491e-08
-3.29979e-08
-3.17482e-08
2.35791e-08
-3.12761e-08
-3.8918e-08
3.68186e-08
-2.55757e-08
-4.00105e-08
-1.97663e-08
-4.07692e-08
-1.38971e-08
-4.1194e-08
-8.0171e-09
-4.1287e-08
-2.17507e-09
-4.10518e-08
3.5806e-09
-4.04937e-08
9.20216e-09
-3.96196e-08
1.46429e-08
-3.84387e-08
-3.69632e-08
1.98578e-08
-2.80554e-08
-4.38011e-08
3.29385e-08
-2.30371e-08
-4.50289e-08
-1.79261e-08
-4.58803e-08
-1.27651e-08
-4.63551e-08
-7.59701e-09
-4.64552e-08
-2.46486e-09
-4.6184e-08
2.58815e-09
-4.55467e-08
7.51875e-09
-4.45503e-08
1.22839e-08
-4.32039e-08
-4.15204e-08
1.68411e-08
-2.54416e-08
-4.81379e-08
2.97783e-08
-2.09879e-08
-4.94827e-08
-1.64538e-08
-5.04146e-08
-1.18759e-08
-5.09331e-08
-7.29163e-09
-5.10396e-08
-2.73879e-09
-5.0737e-08
1.74389e-09
-5.00295e-08
6.11686e-09
-4.89234e-08
1.03398e-08
-4.74269e-08
-4.55523e-08
1.43715e-08
-2.32921e-08
-5.2004e-08
2.71581e-08
-1.93214e-08
-5.34534e-08
-1.52768e-08
-5.44591e-08
-1.11898e-08
-5.50202e-08
-7.09228e-09
-5.51372e-08
-3.01754e-09
-5.48118e-08
9.9993e-10
-5.40471e-08
4.92404e-09
-5.28476e-08
8.71679e-09
-5.12198e-08
-4.91737e-08
1.23381e-08
-2.14919e-08
-5.54449e-08
2.49328e-08
-1.79511e-08
-5.69941e-08
-1.43366e-08
-5.80737e-08
-1.06749e-08
-5.86819e-08
-6.9935e-09
-5.88186e-08
-3.32096e-09
-5.84844e-08
3.12483e-10
-5.76806e-08
3.87457e-09
-5.64098e-08
7.33012e-09
-5.46755e-08
-5.24842e-08
1.06406e-08
-1.99631e-08
-5.84874e-08
2.30056e-08
-1.68181e-08
-6.01391e-08
-1.35935e-08
-6.12982e-08
-1.03124e-08
-6.19631e-08
-6.9979e-09
-6.21332e-08
-3.67409e-09
-6.18083e-08
-3.66318e-10
-6.09885e-08
2.89782e-09
-5.9674e-08
6.08766e-09
-5.78653e-08
-5.55646e-08
9.16803e-09
-1.86678e-08
-6.11564e-08
2.13368e-08
-1.58895e-08
-6.29172e-08
-1.30239e-08
-6.41639e-08
-1.00912e-08
-6.48959e-08
-7.11087e-09
-6.51136e-08
-4.10231e-09
-6.4817e-08
-1.08523e-09
-6.40057e-08
1.91906e-09
-6.26783e-08
4.88659e-09
-6.08328e-08
-5.84668e-08
7.78887e-09
-1.7591e-08
-6.34947e-08
1.99292e-08
-1.51415e-08
-6.53666e-08
-1.26019e-08
-6.67034e-08
-9.99036e-09
-6.75075e-08
-7.32271e-09
-6.77813e-08
-4.61319e-09
-6.75265e-08
-1.87537e-09
-6.67435e-08
8.7716e-10
-6.54307e-08
3.62924e-09
-6.35848e-08
-6.12003e-08
6.36271e-09
-1.67018e-08
-6.55762e-08
1.87834e-08
-1.45241e-08
-6.75444e-08
-1.22687e-08
-6.89589e-08
-9.95017e-09
-6.98261e-08
-7.57971e-09
-7.01518e-08
-5.16623e-09
-6.994e-08
-2.71667e-09
-6.91929e-08
-2.36831e-10
-6.79105e-08
2.26794e-09
-6.60896e-08
-6.37239e-08
4.79145e-09
-1.58778e-08
-6.74879e-08
1.77896e-08
-1.39082e-08
-6.95138e-08
-1.18925e-08
-7.09744e-08
-9.8392e-09
-7.18794e-08
-7.75395e-09
-7.2237e-08
-5.64015e-09
-7.20538e-08
-3.49906e-09
-7.1334e-08
-1.33016e-09
-7.00795e-08
8.6907e-10
-6.8289e-08
-6.59578e-08
3.10282e-09
-1.48686e-08
-6.9286e-08
1.66669e-08
-1.30638e-08
-7.13181e-08
-1.12561e-08
-7.27821e-08
-9.44669e-09
-7.36887e-08
-7.63606e-09
-7.40477e-08
-5.8232e-09
-7.38666e-08
-4.00614e-09
-7.31511e-08
-2.18148e-09
-7.19042e-08
-3.44103e-10
-7.01265e-08
-6.78159e-08
1.51381e-09
-1.33711e-08
-7.098e-08
1.50651e-08
-1.1719e-08
-7.297e-08
-1.0105e-08
-7.43961e-08
-8.52491e-09
-7.52688e-08
-6.97513e-09
-7.55974e-08
-5.45287e-09
-7.5389e-08
-3.95611e-09
-7.4648e-08
-2.48383e-09
-7.33766e-08
-1.0361e-09
-7.15744e-08
-6.92378e-08
3.85673e-10
-1.11292e-08
-7.25503e-08
1.26996e-08
-9.63519e-09
-7.44639e-08
-8.20735e-09
-7.58239e-08
-6.83615e-09
-7.66399e-08
-5.5139e-09
-7.69196e-08
-4.23446e-09
-7.66683e-08
-2.99323e-09
-7.5889e-08
-1.78708e-09
-7.45826e-08
-6.13896e-10
-7.27476e-08
-7.03793e-08
5.27556e-10
-7.98326e-09
-7.39583e-08
9.39115e-09
-6.66707e-09
-7.57802e-08
-5.42684e-09
-7.70641e-08
-4.24893e-09
-7.78177e-08
-3.12196e-09
-7.80465e-08
-2.0362e-09
-7.7754e-08
-9.83641e-10
-7.69414e-08
4.2716e-11
-7.56089e-08
1.04932e-09
-7.37539e-08
-7.13727e-08
2.04273e-09
-3.8791e-09
-7.51514e-08
5.07218e-09
-2.76987e-09
-7.68895e-08
-1.72611e-09
-7.81078e-08
-7.32007e-10
-7.88118e-08
2.26613e-10
-7.90052e-08
1.16231e-09
-7.86897e-08
2.08674e-09
-7.7866e-08
3.01134e-09
-7.65335e-08
3.94838e-09
-7.46909e-08
-7.23362e-08
4.91215e-09
1.1078e-09
-7.60876e-08
-1.71609e-10
1.98536e-09
-7.77671e-08
2.82295e-09
-7.89454e-08
3.63708e-09
-7.9626e-08
4.44271e-09
-7.98108e-08
5.25336e-09
-7.95004e-08
6.08186e-09
-7.86947e-08
6.94083e-09
-7.73928e-08
7.84374e-09
-7.55939e-08
-7.32981e-08
8.80577e-09
6.82657e-09
-7.67419e-08
-6.17226e-09
7.45771e-09
-7.83983e-08
8.08384e-09
-7.95716e-08
8.72137e-09
-8.02636e-08
9.38498e-09
-8.04745e-08
1.00879e-08
-8.02034e-08
1.08419e-08
-7.94489e-08
1.16585e-08
-7.82096e-08
1.25488e-08
-7.64845e-08
-7.4274e-08
1.35246e-08
1.30866e-08
-7.71062e-08
-1.27223e-08
1.34668e-08
-7.87785e-08
1.38812e-08
-7.99861e-08
1.43465e-08
-8.0729e-08
1.48772e-08
-8.10053e-08
1.54855e-08
-8.08117e-08
1.61815e-08
-8.01449e-08
1.69736e-08
-7.90016e-08
1.78689e-08
-7.73799e-08
-7.52794e-08
1.88741e-08
1.96887e-08
-7.71851e-08
-1.96098e-08
1.98198e-08
-7.89098e-08
2.00248e-08
-8.01912e-08
2.03227e-08
-8.10269e-08
2.07289e-08
-8.14115e-08
2.12548e-08
-8.13376e-08
2.1908e-08
-8.07979e-08
2.26931e-08
-7.97863e-08
2.3612e-08
-7.82987e-08
-7.63329e-08
2.46653e-08
2.64466e-08
-7.69863e-08
-2.66455e-08
2.63296e-08
-7.87926e-08
2.6325e-08
-8.01866e-08
2.64586e-08
-8.11605e-08
2.67486e-08
-8.17015e-08
2.72057e-08
-8.17948e-08
2.7834e-08
-8.14263e-08
2.86325e-08
-8.05849e-08
2.95967e-08
-7.92628e-08
-7.74559e-08
3.07196e-08
3.32022e-08
-7.65034e-08
-3.36851e-08
3.28231e-08
-7.84134e-08
3.25989e-08
-7.99624e-08
3.25679e-08
-8.11294e-08
3.27528e-08
-8.18862e-08
3.31619e-08
-8.22039e-08
3.37926e-08
-8.20573e-08
3.46348e-08
-8.14272e-08
3.5674e-08
-8.03019e-08
-7.86752e-08
3.68935e-08
3.98238e-08
-7.56907e-08
-4.06365e-08
3.91368e-08
-7.77264e-08
3.86662e-08
-7.94918e-08
3.84702e-08
-8.09333e-08
3.85735e-08
-8.19895e-08
3.89751e-08
-8.26055e-08
3.96575e-08
-8.27397e-08
4.05936e-08
-8.23638e-08
4.17534e-08
-8.1462e-08
-8.00286e-08
4.31067e-08
4.62007e-08
-7.44232e-08
-4.74682e-08
4.51032e-08
-7.66289e-08
4.43402e-08
-7.87286e-08
4.39938e-08
-8.05868e-08
4.40747e-08
-8.20703e-08
4.4552e-08
-8.30826e-08
4.53751e-08
-8.35627e-08
4.64882e-08
-8.34768e-08
4.78373e-08
-8.28113e-08
-8.15662e-08
4.93748e-08
5.21942e-08
-7.24752e-08
-5.41427e-08
5.05169e-08
-7.49515e-08
4.94226e-08
-7.76329e-08
4.90051e-08
-8.01689e-08
4.92071e-08
-8.22723e-08
4.99198e-08
-8.37953e-08
5.10308e-08
-8.46737e-08
5.24403e-08
-8.48864e-08
5.40657e-08
-8.44367e-08
-8.33424e-08
5.58418e-08
5.75421e-08
-6.93862e-08
-6.06301e-08
5.50395e-08
-7.24266e-08
5.37554e-08
-7.62872e-08
5.35456e-08
-7.99499e-08
5.4168e-08
-8.28945e-08
5.53733e-08
-8.50004e-08
5.69646e-08
-8.62649e-08
5.87972e-08
-8.6719e-08
6.07681e-08
-8.64076e-08
-8.53799e-08
6.28055e-08
5.28829e-08
-2.76698e-08
-6.17217e-08
5.50394e-08
-4.27312e-08
5.75933e-08
-7.18185e-08
5.82429e-08
-8.05035e-08
5.97316e-08
-8.43509e-08
6.16968e-08
-8.69639e-08
6.38955e-08
-8.84635e-08
6.61808e-08
-8.90043e-08
6.84628e-08
-8.86896e-08
-8.76043e-08
7.06871e-08
2.36101e-08
-1.90922e-08
-3.14915e-08
4.2189e-08
-2.10837e-08
6.34953e-08
-3.77488e-08
6.55703e-08
-7.49165e-08
6.78672e-08
-8.65257e-08
7.03882e-08
-8.94812e-08
7.29346e-08
-9.10098e-08
7.54008e-08
-9.14705e-08
7.77309e-08
-9.10198e-08
-8.97705e-08
7.98971e-08
2.10644e-08
-2.00064e-08
-1.94302e-08
2.25686e-08
-2.1885e-08
4.5937e-08
-2.5691e-08
7.56351e-08
-7.1437e-08
7.87479e-08
-8.95953e-08
8.15835e-08
-9.23168e-08
8.41558e-08
-9.35822e-08
8.64714e-08
-9.37862e-08
8.85374e-08
-9.30859e-08
-9.15971e-08
9.0364e-08
2.20271e-08
-2.13167e-08
-2.003e-08
2.47841e-08
-2.39289e-08
4.72633e-08
-3.31812e-08
8.83573e-08
-8.64346e-08
9.18998e-08
-9.31406e-08
9.46115e-08
-9.50291e-08
9.68428e-08
-9.58134e-08
9.87021e-08
-9.56455e-08
1.00249e-07
-9.46328e-08
-9.28705e-08
1.01522e-07
3.04102e-08
-2.86578e-08
-2.2259e-08
4.82569e-08
-4.13232e-08
9.45091e-08
-8.46492e-08
1.02447e-07
-9.39694e-08
1.05463e-07
-9.61608e-08
1.07724e-07
-9.729e-08
1.09449e-07
-9.7538e-08
1.10758e-07
-9.6955e-08
1.11731e-07
-9.56053e-08
-9.3555e-08
1.12415e-07
7.25325e-08
-7.65517e-08
-4.26558e-08
9.99981e-08
-9.18976e-08
1.10994e-07
-9.56495e-08
1.14531e-07
-9.75067e-08
1.17086e-07
-9.87163e-08
1.18978e-07
-9.91815e-08
1.20337e-07
-9.88969e-08
1.21262e-07
-9.78803e-08
1.21822e-07
-9.61652e-08
-9.37954e-08
1.22062e-07
1.09183e-07
-9.65703e-08
-9.74722e-08
1.15513e-07
-9.82281e-08
1.1955e-07
-9.96865e-08
1.22786e-07
-1.00742e-07
1.25282e-07
-1.01212e-07
1.27147e-07
-1.01047e-07
1.28467e-07
-1.00218e-07
1.29311e-07
-9.87238e-08
1.2973e-07
-9.65839e-08
-9.38299e-08
1.29764e-07
1.12822e-07
-1.02723e-07
-1.06669e-07
1.18211e-07
-1.03617e-07
1.22767e-07
-1.04243e-07
1.26493e-07
-1.04468e-07
1.29466e-07
-1.04185e-07
1.31752e-07
-1.03332e-07
1.33412e-07
-1.01878e-07
1.34502e-07
-9.98135e-08
1.35067e-07
-9.71495e-08
-9.39107e-08
1.35148e-07
1.11718e-07
-1.09208e-07
-1.05233e-07
1.1753e-07
-1.09429e-07
1.22598e-07
-1.09311e-07
1.26901e-07
-1.08771e-07
1.30457e-07
-1.07741e-07
1.33297e-07
-1.06172e-07
1.35456e-07
-1.04036e-07
1.36966e-07
-1.01323e-07
1.37858e-07
-9.80417e-08
-9.42143e-08
1.38161e-07
1.08346e-07
-1.15772e-07
-1.01781e-07
1.14377e-07
-1.1546e-07
1.19801e-07
-1.14735e-07
1.24572e-07
-1.13542e-07
1.28667e-07
-1.11836e-07
1.32074e-07
-1.0958e-07
1.3479e-07
-1.06752e-07
1.36814e-07
-1.03348e-07
1.3815e-07
-9.93775e-08
-9.48674e-08
1.38803e-07
1.02168e-07
-1.22376e-07
-9.55647e-08
1.08381e-07
-1.21673e-07
1.1413e-07
-1.20483e-07
1.19349e-07
-1.18762e-07
1.23988e-07
-1.16475e-07
1.27999e-07
-1.13591e-07
1.3134e-07
-1.10093e-07
1.33974e-07
-1.05982e-07
1.3587e-07
-1.01273e-07
-9.59923e-08
1.36998e-07
9.25804e-08
-1.29051e-07
-8.59053e-08
9.89998e-08
-1.28093e-07
1.05092e-07
-1.26575e-07
1.10787e-07
-1.24457e-07
1.16014e-07
-1.21702e-07
1.20698e-07
-1.18274e-07
1.24738e-07
-1.14092e-07
1.28095e-07
-1.09021e-07
1.30761e-07
-1.03807e-07
-9.77638e-08
1.32541e-07
7.90058e-08
-1.3578e-07
-7.22759e-08
8.56209e-08
-1.34707e-07
9.20569e-08
-1.33011e-07
9.82437e-08
-1.30644e-07
1.04093e-07
-1.27552e-07
1.09391e-07
-1.23517e-07
1.1421e-07
-1.18704e-07
1.18451e-07
-1.13293e-07
1.22379e-07
-1.07209e-07
-1.00413e-07
1.25039e-07
6.08823e-08
-1.42481e-07
-5.41764e-08
6.76226e-08
-1.41446e-07
7.43446e-08
-1.39733e-07
8.09872e-08
-1.37286e-07
8.72968e-08
-1.33783e-07
9.34725e-08
-1.2957e-07
9.93605e-08
-1.24622e-07
1.04788e-07
-1.18749e-07
1.09866e-07
-1.12037e-07
-1.04287e-07
1.13789e-07
3.77591e-08
-1.49009e-07
-3.12312e-08
4.44691e-08
-1.48155e-07
5.13224e-08
-1.46586e-07
5.82449e-08
-1.44209e-07
6.51089e-08
-1.40682e-07
7.20479e-08
-1.36537e-07
7.90312e-08
-1.31632e-07
8.58282e-08
-1.25676e-07
9.21567e-08
-1.18444e-07
-1.09751e-07
9.76207e-08
9.41342e-09
-1.55144e-07
-3.27834e-09
1.58516e-08
-1.54594e-07
2.257e-08
-1.53304e-07
2.94975e-08
-1.51195e-07
3.66237e-08
-1.48082e-07
4.42632e-08
-1.44207e-07
5.20172e-08
-1.39664e-07
5.98733e-08
-1.33655e-07
6.7648e-08
-1.26219e-07
-1.17161e-07
7.50585e-08
-2.40567e-08
-1.60647e-07
2.95535e-08
-1.81761e-08
-1.60475e-07
-1.19366e-08
-1.59543e-07
-5.33861e-09
-1.57823e-07
1.6518e-09
-1.55291e-07
9.12882e-09
-1.51986e-07
1.72092e-08
-1.47745e-07
2.58744e-08
-1.4232e-07
3.49797e-08
-1.35324e-07
-1.26433e-07
4.42518e-08
-6.21925e-08
-1.65298e-07
6.6844e-08
-5.71176e-08
-1.65549e-07
-5.16804e-08
-1.64981e-07
-4.59071e-08
-1.63596e-07
-3.97149e-08
-1.61476e-07
-3.28416e-08
-1.588e-07
-2.48891e-08
-1.55698e-07
-1.56568e-08
-1.51553e-07
-5.25194e-09
-1.45729e-07
-1.3779e-07
6.10471e-09
-1.04363e-07
-1.68942e-07
1.08007e-07
-1.0026e-07
-1.69649e-07
-9.58504e-08
-1.69377e-07
-9.12526e-08
-1.68157e-07
-8.6368e-08
-1.66204e-07
-8.10254e-08
-1.64019e-07
-7.43486e-08
-1.62356e-07
-6.5602e-08
-1.60304e-07
-5.51432e-08
-1.56188e-07
-1.49636e-07
-4.32971e-08
-1.50096e-07
-1.71345e-07
1.52501e-07
-1.47147e-07
-1.7257e-07
-1.43893e-07
-1.72297e-07
-1.40497e-07
-1.69391e-07
-1.26467e-07
-1.4656e-07
-1.15332e-07
-1.20717e-07
-1.22049e-07
-1.3058e-07
-1.2064e-07
-1.63547e-07
-1.11189e-07
-1.6564e-07
-1.61107e-07
-9.97176e-08
-1.99174e-07
-1.71907e-07
1.9974e-07
-1.97998e-07
-1.73703e-07
-1.96434e-07
-1.73133e-07
-1.77294e-07
-1.48956e-07
-1.38619e-07
-1.23905e-07
-1.36046e-07
-1.23309e-07
-1.42362e-07
-1.24334e-07
-1.71533e-07
-1.35647e-07
-1.71705e-07
-1.65483e-07
-1.69284e-07
-1.63527e-07
-2.48435e-07
-1.70413e-07
2.46941e-07
-2.49095e-07
-1.73053e-07
-2.45455e-07
-1.73558e-07
-1.7922e-07
-1.50587e-07
-1.76171e-07
-1.26973e-07
-1.73306e-07
-1.2623e-07
-1.71665e-07
-1.25995e-07
-1.79707e-07
-1.27934e-07
-2.22031e-07
-1.38975e-07
-1.69349e-07
-2.21971e-07
-2.93317e-07
-1.6714e-07
2.90043e-07
-2.95404e-07
-1.70976e-07
-2.95348e-07
-1.73701e-07
-2.51963e-07
-1.72721e-07
-2.19739e-07
-1.5457e-07
-2.07664e-07
-1.38385e-07
-2.0409e-07
-1.29919e-07
-2.01895e-07
-1.30539e-07
-2.06669e-07
-1.34707e-07
-1.43287e-07
-2.53366e-07
-3.29754e-07
-1.62623e-07
3.25237e-07
-3.32871e-07
-1.67859e-07
-3.34175e-07
-1.72398e-07
-3.30609e-07
-1.76288e-07
-3.12391e-07
-1.79643e-07
-2.82997e-07
-1.81252e-07
-2.45856e-07
-1.73935e-07
-2.23691e-07
-1.53217e-07
-2.11043e-07
-1.48466e-07
-1.4004e-07
-2.22206e-07
-3.55195e-07
-1.57467e-07
3.50038e-07
-3.58621e-07
-1.64432e-07
-3.59989e-07
-1.7103e-07
-3.58979e-07
-1.77297e-07
-3.55313e-07
-1.83309e-07
-3.47377e-07
-1.89189e-07
-3.26433e-07
-1.9488e-07
-2.97909e-07
-2.00375e-07
-2.5883e-07
-2.05157e-07
-2.07213e-07
-2.42946e-07
-3.70096e-07
-1.51434e-07
3.64063e-07
-3.74099e-07
-1.60429e-07
-3.75687e-07
-1.69443e-07
-3.74503e-07
-1.78482e-07
-3.7028e-07
-1.87532e-07
-3.62947e-07
-1.96522e-07
-3.52519e-07
-2.05308e-07
-3.39236e-07
-2.13659e-07
-3.23262e-07
-2.21131e-07
-2.27078e-07
-3.03397e-07
-3.74685e-07
-1.43407e-07
3.66658e-07
-3.80656e-07
-1.54459e-07
-3.84055e-07
-1.66044e-07
-3.84366e-07
-1.78171e-07
-3.8115e-07
-1.90748e-07
-3.74123e-07
-2.03549e-07
-3.63197e-07
-2.16235e-07
-3.48494e-07
-2.28362e-07
-3.3022e-07
-2.39405e-07
-2.48831e-07
-3.08467e-07
-3.664e-07
-1.32007e-07
3.55e-07
-3.76089e-07
-1.4477e-07
-3.83322e-07
-1.5881e-07
-3.8726e-07
-1.74235e-07
-3.87102e-07
-1.90907e-07
-3.8222e-07
-2.08433e-07
-3.72239e-07
-2.26216e-07
-3.57073e-07
-2.43528e-07
-3.36887e-07
-2.59591e-07
-2.73691e-07
-3.12027e-07
-3.40451e-07
-1.15926e-07
3.24385e-07
-3.55724e-07
-1.29497e-07
-3.69094e-07
-1.45446e-07
-3.79136e-07
-1.642e-07
-3.84443e-07
-1.85604e-07
-3.83798e-07
-2.0908e-07
-3.76406e-07
-2.3361e-07
-3.61942e-07
-2.57992e-07
-3.4059e-07
-2.80943e-07
-3.0132e-07
-3.12962e-07
-2.89027e-07
-9.46376e-08
2.6806e-07
-3.1146e-07
-1.06861e-07
-3.34068e-07
-1.22817e-07
-3.53988e-07
-1.44284e-07
-3.68012e-07
-1.71583e-07
-3.74103e-07
-2.02999e-07
-3.7111e-07
-2.36613e-07
-3.58523e-07
-2.7058e-07
-3.36562e-07
-3.02904e-07
-3.31657e-07
-3.06224e-07
-1.89419e-07
-6.19997e-08
1.74117e-07
-2.05319e-07
-5.31882e-08
-2.33949e-07
-4.74522e-08
-2.77962e-07
-5.72244e-08
-3.20774e-07
-1.03251e-07
-3.45982e-07
-1.65708e-07
-3.50852e-07
-2.31845e-07
-3.41187e-07
-2.80203e-07
-3.18556e-07
-3.25508e-07
-3.65236e-07
-2.84969e-07
-3.42505e-08
-1.06976e-08
3.19386e-08
-3.05231e-08
-1.55517e-09
-2.8916e-08
-1.94022e-10
-3.50919e-08
-2.89622e-10
-6.19093e-08
-8.832e-10
-1.35637e-07
-4.99221e-09
-2.4523e-07
-4.30016e-08
-2.92317e-07
-1.98536e-07
-2.76622e-07
-3.40803e-07
-4.02027e-07
-2.39815e-07
1.57447e-09
-1.70395e-10
-1.46655e-09
3.38115e-11
1.71836e-11
-1.78133e-10
8.6098e-11
-3.99858e-10
-1.99325e-11
-9.05251e-10
-3.06421e-10
-5.27733e-09
-6.07689e-10
-1.83475e-08
-1.39079e-09
-9.19247e-08
-1.22374e-08
-1.70957e-07
-1.28811e-07
-4.00834e-07
-1.5304e-07
1.18119e-09
5.91275e-11
-1.36619e-09
1.01056e-09
2.51383e-10
7.85482e-10
3.59138e-10
4.43877e-10
3.19569e-10
6.364e-12
1.81923e-10
-3.84442e-10
-1.35877e-10
-9.43391e-10
-7.98761e-10
-1.14228e-08
-1.72097e-09
-2.27237e-08
-2.77051e-09
-2.21599e-07
-2.8841e-08
1.35268e-09
3.81072e-10
-1.60473e-09
1.11716e-09
5.39556e-10
8.86948e-10
5.85397e-10
7.17895e-10
5.2969e-10
5.32901e-10
3.64112e-10
3.03507e-10
1.53772e-10
-2.75156e-11
-4.07864e-10
-1.88224e-10
-1.53714e-09
3.484e-10
-3.26898e-09
-1.00072e-07
7.45416e-08
1.52633e-09
8.88435e-10
-2.01999e-09
1.21314e-09
9.3077e-10
6.58975e-09
3.83756e-09
4.28276e-09
7.96791e-09
1.78308e-10
2.03066e-09
2.14471e-10
3.99224e-10
5.24767e-10
-5.09488e-10
7.1281e-10
-1.68701e-09
3.40236e-09
-5.83602e-09
-9.06866e-08
1.3733e-07
1.76586e-09
1.64466e-09
-2.53522e-09
1.32591e-09
1.38883e-09
8.02507e-09
5.90078e-09
1.024e-08
7.52106e-09
9.78678e-09
4.14049e-09
2.58962e-09
-4.88116e-10
1.35466e-09
-1.11646e-09
2.53733e-09
-2.74651e-09
1.55332e-08
-1.86235e-08
-1.82081e-07
2.44675e-07
1.87334e-09
3.61208e-09
-3.85342e-09
1.52229e-09
1.72668e-09
7.54809e-09
1.10283e-09
1.24399e-08
4.73889e-09
1.47396e-08
3.51379e-09
4.14594e-09
-4.91269e-10
2.23727e-09
-1.78364e-09
8.14017e-09
-8.45347e-09
7.68367e-08
-8.67644e-08
-4.57207e-07
5.36663e-07
1.53076e-09
1.70164e-08
-1.61746e-10
1.12557e-09
9.49829e-09
7.23693e-10
1.57563e-09
2.53922e-09
2.13769e-10
2.58936e-09
3.42021e-11
2.49734e-09
-1.24492e-09
6.2184e-09
-6.34645e-09
3.61573e-08
-3.78921e-08
3.19695e-07
-2.53881e-07
-7.27404e-07
6.99837e-07
-1.72895e-08
1.6529e-08
1.50998e-08
-1.30221e-09
9.84501e-09
-6.72372e-11
2.50404e-10
1.82117e-09
-1.78942e-09
3.21509e-09
-1.81304e-09
5.28352e-09
-4.12925e-09
2.25242e-08
-2.43867e-08
2.08719e-07
-2.13558e-07
7.13434e-07
-7.01853e-07
-8.01961e-07
7.88734e-07
-1.49091e-08
1.16336e-08
3.10657e-08
-5.2671e-09
1.2416e-09
-2.88335e-09
-3.42804e-09
6.02871e-09
-5.61779e-08
8.04085e-09
-4.72327e-09
2.19995e-08
-1.89377e-08
1.81491e-07
-1.85455e-07
6.94521e-07
-6.78481e-07
7.98555e-07
-8.05475e-07
-8.36787e-07
8.33379e-07
-2.61437e-09
8.21308e-10
1.31432e-08
8.11819e-09
-8.60074e-09
8.84984e-08
-1.12472e-07
8.01643e-08
-1.92719e-07
4.006e-08
-3.37977e-08
1.55498e-07
-1.35935e-07
6.37827e-07
-6.15872e-07
7.73884e-07
-8.07078e-07
8.18242e-07
-8.50008e-07
-8.72311e-07
8.53722e-07
9.90805e-09
-1.04431e-08
3.76218e-10
1.13461e-07
-1.23107e-07
2.16207e-07
-2.20515e-07
2.28619e-07
-2.14167e-07
2.72724e-07
-1.4187e-07
5.58084e-07
-4.79388e-07
7.33972e-07
-7.9832e-07
7.89899e-07
-8.63512e-07
8.34466e-07
-8.94654e-07
-9.11512e-07
8.73596e-07
1.29116e-07
-1.31989e-07
-1.03155e-08
2.42871e-07
-2.47584e-07
2.55534e-07
-2.40503e-07
3.1707e-07
-2.52214e-07
4.70961e-07
-2.85926e-07
7.08857e-07
-7.28652e-07
7.73613e-07
-8.63409e-07
8.19603e-07
-9.09718e-07
8.59664e-07
-9.34781e-07
-9.45109e-07
8.93237e-07
2.69556e-07
-2.69014e-07
-1.35155e-07
2.63807e-07
-2.43593e-07
2.19811e-07
-1.63585e-07
2.51888e-07
-2.67087e-07
5.94694e-07
-6.05332e-07
7.27009e-07
-8.58176e-07
7.82006e-07
-9.18813e-07
8.24575e-07
-9.52363e-07
8.59479e-07
-9.69706e-07
-9.71823e-07
8.86188e-07
2.76432e-07
-2.67706e-07
-2.77323e-07
1.64981e-07
-1.20948e-07
1.63559e-07
-1.36738e-07
4.14183e-07
-5.00793e-07
6.47645e-07
-8.4731e-07
7.12702e-07
-9.23417e-07
7.58022e-07
-9.64231e-07
7.9505e-07
-9.89393e-07
8.24148e-07
-9.98805e-07
-9.92219e-07
8.44543e-07
1.30429e-07
-1.32954e-07
-2.65071e-07
9.18731e-08
-5.93291e-08
2.31022e-07
-2.49081e-07
5.44207e-07
-8.08718e-07
6.16444e-07
-9.19601e-07
6.6327e-07
-9.70386e-07
7.02622e-07
-1.00359e-06
7.34314e-07
-1.02109e-06
7.575e-07
-1.02199e-06
-1.00667e-06
7.71949e-07
3.52144e-08
-2.85364e-08
-1.40756e-07
5.50704e-08
-7.38811e-08
4.12971e-07
-5.60451e-07
5.11991e-07
-9.05445e-07
5.6131e-07
-9.68899e-07
6.01123e-07
-1.0102e-06
6.33636e-07
-1.0361e-06
6.57874e-07
-1.04532e-06
6.73507e-07
-1.03762e-06
-1.01413e-06
6.80966e-07
2.77906e-08
-2.98477e-08
-2.9892e-08
1.37238e-07
-1.72672e-07
4.25421e-07
-8.25645e-07
4.71446e-07
-9.5152e-07
5.06782e-07
-1.00423e-06
5.37356e-07
-1.04077e-06
5.61472e-07
-1.06022e-06
5.77887e-07
-1.06174e-06
5.86554e-07
-1.04629e-06
-1.01572e-06
5.8815e-07
2.35651e-08
-4.59091e-08
-7.69752e-09
2.82742e-07
-4.60555e-07
3.73289e-07
-9.19685e-07
4.11368e-07
-9.89684e-07
4.43982e-07
-1.03684e-06
4.70905e-07
-1.0677e-06
4.90556e-07
-1.07987e-06
5.02547e-07
-1.07373e-06
5.07525e-07
-1.05127e-06
-1.01471e-06
5.06516e-07
8.05633e-08
-1.11009e-07
-1.39455e-08
3.00524e-07
-7.71428e-07
3.33531e-07
-9.53185e-07
3.61256e-07
-1.01746e-06
3.88655e-07
-1.06425e-06
4.11695e-07
-1.09074e-06
4.28176e-07
-1.09635e-06
4.37873e-07
-1.08343e-06
4.41739e-07
-1.05514e-06
-1.01404e-06
4.41067e-07
1.49246e-07
-4.57154e-07
-4.20367e-09
2.31993e-07
-8.99272e-07
2.6552e-07
-9.86848e-07
2.99171e-07
-1.05112e-06
3.29847e-07
-1.09492e-06
3.54215e-07
-1.1151e-06
3.71208e-07
-1.11334e-06
3.81417e-07
-1.09363e-06
3.86394e-07
-1.06011e-06
-1.01591e-06
3.88267e-07
1.36523e-07
-6.64523e-07
-3.18524e-09
1.7763e-07
-9.40475e-07
2.14995e-07
-1.02423e-06
2.50726e-07
-1.08685e-06
2.81392e-07
-1.12559e-06
3.05092e-07
-1.1388e-06
3.21451e-07
-1.1297e-06
3.31043e-07
-1.10323e-06
3.34888e-07
-1.06396e-06
-1.01529e-06
3.34267e-07
1.06283e-07
-7.29988e-07
-6.42362e-09
1.45869e-07
-9.80154e-07
1.81193e-07
-1.05955e-06
2.13611e-07
-1.11927e-06
2.41441e-07
-1.15342e-06
2.633e-07
-1.16066e-06
2.78915e-07
-1.14531e-06
2.88624e-07
-1.11294e-06
2.92743e-07
-1.06808e-06
-1.0137e-06
2.9115e-07
9.23979e-08
-7.67855e-07
-1.40475e-08
1.26139e-07
-1.01397e-06
1.55668e-07
-1.08908e-06
1.83164e-07
-1.14676e-06
2.07509e-07
-1.17776e-06
2.27377e-07
-1.18053e-06
2.42687e-07
-1.16062e-06
2.53866e-07
-1.12412e-06
2.60936e-07
-1.07515e-06
-1.01557e-06
2.62803e-07
9.28001e-08
-8.20353e-07
-2.29445e-08
1.14686e-07
-1.03585e-06
1.35454e-07
-1.10985e-06
1.5666e-07
-1.16797e-06
1.76586e-07
-1.19769e-06
1.93642e-07
-1.19759e-06
2.08177e-07
-1.17516e-06
2.21313e-07
-1.13725e-06
2.33952e-07
-1.08779e-06
-1.02734e-06
2.45727e-07
8.87334e-08
-8.84477e-07
-2.99433e-08
9.96784e-08
-1.0468e-06
1.12962e-07
-1.12313e-06
1.28463e-07
-1.18347e-06
1.43383e-07
-1.21261e-06
1.55574e-07
-1.20978e-06
1.65536e-07
-1.18512e-06
1.7462e-07
-1.14634e-06
1.83972e-07
-1.09714e-06
-1.03368e-06
1.90307e-07
6.67093e-08
-9.35737e-07
-2.50902e-08
7.55907e-08
-1.05568e-06
8.63398e-08
-1.13388e-06
9.85832e-08
-1.19571e-06
1.09527e-07
-1.22355e-06
1.16872e-07
-1.21712e-06
1.21259e-07
-1.18951e-06
1.23887e-07
-1.14897e-06
1.25572e-07
-1.09882e-06
-1.02109e-06
1.12983e-07
4.04104e-08
-9.69484e-07
-1.60891e-08
4.96275e-08
-1.0649e-06
6.00001e-08
-1.14425e-06
7.05766e-08
-1.20629e-06
7.90705e-08
-1.23205e-06
8.36317e-08
-1.22168e-06
8.50446e-08
-1.19092e-06
8.42013e-08
-1.14812e-06
8.16853e-08
-1.09631e-06
-9.84018e-07
5.5711e-08
1.40956e-08
-9.8502e-07
-2.88205e-09
2.49831e-08
-1.07578e-06
3.6164e-08
-1.15543e-06
4.59384e-08
-1.21606e-06
5.29565e-08
-1.23907e-06
5.69301e-08
-1.22566e-06
5.85967e-08
-1.19259e-06
5.84068e-08
-1.14793e-06
5.67326e-08
-1.09463e-06
-9.58796e-07
3.38331e-08
-1.00499e-08
-9.9558e-07
2.06104e-08
3.03886e-09
-1.08887e-06
1.54629e-08
-1.16786e-06
2.45053e-08
-1.22511e-06
2.97955e-08
-1.24436e-06
3.4066e-08
-1.22993e-06
3.74071e-08
-1.19593e-06
3.94087e-08
-1.14993e-06
3.99261e-08
-1.09515e-06
-9.45339e-07
2.35888e-08
-2.9858e-08
-1.00642e-06
4.06993e-08
-1.50418e-08
-1.10369e-06
-1.57315e-09
-1.18133e-06
6.33152e-09
-1.23301e-06
9.04697e-09
-1.24707e-06
1.35198e-08
-1.2344e-06
1.88596e-08
-1.20127e-06
2.3187e-08
-1.15426e-06
2.54207e-08
-1.09738e-06
-9.40175e-07
1.46513e-08
-4.55677e-08
-1.01167e-06
5.08176e-08
-2.92504e-08
-1.12001e-06
-1.50072e-08
-1.19557e-06
-8.61877e-09
-1.2394e-06
-8.78671e-09
-1.2469e-06
-4.78022e-09
-1.23841e-06
2.71553e-09
-1.20876e-06
9.68484e-09
-1.16123e-06
1.38392e-08
-1.10154e-06
-9.40341e-07
7.65141e-09
-5.88207e-08
-1.02094e-06
5.58046e-08
-4.07726e-08
-1.13805e-06
-2.58014e-08
-1.21054e-06
-2.08441e-08
-1.24436e-06
-2.26774e-08
-1.24507e-06
-1.97771e-08
-1.24131e-06
-9.90663e-09
-1.21863e-06
6.41487e-10
-1.17178e-06
8.48905e-09
-1.10939e-06
-9.464e-07
6.33043e-09
-7.06964e-08
-1.02111e-06
6.11031e-08
-5.09829e-08
-1.15777e-06
-3.4127e-08
-1.22739e-06
-2.93283e-08
-1.24915e-06
-3.06809e-08
-1.24372e-06
-2.93345e-08
-1.24265e-06
-1.77229e-08
-1.23024e-06
-2.43887e-09
-1.18706e-06
1.11328e-08
-1.12296e-06
-9.57628e-07
1.23612e-08
-7.70577e-08
-1.02945e-06
7.6164e-08
-5.17846e-08
-1.18304e-06
-3.35029e-08
-1.24568e-06
-3.00997e-08
-1.25256e-06
-3.13167e-08
-1.2425e-06
-3.21589e-08
-1.24181e-06
-2.18234e-08
-1.24058e-06
-1.85892e-09
-1.20703e-06
1.72114e-08
-1.14203e-06
-9.72944e-07
2.1228e-08
-5.21043e-08
-1.03032e-06
4.10194e-08
-3.85006e-08
-1.19664e-06
-2.60769e-08
-1.2581e-06
-2.61003e-08
-1.25253e-06
-2.72262e-08
-1.24137e-06
-2.87446e-08
-1.24029e-06
-2.27043e-08
-1.24662e-06
4.67375e-10
-1.2302e-06
2.22673e-08
-1.16383e-06
-9.87763e-07
2.60934e-08
-5.37327e-08
-1.02992e-06
4.2889e-08
-3.44435e-08
-1.21593e-06
-2.11225e-08
-1.27142e-06
-2.10715e-08
-1.25258e-06
-2.10397e-08
-1.2414e-06
-2.1496e-08
-1.23984e-06
-1.9696e-08
-1.24842e-06
4.31888e-09
-1.25421e-06
3.04719e-08
-1.18998e-06
-9.95702e-07
2.68068e-08
-3.66169e-08
-1.01388e-06
1.08046e-08
-1.73402e-08
-1.23521e-06
-9.06366e-09
-1.2797e-06
-1.21405e-08
-1.24951e-06
-1.39459e-08
-1.2396e-06
-1.55819e-08