/*--------------------------------*- C++ -*----------------------------------*\
  =========                 |
  \\      /  F ield         | OpenFOAM: The Open Source CFD Toolbox
   \\    /   O peration     | Website:  https://openfoam.org
    \\  /    A nd           | Version:  8
     \\/     M anipulation  |
\*---------------------------------------------------------------------------*/
FoamFile
{
    version     2.0;
    format      ascii;
    class       volScalarField;
    location    "2.15";
    object      alpha.water;
}
// * * * * * * * * * * * * * * * * * * * * * * * * * * * * * * * * * * * * * //

dimensions      [0 0 0 0 0 0 0];

internalField   nonuniform List<scalar> 
9150
(
1
0.999999
0.999999
1
1
1
0.999999
0.999999
1
1
1
1
1
1
1
1
1
1
1
1
1
1
1
1
1
1
1
1
1
1
1
1
1
1
1
1
1
1
1
1
1
1
1
1
1
1
1
1
1
1
0.999998
0.999999
0.999999
0.999999
0.999999
0.999999
0.999999
0.999999
0.999999
0.999999
0.999998
1
1
0.999999
0.999999
0.999999
0.999999
0.999999
0.999999
0.999999
1
1
0.999999
0.999999
0.999999
0.999999
0.999999
0.999999
0.999999
0.999999
1
0.999999
0.999999
0.999999
0.999999
0.999999
0.999999
0.999999
0.999999
0.999999
1
0.999999
0.999999
0.999999
0.999999
0.999999
0.999999
0.999999
0.999999
0.999999
0.999999
0.999998
0.999999
0.999999
0.999999
0.999999
0.999999
0.999999
0.999999
0.999999
0.999999
0.999998
0.999998
0.999999
0.999999
0.999999
0.999999
0.999999
0.999999
0.999999
0.999998
0.999998
0.999998
0.999998
0.999999
0.999999
0.999999
0.999999
0.999999
0.999999
0.999998
0.999998
0.999998
0.999999
0.999999
0.999999
0.999999
0.999999
0.999999
0.999999
0.999998
0.999998
0.999999
0.999999
0.999999
0.999999
0.999999
0.999999
0.999999
0.999999
1
1
0.999999
0.999999
0.999999
0.999999
0.999999
0.999999
0.999999
0.999999
0.999998
0.999998
0.999998
0.999998
0.999998
0.999999
1
1
0.999999
0.999999
0.999999
0.999999
1
0.999999
0.999999
0.999999
1
1
1
1
1
1
1
0.999999
0.999999
0.999999
1
1
1
0.999999
1
1
0.999999
0.999999
0.999999
0.999999
0.999999
0.999999
0.999999
0.999998
1
1
1
1
1
1
0.999999
0.999998
0.999998
0.999998
0.999999
1
1
1
1
1
0.999998
0.999998
0.999999
0.999999
1
1
1
1
1
1
1
1
1
1
1
1
1
1
1
1
1
1
1
1
1
1
1
1
1
1
1
1
1
1
1
0.999999
1
1
1
1
1
1
1
1
1
0.999999
1
1
1
1
1
1
1
1
1
1
1
1
1
1
1
1
1
1
1
1
0.999999
1
1
1
1
1
1
1
0.999999
0.999997
0.999999
1
1
1
1
1
1
1
0.999997
0.999997
0.999999
1
1
1
1
1
1
1
0.999997
0.999997
0.999999
1
1
1
0.999999
0.999999
1
1
0.999999
1
0.999999
1
1
0.999999
0.999996
0.999995
0.999998
1
1
1
0.999999
0.999999
1
1
0.999996
0.999995
0.999995
0.999998
1
1
0.999999
1
1
1
1
0.999996
0.999995
0.999995
1
1
1
1
1
1
1
1
0.999996
0.999995
1
1
1
1
1
1
1
1
0.999999
0.999995
1
1
1
1
1
1
0.999998
0.999999
0.999999
0.999999
1
1
1
1
1
0.999999
0.999997
0.999997
0.999998
1
1
1
1
1
1
1
0.999998
0.999997
0.999997
0.999998
1
1
1
1
1
1
1
0.999999
0.999997
0.999997
1
1
1
1
1
1
1
1
1
0.999997
0.999998
0.999994
0.999992
0.999998
1
1
1
1
1
1
0.999937
0.999721
0.999742
0.99998
1
1
1
1
1
1
0.841878
0.882687
0.985742
0.999621
0.999905
0.999994
0.999999
1
1
1
0.309108
0.382098
0.739576
0.98155
0.999449
0.999977
0.999999
1
1
1
0.308936
0.309038
0.355323
0.873018
0.999306
0.999975
0.999999
1
1
1
0.308825
0.308902
0.309968
0.833854
0.999894
0.999997
1
1
1
1
0.308709
0.308957
0.656849
0.988329
0.999992
1
1
1
1
1
0.43994
0.756412
0.999994
1
1
1
1
1
1
1
0.997464
1
1
1
1
1
1
1
1
1
1
1
1
1
1
1
1
1
1
1
1
1
1
1
1
1
1
1
1
1
1
0.999999
0.999999
1
1
1
1
1
1
1
1
0.999999
0.999999
1
1
1
1
1
0.999999
0.999991
1
0.999999
1
1
1
1
0.999884
0.999499
0.999755
0.999954
0.999999
0.999998
1
1
1
0.999776
0.99787
0.99656
0.998213
0.999968
0.999977
0.999993
1
1
0.999667
0.997046
0.996559
0.996561
0.997455
0.999909
0.999965
0.99999
1
1
0.997221
0.996585
0.996563
0.996686
0.999245
0.999997
0.999965
0.999995
1
0.99975
0.997103
0.996598
0.99787
0.999942
0.999997
0.999997
0.999988
0.999999
0.999998
0.999748
0.999614
0.999602
0.999996
0.999997
0.999997
0.999997
1
0.999999
0.999993
0.999991
0.999981
0.999911
0.999991
0.999997
0.999997
0.999997
1
0.999994
0.999981
0.999954
0.999779
0.99971
0.999795
0.999987
0.999996
0.999997
0.999995
0.999939
0.999361
0.996875
0.956813
0.87358
0.890713
0.99688
0.999992
0.999996
0.999988
0.999859
0.998321
0.944926
0.754476
0.717599
0.717795
0.880764
0.999897
0.99999
0.999993
0.999932
0.998172
0.837543
0.717599
0.71737
0.717599
0.717673
0.919436
0.999872
0.999998
0.999975
0.999713
0.91578
0.718108
0.71719
0.71772
0.71708
0.717577
0.922374
1
1
0.999999
0.999997
0.974505
0.807581
0.722749
0.717671
0.722845
0.730714
1
1
1
1
0.999999
1
0.999999
0.925873
0.81869
0.816923
1
1
1
1
1
0.999999
0.999999
0.999999
0.999999
0.999999
0.999999
0.999999
0.999999
0.999999
0.999999
0.999999
0.999999
0.999999
0.999999
0.999999
0.999991
0.999992
0.999995
0.999997
0.999998
0.999998
0.999999
0.999999
0.999999
0.999999
0.999889
0.999913
0.999958
0.999984
0.999988
0.999991
0.999994
0.999997
0.999999
0.999999
0.998522
0.998632
0.999385
0.999752
0.999824
0.999876
0.999924
0.999967
0.999989
0.999996
0.961459
0.901517
0.86504
0.869327
0.945063
0.983433
0.999018
0.999546
0.99986
0.999964
0.48778
0.291503
0.17743
0.155157
0.284264
0.454394
0.712807
0.93493
0.998896
0.99972
0.0401918
0.00572896
0.00571966
0.00571207
0.0057193
0.00573438
0.00580863
0.308204
0.756234
0.981973
0.00572937
0.00572308
0.00571207
0.00571207
0.00571207
0.0057193
0.00573545
0.00575046
0.100513
0.657067
0.00572544
0.00571066
0.00571624
0.00571198
0.00571694
0.00571749
0.00572543
0.0057436
0.00575528
0.250039
0.00575268
0.00572549
0.0183562
0.0679007
0.0264722
0.0117122
0.00599222
0.00575528
0.00578877
0.127267
0.00577918
0.00575299
0.0435829
0.0831336
0.0834212
0.0672939
0.00921333
0.00578877
0.00607435
0.140694
0.00584452
0.005779
0.00586377
0.07669
0.0834031
0.0710345
0.0108255
0.00607477
0.00748245
0.449877
0.0443743
0.024415
0.00709756
0.0145157
0.0130312
0.00828749
0.00834488
0.00750661
0.0935187
0.793352
0.0770613
0.0429311
0.00751024
0.00750409
0.00784687
0.00819403
0.0084359
0.0200461
0.616375
0.99365
0.0484023
0.0114069
0.00787565
0.0361423
0.00818735
0.00834049
0.0134701
0.55825
0.992108
0.998662
0.0153559
0.0142303
0.153181
0.391539
0.0645864
0.0134939
0.470585
0.983207
0.998453
0.999718
0.0122573
0.0543353
0.45867
0.461104
0.22373
0.448605
0.946814
0.997918
0.999606
0.999926
0.0470015
0.51648
0.522674
0.389277
0.427594
0.842536
0.996384
0.99914
0.99986
0.99997
0.622279
0.628391
0.499641
0.345284
0.57636
0.961695
0.998425
0.999731
0.999952
0.999992
0.795073
0.588837
0.202505
0.344519
0.894738
0.998079
0.999706
0.999957
0.999993
0.999999
0.799322
0.132281
0.158126
0.843433
0.997988
0.999709
0.999956
0.999993
0.999999
1
0.181094
0.0780273
0.512396
0.988371
0.999538
0.999939
0.999992
0.999999
1
1
0.0511593
0.0586952
0.835448
0.998778
0.999871
0.999985
0.999998
1
1
1
0.043929
0.405933
0.976879
0.999661
0.999983
0.999997
1
1
1
1
0.0301443
0.752799
0.99916
0.999922
0.999995
1
1
1
1
1
0.301676
0.95735
0.999836
0.999992
0.999999
1
1
1
1
1
0.742364
0.999767
0.99998
0.999999
1
1
1
1
1
1
0.82704
0.999894
0.999993
1
1
1
0.999999
1
1
1
0.826865
0.999888
0.999995
0.999999
1
1
0.999999
1
1
1
0.828242
0.999905
0.999997
0.999999
1
1
0.999999
1
1
1
0.896604
0.999961
0.999999
1
1
0.999999
0.999999
1
1
1
0.947581
0.99999
1
1
1
0.999999
1
1
1
1
0.980768
0.999999
1
1
0.999999
0.999999
1
1
1
0.984479
0.996706
1
1
1
0.999999
0.999999
1
1
1
0.938883
1
1
1
1
0.999999
1
1
1
1
0.923239
1
1
1
1
1
1
1
1
1
0.914801
1
1
1
1
1
1
1
1
1
0.912282
0.990989
1
0.999999
1
1
1
1
1
1
0.915137
0.975922
1
0.999999
0.999999
1
1
0.999999
0.999999
1
0.919308
0.958385
1
0.999999
0.999998
1
0.999999
0.999998
0.999998
1
0.921066
0.93499
1
0.999999
0.999998
0.999998
0.999998
0.999998
0.999998
1
0.917201
0.924522
1
0.999999
0.999998
0.999998
0.999998
0.999998
0.999999
1
0.911228
0.912865
1
0.999999
0.999999
0.999998
0.999998
0.999999
0.999999
1
0.906142
0.921044
1
0.999999
0.999999
0.999998
0.999998
0.999999
1
1
0.913186
0.958076
1
0.999999
0.999999
0.999998
0.999998
0.999999
0.999999
1
0.954879
0.999999
1
1
1
0.999998
0.999997
0.999997
0.999997
0.999997
0.999997
0.999997
0.999999
1
1
1
1
1
1
1
1
1
1
1
1
1
1
1
1
1
1
1
1
1
1
1
1
1
1
1
0.95542
0.999999
1
1
1
0.999999
0.999998
0.999999
1
1
1
1
1
1
1
1
1
1
1
1
1
1
1
1
0.999999
1
1
0.999999
0.999996
0.999996
0.999998
1
1
1
1
1
1
0.999999
1
1
0.883877
1
1
1
0.999998
0.999998
0.999998
0.999998
1
1
1
1
1
1
1
1
1
1
1
1
1
1
1
1
1
1
1
1
0.999996
0.999997
1
1
1
1
1
1
0.999999
0.999999
1
0.903218
0.812514
0.999999
0.999999
0.999998
0.999998
0.999998
0.999999
1
1
1
1
1
1
1
1
1
1
1
1
1
1
1
1
1
1
1
1
0.999998
0.999998
1
1
1
1
1
1
0.999999
0.999999
1
0.996652
0.812503
0.8125
0.999998
0.999998
0.999999
1
1
1
1
1
1
1
1
1
1
1
1
1
1
1
1
1
1
1
1
1
1
1
1
1
1
1
1
1
1
1
0.999999
0.999999
1
0.983155
0.8125
0.8125
0.999998
1
1
1
1
1
1
1
1
1
1
1
1
0.999999
0.999999
0.999999
1
1
1
1
1
1
1
0.999999
0.999999
1
1
1
1
1
1
1
1
1
1
0.999999
0.999999
0.996221
0.867696
0.8125
1
1
1
1
1
1
1
1
1
1
1
1
1
1
1
1
1
1
1
1
1
0.999999
0.999999
0.999999
1
1
1
1
1
1
1
1
1
1
1
0.999998
0.999999
0.999893
0.948791
0.8125
1
1
1
1
1
1
1
1
1
1
1
1
1
1
1
1
1
1
1
1
0.999999
0.999999
0.999999
1
1
1
1
1
1
1
1
1
1
1
0.999998
0.999997
0.999999
0.999995
0.994976
0.853629
1
1
1
1
1
1
1
1
1
0.999999
0.999998
0.999997
1
1
0.999999
1
1
1
1
1
0.999999
0.999999
1
1
1
1
1
1
1
1
1
1
1
0.999999
0.999996
0.999997
1
1
0.99979
0.989286
1
1
1
1
1
1
1
1
0.999999
0.999994
0.999886
0.999879
0.999889
0.999992
1
1
1
1
1
0.999997
0.999997
0.999999
1
1
0.999997
0.999996
0.999999
1
1
1
1
1
0.999999
0.999996
0.999996
1
1
1
0.999997
0.999999
1
1
1
1
1
1
1
0.999992
0.999844
0.99981
0.999864
0.99995
0.999978
0.999998
0.999994
0.999769
0.999835
0.999946
0.999984
0.999993
0.999998
0.999999
0.999998
0.999995
0.999995
0.999995
1
1
1
1
1
1
0.999996
0.999996
0.999998
1
1
0.999999
0.999998
0.999999
1
1
1
1
1
1
1
0.998243
0.998979
0.999991
0.999991
0.999991
0.999991
0.998004
0.996899
0.998886
0.99977
0.999936
0.999986
0.999995
0.999999
1
0.999999
0.999995
0.999995
0.999996
1
1
1
1
0.999999
0.999996
0.999996
0.999997
1
1
0.999999
0.999999
0.999999
0.999999
1
1
1
1
1
1
1
0.955912
0.895953
0.953266
0.992553
0.993911
0.981346
0.988083
0.997067
0.999394
0.999846
0.999958
0.999995
0.999998
0.999999
1
1
0.999999
0.999997
0.999997
0.999999
1
1
0.999998
0.999998
0.999998
0.999999
1
1
1
1
1
0.999999
0.999999
1
1
1
1
1
1
1
0.844329
0.312783
0.718708
0.907344
0.922146
0.97539
0.99143
0.99849
0.999874
0.999985
0.99999
0.999998
1
0.999999
0.999999
1
1
1
0.999999
0.999999
1
0.999999
0.999998
0.999998
1
1
0.999999
0.999995
0.999995
1
1
0.999999
0.999999
1
1
1
1
1
1
1
0.636685
0.0975289
0.337549
0.856214
0.924483
0.979843
0.997033
0.999777
0.99997
1
1
1
1
1
0.999969
0.999776
0.999767
1
1
0.999999
0.999999
1
0.999999
1
1
1
0.999994
0.999993
0.999993
1
1
0.999999
1
1
1
1
1
1
1
1
0.753168
0.0969811
0.08091
0.60751
0.965211
0.992966
0.999812
0.999935
0.999924
0.999802
0.999999
1
1
1
0.999935
0.999558
0.999557
0.999839
1
1
0.999999
1
1
1
0.999998
0.999993
0.999993
0.999993
0.999997
1
1
1
0.999999
1
1
1
1
1
1
1
0.946628
0.175927
0.08091
0.16538
0.859959
0.999931
0.999935
0.999935
0.999813
0.999737
0.999821
0.999997
1
1
0.999979
0.999731
0.999557
0.999718
1
1
1
0.999991
0.999979
1
0.999996
0.999993
0.999993
0.999999
1
0.999999
0.999999
0.999999
0.999998
1
1
1
0.999999
0.999999
0.999999
1
1
0.639277
0.08091
0.0812643
0.422081
0.982324
0.999934
0.999935
0.999814
0.999737
0.999737
0.999959
0.999845
1
0.999999
0.999995
0.999845
0.999905
1
1
1
0.999992
0.999967
0.999977
0.999998
0.999994
0.999997
0.999999
1
1
0.999999
0.999996
0.999998
1
1
1
1
0.999999
0.999999
0.999999
1
0.992421
0.309022
0.0816187
0.0825891
0.610253
0.999893
0.999934
0.999861
0.999737
0.999789
0.999959
0.99994
0.999638
0.999817
0.999999
1
1
1
0.999999
0.999992
0.999992
0.999968
0.999971
0.999998
0.999998
0.999998
0.999994
0.999991
0.999993
0.999995
0.999997
1
0.999999
1
1
1
0.999999
0.999999
0.999999
1
1
0.902086
0.176964
0.0842793
0.113066
0.777238
0.999893
0.999861
0.999821
0.999723
0.999894
0.99994
0.999555
0.996263
0.995765
0.997342
0.999884
1
1
0.999808
0.999812
0.999984
0.999985
0.999997
0.999998
0.999996
0.999991
0.999991
0.999992
0.999998
1
1
0.999995
0.999999
1
1
1
1
1
1
1
1
0.816214
0.130636
0.106858
0.198188
0.858665
0.99983
0.999821
0.999723
0.999784
0.999939
0.999937
0.996397
0.995742
0.995742
0.995765
0.9983
0.999901
0.999438
0.999544
0.99999
0.999999
0.999998
0.999996
0.999991
0.999991
0.999994
1
1
1
0.999999
0.999995
0.999998
1
1
1
1
1
1
1
1
1
0.777098
0.127391
0.121641
0.247167
0.892077
0.999798
0.99978
0.999782
0.999705
0.999688
0.999224
0.998288
0.997401
0.996321
0.996355
0.997407
0.998687
0.999669
0.999995
0.999999
1
0.999996
0.999991
0.999992
1
1
1
0.999999
0.999999
0.999996
0.999999
1
1
1
1
1
1
1
1
1
1
0.786856
0.142245
0.138863
0.269574
0.902993
0.999757
0.99978
0.999738
0.999335
0.999283
0.999286
0.99928
0.999267
0.99735
0.997266
0.997266
0.999637
0.999996
1
1
0.999997
0.999991
0.999998
1
1
1
0.999999
1
1
1
1
1
1
1
1
1
1
1
1
1
1
0.797237
0.158266
0.154691
0.267087
0.887866
0.999755
0.999734
0.999675
0.998823
0.978438
0.999267
0.999248
0.999084
0.997266
0.997463
0.999774
0.999998
1
1
1
0.999999
1
1
1
1
1
1
1
1
1
1
1
1
1
1
1
1
1
1
1
1
0.785017
0.164537
0.161244
0.246815
0.855725
0.999702
0.999665
0.999632
0.889029
0.804598
0.96814
0.999069
0.999063
0.999325
0.999911
1
1
1
1
1
1
1
1
1
1
0.999999
0.999997
1
1
1
0.999999
0.999997
0.999998
1
1
1
1
1
1
1
1
0.773052
0.168319
0.165005
0.222157
0.801208
0.999617
0.999606
0.887419
0.7399
0.774084
0.98723
0.999983
0.99999
0.99999
0.999999
1
1
1
1
1
1
1
1
0.999988
0.999997
0.999997
0.999998
1
1
0.999998
0.999997
0.999997
0.999998
0.999999
1
1
1
1
1
1
0.999998
0.751159
0.168767
0.163388
0.197647
0.765091
0.999538
0.994079
0.744699
0.645592
0.874783
0.999983
1
1
1
1
1
1
1
1
1
1
0.999997
0.999987
0.999996
0.999997
0.999998
1
1
1
0.999998
0.999997
0.999997
0.999999
1
1
1
1
1
1
1
0.999996
0.706403
0.16458
0.150408
0.185008
0.768561
0.992449
0.83018
0.64192
0.639999
0.915186
0.999988
1
1
1
1
1
1
1
1
1
0.999998
0.999987
0.999996
1
0.999999
1
1
1
1
0.999997
0.999997
0.999998
1
1
1
1
1
1
1
1
0.999993
0.63368
0.149623
0.145066
0.191299
0.806752
0.828695
0.724135
0.637275
0.636219
0.911097
0.999988
1
1
1
1
1
1
1
1
0.999997
0.999995
0.999996
1
1
1
1
1
1
1
0.999998
0.999999
1
1
1
1
1
1
1
1
1
0.999987
0.535856
0.142906
0.140698
0.199429
0.734706
0.735217
0.675685
0.632753
0.631952
0.915035
0.99999
1
1
1
1
1
1
1
0.999998
1
0.998855
1
1
1
1
1
1
1
1
1
1
1
1
1
1
1
1
1
1
1
0.995503
0.435574
0.138483
0.136199
0.206162
0.693167
0.693122
0.642367
0.631855
0.632173
0.925198
0.999991
1
1
1
1
1
1
1
1
0.997492
1
1
1
1
1
1
1
1
1
1
1
1
1
1
1
1
1
1
1
1
0.953399
0.328339
0.132873
0.131271
0.213415
0.667703
0.667651
0.638731
0.620929
0.651609
0.942757
0.999989
1
1
1
1
1
0.999999
1
0.997501
1
1
1
1
1
1
1
1
1
1
1
1
1
1
1
1
1
1
1
1
0.999999
0.867338
0.204272
0.129182
0.127641
0.233687
0.659797
0.658789
0.6198
0.620194
0.755522
0.991472
0.999997
1
1
1
1
0.999999
1
0.997512
1
0.999999
1
1
1
1
1
1
1
1
1
1
1
1
1
1
1
1
1
1
1
0.999994
0.651978
0.128068
0.127256
0.126871
0.281859
0.618122
0.619368
0.619596
0.726779
0.987005
0.999995
1
1
1
0.999999
0.999999
1
0.997673
1
0.999999
0.999999
1
1
1
1
1
1
1
1
1
1
1
1
1
1
1
1
1
1
1
0.999974
0.427582
0.126871
0.126683
0.126453
0.382839
0.739678
0.71783
0.815515
0.992691
0.999975
0.999999
0.999999
0.999999
1
1
1
0.99843
1
0.999999
0.999999
0.999999
1
1
1
1
1
1
0.999999
0.999999
0.999999
1
1
1
1
1
1
1
1
1
1
0.916309
0.228493
0.126457
0.126411
0.251366
0.843132
0.971853
0.977988
0.9947
0.999983
0.999999
1
1
1
1
1
0.998899
1
1
0.999999
0.999999
1
1
1
1
1
0.999999
0.999999
0.999999
0.999999
1
1
1
1
1
1
1
1
1
1
0.999998
0.531716
0.126411
0.126411
0.268006
0.902245
0.999183
0.999924
0.998904
0.999764
0.999999
1
1
1
1
1
0.998527
1
1
1
1
1
1
1
1
0.999999
0.999999
0.999999
1
1
1
1
1
1
1
1
1
1
1
1
1
0.933041
0.229565
0.126411
0.360092
0.953319
0.99986
0.999979
0.999994
0.999893
0.999981
1
1
0.999996
0.999999
1
0.997039
0.999999
1
1
1
1
1
1
1
0.999999
1
1
1
1
1
1
1
1
1
1
1
1
1
1
1
0.999999
0.469051
0.127406
0.488497
0.986153
0.999918
0.999994
0.999995
0.999992
0.999971
0.999993
1
0.999995
0.999998
1
0.995499
0.999998
1
1
1
1
1
1
1
1
1
1
1
1
1
1
1
1
1
1
1
1
1
1
1
1
0.763192
0.15795
0.609695
0.997641
0.999955
0.999995
0.999995
0.999995
0.999971
0.999988
0.999994
0.999995
0.999999
1
0.995245
0.999998
1
1
1
1
1
1
1
1
1
1
1
1
1
1
1
1
1
1
1
1
1
1
1
1
0.947601
0.344628
0.683489
0.998431
0.999975
0.999995
0.999995
0.999995
0.999973
0.999965
0.999988
0.999995
1
0.999979
0.995167
0.99999
1
1
1
0.999999
1
0.999999
1
1
1
1
1
1
1
1
1
1
1
1
1
1
1
1
1
1
1
0.557556
0.743356
0.996444
0.999991
0.999995
0.999995
0.999995
0.99997
0.999965
0.999983
0.999997
1
0.999565
0.995081
0.999994
0.999777
0.999957
0.999984
0.999977
0.999963
0.999991
1
1
1
1
1
1
1
1
1
1
1
1
1
1
1
1
1
1
1
0.684013
0.777813
0.9909
0.999993
0.999995
0.999995
0.99999
0.999965
0.999965
0.999983
0.999998
1
0.999064
0.995067
0.999997
0.999502
0.999766
0.999554
0.999065
0.999606
1
1
1
1
1
1
1
1
1
1
1
1
1
1
1
1
1
1
1
1
0.679477
0.733338
0.97234
0.999989
0.999993
0.999993
0.999967
0.999965
0.999965
0.999986
0.999999
1
0.999085
0.995065
0.999997
0.999997
0.883683
0.814397
0.931941
0.999802
0.999997
1
1
1
1
1
1
1
1
1
1
1
1
1
1
1
1
1
1
1
0.650329
0.661126
0.949406
0.999983
0.999987
0.999984
0.999965
0.999965
0.999965
0.999993
1
1
0.999381
0.995063
0.999997
0.999997
0.707902
0.241757
0.557773
0.984024
0.99997
0.999999
1
1
1
1
1
1
1
0.999961
0.99998
1
1
1
1
1
1
1
1
0.986828
0.613535
0.668935
0.95114
0.999923
0.999991
0.99999
0.999965
0.999965
0.999978
0.999999
1
1
0.999769
0.995062
0.999997
0.999997
0.672448
0.229171
0.211587
0.755393
0.999896
0.999998
1
1
1
1
1
0.999341
0.999039
0.999749
0.999994
1
1
1
1
1
1
1
1
0.956311
0.610365
0.679329
0.962284
0.999854
0.999996
0.999999
0.999968
0.999967
0.999995
1
1
1
0.99996
0.99506
0.999996
0.99999
0.951623
0.382462
0.0244543
0.39087
0.970643
0.999995
1
1
1
0.982332
0.980242
0.993932
0.999369
0.999946
1
1
1
1
1
1
1
1
1
0.91521
0.608978
0.710354
0.980671
0.999875
0.999999
1
0.999993
0.999994
0.999999
1
1
1
0.999997
0.995061
0.999971
0.998876
0.970374
0.42111
0.0166548
0.081113
0.710387
0.999963
0.999999
1
0.984052
0.848247
0.886886
0.990637
0.999919
0.999996
1
1
1
1
1
1
1
1
1
0.829845
0.608268
0.769652
0.994632
0.999943
1
1
1
1
0.999999
1
1
0.999999
0.999997
0.998374
0.999913
0.992674
0.680727
0.0913297
0.0166548
0.0166625
0.117968
0.792421
0.999105
0.993099
0.858236
0.846582
0.85025
0.982783
0.999997
1
1
0.999998
0.999994
0.999998
0.999999
1
1
1
1
0.694471
0.608096
0.835698
0.998978
0.999986
1
1
0.999999
0.999989
0.999999
1
1
0.999998
0.999997
0.999997
0.999505
0.964694
0.391229
0.0169579
0.0166625
0.0166651
0.0167761
0.0301757
0.587312
0.975652
0.899807
0.846582
0.892457
0.995323
0.999999
1
1
0.999964
0.999961
0.999997
1
1
1
1
0.9962
0.626072
0.608109
0.883456
0.99957
0.999993
1
1
0.999993
0.999988
0.999998
1
1
0.999998
0.999998
0.999999
0.990703
0.953279
0.432952
0.0236633
0.0169578
0.0167669
0.0168332
0.0172063
0.0176063
0.312276
0.916267
0.976355
0.982183
0.994588
0.999997
0.999999
0.999783
0.999784
0.999973
0.999999
1
1
1
1
0.926521
0.628152
0.627245
0.935235
0.999701
0.999994
1
0.999998
0.999988
0.999988
0.999998
1
1
1
1
0.999999
0.938111
0.992455
0.946942
0.622688
0.328924
0.168222
0.0557263
0.01779
0.0176124
0.0185004
0.176141
0.832437
0.994518
0.994555
0.98643
0.984545
0.994178
0.99997
0.999995
1
1
1
1
1
0.832625
0.63076
0.677269
0.965701
0.999867
0.999994
1
0.999991
0.999988
0.999988
0.999999
1
1
1
1
0.999988
0.939806
0.994837
0.999957
0.999997
1
0.90363
0.685713
0.39551
0.160716
0.0419729
0.0432536
0.0505218
0.552357
0.990578
0.987011
0.984315
0.9958
0.999994
1
1
1
1
1
1
0.790668
0.63193
0.66327
0.957986
0.999966
0.999991
0.999993
0.999988
0.999988
0.999996
1
1
1
0.999991
1
0.999987
0.995416
0.97691
0.999829
1
1
1
1
1
0.878025
0.620414
0.26779
0.112373
0.10631
0.106511
0.624861
0.998778
0.999962
0.999998
1
1
1
1
1
1
0.768538
0.626757
0.633875
0.937817
0.999936
0.999985
0.999986
0.999989
0.999994
1
1
1
1
0.999985
1
0.99999
0.999999
0.999988
0.99997
0.999924
1
1
1
1
1
1
0.956959
0.699705
0.284755
0.139571
0.140735
0.216149
0.81635
0.999972
0.999998
1
1
1
1
1
0.755968
0.622712
0.622536
0.914646
0.999888
0.999992
0.999996
0.999997
0.999999
1
1
1
1
1
0.999682
0.99999
0.999999
0.999999
0.999999
0.999999
1
1
1
1
1
1
1
1
0.991151
0.679257
0.2072
0.166627
0.166863
0.44061
0.978479
0.999974
0.999998
1
1
1
0.750906
0.622416
0.622553
0.870605
0.999765
0.99999
0.999999
1
1
1
0.999999
0.999999
1
1
0.999342
0.998943
0.999999
0.999999
0.999999
1
1
1
0.999999
1
1
1
1
1
1
1
0.992019
0.529612
0.166863
0.169861
0.249564
0.813714
0.999863
0.999995
0.999999
1
0.79283
0.622553
0.62249
0.799171
0.998703
0.999975
0.999999
1
1
1
0.999999
1
1
1
0.999409
0.994791
0.999998
0.999998
0.999999
0.999999
0.999996
0.999997
0.999999
1
1
1
1
1
1
1
1
1
0.915811
0.280664
0.223795
0.223795
0.580833
0.996662
0.999942
0.999996
0.913325
0.62381
0.622552
0.689077
0.978049
0.999911
0.999995
0.999999
1
1
1
1
1
1
0.999336
0.994761
0.999969
0.999856
0.999937
0.999959
0.999981
0.999996
1
1
1
1
1
1
1
1
0.999995
0.999984
0.999998
0.999998
0.685042
0.229753
0.242385
0.481495
0.974062
0.999845
0.996836
0.679935
0.6231
0.625489
0.91095
0.999713
0.999984
0.999999
1
1
1
1
1
1
0.99935
0.994761
0.999581
0.999175
0.999734
0.999879
0.999966
0.999994
0.999999
1
1
1
1
1
1
1
0.99999
0.99998
0.999982
0.999999
0.999998
0.881801
0.326387
0.322067
0.517507
0.980424
0.991706
0.762634
0.625513
0.628258
0.853284
0.999447
0.999967
0.999998
1
1
1
1
1
1
0.999542
0.994761
0.990468
0.997478
0.999223
0.999792
0.999953
0.99999
0.999998
0.999999
1
1
1
1
1
1
1
0.999988
0.999986
1
1
0.999992
0.906604
0.360057
0.356775
0.719016
0.987439
0.827131
0.629044
0.628963
0.850192
0.999309
0.999955
0.999997
1
1
1
1
1
1
0.999765
0.996936
0.962146
0.993488
0.998872
0.999748
0.999939
0.999985
0.999996
0.999999
1
1
1
1
1
1
1
1
1
1
1
1
0.999973
0.808731
0.362617
0.438435
0.913054
0.909087
0.684578
0.629667
0.838866
0.999221
0.999946
0.999996
1
1
1
1
1
1
0.999903
0.999939
0.88211
0.992941
0.998846
0.99974
0.999934
0.99998
0.999994
0.999999
1
1
0.999999
0.999999
0.999999
0.999998
0.999998
0.999998
0.999999
1
1
1
1
0.999959
0.683058
0.451962
0.558392
0.827494
0.797224
0.702838
0.888032
0.999005
0.999934
0.999996
0.999999
1
1
1
1
0.999994
0.999995
0.999997
0.821489
0.996018
0.999267
0.999807
0.999934
0.999974
0.999991
0.999998
0.999999
0.999999
0.999999
0.999997
0.999995
0.999991
0.999987
0.999984
0.999983
0.999989
0.999999
0.999999
0.999999
0.999997
0.999761
0.623448
0.495994
0.478737
0.604561
0.862744
0.972877
0.998608
0.999888
0.999992
0.999999
1
1
1
0.999995
0.999989
0.999998
0.999999
0.848193
0.997779
0.999591
0.99987
0.999937
0.999969
0.999988
0.999996
0.999998
0.999996
0.999994
0.999989
0.999978
0.999957
0.999928
0.999889
0.999876
0.999928
0.999989
0.999999
0.999999
0.999998
0.999991
0.906129
0.496307
0.467647
0.456274
0.787125
0.997522
0.999427
0.99993
0.999993
0.999999
1
1
1
0.99999
0.999989
0.999998
0.999999
0.977149
0.998453
0.999666
0.999882
0.999927
0.999965
0.999982
0.999994
0.99999
0.99998
0.999957
0.99993
0.999919
0.999849
0.999553
0.999155
0.999305
0.99946
0.999782
0.999998
0.999998
0.999996
0.999994
0.999945
0.632259
0.45628
0.451527
0.677592
0.990499
0.999816
0.999979
0.999997
0.999999
1
1
1
0.999994
0.999992
1
0.996172
0.995761
0.999151
0.999779
0.999892
0.999917
0.999958
0.999978
0.99998
0.99996
0.999878
0.999675
0.999467
0.999369
0.999221
0.996488
0.994697
0.993077
0.995999
0.999884
0.999987
0.999996
0.999994
0.999994
0.999989
0.807249
0.454676
0.447998
0.561665
0.963487
0.999797
0.999986
0.999998
0.999999
1
1
1
1
1
1
0.947346
0.998605
0.999727
0.999911
0.999934
0.999931
0.999951
0.99996
0.999948
0.999797
0.999135
0.998068
0.986489
0.935973
0.786487
0.782992
0.859533
0.974213
0.999308
0.999917
0.999982
0.999992
0.999994
0.999993
0.999992
0.895373
0.476309
0.445582
0.558907
0.962403
0.99969
0.999974
0.999997
0.999999
1
1
1
1
1
0.999885
0.929258
0.999744
0.999934
0.999964
0.999957
0.999951
0.999929
0.999943
0.999822
0.998849
0.996338
0.824259
0.535657
0.262087
0.0598798
0.0594536
0.279128
0.899408
0.999352
0.99989
0.999979
0.999988
0.999992
0.999992
0.999991
0.930701
0.483743
0.444579
0.605895
0.975143
0.999392
0.999953
0.999997
1
1
1
1
1
1
0.982408
0.929059
0.99994
0.999976
0.999972
0.999964
0.999956
0.999951
0.999918
0.999174
0.969957
0.662465
0.0554222
0.0104323
0.00934416
0.00935914
0.00932625
0.00960031
0.330507
0.927589
0.999667
0.999967
0.999985
0.999989
0.99999
0.999989
0.930633
0.462355
0.44462
0.72994
0.991144
0.999391
0.999952
0.999997
1
1
1
1
1
0.998817
0.934595
0.929027
0.999977
0.999988
0.999978
0.999972
0.999962
0.999947
0.999703
0.978976
0.453045
0.0157751
0.00994909
0.00920188
0.00920214
0.0093509
0.00943758
0.00936914
0.0296486
0.707972
0.999529
0.999936
0.99998
0.999981
0.999987
0.999988
0.913098
0.399578
0.470814
0.880112
0.994976
0.999533
0.999957
0.999997
1
1
1
1
1
0.993432
0.929027
0.929023
0.999991
0.999991
0.999988
0.999981
0.999952
0.999862
0.998389
0.441792
0.0159846
0.0099151
0.00924478
0.00931776
0.0093434
0.00946647
0.009365
0.00947395
0.0561892
0.747446
0.997474
0.999789
0.999967
0.999979
0.999986
0.999986
0.853761
0.385179
0.56485
0.958524
0.996983
0.999714
0.999967
0.999995
0.999995
1
1
1
1
0.990576
0.929022
0.929025
0.999998
0.999994
1
0.999945
0.999884
0.999389
0.615046
0.0321966
0.0100327
0.00947065
0.00931754
0.00944609
0.00946268
0.00943515
0.0094319
0.0208576
0.352435
0.902554
0.996863
0.999733
0.99995
0.999979
0.999979
0.999986
0.589847
0.385162
0.70922
0.984531
0.998505
0.999857
0.999981
0.999988
0.999987
0.999994
1
1
1
0.991398
0.936578
0.929024
0.999999
0.999998
0.999996
0.999803
0.999337
0.941996
0.186123
0.0110673
0.00956837
0.00948357
0.00947695
0.00946905
0.00950257
0.00946593
0.141595
0.508166
0.894309
0.987577
0.998095
0.999793
0.999952
0.999979
0.999979
0.985737
0.378814
0.38199
0.892119
0.995875
0.999642
0.999956
0.999988
0.999987
0.999987
0.999987
1
1
0.999975
0.994946
0.987819
0.979327
0.999999
1
1.00015
0.998269
0.996811
0.62905
0.0437191
0.00983057
0.00960935
0.0095518
0.00956334
0.00977495
0.0122061
0.372541
0.783315
0.977812
0.999474
0.999876
0.999731
0.999913
0.999968
0.999979
0.999974
0.933944
0.378814
0.419297
0.999504
0.999854
0.999982
0.999994
0.999992
0.999987
0.999987
0.99999
1
0.999999
0.999929
0.999523
0.999778
0.99974
1
1
1.00022
0.924362
0.854206
0.494294
0.0613381
0.00977288
0.00962346
0.0096105
0.00991593
0.0126121
0.223578
0.920355
0.998304
0.99942
0.999933
0.999956
0.999963
0.999965
0.999967
0.999974
0.999921
0.798743
0.378814
0.732916
0.999956
0.999994
0.999999
0.999999
0.999988
0.999987
0.999987
0.999999
1
0.999995
0.999925
0.999987
0.999969
0.999966
1
1
0.924201
0.431986
0.488514
0.828183
0.50574
0.0236743
0.00968244
0.00962387
0.00968772
0.0551961
0.684552
0.998397
0.998928
0.998562
0.999956
0.99996
0.999961
0.999963
0.999965
0.999944
0.95713
0.450572
0.474526
0.999935
0.999992
1
1
0.999999
0.999987
0.999987
0.999993
1
0.999999
0.999992
0.999981
0.999998
0.999995
0.999995
1
0.999985
0.52773
0.288222
0.658862
0.921016
0.847262
0.116946
0.00973957
0.00967957
0.00972244
0.119206
0.902862
0.998931
0.998955
0.997204
0.860985
0.80074
0.970952
0.999961
0.999945
0.99412
0.72206
0.450572
0.781061
1.00005
1
1
1
0.999999
0.999994
0.999992
1
1
0.999998
0.999992
1
1
0.999999
0.999998
1.00001
0.999872
0.310312
0.275508
0.7292
0.926543
0.926678
0.375176
0.00972908
0.00971436
0.00965061
0.101687
0.877835
0.99898
0.998955
0.989651
0.597606
0.127147
0.597146
0.891735
0.906618
0.556059
0.13776
0.537282
0.999731
0.999998
1
1
1
1
1
1
1
1
0.999997
0.999994
1
1
1
0.999999
1.00006
0.844901
0.182416
0.265362
0.847894
0.926677
0.926678
0.789446
0.0585438
0.0097307
0.00972692
0.0398647
0.764018
0.99894
0.998955
0.993098
0.42678
0.00634855
0.0882238
0.236543
0.237489
0.0472869
0.0316056
0.521369
0.999967
1
1
1
1
1
1
1
1
1
0.999998
0.999999
1
1
0.999999
0.999999
1.00002
0.462978
0.152772
0.341466
0.888213
0.926678
0.926682
0.926678
0.450365
0.00973779
0.0097307
0.00973779
0.72451
0.998922
0.99894
0.984967
0.176433
0.00464936
0.00519465
0.00673675
0.00617262
0.00526054
0.0142351
0.290786
0.706553
0.894117
0.990894
1
0.999973
1
1
0.999997
1
1
1
1
1
1
0.999999
0.999999
1
0.279035
0.148255
0.474981
0.904513
0.918956
0.92668
0.926407
0.832042
0.170124
0.00973779
0.0997109
0.881844
0.998683
0.998922
0.717339
0.00616462
0.00396047
0.00376876
0.00374724
0.00383141
0.00389868
0.00858731
0.040175
0.109283
0.363668
0.762838
0.954438
0.998884
1
0.999997
0.999996
1
1
1
1
1
1
0.999999
1
0.875683
0.177504
0.144113
0.580062
0.782913
0.483398
0.801215
0.930219
0.963266
0.718076
0.41747
0.689775
0.953424
0.978551
0.576286
0.082794
0.00383434
0.0037304
0.00372139
0.00369603
0.00378527
0.00379818
0.00408823
0.0047206
0.00688824
0.0361961
0.251332
0.698185
1
1
0.999997
0.999997
1
1
1
1
1
1
1
1
0.557069
0.117069
0.138346
0.630689
0.612085
0.272519
0.451475
0.962134
0.976906
0.976452
0.964933
0.951366
0.680291
0.237769
0.0201639
0.0038587
0.00378227
0.00377889
0.00375495
0.00381273
0.00379705
0.00377034
0.00381027
0.00394208
0.00479001
0.00702172
0.0873661
0.674282
1
1
1
1
0.999996
1
1
1
1
1
1
0.999689
0.364646
0.111107
0.297187
0.658311
0.631926
0.272426
0.467832
0.976906
0.976906
0.976906
0.947403
0.390254
0.0405494
0.00656144
0.00425558
0.00377528
0.00380785
0.00377443
0.00377481
0.00373963
0.00378164
0.00375131
0.00374198
0.00383248
0.00400142
0.00493032
0.240369
0.851783
1
1
1
0.999988
0.999997
1
1
1
1
1
0.999046
0.997982
0.245421
0.108786
0.615873
0.658311
0.535197
0.273376
0.606854
0.976872
0.976906
0.948185
0.355316
0.0116066
0.00807633
0.00697049
0.00601144
0.00425513
0.0108684
0.0220649
0.00373654
0.00367529
0.00378702
0.00376448
0.024157
0.122967
0.236926
0.422386
0.777119
0.999997
0.999998
1
0.999906
0.999905
1
1
1
1
0.999427
0.998266
0.997974
0.997974
0.176235
0.107147
0.641417
0.641516
0.306668
0.322301
0.898613
0.979918
0.975326
0.544424
0.0209293
0.0171969
0.0116071
0.0216934
0.272284
0.535775
0.678755
0.512423
0.165043
0.0644562
0.127655
0.413767
0.68775
0.831356
0.915549
0.971251
0.998863
0.999978