/*--------------------------------*- C++ -*----------------------------------*\
  =========                 |
  \\      /  F ield         | OpenFOAM: The Open Source CFD Toolbox
   \\    /   O peration     | Website:  https://openfoam.org
    \\  /    A nd           | Version:  8
     \\/     M anipulation  |
\*---------------------------------------------------------------------------*/
FoamFile
{
    version     2.0;
    format      ascii;
    class       volScalarField;
    location    "2.15";
    object      p_rgh;
}
// * * * * * * * * * * * * * * * * * * * * * * * * * * * * * * * * * * * * * //

dimensions      [1 -1 -2 0 0 0 0];

internalField   nonuniform List<scalar> 
9150
(
2580.17
2552.9
2527.56
2510.41
2502.11
2502.12
2510.43
2527.59
2552.94
2580.2
2571.06
2551.15
2535.62
2523.83
2517.87
2517.87
2523.85
2535.64
2551.18
2571.09
2561.37
2547.48
2539.09
2531.31
2527.22
2527.22
2531.32
2539.11
2547.51
2561.4
2556.28
2545.95
2540.64
2535.23
2532.27
2532.28
2535.24
2540.65
2545.97
2556.31
2554.66
2545.34
2540.95
2536.75
2534.3
2534.3
2536.76
2540.97
2545.36
2554.68
2114.74
2111.45
2136.41
2150.24
2156.91
2156.98
2150.46
2136.74
2111.88
2115.26
2304.69
2280.76
2275.56
2274.2
2274.29
2274.34
2274.33
2275.75
2280.98
2304.92
2428.88
2397.54
2381.92
2371.98
2367.3
2367.33
2372.05
2382.03
2397.67
2429
2529.15
2486.89
2459.42
2442.05
2433.54
2433.56
2442.1
2459.49
2486.96
2529.21
2601.1
2546.91
2508.33
2486.29
2476.14
2476.15
2486.32
2508.38
2546.96
2601.14
1928.38
1963.79
1951.56
1964.82
1959.95
1961.11
1965.88
1954.82
1966.5
1937.9
1958.23
1974.81
1955.03
1965.93
1960.22
1961.13
1966.3
1958.25
1977.78
1963.93
1937.82
1967.65
1933
1944.2
1946.22
1946.54
1944.53
1935.09
1969.77
1941.19
1779.45
1904.33
1916.23
1936.75
1953.49
1953.65
1937.32
1917.53
1905.58
1781.68
1643.81
1891.33
1985.03
2015.3
2031.68
2031.79
2015.67
1985.66
1892.09
1645.23
1854.94
1855.19
1855.38
1855.5
1855.56
1855.55
1855.49
1855.36
1855.17
1854.93
1852.26
1852.42
1852.55
1852.64
1852.69
1852.7
1852.67
1852.59
1852.48
1852.34
1849.9
1849.98
1850.05
1850.1
1850.13
1850.14
1850.14
1850.11
1850.07
1850.02
1848.39
1848.42
1848.44
1848.46
1848.47
1848.48
1848.48
1848.48
1848.48
1848.48
1847.49
1847.48
1847.46
1847.45
1847.45
1847.45
1847.45
1847.46
1847.47
1847.49
1847.03
1846.98
1846.94
1846.9
1846.88
1846.86
1846.85
1846.85
1846.86
1846.88
1846.9
1846.83
1846.77
1846.71
1846.67
1846.63
1846.6
1846.58
1846.58
1846.58
1847.06
1846.97
1846.89
1846.81
1846.74
1846.68
1846.63
1846.59
1846.56
1846.53
1847.47
1847.36
1847.26
1847.16
1847.07
1846.98
1846.9
1846.83
1846.76
1846.7
1848.1
1847.97
1847.85
1847.73
1847.61
1847.5
1847.4
1847.29
1847.19
1847.09
1848.92
1848.77
1848.63
1848.5
1848.36
1848.23
1848.1
1847.97
1847.84
1847.71
1849.9
1849.74
1849.59
1849.45
1849.31
1849.17
1849.03
1848.89
1848.74
1848.58
1851.01
1850.86
1850.71
1850.57
1850.44
1850.3
1850.17
1850.04
1849.9
1849.75
1852.21
1852.08
1851.96
1851.84
1851.73
1851.62
1851.52
1851.42
1851.32
1851.22
1853.5
1853.41
1853.32
1853.24
1853.17
1853.1
1853.04
1853
1852.96
1852.93
1854.9
1854.84
1854.8
1854.76
1854.73
1854.71
1854.72
1854.74
1854.8
1854.9
1856.41
1856.38
1856.37
1856.36
1856.36
1856.38
1856.42
1856.49
1856.6
1856.75
1858.03
1858.02
1858.02
1858.03
1858.06
1858.1
1858.17
1858.26
1858.4
1858.58
1859.77
1859.76
1859.76
1859.77
1859.8
1859.84
1859.91
1860
1860.13
1860.29
1861.63
1861.59
1861.57
1861.57
1861.58
1861.61
1861.67
1861.75
1861.86
1862.01
1863.56
1863.48
1863.43
1863.39
1863.38
1863.39
1863.43
1863.49
1863.58
1863.71
1865.54
1865.4
1865.3
1865.22
1865.18
1865.17
1865.18
1865.23
1865.3
1865.4
1867.49
1867.29
1867.13
1867.02
1866.95
1866.92
1866.92
1866.95
1867.01
1867.1
1869.34
1869.08
1868.88
1868.75
1868.66
1868.62
1868.62
1868.65
1868.71
1868.79
1870.99
1870.69
1870.47
1870.34
1870.27
1870.25
1870.27
1870.32
1870.4
1870.49
1872.31
1872
1871.81
1871.74
1871.73
1871.78
1871.86
1871.96
1872.08
1872.21
1873.12
1872.86
1872.8
1872.87
1873.02
1873.21
1873.41
1873.6
1873.79
1873.97
1873.18
1873.05
1873.29
1873.7
1874.15
1874.58
1874.96
1875.3
1875.58
1875.82
1871.71
1871.95
1873.09
1874.35
1875.3
1876.06
1876.68
1877.18
1877.56
1877.86
1777.44
1802.25
1864.01
1874.95
1876.79
1877.95
1878.79
1879.41
1879.86
1880.17
1475.02
1514.48
1721.57
1867.83
1880.37
1881.56
1882.1
1882.49
1882.76
1882.92
1457.95
1458.68
1488.15
1805.61
1885.47
1886.28
1886.2
1886.12
1886.05
1885.94
1451.04
1452.21
1454.58
1784.74
1891.59
1891.25
1890.45
1889.85
1889.39
1888.98
1444.98
1446.4
1673.66
1889.61
1896.57
1895.21
1894.02
1893.09
1892.33
1891.68
1526.04
1739.36
1902.85
1901.14
1899.32
1897.79
1896.54
1895.49
1894.6
1893.83
1907.42
1906.83
1904.17
1902.26
1900.68
1899.31
1898.12
1897.08
1896.17
1895.37
1905.81
1904.56
1903.35
1902.12
1900.95
1899.86
1898.85
1897.93
1897.1
1896.35
1904.34
1903.63
1902.79
1901.88
1900.96
1900.05
1899.18
1898.36
1897.6
1896.89
1903.81
1903.16
1902.43
1901.65
1900.84
1900.03
1899.24
1898.48
1897.76
1897.08
1903.42
1902.8
1902.13
1901.41
1900.65
1899.89
1899.12
1898.38
1897.67
1896.99
1903.16
1902.55
1901.89
1901.19
1900.45
1899.68
1898.82
1897.75
1897.21
1896.65
1903
1902.39
1901.73
1901.02
1900.28
1899.32
1896.98
1895.2
1895.64
1896.25
1902.89
1902.29
1901.64
1900.93
1899.9
1896.94
1895.75
1894.89
1894.71
1895.79
1902.87
1902.29
1901.66
1900.97
1897.89
1896.59
1895.75
1894.96
1896.13
1895.7
1902.92
1902.38
1901.8
1900.94
1898.03
1896.92
1897.2
1898.18
1897.26
1896.17
1903.03
1902.54
1902.03
1901.29
1900.66
1900.16
1900.05
1899.54
1898.91
1898.17
1903.11
1902.69
1902.25
1901.81
1901.43
1901.21
1901.34
1901.37
1901.13
1900.63
1903.08
1902.71
1902.24
1901.67
1901.22
1901.76
1903.36
1904.98
1905.78
1906.2
1902.99
1902.63
1901.55
1898.55
1860.9
1785.65
1804.56
1906.56
1911.91
1913.23
1903.44
1903.66
1902.42
1851.58
1670.87
1639.59
1641.53
1800.42
1920.06
1924.04
1903.68
1905.02
1904.95
1748.67
1633.89
1635.46
1637.3
1639.91
1844.71
1931.86
1902.5
1904.85
1907.59
1826.2
1631.35
1631.79
1634.47
1636.76
1641.73
1854.8
1898.85
1901.66
1905.32
1909.56
1887.05
1718.2
1634.96
1632.88
1642.3
1655.61
1892.1
1894.68
1897.9
1901.79
1906.2
1910.79
1914.9
1839.33
1732.21
1735.71
1882.92
1885.18
1887.97
1891.3
1895.13
1899.32
1903.76
1908.15
1912.5
1917.33
1871.61
1873.58
1876.16
1879.42
1883.32
1887.82
1892.81
1898.17
1903.88
1910.06
1857.82
1859.3
1861.57
1864.77
1868.94
1874.07
1880.05
1886.73
1893.99
1901.67
1841.36
1842.12
1843.92
1846.92
1851.21
1856.91
1863.98
1872.22
1881.36
1891.04
1822.62
1822.12
1823.38
1826.3
1831.15
1837.63
1845.62
1855.17
1866.17
1878.2
1753.48
1673.95
1622.01
1626.37
1725.6
1785.63
1819.99
1835.05
1848.95
1863.46
1146.89
902.914
763.233
735.92
889.235
1094.11
1423.28
1719.59
1823.56
1846.41
589.743
547.016
545.91
545.137
544.828
545.73
548.021
921.054
1495.25
1807.47
544.592
544.007
543.701
543.348
543
542.785
542.753
543.971
671.479
1389.05
544.531
544.372
544.174
543.63
542.928
542.392
541.889
541.712
544.593
866.991
544.014
543.871
559.722
624.491
568.546
548.506
540.205
539.757
541.896
706.595
541.81
541.418
589.88
642.637
643.339
619.581
542.408
538.019
540.12
724.181
537.589
537.27
536.5
630.096
641.243
625.493
545.521
538.981
541.258
1135.64
583.237
557.194
534.316
545.097
544.337
539.594
541.057
541.191
657.14
1599.53
621.906
581.306
536.994
536.813
536.471
536.685
537.786
553.223
1357.02
1868.95
574.634
532.596
532.395
572.281
529.241
526.857
533.797
1272.47
1858.16
1862.33
508.518
515.297
720.433
1069.73
591.623
511.879
1117.21
1823.68
1846.21
1845.12
492.349
555.719
1137.37
1140.51
786.911
1062.22
1751.77
1832.62
1837.91
1834.17
536.877
1198.89
1204.79
1015.59
1063.28
1641.75
1854.64
1853.79
1845.85
1834.35
1339.19
1335.11
1157.32
968.991
1287.21
1837.27
1880.22
1867.5
1851.44
1834.17
1572.92
1274.86
772.606
979.034
1775.17
1911.48
1895.42
1875.43
1854.21
1832.26
1594.2
669.812
722.046
1721.98
1934.63
1918
1897.8
1875.62
1852.06
1827.77
709.726
596.253
1225.85
1930.81
1933.81
1916.41
1895.57
1872.63
1848.5
1824.03
529.711
542.377
1716.44
1951.37
1934.47
1913.92
1891.86
1868.71
1845.03
1821.53
510.869
1041.59
1911.39
1936.95
1923.15
1905.24
1885.12
1863.8
1842.08
1820.73
462.201
1577.88
1948.17
1935.14
1918.73
1900.28
1880.6
1860.35
1840.27
1821.12
860.567
1877.4
1934.9
1924.22
1909.82
1893.09
1874.96
1856.1
1837.08
1818.49
1533.8
1936.59
1927.57
1916.94
1903.91
1888.81
1872.43
1855.49
1838.46
1822.07
1650.7
1929.05
1920.15
1909.98
1898.71
1885.81
1871.82
1857.53
1843.56
1830.74
1625.7
1913.81
1910.13
1903.16
1894.32
1883.5
1871.51
1859.5
1848.6
1839.27
1626.54
1912.48
1909.26
1902.99
1894.41
1883.55
1871.2
1858.33
1845.44
1830.61
1758.14
1924.23
1916.98
1909.21
1899.86
1888.53
1875.9
1862.68
1849.05
1833.71
1852.88
1933.27
1925.13
1917.2
1908.19
1897.51
1885.97
1874.33
1863.49
1854.9
1915.14
1940.36
1932.67
1925.37
1917.38
1908.04
1898.23
1888.87
1881.26
1851.22
1946.86
1945.85
1938.93
1932.47
1925.61
1917.69
1909.46
1901.88
1896.17
1788.46
1955.57
1949.8
1943.78
1938.19
1932.33
1925.77
1918.78
1912.27
1907.12
1770.58
1957.58
1952.66
1947.68
1943.02
1938.12
1932.96
1927.14
1921.45
1916.57
1763.73
1959.06
1954.98
1951.02
1947.14
1943.25
1939.69
1935.53
1931.33
1927.97
1771.33
1943.13
1956.01
1952.62
1949.3
1946.76
1945.08
1943.24
1941.42
1940.41
1790.1
1910.9
1952.23
1950.24
1948.45
1948.18
1948.6
1949.01
1949.54
1950.9
1807.32
1861.77
1943.66
1945.88
1946.33
1948.29
1950.47
1952.68
1955.91
1958.62
1815.56
1813.74
1939.64
1941.94
1943
1946.14
1949.52
1953.03
1959.54
1963.61
1810.4
1773.05
1928.06
1934.95
1938.37
1942.38
1946.21
1949.87
1956.93
1959.46
1787.66
1747.9
1924.27
1932.21
1937.27
1940.75
1944.05
1947.08
1950.09
1948.84
1753.83
1772.88
1933.29
1936.18
1942.39
1943.35
1945.79
1948.96
1948.63
1950
1762.34
1851.28
1956.69
1946.23
1953.25
1950.54
1952.11
1955.99
1950.94
1961.02
1852.48
1854.64
1854.28
1853.89
1853.48
1853.05
1852.62
1852.19
1851.78
1851.4
1851.05
1850.73
1850.46
1850.23
1850.04
1849.88
1849.76
1849.67
1849.6
1849.57
1849.55
1849.55
1849.57
1849.6
1849.62
1849.65
1849.68
1849.7
1849.7
1849.68
1849.64
1849.57
1849.46
1849.31
1849.13
1848.9
1848.66
1848.43
1848.29
1848.41
1848.89
1852.18
1851.99
1851.77
1851.55
1851.32
1851.09
1850.87
1850.68
1850.5
1850.34
1850.22
1850.12
1850.05
1850.01
1849.99
1849.99
1850.01
1850.04
1850.08
1850.13
1850.18
1850.23
1850.27
1850.31
1850.33
1850.34
1850.33
1850.3
1850.23
1850.13
1849.99
1849.81
1849.57
1849.27
1848.92
1848.53
1848.1
1847.73
1847.77
1848.15
1849.97
1849.93
1849.88
1849.83
1849.78
1849.74
1849.72
1849.71
1849.72
1849.74
1849.79
1849.85
1849.93
1850.02
1850.11
1850.22
1850.32
1850.42
1850.52
1850.61
1850.69
1850.76
1850.82
1850.86
1850.89
1850.89
1850.87
1850.82
1850.75
1850.64
1850.5
1850.33
1850.14
1849.93
1849.71
1849.53
1849.44
1849.47
1845.27
1844.74
1848.49
1848.53
1848.57
1848.63
1848.69
1848.77
1848.86
1848.97
1849.09
1849.23
1849.38
1849.54
1849.71
1849.89
1850.06
1850.24
1850.4
1850.56
1850.71
1850.84
1850.96
1851.06
1851.15
1851.21
1851.26
1851.28
1851.29
1851.27
1851.23
1851.17
1851.09
1851.01
1850.94
1850.89
1850.89
1850.98
1851.22
1851.46
1840.59
1841.2
1847.53
1847.61
1847.7
1847.81
1847.93
1848.07
1848.23
1848.4
1848.6
1848.8
1849.02
1849.25
1849.48
1849.72
1849.95
1850.18
1850.39
1850.6
1850.79
1850.97
1851.12
1851.26
1851.38
1851.48
1851.56
1851.62
1851.67
1851.69
1851.71
1851.72
1851.74
1851.77
1851.83
1851.94
1852.14
1852.46
1852.96
1852.17
1838.93
1839.07
1846.94
1847.02
1847.13
1847.25
1847.4
1847.56
1847.74
1847.95
1848.17
1848.41
1848.67
1848.94
1849.22
1849.5
1849.78
1850.06
1850.32
1850.57
1850.81
1851.03
1851.23
1851.41
1851.57
1851.71
1851.83
1851.94
1852.03
1852.12
1852.2
1852.28
1852.37
1852.49
1852.66
1852.89
1853.21
1853.66
1854.26
1854.57
1841.69
1837.5
1846.62
1846.7
1846.79
1846.9
1847.03
1847.18
1847.36
1847.55
1847.78
1848.03
1848.3
1848.6
1848.91
1849.23
1849.56
1849.88
1850.19
1850.49
1850.78
1851.05
1851.3
1851.53
1851.73
1851.92
1852.1
1852.25
1852.4
1852.53
1852.67
1852.8
1852.96
1853.14
1853.36
1853.64
1854
1854.45
1855.01
1855.59
1849.47
1836.41
1846.54
1846.58
1846.64
1846.71
1846.79
1846.9
1847.03
1847.19
1847.38
1847.6
1847.87
1848.18
1848.52
1848.89
1849.26
1849.63
1850
1850.36
1850.71
1851.04
1851.34
1851.63
1851.89
1852.13
1852.35
1852.56
1852.75
1852.94
1853.11
1853.29
1853.48
1853.68
1853.89
1854.14
1854.42
1854.73
1855.05
1855.32
1854.68
1838.58
1846.67
1846.66
1846.65
1846.66
1846.67
1846.69
1846.73
1846.8
1846.9
1847.07
1847.32
1847.64
1848.01
1848.42
1848.86
1849.31
1849.75
1850.18
1850.6
1851
1851.37
1851.72
1852.04
1852.34
1852.62
1852.88
1853.12
1853.34
1853.56
1853.77
1853.97
1854.17
1854.37
1854.57
1854.77
1854.95
1855.09
1855.12
1854.95
1853.26
1847.01
1846.93
1846.86
1846.77
1846.67
1846.57
1846.45
1846.34
1846.27
1846.31
1846.49
1846.84
1847.27
1847.79
1848.33
1848.88
1849.42
1849.95
1850.46
1850.94
1851.39
1851.81
1852.2
1852.56
1852.89
1853.2
1853.49
1853.76
1854.01
1854.24
1854.46
1854.66
1854.85
1855.01
1855.15
1855.26
1855.3
1855.23
1855.04
1854.8
1847.57
1847.44
1847.28
1847.09
1846.86
1846.57
1846.23
1845.8
1845.31
1845.06
1845.23
1845.68
1846.26
1846.92
1847.61
1848.28
1848.99
1849.67
1850.3
1850.88
1851.42
1851.92
1852.38
1852.8
1853.19
1853.55
1853.89
1854.19
1854.47
1854.73
1854.96
1855.17
1855.34
1855.48
1855.58
1855.62
1855.59
1855.44
1855.16
1854.85
1848.42
1848.25
1848.03
1847.74
1847.39
1846.96
1846.41
1845.12
1843.82
1842.84
1843.05
1843.89
1844.78
1845.3
1846.13
1847.43
1848.52
1849.38
1850.15
1850.85
1851.48
1852.06
1852.59
1853.08
1853.52
1853.93
1854.3
1854.64
1854.96
1855.23
1855.48
1855.69
1855.87
1855.99
1856.07
1856.07
1855.98
1855.76
1855.43
1855.06
1849.6
1849.43
1849.21
1848.91
1848.53
1848.18
1847.72
1836.04
1817.52
1826.6
1836.88
1839.42
1838.54
1841.55
1845.01
1846.87
1848.14
1849.18
1850.09
1850.9
1851.62
1852.27
1852.86
1853.4
1853.89
1854.34
1854.75
1855.12
1855.46
1855.76
1856.02
1856.24
1856.42
1856.54
1856.6
1856.58
1856.46
1856.2
1855.81
1855.39
1851.13
1851.04
1850.91
1850.7
1850.46
1850.32
1850.05
1807.53
1685.78
1764.63
1811.14
1817.92
1834.32
1840.91
1844.69
1846.67
1848.06
1849.23
1850.23
1851.11
1851.89
1852.59
1853.22
1853.79
1854.31
1854.79
1855.22
1855.62
1855.98
1856.3
1856.58
1856.81
1857
1857.12
1857.18
1857.15
1857.01
1856.73
1856.3
1855.85
1852.93
1852.96
1852.96
1852.91
1852.79
1852.63
1851.93
1747.23
1623.61
1663.15
1798.53
1818.09
1836.21
1843.27
1845.8
1847.33
1848.62
1849.74
1850.72
1851.58
1852.35
1853.04
1853.63
1854.2
1854.79
1855.28
1855.73
1856.14
1856.52
1856.85
1857.15
1857.4
1857.59
1857.73
1857.79
1857.76
1857.62
1857.33
1856.89
1856.41
1855.08
1855.39
1855.81
1856.41
1857.29
1858.68
1860.9
1789.57
1599.23
1591.67
1720.15
1829.84
1840.49
1844.98
1846.88
1848.31
1849.47
1850.56
1851.46
1852.27
1852.99
1853.63
1854.14
1854.7
1855.29
1855.83
1856.28
1856.7
1857.08
1857.43
1857.74
1858
1858.21
1858.36
1858.43
1858.42
1858.29
1858.01
1857.57
1857.1
1857
1857.37
1857.84
1858.43
1859.19
1860.2
1861.46
1845.38
1600.66
1574.89
1589.04
1805.86
1848.67
1848.88
1849.75
1850.47
1851.15
1851.86
1852.59
1853.22
1853.83
1854.39
1854.86
1855.33
1855.87
1856.42
1856.86
1857.28
1857.67
1858.02
1858.35
1858.63
1858.85
1859.02
1859.12
1859.13
1859.02
1858.77
1858.35
1857.91
1858.86
1859.28
1859.79
1860.44
1861.27
1862.3
1863.53
1865.26
1746.47
1559.37
1558.25
1652.43
1843.58
1849.56
1850.77
1851.76
1852.47
1853.06
1853.68
1854.16
1854.71
1855.2
1855.68
1856.09
1856.57
1857.05
1857.48
1857.9
1858.29
1858.65
1858.98
1859.29
1859.54
1859.73
1859.86
1859.9
1859.83
1859.62
1859.25
1858.85
1860.54
1860.89
1861.28
1861.72
1862.19
1862.63
1862.93
1863.03
1860.63
1614.2
1543.25
1536.31
1720.44
1856.86
1854.93
1854.69
1854.72
1854.85
1855.11
1855.37
1855.6
1856
1856.45
1856.86
1857.29
1857.71
1858.13
1858.54
1858.94
1859.31
1859.67
1860
1860.27
1860.5
1860.66
1860.75
1860.73
1860.58
1860.28
1859.94
1862.23
1862.54
1862.89
1863.27
1863.68
1864.1
1864.47
1864.61
1864.58
1828.96
1555.92
1525.44
1529.58
1776.87
1857.71
1856.3
1856.14
1856.11
1856.22
1856.38
1856.45
1855.56
1855.72
1856.59
1857.94
1858.39
1858.81
1859.15
1859.57
1860.03
1860.41
1860.77
1861.08
1861.35
1861.56
1861.69
1861.74
1861.66
1861.45
1861.18
1863.9
1864.17
1864.47
1864.8
1865.14
1865.5
1865.86
1866.12
1866.19
1866.86
1796.9
1526.65
1517.47
1543.67
1803.92
1857.48
1856.81
1856.88
1857.02
1857.21
1857.39
1856.27
1856.33
1856.66
1857.02
1858.38
1859.47
1859.72
1860.2
1860.8
1861.23
1861.62
1861.98
1862.29
1862.56
1862.76
1862.88
1862.89
1862.77
1862.59
1865.57
1865.81
1866.08
1866.36
1866.66
1866.97
1867.29
1867.59
1867.75
1867.81
1869.15
1780.53
1511.43
1508.02
1547.95
1814.81
1857.6
1857.31
1857.59
1857.78
1857.97
1858.02
1857.9
1857.84
1857.83
1858.28
1859.13
1860.14
1861.03
1861.65
1862.12
1862.56
1862.98
1863.35
1863.69
1863.96
1864.16
1864.26
1864.25
1864.16
1867.25
1867.47
1867.7
1867.96
1868.22
1868.49
1868.77
1869.06
1869.31
1869.4
1869.45
1871.17
1782.83
1502.47
1499.49
1543.44
1817.95
1858.14
1858
1858.33
1858.44
1858.64
1858.94
1859.29
1859.69
1859.26
1859.77
1860.32
1861.88
1862.58
1863.11
1863.62
1864.1
1864.54
1864.95
1865.31
1865.6
1865.8
1865.9
1865.92
1868.94
1869.14
1869.36
1869.58
1869.82
1870.05
1870.29
1870.54
1870.79
1871.01
1871.06
1871.08
1872.72
1784.66
1493.57
1490.12
1529.03
1809.91
1858.92
1858.74
1859.04
1858.81
1850.09
1859.45
1860.07
1860.63
1860.47
1861.21
1862.85
1863.59
1864.2
1864.79
1865.35
1865.87
1866.36
1866.81
1867.2
1867.51
1867.73
1867.84
1870.64
1870.84
1871.04
1871.25
1871.45
1871.66
1871.85
1872.04
1872.23
1872.43
1872.58
1872.55
1872.44
1873.78
1775.35
1480.42
1476.85
1506.7
1793.68
1859.91
1859.74
1860.08
1809.42
1773.66
1845.87
1861.14
1861.91
1862.87
1863.92
1864.7
1865.41
1866.08
1866.73
1867.35
1867.93
1868.47
1868.97
1869.4
1869.74
1869.96
1872.37
1872.58
1872.78
1872.97
1873.15
1873.32
1873.47
1873.6
1873.73
1873.84
1873.93
1873.96
1873.77
1873.46
1874.55
1765.59
1466.09
1462.31
1481.46
1764.85
1862.59
1863.78
1804.23
1740.57
1753.49
1856.74
1863.49
1864.33
1865.19
1866
1866.78
1867.54
1868.27
1868.98
1869.66
1870.3
1870.91
1871.47
1871.93
1872.26
1874.17
1874.39
1874.6
1874.77
1874.93
1875.06
1875.17
1875.26
1875.32
1875.36
1875.37
1875.35
1875.24
1874.9
1874.42
1875.34
1750.21
1450.03
1445.09
1454.93
1743.1
1868.89
1867.24
1734.99
1691.65
1798.37
1864.26
1865.22
1866.31
1867.3
1868.22
1869.09
1869.93
1870.75
1871.54
1872.29
1873.02
1873.71
1874.32
1874.77
1876.07
1876.31
1876.52
1876.68
1876.81
1876.91
1876.98
1877.02
1877.03
1877.02
1876.97
1876.89
1876.78
1876.57
1876.12
1875.55
1876.38
1721.94
1431.78
1422.48
1433.15
1741.17
1871.14
1772.53
1680.84
1676.76
1822.08
1867.67
1868.3
1869.12
1869.99
1870.89
1871.8
1872.7
1873.59
1874.46
1875.32
1876.15
1876.9
1877.48
1878.14
1878.39
1878.57
1878.71
1878.81
1878.87
1878.89
1878.89
1878.87
1878.81
1878.73
1878.62
1878.49
1878.32
1878.07
1877.6
1877.07
1878.11
1677.43
1409.14
1404.41
1421.73
1761.47
1773.84
1710.82
1667.98
1666.2
1818.98
1869.39
1870.5
1871.6
1872.67
1873.73
1874.77
1875.79
1876.79
1877.79
1878.77
1879.69
1880.4
1880.43
1880.65
1880.79
1880.88
1880.92
1880.93
1880.91
1880.87
1880.8
1880.72
1880.62
1880.5
1880.36
1880.2
1880.03
1879.79
1879.32
1878.87
1880.35
1616.43
1390.94
1387.17
1412.09
1716.3
1716.62
1680.08
1658.42
1657.72
1821.53
1871.96
1873.32
1874.58
1875.8
1876.99
1878.16
1879.3
1880.45
1881.6
1882.7
1882.93
1883.04
1883.13
1883.17
1883.16
1883.13
1883.07
1882.99
1882.91
1882.81
1882.7
1882.59
1882.47
1882.35
1882.22
1882.1
1881.97
1881.78
1881.38
1881.13
1880.66
1550.38
1373.79
1369.61
1402.29
1689.49
1689.91
1658
1653.15
1653.47
1829.19
1875.22
1876.68
1878.07
1879.41
1880.71
1882
1883.3
1884.64
1885.95
1885.59
1885.83
1885.73
1885.62
1885.49
1885.36
1885.22
1885.09
1884.96
1884.83
1884.71
1884.6
1884.49
1884.4
1884.32
1884.25
1884.21
1884.18
1884.09
1883.83
1883.91
1857.84
1475.8
1355.34
1351.31
1394.43
1672.1
1672.77
1654
1644.89
1662.77
1842.42
1878.94
1880.49
1882.01
1883.45
1884.87
1886.33
1887.87
1889.41
1889.2
1888.61
1888.3
1888.01
1887.76
1887.53
1887.31
1887.12
1886.95
1886.81
1886.68
1886.58
1886.5
1886.45
1886.42
1886.42
1886.46
1886.52
1886.59
1886.58
1886.4
1886.68
1804.65
1384.1
1338.66
1333.79
1396.61
1666.6
1666.22
1642.3
1642.61
1727.17
1876.83
1883.43
1884.96
1886.46
1887.96
1889.53
1891.26
1893.06
1893.05
1891.1
1890.61
1890.19
1889.83
1889.52
1889.24
1889.01
1888.82
1888.67
1888.55
1888.48
1888.45
1888.45
1888.51
1888.61
1888.76
1888.96
1889.23
1889.55
1889.81
1890.01
1890.91
1665.62
1324.48
1322.16
1318.86
1418.34
1637.2
1639.62
1640.87
1708.45
1877.26
1886.73
1888.22
1889.7
1891.21
1892.87
1894.77
1896.84
1897.14
1893.14
1892.54
1892.03
1891.6
1891.24
1890.93
1890.69
1890.49
1890.35
1890.27
1890.23
1890.26
1890.34
1890.49
1890.7
1890.98
1891.34
1891.79
1892.34
1892.96
1893.56
1894.33
1896.63
1513.2
1310.45
1308.72
1306.94
1477.97
1721.5
1704.8
1768.77
1885.44
1890.95
1892.06
1893.27
1894.66
1896.32
1898.35
1900.65
1901.64
1894.65
1894.01
1893.46
1893.01
1892.63
1892.32
1892.08
1891.91
1891.81
1891.77
1891.79
1891.89
1892.05
1892.29
1892.61
1893.03
1893.53
1894.15
1894.89
1895.75
1896.7
1897.71
1899.16
1843.77
1365.98
1299.4
1297.45
1382.25
1792.94
1882.42
1883.15
1892.72
1896.02
1896.39
1897.14
1898.29
1899.86
1901.94
1904.39
1905.83
1895.65
1895.02
1894.47
1894.02
1893.65
1893.37
1893.16
1893.03
1892.98
1893.01
1893.11
1893.28
1893.54
1893.88
1894.31
1894.85
1895.49
1896.27
1897.2
1898.32
1899.65
1901.24
1903.21
1906.15
1574.96
1287.61
1287.84
1380.58
1833.52
1902.89
1901.88
1899.86
1899.97
1900.26
1900.83
1901.86
1903.36
1905.42
1907.92
1909.14
1896.22
1895.61
1895.08
1894.64
1894.3
1894.05
1893.9
1893.84
1893.86
1893.97
1894.16
1894.43
1894.79
1895.22
1895.75
1896.37
1897.1
1897.95
1898.94
1900.11
1901.5
1903.14
1905.13
1907.91
1862.88
1347.63
1279.46
1436.18
1871.92
1905.77
1904.88
1904.12
1903.7
1903.86
1904.4
1905.34
1906.76
1908.74
1911.14
1911.22
1896.43
1895.82
1895.29
1894.88
1894.57
1894.37
1894.29
1894.32
1894.44
1894.66
1894.96
1895.34
1895.8
1896.33
1896.93
1897.61
1898.37
1899.22
1900.16
1901.21
1902.38
1903.68
1905.16
1906.88
1908.64
1508.99
1275.51
1522.81
1898.58
1908.44
1907.75
1907.24
1907.06
1907.21
1907.74
1908.64
1909.96
1911.79
1914
1912.75
1896.32
1895.69
1895.14
1894.72
1894.44
1894.31
1894.32
1894.47
1894.73
1895.09
1895.53
1896.05
1896.63
1897.27
1897.96
1898.7
1899.48
1900.3
1901.16
1902.05
1902.97
1903.89
1904.8
1905.61
1906.16
1723.53
1289.6
1611.45
1910.29
1911.13
1910.49
1910.13
1910.06
1910.26
1910.8
1911.66
1912.88
1914.54
1916.49
1914.71
1895.96
1895.25
1894.62
1894.14
1893.87
1893.82
1893.97
1894.29
1894.74
1895.29
1895.93
1896.63
1897.38
1898.15
1898.96
1899.77
1900.59
1901.41
1902.21
1902.98
1903.7
1904.34
1904.85
1905.16
1905.16
1863.29
1415.74
1664.24
1911.74
1912.54
1912.39
1912.4
1912.58
1912.94
1913.53
1914.39
1915.52
1916.99
1918.66
1916.48
1895.41
1894.51
1893.67
1893.04
1892.74
1892.81
1893.17
1893.75
1894.49
1895.33
1896.23
1897.17
1898.13
1899.1
1900.05
1900.98
1901.88
1902.74
1903.55
1904.28
1904.94
1905.49
1905.9
1906.13
1906.12
1906.08
1566.5
1707.46
1910.74
1913.81
1914.11
1914.46
1914.88
1915.38
1916.04
1916.89
1917.94
1919.23
1920.31
1918.04
1894.79
1893.38
1892.25
1891.22
1890.79
1891.06
1891.84
1892.87
1894.03
1895.26
1896.53
1897.78
1899.02
1900.22
1901.36
1902.45
1903.47
1904.41
1905.26
1906.02
1906.67
1907.19
1907.55
1907.73
1907.64
1907.19
1658.44
1731.76
1908.12
1915.73
1916.16
1916.66
1917.19
1917.77
1918.46
1919.28
1920.24
1921.35
1921.76
1919.58
1894.46
1892.43
1890.3
1887.72
1886.25
1887.72
1889.81
1891.64
1893.46
1895.24
1896.97
1898.61
1900.17
1901.64
1903.02
1904.29
1905.46
1906.52
1907.47
1908.31
1909.04
1909.67
1910.21
1910.68
1911.17
1911.83
1650.56
1693.41
1892.53
1917.01
1917.96
1918.75
1919.44
1920.13
1920.84
1921.63
1922.49
1923.43
1923.62
1921.13
1894.93
1892.84
1789.93
1724.47
1821.85
1882.92
1886.88
1890.17
1892.99
1895.5
1897.77
1899.84
1901.75
1903.51
1905.13
1906.61
1907.94
1909.13
1910.17
1911.1
1911.91
1912.66
1913.39
1914.18
1915.3
1917.55
1621.8
1632.57
1872.75
1918.73
1920.09
1921.09
1921.89
1922.61
1923.31
1924.03
1924.77
1925.55
1925.78
1922.77
1897.25
1895.22
1632.84
1240.54
1494.09
1868.49
1886.07
1890.3
1893.85
1896.85
1899.48
1901.83
1903.99
1906
1907.84
1909.46
1910.94
1912.22
1913.29
1914.17
1914.86
1915.36
1915.63
1915.67
1915.39
1902.71
1589.2
1633.67
1881.4
1924.18
1924.34
1924.66
1925.03
1925.49
1926.01
1926.57
1927.16
1927.76
1928.13
1924.52
1899.61
1896.4
1593.13
1205.18
1180.19
1661.65
1887.31
1892.12
1896.21
1899.51
1902.3
1904.73
1906.97
1908.56
1910.41
1912.86
1914.66
1915.99
1917.1
1917.98
1918.64
1919.06
1919.24
1919.1
1918.53
1877.47
1581.68
1638.73
1894.44
1927.72
1927.63
1927.73
1927.93
1928.26
1928.68
1929.12
1929.58
1930.03
1930.39
1926.38
1906.36
1905.62
1857.12
1317.82
999.92
1314.86
1859.81
1894.1
1899.38
1903.27
1906.16
1892.19
1892.44
1907.36
1914.83
1917.41
1919.13
1920.5
1921.61
1922.5
1923.17
1923.64
1923.91
1923.97
1923.74
1843.79
1575.58
1662.69
1912.85
1930.18
1930.24
1930.38
1930.61
1930.9
1931.25
1931.62
1931.99
1932.33
1932.59
1928.35
1914.58
1913.99
1881.01
1340.03
969.821
1021.35
1621.09
1902.01
1906.57
1910.18
1897.09
1775.3
1811.55
1909.65
1920.91
1922.95
1924.51
1925.78
1926.81
1927.64
1928.31
1928.84
1929.29
1929.72
1930.14
1768.06
1570.04
1713.54
1927.1
1932.17
1932.46
1932.74
1933.03
1933.35
1933.68
1934.01
1934.33
1934.6
1934.76
1933.33
1928.43
1923.82
1614.76
1032.21
961.039
960.24
1058.22
1713.7
1916.65
1912.82
1780.41
1774.14
1779.95
1909.19
1927.82
1929.38
1930.62
1931.63
1932.44
1933.12
1933.7
1934.23
1934.82
1935.64
1936.96
1642.3
1564.83
1773.04
1932.26
1933.91
1934.48
1934.91
1935.27
1935.59
1935.93
1936.26
1936.56
1936.81
1936.95
1936.97
1940.23
1908.26
1336.03
963.196
961.403
961.463
961.429
973.852
1522.19
1904.62
1826.8
1778.53
1825.56
1928.9
1935.21
1936.23
1937.02
1937.63
1938.12
1938.54
1938.88
1939.23
1939.72
1940.56
1938.54
1575.36
1560.84
1818.53
1934.76
1936.03
1936.64
1937.06
1937.38
1937.67
1937.99
1938.31
1938.63
1938.92
1939.1
1939.15
1936.72
1905.93
1382.88
970.805
961.647
961.042
961.264
961.49
961.443
1254.07
1856.39
1916.02
1923.49
1937.4
1943.47
1943.58
1943.39
1943.41
1943.52
1943.36
1943.05
1942.65
1942.2
1941.72
1866.55
1575.12
1573.57
1875.77
1939.89
1939.82
1939.68
1939.59
1939.56
1939.65
1939.86
1940.14
1940.49
1940.87
1941.17
1941.33
1874
1941.62
1898.18
1567.77
1270.07
1110.84
997.341
958.82
959.083
961.102
1121.35
1791.75
1950.38
1946.06
1936.51
1934.58
1943.83
1949.31
1948.7
1947.93
1947.05
1946.03
1944.88
1943.76
1770.36
1573.87
1617.36
1911.46
1943.98
1942.84
1942.12
1941.61
1941.31
1941.23
1941.35
1941.63
1942.05
1942.58
1943.09
1943.41
1865.81
1930.92
1941.68
1946.12
1952.7
1859.09
1636.89
1338.78
1096.96
977.993
981.536
990.427
1511.74
1962.8
1946.69
1939.34
1950.55
1954.42
1953.44
1952.16
1950.74
1949.2
1947.62
1946.54
1726.9
1569.94
1598.87
1904.71
1945.83
1944.45
1943.57
1942.88
1942.43
1942.25
1942.33
1942.65
1943.21
1943.96
1944.76
1945.32
1918.3
1906.05
1935
1939.76
1943.53
1947.01
1951.12
1957.49
1835.47
1570.88
1204.24
1049.49
1046.16
1043.38
1581.47
1970.05
1961.41
1957.9
1956.69
1955.48
1953.75
1951.71
1949.66
1948.55
1701.71
1559.08
1563.72
1883.93
1946.79
1945.21
1944.2
1943.39
1942.85
1942.61
1942.69
1943.1
1943.85
1944.88
1946.07
1946.95
1917.04
1924.37
1931.28
1937.45
1942.87
1947.18
1950.34
1952.41
1954.47
1959.52
1923.87
1658.12
1221.22
1073.8
1076.47
1147.39
1783.29
1967.36
1959.26
1957.22
1955.58
1953.24
1950.65
1949.3
1684.81
1548.78
1546.08
1858.75
1947.04
1945.09
1943.95
1943.04
1942.43
1942.17
1942.31
1942.85
1943.83
1945.25
1946.56
1948.18
1910.07
1918.89
1927.37
1935.23
1942.24
1948.25
1953.15
1956.79
1959.07
1960.14
1960.99
1965.5
1967.9
1636.55
1129.27
1092.33
1088.63
1371.17
1948.9
1960.64
1955.74
1952.99
1950.11
1948.36
1674.29
1541.72
1539.51
1808.62
1946.18
1943.78
1942.55
1941.63
1941.02
1940.81
1941.06
1941.79
1943.07
1944.92
1946.4
1947.73
1901.59
1912.6
1923.12
1932.85
1941.53
1949.02
1955.23
1960.12
1963.68
1965.86
1966.53
1965.72
1964.28
1967.34
1970.91
1464.02
1071.58
1077.97
1154.48
1769.42
1960.25
1951.08
1947.41
1945.43
1714.01
1534.15
1531.93
1724.5
1942.85
1940.93
1939.76
1938.98
1938.47
1938.4
1938.82
1939.8
1941.44
1943.81
1945.98
1943.28
1891.45
1905.23
1918.26
1930.19
1940.73
1949.74
1957.14
1962.91
1967.11
1969.81
1971.06
1970.81
1968.89
1965.26
1961.38
1965.64
1884.87
1174.14
1121.06
1114.1
1496.96
1951.95
1945.31
1943.08
1847.44
1522.19
1522.49
1590.3
1914.67
1935.83
1935.07
1934.76
1934.58
1934.77
1935.46
1936.75
1938.8
1941.74
1944.5
1942.33
1879.7
1896.58
1912.61
1926.99
1939.52
1950.07
1958.58
1965.09
1969.69
1972.5
1973.67
1973.36
1971.65
1968.52
1963.78
1957.92
1953.91
1961.62
1611.17
1100.18
1115.68
1364.04
1916.8
1937.65
1935.23
1570.47
1510.31
1508.45
1832.71
1930.62
1929.57
1929.5
1929.58
1930
1930.95
1932.57
1935.03
1938.55
1942.04
1940.37
1866.78
1886.8
1906.42
1923.38
1937.82
1949.69
1959.07
1966.09
1970.88
1973.62
1974.49
1973.74
1971.6
1968.33
1964.1
1958.91
1952.67
1946.86
1948.72
1824.98
1184.41
1181.08
1384.06
1913.89
1924.39
1646.69
1497.9
1498.64
1757.19
1923.86
1922.64
1922.82
1923.21
1923.91
1925.16
1927.12
1930.02
1934.12
1938.52
1937.18
1848.63
1879.99
1902.07
1920.62
1936.04
1948.49
1958.16
1965.23
1969.85
1972.22
1972.55
1971.11
1968.19
1964.1
1959.21
1953.8
1948.05
1941.9
1936.08
1935.27
1836.82
1196.98
1195.29
1592.24
1915.39
1711.85
1486.96
1486.11
1741.79
1914.89
1913.99
1914.58
1915.36
1916.41
1918.01
1920.34
1923.66
1928.3
1933.63
1935.04
1810.74
1878.27
1902.74
1919.7
1934.24
1946.09
1955.17
1961.64
1965.61
1967.26
1966.77
1964.41
1960.48
1955.32
1949.3
1942.8
1936.16
1929.51
1922.55
1915.48
1913.09
1690.37
1175.24
1256.23
1822.56
1811.69
1530.45
1471.11
1711.28
1902.62
1902.89
1904.34
1905.79
1907.38
1909.43
1912.17
1915.91
1921.04
1927.12
1932.4
1705.7
1883.37
1906.35
1919.14
1931.1
1941.24
1948.94
1954.19
1957.07
1957.66
1956.1
1952.62
1947.52
1941.16
1933.97
1926.4
1918.86
1911.66
1904.81
1897.83
1891.26
1892.21
1512.83
1247.56
1365.8
1692.07
1651.41
1535.61
1756.62
1890.8
1891.96
1893.63
1895.37
1897.3
1899.7
1902.76
1906.84
1912.35
1918.98
1924.63
1628.77
1892.27
1908.75
1916.46
1924.98
1932.63
1938.31
1941.87