/*--------------------------------*- C++ -*----------------------------------*\
  =========                 |
  \\      /  F ield         | OpenFOAM: The Open Source CFD Toolbox
   \\    /   O peration     | Website:  https://openfoam.org
    \\  /    A nd           | Version:  8
     \\/     M anipulation  |
\*---------------------------------------------------------------------------*/
FoamFile
{
    version     2.0;
    format      ascii;
    class       surfaceScalarField;
    location    "2.15";
    object      phi;
}
// * * * * * * * * * * * * * * * * * * * * * * * * * * * * * * * * * * * * * //

dimensions      [0 3 -1 0 0 0 0];

internalField   nonuniform List<scalar> 
18095
(
1.58021e-07
-9.65343e-07
8.07321e-07
1.65191e-07
-1.24836e-06
1.2412e-06
1.22114e-07
-1.24236e-06
1.28544e-06
6.52721e-08
-1.26349e-06
1.32033e-06
-3.30145e-11
-1.2805e-06
1.34581e-06
-6.53324e-08
-1.2805e-06
1.34579e-06
-1.22159e-07
-1.26347e-06
1.3203e-06
-1.65219e-07
-1.24233e-06
1.28539e-06
-1.58033e-07
-1.24834e-06
1.24115e-06
-9.65305e-07
8.07272e-07
1.10987e-07
-1.07633e-06
9.93684e-08
-1.23675e-06
7.28189e-08
-1.21581e-06
4.00055e-08
-1.23068e-06
-2.40755e-11
-1.24047e-06
-4.00501e-08
-1.24047e-06
-7.28544e-08
-1.23067e-06
-9.93933e-08
-1.21579e-06
-1.11e-07
-1.23673e-06
-1.0763e-06
6.72315e-08
-1.14356e-06
5.27819e-08
-1.2223e-06
4.21198e-08
-1.20515e-06
2.38458e-08
-1.2124e-06
-1.74205e-11
-1.21661e-06
-2.38784e-08
-1.21661e-06
-4.21466e-08
-1.2124e-06
-5.28014e-08
-1.20514e-06
-6.72432e-08
-1.22229e-06
-1.14355e-06
3.97775e-08
-1.18334e-06
2.66669e-08
-1.20919e-06
2.20036e-08
-1.20048e-06
1.25215e-08
-1.20292e-06
-1.17605e-11
-1.20408e-06
-1.25437e-08
-1.20408e-06
-2.2022e-08
-1.20292e-06
-2.66803e-08
-1.20048e-06
-3.97864e-08
-1.20918e-06
-1.18333e-06
1.66611e-08
7.47585e-09
6.99215e-09
4.07151e-09
-5.12455e-12
-4.08129e-09
-7.00026e-09
-7.48152e-09
-1.66656e-08
-1.74022e-07
-1.16442e-06
1.33844e-06
-2.1787e-07
-1.21605e-06
1.2599e-06
-1.64692e-07
-1.21281e-06
1.15963e-06
-8.7279e-08
-1.20433e-06
1.12692e-06
-3.51476e-10
-1.20291e-06
1.11598e-06
8.65908e-08
-1.20286e-06
1.11591e-06
1.64069e-07
-1.20418e-06
1.1267e-06
2.17318e-07
-1.21259e-06
1.15934e-06
1.73559e-07
-1.21576e-06
1.25952e-06
-1.16409e-06
1.33765e-06
-9.32372e-08
-1.07118e-06
-9.56169e-08
-1.21367e-06
-7.91645e-08
-1.22926e-06
-4.42737e-08
-1.23922e-06
-1.97116e-10
-1.24699e-06
4.38957e-08
-1.24695e-06
7.8831e-08
-1.23912e-06
9.53533e-08
-1.22911e-06
9.30881e-08
-1.2135e-06
-1.071e-06
-5.79646e-08
-1.01322e-06
-5.52089e-08
-1.21643e-06
-4.65391e-08
-1.23793e-06
-2.71866e-08
-1.25858e-06
-1.16997e-10
-1.27406e-06
2.69641e-08
-1.27403e-06
4.63497e-08
-1.2585e-06
5.50723e-08
-1.23783e-06
5.78976e-08
-1.21632e-06
-1.0131e-06
-7.48473e-08
-9.38369e-07
-6.19787e-08
-1.2293e-06
-4.86017e-08
-1.25131e-06
-2.78118e-08
-1.27937e-06
-7.20477e-11
-1.3018e-06
2.76759e-08
-1.30178e-06
4.84894e-08
-1.27932e-06
6.19026e-08
-1.25125e-06
7.48108e-08
-1.22923e-06
-9.38293e-07
-1.31047e-07
-1.19149e-07
-8.50232e-08
-4.40583e-08
-4.72211e-11
4.39695e-08
8.49501e-08
1.19098e-07
1.31021e-07
-3.02484e-08
-9.28728e-07
9.58977e-07
5.77333e-09
-1.34468e-06
1.30866e-06
7.05395e-09
-1.27815e-06
1.27687e-06
1.29538e-09
-1.22906e-06
1.23482e-06
-3.68906e-09
-1.22611e-06
1.23109e-06
-8.40797e-09
-1.22564e-06
1.23036e-06
-1.34315e-08
-1.22881e-06
1.23383e-06
-1.23776e-08
-1.27831e-06
1.27726e-06
1.49716e-08
-1.34265e-06
1.3153e-06
-9.1787e-07
9.32841e-07
1.59444e-08
-9.44673e-07
2.08448e-08
-1.34958e-06
1.196e-08
-1.26926e-06
4.34752e-09
-1.22144e-06
-2.737e-09
-1.21902e-06
-9.84068e-09
-1.21854e-06
-1.71856e-08
-1.22146e-06
-2.70577e-08
-1.26844e-06
-2.11318e-08
-1.34858e-06
-9.39001e-07
2.95195e-08
-9.74192e-07
1.9924e-08
-1.33999e-06
1.1241e-08
-1.26058e-06
5.67056e-09
-1.21587e-06
-1.56655e-09
-1.21179e-06
-8.43309e-09
-1.21167e-06
-1.41019e-08
-1.21579e-06
-2.2579e-08
-1.25996e-06
-3.20615e-08
-1.3391e-06
-9.71063e-07
7.93084e-08
-1.0535e-06
5.14865e-08
-1.31217e-06
3.24385e-08
-1.24153e-06
2.00683e-08
-1.2035e-06
-9.54468e-10
-1.19076e-06
-2.19383e-08
-1.19069e-06
-3.45497e-08
-1.20318e-06
-5.34744e-08
-1.24104e-06
-8.0854e-08
-1.31172e-06
-1.05192e-06
2.84938e-07
2.32673e-07
1.50775e-07
7.4192e-08
-5.88046e-10
-7.53619e-08
-1.51837e-07
-2.33536e-07
-2.85732e-07
-5.53291e-08
-1.0826e-08
6.61551e-08
-4.42207e-08
-1.11091e-08
-3.29184e-08
-1.13023e-08
-2.15096e-08
-1.14086e-08
-1.0083e-08
-1.14263e-08
1.27323e-09
-1.1356e-08
1.24776e-08
-1.12041e-08
2.34508e-08
-1.09729e-08
3.41126e-08
-1.06616e-08
-1.02687e-08
4.43816e-08
-4.67675e-08
-1.95823e-08
5.55235e-08
-3.77614e-08
-2.01155e-08
-2.85788e-08
-2.04849e-08
-1.92964e-08
-2.0691e-08
-9.98807e-09
-2.07346e-08
-7.26209e-10
-2.06178e-08
8.41381e-09
-2.03442e-08
1.73586e-08
-1.99178e-08
2.60395e-08
-1.93426e-08
-1.86221e-08
3.43928e-08
-4.04504e-08
-2.69565e-08
4.78245e-08
-3.28621e-08
-2.77038e-08
-2.51232e-08
-2.82236e-08
-1.72987e-08
-2.85152e-08
-9.45275e-09
-2.85803e-08
-1.64837e-09
-2.8422e-08
6.0519e-09
-2.80442e-08
1.35867e-08
-2.74523e-08
2.0897e-08
-2.66528e-08
-2.56533e-08
2.79284e-08
-3.55176e-08
-3.32977e-08
4.18587e-08
-2.89919e-08
-3.42295e-08
-2.23381e-08
-3.48775e-08
-1.56121e-08
-3.52412e-08
-8.86977e-09
-3.53227e-08
-2.16636e-09
-3.51255e-08
4.44375e-09
-3.46543e-08
1.09072e-08
-3.39158e-08
1.71725e-08
-3.2918e-08
-3.16711e-08
2.31905e-08
-3.15493e-08
-3.88241e-08
3.70756e-08
-2.58646e-08
-3.99141e-08
-2.00708e-08
-4.06712e-08
-1.42169e-08
-4.10951e-08
-8.35163e-09
-4.1188e-08
-2.5237e-09
-4.09534e-08
3.21863e-09
-4.03967e-08
8.82777e-09
-3.95249e-08
1.42572e-08
-3.83473e-08
-3.68756e-08
1.94617e-08
-2.83399e-08
-4.36929e-08
3.32087e-08
-2.33356e-08
-4.49184e-08
-1.82383e-08
-4.57685e-08
-1.30906e-08
-4.62429e-08
-7.93525e-09
-4.63434e-08
-2.81516e-09
-4.60735e-08
2.22653e-09
-4.54384e-08
7.14666e-09
-4.4445e-08
1.19023e-08
-4.31029e-08
-4.14243e-08
1.6451e-08
-2.57287e-08
-4.80166e-08
3.00525e-08
-2.12875e-08
-4.93596e-08
-1.67654e-08
-5.02906e-08
-1.2199e-08
-5.08093e-08
-7.62545e-09
-5.09169e-08
-3.08267e-09
-5.06163e-08
1.3907e-09
-4.99118e-08
5.7552e-09
-4.88096e-08
9.97053e-09
-4.73182e-08
-4.54494e-08
1.39957e-08
-2.35767e-08
-5.18708e-08
2.74309e-08
-1.9617e-08
-5.33191e-08
-1.55828e-08
-5.43248e-08
-1.15054e-08
-5.48867e-08
-7.4168e-09
-5.50056e-08
-3.35013e-09
-5.4683e-08
6.60175e-10
-5.3922e-08
4.57797e-09
-5.27273e-08
8.36531e-09
-5.11055e-08
-4.90661e-08
1.19821e-08
-2.17715e-08
-5.53012e-08
2.52019e-08
-1.82404e-08
-5.68503e-08
-1.46346e-08
-5.79306e-08
-1.09807e-08
-5.85406e-08
-7.30609e-09
-5.86801e-08
-3.63945e-09
-5.83496e-08
-1.09205e-11
-5.75505e-08
3.54711e-09
-5.62852e-08
6.99956e-09
-5.45578e-08
-5.23742e-08
1.03078e-08
-2.02376e-08
-5.83347e-08
2.3271e-08
-1.71007e-08
-5.99873e-08
-1.38831e-08
-6.11482e-08
-1.06077e-08
-6.18159e-08
-7.29794e-09
-6.19898e-08
-3.97769e-09
-6.16697e-08
-6.72497e-10
-6.08555e-08
2.59009e-09
-5.95477e-08
5.7792e-09
-5.77469e-08
-5.54547e-08
8.85968e-09
-1.89388e-08
-6.09963e-08
2.16005e-08
-1.6167e-08
-6.27593e-08
-1.33064e-08
-6.40089e-08
-1.03773e-08
-6.47449e-08
-7.39955e-09
-6.49676e-08
-4.39227e-09
-6.4677e-08
-1.37542e-09
-6.38724e-08
1.62964e-09
-6.25528e-08
4.59884e-09
-6.07161e-08
-5.83596e-08
7.50369e-09
-1.78617e-08
-6.33289e-08
2.01942e-08
-1.54167e-08
-6.52044e-08
-1.28802e-08
-6.65455e-08
-1.02703e-08
-6.73548e-08
-7.6031e-09
-6.76348e-08
-4.89293e-09
-6.73872e-08
-2.15328e-09
-6.66121e-08
6.0203e-10
-6.53082e-08
3.35795e-09
-6.34721e-08
-6.10978e-08
6.09613e-09
-1.69758e-08
-6.54065e-08
1.90533e-08
-1.48007e-08
-6.73795e-08
-1.25466e-08
-6.87997e-08
-1.0228e-08
-6.96734e-08
-7.85646e-09
-7.00065e-08
-5.44077e-09
-6.98029e-08
-2.98807e-09
-6.90649e-08
-5.04108e-10
-6.77922e-08
2.00567e-09
-6.59819e-08
-6.3627e-08
4.53503e-09
-1.61585e-08
-6.7316e-08
1.8068e-08
-1.41899e-08
-6.93482e-08
-1.21739e-08
-7.08157e-08
-1.01193e-08
-7.17281e-08
-8.03189e-09
-7.2094e-08
-5.91515e-09
-7.19197e-08
-3.77052e-09
-7.12095e-08
-1.59745e-09
-6.99653e-08
6.06385e-10
-6.81857e-08
-6.58657e-08
2.84509e-09
-1.51588e-08
-6.9114e-08
1.69568e-08
-1.33534e-08
-7.11537e-08
-1.15439e-08
-7.26252e-08
-9.73218e-09
-7.35398e-08
-7.91872e-09
-7.39074e-08
-6.10294e-09
-7.37355e-08
-4.28288e-09
-7.30295e-08
-2.4554e-09
-7.17927e-08
-6.15499e-10
-7.00254e-08
-6.77253e-08
1.2443e-09
-1.36716e-08
-7.08101e-08
1.53677e-08
-1.2017e-08
-7.28084e-08
-1.03998e-08
-7.42423e-08
-8.81635e-09
-7.51231e-08
-7.26345e-09
-7.54602e-08
-5.73845e-09
-7.52604e-08
-4.23962e-09
-7.45283e-08
-2.76621e-09
-7.3266e-08
-1.31874e-09
-7.14729e-08
-6.9145e-08
1.00943e-10
-1.14378e-08
-7.23853e-08
1.3013e-08
-9.93911e-09
-7.43071e-08
-8.50646e-09
-7.5675e-08
-7.13085e-09
-7.64987e-08
-5.80477e-09
-7.67862e-08
-4.52226e-09
-7.65429e-08
-3.27893e-09
-7.57716e-08
-2.07167e-09
-7.44732e-08
-8.98759e-10
-7.26457e-08
-7.02845e-08
2.40868e-10
-8.29458e-09
-7.38004e-08
9.70974e-09
-6.97171e-09
-7.56299e-08
-5.72543e-09
-7.69212e-08
-4.54235e-09
-7.76818e-08
-3.41095e-09
-7.79176e-08
-2.32165e-09
-7.76322e-08
-1.26629e-09
-7.6827e-08
-2.37957e-10
-7.55015e-08
7.69696e-10
-7.36533e-08
-7.12781e-08
1.76331e-09
-4.18443e-09
-7.50021e-08
5.38608e-09
-3.06784e-09
-7.67465e-08
-2.01799e-09
-7.79711e-08
-1.01867e-09
-7.86811e-08
-5.57153e-11
-7.88806e-08
8.83656e-10
-7.85716e-08
1.81129e-09
-7.77546e-08
2.73883e-09
-7.6429e-08
3.67863e-09
-7.45931e-08
-7.22446e-08
4.64516e-09
8.18769e-10
-7.59458e-08
1.24951e-10
1.70232e-09
-7.76299e-08
2.54441e-09
-7.88131e-08
3.36206e-09
-7.94987e-08
4.17055e-09
-7.9689e-08
4.98376e-09
-7.93847e-08
5.81476e-09
-7.85856e-08
6.67646e-09
-7.72908e-08
7.58254e-09
-7.54992e-08
-7.32106e-08
8.54853e-09
6.56398e-09
-7.66037e-08
-5.90605e-09
7.19711e-09
-7.8263e-08
7.824e-09
-7.944e-08
8.46151e-09
-8.01362e-08
9.12481e-09
-8.03522e-08
9.82739e-09
-8.00873e-08
1.05816e-08
-7.93397e-08
1.13989e-08
-7.81081e-08
1.22908e-08
-7.63912e-08
-7.41893e-08
1.32695e-08
1.28582e-08
-7.69646e-08
-1.24973e-08
1.32339e-08
-7.86386e-08
1.36431e-08
-7.98491e-08
1.41031e-08
-8.0596e-08
1.46286e-08
-8.08777e-08
1.52323e-08
-8.06909e-08
1.59244e-08
-8.00319e-08
1.67137e-08
-7.88974e-08
1.76075e-08
-7.7285e-08
-7.51945e-08
1.86126e-08
1.94973e-08
-7.70306e-08
-1.94313e-08
1.96155e-08
-7.87567e-08
1.98079e-08
-8.00413e-08
2.00938e-08
-8.08818e-08
2.04889e-08
-8.12727e-08
2.10049e-08
-8.12069e-08
2.16496e-08
-8.06766e-08
2.24277e-08
-7.96754e-08
2.33412e-08
-7.81984e-08
-7.62438e-08
2.43908e-08
2.62879e-08
-7.68086e-08
-2.65099e-08
2.61488e-08
-7.86174e-08
2.61235e-08
-8.0016e-08
2.6238e-08
-8.09963e-08
2.65109e-08
-8.15456e-08
2.6953e-08
-8.16491e-08
2.75686e-08
-8.12923e-08
2.83565e-08
-8.04634e-08
2.9312e-08
-7.91539e-08
-7.73598e-08
3.0428e-08
3.30635e-08
-7.62937e-08
-3.35783e-08
3.26541e-08
-7.82077e-08
3.24017e-08
-7.97636e-08
3.23454e-08
-8.09399e-08
3.25081e-08
-8.17083e-08
3.28983e-08
-8.20392e-08
3.35133e-08
-8.19072e-08
3.43426e-08
-8.12926e-08
3.53712e-08
-8.01824e-08
-7.85707e-08
3.65821e-08
3.96879e-08
-7.54424e-08
-4.05392e-08
3.89635e-08
-7.74835e-08
3.84586e-08
-7.92588e-08
3.82323e-08
-8.07137e-08
3.831e-08
-8.17861e-08
3.86906e-08
-8.242e-08
3.9356e-08
-8.25728e-08
4.0279e-08
-8.22157e-08
4.14284e-08
-8.1332e-08
-7.99159e-08
4.27735e-08
4.60505e-08
-7.41312e-08
-4.73617e-08
4.49092e-08
-7.63421e-08
4.41061e-08
-7.84557e-08
4.37259e-08
-8.03336e-08
4.378e-08
-8.18401e-08
4.42366e-08
-8.28765e-08
4.50442e-08
-8.33805e-08
4.61459e-08
-8.33174e-08
4.74868e-08
-8.26728e-08
-8.14475e-08
4.90183e-08
5.20184e-08
-7.21359e-08
-5.40137e-08
5.02893e-08
-7.46134e-08
4.91477e-08
-7.73143e-08
4.86946e-08
-7.98805e-08
4.88715e-08
-8.20171e-08
4.95671e-08
-8.35722e-08
5.06667e-08
-8.44802e-08
5.20688e-08
-8.47196e-08
5.36894e-08
-8.42937e-08
-8.32208e-08
5.54627e-08
5.74206e-08
-6.90465e-08
-6.051e-08
5.48294e-08
-7.20222e-08
5.34338e-08
-7.59186e-08
5.31842e-08
-7.96308e-08
5.37891e-08
-8.2622e-08
5.4985e-08
-8.4768e-08
5.65714e-08
-8.60665e-08
5.84015e-08
-8.65498e-08
6.03713e-08
-8.62635e-08
-8.5258e-08
6.24084e-08
6.17031e-08
-6.33248e-08
-6.74248e-08
5.80368e-08
-6.83561e-08
5.71915e-08
-7.50735e-08
5.78341e-08
-8.02735e-08
5.93219e-08
-8.41098e-08
6.12885e-08
-8.67346e-08
6.34884e-08
-8.82665e-08
6.57742e-08
-8.88357e-08
6.80561e-08
-8.85456e-08
-8.74823e-08
7.02801e-08
6.62874e-08
-6.00763e-08
-6.95358e-08
6.36119e-08
-6.56803e-08
6.3526e-08
-7.49876e-08
6.5172e-08
-8.19194e-08
6.74734e-08
-8.64112e-08
6.99951e-08
-8.92564e-08
7.2539e-08
-9.08105e-08
7.50008e-08
-9.12977e-08
7.7326e-08
-9.08709e-08
-8.96438e-08
7.94874e-08
6.60008e-08
-6.32441e-08
-6.28331e-08
6.91802e-08
-6.88599e-08
7.19276e-08
-7.77351e-08
7.52523e-08
-8.52441e-08
7.83705e-08
-8.95295e-08
8.12019e-08
-9.20878e-08
8.37655e-08
-9.33743e-08
8.60709e-08
-9.36032e-08
8.81266e-08
-9.29268e-08
-9.1461e-08
8.99437e-08
6.92724e-08
-6.9479e-08
-6.30375e-08
7.66913e-08
-7.62789e-08
8.34747e-08
-8.45186e-08
8.8105e-08
-8.98744e-08
9.15061e-08
-9.29306e-08
9.42076e-08
-9.47893e-08
9.64279e-08
-9.55946e-08
9.82751e-08
-9.54504e-08
9.981e-08
-9.44617e-08
-9.27232e-08
1.01072e-07
8.20999e-08
-8.02077e-08
-7.13713e-08
9.17761e-08
-8.59557e-08
9.80352e-08
-9.07777e-08
1.02029e-07
-9.38677e-08
1.04998e-07
-9.59002e-08
1.07253e-07
-9.70442e-08
1.0897e-07
-9.73118e-08
1.10271e-07
-9.67512e-08
1.11234e-07
-9.5425e-08
-9.33986e-08
1.1191e-07
9.9153e-08
-8.97136e-08
-8.96472e-08
1.05965e-07
-9.27685e-08
1.10588e-07
-9.54003e-08
1.13955e-07
-9.72347e-08
1.16511e-07
-9.84559e-08
1.18403e-07
-9.89362e-08
1.19761e-07
-9.86701e-08
1.20684e-07
-9.76745e-08
1.21241e-07
-9.59816e-08
-9.36348e-08
1.21477e-07
1.09588e-07
-9.63141e-08
-1.02988e-07
1.14783e-07
-9.79633e-08
1.18807e-07
-9.94242e-08
1.22058e-07
-1.00486e-07
1.24567e-07
-1.00965e-07
1.26444e-07
-1.00813e-07
1.27773e-07
-9.99995e-08
1.28623e-07
-9.8524e-08
1.29045e-07
-9.64039e-08
-9.36709e-08
1.29081e-07
1.11887e-07
-1.02488e-07
-1.05713e-07
1.17301e-07
-1.03378e-07
1.21881e-07
-1.04004e-07
1.25628e-07
-1.04233e-07
1.28621e-07
-1.03957e-07
1.30923e-07
-1.03115e-07
1.32597e-07
-1.01673e-07
1.33697e-07
-9.96244e-08
1.34271e-07
-9.69775e-08
-9.37575e-08
1.34357e-07
1.10699e-07
-1.08981e-07
-1.04206e-07
1.16524e-07
-1.09202e-07
1.21607e-07
-1.09087e-07
1.25926e-07
-1.08552e-07
1.29498e-07
-1.07529e-07
1.32352e-07
-1.0597e-07
1.34524e-07
-1.03845e-07
1.36045e-07
-1.01145e-07
1.36946e-07
-9.78789e-08
-9.40684e-08
1.37257e-07
1.07237e-07
-1.15549e-07
-1.00669e-07
1.13275e-07
-1.1524e-07
1.18708e-07
-1.1452e-07
1.2349e-07
-1.13334e-07
1.27596e-07
-1.11635e-07
1.31015e-07
-1.09388e-07
1.33741e-07
-1.06571e-07
1.35775e-07
-1.03179e-07
1.37119e-07
-9.92228e-08
-9.47283e-08
1.37779e-07
1.00968e-07
-1.22153e-07
-9.43632e-08
1.07184e-07
-1.21457e-07
1.12937e-07
-1.20272e-07
1.18162e-07
-1.18559e-07
1.22807e-07
-1.1628e-07
1.26824e-07
-1.13405e-07
1.30171e-07
-1.09918e-07
1.32812e-07
-1.05819e-07
1.34713e-07
-1.01124e-07
-9.5861e-08
1.35845e-07
9.12932e-08
-1.28825e-07
-8.4622e-08
9.77093e-08
-1.27873e-07
1.03799e-07
-1.26362e-07
1.09493e-07
-1.24253e-07
1.1472e-07
-1.21507e-07
1.19408e-07
-1.18093e-07
1.23481e-07
-1.13991e-07
1.26858e-07
-1.09196e-07
1.29473e-07
-1.03739e-07
-9.76343e-08
1.31247e-07
7.76339e-08
-1.35543e-07
-7.09155e-08
8.42378e-08
-1.34477e-07
9.06634e-08
-1.32788e-07
9.68406e-08
-1.3043e-07
1.02692e-07
-1.27359e-07
1.08134e-07
-1.23535e-07
1.13066e-07
-1.18924e-07
1.17384e-07
-1.13514e-07
1.20944e-07
-1.073e-07
-1.00284e-07
1.23594e-07
5.94289e-08
-1.42228e-07
-5.27439e-08
6.61486e-08
-1.41196e-07
7.28509e-08
-1.3949e-07
7.94762e-08
-1.37055e-07
8.5955e-08
-1.33837e-07
9.22097e-08
-1.2979e-07
9.81337e-08
-1.24848e-07
1.03574e-07
-1.18954e-07
1.08337e-07
-1.12063e-07
-1.04136e-07
1.12189e-07
3.62283e-08
-1.48726e-07
-2.973e-08
4.2907e-08
-1.47875e-07
4.97306e-08
-1.46314e-07
5.66614e-08
-1.43986e-07
6.36592e-08
-1.40835e-07
7.06616e-08
-1.36792e-07
7.75744e-08
-1.3176e-07
8.42397e-08
-1.2562e-07
9.04431e-08
-1.18267e-07
-1.09583e-07
9.58902e-08
7.80809e-09
-1.54821e-07
-1.71356e-09
1.42048e-08
-1.54272e-07
2.08827e-08
-1.52992e-07
2.78314e-08
-1.50934e-07
3.50528e-08
-1.48057e-07
4.25379e-08
-1.44277e-07
5.02404e-08
-1.39463e-07
5.8075e-08
-1.33454e-07
6.58462e-08
-1.26038e-07
-1.16997e-07
7.32594e-08
-2.57341e-08
-1.60266e-07
3.11787e-08
-1.99089e-08
-1.60098e-07
-1.37259e-08
-1.59175e-07
-7.18314e-09
-1.57477e-07
-2.35397e-10
-1.55004e-07
7.2185e-09
-1.51731e-07
1.52923e-08
-1.47537e-07
2.39779e-08
-1.4214e-07
3.31196e-08
-1.3518e-07
-1.26313e-07
4.24364e-08
-6.39437e-08
-1.64848e-07
6.85262e-08
-5.89424e-08
-1.65099e-07
-5.35847e-08
-1.64532e-07
-4.78959e-08
-1.63166e-07
-4.17874e-08
-1.61113e-07
-3.49618e-08
-1.58557e-07
-2.70111e-08
-1.55487e-07
-1.77561e-08
-1.51395e-07
-7.32181e-09
-1.45614e-07
-1.37688e-07
4.05311e-09
-1.06196e-07
-1.68405e-07
1.09753e-07
-1.02188e-07
-1.69106e-07
-9.78869e-08
-1.68834e-07
-9.34518e-08
-1.67601e-07
-8.88813e-08
-1.65683e-07
-8.36217e-08
-1.63816e-07
-7.67625e-08
-1.62346e-07
-6.79533e-08
-1.60204e-07
-5.74796e-08
-1.56088e-07
-1.49533e-07
-4.56352e-08
-1.52052e-07
-1.70686e-07
1.54334e-07
-1.49238e-07
-1.71921e-07
-1.46139e-07
-1.71932e-07
-1.43013e-07
-1.70728e-07
-1.39758e-07
-1.68938e-07
-1.36615e-07
-1.66959e-07
-1.31288e-07
-1.67673e-07
-1.23492e-07
-1.68e-07
-1.13882e-07
-1.65698e-07
-1.6093e-07
-1.02485e-07
-2.01251e-07
-1.71081e-07
2.01646e-07
-2.00254e-07
-1.72919e-07
-1.98878e-07
-1.73308e-07
-1.97298e-07
-1.72307e-07
-1.94977e-07
-1.71259e-07
-1.9077e-07
-1.71167e-07
-1.86498e-07
-1.71945e-07
-1.8151e-07
-1.72988e-07
-1.74925e-07
-1.72283e-07
-1.69268e-07
-1.66586e-07
-2.50465e-07
-1.69397e-07
2.48781e-07
-2.51306e-07
-1.72079e-07
-2.51244e-07
-1.7337e-07
-2.50076e-07
-1.73475e-07
-2.47757e-07
-1.73579e-07
-2.44379e-07
-1.74545e-07
-2.40663e-07
-1.75661e-07
-2.3698e-07
-1.76672e-07
-2.32549e-07
-1.76714e-07
-1.75176e-07
-2.26642e-07
-2.95094e-07
-1.65923e-07
2.9162e-07
-2.97411e-07
-1.69763e-07
-2.9821e-07
-1.72571e-07
-2.9721e-07
-1.74475e-07
-2.94826e-07
-1.75963e-07
-2.91502e-07
-1.77869e-07
-2.87464e-07
-1.79699e-07
-2.82773e-07
-1.81362e-07
-2.77366e-07
-1.8212e-07
-1.81524e-07
-2.71018e-07
-3.31088e-07
-1.61202e-07
3.26367e-07
-3.34404e-07
-1.66447e-07
-3.35953e-07
-1.71023e-07
-3.35428e-07
-1.75e-07
-3.32745e-07
-1.78645e-07
-3.28498e-07
-1.82116e-07
-3.22497e-07
-1.857e-07
-3.15059e-07
-1.888e-07
-3.05241e-07
-1.91938e-07
-1.92695e-07
-2.9407e-07
-3.5592e-07
-1.55834e-07
3.50553e-07
-3.59549e-07
-1.62819e-07
-3.61102e-07
-1.69469e-07
-3.60275e-07
-1.75828e-07
-3.56951e-07
-1.81969e-07
-3.51062e-07
-1.88006e-07
-3.42881e-07
-1.9388e-07
-3.32109e-07
-1.99572e-07
-3.19403e-07
-2.04644e-07
-2.08151e-07
-3.03948e-07
-3.70158e-07
-1.49547e-07
3.63871e-07
-3.74423e-07
-1.58554e-07
-3.76273e-07
-1.67619e-07
-3.75344e-07
-1.76756e-07
-3.7137e-07
-1.85944e-07
-3.64267e-07
-1.95109e-07
-3.54052e-07
-2.04094e-07
-3.40965e-07
-2.12659e-07
-3.25259e-07
-2.2035e-07
-2.26517e-07
-3.06893e-07
-3.7395e-07
-1.41213e-07
3.65616e-07
-3.80257e-07
-1.52247e-07
-3.8401e-07
-1.63866e-07
-3.84683e-07
-1.76083e-07
-3.81824e-07
-1.88804e-07
-3.75135e-07
-2.01798e-07
-3.64514e-07
-2.14715e-07
-3.50069e-07
-2.27104e-07
-3.31991e-07
-2.38428e-07
-2.48148e-07
-3.1036e-07
-3.64653e-07
-1.29465e-07
3.52905e-07
-3.74744e-07
-1.42156e-07
-3.82422e-07
-1.56188e-07
-3.86827e-07
-1.71678e-07
-3.87137e-07
-1.88493e-07
-3.82701e-07
-2.06234e-07
-3.73126e-07
-2.2429e-07
-3.58312e-07
-2.41919e-07
-3.38409e-07
-2.58331e-07
-2.72802e-07
-3.13755e-07
-3.37458e-07
-1.13034e-07
3.21027e-07
-3.53175e-07
-1.26439e-07
-3.67062e-07
-1.42301e-07
-3.77667e-07
-1.61074e-07
-3.83545e-07
-1.82616e-07
-3.83448e-07
-2.0633e-07
-3.76561e-07
-2.31177e-07
-3.62549e-07
-2.5593e-07
-3.41583e-07
-2.79298e-07
-3.00126e-07
-3.14258e-07
-2.85071e-07
-9.14733e-08
2.63511e-07
-3.08153e-07
-1.03356e-07
-3.31399e-07
-1.19055e-07
-3.51864e-07
-1.40609e-07
-3.66336e-07
-1.68145e-07
-3.72856e-07
-1.99809e-07
-3.70277e-07
-2.33757e-07
-3.58138e-07
-2.68069e-07
-3.36646e-07
-3.0079e-07
-3.30046e-07
-3.06727e-07
-1.94622e-07
-6.68728e-08
1.70022e-07
-2.26641e-07
-7.13375e-08
-2.66978e-07
-7.87183e-08
-3.0641e-07
-1.01177e-07
-3.33388e-07
-1.41167e-07
-3.48634e-07
-1.84563e-07
-3.50685e-07
-2.31706e-07
-3.40003e-07
-2.78751e-07
-3.17457e-07
-3.23336e-07
-3.63185e-07
-2.84317e-07
-5.83611e-08
-4.31097e-08
3.45979e-08
-1.00632e-07
-2.90673e-08
-1.63333e-07
-1.60162e-08
-2.28627e-07
-3.58828e-08
-2.6812e-07
-1.01673e-07
-3.04568e-07
-1.48116e-07
-3.13289e-07
-2.22985e-07
-3.01334e-07
-2.90706e-07
-2.75775e-07
-3.48894e-07
-4.00874e-07
-2.38086e-07
5.71789e-08
-6.94665e-09
-9.33417e-08
1.40622e-08
1.40482e-08
-2.10876e-08
1.91321e-08
-5.71703e-08
1.98306e-10
-1.13847e-07
-4.49981e-08
-1.71032e-07
-9.09306e-08
-2.29448e-07
-1.64568e-07
-2.24436e-07
-2.95717e-07
-1.96023e-07
-3.77307e-07
-4.42511e-07
-1.54387e-07
2.24752e-07
1.68622e-08
-2.48561e-07
1.91221e-07
4.75753e-08
1.4908e-07
6.12736e-08
9.12428e-08
5.80352e-08
1.45567e-08
3.16887e-08
-5.67754e-08
-1.95992e-08
-1.01001e-07
-1.20344e-07
-1.23967e-07
-2.72751e-07
-8.16344e-08
-4.1964e-07
-4.92584e-07
-3.15617e-08
2.52121e-07
6.2069e-08
-2.9733e-07
2.04862e-07
9.48258e-08
1.65967e-07
1.00164e-07
1.35952e-07
8.80523e-08
1.02936e-07
6.47051e-08
6.21133e-08
2.12279e-08
5.82976e-09
-6.40599e-08
-2.53465e-08
-2.41574e-07
4.48434e-08
-4.89828e-07
-5.61211e-07
1.13471e-07
2.09006e-07
1.38738e-07
-2.85677e-07
1.4234e-07
1.61492e-07
1.15736e-07
1.26768e-07
1.0606e-07
9.7728e-08
1.03701e-07
6.70646e-08
1.08318e-07
1.66112e-08
9.603e-08
-5.1777e-08
1.2021e-07
-2.65755e-07
1.95224e-07
-5.64843e-07
-6.40405e-07
2.74418e-07
2.12812e-07
2.07921e-07
-2.81997e-07
1.43668e-07
2.30632e-07
1.22709e-07
1.47728e-07
1.20756e-07
9.96811e-08
1.32779e-07
5.50412e-08
1.50658e-07
-1.26758e-09
1.8519e-07
-8.63062e-08
2.84074e-07
-3.64636e-07
3.73885e-07
-6.54654e-07
-7.13855e-07
4.47334e-07
2.50472e-07
2.00013e-07
-2.42564e-07
2.26177e-07
2.54928e-07
1.80075e-07
1.93833e-07
1.69718e-07
1.10037e-07
1.81073e-07
4.36869e-08
2.07252e-07
-2.74451e-08
3.16445e-07
-1.955e-07
4.85145e-07
-5.33333e-07
5.61486e-07
-7.30995e-07
-7.61595e-07
6.09227e-07
9.67687e-08
2.18277e-07
-1.15031e-07
1.04674e-07
2.47021e-07
1.09717e-07
1.8879e-07
1.78618e-07
4.11344e-08
2.21637e-07
6.69517e-10
3.06353e-07
-1.12161e-07
4.90642e-07
-3.79789e-07
6.52907e-07
-6.95601e-07
6.97366e-07
-7.75453e-07
-7.92174e-07
7.27945e-07
-1.90178e-07
2.73031e-07
1.35425e-07
-1.87004e-07
2.43848e-07
-2.23763e-08
2.41616e-08
1.86534e-07
-1.67777e-07
3.4095e-07
-1.53747e-07
4.80562e-07
-2.51771e-07
6.82126e-07
-5.81354e-07
7.55453e-07
-7.68928e-07
7.79895e-07
-7.99895e-07
-8.13787e-07
8.01508e-07
-4.9405e-07
3.12485e-07
4.54596e-07
-3.34444e-07
8.42429e-08
-6.68923e-08
-2.4339e-07
1.29288e-07
-3.63957e-07
3.61511e-07
-3.85971e-07
6.11118e-07
-5.01378e-07
7.67939e-07
-7.38176e-07
7.93722e-07
-7.94711e-07
8.13889e-07
-8.20062e-07
-8.37584e-07
8.37686e-07
-2.01532e-07
5.77751e-08
4.56243e-07
1.28569e-07
-2.45858e-07
2.58505e-07
-3.73328e-07
3.40823e-07
-4.46275e-07
5.02764e-07
-5.47913e-07
7.0835e-07
-7.06963e-07
7.57174e-07
-7.87e-07
7.88296e-07
-8.25833e-07
8.20658e-07
-8.52424e-07
-8.71521e-07
8.54596e-07
2.57031e-07
-2.65645e-07
6.63887e-08
4.01005e-07
-3.89832e-07
4.69906e-07
-4.42228e-07
5.44425e-07
-5.20795e-07
6.44926e-07
-6.48414e-07
7.06861e-07
-7.68898e-07
7.50216e-07
-8.30355e-07
7.92661e-07
-8.68278e-07
8.35081e-07
-8.94844e-07
-9.10727e-07
8.74287e-07
4.55908e-07
-3.65687e-07
-3.55866e-07
4.80403e-07
-4.14327e-07
5.20351e-07
-4.82176e-07
5.99702e-07
-6.00146e-07
6.82375e-07
-7.31086e-07
7.33977e-07
-8.205e-07
7.77876e-07
-8.74254e-07
8.20569e-07
-9.10971e-07
8.60093e-07
-9.34369e-07
-9.44468e-07
8.93834e-07
4.42634e-07
-3.5957e-07
-4.4875e-07
4.46429e-07
-4.18123e-07
4.9468e-07
-5.30427e-07
5.93315e-07
-6.98781e-07
6.77662e-07
-8.15433e-07
7.35433e-07
-8.78272e-07
7.82567e-07
-9.21388e-07
8.23746e-07
-9.5215e-07
8.58544e-07
-9.69167e-07
-9.71449e-07
8.85525e-07
3.73364e-07
-3.42977e-07
-3.89958e-07
3.87811e-07
-4.32569e-07
4.98433e-07
-6.4105e-07
6.02407e-07
-8.02754e-07
6.65204e-07
-8.78231e-07
7.13679e-07
-9.26747e-07
7.56303e-07
-9.64011e-07
7.92778e-07
-9.88626e-07
8.21794e-07
-9.98182e-07
-9.9198e-07
8.42324e-07
2.90148e-07
-3.32064e-07
-3.0106e-07
3.80447e-07
-5.22868e-07
5.03428e-07
-7.6403e-07
5.70599e-07
-8.69925e-07
6.18597e-07
-9.26229e-07
6.62026e-07
-9.70177e-07
7.00391e-07
-1.00238e-06
7.31588e-07
-1.01982e-06
7.54439e-07
-1.02103e-06
-1.00622e-06
7.68675e-07
2.21278e-07
-3.35818e-07
-2.17524e-07
3.7846e-07
-6.8005e-07
4.67341e-07
-8.52911e-07
5.18383e-07
-9.20968e-07
5.61737e-07
-9.69582e-07
6.00212e-07
-1.00865e-06
6.32061e-07
-1.03422e-06
6.55811e-07
-1.04357e-06
6.71034e-07
-1.03625e-06
-1.01331e-06
6.78123e-07
2.89693e-07
-4.81647e-07
-1.43864e-07
3.98099e-07
-7.88457e-07
4.40606e-07
-8.95419e-07
4.74074e-07
-9.54435e-07
5.07231e-07
-1.00274e-06
5.37221e-07
-1.03864e-06
5.6106e-07
-1.05806e-06
5.77323e-07
-1.05984e-06
5.85897e-07
-1.04483e-06
-1.01483e-06
5.87415e-07
2.67258e-07
-6.63728e-07
-8.51762e-08
3.38025e-07
-8.59222e-07
3.76704e-07
-9.34098e-07
4.11462e-07
-9.89193e-07
4.43843e-07
-1.03512e-06
4.71022e-07
-1.06582e-06
4.91032e-07
-1.07807e-06
5.03393e-07
-1.0722e-06
5.08698e-07
-1.05013e-06
-1.01407e-06
5.07945e-07
2.90779e-07
-7.50171e-07
-2.04335e-07
3.11314e-07
-8.79755e-07
3.32363e-07
-9.55147e-07
3.59908e-07
-1.01674e-06
3.88123e-07
-1.06334e-06
4.12045e-07
-1.08974e-06
4.29356e-07
-1.09539e-06
4.39779e-07
-1.08262e-06
4.44214e-07
-1.05457e-06
-1.01376e-06
4.43906e-07
2.03249e-07
-7.82311e-07
-1.71108e-07
2.31522e-07
-9.08029e-07
2.63668e-07
-9.87293e-07
2.98278e-07
-1.05135e-06
3.29895e-07
-1.09495e-06
3.55144e-07
-1.11499e-06
3.72978e-07
-1.11322e-06
3.83953e-07
-1.09359e-06
3.89551e-07
-1.06017e-06
-1.01604e-06
3.91823e-07
1.40798e-07
-8.36254e-07
-8.68548e-08
1.7756e-07
-9.44791e-07
2.15375e-07
-1.02511e-06
2.51425e-07
-1.0874e-06
2.82413e-07
-1.12594e-06
3.06533e-07
-1.13911e-06
3.23401e-07
-1.13009e-06
3.33529e-07
-1.10372e-06
3.37855e-07
-1.06449e-06
-1.01575e-06
3.37567e-07
1.08218e-07
-8.88122e-07
-5.63492e-08
1.47209e-07
-9.83782e-07
1.82443e-07
-1.06034e-06
2.14784e-07
-1.11974e-06
2.42649e-07
-1.15381e-06
2.64676e-07
-1.16114e-06
2.80559e-07
-1.14597e-06
2.90592e-07
-1.11376e-06
2.95047e-07
-1.06895e-06
-1.0145e-06
2.93797e-07
9.22777e-08
-9.32062e-07
-4.83378e-08
1.26331e-07
-1.01783e-06
1.56168e-07
-1.09018e-06
1.83872e-07
-1.14744e-06
2.08371e-07
-1.1783e-06
2.28376e-07
-1.18114e-06
2.43824e-07
-1.16142e-06
2.5517e-07
-1.1251e-06
2.62466e-07
-1.07624e-06
-1.0169e-06
2.64873e-07
9.42351e-08
-9.56408e-07
-6.98892e-08
1.15312e-07
-1.03891e-06
1.36094e-07
-1.11096e-06
1.57364e-07
-1.16871e-06
1.7728e-07
-1.19822e-06
1.94228e-07
-1.19809e-06
2.08561e-07
-1.17575e-06
2.21447e-07
-1.13799e-06
2.33863e-07
-1.08866e-06
-1.02953e-06
2.46492e-07
9.24171e-08
-9.62379e-07
-8.64455e-08
1.0145e-07
-1.04794e-06
1.14195e-07
-1.12371e-06
1.29412e-07
-1.18393e-06
1.44036e-07
-1.21285e-06
1.55811e-07
-1.20987e-06
1.65197e-07
-1.18514e-06
1.73565e-07
-1.14635e-06
1.82129e-07
-1.09722e-06
-1.03915e-06
1.9175e-07
6.90795e-08
-9.68598e-07
-6.28604e-08
7.6883e-08
-1.05575e-06
8.73213e-08
-1.13414e-06
9.93844e-08
-1.19599e-06
1.10061e-07
-1.22352e-06
1.16977e-07
-1.21678e-06
1.20746e-07
-1.18891e-06
1.2256e-07
-1.14817e-06
1.2326e-07
-1.09793e-06
-1.03899e-06
1.23098e-07
4.13019e-08
-9.75638e-07
-3.42618e-08
5.02843e-08
-1.06473e-06
6.06037e-08
-1.14446e-06
7.11361e-08
-1.20652e-06
7.94761e-08
-1.23186e-06
8.37563e-08
-1.22106e-06
8.47687e-08
-1.18992e-06
8.34251e-08
-1.14683e-06
8.03657e-08
-1.09487e-06
-1.034e-06
7.53712e-08
1.41213e-08
-9.84689e-07
-5.07027e-09
2.51564e-08
-1.07577e-06
3.63833e-08
-1.15569e-06
4.61625e-08
-1.2163e-06
5.31083e-08
-1.23881e-06
5.69235e-08
-1.22488e-06
5.83467e-08
-1.19134e-06
5.78392e-08
-1.14632e-06
5.58e-08
-1.09283e-06
-1.03032e-06
5.21206e-08
-1.02536e-08
-9.96305e-07
2.18688e-08
2.97862e-09
-1.089e-06
1.54005e-08
-1.16811e-06
2.44014e-08
-1.2253e-06
2.9668e-08
-1.24407e-06
3.38968e-08
-1.22911e-06
3.71322e-08
-1.19458e-06
3.89475e-08
-1.14813e-06
3.92057e-08
-1.09308e-06
-1.02922e-06
3.81106e-08
-3.00671e-08
-1.00986e-06
4.36238e-08
-1.52765e-08
-1.10379e-06
-1.9083e-09
-1.18148e-06
5.87423e-09
-1.23309e-06
8.58486e-09
-1.24678e-06
1.31199e-08
-1.23364e-06
1.84817e-08
-1.19994e-06
2.27609e-08
-1.15241e-06
2.48986e-08
-1.09522e-06
-1.02868e-06
2.43577e-08
-4.61441e-08
-1.02443e-06
6.07086e-08
-2.99454e-08
-1.11999e-06
-1.57809e-08
-1.19565e-06
-9.52609e-09
-1.23934e-06
-9.70325e-09
-1.24661e-06
-5.58965e-09
-1.23776e-06
1.96499e-09
-1.20749e-06
8.89454e-09
-1.15934e-06
1.288e-08
-1.09921e-06
-1.02782e-06
1.20186e-08
-5.99965e-08
-1.04129e-06
7.68604e-08
-4.20097e-08
-1.13797e-06
-2.69734e-08
-1.21068e-06
-2.20826e-08
-1.24423e-06
-2.39358e-08
-1.24475e-06
-2.09385e-08
-1.24075e-06
-1.10002e-08
-1.21743e-06
-5.29917e-10
-1.16981e-06
7.10133e-09
-1.10684e-06
-1.02979e-06
9.07093e-09
-7.14112e-08
-1.05795e-06
8.80736e-08
-5.17788e-08
-1.1576e-06
-3.50371e-08
-1.22742e-06
-3.04804e-08
-1.24879e-06
-3.19962e-08
-1.24324e-06
-3.0646e-08
-1.2421e-06
-1.88967e-08
-1.22918e-06
-3.52426e-09
-1.18519e-06
9.81236e-09
-1.12018e-06
-1.03894e-06
1.8961e-08
-7.59228e-08
-1.09234e-06
1.10313e-07
-5.19688e-08
-1.18156e-06
-3.43579e-08
-1.24503e-06
-3.13744e-08
-1.25177e-06
-3.28047e-08
-1.24181e-06
-3.37045e-08
-1.2412e-06
-2.31651e-08
-1.23972e-06
-2.89987e-09
-1.20545e-06
1.61561e-08
-1.13923e-06
-1.05674e-06
3.39541e-08
-5.50873e-08
-1.1076e-06
7.03502e-08
-4.07264e-08
-1.19592e-06
-2.80315e-08
-1.25773e-06
-2.79263e-08
-1.25188e-06
-2.90124e-08
-1.24072e-06
-3.05545e-08
-1.23966e-06
-2.43628e-08
-1.24591e-06
-7.29924e-10
-1.22908e-06
2.14241e-08
-1.16139e-06
-1.07815e-06
4.28324e-08
-5.63549e-08
-1.12564e-06
7.43878e-08
-3.65021e-08
-1.21577e-06
-2.30135e-08
-1.27122e-06
-2.27982e-08
-1.25209e-06
-2.26919e-08
-1.24083e-06
-2.31719e-08
-1.23918e-06
-2.14289e-08
-1.24766e-06
2.84179e-09
-1.25335e-06
2.95388e-08
-1.18808e-06
-1.09309e-06
4.44857e-08
-3.85565e-08
-1.10825e-06
2.11724e-08
-1.8982e-08
-1.23535e-06
-1.06628e-08
-1.27954e-06
-1.35252e-08
-1.24923e-06
-1.51469e-08
-1.23921e-06
-1.66399e-08