/*--------------------------------*- C++ -*----------------------------------*\
  =========                 |
  \\      /  F ield         | OpenFOAM: The Open Source CFD Toolbox
   \\    /   O peration     | Website:  https://openfoam.org
    \\  /    A nd           | Version:  8
     \\/     M anipulation  |
\*---------------------------------------------------------------------------*/
FoamFile
{
    version     2.0;
    format      ascii;
    class       volVectorField;
    location    "2.15";
    object      U;
}
// * * * * * * * * * * * * * * * * * * * * * * * * * * * * * * * * * * * * * //

dimensions      [0 1 -1 0 0 0 0];

internalField   nonuniform List<vector> 
9150
(
(0.0539193 -0.428027 0)
(0.088052 -0.622226 0)
(0.0731 -0.631496 0)
(0.048594 -0.643726 0)
(0.0170295 -0.654451 0)
(-0.0170617 -0.654446 0)
(-0.0486208 -0.643713 0)
(-0.0731186 -0.63148 0)
(-0.0880616 -0.622209 0)
(-0.0539225 -0.428005 0)
(0.0409403 -0.522774 0)
(0.0575832 -0.625794 0)
(0.0420732 -0.613281 0)
(0.0293766 -0.622459 0)
(0.0104833 -0.628872 0)
(-0.0105069 -0.62887 0)
(-0.0293968 -0.622451 0)
(-0.0420884 -0.613272 0)
(-0.0575926 -0.625785 0)
(-0.0409437 -0.522758 0)
(0.0254586 -0.557895 0)
(0.0326673 -0.613902 0)
(0.0229716 -0.60452 0)
(0.017268 -0.609993 0)
(0.00623859 -0.613196 0)
(-0.00625574 -0.613195 0)
(-0.017283 -0.609989 0)
(-0.0229832 -0.604515 0)
(-0.0326753 -0.613898 0)
(-0.0254619 -0.557885 0)
(0.0155948 -0.584708 0)
(0.0176239 -0.6075 0)
(0.0116622 -0.601155 0)
(0.00889466 -0.603286 0)
(0.00323928 -0.604397 0)
(-0.00325085 -0.604397 0)
(-0.00890485 -0.603285 0)
(-0.0116702 -0.601153 0)
(-0.0176296 -0.607499 0)
(-0.0155973 -0.584704 0)
(0.00642631 -0.597172 0)
(0.00564902 -0.601394 0)
(0.00352483 -0.600041 0)
(0.00269496 -0.60035 0)
(0.00099453 -0.600482 0)
(-0.000999471 -0.600481 0)
(-0.00269935 -0.60035 0)
(-0.00352833 -0.600041 0)
(-0.00565162 -0.601394 0)
(-0.00642743 -0.597171 0)
(0.470503 -1.16459 1.30153e-24)
(0.282977 -1.08604 0)
(0.16347 -1.06973 0)
(0.0923463 -1.05815 0)
(0.0302896 -1.0534 0)
(-0.0306382 -1.05334 0)
(-0.0926558 -1.05799 0)
(-0.163713 -1.06949 0)
(-0.283133 -1.08573 0)
(-0.47042 -1.16417 -1.29746e-24)
(0.333847 -0.844181 3.49337e-25)
(0.287186 -0.936757 0)
(0.188243 -0.936898 0)
(0.108201 -0.936892 0)
(0.0356907 -0.939302 0)
(-0.0358848 -0.939266 0)
(-0.108367 -0.936792 0)
(-0.188361 -0.936753 0)
(-0.287224 -0.936582 0)
(-0.333797 -0.843977 -3.48404e-25)
(0.279106 -0.702782 5.59659e-26)
(0.259199 -0.804718 0)
(0.178059 -0.81761 0)
(0.10457 -0.828425 0)
(0.0348134 -0.836564 0)
(-0.0349283 -0.836543 0)
(-0.104666 -0.828366 0)
(-0.178121 -0.817526 0)
(-0.259216 -0.804625 0)
(-0.279083 -0.702685 -5.56488e-26)
(0.200354 -0.554727 2.12727e-25)
(0.217084 -0.70944 0)
(0.154252 -0.725933 0)
(0.0913241 -0.742055 0)
(0.0305264 -0.753982 0)
(-0.030597 -0.753969 0)
(-0.0913817 -0.742018 0)
(-0.154287 -0.725884 0)
(-0.217093 -0.709389 0)
(-0.200343 -0.554672 -2.12846e-25)
(0.119375 -0.444807 -3.5538e-25)
(0.157133 -0.644167 -5.10942e-25)
(0.116731 -0.663788 -1.69689e-25)
(0.0708938 -0.681203 -1.11386e-25)
(0.0239561 -0.69422 -6.38925e-27)
(-0.0240023 -0.694212 -6.46616e-27)
(-0.0709315 -0.681181 -1.11581e-25)
(-0.116755 -0.66376 -1.69771e-25)
(-0.157141 -0.644138 -5.11015e-25)
(-0.119372 -0.444774 -3.55372e-25)
(0.0239108 -0.91196 0)
(-0.0322555 -1.34498 0)
(0.0229476 -1.27516 0)
(-0.00677421 -1.22821 0)
(0.00299651 -1.22597 0)
(-0.00569136 -1.22536 0)
(0.00267061 -1.22775 0)
(-0.0259354 -1.27514 0)
(0.0265795 -1.3408 0)
(-0.0266349 -0.899054 0)
(0.0483716 -0.906417 0)
(-0.0194747 -1.3365 0)
(0.0240104 -1.27279 0)
(-0.00136582 -1.22554 0)
(0.000833271 -1.2243 0)
(-0.00266715 -1.22382 0)
(-0.00177995 -1.22543 0)
(-0.0266174 -1.27236 0)
(0.0164921 -1.33582 0)
(-0.0510846 -0.899111 0)
(0.0748445 -0.942842 0)
(-0.0219261 -1.34962 0)
(0.0190232 -1.2768 0)
(0.00372105 -1.2315 0)
(-0.000636292 -1.22726 0)
(-0.000687219 -1.227 0)
(-0.00563681 -1.2314 0)
(-0.0204233 -1.27599 0)
(0.0200516 -1.34853 0)
(-0.075885 -0.938617 0)
(0.139743 -1.07663 0)
(0.000591255 -1.36655 0)
(0.0175749 -1.27286 0)
(0.0207648 -1.22624 0)
(0.00500914 -1.21483 0)
(-0.00603092 -1.21473 0)
(-0.0218151 -1.226 0)
(-0.018262 -1.27234 0)
(-0.00176567 -1.36596 0)
(-0.140252 -1.0744 0)
(0.294213 -1.22077 0)
(0.122245 -1.3222 0)
(0.0695193 -1.21132 0)
(0.0563249 -1.1697 0)
(0.0196172 -1.15697 0)
(-0.0202257 -1.15689 0)
(-0.0568531 -1.16944 0)
(-0.0699919 -1.21093 0)
(-0.12283 -1.32178 0)
(-0.29429 -1.21976 0)
(-0.0304024 -0.00752522 0)
(-0.02491 -0.00770774 0)
(-0.019298 -0.00784194 0)
(-0.0136117 -0.00792002 0)
(-0.00789497 -0.00793807 0)
(-0.00219135 -0.00789349 0)
(0.00345609 -0.00778551 0)
(0.00900766 -0.00761876 0)
(0.0144245 -0.0074006 0)
(0.0196641 -0.00713877 0)
(-0.025608 -0.0157327 0)
(-0.0211573 -0.0161549 0)
(-0.0166013 -0.0164485 0)
(-0.0119762 -0.0166122 0)
(-0.00731947 -0.0166463 0)
(-0.002668 -0.0165518 0)
(0.00194107 -0.0163312 0)
(0.00647054 -0.0159879 0)
(0.0108846 -0.0155257 0)
(0.0151502 -0.0149484 0)
(-0.0221 -0.0235241 0)
(-0.0183503 -0.0241709 0)
(-0.0145106 -0.0246203 0)
(-0.010612 -0.024872 0)
(-0.00668649 -0.0249272 0)
(-0.00276613 -0.0247888 0)
(0.00111759 -0.0244605 0)
(0.00493371 -0.023947 0)
(0.00865188 -0.0232534 0)
(0.012243 -0.0223858 0)
(-0.0193714 -0.0303352 0)
(-0.0161467 -0.0311817 0)
(-0.0128448 -0.0317703 0)
(-0.00949298 -0.032101 0)
(-0.00611897 -0.0321756 0)
(-0.00275073 -0.0319974 0)
(0.000584267 -0.031571 0)
(0.00385925 -0.0309025 0)
(0.00704778 -0.0299991 0)
(0.0101235 -0.0288695 0)
(-0.0171799 -0.0362348 0)
(-0.01437 -0.0372518 0)
(-0.0114943 -0.0379586 0)
(-0.00857636 -0.0383551 0)
(-0.00564044 -0.0384434 0)
(-0.00271112 -0.0382272 0)
(0.000187328 -0.0377117 0)
(0.00303115 -0.0369038 0)
(0.00579662 -0.0358123 0)
(0.00845961 -0.0344484 0)
(-0.0154077 -0.0414022 0)
(-0.012933 -0.0425651 0)
(-0.0104024 -0.0433722 0)
(-0.00783586 -0.0438233 0)
(-0.00525471 -0.0439206 0)
(-0.00268049 -0.0436677 0)
(-0.000134755 -0.04307 0)
(0.00236116 -0.0421347 0)
(0.00478558 -0.0408714 0)
(0.00711592 -0.0392922 0)
(-0.0139632 -0.045977 0)
(-0.0117663 -0.0472651 0)
(-0.009521 -0.048158 0)
(-0.00724434 -0.0486554 0)
(-0.00495463 -0.0487592 0)
(-0.00267079 -0.0484724 0)
(-0.00041196 -0.0478 0)
(0.00180257 -0.0467489 0)
(0.00395273 -0.0453282 0)
(0.00601703 -0.0435502 0)
(-0.012768 -0.0500523 0)
(-0.0108095 -0.05145 0)
(-0.0088073 -0.0524192 0)
(-0.00677553 -0.052959 0)
(-0.0047299 -0.0530706 0)
(-0.00268686 -0.0527563 0)
(-0.000663301 -0.0520197 0)
(0.00132342 -0.0508667 0)
(0.00325469 -0.0493049 0)
(0.00510985 -0.0473454 0)
(-0.0117587 -0.0536868 0)
(-0.0100138 -0.0551857 0)
(-0.00822637 -0.0562278 0)
(-0.00640815 -0.0568119 0)
(-0.00457249 -0.0569381 0)
(-0.00273352 -0.0566075 0)
(-0.000905912 -0.0558222 0)
(0.000895002 -0.0545861 0)
(0.0026523 -0.0529046 0)
(0.00434649 -0.0507856 0)
(-0.0108927 -0.0569135 0)
(-0.00934594 -0.0585129 0)
(-0.00775453 -0.0596315 0)
(-0.00612847 -0.0602676 0)
(-0.00447917 -0.0604205 0)
(-0.00281859 -0.0600904 0)
(-0.001159 -0.0592776 0)
(0.000486635 -0.0579836 0)
(0.00210373 -0.0562108 0)
(0.00367479 -0.053963 0)
(-0.0101511 -0.0597538 0)
(-0.00878865 -0.0614599 0)
(-0.00737802 -0.0626634 0)
(-0.0059282 -0.0633629 0)
(-0.004449 -0.063558 0)
(-0.00295029 -0.0632482 0)
(-0.00144177 -0.062433 0)
(6.65931e-05 -0.0611116 0)
(0.00156347 -0.0592834 0)
(0.00303484 -0.0569474 0)
(-0.00953048 -0.0622364 0)
(-0.00833198 -0.0640566 0)
(-0.00708427 -0.0653528 0)
(-0.00579565 -0.0661256 0)
(-0.00447444 -0.0663762 0)
(-0.00312836 -0.0661049 0)
(-0.00176427 -0.0653113 0)
(-0.000388668 -0.0639938 0)
(0.000991262 -0.0621493 0)
(0.0023663 -0.0597728 0)
(-0.00902174 -0.0644194 0)
(-0.00795474 -0.0663505 0)
(-0.00684552 -0.0677368 0)
(-0.00570083 -0.0685827 0)
(-0.00452697 -0.0688923 0)
(-0.00332916 -0.0686684 0)
(-0.00211132 -0.0679119 0)
(-0.000876373 -0.0666218 0)
(0.000372852 -0.0647944 0)
(0.00163244 -0.0624225 0)
(-0.00856596 -0.0663934 0)
(-0.00759341 -0.068408 0)
(-0.00659612 -0.0698618 0)
(-0.00557768 -0.0707631 0)
(-0.00454152 -0.0711193 0)
(-0.00349017 -0.0709358 0)
(-0.00242482 -0.0702158 0)
(-0.00134546 -0.0689602 0)
(-0.000251526 -0.0671665 0)
(0.000857347 -0.0648279 0)
(-0.00803138 -0.0682394 0)
(-0.00712859 -0.0702885 0)
(-0.00622462 -0.0717692 0)
(-0.00531928 -0.0726923 0)
(-0.00441294 -0.0730676 0)
(-0.00350578 -0.0729023 0)
(-0.00259717 -0.0722019 0)
(-0.00168568 -0.0709691 0)
(-0.0007695 -0.0692042 0)
(0.000153061 -0.0669038 0)
(-0.00725584 -0.0699886 0)
(-0.00641719 -0.0720183 0)
(-0.00559981 -0.0734801 0)
(-0.00480021 -0.0743856 0)
(-0.00401646 -0.0747447 0)
(-0.0032473 -0.074565 0)
(-0.00249162 -0.073852 0)
(-0.00174856 -0.0726086 0)
(-0.00101822 -0.0708352 0)
(-0.00030284 -0.068529 0)
(-0.00610397 -0.0716317 0)
(-0.00533539 -0.0735983 0)
(-0.00460386 -0.0750042 0)
(-0.00390293 -0.0758602 0)
(-0.00322831 -0.0761751 0)
(-0.00257685 -0.0759553 0)
(-0.00194595 -0.0752044 0)
(-0.00133356 -0.0739239 0)
(-0.000738708 -0.0721124 0)
(-0.000162337 -0.0697652 0)
(-0.00449011 -0.0731393 0)
(-0.00380616 -0.0750158 0)
(-0.00316576 -0.0763454 0)
(-0.00256007 -0.0771366 0)
(-0.00198272 -0.0773964 0)
(-0.00142867 -0.0771292 0)
(-0.000893525 -0.0763372 0)
(-0.000373355 -0.0750204 0)
(0.000134858 -0.0731761 0)
(0.000632663 -0.0707996 0)
(-0.00238243 -0.0744607 0)
(-0.00180372 -0.0762432 0)
(-0.00126431 -0.0774964 0)
(-0.000753994 -0.0782265 0)
(-0.000265043 -0.0784386 0)
(0.000209014 -0.0781353 0)
(0.000674265 -0.0773174 0)
(0.00113669 -0.0759843 0)
(0.00160193 -0.0741336 0)
(0.00207507 -0.0717619 0)
(0.000180581 -0.0755422 0)
(0.000636515 -0.0772486 0)
(0.00106565 -0.0784447 0)
(0.00147852 -0.0791347 0)
(0.00188329 -0.0793217 0)
(0.00228705 -0.0790072 0)
(0.00269645 -0.0781913 0)
(0.0031181 -0.0768733 0)
(0.00355831 -0.075052 0)
(0.00402282 -0.0727265 0)
(0.00312017 -0.0763475 0)
(0.00344215 -0.0780096 0)
(0.00375492 -0.0791801 0)
(0.00406898 -0.0798616 0)
(0.00439244 -0.0800554 0)
(0.00473231 -0.0797617 0)
(0.00509498 -0.0789797 0)
(0.00548654 -0.0777083 0)
(0.00591245 -0.0759467 0)
(0.00637712 -0.0736954 0)
(0.00633661 -0.0768573 0)
(0.00652 -0.0785142 0)
(0.00671398 -0.0796979 0)
(0.00692925 -0.0804092 0)
(0.00717394 -0.0806478 0)
(0.00745481 -0.0804119 0)
(0.00777753 -0.0796992 0)
(0.00814698 -0.0785076 0)
(0.0085669 -0.0768355 0)
(0.0090394 -0.0746833 0)
(0.00972545 -0.0770685 0)
(0.00977037 -0.0787601 0)
(0.00984545 -0.0799979 0)
(0.00996279 -0.0807809 0)
(0.0101313 -0.0811061 0)
(0.0103579 -0.0809688 0)
(0.0106473 -0.0803638 0)
(0.0110026 -0.0792868 0)
(0.0114254 -0.0777343 0)
(0.0119148 -0.0757056 0)
(0.0131896 -0.0769885 0)
(0.013097 -0.0787498 0)
(0.0130523 -0.0800818 0)
(0.0130718 -0.0809804 0)
(0.0131668 -0.0814378 0)
(0.0133447 -0.0814439 0)
(0.0136089 -0.0809888 0)
(0.0139602 -0.0800638 0)
(0.0143968 -0.0786626 0)
(0.0149143 -0.0767823 0)
(0.0166494 -0.0766233 0)
(0.016413 -0.0784804 0)
(0.016242 -0.0799465 0)
(0.016161 -0.0810095 0)
(0.0161856 -0.0816518 0)
(0.0163235 -0.0818533 0)
(0.0165756 -0.0815954 0)
(0.0169384 -0.080863 0)
(0.0174049 -0.0796455 0)
(0.0179655 -0.0779379 0)
(0.0200461 -0.0759571 0)
(0.0196412 -0.0779289 0)
(0.0193245 -0.0795761 0)
(0.0191365 -0.0808675 0)
(0.0190978 -0.0817635 0)
(0.0192136 -0.0822251 0)
(0.019478 -0.0822196 0)
(0.0198788 -0.0817232 0)
(0.0204009 -0.0807205 0)
(0.0210268 -0.0792048 0)
(0.0233433 -0.0749169 0)
(0.0227084 -0.0770292 0)
(0.0222066 -0.0789359 0)
(0.0219047 -0.0805578 0)
(0.0218245 -0.0818088 0)
(0.0219575 -0.0826165 0)
(0.0222802 -0.0829282 0)
(0.0227646 -0.0827105 0)
(0.0233818 -0.0819457 0)
(0.0241041 -0.0806292 0)
(0.0265004 -0.0733138 0)
(0.0255243 -0.0756344 0)
(0.0247802 -0.0779724 0)
(0.0243793 -0.0801146 0)
(0.0243205 -0.0818785 0)
(0.0245527 -0.0831436 0)
(0.0250149 -0.0838391 0)
(0.0256518 -0.0839297 0)
(0.0264169 -0.0834046 0)
(0.0272712 -0.0822695 0)
(0.0294841 -0.0707641 0)
(0.0279712 -0.0734518 0)
(0.0269218 -0.0766254 0)
(0.026529 -0.0796593 0)
(0.0266538 -0.0821717 0)
(0.0271334 -0.0840133 0)
(0.0278502 -0.0851309 0)
(0.0287197 -0.0855169 0)
(0.0296806 -0.0851884 0)
(0.0306884 -0.0841763 0)
(0.0322924 -0.0668657 0)
(0.0298379 -0.0703974 0)
(0.0285907 -0.0752767 0)
(0.0285631 -0.0797008 0)
(0.0291903 -0.0831533 0)
(0.0301088 -0.0855787 0)
(0.0311749 -0.0870367 0)
(0.03231 -0.0876035 0)
(0.0334609 -0.0873512 0)
(0.0345915 -0.0863473 0)
(0.0340164 -0.0609874 0)
(0.0321773 -0.0667167 0)
(0.0317253 -0.0746672 0)
(0.0320529 -0.0807316 0)
(0.0330722 -0.0850282 0)
(0.0343404 -0.0878665 0)
(0.0356382 -0.0894801 0)
(0.0368993 -0.0900564 0)
(0.0381002 -0.0897316 0)
(0.0392226 -0.0886107 0)
(0.0319006 -0.0600909 0)
(0.0334345 -0.0655372 0)
(0.0355424 -0.0753617 0)
(0.0369348 -0.0831511 0)
(0.0383603 -0.0877641 0)
(0.0398844 -0.0906106 0)
(0.041273 -0.0921159 0)
(0.0424938 -0.0925213 0)
(0.0435804 -0.0919967 0)
(0.0445448 -0.0906658 0)
(0.0327825 -0.0650466 0)
(0.0362211 -0.0713239 0)
(0.0404626 -0.0807352 0)
(0.0432804 -0.0874537 0)
(0.0449138 -0.0912323 0)
(0.0464467 -0.0935113 0)
(0.0477102 -0.0945948 0)
(0.048723 -0.0946582 0)
(0.0495591 -0.0938371 0)
(0.0502515 -0.0922406 0)
(0.0380944 -0.074189 0)
(0.0439393 -0.0815508 0)
(0.0479235 -0.0879925 0)
(0.0501754 -0.0920299 0)
(0.0517893 -0.0945646 0)
(0.0531265 -0.0960469 0)
(0.0541191 -0.096577 0)
(0.0548603 -0.0962262 0)
(0.0554165 -0.0950729 0)
(0.0558191 -0.0931948 0)
(0.0477207 -0.0858693 0)
(0.0516179 -0.0899964 0)
(0.0542666 -0.0933224 0)
(0.0562133 -0.0957023 0)
(0.0577054 -0.0972693 0)
(0.0588067 -0.0980539 0)
(0.0596036 -0.0980493 0)
(0.0601625 -0.0972758 0)
(0.0605252 -0.0957752 0)
(0.060717 -0.0935996 0)
(0.053264 -0.0934799 0)
(0.0561613 -0.0954934 0)
(0.0585233 -0.0973991 0)
(0.0603255 -0.0988227 0)
(0.0617434 -0.0996543 0)
(0.0628273 -0.0998212 0)
(0.0636191 -0.0992944 0)
(0.0641563 -0.0980762 0)
(0.0644688 -0.0961896 0)
(0.0645774 -0.0936706 0)
(0.0545159 -0.0992717 0)
(0.0574081 -0.100509 0)
(0.0598996 -0.101565 0)
(0.061974 -0.102205 0)
(0.0636521 -0.102315 0)
(0.0649682 -0.101833 0)
(0.0659548 -0.100725 0)
(0.0666423 -0.0989857 0)
(0.0670561 -0.0966274 0)
(0.0672154 -0.0936772 0)
(0.0538025 -0.105658 0)
(0.0568933 -0.106206 0)
(0.0596254 -0.10644 0)
(0.0619759 -0.106268 0)
(0.0639466 -0.105607 0)
(0.0655495 -0.104405 0)
(0.0668018 -0.102629 0)
(0.0677212 -0.100269 0)
(0.068324 -0.0973325 0)
(0.0686226 -0.0938416 0)
(0.0520348 -0.112263 0)
(0.055199 -0.112182 0)
(0.0580737 -0.111727 0)
(0.0606315 -0.110836 0)
(0.0628563 -0.109453 0)
(0.0647385 -0.107538 0)
(0.066275 -0.105065 0)
(0.0674651 -0.102026 0)
(0.0683099 -0.0984293 0)
(0.0688091 -0.0942986 0)
(0.0488755 -0.118835 0)
(0.052092 -0.1183 0)
(0.0550918 -0.117314 0)
(0.0578431 -0.115834 0)
(0.0603172 -0.11382 0)
(0.0624882 -0.111242 0)
(0.0643342 -0.108081 0)
(0.0658357 -0.104336 0)
(0.0669761 -0.10002 0)
(0.0677372 -0.0951615 0)
(0.0440062 -0.12547 0)
(0.0472878 -0.124613 0)
(0.0504218 -0.123231 0)
(0.0533761 -0.121286 0)
(0.0561155 -0.118743 0)
(0.0586034 -0.115573 0)
(0.0608024 -0.111759 0)
(0.0626747 -0.107304 0)
(0.0641844 -0.102231 0)
(0.0652911 -0.0965664 0)
(0.0371481 -0.132178 0)
(0.0404871 -0.131132 0)
(0.0437515 -0.129494 0)
(0.046911 -0.127221 0)
(0.0499287 -0.124273 0)
(0.0527625 -0.120616 0)
(0.0553685 -0.116226 0)
(0.0576981 -0.111101 0)
(0.0596874 -0.105257 0)
(0.0612589 -0.0987091 0)
(0.0280363 -0.138908 0)
(0.0313944 -0.137822 0)
(0.0347556 -0.136083 0)
(0.0380951 -0.133641 0)
(0.0413796 -0.130447 0)
(0.0445747 -0.12646 0)
(0.047636 -0.121634 0)
(0.0504983 -0.115939 0)
(0.0530776 -0.109355 0)
(0.0552628 -0.101875 0)
(0.0164655 -0.145547 0)
(0.019765 -0.144571 0)
(0.0231441 -0.142898 0)
(0.0265859 -0.14047 0)
(0.0300746 -0.137233 0)
(0.0335858 -0.133127 0)
(0.0370789 -0.128071 0)
(0.0404966 -0.121981 0)
(0.0437456 -0.114787 0)
(0.0467003 -0.106422 0)
(0.00234175 -0.151904 0)
(0.00546841 -0.151178 0)
(0.00873814 -0.149729 0)
(0.0121442 -0.147502 0)
(0.0156867 -0.144442 0)
(0.0193678 -0.140468 0)
(0.0231738 -0.135461 0)
(0.0270737 -0.129284 0)
(0.0309992 -0.121787 0)
(0.0348445 -0.112803 0)
(-0.014277 -0.157734 0)
(-0.0114553 -0.157361 0)
(-0.00845317 -0.156247 0)
(-0.00527508 -0.154355 0)
(-0.00191203 -0.151648 0)
(0.00167692 -0.148058 0)
(0.00555232 -0.143446 0)
(0.0097481 -0.137599 0)
(0.0142275 -0.130247 0)
(0.0188981 -0.121115 0)
(-0.0331729 -0.162793 0)
(-0.0307685 -0.162827 0)
(-0.0281748 -0.162089 0)
(-0.0254191 -0.160579 0)
(-0.0224929 -0.158338 0)
(-0.0192959 -0.155401 0)
(-0.015636 -0.151665 0)
(-0.0113474 -0.146763 0)
(-0.00640665 -0.140233 0)
(-0.000887014 -0.131691 0)
(-0.0540485 -0.166905 0)
(-0.05214 -0.167373 0)
(-0.0500495 -0.16698 0)
(-0.047876 -0.165763 0)
(-0.0456543 -0.163885 0)
(-0.0432337 -0.161603 0)
(-0.0402686 -0.159175 0)
(-0.0364198 -0.155962 0)
(-0.0315652 -0.150932 0)
(-0.0259263 -0.143574 0)
(-0.0766663 -0.169943 0)
(-0.0753695 -0.170912 0)
(-0.0738788 -0.170816 0)
(-0.0723321 -0.169614 0)
(-0.0707586 -0.167609 0)
(-0.0692462 -0.16565 0)
(-0.0670815 -0.165298 0)
(-0.0639041 -0.16441 0)
(-0.0596634 -0.16129 0)
(-0.0543516 -0.155649 0)
(-0.1008 -0.171382 0)
(-0.100438 -0.172873 0)
(-0.0998684 -0.172978 0)
(-0.0991075 -0.17162 0)
(-0.0981574 -0.169981 0)
(-0.0966201 -0.169101 0)
(-0.0944573 -0.170272 0)
(-0.0919858 -0.171182 0)
(-0.0893281 -0.169668 0)
(-0.0856729 -0.165771 0)
(-0.124913 -0.170704 0)
(-0.125547 -0.172862 0)
(-0.125745 -0.17349 0)
(-0.125475 -0.172975 0)
(-0.124598 -0.172596 0)
(-0.123135 -0.172931 0)
(-0.121423 -0.173791 0)
(-0.119482 -0.175043 0)
(-0.117409 -0.174823 0)
(-0.11498 -0.172492 0)
(-0.146819 -0.168026 0)
(-0.148279 -0.171206 0)
(-0.149018 -0.173121 0)
(-0.149053 -0.173902 0)
(-0.148308 -0.174653 0)
(-0.146676 -0.176106 0)
(-0.144817 -0.177292 0)
(-0.142787 -0.178283 0)
(-0.140166 -0.178759 0)
(-0.137072 -0.177862 0)
(-0.164533 -0.163782 0)
(-0.166576 -0.168274 0)
(-0.167796 -0.171955 0)
(-0.168027 -0.174839 0)
(-0.167291 -0.177072 0)
(-0.165602 -0.179362 0)
(-0.163009 -0.182017 0)
(-0.159628 -0.184288 0)
(-0.155407 -0.185869 0)
(-0.149918 -0.185712 0)
(-0.176821 -0.158662 0)
(-0.17911 -0.164693 0)
(-0.180442 -0.170229 0)
(-0.180642 -0.175351 0)
(-0.179591 -0.180216 0)
(-0.177278 -0.184907 0)
(-0.173751 -0.189365 0)
(-0.169154 -0.193525 0)
(-0.16336 -0.197512 0)
(-0.156019 -0.199582 0)
(-0.18374 -0.153025 0)
(-0.186424 -0.160972 0)
(-0.187999 -0.168752 0)
(-0.188267 -0.176391 0)
(-0.187062 -0.18392 0)
(-0.184291 -0.191352 0)
(-0.179939 -0.198652 0)
(-0.174112 -0.20569 0)
(-0.16692 -0.211987 0)
(-0.158368 -0.21663 0)
(-0.185121 -0.146047 0)
(-0.188842 -0.156099 0)
(-0.191421 -0.16643 0)
(-0.192588 -0.177036 0)
(-0.192087 -0.187853 0)
(-0.189723 -0.198728 0)
(-0.185396 -0.209413 0)
(-0.179116 -0.21957 0)
(-0.170967 -0.228748 0)
(-0.161013 -0.236453 0)
(-0.179568 -0.136371 0)
(-0.18511 -0.148384 0)
(-0.189651 -0.161286 0)
(-0.192776 -0.175102 0)
(-0.194046 -0.189705 0)
(-0.193078 -0.204795 0)
(-0.189605 -0.219924 0)
(-0.183503 -0.234535 0)
(-0.17479 -0.248015 0)
(-0.163595 -0.259772 0)
(-0.164674 -0.122668 0)
(-0.17282 -0.136015 0)
(-0.180381 -0.15114 0)
(-0.186692 -0.168299 0)
(-0.190986 -0.187356 0)
(-0.192553 -0.207757 0)
(-0.190872 -0.228721 0)
(-0.185652 -0.249334 0)
(-0.176855 -0.268658 0)
(-0.164689 -0.285831 0)
(-0.136925 -0.102858 0)
(-0.148218 -0.11582 0)
(-0.160069 -0.131889 0)
(-0.171351 -0.15215 0)
(-0.180437 -0.176619 0)
(-0.185886 -0.204181 0)
(-0.186974 -0.233387 0)
(-0.183291 -0.262523 0)
(-0.174789 -0.289977 0)
(-0.161784 -0.314441 0)
(-0.09038 -0.0788886 0)
(-0.104679 -0.0902182 0)
(-0.123337 -0.106429 0)
(-0.144029 -0.12959 0)
(-0.161101 -0.159403 0)
(-0.171888 -0.193765 0)
(-0.176424 -0.232189 0)
(-0.174368 -0.272525 0)
(-0.165848 -0.311275 0)
(-0.151612 -0.345637 0)
(-0.022326 -0.0600135 0)
(-0.0376849 -0.0624775 0)
(-0.0636989 -0.0668148 0)
(-0.0994851 -0.089627 0)
(-0.12692 -0.135112 0)
(-0.145527 -0.184579 0)
(-0.155638 -0.235499 0)
(-0.155119 -0.285348 0)
(-0.146171 -0.334945 0)
(-0.130106 -0.380826 0)
(0.0406357 -0.0431848 0)
(0.0181042 -0.0255277 0)
(-0.00389254 -0.00296093 0)
(-0.0185676 -0.0238618 0)
(-0.0424354 -0.0971744 0)
(-0.0699553 -0.146627 0)
(-0.108893 -0.233049 0)
(-0.112402 -0.303995 0)
(-0.104474 -0.364349 0)
(-0.0891119 -0.420435 0)
(0.124263 0.0238265 0)
(0.111012 0.0649299 0)
(0.0867115 0.0721156 0)
(0.0610978 0.0593888 0)
(0.0277632 0.0302991 0)
(-0.0138738 -0.0155621 0)
(-0.0618145 -0.107038 0)
(-0.0594438 -0.29906 0)
(-0.0414316 -0.395841 0)
(-0.0245648 -0.465385 0)
(0.138064 0.0349195 0)
(0.11603 0.0655109 0)
(0.0934651 0.0821618 0)
(0.0691069 0.0790004 0)
(0.0617226 0.0526908 0)
(0.0437408 0.00469094 0)
(0.0125437 -0.0837644 0)
(-0.0441146 -0.231171 0)
(0.0223572 -0.448208 0)
(0.0530789 -0.522476 0)
(0.124963 0.100326 0)
(0.0843268 0.130037 0)
(0.058781 0.113428 0)
(0.0538449 0.0950009 0)
(0.0522869 0.0739806 0)
(0.048662 0.026534 0)
(0.0492628 -0.0558637 0)
(0.020411 -0.250494 0)
(0.0880692 -0.523063 0)
(0.135932 -0.59946 0)
(0.126699 0.180011 0)
(0.0792526 0.187859 0)
(0.0647196 0.138385 0)
(0.0606977 0.0990914 0)
(0.0629198 0.0578085 0)
(0.0662285 0.00829495 0)
(0.0743291 -0.0571586 0)
(0.0900361 -0.299631 0)
(0.179587 -0.608167 0)
(0.222344 -0.682154 0)
(0.120631 0.213685 0)
(0.116113 0.264359 0)
(0.0956375 0.153188 0)
(0.0863537 0.0974571 0)
(0.0882919 0.0501682 0)
(0.0959581 -0.00635091 0)
(0.110099 -0.0990708 0)
(0.188299 -0.407988 0)
(0.284693 -0.701032 0)
(0.301281 -0.74245 0)
(0.0455109 0.192915 0)
(0.0406429 0.238984 0)
(0.0452316 0.208279 0)
(0.078751 0.111099 0)
(0.097999 0.044697 0)
(0.128908 -0.0476422 0)
(0.177049 -0.287186 0)
(0.304315 -0.648547 0)
(0.347504 -0.758503 0)
(0.359195 -0.779751 0)
(-0.0845303 0.243182 0)
(-0.0948924 0.270287 0)
(-0.0760095 0.226003 0)
(0.0393931 -0.00477108 0)
(0.133717 -0.0163215 0)
(0.201848 -0.138872 0)
(0.298825 -0.453723 0)
(0.372619 -0.751822 0)
(0.386442 -0.791054 0)
(0.394982 -0.804449 0)
(-0.237451 0.320507 0)
(-0.238849 0.252992 0)
(-0.0940449 -0.184409 0)
(0.021623 -0.329913 0)
(0.0833111 -0.307177 0)
(0.264567 -0.348455 0)
(0.373034 -0.721572 0)
(0.391547 -0.785161 0)
(0.401755 -0.808913 0)
(0.412339 -0.823878 0)
(-0.221363 0.258967 0)
(0.0276516 -0.129443 0)
(0.115401 -0.323838 0)
(0.146134 -0.410848 0)
(0.176585 -0.488679 0)
(0.333758 -0.693882 0)
(0.37201 -0.772069 0)
(0.38747 -0.808262 0)
(0.401816 -0.832846 0)
(0.418636 -0.852115 0)
(0.0691294 -0.138689 0)
(0.191328 -0.356864 0)
(0.22232 -0.421453 0)
(0.248447 -0.488722 0)
(0.293946 -0.607838 0)
(0.342468 -0.738417 0)
(0.367696 -0.805101 0)
(0.385981 -0.844316 0)
(0.406759 -0.872607 0)
(0.427757 -0.891289 0)
(0.216954 -0.365306 0)
(0.232346 -0.416235 0)
(0.246837 -0.467499 0)
(0.277949 -0.55654 0)
(0.321762 -0.688363 0)
(0.356273 -0.790172 0)
(0.379072 -0.849971 0)
(0.399747 -0.889558 0)
(0.420576 -0.915669 0)
(0.439319 -0.929297 0)
(0.217337 -0.372987 0)
(0.219986 -0.420165 0)
(0.232341 -0.500089 0)
(0.269435 -0.638682 0)
(0.320312 -0.774023 0)
(0.355481 -0.850351 0)
(0.379985 -0.898452 0)
(0.40216 -0.932395 0)
(0.421448 -0.952975 0)
(0.437079 -0.959502 0)
(0.188992 -0.352165 0)
(0.189001 -0.418361 0)
(0.214674 -0.552504 0)
(0.278026 -0.758354 0)
(0.319157 -0.852931 0)
(0.345291 -0.904964 0)
(0.368028 -0.944094 0)
(0.388094 -0.971674 0)
(0.404641 -0.985153 0)
(0.417115 -0.983305 0)
(0.148698 -0.331231 0)
(0.156683 -0.426417 0)
(0.224109 -0.724099 0)
(0.270055 -0.845692 0)
(0.297602 -0.904399 0)
(0.320695 -0.949531 0)
(0.341384 -0.984559 0)
(0.358935 -1.00597 0)
(0.372533 -1.01153 0)
(0.381808 -1.00096 0)
(0.105332 -0.321408 0)
(0.144372 -0.616852 0)
(0.211791 -0.816971 0)
(0.247956 -0.897748 0)
(0.270389 -0.949531 0)
(0.291084 -0.991371 0)
(0.308931 -1.02048 0)
(0.322947 -1.0339 0)
(0.332695 -1.03069 0)
(0.338179 -1.01154 0)
(0.0904162 -0.340358 0)
(0.180606 -0.756531 0)
(0.211067 -0.881025 0)
(0.228035 -0.940271 0)
(0.245313 -0.987948 0)
(0.26173 -1.02533 0)
(0.275425 -1.0478 0)
(0.285505 -1.05324 0)
(0.291672 -1.04185 0)
(0.294031 -1.01509 0)
(0.0853978 -0.617202 0)
(0.149638 -0.830262 0)
(0.180641 -0.917171 0)
(0.197039 -0.972827 0)
(0.214068 -1.01976 0)
(0.229407 -1.05309 0)
(0.241379 -1.0689 0)
(0.249464 -1.06669 0)
(0.253772 -1.04787 0)
(0.254667 -1.0145 0)
(0.13265 -0.734797 0)
(0.148573 -0.874211 0)
(0.160211 -0.94504 0)
(0.172558 -1.00259 0)
(0.187234 -1.04902 0)
(0.200722 -1.07783 0)
(0.211157 -1.08687 0)
(0.218037 -1.07747 0)
(0.221584 -1.05217 0)
(0.222372 -1.01327 0)
(0.0841361 -0.761639 0)
(0.110453 -0.892248 0)
(0.123839 -0.968684 0)
(0.140381 -1.03261 0)
(0.157542 -1.07862 0)
(0.172093 -1.10228 0)
(0.182887 -1.10437 0)
(0.189958 -1.08823 0)
(0.193868 -1.05755 0)
(0.195681 -1.01511 0)
(0.0549678 -0.805437 0)
(0.0799522 -0.92195 0)
(0.0986112 -1.00513 0)
(0.117144 -1.0697 0)
(0.134122 -1.11103 0)
(0.148044 -1.12752 0)
(0.158308 -1.12194 0)
(0.164977 -1.09885 0)
(0.168407 -1.06269 0)
(0.16923 -1.01684 0)
(0.0434944 -0.865037 0)
(0.0628103 -0.966129 0)
(0.082565 -1.04454 0)
(0.0999262 -1.10502 0)
(0.114983 -1.14084 0)
(0.127487 -1.15062 0)
(0.136987 -1.13805 0)
(0.143436 -1.10831 0)
(0.146987 -1.06595 0)
(0.14777 -1.01421 0)
(0.0402776 -0.916363 0)
(0.0539283 -1.0046 0)
(0.0704337 -1.07782 0)
(0.0853947 -1.13533 0)
(0.0985014 -1.16722 0)
(0.109626 -1.17183 0)
(0.118455 -1.15382 0)
(0.125122 -1.11884 0)
(0.129963 -1.07111 0)
(0.132935 -1.01312 0)
(0.0438811 -0.946954 0)
(0.0519367 -1.03107 0)
(0.0624705 -1.10252 0)
(0.0734442 -1.15956 0)
(0.0839006 -1.18954 0)
(0.093123 -1.19081 0)
(0.100843 -1.16961 0)
(0.107599 -1.13228 0)
(0.114243 -1.08284 0)
(0.120576 -1.02346 0)
(0.0432194 -0.960307 0)
(0.0477804 -1.0443 0)
(0.053619 -1.11818 0)
(0.0609472 -1.17723 0)
(0.0685898 -1.20661 0)
(0.0752074 -1.20531 0)
(0.0803985 -1.18199 0)
(0.0847507 -1.14392 0)
(0.0891075 -1.09491 0)
(0.0934141 -1.03633 0)
(0.0313116 -0.965689 0)
(0.0359364 -1.05173 0)
(0.0408985 -1.12905 0)
(0.0468809 -1.19036 0)
(0.0526969 -1.21878 0)
(0.0570853 -1.2141 0)
(0.0596699 -1.18794 0)
(0.060879 -1.14835 0)
(0.0614301 -1.09887 0)
(0.0626912 -1.04042 0)
(0.0173062 -0.971775 0)
(0.0224505 -1.05979 0)
(0.0276803 -1.1391 0)
(0.0333329 -1.20139 0)
(0.0380472 -1.22795 0)
(0.0411095 -1.21909 0)
(0.042382 -1.18944 0)
(0.0420859 -1.14745 0)
(0.0408644 -1.09629 0)
(0.0407051 -1.03647 0)
(0.00339967 -0.97948 0)
(0.00944062 -1.06964 0)
(0.0154727 -1.14976 0)
(0.0212477 -1.21156 0)
(0.0251839 -1.23565 0)
(0.0276403 -1.22291 0)
(0.0289939 -1.19027 0)
(0.0290644 -1.14606 0)
(0.0283535 -1.09331 0)
(0.0286406 -1.03154 0)
(-0.00950384 -0.989912 0)
(-0.00214418 -1.08193 0)
(0.0048875 -1.16167 0)
(0.0107969 -1.22111 0)
(0.0138022 -1.24204 0)
(0.0157506 -1.22694 0)
(0.0178514 -1.19254 0)
(0.019061 -1.14674 0)
(0.0194996 -1.09261 0)
(0.0206719 -1.02972 0)
(-0.0204144 -1.00278 0)
(-0.011704 -1.09616 0)
(-0.00372813 -1.17462 0)
(0.00203783 -1.22951 0)
(0.00382635 -1.24614 0)
(0.00492797 -1.23133 0)
(0.00790806 -1.19674 0)
(0.0103828 -1.14974 0)
(0.0118644 -1.09391 0)
(0.013923 -1.02934 0)
(-0.0292666 -1.01683 0)
(-0.0194262 -1.11127 0)
(-0.0105092 -1.18804 0)
(-0.00520942 -1.23629 0)
(-0.00452554 -1.24715 0)
(-0.00475053 -1.23575 0)
(-0.00105262 -1.20302 0)
(0.00277362 -1.15502 0)
(0.00542122 -1.09645 0)
(0.00873903 -1.02774 0)
(-0.0368444 -1.03097 0)
(-0.0260917 -1.12777 0)
(-0.0159927 -1.20254 0)
(-0.0113348 -1.24198 0)
(-0.0107954 -1.24589 0)
(-0.0125864 -1.23964 0)
(-0.00841415 -1.21178 0)
(-0.00286985 -1.1634 0)
(0.00182909 -1.10161 0)
(0.00716932 -1.0272 0)
(-0.042575 -1.04923 0)
(-0.0317448 -1.14799 0)
(-0.0198409 -1.21943 0)
(-0.0158343 -1.2472 0)
(-0.014091 -1.24402 0)
(-0.017503 -1.24197 0)
(-0.0131893 -1.22305 0)
(-0.00595024 -1.17624 0)
(0.00198907 -1.11198 0)
(0.0103873 -1.03232 0)
(-0.0430881 -1.07516 0)
(-0.0333219 -1.17056 0)
(-0.0192448 -1.23676 0)
(-0.0169905 -1.25078 0)
(-0.0136658 -1.24231 0)
(-0.0190863 -1.24189 0)
(-0.0151694 -1.23499 0)
(-0.00739355 -1.19392 0)
(0.00427007 -1.1283 0)
(0.0149905 -1.0457 0)
(-0.0286129 -1.09998 0)
(-0.0269963 -1.1886 0)
(-0.0138796 -1.25161 0)
(-0.0159561 -1.2523 0)
(-0.0108318 -1.24138 0)
(-0.0181259 -1.24066 0)
(-0.0140144 -1.24439 0)
(-0.00811672 -1.21626 0)
(0.00734682 -1.1491 0)
(0.0172416 -1.06597 0)
(-0.02449 -1.12449 0)
(-0.0273889 -1.20713 0)
(-0.00983838 -1.26604 0)
(-0.0152641 -1.25316 0)
(-0.0069684 -1.24149 0)
(-0.0157164 -1.24006 0)
(-0.00942292 -1.24883 0)
(-0.00866107 -1.24257 0)
(0.0119555 -1.17437 0)
(0.0173384 -1.09099 0)
(-0.0141674 -1.12538 0)
(-0.0193607 -1.2258 0)
(0.00100982 -1.27726 0)
(-0.0122755 -1.2519 0)
(-0.00206097 -1.24082 0)
(-0.013009 -1.23918 0)
(-0.00380326 -1.24782 0)
(-0.0129112 -1.26661 0)
(0.015324 -1.20544 0)
(0.0142578 -1.10131 0)
(-0.00902619 -1.08695 0)
(-0.0159094 -1.24526 0)
(0.012558 -1.28147 0)
(-0.00951385 -1.24635 0)
(0.00209725 -1.23765 0)
(-0.0107145 -1.23628 0)
(0.000229166 -1.24281 0)
(-0.0212005 -1.27881 0)
(0.0158668 -1.24522 0)
(0.00495539 -1.06507 0)
(0.00692366 -1.02152 0)
(-0.019579 -1.27823 0)
(0.0211197 -1.2798 0)
(-0.0079452 -1.23722 0)
(0.00398366 -1.23204 0)
(-0.00832119 -1.23112 0)
(0.00318859 -1.23536 0)
(-0.0256995 -1.27926 0)
(0.0201045 -1.29414 0)
(-0.0105526 -0.983029 0)
(0.0249935 -0.00681613 0)
(0.0303115 -0.00640481 0)
(0.035262 -0.00592903 0)
(0.0398045 -0.00540417 0)
(0.0439033 -0.00484159 0)
(0.0475298 -0.00424961 0)
(0.0506622 -0.00363514 0)
(0.0532858 -0.00300555 0)
(0.0553922 -0.00236726 0)
(0.0569794 -0.00172499 0)
(0.0580514 -0.00108041 0)
(0.0586266 -0.000434506 0)
(0.0586984 0.000196158 0)
(0.0582662 0.000787511 0)
(0.0574067 0.00132373 0)
(0.0561721 0.00178951 0)
(0.0546066 0.00218084 0)
(0.0527593 0.0025012 0)
(0.0506807 0.00275587 0)
(0.0484186 0.00295004 0)
(0.0460182 0.00308851 0)
(0.0435222 0.00317538 0)
(0.0409717 0.00321383 0)
(0.0384065 0.00320555 0)
(0.0358661 0.00315009 0)
(0.0333912 0.00304542 0)
(0.031025 0.00288649 0)
(0.0288151 0.0026642 0)
(0.0268157 0.00236647 0)
(0.0250886 0.00197733 0)
(0.0237038 0.00147971 0)
(0.0227366 0.00085924 0)
(0.0222636 0.000115421 0)
(0.0223354 -0.000725147 0)
(0.0229395 -0.00159041 0)
(0.0239743 -0.00226922 0)
(0.0251013 -0.00235388 0)
(0.0255591 -0.00135088 0)
(0.0265376 0.00107993 0)
(0.0171755 0.0200011 0)
(0.0195007 -0.0142185 0)
(0.0238448 -0.0133173 0)
(0.027885 -0.0123006 0)
(0.0315879 -0.0111861 0)
(0.0349269 -0.00999113 0)