/*--------------------------------*- C++ -*----------------------------------*\
  =========                 |
  \\      /  F ield         | OpenFOAM: The Open Source CFD Toolbox
   \\    /   O peration     | Website:  https://openfoam.org
    \\  /    A nd           | Version:  8
     \\/     M anipulation  |
\*---------------------------------------------------------------------------*/
FoamFile
{
    version     2.0;
    format      ascii;
    class       volScalarField;
    location    "3.05";
    object      alpha.water;
}
// * * * * * * * * * * * * * * * * * * * * * * * * * * * * * * * * * * * * * //

dimensions      [0 0 0 0 0 0 0];

internalField   nonuniform List<scalar> 
9150
(
1
1
1
1
1
1
1
1
1
1
1
1
1
1
1
1
1
1
1
1
1
1
1
1
1
1
1
1
1
1
1
1
1
1
1
1
1
1
1
1
1
1
1
1
1
1
1
1
1
1
1
1
1
1
1
1
1
1
1
1
1
1
1
1
1
1
1
1
1
1
1
1
1
1
1
1
1
1
1
1
1
1
1
1
1
1
1
1
1
1
1
1
1
1
1
1
1
1
1
1
1
1
1
1
1
1
1
1
1
1
1
1
1
1
1
1
1
1
1
1
1
1
1
1
1
1
1
1
1
1
1
1
1
1
1
1
1
1
1
1
1
1
1
1
1
1
1
1
1
1
0.999991
0.999991
0.999992
1
1
1
1
1
1
1
0.999991
0.999997
1
1
1
1
1
1
1
1
0.999991
0.999996
1
1
1
1
1
1
1
1
0.999998
1
1
1
1
1
1
1
1
1
1
1
1
1
1
1
1
1
1
1
1
1
1
1
1
1
1
1
1
0.999992
1
1
1
1
1
1
1
1
1
0.999995
1
1
1
1
1
1
1
1
1
1
1
1
1
1
1
1
1
0.999999
0.999996
0.999996
1
1
1
1
1
1
1
0.999997
0.999987
0.999988
1
1
1
1
1
1
0.999993
0.999986
0.999985
0.999989
1
1
1
1
0.999999
0.999988
0.999985
0.999985
0.99999
1
1
1
1
0.999999
0.99999
0.999985
0.999985
0.999986
0.999998
1
0.999999
1
1
0.999998
0.999985
0.999985
0.999985
0.99999
1
1
1
1
1
1
0.999999
0.999995
0.999986
0.999988
0.999999
1
0.999994
0.999993
0.999993
0.999997
1
1
0.999997
0.999995
1
1
0.999999
0.999998
0.999996
1
1
1
1
0.999999
0.999998
1
0.999999
0.999999
0.999999
1
1
0.999987
0.999987
0.999993
0.999999
0.999997
0.999999
0.999999
0.999744
0.999214
0.999543
1
1
1
0.999999
0.999983
0.999954
0.997925
0.997042
0.998234
1
1
1
1
1
1
0.997014
0.996949
0.996971
0.998922
1
1
1
1
0.999998
0.999995
0.996923
0.996923
0.997782
1
1
1
0.999999
1
0.999932
0.999885
0.996923
0.997744
0.999931
0.99999
0.99973
0.99032
0.981085
0.990251
0.999999
0.999999
0.997179
0.999044
0.999715
0.977271
0.95748
0.957935
0.986972
0.999999
0.999999
0.999999
0.999097
0.986899
0.956021
0.95659
0.956954
0.969843
0.999947
0.999962
0.999996
0.99886
0.975988
0.956009
0.956069
0.95613
0.969832
0.999868
0.999892
0.999947
0.99929
0.98454
0.956005
0.956005
0.956009
0.967338
0.999891
0.999702
0.999802
0.987831
0.977209
0.97728
0.956154
0.956009
0.961167
0.999965
0.999977
0.999872
0.988281
0.97724
0.977226
0.97724
0.956104
0.956284
0.994022
0.999995
0.999994
0.999978
0.999239
0.988201
0.97724
0.977344
0.970143
0.98665
0.999995
0.999997
0.999996
0.999996
0.999859
0.999274
0.99863
0.999234
0.99786
0.996002
0.999256
0.999997
0.999997
0.999997
0.999998
0.999999
1
1
0.994311
0.995695
0.999998
0.999997
0.999996
0.999997
1
1
1
1
0.999983
0.9998
0.999999
0.999994
0.999985
0.999986
0.999999
1
1
1
0.999999
1
0.999999
0.999988
0.999985
0.999989
1
1
1
1
1
1
1
0.999995
0.999992
0.999999
1
1
1
1
1
1
1
1
1
1
1
1
1
1
1
1
1
1
1
1
1
1
1
1
1
1
1
1
1
1
1
0.999985
0.999962
0.999981
1
1
1
1
1
1
1
1
0.999998
0.999986
1
1
1
1
1
1
1
0.999999
0.999976
0.99665
1
1
0.999999
0.999999
1
1
0.999996
0.999924
0.872091
0.278046
1
1
1
1
0.999999
0.999984
0.99971
0.802319
0.218767
0.132401
1
1
1
0.999999
0.999991
0.999782
0.848076
0.226139
0.134243
0.133326
1
1
1
0.999996
0.999931
0.940753
0.355947
0.135286
0.134838
0.134045
1
1
0.999999
0.999989
0.999774
0.660557
0.134691
0.13483
0.134636
0.134045
1
1
0.999999
0.999968
0.885832
0.207214
0.134232
0.134211
0.134721
0.30295
1
1
0.999998
0.990476
0.641622
0.133907
0.133907
0.134158
0.156533
0.678132
1
1
0.99916
0.937063
0.321915
0.133566
0.134346
0.133872
0.30789
0.954515
0.999964
1
1
0.849591
0.16775
0.134345
0.134336
0.134336
0.552031
0.997158
0.999927
0.999991
0.999999
0.751518
0.149483
0.134307
0.134336
0.133972
0.706377
0.999413
0.999927
0.999982
0.999999
0.698677
0.143703
0.134349
0.134336
0.134297
0.694641
0.998697
0.999971
0.999992
0.999999
0.773265
0.162179
0.133579
0.134364
0.133613
0.55391
0.992624
0.999999
0.999999
0.999999
0.932189
0.255324
0.134589
0.133675
0.134596
0.370785
0.949764
0.999999
0.999999
0.999999
1
0.565034
0.136955
0.134869
0.134959
0.39569
0.954654
0.999995
0.999999
0.999999
1
0.941267
0.268505
0.137402
0.19001
0.723388
0.995758
0.999993
0.999999
0.999999
0.999999
0.999986
0.668859
0.147436
0.216264
0.777551
0.99704
0.999993
0.999999
0.999999
1
0.999999
0.874558
0.254256
0.157988
0.195129
0.352455
0.999999
1
1
1
1
0.640744
0.164234
0.15368
0.153269
0.152761
1
1
1
0.865337
0.454241
0.156122
0.152725
0.153029
0.153084
0.15335
0.704265
0.630015
0.419664
0.209887
0.154649
0.152488
0.152122
0.152635
0.152876
0.152494
0.203233
0.186723
0.172721
0.169364
0.165309
0.163664
0.237675
0.45721
0.760694
0.959432
0.500461
0.475315
0.511613
0.605277
0.718178
0.821905
0.912222
0.977131
0.998384
0.997726
0.981463
0.980407
0.986079
0.994794
0.997624
0.998112
0.998956
0.999357
0.999236
0.989512
0.997694
0.998415
0.999003
0.999356
0.999376
0.999373
0.999373
0.999364
0.998606
0.993601
0.980003
0.999172
0.999358
0.999389
0.999372
0.999373
0.999373
0.999373
0.999363
0.999307
0.573813
0.845867
0.999157
0.999352
0.999371
0.999372
0.99936
0.995929
0.997941
0.993477
0.841929
0.669863
0.377497
0.421969
0.716271
0.859566
0.662866
0.442542
0.575645
0.53142
0.997726
0.797105
0.196495
0.139522
0.139544
0.140168
0.195381
0.155734
0.152286
0.152454
0.948394
0.359851
0.13952
0.139522
0.139516
0.139544
0.175314
0.510992
0.293716
0.152395
0.208974
0.141254
0.140494
0.139502
0.17041
0.246287
0.652484
0.647465
0.511614
0.165802
0.475156
0.480962
0.469782
0.526868
0.7867
0.780054
0.717241
0.429428
0.463757
0.66266
0.984504
0.999907
0.999818
0.999442
0.804604
0.322477
0.329971
0.41391
0.798713
0.996926
0.999999
0.999997
0.98052
0.573825
0.147917
0.154166
0.364367
0.908777
0.997757
0.999573
0.999997
0.97532
0.46053
0.0932795
0.096361
0.370944
0.949172
0.99762
0.999663
0.999912
0.988525
0.486521
0.0736831
0.0749479
0.263286
0.911129
0.997451
0.99959
0.999907
0.999986
0.669225
0.0642915
0.0663766
0.0911739
0.8198
0.996825
0.999486
0.999909
0.999985
0.999995
0.176709
0.0637111
0.0642915
0.628257
0.995486
0.999313
0.999896
0.999982
0.999996
0.999999
0.0632715
0.0632239
0.209128
0.911237
0.998683
0.9998
0.999973
0.999996
0.999999
0.999999
0.0631366
0.064347
0.731056
0.99772
0.999701
0.999969
0.999995
0.999999
1
0.999999
0.064347
0.214719
0.930412
0.999312
0.999943
0.999991
0.999999
1
1
1
0.0608092
0.6749
0.998506
0.99985
0.999986
0.999999
1
1
1
1
0.0819143
0.888418
0.999535
0.999974
0.999997
1
1
1
1
1
0.391377
0.981704
0.999895
0.999993
1
1
1
1
1
1
0.583299
0.998568
0.999979
0.999998
1
1
1
1
1
1
0.657327
0.99961
0.999984
0.999999
1
1
1
1
1
1
0.704634
0.999748
0.999991
1
1
1
1
1
1
1
0.733405
0.999825
0.999994
1
1
1
1
1
1
1.00001
0.747812
0.999871
0.999997
1
1
1
1
1
1
0.973456
0.750102
0.999934
0.999999
1
1
1
1
1
1
0.929089
0.785769
0.999975
0.99999
1
1
1
1
1
1
0.895374
0.795111
0.999977
0.999977
0.999999
1
1
1
1
1
0.857579
0.771025
0.999978
0.999978
1
1
1
1
1
1
0.819074
0.747363
0.999979
0.999979
1
1
1
1
1
1
0.785506
0.729513
0.999979
0.99998
1
1
1
1
1
1
0.775705
0.712405
0.999707
0.999982
1
1
1
1
0.999999
0.9999
0.790421
0.708382
0.999124
0.999991
1
1
1
1
1
1.00004
0.815715
0.734753
0.999762
0.999997
1
1
1
1
1
1.00007
0.847593
0.771969
0.999982
1
1
1
1
1
1
1
0.879914
0.882005
0.999996
1
1
1
1
1
1
1
0.916388
0.944119
1
1
1
1
1
1
1
1
0.955952
1
1
1
1
1
1
1
1
1
1
1
1
1
1
1
1
1
1
1
1
1
1
1
1
1
1
1
1
1
1
1
1
1
1
1
1
1
1
1
0.998841
1
1
1
1
1
1
1
1
1
1
1
1
1
1
1
1
1
1
1
1
1
1
1
1
1
1
1
1
1
1
1.00001
1.00001
1.00001
1.00001
1.00001
1.00001
1.00001
1.00001
0.999986
0.998827
1
1
0.999999
0.999999
0.999999
1
1
1
1
1
1
1
1
1
1
1
1
1
1
1
1
1
1
0.999996
0.999996
0.999998
1
1
1
1
1
1
1
1
1
1
1
1
0.999668
0.998247
1
1
0.999997
0.99999
0.999992
0.999999
1
1
1
1
1
1
1
1
1
1
1
1
1
1
1
1
1
0.999995
0.999765
0.999248
0.997536
0.997606
1
1
1
1
1
1
1
1
1
0.999998
0.999132
0.998302
0.999998
0.999989
0.999989
0.999989
0.999996
1
1
1
1
1
1
1
1
1
1
1
1
1
1
1
1
1
0.999999
0.999947
0.998456
0.963043
0.911315
0.913502
0.976856
0.988156
0.996768
0.999819
0.998815
0.998876
0.999812
0.999999
0.999998
0.999932
0.999338
0.998718
0.999989
0.999989
0.999989
0.999992
1
1
1
0.999999
0.999999
1
1
1
1
1
1
1
1
0.999999
0.999999
0.999999
0.999999
0.999999
0.999994
0.999942
0.982788
0.898962
0.898522
0.898517
0.898522
0.898528
0.922047
0.951357
0.958038
0.989491
0.996102
0.987306
0.977505
0.975331
0.977947
0.9838
0.999989
0.999989
0.999989
0.999991
1
1
1
0.999999
0.999999
1
1
1
1
1
0.999999
0.999999
0.999999
0.999999
0.999999
0.999998
0.999942
0.999848
0.999818
0.99984
0.999999
0.988421
0.919777
0.898517
0.898532
0.898942
0.899397
0.903529
0.94876
0.987027
0.993609
0.964891
0.95109
0.950833
0.95075
0.95075
0.999999
0.999991
0.999989
0.999989
1
1
1
1
1
1
1
1
0.999999
0.999999
0.999998
0.999997
0.999999
0.999999
0.999999
0.999981
0.999707
0.999659
0.999659
0.999811
0.999999
0.999999
0.999999
0.999989
0.977231
0.923881
0.974662
0.998091
0.998187
0.996489
0.993798
0.990066
0.982329
0.975095
0.961498
0.95075
0.999999
1
0.999999
0.999997
0.999998
1
1
1
1
1
1
1
0.999999
0.999995
0.999995
0.999997
0.999999
0.999999
0.999998
0.999997
0.999789
0.999659
0.999671
0.999955
0.999999
0.999999
0.999999
0.999999
0.999999
0.999995
0.999579
0.996767
0.998241
0.99999
0.99999
0.99999
0.99999
0.99999
0.999985
0.989991
0.999996
1
1
1
1
1
1
1
1
0.999999
0.999998
0.999998
0.999999
0.999995
0.999941
0.999931
0.999979
0.999998
1
1
0.999998
0.999942
0.999922
0.999991
0.999999
0.999997
0.999999
0.999999
0.999995
0.996777
0.993522
0.993501
0.995225
0.99999
0.99999
0.99999
0.999973
0.999734
0.999446
0.999446
1
1
1
1
1
1
1
1
1
1
0.999999
0.999997
0.999996
0.999993
0.999828
0.993203
0.982861
0.987381
1
1
1
1
1
1
0.999996
0.999942
0.999933
0.999993
0.999998
0.999573
0.996713
0.996802
0.999981
0.999977
0.999965
0.99999
0.999991
0.999839
0.999055
0.998646
1
1
1
1
1
1
1
1
1
1
0.999999
0.999999
0.999994
0.999952
0.997468
0.936037
0.870569
0.895016
1
1
1
1
1
1
0.999998
0.999929
0.999869
0.999961
0.999998
0.999998
0.999998
0.999997
0.99999
0.999966
0.999966
0.999992
0.999996
0.999997
0.999999
0.999195
1
1
1
1
1
1
1
1
0.999999
0.999999
0.999999
0.999994
0.999947
0.989618
0.898127
0.870403
0.870378
0.870569
0.965311
1
1
1
1
1
0.999999
0.999957
0.99988
0.999902
0.999998
0.999998
0.999995
0.999811
0.99822
0.994291
0.995539
0.999966
0.999992
0.999999
1
1
1
1
1
1
1
1
1
1
0.999999
0.999999
0.999992
0.999912
0.98691
0.885465
0.87036
0.870327
0.870403
0.902989
1
1
1
1
0.999999
0.999999
0.999999
0.99989
0.999445
0.999354
0.999991
0.999997
0.999979
0.998498
0.973491
0.950721
0.957309
0.982848
0.997618
0.999984
1
1
1
1
1
1
1
1
1
1
0.999999
0.999996
0.999957
0.997659
0.914455
0.870361
0.870327
0.870383
0.895132
0.998787
1
1
0.999999
0.999999
0.999999
0.999999
0.999996
0.999991
0.997742
0.995669
0.998617
0.999996
0.999982
0.995485
0.951774
0.950703
0.950703
0.950693
0.964473
0.989368
1
1
1
0.999999
0.999995
0.999995
0.999999
1
1
1
0.999996
0.999965
0.999595
0.961133
0.870397
0.870341
0.870383
0.88528
0.992758
1
0.999997
0.999978
0.999992
0.999987
0.999995
0.999996
0.999992
0.999967
0.997538
0.995672
0.995814
0.999992
0.999906
0.99822
0.971627
0.950721
0.950703
0.950806
0.950921
0.953557
0.988338
1
1
0.99999
0.999979
0.999979
0.999993
1
1
0.999989
0.999846
0.997121
0.946772
0.870806
0.870629
0.870397
0.881473
0.987395
1
1
0.999998
0.999825
0.999297
0.999597
0.999077
0.999913
0.999971
0.999885
0.99973
0.997671
0.995523
0.999985
0.999861
0.999731
0.998988
0.981763
0.963096
0.951815
0.950964
0.951241
0.957687
0.999999
0.999979
0.999979
0.999979
0.999979
0.99999
1
0.999994
0.999915
0.99381
0.901576
0.871049
0.870919
0.870806
0.881967
0.987526
1
1
1
0.999993
0.99986
0.993
0.936155
0.88882
0.929557
0.99086
0.998851
0.999188
0.996971
0.995697
0.999767
0.999799
0.999593
0.99932
0.999214
0.999207
0.994184
0.972259
0.95188
0.954083
0.999999
0.999979
0.999979
0.999979
0.999986
1
0.999999
0.999987
0.999847
0.978527
0.871971
0.871031
0.871049
0.882384
0.989431
1
1
1
1
0.999994
0.999853
0.972758
0.820709
0.820027
0.819495
0.852351
0.895887
0.907911
0.910663
0.922196
0.956791
0.983659
0.996308
0.999214
0.999207
0.999255
0.999312
0.999375
0.992865
0.986815
0.999914
0.999994
0.999979
0.999983
1
1
1
0.999999
1
1
0.975349
0.884077
0.880965
0.98613
1
1
1
1
1
0.999996
0.999932
0.970715
0.829444
0.819597
0.819483
0.81946
0.819472
0.819448
0.819448
0.819451
0.81945
0.845671
0.891809
0.949849
0.98406
0.998408
0.999365
0.999461
0.999459
0.999464
0.992083
0.999995
0.999999
1
1
1
1
0.999999
1
1
1
1
1
0.999272
1
0.999997
0.999997
1
1
1
0.999996
0.99997
0.973216
0.859085
0.819593
0.819479
0.81946
0.819475
0.819461
0.819441
0.819627
0.819838
0.819886
0.820028
0.855778
0.913348
0.968905
0.999424
0.999463
0.999346
0.986632
0.999893
1
1
1
1
0.999998
0.999998
1
1
1
1
1
1
0.999996
0.999991
0.999996
1
1
1
0.999998
0.999993
0.999968
0.99986
0.946215
0.867541
0.838851
0.856334
0.850271
0.820229
0.819837
0.819897
0.820028
0.820527
0.822588
0.824519
0.84327
0.949515
0.999451
0.999182
0.986632
1
1
1
1
0.999999
0.999997
0.999997
0.999997
0.999998
1
1
1
0.999996
0.999991
0.999991
0.999994
1
1
1
0.999987
0.999111
0.998146
0.99913
0.999999
1
0.999999
0.999998
0.999963
0.957973
0.892877
0.866156
0.888059
0.907819
0.848991
0.823925
0.823925
0.835824
0.995501
0.999152
0.986632
0.999995
0.999988
1
1
1
1
1
0.999996
0.999993
0.999996
1
0.999998
0.999991
0.999991
0.999991
0.999991
0.999995
1
0.999999
0.999994
0.998149
0.996432
0.996432
0.999416
0.999999
0.999999
0.999999
0.999971
0.999925
0.999691
0.99959
0.999674
0.999715
0.99421
0.886335
0.823925
0.823962
0.939745
0.996821
0.986642
0.993007
0.991168
0.998983
1
1
1
1
0.999996
0.999993
0.999992
0.999995
1
0.999997
0.999991
0.999991
0.999991
0.999994
1
1
1
0.999507
0.996838
0.996483
0.998482
1
0.999994
0.999995
0.99874
0.993045
0.991055
0.994773
0.997913
0.999739
0.999949
0.999323
0.868568
0.823935
0.841631
0.990246
0.990937
0.977476
0.977628
0.994972
1
1
1
0.999996
0.999992
0.999992
0.999993
0.999997
1
1
1
0.999996
0.999994
1
1
1
1
1
1
0.999323
1
1
0.999992
0.999992
0.998803
0.982468
0.978098
0.978123
0.982049
0.998922
0.999949
0.999949
0.988577
0.82406
0.824355
0.979602
0.993064
0.977309
0.982523
1
1
1
1
0.999994
0.999992
0.999993
0.999997
1
1
1
1
1
1
1
1
1
1
1
1
1
1
1
0.999998
0.999998
1
0.994888
0.980137
0.978098
0.980068
0.998822
0.999949
0.999949
0.999921
0.883329
0.824509
0.957292
0.993065
0.980493
0.999987
1
1
1
1
0.999999
0.999994
0.999996
1
1
1
1
1
1
1
1
1
1
1
1
1
1
1
1
1
1
1
1
0.999955
0.991666
0.996958
0.999897
0.999946
0.99993
0.999927
0.992349
0.824664
0.913173
0.993046
0.99442
1
1
1
1
1
1
1
1
1
1
1
1
1
1
1
1
1
1
1
1
1
1
1
1
1
1
1
1
1
1
1
1
0.999963
0.999892
0.999892
0.999893
0.824902
0.882603
0.992329
0.999976
1
0.999999
0.999999
0.999999
1
1
1
1
1
1
1
1
1
1
1
1
1
1
1
1
1
1
1
1
1
1
1
1
1
1
1
1
0.999989
0.999893
0.999904
0.999175
0.894782
0.880482
0.990904
1
1
1
1
1
1
1
1
1
1
1
1
1
1
1
1
1
1
1
1
1
1
1
1
1
1
1
1
1
1
1
1
1
0.999996
0.999945
0.999966
0.999863
0.995875
0.880475
0.989754
1
1
1
1
1
1
1
1
1
1
1
1
1
1
1
1
1
1
1
1
1
1
1
1
1
1
1
1
1
1
1
1
1
0.999999
1
1
0.99996
0.99445
0.880554
0.986662
1
1
1
1
1
1
1
1
1
1
1
1
1
1
1
1
1
1
1
1
1
1
1
1
1
1
1
1
1
1
1
1
1
1
1
1
0.999977
0.980527
0.880797
0.983189
1
1
1
1
1
1
1
1
1
1
1
1
1
1
1
1
1
1
1
1
1
1
1
1
1
1
1
1
1
1
1
1
1
1
1
1
0.999999
0.977625
0.895119
0.982
1
1
1
0.999999
0.999999
0.999999
0.999999
0.999999
0.999999
0.999999
0.999999
0.999999
0.999999
1
1
1
1
1
1
1
1
1
1
1
1
1
1
1
1
1
1
1
1
1
1
1
0.999995
0.988372
0.979304
0.982266
0.999998
0.999997
0.999993
0.99999
0.999987
0.999985
0.999984
0.999981
0.999982
0.999989
0.999989
0.99999
0.999993
0.999996
0.999998
0.999999
1
1
1
1
1
1
1
1
1
1
1
1
1
1
1
1
1
1
1
1
0.999995
0.997964
0.991388
0.982242
0.999995
0.9999
0.999845
0.99978
0.999741
0.999763
0.999816
0.999778
0.999796
0.999834
0.999837
0.999865
0.999909
0.999954
0.999981
0.999993
0.999998
0.999999
1
1
1
1
1
1
1
1
1
1
1
0.999999
0.999999
0.999998
0.999997
0.999999
1
1
0.999999
0.997639
0.930521
0.952224
0.999991
0.999977
0.996919
0.989946
0.980173
0.970438
0.966451
0.969726
0.967516
0.96932
0.98376
0.99711
0.998891
0.999462
0.99978
0.999927
0.99998
0.999996
0.999999
1
1
1
1
1
1
1
1
1
1
0.999983
0.999967
0.999977
0.999974
0.99999
0.999999
0.999999
0.999996
0.996486
0.927769
0.971738
0.999983
0.902703
0.667654
0.514353
0.45354
0.421603
0.415381
0.440223
0.432534
0.433324
0.502907
0.650144
0.815425
0.940986
0.995843
0.999248
0.999784
0.999958
0.999991
0.999998
1
1
1
1
1
1
1
1
1
0.999961
0.999157
0.999789
0.999754
0.999904
0.999999
0.999999
0.999992
0.996045
0.927768
0.976434
0.525254
0.130966
0.131384
0.131648
0.131649
0.132594
0.137497
0.14729
0.159741
0.170294
0.176874
0.183405
0.30166
0.449698
0.69282
0.927053
0.998584
0.999664
0.999918
0.999985
0.999998
1
1
1
1
1
1
1
1
0.999993
0.998408
0.979816
0.995325
0.997718
0.999994
0.999998
0.999983
0.996257
0.928558
0.976473
0.131399
0.13126
0.131402
0.131526
0.224419
0.475858
0.600908
0.615507
0.47726
0.354754
0.277884
0.240428
0.252461
0.270908
0.276708
0.439715
0.781967
0.987904
0.999366
0.999858
0.999982
0.999998
1
1
1
1
1
1
1
0.999998
0.999699
0.947614
0.7702
0.799195
0.999962
0.999995
0.999945
0.997539
0.97706
0.976836
0.131905
0.131402
0.131917
0.540036
0.99452
1
1
1
1
0.938267
0.833181
0.657467
0.438561
0.295418
0.289044
0.303816
0.311327
0.636697
0.952135
0.99906
0.99986
0.999983
0.999998
1
1
1
1
1
1
0.999998
0.999943
0.93836
0.577256
0.575018
0.889591
0.999962
0.999928
0.997627
0.979859
0.965262
0.132407
0.180652
0.815404
1
1
1
1
1
1
1
1
0.999997
0.999961
0.776067
0.469918
0.316106
0.32283
0.333731
0.531051
0.913245
0.998897
0.999878
0.999986
0.999999
1
1
1
1
1
0.999999
0.999974
0.976071
0.647258
0.575018
0.626854
0.999897
0.999909
0.995419
0.957483
0.957485
0.154951
0.753531
1
1
1
1
1
1
1
1
1
1
1
1
0.999888
0.755614
0.41412
0.339354
0.354786
0.498086
0.896412
0.999047
0.999906
0.999988
0.999999
1
1
1
1
1
0.999998
0.999963
0.915965
0.575018
0.576698
0.962598
0.999878
0.995542
0.957485
0.957481
0.529458
0.999977
1
1
1
1
1
1
1
1
1
1
1
1
0.999999
0.999999
0.951711
0.585884
0.371417
0.38104
0.506142
0.902124
0.99925
0.999923
0.99999
0.999999
1
1
1
1
1
0.999992
0.984921
0.623115
0.578377
0.734523
0.999784
0.997
0.95758
0.957542
0.945822
1
1
1
1
1
1
1
1
1
1
1
1
1
1
1
0.999996
0.999913
0.763204
0.4305
0.422628
0.540467
0.921126
0.999392
0.999934
0.999992
0.999999
1
1
1
1
1
0.999986
0.935408
0.577257
0.576029
0.998101
0.997502
0.97629
0.972953
0.999996
1
1
1
1
1
0.999999
1
1
1
1
1
1
1
1
1
1
0.999996
0.99997
0.872024
0.490448
0.475351
0.598953
0.946214
0.999488
0.999859
0.999955
0.999996
1
1
1
1
0.999999
0.995183
0.59425
0.57592
0.912222
0.99741
0.995202
0.956724
1
1
1
1
1
1
0.999999
0.999999
0.999999
1
1
1
1
1
1
1
0.999999
0.999995
0.99999
0.999957
0.915964
0.535025
0.522414
0.682042
0.957751
0.99645
0.999595
0.999967
0.999997
1
1
1
1
0.999925
0.903184
0.575936
0.752533
0.99675
0.994506
0.954377
0.999996
1
0.999999
0.99999
0.999992
0.999998
0.999998
0.999999
0.999998
1
1
1
1
1
1
0.999998
0.999994
0.99999
0.999951
0.999915
0.9999
0.929988
0.569299
0.567956
0.786431
0.97851
0.99863
0.999892
0.999991
0.999999
1
1
1
1
1
0.576432
0.644361
0.969169
0.994217
0.954364
0.999977
0.999998
0.999999
0.999998
0.999714
0.999744
0.999918
0.999988
0.999997
0.999999
0.999999
0.999999
0.999999
0.999999
0.999996
0.999985
0.999957
0.999937
0.999915
0.9999
0.999903
0.999903
0.917074
0.606404
0.657313
0.931503
0.997641
0.999809
0.999983
0.999998
0.999999
1
1
1
1
0.789134
0.645417
0.902151
0.987119
0.954385
0.999911
0.999982
0.999919
0.98143
0.967776
0.972769
0.994956
0.999824
0.999973
0.999987
0.999991
0.999992
0.999993
0.99999
0.999972
0.999885
0.99967
0.999557
0.99961
0.999807
0.999879
0.999903
0.9999
0.887127
0.730678
0.892182
0.995267
0.999736
0.999975
0.999998
1
1
1
1
1
0.986852
0.647644
0.821511
0.980383
0.954454
0.999672
0.999912
0.999842
0.999753
0.568531
0.508823
0.786925
0.979081
0.999543
0.999815
0.999879
0.999908
0.999926
0.999906
0.999758
0.999074
0.997406
0.996647
0.99729
0.998704
0.998724
0.999787
0.999899
0.999893
0.972353
0.926027
0.987183
0.9996
0.999967
0.999996
0.999999
1
0.999999
0.999999
1
1
0.6826
0.765467
0.969009
0.961805
0.999045
0.999773
0.999815
0.999835
0.661344
0.19444
0.132632
0.430578
0.851851
0.985795
0.998532
0.998955
0.99923
0.99913
0.998595
0.949248
0.769902
0.734306
0.823907
0.944701
0.99045
0.998512
0.999866
0.999901
0.999899
0.999899
0.987183
0.995661
0.99987
0.999976
0.999992
0.999999
0.999999
0.999999
1
1
0.820391
0.7578
0.942625
0.963772
0.9988
0.999758
0.999835
0.999844
0.955114
0.351749
0.0866812
0.080486
0.154597
0.477923
0.729396
0.873576
0.951008
0.933387
0.796852
0.417054
0.127278
0.107676
0.247678
0.718442
0.980806
0.996968
0.999653
0.999894
0.999901
0.999894
0.98998
0.986636
0.996469
0.999726
0.999942
0.999992
0.999999
1
1
1
0.922192
0.7578
0.910562
0.963775
0.999459
0.999801
0.999844
0.999849
0.999856
0.907068
0.315774
0.0693579
0.0647913
0.0628451
0.0756596
0.208588
0.346982
0.288413
0.11596
0.0602985
0.0641684
0.0665949
0.0691173
0.460307
0.968577
0.99711
0.99956
0.999869
0.999894
0.99988
0.987702
0.986157
0.986954
0.997284
0.999884
0.999985
0.999998
1
1
1
0.979507
0.760936
0.888096
0.963579
0.999481
0.99981
0.999849
0.999856
0.999858
0.999857
0.943444
0.367699
0.0633492
0.0601131
0.0593503
0.0596103
0.0597094
0.0598395
0.0597488
0.0596356
0.0603931
0.0653373
0.0932165
0.508413
0.975595
0.998163
0.999591
0.999845
0.999869
0.999845
0.988918
0.986053
0.986161
0.992345
0.999853
0.999986
0.999998
1
1
1
1
0.780668
0.874924
0.963007
0.806916
0.999462
0.999803
0.999772
0.999829
0.999855
0.999827
0.9052
0.264571
0.059592
0.0590429
0.0594548
0.0599622
0.05985
0.05985
0.0591321
0.0701525
0.280068
0.626241
0.974557
0.998174
0.999404
0.999754
0.999813
0.999834
0.999815
0.997725
0.986229
0.98607
0.993286
0.999884
0.999983
0.999998
1
1
1
1
0.819537
0.868834
0.962073
0.153728
0.230833
0.72531
0.999348
0.999826
0.999827
0.999796
0.999706
0.511007
0.0586367
0.0601693
0.0609923
0.0602531
0.0599445
0.0590328
0.0823158
0.47863
0.98137
0.995001
0.998354
0.999327
0.999742
0.999814
0.999811
0.999815
0.999815
0.999815
0.99264
0.992067
0.999052
0.999965
0.999993
0.999999
1
1
1
1
0.866112
0.858947
0.959563
0.153266
0.154839
0.648665
0.996914
0.998605
0.999579
0.999706
0.987478
0.450323
0.0579632
0.0588868
0.060362
0.0595785
0.0591952
0.0583948
0.525528
0.973528
0.993818
0.998026
0.999253
0.999608
0.999782
0.999795
0.999809
0.99981
0.999798
0.999348
0.999811
0.999878
0.999893
0.999981
0.999998
1
1
1
1
1
0.887513
0.858947
0.952233
0.510437
0.966391
0.997221
0.998218
0.998607
0.998908
0.999526
0.738208
0.137778
0.0614636
0.060537
0.0607357
0.0603481
0.0601958
0.359786
0.914536
0.990367
0.997121
0.998799
0.999447
0.99965
0.999739
0.999787
0.999794
0.999804
0.999785
0.999347
0.99944
0.99956
0.999625
0.99989
0.999996
0.999999
1
1
1
1
0.913486
0.858947
0.943466
0.992306
0.988024
0.977407
0.968911
0.987449
0.998704
0.760625
0.169747
0.0643569
0.0640217
0.0632943
0.0611454
0.0618408
0.232399
0.800168
0.984373
0.994714
0.998083
0.999183
0.999526
0.99966
0.999716
0.999756
0.999775
0.999793
0.999772
0.99975
0.998729
0.997281
0.997892
0.999763
0.999982
0.999997
0.999999
1
1
1
0.938335
0.859733
0.937482
0.99703
0.840791
0.755678
0.755678
0.795136
0.976096
0.953757
0.500844
0.0811677
0.0661155
0.0647486
0.0643478
0.208551
0.740479
0.98266
0.993051
0.997283
0.998751
0.999288
0.999501
0.999608
0.999668
0.99972
0.999748
0.999771
0.999746
0.99973
0.997518
0.997283
0.998101
0.999863
0.999984
0.999997
0.999999
1
1
1
0.957175
0.861676
0.93515
0.935374
0.921056
0.963617
0.980268
0.978212
0.974366
0.887934
0.413983
0.106649
0.0772978
0.084705
0.277219
0.84027
0.986943
0.993274
0.996413
0.997903
0.998583
0.998993
0.999274
0.999497
0.999606
0.999674
0.99971
0.999731
0.999717
0.998233
0.995155
0.997591
0.999876
0.999971
0.999991
0.999995
0.999999
1
1
1
0.967317
0.864312
0.933915
0.995804
0.996826
0.99638
0.987067
0.928986
0.574407
0.188036
0.173837
0.142725
0.223129
0.513233
0.985044
0.990783
0.991244
0.994388
0.995772
0.996849
0.99782
0.998571
0.998972
0.999247
0.999393
0.999325
0.999379
0.999607
0.999286
0.995065
0.995059
0.995567
0.999372
0.999898
0.999826
0.999919
0.999998
1
1
1
0.978037
0.867656
0.933083
0.999098
0.998104
0.959443
0.545729
0.194723
0.208639
0.202975
0.187986
0.335067
0.828333
0.992623
0.993463
0.992361
0.990561
0.990585
0.993821
0.995783
0.996825
0.997029
0.997228
0.997317
0.997374
0.997338
0.995722
0.990561
0.989089
0.996386
0.997623
0.997661
0.997655
0.998079
0.999469
0.999973
0.999997
1
1
1
0.98913
0.871347
0.932425
0.958214
0.727585
0.182833
0.182119
0.191394
0.195508
0.285831
0.573217
0.994056
0.995164
0.99481
0.994174
0.992761
0.99195
0.990659
0.992122
0.993054
0.979326
0.958675
0.933343
0.874905
0.773028
0.710258
0.620232
0.524294
0.588871
0.783053
0.997293
0.998141
0.998504
0.999144
0.9998
0.999976
0.999995
0.999997
1
1
0.986817
0.874752
0.931981
0.174972
0.160821
0.165578
0.168154
0.220325
0.380986
0.936485
0.997064
0.996924
0.996324
0.99533
0.994524
0.994087
0.992953
0.988702
0.926496
0.837776
0.680942
0.557282
0.565973
0.4972
0.176487
0.120381
0.114207
0.112218
0.110312
0.121336
0.218623
0.678803
0.997686
0.999063
0.999837
0.999958
0.99998
0.999996
1
1
0.974142
0.876616
0.922227
0.1522
0.152624
0.161894
0.311953
0.838456
0.997866
0.997894
0.997793
0.997332
0.996591
0.996206
0.995387
0.993557
0.927527
0.818772
0.494414
0.498729
0.50762
0.50753
0.513775
0.618136
0.655553
0.493571
0.142563
0.0869546
0.0809428
0.0796602
0.0781997
0.114645
0.712409
0.998022
0.999661
0.99992
0.999947
0.999995
1
1
0.973391
0.87779
0.878133
0.152658
0.239853
0.666927
0.996723
0.998408
0.998656
0.998406
0.997977
0.997658
0.997311
0.996103
0.992789
0.924767
0.514674
0.485033
0.493915
0.503061
0.505235
0.724603
0.98884
0.993828
0.994012
0.994025
0.768785
0.155061
0.0775339
0.0775258
0.0762759
0.0763463
0.290403
0.925451
0.999407
0.999911
0.999947
0.999994
1
1
0.983572
0.93683
0.909197
0.352387
0.908008
0.998704
0.999126
0.999176
0.998898
0.99856
0.998367
0.997832
0.996326
0.985269
0.763277
0.471352
0.477714
0.478295
0.484686
0.665364
0.987715
0.994359
0.994022
0.994067
0.994044
0.994041
0.891303
0.236703
0.0758992
0.0761675
0.076131
0.0756199
0.0745934
0.689493
0.999165
0.999924
0.999964
0.999993
1
1
0.998823
0.98597
0.966501
0.987523
0.998978
0.999648
0.999477
0.999259
0.999072
0.998894
0.998141
0.996038
0.956294
0.650565
0.462976
0.467033
0.476014
0.477722
0.833093
0.991181
0.994287
0.993983
0.994059
0.99406
0.994059
0.994044
0.655253
0.114832
0.0752203
0.0758667
0.0771555
0.0769346
0.0754363
0.494169
0.992787
0.999866
0.999974
0.999994
1
1
1
0.884524
0.967858
0.999391
0.999831
0.999692
0.999567
0.999452
0.999236
0.998387
0.995522
0.914233
0.562499
0.441362
0.454249
0.465935
0.469992
0.695531
0.984962
0.993985
0.993947
0.994048
0.994053
0.994059
0.994044
0.768018
0.171012
0.0776755
0.0759117
0.077207
0.0771108
0.0768983
0.0771108
0.538358
0.992541
0.999741
0.999983
0.999999
1
1
0.967005
0.79384
0.968513
0.999899
0.999855
0.999771
0.999702
0.999494
0.998543
0.994458
0.887107
0.454068
0.417165
0.42904
0.457748
0.501621
0.600197
0.814974
0.985744
0.993756
0.994032
0.993998
0.994048
0.994004
0.748849
0.186564
0.0914404
0.0821423
0.0769276
0.0772063
0.0769512
0.076793
0.118856
0.737699
0.996506
0.999886
0.999997
1
1
1
0.771307
0.784895
0.975938
0.99995
0.999895
0.999867
0.999721
0.998928
0.993451
0.820474
0.409982
0.409982
0.417228
0.48501
0.845787
0.825967
0.60237
0.64002
0.928626
0.993543
0.993922
0.993948
0.994011
0.774212
0.177363
0.131096
0.14614
0.148755
0.0781148
0.0771826
0.0848796
0.108841
0.526833
0.964951
0.999977
0.999996
0.999997
1
1
0.946347
0.722459
0.800575
0.978269
0.999961
0.999956
0.999905
0.999407
0.994159
0.75515
0.405087
0.408154
0.412558
0.444216
0.847201
0.851455
0.686702
0.557849
0.703538
0.979143
0.99356
0.993679
0.993899
0.890726
0.248774
0.130538
0.130821
0.151098
0.150774
0.137851
0.0775416
0.07798
0.303849
0.922584
0.978043
0.984895
0.967604
0.994125
0.971258
0.862819
0.727923
0.719747
0.832616
0.978347
0.999977
0.999984
0.99991
0.996224
0.743024
0.398628
0.403862
0.409747
0.426813
0.843582
0.861658
0.858993
0.449722
0.551064
0.911894
0.985956
0.993465
0.993501
0.971455
0.36506
0.212482
0.130601
0.130786
0.151202
0.151202
0.133487
0.0780332
0.0802397
0.508871
0.927404
0.968748
0.744904
0.705836
0.737521
0.722512
0.709609
0.709735
0.714015
0.888423
0.978347
0.999997
1.00017
0.998634
0.816398
0.381183
0.39103
0.398628
0.446527
0.859406
0.862616
0.862013
0.564591
0.423769
0.724762
0.939803
0.941228
0.977422
0.993463
0.61003
0.151699
0.127909
0.147788
0.150089
0.151202
0.151097
0.0865473
0.0794138
0.102366
0.69627
0.928755
0.751073
0.695633
0.695846
0.698346
0.704291
0.708914
0.709531
0.739783
0.951453
0.978347
1.00003
0.999967
0.930752
0.403232
0.370979
0.381183
0.483568
0.862427
0.863226
0.862287
0.84525
0.291901
0.417238
0.917783
0.936236
0.935672
0.948738
0.877121
0.251462
0.103872
0.107023
0.149581
0.150286
0.151097
0.094679
0.0879952
0.0828745
0.267114
0.950115
0.937519
0.695549
0.695549
0.695975
0.696061
0.710821
0.768179
0.834279
0.924843
0.975397
0.95436
1.00002
1.00011
0.433297
0.345783
0.354411
0.511664
0.858803
0.860443
0.862287
0.854487
0.274947
0.274972
0.699077
0.977956
0.940369
0.937277
0.946617
0.495254
0.100577
0.101955
0.132261
0.149582
0.149662
0.098027
0.0925372
0.0903225
0.115458
0.669511
0.996036
0.976757
0.736501
0.695285
0.729749
0.876912
0.944086
0.949204
0.966129
0.977091
0.978283
0.953226
1.00013
0.823565
0.307792
0.318897
0.513163
0.851099
0.854849
0.858875
0.789111
0.274622
0.187479
0.333112
0.964271
0.98066
0.97645
0.96364
0.815998
0.222018
0.0994149
0.103472
0.147444
0.14937
0.0988984
0.0930994
0.0934388
0.0901674
0.328547
0.984028
0.997732
0.995099
0.929611
0.865032
0.957727
0.991159
0.982838
0.973819
0.951926
0.978451
0.978747
0.965535
1.00026
0.350574
0.273688
0.436372
0.837116
0.844107
0.851099
0.671317
0.164785
0.0649834
0.20906
0.913982
0.985824
0.985785
0.985776
0.985099
0.628994