/*--------------------------------*- C++ -*----------------------------------*\
  =========                 |
  \\      /  F ield         | OpenFOAM: The Open Source CFD Toolbox
   \\    /   O peration     | Website:  https://openfoam.org
    \\  /    A nd           | Version:  8
     \\/     M anipulation  |
\*---------------------------------------------------------------------------*/
FoamFile
{
    version     2.0;
    format      ascii;
    class       surfaceScalarField;
    location    "3.05";
    object      alphaPhi0.water;
}
// * * * * * * * * * * * * * * * * * * * * * * * * * * * * * * * * * * * * * //

dimensions      [0 3 -1 0 0 0 0];

internalField   nonuniform List<scalar> 
18095
(
1.58179e-07
-9.65747e-07
8.07567e-07
1.65264e-07
-1.24809e-06
1.24101e-06
1.22197e-07
-1.24216e-06
1.28522e-06
6.53972e-08
-1.26341e-06
1.32021e-06
1.22109e-10
-1.28042e-06
1.34569e-06
-6.5175e-08
-1.28044e-06
1.34574e-06
-1.22028e-07
-1.26348e-06
1.32033e-06
-1.65156e-07
-1.24222e-06
1.28535e-06
-1.58136e-07
-1.24815e-06
1.24113e-06
-9.65881e-07
8.07745e-07
1.10985e-07
-1.07673e-06
9.93681e-08
-1.23648e-06
7.28633e-08
-1.21565e-06
4.00863e-08
-1.23064e-06
8.19584e-11
-1.24041e-06
-3.99349e-08
-1.24042e-06
-7.27432e-08
-1.23067e-06
-9.92781e-08
-1.21569e-06
-1.10935e-07
-1.2365e-06
-1.07682e-06
6.71022e-08
-1.14383e-06
5.27194e-08
-1.22209e-06
4.21311e-08
-1.20506e-06
2.38852e-08
-1.21239e-06
5.21941e-11
-1.21658e-06
-2.37877e-08
-1.21658e-06
-4.20523e-08
-1.2124e-06
-5.26594e-08
-1.20508e-06
-6.70588e-08
-1.2221e-06
-1.14387e-06
3.95871e-08
-1.18342e-06
2.66108e-08
-1.20912e-06
2.20104e-08
-1.20046e-06
1.25373e-08
-1.20292e-06
2.92981e-11
-1.20407e-06
-1.24822e-08
-1.20407e-06
-2.19652e-08
-1.20292e-06
-2.65769e-08
-1.20047e-06
-3.95581e-08
-1.20912e-06
-1.18343e-06
1.6579e-08
7.46226e-09
6.99802e-09
4.07992e-09
9.68171e-12
-4.06163e-09
-6.98315e-09
-7.45217e-09
-1.65672e-08
-1.73513e-07
-1.16372e-06
1.33723e-06
-2.17403e-07
-1.21571e-06
1.2596e-06
-1.63712e-07
-1.21233e-06
1.15864e-06
-8.58032e-08
-1.20379e-06
1.12588e-06
1.32199e-09
-1.20249e-06
1.11536e-06
8.84003e-08
-1.20269e-06
1.11561e-06
1.66051e-07
-1.20434e-06
1.12669e-06
2.19534e-07
-1.21311e-06
1.15963e-06
1.7547e-07
-1.21682e-06
1.26088e-06
-1.165e-06
1.34047e-06
-9.29032e-08
-1.07082e-06
-9.52215e-08
-1.21339e-06
-7.86116e-08
-1.22894e-06
-4.34859e-08
-1.23892e-06
7.48764e-10
-1.24672e-06
4.49231e-08
-1.24687e-06
7.98947e-08
-1.23931e-06
9.62738e-08
-1.22949e-06
9.35054e-08
-1.21405e-06
-1.07149e-06
-5.77915e-08
-1.01303e-06
-5.48944e-08
-1.21629e-06
-4.6132e-08
-1.2377e-06
-2.66841e-08
-1.25837e-06
4.51623e-10
-1.27386e-06
2.75439e-08
-1.27396e-06
4.68686e-08
-1.25864e-06
5.54327e-08
-1.23806e-06
5.80538e-08
-1.21667e-06
-1.01344e-06
-7.45404e-08
-9.38485e-07
-6.16549e-08
-1.22918e-06
-4.83017e-08
-1.25105e-06
-2.7492e-08
-1.27918e-06
2.81203e-10
-1.30163e-06
2.80229e-08
-1.3017e-06
4.87428e-08
-1.27936e-06
6.19528e-08
-1.25127e-06
7.46792e-08
-1.22939e-06
-9.38761e-07
-1.30918e-07
-1.19086e-07
-8.49136e-08
-4.3875e-08
1.83187e-10
4.42187e-08
8.51945e-08
1.19278e-07
1.31016e-07
-9.40022e-09
-9.06255e-07
9.15656e-07
2.55637e-08
-1.33927e-06
1.30431e-06
2.36924e-08
-1.27798e-06
1.27985e-06
1.71744e-08
-1.22862e-06
1.23513e-06
1.07924e-08
-1.22489e-06
1.23127e-06
4.8089e-09
-1.22633e-06
1.23232e-06
-2.23604e-09
-1.22814e-06
1.23518e-06
4.63905e-09
-1.27463e-06
1.26776e-06
5.61838e-08
-1.34493e-06
1.29338e-06
-9.48961e-07
1.00514e-06
2.52513e-08
-9.31507e-07
3.30767e-08
-1.3471e-06
2.31383e-08
-1.26804e-06
1.56636e-08
-1.22114e-06
8.40805e-09
-1.21763e-06
8.80284e-10
-1.21881e-06
-6.05434e-09
-1.2212e-06
-1.16873e-08
-1.269e-06
-6.53306e-09
-1.35008e-06
-9.55494e-07
3.51399e-08
-9.66646e-07
2.64046e-08
-1.33836e-06
1.71984e-08
-1.25883e-06
1.18188e-08
-1.21576e-06
5.63423e-09
-1.21145e-06
-1.2898e-09
-1.21188e-06
-6.4938e-09
-1.216e-06
-1.52684e-08
-1.26023e-06
-2.48264e-08
-1.34052e-06
-9.8032e-07
8.31287e-08
-1.04978e-06
5.65977e-08
-1.31183e-06
3.77089e-08
-1.23994e-06
2.45239e-08
-1.20258e-06
3.49471e-09
-1.19042e-06
-1.77092e-08
-1.19068e-06
-2.9977e-08
-1.20373e-06
-4.86192e-08
-1.24158e-06
-7.62816e-08
-1.31286e-06
-1.0566e-06
2.87457e-07
2.35227e-07
1.53922e-07
7.72279e-08
2.17388e-09
-7.28889e-08
-1.49933e-07
-2.31887e-07
-2.83868e-07
-2.24574e-07
3.36882e-09
2.21205e-07
-2.27617e-07
3.04332e-09
-2.30298e-07
2.68062e-09
-2.32577e-07
2.27726e-09
-2.34408e-07
1.83128e-09
-2.35751e-07
1.34312e-09
-2.36567e-07
8.15657e-10
-2.36821e-07
2.545e-10
-2.36534e-07
-2.87237e-10
-7.81029e-10
-2.35753e-07
-2.36699e-07
5.48227e-09
2.34586e-07
-2.38463e-07
4.8049e-09
-2.3987e-07
4.08768e-09
-2.40927e-07
3.33467e-09
-2.41647e-07
2.55081e-09
-2.42046e-07
1.74246e-09
-2.42149e-07
9.17928e-10
-2.41988e-07
9.38827e-11
-2.41532e-07
-7.42828e-10
-1.56682e-09
-2.40747e-07
-2.33847e-07
7.61637e-09
2.31713e-07
-2.35695e-07
6.65125e-09
-2.37252e-07
5.64514e-09
-2.38521e-07
4.6034e-09
-2.39502e-07
3.53195e-09
-2.40197e-07
2.43702e-09
-2.40604e-07
1.32499e-09
-2.40711e-07
2.01095e-10
-2.40523e-07
-9.30866e-10
-2.06871e-09
-2.40021e-07
-2.3124e-07
9.83317e-09
2.29023e-07
-2.33202e-07
8.61244e-09
-2.34904e-07
7.34694e-09
-2.36343e-07
6.04221e-09
-2.37515e-07
4.704e-09
-2.38416e-07
3.33802e-09
-2.3904e-07
1.94977e-09
-2.39384e-07
5.44203e-10
-2.3944e-07
-8.7425e-10
-2.30157e-09
-2.39207e-07
-2.29312e-07
1.21309e-08
2.27014e-07
-2.31375e-07
1.06756e-08
-2.33199e-07
9.17042e-09
-2.34778e-07
7.62113e-09
-2.36107e-07
6.03355e-09
-2.37183e-07
4.41357e-09
-2.38e-07
2.76698e-09
-2.38555e-07
1.09947e-09
-2.38846e-07
-5.83436e-10
-2.27601e-09
-2.38871e-07
-2.28078e-07
1.45158e-08
2.25693e-07
-2.30244e-07
1.28417e-08
-2.32185e-07
1.11122e-08
-2.33898e-07
9.33328e-09
-2.35375e-07
7.51116e-09
-2.36614e-07
5.65222e-09
-2.3761e-07
3.76304e-09
-2.38361e-07
1.85031e-09
-2.38865e-07
-7.9121e-11
-2.01791e-09
-2.3912e-07
-2.27541e-07
1.69966e-08
2.25061e-07
-2.29815e-07
1.51155e-08
-2.31876e-07
1.3173e-08
-2.33718e-07
1.11754e-08
-2.35336e-07
9.12953e-09
-2.36726e-07
7.0424e-09
-2.37885e-07
4.92149e-09
-2.38809e-07
2.77464e-09
-2.39498e-07
6.1008e-10
-1.56318e-09
-2.3995e-07
-2.27692e-07
1.95822e-08
2.25107e-07
-2.30079e-07
1.7502e-08
-2.3226e-07
1.53538e-08
-2.34228e-07
1.31443e-08
-2.3598e-07
1.08807e-08
-2.37508e-07
8.57091e-09
-2.3881e-07
6.22324e-09
-2.39882e-07
3.84674e-09
-2.40723e-07
1.45102e-09
-9.5332e-10
-2.41332e-07
-2.28513e-07
2.22815e-08
2.25814e-07
-2.31017e-07
2.00066e-08
-2.3332e-07
1.76561e-08
-2.35412e-07
1.5237e-08
-2.37289e-07
1.2757e-08
-2.38942e-07
1.02246e-08
-2.40368e-07
7.64912e-09
-2.41561e-07
5.04067e-09
-2.4252e-07
2.4103e-09
-2.29712e-10
-2.43243e-07
-2.29983e-07
2.51044e-08
2.2716e-07
-2.32612e-07
2.26359e-08
-2.35039e-07
2.0083e-08
-2.37254e-07
1.74526e-08
-2.3925e-07
1.47529e-08
-2.41018e-07
1.19931e-08
-2.42552e-07
9.18312e-09
-2.43844e-07
6.3343e-09
-2.44891e-07
3.4589e-09
5.70759e-10
-2.45692e-07
-2.32085e-07
2.80627e-08
2.29127e-07
-2.34847e-07
2.5399e-08
-2.37405e-07
2.26402e-08
-2.39745e-07
1.97933e-08
-2.41859e-07
1.68668e-08
-2.43736e-07
1.38703e-08
-2.45364e-07
1.08145e-08
-2.46741e-07
7.71156e-09
-2.47858e-07
4.57515e-09
1.42078e-09
-2.4871e-07
-2.34805e-07
3.11713e-08
2.31697e-07
-2.37714e-07
2.83086e-08
-2.40412e-07
2.53379e-08
-2.42885e-07
2.22664e-08
-2.4512e-07
1.91026e-08
-2.47103e-07
1.58564e-08
-2.48828e-07
1.25394e-08
-2.50281e-07
9.16457e-09
-2.51456e-07
5.74673e-09
2.30328e-09
-2.52338e-07
-2.38138e-07
3.44494e-08
2.3486e-07
-2.41211e-07
3.13821e-08
-2.44065e-07
2.81916e-08
-2.46683e-07
2.48849e-08
-2.49047e-07
2.14704e-08
-2.5115e-07
1.79586e-08
-2.52972e-07
1.43613e-08
-2.545e-07
1.06928e-08
-2.55725e-07
6.96896e-09
3.20916e-09
-2.56631e-07
-2.42084e-07
3.7921e-08
2.38612e-07
-2.45344e-07
3.46422e-08
-2.48375e-07
3.12224e-08
-2.51156e-07
2.76678e-08
-2.53671e-07
2.39869e-08
-2.55902e-07
2.01902e-08
-2.57831e-07
1.62904e-08
-2.59445e-07
1.23023e-08
-2.60719e-07
8.24357e-09
4.13539e-09
-2.61646e-07
-2.46649e-07
4.16151e-08
2.42955e-07
-2.50124e-07
3.81172e-08
-2.53359e-07
3.4457e-08
-2.56332e-07
3.06402e-08
-2.59019e-07
2.66747e-08
-2.61397e-07
2.2571e-08
-2.63447e-07
1.83421e-08
-2.65151e-07
1.40045e-08
-2.66488e-07
9.57727e-09
5.08369e-09
-2.67436e-07
-2.51843e-07
4.55643e-08
2.47894e-07
-2.55565e-07
4.18386e-08
-2.59034e-07
3.79262e-08
-2.62226e-07
3.38307e-08
-2.65111e-07
2.95594e-08
-2.67663e-07
2.51229e-08
-2.69855e-07
2.05354e-08
-2.71665e-07
1.58142e-08
-2.73069e-07
1.09802e-08
6.05923e-09
-2.74045e-07
-2.57673e-07
4.98037e-08
2.53434e-07
-2.61676e-07
4.58416e-08
-2.65414e-07
4.16634e-08
-2.68854e-07
3.72702e-08
-2.71962e-07
3.26678e-08
-2.74708e-07
2.78688e-08
-2.77062e-07
2.28888e-08
-2.78993e-07
1.77461e-08
-2.80478e-07
1.24639e-08
7.07059e-09
-2.81489e-07
-2.64132e-07
5.4366e-08
2.5957e-07
-2.68449e-07
5.01585e-08
-2.72485e-07
4.56992e-08
-2.76201e-07
4.09854e-08
-2.79553e-07
3.60202e-08
-2.82508e-07
3.08243e-08
-2.85036e-07
2.54144e-08
-2.87102e-07
1.98101e-08
-2.88674e-07
1.40364e-08
8.12543e-09
-2.89728e-07
-2.71195e-07
5.92782e-08
2.66282e-07
-2.75822e-07
5.4786e-08
-2.80061e-07
5.00283e-08
-2.83952e-07
4.49186e-08
-2.87828e-07
3.96022e-08
-2.91e-07
3.39962e-08
-2.93703e-07
2.81178e-08
-2.95899e-07
2.2006e-08
-2.97554e-07
1.56931e-08
9.21823e-09
-2.98643e-07
-2.78686e-07
6.44947e-08
2.73537e-07
-2.83164e-07
5.96989e-08
-2.87773e-07
5.45346e-08
-2.9276e-07
4.91841e-08
-2.96637e-07
4.34784e-08
-3.00032e-07
3.73916e-08
-3.02912e-07
3.09969e-08
-3.05223e-07
2.43171e-08
-3.06931e-07
1.74017e-08
1.03039e-08
-3.08017e-07
-2.86117e-07
7.00161e-08
2.80932e-07
-2.91394e-07
6.49348e-08
-2.96483e-07
5.95255e-08
-3.01769e-07
5.37491e-08
-3.05882e-07
4.75914e-08
-3.09509e-07
4.10184e-08
-3.12559e-07
3.40466e-08
-3.14954e-07
2.67127e-08
-3.1666e-07
1.91089e-08
1.13213e-08
-3.17678e-07
-2.94512e-07
7.59823e-08
2.88507e-07
-3.00184e-07
7.05802e-08
-3.0622e-07
6.47874e-08
-3.11105e-07
5.86336e-08
-3.15477e-07
5.19636e-08
-3.19313e-07
4.48542e-08
-3.2258e-07
3.7316e-08
-3.24986e-07
2.91188e-08
-3.26595e-07
2.07363e-08
1.22208e-08
-3.27499e-07
-3.03338e-07
8.23655e-08
2.96903e-07
-3.10032e-07
7.65428e-08
-3.15757e-07
7.04958e-08
-3.20748e-07
6.36178e-08
-3.24863e-07
5.64161e-08
-3.23466e-07
4.74244e-08
-3.29603e-07
3.96936e-08
-3.35097e-07
3.10835e-08
-3.36639e-07
2.22791e-08
1.30283e-08
-3.37446e-07
-3.12611e-07
8.91332e-08
3.05547e-07
-3.19408e-07
8.29809e-08
-3.24423e-07
7.59043e-08
-3.19209e-07
6.78381e-08
-3.22324e-07
5.83517e-08
-3.2635e-07
5.07396e-08
-3.42486e-07
4.25117e-08
-3.4496e-07
3.35533e-08
-3.46448e-07
2.37657e-08
1.38191e-08
-3.47238e-07
-3.21849e-07
9.61467e-08
3.14985e-07
-3.18609e-07
8.86612e-08
-3.21916e-07
7.94379e-08
-3.25977e-07
7.14063e-08
-3.31724e-07
6.34169e-08
-3.48552e-07
5.46936e-08
-3.52184e-07
4.61489e-08
-3.54488e-07
3.58582e-08
-3.56078e-07
2.53427e-08
1.45955e-08
-3.5585e-07
-3.18497e-07
1.01938e-07
3.22422e-07
-3.23436e-07
9.31763e-08
-3.29747e-07
8.53674e-08
-3.35712e-07
7.71505e-08
-3.52745e-07
6.86166e-08
-3.58171e-07
6.01044e-08
-3.61503e-07
4.94662e-08
-3.64019e-07
3.83806e-08
-3.64783e-07
2.71585e-08
1.55154e-08
-3.59159e-07
-3.23704e-07
1.07637e-07
3.17569e-07
-3.30913e-07
9.99506e-08
-3.37779e-07
9.18099e-08
-3.55684e-07
8.38872e-08
-3.62296e-07
7.52631e-08
-3.66489e-07
6.43476e-08
-3.69837e-07
5.29617e-08
-3.65267e-07
4.09228e-08
-3.66918e-07
2.86371e-08
1.64324e-08
-3.67937e-07
-3.30362e-07
1.15382e-07
3.22222e-07
-3.3799e-07
1.07154e-07
-3.53044e-07
9.97549e-08
-3.64394e-07
9.15753e-08
-3.69775e-07
8.06569e-08
-3.74359e-07
6.89916e-08
-3.70302e-07
5.64001e-08
-3.72965e-07
4.34887e-08
-3.75199e-07
3.07422e-08
1.76934e-08
-3.76557e-07
-3.34495e-07
1.23479e-07
3.25999e-07
-3.44767e-07
1.16181e-07
-3.63605e-07
1.08592e-07
-3.70254e-07
9.82211e-08
-3.76026e-07
8.64307e-08
-3.81073e-07
7.40578e-08
-3.85133e-07
6.1183e-08
-3.80249e-07
4.77187e-08
-3.82848e-07
3.32425e-08
1.94525e-08
-3.84562e-07
-3.40124e-07
1.37522e-07
3.36603e-07
-3.58586e-07
1.27677e-07
-3.66793e-07
1.16796e-07
-3.73577e-07
1.05006e-07
-3.79661e-07
9.2514e-08
-3.85008e-07
7.94061e-08
-3.89449e-07
6.5747e-08
-3.92836e-07
5.1583e-08
-3.95837e-07
3.6946e-08
2.19111e-08
-3.98451e-07
-3.48703e-07
1.4721e-07
3.4044e-07
-3.57344e-07
1.36207e-07
-3.66372e-07
1.2448e-07
-3.73481e-07
1.12114e-07
-3.79902e-07
9.89356e-08
-3.85632e-07
8.51365e-08
-3.90656e-07
7.07721e-08
-3.94964e-07
5.58906e-08
-3.98557e-07
4.05389e-08
2.47778e-08
-4.01424e-07
-3.43736e-07
1.55779e-07
3.3379e-07
-3.53821e-07
1.4465e-07
-3.61963e-07
1.32623e-07
-3.69317e-07
1.19468e-07
-3.7605e-07
1.05669e-07
-3.82185e-07
9.12696e-08
-3.87725e-07
7.63116e-08
-3.92663e-07
6.08285e-08
-3.96982e-07
4.4858e-08
2.84444e-08
-4.00649e-07
-3.36139e-07
1.65936e-07
3.25669e-07
-3.44937e-07
1.53634e-07
-3.52892e-07
1.40577e-07
-3.60302e-07
1.26881e-07
-3.67233e-07
1.12599e-07
-3.73717e-07
9.7751e-08
-3.79762e-07
8.23532e-08
-3.85353e-07
6.64186e-08
-3.9046e-07
4.99648e-08
3.30153e-08
-3.95031e-07
-3.21769e-07
1.75186e-07
3.12502e-07
-3.30183e-07
1.62048e-07
-3.38025e-07
1.4842e-07
-3.45436e-07
1.34295e-07
-3.52506e-07
1.19667e-07
-3.59284e-07
1.04526e-07
-3.65786e-07
8.88552e-08
-3.72009e-07
7.26419e-08
-3.77919e-07
5.58743e-08
3.85462e-08
-3.8345e-07
-3.01914e-07
1.83558e-07
2.93541e-07
-3.09774e-07
1.69908e-07
-3.17254e-07
1.55901e-07
-3.24459e-07
1.41502e-07
-3.31475e-07
1.26685e-07
-3.38367e-07
1.11417e-07
-3.45171e-07
9.56587e-08
-3.51896e-07
7.9367e-08
-3.58515e-07
6.24935e-08
4.49906e-08
-3.6496e-07
-2.78604e-07
1.9028e-07
2.71882e-07
-2.85191e-07
1.76496e-07
-2.91695e-07
1.62404e-07
-2.9817e-07
1.47978e-07
-3.04677e-07
1.33192e-07
-3.11275e-07
1.18015e-07
-3.18013e-07
1.02396e-07
-3.24915e-07
8.62699e-08
-3.31973e-07
6.95508e-08
5.21364e-08
-3.39119e-07
-2.50048e-07
1.96104e-07
2.44223e-07
-2.55729e-07
1.82177e-07
-2.61351e-07
1.68026e-07
-2.67006e-07
1.53633e-07
-2.72792e-07
1.38979e-07
-2.78807e-07
1.24029e-07
-2.85135e-07
1.08724e-07
-2.91842e-07
9.29766e-08
-2.98953e-07
7.66627e-08
5.96142e-08
-3.06431e-07
-2.20348e-07
2.00285e-07
2.16167e-07
-2.24622e-07
1.86451e-07
-2.29011e-07
1.72415e-07
-2.33578e-07
1.582e-07
-2.38408e-07
1.43809e-07
-2.43594e-07
1.29214e-07
-2.49217e-07
1.14347e-07
-2.55332e-07
9.90926e-08
-2.61974e-07
8.33014e-08
6.68349e-08
-2.69208e-07
-1.9006e-07
2.03521e-07
1.86824e-07
-1.93399e-07
1.8979e-07
-1.96944e-07
1.7596e-07
-2.00807e-07
1.62062e-07
-2.05093e-07
1.48096e-07
-2.09892e-07
1.34013e-07
-2.15257e-07
1.19712e-07
-2.21212e-07
1.05048e-07
-2.27778e-07
8.98674e-08
7.38506e-08
-2.34799e-07
-1.61791e-07
2.06209e-07
1.59103e-07
-1.64826e-07
1.92825e-07
-1.68396e-07
1.7953e-07
-1.72698e-07
1.66364e-07
-1.77931e-07
1.53329e-07
-1.84294e-07
1.40375e-07
-1.91981e-07
1.274e-07
-2.01002e-07
1.14068e-07
-2.0905e-07
9.79191e-08
7.31331e-08
-2.01937e-07
-1.36227e-07
2.0929e-07
1.33147e-07
-1.40076e-07
1.96673e-07
-1.44987e-07
1.84441e-07
-1.51307e-07
1.72684e-07
-1.59435e-07
1.61456e-07
-1.69808e-07
1.50749e-07
-1.82586e-07
1.40179e-07
-1.92834e-07
1.24339e-07
-1.36073e-07
7.76418e-08
2.97194e-08
-5.42305e-08
-1.13478e-07
2.13904e-07
1.08864e-07
-1.1926e-07
2.02455e-07
-1.26644e-07
1.91826e-07
-1.36144e-07
1.82184e-07
-1.48338e-07
1.7365e-07
-1.6365e-07
1.66065e-07
-1.77536e-07
1.54137e-07
-1.1278e-07
8.54415e-08
-4.72908e-08
3.46635e-08
2.56503e-08
-4.38614e-08
-9.36635e-08
2.20587e-07
8.69796e-08
-1.01839e-07
2.1063e-07
-1.1203e-07
2.02016e-07
-1.24815e-07
1.94969e-07
-1.4074e-07
1.89575e-07
-1.57996e-07
1.8334e-07
-1.04311e-07
1.18112e-07
-4.32781e-08
4.23779e-08
-4.10468e-08
3.25765e-08
3.02097e-08
-4.56237e-08
-7.62607e-08
2.28935e-07
6.79128e-08
-8.63621e-08
2.20731e-07
-9.87166e-08
2.1437e-07
-1.13817e-07
2.1007e-07
-1.31488e-07
2.07247e-07
-1.15487e-07
1.73103e-07
-3.97175e-08
5.36913e-08
-3.46381e-08
3.66061e-08
-3.89888e-08
3.66117e-08
3.26939e-08
-4.13426e-08
-5.91042e-08
2.37908e-07
5.01311e-08
-6.98902e-08
2.31517e-07
-8.29338e-08
2.27414e-07
-9.85622e-08
2.25699e-07
-1.13379e-07
2.22043e-07
-4.36351e-08
9.47156e-08
-2.92554e-08
3.96954e-08
-3.14572e-08
3.98502e-08
-3.25594e-08
3.73946e-08
4.00256e-08
-3.97608e-08
-3.95711e-08
2.45735e-07
3.17445e-08
-4.90524e-08
2.40998e-07
-6.04692e-08
2.3883e-07
-7.35869e-08
2.38808e-07
-4.92626e-08
1.8453e-07
-2.05456e-08
4.62338e-08
-2.33401e-08
4.28014e-08
-2.39372e-08
4.22073e-08
-2.43898e-08
3.8869e-08
9.43492e-08
-9.11008e-08
-1.6061e-08
2.51325e-07
1.04713e-08
-2.31695e-08
2.48107e-07
-3.18967e-08
2.47556e-07
-4.22008e-08
2.43936e-07
-1.5946e-08
1.12323e-07
-1.25442e-08
3.99145e-08
-1.39119e-08
4.49977e-08
-1.55434e-08
4.084e-08
-2.00142e-08
5.14038e-08
1.57424e-07
-6.85472e-08
1.4707e-08
2.54148e-07
-1.75308e-08
1.07733e-08
2.5204e-07
5.61803e-09
2.5232e-07
-4.43701e-10
2.28881e-07
-3.1657e-09
5.08525e-08
-4.75893e-09
4.33655e-08
-4.75229e-09
4.50183e-08
-1.50838e-09
3.89478e-08
-5.75548e-09
1.02192e-07
1.76045e-07
-6.60065e-09
5.40341e-08
2.54421e-07
-5.43217e-08
5.34074e-08
2.52667e-07
5.24407e-08
2.53287e-07
2.40964e-08
2.01831e-07
6.45465e-09
4.19147e-08
5.42481e-09
4.4425e-08
6.3773e-09
4.40858e-08
8.77126e-09
3.65743e-08
6.36359e-08
1.48677e-07
1.76377e-07
6.75726e-08
9.90612e-08
2.52153e-07
-9.68043e-08
1.01658e-07
2.50072e-07
1.04895e-07
2.5005e-07
3.46809e-08
1.78486e-07
1.53134e-08
4.28569e-08
1.63582e-08
4.35311e-08
1.79018e-08
4.2391e-08
3.93498e-08
3.72412e-08
1.47936e-07
1.50233e-07
1.75333e-07
1.49233e-07
1.47693e-07
2.46951e-07
-1.42503e-07
1.5339e-07
2.44383e-07
1.60101e-07
2.43339e-07
4.19837e-08
1.73197e-07
2.52047e-08
4.31059e-08
2.70899e-08
4.15823e-08
2.9143e-08
4.01326e-08
7.77863e-08
3.73681e-08
2.30285e-07
1.36249e-07
1.7051e-07
2.35699e-07
1.99099e-07
2.39843e-07
-1.91976e-07
2.06599e-07
2.36888e-07
2.14928e-07
2.35011e-07
7.7654e-08
1.95138e-07
3.21853e-08
5.43723e-08
3.67343e-08
3.94658e-08
3.92475e-08
3.75242e-08
4.67919e-08
3.22393e-08
2.96426e-07
9.05643e-08
1.59951e-07
3.18503e-07
2.50425e-07
2.32191e-07
-2.42773e-07
2.58318e-07
2.28996e-07
2.66663e-07
2.26666e-07
1.67524e-07
2.06163e-07
4.30749e-08
9.32164e-08
4.44013e-08
3.93943e-08
4.88731e-08
3.55026e-08
5.25149e-08
2.99408e-08
2.94615e-07
7.44282e-08
1.44091e-07
3.82517e-07
2.96921e-07
2.2455e-07
-2.8928e-07
3.04781e-07
2.21136e-07
3.12866e-07
2.18581e-07
3.03672e-07
2.15358e-07
6.44535e-08
1.69111e-07
5.54098e-08
4.71797e-08
5.82222e-08
3.33799e-08
6.03383e-08
2.77272e-08
3.37847e-07
8.2801e-08
1.33206e-07
4.24325e-07
3.32441e-07
2.16715e-07
-3.24604e-07
3.40896e-07
2.12681e-07
3.49937e-07
2.0954e-07
3.57939e-07
2.07358e-07
2.28558e-07
1.88754e-07
8.32741e-08
9.63504e-08
8.10722e-08
3.42195e-08
2.13673e-07
4.16069e-08
4.37949e-07
1.15312e-07
1.23097e-07
4.52848e-07
3.48311e-07
2.07763e-07
-3.39355e-07
3.58566e-07
2.02427e-07
3.70399e-07
1.97708e-07
3.84017e-07
1.9374e-07
3.83489e-07
1.8927e-07
1.43411e-07
1.5151e-07
1.32642e-07
3.91296e-08
2.3854e-07
3.95908e-08
4.49867e-07
9.06698e-08
9.83357e-08
4.76606e-07
3.38424e-07
1.98032e-07
-3.28688e-07
3.48646e-07
1.92206e-07
3.59244e-07
1.87111e-07
3.70136e-07
1.82849e-07
3.80334e-07
1.79071e-07
1.90947e-07
1.40832e-07
7.27932e-08
4.19568e-08
9.0528e-08
2.08532e-08
1.8441e-07
2.16155e-08
1.83171e-08
3.39954e-07
3.15534e-07
1.87819e-07
-3.0532e-07
3.25717e-07
1.82022e-07
3.35261e-07
1.77567e-07
3.44073e-07
1.74037e-07
3.19709e-07
1.56857e-07
6.83078e-08
5.61477e-08
5.46467e-08
2.60371e-08
6.13683e-08
1.76071e-08
7.08016e-08
1.37011e-08
9.75197e-09
8.49519e-08
2.93452e-07
1.7724e-07
-2.82874e-07
3.04418e-07
1.71056e-07
3.00365e-07
1.47015e-07
1.78484e-07
9.12433e-08
3.61678e-08
3.74399e-08
5.53168e-08
2.29076e-08
5.91737e-08
1.99771e-08
6.40502e-08
1.46044e-08
6.7324e-08
1.05629e-08
7.6027e-09
7.11398e-08
1.67519e-07
6.06555e-08
-1.82692e-07
1.16782e-07
4.52822e-08
5.43345e-08
4.0866e-08
4.90432e-08
2.58599e-08
5.59613e-08
3.1495e-08
5.63912e-08
2.0261e-08
6.30906e-08
1.54219e-08
6.61697e-08
1.22957e-08
7.12921e-08
6.88361e-09
5.00047e-09
1.042e-07
4.28327e-08
5.38767e-08
-3.41203e-08
3.95669e-08
5.33587e-08
5.61103e-08
3.75779e-08
5.8442e-08
3.15518e-08
6.39216e-08
3.15458e-08
9.63855e-08
3.61281e-08
1.92038e-07
3.63764e-08
3.28132e-07
3.9122e-08
4.16664e-07
2.99565e-08
1.20541e-08
4.43814e-07
1.18093e-07
1.13179e-07
-1.15875e-07
1.50869e-07
1.03424e-07
1.93303e-07
9.91865e-08
2.4391e-07
9.61617e-08
2.89123e-07
8.61631e-08
3.27507e-07
6.97269e-08
3.60113e-07
5.19146e-08
3.8479e-07
3.41393e-08
3.98837e-07
1.6303e-08
-1.0028e-09
4.12502e-07
2.74608e-07
1.17836e-07
-2.66783e-07
2.8535e-07
1.08674e-07
2.99949e-07
9.85997e-08
3.15559e-07
8.63244e-08
3.30559e-07
7.19094e-08
3.45234e-07
5.56338e-08
3.59495e-07
3.80356e-08
3.73954e-07
1.96908e-08
3.8957e-07
6.95171e-10
-1.86277e-08
3.84189e-07
2.95798e-07
1.09963e-07
-2.87114e-07
3.03647e-07
1.01358e-07
3.12022e-07
9.04026e-08
3.21581e-07
7.6781e-08
3.32728e-07
6.07655e-08
3.45184e-07
4.31821e-08
3.58693e-07
2.45293e-08
3.74009e-07
4.38279e-09
3.9028e-07
-1.74445e-08
-3.98797e-08
4.11027e-07
3.01789e-07
9.19506e-08
-2.70263e-07
3.1248e-07
9.07449e-08
3.19123e-07
8.37755e-08
3.26495e-07
6.94137e-08
3.36964e-07
5.02995e-08
3.49687e-07
3.04622e-08
3.63254e-07
1.09645e-08
3.78673e-07
-1.10329e-08
3.98152e-07
-3.69167e-08
-6.33943e-08
4.21685e-07
2.18414e-07
5.45143e-08
-1.81526e-07
3.07189e-07
4.91026e-08
3.2206e-07
6.89883e-08
3.29953e-07
6.15365e-08
3.43534e-07
3.67238e-08
3.61108e-07
1.28916e-08
3.74343e-07
-2.24382e-09
3.85288e-07
-2.03758e-08
4.06956e-07
-5.6628e-08
-8.07775e-08
4.23993e-07
1.84498e-07
5.08337e-08
-1.96255e-07
1.06177e-07
3.95559e-08
1.29136e-07
1.15176e-08
1.94473e-07
1.43336e-08
2.87598e-07
8.06102e-09
2.7075e-07
-2.71306e-09
1.65987e-07
-1.19875e-08
1.84465e-07
-1.563e-08
2.12859e-07
-1.88647e-08
-2.47693e-08
1.58456e-07
1.81614e-07
4.29118e-08
-1.73361e-07
7.76283e-08
3.63345e-08
2.52184e-08
9.37825e-09
3.32326e-08
4.98448e-09
3.97067e-08
2.38836e-10
4.19109e-08
-5.87914e-09
6.31225e-08
-1.49427e-08
6.43477e-08
-2.79783e-08
7.66513e-08
-4.14768e-08
-4.58944e-08
8.77632e-08
5.95164e-08
3.03779e-08
-8.21828e-08
1.47235e-08
9.13932e-09
1.7482e-08
5.28598e-09
2.03378e-08
7.93682e-10
2.55718e-08
-6.32623e-09
3.89161e-08
-2.05714e-08
1.17956e-07
-7.103e-08
1.42127e-07
-1.17109e-07
1.02499e-07
-1.11454e-07
-7.50023e-08
1.21451e-07
2.18592e-09
7.14614e-09
-3.14553e-09
8.8054e-09
2.54065e-09
1.51698e-08
-1.60908e-09
2.47639e-08
-1.00791e-08
6.27391e-08
-5.70364e-08
1.2696e-07
-8.9247e-08
2.0189e-07
-1.14831e-07
2.62295e-07
-1.49146e-07
1.61336e-07
-1.3023e-07
-1.91175e-07
2.61041e-07
1.47165e-08
-1.27513e-10
-2.97285e-09
2.8197e-08
-1.75232e-08
5.24752e-08
-3.93415e-08
8.54221e-08
-6.79506e-08
1.50744e-07
-1.06201e-07
1.77409e-07
-1.0184e-07
2.22573e-07
-1.28602e-07
2.58565e-07
-1.83348e-07
5.04983e-07
-4.00649e-07
-6.55033e-07
7.9642e-07
1.22548e-08
-1.97408e-08
6.94685e-09
3.58963e-08
-4.12103e-08
6.53233e-08
-6.88598e-08
9.23377e-08
-9.49431e-08
7.54289e-08
-6.54587e-08
1.05004e-07
-1.03897e-07
2.13655e-07
-2.37098e-07
5.10371e-07
-5.03483e-07
8.00378e-07
-7.30999e-07
-8.17564e-07
9.62395e-07
3.88638e-09
-3.26628e-08
9.03608e-09
1.49602e-08
-5.22831e-08
2.2348e-08
-6.51252e-08
1.17822e-08
-2.96553e-08
3.36937e-08
-7.48484e-08
1.48246e-07
-2.06083e-07
4.96867e-07
-6.00758e-07
7.54203e-07
-7.92126e-07
8.8031e-07
-8.57291e-07
-9.0249e-07
9.65219e-07
-7.99114e-09
-3.9271e-08
1.46007e-08
-4.03504e-09
-4.46927e-08
2.64674e-09
-1.43661e-08
1.85457e-08
-4.12165e-08
1.09005e-07
-1.61664e-07
4.64801e-07
-5.8606e-07
6.87986e-07
-8.33015e-07
7.91839e-07
-8.96133e-07
8.74313e-07
-9.39717e-07
-9.74959e-07
9.46774e-07
-2.19011e-08
-3.80947e-08
2.68685e-08
-3.58917e-09
-8.9328e-09
6.6873e-09
-2.0619e-08
6.20386e-08
-9.3309e-08
3.71537e-07
-4.82879e-07
6.24657e-07
-8.48398e-07
7.17214e-07
-9.25685e-07
7.92753e-07
-9.71677e-07
8.62195e-07
-1.00916e-06
-1.0385e-06
9.25736e-07
-1.10124e-08
-1.51826e-08
4.17147e-08
1.44787e-09
-9.00862e-09
3.42274e-08
-4.68925e-08
2.13212e-07
-2.81582e-07
5.55165e-07
-8.35835e-07
6.47233e-07
-9.40548e-07
7.14998e-07
-9.93448e-07
7.78925e-07
-1.03561e-06
8.3909e-07
-1.06933e-06
-1.09234e-06
8.92932e-07
-3.83034e-10
-4.4826e-09
1.75046e-08
1.43355e-08
-2.45222e-08
1.09121e-07
-1.42514e-07
4.67598e-07
-6.85934e-07
5.69339e-07
-9.37984e-07
6.33147e-07
-1.00442e-06
6.92429e-07
-1.05274e-06
7.49032e-07
-1.09221e-06
8.00722e-07
-1.12102e-06
-1.1363e-06
8.44675e-07
1.46765e-09
-1.03112e-08
3.58498e-09
3.54648e-08
-5.95385e-08
2.64587e-07
-4.16933e-07
4.80433e-07
-9.20964e-07
5.48014e-07
-1.00573e-06
6.03296e-07
-1.05974e-06
6.5602e-07
-1.10547e-06
7.05115e-07
-1.14131e-06
7.47885e-07
-1.16379e-06
-1.17006e-06
7.81644e-07
1.72684e-08
-2.16476e-08
-6.68546e-09
1.03136e-07
-1.4575e-07
4.01739e-07
-7.65407e-07
4.6756e-07
-9.87222e-07
5.15243e-07
-1.05347e-06
5.62152e-07
-1.10665e-06
6.07541e-07
-1.15086e-06
6.48446e-07
-1.18221e-06
6.81908e-07
-1.19725e-06
-1.19373e-06
7.05581e-07
2.00339e-08
-4.5133e-08
2.13778e-09
2.11988e-07
-3.94746e-07
3.78543e-07
-9.49617e-07
4.26344e-07
-1.03516e-06
4.6802e-07
-1.09518e-06
5.09422e-07
-1.14806e-06
5.48035e-07
-1.18947e-06
5.80606e-07
-1.21479e-06
6.04623e-07
-1.22127e-06
-1.20752e-06
6.18416e-07
5.13606e-08
-8.33424e-08
-1.48281e-08
3.045e-07
-7.03598e-07
3.4958e-07
-9.9496e-07
3.82394e-07
-1.06801e-06
4.17124e-07
-1.12991e-06
4.51704e-07
-1.18264e-06
4.82093e-07
-1.21986e-06
5.05199e-07
-1.23789e-06
5.19505e-07
-1.23557e-06
-1.21237e-06
5.24356e-07
1.02058e-07
-1.98595e-07
-1.96265e-08
2.70235e-07
-9.02054e-07
3.0121e-07
-1.02606e-06
3.29666e-07
-1.09647e-06
3.60405e-07
-1.16065e-06
3.89289e-07
-1.21152e-06
4.11892e-07
-1.24246e-06
4.26035e-07
-1.25203e-06
4.31502e-07
-1.24104e-06
-1.20927e-06
4.28404e-07
1.70163e-07
-4.17425e-07
-1.52497e-09
2.21548e-07
-9.62617e-07
2.46477e-07
-1.05102e-06
2.74204e-07
-1.1242e-06
3.02519e-07
-1.18897e-06
3.26235e-07
-1.23524e-06
3.41847e-07
-1.25807e-06
3.48969e-07
-1.25916e-06
3.49353e-07
-1.24142e-06
-1.20539e-06
3.45476e-07
1.38371e-07
-5.4932e-07
-3.77061e-09
1.69408e-07
-9.93739e-07
1.96455e-07
-1.07808e-06
2.24651e-07
-1.1524e-06
2.50202e-07
-1.21452e-06
2.68387e-07
-1.25342e-06
2.77226e-07
-1.26691e-06
2.77544e-07
-1.25948e-06
2.71226e-07
-1.23511e-06
-1.1933e-06
2.59136e-07
1.04735e-07
-6.29433e-07
-1.09311e-08
1.33159e-07
-1.02218e-06
1.60527e-07
-1.10545e-06
1.86683e-07
-1.17855e-06
2.08316e-07
-1.23615e-06
2.21865e-07
-1.26697e-06
2.27023e-07
-1.27207e-06
2.25527e-07
-1.25798e-06
2.19188e-07
-1.22877e-06
-1.18085e-06
2.06742e-07
8.57757e-08
-6.83053e-07
-1.74438e-08
1.11497e-07
-1.0479e-06
1.36061e-07
-1.13002e-06
1.58216e-07
-1.20071e-06
1.75328e-07
-1.25326e-06
1.85034e-07
-1.27668e-06
1.88541e-07
-1.27557e-06
1.88072e-07
-1.25751e-06
1.85246e-07
-1.22594e-06
-1.16862e-06
1.73017e-07
7.31447e-08
-7.23223e-07
-1.55297e-08
9.62688e-08
-1.07101e-06
1.17364e-07
-1.15111e-06
1.35481e-07
-1.21882e-06
1.48167e-07
-1.26595e-06
1.54245e-07
-1.28275e-06
1.56172e-07
-1.2775e-06
1.56092e-07
-1.25743e-06
1.54732e-07
-1.22458e-06
-1.14072e-06
1.26831e-07
6.56426e-08
-7.49757e-07
-1.05166e-08
8.64939e-08
-1.09183e-06
1.03534e-07
-1.16815e-06
1.17572e-07
-1.23286e-06
1.25752e-07
-1.27413e-06
1.28425e-07
-1.28543e-06
1.29013e-07
-1.27809e-06
1.29263e-07
-1.25768e-06
1.28657e-07
-1.22398e-06
-1.10906e-06
8.57742e-08
7.09074e-08
-7.77901e-07
-7.9435e-09
7.97595e-08
-1.10068e-06
9.02415e-08
-1.17864e-06
1.00479e-07
-1.2431e-06
1.04901e-07
-1.27855e-06
1.05534e-07
-1.28606e-06
1.06221e-07
-1.27878e-06
1.0869e-07
-1.26015e-06
1.12445e-07
-1.22773e-06
-1.07051e-06
6.90953e-08
3.21938e-08
-8.05023e-07
-2.65315e-09
4.81906e-08
-1.11668e-06
6.44155e-08
-1.19486e-06
7.78735e-08
-1.25656e-06
8.25064e-08
-1.28319e-06
8.37625e-08
-1.28732e-06
8.58285e-08
-1.28084e-06
9.09223e-08
-1.26524e-06
9.98019e-08
-1.23661e-06
-1.0371e-06
5.92679e-08
-2.47768e-09
-8.14404e-07
9.17695e-09
2.01207e-08
-1.13928e-06
4.21031e-08
-1.21685e-06
5.77873e-08
-1.27224e-06
6.25857e-08
-1.28798e-06
6.50644e-08
-1.28979e-06
6.87548e-08
-1.28453e-06
7.60741e-08
-1.27256e-06
9.01071e-08
-1.25064e-06
-1.00945e-06
5.3752e-08
-1.70802e-08
-8.07176e-07
1.37636e-08
6.12036e-09
-1.16248e-06
2.8557e-08
-1.23928e-06
4.21288e-08
-1.28581e-06
4.52338e-08
-1.29109e-06
4.75306e-08
-1.29209e-06
5.11218e-08
-1.28812e-06
5.77848e-08
-1.27922e-06
7.31947e-08
-1.26605e-06
-9.90985e-07
4.57646e-08
-2.06204e-08
-7.97741e-07
1.19013e-08
-2.42342e-10
-1.18285e-06
2.03569e-08
-1.25988e-06
2.96636e-08
-1.29512e-06
3.02966e-08
-1.29172e-06
3.06682e-08
-1.29246e-06
3.1746e-08
-1.2892e-06
3.30072e-08
-1.28049e-06
3.79788e-08
-1.27102e-06
-9.8271e-07
2.10049e-08
-2.23113e-08
-7.91383e-07
1.37263e-08
-1.38767e-09
-1.20378e-06
1.76471e-08
-1.27892e-06
2.20107e-08
-1.29948e-06
1.99052e-08
-1.28962e-06
1.7658e-08
-1.29022e-06
1.65025e-08
-1.28805e-06
1.35947e-08
-1.27758e-06
8.96124e-09
-1.26639e-06
-9.84758e-07
3.3932e-09
-5.71891e-09
-7.9842e-07
7.55912e-09
8.94053e-09
-1.21834e-06
2.2005e-08
-1.29198e-06
1.97062e-08
-1.29719e-06
1.42346e-08
-1.28415e-06
8.77345e-09
-1.28475e-06
5.40745e-09
-1.28468e-06
-2.12908e-10
-1.27196e-06
-1.00784e-08
-1.25651e-06
-9.98306e-07
6.4859e-35
1.21562e-08
-8.15801e-07
-9.81407e-15
2.00274e-08
-1.22617e-06
2.769e-08
-1.29964e-06
2.07166e-08
-1.29021e-06
1.28738e-08
-1.2763e-06
4.65446e-09
-1.27653e-06
-4.3366e-10
-1.27959e-06
-6.14954e-09
-1.26624e-06
-1.89225e-08
-1.24372e-06
-1.01962e-06
5.28897e-36
2.30625e-08
-8.41409e-07
-6.09334e-12
3.31362e-08
-1.23624e-06
3.67246e-08
-1.30323e-06
2.52442e-08
-1.27873e-06
1.45979e-08
-1.26566e-06
3.85645e-09
-1.26579e-06
-3.26927e-09
-1.27247e-06
-6.42596e-09
-1.26309e-06
-1.88794e-08
-1.23127e-06
-1.03972e-06
2.80764e-49
4.70937e-08
-8.89605e-07
-3.70424e-11
5.07134e-08
-1.23986e-06
4.42982e-08
-1.29682e-06
2.78614e-08
-1.2623e-06
1.4885e-08
-1.25268e-06
2.68577e-09
-1.2536e-06
-7.07941e-09
-1.2627e-06
-4.76836e-09
-1.2654e-06
-1.02754e-08
-1.22576e-06
-1.0505e-06
2.10567e-56
2.04402e-08
-9.10896e-07
-9.04145e-12
4.61799e-08
-1.2656e-06
4.0016e-08
-1.29065e-06
2.48967e-08
-1.24718e-06
1.26142e-08
-1.2404e-06
4.92598e-10
-1.24147e-06
-1.33967e-08
-1.24881e-06
-7.54035e-09
-1.27125e-06
1.00237e-08
-1.24333e-06
-1.04059e-06
7.36535e-75
4.90889e-09
5.63839e-27
4.36192e-08
3.28114e-08
2.0769e-08
1.16396e-08
2.48315e-09
-1.11457e-08
-1.46391e-08