/*--------------------------------*- C++ -*----------------------------------*\
  =========                 |
  \\      /  F ield         | OpenFOAM: The Open Source CFD Toolbox
   \\    /   O peration     | Website:  https://openfoam.org
    \\  /    A nd           | Version:  8
     \\/     M anipulation  |
\*---------------------------------------------------------------------------*/
FoamFile
{
    version     2.0;
    format      ascii;
    class       volScalarField;
    location    "3.05";
    object      k;
}
// * * * * * * * * * * * * * * * * * * * * * * * * * * * * * * * * * * * * * //

dimensions      [0 2 -2 0 0 0 0];

internalField   nonuniform List<scalar> 
9150
(
0.00182766
0.000940271
0.000475328
0.000302271
0.00019466
0.000194639
0.000302253
0.000475214
0.000940042
0.00182769
0.00178505
0.000745927
0.000398664
0.000257556
0.000162934
0.000162921
0.000257535
0.000398578
0.000745734
0.00178505
0.00171353
0.000650602
0.000365711
0.0002375
0.000150235
0.000150232
0.000237488
0.000365644
0.000650437
0.00171352
0.00163495
0.000600526
0.000352602
0.000229469
0.000145411
0.000145414
0.000229467
0.000352549
0.000600385
0.00163493
0.00155147
0.000578964
0.000347833
0.00022665
0.000143905
0.000143912
0.000226653
0.000347786
0.000578837
0.00155146
0.00284954
0.0025582
0.0018533
0.00162371
0.00134534
0.00134708
0.00162845
0.00186145
0.00256919
0.00285119
0.00230524
0.00150348
0.00128123
0.00121359
0.000985892
0.000986669
0.00121579
0.00128482
0.00150559
0.00230517
0.00205025
0.00125219
0.000888403
0.000809842
0.000632934
0.000633231
0.000810763
0.000889628
0.00125249
0.00205011
0.00186817
0.00111023
0.000649943
0.000531677
0.000390753
0.000390838
0.000531973
0.000650236
0.00111
0.0018681
0.00178753
0.00102068
0.000524124
0.000372764
0.00025574
0.000255745
0.00037282
0.000524092
0.00102039
0.0017875
0.00926364
0.00463464
0.00257177
0.00191052
0.00155893
0.00155148
0.00190437
0.00269163
0.00585059
0.0147342
0.00488572
0.00385764
0.00251237
0.00190314
0.00156401
0.00156054
0.00190441
0.00250748
0.00373326
0.00496008
0.00440275
0.00345126
0.0024844
0.00189878
0.00157033
0.00157061
0.00190698
0.0024925
0.00341054
0.00442269
0.00391889
0.00315277
0.00246523
0.00189469
0.00157709
0.00157979
0.00190407
0.00247587
0.00316062
0.00392705
0.00336115
0.0030967
0.00236301
0.00184915
0.00155011
0.00155332
0.00185721
0.00237412
0.00311637
0.00336446
0.00191967
0.00193753
0.00195584
0.00197457
0.00199369
0.00201325
0.0020334
0.00205449
0.0020772
0.00210045
0.00367076
0.00369611
0.00372318
0.00375186
0.00378197
0.00381323
0.0038453
0.00387778
0.00391024
0.00394178
0.00473597
0.00475872
0.00478284
0.00480821
0.00483464
0.00486191
0.00488976
0.00491795
0.00494625
0.00497451
0.00553882
0.00555844
0.00557914
0.00560079
0.00562323
0.00564629
0.00566975
0.00569341
0.00571706
0.00574066
0.00622738
0.00624529
0.00626397
0.00628329
0.0063031
0.0063232
0.00634339
0.00636345
0.00638312
0.00640242
0.00686061
0.00687862
0.00689707
0.00691583
0.00693471
0.00695351
0.006972
0.00698991
0.00700695
0.00702314
0.0074692
0.00748936
0.00750966
0.00752993
0.00754998
0.00756957
0.00758845
0.00760633
0.00762289
0.0076379
0.00807295
0.00809765
0.00812226
0.00814657
0.00817038
0.00819343
0.00821544
0.00823608
0.00825505
0.00827199
0.00868705
0.00871918
0.0087511
0.00878262
0.00881351
0.00884348
0.00887225
0.00889948
0.00892485
0.00894799
0.00932497
0.00936806
0.00941107
0.00945378
0.00949597
0.00953736
0.00957765
0.00961653
0.00965368
0.00968877
0.00999995
0.0100584
0.0101173
0.0101762
0.0102351
0.0102937
0.0103516
0.0104086
0.0104644
0.0105187
0.010726
0.0108055
0.0108861
0.0109677
0.0110502
0.0111332
0.0112165
0.0112999
0.011383
0.0114656
0.0115188
0.0116262
0.0117361
0.0118484
0.0119629
0.0120796
0.0121981
0.0123181
0.0124395
0.0125618
0.012396
0.0125398
0.0126883
0.0128413
0.0129986
0.0131603
0.0133259
0.0134953
0.0136681
0.013844
0.0133777
0.0135687
0.013767
0.0139728
0.014186
0.0144063
0.0146334
0.0148672
0.015107
0.0153524
0.0144867
0.0147376
0.0149995
0.0152725
0.0155566
0.0158515
0.0161568
0.0164719
0.0167962
0.0171288
0.0157484
0.0160739
0.0164151
0.0167719
0.0171441
0.0175312
0.0179325
0.0183472
0.018774
0.0192116
0.0171894
0.0176062
0.0180439
0.0185023
0.0189808
0.0194784
0.0199939
0.0205257
0.021072
0.0216306
0.0188362
0.0193619
0.0199142
0.0204923
0.0210949
0.0217204
0.0223665
0.0230308
0.0237102
0.0244015
0.0207127
0.0213648
0.022049
0.0227637
0.0235066
0.0242749
0.025065
0.0258729
0.0266944
0.027525
0.0228371
0.0236318
0.0244633
0.0253288
0.0262247
0.0271468
0.0280896
0.0290474
0.0300142
0.030985
0.0252188
0.0261695
0.0271599
0.0281861
0.0292429
0.0303241
0.0314226
0.0325303
0.0336401
0.0347465
0.0278536
0.0289691
0.0301251
0.031316
0.032535
0.0337744
0.035025
0.0362768
0.0375219
0.0387552
0.0307188
0.0320019
0.0333235
0.0346773
0.0360546
0.0374452
0.0388382
0.0402241
0.041595
0.042944
0.0337725
0.0352204
0.036703
0.0382124
0.0397394
0.0412718
0.0427971
0.0443053
0.0457881
0.0472377
0.0369608
0.0385654
0.0402002
0.0418559
0.0435202
0.0451797
0.0468225
0.0484376
0.0500157
0.0515488
0.0402178
0.0419672
0.0437415
0.0455277
0.0473115
0.0490801
0.0508219
0.052526
0.054182
0.0557803
0.0434676
0.0453454
0.0472397
0.0491359
0.0510195
0.0528774
0.0546984
0.0564719
0.0581867
0.0598321
0.0466273
0.048611
0.0506014
0.0525839
0.0545441
0.0564692
0.0583484
0.0601718
0.0619278
0.0636038
0.0496119
0.0516747
0.0537344
0.0557778
0.0577913
0.0597628
0.061681
0.0635354
0.0653144
0.0670066
0.0523414
0.0544575
0.0565613
0.0586414
0.0606861
0.0626839
0.0646235
0.0664938
0.0682833
0.0699807
0.0547569
0.0568984
0.059022
0.0611174
0.0631744
0.065182
0.0671289
0.0690037
0.0707948
0.0724907
0.056812
0.0589546
0.0610784
0.0631735
0.0652298
0.0672369
0.0691833
0.0710574
0.072847
0.07454
0.0584862
0.0606198
0.0627339
0.0648205
0.0668708
0.0688746
0.0708205
0.0726962
0.0744886
0.0761841
0.0598054
0.0619285
0.0640336
0.0661146
0.068164
0.0701724
0.0721284
0.0740189
0.075829
0.0775428
0.0608325
0.0629518
0.0650602
0.0671524
0.0692218
0.0712592
0.0732532
0.0751894
0.07705
0.0788145
0.0616869
0.06382
0.0659559
0.0680907
0.0702187
0.0723309
0.074415
0.076454
0.0784255
0.0803015
0.062492
0.0646756
0.0668852
0.069119
0.0713731
0.0736391
0.0759035
0.0781456
0.0803365
0.0824376
0.0633717
0.0656607
0.0680128
0.070431
0.0729147
0.0754581
0.0780472
0.0806574
0.083251
0.0857741
0.0644139
0.0668763
0.0694561
0.0721641
0.0750069
0.0779835
0.0810806
0.0842652
0.0874778
0.0906434
0.0656461
0.0683485
0.0712361
0.0743297
0.0776443
0.0811831
0.0849274
0.0888295
0.0928226
0.0967351
0.0670437
0.070028
0.0732689
0.0767935
0.080618
0.0847353
0.0891075
0.0936676
0.098154
0.101271
0.0685177
0.0717862
0.0753737
0.0793043
0.08358
0.0881718
0.093024
0.0978764
0.101219
0.102318
0.0699067
0.0734235
0.077304
0.081558
0.0861621
0.0910677
0.0960753
0.0999915
0.101496
0.10255
0.0710261
0.0747278
0.0788223
0.0833018
0.0881254
0.0931712
0.0977909
0.09998
0.101183
0.102336
0.0717363
0.0755479
0.0797697
0.0843841
0.0893394
0.0943361
0.0975966
0.098895
0.100535
0.100892
0.0719946
0.075839
0.0800935
0.0847251
0.0895945
0.0939812
0.0960309
0.0975096
0.0988466
0.0984676
0.0718253
0.0756263
0.0798291
0.0843967
0.0890921
0.0925219
0.0938579
0.0954486
0.096169
0.0956646
0.0712698
0.0749484
0.0790084
0.0834044
0.0878059
0.0904165
0.0914429
0.0927721
0.0930679
0.0927457
0.0703419
0.073815
0.0776373
0.0817516
0.0857483
0.0879331
0.0888296
0.0898656
0.0900639
0.0899673
0.0691066
0.0722971
0.0758019
0.0795731
0.0832214
0.0852711
0.0861596
0.0870799
0.0873894
0.0875353
0.0676396
0.0704882
0.0736076
0.0769717
0.0803293
0.0824931
0.083594
0.0846512
0.085206
0.0856177
0.066063
0.068558
0.0712786
0.0742112
0.077235
0.0796156
0.081153
0.0825916
0.0835409
0.0842563
0.0645948
0.066782
0.0691675
0.0717334
0.0744171
0.0769222
0.0789589
0.0808187
0.0821945
0.0833285
0.0634781
0.0654535
0.0676263
0.0699727
0.0724616
0.0749837
0.077334
0.0794981
0.0813015
0.082953
0.0629001
0.064791
0.0668935
0.0691935
0.0716819
0.0743297
0.0769901
0.0795016
0.0816603
0.0836691
0.0628371
0.0647676
0.0669205
0.0693098
0.0719581
0.0749035
0.0781614
0.0813554
0.083903
0.0859902
0.0630309
0.0651019
0.0674051
0.069992
0.0729218
0.076235
0.0798594
0.08323
0.0859969
0.0885838
0.0633694
0.0656519
0.0681843
0.0710315
0.0742336
0.0777389
0.0812112
0.0844475
0.0876241
0.0908939
0.0639443
0.0664638
0.0692799
0.0724207
0.0757941
0.0792339
0.0826294
0.0860957
0.0896662
0.0932717
0.064652
0.0672979
0.0702088
0.0733535
0.0767609
0.0803645
0.0840413
0.0878547
0.0919715
0.0966024
0.0646449
0.0673537
0.0703174
0.0735873
0.0771882
0.0810739
0.0852886
0.0899613
0.0952528
0.101373
0.064407
0.0671209
0.0701958
0.0736846
0.0776261
0.0820582
0.0870798
0.0928655
0.0996439
0.107694
0.0646878
0.0674201
0.0706301
0.0743994
0.0788073
0.0839597
0.0900402
0.0973191
0.106118
0.116684
0.0657801
0.0685872
0.0720357
0.0762613
0.0813746
0.0875326
0.0950452
0.104366
0.115871
0.129807
0.0679393
0.0710175
0.0750088
0.0801474
0.0864746
0.0941293
0.103648
0.115775
0.130963
0.14938
0.0711177
0.0752499
0.080651
0.0877338
0.0962759
0.106617
0.119509
0.135667
0.155458
0.179266
0.0756566
0.081835
0.0900741
0.100798
0.113445
0.12844
0.147057
0.169084
0.19395
0.221315
0.0822598
0.0913378
0.103177
0.118189
0.136701
0.158495
0.182332
0.208067
0.237383
0.264733
0.0916743
0.104443
0.120568
0.14077
0.164579
0.190717
0.218605
0.246792
0.270956
0.28157
0.104113
0.121639
0.14369
0.170396
0.200981
0.234003
0.263838
0.283926
0.284571
0.268523
0.120327
0.144037
0.173727
0.209753
0.25081
0.289316
0.305785
0.29413
0.269867
0.245095
0.141106
0.172769
0.212818
0.261613
0.312055
0.327041
0.301808
0.269886
0.242306
0.219739
0.168153
0.210102
0.263931
0.327
0.347473
0.310935
0.271877
0.240554
0.216404
0.197997
0.202683
0.258018
0.329198
0.368183
0.328467
0.28114
0.243859
0.216059
0.195817
0.18166
0.243628
0.314565
0.380613
0.353454
0.297091
0.252412
0.219384
0.195831
0.179992
0.170515
0.289267
0.372952
0.377865
0.317722
0.265784
0.226406
0.198187
0.179405
0.168585
0.164376
0.33634
0.392369
0.345914
0.285763
0.238277
0.203607
0.180215
0.166701
0.161591
0.163278
0.378745
0.383333
0.315027
0.257568
0.214089
0.183699
0.165377
0.157809
0.159178
0.167325
0.39668
0.351497
0.285523
0.231902
0.192145
0.166152
0.153541
0.152818
0.161473
0.176484
0.390533
0.323879
0.260565
0.209385
0.172376
0.150852
0.144736
0.151824
0.168461
0.190521
0.391081
0.3081
0.240571
0.189087
0.154098
0.137492
0.138875
0.154708
0.179826
0.208992
0.365608
0.285482
0.219268
0.168848
0.136487
0.125746
0.135693
0.160993
0.194888
0.231329
0.34154
0.263679
0.199501
0.149897
0.119985
0.115626
0.134767
0.169837
0.212711
0.256981
0.330121
0.250043
0.184205
0.133237
0.104749
0.106807
0.135281
0.180124
0.232201
0.284947
0.323847
0.24039
0.171525
0.117995
0.090134
0.0985142
0.136184
0.190858
0.252805
0.315019
0.319245
0.232543
0.16023
0.103477
0.0756026
0.0899911
0.136429
0.201201
0.274539
0.348742
0.316896
0.22623
0.149823
0.0893598
0.0610115
0.0806747
0.134911
0.209985
0.296911
0.387495
0.319288
0.221647
0.139681
0.0753472
0.0466149
0.0702446
0.130433
0.215388
0.318009
0.430032
0.321837
0.21559
0.128087
0.0611467
0.0331303
0.058701
0.121844
0.214968
0.334521
0.473678
0.325048
0.208998
0.115646
0.047699
0.0217671
0.046482
0.108452
0.2059
0.341037
0.51232
0.328155
0.201947
0.102427
0.0356376
0.0133149
0.0345598
0.0908632
0.186267
0.330436
0.532582
0.329725
0.191915
0.0876453
0.025234
0.00780506
0.0241224
0.0712622
0.156896
0.296806
0.512683
0.325858
0.177053
0.0712551
0.0168741
0.00465195
0.0159821
0.0527449
0.122943
0.242961
0.439511
0.31528
0.156575
0.0541819
0.01076
0.00301488
0.0102066
0.0375999
0.0919448
0.185178
0.33861
0.292522
0.129688
0.0375939
0.00665583
0.00220623
0.00632614
0.0260444
0.0675917
0.136948
0.248617
0.25055
0.0972061
0.0234791
0.00423278
0.00182392
0.00384102
0.0172239
0.0490816
0.101073
0.179687
0.197728
0.0650472
0.0133667
0.00291903
0.00165034
0.0024019
0.0103473
0.0344201
0.0753754
0.131402
0.124646
0.0355631
0.00693529
0.00225624
0.00158073
0.00174507
0.00526101
0.0213624
0.0553813
0.0988961
0.0632388
0.0183525
0.00397544
0.00199683
0.00156059
0.00156521
0.00246981
0.00925033
0.0340515
0.0754198
0.00212268
0.00214572
0.00216725
0.00218716
0.00220537
0.00222175
0.00223616
0.00224844
0.00225841
0.00226585
0.00227052
0.0022721
0.00227022
0.0022644
0.00225402
0.00223835
0.00221646
0.00218727
0.00214958
0.00210208
0.00204358
0.00197315
0.00189046
0.00179629
0.00169302
0.00158499
0.001478
0.00137738
0.00128536
0.00120014
0.00111789
0.00103495
0.000948671
0.000857197
0.000759223
0.000654292
0.00054458
0.000444856
0.000441137
0.000319627
0.00397349
0.00400696
0.0040397
0.00407132
0.00410152
0.00412995
0.00415631
0.00418025
0.0042014
0.00421937
0.0042337
0.00424381
0.00424899
0.00424833
0.00424064
0.00422442
0.00419777
0.00415845
0.00410387
0.0040313
0.00393816
0.00382251
0.00368388
0.00352421
0.00334897
0.00316731
0.00298997
0.00282427
0.00266975
0.00251971
0.00236745
0.00220915
0.00204314
0.00186843
0.00168365
0.00148759
0.00128013
0.00106077
0.000823586
0.00057876
0.00500345
0.0050337
0.005063
0.00509089
0.00511695
0.00514077
0.00516197
0.00518016
0.00519497
0.005206
0.00521285
0.005215
0.00521183
0.0052025
0.00518593
0.00516063
0.00512475
0.00507593
0.00501143
0.00492821
0.0048232
0.00469375
0.00453835
0.00435786
0.00415729
0.00394767
0.00374438
0.00355846
0.0033869
0.00321604
0.00303654
0.0028466
0.00264766
0.00244069
0.00222319
0.00199179
0.00174669
0.00148937
0.0012164
0.000922882
0.00576475
0.00578938
0.00581256
0.00583374
0.00585243
0.00586817
0.00588054
0.00588917
0.00589373
0.00589393
0.00588951
0.00588019
0.00586561
0.00584528
0.00581848
0.00578413
0.00574077
0.00568644
0.00561875
0.00553492
0.00543196
0.0053069
0.00515715
0.00498134
0.0047814
0.00456664
0.00435541
0.0041636
0.0039862
0.00380142
0.00359905
0.00338295
0.0031592
0.00293063
0.00268856
0.00242193
0.00213294
0.00183025
0.00151836
0.00119787
0.00642169
0.00644057
0.00645727
0.0064712
0.0064818
0.00648856
0.00649106
0.00648896
0.006482
0.00647006
0.00645307
0.00643106
0.00640405
0.00637199
0.00633466
0.00629151
0.00624162
0.00618356
0.0061155
0.0060353
0.00594073
0.00582966
0.00570028
0.00555132
0.00538318
0.00519982
0.0050108
0.00482568
0.00463697
0.00442758
0.00419326
0.00394717
0.00369831
0.00344715
0.00317219
0.00285367
0.00249649
0.00211532
0.00172791
0.00135206
0.00703868
0.00705288
0.00706413
0.00707177
0.00707517
0.00707381
0.00706727
0.00705524
0.00703758
0.00701432
0.00698565
0.00695192
0.00691359
0.0068711
0.00682476
0.00677457
0.00672004
0.00666016
0.00659343
0.00651827
0.00643332
0.00633797
0.00623272
0.00611966
0.0060026
0.00588326
0.00575249
0.00559644
0.00540473
0.00516965
0.00490429
0.0046281
0.00434817
0.00405137
0.00371158
0.00332846
0.00289782
0.00241602
0.00189712
0.00140171
0.0076518
0.00766365
0.00767184
0.00767564
0.0076744
0.00766758
0.00765475
0.00763569
0.00761035
0.00757894
0.00754195
0.00750008
0.00745425
0.0074055
0.00735474
0.00730259
0.00724901
0.0071932
0.00713379
0.00706941
0.00699931
0.00692391
0.00684502
0.0067657
0.00668879
0.00661245
0.00652229
0.00639879
0.00623037
0.00601098
0.0057461
0.00544815
0.00511435
0.00473218
0.00430619
0.00386048
0.00337162
0.00281034
0.00212583
0.00139937
0.00828761
0.00830081
0.00830985
0.00831394
0.00831241
0.00830471
0.00829044
0.00826944
0.00824177
0.00820786
0.00816844
0.00812462
0.00807786
0.00802986
0.00798233
0.00793669
0.00789348
0.00785198
0.00781045
0.007767
0.00772052
0.00767104
0.00761957
0.00756761
0.00751574
0.00746077
0.00739105
0.00728608
0.00712535
0.0068996
0.00662288
0.0063033
0.00593136
0.0054976
0.00501419
0.00448455
0.0038974
0.00321718
0.00238046
0.00139698
0.00897
0.00898982
0.0090053
0.00901563
0.00902012
0.00901819
0.00900948
0.00899387
0.00897155
0.00894309
0.0089095
0.00887225
0.00883332
0.00879511
0.0087603
0.00873142
0.0087099
0.00869491
0.00868339
0.0086716
0.00865677
0.00863731
0.00861224
0.00858043
0.00853932
0.00848311
0.00840088
0.00827673
0.00809627
0.00785593
0.00756421
0.00721972
0.00681528
0.0063451
0.00581108
0.00521145
0.00453979
0.00375991
0.00277174
0.00140842
0.00972328
0.00975674
0.00978617
0.00981069
0.00982955
0.00984215
0.00984813
0.00984739
0.00984019
0.00982722
0.00980966
0.0097893
0.00976851
0.00975027
0.00973813
0.00973594
0.00974672
0.00976933
0.00979732
0.00982274
0.00984026
0.00984656
0.00983905
0.00981475
0.0097694
0.00969664
0.00958773
0.00943271
0.00922383
0.00895885
0.00863812
0.00825704
0.00780972
0.0072944
0.0067089
0.00604545
0.00528586
0.00438821
0.00325124
0.00148912
0.0105738
0.01063
0.010683
0.0107318
0.0107755
0.0108135
0.0108453
0.0108708
0.0108902
0.0109043
0.0109144
0.0109225
0.0109313
0.0109442
0.0109653
0.010999
0.0110499
0.0111176
0.0111876
0.0112452
0.0112847
0.0113034
0.0112988
0.011268
0.0112071
0.0111105
0.0109719
0.0107844
0.0105417
0.0102391
0.00987317
0.00944096
0.00894009
0.00836827
0.00772101
0.0069847
0.00613123
0.00511059
0.00381433
0.00177325
0.0115516
0.011642
0.0117304
0.0118157
0.0118969
0.0119731
0.0120437
0.0121084
0.0121673
0.0122212
0.0122714
0.0123201
0.0123707
0.0124273
0.0124945
0.0125763
0.012675
0.0127862
0.0128845
0.0129541
0.0129952
0.0130074
0.0129895
0.0129393
0.0128535
0.0127275
0.012556
0.0123331
0.0120528
0.0117087
0.0112951
0.0108071
0.0102421
0.00959971
0.00887691
0.0080556
0.00709768
0.00594148
0.00446192
0.00212617
0.0126911
0.0128295
0.0129676
0.0131041
0.0132375
0.0133668
0.0134909
0.0136095
0.0137224
0.0138304
0.0139348
0.0140383
0.0141448
0.0142594
0.0143871
0.0145294
0.0146803
0.014817
0.0149127
0.0149655
0.014984
0.0149699
0.0149228
0.014841
0.0147212
0.0145592
0.0143498
0.0140875
0.0137664
0.0133791
0.0129176
0.0123742
0.0117436
0.0110255
0.010217
0.00929549
0.00821334
0.00689588
0.00519497
0.00254424
0.0140315
0.0142341
0.0144386
0.014643
0.0148454
0.0150443
0.0152383
0.0154268
0.0156096
0.0157876
0.0159624
0.0161369
0.0163155
0.016503
0.0167006
0.0168997
0.0170807
0.0172133
0.0172819
0.0172988
0.0172757
0.0172173
0.0171254
0.0169991
0.0168347
0.0166271
0.0163707
0.0160604
0.0156906
0.0152543
0.014743
0.0141478
0.0134601
0.0126729
0.0117747
0.0107384
0.00951246
0.00801001
0.00604718
0.0030417
0.0156155
0.0159006
0.0161899
0.0164805
0.0167698
0.0170554
0.0173357
0.0176098
0.0178777
0.0181409
0.0184016
0.0186632
0.0189294
0.0192003
0.0194645
0.0197003
0.0198786
0.0199785
0.0200043
0.0199719
0.0198927
0.0197751
0.0196244
0.0194413
0.0192208
0.0189557
0.0186395
0.0182674
0.0178353
0.0173378
0.0167677
0.0161166
0.0153737
0.0145222
0.0135374
0.0123838
0.0110098
0.00931217
0.00705509
0.00362172
0.017486
0.0178731
0.0182663
0.0186615
0.019055
0.0194435
0.0198248
0.0201978
0.020563
0.0209228
0.0212805
0.0216389
0.0219972
0.0223435
0.0226535
0.0228969
0.0230503
0.023112
0.0230926
0.0230037
0.0228578
0.022668
0.0224457
0.0221941
0.0219054
0.0215686
0.0211762
0.0207251
0.0202136
0.0196387
0.0189939
0.0182703
0.0174545
0.0165248
0.0154506
0.0141905
0.0126823
0.0107991
0.00824162
0.00426995
0.0196811
0.0201889
0.0207034
0.0212195
0.021732
0.0222369
0.0227307
0.0232121
0.0236818
0.0241438
0.0246014
0.0250512
0.0254831
0.0258758
0.026199
0.0264278
0.026557
0.0265906
0.0265336
0.0263933
0.0261807
0.0259131
0.0256103
0.0252794
0.0249082
0.024482
0.0239942
0.0234451
0.0228359
0.0221649
0.0214249
0.0206055
0.0196928
0.0186644
0.0174869
0.0161144
0.0144724
0.0124123
0.0095736
0.00495137
0.0222277
0.022871
0.0235199
0.0241678
0.0248087
0.0254375
0.0260502
0.0266449
0.0272223
0.0277849
0.0283298
0.0288448
0.0293144
0.029716
0.0300261
0.0302371
0.0303497
0.0303639
0.0302812
0.0301055
0.0298447
0.0295132
0.0291317
0.0287099
0.0282353
0.0276989
0.0270977
0.026434
0.0257103
0.0249245
0.0240681
0.02313
0.0220953
0.0209424
0.0196371
0.0181272
0.0163255
0.0140638
0.0109273
0.00563026
0.0251367
0.0259236
0.0267121
0.0274944
0.0282636
0.029014
0.0297415
0.0304438
0.0311209
0.0317712
0.0323814
0.032932
0.0334067
0.0337921
0.0340808
0.0342715
0.0343628
0.0343548
0.0342498
0.0340525
0.0337718
0.033414
0.0329762
0.0324548
0.0318585
0.0311971
0.0304744
0.0296899
0.0288413
0.0279243
0.0269312
0.0258511
0.0246698
0.0233662
0.0219049
0.0202283
0.0182345
0.0157251
0.0122288
0.00630481
0.0284024
0.0293342
0.0302604
0.031172
0.0320611
0.0329216
0.0337487
0.034539
0.0352888
0.0359927
0.0366355
0.0371975
0.0376661
0.0380353
0.0383022
0.0384655
0.038526
0.0384871
0.0383536
0.0381324
0.0378312
0.0374492
0.0369675
0.0363773
0.0356909
0.0349219
0.0340832
0.0331779
0.0322008
0.0311438
0.029999
0.0287575
0.027407
0.0259293
0.0242893
0.0224235
0.0202216
0.0174639
0.0136074
0.0070146
0.0320033
0.0330756
0.0341322
0.0351627
0.0361586
0.0371127
0.038019
0.0388723
0.0396662
0.0403919
0.0410366
0.0415889
0.0420417
0.0423894
0.0426283
0.0427578
0.0427808
0.0427022
0.0425284
0.0422663
0.0419208
0.0414926
0.0409703
0.0403389
0.0395954
0.0387481
0.0378105
0.0367925
0.0356924
0.0345007
0.0332062
0.0318003
0.030274
0.0286108
0.026779
0.0247133
0.0222984
0.0192942
0.0150879
0.00776541
0.0358991
0.0371026
0.0382776
0.0394127
0.0404986
0.0415271
0.0424914
0.0433846
0.0441998
0.0449284
0.0455616
0.0460921
0.0465155
0.0468282
0.0470284
0.0471163
0.0470949
0.0469689
0.0467443
0.046427
0.0460209
0.0455268
0.0449392
0.0442491
0.043448
0.042533
0.0415126
0.0404004
0.0391951
0.037882
0.0364489
0.0348885
0.0331954
0.0313535
0.0293281
0.0270565
0.0244214
0.0211662
0.0166084
0.0085202
0.0400314
0.0413529
0.0426308
0.0438531
0.0450099
0.046093
0.0470952
0.0480097
0.0488299
0.0495492
0.0501613
0.0506618
0.0510481
0.0513188
0.0514736
0.0515139
0.0514424
0.0512633
0.0509814
0.0506007
0.0501241
0.0495511
0.0488782
0.0481001
0.0472138
0.0462218
0.0451276
0.0439276
0.0426151
0.0411818
0.039619
0.037919
0.0360776
0.0340765
0.0318666
0.0293855
0.0265198
0.0230066
0.0181041
0.00924002
0.0443304
0.0457535
0.0471164
0.0484066
0.0496148
0.0507335
0.0517561
0.0526766
0.0534895
0.0541902
0.0547745
0.0552399
0.0555852
0.0558104
0.0559165
0.0559053
0.0557798
0.0555433
0.0551995
0.0547512
0.0541999
0.0535451
0.0527843
0.0519153
0.0509378
0.0498534
0.0486604
0.0473511
0.0459182
0.0443595
0.0426735
0.0408537
0.03888
0.0367184
0.0343251
0.0316348
0.0285305
0.0247436
0.0194785
0.00990058
0.0487176
0.0502236
0.0516516
0.0529897
0.0542307
0.0553684
0.0563969
0.0573115
0.0581079
0.0587828
0.0593342
0.0597609
0.0600629
0.060241
0.060297
0.0602331
0.0600521
0.0597567
0.0593496
0.0588329
0.0582075
0.0574731
0.0566283
0.0556718
0.0546031
0.0534212
0.0521229
0.0507027
0.0491552
0.0474777
0.0456666
0.0437108
0.041587
0.0392607
0.036688
0.0337968
0.0304548
0.0263728
0.0207116
0.0104429
0.0531035
0.0546717
0.0561447
0.0575126
0.0587709
0.059914
0.0609371
0.0618362
0.0626088
0.0632529
0.0637679
0.0641538
0.0644117
0.0645431
0.0645502
0.0644354
0.0642011
0.0638496
0.063383
0.0628025
0.0621085
0.0613009
0.0603787
0.0593408
0.0581859
0.0569121
0.0555163
0.0539944
0.0523417
0.0505524
0.0486189
0.0465279
0.0442583
0.0417776
0.0390379
0.0359571
0.0323778
0.0280004
0.0219378
0.0110246
0.0573898
0.0589997
0.0605004
0.0618846
0.0631477
0.0642852
0.0652932
0.0661696
0.0669128
0.0675224
0.0679991
0.0683441
0.0685592
0.0686467
0.068609
0.0684485
0.0681674
0.0677676
0.0672503
0.0666163
0.0658654
0.064997
0.06401
0.062903
0.061674
0.0603207
0.0588399
0.0572278
0.0554797
0.0535884
0.0515435
0.0493296
0.046926
0.0443007
0.0414019
0.0381409
0.0343509
0.0296961
0.0232639
0.011701
0.0614782
0.0631124
0.064627
0.0660152
0.0672723
0.0683949
0.0693807
0.0702286
0.0709388
0.0715122
0.0719507
0.0722566
0.0724326
0.0724816
0.0724063
0.0722092
0.0718921
0.0714564
0.0709028
0.0702309
0.0694401
0.0685288
0.0674953
0.0663373
0.0650522
0.0636369
0.0620879
0.060401
0.0585706
0.056589
0.054446
0.0521277
0.049612
0.0468659
0.0438368
0.0404335
0.0364799
0.0315941
0.0248583
0.0125249
0.0652709
0.0669162
0.0684332
0.0698153
0.0710581
0.0721592
0.0731177
0.0739338
0.0746092
0.0751464
0.0755484
0.075819
0.0759619
0.0759806
0.0758782
0.0756571
0.075319
0.0748644
0.0742932
0.073604
0.0727949
0.0718633
0.070806
0.0696194
0.0682997
0.0668429
0.0652443
0.0634989
0.0616004
0.0595406
0.057309
0.0548907
0.052263
0.049391
0.0462194
0.0426529
0.0385108
0.0333972
0.0263389
0.0133013
0.0686834
0.0703299
0.0718403
0.0732087
0.0744312
0.0755063
0.076434
0.0772163
0.0778562
0.0783581
0.0787269
0.0789675
0.079085
0.0790837
0.0789672
0.078738
0.0783971
0.0779445
0.0773787
0.0766969
0.0758956
0.0749703
0.0739158
0.0727267
0.0713975
0.0699223
0.0682952
0.0665096
0.064558
0.0624314
0.0601178
0.0576007
0.0548556
0.051845
0.04851
0.0447518
0.0403892
0.035028
0.0275637
0.0137095
0.0716578
0.0732974
0.0747947
0.0761437
0.0773412
0.0783862
0.07928
0.0800261
0.0806298
0.0810973
0.0814357
0.0816518
0.0817523
0.0817425
0.0816265
0.081407
0.0810844
0.0806575
0.0801235
0.0794775
0.0787138
0.0778253
0.0768043
0.075643
0.0743332
0.0728668
0.071236
0.0694323
0.0674469
0.0652695
0.0628869
0.0602813
0.0574268
0.0542845
0.0507929
0.046849
0.0422628
0.0366195
0.0287334
0.0141183
0.0741628
0.0757918
0.0772724
0.0785987
0.0797672
0.0807779
0.0816336
0.08234
0.0829048
0.083337
0.0836464
0.0838423
0.0839331
0.0839257
0.0838249
0.0836333
0.083351
0.0829754
0.0825015
0.0819223
0.0812289
0.0804111
0.079458
0.0783582
0.0771006
0.0756741
0.0740683
0.0722728
0.0702771
0.0680693
0.0656356
0.0629572
0.0600076
0.0567472
0.0531126
0.0489972
0.0442022
0.0382962
0.0300502
0.0147214
0.0762069
0.0778256
0.0792895
0.0805913
0.0817275
0.0826988
0.0835102
0.0841701
0.0846897
0.085082
0.08536
0.0855361
0.0856213
0.0856243
0.0855509
0.0854039
0.0851827
0.0848834
0.0844984
0.0840178
0.083429
0.0827178
0.0818691
0.0808675
0.0796976
0.078345
0.076796
0.0750375
0.0730569
0.070841
0.0683748
0.0656389
0.0626065
0.059237
0.0554657
0.0511825
0.0461823
0.0400211
0.03142
0.0153714
0.077852
0.0794661
0.0809164
0.0821937
0.0832936
0.0842179
0.084974
0.0855747
0.0860362
0.0863767
0.0866139
0.0867642
0.0868415
0.0868568
0.0868174
0.0867268
0.0865838
0.0863824
0.0861129
0.0857613
0.0853107
0.0847421
0.0840352
0.0831695
0.0821247
0.0808817
0.0794229
0.0777318
0.0757933
0.0735921
0.071112
0.0683331
0.0652281
0.0617559
0.0578502
0.053398
0.0481877
0.0417641
0.0328367
0.0160388
0.0792276
0.080851
0.082295
0.083549
0.0846067
0.0854705
0.0861519
0.0866699
0.0870487
0.087314
0.0874899
0.087597
0.0876531
0.0876723
0.0876643
0.0876333
0.0875778
0.0874902
0.0873574
0.0871612
0.0868796
0.0864876
0.0859587
0.0852661
0.0843836
0.0832866
0.0819523
0.0803601
0.0784914
0.0763286
0.0738537
0.0710464
0.0678792
0.0643113
0.0602754
0.0556548
0.0502294
0.0435218
0.0341729
0.0166925
0.0805479
0.0822062
0.0836597
0.0848938
0.0858987
0.086678
0.0872492
0.0876418
0.0878932
0.0880411
0.0881171
0.0881467
0.0881516
0.0881507
0.0881573
0.0881772
0.0882083
0.088241
0.0882585
0.0882377
0.0881504
0.0879647
0.0876467
0.0871622
0.0864779
0.0855623
0.0843868
0.0829253
0.0811548
0.0790543
0.0766037
0.0737819
0.0705628
0.0669068
0.062747
0.0579629
0.0523236
0.0453274
0.0355759
0.0173825
0.0821434
0.0838861
0.0853773
0.086596
0.0875271
0.0881761
0.0885702
0.0887581
0.0888014
0.088758
0.0886687
0.0885613
0.0884619
0.0883967
0.0883844
0.0884322
0.0885368
0.0886856
0.0888574
0.0890235
0.0891484
0.0891923
0.0891128
0.0888671
0.0884135
0.0877128
0.0867291
0.0854297
0.0837859
0.0817717
0.0793634
0.0765391
0.0732748
0.0695361
0.0652602
0.0603256
0.0544931
0.0472368
0.0370818
0.0181356
0.0845068
0.0864418
0.0880332
0.0892344
0.0900357
0.0904521
0.0905317
0.0903635
0.0900548
0.0896935
0.0893321
0.0889944
0.0887108
0.088519
0.0884422
0.0884847
0.0886392
0.0888897
0.0892101
0.0895652
0.0899116
0.0902006
0.0903802
0.0903979
0.0902027
0.0897465
0.088985
0.0878782
0.0863898
0.0844866
0.0821385
0.0793193
0.076008
0.0721805
0.0677834
0.0626965
0.0566749
0.0491814
0.0386848
0.0189022
0.0882833
0.0906023
0.0923703
0.0934774
0.0939928
0.0939617
0.0934646
0.0926742
0.091792
0.0909516
0.0901993
0.089525
0.0889639
0.0885852
0.0884067
0.0884157
0.0885967
0.0889297
0.0893857
0.0899236
0.0904923
0.0910335
0.091485
0.0917839
0.0918686
0.0916813
0.0911689
0.0902832
0.08898
0.0872174
0.0849544
0.0821526
0.0787895
0.0748591
0.0703244
0.0650623
0.0588152
0.0510275
0.0401212
0.019585
0.0938393
0.0967506
0.0983516
0.0986204
0.0982706
0.0974268
0.0961576
0.0947002
0.0932651
0.0920012
0.0909353
0.0899761
0.0891502
0.0885931
0.0883091
0.0882715
0.0884681
0.0888743
0.0894557
0.0901678
0.0909541
0.0917482
0.0924778
0.0930689
0.0934492
0.09355
0.0933089
0.0926694
0.0915808
0.0899942
0.087858
0.0851118
0.0817103
0.0776704
0.0729869
0.0675318
0.0610268
0.0528925
0.0415165
0.020254
0.0999632
0.101454
0.101768
0.101122
0.0996031
0.0977296
0.0959201
0.0942923
0.092878
0.0916706
0.0906016
0.0896084
0.0887802
0.0882539
0.0880194
0.0880234
0.0882741
0.0887657
0.0894764
0.0903619
0.0913627
0.0924083
0.0934189
0.0943103
0.0949986
0.0954038
0.0954526
0.0950803
0.0942301
0.0928508
0.0908884
0.0882708
0.0848922
0.0807587
0.0759206
0.0702572
0.0634721
0.0549536
0.0430321
0.0210214
0.102445
0.102737
0.102135
0.100234
0.0981097
0.0961394
0.0943423
0.0927284
0.0913168
0.0901182
0.0891274
0.088347
0.0878064
0.0875183
0.0874269
0.0875779
0.0880038
0.0886384
0.0894953
0.0905608
0.0917784
0.0930762
0.0943708
0.0955703
0.09658
0.0973074
0.097667
0.0975834
0.0969921
0.0958384
0.0940721
0.0916365
0.0883913
0.084228
0.079226
0.0733318
0.066255
0.0573531
0.0448853
0.0219738
0.103015
0.102717
0.100889
0.0987994
0.0967367
0.0947937
0.0930119
0.0914195
0.0900316
0.088858
0.0879114
0.0872112
0.0867804
0.0866304
0.086735
0.0870972
0.0877003
0.0885204
0.0895612
0.0908211
0.092258
0.0938085
0.0953894
0.0969041
0.0982483
0.0993174
0.100012
0.100243
0.099933
0.09902
0.0974503
0.0951755
0.0920772
0.0879711
0.0828488
0.0767217
0.0693468
0.0600612
0.0470198
0.0230858
0.102996
0.101558
0.0996149
0.0976162
0.0956503
0.0937856
0.0920732
0.0905377
0.0891945
0.0880594
0.0871535
0.0865017
0.0861241
0.086031
0.0862272
0.0867239
0.0874993
0.0885002
0.0897312
0.0911997
0.0928588
0.0946581
0.096523
0.0983551
0.100042
0.101467
0.102516
0.10308
0.103069
0.102403
0.10102
0.0988598
0.0958379
0.0917876
0.0866347
0.0803393
0.0726852
0.0630071
0.0493721
0.0243149
0.101732
0.100061
0.0982639
0.0964605
0.0946929
0.0930116
0.0914507