/*--------------------------------*- C++ -*----------------------------------*\
  =========                 |
  \\      /  F ield         | OpenFOAM: The Open Source CFD Toolbox
   \\    /   O peration     | Website:  https://openfoam.org
    \\  /    A nd           | Version:  8
     \\/     M anipulation  |
\*---------------------------------------------------------------------------*/
FoamFile
{
    version     2.0;
    format      ascii;
    class       volScalarField;
    location    "3.05";
    object      p_rgh;
}
// * * * * * * * * * * * * * * * * * * * * * * * * * * * * * * * * * * * * * //

dimensions      [1 -1 -2 0 0 0 0];

internalField   nonuniform List<scalar> 
9150
(
2563.59
2536.57
2511.1
2493.89
2485.58
2485.56
2493.85
2511.04
2536.51
2563.54
2554.36
2534.77
2519.14
2507.33
2501.35
2501.34
2507.3
2519.1
2534.72
2554.31
2544.69
2531.09
2522.58
2514.81
2510.7
2510.7
2514.79
2522.55
2531.05
2544.65
2539.61
2529.54
2524.11
2518.73
2515.77
2515.76
2518.72
2524.09
2529.51
2539.58
2537.96
2528.96
2524.43
2520.24
2517.79
2517.79
2520.23
2524.4
2528.93
2537.92
2099.14
2095.37
2120.29
2134.32
2140.84
2140.66
2133.81
2119.52
2094.29
2097.67
2288.58
2264.6
2259.16
2257.86
2257.93
2257.84
2257.59
2258.74
2264.05
2288.02
2412.36
2381.26
2365.4
2355.49
2350.81
2350.76
2355.33
2365.17
2380.99
2412.11
2512.49
2470.57
2442.88
2425.51
2417
2416.96
2425.42
2442.75
2470.43
2512.38
2583.49
2530.41
2491.8
2469.74
2459.59
2459.57
2469.68
2491.72
2530.33
2583.43
1924.87
1954.33
1941.76
1948.58
1945.15
1943.27
1948.32
1938.53
1948.58
1907.92
1950.01
1963.07
1944.43
1949.39
1945.66
1944.15
1949.13
1938.42
1957.79
1938.24
1925.48
1953.57
1921.73
1927.83
1930.38
1929.77
1927.24
1916.9
1949.45
1917.89
1765.35
1888.12
1903.76
1921.96
1937.74
1937.42
1920.55
1900.4
1885.8
1759.09
1634.93
1875.41
1970.65
2000.52
2016.13
2015.86
1999.57
1969.12
1873.7
1630.48
1860.08
1860.18
1860.29
1860.42
1860.56
1860.71
1860.87
1861.03
1861.21
1861.41
1860.13
1860.2
1860.29
1860.38
1860.49
1860.61
1860.74
1860.89
1861.06
1861.24
1860.19
1860.25
1860.31
1860.39
1860.48
1860.58
1860.69
1860.81
1860.94
1861.09
1860.16
1860.2
1860.25
1860.31
1860.38
1860.46
1860.55
1860.66
1860.77
1860.9
1860.06
1860.09
1860.13
1860.18
1860.24
1860.31
1860.39
1860.49
1860.59
1860.7
1859.9
1859.93
1859.96
1860.01
1860.06
1860.12
1860.2
1860.28
1860.37
1860.47
1859.69
1859.71
1859.74
1859.78
1859.83
1859.89
1859.96
1860.04
1860.13
1860.22
1859.41
1859.44
1859.47
1859.51
1859.56
1859.62
1859.69
1859.76
1859.85
1859.94
1859.08
1859.11
1859.15
1859.19
1859.24
1859.31
1859.38
1859.45
1859.54
1859.63
1858.69
1858.73
1858.77
1858.82
1858.88
1858.95
1859.02
1859.1
1859.19
1859.29
1858.25
1858.29
1858.34
1858.4
1858.47
1858.54
1858.62
1858.71
1858.81
1858.91
1857.74
1857.79
1857.85
1857.92
1858
1858.08
1858.18
1858.28
1858.38
1858.5
1857.16
1857.23
1857.3
1857.38
1857.47
1857.57
1857.68
1857.79
1857.91
1858.04
1856.51
1856.59
1856.68
1856.77
1856.87
1856.99
1857.11
1857.24
1857.38
1857.52
1855.77
1855.86
1855.97
1856.08
1856.2
1856.33
1856.46
1856.61
1856.76
1856.92
1854.93
1855.04
1855.15
1855.28
1855.42
1855.56
1855.71
1855.87
1856.05
1856.22
1853.98
1854.1
1854.22
1854.36
1854.51
1854.67
1854.84
1855.01
1855.2
1855.4
1852.89
1853.01
1853.14
1853.29
1853.45
1853.62
1853.8
1853.99
1854.19
1854.41
1851.65
1851.76
1851.8
1851.78
1852.05
1852.38
1852.57
1852.77
1852.99
1853.21
1850.21
1849.56
1849.44
1849.95
1850.76
1850.92
1851.1
1851.31
1851.53
1851.77
1847.43
1847.52
1847.63
1848.49
1849.04
1849.19
1849.36
1849.56
1849.79
1850.03
1845.47
1845.53
1845.93
1846.96
1847.03
1847.12
1847.25
1847.5
1847.73
1847.95
1843.27
1843.62
1844.68
1844.69
1844.63
1840.64
1837.52
1841.03
1845.42
1845.63
1840.93
1841.85
1842.15
1831.73
1823.7
1824.2
1836.51
1842.55
1842.68
1842.88
1839.07
1833.22
1818.84
1819.39
1819.67
1825.46
1839.55
1839.56
1839.67
1839.27
1824.76
1814.92
1815.05
1815.09
1821.63
1836.37
1836.22
1836.3
1836.13
1828.95
1810.94
1810.88
1810.71
1816.32
1832.86
1832.45
1832.38
1826.33
1821.15
1821.47
1806.84
1806.56
1808.64
1829.12
1828.73
1828.47
1822.21
1816.45
1816.55
1816.71
1802.45
1801.81
1821.82
1824.55
1824.16
1823.91
1823.37
1817.27
1811.63
1811.69
1804.88
1812.92
1819.8
1819.27
1818.85
1818.54
1818.26
1817.81
1817.35
1817.69
1814.57
1812.71
1813.83
1813.65
1813.11
1812.67
1812.34
1812.12
1812
1811.99
1806.9
1806.78
1808.49
1807.7
1807.01
1806.43
1805.96
1805.61
1805.4
1805.33
1804.48
1803.31
1802.42
1801.47
1800.61
1799.86
1799.23
1798.73
1798.38
1798.19
1799.27
1797.71
1796.43
1795.24
1794.14
1793.15
1792.3
1791.59
1791.05
1790.69
1793.77
1792.03
1790.52
1789.08
1787.71
1786.45
1785.33
1784.35
1783.55
1782.94
1788.65
1786.66
1784.87
1783.13
1781.47
1779.9
1778.46
1777.16
1776.03
1775.1
1784.41
1782.07
1779.88
1777.76
1775.73
1773.8
1771.98
1770.29
1768.75
1767.41
1779.88
1777.47
1775.11
1772.78
1770.47
1768.22
1766.03
1763.89
1761.81
1759.73
1776.53
1773.84
1771.19
1768.57
1765.95
1763.32
1760.64
1757.82
1754.61
1750.82
1773.39
1770.62
1767.87
1765.11
1762.33
1759.45
1756.32
1752.74
1749.25
1745.91
1770.71
1767.95
1765.17
1762.38
1759.49
1756.32
1752.73
1750.13
1651.63
1191.15
1768.59
1765.78
1762.96
1760.05
1756.82
1753.2
1750.97
1595.15
1131.5
1068.87
1766.84
1763.93
1760.96
1757.7
1753.98
1751.27
1628.54
1120.04
1049.97
1053.52
1765.25
1762.28
1759.13
1755.54
1752.29
1702.92
1210.8
1028.43
1032.37
1034.93
1764.04
1760.93
1757.54
1753.95
1752.05
1458.54
1004.71
1008.93
1011.59
1012.64
1762.86
1759.48
1755.66
1752.13
1650.02
1048.21
985.221
987.791
990.415
1138.94
1762.46
1759.16
1755.53
1743.77
1424.29
963.586
965.744
967.385
988.179
1459.43
1763.08
1759.91
1755.72
1694.86
1119.95
943.996
946.1
946.812
1107.32
1704.37
1765.22
1761.95
1758.05
1610.57
960.675
927.424
927.404
927.687
1323.31
1741.33
1769.52
1765.95
1761.37
1514.41
927.831
911.521
910.598
909.536
1464.97
1744.67
1774.5
1770.8
1765.78
1461.12
908.831
897.536
896.136
895.028
1450.53
1748.21
1780.46
1776.56
1771.43
1535.83
916.124
885.087
884.114
882.42
1307.53
1748.52
1787.69
1783.41
1778.36
1701.88
1002.34
876.379
873.613
873.919
1117.42
1711.2
1795.81
1791.15
1786.16
1780.12
1319.49
868.818
865.23
865.089
1138.77
1722.55
1804.34
1799.2
1793.94
1787.9
1717.72
992.922
859.243
911.172
1484.51
1776.63
1812.13
1806.65
1800.81
1793.87
1783.61
1407.81
861.149
926.426
1545.18
1791.2
1820.38
1816.9
1813.42
1809.95
1805.97
1659.51
963.22
857.83
898.414
1075.78
1827.34
1825.74
1823.98
1822.57
1821.98
1412.26
869.487
857.109
856.969
857.473
1835.36
1836.05
1836.15
1678.67
1204.63
863.504
860.175
860.481
860.807
861.917
1502.17
1417.53
1170.63
928.524
866.135
862.9
861.367
860.414
858.587
855.206
927.734
907.785
892.255
886.265
878.72
874.185
957.887
1212.72
1567.63
1798.05
1267.64
1238.35
1279.24
1391.15
1526.95
1648.4
1752.63
1827.45
1851.37
1849.82
1847.03
1844.32
1850.45
1860.44
1863.13
1862.57
1862.44
1862.19
1861.43
1848.33
1872.32
1871.82
1871.81
1871.98
1871.94
1871.72
1871.21
1870.54
1868.75
1861.46
1852.17
1877.23
1877.29
1877.66
1878.51
1878.88
1878.46
1877.91
1877.59
1876.8
1337.09
1681.64
1881.11
1883.5
1887.87
1889.33
1886.86
1881.76
1887.77
1884.25
1683.04
1451.63
1082.52
1139.46
1529.69
1730.22
1466.59
1181.89
1356.12
1300.83
1907.56
1637.68
847.324
775.215
777.631
783.152
861.872
812.746
805.912
804.603
1856.05
1065.4
774.49
776.195
778.116
780.48
830.043
1294.01
986.256
793.572
861.211
774.273
772.875
770.325
809.628
909.503
1464.29
1469.06
1267.38
800.588
1214.37
1221.68
1205.15
1281.86
1642.99
1640.89
1552.51
1157.49
1201.12
1457.04
1905.69
1930.05
1931.27
1931.2
1656.74
992.914
1016.64
1135.51
1669.69
1927.82
1918.07
1918.49
1892.06
1318.99
731.534
754.09
1051.03
1827.73
1937.03
1914.01
1911.08
1875.17
1139.47
626.9
643.164
1030.64
1866.93
1926.18
1910.98
1890.55
1890.66
1160.33
568.212
581.379
850.036
1798.37
1917.14
1905.9
1888.35
1867.58
1418.57
529.758
540.594
578.153
1656.23
1912.48
1903.05
1886.56
1867.04
1844.78
670.193
513.56
517.236
1363.36
1907.63
1901.12
1886.12
1867.86
1846.88
1823.27
484.6
493.564
707.172
1771.35
1898.8
1887.46
1870.79
1851.21
1828.88
1804.07
476.319
475.623
1499.46
1901.64
1891.68
1876.3
1858.16
1837.32
1813.88
1788.27
459.112
682.938
1791.22
1892.25
1881.21
1865.66
1847.24
1826.06
1802.5
1777.18
429.88
1399.13
1898.61
1888.44
1874.87
1858.69
1839.79
1818.46
1795.25
1770.7
448.981
1725.2
1895.04
1884.02
1869.67
1852.97
1833.86
1812.8
1790.54
1768.02
934.755
1873.9
1891.17
1879.04
1864.87
1848.34
1829.54
1808.87
1786.63
1763.74
1217.61
1891.25
1883.11
1871.78
1859.29
1844.74
1828.19
1810.31
1791.7
1774.7
1308.9
1877.48
1872.75
1864.25
1854.24
1842.15
1828.2
1813.18
1797.93
1784.92
1372.57
1869.9
1866.77
1860.08
1852.01
1842.02
1830.34
1817.69
1804.8
1793.61
1414.62
1867.91
1865.06
1859.84
1853.46
1845.37
1835.83
1825.44
1814.86
1806.59
1438.41
1872.29
1869.76
1865.23
1859.45
1852.37
1844.44
1836.33
1829.21
1781.08
1464.47
1889.01
1880.8
1873.76
1866.82
1859.87
1852.94
1846.57
1842.13
1719.7
1526.25
1893.29
1884.43
1876.91
1869.91
1863.76
1858.14
1853.84
1852.57
1671.35
1530.64
1888.7
1881.91
1875.31
1868.87
1863.33
1858.2
1854.65
1853.68
1597.47
1471.74
1881.16
1876.85
1871.46
1865.92
1860.83
1855.49
1850.75
1845.04
1503.52
1417.23
1874.64
1871.89
1867.64
1863.53
1859.45
1854.5
1849.29
1842.03
1437.57
1366.68
1866.29
1867.8
1865.69
1863.56
1860.92
1856.8
1851.85
1845.03
1425.01
1326.02
1864.06
1868.28
1867.55
1867.04
1866.12
1863.39
1859.82
1854.29
1463.4
1315.55
1865.64
1872.42
1873.25
1874.09
1874.75
1873.27
1871.35
1868.02
1524.21
1359.24
1872.47
1882.17
1885
1885.91
1886.7
1885.28
1884.29
1881.51
1598.25
1466.03
1899.72
1901.36
1902.38
1901.48
1901.1
1899.1
1898.57
1894.21
1672.23
1698.77
1923.2
1918.73
1919.6
1917.61
1916.72
1916.4
1918.36
1916.53
1750.61
1828.87
1948.81
1934.9
1935.99
1932.9
1931.59
1934.65
1938.3
1950.07
1829.76
1861.63
1861.89
1862.17
1862.46
1862.76
1863.07
1863.4
1863.73
1864.06
1864.4
1864.74
1865.07
1865.39
1865.71
1866
1866.28
1866.53
1866.75
1866.94
1867.09
1867.2
1867.29
1867.35
1867.4
1867.46
1867.53
1867.63
1867.74
1867.87
1867.99
1868.09
1868.17
1868.23
1868.25
1868.25
1868.24
1868.21
1868.18
1868.15
1868.16
1861.44
1861.67
1861.91
1862.17
1862.43
1862.71
1862.99
1863.28
1863.58
1863.88
1864.17
1864.47
1864.76
1865.04
1865.3
1865.55
1865.79
1865.99
1866.18
1866.34
1866.47
1866.59
1866.69
1866.8
1866.92
1867.05
1867.21
1867.39
1867.56
1867.72
1867.85
1867.96
1868.04
1868.1
1868.13
1868.14
1868.14
1868.12
1868.09
1868.05
1861.26
1861.45
1861.66
1861.87
1862.1
1862.34
1862.59
1862.84
1863.1
1863.37
1863.63
1863.9
1864.16
1864.42
1864.67
1864.91
1865.13
1865.34
1865.54
1865.72
1865.88
1866.03
1866.16
1866.29
1866.43
1866.57
1866.76
1867.01
1867.28
1867.52
1867.71
1867.86
1867.98
1868.07
1868.13
1868.15
1868.15
1868.13
1868.07
1867.94
1861.05
1861.21
1861.39
1861.59
1861.79
1862
1862.23
1862.46
1862.69
1862.94
1863.19
1863.44
1863.69
1863.94
1864.19
1864.44
1864.68
1864.91
1865.13
1865.34
1865.53
1865.7
1865.85
1865.96
1866.02
1866.02
1865.99
1866.36
1867.04
1867.43
1867.68
1867.86
1868.01
1868.13
1868.2
1868.21
1868.18
1868.14
1868
1867.78
1860.83
1860.98
1861.14
1861.32
1861.5
1861.7
1861.91
1862.12
1862.34
1862.58
1862.81
1863.06
1863.31
1863.57
1863.83
1864.09
1864.36
1864.62
1864.89
1865.15
1865.39
1865.62
1865.82
1865.97
1865.9
1863.24
1860.72
1860.76
1865.35
1866.71
1867.64
1868
1867.99
1868.14
1868.3
1868.22
1868.11
1868.03
1867.91
1867.66
1860.59
1860.73
1860.88
1861.04
1861.22
1861.4
1861.6
1861.8
1862.01
1862.23
1862.47
1862.71
1862.96
1863.22
1863.5
1863.78
1864.09
1864.4
1864.73
1865.07
1865.43
1865.8
1866.2
1866.62
1865.31
1858.06
1858.6
1858.74
1858.76
1858.73
1860.92
1863.71
1864.59
1867.4
1868.32
1866.92
1865.89
1865.46
1865.6
1866.06
1860.34
1860.47
1860.61
1860.76
1860.92
1861.1
1861.28
1861.47
1861.68
1861.89
1862.11
1862.35
1862.59
1862.86
1863.14
1863.44
1863.77
1864.13
1864.51
1864.92
1865.34
1865.79
1866.29
1866.86
1867.54
1866.91
1859.38
1857.6
1857.99
1858.47
1858.77
1859.15
1863.38
1867.64
1868.92
1864.44
1863.32
1863.27
1862.86
1862.5
1860.05
1860.18
1860.31
1860.46
1860.62
1860.78
1860.95
1861.13
1861.32
1861.52
1861.73
1861.95
1862.18
1862.43
1862.7
1863
1863.34
1863.73
1864.15
1864.6
1865.05
1865.56
1866.1
1866.71
1867.4
1868.13
1868.93
1869.56
1866.14
1860.06
1865.68
1869.44
1869.32
1868.86
1868.37
1867.67
1866.5
1865.22
1863.25
1861.87
1859.74
1859.87
1860
1860.14
1860.29
1860.44
1860.6
1860.77
1860.95
1861.12
1861.31
1861.5
1861.7
1861.91
1862.14
1862.4
1862.72
1863.13
1863.59
1864.08
1864.56
1865.06
1865.6
1866.19
1866.78
1867.38
1867.95
1868.4
1868.66
1868.83
1868.89
1868.42
1868.67
1868.97
1868.87
1868.76
1868.66
1868.51
1868.28
1866.01
1859.4
1859.53
1859.66
1859.8
1859.94
1860.09
1860.24
1860.4
1860.55
1860.71
1860.86
1861.01
1861.16
1861.31
1861.42
1861.56
1861.84
1862.29
1862.83
1863.38
1863.9
1864.41
1864.92
1865.44
1865.96
1866.46
1866.93
1867.33
1867.65
1867.22
1866.82
1867.02
1867.25
1868.14
1868.11
1868.05
1867.94
1867.7
1867.35
1866.77
1859.03
1859.16
1859.29
1859.43
1859.58
1859.72
1859.87
1860.02
1860.16
1860.29
1860.42
1860.53
1860.61
1860.67
1860.62
1859.19
1857.22
1858.72
1861.89
1862.57
1863.12
1863.61
1864.09
1864.54
1864.99
1865.4
1865.79
1866.14
1866.42
1866.54
1866.22
1866.33
1867
1867.05
1867.07
1867.07
1866.99
1866.76
1866.28
1865.77
1858.62
1858.76
1858.9
1859.05
1859.2
1859.35
1859.5
1859.65
1859.79
1859.93
1860.06
1860.17
1860.27
1860.36
1859.94
1846.42
1835.01
1839.47
1861.55
1862.09
1862.5
1862.88
1863.25
1863.62
1863.98
1864.31
1864.62
1864.93
1865.18
1865.38
1865.53
1865.64
1865.7
1865.74
1865.81
1865.87
1865.85
1865.69
1865.37
1864.77
1858.17
1858.32
1858.48
1858.64
1858.8
1858.96
1859.12
1859.28
1859.44
1859.58
1859.73
1859.85
1859.93
1857.53
1835.7
1829.75
1830.69
1831.19
1853.31
1861.88
1862.05
1862.24
1862.47
1862.72
1862.98
1863.23
1863.47
1863.71
1863.94
1864.11
1864.22
1864.21
1863.78
1862.86
1863.28
1864.48
1864.57
1864.47
1864.19
1863.75
1857.67
1857.83
1858
1858.18
1858.36
1858.54
1858.72
1858.9
1859.08
1859.26
1859.43
1859.54
1856.18
1829.98
1826.61
1827.26
1827.85
1836.72
1861.65
1861.57
1861.53
1861.56
1861.66
1861.8
1861.98
1862.14
1862.23
1862.39
1862.74
1862.92
1863.04
1862.69
1856.35
1851.28
1852.53
1858.79
1862.68
1863.19
1862.93
1862.54
1857.09
1857.28
1857.47
1857.67
1857.87
1858.08
1858.29
1858.51
1858.73
1858.96
1859.2
1858.75
1835.32
1823.49
1824.07
1824.63
1832.05
1861.49
1861.46
1861.15
1860.94
1860.81
1860.77
1860.84
1860.97
1861.12
1860.67
1860.39
1861.23
1861.87
1862.04
1860.91
1849.09
1848.9
1848.76
1848.43
1851.98
1858.81
1861.58
1861.33
1856.41
1856.62
1856.84
1857.07
1857.3
1857.54
1857.79
1858.04
1858.3
1858.59
1858.82
1847.4
1820.25
1820.94
1821.57
1826.59
1859.32
1861.26
1860.88
1860.49
1860.13
1859.82
1859.67
1859.72
1859.87
1860.02
1859.43
1859.12
1859.27
1860.71
1860.9
1860.54
1852.95
1846.92
1846.82
1846.63
1846.4
1846.71
1856.68
1860.38
1855.61
1855.84
1856.09
1856.34
1856.62
1856.9
1857.19
1857.46
1857.67
1857.16
1841.33
1817.27
1817.97
1818.57
1822.7
1857.09
1860.98
1860.66
1860.25
1859.7
1858.93
1858.37
1857.86
1858.3
1858.7
1858.92
1858.98
1858.32
1857.81
1859.34
1859.56
1859.79
1859.85
1854.53
1848.6
1844.96
1844.46
1844.13
1845.41
1859.67
1854.63
1854.9
1855.18
1855.47
1855.79
1856.13
1856.48
1856.79
1854.93
1824.8
1815.08
1815.5
1815.91
1820.18
1856.55
1860.68
1860.45
1860.16
1859.8
1859.24
1856.04
1836.44
1821.24
1833.8
1854.99
1857.99
1857.86
1856.77
1856.25
1857.79
1858.07
1858.3
1858.49
1858.73
1858.94
1857.14
1849.29
1842.84
1842.9
1858.38
1853.46
1853.76
1854.08
1854.44
1854.84
1855.28
1855.8
1856.35
1849.28
1812.8
1813.07
1813.37
1817.43
1856.36
1860.11
1860.04
1859.98
1859.93
1859.88
1859.7
1849.49
1796.46
1795.77
1794.37
1804.89
1820.39
1824.5
1825.14
1828.86
1840.98
1850.77
1855.56
1856.87
1857.14
1857.28
1857.32
1857.14
1854.42
1852.05
1856.62
1852.04
1852.34
1852.69
1853.09
1853.53
1854.02
1854.59
1855.28
1856.03
1847.39
1815.63
1815.04
1852.8
1858.49
1858.78
1859.02
1859.26
1859.51
1859.81
1860.1
1849.15
1797.08
1793.12
1792.31
1791.6
1790.81
1790.26
1789.87
1789.41
1788.84
1797.9
1814.85
1836.72
1849.85
1855.5
1855.94
1855.98
1855.88
1855.63
1852.65
1850.31
1850.64
1851.01
1851.41
1851.86
1852.37
1852.92
1853.55
1854.23
1854.88
1855.38
1855.79
1855.97
1856.83
1857.36
1857.83
1858.28
1858.74
1859.27
1859.88
1860.53
1850.45
1805.14
1789.64
1789.41
1789.19
1788.83
1788.27
1787.58
1787.02
1786.45
1785.67
1785.04
1798
1820.52
1842.65
1854.89
1854.99
1854.8
1849.95
1848.24
1848.62
1849
1849.42
1849.89
1850.41
1850.96
1851.56
1852.19
1852.81
1853.39
1853.98
1854.61
1855.23
1855.84
1856.43
1857.02
1857.62
1858.25
1858.93
1859.7
1860.57
1861.31
1838.76
1806.21
1794.58
1801.21
1798.27
1785.33
1784.94
1784.52
1783.99
1783.29
1782.93
1782.62
1789.66
1833.45
1854.55
1854.53
1849.09
1845.91
1846.26
1846.66
1847.12
1847.61
1848.15
1848.74
1849.36
1850.01
1850.68
1851.35
1852.03
1852.72
1853.42
1854.11
1854.79
1855.47
1856.15
1856.83
1857.51
1857.83
1858.1
1859.21
1860.14
1860.48
1860.9
1861.71
1862.09
1842.58
1813.62
1801.87
1810.2
1818.44
1790.78
1779.75
1779.18
1783.05
1852.84
1854.54
1848.9
1843.15
1843.54
1843.99
1844.48
1845.01
1845.58
1846.21
1846.87
1847.58
1848.31
1849.06
1849.82
1850.59
1851.37
1852.15
1852.92
1853.69
1854.45
1855.2
1855.92
1855.78
1855.75
1856.31
1858.15
1858.84
1859.24
1859.62
1859.83
1859.75
1859.39
1859.15
1859.33
1859.32
1855.72
1803.64
1776.78
1775.42
1827.47
1853.37
1848.55
1836.82
1836.49
1840.49
1841.51
1842.07
1842.69
1843.37
1844.09
1844.86
1845.67
1846.5
1847.36
1848.22
1849.1
1849.97
1850.84
1851.7
1852.54
1853.36
1854.16
1854.68
1854.18
1854.68
1856.09
1857.3
1857.72
1858.05
1857.62
1854.9
1853.79
1855.65
1857.23
1857.96
1857.69
1856.72
1792.91
1773.31
1780.07
1849.97
1850.22
1826.13
1826.63
1835.22
1838.21
1838.79
1839.45
1840.18
1840.98
1841.83
1842.72
1843.66
1844.62
1845.59
1846.57
1847.56
1848.53
1849.49
1850.43
1851.33
1852.2
1853.02
1853.78
1854.15
1855.1
1855.67
1856.15
1856.55
1856.23
1848.37
1846.48
1846.47
1848.24
1856.37
1856.8
1856.63
1850.74
1771.19
1771.44
1842.92
1850.35
1821.79
1824.67
1833.93
1834.44
1835.07
1835.79
1836.6
1837.48
1838.43
1839.44
1840.49
1841.57
1842.67
1843.78
1844.89
1845.99
1847.08
1848.13
1849.14
1850.1
1851.02
1851.86
1852.64
1853.35
1853.98
1854.53
1855.01
1855.39
1853.05
1845.87
1845.13
1845.98
1855.32
1855.85
1855.77
1855.71
1795.93
1769.14
1830.99
1850.87
1818.54
1829.28
1829.63
1830.18
1830.87
1831.66
1832.56
1833.55
1834.62
1835.76
1836.94
1838.17
1839.42
1840.69
1841.95
1843.21
1844.43
1845.62
1846.77
1847.86
1848.89
1849.84
1850.72
1851.52
1852.23
1852.85
1853.38
1853.82
1854.16
1854.32
1850.09
1852.83
1854.29
1854.12
1853.76
1853.27
1848.37
1765.6
1806.83
1852.22
1820.8
1824.21
1824.69
1825.33
1826.09
1826.99
1828
1829.12
1830.33
1831.62
1832.97
1834.37
1835.8
1837.25
1838.7
1840.13
1841.53
1842.9
1844.2
1845.45
1846.62
1847.71
1848.72
1849.63
1850.45
1851.17
1851.78
1852.29
1852.68
1852.96
1853.14
1853.18
1853.1
1852.85
1852.38
1851.68
1850.47
1761.72
1788.48
1852.04
1818.24
1818.63
1819.18
1819.87
1820.72
1821.72
1822.86
1824.12
1825.49
1826.96
1828.5
1830.1
1831.75
1833.41
1835.07
1836.72
1838.34
1839.91
1841.42
1842.85
1844.2
1845.46
1846.63
1847.69
1848.64
1849.48
1850.21
1850.83
1851.33
1851.72
1852
1852.17
1852.24
1852.2
1852.01
1851.79
1851.08
1793.24
1785.92
1848.91
1812.15
1812.51
1813.06
1813.8
1814.73
1815.82
1817.09
1818.5
1820.05
1821.72
1823.48
1825.32
1827.21
1829.12
1831.04
1832.95
1834.82
1836.63
1838.38
1840.04
1841.61
1843.08
1844.44
1845.68
1846.8
1847.79
1848.67
1849.42
1850.05
1850.55
1850.95
1851.23
1851.4
1851.47
1851.42
1851.34
1851.15
1848.6
1785.14
1847.07
1805.43
1805.76
1806.31
1807.08
1808.07
1809.26
1810.65
1812.23
1813.97
1815.85
1817.86
1819.97
1822.14
1824.35
1826.57
1828.78
1830.95
1833.06
1835.09
1837.02
1838.85
1840.56
1842.14
1843.6
1844.92
1846.1
1847.15
1848.05
1848.83
1849.47
1849.98
1850.36
1850.63
1850.76
1850.78
1850.67
1850.36
1846.34
1783.34
1843.84
1798.2
1798.45
1798.96
1799.73
1800.76
1802.03
1803.54
1805.28
1807.21
1809.34
1811.61
1814.02
1816.51
1819.06
1821.63
1824.19
1826.71
1829.16
1831.52
1833.77
1835.9
1837.9
1839.75
1841.46
1843.01
1844.41
1845.66
1846.75
1847.69
1848.49
1849.14
1849.64
1850.02
1850.25
1850.35
1850.31
1850.08
1837.29
1779.91
1841.11
1790.53
1790.65
1791.07
1791.8
1792.83
1794.15
1795.77
1797.64
1799.77
1802.13
1804.7
1807.43
1810.3
1813.24
1816.21
1819.18
1822.1
1824.94
1827.68
1830.3
1832.77
1835.1
1837.27
1839.26
1841.09
1842.74
1844.22
1845.52
1846.66
1847.62
1848.43
1849.08
1849.57
1849.92
1850.12
1850.15
1850
1835.13
1785.44
1839.19
1782.55
1782.47
1782.73
1783.35
1784.33
1785.67
1787.34
1789.33
1791.61
1794.18
1797.05
1800.16
1803.45
1806.86
1810.31
1813.74
1817.12
1820.41
1823.58
1826.61
1829.48
1832.18
1834.7
1837.03
1839.16
1841.1
1842.84
1844.38
1845.74
1846.9
1847.88
1848.68
1849.31
1849.79
1850.1
1850.24
1850.18
1842.32
1836.05
1837.74
1774.39
1774.01
1774.04
1774.51
1775.41
1776.74
1778.43
1780.45
1782.79
1785.53
1788.65
1792.16
1795.95
1799.9
1803.91
1807.9
1811.81
1815.61
1819.26
1822.75
1826.06
1829.18
1832.09
1834.79
1837.27
1839.52
1841.56
1843.37
1844.96
1846.34
1847.51
1848.48
1849.27
1849.89
1850.35
1850.64
1850.76
1849.28
1844.21
1836.93
1766.27
1765.43
1765.11
1765.33
1766.14
1767.5
1769.27
1771.19
1773.41
1776.19
1779.61
1783.64
1788.04
1792.6
1797.19
1801.77
1806.26
1810.61
1814.79
1818.78
1822.57
1826.13
1829.47
1832.57
1835.43
1838.05
1840.41
1842.52
1844.37
1845.98
1847.33
1848.45
1849.38
1850.13
1850.71
1851.07
1851.2
1849.4
1802.39
1816.74
1757.64
1755.9
1752.47
1747.04
1741.03
1735.87
1735.19
1739.59
1739.28
1742.54
1756.93
1772.11
1779.28
1785.23
1790.66
1795.8
1800.78
1805.64
1810.33
1814.82
1819.08
1823.12
1826.91
1830.45
1833.72
1836.73
1839.46
1841.9
1844.05
1845.88
1847.4
1848.64
1849.67
1850.59
1851.34
1851.78
1851.77
1848.63
1801.59
1831.64
1747.13
1673.98
1500.29
1388.07
1345.08
1323.66
1320.59
1339.71
1334.07
1336.6
1388.42
1501.44
1632.15
1733.5
1781.47
1790.05
1795.84
1801.08
1806.13
1811.03
1815.75
1820.24
1824.49
1828.49
1832.22
1835.66
1838.8
1841.63
1844.11
1846.19
1847.32
1849.05
1850.06
1851.33
1852.66
1853.58
1853.85
1850.4
1802.82
1836.88
1385.58
1092.51
1099.08
1104.35
1108.64
1111.66
1115.21
1121.75
1129.69
1135.53
1140.81
1146.02
1234.13
1349.17
1540.36
1727.94
1790.2
1796.95
1802.39
1807.58
1812.67
1817.59
1822.31
1826.79
1831
1834.93
1838.56
1841.84
1844.74
1847.24
1847.98
1835.5
1847.46
1850.56
1854.5
1856.39
1857.32
1854.37
1804.97
1839.27
1083.97
1089.43
1093.09
1094.99
1166
1362.94
1463.6
1475.62
1365.37
1270.71
1209.76
1180.22
1188.69
1201.56
1206.92
1336.31
1612.37
1782.98
1798.57
1804.48
1809.92
1815.24
1820.42
1825.41
1830.17
1834.66
1838.87
1842.75
1846.3
1849.54
1852.05
1812.4
1678.38
1699.92
1857.35
1860.48
1862.05
1860.57
1843.9
1842.68
1073.39
1076.82
1077.6
1404.7
1773.6
1776.38
1777.86
1781.34
1784.75
1736.8
1652.06
1507.72
1328.78
1213.84
1209.2
1220.04
1227.2
1493.67
1756.23
1800.93
1807.49
1813.26
1818.89
1824.4
1829.74
1834.87
1839.75
1844.38
1848.78
1853.04
1857.01
1809.76
1529.86
1528.75
1774.14
1866.42
1868.03
1866.41
1851.22
1838.52
1056.53
1097.3
1621.56
1766.46
1763.77
1765.37
1767.89
1770.93
1774.53
1778.55
1782.9
1787.8
1791.92
1604.48
1349.02
1222.67
1228.23
1237.65
1403.19
1726.28
1804.31
1811.51
1817.71
1823.75
1829.66
1835.4
1840.92
1846.18
1851.2
1856.01
1860.55
1844.52
1576.53
1523.38
1563.05
1874.22
1875.4
1871.33
1839.1
1838.22
1053.81
1558.52
1759.94
1756.63
1756.74
1758.08
1760.08
1762.78
1766.12
1770.02
1774.43
1779.37
1784.89
1790.67
1795.47
1587.4
1296.56
1238.22
1250.22
1370.43
1714.56
1809.05
1816.72
1823.45
1829.97
1836.31
1842.43
1848.24
1853.68
1858.67
1863.12
1866.65
1796.35
1523.23
1522.57
1850.56
1883.91
1879.24
1845.72
1844.57
1353.73
1755.28
1750.57
1749.47
1749.59
1750.53
1752.31
1754.92
1758.24
1762.18
1766.66
1771.64
1777.09
1782.97
1789.32
1795.77
1757.87
1439.62
1257.33
1267.58
1372.42
1722.99
1815.24
1823.42
1830.77
1837.86
1844.73
1851.34
1857.65
1863.63
1869.31
1874.67
1866.51
1558.28
1526.14
1656.66
1890.02
1888.74
1852.39
1851.71
1705.11
1746.43
1743.8
1742.75
1742.55
1743.26
1744.88
1747.35
1750.58
1754.49
1759.02
1764.1
1769.68
1775.73
1782.24
1789.23
1796.62
1803.73
1597.09
1303.73
1300.03
1400.89
1745.76
1823.38
1831.99
1839.92
1847.53
1854.84
1861.78
1868.29
1874.3
1879.78
1884.69
1830.65
1527.92
1526.48
1897.72
1897.89
1877.4
1873.75
1745.03
1740.4
1737.94
1736.47
1735.94
1736.41
1737.82
1740.11
1743.19
1747
1751.48
1756.59
1762.28
1768.5
1775.21
1782.42
1790.14
1798.45
1807.02
1697.18
1353.7
1344.89
1453.69
1776.27
1833.25
1842.44
1851.09
1859.3
1867.08
1874.42
1881.31
1887.78
1893.9
1895.4
1542.28
1531.6
1826.76
1906.93
1905.69
1869.52
1739.99
1735.74
1732.81
1730.84
1729.89
1730.01
1731.14
1733.21
1736.12
1739.81
1744.22
1749.3
1755.01
1761.32
1768.19
1775.62
1783.62
1792.24
1801.52
1811.22
1741.84
1394.03
1388.98
1532.85
1796.76
1842.33
1855.05
1864.57
1873.13
1881.06
1888.36
1894.97
1900.87
1906.1
1820.84
1536.89
1691.14
1918.8
1917.83
1880.11
1737.84
1732.85
1729
1726.22
1724.63
1724.26
1725.03
1726.84
1729.58
1733.15
1737.48
1742.5
1748.15
1754.42
1761.29
1768.78
1776.93
1785.81
1795.45
1805.94
1817.17
1761.72
1429.1
1436.84
1637.88
1830.09
1860.04
1871.41
1880.79
1889.31
1897.08
1904.06
1910.22
1915.59
1920.3
1540.42
1601.67
1905.38
1931.63
1893.98
1738.26
1731.92
1726.75
1722.77
1720.13
1719.35
1720.01
1721.59
1724.06
1727.46
1731.66
1736.56
1742.06
1748.11
1754.7
1761.9
1769.84
1778.72
1788.67
1799.64
1811.49
1823.85
1755.11
1472.32
1526.65
1793.04
1867.78
1880.46
1890.44
1899.53
1907.9
1915.57
1922.54
1928.92
1935.32
1739.58
1615.71
1853.79
1939.26
1909.27
1741.36
1733.19
1726.03
1702.15
1683.9
1687.23
1711.02
1718.23
1720.68
1723.67
1727.52
1732.14
1737.31
1742.89
1748.87
1755.34
1762.5
1770.95
1781.21
1793.22
1806.28
1819.85
1833.23
1735.27
1601.56
1763
1875.2
1890.69
1901.36
1911.05
1919.91
1927.97
1935.24
1941.77
1947.91
1941.43
1628.15
1792.44
1951.79
1928.56
1747.08
1736.99
1727.23
1718.39
1289.29
1226.17
1495.61
1694.04
1719.5
1723.23
1726.63
1730.57
1734.94
1739.42
1743.83
1747.76
1750.96
1757.43
1769.48
1785.02
1800.51
1817.51
1833.4
1848.73
1835.92
1805.84
1877.82
1902.4
1913.91
1924.23
1933.62
1942.13
1949.8
1956.68
1962.97
1969.48
1670.9
1753.32
1959.55
1956.41
1754.93
1745.42
1735.34
1725.17
1370.37
902.221
836.484
1126.8
1565.35
1710.75
1729
1733.39
1736.76
1738.44
1738.11
1685.53
1500.6
1468.57
1575.93
1719.42
1787.52
1816.31
1837.04
1855.3
1872.48
1888.64
1890.59
1911.95
1928.08
1939.03
1948.96
1958.01
1966.31
1974
1981.4
1989.8
1816.56
1764.53
1951.96
1980.44
1763.85
1756.98
1749.25
1741.29
1685.42
1048.92
774.314
764.52
834.936
1174.58
1445.04
1605.57
1693.82
1674.86
1527.83
1129.64
834.142
819.416
969.947
1475.55
1777.24
1820.49
1845.67
1866.42
1885.39
1902.72
1907.84
1918.28
1940.36
1954.84
1965.22
1974.59
1983.18
1991.23
1999.04
2007.59
1936.15
1783.24
1941.65
2005.94
1775.59
1769.68
1763.69
1757.73
1751.03
1643.91
1006.52
741.472
733.743
730.951
745.318
888.582
1041.85
982.981
803.682
750.132
759.141
765.942
775.348
1202.18
1775.9
1836.67
1861.92
1882.84
1902.08
1919.54
1922.19
1934.48
1947.38
1969.13
1981.84
1991.22
1999.86
2008.03
2015.96
2024.35
2012.83
1803.43
1940.72
2032.05
1790.59
1785.06
1779.41
1774.04
1768.6
1762.7
1694.66
1062.29
729.099
724.479
723.19
724.011
726.497
730.54
734.785
739.27
745.427
758.077
801.385
1272.05
1812.25
1862.34
1883.48
1902.73
1920.86
1937.39
1940.59
1951.07
1962.91
1979.93
1997.6
2006.74
2015.28
2023.49
2031.58
2040.12
2051.06
1838.27
1947.04
2055.93
1583.99
1800.34
1797.91
1792.44
1786.23
1780.45
1774.77
1665.09
950.384
722.087
720.879
720.997
722.22
723.908
726.599
729.475
748.481
995.139
1402.12
1815.93
1865.83
1885.18
1903.15
1920.91
1937.73
1953.13
1964.99
1965.34
1976.57
1994.22
2010.7
2019.54
2028.02
2036.42
2045
2054.42
2066.97
1889.94
1957.53
2075.04
861.57
952.457
1501.75
1807.67
1802.47
1796.66
1791.53
1786.87
1228.32
715.997
717.252
718.212
717.814
718.633
720.299
752.565
1214.75
1807.96
1844.28
1865.23
1882.64
1899.73
1916.76
1933.39
1949.13
1963.67
1976.97
1981.26
1991.64
2009.07
2019.04
2027.64
2036.15
2044.88
2054.18
2064.82
2079.32
1948.15
1960.17
2087.36
863.005
865.072
1417.13
1813.79
1812.96
1810.25
1806.29
1787.08
1161.38
708.35
709.633
711.854
711.619
712.67
716.791
1267.17
1803.49
1842.36
1859.58
1875.05
1890.8
1906.85
1922.74
1938.28
1953.1
1966.91
1979.08
1991.18
2001.81
2011.35
2020.24
2028.78
2037.39
2046.43
2056.26
2067.69
2083.23
1975.13
1966.41
2088.79
1262.44
1791.7
1824.42
1824.14
1824.23
1823.56
1819.86
1506.61
796.721
706.036
705.759
706.961
707.418
710.439
1068.5
1734
1835.86
1852.27
1864.44
1877.67
1891.44
1905.59
1919.93
1934.15
1947.93
1960.93
1972.52
1983.7
1993.93
2003.26
2012.34
2021.09
2029.94
2039.37
2049.78
2061.97
2078.27
1999.67
1964.14
2080.07
1831.44
1824.04
1810.63
1799.15
1824.65
1840.17
1548.34
837.919
706.375
704.505
704.573
702.941
705.702
913.014
1598.16
1826.05
1842.27
1851.34
1860.61
1870.84
1881.98
1893.92
1906.44
1919.18
1931.78
1943.88
1955.3
1964.75
1972.96
1982.88
1993.94
2003.12
2012.41
2022.39
2033.48
2046.43
2063.48
2013.81
1952.33
2063.87
1848.24
1658.34
1558.41
1559.39
1599.78
1827.56
1797.09
1237.25
720.797
699.187
698.299
699.755
877.371
1525.47
1820.46
1831.1
1835.26
1839.46
1845.04
1852.01
1860.37
1869.94
1880.47
1891.57
1902.91
1914.1
1924.96
1932.67
1942.27
1952.7
1964.16
1973.82
1983.8
1994.56
2006.5
2020.33
2038.08
2010.83
1929.9
2039.61
1781.57
1761.96
1810.14
1828.4
1826.11
1823.98
1719.71
1124.32
739.999
700.812
710.724
950.079
1641.76
1817.73
1818
1815.71
1814.4
1814.62
1816.59
1820.35
1825.88
1832.91
1841.26
1850.59
1860.54
1870.71
1879.16
1885.82
1898.79
1911.72
1922.12
1932.74
1943.84
1955.73
1968.78
1983.6
2002.05
1986.92
1896.3
2003.59
1861.99
1860.64
1857.01
1844.52
1774.65
1331.2
845.378
822.079
778.682
874.339
1232.77
1814.83
1811.16
1799.56
1793.06
1786.54
1781.64
1778.67
1777.58
1778.27
1781.01
1785.66
1791.72
1799.32
1807.96
1816.17
1819.69
1829.36
1840.26
1855.92
1868.22
1880.41
1893.38
1907.04
1921.57
1937.57
1956.61
1954.16
1852.45
1955.91
1875.37
1873.53
1824.77
1300.58
858.034