/*--------------------------------*- C++ -*----------------------------------*\
  =========                 |
  \\      /  F ield         | OpenFOAM: The Open Source CFD Toolbox
   \\    /   O peration     | Website:  https://openfoam.org
    \\  /    A nd           | Version:  8
     \\/     M anipulation  |
\*---------------------------------------------------------------------------*/
FoamFile
{
    version     2.0;
    format      ascii;
    class       volScalarField;
    location    "7.85";
    object      alpha.water;
}
// * * * * * * * * * * * * * * * * * * * * * * * * * * * * * * * * * * * * * //

dimensions      [0 0 0 0 0 0 0];

internalField   nonuniform List<scalar> 
9150
(
1
1
1
1
1
1
1
1
1
1
1
1
1
1
1
1
1
1
1
1
1
1
1
1
1
1
1
1
1
1
1
1
1
1
1
1
1
1
1
1
1
1
1
1
1
1
1
1
1
1
1
1
1
1
1
1
1
1
1
1
1
1
1
1
1
1
1
1
1
1
1
1
1
1
1
1
1
1
1
1
1
1
1
1
1
1
1
1
1
1
1
1
1
1
1
1
1
1
1
1
1
1
1
1
1
1
1
1
1
1
1
1
1
1
1
1
1
1
1
1
1
1
1
1
1
1
1
1
1
1
1
1
1
1
1
1
1
1
1
1
1
1
1
1
1
1
1
1
1
1
0.998264
0.998255
0.997314
0.99419
0.992817
0.998491
0.998491
0.998491
0.998491
0.998346
0.998268
0.993118
0.989329
0.989327
0.98941
0.996643
0.998491
0.998491
0.99849
0.996925
0.998268
0.998115
0.990566
0.989334
0.996153
0.998484
0.998487
0.996274
0.996275
0.99717
0.998268
0.998268
0.997617
0.998486
0.997955
0.995411
0.995411
0.995444
0.998623
0.998627
0.998218
0.994649
0.998488
0.998512
0.99606
0.995411
0.995411
0.997833
0.998627
0.998629
0.995496
0.994543
0.99817
0.998531
0.996305
0.995411
0.996208
0.998246
0.998584
0.996249
0.997465
0.994907
0.998531
0.998531
0.998531
0.998528
0.998523
0.994687
0.970886
0.963635
0.998514
0.998531
0.998531
0.998531
0.998531
0.998531
0.998527
0.983011
0.963635
0.963622
0.973229
0.979956
0.989544
0.996783
0.998531
0.99853
0.99853
0.997175
0.971973
0.963625
0.963294
0.963326
0.96339
0.972975
0.991048
0.988237
0.994427
0.998358
0.997499
0.981624
0.992287
0.974195
0.963486
0.963658
0.990171
0.985405
0.976703
0.985637
0.998379
0.998494
0.998608
0.99861
0.987571
0.985506
0.997832
0.99153
0.976443
0.976373
0.990121
0.998643
0.99861
0.998611
0.998613
0.99861
0.998553
0.992894
0.976373
0.976373
0.990162
0.998657
0.989854
0.998604
0.998619
0.998613
0.99774
0.9767
0.976563
0.98375
0.997125
0.998657
0.998628
0.998633
0.998624
0.99147
0.980052
0.979895
0.993501
0.998473
0.998656
0.998656
0.998649
0.998647
0.996688
0.989034
0.98897
0.997903
0.998654
0.998656
0.998652
0.99862
0.99865
0.998651
0.99813
0.996555
0.998653
0.998656
0.998656
0.998656
0.998652
0.99862
0.99865
0.998652
0.998655
0.998655
0.998656
0.998656
0.998656
0.998656
0.998656
0.998656
0.921444
0.993442
0.998655
0.998656
0.998656
0.998656
0.998656
0.998656
0.998656
0.998656
0.892148
0.900879
0.963797
0.995273
0.998129
0.998404
0.995778
0.99493
0.997269
0.998173
0.92128
0.934327
0.942135
0.984821
0.997853
0.998394
0.99402
0.993842
0.993848
0.996739
0.986359
0.986065
0.985864
0.99137
0.998281
0.998378
0.993924
0.993844
0.9943
0.997647
0.958011
0.972039
0.996245
0.998077
0.998159
0.996437
0.994167
0.99696
0.99745
0.997183
0.972586
0.987496
0.9964
0.997926
0.93972
0.962675
0.997161
0.99745
0.997452
0.99718
0.958254
0.986203
0.995845
0.957121
0.928912
0.929363
0.987502
0.997446
0.997461
0.997463
0.909463
0.909489
0.909618
0.910104
0.948111
0.987891
0.997424
0.997461
0.997463
0.997463
0.958069
0.933422
0.921891
0.921665
0.823471
0.871545
0.980877
0.997427
0.997462
0.997463
0.831779
0.8202
0.820273
0.831805
0.820195
0.820189
0.820484
0.834757
0.899559
0.986927
0.820271
0.820274
0.820241
0.820187
0.820162
0.820166
0.820189
0.820282
0.82049
0.820923
0.820268
0.820191
0.820187
0.820162
0.820162
0.820162
0.820166
0.824337
0.97491
0.99853
0.866526
0.820305
0.820241
0.820213
0.820162
0.820166
0.820234
0.942438
0.998531
0.998531
0.998648
0.998644
0.998489
0.983456
0.855898
0.820558
0.879136
0.998524
0.998531
0.99853
0.998648
0.998647
0.998644
0.997242
0.996451
0.997595
0.998518
0.998521
0.998526
0.998525
0.998648
0.998641
0.99863
0.998428
0.998177
0.997873
0.998512
0.998518
0.998521
0.998517
0.998644
0.993057
0.978865
0.986413
0.965345
0.953725
0.962504
0.969295
0.978773
0.980956
0.777519
0.778883
0.896892
0.967236
0.939222
0.926139
0.926139
0.926139
0.949692
0.959545
0.777229
0.790414
0.93988
0.96804
0.983291
0.971331
0.959984
0.972056
0.995517
0.99562
0.832891
0.989452
0.996336
0.996344
0.996344
0.996344
0.996344
0.996303
0.987939
0.993033
0.996097
0.996106
0.996217
0.996336
0.996345
0.996344
0.996303
0.981483
0.957656
0.960463
0.996099
0.996071
0.989305
0.989997
0.9963
0.995357
0.970462
0.957656
0.957608
0.957624
0.984705
0.96367
0.929482
0.942085
0.985271
0.971346
0.959406
0.958219
0.957656
0.957624
0.928373
0.928564
0.928564
0.944583
0.968874
0.988134
0.988677
0.991018
0.989216
0.973423
0.928182
0.942427
0.981831
0.995617
0.995642
0.995617
0.995561
0.995534
0.995534
0.982977
0.981374
0.995614
0.995658
0.995652
0.995617
0.995554
0.99548
0.995534
0.992303
0.978857
0.995368
0.995658
0.995587
0.995144
0.985721
0.969743
0.965557
0.994175
0.991102
0.97882
0.995077
0.98677
0.942586
0.816008
0.708002
0.633067
0.64387
0.82898
0.969142
0.984816
0.807142
0.706931
0.593552
0.561931
0.561928
0.561931
0.562001
0.562261
0.906443
0.99109
0.562058
0.561952
0.561932
0.561926
0.561931
0.561974
0.562286
0.571157
0.906838
0.991108
0.565464
0.562189
0.561952
0.561932
0.561974
0.562199
0.563419
0.632323
0.976545
0.99109
0.7532
0.682912
0.561979
0.561999
0.562199
0.562495
0.561631
0.560297
0.825005
0.990523
0.756603
0.766794
0.720573
0.562175
0.562449
0.562684
0.562517
0.562682
0.630782
0.857249
0.623171
0.775895
0.796365
0.808086
0.566233
0.564108
0.566125
0.811101
0.880774
0.648289
0.1873
0.186398
0.464703
0.88072
0.92905
0.747498
0.631828
0.915868
0.936988
0.805709
0.186398
0.185783
0.186191
0.303045
0.93925
0.944676
0.924991
0.876369
0.944931
0.973707
0.762274
0.194609
0.185783
0.181315
0.519233
0.948353
0.948353
0.913141
0.93385
0.985612
0.957075
0.866793
0.287816
0.175222
0.175109
0.566973
0.947308
0.951933
0.955508
0.986454
0.92521
0.743203
0.214788
0.174277
0.174256
0.174388
0.512641
0.907022
0.967423
0.986006
0.637897
0.175566
0.174277
0.174271
0.174277
0.174259
0.174388
0.446181
0.709
0.734419
0.654142
0.369057
0.225005
0.312527
0.191534
0.174388
0.17459
0.359207
0.375701
0.400907
0.354716
0.687327
0.46456
0.320783
0.389621
0.34491
0.370295
0.384037
0.387885
0.477111
0.734643
0.754735
0.712333
0.687553
0.717592
0.813561
0.881675
0.886247
0.895846
0.974787
0.99714
0.997134
0.997074
0.996741
0.995941
0.995131
0.993667
0.991303
0.988981
0.985317
0.997134
0.997074
0.990788
0.980146
0.983282
0.989973
0.990601
0.988155
0.987017
0.849964
0.996499
0.974837
0.93355
0.927454
0.947898
0.984502
0.987095
0.987017
0.954513
0.749604
0.957785
0.932027
0.92897
0.925507
0.918824
0.909194
0.967235
0.985694
0.978494
0.907528
0.939386
0.945065
0.972306
0.943511
0.788645
0.788196
0.940624
0.981807
0.979752
0.974646
0.955698
0.977145
0.976456
0.736274
0.740389
0.862293
0.95607
0.975246
0.97707
0.975553
0.977834
0.977609
0.812536
0.586903
0.841834
0.961485
0.970471
0.973757
0.974397
0.972551
0.977943
0.972101
0.58952
0.583665
0.920829
0.957098
0.963127
0.96883
0.95038
0.97104
0.978237
0.755792
0.576301
0.577614
0.748669
0.917819
0.854935
0.890742
0.945848
0.967533
0.975485
0.603889
0.575951
0.575951
0.575951
0.667413
0.623729
0.716281
0.936385
0.901258
0.834838
0.698011
0.576301
0.575951
0.608627
0.616137
0.623729
0.623729
0.769003
0.69644
0.485628
0.56715
0.798771
0.861813
0.929624
0.879957
0.635585
0.629871
0.638717
0.646375
0.485397
0.485477
0.664435
0.930762
0.932437
0.931982
0.873171
0.641797
0.646375
0.67276
0.485477
0.485397
0.485477
0.876516
0.931225
0.932437
0.901528
0.747307
0.843891
0.793468
0.493804
0.485477
0.498482
0.890178
0.926961
0.930786
0.81871
0.851789
0.851461
0.749901
0.484011
0.485788
0.761572
0.914652
0.922442
0.808644
0.810881
0.850167
0.852254
0.728833
0.478183
0.590144
0.92459
0.916831
0.772472
0.774183
0.85647
0.849968
0.776473
0.728833
0.501818
0.933147
0.935202
0.741617
0.746456
0.892318
0.890069
0.779782
0.663854
0.729208
0.879091
0.977114
0.912254
0.598181
0.821744
0.981321
0.79291
0.656421
0.658079
0.856657
0.984914
0.979259
0.626883
0.598181
0.960899
0.981352
0.657221
0.656421
0.656421
0.878458
0.985005
0.860667
0.585832
0.616251
0.968176
0.981352
0.739827
0.65642
0.657994
0.729407
0.985005
0.791368
0.585832
0.841666
0.98109
0.981352
0.845089
0.719142
0.659566
0.758514
0.985005
0.781335
0.585832
0.872366
0.98045
0.98109
0.810281
0.744028
0.718592
0.902035
0.985005
0.943028
0.864587
0.742806
0.980705
0.954873
0.664831
0.641851
0.791517
0.889498
0.969047
0.869342
0.877377
0.687321
0.981299
0.908
0.638207
0.639351
0.698876
0.879974
0.971028
0.957022
0.932777
0.686673
0.991457
0.897475
0.638257
0.748988
0.615896
0.672759
0.984522
0.962051
0.715142
0.695016
0.991952
0.926923
0.637879
0.785474
0.613461
0.613293
0.652093
0.540326
0.269642
0.674943
0.992056
0.955829
0.638576
0.786823
0.787823
0.786583
0.0258938
0.181277
0.248581
0.609954
0.992056
0.971585
0.637674
0.718854
0.664024
0.658503
0.00842871
0.00249461
0.0561948
0.629374
0.992833
0.994775
0.635417
0.295517
0.0899133
0.0114512
0.00120702
0.000104871
0.00136017
0.705807
0.996242
0.996785
0.706441
0.00358244
0.00338418
8.72844e-06
7.36437e-06
8.2483e-06
0.0131839
0.817524
0.997807
0.997938
0.816999
0.00348223
1.2208e-05
9.66511e-06
5.92852e-06
7.08876e-06
0.103011
0.885243
0.999024
0.998937
0.885523
0.102823
1.82854e-05
6.30214e-05
6.15231e-06
6.3761e-06
0.204202
0.943491
0.999518
0.999488
0.943505
0.205344
2.16075e-05
4.54759e-05
6.3761e-06
7.58815e-06
0.379007
0.982871
0.999831
0.999852
0.982388
0.377808
3.66996e-05
4.63196e-05
4.40012e-06
2.48894e-05
0.632857
0.999863
0.999929
0.999941
0.99988
0.643103
6.09668e-05
3.11931e-05
4.7856e-11
0.0708912
0.863534
0.999935
0.999995
0.999995
0.999947
0.874249
0.0771973
2.92666e-06
-1.70042e-09
0.558479
0.998938
0.999993
1
1
0.999992
0.998755
0.555926
2.52156e-09
0.317469
0.966081
1
1
1
1
1
1
0.962972
0.308927
0.994939
0.994938
0.996864
0.998612
0.998613
0.998537
0.998189
0.998228
0.998228
0.998228
0.998228
0.998227
0.998227
0.998224
0.991919
0.983632
0.993935
0.997466
0.997442
0.996505
0.995817
0.997795
0.998154
0.998156
0.998159
0.998155
0.998155
0.998158
0.998162
0.998162
0.998162
0.99816
0.99568
0.993642
0.993623
0.993613
0.993613
0.993613
0.995954
0.996382
0.994956
0.998623
0.998623
0.998619
0.998612
0.994712
0.989834
0.989835
0.991198
0.998227
0.99822
0.998174
0.998224
0.998203
0.983849
0.939944
0.939663
0.939464
0.939406
0.939382
0.944571
0.998097
0.998154
0.998154
0.998155
0.998155
0.998155
0.998158
0.998161
0.998076
0.998162
0.998162
0.998154
0.998113
0.998075
0.996603
0.99363
0.994734
0.993692
0.993692
0.998627
0.998625
0.998625
0.998625
0.997575
0.989834
0.989834
0.989834
0.989835
0.989839
0.989853
0.990251
0.996546
0.998047
0.997684
0.99769
0.997692
0.997661
0.983905
0.939399
0.939367
0.939573
0.939494
0.939343
0.939239
0.967201
0.992579
0.998155
0.998158
0.997672
0.988214
0.982386
0.989983
0.995288
0.997752
0.997687
0.997738
0.997755
0.997076
0.994201
0.998629
0.998627
0.998622
0.998628
0.998631
0.99581
0.992906
0.996051
0.997414
0.997414
0.997106
0.988823
0.988584
0.998016
0.996336
0.996123
0.996408
0.997352
0.997926
0.9979
0.997937
0.99794
0.995763
0.962066
0.938108
0.938064
0.938706
0.938884
0.939108
0.953308
0.943849
0.935651
0.935646
0.937981
0.965996
0.984476
0.995002
0.997769
0.997777
0.997777
0.998629
0.998629
0.998627
0.998624
0.998625
0.998623
0.998597
0.998091
0.997278
0.995979
0.989565
0.974386
0.981481
0.997724
0.997993
0.997993
0.997994
0.997488
0.973664
0.972372
0.992301
0.997117
0.997552
0.997377
0.991696
0.996672
0.994914
0.994598
0.994558
0.997024
0.958713
0.935655
0.935639
0.935639
0.935639
0.947377
0.98115
0.996803
0.997201
0.997777
0.998629
0.998628
0.998627
0.998626
0.998626
0.998624
0.992821
0.976193
0.974134
0.97546
0.972169
0.972169
0.97656
0.99705
0.997992
0.997994
0.997994
0.997994
0.997725
0.964241
0.958702
0.958615
0.971218
0.977703
0.992868
0.992897
0.993777
0.998357
0.998464
0.998464
0.998464
0.998464
0.975586
0.942446
0.935639
0.935692
0.978
0.998417
0.998119
0.982544
0.980174
0.998627
0.998626
0.998624
0.998624
0.99311
0.968846
0.968003
0.968003
0.968318
0.972615
0.988521
0.997471
0.997721
0.997961
0.997992
0.997994
0.997994
0.997994
0.995808
0.958666
0.958614
0.95861
0.95867
0.970079
0.964324
0.964337
0.976038
0.99735
0.998464
0.998464
0.998464
0.998464
0.987115
0.941569
0.963292
0.996995
0.998451
0.997958
0.961607
0.963625
0.969956
0.978023
0.980479
0.976076
0.9699
0.969375
0.974576
0.99077
0.998375
0.99813
0.996839
0.990134
0.979141
0.964594
0.971034
0.993523
0.997994
0.997993
0.997991
0.967989
0.958611
0.958634
0.984071
0.964448
0.964325
0.964324
0.964337
0.982075
0.998462
0.998464
0.998464
0.998464
0.997355
0.996166
0.998464
0.998463
0.998463
0.969875
0.960466
0.963622
0.963625
0.963673
0.963778
0.963861
0.977495
0.997605
0.998657
0.998643
0.998601
0.963362
0.898902
0.841251
0.803238
0.794865
0.794865
0.822817
0.901544
0.946199
0.954558
0.9706
0.972375
0.987161
0.994956
0.980154
0.964324
0.979613
0.998345
0.998461
0.998461
0.998461
0.998464
0.998464
0.998464
0.998464
0.998464
0.998464
0.995961
0.960114
0.968889
0.969971
0.968454
0.973659
0.98726
0.998653
0.998657
0.998657
0.998657
0.998657
0.96986
0.802849
0.802632
0.803903
0.800684
0.795203
0.848847
0.986307
0.997245
0.991494
0.973895
0.970814
0.99484
0.995033
0.995035
0.989298
0.986053
0.99575
0.998003
0.998023
0.997323
0.9967
0.997821
0.998464
0.998464
0.998464
0.998464
0.998463
0.981518
0.957219
0.977276
0.996157
0.995955
0.998051
0.998657
0.998657
0.998658
0.998657
0.998657
0.991234
0.940426
0.969409
0.998127
0.998127
0.998126
0.998113
0.995124
0.994304
0.998122
0.998122
0.997797
0.99752
0.998088
0.993511
0.980918
0.979331
0.979823
0.98136
0.984617
0.987418
0.98658
0.986582
0.993078
0.995558
0.998012
0.998447
0.996699
0.987688
0.957165
0.957141
0.977271
0.998657
0.998657
0.998657
0.998657
0.998658
0.998657
0.998657
0.998657
0.972959
0.829744
0.946992
0.998127
0.998127
0.998127
0.998126
0.99785
0.997173
0.998122
0.998122
0.998122
0.99812
0.998112
0.998088
0.998051
0.997059
0.966417
0.908583
0.916522
0.984402
0.995289
0.992521
0.988527
0.991214
0.998291
0.997734
0.967428
0.957168
0.957131
0.957136
0.975107
0.998657
0.998657
0.998657
0.998635
0.998657
0.998657
0.998657
0.998536
0.864696
0.718235
0.778393
0.992869
0.998127
0.998127
0.998127
0.998128
0.997886
0.997874
0.998095
0.99812
0.997888
0.997328
0.997373
0.997951
0.993146
0.880233
0.83437
0.838366
0.982479
0.997359
0.997719
0.998232
0.998281
0.998291
0.998281
0.995655
0.9749
0.966871
0.965698
0.992704
0.998657
0.998653
0.998643
0.998657
0.998657
0.998595
0.989682
0.862916
0.717991
0.717907
0.718235
0.796263
0.998127
0.998127
0.998127
0.998127
0.998131
0.998135
0.998131
0.994678
0.968867
0.961419
0.993053
0.997401
0.994189
0.89145
0.83437
0.834379
0.834389
0.91965
0.964138
0.953857
0.993091
0.997152
0.99825
0.997224
0.99646
0.99616
0.995982
0.995982
0.998621
0.998622
0.998657
0.998657
0.998657
0.995125
0.824556
0.717933
0.717907
0.717907
0.717907
0.789686
0.998127
0.998127
0.998127
0.998127
0.998127
0.998127
0.998074
0.980233
0.88997
0.885121
0.947253
0.989004
0.992202
0.991518
0.970678
0.855285
0.835341
0.834476
0.834476
0.834476
0.863217
0.889262
0.918417
0.92858
0.911125
0.984556
0.973346
0.995716
0.99862
0.998631
0.998657
0.998657
0.998648
0.984043
0.765748
0.717928
0.717933
0.717907
0.802821
0.953929
0.998127
0.998127
0.998127
0.998127
0.998127
0.998124
0.998053
0.948844
0.885126
0.885127
0.885127
0.885615
0.973652
0.991696
0.99889
0.9989
0.998834
0.934314
0.888596
0.88244
0.822091
0.819691
0.817628
0.81632
0.816859
0.874237
0.870017
0.991908
0.99862
0.998657
0.998657
0.998657
0.998655
0.997652
0.843395
0.717938
0.820143
0.956775
0.985385
0.996772
0.995842
0.9912
0.997236
0.998127
0.998127
0.998127
0.998123
0.991564
0.902832
0.885126
0.885167
0.88617
0.88814
0.945699
0.9989
0.9989
0.9989
0.9989
0.9989
0.998757
0.990326
0.984044
0.97211
0.944422
0.841697
0.868726
0.838897
0.794904
0.998656
0.998657
0.997723
0.995372
0.998633
0.998614
0.966509
0.794164
0.857225
0.996538
0.996772
0.996784
0.996575
0.99076
0.990971
0.99573
0.997983
0.998124
0.998122
0.984684
0.93524
0.885167
0.936403
0.95259
0.949412
0.971106
0.998457
0.9989
0.9989
0.9989
0.991858
0.992069
0.998226
0.998231
0.998231
0.998231
0.998231
0.981021
0.945441
0.722548
0.998656
0.998656
0.996408
0.993393
0.996226
0.998595
0.998632
0.959789
0.868684
0.94501
0.966007
0.996781
0.996784
0.996781
0.996676
0.993773
0.995947
0.998121
0.990965
0.876832
0.872602
0.948976
0.998861
0.998899
0.9989
0.9989
0.9989
0.9989
0.9989
0.9989
0.986617
0.986059
0.992523
0.99823
0.998231
0.998231
0.998231
0.992351
0.903859
0.722009
0.99831
0.998641
0.997837
0.993359
0.993597
0.997787
0.998648
0.998641
0.96279
0.886499
0.884581
0.907199
0.93393
0.9553
0.965045
0.969907
0.973511
0.925467
0.869546
0.869546
0.880481
0.98654
0.998881
0.9989
0.9989
0.9989
0.9989
0.998895
0.9989
0.9989
0.992066
0.986041
0.99048
0.998228
0.99823
0.998032
0.998223
0.998206
0.87923
0.721728
0.998246
0.994255
0.990761
0.990288
0.993875
0.997036
0.998649
0.998654
0.998592
0.938118
0.883852
0.874282
0.873579
0.872425
0.87129
0.870402
0.869777
0.869632
0.869645
0.887633
0.992513
0.99888
0.998898
0.9989
0.9989
0.9989
0.998894
0.998883
0.9989
0.9989
0.994369
0.986107
0.991923
0.998225
0.998228
0.99053
0.981834
0.998203
0.834865
0.72171
0.998233
0.998214
0.990664
0.990288
0.990288
0.994453
0.998654
0.998654
0.998655
0.997374
0.982273
0.950232
0.92301
0.904086
0.874852
0.884303
0.922258
0.955515
0.972742
0.996688
0.99873
0.998813
0.998879
0.998898
0.9989
0.9989
0.998883
0.998883
0.998898
0.9989
0.997238
0.986263
0.988171
0.998124
0.998225
0.986817
0.967143
0.989125
0.830062
0.721709
0.997179
0.998161
0.998129
0.990576
0.990293
0.990297
0.994931
0.998655
0.998656
0.998657
0.998655
0.998651
0.997711
0.99423
0.989954
0.989459
0.959515
0.954622
0.955319
0.991266
0.998609
0.995653
0.996215
0.997859
0.998793
0.9989
0.998896
0.998883
0.998892
0.998899
0.998899
0.990861
0.987296
0.994209
0.998217
0.986728
0.96716
0.977053
0.877305
0.721709
0.997179
0.997678
0.998087
0.997763
0.99088
0.990326
0.997269
0.998656
0.998657
0.998657
0.998657
0.998657
0.998651
0.998634
0.983305
0.963739
0.962454
0.983613
0.984382
0.984486
0.965468
0.898922
0.913977
0.973133
0.998694
0.998899
0.998898
0.998898
0.998898
0.998899
0.998898
0.998848
0.98731
0.990196
0.998145
0.998043
0.981827
0.976808
0.965907
0.721709
0.997441
0.996146
0.997983
0.997958
0.997943
0.997884
0.998656
0.998657
0.998657
0.998657
0.998657
0.998657
0.991005
0.970968
0.970913
0.982664
0.99159
0.983403
0.980103
0.906488
0.883341
0.883341
0.883341
0.923738
0.997682
0.99889
0.9989
0.998898
0.998899
0.998898
0.998899
0.998898
0.998896
0.982437
0.994547
0.998044
0.996591
0.99308
0.994492
0.784382
0.997463
0.997463
0.991493
0.885929
0.898748
0.987167
0.99865
0.998657
0.998657
0.998657
0.998657
0.987466
0.970656
0.970656
0.979539
0.994193
0.993621
0.908363
0.884267
0.884267
0.883804
0.883341
0.909804
0.988007
0.998863
0.998902
0.998899
0.998899
0.998899
0.998899
0.998898
0.998899
0.998587
0.976264
0.992213
0.997969
0.995372
0.995206
0.994858
0.98879
0.997463
0.955874
0.865294
0.860998
0.86097
0.860968
0.924034
0.998122
0.998657
0.998657
0.998657
0.992346
0.971021
0.98642
0.996675
0.996266
0.915438
0.886542
0.884856
0.886581
0.945568
0.998613
0.998787
0.998815
0.998869
0.998901
0.998903
0.9989
0.9989
0.998899
0.998899
0.985755
0.934969
0.969203
0.997892
0.997892
0.968431
0.905302
0.947518
0.932529
0.997463
0.880635
0.860998
0.86097
0.860961
0.860953
0.860968
0.97204
0.998634
0.998656
0.998657
0.998505
0.997454
0.997163
0.997031
0.956869
0.89724
0.896174
0.978981
0.998682
0.998735
0.998737
0.998758
0.998787
0.997193
0.997153
0.998798
0.998899
0.998899
0.998898
0.998897
0.893262
0.823654
0.859595
0.954253
0.98617
0.854653
0.748906
0.750784
0.756466
0.966121
0.974492
0.95107
0.86099
0.860955
0.860968
0.947829
0.998203
0.998654
0.998656
0.998656
0.9986
0.998566
0.939635
0.911865
0.911865
0.924786
0.995366
0.998586
0.998698
0.998722
0.998735
0.998737
0.988355
0.973709
0.991434
0.998878
0.998894
0.998898
0.997512
0.993537
0.914147
0.822167
0.813402
0.848797
0.876492
0.79274
0.748906
0.748906
0.862764
0.996614
0.998276
0.997812
0.972106
0.944249
0.973881
0.989151
0.989305
0.983255
0.98543
0.988298
0.969719
0.917499
0.912847
0.912111
0.911865
0.95402
0.984759
0.986221
0.995564
0.998698
0.998722
0.982804
0.973613
0.973678
0.987299
0.998837
0.998878
0.998879
0.997982
0.997755
0.997687
0.896334
0.81003
0.800017
0.7961
0.767335
0.748906
0.898615
0.923541
0.99853
0.998514
0.993237
0.951516
0.936726
0.943904
0.95505
0.938202
0.938061
0.93813
0.966072
0.995684
0.993961
0.986346
0.980805
0.944874
0.944979
0.945263
0.945351
0.957621
0.990018
0.986073
0.973613
0.973613
0.973613
0.990748
0.99848
0.998837
0.962728
0.968284
0.983857
0.964726
0.840567
0.808302
0.804623
0.806115
0.912641
0.880354
0.921425
0.912545
0.997906
0.955655
0.93656
0.93656
0.93656
0.959952
0.994736
0.996237
0.996869
0.996824
0.996785
0.996411
0.983024
0.966077
0.954553
0.949226
0.945263
0.945351
0.945533
0.945705
0.952509
0.976633
0.973799
0.973613
0.976313
0.997483
0.998205
0.993484
0.821344
0.831406
0.981299
0.920849
0.81665
0.811832
0.811546
0.87366
0.966286
0.928495
0.770347
0.767682
0.998517
0.992463
0.977968
0.976189
0.985975
0.995218
0.996779
0.996513
0.99259
0.986802
0.97314
0.969377
0.980597
0.987901
0.988454
0.98913
0.978868
0.957845
0.945705
0.946353
0.980575
0.99865
0.979941
0.97363
0.993068
0.99856
0.998453
0.747887
0.823619
0.979489
0.980641
0.965482
0.872289
0.828037
0.905717
0.96724
0.967081
0.912614
0.662499
0.873744
0.998329
0.998273
0.99825
0.99825
0.997193
0.994339
0.983054
0.958572
0.938369
0.934981
0.935264
0.935537
0.957105
0.972426
0.982465
0.993309
0.996815
0.996781
0.97619
0.991208
0.998652
0.998652
0.993755
0.99163
0.998652
0.9986
0.963189
0.544114
0.764868
0.97888
0.979489
0.97888
0.976317
0.969484
0.969145
0.968237
0.96789
0.908833
0.663055
0.993673
0.982845
0.990389
0.994917
0.992742
0.986831
0.97922
0.959844
0.943549
0.934288
0.934486
0.934967
0.936256
0.940332
0.938192
0.938304
0.945012
0.973867
0.995754
0.998649
0.998652
0.998652
0.998652
0.998652
0.998652
0.998652
0.998652
0.925455
0.441098
0.403073
0.644473
0.622608
0.786834
0.967766
0.969145
0.96859
0.968513
0.968237
0.955963
0.927296
0.993673
0.93503
0.845737
0.790822
0.837872
0.897877
0.922826
0.92386
0.934437
0.931977
0.943379
0.948509
0.984962
0.9892
0.982955
0.941368
0.939374
0.939454
0.966494
0.998629
0.998651
0.998652
0.998652
0.998652
0.998652
0.998652
0.998649
0.959225
0.488739
0.3585
0.35799
0.357605
0.35801
0.455509
0.61846
0.754835
0.886087
0.916362
0.747742
0.971595
0.993673
0.995615
0.966812
0.75172
0.702554
0.701038
0.69933
0.700158
0.752213
0.88921
0.947204
0.988167
0.9892
0.989526
0.989672
0.989542
0.956835
0.939383
0.966223
0.998606
0.998651
0.998652
0.998652
0.998652
0.998652
0.998652
0.99865
0.997171
0.701639
0.35799
0.357483
0.357454
0.357464
0.357569
0.357891
0.35924
0.395057
0.576077
0.676125
0.974714
0.993671
0.995733
0.99575
0.995743
0.909378
0.702156
0.699148
0.699299
0.699862
0.699843
0.699841
0.852966
0.987233
0.96867
0.971782
0.989477
0.99221
0.986744
0.994032
0.998652
0.998652
0.998652
0.998623
0.998519
0.998652
0.998652
0.998651
0.996615
0.9647
0.487078
0.357464
0.357464
0.357459
0.357464
0.357569
0.357891
0.438705
0.710251
0.9111
0.992163
0.99153
0.992873
0.995743
0.995757
0.995752
0.858335
0.700198
0.699988
0.69986
0.699841
0.699839
0.699838
0.855969
0.92389
0.939881
0.984765
0.998609
0.998649
0.998652
0.998652
0.998652
0.998652
0.998206
0.998194
0.998651
0.998651
0.996612
0.98883
0.987772
0.904827
0.500442
0.392931
0.369244
0.369526
0.439874
0.626226
0.870681
0.983269
0.993781
0.992181
0.987973
0.981228
0.995686
0.995748
0.995754
0.899535
0.699132
0.699737
0.699759
0.699841
0.699838
0.699839
0.774771
0.930087
0.989254
0.998598
0.998648
0.998651
0.998651
0.998652
0.998652
0.998652
0.998497
0.998194
0.998625
0.998638
0.993207
0.96385
0.984348
0.98596
0.940895
0.887651
0.868489
0.870226
0.919476
0.96653
0.975644
0.975745
0.993865
0.99414
0.990997
0.991685
0.99508
0.995241
0.995748
0.995603
0.850941
0.701208
0.700029
0.701493
0.909286
0.988599
0.968524
0.917122
0.972551
0.998584
0.998647
0.99865
0.998651
0.992977
0.995017
0.998634
0.998648
0.998265
0.998651
0.998649
0.978958
0.948555
0.977043
0.986266
0.986675
0.986633
0.985659
0.982449
0.978822
0.928011
0.91134
0.99414
0.99414
0.99414
0.993306
0.99321
0.995169
0.989105
0.992453
0.992568
0.990038
0.987544
0.988459
0.989484
0.989531
0.989497
0.956895
0.917291
0.985032
0.998615
0.998649
0.99865
0.99865
0.980931
0.976746
0.99508
0.998651
0.998651
0.998651
0.998651
0.982108
0.952259
0.884519
0.94955
0.986639
0.986675
0.986633
0.927793
0.834213
0.804423
0.806156
0.901917
0.99414
0.981485
0.954903
0.990485
0.995423
0.995361
0.98017
0.919647
0.88575
0.881667
0.913141
0.961164
0.985138
0.961745
0.716447
0.703404
0.917026
0.969118
0.935051
0.909945
0.977373
0.975442
0.97671
0.992138
0.998651
0.998651
0.998651
0.998286
0.982168
0.933788
0.797433
0.801745
0.912582
0.892521
0.8249
0.802877
0.803904
0.80443
0.80443
0.926049
0.984274
0.967538
0.954903
0.978882
0.995423
0.99359
0.885058
0.669856
0.669836
0.669838
0.66984
0.7106
0.672568
0.669668
0.665974
0.665989
0.67348
0.682206
0.669925
0.667256
0.682141
0.897441
0.985626
0.992643
0.998651
0.998651
0.998651
0.991822
0.964547
0.814216
0.797234
0.797274
0.797496
0.799025
0.801375
0.802377
0.819729
0.932099
0.965844
0.981913
0.983198
0.981649
0.982144
0.978962
0.994481
0.992437
0.822397
0.669987
0.669839
0.669842
0.669842
0.669048
0.667114
0.665974
0.665977
0.665977
0.665989
0.666297
0.666906
0.66724
0.67831
0.938445
0.985695
0.988593
0.998647
0.998651
0.997888
0.988434
0.858458
0.797234
0.79723
0.797234
0.797274
0.797492
0.854896
0.945536
0.983084
0.995623
0.977032
0.950419
0.947313
0.947165
0.975512
0.979255
0.987176
0.99202
0.975502
0.753102
0.669977
0.66984
0.669842
0.669958
0.69943
0.884229
0.886757
0.78137
0.764021
0.761149
0.716053
0.763153
0.91752
0.968182
0.972747
0.991385
0.997916
0.992905
0.99761
0.990593
0.839546
0.797232
0.797234
0.797232
0.803829
0.931345
0.993149
0.998
0.998023
0.995631
0.995198
0.997324
0.974783
0.945404
0.945404
0.987169
0.990172
0.991079
0.991075
0.990647
0.892553
0.684647
0.670134
0.767933
0.996855
0.997
0.997032
0.996355
0.99539
0.991138
0.9766
0.974536
0.964537
0.970896
0.98846
0.990757
0.972158
0.983139
0.99749
0.997723
0.937886
0.797238
0.797232
0.870413
0.973256
0.997926
0.998019
0.998026
0.998027
0.998024
0.998021
0.998
0.997974
0.957905
0.946298
0.991108
0.991108
0.991096
0.988951
0.98923
0.988347
0.986499
0.806311
0.757745
0.881963
0.99703
0.998431
0.998431
0.998431
0.998416
0.996214
0.976708
0.972948
0.995866
0.995916
0.986438
0.970894
0.971059
0.99718
0.99789
0.995305
0.957736
0.934425
0.992648
0.99798
0.998023
0.998027
0.998027
0.998028
0.997711
0.995778
0.997585
0.997956
0.995624
0.984531
0.991108
0.991096
0.988653
0.964574
0.97347
0.987838
0.986581
0.925982
0.757745
0.760715
0.89313
0.99843
0.998431
0.998429
0.998397
0.986304
0.977412
0.995865
0.995945
0.995936
0.995405
0.974672
0.971077
0.985145
0.997895
0.99793
0.997911
0.997939
0.998012
0.998025
0.998027
0.998027
0.998028
0.998027
0.979077
0.933951
0.97049
0.997838
0.993307
0.981587
0.990764
0.990731
0.988832
0.963385
0.945535
0.959252
0.982963
0.960433
0.806354
0.769764
0.820744
0.991499
0.998429
0.998422
0.998363
0.996536
0.996512
0.994798
0.981876
0.981863
0.984078
0.995596
0.984386
0.986774
0.99793
0.99793
0.997965
0.998012
0.998025
0.998027
0.998027
0.998027
0.998027
0.982388
0.922549
0.922384
0.939744
0.995956
0.985067
0.971959
0.895457
0.931901
0.985705
0.974502
0.944652
0.944383
0.948796
0.978457
0.978203
0.84925
0.820801
0.932347
0.998277
0.997577
0.998243
0.99822
0.991308
0.981482
0.981482
0.981645
0.994093
0.995681
0.988531
0.945977
0.988638
0.99793
0.997923
0.997588
0.968182
0.97372
0.996815
0.996553
0.940048
0.922346
0.922346
0.922346
0.982015
0.997855
0.982696
0.971959
0.645781
0.642516
0.83217
0.955176
0.970992
0.945132
0.944743
0.952821
0.982553
0.983082
0.982767
0.921419
0.899682
0.899521
0.899555
0.919002
0.991954
0.988392
0.9918
0.995774
0.995784
0.995774
0.989145
0.940629
0.940619
0.943638
0.946681
0.930108
0.926453
0.926291
0.926714
0.922454
0.922381
0.922408
0.953428
0.997438
0.997889
0.997864
0.974655
0.976439
0.642516
0.642516
0.642516
0.716215
0.976855
0.977956
0.945549
0.942624
0.945489
0.983741
0.983774
0.983741
0.983723
0.982459
0.929834
0.915576
0.953056
0.985935
0.992655
0.995656
0.993723
0.991807
0.990799
0.985118
0.958617
0.962567
0.951368
0.936936
0.926347
0.926453
0.93231
0.959006
0.972044
0.99452
0.997881
0.997889
0.997889
0.994353
0.965637
0.994567
0.749117
0.642516
0.644796
0.647075
0.832962
0.977931
0.977954
0.956929
0.934823
0.934637
0.981474
0.983772
0.983703
0.983635
0.983603
0.983056
0.970882
0.99106
0.994984
0.996131
0.996131
0.996131
0.994342
0.992735
0.992619
0.992398
0.991719
0.990693
0.985411
0.984464
0.987189
0.987321
0.987278
0.955899
0.884912
0.975332
0.997889
0.996453
0.982213
0.99578
0.986127
0.759038
0.647075
0.655458
0.812387
0.977952
0.977945
0.977933
0.9776
0.925924
0.869572
0.938276
0.983635
0.983603
0.970848
0.977285
0.982357
0.98259
0.984
0.996131
0.996131
0.996131
0.99613
0.981087
0.965425
0.954183
0.967416
0.983861
0.986585
0.986505
0.982244
0.907008
0.816922
0.815317
0.815285
0.845773
0.996736
0.996743
0.996686
0.995821
0.987281
0.988207
0.872277
0.759187
0.959625
0.977931
0.977933
0.977921
0.977835
0.93973
0.844246
0.843628
0.893742
0.91977
0.823015
0.861299
0.972858
0.985891
0.991542
0.992951
0.996125
0.99613
0.996126
0.996107
0.987322
0.936063
0.923357
0.923666
0.92498
0.88345
0.816315
0.815424
0.815297
0.815294
0.815285
0.815287
0.892385
0.977521
0.969606
0.991477
0.987544
0.988307
0.988245
0.988308
0.982019
0.957745
0.958253
0.977835
0.976697
0.876361
0.843628
0.841082
0.837443
0.82284
0.822556
0.822608
0.838075
0.944443
0.95952
0.893518
0.950428
0.98944
0.994934
0.996075