/*--------------------------------*- C++ -*----------------------------------*\
  =========                 |
  \\      /  F ield         | OpenFOAM: The Open Source CFD Toolbox
   \\    /   O peration     | Website:  https://openfoam.org
    \\  /    A nd           | Version:  8
     \\/     M anipulation  |
\*---------------------------------------------------------------------------*/
FoamFile
{
    version     2.0;
    format      ascii;
    class       volVectorField;
    location    "7.85";
    object      U;
}
// * * * * * * * * * * * * * * * * * * * * * * * * * * * * * * * * * * * * * //

dimensions      [0 1 -1 0 0 0 0];

internalField   nonuniform List<vector> 
9150
(
(0.00477245 -0.0785956 0)
(0.0131708 -0.0973222 0)
(0.0109235 -0.104631 0)
(0.00934159 -0.107575 0)
(0.00266721 -0.109344 0)
(-0.00250872 -0.109462 0)
(-0.00904312 -0.107673 0)
(-0.0108663 -0.104684 0)
(-0.0131431 -0.0973696 0)
(-0.00479072 -0.0786198 0)
(0.00581897 -0.0919611 0)
(0.00856534 -0.100496 0)
(0.00749973 -0.102273 0)
(0.00428399 -0.104998 0)
(0.00157932 -0.105681 0)
(-0.001773 -0.105621 0)
(-0.00426039 -0.104896 0)
(-0.00742285 -0.102264 0)
(-0.00854429 -0.10048 0)
(-0.00581895 -0.0919628 0)
(0.00168345 -0.0954459 0)
(0.00454146 -0.0989631 0)
(0.00374426 -0.101078 0)
(0.00340215 -0.10174 0)
(0.00115353 -0.102348 0)
(-0.000721813 -0.102442 0)
(-0.00345044 -0.101693 0)
(-0.0037551 -0.101083 0)
(-0.00454133 -0.0989578 0)
(-0.0016877 -0.0954471 0)
(0.0017055 -0.0983952 0)
(0.00243915 -0.100382 0)
(0.00219698 -0.10019 0)
(0.0012635 -0.100905 0)
(0.000293816 -0.100919 0)
(-0.000712576 -0.100854 0)
(-0.0012922 -0.100872 0)
(-0.00225356 -0.100155 0)
(-0.00243858 -0.100388 0)
(-0.00170672 -0.0983963 0)
(0.000169696 -0.0994813 0)
(0.000711528 -0.0995824 0)
(0.000480796 -0.100041 0)
(0.000702578 -0.0998746 0)
(0.000209368 -0.100104 0)
(-0.000117651 -0.100118 0)
(-0.000674281 -0.0998718 0)
(-0.000451818 -0.100089 0)
(-0.000709333 -0.0995877 0)
(-0.000168985 -0.0994808 0)
(0.0743658 -0.193937 3.26576e-26)
(0.0492853 -0.183987 0)
(0.0295714 -0.175231 0)
(0.0151803 -0.17424 0)
(0.00406698 -0.174896 0)
(-0.00486199 -0.175421 0)
(-0.0155892 -0.175519 0)
(-0.0299003 -0.175923 0)
(-0.0493631 -0.184423 0)
(-0.0745056 -0.194158 -3.24608e-26)
(0.058378 -0.146671 8.1237e-27)
(0.0486368 -0.14648 0)
(0.0285489 -0.155919 0)
(0.0209804 -0.155419 0)
(0.0053129 -0.155366 0)
(-0.00513474 -0.155582 0)
(-0.020933 -0.156088 0)
(-0.0286165 -0.156298 0)
(-0.0487942 -0.146629 0)
(-0.0583766 -0.146762 -8.39434e-27)
(0.0473892 -0.121236 3.30066e-27)
(0.0433131 -0.131121 0)
(0.0295095 -0.133416 0)
(0.0172024 -0.138047 0)
(0.00663732 -0.139829 0)
(-0.00518184 -0.140025 0)
(-0.0163241 -0.138491 0)
(-0.0289277 -0.133319 0)
(-0.0430791 -0.131047 0)
(-0.0472869 -0.121223 -3.46225e-27)
(0.0368429 -0.0992561 7.47307e-27)
(0.0393542 -0.110143 0)
(0.0231903 -0.120933 0)
(0.0177817 -0.124545 0)
(0.00530554 -0.125887 0)
(-0.0042195 -0.125528 0)
(-0.0177132 -0.12406 0)
(-0.0231015 -0.120682 0)
(-0.0393036 -0.110095 0)
(-0.0368253 -0.099189 -7.61071e-27)
(0.0239844 -0.0818258 -1.78844e-26)
(0.0276053 -0.101435 -2.14433e-26)
(0.0192853 -0.108378 -5.23432e-27)
(0.00999345 -0.114739 -4.64446e-27)
(0.00393297 -0.117138 -2.78866e-28)
(-0.00530112 -0.116957 -2.25217e-28)
(-0.0104738 -0.114292 -4.72651e-27)
(-0.0196562 -0.108465 -5.30044e-27)
(-0.0277162 -0.101429 -2.14395e-26)
(-0.0240137 -0.0818004 -1.79216e-26)
(0.0182551 -0.143062 0)
(0.0114844 -0.20576 0)
(0.0212758 -0.217709 0)
(0.0079085 -0.223647 0)
(0.00455315 -0.226423 0)
(-0.0081745 -0.225452 0)
(-0.0107447 -0.222246 0)
(-0.0216935 -0.217322 0)
(-0.0122084 -0.205597 0)
(-0.0180691 -0.143511 0)
(0.0163482 -0.167433 0)
(0.00116073 -0.199877 0)
(0.0150185 -0.209356 0)
(0.00295164 -0.213521 0)
(0.00631115 -0.215264 0)
(-0.00370872 -0.215158 0)
(-0.00156751 -0.214152 0)
(-0.0145959 -0.209305 0)
(-0.00119192 -0.199508 0)
(-0.0162777 -0.166871 0)
(0.0137862 -0.173196 0)
(-0.00489157 -0.204337 0)
(0.00994396 -0.209775 0)
(-0.00125946 -0.210844 0)
(0.00236561 -0.210786 0)
(-0.00371784 -0.209946 0)
(0.000484134 -0.209107 0)
(-0.0103949 -0.209112 0)
(0.0047867 -0.204014 0)
(-0.0139672 -0.172888 0)
(0.0190287 -0.195831 0)
(-0.00735302 -0.205019 0)
(0.00903424 -0.211142 0)
(-0.000368231 -0.206515 0)
(0.000649049 -0.206442 0)
(-0.000494314 -0.206716 0)
(0.000256413 -0.206766 0)
(-0.00920508 -0.210776 0)
(0.00736533 -0.204764 0)
(-0.019089 -0.195672 0)
(0.0370273 -0.216693 0)
(0.0107309 -0.203529 0)
(0.0155516 -0.201592 0)
(0.0118237 -0.19554 0)
(0.00186167 -0.192406 0)
(-0.00315762 -0.191874 0)
(-0.0127213 -0.19486 0)
(-0.0159144 -0.201642 0)
(-0.0108968 -0.203679 0)
(-0.0371328 -0.21675 0)
(-0.00409501 -0.00468073 0)
(-0.00390714 -0.00699276 0)
(-0.000233233 -0.00483758 0)
(-0.00153782 0.00779326 0)
(-0.00727739 0.00829844 0)
(-0.00866248 -0.000844832 0)
(-0.0058797 -0.00296793 0)
(-0.00401717 -0.00437151 0)
(-0.00212238 -0.00611853 0)
(-0.00128555 -0.00612803 0)
(-0.00668644 0.00494787 0)
(-0.0113994 -0.00149576 0)
(-0.0108312 -0.000766188 0)
(-0.00819405 0.0056125 0)
(-0.00389464 0.00608885 0)
(-0.00145205 -0.00371235 0)
(-0.00165556 -0.00470477 0)
(-0.00343941 -0.00388522 0)
(-0.0085594 0.00146457 0)
(-0.015195 0.00702998 0)
(-0.00687302 0.0247662 0)
(-0.0132774 -0.0005524 0)
(-0.0137057 -0.00663195 0)
(-0.0119222 -0.00656779 0)
(-0.00984995 -0.00433036 0)
(-0.00969129 -0.00496828 0)
(-0.01241 3.12376e-05 0)
(-0.0180923 0.0101235 0)
(-0.0221911 0.0161221 0)
(-0.0266154 0.0170243 0)
(-0.00457075 0.0378613 0)
(-0.0132748 0.0112084 0)
(-0.0159256 -0.0017024 0)
(-0.0168936 -0.00300616 0)
(-0.0182321 -0.0011739 0)
(-0.020164 0.00285697 0)
(-0.0243239 0.0120258 0)
(-0.0264278 0.0157027 0)
(-0.0282784 0.0195887 0)
(-0.0326843 0.0301035 0)
(-0.00590292 0.0495341 0)
(-0.0183863 0.0231345 0)
(-0.0189184 0.00313034 0)
(-0.0218788 0.000104009 0)
(-0.0227599 0.00148809 0)
(-0.0240336 0.0076305 0)
(-0.0252128 0.0147255 0)
(-0.0262625 0.0184489 0)
(-0.0296417 0.0281991 0)
(-0.0400624 0.0489072 0)
(-0.0196978 0.059547 0)
(-0.0250572 0.0291301 0)
(-0.0235734 0.00767764 0)
(-0.0263157 0.00281152 0)
(-0.0263904 0.00212485 0)
(-0.0266881 0.00744307 0)
(-0.0259935 0.0165618 0)
(-0.0257048 0.0240632 0)
(-0.0313753 0.0476589 0)
(-0.0410959 0.0670608 0)
(-0.0232931 0.0645764 0)
(-0.0236364 0.028692 0)
(-0.0219608 0.0109031 0)
(-0.0284643 0.00521958 0)
(-0.0300858 0.00379784 0)
(-0.0317351 0.00737739 0)
(-0.0303543 0.016218 0)
(-0.0297162 0.027021 0)
(-0.0293044 0.0534574 0)
(-0.0278763 0.0749642 0)
(-0.0203272 0.0601312 0)
(-0.0182218 0.0270939 0)
(-0.0214349 0.0187638 0)
(-0.0281361 0.017174 0)
(-0.0316012 0.00977804 0)
(-0.0333853 0.00907777 0)
(-0.0337673 0.0125883 0)
(-0.0323965 0.0240423 0)
(-0.0284848 0.0475313 0)
(-0.0219087 0.068347 0)
(-0.00361538 0.0674635 0)
(-0.00515972 0.0360174 0)
(-0.0139589 0.026324 0)
(-0.0207014 0.0242177 0)
(-0.0239438 0.0137467 0)
(-0.0296754 0.0136004 0)
(-0.0313795 0.0139277 0)
(-0.0319353 0.0190287 0)
(-0.0282209 0.0337659 0)
(-0.0222858 0.0467836 0)
(0.025008 0.0602902 0)
(0.0305704 0.0517479 0)
(0.025714 0.0468404 0)
(0.0187918 0.0435232 0)
(0.0128828 0.0296516 0)
(0.00022354 0.0235523 0)
(-0.00878871 0.0179823 0)
(-0.0155719 0.0156683 0)
(-0.0144772 0.020575 0)
(-0.0108711 0.0316657 0)
(0.0564626 0.0409779 0)
(0.0635161 0.0432473 0)
(0.0656538 0.0410323 0)
(0.0665406 0.0473435 0)
(0.0587061 0.0537338 0)
(0.046556 0.0521032 0)
(0.0304524 0.0470471 0)
(0.0163036 0.0349876 0)
(0.00960389 0.0251152 0)
(0.00492676 0.0284717 0)
(0.068479 0.022976 0)
(0.073299 0.0349721 0)
(0.0724425 0.0419021 0)
(0.0679071 0.0571654 0)
(0.0598267 0.0721043 0)
(0.0526025 0.0768997 0)
(0.0424094 0.0747024 0)
(0.0346617 0.0578802 0)
(0.0236708 0.0448465 0)
(0.0127948 0.039684 0)
(0.0667787 0.0174492 0)
(0.0632837 0.0318101 0)
(0.0608352 0.0512992 0)
(0.0545918 0.0686572 0)
(0.0462785 0.0811862 0)
(0.0405931 0.0819594 0)
(0.0331363 0.0788615 0)
(0.0275607 0.0758084 0)
(0.013926 0.0684561 0)
(0.00939955 0.0549856 0)
(0.0308436 0.0305737 0)
(0.0263276 0.0453738 0)
(0.0243259 0.061781 0)
(0.0177258 0.0841218 0)
(0.0126345 0.0982414 0)
(0.00627902 0.0987303 0)
(0.000111383 0.102518 0)
(-0.00455663 0.0955551 0)
(-0.00868317 0.0744302 0)
(-0.00774967 0.0625899 0)
(-0.0361062 0.0334576 0)
(-0.0415636 0.0582542 0)
(-0.0463811 0.0863461 0)
(-0.0482773 0.0999239 0)
(-0.0459611 0.108258 0)
(-0.0449442 0.11027 0)
(-0.0389362 0.101957 0)
(-0.0324108 0.0884501 0)
(-0.0306653 0.0749054 0)
(-0.027142 0.0647378 0)
(-0.0640697 0.0454153 0)
(-0.0744219 0.0740931 0)
(-0.0758635 0.0849561 0)
(-0.0766477 0.0899417 0)
(-0.0714916 0.0949163 0)
(-0.0613877 0.0886498 0)
(-0.0515102 0.0801981 0)
(-0.0447873 0.0755549 0)
(-0.0414702 0.0678258 0)
(-0.0361885 0.0602452 0)
(-0.069034 0.0632296 0)
(-0.0745093 0.0811642 0)
(-0.0755137 0.0853852 0)
(-0.0775343 0.0838859 0)
(-0.0720547 0.0715651 0)
(-0.0609505 0.0651523 0)
(-0.0530484 0.0648816 0)
(-0.047808 0.0644705 0)
(-0.0420752 0.0612788 0)
(-0.0377729 0.0537433 0)
(-0.0476191 0.0833595 0)
(-0.0599932 0.0878829 0)
(-0.0642452 0.0873497 0)
(-0.0668162 0.0784011 0)
(-0.0617021 0.0570003 0)
(-0.0560119 0.0501141 0)
(-0.05021 0.0489994 0)
(-0.0440172 0.0490342 0)
(-0.0385549 0.0465776 0)
(-0.0329353 0.0409481 0)
(-0.025464 0.0964994 0)
(-0.0246815 0.104128 0)
(-0.0298269 0.102491 0)
(-0.0364194 0.0898016 0)
(-0.036782 0.0591798 0)
(-0.0337989 0.0419136 0)
(-0.0338312 0.0395215 0)
(-0.0303419 0.0405003 0)
(-0.0287846 0.0417077 0)
(-0.0273954 0.040104 0)
(-0.0205708 0.0844621 0)
(-0.00554778 0.0918874 0)
(0.001571 0.106951 0)
(0.000684372 0.0994863 0)
(-0.000272151 0.0696413 0)
(-0.00548942 0.0452914 0)
(-0.010464 0.0407421 0)
(-0.0106835 0.0399505 0)
(-0.0134231 0.0398108 0)
(-0.0142929 0.0346936 0)
(-0.00353971 0.0608126 0)
(0.000124078 0.0644977 0)
(0.00996687 0.0924451 0)
(0.0201206 0.0896388 0)
(0.0240728 0.074362 0)
(0.0196169 0.0573025 0)
(0.0157748 0.0481937 0)
(0.0124595 0.0463668 0)
(0.00983295 0.0478997 0)
(0.00880251 0.0462865 0)
(0.0209685 0.0584011 0)
(0.0232822 0.051999 0)
(0.0273757 0.058138 0)
(0.0369821 0.0730687 0)
(0.0390736 0.0731987 0)
(0.034157 0.0689967 0)
(0.0271699 0.0570048 0)
(0.0242274 0.0513079 0)
(0.0252668 0.0475955 0)
(0.027556 0.0470966 0)
(0.0600086 0.0631267 0)
(0.0585102 0.0641911 0)
(0.0530379 0.0593742 0)
(0.0548901 0.0639391 0)
(0.0496414 0.0806781 0)
(0.0422579 0.0799995 0)
(0.0347326 0.0606987 0)
(0.0288738 0.0457467 0)
(0.0297471 0.0349837 0)
(0.0320761 0.0337066 0)
(0.0664613 0.0497459 0)
(0.0773738 0.061534 0)
(0.0883154 0.0682781 0)
(0.0870731 0.0768062 0)
(0.0724917 0.104313 0)
(0.0612934 0.10547 0)
(0.0531203 0.0840696 0)
(0.0460557 0.0577853 0)
(0.0443438 0.0359753 0)
(0.0448235 0.025401 0)
(0.0715694 0.0296234 0)
(0.0858325 0.0287121 0)
(0.0965257 0.0445013 0)
(0.0973894 0.0844026 0)
(0.0886522 0.118426 0)
(0.0880882 0.11698 0)
(0.0883289 0.095869 0)
(0.0872643 0.067438 0)
(0.086201 0.0451931 0)
(0.0845975 0.031971 0)
(0.0781406 -0.00426607 0)
(0.0899599 0.00499095 0)
(0.0936413 0.0391992 0)
(0.0922152 0.0963645 0)
(0.0942558 0.121319 0)
(0.0953246 0.117881 0)
(0.0960972 0.10114 0)
(0.094205 0.0667869 0)
(0.097314 0.0379917 0)
(0.102779 0.0268981 0)
(0.0336454 -0.0309206 0)
(0.0424353 0.0127125 0)
(0.0520348 0.0473126 0)
(0.0724462 0.0656179 0)
(0.0846381 0.110372 0)
(0.0852487 0.108181 0)
(0.0862863 0.0950243 0)
(0.0849597 0.0606173 0)
(0.0846068 0.0287829 0)
(0.0868927 0.0180028 0)
(-0.0266229 -0.0369985 0)
(-0.0221827 -0.0146173 0)
(-0.0089244 -0.0108127 0)
(0.000382099 0.0318427 0)
(0.0273058 0.110029 0)
(0.0405105 0.10872 0)
(0.053099 0.0950062 0)
(0.0545047 0.0644584 0)
(0.0617255 0.0384993 0)
(0.0666184 0.0154737 0)
(-0.0662648 -0.0274557 0)
(-0.0642168 -0.02037 0)
(-0.0597193 -0.0136517 0)
(-0.0476869 0.00143426 0)
(-0.0249845 0.0432701 0)
(0.00491325 0.0588241 0)
(0.026917 0.0600812 0)
(0.0442243 0.040071 0)
(0.0572293 0.0100496 0)
(0.0675366 0.000673491 0)
(-0.0994527 -0.0466007 0)
(-0.0952813 -0.0442548 0)
(-0.0968439 -0.0358773 0)
(-0.0957638 -0.0240004 0)
(-0.0843552 -0.0114635 0)
(-0.0641591 -0.00223171 0)
(-0.0392139 0.00287293 0)
(-0.0158552 -0.000351477 0)
(-0.00687167 -0.0145125 0)
(-0.0044586 -0.00195588 0)
(-0.119017 -0.0470228 0)
(-0.121095 -0.0383313 0)
(-0.130788 -0.0158145 0)
(-0.137013 -0.0105361 0)
(-0.142929 -0.019701 0)
(-0.135623 -0.0345452 0)
(-0.123218 -0.0340909 0)
(-0.114211 -0.0252981 0)
(-0.11095 -0.0124661 0)
(-0.107989 0.0074062 0)
(-0.13052 -0.0356414 0)
(-0.139722 -0.0153888 0)
(-0.142172 0.00255028 0)
(-0.140344 0.00379746 0)
(-0.137268 -0.0190843 0)
(-0.135465 -0.0432666 0)
(-0.134825 -0.0435051 0)
(-0.133043 -0.0399701 0)
(-0.127283 -0.0319605 0)
(-0.118518 -0.0126059 0)
(-0.102876 -0.018548 0)
(-0.105007 -0.0187949 0)
(-0.101498 -0.0187663 0)
(-0.0907704 -0.0183423 0)
(-0.0838899 -0.0222182 0)
(-0.0841341 -0.0329162 0)
(-0.0852707 -0.0370995 0)
(-0.0831179 -0.0393305 0)
(-0.0799897 -0.0393695 0)
(-0.0760198 -0.0323184 0)
(-0.0954314 -0.0062928 0)
(-0.103885 -0.0124719 0)
(-0.10161 -0.0244478 0)
(-0.0908808 -0.034815 0)
(-0.0827187 -0.0381336 0)
(-0.0759988 -0.0392873 0)
(-0.0673312 -0.0473519 0)
(-0.0572265 -0.0529706 0)
(-0.0453096 -0.0493079 0)
(-0.0348309 -0.0400132 0)
(-0.0832782 0.0258619 0)
(-0.101213 0.00979899 0)
(-0.102254 -0.0447303 0)
(-0.085633 -0.0641835 0)
(-0.0680014 -0.0614816 0)
(-0.0597098 -0.0514157 0)
(-0.044753 -0.0694753 0)
(-0.0328133 -0.0849629 0)
(-0.013168 -0.0773347 0)
(0.0031954 -0.0627806 0)
(-0.0918846 0.0405946 0)
(-0.0907759 0.0311358 0)
(-0.0751807 -0.0608174 0)
(-0.0682956 -0.0947054 0)
(-0.0628011 -0.101098 0)
(-0.0345253 -0.0939442 0)
(-0.00214786 -0.104741 0)
(0.0245867 -0.120557 0)
(0.0396437 -0.112607 0)
(0.0614686 -0.104931 0)
(-0.0454566 0.0137604 0)
(-0.0261935 -0.0166932 0)
(-0.0174271 -0.0637264 0)
(-0.0103648 -0.113832 0)
(-0.00408569 -0.136724 0)
(0.0179371 -0.16949 0)
(0.0335662 -0.166844 0)
(0.0534096 -0.164062 0)
(0.0744316 -0.160953 0)
(0.0928872 -0.163092 0)
(0.0163287 0.00164422 0)
(0.0330571 -0.0357629 0)
(0.0482603 -0.0682507 0)
(0.0652524 -0.115071 0)
(0.0794002 -0.157896 0)
(0.0929785 -0.18514 0)
(0.101182 -0.200231 0)
(0.10816 -0.198192 0)
(0.115123 -0.186499 0)
(0.1199 -0.179897 0)
(0.0439519 -0.0475915 0)
(0.0698581 -0.0821576 0)
(0.0950358 -0.120114 0)
(0.113546 -0.155681 0)
(0.12376 -0.189205 0)
(0.130746 -0.201693 0)
(0.13396 -0.200968 0)
(0.135792 -0.196096 0)
(0.137369 -0.182846 0)
(0.139313 -0.178057 0)
(0.065583 -0.118486 0)
(0.0898431 -0.142447 0)
(0.110835 -0.146065 0)
(0.12159 -0.164375 0)
(0.127246 -0.195109 0)
(0.131347 -0.206178 0)
(0.131232 -0.20577 0)
(0.130969 -0.200781 0)
(0.131748 -0.188105 0)
(0.135118 -0.184269 0)
(0.0662242 -0.153606 0)
(0.0740889 -0.165271 0)
(0.0802521 -0.172982 0)
(0.0819241 -0.1908 0)
(0.0781637 -0.206237 0)
(0.0748633 -0.2062 0)
(0.0703599 -0.203685 0)
(0.0701404 -0.196322 0)
(0.0752111 -0.194288 0)
(0.0814878 -0.198964 0)
(0.0250312 -0.147365 0)
(0.011603 -0.149475 0)
(0.00293868 -0.158964 0)
(-0.00792647 -0.172562 0)
(-0.0144777 -0.180753 0)
(-0.0161369 -0.190594 0)
(-0.0125511 -0.198886 0)
(-0.00466841 -0.200843 0)
(0.0046211 -0.206564 0)
(0.012371 -0.216999 0)
(-0.0547386 -0.113854 0)
(-0.0563567 -0.131225 0)
(-0.0574726 -0.152296 0)
(-0.0519406 -0.16406 0)
(-0.0505636 -0.184178 0)
(-0.0513219 -0.204153 0)
(-0.0412666 -0.220176 0)
(-0.0280493 -0.228131 0)
(-0.0159722 -0.232981 0)
(-0.0107614 -0.228192 0)
(-0.082708 -0.115718 0)
(-0.0816106 -0.149329 0)
(-0.0757564 -0.167754 0)
(-0.0698527 -0.180106 0)
(-0.0667929 -0.192861 0)
(-0.0695731 -0.214801 0)
(-0.0543585 -0.246163 0)
(-0.0469574 -0.260829 0)
(-0.0314895 -0.25198 0)
(-0.0289753 -0.235974 0)
(-0.104896 -0.126758 0)
(-0.105317 -0.155381 0)
(-0.0923771 -0.174718 0)
(-0.084563 -0.18116 0)
(-0.0786886 -0.185831 0)
(-0.0834988 -0.216144 0)
(-0.0780611 -0.261375 0)
(-0.0802323 -0.27669 0)
(-0.0674862 -0.265397 0)
(-0.0671409 -0.231854 0)
(-0.140052 -0.112405 0)
(-0.129607 -0.185185 0)
(-0.11736 -0.212617 0)
(-0.0963784 -0.204026 0)
(-0.0905032 -0.198528 0)
(-0.0856673 -0.220417 0)
(-0.0848883 -0.264507 0)
(-0.0919524 -0.283561 0)
(-0.101488 -0.27235 0)
(-0.105447 -0.219002 0)
(-0.153911 -0.115859 0)
(-0.137546 -0.217766 0)
(-0.132589 -0.237766 0)
(-0.119959 -0.23107 0)
(-0.105076 -0.215693 0)
(-0.0938537 -0.221483 0)
(-0.0963247 -0.243857 0)
(-0.116301 -0.248673 0)
(-0.145012 -0.237274 0)
(-0.150951 -0.198579 0)
(-0.157544 -0.124362 0)
(-0.1503 -0.211003 0)
(-0.160619 -0.229609 0)
(-0.166912 -0.230644 0)
(-0.163389 -0.229615 0)
(-0.165616 -0.22289 0)
(-0.178056 -0.210177 0)
(-0.203001 -0.196128 0)
(-0.210307 -0.207093 0)
(-0.196132 -0.211843 0)
(-0.282243 -0.193949 0)
(-0.291459 -0.209224 0)
(-0.29753 -0.213584 0)
(-0.305007 -0.224213 0)
(-0.311816 -0.225734 0)
(-0.313704 -0.210762 0)
(-0.305999 -0.192524 0)
(-0.297185 -0.198348 0)
(-0.280966 -0.228235 0)
(-0.251941 -0.248577 0)
(-0.400947 -0.195797 0)
(-0.399607 -0.207295 0)
(-0.393617 -0.210226 0)
(-0.38877 -0.218259 0)
(-0.381658 -0.229968 0)
(-0.367828 -0.23094 0)
(-0.346558 -0.229539 0)
(-0.326533 -0.23906 0)
(-0.306676 -0.271502 0)
(-0.281794 -0.2927 0)
(-0.440647 -0.208685 0)
(-0.428278 -0.225357 0)
(-0.417295 -0.235414 0)
(-0.406381 -0.234647 0)
(-0.395786 -0.253698 0)
(-0.382368 -0.283661 0)
(-0.355765 -0.291803 0)
(-0.332602 -0.297212 0)
(-0.30805 -0.326726 0)
(-0.294205 -0.336184 0)
(-0.345917 -0.246869 0)
(-0.378187 -0.274319 0)
(-0.376921 -0.280572 0)
(-0.365499 -0.271299 0)
(-0.36232 -0.286032 0)
(-0.35875 -0.334569 0)
(-0.329553 -0.343709 0)
(-0.308123 -0.337535 0)
(-0.299419 -0.350531 0)
(-0.296201 -0.358761 0)
(0.19171 0.285947 0)
(0.0629985 0.0686583 0)
(-0.195558 -0.258476 0)
(-0.251078 -0.250815 0)
(-0.260806 -0.2881 0)
(-0.293565 -0.336573 0)
(-0.307836 -0.356373 0)
(-0.292885 -0.364644 0)
(-0.285138 -0.364385 0)
(-0.281688 -0.377762 0)
(0.225159 0.135549 0)
(0.258345 0.274505 0)
(0.211887 0.303763 0)
(-0.0375782 0.0166219 0)
(-0.112111 -0.196666 0)
(-0.170145 -0.265589 0)
(-0.227317 -0.328006 0)
(-0.242153 -0.359178 0)
(-0.250372 -0.371118 0)
(-0.263535 -0.383196 0)
(0.0836954 -0.0353206 0)
(0.183242 0.188495 0)
(0.213679 0.388549 0)
(0.190349 0.374255 0)
(-0.0416571 -0.043446 0)
(-0.0983901 -0.193319 0)
(-0.113866 -0.250597 0)
(-0.153809 -0.306844 0)
(-0.157443 -0.332734 0)
(-0.189405 -0.343808 0)
(0.0441698 -0.0968416 0)
(0.0712474 -0.000645902 0)
(0.149006 0.238207 0)
(0.169745 0.427392 0)
(0.108824 0.352658 0)
(0.0104158 -0.0626041 0)
(-0.0470674 -0.225559 0)
(-0.0728423 -0.27643 0)
(-0.0846526 -0.302796 0)
(-0.0916405 -0.304474 0)
(-0.0144078 -0.11861 0)
(-0.00905975 -0.0185034 0)
(-0.0159327 0.277697 0)
(0.0644923 0.417817 0)
(0.0817007 0.345629 0)
(0.105336 0.139231 0)
(0.070886 -0.123388 0)
(0.0587184 -0.239107 0)
(0.0392697 -0.271751 0)
(0.0140366 -0.27223 0)
(-0.14087 -0.130479 0)
(-0.142515 0.0549738 0)
(-0.147941 0.189535 0)
(-0.0588859 0.275029 0)
(0.0365701 0.214268 0)
(0.137428 0.0289874 0)
(0.164815 -0.0607549 0)
(0.155367 -0.169713 0)
(0.111496 -0.198731 0)
(0.059419 -0.231412 0)
(-0.18654 -0.125698 0)
(-0.155417 0.0598704 0)
(-0.130249 0.0908644 0)
(-0.020253 0.0299102 0)
(0.0538107 -0.101726 0)
(0.101295 -0.139566 0)
(0.120116 -0.116521 0)
(0.134114 -0.139446 0)
(0.117126 -0.151672 0)
(0.133558 -0.175633 0)
(-0.182037 -0.151012 0)
(-0.148449 -0.0918491 0)
(-0.07312 -0.113459 0)
(-0.0141555 -0.177408 0)
(0.0565805 -0.11842 0)
(0.0743921 -0.107476 0)
(0.101066 -0.121691 0)
(0.139017 -0.213968 0)
(0.184991 -0.215052 0)
(0.221679 -0.222749 0)
(-0.00228979 -0.158057 0)
(0.0437685 -0.175874 0)
(0.0718072 -0.198702 0)
(0.0920392 -0.225757 0)
(0.108185 -0.232162 0)
(0.129619 -0.22238 0)
(0.165978 -0.231089 0)
(0.200708 -0.275063 0)
(0.221561 -0.2755 0)
(0.237427 -0.289939 0)
(0.0686653 -0.220455 0)
(0.0861374 -0.226154 0)
(0.100174 -0.23041 0)
(0.108822 -0.230661 0)
(0.122553 -0.232363 0)
(0.144379 -0.250756 0)
(0.175541 -0.279262 0)
(0.201068 -0.298768 0)
(0.222431 -0.305794 0)
(0.251611 -0.336718 0)
(0.0880612 -0.228767 0)
(0.0896034 -0.237691 0)
(0.0948776 -0.246026 0)
(0.106189 -0.256441 0)
(0.124371 -0.275505 0)
(0.14008 -0.312394 0)
(0.159029 -0.345304 0)
(0.185321 -0.355319 0)
(0.222063 -0.368289 0)
(0.253156 -0.374189 0)
(0.0907591 -0.22649 0)
(0.087886 -0.235219 0)
(0.0879826 -0.25009 0)
(0.0888534 -0.267401 0)
(0.0936605 -0.298648 0)
(0.113614 -0.345741 0)
(0.149564 -0.392534 0)
(0.192608 -0.417603 0)
(0.237141 -0.433014 0)
(0.278617 -0.442406 0)
(0.0748758 -0.209421 0)
(0.0733165 -0.230887 0)
(0.0713635 -0.257819 0)
(0.0736959 -0.277566 0)
(0.0795048 -0.317681 0)
(0.104976 -0.412438 0)
(0.151106 -0.49917 0)
(0.191423 -0.544537 0)
(0.234425 -0.546187 0)
(0.265784 -0.530969 0)
(0.0682005 -0.203278 0)
(0.0730479 -0.230304 0)
(0.0641288 -0.246867 0)
(0.0472973 -0.268714 0)
(0.0566784 -0.354706 0)
(0.103923 -0.52726 0)
(0.151251 -0.587775 0)
(0.173013 -0.59981 0)
(0.18676 -0.582107 0)
(0.185467 -0.552341 0)
(0.0745193 -0.207106 0)
(0.0758819 -0.224752 0)
(0.050625 -0.207999 0)
(0.0291198 -0.238641 0)
(0.0446331 -0.472367 0)
(0.0842249 -0.591333 0)
(0.0942818 -0.615061 0)
(0.0822078 -0.608625 0)
(0.0804809 -0.570532 0)
(0.0839904 -0.537878 0)
(0.0795494 -0.206688 0)
(0.0722919 -0.193216 0)
(0.0321596 -0.135208 0)
(0.0105391 -0.23528 0)
(0.0281698 -0.526562 0)
(0.0206057 -0.600229 0)
(0.0126827 -0.600291 0)
(0.0245006 -0.603378 0)
(0.0465517 -0.567727 0)
(0.0588149 -0.545958 0)
(0.083348 -0.195446 0)
(0.0709066 -0.150049 0)
(0.0157058 -0.0599171 0)
(0.0199555 -0.258334 0)
(0.0130225 -0.52567 0)
(-0.00105169 -0.584017 0)
(-0.0104588 -0.599623 0)
(0.00259323 -0.636092 0)
(0.0261681 -0.614819 0)
(0.0499604 -0.574073 0)
(0.0913351 -0.197935 0)
(0.0903068 -0.101981 0)
(0.0732531 -0.0346696 0)
(0.110974 -0.210893 0)
(0.0454347 -0.451747 0)
(0.0218432 -0.558421 0)
(-0.00753656 -0.600155 0)
(0.00197158 -0.680449 0)
(0.0182043 -0.680512 0)
(0.0477833 -0.608869 0)
(0.0672457 -0.222136 0)
(0.0731999 -0.0815083 0)
(0.0919832 -0.0858279 0)
(0.139297 -0.226321 0)
(0.138202 -0.373107 0)
(0.0986435 -0.485615 0)
(0.0514787 -0.570137 0)
(0.0453092 -0.696129 0)
(0.0470834 -0.734471 0)
(0.066497 -0.66574 0)
(0.0369987 -0.243667 0)
(0.0726077 -0.165329 0)
(0.134822 -0.174374 0)
(0.178909 -0.242938 0)
(0.199141 -0.345744 0)
(0.192818 -0.413323 0)
(0.174053 -0.487042 0)
(0.148548 -0.639206 0)
(0.1195 -0.733674 0)
(0.110867 -0.723233 0)
(0.101481 -0.272388 0)
(0.110978 -0.296796 0)
(0.152884 -0.312555 0)
(0.197397 -0.338851 0)
(0.213482 -0.375999 0)
(0.212643 -0.414995 0)
(0.20782 -0.457527 0)
(0.200093 -0.580114 0)
(0.189562 -0.690415 0)
(0.165145 -0.721237 0)
(0.220942 -0.208126 0)
(0.192426 -0.301926 0)
(0.185734 -0.337656 0)
(0.202685 -0.367531 0)
(0.21431 -0.390919 0)
(0.214718 -0.412191 0)
(0.211156 -0.451171 0)
(0.219148 -0.57123 0)
(0.227132 -0.67352 0)
(0.208587 -0.700055 0)
(0.23179 -0.217501 0)
(0.221328 -0.267743 0)
(0.201795 -0.326834 0)
(0.205328 -0.3756 0)
(0.20948 -0.401864 0)
(0.208544 -0.418066 0)
(0.210996 -0.457769 0)
(0.245173 -0.584629 0)
(0.248577 -0.667136 0)
(0.231772 -0.675907 0)
(0.227594 -0.221327 0)
(0.207286 -0.244292 0)
(0.197406 -0.314732 0)
(0.199397 -0.378172 0)
(0.194633 -0.400732 0)
(0.193582 -0.426756 0)
(0.215577 -0.49579 0)
(0.263302 -0.631434 0)
(0.261028 -0.659815 0)
(0.251753 -0.645288 0)
(0.211525 -0.186461 0)
(0.193838 -0.222358 0)
(0.196905 -0.31467 0)
(0.185279 -0.356976 0)
(0.173132 -0.382517 0)
(0.178022 -0.450521 0)
(0.238751 -0.617679 0)
(0.264852 -0.657225 0)
(0.258096 -0.647965 0)
(0.232067 -0.590468 0)
(0.16694 -0.130798 0)
(0.146906 -0.214636 0)
(0.159212 -0.290477 0)
(0.12841 -0.322863 0)
(0.146556 -0.388367 0)
(0.178881 -0.596517 0)
(0.234749 -0.676258 0)
(0.234979 -0.663383 0)
(0.202081 -0.604279 0)
(0.112937 -0.422573 0)
(0.0924271 -0.121519 0)
(0.112588 -0.237302 0)
(0.0868826 -0.260701 0)
(0.0772483 -0.315565 0)
(0.121754 -0.506007 0)
(0.16459 -0.695046 0)
(0.186723 -0.691252 0)
(0.172807 -0.619855 0)
(0.0517606 -0.40598 0)
(-0.027547 -0.216926 0)
(0.0871113 -0.160248 0)
(0.0928545 -0.205233 0)
(0.0695459 -0.215363 0)
(0.0540936 -0.317365 0)
(0.0943616 -0.631065 0)
(0.0634138 -0.70459 0)
(0.0691558 -0.626868 0)
(-0.00958927 -0.369471 0)
(-0.0759622 -0.233191 0)
(-0.0767054 -0.206886 0)
(0.0579533 -0.163758 0)
(0.0520587 -0.157782 0)
(-0.0152421 -0.158545 0)
(-0.00872777 -0.401437 0)
(0.0393414 -0.650673 0)
(0.0110244 -0.660378 0)
(0.0203235 -0.536178 0)
(-0.0356955 -0.252913 0)
(-0.0597803 -0.218795 0)
(-0.0708767 -0.216427 0)
(0.0337638 -0.139122 0)
(0.0444639 -0.116807 0)
(-0.00882755 -0.0947371 0)
(0.0356867 -0.445408 0)
(0.0291805 -0.635207 0)
(0.0154873 -0.635157 0)
(0.0191568 -0.526157 0)
(-0.00454368 -0.205436 0)
(-0.026866 -0.194484 0)
(-0.0403125 -0.181072 0)
(0.0301099 -0.103101 0)
(0.0195751 -0.0746536 0)
(-0.021266 -0.0669869 0)
(0.00602747 -0.5131 0)
(0.0226203 -0.639205 0)
(0.0239077 -0.629424 0)
(0.0282553 -0.526989 0)
(0.0240673 -0.160425 0)
(-0.0141209 -0.143367 0)
(-0.0387313 -0.139379 0)
(0.0230742 -0.0718718 0)
(-0.00209978 -0.0198384 0)
(-0.0112389 -0.108121 0)
(0.0201967 -0.546104 0)
(0.0332789 -0.656874 0)
(0.038117 -0.63838 0)
(0.041327 -0.5229 0)
(0.0287774 -0.106088 0)
(-0.00829148 -0.0228445 0)
(-0.0672594 -0.0645296 0)
(0.0350982 -0.0418344 0)
(0.0211292 0.0136926 0)
(0.0160336 -0.0718445 0)
(0.0243066 -0.556008 0)
(0.0295743 -0.669264 0)
(0.0323728 -0.656409 0)
(0.03323 -0.502865 0)
(0.0268887 -0.081412 0)
(0.0103701 0.0200388 0)
(0.0284372 0.055574 0)
(-0.0121966 0.00133291 0)
(-0.0122668 0.00660768 0)
(-0.0006744 -0.121936 0)
(0.0166367 -0.590926 0)
(0.0181203 -0.675354 0)
(0.00724362 -0.671016 0)
(0.0200546 -0.486207 0)
(0.00962997 -0.128372 0)
(0.0451683 0.00207434 0)
(0.0475582 0.0480392 0)
(-0.0245667 0.00520622 0)
(0.00375998 -0.0181224 0)
(-0.00400633 -0.128624 0)
(-0.0121763 -0.601917 0)
(-0.0121302 -0.673193 0)
(-0.0195796 -0.671464 0)
(0.00533667 -0.487736 0)
(0.00918981 -0.161179 0)
(0.00302499 -0.00416136 0)
(0.00350559 0.07383 0)
(-0.000822891 -0.0340541 0)
(0.0296702 -0.0342647 0)
(-0.0133404 -0.0778516 0)
(-0.02307 -0.623205 0)
(-0.0244437 -0.66307 0)
(-0.0305765 -0.665785 0)
(-0.0117933 -0.487457 0)
(-0.0242801 -0.0734469 0)
(-0.0405577 0.0171603 0)
(-0.0150706 -0.0183804 0)
(0.0480461 -0.0307255 0)
(0.0538164 -0.0111424 0)
(-0.0381563 -0.0116731 0)
(-0.0123788 -0.645432 0)
(-0.024415 -0.649487 0)
(-0.0262934 -0.648834 0)
(-0.0197244 -0.523332 0)
(-0.0430577 -0.0636594 0)
(-0.0210485 -0.0608487 0)
(-0.0119245 -0.0898247 0)
(0.297118 -0.00867927 0)
(0.179642 0.0374798 0)
(-0.0200626 0.147371 0)
(0.00969816 -0.640028 0)
(-0.01888 -0.632041 0)
(-0.0295411 -0.627343 0)
(-0.0272098 -0.605451 0)
(0.000816223 -0.0120873 0)
(-0.0226027 -0.0903558 0)
(-0.0514267 -0.0503702 0)
(-0.134999 0.421684 0)
(-0.217247 0.476685 0)
(0.00589207 0.259864 0)
(0.0163581 -0.603101 0)
(0.0002781 -0.611409 0)
(-0.00798655 -0.604306 0)
(-0.0314359 -0.629266 0)
(0.0629867 -0.0251746 0)
(0.190085 -0.0359282 0)
(0.122097 0.00234549 0)
(-0.207471 0.232465 0)
(-0.227331 0.307481 0)
(0.0504762 -0.5318 0)
(0.0385211 -0.59526 0)
(0.0218087 -0.57892 0)
(-0.0043971 -0.578729 0)
(-0.0208559 -0.603548 0)
(-0.0791339 -0.536289 0)
(0.138231 0.051193 0)
(-0.136959 -0.175753 0)
(-0.148743 0.145661 0)
(-0.0587328 0.149805 0)
(0.0625701 -0.522023 0)
(0.0285413 -0.538003 0)
(0.00385779 -0.53945 0)
(-0.00362405 -0.543375 0)
(-0.0285035 -0.542304 0)
(-0.0620314 -0.523788 0)
(0.0572585 0.141489 0)
(0.0351148 0.124096 0)
(-0.0492188 -0.0156028 0)
(0.0536871 -0.193507 0)
(0.0527444 -0.494324 0)
(0.0293973 -0.513328 0)
(0.013559 -0.511964 0)
(-0.0122586 -0.508203 0)
(-0.0281053 -0.514111 0)
(-0.0557286 -0.493174 0)
(-0.0510146 -0.194687 0)
(0.0647947 -0.0754388 0)
(0.0457919 -0.0466679 0)
(0.0541031 -0.182267 0)
(0.0580812 -0.445372 0)
(0.0286423 -0.464836 0)
(0.00598677 -0.466493 0)
(-0.00675586 -0.471058 0)
(-0.0297707 -0.46057 0)
(-0.05394 -0.451455 0)
(-0.0570874 -0.238357 0)
(-0.0294242 -0.152906 0)
(0.0499875 -0.0784091 0)
(0.0644665 -0.179365 0)
(0.0657907 -0.404562 0)
(0.0332116 -0.4226 0)
(0.0154255 -0.431166 0)
(-0.0154253 -0.432757 0)
(-0.0348254 -0.433569 0)
(-0.0655241 -0.399505 0)
(-0.0686019 -0.211094 0)
(-0.0677951 -0.147627 0)
(0.0106318 -0.100545 0)
(0.0674547 -0.250369 0)
(0.0645041 -0.353139 0)
(0.0336471 -0.384398 0)
(0.00864288 -0.380615 0)
(-0.00738561 -0.378696 0)
(-0.0334299 -0.37633 0)
(-0.0660775 -0.358244 0)
(-0.0667029 -0.25339 0)
(-0.0233355 -0.154157 0)
(0.0765164 -0.148079 0)
(0.0680635 -0.271133 0)
(0.0699329 -0.314705 0)
(0.040996 -0.324742 0)
(0.0173032 -0.32891 0)
(-0.016801 -0.330618 0)
(-0.0372677 -0.329421 0)
(-0.0669343 -0.313399 0)
(-0.0710121 -0.272526 0)
(-0.0743199 -0.141972 0)
(0.101045 -0.209086 0)
(0.0764573 -0.220094 0)
(0.0701661 -0.259072 0)
(0.0356811 -0.281466 0)
(0.00768939 -0.288935 0)
(-0.0103732 -0.290846 0)
(-0.0377406 -0.27923 0)
(-0.0707223 -0.26014 0)
(-0.0764424 -0.218924 0)
(-0.101389 -0.202544 0)
(0.0529719 -0.140547 0)
(0.0503114 -0.19067 0)
(0.0432391 -0.234697 0)
(0.0244285 -0.243547 0)
(0.0159662 -0.246685 0)
(-0.0110845 -0.245573 0)
(-0.0221888 -0.244304 0)
(-0.0448214 -0.233774 0)
(-0.0500196 -0.191157 0)
(-0.0550013 -0.137252 0)
(-0.00234048 -0.00483743 0)
(-0.00444662 -0.000945062 0)
(-0.00897537 0.00404404 0)
(-0.0204317 0.000894913 0)
(-0.0340618 0.00537132 0)
(-0.0504405 0.0188018 0)
(-0.068265 0.0112977 0)
(-0.0744761 0.00306998 0)
(-0.0799403 0.00260021 0)
(-0.0806729 -0.00217947 0)
(-0.0757326 -0.0116411 0)
(-0.0666406 -0.0155199 0)
(-0.0574693 -0.0161693 0)
(-0.0486487 -0.0160488 0)
(-0.041388 -0.00845995 0)
(-0.0389503 0.00718021 0)
(-0.041923 0.0112979 0)
(-0.0435149 0.011521 0)
(-0.0459195 0.0019929 0)
(-0.048778 -0.00920851 0)
(-0.0474801 -0.0140388 0)
(-0.0415848 -0.0148555 0)
(-0.0387375 -0.0121667 0)
(-0.0381434 -0.00180517 0)
(-0.0427056 0.00618331 0)
(-0.049601 0.0079889 0)
(-0.0556773 0.00841044 0)
(-0.0598769 0.00845266 0)
(-0.0626532 0.0053963 0)
(-0.0650851 0.000789169 0)
(-0.0673569 -0.0015102 0)
(-0.0675071 -0.00273395 0)
(-0.0624537 -0.00508761 0)
(-0.0528327 -0.00677636 0)
(-0.0419841 -0.00851972 0)
(-0.0304913 -0.0101411 0)
(-0.0184041 -0.00887889 0)
(-0.00694641 -0.0101289 0)
(0.00279304 -0.00107902 0)
(0.00113039 0.00463779 0)
(-0.0211764 0.0100469 0)