/*--------------------------------*- C++ -*----------------------------------*\
  =========                 |
  \\      /  F ield         | OpenFOAM: The Open Source CFD Toolbox
   \\    /   O peration     | Website:  https://openfoam.org
    \\  /    A nd           | Version:  8
     \\/     M anipulation  |
\*---------------------------------------------------------------------------*/
FoamFile
{
    version     2.0;
    format      ascii;
    class       volScalarField;
    location    "4.45";
    object      p_rgh;
}
// * * * * * * * * * * * * * * * * * * * * * * * * * * * * * * * * * * * * * //

dimensions      [1 -1 -2 0 0 0 0];

internalField   nonuniform List<scalar> 
9150
(
1963.1
1962.1
1961.49
1961.01
1960.77
1960.77
1960.99
1961.48
1962.1
1963.1
1962.67
1962.15
1961.73
1961.4
1961.23
1961.24
1961.41
1961.73
1962.15
1962.67
1962.4
1962.11
1961.86
1961.64
1961.52
1961.52
1961.64
1961.85
1962.11
1962.4
1962.28
1962.1
1961.93
1961.78
1961.69
1961.69
1961.77
1961.93
1962.1
1962.28
1962.28
1962.09
1961.96
1961.83
1961.77
1961.76
1961.83
1961.96
1962.09
1962.28
1951.4
1950.52
1950.74
1951.17
1951.33
1951.33
1951.15
1950.68
1950.46
1951.36
1955.39
1954.68
1954.47
1954.4
1954.5
1954.5
1954.41
1954.47
1954.67
1955.39
1958.48
1957.74
1957.42
1957.07
1957
1957
1957.04
1957.41
1957.71
1958.46
1961.2
1960.08
1959.63
1958.99
1958.82
1958.81
1958.98
1959.6
1960.05
1961.18
1963.82
1961.75
1960.99
1960.28
1960.02
1960.02
1960.29
1961
1961.76
1963.83
1947.3
1945.57
1943.45
1942.35
1941.8
1941.79
1942.3
1943.15
1944.77
1945.45
1946.2
1945.92
1944.88
1944.48
1943.97
1943.85
1944.2
1944.41
1945.26
1945.34
1945.7
1945.77
1944.69
1944.95
1944.55
1944.45
1944.95
1944.43
1945.38
1945.23
1942.41
1945.12
1944.17
1945.61
1945.39
1945.3
1945.49
1943.88
1944.91
1942.14
1935.92
1945.69
1946.09
1947.52
1947.88
1947.85
1947.52
1945.97
1945.58
1935.72
886.962
888.65
890.592
893.594
896.539
899.233
900.916
901.236
901.283
901.209
884.725
886.339
888.333
890.466
894.12
897.34
899.501
900.547
900.762
900.055
883.546
884.279
885.76
887.805
890.203
893.462
895.872
896.705
896.832
896.177
880.712
878.604
874.701
878.329
885.441
887.851
889.983
891.301
891.697
891.557
868.552
867.854
867.972
868.15
873.752
883.741
886.328
887.518
887.835
887.794
866.333
866.296
866.513
866.799
867.03
880.25
884.867
885.154
885.224
885.226
864.698
864.837
865.205
865.693
865.24
881.744
885.053
885.084
884.23
883.997
881.754
876.852
873.549
872.726
879.645
885.841
885.607
884.513
883.868
883.274
885.691
886.25
886.466
886.578
886.441
885.812
885.242
884.916
883.698
883.391
885.079
885.445
884.81
884.629
884.45
884.919
885.309
885.202
884.496
884.435
883.52
884.373
875.931
870.627
884.743
885.768
885.77
885.838
886.116
886.484
865.686
880.487
856.227
857.769
863.617
882.565
887.001
886.969
887.15
887.417
880.889
885.511
857.336
857.999
858.02
858.439
881.816
865.906
866.891
871.913
888.669
888.693
883.642
879.42
882.862
887.556
886.496
866.521
852.863
850.408
888.142
887.601
887.23
887.807
888.713
889.728
890.293
889.13
883.663
882.233
887.757
885.121
876.99
862.227
855.276
841.554
836.083
841.234
848.491
831.811
823.456
812.848
810.451
805.921
805.66
805.539
805.374
805.09
810.5
834.919
834.465
825.039
818.994
807.953
852.206
862.717
861.517
843.313
825.33
826.53
897.145
898.722
886.835
878.986
870.541
851.591
807.054
755.605
715.198
713.477
840.492
828.36
800.838
786.371
774.394
722.112
714.34
710.195
710.066
707.68
761.8
771.494
821.188
858.198
879.567
888.736
879.54
804.123
701.415
773.295
776.014
877.068
887.457
892.479
894.547
893.911
890.765
885.957
879.716
870.677
840.739
874.984
881.306
884.769
885.785
884.495
881.048
875.226
864.721
808.066
698.944
880.214
885.768
885.095
882.62
878.506
872.328
864.052
657.35
505.943
700.27
893.319
895.217
891.433
885.934
878.254
868.944
626.143
492.741
493.437
918.996
913.513
905.919
898.531
892.374
879.301
743.888
484.043
483.925
485.805
930.796
926.116
898.632
839.025
854.004
840.106
675.919
503.136
479.362
488.399
936.526
923.407
806.11
816.702
836.876
850.711
821.494
764.309
777.208
849.808
912.152
799.118
786.295
881.839
868.655
858.418
853.063
850.051
848.256
795.008
887.247
781.827
751.263
870.638
865.277
861.806
861.688
863.655
844.819
741.394
868.509
839.416
658.582
760.011
822.19
855.537
862.632
844.465
850.337
858.22
853.523
858.532
521.748
343.606
405.848
584.973
739.741
855.489
875.637
888.377
826.739
873.42
536.632
326.94
326.227
326.768
328.733
582.752
846.584
885.963
551.355
831.883
421.82
325.413
322.68
323.655
325.401
326.581
505.335
882.588
344.114
439.559
333.968
327.071
324.298
324.749
326.609
327.754
392.725
845.544
341.525
334.674
333.593
330.9
329.24
329.246
329.633
328.637
591.054
905.212
602.447
376.457
393.688
460.973
542.221
453.658
417.315
514.897
872.447
920.481
940.387
810.826
730.792
609.441
547.127
551.033
559.886
590.329
698.405
920.802
978.817
978.59
955.813
741.579
594.757
536.728
531.768
528.333
525.115
827.356
984.977
983.828
982.012
980.203
917.368
714.832
540.207
527.111
539.365
609.95
973.911
963.184
980.844
977.722
975.31
972.325
885.358
824.019
936.961
958.492
966.896
948.606
968.261
975.287
974.075
972.647
970.919
969.209
965.795
949.602
964.264
939.603
941.318
972.451
972.491
971.962
971.994
958.039
948.068
827.891
961.405
938.605
925.938
966.733
972.561
973.893
929.147
816.352
810.857
828.899
956.888
937.749
915.158
949.46
977.867
979.337
857.192
802.74
802.246
876.424
963.808
943.937
922.235
941.443
989.416
993.053
937.916
806.618
806.931
806.925
973.971
968.412
942.17
953.727
1006.01
1008.28
1009.71
903.824
815.334
816.001
976.577
983.465
963.482
966.158
1014.25
1024.44
1023.61
1022.7
1004.78
861.191
649.647
959.66
986.825
999.025
1023.25
1038.14
1035.53
1032.4
1029.26
1026.49
35.1091
525.524
988.61
1026.41
1036.37
1047.01
1044.85
1042.12
1039.42
1035.88
9.5698
72.0593
714.217
1011.19
1037.72
1028.99
1051.39
1051.23
1049.5
1046.28
4.89463
7.59703
219.854
983.263
1026.14
953.571
1029.2
1061.95
1061.35
1059.78
4.13976
4.86499
58.7336
719.194
988.61
966.421
872.637
1071.14
1071.69
1014.7
3.71463
3.14032
16.8545
524.204
959.43
956.13
674.507
975.521
1089.93
886.087
0.963985
1.69848
3.65428
326.001
908.969
882.954
669.131
666.455
953.464
1075.51
0.107991
3.46911
2.64022
166.469
877.517
855.429
668.829
666.026
692.714
851.923
0.10511
3.14831
0.838725
81.6244
867.539
841.772
719.932
927.402
933.892
949.935
0.208518
5.45382
0.116692
39.3145
870.826
877.684
162.319
165.844
347.299
485.083
0.560389
1.66755
0.0650167
15.4709
898.098
918.853
26.8365
19.7907
20.2454
24.8945
0.0905346
0.0983628
0.0926806
22.2509
945.611
948.106
22.707
19.6141
12.9564
5.422
0.0759977
0.0976884
0.0801999
30.1739
975.938
973.55
30.1941
0.600687
4.47726
6.73756
0.0668067
0.401257
0.0698666
38.8242
1002.32
999.986
39.2697
0.536896
5.35347
7.0013
0.40165
0.458379
0.0707691
45.6542
1027.42
1023.89
45.7683
0.411172
5.08956
3.17518
0.569467
0.453572
0.0693285
51.5112
1049.73
1045.83
51.4548
0.278939
5.05463
0.229626
0.50691
0.129761
0.0506299
57.0629
1069.46
1069.2
57.1141
0.242385
1.60067
1.48247
0.0307542
0.0196954
0.0190315
63.0786
1091.21
1091.65
63.4762
0.239202
0.25542
0.256106
-0.00535932
-0.00260191
-0.00368598
71.1715
1116.4
1116.3
71.7633
0.240922
0.245415
0.23513
-0.0221011
0.0198779
-0.0228155
81.4074
1144.36
1143.3
81.997
0.237172
0.632509
0.237815
-0.0362461
0.0403046
-0.0361685
95.0425
1175.26
1173.48
95.4448
0.230897
1.56478
0.25687
-0.00437101
0.034682
-0.0417595
110.071
1205.4
1204.93
110.828
0.24948
1.57457
1.04566
0.259076
0.0358787
-0.0400105
124.949
1234.56
1234.12
125.635
0.259387
1.58987
1.87999
0.520765
0.0782359
-0.0297077
139.626
1262.08
1262.41
140.239
0.206788
0.720644
0.388454
0.537203
0.0928622
-0.0199947
152.816
1287.25
1289.22
153.58
0.184597
0.189286
0.188618
0.380427
0.0439904
-0.0149095
167.24
1313.63
1315.02
167.965
0.190428
0.192774
0.209784
0.266057
0.0400995
-0.0116194
185.71
1343.4
1340.11
184.701
0.201351
0.199163
0.277941
0.240286
0.0573286
-0.000235219
210.259
1372.47
1372.46
210.096
0.200387
0.197909
0.196153
0.199568
0.0663657
0.00729582
240.895
1404.44
1404.91
242.121
0.200249
0.199065
0.196059
0.270697
0.0499998
0.0114921
273.059
1440.96
1429.89
270.115
0.20372
0.200764
0.222404
0.66462
0.0600401
0.0356724
294.7
1467.65
1456.83
292.398
0.195897
0.201414
0.225557
0.317522
0.103964
0.050653
307.997
1487.2
1485.57
308.565
0.171361
0.181327
0.200308
0.188958
0.18868
0.050363
316.611
1508.64
1508.15
317.507
0.145475
0.147357
0.162408
0.510039
0.373875
0.0491528
331.906
1534.85
1532.54
331.508
0.129342
0.165218
0.520837
0.52689
0.433498
0.0508046
366.408
1563.01
1565.44
368.222
0.115497
0.326104
0.84523
0.525249
0.262759
0.0450845
452.678
1601.71
1604.29
454.396
0.105644
0.45512
0.840851
0.330215
0.0369507
0.0284525
564.733
1636.49
1642.41
570.503
0.090589
0.392142
0.835974
0.0133849
0.00730357
0.00637408
683.192
1668.29
1671.42
686.032
0.0760079
0.188324
0.729378
-0.0117495
0.0220964
-0.00652593
774.892
1694.9
1692.66
773.799
0.059519
0.0838266
0.182839
0.0358281
0.0475664
-0.00287465
843.957
1715.69
1715.51
844.935
0.0477431
0.0725758
0.0869279
0.0901317
0.0488636
0.000921403
916.967
1738.08
1737.1
916.904
0.0448758
0.0715156
0.144508
0.0932455
0.00468953
-0.0031869
1028.01
1758.39
1759.99
1030.69
0.0375104
0.0445995
0.146162
0.0703599
-0.0123048
-0.0183611
1191.34
1780.78
1778.08
1190.79
0.038685
0.0417506
0.0915647
-0.00701738
-0.0212686
-0.0189418
1361.9
1800.33
1796.14
1361.46
0.052014
0.0398206
0.0839927
-0.0272863
-0.0265498
62.6181
1500.93
1819.25
1815.1
1497.05
56.6928
0.0387136
0.11727
-0.0242717
-0.0254422
174.959
1609.51
1835.73
1837.55
1620.26
219.653
0.0267162
0.0450173
-0.0185315
-0.0197703
281.543
1678.71
1853.53
1854.74
1794.76
529.964
0.0141077
0.0138206
-0.0125318
-0.0129405
634.132
1835.09
1872.94
1873.57
1856.75
879.743
-0.00135531
0.00750342
-0.00823757
-0.00906538
1055.69
1889.77
1892.34
1892.54
1891.8
1394.57
0.0614569
0.0123279
-0.00159043
72.7887
1592.97
1910.1
1910.99
1911.06
1910.34
1749.12
338.045
-0.000728073
-0.00746444
988.324
1920.3
1926.71
1926.75
1926.86
1926.68
1926.42
1250.27
-0.0105953
568.336
1857.25
1939.6
1937.66
1936.63
1936.27
1937.01
1938.95
1904.24
746.312
900.643
901.502
896.704
893.202
889.032
884.325
879.702
874.972
869.989
864.81
858.451
850.933
844.79
839.012
835.938
833.657
831.889
830.924
832.608
837.757
844.544
853.693
864.423
872.946
876.683
879.746
885.698
891.288
896.59
902.176
907.71
911.187
910.759
910.534
910.135
910.698
911.56
911.958
911.926
912.049
898.002
897.735
893.896
891.038
886.934
882.512
877.697
872.618
867.598
861.628
854.152
845.526
836.025
832.349
831.068
827.851
821.436
822.529
825.089
832.425
841.848
849.097
859.126
868.637
874.202
877.065
876.774
881.647
880.41
883.205
891.486
900.756
903.498
906.801
908.613
909.997
912.23
910.996
911.418
911.784
892.934
891.699
888.364
886.617
882.531
878.275
873.738
869.216
864.154
856.851
846.29
827.594
820.382
813.931
821.962
822.205
805.856
809.594
812.943
837.734
845.818
854.922
855.122
863.409
871.736
875.192
876.605
878.734
878.848
879.997
881.887
893.232
901.685
905.788
907.615
910.39
911.676
912.033
912.103
911.842
888.565
885.861
882.614
882.358
877.654
872.782
869.092
865.9
862.212
856.093
826.836
808.678
799.55
807.336
790.006
784.604
799.64
813.95
813.444
816.905
833.743
845.813
857.654
869.119
880.463
889.382
892.549
890.621
882.903
880.668
879.972
883.736
892.088
905.998
908.823
910.324
911.151
911.325
911.481
909.145
886.332
881.178
876.965
877.317
872.878
868.633
865.9
863.561
861.313
852.047
821.501
801.635
789.619
782.718
775.074
771.799
780.77
779.557
779.54
782.093
805.762
839.736
853.381
866.195
876.626
884.731
890.474
894.406
896.775
898.775
899.683
883.455
889.254
904.095
906.911
908.587
909.655
909.779
908.496
904.586
884.424
880.497
872.936
868.953
867.109
866.976
864.424
862.931
861.784
859.775
850.029
797.953
788.004
781.779
778.385
776.063
775.616
778.135
779.767
779.979
790.981
840.721
857.748
867.749
875.833
882.409
887.578
891.105
893.762
895.928
897.721
895.183
889.342
894.679
905.213
906.963
906.457
908.018
902.299
900.53
883.479
882.107
871.661
866.666
862.592
859.407
861.738
864.131
863.049
862.544
862.404
832.814
791.91
789.001
786.06
783.967
782.927
783.207
783.434
783.671
823.646
856.237
864.69
871.153
876.933
881.812
885.778
888.895
891.339
893.707
895.889
892.412
885.032
891.222
902.798
904.767
904.202
905.932
900.54
897.586
882.873
882.311
880.351
867.633
864.717
861.782
859.24
856.932
859.45
865.674
865.983
866.006
847.245
828.871
807.827
789.424
788.557
788.331
793.949
848.855
866.68
869.306
871.485
875.934
879.677
883.935
886.418
888.579
890.423
892.073
893.875
895.756
895.465
897.587
900.245
901.126
899.921
901.936
901.688
893.52
883.274
883.258
882.482
879.715
872.77
865.12
863.256
861.375
860
859.105
864.776
871.691
872.699
872.757
867.878
859.309
861.09
868.913
872.898
874.152
876.116
877.306
878.468
881.071
883.54
886.314
887.681
888.919
890.033
891.451
893.173
894.697
896.247
897.551
898.545
899.363
896.928
892.7
898.746
891.16
884.885
884.804
884.614
884.161
883.447
879.735
878.347
868.896
866.161
865.405
871.319
877.074
877.25
877.569
877.967
869.476
875.213
879.099
880.085
881.193
882.373
881.512
883.178
884.667
887.357
887.865
888.508
889.222
888.87
889.196
891.204
892.92
894.575
896.147
897.231
898.467
899.357
877.411
898.429
898.765
886.674
886.52
886.243
886.383
885.332
887.588
887.55
886.397
881.522
880.682
882.779
882.561
882.291
882.276
882.011
881.149
883.662
885.222
885.939
886.006
884.769
884.134
886.724
889.146
889.36
889.447
889.356
883.783
869.948
871.077
887.47
891.343
892.685
889.921
892.594
894.901
894.81
868.098
897.79
898.096
887.637
887.614
888.039
888.927
885.598
890.301
890.545
889.971
889.166
888.21
887.066
886.192
885.886
885.855
886.126
886.859
886.087
885.369
885.498
885.542
885.722
887.299
889.336
890.098
890.866
891.2
880.506
863.302
863.855
863.258
869.698
881.243
886.833
883.249
889.888
893.771
894.007
855.835
873.559
845.276
869.197
860.913
862.258
863.741
884.279
889.988
889.925
889.73
888.863
889.07
888.278
887.537
886.977
886.764
882.502
874.134
880.606
887.108
888.868
889.658
882.658
869.13
877.028
884.376
893.543
888.394
863.193
863.145
865.416
882.25
839.885
792.026
831.483
877.928
886.256
891.991
894.826
847.975
832.707
835.443
839.349
841.698
841.639
840.988
840.444
840.174
840.225
854.237
889.696
890.287
889.757
889.433
882.015
872.29
873.067
873.697
874.308
876.127
891.219
892.949
884.575
863.002
863.365
863
872.526
866.008
865.828
865.743
891.611
887.111
766.426
764.117
799.837
889.084
892.229
897.562
867.041
830.434
835.639
837.863
870.729
869.686
879.186
892.281
882.757
842.126
839.884
838.948
837.885
837.354
836.203
879.739
886.56
884.606
885.436
886.12
888.292
890.973
892.367
894.003
895.654
897.119
870.214
865.669
867.084
868.912
870.275
872.747
898.624
838.407
767.409
766.067
878
908.644
907.236
881.003
835.157
840.257
852.35
915.992
829.007
850.237
883.29
897.174
898.279
898.084
898.395
898.63
897.777
870.212
834.905
834.396
832.552
846.152
887.649
889.765
890.586
891.597
893.17
895.052
897.141
899.405
901.915
883.356
868.701
870.786
872.934
884.887
903.529
830.548
769.654
769.224
897.634
918.683
917.981
899.458
868.832
888.988
920.378
920.478
824.095
817.553
829.125
883.784
893.884
894.433
894.252
894.193
894.514
894.922
895.256
854.854
831.514
829.272
828.428
882.515
891.103
891.904
893.665
895.684
898.1
900.996
904.09
907.616
881.082
873.707
876.442
880.739
909.776
810.839
761.84
757.371
838.023
917.815
918.15
918.278
920.539
922.722
927.441
926.926
825.906
809.149
810.881
831.991
876.245
885.226
875.995
869.81
884.313
890.342
891.653
892.578
872.095
825.561
825.44
826.372
880.645
889.767
891.872
893.84
896.624
900.39
904.538
908.974
906.89
874.779
877.544
879.632
906.466
901.746
751.99
749.313
754.415
903.343
912.903
906.868
875.934
847.024
870.629
898.345
753.161
767.258
740.749
744.283
743.745
771.369
776.982
821.017
880.196
885.183
887.113
888.378
889.566
876.603
822.028
822.35
846.099
890.28
891.606
877.244
883.373
898.334
902.811
907.292
911.606
903.583
875.438
878.093
904.005
923.869
884.842
749.245
750.997
906.759
905.142
866.966
802.471
801.759
805.607
866.33
702.839
820.116
846.402
837.958
649.733
613.063
623.355
816.859
876.782
879.08
881.999
883.488
885.058
886.751
870.49
861.066
883.661
892.507
839.86
826.63
839.564
895.788
900.588
902.997
905.532
908.311
909.096
903.555
911.638
915.456
917.069
801.547
744.201
890.376
892.441
795.936
788.961
788.634
790.288
866.685
857.249
838.293
827.693
819.759
776.028
578.924
570.175
677.016
858.099
868.893
874.501
878.349
882.071
885.991
889.653
892.538
894.078
833.446
821.885
822.227
886.233
896.138
895.27
893.903
893.297
892.093
860.705
862.745
894.091
901.818
904.605
835.112
730.623
876.627
874.203
784.67
782.511
783.171
816.013
859.926
830.089
768.032
723.397
601.297
522.952
530.354
542.711
634.551
838.41
864.76
873.556
876.891
880.337
883.823
887.737
874.935
811.224
812.278
817.73
888.597
896.012
892.197
887.588
881.31
862.134
761.036
740.94
746.313
859.389
888.449
889.384
786.957
768.394
879.333
809.547
779.552
835.445
812.297
831.478
853.854
580.491
519.11
517.682
516.089
517.866
544.416
747.685
775.101
754.076
803.184
871.571
876.382
880.391
859.108
810.521
803.046
805.574
834.326
899.467
899.938
882.667
873.704
883.875
872.59
746.34
724.017
724.304
729.11
823.52
880.111
876.292
757.368
838.215
877.524
807.661
819.14
838.267
757.804
801.492
861.101
508.43
511.086
530.863
572.838
749.535
856.49
783.397
740.315
741.04
746.198
805.997
834.812
800.141
789.557
796.081
808.782
868.436
902.156
902.094
893.353
875.989
873.449
885.108
877.891
785.582
721.676
721.952
724.741
801.062
883.095
869.36
758.382
859.346
879.589
872.759
877.688
812.426
764.979
794.933
873.253
494.725
697.506
808.419
869.683
881.513
864.053
748.701
748.968
750.508
753.72
757.923
762.135
791.342
820.762
855.055
883.896
901.102
901.166
900.055
888.523
891.615
889.886
880.287
849.087
821.024
723.44
725.109
726.328
808.405
889.764
875.266
766.427
866.567
885.015
886.55
887.948
800.606
771.156
821.316
881.741
567.066
859.674
879.104
881.46
883.807
865.234
769.58
755.524
795.716
832.373
848.162
866.785
883.414
896.694
900.177
900.877
901.934
900.907
899.488
863.345
852.697
832.008
816.583
814.143
813.63
802.633
744.717
749.678
848.072
892.642
879.116
867.884
867.483
891.049
895.338
865.451
773.33
778.352
854.395
891.773
730.781
876.917
880.703
883.493
885.972
880.342
872.394
870.619
891.79
897.343
899.153
900.45
901.648
902.738
903.483
903.056
903.529
900.825
844.098
822.364
821.543
817.685
816.375
839.874
842.478
871.943
869.781
874.433
888.556
893.855
896.93
901.947
898.956
911.266
883.051
780.686
782.652
785.803
892.924
906.252
861.046
875.247
880.845
885.745
889.795
893.165
895.875
898.336
900.656
902.615
903.876
904.86
905.395
905.404
905.89
906.248
906.215
871.196
830.196
828.954
892.563
886.103
882.657
883.619
885.265
886.059
887.18
888.813
891.414
894.915
899.567
905.179
912.517
919.883
890.71
787.192
791.996
836.32
930.857
931.411
729.581
854.44
889.317
892.654
895.69
898.632
901.247
903.632
905.724
907.59
908.953
909.591
910.073
910.276
910.194
910.393
909.203
892.584
886.508
899.67
898.551
893.273
843.805
771.837
812.068
864.715
878.423
882.861
885.962
891.5
898.435
906.121
914.488
923.177
926.135
848.124
800.69
922.261
940.204
938.567
744.687
743.943
788.406
834.048
850.713
894.184
906.182
908.459
911.012
913.112
915.311
916.82
916.718
916.383
916.28
914.335
911.61
908.651
905.064
900.312
880.084
802.016
661.224
468.353
466.146
674.287
843.181
860.196
874.916
885.148
894.787
903.373
914.64
925.748
935.717
938.731
929.176
869.581
934.011
942.113
860.653
819.001
755.757
755.147
754.123
753.943
786.153
849.705
915.853
919.276
923.551
925.512
924.979
923.618
922.514
914.698
899.799
902.953
895.909
726.255
641.44
654.613
673.712
447.143
333.087
356.872
447.016
457.506
521.998
677.526
789.446
863.893
905.097
928.708
942.993
950.534
928.627
859.927
932.236
951.497
865.302
878.157
867.814
836.705
865.5
776.343
726.117
725.871
797.245
914.011
931.116
933.53
932.61
930.035
927.21
922.853
792.094
661.758
658.578
654.633
650.204
648.758
841.096
585.635
328.786
328.2
327.821
327.491
327.673
338.755
402.676
616.36
862.949
941.653
958.353
926.193
914.986
916.854
960.61
964.078
883.134
842.018
840.993
893.913
896.049
896.874
722.678
724.007
722.504
876.329
934.553
935.714
934.475
931.49
909.409
849.493
908.879
901.032
723.946
657.868
658.033
733.389
907.895
883.422
470.809
327.591
327.255
326.94
326.762
327.05
328.885
364.369
689.492
900.837
932.29
922.715
927.096
971.8
966.909
960.162
899.272
767.792
769.154
852.647
895.26
895.828
830.935
720.668
720.991
848.047
935.414
935.495
933.836
930.654
856.127
843.545
906.726
925.243
924.819
924.303
924.848
926.391
929.108
930.037
754.115
331.719
326.427
326.551
326.497
326.68
326.435
327.226
520.62
896.054
943.655
955.055
963.825
960.604
959.224
937.055
909.021
767.556
766.603
798.584
887.225
891.471
891.025
763.439
769.094
909.077
932.642
932.259
930.888
894.39
835.127
838.732
925.695
925.799
924.72
923.984
923.326
923.071
928.62
935.512
783.653
341.615
326.12
326.401
326.509
326.103
325.246
355.625
748.085
928.824
934.08
898.022
882.769
935.378
923.84
913.651
904.773
768.286
764.519
761.055
758.047
853.964
884.38
807.299
812.637
901.049
924.59
925.329
926.742
860.982
830.758
871.234
925.234
926.204
926.089
913.359
869.561
857.78
915.265
941.552
814.262
365.325
325.441
325.616
325.837
387.253
560.372
778.344
939.424
937.574
835.369
579.725
507.614
709.997
844.243
899.35
892.589
834.605
820.896
856.572
869.192
899.429
839.457
694.378
544.12
707.961
916.182
918.246
917.107
854.737
869.384
927.342
929.818
931.086
922.207
857.407
857.274
863.326
945.156
952.752
932.206
669.264
516.178
588.19
780.021
906.095
960.862
972.87
957.521
880.984
691.417
494.684
491.767
490.95
576.878
884.27
924.15
941.059
933.759
926.122
922.163
904.143
626.945
391.738
373.408
390.883
658.936
822.901
850.918
875.47
919.626
925.309
929.724
933.893
927.014
867.39
871.921
898.534
959.046
962.434
963.326
956.619
948.929
961.292
972.688
975.524
977.154
975.966
962.139
857.042
797.482
499.151
499.78
499.603
504.719
874.89
920.184
945.151
939.681
935.066
930.566
866.242
441.256
368.748
367.712
365.378
364.095
415.39
648.226
890.187
914.389
921.864
928.069
934.774
943.368
915.998
879.114
898.551
966.55
967.468
967.413
966.326
964.683
963.18
963.227
964.573
965.994
966.775
964.931
758.106
516.793
499.761
501.107
501.251
748.007
900.23
825.606
950.863
946.878
943.675
940.889
896.24
474.167
367.381
365.521
361.43
357.358
352.457
366.057
749.793
913.77
922.682
928.286
934.617
946.259
955.273
923.396
877.287
912.933
968.572
967.392
965.201
961.811
957.48
953.273
951.827
954.812
960.41
939.255
890.715
853.565
702.57
602.305
584.295
895.465
896.887
956.094
953.615
951.762
950.996
950.708
949.77
738.696
364.782
362.705
359.308
354.198
348.976
343.488
381.256
869.185
930.026
935.945
939.891
949.565
956.847
958.194
872.272
860.151
891.601
968.84
968.764
966.78
960.962
949.464
951.81
954.797
964.299
941.158
906.649
910.613
912.393
866.164
882.683
891.732
886.932
877.319
854.66
922.727
957.139
959.025
960.807
957.776
684.853
360.774
358.235
354.741
351.003
347.119
343.858
643.173
941.187
945.409
948.768
954.176
959.929
963.746
914.566
858.833
859.912
863.654
907.025
924.569
894.177
892.334
889.403
921.469
973.676
971.802
764.659
854.81
839.466
660.273
887.925
844.57
846.064
683.312
683.074
682.826
782.739
968.247
970.509
973.033
968.172
694.512
383.05
355.09
352.799
350.837
348.909
428.197
910.298
957.327
959.141
963.346
967.065
969.474
971.698
937.089
860.712
863.713
916.988
970.983
961.627
948.595
965.221
974.097
973.673
914.402
650.64
607.405
596.894
602.229
887.584
844.638
846.124
693.678
688.235
689.45
690.753
741.845
967.459
981.374
983.063
977.254
797.788
544.282
371.422
353.415
352.307
456.096
933.614
970.407
969.668
970.636
972.548
974.743
970.44
967.432
961.181
947.546
927.099
966.77
969.32
969.954
971.069
958.977
754.387
586.874
584.711
587.538
673.841
812.232
949.544
898.083
904.187
949.12
942.838
723.213
718.149
925.819
986.96
988.555
989.195
988.802
990.522
950.989
854.436
567.178
450.692
769.136
982.22
980.944
979.267
978.353
977.138
957.468
821.805
633.247
704.618
951.494
866.836
885.616
929.262
956.235
906.342
634.863
578.344
579.366
586.251
829.262
965.514
963.142
982.429
982.053
981.749
913.743
1004.07
1003.56
1001.96
1000.64
997.461
993.158
888.771
845.278
854.086
938.081
936.944
931.701
904.877
933.8
952.67
990.056
987.592
951.866
756.511
533.077
439.992
436.95
436.35
498.939
501.755
635.981
748.891
824.54
714.272
639.279
577.845
647.999
923.939
949.033
969.727
981.372
984.414
984.416
984.574
816.887
830.943
1006.14
1008.24
1007.28
1005.57
1003.57
1001.85
928.572
776.795
726.905
728.68
724.826
741.739
671.42
657.608
656.044
578.003
494.868
436.148
436.674
437.232
437.916
437.879
437.555
614.708
623.737
799.223
847.022
847.704
799.475
768.149
960.025
977.349
979.306
980.148
981.352
982.104
985.906
986.508
822.686
826.303
923.282
1010.72
1008.87
1007.24
1006.39
1006
1005.72
982.207
834.187
699.875
601.326
577.304
497.714
466.063
443.967
439.404
438.41
438.067
437.618
437.245
436.927
435.797
434.315
535.885
756.172
918.273
850.182
848.308
943.7
954.772
953.236
940.153
929.765
970.266
979.203
948.204
955.818
988.59
1012.45
997.47
1015.06
1011.29
1008.11
1006.36
1006.63
1007.71
1008.28
1008.5
1002.39
963.431
918.435
864.86
759.05
723.78
440.589
440.109
438.993
438.189
437.513
437.074
436.054
449.564
647.419
874.864
976.463
975.98
968.847
964.77
920.642
850.504
684.492
540.562
502.836
667.149
891.66
939.875
947.92
987.367
1031
1025.57
1019.27
1012.07
1003.68
993.895
1005.2
1008.8
994.375
993.045
1004.89
1020.21
1023.4
1027.61
1022.81
764.606
442.4
441.099
438.949
485.561
555.508
628.546
722.15
870.141
983.588
985.587
980.11
976.085
969.371
956.924
906.37
554.89
412.726
415.448
416.922
417.356
689.478
976.661
986.881
985.149
1042.07
1036.31
1027.96
948.084
679.157
444.923
539.241
982.745
1022.74
1026.49
1029.72
1033.57
1036.97
1040.15
1026.9
887.147
776.015
761.038
894.026
948.681
955.553
971.216
972.28
971.37
967.312
919.075
886.055
859.123
811.563
771.211
752.495
569.995
446.955
413.268
415.968
418.75
679.84
997.234
1001.65
995.942
1057.46
1052.88
1032.68
597.176
269.754
271.033
278.55
791.021
1046.66
1046.03
1045.97
1047.22
1049.69
1051.96
1042.96
1043.5
1048.39
1040.09
1031.16
1022.27
983.505
869.077
832.298
802.186
673.32
504.984
368.316
255.844
196.636
203.357
221.835
404.782
478.025
542.946
604.268
741.55
976.345
1009.81
1012.85
1014.85
881.008
867.821
938.85
621.239
272.775
272.153
269.602
280.091
788.859
1062.99
1058.98
1057.34
1058.97
1061.83
1064.34
1065.5
1064.42
1055.87
984.889
870.373
750.473
627.699
459.779
271.78
97.5634
34.9629
25.2497
25.36
25.4971
25.6335
25.6923
25.8584
66.0954
302.328
948.217
1020.27
1021.62
1024.39
1027.23
1029.32
496.929
498.127
521.02
773.13
782.128
723.012
274.634
267.681
267.148
413.125
641.995
741.667
921.914
1069.62
1071.94
1073.23
1071.4
1055.37
1030.47
865.994
740.41
549.541
236.076
25.5323
25.1115
25.0334
25.0606
25.1997
25.3301
25.3618
25.3078
25.1615
24.9659
33.6532
570.499
1002.55
1016.02
1015.57
1034.92
1050.15
1074.32
953.34
495.3
461.126
465.228
430.119
355.415
314.596
267.107
329.281
558.122
542.106
658.914
989.827
1073.8
1076.42
1075.07
1071.31
1034.23
620.422
205.254
25.0965
23.9022
24.2552
24.6037
24.8163
24.8661
24.8423
24.9267
26.2635
27.7929
27.672
25.111
25.3089
75.4095
407.654
546.482
694.913
750.999
758.261
1008.17
1012.52
1016.42
1014.71
1014.7
1000.71
993.629
990.468
935.446
548.187
467.772
467.477
466.586
489.067
945.54
1095.79
1090.72
1046.21
762.098
84.9906
23.345
23.5542
23.9042
24.3553
24.5254
26.0563
26.5149
26.5755
25.7542
24.9832
25.5151
29.0407
29.2672
29.1022
28.9998
29.8033
30.4664
202.117
637.55
618.323
959.199
880.556
673.942
590.464
473.357
391.99
469.632
607.503
701.499
700.769
695.674
693.97
618.234
271.067
439.824
968.226
1108.01
1102.67
1057.42
377.587
24.1618
23.1574
23.4418
23.7948
24.0512
24.1743
24.1996
24.2312
24.3927
24.5861
24.7922
25.064
25.4049
25.8534
29.4665
34.2715
32.1805
34.0378
45.5709
227.358
537.375
206.699
127.816
47.0753
14.7741
2.47974
2.47368
2.57813
15.9448
86.0226
96.3947
92.8215
124.691
106.827
234.736
529.417
830.731
837.862
568.267
83.1988
24.0414
23.0218
22.7877
22.6336
22.7412
23.3635
23.9114
24.1449
25.5396
33.3404
47.7351
40.9043
25.2215
24.7514
24.9816
80.469
101.842
104.893
114.677
124.698
26.6686
44.8432
117.4
83.9316
9.8494
3.40366
4.51834
4.16052
0.812703
0.51189
0.4745
0.423566
0.380505
0.414399
0.376666
8.81916
72.8266
54.9657
32.4026
45.4141
35.0671
23.7972
37.3188
37.3795
24.9817
32.586
27.7914
47.2338
139.673
141.134
140.985
140.321
139.283
138.033
134.738
132.204
72.1268
14.661
41.2698
21.8167
3.9676
3.78496
3.90767
4.07402
12.7848
15.3288
15.375
15.2326
8.48091
0.489386
0.371429
0.353582
0.354479
0.363487
0.350404
0.336182
7.86054
30.939
27.5609
49.2249
49.3073
35.4812
83.6259
113.158
114.284
110.45
125.465
128.395
128.666
136.561
137.257
136.738
73.6086
5.46818
-0.59586
-0.651877
-0.286534
-0.180609
0.903923
4.24955
4.23237
3.7803
3.94905
4.02913
8.80958
15.4874
10.6504
1.52904
0.348205
0.357628
0.303811
0.297771
0.304732
0.314839
0.34862
0.369812
0.366746
2.22303
9.47726
15.5369
18.2907
16.7437
10.6389
19.8383
50.0644
41.5803
17.9151
11.893
0.566437
-0.313288
-0.396021
-0.426631
-0.47125
-0.54503
-0.644853
-0.780561
-0.924752
-0.962729
-0.626236
0.479213
4.48244
3.78083
4.14318
4.17429
0.959741
0.219923
0.214441
0.228451
0.307776
0.289269
0.237099
0.250281
0.270474
0.294756
0.31147
0.314852
0.335255
0.343158
0.33739
0.320795
0.305209
0.294442
0.267688
0.208827
0.15911
0.147545
0.131263
0.0469005
-0.0696875
-0.175025
-0.245219
-0.319578
-0.423084
-0.51428
-0.573517
-0.639105
-0.729185
-0.758087
-0.437851
-0.0861351
2.42986
0.356507
0.21737
0.225539
0.227181
0.321797
0.34987
0.205829
0.196962
0.205991
0.216046
0.226343
0.240519
0.26141
0.53331
0.623194
0.651274
0.428135
0.408158
0.523623
0.347607
0.282186