/*--------------------------------*- C++ -*----------------------------------*\
  =========                 |
  \\      /  F ield         | OpenFOAM: The Open Source CFD Toolbox
   \\    /   O peration     | Website:  https://openfoam.org
    \\  /    A nd           | Version:  8
     \\/     M anipulation  |
\*---------------------------------------------------------------------------*/
FoamFile
{
    version     2.0;
    format      ascii;
    class       volScalarField;
    location    "2.2";
    object      nut;
}
// * * * * * * * * * * * * * * * * * * * * * * * * * * * * * * * * * * * * * //

dimensions      [0 2 -1 0 0 0 0];

internalField   nonuniform List<scalar> 
9150
(
9.60052e-06
6.40948e-06
6.64012e-06
9.01148e-06
8.1273e-06
8.12777e-06
9.01117e-06
6.64011e-06
6.40981e-06
9.60051e-06
9.48791e-06
5.74126e-06
8.37411e-06
1.01754e-05
7.57191e-06
7.57256e-06
1.01757e-05
8.37401e-06
5.74154e-06
9.48791e-06
9.29592e-06
5.50409e-06
1.09279e-05
1.05564e-05
7.21234e-06
7.21294e-06
1.05571e-05
1.0928e-05
5.50432e-06
9.29594e-06
9.08029e-06
5.42582e-06
1.35515e-05
1.0556e-05
7.02145e-06
7.02199e-06
1.05569e-05
1.35522e-05
5.42602e-06
9.08031e-06
8.84546e-06
5.40879e-06
1.58083e-05
1.04649e-05
6.92485e-06
6.92536e-06
1.04658e-05
1.58095e-05
5.40897e-06
8.84548e-06
5.91747e-06
1.13732e-05
1.41745e-05
1.80952e-05
1.77648e-05
1.77645e-05
1.80907e-05
1.41657e-05
1.13676e-05
5.91709e-06
6.28158e-06
8.89749e-06
1.15644e-05
1.58608e-05
1.53825e-05
1.53829e-05
1.58585e-05
1.15594e-05
8.89525e-06
6.28162e-06
6.8314e-06
7.92379e-06
9.52994e-06
1.35196e-05
1.29462e-05
1.29466e-05
1.3518e-05
9.52741e-06
7.92342e-06
6.83147e-06
7.38809e-06
7.31036e-06
8.08296e-06
1.15276e-05
1.08944e-05
1.08948e-05
1.15265e-05
8.0819e-06
7.31063e-06
7.38813e-06
8.07526e-06
6.8559e-06
7.13794e-06
9.96221e-06
9.23953e-06
9.23994e-06
9.96154e-06
7.13763e-06
6.85628e-06
8.07529e-06
1.17304e-05
1.36536e-05
1.29243e-05
1.63471e-05
1.85594e-05
1.84966e-05
1.62013e-05
1.27741e-05
1.36768e-05
1.19195e-05
7.87839e-06
1.08628e-05
1.26946e-05
1.64842e-05
1.86399e-05
1.86007e-05
1.63862e-05
1.26074e-05
1.08521e-05
7.87301e-06
7.46361e-06
1.02678e-05
1.27719e-05
1.66563e-05
1.87263e-05
1.8703e-05
1.65936e-05
1.27233e-05
1.02524e-05
7.45995e-06
7.03685e-06
9.87514e-06
1.28087e-05
1.67974e-05
1.88023e-05
1.8787e-05
1.67574e-05
1.27787e-05
9.85749e-06
7.03521e-06
6.51481e-06
1.01363e-05
1.28191e-05
1.6982e-05
1.87112e-05
1.87035e-05
1.6963e-05
1.28031e-05
1.01222e-05
6.5141e-06
2.87825e-05
2.8816e-05
2.88264e-05
2.88144e-05
2.87804e-05
2.87251e-05
2.86498e-05
2.8557e-05
2.84503e-05
2.83343e-05
0.000272778
0.000273639
0.000274258
0.000274628
0.000274745
0.0002746
0.000274185
0.000273486
0.000272491
0.000271199
0.000540808
0.000542413
0.000543494
0.000544044
0.000544058
0.000543533
0.000542463
0.000540848
0.00053869
0.000536001
0.000773139
0.00077526
0.000776633
0.000777251
0.000777114
0.000776222
0.000774577
0.000772186
0.000769058
0.000765211
0.000971565
0.000974042
0.000975602
0.000976245
0.00097597
0.000974781
0.000972684
0.000969689
0.00096581
0.000961064
0.00114156
0.00114428
0.00114596
0.00114661
0.00114622
0.0011448
0.00114236
0.00113891
0.00113447
0.00112904
0.00128804
0.00129092
0.00129268
0.00129332
0.00129284
0.00129125
0.00128856
0.00128477
0.00127991
0.00127399
0.00141502
0.001418
0.00141981
0.00142044
0.00141989
0.00141817
0.0014153
0.00141127
0.00140612
0.00139984
0.00152573
0.00152878
0.00153061
0.00153123
0.00153063
0.00152883
0.00152583
0.00152164
0.00151628
0.00150976
0.00162276
0.00162585
0.0016277
0.00162831
0.00162768
0.00162582
0.00162273
0.00161844
0.00161296
0.00160629
0.00170819
0.0017113
0.00171316
0.00171376
0.0017131
0.00171121
0.00170808
0.00170374
0.00169818
0.00169143
0.00178367
0.00178679
0.00178865
0.00178924
0.00178857
0.00178666
0.00178352
0.00177915
0.00177357
0.0017668
0.00185051
0.00185363
0.00185548
0.00185606
0.00185539
0.00185347
0.00185033
0.00184597
0.0018404
0.00183366
0.00190975
0.00191286
0.00191469
0.00191526
0.00191458
0.00191267
0.00190953
0.00190519
0.00189967
0.00189297
0.00196219
0.00196526
0.00196707
0.00196762
0.00196694
0.00196503
0.00196191
0.00195761
0.00195214
0.00194553
0.00200842
0.00201145
0.00201323
0.00201375
0.00201306
0.00201116
0.00200807
0.00200382
0.00199843
0.00199192
0.00204892
0.00205188
0.0020536
0.00205409
0.00205338
0.00205149
0.00204844
0.00204425
0.00203896
0.00203258
0.00208398
0.00208686
0.0020885
0.00208895
0.00208821
0.00208632
0.00208331
0.0020792
0.00207403
0.00206781
0.00211385
0.0021166
0.00211814
0.00211851
0.00211773
0.00211584
0.00211286
0.00210884
0.00210379
0.00209775
0.00213867
0.00214123
0.00214262
0.00214288
0.00214203
0.00214012
0.00213717
0.00213323
0.00212833
0.00212248
0.00215851
0.00216083
0.002162
0.00216209
0.00216114
0.00215917
0.00215624
0.00215238
0.00214762
0.00214198
0.00217341
0.00217538
0.00217627
0.00217613
0.00217502
0.00217296
0.00217002
0.00216622
0.0021616
0.00215618
0.00218331
0.00218485
0.00218537
0.00218494
0.00218361
0.00218142
0.00217843
0.00217468
0.00217019
0.00216499
0.00218813
0.00218914
0.00218921
0.00218842
0.00218682
0.00218446
0.0021814
0.00217767
0.00217331
0.00216833
0.00218776
0.00218816
0.00218772
0.00218651
0.0021846
0.00218203
0.00217887
0.00217515
0.0021709
0.00216615
0.00218206
0.00218181
0.00218081
0.00217915
0.00217688
0.00217408
0.0021708
0.00216708
0.00216295
0.00215844
0.00217091
0.00216999
0.00216843
0.0021663
0.00216367
0.00216062
0.00215721
0.0021535
0.00214951
0.00214524
0.00215417
0.00215265
0.00215057
0.00214798
0.00214499
0.0021417
0.00213819
0.0021345
0.00213067
0.00212669
0.0021318
0.00212976
0.00212723
0.00212423
0.00212091
0.00211743
0.00211386
0.00211026
0.00210663
0.00210298
0.00210382
0.00210129
0.0020984
0.00209515
0.00209162
0.00208804
0.0020845
0.00208105
0.0020777
0.00207443
0.00207057
0.00206765
0.0020645
0.00206108
0.00205748
0.00205393
0.00205053
0.00204732
0.00204431
0.00204148
0.00203267
0.00202951
0.00202616
0.00202263
0.00201907
0.00201568
0.00201253
0.00200965
0.00200704
0.0020047
0.00199098
0.0019876
0.00198409
0.00198057
0.00197719
0.00197406
0.00197123
0.00196873
0.00196657
0.00196473
0.00194632
0.00194279
0.00193929
0.00193591
0.00193277
0.00192993
0.00192746
0.00192536
0.00192366
0.00192234
0.00189981
0.00189626
0.00189284
0.00188964
0.00188673
0.00188419
0.00188206
0.00188037
0.00187912
0.00187829
0.00185259
0.00184904
0.0018457
0.00184266
0.00183997
0.00183771
0.00183591
0.0018346
0.00183377
0.0018334
0.00180563
0.00180207
0.00179879
0.00179588
0.00179339
0.00179137
0.00178987
0.00178889
0.00178843
0.00178848
0.00175982
0.00175622
0.00175298
0.00175016
0.00174782
0.00174601
0.00174475
0.00174406
0.00174392
0.00174433
0.00171596
0.00171231
0.00170906
0.0017063
0.00170406
0.00170239
0.00170132
0.00170085
0.00170098
0.00170166
0.00167469
0.00167096
0.00166769
0.00166494
0.00166276
0.00166119
0.00166025
0.00165994
0.00166024
0.00166113
0.0016365
0.0016327
0.00162939
0.00162663
0.00162446
0.00162293
0.00162205
0.00162184
0.00162226
0.00162327
0.00160175
0.0015979
0.00159454
0.00159174
0.00158955
0.00158801
0.00158714
0.00158696
0.00158742
0.0015885
0.00157061
0.00156674
0.00156335
0.00156051
0.00155827
0.00155668
0.00155577
0.00155554
0.00155599
0.00155705
0.00154312
0.00153928
0.0015359
0.00153302
0.00153071
0.00152903
0.00152803
0.0015277
0.00152805
0.001529
0.00151917
0.00151542
0.00151206
0.00150916
0.00150679
0.00150502
0.00150388
0.0015034
0.00150356
0.00150431
0.00149845
0.00149483
0.00149157
0.00148868
0.00148626
0.00148441
0.00148315
0.00148249
0.00148241
0.00148286
0.00148047
0.00147703
0.0014739
0.00147109
0.00146871
0.00146684
0.00146552
0.00146474
0.00146446
0.00146462
0.00146461
0.00146136
0.0014584
0.00145576
0.00145351
0.00145174
0.00145048
0.00144975
0.00144951
0.00144966
0.00145015
0.00144708
0.0014443
0.00144186
0.00143982
0.00143826
0.00143723
0.00143678
0.00143686
0.00143728
0.0014365
0.00143354
0.00143091
0.00142864
0.0014268
0.00142544
0.00142463
0.00142442
0.00142476
0.00142559
0.00142342
0.00142049
0.00141791
0.00141572
0.00141397
0.00141273
0.00141206
0.00141199
0.00141254
0.00141367
0.00141089
0.0014079
0.00140526
0.00140301
0.00140122
0.00139994
0.00139925
0.00139919
0.00139979
0.00140105
0.00139912
0.001396
0.00139319
0.00139075
0.00138875
0.00138725
0.00138635
0.0013861
0.00138656
0.00138778
0.0013884
0.0013851
0.00138206
0.00137933
0.00137698
0.0013751
0.00137379
0.00137314
0.00137326
0.00137422
0.00137889
0.00137547
0.00137219
0.00136912
0.00136633
0.00136392
0.00136203
0.00136078
0.00136033
0.00136082
0.00137051
0.00136707
0.00136364
0.00136025
0.00135699
0.00135397
0.00135136
0.00134934
0.00134811
0.0013479
0.00136271
0.00135946
0.00135606
0.00135249
0.00134882
0.00134518
0.00134178
0.00133886
0.0013367
0.00133559
0.0013543
0.00135159
0.00134858
0.00134517
0.00134134
0.00133723
0.00133311
0.0013293
0.00132618
0.00132412
0.00134332
0.00134164
0.00133969
0.0013372
0.00133398
0.00133
0.00132562
0.00132117
0.00131726
0.00131442
0.00132764
0.00132748
0.00132737
0.00132706
0.00132614
0.0013238
0.00132042
0.00131612
0.00131185
0.00130866
0.00130678
0.00130877
0.00131127
0.00131428
0.00131648
0.00131683
0.00131529
0.00131214
0.0013085
0.00130589
0.00128222
0.0012874
0.00129349
0.00130045
0.00130534
0.001307
0.0013065
0.00130486
0.00130322
0.00130269
0.00125657
0.00126588
0.00127628
0.00128702
0.00129404
0.00129696
0.0012984
0.00129973
0.00130126
0.00130345
0.00123334
0.00124724
0.00126239
0.00127711
0.00128672
0.00129325
0.00129929
0.00130318
0.00130729
0.00131313
0.00121606
0.00123476
0.00125533
0.00127642
0.00128998
0.00130393
0.00131065
0.00131398
0.00132007
0.00133042
0.00120723
0.00123196
0.0012603
0.00128233
0.00130474
0.00131557
0.00131861
0.00132147
0.00132572
0.00131815
0.00120414
0.00123165
0.00125872
0.00128365
0.0012985
0.00130365
0.00130475
0.00130195
0.00128888
0.00126422
0.00120424
0.00123205
0.00125919
0.00127857
0.00128326
0.00128052
0.00127088
0.00125284
0.00122765
0.00120011
0.00120811
0.00123482
0.00125637
0.00126009
0.00125425
0.00124132
0.00121982
0.00119071
0.00115922
0.00112956
0.00121565
0.00123068
0.00122937
0.00122093
0.00120697
0.0011861
0.00115539
0.00111841
0.00108304
0.00105281
0.00121001
0.00120289
0.00118936
0.00117101
0.00114686
0.00111462
0.00107421
0.00103343
0.000998046
0.000970491
0.00118087
0.0011612
0.00113764
0.00110891
0.00107252
0.00102771
0.00098109
0.00093969
0.000907043
0.000885186
0.00113738
0.00110726
0.00107405
0.00103392
0.000984667
0.000931082
0.000881988
0.000842259
0.000814809
0.000801519
0.00108038
0.00104396
0.00100101
0.000947996
0.000887365
0.000829291
0.000780494
0.000745134
0.000726001
0.000724332
0.00101493
0.000969859
0.000914892
0.000849882
0.000782973
0.000724255
0.000679428
0.000652329
0.000645142
0.000657876
0.000935247
0.0008816
0.000816667
0.000743696
0.000675939
0.000621162
0.000584487
0.000569335
0.000576682
0.0006051
0.00083654
0.000777327
0.000708018
0.000635906
0.00057326
0.000526888
0.000501713
0.000500445
0.000522686
0.000566065
0.000725589
0.000669225
0.000602165
0.00053683
0.000482997
0.000447129
0.000434259
0.00044624
0.000481625
0.000537884
0.000619178
0.000570308
0.000510468
0.00045407
0.00040955
0.000383537
0.000381395
0.000404183
0.000450016
0.00051664
0.000531391
0.000490138
0.000438676
0.000390147
0.000352669
0.000333907
0.000339784
0.000370604
0.000424448
0.000499111
0.000465838
0.000431123
0.000385557
0.000341905
0.00030832
0.000294048
0.000305625
0.00034255
0.000402851
0.000483685
0.000419182
0.000387687
0.000345468
0.000304053
0.00027175
0.000260009
0.000276038
0.000318437
0.000384586
0.000470221
0.000386401
0.000354622
0.000313924
0.000272688
0.000239627
0.00022922
0.000249533
0.00029792
0.000369889
0.000459304
0.000363191
0.000330142
0.000288642
0.000245424
0.000209887
0.000200254
0.000225651
0.000281232
0.000359099
0.000451477
0.000342857
0.0003088
0.000266187
0.00022029
0.000181407
0.000172562
0.000204533
0.000268552
0.000352247
0.000447038
0.000328631
0.000292213
0.000247251
0.000197806
0.000154556
0.000146349
0.000186456
0.000259679
0.000349057
0.000446214
0.000319822
0.000280209
0.000231876
0.000178049
0.000129568
0.00012182
0.000171385
0.000254074
0.000349073
0.000448826
0.00031475
0.000271376
0.000218905
0.00016013
0.000106264
9.89998e-05
0.000158702
0.00025082
0.000351763
0.00045501
0.000311892
0.000264216
0.000206985
0.000142954
8.45518e-05
7.79591e-05
0.000147102
0.000248229
0.000355544
0.000463446
0.000310242
0.000257668
0.00019508
0.000125723
6.47695e-05
5.89895e-05
0.000134781
0.000244125
0.000358214
0.000471535
0.000309343
0.000251069
0.000182516
0.000108108
4.7668e-05
4.26403e-05
0.00011978
0.000235915
0.000357221
0.000477164
0.000308591
0.000243787
0.000168767
9.02287e-05
3.40648e-05
2.96389e-05
0.000100845
0.000220881
0.000349296
0.000477174
0.000307482
0.000235239
0.000153445
7.2684e-05
2.44884e-05
2.06839e-05
7.85696e-05
0.000197154
0.000331313
0.000468049
0.000305331
0.000224773
0.000136308
5.6447e-05
1.8916e-05
1.60557e-05
5.57778e-05
0.00016417
0.000299622
0.000443926
0.000301149
0.000211426
0.000117323
4.25406e-05
1.67026e-05
1.52055e-05
3.7093e-05
0.000125927
0.00025459
0.000400718
0.000293365
0.000194136
9.69633e-05
3.17295e-05
1.67532e-05
1.63166e-05
2.5644e-05
9.07054e-05
0.000203481
0.000341221
0.000278325
0.000172489
7.6553e-05
2.44503e-05
1.77268e-05
1.749e-05
2.07067e-05
6.59155e-05
0.000157367
0.000268216
0.000255081
0.000149971
5.88687e-05
2.06894e-05
1.83726e-05
1.81234e-05
1.9282e-05
5.30215e-05
0.000135144
0.000217617
0.000246636
0.000136239
4.45083e-05
1.8667e-05
1.84989e-05
1.8342e-05
1.82397e-05
4.3598e-05
0.000137077
0.000238931
0.000379803
0.000118952
2.80902e-05
1.70275e-05
1.851e-05
1.84137e-05
1.6858e-05
2.8575e-05
0.000126616
0.000425497
2.81979e-05
2.8034e-05
2.78472e-05
2.76376e-05
2.74062e-05
2.71542e-05
2.68829e-05
2.6594e-05
2.62889e-05
2.59691e-05
2.56359e-05
2.52905e-05
2.49363e-05
2.4593e-05
2.4251e-05
2.39043e-05
2.35519e-05
2.31943e-05
2.28321e-05
2.24657e-05
2.20956e-05
2.17217e-05
2.13439e-05
2.09617e-05
2.05746e-05
2.01816e-05
1.97812e-05
1.93714e-05
1.89494e-05
1.85131e-05
1.80716e-05
1.76075e-05
1.71017e-05
1.65291e-05
1.58536e-05
1.50282e-05
1.40507e-05
1.28244e-05
1.11292e-05
4.66579e-06
0.000269537
0.000267481
0.00026517
0.000262632
0.000259893
0.000256977
0.000253905
0.000250698
0.000247376
0.000243953
0.000240437
0.000236813
0.000233023
0.00022891
0.000224705
0.00022049
0.000216318
0.000212213
0.000208187
0.000204236
0.000200355
0.000196528
0.00019274
0.000188968
0.000185185
0.000181358
0.000177442
0.000173375
0.000169069
0.000164378
0.000159031
0.000152889
0.000145773
0.000137424
0.000127436
0.000115094
9.88922e-05
7.74167e-05
4.70109e-05
6.70287e-06
0.000532601
0.0005284
0.000523649
0.000518397
0.00051269
0.000506572
0.000500091
0.00049329
0.000486209
0.000478884
0.000471338
0.00046358
0.000455594
0.00044735
0.000438949
0.000430476
0.000421989
0.000413528
0.000405109
0.000396732
0.000388382
0.000380031
0.000371637
0.000363147
0.000354491
0.000345583
0.000336309
0.000326525
0.000316036
0.000304578
0.000291832
0.000277477
0.000261106
0.000242176
0.000219935
0.000193257
0.000160342
0.000118841
6.53293e-05
7.88852e-06
0.000760383
0.000754424
0.000747678
0.000740197
0.00073204
0.000723265
0.000713931
0.0007041
0.00069383
0.000683173
0.000672175
0.000660872
0.000649288
0.000637443
0.000625384
0.000613177
0.000600867
0.000588486
0.000576042
0.000563528
0.000550916
0.000538158
0.000525191
0.000511928
0.000498263
0.00048406
0.00046915
0.000453323
0.000436313
0.000417781
0.00039732
0.000374511
0.000348791
0.000319438
0.000285507
0.000245738
0.00019847
0.000141767
7.45202e-05
8.27415e-06
0.000955128
0.000947812
0.000939517
0.000930305
0.000920236
0.000909377
0.000897796
0.000885563
0.000872747
0.000859416
0.00084563
0.000831443
0.000816899
0.000802035
0.000786874
0.000771465
0.000755843
0.000740023
0.000724004
0.000707761
0.000691251
0.000674408
0.000657143
0.000639345
0.000620873
0.000601553
0.000581175
0.000559481
0.000536155
0.000510808
0.00048296
0.000452101
0.000417585
0.000378584
0.000334058
0.000282686
0.000222983
0.00015374
7.59028e-05
8.50292e-06
0.00112227
0.00111393
0.00110446
0.00109393
0.0010824
0.00106994
0.00105661
0.00104251
0.00102769
0.00101224
0.000996231
0.000979717
0.000962753
0.000945381
0.000927607
0.00090947
0.000890992
0.000872175
0.000853002
0.000833433
0.000813407
0.000792839
0.000771621
0.000749617
0.000726661
0.00070255
0.000677043
0.000649849
0.000620617
0.000588924
0.000554262
0.000516039
0.000473555
0.000425962
0.00037224
0.000311216
0.000241757
0.000163481
7.84965e-05
8.76588e-06
0.0012666
0.0012575
0.00124716
0.00123564
0.00122301
0.00120932
0.00119466
0.0011791
0.00116272
0.0011456
0.00112781
0.00110941
0.00109047
0.00107101
0.00105104
0.00103058
0.00100964
0.000988213
0.000966267
0.000943745
0.000920567
0.000896634
0.000871821
0.000845972
0.0008189
0.000790383
0.000760159
0.000727917
0.000693291
0.000655845
0.000615067
0.000570351
0.000520983
0.000466125
0.000404818
0.000336034
0.000258894
0.000173328
8.22323e-05
9.08191e-06
0.00139201
0.00138236
0.00137139
0.00135915
0.00134569
0.00133109
0.00131541
0.00129873
0.00128113
0.00126268
0.00124347
0.00122355
0.00120299
0.00118178
0.00115994
0.0011375
0.00111444
0.00109075
0.00106637
0.00104124
0.00101526
0.000988313
0.000960262
0.000930936
0.000900134
0.000867624
0.000833131
0.000796337
0.000756871
0.000714303
0.000668129
0.000617766
0.00056254
0.000501677
0.000434315
0.000359552
0.000276603
0.000185303
8.83216e-05
9.47541e-06
0.00150163
0.0014916
0.00148019
0.00146744
0.0014534
0.00143812
0.00142168
0.00140415
0.00138559
0.00136609
0.00134573
0.00132458
0.00130267
0.00128001
0.00125661
0.00123248
0.00120761
0.00118195
0.00115545
0.00112801
0.00109954
0.00106991
0.00103896
0.00100651
0.000972354
0.000936253
0.000897928
0.00085706
0.000813285
0.000766183
0.000715275
0.000660016
0.000599786
0.000533896
0.000461593
0.000382107
0.000294757
0.000199263
9.72725e-05
9.9791e-06
0.00159796
0.00158769
0.001576
0.00156292
0.00154849
0.00153275
0.00151576
0.00149759
0.0014783
0.00145797
0.0014367
0.00141456
0.00139152
0.00136765
0.00134293
0.00131738
0.00129095
0.0012636
0.00123524
0.00120578
0.00117512
0.00114309
0.00110956
0.00107432
0.00103717
0.00099785
0.000956096
0.000911588
0.000863969
0.000812833
0.000757724
0.000698124
0.000633451
0.000563054
0.00048621
0.000402133
0.000310015
0.000209259
0.000101238
1.03336e-05
0.00168301
0.00167262
0.00166078
0.00164752
0.00163286
0.00161685
0.00159951
0.00158089
0.00156106
0.00154011
0.00151812
0.00149513
0.00147119
0.00144631
0.00142051
0.00139375
0.001366
0.00133719
0.00130722
0.001276
0.0012434
0.00120927
0.00117344
0.00113572
0.00109589
0.0010537
0.00100888
0.000961116
0.000910053
0.000855299
0.000796412
0.000732895
0.000664187
0.000589657
0.000508594
0.000420202
0.000323637
0.000218257
0.000105526
1.06628e-05
0.00175836
0.00174794
0.00173607
0.00172277
0.00170804
0.00169192
0.00167442
0.00165556
0.00163536
0.00161393
0.00159136
0.00156771
0.00154304
0.00151736
0.00149066
0.00146291
0.00143404
0.00140398
0.00137264
0.00133988
0.00130559
0.00126961
0.00123176
0.00119184
0.00114963
0.00110488
0.00105731
0.00100662
0.00095246
0.000894437
0.000832122
0.000765029
0.000692611
0.000614251
0.000529248
0.000436813
0.000336103
0.00022648
0.000109445
1.09733e-05
0.00182525
0.00181488
0.00180308
0.00178985
0.00177521
0.00175915
0.00174169
0.00172279
0.00170241
0.00168062
0.0016576
0.00163344
0.00160821
0.00158191
0.0015545
0.00152594
0.00149615
0.00146505
0.00143252
0.00139845
0.00136269
0.00132509
0.00128546
0.00124359
0.00119928
0.00115225
0.00110223
0.00104892
0.000991954
0.000930963
0.000865516
0.000795132
0.000719274
0.000637333
0.000548617
0.000452344
0.000347683
0.000234019
0.000112948
1.12896e-05
0.00188464
0.00187439
0.00186272
0.00184967
0.00183522
0.0018194
0.00180218
0.0017835
0.00176314
0.00174111
0.00171777
0.00169328
0.00166766
0.0016409
0.00161295
0.00158375
0.00155321
0.00152123
0.00148771
0.00145251
0.0014155
0.00137649
0.00133531
0.00129175
0.00124557
0.00119652
0.00114431
0.00108864
0.00102915
0.000965459
0.000897139
0.000823713
0.000744647
0.000659332
0.000567079
0.000467117
0.000358632
0.00024105
0.000116118
1.16052e-05
0.00193731
0.00192721
0.00191573
0.00190291
0.00188874
0.00187325
0.0018564
0.00183816
0.00181803
0.00179602
0.00177256
0.00174791
0.00172208
0.00169503
0.00166669
0.00163699
0.00160586
0.00157317
0.00153883
0.0015027
0.00146461
0.00142441
0.0013819
0.00133686
0.00128905
0.00123822
0.00118408
0.00112629
0.00106452
0.00099837
0.000927412
0.000851167
0.000769098
0.000680592
0.000584967
0.00048146
0.000369273
0.00024788
0.000119194
1.19155e-05
0.00198384
0.00197394
0.0019627
0.00195016
0.00193633
0.00192122
0.00190485
0.00188719
0.00186782
0.00184589
0.00182244
0.00179782
0.00177193
0.00174472
0.00171614
0.0016861
0.00165451
0.00162129
0.0015863
0.00154941
0.00151045
0.00146926
0.00142562
0.00137932
0.00133012
0.00127773
0.00122187
0.00116221
0.00109839
0.00103
0.000956628
0.00087777
0.000792887
0.000701366
0.000602524
0.000495601
0.000379814
0.000254684
0.000122279
1.22229e-05
0.00202469
0.00201502
0.00200407
0.00199187
0.00197843
0.00196376
0.00194788
0.00193078
0.00191229
0.00189126
0.00186797
0.00184339
0.00181749
0.00179022
0.00176151
0.00173127
0.0016994
0.0016658
0.00163035
0.00159289
0.00155326
0.00151127
0.00146672
0.00141938
0.00136899
0.00131527
0.00125792
0.0011966
0.00113094
0.00106054
0.000984944
0.000903667
0.000816154
0.000721786
0.000619872
0.000509653
0.000390356
0.000261537
0.000125413
1.25278e-05
0.00206012
0.00205073
0.0020401
0.00202825
0.00201519
0.00200093
0.00198543
0.00196867
0.00195057
0.00193089
0.00190856
0.0018842
0.00185851
0.00183138
0.00180273
0.00177249
0.00174054
0.00170678
0.00167107
0.00163325
0.00159314
0.00155056
0.00150531
0.00145713
0.00140577
0.00135092
0.00129229
0.00122952
0.00116223
0.00109001
0.0010124
0.000928894
0.000838927
0.000741871
0.000637028
0.000523629
0.000400907
0.000268447
0.000128599
1.28294e-05
0.00209031
0.00208122
0.00207094
0.0020595
0.00204687
0.00203305
0.002018
0.00200169
0.00198404
0.00196497
0.00194419
0.00192074
0.00189527
0.00186837
0.00183993
0.00180985
0.00177799
0.00174424
0.00170846
0.00167047
0.0016301
0.00158715
0.0015414
0.00149259
0.00144045
0.00138468
0.00132497
0.00126095
0.00119223
0.00111839
0.00103895
0.000953388
0.000861137
0.000761552
0.00065392
0.000537463
0.000411411
0.000275371
0.000131815
1.31256e-05
0.0021153
0.00210656
0.00209668
0.00208569
0.00207355
0.00206025
0.00204575
0.00202997
0.00201287
0.00199436
0.00197436
0.00195251
0.00192795
0.00190137
0.00187325
0.00184344
0.00181182
0.00177824
0.00174254
0.00170455
0.00166409
0.00162094
0.00157488
0.00152564
0.00147293
0.00141646
0.00135588
0.0012908
0.00122083
0.00114554
0.00106445
0.000977017
0.000882649
0.000780694
0.00067042
0.000551037
0.000421768
0.000282236
0.000135023
1.34137e-05
0.00213508
0.00212672
0.0021173
0.00210681
0.00209523
0.00208252
0.00206864
0.00205351
0.00203707
0.00201922
0.00199986
0.00197888
0.00195597
0.00193034
0.00190264
0.00187325
0.001842
0.00180873
0.00177327
0.00173544
0.00169505
0.00165187
0.00160566
0.00155615
0.00150305
0.00144603
0.00138475
0.00131882
0.00124783
0.00117131
0.00108876
0.000999609
0.000903291
0.000799126
0.000686364
0.000564202
0.000431852
0.000288949
0.000138176
1.36914e-05
0.00214959
0.00214164
0.0021327
0.00212277
0.00211181
0.00209978
0.0020866
0.00207222
0.00205653
0.00203944
0.00202084
0.00200061
0.00197862
0.00195462
0.00192795
0.00189911
0.00186839
0.00183559
0.00180053
0.00176303
0.00172287
0.00167982
0.00163363
0.00158401
0.00153067
0.00147328
0.00141146
0.00134483
0.00127296
0.00119537
0.00111156
0.00102093
0.000922877
0.00081668
0.000701583
0.000576803
0.000441531
0.000295414
0.000141226
1.39562e-05
0.00215872
0.00215121
0.0021428
0.00213348
0.00212321
0.00211191
0.00209952
0.00208596
0.00207112
0.0020549
0.00203717
0.00201781
0.0019967
0.00197371
0.00194861
0.00192087
0.00189082
0.00185866
0.00182418
0.00178718
0.00174742
0.00170467
0.00165866
0.00160911
0.0015557
0.00149807
0.00143588
0.0013687
0.00129609
0.00121759
0.00113265
0.00104069
0.000941071
0.000833064
0.000715893
0.000588711
0.000450684
0.000301542
0.000144128
1.42064e-05
0.0021624
0.00215535
0.00214751
0.00213885
0.00212931
0.00211881
0.00210729
0.00209463
0.00208073
0.00206547
0.00204873
0.00203037
0.00201027
0.00198828
0.00196428
0.00193806
0.00190917
0.00187782
0.00184409
0.00180776
0.00176858
0.00172631
0.00168066
0.00163134
0.00157801
0.00152032
0.0014579
0.00139032
0.00131714
0.00123786
0.00115195
0.0010588
0.000957761
0.000848091
0.000728999
0.000599631
0.00045917
0.000307271
0.000146841
1.44405e-05
0.00216056
0.00215401
0.00214677
0.00213881
0.00213005
0.00212043
0.00210982
0.00209815
0.00208527
0.00207107
0.00205542
0.00203818
0.0020192
0.00199836
0.0019755
0.00195048
0.0019231
0.00189295
0.00186015
0.00182467
0.00178625
0.00174463
0.00169952
0.00165061
0.00159754
0.00153996
0.00147746
0.00140964
0.00133603
0.00125614
0.00116941
0.00107523
0.000972924
0.000861754
0.000740904
0.000609518
0.000466784
0.000312385
0.000149333
1.46576e-05
0.00215322
0.00214718
0.00214058
0.00213336
0.00212545
0.00211674
0.00210713
0.0020965
0.00208474
0.00207169
0.00205723
0.00204121
0.00202348
0.00200389
0.00198229
0.00195853
0.00193246
0.00190384
0.00187229
0.00183784
0.00180037
0.00175959
0.00171519
0.00166686
0.00161424
0.00155692
0.00149453
0.00142663
0.00135276
0.00127241
0.00118502
0.00108997
0.000986571
0.000874073
0.000751651
0.000618442
0.000473639
0.000316948
0.00015148
1.48585e-05
0.00214042
0.00213493
0.002129
0.00212257
0.00211554
0.00210781
0.00209925
0.00208976
0.00207918
0.00206737
0.00205419
0.00203949
0.00202311
0.00200489
0.00198468
0.0019623
0.00193759
0.00191036
0.00188037
0.00184724
0.0018109
0.00177114
0.00172764
0.00168005
0.00162804
0.0015712
0.00150909
0.00144129
0.00136732
0.00128669
0.00119882
0.00110307
0.00099875
0.000885106
0.000761305
0.000626479
0.000479827
0.000321081
0.000153437
1.50414e-05
0.00212229
0.00211739
0.00211217
0.00210657
0.00210047
0.00209376
0.00208632
0.00207801
0.00206868
0.00205819
0.00204638
0.0020331
0.00201817
0.00200143
0.0019827
0.00196183
0.0019386
0.00191284
0.00188434
0.0018528
0.00181783
0.00177929
0.00173683
0.00169013
0.00163886
0.00158266
0.00152105
0.00145355
0.00137971
0.001299
0.00121083
0.00111458
0.00100953
0.000894921
0.000769929
0.000633685
0.000485396
0.000324821
0.000155224
1.52073e-05
0.00209905
0.00209477
0.00209031
0.00208557
0.00208044
0.00207479
0.0020685
0.00206142
0.0020534
0.00204429
0.00203392
0.00202212
0.00200872
0.00199355
0.00197642
0.00195716
0.00193555
0.0019114
0.00188448
0.00185456
0.00182126
0.0017841
0.00174287
0.00169722
0.00164688
0.00159148
0.00153058
0.00146363
0.00139012
0.00130952
0.00122124
0.00112464
0.00101902
0.000903612
0.0007776
0.000640121
0.000490393
0.000328194
0.000156849
1.53574e-05
0.00207102
0.00206741
0.00206374
0.00205989
0.00205574
0.00205119
0.00204607
0.00204024
0.00203356
0.00202585
0.00201695
0.00200668
0.00199486
0.00198132
0.00196586
0.00194828
0.0019284
0.00190598
0.00188079
0.00185259
0.00182105
0.00178559
0.00174574
0.00170144
0.00165237
0.00159808
0.0015381
0.00147187
0.00139881
0.00131841
0.00123012
0.0011333
0.00102726
0.000911216
0.000784354
0.00064582
0.000494841
0.000331217
0.000158322
1.549e-05
0.00203863
0.00203573
0.00203286
0.00202992
0.00202678
0.00202331
0.00201937
0.0020148
0.00200945
0.00200314
0.00199571
0.00198697
0.00197674
0.00196483
0.00195104
0.00193517
0.00191702
0.00189633
0.00187289
0.00184641
0.0018166
0.00178305
0.00174504
0.00170244
0.00165485
0.00160178
0.00154282
0.00147746
0.00140508
0.00132513
0.00123707
0.00114029
0.00103406
0.000917613
0.000790128
0.000650753
0.000498731
0.000333885
0.000159636
1.56103e-05
0.00200244
0.00200026
0.00199821
0.00199617
0.00199402
0.00199163
0.00198885
0.00198552
0.00198148
0.00197655
0.00197056
0.00196332
0.00195465
0.00194433
0.00193218
0.00191797
0.00190149
0.00188248
0.0018607
0.00183587
0.00180769
0.00177582
0.00173981
0.00169902
0.00165319
0.00160164
0.00154398
0.0014798
0.00140851
0.00132943
0.00124197
0.00114552
0.00103941
0.000922841
0.000794991
0.000655012
0.000502156
0.000336268
0.00016082
1.5725e-05
0.00196309
0.00196163
0.00196039
0.00195924
0.00195806
0.00195671
0.00195505
0.00195292
0.00195014
0.00194655
0.00194196
0.00193618
0.00192901
0.00192026
0.0019097
0.00189712
0.00188228
0.00186495
0.00184485
0.00182173
0.00179527
0.00176518
0.00173106
0.0016923
0.00164809
0.00159817
0.00154204
0.00147923
0.00140923
0.00133134
0.00124483
0.00114906
0.00104337
0.00092697
0.000799036
0.000658706
0.000505227
0.000338454
0.000161916
1.58391e-05
0.00192129
0.00192055
0.00192009
0.00191979
0.00191953
0.00191918
0.00191858
0.00191758
0.00191601
0.00191369
0.00191043
0.00190604
0.00190032
0.00189307
0.00188406
0.00187307
0.00185986
0.00184418
0.00182577
0.00180436
0.00177967
0.00175138
0.00171914
0.00168249
0.00164041
0.00159229
0.00153784
0.00147651
0.00140783
0.0013312
0.00124586
0.00115104
0.00104604
0.000930106
0.000802377
0.000661961
0.000508075
0.000340556
0.000162987
1.59566e-05
0.00187783
0.00187776
0.00187803
0.00187853
0.00187913
0.00187969
0.00188008
0.00188013
0.00187967
0.00187853
0.00187651
0.00187343
0.00186908
0.00186324
0.0018557
0.00184623
0.00183458
0.00182049
0.00180371
0.00178395
0.00176093
0.00173433
0.0017038
0.00166896
0.00162916
0.0015831
0.00153069
0.00147121
0.00140411
0.00132892
0.00124493
0.00115135
0.0010474
0.000932271
0.00080508
0.000664876
0.000510815
0.000342685
0.000164096
1.60817e-05
0.00183347
0.00183403
0.00183496
0.00183618
0.00183755
0.00183894
0.00184021
0.00184119
0.00184173
0.00184164
0.00184075
0.00183886
0.00183575
0.00183123
0.00182506
0.00181701
0.00180683
0.00179425
0.00177901
0.00176082
0.00173939
0.0017144
0.00168551
0.00165236
0.00161447
0.00157079
0.00152025
0.00146295
0.00139774
0.00132419
0.0012418
0.00114975
0.0010472
0.000933255
0.000806961
0.000667296
0.000513331
0.000344775
0.000165228
1.62062e-05
0.00178903
0.00179013
0.00179165
0.00179349
0.00179552
0.00179761
0.00179962
0.0018014
0.00180278
0.0018036