/*--------------------------------*- C++ -*----------------------------------*\
  =========                 |
  \\      /  F ield         | OpenFOAM: The Open Source CFD Toolbox
   \\    /   O peration     | Website:  https://openfoam.org
    \\  /    A nd           | Version:  8
     \\/     M anipulation  |
\*---------------------------------------------------------------------------*/
FoamFile
{
    version     2.0;
    format      ascii;
    class       volVectorField;
    location    "2.2";
    object      U;
}
// * * * * * * * * * * * * * * * * * * * * * * * * * * * * * * * * * * * * * //

dimensions      [0 1 -1 0 0 0 0];

internalField   nonuniform List<vector> 
9150
(
(0.0538232 -0.428699 0)
(0.0879447 -0.622237 0)
(0.0730735 -0.631451 0)
(0.0486354 -0.643725 0)
(0.0170257 -0.654443 0)
(-0.0170468 -0.65444 0)
(-0.0486525 -0.643718 0)
(-0.0730858 -0.631446 0)
(-0.0879522 -0.622232 0)
(-0.0538263 -0.428685 0)
(0.0408504 -0.522906 0)
(0.0574228 -0.625694 0)
(0.0420367 -0.613222 0)
(0.0294089 -0.622455 0)
(0.0104795 -0.628861 0)
(-0.0104921 -0.62886 0)
(-0.0294195 -0.622452 0)
(-0.042045 -0.61322 0)
(-0.0574295 -0.625694 0)
(-0.0408539 -0.522897 0)
(0.0253188 -0.558024 0)
(0.0324957 -0.613807 0)
(0.0229509 -0.604475 0)
(0.0172763 -0.609992 0)
(0.00623723 -0.613188 0)
(-0.00624404 -0.613188 0)
(-0.0172821 -0.609991 0)
(-0.0229552 -0.604474 0)
(-0.0325001 -0.613808 0)
(-0.0253216 -0.558019 0)
(0.0154148 -0.584774 0)
(0.0174675 -0.607456 0)
(0.0116775 -0.601137 0)
(0.00888455 -0.603285 0)
(0.00323941 -0.604396 0)
(-0.00324236 -0.604395 0)
(-0.00888711 -0.603284 0)
(-0.0116795 -0.601137 0)
(-0.0174697 -0.607456 0)
(-0.0154163 -0.584773 0)
(0.00628573 -0.597177 0)
(0.00555504 -0.601386 0)
(0.00356062 -0.600039 0)
(0.00268308 -0.600349 0)
(0.000993515 -0.600483 0)
(-0.000994063 -0.600483 0)
(-0.00268353 -0.600349 0)
(-0.00356094 -0.600039 0)
(-0.00555558 -0.601387 0)
(-0.00628616 -0.597177 0)
(0.469885 -1.16286 1.50224e-24)
(0.282851 -1.08608 0)
(0.163207 -1.06947 0)
(0.0921614 -1.05782 0)
(0.0302429 -1.05312 0)
(-0.0304982 -1.05309 0)
(-0.0923884 -1.05771 0)
(-0.163396 -1.06932 0)
(-0.28299 -1.08587 0)
(-0.469837 -1.16255 -1.49913e-24)
(0.334184 -0.844375 4.1124e-25)
(0.287159 -0.936899 0)
(0.188208 -0.936884 0)
(0.108177 -0.936819 0)
(0.0356541 -0.939195 0)
(-0.0357988 -0.93917 0)
(-0.108302 -0.936751 0)
(-0.188307 -0.936791 0)
(-0.287195 -0.936781 0)
(-0.334146 -0.844214 -4.10741e-25)
(0.279306 -0.702726 6.99341e-26)
(0.25909 -0.804777 0)
(0.178076 -0.817575 0)
(0.104608 -0.828395 0)
(0.0347996 -0.836513 0)
(-0.0348873 -0.836499 0)
(-0.104682 -0.828356 0)
(-0.178127 -0.817522 0)
(-0.259105 -0.804717 0)
(-0.279292 -0.702658 -6.984e-26)
(0.200229 -0.554445 2.52463e-25)
(0.216799 -0.709456 0)
(0.15426 -0.725873 0)
(0.0913668 -0.742027 0)
(0.0305179 -0.75395 0)
(-0.0305718 -0.753942 0)
(-0.0914113 -0.742004 0)
(-0.15429 -0.725846 0)
(-0.216807 -0.709428 0)
(-0.200223 -0.554405 -2.52439e-25)
(0.118948 -0.445164 -4.17424e-25)
(0.156548 -0.644203 -5.99255e-25)
(0.116678 -0.66375 -2.0242e-25)
(0.0709274 -0.681193 -1.32786e-25)
(0.0239465 -0.694206 -7.62471e-27)
(-0.0239804 -0.694201 -7.63042e-27)
(-0.0709551 -0.681181 -1.32801e-25)
(-0.116697 -0.663737 -2.02421e-25)
(-0.156556 -0.644191 -5.99221e-25)
(-0.118948 -0.445142 -4.17389e-25)
(0.0251446 -0.910574 0)
(-0.0320805 -1.34357 0)
(0.0244758 -1.27438 0)
(-0.00463294 -1.22835 0)
(0.00330936 -1.22679 0)
(-0.00492743 -1.22622 0)
(0.00150022 -1.2284 0)
(-0.0277645 -1.27509 0)
(0.0304358 -1.34134 0)
(-0.0270509 -0.901801 0)
(0.0504641 -0.905579 0)
(-0.0198994 -1.33551 0)
(0.0242077 -1.27224 0)
(2.23331e-05 -1.22547 0)
(0.000722631 -1.22439 0)
(-0.00179396 -1.22395 0)
(-0.00222801 -1.22564 0)
(-0.025596 -1.27208 0)
(0.0182517 -1.3343 0)
(-0.051243 -0.900484 0)
(0.0774267 -0.943439 0)
(-0.0224656 -1.34908 0)
(0.0177997 -1.27631 0)
(0.00503269 -1.23178 0)
(-0.000595131 -1.22727 0)
(-0.000254214 -1.2271 0)
(-0.00641775 -1.23182 0)
(-0.0186025 -1.27599 0)
(0.0209923 -1.3487 0)
(-0.0780641 -0.939785 0)
(0.143493 -1.07832 0)
(0.00196977 -1.36669 0)
(0.0157632 -1.27221 0)
(0.0214318 -1.22631 0)
(0.00535246 -1.21481 0)
(-0.00607214 -1.21476 0)
(-0.0221441 -1.22617 0)
(-0.0161459 -1.27195 0)
(-0.00309877 -1.36648 0)
(-0.143908 -1.07638 0)
(0.297804 -1.21931 0)
(0.125744 -1.32224 0)
(0.0689142 -1.21078 0)
(0.0562719 -1.16926 0)
(0.0198057 -1.15669 0)
(-0.0202424 -1.15664 0)
(-0.0566309 -1.16908 0)
(-0.0692733 -1.21055 0)
(-0.126297 -1.32204 0)
(-0.297856 -1.21849 0)
(-0.0374559 -0.00617086 0)
(-0.0329293 -0.00632493 0)
(-0.0282989 -0.00643726 0)
(-0.0236031 -0.00650266 0)
(-0.018879 -0.00651971 0)
(-0.0141635 -0.00648819 0)
(-0.00949297 -0.0064081 0)
(-0.00490267 -0.0062794 0)
(-0.000428132 -0.00610335 0)
(0.00389543 -0.00588433 0)
(-0.033527 -0.0129487 0)
(-0.0298885 -0.0133151 0)
(-0.0261559 -0.0135718 0)
(-0.0223602 -0.0137181 0)
(-0.0185339 -0.0137542 0)
(-0.014709 -0.0136813 0)
(-0.0109166 -0.0135014 0)
(-0.00718668 -0.0132168 0)
(-0.00354906 -0.0128309 0)
(-3.16987e-05 -0.0123479 0)
(-0.0304256 -0.0192677 0)
(-0.0273847 -0.0198362 0)
(-0.0242593 -0.0202369 0)
(-0.0210762 -0.0204691 0)
(-0.017863 -0.0205339 0)
(-0.0146471 -0.0204335 0)
(-0.0114555 -0.0201713 0)
(-0.00831424 -0.0197515 0)
(-0.00524877 -0.0191798 0)
(-0.00228324 -0.0184627 0)
(-0.0279065 -0.0247558 0)
(-0.0253111 -0.0255124 0)
(-0.0226388 -0.0260498 0)
(-0.0199129 -0.0263674 0)
(-0.0171577 -0.0264665 0)
(-0.0143972 -0.0263497 0)
(-0.0116551 -0.0260214 0)
(-0.00895453 -0.0254871 0)
(-0.00631807 -0.0247542 0)
(-0.00376798 -0.0238317 0)
(-0.0257899 -0.0294693 0)
(-0.0235436 -0.0303966 0)
(-0.021226 -0.0310599 0)
(-0.0188581 -0.0314582 0)
(-0.0164611 -0.0315927 0)
(-0.0140568 -0.0314664 0)
(-0.0116666 -0.031084 0)
(-0.00931139 -0.030452 0)
(-0.00701212 -0.029579 0)
(-0.00478966 -0.0284761 0)
(-0.0239989 -0.0335665 0)
(-0.0220301 -0.0346518 0)
(-0.0199943 -0.0354333 0)
(-0.01791 -0.0359095 0)
(-0.0157965 -0.0360812 0)
(-0.0136734 -0.0359513 0)
(-0.0115603 -0.0355244 0)
(-0.00947682 -0.0348075 0)
(-0.00744263 -0.0338095 0)
(-0.00547797 -0.0325427 0)
(-0.0224829 -0.0371752 0)
(-0.0207374 -0.0384095 0)
(-0.0189275 -0.0393044 0)
(-0.0170695 -0.0398578 0)
(-0.0151809 -0.04007 0)
(-0.0132794 -0.0399432 0)
(-0.0113832 -0.0394814 0)
(-0.00951083 -0.0386909 0)
(-0.00768125 -0.0375808 0)
(-0.00591451 -0.0361631 0)
(-0.0212037 -0.0403868 0)
(-0.0196413 -0.0417649 0)
(-0.0180153 -0.042772 0)
(-0.0163399 -0.0434052 0)
(-0.0146305 -0.043664 0)
(-0.0129035 -0.0435494 0)
(-0.0111755 -0.0430642 0)
(-0.00946389 -0.0422135 0)
(-0.00778726 -0.0410048 0)
(-0.00616566 -0.0394491 0)
(-0.0201318 -0.043267 0)
(-0.0187247 -0.0447875 0)
(-0.0172526 -0.0459093 0)
(-0.0157279 -0.0466288 0)
(-0.0141642 -0.0469442 0)
(-0.0125759 -0.046855 0)
(-0.0109781 -0.0463621 0)
(-0.00938695 -0.0454684 0)
(-0.00782015 -0.044179 0)
(-0.00629758 -0.0425021 0)
(-0.0192456 -0.0458585 0)
(-0.017976 -0.0475238 0)
(-0.0166384 -0.0487667 0)
(-0.0152437 -0.0495827 0)
(-0.0138033 -0.0499687 0)
(-0.0123295 -0.0499225 0)
(-0.0108356 -0.0494428 0)
(-0.00933589 -0.0485297 0)
(-0.0078463 -0.0471846 0)
(-0.00638573 -0.0454116 0)
(-0.0185292 -0.0481865 0)
(-0.0173867 -0.0500017 0)
(-0.0161729 -0.0513744 0)
(-0.014897 -0.0522994 0)
(-0.0135683 -0.0527726 0)
(-0.0121972 -0.0527904 0)
(-0.0107942 -0.0523495 0)
(-0.00937089 -0.0514469 0)
(-0.00794053 -0.0500799 0)
(-0.00651924 -0.0482473 0)
(-0.017966 -0.0502651 0)
(-0.0169442 -0.0522358 0)
(-0.015849 -0.0537464 0)
(-0.0146884 -0.0547917 0)
(-0.0134699 -0.0553678 0)
(-0.0122017 -0.0554704 0)
(-0.0108915 -0.055095 0)
(-0.00954721 -0.0542362 0)
(-0.00817816 -0.0528879 0)
(-0.00679582 -0.051043 0)
(-0.0175302 -0.0521078 0)
(-0.0166218 -0.0542352 0)
(-0.0156419 -0.0558861 0)
(-0.0145975 -0.0570571 0)
(-0.0134951 -0.057745 0)
(-0.0123407 -0.0579467 0)
(-0.0111392 -0.0576577 0)
(-0.00989516 -0.0568721 0)
(-0.00861302 -0.0555819 0)
(-0.00729841 -0.0537765 0)
(-0.0171713 -0.0537372 0)
(-0.0163653 -0.0560121 0)
(-0.0154958 -0.0577949 0)
(-0.0145693 -0.0590845 0)
(-0.0135916 -0.0598803 0)
(-0.0125674 -0.060181 0)
(-0.0114998 -0.0599843 0)
(-0.0103907 -0.0592857 0)
(-0.00924081 -0.0580782 0)
(-0.0080508 -0.056351 0)
(-0.0168008 -0.0551867 0)
(-0.016083 -0.0575863 0)
(-0.0153158 -0.0594785 0)
(-0.0145056 -0.0608651 0)
(-0.0136578 -0.0617486 0)
(-0.0127769 -0.0621305 0)
(-0.0118655 -0.0620115 0)
(-0.0109248 -0.0613903 0)
(-0.00995479 -0.0602634 0)
(-0.00895451 -0.0586238 0)
(-0.0163001 -0.0564897 0)
(-0.0156541 -0.0589812 0)
(-0.014977 -0.0609493 0)
(-0.014275 -0.0623988 0)
(-0.0135535 -0.0633352 0)
(-0.0128171 -0.0637623 0)
(-0.012069 -0.0636827 0)
(-0.011312 -0.0630969 0)
(-0.0105484 -0.062003 0)
(-0.00978162 -0.0603953 0)
(-0.0155457 -0.0576915 0)
(-0.0149501 -0.0602342 0)
(-0.0143443 -0.062239 0)
(-0.0137323 -0.0637142 0)
(-0.0131173 -0.0646674 0)
(-0.0125021 -0.0651045 0)
(-0.0118883 -0.0650293 0)
(-0.0112765 -0.0644433 0)
(-0.0106671 -0.063345 0)
(-0.0100601 -0.0617297 0)
(-0.0144072 -0.0588381 0)
(-0.01385 -0.0613847 0)
(-0.0133035 -0.0633858 0)
(-0.0127676 -0.0648526 0)
(-0.0122421 -0.0657945 0)
(-0.0117266 -0.0662188 0)
(-0.0112198 -0.0661306 0)
(-0.0107203 -0.0655328 0)
(-0.010226 -0.0644261 0)
(-0.00973513 -0.0628091 0)
(-0.0127665 -0.0599374 0)
(-0.0122546 -0.0624425 0)
(-0.01177 -0.0644051 0)
(-0.0113074 -0.0658377 0)
(-0.0108618 -0.0667505 0)
(-0.0104287 -0.067151 0)
(-0.0100035 -0.0670445 0)
(-0.00958175 -0.0664342 0)
(-0.0091588 -0.0653218 0)
(-0.00873098 -0.0637077 0)
(-0.0105538 -0.0609462 0)
(-0.0101155 -0.0633775 0)
(-0.00971342 -0.0652809 0)
(-0.00933645 -0.0666689 0)
(-0.00897484 -0.0675515 0)
(-0.00861963 -0.0679353 0)
(-0.00826258 -0.0678244 0)
(-0.00789612 -0.0672214 0)
(-0.00751348 -0.0661274 0)
(-0.00710944 -0.0645434 0)
(-0.00777023 -0.06178 0)
(-0.00744895 -0.0641226 0)
(-0.00716427 -0.0659634 0)
(-0.00689931 -0.0673144 0)
(-0.00663904 -0.0681838 0)
(-0.00637011 -0.0685757 0)
(-0.0060808 -0.0684918 0)
(-0.00576103 -0.0679321 0)
(-0.00540248 -0.0668958 0)
(-0.00499938 -0.0653827 0)
(-0.00448602 -0.062334 0)
(-0.00433277 -0.0645887 0)
(-0.00420971 -0.06638 0)
(-0.00409314 -0.0677186 0)
(-0.00396185 -0.0686092 0)
(-0.00379785 -0.0690517 0)
(-0.00358636 -0.0690426 0)
(-0.00331574 -0.0685772 0)
(-0.00297747 -0.0676505 0)
(-0.00256669 -0.0662593 0)
(-0.000819682 -0.0624957 0)
(-0.000889896 -0.0646736 0)
(-0.000979229 -0.0664419 0)
(-0.0010543 -0.0678089 0)
(-0.00108581 -0.0687733 0)
(-0.00105046 -0.0693265 0)
(-0.000931061 -0.069456 0)
(-0.000716107 -0.0691488 0)
(-0.000399102 -0.0683933 0)
(2.1565e-05 -0.0671811 0)
(0.00307741 -0.0621509 0)
(0.00272581 -0.0642665 0)
(0.00236778 -0.066049 0)
(0.00205287 -0.0675032 0)
(0.00182315 -0.0686155 0)
(0.00170845 -0.069361 0)
(0.00172662 -0.0697115 0)
(0.00188569 -0.0696401 0)
(0.00218637 -0.0691252 0)
(0.00262343 -0.0681514 0)
(0.00703922 -0.061192 0)
(0.00634403 -0.0632501 0)
(0.00565132 -0.0650921 0)
(0.0050425 -0.0667166 0)
(0.00458302 -0.0680833 0)
(0.00431013 -0.0691341 0)
(0.00423662 -0.0698116 0)
(0.00435966 -0.0700682 0)
(0.00466737 -0.0698688 0)
(0.00514246 -0.0691908 0)
(0.0109106 -0.0595058 0)
(0.00979724 -0.0614835 0)
(0.00868157 -0.0634409 0)
(0.00771332 -0.0653687 0)
(0.00700508 -0.0671566 0)
(0.00659728 -0.0686742 0)
(0.00648043 -0.0698151 0)
(0.00662423 -0.0705038 0)
(0.00699286 -0.0706924 0)
(0.00755019 -0.0703552 0)
(0.0145248 -0.0569434 0)
(0.0129169 -0.0586975 0)
(0.0112536 -0.0608237 0)
(0.00984505 -0.0633366 0)
(0.00891335 -0.065864 0)
(0.0084673 -0.0680996 0)
(0.00842421 -0.0698744 0)
(0.00869744 -0.0710973 0)
(0.00921455 -0.0717235 0)
(0.00991663 -0.0717393 0)
(0.0178236 -0.053658 0)
(0.0156516 -0.0548022 0)
(0.0131533 -0.0570099 0)
(0.0111343 -0.0606173 0)
(0.010149 -0.0644148 0)
(0.00995099 -0.0677113 0)
(0.0102149 -0.0702839 0)
(0.0107777 -0.0720879 0)
(0.0115426 -0.0731319 0)
(0.0124411 -0.0734468 0)
(0.0198904 -0.0502829 0)
(0.0176087 -0.0492718 0)
(0.0137274 -0.0512284 0)
(0.0115089 -0.0580064 0)
(0.0110866 -0.0637733 0)
(0.0115626 -0.0682733 0)
(0.01239 -0.0715621 0)
(0.0133519 -0.0737841 0)
(0.0143824 -0.0750689 0)
(0.0154444 -0.0755195 0)
(0.0166524 -0.0464604 0)
(0.014598 -0.0431391 0)
(0.0136711 -0.0453598 0)
(0.0139486 -0.0564233 0)
(0.0142268 -0.0646777 0)
(0.0150279 -0.0700311 0)
(0.0160975 -0.0736224 0)
(0.0171961 -0.0759599 0)
(0.0182484 -0.0772596 0)
(0.0192562 -0.077676 0)
(0.0120824 -0.0431081 0)
(0.0123086 -0.0429116 0)
(0.0140766 -0.0476571 0)
(0.0166673 -0.057729 0)
(0.0185628 -0.0669777 0)
(0.0197813 -0.0724093 0)
(0.0209029 -0.0758376 0)
(0.0219379 -0.078025 0)
(0.0228208 -0.0791844 0)
(0.0236009 -0.0794713 0)
(0.0106938 -0.0440363 0)
(0.0135258 -0.0475384 0)
(0.0172579 -0.0545986 0)
(0.0213221 -0.0641626 0)
(0.0238145 -0.071007 0)
(0.0250707 -0.0751378 0)
(0.0260779 -0.0779263 0)
(0.0268703 -0.0797017 0)
(0.0274624 -0.0805787 0)
(0.0279231 -0.0806611 0)
(0.0152259 -0.0511966 0)
(0.0201558 -0.0571811 0)
(0.0248342 -0.0639691 0)
(0.0275109 -0.0697695 0)
(0.0290847 -0.0741223 0)
(0.0300729 -0.0772071 0)
(0.0307564 -0.0793759 0)
(0.0312016 -0.0807156 0)
(0.0314678 -0.0812831 0)
(0.0316023 -0.0811425 0)
(0.0229868 -0.0615239 0)
(0.0266787 -0.0658236 0)
(0.0293565 -0.0696251 0)
(0.0312957 -0.0730661 0)
(0.0325724 -0.0761653 0)
(0.0333546 -0.0785418 0)
(0.0338376 -0.0801906 0)
(0.0340874 -0.0811298 0)
(0.0341494 -0.0813912 0)
(0.0340602 -0.0810163 0)
(0.0250518 -0.068305 0)
(0.0279294 -0.0708251 0)
(0.0302635 -0.073462 0)
(0.0320397 -0.0759892 0)
(0.0333663 -0.0781704 0)
(0.0342804 -0.0798236 0)
(0.0348435 -0.0808915 0)
(0.0351156 -0.0813609 0)
(0.0351463 -0.0812416 0)
(0.0349753 -0.0805579 0)
(0.0235381 -0.0739604 0)
(0.0263661 -0.075875 0)
(0.0287812 -0.0777279 0)
(0.0307485 -0.0793432 0)
(0.0322669 -0.0806186 0)
(0.0333611 -0.0814711 0)
(0.0340716 -0.0818482 0)
(0.0344444 -0.0817265 0)
(0.0345229 -0.0811045 0)
(0.0343448 -0.0799968 0)
(0.0211426 -0.0800858 0)
(0.0238916 -0.0812407 0)
(0.0262857 -0.0822182 0)
(0.028286 -0.0829485 0)
(0.0298792 -0.0833639 0)
(0.0310707 -0.0834082 0)
(0.0318786 -0.0830437 0)
(0.0323287 -0.0822521 0)
(0.03245 -0.0810333 0)
(0.0322723 -0.0794018 0)
(0.0178296 -0.0857057 0)
(0.0204319 -0.0862601 0)
(0.0227344 -0.0865506 0)
(0.0247008 -0.0865397 0)
(0.026307 -0.0861899 0)
(0.0275407 -0.0854706 0)
(0.0284001 -0.0843635 0)
(0.0288919 -0.0828646 0)
(0.02903 -0.080985 0)
(0.0288335 -0.0787517 0)
(0.0132955 -0.0909984 0)
(0.0157709 -0.091049 0)
(0.0179879 -0.0907524 0)
(0.0199123 -0.0900887 0)
(0.0215133 -0.0890393 0)
(0.0227663 -0.0875915 0)
(0.0236538 -0.0857432 0)
(0.0241659 -0.0835056 0)
(0.0243003 -0.080906 0)
(0.0240644 -0.0780003 0)
(0.00737625 -0.0960386 0)
(0.00973723 -0.0956469 0)
(0.0118787 -0.0948364 0)
(0.0137687 -0.0935909 0)
(0.0153716 -0.0918974 0)
(0.016651 -0.0897508 0)
(0.0175738 -0.0871612 0)
(0.0181138 -0.0841554 0)
(0.018254 -0.0807799 0)
(0.0179813 -0.0771162 0)
(-0.000110138 -0.100819 0)
(0.00212723 -0.100059 0)
(0.00419337 -0.0988205 0)
(0.00606235 -0.0970774 0)
(0.00769489 -0.0948068 0)
(0.00904165 -0.0919997 0)
(0.0100491 -0.0886714 0)
(0.0106651 -0.0848597 0)
(0.0108452 -0.0806334 0)
(0.0105501 -0.0760891 0)
(-0.00936118 -0.105284 0)
(-0.00729285 -0.104254 0)
(-0.00532999 -0.102708 0)
(-0.00347925 -0.100596 0)
(-0.00178005 -0.0978591 0)
(-0.000298479 -0.0944672 0)
(0.000880714 -0.0904166 0)
(0.00166482 -0.0857445 0)
(0.00196916 -0.080548 0)
(0.00171754 -0.0749508 0)
(-0.0205705 -0.109292 0)
(-0.0187743 -0.108113 0)
(-0.0169959 -0.106452 0)
(-0.0151867 -0.104193 0)
(-0.0133797 -0.101181 0)
(-0.0116879 -0.0973271 0)
(-0.0102461 -0.0925975 0)
(-0.00918029 -0.0870335 0)
(-0.00860963 -0.0807398 0)
(-0.00866173 -0.0738632 0)
(-0.0339162 -0.112615 0)
(-0.0325661 -0.111363 0)
(-0.0311277 -0.109867 0)
(-0.0294384 -0.107862 0)
(-0.0274992 -0.104898 0)
(-0.0255436 -0.100767 0)
(-0.0237783 -0.0954594 0)
(-0.0223545 -0.0890426 0)
(-0.0213982 -0.0816199 0)
(-0.0210425 -0.0733189 0)
(-0.0496207 -0.115004 0)
(-0.0488751 -0.113395 0)
(-0.047971 -0.112437 0)
(-0.0464888 -0.111532 0)
(-0.0443798 -0.109013 0)
(-0.0422114 -0.104766 0)
(-0.0402753 -0.09896 0)
(-0.0387021 -0.0917557 0)
(-0.0375546 -0.08331 0)
(-0.0368682 -0.0736814 0)
(-0.0687477 -0.115803 0)
(-0.0683427 -0.114297 0)
(-0.0671919 -0.114982 0)
(-0.0655685 -0.115657 0)
(-0.0636539 -0.113294 0)
(-0.0617148 -0.108753 0)
(-0.0600382 -0.10234 0)
(-0.0588156 -0.0943207 0)
(-0.0580411 -0.0850564 0)
(-0.0573954 -0.0747012 0)
(-0.0897687 -0.116124 0)
(-0.0896162 -0.116336 0)
(-0.0884605 -0.117994 0)
(-0.0872033 -0.119111 0)
(-0.0859451 -0.11683 0)
(-0.0846055 -0.112107 0)
(-0.0833843 -0.105101 0)
(-0.0826595 -0.0959701 0)
(-0.0825705 -0.0858265 0)
(-0.0825136 -0.0753194 0)
(-0.110596 -0.114723 0)
(-0.111516 -0.116846 0)
(-0.11218 -0.119605 0)
(-0.112423 -0.120618 0)
(-0.112586 -0.118659 0)
(-0.112484 -0.114401 0)
(-0.111995 -0.107061 0)
(-0.110975 -0.0964255 0)
(-0.10974 -0.0845928 0)
(-0.106908 -0.075397 0)
(-0.13007 -0.110515 0)
(-0.132925 -0.11352 0)
(-0.135863 -0.116247 0)
(-0.138504 -0.117146 0)
(-0.141404 -0.115867 0)
(-0.143928 -0.112207 0)
(-0.145664 -0.105669 0)
(-0.146914 -0.097218 0)
(-0.146432 -0.0939392 0)
(-0.140798 -0.0965274 0)
(-0.145544 -0.103572 0)
(-0.149838 -0.106261 0)
(-0.153908 -0.108613 0)
(-0.158123 -0.1094 0)
(-0.16246 -0.108705 0)
(-0.166149 -0.106236 0)
(-0.168552 -0.101898 0)
(-0.169945 -0.09679 0)
(-0.171432 -0.0940481 0)
(-0.173967 -0.0914385 0)
(-0.153379 -0.0938303 0)
(-0.158655 -0.0966341 0)
(-0.163426 -0.0987701 0)
(-0.168383 -0.0998666 0)
(-0.173133 -0.0999039 0)
(-0.177252 -0.0988721 0)
(-0.180376 -0.0969402 0)
(-0.182264 -0.0945795 0)
(-0.182992 -0.0927146 0)
(-0.182367 -0.0913963 0)
(-0.153781 -0.0836285 0)
(-0.15885 -0.0862866 0)
(-0.163919 -0.0885696 0)
(-0.168742 -0.0902439 0)
(-0.173142 -0.0912905 0)
(-0.176831 -0.0918215 0)
(-0.179527 -0.0920265 0)
(-0.18099 -0.0922554 0)
(-0.181109 -0.0929616 0)
(-0.179832 -0.0944528 0)
(-0.146766 -0.0739472 0)
(-0.151588 -0.0764333 0)
(-0.156395 -0.0789669 0)
(-0.161003 -0.0813455 0)
(-0.165173 -0.0835939 0)
(-0.168687 -0.0858167 0)
(-0.171339 -0.0881741 0)
(-0.172952 -0.0908964 0)
(-0.173404 -0.0942442 0)
(-0.172633 -0.098448 0)
(-0.132388 -0.064363 0)
(-0.137027 -0.06695 0)
(-0.14161 -0.0697456 0)
(-0.146037 -0.072735 0)
(-0.150157 -0.0759652 0)
(-0.153811 -0.0795279 0)
(-0.156842 -0.0835607 0)
(-0.159114 -0.0882352 0)
(-0.160516 -0.0937288 0)
(-0.160951 -0.100203 0)
(-0.110941 -0.0553254 0)
(-0.115235 -0.0579431 0)
(-0.119565 -0.060882 0)
(-0.123872 -0.0642147 0)
(-0.128058 -0.0680326 0)
(-0.132016 -0.0724421 0)
(-0.135643 -0.0775691 0)
(-0.13884 -0.0835695 0)
(-0.141509 -0.090615 0)
(-0.143525 -0.0988759 0)
(-0.0830096 -0.0473093 0)
(-0.0867049 -0.0497094 0)
(-0.0906156 -0.0524818 0)
(-0.0947147 -0.0557747 0)
(-0.0989185 -0.0597226 0)
(-0.103135 -0.0644257 0)
(-0.107304 -0.0699839 0)
(-0.111386 -0.0765569 0)
(-0.115325 -0.0843813 0)
(-0.118995 -0.0937426 0)
(-0.0497819 -0.040975 0)
(-0.0525775 -0.0427885 0)
(-0.0558522 -0.0448969 0)
(-0.059613 -0.0475951 0)
(-0.0637042 -0.0511061 0)
(-0.0679553 -0.0554955 0)
(-0.0723241 -0.0607637 0)
(-0.0768909 -0.0670882 0)
(-0.0816968 -0.0748874 0)
(-0.086659 -0.0846702 0)
(-0.0131195 -0.0366418 0)
(-0.0146167 -0.0372166 0)
(-0.0170224 -0.0378927 0)
(-0.0203718 -0.0394443 0)
(-0.0244215 -0.042326 0)
(-0.0287032 -0.0466838 0)
(-0.0330761 -0.0521205 0)
(-0.0378034 -0.0585789 0)
(-0.0430674 -0.0665023 0)
(-0.0487755 -0.0766099 0)
(0.0250896 -0.0363591 0)
(0.026503 -0.0354106 0)
(0.0262109 -0.0326407 0)
(0.0233254 -0.0325852 0)
(0.0183833 -0.0360571 0)
(0.0120225 -0.0412758 0)
(0.0051698 -0.0462294 0)
(-0.00188838 -0.0509833 0)
(-0.00875111 -0.056786 0)
(-0.0151324 -0.0656171 0)
(0.0583207 -0.0418578 0)
(0.0615666 -0.0421895 0)
(0.0651779 -0.0381344 0)
(0.0682364 -0.0286133 0)
(0.0627522 -0.0230747 0)
(0.0478771 -0.0290593 0)
(0.0297275 -0.0334322 0)
(0.0133007 -0.0383158 0)
(0.00184196 -0.0438366 0)
(-0.00929017 -0.0516157 0)
(0.0773238 -0.0475713 0)
(0.0782152 -0.048405 0)
(0.0789721 -0.0462608 0)
(0.0807088 -0.0342237 0)
(0.0829161 0.0202359 0)
(0.0643849 0.0286642 0)
(0.0337818 0.0409284 0)
(0.00322436 0.0310417 0)
(-0.0248037 0.0133416 0)
(-0.0482832 -0.00864749 0)
(0.0845154 -0.0477486 0)
(0.0826949 -0.0472869 0)
(0.0802716 -0.0447949 0)
(0.0735488 -0.0242659 0)
(0.0491462 0.0492559 0)
(0.0314051 0.07671 0)
(0.0138127 0.0796401 0)
(0.000504931 0.0672195 0)
(-0.0101305 0.0465759 0)
(-0.0190257 0.0158785 0)
(0.079504 -0.0410094 0)
(0.0756296 -0.0363917 0)
(0.0710726 -0.0282091 0)
(0.0464214 0.0151495 0)
(0.0161256 0.0839006 0)
(0.00331099 0.105223 0)
(0.000616058 0.0967244 0)
(0.0123846 0.0761069 0)
(0.0292022 0.0535759 0)
(0.0410374 0.0195436 0)
(0.0613769 -0.0267815 0)
(0.0552136 -0.0156672 0)
(0.0491698 0.00236212 0)
(0.0114428 0.0830838 0)
(-0.0166656 0.142625 0)
(-0.0257259 0.132695 0)
(-0.0132087 0.0726662 0)
(0.0198733 -0.00539704 0)
(0.0550905 -0.0199061 0)
(0.0873159 -0.0189877 0)
(0.034164 -0.00645014 0)
(0.0259138 0.00810021 0)
(0.0181512 0.0306072 0)
(-0.00928979 0.102433 0)
(-0.0583748 0.208003 0)
(-0.0347416 0.125286 0)
(0.0208581 -0.0117296 0)
(0.0460937 -0.0556836 0)
(0.0655283 -0.0725628 0)
(0.120232 -0.0961571 0)
(0.00680578 0.0189879 0)
(-0.00334149 0.0354467 0)
(-0.01344 0.067793 0)
(-0.096106 0.292354 0)
(-0.082692 0.125681 0)
(-0.00152855 -0.0359289 0)
(0.0518035 -0.0857128 0)
(0.0893933 -0.121914 0)
(0.135039 -0.190564 0)
(0.278694 -0.414959 0)
(-0.0150909 0.0492675 0)
(-0.0289283 0.0738804 0)
(-0.0671835 0.156833 0)
(-0.054951 0.121926 0)
(0.0296262 -0.0163493 0)
(0.0708689 -0.105438 0)
(0.109051 -0.185761 0)
(0.171073 -0.290978 0)
(0.276952 -0.436648 0)
(0.335028 -0.523149 0)
(-0.0324792 0.0743138 0)
(-0.0489248 0.101724 0)
(-0.0418538 0.190239 0)
(0.0680394 0.0296126 0)
(0.12059 -0.0745345 0)
(0.164016 -0.173959 0)
(0.216335 -0.291593 0)
(0.273637 -0.424412 0)
(0.317411 -0.516035 0)
(0.345232 -0.567601 0)
(-0.0541026 0.108877 0)
(-0.098197 0.157239 0)
(0.0155289 -0.0681889 0)
(0.105332 -0.168925 0)
(0.167607 -0.208575 0)
(0.221616 -0.284436 0)
(0.274462 -0.396891 0)
(0.312403 -0.497025 0)
(0.34033 -0.563057 0)
(0.364186 -0.609355 0)
(-0.105004 0.162486 0)
(0.0180885 -0.12324 0)
(0.0854359 -0.216652 0)
(0.117121 -0.261776 0)
(0.146275 -0.303395 0)
(0.197293 -0.375191 0)
(0.265392 -0.496743 0)
(0.310224 -0.574612 0)
(0.341453 -0.622534 0)
(0.370512 -0.660457 0)
(-0.00946507 -0.111925 0)
(0.0484126 -0.214696 0)
(0.0783415 -0.265196 0)
(0.106693 -0.309466 0)
(0.142072 -0.380371 0)
(0.203206 -0.502623 0)
(0.263282 -0.60428 0)
(0.302557 -0.655895 0)
(0.337055 -0.691003 0)
(0.370624 -0.721349 0)
(0.0250635 -0.200113 0)
(0.0584044 -0.267281 0)
(0.0840598 -0.317979 0)
(0.117832 -0.384891 0)
(0.177213 -0.498962 0)
(0.235674 -0.618601 0)
(0.278169 -0.686473 0)
(0.310798 -0.727306 0)
(0.343683 -0.759166 0)
(0.375407 -0.784655 0)
(0.0758453 -0.281764 0)
(0.0897983 -0.325014 0)
(0.115127 -0.382783 0)
(0.157633 -0.484893 0)
(0.218384 -0.621418 0)
(0.260867 -0.703907 0)
(0.290509 -0.752251 0)
(0.32034 -0.789896 0)
(0.350316 -0.820203 0)
(0.378774 -0.84197 0)
(0.11657 -0.323297 0)
(0.126223 -0.362134 0)
(0.147514 -0.440069 0)
(0.199374 -0.592875 0)
(0.237228 -0.701615 0)
(0.266426 -0.762775 0)
(0.293902 -0.80885 0)
(0.322492 -0.847087 0)
(0.350372 -0.875877 0)
(0.376041 -0.8931 0)
(0.122319 -0.324991 0)
(0.12471 -0.388708 0)
(0.154949 -0.528862 0)
(0.204113 -0.680719 0)
(0.239818 -0.76364 0)
(0.264952 -0.818482 0)
(0.292117 -0.864955 0)
(0.319574 -0.902308 0)
(0.345277 -0.927262 0)
(0.367682 -0.937649 0)
(0.156999 -0.315647 0)
(0.160776 -0.402685 0)
(0.194567 -0.612296 0)
(0.221331 -0.739676 0)
(0.242553 -0.810727 0)
(0.264726 -0.868059 0)
(0.289396 -0.916535 0)
(0.314094 -0.952346 0)
(0.336473 -0.971823 0)
(0.354784 -0.973756 0)
(0.129967 -0.305195 0)
(0.141002 -0.480591 0)
(0.183133 -0.676605 0)
(0.213756 -0.782403 0)
(0.234267 -0.853566 0)
(0.25744 -0.915094 0)
(0.281654 -0.964683 0)
(0.304434 -0.997024 0)
(0.323659 -1.009 0)
(0.338 -1.0012 0)
(0.126998 -0.315123 0)
(0.16268 -0.560565 0)
(0.189185 -0.729835 0)
(0.209683 -0.823951 0)
(0.22931 -0.897475 0)
(0.251419 -0.961347 0)
(0.273587 -1.00955 0)
(0.293479 -1.03595 0)
(0.309149 -1.03868 0)
(0.319652 -1.02045 0)
(0.117883 -0.375682 0)
(0.157949 -0.621534 0)
(0.181776 -0.772965 0)
(0.200184 -0.863186 0)
(0.221096 -0.939707 0)
(0.242881 -1.00464 0)
(0.263367 -1.04967 0)
(0.280775 -1.06867 0)
(0.293571 -1.06148 0)
(0.301197 -1.03294 0)
(0.12314 -0.442293 0)
(0.15252 -0.672991 0)
(0.175173 -0.814304 0)
(0.193069 -0.903608 0)
(0.213492 -0.981117 0)
(0.233696 -1.045 0)
(0.25208 -1.08543 0)
(0.267203 -1.09639 0)
(0.277807 -1.07942 0)
(0.283578 -1.04119 0)
(0.12204 -0.494048 0)
(0.147354 -0.721581 0)
(0.16826 -0.854298 0)
(0.185005 -0.94189 0)
(0.203763 -1.01929 0)
(0.22208 -1.0815 0)
(0.238665 -1.11717 0)
(0.252071 -1.12034 0)
(0.261215 -1.09426 0)
(0.266011 -1.04736 0)
(0.112238 -0.555396 0)
(0.138982 -0.771743 0)
(0.159146 -0.890961 0)
(0.174557 -0.977057 0)
(0.191512 -1.05417 0)
(0.20832 -1.11479 0)
(0.223474 -1.14577 0)
(0.235393 -1.14138 0)
(0.243276 -1.10691 0)
(0.24726 -1.0523 0)
(0.101139 -0.641443 0)
(0.13075 -0.821346 0)
(0.147641 -0.922545 0)
(0.162061 -1.00772 0)
(0.177737 -1.08544 0)
(0.193415 -1.14502 0)
(0.207219 -1.17124 0)
(0.217665 -1.15947 0)
(0.224385 -1.11735 0)
(0.227653 -1.05588 0)
(0.104868 -0.686047 0)
(0.12382 -0.846079 0)
(0.13457 -0.945672 0)
(0.147477 -1.03505 0)
(0.162525 -1.11505 0)
(0.177527 -1.17341 0)
(0.190227 -1.19424 0)
(0.19964 -1.17531 0)
(0.205885 -1.12658 0)
(0.209306 -1.05921 0)
(0.0642702 -0.739694 0)
(0.0901028 -0.874596 0)
(0.108823 -0.976629 0)
(0.127283 -1.06818 0)
(0.145001 -1.14743 0)
(0.160625 -1.20194 0)
(0.172898 -1.21613 0)
(0.182059 -1.19068 0)
(0.188814 -1.13681 0)
(0.193795 -1.06481 0)
(0.0480224 -0.789322 0)
(0.0704402 -0.918152 0)
(0.0923956 -1.01836 0)
(0.112725 -1.10673 0)
(0.130665 -1.18139 0)
(0.145364 -1.22976 0)
(0.156577 -1.23725 0)
(0.165494 -1.20693 0)
(0.173046 -1.14975 0)
(0.180001 -1.07422 0)
(0.0390225 -0.837633 0)
(0.0596901 -0.962831 0)
(0.081549 -1.05989 0)
(0.101194 -1.14399 0)
(0.117841 -1.21283 0)
(0.130552 -1.25451 0)
(0.140242 -1.2569 0)
(0.148901 -1.22416 0)
(0.157615 -1.16597 0)
(0.16735 -1.08881 0)
(0.0340571 -0.882416 0)
(0.053288 -1.00474 0)
(0.0732811 -1.09835 0)
(0.0908634 -1.17779 0)
(0.105208 -1.23982 0)
(0.115009 -1.27465 0)
(0.122536 -1.27407 0)
(0.130191 -1.2407 0)
(0.138656 -1.1828 0)
(0.148586 -1.1054 0)
(0.0291946 -0.92365 0)
(0.0467636 -1.04215 0)
(0.0645267 -1.1322 0)
(0.0798073 -1.20699 0)
(0.0915663 -1.26123 0)
(0.0981765 -1.28938 0)
(0.103645 -1.28829 0)
(0.110387 -1.25545 0)
(0.118191 -1.19831 0)
(0.126742 -1.12368 0)
(0.022741 -0.960825 0)
(0.0385868 -1.07497 0)
(0.0542479 -1.1616 0)
(0.0673726 -1.23159 0)
(0.0765409 -1.27675 0)
(0.0798989 -1.29858 0)
(0.0834028 -1.29939 0)
(0.0890411 -1.26792 0)
(0.0958875 -1.21107 0)
(0.102218 -1.13673 0)
(0.0148526 -0.993083 0)
(0.0291281 -1.10334 0)
(0.0430022 -1.18703 0)
(0.0540474 -1.25166 0)
(0.0607885 -1.28653 0)
(0.0611665 -1.30284 0)
(0.0629398 -1.30734 0)
(0.0669631 -1.27818 0)
(0.072078 -1.22169 0)
(0.0765956 -1.14328 0)
(0.00605525 -1.02176 0)
(0.0188889 -1.12829 0)
(0.031498 -1.20919 0)
(0.0404191 -1.26717 0)
(0.0449812 -1.29104 0)
(0.0427538 -1.30293 0)
(0.0433584 -1.31208 0)
(0.0460154 -1.28744 0)
(0.0509071 -1.23405 0)
(0.059511 -1.1489 0)
(-0.00222596 -1.04736 0)
(0.00954155 -1.15121 0)
(0.0212505 -1.22891 0)
(0.027808 -1.27805 0)
(0.0304865 -1.29088 0)
(0.0254571 -1.29889 0)
(0.0240152 -1.31114 0)
(0.0220425 -1.29126 0)
(0.0228643 -1.24147 0)
(0.0294016 -1.15079 0)
(-0.00707634 -1.0716 0)
(0.00320247 -1.17326 0)
(0.0141731 -1.24668 0)
(0.0181367 -1.28445 0)
(0.0199342 -1.28748 0)
(0.0130854 -1.29229 0)
(0.0117735 -1.30549 0)
(0.00796561 -1.29 0)
(0.00830587 -1.24428 0)
(0.0112319 -1.16793 0)
(-0.00668808 -1.09812 0)
(0.00104075 -1.19373 0)
(0.0114846 -1.26145 0)
(0.0121089 -1.28585 0)
(0.0135001 -1.28169 0)
(0.0048123 -1.28456 0)
(0.00472733 -1.29825 0)
(0.000455772 -1.28895 0)
(0.00160433 -1.24503 0)
(0.00113949 -1.19818 0)
(0.00102485 -1.12299 0)
(0.00391854 -1.20783 0)
(0.0133889 -1.27088 0)
(0.00902954 -1.28164 0)
(0.0101652 -1.27361 0)
(-0.000939335 -1.27545 0)
(-0.00026763 -1.28891 0)
(-0.00852598 -1.28709 0)
(-0.00909149 -1.2351 0)
(-0.0167366 -1.19083 0)
(0.00883437 -1.1394 0)
(0.0063054 -1.21395 0)
(0.0157933 -1.27616 0)
(0.00579911 -1.27361 0)
(0.00815898 -1.26457 0)
(-0.00447228 -1.26591 0)
(-0.00162836 -1.27849 0)
(-0.012849 -1.28727 0)
(-0.00738592 -1.22664 0)
(-0.0129302 -1.16981 0)
(0.000620701 -1.12954 0)
(-0.001699 -1.22173 0)
(0.0160144 -1.28125 0)
(0.00153465 -1.26409 0)
(0.00646994 -1.25538 0)
(-0.00708805 -1.25619 0)
(-0.00260549 -1.26741 0)
(-0.0194135 -1.28847 0)
(-0.00615899 -1.22669 0)
(-0.00780572 -1.13364 0)
(-0.000847686 -1.09165 0)
(-0.00610635 -1.23899 0)
(0.0215555 -1.28326 0)
(-0.000544104 -1.25249 0)
(0.00597424 -1.24541 0)
(-0.0083311 -1.24557 0)
(-0.00284982 -1.25418 0)
(-0.0260499 -1.28675 0)
(-0.000462628 -1.23605 0)
(-0.00359855 -1.08313 0)
(0.0108179 -1.02365 0)
(-0.0153808 -1.27288 0)
(0.0256129 -1.27963 0)
(-0.00305383 -1.2392 0)
(0.0051474 -1.2351 0)
(-0.00770611 -1.23475 0)
(-0.00119893 -1.23973 0)
(-0.0302777 -1.28136 0)
(0.0108322 -1.26621 0)
(-0.0143816 -1.01446 0)
(0.00828893 -0.00560966 0)
(0.0126697 -0.00525845 0)
(0.0167432 -0.00485608 0)
(0.0204772 -0.00441626 0)
(0.0238449 -0.00394865 0)
(0.0268257 -0.00346086 0)
(0.0294057 -0.00295996 0)
(0.0315773 -0.00245306 0)
(0.0333393 -0.0019467 0)
(0.0346963 -0.00144698 0)
(0.0356583 -0.000958189 0)
(0.0362416 -0.000481534 0)
(0.0364755 -2.12723e-05 0)
(0.0363462 0.000396195 0)
(0.0359111 0.00076643 0)
(0.0352206 0.00108112 0)
(0.0343144 0.00133597 0)
(0.0332338 0.00153222 0)
(0.0320217 0.00167309 0)
(0.0307201 0.00176185 0)
(0.029369 0.00180122 0)
(0.0280073 0.00179341 0)
(0.0266728 0.00173977 0)
(0.0254026 0.00164076 0)
(0.0242338 0.00149591 0)
(0.0232038 0.00130365 0)
(0.0223501 0.00106251 0)
(0.02171 0.000771042 0)
(0.0213191 0.000430273 0)
(0.0212106 4.73741e-05 0)
(0.0213962 -0.000361813 0)
(0.0218767 -0.000769992 0)
(0.0226147 -0.00111744 0)
(0.0235064 -0.00129267 0)
(0.0243464 -0.00109864 0)
(0.0248269 -0.000226223 0)