/*--------------------------------*- C++ -*----------------------------------*\
  =========                 |
  \\      /  F ield         | OpenFOAM: The Open Source CFD Toolbox
   \\    /   O peration     | Website:  https://openfoam.org
    \\  /    A nd           | Version:  8
     \\/     M anipulation  |
\*---------------------------------------------------------------------------*/
FoamFile
{
    version     2.0;
    format      ascii;
    class       volScalarField;
    location    "4.7";
    object      alpha.water;
}
// * * * * * * * * * * * * * * * * * * * * * * * * * * * * * * * * * * * * * //

dimensions      [0 0 0 0 0 0 0];

internalField   nonuniform List<scalar> 
9150
(
1
1
1
1
1
1
1
1
1
1
1
1
1
1
1
1
1
1
1
1
1
1
1
1
1
1
1
1
1
1
1
1
1
1
1
1
1
1
1
1
1
1
1
1
1
1
1
1
1
1
1
1
1
1
1
1
1
1
1
1
1
1
1
1
1
1
1
1
1
1
1
1
1
1
1
1
1
1
1
1
1
1
1
1
1
1
1
1
1
1
1
1
1
1
1
1
1
1
1
1
1
1
1
1
1
1
1
1
1
1
1
1
1
1
1
1
1
1
1
1
1
1
1
1
1
1
1
1
1
1
1
1
1
1
1
1
1
1
1
1
1
1
1
1
1
1
1
1
1
1
1
0.999998
0.999999
1
0.99999
0.999985
0.999985
0.999997
1
1
0.999994
0.999993
0.999998
1
1
0.999991
0.999994
1
1
1
0.999993
0.999993
0.999997
1
1
0.999992
0.999986
0.999992
1
1
0.999997
0.999999
1
1
0.999992
0.999986
0.999986
0.999997
1
1
0.999999
0.999999
0.999995
0.999988
0.999988
0.999988
0.999995
1
1
1
0.999998
0.999991
0.999991
0.999991
0.999995
0.999999
1
1
1
1
0.999993
0.999992
0.999996
0.999999
1
1
1
1
1
0.999999
0.999997
1
1
1
1
1
1
1
1
1
1
1
1
1
1
1
1
1
0.999999
0.999997
1
1
1
1
1
1
1
0.999999
0.999992
0.999992
1
1
1
1
1
0.999978
0.999971
0.999999
0.999998
0.999996
1
1
1
0.999997
0.999967
0.999957
0.999957
0.999992
0.999999
0.999999
0.999835
0.999493
0.999959
0.999996
0.999979
0.999957
0.999962
0.999999
0.999999
0.999999
0.999317
0.999321
0.999715
0.999996
0.999996
0.999991
0.999991
0.999998
0.999994
0.999978
0.999317
0.999317
0.999786
0.999996
0.999992
0.999966
0.99999
0.999991
0.999974
0.999974
0.999534
0.999326
0.999892
0.999996
0.999959
0.999936
0.999964
0.999994
0.99999
0.999983
0.999648
0.999346
0.99999
0.999987
0.999936
0.999936
0.999971
0.999994
0.999994
0.999994
0.999554
0.999597
0.999991
0.999972
0.999936
0.999951
0.999994
0.999994
0.999994
0.999994
0.999604
0.999987
0.999991
0.999991
0.999982
0.999992
0.999994
0.999994
0.999994
0.994688
0.99996
0.999991
0.999991
0.999991
0.99999
0.999992
0.999994
0.969618
0.943869
0.995274
0.99999
0.99999
0.999991
0.999991
0.999985
0.969128
0.927325
0.928735
0.940719
0.996059
0.999825
0.99999
0.999984
0.96871
0.925169
0.925293
0.926356
0.926898
0.975946
0.995892
0.998991
0.990459
0.936302
0.925367
0.925036
0.925367
0.925585
0.969241
0.995749
0.995824
0.996763
0.94552
0.925843
0.925605
0.925367
0.927029
0.98751
0.997347
0.996057
0.995542
0.998907
0.95598
0.926141
0.925843
0.935538
0.997319
0.998765
0.998263
0.997752
0.866799
0.999817
0.9916
0.95811
0.953006
0.992682
0.99934
0.999142
0.998845
0.877758
0.587841
0.999846
0.999417
0.999322
0.999346
0.999932
0.999578
0.999236
0.911027
0.600767
0.587556
0.999945
0.999753
0.999865
0.999993
0.99999
0.999924
0.99943
0.915199
0.594605
0.586838
0.99977
0.999771
0.99993
0.999996
0.999999
0.999978
0.999473
0.988232
0.8768
0.675998
0.99977
0.99977
0.999774
0.999939
1
0.999999
0.999941
0.999851
0.999306
0.974007
0.999771
0.99977
0.999771
0.99984
1
1
1
0.999996
0.999955
0.999815
0.999936
0.999802
0.999774
0.999958
1
1
1
1
0.999998
0.999994
0.999997
0.999985
0.999978
0.999999
1
1
0.999999
0.999999
0.999999
0.999999
1
0.999999
0.999999
1
1
1
0.999999
0.999999
0.999999
1
1
0.999999
0.999999
1
1
1
1
0.999999
1
1
1
1
1
1
1
1
1
1
1
1
1
1
1
1
1
1
1
1
0.999695
0.969121
1
1
1
1
0.999995
0.999987
0.965481
0.802345
0.793041
0.792272
0.999896
0.974657
0.901857
0.901702
0.902028
0.902509
0.953339
0.968738
0.89925
0.854231
0.901617
0.901618
0.901618
0.901618
0.901664
0.95575
0.999916
0.999999
0.999604
0.998545
0.901658
0.901646
0.910661
0.994573
0.998518
0.991754
0.996951
0.999999
1
0.999999
0.901674
0.969805
0.999998
1
1
1
1
0.999999
1
1
0.99195
0.998786
0.999997
0.999998
1
0.999999
0.999999
1
1
1
0.999978
0.999959
0.999755
0.999274
0.999046
0.999704
1
1
1
1
0.999995
0.999993
0.999886
0.987724
0.97633
0.995358
1
1
1
1
0.999998
0.999954
0.988169
0.976139
0.976146
0.982602
1
1
1
1
0.999991
0.997599
0.977471
0.976139
0.976137
0.97616
0.991511
1
1
1
0.999997
0.999393
0.982549
0.976138
0.976139
0.976151
0.983668
1
1
1
0.999752
0.99978
0.999462
0.983392
0.976151
0.976207
0.990821
1
1
1
0.999258
0.999801
0.999957
0.9996
0.994835
0.9918
0.998762
1
1
1
0.999292
0.999886
0.999959
0.999961
0.999991
0.999991
0.999992
0.999993
0.999994
0.999993
0.999937
0.999878
0.999367
0.999367
0.99987
0.999991
0.999978
0.999874
0.99976
0.999693
0.989795
0.989719
0.999688
0.999696
0.999705
0.999579
0.998243
0.990394
0.969492
0.93411
0.95009
0.983819
0.999686
0.999688
0.995319
0.952502
0.886104
0.805743
0.753219
0.757454
0.969626
0.983749
0.982926
0.822865
0.691548
0.694632
0.724611
0.72438
0.737548
0.83723
0.823352
0.549629
0.53272
0.53276
0.558232
0.943759
0.957658
0.943293
0.976723
0.996285
0.468263
0.475673
0.627767
0.98269
0.999108
0.999105
0.999105
0.999098
0.998994
0.997075
0.535893
0.944134
0.987984
0.999109
0.999109
0.999108
0.9991
0.998994
0.941539
0.74816
0.949925
0.997327
0.999109
0.999109
0.999109
0.999101
0.983446
0.756745
0.37129
0.095586
0.999107
0.999109
0.999109
0.999109
0.999106
0.973578
0.590878
0.11752
0.00130315
0.00126084
0.999108
0.999108
0.999109
0.999107
0.981126
0.529467
0.00935208
0.00129149
0.00126088
0.00125963
0.998366
0.999109
0.999107
0.999027
0.510878
0.00402082
0.0015469
0.00136838
0.00127412
0.00126085
0.997324
0.999099
0.999078
0.62054
0.0264369
0.00399965
0.00221135
0.00146857
0.00134713
0.00125459
0.998816
0.999065
0.796777
0.112985
0.00632594
0.00450669
0.00416942
0.0323109
0.0261818
0.0027408
0.998808
0.973954
0.392529
0.0208648
0.00731395
0.019821
0.29313
0.625755
0.531617
0.0915893
0.998797
0.926039
0.428139
0.185161
0.2483
0.54491
0.937783
0.954133
0.886747
0.471371
0.998785
0.983651
0.902388
0.913569
0.961715
0.986531
0.979152
0.9691
0.638008
0.605818
0.998748
0.996674
0.997575
0.997584
0.997517
0.995917
0.926671
0.607695
0.438573
0.54927
0.998662
0.99807
0.997575
0.997559
0.996523
0.825152
0.397748
0.364695
0.415028
0.822835
0.989446
0.991749
0.997563
0.996938
0.778978
0.320964
0.329668
0.338304
0.822592
0.995253
0.860322
0.982863
0.996867
0.855101
0.318598
0.320069
0.32091
0.722981
0.993877
0.998869
0.746065
0.978595
0.972402
0.387849
0.314674
0.315334
0.448499
0.943271
0.998155
0.99962
0.779357
0.968563
0.551862
0.30814
0.311912
0.31273
0.873341
0.99699
0.99947
0.99991
0.906021
0.894254
0.338427
0.304473
0.30814
0.697393
0.995044
0.999153
0.999864
0.999968
0.911898
0.574122
0.280581
0.291198
0.411117
0.925301
0.998307
0.999728
0.999956
0.999991
0.927297
0.34147
0.267237
0.280581
0.88905
0.997947
0.999676
0.999953
0.999992
0.999998
0.725546
0.224366
0.230301
0.712438
0.994573
0.999489
0.999929
0.999989
0.999998
1
0.343645
0.184915
0.431253
0.962695
0.999211
0.999891
0.999986
0.999998
1
1
0.133162
0.151296
0.878674
0.998678
0.999834
0.999983
0.999997
1
1
1
0.099432
0.400474
0.969968
0.999546
0.999949
0.999994
0.999999
1
1
1
0.0884277
0.720507
0.998596
0.999868
0.999987
0.999999
1
1
1
1
0.0797027
0.857558
0.999319
0.999949
0.999996
0.999999
1
1
1
1
0.265019
0.951957
0.999798
0.999986
0.999999
1
1
1
1
1
0.385714
0.981632
0.99993
0.999996
1
1
1
1
1
1
0.468945
0.993932
0.999972
0.999999
1
1
1
1
1
1
0.554112
0.998328
0.999989
1
1
1
1
1
1
1
0.633207
0.999846
0.999996
1
1
1
1
1
1
1
0.675225
0.999499
0.999992
1
1
1
1
1
1
1
0.691591
0.997566
0.99997
1
1
1
1
1
1
1
0.674983
0.996972
0.999965
0.999999
1
1
1
1
1
0.999136
0.637701
0.99774
0.999977
1
1
1
1
1
1
0.962571
0.624948
0.999564
0.999995
1
1
0.999999
1
1
1
0.929696
0.670251
0.999889
0.999998
1
1
1
1
1
1
0.885412
0.742318
0.999936
0.999999
1
1
1
1
1
1
0.856194
0.793637
0.999969
0.999999
1
1
1
1
1
1
0.83959
0.819112
0.999986
1
1
1
1
1
1
0.999968
0.836706
0.848935
0.999997
1
1
1
1
1
1
1
0.860011
0.865674
1
1
1
1
1
1
1
1.00001
0.883011
0.904005
1
1
1
1
1
1
1
1
0.916658
0.950361
1
1
1
1
1
1
1
1
0.955245
1
1
1
1
1
1
1
1
0.999995
0.999986
1
1
1
1
1
1
1
1
1
1
1
1
1
0.999999
0.999823
0.999737
0.999737
0.999924
0.999999
1
1
0.999998
0.999997
1
1
1
1
0.999968
0.999906
0.999906
1
1
1
1
1
1
1
0.999992
0.999985
0.999985
0.999994
1
1
1
1
1
1
1
1
1
1
1
1
0.999999
1
1
0.999731
0.999583
0.999702
0.999991
1
0.999999
0.999997
0.999999
1
1
1
1
0.999986
0.999957
1
1
0.999998
1
1
0.999999
0.999986
0.999985
0.999985
0.999999
1
1
1
1
1
0.999999
0.999999
0.999999
1
1
1
1
1
1
1
0.999987
0.99968
0.999583
0.999583
0.999865
1
1
0.999999
0.999999
1
1
1
1
1
1
1
0.999999
0.999998
1
0.999999
0.999992
0.999986
0.999996
0.999995
0.999999
1
1
1
1
0.999999
0.999998
0.999999
0.999999
0.999998
0.999999
1
1
1
0.999999
0.999964
0.999738
0.999584
0.999583
0.999756
0.999999
1
1
1
1
1
1
1
1
1
1
0.999999
0.999998
1
1
0.999996
0.999992
0.999996
0.999996
0.999996
1
1
1
1
0.999998
0.999997
0.999996
0.999979
0.999961
0.999972
1
1
1
0.999986
0.999903
0.999655
0.99964
0.999669
0.999953
1
1
1
1
1
1
1
1
1
1
1
1
0.999998
0.999997
1
1
0.999999
0.999996
0.999995
0.999995
0.999998
1
1
0.999998
0.999996
0.999997
0.999988
0.999907
0.999879
0.999887
0.999997
1
1
0.99997
0.99977
0.999746
0.99976
0.999928
0.999997
0.999997
0.999998
1
1
0.999997
0.999929
0.999648
0.998468
0.997097
0.989604
0.99603
0.99794
0.99729
0.999997
0.999997
0.999999
1
1
0.999997
0.999995
0.999997
1
1
1
1
0.999971
0.999853
0.999853
0.999853
0.99997
0.999997
0.999997
0.999981
0.999889
0.999787
0.999737
0.999863
0.999939
0.999947
0.999948
0.999962
0.999993
1
1
0.999982
0.995398
0.985902
0.978391
0.978815
0.978803
0.978852
0.980789
0.980833
0.999998
0.999997
0.999999
0.999998
0.999997
0.999998
1
1
1
0.999989
0.99988
0.999861
0.999861
0.999883
0.999995
0.999994
0.999993
0.999947
0.999483
0.999326
0.999455
0.999786
0.999759
0.999248
0.996964
0.99626
0.998366
1
1
1
0.999993
0.999829
0.985946
0.97617
0.976177
0.980019
0.98021
0.978786
0.978786
0.97879
0.999996
0.999998
0.999998
0.999996
0.999998
0.999998
0.999993
0.999911
0.999891
0.999891
0.999891
0.999972
0.999995
0.999995
0.999995
0.999723
0.996695
0.993799
0.995508
0.999551
0.99955
0.999272
0.995931
0.988604
0.986435
0.986765
0.998427
1
1
0.999999
0.999973
0.996435
0.984587
0.976167
0.978824
0.99084
0.99084
0.988223
0.994103
0.99374
0.999992
0.999997
0.999998
0.999997
0.999954
0.99991
0.99991
0.99991
0.999949
0.999995
0.999995
0.999995
0.999995
0.999941
0.997403
0.981632
0.97742
0.983387
0.999477
0.999507
0.998193
0.987381
0.986781
0.986772
0.988728
0.998439
1
1
1
0.999998
0.999993
0.987693
0.976167
0.976167
0.976167
0.989421
0.990732
0.994787
0.994787
0.994787
0.999996
0.999996
0.999954
0.999928
0.999928
0.999936
0.999992
0.999992
0.999992
0.999989
0.99993
0.999579
0.979402
0.965346
0.965316
0.965974
0.995085
0.999402
0.999475
0.999005
0.990048
0.987498
0.989534
0.998213
0.998542
0.999139
0.999998
1
0.999999
0.999997
0.99999
0.999322
0.988992
0.977785
0.976184
0.97621
0.976265
0.982387
0.983454
0.988898
0.999992
0.999933
0.999927
0.99993
0.999979
0.999981
0.999992
0.999854
0.982897
0.967263
0.967263
0.967263
0.967279
0.991663
0.99984
0.99984
0.999535
0.989264
0.976358
0.979308
0.994119
0.994198
0.991111
0.966202
0.940905
0.938533
0.978065
0.999995
0.999995
0.999993
0.999955
0.999874
0.999868
0.999897
0.995977
0.989856
0.989181
0.991071
0.991267
0.991757
0.999958
0.999927
0.999927
0.999933
0.999979
0.99978
0.978533
0.967489
0.967396
0.967283
0.988344
0.999366
0.998957
0.999583
0.99984
0.997973
0.963842
0.917455
0.917994
0.962857
0.994189
0.976694
0.905263
0.904334
0.904178
0.904762
0.909811
0.965117
0.962043
0.964468
0.996299
0.999867
0.999877
0.999972
0.999984
0.999986
0.999986
0.999986
0.999981
0.999728
0.999965
0.999965
0.999964
0.999953
0.994658
0.96831
0.96821
0.968255
0.995161
0.999133
0.999125
0.99938
0.99938
0.996771
0.940427
0.916734
0.916676
0.916796
0.935516
0.991165
0.939532
0.906418
0.905392
0.914129
0.984879
0.99936
0.972703
0.877925
0.855405
0.853713
0.853008
0.917559
0.965866
0.992993
0.999451
0.999984
0.999986
0.999987
0.999973
0.999957
0.999977
0.999976
0.999954
0.994527
0.970079
0.968818
0.976984
0.999242
0.999269
0.999265
0.999323
0.99938
0.962226
0.91693
0.916803
0.916707
0.933989
0.999755
0.99969
0.995584
0.926926
0.906921
0.981865
0.999937
0.999937
0.999937
0.99993
0.999921
0.968736
0.854272
0.75663
0.746804
0.742738
0.830238
0.922054
0.969026
0.982633
0.990698
0.999232
0.999863
0.999989
0.999985
0.999837
0.983023
0.97042
0.975992
0.998192
0.998997
0.981889
0.902675
0.897056
0.945747
0.999947
0.99647
0.986668
0.983689
0.996058
0.999953
0.999722
0.99736
0.99849
0.999933
0.999936
0.999937
0.999937
0.999936
0.999934
0.999928
0.99992
0.999888
0.999684
0.895156
0.706613
0.665757
0.665757
0.766075
0.935414
0.950593
0.940404
0.937802
0.999994
0.99999
0.999928
0.987508
0.972602
0.991214
0.99093
0.910933
0.894592
0.894592
0.894592
0.951468
0.999951
0.999957
0.999957
0.999957
0.999957
0.999958
0.999879
0.999707
0.999769
0.999843
0.999933
0.999936
0.999936
0.999882
0.999613
0.999919
0.999876
0.999836
0.999816
0.999663
0.979389
0.731906
0.666297
0.694828
0.989208
0.991909
0.906251
0.892974
0.999852
0.999591
0.9974
0.99516
0.994455
0.961432
0.894779
0.894779
0.894686
0.902345
0.996083
0.998136
0.998121
0.999957
0.999957
0.999957
0.999958
0.999958
0.999815
0.998245
0.997439
0.999584
0.99931
0.999501
0.999883
0.999869
0.996161
0.989519
0.999842
0.999805
0.999737
0.999719
0.999555
0.973504
0.710801
0.645183
0.972254
0.999393
0.999787
0.9822
0.993144
0.995709
0.997275
0.996978
0.955983
0.894574
0.894769
0.894779
0.972645
0.999814
0.999954
0.999947
0.999883
0.999955
0.999957
0.999957
0.999957
0.999958
0.999956
0.999655
0.989287
0.917192
0.858827
0.870618
0.952303
0.99365
0.996132
0.940978
0.877797
0.980234
0.999719
0.999709
0.999483
0.854747
0.453047
0.151544
0.448276
0.973888
0.999805
0.999805
0.996196
0.996486
0.996938
0.9688
0.893771
0.89418
0.89456
0.975215
0.999935
0.999954
0.999955
0.999955
0.999956
0.999956
0.999957
0.999957
0.999957
0.999957
0.999956
0.999877
0.985636
0.790566
0.746271
0.746404
0.746285
0.845939
0.944183
0.942597
0.675277
0.580874
0.750621
0.800484
0.727947
0.374205
0.0604529
0.0683456
0.208981
0.911637
0.999804
0.999805
0.996167
0.996199
0.988689
0.901844
0.893786
0.893785
0.936247
0.999916
0.999922
0.999927
0.999566
0.999299
0.999752
0.999957
0.999957
0.999957
0.999957
0.999955
0.999952
0.999904
0.995299
0.85106
0.746247
0.746427
0.746305
0.74643
0.853632
0.940431
0.691222
0.373237
0.280527
0.238458
0.117983
0.0396235
0.0459867
0.0862666
0.727278
0.987693
0.998073
0.999804
0.996059
0.996002
0.955607
0.893835
0.893785
0.893832
0.969374
0.999926
0.999925
0.999922
0.999479
0.999299
0.999299
0.999644
0.999957
0.999957
0.99991
0.999844
0.999902
0.999903
0.999886
0.999661
0.900126
0.771993
0.74643
0.752647
0.832628
0.800104
0.398407
0.0775935
0.025219
0.0257167
0.0309481
0.0363094
0.0586047
0.521653
0.977856
0.999703
0.999775
0.9998
0.995892
0.995707
0.973538
0.902206
0.893835
0.897473
0.996482
0.999928
0.999927
0.999717
0.999585
0.999401
0.999633
0.99977
0.999821
0.999619
0.999426
0.999864
0.999903
0.999899
0.999775
0.99913
0.994849
0.984983
0.862687
0.742629
0.374566
0.11867
0.0224177
0.0227011
0.0238699
0.0240547
0.0257832
0.0706522
0.484954
0.944979
0.999656
0.999619
0.999688
0.999741
0.961355
0.927638
0.99981
0.984331
0.944036
0.964896
0.999933
0.999934
0.999928
0.997522
0.988971
0.988881
0.991998
0.998984
0.99528
0.993621
0.999603
0.999877
0.999899
0.999843
0.997016
0.880828
0.745392
0.811003
0.827811
0.397455
0.0229125
0.0228295
0.0226168
0.0228488
0.0231679
0.0228415
0.132815
0.565446
0.945815
0.999872
0.999712
0.999656
0.993809
0.997428
0.609719
0.918877
0.999896
0.999882
0.999838
0.999931
0.999936
0.999937
0.999935
0.9982
0.988877
0.988877
0.988841
0.988788
0.988657
0.988651
0.998236
0.999859
0.999849
0.999296
0.917346
0.398263
0.21839
0.599489
0.420629
0.0230324
0.0229997
0.0229187
0.0228082
0.0231023
0.0333414
0.265383
0.711737
0.978538
0.999941
0.999889
0.999329
0.997798
0.974239
0.99529
0.589221
0.772988
0.999912
0.999934
0.999936
0.999937
0.999937
0.999937
0.999937
0.999891
0.998561
0.995344
0.993761
0.995648
0.995397
0.983879
0.958408
0.98744
0.999402
0.97735
0.50381
0.164844
0.177592
0.335071
0.0406173
0.0226167
0.0230339
0.0229641
0.0231323
0.0964227
0.461585
0.863532
1
0.999991
0.999969
0.999751
0.997662
0.984063
0.974213
0.994772
0.587879
0.589773
0.847125
0.999935
0.999937
0.999937
0.999937
0.999937
0.999937
0.999937
0.999937
0.999937
0.999937
0.999069
0.995702
0.994893
0.901071
0.781545
0.894063
0.656308
0.159948
0.158473
0.245985
0.121678
0.0233708
0.0230726
0.0230371
0.0292311
0.253985
0.701843
0.964932
1
1
0.999987
0.999589
0.999286
0.996679
0.974213
0.974213
0.994776
0.587282
0.587879
0.588541
0.695879
0.882466
0.973972
0.998388
0.999937
0.999937
0.999937
0.999937
0.999937
0.999937
0.99969
0.999373
0.99949
0.956988
0.701662
0.393534
0.177006
0.110514
0.263623
0.485633
0.0876329
0.0235655
0.0233948
0.0642308
0.466894
0.893803
1
1
1
0.999998
0.999849
0.999228
0.999215
0.996592
0.974217
0.974213
0.994758
0.586802
0.587283
0.587825
0.588569
0.591382
0.76263
0.991443
0.999937
0.999937
0.999937
0.999937
0.999937
0.999937
0.999932
0.999926
0.999899
0.999536
0.799093
0.168389
0.094679
0.0958718
0.426994
0.820842
0.266455
0.0240084
0.113244
0.699821
0.992788
1
1
1
1
0.999994
0.999812
0.999671
0.999746
0.998365
0.984834
0.974217
0.992659
0.890926
0.78145
0.697622
0.661037
0.711296
0.85408
0.985209
0.999937
0.999427
0.997341
0.999355
0.999937
0.99854
0.994706
0.996634
0.999574
0.999115
0.818284
0.158099
0.0945483
0.094679
0.357936
0.848218
0.793028
0.450871
0.798162
1
1
1
0.999998
0.999999
0.999999
0.999993
0.999961
0.999995
0.999995
0.999746
0.999377
0.974243
0.97453
0.999564
0.99668
0.985215
0.977498
0.984135
0.993328
0.993596
0.999158
0.999383
0.995648
0.993881
0.986801
0.983513
0.983545
0.98558
0.998312
0.996459
0.659776
0.094544
0.0945491
0.0945491
0.402765
0.906523
0.951177
0.995073
1
1
1
0.99999
0.999986
1
0.999999
0.999996
0.999995
0.999996
0.999996
0.999996
0.999893
0.976183
0.974081
0.999988
0.99998
0.99998
0.999983
0.99999
0.999996
0.999986
0.999752
0.999659
0.997658
0.990671
0.983517
0.983514
0.983601
0.98862
0.995661
0.906366
0.263868
0.0955933
0.0945484
0.186575
0.840173
0.989087
0.987702
0.999995
0.999999
1
0.999997
0.999984
0.999985
1
0.999991
0.99997
0.999988
0.999991
0.999996
0.999996
0.999802
0.99288
0.974081
0.999998
0.999996
0.999995
0.999997
1
1
0.999999
1
0.999971
0.999836
0.995692
0.983533
0.983517
0.984559
0.989396
0.983417
0.492952
0.0973459
0.0951252
0.158412
0.836195
0.999858
0.998694
0.999434
0.999991
0.999991
0.999989
0.999996
0.999987
0.999996
0.999998
0.999973
0.999967
0.999967
0.999971
0.999997
0.999997
0.999839
0.997271
0.974081
0.999998
0.999996
0.999996
0.999997
1
1
1
1
1
0.999999
0.999659
0.993368
0.988931
0.991641
0.990816
0.696836
0.103718
0.100842
0.169108
0.851303
0.999858
0.999863
0.999868
0.999868
0.999569
0.996742
0.999264
0.999999
0.999999
0.999999
0.999997
0.999967
0.999967
0.999967
0.999975
0.999998
0.999998
0.999928
0.995649
0.974082
1
1
1
1
1
1
1
1
1
0.999998
0.999986
0.999965
0.999767
0.999401
0.811888
0.182808
0.113048
0.162997
0.831675
0.999666
0.99956
0.999727
0.999868
0.999775
0.968579
0.927087
0.956638
0.997663
0.999999
0.999999
0.999999
0.999982
0.999967
0.999972
0.999997
0.999998
0.999998
0.999977
0.993915
0.974089
1
1
1
0.994266
1
1
1
1
1
1
0.999999
0.999995
0.999888
0.899546
0.278663
0.121073
0.141183
0.74524
0.999666
0.999682
0.999683
0.99984
0.99983
0.98164
0.910266
0.910334
0.910428
0.978281
0.999999
0.999999
0.999999
0.999995
0.999976
0.999994
0.999998
0.999998
0.999998
0.999996
0.993993
0.974139
0.877062
0.8272
0.840081
0.833298
0.864191
0.876108
0.858462
0.984095
1
1
0.999998
0.999946
0.93985
0.371172
0.105475
0.119324
0.611767
0.997799
0.997946
0.996711
0.999892
0.999882
0.993788
0.925652
0.910215
0.910266
0.910338
0.97088
0.999999
0.999999
0.999999
0.999995
0.999991
0.999996
0.999998
0.999998
0.999998
0.999997
0.997069
0.978296
0.792047
0.792169
0.793484
0.772321
0.736161
0.734339
0.734452
0.823187
1
0.999999
0.999973
0.972164
0.464294
0.0863814
0.0930921
0.414716
0.967138
0.974463
0.961142
0.995024
0.999911
0.999891
0.963468
0.910128
0.910182
0.910218
0.918364
0.997216
0.999999
0.999998
0.999995
0.999989
0.999983
0.99999
0.999995
0.999998
0.999997
0.999977
0.999209
0.997814
0.868069
0.940811
0.979255
0.928094
0.741847
0.734339
0.734339
0.741518
0.999863
0.999974
0.99756
0.602462
0.0679406
0.0767773
0.244764
0.851328
0.943295
0.918955
0.904068
0.976243
0.999922
0.999833
0.948128
0.9102
0.910218
0.910284
0.971625
0.999991
0.999952
0.999981
0.999957
0.99993
0.999916
0.999938
0.999973
0.999993
0.999994
0.999834
0.999818
0.998983
0.998504
0.999995
0.999994
0.999545
0.924961
0.750413
0.734453
0.879138
0.998134
0.99982
0.826699
0.14511
0.0630667
0.127382
0.747849
0.979328
0.850472
0.840694
0.90458
0.999923
0.999923
0.999922
0.967608
0.910053
0.910279
0.916792
0.996256
0.99999
0.999833
0.997425
0.99962
0.999443
0.999398
0.999544
0.999809
0.999959
0.999986
0.999567
0.996282
0.971521
1
1
1
0.999997
0.997696
0.95982
0.943425
0.997047
0.997853
0.955892
0.415672
0.0324009
0.0598132
0.427486
0.996241
0.979708
0.840593
0.840544
0.948515
0.99992
0.999922
0.999917
0.99628
0.940011
0.91035
0.972405
0.999597
0.999921
0.999912
0.989443
0.970449
0.987622
0.993495
0.996535
0.998627
0.99972
0.999941
0.999292
0.956859
0.911805
1
1
1
1
0.999997
0.999194
0.95081
0.936369
0.923318
0.573669
0.0505797
0.0302799
0.198715
0.830181
0.99659
0.99652
0.964706
0.98461
0.999689
0.999695
0.999666
0.999884
0.998692
0.996008
0.984314
0.997097
0.999648
0.999767
0.999905
0.998005
0.7178
0.513258
0.58622
0.748939
0.947185
0.998093
0.999022
0.998749
0.912963
0.911805
1
1
1
0.999999
0.999977
0.960489
0.584726
0.339284
0.312008
0.087939
0.0302402
0.0301368
0.135994
0.797474
0.998231
0.998434
0.998563
0.998628
0.999431
0.999689
0.991495
0.964537
0.957271
0.98998
0.999387
0.999429
0.999379
0.999585
0.999846
0.999829
0.618488
0.0688114
0.0534095
0.154459
0.471341
0.921653
0.991811
0.998683
0.91181
0.9118
1
0.999999
0.999999
0.999992
0.999828
0.826945
0.191959
0.0309129
0.0303606
0.0301485
0.0300681
0.0298922
0.0298086
0.272306
0.797367
0.998231
0.998458
0.998554
0.999307
0.999549
0.995046
0.624345
0.651792
0.949603
0.999296
0.999493
0.999498
0.99976
0.999824
0.999807
0.675713
0.0540223
0.0342091
0.0341352
0.0715637
0.566776
0.9651
0.998628
0.914561
0.911806
1
1
0.999999
0.999993
0.999865
0.911796
0.27226
0.0304199
0.0302118
0.0299416
0.0301442
0.0301433
0.0298916
0.0299464
0.0760062
0.12727
0.41257
0.891727
0.995694
0.999442
0.998419
0.4593
0.492412
0.918506
0.999048
0.999526
0.999698
0.999781
0.999804
0.999793
0.775705
0.0964988
0.0341352
0.0339788
0.0339822
0.178377
0.861505
0.997747
0.972957
0.911846
1
1
1
0.999998
0.999988
0.999997
0.922985
0.32541
0.0304044
0.0302173
0.0302324
0.0300732
0.0300385
0.0299464
0.0302021
0.0309819
0.0323025
0.119896
0.797599
0.998419
0.976481
0.337786
0.48773
0.933273
0.998916
0.999537
0.999658
0.999774
0.999789
0.99978
0.819098
0.126489
0.0342288
0.033986
0.0339811
0.0437881
0.695514
0.996653
0.999068
0.912167
0.999999
0.999999
0.999999
0.999999
1
1
1
1
0.802726
0.354233
0.139055
0.0778885
0.0433429
0.0314528
0.0319396
0.0322724
0.0331195
0.0861483
0.727392
0.987132
0.879496
0.221071
0.496549
0.967253
0.998918
0.999521
0.999592
0.999744
0.999776
0.999775
0.852027
0.152116
0.0343322
0.0340006
0.033986
0.0340013
0.570738
0.997654
0.999232
0.92385
0.999996
0.999991
0.999999
1
1
1
1
1
1
1
0.991309
0.939059
0.733287
0.405281
0.220436
0.180607
0.323216
0.856331
0.984284
0.974419
0.617861
0.174145
0.378195
0.919544
0.998043
0.999358
0.999535
0.999707
0.99977
0.999771
0.922643
0.227167
0.0337678
0.0340172
0.0340011
0.0340175
0.532646
0.99801
0.999486
0.935335
0.999997
0.999989
0.999994
1
1
1
1
1
1
1
0.999997
0.999997
0.999998
0.999998
0.999998
0.999997
0.999994
0.999991
0.999989
0.566659
0.174145
0.171933
0.171069
0.609785
0.989218
0.998774
0.999471
0.999704
0.999766
0.99977
0.999579
0.474935
0.0362114
0.0338168
0.0340181
0.0339036
0.627178
0.999487
0.999724
0.937856
0.999998
0.999992
0.99999
0.999998
0.999999
0.999998
0.999998
0.999997
0.999996
0.999997
0.999994
0.999996
0.999997
0.999998
0.999999
0.999994
0.999991
0.999989
0.878758
0.288088
0.171932
0.170377
0.171069
0.256497
0.840174
0.996931
0.999267
0.999613
0.999758
0.999766
0.999759
0.848209
0.156094
0.035068
0.0341621
0.0861132
0.844114
0.999726
0.999849
0.938078
0.999984
0.999975
0.999973
0.999981
0.999974
0.999955
0.999929
0.999898
0.999771
0.999419
0.99965
0.999719
0.999915
0.99999
0.999968
1.00002
0.999913
0.999932
0.998633
0.881315
0.388773
0.171605
0.17042
0.174135
0.528423
0.97911
0.998464
0.999508
0.999706
0.999758
0.999751
0.999736
0.618349
0.0577662
0.0352307
0.371142
0.970368
0.999858
0.999889
0.93968
0.999572
0.997671
0.993876
0.989847
0.982951
0.968442
0.954566
0.943296
0.928641
0.921854
0.932944
0.971177
0.997932
0.999434
0.977551
0.930592
0.913976
0.940278
0.980047
0.980428
0.980428
0.73998
0.223472
0.17692
0.281882
0.808949
0.995403
0.998896
0.999527
0.999692
0.999736
0.999623
0.98792
0.412213
0.16178
0.745913
0.999548
0.999894
0.999899
0.943416
0.899762
0.871745
0.858152
0.854184
0.84631
0.848871
0.852646
0.85472
0.857601
0.862442
0.866832
0.917772
0.987701
0.979419
0.840691
0.831877
0.830003
0.830066
0.829837
0.933291
0.968358
0.96365
0.939595
0.403974
0.298289
0.471838
0.921204
0.99548
0.998787
0.99746
0.997394
0.999325
0.999423
0.888377
0.876323
0.974113
0.999904
0.999904
0.999901
0.94839
0.766598
0.779907
0.784266
0.797384
0.840065
0.873263
0.897798
0.916509
0.9469
0.934535
0.931581
0.976209
0.986701
0.95688
0.912906
0.924192
0.921268
0.855377
0.827987
0.826298
0.826986
0.913306
0.950152
0.943906
0.652662
0.486208
0.599355
0.912478
0.898526
0.864954
0.928969
0.99661
0.999666
0.999887
0.999901
0.999902
0.999903
0.999902
0.999902
0.951148
0.891968
0.939024
0.974718
0.995547
0.997058
0.998631
0.999516
0.999844
0.999943
0.999974
0.999988
0.999994
0.999996
0.999996
0.999996
0.999996
0.999996
0.999996
0.997174
0.892855
0.827294
0.828704
0.831337
0.901255
0.970694
0.973099
0.980452
0.547948
0.378706
0.365666
0.66297
0.975275
0.998752
0.999764
0.999891
0.999901
0.999902
0.999902
0.999901
0.951594
0.995791
0.994861
0.989724
0.984508
0.995547
0.997058
0.998631
0.997655
0.999315
0.999877
0.999983
0.999993
0.999995
0.999996
0.999996
0.999996
0.999996
0.999996
0.999996
0.999996
0.999996
0.89147
0.831478
0.87987
0.986607
0.997034
0.998618
0.99921
0.849466
0.288189
0.2546
0.253743
0.721382
0.99914
0.999778
0.999883
0.999901
0.999901
0.999901
0.950005
0.979183
0.908505
0.801742
0.713938
0.671265
0.763634
0.906336
0.979824
0.996049
0.999151
0.999839
0.999979
0.999993
0.999995
0.999996
0.999996
0.999996
0.999996
0.999996
0.999996
0.999996
0.999996
0.999995
0.999244
0.994041
0.994586
0.999128
0.999476
0.999624
0.774852
0.242305
0.231116
0.230573
0.46439
0.969248
0.999667
0.999658
0.999667
0.9999
0.945512
0.485431
0.240418
0.101333
0.039488
0.0307378
0.142771
0.636852
0.973155
0.995053
0.998924
0.999746
0.999947
0.999983
0.999993
0.999995
0.999996
0.999996
0.999996
0.999996
0.999996
0.999996
0.999996
0.999995
0.999994
0.999979
0.997897
0.997953
0.999596
0.999891
0.999642
0.690558
0.230688
0.22345
0.2193
0.552561
0.987651
0.999078
0.996632
0.998409
0.938233
0.00126064
0.00126549
0.00132507
0.00134542
0.0014288
0.00239715
0.44529
0.969856
0.99654
0.999152
0.999739
0.999918
0.999961
0.999984
0.999992
0.999993
0.999991
0.999991
0.999991
0.999985
0.999978
0.999979
0.999984
0.999994
0.999991
0.999905
0.999429
0.999803
0.999914
0.999907
0.999803
0.599015
0.2193
0.210996
0.246491
0.824096
0.966923
0.979682
0.996965
0.937843
0.00125963
0.00126084
0.00126542
0.00133561
0.00232904
0.0089544
0.537928
0.981702
0.99728
0.999268
0.999719
0.999859
0.99992
0.999968
0.999979
0.99997
0.999957
0.999942
0.999942
0.999926
0.999861
0.999777
0.999733
0.999801
0.999954
0.999952
0.999937
0.999925
0.999916
0.999927
0.999879
0.998473
0.417747
0.201889
0.201083
0.550874
0.89511
0.98397
0.996774
0.937603
0.00125959
0.00125945
0.00129646
0.00201288
0.00822187
0.36169
0.92037
0.994501
0.998515
0.999376
0.999653
0.999761
0.999882
0.99993
0.999913
0.999855
0.999746
0.999604
0.999532
0.999439
0.999149
0.99825
0.997674
0.998477
0.999722
0.999942
0.999927
0.999914
0.999915
0.999914
0.999914
0.999965
0.779833
0.205473
0.201069
0.327163
0.777446
0.990646
0.996118
0.937024
0.00125957
0.00128363
0.00179229
0.00832664
0.24166
0.839239
0.993882
0.998135
0.999072
0.999407
0.999536
0.999689
0.999802
0.99979
0.999651
0.999249
0.998337
0.997338
0.996545
0.989734
0.96759
0.958066
0.975603
0.988722
0.993878
0.999891
0.999909
0.999913
0.999915
0.999911
0.999911
0.999907
0.999389
0.326678
0.195355
0.18862
0.640125
0.990779
0.995609
0.93618
0.0012743
0.00180757
0.00824901
0.292877
0.872437
0.996079
0.99876
0.999055
0.999079
0.999287
0.999431
0.99957
0.999565
0.999186
0.997996
0.996137
0.980581
0.860751
0.668416
0.514185
0.368498
0.256636
0.379127
0.807266
0.994414
0.999183
0.999753
0.999427
0.997483
0.999329
0.99989
0.999829
0.999725
0.517982
0.182087
0.188389
0.553042
0.980816
0.994851
0.935477
0.00229854
0.0255355
0.362261
0.951722
0.997905
0.999273
0.999153
0.999152
0.999078
0.999097
0.999314
0.999315
0.998608
0.995977
0.98724
0.811512
0.542779
0.0519113
0.0099845
0.0095024
0.00931894
0.00951806
0.0137865
0.5114
0.980027
0.992971
0.991332
0.991275
0.996693
0.999636
0.999822
0.999755
0.999717
0.5144
0.170096
0.182087
0.566436
0.958179
0.993301
0.935033
0.144801
0.596483
0.994247
0.998445
0.999279
0.999212
0.999192
0.999172
0.999156
0.999135
0.999164
0.998012
0.993677
0.892641
0.630505
0.0359072
0.0110161
0.00901648
0.00915085
0.00937963
0.0092413
0.00932109
0.128614
0.755451
0.975896
0.985424
0.988968
0.99309
0.998281
0.999552
0.999729
0.99969
0.998033
0.401779
0.165799
0.217429
0.602391
0.909624
0.987347
0.935033
0.799584
0.993846
0.998385
0.999217
0.999241
0.999231
0.99921
0.999198
0.999152
0.999135
0.997748
0.991484
0.813646
0.289021
0.0151129