/*--------------------------------*- C++ -*----------------------------------*\
  =========                 |
  \\      /  F ield         | OpenFOAM: The Open Source CFD Toolbox
   \\    /   O peration     | Website:  https://openfoam.org
    \\  /    A nd           | Version:  8
     \\/     M anipulation  |
\*---------------------------------------------------------------------------*/
FoamFile
{
    version     2.0;
    format      ascii;
    class       volScalarField;
    location    "4.7";
    object      k;
}
// * * * * * * * * * * * * * * * * * * * * * * * * * * * * * * * * * * * * * //

dimensions      [0 2 -2 0 0 0 0];

internalField   nonuniform List<scalar> 
9150
(
0.00182759
0.000940977
0.000475452
0.000301328
0.000191955
0.000191859
0.000301202
0.000475311
0.000940825
0.00182759
0.00178491
0.000746769
0.000398721
0.000256626
0.000160529
0.000160451
0.00025651
0.000398594
0.000746639
0.0017849
0.00171343
0.000651466
0.000365713
0.000236549
0.000147929
0.000147861
0.000236443
0.000365595
0.00065135
0.00171341
0.00163486
0.000601426
0.000352575
0.000228497
0.000143127
0.000143065
0.000228396
0.000352462
0.000601323
0.00163484
0.0015514
0.000579909
0.00034779
0.000225665
0.00014162
0.000141559
0.000225568
0.000347679
0.000579813
0.00155138
0.00284726
0.00255388
0.00185053
0.00161296
0.00132506
0.00132548
0.00161475
0.00185427
0.00255932
0.00284804
0.00230439
0.00150286
0.00127999
0.00120694
0.000971241
0.000971256
0.00120757
0.00128154
0.00150385
0.00230431
0.00204941
0.00125184
0.000887393
0.000805888
0.000623551
0.000623444
0.000806025
0.000887824
0.00125191
0.00204931
0.00186765
0.00111026
0.000649233
0.000529325
0.000385041
0.000384919
0.000529258
0.000649243
0.00111007
0.00186759
0.00178733
0.00102085
0.00052386
0.00037135
0.000252106
0.000251997
0.000371229
0.000523741
0.00102065
0.0017873
0.0130174
0.00527424
0.00261104
0.00189256
0.00153375
0.00152905
0.00189209
0.0027184
0.00605249
0.0151884
0.00492158
0.00379357
0.00250387
0.00188842
0.00154035
0.00153796
0.00188863
0.00250312
0.00373451
0.00495585
0.00440692
0.00342679
0.00248373
0.00188703
0.00154756
0.00154732
0.00189056
0.00248799
0.00340668
0.00441727
0.00391817
0.00315151
0.00246684
0.00188381
0.00155471
0.00155563
0.00188788
0.00247193
0.00315569
0.0039224
0.00335852
0.00309785
0.00236437
0.00183858
0.00152783
0.00152895
0.00184207
0.0023696
0.00310803
0.00336017
0.000564861
0.000560963
0.000556972
0.000552852
0.000548574
0.00054412
0.000539475
0.000534639
0.000529619
0.000524443
0.00123872
0.00123747
0.00123559
0.00123302
0.00122967
0.00122553
0.00122055
0.00121473
0.00120808
0.00120062
0.00168976
0.0016892
0.00168756
0.00168476
0.00168073
0.00167546
0.00166891
0.00166111
0.00165208
0.00164184
0.00206037
0.00206112
0.00206048
0.0020584
0.0020548
0.00204967
0.00204299
0.00203478
0.00202506
0.00201387
0.00240047
0.00240334
0.00240471
0.00240448
0.00240262
0.00239909
0.00239388
0.00238702
0.00237855
0.00236851
0.00273182
0.0027379
0.0027425
0.00274558
0.00274707
0.00274696
0.00274526
0.00274198
0.00273717
0.00273086
0.00306811
0.00307888
0.00308842
0.00309671
0.00310373
0.00310948
0.003114
0.00311732
0.00311947
0.0031205
0.00342028
0.0034378
0.00345465
0.00347085
0.00348644
0.0035015
0.0035161
0.00353036
0.00354435
0.0035582
0.00379878
0.00382592
0.00385335
0.00388121
0.00390968
0.00393896
0.00396929
0.00400093
0.00403412
0.00406914
0.0042145
0.00425512
0.0042976
0.0043423
0.00438966
0.00444019
0.0044944
0.00455286
0.00461615
0.00468489
0.00467896
0.00473813
0.00480159
0.00487011
0.00494462
0.00502609
0.00511556
0.00521413
0.00532292
0.00544313
0.00520403
0.00528813
0.00538014
0.00548151
0.00559387
0.00571897
0.00585857
0.00601448
0.00618854
0.00638262
0.00580091
0.00591752
0.00604719
0.0061923
0.00635545
0.00653927
0.00674637
0.00697923
0.0072402
0.00753149
0.00647867
0.00663607
0.00681341
0.0070141
0.00724173
0.0074998
0.00779144
0.00811928
0.00848536
0.00889124
0.00724255
0.00744867
0.0076829
0.00794975
0.00825362
0.00859835
0.00898678
0.00942055
0.0099001
0.010425
0.00809126
0.0083522
0.00864984
0.00898963
0.00937622
0.00981292
0.0103012
0.0108402
0.0114275
0.0120597
0.00901621
0.00933434
0.0096972
0.0101105
0.0105785
0.011103
0.0116829
0.012314
0.0129899
0.0137046
0.0100025
0.0103754
0.0107993
0.0112796
0.0118191
0.0124177
0.0130712
0.0137712
0.0145075
0.0152719
0.0110311
0.0114519
0.0119275
0.012462
0.0130565
0.0137082
0.01441
0.01515
0.0159135
0.016694
0.0120827
0.0125422
0.0130575
0.0136308
0.0142604
0.0149403
0.0156607
0.0164085
0.0171726
0.0179548
0.0131429
0.0136312
0.0141741
0.0147711
0.0154171
0.016102
0.0168144
0.0175482
0.0183106
0.0191049
0.0142096
0.01472
0.0152815
0.0158913
0.0165416
0.0172228
0.0179293
0.0186614
0.0194249
0.0202193
0.0152981
0.0158314
0.0164117
0.0170344
0.0176922
0.018378
0.0190878
0.0198211
0.020579
0.0213585
0.0164278
0.0169942
0.0176045
0.0182533
0.0189317
0.019632
0.0203496
0.0210809
0.0218219
0.0225678
0.0175995
0.0182134
0.0188689
0.019559
0.0202723
0.0210005
0.0217388
0.0224762
0.0231995
0.0238957
0.0187895
0.0194561
0.0201631
0.0209056
0.021674
0.0224583
0.0232484
0.0240273
0.0247723
0.0254498
0.0199738
0.0206904
0.0214469
0.0222402
0.0230653
0.0239144
0.0247785
0.0256409
0.0264525
0.0271579
0.0211455
0.0219012
0.022695
0.0235238
0.0243835
0.0252693
0.0261755
0.0270939
0.0279839
0.028777
0.0223154
0.0230985
0.0239172
0.0247678
0.025646
0.0265468
0.0274652
0.0283954
0.0293216
0.0302151
0.0234992
0.024301
0.0251367
0.0260029
0.0268954
0.0278094
0.0287402
0.0296826
0.0306293
0.0315711
0.0247043
0.0255178
0.0263646
0.0272418
0.0281457
0.0290723
0.0300178
0.0309783
0.0319501
0.0329315
0.0259211
0.0267436
0.0275993
0.0284862
0.0294014
0.0303423
0.0313064
0.0322923
0.0333004
0.0343351
0.0271239
0.0279603
0.0288312
0.0297358
0.0306727
0.0316408
0.0326395
0.0336704
0.0347377
0.0358498
0.0282852
0.0291483
0.0300498
0.0309902
0.0319696
0.0329884
0.0340483
0.0351531
0.0363094
0.0375277
0.029391
0.0302988
0.0312519
0.0322519
0.0333004
0.034399
0.0355509
0.036761
0.0380374
0.0393903
0.0304458
0.0314171
0.0324434
0.0335276
0.0346723
0.0358798
0.0371534
0.0384991
0.0399253
0.0414409
0.0314663
0.0325175
0.0336356
0.0348254
0.0360902
0.0374331
0.0388569
0.0403665
0.0419694
0.0436711
0.0324697
0.0336139
0.034839
0.0361501
0.0375513
0.0390466
0.0406399
0.0423345
0.0441302
0.0460267
0.033459
0.0347052
0.0360463
0.0374858
0.0390267
0.040674
0.0424326
0.044307
0.0462981
0.0484041
0.0344212
0.0357662
0.0372177
0.0387794
0.040456
0.0422535
0.0441771
0.0462308
0.0484162
0.0507366
0.0353378
0.0367732
0.0383246
0.0399984
0.0418021
0.0437431
0.0458261
0.0480556
0.0504347
0.0529667
0.0361937
0.0377142
0.0393608
0.0411411
0.0430626
0.045132
0.0473575
0.0497462
0.0523038
0.0550337
0.0370014
0.038602
0.0403353
0.0422095
0.0442322
0.046412
0.048758
0.0512794
0.0539852
0.0568836
0.0378042
0.0394806
0.0412933
0.043251
0.0453621
0.0476347
0.0500776
0.052701
0.0555157
0.0585332
0.0386864
0.0404429
0.0423375
0.0443789
0.0465748
0.0489315
0.0514565
0.0541592
0.0570495
0.0601382
0.0397747
0.041631
0.0436272
0.0457713
0.0480691
0.0505249
0.0531435
0.0559314
0.0588952
0.0620412
0.0412436
0.0432434
0.0453879
0.0476835
0.0501345
0.0527424
0.0555087
0.0584356
0.0615247
0.0647769
0.0433254
0.0455464
0.047923
0.0504607
0.0531627
0.056027
0.0590512
0.0622325
0.0655673
0.0690505
0.0463145
0.0488776
0.0516171
0.0545377
0.0576437
0.0609283
0.0643846
0.0680046
0.0717787
0.0756955
0.0505494
0.0536197
0.0568985
0.0603893
0.0640954
0.0680113
0.0721231
0.0764166
0.0808762
0.0854838
0.0563242
0.0600855
0.0640932
0.068348
0.0728487
0.0775981
0.0825751
0.0877595
0.0931317
0.09867
0.0637022
0.068294
0.0731621
0.0783042
0.0837153
0.0894029
0.0953463
0.101523
0.107915
0.114504
0.0723266
0.0777715
0.0835037
0.0895207
0.0958164
0.102383
0.109224
0.116319
0.123666
0.131259
0.0814188
0.0875963
0.0940552
0.100788
0.107786
0.11505
0.122602
0.130432
0.138559
0.146985
0.0900702
0.0967504
0.103694
0.110913
0.118412
0.126199
0.134281
0.142692
0.151437
0.160533
0.0975599
0.104548
0.111803
0.119351
0.12721
0.135419
0.143991
0.152969
0.162388
0.172264
0.103802
0.110975
0.118427
0.126241
0.134469
0.143131
0.152316
0.162094
0.172541
0.183688
0.109118
0.116324
0.123934
0.132048
0.140746
0.150131
0.160319
0.171474
0.18375
0.197232
0.113459
0.120973
0.128983
0.137602
0.147029
0.157496
0.169278
0.182672
0.197972
0.2154
0.117694
0.125599
0.13416
0.143608
0.154255
0.166461
0.180601
0.197082
0.216479
0.239471
0.122186
0.130737
0.140232
0.151054
0.163645
0.178407
0.1956
0.215283
0.237317
0.260215
0.126827
0.136449
0.147492
0.160536
0.176191
0.194977
0.217012
0.24137
0.265341
0.287751
0.131144
0.142263
0.15539
0.171286
0.190809
0.214853
0.243376
0.272924
0.305794
0.334244
0.134732
0.147291
0.162206
0.180185
0.201764
0.227457
0.25281
0.277645
0.311934
0.355986
0.136961
0.150483
0.166482
0.185556
0.207066
0.225029
0.240319
0.259989
0.284025
0.309761
0.137381
0.151258
0.167196
0.184363
0.200142
0.214469
0.229136
0.244912
0.260339
0.270951
0.13674
0.150178
0.164622
0.179496
0.194536
0.20973
0.224918
0.239464
0.250989
0.254433
0.136534
0.150039
0.164421
0.179513
0.195311
0.211637
0.227875
0.242103
0.2495
0.245803
0.137539
0.151896
0.167385
0.184038
0.201907
0.220618
0.238105
0.248333
0.245617
0.235177
0.140237
0.15614
0.173635
0.193052
0.214348
0.235451
0.248705
0.246586
0.235237
0.223312
0.145097
0.163168
0.183598
0.206807
0.231245
0.248756
0.249078
0.237286
0.22393
0.212841
0.152267
0.173215
0.197527
0.224604
0.24732
0.253302
0.242616
0.227216
0.213967
0.204257
0.16164
0.186492
0.215209
0.243236
0.257334
0.250237
0.233258
0.217386
0.205333
0.197524
0.174155
0.203474
0.235706
0.259233
0.259036
0.242257
0.223631
0.208538
0.198177
0.192703
0.191734
0.226375
0.259088
0.27017
0.255609
0.233537
0.214414
0.200588
0.192428
0.189776
0.213872
0.253709
0.280255
0.272051
0.247
0.223243
0.20508
0.193372
0.188114
0.188825
0.240441
0.282343
0.290227
0.264443
0.235731
0.212305
0.196008
0.187198
0.185521
0.190097
0.271819
0.305139
0.288235
0.254312
0.224153
0.201638
0.187759
0.182498
0.185018
0.193917
0.311755
0.322614
0.283225
0.244114
0.212917
0.191539
0.180612
0.179585
0.186953
0.200641
0.347412
0.325056
0.276084
0.233345
0.201433
0.181769
0.174597
0.178667
0.191629
0.210604
0.375903
0.323151
0.267388
0.221829
0.189588
0.172306
0.169809
0.179942
0.199293
0.224038
0.403073
0.32584
0.260112
0.210253
0.177495
0.163153
0.16629
0.183518
0.210084
0.241124
0.410422
0.32027
0.248866
0.196567
0.164371
0.154007
0.163929
0.189335
0.223936
0.261803
0.402426
0.308806
0.235504
0.181861
0.150605
0.144834
0.162493
0.197065
0.240546
0.285925
0.402427
0.301835
0.22415
0.167739
0.136608
0.135437
0.161471
0.206115
0.259649
0.314112
0.403053
0.295921
0.213525
0.153798
0.122077
0.125277
0.159971
0.215387
0.280395
0.346253
0.400228
0.288479
0.20253
0.139751
0.106828
0.113795
0.156814
0.223229
0.301107
0.381082
0.395406
0.280641
0.191817
0.126071
0.091092
0.100628
0.150787
0.227813
0.319929
0.417291
0.392771
0.273898
0.181827
0.113076
0.0753037
0.0857724
0.140878
0.227177
0.334665
0.453797
0.392861
0.268129
0.172302
0.100777
0.0600938
0.0697913
0.126583
0.219185
0.341795
0.487712
0.394062
0.26233
0.162402
0.0887309
0.0460677
0.053853
0.108418
0.202144
0.335902
0.510257
0.392573
0.253818
0.150386
0.0760109
0.0335814
0.0394195
0.0882875
0.176455
0.312137
0.506331
0.383821
0.239695
0.13468
0.0620374
0.022916
0.0276011
0.0688104
0.145533
0.271202
0.467817
0.366525
0.218695
0.114999
0.0472554
0.0144264
0.0186913
0.0519669
0.11416
0.218229
0.387296
0.334565
0.189851
0.0923376
0.0330494
0.00839254
0.0122982
0.0385157
0.0872977
0.167493
0.297124
0.295126
0.157554
0.0695913
0.0211494
0.00470811
0.00778694
0.0279269
0.0663733
0.127054
0.221909
0.239694
0.121643
0.0480213
0.0122306
0.00277262
0.00467412
0.0192619
0.0501448
0.0971742
0.16488
0.186493
0.088257
0.0299721
0.00654195
0.00192891
0.00273109
0.0118979
0.0364381
0.0750963
0.125188
0.131538
0.0573198
0.016028
0.00346293
0.00162526
0.00180346
0.00600958
0.0231539
0.0566866
0.0976958
0.0792748
0.0303125
0.00680269
0.00218315
0.00154274
0.00154853
0.00258673
0.00997644
0.0352425
0.0760858
0.000518817
0.000513031
0.000507455
0.000502108
0.000496871
0.000491628
0.000486293
0.000480795
0.000475072
0.000469075
0.000462767
0.000456152
0.000449408
0.000443446
0.000444806
0.000443795
0.000443859
0.000445038
0.000444744
0.000444966
0.000444617
0.000444035
0.000444318
0.000443002
0.00044339
0.000444531
0.000443824
0.00044277
0.00044265
0.000442302
0.000442479
0.000442574
0.000430024
0.000406547
0.000374908
0.000336626
0.000292119
0.000241082
0.000182521
9.16042e-05
0.00119189
0.00118182
0.00117095
0.00115934
0.00114703
0.00113403
0.00112035
0.00110605
0.00109114
0.00107566
0.00105969
0.0010433
0.00102666
0.00101013
0.000993443
0.000977384
0.000961126
0.00094444
0.00092832
0.000910613
0.000893271
0.000874074
0.000853901
0.000832709
0.000809997
0.000785107
0.000758867
0.000730659
0.000701103
0.000670033
0.000637476
0.000603369
0.000567226
0.000527736
0.000484472
0.000437099
0.000384749
0.00032515
0.000251479
0.000139406
0.00162976
0.00161564
0.00160026
0.00158372
0.00156618
0.00154765
0.00152818
0.00150785
0.00148673
0.00146493
0.00144256
0.00141976
0.00139676
0.00137388
0.00135102
0.00132828
0.00130554
0.00128263
0.00125928
0.00123509
0.00120969
0.00118267
0.00115367
0.00112242
0.00108876
0.00105251
0.00101356
0.000971678
0.000926733
0.000878761
0.000827942
0.000774545
0.000719798
0.000663766
0.000606249
0.000546696
0.000483724
0.000414041
0.000328881
0.00019955
0.00200049
0.00198471
0.0019674
0.00194865
0.00192854
0.00190716
0.00188459
0.00186093
0.0018363
0.00181082
0.00178464
0.00175797
0.0017311
0.00170442
0.00167778
0.0016512
0.00162454
0.00159751
0.00156962
0.00154026
0.00150881
0.00147473
0.0014376
0.00139723
0.0013535
0.00130627
0.00125553
0.00120101
0.00114248
0.00108001
0.00101392
0.00094477
0.000873626
0.000801737
0.000729366
0.00065616
0.000580441
0.000498036
0.000399482
0.0002551
0.00235625
0.00234145
0.00232491
0.00230672
0.00228696
0.00226573
0.00224312
0.00221924
0.0021942
0.00216813
0.00214121
0.00211371
0.00208604
0.00205859
0.0020313
0.00200411
0.00197679
0.0019488
0.00191921
0.0018869
0.00185073
0.00180979
0.00176358
0.00171209
0.00165565
0.00159452
0.00152854
0.00145726
0.00138063
0.00129882
0.00121261
0.00112316
0.00103191
0.000941249
0.000851738
0.000762894
0.000672292
0.000575047
0.000461923
0.000303967
0.00272261
0.00271211
0.00269991
0.00268609
0.00267074
0.00265394
0.0026358
0.00261642
0.00259589
0.00257432
0.00255188
0.00252889
0.00250597
0.00248367
0.00246205
0.0024411
0.00242046
0.00239905
0.00237501
0.0023459
0.00230924
0.00226314
0.00220673
0.0021404
0.00206548
0.00198331
0.001894
0.0017966
0.00169034
0.00157565
0.0014553
0.00133208
0.00120922
0.00109092
0.000977939
0.00086878
0.000760184
0.000648789
0.000521213
0.000347909
0.00312047
0.00311916
0.00311668
0.00311313
0.00310863
0.00310333
0.00309736
0.00309088
0.00308398
0.00307673
0.00306923
0.00306183
0.00305552
0.00305152
0.00305019
0.0030518
0.003056
0.00306077
0.00306182
0.00305332
0.00302941
0.00298577
0.00292053
0.00283497
0.00273327
0.00261947
0.00249264
0.00234945
0.00218826
0.00201159
0.00182493
0.00163539
0.00145198
0.00128371
0.00113095
0.000989969
0.000858062
0.000728855
0.000579846
0.000382319
0.00357279
0.00358834
0.0036042
0.0036206
0.00363784
0.00365628
0.00367632
0.00369836
0.00372268
0.00374932
0.00377822
0.00380964
0.00384504
0.00388751
0.00393826
0.00399817
0.00406721
0.00414132
0.0042094
0.00425788
0.00427449
0.00425157
0.00418635
0.00408133
0.00394543
0.00378926
0.00360607
0.00338609
0.00312745
0.00283578
0.00252177
0.00220104
0.00189291
0.0016201
0.00138574
0.00118416
0.00100497
0.000837505
0.000656856
0.000435001
0.00410831
0.00415284
0.00420094
0.00425322
0.00431047
0.00437363
0.00444385
0.00452232
0.00461002
0.00470709
0.00481286
0.00492686
0.0050504
0.00518924
0.00534819
0.00552699
0.00572312
0.00592945
0.00611837
0.00626444
0.00635205
0.00637192
0.00632207
0.00620743
0.00604067
0.00582992
0.00556798
0.00524367
0.00485414
0.00440342
0.00390357
0.00337434
0.00284622
0.00235307
0.00193694
0.00159305
0.00130438
0.00105425
0.000811651
0.000545653
0.00476373
0.00485581
0.00495765
0.00507067
0.0051966
0.00533753
0.00549588
0.0056744
0.00587545
0.00609894
0.00634201
0.00660136
0.00687635
0.00717169
0.00750158
0.00786363
0.00823698
0.0086026
0.0089294
0.0091884
0.00935944
0.00942736
0.009393
0.00926612
0.00905826
0.00878573
0.00844476
0.00802043
0.00749884
0.00688094
0.00617964
0.00541554
0.00461858
0.00382806
0.00309394
0.00246214
0.00193066
0.00149141
0.00111495
0.000760216
0.0055829
0.00574861
0.00593423
0.00614231
0.0063758
0.00663807
0.00693251
0.00726252
0.00763198
0.00803898
0.00847589
0.00893603
0.00941413
0.00991027
0.0104314
0.0109618
0.0114933
0.0119961
0.0124484
0.0128107
0.0130471
0.0131339
0.0130887
0.0129372
0.0126993
0.0123891
0.0119977
0.0114884
0.0108372
0.0100585
0.00917378
0.00820053
0.00716239
0.00609742
0.00503347
0.00401894
0.00309812
0.00230159
0.00163371
0.00110002
0.00660947
0.0068799
0.00718367
0.00752413
0.00790484
0.00832938
0.00880043
0.00931868
0.00988875
0.0105078
0.0111592
0.0118288
0.0125109
0.0131913
0.0138579
0.0145121
0.0151411
0.0157295
0.0162638
0.0166914
0.0169493
0.0170326
0.0169922
0.0168609
0.0166442
0.0163289
0.0158829
0.015262
0.0144595
0.0135173
0.0124684
0.011319
0.0100922
0.00880554
0.00748057
0.00614972
0.00484484
0.00360028
0.00244272
0.00139519
0.00787083
0.00827365
0.00872282
0.00922103
0.00977063
0.0103741
0.0110332
0.0117447
0.0125098
0.0133331
0.0141819
0.0150218
0.0158413
0.016635
0.0173846
0.0180968
0.0187715
0.0194066
0.0199726
0.0204059
0.020662
0.0207845
0.0208193
0.0207703
0.02061
0.0202851
0.0197508
0.0189954
0.0180473
0.016951
0.0157364
0.0144071
0.0130029
0.011542
0.0100363
0.00850587
0.00693678
0.00531512
0.0035959
0.00143821
0.00935891
0.0099071
0.0105093
0.0111661
0.0118776
0.0126441
0.0134667
0.0143464
0.0152754
0.0162439
0.0172243
0.0181654
0.0190557
0.0199021
0.0207001
0.0214509
0.0221565
0.0228124
0.0233907
0.0238536
0.0241829
0.0243948
0.0244978
0.0244761
0.024304
0.0239478
0.0233853
0.0225898
0.0215647
0.0203194
0.0189016
0.0173622
0.0157991
0.0142472
0.0127271
0.0112123
0.00954866
0.00759222
0.00522363
0.00200062
0.01102
0.0117055
0.012445
0.0132381
0.0140837
0.0149814
0.0159291
0.0169223
0.0179539
0.0190097
0.0200577
0.0210513
0.0219886
0.0228927
0.0237577
0.0245774
0.0253569
0.0260881
0.0267523
0.0273225
0.0277781
0.0281107
0.0283145
0.0283728
0.0282438
0.0278848
0.0272594
0.0263463
0.0251541
0.023725
0.0221226
0.0204337
0.0187679
0.017389
0.0163755
0.0156507
0.0146769
0.0126656
0.00893277
0.00319178
0.0127636
0.0135597
0.0144047
0.0152991
0.0162425
0.0172301
0.0182555
0.0193091
0.0203867
0.0214827
0.0225781
0.0236387
0.0246595
0.0256711
0.0266726
0.0276478
0.0285987
0.0295104
0.0303611
0.0311279
0.0317957
0.0323579
0.0327989
0.0330842
0.0331587
0.0329588
0.0324187
0.031485
0.0301322
0.0283937
0.0264034
0.0244054
0.0228276
0.0222042
0.0229229
0.0247662
0.0261214
0.0244694
0.0183946
0.00636523
0.0144865
0.0153568
0.0162687
0.0172234
0.0182209
0.0192581
0.0203295
0.0214222
0.0225358
0.0236883
0.0248698
0.0260522
0.0272322
0.0284274
0.0296391
0.0308482
0.0320481
0.0332216
0.0343469
0.0354046
0.0363847
0.0372844
0.0380968
0.038796
0.0393287
0.0396114
0.0395342
0.0389762
0.0378481
0.0361587
0.0340698
0.0319759
0.0306832
0.0311816
0.034161
0.0392593
0.0424634
0.0397467
0.0309291
0.0133553
0.0160968
0.0170055
0.0179505
0.0189341
0.0199591
0.0210268
0.0221342
0.0232834
0.0244848
0.0257479
0.0270628
0.0284125
0.0297975
0.0312238
0.0326888
0.0341716
0.0356624
0.0371455
0.0386017
0.0400137
0.0413724
0.0426809
0.0439552
0.0451999
0.0463819
0.047418
0.0481615
0.0483834
0.0478963
0.046746
0.0452474
0.0439548
0.0435787
0.0453558
0.0507805
0.0582946
0.063066
0.0566876
0.0430651
0.0212102
0.0175318
0.0184555
0.0194172
0.0204207
0.021472
0.0225788
0.0237523
0.0250003
0.0263221
0.0277183
0.0291879
0.0307217
0.03232
0.0339856
0.0357008
0.0374592
0.0392514
0.0410661
0.0428913
0.0447162
0.0465363
0.0483545
0.0501919
0.0520764
0.0539996
0.0559061
0.0576676
0.0589533
0.059308
0.0588577
0.0583375
0.0584273
0.0599657
0.0646857
0.0744071
0.0880666
0.0926914
0.0762432
0.0548549
0.0273533
0.0187985
0.0197321
0.0207083
0.0217354
0.0228254
0.0239948
0.0252556
0.0266066
0.0280439
0.029571
0.0311886
0.0328945
0.0346883
0.0365696
0.0385234
0.04055
0.0426475
0.0448151
0.0470546
0.0493732
0.0517884
0.0543155
0.0569463
0.0596897
0.0625628
0.0655638
0.068625
0.0715
0.0736289
0.0750996
0.0775078
0.0810505
0.0867005
0.0964111
0.111864
0.132607
0.121466
0.0920596
0.0647199
0.0311134
0.0199594
0.0208999
0.0218883
0.0229425
0.0240812
0.0253187
0.0266583
0.028095
0.0296294
0.0312673
0.0330126
0.0348679
0.0368364
0.0389125
0.0410987
0.0434016
0.0458304
0.0483995
0.0511316
0.0540603
0.0572311
0.0606926
0.0644717
0.0685908
0.0730948
0.0780284
0.0833646
0.0889214
0.0944663
0.100553
0.109226
0.11854
0.128637
0.142876
0.166379
0.160161
0.124504
0.0943564
0.0670765
0.0318558
0.0210732
0.0220127
0.0230111
0.0240952
0.0252818
0.0265746
0.0279711
0.0294705
0.0310787
0.0328047
0.0346568
0.0366434
0.0387735
0.0410489
0.0434845
0.046098
0.0489125
0.0519625
0.0553008
0.059004
0.0631712
0.0679189
0.0733671
0.0796327
0.0868659
0.095258
0.104885
0.115438
0.126522
0.138686
0.14938
0.158205
0.172745
0.193181
0.181303
0.145097
0.114002
0.0879277
0.0631431
0.030241
0.022193
0.023116
0.0241186
0.0252291
0.0264515
0.0277783
0.0292106
0.0307543
0.0324195
0.0342192
0.0361688
0.0382851
0.0405856
0.0430844
0.0458078
0.0487865
0.0520593
0.0556853
0.0597603
0.0644297
0.0698911
0.0763816
0.0841483
0.093464
0.104792
0.118709
0.135657
0.155353
0.173795
0.179145
0.185446
0.204686
0.217105
0.193072
0.156317
0.125503
0.100021
0.0780175
0.0564287
0.0271964
0.02336
0.0242514
0.0252485
0.0263672
0.027601
0.0289438
0.0304015
0.0319829
0.0337025
0.0355794
0.0376363
0.0398993
0.0423942
0.0451521
0.0482118
0.0516176
0.0554239
0.0597131
0.0646278
0.0704056
0.0773969
0.0860457
0.0967439
0.109814
0.126365
0.147716
0.174297
0.193873
0.198471
0.208263
0.228448
0.22597
0.193019
0.158965
0.130099
0.106005
0.0855654
0.0674351
0.0491309
0.0239163
0.0246068
0.0254701
0.026452
0.0275528
0.0287743
0.0301213
0.031602
0.0332275
0.035015
0.0369875
0.0391731
0.0416058
0.0443222
0.0473699
0.0508047
0.0546898
0.0590965
0.0641154
0.069914
0.0768236
0.0853784
0.0962733
0.109847
0.126313
0.147927
0.176089
0.194779
0.200708
0.214994
0.228727
0.214322
0.18225
0.153124
0.128033
0.106642
0.0883086
0.0723115
0.0576758
0.0423996
0.0209313
0.0261037
0.0269064
0.0278243
0.0288782
0.0300778
0.0314285
0.032939
0.034621
0.0364926
0.0385782
0.0409086
0.0435221
0.0464657
0.0498015
0.0536074
0.0579757
0.0630015
0.0687617
0.075372
0.0832079
0.0928727
0.104762
0.11863
0.136173
0.159142
0.179077
0.190024
0.205669
0.208613
0.188409
0.163508
0.140702
0.120519
0.102869
0.0873851
0.0736899
0.0613214
0.0495601
0.0367942
0.0184547
0.0278238
0.0285584
0.0294165
0.0304362
0.0316258
0.0329916
0.0345428
0.0362924
0.0382607
0.0404714
0.0429523
0.0457389
0.0488815
0.052448
0.0565327
0.0612584
0.0667686
0.0731556
0.0803928
0.0885704
0.0975203
0.106298
0.116804
0.131031
0.148143
0.162539
0.176832
0.174929
0.157975
0.140944
0.124825
0.109993
0.0964405
0.0841434
0.0729499
0.0626579
0.052968
0.0433508
0.0324868
0.0165549
0.0295294
0.0303254
0.0312158
0.0322485
0.0334525
0.0348493
0.0364547
0.0382866
0.0403686
0.0427192
0.0453567
0.0483039
0.0516016
0.0553074
0.0595083
0.0643298
0.0699435
0.0765618
0.0842723
0.0922633
0.097705
0.101801
0.108108
0.1172
0.128789
0.139418
0.138401
0.129275
0.119142
0.108945
0.0989559
0.0893031
0.080069
0.0712913
0.0629358
0.0549144
0.047038
0.0388997
0.0293833
0.0151889
0.0311099
0.0320431
0.0330438
0.0341591
0.0354279
0.0368915
0.0385847
0.0405374
0.042768
0.0452844
0.0480923
0.0511981
0.0546144
0.0583816
0.0625503
0.0672002
0.0724476
0.0784686
0.0851871
0.0904795
0.0926858
0.0949945
0.0983299
0.102887
0.108241
0.109765
0.106417
0.101524
0.0957776
0.0895082
0.0829383
0.076248
0.0695535
0.0629111
0.0563247
0.0497455
0.0430385
0.0358717
0.0272577
0.0142582
0.0325585
0.0336173
0.0347366
0.0359705
0.0373671
0.0389726
0.0408231
0.0429466
0.0453555
0.0480511
0.0510273
0.0542731
0.0577771
0.061531
0.0655383
0.0698046
0.0743428
0.0791639
0.0838959
0.0867954
0.0888376
0.0903368
0.0912372
0.0920881
0.0924621
0.0916829
0.0894956
0.0863842
0.0825429
0.0781368
0.0733356
0.0682669
0.063013
0.0576192
0.0520953
0.0464054
0.0404353
0.0338893
0.0258782
0.0136596
0.0339848
0.0351431
0.0363841
0.0377603
0.0393231
0.041112
0.0431541
0.0454666
0.0480545
0.0509106
0.0540172
0.0573461
0.0608622
0.064528
0.0683062
0.0721607
0.0760809
0.0800277
0.0835146
0.0858245
0.0883603
0.0883922
0.0874865
0.0865086
0.0852075
0.0834304
0.0811589
0.0784285
0.0752549
0.0716782
0.0677573
0.0635489
0.0590962
0.0544242
0.0495327
0.0443827
0.038863
0.0326906
0.025029
0.0133215
0.035469
0.0367431
0.0381301
0.0396757
0.0414219
0.0433999
0.0456282
0.048113
0.0508482
0.0538154
0.0569845
0.0603153
0.063759
0.0672643
0.0707808
0.0742793
0.0777756
0.0811537
0.083732
0.0865633
0.0876495
0.0863056
0.0848586
0.0833862
0.0816567
0.0795799
0.0771804
0.0744918
0.0715194
0.0682661
0.0647433
0.0609666
0.0569479
0.0526881
0.0481697
0.0433414
0.0380843
0.0321162
0.0246264
0.0131842
0.0370895
0.038504
0.0400557
0.0417817
0.0437136
0.0458729
0.0482678
0.0508927
0.0537291
0.056747
0.0599073
0.0631633
0.0664622
0.0697483
0.0729718
0.0761194
0.079157
0.081745
0.0842595
0.0860018
0.0853297
0.0841807
0.0828774
0.0813805
0.0796024
0.0775177
0.0751489
0.072524
0.0696625
0.0665761
0.0632698
0.0597428
0.055987
0.0519841
0.0476988
0.0430644
0.03795
0.0320653
0.0246085
0.0132275
0.0388995
0.040475
0.0422033
0.0441128
0.046225
0.0485507
0.0510871
0.0538168
0.0567097
0.0597263
0.0628209
0.0659446
0.0690455
0.0720699
0.0749769
0.077726
0.0801289
0.082275
0.0841429
0.0841925
0.0835983
0.0826711
0.0814634
0.0799864
0.0782423
0.0762379
0.0739775
0.071473
0.0687503
0.0658304
0.0627173
0.0594007
0.0558587
0.0520569
0.0479437
0.0434372
0.0383914
0.0325016
0.024958
0.0134528
0.0409188
0.0426731
0.0445869
0.0466802
0.0489654
0.0514434
0.0541003
0.0569075
0.0598257
0.0628081
0.0658038
0.0687622
0.0716359
0.0743831
0.0769564
0.0792117
0.0810785
0.0828298
0.0833108
0.0831439
0.0825675
0.0816427
0.0804201
0.078946
0.077256
0.0753612
0.0732437
0.070903
0.0683715
0.0656692
0.0627908
0.0597131
0.0563991
0.0527982
0.0488428
0.0444349
0.0394116
0.0334466
0.0257034
0.0138835
0.0431502
0.0450992
0.0472059
0.0494841
0.0519391
0.0545623
0.0573285
0.0602002
0.0631336
0.0660763
0.0689704
0.0717613
0.0744065
0.0768725
0.0790652
0.0807634
0.0823824
0.0830614
0.0830763
0.0826798
0.081932
0.0808821
0.0795916
0.0781179
0.076495
0.074724
0.0727842
0.0706653
0.0683917
0.065978
0.0634026
0.060623
0.0575825
0.054211
0.0504225
0.0461021
0.0410679
0.0349654
0.0269058
0.0145585
0.0455822
0.0477401
0.0500465
0.0525138
0.0551425
0.0579138
0.0607927
0.0637391
0.0667109
0.0696495
0.0724816
0.0751371
0.0775576
0.0796627
0.0812816
0.0827732
0.0835852
0.0835763
0.0831662
0.0824478
0.0814586
0.0802548
0.0789014
0.0774485
0.0759135
0.0742943
0.0725778
0.0707485
0.0688139
0.0667722
0.0645823
0.062177
0.0594724
0.0563723
0.0527683
0.0485276
0.0434494
0.0371448
0.028643
0.015522
0.0481463
0.0505266
0.0530498
0.0557227
0.0585339
0.0614604
0.0644723
0.0675324
0.0706001
0.0736183
0.076494
0.0791366
0.0814204
0.0829548
0.0839165
0.0847195
0.0845466
0.0840017
0.0832175
0.0822168
0.0810361
0.0797366
0.0783763
0.0769906
0.0755884
0.0741696
0.0727262
0.0712461
0.0697266
0.0681425
0.0664279
0.0644845
0.0621892
0.0594068
0.0560006
0.0518207
0.0466517
0.0400692
0.0309899
0.0168113
0.0507555
0.053386
0.0561549
0.0590611
0.0620837
0.0651839
0.0683338
0.0715101
0.0747042
0.0778675
0.0808851
0.0835926
0.0854791
0.0857896
0.086284
0.0858625
0.0851308
0.0842414
0.0832071
0.082029
0.0807539
0.0794477
0.0781536
0.0768937
0.0756756
0.0745039
0.0733804
0.0723028
0.0712599
0.0702104
0.0690667
0.0676882
0.0658896
0.0634719
0.0602589
0.0560921
0.0507557
0.0437976
0.0339961
0.0184438
0.0533351
0.0562428
0.0592872
0.0624501
0.0657087
0.0690183
0.0723167
0.0755914
0.0788934
0.0821965
0.0853887
0.0880991
0.0884323
0.0886628
0.087986
0.0869596
0.0858547
0.0846814
0.0834314
0.0821277
0.080829
0.0795799
0.0784063
0.077322
0.0763317
0.0754461
0.0746795
0.0740385
0.0735151
0.0730692
0.0726042
0.0719292
0.0707554
0.0687582
0.0657012
0.061446
0.0558147
0.0483518
0.0376884
0.0204073
0.0558087
0.0589975
0.0623408
0.0658041
0.0693457
0.0729027
0.0763923
0.079797
0.0831577
0.0864579
0.0895193
0.0912171
0.0911293
0.0908677
0.0895677
0.0881779
0.0868058
0.0854149
0.0840208
0.0826711
0.0814126
0.0802705
0.0792605
0.0783895
0.0776619
0.0770933
0.076705
0.0765156
0.0765343
0.0767471
0.0770823
0.0773228
0.0769914
0.0754865
0.0724876
0.0679559
0.0618249
0.0536794
0.0420018
0.0226556
0.0581069
0.0615758
0.0652443
0.0690795
0.0730261
0.0769855
0.0808158
0.0844553
0.0879815
0.0914424
0.0946368
0.0945923
0.0944269
0.0929619
0.0912759
0.0896386
0.0880656
0.0865597
0.0851386
0.0838271
0.0826543
0.0816462
0.0808178
0.0801713
0.0797123
0.0794609
0.0794451
0.0796978
0.0802548
0.0811491
0.082394
0.0838819
0.0848679
0.0839137
0.0807189
0.0755966
0.0686931
0.0596648
0.0468351
0.0251224
0.0601616
0.0638912
0.0678804
0.0721234
0.0765861
0.0811773
0.0856687
0.0897732
0.093592
0.0973979
0.0999733
0.0993363
0.097556
0.0954999
0.0935798
0.0917898
0.0901085
0.0885441
0.0871063
0.0858201
0.0847163
0.0838239
0.0831581
0.0827099
0.0824818
0.0825014
0.082806
0.083443
0.0844755
0.0859912
0.0881097
0.090871
0.0939903
0.0943669
0.0905231
0.0842365
0.0762133
0.0661279
0.0520701
0.0277496
0.0619525
0.0658637
0.0700887
0.0746522
0.0795778
0.0849043
0.0906022
0.0956195
0.0989971
0.10189
0.103901
0.103628
0.10157
0.0992884
0.0971994
0.0952752
0.093455
0.0917458
0.0901872
0.088835
0.0877353
0.0869146
0.0863709
0.0860606
0.0859907
0.086204
0.0867394
0.0876494
0.0890095
0.0909321
0.0935901
0.0971415
0.10071
0.104752
0.101707
0.0936245
0.0841118
0.0728406
0.0575465
0.0305046
0.0636266
0.0676057
0.0718954
0.076529
0.0815478