/*--------------------------------*- C++ -*----------------------------------*\
  =========                 |
  \\      /  F ield         | OpenFOAM: The Open Source CFD Toolbox
   \\    /   O peration     | Website:  https://openfoam.org
    \\  /    A nd           | Version:  8
     \\/     M anipulation  |
\*---------------------------------------------------------------------------*/
FoamFile
{
    version     2.0;
    format      ascii;
    class       volScalarField;
    location    "4.7";
    object      p;
}
// * * * * * * * * * * * * * * * * * * * * * * * * * * * * * * * * * * * * * //

dimensions      [1 -1 -2 0 0 0 0];

internalField   nonuniform List<scalar> 
9150
(
390.93
363.931
338.432
321.239
312.934
312.927
321.219
338.403
363.899
390.901
362.075
342.523
326.871
315.07
309.088
309.083
315.055
326.849
342.497
362.048
332.803
319.235
310.696
302.94
298.832
298.828
302.929
310.679
319.214
332.78
308.096
298.074
292.609
287.247
284.278
284.275
287.238
292.595
298.057
308.076
286.808
277.887
273.306
269.135
266.69
266.687
269.126
273.293
277.871
286.788
23.972
20.0593
45.1948
59.4411
66.0662
65.974
59.175
44.7946
19.4995
23.2095
194.071
169.994
164.63
163.427
163.553
163.503
163.283
164.409
169.707
193.784
298.506
267.226
251.334
241.473
236.828
236.8
241.392
251.213
267.084
298.377
379.09
336.988
309.216
291.889
283.401
283.384
291.841
309.148
336.914
379.029
429.885
377.151
338.548
316.519
306.386
306.375
316.488
338.506
377.107
429.854
-57.9519
-20.7109
-32.4682
-24.597
-28.6894
-29.8689
-25.1899
-34.4859
-25.0016
-66.2783
-50.5393
-33.3862
-52.2777
-45.5947
-49.3739
-50.2275
-45.7331
-55.5839
-36.5243
-56.4908
-93.9916
-63.2354
-94.7395
-87.8369
-84.8243
-85.096
-88.3065
-97.116
-65.6342
-97.9159
-273.204
-148.72
-131.691
-113.365
-97.3035
-97.4735
-114.146
-133.388
-149.977
-276.448
-418.918
-180.47
-84.2904
-54.2378
-38.5997
-38.7441
-54.7381
-85.0772
-181.372
-421.23
1772.41
1772.33
1772.25
1772.15
1772.06
1771.95
1771.84
1771.72
1771.6
1771.47
1752.94
1752.86
1752.77
1752.68
1752.58
1752.48
1752.36
1752.24
1752.12
1751.98
1733.45
1733.37
1733.29
1733.2
1733.1
1733
1732.88
1732.76
1732.63
1732.49
1713.96
1713.88
1713.8
1713.71
1713.62
1713.51
1713.4
1713.28
1713.15
1713.01
1694.44
1694.37
1694.29
1694.21
1694.11
1694.01
1693.9
1693.78
1693.65
1693.51
1674.91
1674.85
1674.77
1674.69
1674.6
1674.5
1674.4
1674.28
1674.16
1674.02
1655.38
1655.32
1655.25
1655.17
1655.09
1654.99
1654.89
1654.78
1654.66
1654.53
1635.84
1635.78
1635.72
1635.65
1635.57
1635.48
1635.39
1635.29
1635.17
1635.05
1616.29
1616.24
1616.18
1616.12
1616.05
1615.97
1615.89
1615.79
1615.69
1615.58
1596.74
1596.7
1596.65
1596.59
1596.53
1596.46
1596.39
1596.3
1596.21
1596.11
1577.19
1577.15
1577.11
1577.06
1577.01
1576.95
1576.89
1576.81
1576.73
1576.63
1557.63
1557.6
1557.57
1557.53
1557.48
1557.43
1557.37
1557.3
1557.23
1557.14
1538.07
1538.07
1538.01
1537.98
1537.93
1537.89
1537.83
1537.77
1537.69
1537.61
1518.53
1518.5
1518.45
1518.41
1518.36
1518.31
1518.25
1518.18
1518.11
1518.01
1498.96
1498.92
1498.87
1498.81
1498.76
1498.69
1498.62
1498.54
1498.44
1498.32
1479.38
1479.34
1479.25
1479.19
1479.11
1479.03
1478.93
1478.81
1478.68
1478.51
1459.81
1459.75
1459.62
1459.53
1459.43
1459.31
1459.17
1459.01
1458.83
1458.61
1440.24
1440.13
1440
1439.87
1439.72
1439.55
1439.35
1439.12
1438.88
1438.6
1420.7
1420.54
1420.38
1420.2
1420
1419.77
1419.47
1419.1
1418.75
1418.44
1401.21
1401.03
1400.84
1400.64
1400.4
1400.11
1399.75
1399.42
1401.22
1398.04
1381.83
1381.64
1381.44
1381.22
1380.97
1380.45
1381
1381.09
1380.08
1378.89
1362.54
1362.33
1362.09
1361.72
1361.97
1361.86
1361.68
1361.41
1360.33
1359.45
1343.42
1343.2
1343.46
1343.41
1343.28
1343.03
1342.71
1341.95
1340.89
1339.75
1324.71
1325.04
1325.32
1325.16
1324.88
1324.48
1323.9
1323.04
1321.52
1319.38
1306.21
1306.67
1307.58
1307.55
1306.72
1306.36
1305.73
1304.72
1303.14
1301.95
1287.65
1287.83
1289
1289.35
1288.29
1288.39
1288.33
1287.78
1287.2
1289.46
1269.43
1269.58
1269.76
1269.99
1270.2
1270.43
1270.45
1269.91
1272.19
1271.66
1251.22
1251.4
1251.63
1251.93
1252.28
1252.72
1253.06
1253.18
1257.49
1257.04
1232.9
1233.12
1233.4
1233.76
1234.2
1234.73
1235.35
1236.1
1238.02
1240.04
1214.39
1214.62
1214.91
1215.29
1215.74
1216.27
1216.88
1217.67
1218.8
1220.19
1195.67
1195.89
1196.17
1196.51
1196.89
1197.33
1197.8
1198.31
1198.83
1199.36
1176.73
1176.97
1177.24
1177.53
1177.86
1178.2
1178.56
1178.9
1179.23
1179.48
1157.66
1157.9
1158.16
1158.43
1158.7
1158.97
1159.22
1159.44
1159.64
1159.77
1138.53
1138.78
1139.03
1139.27
1139.49
1139.69
1139.86
1139.99
1140.07
1140.11
1119.4
1119.66
1119.9
1120.12
1120.31
1120.45
1120.54
1120.57
1120.54
1120.46
1100.33
1100.59
1100.82
1101.03
1101.2
1101.3
1101.3
1101.22
1101.15
1100.95
1081.34
1081.58
1081.82
1082.07
1082.35
1082.59
1082.6
1082.48
1082.42
1082.36
1062.5
1062.71
1062.92
1063.35
1063.97
1064.88
1064.93
1068.44
1069.89
1069.79
1044.19
1044.35
1045.84
1046.62
1047.34
1047.85
1047.76
1049.13
1048.88
1051.07
1026.61
1027.43
1028.3
1029.35
1029.95
1028.84
1029.59
1030.19
1030.37
1030.7
1008.46
1008.99
1008.92
1009.58
1010.3
1010.66
1011.11
1011.73
1012.3
1012.87
991.251
988.866
989.738
990.37
991.058
991.805
992.608
993.483
994.378
995.29
968.262
968.935
969.851
970.799
971.78
972.823
973.947
975.149
976.424
977.768
948.365
949.203
950.137
951.155
952.302
953.619
955.066
956.639
958.355
960.232
928.21
929.126
930.154
931.481
933.589
934.018
935.724
937.601
939.683
942
907.674
908.638
909.83
911.298
912.781
913.922
915.742
917.798
920.096
922.66
886.652
887.625
888.941
890.24
891.653
893.221
894.99
897.104
899.512
902.196
865.102
866.03
867.275
868.56
869.998
871.623
873.373
875.438
877.915
880.696
842.892
843.718
844.716
845.974
847.687
849.236
850.591
852.686
855.225
858.123
819.929
820.501
821.273
822.194
823.386
824.942
826.429
828.574
831.141
834.131
796.208
796.446
796.86
797.474
798.331
799.467
800.951
802.854
805.227
808.119
771.681
771.465
771.43
771.552
771.884
772.51
773.454
774.798
776.656
779.217
746.506
745.919
744.953
744.346
743.872
743.713
743.919
744.793
746.358
748.86
722.302
719.372
718.236
716.491
715.527
714.605
715.746
717.969
722.194
725.091
695.753
694.009
691.573
689.583
694.518
696.483
692.906
693.228
692.202
688.484
671.022
674.554
677.234
678.075
674.611
666.324
664.35
659.405
655.339
652.633
661.671
660.088
654.908
651.591
648.324
642.069
635.529
628.693
621.002
612.325
643.651
641.678
637.925
631.756
625.32
618.542
610.914
602.17
592.356
583.399
628.524
624.751
619.682
613.782
607.214
599.645
590.809
582.689
578.335
578.574
614.037
609.685
604.9
599.39
592.773
585.004
579.073
578.082
579.528
579.958
599.077
596.201
592.549
587.816
582.224
578.69
579.147
579.413
579.451
579.476
584.948
584.057
582.132
579.41
578.094
579.08
579.252
579.312
579.307
579.205
573.292
574.532
575.16
576.457
578.446
579.046
579.273
579.241
579.07
578.91
562.901
567.577
571.937
575.764
577.824
577.937
578.183
578.749
578.337
576.13
552.22
560.927
566.222
571.155
571.395
571.709
572.666
583.447
569.624
560.131
527.346
532.184
538.23
546.471
539.354
533.06
533.24
530.558
508.517
503.635
494.039
494.463
494.342
488.082
484.092
482.46
482.257
479.879
476.262
476.503
469.902
469.699
468.147
465.394
463.277
463.326
464.606
467.515
483.388
474.656
451.039
451.859
451.585
450.225
449.474
452.708
461.791
472.499
473.578
469.864
435.266
437.386
437.515
436.175
438.974
447.382
453.727
457.679
455.696
447.481
423.862
426.721
427.802
422.974
429.712
434.392
437.844
437.474
432.147
421.032
407.918
420.085
414.594
413.899
421.408
422.511
420.612
416.122
408.641
396.038
399.074
410.126
396.274
403.655
406.549
406.088
401.628
394.214
383.733
370.764
394.184
390.544
391.952
396.73
396.69
391.747
383.326
373.38
361.388
347.98
384.775
380.206
387.71
390.973
380.597
372.609
364.194
353.125
340.254
326.488
371.263
373.007
382.896
377.791
367.861
356.413
344.991
332.65
319.353
305.441
357.414
370.961
377.443
346.928
341.752
334.182
323.836
311.545
298.073
283.903
339.879
367.781
351.313
340.929
331.454
320.237
307.143
292.887
277.982
262.823
357.232
356.619
350.057
334.931
319.149
304.139
288.873
273.036
256.818
240.536
350.007
329.704
320.261
310.666
297.519
282.886
267.314
250.883
233.974
217.151
322.934
300.116
297.088
287.811
275.679
261.636
245.865
228.727
210.697
192.25
303.563
298.655
288.105
273.81
259.026
243.585
227.103
209.834
192.302
175.246
285.932
278.596
266.332
251.996
237.553
222.402
206.203
189.413
172.932
157.794
247.619
246.905
238.607
226.783
214.11
200.074
184.318
167.238
149.266
129.843
220.322
220.136
213.444
203.937
193.336
181.139
167.121
151.711
135.288
118.407
200.283
198.261
192.246
184.499
175.883
165.934
154.555
142.223
129.661
119.781
181.778
178.903
173.366
166.941
160.204
152.611
144.073
135.07
126.666
123.015
162.024
160.42
155.593
150.24
145.204
139.864
134.039
128.144
123.516
124.779
144.628
142.009
136.81
132.409
129.226
126.289
123.223
120.361
119.384
124.863
105.915
111.909
112.212
111.184
110.707
110.388
110.134
110.787
114.677
123.739
84.8163
89.5186
90.3111
90.2664
90.6802
91.2246
91.9776
94.4936
101.029
106.424
65.1142
68.7116
69.7897
70.1154
70.2446
69.9771
69.3036
69.4597
69.9742
57.7143
45.4839
50.2881
52.1123
52.5003
51.8394
50.4058
48.1179
45.7084
41.5207
24.5926
45.3307
41.6028
39.5687
38.2226
36.4299
33.9869
30.4131
25.9478
19.1684
6.29003
13.5409
21.5079
25.0678
25.0455
23.5785
21.0815
17.1639
12.1951
5.58983
-1.10561
25.4264
21.3111
19.1304
15.8386
13.3456
10.7038
6.92636
2.63313
-2.61848
-4.25611
6.87284
6.50717
7.24059
4.56279
2.84066
0.841382
-2.54745
-5.66185
-10.1754
-6.844
-3.02894
-4.96517
-3.35915
-4.78864
-5.78321
-7.3459
-10.6579
-12.2338
-18.1669
-11.8122
-11.3862
-7.46383
-8.99175
-10.4774
-12.1004
-13.2785
-14.6023
-12.8986
-15.8385
-22.1613
-26.5619
-0.698811
-13.4739
-15.3607
-18.8146
-19.9126
-17.2947
-13.2306
-1.98457
-38.2499
1771.32
1771.16
1770.98
1770.8
1770.61
1770.42
1770.21
1770
1769.78
1769.55
1769.32
1769.08
1768.84
1768.59
1768.34
1768.09
1767.83
1767.58
1767.33
1767.08
1766.82
1766.58
1766.34
1766.1
1765.87
1765.67
1765.46
1765.27
1765.1
1764.94
1764.8
1764.67
1764.56
1764.47
1764.4
1764.35
1764.31
1764.28
1764.28
1764.28
1751.83
1751.66
1751.48
1751.29
1751.1
1750.89
1750.67
1750.45
1750.22
1749.99
1749.74
1749.49
1749.24
1748.98
1748.72
1748.45
1748.19
1747.92
1747.66
1747.4
1747.14
1746.89
1746.64
1746.41
1746.18
1745.97
1745.77
1745.59
1745.42
1745.26
1745.12
1745
1744.9
1744.81
1744.74
1744.69
1744.66
1744.63
1744.63
1744.63
1732.34
1732.16
1731.98
1731.79
1731.58
1731.37
1731.15
1730.91
1730.67
1730.43
1730.17
1729.91
1729.64
1729.37
1729.1
1728.82
1728.54
1728.27
1727.99
1727.72
1727.45
1727.19
1726.93
1726.69
1726.46
1726.24
1726.04
1725.86
1725.69
1725.53
1725.39
1725.27
1725.17
1725.08
1725.02
1724.97
1724.94
1724.92
1724.93
1724.94
1712.85
1712.67
1712.48
1712.29
1712.08
1711.86
1711.63
1711.38
1711.14
1710.88
1710.61
1710.34
1710.06
1709.77
1709.48
1709.19
1708.9
1708.61
1708.32
1708.03
1707.75
1707.47
1707.2
1706.95
1706.71
1706.48
1706.28
1706.09
1705.91
1705.75
1705.61
1705.49
1705.38
1705.3
1705.23
1705.19
1705.17
1705.17
1705.19
1705.22
1693.36
1693.18
1692.99
1692.79
1692.58
1692.35
1692.12
1691.87
1691.61
1691.34
1691.07
1690.78
1690.49
1690.19
1689.88
1689.58
1689.27
1688.96
1688.65
1688.35
1688.05
1687.75
1687.46
1687.19
1686.93
1686.7
1686.48
1686.28
1686.1
1685.94
1685.79
1685.66
1685.55
1685.46
1685.4
1685.36
1685.34
1685.38
1685.43
1685.46
1673.87
1673.69
1673.5
1673.3
1673.09
1672.86
1672.62
1672.37
1672.11
1671.83
1671.54
1671.25
1670.94
1670.62
1670.3
1669.98
1669.65
1669.33
1669
1668.67
1668.34
1668.02
1667.7
1667.4
1667.12
1666.87
1666.65
1666.44
1666.26
1666.09
1665.94
1665.8
1665.68
1665.59
1665.54
1665.5
1665.66
1665.62
1665.7
1665.73
1654.38
1654.21
1654.03
1653.83
1653.62
1653.39
1653.15
1652.9
1652.63
1652.35
1652.05
1651.74
1651.41
1651.08
1650.74
1650.39
1650.05
1649.7
1649.35
1649
1648.63
1648.26
1647.9
1647.55
1647.24
1646.97
1646.74
1646.54
1646.36
1646.2
1646.06
1645.93
1645.84
1645.91
1646.03
1646.08
1646.22
1646.16
1646.14
1646.17
1634.91
1634.75
1634.57
1634.38
1634.17
1633.95
1633.71
1633.46
1633.18
1632.9
1632.59
1632.27
1631.92
1631.56
1631.19
1630.82
1630.44
1630.07
1629.7
1629.32
1628.89
1628.47
1628.03
1627.62
1627.27
1627.07
1626.79
1626.57
1626.4
1626.27
1626.18
1626.16
1626.21
1626.46
1626.61
1626.52
1626.64
1626.86
1626.94
1626.96
1615.44
1615.29
1615.12
1614.94
1614.74
1614.52
1614.29
1614.04
1613.77
1613.48
1613.16
1612.82
1612.45
1612.05
1611.64
1611.22
1610.78
1610.56
1610.14
1609.61
1609.12
1608.6
1608.09
1607.79
1607.68
1607.32
1606.8
1606.53
1606.32
1606.17
1606.09
1606.09
1606.19
1606.84
1606.78
1607.19
1607.33
1607.23
1607.33
1607.32
1595.99
1595.84
1595.69
1595.51
1595.32
1595.11
1594.88
1594.62
1594.35
1594.06
1593.75
1593.4
1593
1592.57
1592.05
1591.85
1592.05
1591.05
1590.51
1589.93
1589.24
1588.8
1588.28
1587.7
1587.21
1587.06
1586.67
1586.33
1586.08
1585.94
1585.94
1586.14
1586.55
1586.86
1587.12
1587.36
1587.61
1587.87
1587.97
1588.03
1576.52
1576.39
1576.25
1576.08
1575.89
1575.68
1575.45
1575.19
1574.88
1574.59
1574.32
1574.01
1573.64
1573.78
1573.58
1572.71
1571.68
1571.36
1570.74
1570.06
1569.3
1568.75
1567.96
1567.63
1566.92
1566.38
1566.05
1565.81
1565.57
1565.45
1565.53
1565.79
1566.31
1567.01
1567.63
1568.21
1568.56
1568.56
1568.73
1568.72
1557.04
1556.92
1556.78
1556.61
1556.43
1556.21
1556
1555.77
1555.47
1555.78
1555.61
1555.34
1554.64
1553.68
1553.44
1552.87
1551.77
1550.94
1550.59
1550.16
1549.44
1548.74
1547.7
1547
1547.21
1546.96
1545.39
1545.27
1544.87
1544.61
1544.78
1545.25
1545.99
1546.81
1547.58
1548.36
1549.07
1549.53
1549.84
1549.96
1537.51
1537.38
1537.23
1537.06
1536.87
1536.63
1536.42
1536.58
1536.6
1536.15
1535.25
1534.94
1534.53
1533.94
1533.44
1532.96
1531.92
1533.53
1533.25
1530.27
1530.69
1529.01
1529.39
1529.24
1529.03
1528.26
1526.53
1524.92
1523.72
1523.26
1523.58
1524.31
1525.33
1526.67
1528.12
1529.52
1530.68
1531.46
1531.74
1531.74
1517.9
1517.75
1517.57
1517.37
1517.2
1517.17
1517.08
1516.7
1516.18
1516.06
1515.43
1514.8
1514.14
1513.57
1513.62
1513.73
1513.48
1512.88
1511.17
1512.08
1509.43
1510.2
1510.14
1508.73
1507.77
1507.82
1505.83
1506.07
1506.83
1505.73
1504.4
1503.02
1504.39
1506.49
1508.91
1511.23
1513.16
1514.38
1514.67
1514.2
1498.17
1497.98
1497.75
1497.55
1497.59
1497.48
1496.6
1496.79
1496.16
1495.32
1494.7
1494.44
1493.9
1495.03
1494.87
1494.31
1492.53
1491.85
1491.03
1489.8
1490.22
1490.64
1486.85
1486.77
1486.32
1485.96
1485.55
1485.25
1484.76
1485.66
1489.07
1489.82
1488.58
1487.05
1490.69
1494.54
1497.52
1498.9
1498.61
1497.18
1478.3
1478.02
1477.7
1477.39
1477.93
1476.91
1477.29
1476.7
1475.64
1476.63
1477.04
1473.56
1473.48
1472.74
1471.53
1470.81
1470.03
1469.38
1468.6
1467.58
1466.45
1465.48
1464.79
1464.33
1464.03
1463.86
1463.84
1464.06
1464.68
1465.79
1466.94
1466.99
1470.71
1475.06
1477.29
1479.56
1481.91
1483.79
1482.84
1480.11
1458.34
1458
1457.59
1457.25
1457.49
1457.29
1456.39
1455.91
1456.22
1456.2
1455.77
1453.25
1452.08
1451.23
1450.28
1449.35
1448.44
1447.53
1446.52
1445.36
1444.16
1442.97
1442.01
1441.38
1441.06
1440.97
1441.06
1441.34
1442
1443.22
1444.9
1446.92
1448.49
1448.29
1452.26
1451.49
1458.64
1465.08
1464.2
1462.62
1438.26
1437.89
1437.44
1436.93
1436.36
1435.65
1435.92
1435.94
1435.9
1434.88
1433.61
1432.37
1431.22
1430.14
1429.13
1428.13
1427.12
1426.05
1424.88
1423.56
1421.95
1420.12
1418.58
1417.69
1417.42
1417.48
1417.35
1416.92
1416.16
1416.34
1417.3
1418.32
1418.44
1414.63
1407.97
1405.58
1408.89
1422.39
1430.35
1430.01
1418.26
1417.61
1417.13
1416.54
1415.91
1415.65
1415.4
1414.9
1414.26
1413.65
1412.49
1411.36
1410.28
1409.26
1408.27
1407.3
1406.3
1405.22
1404.03
1402.58
1400.54
1399.09
1398.55
1396.58
1394.67
1394.95
1395.02
1392.85
1392.24
1387.09
1387.59
1388.69
1387.02
1380.5
1377.31
1394.33
1383.67
1384.63
1393.08
1398.39
1397.8
1397.35
1396.78
1396.25
1396.02
1395.65
1395.14
1394.66
1393.73
1392.69
1391.67
1390.66
1389.69
1388.78
1387.91
1387.06
1386.22
1385.35
1384.45
1383.39
1381.75
1382.06
1382.01
1379.27
1376.26
1372.24
1373.76
1370.92
1370.56
1368.91
1361.88
1363.97
1364.04
1363.91
1371.56
1377.64
1369.41
1364.35
1367.23
1372.54
1378.19
1377.48
1376.75
1376.61
1376.53
1375.88
1375.16
1374.4
1373.32
1372.3
1371.34
1370.44
1369.57
1368.79
1368.05
1367.36
1366.69
1366.03
1365.38
1364.69
1363.64
1363.38
1363.1
1360.47
1357.61
1354.36
1353.14
1356.03
1341.54
1339.9
1337.69
1340.49
1345.42
1351.55
1356.5
1357.51
1354.01
1349.65
1349.99
1353.49
1358.62
1357.9
1357.14
1357.56
1357.06
1356.36
1355.36
1354.41
1353.4
1352.45
1351.56
1350.77
1350.04
1349.39
1348.8
1348.26
1347.77
1347.33
1346.92
1346.59
1346.41
1346.29
1344.07
1341.76
1340.46
1337.79
1338.83
1334.6
1326.31
1327.14
1331.28
1333.69
1336.59
1339.43
1341.47
1340.32
1337.01
1335.79
1336.71
1338.57
1338.68
1337.96
1337.22
1338.35
1338.54
1337.55
1335.74
1334.83
1333.96
1333.14
1332.39
1331.73
1331.17
1330.68
1330.19
1329.75
1329.4
1329.03
1328.68
1328.29
1328.07
1328.88
1330.98
1329.93
1321.82
1316.31
1315.33
1316.35
1319
1321.18
1323.27
1325.68
1327.93
1329.38
1327.92
1323.68
1322.01
1322.23
1323.54
1324.95
1317.7
1319.01
1318.73
1317.98
1318.02
1316.96
1315.93
1315.54
1315.03
1314.51
1314.27
1313.78
1313.14
1312.82
1312.32
1312.04
1311.56
1311.1
1310.29
1308.98
1307.26
1307.14
1309.65
1313.58
1313.2
1307.29
1309.88
1311.73
1313.18
1315.37
1317.16
1319.12
1320.51
1316.73
1311.1
1308.69
1308.44
1308.92
1310.29
1311.44
1314.87
1298.26
1299.1
1299.09
1298.67
1298.24
1297.88
1297.54
1297.19
1296.84
1296.72
1296.38
1296.03
1295.74
1295.51
1295.21
1295.11
1295.01
1294.24
1293.08
1293.53
1302.01
1310.9
1305.9
1301.04
1300.95
1303.58
1305.46
1307.52
1309.09
1310.94
1311.35
1305.57
1299.29
1296.44
1295.59
1295.25
1295.45
1297.6
1297.67
1290.73
1280.54
1282.09
1282.06
1281.62
1281.18
1280.79
1280.45
1280.15
1279.87
1279.64
1279.44
1279.27
1279.11
1278.97
1279.06
1280.4
1280.47
1282.78
1284.83
1289.27
1295.54
1296.03
1291.84
1291.99
1295.01
1297.26
1298.98
1300.94
1302.76
1299.82
1293.2
1287.47
1284.58
1283.23
1282.25
1281.62
1281.74
1283.08
1282.89
1270.5
1267.64
1267.06
1267.48
1266.35
1265.32
1264.63
1264.14
1263.76
1263.48
1263.27
1263.12
1262.99
1262.82
1262.6
1262.72
1264.51
1269.54
1271.01
1276.01
1279.53
1283.77
1283.24
1283.5
1287.67
1289.72
1290.99
1292.59
1293.32
1287.72
1280.05
1274.92
1272.38
1270.63
1269.11
1267.89
1267.1
1267.45
1267.65
1267.57
1256.01
1254.43
1252.75
1250.64
1249.61
1248.92
1248.42
1247.93
1247.51
1247.23
1247.05
1246.91
1246.77
1246.52
1245.96
1245.03
1244.88
1249.36
1258.34
1265.76
1272.92
1271.39
1289.07
1278.16
1281.74
1283.22
1283.78
1281.73
1274.19
1266.57
1261.88
1259.25
1257.18
1255.31
1253.75
1252.54
1251.7
1251.83
1251.62
1251.4
1241.48
1241.03
1240.88
1240.95
1240.36
1235.18
1232.38
1231.74
1231.27
1231.01
1230.94
1230.98
1231.08
1231.18
1231.06
1230.44
1231.01
1237.09
1248.07
1256.68
1258.81
1262.55
1293.86
1264.43
1275.96
1269.18
1262.56
1256.16
1249.75
1246.19
1243.93
1241.94
1240.11
1238.55
1237.27
1236.25
1235.44
1234.87
1234.87
1234.22
1221.09
1221.63
1222.36
1223.29
1221.39
1216.51
1214.25
1214.09
1214.02
1214.1
1214.27
1214.67
1215.16
1215.82
1216.36
1217.05
1219.42
1226.25
1232.33
1239.88
1242.31
1243.76
1260.84
1246.96
1239.66
1225.23
1223.95
1225.08
1225.35
1224.87
1223.96
1222.87
1221.79
1220.81
1219.94
1219.17
1218.48
1217.8
1217.19
1216.48
1199.89
1200.08
1199.66
1198.77
1197.68
1196.73
1196.45
1196.3
1196.49
1196.63
1197.09
1197.87
1198.82
1199.86
1200.82
1202.89
1207.07
1212.93
1217.9
1222.78
1225.54
1226.35
1227.72
1223.13
1212.93
1206.14
1205.5
1206.04
1205.94
1205.4
1204.71
1204.01
1203.33
1202.68
1202.05
1201.44
1200.78
1200.02
1199.31
1198.71
1179.62
1179.58
1179.33
1178.96
1178.55
1178.24
1178.09
1178.12
1178.32
1178.66
1179.26
1180.13
1181.03
1182.01
1183.28
1185.86
1190.68
1195.05
1201.58
1206.4
1203.79
1201.98
1200.2
1196.74
1192.29
1189.26
1187.89
1187.16
1186.56
1186.02
1185.53
1185.08
1184.65
1184.22
1183.76
1183.23
1182.59
1181.79
1180.93
1180.6
1159.84
1159.8
1159.66
1159.47
1159.29
1159.17
1159.14
1159.24
1159.47
1159.85
1160.42
1161.33
1162.16
1162.94
1164.59
1167.81
1172.39
1177.91
1183.27
1182.34
1179.67
1176.1
1174.34
1172.56
1170.55
1169.01
1168.03
1167.39
1166.91
1166.55
1166.27
1166.03
1165.79
1165.52
1165.18
1164.74
1164.13
1163.3
1162.36
1162.08
1140.09
1140.01
1139.92
1139.82
1139.72
1139.67
1139.68
1139.78
1139.98
1140.28
1140.71
1141.32
1141.92
1142.74
1144.68
1148.71
1154.45
1159.92
1158.69
1157.03
1152.99
1151.44
1150.67
1149.51
1148.25
1147.59
1147.46
1147.34
1147.1
1146.92
1146.83
1146.78
1146.72
1146.61
1146.41
1146.06
1145.5
1144.67
1143.66
1143.34
1120.33
1120.18
1120.08
1120.01
1119.94
1119.88
1119.84
1119.88
1120.01
1120.2
1120.41
1120.6
1120.75
1121.25
1123.11
1127.71
1137.23
1136.96
1134.97
1131.06
1129.65
1129.13
1128.39
1127.39
1126.9
1128.46
1127.36
1127.02
1127.07
1127.06
1127.15
1127.29
1127.43
1127.51
1127.46
1127.24
1126.77
1125.98
1124.93
1124.53
1100.54
1100.21
1100.17
1100.12
1100.09
1099.79
1099.43
1099.44
1099.61
1099.72
1099.64
1099.32
1098.8
1098.57
1100.66
1115.34
1116.89
1114.51
1110.25
1108.61
1108.13
1107.6
1106.93
1106.55
1106.96
1107.22
1107.17
1106.55
1106.69
1106.89
1107.19
1107.55
1107.92
1108.21
1108.36
1108.31
1107.97
1107.24
1106.16
1105.79
1082.64
1083.89
1083.32
1083.02
1082.07
1081.63
1081.76
1079.13
1079.17
1079.3
1079.02
1078.46
1077.81
1077.83
1094.8
1095.76
1094.63
1090.21
1087.83
1087.12
1086.73
1086.18
1085.73
1085.86
1086.11
1086.11
1086.16
1085.68
1085.88
1086.34
1086.91
1087.54
1088.18
1088.74
1089.14
1089.3
1089.12
1088.47
1087.37
1086.91
1069.52
1069.25
1068.69
1068.8
1069.78
1068.77
1067.61
1064.04
1061.36
1060.96
1060.9
1061.58
1063.4
1071.22
1077.19
1063.97
1064.47
1064.15
1064.18
1064.15
1064.86
1064.78
1064.77
1065.13
1065.16
1065.21
1065.15
1064.77
1065.07
1065.66
1066.41
1067.29
1068.23
1069.13
1069.86
1070.28
1070.32
1069.83
1068.84
1067.8
1050.83
1050.73
1052.9
1051.4
1051.84
1051.95
1050.76
1048.56
1044.69
1042.67
1041.48
1042.47
1047.8
1052.88
1044.24
1041.11
1043.53
1043.05
1045.2
1043.22
1044.66
1044.58
1044.71
1044.89
1044.77
1044.64
1044.36
1044.19
1044.43
1044.96
1045.76
1046.84
1048.12
1049.45
1050.58
1051.36
1051.66
1051.37
1050.51
1049.55
1031.44
1032.31
1032.82
1032.42
1031.78
1034.84
1034.42
1026.71
1028.68
1022.94
1017.68
1019.73
1029
1028.32
1026.48
1032.25
1027.24
1029.12
1025.04
1024.71
1024.97
1025.13
1025.28
1025.66
1025.6
1024.79
1024.26
1024.05
1024.09
1024.42
1025.26
1026.74
1028.66
1030.59
1032.08
1033.12
1033.66
1033.58
1032.86
1032.68
1013.5
1014.1
1014.35
1014
1013.01
1012.67
1011.71
1011.33
1008.72
998.861
986.943
1005.18
1007.21
1008.36
1009.51
1011.17
1009.21
1010.38
1005.62
1005.87
1006.23
1006.51
1006.66
1007.3
1008.9
1005.61
1005.01
1004.51
1003.95
1003.71
1003.75
1004.55
1008.38
1013.36
1016.07
1016.98
1017.44
1017.59
1017.61
1019.19
996.256
997.218
998.025
998.62
998.914
998.174
995.41
993.09
992.714
983.058
977.277
981.926
977.527
988.122
992.462
993.038
990.942
989.651
989.495
989.648
989.575
989.612
989.803
989.488
989.381
988.543
987.816
986.602
984.72
982.407
984.801
988.746
984.304
993.576
1000.35
1002.8
1003.34
1003.52
1003.96
1004.71
979.239
980.822
982.467
984.341
986.017
984.33
980.869
974.265
971.084
966.527
968.361
969.236
970.152
981.014
985.7
983.514
980.716
978.754
977.637
976.704
975.728
975.326
975.502
975.713
975.919
975.411
974.656
973.379
971.26
968.856
970.545
984.836
984.779
981.224
984.516
987.849
990.77
991.657
990.355
991.515
962.392
964.926
967.953
971.965
976.037
974.63
973.442
973.051
968.584
966.587
966.271
966.264
966.189
969.374
976.303
976.975
973.654
971.499
969.274
967.138
965.494
977.828
976.79
965.886
965.676
965.427
965.202
964.79
964.076
963.987
967.154
973.474
974.778
974.301
974.325
975.008
976.805
980.493
977.978
980.23
944.728
948.008
951.941
957.086
963.331
966.648
968.758
968.696
966.93
966.485
966.021
965.417
964.607
963.783
963.593
962.914
961.504
962.976
962.136
960.228
958.706
975.919
975.79
957.706
957.039
957.08
957.356
957.587
957.834
959.142
963.419
967.465
968.609
968.097
967.337
967.177
965.39
968.329
969.493
971.508
925.679
929.282
933.431
938.365
944.359
950.97
956.539
961.349
964.696
964.147
964.218
964.293
964.137
963.798
963.52
963.6
964.573
964.319
952.9
956.437
945.901
973.896
964.178
954.779
951.408
950.452
950.398
950.583
950.951
952.422
957.122
962.05
963.459
963.347
962.881
962.525
957.842
957.586
962.39
964.331
905.337
909.03
913.147
917.712
922.72
928.133
934.022
940.852
945.958
951.443
957.474
959.534
959.871
959.473
959.174
959.009
959.145
956.924
942.139
949.401
932.932
966.625
949.701
947.294
943.791
942.542
942.401
942.655
943.099
944.52
949.567
956.821
958.897
959.183
959.049
957.706
951.707
948.591
954.169
958.179
883.95
887.748
891.912
896.387
901.048
905.7
910.031
913.626
916.712
921.063
928.524
936.965
939.642
940.709
942.904
943.023
936.754
931.181
936.311
929.765
924.982
946.389
933.828
934.903
933.644
932.773
932.977
933.701
934.58
936.162
941.475
951.013
954.546
955.169
955.095
953.102
945.692
940.419
946.915
952.562
861.557
865.615
870.095
874.931
879.992
885.098
889.997
894.361
897.938
900.855
903.443
905.484
906.409
906.52
906.177
906.524
911.453
919.373
924.565
923.46
924.568
924.861
923.296
922.306
921.62
921.206
922.217
923.881
925.697
927.885
933.147
943.562
950.2
951.524
951.472
948.441
938.134
932.734
940.593
947.498
837.753
842.128
847.047
852.439
858.172
864.083
869.977
875.632
880.846
885.517
889.585
892.839
894.93
895.93
896.767
898.906
903.45
909.278
910.454
916.347
918.722
918.344
917.347
914.252
910.074
908.35
909.872
912.798
915.878
919.128
924.175
934.4
945.141
948.401
948.495
940.741
927.283
924.998
934.505
942.512
811.772
816.374
821.724
827.755
834.355
841.383
848.625
855.77
862.486
868.573
874.096
879.14
883.439
886.408
887.991
889.072
890.213
891.621
892.057
893.56
902.349
909.214
911.641
909.858
901.665
896.081
896.05
899.94
904.252
908.407
913.218
921.682
934.674
946.286
947.607
922.151
911.22
915.945
926.244
937.071
782.865
787.889
794.108
801.337
809.469
818.374
827.701
836.798
845.58
853.272
860.142
866.105
872.671
876.903
877.714
878.213
878.254
877.047
875.968
875.627
879.4
887.166
898.623
907.358
899
886.752
881.562
884.806
890.538
895.293
899.291
904.372
913.264
929.366
939.376
904.451
899.959
907.302
918.309
929.724
753.267
759.406
766.447
775.076
785.468
796.597
808.107
819.499
829.431
838.345
846.003
852.057
861.561
864.446
867.403
868.787
871.082
870.763
868.531
863.585
862.227
861.679
868.165
881.992
898.078
883.881
869.554
869.95
876.591
881.676
884.732
887.93
892.223
898.437
895.987
889.824
891.237
898.555
909.306
921.347
727.761
731.462
737.374
743.786
751.445
762.568
775.704
789.04
802.087
812.907
823.104
831.553
839.129
841.92
845.583
847.656
849.617
851.141
853.077
852.753
848.434
842.057
840.806
842.231
855.077
874.849
867.303
859.543
858.076
864.14
867.78
870.546
873.304
875.455
875.85
875.532
878.369
885.554
896.926
909.967
688.267
690.086
693.621
700.579
709.764
722.853
738.7
755.688
771.711
785.553
797.326
807.127
814.254
818.394
821.214
823.458
824.396
824.887
825.128
824.43
826.204
825.841
821.248
816.703
820.545
823.938
828.004
836.256
862.059
863.145
849.219
850.939
853.225
854.85
855.104
856.321
860.124
867.932
880.213
894.06
648.453
644.472
642.303
643.762
653.368
673.659
699.101
722.508
742.582
759.159
772.5
782.836
790.135
794.665
797.096
798.022
797.554
795.878
793.403
791.59
791.342
791.251
795.776
792.792
791.147
789.021
784.457
783.889
799.401
831.265
845.064
840.243
828.56
826.578
828.456
831.484
836.626
845.43
858.522
872.879
603.077
594.247
587.392
582.929
590.072
623.005
662.035
694.747
717.72
734.404
747.42
757.132
763.679
767.467
768.993
768.699
766.923
764.003
760.312
756.287
752.38
749.99
750.345
751.94
751.88
750.541
749.039
748.334
753.556
777.075
806.916
816.717
813.837
806.073
798.26
799.254
806.814
817.703
831.859
846.727
578.356
579.279
580.774
582.003
585.602
602.294
637.904
680.965
702.864
713.264
722.084
729.128
733.533
735.449
735.249
733.263
729.831
725.343
720.25
715.037
710.204
706.37
704.026
702.953
702.853
703.888
706.071
708.9
713.325
727.409
757.747
782.384
789.96
786.47
777.542
769.301
773.32
785.768
801.264
816.699
579.778
580.494
581.477
582.406
583.586
586.433
614.358
668.646
688.2
690.356
693.454
696.775
698.27
697.715
695.323
691.274
685.81
679.289
672.192
665.103
658.635
653.383
649.835
648.223
648.633
651.14
655.723
662.158
670.061
680.875
702.97
735.979
756.327
762.774
755.177
742.537
738.87
750.435
767.588
782.89
580.128
580.272
580.551
580.977
581.73
584.696
614.765
656.004
663.341
659.74
658.705
658.443
656.898
653.707
648.876
642.426
634.534
625.6
616.208
607.029
598.723
591.92
587.352
585.63
586.96
591.161
597.96
607.115
618.272
630.878
646.76
674.863
705.151
730.71
727.89
716.393
708.529
714.995
731.844
744.959
579.521
579.615
579.79
580.094
581.201
592.088
616.04
626.842
624.039
620.049
617.326
614.335
610.148
604.516
597.361
588.794
579.23
568.919
557.673
545.931
534.717
525.271
519.155
517.088
519.452
525.8
535.275
547.326
561.607
577.567
595.16
619.678
657.09
684.349
690.489
680.819
674.115
676.322
691.586
704.651
579.161
579.247
579.415
579.787
581.838
587.425
590.366
587.171
582.232
577.51
572.654
567.085
560.518
552.933
544.707
536.225
527.414
515.724
497.174
474.959
451.729
434.056
431.721
436.851
445.269
456.547
470.379
486.077
503.465
522.313
542.178
565.003
599.852
629.971
649.834
649.354
640.213
637.409
650.39
662.822
578.806
578.676
577.978
573.567
565.942
559.697
553.729
547.3
540.696
533.782
526.318
518.165
509.416
500.568
492.086
480.411
458.643
422.852
382.37
365.265
354.941
348.183
354.951
355.768
368.801
388.979
409.442
429.255
449.539
470.453
492.135
515.491
546.756
577.616
611.546
612.778
602.808
597.759
609.198
619.974
574.119
571.472
558.277
541.171
530.783
523.211
515.638
507.449
498.666
489.225
479.107
468.454
457.607
445.659
427.65
393.202
349.164
335.076
331.636
328.57
328.04
330.002
330.168
318.121
326.639
347.626
368.151
387.653
407.304
428.133
449.939
473.632
504.462
534.789