/*--------------------------------*- C++ -*----------------------------------*\
  =========                 |
  \\      /  F ield         | OpenFOAM: The Open Source CFD Toolbox
   \\    /   O peration     | Website:  https://openfoam.org
    \\  /    A nd           | Version:  8
     \\/     M anipulation  |
\*---------------------------------------------------------------------------*/
FoamFile
{
    version     2.0;
    format      ascii;
    class       surfaceScalarField;
    location    "4.7";
    object      phi;
}
// * * * * * * * * * * * * * * * * * * * * * * * * * * * * * * * * * * * * * //

dimensions      [0 3 -1 0 0 0 0];

internalField   nonuniform List<scalar> 
18095
(
1.58448e-07
-9.65496e-07
8.07048e-07
1.65379e-07
-1.24824e-06
1.24131e-06
1.22208e-07
-1.24224e-06
1.28541e-06
6.53567e-08
-1.26347e-06
1.32032e-06
6.25417e-11
-1.28046e-06
1.34576e-06
-6.52428e-08
-1.28048e-06
1.34578e-06
-1.22122e-07
-1.2635e-06
1.32038e-06
-1.65323e-07
-1.24228e-06
1.28548e-06
-1.58425e-07
-1.24827e-06
1.24137e-06
-9.65566e-07
8.07141e-07
1.11043e-07
-1.07654e-06
9.94191e-08
-1.23662e-06
7.28662e-08
-1.21569e-06
4.00597e-08
-1.23066e-06
4.18258e-11
-1.24045e-06
-3.99823e-08
-1.24045e-06
-7.28047e-08
-1.23068e-06
-9.93728e-08
-1.21571e-06
-1.11017e-07
-1.23663e-06
-1.07658e-06
6.71702e-08
-1.14371e-06
5.27552e-08
-1.2222e-06
4.21438e-08
-1.20508e-06
2.38749e-08
-1.21239e-06
2.66048e-11
-1.2166e-06
-2.38251e-08
-1.2166e-06
-4.21036e-08
-1.2124e-06
-5.27245e-08
-1.20509e-06
-6.71478e-08
-1.2222e-06
-1.14373e-06
3.96272e-08
-1.18334e-06
2.66227e-08
-1.2092e-06
2.20158e-08
-1.20047e-06
1.25334e-08
-1.20291e-06
1.49512e-11
-1.20408e-06
-1.25052e-08
-1.20408e-06
-2.19926e-08
-1.20291e-06
-2.66053e-08
-1.20047e-06
-3.96122e-08
-1.2092e-06
-1.18334e-06
1.66633e-08
7.46564e-09
6.99412e-09
4.08422e-09
4.9933e-12
-4.07479e-09
-6.98647e-09
-7.46043e-09
-1.66571e-08
-1.74616e-07
-1.16372e-06
1.33833e-06
-2.18655e-07
-1.21623e-06
1.26027e-06
-1.64676e-07
-1.21268e-06
1.1587e-06
-8.6539e-08
-1.2039e-06
1.12577e-06
6.92231e-10
-1.20245e-06
1.11522e-06
8.78941e-08
-1.20255e-06
1.11535e-06
1.65896e-07
-1.20419e-06
1.12618e-06
2.19768e-07
-1.21309e-06
1.15922e-06
1.75638e-07
-1.21681e-06
1.26094e-06
-1.16438e-06
1.34002e-06
-9.28988e-08
-1.07082e-06
-9.54482e-08
-1.21369e-06
-7.89828e-08
-1.22915e-06
-4.38746e-08
-1.23901e-06
3.90795e-10
-1.24671e-06
4.46243e-08
-1.24679e-06
7.96526e-08
-1.23922e-06
9.5997e-08
-1.22943e-06
9.32111e-08
-1.21402e-06
-1.07117e-06
-5.79042e-08
-1.01291e-06
-5.50585e-08
-1.21653e-06
-4.63565e-08
-1.23785e-06
-2.69278e-08
-1.25844e-06
2.35037e-10
-1.27388e-06
2.73753e-08
-1.27393e-06
4.674e-08
-1.25858e-06
5.53382e-08
-1.23803e-06
5.80406e-08
-1.21672e-06
-1.01313e-06
-7.47338e-08
-9.3818e-07
-6.18875e-08
-1.22938e-06
-4.84897e-08
-1.25125e-06
-2.76569e-08
-1.27927e-06
1.45664e-10
-1.30168e-06
2.79321e-08
-1.30171e-06
4.87184e-08
-1.27937e-06
6.20419e-08
-1.25135e-06
7.48059e-08
-1.22949e-06
-9.38324e-07
-1.31132e-07
-1.192e-07
-8.50316e-08
-4.39861e-08
9.43332e-11
4.41632e-08
8.51765e-08
1.19299e-07
1.31183e-07
-3.6327e-08
-9.24234e-07
9.60561e-07
1.07465e-08
-1.33969e-06
1.29262e-06
1.55877e-08
-1.27457e-06
1.26973e-06
1.07106e-08
-1.22616e-06
1.23104e-06
6.13462e-09
-1.22316e-06
1.22774e-06
1.57501e-09
-1.22404e-06
1.22859e-06
-4.15495e-09
-1.2262e-06
1.23193e-06
4.31567e-09
-1.273e-06
1.26453e-06
5.81691e-08
-1.34247e-06
1.28862e-06
-9.46482e-07
1.00465e-06
1.63619e-08
-9.40596e-07
2.35659e-08
-1.34689e-06
1.66058e-08
-1.26761e-06
1.08072e-08
-1.22036e-06
4.62564e-09
-1.21698e-06
-1.75649e-09
-1.21765e-06
-7.66849e-09
-1.22028e-06
-1.24218e-08
-1.26825e-06
-6.23936e-09
-1.34865e-06
-9.52721e-07
3.04897e-08
-9.71085e-07
2.19265e-08
-1.33833e-06
1.33755e-08
-1.25906e-06
8.7781e-09
-1.21576e-06
2.89257e-09
-1.21109e-06
-3.49281e-09
-1.21127e-06
-7.77772e-09
-1.216e-06
-1.63571e-08
-1.25967e-06
-2.54431e-08
-1.33957e-06
-9.78164e-07
8.08884e-08
-1.05197e-06
5.47444e-08
-1.31219e-06
3.57152e-08
-1.24003e-06
2.26532e-08
-1.2027e-06
1.81857e-09
-1.19026e-06
-1.90515e-08
-1.1904e-06
-3.1717e-08
-1.20333e-06
-5.05393e-08
-1.24085e-06
-7.73713e-08
-1.31273e-06
-1.05554e-06
2.8636e-07
2.34448e-07
1.53119e-07
7.61843e-08
1.14032e-09
-7.39069e-08
-1.51056e-07
-2.32689e-07
-2.84484e-07
4.69445e-08
3.07506e-09
-5.00195e-08
4.38926e-08
3.05184e-09
4.08762e-08
3.01643e-09
3.79053e-08
2.97089e-09
3.49886e-08
2.91676e-09
3.21388e-08
2.84978e-09
2.93621e-08
2.7767e-09
2.66713e-08
2.69071e-09
2.40765e-08
2.59479e-09
2.4891e-09
2.15872e-08
4.35764e-08
6.45022e-09
-4.69516e-08
4.0205e-08
6.42328e-09
3.68549e-08
6.36647e-09
3.35442e-08
6.28165e-09
3.0291e-08
6.16991e-09
2.71078e-08
6.03294e-09
2.40159e-08
5.86854e-09
2.10288e-08
5.6776e-09
1.81617e-08
5.46172e-09
5.22235e-09
1.54283e-08
3.48083e-08
9.72654e-09
-3.80846e-08
3.15437e-08
9.68788e-09
2.83068e-08
9.60331e-09
2.51144e-08
9.4741e-09
2.19826e-08
9.30155e-09
1.8929e-08
9.08653e-09
1.59679e-08
8.8295e-09
1.31144e-08
8.5309e-09
1.03818e-08
8.19424e-09
7.82112e-09
7.78282e-09
2.57964e-08
1.29086e-08
-2.89784e-08
2.26358e-08
1.28484e-08
1.95114e-08
1.27277e-08
1.6437e-08
1.25484e-08
1.34277e-08
1.23108e-08
1.04979e-08
1.20162e-08
7.66135e-09
1.16659e-08
4.9304e-09
1.12618e-08
2.31811e-09
1.08065e-08
1.03028e-08
-1.63697e-10
1.65872e-08
1.60258e-08
-1.97044e-08
1.34975e-08
1.59378e-08
1.04482e-08
1.5777e-08
7.45267e-09
1.55438e-08
4.5238e-09
1.52396e-08
1.67316e-09
1.48668e-08
-1.08664e-09
1.44257e-08
-3.74422e-09
1.39193e-08
-6.28801e-09
1.33502e-08
1.27216e-08
-8.70678e-09
7.09712e-09
1.91105e-08
-1.01819e-08
4.0421e-09
1.89926e-08
1.02812e-09
1.87909e-08
-1.93451e-09
1.85063e-08
-4.83469e-09
1.81397e-08
-7.66075e-09
1.76928e-08
-1.04026e-08
1.71676e-08
-1.30494e-08
1.65662e-08
-1.55906e-08
1.58914e-08
1.51467e-08
-1.80156e-08
-2.73603e-09
2.21992e-08
-3.52733e-10
-5.7992e-09
2.20556e-08
-8.82751e-09
2.18191e-08
-1.18115e-08
2.14903e-08
-1.47422e-08
2.10704e-08
-1.76102e-08
2.05608e-08
-2.04059e-08
1.99633e-08
-2.31198e-08
1.92801e-08
-2.57422e-08
1.85138e-08
1.76677e-08
-2.82633e-08
-1.2982e-08
2.53368e-08
9.84431e-09
-1.61047e-08
2.51783e-08
-1.92054e-08
2.49198e-08
-2.22771e-08
2.4562e-08
-2.53126e-08
2.41059e-08
-2.83047e-08
2.35527e-08
-3.12455e-08
2.2904e-08
-3.4127e-08
2.21615e-08
-3.69408e-08
2.13275e-08
2.04048e-08
-3.96779e-08
-2.37212e-08
2.85772e-08
2.04808e-08
-2.69658e-08
2.84229e-08
-3.02106e-08
2.81646e-08
-3.34515e-08
2.78029e-08
-3.66845e-08
2.73387e-08
-3.99049e-08
2.6773e-08
-4.31077e-08
2.61066e-08
-4.62871e-08
2.53409e-08
-4.94372e-08
2.44776e-08
2.35189e-08
-5.25513e-08
-3.50455e-08
3.1985e-08
3.16377e-08
-3.8487e-08
3.18645e-08
-4.19621e-08
3.16396e-08
-4.54713e-08
3.13118e-08
-4.9015e-08
3.08822e-08
-5.25935e-08
3.03513e-08
-5.62056e-08
2.97185e-08
-5.98497e-08
2.8985e-08
-6.35237e-08
2.81516e-08
2.72193e-08
-6.7224e-08
-4.70497e-08
3.56339e-08
4.34008e-08
-5.07739e-08
3.55887e-08
-5.45786e-08
3.54442e-08
-5.84704e-08
3.52035e-08
-6.24576e-08
3.48694e-08
-6.65481e-08
3.44416e-08
-7.07466e-08
3.3917e-08
-7.50567e-08
3.32951e-08
-7.94829e-08
3.25778e-08
3.17648e-08
-8.40283e-08
-5.98143e-08
3.96012e-08
5.5847e-08
-6.39139e-08
3.96885e-08
-6.8153e-08
3.96832e-08
-7.255e-08
3.96003e-08
-7.71249e-08
3.94443e-08
-8.1894e-08
3.92107e-08
-8.68726e-08
3.88956e-08
-9.20731e-08
3.84957e-08
-9.7504e-08
3.80088e-08
3.74329e-08
-1.03172e-07
-7.33899e-08
4.39584e-08
6.90327e-08
-7.79434e-08
4.42423e-08
-8.27078e-08
4.44477e-08
-8.77271e-08
4.46195e-08
-9.30317e-08
4.4749e-08
-9.86473e-08
4.48263e-08
-1.04596e-07
4.48449e-08
-1.10894e-07
4.47935e-08
-1.1755e-07
4.46644e-08
4.44505e-08
-1.24567e-07
-8.7723e-08
4.87147e-08
8.29667e-08
-9.2759e-08
4.92785e-08
-9.81346e-08
4.98233e-08
-1.0388e-07
5.03648e-08
-1.10035e-07
5.0904e-08
-1.16635e-07
5.14264e-08
-1.237e-07
5.19101e-08
-1.3124e-07
5.23339e-08
-1.39253e-07
5.26773e-08
5.29206e-08
-1.47723e-07
-1.0272e-07
5.39147e-08
9.75196e-08
-1.08288e-07
5.48467e-08
-1.14305e-07
5.58402e-08
-1.20816e-07
5.68763e-08
-1.27871e-07
5.79593e-08
-1.35507e-07
5.90623e-08
-1.43734e-07
6.01377e-08
-1.52544e-07
6.11439e-08
-1.619e-07
6.20333e-08
6.2768e-08
-1.71748e-07
-1.18176e-07
5.95385e-08
1.12552e-07
-1.24263e-07
6.09338e-08
-1.30885e-07
6.24621e-08
-1.38125e-07
6.41168e-08
-1.46038e-07
6.58722e-08
-1.54652e-07
6.76768e-08
-1.63968e-07
6.94542e-08
-1.73939e-07
7.11145e-08
-1.84472e-07
7.25667e-08
7.37419e-08
-1.95446e-07
-1.33806e-07
6.54991e-08
1.27845e-07
-1.40304e-07
6.74323e-08
-1.47421e-07
6.95788e-08
-1.55251e-07
7.19475e-08
-1.6386e-07
7.4481e-08
-1.7328e-07
7.7097e-08
-1.83498e-07
7.96725e-08
-1.94424e-07
8.20406e-08
-2.05882e-07
8.40249e-08
8.55308e-08
-2.17671e-07
-1.49304e-07
7.16423e-08
1.43161e-07
-1.56019e-07
7.41474e-08
-1.63417e-07
7.69771e-08
-1.71587e-07
8.01169e-08
-1.80605e-07
8.34998e-08
-1.90528e-07
8.70193e-08
-2.01365e-07
9.05104e-08
-2.12987e-07
9.36619e-08
-2.25034e-07
9.60724e-08
9.77129e-08
-2.37216e-07
-1.64475e-07
7.77572e-08
1.5836e-07
-1.71147e-07
8.08198e-08
-1.78503e-07
8.43333e-08
-1.86647e-07
8.82608e-08
-1.95677e-07
9.25298e-08
-2.0566e-07
9.70024e-08
-2.16653e-07
1.01503e-07
-2.28591e-07
1.05599e-07
-2.40984e-07
1.08465e-07
1.09484e-07
-2.52755e-07
-1.78989e-07
8.36075e-08
1.73139e-07
-1.85356e-07
8.71865e-08
-1.92381e-07
9.13577e-08
-2.00192e-07
9.60722e-08
-2.08877e-07
1.01214e-07
-2.18536e-07
1.06661e-07
-2.2916e-07
1.12127e-07
-2.4114e-07
1.1758e-07
-2.52653e-07
1.19978e-07
1.19114e-07
-2.62282e-07
-1.92444e-07
8.88265e-08
1.87225e-07
-1.98094e-07
9.28367e-08
-2.04341e-07
9.7604e-08
-2.11364e-07
1.03096e-07
-2.19299e-07
1.0915e-07
-2.28089e-07
1.15451e-07
-2.37216e-07
1.21254e-07
-2.45324e-07
1.25688e-07
-2.52947e-07
1.27601e-07
1.27784e-07
-2.61618e-07
-2.04145e-07
9.28334e-08
2.00138e-07
-2.08315e-07
9.70069e-08
-2.12928e-07
1.02216e-07
-2.18057e-07
1.08225e-07
-2.23726e-07
1.14819e-07
-2.2939e-07
1.21115e-07
-2.34945e-07
1.26809e-07
-2.40368e-07
1.31111e-07
-2.46666e-07
1.33899e-07
1.35158e-07
-2.54039e-07
-2.14037e-07
9.49604e-08
2.1191e-07
-2.16169e-07
9.91393e-08
-2.18304e-07
1.04351e-07
-2.20245e-07
1.10166e-07
-2.21867e-07
1.16441e-07
-2.23509e-07
1.22757e-07
-2.25295e-07
1.28596e-07
-2.28086e-07
1.33901e-07
-2.32732e-07
1.38544e-07
1.41983e-07
-2.39557e-07
-2.23111e-07
9.51039e-08
2.22968e-07
-2.22467e-07
9.84952e-08
-2.20906e-07
1.0279e-07
-2.18719e-07
1.07979e-07
-2.16238e-07
1.1396e-07
-2.1358e-07
1.20098e-07
-2.11428e-07
1.26444e-07
-2.10713e-07
1.33187e-07
-2.12381e-07
1.40211e-07
1.47155e-07
-2.17553e-07
-2.29324e-07
9.34509e-08
2.30977e-07
-2.26452e-07
9.56232e-08
-2.22189e-07
9.85262e-08
-2.16711e-07
1.02502e-07
-2.11334e-07
1.08583e-07
-2.05748e-07
1.14512e-07
-2.00558e-07
1.21255e-07
-1.9641e-07
1.29039e-07
-1.94127e-07
1.37928e-07
1.48448e-07
-1.9542e-07
-2.30369e-07
9.05362e-08
2.33284e-07
-2.26408e-07
9.1662e-08
-2.21786e-07
9.39034e-08
-2.16633e-07
9.73493e-08
-2.09818e-07
1.01769e-07
-2.02557e-07
1.0725e-07
-1.95196e-07
1.13893e-07
-1.8867e-07
1.22513e-07
-1.84348e-07
1.33607e-07
1.44188e-07
-1.80088e-07
-2.26902e-07
8.74252e-08
2.30013e-07
-2.22994e-07
8.77538e-08
-2.18154e-07
8.90634e-08
-2.12145e-07
9.13407e-08
-2.0494e-07
9.45634e-08
-1.96387e-07
9.86972e-08
-1.86344e-07
1.0385e-07
-1.74567e-07
1.10736e-07
-1.61769e-07
1.20808e-07
1.2866e-07
-1.46242e-07
-2.19461e-07
8.41547e-08
2.22732e-07
-2.15467e-07
8.37591e-08
-2.10627e-07
8.42234e-08
-2.04794e-07
8.55078e-08
-1.97804e-07
8.75731e-08
-1.8948e-07
9.03733e-08
-1.79501e-07
9.38708e-08
-1.66896e-07
9.81317e-08
-1.50455e-07
1.04368e-07
1.10941e-07
-1.32736e-07
-2.08695e-07
8.04836e-08
2.12366e-07
-2.04446e-07
7.95094e-08
-1.99534e-07
7.93114e-08
-1.93876e-07
7.98501e-08
-1.87378e-07
8.10751e-08
-1.79933e-07
8.29283e-08
-1.71405e-07
8.53426e-08
-1.61555e-07
8.82816e-08
-1.4902e-07
9.18333e-08
9.55812e-08
-1.3366e-07
-1.95646e-07
7.60127e-08
2.00117e-07
-1.90708e-07
7.45711e-08
-1.85248e-07
7.38512e-08
-1.79215e-07
7.38177e-08
-1.72561e-07
7.44212e-08
-1.65229e-07
7.55956e-08
-1.5714e-07
7.72543e-08
-1.48154e-07
7.92951e-08
-1.3778e-07
8.14601e-08
8.32523e-08
-1.25451e-07
-1.81732e-07
7.04174e-08
1.87327e-07
-1.75752e-07
6.85913e-08
-1.69349e-07
6.74479e-08
-1.62483e-07
6.69521e-08
-1.55111e-07
6.70493e-08
-1.47181e-07
6.76655e-08
-1.38623e-07
6.86959e-08
-1.29319e-07
6.99916e-08
-1.19187e-07
7.13281e-08
7.23667e-08
-1.08301e-07
-1.68281e-07
6.3626e-08
1.75073e-07
-1.61223e-07
6.15327e-08
-1.53868e-07
6.00932e-08
-1.46193e-07
5.92777e-08
-1.38181e-07
5.90371e-08
-1.29816e-07
5.93e-08
-1.21087e-07
5.99674e-08
-1.12001e-07
6.09051e-08
-1.0261e-07
6.1937e-08
6.28417e-08
-9.30846e-08
-1.56016e-07
5.59064e-08
1.63735e-07
-1.48148e-07
5.36655e-08
-1.4012e-07
5.20645e-08
-1.31926e-07
5.10846e-08
-1.23582e-07
5.06926e-08
-1.15119e-07
5.08371e-08
-1.06595e-07
5.14431e-08
-9.80965e-08
5.24066e-08
-8.97549e-08
5.35952e-08
5.48533e-08
-8.17666e-08
-1.4541e-07
4.7744e-08
1.53573e-07
-1.37185e-07
4.54402e-08
-1.28896e-07
4.37758e-08
-1.20558e-07
4.27462e-08
-1.12207e-07
4.23421e-08
-1.03915e-07
4.25447e-08
-9.5786e-08
4.33143e-08
-8.79561e-08
4.45766e-08
-8.05907e-08
4.62298e-08
4.8156e-08
-7.38936e-08
-1.3694e-07
3.96729e-08
1.45011e-07
-1.28852e-07
3.73528e-08
-1.2075e-07
3.56739e-08
-1.12644e-07
3.46403e-08
-1.04576e-07
3.42734e-08
-9.66376e-08
3.46068e-08
-8.8977e-08
3.56537e-08
-8.1759e-08
3.73586e-08
-7.51399e-08
3.96107e-08
4.23575e-08
-6.93413e-08
-1.31063e-07
3.21984e-08
1.38538e-07
-1.23602e-07
2.98915e-08
-1.16145e-07
2.82172e-08
-1.08666e-07
2.71615e-08
-1.01168e-07
2.67748e-08
-9.37557e-08
2.7195e-08
-8.66482e-08
2.85463e-08
-8.00648e-08
3.07752e-08
-7.39483e-08
3.34942e-08
3.68721e-08
-6.84628e-08
-1.28157e-07
2.57372e-08
1.34618e-07
-1.21773e-07
2.35077e-08
-1.15456e-07
2.18998e-08
-1.09105e-07
2.08109e-08
-1.02597e-07
2.0267e-08
-9.58883e-08
2.04863e-08
-8.94365e-08
2.20945e-08
-8.34117e-08
2.47505e-08
-7.8246e-08
2.83286e-08
3.09759e-08
-7.23498e-08
-1.28365e-07
2.0506e-08
1.33596e-07
-1.23224e-07
1.83672e-08
-1.18318e-07
1.69931e-08
-1.13298e-07
1.57912e-08
-1.08152e-07
1.51213e-08
-1.02502e-07
1.48358e-08
-9.59037e-08
1.54965e-08
-8.92503e-08
1.80971e-08
-8.06027e-08
1.96811e-08
2.34383e-08
-7.30652e-08
-1.31779e-07
1.66909e-08
1.35594e-07
-1.27852e-07
1.44391e-08
-1.23124e-07
1.22652e-08
-1.17868e-07
1.05352e-08
-1.12037e-07
9.29011e-09
-1.05859e-07
8.6584e-09
-9.99583e-08
9.59548e-09
-9.28195e-08
1.09583e-08
-8.5728e-08
1.25895e-08
1.56833e-08
-7.79729e-08
-1.34876e-07
1.38251e-08
1.37742e-07
-1.31323e-07
1.08857e-08
-1.2738e-07
8.32241e-09
-1.22173e-07
5.32824e-09
-1.17124e-07
4.24094e-09
-1.11411e-07
2.94577e-09
-1.04993e-07
3.1769e-09
-9.81045e-08
4.07012e-09
-9.12956e-08
5.78061e-09
8.69472e-09
-8.43069e-08
-1.37042e-07
1.04361e-08
1.40431e-07
-1.33264e-07
7.10687e-09
-1.29381e-07
4.43953e-09
-1.2598e-07
1.92757e-09
-1.21666e-07
-7.32945e-11
-1.17275e-07
-1.44497e-09
-1.12016e-07
-2.08255e-09
-1.06124e-07
-1.82156e-09
-9.96524e-08
-6.90892e-10
1.507e-09
-9.24646e-08
-1.40798e-07
8.14035e-09
1.43094e-07
-1.38433e-07
4.74234e-09
-1.35727e-07
1.73362e-09
-1.3284e-07
-9.59705e-10
-1.29643e-07
-3.27055e-09
-1.25999e-07
-5.0889e-09
-1.21801e-07
-6.28045e-09
-1.16872e-07
-6.74989e-09
-1.1115e-07
-6.41268e-09
-5.16153e-09
-1.04482e-07
-1.4637e-07
7.07019e-09
1.4744e-07
-1.44912e-07
3.28365e-09
-1.4317e-07
-8.18739e-12
-1.41189e-07
-2.94038e-09
-1.38937e-07
-5.52299e-09
-1.36304e-07
-7.72157e-09
-1.33156e-07
-9.4287e-09
-1.29369e-07
-1.05364e-08
-1.24814e-07
-1.09681e-08
-1.06542e-08
-1.19321e-07
-1.50921e-07
6.67838e-09
1.51313e-07
-1.50388e-07
2.74973e-09
-1.49658e-07
-7.38051e-10
-1.48799e-07
-3.79907e-09
-1.47735e-07
-6.58719e-09
-1.4625e-07
-9.20596e-09
-1.44292e-07
-1.13872e-08
-1.41828e-07
-1.30001e-08
-1.38776e-07
-1.40197e-08
-1.44109e-08
-1.3502e-07
-1.54958e-07
7.03053e-09
1.54606e-07
-1.55203e-07
2.99449e-09
-1.55327e-07
-6.14126e-10
-1.55295e-07
-3.83078e-09
-1.55064e-07
-6.81885e-09
-1.54398e-07
-9.87225e-09
-1.53332e-07
-1.24533e-08
-1.51858e-07
-1.44737e-08
-1.49933e-07
-1.59449e-08
-1.68446e-08
-1.47499e-07
-1.58411e-07
8.05473e-09
1.57386e-07
-1.5931e-07
3.89417e-09
-1.60063e-07
1.38592e-10
-1.60487e-07
-3.40722e-09
-1.60475e-07
-6.83064e-09
-1.60181e-07
-1.01659e-08
-1.59479e-07
-1.31554e-08
-1.58294e-07
-1.56592e-08
-1.56585e-07
-1.76535e-08
-1.91269e-08
-1.54303e-07
-1.61462e-07
9.68508e-09
1.59831e-07
-1.6286e-07
5.29286e-09
-1.63941e-07
1.21923e-09
-1.64599e-07
-2.74947e-09
-1.64777e-07
-6.6525e-09
-1.64516e-07
-1.04266e-08
-1.63687e-07
-1.39851e-08
-1.62134e-07
-1.72112e-08
-1.598e-07
-1.99883e-08
-2.23435e-08
-1.56583e-07
-1.64839e-07
1.20257e-08
1.62498e-07
-1.66826e-07
7.27964e-09
-1.68334e-07
2.72746e-09
-1.69309e-07
-1.77504e-09
-1.69584e-07
-6.37709e-09
-1.69132e-07
-1.08789e-08
-1.67884e-07
-1.52328e-08
-1.65671e-07
-1.94241e-08
-1.62326e-07
-2.33329e-08
-2.69864e-08
-1.57683e-07
-1.69163e-07
1.52742e-08
1.65915e-07
-1.71963e-07
1.00798e-08
-1.74138e-07
4.9023e-09
-1.75574e-07
-3.38986e-10
-1.76125e-07
-5.82607e-09
-1.757e-07
-1.13031e-08
-1.74212e-07
-1.67208e-08
-1.7147e-07
-2.21664e-08
-1.67223e-07
-2.75796e-08
-3.2949e-08
-1.6126e-07
-1.74994e-07
1.96601e-08
1.70608e-07
-1.78839e-07
1.39252e-08
-1.81953e-07
8.01587e-09
-1.84166e-07
1.87431e-09
-1.85472e-07
-4.52001e-09
-1.85603e-07
-1.11714e-08
-1.84271e-07
-1.8053e-08
-1.81335e-07
-2.51015e-08
-1.76569e-07
-3.23466e-08
-3.98055e-08
-1.69712e-07
-1.8294e-07
2.55126e-08
1.77087e-07
-1.88149e-07
1.91346e-08
-1.92497e-07
1.23644e-08
-1.95835e-07
5.2125e-09
-1.97992e-07
-2.36335e-09
-1.98782e-07
-1.03813e-08
-1.97991e-07
-1.88438e-08
-1.9537e-07
-2.77219e-08
-1.9068e-07
-3.7037e-08
-4.68734e-08
-1.83612e-07
-1.92316e-07
3.30144e-08
1.84814e-07
-1.99016e-07
2.58349e-08
-2.04637e-07
1.79853e-08
-2.091e-07
9.6757e-09
-2.12278e-07
8.15086e-10
-2.13963e-07
-8.6961e-09
-2.13948e-07
-1.88593e-08
-2.12058e-07
-2.9612e-08
-2.08105e-07
-4.09898e-08
-5.32725e-08
-2.01706e-07
-2.00848e-07
4.22334e-08
1.91629e-07
-2.08644e-07
3.36305e-08
-2.15125e-07
2.4467e-08
-2.20537e-07
1.50879e-08
-2.24769e-07
5.04716e-09
-2.27433e-07
-6.03203e-09
-2.28564e-07
-1.77288e-08
-2.27924e-07
-3.02519e-08
-2.25424e-07
-4.34899e-08
-5.79481e-08
-2.20749e-07
-2.03606e-07
5.1209e-08
1.9463e-07
-2.11397e-07
4.14217e-08
-2.1859e-07
3.16603e-08
-2.25145e-07
2.16428e-08
-2.29932e-07
9.83386e-09
-2.34339e-07
-1.62456e-09
-2.34303e-07
-1.77652e-08
-2.33326e-07
-3.12288e-08
-2.30193e-07
-4.66225e-08
-6.4473e-08
-2.23668e-07
-1.98594e-07
5.95912e-08
1.90211e-07
-2.05226e-07
4.80538e-08
-2.11788e-07
3.82227e-08
-2.16667e-07
2.65218e-08
-2.17712e-07
1.08786e-08
-2.10558e-07
-8.77872e-09
-2.07785e-07
-2.05382e-08
-2.00395e-07
-3.86189e-08
-1.91935e-07
-5.50823e-08
-7.22317e-08
-1.84176e-07
-1.83219e-07
6.79699e-08
1.7484e-07
-1.85021e-07
4.98555e-08
-1.79556e-07
3.27569e-08
-1.65731e-07
1.26971e-08
-1.5579e-07
9.38043e-10
-1.4893e-07
-1.56395e-08
-1.38557e-07
-3.09116e-08
-1.30369e-07
-4.68061e-08
-1.21427e-07
-6.40248e-08
-8.21083e-08
-1.1155e-07
-1.32477e-07
5.30523e-08
1.47395e-07
-1.17588e-07
3.49665e-08
-1.02351e-07
1.75196e-08
-9.1044e-08
1.39003e-09
-7.63499e-08
-1.37561e-08
-6.33607e-08
-2.86287e-08
-5.04419e-08
-4.38304e-08
-3.79696e-08
-5.92787e-08
-2.64808e-08
-7.55138e-08
-9.2197e-08
-1.6392e-08
-6.34204e-08
3.02111e-08
8.62613e-08
-4.36776e-08
1.52237e-08
-2.59735e-08
-1.84544e-10
-9.00104e-09
-1.55826e-08
7.5848e-09
-3.0342e-08
2.32493e-08
-4.42933e-08
3.71383e-08
-5.77193e-08
4.86372e-08
-7.07777e-08
5.77413e-08
-8.4618e-08
-9.92409e-08
6.47853e-08
-1.15495e-10
9.23412e-09
2.10923e-08
2.11118e-08
-6.00372e-09
4.19321e-08
-2.10049e-08
6.1505e-08
-3.51555e-08
7.89117e-08
-4.77486e-08
9.32119e-08
-5.85936e-08
1.03551e-07
-6.80589e-08
1.10669e-07
-7.78955e-08
1.1556e-07
-8.95085e-08
-1.0769e-07
1.24008e-07
4.6961e-08
-1.26705e-08
-2.50565e-08
6.91516e-08
-2.8194e-08
9.03624e-08
-4.22158e-08
1.08952e-07
-5.37451e-08
1.23568e-07
-6.23645e-08
1.33644e-07
-6.86693e-08
1.40435e-07
-7.48499e-08
1.40333e-07
-7.77939e-08
1.10255e-07
-5.94312e-08
-2.95753e-08
3.21365e-08
6.71549e-08
-3.58256e-08
-4.39996e-08
8.93348e-08
-5.03737e-08
1.08746e-07
-6.16268e-08
1.2359e-07
-6.85896e-08
1.32915e-07
-7.16889e-08
1.38456e-07
-7.42105e-08
1.43435e-07
-7.9828e-08
1.41202e-07
-7.55564e-08
1.18133e-07
-3.63516e-08
-3.44575e-09
9.20109e-08
6.10949e-08
-5.80131e-08
-3.89073e-08
8.07636e-08
-7.00421e-08
9.59539e-08
-7.68172e-08
1.05534e-07
-7.81695e-08
1.09282e-07
-7.54377e-08
1.09703e-07
-7.46314e-08
1.5336e-07
-1.23483e-07
2.28303e-07
-1.50517e-07
3.10552e-07
-1.18617e-07
-3.25728e-08
3.39675e-07
3.73014e-08
-7.38725e-08
-2.1442e-08
5.04514e-08
-8.3192e-08
5.91997e-08
-8.55656e-08
6.13047e-08
-8.02749e-08
5.37161e-08
-6.7847e-08
6.89785e-08
-8.98858e-08
1.30417e-07
-1.84905e-07
2.40284e-07
-2.60374e-07
3.8179e-07
-2.60123e-07
-1.37024e-07
4.86242e-07
1.29311e-09
-8.15454e-08
6.37984e-09
8.70517e-09
-9.0604e-08
1.47102e-08
-9.15707e-08
2.00117e-08
-8.55754e-08
4.1782e-08
-8.96203e-08
6.86656e-08
-1.16777e-07
1.25051e-07
-2.41296e-07
1.50777e-07
-2.86102e-07
2.04042e-07
-3.13389e-07
-3.23147e-07
3.90165e-07
-2.52511e-08
-8.43774e-08
2.80832e-08
-1.76242e-08
-9.82308e-08
2.55431e-10
-1.0945e-07
4.51169e-08
-1.30437e-07
1.29111e-07
-1.73612e-07
2.39107e-07
-2.26772e-07
2.79618e-07
-2.81808e-07
3.13216e-07
-3.197e-07
3.79994e-07
-3.80168e-07
-4.80341e-07
5.37189e-07
9.54607e-09
-9.73733e-08
3.44984e-09
3.51811e-08
-1.23866e-07
8.68562e-08
-1.61125e-07
1.65229e-07
-2.0881e-07
2.43542e-07
-2.51925e-07
3.1244e-07
-2.9567e-07
3.68789e-07
-3.38157e-07
4.38647e-07
-3.89558e-07
5.2314e-07
-4.64661e-07
-5.77104e-07
6.19904e-07
9.42364e-08
-1.26543e-07
-6.5067e-08
1.34368e-07
-1.63997e-07
1.81531e-07
-2.08288e-07
2.30443e-07
-2.57721e-07
2.84979e-07
-3.06462e-07
3.44056e-07
-3.54747e-07
4.11749e-07
-4.05851e-07
4.92655e-07
-4.70463e-07
5.9075e-07
-5.62757e-07
-6.79976e-07
6.93623e-07
1.5502e-07
-1.5858e-07
-1.22983e-07
1.93336e-07
-2.02312e-07
2.35014e-07
-2.49966e-07
2.77125e-07
-2.99831e-07
3.2115e-07
-3.50488e-07
3.71019e-07
-4.04615e-07
4.36856e-07
-4.71688e-07
5.32868e-07
-5.66476e-07
6.57077e-07
-6.86965e-07
-7.89243e-07
7.66344e-07
1.916e-07
-1.87102e-07
-1.63078e-07
2.24734e-07
-2.35445e-07
2.59442e-07
-2.84674e-07
2.93376e-07
-3.33765e-07
3.28576e-07
-3.85688e-07
3.78929e-07
-4.54968e-07
4.68654e-07
-5.61413e-07
5.98479e-07
-6.96302e-07
7.20026e-07
-8.08512e-07
-8.7424e-07
8.05023e-07
2.12988e-07
-2.09571e-07
-1.90519e-07
2.399e-07
-2.62356e-07
2.66636e-07
-3.11411e-07
2.92092e-07
-3.59221e-07
3.29803e-07
-4.234e-07
4.10732e-07
-5.35896e-07
5.37739e-07
-6.8842e-07
6.59807e-07
-8.18369e-07
7.43613e-07
-8.92318e-07
-9.36087e-07
8.05461e-07
2.28626e-07
-2.27638e-07
-2.1056e-07
2.50302e-07
-2.84032e-07
2.69502e-07
-3.30612e-07
2.97644e-07
-3.87363e-07
3.68032e-07
-4.93787e-07
4.84429e-07
-6.52294e-07
6.01993e-07
-8.05984e-07
6.83248e-07
-8.99624e-07
7.4184e-07
-9.5091e-07
-9.85691e-07
7.91445e-07
2.45477e-07
-2.4603e-07
-2.27085e-07
2.59962e-07
-2.98517e-07
2.7789e-07
-3.4854e-07
3.30427e-07
-4.39899e-07
4.29259e-07
-5.92619e-07
5.43885e-07
-7.66919e-07
6.29361e-07
-8.91459e-07
6.86363e-07
-9.56626e-07
7.32471e-07
-9.97018e-07
-1.0257e-06
7.72477e-07
2.3318e-07
-2.54932e-07
-2.24278e-07
2.41789e-07
-3.07125e-07
2.75381e-07
-3.82132e-07
3.61138e-07
-5.25656e-07
4.79616e-07
-7.11098e-07
5.77709e-07
-8.65013e-07
6.36351e-07
-9.501e-07
6.7941e-07
-9.99686e-07
7.1696e-07
-1.03457e-06
-1.05737e-06
7.48636e-07
2.53447e-07
-2.64964e-07
-2.43414e-07
2.71651e-07
-3.25329e-07
3.255e-07
-4.35981e-07
4.27087e-07
-6.27242e-07
5.28655e-07
-8.12665e-07
5.915e-07
-9.27857e-07
6.33203e-07
-9.91803e-07
6.68545e-07
-1.03503e-06
6.98828e-07
-1.06485e-06
-1.08147e-06
7.22919e-07
2.27833e-07
-2.7421e-07
-2.18588e-07
2.53681e-07
-3.51177e-07
3.40631e-07
-5.22931e-07
4.54143e-07
-7.40755e-07
5.36366e-07
-8.94888e-07
5.84479e-07
-9.75971e-07
6.20741e-07
-1.02807e-06
6.51595e-07
-1.06588e-06
6.76774e-07
-1.09003e-06
-1.09988e-06
6.95191e-07
1.95378e-07
-2.90834e-07
-1.78754e-07
2.51195e-07
-4.06993e-07
3.76693e-07
-6.48428e-07
4.76255e-07
-8.40315e-07
5.30636e-07
-9.49269e-07
5.68625e-07
-1.01396e-06
6.01756e-07
-1.0612e-06
6.29849e-07
-1.09397e-06
6.51694e-07
-1.11187e-06
-1.11445e-06
6.66259e-07
1.32293e-07
-3.06326e-07
-1.16802e-07
2.39811e-07
-5.14511e-07
3.71193e-07
-7.79811e-07
4.55241e-07
-9.24363e-07
5.0514e-07
-9.99168e-07
5.44712e-07
-1.05353e-06
5.7784e-07
-1.09433e-06
6.04555e-07
-1.12069e-06
6.24271e-07
-1.13159e-06
-1.1266e-06
6.36424e-07
1.57018e-07
-3.43916e-07
-1.19427e-07
3.04621e-07
-6.62112e-07
4.02089e-07
-8.77279e-07
4.51952e-07
-9.74225e-07
4.90633e-07
-1.03785e-06
5.24635e-07
-1.08753e-06
5.53822e-07
-1.12351e-06
5.77275e-07
-1.14414e-06
5.94124e-07
-1.14844e-06
-1.13618e-06
6.03706e-07
2.13244e-07
-4.40591e-07
-1.1657e-07
3.35615e-07
-7.84481e-07
3.92419e-07
-9.34082e-07
4.30449e-07
-1.01226e-06
4.64717e-07
-1.07212e-06
4.95724e-07
-1.11854e-06
5.22335e-07
-1.15012e-06
5.43471e-07
-1.16528e-06
5.58307e-07
-1.16328e-06
-1.14427e-06
5.66397e-07
2.14599e-07
-6.1559e-07
-3.96e-08
3.05378e-07
-8.7526e-07
3.55928e-07
-9.84632e-07
3.9477e-07
-1.0511e-06
4.28378e-07
-1.10572e-06
4.57951e-07
-1.14811e-06
4.82906e-07
-1.17508e-06
5.02325e-07
-1.1847e-06
5.15482e-07
-1.17643e-06
-1.15089e-06
5.221e-07
2.01006e-07
-7.70647e-07
-4.59481e-08
2.77771e-07
-9.52023e-07
3.2079e-07
-1.02765e-06
3.55833e-07
-1.08614e-06
3.8673e-07
-1.13662e-06
4.13856e-07
-1.17524e-06
4.36528e-07
-1.19775e-06
4.53896e-07
-1.20206e-06
4.65408e-07
-1.18795e-06
-1.1567e-06
4.71214e-07
2.32591e-07
-8.48317e-07
-1.54921e-07
2.66457e-07
-9.85889e-07
2.92581e-07
-1.05378e-06
3.17749e-07
-1.11131e-06
3.4245e-07
-1.16132e-06
3.6517e-07
-1.19796e-06
3.8409e-07
-1.21667e-06
3.97875e-07
-1.21585e-06
4.05711e-07
-1.19578e-06
-1.15793e-06
4.06941e-07
1.77489e-07
-9.06998e-07
-1.18809e-07
2.11197e-07
-1.0196e-06
2.38638e-07
-1.08122e-06
2.64657e-07
-1.13733e-06
2.89354e-07
-1.18602e-06
3.11258e-07
-1.21986e-06
3.28858e-07
-1.23427e-06
3.41444e-07
-1.22843e-06
3.48821e-07
-1.20316e-06
-1.15918e-06
3.50078e-07
1.26193e-07
-9.75234e-07
-5.79571e-08
1.6055e-07
-1.05395e-06
1.88558e-07
-1.10923e-06
2.14344e-07
-1.16311e-06
2.38007e-07
-1.20968e-06
2.58237e-07
-1.24009e-06
2.74131e-07
-1.25017e-06
2.86128e-07
-1.24043e-06
2.95758e-07
-1.21279e-06
-1.16827e-06
3.04841e-07
1.06541e-07
-1.0092e-06
-7.25777e-08
1.29674e-07
-1.07709e-06
1.5125e-07
-1.1308e-06
1.72048e-07
-1.18391e-06
1.90965e-07
-1.2286e-06
2.06134e-07
-1.25526e-06
2.16542e-07
-1.26057e-06
2.22778e-07
-1.24667e-06
2.26482e-07
-1.21649e-06
-1.17132e-06
2.29533e-07
9.38669e-08
-1.01899e-06
-8.40704e-08
1.06246e-07
-1.08947e-06
1.21163e-07
-1.14572e-06
1.36434e-07
-1.19918e-06
1.49924e-07
-1.24209e-06
1.594e-07
-1.26474e-06
1.638e-07
-1.26497e-06
1.63511e-07
-1.24638e-06
1.59429e-07
-1.21241e-06
-1.16404e-06
1.52149e-07
6.83515e-08
-1.02591e-06
-6.1437e-08
7.98142e-08
-1.10093e-06
9.34264e-08
-1.15933e-06
1.06261e-07
-1.21202e-06
1.16448e-07
-1.25228e-06
1.22358e-07
-1.27065e-06
1.23669e-07
-1.26629e-06
1.20979e-07
-1.24369e-06
1.1469e-07
-1.20612e-06
-1.15456e-06
1.05212e-07
4.31182e-08
-1.03779e-06
-3.12378e-08
5.75872e-08
-1.1154e-06
7.18858e-08
-1.17363e-06
8.36129e-08
-1.22375e-06
9.17418e-08
-1.26041e-06
9.56723e-08
-1.27458e-06
9.62417e-08
-1.26685e-06
9.44305e-08
-1.24188e-06
9.00213e-08
-1.20171e-06
-1.1472e-06
8.26571e-08
2.48791e-08
-1.05211e-06
-1.05534e-08
4.20382e-08
-1.13256e-06
5.73333e-08
-1.18892e-06
6.86485e-08
-1.23506e-06
7.55654e-08
-1.26732e-06
7.85723e-08
-1.27758e-06
7.98121e-08
-1.26809e-06
8.09911e-08
-1.24306e-06
8.15518e-08
-1.20227e-06
-1.14469e-06
7.90483e-08
1.20255e-08
-1.07984e-06
1.57042e-08
3.43783e-08
-1.15491e-06
5.10181e-08
-1.20556e-06
6.20275e-08
-1.24607e-06
6.79903e-08
-1.27329e-06
7.05199e-08
-1.28011e-06
7.2793e-08
-1.27037e-06
7.74716e-08
-1.24774e-06
8.49091e-08
-1.20971e-06
-1.15082e-06
9.10345e-08
2.18237e-08
-1.10499e-06
3.32351e-09
4.09877e-08
-1.17407e-06
5.42425e-08
-1.21882e-06
6.28757e-08
-1.2547e-06
6.72406e-08
-1.27765e-06
6.95439e-08
-1.28242e-06
7.31199e-08
-1.27394e-06
8.10867e-08
-1.2557e-06
9.60615e-08
-1.22469e-06
-1.17184e-06
1.17084e-07
3.73027e-08
-1.12671e-06
-1.55854e-08
5.02716e-08
-1.18704e-06
5.87118e-08
-1.22726e-06
6.46246e-08
-1.26062e-06
6.69247e-08
-1.27995e-06
6.85465e-08
-1.28404e-06
7.26043e-08
-1.278e-06
8.20921e-08
-1.26519e-06
1.0284e-07
-1.24543e-06
-1.21296e-06
1.43959e-07
4.54891e-08
-1.14762e-06
-2.45723e-08
5.32905e-08
-1.19484e-06
5.85563e-08
-1.23252e-06
6.25726e-08
-1.26463e-06
6.21088e-08
-1.27949e-06
6.12739e-08
-1.2832e-06
6.25406e-08
-1.27927e-06
6.67291e-08
-1.26938e-06
7.84289e-08
-1.25713e-06
-1.24117e-06
1.06639e-07
4.99044e-08
-1.14484e-06
-5.26881e-08
5.00101e-08
-1.19495e-06
5.3405e-08
-1.23592e-06
5.61034e-08
-1.26733e-06
5.29608e-08
-1.27635e-06
4.96156e-08
-1.27986e-06
4.83063e-08
-1.27796e-06
4.73191e-08
-1.26839e-06
4.84146e-08
-1.25823e-06
-1.24982e-06
5.70677e-08
3.16482e-08
-1.16052e-06
-1.59685e-08
3.78257e-08
-1.20113e-06
4.5013e-08
-1.24311e-06
4.71383e-08
-1.26946e-06
4.17042e-08
-1.27091e-06
3.58759e-08
-1.27403e-06
3.25088e-08
-1.27459e-06
2.78772e-08
-1.26376e-06
2.07439e-08
-1.25109e-06
-1.24326e-06
1.4181e-08
3.97596e-08
-1.15021e-06
-5.0069e-08
3.6883e-08
-1.19825e-06
4.18288e-08
-1.24805e-06
3.94e-08
-1.26703e-06
3.12701e-08
-1.26278e-06
2.31583e-08
-1.26592e-06
1.85536e-08
-1.26999e-06
1.30297e-08
-1.25823e-06
1.49574e-09
-1.23956e-06
-1.22858e-06
-1.31824e-08
2.02587e-08
-1.1477e-06
-2.2766e-08
2.47062e-08
-1.2027e-06
3.44128e-08
-1.25776e-06
3.00317e-08
-1.26265e-06
2.17408e-08
-1.25449e-06
1.27239e-08
-1.2569e-06
7.26565e-09
-1.26453e-06
4.40405e-09
-1.25537e-06
-7.95979e-09
-1.2272e-06
-1.20763e-06
-2.89111e-08
1.28096e-08
-1.12408e-06
-3.64268e-08
2.22389e-08
-1.21213e-06
3.22822e-08
-1.2678e-06
2.39131e-08
-1.25428e-06
1.47998e-08
-1.24538e-06
5.00019e-09
-1.2471e-06
-2.49905e-09
-1.25703e-06
4.04619e-10
-1.25828e-06
-5.71678e-09
-1.22108e-06
-1.17627e-06
-3.7074e-08
-3.50757e-09
-1.06793e-06
-5.26439e-08
2.53811e-08
-1.24102e-06
3.20067e-08
-1.27443e-06
1.9875e-08
-1.24215e-06
9.76958e-09
-1.23527e-06
-9.44366e-10
-1.23639e-06
-1.32187e-08
-1.24476e-06
-5.45515e-09