/*--------------------------------*- C++ -*----------------------------------*\
  =========                 |
  \\      /  F ield         | OpenFOAM: The Open Source CFD Toolbox
   \\    /   O peration     | Website:  https://openfoam.org
    \\  /    A nd           | Version:  8
     \\/     M anipulation  |
\*---------------------------------------------------------------------------*/
FoamFile
{
    version     2.0;
    format      ascii;
    class       surfaceScalarField;
    location    "2.7";
    object      alphaPhi0.water;
}
// * * * * * * * * * * * * * * * * * * * * * * * * * * * * * * * * * * * * * //

dimensions      [0 3 -1 0 0 0 0];

internalField   nonuniform List<scalar> 
18095
(
1.95865e-08
-1.71977e-07
1.5239e-07
2.31404e-08
-1.98154e-07
1.946e-07
2.01134e-08
-2.0595e-07
2.08977e-07
1.17789e-08
-2.10826e-07
2.19161e-07
1.25943e-09
-2.13509e-07
2.24028e-07
-9.26328e-09
-2.13565e-07
2.24087e-07
-1.88735e-08
-2.10317e-07
2.19927e-07
-2.3015e-08
-2.0542e-07
2.09561e-07
-1.95562e-08
-1.98218e-07
1.9476e-07
-1.72064e-07
1.52508e-07
1.55096e-08
-1.87487e-07
1.56894e-08
-1.98333e-07
1.17886e-08
-2.02049e-07
6.04101e-09
-2.05079e-07
-7.4009e-10
-2.06728e-07
-7.34238e-09
-2.06962e-07
-1.25232e-08
-2.05136e-07
-1.56716e-08
-2.02271e-07
-1.5483e-08
-1.98407e-07
-1.87547e-07
6.85366e-09
-1.9434e-07
8.28146e-09
-1.99761e-07
7.22669e-09
-2.00995e-07
4.37553e-09
-2.02228e-07
4.53738e-10
-2.02806e-07
-3.50223e-09
-2.03006e-07
-6.86086e-09
-2.01778e-07
-8.24989e-09
-2.00882e-07
-6.83157e-09
-1.99825e-07
-1.94378e-07
4.56725e-09
-1.98907e-07
4.70194e-09
-1.99896e-07
3.59885e-09
-1.99891e-07
1.70626e-09
-2.00335e-07
-3.6825e-10
-2.00732e-07
-2.65408e-09
-2.00721e-07
-4.04976e-09
-2.00382e-07
-4.66901e-09
-2.00263e-07
-4.54055e-09
-1.99954e-07
-1.98919e-07
1.09256e-09
1.19659e-09
1.3051e-09
9.70155e-10
2.38563e-10
-4.82008e-10
-8.64039e-10
-1.12717e-09
-1.08097e-09
-2.61352e-08
-1.96957e-07
2.23092e-07
-2.85051e-08
-1.99087e-07
2.01457e-07
-2.34479e-08
-2.01605e-07
1.96548e-07
-1.21692e-08
-2.01144e-07
1.89866e-07
1.36061e-09
-2.01568e-07
1.88038e-07
1.44187e-08
-2.01461e-07
1.88403e-07
2.47972e-08
-2.00839e-07
1.9046e-07
2.92166e-08
-2.01356e-07
1.96936e-07
2.66304e-08
-1.9897e-07
2.01556e-07
-1.97014e-07
2.23644e-07
-9.79175e-09
-1.87165e-07
-1.54505e-08
-1.93428e-07
-1.45009e-08
-2.02554e-07
-6.63182e-09
-2.09013e-07
6.30203e-10
-2.0883e-07
7.61452e-09
-2.08446e-07
1.49144e-08
-2.08139e-07
1.57003e-08
-2.02142e-07
9.95728e-09
-1.93227e-07
-1.87056e-07
-1.09464e-08
-1.76219e-07
-8.91292e-09
-1.95462e-07
-6.28579e-09
-2.05182e-07
-5.07252e-09
-2.10227e-07
-1.1775e-09
-2.12725e-07
3.00316e-09
-2.12626e-07
5.42723e-09
-2.10563e-07
8.63963e-09
-2.05354e-07
1.08598e-08
-1.95447e-07
-1.76197e-07
-6.8759e-09
-1.69343e-07
-9.10272e-09
-1.93235e-07
-8.65788e-09
-2.05626e-07
-3.58893e-09
-2.15296e-07
6.00788e-10
-2.16915e-07
4.51528e-09
-2.16541e-07
8.88298e-09
-2.1493e-07
8.88934e-09
-2.0536e-07
6.73017e-09
-1.93288e-07
-1.69467e-07
-1.69525e-08
-1.55875e-08
-1.22368e-08
-8.37165e-09
-1.25785e-09
6.28887e-09
1.1286e-08
1.54868e-08
1.69588e-08
3.51541e-08
-1.55096e-07
1.19942e-07
4.22416e-08
-1.96715e-07
1.89628e-07
3.70267e-08
-2.09585e-07
2.148e-07
2.62585e-08
-2.16047e-07
2.26815e-07
1.01583e-08
-2.17803e-07
2.33903e-07
-7.37805e-09
-2.1831e-07
2.35846e-07
-2.38647e-08
-2.16771e-07
2.33258e-07
-3.30771e-08
-2.11733e-07
2.20945e-07
-3.16932e-08
-1.9943e-07
1.98046e-07
-1.5851e-07
1.26817e-07
1.74481e-08
-1.72544e-07
2.02726e-08
-1.9954e-07
1.63609e-08
-2.05673e-07
8.62745e-09
-2.08314e-07
-6.55263e-10
-2.0852e-07
-9.68981e-09
-2.09275e-07
-1.60837e-08
-2.10377e-07
-1.9386e-08
-2.08431e-07
-1.65179e-08
-2.02298e-07
-1.75028e-07
1.08769e-08
-1.83421e-07
1.1405e-08
-2.00068e-07
1.06015e-08
-2.0487e-07
7.22138e-09
-2.04934e-07
3.5064e-09
-2.04805e-07
-6.48644e-10
-2.0512e-07
-6.38415e-09
-2.04641e-07
-8.75386e-09
-2.06061e-07
-9.71496e-09
-2.01337e-07
-1.84743e-07
7.83115e-09
-1.91252e-07
7.01052e-09
-1.99247e-07
7.4511e-09
-2.0531e-07
2.28339e-09
-1.99766e-07
4.11465e-10
-2.02933e-07
-1.32167e-09
-2.03387e-07
-6.15651e-09
-1.99807e-07
-5.90093e-09
-2.06316e-07
-7.34887e-09
-1.99889e-07
-1.92092e-07
3.184e-08
3.40493e-08
2.52867e-08
1.53865e-08
4.91354e-10
-1.44926e-08
-2.38391e-08
-3.32191e-08
-3.15521e-08
-3.96149e-07
5.02081e-08
3.44726e-07
-4.34902e-07
4.07371e-08
-4.49235e-07
2.77831e-08
-4.57714e-07
4.58903e-08
-4.98508e-07
3.71376e-08
-5.09755e-07
1.34293e-08
-5.35016e-07
7.56965e-09
-6.09409e-07
8.41592e-09
-6.1058e-07
1.12531e-09
-1.61458e-08
-5.94465e-07
-3.08551e-07
7.94021e-08
2.79295e-07
-3.40509e-07
7.2622e-08
-3.79976e-07
6.77954e-08
-4.13623e-07
7.94083e-08
-4.73894e-07
7.63799e-08
-5.71074e-07
5.36556e-08
-6.02222e-07
3.85359e-08
-6.40511e-07
4.65974e-08
-7.20677e-07
8.12425e-08
4.52755e-08
-7.82144e-07
-3.13795e-07
1.00417e-07
2.92718e-07
-3.38724e-07
9.74886e-08
-3.64781e-07
9.37794e-08
-3.83171e-07
9.76195e-08
-4.65151e-07
1.03584e-07
-5.0222e-07
8.90808e-08
-5.40703e-07
7.68478e-08
-3.90225e-07
7.33355e-08
-2.42454e-07
4.84312e-08
4.02225e-08
-3.55156e-07
-3.19729e-07
1.07874e-07
3.12209e-07
-3.20727e-07
9.84133e-08
-3.54315e-07
9.92236e-08
-3.54921e-07
9.78797e-08
-3.39413e-07
8.78729e-08
-3.3546e-07
8.44944e-08
-2.17243e-07
7.57881e-08
-9.69564e-08
4.97986e-08
-8.71742e-08
3.86318e-08
2.95263e-08
-7.64612e-08
-3.20733e-07
1.15924e-07
3.12571e-07
-3.62148e-07
1.1141e-07
-3.53311e-07
8.99744e-08
-3.21703e-07
6.60894e-08
-2.954e-07
6.15662e-08
-2.10389e-07
6.29346e-08
-6.55422e-08
5.29734e-08
-5.8008e-08
4.23777e-08
-6.15594e-08
4.22622e-08
3.44463e-08
-6.64271e-08
-3.44901e-07
1.5189e-07
3.33696e-07
-3.54455e-07
1.16513e-07
-3.30042e-07
6.54199e-08
-2.93691e-07
2.93827e-08
-2.59117e-07
2.86228e-08
-5.93421e-08
2.65735e-08
-3.83319e-08
3.19858e-08
-3.96675e-08
4.36837e-08
-4.34126e-08
4.6056e-08
4.02949e-08
-4.9261e-08
-2.79195e-07
1.90776e-07
2.40318e-07
-3.14768e-07
1.52059e-07
-3.3915e-07
8.999e-08
-3.3473e-07
2.4761e-08
-1.11556e-07
-1.44975e-08
-2.83824e-08
1.8595e-09
-1.27494e-08
1.63658e-08
-4.26492e-09
3.5196e-08
-1.3718e-09
4.31651e-08
4.24388e-08
-3.51818e-09
-1.00549e-07
1.98856e-07
9.24688e-08
-1.39217e-07
1.90726e-07
-2.09904e-07
1.60658e-07
-2.88207e-07
1.03364e-07
-2.33545e-07
3.86571e-08
-5.22437e-08
-3.52778e-09
-2.02136e-08
-1.56228e-08
7.38609e-09
7.61634e-09
3.20481e-08
1.85018e-08
2.20896e-08
5.24045e-08
-4.45352e-09
1.55072e-07
4.82378e-08
2.06149e-08
1.65657e-07
1.23276e-08
1.68942e-07
-4.03262e-08
1.56003e-07
-1.12539e-07
1.15897e-07
-1.40413e-07
3.69238e-08
-1.52773e-07
5.05825e-09
-7.14004e-08
-6.60784e-09
8.01859e-09
-1.15933e-08
-9.9766e-09
4.20582e-08
-3.94368e-08
8.43951e-08
1.10114e-07
1.47494e-08
1.11471e-07
3.80509e-08
1.4564e-07
3.95921e-08
1.54495e-07
3.56535e-08
9.33164e-08
2.1067e-08
2.7392e-08
2.43914e-08
1.07037e-08
3.29332e-08
-7.85226e-09
7.3117e-08
-3.43952e-08
-4.87878e-08
1.30449e-07
-2.10645e-07
2.71202e-08
2.6792e-07
-1.37038e-07
3.78631e-08
-6.6451e-08
7.50654e-08
-1.33964e-08
7.80915e-08
8.09667e-09
4.99535e-08
1.89721e-08
1.98436e-08
4.5037e-08
-3.76506e-09
6.86851e-08
-2.83543e-08
1.01432e-07
-8.8506e-08
-1.41249e-07
1.66607e-07
-3.8656e-07
1.49433e-08
3.76493e-07
-3.59933e-07
1.11831e-08
-3.0924e-07
2.43426e-08
-2.26595e-07
3.69217e-08
-1.51899e-07
2.60545e-08
-9.73723e-08
-2.59029e-09
-8.12751e-08
-4.29702e-08
-6.18996e-08
-1.03472e-07
-4.08132e-08
-1.59653e-07
-2.38994e-07
2.75708e-08
-3.96651e-07
3.19478e-08
3.79464e-07
-4.2947e-07
2.78922e-08
-4.37235e-07
3.03529e-08
-4.27525e-07
2.64893e-08
-3.9885e-07
1.94889e-09
-3.50547e-07
-5.02606e-08
-2.5005e-07
-1.43386e-07
-1.35229e-07
-2.18537e-07
-3.84846e-08
-2.55979e-07
-3.18195e-07
5.02772e-08
-3.21043e-07
6.49123e-08
2.87934e-07
-3.72598e-07
6.70506e-08
-4.11593e-07
6.59859e-08
-4.34835e-07
4.88275e-08
-4.33704e-07
-9.57277e-11
-3.57302e-07
-1.27186e-07
-2.39354e-07
-2.61124e-07
-1.47932e-07
-2.87204e-07
-9.59356e-08
-1.68621e-07
-1.53634e-07
-9.53691e-08
-2.27307e-07
9.50776e-08
2.01292e-07
-2.60926e-07
1.01936e-07
-2.98247e-07
1.02912e-07
-3.32852e-07
8.26282e-08
-3.34642e-07
7.91748e-10
-3.03811e-07
-1.49327e-07
-2.9537e-07
-2.07573e-07
-2.25637e-07
-1.01083e-07
-2.19612e-07
-9.37777e-08
-1.51288e-07
-2.2638e-07
-1.50773e-07
1.19304e-07
1.26552e-07
-1.77761e-07
1.28965e-07
-2.19866e-07
1.45057e-07
-2.76288e-07
1.19522e-07
-2.89941e-07
8.26203e-09
-2.83286e-07
-1.22771e-07
-1.80749e-07
-7.55756e-08
-2.34053e-07
-4.89405e-08
-2.48929e-07
-8.00551e-08
-1.55999e-07
-2.44744e-07
-8.87964e-08
1.32779e-07
7.53223e-08
-1.15495e-07
1.5566e-07
-1.51723e-07
1.73084e-07
-1.82841e-07
1.42354e-07
-2.06233e-07
2.82126e-08
-1.82678e-07
-7.36909e-08
-1.49066e-07
-2.26025e-08
-1.7888e-07
-2.01563e-08
-1.81397e-07
-7.88313e-08
-1.45751e-07
-1.98942e-07
-1.92691e-08
1.26054e-07
2.59941e-08
-1.74197e-08
1.53809e-07
-1.01164e-08
1.62606e-07
-9.82747e-09
1.34193e-07
-3.16869e-08
5.3916e-08
-3.92046e-08
-6.21647e-08
-2.58831e-08
-4.43018e-08
-1.22861e-08
-3.48507e-08
-4.98719e-09
-8.79187e-08
-1.34195e-07
-2.05312e-08
1.1446e-07
9.9888e-08
-8.8295e-08
1.64887e-07
1.0316e-07
1.98663e-07
1.11633e-07
2.27129e-07
9.89294e-08
2.66932e-07
3.39218e-08
2.67083e-07
-5.0946e-08
2.38387e-07
-9.92238e-08
2.11231e-07
-1.6007e-07
2.96536e-07
-2.65807e-07
-3.45924e-07
4.1677e-07
1.65181e-07
6.05265e-08
-1.22711e-07
2.43476e-07
2.46533e-08
3.05285e-07
6.62394e-09
4.02684e-07
-2.32529e-09
4.81386e-07
-4.71273e-08
5.17918e-07
-8.95709e-08
6.39211e-07
-1.44405e-07
7.00568e-07
-2.16433e-07
7.36857e-07
-2.9753e-07
-3.55816e-07
7.51315e-07
9.95593e-08
4.09431e-08
-7.98889e-08
1.47443e-07
-3.88776e-08
2.29578e-07
-8.38274e-08
3.58236e-07
-1.37986e-07
4.56427e-07
-1.49499e-07
5.52522e-07
-1.8325e-07
6.90621e-07
-2.53678e-07
7.74702e-07
-2.93177e-07
8.13538e-07
-3.31481e-07
-3.99662e-07
8.61949e-07
2.50056e-08
-2.17563e-09
1.8173e-08
6.18484e-08
-9.60693e-08
1.50258e-07
-1.86644e-07
2.67925e-07
-2.96086e-07
3.77364e-07
-2.31324e-07
4.88203e-07
-2.65694e-07
5.90336e-07
-3.12748e-07
6.78677e-07
-3.38735e-07
6.8045e-07
-2.75078e-07
-1.45621e-07
5.1751e-07
-1.30312e-07
-3.83505e-08
1.66587e-07
-5.2931e-08
-1.69176e-07
5.55595e-08
-2.44906e-07
1.39353e-07
-2.62855e-07
2.40216e-07
-2.32981e-07
2.78757e-07
-1.69442e-07
2.22782e-07
-9.44697e-08
1.51617e-07
-1.15704e-07
9.28206e-08
-1.2233e-07
-6.32128e-08
7.14773e-08
-2.81485e-07
-9.12902e-08
3.34647e-07
-1.53905e-07
-2.0213e-07
-7.34141e-08
-1.64911e-07
-7.61045e-08
-1.18161e-07
-5.41487e-08
-1.98038e-07
-3.31289e-08
-1.03718e-07
-3.78866e-08
-2.15276e-07
-2.57672e-08
-2.56832e-07
-6.49099e-09
-2.64204e-07
-2.03798e-07
5.20485e-09
-4.9209e-07
-8.53857e-08
5.02364e-07
-3.66725e-07
-2.03227e-07
-1.90502e-07
-1.97206e-07
-2.27054e-07
-1.3453e-07
-2.21758e-07
-2.76556e-07
-2.20299e-07
-4.03251e-07
-1.9316e-07
-4.61717e-07
-2.05675e-07
-5.80398e-07
-2.38704e-07
-6.32486e-07
-7.35574e-07
-2.0946e-07
-4.40398e-07
-6.22606e-08
4.13138e-07
-4.5539e-07
-1.58721e-07
-3.82699e-07
-2.33439e-07
-2.3641e-07
-1.93139e-07
-3.97655e-07
-3.5619e-07
-3.83393e-07
-3.97925e-07
-3.53162e-07
-4.86397e-07
-3.47294e-07
-5.87584e-07
-3.33745e-07
-6.539e-07
-7.62417e-07
-3.07397e-07
-3.39939e-07
-1.96765e-08
2.49263e-07
-3.2792e-07
-1.44398e-07
-2.37527e-07
-1.64953e-07
-1.51447e-07
-6.71775e-08
-5.89938e-08
-7.6219e-08
-1.71306e-08
-8.70142e-08
1.15911e-08
-1.88397e-07
-1.34399e-08
-4.46322e-07
-7.48585e-08
-5.92497e-07
-7.05545e-07
-1.32075e-07
-3.27063e-08
6.79299e-08
-5.44094e-08
-3.4855e-08
-1.00727e-07
2.68335e-08
-1.00225e-07
5.64379e-08
-9.97914e-08
8.13442e-08
-1.04168e-07
9.35843e-08
-1.02265e-07
2.04689e-07
-9.58151e-08
5.13411e-07
-1.14935e-07
4.84243e-07
-3.93411e-07
-5.55445e-07
3.32126e-07
2.61003e-07
7.76575e-08
-3.63905e-07
1.00657e-07
-7.57178e-08
1.00671e-07
-1.06641e-07
1.07273e-07
-1.10715e-07
1.14462e-07
-1.14369e-07
1.21589e-07
-1.12428e-07
1.38855e-07
-1.16254e-07
3.43271e-07
-1.47713e-07
6.79358e-07
-3.65581e-07
-4.91064e-07
5.96073e-07
2.49331e-07
-2.81291e-08
-4.79406e-07
1.84233e-07
-6.64701e-08
1.56201e-07
-8.8366e-08
1.59635e-07
-1.20552e-07
1.66094e-07
-1.25149e-07
1.91327e-07
-1.40833e-07
3.53784e-07
-3.03735e-07
6.26376e-07
-3.83601e-07
7.03296e-07
-4.59507e-07
-5.03926e-07
6.67949e-07
1.92811e-07
-4.66309e-08
-1.91548e-07
1.91514e-07
-8.24116e-08
2.06865e-07
-1.20956e-07
2.30665e-07
-1.54025e-07
3.67439e-07
-3.37611e-07
4.87394e-07
-3.45147e-07
5.61425e-07
-3.80708e-07
6.17518e-07
-4.34994e-07
6.71805e-07
-5.0904e-07
-5.54206e-07
6.82762e-07
1.47217e-07
-6.88179e-08
-1.43413e-07
1.77009e-07
-1.29443e-07
3.27673e-07
-3.10762e-07
4.20909e-07
-3.95979e-07
4.44509e-07
-3.72771e-07
4.40228e-07
-3.32538e-07
5.12868e-07
-4.47238e-07
6.29081e-07
-5.45999e-07
7.27161e-07
-6.02533e-07
-6.30191e-07
8.08355e-07
3.64407e-07
-7.95763e-08
-5.28924e-07
3.49306e-07
-2.26563e-07
3.40844e-07
-3.14156e-07
3.12998e-07
-3.58059e-07
3.17632e-07
-3.73516e-07
4.17007e-07
-4.09161e-07
5.70359e-07
-5.37815e-07
7.09119e-07
-6.7865e-07
8.07108e-07
-6.95314e-07
-7.59596e-07
9.42935e-07
5.08075e-07
-3.15477e-08
-5.55263e-07
4.06609e-07
-1.24698e-07
3.2137e-07
-2.28077e-07
2.01942e-07
-2.20929e-07
1.95614e-07
-3.60574e-07
3.64223e-07
-5.68725e-07
6.2787e-07
-7.63397e-07
8.21164e-07
-8.60872e-07
9.29815e-07
-7.94695e-07
-5.58969e-07
8.60519e-07
2.81555e-07
-4.85339e-10
-3.12219e-07
2.29514e-07
-7.22529e-08
6.27575e-08
-5.17817e-08
-4.20592e-08
-9.79023e-08
1.27369e-07
-6.26112e-07
3.88912e-07
-9.26761e-07
6.20988e-07
-8.52703e-07
6.00006e-07
-6.02916e-07
2.56317e-07
-1.27361e-07
-3.27145e-08
2.06751e-07
1.6975e-07
1.97566e-08
-1.89585e-07
2.26794e-08
7.5217e-08
-7.91933e-08
6.24715e-08
-1.92996e-07
-9.47284e-08
1.66389e-07
-9.81731e-07
4.18023e-07
-1.17469e-06
3.22846e-07
-6.24521e-07
1.41295e-07
-5.18544e-08
2.41945e-08
-8.35046e-09
-1.18732e-08
5.22516e-09
8.55508e-08
6.3813e-08
-1.81791e-07
-7.77226e-09
8.95327e-08
-2.79389e-08
5.42231e-08
-7.31183e-09
-1.63606e-07
1.3591e-07
-1.12124e-06
1.90641e-07
-1.22306e-06
4.72896e-08
-2.38586e-07
1.26135e-09
-5.56722e-09
-2.0106e-10
-5.80597e-09
-9.35584e-09
-4.36849e-10
5.38656e-09
1.23383e-07
-1.80963e-07
-3.0172e-08
9.32384e-08
3.92224e-08
4.73114e-08
1.43464e-08
-1.52369e-07
4.95406e-08
-1.16303e-06
4.3746e-08
-1.17326e-06
2.47105e-09
-1.6982e-07
-1.22017e-09
-2.53861e-09
-2.42788e-10
-5.43192e-09
-9.45154e-09
0
-2.86228e-08
8.32373e-08
3.29041e-08
1.0445e-08
9.25725e-08
2.66995e-08
4.90946e-08
3.05518e-08
-1.55821e-07
2.37788e-08
-9.84775e-07
1.81524e-08
-1.12963e-06
-7.16014e-10
-1.30054e-07
-3.42934e-09
-2.71174e-10
-2.19974e-09
-3.07759e-09
-1.62032e-10
-5.2413e-09
-4.91374e-08
1.16362e-07
5.72355e-08
8.8353e-09
7.64976e-08
3.698e-08
1.84164e-08
2.46957e-08
-1.4318e-07
1.51483e-08
-9.0787e-07
1.42604e-08
-1.07044e-06
-1.66501e-11
-8.62635e-08
0
-3.00747e-10
-7.99297e-12
-1.08258e-09
-1.48817e-10
-2.44699e-11
-3.5291e-08
6.14269e-08
1.04588e-07
2.22866e-08
1.2913e-08
6.57249e-08
-2.46518e-08
4.15089e-08
-1.18927e-07
1.8897e-08
-8.63548e-07
1.44225e-08
-9.76653e-07
-2.38273e-10
-5.978e-08
-3.9023e-11
-4.93277e-10
5.09997e-11
-2.87612e-10
-6.35106e-11
-6.8791e-12
-2.43502e-08
5.3679e-08
3.17008e-08
1.7162e-08
-2.8898e-08
3.52997e-08
-4.21515e-08
1.32558e-08
-5.48664e-08
1.2118e-08
-8.49425e-07
4.17043e-09
-8.90919e-07
-7.92246e-10
-5.06125e-08
-9.64661e-11
-1.14597e-09
-2.12158e-11
-3.04007e-10
-2.39147e-11
-2.51122e-12
6.30409e-08
1.6404e-08
-2.57e-08
8.85502e-08
-5.4439e-08
3.9056e-08
1.34751e-09
2.05036e-08
-7.27826e-09
1.94162e-08
-7.71375e-07
2.19935e-08
-8.45263e-07
-1.56691e-09
-2.44702e-08
-2.84166e-10
-6.47078e-09
-1.27464e-10
-4.28694e-10
-1.78357e-11
-1.12621e-10
2.25946e-08
-4.60658e-10
-2.76927e-08
2.8181e-09
3.89072e-10
-9.48419e-10
2.12484e-09
6.13181e-09
-1.51672e-08
2.64837e-09
-7.37627e-07
-6.93118e-09
-8.0807e-07
-2.86547e-09
-2.90926e-08
-4.19938e-09
-1.6666e-08
-2.13128e-09
-6.91906e-09
-2.04645e-10
-5.51479e-10
-2.52105e-09
8.73818e-10
1.18653e-09
-3.47207e-09
1.35986e-09
-1.13883e-09
4.00354e-10
1.15258e-08
-2.71889e-08
1.07881e-08
-7.30236e-07
-2.23049e-09
-8.01283e-07
0
-3.22207e-08
-6.05e-09
-1.05301e-08
-4.97988e-09
-7.9555e-09
-4.67699e-09
-2.95085e-09
-3.50752e-09
1.40468e-09
2.97633e-09
-3.4832e-09
1.33589e-09
1.8166e-10
-2.45032e-09
2.52954e-09
-3.66313e-08
-5.19621e-09
-7.19148e-07
-4.85182e-09
-8.14743e-07
0
-3.43277e-08
-3.89275e-09
-6.60365e-09
-4.67415e-09
-7.14042e-09
-5.11058e-09
-4.20688e-09
-2.38542e-09
1.17223e-09
2.61755e-09
-4.3388e-10
-6.17349e-10
1.92432e-09
-4.84751e-09
-7.38375e-11
-4.23678e-08
-6.8644e-09
-7.01815e-07
-8.68674e-09
-8.42449e-07
2.71121e-11
-3.79838e-08
-2.40784e-09
-9.88473e-10
-4.25362e-09
-5.26096e-09
-6.49797e-09
-2.83263e-09
9.36838e-10
1.12571e-09
-8.92025e-10
4.83487e-09
-7.15642e-09
7.35703e-09
-7.76367e-09
-4.41453e-09
-3.61218e-08
-1.55273e-08
-7.21925e-07
-1.27956e-08
-9.31113e-07
0
-4.95294e-08
-1.77025e-09
6.79614e-10
-4.11975e-09
-3.42103e-09
-3.78552e-09
-6.78461e-09
2.00632e-08
-9.21334e-09
-7.21563e-09
2.61706e-08
-1.09814e-08
1.61277e-08
-6.73523e-09
6.51498e-09
-2.59132e-08
1.30475e-08
-8.68308e-07
-8.53258e-10
-1.0412e-06
0
-5.8145e-08
-1.69942e-10
7.9889e-10
-1.27539e-09
1.78975e-11
-1.3725e-10
-2.71959e-11
7.19031e-09
-5.44487e-11
-7.05005e-09
1.16965e-08
-9.11388e-10
1.73932e-08
-1.04483e-08
1.08624e-08
-1.24096e-08
3.05169e-08
-9.88978e-07
1.42961e-08
-1.08834e-06
-2.11725e-10
-4.9556e-08
0
-1.72613e-10
1.33404e-10
5.46741e-12
7.33038e-13
-2.54454e-12
-3.12671e-11
-3.71675e-11
1.37385e-11
-1.76006e-10
-7.73589e-10
0
-5.02355e-09
4.77221e-09
-1.07141e-08
2.80898e-08
-1.04739e-06
1.40661e-08
-1.08712e-06
-5.0224e-10
-4.38706e-08
0
-4.92506e-11
0
9.90395e-12
9.25715e-12
0
-2.36222e-11
-5.21411e-12
-5.05157e-12
-1.11578e-09
-1.55177e-10
0
-1.17381e-09
7.02016e-09
-2.76143e-08
2.14914e-08
-1.06462e-06
1.58677e-08
-1.08029e-06
-8.7637e-13
-5.15627e-08
0
-5.20751e-11
1.11056e-13
1.03119e-11
2.61572e-11
-9.05059e-12
-3.56999e-11
3.86839e-11
-8.49694e-12
0
1.16038e-10
0
3.38874e-13
6.86869e-09
-7.25477e-08
1.1256e-08
-1.06516e-06
7.21634e-09
-1.07521e-06
0
-7.52554e-08
-2.61879e-11
-4.26176e-11
-2.91401e-11
0
2.02952e-11
-1.90902e-11
2.50498e-11
3.42382e-11
-2.0903e-11
0
6.67285e-10
0
1.36896e-09
-7.8853e-09
-8.84223e-08
-1.28631e-08
-1.06504e-06
-8.72784e-09
-1.06657e-06
-1.08432e-09
-8.61779e-08
-1.14811e-11
-1.25268e-10
-8.04394e-12
1.06762e-11
2.54649e-11
-2.36055e-12
4.89008e-10
2.44473e-10
-6.99833e-10
1.74501e-09
1.40376e-09
3.52131e-10
3.86156e-09
1.04978e-08
-8.99553e-08
1.19515e-08
-1.05639e-06
7.43326e-09
-1.06063e-06
0
-8.62541e-08
-6.86914e-13
-3.1204e-10
0
1.8085e-11
3.73657e-11
1.11103e-12
3.74205e-10
6.47805e-10
-8.73285e-10
2.21197e-09
1.23226e-09
1.8235e-09
8.20526e-09
-1.05273e-10
-8.5892e-08
-4.50743e-09
-1.04785e-06
-7.61311e-09
-1.04796e-06
-1.06019e-09
-8.49944e-08
-4.79185e-11
-2.957e-10
-1.23879e-11
7.85619e-12
4.77615e-11
1.59262e-12
-2.91239e-12
1.0455e-09
-6.81679e-10
1.40527e-09
2.2718e-09
1.01156e-09
1.00981e-08
3.32882e-09
-7.76812e-08
-1.65324e-09
-1.03773e-06
-2.79084e-09
-1.03854e-06
-6.36982e-10
-7.77104e-08
-5.55233e-11
-6.36572e-11
-2.51388e-11
3.77636e-12
2.51145e-11
9.14414e-13
-1.0067e-10
1.10657e-09
-4.31088e-10
5.56952e-10
6.63487e-09
5.98218e-10
8.34774e-09
1.69864e-09
-6.63337e-08
-3.71484e-09
-1.02291e-06
-6.96311e-09
-1.0231e-06
-8.51118e-10
-6.80478e-08
-4.19984e-11
2.73557e-10
-1.89634e-11
6.18432e-12
3.82694e-11
-9.20218e-12
-4.67578e-10
1.1345e-09
0
0
5.65747e-09
1.17169e-09
2.61097e-09
1.11752e-08
-5.89212e-08
1.21424e-08
-1.00529e-06
2.19635e-09
-1.00716e-06
-9.5532e-11
-5.73904e-08
-4.13777e-10
1.47044e-09
-1.02206e-09
1.16865e-09
7.9319e-10
-4.65084e-10
-1.16077e-09
2.67116e-09
1.9548e-10
0
3.80144e-09
3.96006e-10
2.62735e-10
5.55862e-09
-5.22638e-08
3.7231e-09
-9.91263e-07
-3.99099e-09
-9.88326e-07
-7.37286e-10
-5.15028e-08
-3.42716e-10
1.87278e-09
-1.03009e-09
1.80129e-09
2.85572e-10
-3.62568e-10
-1.46112e-09
1.73195e-09
1.21251e-09
0
4.90127e-10
2.63737e-10
-1.20131e-12
4.04003e-09
-4.76013e-08
-3.38628e-09
-9.74516e-07
-6.66053e-09
-9.72348e-07
-7.12067e-10
-4.77293e-08
0
-3.73649e-13
6.72846e-10
4.52564e-12
-4.65347e-12
1.92341e-10
-4.33865e-10
4.60057e-10
1.50244e-09
-5.89943e-13
5.5764e-11
1.56475e-12
-4.44467e-12
3.3816e-09
-4.37421e-08
-3.51619e-09
-9.57043e-07
-6.73368e-09
-9.5666e-07
-2.75983e-13
-4.48371e-08
0
-9.5449e-13
5.66968e-12
-1.4841e-12
-9.25648e-13
1.50716e-12
-5.44138e-11
2.30908e-11
4.89647e-10
-5.13258e-13
7.74737e-13
3.07633e-12
-8.25608e-12
7.06614e-09
-4.0517e-08
3.74666e-09
-9.38125e-07
-3.56598e-09
-9.39949e-07
-5.98245e-13
-4.20558e-08
2.95254e-14
-1.51582e-12
4.59233e-13
-2.21866e-12
-8.17821e-14
3.68633e-13
-3.76156e-12
7.75403e-13
1.69118e-11
1.66384e-13
-1.23365e-11
1.6202e-11
-2.53803e-11
9.22144e-09
-4.12473e-08
5.59548e-09
-9.19566e-07
-2.05654e-09
-9.20424e-07
-3.73414e-12
-3.78837e-08
-1.77469e-12
-2.99535e-12
-5.77047e-13
-8.71129e-12
0
-8.19626e-14
2.77735e-12
-2.4541e-11
4.20169e-12
8.16682e-12
-3.68744e-11
-1.41702e-11
-6.22056e-12
-1.53179e-08
-3.34212e-08
-2.7554e-08
-9.06629e-07
-1.8283e-08
-9.02663e-07
-1.69845e-11
-3.97989e-08
-1.34402e-11
-2.64429e-12
-9.50519e-12
-3.91087e-11
-5.27775e-11
-3.08394e-12
4.90667e-11
-2.4986e-11
-4.05186e-11
2.0545e-11
-1.8187e-11
1.8838e-11
-4.35052e-12
6.52967e-09
-3.33676e-08
-1.87476e-09
-8.90926e-07
-5.04323e-09
-8.96123e-07
-9.89952e-12
-3.54797e-08
-1.10648e-11
-1.70412e-12
-4.08363e-11
-4.05348e-11
-5.66453e-11
-3.51248e-11
4.72854e-12
-1.41427e-11
-1.07947e-12
2.64532e-12
-1.9943e-12
2.31579e-12
-4.01903e-12
6.48144e-09
-3.83864e-08
-2.19957e-09
-8.95397e-07
-7.78537e-09
-8.94367e-07
-8.41816e-12
-3.76616e-08
-9.38438e-12
-6.10007e-13
-3.68187e-11
-9.72721e-12
-5.27389e-11
-3.93082e-11
0
-1.58658e-12
-2.54551e-11
4.03762e-13
-6.28015e-13
4.35353e-13
-4.05549e-12
4.61114e-09
-5.51519e-08
-3.40468e-09
-9.08335e-07
-9.21137e-09
-9.06618e-07
-7.77161e-13
-5.59527e-08
-8.03592e-13
-5.23318e-13
-1.17791e-12
-2.72654e-12
-6.59496e-12
-9.07238e-12
3.46502e-13
9.18568e-13
-1.90573e-11
8.92539e-14
-3.75634e-13
3.40478e-13
-4.3092e-12
9.78618e-09
-8.20672e-08
3.43733e-09
-9.20497e-07
-5.29332e-09
-9.19942e-07
-1.56175e-13
-8.35015e-08
-9.91975e-14
-6.07106e-13
2.1951e-13
-1.74336e-12
-2.27047e-12
-2.88057e-12
-6.65231e-14
8.95092e-13
-7.35237e-14
-1.10924e-14
-4.33544e-13
2.73086e-13
-4.59826e-12
6.14492e-09
-1.06271e-07
-1.33807e-09
-9.28329e-07
-7.34042e-09
-9.28368e-07
-1.45191e-12
-1.08155e-07
-1.71046e-12
-5.21231e-13
-1.14809e-12
-9.3384e-12
-3.26265e-13
-1.9717e-12
-1.71909e-12
1.33499e-12
3.04042e-13
0
-1.1042e-11
3.58902e-13
-4.95964e-12
6.94336e-09
-1.24024e-07
9.63213e-10
-9.27818e-07
-6.31336e-09
-9.29253e-07
-1.91271e-12
-1.25671e-07
-2.12861e-12
-4.86611e-13
-2.0935e-12
-1.35335e-11
-8.179e-12
-3.07384e-12
-4.38216e-12
1.47728e-12
1.0716e-13
6.38848e-14
-1.54524e-11
6.84947e-13
-5.56742e-12
8.39432e-09
-1.32899e-07
1.23386e-09
-9.1938e-07
-6.44523e-09
-9.20983e-07
-2.13578e-12
-1.34512e-07
-2.50533e-12
-2.27674e-13
-9.44681e-12
-5.9495e-12
-8.19549e-12
-7.8812e-12
-1.32867e-12
8.34415e-13
3.06435e-13
3.22693e-12
-1.98972e-11
3.98115e-12
-6.17358e-12
6.18619e-09
-1.3408e-07
-3.77461e-09
-9.06475e-07
-6.64956e-09
-9.0901e-07
-7.17265e-13
-1.32901e-07
-8.66419e-13
-1.34436e-13
-3.18649e-12
-8.55708e-13
-4.36162e-12
-6.14515e-13
4.68865e-13
3.34183e-13
3.09536e-14
5.43739e-12
-2.52597e-11
6.48404e-12
-6.62711e-12
-4.29827e-09
-1.29282e-07
-1.60241e-08
-8.93132e-07
-1.82075e-08
-8.91729e-07
-1.59773e-13
-1.28813e-07
-2.00482e-13
-1.15602e-13
0
-1.05639e-13
1.74698e-14
0
1.98339e-13
1.67386e-13
-3.16746e-14
6.81302e-12
-1.70278e-11
8.02803e-12
-6.52506e-12
1.70934e-09
-1.24715e-07
-1.36187e-08
-8.76506e-07
-1.72683e-08
-8.73603e-07
-4.83967e-14
-1.25486e-07
-6.39528e-14
-1.09375e-13
-1.6492e-13
-2.65468e-14
2.41248e-12
-1.58434e-11
2.04032e-13
5.27734e-14
-8.95898e-14
2.92903e-12
-1.04455e-11
3.91744e-12
-6.63372e-12
1.69174e-08
-1.22907e-07
9.25987e-09
-8.55636e-07
-3.40252e-09
-8.60233e-07
-5.52323e-15
-1.2305e-07
-1.58916e-14
-1.08064e-13
-3.8134e-14
-1.33622e-14
4.15977e-13
-6.28394e-12
8.51004e-12
-2.0088e-12
-4.75812e-13
3.94165e-12
-9.65963e-12
3.0526e-12
-6.17808e-12
1.10599e-08
-1.3249e-07
5.48207e-10
-8.44675e-07
-1.17241e-08
-8.45769e-07
-1.77432e-14
-1.32507e-07
-1.16992e-14
-1.23166e-13
-4.89947e-15
-2.86026e-14
5.38361e-15
0
1.17272e-11
-5.44599e-12
-3.9837e-12
3.10857e-12
-6.00632e-12
2.61269e-12
-5.80002e-12
1.25551e-08
-1.5514e-07
6.65937e-10
-8.37122e-07
-1.21431e-08
-8.37063e-07
-3.12168e-13
-1.55845e-07
-6.06236e-14
-3.82184e-13
-2.05985e-15
-9.03756e-14
3.54992e-15
-4.05201e-16
0
-1.21279e-11
-1.48376e-12
1.42265e-12
-1.40266e-11
1.60072e-12
-6.03858e-12
1.27941e-08
-1.76371e-07
8.12979e-10
-8.28911e-07
-1.19819e-08
-8.27825e-07
-2.73679e-12
-1.77523e-07
-2.22211e-12
-9.04648e-13
-6.12421e-15
-3.46355e-12
1.6683e-15
-4.42848e-15
2.21206e-11
-2.84839e-12
-2.0996e-11
4.92664e-12
-3.13848e-12
4.26204e-12
-5.37939e-12
1.34183e-08
-1.90192e-07
2.1784e-10
-8.16277e-07
-1.3006e-08
-8.15143e-07
-7.29483e-12
-1.91908e-07
-7.01464e-12
-1.1957e-12
-4.0556e-15
-1.03943e-11
6.49908e-16
-3.21534e-15
2.93071e-12
-4.89677e-14
-6.89133e-12
8.89217e-13
-8.03562e-13
8.28339e-13
-5.32458e-12
1.29688e-08
-1.95187e-07
-7.78598e-10
-8.00345e-07
-1.27356e-08
-8.01105e-07
-6.88734e-12
-1.97425e-07
-7.06181e-12
-1.00694e-12
-1.98344e-12
-1.35724e-11
-1.15021e-12
-2.4532e-15
5.66625e-13
3.00568e-13
-9.22263e-13
4.28967e-13
-6.7197e-13
3.86385e-13
-5.288e-12
1.5088e-08
-1.98012e-07
-1.57615e-09
-7.8042e-07
-1.53199e-08
-7.84159e-07
-7.65636e-12
-2.00741e-07
-8.33975e-12
-2.98562e-13
-1.16233e-11
-8.427e-12
-5.47585e-12
-4.60424e-12
1.79618e-13
6.48483e-13
-5.35617e-13
4.47505e-13
-9.45785e-13
4.82396e-13
-5.32896e-12
1.5792e-08
-2.03736e-07
1.7172e-10
-7.62553e-07
-1.60487e-08
-7.6581e-07
-1.75107e-12
-2.07061e-07
-1.9392e-12
-9.15466e-14
-7.0963e-12
-1.82137e-12
-2.58626e-12
-7.29138e-12
-2.70744e-13
8.38381e-14
8.21533e-13
7.98458e-13
-2.02645e-12
1.45552e-12
-5.9944e-12
2.02896e-08
-2.274e-07
1.69363e-09
-7.44567e-07
-2.00423e-08
-7.4482e-07
-2.76545e-13
-2.30819e-07
-2.98674e-13
-6.03824e-14
-1.54695e-12
-9.14263e-15
-1.4479e-14
-1.14998e-12
4.82273e-13
-8.94442e-13
4.84889e-13
4.63956e-12
-2.48701e-11
7.70335e-12
-9.08837e-12
2.11354e-08
-2.69366e-07
5.47769e-10
-7.26603e-07
-2.10539e-08
-7.26093e-07
-5.41136e-14
-2.72029e-07
-5.54652e-15
-1.08968e-13
-6.40983e-15
-8.29516e-15
-1.99941e-16
-2.0703e-14
2.22524e-11
-4.43911e-11
-2.20671e-12
3.82762e-11
-8.17574e-11
4.27877e-11
-1.37949e-11
2.41644e-08
-3.17599e-07
-3.62689e-09
-7.00432e-07
-2.56397e-08
-7.06557e-07
-4.63199e-13
-3.19593e-07
-6.25573e-15
-5.65928e-13
-6.33621e-15
-8.22842e-15
-2.00862e-16
-6.35363e-15
4.44474e-11
-7.2657e-11
-8.53003e-12
4.73857e-11
-7.70442e-11
7.11469e-11
-3.81054e-11
9.50292e-09
-3.35794e-07
-1.35844e-08
-6.76849e-07
-2.96967e-08
-6.9069e-07
-4.31488e-12
-3.55849e-07
-6.99854e-15
-4.87383e-12
-6.19283e-15
-9.05248e-15
-1.06703e-15
-5.34079e-15
1.34895e-11
-3.27912e-11
-9.84557e-12
1.34823e-11
-6.21912e-13
2.70412e-10
-2.95383e-10
2.66552e-08
-3.51074e-07
2.19975e-08
-6.71942e-07
-5.80879e-09
-6.61199e-07
-4.0785e-11
-3.53099e-07
-1.4344e-14
-4.56448e-11
-8.19207e-15
-1.52273e-14
-6.60786e-15
-2.72438e-15
2.96743e-13
-9.72211e-13
-2.31535e-13
2.22876e-13
-5.85804e-13
2.53125e-09
-2.82582e-09
7.43248e-08
-4.29015e-07
4.33452e-08
-6.40833e-07
2.73898e-08
-6.43583e-07
-4.36253e-11
-2.98996e-07
-2.94717e-13
-2.85035e-11
-2.55596e-13
-5.45776e-14
-1.6725e-13
-7.47053e-13
1.40542e-13
-7.20249e-13
-4.30348e-13
2.40836e-14
-5.14239e-13
8.28918e-10
-5.62632e-09
-2.71925e-08
-4.08547e-07
-6.06657e-08
-6.07202e-07
-6.9498e-08
-6.31932e-07
-2.11918e-09
-3.4806e-07
-2.30126e-12
-2.14543e-09
-2.2374e-12
-1.2467e-13
-8.92265e-13
-2.96769e-12
1.06776e-12
-1.17792e-12
-3.95003e-12
8.65846e-13
-3.50137e-13
-6.51107e-09
-2.35745e-11
-7.46764e-08
-3.40282e-07
-8.71508e-08
-5.94615e-07
-1.34158e-07
-5.84779e-07
-1.63151e-08
-4.74424e-07
-2.07032e-12
-1.84585e-08
-2.04563e-12
-1.9599e-13
-1.65143e-12
-2.60747e-12
3.05414e-12
-6.64119e-13
-4.56757e-12
2.92812e-12
-2.58647e-13
3.12937e-10
-3.33773e-10
1.13909e-08
-3.58195e-07
-1.62048e-08
-5.66919e-07
-4.15786e-08
-5.59293e-07
-2.52454e-08
-4.86039e-07
-1.81347e-12
-4.13179e-08
-1.86673e-12
-2.2538e-13
-5.25867e-13
-2.46812e-12
8.04152e-13
-9.80427e-14
-3.42537e-12
4.22583e-13
-1.44239e-13
2.93321e-09
-3.26709e-09
1.98835e-08
-3.78174e-07
-1.78595e-08
-5.29058e-07
-5.48411e-08
-5.2233e-07
-4.69146e-08
-4.88064e-07
-2.56508e-12
-8.33118e-08
-2.44431e-12
-3.72037e-13
-5.8242e-15
-2.41071e-12
8.65173e-13
1.76595e-12
-6.90785e-13
3.94724e-13
-2.37605e-13
1.80408e-08
-2.13081e-08
3.8871e-08
-3.96948e-07
3.43901e-09
-4.93644e-07
-2.59345e-08
-4.92938e-07
-3.71219e-08
-4.76984e-07
-6.7598e-12
-1.1934e-07
-7.71882e-14
-7.03984e-12
1.44329e-16
-6.41549e-14
2.78311e-12
1.80782e-12
-1.62697e-13
1.49773e-11
-1.26452e-11
4.0381e-08
-6.77966e-08
5.75675e-08
-4.20499e-07
1.77798e-08
-4.53838e-07
-2.3334e-08
-4.51827e-07
-5.68519e-08
-4.41778e-07
-1.30845e-10
-1.68675e-07
-2.73731e-15
-1.3788e-10
-2.08796e-16
-6.6239e-16
2.10933e-12
5.18841e-14
-3.20914e-13
6.15637e-10
-6.26118e-10
7.65325e-08
-1.47374e-07
4.70687e-08
-3.9154e-07
-1.34355e-09
-4.05428e-07
-4.13741e-08
-4.11795e-07
-7.38081e-08
-4.0919e-07
-2.48851e-09
-2.3822e-07
-1.96315e-13
-2.6262e-09
-1.963e-13
-2.134e-16
7.92532e-14
4.93302e-15
0
1.14726e-08
-1.20986e-08
1.03851e-07
-2.42827e-07
7.13244e-08
-3.59054e-07
3.24093e-08
-3.66513e-07
-1.38197e-08
-3.65566e-07
-6.9981e-08
-3.53027e-07
-2.24565e-08
-2.80997e-07
-1.89687e-11
-2.50639e-08
-1.9165e-11
-2.43978e-17
6.98689e-10
-6.97943e-10
-7.40174e-13
4.71299e-08
-5.85689e-08
8.93461e-08
-2.83966e-07
3.73675e-08
-3.07075e-07
-1.59102e-08
-3.13235e-07
-6.48179e-08
-3.16658e-07
-1.01577e-07
-3.16268e-07
-8.13984e-08
-3.00312e-07
-1.30594e-09
-1.02006e-07
-1.32511e-09
-4.73329e-17
2.78496e-08
-2.85475e-08
-3.02454e-14
1.48291e-07
-1.79958e-07
1.17296e-07
-2.53057e-07
7.64898e-08
-2.66269e-07
3.19127e-08
-2.68658e-07
-1.77027e-08
-2.67043e-07
-7.31686e-08
-2.60802e-07
-1.2556e-07
-2.4792e-07
-3.02455e-08
-1.94822e-07
-3.15706e-08
-8.62497e-19
8.96935e-08
-1.22345e-14