/*--------------------------------*- C++ -*----------------------------------*\
  =========                 |
  \\      /  F ield         | OpenFOAM: The Open Source CFD Toolbox
   \\    /   O peration     | Website:  https://openfoam.org
    \\  /    A nd           | Version:  8
     \\/     M anipulation  |
\*---------------------------------------------------------------------------*/
FoamFile
{
    version     2.0;
    format      ascii;
    class       volScalarField;
    location    "5.4";
    object      p;
}
// * * * * * * * * * * * * * * * * * * * * * * * * * * * * * * * * * * * * * //

dimensions      [1 -1 -2 0 0 0 0];

internalField   nonuniform List<scalar> 
9150
(
-204.831
-205.922
-206.483
-206.958
-207.195
-207.184
-206.957
-206.484
-205.923
-204.827
-224.878
-225.455
-225.857
-226.173
-226.343
-226.371
-226.194
-225.858
-225.453
-224.875
-244.786
-245.108
-245.356
-245.578
-245.691
-245.691
-245.571
-245.352
-245.104
-244.783
-264.533
-264.732
-264.901
-265.065
-265.144
-265.142
-265.058
-264.897
-264.729
-264.529
-284.153
-284.358
-284.495
-284.63
-284.686
-284.685
-284.624
-284.49
-284.355
-284.149
-118.424
-119.48
-119.374
-119.019
-118.881
-118.889
-118.993
-119.383
-119.483
-118.418
-134.411
-135.069
-135.227
-135.308
-135.201
-135.179
-135.276
-135.176
-135.024
-134.375
-150.857
-151.624
-151.861
-152.248
-152.28
-152.269
-152.237
-151.841
-151.616
-150.852
-167.683
-168.887
-169.224
-169.923
-170.054
-170.056
-169.922
-169.232
-168.903
-167.701
-184.397
-186.775
-187.437
-188.215
-188.481
-188.446
-188.197
-187.435
-186.765
-184.386
-24.9316
-26.48
-28.3739
-29.3495
-29.947
-30.0502
-29.6828
-28.8344
-26.8241
-25.2239
-45.5881
-45.7618
-46.9043
-47.1408
-47.5858
-47.6052
-47.1223
-46.9285
-45.8767
-45.7361
-65.5231
-65.3486
-66.6379
-66.0452
-66.6894
-66.7622
-66.1998
-66.7805
-65.4308
-65.6249
-88.4466
-85.4355
-87.0921
-85.2329
-85.6175
-85.6364
-85.1651
-87.1046
-85.4596
-88.469
-115.769
-104.55
-104.902
-103.016
-102.675
-102.698
-103.047
-104.957
-104.603
-115.865
1062.43
1062.28
1062.27
1062.4
1062.57
1062.65
1062.56
1062.32
1062.48
1063.77
1042.09
1041.8
1041.87
1042.16
1042.37
1042.22
1041.55
1040.58
1041.58
1043.56
1021.05
1020.62
1020.66
1021.24
1022.04
1022.68
1022.66
1022.68
1024.31
1024.68
1000.56
1001.04
1001.13
1001.57
1002.67
1003.18
1003.46
1004.01
1005.82
1006.62
983.147
983.801
984.1
983.589
984.604
984.853
984.795
985.774
988.335
988.283
964.33
964.83
965.444
965.869
966.844
966.399
966.154
967.376
967.928
968.157
944.623
945.464
946.467
947.928
948.744
948.128
947.341
948.073
948.659
948.694
925.294
928.596
929.305
930.986
930.145
932.723
928.049
928.356
929.506
930.535
902.952
901.938
904.844
906.239
907.2
906.396
908.041
909.039
909.854
910.933
884.954
882.843
882.112
885.79
887.597
888.617
890.121
890.511
890.732
891.729
869.514
869.07
867.882
865.809
870.828
869.531
871.125
870.784
870.493
869.945
856.425
856.093
852.95
849.603
850.663
851.383
852.001
851.263
850.789
850.025
834.563
833.387
832.485
832.021
832.165
832.029
831.563
832.107
831.733
831.17
812.23
812.062
812.118
812.47
812.692
812.998
812.386
811.194
809.719
813.964
790.031
789.909
790.014
790.305
790.809
791.395
790.535
787.706
786.011
784.619
767.211
766.983
767.126
767.327
767.569
767.481
767.294
765.695
764.593
763.01
744.055
743.502
743.517
743.763
744.288
744.707
744.737
744.509
744.111
742.737
716.944
717.448
718.381
719.802
720.906
721.768
722.819
723.654
723.928
723.54
687.409
689.09
695.29
696.332
695.95
698.25
700.693
703.236
705.762
708.74
661.72
665.275
669.31
669.329
671.179
674.09
677.949
683.092
688.093
693.958
636.065
637.372
640.662
642.698
644.853
646.426
651.237
662.785
677.332
689.439
610.891
610.382
610.919
612.052
616.124
617.396
616.894
633.229
650.205
663.647
580.346
581.233
580.254
575.65
580.871
581.555
571.847
578.691
591.684
603.676
567.451
564.912
561.413
558.683
556.05
547.355
530.046
514.652
511.913
530.881
559.955
557.038
553.472
548.476
540.383
529.53
517.257
504.094
500.369
507.607
551.366
547.768
543.97
540.17
534.782
527.921
521.672
516.04
513.392
512.066
542.711
538.76
535.017
532.677
528.907
524.299
521.035
517.142
513.504
515.163
530.454
527.654
524.789
525.162
524.079
515.56
514.693
513.331
513.311
514.737
510.145
507.469
504.413
505.641
499.468
498.987
497.547
497.988
500.289
503.235
492.931
489.446
486.019
483.342
481.122
476.452
469.787
471.562
477.19
484.145
474.28
467.636
464.226
461.458
460.313
458.43
444.44
441.609
448.371
452.242
450.228
445.952
443.526
441.749
439.092
431.905
425.293
416.184
401.761
406.209
435.254
434.125
431.216
427.342
423.151
417.606
407.68
392.397
374.762
372.029
423.451
423.653
420.49
416.541
412.882
408.59
403.249
395.765
389.085
386.713
410.494
412.651
410.349
407.969
405.806
403.966
401.537
398.047
394.542
392.141
396.642
397.107
404.046
403.476
401.916
401.14
395.605
398.055
400.198
390.799
373.093
370.809
372.881
372.68
374.148
374.772
375.498
377.365
378.494
379.115
356.046
350.181
349.259
350.065
353.404
357.197
360.91
363.987
366.387
368.718
358.924
354.016
351.36
345.452
344.941
345.688
347.429
349.964
352.782
356.173
357.992
349.618
341.757
337.094
334.062
332.381
332.039
333.063
335.422
339.443
352.505
342.038
332.99
326.146
319.943
315.382
312.702
311.97
314.445
318.25
329.875
326.825
314.946
306.382
299.201
293.206
288.699
284.808
283.105
279.825
306.773
299.785
292.309
284.549
275.868
266.19
257.104
247.474
238.746
227.151
280.751
274.56
267.089
257.88
249.163
238.09
225.217
214.626
209.852
206.901
253.198
251.807
243.551
230.27
227.427
223.24
212.37
204.611
202.414
200.742
226.497
237.772
234.242
220.008
210.561
211.87
210.652
208.999
206.841
204.299
210.866
213.088
217.931
211.339
216.441
215.647
214.601
212.941
211.393
210.969
204.391
216.372
206.43
216.542
215.872
214.386
212.917
211.66
210.882
212.075
208.021
207.673
205.452
204.969
203.53
207.089
209.327
215.787
217.722
215.725
204.546
198.161
202.434
202.579
201.42
200.009
196.642
191.012
185.121
181.819
187.627
187.113
188.167
188.119
186.413
180.403
173.52
177.458
179.508
179.49
182.781
181.15
178.887
174.74
171.729
175.066
180.332
179.63
179.279
178.962
173.657
171.328
169.243
170.914
183.302
182.939
177.855
177.654
178.078
177.881
153.646
159.788
161.835
172.658
172.321
170.018
175.403
168.015
168.764
171.312
115.063
141.053
163.152
170.934
171.536
168.813
163.949
163.165
169.918
172.416
51.201
93.1622
133.079
158.182
159.351
155.132
159.05
160.658
142.398
144.44
23.2665
44.5894
88.654
126.676
139.543
137.48
136.348
142.378
143.724
145.511
25.277
34.7635
52.3924
95.7112
126.461
127.853
128.297
130.025
138.059
140.968
26.1122
29.8977
35.4668
62.3627
103.941
116.687
112.784
113.425
113.441
113.014
21.388
29.3701
34.288
43.2486
75.943
102.855
92.5022
97.8866
95.8237
96.5376
13.4232
26.6822
25.7118
30.0734
47.6635
71.2836
66.6022
71.2188
66.9199
64.6357
8.0674
14.1622
11.1283
18.1382
26.9367
47.7026
52.9191
52.9366
40.1709
50.2827
8.72322
5.23484
10.0524
23.8857
28.0868
46.9323
53.7476
49.036
48.9543
46.3703
-1.67823
1.27323
1.94787
2.13102
47.5439
49.7061
59.0577
39.8139
50.6522
39.9482
-1.71892
-1.86463
-1.8092
-2.21837
36.5836
51.8545
44.6152
42.0912
39.1351
29.3062
-1.69178
-1.73444
-2.22208
-2.11745
41.2761
40.8663
31.3779
32.0987
31.8708
27.7482
-1.10067
-1.78807
-0.768516
-2.43315
44.2369
38.7099
37.7161
21.9207
11.517
32.974
-1.28621
-1.1019
-1.02439
-1.40611
37.0791
35.6691
27.3712
18.9629
5.70491
11.902
-1.32023
-1.27661
-1.26648
-1.28642
30.3835
31.3097
9.08337
6.72034
3.65548
-1.22882
-1.35653
-1.34032
-1.33291
-1.32499
24.9704
27.9932
-1.71799
-2.11869
-1.76754
-1.25023
-1.41592
-1.43756
-1.37419
-1.40209
27.4273
23.8161
-2.46206
-1.29023
-0.846561
-1.08922
-1.47248
-1.44578
-1.42566
-1.42048
26.636
23.8415
-2.29303
-0.94741
-1.06194
-1.05261
-1.4967
-1.48114
-1.48861
-1.50293
32.7157
19.5348
-1.38535
-0.879208
-1.01644
-1.07171
-1.52124
-1.55113
-1.58232
-1.67343
41.5205
9.54298
-1.07379
-1.10951
-1.16923
-1.18816
-1.53721
-1.54218
-1.49936
-1.42945
9.44037
41.2561
-1.34491
-1.26357
-1.24498
-1.24981
-1.53924
-1.52004
-1.44251
-1.40285
15.4607
35.7082
-1.37376
-1.31016
-1.29518
-1.29084
-1.5611
-1.53089
-1.49002
-1.54547
28.5447
22.6751
-1.31524
-1.31257
-1.31464
-1.31545
-1.56676
-1.56013
-1.54793
-1.56879
21.332
29.4348
-1.39847
-1.34385
-1.34064
-1.33889
-1.59988
-1.59217
-1.59512
-1.63395
26.4775
23.9959
-1.37759
-1.34803
-1.35834
-1.36321
-1.62249
-1.61865
-1.6179
-1.62861
24.2264
25.076
-1.36107
-1.34698
-1.36588
-1.36312
-1.65134
-1.64204
-1.63787
-1.63091
24.0758
23.5525
-1.3508
-1.36021
-1.38295
-1.3815
-1.67029
-1.66286
-1.65142
-1.62649
22.9031
22.7278
-1.37471
-1.39622
-1.42604
-1.42473
-1.67253
-1.67153
-1.66519
-1.64095
21.7116
21.8135
-1.41727
-1.44083
-1.47301
-1.47143
-1.68719
-1.68201
-1.68315
-1.67102
20.7748
20.8647
-1.45443
-1.46965
-1.48959
-1.50346
-1.69265
-1.69152
-1.69263
-1.69657
19.8482
19.7758
-1.49519
-1.49323
-1.51025
-1.52904
-1.70375
-1.69978
-1.69851
-1.71744
19.2964
17.9061
-1.55456
-1.53476
-1.54052
-1.55962
-1.71939
-1.70657
-1.70616
-1.72683
17.7082
16.556
-1.62217
-1.58987
-1.58836
-1.59295
-1.7436
-1.73906
-1.73887
-1.83009
14.3779
17.672
-1.61399
-1.62798
-1.62386
-1.62902
-1.77221
-1.76568
-1.76121
-2.03597
11.451
19.0091
-1.48617
-1.66266
-1.65546
-1.66047
-1.79396
-1.77715
-1.77834
-1.86838
15.4966
8.54017
-2.00127
-1.69264
-1.68544
-1.68896
-1.81125
-1.8015
-1.80686
-1.24388
11.9425
4.39551
-2.66862
-1.72112
-1.71632
-1.72564
-1.83697
-1.83575
-1.84736
-1.87141
7.0695
5.1361
-2.22334
-1.72173
-1.73291
-1.74613
-1.85492
-1.85879
-1.82103
-2.68044
2.84145
4.4374
-1.71627
-1.79096
-1.76123
-1.77151
-1.88361
-1.88657
-1.95343
-2.36567
1.04482
2.87112
-1.6127
-1.83886
-1.78877
-1.79087
-1.8905
-1.89055
-2.02079
-1.79427
-0.0589685
1.1016
-1.3174
-2.01771
-1.81462
-1.81454
-1.90408
-1.9054
-2.28795
-0.96986
0.189189
0.165484
-1.76088
-2.30855
-1.84282
-1.84205
-1.91582
-1.91455
-3.34455
-2.12828
-0.897014
-0.572266
-0.85253
-2.93538
-1.83686
-1.86027
-1.93428
-2.28357
-4.06329
-2.36822
-1.83425
-1.43735
-2.51824
-4.7943
-2.59035
-1.90142
-1.95078
-3.97037
-5.45013
-5.29876
-5.31095
-5.73216
-5.79166
-5.66866
-4.09312
-1.92093
-2.71581
-9.62248
-13.1193
-14.9095
-15.4217
-15.1732
-14.3562
-12.5328
-9.49429
-2.78771
1064.62
1063.27
1062.94
1064.31
1065.16
1065.95
1066.73
1067.37
1068.15
1069.08
1069.97
1070.65
1071.68
1071.99
1072.45
1072.89
1073.34
1074.1
1075.72
1074.58
1073.16
1071.53
1070.13
1069.13
1068.75
1069.43
1070.9
1072.84
1075.21
1077.53
1079.24
1080.1
1079.6
1077.44
1075.13
1074.45
1074.94
1075.43
1076.07
1076.21
1040.36
1039.23
1040.67
1043.62
1045.06
1046.27
1047.15
1047.87
1048.55
1049.51
1050.41
1051.2
1052.09
1052.35
1052.92
1053.26
1053.42
1054.01
1053.8
1052.78
1051.44
1050.11
1048.73
1047.36
1046.82
1047.39
1048.66
1050.24
1052.23
1054.12
1055.56
1056.33
1055.71
1053.99
1052.95
1053.28
1054.7
1055.74
1057.06
1057.46
1023.84
1019.53
1021.09
1023.65
1025.49
1026.74
1027.52
1028.2
1028.87
1029.97
1031.17
1031.87
1032.75
1033.27
1033.82
1033.99
1034.09
1034.07
1032.88
1031.52
1029.99
1028.12
1025.85
1023.57
1021.88
1022.08
1023.57
1025.64
1028.15
1030.8
1032.98
1034.75
1035.77
1037.69
1038.99
1040.13
1041.09
1041.86
1041.06
1040.96
1006.65
1003.13
1004.36
1006.21
1007.41
1008.16
1008.38
1008.64
1009.23
1010.25
1011.92
1012.77
1013.71
1014.47
1015.03
1015.06
1014.94
1014.67
1012.92
1011.09
1009.28
1007.31
1005.03
1003.32
1002.35
1001.3
1001.03
1002.97
1005.04
1008.22
1011.74
1014.65
1017.21
1019.27
1021.1
1023.47
1024.15
1024.31
1024.32
1024.49
988.191
988.668
988.813
989.3
989.63
989.476
989.125
989.193
989.854
991.137
992.785
993.874
995.062
996.016
996.723
997.116
996.591
995.435
994.174
992.792
991.305
989.595
987.366
985.247
982.846
981.534
982.298
984.619
986.879
987.179
991.903
995.406
998.063
1000.22
1001.93
1002.9
1003.18
1003.32
1003.29
1003.34
969.492
969.649
969.549
969.621
969.701
969.556
969.472
969.835
971.052
972.645
974.308
975.867
977.231
978.316
979.128
979.65
979.384
978.298
976.179
974.894
973.62
972.896
971.694
970.247
968.044
966.832
967.709
969.782
971.991
971.392
974.144
976.952
978.924
980.23
981.15
981.681
982.237
982.883
983.153
983.026
949.154
949.042
948.809
948.41
948.746
949.247
949.828
950.767
952.529
954.503
956.469
958.258
959.838
961.148
962.153
962.781
962.658
961.584
960.417
959.19
957.19
957.164
955.8
954.511
953.336
952.973
953.129
952.908
954.073
954.647
955.899
957.669
959.09
960.204
961.205
961.949
962.518
962.897
963.302
964.81
929.507
929.286
928.514
927.997
929.438
929.226
930.227
931.7
933.943
936.47
938.968
941.049
942.897
944.258
945.146
945.534
945.295
945.128
945.314
945.093
944.792
943.673
942.323
941.021
939.376
937.982
939.608
938.965
937.995
936.897
937.647
939.547
939.141
940.371
941.498
942.339
942.995
943.594
944.16
945.951
911.52
912.17
908.823
909.716
910.281
910.484
911.492
913.138
915.564
918.408
921.261
923.908
925.897
927.387
928.538
929.334
929.824
931.585
936.189
937.514
935
932.72
930.893
929.361
927.037
922.829
921.272
920.384
919.454
918.707
920.283
920.623
920.021
921.58
922.389
923.114
923.677
924.27
924.852
926.659
894.372
892.476
889.348
890.457
891.219
892.105
893.445
895.055
897.397
900.748
903.538
906.428
908.87
910.712
912.071
913.153
915.133
916.919
919.573
919.045
917.863
916.004
914.194
911.659
908.425
905.893
905.117
902.192
898.361
898.219
899.452
900.516
901.364
902.401
903.652
904.228
904.837
905.38
905.801
907.169
872.415
872.039
869.458
870.11
870.801
871.857
874.664
877.563
879.76
885.308
889.001
891.362
893.525
895.365
896.428
896.966
897.252
899.024
899.801
899.272
898.558
897.219
895.015
892.465
892.159
890.028
887.665
884.437
880.931
877.672
879.503
879.507
879.421
881.483
881.832
882.583
883.434
884.234
885.149
887.019
848.84
845.896
845.557
846.727
847.492
851.261
852.523
856.598
861.307
866.036
870.259
874.626
877.505
879.747
880.691
880.549
880.386
879.735
880.323
879.57
878.511
877.267
875.789
876.471
875.554
872.453
869.545
866.781
862.581
858.395
855.071
850.131
851.358
855.169
858.916
861.45
861.574
861.33
861.866
864.343
829.945
828.542
825.67
826.36
827.696
828.199
831.65
834.848
840.343
846.414
852.912
858.02
861.037
863.811
865.078
864.496
863.998
863.72
861.423
860.204
859.034
857.597
856.203
855.576
857.357
852.149
849.875
845.417
839.102
832.773
830.856
833.945
835.948
834.239
836.655
838.819
838.681
837.345
838.986
839.948
807.297
805.076
803.685
803.088
803.135
804.707
806.914
812.257
819.281
827.533
835.266
842.004
847.056
850.758
852.217
851.501
849.42
846.25
845.622
841.832
840.341
838.827
837.925
837.088
836.218
835.118
830.525
826.1
821.095
818.337
816.838
816.568
818.468
820.326
819.682
819.144
817.759
817.462
818.413
819.961
783.437
781.402
779.077
777.751
776.787
776.305
777.519
783.376
793.519
804.782
816.943
826.375
831.495
835.908
837.112
834.986
832.024
829.216
825.387
824.11
821.457
820.322
819.626
818.939
817.725
815.534
818.589
812.995
811.109
806.624
805.923
805.811
806.401
806.953
808.285
808.345
806.205
806.212
807.113
807.978
760.293
757.911
755.017
751.771
747.456
740.917
737.892
740.272
748.675
765.948
786.091
801.58
809.773
815.329
814.91
819.025
813.349
807.48
804.081
801.802
800.976
800.712
799.461
801.286
801.024
800.567
804.572
799.276
795.858
793.34
793.542
793.123
792.509
791.151
789.49
786.373
785.406
787.502
789.643
789.952
740.505
734.814
729.772
723.832
714.199
704.76
690.562
669.447
685.153
714.307
740.217
759.835
773.207
777.35
776.335
775.962
782.372
778.029
772.882
775.171
773.966
775.035
774.94
777.371
778.847
782.95
779.992
778.246
775.317
774.695
775.737
780.156
781.528
779.156
778.209
769.823
768.082
770.156
770.616
770.69
724.079
719.973
717.283
711.651
700.19
689.813
672.363
656.63
656.604
675.737
694.644
708.261
718.926
725.185
724.433
723.119
723.957
725.516
729.713
732.242
739.548
743.298
746.598
749.819
751.734
755.065
750.366
748.855
749.141
750.869
752.536
755.098
758.556
759.821
759.46
757.831
754.442
757.702
760.9
761.712
711.483
714.938
716.807
717.054
711.481
704.417
691.981
678.551
664.531
658.38
657.828
654.41
652.831
657.112
660.844
662.81
665.542
672.838
677.61
691.845
698.314
705.563
714.338
719.171
722.941
724.766
724.314
723.221
724.895
724.008
725.201
727.23
731.705
736.273
736.304
736.762
736.562
737.766
741.85
742.305
702.475
712.194
718.559
725.678
724.305
717.85
705.834
687.754
664.868
642.473
622.882
601.419
587.843
596.566
601.317
604.483
607.631
617.558
631.87
646.551
660.322
668.909
678.581
687.048
692.837
696.123
698.294
700.643
702.533
704.977
701.781
698.736
701.773
707.77
711.269
712.581
711.196
713.688
735.618
726.449
697.688
708.856
717.891
715.955
710.649
704.373
695.012
675.152
645.462
612.708
587.592
575.636
573.282
573.837
577.226
579.338
583.337
588.935
593.028
612.982
626.212
643.018
650.881
658.47
665.927
671.823
676.095
679.432
681.713
683.64
689.333
686.947
685.866
688.361
685.861
687.301
693.716
693.069
707.509
700.89
674.99
680.731
684.357
682.464
679.55
674.308
662.827
643.22
615.625
582.813
570.145
565.657
566.223
569.134
570.495
570.297
571.932
574.752
577.268
583.69
602.53
613.844
630.235
638.096
642.737
650.508
656.517
661.619
665.963
670.391
679.399
683.46
676.313
680.655
671.927
674.222
677.918
678.463
678.256
683.699
615.005
624.224
630.616
633.016
634.284
632.499
624.343
609.807
587.437
563.701
560.128
558.017
557.288
556.813
555.042
553.767
553.837
556.557
563.096
570.295
581.24
607.447
606.007
620.965
623.164
631.8
639.181
644.252
647.802
650.652
664.634
660.981
668.875
664.958
664.803
666.738
663.095
659.609
662.3
662.307
546.856
561.422
574.582
580.399
583.515
587.055
586.902
580.335
565.402
554.888
553.729
552.958
551.336
548.835
545.937
543.881
542.554
547.637
553.969
558.74
568.988
589.752
589.278
604.698
609.911
616.371
623.705
627.921
631.328
634.516
652.529
648.719
653.148
646.471
645.406
647.575
646.538
639.425
639.458
643.005
515.329
526.971
546.678
553.233
563.395
554.95
557.809
560.426
555.662
551.907
552.339
551.188
550.039
548.962
547.873
548.591
550.089
552.363
554.246
554.978
565.867
575.375
581.87
593.251
597.093
602.742
608.821
612.215
616.173
620.722
641.164
633.697
634.349
629.723
631.458
632.073
631.513
627.569
625.318
630.726
515.657
525.732
536.252
541.749
549.118
545.516
545.823
548.146
550.267
549.226
552.154
552.147
552.354
552.383
553.036
554.781
555.178
553.675
556.313
557.373
560.226
565.685
571.791
583.41
587.482
590.469
594.354
597.627
603.69
606.148
618.637
609.237
612.484
614.534
616.813
616.532
621.776
621.092
616.234
621.177
520.185
530.277
532.297
534.776
536.626
536.142
537.65
541.269
546.774
548.679
551.357
551.429
551.435
551.059
551.221
552.567
551.857
552.81
552.465
552.643
554.22
556.589
559.479
575.823
579.558
578.92
580.431
581.95
582.274
597.363
596.423
592.492
596.104
598.791
601.235
604.252
610.283
613.488
606.444
604.868
516.398
523.572
527.377
529.109
531.279
532.731
533.525
533.018
542.907
545.598
548.207
549.356
550.549
549.799
551.551
548.514
543.704
538.958
538.685
539.992
541.302
544.391
550.772
565.183
567.36
568.973
567.8
566.509
567.896
576.121
576.864
576.922
580.408
583.172
586.166
589.335
592.056
601.48
596.427
595.6
506.554
517.763
518.222
521.198
523.572
526.017
528.231
525.712
531.381
537.527
538.653
543.11
550.753
547.722
545.191
551.096
531.875
528.962
523.36
532.726
531.871
536.478
545.481
549.216
558.203
559.054
551.131
552.638
556.556
558.853
561.303
562.1
565.143
567.604
569.96
572.23
574.626
584.203
577.338
579.736
494.131
500.808
499.704
502.435
505.773
508.243
518.899
521.462
520.042
530.227
533.847
532.204
554.729
545.896
538.005
539.825
532.353
532.566
530.732
529.607
532.329
535.153
537.59
538.931
552.469
539.774
540.763
543.024
544.999
546.029
546.488
548.6
550.734
552.741
554.542
555.946
557.788
561.945
559.361
560.346
454.442
461.418
468.262
470.584
476.084
484.205
491.091
514.344
515.741
524.081
530.847
526.168
542.295
533.815
538.882
536.048
534.348
534.356
533.394
532.938
531.889
531.167
532.681
532.74
532.33
533.178
533.636
533.976
534.057
533.213
533.242
534.796
536.057
537.081
537.823
538.676
540.141
541.433
541.336
541.537
416.078
414.134
418.608
423.822
434.32
453.659
476.487
498.937
536.247
519.091
527.729
531.005
533.742
537.499
533.393
533.582
529.79
529.12
527.447
526.28
528.327
526.7
524.752
524.826
525.594
525.418
524.38
522.087
520.646
519.396
518.883
519.307
519.301
519.487
519.487
519.837
520.551
522.055
523.436
523.765
379.864
390.835
395.673
398.866
409.609
434.514
462.531
491.258
545.873
533.155
534.468
537.664
541.601
540.333
536.086
531.075
526.334
522.482
519.818
517.591
516.175
514.575
512.651
512.674
516.333
512.761
510.587
509.384
506.939
505.113
503.786
503.174
502.588
501.844
501.511
501.707
502.591
504.289
506.026
506.054
390.166
397.347
403.825
404.818
406.157
426.693
454.242
480.426
523.438
523.66
524.717
534.179
536.839
535.291
531.926
524.057
517.792
512.086
507.723
504.417
501.829
499.578
497.367
495.798
494.968
495.089
494.53
493.065
490.779
488.749
487.144
485.713
483.871
481.673
479.669
478.57
483.411
481.237
482.448
483.169
393.478
398.121
403.317
405
409.141
428.324
448.828
466.466
495.737
495.631
497.38
512.708
517.758
517.683
515.698
509.963
503.22
496.388
491.51
487.899
484.932
482.562
480.697
479.08
477.707
476.895
476.152
474.684
472.776
470.755
468.823
466.591
463.488
459.754
454.157
451.872
459.74
456.385
460.238
462.015
393.094
400.752
394.825
398.898
412.367
427.905
444.355
458.163
471.053
468.355
470.717
482.361
486.71
496.558
490.594
485.896
481.055
475.523
471.297
468.486
466.241
464.234
462.433
460.928
459.625
458.715
457.995
456.936
455.378
453.422
451.483
450.518
449.819
442.703
439.39
437.088
443.474
440.642
443.87
445.32
378.678
380.335
386.737
395.184
408.101
420.604
433.276
444.454
450.815
442.716
447.922
456.987
459.984
467.561
464.423
461.35
455.641
452.677
449.988
447.489
446.025
444.774
443.684
442.76
441.995
441.261
440.757
440.402
439.862
438.893
438.908
440.407
439.817
437.635
434.876
433.555
431.966
431.713
432.38
432.917
372.235
376.086
381.747
391.988
401.479
408.23
419.905
426.191
429.492
426.065
426.385
430.596
433.758
434.816
438.677
432.235
428.711
426.164
425.397
425.333
424.932
424.905
424.814
424.704
424.611
424.553
424.742
424.782
425
425.309
426.052
429.746
430.675
429.448
427.498
422.501
421.089
420.007
419.289
418.912
360.669
365.605
376.375
386.324
394.093
406.587
414.12
412.088
406.665
404.865
403.632
404.307
405.139
404.995
404.622
409.432
398.57
398.86
400.975
402.979
404.585
405.466
406.297
407.059
407.746
408.375
409.157
409.408
410.159
410.839
411.502
412.541
413.653
412.53
410.961
409.201
407.2
405.971
405.009
404.709
350.909
357.61
373.009
378.78
398.9
406.479
387.428
388.409
384.943
381.716
379.898
379.293
379.124
378.322
377.188
386.251
385.472
377.712
380.884
383.896
385.939
387.332
388.733
389.976
391.096
392.286
393.36
394.238
395.041
395.785
396.641
397.777
397.397
397.558
396.46
395.516
394.364
393.155
393.719
396.072
330.945
344.274
356.073
380.625
394.062
382.73
370.802
362.537
356.839
354.376
354.109
354.636
355.3
355.698
355.153
359.25
363.179
364.725
364.529
366.881
369.117
370.596
372.717
373.657
374.521
376.109
377.815
379.044
379.902
381.262
382.798
381.744
381.969
381.984
381.275
381.209
380.807
379.949
381.088
381.92
283.046
288.207
318.045
347.675
354.761
345.429
335.702
328.709
325.482
326.099
327.686
330.189
332.641
334.829
335.964
339.95
345.36
349.683
350.367
352.218
354.632
354.452
358.303
356.594
358.385
360.659
362.414
364.068
365.786
367.279
367.335
368.007
367.305
366.363
365.712
365.42
364.393
365.393
366.071
366.473
219.016
237.835
248.097
259.227
262.756
278.066
285.438
289.07
294.4
298.625
302.342
306.277
310.461
315.048
319.097
324.475
329.236
332.488
334.076
337.206
338.857
340.973
339.148
339.694
341.317
343.224
345.106
346.927
349.053
350.503
354.701
353.836
352.481
351.406
349.475
347.239
346.663
348.922
348.379
348.492
207.232
209.501
209.515
212.477
213.025
214.921
241.275
257.109
267.023
273.622
278.324
282.935
288.001
293.549
298.446
305.428
316.949
312.058
314.267
316.908
316.781
322.954
318.588
319.763
320.917
322.363
324.582
326.659
328.885
330.362
334.357
334.624
332.793
329.579
328.042
326.009
326.447
328.462
328.941
329.7
199.841
201.115
205.219
202.155
201.679
196.076
219.432
238.59
245.406
250.786
255.762
260.794
265.662
272.668
275.152
280.158
291.257
287.884
291.895
294.141
297.174
297.784
299.254
299.609
298.494
300.114
300.925
303.089
301.547
300.663
305.364
298.105
299.879
299.326
298.615
302.331
305.473
304.166
307.253
309.851
202.674
205.224
207.419
204.04
202.363
198.918
212.786
225.276
231.014
233.28
235.982
240.111
244.613
249.721
254.582
260.013
264.442
268.331
271.393
274.266
276.308
278.337
277.7
276.744
276.518
275.894
275.85
273.882
267.632
268.697
259.742
261.3
264.764
267.561
272.204
276.814
280.194
282.126
282.493
286.32
213.032
219.244
223.845
218.826
212.72
210.833
201.532
190.202
186.939
196.623
206.76
213.458
220.407
226.151
231.005
237.491
243.014
248.066
251.795
255.908
256.527
258.14
256.754
256.2
254.917
252.501
251.368
246.896
240.008
235.242
220.76
223.495
227.858
234.401
242.335
249.267
253.24
255.98
258.543
261.056
218.694
240.86
243.817
226.841
212.516
192.797
184.399
185.847
187.775
187.013
185.66
188.075
194.802
206.174
211.977
216.094
221.728
230.201
234.834
236.707
237.816
238.389
238.325
237.052
235.539
233.637
230.704
226.24
220.662
213.546
205.521
207.15
206.092
213.898
213.945
224.831
223.531
230.344
233.126
234.088
206.88
197.734
193.18
182.855
181.824
182.136
181.829
182.134
182.565
182.948
183.554
183.907
179.839
183.485
189.491
198.615
207.524
214.55
217.427
219.475
219.864
221.331
220.976
219.88
219.137
216.682
213.556
214.017
212.607
209.43
204.523
201.176
196.845
202.078
196.491
204.598
200.341
205.571
208.807
210.003
181.177
181.45
181.166
180.67
180.185
179.765
179.269
179.029
179.399
179.922
180.845
181.186
175.354
176.913
180.285
185.9
190.866
194.868
197.955
199.919
200.672
203.035
201.619
201.129
199.872
199.398
200.372
205.432
203.798
200.691
193.153
190.499
188.352
185.78
194.081
187.085
185.588
187.903
189.592
190.583
179.677
179.765
179.539
179.023
178.469
177.815
177.124
176.666
176.843
177.362
178.009
177.602
175.514
172.336
170.586
171.147
171.424
171.863
174.515
176.179
177.226
179.39
180.871
179.23
176.777
176.11
175.977
176.551
180.227
179.904
172.089
170.451
171.05
171.016
180.451
169.113
168.575
170.235
171.351
172.064
178.729
178.519
178.312
177.929
177.276
176.367
175.41
174.839
175.058
175.519
175.781
175.525
170.242
162.648
155.9
150.276
144.507
139.966
137.461
140.276
145.899
153.434
158.527
159.558
158.918
151.671
148.275
148.311
152.895
157.608
155.616
155.162
154.729
154.673
152.348
152.622
151.069
150.269
151.776
152.414
177.763
177.473
176.92
176.341
175.804
175.263
174.654
174.267
174.263
174.453
173.505
170.294
160.834
149.968
139.17
129.875
126.942
124.301
123.245
120.013
118.354
124.629
132.272
141.988
141.677
140.555
138.823
138.444
141.249
143.986
142.899
143.408
143.651
141.706
137.525
137.317
134.239
136.619
134.191
136.306
172.897
172.539
172.574
173.412
174.331
175.216
175.211
174.646
174.606
174.556
171.603
163.028
155.752
139.049
124.372
125.019
125.722
124.506
123.658
124.184
124.566
123.695
115.307
120.896
127.69
129.298
129.563
129.261
129.159
134.708
130.342
131.301
123.603
128.213
127.511
124.351
128.944
129.694
124.527
131.171
173.217
173.473
173.761
175.103
177.409
180.172
175.92
170.967
170.934
169.962
159.166
151.311
144.27
131.096
120.423
124.172
124.548
123.936
122.689
122.319
123.132
116.344
121.801
126.271
117.65
119.807
120.262
118.82
122.055
117.485
120.226
118.91
115.765
121.037
118.769
117.276
118.524
118.936
118.152
126.51
145.513
148.007
155.069
162.398
168.883
175.146
179.723
179.035
172.267
165.044
155.768
148.169
138.878
126.832
116.612
123.008
123.26
123.44
120.623
115.716
113.038
112.773
113.846
112.167
110.383
113.132
112.913
110.737
116.275
111.334
111.494
112.472
105.601
112.715
105.574
107.659
109.6
111.471
112.345
119.997
149.747
151.249
143.54
144.502
151.767
161.809
162.923
165.949
167.884
170.903
167.206
158.115
146.71
132.03
119.755
116.979
110.623
111.804
111.821
110.766
108.585
105.62
104.399
103.767
102.062
99.9888
98.4952
97.7527
99.4136
97.8473
96.1493
98.8072
97.9248
95.9027
97.0304
99.1858
102.004
104.715
104.842
111.358
131.729
132.758
135.004
137.813
135.451
148.883
146.853
144.839
145.429
149.694
153.444
151.996
147.458
139.648
128.363
117.757
115.854
113.379
108.034
102.685
99.9882
98.0124
95.9819
92.9878
92.0016
90.613
89.5512
89.4425
89.5499
89.1368
88.3376
87.0391
84.7478
85.5382
86.6129
88.6528
94.4374
97.5989
98.4763
102.217
118.191
122.392
118.481
119.789
122.638
122.318
122.664
123.267
122.147
121.858
124.643
125.703
124.689
120.327
115.608
110.25
105.335
99.8867
96.2921
92.9927
90.5957
87.4965
84.0625
82.1036
80.5346
79.3377
78.2971
77.6294
77.1556
76.5464
76.0797
75.7401
73.6112
74.5735
76.6925
80.1382
85.75
93.1496
96.7549
99.3315
98.2951
102.974
105.544
107.739
107.847
105.854
106.763
103.339
103.559
103.626
102.258
99.5494
98.7574
97.9246
95.9576
92.9165
89.1954
85.508
82.1989
79.6352
76.5366
74.3715
72.0511
69.6146
68.0102
67.2734
66.7157
65.9333
64.9769
64.5242
64.5876
64.7085
63.5179
67.371
69.6722
71.3789
79.8618
87.3434
93.0174
95.5306
66.0397
73.719
76.753
80.0522
88.9863
86.5607
87.5208
86.9241
86.7339
85.8582
85.1444
84.3168
82.8971
78.12
75.2377
73.5434
70.8155
67.314
65.3831
63.1639
60.2192
58.0467
55.8919
54.3962
53.3419
52.6992
52.2529
53.157
53.7894
53.8312
54.82
53.603
56.5477
58.9958
60.9522
67.4631
74.2218
84.4795
87.4036
91.3834
56.7066
49.0577
55.8999
61.5698
64.462
72.5792
72.4022
71.4745
72.469
72.6306
62.978
65.9589
63.3718
56.125
58.5484
55.1678
51.5232
49.9014
46.8495
44.2842
42.3366
41.3919
39.7531
38.6287
37.7572
36.4648
35.4684
40.4429
40.1828
38.2134
39.7858
43.0111
45.3882
45.8568
50.6046
55.5874
62.0962
67.2013
73.1598
73.1549
30.2896
38.5903
44.8526
47.2422
51.0143
51.5506
59.7788
51.5986
52.9813
50.971
46.0888
39.439
34.4357
32.268
31.2712
30.9858
30.965
30.2899
29
27.4561
24.8417
23.6902
22.704
21.9399
20.7105