/*--------------------------------*- C++ -*----------------------------------*\
  =========                 |
  \\      /  F ield         | OpenFOAM: The Open Source CFD Toolbox
   \\    /   O peration     | Website:  https://openfoam.org
    \\  /    A nd           | Version:  8
     \\/     M anipulation  |
\*---------------------------------------------------------------------------*/
FoamFile
{
    version     2.0;
    format      ascii;
    class       surfaceScalarField;
    location    "2.1";
    object      phi;
}
// * * * * * * * * * * * * * * * * * * * * * * * * * * * * * * * * * * * * * //

dimensions      [0 3 -1 0 0 0 0];

internalField   nonuniform List<scalar> 
18095
(
1.94776e-08
-1.71936e-07
1.52458e-07
2.30822e-08
-1.98199e-07
1.94594e-07
1.9952e-08
-2.05852e-07
2.08982e-07
1.1135e-08
-2.10908e-07
2.19725e-07
4.33737e-10
-2.13486e-07
2.24187e-07
-1.04324e-08
-2.13289e-07
2.24155e-07
-1.97438e-08
-2.10283e-07
2.19594e-07
-2.30478e-08
-2.05822e-07
2.09126e-07
-1.9466e-08
-1.98259e-07
1.94678e-07
-1.71967e-07
1.52501e-07
1.55401e-08
-1.87476e-07
1.57417e-08
-1.984e-07
1.19276e-08
-2.02037e-07
6.01939e-09
-2.05e-07
-5.81229e-10
-2.06885e-07
-7.07852e-09
-2.06792e-07
-1.21689e-08
-2.05192e-07
-1.56697e-08
-2.02321e-07
-1.55204e-08
-1.98409e-07
-1.87487e-07
6.86156e-09
-1.94338e-07
8.29873e-09
-1.99838e-07
7.33134e-09
-2.0107e-07
4.20811e-09
-2.01877e-07
5.97518e-11
-2.02737e-07
-3.88797e-09
-2.02844e-07
-6.93461e-09
-2.02146e-07
-8.25727e-09
-2.00998e-07
-6.85819e-09
-1.99808e-07
-1.94346e-07
4.56684e-09
-1.98905e-07
4.67912e-09
-1.9995e-07
3.61565e-09
-2.00007e-07
2.14424e-09
-2.00405e-07
1.984e-10
-2.00791e-07
-1.89657e-09
-2.00749e-07
-3.64518e-09
-2.00397e-07
-4.70045e-09
-1.99943e-07
-4.56321e-09
-1.99945e-07
-1.98909e-07
1.09537e-09
1.14556e-09
1.13899e-09
7.33557e-10
-5.7276e-11
-8.06562e-10
-1.20352e-09
-1.14636e-09
-1.09128e-09
-2.56837e-08
-1.97207e-07
2.22891e-07
-2.84812e-08
-1.98661e-07
2.01459e-07
-2.42897e-08
-2.01593e-07
1.97401e-07
-1.35446e-08
-2.01824e-07
1.91079e-07
-5.85913e-11
-2.02238e-07
1.88752e-07
1.30966e-08
-2.0152e-07
1.88365e-07
2.37905e-08
-2.00399e-07
1.89705e-07
2.82906e-08
-2.01072e-07
1.96572e-07
2.57132e-08
-1.98384e-07
2.00961e-07
-1.97102e-07
2.22815e-07
-1.00998e-08
-1.87108e-07
-1.55182e-08
-1.93243e-07
-1.45029e-08
-2.02608e-07
-7.97288e-09
-2.08354e-07
-1.55075e-09
-2.0866e-07
5.41934e-09
-2.0849e-07
1.34027e-08
-2.08382e-07
1.49873e-08
-2.02657e-07
9.91233e-09
-1.93309e-07
-1.8719e-07
-1.093e-08
-1.76178e-07
-8.9634e-09
-1.95209e-07
-6.90501e-09
-2.04666e-07
-5.90975e-09
-2.0935e-07
-2.05127e-09
-2.12518e-07
2.5598e-09
-2.13101e-07
5.46971e-09
-2.11292e-07
8.39895e-09
-2.05586e-07
1.07404e-08
-1.9565e-07
-1.76449e-07
-6.78187e-09
-1.69396e-07
-8.62527e-09
-1.93366e-07
-7.6317e-09
-2.0566e-07
-2.01232e-09
-2.14969e-07
1.93144e-09
-2.16462e-07
5.7706e-09
-2.1694e-07
9.66218e-09
-2.15184e-07
9.38125e-09
-2.05305e-07
7.04404e-09
-1.93313e-07
-1.69405e-07
-1.69373e-08
-1.57091e-08
-1.23874e-08
-7.63108e-09
9.38354e-11
7.30914e-09
1.17195e-08
1.554e-08
1.69046e-08
3.41941e-08
-1.55672e-07
1.21478e-07
3.77942e-08
-1.97461e-07
1.9386e-07
2.75085e-08
-2.09153e-07
2.19438e-07
1.19518e-08
-2.15442e-07
2.30999e-07
-5.91881e-09
-2.17473e-07
2.35344e-07
-2.25198e-08
-2.18069e-07
2.3467e-07
-3.43643e-08
-2.17286e-07
2.2913e-07
-3.93984e-08
-2.11751e-07
2.16785e-07
-3.37138e-08
-1.99838e-07
1.94153e-07
-1.57855e-07
1.24141e-07
1.78234e-08
-1.73496e-07
2.15625e-08
-2.012e-07
1.93586e-08
-2.06949e-07
1.31436e-08
-2.09227e-07
4.26622e-09
-2.08596e-07
-5.04332e-09
-2.0876e-07
-1.33646e-08
-2.08965e-07
-1.77285e-08
-2.07387e-07
-1.61374e-08
-2.01429e-07
-1.73992e-07
1.07911e-08
-1.84287e-07
1.04288e-08
-2.00837e-07
8.6535e-09
-2.05173e-07
4.06209e-09
-2.04636e-07
2.71417e-11
-2.04561e-07
-3.96883e-09
-2.04764e-07
-8.53129e-09
-2.04402e-07
-1.03275e-08
-2.05591e-07
-1.06194e-08
-2.01137e-07
-1.84611e-07
8.11769e-09
-1.92405e-07
6.90342e-09
-1.99623e-07
7.22999e-09
-2.055e-07
2.19301e-09
-1.99599e-07
2.28777e-10
-2.02597e-07
-1.60918e-09
-2.02926e-07
-6.20869e-09
-1.99803e-07
-6.2419e-09
-2.05558e-07
-7.89214e-09
-1.99487e-07
-1.92504e-07
3.04866e-08
3.23224e-08
2.42235e-08
1.57038e-08
1.85851e-09
-1.27028e-08
-2.28005e-08
-3.17861e-08
-3.03118e-08
3.86177e-07
-8.727e-08
-2.98907e-07
4.79362e-07
-9.31852e-08
5.50927e-07
-7.15644e-08
6.0437e-07
-5.34427e-08
6.41752e-07
-3.7382e-08
6.51959e-07
-1.02072e-08
6.49019e-07
2.93987e-09
6.40551e-07
8.46754e-09
6.46408e-07
-5.85707e-09
-5.56065e-08
7.02015e-07
4.85129e-07
-1.62465e-07
-4.09934e-07
5.64418e-07
-1.72473e-07
6.40533e-07
-1.4768e-07
7.1495e-07
-1.2786e-07
7.75539e-07
-9.7971e-08
8.22391e-07
-5.70589e-08
8.45167e-07
-1.98365e-08
8.55081e-07
-1.44599e-09
8.57108e-07
-7.88441e-09
-6.08443e-08
8.62345e-07
3.47311e-07
-2.23795e-07
-2.85981e-07
3.85824e-07
-2.10986e-07
4.3518e-07
-1.97037e-07
4.93069e-07
-1.85748e-07
5.55506e-07
-1.60408e-07
6.32591e-07
-1.34144e-07
7.06835e-07
-9.4081e-08
7.83968e-07
-7.85792e-08
8.48178e-07
-7.20939e-08
-8.74158e-08
8.74749e-07
1.86577e-07
-2.75416e-07
-1.34956e-07
2.24689e-07
-2.49098e-07
2.64198e-07
-2.36546e-07
2.86152e-07
-2.07702e-07
3.29802e-07
-2.04059e-07
4.11218e-07
-2.1556e-07
5.19093e-07
-2.01956e-07
6.00183e-07
-1.59668e-07
6.53608e-07
-1.25519e-07
-9.36222e-08
6.59814e-07
-1.71934e-07
-3.05776e-07
2.02293e-07
-1.18854e-07
-3.02177e-07
-4.47576e-08
-3.10642e-07
4.90468e-08
-3.01506e-07
1.47184e-07
-3.02196e-07
2.74731e-07
-3.43106e-07
4.20821e-07
-3.48047e-07
5.68861e-07
-3.07708e-07
6.83734e-07
-2.40393e-07
-1.40692e-07
7.30804e-07
-8.61288e-07
-3.83823e-07
9.39335e-07
-7.28804e-07
-4.34662e-07
-5.84471e-07
-4.54975e-07
-3.96867e-07
-4.89111e-07
-1.93994e-07
-5.05069e-07
-1.4311e-08
-5.2279e-07
2.26672e-07
-5.8903e-07
5.32032e-07
-6.13068e-07
9.17717e-07
-6.26078e-07
-6.15475e-07
1.3925e-06
-6.27555e-07
-4.92347e-07
7.36079e-07
-5.60837e-07
-5.01381e-07
-4.82637e-07
-5.33175e-07
-4.12078e-07
-5.59669e-07
-3.4746e-07
-5.69688e-07
-2.79645e-07
-5.90605e-07
-2.50529e-07
-6.18146e-07
-2.29039e-07
-6.34558e-07
-2.12328e-07
-6.42788e-07
-6.38291e-07
-1.89512e-07
-7.59686e-07
-5.06813e-07
7.74152e-07
-6.58248e-07
-6.02819e-07
-5.74853e-07
-6.1657e-07
-5.30007e-07
-6.04515e-07
-4.9035e-07
-6.09344e-07
-4.57606e-07
-6.23348e-07
-4.1802e-07
-6.57733e-07
-3.69984e-07
-6.82595e-07
-3.36062e-07
-6.7671e-07
-6.57557e-07
-3.16796e-07
-8.96015e-07
-5.56449e-07
9.45652e-07
-8.48307e-07
-6.50526e-07
-7.81345e-07
-6.83532e-07
-6.94509e-07
-6.91352e-07
-6.21208e-07
-6.82646e-07
-5.54583e-07
-6.89974e-07
-4.86921e-07
-7.25394e-07
-4.27267e-07
-7.42249e-07
-3.75388e-07
-7.28589e-07
-6.93379e-07
-3.39566e-07
-1.05718e-06
-5.92231e-07
1.09296e-06
-1.0115e-06
-6.96199e-07
-9.5767e-07
-7.37364e-07
-8.95225e-07
-7.53797e-07
-8.19704e-07
-7.58166e-07
-7.00495e-07
-8.09183e-07
-5.59126e-07
-8.66763e-07
-4.33106e-07
-8.68269e-07
-3.49435e-07
-8.12259e-07
-7.42573e-07
-3.00242e-07
-1.0419e-06
-4.9678e-07
9.46453e-07
-1.04909e-06
-6.8901e-07
-1.02969e-06
-7.56762e-07
-9.92112e-07
-7.91379e-07
-9.28357e-07
-8.21922e-07
-7.97752e-07
-9.39787e-07
-6.01079e-07
-1.06344e-06
-3.93563e-07
-1.07579e-06
-2.41812e-07
-9.6401e-07
-8.05953e-07
-1.78432e-07
-6.14754e-07
-2.21115e-07
3.39088e-07
-8.08488e-07
-4.95276e-07
-8.39361e-07
-7.25889e-07
-8.34994e-07
-7.95745e-07
-8.03478e-07
-8.53438e-07
-7.0801e-07
-1.03526e-06
-5.28824e-07
-1.24262e-06
-2.8264e-07
-1.32197e-06
-8.22298e-08
-1.16442e-06
-8.72582e-07
-1.56015e-08
1.15693e-07
-3.25298e-07
-1.15095e-08
-8.71648e-08
-2.92418e-07
-2.32364e-07
-5.80691e-07
-2.81713e-07
-7.46396e-07
-3.33164e-07
-8.01987e-07
-3.95404e-07
-9.73015e-07
-3.08251e-07
-1.32978e-06
-1.17803e-07
-1.51242e-06
4.93291e-08
-1.33155e-06
-9.06594e-07
8.33414e-08
2.04458e-07
-5.30817e-07
1.06061e-09
2.77518e-07
-3.65476e-07
2.30093e-07
-5.33267e-07
1.64941e-07
-6.81244e-07
7.08274e-08
-7.07874e-07
-5.47535e-08
-8.47434e-07
-1.06392e-07
-1.27814e-06
-5.71412e-08
-1.56167e-06
4.83875e-08
-1.43708e-06
-1.00566e-06
1.47453e-07
6.07877e-08
-6.06488e-07
1.48829e-08
2.09059e-07
-5.13748e-07
2.68029e-07
-5.92237e-07
2.26511e-07
-6.39727e-07
1.67923e-07
-6.49285e-07
8.37608e-08
-7.63272e-07
4.20412e-08
-1.23642e-06
6.11829e-09
-1.52575e-06
5.69981e-08
-1.48796e-06
-1.12932e-06
1.80661e-07
1.32679e-07
-5.97951e-07
-1.41216e-07
2.13652e-07
-5.94723e-07
2.44523e-07
-6.23108e-07
2.24265e-07
-6.19471e-07
1.99517e-07
-6.24537e-07
1.65681e-07
-7.29436e-07
1.36599e-07
-1.20734e-06
9.2338e-08
-1.48149e-06
9.23114e-08
-1.48793e-06
-1.14752e-06
1.10509e-07
3.38203e-07
-4.78099e-07
-4.58056e-07
2.57958e-07
-5.14478e-07
2.25329e-07
-5.9048e-07
2.03896e-07
-5.98038e-07
1.99252e-07
-6.19893e-07
2.06046e-07
-7.3623e-07
2.03381e-07
-1.20467e-06
1.89557e-07
-1.46766e-06
1.16653e-07
-1.41503e-06
-1.01132e-06
-1.95461e-08
3.35969e-07
-3.4117e-07
-4.72899e-07
1.78773e-07
-3.57284e-07
1.31042e-07
-5.42749e-07
1.30794e-07
-5.9779e-07
1.51608e-07
-6.40707e-07
2.10929e-07
-7.95551e-07
2.54524e-07
-1.24827e-06
2.07427e-07
-1.42056e-06
7.18964e-09
-1.21479e-06
-7.63475e-07
-2.40655e-07
3.51634e-11
-2.50066e-07
-9.11386e-08
1.80038e-08
-3.7525e-07
8.58076e-09
-5.33326e-07
2.02761e-08
-6.09485e-07
6.51762e-08
-6.85607e-07
2.0424e-07
-9.34615e-07
2.5952e-07
-1.30355e-06
2.62036e-08
-1.18725e-06
-2.70326e-07
-9.18261e-07
-5.95489e-07
-4.38312e-07
-1.96748e-07
-2.46761e-07
1.93442e-07
-1.52567e-07
-4.19433e-07
-1.32368e-07
-5.53525e-07
-1.21512e-07
-6.20341e-07
-5.75204e-08
-7.49599e-07
1.02877e-07
-1.09501e-06
4.24067e-08
-1.24308e-06
-2.77446e-07
-8.67396e-07
-4.67304e-07
-7.28402e-07
-5.69753e-07
-4.9304e-07
-2.66448e-07
-1.60729e-07
1.80415e-07
-2.59891e-07
-4.25989e-07
-2.81885e-07
-5.31532e-07
-2.91009e-07
-6.11216e-07
-2.34097e-07
-8.0651e-07
-1.9539e-07
-1.13372e-06
-3.36528e-07
-1.10194e-06
-4.98524e-07
-7.054e-07
-5.90218e-07
-6.36708e-07
-6.15142e-07
-5.4483e-07
-3.02501e-07
-1.82843e-08
1.60057e-07
-3.39973e-07
-3.88517e-07
-3.73835e-07
-4.97671e-07
-4.12751e-07
-5.723e-07
-4.22137e-07
-7.97124e-07
-4.669e-07
-1.08896e-06
-4.98426e-07
-1.07041e-06
-5.23714e-07
-6.80112e-07
-5.81332e-07
-5.7909e-07
-6.07497e-07
-5.88977e-07
-3.79464e-07
8.59549e-09
3.52584e-07
-3.65467e-07
-4.02514e-07
-3.52541e-07
-5.10597e-07
-4.0902e-07
-5.1582e-07
-4.97161e-07
-7.08983e-07
-5.62159e-07
-1.02396e-06
-5.27775e-07
-1.10479e-06
-3.43512e-07
-8.64375e-07
-3.53641e-07
-5.6896e-07
-5.10437e-07
-4.50701e-07
-8.42645e-08
-1.09391e-07
2.0225e-07
-1.19446e-07
-3.67334e-07
-1.09332e-07
-5.20711e-07
-1.69275e-07
-4.55877e-07
-3.4342e-07
-5.34839e-07
-5.07979e-07
-8.594e-07
-4.78238e-07
-1.13454e-06
-2.07428e-07
-1.13518e-06
3.32282e-08
-8.09617e-07
-5.17553e-07
4.03447e-08
1.62637e-07
-2.43681e-07
-2.8347e-08
1.3667e-07
-3.41369e-07
1.2762e-07
-5.11661e-07
1.197e-07
-4.47957e-07
2.61552e-08
-4.41294e-07
-1.80021e-07
-6.53223e-07
-2.15531e-07
-1.09903e-06
-8.78571e-08
-1.26286e-06
2.57012e-07
-1.15449e-06
-7.02897e-07
4.42356e-07
1.60337e-07
-3.88532e-07
-1.54842e-08
2.46749e-07
-4.2778e-07
2.35032e-07
-4.99945e-07
2.41339e-07
-4.54264e-07
2.45027e-07
-4.44982e-07
2.22855e-07
-6.31051e-07
2.9207e-07
-1.16824e-06
3.66233e-07
-1.33702e-06
4.72202e-07
-1.26045e-06
-8.45357e-07
6.14661e-07
2.95652e-07
-3.94447e-07
-2.89736e-07
3.24962e-07
-4.5709e-07
2.88556e-07
-4.6354e-07
2.58287e-07
-4.23995e-07
2.73158e-07
-4.59853e-07
4.48157e-07
-8.0605e-07
6.38612e-07
-1.3587e-06
7.66381e-07
-1.46479e-06
8.42358e-07
-1.33643e-06
-6.9432e-07
6.91321e-07
4.01187e-07
-3.28608e-07
-4.67026e-07
3.64657e-07
-4.20558e-07
3.05061e-07
-4.03943e-07
2.33464e-07
-3.52399e-07
2.83063e-07
-5.09452e-07
5.9655e-07
-1.11954e-06
7.46547e-07
-1.50869e-06
8.54221e-07
-1.57246e-06
9.30526e-07
-1.41274e-06
-3.18994e-07
5.55201e-07
4.38262e-07
-2.49905e-07
-5.16965e-07
3.41141e-07
-3.23438e-07
2.44311e-07
-3.07113e-07
1.59848e-07
-2.67936e-07
3.53231e-07
-7.02834e-07
6.44294e-07
-1.4106e-06
7.35385e-07
-1.59978e-06
7.71079e-07
-1.60816e-06
6.65745e-07
-1.3074e-06
4.78381e-08
2.98911e-07
4.44858e-07
-1.33794e-07
-5.60968e-07
3.2582e-07
-2.04401e-07
2.30692e-07
-2.11985e-07
1.73149e-07
-2.10392e-07
3.53303e-07
-8.82988e-07
5.02371e-07
-1.55967e-06
5.87752e-07
-1.68516e-06
6.27236e-07
-1.64764e-06
3.77328e-07
-1.0575e-06
8.84507e-08
3.36718e-07
4.43868e-07
-1.66661e-08
-5.60996e-07
3.49238e-07
-1.09771e-07
2.88313e-07
-1.5106e-07
2.32562e-07
-1.54642e-07
2.4544e-07
-8.95866e-07
2.92453e-07
-1.60668e-06
3.30013e-07
-1.72272e-06
3.42581e-07
-1.6602e-06
8.33248e-08
-7.98252e-07
8.45359e-09
1.63325e-07
4.00788e-07
5.05168e-08
-4.67971e-07
3.51323e-07
-6.03063e-08
3.22201e-07
-1.21938e-07
2.88805e-07
-1.21246e-07
1.77799e-07
-7.8486e-07
1.85e-07
-1.61388e-06
1.13392e-07
-1.65112e-06
-2.08993e-07
-1.33782e-06
-5.76551e-07
-4.30695e-07
-1.61718e-07
-4.0638e-07
4.01113e-07
1.05116e-07
-4.55712e-07
3.47103e-07
-6.29662e-09
3.27689e-07
-1.02524e-07
3.14746e-07
-1.08302e-07
3.66776e-07
-8.36888e-07
3.77664e-07
-1.62478e-06
2.72564e-07
-1.54601e-06
-1.20973e-07
-9.44286e-07
-3.48316e-07
-2.03351e-07
-2.22344e-07
-2.8769e-07
4.7917e-07
1.13701e-07
-4.87756e-07
4.15736e-07
5.71377e-08
3.2855e-07
-1.53379e-08
2.18149e-07
2.09836e-09
6.43315e-07
-1.26205e-06
5.89397e-07
-1.57086e-06
5.44009e-07
-1.50062e-06
4.45859e-07
-8.4614e-07
3.3193e-07
-8.9423e-08
-1.4971e-07
2.59297e-07
4.69186e-07
1.21072e-07
-4.76557e-07
4.0611e-07
1.20214e-07
2.27636e-07
1.63137e-07
1.22886e-07
1.06848e-07
2.84738e-07
-1.42391e-06
2.40324e-07
-1.52645e-06
2.27048e-07
-1.48734e-06
1.60891e-07
-7.79987e-07
3.1884e-07
-2.47369e-07
-1.24345e-07
2.93476e-07
3.4638e-07
1.47569e-07
-3.72877e-07
2.83935e-07
1.82658e-07
1.36971e-07
3.10101e-07
-1.70636e-08
2.60884e-07
6.18902e-08
-1.50286e-06
4.42956e-08
-1.50885e-06
5.9156e-08
-1.5022e-06
-2.17632e-08
-6.9907e-07
6.97586e-08
-3.38889e-07
-1.62355e-07
1.0777e-07
2.04022e-07
1.59641e-07
-2.16095e-07
8.89169e-08
2.97765e-07
-3.65047e-07
7.64064e-07
5.69329e-08
-1.61096e-07
5.87281e-08
-1.50466e-06
6.17518e-08
-1.51187e-06
4.87804e-08
-1.48923e-06
1.74845e-09
-6.52035e-07
5.86469e-09
-3.43004e-07
-1.58086e-07
1.59631e-09
-5.25775e-07
4.13308e-07
2.72108e-07
-9.60611e-07
7.32601e-07
-1.0124e-06
8.15853e-07
1.51936e-08
-1.18869e-06
8.20071e-09
-1.49766e-06
8.65107e-11
-1.50376e-06
-2.8542e-09
-1.48629e-06
-8.24827e-09
-6.4664e-07
-8.62494e-09
-3.42628e-07
-1.49803e-07
-1.6909e-08
-8.49917e-07
4.86466e-07
7.76759e-07
-7.16064e-07
5.98749e-07
-3.20763e-07
4.20553e-07
-2.40968e-08
-1.48536e-06
-1.41564e-08
-1.5076e-06
-2.14539e-08
-1.49646e-06
-2.40913e-08
-1.48365e-06
7.07116e-09
-6.77805e-07
2.61564e-08
-3.61712e-07
-1.85604e-07
6.19588e-08
-6.60278e-07
5.08566e-07
6.38178e-07
-4.91847e-07
4.3032e-07
4.34006e-08
-1.14695e-07
4.25824e-08
-1.48454e-06
3.34678e-08
-1.49849e-06
3.92688e-08
-1.50226e-06
3.06542e-08
-1.47504e-06
3.76067e-08
-6.8476e-07
4.61728e-08
-3.70276e-07
-2.33466e-07
9.40347e-08
-6.97352e-07
3.44344e-07
8.61573e-07
-3.75979e-07
1.08947e-07
3.21083e-08
-5.22779e-07
2.0623e-08
-1.47305e-06
1.68332e-08
-1.4947e-06
1.21876e-08
-1.49762e-06
7.55878e-09
-1.47041e-06
3.91457e-08
-7.16346e-07
3.97956e-08
-3.70926e-07
-2.82784e-07
8.91132e-08
-4.24231e-07
9.62915e-08
6.72283e-07
-1.32129e-07
-1.83169e-07
1.88577e-08
-6.73768e-07
1.17391e-08
-1.46594e-06
7.37819e-09
-1.49034e-06
4.14543e-09
-1.49439e-06
-1.75026e-09
-1.46451e-06
5.80904e-08
-7.76187e-07
8.53311e-08
-3.98168e-07
-2.85151e-07
8.76998e-08
-9.24448e-08
-3.95046e-08
2.28239e-07
-2.60517e-08
-2.49551e-07
-4.53318e-09
-6.9528e-07
-1.47435e-08
-1.45573e-06
-1.45656e-08
-1.49052e-06
-2.31295e-08
-1.48582e-06
-2.75553e-08
-1.46009e-06
1.50645e-08
-8.18806e-07
7.21989e-08
-4.55302e-07
-2.8035e-07
6.74007e-08
-8.67703e-09
-1.04486e-07
7.36597e-08
3.10609e-08
-2.89291e-07
2.56126e-08
-6.8983e-07
1.35954e-08
-1.44371e-06
2.15692e-09
-1.47908e-06
-5.62319e-10
-1.4831e-06
-9.27677e-09
-1.45137e-06
-2.55819e-08
-8.02499e-07
1.41694e-08
-4.95056e-07
-2.94582e-07
2.84009e-08
3.62857e-08
-1.59729e-07
1.89602e-08
8.89029e-08
-3.41912e-07
3.86488e-08
-6.39574e-07
1.64791e-09
-1.4067e-06
-7.50103e-09
-1.46993e-06
-2.25554e-08
-1.46805e-06
-4.31834e-08
-1.43075e-06
-7.94863e-08
-7.66197e-07
-4.66531e-08
-5.2789e-07
-3.15474e-07
-2.57634e-08
1.06487e-07
-2.16899e-07
-4.93172e-08
1.38238e-07
-3.73662e-07
7.34099e-08
-5.74746e-07
1.64125e-08
-1.34971e-06
-3.04629e-10
-1.45321e-06
-1.48013e-08
-1.45355e-06
-5.80298e-08
-1.38752e-06
-1.47745e-07
-6.76481e-07
-1.74847e-07
-5.00788e-07
-3.41634e-07
-1.48686e-07
2.16587e-07
-2.89035e-07
-1.44451e-07
1.84271e-07
-3.41346e-07
7.8605e-08
-4.69077e-07
1.85346e-08
-1.28964e-06
-1.57956e-09
-1.4331e-06
-2.13297e-08
-1.4338e-06
-8.22826e-08
-1.32657e-06
-1.77042e-07
-5.81723e-07
-2.19056e-07
-4.58773e-07
-3.92099e-07
-1.68592e-07
2.30896e-07
-3.27944e-07
-1.91987e-07
1.97126e-07
-3.0757e-07
7.97671e-08
-3.51718e-07
1.87965e-08
-1.22867e-06
-3.78343e-09
-1.41052e-06
-2.62008e-08
-1.41138e-06
-6.22682e-08
-1.2905e-06
-1.2429e-07
-5.19701e-07
-1.58236e-07
-4.24827e-07
-4.16451e-07
-1.33884e-07
1.62973e-07
-3.21017e-07
-1.69898e-07
1.01878e-07
-2.46474e-07
4.54466e-08
-2.9529e-07
1.97337e-08
-1.20295e-06
-4.96896e-09
-1.38582e-06
-2.95545e-08
-1.3868e-06
-5.05538e-08
-1.2695e-06
-9.00603e-08
-4.80196e-07
-1.31834e-07
-3.83052e-07
-4.13829e-07
-1.34455e-07
9.16952e-08
-2.75354e-07
-1.37357e-07
9.57179e-09
-1.64347e-07
2.77573e-08
-3.13477e-07
1.99593e-08
-1.19515e-06
-3.66721e-09
-1.36219e-06
-2.75225e-08
-1.36294e-06
-3.30704e-08
-1.26395e-06
-5.72326e-08
-4.56036e-07
-1.06603e-07
-3.33682e-07
-3.98067e-07
-1.22365e-07
-8.03323e-08
-1.49728e-07
-4.52932e-08
-1.71066e-07
-7.36131e-08
-3.31934e-08
-4.51354e-07
1.6014e-08
-1.24435e-06
-2.74571e-09
-1.34343e-06
-2.46199e-08
-1.34107e-06
-1.50635e-08
-1.27351e-06
-2.20886e-08
-4.49012e-07
-7.74164e-08
-2.78356e-07
-3.65483e-07
-1.10001e-07
-2.47525e-07
-6.2793e-08
1.60591e-07
-1.84157e-07
-1.36988e-07
-3.23776e-08
-6.03137e-07
1.65758e-08
-1.29329e-06
-2.43951e-09
-1.32442e-06
-1.6826e-08
-1.32668e-06
-8.72401e-10
-1.28946e-06
2.12464e-08
-4.7113e-07
-2.21594e-08
-2.34952e-07
-3.20001e-07
-6.76412e-08
-1.89946e-07
-1.49036e-07
2.7619e-07
-3.64071e-08
-2.90525e-07
-7.83009e-09
-6.31713e-07
9.95104e-09
-1.31108e-06
-1.99035e-09
-1.31248e-06
-1.47468e-08
-1.31393e-06
5.42823e-09
-1.30964e-06
6.23726e-08
-5.28074e-07
4.31845e-08
-2.15763e-07
-2.38531e-07
-3.82843e-08
-1.76938e-08
-2.1639e-07
8.50461e-08
3.01219e-08
-3.38334e-07
1.16102e-08
-6.13198e-07
9.80858e-09
-1.30927e-06
2.92649e-10
-1.30296e-06
-1.28691e-08
-1.30076e-06
-1.09675e-08
-1.31154e-06
1.69329e-08
-5.55975e-07
-2.51058e-08
-1.73723e-07
-1.69418e-07
-9.42179e-08
2.93841e-08
-2.17315e-07
-2.84585e-08
2.0861e-08
-3.29818e-07
1.88448e-08
-6.11186e-07
8.53334e-09
-1.29897e-06
3.3389e-09
-1.29777e-06
-7.89045e-09
-1.28953e-06
-1.93249e-08
-1.30011e-06
1.5452e-08
-5.9075e-07
4.26935e-09
-1.6254e-07
-1.32568e-07
-3.25831e-08
1.09441e-07
-2.82216e-07
-4.45407e-08
3.20295e-08
-2.52403e-07
6.53644e-08
-6.44519e-07
5.88659e-08
-1.29246e-06
4.54663e-08
-1.28437e-06
4.37177e-08
-1.28779e-06
3.08793e-08
-1.28727e-06
1.47359e-08
-5.74606e-07
-7.05357e-08
-7.72686e-08
-5.31109e-08
-1.49993e-07
4.46811e-08
-3.41324e-07
1.44252e-08
-4.86875e-09
-2.02858e-07
5.70649e-08
-7.06456e-07
4.0616e-08
-1.27602e-06
3.09644e-08
-1.27472e-06
2.75589e-08
-1.28438e-06
1.65432e-08
-1.27625e-06
2.57427e-08
-5.83808e-07
-7.60861e-09
-4.3915e-08
2.23005e-08
-8.30178e-08
-1.03693e-07
-3.16137e-07
7.8507e-08
-5.32602e-08
-2.53275e-07
1.09357e-08
-7.70647e-07
3.08593e-09
-1.26817e-06
-2.43642e-10
-1.27139e-06
-1.65442e-08
-1.26808e-06
-2.51586e-08
-1.26764e-06
4.02276e-09
-6.1299e-07
-2.05643e-08
-1.93248e-08
8.47262e-08
-8.29886e-08
-1.1787e-07
-2.6114e-07
6.28732e-08
1.07434e-08
-3.81891e-07
2.85553e-08
-7.88462e-07
1.9849e-08
-1.25945e-06
7.07166e-09
-1.25861e-06
-4.20651e-09
-1.2568e-06
-1.73414e-08
-1.2545e-06
-1.29125e-08
-6.17416e-07
-1.00952e-07
6.87155e-08
1.42688e-07
-1.58913e-07
8.28347e-08
-2.49119e-07
-9.48552e-08
8.04907e-08
-3.79554e-07
4.21903e-08
-7.5016e-07
2.66369e-08
-1.24391e-06
1.09033e-08
-1.24288e-06
-3.24512e-09
-1.24265e-06
-1.78208e-08
-1.23993e-06
-3.18731e-08
-6.03363e-07
-1.50478e-07
1.87321e-07
2.03707e-07
-2.11497e-07
1.54588e-07
-2.54094e-07
-1.49613e-07
1.0444e-07
-3.29393e-07
4.87061e-08
-6.9442e-07
2.96908e-08
-1.22489e-06
1.31118e-08
-1.2263e-06
-3.51106e-09
-1.22603e-06
-2.20885e-08
-1.22135e-06
-2.27342e-08
-6.02719e-07
-9.90553e-08
2.63643e-07
2.93821e-07
-1.89167e-07
1.01731e-07
-2.402e-07
-1.15624e-07
6.70891e-08
-2.94749e-07
4.32312e-08
-6.70562e-07
2.72659e-08
-1.20892e-06
8.99093e-09
-1.20802e-06
-1.01915e-08
-1.20685e-06
-2.59556e-08
-1.20558e-06
2.20054e-09
-6.30873e-07
4.09264e-08
2.2492e-07
3.84537e-07
-4.97872e-08
1.11559e-07
-2.64074e-07
-8.76842e-08
7.92145e-08
-2.62407e-07
4.73131e-08
-6.38663e-07
3.53642e-08
-1.19698e-06
1.48274e-08
-1.18749e-06
-3.48165e-09
-1.18854e-06
-1.36525e-08
-1.19541e-06
4.59904e-09
-6.49122e-07
1.01507e-07
1.28015e-07
4.12397e-07
7.36476e-08
6.24743e-08
-3.00435e-07
-2.61116e-08
2.4006e-08
-2.23934e-07
3.569e-08
-6.5034e-07
2.24071e-08
-1.18369e-06
2.66257e-09
-1.16774e-06
-1.65533e-08
-1.16932e-06
-2.85628e-08
-1.1834e-06
-2.12284e-08
-6.56454e-07
5.04496e-08
5.63388e-08
3.96422e-07
6.64257e-08
4.78414e-08
-3.09161e-07
-3.91153e-08
2.05841e-08
-1.96686e-07
3.21404e-08
-6.61905e-07
1.24096e-08
-1.16396e-06
-6.83555e-09
-1.1485e-06
-2.73942e-08
-1.14876e-06
-4.67246e-08
-1.16407e-06
-4.52814e-08
-6.57897e-07
-1.71592e-09
1.27732e-08
3.63712e-07
3.09941e-08
-2.21252e-09
-2.44906e-07
-6.20423e-08
2.38613e-08
-2.22749e-07
3.65425e-08
-6.74582e-07
1.70437e-08
-1.14446e-06
-1.39203e-09
-1.13006e-06
-2.07711e-08
-1.12939e-06
-4.05638e-08
-1.14428e-06
-4.67581e-08
-6.51703e-07
-8.58124e-09
-2.54034e-08
3.22286e-07
3.28457e-08
-6.73616e-08
-1.62507e-07
-1.50387e-08
8.66913e-09
-2.98774e-07
2.91517e-08
-6.95066e-07
1.46137e-08
-1.12992e-06
-2.63929e-09
-1.11281e-06
-1.87854e-08
-1.11324e-06
-3.35995e-08
-1.12947e-06
-2.93457e-08
-6.55957e-07
-5.52955e-09
-4.92178e-08
2.68098e-07
4.86598e-08
7.08912e-08
-1.01194e-07
-1.32202e-07
3.53153e-08
-2.63194e-07
2.88369e-08
-6.88584e-07
1.37209e-08
-1.11481e-06
-1.35557e-09
-1.09773e-06
-1.74618e-08
-1.09713e-06
-3.26822e-08
-1.11425e-06
-2.7483e-08
-6.61155e-07
-1.18153e-08
-6.4884e-08
2.08003e-07
4.828e-08
1.80254e-07
-1.05953e-07
-1.75494e-07
7.99286e-08
-1.62873e-07
3.46707e-08
-6.43328e-07
1.67889e-08
-1.09693e-06
-2.34937e-09
-1.07859e-06
-1.97634e-08
-1.07972e-06
-3.54991e-08
-1.09851e-06
-2.31398e-08
-6.73514e-07
-8.93695e-09
-7.9087e-08
1.67005e-07
3.20605e-08
7.19128e-08
-9.20044e-08
-8.58613e-08
2.85623e-08
-1.19518e-07
3.44192e-08
-6.49183e-07
1.6873e-08
-1.07938e-06
-1.273e-09
-1.06045e-06
-2.01215e-08
-1.06087e-06
-3.76464e-08
-1.08099e-06
-3.36371e-08
-6.77523e-07
-2.86634e-08
-8.40605e-08
1.43937e-07
-5.59522e-09
8.27446e-08
-8.77001e-08
-8.70479e-08
3.88036e-08
-7.55735e-08
3.38333e-08
-6.44211e-07
1.73819e-08
-1.06293e-06
-1.39085e-09
-1.04167e-06
-1.99015e-08
-1.04236e-06
-3.64634e-08
-1.06442e-06
-4.17899e-08
-6.72197e-07
-6.7825e-08
-5.80245e-08
1.15024e-07
-3.89102e-08
7.00676e-08
-6.01457e-08
-9.76212e-08
2.93997e-08
-3.49069e-08
3.68075e-08
-6.5162e-07
1.9318e-08
-1.04544e-06
-4.17576e-10
-1.02194e-06
-1.96946e-08
-1.02308e-06
-3.64699e-08
-1.04765e-06
-3.13096e-08
-6.77357e-07
-5.48793e-08
-3.44532e-08
1.15294e-07
-5.51478e-08
-8.01468e-08
-2.50328e-08
4.50341e-08
-1.8348e-08
-9.67051e-08
3.6764e-08
-7.06734e-07
1.90443e-08
-1.02772e-06
-1.51235e-09
-1.00138e-06
-2.23206e-08
-1.00227e-06
-4.11894e-08
-1.02878e-06
-3.81992e-08
-6.80346e-07
-4.71601e-08
-2.54908e-08
1.36871e-07
-6.87355e-08
-3.69971e-08
-2.55067e-08
3.74698e-08
1.66168e-08
-1.50319e-07
3.73977e-08
-7.27517e-07
1.93543e-08
-1.00968e-06
-9.09107e-10
-9.81119e-07
-2.10268e-08
-9.82157e-07
-3.95234e-08
-1.01028e-06
-2.69246e-08
-6.92943e-07
3.85374e-09
-5.62679e-08
1.61283e-07
-2.05581e-08
1.57263e-08
-2.688e-08
-1.43544e-08
3.02144e-08
-1.64805e-07
3.81591e-08
-7.35461e-07
1.87002e-08
-9.90218e-07
-4.19481e-10
-9.62e-07
-2.03605e-08
-9.62216e-07
-3.97181e-08
-9.90925e-07
-2.1642e-08
-7.11019e-07
3.12019e-08
-1.09111e-07
1.22997e-07
6.94888e-08
4.00486e-08
-1.17481e-08
-5.51807e-08
3.66228e-08
-1.61378e-07
3.77833e-08
-7.36621e-07
1.75811e-08
-9.70015e-07
-7.85657e-10
-9.43633e-07
-1.92602e-08
-9.43741e-07
-3.97398e-08
-9.70446e-07
-3.43629e-08
-7.16396e-07
-7.35291e-09
-1.36119e-07
5.84692e-08
5.71764e-08
5.08373e-08
4.28569e-09
-6.68698e-08
4.3248e-08
-1.53791e-07
3.93461e-08
-7.32721e-07
1.80373e-08
-9.48707e-07
-2.60513e-10
-9.25335e-07
-1.8288e-08
-9.25714e-07
-3.98359e-08
-9.48898e-07
-4.28954e-08
-7.13336e-07
-3.97969e-08
-1.39216e-07
1.81028e-08
5.70646e-10
5.6625e-08
1.53986e-08
-6.77375e-08
4.90054e-08
-1.46174e-07
3.94037e-08
-7.2312e-07
1.8032e-08
-9.27336e-07
-7.452e-10
-9.06558e-07
-1.91728e-08
-9.07286e-07
-4.06259e-08
-9.27444e-07
-4.71326e-08
-7.06828e-07
-4.51168e-08
-1.4123e-07
3.52145e-09
-3.05341e-08
5.35802e-08
1.50658e-08
-5.32494e-08
5.15651e-08
-1.44157e-07
3.83399e-08
-7.09894e-07
1.76162e-08
-9.06612e-07
-9.14913e-10
-8.88027e-07
-1.97063e-08
-8.88495e-07
-4.06682e-08
-9.06483e-07
-5.07696e-08
-6.96726e-07
-4.49996e-08
-1.46998e-07
-8.30416e-09
-3.31723e-08
5.61778e-08
6.39365e-09
-4.75062e-08
5.62974e-08
-1.44275e-07
4.11701e-08
-6.94765e-07
1.99868e-08
-8.85429e-07
-1.16035e-09
-8.6688e-07
-2.21718e-08
-8.67483e-07
-4.3293e-08
-8.85361e-07
-5.44971e-08
-6.85521e-07
-4.40672e-08
-1.57426e-07
-2.12636e-08
-3.11058e-08
5.49446e-08
-4.35292e-09
-4.41962e-08
5.82109e-08
-1.47541e-07
4.27366e-08
-6.79291e-07
2.13317e-08
-8.64024e-07
-4.19503e-10
-8.45128e-07
-2.29863e-08
-8.44917e-07
-4.40759e-08
-8.64272e-07
-5.58766e-08
-6.73719e-07
-4.15464e-08
-1.71754e-07
-4.31944e-08
-1.96137e-08
5.9148e-08
-1.45754e-08
-4.89247e-08
6.34423e-08
-1.51838e-07
4.56283e-08
-6.61477e-07
2.39964e-08
-8.42392e-07
-6.25479e-10
-8.20506e-07
-2.42269e-08
-8.21315e-07
-4.53893e-08
-8.43109e-07
-5.70408e-08
-6.62066e-07
-4.50525e-08
-1.8374e-07
-7.40778e-08
-1.41678e-08
6.84623e-08
-1.79519e-08
-6.5087e-08
6.14173e-08
-1.44793e-07
4.73588e-08
-6.47418e-07
2.41931e-08
-8.19225e-07
-9.04535e-10
-7.95409e-07
-2.48555e-08
-7.97364e-07
-4.75196e-08
-8.20445e-07
-5.50357e-08
-6.54549e-07
-3.9995e-08
-1.9878e-07
-9.77669e-08
-1.63054e-08
8.43404e-08
-1.40166e-08
-8.8276e-08
5.97749e-08
-1.20223e-07
4.99474e-08
-6.3759e-07
2.54072e-08
-7.94684e-07
-1.16344e-09
-7.68838e-07
-2.66933e-08
-7.71834e-07
-5.05792e-08
-7.96559e-07
-5.98759e-08
-6.45252e-07
-4.89559e-08
-2.097e-07
-1.1754e-07
-2.91831e-08
1.01923e-07
-1.73323e-08
-9.86054e-08
7.84606e-08
-9.67566e-08
4.89777e-08
-6.08107e-07
2.22503e-08
-7.67957e-07
-1.10681e-09
-7.45481e-07
-2.60944e-08
-7.46847e-07
-5.1748e-08
-7.70906e-07
-6.32814e-08
-6.33718e-07
-5.57483e-08
-2.17233e-07
-1.37007e-07
-3.62815e-08
3.955e-08
-1.83239e-08
-3.85573e-08
5.54988e-08
-1.12709e-07
5.10144e-08
-6.03625e-07
2.37413e-08
-7.40686e-07
-1.0319e-09
-7.20708e-07
-2.75642e-08
-7.20314e-07
-5.42528e-08
-7.44217e-07
-6.79016e-08
-6.2007e-07
-6.55347e-08
-2.196e-07
-1.48925e-07
-5.3616e-08
5.80573e-08
-3.6654e-08
-3.97286e-08
7.01571e-08
-1.24819e-07
5.09242e-08
-5.84395e-07
2.32558e-08
-7.13018e-07
-1.23142e-09
-6.96221e-07
-2.50681e-08
-6.96478e-07
-5.24664e-08
-7.16819e-07
-7.31843e-08
-5.99352e-07
-8.17237e-08
-2.11061e-07
-1.46673e-07
-8.39765e-08
5.87785e-08
-7.11252e-08
-2.4311e-08
6.77179e-08
-1.33766e-07
5.42348e-08
-5.70914e-07
2.63442e-08
-6.85128e-07
-2.61443e-09
-6.67262e-07
-2.70763e-08
-6.72016e-07
-5.54561e-08
-6.88439e-07
-7.99578e-08
-5.7485e-07
-9.14703e-08
-1.99549e-07
-1.37353e-07
-1.0079e-07
6.73892e-08
-1.05986e-07
-3.25306e-08
6.73155e-08
-1.33692e-07
5.436e-08
-5.57958e-07
2.66284e-08
-6.57397e-07
-4.33758e-10
-6.402e-07
-2.7029e-08
-6.45421e-07
-5.48139e-08
-6.60654e-07
-8.61773e-08
-5.43487e-07
-9.3555e-08
-1.92172e-07
-1.26146e-07
-1.04763e-07
6.92472e-08
-1.0338e-07
-7.18534e-08
7.25863e-08
-1.3703e-07
5.81529e-08
-5.43527e-07
2.84991e-08
-6.27744e-07
6.56497e-09
-6.18266e-07
-2.86239e-08
-6.10232e-07
-6.15794e-08
-6.27699e-07
-8.61972e-08
-5.1887e-07
-8.81903e-08
-1.90181e-07
-1.12923e-07
-1.01414e-07
5.0441e-08
-4.75236e-08
-1.06297e-07
6.33599e-08
-1.49954e-07
6.47348e-08
-5.44904e-07
3.52735e-08
-5.98284e-07
8.72095e-09
-5.91713e-07
-1.95523e-08
-5.81959e-07
-5.33024e-08
-5.93949e-07
-5.41676e-08
-5.18006e-07
-5.26311e-08
-1.91718e-07
-8.0171e-08
-8.53839e-08
5.54806e-08
1.7246e-09
-1.04731e-07
3.29186e-08
-1.27401e-07
5.12492e-08
-5.63238e-07
1.75091e-08
-5.64544e-07
-2.34624e-08
-5.50742e-07
-3.78437e-08
-5.67577e-07
-7.30684e-08
-5.58724e-07
-4.40593e-08
-5.47015e-07
-3.43066e-08
-2.01471e-07
-3.40913e-08
-8.0386e-08
7.32166e-08
4.06248e-08
-1.12121e-07
5.66226e-08
-1.10814e-07
1.1216e-08
-5.17831e-07
-2.88651e-08
-5.24463e-07
-4.88042e-08
-5.30803e-07
-9.41029e-08
-5.22279e-07
-1.17115e-07
-5.35711e-07
-1.32931e-07
-5.31199e-07
-1.0901e-07
-2.25392e-07
-1.7268e-08
-1.25833e-07
7.74174e-08
7.52857e-08
-1.12081e-07
1.01949e-07
-1.35345e-07
7.65362e-08
-4.92417e-07
4.54112e-08
-4.93338e-07
1.02062e-08
-4.95597e-07
-2.16187e-08
-4.90454e-07
-6.79379e-08
-4.89392e-07
-1.16698e-07
-4.82439e-07
-1.07939e-07
-2.3415e-07
5.47032e-09
-1.30677e-07
9.14524e-08
9.49697e-08
-1.11136e-07
1.30038e-07
-1.73922e-07
7.38886e-08
-4.36266e-07
2.53091e-08
-4.44758e-07
-2.02831e-08
-4.50005e-07
-5.92924e-08
-4.51444e-07
-9.26582e-08
-4.56026e-07
-1.32053e-07
-4.43044e-07
-1.41929e-07
-2.24274e-07
1.29122e-08
-1.49371e-07
1.19828e-07
9.21416e-08
-1.16997e-07
1.56424e-07
-2.10511e-07
1.07952e-07
-3.87794e-07
6.93673e-08
-4.06174e-07
2.90539e-08
-4.09692e-07
-1.18683e-08
-4.10522e-07
-6.87739e-08
-3.99121e-07
-1.25393e-07
-3.86425e-07
-1.17181e-07
-2.32486e-07
2.56278e-09
-1.06832e-07
6.02414e-08
5.40016e-08
-2.20981e-08
1.30932e-07
-2.81204e-07
8.16842e-08
-3.38546e-07
2.4785e-08
-3.49275e-07
-2.28995e-08
-3.62007e-07
-6.67386e-08
-3.66683e-07
-1.01573e-07
-3.64286e-07
-1.38729e-07
-3.49268e-07
-7.00615e-08
-3.01154e-07
-3.70608e-08
-3.04384e-08
1.55397e-07
-4.07522e-08
-6.06432e-08
1.53273e-07
-2.79085e-07
1.13484e-07
-2.98757e-07