/*--------------------------------*- C++ -*----------------------------------*\
  =========                 |
  \\      /  F ield         | OpenFOAM: The Open Source CFD Toolbox
   \\    /   O peration     | Website:  https://openfoam.org
    \\  /    A nd           | Version:  8
     \\/     M anipulation  |
\*---------------------------------------------------------------------------*/
FoamFile
{
    version     2.0;
    format      ascii;
    class       volScalarField;
    location    "5.7";
    object      p_rgh;
}
// * * * * * * * * * * * * * * * * * * * * * * * * * * * * * * * * * * * * * //

dimensions      [1 -1 -2 0 0 0 0];

internalField   nonuniform List<scalar> 
9150
(
1963.59
1962.58
1961.96
1961.49
1961.26
1961.25
1961.48
1961.96
1962.59
1963.6
1963.15
1962.64
1962.22
1961.89
1961.71
1961.73
1961.9
1962.22
1962.65
1963.16
1962.88
1962.6
1962.35
1962.13
1962.01
1962.02
1962.13
1962.35
1962.61
1962.89
1962.77
1962.59
1962.42
1962.27
1962.19
1962.18
1962.26
1962.42
1962.59
1962.77
1962.76
1962.59
1962.45
1962.32
1962.26
1962.26
1962.32
1962.45
1962.59
1962.76
1951.7
1950.96
1951.28
1951.67
1951.86
1951.87
1951.68
1951.29
1950.95
1951.7
1955.84
1955.12
1954.96
1954.91
1955.02
1955.04
1954.94
1955.01
1955.15
1955.87
1958.99
1958.23
1957.92
1957.57
1957.5
1957.5
1957.57
1957.94
1958.24
1958.99
1961.73
1960.58
1960.11
1959.49
1959.31
1959.3
1959.48
1960.09
1960.56
1961.72
1964.25
1962.22
1961.45
1960.76
1960.5
1960.5
1960.79
1961.46
1962.23
1964.26
1947.57
1945.83
1943.7
1942.66
1942.2
1942.25
1942.85
1943.91
1945.67
1947.2
1946.57
1946.24
1945.22
1944.79
1944.28
1944.22
1944.66
1944.98
1946
1946.31
1945.91
1946.05
1944.98
1945.28
1944.85
1944.85
1945.34
1944.88
1945.92
1945.76
1942.68
1945.53
1944.59
1946.05
1945.9
1945.86
1945.96
1944.45
1945.43
1942.55
1936.89
1946.22
1946.79
1948.08
1948.5
1948.46
1948.04
1946.7
1946.15
1936.76
1131.9
1132.29
1132.52
1132.8
1133
1133.23
1133.46
1133.79
1133.97
1134.04
1131.48
1131.75
1132.46
1132.73
1132.83
1133.08
1133.4
1133.72
1134.04
1134.33
1131.07
1132.28
1133.27
1133.11
1132.78
1132.75
1132.9
1133.17
1133.22
1133.45
1128.7
1131.14
1132.92
1132.03
1132.26
1132.31
1132.63
1131.33
1132.09
1132.28
1117.79
1124.88
1134.4
1124.58
1128.86
1125.85
1128.63
1129.98
1131.96
1133.21
1108.26
1110.1
1112.52
1112.12
1113.29
1113.88
1112.98
1124.49
1133.85
1134.35
1109.81
1111.11
1110.98
1112.01
1112.93
1119.42
1132.68
1136.23
1136.12
1135.63
1119.1
1120.27
1124.34
1132.9
1138.18
1140.11
1139.66
1138.19
1137.45
1137.39
1137.92
1139.71
1140.98
1141.39
1141.26
1140.81
1140.08
1138.44
1138.57
1138.78
1138.63
1139.74
1140.51
1140.85
1141.06
1140.99
1140.02
1137.19
1132.51
1132.26
1138.62
1139.37
1140.11
1140.68
1140.98
1137.69
1131.43
1132.03
1132.72
1133.13
1127.09
1131.79
1139.83
1140.69
1140.72
1139.93
1138.47
1134.23
1133.58
1142.29
1127.33
1121.73
1121.44
1121.5
1121.67
1121.7
1134.06
1144.31
1142.43
1142.74
1127.11
1119.08
1119.39
1119.94
1120.63
1120.63
1136.63
1145.2
1146.67
1147.83
1114.45
1113.06
1113.08
1119.8
1134.32
1136.73
1133.27
1140.6
1147.83
1149.72
1126.26
1126.38
1127.28
1128.93
1131.24
1120.12
1121.36
1129.55
1147.97
1150.94
1103.99
1113.59
1116.03
1117.81
1110.69
1102.68
1114.47
1137.2
1145.73
1150.82
1051.67
1065.8
1095.01
1096.31
1081.41
1089.37
1119.24
1130.58
1125.71
1139.86
1051.14
1041.24
1040.98
1042.93
1086.35
1105.54
1113.83
1108.47
1113.42
1123.16
1054.28
1051.85
1052.69
1095.7
1106.89
1110.37
1099.92
1105.16
1110.38
1135.47
1076.94
1121.99
1125.4
1116.56
1103.3
1104.85
1106.53
1111.27
1132.21
1133.8
1136.86
1135.31
1134.05
1130.33
1111.32
1111.66
1132.27
1133.23
1132.99
1133.29
1142.7
1140.84
1139.15
1137.54
1135.34
1134.9
1135.56
1135.14
1134.84
1096.63
1147.53
1146.38
1144.98
1143.65
1142.88
1142.26
1141.03
1094.18
1005.09
1000.68
1153
1152.14
1151.21
1150.41
1150.06
1149.82
1147.22
1054.32
1004.64
1005.15
1157.21
1157.47
1156.82
1156.16
1155.78
1155.89
1156.34
1150.83
1112.27
1056.37
1161.85
1162.03
1161.72
1160.72
1159.81
1159.21
1157.69
1146.79
1138.55
1151.28
1167.81
1167.1
1166.41
1165.36
1163.74
1161.78
1160.57
1158.45
1115.16
1110.39
1066.36
1171.63
1171.58
1170.66
1169.01
1167.31
1166.39
1166.1
1160.95
1117.73
800.352
1039.71
1166.28
1177.22
1172.71
1146.69
1122.8
1120.84
1120.38
1114.38
1043.78
1027.18
1064.21
1135.87
1172.2
1174.58
1155.55
1157.19
1168.92
1171.03
1188.46
1181.8
1167.72
1152.85
1159.8
1181.71
1181.88
1182.7
1183.37
1182.64
1192.49
1192.62
1192.86
1192.55
1173.25
1143.29
1142.48
1145.42
1157.53
1144.36
1105.02
1169.11
1195.67
1196.9
1190.18
1150.19
1130.07
1114.06
1081.97
1048.44
1095.7
1119.1
1194.27
1202.51
1204.03
1175.21
1172.47
1194.72
1167.68
1066.14
1094.14
1097
1143.89
1207.78
1211.89
1208.53
1211.59
1213.79
1213.61
1210.42
1092.67
1096.2
1102.62
1159.64
1199.42
1210.64
1185.03
1181.82
1204.3
1212.81
1090.48
1180.38
1185.15
1189.26
1191.86
1162.99
1140.67
1147.54
1167.59
1167.75
1040.19
1141.55
1180.07
1182.94
1184.84
1175.91
1125.6
1125.23
1128.63
1121.8
1010.21
1136.18
1167.86
1173.35
1176.71
1171.3
1153.87
1103.93
992
857.356
997.34
1002.16
1009.52
1119.69
1141.63
1137.24
1051.01
804.324
602.572
581.42
981.83
997.024
1048.55
1103.58
1140.82
1109.99
715.182
602.749
587.75
582.279
1057.98
1107.09
1111.77
1117.01
1118.58
1067.33
654.314
601.44
680.347
970.11
1042.9
1059.39
1069.05
1074.95
1080.41
1083.61
949.931
696.669
1056.5
1134.31
935.025
1016.8
1033.62
1040.97
1048.23
1062.86
1076.85
1093.34
1104.13
1133.93
366.631
873.426
989.302
1003.31
1021.62
1017.19
1060.7
1076.01
1091.37
1122.04
267.827
462.455
869.409
818.2
731.234
868.5
1046.65
1064.38
1037.09
884.286
270.355
379.658
864.355
771.165
525.79
755.827
1044.96
1062.39
1026.1
781.672
272.987
638.153
945.503
607.597
515.288
554.338
890.47
1055.49
1043.7
1025.22
346.181
941.14
996.45
525.762
514.05
517.341
564.755
973.39
1057.27
1067.81
393.759
973.091
1081.61
729.547
520.173
523.278
526.488
836.444
1073.83
1079.38
415.957
1028.26
1103.61
1076.52
638.212
535.306
536.512
863.148
1092.94
1100.57
700.458
1112.85
1121.52
1125.36
963.117
560.593
561.389
1034.45
1104.73
1114.21
1136.31
1142.17
1147.07
1152.46
1039.81
607.956
838.791
1116.9
1117.4
1054
1164.78
1171.38
1176.94
1183.98
940.544
652.891
1034.21
1137.26
1138.61
715.276
1191.09
1198.12
1203.81
1033.07
772.646
863.66
1161.26
1153.83
1140.52
611.729
1137.21
1219.1
1229.81
869.144
790.993
1039.42
1189.92
1180.46
817.8
607.076
1180.37
1225.62
1169.29
812.254
879.148
1209.78
1207.11
1198.08
577.571
597.519
1201.72
1226.87
1104.09
803.422
1085.6
1221.32
1210.47
1180.71
456.381
728.567
1204.62
1152.2
614.706
771.623
1195.18
1204.6
1204.45
797.943
374.902
1155.26
624.751
481.426
407.458
826.089
1175.66
1183.1
1194.46
573.517
323.067
505.632
388.962
389.412
392.091
678.314
1169.93
1187.09
1165.95
378.094
297.847
683.584
383.217
385.568
388.714
572.915
1155.52
1201.39
745.447
250.84
266.301
686.034
374.942
378.976
536.24
995.508
1121.46
1177.38
381.448
199.069
232.977
902.89
783.058
780.89
803.801
766.214
1045.45
1123.05
201.391
165.431
323.213
887.731
632.085
520.897
378.39
249.164
1094.03
1085.42
128.631
170.899
332.505
320.573
117.227
91.2567
92.1706
138.024
1135.44
1095.82
115.516
206.958
214.113
1.00971
85.888
82.0561
80.0684
105.276
1146.75
1119.58
112.599
205.186
110.63
0.767747
102.59
102.778
79.6122
98.0412
1151.95
1169.86
106.389
199.85
68.498
0.608203
166.062
123.767
77.0135
107.331
1186.19
1198.31
107.776
195.747
56.7836
0.53585
40.8764
33.5403
55.0853
116.539
1223.01
1217.78
123.333
100.232
41.7344
6.16434
1.13234
0.102117
0.122285
132.611
1255.28
1247.97
135.89
10.3754
7.61892
5.31198
1.36571
0.359304
-0.0213977
159.155
1282.48
1285.74
160.176
0.878315
0.750291
0.844335
0.156496
0.899073
-0.1607
177.231
1307.23
1321.42
183.754
0.688328
0.622115
0.546154
-0.183302
0.857123
-0.163393
202.003
1350.36
1337.06
200.759
0.456488
0.558253
0.411554
-0.154716
0.324209
-0.177753
229.211
1392.17
1350.47
212.015
0.43513
0.580669
0.423694
-0.157319
0.347983
-0.191101
244.788
1416.75
1381.04
233.061
0.447756
0.627509
0.570991
-0.153694
0.220955
-0.191875
262.025
1441.18
1408.63
250.73
0.458925
0.652274
0.820355
-0.142729
0.139317
-0.169397
276.942
1458.32
1446.62
273.809
0.423222
0.657931
0.833331
0.0792454
0.652478
-0.120271
288.996
1466.13
1491.49
301.532
0.359747
0.602686
0.804528
0.198321
0.671801
-0.110804
319.133
1499.95
1517.84
331.611
0.339619
0.566339
0.788625
-0.046893
0.192674
-0.120581
368.133
1546.13
1536.41
364.393
0.34855
0.623338
0.782998
-0.107971
-0.108291
-0.113204
425.481
1579.11
1570.82
420.093
0.334769
0.600181
0.775321
-0.0992742
-0.0946761
-0.090574
492.029
1605.47
1612.7
502.343
0.313996
0.622474
0.768568
-0.0760618
-0.0777134
-0.0808597
579.899
1643.59
1635.4
576.718
0.317369
0.51839
0.755672
-0.0474771
-0.0505227
-0.0582039
676.811
1674.19
1660.67
669.391
0.309821
0.458925
0.586588
-0.0205455
-0.020717
-0.0223097
759.959
1692.4
1690.15
763.616
0.275888
0.539039
0.702755
-0.00114625
0.137365
-0.00231693
856.137
1715.27
1712.01
858.1
0.244004
0.464232
0.684551
0.0179068
0.426762
0.0230477
944.34
1736.39
1735.98
947.487
0.187084
0.213436
0.429183
0.257946
0.446989
0.00235648
1060.05
1757.82
1757.54
1063.05
0.136761
0.140448
0.144076
0.0704292
-0.0464496
-0.0545297
1189.36
1782.16
1775.33
1191.19
0.11839
0.116594
0.115689
0.0153775
-0.0472301
-0.0486275
1358.58
1802
1795.5
1324.13
0.109688
0.0923754
0.0943087
0.0399216
-0.0478688
35.3322
1444.28
1816.23
1818.58
1499.98
74.5874
0.079076
0.0769295
-0.0417782
-0.042687
87.2111
1463.06
1832.99
1835.28
1708.73
324.518
0.0671455
0.0678157
-0.0274899
-0.0357396
278.683
1696.4
1852.64
1854.7
1792.07
556.874
0.0566865
0.0589589
-0.034374
-0.0378208
588.582
1801.65
1872.72
1873.45
1865.5
936.262
0.0541591
0.0516052
-0.02819
-0.0133324
1180.37
1892.01
1892.51
1892.17
1890.6
1259.33
0.0553811
0.0439914
-0.016231
64.6847
1580.23
1909.75
1911.04
1911.08
1910.5
1737.02
274.786
0.0371005
-0.0133716
986.859
1919.59
1926.66
1926.61
1926.81
1926.94
1926.76
1175.67
0.0237059
558.407
1860.05
1939.73
1937.89
1937.02
1936.85
1937.33
1939.03
1875.66
631.766
1134.23
1134.28
1134.15
1134.08
1133.99
1133.92
1133.85
1133.78
1133.66
1133.56
1133.32
1132.68
1131.62
1129.86
1128.11
1126.45
1124.94
1123.55
1122.3
1121.14
1120.11
1119.18
1118.51
1118.09
1117.62
1116.97
1116.06
1115.17
1114.15
1112.27
1112.4
1112.91
1114.27
1116.66
1120.23
1124.34
1128.57
1131.85
1133.56
1133.64
1134.42
1134.28
1134.19
1134.06
1133.98
1133.91
1133.83
1133.64
1133.61
1133.49
1133.06
1131.93
1130.49
1128.91
1127.25
1125.61
1124.06
1122.77
1121.61
1120.52
1119.56
1118.84
1117.8
1117.35
1116.95
1116.14
1115.8
1114.56
1113.08
1111.42
1110.07
1109.62
1110.65
1112.87
1116.17
1120.67
1125.66
1128.87
1131.41
1133.17
1133.78
1134.09
1134.23
1134.27
1134.22
1134.07
1133.87
1133.65
1133.45
1133.48
1132.82
1131.18
1128.95
1127.16
1125.65
1124.01
1122.75
1122.03
1121.29
1120.14
1119.3
1118.78
1118.57
1117.57
1116.73
1116.02
1114.6
1112.68
1110.33
1106.89
1102.87
1100.89
1100.87
1102.91
1105.83
1109.76
1114.89
1119.88
1124.38
1127.5
1133.48
1134.18
1134.55
1134.71
1134.67
1134.51
1134.05
1133.77
1133.66
1133.2
1132.62
1130.17
1126.01
1123.62
1122.79
1121.19
1119.46
1119.28
1120.29
1119.45
1117.39
1116.18
1116.51
1118.16
1117.95
1116.22
1114.01
1111.14
1107.45
1100.99
1095.28
1088.43
1088.15
1089.27
1090.94
1093.36
1098.45
1104.84
1109.48
1112.91
1133.96
1134.6
1135.02
1135.19
1135.16
1134.62
1134.17
1133.56
1133.59
1132.45
1128.78
1125.14
1117.47
1115.53
1115.96
1115.05
1110.01
1112.96
1123.91
1113.24
1113.2
1111.11
1113.06
1121.82
1119.35
1116.02
1113.63
1110.51
1106.3
1100.64
1091.24
1084.32
1078.69
1082.09
1077.47
1078.48
1083.51
1089.85
1097.09
1101.36
1134.53
1134.76
1135.24
1135.46
1135.31
1134.87
1134.61
1134.11
1134.39
1132.86
1125.17
1117.22
1115.19
1112.8
1111.23
1110.14
1109.38
1109.39
1110.29
1119.46
1123.76
1123.73
1112.77
1108.34
1107.64
1106.92
1114.17
1110.6
1106.28
1101.62
1096.93
1090.5
1079.9
1075.85
1075.86
1078.4
1081.31
1085.47
1097.55
1102.95
1135.68
1135.8
1135.8
1136.54
1135.63
1135.68
1135.61
1135.42
1135.85
1135.08
1131.65
1122.56
1117.08
1115.17
1112.93
1110.84
1117.14
1124.8
1124.32
1123.87
1123.05
1122.23
1121.74
1119
1102.56
1099.53
1096.35
1094.37
1105.4
1103.88
1099.88
1097.47
1095.76
1088.02
1083.21
1085.92
1085.28
1091.84
1105.03
1109.77
1137.37
1137.67
1137.87
1138.05
1137.52
1137.52
1137.47
1138
1137.82
1137.52
1137.24
1136.36
1132.72
1128.78
1126.43
1126.03
1126.99
1125.42
1124.27
1123.44
1122.74
1121.86
1120.78
1119.47
1118.15
1102.85
1095.08
1092.31
1089.91
1085.81
1083.08
1086.55
1101.52
1102.48
1104.83
1099.12
1094.4
1106.14
1116.86
1118.59
1139.25
1139.6
1139.86
1140.12
1140.37
1140.1
1140.21
1140.2
1139.78
1139.32
1138.81
1138.21
1137.13
1135.48
1133.18
1130.6
1128.03
1125.71
1123.89
1122.69
1122.01
1121.47
1120.75
1119.06
1117.14
1115.63
1108.27
1107.27
1109.33
1090.93
1086.41
1085.87
1085.51
1086.67
1089.8
1093.5
1097.97
1123.38
1127.66
1129.53
1136.73
1140.78
1140.9
1141.15
1141.95
1141.95
1142
1141.85
1141.71
1141.49
1140.9
1140.01
1138.52
1136.38
1133.77
1130.78
1127.69
1124.92
1122.48
1120.77
1119.88
1119.3
1118.22
1116.25
1114.97
1114.25
1111.65
1109.45
1111.48
1111.36
1112.51
1112.39
1089.84
1091.16
1094.28
1097.72
1101.3
1125.54
1138
1140.63
1133.39
1133.82
1134.38
1135.25
1140.11
1137.7
1137.55
1138.76
1139.05
1138.73
1138.96
1140.54
1138.45
1135.59
1132.36
1128.73
1122.58
1111.8
1102.8
1103.62
1107.08
1105.24
1105.9
1110.27
1109.97
1110.14
1109.74
1109.75
1109.63
1111.78
1114.74
1117.31
1121.04
1110.94
1097.18
1101.21
1121.85
1140.75
1145.69
1147.8
1144.1
1142.05
1141.18
1140.49
1135.44
1135.82
1135.99
1135.84
1140.81
1144.86
1143.87
1141.4
1136.02
1125.4
1106.6
1094.34
1073.97
1052.15
1050.91
1049.35
1057.6
1064.18
1052.46
1037.82
1037.33
1035.87
1063.49
1102.36
1105.15
1104.7
1105.97
1109.7
1115.44
1120.27
1114.97
1121.79
1137.02
1143.1
1146.54
1146.93
1146.11
1146.81
1147.34
1147.78
1148.02
1139.27
1144.69
1146.11
1146.14
1146.42
1142.75
1128.01
1110.33
1077.03
1067.48
1064.03
1059.65
1052.27
1055.8
1053.61
1051.05
1050.23
1067.68
1066.82
1035.58
1023.41
1017.66
1011.81
1005.35
1037.27
1012.24
1005.34
1035.64
1104.83
1117.76
1123.49
1132.07
1139.41
1143.06
1143.61
1148.74
1149.3
1149.59
1149.63
1149.52
1147.06
1147.74
1148.78
1147.27
1137.91
1109.12
1107.43
1108.35
1134.81
1120.07
1110.99
1110.25
1108.19
1107.86
1107.48
1104.29
1094.46
1090.68
1092.04
1095.04
1092.97
1088.94
1080.28
1063.07
981.37
985.167
991.238
1040.23
1115.33
1115.87
1113.52
1039.59
1065.45
1117.83
1138.47
1151
1151.81
1152.17
1151.44
1132.53
1128.91
1133.85
1148.88
1148.54
1141.77
1120.8
1135.48
1146.61
1144.59
1134.92
1114.73
1086.77
1059.54
1056.33
1053.94
1055.1
1045.71
1044.39
1043.4
1041.8
1085.16
1117.6
1033.89
978.006
978.546
982.519
984.692
1043.6
1051.92
1028.19
1003.22
1003.31
1009.12
1092.13
1137.78
1152.56
1153.19
1142.97
1110.19
1117.8
1133.57
1126.75
1104.63
1104.05
1105.6
1152.63
1150.91
1147.94
1140.11
1096.58
1094.67
1096.45
1120.12
1075.71
1050.74
1048.73
1046.16
1043.75
1045.04
1070.32
1115.53
1122.2
1033.03
983.814
983.72
985.123
985.039
984.487
985.016
986.827
991.499
998.604
1018.85
1109
1138.88
1152.88
1148.75
1103.64
1102.78
1103.04
1122.97
1134.88
1135.53
1152.48
1151.82
1150.88
1148.31
1145.72
1142.06
1126.45
1118.34
1139.78
1139.26
1138.12
1126.09
1067.83
1065.1
1129.31
1128.76
1128.9
1129.48
1129.34
1129.35
1130.6
1095.48
985.991
985.268
986.652
988.491
1004.23
1025.27
1054.81
1113.54
1136.01
1142.06
1148.52
1111.89
1095.49
1097.47
1098.13
1133.42
1150.3
1151.67
1151.21
1150.26
1145.16
1136.28
1134.22
1142.14
1141.34
1140.23
1139.55
1138.98
1138.46
1137.53
1136.15
1135.17
1132.96
1122.69
1120.11
1126.27
1133.22
1134.91
1136.61
1137.64
1129.61
1117.74
1109.08
1107.44
1126.85
1134.09
1136.66
1144.35
1144.26
1144.21
1141.99
1099.16
1089.46
1091.74
1115.12
1151.77
1151.04
1149.86
1149.36
1148.68
1138.26
1133.28
1131.32
1130.17
1139.03
1138.17
1137.8
1138.27
1138.39
1137.94
1137.22
1136.92
1135.78
1088.56
1030.67
1077.66
1137.12
1139.62
1141.46
1138.43
1139.15
1144.89
1147.36
1148.87
1149.61
1149.75
1142.8
1142.73
1142.75
1149.63
1139.54
1125.76
1089.36
1109
1147.23
1146.25
1145.09
1144.47
1143.89
1143.82
1141.78
1131.2
1126.12
1123.93
1123.74
1133.07
1134.94
1136.44
1138.04
1138.6
1138.75
1133.93
1089.24
1021.21
1022.3
1023.69
1105.67
1142.68
1142.5
1123.46
1124.82
1133.59
1148.8
1137.1
1146.15
1150.63
1148.92
1150.17
1152.37
1152.6
1135.23
1122.43
1078.67
1132.55
1139.08
1138.35
1137.18
1122.6
1100.08
1122.33
1134.58
1134.08
1132.1
1122.95
1066.87
1055.38
1123.9
1134.87
1137.66
1139.09
1117.52
1026.47
1019.92
1020.39
1020.63
1022.28
1040.88
1117.36
1117.14
1123.24
1126.17
1129.6
1131.58
1120.53
1123.16
1139.61
1148.56
1152.58
1153.88
1154.11
1133.65
1069.25
1017.73
1127.01
1131.84
1131.29
1131.58
1112.84
1068.54
1066.41
1107.84
1135.7
1133.4
1096.71
998.73
998.658
1005.15
1119.61
1139.24
1118.27
1032.57
1018.08
1017.94
1020.33
1081.62
1119.7
1125.46
1088.64
1071.08
1046.91
1039.44
1058.96
1102.89
1118.26
1118.94
1117.56
1120.45
1140.48
1147.94
1135.79
1018.14
1000.5
999.611
1040.53
1130.6
1128.49
1130.41
1127.07
1069.79
1064.19
1067.1
1133.69
1136.63
1058.7
996.867
997.237
997.705
998.738
1001.68
1006.31
1091.03
1127.53
1114.62
1140.31
1151.67
1151.75
1151.25
1150.55
1142.19
1021.11
992.422
994.473
996.281
1096.63
1104.81
1060.1
1064.52
1078.25
1078.43
1074.29
1001.15
1001.85
1000.21
996.927
1009.19
1086.77
1135.54
1136.51
1084.22
1065.25
1064.96
1097.99
1135.73
1131.36
1042.76
993.743
994.263
995.147
1034.85
1133.58
1142.16
1144.33
1146.23
1147.92
1148.82
1149.15
1149.78
1149.74
1148.9
1087.08
986.597
990.292
994.526
997.888
1006.87
1065.79
1070.48
1057.57
1067.37
1077.94
1005.8
1006.42
1005.32
1002.85
999.847
1076
1141.71
1138.9
1073.82
1062.65
1062.28
1071.62
1129.45
1124.88
1123.68
1107.9
1088.29
1104.6
1131.42
1134.19
1136.68
1138.94
1141.2
1143.67
1145.83
1147.66
1149.11
1149.81
1149.79
1064.57
985.091
989.161
994.358
999.332
1004.51
1009.26
1011.69
1013.34
1013.57
1030.31
1011.13
1010.26
1065.7
1093.27
1114.12
1143
1140.34
1089.77
1058.04
1085.7
1094.46
1094.15
1089.97
1050.23
1061.87
1116.7
1119.57
1120.27
1055.74
1090.98
1130.43
1134.68
1137.95
1141.02
1141.47
1145.64
1147.94
1149.33
1151.15
1136.03
1011.87
989.306
993.245
1076.72
1131.43
1113.91
1053.11
1015.82
1013.09
1013.26
1154.45
1158.17
1164.96
1165.36
1162.41
1158.66
1153.05
1098.81
1049.02
1098.5
1097.8
1094.76
1067.51
944.26
940.689
971.065
1121.06
1131.69
1043.74
1014.06
1045.85
1132.64
1136.02
1140.08
1136.04
1118.01
1140.7
1147.56
1147.92
1149.73
1139.52
1095.53
1125.07
1168.19
1177.97
1184.48
1189.19
1179.12
1110.42
1038.78
1132.68
1163.58
1164.33
1164.96
1163.98
1161.11
1146.89
1032.85
999.178
1003.89
1059.73
1022.04
942.871
941.315
938.703
937.491
1087.89
1137.73
1079.38
1012.99
1012.53
1028.45
1136.81
1140.33
1144.02
1110.72
1096.88
1131.76
1145.08
1142.5
1141.5
1143.06
1146.91
1153.23
1158.67
1172.05
1179.27
1183.57
1185.16
1185.47
999.443
968.648
1121.24
1162.2
1162.75
1161.06
1061.67
998.525
996.038
1004.32
979.447
946.213
943.798
941.501
938.653
938.316
1115.81
1140.18
1128.75
1020.31
1012.82
1012.97
1125.37
1140.18
1143.73
1144.63
1091.88
1068.71
1057.24
1094.22
1106.14
1119.75
1127.46
1126.54
1133.32
1155.71
1165.31
1171.27
1174.91
1176.57
1040.23
931.093
926.654
945.513
1167.53
1166.52
1152.44
1079.6
1059.55
1105.04
1102.32
964.679
942.732
941.784
938.61
1038.32
1142.52
1142.1
1140.34
1115.24
1018.98
1085.32
1137.59
1137.26
1139.23
1140.78
1141.62
1108.05
896.909
803.045
822.643
867.188
937.067
1048.38
1129.04
1142.24
1153.18
1157.25
1132
1140.87
1161.69
938.186
927.108
925.959
1021.24
1175.4
1174.34
1169.95
1119.18
1086.31
1132.24
1128.35
1065.51
1061.89
1077.5
1145.05
1146.76
1143.56
1136.89
1144.87
1142.25
1139.44
1136.64
1134.39
1130.51
1114.08
1058.62
1081.75
1036.67
760.37
759.374
757.483
756.382
813.277
1097.52
1136.65
1146.16
1142.96
1091.61
1093.67
1182.31
1135.51
934.523
930.365
1017.02
1176.8
1176.26
1173.53
1161.89
1027.67
995.279
991.017
988.583
992.307
1076.07
1151.19
1148.74
1139.87
1137.27
1144.46
1142.83
1140.69
1138.61
1129.87
1031.4
951.125
793.751
835.735
875.364
750.4
753.135
752.631
752.931
752.562
1007.26
1140.77
1146.46
1127.97
1087.83
1089.67
1184.56
1185.36
1134.31
1058.08
1118.01
1181.61
1179.53
1176.18
1124.69
993.401
990.754
987.933
985.977
984.393
982.096
981.458
981.081
1087.41
1142.94
1143.72
1147.69
1146.37
1145.71
1083.25
930.012
833.991
753.185
752.311
753.61
757.225
758.376
758.097
758.393
758.894
1023.36
1151.04
1155.53
1108.21
1088.86
1089.58
1077.08
1192.12
1200.13
1198.9
1194.34
1188.86
1184.33
1179.98
1099.57
998.668
1014.74
1070.95
1115.31
1146.27
1141.08
1129.23
1075.99
1117.22
1153
1151.16
1150.65
1149.93
1146.34
973.878
912.233
945.093
872.329
753.435
757.267
760.115
759.812
760.565
760.554
915.826
1145.06
1159.38
1160.04
1108.89
1124.73
1091.84
1040.9
1039.93
1037.1
1058.8
1153.25
1194.04
1188.29
1178.28
1143.84
1145.81
1155.84
1157.26
1153.2
1147.36
1125.4
1091.28
1102.31
1152.95
1151.58
1150.32
1149.02
1126.94
995.336
899.933
902.453
1123.4
1145.81
870.432
763.717
868.675
913.356
895.146
1001.8
1165.05
1165.36
1164.62
1162.13
1114.48
1159.43
1129.58
1115.67
1054.63
1040.95
1035.75
1027.81
1019.02
1081.1
1172.95
1168.09
1164.76
1161.33
1157.09
1153.02
1053.27
917.328
921.942
1061.46
1109.55
1131.42
1146.33
1107.64
930.244
886.198
888.242
896.431
1125.96
1161.07
1162.41
1109.18
1168.86
1171.05
1170.02
1171.39
1170.43
1140.31
1165.73
1165.84
1164.46
1163.15
1162.82
1184.73
1181.08
1177.41
1077.56
1024.09
1016.32
1009.06
1001.53
1031.9
1161.38
1163.5
1159.49
1156.69
938.257
911.113
907.768
1022.95
998.787
966.326
926.8
880.541
878.08
881.003
882.678
956.296
1153.68
1156.55
1158.78
1161.49
1164.05
1166.75
1167.56
1168.56
1154.28
1129.3
1161.29
1163.83
1161.21
1153.85
1161.76
1181.47
1173.4
1168.09
1162.14
1154.04
1144.68
1134.62
1065.06
996.927
990.122
985.261
1040.71
1156.83
1119.21
979.834
897.614
894.471
921.426
1023.17
936.257
868.315
869.026
901.202
976.03
1129.09
1149.06
1151.97
1154.87
1158.19
1161.46
1164.25
1165.78
1146.99
1124.85
1124.96
1146.31
1154.04
1086.72
1031.15
1159.72
1121.11
1100.9
1058.75
1059.43
1091.6
1115.92
1111.55
1107.78
1000.46
969.912
968.171
966.21
963.412
1025.96
1088.06
1088.51
976.799
908.307
904.045
902.267
905.798
1036.48
1115.62
1140.86
1142.56
1145.48
1148.95
1152.86
1157.25
1161.33
1164.56
1166.17
1124.01
1124.67
1125.97
1125.09
1091.9
1003.56
1005.2
1065.76
745.715
684.453
604.11
605.411
728.443
1021.47
1074.83
1080.3
1082.7
974.896
947.48
948.786
949.463
948.617
952.803
1091.33
1120.83
1120.06
993.43
896.751
898.711
900.251
1055.29
1099.55
1123.51
1144.39
1148.7
1153.53
1158.94
1163.75
1167.44
1148.46
1136.26
1127.64
1147.69
1142.02
1062.31
1003.87
1004.18
1005.7
574.92
570.243
565.537
560.796
557.767
556.68
557.529
774.034
1025.19
934.549
925.364
1054.01
1002.61
941.392
946.203
961.532
1109.4
1132.02
1135.8
1104.8
906.865
912.021
984.812
1116.3
1084.9
1077.32
1107.14
1158.66
1164.46
1169.41
1172.97
1126.48
1114.77
1148.66
1149.03
1152.08
1114.66
1009.28
1025.38
1114.24
572.571
563.603
555.326
547.535
543.286
541.521
540.982
540.388
540.74
543.659
725.554
1059.06
1081.1
1085.79
1021.53
1014.68
1099.68
1130.37
1134.15
1137.67
1107.5
960.017
1047.41
1158.4
1091.49
1087.88
1090.77
1117.97
1176.15
1180.3
1182.07
1147.55
1113.57
1144.14
1150.07
1154.21
1155.86
1150.35
1168.31
1172.81
972.64
890.116
868.019
763.357
619.419
536.781
532.411
530.726
532.709
535.785
538.239
633.917
1015.9
1115.21
1116.35
1113.01
1114.88
1123.08
1129.72
1136.9
1143.8
1140.44
1149.71
1165.84
1167.71
1099.22
1104.18
1110.57
1177.81
1196.86
1196.63
1194.76
1147.64
1033.81
999.62
1047.22
1158.3
1175.93
1178.43
1180.41
1137.92
1139.26
1141.19
1142.71
1081.46
854.129
621.272
586.759
558.303
534.124
535.496
545.875
723.553
880.415
1046.07
1092.29
1081.08
1095.46
1120.59
1131.96
1142.25
1151.81
1160.33
1168.67
1177.46
1156.49
1113.9
1123.52
1199.96
1212.25
1210.88
1208.72
1205.3
985.992
844.825
842.718
1026.19
1192.59
1195.44
1196.73
1137.9
1142.37
1147.55
1152.72
1156.58
1157.62
1123.46
1087.14
1085.12
844.448
525.719
522.136
514.558
504.011
497.397
590.801
1001.54
1096.6
1113.11
1126.7
1138.83
1149.93
1160.52
1170.54
1179.43
1188.32
1167.37
1179.37
1215.53
1224.49
1224.85
1222.43
1219.17
901.852
850.733
851.806
948.523
1207.81
1212.65
1212.62
1134.53
1141.14
1148.22
1156.15
1164.21
1171.02
1169.57
1160.98
1141.74
842.857
526.944
521.532
512.961
503.59
551.838
889.245
1079.72
1110.09
1123.64
1134.42
1143.95
1152.58
1160.57
1168.12
1176.01
1185.83
1197.71
1210.66
1223.98
1237.43
1227.43
1234.91
1230.66
1004.89
855.095
855.551
1032.97
1222.69
1222.28
1221.86
937.961
990.078
1126.03
1154.89
1162.15
1169.02
1166.66
1157.79
1148.64
1115.66
683.658
532.243
517.691
515.095
805.362
1105.23
1134.06
1141.17
1144.98
1148.61
1151.54
1154.3
1157.23
1160.43
1166.34
1176.58
1189.72
1205.56
1224.87
1126.98
1131.39
1239.03
1238.86
1186.31
868.322
856.058
1138.36
1225.54
1226.7
1227.34
725.959
726.72
878.02
1120.44
1157.05
1143.84
1143.08
1147.5
1145.81
1136.13
1094.63
907.539
745.844
849.384
947.16
1093.96
1151.14
1151.74
1129.51
1078.91
964.248
851.146
800.623
763.29
785.141
909.46
1113.03
1191.36
1083.21
723.195
1023.42
1237.32
1237.96
1080.72
853.363
883.314
1194.39
1230.98
1231.55
1227.18
729.278
714.685
718.793
991.226
1158.17
880.908
807.653
1071.46
1142.46
1059.22
896.662
1022.75
1138.04
1158.42
1161.91
1155.57
1158.5
1057.11
527.358
434.024
383.744
366.126
363.137
363.574
368.688
411.929
579.839
653.293
568.472
670.763
1166.61
1232.95
1234.8
940.087
844.853
937.909
1222.15
1232.89
1234.05
1129.99
1005.09
710.366
717.065
919.635
1138.65
657.092
595.667
869.846
1147.66
1053.57
889.756
951.959
1146.76
1171.9
1173.65
1174.92
1175.79
835.799
365.156
364.846
365.414
365.569
365.764
367.046
369.349
372.669
380.873
404.738
488.698
1052.32
1225.53
1229.64
1201.84
843.864
837.781
1137.14
1230.9
1233.95
1236.25
1088.54
1087.33
727.897
713.063
1030.76
909.015
588.152
588.955
715.381
1121.41
1154.35
897.476
901.49
1176.09
1179.42
1182.43
1185.73
1189.05
1041.14
472.632
367.661
368.701
369.412
370.218
371.752
373.926
376.953
380.766
429.981
947.93
1230.42
1232.61
1195.18
862.589
799.817
827.953
1173.55
1234.48
1237.5
1238.99
1086.42
942.827
718.865
704.699
1123.75
868.577
586.377
586.556
646.626
1105.61
1169.41
1034.62
842.119
1134.82
1189.05
1192.92
1197.17
1201.68
1203.21
1062.62
765.117
547.478
378.45
373.535
373.066
374.781
377.376
388.683
764.304
1225.69
1236.1
1237.87
892.647
794.131
796.675
795.235
1105.8
1238.8
1244.53
1163.31
1083.36
753.411
735.169
949.934
1158.78
872.041
586.6
584.28
702.674
1106.14
1164.92
1130.56
827.083
1078.68
1197.06
1201.85
1206.76
1212.72
1219.76
1227.43
1224.23
1170.77
1015.61
703.761
494.483
376.414
443.884
724.518
1194.1
1242.45
1244.24
1232.02
916.523
794.833
795.578
794.243
933.389
1100.32
1206.38
1072.66
1081.3
716.19
731.672
1150.98
1170.84
864.474
597.001
768.669
937.186
1135.15
1154.89
964.508
808.963
1060.89
1199.43
1206.65
1212.84
1219.43
1226.35
1233.2
1238.96
1240.74
1241.09
1217.05
1114.18
902.746
1018.95
1208.16
1250.12
1251.64
1253.56
1199.87
1025.58
798.795
798.889
875.415
832.144
657.6
748.364
987.787
1156.43
718.217
947.161
1215.52
1181.59
911.279
840.764
976.087
967.19
831.81
780.395
786.561
796.869
927.403
1206.59
1212.17
1217.54
1222.69
1227.3
1230.69
1232
1180.13
1159.6
1206.02
1215.37
1240.49
1257.16
1259.83
1260.25
1260.96
1128.15
1104.74
1099.99
969.859
911.249
728.139
649.914
650.296
654.561
1035.76
1225.97
747.006
1245.01
1238.61
1144.23
846.916
778.16
1000.89
901.594
804.02
803.793
805.93
807.386
808.791
873.017
1148.68
1223.76
1227.87
1230.86
1232.37
1220.61
965.357
823.87
883.343
1074.06
1214.7
1258.39
1187.31
1054.83
965.088
853.49
891.827
1077.29
949.871
825.852
646.936
646.787
647.646
1014.45
1229.49
1230.35
974.193
1253.27
1250.75
1097.87
672.342
738.991
1008.9
930.601
816.751
816.618
845.618
817.637
818.994
850.356
885.656
900.541
1195.87
1237.99
1240.02
1238.83
991.979
823.175
824.342
827.422
891.825
973.921
855.027
842.247
845.217
848.084
984.82
1044.99
668.266
646.386
645.949
656.162
977.449
1162.02
1205.57
1224.4
1154.65
1266.01
1260.42
1111.68
613.051
559.202
730.739
724.436
933.682
1002.83
997.378
984.141
997.196
999.971
999.215
993.492
1043.41
1088.2
1251.42
1255.76
1238.95
932.937
829.388
831.628
834.853
838.165
840.378
843.102
845.541
848.204
1033.63
1136.09
1014.8
852.794
1048.92
1210.15
1209.96
1166.16
1166.59
1170.08
1188.3
1280.64
1270.77
1035.56
561.37
560.391
556.056
553.399
551.583
550.18
575.001
761.985
894.346
740.167
836.79
1032.08
1036.47
1087.4
1256.07
1263.36
1268.05
1242.14
948.513
833.814
836.506
839.586
842.15
844.331
846.556
857.929
1232.62
1298.31
1296.4
1293.53
1191.11
1169.1
1168.26
1222.81
1248.75
1283.42
1279.11
1282.83
1277.82
1123.19
636.688
562.183
610.535
728.993
725.069
700.951
698.194
649.068
551.253
554.67
557.707
872.166
1124.5
1185.05
1248.41
1268.83
1273.51
1278.03
1244.26
934.814
836.211
839.363
841.533
843.467
869.858
1209.51
1297.21
1296.93
1295.47
1238.92
1193.21
1206.34
1262.03
1294.25
1294.59
1294.88
1236
1292.32
1286.47
1280.13
1156.62
979.617
1212.33
1262.44
1245.69
885.436
542.233
543.731
545.825
548.012
575.345
1128.96
1265.24
1265.93
1249.96
1268.19
1277.42
1281.78
1286.59
1215.77
860.831
839.737
840.203
1086.45
1240.84
1299.99
1299.25
1297.97
1291.59
1268.86
1281.94
1293.56
1294.01
1294.61
1295.15
1295.72
1285.53
1286.84
1285.48
1283.04
1279.09
1274.91
1270.87
1265.19
929.772
537.669
538.872
540.35
542.061
544.479
926.36
1271.06
1270.61
1270.91
1269.35
1275.59
1280.18
1284.14
1288.43
1283.38
1103
1020.23
1211.91
1302.64
1303.69
1303.74
1303.23
1302.03
1299.98
1297.61
1295.32
1293.55
1292.35
1292.79
1293.89
1294.92
1282.39
1285.13
1284.84
1283.35
1279.44
1276.22
1269.83
1261.2
954.745
532.773
535.111
537.551
539.475
549.809
1072.11
1275.96
1275.2
1274.9
1276.6
1280.29
1281.63
1234.68
1224.36
1261.27
1298.78
1299.9
1302.54
1303.65
1304.62
1305.42
1305.71
1305.21
1298.56
1281.47
1244.66
1176.09
1059.08
1096.53
1269.69
1280.45
1215.67
1283.68
1238.78
1180.91
1116.21
1128.23
1209.89
1242.59
1160.07
624.374
532.137
535.278
539.231