/*--------------------------------*- C++ -*----------------------------------*\
  =========                 |
  \\      /  F ield         | OpenFOAM: The Open Source CFD Toolbox
   \\    /   O peration     | Website:  https://openfoam.org
    \\  /    A nd           | Version:  8
     \\/     M anipulation  |
\*---------------------------------------------------------------------------*/
FoamFile
{
    version     2.0;
    format      ascii;
    class       surfaceScalarField;
    location    "5.7";
    object      phi;
}
// * * * * * * * * * * * * * * * * * * * * * * * * * * * * * * * * * * * * * //

dimensions      [0 3 -1 0 0 0 0];

internalField   nonuniform List<scalar> 
18095
(
1.99065e-08
-1.72088e-07
1.52181e-07
2.3185e-08
-1.97644e-07
1.94365e-07
1.98285e-08
-2.06062e-07
2.09419e-07
1.07576e-08
-2.10804e-07
2.19875e-07
-5.96451e-10
-2.13411e-07
2.24765e-07
-1.20615e-08
-2.13232e-07
2.24697e-07
-2.05406e-08
-2.1092e-07
2.19399e-07
-2.32105e-08
-2.06206e-07
2.08876e-07
-1.98928e-08
-1.97619e-07
1.94302e-07
-1.72015e-07
1.52122e-07
1.55337e-08
-1.87621e-07
1.61072e-08
-1.98217e-07
1.20944e-08
-2.02049e-07
6.34617e-09
-2.05056e-07
-2.33431e-10
-2.06831e-07
-6.38575e-09
-2.0708e-07
-1.18544e-08
-2.05452e-07
-1.60831e-08
-2.01977e-07
-1.55606e-08
-1.98142e-07
-1.87575e-07
6.7972e-09
-1.94419e-07
8.34227e-09
-1.99762e-07
7.26748e-09
-2.00975e-07
4.45179e-09
-2.0224e-07
3.78445e-10
-2.02758e-07
-4.01744e-09
-2.02684e-07
-7.37406e-09
-2.02095e-07
-8.42233e-09
-2.00929e-07
-6.82311e-09
-1.99741e-07
-1.94398e-07
4.51065e-09
-1.98929e-07
4.6965e-09
-1.99948e-07
3.59501e-09
-1.99873e-07
1.79973e-09
-2.00445e-07
-1.86787e-10
-2.00771e-07
-2.0543e-09
-2.00816e-07
-3.70588e-09
-2.00443e-07
-4.74166e-09
-1.99893e-07
-4.52873e-09
-1.99954e-07
-1.98927e-07
1.07071e-09
1.12267e-09
1.24959e-09
8.04878e-10
3.38266e-11
-7.82558e-10
-1.22602e-09
-1.11886e-09
-1.07296e-09
-2.79952e-08
-1.95905e-07
2.239e-07
-3.0254e-08
-1.98902e-07
2.01161e-07
-2.4408e-08
-2.01209e-07
1.95363e-07
-1.24223e-08
-2.01521e-07
1.89536e-07
2.26402e-09
-2.02008e-07
1.87322e-07
1.61942e-08
-2.01991e-07
1.88061e-07
2.63968e-08
-2.01658e-07
1.91456e-07
3.09544e-08
-2.01015e-07
1.96457e-07
2.83492e-08
-1.99395e-07
2.02e-07
-1.96396e-07
2.24745e-07
-9.2969e-09
-1.86608e-07
-1.47514e-08
-1.93447e-07
-1.27409e-08
-2.03219e-07
-6.13351e-09
-2.08129e-07
7.08759e-12
-2.08148e-07
6.04029e-09
-2.08025e-07
1.27967e-08
-2.08415e-07
1.54459e-08
-2.03664e-07
9.64294e-09
-1.93592e-07
-1.86753e-07
-1.00326e-08
-1.76576e-07
-7.9079e-09
-1.95572e-07
-6.00031e-09
-2.05127e-07
-3.15549e-09
-2.10973e-07
2.08256e-09
-2.13387e-07
7.19719e-09
-2.13139e-07
8.12384e-09
-2.09341e-07
8.82947e-09
-2.0437e-07
1.03349e-08
-1.95098e-07
-1.76418e-07
-6.61682e-09
-1.69959e-07
-8.94547e-09
-1.93243e-07
-9.15836e-09
-2.04914e-07
-5.51721e-09
-2.14615e-07
-2.43193e-09
-2.16472e-07
1.00962e-09
-2.16581e-07
6.46198e-09
-2.14794e-07
7.61541e-09
-2.05523e-07
6.24137e-09
-1.93724e-07
-1.70177e-07
-1.77776e-08
-1.66559e-08
-1.2151e-08
-6.89089e-09
1.40193e-09
9.51839e-09
1.41241e-08
1.74766e-08
1.80547e-08
3.84566e-08
-1.56546e-07
1.18089e-07
4.42135e-08
-1.97794e-07
1.92038e-07
3.84851e-08
-2.10382e-07
2.16111e-07
2.6739e-08
-2.165e-07
2.28246e-07
9.59668e-09
-2.17787e-07
2.34929e-07
-8.67489e-09
-2.17593e-07
2.35865e-07
-2.53532e-08
-2.15679e-07
2.32357e-07
-3.52673e-08
-2.1109e-07
2.21004e-07
-3.40105e-08
-1.98632e-07
1.97375e-07
-1.57997e-07
1.23986e-07
1.74536e-08
-1.73999e-07
1.97959e-08
-2.00137e-07
1.57672e-08
-2.06354e-07
7.3786e-09
-2.08111e-07
-2.22533e-09
-2.08183e-07
-1.13704e-08
-2.08448e-07
-1.75453e-08
-2.09504e-07
-2.05077e-08
-2.08128e-07
-1.73253e-08
-2.01814e-07
-1.75322e-07
8.79191e-09
-1.82791e-07
9.76502e-09
-2.0111e-07
8.93483e-09
-2.05523e-07
5.05968e-09
-2.04236e-07
1.19617e-09
-2.0432e-07
-2.55067e-09
-2.04701e-07
-6.9926e-09
-2.05062e-07
-8.50406e-09
-2.06616e-07
-8.39485e-09
-2.01923e-07
-1.83717e-07
7.68174e-09
-1.90473e-07
5.59603e-09
-1.99024e-07
6.47738e-09
-2.06405e-07
1.70754e-09
-1.99466e-07
3.30583e-10
-2.02943e-07
-1.12915e-09
-2.03242e-07
-6.28683e-09
-1.99904e-07
-5.41609e-09
-2.07487e-07
-7.52236e-09
-1.99817e-07
-1.91239e-07
3.34274e-08
3.55639e-08
2.45217e-08
1.4591e-08
-1.03001e-09
-1.62105e-08
-2.46592e-08
-3.56888e-08
-3.35057e-08
6.23175e-08
-2.07556e-08
-4.1562e-08
7.68473e-08
-1.45295e-08
8.69264e-08
-1.00791e-08
8.95064e-08
-2.58001e-09
8.65397e-08
2.96664e-09
7.75265e-08
9.01327e-09
6.51477e-08
1.23788e-08
5.07429e-08
1.44047e-08
3.78465e-08
1.28963e-08
1.07626e-08
2.70837e-08
9.3975e-08
-2.17208e-08
-9.30096e-08
8.60321e-08
-6.58637e-09
6.94634e-08
6.48968e-09
5.21612e-08
1.47221e-08
3.69967e-08
1.81311e-08
2.1237e-08
2.47728e-08
5.96188e-09
2.76538e-08
-6.57593e-09
2.69423e-08
-1.10696e-08
1.73898e-08
3.90557e-09
-4.21269e-09
9.99011e-08
-6.31772e-09
-1.15304e-07
6.01648e-08
3.31502e-08
1.63968e-08
5.02578e-08
-6.22475e-09
3.73437e-08
-1.8186e-08
3.00923e-08
-2.45792e-08
3.11661e-08
-3.0437e-08
3.35115e-08
-4.0749e-08
3.72543e-08
-5.4239e-08
3.08797e-08
-6.0117e-10
-4.97323e-08
7.84631e-08
4.45704e-08
-1.29351e-07
1.09563e-08
1.00657e-07
-2.01187e-09
6.3226e-08
-1.09379e-08
4.62698e-08
-3.77701e-08
5.69245e-08
-5.23902e-08
4.57863e-08
-5.60744e-08
3.71956e-08
-4.71704e-08
2.83502e-08
-1.87744e-08
2.48373e-09
-1.35274e-08
-5.84827e-09
4.13702e-08
1.07248e-07
-1.04048e-07
-1.1256e-08
1.53283e-07
-4.65443e-09
5.66244e-08
-1.57946e-08
5.741e-08
-3.54624e-08
7.65923e-08
-6.12781e-08
7.16019e-08
-5.95422e-08
3.54596e-08
-2.08472e-08
-1.03448e-08
2.04168e-08
-3.87801e-08
-4.04704e-08
4.73599e-08
-5.05671e-08
1.18558e-07
3.92578e-08
-3.33512e-08
1.36067e-07
-4.38708e-08
6.71439e-08
-3.36232e-08
4.71622e-08
-6.6327e-09
4.96017e-08
3.23832e-08
3.2586e-08
5.76173e-08
1.02256e-08
8.27766e-08
-3.5504e-08
8.98279e-08
-4.58314e-08
-4.32935e-08
9.2651e-08
-5.25982e-08
1.04363e-07
6.67928e-08
-1.43473e-08
9.78157e-08
1.98428e-09
5.08123e-08
1.99387e-08
2.92077e-08
5.64249e-08
1.31155e-08
8.63021e-08
2.70883e-09
1.10966e-07
-1.44386e-08
1.03577e-07
-2.81148e-08
8.62545e-08
-2.8509e-08
-2.13973e-08
6.43582e-08
-4.69237e-08
6.35951e-08
8.76913e-08
-8.5102e-09
5.94021e-08
8.66091e-09
3.36411e-08
2.69778e-08
1.08908e-08
3.66949e-08
3.39845e-09
4.42024e-08
-4.7986e-09
4.32441e-08
-1.34803e-08
3.10345e-08
-1.59053e-08
1.60616e-08
-1.35363e-08
-5.83401e-09
4.98176e-10
-1.05133e-07
3.68275e-08
1.319e-07
-7.62901e-08
3.05598e-08
-5.66965e-08
1.40475e-08
-4.87286e-08
2.92285e-09
-4.05021e-08
-4.82812e-09
-3.08958e-08
-1.44051e-08
-2.38096e-08
-2.05668e-08
-2.08498e-08
-1.88652e-08
-2.67153e-08
-7.67093e-09
6.97436e-09
-3.95238e-08
-1.74418e-07
2.05465e-08
1.90699e-07
-1.56565e-07
1.27076e-08
-1.46146e-07
3.62793e-09
-1.39347e-07
-3.87571e-09
-1.30576e-07
-1.35993e-08
-1.22374e-07
-2.26077e-08
-1.18243e-07
-2.46979e-08
-1.14464e-07
-2.26441e-08
-1.10714e-07
-1.14215e-08
6.71196e-09
-1.10451e-07
-1.72817e-07
9.09824e-09
1.84265e-07
-1.60117e-07
7.44493e-12
-1.49872e-07
-6.6169e-09
-1.45202e-07
-8.54588e-09
-1.49827e-07
-8.97446e-09
-1.54563e-07
-1.78711e-08
-1.59679e-07
-1.95828e-08
-1.57469e-07
-2.48539e-08
-1.42994e-07
-2.58972e-08
-1.43903e-08
-1.21892e-07
-6.88581e-08
-1.84836e-08
9.64399e-08
-4.68573e-08
-2.19934e-08
-3.06906e-08
-2.27837e-08
-2.32283e-08
-1.60083e-08
-3.39766e-08
1.77372e-09
-4.35804e-08
-8.26751e-09
-4.81431e-08
-1.50203e-08
-5.37436e-08
-1.92537e-08
-5.02673e-08
-2.93738e-08
-3.15816e-08
-3.30763e-08
6.52701e-08
-5.35704e-08
-3.01833e-08
8.32522e-08
-3.99758e-08
8.97588e-08
-2.92904e-08
9.29226e-08
-1.91722e-08
9.45319e-08
1.64333e-10
8.5448e-08
8.16194e-10
8.05852e-08
-1.01578e-08
7.18123e-08
-1.04812e-08
5.39812e-08
-1.1543e-08
-2.16492e-08
4.40486e-08
1.92929e-07
-7.50047e-08
-1.71495e-07
1.99643e-07
-4.66897e-08
1.93669e-07
-2.33165e-08
1.862e-07
-1.17029e-08
1.77816e-07
8.54827e-09
1.62049e-07
1.65825e-08
1.41431e-07
1.04603e-08
1.20671e-07
1.02783e-08
9.64137e-08
1.27142e-08
4.25599e-09
7.05083e-08
2.31596e-07
-8.70099e-08
-2.19591e-07
2.5142e-07
-6.65145e-08
2.6416e-07
-3.6056e-08
2.55407e-07
-2.95008e-09
2.3308e-07
3.08752e-08
1.95022e-07
5.46398e-08
1.4295e-07
6.25323e-08
1.00415e-07
5.28134e-08
6.33351e-08
4.97946e-08
3.25562e-08
3.50348e-08
2.27121e-07
-8.70967e-08
-2.27035e-07
2.30715e-07
-7.01084e-08
2.35404e-07
-4.07443e-08
2.3984e-07
-7.38659e-09
2.2322e-07
4.74953e-08
1.78755e-07
9.91048e-08
1.35131e-07
1.06157e-07
8.88863e-08
9.90582e-08
3.74647e-08
1.01216e-07
7.97609e-08
-9.74001e-09
2.16847e-07
-8.72755e-08
-2.16669e-07
2.17765e-07
-7.10259e-08
2.17135e-07
-4.01141e-08
2.22538e-07
-1.27891e-08
1.96493e-07
7.35402e-08
1.46233e-07
1.49365e-07
1.09933e-07
1.42457e-07
6.74034e-08
1.41588e-07
1.0742e-08
1.57878e-07
1.33625e-07
-4.31219e-08
2.0545e-07
-1.19065e-07
-1.73661e-07
2.0062e-07
-6.61954e-08
1.52247e-07
8.25809e-09
1.02465e-07
3.69936e-08
6.80639e-08
1.07941e-07
5.37881e-08
1.63641e-07
1.56845e-08
1.8056e-07
-3.80512e-08
1.95324e-07
-9.82346e-08
2.18061e-07
1.65389e-07
-1.29999e-07
-8.49945e-08
-1.07617e-07
7.3547e-08
-1.16896e-07
-3.42942e-08
-1.59081e-07
5.04435e-08
-1.97045e-07
7.49583e-08
-1.9728e-07
1.08176e-07
-1.77258e-07
1.43619e-07
-1.89384e-07
1.92686e-07
-2.09221e-07
2.15161e-07
-2.04901e-07
2.13741e-07
1.6547e-07
-2.04982e-07
-2.8377e-07
-7.67343e-08
2.52887e-07
-3.22182e-07
4.11778e-09
-3.31463e-07
5.97253e-08
-3.38283e-07
8.17776e-08
-3.278e-07
9.76935e-08
-3.19726e-07
1.35544e-07
-2.9714e-07
1.701e-07
-2.65532e-07
1.83552e-07
-2.34373e-07
1.82582e-07
1.66616e-07
-2.35518e-07
-3.4271e-07
-2.43995e-08
2.90375e-07
-3.71966e-07
3.33731e-08
-3.70284e-07
5.8043e-08
-3.56074e-07
6.75682e-08
-3.37572e-07
7.91912e-08
-3.06754e-07
1.04726e-07
-2.72535e-07
1.35881e-07
-2.48229e-07
1.59247e-07
-2.24917e-07
1.5927e-07
1.68146e-07
-2.26447e-07
-3.52218e-07
5.44081e-09
3.22378e-07
-3.56806e-07
3.79609e-08
-3.51059e-07
5.2296e-08
-3.44436e-07
6.09449e-08
-3.34602e-07
6.93571e-08
-3.17085e-07
8.72094e-08
-2.93171e-07
1.11967e-07
-2.66452e-07
1.32528e-07
-2.59744e-07
1.52561e-07
1.79803e-07
-2.714e-07
-3.65686e-07
2.65782e-08
3.4455e-07
-3.71193e-07
4.34678e-08
-3.71699e-07
5.28015e-08
-3.74217e-07
6.34637e-08
-3.78656e-07
7.37961e-08
-3.77829e-07
8.63825e-08
-3.66338e-07
1.00477e-07
-3.53514e-07
1.19704e-07
-3.51714e-07
1.50761e-07
1.86808e-07
-3.5872e-07
-4.34698e-07
4.65283e-08
4.14748e-07
-4.49816e-07
5.85863e-08
-4.64176e-07
6.71617e-08
-4.75736e-07
7.50239e-08
-4.79455e-07
7.75147e-08
-4.73256e-07
8.01843e-08
-4.5887e-07
8.60905e-08
-4.42372e-07
1.03205e-07
-4.31044e-07
1.39433e-07
1.71679e-07
-4.15915e-07
-4.80688e-07
6.68904e-08
4.60326e-07
-4.9788e-07
7.5778e-08
-5.10836e-07
8.01179e-08
-5.19601e-07
8.37887e-08
-5.24517e-07
8.24318e-08
-5.22153e-07
7.78201e-08
-5.13786e-07
7.77235e-08
-4.96654e-07
8.60733e-08
-4.65768e-07
1.08547e-07
1.29329e-07
-4.23418e-07
-4.7293e-07
7.6553e-08
4.63268e-07
-4.88112e-07
9.09594e-08
-5.02792e-07
9.47983e-08
-5.1438e-07
9.53762e-08
-5.23315e-07
9.13675e-08
-5.26432e-07
8.09367e-08
-5.19521e-07
7.08126e-08
-5.00654e-07
6.72061e-08
-4.6417e-07
7.20635e-08
9.04172e-08
-4.25259e-07
-4.34678e-07
8.37879e-08
4.27443e-07
-4.45085e-07
1.01366e-07
-4.59775e-07
1.09488e-07
-4.73508e-07
1.09109e-07
-4.85645e-07
1.03504e-07
-4.95403e-07
9.06951e-08
-4.98392e-07
7.38017e-08
-4.96136e-07
6.49498e-08
-4.8963e-07
6.5558e-08
6.1619e-08
-4.60832e-07
-3.20342e-07
1.04526e-07
2.99603e-07
-3.28564e-07
1.09589e-07
-3.36497e-07
1.17421e-07
-3.47721e-07
1.20333e-07
-3.62219e-07
1.18003e-07
-3.76228e-07
1.04704e-07
-3.87183e-07
8.4756e-08
-3.89813e-07
6.75806e-08
-3.7996e-07
5.57047e-08
5.44724e-08
-3.72813e-07
-2.1305e-07
1.00993e-07
2.16584e-07
-2.06138e-07
1.02678e-07
-1.96537e-07
1.0782e-07
-1.87336e-07
1.11132e-07
-1.73056e-07
1.03723e-07
-1.66587e-07
9.82358e-08
-1.65931e-07
8.40994e-08
-1.66535e-07
6.81847e-08
-1.43238e-07
3.24076e-08
3.04616e-08
-1.19227e-07
-2.28561e-07
6.54893e-08
2.64065e-07
-1.85975e-07
6.00924e-08
-1.50938e-07
7.27825e-08
-1.13018e-07
7.3212e-08
-8.01827e-08
7.08888e-08
-5.28259e-08
7.08792e-08
-1.43646e-08
4.56381e-08
2.40229e-08
2.97972e-08
5.07914e-08
5.63936e-09
4.47905e-09
7.67739e-08
-1.98481e-07
6.8664e-08
1.95306e-07
-1.89323e-07
5.09351e-08
-1.62981e-07
4.64407e-08
-1.31998e-07
4.2229e-08
-9.67892e-08
3.568e-08
-6.28304e-08
3.69208e-08
-2.03535e-08
3.16135e-09
3.07284e-08
-2.12847e-08
8.02538e-08
-4.3886e-08
-2.36265e-08
1.0836e-07
-8.36318e-08
3.33635e-08
1.18932e-07
-6.71929e-08
3.44969e-08
-7.05855e-08
4.98335e-08
-7.41887e-08
4.58321e-08
-7.97528e-08
4.12438e-08
-7.17085e-08
2.88764e-08
-4.8238e-08
-2.0309e-08
-1.0627e-09
-6.84597e-08
4.70837e-08
-9.20323e-08
-6.20652e-08
8.55225e-08
-7.56169e-08
-1.08735e-09
1.10068e-07
-3.01595e-08
-1.09608e-08
1.30207e-08
6.65335e-09
3.05108e-08
2.83422e-08
2.7002e-08
4.47525e-08
1.77263e-08
3.81518e-08
2.17074e-09
-4.75367e-09
5.24977e-09
-7.15388e-08
2.72637e-08
-1.14046e-07
-7.38871e-08
3.90856e-08
-1.07675e-07
-2.0886e-08
1.27474e-07
-7.61034e-08
-4.25323e-08
-2.93672e-08
-4.00832e-08
-3.4711e-09
2.44571e-09
1.36702e-08
2.7611e-08
3.88995e-08
1.29225e-08
5.87979e-08
-2.46519e-08
4.88367e-08
-6.15776e-08
4.48644e-08
-1.10074e-07
-7.74592e-08
4.84365e-08
-1.34115e-07
-2.48736e-08
1.38103e-07
-1.29896e-07
-4.67519e-08
-1.1699e-07
-5.29889e-08
-9.45045e-08
-2.00395e-08
-6.07274e-08
-6.16604e-09
-2.51394e-08
-2.26657e-08
5.79378e-09
-5.55852e-08
1.33686e-08
-6.91525e-08
6.03914e-09
-1.02745e-07
-1.03939e-07
3.25185e-08
-1.80604e-07
-2.56099e-08
1.8134e-07
-1.87555e-07
-3.98025e-08
-1.95179e-07
-4.53647e-08
-1.78101e-07
-3.71177e-08
-1.36797e-07
-4.74701e-08
-9.0353e-08
-6.911e-08
-4.90137e-08
-9.69246e-08
-2.07426e-09
-1.16092e-07
3.02315e-08
-1.35051e-07
-1.41755e-07
6.8048e-08
-2.34903e-07
-1.31021e-08
2.22396e-07
-2.48632e-07
-2.60741e-08
-2.52475e-07
-4.15223e-08
-2.30194e-07
-5.9399e-08
-2.01369e-07
-7.62952e-08
-1.6818e-07
-1.02299e-07
-1.31377e-07
-1.33728e-07
-7.22206e-08
-1.75248e-07
2.48868e-08
-2.32158e-07
-2.30175e-07
1.13307e-07
-3.07954e-07
2.81566e-08
2.66695e-07
-3.26486e-07
-7.54259e-09
-3.18371e-07
-4.96377e-08
-3.01587e-07
-7.61833e-08
-2.82849e-07
-9.50322e-08
-2.53177e-07
-1.31972e-07
-1.89872e-07
-1.97033e-07
-3.28618e-08
-3.32258e-07
1.27595e-07
-3.92615e-07
-3.5621e-07
2.53629e-07
-4.70831e-07
7.08589e-08
4.28128e-07
-4.72021e-07
-6.35247e-09
-4.39204e-07
-8.24551e-08
-3.80811e-07
-1.34577e-07
-2.88078e-07
-1.87765e-07
-1.41524e-07
-2.78527e-07
9.43677e-08
-4.32924e-07
3.2577e-07
-5.63661e-07
4.83932e-07
-5.50776e-07
-4.68344e-07
5.96066e-07
-5.36583e-07
1.42641e-08
5.93178e-07
-4.71368e-07
-7.15682e-08
-3.8652e-07
-1.67303e-07
-2.62061e-07
-2.59036e-07
-7.38731e-08
-3.75953e-07
1.77485e-07
-5.29885e-07
4.23729e-07
-6.79168e-07
5.53813e-07
-6.93745e-07
6.22973e-07
-6.19935e-07
-5.04564e-07
6.59193e-07
-4.35571e-07
-7.23626e-08
5.22197e-07
-3.46337e-07
-1.60802e-07
-2.67213e-07
-2.46426e-07
-1.38079e-07
-3.8817e-07
7.39766e-08
-5.88008e-07
2.88764e-07
-7.44672e-07
4.12383e-07
-8.02788e-07
4.16652e-07
-6.98013e-07
3.54184e-07
-5.57467e-07
-4.78422e-07
3.28042e-07
-3.71151e-07
-1.4856e-07
4.47348e-07
-3.21298e-07
-2.10655e-07
-2.81987e-07
-2.85738e-07
-2.07594e-07
-4.62564e-07
-8.98559e-08
-7.05746e-07
-3.36604e-08
-8.00867e-07
-6.72352e-08
-7.69213e-07
-1.54874e-07
-6.10373e-07
-2.06396e-07
-5.05945e-07
-4.9445e-07
-1.90368e-07
-4.50326e-07
-2.35615e-07
5.37381e-07
-3.76806e-07
-2.84174e-07
-3.39227e-07
-3.23318e-07
-3.12653e-07
-4.89137e-07
-2.98785e-07
-7.19614e-07
-3.18207e-07
-7.81446e-07
-3.26243e-07
-7.61177e-07
-3.1107e-07
-6.25547e-07
-2.96743e-07
-5.20272e-07
-5.02248e-07
-2.88945e-07
-4.8519e-07
-3.86759e-07
6.36334e-07
-3.93963e-07
-3.754e-07
-3.36036e-07
-3.81244e-07
-3.61013e-07
-4.6416e-07
-4.04011e-07
-6.76616e-07
-4.32486e-07
-7.5297e-07
-4.32389e-07
-7.61274e-07
-3.98417e-07
-6.59519e-07
-3.57059e-07
-5.61629e-07
-5.35854e-07
-3.23453e-07
-4.45872e-07
-4.61968e-07
5.21081e-07
-3.45306e-07
-4.75967e-07
-2.78283e-07
-4.48267e-07
-3.06984e-07
-4.3546e-07
-4.14495e-07
-5.69105e-07
-4.54989e-07
-7.12476e-07
-4.60579e-07
-7.55684e-07
-4.0745e-07
-7.12647e-07
-3.42575e-07
-6.26505e-07
-5.76497e-07
-3.01932e-07
-2.31918e-07
-4.10821e-07
1.8077e-07
-2.09029e-07
-4.98857e-07
-1.39429e-07
-5.17867e-07
-1.20307e-07
-4.54583e-07
-2.45105e-07
-4.44306e-07
-3.66612e-07
-5.90969e-07
-3.96047e-07
-7.26249e-07
-3.49766e-07
-7.58929e-07
-2.57204e-07
-7.19066e-07
-6.48547e-07
-1.85153e-07
3.43715e-08
-3.40202e-07
-1.04991e-07
-1.99956e-08
-4.44491e-07
-3.29452e-08
-5.04918e-07
3.1294e-09
-4.90658e-07
-4.2667e-08
-3.9851e-07
-1.50876e-07
-4.82759e-07
-2.45837e-07
-6.31287e-07
-2.63656e-07
-7.4111e-07
-1.92311e-07
-7.90412e-07
-7.63107e-07
-7.77509e-08
2.04281e-07
-2.82996e-07
-2.61487e-07
1.7673e-07
-4.16943e-07
1.41273e-07
-4.6946e-07
1.12619e-07
-4.62004e-07
1.07562e-07
-3.93452e-07
8.54588e-08
-4.60656e-07
-1.93224e-08
-5.26506e-07
-1.31311e-07
-6.29121e-07
-1.64e-07
-7.57722e-07
-8.60443e-07
-6.66627e-08
3.19609e-07
-2.90392e-07
-3.12214e-07
3.14045e-07
-4.11382e-07
2.74226e-07
-4.29641e-07
2.53162e-07
-4.4094e-07
2.49776e-07
-3.90066e-07
2.5468e-07
-4.65559e-07
2.2953e-07
-5.01356e-07
1.46468e-07
-5.46059e-07
5.10704e-08
-6.62324e-07
-8.4851e-07
3.91369e-08
3.55363e-07
-3.35999e-07
-3.09757e-07
3.17341e-07
-3.73359e-07
2.82607e-07
-3.94907e-07
2.52348e-07
-4.10681e-07
2.8644e-07
-4.24159e-07
3.05043e-07
-4.84162e-07
3.16e-07
-5.12313e-07
3.06362e-07
-5.36421e-07
2.61365e-07
-6.17327e-07
-8.25588e-07
2.38443e-07
3.15618e-07
-3.54529e-07
-2.97088e-07
2.89128e-07
-3.46868e-07
2.59352e-07
-3.65132e-07
2.61643e-07
-4.12972e-07
2.79157e-07
-4.41672e-07
3.1069e-07
-5.15695e-07
3.26086e-07
-5.27709e-07
3.29673e-07
-5.40008e-07
3.36577e-07
-6.24232e-07
-8.51328e-07
3.62317e-07
3.70304e-07
-3.05284e-07
-4.19548e-07
3.42244e-07
-3.18808e-07
3.30624e-07
-3.53512e-07
3.17055e-07
-3.99404e-07
3.06447e-07
-4.31064e-07
3.24198e-07
-5.33447e-07
3.26218e-07
-5.29728e-07
3.26622e-07
-5.40412e-07
3.83441e-07
-6.8105e-07
-8.94618e-07
4.26731e-07
4.95356e-07
-2.41793e-07
-5.58847e-07
4.65613e-07
-2.89066e-07
4.54258e-07
-3.42156e-07
4.27785e-07
-3.72931e-07
4.12297e-07
-4.15577e-07
3.89912e-07
-5.11062e-07
3.36977e-07
-4.76794e-07
3.41944e-07
-5.45378e-07
4.41821e-07
-7.80928e-07
-9.19105e-07
4.66308e-07
5.74708e-07
-2.23839e-07
-5.92662e-07
5.62301e-07
-2.7666e-07
5.34983e-07
-3.14839e-07
5.08068e-07
-3.46016e-07
4.97097e-07
-4.04605e-07
3.72273e-07
-3.86237e-07
3.08183e-07
-4.12705e-07
3.80919e-07
-6.18113e-07
4.72024e-07
-8.72033e-07
-9.34204e-07
4.87123e-07
6.28158e-07
-1.97639e-07
-6.54359e-07
5.94058e-07
-2.4256e-07
5.48094e-07
-2.68875e-07
5.10545e-07
-3.08468e-07
4.14009e-07
-3.08068e-07
3.28692e-07
-3.0092e-07
3.25093e-07
-4.09106e-07
4.38702e-07
-7.31722e-07
4.66229e-07
-8.9956e-07
-9.0467e-07
4.36695e-07
6.358e-07
-1.34574e-07
-6.98865e-07
5.75102e-07
-1.81861e-07
5.17636e-07
-2.11409e-07
4.37934e-07
-2.28766e-07
3.38445e-07
-2.08579e-07
2.78039e-07
-2.40515e-07
3.55822e-07
-4.8689e-07
4.5726e-07
-8.3316e-07
4.78133e-07
-9.20434e-07
-8.02863e-07
3.76326e-07
6.00636e-07
-6.24579e-08
-6.72753e-07
5.26885e-07
-1.0811e-07
4.44568e-07
-1.29093e-07
3.49456e-07
-1.33653e-07
2.65614e-07
-1.24739e-07
2.53914e-07
-2.28814e-07
3.99094e-07
-6.3207e-07
4.43921e-07
-8.77988e-07
4.24451e-07
-9.00964e-07
-6.07414e-07
2.29002e-07
6.11463e-07
-9.85671e-09
-6.64064e-07
5.47175e-07
-4.38224e-08
4.67016e-07
-4.89334e-08
3.07164e-07
2.61981e-08
1.9602e-07
-1.35954e-08
2.58019e-07
-2.90812e-07
4.03011e-07
-7.77062e-07
4.19875e-07
-8.94852e-07
3.31029e-07
-8.12118e-07
-3.89104e-07
1.12718e-07
6.14117e-07
1.82974e-08
-6.42272e-07
5.34218e-07
3.6078e-08
3.05868e-07
1.79417e-07
1.31125e-07
2.0094e-07
8.43982e-08
3.31311e-08
2.71499e-07
-4.77914e-07
3.84022e-07
-8.89585e-07
4.10667e-07
-9.21497e-07
3.73609e-07
-7.75058e-07
-1.77749e-07
1.62253e-07
4.6087e-07
7.30226e-08
-5.15595e-07
2.85613e-07
2.11336e-07
1.87376e-08
4.46292e-07
2.47465e-08
1.94931e-07
7.29331e-08
-1.50546e-08
2.82708e-07
-6.87689e-07
3.47976e-07
-9.54853e-07
3.38934e-07
-9.12456e-07
5.88032e-08
-4.94926e-07
-6.65023e-08
-5.24439e-08
1.38307e-07
1.76965e-07
-2.42249e-07
9.98234e-09
3.39659e-07
-1.7035e-08
4.73308e-07
2.36865e-08
1.54208e-07
1.3842e-07
-1.29788e-07
3.15413e-07
-8.64682e-07
3.71911e-07
-1.01135e-06
3.97451e-07
-9.37996e-07
2.88403e-07
-3.85878e-07
8.82078e-08
1.33692e-07
6.31119e-08
2.95968e-07
-1.82116e-07
1.15993e-08
3.91174e-07
7.06614e-08
4.14247e-07
4.06808e-08
1.84189e-07
2.72348e-07
-3.61455e-07
3.87902e-07
-9.80235e-07
3.87719e-07
-1.01117e-06
2.90292e-07
-8.40569e-07
3.21037e-08
-1.27691e-07
2.02666e-07
-8.23551e-08
1.26027e-07
3.36041e-07
-1.66101e-07
1.16288e-07
4.00913e-07
1.63107e-07
3.67428e-07
1.19289e-07
2.28006e-07
3.95978e-07
-6.38144e-07
4.66249e-07
-1.05051e-06
5.11003e-07
-1.05592e-06
3.71752e-07
-7.01317e-07
7.40919e-08
1.69972e-07
3.60861e-07
-8.4102e-08
1.23853e-07
3.89913e-07
-1.77724e-07
1.20305e-07
4.04462e-07
1.66794e-07
3.20938e-07
1.36361e-07
2.5844e-07
3.91745e-07
-8.93527e-07
4.64926e-07
-1.12369e-06
4.85483e-07
-1.07648e-06
2.49591e-07
-4.65428e-07
-5.35587e-08
4.73119e-07
3.47767e-07
-4.04648e-08
6.09567e-08
3.79666e-07
-5.07096e-08
8.63553e-08
3.79063e-07
1.59899e-08
3.91303e-07
9.61256e-08
1.78304e-07
2.74821e-07
-1.07222e-06
3.25115e-07
-1.17398e-06
3.47119e-07
-1.09848e-06
-1.2888e-07
1.05722e-08
-1.59462e-07
5.03702e-07
2.44901e-07
-5.65965e-08
-2.92523e-07
3.46025e-07
3.26165e-07
-2.9992e-07
3.8646e-07
-3.34889e-07
4.26272e-07
1.31773e-07
-2.88359e-07
1.58879e-07
-1.09933e-06
1.24944e-07
-1.14005e-06
-4.21973e-09
-9.69321e-07
-3.6445e-07
3.70801e-07
-3.33542e-07
4.72794e-07
1.01318e-07
-1.89961e-07
-9.13352e-07
3.53851e-07
9.05526e-07
-8.63581e-07
3.36698e-07
-5.64942e-07
1.27633e-07
4.62593e-08
-8.99559e-07
5.0697e-08
-1.10377e-06
2.1294e-08
-1.11064e-06
-1.30642e-08
-9.34962e-07
-1.75691e-07
5.33428e-07
-2.36747e-07
5.33847e-07
2.24312e-07
-3.59737e-07
-5.8694e-07
2.41346e-07
6.99445e-07
-3.66321e-07
1.16079e-07
-1.70844e-07
-6.78453e-08
6.038e-09
-1.07644e-06
1.44764e-09
-1.09918e-06
-1.29152e-08
-1.09628e-06
3.09737e-08
-9.78851e-07
-6.23186e-08
6.2672e-07
-1.33492e-07
6.05022e-07
3.52174e-07
-2.6135e-07
-8.06222e-08
9.40916e-08
2.27877e-07
3.4389e-08
1.06351e-09
1.70892e-09
-3.51637e-08
-1.19792e-08
-1.06276e-06
-2.51849e-08
-1.08597e-06
-4.71105e-08
-1.07436e-06
-2.53127e-09
-1.02343e-06
-8.54156e-08
7.09605e-07
-1.49157e-07
6.68765e-07
5.14371e-07
-3.11362e-07
1.03271e-07
-3.4574e-08
2.53945e-08
8.49748e-08
1.93581e-08
1.60844e-08
3.37262e-08
2.06887e-08
-1.06736e-06
-6.17675e-10
-1.06466e-06
-1.49771e-08
-1.06e-06
-1.2425e-08
-1.02598e-06
-8.57901e-08
7.82969e-07
-1.0875e-07
6.91725e-07
6.51136e-07
-2.45515e-07
-2.23825e-08
3.84791e-08
-5.06725e-08
-2.90834e-07
2.87809e-07
-1.34784e-08
-2.4363e-07
1.95063e-08
-1.10035e-06
-1.13179e-10
-1.04504e-06
-1.3056e-08
-1.04705e-06
-1.33233e-08
-1.02572e-06
-1.36764e-08
7.83322e-07
-2.31352e-09
6.80365e-07
6.36135e-07
1.26776e-08
-4.53058e-07
6.19782e-08
4.29556e-07
-1.38798e-07
-2.64595e-08
8.28266e-08
-4.65254e-07
1.94087e-08
-1.03692e-06
-1.15585e-09
-1.02448e-06
-2.19346e-08
-1.02627e-06
-1.91495e-08
-1.0285e-06
1.80157e-07
5.84015e-07
3.09039e-07
5.51486e-07
5.36639e-07
4.08533e-07
-3.53508e-07
-3.64714e-08
4.51957e-07
-7.69349e-08
-3.0303e-07
2.20219e-08
-5.64216e-07
9.64289e-09
-1.02454e-06
-8.21119e-09
-1.00663e-06
-3.16548e-08
-1.00283e-06
-4.09933e-08
-1.01916e-06
5.30686e-07
1.23454e-08
8.24369e-07
2.57791e-07
3.83698e-07
9.77321e-07
-6.578e-08
6.33947e-08
-3.40817e-08
-9.69541e-08
-2.71856e-07
2.99945e-08
-6.91176e-07
1.03863e-08
-1.00494e-06
-4.7096e-09
-9.9153e-07
-2.53487e-08
-9.82191e-07
-3.9501e-08
-1.00501e-06
4.88383e-07
-5.15532e-07
7.57968e-07
-1.18063e-08
2.22842e-07
9.18821e-07
2.55855e-07
1.0885e-07
-3.01311e-07
9.92719e-08
-1.1526e-07
7.33363e-08
-6.65236e-07
5.57558e-08
-9.87353e-07
3.0066e-08
-9.6584e-07
1.76798e-08
-9.69805e-07
-4.7473e-10
-9.86856e-07
1.35315e-07
-6.5132e-07
1.98063e-07
-7.45441e-08
1.05782e-07
3.15103e-07
1.3887e-07
1.40511e-07
-1.7053e-07
7.52555e-08
-5.16503e-08
6.23513e-08
-6.52329e-07
4.24743e-08
-9.67473e-07
2.4241e-08
-9.47607e-07
6.09632e-09
-9.5166e-07
-1.36566e-08
-9.67103e-07
-2.09714e-09
-6.6288e-07
1.53047e-08
-9.19417e-08
7.0239e-08
5.08424e-08
6.79584e-08
1.76012e-07
-1.03457e-07
4.16919e-08
-2.53913e-08
5.01261e-08
-6.60764e-07
3.04403e-08
-9.47792e-07
1.188e-08
-9.29047e-07
-8.17667e-09
-9.31604e-07
-2.81482e-08
-9.47131e-07
-4.59799e-08
-6.4506e-07
-6.16205e-08
-7.6304e-08
6.56866e-08
-5.7073e-08
1.87945e-08
2.16924e-07
-5.97044e-08
3.50252e-08
-4.1619e-08
4.19239e-08
-6.67657e-07
2.19049e-08
-9.27777e-07
-2.92584e-10
-9.0685e-07
-2.10146e-08
-9.10882e-07
-4.11896e-08
-9.26954e-07
-7.17441e-08
-6.14505e-07
-1.00336e-07
-4.77029e-08
6.06889e-08
-9.53468e-08
-4.05486e-08
2.51448e-07
6.02185e-09
2.46416e-08
-1.06818e-07
2.4035e-08
-6.6706e-07
3.93285e-09
-9.07678e-07
-1.6563e-08
-8.86354e-07
-3.81802e-08
-8.89265e-07
-5.80713e-08
-9.07063e-07
-6.57436e-08
-6.06839e-07
-7.19708e-08
-4.14679e-08
4.8694e-08
-5.99771e-08
3.31446e-10
2.28399e-07
2.2715e-08
1.64114e-08
-1.22901e-07
1.03326e-08
-6.60993e-07
-1.14113e-08
-8.85935e-07
-2.87719e-08
-8.68993e-07
-5.66101e-08
-8.61427e-07
-7.73573e-08
-8.86317e-07
-6.87991e-08
-6.15394e-07
-5.81922e-08
-5.20779e-08
3.58686e-08
-4.53718e-08
3.88909e-08
1.66592e-07
2.29145e-08
3.41719e-08
-1.18183e-07
4.64337e-08
-6.73258e-07
2.58991e-08
-8.654e-07
-8.15634e-10
-8.42278e-07
-2.26884e-08
-8.39554e-07
-4.35976e-08
-8.65408e-07
-5.85943e-08
-6.00387e-07
-6.64248e-08
-4.42459e-08
4.05218e-08
-7.10825e-08
6.20608e-08
8.50184e-08
1.95107e-08
6.13471e-08
-1.17472e-07
6.51718e-08
-6.77086e-07
4.24489e-08
-8.42674e-07
1.38074e-08
-8.13637e-07
-5.24772e-09
-8.20499e-07
-2.80374e-08
-8.42619e-07
-4.82632e-08
-5.80154e-07
-7.42716e-08
-1.82475e-08
5.56421e-08
-8.9393e-08
2.1629e-08
2.82195e-08
3.51704e-08
5.22449e-08
-1.48083e-07
4.36235e-08
-6.68471e-07
2.02582e-08
-8.19308e-07
-2.3214e-09
-7.91057e-07
-3.16036e-08
-7.91217e-07
-5.48992e-08
-8.19323e-07
-5.46409e-08
-5.80399e-07
-6.26415e-08
-1.02431e-08
7.82447e-08
-8.52532e-08
5.31603e-08
1.78799e-08
-4.282e-08
5.94819e-08
-1.54399e-07
4.59728e-08
-6.54953e-07
1.98508e-08
-7.93185e-07
-2.55363e-10
-7.70951e-07
-2.53436e-08
-7.66129e-07
-4.99206e-08
-7.94747e-07
-6.08892e-08
-5.69433e-07
-1.00594e-07
2.94702e-08
1.10896e-07
-1.33245e-07
1.0524e-07
1.77406e-08
-1.05105e-07
9.06007e-08
-1.39779e-07
7.60604e-08
-6.40412e-07
5.034e-08
-7.67467e-07
2.02615e-08
-7.40873e-07
-1.67348e-09
-7.44194e-07
-2.86157e-08
-7.67804e-07
-5.38345e-08
-5.44213e-07
-9.98769e-08
7.55181e-08
1.69897e-07
-1.58871e-07
1.16247e-07
2.73767e-08
-1.25885e-07
8.82508e-08
-1.1178e-07
6.00421e-08
-6.12201e-07
3.27625e-08
-7.40184e-07
1.09997e-08
-7.1911e-07
-1.10423e-08
-7.22152e-07
-3.90561e-08
-7.39789e-07
-6.45645e-08
-5.18702e-07
-1.19254e-07
1.3021e-07
2.10417e-07
-1.59771e-07
1.07184e-07
3.2567e-08
-1.12375e-07
8.49473e-08
-8.9541e-08
5.0601e-08
-5.77858e-07
2.30913e-08
-7.12675e-07
-1.2775e-10
-6.95891e-07
-2.93075e-08
-6.92972e-07
-5.69612e-08
-7.12135e-07
-6.39027e-08
-5.11756e-07
-1.10177e-07
1.76488e-07
2.37292e-07
-1.37043e-07
1.02521e-07
3.35346e-08
-1.03487e-07
8.28946e-08
-6.99132e-08
5.19443e-08
-5.46907e-07
2.35228e-08
-6.84258e-07
-1.52213e-09
-6.70846e-07
-2.19045e-08
-6.7259e-07
-4.97154e-08
-6.84324e-07
-6.12245e-08
-5.00242e-07
-6.71926e-08
1.82449e-07
2.17938e-07
-4.78454e-08
1.32064e-07
4.53226e-08
-1.43852e-07
7.99496e-08
-1.77933e-08
5.47899e-08
-5.21743e-07
2.70732e-08
-6.56538e-07
-5.29249e-09
-6.3848e-07
-3.2084e-08
-6.45798e-07
-5.81119e-08
-6.58296e-07
-6.93395e-08
-4.89006e-07
9.96423e-09
1.03153e-07
1.70426e-07
5.74705e-08
8.37424e-08
4.86946e-08
-8.71154e-08
7.32519e-08
-7.31019e-09
5.51503e-08
-5.03642e-07
2.49577e-08
-6.26344e-07
2.97263e-09
-6.16495e-07
-2.88672e-08
-6.13959e-07
-5.76833e-08
-6.2948e-07
-6.66216e-08
-4.80069e-07
4.47588e-08
-8.21622e-09
1.07941e-07
1.07256e-07
-1.66232e-08
1.50587e-08
5.02594e-08
6.14966e-08
-8.54388e-08
7.21741e-08
-5.14316e-07
4.02959e-08
-5.94468e-07
1.35063e-08
-5.89705e-07
-1.86458e-08
-5.81806e-07
-5.18764e-08
-5.9625e-07
-3.70529e-08
-4.94897e-07
4.75866e-08
-9.28549e-08
6.67972e-08
8.87391e-08
-2.25582e-08
-2.17278e-08
5.93434e-08
2.67174e-08
-1.34706e-07
5.34935e-08
-5.41086e-07
2.07203e-08
-5.61694e-07
-2.21582e-08
-5.46827e-07
-3.20588e-08
-5.71906e-07
-6.7192e-08
-5.61117e-07
-3.21788e-08
-5.29911e-07
2.95545e-08
-1.54595e-07
6.39991e-08
3.23555e-08
2.30389e-08
-4.18318e-08
-2.93498e-09
5.2512e-08
-1.64191e-07
1.6147e-08
-5.04719e-07
-2.53408e-08
-5.20207e-07
-4.4286e-08
-5.27882e-07
-9.45405e-08
-5.21651e-07
-1.18325e-07
-5.37332e-07
-1.13003e-07
-5.35232e-07
-6.63292e-08
-2.01263e-07
4.90518e-08
-5.13825e-08
7.72738e-08
-5.77282e-08
-6.13752e-08
9.34803e-08
-1.80406e-07
7.92146e-08
-4.90451e-07
4.86264e-08
-4.89618e-07
1.58076e-08
-4.95063e-07
-1.74753e-08
-4.88369e-07
-6.47567e-08
-4.9005e-07
-1.17393e-07
-4.82595e-07
-9.60276e-08
-2.22627e-07
4.01812e-08
-8.71521e-08
1.40715e-07
-4.51989e-08
-1.53245e-07
1.2212e-07
-1.61818e-07
6.79271e-08
-4.36264e-07
2.62715e-08
-4.47963e-07
-1.4633e-08
-4.54158e-07
-5.18827e-08
-4.51119e-07
-8.78512e-08
-4.54082e-07
-1.29079e-07
-4.41368e-07
-1.37219e-07
-2.14486e-07
1.69298e-08
-1.13965e-07
1.3215e-07
-5.90223e-08
-1.18326e-07
1.6404e-07
-1.93674e-07
1.15836e-07
-3.88058e-07
7.53469e-08
-4.07474e-07
3.50267e-08
-4.13838e-07
-3.85092e-09
-4.12241e-07
-5.56284e-08
-4.02304e-07
-1.07299e-07
-3.89697e-07
-9.5752e-08
-2.26026e-07
-1.25894e-08
-6.62316e-08
7.10328e-08
-7.51909e-08
-5.48659e-08
1.20746e-07
-2.43393e-07
7.55246e-08
-3.42837e-07
2.71178e-08
-3.59067e-07
-1.88616e-08
-3.67859e-07
-6.45556e-08
-3.66547e-07
-1.07034e-07
-3.59826e-07
-1.4751e-07
-3.49221e-07
-7.83939e-08
-2.95141e-07
-6.07997e-08
-3.018e-08
1.06483e-07
-8.27134e-08
-9.89598e-08
1.55118e-07
-2.92026e-07
1.13058e-07
-3.00777e-07
6.45599e-08
-3.10569e-07
9.93683e-09
-3.13236e-07
-3.92326e-08
-3.17378e-07
-8.15931e-08
-3.17465e-07
-1.25427e-07
-3.05387e-07
-1.41601e-07
-2.78967e-07
-9.6438e-08
-1.05964e-07
2.26626e-07
-1.80407e-07
-1.28929e-07
1.5435e-07
-2.1975e-07
1.09606e-07