/*--------------------------------*- C++ -*----------------------------------*\
  =========                 |
  \\      /  F ield         | OpenFOAM: The Open Source CFD Toolbox
   \\    /   O peration     | Website:  https://openfoam.org
    \\  /    A nd           | Version:  8
     \\/     M anipulation  |
\*---------------------------------------------------------------------------*/
FoamFile
{
    version     2.0;
    format      ascii;
    class       volScalarField;
    location    "9.2";
    object      alpha.water;
}
// * * * * * * * * * * * * * * * * * * * * * * * * * * * * * * * * * * * * * //

dimensions      [0 0 0 0 0 0 0];

internalField   nonuniform List<scalar> 
9150
(
1
1
0.999999
0.999999
0.999998
0.999998
0.999999
0.999998
0.999997
0.999998
1
0.999997
0.999997
0.999997
0.999997
0.999997
0.999997
0.999997
0.999997
0.999998
0.999998
0.999997
0.999997
0.999997
0.999997
0.999997
0.999997
0.999997
0.999998
1
0.999998
0.999998
0.999999
0.999999
0.999999
0.999999
0.999999
0.999999
1
1
1
1
1
1
1
1
1
1
1
1
0.999999
1
1
1
1
1
0.999999
1
1
0.999999
0.999997
1
1
1
1
1
1
1
1
0.999999
0.999997
1
1
1
1
1
1
1
1
0.999999
0.999999
1
1
1
1
1
0.999999
1
1
0.999999
1
1
1
0.999999
0.999999
0.999999
0.999999
0.999999
0.999999
0.999999
1
0.999999
1
1
1
1
1
1
1
1
1
0.999999
1
1
1
1
1
1
1
0.999999
1
0.999999
1
1
1
1
1
1
1
1
0.999997
1
1
1
1
0.999999
0.999999
1
1
1
0.999998
1
1
1
1
0.999999
0.999999
1
1
1
0.99941
0.999409
0.999419
0.999419
0.999415
0.999414
0.999413
0.998931
0.998553
0.998778
0.999247
0.999419
0.999419
0.999419
0.999418
0.999314
0.999193
0.997706
0.998055
0.998778
0.997059
0.999418
0.998933
0.999262
0.999418
0.998387
0.995467
0.995467
0.995467
0.997947
0.991987
0.991984
0.991985
0.996211
0.999417
0.999176
0.995522
0.995467
0.995467
0.996336
0.994379
0.991987
0.996927
0.999407
0.999412
0.999407
0.996945
0.995469
0.995468
0.99591
0.997829
0.998812
0.9994
0.9994
0.996079
0.990942
0.995272
0.99873
0.998687
0.995309
0.999398
0.999399
0.999399
0.992968
0.985562
0.990896
0.99873
0.99873
0.997109
0.987084
0.999398
0.999399
0.99694
0.981856
0.995148
0.998005
0.99871
0.996151
0.981449
0.98147
0.980941
0.98057
0.981739
0.994804
0.998692
0.998935
0.997921
0.983024
0.980594
0.990873
0.933486
0.941369
0.998913
0.998959
0.998958
0.998956
0.991514
0.980382
0.980393
0.993166
0.93293
0.982885
0.998959
0.998959
0.998959
0.998958
0.991456
0.980393
0.980382
0.987592
0.989709
0.998959
0.998959
0.998959
0.998959
0.998959
0.997721
0.982882
0.980398
0.980403
0.998959
0.998959
0.998959
0.998959
0.998959
0.998959
0.998959
0.996736
0.983626
0.980607
0.998959
0.998959
0.998959
0.998959
0.998959
0.998672
0.997828
0.998346
0.997712
0.994266
0.998959
0.998959
0.998959
0.998959
0.998959
0.998709
0.997723
0.998033
0.998938
0.998945
0.998959
0.998959
0.998953
0.998953
0.998959
0.998958
0.998394
0.997921
0.998943
0.998946
0.998959
0.998959
0.998959
0.998959
0.998959
0.998959
0.998959
0.998309
0.995596
0.995634
0.99867
0.99891
0.998959
0.998959
0.998959
0.998959
0.998957
0.996914
0.99437
0.996345
0.993893
0.994135
0.99809
0.998937
0.998959
0.994254
0.992889
0.992891
0.997691
0.997866
0.993995
0.992942
0.946506
0.921421
0.929959
0.997043
0.997042
0.997037
0.996104
0.984451
0.862223
0.860717
0.876244
0.992301
0.997043
0.997043
0.997043
0.997029
0.985347
0.976105
0.860294
0.860344
0.869011
0.992906
0.997043
0.997043
0.997037
0.996732
0.996603
0.996437
0.860295
0.860294
0.860421
0.962987
0.997043
0.997037
0.987433
0.969271
0.988337
0.996233
0.883069
0.860421
0.860576
0.923291
0.997027
0.993006
0.953823
0.953329
0.953261
0.981153
0.992376
0.990214
0.996441
0.996555
0.996261
0.965342
0.953432
0.953261
0.953239
0.953239
0.977207
0.996515
0.996553
0.996589
0.997199
0.996334
0.990914
0.978218
0.957969
0.953239
0.928922
0.934697
0.931031
0.98336
0.997761
0.997821
0.997642
0.998809
0.998809
0.995155
0.928907
0.928905
0.928905
0.941848
0.99538
0.998809
0.998809
0.998809
0.998809
0.998809
0.928905
0.928904
0.928905
0.964695
0.998803
0.998809
0.998809
0.998809
0.998809
0.998809
0.928907
0.928905
0.951438
0.997356
0.99838
0.998753
0.998808
0.998809
0.998809
0.998809
0.99056
0.96989
0.953535
0.953667
0.964133
0.977667
0.994688
0.998807
0.998809
0.998809
0.99873
0.986662
0.953746
0.953808
0.953808
0.953808
0.980065
0.9988
0.998809
0.998809
0.99813
0.960378
0.953815
0.953808
0.953808
0.954221
0.994064
0.998805
0.998809
0.998809
0.974674
0.953833
0.95381
0.953809
0.953808
0.979621
0.998788
0.998807
0.998809
0.998809
0.990574
0.953875
0.953811
0.95381
0.987903
0.99874
0.998756
0.998788
0.998807
0.998809
0.998733
0.981297
0.9708
0.991857
0.99872
0.998729
0.998739
0.996497
0.997016
0.998807
0.992202
0.980018
0.98455
0.998491
0.998698
0.99872
0.995757
0.959654
0.980886
0.996417
0.980724
0.980673
0.995417
0.998647
0.998677
0.976314
0.959651
0.95969
0.980108
0.983191
0.981036
0.985783
0.993343
0.996379
0.982987
0.957289
0.978309
0.994526
0.998414
0.998418
0.987036
0.985268
0.963609
0.963599
0.976912
0.979259
0.964362
0.973274
0.995875
0.99842
0.981728
0.985177
0.963599
0.963599
0.963599
0.963979
0.964034
0.964302
0.987927
0.99841
0.996919
0.995248
0.979665
0.963878
0.981864
0.9935
0.997438
0.997636
0.997643
0.997542
0.973986
0.970979
0.984926
0.98553
0.98568
0.993243
0.997237
0.996809
0.990733
0.975213
0.964843
0.964716
0.967408
0.968751
0.972751
0.985395
0.996982
0.977847
0.975213
0.975213
0.964768
0.964648
0.964818
0.969999
0.975026
0.987691
0.992208
0.985106
0.982478
0.983041
0.972307
0.973956
0.952597
0.875598
0.907667
0.998306
0.99831
0.998309
0.998309
0.998309
0.99498
0.960338
0.863839
0.863766
0.863839
0.946095
0.998309
0.99831
0.998309
0.998309
0.997895
0.933028
0.863766
0.863766
0.863766
0.875085
0.996517
0.998309
0.998309
0.998303
0.995031
0.974402
0.883607
0.863766
0.864188
0.864997
0.947129
0.998304
0.998298
0.998209
0.935937
0.915081
0.938435
0.938146
0.897656
0.869498
0.956508
0.992226
0.990448
0.989321
0.911831
0.911835
0.911835
0.925219
0.972278
0.972987
0.982179
0.97422
0.969259
0.969262
0.911837
0.911826
0.911835
0.914099
0.914573
0.91514
0.977094
0.997879
0.997848
0.997943
0.911851
0.913239
0.957564
0.986042
0.955523
0.950257
0.976244
0.997931
0.997944
0.997945
0.965444
0.996337
0.997738
0.997815
0.997874
0.997901
0.997923
0.997938
0.997944
0.997945
0.996022
0.996699
0.99766
0.99465
0.99565
0.997876
0.997907
0.997927
0.997932
0.997918
0.961593
0.96559
0.967743
0.939889
0.966184
0.976817
0.9752
0.967424
0.957385
0.944562
0.892131
0.912347
0.918024
0.941166
0.955209
0.892346
0.826736
0.763002
0.76282
0.76258
0.970912
0.978805
0.979136
0.979552
0.980504
0.8874
0.802808
0.763741
0.762543
0.762381
0.815376
0.917125
0.97721
0.980504
0.980843
0.981175
0.9823
0.951688
0.80758
0.762543
0.815268
0.815376
0.830778
0.967979
0.978868
0.9823
0.982626
0.983025
0.983791
0.946649
0.815376
0.815764
0.816106
0.816355
0.852263
0.961262
0.979768
0.983791
0.983947
0.98387
0.819059
0.816106
0.81638
0.817534
0.818828
0.819266
0.845971
0.967213
0.983786
0.983948
0.933894
0.926792
0.847575
0.823588
0.819254
0.820458
0.821205
0.821713
0.88308
0.983806
0.932911
0.931879
0.931879
0.931518
0.90586
0.821331
0.821713
0.823288
0.824354
0.893137
0.930895
0.931879
0.931518
0.929682
0.922005
0.915248
0.86653
0.824354
0.826184
0.828015
0.584271
0.930358
0.930148
0.845466
0.834371
0.910009
0.906259
0.879913
0.828015
0.829259
0.401232
0.549136
0.919668
0.884208
0.832029
0.829006
0.90332
0.899785
0.85121
0.832559
0.400785
0.401421
0.683052
0.880251
0.86789
0.77013
0.810266
0.895113
0.890272
0.835294
0.40076
0.400909
0.492369
0.876638
0.871109
0.766528
0.73869
0.779329
0.89367
0.903838
0.400831
0.4009
0.401373
0.687571
0.87307
0.879173
0.734913
0.728119
0.724544
0.911169
0.400899
0.401403
0.407331
0.568766
0.655574
0.882685
0.887591
0.738123
0.702767
0.70457
0.752594
0.618318
0.689822
0.730909
0.545535
0.762383
0.890201
0.890628
0.702352
0.702268
0.954013
0.764854
0.747948
0.68654
0.545535
0.552038
0.828046
0.89445
0.842447
0.723359
0.970586
0.90128
0.797645
0.675054
0.637602
0.740219
0.792643
0.898236
0.934004
0.882768
0.95857
0.95802
0.957935
0.892412
0.881223
0.955714
0.955965
0.955965
0.955971
0.607042
0.942887
0.957962
0.95792
0.957658
0.957409
0.956896
0.956142
0.956018
0.955543
0.764385
0.945533
0.95661
0.957658
0.957409
0.951977
0.948042
0.936383
0.924198
0.891728
0.922781
0.951243
0.954013
0.936583
0.829484
0.628139
0.584816
0.54033
0.473549
0.555574
0.716711
0.947476
0.88727
0.545338
0.463733
0.463452
0.463442
0.463452
0.463446
0.800565
0.992293
0.623798
0.472323
0.467655
0.465008
0.463733
0.463452
0.463435
0.463458
0.626195
0.979862
0.689277
0.717057
0.651194
0.570743
0.500363
0.463946
0.463785
0.479903
0.79614
0.99267
0.994525
0.994528
0.994527
0.994529
0.975038
0.732968
0.704957
0.930653
0.992671
0.99307
0.994478
0.994525
0.994529
0.994527
0.994425
0.994042
0.993534
0.986673
0.992542
0.992899
0.994376
0.994478
0.994509
0.994425
0.985068
0.983607
0.976271
0.976241
0.982956
0.99123
0.885464
0.954805
0.978909
0.928688
0.928116
0.935936
0.964645
0.986518
0.957133
0.903591
0.704747
0.725936
0.756695
0.815526
0.9405
0.994719
0.996345
0.991106
0.878934
0.878291
0.704745
0.704812
0.704956
0.806574
0.995288
0.99634
0.996311
0.907072
0.879399
0.878291
0.704812
0.704956
0.70587
0.922654
0.995793
0.996311
0.996645
0.883723
0.880507
0.931437
0.733202
0.77668
0.940473
0.969814
0.970153
0.996186
0.997016
0.888587
0.945811
0.997066
0.993826
0.988592
0.983897
0.928533
0.945784
0.997921
0.999765
0.979009
0.999138
0.997196
0.960732
0.984519
0.962618
0.926996
0.969222
0.999776
0.999802
0.999765
0.99929
0.996455
0.89283
0.976578
0.878329
0.926309
0.999319
0.999852
0.999813
0.999802
0.998636
0.99571
0.879455
0.851583
0.861154
0.974989
0.99987
0.999899
0.999862
0.971629
0.977812
0.992472
0.812806
0.785231
0.863074
0.998223
0.999941
0.999917
0.999899
0.798729
0.889816
0.990348
0.784007
0.784007
0.974865
0.999975
0.999963
0.999947
0.985899
0.740654
0.842934
0.983372
0.783985
0.876863
0.999131
0.999996
0.999973
0.999964
0.876149
0.740654
0.780447
0.978417
0.802219
1
1
0.999999
0.99999
0.997892
0.833298
0.740654
0.923531
0.988707
0.95047
1
1
0.999996
0.999998
0.999998
0.940475
0.754751
0.754
0.819893
0.927016
0.999921
1
0.999995
0.999998
1
0.999998
0.999963
0.898145
0.754207
0.999999
1
1.00001
0.999998
0.999999
1
1
1
0.9998
0.565679
0.998778
0.993346
0.99182
0.99182
0.997495
0.998833
0.998834
0.998834
0.998831
0.998831
0.998831
0.998839
0.998841
0.998841
0.998841
0.998841
0.998841
0.998627
0.998439
0.997301
0.99715
0.997849
0.997849
0.994575
0.992802
0.996381
0.999076
0.999076
0.998962
0.998846
0.998851
0.998851
0.998851
0.998851
0.998851
0.996457
0.995829
0.995826
0.99582
0.99582
0.998778
0.998778
0.994669
0.991806
0.991804
0.991804
0.99715
0.998841
0.998841
0.998841
0.998841
0.998841
0.998443
0.99855
0.998841
0.998841
0.998251
0.997482
0.997438
0.997483
0.997485
0.997849
0.994994
0.992623
0.992805
0.998811
0.999076
0.999076
0.99868
0.998544
0.998829
0.998851
0.998845
0.998592
0.998845
0.998844
0.998844
0.998844
0.998189
0.996914
0.998778
0.998778
0.998191
0.991838
0.991804
0.991804
0.992103
0.998577
0.998841
0.998841
0.998841
0.997443
0.997239
0.997952
0.99884
0.99884
0.998711
0.998711
0.997481
0.993587
0.993577
0.995213
0.999035
0.999037
0.999038
0.999043
0.999076
0.999076
0.996909
0.995219
0.995219
0.995624
0.998816
0.998695
0.998639
0.99866
0.998844
0.998844
0.998844
0.998844
0.998777
0.998778
0.998777
0.992258
0.991804
0.991804
0.992252
0.998578
0.998837
0.997748
0.997648
0.998374
0.998829
0.99884
0.99884
0.99884
0.998205
0.993525
0.99224
0.993704
0.998469
0.998972
0.998988
0.997754
0.996883
0.999076
0.999076
0.999076
0.999076
0.999073
0.998781
0.99092
0.985198
0.987864
0.985213
0.985776
0.995055
0.998844
0.998844
0.998844
0.99877
0.998777
0.996377
0.992158
0.994082
0.998779
0.995855
0.995744
0.997605
0.998786
0.998791
0.998799
0.998819
0.996968
0.99884
0.99884
0.998839
0.997379
0.991752
0.993569
0.997506
0.99108
0.990871
0.990872
0.996801
0.999076
0.999076
0.999076
0.999075
0.997824
0.984438
0.977729
0.977717
0.97771
0.97771
0.97771
0.977743
0.998718
0.998843
0.998843
0.993584
0.996229
0.993642
0.99216
0.998103
0.998817
0.998382
0.997344
0.998795
0.99879
0.998717
0.971148
0.96371
0.99655
0.99884
0.99884
0.998724
0.991266
0.990156
0.990153
0.990162
0.992206
0.999075
0.999076
0.999076
0.999076
0.999076
0.999075
0.999065
0.988111
0.977795
0.977724
0.97773
0.978083
0.97771
0.97771
0.983266
0.996929
0.997285
0.998264
0.987087
0.99404
0.998675
0.998685
0.998817
0.998816
0.998817
0.998816
0.998808
0.980525
0.958936
0.958952
0.959117
0.973259
0.99884
0.998835
0.993291
0.990193
0.990154
0.992819
0.999072
0.999076
0.999076
0.999076
0.999076
0.999076
0.999076
0.999075
0.99907
0.999061
0.996471
0.988881
0.991272
0.997284
0.99362
0.990442
0.981682
0.966628
0.96378
0.971069
0.993929
0.998679
0.99868
0.997726
0.989751
0.988486
0.998165
0.997596
0.970211
0.958931
0.958929
0.958936
0.958952
0.969654
0.998835
0.997233
0.990176
0.99018
0.992928
0.999075
0.999076
0.999076
0.999076
0.999076
0.999076
0.999076
0.999075
0.998478
0.99834
0.99906
0.999061
0.999061
0.999061
0.999061
0.9961
0.98709
0.961591
0.958819
0.958819
0.958819
0.998617
0.998412
0.974709
0.963
0.970145
0.99871
0.998795
0.996735
0.963119
0.958929
0.958929
0.958929
0.959011
0.993041
0.998797
0.996948
0.990177
0.990186
0.998821
0.999075
0.999075
0.999076
0.999076
0.999076
0.999076
0.999074
0.998292
0.994336
0.994344
0.998183
0.998906
0.999061
0.999061
0.999041
0.975497
0.95882
0.958819
0.958819
0.958819
0.981612
0.998618
0.983
0.963
0.962961
0.965494
0.998795
0.998807
0.998795
0.991555
0.959676
0.958929
0.958951
0.979746
0.998768
0.998769
0.998579
0.996717
0.997175
0.995108
0.985963
0.993174
0.999075
0.996595
0.993197
0.992794
0.9912
0.990272
0.992881
0.995116
0.994905
0.994905
0.997799
0.999055
0.998984
0.979067
0.958824
0.95882
0.958819
0.958822
0.991051
0.998589
0.997549
0.970072
0.962966
0.962963
0.994311
0.998808
0.998807
0.998792
0.992064
0.975972
0.979459
0.998665
0.998769
0.998769
0.998769
0.998767
0.99874
0.990644
0.983555
0.983557
0.983593
0.983239
0.98323
0.983224
0.98323
0.98323
0.99171
0.998985
0.996427
0.994905
0.994936
0.995788
0.997521
0.997513
0.986955
0.969305
0.958935
0.958827
0.991053
0.993287
0.998945
0.997317
0.980735
0.975625
0.996382
0.998808
0.998808
0.998521
0.998756
0.998759
0.998765
0.998769
0.998769
0.998769
0.998769
0.998769
0.998768
0.995408
0.983557
0.983553
0.983615
0.984866
0.987978
0.984848
0.983227
0.983248
0.983379
0.999002
0.999005
0.99834
0.99637
0.993918
0.993918
0.995985
0.997781
0.997768
0.993817
0.962442
0.991036
0.991768
0.998946
0.998945
0.998882
0.9986
0.998808
0.998808
0.998808
0.998801
0.998775
0.998765
0.998769
0.998769
0.998769
0.998769
0.998769
0.998769
0.998769
0.998768
0.99802
0.998091
0.998092
0.998089
0.997478
0.99396
0.990564
0.984784
0.987088
0.997846
0.999005
0.999005
0.999005
0.998537
0.995398
0.994172
0.995525
0.997775
0.997832
0.996771
0.988789
0.997325
0.998946
0.998946
0.998945
0.995559
0.957181
0.934842
0.938554
0.936431
0.939676
0.931812
0.940927
0.939848
0.949466
0.973504
0.998769
0.998769
0.998769
0.997971
0.993528
0.998091
0.998089
0.979279
0.959951
0.960436
0.974516
0.988665
0.995854
0.998234
0.999005
0.999005
0.999005
0.999005
0.999005
0.996555
0.993086
0.993095
0.997817
0.997884
0.991876
0.998946
0.998946
0.998946
0.994659
0.970119
0.922162
0.922156
0.922157
0.93547
0.91811
0.917952
0.917771
0.917485
0.917219
0.917485
0.951639
0.985869
0.94077
0.895537
0.918128
0.976493
0.961428
0.894298
0.894296
0.894296
0.895674
0.945069
0.985228
0.998852
0.999005
0.999005
0.999005
0.999005
0.999005
0.999005
0.995622
0.993086
0.994767
0.997899
0.997321
0.998946
0.998946
0.988767
0.963871
0.934254
0.924728
0.945251
0.966366
0.992817
0.98217
0.977541
0.946093
0.917283
0.917283
0.918743
0.979255
0.905728
0.895368
0.895291
0.913533
0.894313
0.894298
0.894296
0.894296
0.894296
0.894296
0.894298
0.926583
0.997723
0.999003
0.999005
0.999005
0.999005
0.999005
0.999005
0.999005
0.993291
0.994142
0.997911
0.997911
0.995888
0.995339
0.95328
0.950067
0.950023
0.981534
0.997948
0.99892
0.998921
0.99892
0.998919
0.997923
0.990899
0.968739
0.975139
0.996124
0.998915
0.944178
0.894495
0.894314
0.8943
0.8943
0.894298
0.894296
0.894296
0.894298
0.89431
0.947769
0.99898
0.999
0.999002
0.999004
0.999005
0.999005
0.999005
0.999005
0.99656
0.994257
0.99784
0.997911
0.996727
0.991684
0.977045
0.978776
0.991129
0.998919
0.998921
0.998921
0.998921
0.998921
0.99892
0.998919
0.99892
0.99892
0.99892
0.99892
0.99892
0.998915
0.923655
0.894431
0.894314
0.894302
0.915131
0.896221
0.894569
0.933005
0.997263
0.998983
0.998993
0.998995
0.998933
0.996907
0.997623
0.999004
0.999005
0.999005
0.999005
0.996329
0.990305
0.996233
0.997866
0.997521
0.998688
0.99887
0.998919
0.998921
0.998921
0.998921
0.998921
0.997984
0.99794
0.99892
0.99892
0.99892
0.99892
0.99892
0.99892
0.988923
0.95745
0.967239
0.988541
0.998768
0.998946
0.998948
0.998947
0.998948
0.998945
0.998941
0.998981
0.998986
0.993428
0.986205
0.991377
0.999002
0.999005
0.999005
0.999005
0.998223
0.98782
0.993439
0.983235
0.998654
0.998662
0.998377
0.997451
0.996737
0.994342
0.996936
0.99627
0.995398
0.995402
0.998216
0.99892
0.99892
0.99892
0.99892
0.997545
0.985914
0.998562
0.998558
0.998562
0.998284
0.996009
0.998633
0.998948
0.998593
0.992421
0.993694
0.992315
0.986193
0.986193
0.986193
0.989015
0.998839
0.999005
0.999005
0.999005
0.995702
0.987784
0.993836
0.976069
0.976071
0.976609
0.977225
0.989359
0.987795
0.987591
0.987591
0.994291
0.998542
0.998919
0.99892
0.99892
0.99892
0.99892
0.965352
0.917037
0.95593
0.996336
0.998563
0.997059
0.995135
0.995135
0.997825
0.998944
0.993012
0.987667
0.987612
0.987582
0.98631
0.986193
0.991652
0.998934
0.998965
0.998967
0.999005
0.999005
0.98857
0.987792
0.998038
0.988176
0.92755
0.9265
0.9265
0.930911
0.988112
0.994751
0.994751
0.994734
0.986137
0.960854
0.93368
0.922292
0.921594
0.919269
0.916833
0.916938
0.944518
0.989566
0.993845
0.995003
0.995861
0.997167
0.998917
0.998932
0.998825
0.991386
0.995915
0.998994
0.998985
0.998941
0.998912
0.997767
0.995946
0.995946
0.996558
0.99592
0.991319
0.994634
0.998545
0.979486
0.926698
0.926518
0.926914
0.928928
0.926294
0.926293
0.926295
0.926294
0.926431
0.928947
0.937884
0.963127
0.972142
0.967649
0.962613
0.978276
0.990851
0.98904
0.992317
0.998482
0.998482
0.998482
0.996308
0.99758
0.998994
0.998994
0.998994
0.998994
0.998994
0.995455
0.994591
0.99646
0.998993
0.99616
0.996166
0.998645
0.998974
0.998911
0.99732
0.995399
0.9956
0.995616
0.995628
0.995042
0.950908
0.926294
0.926332
0.979952
0.996516
0.996522
0.996525
0.996522
0.994156
0.991159
0.984008
0.98669
0.997008
0.998559
0.997784
0.998104
0.998482
0.998481
0.980412
0.99418
0.998993
0.998994
0.998994
0.998994
0.997014
0.994615
0.995451
0.998973
0.998993
0.9989
0.998408
0.99899
0.998987
0.985797
0.983112
0.953239
0.97244
0.995247
0.993697
0.994269
0.993461
0.987774
0.9834
0.994528
0.996519
0.996516
0.996522
0.996525
0.996463
0.99518
0.998282
0.998887
0.998887
0.998887
0.997289
0.977816
0.980469
0.979025
0.964232
0.985435
0.998929
0.998993
0.998994
0.998994
0.998994
0.995391
0.997917
0.998993
0.998993
0.998993
0.998993
0.99899
0.998989
0.970303
0.980355
0.953475
0.953804
0.953896
0.953896
0.965442
0.995808
0.996657
0.996657
0.995657
0.97221
0.957266
0.975867
0.98996
0.995996
0.998565
0.998863
0.998879
0.998887
0.998888
0.998888
0.977098
0.931945
0.931904
0.931913
0.944265
0.982108
0.996662
0.998993
0.998994
0.998994
0.998993
0.998993
0.998993
0.998993
0.998993
0.998993
0.998155
0.9945
0.977456
0.999001
0.984927
0.96763
0.961561
0.959534
0.958891
0.958824
0.958874
0.987639
0.995523
0.948437
0.906861
0.906856
0.920323
0.974331
0.997492
0.998861
0.997717
0.99788
0.998888
0.998888
0.998888
0.986008
0.933082
0.931905
0.931906
0.931915
0.94578
0.99562
0.998988
0.997467
0.998993
0.998993
0.998993
0.998993
0.998993
0.971309
0.951572
0.964183
0.999004
0.999004
0.998809
0.998809
0.998809
0.998798
0.998785
0.98849
0.958824
0.962882
0.994735
0.994593
0.932132
0.906603
0.906652
0.932849
0.995306
0.998589
0.997653
0.997653
0.998878
0.998888
0.998888
0.998888
0.998888
0.980828
0.931972
0.931908
0.931945
0.954962
0.998448
0.997067
0.995038
0.998507
0.998993
0.992684
0.956827
0.950486
0.950787
0.975854
0.999004
0.999004
0.998809
0.998809
0.998799
0.998569
0.997394
0.977457
0.986839
0.993777
0.994205
0.994433
0.993791
0.912266
0.906619
0.92378
0.990773
0.997381
0.998634
0.998717
0.998867
0.99885
0.998786
0.998888
0.998888
0.998888
0.998888
0.994379
0.960284
0.978307
0.998463
0.998436
0.981838
0.961762
0.982448
0.952012
0.950288
0.950379
0.966375
0.999004
0.999004
0.999004
0.998809
0.998809
0.965712
0.949424
0.945291
0.931101
0.979047
0.993686
0.957157
0.931466
0.930841
0.930547
0.965704
0.976326
0.985213
0.997369
0.998248
0.997769
0.991036
0.990059
0.998478
0.998888
0.998888
0.998888
0.998888
0.984993
0.992109
0.997835
0.998425
0.970553
0.950271
0.950255
0.950259
0.950254
0.950258
0.954031
0.998979
0.999003
0.999004
0.998903
0.998809
0.980846
0.827548
0.818985
0.852838
0.946858
0.949327
0.970396
0.964306
0.957615
0.97935
0.995769
0.995759
0.988997
0.983349
0.992963
0.99783
0.947627
0.894395
0.98194
0.998868
0.998885
0.998888
0.998888
0.991869
0.968343
0.979862
0.997638
0.997948
0.96558
0.950254
0.950253
0.950254
0.950254
0.950254
0.954581
0.993938
0.99127
0.998022
0.976784
0.998809
0.865091
0.818985
0.81897
0.818983
0.940188
0.994992
0.997836
0.997833
0.997836
0.997681
0.995848
0.99577
0.987569
0.986725
0.993045
0.984871
0.846529
0.846124
0.970463
0.998617
0.998869
0.998885
0.998888
0.986011
0.968161
0.968116
0.992534
0.993417
0.96716
0.950253
0.950253
0.950253
0.950254
0.950491
0.984456
0.993904
0.968751
0.949241
0.967068
0.998809
0.855357
0.81897
0.818968
0.818965
0.818968
0.924641
0.997823
0.997889
0.997823
0.919763
0.930724
0.985758
0.985815
0.987646
0.989033
0.859333
0.842684
0.865224
0.982154
0.998043
0.982664
0.991003
0.998885
0.984731
0.968107
0.968116
0.992339
0.977343
0.964528
0.950254
0.950253
0.953486
0.967495
0.979486
0.983974
0.937902
0.893282
0.936017
0.956291
0.998809
0.892622
0.818978
0.818965
0.818964
0.818965
0.889087
0.997699
0.997971
0.954756
0.840352
0.85779
0.95378
0.918485
0.890988
0.84708
0.842454
0.842513
0.953705
0.988018
0.981307
0.949925
0.972221
0.998518
0.98238
0.968161
0.974277
0.992542
0.980951
0.971314
0.950254
0.974036
0.980696
0.979473
0.974314
0.89558
0.893282
0.893282
0.893282
0.925581
0.998808
0.945746
0.818974
0.818964
0.818965
0.882675
0.997379
0.99814
0.99807
0.873582
0.840187
0.840169
0.843985
0.840338
0.84034
0.840452
0.84255
0.959079
0.990654
0.989009
0.864644
0.955348
0.998246
0.998364
0.9901
0.986025
0.993693
0.994412
0.996728
0.995649
0.983374
0.982513
0.981617
0.974135
0.897175
0.89359
0.893454
0.901287
0.970294
0.910386
0.995822
0.995652
0.852963
0.830564
0.953305
0.993054
0.99814
0.998141
0.995332
0.902451
0.840169
0.840169
0.840169
0.84017
0.840358
0.893988
0.995692
0.995571
0.991008
0.957285
0.838271
0.998214
0.99822
0.998252
0.99822
0.9982
0.997043
0.994894
0.996713
0.996672
0.952825
0.916881
0.928611
0.915668
0.896494
0.896209
0.941921
0.981671
0.987087
0.867296
0.973128
0.85301
0.830046
0.845741
0.975857
0.996319
0.998141
0.99814
0.992353
0.979535
0.840276
0.840169
0.84017
0.86934
0.978554
0.995956
0.995744
0.995263
0.978301
0.931761
0.773901
0.970403
0.998214
0.99822
0.998214
0.998202
0.99818
0.998135
0.967671
0.916864
0.916591
0.916591
0.916591
0.927769
0.903481
0.915421
0.982857
0.987412
0.987412
0.892583
0.953172
0.855156
0.907076
0.976326
0.991293
0.991842
0.997745
0.998141
0.996732
0.989577
0.889658
0.914115
0.973087
0.996408
0.996344
0.996092
0.992724
0.976879
0.972177
0.902026
0.773457
0.807088
0.989337
0.998214
0.998204
0.998156
0.989004
0.998072
0.9981
0.998019
0.995068
0.971082
0.955682
0.984574
0.986709
0.986857
0.987134
0.987412
0.818312
0.779019
0.99842
0.997959
0.985962
0.979869
0.955459
0.95874
0.980795
0.998046
0.993738
0.973786
0.996373
0.996432
0.996447
0.996432
0.996093
0.981507
0.981507
0.988885
0.973359
0.806313
0.773413
0.773457
0.800978
0.914811
0.941941
0.923021
0.998027
0.998254
0.983421
0.947623
0.951322
0.971148
0.926764
0.902854
0.90231
0.902275
0.957896
0.804694
0.776847
0.776848
0.998422
0.998422
0.968835
0.944658
0.944617
0.944615
0.944617
0.973821
0.996824
0.985756
0.987644
0.996445
0.996484
0.996447
0.98535
0.981561
0.992573
0.996435
0.930038
0.773413
0.77341
0.773413
0.773445
0.773867
0.777471
0.86263
0.998188
0.99838
0.926564
0.875991
0.875991
0.96563
0.995277
0.995317
0.961401
0.845192
0.801736
0.776847
0.776847
0.776847
0.998422
0.998423
0.998422
0.993361
0.951119
0.944617
0.944615
0.960239
0.997433
0.996753
0.990189
0.996328
0.996526
0.991204
0.985368
0.989083
0.996942
0.99693
0.985061
0.817472
0.773413
0.773412
0.773413
0.773445
0.826771
0.932228
0.996854
0.998706
0.989601
0.967774
0.995151
0.995269
0.995338
0.995359
0.99537
0.951123
0.879752
0.859987
0.78938
0.776848
0.998256
0.998422
0.998436
0.998448
0.998449
0.976172
0.97145
0.994718
0.998472
0.998468
0.998464
0.998442
0.997653
0.967848
0.992844
0.996944
0.996945
0.996942
0.993912
0.96289
0.876498
0.843832
0.879195
0.942109
0.979337
0.997494
0.99856
0.99888
0.998877
0.968902
0.85472
0.98176
0.989905
0.99537
0.995503
0.995584
0.995601
0.995614
0.993404
0.980313
0.988794
0.998372
0.995778
0.995877
0.998471
0.998472
0.998472
0.998472
0.998472
0.991662
0.951988
0.961984
0.930454
0.910884
0.979057
0.996944
0.996943
0.992426
0.990807
0.993928
0.997977
0.996783
0.998256
0.998909
0.998907
0.998898
0.998885
0.99888
0.986694
0.862573
0.807377
0.807355
0.9486
0.995353
0.985822
0.987586
0.994549
0.995614
0.995616
0.995616
0.97607
0.984087
0.984179
0.9916
0.99847
0.998472
0.998472
0.998472
0.945509
0.911662
0.910939
0.910845
0.910838
0.910858
0.910878
0.959333
0.993222
0.992671
0.990807
0.993366
0.998934
0.998934
0.998934
0.998925
0.998912
0.998906
0.996744
0.892524
0.811053
0.807377
0.807355
0.807355
0.940339
0.991072
0.982703
0.982676
0.982703
0.995565
0.994193
0.99538
0.981907
0.981714
0.984293
0.997081
0.997967
0.998472
0.998472
0.998472
0.998472
0.929906
0.910845
0.910838
0.910845
0.910845
0.944099
0.9738
0.973179
0.991143
0.997058
0.99486
0.998935
0.998935
0.998934
0.998934
0.998926
0.971182
0.831386
0.807462
0.80739
0.807377
0.807377
0.918584
0.99484
0.994196
0.985735
0.98911
0.990872
0.995536
0.979838
0.966313
0.996255
0.992957
0.994917
0.996129
0.996077
0.997803
0.998472
0.998472
0.998467
0.994136
0.954765
0.945574
0.960239
0.971367
0.976797
0.977131
0.97775
0.996332
0.998891
0.998935
0.998935
0.998935
0.998935
0.998934
0.998924
0.967288
0.810257
0.808484
0.940462
0.928951
0.963923
0.995233
0.994879
0.989889
0.995291
0.995406
0.995485
0.995532
0.976755
0.957355
0.998303
0.996019
0.992241
0.993732
0.997711
0.997741
0.996205
0.996013
0.997614
0.997392
0.990861
0.961983
0.968762
0.971006
0.910432
0.935706
0.996593
0.996767
0.997661
0.998935
0.998935
0.998935
0.998935
0.998934
0.99536
0.937095
0.865122
0.972661
0.995793
0.995805
0.99531
0.995259
0.986369
0.97845
0.979624
0.991138
0.995406
0.995485
0.986488
0.957355
0.995308
0.992215
0.992205
0.993885
0.997709
0.993567
0.983953
0.982689
0.985114
0.991518
0.990738
0.925256
0.87978
0.882034
0.880376
0.883629
0.993926
0.996552
0.99464
0.998853
0.998935
0.998935
0.998934
0.987543
0.951706
0.937079
0.959883
0.995793
0.995805
0.995817
0.995178
0.992875
0.987775
0.982874
0.902966
0.80257
0.882225
0.975527
0.986605
0.967887
0.997027
0.992215
0.99225
0.994185
0.997613
0.99336
0.947985
0.889283
0.889034
0.889037
0.91167
0.907792
0.879791
0.879777
0.87982
0.918683
0.996198
0.996204
0.995179
0.998935
0.998935
0.998935
0.998935
0.998714
0.932097
0.976026
0.995178
0.99519
0.994329
0.995837
0.996464
0.996464
0.996465
0.996464
0.992197
0.730051
0.692996
0.765766
0.98413
0.988873
0.996976
0.997012
0.997012
0.997077
0.99733
0.949986
0.889699
0.889034
0.888827
0.886848
0.881951
0.880531
0.879791
0.910453
0.965008
0.990298
0.996135
0.996085
0.996207
0.998935
0.998935
0.9934
0.985978
0.908808
0.897845
0.989437
0.995151
0.995178
0.992651
0.995709
0.99646
0.996464
0.996464
0.996465
0.996461
0.960898
0.695615
0.6878
0.783204
0.981225
0.980975
0.981923
0.99127
0.99623
0.996822
0.996981
0.997844
0.978595
0.914443
0.951178
0.994442
0.993605
0.973702
0.952718
0.950943
0.950809
0.951041
0.951142
0.952651
0.974359
0.948648
0.895212
0.882918
0.882634
0.88233
0.882048
0.944458
0.993274
0.986223
0.992971
0.996111
0.988362
0.989677
0.996461
0.996461
0.971097
0.700309
0.687579
0.687711
0.946229
0.96327
0.954484
0.954491
0.99755
0.997722
0.997918
0.99792
0.99792
0.997588
0.997528
0.994322
0.994499
0.994507
0.99435
0.986018
0.97225
0.973527
0.989463
0.992953
0.992955
0.99293
0.99247
0.983903
0.901942
0.882113
0.882048
0.882027
0.882125
0.882352
0.93783
0.976046
0.963803
0.973643
0.996167
0.996457
0.996437
0.728355
0.687517
0.701115
0.946076
0.997945
0.997945
0.997945
0.9648
0.961911
0.961951
0.980812
0.996787
0.997548
0.978904
0.958518
0.986014
0.983787
0.975684
0.974138
0.984254
0.988626
0.991554
0.992953
0.989636
0.93432
0.910479
0.9575
0.983294
0.983211
0.973891
0.972521
0.97368
0.972368
0.857648
0.870073
0.964544
0.99644
0.996453
0.996452
0.777594
0.687517
0.687798
0.902804
0.96041
0.997945
0.997945
0.997945
0.996649
0.992965
0.992094
0.997666
0.989506
0.899921
0.878741
0.91785
0.985027
0.894242
0.740894
0.740894
0.779158
0.834952
0.846665
0.954375
0.928557
0.813295
0.813328
0.849138
0.981862
0.983309
0.975713
0.978408
0.978059
0.83286
0.793997
0.79394
0.925596
0.99444
0.996452
0.996452
0.861904
0.688001
0.789993
0.98184
0.957146
0.997945
0.997945
0.997914
0.998
0.998012
0.998017
0.998017
0.998012
0.88819
0.878698
0.878698
0.878698
0.878852
0.970078
0.987937
0.741004
0.682122
0.682122
0.789393
0.849829
0.813413
0.81326
0.881604
0.982523
0.973131
0.84514
0.796136
0.795256
0.793934
0.793916
0.793915
0.79394
0.864142
0.994952
0.996452
0.979288
0.837407
0.948477
0.982077
0.953779
0.948081
0.972949
0.99613
0.998013
0.998017
0.998017
0.998017
0.998018
0.995123
0.926114
0.878698
0.8998
0.987603
0.997454
0.997117
0.777673
0.682121
0.682122
0.785095
0.788835
0.815585
0.878355
0.994961
0.982768
0.982273