/*--------------------------------*- C++ -*----------------------------------*\
  =========                 |
  \\      /  F ield         | OpenFOAM: The Open Source CFD Toolbox
   \\    /   O peration     | Website:  https://openfoam.org
    \\  /    A nd           | Version:  8
     \\/     M anipulation  |
\*---------------------------------------------------------------------------*/
FoamFile
{
    version     2.0;
    format      ascii;
    class       volScalarField;
    location    "9.2";
    object      p;
}
// * * * * * * * * * * * * * * * * * * * * * * * * * * * * * * * * * * * * * //

dimensions      [1 -1 -2 0 0 0 0];

internalField   nonuniform List<scalar> 
9150
(
-230.58
-231.584
-232.211
-232.654
-232.874
-232.869
-232.626
-232.136
-231.487
-230.482
-250.626
-251.136
-251.557
-251.873
-252.042
-252.016
-251.819
-251.494
-251.06
-250.548
-270.51
-270.786
-271.034
-271.248
-271.355
-271.338
-271.217
-270.991
-270.727
-270.445
-290.243
-290.412
-290.576
-290.722
-290.796
-290.794
-290.706
-290.537
-290.363
-290.187
-309.862
-310.037
-310.17
-310.292
-310.343
-310.336
-310.268
-310.133
-309.99
-309.811
-145.11
-145.812
-145.411
-144.892
-144.54
-144.379
-144.408
-144.632
-144.918
-144.18
-160.295
-161.019
-161.135
-161.128
-160.948
-160.85
-160.848
-160.691
-160.518
-159.786
-176.64
-177.415
-177.715
-178.021
-178.027
-177.981
-177.859
-177.45
-177.119
-176.345
-193.431
-194.596
-195.08
-195.677
-195.823
-195.785
-195.542
-194.906
-194.411
-193.245
-210.502
-212.526
-213.301
-213.966
-214.212
-214.173
-213.868
-213.179
-212.398
-210.378
-64.839
-63.793
-60.7197
-57.6863
-54.835
-51.9389
-49.1637
-46.6729
-43.7276
-42.7111
-78.8124
-78.1149
-76.97
-75.1188
-73.4763
-71.6242
-69.7331
-68.0763
-66.2498
-65.7111
-95.6023
-94.8208
-94.8355
-93.4455
-92.6577
-91.4297
-90.1887
-89.7836
-88.2659
-88.1817
-116.54
-113.255
-113.819
-111.638
-111.136
-110.402
-110.054
-110.785
-109.825
-112.295
-140.78
-131.146
-130.478
-128.727
-128.076
-127.772
-128.014
-128.871
-129.355
-138.355
1773.87
1773.91
1773.99
1774.08
1774.11
1774.07
1773.99
1773.87
1773.78
1773.7
1754.11
1754.1
1754.16
1754.25
1754.34
1754.36
1754.3
1754.27
1754.22
1754.14
1734.27
1734.23
1734.23
1734.28
1734.35
1734.51
1734.72
1734.83
1734.81
1734.66
1715.12
1715.09
1715.13
1715.02
1715.3
1715.38
1715.37
1715.37
1715.25
1715.02
1696.22
1696.53
1696.22
1696.27
1696.27
1696.18
1695.99
1695.82
1695.51
1695.05
1676.94
1677.03
1677.18
1677.23
1677.34
1677.76
1677.16
1676.68
1676.07
1675.56
1657.9
1658.26
1658.46
1658.77
1659.65
1658.92
1658.53
1658.06
1657.44
1656.82
1638.56
1639.07
1639.74
1640.74
1639.65
1639.7
1639.36
1638.76
1638.56
1638.3
1618.82
1619.64
1620.14
1619.94
1620.03
1619.96
1619.75
1619.69
1619.61
1618.54
1600.24
1600.39
1600.13
1600.35
1600.4
1600.35
1600.17
1600.64
1600.33
1599.82
1581.5
1580.83
1580.85
1581.02
1581.05
1581.01
1580.95
1581
1580.88
1580.16
1561.9
1561.83
1561.78
1561.79
1561.75
1561.66
1561.54
1561.44
1561.4
1561.08
1542.74
1542.61
1542.5
1542.45
1542.42
1542.27
1542.12
1541.96
1541.96
1542
1523.2
1523.11
1523.03
1522.97
1522.91
1522.86
1522.66
1522.35
1522.09
1521.9
1503.63
1503.56
1503.51
1503.47
1503.4
1503.28
1503.21
1503
1502.73
1502.35
1484.03
1483.95
1483.9
1483.88
1483.84
1483.75
1483.58
1483.37
1483.08
1482.83
1464.3
1464.22
1464.17
1464.15
1464.15
1464.09
1463.94
1463.69
1463.54
1463.37
1444.58
1444.47
1444.4
1444.38
1444.52
1444.61
1444.53
1444.29
1444.3
1444.06
1424.51
1424.29
1424.38
1424.58
1425.49
1425.49
1425.24
1424.74
1424.4
1423.84
1404.61
1404.59
1404.55
1408.09
1407.25
1406.03
1405.15
1404.16
1403.33
1403.98
1385.51
1385.84
1385.13
1384.57
1385.33
1385.41
1385.14
1384.78
1384.6
1385.11
1366.25
1365.98
1365.27
1365.16
1365.42
1365.32
1365.1
1365.09
1365.32
1365.46
1347.29
1347.32
1346.98
1345.72
1345.68
1345.47
1344.82
1345.65
1345.22
1346.15
1326.5
1328.21
1328.38
1325.64
1325.49
1325.94
1325.06
1325.81
1326.08
1326.32
1304.55
1304.18
1304.47
1304.35
1304.32
1304.72
1305.76
1306.3
1306.77
1307.3
1281.5
1281.9
1281.88
1282.15
1282.64
1283.41
1284.47
1285.53
1286.76
1287.9
1261.76
1260.95
1261.07
1260.29
1260.89
1262.03
1263.41
1264.93
1266.39
1267.67
1243.65
1242.88
1242.16
1241.36
1241.16
1242.09
1243.12
1244.35
1245.62
1246.91
1225.4
1224.6
1223.76
1222.99
1222.81
1222.92
1223.29
1223.96
1224.87
1225.74
1207.64
1206.97
1205.15
1204.82
1204.38
1204.15
1204.24
1204.53
1204.8
1204.82
1188.42
1187.42
1186.67
1186.01
1185.27
1185.18
1185.3
1185.77
1186.13
1186.17
1170.48
1169.74
1168.8
1168.18
1167.74
1167.92
1167.93
1168.49
1169.1
1169.36
1152.97
1152.67
1152.37
1152.08
1151.84
1151.82
1151.67
1152.07
1152.56
1152.9
1136.14
1136.3
1136.18
1136
1135.82
1135.64
1135.6
1135.84
1136.22
1136.48
1119.45
1119.84
1119.91
1119.63
1119.21
1118.97
1118.89
1119
1119.37
1119.73
1102.32
1102.46
1102.83
1101.92
1101.66
1101.47
1101.25
1101.27
1101.54
1101.95
1085.15
1085.61
1085.1
1084.64
1084.1
1083.66
1083.19
1085.3
1083.43
1083.82
1068.59
1067.99
1067.63
1067.35
1066.6
1065.86
1066.09
1065.52
1064.84
1064.3
1050.79
1049.77
1049.23
1048.6
1047.34
1048.29
1045.8
1045.7
1045.56
1045.13
1032.08
1030.94
1030.77
1029.91
1028.39
1027.24
1026.84
1025.84
1025.56
1025.43
1013.83
1012.61
1011.59
1010.98
1009.92
1008.71
1007.77
1007.03
1005.88
1005.61
994.368
993.117
991.742
991.662
989.717
988.882
987.846
986.795
986.028
985.466
973.153
972.305
970.985
969.853
968.729
967.805
966.935
965.759
964.841
965.343
951.949
951.005
949.172
947.968
947.163
946.41
946.041
944.274
943.973
943.936
930.792
929.557
927.949
926.934
926.492
925.897
925.069
924.125
923.588
923.147
909.793
908.591
906.921
910.256
908.006
907
906.388
905.247
904.122
903.33
890.143
888.517
888.79
888.991
888.721
887.891
887.225
886.201
885.218
884.371
870.433
869.533
870.257
870.031
869.738
869.143
868.375
867.782
867.065
866.393
850.684
850.149
850.438
851.133
851.265
851.18
849.883
849.828
849.888
849.725
830.841
831.836
832.163
831.815
831.961
834.136
830.979
832.102
832.692
833.161
811.726
812.061
811.831
811.31
811.595
812.881
813.735
814.435
816.209
817.031
792.581
792.621
792.655
792.481
792.807
793.055
793.257
794.417
795.174
796.156
773.879
773.452
772.764
773.295
772.229
772.968
772.097
772.679
773.135
773.317
753.709
753.473
752.655
751.63
750.531
749.879
749.841
749.89
749.973
749.788
735.133
733.879
732.235
730.159
728.229
726.197
724.226
722.717
722.22
722.316
715.136
713.817
711.541
710.147
704.633
698.866
693.938
690.689
690.047
691.111
695.691
693.984
691.255
687.428
682.156
673.08
668.599
667.983
666.775
667.685
674.547
672.89
669.764
665.493
659.562
653.475
650.022
647.696
645.496
644.827
653.134
646.851
644.625
641.75
637.889
633.766
630.48
627.116
624.897
624.453
626.635
624.938
622.185
619.202
616.159
613.487
610.975
608.555
605.877
603.339
604.317
602.792
600.931
598.43
595.072
592.801
591.445
589.876
588.062
586.597
580.444
579.827
578.812
577.532
575.503
573.507
571.694
570.339
569.66
569.338
552.028
554.022
554.571
554.611
553.714
552.991
552.195
551.651
551.166
551.547
522.471
526.092
529.116
531.439
531.959
532.132
531.999
531.819
532.678
533.576
498.306
503.784
508.317
510.92
512.619
513.313
513.158
513.325
514.242
515.765
485.507
489.409
494.702
494.566
496.853
496.967
499.455
498.237
500.461
502.127
477.444
476.773
478.842
480.808
482.783
483.84
485.535
486.953
485.401
488.136
463.891
464.832
465.208
469.858
472.937
473.601
471.257
473.344
475.4
474.178
453.092
453.604
453.425
456.404
460.676
456.054
459.819
457.965
461.065
464.568
442.383
442.191
441.115
439.567
442.821
447.157
442.674
446.429
448.124
449.731
432.377
433.101
430.242
425.446
427.637
431.596
436.647
432.427
435.992
435.407
412.956
414.471
412.511
414.383
424.052
410.393
420.619
423.199
422.832
420.377
398.865
398.646
398.902
398.161
410.97
410.126
407.707
413.393
409.334
405.083
381.825
383.298
385.881
391.108
394.887
392.221
391.947
391.661
394.566
387.74
360.399
364.985
366.746
368.83
370.34
370.863
371.271
370.448
369.056
368.098
345.42
348.701
350.092
350.655
351.135
351.27
351.144
350.692
349.811
348.799
334.084
335.238
335.133
334.233
332.628
331.455
330.794
330.633
335.018
340.43
326.208
324.99
323.626
323.317
323.67
323.337
323.792
329.867
329.204
326.637
319.705
313.388
313.508
315.572
315.676
316.043
316.807
317.364
314.946
317.87
300.916
305.357
306.537
306.186
306.042
306.394
306.655
306.053
303.197
303.148
288.902
290.305
289.854
290.973
292.619
295.352
296.317
294.527
287.984
284.89
274.161
275.349
276.274
277.587
276.831
277.825
277.913
271.18
269.235
267.06
253.028
254.745
256.775
258.334
258.715
258.151
257.012
254.98
251.955
248.34
231.22
232.717
234.006
235.438
237.747
239.662
238.542
236.147
232.019
227.298
206.871
208.407
208.345
207.254
209.47
210.411
209.684
209.194
203.482
201.796
188.044
187.165
185.104
181.911
180.581
181.469
180.781
178.708
176.809
173.792
173.026
172.748
171.476
167.163
165.415
165.164
163.372
160.334
158.272
153.703
159.154
159.597
158.91
154.876
153.431
153.11
151.138
149.361
145.873
139.793
148.044
145.414
141.334
141.577
140.907
140.902
138.676
143.202
136.255
132.189
129.02
130.643
130.337
131.368
129.564
128.86
128.47
127.597
126.036
123.373
117.022
119.927
117.879
119.705
116.411
115.517
115.151
114.941
114.573
112.992
107.828
110.239
109.685
105.611
103.594
101.768
100.718
100.169
100.163
99.8938
96.4859
97.2947
95.6404
91.4479
88.8899
86.2588
84.0042
83.297
82.8395
83.0235
85.4022
88.7816
81.5727
76.8125
72.0704
67.6992
63.7478
72.2582
66.0807
64.158
69.3828
69.3754
63.8672
58.1332
51.8974
45.2774
38.5423
51.0897
44.6508
43.785
52.433
47.015
42.5913
37.336
32.8253
26.2479
17.9522
25.2761
25.2415
26.1223
30.6856
23.7046
23.0696
19.7907
16.8949
11.8315
9.04197
16.0868
6.53251
9.85362
8.20348
3.58581
3.72949
1.48234
1.28093
-0.73464
0.0924526
3.79099
3.19067
-1.89629
-21.3138
-27.7366
-20.9687
-19.6263
-17.4002
-15.5518
-12.9338
-9.57702
-12.6461
-14.7893
-52.4401
-54.7122
-44.1426
-40.0126
-36.3761
-32.882
-29.3627
-25.481
-19.7664
-10.2834
1773.61
1773.56
1773.53
1773.38
1773.37
1773.4
1773.42
1773.5
1773.63
1773.79
1773.98
1774.21
1774.47
1774.77
1775.04
1775.28
1775.47
1775.66
1775.86
1776.02
1776.19
1776.34
1776.41
1776.48
1776.64
1776.4
1776.34
1776.28
1776.23
1776.18
1776.14
1776.11
1776.07
1776.07
1776.07
1776.12
1776.2
1776.24
1776.24
1776.25
1754.06
1753.99
1753.86
1753.77
1753.7
1753.66
1753.61
1753.71
1753.86
1754.03
1754.23
1754.47
1754.77
1755.12
1755.45
1755.69
1755.89
1756.07
1756.25
1756.49
1756.66
1756.81
1756.91
1757.11
1757.1
1756.93
1756.85
1756.74
1756.64
1756.55
1756.48
1756.42
1756.36
1756.37
1756.41
1756.47
1756.55
1756.6
1756.62
1756.64
1734.51
1734.37
1734.18
1734.03
1733.94
1733.9
1733.91
1733.93
1734.02
1734.16
1734.34
1734.6
1735
1735.35
1735.75
1736
1736.1
1736.28
1736.54
1736.91
1737.3
1737.28
1737.51
1737.58
1737.57
1737.5
1737.36
1737.22
1737.1
1737.02
1736.92
1736.72
1736.69
1736.68
1736.7
1736.73
1736.85
1736.94
1736.99
1737.01
1714.83
1714.63
1714.44
1714.25
1714.11
1714.02
1713.99
1713.92
1714.01
1714.12
1714.29
1714.49
1714.95
1715.58
1716.09
1716.39
1716.56
1716.66
1716.86
1717.01
1717.32
1717.51
1717.56
1717.65
1717.71
1717.63
1717.55
1717.43
1717.25
1717.05
1716.83
1716.88
1717.07
1717.07
1717.17
1717.14
1717
1717.21
1717.37
1717.43
1694.62
1694.06
1693.74
1694.02
1693.91
1694.1
1694.06
1694.03
1693.73
1693.6
1693.52
1693.75
1694.54
1695.66
1695.97
1695.95
1696.07
1696.18
1696.63
1696.78
1697.19
1697.2
1697.5
1697.66
1697.65
1697.68
1697.59
1697.41
1697.2
1697.03
1697.2
1697.61
1697.92
1698.08
1698.08
1698.05
1697.88
1697.91
1697.93
1697.98
1675.18
1674.69
1674.39
1674.18
1673.96
1673.81
1673.77
1673.79
1673.67
1673.57
1673.43
1673.91
1675.12
1674.8
1675.23
1675.44
1675.61
1675.73
1675.98
1676.26
1676.37
1676.47
1676.68
1676.9
1676.99
1677.01
1677.05
1677.15
1677.3
1677.63
1678.3
1678.69
1678.95
1678.94
1678.78
1678.65
1678.45
1678.64
1678.61
1678.67
1656.22
1655.28
1655.11
1654.85
1654.57
1654.3
1654.03
1653.67
1653.45
1653.5
1653.9
1654.38
1654.87
1654.92
1654.89
1655.12
1654.89
1655.01
1655.15
1655.12
1655.27
1655.39
1655.46
1655.58
1655.76
1655.95
1656.2
1656.54
1656.94
1657.37
1657.87
1658.55
1658.96
1659.31
1659.16
1658.95
1658.71
1658.99
1659.2
1659.09
1636.98
1636.49
1635.86
1635.42
1635.22
1635.07
1634.65
1634.06
1633.92
1634.01
1634.29
1634.59
1634.84
1634.87
1634.8
1634.67
1634.3
1634.29
1634.04
1634.05
1634.02
1634.06
1634.12
1634.23
1634.46
1634.72
1635.09
1635.57
1636.13
1636.76
1637.42
1638
1638.56
1639.02
1639.19
1639.24
1639.37
1639.64
1639.8
1639.94
1618.27
1617.54
1617.1
1617.36
1616.69
1615.9
1615.64
1615.17
1615.21
1615.18
1615.13
1615.11
1615.05
1614.64
1614.62
1614.14
1614.02
1613.58
1613.14
1612.81
1612.53
1612.51
1612.68
1613.02
1613.48
1614.01
1614.55
1615.16
1615.79
1616.31
1617.04
1617.73
1618.35
1618.79
1619.29
1619.99
1620.22
1620.43
1620.49
1621.08
1600.04
1598.57
1598.59
1598.4
1597.82
1597.25
1596.85
1596.5
1596.29
1596.36
1596.25
1595.97
1595.31
1594.71
1594.26
1593.7
1593.19
1592.73
1592.14
1592.05
1591.25
1591.32
1591.56
1592.1
1592.71
1593.42
1594.24
1594.94
1595.67
1596.41
1597.1
1597.7
1598.41
1599
1599.68
1600.62
1600.81
1601.05
1601.1
1602.14
1580.33
1579.83
1579.78
1579.72
1579.18
1578.07
1577.72
1577.55
1577.25
1576.78
1576.6
1576.03
1575.17
1574.61
1574.03
1573.41
1572.75
1572.17
1571.69
1571.51
1571.06
1570.83
1571.16
1571.77
1572.41
1573.17
1574.01
1574.7
1575.76
1576.45
1577.28
1578.01
1578.57
1579.31
1579.98
1580.51
1580.83
1581.58
1581.73
1582.14
1560.55
1560.43
1560.06
1559.92
1559.81
1558.77
1558.61
1558.43
1558.02
1557.54
1557.09
1556.32
1555.41
1554.61
1553.82
1553.04
1552.32
1551.68
1551.23
1551.24
1551.18
1551.17
1551.35
1551.88
1552.27
1552.96
1553.82
1554.73
1555.66
1556.65
1557.51
1558.35
1559.22
1559.86
1560.12
1560.82
1561.23
1561.15
1562.84
1562.18
1540.95
1540.64
1540.4
1540.16
1539.8
1539.25
1538.82
1538.8
1538.93
1538.3
1537.02
1536.23
1535.51
1534.47
1533.5
1533.09
1532.5
1531.16
1530.17
1529.72
1530.17
1530.93
1531.77
1531.98
1532.3
1532.73
1533.53
1534.54
1535.61
1536.8
1537.84
1538.77
1539.53
1540.19
1540.85
1541.22
1541.61
1541.96
1542.28
1542.62
1521.47
1521.11
1520.83
1520.61
1520.24
1520.08
1520.33
1520.06
1519.91
1519.46
1518.5
1517.44
1516.83
1515.41
1513.66
1513.16
1513.07
1511.69
1509.45
1507.38
1508.39
1510.26
1511.17
1511.85
1512.09
1512.12
1512.66
1514.14
1515.68
1517.17
1518.42
1519.41
1520.25
1520.94
1521.44
1522.09
1522.37
1522.8
1523.03
1523.25
1501.99
1501.67
1501.43
1501.31
1501.29
1502.12
1502.29
1502.09
1501.79
1502.42
1501.66
1500.42
1499.54
1498.84
1497.6
1495.83
1496.15
1493.93
1494.06
1490.46
1491.36
1492.72
1493.38
1494.11
1494.31
1494.19
1493.76
1494.72
1496.49
1498.2
1499.57
1500.6
1501.38
1502.02
1502.53
1502.94
1503.42
1503.57
1503.84
1503.93
1482.57
1482.3
1482.12
1482.17
1483.1
1483.96
1482.82
1482.74
1483.2
1482.77
1482.35
1481.92
1481.9
1481.23
1480.27
1480.43
1478.27
1478.81
1477.31
1476.14
1474.83
1475.81
1476.9
1477.47
1477.5
1477.32
1477.41
1477.46
1478.53
1480.16
1481.33
1482.16
1482.76
1483.25
1483.67
1484.04
1484.49
1484.67
1484.73
1484.83
1463.22
1463.14
1463.73
1464.05
1463.77
1463.55
1463.7
1463.69
1463.72
1463.63
1463.39
1463.16
1462.69
1462.39
1461.63
1461.78
1461.53
1460.8
1460.8
1460.87
1460.42
1460.15
1460.46
1460.65
1460.73
1460.77
1461.24
1460.59
1460.95
1462.08
1463.01
1463.6
1464.01
1464.38
1464.73
1465.06
1465.36
1465.68
1465.66
1465.72
1443.86
1443.73
1444.22
1443.96
1444.03
1444.12
1444.18
1444.22
1444.23
1444.15
1444.03
1443.85
1443.53
1443.04
1442.62
1442.7
1443.04
1443.71
1444.51
1445.27
1444.77
1444.43
1444.64
1444.73
1444.59
1443.15
1443.01
1442.88
1443.07
1443.62
1444.13
1444.56
1444.83
1445.15
1445.53
1445.89
1446.21
1446.42
1446.78
1446.62
1424
1424.41
1424.66
1424.68
1424.69
1424.7
1424.73
1424.76
1424.75
1424.7
1424.66
1424.53
1424.3
1424.02
1423.76
1423.77
1424.2
1424.99
1426.33
1425.98
1425.89
1426.03
1426
1425.91
1425.4
1424.89
1424.39
1424.08
1423.98
1424.15
1424.47
1425.24
1425.29
1425.58
1425.99
1426.4
1426.75
1427.03
1427.68
1427.5
1404.77
1404.8
1404.78
1404.72
1404.89
1405.08
1405.25
1405.28
1405.28
1405.28
1405.17
1405.08
1404.92
1404.78
1404.71
1404.67
1404.58
1405.6
1405.97
1406.14
1406.3
1406.47
1406.48
1406.17
1405.72
1405.28
1404.97
1404.77
1404.77
1405.03
1405.25
1405.51
1405.72
1405.94
1406.36
1406.83
1407.15
1407.36
1408
1407.78
1385.32
1384.86
1384.31
1384.67
1385.19
1385.66
1385.9
1385.78
1385.8
1385.9
1385.81
1385.67
1385.49
1385.54
1385.69
1385.38
1388.01
1385.68
1385.88
1386.33
1386.25
1386.43
1386.46
1386.31
1386.16
1386
1385.95
1385.78
1385.65
1385.69
1385.75
1385.69
1385.82
1385.98
1386.24
1386.7
1387.18
1387.72
1388.08
1387.94
1365.06
1365.95
1366.16
1366.56
1366.66
1366.38
1366.7
1366.7
1366.75
1366.98
1367.36
1368.42
1369.22
1369.19
1369.09
1369.89
1369.4
1367.71
1367.01
1366.89
1366.72
1366.61
1366.58
1366.53
1366.39
1366.19
1366.33
1365.87
1365.72
1365.59
1365.48
1365.42
1365.42
1365.65
1365.99
1366.42
1366.84
1367.32
1367.38
1367.61
1345.47
1346.97
1347.45
1347.86
1348.16
1348.37
1348.51
1348.8
1349.3
1349.5
1350.13
1350.08
1349.89
1349.83
1349.58
1349.46
1349
1348.46
1348.06
1347.55
1347.25
1347.06
1346.99
1346.9
1346.78
1346.65
1346.56
1346.38
1346.18
1346.02
1345.88
1345.92
1345.92
1346.04
1346.14
1346.55
1346.89
1347.15
1347.03
1347.21
1327.33
1328.54
1329.07
1329.36
1329.05
1328.32
1329.73
1329.59
1328.27
1329.32
1329.97
1330.58
1330.83
1330.49
1330.17
1329.82
1329.33
1328.87
1328.55
1328.23
1327.77
1327.53
1327.4
1327.71
1327.02
1326.93
1326.91
1326.91
1326.85
1326.84
1327.06
1327.07
1327.1
1327.25
1327.35
1327.41
1327.43
1327.46
1327.29
1327.63
1308.09
1308.81
1310.15
1309.57
1308.82
1307.92
1307.37
1307.14
1306.62
1307.07
1307.94
1308.83
1309.3
1309.52
1309.85
1309.91
1309.78
1309.47
1309.04
1308.63
1308.79
1308.09
1308.01
1308.27
1307.15
1307.07
1307.18
1307.28
1307.42
1307.58
1307.86
1307.78
1307.79
1307.79
1307.83
1307.92
1307.96
1308.22
1308.98
1308.34
1288.89
1289.81
1290.45
1290.13
1288.61
1287.37
1285.95
1284.84
1284.3
1284.39
1285.13
1285.48
1286.83
1287.96
1288.83
1289.31
1289.42
1289.3
1289.07
1288.76
1288.7
1289.68
1289.44
1289.25
1288.36
1288.14
1287.96
1287.9
1288.09
1288.31
1288.44
1288.41
1288.33
1288.22
1288.11
1287.91
1288.14
1288.76
1289.61
1288.81
1268.71
1269.9
1270.48
1269.98
1268.97
1267.65
1266.24
1265.93
1265.83
1265.06
1266.83
1267.24
1267.94
1268.36
1268.85
1269.22
1269.36
1269.4
1269.18
1268.97
1268.98
1269.18
1270.14
1270.14
1269.91
1269.66
1269.16
1268.79
1269.02
1269.23
1269.12
1268.88
1268.58
1268.25
1268.05
1268.15
1269.56
1269.15
1268.94
1268.86
1248.09
1249.02
1249.59
1249.85
1249.22
1247.76
1248.79
1247.89
1248.34
1248.2
1247.36
1248.38
1249.69
1249.77
1249.78
1249.68
1249.45
1249.41
1249.44
1249.6
1249.83
1250.15
1250.41
1250.31
1250.8
1250.98
1251.34
1250.4
1250.35
1250.74
1250.51
1250.04
1249.53
1248.86
1248.66
1249.21
1249.52
1249.31
1249.1
1249.22
1226.46
1226.9
1226.81
1226.43
1226.58
1227.27
1228.21
1228.86
1229.17
1229.56
1230.1
1230.89
1231.48
1230.81
1230.42
1230.07
1229.57
1229.32
1229.1
1229.37
1229.73
1230.07
1230.04
1229.93
1229.92
1229.88
1230.92
1230.62
1231.11
1231.26
1231.07
1231.48
1231.21
1230.11
1229.92
1229.85
1229.82
1229.92
1229.8
1229.78
1204.44
1203.35
1202.39
1202.12
1204.49
1208.88
1209.1
1211.64
1210.52
1212.25
1212.27
1211.27
1210.61
1210.57
1210.52
1210.02
1209.28
1208.6
1207.94
1208.46
1208.61
1208.95
1208.89
1208.68
1208.65
1209.39
1210.24
1211.22
1211.53
1211.28
1211.48
1211.47
1210.93
1210.73
1210.31
1209.54
1209.8
1209.92
1209.98
1210.01
1185.81
1184.85
1186.17
1186.45
1185.13
1185.52
1185.79
1187.2
1190.05
1191.39
1190.83
1190.73
1189.78
1189.07
1189.17
1188.66
1188.28
1188.14
1189.89
1186.16
1187.26
1188
1188.08
1187.98
1188.07
1189.97
1189.94
1191.5
1191.8
1191.57
1191.65
1191.79
1191.5
1191.16
1190.68
1189.81
1190.1
1190.12
1190.51
1190.79
1169.18
1169.38
1169.16
1168.52
1166.59
1163.26
1162.68
1164.33
1166.65
1167.94
1167.29
1166.43
1165.8
1165.07
1165.87
1166.99
1166.97
1169.81
1170.02
1164.63
1166.6
1167.71
1167.79
1167.58
1167.81
1169.81
1170.72
1171.91
1172.5
1171.95
1172.18
1172.3
1172.24
1172.13
1171.64
1171.95
1172.16
1170.97
1171.92
1171.74
1153.1
1154.06
1153.94
1152.18
1149.6
1146.37
1144.23
1144.82
1145.62
1145.1
1146.06
1145.88
1145.4
1143.77
1145.08
1147.18
1147.31
1148.9
1147.33
1146.06
1147.17
1146.87
1146.62
1146.9
1147.16
1149.89
1150.91
1152.68
1152.63
1152.71
1153.3
1153.32
1153.14
1152.95
1153.39
1152.86
1152.33
1154.24
1152.17
1152.55
1136.52
1136.51
1136.37
1135.62
1134.6
1133.49
1131.35
1130.3
1129.91
1126.61
1130.23
1129.29
1129.84
1127.56
1127.56
1129.59
1130.75
1130.57
1129
1128.16
1126.2
1126.84
1125.45
1126.49
1127.89
1130.94
1132.05
1133.42
1133.22
1133.44
1134.54
1134.01
1134.83
1134.59
1134.04
1134.42
1134.61
1134.55
1134.59
1134.4
1120.08
1119.83
1118.94
1118.77
1118.25
1117.54
1115.94
1115.4
1114.24
1112.92
1112.61
1113.21
1111.67
1112.19
1113.53
1114.4
1114.7
1113.4
1113.17
1110.92
1116.25
1111.18
1108.49
1108.3
1109.83
1111.99
1113.49
1114.49
1114.79
1114.76
1114.39
1114.61
1114.97
1114.66
1114.4
1114.55
1114.93
1114.23
1117.42
1116.14
1102.03
1102.8
1102.63
1104.31
1098.54
1099.36
1099.12
1099.04
1098.35
1098.06
1097.98
1097.59
1096.41
1096.62
1097.14
1096.57
1097.01
1097.29
1096.89
1096.03
1101.54
1094.02
1093.11
1092.83
1093.19
1094.03
1094.83
1095.33
1095.44
1095.43
1095.23
1096.16
1095.17
1094.57
1096.02
1095.4
1095.79
1098.28
1098.89
1100.48
1082.36
1083.93
1085.01
1083.29
1081.87
1081.77
1081.6
1081.47
1081.5
1081.51
1082.36
1081.88
1080.76
1079.34
1078.57
1078.13
1077.42
1076.95
1076.85
1077.12
1086.83
1075.04
1074.05
1073.39
1073.05
1073.62
1074.55
1075.26
1075.9
1077.56
1078.42
1078.56
1078.51
1077.82
1078.47
1078.62
1078.09
1078.3
1077.72
1078.93
1063.25
1068.45
1064.54
1063.53
1063.66
1063.02
1062.87
1062.71
1062.23
1061.76
1064.36
1062.43
1061.28
1060.62
1059.38
1057.96
1056.47
1055.28
1054.37
1052.56
1059.84
1055.18
1054.23
1053.46
1051.99
1051.27
1053.11
1054.55
1056.21
1057.76
1058.65
1058.59
1059.59
1060.28
1060.68
1060.54
1059.45
1058.22
1057.42
1058.96
1044.8
1044.66
1044.61
1044.17
1044.26
1043.73
1043.17
1043.77
1043.53
1044.49
1043.14
1042.8
1042.3
1041.38
1039.77
1037.94
1036.4
1034.91
1034.04
1034.24
1036.43
1036.06
1033.85
1033.44
1032.46
1032.45
1031.89
1034.45
1034.77
1036.74
1038.16
1040.16
1040.44
1041.76
1042.01
1041.38
1042.63
1040.2
1040.49
1041.29
1025.35
1025.39
1025.04
1025.26
1025.14
1024.97
1024.67
1024.06
1024.66
1024.66
1024.86
1024.77
1024.61
1023.57
1021.81
1020.41
1018.91
1018.17
1017.54
1019.41
1020.21
1020.57
1020.29
1020.34
1019.96
1016.36
1016.42
1018.94
1017.26
1022.64
1022.18
1021.17
1022.78
1023.12
1022.14
1023.34
1024.73
1026.13
1026.26
1026.51
1005.42
1005.39
1005.32
1005.18
1005.4
1005.8
1005.83
1005.22
1005.28
1005.86
1006.1
1006.46
1006.68
1005.17
1004.27
1003.23
1002.86
1002.39
1002.3
1004.35
1005.61
1005.83
1005.36
1004.96
1002.41
999.486
999.112
1000.55
1001.36
1001.34
1000.34
1000.4
1001.26
1002.05
1002.65
1003.79
1005.83
1006.55
1007.98
1008.54
985.055
984.869
984.742
984.59
984.425
984.625
984.752
984.107
984.433
984.887
985.479
986.389
986.575
986.862
985.19
984.841
984.658
984.655
984.793
985.502
987.052
988.032
986.679
985.378
984.007
982.329
981.473
981.256
980.864
980.02
981.059
975.556
978.013
980.277
982.404
984.063
985.459
986.755
987.448
987.512
964.344
964.138
963.831
963.688
963.563
963.369
963.113
962.776
962.643
962.967
963.937
964.984
966.044
966.913
964.629
965.5
966.092
966.241
966.577
966.812
967.036
967.012
967.136
966.715
965.685
964.272
962.92
961.801
960.647
958.834
960.027
959.142
957.67
960.287
962.423
964.221
965.544
966.431
966.899
966.967
943.677
943.238
943.254
943.056
942.91
942.77
942.562
942.204
942.423
943.649
944.094
944.725
945.345
945.592
945.835
946.259
947.038
947.322
947.428
947.371
947.46
947.393
947.282
946.885
946.046
944.866
943.86
943.198
944.012
944.102
943.899
942.595
941.529
943.195
944.094
945.05
945.45
945.921
946.144
946.153
923.02
922.94
922.7
922.414
922.37
922.329
922.156
921.901
921.921
923.025
924.07
924.63
924.853
925.599
925.664
926.682
927.812
927.953
928.041
927.967
927.833
927.758
927.602
927.287
926.759
926.179
927.841
928.648
929.079
929.335
929.788
927.459
926.685
926.688
926.312
925.777
925.931
926.053
926.035
926.678
902.875
902.737
902.61
902.517
902.378
902.147
901.885
901.597
901.434
901.384
901.881
902.464
903.747
905.458
906.603
907.315
908.324
908.211
908.352
908.376
908.271
908.147
908.109
907.978
907.626
907.143
913.099
913.014
909.472
909.732
909.991
909.007
908.29
907.664
907.248
906.977
906.556
906.31
906.32
907.531
883.887
883.649
883.472
883.198
882.813
882.242
881.616
881.17
880.916
880.732
880.563
880.413
881.857
883.735
886.524
887.365
887.574
888.213
888.668
888.943
888.99
888.935
888.859
888.691
888.461
888.428
892.448
887.672
888.769
889.155
888.915
888.537
887.855
887.864
887.093
886.106
886.44
886.733
887.194
888.91
866.045
866.016
865.686
864.936
864.276
862.926
862.037
861.209
860.709
860.53
860.463
859.595
862.311
864.162
866.588
868.223
868.463
869.372
869.901
870.153
870.293
870.302
870.22
869.586
868.878
869.429
868.027
868.143
868.684
869.001
868.971
868.972
868.79
868.671
870.306
874.237
866.193
866.121
868.692
869.742
849.5
849.184
848.683
847.82
846.98
845.498
844.799
845.596
844.253
842.904
842.175
842.573
844.594
846.734
848.531
849.464
850.276
851.196
851.871
852.376
852.453
852.339
852.028
850.442
850.478
847.949
848.241
848.009
848.511
849.206
849.905
850.544
851.181
852.049
852.996
855.557
856.861
851.134
850.629
853.123
833.158
832.933
832.33
831.387
830.145
829.305
830.26
829.157
827.907
826.768
826.314
826.105
826.971
827.944
829.931
831.717
833.09
833.507
834.544
835.068
835.047
835.098
834.652
834.465
832.597
827.776
827.077
827.297
828.399
829.818
831.342
832.614
833.686
834.803
835.937
837.034
837.932
838.816
834.825
840.802
816.592
816.334
816.273
814.82
812.703
812.129
811.345
809.452
809.474
806.491
805.97
806.131
806.652
808.628
811.058
813.469
815.382
817.257
818.598
818.849
818.75
820.186
820.713
819.618
816.192
811.562
807.808
807.176
807.518
810.166
813.078
814.754
816.102
817.791
819.214
820.086
820.016
822.309
822.642
827.942
796.682
797.961
798.053
797.346
796.644
795.656
793.871
791.947
790.55
789.032
787.884
787.584
788.056
789.269
790.671
792.938
795.274
798.779
800.877
801.442
801.663
802.286
802.908
801.573
799.314
795.198
792.321
791.448
792.568
795.724
798.352
799.74
800.171
800.837
801.986
803.366
804.202
807.613
808.091
813.093
773.54
773.915
774.76
775.244
775.288
774.818
775.905
773.874
769.282
764.721
762.471
762.061
761.571
760.057
758.989
762.266
767.044
771.498
776.292
778.649
778.513
779.158
777.698
778.473
776.354
773.111
771.836
772.589
774.232
781.177
782.849
780.865
782.109
782.864
783.687
785.696
792.978
792.869
793.451
795.153
749.348
749.106
749.351
749.906
750.158
749.991
749.104
746.04
744.493
743.38
740.313
745.007
743.973
748.134
748.07
745.85
745.813
745.316
751.652
755.842
757.763
759.257
756.565
754.194
750.99
747.965
747.948
751.518
753.255
759.285
761.183
761.379
763.167
764.859
766.625
769.339
781.774
775.673
774.939
774.796
722.393
722.914
724.284
724.883
725.098
725.4
725.802
725.721
727.314
727.683
727.328
727.606
727.909
730.77
730.796
728.637
733.563
734.342
733.863
737.505
739.056
739.542
735.909
735.905
730.839
729.338
730.956
732.763
736.061
739.612
742.355
744.258
744.779
746.163
748.626
749.806
756.649
753.936
755.568
755.486
692.198
693.11
694.457
696.946
699.426
701.395
703.147
704.812
706.738
708.948
712.244
711.184
711.433
714.238
715.541
715.763
724.108
726.109
722.665
723.996
724.066
724.093
720.793
717.929
714.134
711.137
714.354
716.845
719.581
722.763
725.924
727.655
726.458
728.473
730.656
732.429
734.213
736.492
736.48
737.38
669.644
671.178
670.172
671.991
674.876
677.64
680.024
682.578
685.36
688.098
690.573
692.627
694.314
695.906
698.263
700.515
706.154
706.998
711.84
711.086
709.704
708.832
705.791
703.803
700.546
697.974
696.809
696.766
699.312
703.784
707.281
709.131
709.44
711.286
713.142
714.595
716.28
717.541
719.39
718.881
644.343
645
647.272
647.74
650.506
654.071
657.468
661.183
665.06
668.422
670.682
672.19
674.365
676.94
680.823
685.357
690.134
693.487
695.063
693.917
692.36
692.724
690.883
688.89
686.416
684.87
683.344
684.141
686.497
688.155
687.977
690.574
691.352
692.585
694.461
696.045
697.242
699.679
700.773
701.371
623.482
624.337
625.005
625.122
628.022
631.122
635.442
640.851
645.49
649.12
650.581
654.546
659.205
662.163
665.295
668.39
673.254
674.672
670.846
674.612
675.248
674.789
674.775
673.548
672.077
673.174
672.777
672.947
673.511
674.075
674.318
673.401
676.157
677.37
678.529
678.815
678.671
680.237
681.3
681.926
602.641
602.804
604.617
605.739
608.855
612.199
616.623
621.808
626.31
630.71
634.321
641.822
645.545
648.462
650.427
651.153
653.48
654.954
652.729
654.669
659.831
657.941
658.808
659.047
655.499
658.134
658.447
658.418
658.002
659.266
660.049
662.051
661.891
661.016
663.915
662.327
664.558
663.556
663.589
664.33
586.211
586.64
586.985
589.604
592.789
596.488
599.744
603.911
608.26
612.232
616.284
622.803
628.748
630.245
631.283
633.537
635.5
634.734
636.044
637.951
642.691
641.232
641.446
642.446
640.961
643.753
646.683
641.661
643.188
644.124
644.726
645.978
648.6
649.981
650.526
651.801
653.234
652.749
651.417
650.777
569.255
569.49
570.692
573.419
576.169
579.268
582.616
586.095
589.995
593.974
598.201
602.366
606.033
609.357
612.246
614.767
616.928
617.668
618.793
620.394
624.108
623.78
624.233
624.074
625.574
624.927
625.568
626.018
625.942
626.963
628.332
630.258
632.604
636.145
637.352
638.359
638.231
636.746
636.133
636.132
552.436
551.806
555.793
554.343
558.006
561.067
564.003
567.24
571.551
576.139
580.575
584.564
588.148
590.974
592.927
594.753
597.518
599.498
601.271
603.57
604.343
605.239
605.714
606.087
607.037
607.952
607.729
606.737
608.928
610.24
610.3
613.393
615.244
618.164
620.562
620.973
621.733
621.401
620.613
620.251
535.043
537.544
536.894
542.383
541.293
544.294
546.388
547.799
553.216
559.022
564.043
568.21
571.481
573.136
573.472
576.305
580.136
581.892
583.921
583.687
582.702
583.383
583.468
584.221