/*--------------------------------*- C++ -*----------------------------------*\
  =========                 |
  \\      /  F ield         | OpenFOAM: The Open Source CFD Toolbox
   \\    /   O peration     | Website:  https://openfoam.org
    \\  /    A nd           | Version:  8
     \\/     M anipulation  |
\*---------------------------------------------------------------------------*/
FoamFile
{
    version     2.0;
    format      ascii;
    class       volScalarField;
    location    "9.2";
    object      p_rgh;
}
// * * * * * * * * * * * * * * * * * * * * * * * * * * * * * * * * * * * * * //

dimensions      [1 -1 -2 0 0 0 0];

internalField   nonuniform List<scalar> 
9150
(
1937.43
1936.43
1935.8
1935.35
1935.13
1935.14
1935.38
1935.87
1936.52
1937.52
1937
1936.49
1936.07
1935.75
1935.58
1935.61
1935.8
1936.13
1936.56
1937.08
1936.73
1936.46
1936.21
1935.99
1935.89
1935.9
1936.03
1936.25
1936.52
1936.8
1936.62
1936.45
1936.29
1936.15
1936.07
1936.07
1936.16
1936.33
1936.51
1936.68
1936.63
1936.45
1936.32
1936.2
1936.15
1936.15
1936.22
1936.36
1936.5
1936.68
1925.09
1924.39
1924.8
1925.32
1925.67
1925.83
1925.8
1925.57
1925.29
1926.03
1929.48
1928.76
1928.65
1928.65
1928.83
1928.93
1928.93
1929.09
1929.27
1929.99
1932.72
1931.95
1931.65
1931.35
1931.34
1931.39
1931.51
1931.92
1932.25
1933.02
1935.53
1934.37
1933.88
1933.28
1933.14
1933.18
1933.42
1934.06
1934.55
1935.72
1938.06
1936.04
1935.26
1934.59
1934.35
1934.39
1934.69
1935.38
1936.16
1938.18
1906.98
1908.02
1911.1
1914.12
1916.98
1919.87
1922.65
1925.14
1928.09
1929.1
1912.62
1913.31
1914.46
1916.31
1917.96
1919.81
1921.7
1923.35
1925.19
1925.72
1915.45
1916.23
1916.22
1917.61
1918.4
1919.62
1920.86
1921.27
1922.79
1922.87
1914.12
1917.41
1916.85
1919.04
1919.53
1920.27
1920.61
1919.88
1920.85
1918.37
1909.51
1919.14
1919.81
1921.56
1922.21
1922.51
1922.27
1921.42
1920.94
1911.93
1783.67
1783.71
1783.79
1783.88
1783.91
1783.87
1783.79
1783.67
1783.58
1783.5
1783.52
1783.52
1783.57
1783.67
1783.75
1783.77
1783.71
1783.63
1783.59
1783.53
1783.17
1783.26
1783.23
1783.29
1783.37
1783.48
1783.55
1783.66
1783.64
1783.61
1783.24
1783.21
1783.25
1783.43
1783.93
1784
1783.73
1783.73
1783.61
1783.44
1784.02
1784.11
1784.24
1784.51
1784.51
1784.42
1784.01
1783.71
1783.4
1782.98
1784.61
1784.81
1785.03
1785.07
1784.82
1784.7
1784.56
1784.45
1783.84
1782.97
1785.36
1785.71
1785.91
1785.4
1785.34
1785.29
1785.9
1785.43
1784.6
1782.7
1785.62
1786.13
1786.44
1785.22
1786.09
1786.55
1786.32
1785.35
1782.99
1782.73
1782.42
1783.17
1783.87
1785.84
1786.58
1786.55
1786.17
1783.63
1783.14
1783.79
1774.25
1775.86
1786.32
1786.55
1786.59
1786.55
1784.98
1783.37
1783.07
1784.93
1773.71
1783.32
1786.65
1786.82
1786.84
1786.81
1785.2
1782.97
1782.86
1783.62
1785.21
1787.22
1787.18
1787.18
1787.15
1787.06
1786.66
1783.21
1782.61
1782.3
1787.73
1787.6
1787.49
1787.45
1787.42
1787.26
1787.11
1786.41
1783.2
1782.5
1787.8
1787.71
1787.63
1787.57
1787.51
1787.38
1786.95
1786.78
1786.35
1785.25
1787.82
1787.75
1787.71
1787.67
1787.6
1787.4
1787.05
1786.93
1786.92
1786.54
1787.82
1787.75
1787.7
1787.67
1787.64
1787.54
1787.2
1786.85
1786.87
1786.62
1787.69
1787.62
1787.57
1787.55
1787.54
1787.49
1787.33
1786.87
1785.85
1785.68
1787.47
1787.45
1787.39
1787.37
1787.51
1787.6
1787.52
1786.58
1785.72
1786.15
1785.26
1785.13
1786.65
1787.16
1788.08
1786.37
1785.63
1785.13
1786.54
1786.04
1784.9
1784.48
1766.69
1760.65
1763.07
1787.49
1786.6
1785.62
1784.43
1780.63
1732.36
1732.09
1737.61
1783.69
1786.36
1786.44
1786.16
1785.8
1780.92
1777.72
1729.2
1728.96
1731.9
1784.01
1786.01
1785.91
1785.68
1785.54
1785.71
1785.79
1727.13
1727.16
1726.88
1770.85
1785.82
1785.62
1780.73
1773.55
1781.52
1785.94
1733.71
1724.99
1725.23
1751.38
1785.19
1783.79
1764.86
1765.38
1765.62
1778.7
1781.58
1780.17
1783.45
1783.39
1783.21
1768.77
1764.08
1764.55
1765
1765.53
1770.42
1780.47
1780.47
1780.76
1781.55
1781.88
1780.24
1774.96
1766.06
1764.84
1744.77
1746.96
1745.18
1771.58
1779.65
1780.83
1782.12
1784.25
1785.7
1785.08
1744.88
1744.11
1743.39
1749.57
1778.22
1781
1782.02
1783.26
1784.53
1785.82
1744.85
1744.06
1743.22
1762.44
1781.31
1781.42
1781.8
1782.46
1783.37
1784.25
1745.33
1744.65
1755.87
1782.08
1782.23
1782.21
1782.34
1782.63
1782.9
1782.93
1781.19
1767.83
1757.3
1756.72
1762.24
1770.23
1780.54
1783.47
1783.83
1783.87
1787.73
1779.53
1758.28
1757.69
1757.25
1757.43
1773.65
1785.78
1786.39
1786.66
1789.43
1765.08
1760.6
1760.3
1760.07
1760.3
1785.54
1788.96
1789.45
1789.8
1776.78
1763.25
1763.12
1762.94
1762.76
1779.53
1792.07
1792.33
1792.71
1792.97
1789.97
1765.54
1765.57
1765.29
1787.92
1795.01
1794.94
1795.07
1795.45
1795.81
1797.95
1785.96
1779.02
1792.77
1797.28
1797.1
1796.88
1795.34
1795.98
1797.63
1795.7
1787.45
1790.18
1799.69
1799.3
1798.87
1796.28
1772.57
1785.88
1797.39
1790.17
1789.54
1800.01
1802.11
1801.38
1784.2
1772.18
1771.64
1785.97
1787.7
1791.85
1794.41
1799.58
1801.24
1789.87
1771.43
1784.8
1796.94
1799.73
1799.31
1797.03
1794.53
1777.59
1776.72
1785.5
1786.17
1774.24
1780.14
1797.36
1799.2
1793.94
1795.46
1777.31
1776.69
1775.64
1774.73
1773.83
1773.3
1790.91
1798.96
1806.09
1803.48
1789.43
1776.51
1789.19
1797.82
1799.99
1799.1
1798.34
1797.7
1785.33
1781.98
1792.28
1791.65
1790.65
1796.03
1798.48
1796.95
1790.97
1778.54
1775.44
1774.39
1774.85
1774.79
1777.4
1787.43
1796.94
1778.86
1776.31
1776.27
1773.15
1771.81
1770.35
1773.86
1777.8
1788.25
1791.36
1784.22
1781.39
1781.44
1777.81
1778.07
1757.36
1692.02
1718.37
1798.2
1797.59
1796.45
1795.32
1794.53
1797.9
1764.7
1677.02
1677.16
1676.95
1751.09
1798.01
1796.99
1796.01
1795.16
1800.42
1739.13
1675.37
1675.14
1674.85
1684.79
1797.08
1798.16
1797.44
1796.76
1797.53
1777.38
1691.36
1673.2
1673.73
1674.41
1751.19
1799.79
1799.84
1799.59
1739.88
1720.64
1743.62
1742.99
1703.86
1678.71
1759.97
1795.75
1794.61
1793.99
1715.26
1715.6
1715.37
1728.1
1774.97
1776.95
1786.9
1779.73
1776.59
1777.42
1714.02
1714.05
1714.09
1716.2
1717.01
1717.83
1780.57
1802.71
1803.43
1804.51
1713.22
1714.22
1759.15
1788.98
1756.51
1751.83
1777.7
1800.6
1801.07
1801.25
1767.14
1799.3
1799.95
1799.01
1797.97
1797.35
1797.33
1797.4
1797.49
1797.3
1800.17
1799.64
1799.03
1793.73
1792.87
1793.22
1791.28
1789.79
1789.3
1789.38
1762.27
1765.3
1765.36
1733.67
1756.76
1762.56
1755.87
1744.16
1732.6
1719.71
1684.76
1705.45
1709
1730.8
1741.08
1662.39
1585.25
1514.06
1512.65
1513.29
1769.91
1777.15
1774.4
1770.6
1765.74
1654.72
1555.93
1509.58
1506.03
1505.18
1589.21
1699.59
1766.26
1767.17
1763.69
1759.95
1757.96
1719.49
1552.03
1499.95
1578.59
1577.02
1592.22
1749.25
1758.9
1760.24
1758.1
1756.15
1754.36
1708.51
1572.4
1571.33
1569.88
1567.67
1606.89
1733.88
1754.46
1757.66
1756.04
1754.48
1568.96
1564.79
1564.1
1564.21
1563.74
1562.28
1592.65
1737.45
1756.75
1756.62
1697.3
1690.59
1594.1
1564.75
1558.55
1559.3
1559.42
1559.5
1634.19
1757.96
1684.84
1687.18
1690.2
1692.07
1660.66
1555.63
1555.97
1557.75
1559.93
1646.44
1676.43
1683.15
1687.23
1687.51
1679.51
1671.66
1609.91
1556.76
1559.99
1563.83
1236.89
1685.11
1690.13
1581.28
1569.32
1666.55
1664.22
1629.18
1564.77
1568.04
1001.72
1193.84
1678.87
1634.61
1568.58
1565.69
1664.25
1661.06
1596.19
1574.62
995.465
997.247
1370.23
1635.78
1622.5
1493.83
1544.58
1658.93
1654.58
1580.62
992.507
993.219
1115.84
1634.75
1631.59
1486.56
1452.95
1505.66
1662.27
1679.43
989.769
989.671
989.239
1377.56
1633.5
1646.15
1445.16
1439.66
1436.48
1692.31
987.734
989.154
994.486
1212.77
1334.91
1652.7
1664.53
1453.77
1408.48
1410.38
1469.06
1282.4
1380.65
1440.1
1189.98
1480.22
1669.57
1672.75
1408.53
1405.96
1755.97
1486.95
1463.18
1375.18
1187.61
1196.01
1585.81
1685.85
1607.9
1434.42
1781.52
1683.15
1536.43
1365.05
1314.88
1460.04
1535.29
1687.13
1741.56
1660.92
1761.59
1765.37
1767.01
1673.42
1658.59
1767.89
1768.66
1767.84
1766.45
1255.98
1742.21
1767.8
1769.13
1769.31
1769.42
1768.79
1767.55
1766.92
1765.33
1481.44
1753.34
1771.11
1772.57
1771.3
1761.55
1754.48
1736.33
1717.9
1673.6
1725.57
1772.69
1775.68
1747.84
1584.85
1279.35
1213.21
1146.09
1050.72
1174.66
1416.86
1779.06
1680.11
1154.12
1030.63
1030.3
1030.65
1031.43
1031.98
1548.26
1846.18
1274.5
1042.9
1036.81
1032.34
1030.2
1030.12
1030.35
1029.79
1280.51
1831.56
1378.04
1423.28
1318.91
1193.09
1083.69
1028.96
1029.67
1053.31
1545.74
1852.73
1864.44
1865.64
1866.56
1867.88
1835.99
1450.29
1405.63
1759.43
1856.56
1855.02
1862.75
1864.54
1866.58
1868.13
1868.35
1867.17
1865.21
1852.08
1858.55
1855.51
1860.29
1861.95
1863.29
1864.58
1851.58
1851.1
1837.98
1835.53
1842.39
1851.21
1675.06
1791.44
1831.3
1747.04
1748.3
1762.2
1809.02
1844.75
1790.37
1700.01
1370.76
1405.39
1454.88
1550.27
1758.38
1850.13
1852.17
1841.31
1651.43
1647.34
1369.57
1369.41
1368.38
1536.35
1854.56
1856.09
1854.25
1699.91
1650.93
1644.48
1369.65
1370.34
1371.22
1738.97
1862.97
1863.53
1862.13
1666.69
1657.69
1738.95
1421.62
1494.41
1774.45
1825.58
1825.5
1870.66
1869.87
1686.31
1778.63
1863.47
1874.18
1866.62
1858.08
1761.99
1790.45
1881.2
1884.05
1846.76
1880.51
1874.44
1822.98
1868.08
1827.18
1765.82
1837.43
1890.73
1890.41
1890.13
1888.92
1882.31
1710.85
1863.46
1686.71
1768.68
1897.6
1896.73
1895.61
1895.04
1892.95
1887.43
1692.78
1643.06
1658.76
1860.95
1903.5
1900.93
1898.6
1846.71
1857.46
1884.23
1576.81
1529.66
1665.11
1908.03
1906.43
1902.02
1898.03
1537.87
1698.62
1880.94
1523.4
1523.4
1871.4
1912.18
1905.92
1899.27
1866.51
1424.81
1607.82
1867.08
1521.8
1690.23
1914.68
1911.04
1906.49
1899.89
1659.83
1413.53
1487.98
1859.43
1549.93
1917.03
1916.4
1913.12
1910.21
1901.17
1587.07
1418.88
1755.23
1881.82
1826.5
1916.54
1916.68
1914.42
1914.23
1912.21
1799.29
1448.06
1446.03
1566.86
1770.35
1904.68
1911.61
1912.93
1915.17
1917.02
1919.63
1922.92
1723.28
1443.24
1899.75
1897.48
1908.06
1912.17
1915.81
1919.31
1922.83
1926.71
1932.03
1094.88
1783.41
1783.31
1783.26
1783.11
1783.15
1783.19
1783.22
1783.3
1783.43
1783.59
1783.78
1784.01
1784.27
1784.57
1784.84
1785.07
1785.27
1785.46
1785.65
1785.8
1785.97
1786.12
1786.2
1786.23
1786.38
1786.18
1786.15
1786.08
1786.03
1785.98
1785.94
1785.91
1785.87
1785.87
1785.87
1785.9
1785.96
1786.01
1786.01
1786.02
1783.46
1783.38
1783.13
1782.96
1782.89
1782.85
1782.95
1783.1
1783.25
1783.42
1783.62
1783.86
1784.15
1784.51
1784.84
1785.08
1785.27
1785.43
1785.61
1785.85
1786.02
1786.18
1786.2
1786.33
1786.32
1786.33
1786.25
1786.14
1786.03
1785.94
1785.87
1785.81
1785.75
1785.76
1785.8
1785.86
1785.94
1786
1786
1785.98
1783.5
1783.36
1783.14
1782.68
1782.59
1782.55
1782.58
1782.92
1783.01
1783.15
1783.34
1783.52
1783.91
1784.3
1784.74
1784.99
1785.08
1785.27
1785.47
1785.64
1786.04
1786.1
1786.51
1786.58
1786.57
1786.51
1786.36
1786.22
1786
1785.84
1785.73
1785.55
1785.68
1785.66
1785.68
1785.72
1785.84
1785.93
1785.98
1786.01
1783.41
1783.22
1783.03
1782.39
1782.22
1782.13
1782.13
1782.49
1782.6
1782.63
1782.79
1783.05
1783.53
1784.17
1784.68
1784.98
1785.11
1784.88
1784.99
1785.24
1785.88
1786.11
1786.16
1786.17
1786.17
1786.24
1786.16
1786.03
1785.86
1785.66
1785.41
1784.92
1784.72
1784.91
1784.82
1784.84
1785.33
1785.8
1785.96
1786.02
1782.8
1782.24
1781.71
1781.62
1781.67
1782.28
1781.99
1781.94
1781.81
1781.79
1781.71
1781.93
1782.73
1783.68
1784.16
1784.14
1784.26
1784.24
1784.19
1784.51
1785.26
1784.7
1784.99
1785.15
1785.66
1785.89
1785.8
1785.62
1785.4
1785.13
1784.12
1783.93
1784.24
1784.4
1784.4
1784.37
1784.21
1786.08
1786.12
1786.17
1782.39
1782.19
1781.62
1781.24
1781.67
1781.6
1781.5
1781.41
1781.45
1781.35
1781.2
1778.71
1779.11
1782.34
1783.02
1783.22
1783.38
1782.69
1782.83
1783.11
1783.22
1783.54
1784.49
1784.71
1784.8
1784.82
1784.86
1784.96
1785.11
1784.26
1783.81
1784.2
1784.45
1784.49
1784.29
1784.15
1784.56
1786.22
1786.23
1786.39
1782.11
1782.05
1782.47
1782.21
1781.95
1781.68
1781.41
1781.05
1780.83
1778.54
1776.2
1776.68
1777.19
1779.04
1782.27
1782.5
1781.56
1781.29
1781.43
1781.74
1782.68
1782.8
1782.87
1782.99
1783.17
1783.36
1783.61
1783.95
1784.35
1784.78
1784.95
1784.66
1785.38
1786.49
1785.88
1785.26
1783.91
1782.27
1782.12
1782.94
1783.24
1783.45
1782.81
1782.23
1780.87
1780.53
1781.53
1780.85
1776.69
1775.12
1775.4
1775.71
1775.96
1777.56
1781.78
1781.41
1780.01
1779.99
1780.15
1781.06
1781.03
1781.08
1781.13
1781.25
1781.47
1781.74
1782.1
1782.5
1783.04
1783.77
1784.43
1785.01
1785.57
1786.03
1785.77
1784.49
1780.88
1780.73
1780.89
1781.04
1784.81
1784.05
1779.66
1777.97
1778.49
1782.45
1782.21
1781.39
1775.84
1775.11
1775.05
1775.04
1774.99
1780.25
1781.19
1780.4
1779.16
1778.72
1779.72
1779.42
1779.14
1779.13
1779.29
1779.64
1780.1
1780.63
1781.04
1780.99
1781.62
1782.78
1783.63
1784.35
1784.96
1785.4
1781.98
1779.89
1780.13
1780.34
1780.4
1784.79
1786.18
1781.8
1778.09
1777.89
1777.78
1783.42
1783.02
1782.67
1781.1
1775.24
1774.99
1774.71
1777.93
1780.87
1780.42
1779.83
1778.97
1778.59
1777.62
1775.83
1776.37
1777.54
1777.32
1777.22
1777.76
1778.18
1778.82
1780
1781.15
1781.85
1782.54
1783.68
1784.62
1785.2
1782.17
1779.34
1779.54
1779.77
1779.82
1786.87
1786.05
1785.33
1779.63
1778.11
1777.57
1782.91
1783.48
1783.31
1783.01
1781.16
1777.67
1777.82
1780.91
1780.36
1779.79
1779.16
1778.51
1777.92
1775.78
1774.13
1773.69
1773.46
1773.73
1774.33
1774.97
1775.73
1776.57
1779.01
1781.56
1781.72
1782.24
1782.98
1783.72
1784.81
1785.48
1783.83
1780.53
1779.13
1779.27
1786.31
1784.67
1785.82
1785.09
1781.21
1779.94
1783.59
1783.97
1783.79
1783.31
1782.89
1782.44
1781.67
1780.77
1779.96
1779.18
1778.4
1777.67
1777.03
1775.83
1773.16
1773.1
1773.11
1773.57
1774.8
1774.48
1774.81
1775.67
1776.62
1781.07
1782.06
1782.77
1783.16
1783.48
1784.12
1784.85
1785.95
1786.36
1785.39
1780.01
1785.79
1784.19
1785.63
1785.39
1785.14
1784.7
1784.21
1783.78
1783.76
1783.88
1783.25
1781.97
1781.18
1780.46
1779.42
1778.45
1778.04
1777.45
1776.11
1775.11
1774.48
1774.95
1775.72
1776.55
1776.61
1776.07
1775.67
1775.05
1776.63
1780.33
1781.8
1782.85
1783.78
1784.42
1784.31
1784.67
1785.37
1786.31
1786.68
1786.74
1785.12
1785.63
1785.7
1785.42
1785.2
1783.93
1773.62
1767.96
1768.68
1767.96
1768.37
1765.33
1766.68
1765.78
1766.91
1771.52
1777.71
1777.62
1776.23
1773.79
1770.54
1772.75
1774.63
1770.55
1766.12
1766.49
1770.25
1774.53
1777.91
1780.09
1781.78
1783.02
1784.02
1784.86
1785.55
1785.4
1785.13
1785.42
1787.09
1787.34
1785.97
1786.18
1785.86
1785.62
1784.28
1777.29
1764.48
1764.66
1764.46
1767.94
1763.63
1762.83
1761.54
1760.58
1759.8
1758.64
1766.57
1776.63
1761.59
1748.87
1751.69
1769.17
1766.25
1747.83
1748.56
1748.76
1749.03
1762.64
1775.01
1780.65
1782.41
1783.78
1784.8
1785.59
1786.23
1786.74
1786.19
1785.94
1786.58
1787.73
1787.65
1786.36
1786.09
1782.82
1775.31
1767.23
1765.2
1770.3
1776.63
1785.12
1781.47
1779.64
1769.66
1760.88
1760.21
1759.69
1778.23
1753.74
1751.13
1749.6
1753.98
1746.83
1747.8
1748.9
1749.46
1749.49
1749.32
1749.41
1759.27
1781.95
1783.97
1785.14
1785.96
1786.56
1787.05
1787.48
1787.85
1786.56
1787
1788.21
1788.31
1785.62
1785.37
1772.35
1771.63
1771.34
1781.31
1786.77
1787.07
1787.11
1787.01
1786.77
1786.22
1783.48
1776.01
1777.32
1784.26
1784.91
1766.48
1750.41
1750.42
1749.96
1749.7
1750.01
1750.2
1750.27
1750.32
1750.79
1767.42
1784.35
1785.49
1786.42
1787.01
1787.42
1787.78
1788.14
1788.46
1787.98
1787.55
1788.69
1788.78
1786.09
1784.22
1779.7
1780.03
1784.33
1787.1
1787.16
1787.2
1787.21
1787.13
1787.01
1786.83
1786.51
1786.02
1785.6
1785.68
1786.02
1786.69
1761.68
1752.41
1751.86
1751.53
1758.88
1752.48
1751.78
1763.52
1785.42
1785.88
1786.08
1786.62
1787.11
1786.85
1787.36
1788.16
1788.53
1788.9
1789.22
1788.51
1786.81
1788.68
1786.2
1786.49
1787.15
1787.24
1787.27
1787.28
1787.31
1787.34
1787.33
1786.94
1786.89
1787.11
1786.88
1786.6
1786.34
1786.35
1786.77
1783.94
1773.87
1777.07
1784.7
1788.55
1788.59
1788.5
1787.98
1787.48
1786.98
1786.66
1786.58
1786.75
1785.06
1783.2
1785.14
1788.19
1788.6
1789.01
1789.36
1789.36
1786.24
1788.09
1780.95
1786.88
1786.86
1786.69
1786.5
1786.43
1785.68
1786.7
1786.44
1786.11
1786.01
1786.99
1787.09
1786.96
1786.88
1786.84
1786.23
1782.8
1788.01
1788.18
1788.35
1788.4
1787.54
1788.24
1787.91
1787.33
1784.66
1784.95
1784.42
1782.34
1782.56
1782.82
1784.11
1788.09
1788.57
1789.04
1789.36
1788.31
1785.92
1788.02
1777.92
1777.46
1777.12
1777.73
1783.13
1782.97
1783.13
1783
1785.72
1787.52
1787.59
1787.45
1787.27
1787.31
1787.46
1773.67
1756.88
1770.19
1786.62
1787.96
1787.28
1786.69
1786.71
1787.65
1787.95
1785.4
1783.21
1783.01
1782.87
1782.4
1782.41
1784.54
1787.6
1787.77
1788.03
1788.51
1788.99
1785.34
1785.38
1789.36
1781.91
1757.25
1757.02
1757.42
1759.37
1783.2
1786.32
1786.32
1786.36
1782.96
1772.69
1762.3
1758.3
1757.98
1756.9
1756.67
1756.23
1766.16
1784.44
1786.13
1786.45
1786.7
1787.22
1787.9
1787.77
1787.53
1784.53
1785.98
1787.13
1787
1786.87
1786.79
1786.3
1785.77
1786.11
1786.8
1786.95
1785.49
1786.95
1788.82
1777.87
1756.1
1756.49
1757.08
1758.26
1757.32
1757.46
1757.75
1758.25
1758.51
1760.24
1764.13
1775.08
1778.99
1776.76
1774.42
1780.87
1785.87
1784.68
1785.61
1788.03
1787.84
1787.77
1786.72
1787.16
1787.66
1787.57
1787.39
1787.18
1787.03
1785.32
1784.99
1785.81
1787.05
1785.9
1786.31
1787.75
1788.15
1788
1787.48
1786.28
1787.59
1788.12
1788.42
1787.84
1766.78
1756.85
1756.73
1780.11
1788.78
1789.44
1790.05
1790.3
1788.87
1787.17
1783.53
1784.27
1788.56
1788.96
1788.28
1787.97
1787.91
1787.77
1779.76
1785.41
1787.53
1787.51
1787.51
1787.46
1786.53
1785.65
1786.04
1787.7
1787.85
1787.91
1787.74
1788.03
1788.06
1781.81
1780.92
1766.32
1776.26
1788.55
1787.24
1786.76
1785.47
1782.18
1779.86
1784.69
1786.08
1786.96
1787.85
1788.32
1788.51
1788.23
1789.77
1789.94
1789.63
1789.2
1788.02
1778.83
1779.4
1778.63
1771.79
1780.85
1787.24
1787.38
1787.49
1787.63
1787.78
1786.34
1787.47
1788
1788
1788.04
1788.13
1788.17
1788.42
1775.41
1779.6
1765.94
1767.03
1767.71
1767.4
1771.65
1785.59
1784.59
1783.48
1782.44
1770.81
1764.08
1773.73
1782.12
1786.27
1788.42
1789.05
1789.17
1789.06
1788.82
1788.51
1777.57
1755.98
1755.72
1755.53
1760.82
1779.51
1786.6
1787.71
1787.9
1788.11
1788.25
1788.22
1788.14
1788.02
1787.92
1787.71
1787.52
1786.32
1778.66
1788.63
1780.81
1773.01
1770.44
1768.89
1767.55
1766.19
1764.81
1779.44
1783.43
1758.21
1738.38
1738.79
1746.49
1774.96
1787.48
1788.56
1788.1
1788.23
1788.53
1788.32
1788.33
1781.84
1755.32
1754.7
1754.48
1754.22
1760.93
1786.45
1788.43
1787.84
1788.52
1788.29
1787.99
1787.66
1787.45
1773.18
1764.34
1770.48
1788.36
1788.28
1787
1787.93
1788.5
1788.75
1788.11
1781.11
1766.14
1767.43
1785.05
1784.84
1750.32
1737.59
1738.93
1753.12
1786.8
1788.47
1787.73
1787.7
1788.39
1788.55
1788.78
1789.1
1789.36
1779.53
1753.69
1753.83
1754.21
1765.68
1789.06
1788.71
1787.39
1788.78
1788.53
1784.46
1764.94
1762.07
1762.54
1775.85
1788.12
1788.24
1784.96
1785.41
1785.31
1784.8
1784.3
1773.85
1780.03
1784.55
1785.1
1785.62
1785.8
1741.05
1738.48
1747.4
1784.44
1787.78
1787.98
1787.78
1787.64
1787.9
1788.23
1788.61
1788.59
1788.48
1788.47
1785.91
1767.91
1777.67
1789.42
1789.56
1780.09
1769.29
1780.58
1762.47
1761.32
1761.3
1770.21
1788.54
1788.42
1788.4
1782.54
1781.46
1761.35
1751.67
1751.65
1747.84
1775.77
1786.78
1764.54
1751.42
1751.07
1749.9
1769.57
1775.68
1780.76
1787.29
1787.06
1786.09
1781.55
1781.5
1786.52
1787.1
1787.03
1786.83
1786.79
1779.51
1784.47
1788.76
1789.41
1773.04
1761.51
1761.49
1760.96
1760.75
1760.34
1761.75
1788
1788.13
1788.2
1788.17
1783.51
1771.81
1681.48
1676.64
1695.56
1752.16
1753.9
1767.91
1767.12
1764.46
1776.9
1786.61
1785.65
1780.9
1777.63
1782.86
1785.39
1755.25
1725.17
1773.77
1784.99
1785.74
1785.83
1785.72
1781.61
1769.45
1776.31
1788.5
1788.98
1769.4
1760.32
1760.47
1760.17
1759.83
1759.35
1761.07
1784.88
1783.31
1787.74
1775.32
1786.47
1704.11
1675.43
1674.78
1672.86
1744.36
1777.62
1781.03
1783.34
1784.64
1783.89
1781.89
1781.22
1775.43
1775.7
1780.73
1775.66
1693.09
1693.05
1764.43
1783.78
1785.04
1785.13
1784.92
1777.2
1768.18
1769.06
1785.33
1786.46
1769.7
1759.5
1759.61
1759.56
1759.45
1759.1
1780.38
1786.43
1769.7
1758.61
1769.44
1789.99
1699.57
1676.27
1674.51
1671.93
1668.7
1733.88
1781.08
1781.93
1781.37
1732.59
1739.41
1773.98
1772.39
1774.86
1777.84
1695.35
1686.33
1699.13
1772.35
1783.57
1773.48
1778.54
1783.84
1775.09
1767.22
1768.25
1785.45
1775.84
1767.76
1759.26
1759.28
1761.16
1769.89
1777.98
1780.3
1750.42
1723.91
1749.06
1762.35
1793
1723.28
1674.78
1674.02
1673
1671.89
1715.79
1786.06
1785.85
1754.17
1682.67
1693.18
1756.76
1731.31
1713.25
1686.45
1684.57
1684.43
1755.87
1777.57
1771.19
1751.23
1764.48
1782.79
1773.59
1767.3
1772.43
1785.8
1777.98
1771.88
1759.15
1774.23
1779.43
1778.38
1774.44
1723.12
1721.81
1721.75
1721.78
1742.81
1796.17
1760.03
1673.42
1673.24
1672.72
1715.09
1791.06
1791.03
1789.83
1704.32
1681.43
1682.02
1683.06
1681.11
1682.46
1683.4
1685.12
1762.62
1783.74
1780.38
1701.61
1757.88
1784.2
1784.09
1780.03
1779.43
1786.11
1787.6
1789.47
1788.71
1780.04
1779.68
1779.43
1774.06
1721.76
1719.49
1719.77
1724.37
1774.22
1732.44
1795.64
1796.29
1696.83
1682.92
1762.56
1791.04
1794.33
1794.25
1791.61
1726.7
1683.27
1682.89
1681.7
1681.92
1682.57
1719.32
1790.52
1790.71
1787.15
1762.82
1685.51
1789.28
1788.38
1788.12
1788.46
1789.29
1789.28
1788.29
1789.66
1789.63
1758.91
1734.84
1742.01
1732.4
1720.51
1719.69
1751.89
1782.03
1786.41
1704.65
1779.26
1694.9
1679.55
1689.06
1780.72
1795.27
1796.4
1796.27
1792.16
1782.99
1684.22
1683.67
1682.55
1702
1779.36
1791.37
1790.51
1789.69
1777.46
1744.43
1641.2
1770
1788.91
1788.25
1787.91
1788.47
1789.38
1790.06
1768.9
1734.21
1734.88
1735.02
1734.97
1742.28
1725.55
1734.24
1781.96
1785.42
1784.84
1718.21
1764.58
1697.74
1731.99
1781.88
1793.01
1792.77
1796.96
1797.09
1795.57
1789.85
1719.01
1735.05
1777.25
1793.73
1792.44
1790.84
1786.87
1774.03
1769.67
1716.3
1629.08
1649.13
1782.14
1787.9
1786.42
1785.66
1780.77
1788.88
1790.56
1792.05
1790.77
1773.08
1762.76
1784.69
1786.66
1786.63
1785.74
1784.72
1659.63
1632.29
1798.98
1798.49
1789.39
1784.34
1766.02
1767.97
1784.05
1797.66
1794.18
1780.08
1795.77
1795.48
1794.99
1794.06
1792.19
1779.36
1777.81
1781.9
1769.3
1643.45
1620.82
1620.48
1639.04
1724.52
1744.02
1729.73
1785.77
1788.5
1777.63
1752.59
1756.79
1773.76
1740.54
1723.83
1723.66
1723.01
1766.22
1648.19
1627.47
1628.27
1799.12
1799.15
1775.9
1757.4
1757.25
1757.08
1756.79
1778.78
1797.19
1788.62
1790.28
1797.01
1796.88
1795.81
1785.46
1781.13
1788.15
1790.4
1738.37
1618.97
1619.77
1620.13
1619.88
1620.26
1622.66
1685
1790
1792.68
1735.4
1701.62
1701.16
1769.55
1794.12
1794.48
1767.25
1678.47
1646.22
1628.35
1628.48
1628.73
1798.77
1798.75
1798.68
1794.52
1761.21
1756.45
1756.47
1768.27
1797.85
1797.89
1792.93
1798.15
1798.53
1792.79
1787.26
1789.18
1795.04
1794.56
1785.05
1654.06
1620.36
1620.57
1620.1
1619.73
1659.5
1740.3
1791.22
1794.13
1787.72
1770.37
1791.1
1791.26
1792.17
1792.97
1793.59
1759.6
1704.99
1690.02
1635.4
1626.01
1797.87
1797.82
1797.7
1797.56
1797.39
1779.47
1775.76
1794.04
1797.42
1797.87
1798.46
1799.35
1798.9
1774.94
1793.6
1796.58
1796.4
1796.4
1794.07
1769.55
1700.82
1675.23
1702.64
1752.52
1781.43
1794.52
1794.53
1794.58
1794.18
1768.95
1677.12
1774.95
1784.03
1790.74
1792.98
1794.7
1796.11
1797.42
1796.31
1785.73
1788.86
1796.63
1794.16
1794.1
1796.14
1795.95
1795.69
1795.35
1795.22
1789.87
1757.79
1767.17
1741.96
1726.53
1781.03
1796.8
1797.4
1793.78
1792.77
1795.6
1799.2
1798.18
1799.53
1799.66
1798.62
1797.2
1795.84
1794.72
1783.41
1678.21
1633.42
1632.52
1748.7
1790.27
1784.46
1787.73
1794.85
1796.63
1797.1
1797.17
1776.74
1783.14
1783.23
1789.36
1795.08
1794.94
1794.73
1794.37
1749.43
1721.8
1721.63
1722.18
1722.79
1723.06
1723.32
1765.06
1794.73
1794.54
1793.06
1795.18
1800.02
1799.95
1799.84
1799.44
1798.59
1797.4
1794.55
1705.03
1636.38
1633.34
1633.12
1631.81
1744.13
1789.05
1782.82
1783.75
1784.17
1795.61
1794.66
1795.68
1780.33
1780.08
1782.09
1792.96
1793.69
1794.09
1793.91
1793.66
1793.68
1734.98
1719.4
1719.95
1720.18
1720.93
1750
1776.92
1777.51
1793.32
1798.56
1796.57
1799.99
1799.92
1799.76
1799.45
1798.91
1774.13
1653.86
1633.8
1634.17
1634.42
1634.87
1729.54
1795.27
1794.72
1786.96
1789.37
1791.06
1795.25
1781.54
1770.39
1792.24
1789.17
1790.79
1791.77
1791.59
1792.9
1793.23
1792.94
1792.78
1788.86
1754.25
1746.64
1761
1772.63
1778.62
1779.63
1781.19
1797.65
1800.07
1800.14
1800.03
1799.91
1799.87
1799.74
1799.38
1770.68
1636.59
1634.93
1749.09
1739.08
1770.53
1797.47
1796.43
1791.36
1795.76
1795.59
1795.24
1795.04
1778.3
1762.21
1794.67
1792.35
1788.73
1789.82
1793.06
1792.51
1790.49
1789.87
1791.07
1790.69
1784.56
1758.09
1765.72
1769.64
1717.22
1741.1
1796.8
1797.6
1798.87
1800.3
1800.35
1800.29
1800.22
1800.05
1796.56
1743.43
1681.85
1775.08
1797.26
1797.66
1796.97
1796.55
1787.76
1780.55
1780.85
1790.36
1794.58
1794.95
1787.21
1762.37
1793.63
1790.72
1790.38
1791.19
1794.09
1788.89
1779.05
1777.04
1778.8
1784.58
1783.79
1721.96
1682.33
1686.28
1687.17
1691.83
1794.76
1798.11
1796.86
1801.03
1801.25
1801.26
1801.18
1789.94
1755.87
1742.8
1762.63
1796.18
1796.73
1797.06
1796.43
1794.29
1789.36
1784.68
1711.92
1622.38
1688.49
1775.29
1788.17
1771.79
1798.24
1793.35
1792.89
1793.86
1796.28
1790.76
1746.92
1691.92
1690.34
1688.99
1709.78
1706.49
1681.89
1684.02
1685.85
1723.73
1798.23
1799.16
1798.86
1802.93
1803.01
1802.9
1802.59
1800.79
1737.5
1776.73
1795.23
1795.01
1794.69
1796.82
1798.11
1798.75
1799.39
1800.26
1797.15
1550.51
1516.59
1580.04
1787.11
1794.12
1801.41
1801.22
1800.62
1799.74
1798.74
1751.97
1694.43
1692.69
1691.23
1688.18
1682.97
1681.38
1681.53
1712.25
1767.17
1793.49
1800.53
1800.9
1802.05
1805.22
1805.2
1799.89
1792.24
1717.18
1704.67
1788.72
1793.56
1793.81
1792.46
1796.84
1799.1
1800.37
1801.45
1802.56
1803.69
1770.29
1513.8
1507.1
1595.68
1793.78
1788.57
1789.25
1798.44
1801.9
1800.37
1799.95
1800.02
1779.08
1715.6
1748.98
1791.28
1790.61
1771.43
1752.64
1753.31
1755.59
1757.73
1759.71
1762.54
1784.28
1758.73
1707.28
1695.63
1694.26
1690.53
1685.62
1743.64
1791.33
1784.69
1794.02
1800.04
1794.04
1796.69
1805.1
1806.52
1782.29
1514.19
1503.88
1504.34
1765.53
1770.04
1762.45
1762.54
1805.3
1804.77
1803.98
1802.2
1800.28
1798.55
1796.97
1792.58
1792.46
1792.94
1794
1786.99
1775.36
1778.98
1798.57
1804.19
1804.76
1804.96
1805.11
1797.09
1713.02
1690.75
1686.56
1683.67
1682.89
1684.24
1743.4
1784.6
1773.63
1784
1807.4
1808.84
1810.2
1540.43
1502.62
1516.82
1769.09
1801.48
1801.85
1802.69
1769.07
1766.14
1765.71
1786.21
1800.62
1796.81
1773.06
1749.83
1777.72
1774.94
1765.09
1762.43
1776.11
1785.39
1792.86
1799.09
1798.03
1740.98
1717.09
1764.01
1791.33
1789.13
1776.3
1773.61
1775.56
1775.85
1664.74
1679.2
1774.43
1808.5
1809.26
1810.09
1586.89
1501.48
1501.66
1723.48
1784.46
1796.86
1796.62
1796.87
1796.06
1792.45
1791.37
1796.33
1784.71
1689.22
1665.9
1703.84
1778.98
1682.74
1526.1
1526.04
1563.94
1622.41
1634.2
1753.48
1730.6
1611.65
1613.18
1648.04
1784.84
1783.16
1772.17
1774.98
1778.18
1627.66
1592.94
1594.77
1733.03
1807.01
1810.81
1812.58
1674.2
1504.28
1605.13
1805.57
1779.53
1789.49
1790.01
1791.35
1792.04
1792.26
1792.57
1792.97
1792.89
1677.17
1667.4
1667.04
1667.32
1667.79
1768.1
1787.2
1521.26
1463.29
1464.07
1578.18
1646.38
1609.03
1609.35
1678.73
1786.53
1771.43
1633.2
1582.47
1583.34
1585.23
1588.76
1591.5
1593.43
1668.94
1810.06
1814.13
1796.97
1652.25
1768.19
1805.71
1775.4
1724.63
1752.59
1779.16
1783.69
1786.18
1788.15
1789.9
1791.57
1790.34
1717.48
1669.2
1691.09
1786.86
1800.38
1801.32
1562.82
1467.22
1469.23
1577.8
1583.2
1612.37
1680.67
1804.22
1788.09
1783.76
1724.74
1580.34
1581.59
1584.31
1587.49
1590.65
1619.78
1792.12
1813.46
1815.67
1817.42
1817.5
1817.57
1792.93
1776.59
1515.03
1516.51
1691.38
1778.23
1781.2
1783.97
1786.36
1788.91
1791.69
1787.01
1779.78
1792.88
1800.02
1801.6
1738.72
1464.24
1462.95
1500.02
1779.51
1625.56
1645.8
1813.06
1810.02
1808.03
1804.77
1802.07
1757.86
1682.72
1666.26
1699.4
1763.39
1808.28
1813.79
1810.61
1814.71
1819.11
1819.82
1789.74
1785.49
1812.24
1504.64
1505.29
1507.56
1674.08
1776.38
1779.98
1783.38
1787.1
1790.98
1794.34
1796.51
1797.86
1775.67
1565.24
1459.59
1456.29
1473.5
1788.54
1789.63
1626.09
1661.08
1816.49
1814.66
1812.66
1807.59
1769.37
1658.51
1575.5
1577.89
1580.1
1694.77
1814.47
1815.26
1816.37
1818.44
1820.09
1804.62
1791.03
1804.74
1814.54
1498.79
1499.59
1573.34
1726.03
1773.51
1776.62
1780.94
1776.7
1782.71
1794.59
1786.81
1608.18
1450.68
1445.54
1449.02
1452.55
1797.41
1798.13
1707.02
1655.59
1659.74
1797.95
1818.09
1816.8
1745.57
1579.99
1579.59
1579.77
1580.37
1581.12
1582.95
1746.71
1819.62
1820.83
1821.99
1822.34
1822.13
1791.43
1813.47
1814.46
1664.39
1718.46
1713.14
1759.26
1773.86
1771.78
1761.28
1766.43
1783.55
1795.75
1722.47
1438.67
1442.31
1445.23
1447.2
1618.45
1817.5
1788.48
1691.67
1715.48
1652.15
1706.46
1821.6
1821.54
1733.83
1580.45
1580.77
1580.78
1605.77
1711.22
1711.61
1605.8
1611.42
1719.95
1786.35
1728.46
1634.72
1671.19
1781.77
1783.09
1754.09
1754.53
1725.88
1720.95
1724.14
1727.83
1764.69
1785.89
1793.23
1797.18
1781.27
1607.84
1515.99
1559.15
1666.68
1815.52
1819.1
1766.77
1684.82
1730.29
1664.72
1705.08
1806.74
1823.32
1813.64
1644.33
1585.28
1736.9
1813.48
1814.56
1804.88
1629.07
1585.58
1585.19
1586.73
1587.4
1589.59
1589.48
1624.47
1644.92
1756.44
1754.96
1767.96
1774.4
1777.39
1779.44
1783.55
1790.66
1794.56
1798.54
1802.05
1802.7
1798.24
1807.13
1815.64
1818.18
1820.1
1733.95
1711.22
1685.83
1665.7
1704.36
1801.19
1780.56
1751.09
1768.82
1820.04
1819.44
1812.29
1811.58
1812.67
1812.55
1658.33
1586.82
1588.01
1589.03
1611.34
1697.46
1765.58
1763.5
1758.72
1723.29
1664.67
1744.98
1782.05
1785.19
1788.15
1791.39
1795.7
1800.29
1804.72
1808.71
1812.23
1814.86
1814.24
1772.3
1759.69
1729.7
1662.54
1664.57
1686
1799.79
1800.36
1782.58
1781.45
1822.07
1823.46
1802.33
1754.14
1753.83
1797.49
1815.34
1814.2
1739.9
1722.33
1800.53
1841.56
1841.23
1839.67
1813.24
1758.58
1761.92
1662.31
1591.89
1641.4
1787.92
1789.78
1790.73
1796.95
1802.76
1807.78
1811.95
1815.21
1816.81
1776.63
1663.42
1631.63
1732.28
1662.56
1691.38
1798.69
1797.45
1789.45
1788.81
1811.83
1816.51
1824.34
1801.42
1752.5
1752.14
1752.83
1754.22
1755.93
1758.22
1817.92
1842.62
1843.04
1842.83
1841.36
1815.1
1732.54
1765.43
1767.09
1584.82
1519.14
1518.41
1643.53
1585.84