/*--------------------------------*- C++ -*----------------------------------*\
  =========                 |
  \\      /  F ield         | OpenFOAM: The Open Source CFD Toolbox
   \\    /   O peration     | Website:  https://openfoam.org
    \\  /    A nd           | Version:  8
     \\/     M anipulation  |
\*---------------------------------------------------------------------------*/
FoamFile
{
    version     2.0;
    format      ascii;
    class       volScalarField;
    location    "5";
    object      alpha.water;
}
// * * * * * * * * * * * * * * * * * * * * * * * * * * * * * * * * * * * * * //

dimensions      [0 0 0 0 0 0 0];

internalField   nonuniform List<scalar> 
9150
(
1
1
1
1
1
1
1
1
1
1
1
1
1
1
1
1
1
1
1
1
1
1
1
1
1
1
1
1
1
1
1
1
1
1
1
1
1
1
1
1
1
1
1
1
1
1
1
1
1
1
1
1
1
1
1
1
1
1
1
1
1
1
1
1
1
1
1
1
1
1
1
1
1
1
1
1
1
1
1
1
1
1
1
1
1
1
1
1
1
1
1
1
1
1
1
1
1
1
1
1
1
1
1
1
1
1
1
1
1
1
1
1
1
1
1
1
1
1
1
1
1
1
1
1
1
1
1
1
1
1
1
1
1
1
1
1
1
1
1
1
1
1
1
1
1
1
1
1
1
1
0.992623
0.992623
0.992623
0.992623
0.992621
0.991583
0.989565
0.989564
0.989566
0.992297
0.992623
0.992615
0.983547
0.973391
0.973357
0.982659
0.992362
0.992418
0.992381
0.992504
0.976372
0.971563
0.971592
0.983235
0.992417
0.992448
0.99232
0.992456
0.992504
0.992506
0.98953
0.971585
0.971562
0.972476
0.992449
0.992479
0.992497
0.992504
0.992506
0.992506
0.992624
0.986486
0.971614
0.971661
0.984889
0.992449
0.970522
0.95799
0.958026
0.958387
0.992632
0.992624
0.992371
0.988226
0.963063
0.959905
0.970713
0.958004
0.957874
0.957941
0.992633
0.992632
0.992623
0.992503
0.950409
0.918501
0.918645
0.974019
0.982947
0.983095
0.992632
0.992632
0.992632
0.992623
0.990575
0.968872
0.916434
0.797122
0.765209
0.763178
0.97665
0.984822
0.992623
0.992567
0.992556
0.992543
0.980141
0.926782
0.869327
0.762924
0.973864
0.97351
0.974293
0.987662
0.992543
0.992561
0.992606
0.992597
0.992309
0.807604
0.986437
0.973295
0.973261
0.973227
0.985697
0.992606
0.992618
0.99262
0.992597
0.844075
0.992662
0.986319
0.973227
0.973227
0.986202
0.992618
0.992621
0.992618
0.973405
0.806673
0.992995
0.993031
0.984465
0.983974
0.992366
0.99262
0.992618
0.986871
0.82653
0.804225
0.993034
0.993035
0.993031
0.992958
0.984803
0.987685
0.965316
0.82931
0.802907
0.812971
0.993035
0.993035
0.993036
0.993036
0.991912
0.888816
0.806134
0.802893
0.803097
0.903713
0.976756
0.993036
0.993036
0.993036
0.993036
0.940257
0.803112
0.803005
0.802943
0.966409
0.523257
0.580371
0.709782
0.933668
0.992991
0.991825
0.960967
0.824656
0.868767
0.987071
0.50269
0.502194
0.502202
0.502322
0.744631
0.989206
0.991919
0.985327
0.986551
0.991856
0.502202
0.502202
0.502178
0.502202
0.800729
0.992002
0.992807
0.992925
0.992952
0.992974
0.703733
0.566528
0.664933
0.869002
0.987473
0.992922
0.992926
0.992946
0.992967
0.992975
0.964928
0.965462
0.981734
0.992855
0.992966
0.992976
0.975208
0.900016
0.858714
0.83271
0.945393
0.992379
0.992855
0.992966
0.99298
0.992975
0.939857
0.808148
0.711988
0.639956
0.870372
0.991338
0.992379
0.988857
0.992966
0.992979
0.975138
0.926938
0.923422
0.886811
0.75427
0.755618
0.799104
0.733402
0.763075
0.86718
0.939559
0.982883
0.98558
0.988122
0.881938
0.748958
0.705375
0.705921
0.714933
0.749327
0.800796
0.891418
0.945175
0.992406
0.988571
0.975974
0.868949
0.809416
0.823541
0.829373
0.839251
0.845802
0.870776
0.9766
0.700782
0.605982
0.58426
0.513651
0.450656
0.42969
0.447284
0.533114
0.618056
0.709205
0.146285
0.146466
0.147505
0.150955
0.162815
0.259582
0.768654
0.971465
0.972701
0.965776
0.14626
0.146591
0.14818
0.155181
0.511125
0.961095
0.980376
0.979994
0.979916
0.979542
0.146591
0.14818
0.326109
0.904486
0.98121
0.981356
0.980801
0.980362
0.952619
0.599609
0.853235
0.948571
0.972814
0.982936
0.982552
0.976613
0.758932
0.619455
0.617702
0.604623
0.988952
0.988848
0.988752
0.98674
0.980774
0.980832
0.980869
0.979704
0.913162
0.646641
0.989056
0.988988
0.98861
0.985785
0.84811
0.491267
0.246647
0.365728
0.756942
0.758506
0.987445
0.988602
0.986565
0.862884
0.3073
0.173188
0.171594
0.168678
0.166955
0.166671
0.776915
0.901135
0.931373
0.904545
0.898925
0.898323
0.647592
0.20427
0.176596
0.166663
0.771805
0.774322
0.810248
0.781109
0.780045
0.781111
0.790147
0.795819
0.809617
0.73264
0.853395
0.868918
0.875916
0.893449
0.901733
0.856585
0.789933
0.760142
0.806712
0.833755
0.50406
0.60946
0.71968
0.851475
0.957391
0.976518
0.976124
0.976259
0.712436
0.317438
0.417522
0.41746
0.417414
0.426697
0.620893
0.929878
0.976526
0.971801
0.578477
0.284232
0.450677
0.417425
0.417225
0.417218
0.417225
0.58161
0.9585
0.983042
0.953861
0.524767
0.813234
0.427883
0.417355
0.417225
0.417218
0.423064
0.883529
0.985259
0.985888
0.972184
0.863354
0.45514
0.417999
0.417355
0.417307
0.439214
0.881861
0.986097
0.986608
0.986227
0.622318
0.424194
0.420885
0.417999
0.418542
0.737826
0.985682
0.986989
0.986821
0.986627
0.446356
0.435177
0.424178
0.495023
0.826194
0.986952
0.987171
0.987151
0.986987
0.986838
0.464425
0.521995
0.75635
0.987146
0.987154
0.987172
0.987176
0.987144
0.987138
0.890197
0.903607
0.987062
0.987354
0.987219
0.987201
0.987176
0.987175
0.987176
0.963916
0.797305
0.98729
0.987451
0.987402
0.987354
0.987248
0.987174
0.987184
0.987073
0.858497
0.801507
0.987451
0.987451
0.987451
0.987318
0.984532
0.987099
0.987067
0.900191
0.857114
0.919304
0.987367
0.987451
0.987326
0.932121
0.878386
0.975417
0.967231
0.903382
0.93416
0.950783
0.987284
0.987326
0.925943
0.599754
0.775962
0.95127
0.96021
0.958175
0.956018
0.954228
0.986716
0.931404
0.532076
0.499394
0.715182
0.887993
0.95141
0.956019
0.954233
0.939103
0.937473
0.524271
0.498755
0.499281
0.697002
0.881138
0.947598
0.950527
0.814702
0.478172
0.619393
0.498755
0.498714
0.498755
0.856011
0.921136
0.922536
0.65811
0.356372
0.157061
0.516299
0.498714
0.498712
0.642931
0.914101
0.916901
0.585945
0.322108
0.350884
0.328758
0.509047
0.498712
0.498714
0.698793
0.910989
0.907598
0.275399
0.304854
0.784038
0.88828
0.563709
0.498722
0.498714
0.700496
0.846005
0.822987
0.234531
0.611415
0.91587
0.915649
0.984177
0.856164
0.568151
0.891992
0.774345
0.817299
0.228866
0.54352
0.915868
0.915945
0.986865
0.978448
0.96396
0.962723
0.774095
0.83513
0.217199
0.445987
0.89451
0.865822
0.957632
0.953157
0.925476
0.45994
0.806745
0.835318
0.197129
0.249655
0.454444
0.262246
0.671462
0.33722
0.138413
0.117867
0.813697
0.835318
0.104007
0.0171071
0.0152061
0.00453303
0.0651838
0.0606392
0.0665644
0.11623
0.812754
0.835318
0.096985
0.000782019
0.00135489
0.00139575
0.0596392
0.0616401
0.0804993
0.0788999
0.811363
0.825134
0.0615344
8.25348e-05
0.000285626
0.00103199
0.0715197
0.0375875
0.0447112
0.0590869
0.794559
0.806115
0.0450097
7.73497e-05
0.000305651
0.000727383
0.0115729
0.0117333
0.00556488
0.0514741
0.789045
0.801672
0.040407
7.85295e-05
0.000578633
0.000469291
6.88981e-06
3.89771e-05
0.0050783
0.0515432
0.791496
0.79891
0.0382516
7.7353e-05
0.000435268
0.000611402
5.20477e-05
0.000122739
0.0210595
0.0499964
0.792587
0.807101
0.0401527
7.74043e-05
0.000346082
0.000634849
0.000953081
0.000233187
0.0477748
0.0490554
0.810663
0.817864
0.0416092
7.46973e-05
0.000208976
0.000659917
0.00331728
0.00335512
0.0500332
0.0509928
0.829204
0.831553
0.0492626
6.74347e-05
0.000613003
0.00121442
0.00323508
0.00881926
0.012004
0.0569536
0.841837
0.841462
0.0566476
6.07261e-05
0.000691823
0.00122609
0.00152322
0.00698157
2.41683e-06
0.0642615
0.848774
0.848627
0.0642332
5.68623e-05
0.000585515
0.00124036
3.00233e-06
0.00181001
2.39513e-06
0.0684033
0.852459
0.852235
0.068839
5.32956e-05
0.000712826
0.00126019
2.23253e-06
2.23499e-06
2.31719e-06
0.0724456
0.855745
0.855367
0.0723825
4.96777e-05
0.000897735
0.00135908
2.13533e-06
2.06911e-05
2.39515e-06
0.0799222
0.864203
0.86401
0.0801626
4.7646e-05
0.00110602
0.00140192
9.51253e-06
0.000155751
1.98132e-06
0.100008
0.883083
0.882862
0.101014
4.68113e-05
0.00127127
0.00140468
0.000373449
0.000166644
1.12187e-06
0.135505
0.905612
0.905692
0.136177
4.6408e-05
0.00136871
0.00140488
0.000441487
0.00011193
7.27265e-07
0.174054
0.923083
0.923423
0.174041
4.64893e-05
0.00139416
0.00140487
1.48638e-05
7.27265e-07
7.26215e-07
0.201808
0.931655
0.932477
0.201109
4.64063e-05
0.00140171
0.00140488
7.27141e-07
7.26295e-07
7.27265e-07
0.212712
0.934066
0.934826
0.211279
4.74046e-05
0.00140144
0.000585293
7.28618e-07
3.3935e-06
7.43516e-07
0.213892
0.935128
0.936278
0.212202
4.98316e-05
0.00140051
0.000114735
7.4033e-07
6.6989e-05
8.55877e-07
0.209961
0.936726
0.938127
0.209145
5.30663e-05
0.000994035
0.00011434
1.30489e-05
7.83216e-05
1.42693e-06
0.21877
0.941986
0.941868
0.218856
5.54888e-05
8.725e-05
0.000124179
0.000108689
7.48152e-05
2.46863e-06
0.251166
0.949813
0.949015
0.251244
5.48843e-05
5.49541e-05
0.000123769
0.000145352
1.96112e-05
4.50056e-06
0.296767
0.957129
0.95794
0.298018
5.56868e-05
0.00010828
4.69448e-05
4.90957e-05
5.09971e-06
5.09971e-06
0.323942
0.96153
0.96305
0.326525
6.81891e-05
0.000146625
1.14818e-05
8.2207e-06
5.09971e-06
5.50324e-06
0.385546
0.975731
0.964492
0.317552
0.000125896
0.000189523
1.39711e-05
3.67004e-05
5.50324e-06
0.00197008
0.46636
0.984436
0.953377
0.264687
0.000171284
0.000294291
0.000429198
4.5965e-05
7.55759e-06
7.3415e-06
0.389108
0.985988
0.985206
0.421106
0.000170744
0.00032807
0.000490618
2.71443e-05
4.25055e-06
2.4016e-06
0.336462
0.977458
0.993487
0.543972
8.94756e-05
0.000202313
0.00048975
1.3923e-08
1.37432e-08
1.3923e-08
0.48482
0.990542
0.996567
0.571166
5.25112e-06
3.23676e-06
0.000431932
1.27492e-08
1.35808e-08
1.38285e-08
0.540495
0.99523
0.996722
0.620511
0.0050016
3.07462e-06
0.00010666
1.10061e-08
1.28795e-08
1.36713e-08
0.675713
0.997449
0.997009
0.622344
0.00711264
3.05301e-06
3.07462e-06
9.90398e-09
1.10061e-08
0.0288029
0.842963
0.99854
0.99744
0.563296
3.06607e-06
3.04811e-06
3.5789e-06
7.48451e-09
9.04629e-09
0.13057
0.899508
0.999634
0.998494
0.690715
3.04811e-06
3.01707e-06
1.63044e-05
6.96719e-09
7.48451e-09
0.245092
0.959162
0.999729
0.999624
0.754157
3.01814e-06
3.01814e-06
1.74027e-05
9.14507e-12
5.49873e-09
0.377148
0.984372
0.999909
0.999727
0.875749
0.0760624
3.0176e-06
2.58129e-05
1.57629e-12
3.0152e-07
0.57339
0.999205
0.999924
0.999909
0.944717
0.239384
4.16445e-06
6.24435e-06
1.15345e-12
1.13403e-05
0.751239
0.99993
0.999995
0.999923
0.9974
0.529217
5.68588e-06
5.49439e-06
-8.35495e-11
0.25194
0.948743
0.999995
0.999999
0.999995
0.999901
0.78735
0.0142912
2.29728e-06
-9.35415e-09
0.673072
0.999889
0.999998
1
1
0.999992
0.992662
0.489397
6.89923e-08
0.383263
0.97872
1
1
1
1
1
1
0.956148
0.296129
0.992348
0.992348
0.992348
0.992346
0.991467
0.990962
0.990963
0.991585
0.992222
0.992223
0.992222
0.992223
0.992223
0.99222
0.992221
0.992237
0.992237
0.992237
0.992237
0.99221
0.992228
0.992228
0.992228
0.992228
0.992228
0.992228
0.992228
0.992228
0.992223
0.992169
0.982598
0.970962
0.970878
0.970878
0.970878
0.975448
0.990346
0.990347
0.990347
0.990347
0.992013
0.991284
0.991283
0.991285
0.991612
0.992217
0.992221
0.992222
0.992222
0.992222
0.992223
0.992223
0.992223
0.992224
0.992224
0.9917
0.992237
0.992237
0.992237
0.992236
0.992233
0.98197
0.903729
0.906821
0.992228
0.984641
0.963703
0.960627
0.964306
0.962998
0.981118
0.984471
0.984754
0.971338
0.971958
0.985863
0.987364
0.981742
0.975588
0.977665
0.992506
0.992504
0.992499
0.992477
0.991405
0.992213
0.99174
0.968945
0.949562
0.982508
0.992222
0.992223
0.992223
0.992222
0.990955
0.986458
0.990323
0.992237
0.992237
0.992235
0.992207
0.964873
0.756036
0.714194
0.720584
0.766135
0.732097
0.713967
0.713958
0.713959
0.859815
0.971963
0.988601
0.992316
0.992312
0.989052
0.931027
0.916717
0.951795
0.964695
0.992506
0.992509
0.992524
0.992497
0.990466
0.915371
0.892349
0.892349
0.89235
0.892354
0.89832
0.977174
0.992091
0.982723
0.956652
0.957097
0.973353
0.992237
0.992235
0.992233
0.992201
0.955158
0.730653
0.714129
0.714023
0.713967
0.713959
0.713958
0.713958
0.713958
0.713959
0.715727
0.975441
0.992319
0.992316
0.966152
0.871836
0.85518
0.904509
0.870357
0.960747
0.990152
0.992535
0.992535
0.992519
0.96087
0.892349
0.892349
0.892349
0.89235
0.892354
0.892371
0.892476
0.893573
0.931129
0.984111
0.98787
0.988226
0.992311
0.992025
0.972642
0.95003
0.865868
0.718096
0.713967
0.713959
0.713958
0.713958
0.713958
0.713958
0.713958
0.795987
0.982634
0.992322
0.992319
0.940065
0.834261
0.834261
0.834261
0.834261
0.981794
0.992535
0.992536
0.992536
0.992536
0.992536
0.992505
0.946881
0.89235
0.892354
0.892371
0.90197
0.988416
0.992729
0.992708
0.99268
0.992623
0.992566
0.992465
0.987909
0.956737
0.917964
0.887571
0.877239
0.8306
0.798963
0.71396
0.713958
0.713958
0.713958
0.731149
0.963997
0.992322
0.992324
0.991224
0.941833
0.83428
0.834261
0.834261
0.834261
0.987967
0.991962
0.992536
0.992536
0.992536
0.992536
0.992536
0.992532
0.992514
0.981354
0.951748
0.968299
0.992822
0.992797
0.991601
0.99044
0.991995
0.991969
0.99218
0.992101
0.992075
0.991024
0.978356
0.940638
0.826573
0.798819
0.796571
0.852753
0.894488
0.952191
0.992274
0.992322
0.992324
0.992323
0.984573
0.969303
0.886209
0.834426
0.834266
0.834261
0.770381
0.932876
0.992536
0.992536
0.992536
0.992536
0.992532
0.990766
0.992875
0.992901
0.992913
0.992901
0.992877
0.990675
0.980135
0.970762
0.953714
0.951746
0.973166
0.989971
0.992079
0.992079
0.992079
0.973967
0.948483
0.94574
0.954454
0.918968
0.897841
0.898773
0.921796
0.99051
0.992324
0.992324
0.978715
0.988451
0.988655
0.962566
0.871381
0.834274
0.762924
0.762924
0.898305
0.715505
0.889913
0.851399
0.742038
0.866897
0.946148
0.991921
0.992931
0.991971
0.992849
0.992843
0.99285
0.972066
0.93232
0.932315
0.93232
0.972015
0.992077
0.992079
0.992079
0.992078
0.980308
0.907975
0.964897
0.975705
0.973755
0.976389
0.989546
0.992324
0.992325
0.992324
0.977781
0.988655
0.988655
0.988655
0.987317
0.880876
0.762924
0.84121
0.896401
0.628229
0.623957
0.623936
0.623937
0.624053
0.707274
0.9688
0.992939
0.989921
0.990444
0.992854
0.991626
0.954801
0.932311
0.93232
0.932712
0.971991
0.992065
0.992077
0.992078
0.992071
0.99187
0.886056
0.874882
0.975357
0.992264
0.992314
0.992324
0.992324
0.992324
0.98958
0.977721
0.988636
0.988655
0.988655
0.980393
0.85155
0.795225
0.992991
0.992886
0.861676
0.623937
0.623937
0.623936
0.702374
0.972977
0.992939
0.992939
0.99219
0.992921
0.992349
0.95978
0.932959
0.932361
0.94945
0.983244
0.992179
0.989881
0.992001
0.991922
0.980614
0.952939
0.865498
0.865498
0.903306
0.99022
0.992264
0.971902
0.981113
0.992325
0.989108
0.977721
0.987495
0.988655
0.98865
0.976885
0.812922
0.90321
0.993003
0.993008
0.989999
0.946183
0.918944
0.880094
0.991884
0.991962
0.992939
0.992939
0.992939
0.992937
0.965383
0.940823
0.94995
0.978741
0.99239
0.99239
0.99239
0.984262
0.986821
0.95126
0.874844
0.865598
0.865514
0.865498
0.896993
0.928242
0.928625
0.963674
0.992275
0.992292
0.982696
0.984474
0.988563
0.98865
0.988618
0.988398
0.813024
0.959759
0.993006
0.993017
0.991705
0.982194
0.976335
0.977292
0.979675
0.972304
0.979861
0.992939
0.992938
0.989384
0.947847
0.954299
0.99239
0.99239
0.99239
0.99239
0.992383
0.984252
0.985664
0.898276
0.872407
0.885089
0.982827
0.982594
0.947027
0.938155
0.97145
0.972549
0.99034
0.942261
0.927903
0.98142
0.988121
0.956976
0.967857
0.988357
0.883249
0.98596
0.993017
0.993021
0.991322
0.975608
0.975589
0.977221
0.972294
0.972291
0.972598
0.992938
0.992901
0.97954
0.958724
0.992389
0.99239
0.99239
0.99239
0.99239
0.992381
0.98426
0.984922
0.93782
0.900514
0.982922
0.982981
0.983007
0.983269
0.983279
0.921379
0.909528
0.909172
0.909105
0.909109
0.912699
0.905794
0.905889
0.922025
0.988027
0.947318
0.993005
0.993021
0.993019
0.993021
0.99147
0.987344
0.975017
0.972291
0.974539
0.988454
0.990538
0.938828
0.910142
0.992346
0.992389
0.992389
0.99239
0.99239
0.99239
0.992389
0.986104
0.985679
0.956982
0.901515
0.962132
0.982922
0.982981
0.970956
0.989293
0.989294
0.988557
0.968642
0.960468
0.981859
0.981581
0.923961
0.905791
0.962848
0.98675
0.986205
0.992974
0.993005
0.990921
0.938271
0.956096
0.983694
0.992071
0.978607
0.993075
0.993064
0.947968
0.87529
0.875299
0.961407
0.992383
0.992377
0.992382
0.992392
0.992389
0.99239
0.989535
0.983567
0.961252
0.900881
0.981514
0.982562
0.965585
0.962605
0.989295
0.989291
0.989285
0.989248
0.988991
0.987334
0.979929
0.942436
0.919787
0.963075
0.92941
0.844511
0.992955
0.992979
0.992955
0.824469
0.636608
0.849477
0.992437
0.993075
0.993075
0.993075
0.893257
0.87529
0.87529
0.930673
0.988502
0.99215
0.992244
0.992397
0.992394
0.992388
0.98553
0.899534
0.844589
0.844663
0.912251
0.945775
0.91133
0.942619
0.989291
0.989285
0.989248
0.97641
0.900033
0.835535
0.708696
0.667382
0.66646
0.66646
0.66646
0.666748
0.992975
0.99298
0.990347
0.671708
0.635073
0.67045
0.959397
0.993055
0.993075
0.990126
0.879047
0.87529
0.884911
0.960489
0.926943
0.81861
0.858528
0.992369
0.992389
0.992335
0.943722
0.844589
0.844589
0.844589
0.844663
0.846731
0.884261
0.953797
0.989112
0.983964
0.919458
0.678577
0.576815
0.576577
0.584155
0.839896
0.941981
0.899931
0.819879
0.800619
0.99298
0.992975
0.809956
0.635073
0.634826
0.675911
0.964395
0.993048
0.993087
0.95681
0.875327
0.875302
0.950005
0.980202
0.948601
0.605616
0.593618
0.91089
0.992332
0.992193
0.989095
0.88119
0.844589
0.858315
0.941717
0.980219
0.987826
0.975745
0.905678
0.750783
0.578051
0.577875
0.579437
0.879053
0.991234
0.991234
0.991234
0.991232
0.991222
0.983242
0.992975
0.812329
0.635429
0.634826
0.63506
0.807492
0.992346
0.993087
0.993102
0.958307
0.876348
0.88827
0.972792
0.980514
0.980243
0.611888
0.59025
0.632203
0.989243
0.992014
0.991818
0.97406
0.958514
0.99185
0.991752
0.991729
0.97709
0.805572
0.608296
0.579461
0.578051
0.651067
0.972431
0.991234
0.991234
0.991234
0.991233
0.991223
0.991173
0.991122
0.704117
0.635542
0.634952
0.635202
0.736718
0.981075
0.993056
0.993102
0.993105
0.989951
0.919473
0.946752
0.97864
0.98082
0.980514
0.822484
0.59025
0.591878
0.931946
0.982716
0.981976
0.991843
0.99185
0.991869
0.991858
0.991695
0.85389
0.590726
0.587609
0.585598
0.579461
0.588604
0.718297
0.942396
0.991234
0.991233
0.988775
0.976662
0.986746
0.991131
0.638385
0.637356
0.635542
0.791446
0.981905
0.993053
0.993099
0.993104
0.993105
0.993104
0.992849
0.991945
0.990988
0.980938
0.98082
0.979814
0.722065
0.591628
0.92942
0.980582
0.978498
0.991657
0.991869
0.991886
0.991878
0.991858
0.891541
0.726037
0.696613
0.715634
0.59471
0.625037
0.822108
0.942336
0.991233
0.991215
0.981613
0.962655
0.962655
0.988369
0.817387
0.826951
0.906623
0.987005
0.993092
0.993101
0.993104
0.993105
0.993105
0.993105
0.993103
0.965994
0.87349
0.864152
0.930371
0.979084
0.844053
0.618306
0.940553
0.982976
0.978256
0.978221
0.986153
0.991895
0.991886
0.991859
0.991839
0.99184
0.991802
0.974976
0.968148
0.976293
0.963817
0.958827
0.991208
0.991153
0.98564
0.962655
0.96271
0.962944
0.992615
0.992961
0.99304
0.993093
0.993103
0.993105
0.993105
0.993105
0.993105
0.993105
0.96338
0.662855
0.55926
0.556876
0.577848
0.687457
0.656133
0.769036
0.987933
0.985176
0.978274
0.991922
0.991921
0.991911
0.991895
0.991862
0.991837
0.991802
0.991762
0.991703
0.991665
0.991645
0.940518
0.884239
0.964419
0.991091
0.991086
0.984106
0.974062
0.971709
0.99296
0.993086
0.9931
0.993104
0.993105
0.993105
0.993105
0.993105
0.993105
0.96009
0.784893
0.689049
0.578623
0.556055
0.556025
0.556046
0.591861
0.921829
0.992098
0.992103
0.983698
0.991949
0.991945
0.987829
0.977814
0.991646
0.991799
0.991764
0.990973
0.991665
0.991645
0.983938
0.894759
0.884063
0.909882
0.991086
0.99109
0.991091
0.991091
0.991091
0.993087
0.9931
0.993103
0.993103
0.993104
0.976916
0.850931
0.739486
0.725805
0.726285
0.840688
0.93106
0.93606
0.870708
0.589729
0.610957
0.855748
0.99195
0.992111
0.992111
0.992106
0.992019
0.991945
0.831374
0.609155
0.79586
0.920434
0.932688
0.900348
0.965718
0.991455
0.930345
0.884062
0.884061
0.884063
0.967522
0.991087
0.991091
0.991091
0.991091
0.772806
0.807508
0.831456
0.862432
0.952954
0.917205
0.800977
0.791988
0.875558
0.894091
0.889245
0.927994
0.99191
0.983794
0.946216
0.956809
0.992036
0.992111
0.992111
0.992111
0.992111
0.992106
0.906357
0.557601
0.501943
0.502915
0.803535
0.85588
0.856702
0.857377
0.954039
0.899709
0.884061
0.884062
0.884079
0.894502
0.98777
0.990988
0.991091
0.991091
0.846148
0.687953
0.684332
0.927158
0.932514
0.923154
0.867092
0.545785
0.464792
0.842634
0.991459
0.991911
0.991914
0.991925
0.991963
0.992045
0.992104
0.992107
0.992111
0.992111
0.971519
0.620646
0.508706
0.501545
0.501545
0.531202
0.858655
0.890733
0.857319
0.857377
0.895388
0.938454
0.884062
0.884079
0.886894
0.902569
0.986719
0.991068
0.991089
0.99109
0.976828
0.779697
0.436308
0.436166
0.459106
0.508728
0.455374
0.442915
0.447479
0.61174
0.991914
0.991914
0.991917
0.991933
0.991951
0.991969
0.992045
0.992104
0.949374
0.761165
0.557777
0.526679
0.51301
0.511385
0.659454
0.984662
0.989278
0.906358
0.857377
0.857342
0.91342
0.952276
0.884085
0.903927
0.977609
0.986192
0.990769
0.991045
0.991068
0.991071
0.438973
0.436376
0.436234
0.436166
0.436166
0.436389
0.437162
0.438234
0.482556
0.908913
0.991712
0.991916
0.991914
0.988394
0.817389
0.714928
0.712098
0.708922
0.663253
0.659192
0.658507
0.87498
0.977694
0.989925
0.989929
0.989929
0.98993
0.89061
0.858194
0.864192
0.952276
0.952276
0.90679
0.978342
0.989334
0.989426
0.989327
0.986418
0.988794
0.97947
0.613558
0.7072
0.710407
0.714395
0.621743
0.589339
0.78151
0.907225
0.927622
0.919783
0.949544
0.972314
0.97603
0.951302
0.869596
0.878368
0.922515
0.92406
0.931997
0.875065
0.931347
0.9788
0.989603
0.989889
0.989929
0.98993
0.98993
0.988373
0.879099
0.88536
0.947319
0.947048
0.92474
0.975169
0.989355
0.98845
0.873729
0.735291
0.78747
0.94452
0.616469
0.617048
0.631029
0.886391
0.924536
0.926824
0.927666
0.927924
0.928247
0.930296
0.935718
0.883651
0.854347
0.916038
0.96211
0.962442
0.962888
0.963458
0.964076
0.964456
0.964951
0.965372
0.955393
0.955852
0.986399
0.989929
0.98993
0.989929
0.984542
0.857739
0.856674
0.856673
0.856674
0.919765
0.987019
0.859241
0.608563
0.605632
0.605634
0.935236
0.751144
0.680962
0.536958
0.468861
0.494083
0.646675
0.769602
0.805788
0.78979
0.748278
0.808554
0.868574
0.856898
0.845619
0.890108
0.932843
0.958097
0.962645
0.963389
0.963968
0.964456
0.848191
0.8224
0.822693
0.965351
0.989903
0.989929
0.989927
0.977302
0.877498
0.856695
0.856674
0.856673
0.896856
0.949575
0.650694
0.605525
0.605518
0.629893
0.938565
0.166671
0.167396
0.167708
0.167953
0.167958
0.167954
0.201576
0.212071
0.230018
0.423749
0.640162
0.707459
0.640898
0.628851
0.604474
0.590725
0.581246
0.62563
0.650909
0.65676
0.749687
0.734915
0.832838
0.984336
0.9898
0.989833
0.989899
0.989877
0.943087
0.904263
0.856818
0.889335
0.903482
0.925272
0.925178
0.623762
0.605518
0.605632
0.888749
0.96456
0.166697
0.187848
0.30519
0.449502
0.480453
0.327166
0.277729
0.368454
0.59208
0.786891
0.871413
0.888586
0.888652
0.888586
0.868771
0.746215
0.445621
0.220019
0.213263
0.213263
0.211533
0.398318
0.694611
0.975987
0.989559
0.981476
0.839597
0.895585
0.917423
0.91837
0.943547
0.943091
0.899202
0.922564
0.946537
0.842194
0.605663
0.666219
0.96572
0.96572
0.672015
0.673687
0.801475
0.836769
0.836789
0.834372
0.748898
0.760988
0.885511
0.885511
0.886573
0.888063
0.888586
0.888682
0.888375
0.887849
0.886978
0.886396
0.511951
0.211533
0.209803
0.209803
0.209803
0.702984
0.988818
0.874815
0.604896
0.603652
0.826806
0.94651
0.964437
0.931343
0.899235
0.943074
0.959636
0.959415
0.745058
0.905482
0.965055
0.96572
0.834967
0.836463
0.836769
0.836789
0.836769
0.822772
0.742799
0.702068
0.883491
0.885512
0.884117
0.886292
0.887842
0.888375
0.88785
0.886978
0.886396
0.884005
0.880747
0.757933
0.233797
0.335837
0.721294
0.821717
0.624756
0.604132
0.603652
0.603626
0.623644
0.919505
0.975697
0.938213
0.94415
0.959918
0.959881
0.958873
0.907785
0.934716
0.924478
0.949182
0.28589
0.340058
0.479526
0.492733
0.467911
0.4614
0.462444
0.465457
0.790409
0.784308
0.566727
0.593929
0.847076
0.886191
0.858557
0.525754
0.493376
0.71
0.880747
0.874172
0.818548
0.856743
0.887536
0.887719
0.673701
0.604041
0.603626
0.60362
0.603618
0.793168
0.980333
0.97818
0.958437
0.978657
0.931291
0.899224
0.914205
0.866588
0.699285
0.904169
0.282212
0.282042
0.280149
0.27979
0.279655
0.279623
0.492285
0.736361
0.690017
0.400383
0.396805
0.396161
0.514308
0.864798
0.639599
0.143388
0.115052
0.113138
0.378593
0.862836
0.885672
0.887536
0.88784
0.887719
0.870002
0.607141
0.603692
0.603616
0.603639
0.887728
0.983231
0.983354
0.983358
0.983356
0.977965
0.899536
0.920225
0.714735
0.699285
0.895547
0.281717
0.28015
0.27979
0.279655
0.279611
0.279623
0.585446
0.73906
0.690391
0.401265
0.396161
0.395083
0.395505
0.471232
0.561138
0.383244
0.136348
0.109159
0.10342
0.0998997
0.485872
0.885737
0.887601
0.88784
0.887601
0.834133
0.604758
0.603684
0.603639
0.906662
0.96702
0.977695
0.983356
0.98336
0.98291
0.979313
0.965929
0.709503
0.699285
0.932769
0.500666
0.281976
0.279972
0.279662
0.279623
0.279618
0.498524
0.73863
0.703789
0.41259
0.398861
0.395805
0.395083
0.395748
0.455154
0.584504
0.554615
0.166529
0.0974136
0.0936842
0.0882383
0.448455
0.884858
0.887601
0.887018
0.886674
0.839047
0.722077
0.834334
0.768597
0.63534
0.852266
0.983307
0.983356
0.983329
0.983306
0.944958
0.710305
0.866657
0.964977
0.932035
0.399515
0.281948
0.279972
0.279662
0.279623
0.281179
0.709349
0.877134
0.61735
0.408559
0.398861
0.395805
0.395906
0.527699
0.590763
0.590999
0.454176
0.101655
0.088249
0.0868913
0.0876954
0.516795
0.885339
0.886674
0.886219
0.885763
0.884282
0.882605
0.743331
0.255638
0.60739
0.980062
0.983307
0.983306
0.98147
0.73314
0.711358
0.970967
0.968961
0.986228
0.678207
0.291736
0.281948
0.280485
0.288308
0.573966
0.893968
0.885684
0.877134
0.742504
0.412067
0.399282
0.433309
0.588821
0.591148
0.590763
0.502517
0.104532
0.0868913
0.0868913
0.0868913
0.0876954
0.316967
0.836576
0.885763
0.884815
0.883884
0.88335
0.391965
0.255638
0.450793
0.959673
0.983001
0.85886
0.789316
0.724945
0.889349
0.980488
0.931901
0.964381
0.768246
0.459572
0.453494
0.727675
0.91703
0.902049
0.89709
0.893968
0.885684
0.873418
0.537547
0.410373
0.553219
0.590051
0.5906
0.590888
0.321069
0.0899289
0.0887756
0.103038
0.0874812
0.0880184
0.0898028
0.610043
0.884
0.883884
0.839739
0.454072
0.280647
0.361464
0.929505
0.973083
0.785811
0.729644
0.730202
0.841168
0.988486
0.980942
0.86963
0.797305
0.819204
0.938493
0.934205
0.932513
0.929829
0.916634
0.871334
0.790407
0.706142
0.344702
0.1789
0.502587
0.582901
0.588025
0.590051
0.348831
0.0929655
0.0910818
0.121674
0.171763
0.114284
0.0905493
0.231872
0.779747
0.871434
0.571804
0.342246
0.333132
0.371518
0.794633
0.905296
0.779349
0.723886
0.729954
0.976257
0.988486
0.988487
0.93515
0.869411
0.797305
0.91947
0.940666
0.938541
0.932679
0.777035
0.551272
0.245853
0.0942984
0.0972027
0.104241
0.162356
0.53331
0.570423
0.501911
0.13243
0.0957602
0.0955343
0.127935
0.166536
0.169078
0.0993622
0.092294
0.199666
0.439452
0.42892
0.389961
0.368507
0.471635
0.641367
0.706399
0.709387
0.71218
0.722908
0.946341
0.988486
0.988487
0.988486
0.914316
0.869366
0.907184
0.945171
0.943422
0.93668
0.634953
0.0876549
0.0891643
0.0907482
0.0927738
0.0951019
0.174286
0.331949
0.205218
0.0815506
0.0815197
0.0829202
0.0854575
0.155128
0.157937
0.160258
0.105089
0.103751
0.0999107
0.112095
0.371817
0.605526
0.662696
0.740076
0.753214
0.74063
0.708567
0.708506
0.766784
0.893825
0.988484
0.988486
0.988485
0.98848
0.900961
0.869366
0.94758
0.945888
0.945195
0.432444
0.0848995
0.0839146
0.0874528
0.0891825
0.13777
0.150276
0.0840762
0.080798
0.0807153
0.0807662
0.0809182
0.0813726
0.0825405
0.137886
0.15652
0.100211
0.103629
0.105089
0.121736
0.599524
0.854459
0.931785
0.927523
0.916805
0.93109
0.921679
0.895813
0.905684
0.92501
0.987074
0.988482
0.988484
0.970297
0.985789
0.884847
0.869366
0.949042
0.94758
0.782529
0.127473
0.0800802
0.0826825
0.117974
0.11797
0.0833139
0.0805684
0.0806044
0.0806492
0.080694
0.0807152
0.0807662
0.0809182
0.0813262
0.082091
0.0854465
0.0907073
0.0983951
0.412937
0.841779
0.987221
0.987452
0.987458
0.98734
0.986187
0.983996
0.978951
0.981979
0.987203
0.987213
0.973856
0.801676
0.683666
0.707177
0.82251
0.870802
0.876946
0.949321
0.889359
0.278015
0.0800503
0.0800706
0.0800816
0.0803418
0.080676
0.080781
0.0805536
0.134876
0.219791
0.140623
0.0807662
0.0808797
0.080942
0.0809941
0.080895
0.0844776
0.284339
0.751012
0.96478
0.987364
0.987507
0.987493
0.987468
0.987458
0.986503
0.976345
0.987185
0.987203
0.987213
0.987209
0.842133
0.682697
0.682348
0.682164
0.682163
0.823859
0.929449
0.801275
0.256492
0.0800477
0.0800502
0.08005
0.080063
0.0802939
0.0804959
0.162646
0.712398
0.888365
0.89093
0.847831
0.656451
0.34058
0.120196
0.0817618
0.0845768
0.487603
0.913174
0.986876
0.987441
0.987507
0.987507
0.987507
0.987493
0.968533
0.92155
0.9644
0.987189
0.982699
0.986633
0.987213
0.981282
0.746744
0.682173
0.682159
0.682164
0.761047
0.931441
0.181935
0.0806285
0.0800476
0.0800374
0.08005
0.0801105
0.0810858
0.144865
0.750911
0.985534
0.985675
0.985623
0.985412
0.984977
0.930002
0.769513
0.65849
0.726373
0.940506
0.986876
0.987431
0.987473
0.987475
0.987507
0.986834
0.98703
0.946652
0.756195
0.978647
0.979561
0.921976
0.90847
0.926145
0.972807
0.970328
0.771341
0.682173
0.682162
0.826017
0.933417
0.156286
0.176419
0.0811428
0.0799689
0.0797918
0.0799608
0.0805977
0.369184
0.976846
0.985794
0.985806
0.985801
0.985776
0.985709
0.985681
0.985058
0.982098
0.970309
0.969739
0.978103
0.852287
0.688989
0.579163
0.559488
0.625226
0.774819
0.775757
0.670988
0.958157
0.976979
0.926873
0.887419
0.886759
0.888072
0.913899
0.854546
0.798277
0.881261
0.898087
0.93626
0.0800627
0.0800139
0.0800071
0.0800073
0.0799694
0.0794325
0.0789411
0.245975
0.877858
0.985806
0.985811
0.98581
0.985801
0.985776
0.985709
0.985532
0.984976
0.96324
0.568697
0.359807
0.314793
0.307515
0.306918
0.306275
0.306275
0.306275
0.306956
0.422593
0.739395
0.974205
0.983215
0.982938
0.961635
0.881522
0.915722
0.974064
0.974053
0.974061
0.974054
0.974011
0.307853
0.0800067
0.0800046
0.0800047
0.0799994
0.0800329
0.0794406
0.0823664
0.362579
0.921684
0.98581
0.985811
0.98581
0.985793
0.985734
0.901057
0.693128
0.476723
0.313313
0.312535
0.312447
0.312599
0.313481
0.491665
0.40684
0.456164
0.390623