/*--------------------------------*- C++ -*----------------------------------*\
  =========                 |
  \\      /  F ield         | OpenFOAM: The Open Source CFD Toolbox
   \\    /   O peration     | Website:  https://openfoam.org
    \\  /    A nd           | Version:  8
     \\/     M anipulation  |
\*---------------------------------------------------------------------------*/
FoamFile
{
    version     2.0;
    format      ascii;
    class       volScalarField;
    location    "5";
    object      p_rgh;
}
// * * * * * * * * * * * * * * * * * * * * * * * * * * * * * * * * * * * * * //

dimensions      [1 -1 -2 0 0 0 0];

internalField   nonuniform List<scalar> 
9150
(
1962.7
1961.7
1961.08
1960.61
1960.37
1960.36
1960.6
1961.07
1961.69
1962.7
1962.27
1961.75
1961.33
1961
1960.83
1960.83
1961
1961.33
1961.75
1962.26
1962
1961.71
1961.46
1961.24
1961.12
1961.12
1961.24
1961.46
1961.71
1961.99
1961.88
1961.7
1961.53
1961.38
1961.29
1961.29
1961.38
1961.53
1961.7
1961.87
1961.88
1961.7
1961.56
1961.43
1961.37
1961.37
1961.43
1961.56
1961.69
1961.87
1950.9
1950.07
1950.33
1950.76
1950.94
1950.94
1950.78
1950.36
1950.1
1950.93
1954.97
1954.25
1954.06
1954.01
1954.1
1954.1
1954.01
1954.06
1954.26
1954.97
1958.09
1957.34
1957.02
1956.68
1956.6
1956.59
1956.63
1957
1957.31
1958.06
1960.81
1959.68
1959.22
1958.59
1958.42
1958.41
1958.58
1959.21
1959.66
1960.79
1963.4
1961.34
1960.58
1959.88
1959.62
1959.62
1959.89
1960.59
1961.34
1963.4
1945.72
1944.76
1943.11
1942.12
1941.56
1941.51
1941.99
1942.98
1944.9
1945.86
1945.22
1945.06
1944.15
1943.88
1943.47
1943.59
1944.04
1944.36
1945.32
1945.46
1944.94
1945.09
1944.08
1944.58
1944.01
1944.12
1944.48
1944.19
1945.22
1945.11
1941.76
1944.57
1943.52
1945.15
1944.91
1945.02
1945.17
1943.71
1944.65
1941.9
1935.5
1945.23
1945.63
1947.14
1947.49
1947.54
1947.15
1945.76
1945.3
1935.67
980.163
979.498
978.695
977.833
976.969
976.066
975.124
974.292
973.547
972.918
980.716
979.934
978.636
977.649
976.517
975.007
974.152
973.317
972.675
972.322
981.347
980.336
979.105
978.037
977.345
975.921
974.554
973.4
972.389
971.365
983.253
980.999
979.343
977.498
976.991
974.76
972.863
971.494
970.617
969.849
984.562
982.461
979.398
976.953
975.143
973.299
968.216
966.042
964.717
964.005
984.554
982.645
979.844
976.069
970.775
967.156
965.364
961.041
959.096
957.956
982.682
980.503
977.029
972.864
964.014
958.453
952.717
955.119
953.372
953.037
979.847
975.973
971.803
967.458
963.081
956.699
946.428
928.26
922.291
918.931
973.863
971.208
968.778
965.063
961.749
958.954
954.372
943.986
933.422
916.2
972.113
969.352
966.379
965.904
964.642
963.251
962.511
962.596
963.12
927.64
974.125
969.282
967.108
965.068
965.895
966.565
966.282
966.6
967.572
938.383
973.291
969.19
965.086
964.237
965.8
966.918
966.599
966.274
961.246
931.163
969.356
967.549
964.58
964.483
966.296
966.415
966.396
964.512
926.671
924.049
967.933
966.388
965.779
965.612
963.332
963.901
957.947
921.39
916.229
917.687
967.205
966.384
965.128
964.798
964.346
935.918
914.303
913.569
912.641
938.792
957.675
960.782
961.536
963.346
964.84
949.445
911.593
912.278
910.695
956.809
818.162
830.635
865.825
937.662
962.632
966.048
956.723
919.185
929.565
962.89
804.337
802.129
800.166
799.581
877.169
962.496
966.332
965.099
965.364
966.364
801.569
800.642
799.44
798.069
898.309
966.018
966.618
967.491
968.346
968.798
866.843
819.013
849.826
923.917
965.541
965.524
964.014
963.658
965.599
968.536
959.815
957.424
962.691
965.43
962.985
960.841
952.395
924.535
911.524
904.204
941.26
960.985
960.797
961.12
960.977
960.95
938.214
887.047
852.683
829.157
893.999
948.627
949.751
949.368
954.237
957.121
951.222
934.139
936.776
924.944
828.043
826.949
847.833
822.558
840.183
890.12
927.981
953.625
960.665
967.118
877.315
811.744
793.613
797.705
805.531
825.931
855.346
904.714
936.441
966.05
925.878
916.906
858.42
831.432
848.384
858.507
869.504
879.982
899.513
958.26
771.545
715.664
703.107
674.173
655.258
658.656
680.398
730.073
778.94
827.956
489.229
486.7
486.874
495.483
509.729
566.257
844.077
963.48
969.298
970.117
489.261
490.049
492.038
495.459
690.83
948.227
967.004
969.9
971.882
975.52
489.288
489.957
588.472
923.408
969.977
971.4
972.963
974.65
960.197
757.731
893.415
951.037
967.654
977.613
979.01
976.227
843.243
760.867
763.133
759.002
979.77
982.658
986.69
988.758
986.103
985.222
986.765
992.9
951.894
783.036
982.087
986.611
990.867
993.038
908.478
686.781
540.781
606.772
852.676
857.745
988.087
996.232
1001.89
924.01
570.129
491.564
489.462
483.009
478.047
475
849.701
939.653
972.43
962.4
965.959
972.191
798.695
500.353
479.74
471.181
840.819
851.181
887.319
877.351
886.611
893.533
903.577
903.243
905.95
846.181
886.269
906.767
921.864
946.298
962.917
937.79
896.784
880.191
907.399
918.988
627.99
709.369
794.597
897.868
985.951
1011.55
1019.44
1018.76
813.707
523.527
562.103
562.841
565.144
575.91
724.937
963.889
1009.64
1008.28
711.753
491.244
583.974
561.126
562.59
563.455
564.724
695.201
993.091
1021.57
1000.65
670.901
871.567
565.851
559.646
561.7
563.695
570.685
937.833
1027.31
1035.67
1027.44
916.574
586.406
559.014
560.678
563.331
584.292
944.709
1035.54
1042.22
1047.14
721.467
561.705
562.07
562.149
564.887
831.171
1038.58
1043.95
1048.41
1052.14
579.274
573.721
567.146
627.75
909.85
1048.5
1049.77
1051.75
1054.18
1056.19
603.88
650.303
853.489
1058.08
1058.75
1058.71
1058.55
1058.84
1058.91
974.487
990.448
1067.72
1069.24
1069.77
1069.71
1069.01
1067.68
1066.05
1043.68
895.184
1086.59
1085.88
1084.94
1084.08
1082.59
1080.12
1076.9
1073.7
954.174
901.588
1103.42
1102.63
1100.46
1099.02
1095.09
1094.83
1091.07
1007.45
966.663
1012.18
1117.04
1116.11
1114.72
1063.43
1015.57
1103.35
1093.43
1031.65
1053.61
1056.19
1130.55
1129.87
1070.98
770.216
933.167
1100.42
1108.5
1103.18
1086.84
1064.64
1144.65
1089.14
700.157
675.999
877.025
1049.61
1112.37
1101.84
1076.23
1032.76
1104.71
688.885
666.001
668.99
866.519
1049.81
1103.04
1077.46
909.665
559.638
787.438
665.728
667.613
668.535
1037.92
1094.66
1059.64
765.292
439.919
234.559
680.183
666.262
670.426
814.665
1137.67
1108.06
727.935
432.117
448.646
419.179
668.459
662.13
672.218
878.086
1150.21
1132.35
444.808
456.104
940.543
1051.85
720.251
656.54
661.311
874.167
1057.68
1036.2
440.512
820.246
1133.58
1110.29
1163.73
1026.81
726.333
1077.46
956.368
1022.53
430.412
763.097
1150.34
1129.03
1158.26
1154.39
1144.8
1144.47
946.557
1011.61
351.657
593.388
1099.24
1046.71
1114.31
1114.62
1093.54
594.923
983.05
991.559
243.764
283.44
533.184
304.794
799.043
408.337
194.074
186.722
978.766
1013.64
116.592
19.327
17.6119
5.39445
80.4119
77.9329
89.0088
152.654
989.036
1024.38
113.728
0.985492
1.52332
1.56286
73.643
76.7835
99.9494
97.8363
1008.85
1019.49
74.4756
0.556169
0.593722
1.30873
88.0603
47.3383
55.3905
72.6385
1001.25
1011.7
55.3672
0.375117
0.549039
0.942577
14.4619
14.9321
8.20935
64.5649
1003.32
1030.01
50.1735
0.111624
0.692698
0.477782
0.395807
0.474586
6.71522
64.7199
1040.96
1020.06
48.501
0.134178
0.524115
0.707556
0.514542
0.641394
27.4077
64.8189
1040.21
1067.2
51.4934
0.0810395
0.400437
0.759235
1.62395
0.710307
62.8968
64.3609
1083.33
1093.16
54.2277
0.0867778
0.25888
0.818218
4.77663
4.82769
66.792
68.161
1124.61
1128.19
65.1931
0.110586
0.794791
1.60837
4.6997
12.2549
16.58
76.6684
1158.82
1156.52
76.1266
0.146939
0.947838
1.66971
2.387
9.86309
0.402745
87.6231
1184.31
1183.2
87.5799
0.156943
0.838436
1.72224
0.2698
2.76061
0.338258
94.7761
1205.09
1205.68
95.193
0.152244
1.01627
1.76673
0.279251
0.280317
0.2763
101.789
1227.45
1225.37
101.519
0.15681
1.28415
1.9275
0.268353
0.298224
0.267282
113.815
1255.37
1255.05
113.976
0.15237
1.58075
1.9991
0.267922
0.479611
0.266583
144.311
1299.2
1299.46
145.566
0.137165
1.81046
2.00369
0.787493
0.488749
0.264917
198.125
1349.31
1349.93
198.885
0.109385
1.94527
1.997
0.863493
0.389792
0.237956
257.833
1392.55
1393.31
257.577
0.0665695
1.96943
1.99033
0.204362
0.184463
0.183927
302.83
1423.08
1424.35
301.535
0.0122464
1.95947
1.99622
0.157249
0.156554
0.148467
323.288
1447.01
1443.04
320.878
-0.0311323
1.96173
0.742084
0.146098
0.14878
0.137492
329.227
1466.59
1463.64
326.407
-0.0317948
2.04457
0.0704369
0.14488
0.244438
0.141114
327.268
1483.76
1488.19
325.768
0.00653753
1.46373
0.101151
0.164037
0.267275
0.145144
345.249
1511.41
1510.77
345.191
0.0394487
0.089997
0.136507
0.31858
0.264923
0.152199
401.326
1541.99
1539.43
401.254
0.0361253
0.0379444
0.1388
0.371176
0.176156
0.152755
480.012
1568.5
1574.2
481.906
0.023667
0.108232
0.00764365
0.207237
0.139264
0.14122
530.217
1593.54
1600.26
534.495
0.0416936
0.164805
-0.0534937
0.136819
0.133026
0.121477
638.696
1643.24
1607.52
525.755
0.128999
0.236049
-0.0480835
0.186636
0.141185
3.43924
782.079
1675.75
1605.83
443.139
0.216647
0.422508
0.657097
0.202128
0.145768
0.136875
659.667
1683.46
1692.38
713.849
0.233442
0.492534
0.773391
0.171014
0.135482
0.125686
576.678
1683.94
1725.91
933.332
0.110019
0.303572
0.782552
0.122113
0.12337
0.126403
840.996
1727.1
1750.27
990.865
-0.0306984
-0.0188484
0.690023
0.114578
0.113245
0.125476
948.044
1753.82
1767.17
1088.77
8.73688
-0.032201
0.14086
0.105348
0.104605
0.102627
1198.07
1781.27
1776.49
1103.88
12.5618
-0.0419113
-0.0429482
0.0957271
0.099129
51.7484
1511.91
1799.12
1793.13
1009.57
-0.0443655
-0.037976
-0.0372611
0.0819921
0.0838332
236.766
1630.7
1817.62
1812.93
1251.68
-0.0238721
-0.027169
-0.00260616
0.0680641
0.068864
449.177
1758.28
1835.15
1833.38
1381.26
-0.0207301
-0.0316876
-0.000668996
0.0523552
0.0506784
698.515
1823.9
1854.05
1852.87
1621.66
140.754
-0.0290527
0.0114979
0.0385953
0.0367359
1072.48
1871.22
1872.97
1872.54
1768.24
447.865
-0.0229707
-0.0175841
0.0329965
0.0710569
1418.8
1890.82
1892.15
1892.46
1887
999.741
-0.0061362
-0.00517354
0.0160577
480.551
1811.68
1910.88
1911.2
1910.74
1909.22
1501.75
27.2387
-0.0116022
0.0173029
1296.77
1926.26
1926.41
1926.5
1926.5
1926.82
1913.05
942.884
-0.043822
746.475
1900.34
1938.68
1936.91
1936.24
1936.43
1937.34
1939.19
1856.86
576.839
972.559
972.486
972.833
973.366
973.771
974.126
974.408
974.679
975.306
976.155
977.122
978.196
979.45
980.774
982.053
983.22
984.292
985.21
985.851
986.111
985.973
985.101
983.365
981.806
980.641
979.264
978.115
977.663
978.247
980.406
983.108
986.815
990.547
993.169
994.461
994.701
994.412
993.959
993.965
994.061
972.243
972.324
972.419
972.735
972.836
972.81
973.14
973.642
974.497
975.792
977.01
978.254
979.714
980.935
982.087
983.39
984.749
985.972
986.854
987.211
986.89
985.338
982.844
979.41
979.843
977.627
974.492
971.953
970.336
971.73
976.038
981.084
985.835
989.675
992.12
993.559
993.513
992.924
993.071
993.503
970.755
970.935
971.243
971.442
971.685
971.496
971.319
970.862
971.276
973.467
975.225
976.509
977.965
979.825
981.674
983.325
985.19
986.903
988.393
989.583
990.226
988.329
978.553
972.662
967.25
966.073
960.971
957.214
955.8
956.522
963.122
971.59
978.054
984.305
988.222
990.523
989.758
989.302
990.448
991.512
969.304
968.992
969.039
969.117
968.885
965.025
964.85
965.277
966.093
967.015
968.249
974.713
977.683
978.729
979.527
982.097
984.207
987.372
989.312
991.036
992.401
989.976
974.537
969.865
965.813
961.739
957.665
954.491
952.553
952.574
954.549
957.669
975.786
983.266
987.019
987.699
983.999
983.717
985.654
982.818
963.864
965.693
965.632
965.97
966.479
964.73
961.525
962.405
963.369
964.715
966.157
967.802
970.217
972.16
976.327
982.565
985.059
987.046
989.391
991.129
991.166
990.085
982.614
969.187
964.969
961.002
958.207
956.658
956.092
956.188
956.886
963.858
980.809
985.701
988.468
985.905
978.584
979.517
978.286
979.023
960.638
962.564
962.851
963.105
963.546
964.402
965.74
961.866
958.619
960.448
962.304
964.72
975.178
978.028
980.021
981.988
984.096
986.501
989.073
991.003
990.012
988.131
986.439
984.474
976.291
970.326
960.666
958.992
957.635
956.828
958.364
982.147
986.959
989.398
991.27
987.498
978.07
978.545
978.518
978.625
954.8
957.941
960.055
959.962
960.375
960.411
960.867
962.57
964.737
965.271
964.046
967.599
972.393
974.887
977.188
979.316
981.726
984.086
986.96
990.147
993.024
995.397
995.259
989.841
974.392
970.123
967.868
972.843
977.463
984.762
990.64
991.278
992.64
993.99
994.298
992.905
983.741
978.071
978.089
977.914
918.583
941.723
958.282
957.696
956.655
954.683
952.893
954.358
957.834
961.238
963.995
966.857
969.95
972.504
973.817
974.999
974.857
976.118
981.059
986.502
989.657
992.02
993.111
990.548
985.853
984.243
985.764
980.154
978.009
979.109
982.569
994.208
995.926
997.155
996.942
998.48
998.617
994.8
981.268
976.554
917.248
917.632
941.753
913.21
937.447
930.703
910.985
926.979
942.582
956.1
961.896
966.026
969.732
972.647
975.215
973.831
969.371
970.648
971.759
979.98
985.634
987.098
987.573
987.452
984.998
973.926
983.614
987.4
988.235
989.612
992.961
994.911
996.182
997.201
996.352
997.206
996.793
997.237
997.689
980.427
921.439
933.762
945.321
897.815
896.079
895.953
894.571
892.94
907.428
956.596
965.043
967.745
970.669
973.643
975.49
970.403
968.505
969.834
970.677
977.876
982.25
982.29
982.071
981.494
981.378
964.978
966.317
984.115
990.052
991.498
992.846
994.396
995.461
995.365
993.635
993.51
993.216
994.005
993.435
973.105
930.855
967.621
968.714
938.46
895.999
896.934
897.584
911.055
962.933
967.753
969.66
971.102
973.189
974.957
970.211
967.385
968.622
972.166
979.24
980.596
979.457
979.053
978.241
975.433
969.254
955.952
960.29
968.265
989.052
991.436
989.035
991.574
994.655
993.905
991.659
991.537
991.602
993.021
992.254
965.42
945.798
965.787
965.666
964.831
956.701
951.826
945.46
969.08
969.694
970.231
972.275
973.737
975.386
970.937
968.48
971.004
978.185
981.537
981.137
980.342
977.73
977.768
969.336
953.351
952.642
955.936
959.572
968.6
976.895
978.051
987.872
995.32
995.543
992.984
993.105
993.331
992.597
994.353
996.706
965.533
953.76
962.694
962.991
963.092
961.53
961.316
963.356
965.357
965.06
968.329
973.387
975.151
975.471
968.966
971.28
981.281
981.941
981.933
981.634
981.018
978.898
979.513
959.802
956.58
959.744
986.958
989.546
982.516
983.022
991.347
992.952
997.266
985.893
983.595
994.914
996
987.576
992.244
1000.7
980.166
961.05
961.96
961.554
961.322
957.987
959.609
961.92
962.328
964.106
966.007
973.968
975.828
973.408
970.245
979.631
981.029
981.815
982.106
982.322
982.744
981.665
983.092
972.55
965.781
986.078
988.105
990.395
992.812
995.102
981.127
980.02
981.291
982.322
982.581
982.738
980.355
980.491
985.37
1008.88
999.793
961.471
959.577
958.691
958.631
959.142
959.737
958.592
960.562
963.311
970.249
973.162
960.787
955.484
977.51
979.457
980.882
981.691
981.939
982.063
982.964
983.387
985.914
978.54
965.143
981.411
989.341
990.572
988.724
996.376
999.111
1001.48
998.076
997.686
1005.14
1004.55
985.305
981.401
997.713
1008.09
1013.04
961.312
958.29
955.597
938.695
940.88
952.766
960.401
960.768
969.385
972.501
960.788
942.96
943.542
968.098
979.472
981.139
982.466
982.632
981.499
981.359
982.159
982.622
978.395
964.758
988.168
990.077
985.443
986.404
996.479
998.988
1000.82
1002.28
1003.15
1002.32
998.321
984.337
977.393
993.196
982.736
958.4
962.425
960.246
958.555
903.525
851.084
910.825
961.733
967.659
972.239
975.805
944.926
940.625
940.283
958.17
979.42
982.261
984
985.476
986.174
986.488
984.822
959.05
946.275
948.71
969.146
982.199
973.485
983.651
1000.27
1000.74
1000.01
994.755
971.996
957.189
919.102
905.837
907.342
907.989
908.715
911.87
965.945
965.69
964.769
854.831
845.227
854.82
955.855
972.768
977.153
979.575
942.747
940.781
941.848
970.37
962.168
930.248
943.275
989.898
993.712
996.23
982.134
952.321
955.28
956.872
956.78
957.034
968.29
991.977
1006.46
1005.23
983.772
901.447
869.958
873.188
877.708
962.298
1002.84
989.822
964.542
959.805
969.011
969.553
903.758
841.456
842.719
857.945
963.377
979.278
982.481
971.573
944.627
945.435
970.191
985.203
975.493
865.202
862.513
969.338
1003.09
1005.82
1006.38
970.998
961.051
965.373
993.615
1006.8
1010.62
1003.09
979.516
923.692
861.454
862.722
864.047
971.841
1015.33
1019
1022.69
1025.49
1027.21
1025.1
971.401
903.136
837.248
838.932
840.857
908.244
980.799
984.8
987.762
976.309
950.151
954.137
985.595
991.693
995.703
862.285
857.755
872.344
1011.32
1014.91
1014.87
1008.4
1003.23
1016.14
1015.99
1015.26
1008.57
943.548
871.078
862.784
862.573
887.643
1012.88
1019.91
1020.01
1021.75
1024.68
1026.89
1028.19
1028.72
856.236
832.846
834.828
837.193
880.495
979.588
986.834
989.168
991.375
991.832
966.326
975.267
988.581
992.826
997.81
939.78
859.518
860.883
995.669
1017.01
1016.74
1021.36
1021.64
1021.64
1020.5
1018.86
963.953
864.332
864.751
864.772
863.218
865.75
915.326
1004.52
1024.56
1025.6
1025.7
1022.42
1027.22
1029.95
831.701
833.652
834.73
900.718
982.908
989.022
991.019
992.912
994.58
996.391
996.668
994.607
993.551
991.101
999.683
1010.18
907.417
864.383
993.574
1018.55
1019.33
1025.75
1025.55
1024.71
1023.78
1023.32
982.332
918.617
907.65
917.026
869.621
881.631
957.986
1006.76
1028.02
1029.09
1025.54
1019.49
1020.12
1031.45
899.531
907.935
945.981
984.044
989.521
992.229
994.421
996.335
997.688
998.156
997.924
984.917
945.325
942.217
981.659
1017.67
958.206
873.981
1000.8
1023.3
1023.24
1023.25
1025.32
1026.31
1025.45
1025.61
1026.79
1029.03
1031.87
1026.92
1023.9
1026.99
1020.61
1017.82
1032.34
1032.8
1030.58
1021.88
1022.73
1023.01
973.955
978.852
983.214
987.137
990.769
994.218
997.092
999.138
1001.77
1003.73
991.576
859.883
819.637
820.349
830.02
884.583
875.039
927.272
1029.95
1029.21
1025.64
1029.89
1027.21
1025.16
1024.41
1025.15
1026.91
1029.17
1031.6
1034.16
1035.77
1036.09
1011.3
988.393
1021.81
1035.13
1036.03
1033.49
1029.55
1028.74
972.224
977.77
982.661
987.276
991.591
995.651
999.387
1002.85
1006.13
993.347
911.41
872.823
829.717
822.568
823.656
825.594
842.998
1000.82
1035.25
1035.25
1028.69
1029.21
1025.87
1020.58
1014.15
1021.92
1024.6
1027.44
1029.51
1033.09
1035.58
1032.73
990.806
987.081
997.48
1037.41
1038.41
1039.07
1039.57
1039.85
973.389
978.42
982.41
987.26
994.101
991.443
933.715
883.172
880.745
884
941.009
992.395
1000.56
969.536
836.849
848.502
965.15
1033.96
1035.59
1034.61
1032.37
1029.23
1025.25
942.536
834.425
917.723
985.882
998.539
985.417
1019.84
1038.27
1007.67
986.571
987.6
987.119
1028.99
1041.5
1041.97
1042.48
1042.74
863.856
886.608
903.88
925.205
981.283
964.267
908.244
905.872
949.508
966.92
970.24
994.591
1031.8
1025.49
1004.2
1010.15
1031.6
1034.98
1037.19
1037.46
1036.48
1035.3
986.165
804.208
775.73
774.121
930.161
963.083
967.254
968.742
1024.62
996.616
988.881
989.643
990.147
995.492
1043.43
1045.48
1045.93
1046.22
902.242
823.232
822.988
958.88
969.507
967.705
938.213
775.482
745.128
940.723
1027.5
1031.25
1032.81
1033.06
1033.84
1036.13
1039.38
1042.51
1044.53
1045.68
1033.32
848.104
790.755
786.41
785.285
798.085
967.943
989.53
974.328
974.905
996.816
1023.3
991.653
992.01
993.961
1002.46
1046.78
1049.55
1050.14
1050.72
977.919
863.154
683.952
687.87
701.969
731.35
706.318
710.402
720.894
815.217
1031.69
1034.53
1036.41
1038.01
1040.66
1044.44
1048.87
1053.16
1030.81
925.742
815.144
801.16
795.143
793.428
871.852
1052.74
1054.62
1003.79
979.025
979.087
1010.51
1034.61
995.131
1004.64
1045.65
1050.6
1053.38
1053.68
1055.02
1056.52
668.298
671.483
675.343
680.409
684.796
689.106
694.202
699.337
729.36
974.966
1029.53
1035.69
1041.33
1044.87
953.889
905.522
907.531
906.311
882.804
879.096
875.37
997.118
1057.88
1063.84
1062.44
1061.12
1058.93
999.402
981.967
984.58
1036.09
1036.43
1008.41
1048.46
1054.4
1053.68
1052.18
1049.99
1053.75
1050.06
765.948
823.089
829.074
833.979
782.13
766.092
880.6
960.594
977.277
978
1002.96
1025.3
1035.45
1027.33
987.727
998.952
1029.81
1033.5
1038.53
1002.01
1035.23
1062.17
1067.69
1066.54
1065.5
1064.35
1062.89
1060.28
994.639
997.382
1034.1
1033.76
1019.8
1048.72
1057.28
1053.41
981.931
900.608
929.643
1026.71
764.371
762.656
769.655
937.644
964.785
968.99
969.696
970.6
973.503
980.143
992.108
969.774
962.818
1007.93
1046.51
1052.93
1057.19
1060.16
1060.78
1061.12
1060.25
1058.31
1048.56
1046.92
1063.99
1065.96
1065.7
1065.21
1061.04
982.008
980.979
981.039
980.78
1018.13
1062.24
976.361
821.298
819.861
819.329
1027.3
849.738
798.161
700.418
654.503
666.867
760.709
840.935
864.961
858.964
845.644
898.202
955.691
964.247
970.196
1006.53
1038.46
1057.24
1062.19
1060.75
1060.63
1060.46
982.935
967.172
967.3
1056.1
1072.02
1071.2
1070.3
1060.7
995.96
982.798
982.36
981.098
1006.16
1040.05
849.175
819.516
819.018
834.205
1036.34
473.509
470.755
468.457
466.787
464.503
462.206
480.53
485.34
496.687
621.122
774.745
841.486
821.97
836.148
834.128
829.718
822.926
849.336
857.391
854.254
914.002
906.509
970.975
1073.31
1078.03
1077.56
1076
1074.71
1041.47
1015.59
986.727
1005.95
1014.47
1028.65
1026.57
830.149
820.459
819.606
1006.18
1058.47
470.688
482.001
551.863
645.104
661.587
553.536
519.956
575.248
720.192
851.15
922.96
958.259
982.198
1003.28
1004.17
925.372
726.427
579.848
573.171
568.677
567.585
688.178
879.394
1070.94
1084.35
1076.43
979.925
1012.1
1027.26
1028.72
1046.94
1045.62
1015.92
1030.09
1045.74
974.087
825.565
862.287
1062.01
1062.95
799.144
797.528
882.342
901.773
895.529
885.608
816.594
819.449
901.585
905.227
920.354
944.003
968.223
990.69
1009.41
1017.59
1017.72
1018.3
757.082
554.265
553.998
553.817
553.524
890.376
1098.14
1011.33
824.776
823.359
971.048
1055.49
1069.37
1044.08
1022.77
1050.18
1061.66
1059.96
918.452
1023.36
1066.05
1067.06
908.803
901.428
893.775
884.233
872.761
850.652
778.26
738.689
868.003
875.505
882.594
900.905
924.64
946.319
959.852
969.991
977.936
985.21
992.906
914.802
558.746
627.36
896.079
974.433
835.987
821.88
820.892
819.977
833.805
1044.57
1085.64
1055.78
1058.81
1068.66
1067.89
1066.73
1029.86
1049.83
1043.56
1062.5
493.231
523.023
616.789
614.435
582.888
564.423
556.622
549.359
787.211
782.373
626.031
650.933
847.317
896.072
883.231
648.7
629.467
795.985
941.755
957.043
930.347
965.787
999.009
1011.5
862.234
815.493
815.877
816.561
817.978
955.613
1092.35
1090.27
1074.23
1088.76
1053.2
1030.81
1041.95
1007.78
897.011
1041.88
483.131
474.634
463.599
452.795
439.568
424.705
570.256
754.028
702.739
486.239
484.169
487.095
583.429
881.475
719.104
358.465
343.136
341.089
537.6
917.738
952.618
964.158
977.162
991.157
991.508
802.937
804.723
806.666
807.907
1022.3
1096.31
1097.46
1098.56
1099.27
1095.87
1039.12
1056.94
908.538
900.675
1044.4
480.235
472.713
463.98
452.781
439.824
427.027
650.258
764.075
710.438
483.733
476.829
478.234
486.155
557.505
649.802
522.874
344.554
324.714
315.911
311.578
609.085
932.338
950.727
966.172
982.983
956.704
788.128
793.13
794.727
1031.28
1082.14
1093.38
1100.53
1102.69
1104.72
1105.18
1098.34
907.96
904.227
1081.99
652.878
476.156
468.592
459.586
449.806
438.898
597.517
780.548
733.943
495.943
482.011
481.952
488.129
498.551
559.318
678.714
657.914
343.623
288.434
282.051
277.389
567.128
926.244
943.753
959.122
974.836
947.812
867.132
967.531
921.575
823.865
992.724
1101.28
1106.61
1109.7
1111.68
1082.03
910.184
1028.68
1106.66
1006.69
573.73
477.327
473.082
464.857
454.905
443.617
773.514
897.857
665.755
493.851
485.514
487.457
494.45
608.205
669.305
669.309
551.972
264.696
253.712
253.053
255.456
609.891
920.407
939.998
959.058
977.697
996.125
1012.28
908.693
542.784
810.106
1112.37
1119.03
1120.75
1120.47
918.568
903.676
1105.47
1106.31
1056.54
803.42
487.292
478.304
472.462
469.04
685.943
934.768
915.686
895.286
773.229
487.689
478.467
509.365
644.508
650.923
649.925
571.145
237.706
228.958
234.873
237.57
239.904
433.489
878.806
945.238
969.152
994.96
1020.24
629.961
537.656
683.042
1106.38
1128.17
1020.32
963.764
911.504
1040.34
1118.52
1076.62
1038.35
872.291
621.74
615.978
840.986
993.547
962.501
934.229
912.874
894.092
872.209
570.097
466.849
585.376
620.506
623.494
621.198
389.389
201.461
212.984
233.829
226.039
230.741
235.723
679.565
937.719
969.343
961.262
662.681
541.094
610.763
1094.04
1132.52
962.114
915.514
916.43
1005.36
1129.58
1122.59
1026.69
897.169
912.33
1019.51
1009.39
998.768
978.685
944.14
879.259
787.774
701.916
380.382
247.812
518.697
589.41
593.681
594.209
388.229
176.454
185.684
223.123
282.573
237.22
223.218
352.154
842.147
952.884
715.406
551.966
564.391
605.067
979.377
1079.06
955.114
907.453
910.824
1124.7
1134.88
1131.69
1082.45
1026.93
892.59
987.363
999.688
986.308
956.349
793.063
577.768
299.008
160.636
158.137
162.729
212.397
538.111
556.945
499.71
179.356
156.114
165.967
205.034
252.871
262.82
213.414
217.048
322.768
552.046
567.198
566.419
571.59
671.824
831.14
889.85
891.563
892.345
899.318
1096.27
1132.02
1132.03
1130.23
1062.36
1023.76
981.388
1006.37
989.602
964.351
673.723
168.344
159.696
154.628
152.134
146.805
208.547
365.928
239.399
120.818
121.606
129.285
141.085
215.246
231.04
244.058
201.884
208.232
212.884
236.162
488.472
726.274
800.824
893.006
919.575
912.584
885.172
885.749
934.673
1045.61
1129.76
1128.79
1128.96
1128.38
1047.11
1019.58
1027.65
1011.87
995.726
508.842
180.477
173.251
167.03
158.102
198.104
206.93
137.6
130.346
127.913
129.82
133.482
137.826
143.687
202.871
228.713
182.216
191.651
199.602
221.104
673.052
931.956
1033.14
1049.93
1054.64
1078.07
1074.48
1051.84
1059.94
1075.41
1129.81
1128.11
1125.28
1106.86
1123.92
1029.21
1016.47
1039.04
1022.21
851.571
227.15
182.745
181.844
208.79
200.541
158.878
150.77
146.7
143.891
142.276
142.76
145.435
148.728
151.873
155.648
162.659
169.848
177.436
476.444
893.533
1048.17
1066.67
1084.74
1101.22
1114.36
1122.85
1124.54
1129.62
1133.84
1131.65
1114.54
949.941
840.811
861.964
971.237
1018.37
1024.75
1038.65
962.242
363.654
173.745
176.066
175.133
172.277
169.009
163.768
158.215
206.198
285.875
208.437
150.73
152.944
157.194
161.278
163.813
165.528
353.488
804.248
1015.6
1043.27
1052.71
1065.55
1079.44
1092.64
1104.41
1105.02
1122.41
1125.62
1126.02
1125.29
984.259
834.155
836.018
837.635
838.519
974.937
1081.63
872.046
333.559
161.704
164.212
165.952
166.169
165.407
163.891
242.692
789.221
969.069
966.212
916.472
723.792
417.516
204.348
169.664
174.691
569.168
986.612
1055.78
1054.44
1055.63
1059.8
1067.57
1077.06
1067.78
1032.5
1082.63
1112.27
1112.15
1119.12
1122.91
1120.42
892.707
831.418
833.616
835.072
912.75
1086.96
254.723
152.282
154.707
157.649
159.433
159.939
160.838
224.266
839.242
1078.09
1079.22
1077.98
1075.38
1072.28
1012.83
845.965
733.382
808.879
1026.33
1074.89
1074.44
1071.83
1071.51
1073.32
1077.06
1083.18
1047.55
870.519
1091.64
1101.25
1047.98
1040.28
1060.57
1114.22
1114.67
916.568
832.649
834.016
976.016
1087.47
230.754
251.484
154.497
154.547
155.052
155.143
154.8
451.076
1082.61
1091.04
1091.1
1090.83
1089.66
1087.7
1085.11
1081.41
1077.32
1067.23
1067.6
1075.34
943.774
774.576
664.765
646.01
713.349
870.009
873.905
774.128
1069.6
1099.23
1052.84
1018.9
1021.22
1023.04
1053.91
996.043
942.971
1028.33
1047.21
1087.89
155.484
154.504
154.027
154.066
153.582
152.257
150.259
324.534
991.011
1103.34
1102.58
1101.73
1100.71
1099.79
1098.63
1096.71
1094.99
1070.43
656.741
442.7
395.979
390.11
391.542
394.516
396.312
398.924
402.716
519.75
848.628
1099.43
1113.66
1117.01
1095.77
1015.46
1053.28
1119.07
1121.81
1123.89
1125.52
1126.65
401.389
157.364
156.011
154.682
153.684
152.633
150.805
152.656
451.824
1047.19
1113.57
1111.92
1110.54
1109.33
1108.39
1017.07
794.052
565.615
398.646
398.759
397.333
396.633
397.779
590.381
501.048
554.08
487.716
492.484
723.767
1080.98
1119.34
1113.39
1028.23
997.804
1113.17
1118.99
1122.7
1126.27
1127.6
1128.58
1048.13
422.37
156.363
154.641
153.411
152.529
152.139
151.995
154.219
488.588
1083.14
1122.93
1120.38
1114.5
891.965
738.006
714.25
706.805
702.603
789.044
804.887
1024.74
1066.73
1087.77
1053.57
1117.99
1053.91
854.366
759.279
1042.53
1132.2
1025
607.371
534.254
932.561
1126.55
1128.77
1131.06
1132.57
1133.64
1108.47
1082.52
690.016
246.508
151.475
151.15
150.851
151.066
151.808
445.592
1106.11
1134.4
1130.08
1119.54
935.714
866.043
1056.94
1110.08
1114.26
1115.79
1116.12
1117.44
1120.47
1123.13
1124.2
1124.98
1125.5
1126.35
1040.28
1027.65
1144.9
945.505
525.521
525.953
524.532
790.508
1115.65
1129.24
1092.43
981.406
1029.46
1036.4
1016.43
927.985
687.379
441.979
354.988
375.27
588.948
953.49
1147.62
1144.63
1140.88
1136.35
1115.43
1108.18
1089.43
1122.64
1122.02
1122
1122.18
1122.34
1124.15
1126.56
1128.33
1129.91
1132.08
1134.88
1139.04
1135.99
1112.6
1108.07
849.403
531.693
531.659
531.997
550.235
558.863
579.811
587.341
363.287
418.775
386.658
495.822
791.796
1053
1116.43
1138.76
1160.64
1163.74
1159.8
1156.31
1153.12
1150.33
1148.27
1094.44
1017.57
1113.62
1132.99
1132.67
1132.09
1131.22
1128.39
1118.6
1092.11
1082.03
1095
1126.19
1145.24
1153.48
1140.38
1145.49
1153.12
963.463
648.334
536.753
733.803
833.425
894.633
931.327
5.00067
3.73647
4.33181
20.9649
80.6693
167.377
380.616
629.971
868.663
1013.55
1099.9
1132.53
1118.09
1122.65
1093.5
1022.85
1012
994.767
964.176
895.385
786.951
676.6
573.409
466.73
300.513
267.827
334.1
465.623
775.254
1156.47
1161.72
1164.64
1157.57
1160.64
1131.37
1063.95
1137.44
1149.42
1149.11
1153.85
0.69804
0.373956
0.107859
0.0241271
0.0679997
0.679289
1.66683
0.282279
17.8856
113.823
225.415
315.255
331.752
330.448
318.543
299.155
237.561
131.117
55.0979
3.52704
0.0327054
0.0385218
0.0520542
0.0724454
0.103661
0.118804
35.0529
407.121
885.321
1116.13
1165.99
1167.56
1166.85
1163.8
1163.73
1164.87
1164.2
1164.5
1167.27
1166.47
0.376188
-0.0301366
-0.10598
-0.132478
-0.132747
-0.127309
-0.12262
0.175024
-0.208146
-0.250273
-0.205025
-0.191592
-0.174852
-0.156158
-0.138387
-0.120784
-0.104726
-0.0887252
-0.0662055
-0.0313708
-0.00231521
0.0266824
0.0599804
0.0940372
0.147298
0.249365
2.67038
246.537
584.244
561.159
737.399
668.696
664.684
567.38
478.568
542.313
714.11
929.72
1122.22
1176.41
0.106578
-0.135611
-0.154511
-0.147628
-0.139074
-0.13835
-0.135417
-0.115409
-0.197904
-0.223325
-0.208132
-0.17974
-0.149283
-0.125798
-0.111031
-0.0987373
-0.0833736
-0.0742156
-0.0677632
-0.0525697
-0.0323659
0.0134287
0.0585169
0.0647003
0.073095
0.202146
1.81095
-0.588086
20.2545
22.5009
29.9904
7.0646
2.43722
0.0821853
0.080605
2.20678
66.3919
337.94
799.317
1151.65
-0.119698
-0.16273
-0.162525
-0.141729