/*--------------------------------*- C++ -*----------------------------------*\
  =========                 |
  \\      /  F ield         | OpenFOAM: The Open Source CFD Toolbox
   \\    /   O peration     | Website:  https://openfoam.org
    \\  /    A nd           | Version:  8
     \\/     M anipulation  |
\*---------------------------------------------------------------------------*/
FoamFile
{
    version     2.0;
    format      ascii;
    class       surfaceScalarField;
    location    "5";
    object      phi;
}
// * * * * * * * * * * * * * * * * * * * * * * * * * * * * * * * * * * * * * //

dimensions      [0 3 -1 0 0 0 0];

internalField   nonuniform List<scalar> 
18095
(
1.97619e-08
-1.72067e-07
1.52305e-07
2.31474e-08
-1.97935e-07
1.9455e-07
1.96398e-08
-2.05996e-07
2.09504e-07
1.07405e-08
-2.10796e-07
2.19695e-07
3.57823e-12
-2.13414e-07
2.24151e-07
-1.13236e-08
-2.1331e-07
2.24637e-07
-2.03157e-08
-2.10606e-07
2.19598e-07
-2.32404e-08
-2.05966e-07
2.08891e-07
-1.97745e-08
-1.97897e-07
1.94431e-07
-1.72013e-07
1.52238e-07
1.55113e-08
-1.87578e-07
1.58441e-08
-1.98268e-07
1.19611e-08
-2.02113e-07
6.25824e-09
-2.05093e-07
-8.36491e-11
-2.07072e-07
-6.50665e-09
-2.06887e-07
-1.20165e-08
-2.05096e-07
-1.59069e-08
-2.02076e-07
-1.55427e-08
-1.98261e-07
-1.87555e-07
6.81694e-09
-1.94395e-07
8.34917e-09
-1.998e-07
7.22813e-09
-2.00992e-07
4.07117e-09
-2.01936e-07
-2.32773e-10
-2.02768e-07
-4.38309e-09
-2.02737e-07
-7.27709e-09
-2.02202e-07
-8.34225e-09
-2.01011e-07
-6.82673e-09
-1.99777e-07
-1.94382e-07
4.52806e-09
-1.98923e-07
4.68505e-09
-1.99957e-07
3.62635e-09
-1.99933e-07
2.09017e-09
-2.004e-07
1.77701e-10
-2.00855e-07
-1.82447e-09
-2.00735e-07
-3.59711e-09
-2.0043e-07
-4.70489e-09
-1.99903e-07
-4.53935e-09
-1.99942e-07
-1.98921e-07
1.0771e-09
1.11963e-09
1.18617e-09
7.86535e-10
-6.8954e-11
-8.03765e-10
-1.23344e-09
-1.13651e-09
-1.07861e-09
-2.78257e-08
-1.96816e-07
2.24642e-07
-3.03909e-08
-1.9927e-07
2.01835e-07
-2.55819e-08
-2.01624e-07
1.96815e-07
-1.44562e-08
-2.01976e-07
1.9085e-07
-4.89415e-10
-2.02121e-07
1.88155e-07
1.33624e-08
-2.01608e-07
1.87756e-07
2.43809e-08
-2.00751e-07
1.89732e-07
2.9535e-08
-2.00918e-07
1.95764e-07
2.71149e-08
-1.98727e-07
2.01147e-07
-1.96189e-07
2.23304e-07
-9.74429e-09
-1.87072e-07
-1.53912e-08
-1.93623e-07
-1.41373e-08
-2.02878e-07
-7.60529e-09
-2.08508e-07
-9.78475e-10
-2.08748e-07
5.94071e-09
-2.08527e-07
1.34152e-08
-2.08225e-07
1.51648e-08
-2.02668e-07
9.58293e-09
-1.93145e-07
-1.86606e-07
-1.08192e-08
-1.76253e-07
-8.93979e-09
-1.95503e-07
-6.70089e-09
-2.05117e-07
-4.65323e-09
-2.10555e-07
-2.18576e-10
-2.13183e-07
4.18237e-09
-2.12928e-07
5.75351e-09
-2.09796e-07
7.99506e-09
-2.04909e-07
1.03154e-08
-1.95465e-07
-1.76291e-07
-6.60744e-09
-1.69645e-07
-8.85578e-09
-1.93254e-07
-8.97491e-09
-2.04998e-07
-4.98999e-09
-2.1454e-07
-1.75242e-09
-2.1642e-07
2.18317e-09
-2.16863e-07
7.88553e-09
-2.15499e-07
8.48077e-09
-2.05505e-07
6.50165e-09
-1.93486e-07
-1.69789e-07
-1.73405e-08
-1.60448e-08
-1.15389e-08
-6.38422e-09
1.34604e-09
9.11999e-09
1.32195e-08
1.66059e-08
1.7551e-08
2.74093e-08
-1.61048e-07
1.33639e-07
2.9519e-08
-2.00466e-07
1.98356e-07
1.99914e-08
-2.11824e-07
2.21352e-07
4.11196e-09
-2.15904e-07
2.31783e-07
-1.31232e-08
-2.17483e-07
2.34718e-07
-2.84243e-08
-2.16795e-07
2.32096e-07
-3.79955e-08
-2.15184e-07
2.24755e-07
-4.24633e-08
-2.09073e-07
2.13541e-07
-3.25493e-08
-1.9651e-07
1.86596e-07
-1.55714e-07
1.23165e-07
1.48249e-08
-1.75873e-07
1.76253e-08
-2.03267e-07
1.44867e-08
-2.08685e-07
8.19988e-09
-2.09617e-07
-9.16621e-10
-2.08366e-07
-9.88698e-09
-2.07824e-07
-1.69239e-08
-2.08147e-07
-2.03054e-08
-2.05691e-07
-1.7232e-08
-1.99583e-07
-1.72946e-07
9.04849e-09
-1.84921e-07
7.70201e-09
-2.0192e-07
5.43517e-09
-2.06419e-07
1.74041e-10
-2.04356e-07
-3.45765e-09
-2.04735e-07
-6.95233e-09
-2.0433e-07
-1.01953e-08
-2.04904e-07
-1.08657e-08
-2.05021e-07
-1.00893e-08
-2.0036e-07
-1.83036e-07
6.93893e-09
-1.9186e-07
4.97807e-09
-1.99959e-07
5.44541e-09
-2.06886e-07
1.89908e-10
-1.991e-07
-1.39484e-09
-2.0315e-07
-2.69407e-09
-2.0303e-07
-7.35286e-09
-2.00245e-07
-6.54688e-09
-2.05827e-07
-7.72097e-09
-1.99185e-07
-1.90757e-07
3.27817e-08
3.46578e-08
2.45871e-08
1.63365e-08
1.34119e-09
-1.39333e-08
-2.44458e-08
-3.45086e-08
-3.25474e-08
-1.26702e-07
5.70457e-09
1.20997e-07
-1.30284e-07
3.58131e-09
-1.33046e-07
2.76272e-09
-1.36305e-07
3.25845e-09
-1.40643e-07
4.33797e-09
-1.40369e-07
-2.74091e-10
-1.38653e-07
-1.71534e-09
-1.36947e-07
-1.70627e-09
-1.36272e-07
-6.75011e-10
2.04508e-09
-1.38317e-07
-1.88713e-07
8.27435e-09
1.86143e-07
-1.91653e-07
6.52107e-09
-1.97214e-07
8.32382e-09
-1.97779e-07
3.82335e-09
-1.93766e-07
3.2499e-10
-1.92215e-07
-1.8247e-09
-1.94507e-07
5.76017e-10
-2.02539e-07
6.32633e-09
-2.18083e-07
1.48687e-08
2.37884e-08
-2.39826e-07
-2.20891e-07
2.0039e-08
2.09126e-07
-2.31315e-07
1.69453e-08
-2.41499e-07
1.8507e-08
-2.51777e-07
1.41017e-08
-2.60986e-07
9.53396e-09
-2.77834e-07
1.50235e-08
-3.06669e-07
2.94106e-08
-3.43458e-07
4.31154e-08
-3.79179e-07
5.05893e-08
5.29703e-08
-4.0836e-07
-2.43506e-07
4.07688e-08
2.22776e-07
-2.66248e-07
3.96872e-08
-2.85743e-07
3.80021e-08
-3.07568e-07
3.59266e-08
-3.34139e-07
3.6105e-08
-3.65646e-07
4.65296e-08
-4.00601e-07
6.43666e-08
-4.31475e-07
7.39893e-08
-4.54323e-07
7.34366e-08
6.89447e-08
-4.70297e-07
-2.56991e-07
7.58287e-08
2.21931e-07
-2.98727e-07
8.14231e-08
-3.40193e-07
7.94686e-08
-3.73375e-07
6.91084e-08
-4.04445e-07
6.71752e-08
-4.3331e-07
7.53937e-08
-4.53137e-07
8.41939e-08
-4.64563e-07
8.54153e-08
-4.71188e-07
8.00621e-08
7.1801e-08
-4.74045e-07
-2.59877e-07
1.15023e-07
2.20683e-07
-3.02578e-07
1.24124e-07
-3.49794e-07
1.26685e-07
-3.97211e-07
1.16525e-07
-4.37293e-07
1.07257e-07
-4.67841e-07
1.05941e-07
-4.85649e-07
1.02002e-07
-4.8962e-07
8.93862e-08
-4.87341e-07
7.7782e-08
6.48261e-08
-4.80366e-07
-2.22692e-07
1.66408e-07
1.71307e-07
-2.59909e-07
1.61341e-07
-2.95788e-07
1.62564e-07
-3.35391e-07
1.56129e-07
-3.71861e-07
1.43726e-07
-3.99534e-07
1.33615e-07
-4.22689e-07
1.25156e-07
-4.41475e-07
1.08172e-07
-4.51944e-07
8.82507e-08
5.36184e-08
-4.40736e-07
-8.41111e-08
2.1794e-07
3.2579e-08
-1.25084e-07
2.02314e-07
-1.55779e-07
1.93259e-07
-1.78259e-07
1.78608e-07
-1.94483e-07
1.5995e-07
-2.05218e-07
1.4435e-07
-2.12043e-07
1.31981e-07
-2.19846e-07
1.15975e-07
-2.18425e-07
8.68294e-08
6.34396e-08
-2.28246e-07
7.12812e-08
2.18784e-07
-7.21258e-08
5.21724e-08
2.21423e-07
3.43922e-08
2.11039e-07
1.93524e-08
1.93648e-07
4.8915e-09
1.74411e-07
-5.46556e-09
1.54707e-07
-2.48225e-09
1.28997e-07
1.24101e-08
1.01083e-07
1.8197e-08
8.10427e-08
8.0227e-08
1.40974e-09
1.36461e-07
1.75812e-07
-9.34886e-08
1.58646e-07
1.99238e-07
1.63926e-07
2.05759e-07
1.55787e-07
2.01787e-07
1.38181e-07
1.92016e-07
1.13802e-07
1.79087e-07
8.11209e-08
1.61678e-07
5.44225e-08
1.27781e-07
3.0576e-08
1.04889e-07
8.84011e-08
2.24019e-08
1.62067e-07
1.32506e-07
-1.18761e-07
1.889e-07
1.72405e-07
1.96319e-07
1.9834e-07
1.9165e-07
2.06457e-07
1.78807e-07
2.0486e-07
1.57978e-07
1.99915e-07
1.29201e-07
1.90455e-07
9.46731e-08
1.62309e-07
5.05385e-08
1.49024e-07
1.40098e-07
-1.1584e-09
1.53201e-07
1.12074e-07
-1.32769e-07
1.69766e-07
1.5584e-07
1.79433e-07
1.88672e-07
1.82224e-07
2.03666e-07
1.74204e-07
2.1288e-07
1.61362e-07
2.12757e-07
1.45154e-07
2.06663e-07
1.22365e-07
1.85099e-07
7.89821e-08
1.92406e-07
2.06069e-07
1.30102e-08
1.11938e-07
1.00902e-07
-1.00766e-07
1.13073e-07
1.54704e-07
1.23441e-07
1.78305e-07
1.37198e-07
1.89909e-07
1.34365e-07
2.15713e-07
1.26541e-07
2.2058e-07
1.16122e-07
2.17082e-07
9.15022e-08
2.09718e-07
5.72378e-08
2.2667e-07
2.30231e-07
3.30758e-08
4.32716e-08
1.02489e-07
-4.48589e-08
5.98825e-08
1.38093e-07
7.2862e-08
1.65326e-07
8.71093e-08
1.75662e-07
1.0228e-07
2.00543e-07
1.04214e-07
2.18647e-07
9.78536e-08
2.23442e-07
7.80523e-08
2.29519e-07
6.38798e-08
2.40843e-07
2.32692e-07
6.14187e-08
7.8396e-10
1.5172e-07
-5.00145e-08
3.84826e-09
1.35029e-07
2.52982e-08
1.43876e-07
5.30191e-08
1.47941e-07
7.60366e-08
1.77525e-07
9.05615e-08
2.04122e-07
1.05467e-07
2.08537e-07
1.1519e-07
2.19796e-07
1.12584e-07
2.43448e-07
2.37458e-07
1.07818e-07
5.32383e-08
2.50622e-07
-1.52141e-07
5.64067e-09
1.82627e-07
4.11913e-09
1.45398e-07
2.53878e-08
1.26672e-07
6.13092e-08
1.41604e-07
9.79388e-08
1.67492e-07
1.20848e-07
1.85628e-07
1.537e-07
1.86943e-07
1.76674e-07
2.20475e-07
2.25117e-07
1.89015e-07
2.09177e-07
2.73465e-07
-2.3202e-07
1.44201e-07
2.47604e-07
9.32963e-08
1.96302e-07
8.59371e-08
1.34031e-07
1.14998e-07
1.12543e-07
1.66808e-07
1.15682e-07
2.21949e-07
1.30486e-07
2.51706e-07
1.57186e-07
2.78666e-07
1.93515e-07
2.08561e-07
2.95223e-07
3.55331e-07
2.34388e-07
-3.16253e-07
3.72404e-07
2.30532e-07
3.60886e-07
2.07819e-07
3.32758e-07
1.62159e-07
3.32352e-07
1.12949e-07
3.38813e-07
1.0922e-07
3.51891e-07
1.17408e-07
3.61953e-07
1.47124e-07
3.63373e-07
1.92095e-07
2.11489e-07
3.60444e-07
3.96046e-07
1.7009e-07
-3.31747e-07
4.39074e-07
1.87503e-07
4.60975e-07
1.85917e-07
4.58901e-07
1.64232e-07
4.41931e-07
1.29919e-07
4.25623e-07
1.25528e-07
4.08885e-07
1.34147e-07
3.88473e-07
1.67536e-07
3.74854e-07
2.05713e-07
2.22354e-07
3.63989e-07
3.29177e-07
1.52557e-07
-3.11644e-07
3.66822e-07
1.49857e-07
3.98163e-07
1.54577e-07
4.20081e-07
1.42314e-07
4.20994e-07
1.29007e-07
4.1631e-07
1.30212e-07
3.98095e-07
1.52362e-07
3.66014e-07
1.99617e-07
3.32555e-07
2.39173e-07
2.41724e-07
3.13184e-07
2.80699e-07
1.32089e-07
-2.60232e-07
2.8883e-07
1.41726e-07
3.03375e-07
1.40032e-07
3.11004e-07
1.34685e-07
3.08403e-07
1.31607e-07
3.00669e-07
1.37945e-07
2.81238e-07
1.71793e-07
2.57579e-07
2.23276e-07
2.46947e-07
2.49805e-07
2.56113e-07
2.32558e-07
3.10834e-07
1.3938e-07
-3.18125e-07
3.02768e-07
1.49792e-07
2.86346e-07
1.56454e-07
2.45075e-07
1.75956e-07
1.97044e-07
1.79639e-07
1.56227e-07
1.78761e-07
1.26186e-07
2.01834e-07
1.2502e-07
2.24442e-07
1.35466e-07
2.39359e-07
2.29702e-07
1.61876e-07
2.79021e-07
1.31715e-07
-2.71356e-07
2.89189e-07
1.39625e-07
2.87024e-07
1.58619e-07
2.30653e-07
2.32327e-07
1.6109e-07
2.49202e-07
1.13638e-07
2.26213e-07
9.74259e-08
2.18046e-07
1.00733e-07
2.21134e-07
1.20901e-07
2.19191e-07
2.03174e-07
1.47429e-07
1.99809e-07
3.7588e-08
-1.05682e-07
2.28728e-07
1.10705e-07
2.10452e-07
1.76895e-07
1.96926e-07
2.45853e-07
1.77284e-07
2.68844e-07
1.44978e-07
2.58519e-07
1.23226e-07
2.39797e-07
1.28439e-07
2.15922e-07
1.44721e-07
2.02909e-07
1.84824e-07
1.6307e-07
-5.36772e-08
-1.93471e-08
1.10612e-07
1.06165e-08
4.64115e-08
5.55679e-08
1.31943e-07
9.27679e-08
2.08653e-07
1.1731e-07
2.44302e-07
1.39342e-07
2.36487e-07
1.56969e-07
2.22171e-07
1.58927e-07
2.13964e-07
1.60787e-07
2.01049e-07
1.77189e-07
1.68422e-07
-2.22478e-07
-6.65349e-08
2.69666e-07
-1.39448e-07
-3.66187e-08
-4.42377e-08
3.67325e-08
-6.55854e-09
1.70974e-07
2.50467e-08
2.12696e-07
5.69335e-08
2.046e-07
8.25466e-08
1.96558e-07
9.28886e-08
2.03622e-07
1.13825e-07
1.80113e-07
1.57943e-07
1.3307e-07
-3.59617e-07
-9.48468e-08
3.87928e-07
-3.2115e-07
-7.50857e-08
-3.30725e-07
4.63078e-08
-3.25108e-07
1.65357e-07
-3.10993e-07
1.98581e-07
-2.87366e-07
1.80974e-07
-2.39111e-07
1.48303e-07
-1.77542e-07
1.42053e-07
-1.29558e-07
1.32128e-07
1.2656e-07
-9.81751e-08
-1.04522e-06
1.8878e-08
9.31496e-07
-1.1551e-06
3.47888e-08
-1.22514e-06
1.16352e-07
-1.20879e-06
1.49006e-07
-1.10918e-06
9.89653e-08
-9.65272e-07
3.70685e-08
-8.27501e-07
1.05329e-08
-7.02927e-07
1.74779e-08
-6.04711e-07
3.39127e-08
5.25858e-08
-5.30736e-07
-1.05368e-06
6.33576e-08
1.0092e-06
-1.09289e-06
7.39986e-08
-1.04604e-06
6.94959e-08
-9.37478e-07
4.04465e-08
-8.29888e-07
-8.62517e-09
-7.44001e-07
-4.88191e-08
-6.79434e-07
-5.40337e-08
-6.27175e-07
-3.47812e-08
-5.92522e-07
-7.40151e-10
2.68232e-08
-5.66759e-07
-7.86648e-07
1.77422e-08
8.32263e-07
-7.37546e-07
2.48963e-08
-6.8637e-07
1.83196e-08
-6.4836e-07
2.43671e-09
-6.39188e-07
-1.77968e-08
-6.55998e-07
-3.20094e-08
-6.86894e-07
-2.31377e-08
-7.28379e-07
6.70355e-09
-7.75457e-07
4.6338e-08
7.59612e-08
-8.24595e-07
-8.84562e-07
3.08706e-09
8.99218e-07
-8.55367e-07
-4.29872e-09
-8.21733e-07
-1.53144e-08
-7.9647e-07
-2.28265e-08
-7.91952e-07
-2.23146e-08
-8.09451e-07
-1.45107e-08
-8.29074e-07
-3.51445e-09
-8.40676e-07
1.83058e-08
-8.30225e-07
3.58865e-08
6.19608e-08
-8.16225e-07
-8.83055e-07
-1.92202e-08
9.05362e-07
-8.52754e-07
-3.45998e-08
-8.21442e-07
-4.6626e-08
-8.00806e-07
-4.34624e-08
-8.04453e-07
-1.86681e-08
-8.31266e-07
1.2303e-08
-8.60848e-07
2.60666e-08
-8.37058e-07
-5.48377e-09
-8.0172e-07
5.48819e-10
1.95886e-08
-7.59348e-07
-7.70291e-07
-6.02987e-08
8.11369e-07
-7.1939e-07
-8.54999e-08
-6.63128e-07
-1.02889e-07
-6.07102e-07
-9.94879e-08
-5.6584e-07
-5.99303e-08
-5.68761e-07
1.52242e-08
-6.38815e-07
9.61203e-08
-7.2013e-07
7.58313e-08
-7.47156e-07
2.75757e-08
-6.25287e-08
-6.65039e-07
-6.28969e-07
-1.04749e-07
6.73419e-07
-5.94032e-07
-1.20436e-07
-5.70508e-07
-1.26413e-07
-5.5827e-07
-1.11726e-07
-5.22726e-07
-9.54739e-08
-4.41073e-07
-6.64288e-08
-3.66541e-07
2.15882e-08
-3.73795e-07
8.30859e-08
-3.94295e-07
4.80756e-08
-8.4378e-09
-4.48386e-07
-4.42862e-07
-1.5906e-07
4.97173e-07
-3.90419e-07
-1.72879e-07
-3.17865e-07
-1.98966e-07
-2.63317e-07
-1.66274e-07
-2.27171e-07
-1.3162e-07
-1.77724e-07
-1.15875e-07
-9.32618e-08
-6.28737e-08
-9.7931e-09
-3.83374e-10
5.28635e-08
-1.45823e-08
6.30418e-09
3.81214e-08
-3.27018e-07
-2.38057e-07
4.06015e-07
-2.72827e-07
-2.2707e-07
-2.20512e-07
-2.5128e-07
-1.32486e-07
-2.543e-07
-2.42952e-08
-2.39811e-07
7.05558e-08
-2.10726e-07
1.16795e-07
-1.09113e-07
1.09973e-07
6.43847e-09
1.02269e-07
-6.87821e-09
8.50642e-09
1.00066e-07
-2.75742e-07
-2.58766e-07
2.96451e-07
-2.27223e-07
-2.7559e-07
-1.97953e-07
-2.8055e-07
-1.30551e-07
-3.21702e-07
-3.09093e-08
-3.39453e-07
8.61148e-08
-3.27751e-07
2.25556e-07
-2.48554e-07
3.18145e-07
-8.6151e-08
2.76848e-07
3.4419e-08
7.99945e-08
2.0536e-07
-1.20715e-07
-2.56013e-07
1.17962e-07
-1.16862e-07
-2.79441e-07
-1.02926e-07
-2.94486e-07
-7.78582e-08
-3.4677e-07
-2.84289e-08
-3.88882e-07
5.41595e-08
-4.10339e-07
2.05727e-07
-4.00122e-07
4.27825e-07
-3.08249e-07
5.77878e-07
-1.15633e-07
7.12495e-08
5.86623e-07
1.26782e-07
-2.71175e-07
-1.1162e-07
1.09897e-07
-2.62556e-07
9.2268e-08
-2.76857e-07
6.41438e-08
-3.18646e-07
5.70094e-08
-3.81748e-07
7.95752e-08
-4.32905e-07
1.19401e-07
-4.39947e-07
2.26537e-07
-4.15385e-07
4.37748e-07
-3.26844e-07
-1.32192e-07
6.4119e-07
2.18606e-07
-3.21004e-07
-1.68777e-07
2.57436e-07
-3.01385e-07
2.83839e-07
-3.03262e-07
2.80351e-07
-3.15158e-07
2.45462e-07
-3.46859e-07
2.15798e-07
-4.03241e-07
2.09449e-07
-4.33598e-07
2.31157e-07
-4.37093e-07
3.11627e-07
-4.07314e-07
-3.19371e-07
4.98806e-07
2.82094e-07
-3.46324e-07
-2.56774e-07
3.17479e-07
-3.3677e-07
3.49631e-07
-3.35413e-07
3.73815e-07
-3.39342e-07
3.78835e-07
-3.51878e-07
3.6809e-07
-3.92495e-07
3.61098e-07
-4.26606e-07
3.52355e-07
-4.28351e-07
3.63357e-07
-4.18316e-07
-3.82515e-07
4.26502e-07
4.1184e-07
-3.50005e-07
-4.0816e-07
4.26084e-07
-3.51016e-07
4.47474e-07
-3.56803e-07
4.67699e-07
-3.59568e-07
4.80552e-07
-3.64731e-07
4.82968e-07
-3.94912e-07
4.73635e-07
-4.17273e-07
4.63095e-07
-4.17811e-07
4.51842e-07
-4.07063e-07
-3.79115e-07
4.48442e-07
5.12504e-07
-3.5873e-07
-5.03778e-07
5.38953e-07
-3.77464e-07
5.61044e-07
-3.78893e-07
5.77777e-07
-3.76299e-07
5.91827e-07
-3.78781e-07
5.86673e-07
-3.89757e-07
5.70645e-07
-4.01244e-07
5.53691e-07
-4.00857e-07
5.33338e-07
-3.86709e-07
-3.54571e-07
5.08794e-07
5.98373e-07
-3.76576e-07
-5.80528e-07
6.11387e-07
-3.9048e-07
6.15696e-07
-3.83202e-07
6.20769e-07
-3.81373e-07
6.25277e-07
-3.83289e-07
6.24471e-07
-3.88952e-07
6.11856e-07
-3.88628e-07
5.92479e-07
-3.8148e-07
5.66671e-07
-3.60902e-07
-3.34175e-07
5.46276e-07
6.72782e-07
-3.80259e-07
-6.691e-07
6.533e-07
-3.70998e-07
6.46561e-07
-3.76463e-07
6.44985e-07
-3.79797e-07
6.43282e-07
-3.81586e-07
6.35049e-07
-3.80718e-07
6.20814e-07
-3.74394e-07
5.96283e-07
-3.56949e-07
5.61712e-07
-3.26331e-07
-3.00923e-07
5.2846e-07
6.80255e-07
-3.42232e-07
-7.18282e-07
6.62747e-07
-3.53489e-07
6.50468e-07
-3.64184e-07
6.38227e-07
-3.67557e-07
6.24067e-07
-3.67426e-07
6.0856e-07
-3.65211e-07
5.82919e-07
-3.48752e-07
5.36941e-07
-3.1097e-07
4.87795e-07
-2.77185e-07
-2.69648e-07
4.56519e-07
6.45157e-07
-3.1237e-07
-6.75019e-07
6.21409e-07
-3.29742e-07
6.01096e-07
-3.4387e-07
5.74635e-07
-3.41096e-07
5.47689e-07
-3.4048e-07
5.18124e-07
-3.35646e-07
4.78677e-07
-3.09305e-07
4.47934e-07
-2.80228e-07
4.45503e-07
-2.74755e-07
-3.01967e-07
4.77822e-07
5.44092e-07
-2.94942e-07
-5.61521e-07
5.27188e-07
-3.12838e-07
5.02987e-07
-3.19669e-07
4.66931e-07
-3.0504e-07
4.27998e-07
-3.01547e-07
4.04063e-07
-3.1171e-07
3.94633e-07
-2.99876e-07
4.15726e-07
-3.0132e-07
4.71559e-07
-3.30588e-07
-4.52295e-07
6.21887e-07
4.98865e-07
-2.86595e-07
-5.07212e-07
4.84413e-07
-2.98386e-07
4.55725e-07
-2.90981e-07
3.97936e-07
-2.4725e-07
3.5192e-07
-2.55532e-07
3.24652e-07
-2.84442e-07
3.42141e-07
-3.17365e-07
4.18137e-07
-3.77316e-07
5.89645e-07
-5.02096e-07
-6.88985e-07
8.26334e-07
4.65308e-07
-2.84957e-07
-4.66946e-07
4.54195e-07
-2.87273e-07
4.06797e-07
-2.43583e-07
3.14538e-07
-1.54991e-07
2.65662e-07
-2.06656e-07
2.51844e-07
-2.70623e-07
3.21239e-07
-3.8676e-07
5.38438e-07
-5.94515e-07
8.04694e-07
-7.68353e-07
-8.40168e-07
9.55877e-07
3.84652e-07
-2.63262e-07
-4.06346e-07
3.32201e-07
-2.34822e-07
2.14414e-07
-1.25796e-07
1.62166e-07
-1.02743e-07
1.54858e-07
-1.99349e-07
2.02863e-07
-3.18629e-07
4.68654e-07
-6.52551e-07
7.5553e-07
-8.81392e-07
9.1678e-07
-9.29603e-07
-8.73117e-07
9.49728e-07
2.55962e-07
-1.895e-07
-3.29724e-07
1.44698e-07
-1.2356e-07
8.68952e-08
-6.79924e-08
7.88791e-08
-9.47266e-08
1.00606e-07
-2.21076e-07
3.5574e-07
-5.73762e-07
6.84231e-07
-9.81042e-07
8.37566e-07
-1.03473e-06
8.23037e-07
-9.15075e-07
-6.12657e-07
5.62577e-07
1.52318e-07
-1.04861e-07
-2.36956e-07
7.58701e-08
-4.71142e-08
5.32633e-08
-4.53857e-08
5.13166e-08
-9.27803e-08
1.80998e-07
-3.50758e-07
5.28329e-07
-9.21093e-07
6.98528e-07
-1.15124e-06
6.64596e-07
-1.00079e-06
3.13944e-07
-5.64422e-07
-2.273e-07
-7.14133e-08
9.10575e-08
-3.22885e-08
-1.6363e-07
3.91336e-08
4.80935e-09
1.46172e-08
-2.0869e-08
8.60203e-09
-8.67648e-08
2.60681e-07
-6.02837e-07
4.70824e-07
-1.13124e-06
5.16947e-07
-1.19736e-06
1.38917e-07
-6.22765e-07
-2.76823e-07
-1.48684e-07
5.55307e-09
-5.09676e-07
5.68755e-08
2.85563e-08
-1.1772e-07
3.0904e-08
3.07811e-08
9.28432e-09
7.50957e-10
-1.55242e-08
-6.19562e-08
2.12625e-07
-8.30986e-07
2.5081e-07
-1.16942e-06
1.64639e-07
-1.11119e-06
-3.03423e-07
-1.54701e-07
-4.7293e-07
2.08231e-08
3.76707e-08
-5.05048e-07
6.45241e-08
5.81014e-08
-9.40692e-08
6.72515e-08
2.80533e-08
4.3113e-08
2.48898e-08
-2.60782e-09
-1.62354e-08
1.14288e-07
-9.47882e-07
1.17128e-07
-1.17226e-06
-4.71878e-08
-9.46877e-07
-2.81699e-07
7.98099e-08
-3.76321e-07
1.15445e-07
8.24179e-08
-4.21069e-07
1.51354e-07
2.65149e-08
-1.19768e-07
1.3335e-07
4.6056e-08
6.66163e-08
9.16241e-08
8.34944e-09
4.20313e-08
8.95914e-08
-1.02912e-06
9.61061e-08
-1.17877e-06
3.44909e-08
-8.85261e-07
-1.04476e-07
2.18777e-07
-2.6296e-07
2.73929e-07
2.23532e-07
-4.04074e-07
5.79545e-08
-9.08146e-10
-3.05315e-08
7.36721e-08
3.03383e-08
1.05123e-07
6.01732e-08
9.37824e-08
5.33718e-08
1.86493e-07
-1.12183e-06
2.25544e-07
-1.21783e-06
3.01395e-07
-9.61112e-07
3.1714e-08
4.88458e-07
-1.04251e-07
4.09894e-07
3.86204e-07
-2.66922e-07
-3.79279e-08
-2.09161e-08
5.79355e-08
-7.87371e-08
7.11481e-08
-1.55174e-07
1.36609e-07
4.97364e-08
-1.51539e-07
1.32989e-07
-1.20509e-06
1.85515e-07
-1.27035e-06
4.18273e-07
-1.19387e-06
8.28075e-08
8.23923e-07
-1.27758e-07
6.20461e-07
5.51975e-07
-2.93528e-07
-3.32633e-07
3.17674e-08
2.7995e-07
-4.36159e-07
1.74674e-07
-4.62544e-07
1.62994e-07
-2.45939e-09
-6.11626e-07
2.08314e-08
-1.22838e-06
-1.69616e-08
-1.23256e-06
3.79796e-08
-1.24881e-06
8.35658e-08
7.78335e-07
-5.53299e-08
7.59355e-07
5.4897e-07
-5.23224e-08
-9.3769e-07
-1.92437e-09
9.71383e-07
-7.27931e-07
-3.50806e-08
-3.7365e-07
-1.91285e-07
2.13966e-08
-1.00667e-06
1.28228e-08
-1.2198e-06
-2.44116e-09
-1.21729e-06
-4.00193e-08
-1.21123e-06
1.51906e-07
5.86405e-07
2.6909e-07
6.42173e-07
4.07983e-07
4.10068e-07
-2.59963e-07
-1.59897e-07
4.17935e-07
-1.1871e-07
-1.76336e-07
-4.77919e-08
-2.62205e-07
2.27786e-08
-1.07724e-06
1.19693e-08
-1.20899e-06
6.75367e-09
-1.21208e-06
-1.42483e-08
-1.19023e-06
4.77772e-07
9.43878e-08
8.06866e-07
3.13076e-07
1.73227e-07
1.04161e-06
2.04425e-07
-2.89515e-07
-7.48056e-08
1.2987e-07
-1.01781e-07
2.1145e-08
-1.53479e-07
2.38126e-08
-1.07991e-06
9.50971e-09
-1.19469e-06
-1.02091e-08
-1.19236e-06
-2.02928e-08
-1.18014e-06
4.12446e-07
-3.38364e-07
7.35987e-07
-1.04703e-08
5.77473e-09
9.03449e-07
3.12363e-07
-3.64632e-07
-2.37246e-07
7.14449e-08
1.39137e-07
3.16864e-08
-1.13718e-07
2.73068e-08
-1.07553e-06
7.42694e-09
-1.17481e-06
-1.7789e-08
-1.16714e-06
-3.16458e-08
-1.16628e-06
1.47312e-07
-5.17322e-07
2.21961e-07
-8.51188e-08
-7.33409e-08
3.01076e-07
-3.51072e-07
-2.73355e-07
2.59797e-07
-1.81597e-07
-3.0331e-08
6.25073e-08
-3.57826e-07
7.03558e-08
-1.08338e-06
4.0064e-08
-1.14452e-06
3.46704e-08
-1.16175e-06
1.9267e-08
-1.15088e-06
-2.10832e-08
-4.76979e-07
-9.22408e-08
-1.39562e-08
-4.634e-08
-1.19235e-07
-2.59299e-07
-3.24172e-07
3.10115e-07
-4.72051e-08
-2.42405e-07
-1.0634e-08
-3.944e-07
-2.65511e-08
-1.06746e-06
-3.21583e-08
-1.13891e-06
-6.54979e-08
-1.12841e-06
-7.2301e-08
-1.14408e-06
-3.11604e-08
-5.18113e-07
-2.5487e-08
-1.96217e-08
2.98372e-08
-1.01668e-07
1.30963e-08
-3.42284e-07
5.0146e-09
7.38618e-08
-3.03155e-07
2.34535e-08
-3.43988e-07
3.70176e-08
-1.08102e-06
1.19319e-08
-1.11383e-06
-1.44317e-09
-1.11503e-06
-1.98536e-08
-1.12567e-06
-4.59705e-08
-4.91995e-07
1.87343e-08
-8.43268e-08
1.11461e-07
-6.28893e-08
1.41247e-08
-2.90236e-07
-6.61691e-08
2.3183e-08
-3.12215e-07
1.09771e-08
-3.31783e-07
1.53769e-08
-1.08542e-06
-1.49649e-11
-1.09843e-06
-1.84592e-08
-1.09659e-06
-3.78926e-08
-1.10623e-06
-6.89629e-08
-4.60922e-07
-9.91774e-08
-5.41063e-08
8.88797e-08
-7.65911e-08
1.70464e-08
-2.96157e-07
-1.11241e-08
-4.01843e-08
-2.54981e-07
1.93814e-08
-3.9135e-07
2.60124e-08
-1.09206e-06
5.63254e-09
-1.07805e-06
-1.17586e-08
-1.0792e-06
-3.1318e-08
-1.08667e-06
-6.61523e-08
-4.26089e-07
-1.0882e-07
-1.14294e-08
1.09006e-07
-1.28946e-07
2.82419e-08
-2.57e-07
-6.73981e-08
-1.17392e-07
-1.09348e-07
2.76714e-08
-5.3641e-07
2.20331e-08
-1.08642e-06
4.11997e-09
-1.06014e-06
-1.47923e-08
-1.06029e-06
-3.24906e-08
-1.06898e-06
-4.13668e-08
-4.17208e-07
-5.61585e-08
3.36382e-09
1.60722e-07
-1.07877e-07
8.82215e-08
-1.73839e-07
-1.71383e-07
-1.19025e-08
-9.2267e-09
4.12074e-08
-5.89523e-07
1.77399e-08
-1.06295e-06
-3.29604e-10
-1.04207e-06
-2.00759e-08
-1.04054e-06
-3.45462e-08
-1.0545e-06
-2.84908e-08
-4.23265e-07
-6.11078e-08
3.59855e-08
2.25934e-07
-1.26318e-07
-1.44046e-07
-1.06351e-07
7.65604e-08
-3.03093e-08
-1.22964e-07
4.14724e-08
-6.61305e-07
2.25092e-08
-1.04399e-06
5.83693e-10
-1.02015e-06
-1.91838e-08
-1.02077e-06
-3.48324e-08
-1.03886e-06
-2.5098e-08
-4.33001e-07
-6.37178e-08
7.46068e-08
2.89051e-07
-1.26838e-07
-2.49692e-08
-9.96112e-08
1.82311e-08
5.06504e-08
-1.98564e-07
3.89407e-08
-6.49586e-07
2.12664e-08
-1.02632e-06
-1.72361e-10
-9.98708e-07
-2.4503e-08
-9.96441e-07
-4.05866e-08
-1.02277e-06
-1.35809e-08
-4.59998e-07
-3.21884e-08
9.32145e-08
3.33577e-07
-7.67141e-08
8.69642e-08
-5.35053e-08
-1.33072e-07
3.85858e-08
-1.5018e-07
4.23878e-08
-6.53387e-07
2.25464e-08
-1.00648e-06
-1.07515e-09
-9.75086e-07
-2.15165e-08
-9.76e-07
-3.98048e-08
-1.00449e-06
-4.72958e-09
-4.95073e-07
-4.51593e-09
9.29995e-08
3.45481e-07
-1.64177e-08
9.30407e-08
-4.70041e-08
-9.95425e-08
3.41596e-08
-9.13044e-08
3.79874e-08
-6.57211e-07
1.96914e-08
-9.88176e-07
6.54798e-10
-9.56049e-07
-2.04985e-08
-9.54846e-07
-4.17206e-08
-9.83264e-07
-4.13273e-09
-5.32664e-07
1.44368e-08
7.4433e-08
3.29139e-07
3.07797e-08
8.17468e-08
-4.47506e-08
-8.40021e-08
3.18799e-08
-4.14371e-08
4.30342e-08
-6.68368e-07
1.80607e-08
-9.63202e-07
-1.06334e-09
-9.36925e-07
-1.91337e-08
-9.36776e-07
-3.9318e-08
-9.63078e-07
-2.58745e-09
-5.69391e-07
3.20827e-08
3.97626e-08
2.96664e-07
6.45557e-08
-4.33622e-08
6.73941e-09
-8.12717e-09
-4.89884e-09
-7.9871e-08
3.73159e-08
-7.10582e-07
1.5993e-08
-9.41881e-07
1.30186e-09
-9.22234e-07
-1.54207e-08
-9.20054e-07
-3.83646e-08
-9.40131e-07
-1.05384e-08
-5.9722e-07
4.51586e-09
2.47031e-08
2.73912e-07
2.72651e-08
-1.13597e-08
2.06795e-08
-2.57775e-09
3.61398e-08
-1.2736e-07
4.39679e-08
-7.1841e-07
2.29796e-08
-9.20892e-07
4.41177e-09
-9.03666e-07
-1.34468e-08
-9.02195e-07
-3.46102e-08
-9.18966e-07
-9.74551e-09
-6.22093e-07
-3.35242e-08
4.84881e-08
3.1381e-07
-7.3421e-08
-2.4873e-09
-1.10936e-08
3.42618e-08
4.92307e-08
-1.7908e-07
4.30331e-08
-7.1222e-07
2.18174e-08
-8.99676e-07
2.17833e-09
-8.84027e-07
-1.56116e-08
-8.84405e-07
-3.82814e-08
-8.96296e-07
-3.74071e-08
-6.22973e-07
-1.004e-07
1.11489e-07
3.45452e-07
-1.32041e-07
1.10539e-09
-7.42895e-08
6.20932e-08
5.39853e-08
-2.31948e-07
4.4153e-08
-7.02374e-07
2.30832e-08
-8.786e-07
-6.73423e-10
-8.60271e-07
-2.6285e-08
-8.58794e-07
-4.88734e-08
-8.73709e-07
-5.89581e-08
-6.12888e-07
-1.07956e-07
1.60487e-07
3.24604e-07
-8.71094e-08
3.90242e-08
-1.42249e-07
2.89375e-08
6.05066e-08
-2.53448e-07
4.65719e-08
-6.88443e-07
2.44497e-08
-8.56484e-07
2.20211e-09
-8.38023e-07
-2.34692e-08
-8.33122e-07
-4.68805e-08
-8.50299e-07
-5.72709e-08
-6.02496e-07
-1.34157e-08
1.16631e-07
2.64181e-07
4.70087e-08
4.62674e-08
-1.8781e-07
-7.04341e-10
6.02628e-08
-2.6742e-07
5.04891e-08
-6.78658e-07
2.73187e-08
-8.33314e-07
-2.8003e-09
-8.07904e-07
-2.76581e-08
-8.08264e-07
-5.14191e-08
-8.26539e-07
-5.4452e-08
-5.99463e-07
2.39546e-08
3.823e-08
1.9083e-07
9.73151e-08
1.84806e-08
-2.32421e-07
2.61292e-08
3.96781e-08
-2.88617e-07
3.17171e-08
-6.70693e-07
6.36505e-09
-8.07953e-07
-1.61576e-08
-7.85382e-07
-3.18918e-08
-7.9253e-07
-5.48829e-08
-8.03547e-07
-3.6901e-08
-6.17444e-07
2.70717e-08
-2.57377e-08
1.47445e-07
7.0461e-08
2.78947e-09
-2.68533e-07
3.3328e-08
5.20158e-08
-3.37849e-07
5.34015e-08
-6.7208e-07
3.47463e-08
-7.89298e-07
3.20471e-08
-7.82682e-07
2.566e-09
-7.63049e-07
-1.56963e-08
-7.8528e-07
-1.53535e-08
-6.17786e-07
-2.58302e-08
-1.52659e-08
1.31133e-07
-9.51971e-09
2.06242e-08
-2.91337e-07
2.18668e-09
4.98963e-08
-3.67096e-07
1.07087e-07
-7.29269e-07
8.72516e-08
-7.69458e-07
5.07268e-08
-7.46157e-07
4.74181e-08
-7.5974e-07
1.85745e-08
-7.56436e-07
-4.2977e-08
-5.56235e-07
-7.61892e-08
1.79432e-08
1.27727e-07
-7.27842e-08
2.43158e-08
-2.64211e-07
-5.14388e-08
-1.10462e-08
-3.31742e-07
-3.05737e-08
-7.09739e-07
-5.24512e-08
-7.4758e-07
-8.03944e-08
-7.18214e-07
-8.88362e-08
-7.51299e-07
-1.0938e-07
-7.35887e-07
-1.55855e-07
-5.09767e-07
-1.61673e-07
2.37583e-08
9.56933e-08
-1.29637e-07
5.79866e-08
-2.49704e-07
-7.2493e-08
-4.36037e-09
-2.69414e-07
-9.86307e-08
-6.15469e-07
-1.30863e-07
-7.15344e-07
-1.28826e-07
-7.20251e-07
-1.85333e-07
-6.94792e-07
-2.03343e-07
-7.17875e-07
-1.41476e-07
-5.71636e-07
-1.10921e-07
-6.79774e-09
5.86348e-08
-7.38634e-08
1.06074e-07
-2.18336e-07
-1.3745e-07
9.10823e-08
-2.54434e-07
2.59491e-08
-5.50331e-07
-1.12814e-08
-6.78109e-07
-4.49846e-08
-6.86548e-07
-6.91541e-08
-6.70622e-07
-1.00997e-07
-6.86033e-07
-8.11785e-08
-5.91447e-07
-7.97639e-08
-8.21627e-09
5.6457e-08
-7.75904e-08
8.52628e-08
-1.59518e-07
-1.4409e-07
4.94887e-08
-2.18655e-07
2.9175e-08
-5.30034e-07
8.94138e-09
-6.57886e-07
-2.34513e-08
-6.54155e-07
-5.11711e-08
-6.42902e-07
-8.22688e-08
-6.54941e-07
-4.59975e-08
-6.27712e-07
-4.01834e-08
-1.40314e-08
1.01566e-07
-8.52949e-08
1.12017e-07
-1.16566e-07
-1.54968e-07
9.99783e-08
-2.06582e-07
9.79159e-08
-5.2796e-07
6.95216e-08
-6.29492e-07
5.21425e-08
-6.36776e-07
1.72549e-08
-6.08015e-07
-4.60198e-09
-6.33086e-07
-8.47383e-09
-6.23841e-07
-1.19633e-08
-1.05445e-08
1.3225e-07
-4.2648e-08
9.69877e-08
-8.78067e-08
-1.25751e-07
1.19857e-07
-2.29491e-07
1.58555e-07
-5.66672e-07
1.35699e-07
-6.06637e-07
8.42871e-08
-5.85364e-07
7.32214e-08
-5.96949e-07
3.39623e-08
-5.93826e-07
-5.55387e-08
-5.34341e-07
-8.18977e-08
1.58151e-08
1.09092e-07
-5.87431e-08
6.52297e-08
-6.19007e-08
-9.11356e-08
8.38577e-08
-2.48103e-07
8.54741e-08
-5.68287e-07
4.30571e-08
-5.6422e-07
1.62364e-08
-5.58544e-07
-1.52943e-08
-5.65418e-07
-5.00969e-08
-5.59023e-07
-1.55109e-07
-4.29329e-07
-1.40701e-07
1.40642e-09
8.03638e-08
-1.11975e-07
1.01015e-07
-5.34343e-08
-1.09485e-07
1.29487e-07
-2.76596e-07
8.85709e-08
-5.27371e-07
5.85244e-08
-5.34173e-07
2.3444e-08
-5.23463e-07
-1.44339e-08
-5.2754e-07
-5.19415e-08
-5.21515e-07
-5.6231e-08
-4.25042e-07
-2.9949e-08
-2.4879e-08
9.78405e-08
-4.74258e-08
1.03932e-07
-5.31696e-08
-1.04201e-07
1.01988e-07
-2.74667e-07
5.64787e-08
-4.81862e-07
8.64518e-09
-4.8634e-07
-2.38951e-08
-4.90923e-07
-5.66231e-08
-4.94812e-07
-9.07741e-08
-4.87364e-07
-3.75301e-08
-4.78287e-07
2.68112e-09
-6.50934e-08
1.19522e-07
-1.90002e-08
1.16454e-07
-7.41458e-08
-9.54818e-08
1.19231e-07
-2.77444e-07
7.67439e-08
-4.39374e-07
3.96367e-08
-4.49233e-07
2.54265e-09
-4.53829e-07
-3.82541e-08
-4.54016e-07
-7.80344e-08
-4.47584e-07
-1.12176e-07
-4.44146e-07
-7.43155e-08
-1.02953e-07
1.10439e-07
-6.52324e-08
9.95743e-08
-1.10487e-07
-6.32333e-08
1.0724e-07
-2.85107e-07
5.33349e-08
-3.85467e-07
4.5168e-09
-4.00414e-07
-3.84412e-08
-4.10871e-07
-7.864e-08
-4.13817e-07
-1.19919e-07
-4.06305e-07
-1.79595e-07
-3.84469e-07
-1.19771e-07
-1.62777e-07
6.93687e-08
-7.8703e-08
6.99376e-08
-1.30934e-07
-4.94888e-08
1.32217e-07
-3.47376e-07
9.80001e-08
-3.5125e-07
6.25424e-08
-3.64957e-07
1.54935e-08
-3.63822e-07
-3.76139e-08
-3.6071e-07
-9.13308e-08
-3.52588e-07
-1.38974e-07
-3.36826e-07
-1.01227e-07
-2.00524e-07
-1.3914e-08
-1.79464e-08
1.88274e-07
-1.57256e-07
-1.61947e-07
1.18278e-07
-2.77385e-07
6.55977e-08
-2.9857e-07
1.41532e-08
-3.13512e-07
-3.41536e-08
-3.15515e-07
-8.27933e-08
-3.1207e-07
-1.25018e-07
-3.10364e-07
-1.68e-07
-2.93844e-07
-6.60485e-08
-3.02476e-07
-1.00941e-07
2.09766e-08
1.89676e-07
-2.31063e-07
-1.15868e-07
1.38896e-07
-2.26604e-07
9.20281e-08
-2.51703e-07
3.67046e-08
-2.58189e-07
-1.50275e-08
-2.63783e-07
-6.08446e-08
-2.66253e-07
-1.07791e-07
-2.63417e-07