/*--------------------------------*- C++ -*----------------------------------*\
  =========                 |
  \\      /  F ield         | OpenFOAM: The Open Source CFD Toolbox
   \\    /   O peration     | Website:  https://openfoam.org
    \\  /    A nd           | Version:  8
     \\/     M anipulation  |
\*---------------------------------------------------------------------------*/
FoamFile
{
    version     2.0;
    format      ascii;
    class       volVectorField;
    location    "5";
    object      U;
}
// * * * * * * * * * * * * * * * * * * * * * * * * * * * * * * * * * * * * * //

dimensions      [0 1 -1 0 0 0 0];

internalField   nonuniform List<vector> 
9150
(
(0.00494063 -0.0782319 0)
(0.0130548 -0.0974731 0)
(0.0108672 -0.104393 0)
(0.00832968 -0.108135 0)
(0.00240918 -0.109331 0)
(-0.00240189 -0.109293 0)
(-0.00894608 -0.107603 0)
(-0.0109143 -0.104295 0)
(-0.0130855 -0.097405 0)
(-0.00492493 -0.0781765 0)
(0.00593357 -0.0920408 0)
(0.00856077 -0.100494 0)
(0.00733527 -0.10229 0)
(0.00431918 -0.104413 0)
(0.00189486 -0.105526 0)
(-0.00199015 -0.10555 0)
(-0.00436267 -0.1045 0)
(-0.00737742 -0.102251 0)
(-0.00858604 -0.100491 0)
(-0.00593832 -0.0920283 0)
(0.00175953 -0.0954784 0)
(0.00457019 -0.0989879 0)
(0.00372451 -0.100969 0)
(0.00327077 -0.101704 0)
(0.000727222 -0.102463 0)
(-0.000973638 -0.102372 0)
(-0.00330738 -0.10165 0)
(-0.00373288 -0.100983 0)
(-0.00458085 -0.0989786 0)
(-0.00175867 -0.0954714 0)
(0.00174845 -0.0984316 0)
(0.00247105 -0.100404 0)
(0.00217508 -0.100252 0)
(0.00129382 -0.100811 0)
(0.00072935 -0.100866 0)
(-0.000536321 -0.100869 0)
(-0.00126466 -0.100875 0)
(-0.00217525 -0.100255 0)
(-0.00247899 -0.100399 0)
(-0.00175172 -0.0984299 0)
(0.000184846 -0.099491 0)
(0.000726928 -0.0995745 0)
(0.000451813 -0.100005 0)
(0.000658855 -0.0998644 0)
(0.000102243 -0.10013 0)
(-0.000160783 -0.100098 0)
(-0.000676173 -0.0998709 0)
(-0.000470935 -0.0999863 0)
(-0.000727016 -0.0995722 0)
(-0.000185871 -0.0994918 0)
(0.0760753 -0.195201 2.1774e-26)
(0.0493211 -0.185454 0)
(0.0307737 -0.176919 0)
(0.0157484 -0.175837 0)
(0.00432619 -0.176204 0)
(-0.00480847 -0.175327 0)
(-0.0161247 -0.173647 0)
(-0.0309194 -0.176023 0)
(-0.0494796 -0.184627 0)
(-0.075924 -0.194316 -2.1524e-26)
(0.0584986 -0.146697 5.76693e-27)
(0.0485274 -0.146792 0)
(0.0282698 -0.156791 0)
(0.0201504 -0.15691 0)
(0.00408208 -0.155816 0)
(-0.00504803 -0.155706 0)
(-0.0207695 -0.15692 0)
(-0.0283595 -0.156228 0)
(-0.0483898 -0.14643 0)
(-0.0585029 -0.146389 -5.47449e-27)
(0.0476095 -0.121554 2.82051e-27)
(0.042111 -0.131432 0)
(0.0293533 -0.133832 0)
(0.0176601 -0.137551 0)
(0.00586559 -0.140504 0)
(-0.00606484 -0.140307 0)
(-0.01796 -0.137557 0)
(-0.0299498 -0.133803 0)
(-0.0424463 -0.131373 0)
(-0.0477011 -0.1215 -2.65297e-27)
(0.0372644 -0.0993959 4.38499e-27)
(0.0390576 -0.110275 0)
(0.0222557 -0.12018 0)
(0.0169234 -0.125283 0)
(0.00361798 -0.125322 0)
(-0.00542191 -0.12531 0)
(-0.0177004 -0.124865 0)
(-0.0225779 -0.120301 0)
(-0.0391363 -0.1103 0)
(-0.0373338 -0.0994652 -4.33686e-27)
(0.0247953 -0.0814736 -1.33922e-26)
(0.0281653 -0.101117 -1.59148e-26)
(0.0203175 -0.10842 -3.97843e-27)
(0.0117991 -0.113523 -3.4694e-27)
(0.00523665 -0.116585 -1.35498e-28)
(-0.00392165 -0.117046 -1.4684e-28)
(-0.0105409 -0.114203 -3.51912e-27)
(-0.0199219 -0.108141 -3.95207e-27)
(-0.0279684 -0.101151 -1.58289e-26)
(-0.0247851 -0.0814946 -1.3378e-26)
(0.0180255 -0.145868 0)
(0.00883833 -0.206837 0)
(0.017983 -0.219875 0)
(0.00279726 -0.22554 0)
(0.00100945 -0.226672 0)
(-0.0139521 -0.22509 0)
(-0.0148462 -0.220197 0)
(-0.0248384 -0.21316 0)
(-0.0136492 -0.20153 0)
(-0.0177666 -0.139701 0)
(0.0149621 -0.168557 0)
(0.00122704 -0.2011 0)
(0.0141818 -0.209645 0)
(0.00172506 -0.21322 0)
(0.00542347 -0.214709 0)
(-0.00611782 -0.214253 0)
(-0.0027949 -0.213799 0)
(-0.0157369 -0.207923 0)
(-0.00204354 -0.197035 0)
(-0.0167533 -0.164688 0)
(0.0149705 -0.172947 0)
(-0.00430032 -0.204135 0)
(0.00990707 -0.209216 0)
(-0.00270948 -0.210309 0)
(0.00246051 -0.209993 0)
(-0.0053167 -0.209486 0)
(-0.00042027 -0.209038 0)
(-0.0118829 -0.207376 0)
(0.0034098 -0.202387 0)
(-0.0151734 -0.170802 0)
(0.0171423 -0.194756 0)
(-0.00690286 -0.204761 0)
(0.00912041 -0.210789 0)
(-0.00125161 -0.205647 0)
(0.000889279 -0.207087 0)
(-0.00192106 -0.206938 0)
(0.000285118 -0.207338 0)
(-0.0102802 -0.209694 0)
(0.00678369 -0.203381 0)
(-0.0179246 -0.193706 0)
(0.0354619 -0.218218 0)
(0.00910423 -0.20425 0)
(0.0164981 -0.203714 0)
(0.0117207 -0.196193 0)
(0.00276419 -0.193057 0)
(-0.0012007 -0.193182 0)
(-0.0113764 -0.196169 0)
(-0.0163936 -0.2029 0)
(-0.00922761 -0.203806 0)
(-0.0349852 -0.216742 0)
(-0.0625489 0.00759158 0)
(-0.0651969 0.00508002 0)
(-0.0657635 0.00231104 0)
(-0.0681605 0.00282583 0)
(-0.0696543 0.00548384 0)
(-0.0707325 0.00577392 0)
(-0.0700454 0.00740225 0)
(-0.0692299 0.00822757 0)
(-0.0686143 0.00783018 0)
(-0.068752 0.00627658 0)
(-0.0937019 0.00330435 0)
(-0.0953076 0.00222363 0)
(-0.097928 0.0035554 0)
(-0.0993521 0.00372016 0)
(-0.0985949 0.00136808 0)
(-0.0967068 -0.00662283 0)
(-0.0966421 -0.0118648 0)
(-0.0988948 -0.0126 0)
(-0.104775 -0.00976613 0)
(-0.114485 -0.00245907 0)
(-0.108621 0.0142642 0)
(-0.113168 0.0112107 0)
(-0.118528 0.0129723 0)
(-0.123944 0.00467437 0)
(-0.127476 -0.000219288 0)
(-0.133722 0.00414407 0)
(-0.145812 0.0134483 0)
(-0.162536 0.0270813 0)
(-0.181905 0.0419445 0)
(-0.199403 0.0518069 0)
(-0.116864 0.0275427 0)
(-0.126436 0.0241318 0)
(-0.140039 0.0255169 0)
(-0.147356 0.0246193 0)
(-0.158696 0.0187718 0)
(-0.17669 0.0242533 0)
(-0.192748 0.0430601 0)
(-0.210844 0.0573235 0)
(-0.223013 0.0583015 0)
(-0.231667 0.0559727 0)
(-0.119351 0.0556692 0)
(-0.136058 0.057256 0)
(-0.162312 0.0528956 0)
(-0.179219 0.0491672 0)
(-0.193189 0.0553936 0)
(-0.213272 0.0715004 0)
(-0.224262 0.0873044 0)
(-0.22963 0.0918187 0)
(-0.235022 0.0895183 0)
(-0.236769 0.0831247 0)
(-0.121882 0.0953443 0)
(-0.136705 0.106049 0)
(-0.1642 0.106259 0)
(-0.189413 0.0902163 0)
(-0.208252 0.0810802 0)
(-0.228264 0.0847008 0)
(-0.241237 0.0876151 0)
(-0.247016 0.0832509 0)
(-0.246277 0.0733949 0)
(-0.241996 0.0615199 0)
(-0.10296 0.131272 0)
(-0.118908 0.137421 0)
(-0.138212 0.141939 0)
(-0.161317 0.135553 0)
(-0.177457 0.125182 0)
(-0.190931 0.116377 0)
(-0.206217 0.104964 0)
(-0.222789 0.0844675 0)
(-0.229222 0.0743258 0)
(-0.223389 0.0634634 0)
(-0.0305697 0.19823 0)
(-0.0543817 0.177043 0)
(-0.0708518 0.171775 0)
(-0.0855376 0.165042 0)
(-0.095642 0.151518 0)
(-0.100755 0.142108 0)
(-0.101666 0.139155 0)
(-0.107289 0.127421 0)
(-0.11366 0.0910983 0)
(-0.115759 0.0327191 0)
(0.0379375 0.231475 0)
(0.0297387 0.227388 0)
(0.0207887 0.21701 0)
(0.0123953 0.196441 0)
(0.00632287 0.174677 0)
(-0.00120228 0.153327 0)
(-0.0045534 0.128822 0)
(0.00206248 0.108311 0)
(0.00992943 0.0882369 0)
(0.00572272 0.0904595 0)
(0.0583325 0.212033 0)
(0.0751836 0.223565 0)
(0.0814408 0.215819 0)
(0.0804136 0.202739 0)
(0.0749787 0.186936 0)
(0.0636825 0.170438 0)
(0.0471147 0.145892 0)
(0.0346172 0.10873 0)
(0.0204431 0.0886071 0)
(0.0128017 0.083297 0)
(0.0661818 0.144006 0)
(0.0919274 0.177021 0)
(0.0982491 0.196625 0)
(0.0975003 0.201998 0)
(0.0936756 0.199468 0)
(0.0863979 0.190271 0)
(0.0699413 0.178671 0)
(0.0581498 0.146855 0)
(0.0373623 0.120302 0)
(0.0173045 0.103619 0)
(0.0698993 0.113723 0)
(0.0813392 0.157358 0)
(0.0907648 0.194381 0)
(0.0908792 0.207223 0)
(0.089926 0.206757 0)
(0.085538 0.20532 0)
(0.077135 0.198078 0)
(0.0667298 0.170855 0)
(0.0546418 0.168628 0)
(0.0222322 0.1693 0)
(0.0545048 0.110088 0)
(0.0578367 0.15811 0)
(0.0580529 0.18419 0)
(0.0667913 0.198254 0)
(0.0694457 0.217682 0)
(0.0652785 0.217586 0)
(0.0632447 0.2114 0)
(0.0505517 0.193128 0)
(0.0384238 0.209958 0)
(0.0226549 0.226549 0)
(0.0167628 0.0991192 0)
(0.0276643 0.158462 0)
(0.0344868 0.177742 0)
(0.0400676 0.184653 0)
(0.0478911 0.206943 0)
(0.0518229 0.221719 0)
(0.0535952 0.222155 0)
(0.0457119 0.22361 0)
(0.032542 0.236468 0)
(0.0324271 0.231114 0)
(0.00469852 0.112551 0)
(-0.00291966 0.128624 0)
(0.00609691 0.161147 0)
(0.0204147 0.172113 0)
(0.0342311 0.198891 0)
(0.0409292 0.213156 0)
(0.051101 0.218042 0)
(0.0583692 0.228991 0)
(0.054213 0.245916 0)
(0.0542547 0.237236 0)
(0.043766 0.185362 0)
(0.00836382 0.130546 0)
(-0.00120978 0.121001 0)
(0.00671638 0.128414 0)
(0.0171477 0.16399 0)
(0.0424489 0.201709 0)
(0.0553256 0.208592 0)
(0.0690592 0.212028 0)
(0.0812721 0.238336 0)
(0.0898026 0.237205 0)
(0.110381 0.288658 0)
(0.0877007 0.232364 0)
(0.0484483 0.159345 0)
(0.0483669 0.11289 0)
(0.0509327 0.11222 0)
(0.0640715 0.128566 0)
(0.0985457 0.154876 0)
(0.118694 0.173261 0)
(0.131899 0.206637 0)
(0.143725 0.214537 0)
(0.172242 0.275024 0)
(0.181046 0.264805 0)
(0.18343 0.23365 0)
(0.17529 0.160714 0)
(0.167505 0.108307 0)
(0.168103 0.102357 0)
(0.17296 0.109811 0)
(0.178372 0.140679 0)
(0.181101 0.187947 0)
(0.18032 0.208389 0)
(0.182808 0.196372 0)
(0.209899 0.206046 0)
(0.226377 0.19599 0)
(0.232811 0.172047 0)
(0.22551 0.127628 0)
(0.216003 0.120791 0)
(0.210351 0.127048 0)
(0.201558 0.154632 0)
(0.189478 0.196554 0)
(0.183381 0.214833 0)
(0.160846 0.158641 0)
(0.174798 0.165496 0)
(0.191877 0.169882 0)
(0.205235 0.151073 0)
(0.210803 0.128748 0)
(0.208608 0.126967 0)
(0.206387 0.136435 0)
(0.194639 0.175165 0)
(0.175403 0.215011 0)
(0.161846 0.228112 0)
(0.135074 0.137707 0)
(0.14373 0.140538 0)
(0.148628 0.141897 0)
(0.153157 0.134471 0)
(0.154527 0.127301 0)
(0.151131 0.131165 0)
(0.149307 0.166638 0)
(0.138012 0.225086 0)
(0.12624 0.256633 0)
(0.118422 0.25871 0)
(0.158579 0.135016 0)
(0.155154 0.145514 0)
(0.148823 0.145081 0)
(0.13759 0.147642 0)
(0.109208 0.14704 0)
(0.0855478 0.156685 0)
(0.070576 0.191056 0)
(0.0598602 0.230385 0)
(0.0645797 0.251711 0)
(0.072832 0.250188 0)
(0.143997 0.139879 0)
(0.145353 0.146516 0)
(0.145574 0.157359 0)
(0.135119 0.197468 0)
(0.10065 0.212033 0)
(0.0630798 0.194894 0)
(0.0513346 0.207168 0)
(0.0479189 0.216651 0)
(0.0538839 0.222995 0)
(0.0666135 0.210944 0)
(0.0853055 0.0957378 0)
(0.108103 0.126621 0)
(0.118765 0.159151 0)
(0.105033 0.242646 0)
(0.0909102 0.265317 0)
(0.0811849 0.249983 0)
(0.063877 0.228442 0)
(0.0614802 0.213454 0)
(0.0698386 0.20388 0)
(0.0772174 0.186131 0)
(-0.0445808 -0.00620106 0)
(-0.0147295 0.0961783 0)
(0.0249355 0.193422 0)
(0.0369971 0.266309 0)
(0.056743 0.285578 0)
(0.0630774 0.275498 0)
(0.0700174 0.259909 0)
(0.0808303 0.234047 0)
(0.0801697 0.212671 0)
(0.0844353 0.186652 0)
(-0.127248 -0.0423863 0)
(-0.0937561 -0.00932495 0)
(-0.0428817 0.0628424 0)
(-0.0104118 0.148805 0)
(0.00754708 0.197184 0)
(0.0183822 0.189292 0)
(0.0332181 0.176966 0)
(0.0463929 0.184957 0)
(0.0527984 0.18258 0)
(0.061003 0.164551 0)
(-0.185242 -0.0855273 0)
(-0.172305 -0.0738001 0)
(-0.172493 -0.00149057 0)
(-0.162557 0.163923 0)
(-0.150388 0.206489 0)
(-0.15236 0.206829 0)
(-0.128803 0.198875 0)
(-0.100266 0.200954 0)
(-0.0782284 0.16922 0)
(-0.0612476 0.149698 0)
(-0.486595 -0.0761249 0)
(-0.574442 -0.0318956 0)
(-0.628048 0.121288 0)
(-0.594352 0.193167 0)
(-0.580031 0.190022 0)
(-0.526756 0.132494 0)
(-0.448915 0.083992 0)
(-0.394946 0.0785346 0)
(-0.339667 0.0885206 0)
(-0.279719 0.105523 0)
(-0.520818 0.097081 0)
(-0.539977 0.0860273 0)
(-0.541035 0.0797625 0)
(-0.515661 0.0721053 0)
(-0.443583 -0.00406033 0)
(-0.387822 -0.050594 0)
(-0.352865 -0.0607653 0)
(-0.328276 -0.0467378 0)
(-0.309885 -0.0247769 0)
(-0.291565 -0.00861265 0)
(-0.40456 0.0275656 0)
(-0.387661 0.0491635 0)
(-0.353269 0.0409028 0)
(-0.326998 0.0204333 0)
(-0.316979 -0.0114712 0)
(-0.322426 -0.0404461 0)
(-0.333689 -0.0395878 0)
(-0.354724 -0.0148406 0)
(-0.376316 0.0281977 0)
(-0.39909 0.0696804 0)
(-0.447744 0.00646538 0)
(-0.438114 0.00566815 0)
(-0.420529 -0.00029318 0)
(-0.398581 -0.0164675 0)
(-0.394652 -0.0239523 0)
(-0.398605 -0.0228856 0)
(-0.41136 -0.00744497 0)
(-0.423126 0.0277243 0)
(-0.416826 0.0548486 0)
(-0.408829 0.0656971 0)
(-0.448023 0.00305128 0)
(-0.436352 -0.0128492 0)
(-0.416953 -0.0263746 0)
(-0.401547 -0.0261046 0)
(-0.397195 -0.0176169 0)
(-0.411503 -0.00309541 0)
(-0.427398 0.00427549 0)
(-0.426989 0.00522627 0)
(-0.411244 0.0250232 0)
(-0.384929 0.0692697 0)
(-0.393316 -0.0448288 0)
(-0.374573 -0.0629009 0)
(-0.345701 -0.0765498 0)
(-0.313573 -0.0701877 0)
(-0.287809 -0.0253184 0)
(-0.277745 0.0296058 0)
(-0.295402 0.0449982 0)
(-0.357456 -0.010484 0)
(-0.369765 -0.0227903 0)
(-0.350357 -0.0389854 0)
(-0.319279 -0.065221 0)
(-0.298208 -0.0950323 0)
(-0.28851 -0.11685 0)
(-0.282634 -0.117719 0)
(-0.273036 -0.0993493 0)
(-0.227823 -0.0168539 0)
(-0.205249 0.108836 0)
(-0.186932 0.138907 0)
(-0.197827 0.0686927 0)
(-0.206374 -0.0448418 0)
(-0.243925 -0.141128 0)
(-0.206206 -0.151436 0)
(-0.169213 -0.139228 0)
(-0.139461 -0.0986902 0)
(-0.122262 -0.0736982 0)
(-0.0935485 -0.0706439 0)
(-0.0846514 -0.0469948 0)
(-0.0239464 0.0158153 0)
(0.0189494 0.00713421 0)
(0.0256358 0.00726916 0)
(-0.181243 -0.191607 0)
(-0.15479 -0.188182 0)
(-0.124346 -0.235439 0)
(-0.0835088 -0.216756 0)
(-0.0476425 -0.176004 0)
(0.0238911 -0.144538 0)
(0.0500376 -0.0696182 0)
(0.054177 -0.0103937 0)
(0.0518549 -0.0239809 0)
(0.0524609 0.0146538 0)
(-0.146078 -0.27032 0)
(-0.122963 -0.273702 0)
(-0.10657 -0.278929 0)
(-0.0849109 -0.313661 0)
(-0.0398401 -0.322514 0)
(0.0107132 -0.294188 0)
(0.0805007 -0.149597 0)
(0.144989 0.0292295 0)
(0.154139 0.0177097 0)
(0.116574 0.00127228 0)
(-0.0535403 -0.267476 0)
(-0.0668314 -0.30021 0)
(-0.0545431 -0.313934 0)
(-0.0436217 -0.362338 0)
(-0.0292676 -0.383828 0)
(0.00398052 -0.389999 0)
(0.0532353 -0.370666 0)
(0.136745 -0.216451 0)
(0.267103 0.0267668 0)
(0.307141 0.138379 0)
(0.0587814 -0.244961 0)
(0.063514 -0.257002 0)
(0.0506338 -0.28118 0)
(0.0395513 -0.340866 0)
(0.0252986 -0.402563 0)
(0.0372986 -0.427099 0)
(0.0453979 -0.417964 0)
(0.076524 -0.38138 0)
(0.147152 -0.259762 0)
(0.285858 0.00347156 0)
(0.0920034 -0.292726 0)
(0.116228 -0.26703 0)
(0.133456 -0.268967 0)
(0.141921 -0.292275 0)
(0.138114 -0.35017 0)
(0.117514 -0.420846 0)
(0.109777 -0.443476 0)
(0.105901 -0.433403 0)
(0.12656 -0.379229 0)
(0.19272 -0.265134 0)
(0.128541 -0.347805 0)
(0.142769 -0.33191 0)
(0.165535 -0.326385 0)
(0.17904 -0.326289 0)
(0.187076 -0.337205 0)
(0.194069 -0.383989 0)
(0.189527 -0.420263 0)
(0.181436 -0.42957 0)
(0.173579 -0.419966 0)
(0.189501 -0.367399 0)
(0.203067 -0.340925 0)
(0.201711 -0.342004 0)
(0.21362 -0.346694 0)
(0.227789 -0.35416 0)
(0.237056 -0.364712 0)
(0.247178 -0.400603 0)
(0.242292 -0.42803 0)
(0.236838 -0.42703 0)
(0.231213 -0.415136 0)
(0.223932 -0.385591 0)
(0.251764 -0.353972 0)
(0.255754 -0.362146 0)
(0.273588 -0.366884 0)
(0.284425 -0.367635 0)
(0.294214 -0.369908 0)
(0.298599 -0.386624 0)
(0.293965 -0.405882 0)
(0.282692 -0.40861 0)
(0.274646 -0.398259 0)
(0.26612 -0.367865 0)
(0.291512 -0.371847 0)
(0.303037 -0.391053 0)
(0.304546 -0.389194 0)
(0.308711 -0.384387 0)
(0.313414 -0.383753 0)
(0.314511 -0.390689 0)
(0.311073 -0.395945 0)
(0.304355 -0.392488 0)
(0.293346 -0.375202 0)
(0.280263 -0.346762 0)
(0.332929 -0.391454 0)
(0.332107 -0.389435 0)
(0.325553 -0.381757 0)
(0.322406 -0.378868 0)
(0.322632 -0.380807 0)
(0.319248 -0.385203 0)
(0.316435 -0.382314 0)
(0.307772 -0.371312 0)
(0.292924 -0.347635 0)
(0.274245 -0.319462 0)
(0.352001 -0.356759 0)
(0.337175 -0.358585 0)
(0.326449 -0.366868 0)
(0.322573 -0.375604 0)
(0.31717 -0.379686 0)
(0.307695 -0.377845 0)
(0.300846 -0.365425 0)
(0.285881 -0.33522 0)
(0.258448 -0.29422 0)
(0.22587 -0.276861 0)
(0.325585 -0.313289 0)
(0.317544 -0.330061 0)
(0.305954 -0.353499 0)
(0.297049 -0.358761 0)
(0.280814 -0.359785 0)
(0.265543 -0.353609 0)
(0.254585 -0.328637 0)
(0.230984 -0.286575 0)
(0.218845 -0.266576 0)
(0.224408 -0.270052 0)
(0.272028 -0.298068 0)
(0.267118 -0.323685 0)
(0.258074 -0.33621 0)
(0.247942 -0.329924 0)
(0.222532 -0.323538 0)
(0.205816 -0.321795 0)
(0.198167 -0.299577 0)
(0.201234 -0.282282 0)
(0.2165 -0.286465 0)
(0.251663 -0.337584 0)
(0.250465 -0.293004 0)
(0.245291 -0.304755 0)
(0.240887 -0.301122 0)
(0.216693 -0.270463 0)
(0.181458 -0.276368 0)
(0.162916 -0.297634 0)
(0.165136 -0.302875 0)
(0.183246 -0.320354 0)
(0.235641 -0.371132 0)
(0.353684 -0.561393 0)
(0.231451 -0.285576 0)
(0.230012 -0.289585 0)
(0.227058 -0.267751 0)
(0.177071 -0.20718 0)
(0.144245 -0.228756 0)
(0.118145 -0.269311 0)
(0.136697 -0.319319 0)
(0.204542 -0.412712 0)
(0.326858 -0.616789 0)
(0.462856 -0.807357 0)
(0.194023 -0.278622 0)
(0.186456 -0.275697 0)
(0.145428 -0.208111 0)
(0.0832816 -0.122296 0)
(0.0721247 -0.184608 0)
(0.0801601 -0.259055 0)
(0.147789 -0.43179 0)
(0.314838 -0.75843 0)
(0.427826 -0.907184 0)
(0.477857 -0.877918 0)
(0.146138 -0.23648 0)
(0.102574 -0.191805 0)
(0.0500446 -0.0715883 0)
(0.0458247 -0.0873068 0)
(0.0250262 -0.204963 0)
(0.0928977 -0.382647 0)
(0.271795 -0.869823 0)
(0.395297 -1.01612 0)
(0.424352 -0.971473 0)
(0.394782 -0.877744 0)
(0.10087 -0.143005 0)
(0.0553129 -0.063196 0)
(0.0259815 -0.0523712 0)
(0.0294491 -0.0954747 0)
(0.0322703 -0.269881 0)
(0.165522 -0.774791 0)
(0.327336 -1.11727 0)
(0.367048 -1.07044 0)
(0.275644 -0.880779 0)
(0.05125 -0.404292 0)
(0.0666559 -0.0698986 0)
(0.0238693 -0.0254572 0)
(0.0278142 -0.0381431 0)
(-0.0302172 -0.0927766 0)
(0.0627388 -0.412416 0)
(0.155707 -1.06907 0)
(0.28754 -1.19476 0)
(0.224548 -0.952015 0)
(-0.0859448 -0.262136 0)
(-0.199597 -0.0200414 0)
(0.0424471 0.000295646 0)
(0.0028247 0.033064 0)
(0.0495946 0.00475318 0)
(-0.061859 -0.0715989 0)
(0.0708817 -0.75079 0)
(0.0930079 -1.15903 0)
(0.169315 -1.1589 0)
(-0.0453229 -0.264659 0)
(-0.226163 0.0022739 0)
(-0.251938 0.0342355 0)
(0.0367758 0.0657997 0)
(0.0182587 0.027149 0)
(0.0629012 -0.00750054 0)
(-0.0398987 -0.0519059 0)
(0.0448969 -0.923559 0)
(0.049529 -1.1745 0)
(0.0865602 -0.965815 0)
(-0.127828 0.0194009 0)
(-0.178027 0.0576411 0)
(-0.19866 0.0526814 0)
(0.0684227 0.0345512 0)
(0.0725269 0.0330825 0)
(0.0646544 0.0710825 0)
(-0.0156604 0.0225592 0)
(0.0311423 -0.994654 0)
(0.0433264 -1.1848 0)
(0.0833976 -0.907396 0)
(-0.0359501 0.181971 0)
(-0.113921 0.183954 0)
(-0.162069 0.132531 0)
(0.0184646 0.0224467 0)
(0.0307979 0.0519977 0)
(0.052951 0.0801195 0)
(0.0322301 0.0509472 0)
(0.0886363 -1.06372 0)
(0.0694514 -1.2074 0)
(0.172449 -0.9758 0)
(0.106754 0.162496 0)
(-0.0761342 0.301402 0)
(-0.0563944 0.271506 0)
(-0.0254327 -0.0287646 0)
(-0.0190904 -0.0048639 0)
(-0.0596562 0.0593075 0)
(-0.0472118 0.0839328 0)
(0.0722816 -1.19038 0)
(0.0423069 -1.24631 0)
(0.127388 -1.10555 0)
(0.192991 0.575081 0)
(-0.0443099 0.511459 0)
(-0.0965404 0.397908 0)
(-0.147605 0.00547417 0)
(-0.206291 0.182947 0)
(-0.263719 0.241746 0)
(-0.0652069 -0.411846 0)
(0.0199898 -1.2182 0)
(0.003156 -1.24076 0)
(-0.0156039 -1.18974 0)
(0.073993 0.988177 0)
(-0.0301551 0.713558 0)
(-0.014765 0.639294 0)
(-0.48598 0.0758861 0)
(-0.459651 0.11191 0)
(-0.27789 -0.0206738 0)
(-0.0111035 -0.923727 0)
(0.0106522 -1.22421 0)
(0.00285258 -1.23022 0)
(-0.00054303 -1.22422 0)
(0.00414782 0.88592 0)
(0.0490267 0.814091 0)
(0.2247 0.594459 0)
(-0.206284 -0.0927274 0)
(-0.0491736 -0.174367 0)
(-0.0557369 -0.258562 0)
(0.0103423 -1.03746 0)
(0.00966675 -1.21892 0)
(-0.00248012 -1.21866 0)
(0.00467288 -1.19791 0)
(0.0429637 0.423376 0)
(0.285556 0.570926 0)
(0.465405 0.295238 0)
(0.104019 -0.20485 0)
(0.118159 -0.129877 0)
(0.0142265 -0.222986 0)
(0.0131071 -1.06927 0)
(0.0096266 -1.19914 0)
(-0.00409234 -1.20267 0)
(-0.00814563 -1.1928 0)
(0.017135 -0.299907 0)
(0.313439 0.000513956 0)
(0.374583 0.0223687 0)
(0.162811 -0.341814 0)
(0.131685 -0.124453 0)
(-0.0189733 -0.0878116 0)
(0.0163058 -1.07511 0)
(0.0110382 -1.18403 0)
(-0.00452162 -1.18024 0)
(-0.00611147 -1.17146 0)
(0.00111172 -0.443766 0)
(0.100497 -0.0580667 0)
(0.106577 -0.0376511 0)
(-0.193855 -0.279818 0)
(-0.147885 0.295535 0)
(0.0272699 -0.20056 0)
(0.0331355 -1.0813 0)
(0.0183446 -1.15792 0)
(0.00333099 -1.16464 0)
(0.0149167 -1.15562 0)
(0.0183473 -0.464135 0)
(-0.0246431 -0.0647948 0)
(-0.0709624 -0.0643307 0)
(-0.153326 -0.368086 0)
(-0.0694916 -0.280827 0)
(-0.00103638 -0.40523 0)
(-0.0140531 -1.07309 0)
(-0.00256407 -1.14377 0)
(-0.0192398 -1.1453 0)
(-0.0300959 -1.14969 0)
(-0.0465202 -0.53824 0)
(0.00125194 0.028274 0)
(-0.0323831 -0.0260441 0)
(-0.0128302 -0.341216 0)
(0.0394229 -0.285116 0)
(0.00837918 -0.349234 0)
(0.0190331 -1.07 0)
(0.0129898 -1.12564 0)
(-0.00295749 -1.12056 0)
(-0.000994181 -1.13822 0)
(-0.0249539 -0.49882 0)
(-0.000237265 -0.0705284 0)
(0.00861997 0.0919235 0)
(0.0119789 -0.295084 0)
(0.00842465 -0.312042 0)
(0.00486023 -0.323928 0)
(0.00709765 -1.08304 0)
(0.00879689 -1.10405 0)
(-0.00869545 -1.10314 0)
(-0.00890523 -1.1151 0)
(-0.0261843 -0.465557 0)
(-0.0559078 -0.0726574 0)
(-0.0276463 0.100898 0)
(0.0474164 -0.295903 0)
(-0.0365426 -0.277031 0)
(0.00354354 -0.31951 0)
(0.0145906 -1.09457 0)
(0.0103306 -1.08748 0)
(-0.0067473 -1.08656 0)
(-0.00693438 -1.09744 0)
(-0.0218636 -0.428029 0)
(-0.0456984 -0.0228863 0)
(-0.0584697 0.100116 0)
(0.084549 -0.296043 0)
(-0.0670317 -0.189962 0)
(-0.00547331 -0.468314 0)
(0.0123511 -1.09609 0)
(0.0094025 -1.06766 0)
(-0.00700952 -1.0679 0)
(-0.00819022 -1.07737 0)
(-0.0196134 -0.42661 0)
(-0.0190926 -0.00680576 0)
(-0.0437334 0.123982 0)
(0.0798729 -0.221887 0)
(-0.00343497 -0.0443053 0)
(0.00724462 -0.594831 0)
(0.010629 -1.06874 0)
(0.00846214 -1.05109 0)
(-0.00881789 -1.05059 0)
(-0.0110602 -1.06169 0)
(-0.0169621 -0.421309 0)
(-0.0170998 0.0129715 0)
(-0.0423176 0.185026 0)
(-0.0705106 -0.102076 0)
(-0.0634993 0.0152466 0)
(0.0306699 -0.641406 0)
(0.0127121 -1.051 0)
(0.00851783 -1.03083 0)
(-0.00837758 -1.03006 0)
(-0.0119524 -1.0476 0)
(-0.0152398 -0.418717 0)
(-0.0157353 0.065814 0)
(-0.0422532 0.256955 0)
(-0.0228936 -0.132229 0)
(0.00820111 -0.221175 0)
(0.0304865 -0.646835 0)
(0.0134371 -1.03888 0)
(0.0091937 -1.00977 0)
(-0.00932331 -1.00944 0)
(-0.0146277 -1.03065 0)
(-0.0174025 -0.445245 0)
(-0.00220058 0.0842062 0)
(-0.0256551 0.324149 0)
(0.0565123 -0.0621628 0)
(0.0329458 -0.16944 0)
(0.0175035 -0.643346 0)
(0.0145455 -1.01697 0)
(0.00829886 -0.985917 0)
(-0.00903373 -0.985554 0)
(-0.0134066 -1.01615 0)
(-0.0161251 -0.467462 0)
(0.0065589 0.102342 0)
(-0.00836431 0.34925 0)
(0.0519202 -0.0484666 0)
(0.0298616 -0.111368 0)
(0.0159939 -0.642777 0)
(0.0119542 -0.998615 0)
(0.00910035 -0.965207 0)
(-0.00829174 -0.964748 0)
(-0.0134046 -0.994932 0)
(-0.0216743 -0.509835 0)
(0.014469 0.0915428 0)
(0.00213782 0.34421 0)
(0.0466325 -0.0559166 0)
(0.0228633 -0.0566573 0)
(0.020191 -0.662629 0)
(0.0120351 -0.976581 0)
(0.00726954 -0.946139 0)
(-0.0082794 -0.94561 0)
(-0.0112874 -0.974632 0)
(-0.0226008 -0.565076 0)
(0.0191907 0.051705 0)
(0.0189515 0.30514 0)
(-0.0167857 -0.0199938 0)
(-0.0247563 -0.0483209 0)
(0.0213762 -0.709131 0)
(0.0101992 -0.953036 0)
(0.00789973 -0.928813 0)
(-0.0066814 -0.928083 0)
(-0.0107916 -0.951989 0)
(-0.0219169 -0.604517 0)
(0.00703201 0.0143692 0)
(0.00371207 0.27298 0)
(-0.010364 0.0297822 0)
(0.00312799 -0.101138 0)
(0.0290425 -0.713886 0)
(0.0139787 -0.931382 0)
(0.00911771 -0.913934 0)
(-0.00610969 -0.912245 0)
(-0.00965144 -0.928953 0)
(-0.0136103 -0.618664 0)
(-0.000289299 0.0290386 0)
(-0.0266514 0.292043 0)
(-0.0159016 0.0153964 0)
(0.015499 -0.144541 0)
(0.0289835 -0.715885 0)
(0.0129187 -0.909423 0)
(0.00924425 -0.893715 0)
(-0.00782374 -0.893276 0)
(-0.0106755 -0.907038 0)
(-0.0179457 -0.607143 0)
(-0.0296605 0.0916274 0)
(-0.0626763 0.339827 0)
(-0.0210448 -0.0352549 0)
(0.0226703 -0.215552 0)
(0.0269465 -0.711026 0)
(0.014046 -0.889545 0)
(0.0103909 -0.874374 0)
(-0.0107141 -0.871671 0)
(-0.0157422 -0.885054 0)
(-0.028922 -0.605574 0)
(-0.0390065 0.14954 0)
(-0.0537993 0.351538 0)
(0.00321926 -0.108948 0)
(0.0342952 -0.242522 0)
(0.0287484 -0.691413 0)
(0.0143978 -0.868167 0)
(0.0117246 -0.847224 0)
(-0.0103387 -0.846531 0)
(-0.0115536 -0.862844 0)
(-0.0346931 -0.612322 0)
(-0.014634 0.146097 0)
(-0.00380976 0.308989 0)
(0.015361 -0.165791 0)
(0.0349621 -0.252566 0)
(0.0321097 -0.678727 0)
(0.0128125 -0.846437 0)
(0.0113554 -0.820833 0)
(-0.0148751 -0.8227 0)
(-0.0114391 -0.839847 0)
(-0.0350228 -0.603083 0)
(-0.0149406 0.089125 0)
(0.0337886 0.205809 0)
(-0.000939831 -0.210417 0)
(0.0204773 -0.268294 0)
(0.0234156 -0.673912 0)
(0.00116177 -0.820245 0)
(0.00503956 -0.800652 0)
(-0.0164118 -0.793329 0)
(-0.0105957 -0.814136 0)
(-0.0342439 -0.612791 0)
(-0.0126341 -0.0189626 0)
(0.0337459 0.15848 0)
(-0.0121204 -0.260546 0)
(0.0142731 -0.328702 0)
(0.0320478 -0.668455 0)
(0.0156426 -0.796504 0)
(0.0288621 -0.783814 0)
(1.8154e-05 -0.775651 0)
(0.00676811 -0.789821 0)
(-0.0144575 -0.609086 0)
(-0.01296 -0.0319345 0)
(-0.00837803 0.141495 0)
(-0.00352417 -0.283292 0)
(0.0310321 -0.358117 0)
(0.0475293 -0.697814 0)
(0.0296088 -0.783222 0)
(0.0352013 -0.761261 0)
(0.00725131 -0.770711 0)
(0.0253928 -0.778977 0)
(0.00166268 -0.634814 0)
(-0.0383708 -0.00100052 0)
(-0.0374203 0.131958 0)
(0.0128668 -0.282908 0)
(0.0110708 -0.360866 0)
(-0.00860763 -0.734574 0)
(-0.0359753 -0.751058 0)
(-0.0293827 -0.728608 0)
(-0.0604081 -0.752487 0)
(-0.0484413 -0.741225 0)
(-0.0551608 -0.475028 0)
(-0.0777934 0.041042 0)
(-0.0730513 0.112196 0)
(0.0207986 -0.256949 0)
(0.0538685 -0.292051 0)
(-0.0607016 -0.686834 0)
(-0.0565764 -0.741089 0)
(-0.0538365 -0.727356 0)
(-0.0800937 -0.726849 0)
(-0.074707 -0.73003 0)
(-0.114992 -0.541308 0)
(-0.0588797 0.010774 0)
(-0.0492641 0.0803691 0)
(0.0635158 -0.237757 0)
(0.0564919 -0.261208 0)
(0.0132136 -0.550343 0)
(0.00436847 -0.702919 0)
(-0.00886811 -0.706561 0)
(-0.0286409 -0.679887 0)
(-0.0270758 -0.699945 0)
(-0.061261 -0.597873 0)
(-0.040045 -0.0211538 0)
(-0.0425395 0.0443298 0)
(0.0641646 -0.189112 0)
(0.0165764 -0.237724 0)
(0.0180661 -0.542215 0)
(0.0170532 -0.670636 0)
(-0.00174949 -0.667003 0)
(-0.0160076 -0.653489 0)
(-0.0252137 -0.666257 0)
(-0.035135 -0.607298 0)
(-0.0265604 0.000885555 0)
(-0.0289038 0.0726047 0)
(0.0733839 -0.136582 0)
(0.0210521 -0.207242 0)
(0.0664009 -0.51402 0)
(0.0434321 -0.638037 0)
(0.0386295 -0.640673 0)
(0.0195776 -0.620073 0)
(0.00362715 -0.641546 0)
(-0.00501663 -0.629468 0)
(-0.00995305 -0.0336704 0)
(-0.00511377 0.124012 0)
(0.0552299 -0.0955904 0)
(0.0424631 -0.206016 0)
(0.0914877 -0.555543 0)
(0.0580828 -0.622702 0)
(0.0571131 -0.615227 0)
(0.0384526 -0.611715 0)
(0.0197747 -0.622858 0)
(0.0236927 -0.606271 0)
(-0.0699008 0.00830188 0)
(-0.0231755 0.128855 0)
(0.0348405 -0.0762125 0)
(0.0234371 -0.241549 0)
(0.0689893 -0.574042 0)
(0.0223712 -0.583319 0)
(0.0163904 -0.572234 0)
(0.000938238 -0.576142 0)
(-0.0226454 -0.574191 0)
(-0.0339021 -0.440073 0)
(-0.100127 0.0276007 0)
(-0.0537876 0.0966739 0)
(0.0527946 -0.0529342 0)
(0.0613088 -0.26418 0)
(0.0547446 -0.532117 0)
(0.0351807 -0.54502 0)
(0.0200667 -0.542801 0)
(0.00271218 -0.544259 0)
(-0.0216395 -0.542897 0)
(-0.0442179 -0.428995 0)
(0.0022073 -0.0212901 0)
(-0.024253 0.0806102 0)
(0.0555462 -0.0503515 0)
(0.0465241 -0.285578 0)
(0.050627 -0.498013 0)
(0.0130164 -0.512249 0)
(-0.00372285 -0.508483 0)
(-0.02175 -0.511278 0)
(-0.0419361 -0.505212 0)
(-0.0597212 -0.458014 0)
(0.0260977 -0.0393206 0)
(-0.0173639 0.102988 0)
(0.0563165 -0.0622998 0)
(0.0580248 -0.269768 0)
(0.0538932 -0.450941 0)
(0.0302552 -0.460708 0)
(0.0118943 -0.468748 0)
(-0.00985492 -0.470536 0)
(-0.0320785 -0.46275 0)
(-0.0609106 -0.457385 0)
(-0.0369131 -0.0832026 0)
(-0.0333908 0.122336 0)
(0.0260196 -0.0943633 0)
(0.0644299 -0.290058 0)
(0.04907 -0.411398 0)
(0.0119077 -0.425382 0)
(-0.00809104 -0.434392 0)
(-0.0317531 -0.435624 0)
(-0.0497811 -0.422849 0)
(-0.080902 -0.390372 0)
(-0.0814647 -0.131742 0)
(-0.0469071 0.0982877 0)
(0.0128173 -0.108096 0)
(0.064435 -0.333049 0)
(0.0648863 -0.364217 0)
(0.0412248 -0.382154 0)
(0.0224632 -0.379945 0)
(-0.00595908 -0.383015 0)
(-0.0312374 -0.376033 0)
(-0.069705 -0.35624 0)
(-0.076138 -0.210698 0)
(-0.0137755 0.0566086 0)
(0.10708 -0.166551 0)
(0.0666894 -0.289503 0)
(0.0550462 -0.314334 0)
(0.0157024 -0.33474 0)
(-0.00190326 -0.332963 0)
(-0.0310586 -0.326054 0)
(-0.0553202 -0.323128 0)
(-0.0771472 -0.30605 0)
(-0.080693 -0.256994 0)
(-0.00744911 -0.0795486 0)
(0.0909226 -0.221933 0)
(0.0677166 -0.233144 0)
(0.0641686 -0.264539 0)
(0.0323055 -0.277973 0)
(0.00481307 -0.285129 0)
(-0.0208849 -0.286971 0)
(-0.0401504 -0.280695 0)
(-0.0701704 -0.253131 0)
(-0.0811393 -0.207944 0)
(-0.120375 -0.197139 0)
(0.0526654 -0.144796 0)
(0.0505891 -0.200374 0)
(0.0409393 -0.233443 0)
(0.0221672 -0.244555 0)
(0.0139368 -0.24825 0)
(-0.00814769 -0.247097 0)
(-0.0214101 -0.241026 0)
(-0.0477847 -0.229662 0)
(-0.0510346 -0.182642 0)
(-0.0550714 -0.130527 0)
(-0.0707621 0.00455868 0)
(-0.0758609 0.00273159 0)
(-0.0843194 0.00279482 0)
(-0.0953246 0.00455194 0)
(-0.107999 0.00493434 0)
(-0.119167 0.00757943 0)
(-0.129031 0.0133487 0)
(-0.138377 0.0155363 0)
(-0.145837 0.0119958 0)
(-0.150238 0.00486323 0)
(-0.15161 -0.00390371 0)
(-0.150793 -0.00965009 0)
(-0.149645 -0.011229 0)
(-0.148064 -0.0108645 0)
(-0.146135 -0.00852528 0)
(-0.143791 -0.00508204 0)
(-0.141059 -0.000330445 0)
(-0.138551 0.00540045 0)
(-0.137561 0.0093525 0)
(-0.138351 0.0108822 0)
(-0.141044 0.00999723 0)
(-0.14632 0.00704598 0)
(-0.160605 0.00169529 0)
(-0.170626 -0.00181152 0)
(-0.174899 -0.00022342 0)
(-0.181468 0.00513234 0)
(-0.197633 0.0128516 0)
(-0.210506 0.00960424 0)
(-0.214438 -0.00415337 0)
(-0.202965 -0.0196148 0)
(-0.185508 -0.0252534 0)
(-0.165646 -0.0236032 0)
(-0.133236 -0.0276291 0)
(-0.0988313 -0.0288227 0)
(-0.0640904 -0.0148532 0)
(-0.0358625 -0.00314855 0)
(-0.0157978 -0.00431654 0)
(-0.0082322 -0.00290534 0)
(-0.00759574 -0.000755617 0)
(-0.00574818 0.000620822 0)
(-0.126888 0.00886338 0)
(-0.141079 0.0236915 0)
(-0.155769 0.036173 0)
(-0.16318 0.0389427 0)
(-0.166781 0.0363971 0)
(-0.166989 0.0281137 0)
(-0.163653 0.0169539 0)
(-0.161791 0.0120472 0)
(-0.164214 0.00978357 0)
(-0.170305 0.00724226 0)
(-0.17818 0.00527624 0)
(-0.186473 0.00708079 0)
(-0.188515 0.00796038 0)
(-0.187937 0.0060165 0)
(-0.184098 0.0011264 0)
(-0.177609 -0.00366885 0)
(-0.168568 -0.00784934 0)
(-0.155616 -0.0106683 0)
(-0.139705 -0.00967937 0)
(-0.125444 -0.00398133 0)
(-0.117656 0.00458253 0)
(-0.118543 0.0167531 0)
(-0.139916 0.0404133 0)