/*--------------------------------*- C++ -*----------------------------------*\
  =========                 |
  \\      /  F ield         | OpenFOAM: The Open Source CFD Toolbox
   \\    /   O peration     | Website:  https://openfoam.org
    \\  /    A nd           | Version:  8
     \\/     M anipulation  |
\*---------------------------------------------------------------------------*/
FoamFile
{
    version     2.0;
    format      ascii;
    class       surfaceScalarField;
    location    "2.95";
    object      alphaPhi0.water;
}
// * * * * * * * * * * * * * * * * * * * * * * * * * * * * * * * * * * * * * //

dimensions      [0 3 -1 0 0 0 0];

internalField   nonuniform List<scalar> 
18095
(
1.57808e-07
-9.65977e-07
8.08169e-07
1.65066e-07
-1.24804e-06
1.24078e-06
1.22083e-07
-1.24215e-06
1.28513e-06
6.53168e-08
-1.26338e-06
1.32015e-06
6.01708e-11
-1.28037e-06
1.34562e-06
-6.52076e-08
-1.28038e-06
1.34565e-06
-1.22e-07
-1.26341e-06
1.3202e-06
-1.65011e-07
-1.24218e-06
1.28519e-06
-1.57783e-07
-1.24806e-06
1.24084e-06
-9.66047e-07
8.08264e-07
1.1092e-07
-1.0769e-06
9.92799e-08
-1.2364e-06
7.27924e-08
-1.21566e-06
4.00317e-08
-1.23062e-06
3.84041e-11
-1.24037e-06
-3.99608e-08
-1.24038e-06
-7.27364e-08
-1.23064e-06
-9.9236e-08
-1.21568e-06
-1.10892e-07
-1.23641e-06
-1.07694e-06
6.70509e-08
-1.14395e-06
5.26638e-08
-1.22202e-06
4.20696e-08
-1.20507e-06
2.3843e-08
-1.21239e-06
2.35944e-11
-1.21656e-06
-2.3799e-08
-1.21656e-06
-4.20343e-08
-1.2124e-06
-5.26363e-08
-1.20508e-06
-6.70284e-08
-1.22202e-06
-1.14397e-06
3.95679e-08
-1.18352e-06
2.65848e-08
-1.20903e-06
2.19748e-08
-1.20046e-06
1.25104e-08
-1.20293e-06
1.32308e-11
-1.20406e-06
-1.24856e-08
-1.20406e-06
-2.19544e-08
-1.20293e-06
-2.65695e-08
-1.20046e-06
-3.95535e-08
-1.20903e-06
-1.18352e-06
1.64847e-08
7.45175e-09
6.99236e-09
4.06273e-09
4.54087e-12
-4.05417e-09
-6.98537e-09
-7.44704e-09
-1.64789e-08
-1.734e-07
-1.16449e-06
1.33789e-06
-2.17087e-07
-1.21573e-06
1.25942e-06
-1.63865e-07
-1.21232e-06
1.15909e-06
-8.6347e-08
-1.20389e-06
1.12637e-06
7.10396e-10
-1.20255e-06
1.11549e-06
8.77536e-08
-1.20265e-06
1.11561e-06
1.65129e-07
-1.20417e-06
1.1268e-06
2.18232e-07
-1.21272e-06
1.15961e-06
1.74494e-07
-1.21631e-06
1.26005e-06
-1.16518e-06
1.33968e-06
-9.33339e-08
-1.07115e-06
-9.55937e-08
-1.21347e-06
-7.88958e-08
-1.22901e-06
-4.38032e-08
-1.23898e-06
4.05734e-10
-1.24675e-06
4.45826e-08
-1.24683e-06
7.95922e-08
-1.23918e-06
9.61721e-08
-1.2293e-06
9.36671e-08
-1.21381e-06
-1.07152e-06
-5.78636e-08
-1.01329e-06
-5.50431e-08
-1.21629e-06
-4.6289e-08
-1.23777e-06
-2.68625e-08
-1.25841e-06
2.44068e-10
-1.27386e-06
2.73271e-08
-1.27391e-06
4.66871e-08
-1.25854e-06
5.53349e-08
-1.23794e-06
5.80056e-08
-1.21648e-06
-1.01351e-06
-7.44403e-08
-9.38851e-07
-6.15767e-08
-1.22916e-06
-4.83345e-08
-1.25101e-06
-2.75873e-08
-1.27915e-06
1.49703e-10
-1.3016e-06
2.78697e-08
-1.30163e-06
4.85688e-08
-1.27924e-06
6.17347e-08
-1.25111e-06
7.45131e-08
-1.22925e-06
-9.38998e-07
-1.30682e-07
-1.19053e-07
-8.49284e-08
-4.39329e-08
9.4561e-11
4.41099e-08
8.50722e-08
1.19152e-07
1.30733e-07
-4.14105e-08
-9.26301e-07
9.67712e-07
9.51349e-09
-1.33936e-06
1.28844e-06
1.60034e-08
-1.27365e-06
1.26716e-06
1.07179e-08
-1.2254e-06
1.23068e-06
6.18792e-09
-1.22265e-06
1.22718e-06
1.92359e-09
-1.22369e-06
1.22796e-06
-4.13842e-09
-1.22536e-06
1.23142e-06
6.06532e-09
-1.27189e-06
1.26168e-06
6.18957e-08
-1.34237e-06
1.28654e-06
-9.49339e-07
1.01123e-06
1.54562e-08
-9.41758e-07
2.363e-08
-1.34753e-06
1.66408e-08
-1.26666e-06
1.06304e-08
-1.21939e-06
4.67087e-09
-1.21669e-06
-1.52108e-09
-1.2175e-06
-7.62892e-09
-1.21925e-06
-1.2134e-08
-1.26738e-06
-5.56194e-09
-1.34894e-06
-9.54901e-07
3.04247e-08
-9.72182e-07
2.17543e-08
-1.33886e-06
1.39845e-08
-1.25889e-06
9.16815e-09
-1.21457e-06
3.18796e-09
-1.21071e-06
-3.25307e-09
-1.21106e-06
-7.98921e-09
-1.21451e-06
-1.59113e-08
-1.25946e-06
-2.49598e-08
-1.3399e-06
-9.79861e-07
7.99312e-08
-1.05211e-06
5.26535e-08
-1.31158e-06
3.43392e-08
-1.24058e-06
2.24052e-08
-1.20264e-06
1.88244e-09
-1.19019e-06
-1.88679e-08
-1.19031e-06
-3.02053e-08
-1.20317e-06
-4.81981e-08
-1.24147e-06
-7.60735e-08
-1.31202e-06
-1.05593e-06
2.85774e-07
2.33609e-07
1.52123e-07
7.58557e-08
1.15652e-09
-7.35426e-08
-1.49919e-07
-2.31771e-07
-2.83743e-07
-1.58746e-07
2.77866e-09
1.55968e-07
-1.61416e-07
2.66931e-09
-1.63959e-07
2.54303e-09
-1.66359e-07
2.39891e-09
-1.68594e-07
2.23509e-09
-1.70643e-07
2.04899e-09
-1.72481e-07
1.83765e-09
-1.74078e-07
1.5977e-09
-1.75403e-07
1.32508e-09
1.017e-09
-1.76419e-07
-1.66244e-07
5.21084e-09
1.63812e-07
-1.68515e-07
4.94128e-09
-1.7061e-07
4.6381e-09
-1.72513e-07
4.3007e-09
-1.74205e-07
3.92707e-09
-1.75671e-07
3.51511e-09
-1.76897e-07
3.06345e-09
-1.77869e-07
2.57093e-09
-1.7858e-07
2.03716e-09
1.46275e-09
-1.79026e-07
-1.64382e-07
7.50367e-09
1.62089e-07
-1.66527e-07
7.08623e-09
-1.68511e-07
6.62307e-09
-1.70324e-07
6.11305e-09
-1.71952e-07
5.55487e-09
-1.73384e-07
4.94733e-09
-1.7461e-07
4.28969e-09
-1.75621e-07
3.58189e-09
-1.76408e-07
2.82468e-09
2.01974e-09
-1.76965e-07
-1.6242e-07
9.71827e-09
1.60206e-07
-1.645e-07
9.16585e-09
-1.66435e-07
8.55829e-09
-1.68216e-07
7.89433e-09
-1.69834e-07
7.1728e-09
-1.7128e-07
6.39267e-09
-1.72544e-07
5.55345e-09
-1.73617e-07
4.65527e-09
-1.74491e-07
3.69905e-09
2.68631e-09
-1.75158e-07
-1.60738e-07
1.18947e-08
1.58561e-07
-1.62792e-07
1.12194e-08
-1.64715e-07
1.04816e-08
-1.665e-07
9.67968e-09
-1.6814e-07
8.81213e-09
-1.69625e-07
7.87797e-09
-1.70949e-07
6.87664e-09
-1.72102e-07
5.80821e-09
-1.73076e-07
4.6734e-09
3.47361e-09
-1.73863e-07
-1.59403e-07
1.40641e-08
1.57234e-07
-1.61462e-07
1.32777e-08
-1.63403e-07
1.24226e-08
-1.6522e-07
1.14967e-08
-1.66906e-07
1.04984e-08
-1.68454e-07
9.42636e-09
-1.69858e-07
8.27987e-09
-1.71108e-07
7.05883e-09
-1.72199e-07
5.76381e-09
4.3961e-09
-1.73121e-07
-1.58442e-07
1.62518e-08
1.56254e-07
-1.6053e-07
1.53653e-08
-1.62512e-07
1.44046e-08
-1.64382e-07
1.33675e-08
-1.66136e-07
1.22518e-08
-1.67765e-07
1.1056e-08
-1.69265e-07
9.77909e-09
-1.70627e-07
8.42077e-09
-1.71844e-07
6.98148e-09
5.46245e-09
-1.72911e-07
-1.5786e-07
1.84781e-08
1.55633e-07
-1.59996e-07
1.75017e-08
-1.62038e-07
1.64464e-08
-1.63979e-07
1.53093e-08
-1.65815e-07
1.40879e-08
-1.6754e-07
1.27804e-08
-1.69146e-07
1.13855e-08
-1.70628e-07
9.90265e-09
-1.71979e-07
8.33221e-09
6.67536e-09
-1.73191e-07
-1.57652e-07
2.07596e-08
1.55371e-07
-1.59853e-07
1.97028e-08
-1.61969e-07
1.85625e-08
-1.63995e-07
1.73352e-08
-1.65925e-07
1.60181e-08
-1.67754e-07
1.46089e-08
-1.69475e-07
1.31061e-08
-1.71081e-07
1.15088e-08
-1.72566e-07
9.81731e-09
8.03266e-09
-1.73923e-07
-1.57811e-07
2.31098e-08
1.55461e-07
-1.6009e-07
2.19816e-08
-1.62293e-07
2.07647e-08
-1.64414e-07
1.94559e-08
-1.66447e-07
1.80514e-08
-1.68386e-07
1.65485e-08
-1.70226e-07
1.49454e-08
-1.71958e-07
1.3241e-08
-1.73576e-07
1.14352e-08
9.5292e-09
-1.75073e-07
-1.58328e-07
2.5541e-08
1.55898e-07
-1.60695e-07
2.4349e-08
-1.62996e-07
2.30637e-08
-1.65222e-07
2.16807e-08
-1.67366e-07
2.01953e-08
-1.69423e-07
1.86047e-08
-1.71384e-07
1.69066e-08
-1.73242e-07
1.50995e-08
-1.7499e-07
1.31832e-08
1.11587e-08
-1.7662e-07
-1.59201e-07
2.80649e-08
1.56679e-07
-1.61669e-07
2.68167e-08
-1.64075e-07
2.54698e-08
-1.66416e-07
2.40181e-08
-1.68678e-07
2.24573e-08
-1.70856e-07
2.0783e-08
-1.72942e-07
1.89927e-08
-1.74928e-07
1.70849e-08
-1.76803e-07
1.50588e-08
1.29155e-08
-1.7856e-07
-1.60429e-07
3.06925e-08
1.57801e-07
-1.63008e-07
2.93966e-08
-1.65534e-07
2.79942e-08
-1.67995e-07
2.6479e-08
-1.70384e-07
2.48458e-08
-1.72691e-07
2.30899e-08
-1.74906e-07
2.12081e-08
-1.7702e-07
1.91986e-08
-1.79022e-07
1.70608e-08
1.47951e-08
-1.80901e-07
-1.62006e-07
3.34345e-08
1.59265e-07
-1.6472e-07
3.20989e-08
-1.67375e-07
3.06491e-08
-1.69971e-07
2.90745e-08
-1.72496e-07
2.73711e-08
-1.7494e-07
2.55335e-08
-1.77291e-07
2.35583e-08
-1.79536e-07
2.14438e-08
-1.81664e-07
1.91894e-08
1.67953e-08
-1.83665e-07
-1.63946e-07
3.63096e-08
1.6109e-07
-1.66816e-07
3.49369e-08
-1.69618e-07
3.34518e-08
-1.72364e-07
3.18211e-08
-1.75034e-07
3.00454e-08
-1.77624e-07
2.81226e-08
-1.80122e-07
2.60493e-08
-1.82503e-07
2.38249e-08
-1.84761e-07
2.14465e-08
1.89149e-08
-1.8688e-07
-1.66306e-07
3.93287e-08
1.633e-07
-1.69321e-07
3.79399e-08
-1.7229e-07
3.64183e-08
-1.75206e-07
3.47361e-08
-1.78039e-07
3.28863e-08
-1.80788e-07
3.08705e-08
-1.83435e-07
2.86911e-08
-1.85961e-07
2.6348e-08
-1.8835e-07
2.38359e-08
2.11523e-08
-1.9058e-07
-1.69085e-07
4.25077e-08
1.65909e-07
-1.72142e-07
4.10991e-08
-1.75388e-07
3.95011e-08
-1.78535e-07
3.77492e-08
-1.81559e-07
3.59125e-08
-1.84479e-07
3.37918e-08
-1.87262e-07
3.1494e-08
-1.89931e-07
2.90172e-08
-1.92453e-07
2.63574e-08
2.35116e-08
-1.94814e-07
-1.72344e-07
4.58696e-08
1.68982e-07
-1.75705e-07
4.44716e-08
-1.78395e-07
4.27556e-08
-1.81862e-07
4.08712e-08
-1.85614e-07
3.91166e-08
-1.88722e-07
3.69006e-08
-1.91683e-07
3.44762e-08
-1.94518e-07
3.18525e-08
-1.97189e-07
2.90279e-08
2.59986e-08
-1.99683e-07
-1.76118e-07
4.94456e-08
1.72542e-07
-1.79627e-07
4.80484e-08
-1.82314e-07
4.62288e-08
-1.85949e-07
4.4388e-08
-1.90236e-07
4.24182e-08
-1.93567e-07
4.02319e-08
-1.96741e-07
3.76716e-08
-1.99771e-07
3.4882e-08
-2.02613e-07
3.18694e-08
2.86306e-08
-2.05252e-07
-1.80428e-07
5.3263e-08
1.76611e-07
-1.84011e-07
5.18511e-08
-1.86958e-07
5.0017e-08
-1.90778e-07
4.81393e-08
-1.95555e-07
4.60582e-08
-1.99147e-07
4.38232e-08
-2.02587e-07
4.11116e-08
-2.0583e-07
3.81396e-08
-2.08861e-07
3.49043e-08
3.14104e-08
-2.11654e-07
-1.85376e-07
5.7371e-08
1.81271e-07
-1.88377e-07
5.58586e-08
-1.92447e-07
5.40486e-08
-1.96539e-07
5.21764e-08
-2.01742e-07
5.00213e-08
-2.05632e-07
4.77131e-08
-2.09353e-07
4.48331e-08
-2.12855e-07
4.16418e-08
-2.16091e-07
3.81406e-08
3.43371e-08
-2.19016e-07
-1.90987e-07
6.1814e-08
1.86563e-07
-1.94166e-07
6.03134e-08
-1.98662e-07
5.85332e-08
-2.03163e-07
5.66089e-08
-2.0888e-07
5.44328e-08
-2.13156e-07
5.19886e-08
-2.17228e-07
4.89057e-08
-2.21028e-07
4.54419e-08
-2.24494e-07
4.1606e-08
3.74156e-08
-2.27571e-07
-1.97429e-07
6.66554e-08
1.92591e-07
-2.01001e-07
6.53987e-08
-2.0599e-07
6.34874e-08
-2.10942e-07
6.15709e-08
-2.17184e-07
5.93884e-08
-2.21942e-07
5.67469e-08
-2.26444e-07
5.34071e-08
-2.30596e-07
4.95946e-08
-2.34325e-07
4.5335e-08
4.06599e-08
-2.37569e-07
-2.04721e-07
7.19252e-08
1.99454e-07
-2.10114e-07
7.08641e-08
-2.14469e-07
6.94103e-08
-2.20169e-07
6.72536e-08
-2.26837e-07
6.50962e-08
-2.32212e-07
6.21215e-08
-2.37237e-07
5.8432e-08
-2.41795e-07
5.41526e-08
-2.45803e-07
4.93472e-08
4.40756e-08
-2.49225e-07
-2.13132e-07
7.76638e-08
2.07394e-07
-2.19096e-07
7.68297e-08
-2.24969e-07
7.56477e-08
-2.31048e-07
7.39259e-08
-2.38051e-07
7.13365e-08
-2.44187e-07
6.82577e-08
-2.49805e-07
6.40501e-08
-2.54736e-07
5.91069e-08
-2.5897e-07
5.35772e-08
4.75729e-08
-2.62471e-07
-2.22985e-07
8.38824e-08
2.16767e-07
-2.29501e-07
8.33454e-08
-2.36194e-07
8.24903e-08
-2.42901e-07
8.09992e-08
-2.51061e-07
7.80455e-08
-2.5808e-07
7.52764e-08
-2.64364e-07
7.03346e-08
-2.69575e-07
6.43202e-08
-2.73817e-07
5.78255e-08
5.09568e-08
-2.77198e-07
-2.34912e-07
9.06183e-08
2.28176e-07
-2.4195e-07
9.03838e-08
-2.49334e-07
8.98776e-08
-2.56019e-07
8.88521e-08
-2.59229e-07
8.30235e-08
-2.66946e-07
7.23374e-08
-2.81118e-07
7.45972e-08
-2.85972e-07
6.91738e-08
-2.89735e-07
6.15885e-08
5.37988e-08
-2.92567e-07
-2.50194e-07
9.8208e-08
2.42605e-07
-2.58127e-07
9.83179e-08
-2.66362e-07
9.81244e-08
-2.73918e-07
9.64897e-08
-2.42064e-07
7.98964e-08
-2.49319e-07
6.7462e-08
-2.98342e-07
7.81132e-08
-3.02539e-07
7.33706e-08
-3.05547e-07
6.4597e-08
5.58578e-08
-3.07601e-07
-2.69119e-07
1.07032e-07
2.60296e-07
-2.78449e-07
1.07657e-07
-2.87885e-07
1.07624e-07
-2.68924e-07
9.73949e-08
-2.53434e-07
8.11308e-08
-2.58239e-07
7.6346e-08
-3.18777e-07
7.91357e-08
-3.2112e-07
7.57138e-08
-3.22634e-07
6.61106e-08
5.66286e-08
-3.23404e-07
-2.89829e-07
1.16609e-07
2.80257e-07
-2.99494e-07
1.17397e-07
-2.94013e-07
1.14229e-07
-2.52611e-07
8.99354e-08
-2.35829e-07
7.99301e-08
-2.44406e-07
8.40239e-08
-3.38594e-07
8.20317e-08
-3.40759e-07
7.78779e-08
-3.41587e-07
6.6939e-08
5.65989e-08
-3.41557e-07
-3.13873e-07
1.27158e-07
3.03355e-07
-3.23843e-07
1.27744e-07
-2.80717e-07
1.17779e-07
-2.75813e-07
1.00613e-07
-2.66284e-07
8.44446e-08
-3.45263e-07
9.15463e-08
-3.63698e-07
9.34041e-08
-3.65611e-07
7.97911e-08
-3.66324e-07
6.76514e-08
5.67823e-08
-3.66507e-07
-3.41091e-07
1.38929e-07
3.29339e-07
-3.52381e-07
1.39327e-07
-3.50802e-07
1.37963e-07
-3.28929e-07
1.20328e-07
-3.16033e-07
8.36625e-08
-3.94525e-07
9.62795e-08
-3.99147e-07
9.80708e-08
-4.00065e-07
8.07095e-08
-3.98478e-07
6.60646e-08
5.52846e-08
-3.97174e-07
-3.69289e-07
1.52066e-07
3.56155e-07
-3.80961e-07
1.51033e-07
-3.89261e-07
1.46537e-07
-3.68985e-07
1.29705e-07
-2.34544e-07
8.82049e-08
-2.5611e-07
6.03718e-08
-4.20261e-07
8.44684e-08
-4.06459e-07
6.83321e-08
-2.28497e-07
3.19179e-08
2.60369e-08
-2.17192e-07
-3.95933e-07
1.65422e-07
3.82606e-07
-3.94095e-07
1.49468e-07
-2.9349e-07
1.15754e-07
-1.97635e-07
7.15434e-08
-1.77489e-07
6.06768e-08
-1.83058e-07
5.32001e-08
-1.59086e-07
4.55008e-08
-1.4845e-07
4.10319e-08
-3.51743e-07
4.04964e-08
3.76956e-08
-4.20937e-07
-3.03499e-07
1.17087e-07
3.77241e-07
-2.2603e-07
8.18588e-08
-1.78462e-07
6.66717e-08
-1.78181e-07
6.81335e-08
-1.81781e-07
6.00006e-08
-2.02247e-07
6.66641e-08
-3.75997e-07
9.20331e-08
-4.08106e-07
7.40767e-08
-4.22709e-07
5.13951e-08
2.87399e-08
-4.22122e-07
-1.6985e-07
7.30027e-08
2.12212e-07
-1.67335e-07
7.79418e-08
-1.73053e-07
7.13429e-08
-1.8928e-07
8.28467e-08
-3.42012e-07
1.23161e-07
-4.11311e-07
1.14934e-07
-4.22422e-07
9.33281e-08
-4.18403e-07
7.00577e-08
-4.13532e-07
4.65239e-08
2.29063e-08
-4.07698e-07
-1.57431e-07
7.79918e-08
1.50757e-07
-1.77063e-07
9.58526e-08
-2.98636e-07
1.5704e-07
-3.81429e-07
1.52099e-07
-4.02806e-07
1.3305e-07
-4.00033e-07
1.1215e-07
-3.96886e-07
9.01774e-08
-3.94283e-07
6.74557e-08
-3.91772e-07
4.40131e-08
1.98352e-08
-3.88701e-07
-2.66125e-07
1.68844e-07
1.51573e-07
-3.5704e-07
1.80844e-07
-3.71257e-07
1.66531e-07
-3.68005e-07
1.48838e-07
-3.64903e-07
1.2994e-07
-3.62941e-07
1.10188e-07
-3.62242e-07
8.94788e-08
-3.62443e-07
6.76566e-08
-3.62968e-07
4.45389e-08
1.99899e-08
-3.63123e-07
-3.30442e-07
1.92212e-07
2.98802e-07
-3.27296e-07
1.77689e-07
-3.22507e-07
1.61736e-07
-3.18866e-07
1.45197e-07
-3.16938e-07
1.28011e-07
-3.16778e-07
1.10028e-07
-3.18272e-07
9.09723e-08
-3.21085e-07
7.04705e-08
-3.24619e-07
4.80728e-08
2.34283e-08
-3.28057e-07
-2.77544e-07
1.86642e-07
2.83097e-07
-2.71739e-07
1.71882e-07
-2.66953e-07
1.5695e-07
-2.6357e-07
1.41813e-07
-2.61893e-07
1.26335e-07
-2.62148e-07
1.10283e-07
-2.64455e-07
9.32791e-08
-2.68763e-07
7.47738e-08
-2.74507e-07
5.38133e-08
2.94522e-08
-2.8051e-07
-2.24062e-07
1.80141e-07
2.30556e-07
-2.17939e-07
1.65758e-07
-2.12414e-07
1.51424e-07
-2.07773e-07
1.37172e-07
-2.044e-07
1.22961e-07
-2.02728e-07
1.0861e-07
-2.03245e-07
9.37958e-08
-2.06309e-07
7.7838e-08
-2.12197e-07
5.9701e-08
3.45728e-08
-2.17316e-07
-1.819e-07
1.73821e-07
1.88215e-07
-1.75431e-07
1.59288e-07
-1.68931e-07
1.44924e-07
-1.62675e-07
1.30915e-07
-1.57191e-07
1.17477e-07
-1.52953e-07
1.04372e-07
-1.48644e-07
8.94871e-08
-1.35004e-07
6.50059e-08
-1.01132e-07
2.21055e-08
8.18374e-09
-8.4036e-08
-1.58978e-07
1.68856e-07
1.63939e-07
-1.53693e-07
1.54001e-07
-1.48262e-07
1.39493e-07
-1.42992e-07
1.25644e-07
-1.38077e-07
1.12561e-07
-1.27692e-07
9.39857e-08
-8.54923e-08
4.90797e-08
-3.94234e-08
1.75137e-08
-2.55827e-08
8.73737e-09
4.03411e-09
-2.04361e-08
-1.58235e-07
1.6709e-07
1.59999e-07
-1.56547e-07
1.52313e-07
-1.54966e-07
1.3791e-07
-1.51713e-07
1.2239e-07
-1.3458e-07
9.5422e-08
-6.60168e-08
3.94768e-08
-3.13704e-08
1.53313e-08
-2.2536e-08
9.19502e-09
-2.0425e-08
7.3111e-09
4.77873e-09
-1.93714e-08
-1.75959e-07
1.70568e-07
1.72479e-07
-1.7836e-07
1.54712e-07
-1.6388e-07
1.23429e-07
-1.12038e-07
5.39985e-08
-4.98527e-08
3.11767e-08
-3.19484e-08
2.25147e-08
-2.72207e-08
1.16178e-08
-2.46375e-08
7.60772e-09
-2.11745e-08
5.44843e-09
-3.84587e-10
-1.62842e-08
-1.86678e-07
1.6213e-07
1.95112e-07
-1.43407e-07
8.68351e-08
-7.72862e-08
5.20616e-08
-5.60256e-08
3.46602e-08
-4.45185e-08
2.1647e-08
-4.5246e-08
2.50026e-08
-5.61322e-08
2.40619e-08
-6.18901e-08
1.2534e-08
-5.44929e-08
-5.55055e-09
-2.19475e-08
-3.98039e-08
-1.01346e-07
5.96565e-08
1.55959e-07
-7.49379e-08
5.45849e-08
-7.01409e-08
4.19802e-08
-1.01892e-07
6.15749e-08
-1.60403e-07
8.53868e-08
-1.88436e-07
6.3391e-08
-1.93142e-07
3.40955e-08
-1.80814e-07
3.34089e-09
-1.63058e-07
-2.79801e-08
-5.91052e-08
-1.40985e-07
-3.81574e-08
5.02831e-08
4.32188e-08
-5.52843e-08
7.65051e-08
-1.2979e-07
1.27852e-07
-1.8182e-07
1.13229e-07
-1.82176e-07
8.57249e-08
-1.75225e-07
5.64725e-08
-1.65764e-07
2.46824e-08
-1.52793e-07
-9.626e-09
-1.35816e-07
-4.49525e-08
-7.93186e-08
-1.15599e-07
-4.41539e-08
6.51584e-08
3.27369e-08
-1.04095e-07
1.5642e-07
-1.12896e-07
1.38659e-07
-1.12336e-07
1.12634e-07
-1.12417e-07
8.57763e-08
-1.12362e-07
5.63824e-08
-1.09941e-07
2.22274e-08
-1.01626e-07
-1.79382e-08
-8.60896e-08
-6.04846e-08
-1.00145e-07
-6.5241e-08
-2.44514e-08
9.73665e-08
1.41086e-08
-2.46149e-08
1.5848e-07
-2.3136e-08
1.37162e-07
-2.53384e-08
1.1481e-07
-3.08844e-08
9.12904e-08
-3.91494e-08
6.46168e-08
-4.64091e-08
2.74085e-08
-4.53383e-08
-1.62986e-08
-3.09626e-08
-7.03229e-08
-1.22877e-07
-8.04345e-09
4.66943e-08
1.33804e-07
-9.6011e-09
5.53567e-08
1.52841e-07
5.65667e-08
1.35937e-07
5.35618e-08
1.17782e-07
4.59247e-08
9.88949e-08
2.46106e-08
6.49436e-08
2.27881e-09
1.6531e-08
2.45567e-09
-2.4686e-09
2.91314e-08
-5.81581e-08
-1.48625e-07
5.60844e-08
9.0574e-08
1.60401e-07
-6.96195e-08
9.59821e-08
1.47776e-07
9.64074e-08
1.35494e-07
9.12117e-08
1.22951e-07
7.88409e-08
1.09701e-07
1.05444e-08
2.94905e-08
4.82444e-10
3.98225e-09
9.62841e-09
-1.79498e-09
8.43069e-08
-7.23974e-08
-1.7727e-07
1.18248e-07
9.77903e-08
1.52148e-07
-8.899e-08
1.01096e-07
1.4487e-07
9.77209e-08
1.38802e-07
8.64544e-08
1.342e-07
1.98747e-08
6.03019e-08
5.04157e-10
5.0247e-09
2.2496e-09
1.91071e-09
1.26479e-08
-1.32444e-08
1.39167e-07
-1.22121e-07
-2.03326e-07
1.70424e-07
9.33372e-08
1.46502e-07
-8.76788e-08
9.34033e-08
1.44667e-07
8.69828e-08
1.45162e-07
3.52833e-08
9.39392e-08
1.24338e-09
7.07366e-09
4.35733e-10
5.33099e-09
3.16567e-09
-1.23295e-09
8.0124e-08
-3.42848e-08
1.89132e-07
-1.86219e-07
-2.24754e-07
2.10669e-07
7.70426e-08
1.45474e-07
-7.61727e-08
7.28965e-08
1.48677e-07
4.06006e-08
1.23386e-07
4.01786e-10
1.28443e-08
6.23686e-11
6.52669e-09
2.70538e-09
1.99411e-09
1.78925e-08
-1.69215e-08
1.88611e-07
-1.22057e-07
2.31015e-07
-2.13155e-07
-2.40408e-07
2.46723e-07
5.2488e-08
1.47372e-07
-5.45474e-08
3.64063e-08
1.40481e-07
1.55279e-09
2.82472e-08
-9.01708e-13
6.1922e-09
1.85569e-09
4.05074e-09
6.84296e-09
-3.87955e-09
1.19247e-07
-6.15768e-08
2.48502e-07
-1.93208e-07
2.62811e-07
-2.27273e-07
-2.52924e-07
2.75346e-07
2.25331e-08
1.43963e-07
-2.784e-08
2.76596e-09
4.59395e-08
-3.78636e-10
6.22103e-09
7.27398e-10
4.78721e-09
4.72459e-09
-1.26812e-10
6.93592e-08
-2.97995e-08
2.62144e-07
-1.66245e-07
2.78601e-07
-2.09389e-07
2.88032e-07
-2.36669e-07
-2.63423e-07
2.98533e-07
-2.91493e-10
5.91416e-08
-2.58088e-09
-9.87748e-10
6.37617e-09
3.66022e-10
4.77798e-09
4.20191e-09
7.34001e-10
3.9668e-08
-3.58279e-08
2.63372e-07
-1.3835e-07
2.90491e-07
-1.87324e-07
2.97608e-07
-2.16473e-07
3.06023e-07
-2.45078e-07
-2.73773e-07
3.16373e-07
3.11549e-10
8.32163e-09
2.32598e-10
1.36435e-09
5.23251e-09
4.73234e-09
1.31992e-09
3.46952e-08
-2.93182e-08
2.54684e-07
-1.13138e-07
2.95003e-07
-1.61749e-07
3.01102e-07
-1.93337e-07
3.08853e-07
-2.24218e-07
3.18847e-07
-2.55071e-07
-2.85804e-07
3.30878e-07
2.2325e-09
8.19505e-09
-2.25783e-09
5.94631e-09
1.53021e-09
2.91742e-08
-2.20123e-08
2.56899e-07
-8.7131e-08
2.88136e-07
-1.34785e-07
2.95809e-07
-1.69435e-07
3.0543e-07
-2.02951e-07
3.17171e-07
-2.35958e-07
3.30688e-07
-2.68588e-07
-3.00844e-07
3.45728e-07
3.2869e-08
2.44878e-08
-3.32269e-08
9.28682e-08
-3.34648e-09
2.36285e-07
-4.27499e-08
2.646e-07
-1.12247e-07
2.80097e-07
-1.50224e-07
2.95971e-07
-1.85306e-07
3.12394e-07
-2.19374e-07
3.29355e-07
-2.52918e-07
3.46899e-07
-2.86132e-07
-3.19096e-07
3.6515e-07
9.3203e-08
1.49098e-08
-1.57081e-07
1.36845e-07
-1.08577e-08
2.50495e-07
-7.48599e-08
2.73855e-07
-1.34703e-07
2.94471e-07
-1.70788e-07
3.14212e-07
-2.05043e-07
3.33515e-07
-2.38676e-07
3.52702e-07
-2.72105e-07
3.72114e-07
-3.05544e-07
-3.39053e-07
3.92071e-07
7.49764e-08
-4.45316e-10
-2.236e-07
1.88006e-07
-3.00346e-08
2.89714e-07
-1.07661e-07
3.10258e-07
-1.54834e-07
3.29177e-07
-1.89666e-07
3.47532e-07
-2.23393e-07
3.65864e-07
-2.57007e-07
3.8457e-07
-2.90812e-07
4.03974e-07
-3.24947e-07
-3.59414e-07
4.24335e-07
1.67764e-07
-7.75439e-09
-1.33659e-07
2.81186e-07
-5.29945e-08
3.34839e-07
-1.31651e-07
3.50793e-07
-1.70517e-07
3.66502e-07
-2.05345e-07
3.82715e-07
-2.39603e-07
3.99739e-07
-2.7403e-07
4.17824e-07
-3.08896e-07
4.37189e-07
-3.44312e-07
-3.80237e-07
4.58011e-07
1.25827e-07
-2.00537e-08
-8.52967e-08
3.48675e-07
-8.98533e-08
3.6768e-07
-1.49171e-07
3.82697e-07
-1.85392e-07
3.97687e-07
-2.20319e-07
4.1348e-07
-2.55394e-07
4.30454e-07
-2.91004e-07
4.48877e-07
-3.2732e-07
4.68959e-07
-3.64395e-07
-4.02117e-07
4.9084e-07
2.44002e-07
-4.03206e-08
-9.44175e-08
3.67012e-07
-1.28865e-07
3.86265e-07
-1.67692e-07
4.03146e-07
-2.02189e-07
4.19946e-07
-2.3711e-07
4.37444e-07
-2.7289e-07
4.56111e-07
-3.09672e-07
4.76312e-07
-3.4752e-07
4.98304e-07
-3.86388e-07
-4.26041e-07
5.22228e-07
3.5188e-07
-8.73773e-08
-9.32444e-08
3.84022e-07
-1.50879e-07
4.02346e-07
-1.85799e-07
4.20322e-07
-2.2014e-07
4.38784e-07
-2.55568e-07
4.58209e-07
-2.92315e-07
4.79013e-07
-3.30476e-07
5.01556e-07
-3.70062e-07
5.26113e-07
-4.10945e-07
-4.5271e-07
5.52783e-07
3.79248e-07
-1.25282e-07
-2.35176e-07
3.98731e-07
-1.69383e-07
4.1694e-07
-2.03889e-07
4.35755e-07
-2.3894e-07
4.55645e-07
-2.75455e-07
4.76952e-07
-3.13622e-07
4.99998e-07
-3.53522e-07
5.25054e-07
-3.95117e-07
5.52255e-07
-4.38147e-07
-4.81605e-07
5.81145e-07
3.91783e-07
-1.46444e-07
-3.12597e-07
4.09939e-07
-1.8697e-07
4.28565e-07
-2.22444e-07
4.48509e-07
-2.58874e-07
4.70108e-07
-2.97053e-07
4.93657e-07
-3.3717e-07
5.19419e-07
-3.79283e-07
5.47596e-07
-4.23298e-07
5.78045e-07
-4.68577e-07
-5.10657e-07
6.07056e-07
3.93903e-07
-1.63139e-07
-3.30278e-07
4.1373e-07
-2.0629e-07
4.34329e-07
-2.42975e-07
4.56499e-07
-2.81033e-07
4.8067e-07
-3.21221e-07
5.07141e-07
-3.63639e-07
5.36083e-07
-4.08224e-07
5.67316e-07
-4.54529e-07
5.98187e-07
-4.99569e-07
-5.08627e-07
5.96212e-07
3.88604e-07
-1.83654e-07
-3.089e-07
4.1104e-07
-2.28135e-07
4.34385e-07
-2.66239e-07
4.59636e-07
-3.06266e-07
4.87211e-07
-3.48785e-07
5.17282e-07
-3.93706e-07
5.49633e-07
-4.40573e-07
5.81863e-07
-4.86742e-07
5.89203e-07
-5.06961e-07
-4.34371e-07
4.74971e-07
3.82248e-07
-2.05236e-07
-3.07089e-07
4.05752e-07
-2.5097e-07
4.31328e-07
-2.91693e-07
4.59739e-07
-3.34641e-07
4.9107e-07
-3.80099e-07
5.25064e-07
-4.27694e-07
5.59455e-07
-4.74931e-07
5.70261e-07
-4.97441e-07
4.70466e-07
-4.33707e-07
-4.42569e-07
4.71252e-07
3.73068e-07
-2.19129e-07
-3.17119e-07
3.97336e-07
-2.73307e-07
4.25065e-07
-3.18469e-07
4.56761e-07
-3.66203e-07
4.91576e-07
-4.14881e-07
5.27296e-07
-4.63385e-07
5.42284e-07
-4.89679e-07
4.64264e-07
-4.31627e-07
4.6731e-07
-4.46041e-07
-4.99376e-07
5.15767e-07
3.49083e-07
-1.55406e-07
-2.65814e-07
3.79499e-07
-2.44493e-07
4.12289e-07
-3.45644e-07
4.48481e-07
-4.01963e-07
4.85546e-07
-4.51849e-07
5.0517e-07
-4.82773e-07
4.49913e-07
-4.23018e-07
4.49947e-07
-4.42921e-07
5.00163e-07
-5.0653e-07
-6.01955e-07
5.93454e-07
2.40663e-07
-1.32356e-07
-1.19267e-07
3.48197e-07
-2.24326e-07
3.93824e-07
-3.7463e-07
4.32962e-07
-4.40025e-07
4.57116e-07
-4.75472e-07
4.19098e-07
-4.07562e-07
4.17601e-07
-4.33862e-07
4.70851e-07
-5.08722e-07
5.72445e-07
-6.19384e-07
-8.2936e-07
7.70274e-07
1.86323e-07
-1.39682e-07
-1.23365e-07
3.24137e-07
-3.0265e-07
3.74821e-07
-4.08014e-07
3.9629e-07
-4.58698e-07
3.71933e-07
-3.84878e-07
3.7182e-07
-4.22787e-07
4.30715e-07
-5.06598e-07
5.44353e-07
-6.34701e-07
7.37941e-07
-8.49488e-07
-9.58254e-07
8.57203e-07
2.46865e-07
-2.53184e-07
-1.46344e-07
2.97874e-07
-3.65286e-07
3.26678e-07
-4.19649e-07
3.25741e-07
-3.70367e-07
3.22677e-07
-4.12597e-07
3.82235e-07
-5.05406e-07
5.14227e-07
-6.53928e-07
6.8822e-07
-8.64929e-07
8.02359e-07
-9.64434e-07
-1.01836e-06
8.62337e-07
2.21072e-07
-3.29801e-07
-1.59218e-07
2.62622e-07
-3.81292e-07
2.69898e-07
-3.54523e-07
2.69699e-07
-3.99326e-07
3.31775e-07
-5.06053e-07
4.7411e-07
-6.78523e-07
6.29941e-07
-8.78779e-07
7.34096e-07
-9.69762e-07
7.96591e-07
-1.02703e-06
-1.07043e-06
8.48651e-07
1.8932e-07
-3.46719e-07
-1.58143e-07
2.01159e-07
-3.46573e-07
2.07975e-07
-3.89259e-07
2.77601e-07
-5.04048e-07
4.28427e-07
-7.10732e-07
5.62561e-07
-8.8854e-07
6.55882e-07
-9.72514e-07
7.19816e-07
-1.03378e-06
7.75219e-07
-1.08244e-06
-1.11791e-06
8.22693e-07
1.23355e-07
-3.42775e-07
-1.18408e-07
1.37036e-07
-3.16823e-07
2.2944e-07
-4.62748e-07
3.72556e-07
-7.37459e-07
4.89114e-07
-8.89359e-07
5.70743e-07
-9.70374e-07
6.3521e-07
-1.03697e-06
6.93039e-07
-1.09161e-06
7.43499e-07
-1.1329e-06
-1.15901e-06
7.84601e-07
9.15095e-08
-2.13809e-07
-6.21156e-08
1.42349e-07
-4.23443e-07
2.98251e-07
-7.28633e-07
4.11574e-07
-8.76657e-07
4.8324e-07
-9.61146e-07
5.47101e-07
-1.03423e-06
6.05934e-07
-1.09581e-06
6.58046e-07
-1.14372e-06
7.01287e-07
-1.17614e-06
-1.19181e-06
7.34083e-07
7.68374e-08
-2.12059e-07
-5.21255e-08
2.31047e-07
-6.54815e-07
3.30035e-07
-8.50519e-07
3.95997e-07
-9.42745e-07
4.57798e-07
-1.02295e-06
5.16067e-07
-1.0925e-06
5.68545e-07
-1.14829e-06
6.12865e-07
-1.18804e-06
6.4743e-07
-1.2107e-06
-1.21601e-06
6.71627e-07
1.19555e-07
-3.13157e-07
-1.95838e-08
2.40861e-07
-8.07085e-07
3.06972e-07
-9.16699e-07
3.67248e-07
-1.00302e-06
4.24228e-07
-1.07993e-06
4.76279e-07
-1.14455e-06
5.20892e-07
-1.1929e-06
5.5629e-07
-1.22344e-06
5.81878e-07
-1.23629e-06
-1.23225e-06
5.9812e-07
1.43696e-07
-5.02061e-07
-2.39653e-09
2.15715e-07
-8.7973e-07
2.754e-07
-9.76389e-07
3.30889e-07
-1.05851e-06
3.82265e-07
-1.1313e-06
4.27322e-07
-1.18961e-06
4.63773e-07
-1.22935e-06
4.90737e-07
-1.2504e-06
5.08597e-07
-1.25415e-06
-1.2419e-06
5.18247e-07
1.08141e-07
-5.83356e-07
-6.02547e-10
1.77138e-07
-9.48698e-07
2.35804e-07
-1.03504e-06
2.87894e-07
-1.1106e-06
3.33945e-07
-1.17735e-06
3.71992e-07
-1.22765e-06
4.00731e-07
-1.25809e-06
4.20728e-07
-1.2704e-06
4.33372e-07
-1.26679e-06
-1.24817e-06
4.39642e-07
9.86659e-08
-6.49825e-07
-2.0395e-09
1.56441e-07
-1.00647e-06
2.05049e-07
-1.08364e-06
2.48434e-07
-1.15398e-06
2.86103e-07
-1.21502e-06
3.15451e-07
-1.257e-06
3.36117e-07
-1.27875e-06
3.49741e-07
-1.28402e-06
3.57866e-07
-1.27492e-06
-1.24833e-06
3.58014e-07
9.60077e-08
-7.19505e-07
-1.61769e-08
1.35351e-07
-1.04584e-06
1.72681e-07
-1.12097e-06
2.07765e-07
-1.18906e-06
2.37442e-07
-1.2447e-06
2.58853e-07
-1.27841e-06
2.73104e-07
-1.293e-06
2.82809e-07
-1.29372e-06
2.89414e-07
-1.28152e-06
-1.24061e-06
2.817e-07
6.4328e-08
-7.62626e-07
-9.20475e-09
1.00704e-07
-1.08223e-06
1.34912e-07
-1.15518e-06
1.65352e-07
-1.2195e-06
1.88459e-07
-1.2678e-06
2.0299e-07
-1.29294e-06
2.11978e-07
-1.30199e-06
2.18975e-07
-1.30072e-06
2.26287e-07
-1.28884e-06
-1.21981e-06
2.05488e-07
3.74399e-08
-7.86648e-07
-2.38922e-09
7.09896e-08
-1.11577e-06
1.01538e-07
-1.18573e-06
1.26619e-07
-1.24458e-06
1.42944e-07
-1.28413e-06
1.51102e-07
-1.3011e-06
1.54856e-07
-1.30575e-06
1.57399e-07
-1.30326e-06
1.60948e-07
-1.29239e-06
-1.14867e-06
1.14927e-07
1.46171e-08
-7.95707e-07
5.23525e-09
4.63326e-08
-1.14748e-06
7.31182e-08
-1.21251e-06
9.29701e-08
-1.26444e-06
1.03647e-07
-1.29481e-06
1.07611e-07
-1.30506e-06
1.08592e-07
-1.30673e-06
1.09427e-07
-1.3041e-06
1.13175e-07
-1.29613e-06
-1.0694e-06
6.15789e-08
2.894e-10
-7.92852e-07
9.87947e-09
2.89652e-08
-1.17612e-06
5.09568e-08
-1.23449e-06
6.53153e-08
-1.2788e-06
7.10171e-08
-1.30051e-06
7.173e-08
-1.30578e-06
7.02202e-08
-1.30522e-06
6.84835e-08
-1.30236e-06
6.9186e-08
-1.29684e-06
-1.0117e-06
3.11129e-08
-7.87501e-09
-7.91505e-07
1.12397e-08
1.66785e-08
-1.20068e-06
3.39704e-08
-1.25179e-06
4.36422e-08
-1.28847e-06
4.54943e-08
-1.30236e-06
4.38531e-08
-1.30414e-06
4.02298e-08
-1.30159e-06
3.56311e-08
-1.29776e-06
3.16624e-08
-1.29287e-06
-9.75848e-07
1.15244e-08
-1.10341e-08
-7.98369e-07
1.29668e-08
1.07261e-08
-1.22208e-06
2.39891e-08
-1.26505e-06
2.96763e-08
-1.29415e-06
2.82605e-08
-1.30094e-06
2.45686e-08
-1.30044e-06
1.90795e-08
-1.2961e-06
1.18198e-08
-1.2905e-06
3.58499e-09
-1.28456e-06
-9.59901e-07
-5.96957e-11
3.94249e-09
-8.13248e-07
8.4113e-09
1.88366e-08
-1.23688e-06
2.5234e-08
-1.27145e-06
2.56298e-08
-1.29455e-06
2.01101e-08
-1.29542e-06
1.37422e-08
-1.29408e-06
6.40174e-09
-1.28876e-06
-3.18769e-09
-1.28091e-06
-1.43348e-08
-1.27341e-06
-9.64727e-07
1.48318e-19
4.24561e-08
-8.39198e-07
-1.56685e-10
3.86213e-08
-1.23345e-06
3.52275e-08
-1.26806e-06
2.86133e-08
-1.28794e-06
1.80044e-08
-1.28481e-06
8.43315e-09
-1.2845e-06
-1.40781e-10
-1.28019e-06
-1.09433e-08
-1.27011e-06
-2.44802e-08
-1.25982e-06
-9.85342e-07
4.03798e-21
5.77412e-08
-9.07667e-07
-7.62569e-10
4.48245e-08
-1.22052e-06
3.87434e-08
-1.26198e-06
2.8791e-08
-1.27798e-06
1.58959e-08
-1.27192e-06
4.5619e-09
-1.27317e-06
-3.5497e-09
-1.27208e-06
-1.35938e-08
-1.26007e-06
-2.82839e-08
-1.24513e-06
-1.01014e-06
3.58951e-23
4.39504e-08
-9.52353e-07
-1.81962e-10
3.4983e-08
-1.21155e-06
3.46332e-08
-1.26163e-06
2.51477e-08
-1.2685e-06
1.29901e-08
-1.25976e-06
1.1956e-09
-1.26138e-06
-5.78618e-09
-1.2651e-06
-1.21702e-08
-1.25368e-06
-2.64962e-08
-1.2308e-06
-1.03522e-06
7.43359e-38
2.77309e-08
-9.80854e-07
-7.71218e-16
2.86398e-08
-1.21246e-06
3.34936e-08
-1.26648e-06
2.25676e-08
-1.25757e-06
1.0578e-08
-1.24777e-06
-1.80256e-09
-1.24899e-06
-9.46411e-09
-1.25743e-06
-8.3772e-09
-1.25477e-06
-1.67829e-08
-1.22238e-06
-1.05123e-06
2.40778e-45
4.89135e-09
-9.85839e-07
-1.86767e-15
2.89303e-08
-1.2365e-06
3.45963e-08
-1.27214e-06
2.05495e-08
-1.24352e-06
8.49285e-09
-1.23571e-06
-3.93768e-09
-1.23656e-06
-1.66084e-08
-1.24476e-06
-9.324e-09
-1.26206e-06
4.52899e-09
-1.23623e-06
-1.04648e-06