/*--------------------------------*- C++ -*----------------------------------*\
  =========                 |
  \\      /  F ield         | OpenFOAM: The Open Source CFD Toolbox
   \\    /   O peration     | Website:  https://openfoam.org
    \\  /    A nd           | Version:  8
     \\/     M anipulation  |
\*---------------------------------------------------------------------------*/
FoamFile
{
    version     2.0;
    format      ascii;
    class       volScalarField;
    location    "2.95";
    object      epsilon;
}
// * * * * * * * * * * * * * * * * * * * * * * * * * * * * * * * * * * * * * //

dimensions      [0 2 -3 0 0 0 0];

internalField   nonuniform List<scalar> 
9150
(
0.0313141
0.012424
0.00309119
0.000937914
0.00044805
0.000448062
0.000937697
0.00308993
0.0124213
0.0313148
0.030228
0.00872641
0.00172645
0.000602585
0.000337425
0.000337474
0.00060257
0.00172579
0.00872427
0.0302283
0.0284289
0.00692407
0.00111359
0.00049388
0.000301733
0.000301797
0.000493954
0.00111331
0.00692232
0.028429
0.0264959
0.00598263
0.000834594
0.000461242
0.000290731
0.000290801
0.000461348
0.000834519
0.00598116
0.0264959
0.0244929
0.00557615
0.000696074
0.000454045
0.000288922
0.000288994
0.000454162
0.000696101
0.0055748
0.0244928
0.12375
0.0526
0.022343
0.0136363
0.00979065
0.00980493
0.0136757
0.0224275
0.0527935
0.123818
0.0761645
0.0230004
0.0130218
0.0086549
0.0060736
0.00607968
0.00867131
0.0130525
0.0230228
0.0761624
0.0554026
0.0178734
0.00757688
0.00451205
0.00297567
0.00297762
0.00451734
0.00758468
0.0178746
0.055399
0.0425302
0.0152145
0.00477189
0.00227771
0.00134796
0.00134844
0.00227879
0.00477265
0.0152106
0.0425286
0.0356177
0.0137068
0.00350558
0.00129327
0.000680587
0.000680681
0.00129325
0.00350458
0.0137028
0.0356172
1.35883
0.172221
0.0483446
0.0209541
0.01248
0.0123214
0.020469
0.0480613
0.173931
1.60145
0.277627
0.119977
0.0456083
0.0206319
0.0125226
0.0124333
0.0203793
0.0448497
0.115303
0.280629
0.23472
0.104015
0.0444627
0.0203526
0.0125814
0.0125493
0.0202724
0.0442421
0.102358
0.235726
0.196941
0.0913795
0.0435961
0.0200562
0.0126544
0.0126576
0.0200613
0.04358
0.0912557
0.197332
0.156453
0.086271
0.0400357
0.0188611
0.0123104
0.0123288
0.0189061
0.0401334
0.0866082
0.156599
0.0387215
0.0387715
0.0388288
0.0388956
0.038974
0.0390659
0.0391728
0.0392963
0.0394385
0.0396031
0.0193464
0.0192818
0.0192153
0.0191478
0.0190805
0.0190143
0.0189503
0.0188895
0.0188334
0.0187839
0.015925
0.0158561
0.0157847
0.015712
0.0156389
0.0155666
0.0154963
0.0154291
0.0153664
0.0153095
0.0148624
0.0148016
0.0147384
0.0146739
0.0146091
0.014545
0.0144825
0.0144228
0.0143669
0.0143157
0.0145513
0.0145018
0.0144501
0.0143972
0.0143439
0.0142913
0.0142401
0.0141912
0.0141454
0.0141034
0.0145863
0.0145495
0.0145109
0.0144711
0.0144311
0.0143916
0.0143534
0.0143171
0.0142834
0.0142529
0.0148199
0.0147969
0.0147724
0.014747
0.0147214
0.0146964
0.0146725
0.0146504
0.0146305
0.0146132
0.0151872
0.015179
0.0151697
0.0151597
0.0151499
0.0151407
0.0151327
0.0151263
0.0151219
0.0151199
0.0156573
0.0156651
0.0156721
0.015679
0.0156863
0.0156946
0.0157041
0.0157154
0.0157287
0.0157442
0.0162159
0.0162412
0.0162662
0.0162917
0.016318
0.0163457
0.0163751
0.0164065
0.0164402
0.0164762
0.0168589
0.0169034
0.0169484
0.0169947
0.0170425
0.0170924
0.0171445
0.0171993
0.0172569
0.0173172
0.0175886
0.0176548
0.0177226
0.0177926
0.0178652
0.0179407
0.0180196
0.018102
0.0181881
0.0182779
0.0184136
0.0185047
0.0185989
0.0186965
0.0187981
0.0189041
0.0190148
0.0191304
0.0192512
0.019377
0.0193478
0.0194683
0.0195935
0.019724
0.0198604
0.0200031
0.0201525
0.0203088
0.0204723
0.0206431
0.0204119
0.0205675
0.0207303
0.0209009
0.0210798
0.0212677
0.0214649
0.0216718
0.0218889
0.0221162
0.0216345
0.0218333
0.0220425
0.0222628
0.0224949
0.0227393
0.0229968
0.0232679
0.0235531
0.0238527
0.0230547
0.0233075
0.0235753
0.0238589
0.0241587
0.0244756
0.0248105
0.0251645
0.0255381
0.0259318
0.0247258
0.0250474
0.0253906
0.0257563
0.0261446
0.0265565
0.0269935
0.0274567
0.0279472
0.0284655
0.0267203
0.0271321
0.0275744
0.0280487
0.0285553
0.0290947
0.0296687
0.030279
0.0309268
0.0316133
0.029138
0.029671
0.0302468
0.0308679
0.031535
0.0322484
0.0330099
0.0338215
0.0346851
0.0356023
0.0321166
0.0328154
0.0335746
0.0343976
0.0352861
0.0362405
0.0372625
0.0383544
0.0395185
0.0407575
0.0358449
0.0367739
0.037789
0.0388948
0.0400938
0.0413866
0.0427747
0.0442607
0.0458478
0.04754
0.0405851
0.041837
0.043213
0.044719
0.0463577
0.0481297
0.0500357
0.0520785
0.0542627
0.0565945
0.0466994
0.048407
0.050295
0.0523711
0.0546364
0.0570891
0.0597269
0.0625522
0.0655727
0.0687991
0.0546889
0.0570398
0.0596533
0.0625411
0.065701
0.0691197
0.0727847
0.0766961
0.0808684
0.0853228
0.0652387
0.0684923
0.0721266
0.0761618
0.0805927
0.0853771
0.0904644
0.0958492
0.101568
0.107665
0.0792691
0.0837789
0.0888274
0.0944501
0.100649
0.107342
0.114361
0.12169
0.129426
0.137655
0.0979368
0.104183
0.111166
0.118927
0.127488
0.136754
0.146383
0.156251
0.166575
0.177486
0.12247
0.131065
0.140665
0.151319
0.16301
0.175596
0.188599
0.201702
0.215257
0.229447
0.153908
0.165512
0.178506
0.192969
0.208833
0.225807
0.242979
0.259933
0.277251
0.295232
0.192925
0.208185
0.22536
0.244635
0.265826
0.288052
0.309946
0.331123
0.352378
0.37426
0.239198
0.25847
0.280181
0.304788
0.332055
0.35997
0.386475
0.411301
0.435895
0.461525
0.291038
0.314235
0.340031
0.369016
0.401528
0.435087
0.464597
0.491695
0.519981
0.550524
0.345337
0.371743
0.400256
0.431219
0.46472
0.500388
0.534806
0.566074
0.597016
0.62927
0.396637
0.42464
0.45381
0.485898
0.521656
0.558666
0.593914
0.628127
0.66332
0.699536
0.438659
0.466316
0.497619
0.532357
0.568936
0.606355
0.644604
0.683578
0.723394
0.763933
0.470261
0.500443
0.533575
0.569192
0.607174
0.647183
0.688968
0.732237
0.77674
0.822159
0.496892
0.528271
0.562505
0.599631
0.639593
0.682263
0.727463
0.774932
0.824287
0.875009
0.519341
0.55197
0.587604
0.626362
0.668337
0.713582
0.762056
0.813569
0.867722
0.923891
0.540552
0.57479
0.612076
0.652604
0.69659
0.744241
0.795696
0.850939
0.90969
0.971312
0.564306
0.60075
0.640207
0.682889
0.729078
0.779112
0.833332
0.892008
0.955156
1.02225
0.595157
0.634902
0.677584
0.723383
0.772582
0.825554
0.882718
0.944512
1.01131
1.08311
0.637279
0.682072
0.72977
0.780473
0.834433
0.892075
0.953648
1.01916
1.08844
1.16151
0.692158
0.744072
0.798936
0.856824
0.918415
0.984546
1.05434
1.12463
1.19452
1.26608
0.756767
0.817138
0.881011
0.948983
1.02178
1.09896
1.17625
1.25036
1.32522
1.40211
0.821514
0.889211
0.961221
1.03668
1.11285
1.19228
1.2737
1.35477
1.43931
1.52566
0.873214
0.940419
1.01167
1.08596
1.16114
1.23996
1.32249
1.40635
1.49082
1.57412
0.901357
0.971342
1.04333
1.11909
1.19948
1.28406
1.37118
1.45794
1.54135
1.61907
0.929494
1.00254
1.08098
1.16661
1.25896
1.3561
1.45447
1.54855
1.63194
1.70043
0.970917
1.05271
1.14592
1.25117
1.36725
1.49047
1.61302
1.72142
1.80176
1.84829
1.03735
1.13816
1.25753
1.39681
1.55532
1.72852
1.90286
2.03803
2.09369
2.07959
1.13903
1.27301
1.43545
1.63019
1.85893
2.11942
2.39681
2.57064
2.51393
2.37133
1.2837
1.46541
1.68975
1.96442
2.29462
2.67807
3.07369
3.25343
2.9275
2.63186
1.47095
1.7137
2.01688
2.39317
2.85305
3.37373
3.8436
3.58639
3.12343
2.75001
1.6944
2.00698
2.39865
2.88552
3.47071
4.17789
4.32824
3.67897
3.13766
2.72696
1.93086
2.31133
2.78675
3.3715
4.07511
4.61925
4.06385
3.42272
2.92477
2.55198
2.13544
2.56706
3.10295
3.74616
4.50533
4.23312
3.52721
2.98906
2.58695
2.29163
2.26179
2.72599
3.29091
4.0318
3.9739
3.35833
2.86713
2.49368
2.21541
2.01401
2.25535
2.70217
3.24278
3.31352
2.91174
2.55611
2.27077
2.05013
1.88617
1.77189
2.07155
2.41073
2.50054
2.32992
2.13889
1.96755
1.82535
1.71506
1.63731
1.59154
1.68656
1.80067
1.79144
1.73228
1.65864
1.58811
1.53013
1.49031
1.47173
1.47622
1.35415
1.41514
1.42413
1.4048
1.38039
1.36059
1.35103
1.35582
1.37792
1.41972
1.1812
1.22715
1.23628
1.2327
1.23216
1.23993
1.25933
1.29331
1.34447
1.41522
1.11463
1.14888
1.15313
1.15617
1.16809
1.19205
1.23041
1.28553
1.35976
1.45536
1.11025
1.12245
1.12182
1.12986
1.15139
1.18841
1.24297
1.31727
1.41353
1.53389
1.10569
1.10521
1.10824
1.12562
1.15943
1.21156
1.28431
1.38004
1.50098
1.64901
1.0862
1.08851
1.10271
1.13383
1.18383
1.25513
1.35046
1.47242
1.62308
1.80384
1.07331
1.08419
1.11139
1.15844
1.22793
1.3228
1.44604
1.60014
1.78653
2.00545
1.07915
1.0985
1.13945
1.20509
1.29843
1.42261
1.58046
1.77377
2.00254
2.26515
1.09443
1.12648
1.18666
1.2777
1.40269
1.56462
1.7656
2.00601
2.28371
2.59445
1.10745
1.16421
1.25545
1.3836
1.55172
1.76227
2.016
2.31105
2.64205
2.99474
1.13103
1.22632
1.36205
1.5404
1.76404
2.03441
2.35009
2.70574
3.08605
3.45007
1.19582
1.34212
1.53436
1.77388
2.06304
2.40175
2.78504
3.19672
3.59067
3.89724
1.32895
1.53806
1.79716
2.10664
2.46887
2.88066
3.32438
3.74765
4.07071
4.26117
1.54654
1.82873
2.16127
2.55054
2.99496
3.47415
3.92687
4.25946
4.43875
4.52626
1.85743
2.22452
2.6455
3.12961
3.65285
4.13729
4.47042
4.61833
4.66512
4.73783
2.28971
2.76524
3.30491
3.883
4.40217
4.72479
4.81554
4.79092
4.80957
4.98559
2.89291
3.52801
4.19677
4.77058
5.0737
5.07193
4.93158
4.85217
4.96669
5.3428
3.75245
4.5828
5.27555
5.57478
5.44626
5.13658
4.89912
4.88918
5.19687
5.87248
4.98366
5.93926
6.3074
6.03065
5.49189
5.02173
4.8011
4.94963
5.55222
6.64871
6.6906
7.38532
6.98482
6.14326
5.34983
4.81125
4.67705
5.07626
6.09566
7.75543
8.83858
8.58392
7.33884
6.09337
5.10334
4.5354
4.5588
5.31567
6.88944
9.27224
11.233
9.501
7.55843
5.93022
4.7551
4.20788
4.47355
5.70293
7.97541
11.2577
13.4726
10.2806
7.61782
5.61698
4.30191
3.8445
4.43908
6.24725
9.3577
13.7355
14.9968
10.6333
7.43209
5.15648
3.77007
3.46876
4.45614
6.9182
10.9889
16.6846
16.1133
10.7893
7.14117
4.63622
3.21358
3.10213
4.49909
7.63782
12.7606
20.0226
17.221
10.9424
6.83067
4.09783
2.65886
2.7448
4.51438
8.28544
14.4977
23.5703
17.8599
10.9219
6.44785
3.53538
2.11737
2.38552
4.43307
8.71166
15.9609
27.0197
18.3592
10.8765
6.04957
2.98621
1.61719
2.01853
4.19312
8.75951
16.8471
29.9641
19.1665
10.9113
5.66222
2.47589
1.18102
1.6457
3.76517
8.30369
16.7677
31.3991
20.3843
10.9825
5.26484
2.01467
0.822294
1.28041
3.17826
7.34399
15.5423
30.8264
21.5189
10.919
4.80871
1.60221
0.544553
0.943759
2.50884
6.00265
13.1315
27.0914
22.1873
10.5376
4.25885
1.23744
0.342859
0.656194
1.85667
4.5466
10.0988
21.14
21.9463
9.72497
3.60534
0.91828
0.205324
0.428673
1.29788
3.23505
7.19644
14.9261
20.3859
8.44295
2.84464
0.63721
0.116051
0.260806
0.861441
2.19012
4.84698
9.96226
16.8768
6.47086
1.97645
0.391919
0.0609644
0.145048
0.540866
1.41445
3.11085
6.30546
11.6098
4.16531
1.17365
0.210571
0.0315109
0.0718868
0.314812
0.872884
1.91175
3.77142
6.32175
2.3036
0.619218
0.104134
0.0187631
0.0322684
0.162903
0.50996
1.13375
2.11864
3.07629
1.17073
0.291371
0.0491935
0.0140828
0.0162246
0.0704286
0.272339
0.66769
1.13687
1.17903
0.520951
0.115404
0.0262687
0.0127011
0.0125488
0.0282943
0.119506
0.409656
0.764013
0.0397986
0.0400629
0.0404156
0.0408254
0.0412254
0.0416057
0.0419624
0.0422911
0.0425862
0.0428407
0.0430467
0.0431953
0.0432766
0.0432797
0.0431922
0.0430007
0.0426903
0.0422447
0.0416466
0.0408775
0.039919
0.0387532
0.0373645
0.0357417
0.0338811
0.0317893
0.0294877
0.0270149
0.0244258
0.0217879
0.0192596
0.0167899
0.0143709
0.0120321
0.00988076
0.00798872
0.00624839
0.00462514
0.00088608
0.00218741
0.0187428
0.0187166
0.0187181
0.0187448
0.0187805
0.0188191
0.0188575
0.0188933
0.0189247
0.0189493
0.0189646
0.0189677
0.0189553
0.0189236
0.018868
0.0187837
0.0186649
0.0185052
0.0182975
0.0180341
0.017707
0.0173079
0.0168295
0.0162655
0.0156122
0.0148698
0.0140437
0.0131454
0.0121928
0.0112091
0.0102186
0.00923268
0.00826095
0.00731574
0.00641519
0.00557105
0.00477716
0.0040727
0.00357234
0.00434903
0.0152583
0.0152149
0.0151851
0.0151666
0.0151562
0.0151516
0.015151
0.015153
0.0151561
0.0151588
0.0151593
0.0151556
0.0151452
0.0151255
0.0150933
0.0150448
0.0149758
0.0148816
0.0147569
0.0145956
0.0143913
0.0141373
0.0138268
0.0134534
0.0130121
0.0124999
0.011917
0.0112691
0.0105685
0.00983531
0.00909434
0.00836672
0.00766339
0.00698682
0.0063406
0.00573408
0.00518964
0.00477781
0.00474602
0.00629306
0.0142682
0.0142258
0.0141925
0.0141672
0.014149
0.0141365
0.0141287
0.0141244
0.0141225
0.0141216
0.0141203
0.0141167
0.0141091
0.014095
0.014072
0.0140373
0.0139875
0.0139192
0.0138282
0.01371
0.0135596
0.0133714
0.0131396
0.0128576
0.012519
0.0121174
0.0116478
0.011108
0.010503
0.00985119
0.00918771
0.00854958
0.00795477
0.00739697
0.00687428
0.00640077
0.00600755
0.00577338
0.00596226
0.00787383
0.0140643
0.014029
0.0140005
0.0139786
0.0139627
0.0139518
0.0139451
0.0139415
0.0139399
0.0139391
0.0139378
0.0139343
0.013927
0.0139141
0.0138935
0.0138631
0.0138206
0.0137635
0.0136892
0.0135946
0.0134766
0.0133313
0.0131545
0.012941
0.0126846
0.0123775
0.0120101
0.0115716
0.0110531
0.0104599
0.00983333
0.00923804
0.00870965
0.00822107
0.00776602
0.00737544
0.00708687
0.0069577
0.00719947
0.00884704
0.0142247
0.0141999
0.0141804
0.0141664
0.0141572
0.0141522
0.0141503
0.0141506
0.0141519
0.0141529
0.0141524
0.0141489
0.0141409
0.0141268
0.014105
0.014074
0.0140323
0.0139784
0.0139109
0.0138283
0.0137292
0.013612
0.0134748
0.013315
0.0131289
0.0129114
0.0126548
0.0123475
0.0119728
0.011514
0.0109788
0.0104383
0.00995516
0.00946929
0.00900322
0.00863517
0.00842564
0.00843679
0.00901129
0.0088034
0.0145983
0.0145865
0.0145789
0.0145758
0.0145766
0.0145805
0.0145864
0.0145933
0.0145999
0.0146049
0.014607
0.0146047
0.0145966
0.0145813
0.0145577
0.0145244
0.0144806
0.0144256
0.014359
0.0142804
0.0141901
0.0140882
0.013975
0.0138507
0.0137153
0.0135684
0.0134097
0.0132403
0.0130644
0.0128843
0.0126589
0.0123275
0.0118405
0.0112574
0.0107036
0.0102645
0.00998703
0.00990765
0.0104063
0.00884591
0.0151204
0.0151244
0.0151317
0.0151424
0.0151563
0.0151724
0.0151895
0.0152063
0.0152216
0.015234
0.015242
0.0152441
0.015239
0.0152255
0.0152024
0.015169
0.0151247
0.0150695
0.0150037
0.0149281
0.0148442
0.0147538
0.0146592
0.0145634
0.0144698
0.0143833
0.0143113
0.0142653
0.0142609
0.0143058
0.0143549
0.014296
0.0140238
0.0136008
0.0131139
0.0125455
0.0119894
0.0116157
0.0122175
0.0374187
0.015763
0.0157857
0.0158114
0.0158396
0.0158705
0.0159029
0.0159355
0.0159671
0.0159961
0.016021
0.0160403
0.0160526
0.0160565
0.0160509
0.0160348
0.0160078
0.0159698
0.0159214
0.0158637
0.0157989
0.0157296
0.0156597
0.0155937
0.015537
0.0154962
0.0154788
0.0154945
0.0155556
0.0156756
0.0158607
0.0160794
0.0162242
0.0161871
0.0159466
0.0155298
0.0150124
0.0144301
0.0139139
0.0141098
0.0375109
0.0165165
0.0165621
0.0166103
0.0166608
0.0167138
0.0167681
0.0168223
0.016875
0.0169246
0.0169695
0.0170082
0.0170391
0.0170609
0.0170728
0.0170739
0.0170642
0.0170441
0.0170149
0.0169788
0.0169391
0.0169005
0.016869
0.016852
0.0168579
0.0168962
0.0169761
0.0171068
0.0172959
0.0175479
0.0178558
0.018185
0.0184576
0.0185987
0.0185964
0.0184559
0.0181256
0.0175143
0.0169031
0.0169765
0.0374198
0.0173836
0.0174573
0.0175339
0.0176132
0.0176946
0.0177779
0.0178616
0.0179441
0.0180235
0.0180982
0.0181667
0.0182274
0.0182792
0.0183212
0.0183529
0.0183747
0.0183874
0.0183931
0.018395
0.0183979
0.0184083
0.0184346
0.0184875
0.0185795
0.0187238
0.0189316
0.0192094
0.0195566
0.0199654
0.0204171
0.0208773
0.0212959
0.0216258
0.021839
0.0218985
0.0217277
0.0213185
0.0209506
0.0213575
0.0373797
0.0183761
0.0184845
0.018597
0.0187129
0.0188317
0.0189536
0.019077
0.0192001
0.019321
0.019438
0.0195494
0.0196538
0.0197499
0.0198371
0.0199151
0.0199845
0.0200468
0.0201045
0.0201619
0.0202249
0.0203015
0.0204026
0.0205422
0.0207377
0.0210083
0.0213688
0.0218203
0.0223474
0.0229259
0.0235291
0.0241258
0.0246791
0.0251557
0.0255289
0.025768
0.0258274
0.025752
0.0258269
0.0271371
0.0391029
0.0195148
0.0196668
0.0198247
0.0199877
0.0201552
0.0203278
0.0205037
0.0206811
0.0208579
0.0210322
0.0212022
0.0213662
0.0215231
0.0216721
0.0218133
0.0219474
0.0220764
0.0222034
0.0223334
0.0224734
0.022633
0.0228253
0.0230669
0.0233803
0.023793
0.0243261
0.0249683
0.025674
0.0263985
0.0271122
0.0277916
0.028415
0.0289654
0.0294302
0.0297976
0.0300688
0.0303177
0.0309002
0.0333506
0.0497835
0.0208303
0.0210376
0.0212534
0.0214772
0.0217084
0.0219463
0.022191
0.0224397
0.0226902
0.0229399
0.0231867
0.0234286
0.0236643
0.0238929
0.0241143
0.0243296
0.0245411
0.0247528
0.0249706
0.025203
0.0254622
0.0257644
0.0261303
0.0265852
0.0271603
0.0278808
0.0287065
0.0295438
0.0303448
0.0310935
0.0317796
0.0323959
0.0329394
0.033413
0.0338311
0.0342541
0.0348546
0.0361222
0.0401302
0.0629637
0.0223662
0.0226439
0.0229341
0.0232363
0.0235496
0.0238733
0.0242078
0.0245498
0.0248961
0.0252435
0.0255891
0.0259302
0.0262647
0.0265914
0.02691
0.0272219
0.0275299
0.0278389
0.0281565
0.0284936
0.0288663
0.0292981
0.0298189
0.0304593
0.0312405
0.0321512
0.0330932
0.0339616
0.0347416
0.0354445
0.0360721
0.0366286
0.0371226
0.0375728
0.038021
0.0385665
0.0394551
0.0413825
0.0472168
0.0782286
0.0241834
0.024552
0.0249388
0.0253431
0.025764
0.0262003
0.0266527
0.0271168
0.0275883
0.0280626
0.0285352
0.0290019
0.0294595
0.0299059
0.0303405
0.030765
0.0311836
0.0316032
0.0320343
0.0324913
0.032995
0.0335763
0.0342735
0.035114
0.0360927
0.0371404
0.0381229
0.0389433
0.0396239
0.0402146
0.0407345
0.0411967
0.041619
0.0420334
0.0425028
0.0431613
0.0443263
0.0469109
0.0546407
0.0951465
0.0263677
0.0268554
0.0273693
0.0279087
0.0284723
0.0290584
0.0296675
0.0302942
0.030932
0.0315738
0.0322125
0.0328414
0.0334548
0.034049
0.0346228
0.0351783
0.0357218
0.0362641
0.0368208
0.0374117
0.0380622
0.0388063
0.0396797
0.0406842
0.0417726
0.0428423
0.0437554
0.0444555
0.0450044
0.045463
0.0458598
0.0462167
0.0465611
0.0469384
0.0474344
0.048222
0.0496968
0.0529806
0.0626404
0.11367
0.0290411
0.0296874
0.030371
0.0310916
0.0318478
0.032637
0.0334584
0.0343061
0.0351701
0.036039
0.0369012
0.0377455
0.0385625
0.0393451
0.0400901
0.0407994
0.041481
0.042151
0.0428322
0.0435528
0.0443439
0.0452385
0.0462539
0.0473461
0.0484175
0.0493543
0.0500757
0.0506052
0.0510076
0.0513296
0.0516019
0.0518525
0.0521184
0.0524617
0.0529964
0.0539432
0.055785
0.0598546
0.0715652
0.133838
0.0323776
0.0332387
0.0341526
0.03512
0.0361394
0.0372078
0.0383234
0.0394782
0.0406566
0.0418404
0.0430108
0.0441499
0.0452418
0.0462745
0.0472404
0.0481387
0.0489773
0.0497753
0.0505634
0.0513784
0.0522526
0.0532084
0.0542363
0.0552565
0.0561447
0.0568283
0.0573143
0.0576512
0.0578861
0.0580566
0.0581935
0.0583294
0.0585102
0.0588158
0.059397
0.0605394
0.0628344
0.0678462
0.0818828
0.156247
0.036626
0.0377829
0.0390149
0.0403233
0.0417075
0.0431646
0.0446923
0.0462781
0.0478975
0.0495212
0.0511192
0.0526634
0.0541298
0.0554991
0.0567577
0.0578995
0.0589285
0.0598632
0.0607386
0.0615928
0.0624474
0.0633052
0.0641265
0.0648239
0.0653321
0.0656625
0.0658553
0.0659492
0.0659763
0.065964
0.0659411
0.0659431
0.066022
0.0662742
0.0668981
0.0682712
0.0711324
0.0773197
0.0941608
0.182137
0.0421428
0.043713
0.0453897
0.0471752
0.0490695
0.0510705
0.0531759
0.055365
0.0575991
0.0598301
0.0620092
0.0640948
0.0660532
0.0678574
0.0694876
0.070932
0.0721896
0.0732768
0.0742231
0.0750475
0.0757434
0.076299
0.0766672
0.0768001
0.0767396
0.076564
0.0763282
0.0760648
0.0757888
0.0755142
0.0752663
0.0750842
0.0750226
0.0751903
0.0758408
0.0774697
0.0810104
0.0886374
0.108955
0.213363
0.0494351
0.0515877
0.0538915
0.0563492
0.0589608
0.0617232
0.0646334
0.0676568
0.0707319
0.0737768
0.0767147
0.0794879
0.082054
0.0843806
0.0864441
0.088231
0.0897402
0.0909817
0.0919537
0.0926316
0.0929779
0.0929828
0.0926438
0.0919921
0.0911563
0.0902687
0.0894157
0.0886285
0.0879005
0.0872299
0.0866406
0.0861798
0.0859078
0.0859552
0.0866295
0.0885307
0.0928123
0.102079
0.126635
0.252105
0.0592088
0.0621837
0.0653727
0.0687787
0.0723989
0.0762246
0.0802481
0.0844038
0.0885914
0.0926769
0.0965513
0.100144
0.103407
0.106306
0.108814
0.11092
0.112621
0.11392
0.114793
0.11517
0.114974
0.114198
0.112918
0.111266
0.109415
0.10755
0.105828
0.104287
0.102894
0.101632
0.100529
0.0996401
0.0990457
0.0989241
0.0996353
0.101838
0.106847
0.117869
0.147458
0.300178
0.072418
0.0765408
0.0809636
0.085689
0.0907118
0.096012
0.101555
0.107201
0.112786
0.118124
0.123076
0.12757
0.13156
0.135005
0.137879
0.140168
0.141867
0.142968
0.14345
0.143248
0.142308
0.140638
0.13833
0.135535
0.132436
0.129282
0.126353
0.123738
0.121372
0.119245
0.117393
0.115882
0.114821
0.11443
0.11511
0.11759
0.123348
0.136286
0.17181
0.3585
0.0903187
0.0960151
0.102128
0.108658
0.115594
0.122885
0.130381
0.137865
0.145097
0.151841
0.157931
0.163307
0.167939
0.171785
0.174822
0.177038
0.178427
0.178984
0.178695
0.177547
0.175577
0.172845
0.169423
0.165426
0.161005
0.156352
0.151842
0.147734
0.143989
0.140648
0.137758
0.135391
0.133678
0.132855
0.133359
0.135997
0.142486
0.157506
0.199764
0.427214
0.114501
0.122299
0.130667
0.139594
0.149031
0.158857
0.168737
0.178329
0.187308
0.195422
0.202544
0.208632
0.21366
0.21761
0.220475
0.222255
0.222959
0.222599
0.221198
0.2188
0.21549
0.211369
0.206544
0.20115
0.195354
0.189261
0.183006
0.17695
0.171376
0.166425
0.162158
0.158649
0.156031
0.15456
0.154708
0.157399
0.164654
0.182025
0.23164
0.506046
0.146863
0.157353
0.168587
0.180516
0.193016
0.205859
0.218424
0.230187
0.240798
0.250066
0.257911
0.264329
0.269347
0.272993
0.275283
0.276238
0.275885
0.27427
0.271456
0.267527
0.262596
0.25679
0.250247
0.243118
0.235568
0.227712
0.219619
0.211577
0.20395
0.197033
0.191028
0.186041
0.182232
0.179879
0.179506
0.182172
0.190232
0.21016
0.267945
0.594748
0.189625
0.203382
0.218037
0.2335
0.249524
0.265621
0.28081
0.294464
0.306291
0.316207
0.324246
0.330495
0.335051
0.337978
0.339314
0.339094
0.337369
0.334214
0.329724
0.324014
0.317213
0.309457
0.300892
0.291666
0.281941
0.271889
0.261673
0.251545
0.241777
0.232709
0.224652
0.217852
0.212549
0.209068
0.208003
0.210583
0.219581
0.242629
0.310224
0.692404
0.245084
0.262613
0.281076
0.300363
0.320125
0.339326
0.35662
0.371326
0.383488
0.393304
0.400957
0.406597
0.410332
0.412216
0.412291
0.410616
0.40727
0.402351
0.395979
0.388286
0.379411
0.369499
0.358695
0.347137
0.334965
0.32237
0.309632
0.29704
0.284884
0.273521
0.263234
0.254337
0.247231
0.242373
0.240443
0.242848
0.252813
0.279208
0.357558
0.80332
0.314877
0.336576
0.358995
0.382031
0.405293
0.426993
0.444892
0.459134
0.470621
0.479763
0.486729
0.491594
0.494365
0.495038
0.493667
0.490348
0.485205
0.478363
0.469953
0.460112
0.448988
0.436734
0.423508
0.409462
0.39474
0.379452
0.363896
0.348519
0.333684
0.319711
0.30693
0.295692
0.28649
0.279972
0.276982
0.279122
0.290099
0.320203
0.410731
0.92707
0.398084
0.424178
0.450897
0.478194
0.504671
0.526194
0.541684
0.554443
0.565167
0.573738
0.580111
0.584232
0.586027
0.585476
0.582639
0.577637
0.57064
0.561808
0.551276
0.539182
0.525678
0.510922
0.495085
0.478349
0.460922
0.442935
0.424607
0.406259
0.388376
0.37146
0.355888
0.342048
0.330509
0.322054
0.317774
0.319523
0.331539
0.365664
0.469591
1.06536
0.490002
0.521659
0.553175
0.582543
0.607022
0.625956
0.641285
0.654534
0.665481
0.673945
0.679886
0.683288
0.684112
0.68236
0.678118
0.67154
0.6628
0.652051
0.639437
0.625103
0.609202
0.591897
0.573362
0.553776
0.533416
0.512494
0.491229
0.469911
0.448922
0.428842
0.410242
0.393564
0.379448
0.368801
0.362982
0.364184
0.377242
0.415701
0.534303
1.21841
0.583679
0.618106
0.649731
0.677338
0.702525
0.724263
0.742384
0.757396
0.76932
0.778172
0.78401
0.786896
0.786895
0.784114
0.77869
0.770772
0.760509
0.748049
0.733535
0.717113
0.698933
0.679154
0.657964
0.635639
0.612362
0.588366
0.563943
0.539457
0.515305
0.492007
0.470198
0.450441
0.4335
0.42043
0.412798
0.413277
0.427318
0.470378
0.604607
1.38052
0.663971
0.700513
0.735361
0.767419
0.796395
0.821563
0.842705
0.860017
0.873573
0.883441
0.889734
0.892602
0.892223
0.888803
0.882543
0.873615
0.862175
0.84836
0.832301
0.814126
0.793964
0.772038
0.748555
0.72368
0.697618
0.670635
0.643058
0.615286
0.587799
0.561158
0.536013
0.513016
0.492999
0.477234
0.467509
0.466972
0.481928
0.529761
0.680661
1.55516
0.738003
0.778509
0.817262
0.853477
0.886419
0.915457
0.940185
0.960442
0.976207
0.987582
0.994773
0.998052
0.997722
0.99409
0.987429
0.977957
0.965841
0.951207
0.93415
0.914757
0.893245
0.86975
0.844387
0.817318
0.788761
0.759006
0.728416
0.697431
0.666574
0.636472
0.607839
0.581401
0.558071
0.539303
0.527243
0.525518
0.541406
0.59427
0.763403
1.75164
0.806776
0.851798
0.89525
0.936207
0.973753
1.00703
1.03542
1.05858
1.07647
1.08927
1.09733
1.10109
1.10099
1.09746
1.09084
1.08138
1.06924
1.05451
1.03721
1.01751
0.995454
0.971082
0.944467
0.915752
0.885153
0.852977
0.819621
0.785579
0.751435
0.717865
0.685628
0.655601
0.628869
0.607019
0.592452
0.589231
0.605812
0.664077
0.852907
1.95957
0.870273
0.920891
0.970062
1.01658
1.0592
1.09681
1.12858
1.15413
1.17352
1.18713
1.19556
1.19948
1.19953
1.19626
1.19009
1.18127
1.16989
1.15597
1.13955
1.12059
1.09898
1.07467
1.04767
1.01807
0.98608
0.952002
0.916267
0.879418
0.842104
0.805076
0.769179
0.735431
0.705111
0.679966
0.662631
0.657768
0.675056
0.739286
0.950191
2.20146
0.929029
0.986195
1.042
1.09489
1.14311
1.18506
1.2197
1.24669
1.26641
1.27966
1.28745
1.29084
1.2907
1.28775
1.28242
1.27493
1.26526
1.25338
1.23908
1.22209
1.20217
1.17911
1.15282
1.12332
1.09076
1.05546
1.01786
0.978563
0.938291
0.897897
0.858365
0.820876
0.786906
0.758432
0.738392
0.731974
0.749771
0.819678
1.05317
2.44798
0.984224
1.04865
1.11207
1.17236
1.22684
1.27302
1.30952
1.3363
1.35443
1.36549
1.37116
1.37296
1.3721
1.36942
1.36535
1.35998
1.3532
1.34464
1.33385
1.3203
1.30352
1.28312
1.25884
1.23059
1.19846
1.16275
1.12393
1.08265
1.03976
0.996228
0.953229
0.912132
0.874624
0.842907
0.820179
0.811953
0.829633
0.903848
1.15567
2.66022
1.03826
1.11064
1.18293
1.25223
1.31394
1.36386
1.4003
1.42408
1.43769
1.44396
1.44548
1.44433
1.44204
1.43952
1.43714
1.43481
1.43207
1.42823
1.42248
1.41398
1.40196
1.38576
1.36493
1.33922
1.30864
1.27342
1.23407
1.19134
1.14617
1.09972
1.05335
1.00864
0.967488
0.932297
0.906514
0.896029
0.913263
0.99158
1.26264
2.90225
1.09611
1.17709
1.25992
1.34054
1.41069
1.46312
1.49623
1.51272
1.51765
1.5157
1.51052
1.50475
1.50015
1.49762
1.49735
1.49887
1.50133
1.50361
1.50448
1.50269
1.4971
1.48673
1.47085
1.44902
1.4211
1.38728
1.34808
1.30433
1.25711
1.20779
1.15796
1.10941
1.0643
1.0253
0.99619
0.983389
1.00052
1.08383
1.37677
3.16824
1.16327
1.25262
1.34753
1.44367
1.52465
1.57639
1.60036
1.60457
1.59645
1.58253
1.56783
1.55557
1.54766
1.54488
1.54697
1.55305
1.56177
1.5715
1.58051
1.58705
1.58954
1.58659
1.57713
1.56047
1.53629
1.50468
1.46616
1.42163
1.37238
1.31998
1.26632
1.21353
1.16407
1.12097
1.08847
1.07364
1.0914
1.18091
1.49753
3.44502
1.24348
1.337
1.43913
1.54844
1.64922
1.70615
1.71507
1.70095
1.67562
1.64638
1.61951
1.599
1.58694
1.58358
1.58823
1.59949
1.61545
1.63388
1.65246
1.66886
1.68096
1.68692
1.68526
1.67496
1.65545
1.6267
1.58916
1.54383
1.49218
1.43611
1.37789
1.32009
1.26564
1.21806
1.18218
1.16591
1.18587
1.28501
1.63363
3.77168
1.34571
1.43775
1.54016
1.65282
1.76428
1.8378
1.84199
1.80403
1.75595
1.70811
1.66704
1.63731
1.62048
1.61645
1.62402
1.64118
1.66539
1.69376
1.72328
1.75098
1.77415
1.79041
1.79781
1.79494
1.78091
1.75546
1.71894
1.67235
1.61742
1.55645
1.49228
1.42812
1.36753
1.31468
1.2751
1.25742
1.27898
1.38639
1.76697
4.12078
1.48399
1.5709
1.6633
1.76725
1.87807
1.96599
1.9747
1.91178
1.83579
1.76675
1.71081
1.67153
1.65012
1.64598
1.65729
1.68142
1.71513
1.75482
1.79674
1.83722
1.87289
1.90079
1.91847
1.92404
1.91622
1.89438
1.85861
1.80984
1.74997
1.68192
1.60937
1.53649
1.46773
1.40801
1.36292
1.34138
1.36274
1.47725
1.88722
4.44093
1.61392
1.70335
1.78955
1.87756
1.97468
2.06596
2.08819
2.01334
1.90934
1.81863
1.74878
1.70145
1.677
1.67425
1.69083
1.72351
1.76837
1.82107
1.87709
1.93203
1.9818
2.02283
2.0521
2.06723
2.06642
2.04853
2.01308
1.96061
1.89311
1.81431
1.72933
1.64388
1.56365
1.4936
1.44004
1.41317
1.43334
1.55363
1.98944
4.71966
1.66103
1.75413
1.84916
1.94023
2.02449
2.10905
2.15221
2.08684
1.96424
1.85732
1.7781
1.72647
1.70195
1.70305
1.72711
1.77044
1.82856
1.89641
1.96868
2.04018
2.10609
2.16217
2.2048
2.23105
2.23854
2.22534
2.18995
2.13166
2.05215
1.9565
1.85254
1.74865
1.65146
1.56712
1.50293
1.46928
1.48694
1.61087
2.06712
4.93682
1.69556
1.77273
1.85045
1.9335
2.02067
2.10291
2.16218
2.11676
1.99246
1.88004
1.79837
1.74733
1.72636
1.73421
1.76829
1.82474
1.89861
1.98419
2.0754
2.16626
2.25115
2.32514
2.38397
2.42411
2.4425
2.43617
2.40149
2.33442
2.23533
2.11249
1.97926
1.84798
1.72741
1.62522
1.54846
1.50692
1.52084
1.64567
2.11206
5.03554
1.75906
1.81167
1.86301
1.9208
1.99138
2.0724
2.14424
2.11559
1.99991
1.89116
1.813
1.76666
1.75237
1.7696
1.81616
1.88821
1.98048
2.08668
2.20003
2.31376
2.42156
2.51779
2.59762
2.6569
2.69185
2.69799
2.66757
2.58909
2.45743
2.28955
2.11109
1.94003
1.78914
1.66544
1.57433
1.52391
1.53303
1.65642
2.12445
5.05086
1.8727
1.88651
1.9021
1.92904
1.97549
2.04763
2.12335
2.10408
1.99919
1.89853
1.82705
1.78777
1.78223
1.81082
1.87192
1.96182
2.07499
2.20464
2.34337
2.48381
2.61906
2.74301
2.8504
2.93666
2.99737
3.02669
3.01371
2.93197
2.74725
2.50044
2.25148
2.02791
1.83995
1.69132
1.58413
1.52378
1.52701
1.64656
2.10789
4.98257
2.0379
1.99339
1.96365
1.95677
1.97879
2.03533
2.10672
2.09521
2.0009
1.90899
1.84481
1.81341
1.8177
1.85902
1.93626
2.04583
2.18196
2.33741
2.50425
2.67463
2.84136
2.99812
3.13967
3.26161
3.35992
3.43011
3.45893
3.37811
3.10196
2.73431
2.39866
2.11579
1.887
1.71091
1.58581
1.51403
1.50977
1.62286
2.07102
4.85783
2.22947
2.11157
2.03091
1.98947
1.98853
2.03006
2.09745
2.09594
2.01052
1.92588
1.86863
1.84533
1.86012
1.91515
2.00979
2.14047
2.30116
2.48417
2.68112
2.88385
3.08508
3.2788
3.46048
3.62737
3.7791
3.91131
3.98805
3.83389
3.41699
2.9467
2.53395
2.19678
1.92993
1.72723
1.58395
1.49981
1.48662
1.5911
2.02257
4.71423
2.38691
2.2007
2.07632
2.00741
1.98988
2.02187
2.08916
2.10127
2.02629
1.94917
1.89922
1.88458
1.91061
1.98032
2.09349
2.24656
2.43321
2.64532
2.8742
3.11159
3.35043
3.58548
3.81378
4.0352
4.25346
4.45737
4.52321
4.22873
3.67676
3.1192