/*--------------------------------*- C++ -*----------------------------------*\
  =========                 |
  \\      /  F ield         | OpenFOAM: The Open Source CFD Toolbox
   \\    /   O peration     | Website:  https://openfoam.org
    \\  /    A nd           | Version:  8
     \\/     M anipulation  |
\*---------------------------------------------------------------------------*/
FoamFile
{
    version     2.0;
    format      ascii;
    class       volScalarField;
    location    "2.95";
    object      p;
}
// * * * * * * * * * * * * * * * * * * * * * * * * * * * * * * * * * * * * * //

dimensions      [1 -1 -2 0 0 0 0];

internalField   nonuniform List<scalar> 
9150
(
386.203
359.147
333.724
316.52
308.216
308.209
316.501
333.697
359.118
386.178
357.365
337.731
322.147
310.328
304.358
304.354
310.314
322.127
337.708
357.341
328.077
314.421
305.967
298.179
294.089
294.085
298.168
305.952
314.402
328.056
303.396
293.246
287.881
282.48
279.525
279.522
282.472
287.867
293.229
303.376
282.143
273.023
268.575
264.373
261.928
261.926
264.364
268.562
273.007
282.124
18.9934
15.7299
40.6237
54.5689
61.1981
61.1124
54.3165
40.2475
15.2053
18.2402
189.18
165.329
159.931
158.614
158.736
158.689
158.478
159.725
165.058
188.904
293.262
262.387
246.623
236.697
232.058
232.031
236.622
246.511
262.253
293.14
373.81
332.116
304.567
287.177
278.675
278.659
287.133
304.504
332.047
373.755
426.06
372.521
333.912
311.831
301.68
301.669
311.803
333.873
372.482
426.033
-63.9511
-24.1738
-36.3054
-28.2992
-32.8094
-34.1223
-28.6966
-38.2524
-28.797
-71.3439
-55.9245
-37.8546
-56.4531
-48.525
-53.5028
-54.5666
-48.4273
-59.9395
-40.4666
-61.3576
-96.0713
-66.7487
-100.193
-90.8166
-88.8539
-89.3354
-90.8484
-102.605
-68.8573
-99.7
-274.962
-150.9
-137.965
-118.104
-101.879
-102.043
-118.682
-139.739
-151.935
-278.148
-429.376
-183.949
-89.8637
-59.6929
-43.6014
-43.7261
-60.1525
-90.6432
-184.738
-431.71
1832.74
1833.15
1833.57
1834
1834.44
1834.89
1835.34
1835.81
1836.28
1836.77
1813.26
1813.66
1814.06
1814.48
1814.9
1815.33
1815.77
1816.21
1816.66
1817.12
1793.74
1794.13
1794.52
1794.93
1795.34
1795.76
1796.18
1796.61
1797.05
1797.49
1774.13
1774.51
1774.9
1775.3
1775.7
1776.11
1776.53
1776.95
1777.37
1777.81
1754.45
1754.83
1755.22
1755.61
1756.01
1756.42
1756.83
1757.24
1757.67
1758.09
1734.69
1735.07
1735.46
1735.86
1736.26
1736.67
1737.08
1737.5
1737.92
1738.35
1714.87
1715.26
1715.66
1716.06
1716.46
1716.88
1717.29
1717.72
1718.15
1718.58
1694.99
1695.39
1695.79
1696.2
1696.62
1697.04
1697.47
1697.9
1698.34
1698.78
1675.05
1675.46
1675.87
1676.3
1676.72
1677.16
1677.6
1678.04
1678.49
1678.95
1655.06
1655.47
1655.9
1656.34
1656.78
1657.23
1657.68
1658.14
1658.61
1659.08
1634.99
1635.43
1635.87
1636.32
1636.78
1637.25
1637.72
1638.2
1638.68
1639.17
1614.87
1615.32
1615.78
1616.25
1616.73
1617.21
1617.71
1618.21
1618.71
1619.23
1594.67
1595.14
1595.62
1596.11
1596.61
1597.12
1597.64
1598.16
1598.7
1599.23
1574.4
1574.89
1575.39
1575.91
1576.43
1576.96
1577.51
1578.06
1578.62
1579.19
1554.06
1554.57
1555.09
1555.63
1556.18
1556.74
1557.31
1557.89
1558.49
1559.08
1533.62
1534.15
1534.69
1535.26
1535.84
1536.43
1537.04
1537.66
1538.28
1538.92
1513.08
1513.64
1514.23
1514.79
1515.41
1516.04
1516.68
1517.34
1518
1518.68
1492.46
1493.04
1493.69
1494.57
1494.87
1495.55
1496.23
1496.93
1497.64
1498.35
1471.74
1472.37
1473.03
1473.94
1474.24
1474.95
1475.68
1476.42
1477.18
1477.94
1450.87
1451.53
1452.22
1453.05
1453.51
1454.25
1455.02
1455.81
1456.62
1457.43
1429.84
1430.53
1431.29
1432.05
1432.62
1433.4
1434.22
1435.06
1435.92
1436.8
1408.64
1409.37
1410.16
1410.93
1411.58
1412.39
1413.25
1414.15
1415.08
1416.03
1387.24
1387.98
1388.83
1389.65
1390.3
1391.15
1392.08
1393.05
1394.05
1395.08
1365.59
1366.32
1367.14
1368.22
1368.74
1369.66
1370.66
1371.71
1372.8
1373.91
1343.68
1344.38
1345.12
1345.97
1346.82
1347.82
1348.9
1350.04
1351.23
1352.45
1321.53
1322.17
1322.85
1323.59
1324.42
1325.52
1326.71
1327.99
1329.3
1330.63
1299.11
1299.65
1300.19
1300.66
1301.63
1303.01
1304.38
1305.43
1306.87
1308.3
1276.6
1277.11
1277.63
1278.4
1280.35
1292.79
1281.39
1282.67
1284.11
1285.56
1254
1254.56
1255.34
1256.97
1261.83
1266.8
1257.82
1259.33
1260.86
1262.29
1230.52
1230.79
1231.51
1234.26
1239.91
1239.77
1237.94
1237.73
1238.39
1239.03
1207.43
1208.13
1209.85
1213.72
1217.17
1211.98
1214.02
1214.23
1214.58
1214.54
1183.88
1184.69
1186.01
1186.46
1191.86
1184.94
1190.11
1192.09
1192.65
1195.05
1158.84
1159.08
1159.56
1160.19
1163.18
1178.41
1165.29
1182.8
1174.59
1185.59
1132.86
1133.79
1135.38
1139.96
1147.62
1150.88
1153.42
1154.88
1148.62
1151.36
1105.57
1111
1117.54
1121.52
1124.45
1124.85
1119.31
1118.42
1116.92
1117.62
1088.78
1092.28
1095.11
1096.41
1093.73
1093.92
1090.8
1089.29
1089.5
1090.53
1066.63
1067.99
1065.58
1066.57
1064.32
1062.02
1060.88
1060.43
1060.63
1061.48
1040.08
1041.57
1040.05
1037.11
1034.61
1032.73
1031.38
1030.53
1030.31
1030.82
1018
1014.77
1011.48
1008.49
1005.75
1003.3
1001.24
999.688
998.831
998.834
992.09
988.226
984.549
980.982
977.51
974.197
971.136
968.474
966.559
965.798
967.318
963.116
958.895
954.588
950.139
945.492
940.571
935.408
930.609
928.325
943.726
939.317
934.735
929.81
924.291
918.043
911.231
904.702
901.456
903.968
921.268
917.082
912.62
907.676
902.111
896.805
893.504
894.357
897.329
897.664
899.097
895.419
891.618
888.58
887.812
887.078
891.637
893.576
893.219
892.185
875.689
872.983
874.012
877.157
884.886
892.905
893.205
891.6
889.118
887.067
857.206
859.611
871.503
882.135
887.307
885.661
883.197
882.351
881.387
878.616
836.154
846.047
854.574
855.827
852.41
858.353
860.167
862.36
864.831
865.978
817.607
817.82
817.102
819.027
819.869
821.421
823.544
826.861
831.121
835.823
796.041
797.582
797.192
793.911
791.987
791.771
793.373
797.556
803.247
808.675
780.453
780.035
774.474
768.407
763.081
758.613
757.945
766.842
779.512
786.739
765.875
759.845
751.277
741.828
731.879
722.996
729.125
760.744
765.008
771.34
744.193
736.49
728.069
718.804
710.835
710.474
734.128
756.628
744.707
754.358
719.614
714.105
707.771
702.12
703.22
711.636
721.953
726.325
729.134
736.709
699.963
695.149
690.252
689.176
694.203
700.09
706.454
701.731
706.849
713.036
683
678.585
675.681
677.58
681.525
685.09
687.24
687.994
691.33
693.454
667.023
663.76
662.615
664.611
667.614
670.825
670.873
670.635
672.125
672.654
653.318
651.309
651.729
654.025
656.2
656.306
654.557
652.743
652.376
652.224
640.974
640.005
641.742
643.993
645.258
641.144
634.409
632.334
632.089
631.87
630.263
631.378
632.409
633.146
627.746
617.28
612.956
612.438
612.191
611.855
623.064
621.339
619.781
611.961
599.256
593.413
592.666
592.424
592.017
591.741
599.399
594.543
577.172
572.762
569.851
570.484
571.054
571.136
571.088
571.12
551.822
565.683
540.932
547.028
550.199
550.886
550.979
551.005
551.007
551.004
534.562
545.189
527.887
531.55
533.166
533.216
532.967
532.709
532.437
532.173
545.722
530.121
527.103
523.987
521.42
519.378
517.791
516.53
515.475
514.583
530.552
512.819
512.225
509.782
507.137
504.845
502.824
501.011
499.359
497.86
504.645
501.976
499.68
496.682
493.659
490.95
488.478
486.175
484.012
481.997
490.563
488.776
486.503
483.438
480.368
477.474
474.69
471.974
469.323
466.742
477.8
476.275
473.686
470.615
467.523
464.483
461.457
458.426
455.411
452.354
467.539
465.7
462.331
458.881
455.542
452.209
448.799
445.274
441.599
437.611
456.125
454.914
451.266
447.607
444.111
440.545
436.809
432.887
428.801
424.363
442.879
442.876
439.736
436.258
432.75
428.96
424.749
420.131
415.502
411.433
430.112
430.666
428.208
425.074
421.535
417.386
412.541
407.355
402.656
398.802
415.836
418.898
417.58
414.614
410.815
406.181
401.067
396.314
392.098
387.904
401.452
407.772
408.119
404.914
400.297
395.31
390.909
386.696
382.238
376.269
390.119
393.688
395.149
394.27
389.332
385.203
381.71
377.038
370.486
361.667
389.841
379.394
381.616
384.166
376.843
375.132
371.44
364.762
355.336
342.666
373.871
367.897
371.643
366.734
367.382
364.91
358.53
348.529
335.209
319.555
353.667
356.268
356.604
359.023
357.236
351.006
340.862
327.367
311.45
294.343
342.694
345.791
349.224
348.514
341.299
331.55
318.567
303.212
286.142
267.141
329.739
335.161
337.368
328.174
319.912
308.212
294.389
278.232
259.515
238.665
307.577
322.449
313.997
306.966
296.987
285.023
270.284
252.562
232.287
210.113
320.763
305.736
298.979
287.765
276.151
262.451
245.881
226.556
205.022
181.994
299.165
290.98
279.328
266.9
253.728
238.48
220.562
200.176
177.974
154.583
270.266
266.382
255.633
242.302
228.191
212.275
193.842
173.213
151.179
128.231
232.791
234.439
224.908
212.439
199.361
184.302
166.58
146.692
125.364
102.608
192.068
199.067
193.34
183.103
171.456
157.551
141.125
122.904
103.535
83.0967
179.13
177.456
168.57
157.737
146.136
132.733
117.327
100.571
83.0156
65.3602
152.888
151.528
143.11
133.013
122.241
109.947
95.9704
80.7772
64.4856
46.5706
128.358
127.261
119.328
110.059
100.349
89.5993
77.8118
65.761
54.0045
41.1018
105.249
104.335
97.0353
88.6677
79.9399
70.4137
60.074
49.5484
38.4341
23.1088
85.6365
83.8864
76.7276
69.0973
61.2989
52.9681
43.9919
34.7062
24.2692
10.1751
64.4109
63.3667
56.6415
50.0271
43.554
36.7995
29.4468
21.6102
12.7501
2.86304
40.7285
39.8021
34.9253
30.8265
26.8127
22.3118
16.9113
10.8144
4.04715
-1.18426
-5.44032
8.71673
13.535
14.6961
13.8178
11.4363
7.60085
2.98542
-1.93897
-3.27975
5.45874
5.92663
7.10164
7.30468
6.46922
4.60472
1.41386
-2.45599
-5.87836
-4.60848
-1.82407
-1.73538
0.329677
0.23923
-0.366692
-1.59494
-4.12343
-7.08138
-9.60484
-6.02483
-2.09851
-7.46616
-6.16296
-6.98001
-7.2944
-8.02724
-10.4156
-12.6783
-15.2166
-8.56474
-8.14984
-15.2099
-13.0949
-13.3858
-13.0587
-13.5659
-16.3776
-17.6329
-22.2787
-14.2638
-14.1754
-13.8708
-14.9844
-16.5157
-17.2364
-17.807
-18.8179
-15.5233
-18.324
-26.3275
-30.6297
-2.79043
-16.4275
-19.7407
-22.9248
-23.8079
-21.1856
-15.3666
-3.84517
-42.2528
1837.29
1837.84
1838.4
1838.98
1839.56
1840.16
1840.76
1841.36
1841.97
1842.58
1843.18
1843.78
1844.36
1844.93
1845.49
1846.02
1846.53
1847
1847.44
1847.83
1848.18
1848.49
1848.74
1848.94
1849.09
1849.2
1849.27
1849.31
1849.34
1849.36
1849.39
1849.42
1849.46
1849.5
1849.55
1849.61
1849.66
1849.7
1849.71
1849.79
1817.62
1818.15
1818.69
1819.24
1819.8
1820.36
1820.93
1821.49
1822.06
1822.63
1823.19
1823.75
1824.29
1824.82
1825.34
1825.84
1826.31
1826.75
1827.17
1827.54
1827.88
1828.18
1828.44
1828.66
1828.84
1828.99
1829.11
1829.21
1829.31
1829.4
1829.49
1829.59
1829.7
1829.8
1829.9
1829.99
1830.07
1830.13
1830.17
1830.22
1797.97
1798.48
1798.99
1799.51
1800.04
1800.57
1801.1
1801.64
1802.17
1802.71
1803.24
1803.76
1804.27
1804.77
1805.26
1805.73
1806.18
1806.61
1807.01
1807.38
1807.72
1808.03
1808.3
1808.55
1808.76
1808.95
1809.11
1809.26
1809.4
1809.55
1809.7
1809.86
1810.03
1810.2
1810.34
1810.47
1810.56
1810.62
1810.65
1810.68
1778.27
1778.76
1779.26
1779.77
1780.28
1780.79
1781.31
1781.82
1782.34
1782.85
1783.36
1783.87
1784.37
1784.85
1785.33
1785.79
1786.24
1786.66
1787.07
1787.45
1787.8
1788.13
1788.43
1788.69
1788.93
1789.14
1789.32
1789.48
1789.63
1789.77
1789.94
1790.16
1790.41
1790.65
1790.86
1791.03
1791.16
1791.24
1791.25
1791.24
1758.55
1759.04
1759.53
1760.03
1760.53
1761.04
1761.54
1762.05
1762.56
1763.07
1763.57
1764.07
1764.56
1765.05
1765.53
1765.99
1766.44
1766.88
1767.3
1767.7
1768.07
1768.43
1768.75
1769.05
1769.31
1769.54
1769.72
1769.86
1769.96
1770.01
1770.14
1770.42
1770.81
1771.19
1771.48
1771.71
1771.89
1771.99
1771.98
1771.89
1738.81
1739.3
1739.79
1740.29
1740.79
1741.29
1741.8
1742.3
1742.81
1743.32
1743.82
1744.33
1744.82
1745.32
1745.8
1746.28
1746.75
1747.2
1747.64
1748.07
1748.48
1748.87
1749.23
1749.57
1749.87
1750.13
1750.34
1750.48
1750.5
1750.61
1751.02
1750.84
1751.33
1751.91
1752.23
1752.46
1752.71
1752.84
1752.82
1752.64
1719.04
1719.54
1720.03
1720.53
1721.04
1721.55
1722.06
1722.57
1723.08
1723.6
1724.11
1724.62
1725.13
1725.63
1726.13
1726.62
1727.11
1727.59
1728.06
1728.52
1728.97
1729.41
1729.83
1730.24
1730.64
1731.02
1731.38
1731.73
1732.06
1732.73
1735.13
1735.22
1734.54
1733.47
1733.23
1733.38
1733.71
1733.84
1733.72
1733.61
1699.25
1699.75
1700.26
1700.77
1701.28
1701.8
1702.32
1702.84
1703.37
1703.89
1704.41
1704.94
1705.46
1705.98
1706.49
1707
1707.51
1708.01
1708.51
1709
1709.49
1709.98
1710.47
1710.95
1711.44
1711.93
1712.43
1712.95
1713.5
1714.19
1716.33
1717.12
1717.23
1717.32
1717.5
1717.06
1715.54
1715.24
1715.08
1714.86
1679.43
1679.95
1680.46
1680.99
1681.52
1682.05
1682.58
1683.11
1683.65
1684.19
1684.73
1685.26
1685.8
1686.33
1686.86
1687.39
1687.91
1688.43
1688.96
1689.48
1690
1690.53
1691.06
1691.61
1692.17
1692.76
1693.37
1694.01
1694.7
1695.48
1696.4
1696.98
1697.18
1698.02
1697.52
1697.87
1698.23
1698.32
1698.09
1697.82
1659.58
1660.11
1660.65
1661.19
1661.73
1662.28
1662.83
1663.38
1663.93
1664.49
1665.04
1665.59
1666.14
1666.68
1667.23
1667.77
1668.31
1668.84
1669.38
1669.91
1670.45
1671
1671.56
1672.14
1672.73
1673.36
1674.01
1674.69
1675.4
1676.13
1676.82
1677.4
1677.79
1678.06
1678.41
1678.58
1678.27
1677.9
1677.64
1677.22
1639.69
1640.25
1640.8
1641.36
1641.93
1642.49
1643.06
1643.63
1644.21
1644.78
1645.34
1645.91
1646.48
1647.04
1647.59
1648.14
1648.69
1649.23
1649.77
1650.31
1650.85
1651.39
1651.95
1652.52
1653.13
1653.77
1654.46
1655.16
1655.88
1656.6
1657.25
1657.82
1658.23
1658.46
1658.66
1658.77
1658.83
1658.82
1658.72
1658.05
1619.77
1620.35
1620.92
1621.51
1622.1
1622.69
1623.28
1623.88
1624.47
1625.06
1625.65
1626.23
1626.81
1627.38
1627.95
1628.51
1629.06
1629.6
1630.13
1630.66
1631.18
1631.7
1632.22
1632.74
1633.32
1633.98
1634.7
1635.45
1636.17
1636.86
1637.51
1638.07
1638.56
1639.17
1639.45
1639.56
1639.52
1639.22
1638.95
1638.41
1599.8
1600.41
1601.01
1601.63
1602.24
1602.86
1603.48
1604.1
1604.72
1605.33
1605.95
1606.55
1607.15
1607.74
1608.31
1608.88
1609.43
1609.97
1610.5
1611
1611.48
1611.94
1612.38
1612.79
1613.25
1613.91
1614.74
1615.57
1616.33
1617.03
1617.66
1618.22
1618.69
1619.1
1619.53
1619.84
1619.6
1619.54
1619.29
1619
1579.79
1580.42
1581.06
1581.71
1582.36
1583.01
1583.66
1584.31
1584.96
1585.6
1586.24
1586.87
1587.49
1588.1
1588.69
1589.27
1589.84
1590.38
1590.9
1591.39
1591.84
1592.26
1592.62
1592.87
1593.95
1594.87
1594.69
1595.66
1596.47
1597.16
1597.76
1598.29
1598.74
1599.11
1599.38
1599.53
1599.6
1599.49
1599.14
1598.86
1559.72
1560.39
1561.07
1561.75
1562.44
1563.12
1563.81
1564.5
1565.18
1565.86
1566.53
1567.19
1567.84
1568.47
1569.09
1569.7
1570.29
1570.86
1571.41
1571.94
1572.45
1572.95
1573.49
1574.21
1576.25
1576.99
1576.12
1576.21
1576.88
1577.44
1577.94
1578.38
1578.77
1579.08
1579.31
1579.44
1579.46
1579.33
1579.05
1578.7
1539.59
1540.3
1541.02
1541.74
1542.47
1543.2
1543.93
1544.66
1545.39
1546.1
1546.81
1547.51
1548.19
1548.86
1549.51
1550.14
1550.76
1551.36
1551.94
1552.5
1553.01
1553.53
1554.55
1555.5
1556.48
1557.19
1557.68
1557.03
1557.44
1557.83
1558.2
1558.55
1558.85
1559.1
1559.27
1559.36
1559.35
1559.2
1558.94
1558.64
1519.39
1520.14
1520.9
1521.67
1522.45
1523.24
1524.02
1524.8
1525.57
1526.33
1527.08
1527.82
1528.54
1529.25
1529.94
1530.61
1531.26
1531.9
1532.54
1533.16
1533.72
1534.63
1535.63
1536.42
1537.19
1537.84
1538
1537.72
1537.98
1538.24
1538.52
1538.78
1539.01
1539.19
1539.32
1539.37
1539.32
1539.16
1538.89
1538.61
1499.11
1499.92
1500.72
1501.56
1502.4
1503.22
1504.06
1504.89
1505.72
1506.54
1507.34
1508.13
1508.9
1509.65
1510.37
1511.08
1511.77
1512.46
1513.17
1513.91
1514.61
1515.16
1516.26
1517.09
1517.75
1518.22
1518.35
1518.38
1518.51
1518.69
1518.89
1519.08
1519.25
1519.39
1519.47
1519.49
1519.42
1519.23
1518.95
1518.66
1478.76
1479.62
1480.49
1481.49
1482.33
1483.16
1484.06
1484.95
1485.84
1486.72
1487.59
1488.43
1489.25
1490.04
1490.8
1491.53
1492.23
1492.9
1493.59
1494.38
1495.15
1494.86
1497.24
1498.14
1498.06
1498.43
1498.59
1498.74
1498.9
1499.07
1499.25
1499.42
1499.56
1499.66
1499.72
1499.72
1499.65
1499.47
1499.16
1498.84
1458.3
1459.24
1460.2
1461.16
1462.1
1463.03
1463.98
1464.94
1465.91
1466.87
1467.81
1468.73
1469.61
1470.45
1471.25
1471.99
1472.66
1473.22
1473.77
1474.34
1474.91
1476.82
1477.4
1478.16
1478.66
1478.82
1478.97
1479.13
1479.3
1479.48
1479.65
1479.8
1479.93
1480.01
1480.04
1480.04
1480
1479.86
1479.56
1479.2
1437.74
1438.78
1439.78
1440.79
1441.8
1442.79
1443.8
1444.84
1445.9
1446.97
1448.02
1449.03
1450.01
1450.94
1451.83
1452.67
1453.41
1454
1455.27
1456.25
1456.94
1457.7
1458.16
1458.68
1458.99
1459.14
1459.3
1459.49
1459.69
1459.88
1460.06
1460.24
1460.39
1460.44
1460.41
1460.39
1460.45
1460.41
1460.15
1459.79
1417.04
1418.16
1419.23
1420.3
1421.34
1422.44
1423.47
1424.56
1425.76
1427.01
1428.21
1429.34
1430.44
1431.49
1432.53
1433.55
1434.49
1435.54
1437.17
1437.8
1438.37
1438.9
1439.25
1439.18
1439.36
1439.44
1439.61
1439.85
1440.1
1440.34
1440.61
1440.84
1441.14
1441.16
1441.25
1442.41
1441.77
1441.23
1441.03
1440.72
1396.17
1397.33
1398.53
1399.68
1400.82
1402
1403.07
1404.68
1406.06
1406.97
1408.37
1409.63
1410.82
1411.99
1413.15
1414.32
1415.46
1416.67
1418.6
1419.38
1419.84
1419.91
1419.96
1419.78
1419.65
1419.59
1419.78
1420.16
1420.58
1420.93
1421.54
1421.78
1422.11
1422.34
1422.46
1423.95
1423.62
1422.5
1422.2
1422
1375.11
1376.39
1377.67
1378.96
1380.32
1381.8
1383.58
1385.23
1386.62
1387.53
1388.57
1389.9
1391.15
1392.37
1393.59
1394.8
1396.02
1397.18
1398.21
1400.91
1401.87
1399.89
1400.28
1400.14
1399.62
1399.24
1399.63
1400.4
1401.19
1401.71
1402.2
1402.61
1402.9
1403.74
1403.91
1404.53
1404.46
1404.06
1403.63
1403.57
1353.76
1355.15
1356.57
1357.98
1359.84
1361.92
1363.54
1365.08
1366.57
1367.9
1368.66
1370.02
1371.33
1372.62
1373.88
1375.11
1376.3
1377.41
1378.38
1379.14
1379.88
1380.37
1380.91
1381.05
1380.9
1383.94
1382.99
1381.4
1382.28
1382.92
1383.37
1383.73
1384.2
1384.7
1384.91
1385.36
1386.04
1385.64
1385.06
1385.52
1332.07
1333.64
1335.29
1337.04
1339.69
1341.36
1343.01
1344.58
1345.97
1347.16
1348.51
1349.94
1351.35
1352.74
1354.1
1355.42
1356.69
1357.88
1358.96
1359.94
1360.88
1361.78
1362.63
1363.37
1364.03
1366.74
1366.44
1364.53
1363.51
1363.95
1364.62
1365.15
1365.53
1365.95
1366.66
1366.91
1366.65
1367.72
1366.67
1367.77
1309.85
1311.53
1313.32
1315.26
1317.26
1319.06
1322.38
1323.25
1324.74
1326.39
1328.01
1329.6
1331.17
1332.71
1334.22
1335.69
1337.09
1338.42
1339.67
1340.84
1341.95
1343.02
1344.06
1345.08
1345.97
1347.29
1348.22
1348.07
1347.75
1346.4
1346.23
1346.65
1347.13
1347.67
1348.2
1348.6
1348.88
1350.05
1350.13
1349.69
1287.08
1288.71
1290.42
1292.29
1294.46
1296.93
1299.2
1301.39
1303.48
1305.46
1307.31
1309.08
1310.81
1312.55
1314.27
1315.92
1317.49
1318.97
1320.39
1321.73
1323.01
1324.24
1325.43
1326.61
1327.83
1329.06
1328.95
1329.75
1330.1
1330.05
1329.64
1329.01
1329.15
1329.68
1330.19
1330.69
1331.1
1331.67
1333.91
1332.38
1263.69
1265.09
1266.38
1267.85
1270.26
1273.72
1277.24
1280.03
1282.42
1284.61
1286.62
1288.59
1290.62
1292.52
1294.32
1296.18
1297.93
1299.57
1301.13
1302.62
1304.03
1305.39
1306.68
1307.84
1309.24
1310.28
1311.64
1311.98
1312.13
1312.65
1313.67
1313.12
1311.77
1311.87
1312.42
1313
1313.5
1313.89
1316.91
1315.83
1239.66
1240.43
1241.05
1241.89
1245.46
1253.4
1256.66
1259.34
1261.79
1264.08
1266.29
1268.8
1270.99
1273.01
1274.8
1276.58
1278.47
1280.25
1281.94
1283.57
1285.12
1286.61
1288.03
1289.33
1290.3
1294.08
1293.32
1294.29
1295.58
1295.92
1296.01
1296.48
1296.68
1295.05
1295.12
1295.83
1296.6
1297.37
1298.24
1299.09
1214.85
1217.8
1221.46
1228.07
1247.41
1239.65
1238.11
1240.08
1241.85
1243.9
1246.15
1248.66
1250.86
1253.02
1255.14
1256.95
1258.97
1260.91
1262.76
1264.56
1266.3
1267.97
1269.59
1271.14
1272.55
1275.02
1277.61
1277.32
1275.89
1279.54
1279.31
1279.66
1280.26
1280.54
1278.82
1279.03
1279.94
1281.02
1282.1
1283.1
1197.41
1213.13
1219.68
1221.09
1220.35
1213.62
1215.33
1217.6
1219.89
1222.36
1224.89
1227.44
1230.18
1232.67
1234.66
1236.95
1239.23
1241.4
1243.49
1245.49
1247.41
1249.26
1251.03
1252.73
1254.39
1256.03
1257.57
1259.28
1260.5
1260.08
1262.91
1265.22
1262.67
1264.27
1265.57
1262.59
1263.74
1265.18
1266.51
1268.02
1191.97
1193.93
1188.45
1189.43
1188.88
1188.36
1190.89
1193.96
1196.96
1199.92
1202.89
1205.8
1208.62
1211.39
1214.13
1216.8
1219.38
1221.83
1224.17
1226.39
1228.51
1230.53
1232.46
1234.3
1236.05
1237.75
1239.53
1241.11
1242.43
1244.44
1245.06
1245.97
1249.18
1245.32
1250.39
1249.63
1249.2
1250.17
1251.57
1252.68
1151.28
1151.71
1152.29
1155.24
1159.01
1162.65
1166.29
1169.91
1173.49
1177.03
1180.51
1183.91
1187.22
1190.45
1193.58
1196.6
1199.48
1202.22
1204.81
1207.26
1209.59
1211.79
1213.88
1215.86
1217.74
1219.52
1221.23
1222.91
1224.57
1226.13
1229.38
1227.17
1231.87
1232.2
1232.39
1236.28
1233.32
1234.23
1235.79
1237.51
1120.11
1122.53
1125.45
1129.16
1133.15
1137.16
1141.23
1145.37
1149.54
1153.68
1157.76
1161.74
1165.59
1169.31
1172.87
1176.27
1179.49
1182.53
1185.4
1188.09
1190.63
1193.02
1195.27
1197.38
1199.38
1201.26
1203.03
1204.69
1206.27
1207.92
1213.67
1213.19
1212.9
1214.87
1216.36
1220.32
1222.82
1217.54
1220.22
1222.65
1092.42
1094.97
1098.11
1101.85
1106.02
1110.51
1115.22
1120.06
1124.94
1129.79
1134.55
1139.17
1143.63
1147.89
1151.95
1155.78
1159.38
1162.76
1165.93
1168.89
1171.65
1174.23
1176.65
1178.91
1181.03
1183.03
1184.91
1186.69
1188.37
1190.01
1191.88
1193.76
1195.34
1197.01
1198.89
1201.32
1208.75
1204.21
1206.66
1209.24
1063.08
1065.6
1068.92
1072.99
1077.7
1082.89
1088.39
1094.05
1099.75
1105.41
1110.94
1116.28
1121.4
1126.26
1130.85
1135.16
1139.18
1142.92
1146.39
1149.62
1152.62
1155.4
1157.98
1160.39
1162.64
1164.75
1166.75
1168.65
1170.46
1172.23
1173.98
1175.72
1177.35
1178.9
1180.48
1182.16
1192.9
1190.78
1192.58
1195.86
1032.19
1034.67
1038.17
1042.71
1048.16
1054.27
1060.76
1067.4
1074.06
1080.61
1086.99
1093.11
1098.94
1104.45
1109.61
1114.41
1118.87
1122.98
1126.78
1130.28
1133.5
1136.48
1139.22
1141.77
1144.14
1146.36
1148.46
1150.45
1152.38
1154.27
1156.14
1158.03
1159.97
1162
1164.29
1167.46
1173.99
1178.15
1176.14
1180.82
999.85
1002.11
1005.71
1010.83
1017.32
1024.67
1032.44
1040.28
1048.03
1055.57
1062.85
1069.79
1076.36
1082.52
1088.25
1093.56
1098.45
1102.95
1107.06
1110.82
1114.26
1117.41
1120.31
1122.97
1125.45
1127.76
1129.94
1132.03
1134.04
1136.02
1138.02
1140.07
1142.24
1144.59
1147.28
1150.78
1155.43
1164.33
1161.71
1167.07
966.274
967.717
970.904
977.052
985.789
995.198
1004.4
1013.37
1022.17
1030.68
1038.82
1046.53
1053.79
1060.56
1066.85
1072.64
1077.94
1082.78
1087.19
1091.19
1094.83
1098.14
1101.15
1103.92
1106.47
1108.85
1111.09
1113.21
1115.28
1117.31
1119.37
1121.5
1123.76
1126.25
1129.07
1132.6
1137.12
1148.07
1147.37
1153.41
929.027
930.001
930.599
937.639
952.304
967.521
979.314
988.535
997.565
1006.59
1015.33
1023.62
1031.43
1038.71
1045.45
1051.65
1057.32
1062.47
1067.13
1071.33
1075.13
1078.57
1081.68
1084.52
1087.12
1089.52
1091.77
1093.91
1095.97
1098.01
1100.08
1102.23
1104.54
1107.08
1109.96
1113.46
1118.1
1131.29
1131.88
1138.77
905.55
907.293
910.981
917.423
921.942
937.195
954.754
966.171
974.811
983.658
992.596
1001.22
1009.38
1017.01
1024.1
1030.61
1036.56
1041.95
1046.82
1051.19
1055.11
1058.63
1061.81
1064.67
1067.28
1069.67
1071.88
1073.98
1075.99
1077.98
1080.01
1082.14
1084.45
1087.02
1089.96
1093.53
1098.42
1113.32
1115.11
1122.78
897.444
897.801
898.84
899.695
901.83
909.359
925.894
943.836
953.667
961.931
970.611
979.302
987.625
995.461
1002.76
1009.49
1015.64
1021.2
1026.21
1030.69
1034.7
1038.27
1041.46
1044.32
1046.88
1049.21
1051.33
1053.32
1055.21
1057.09
1059.01
1061.06
1063.33
1065.92
1068.93
1072.65
1077.91
1093.24
1096.6
1104.95
891.168
890.161
889.289
888.269
887.265
888.697
898.52
918.367
932.62
941.089
949.262
957.758
966.094
974.004
981.403
988.247
994.508
1000.18
1005.27
1009.82
1013.86
1017.45
1020.62
1023.43
1025.91
1028.1
1030.07
1031.85
1033.53
1035.19
1036.92
1038.83
1041.01
1043.57
1046.64
1050.51
1056.08
1070.84
1076.09
1084.97
885.162
882.856
880.388
877.976
875.726
874.164
878.472
892.189
910.479
920.706
928.446
936.512
944.702
952.579
959.985
966.859
973.163
978.878
984.009
988.581
992.631
996.199
999.325
1002.05
1004.4
1006.41
1008.1
1009.55
1010.84
1012.14
1013.57
1015.26
1017.3
1019.8
1022.88
1026.85
1032.59
1046.85
1053.35
1062.53
875.267
871.439
867.924
864.897
862.178
860.104
860.587
869.392
886.981
899.785
907.704
915.342
923.307
931.099
938.463
945.319
951.622
957.343
962.481
967.056
971.096
974.639
977.713
980.344
982.54
984.291
985.584
986.455
987.085
987.769
988.746
990.138
992.017
994.458
997.557
1001.58
1007.33
1020.79
1028.06
1037.19
865.652
862.316
856.168
849.631
845.312
843.292
843.052
849.606
863.411
877.929
886.611
894.039
901.808
909.515
916.832
923.657
929.942
935.657
940.797
945.376
949.421
952.96
956.014
958.581
960.63
962.083
962.82
962.768
962.2
961.815
962.137
963.242
965.07
967.611
970.93
975.292
981.586
992.108
1001.07
1008.28
841.467
847.449
848.342
839.472
829.516
825.128
825.045
830.179
840.904
855.589
865.031
872.509
880.192
887.85
895.138
901.943
908.222
913.949
919.118
923.747
927.864
931.497
934.657
937.324
939.46
941
941.548
939.9
936.246
933.568
933.181
934.319
936.39
939.257
942.941
947.645
954.117
962.774
972.685
978.094
814.082
819.964
825.724
826.31
816.522
808.604
807.101
810.83
819.609
833.457
843.234
850.874
858.559
866.193
873.464
880.265
886.561
892.334
897.59
902.361
906.698
910.655
914.282
917.654
921.051
924.827
927.112
920.359
905.66
898.616
899.337
902.41
905.766
909.465
913.713
918.722
925.072
932.9
942.584
947.059
791.5
796.054
801.09
804.782
800.801
791.272
790.464
791.729
799.368
812.012
821.595
829.355
837.048
844.637
851.87
858.654
864.959
870.777
876.129
881.065
885.666
890.028
894.282
898.757
904.297
911.059
911.636
906.546
881.42
860.183
861.42
868.129
874.227
879.401
884.416
889.737
895.917
903.081
912.065
915.725
773.8
775.287
777.99
780.911
779.302
769.97
775.883
772.315
780.364
791.858
800.685
808.244
815.796
823.242
830.357
837.054
843.298
849.077
854.411
859.351
863.976
868.386
872.773
877.634
883.598
887.861
881.288
887.427
869.251
839.755
832.248
838.261
845.769
851.627
856.781
861.971
867.718
874.139
882.038
884.724
756.787
755.744
756.035
757.135
755.318
746.992
760.629
754.101
762.253
772.712
780.541
787.553
794.757
801.936
808.837
815.355
821.433
827.04
832.179
836.882
841.202
845.227
849.175
853.584
858.249
856.387
849.369
849.501
845.217
829.033
813.775
814.394
820.849
826.293
830.91
835.482
840.447
845.902
852.648
854.839
737.84
735.535
734.479
734.281
731.99
724.231
744.516
736.614
744.01
753.513
760.435
766.834
773.633
780.508
787.156
793.437
799.268
804.592
809.387
813.663
817.449
820.816
823.958
827.302
830.144
825.014
821.058
823.745
822.48
811.342
795.072
792.036
797.059
801.888
805.903
809.809
813.958
818.46
822.889
825.682
714.009
713.128
712.635
712.319
710.072
702.503
727.099
718.881
724.935
733.534
739.757
745.647
752.12
758.755
765.181
771.224
776.773
781.752
786.122
789.879
793.046
795.689
798.052
800.509
801.121
797.172
795.08
798.182
797.782
789.232
774.221
769.635
773.609
777.91
781.489
784.952
788.61
792.646
798.71
798.453
693.226
692.813
692.81
692.992
691.769
685.264
707.338
700.887
702.193
710.736
717.276
723.314
729.862
736.499
742.834
748.695
753.971
758.586
762.5
765.706
768.219
770.108
771.77
773.976
771.431
768.353
769.605
772.044
771.841
764.934
751.681
746.651
750.026
754.024
757.402
760.697
764.228
768.271
772.842
771.829
672.696
673.077
674.092
675.993
678.499
679.836
681.917
684.205
668.391
682.747
692.48
699.913
707.088
713.957
720.281
725.965
730.943
735.16
738.592
741.245
743.156
744.456
745.648
747.053
742.134
739.032
742.514
744.828
744.915
739.243
727.987
722.95
725.98
729.85
733.154
736.352
739.731
743.652
747.821
746.488
652.187
652.451
653.128
654.245
655.03
653.988
661.038
661.456
650.17
662.736
671.737
678.704
685.488
692
697.961
703.246
707.774
711.481
714.336
716.352
717.599
718.395
719.11
716.291
710.996
710.684
714.301
716.592
717.207
712.502
703.28
698.532
701.367
705.283
708.652
711.875
715.228
718.364
723.941
722.184
631.678
631.657
631.786
631.7
629.554
624.771
640.779
637.621
640.304
647.57
653.445
658.818
664.597
670.364
675.705
680.416
684.367
687.471
689.688
691.054
691.777
692.213
691.152
681.616
677.029
681.696
685.827
688.921
690.459
686.741
678.775
673.923
676.248
680.285
683.805
687.135
690.629
693.844
699.911
698.311
611.682
611.788
612.146
612.386
610.507
607.602
617.511
615.065
620.173
627.639
632.84
637.702
642.992
648.228
653.007
657.126
660.445
662.867
664.374
665.108
665.498
665.003
656.445
644.1
644.04
651.74
660.28
665.513
667.077
663.997
656.807
650.957
651.38
655.012
658.39
661.536
664.999
671.671
674.354
675.275
591.758
592.181
593.039
593.874
592.819
591.104
594.893
592.134
597.889
605.657
610.836
615.645
620.69
625.507
629.757
633.267
635.909
637.617
638.494
638.949
638.697
632.998
617.166
609.98
613.282
620.701
638.184
645.817
648.769
645.535
638.266
629.614
626.728
629.358
632.387
635.04
637.84
650.259
649.404
653.353
571.341
571.911
572.871
573.468
572.537
572.322
576.031
567.947
575.546
583.361
588.556
593.326
598.065
602.387
606.038
608.879
610.812
611.885
612.442
612.565
608.939
594.315
582.592
583.148
588.827
602.448
634.138
625.979
627.485
626.039
619.316
608.815
602.58
603.643
606.583
609.303
612.37
625.094
625.145
629.872
551.071
551.323
551.592
550.251
546.229
555.335
556.476
550.293
557.207
563.06
567.224
571.323
575.355
578.927
581.81
583.871
585.105
585.816
586.204
583.3
570.022
556.392
556.365
559.771
566.509
575.961
586.524
591.217
595.585
602.336
596.313
586.517
579.088
578.234
580.994
583.993
587.567
599.049
600.781
605.213
532
532.044
532.064
530.473
526.828
535.444
532.898
533.36
538.489
542.408
545.588
548.914
552.106
554.793
556.773
557.978
558.647
559.182
557.364
545.633
529.968
526.76
532.343
535.969
538.67
542.301
548.568
556.521
566.92
573.287
571.831
558.499
552.282
551.132
554.343
558.128
562.784
572.679
576.713
579.644
513.861
513.318
512.25
510.535
511.058
514.512
511.318
514.011
518.271
521.067
523.504
525.984
528.18
529.796
530.693
530.978
531.062
529.732
519.921
504.204
498.375
501.948
507.424
510.607
510.71
511.724
517.715
525.166
535.308
541.892
545.286
538.94