/*--------------------------------*- C++ -*----------------------------------*\
  =========                 |
  \\      /  F ield         | OpenFOAM: The Open Source CFD Toolbox
   \\    /   O peration     | Website:  https://openfoam.org
    \\  /    A nd           | Version:  8
     \\/     M anipulation  |
\*---------------------------------------------------------------------------*/
FoamFile
{
    version     2.0;
    format      ascii;
    class       volScalarField;
    location    "2.95";
    object      p_rgh;
}
// * * * * * * * * * * * * * * * * * * * * * * * * * * * * * * * * * * * * * //

dimensions      [1 -1 -2 0 0 0 0];

internalField   nonuniform List<scalar> 
9150
(
2554.21
2527.16
2501.73
2484.53
2476.23
2476.22
2484.51
2501.71
2527.13
2554.19
2545
2525.36
2509.78
2497.96
2491.99
2491.98
2497.94
2509.76
2525.34
2544.97
2535.33
2521.67
2513.22
2505.43
2501.34
2501.34
2505.42
2513.2
2521.65
2535.31
2530.27
2520.12
2514.75
2509.35
2506.39
2506.39
2509.34
2514.74
2520.1
2530.25
2528.63
2519.51
2515.06
2510.86
2508.42
2508.42
2510.85
2515.05
2519.5
2528.61
2089.2
2085.94
2110.83
2124.78
2131.41
2131.32
2124.52
2110.45
2085.41
2088.45
2278.96
2255.11
2249.71
2248.4
2248.52
2248.47
2248.26
2249.51
2254.84
2278.69
2402.63
2371.76
2355.99
2346.07
2341.43
2341.4
2345.99
2355.88
2371.62
2402.51
2502.77
2461.08
2433.53
2416.14
2407.64
2407.62
2416.1
2433.47
2461.01
2502.72
2574.62
2521.08
2482.47
2460.39
2450.24
2450.23
2460.37
2482.43
2521.04
2574.59
1907.86
1947.64
1935.5
1943.51
1939
1937.69
1943.11
1933.56
1943.01
1900.47
1935.51
1953.58
1934.98
1942.9
1937.93
1936.86
1943
1931.49
1950.96
1930.07
1914.98
1944.3
1910.86
1920.23
1922.2
1921.71
1920.2
1908.44
1942.19
1911.35
1755.71
1879.77
1892.7
1912.57
1928.79
1928.63
1911.99
1890.93
1878.73
1752.52
1620.91
1866.34
1960.43
1990.6
2006.69
2006.56
1990.14
1959.65
1865.55
1618.58
1842.55
1842.96
1843.38
1843.81
1844.25
1844.7
1845.15
1845.62
1846.09
1846.58
1842.69
1843.09
1843.49
1843.91
1844.33
1844.76
1845.2
1845.64
1846.09
1846.55
1842.79
1843.18
1843.57
1843.98
1844.39
1844.81
1845.23
1845.66
1846.1
1846.54
1842.8
1843.18
1843.57
1843.97
1844.37
1844.78
1845.2
1845.62
1846.04
1846.48
1842.74
1843.12
1843.51
1843.9
1844.3
1844.71
1845.12
1845.54
1845.96
1846.38
1842.6
1842.98
1843.37
1843.77
1844.17
1844.58
1844.99
1845.41
1845.83
1846.26
1842.4
1842.79
1843.19
1843.59
1843.99
1844.41
1844.82
1845.25
1845.68
1846.11
1842.14
1842.54
1842.94
1843.35
1843.77
1844.19
1844.62
1845.05
1845.49
1845.93
1841.82
1842.23
1842.64
1843.07
1843.49
1843.93
1844.37
1844.81
1845.26
1845.72
1841.44
1841.86
1842.29
1842.73
1843.17
1843.62
1844.07
1844.53
1845
1845.47
1841
1841.44
1841.88
1842.33
1842.79
1843.26
1843.73
1844.21
1844.69
1845.18
1840.49
1840.94
1841.41
1841.88
1842.36
1842.84
1843.34
1843.84
1844.34
1844.86
1839.92
1840.39
1840.87
1841.36
1841.86
1842.37
1842.89
1843.41
1843.95
1844.48
1839.25
1839.75
1840.26
1840.78
1841.3
1841.83
1842.38
1842.93
1843.49
1844.06
1838.51
1839.02
1839.58
1840.12
1840.66
1841.22
1841.8
1842.38
1842.98
1843.57
1837.69
1838.21
1838.8
1839.37
1839.94
1840.53
1841.14
1841.77
1842.39
1843.02
1836.81
1837.25
1837.69
1838.52
1839.14
1839.77
1840.38
1841.02
1841.69
1842.36
1835.81
1836.39
1836.13
1835.78
1838.21
1838.89
1839.55
1840.23
1840.94
1841.65
1834.71
1835.32
1834.43
1834.26
1836.4
1837.92
1838.64
1839.34
1840.09
1840.86
1833.46
1834.03
1832.67
1832.82
1834.62
1836.84
1837.61
1838.38
1839.16
1839.98
1832.05
1831.98
1830.49
1831.26
1832.9
1835.61
1836.42
1837.27
1838.13
1839
1830.46
1829.51
1828.83
1829.6
1831.03
1834.21
1835.08
1835.98
1836.91
1837.86
1828.68
1828.51
1826.98
1827.8
1829.5
1832.6
1833.53
1834.5
1835.5
1836.53
1826.66
1827.35
1826.53
1825.88
1828.76
1830.73
1831.73
1832.78
1833.85
1834.94
1824.37
1825.06
1825.61
1825.6
1826.89
1828.51
1829.59
1830.71
1831.87
1833.09
1821.84
1822.48
1823.12
1822.77
1823.38
1825.83
1827.01
1828.3
1829.6
1830.92
1819.04
1819.58
1820.11
1820.19
1812.3
1809
1816.29
1825.36
1826.8
1828.22
1816.15
1816.66
1817.16
1817.77
1778.4
1709.6
1804.33
1822.22
1823.66
1825.1
1813.17
1813.72
1814.41
1799.47
1699.67
1690.71
1775.53
1818.5
1820.03
1821.45
1809.31
1809.5
1803.01
1703.52
1669.91
1674.64
1771.56
1816.52
1817.18
1817.82
1805.81
1806.15
1751.42
1658.29
1653.87
1699.5
1812.43
1812.64
1812.99
1812.95
1801.89
1802.45
1789.73
1694.44
1636.9
1784.79
1808.07
1810.12
1810.68
1812.28
1796.49
1796.69
1796.9
1786.86
1562.7
1434.94
1729.35
1819.93
1617.29
1490.93
1790.1
1790.75
1714.71
1420.4
1397.7
1402.95
1406.21
1412.46
1560.52
1792.83
1672.53
1416.34
1367.47
1375.45
1380.69
1382.31
1600.43
1771.9
1763.03
1791.21
1333.48
1343.26
1350.53
1353.58
1544.8
1762.55
1781.52
1785.8
1786
1787.04
1316.35
1319.58
1539.99
1722.4
1769.34
1778.13
1777.01
1776.56
1776.76
1777.61
1473.76
1715.46
1770
1772.79
1770.35
1768.48
1767.12
1766.28
1766.06
1766.57
1758.67
1770.03
1766.83
1763.85
1761.12
1758.67
1756.61
1755.06
1754.2
1754.2
1767.03
1763.21
1759.54
1755.97
1752.5
1749.19
1746.13
1743.44
1741.5
1740.69
1761.92
1757.72
1753.5
1749.2
1744.75
1740.1
1735.18
1730.02
1725.22
1722.91
1757.95
1753.54
1748.96
1744.04
1738.52
1732.27
1725.46
1712.55
1449.45
1292.53
1755.11
1750.93
1746.47
1741.52
1735.96
1730.65
1591.36
1163.41
1044.16
1044.28
1752.56
1748.89
1745.09
1742.05
1741.16
1393.32
1061.73
1043.87
1043.29
1041.91
1748.77
1746.07
1747.09
1480.05
1146.29
1048.44
1048.25
1046.04
1051.63
1040.94
1749.89
1528.13
1157.52
1052.69
1055.89
1050.79
1089.11
1162.64
1161.8
1097.03
1275.01
1093.52
1099.01
1098.92
1515.37
1632.55
1693.35
1719.94
1719.66
1694.81
1034.76
1091.74
1403.18
1648.41
1751.38
1753.15
1755.43
1758.77
1763.04
1767.74
1045.83
1509.97
1745.12
1744.99
1743.2
1743.05
1744.66
1749.03
1754.78
1760.07
1155.97
1748.1
1745.11
1739.17
1733.85
1729.47
1724.44
1697.6
1723.49
1755.84
1348.47
1746.74
1741.63
1732.2
1722.26
1662.97
1362.25
1174.64
1505.55
1756.16
1660.32
1743.84
1738.03
1728.77
1720.81
1322.73
803.127
788.587
1269.92
1757.49
1747.71
1741.83
1737.32
1731.69
1463.84
808.997
750.08
755.415
1276.44
1762.75
1748.28
1743.94
1739.37
1585.45
890.259
728.753
735.117
840.174
1592.6
1762.24
1751.28
1746.91
1678.24
1005.47
710.851
714.352
716.438
1155.25
1742.27
1762.58
1754.86
1739.57
1165.28
698.964
697.515
700.689
827.281
1591.92
1760.26
1761.51
1760.71
1318.85
709.719
684.5
686.692
690.997
1381.48
1760.03
1760.75
1760.74
1427.53
730.537
672.756
675.007
676.272
1219.92
1757.1
1760.3
1760.22
1760.02
783.78
663.23
664.112
664.699
1134.77
1752.76
1760.52
1760.19
1759.96
1759.63
656.704
654.452
652.172
1174.53
1760.4
1760.69
1760.04
1759.81
1759.41
1759.13
844.695
829.49
1301.17
1757.14
1756.7
1757.48
1758.06
1758.15
1758.1
1758.13
1528.96
1003.73
1412.82
1751.89
1756.68
1757.5
1757.61
1757.63
1757.64
1757.63
1282.5
1120.24
1583.96
1756.59
1759.3
1759.45
1759.22
1758.96
1758.69
1758.42
925.674
1207.41
1724.85
1769.17
1767.22
1765.24
1763.66
1762.4
1761.34
1760.45
876.895
1408.55
1774.48
1774.92
1772.59
1770.33
1768.31
1766.5
1764.85
1763.35
964.2
1658.54
1783.33
1781.63
1778.75
1776.06
1773.59
1771.28
1769.12
1767.11
1292.86
1785.2
1790.71
1788.11
1785.09
1782.2
1779.42
1776.7
1774.05
1771.47
1629.97
1798.62
1797.8
1794.93
1791.87
1788.83
1785.81
1782.78
1779.76
1776.7
1757.07
1808.56
1806.16
1802.83
1799.51
1796.17
1792.77
1789.24
1785.58
1781.41
1782.07
1817.49
1814.72
1811.17
1807.69
1804.13
1800.4
1796.46
1792.28
1786.7
1769.98
1824.9
1822.77
1819.43
1815.94
1812.16
1807.94
1803.28
1797.24
1641.85
1777.71
1832.11
1830.77
1827.82
1824.33
1820.19
1815.28
1808.82
1647.29
1292.16
1796.62
1837.46
1838.51
1836.79
1833.19
1828.53
1822.22
1658.39
1322.37
1305.97
1563.99
1755.05
1839.75
1846.23
1842.13
1836.05
1679.79
1348.67
1334.78
1319.37
1051.47
1417.13
1828.5
1853.47
1849.21
1699.29
1352.49
1352.74
1345.55
1454.75
999.609
1342.55
1806.6
1857.43
1685.43
1347.92
1349.74
1348.58
1495.28
1814.66
1218.49
1709.23
1801.16
1656.11
1347.05
1347.58
1344.21
1563.91
1833.74
1820.09
1701.55
1750.15
1697.22
1344.06
1346.65
1343.48
1665.04
1846.66
1831.83
1814.87
1755.92
1746.5
1331.45
1341.22
1364.1
1766.45
1858.18
1843.39
1826.31
1807.31
1767.12
1294.74
1308.74
1406.95
1842.02
1867.76
1854.21
1838.02
1819.31
1798.45
1317.44
1244.59
1402.3
1876.66
1876.23
1864.44
1849.69
1831.97
1811.7
1789.52
893.585
1308.46
1893.86
1886.62
1875.18
1861.48
1844.91
1825.59
1804.05
1781.02
850.907
1858.29
1897.75
1885.53
1872.38
1857.13
1839.21
1818.83
1796.62
1773.23
1222.76
1902.4
1893.84
1880.57
1866.46
1850.54
1832.11
1811.48
1789.45
1766.5
1387.77
1891.6
1882.76
1870.33
1857.25
1842.19
1824.47
1804.58
1783.25
1760.5
1362.1
1876
1870.83
1860.61
1848.97
1835.06
1818.63
1800.41
1781.05
1760.72
1403.9
1874.23
1865.69
1854.87
1843.27
1829.86
1814.46
1797.7
1780.15
1762.49
1457.57
1868.14
1859.86
1849.76
1838.99
1826.7
1812.72
1797.53
1781.24
1763.32
1460.36
1863.56
1855.69
1846.43
1836.72
1825.97
1814.18
1802.13
1790.37
1744.81
1436.22
1860.27
1852.99
1844.66
1835.93
1826.4
1816.06
1805.54
1794.42
1543.11
1395.89
1859.43
1852.28
1844.71
1836.91
1828.58
1819.6
1810.32
1799.88
1439.64
1344.23
1858.55
1851.82
1845.26
1838.78
1832.03
1824.68
1816.84
1807.98
1383.16
1302.03
1853.21
1849.74
1845.68
1841.66
1837.16
1831.76
1825.66
1818.66
1359.67
1241.81
1839.58
1847.98
1849.17
1848.29
1845.91
1842.07
1837.45
1832.22
1366.35
1256.85
1859.51
1861.19
1861.39
1860.56
1858.69
1855.5
1851.63
1848.23
1434.58
1367.53
1871.92
1874.04
1873.95
1873.34
1872.12
1869.59
1866.63
1864.1
1500.26
1509.07
1885.84
1887.17
1886.35
1886.04
1885.3
1882.91
1880.65
1878.11
1576.94
1605.59
1897.73
1899.85
1899.56
1899.89
1899.38
1896.57
1895.32
1890.68
1655.23
1716.39
1918.7
1917.59
1916.05
1915.33
1914.76
1913.75
1917.05
1914.25
1735.15
1820.84
1949.4
1935.76
1932.45
1929.26
1928.38
1931
1936.82
1948.34
1820.68
1847.1
1847.65
1848.21
1848.79
1849.37
1849.97
1850.57
1851.17
1851.78
1852.39
1852.99
1853.59
1854.17
1854.74
1855.3
1855.83
1856.34
1856.81
1857.25
1857.64
1857.99
1858.3
1858.55
1858.75
1858.9
1859.01
1859.08
1859.12
1859.15
1859.17
1859.2
1859.23
1859.27
1859.31
1859.36
1859.42
1859.47
1859.51
1859.52
1859.58
1847.05
1847.58
1848.12
1848.67
1849.23
1849.79
1850.36
1850.92
1851.49
1852.06
1852.62
1853.18
1853.72
1854.25
1854.77
1855.27
1855.74
1856.18
1856.6
1856.97
1857.31
1857.61
1857.87
1858.09
1858.27
1858.42
1858.54
1858.64
1858.74
1858.83
1858.92
1859.02
1859.13
1859.23
1859.33
1859.42
1859.5
1859.56
1859.6
1859.62
1847.02
1847.53
1848.04
1848.56
1849.09
1849.62
1850.15
1850.69
1851.22
1851.76
1852.29
1852.81
1853.32
1853.82
1854.31
1854.78
1855.23
1855.66
1856.06
1856.43
1856.77
1857.08
1857.35
1857.6
1857.81
1858
1858.16
1858.31
1858.45
1858.6
1858.75
1858.91
1859.08
1859.25
1859.39
1859.52
1859.61
1859.67
1859.7
1859.66
1846.94
1847.43
1847.93
1848.44
1848.95
1849.46
1849.98
1850.49
1851.01
1851.52
1852.03
1852.54
1853.04
1853.52
1854
1854.46
1854.91
1855.33
1855.74
1856.12
1856.47
1856.8
1857.1
1857.36
1857.6
1857.81
1857.99
1858.15
1858.3
1858.44
1858.61
1858.83
1859.08
1859.33
1859.53
1859.7
1859.83
1859.91
1859.9
1859.77
1846.84
1847.33
1847.82
1848.32
1848.82
1849.33
1849.83
1850.34
1850.85
1851.36
1851.86
1852.36
1852.85
1853.34
1853.82
1854.28
1854.73
1855.17
1855.59
1855.99
1856.36
1856.72
1857.04
1857.34
1857.6
1857.83
1858.01
1858.15
1858.22
1858.26
1858.43
1858.71
1859.1
1859.48
1859.77
1860
1860.18
1860.28
1860.22
1860
1846.72
1847.21
1847.7
1848.2
1848.7
1849.2
1849.71
1850.21
1850.72
1851.23
1851.73
1852.23
1852.73
1853.23
1853.71
1854.19
1854.66
1855.11
1855.55
1855.98
1856.39
1856.78
1857.14
1857.48
1857.78
1858.04
1858.25
1858.39
1858.4
1857.01
1855.44
1855.78
1858.44
1859.82
1860.14
1860.37
1860.62
1860.75
1860.71
1860.46
1846.57
1847.07
1847.56
1848.06
1848.57
1849.08
1849.59
1850.1
1850.61
1851.13
1851.64
1852.15
1852.66
1853.16
1853.66
1854.16
1854.64
1855.12
1855.59
1856.05
1856.5
1856.94
1857.36
1857.77
1858.17
1858.55
1858.91
1859.26
1859.59
1854.11
1848.84
1848.93
1848.55
1855.05
1855.94
1858.48
1860.56
1861.13
1861.11
1861.02
1846.4
1846.9
1847.41
1847.92
1848.43
1848.95
1849.47
1849.99
1850.52
1851.04
1851.56
1852.09
1852.61
1853.13
1853.64
1854.15
1854.66
1855.16
1855.66
1856.15
1856.64
1857.13
1857.62
1858.1
1858.59
1859.08
1859.58
1860.1
1860.65
1858.38
1849.92
1848.32
1848.52
1848.7
1848.9
1848.52
1853.3
1853.92
1854.3
1855.47
1846.2
1846.72
1847.23
1847.76
1848.29
1848.82
1849.35
1849.88
1850.42
1850.96
1851.5
1852.03
1852.57
1853.1
1853.63
1854.16
1854.68
1855.2
1855.73
1856.25
1856.77
1857.3
1857.83
1858.38
1858.94
1859.53
1860.14
1860.78
1861.43
1862.21
1863.13
1862.88
1855.27
1852.47
1856.46
1857.74
1852.21
1852.18
1851.91
1851.64
1845.97
1846.5
1847.04
1847.58
1848.12
1848.67
1849.22
1849.77
1850.32
1850.88
1851.43
1851.98
1852.53
1853.07
1853.62
1854.16
1854.7
1855.23
1855.77
1856.31
1856.84
1857.39
1857.95
1858.53
1859.12
1859.75
1860.4
1861.08
1861.66
1862.33
1863.02
1863.69
1864.07
1864.33
1864.63
1864.77
1864.44
1864.06
1861.4
1859.27
1845.7
1846.26
1846.81
1847.37
1847.94
1848.5
1849.07
1849.64
1850.21
1850.79
1851.35
1851.92
1852.49
1853.05
1853.6
1854.15
1854.7
1855.24
1855.78
1856.32
1856.86
1857.4
1857.96
1858.53
1859.14
1859.78
1860.47
1861.17
1861.78
1862.4
1863.17
1863.73
1863.5
1861.91
1861.5
1862.31
1863.36
1864.08
1863.98
1863.31
1845.4
1845.98
1846.56
1847.14
1847.73
1848.32
1848.91
1849.5
1850.1
1850.69
1851.28
1851.86
1852.44
1853.01
1853.58
1854.14
1854.69
1855.23
1855.76
1856.29
1856.81
1857.33
1857.84
1858.37
1858.95
1859.61
1860.33
1861.08
1861.8
1862.49
1863.14
1863.7
1862.7
1860.3
1860.58
1860.69
1860.65
1860.96
1862.75
1861.94
1845.05
1845.66
1846.26
1846.88
1847.49
1848.11
1848.73
1849.35
1849.97
1850.58
1851.2
1851.8
1852.4
1852.99
1853.56
1854.13
1854.68
1855.22
1855.75
1856.25
1856.73
1857.19
1857.62
1857.99
1858.47
1859.16
1859.99
1860.82
1861.58
1862.28
1862.91
1863.47
1863.94
1863.48
1861.31
1860.74
1862.58
1863.17
1860.75
1860.46
1844.66
1845.29
1845.93
1846.58
1847.23
1847.87
1848.53
1849.18
1849.83
1850.47
1851.11
1851.74
1852.36
1852.97
1853.56
1854.14
1854.7
1855.25
1855.77
1856.26
1856.71
1857.13
1857.48
1855.9
1847.63
1846.88
1857.66
1860.53
1861.34
1862.03
1862.63
1863.16
1863.61
1863.98
1864.25
1864.4
1864.47
1864.36
1863.98
1861.6
1844.21
1844.88
1845.56
1846.24
1846.93
1847.61
1848.3
1848.99
1849.67
1850.35
1851.02
1851.68
1852.33
1852.96
1853.58
1854.19
1854.78
1855.35
1855.9
1856.43
1856.94
1857.43
1856.44
1838.97
1829.84
1830.58
1841.31
1860.7
1861.37
1861.93
1862.43
1862.87
1863.26
1863.57
1863.8
1863.93
1863.95
1863.82
1863.54
1863.19
1843.68
1844.39
1845.12
1845.85
1846.58
1847.31
1848.04
1848.77
1849.5
1850.21
1850.92
1851.62
1852.3
1852.97
1853.62
1854.25
1854.87
1855.47
1856.05
1856.61
1857.05
1854.03
1831.82
1826.56
1827.54
1828.26
1828.93
1856.78
1861.55
1861.94
1862.3
1862.63
1862.94
1863.2
1863.38
1863.47
1863.46
1863.31
1863.05
1862.75
1843.11
1843.87
1844.63
1845.4
1846.18
1846.97
1847.75
1848.53
1849.3
1850.06
1850.81
1851.55
1852.27
1852.98
1853.67
1854.34
1854.99
1855.63
1856.27
1856.89
1856.85
1834.29
1824.17
1824.96
1825.73
1826.43
1842.9
1860.89
1861.71
1861.97
1862.21
1862.46
1862.69
1862.9
1863.05
1863.1
1863.05
1862.89
1862.62
1862.33
1842.46
1843.26
1844
1844.57
1845.4
1846.56
1847.41
1848.24
1849.07
1849.89
1850.69
1851.48
1852.24
1853
1853.72
1854.43
1855.12
1855.81
1856.52
1857.26
1856.7
1830.08
1822.29
1823.13
1823.83
1844.48
1861.7
1861.73
1861.86
1862.03
1862.19
1862.38
1862.56
1862.71
1862.82
1862.84
1862.77
1862.58
1862.3
1862.01
1841.72
1842.58
1842.89
1843.01
1844.16
1846.13
1847.03
1847.92
1848.81
1849.69
1850.55
1851.39
1852.21
1853
1853.77
1854.5
1855.2
1855.87
1856.54
1857.26
1856.53
1835.16
1820.69
1821.71
1844.7
1861.4
1861.56
1861.71
1861.87
1862.04
1862.18
1862.34
1862.49
1862.63
1862.69
1862.69
1862.62
1862.44
1862.13
1861.81
1840.86
1841.03
1841.26
1842.22
1843.22
1845.53
1846.57
1847.53
1848.5
1849.46
1850.4
1851.31
1852.19
1853.03
1853.83
1854.58
1855.24
1855.79
1854.14
1839.86
1825.81
1816.47
1818.35
1847.7
1861.25
1861.4
1861.56
1861.72
1861.89
1862.06
1862.23
1862.36
1862.5
1862.59
1862.63
1862.63
1862.59
1862.45
1862.15
1861.79
1839.58
1839.37
1840.38
1841.39
1842.44
1844.86
1846.01
1847.05
1848.11
1849.18
1850.23
1851.24
1852.21
1853.14
1854.04
1854.87
1855.54
1851.75
1822.47
1813.17
1813.93
1814.66
1817.2
1859.21
1861.2
1861.35
1861.51
1861.7
1861.88
1862.07
1862.26
1862.42
1862.58
1862.55
1862.23
1862.14
1862.5
1862.62
1862.36
1862
1838.63
1838.3
1839.37
1840.44
1842.24
1844.26
1845.29
1846.37
1847.58
1848.84
1850.04
1851.17
1852.26
1853.32
1854.36
1855.37
1856.26
1834.35
1811.67
1812.21
1812.87
1813.41
1825.3
1859.19
1861.19
1861.27
1861.43
1861.67
1861.91
1861.76
1861.06
1861.03
1862.94
1862.81
1856.06
1846.36
1850.68
1862.97
1862.86
1862.55
1837.61
1838.54
1838.51
1839.39
1841.64
1843.44
1841.52
1834.96
1836.66
1847.9
1849.82
1851.08
1852.27
1853.44
1854.6
1855.77
1856.89
1843.64
1810.63
1811.29
1811.88
1818.44
1857.67
1861.2
1861.1
1861.04
1861.22
1861.61
1862
1861.48
1858.65
1858.88
1862.38
1863.52
1850.56
1839.38
1839.05
1854.09
1863.65
1863.45
1836.13
1837.39
1838.66
1839.93
1841.27
1838.28
1820.74
1822.33
1823.67
1833.22
1849.64
1850.97
1852.22
1853.44
1854.66
1855.87
1857.09
1858.25
1848.9
1817.15
1815.78
1854.61
1861.34
1860.69
1856.4
1858.07
1858.4
1861.44
1862.21
1861.9
1858.8
1859.15
1859.9
1864.38
1852.93
1838.42
1838.36
1838.39
1864.7
1864.64
1834.4
1835.8
1837.21
1838.52
1827.09
1817.63
1819.24
1820.79
1822.27
1824.74
1846.77
1850.71
1852.02
1853.31
1854.57
1855.8
1856.98
1858.1
1859.07
1859.83
1857.81
1861.06
1861.59
1861.7
1841.22
1798.5
1798.37
1846.48
1861.81
1862.62
1862.42
1859.8
1860.26
1863.49
1862.56
1845.94
1838.4
1838.04
1859.64
1866.21
1832.34
1833.89
1835.55
1832.32
1814.02
1815.67
1817.32
1818.89
1823.35
1845.58
1848.82
1850.25
1851.66
1853.05
1854.41
1855.73
1856.99
1858.18
1859.27
1860.25
1861.19
1862.08
1862.94
1863.67
1839.2
1768.33
1768.03
1771.05
1810.95
1850.37
1862.03
1862.27
1862.12
1862.2
1866.84
1867.18
1849
1838.6
1844.21
1867.86
1829.73
1831.4
1833.22
1835.04
1836.64
1828.79
1815.32
1826.35
1844.67
1846.32
1847.94
1849.53
1851.09
1852.63
1854.15
1855.62
1857.01
1858.34
1859.59
1860.77
1861.88
1862.95
1863.98
1864.96
1861.24
1808.56
1765.55
1765.39
1765.07
1776.18
1826.61
1859.77
1863.71
1864.94
1868.02
1868.49
1868.77
1839.41
1839.51
1868.03
1826.61
1828.26
1829.96
1831.7
1833.82
1836.47
1838.75
1840.94
1843.03
1845.01
1846.85
1848.6
1850.35
1852.08
1853.81
1855.47
1857.03
1858.52
1859.93
1861.28
1862.56
1863.78
1864.97
1865.83
1866.15
1867.27
1823.39
1775.16
1763.07
1762.94
1762.7
1800.27
1853.08
1867.86
1869.38
1870.2
1870.61
1854.28
1841.76
1869.19
1822.86
1824.26
1825.55
1827.02
1829.24
1832.5
1835.4
1838.74
1841.58
1843.78
1845.67
1845.41
1843.98
1846.59
1852.86
1855.35
1857.1
1858.74
1860.3
1861.79
1863.2
1864.55
1865.84
1866.47
1858.52
1855.87
1857.51
1851.43
1819.57
1768.65
1762.29
1762.06
1782.6
1848.57
1871.28
1872.13
1872.63
1873.02
1846.85
1871.94
1818.45
1819.22
1819.84
1814.2
1792.45
1785.38
1819.35
1838.13
1840.57
1842.85
1842.66
1833.09
1834.05
1836.07
1842.55
1853.62
1857.26
1859.04
1860.73
1862.36
1863.91
1865.4
1866.82
1868.09
1857.11
1813.11
1820.14
1846.29
1847.52
1846.17
1785.33
1761.12
1761.33
1773.66
1851.34
1874.56
1875.34
1876.12
1875.26
1875.32
1813.26
1816.18
1812.85
1649.35
1560.04
1643.98
1830.1
1838.48
1840.24
1842.25
1837.98
1830.84
1833
1835.21
1837.39
1850.27
1857.38
1859.32
1861.17
1862.97
1864.7
1866.38
1868
1869.55
1868.47
1813.42
1801.41
1800.99
1825.27
1854.65
1853.92
1806.32
1760.65
1760.99
1776.52
1866.99
1878.27
1879.38
1880.46
1878.7
1708.37
1496.95
1503.5
1504.9
1551.14
1799.52
1833.35
1835.59
1837.72
1840.12
1842.92
1838.87
1833.69
1835.31
1846.77
1854.38
1857.26
1859.43
1861.51
1863.51
1865.44
1867.28
1869.05
1870.76
1872.42
1873.05
1833.8
1800.16
1799.45
1805.9
1857.04
1863.18
1823.4
1760.53
1762
1802.9
1879.86
1883.16
1884.48
1878.24
1495.81
1491.53
1574.34
1826.92
1826.53
1826.01
1828.52
1831.37
1834.36
1837.46
1840.54
1843.45
1846.27
1849.04
1851.78
1854.45
1856.95
1859.47
1861.82
1864.04
1866.16
1868.18
1870.1
1871.95
1873.7
1875.4
1877.18
1863.74
1807.15
1800.58
1801.35
1860.24
1884.17
1820.71
1762.74
1762.46
1859.48
1887.63
1887.99
1881.11
1804.46
1806.71
1809.56
1812.51
1816.28
1819.92
1823.56
1827.18
1830.76
1834.3
1837.78
1841.18
1844.49
1847.72
1850.85
1853.87
1856.75
1859.48
1862.08
1864.53
1866.86
1869.06
1871.14
1873.12
1875.01
1876.79
1878.5
1880.18
1879.78
1814.31
1802.63
1823.16
1886.94
1889.18
1791.61
1764.89
1801.81
1888.72
1887.78
1885.27
1797
1799.42
1802.34
1806.05
1810.04
1814.05
1818.12
1822.26
1826.43
1830.57
1834.65
1838.63
1842.48
1846.2
1849.76
1853.16
1856.38
1859.42
1862.29
1864.98
1867.52
1869.91
1872.16
1874.27
1876.27
1878.15
1879.92
1881.58
1883.16
1884.34
1812.68
1836.02
1887.83
1891.51
1883.69
1766.76
1770.23
1872.14
1887.23
1889.72
1788.93
1791.48
1794.62
1798.35
1802.53
1807.02
1811.73
1816.57
1821.45
1826.3
1831.06
1835.68
1840.14
1844.4
1848.46
1852.29
1855.89
1859.27
1862.44
1865.4
1868.16
1870.74
1873.16
1875.42
1877.54
1879.54
1881.42
1883.2
1884.88
1886.52
1888.25
1886.85
1890.74
1893.29
1895.16
1823.9
1773.22
1838.89
1896.99
1899.65
1779.21
1781.73
1785.04
1789.12
1793.83
1799.02
1804.52
1810.18
1815.88
1821.54
1827.07
1832.41
1837.53
1842.39
1846.98
1851.29
1855.31
1859.05
1862.52
1865.75
1868.75
1871.53
1874.11
1876.52
1878.77
1880.88
1882.88
1884.78
1886.59
1888.36
1890.11
1891.85
1893.47
1894.8
1896.38
1889.2
1775.66
1810.71
1903.16
1910.3
1767.94
1770.41
1773.92
1778.45
1783.91
1790.02
1796.51
1803.15
1809.81
1816.36
1822.74
1828.86
1834.69
1840.2
1845.36
1850.16
1854.62
1858.73
1862.53
1866.03
1869.25
1872.23
1874.97
1877.52
1879.89
1882.11
1884.21
1886.2
1888.13
1890.01
1891.89
1893.78
1895.72
1897.56
1899.68
1903.15
1796.64
1798.85
1896.6
1914.83
1755.21
1757.46
1761.06
1766.2
1772.68
1780.04
1787.8
1795.65
1803.4
1810.94
1818.22
1825.16
1831.73
1837.89
1843.62
1848.93
1853.82
1858.32
1862.43
1866.19
1869.63
1872.78
1875.68
1878.34
1880.82
1883.13
1885.31
1887.4
1889.41
1891.39
1893.39
1895.44
1897.61
1899.63
1902.27
1906.1
1845.49
1801.55
1880.68
1920.63
1741.02
1742.32
1745.5
1751.95
1760.7
1770.16
1779.39
1788.36
1797.16
1805.67
1813.81
1821.52
1828.78
1835.55
1841.84
1847.63
1852.93
1857.77
1862.18
1866.18
1869.82
1873.13
1876.14
1878.91
1881.46
1883.84
1886.08
1888.2
1890.27
1892.3
1894.35
1896.49
1898.75
1900.99
1903.67
1907.55
1877.91
1804.06
1871.49
1926.39
1712.91
1688.85
1655.46
1647.5
1712.71
1761.8
1773.91
1783.14
1792.17
1801.2
1809.94
1818.23
1826.04
1833.32
1840.06
1846.26
1851.93
1857.08
1861.74
1865.94
1869.74
1873.18
1876.29
1879.13
1881.73
1884.13
1886.38
1888.52
1890.58
1892.62
1894.69
1896.84
1899.15
1901.63
1904.4
1908.04
1897.38
1806.39
1867
1931.04
1273.4
1269.12
1160.77
1129.52
1289.7
1578.71
1768.78
1780.38
1789.03
1797.82
1806.82
1815.45
1823.61
1831.24
1838.33
1844.84
1850.79
1856.19
1861.05
1865.42
1869.34
1872.86
1876.04
1878.9
1881.51
1883.9
1886.11
1888.21
1890.22
1892.21
1894.24
1896.37
1898.68
1901.25
1904.16
1907.73
1910.3
1807.33
1864
1934.21
1046.84
1043.39
1044.53
1045.21
1047.51
1136.73
1660.64
1777.47
1786.59
1795.59
1804.43
1813.15
1821.47
1829.31
1836.61
1843.34
1849.49
1855.05
1860.06
1864.54
1868.55
1872.12
1875.31
1878.17
1880.73
1883.06
1885.18
1887.17
1889.06
1890.94
1892.86
1894.91
1897.18
1899.77
1902.7
1906.44
1911.74
1811.11
1861.64
1935.43
1040.34
1039.38
1038.25
1037.22
1036.21
1037.97
1253.46
1748.12
1780.7
1793.96
1802.66
1811.22
1819.56
1827.47
1834.87
1841.72
1847.98
1853.65
1858.74
1863.29
1867.33
1870.92
1874.09
1876.9
1879.38
1881.57
1883.54
1885.32
1887
1888.66
1890.39
1892.3
1894.48
1897.04
1899.99
1903.86
1909.53
1818.18
1857.46
1934.35
1038.25
1035.54
1033.04
1030.36
1028.38
1027.29
1051.16
1524.53
1767.43
1792.25
1801.4
1809.59
1817.79
1825.67
1833.07
1839.95
1846.25
1851.97
1857.1
1861.67
1865.72
1869.29
1872.42
1875.14
1877.49
1879.5
1881.19
1882.64
1883.93
1885.23
1886.66
1888.35
1890.39
1892.89
1895.86
1899.81
1905.67
1821.46
1853.36
1930.4
1067.72
1032.13
1023.89
1020.99
1018.32
1016.66
1017.1
1253.81
1719.22
1789.81
1800.22
1808.04
1816.02
1823.81
1831.17
1838.03
1844.33
1850.05
1855.19
1859.77
1863.81
1867.35
1870.42
1873.05
1875.25
1877
1878.29
1879.16
1879.79
1880.48
1881.45
1882.85
1884.73
1887.17
1890.15
1894.15
1900.04
1821.24
1847.73
1923.46
1618.29
1435.49
1164.3
1013.23
1005
1003.31
1002.8
1083.24
1624.52
1787.18
1798.73
1806.35
1814.14
1821.84
1829.16
1835.99
1842.27
1847.99
1853.13
1857.71
1861.75
1865.29
1868.34
1870.91
1872.96
1874.41
1875.15
1875.1
1874.52
1874.13
1874.46
1875.57
1877.4
1879.94
1883.14
1887.49
1893.91
1821.18
1834.63
1912.63
1773.4
1779.4
1718.07
1351.27
997.921
988.31
988.045
1015.04
1550.63
1785.43
1796.82
1804.45
1812.14
1819.8
1827.09
1833.89
1840.17
1845.9
1851.07
1855.7
1859.81
1863.45
1866.61
1869.27
1871.41
1872.95
1873.49
1871.82
1867.97
1865.25
1864.97
1866.26
1868.34
1871.21
1874.82
1879.51
1886.07
1824.41
1820.52
1897.32
1765.63
1771.53
1777.29
1748.58
1228.99
975.655
973.694
984.052
1522.2
1784.07
1794.71
1802.44
1810.13
1817.76
1825.03
1831.84
1838.13
1843.9
1849.16
1853.93
1858.27
1862.23
1865.85
1869.22
1872.62
1876.4
1878.64
1865.1
1848.37
1843.42
1849.85
1853.97
1857.34
1861.03
1865.28
1870.29
1876.64
1821.98
1808.18
1882.28
1762.5
1767.23
1772.28
1775.97
1596.56
1001.49
961.179
986.524
1555.82
1782.36
1792.72
1800.54
1808.24
1815.83
1823.06
1829.84
1836.15
1841.97
1847.32
1852.25
1856.86
1861.22
1865.47
1869.95
1875.49
1882.25
1845.38
1479.32
1503.58
1773.11
1832.27
1839.3
1845.42
1850.59
1855.61
1860.93
1867.11
1813.52
1795.45
1868.26
1764.34
1766.08
1768.8
1771.72
1737.29
1121.16
952.327
1033.55
1616.39
1781.77
1791.4
1799.04
1806.6
1814.05
1821.17
1827.86
1834.11
1839.89
1845.22
1850.16
1854.79
1859.2
1863.58
1868.44
1874.41
1878.65
1486.99
1092.9
1126.48
1636.97
1822.3
1829.03
1836.58
1842.44
1847.59
1852.78
1858.53
1799.86
1783.28
1856.98
1767.06
1766.17
1766.46
1767.56
1765.75
1252.53
947.325
1057.43
1631.52
1781.96
1790.78
1797.95
1805.18
1812.36
1819.27
1825.78
1831.86
1837.47
1842.61
1847.31
1851.63
1855.66
1859.61
1864.01
1868.68
1712.38
1098.13
1053.32
1047.22
1417.79
1819.36
1824.76
1831.28
1836.72
1841.34
1845.91
1850.88
1792.4
1773.58
1849.32
1767.85
1765.58
1764.53
1764.33
1762.04
1379.79
948.536
1061.6
1626.33
1781.58
1790.15
1796.83
1803.67
1810.56
1817.21
1823.49
1829.32
1834.64
1839.44
1843.71
1847.5
1850.87
1854.01
1857.35
1860.19
1364.91
1029.66
1029.67
1027.79
1276.7
1799.03
1822
1827.11
1831.94
1835.95
1839.86
1844.01
1782.92
1778.19
1839.47
1763.65
1762.8
1762.3
1761.99
1759.74
1484.73
956.111
1054.79
1595.72
1780.46
1789.02
1795.26
1801.78
1808.42
1814.85
1820.89
1826.44
1831.42
1835.79
1839.55
1842.72
1845.36
1847.72
1850.18
1766.43
1117.18
1005.31
1007.3
1006.28
1207.57
1779.38
1819.2
1823.28
1827.58
1831.16
1834.62
1838.28
1770.62
1730.84
1831.55
1762.51
1762.1
1762.1
1762.28
1761.06
1562.58
972.677
1040.71
1551.97
1777.09
1786.15
1792.54
1799.14
1805.79
1812.12
1817.98
1823.26
1827.88
1831.79
1835
1837.51
1839.4
1841.06
1843.26
1546.27
995.17
981.601
983.705
983.707
1158.05
1759.98
1815.83
1819.31
1823.31
1826.69
1829.99
1833.52
1737.31
1718.14
1824.2
1761.6
1761.99
1763
1764.9
1767.41
1607.77
1005.06
1014.2
1509.68
1768.66
1780.99
1788.77
1795.99
1802.87
1809.19
1814.87
1819.85
1824.07
1827.5
1830.16
1832.07
1833.37
1834.56
1835.9
1248.34
952.989
957.223
959.552
959.622
1104.37
1732.19
1811.73
1814.89
1818.76
1822.06
1825.26
1828.64
1731.94
1710.46
1818.27
1760.72
1760.98
1761.66
1762.77
1763.56
1569.44
1009.31
1025.8
1523.79
1768.2
1779.84
1787.17
1794.01
1800.53
1806.49
1811.78
1816.3
1820.01
1822.87
1824.88
1826.13
1826.92
1827.63
1685.7
1007.06
926.307
931.135
934.863
935.854
1032.54
1687.33
1806.9
1809.89
1813.81
1817.18
1820.41
1823.76
1763.21
1703.92
1814.47
1759.83
1759.81
1759.94
1759.85
1757.7
1363.78
1011.92
1047.61
1602.68
1773.03
1781.19
1786.9
1792.74
1798.51
1803.85
1808.57
1812.52
1815.62
1817.84
1819.2
1819.93
1820.34
1819.04
1345.58
899.183
902.367
908.88
911.992
911.91
910.043
1573.09
1801.79
1804.39
1808.44
1811.95
1815.29
1818.78
1767.99
1697.24
1810.57
1759.45
1759.56
1759.92
1760.16
1758.28
1157.05
1012.08
1075.58
1653.5
1773.07
1780.24
1785.41
1790.75
1795.99
1800.78
1804.9
1808.21
1810.64
1812.14
1812.88
1813.26
1812.62
1660.83
974.409
870.058
877.506
886.491
892.407
893.75
890.473
1360.19
1796.91
1799.13
1802.78
1806.16
1809.31
1812.77
1684.27
1692.8
1806.88
1759.15
1759.57
1760.43
1761.26
1674.77
1053.39
1000.13
1133.2
1700.59
1771.09
1777.89
1782.97
1788.07
1792.89
1797.15
1800.66
1803.3
1805.01
1805.88
1806.34
1805.9
1798.73
1161.91
852.71
850.117
957.043
1050.46
877.151
878.949
876.668
1083.77
1748.8
1794.04
1796.75
1799.78
1802.43
1805.23
1643.55
1702.58
1804.27
1758.35
1758.92
1759.88
1760.48
1569.86
1014.66
988.07
1248.93
1736.53
1768.8
1775.28
1780.28
1785.06
1789.39
1793.05
1795.89
1797.82
1798.89
1799.43
1799.38
1794.64
1373.46
842.864
835.288
841.461
1349.44
1773.61
1244.78
862.635
862.058
856.641
1573.71
1789.27
1790.64
1793.59
1796.31
1799.38
1634.51
1693.74
1800.02
1757.7
1757.95
1758.22
1756.87
1393.73
1003.8
978.128
1436.73
1757.43
1768.53
1773.63
1777.9
1781.97
1785.55
1788.44
1790.5
1791.73
1792.43
1792.75
1788.43
1541.27
856.228
815.07
817.791
1052.22
1699.46
1785.77
1752.29
980.562
843.831
844.625
1295.38
1779.74
1784.83
1787.62
1790.62
1794.2
1624.75
1663.17
1794.35
1758.25
1758.29
1758.31
1756.61
1190.64
1028.44
1057.77
1601.83
1760.57
1767.87
1771.67
1775.11
1778.33
1781.03
1783.02
1784.22
1784.88
1785.36
1782.4
1616.57
905.585
789.17
791.599
796.817
1202.75
1751.08
1769.85
1779.21
1255.45
825.828
828.076
994.913
1717.39
1777.28
1780.59
1784.38
1789.03
1614.29
1634.82
1787.31
1759.73
1759.19
1758.14
1597.2
1080.65
1047.94
1223.1
1707.65
1761.68
1766.44
1769.24
1771.8
1774.01
1775.65
1776.55
1776.82
1776.84
1774.67
1665.03
948.186
761.718
765.23
770.055
772.738
1243.71
1747.62
1760
1767.96
1633.96
860.839
806.662
803.745
1561.28
1772.13
1774.1
1777.27
1780.98
1593.87
1637.35
1782.88
1761.98
1760.53
1757.41
1303.22
1072.8
1051.47
1485.77
1756.3
1762.86
1765.01
1766.52
1767.91
1768.93