/*--------------------------------*- C++ -*----------------------------------*\
  =========                 |
  \\      /  F ield         | OpenFOAM: The Open Source CFD Toolbox
   \\    /   O peration     | Website:  https://openfoam.org
    \\  /    A nd           | Version:  8
     \\/     M anipulation  |
\*---------------------------------------------------------------------------*/
FoamFile
{
    version     2.0;
    format      ascii;
    class       surfaceScalarField;
    location    "6.95";
    object      alphaPhi0.water;
}
// * * * * * * * * * * * * * * * * * * * * * * * * * * * * * * * * * * * * * //

dimensions      [0 3 -1 0 0 0 0];

internalField   nonuniform List<scalar> 
18095
(
1.99774e-08
-1.72112e-07
1.52135e-07
2.31735e-08
-1.97483e-07
1.94287e-07
1.99695e-08
-2.06092e-07
2.09296e-07
1.0869e-08
-2.10946e-07
2.20047e-07
-8.55749e-10
-2.13241e-07
2.24966e-07
-1.2327e-08
-2.13199e-07
2.2467e-07
-2.06154e-08
-2.11223e-07
2.19511e-07
-2.3276e-08
-2.06214e-07
2.08875e-07
-1.99933e-08
-1.97461e-07
1.94179e-07
-1.72027e-07
1.52034e-07
1.55226e-08
-1.87635e-07
1.61744e-08
-1.98135e-07
1.19869e-08
-2.01905e-07
6.22214e-09
-2.05182e-07
-2.25008e-10
-2.06794e-07
-6.23785e-09
-2.07186e-07
-1.18818e-08
-2.05579e-07
-1.61963e-08
-2.019e-07
-1.55711e-08
-1.98087e-07
-1.87598e-07
6.7875e-09
-1.94422e-07
8.3865e-09
-1.99734e-07
7.40225e-09
-2.0092e-07
4.621e-09
-2.024e-07
5.23669e-10
-2.02696e-07
-4.01138e-09
-2.02651e-07
-7.4501e-09
-2.0214e-07
-8.44832e-09
-2.00902e-07
-6.80897e-09
-1.99726e-07
-1.94407e-07
4.50929e-09
-1.98932e-07
4.71669e-09
-1.99941e-07
3.64953e-09
-1.99853e-07
1.60341e-09
-2.00354e-07
-3.52656e-10
-2.0074e-07
-2.07125e-09
-2.00933e-07
-3.72831e-09
-2.00483e-07
-4.75459e-09
-1.99875e-07
-4.52275e-09
-1.99958e-07
-1.9893e-07
1.06836e-09
1.12691e-09
1.27366e-09
9.19457e-10
1.79041e-10
-7.53568e-10
-1.23675e-09
-1.11218e-09
-1.07007e-09
-2.88311e-08
-1.95836e-07
2.24667e-07
-3.13329e-08
-1.99096e-07
2.01597e-07
-2.57239e-08
-2.01117e-07
1.95508e-07
-1.44101e-08
-2.01673e-07
1.90359e-07
1.55126e-10
-2.02073e-07
1.87508e-07
1.45731e-08
-2.02078e-07
1.8766e-07
2.56766e-08
-2.01786e-07
1.90682e-07
3.1089e-08
-2.01102e-07
1.9569e-07
2.85489e-08
-1.99273e-07
2.01813e-07
-1.95966e-07
2.24515e-07
-9.54338e-09
-1.86292e-07
-1.55344e-08
-1.93105e-07
-1.3478e-08
-2.03174e-07
-7.33179e-09
-2.0782e-07
-1.40445e-09
-2.08e-07
4.81334e-09
-2.08296e-07
1.19567e-08
-2.08929e-07
1.51164e-08
-2.04262e-07
9.44996e-09
-1.93607e-07
-1.86516e-07
-9.73702e-09
-1.76555e-07
-7.50303e-09
-1.95339e-07
-5.65527e-09
-2.05021e-07
-2.9752e-09
-2.105e-07
2.22413e-09
-2.13199e-07
7.19784e-09
-2.13269e-07
7.96315e-09
-2.09694e-07
8.27322e-09
-2.04572e-07
9.93686e-09
-1.9527e-07
-1.76579e-07
-6.41678e-09
-1.70139e-07
-8.35e-09
-1.93405e-07
-8.19004e-09
-2.05181e-07
-3.89899e-09
-2.14791e-07
-6.60389e-10
-2.16438e-07
2.51958e-09
-2.16449e-07
7.26952e-09
-2.14444e-07
8.1391e-09
-2.05442e-07
6.43657e-09
-1.93568e-07
-1.70143e-07
-1.80038e-08
-1.71221e-08
-1.30073e-08
-7.75121e-09
7.76411e-10
8.99746e-09
1.40646e-08
1.74981e-08
1.81088e-08
3.52299e-08
-1.59324e-07
1.24094e-07
4.08855e-08
-2.00041e-07
1.94386e-07
3.5694e-08
-2.11613e-07
2.16804e-07
2.26766e-08
-2.16474e-07
2.29492e-07
5.02491e-09
-2.17466e-07
2.35117e-07
-1.33491e-08
-2.1687e-07
2.35244e-07
-2.97181e-08
-2.1514e-07
2.31509e-07
-3.98513e-08
-2.09691e-07
2.19824e-07
-3.74445e-08
-1.97008e-07
1.94601e-07
-1.56372e-07
1.18928e-07
1.63119e-08
-1.75636e-07
1.81459e-08
-2.01875e-07
1.46119e-08
-2.08079e-07
7.37906e-09
-2.09242e-07
-1.95405e-09
-2.08133e-07
-1.14019e-08
-2.07422e-07
-1.87276e-08
-2.07814e-07
-2.15539e-08
-2.06865e-07
-1.80176e-08
-2.00544e-07
-1.7439e-07
7.69765e-09
-1.83334e-07
8.02778e-09
-2.02205e-07
6.53976e-09
-2.06591e-07
1.27712e-09
-2.03979e-07
-1.97525e-09
-2.0488e-07
-4.87609e-09
-2.04522e-07
-8.16199e-09
-2.04528e-07
-9.10381e-09
-2.05923e-07
-8.27134e-09
-2.01377e-07
-1.82661e-07
7.47073e-09
-1.90804e-07
4.88467e-09
-1.99619e-07
5.9054e-09
-2.07611e-07
2.16006e-09
-2.00234e-07
6.47804e-10
-2.03368e-07
-1.08239e-09
-2.02791e-07
-6.59096e-09
-1.9902e-07
-5.73479e-09
-2.06779e-07
-7.75119e-09
-1.9936e-07
-1.90412e-07
3.38626e-08
3.58406e-08
2.37376e-08
1.38634e-08
-1.99704e-09
-1.71287e-08
-2.54663e-08
-3.65558e-08
-3.41027e-08
3.5663e-07
-1.63839e-08
-3.40371e-07
3.70929e-07
-1.44231e-08
3.88092e-07
-1.71856e-08
4.72647e-07
-1.82583e-08
4.91924e-07
-1.93042e-08
5.11653e-07
-1.99151e-08
5.2937e-07
-1.78708e-08
5.4217e-07
-1.27888e-08
5.46888e-07
-4.71512e-09
4.02832e-09
5.42866e-07
3.69868e-07
-4.86169e-08
-3.37707e-07
4.344e-07
-3.93731e-08
4.66472e-07
-3.54965e-08
4.82924e-07
-3.4712e-08
4.96057e-07
-3.28042e-08
5.05103e-07
-2.90744e-08
5.1242e-07
-2.49124e-08
5.13618e-07
-1.4001e-08
5.08196e-07
7.17612e-10
9.95456e-09
4.78452e-07
3.99642e-07
-6.94408e-08
-3.78823e-07
4.20638e-07
-6.03705e-08
4.3976e-07
-5.46175e-08
4.57412e-07
-5.23667e-08
4.69845e-07
-4.58727e-08
4.76123e-07
-3.59912e-08
4.79932e-07
-2.88061e-08
4.7975e-07
-1.39013e-08
4.76745e-07
4.6346e-09
1.70008e-08
4.69685e-07
4.05654e-07
-8.82986e-08
-3.86798e-07
4.24135e-07
-7.88566e-08
4.41385e-07
-7.18717e-08
4.53569e-07
-6.45486e-08
4.61534e-07
-5.38345e-08
4.66011e-07
-4.04612e-08
4.67451e-07
-3.0262e-08
4.68081e-07
-1.45517e-08
4.65095e-07
7.60612e-09
2.53928e-08
4.5669e-07
3.50833e-07
-9.87446e-08
-3.40389e-07
3.61533e-07
-8.95566e-08
3.68407e-07
-7.87503e-08
3.66483e-07
-6.26205e-08
3.6627e-07
-5.36153e-08
3.70786e-07
-4.4979e-08
3.7925e-07
-3.87208e-08
3.92737e-07
-2.8029e-08
3.90447e-07
9.88326e-09
4.73124e-08
3.68517e-07
2.2148e-07
-9.51589e-08
-2.25064e-07
2.13145e-07
-8.08862e-08
1.96258e-07
-6.08646e-08
1.79779e-07
-4.53591e-08
1.80529e-07
-4.84541e-08
1.99661e-07
-4.88854e-08
2.09255e-07
-3.60385e-08
2.04989e-07
-2.0511e-08
1.81542e-07
2.58463e-08
6.35618e-08
1.41567e-07
5.95396e-08
-6.67056e-08
-8.32864e-08
4.05766e-08
-5.42868e-08
3.32731e-08
-4.62594e-08
3.88331e-08
-4.33399e-08
3.517e-08
-4.47563e-08
1.67202e-08
-3.02817e-08
-1.2798e-08
-6.22233e-09
-5.1046e-08
1.89078e-08
-7.77468e-08
4.96513e-08
7.75635e-08
-9.12538e-08
-1.8568e-08
-5.53947e-08
1.48529e-08
-2.89582e-08
-4.37137e-08
-3.76438e-08
-3.74999e-08
-5.6364e-08
-2.4596e-08
-9.03646e-08
-1.07505e-08
-1.25899e-07
5.53613e-09
-1.54022e-07
2.33335e-08
-1.76888e-07
4.21375e-08
-1.91507e-07
6.44045e-08
8.18797e-08
-1.95535e-07
-7.78277e-08
-5.95494e-08
8.21652e-08
-9.26249e-08
-2.88427e-08
-1.15326e-07
-1.47749e-08
-1.42658e-07
2.74068e-09
-1.61258e-07
7.84937e-09
-1.72316e-07
1.65992e-08
-1.82013e-07
3.30436e-08
-1.89796e-07
4.99537e-08
-1.92923e-07
6.76214e-08
7.49491e-08
-1.85857e-07
-1.15645e-07
-6.44378e-08
1.37076e-07
-1.25619e-07
-1.87843e-08
-1.39226e-07
-1.16283e-09
-1.53256e-07
1.67707e-08
-1.65813e-07
2.04069e-08
-1.73223e-07
2.40095e-08
-1.65463e-07
2.52887e-08
-1.50061e-07
3.4561e-08
-1.35282e-07
5.28811e-08
5.97536e-08
-1.19837e-07
-1.51708e-07
-6.8314e-08
1.60581e-07
-1.45197e-07
-2.27322e-08
-1.36095e-07
-4.01537e-09
-1.30835e-07
1.94595e-08
-1.26978e-07
2.31291e-08
-1.17599e-07
2.24451e-08
-9.6879e-08
1.58639e-08
-8.27186e-08
2.45914e-08
-7.28736e-08
4.18798e-08
4.29109e-08
-5.63696e-08
-1.4752e-07
-5.42135e-08
1.33156e-07
-1.51305e-07
-2.70347e-08
-1.42994e-07
-1.9095e-08
-1.1932e-07
-4.21558e-09
-1.0049e-07
4.51043e-09
-8.6978e-08
9.31808e-09
-8.5169e-08
1.4834e-08
-8.59284e-08
2.61553e-08
-7.981e-08
3.57644e-08
4.60476e-08
-8.29428e-08
-2.30005e-07
-4.7298e-08
2.22913e-07
-2.2422e-07
-3.30836e-08
-2.43895e-07
-3.04404e-08
-2.21366e-07
-2.67457e-08
-1.97716e-07
-1.91392e-08
-1.81682e-07
-6.7161e-09
-1.75308e-07
8.46105e-09
-1.73582e-07
2.44305e-08
-1.78938e-07
4.11219e-08
6.1904e-08
-1.94791e-07
-2.70862e-07
-4.51747e-08
2.68561e-07
-2.70492e-07
-3.76256e-08
-2.93737e-07
-3.67323e-08
-2.83214e-07
-3.72683e-08
-2.70665e-07
-3.16885e-08
-2.56054e-07
-2.13267e-08
-2.42603e-07
-4.98925e-09
-2.36721e-07
1.85495e-08
-2.39527e-07
4.39292e-08
6.848e-08
-2.4597e-07
-2.75222e-07
-4.21841e-08
2.7209e-07
-2.7592e-07
-3.70575e-08
-2.93389e-07
-3.66251e-08
-3.11752e-07
-3.43869e-08
-3.09527e-07
-3.39143e-08
-3.01328e-07
-2.95249e-08
-2.85814e-07
-2.05025e-08
-2.67696e-07
4.32267e-10
-2.49466e-07
3.1564e-08
6.22638e-08
-2.43345e-07
-2.46248e-07
-5.01348e-08
2.60843e-07
-2.36011e-07
-4.80192e-08
-2.32459e-07
-4.11367e-08
-2.4974e-07
-3.54959e-08
-2.67295e-07
-3.17162e-08
-2.75578e-07
-2.09719e-08
-2.78052e-07
-1.78428e-08
-2.73364e-07
-2.27167e-09
-2.50318e-07
1.66993e-08
3.94358e-08
-2.27564e-07
-2.30793e-07
-5.63049e-08
2.36963e-07
-2.25715e-07
-5.31009e-08
-2.18874e-07
-4.7942e-08
-1.9943e-07
-4.30647e-08
-1.95983e-07
-3.79738e-08
-1.78256e-07
-4.1507e-08
-1.80776e-07
-1.81369e-08
-1.91732e-07
-5.46775e-10
-1.80938e-07
6.71138e-09
1.0213e-08
-1.50889e-07
-2.21618e-07
-6.40739e-08
2.29384e-07
-2.15227e-07
-5.94949e-08
-2.0675e-07
-5.64233e-08
-1.9659e-07
-5.32277e-08
-1.85496e-07
-4.89981e-08
-1.78009e-07
-4.40714e-08
-1.62693e-07
-3.08742e-08
-1.38461e-07
-2.42539e-08
-1.09089e-07
-2.42383e-08
-2.23778e-09
-1.02821e-07
-2.05029e-07
-6.66078e-08
2.06937e-07
-2.00128e-07
-6.44037e-08
-1.9456e-07
-6.1993e-08
-1.90283e-07
-5.75046e-08
-1.85912e-07
-5.33692e-08
-1.796e-07
-5.03835e-08
-1.65616e-07
-4.48576e-08
-1.49323e-07
-4.04905e-08
-1.3128e-07
-3.49585e-08
-2.0179e-08
-1.15053e-07
-1.84635e-07
-7.68351e-08
1.94654e-07
-1.77539e-07
-7.28802e-08
-1.71517e-07
-6.85797e-08
-1.67269e-07
-6.20183e-08
-1.64165e-07
-5.64722e-08
-1.61229e-07
-5.33199e-08
-1.55787e-07
-5.03e-08
-1.50733e-07
-4.55441e-08
-1.45629e-07
-4.00612e-08
-3.14425e-08
-1.33327e-07
-1.66969e-07
-9.30227e-08
1.83322e-07
-1.56056e-07
-8.31243e-08
-1.45118e-07
-7.88704e-08
-1.41653e-07
-7.00965e-08
-1.30386e-07
-6.77393e-08
-1.22884e-07
-6.08223e-08
-1.15116e-07
-5.80672e-08
-1.06377e-07
-5.4283e-08
-9.73638e-08
-4.90742e-08
-3.75835e-08
-9.12219e-08
-1.37824e-07
-1.11073e-07
1.54881e-07
-1.28915e-07
-9.18414e-08
-1.16073e-07
-8.71339e-08
-1.08995e-07
-8.23376e-08
-9.99943e-08
-7.67399e-08
-9.24256e-08
-6.83909e-08
-8.55018e-08
-6.49906e-08
-7.86916e-08
-6.10929e-08
-7.23954e-08
-5.53298e-08
-4.21836e-08
-6.69582e-08
-5.9411e-08
-1.2499e-07
7.48329e-08
-5.1915e-08
-9.48847e-08
-5.89856e-08
-7.57561e-08
-6.56501e-08
-7.68923e-08
-6.47495e-08
-7.77089e-08
-6.25208e-08
-7.06188e-08
-6.13443e-08
-6.61666e-08
-5.69927e-08
-6.54434e-08
-5.34984e-08
-5.83009e-08
-4.23482e-08
-5.33346e-08
-1.29158e-08
-1.48663e-07
3.6611e-08
-6.22688e-09
-1.01618e-07
3.55798e-09
-8.55867e-08
5.23854e-09
-7.57303e-08
-4.49765e-09
-6.48637e-08
-1.65301e-08
-5.58751e-08
-2.3722e-08
-5.72773e-08
-2.33164e-08
-6.51616e-08
-2.20012e-08
-5.93747e-08
-4.2318e-08
-2.23377e-08
-2.31662e-08
-1.78342e-07
5.17304e-08
4.19336e-09
-1.31593e-07
2.58568e-08
-1.07294e-07
3.14504e-08
-8.13681e-08
3.27784e-08
-6.62368e-08
3.19517e-08
-5.51029e-08
2.80491e-08
-5.25049e-08
2.10908e-08
-5.78045e-08
1.77211e-08
-5.56579e-08
-4.28682e-08
1.83583e-08
-1.67679e-08
-1.91456e-07
3.0031e-08
7.79214e-09
-1.59097e-07
2.83868e-08
-1.27935e-07
4.93704e-08
-1.02397e-07
6.24216e-08
-8.04427e-08
6.24567e-08
-5.65287e-08
5.86166e-08
-5.12269e-08
5.1798e-08
-5.07703e-08
4.13602e-08
-4.52162e-08
-3.44795e-08
3.31741e-08
5.87206e-09
-1.97934e-07
2.54015e-10
2.72694e-08
-1.80427e-07
3.57119e-08
-1.43333e-07
4.23783e-08
-1.12247e-07
5.20951e-08
-9.01602e-08
6.20187e-08
-6.64524e-08
6.32531e-08
-5.24614e-08
5.73988e-08
-4.61421e-08
4.75425e-08
-3.53722e-08
-2.43422e-08
3.76049e-08
2.54871e-09
-1.92533e-07
-8.08133e-09
4.03164e-09
-1.81792e-07
1.00488e-08
-1.49295e-07
1.37464e-08
-1.15946e-07
1.76716e-08
-9.40855e-08
2.71822e-08
-7.59631e-08
3.3189e-08
-5.84682e-08
3.08743e-08
-4.38274e-08
2.40659e-08
-2.91026e-08
-1.96584e-08
1.93838e-08
-1.89332e-08
-1.89525e-07
1.56969e-08
-1.98363e-08
-1.78056e-07
-3.54563e-08
-1.2231e-07
-5.47454e-08
-9.3105e-08
-5.74536e-08
-9.13776e-08
-4.93063e-08
-8.41105e-08
-3.90308e-08
-6.87437e-08
-3.15104e-08
-5.13479e-08
-2.38737e-08
-3.67394e-08
-2.60911e-08
-1.74409e-08
-5.69579e-08
-1.8512e-07
5.25602e-08
-6.26306e-08
-1.60158e-07
-8.76472e-08
-9.71357e-08
-1.08584e-07
-7.37147e-08
-1.1603e-07
-8.69126e-08
-1.0814e-07
-9.20002e-08
-9.18269e-08
-8.50572e-08
-7.28384e-08
-7.03365e-08
-5.79371e-08
-5.16405e-08
-3.59648e-08
-4.80631e-08
-9.18831e-08
-1.69865e-07
7.71882e-08
-9.93903e-08
-1.43525e-07
-1.05307e-07
-9.1344e-08
-1.06819e-07
-7.25455e-08
-1.2155e-07
-7.66293e-08
-1.22883e-07
-9.06696e-08
-1.11988e-07
-9.59522e-08
-1.05751e-07
-7.65699e-08
-1.10505e-07
-4.41915e-08
-2.69727e-08
-1.17711e-07
-1.11679e-07
-1.44259e-07
8.65817e-08
-1.14791e-07
-1.38495e-07
-1.11417e-07
-9.50612e-08
-1.13442e-07
-7.08631e-08
-1.24923e-07
-6.5492e-08
-1.5552e-07
-6.73978e-08
-1.76292e-07
-7.51693e-08
-1.93275e-07
-5.11817e-08
-2.00216e-07
-2.97044e-08
-2.31018e-08
-2.04122e-07
-1.30568e-07
-1.17666e-07
1.0451e-07
-1.44711e-07
-1.23932e-07
-1.30669e-07
-1.03745e-07
-1.45956e-07
-5.592e-08
-1.70985e-07
-4.07798e-08
-2.13389e-07
-3.62658e-08
-2.5019e-07
-3.5287e-08
-2.64056e-07
-3.08888e-08
-2.63459e-07
-3.0354e-08
-3.28706e-08
-2.53726e-07
-9.0381e-08
-9.46985e-08
6.62935e-08
-1.14621e-07
-9.93224e-08
-1.38218e-07
-7.86044e-08
-1.59324e-07
-3.2186e-08
-1.92896e-07
-7.8216e-09
-2.31514e-07
-9.88082e-09
-2.4927e-07
-1.61657e-08
-2.45787e-07
-2.66489e-08
-2.44606e-07
-3.16557e-08
-3.96669e-08
-2.53599e-07
-1.13263e-07
-8.85909e-08
9.84512e-08
-1.31747e-07
-8.04808e-08
-1.61483e-07
-4.84945e-08
-1.74526e-07
-1.47517e-08
-1.80685e-07
1.00439e-08
-2.25284e-07
1.4051e-08
-2.30302e-07
-1.09614e-08
-2.20869e-07
-3.59805e-08
-2.11084e-07
-4.13841e-08
-4.54696e-08
-2.05206e-07
-1.13917e-07
-6.31211e-08
8.54297e-08
-1.6012e-07
-2.89074e-08
-2.01816e-07
-6.59717e-09
-2.22807e-07
3.38571e-09
-1.96451e-07
9.80471e-09
-1.79776e-07
5.69072e-09
-1.82216e-07
-2.54675e-08
-1.68284e-07
-4.69337e-08
-1.59372e-07
-4.71158e-08
-5.42078e-08
-1.57847e-07
-2.94898e-07
3.57819e-08
2.31275e-07
-3.29954e-07
2.61735e-08
-3.3579e-07
-2.68462e-09
-3.07068e-07
-2.79566e-08
-2.62124e-07
-3.81909e-08
-1.93512e-07
-6.55075e-08
-1.37105e-07
-8.44038e-08
-9.44926e-08
-9.41366e-08
-9.22594e-08
-8.00032e-08
-7.68709e-08
-7.84786e-08
-3.95605e-07
4.17828e-08
3.77924e-07
-4.43206e-07
1.78918e-08
-4.00076e-07
-4.57877e-08
-3.34218e-07
-9.38586e-08
-2.42906e-07
-1.20737e-07
-1.67407e-07
-1.37761e-07
-1.47384e-07
-1.32819e-07
-1.28595e-07
-1.25657e-07
-9.81333e-08
-1.10141e-07
-9.78818e-08
-7.68898e-08
-4.70348e-07
1.66214e-08
4.91159e-07
-4.08301e-07
-4.41448e-08
-3.40378e-07
-1.13688e-07
-2.75609e-07
-1.58617e-07
-2.2522e-07
-1.711e-07
-1.95586e-07
-1.67321e-07
-1.80404e-07
-1.47743e-07
-1.82245e-07
-1.24416e-07
-1.90911e-07
-9.26682e-08
-7.50647e-08
-1.99975e-07
-3.8689e-07
9.89521e-09
2.31313e-07
-4.00439e-07
-5.71281e-08
-3.50702e-07
-1.63414e-07
-3.20682e-07
-1.88608e-07
-3.05769e-07
-1.85933e-07
-3.17222e-07
-1.55606e-07
-3.57963e-07
-7.94351e-08
-3.84947e-07
-3.56138e-08
-3.59601e-07
-3.3353e-08
-7.36658e-08
-3.74066e-07
-1.98052e-07
1.82589e-08
1.88068e-07
-3.36338e-07
-7.38724e-08
-3.46382e-07
-1.53929e-07
-3.71139e-07
-1.63722e-07
-4.22274e-07
-1.34188e-07
-4.25787e-07
-5.43894e-08
-4.01995e-07
-4.36766e-09
-4.79359e-07
-1.45317e-09
-6.4873e-07
-4.69306e-08
-8.9232e-08
-6.44084e-07
-2.23807e-07
2.2165e-08
1.762e-07
-3.10116e-07
-7.76482e-08
-3.50538e-07
-1.14291e-07
-4.03534e-07
-1.10452e-07
-4.59832e-07
-6.95046e-08
-3.53943e-07
5.63977e-09
-4.25597e-07
3.45938e-08
-5.83292e-07
1.65627e-08
-6.37518e-07
-4.97234e-08
-8.23924e-08
-6.44357e-07
-2.62131e-07
1.0929e-10
1.79811e-07
-2.83393e-07
-5.63741e-08
-3.32405e-07
-6.53635e-08
-3.91032e-07
-5.17451e-08
-4.42579e-07
-1.72794e-08
-3.39421e-07
4.42304e-08
-3.70184e-07
7.04877e-08
-6.05918e-07
5.72968e-08
-6.18471e-07
-3.71835e-08
-6.93174e-08
-6.31546e-07
-2.59078e-07
-2.75077e-08
2.86706e-07
-2.63783e-07
-5.16587e-08
-2.80747e-07
-4.83872e-08
-3.06256e-07
-2.62115e-08
-3.38708e-07
1.53192e-08
-3.26695e-07
7.66229e-08
-2.77509e-07
1.06712e-07
-5.42502e-07
1.01864e-07
-6.04094e-07
2.42777e-08
-5.28675e-08
-6.20556e-07
-2.28382e-07
-3.55637e-08
2.36441e-07
-2.15731e-07
-6.42962e-08
-2.01531e-07
-6.25732e-08
-2.01338e-07
-2.63986e-08
-2.2606e-07
4.00921e-08
-1.97397e-07
8.24568e-08
-1.55013e-07
9.16126e-08
-1.31508e-07
8.47283e-08
-2.16515e-07
4.65354e-08
4.01327e-09
-3.56391e-07
-2.73201e-07
-5.26075e-08
2.90242e-07
-2.36371e-07
-1.01112e-07
-1.96788e-07
-1.02149e-07
-1.82595e-07
-4.04296e-08
-1.68787e-07
5.3643e-08
-1.11519e-07
7.83293e-08
-1.03816e-07
8.58087e-08
-9.39147e-08
7.9759e-08
-9.45481e-08
5.35379e-08
2.39803e-08
-1.10372e-07
-2.26085e-07
-4.8912e-08
1.91921e-07
-2.41583e-07
-9.18487e-08
-2.34993e-07
-1.08701e-07
-2.1148e-07
-9.41668e-09
-1.37334e-07
3.40404e-08
-1.1239e-07
4.19405e-08
-8.63285e-08
6.01282e-08
-7.97771e-08
7.51061e-08
-6.60554e-08
5.46873e-08
3.23076e-08
-8.72819e-08
-1.43054e-07
-7.01002e-08
1.4869e-07
-1.92722e-07
-6.5994e-08
-2.47392e-07
-5.33939e-08
-1.76867e-07
-1.45425e-09
-1.38187e-07
6.54741e-08
-2.14635e-07
8.04114e-08
-2.10868e-07
6.44469e-08
-1.61259e-07
3.17607e-08
-1.02751e-07
-2.0971e-09
-1.28463e-09
-6.73055e-08
-1.66449e-07
-7.90527e-08
1.87516e-07
-1.64212e-07
-3.29999e-08
-1.58251e-07
-4.89981e-08
-5.49574e-08
-6.24511e-08
-2.6281e-08
4.85487e-08
-5.33382e-08
9.8558e-08
-1.04436e-07
6.3931e-08
-8.80219e-08
1.68225e-08
-4.59603e-08
-4.24321e-08
-3.54716e-08
5.17949e-09
-1.09578e-07
-2.79328e-08
1.22468e-07
-7.97232e-08
-1.02104e-08
-1.17554e-07
-1.96947e-08
-1.02031e-07
-5.06234e-08
-1.68239e-08
-1.07708e-08
2.84927e-08
4.47232e-08
7.72797e-08
6.23708e-09
8.31887e-08
1.692e-10
8.78012e-08
-4.77192e-08
-5.13529e-08
1.07633e-07
-1.34166e-08
8.77623e-09
-1.8922e-08
-3.1902e-08
8.14108e-09
-4.60885e-08
-5.63992e-09
-7.06383e-08
-2.62879e-08
-5.1711e-08
-3.1801e-08
3.40759e-08
-2.67105e-08
1.13773e-07
-5.86296e-08
1.75909e-07
-4.67607e-08
1.688e-07
-3.64416e-08
-6.30517e-08
1.8255e-07
7.7259e-08
1.34037e-08
-1.00339e-07
8.40264e-08
1.24547e-09
9.31524e-08
-1.48862e-08
1.02121e-07
-3.53983e-08
1.19161e-07
-4.89767e-08
1.50926e-07
-5.86422e-08
1.59212e-07
-6.70363e-08
1.88191e-07
-7.61889e-08
2.36188e-07
-8.49685e-08
-1.36835e-07
3.09767e-07
1.80678e-07
1.32426e-08
-1.80612e-07
1.83077e-07
-1.18054e-09
1.83432e-07
-1.53831e-08
1.91325e-07
-4.34244e-08
2.08434e-07
-6.62048e-08
2.29118e-07
-7.95869e-08
2.66465e-07
-1.04787e-07
3.66496e-07
-1.8021e-07
5.21213e-07
-2.29359e-07
-2.64604e-07
7.09679e-07
1.87658e-07
-1.04975e-08
-1.65163e-07
2.09337e-07
-2.29311e-08
2.63322e-07
-5.39525e-08
3.37123e-07
-1.14142e-07
4.05325e-07
-1.8859e-07
4.92334e-07
-2.33343e-07
6.15563e-07
-2.56048e-07
7.03467e-07
-2.68112e-07
7.54471e-07
-2.80361e-07
-2.86014e-07
7.75883e-07
3.07503e-07
-9.27019e-08
-2.21561e-07
4.04433e-07
-1.14681e-07
4.84788e-07
-1.50363e-07
5.65096e-07
-1.94444e-07
6.10503e-07
-2.33991e-07
6.40361e-07
-2.63195e-07
6.69208e-07
-2.84889e-07
6.97904e-07
-2.96806e-07
7.18237e-07
-3.00688e-07
-3.00585e-07
7.32811e-07
4.44035e-07
-1.34267e-07
-4.02411e-07
4.92366e-07
-1.63001e-07
5.38515e-07
-1.965e-07
5.75585e-07
-2.31507e-07
6.03156e-07
-2.61556e-07
6.24721e-07
-2.84754e-07
6.3888e-07
-2.99042e-07
6.46939e-07
-3.0486e-07
6.49877e-07
-3.0362e-07
-3.0189e-07
6.51178e-07
4.61588e-07
-1.54132e-07
-4.38237e-07
4.84122e-07
-1.85472e-07
5.0798e-07
-2.20347e-07
5.28713e-07
-2.52233e-07
5.45208e-07
-2.78046e-07
5.57603e-07
-2.97143e-07
5.65085e-07
-3.06518e-07
5.69093e-07
-3.08856e-07
5.78024e-07
-3.12548e-07
-3.18058e-07
5.94225e-07
4.67747e-07
-1.4643e-07
-4.74837e-07
4.6948e-07
-1.87023e-07
4.78418e-07
-2.2915e-07
4.8694e-07
-2.60742e-07
4.92039e-07
-2.83137e-07
4.94479e-07
-2.99576e-07
4.98846e-07
-3.10893e-07
5.09826e-07
-3.1731e-07
5.42227e-07
-3.44608e-07
-3.90338e-07
6.1455e-07
4.44449e-07
-1.01533e-07
-4.72646e-07
4.44788e-07
-1.7156e-07
4.4899e-07
-2.30847e-07
4.49368e-07
-2.61079e-07
4.43232e-07
-2.76984e-07
4.32376e-07
-2.88685e-07
4.214e-07
-3.05123e-07
4.67654e-07
-3.58878e-07
5.73084e-07
-4.46642e-07
-5.05811e-07
6.88994e-07
3.6041e-07
-8.04577e-08
-3.60278e-07
4.18942e-07
-1.60008e-07
4.11336e-07
-2.22525e-07
3.87346e-07
-2.36839e-07
3.3162e-07
-2.19624e-07
2.86428e-07
-2.36982e-07
3.45036e-07
-3.72083e-07
4.89239e-07
-5.04447e-07
6.3606e-07
-5.84635e-07
-4.95921e-07
6.53777e-07
2.93923e-07
-1.01052e-07
-2.76635e-07
3.55768e-07
-1.64766e-07
3.28235e-07
-1.90844e-07
2.60597e-07
-1.71054e-07
1.97168e-07
-1.64183e-07
2.39323e-07
-2.87124e-07
4.00712e-07
-5.415e-07
5.39444e-07
-6.49012e-07
5.45394e-07
-5.514e-07
-4.86474e-07
5.5069e-07
2.56524e-07
-1.01466e-07
-2.28609e-07
2.31363e-07
-1.321e-07
1.98946e-07
-1.54509e-07
1.45291e-07
-1.34347e-07
1.22183e-07
-1.49522e-07
2.7987e-07
-4.68783e-07
4.29645e-07
-7.1312e-07
4.04711e-07
-5.68483e-07
3.96528e-07
-4.91234e-07
-4.51598e-07
3.86418e-07
1.86761e-07
-6.33264e-08
-2.28703e-07
1.74304e-07
-1.26706e-07
1.72523e-07
-1.4881e-07
1.44586e-07
-1.05993e-07
1.6754e-07
-1.91117e-07
3.41307e-07
-6.60428e-07
3.23588e-07
-6.30893e-07
3.03831e-07
-5.06617e-07
2.75892e-07
-4.47709e-07
-4.82823e-07
2.75965e-07
1.60973e-07
-1.48322e-08
-2.11238e-07
1.45541e-07
-1.10558e-07
1.37417e-07
-1.35078e-07
1.22762e-07
-9.34207e-08
2.05976e-07
-2.77411e-07
2.71528e-07
-7.21816e-07
2.65956e-07
-5.82563e-07
2.51147e-07
-5.01401e-07
2.44564e-07
-4.2593e-07
-4.71307e-07
2.51858e-07
2.18153e-07
1.26415e-08
-2.45611e-07
1.31958e-07
-5.48964e-08
8.73472e-08
-5.30285e-08
1.27706e-07
-7.07354e-08
1.81096e-07
-2.78727e-07
2.66009e-07
-7.19561e-07
2.43674e-07
-5.69821e-07
2.15347e-07
-4.82666e-07
2.56912e-07
-4.70944e-07
-4.47003e-07
2.5121e-07
2.41849e-07
4.42226e-08
-2.73413e-07
7.41344e-08
4.61795e-10
4.76331e-08
-2.84791e-08
1.17219e-07
-5.636e-08
2.39608e-07
-3.22867e-07
3.39918e-07
-7.7599e-07
3.42323e-07
-6.20421e-07
2.95308e-07
-4.50707e-07
2.12901e-07
-4.08656e-07
-3.8845e-07
1.73159e-07
1.36283e-07
6.55328e-08
-2.44501e-07
7.27655e-08
1.87079e-08
7.27945e-08
-2.94517e-08
7.76238e-08
-6.20907e-08
2.24284e-07
-4.4924e-07
2.53414e-07
-8.08119e-07
2.12945e-07
-6.28215e-07
1.22227e-07
-3.75283e-07
1.21691e-07
-4.00486e-07
-3.59392e-07
1.11299e-07
3.96469e-08
3.87319e-08
-7.31297e-08
4.31655e-08
1.3994e-08
6.37733e-08
-5.0961e-08
7.29921e-08
-7.22237e-08
1.734e-07
-5.43428e-07
1.873e-07
-8.24288e-07
1.17188e-07
-5.99498e-07
2.79398e-08
-3.01328e-07
1.1663e-08
-3.69278e-07
-2.16041e-07
-1.23593e-08
8.52143e-08
4.45104e-08
-6.0102e-08
9.45591e-08
1.55535e-08
1.02721e-07
-5.64923e-08
9.92399e-08
-7.21311e-08
1.55397e-07
-6.20564e-07
1.65729e-07
-8.35491e-07
6.90568e-08
-5.91e-07
-6.57243e-09
-2.40992e-07
-6.09792e-08
-3.00087e-07
-1.09011e-07
-1.1266e-08
1.09427e-07
3.80856e-08
-1.03399e-07
1.25632e-07
2.49532e-08
9.65857e-08
-1.02216e-08
7.3118e-08
-6.70318e-08
1.37806e-07
-7.05314e-07
1.24427e-07
-8.21774e-07
8.13902e-09
-5.3226e-07
-5.11853e-08
-2.052e-07
-5.1477e-08
-2.65717e-07
-7.17223e-08
-1.04987e-08
8.64861e-08
4.61089e-08
-9.49222e-08
5.59717e-08
5.50477e-08
2.90426e-08
3.29603e-08
5.88323e-08
-1.05187e-07
1.22825e-07
-7.70377e-07
1.14031e-07
-8.11264e-07
-6.40123e-09
-3.0362e-07
-3.73215e-08
-2.69783e-07
-2.8994e-08
-2.54181e-07
-6.40029e-08
-6.79916e-09
7.5995e-08
6.99404e-08
-7.66228e-08
5.86395e-08
8.31928e-08
-1.80375e-09
1.04179e-07
4.25536e-08
-1.56896e-07
8.06887e-08
-8.10958e-07
5.65863e-08
-7.87256e-07
9.51827e-10
-2.30052e-07
-3.30577e-08
-2.36681e-07
-3.45786e-08
-2.68663e-07
-1.20597e-07
-2.12191e-08
-9.311e-08
8.17258e-08
9.24716e-08
-8.18748e-08
8.3211e-08
-2.5766e-08
3.53444e-08
4.50438e-08
-2.57451e-07
2.22322e-08
-7.90444e-07
-1.16027e-08
-7.49367e-07
-1.42465e-07
-1.18436e-07
-1.96692e-07
-1.82453e-07
-2.97682e-07
-1.99312e-07
-2.19714e-07
-2.47921e-07
-1.07239e-07
6.48326e-08
1.50793e-07
-7.47934e-08
5.65183e-08
-3.09887e-08
-4.53378e-09
-4.62856e-08
-2.33036e-07
-2.80326e-08
-8.06906e-07
-2.01445e-08
-7.52736e-07
-5.19873e-08
-9.01033e-08
-1.82588e-07
-5.18513e-08
-2.85335e-07
-9.65632e-08
-9.64119e-08
-4.08633e-07
-4.05253e-08
6.27161e-08
5.95083e-08
-2.35583e-08
6.48111e-08
-2.87942e-08
2.91324e-09
-2.4912e-08
-2.17553e-07
-2.27395e-08
-8.07288e-07
-1.66158e-08
-7.49581e-07
-1.45238e-08
-9.10389e-08
-1.33726e-07
6.73527e-08
-2.78025e-07
4.77364e-08
-5.29784e-09
-3.69139e-07
4.29917e-08
-2.95731e-08
5.60378e-08
5.77719e-08
4.09632e-08
2.30566e-08
3.80275e-08
1.26783e-08
-1.95764e-07
1.27209e-08
-8.04664e-07
3.06606e-08
-7.58581e-07
1.01391e-07
-1.62898e-07
1.24165e-07
7.59748e-08
-1.32795e-08
1.88644e-07
1.35317e-07
-1.53894e-07
-3.05931e-08
-5.94097e-08
6.31541e-08
-3.02624e-08
4.50984e-08
-6.69055e-08
7.90537e-08
-5.77887e-08
-1.94399e-07
-1.89187e-08
-8.43389e-07
-3.75807e-09
-7.70226e-07
2.51465e-08
-1.946e-07
6.32222e-08
3.81496e-08
1.33768e-07
9.72413e-08
1.82239e-07
8.68471e-08
-2.88861e-08
-2.27996e-08
1.60017e-08
-2.76033e-08
1.31805e-08
-7.70816e-09
4.94683e-08
2.83273e-08
-2.34142e-07
2.37305e-08
-8.38456e-07
1.32861e-08
-7.58405e-07
1.08542e-08
-1.91246e-07
8.73257e-08
-3.76195e-08
1.34761e-07
5.00563e-08
9.71817e-08
2.01395e-07
-4.16409e-08
1.26172e-11
8.45728e-09
-3.73491e-08
0
-4.3905e-09
8.19364e-09
-5.03417e-09
-2.44232e-07
-5.74881e-09
-8.37658e-07
3.36316e-09
-7.66578e-07
2.46839e-09
-1.8194e-07
2.59143e-08
-5.22696e-08
3.72068e-08
3.60922e-08
4.82364e-08
8.32648e-08
-5.69051e-10
-7.0841e-12
5.95676e-10
-5.13031e-09
-1.37028e-10
7.31309e-10
-5.78778e-10
-4.29721e-09
-2.43938e-07
-3.42458e-08
-8.08148e-07
-3.61617e-08
-7.65483e-07
-3.15119e-08
-1.83188e-07
-6.863e-08
-6.10878e-09
-2.85677e-08
5.42883e-09
7.71946e-09
1.18363e-08
-4.70645e-11
-8.51846e-12
5.58959e-11
-7.47429e-11
-1.02691e-10
4.38158e-10
-1.08305e-09
-6.28071e-09
-2.39661e-07
-2.70205e-08
-7.89036e-07
-2.15302e-08
-7.73534e-07
1.25559e-10
-2.02469e-07
-6.79252e-09
2.50465e-09
4.9841e-08
-4.14658e-08
9.12128e-09
5.66819e-08
-6.32287e-13
-4.31212e-13
7.8998e-13
0
-6.72684e-11
-1.06032e-09
-1.9244e-11
-2.57183e-08
-2.21296e-07
-2.65177e-08
-7.90696e-07
-1.37594e-08
-7.82899e-07
8.82127e-09
-2.21022e-07
2.81184e-08
-1.12307e-09
4.18667e-11
-4.21163e-09
8.97169e-13
3.52533e-09
3.49453e-11
-1.08672e-10
-1.30202e-11
4.919e-11
-1.0417e-10
4.96765e-11
-1.47956e-11
2.07336e-09
-2.27282e-07
-1.96196e-08
-7.71577e-07
-3.08573e-08
-7.67357e-07
-7.82445e-09
-2.36543e-07
4.19883e-09
-5.56488e-12
2.10467e-12
-1.49548e-11
2.43829e-13
2.0347e-12
8.76837e-11
-1.71222e-10
1.02589e-11
4.69627e-11
-1.18264e-10
4.25694e-11
-7.60721e-12
1.49378e-08
-2.55443e-07
-9.94459e-09
-7.49844e-07
-2.89978e-08
-7.45921e-07
-2.96299e-12
-2.56444e-07
3.65248e-12
-1.29243e-11
4.0673e-12
-1.61106e-11
1.91456e-12
1.67325e-12
6.3563e-12
-1.16848e-11
2.69403e-11
2.66371e-11
-1.46256e-10
2.3485e-11
-4.33673e-12
1.09596e-08
-2.68402e-07
-3.73485e-09
-7.33187e-07
-1.77124e-08
-7.3257e-07
-1.03286e-11
-2.71182e-07
-7.51765e-12
-1.64648e-11
-4.89929e-12
8.7558e-12
4.27085e-12
-8.0143e-12
-1.09347e-11
-7.52791e-13
0
1.22419e-11
-1.25785e-10
1.12231e-11
-3.50012e-12
4.14107e-08
-3.03617e-07
1.36598e-08
-7.03361e-07
-1.23661e-08
-7.08536e-07
-3.43348e-11
-2.95508e-07
-3.36475e-11
-1.7903e-11
-7.36417e-12
5.43903e-11
6.0091e-12
-9.52152e-12
3.03695e-14
-8.15636e-13
2.25843e-14
6.07591e-12
-8.37786e-13
6.45177e-12
-4.15824e-12
1.70953e-08
-3.16966e-07
5.47138e-09
-6.90396e-07
-1.10586e-08
-6.90768e-07
-3.97074e-11
-3.08165e-07
-3.65625e-11
-2.03409e-11
-5.81541e-12
6.53633e-11
7.0963e-12
-5.65146e-12
1.31714e-13
-8.41293e-13
-1.22867e-13
1.96008e-13
-9.26153e-13
1.37494e-11
-1.77326e-11
2.7026e-08
-3.39141e-07
-7.70303e-10
-6.62544e-07
-3.78118e-08
-6.53303e-07
-4.27688e-11
-3.36906e-07
-3.90009e-11
-1.99608e-11
-5.20479e-12
7.1252e-11
3.53006e-11
-4.65325e-13
3.35025e-13
-9.43548e-13
-2.56844e-13
3.08343e-13
-9.21308e-13
8.59216e-11
-1.03372e-10
1.67274e-08
-3.47875e-07
1.06013e-09
-6.4651e-07
-1.31964e-08
-6.39625e-07
-2.60105e-11
-3.42717e-07
-2.33483e-11
-2.56724e-11
-8.059e-12
9.19425e-12
2.86712e-11
5.05604e-12
6.40686e-13
-1.83791e-12
0
7.42552e-13
-1.04972e-12
5.69444e-10
-6.72138e-10
3.71022e-08
-3.81446e-07
-8.86297e-09
-6.01236e-07
-3.28152e-08
-6.15244e-07
-9.48441e-11
-3.76463e-07
-4.44645e-12
-1.18762e-10
5.69733e-13
1.06247e-12
5.4953e-12
4.04421e-12
1.52199e-12
-5.66664e-12
-1.11657e-11
1.5668e-12
-1.15815e-12
3.18924e-09
-3.86001e-09
1.62473e-08
-4.06919e-07
-9.6317e-10
-5.83768e-07
-3.90896e-08
-5.77169e-07
-6.72337e-10
-4.19473e-07
-1.2329e-12
-7.90566e-10
1.61165e-13
-9.30566e-13
2.07405e-12
3.10456e-12
3.12123e-12
-5.24979e-12
-1.1822e-11
3.00739e-12
-1.24248e-12
1.47367e-08
-1.8594e-08
4.87299e-08
-4.43216e-07
2.68675e-08
-5.6187e-07
-8.33794e-09
-5.42235e-07
-3.72243e-09
-4.29101e-07
-9.87845e-12
-4.50422e-09
6.62719e-13
-1.19496e-11
9.87119e-13
1.27179e-12
5.35903e-12
-3.12787e-12
-9.53058e-12
6.02999e-12
-2.24575e-12
3.48761e-08
-5.29026e-08
6.6781e-08
-4.7103e-07
2.55705e-08
-5.20721e-07
1.22784e-08
-5.29385e-07
-5.81234e-09
-4.16073e-07
1.14591e-11
-1.29677e-08
1.1565e-12
-2.37376e-12
1.09157e-12
4.71296e-13
4.98326e-12
-2.07208e-12
-3.63576e-12
1.69774e-11
-1.46022e-11
4.8897e-08
-1.0544e-07
4.15084e-08
-4.66244e-07
4.19374e-09
-4.83383e-07
-3.2243e-08
-4.92995e-07
-2.12569e-08
-4.21026e-07
-4.52041e-12
-3.34652e-08
-2.08203e-12
-5.8383e-12
6.38673e-13
-2.42036e-12
1.07927e-11
-1.32674e-12
-9.69213e-12
1.78263e-10
-1.82289e-10
5.12647e-08
-1.52806e-07
2.61135e-08
-4.40392e-07
-5.00094e-09
-4.5225e-07
-4.02339e-08
-4.57745e-07
-4.24316e-08
-4.22809e-07
-5.85234e-11
-8.0373e-08
-4.22067e-12
-6.12545e-11
5.99161e-13
-5.20732e-12
2.21053e-11
-2.0315e-12
-1.93268e-11
2.51357e-09
-2.67271e-09
7.91764e-08
-2.2091e-07
3.68069e-08
-3.9725e-07
-5.36289e-09
-4.10086e-07
-5.02814e-08
-4.12824e-07
-6.94095e-08
-4.05164e-07
-1.12144e-09
-1.53954e-07
-1.32663e-11
-1.1706e-09
5.97892e-13
-1.42833e-11
2.38561e-11
-1.94727e-11
-4.41388e-12
1.89924e-08
-2.16393e-08
8.12811e-08
-2.81252e-07
5.12324e-08
-3.67207e-07
9.8789e-09
-3.68731e-07
-4.07693e-08
-3.62181e-07
-9.6516e-08
-3.49436e-07
-1.36297e-08
-2.38643e-07
-5.24196e-12
-1.47962e-08
-2.15429e-12
-3.56503e-12
1.59794e-09
-1.59529e-09
-2.22679e-11
6.35044e-08
-8.00831e-08
8.17004e-08
-2.96314e-07
2.62327e-08
-3.11738e-07
-2.54865e-08
-3.17012e-07
-7.03082e-08
-3.17359e-07
-1.0454e-07
-3.15209e-07
-5.32578e-08