/*--------------------------------*- C++ -*----------------------------------*\
  =========                 |
  \\      /  F ield         | OpenFOAM: The Open Source CFD Toolbox
   \\    /   O peration     | Website:  https://openfoam.org
    \\  /    A nd           | Version:  8
     \\/     M anipulation  |
\*---------------------------------------------------------------------------*/
FoamFile
{
    version     2.0;
    format      ascii;
    class       surfaceScalarField;
    location    "6.95";
    object      phi;
}
// * * * * * * * * * * * * * * * * * * * * * * * * * * * * * * * * * * * * * //

dimensions      [0 3 -1 0 0 0 0];

internalField   nonuniform List<scalar> 
18095
(
1.99772e-08
-1.72113e-07
1.52136e-07
2.3174e-08
-1.97483e-07
1.94286e-07
1.99682e-08
-2.06091e-07
2.09296e-07
1.08602e-08
-2.10936e-07
2.20044e-07
-8.66649e-10
-2.13237e-07
2.24964e-07
-1.233e-08
-2.13208e-07
2.24671e-07
-2.06143e-08
-2.11231e-07
2.19516e-07
-2.3275e-08
-2.06214e-07
2.08874e-07
-1.99932e-08
-1.9746e-07
1.94178e-07
-1.72028e-07
1.52034e-07
1.55222e-08
-1.87635e-07
1.6175e-08
-1.98136e-07
1.19914e-08
-2.01907e-07
6.23766e-09
-2.05182e-07
-2.02238e-10
-2.06797e-07
-6.22787e-09
-2.07182e-07
-1.1881e-08
-2.05578e-07
-1.61967e-08
-2.01898e-07
-1.55705e-08
-1.98086e-07
-1.87598e-07
6.78729e-09
-1.94423e-07
8.38564e-09
-1.99734e-07
7.39945e-09
-2.00921e-07
4.61627e-09
-2.02399e-07
5.15906e-10
-2.02697e-07
-4.01649e-09
-2.0265e-07
-7.45285e-09
-2.02142e-07
-8.44897e-09
-2.00902e-07
-6.80888e-09
-1.99726e-07
-1.94407e-07
4.50912e-09
-1.98932e-07
4.71648e-09
-1.99942e-07
3.64884e-09
-1.99853e-07
1.6039e-09
-2.00354e-07
-3.52489e-10
-2.00741e-07
-2.07018e-09
-2.00932e-07
-3.72834e-09
-2.00484e-07
-4.75466e-09
-1.99876e-07
-4.52283e-09
-1.99958e-07
-1.9893e-07
1.06832e-09
1.1268e-09
1.27364e-09
9.19851e-10
1.7924e-10
-7.52899e-10
-1.23658e-09
-1.11214e-09
-1.07006e-09
-2.88266e-08
-1.95829e-07
2.24656e-07
-3.13262e-08
-1.99085e-07
2.01585e-07
-2.57122e-08
-2.01111e-07
1.95497e-07
-1.4395e-08
-2.01666e-07
1.90349e-07
1.73889e-10
-2.02071e-07
1.87502e-07
1.45932e-08
-2.02084e-07
1.87664e-07
2.56905e-08
-2.01801e-07
1.90704e-07
3.10989e-08
-2.01111e-07
1.95702e-07
2.85545e-08
-1.99274e-07
2.01819e-07
-1.95967e-07
2.24522e-07
-9.53685e-09
-1.86292e-07
-1.55144e-08
-1.93108e-07
-1.34447e-08
-2.03181e-07
-7.28912e-09
-2.07822e-07
-1.35839e-09
-2.08002e-07
4.85346e-09
-2.08296e-07
1.19717e-08
-2.08919e-07
1.51217e-08
-2.04261e-07
9.45332e-09
-1.93606e-07
-1.86514e-07
-9.73161e-09
-1.7656e-07
-7.49286e-09
-1.95347e-07
-5.64327e-09
-2.0503e-07
-2.95207e-09
-2.10513e-07
2.24905e-09
-2.13203e-07
7.21692e-09
-2.13263e-07
7.9703e-09
-2.09673e-07
8.27431e-09
-2.04565e-07
9.93632e-09
-1.95268e-07
-1.76578e-07
-6.41871e-09
-1.70142e-07
-8.35956e-09
-1.93406e-07
-8.21282e-09
-2.05177e-07
-3.93054e-09
-2.14795e-07
-6.94654e-10
-2.16439e-07
2.48555e-09
-2.16444e-07
7.25859e-09
-2.14446e-07
8.13486e-09
-2.05441e-07
6.43384e-09
-1.93567e-07
-1.70144e-07
-1.80059e-08
-1.71256e-08
-1.30061e-08
-7.75764e-09
7.67758e-10
8.99528e-09
1.40649e-08
1.74984e-08
1.81092e-08
3.52728e-08
-1.59302e-07
1.2403e-07
4.09629e-08
-2.00036e-07
1.94346e-07
3.58375e-08
-2.11621e-07
2.16746e-07
2.28682e-08
-2.16527e-07
2.29496e-07
5.23223e-09
-2.17484e-07
2.3512e-07
-1.31741e-08
-2.16878e-07
2.35284e-07
-2.95955e-08
-2.15112e-07
2.31534e-07
-3.97734e-08
-2.09662e-07
2.1984e-07
-3.73328e-08
-1.96994e-07
1.94554e-07
-1.56383e-07
1.1905e-07
1.63085e-08
-1.75611e-07
1.81173e-08
-2.01845e-07
1.45489e-08
-2.08052e-07
7.20797e-09
-2.09186e-07
-2.14416e-09
-2.08132e-07
-1.15683e-08
-2.07454e-07
-1.88137e-08
-2.07867e-07
-2.15848e-08
-2.06891e-07
-1.80189e-08
-2.0056e-07
-1.74402e-07
7.70556e-09
-1.83316e-07
8.05842e-09
-2.02198e-07
6.58036e-09
-2.06574e-07
1.35679e-09
-2.03963e-07
-1.88761e-09
-2.04888e-07
-4.80812e-09
-2.04533e-07
-8.13808e-09
-2.04537e-07
-9.09503e-09
-2.05934e-07
-8.26621e-09
-2.01389e-07
-1.82668e-07
7.47977e-09
-1.90796e-07
4.88867e-09
-1.99606e-07
5.9111e-09
-2.07597e-07
2.17142e-09
-2.00223e-07
6.45679e-10
-2.03362e-07
-1.09274e-09
-2.02795e-07
-6.59863e-09
-1.99031e-07
-5.73744e-09
-2.06795e-07
-7.75578e-09
-1.99371e-07
-1.90424e-07
3.38594e-08
3.58379e-08
2.3738e-08
1.38641e-08
-1.99585e-09
-1.71262e-08
-2.54534e-08
-3.65461e-08
-3.4098e-08
4.21143e-07
-1.95572e-08
-4.01586e-07
4.36895e-07
-1.57473e-08
4.53709e-07
-1.6814e-08
4.71582e-07
-1.78732e-08
4.90383e-07
-1.88008e-08
5.09894e-07
-1.9511e-08
5.27625e-07
-1.77305e-08
5.4087e-07
-1.32455e-08
5.46202e-07
-5.33186e-09
3.11424e-09
5.43088e-07
4.25565e-07
-4.96678e-08
-3.95455e-07
4.49164e-07
-3.93473e-08
4.67322e-07
-3.49731e-08
4.83471e-07
-3.40228e-08
4.96943e-07
-3.22734e-08
5.0608e-07
-2.86479e-08
5.13104e-07
-2.47554e-08
5.14647e-07
-1.47883e-08
5.09065e-07
2.4921e-10
9.48743e-09
5.02692e-07
3.99971e-07
-6.95494e-08
-3.8009e-07
4.20959e-07
-6.03348e-08
4.39996e-07
-5.40105e-08
4.57597e-07
-5.16242e-08
4.7089e-07
-4.55663e-08
4.77913e-07
-3.56712e-08
4.81841e-07
-2.86834e-08
4.81628e-07
-1.45752e-08
4.775e-07
4.37672e-09
1.70063e-08
4.69981e-07
4.05981e-07
-8.82601e-08
-3.8727e-07
4.24336e-07
-7.86909e-08
4.41719e-07
-7.13933e-08
4.54161e-07
-6.40659e-08
4.62318e-07
-5.37239e-08
4.66887e-07
-4.02401e-08
4.68159e-07
-2.99553e-08
4.68518e-07
-1.49344e-08
4.65533e-07
7.36126e-09
2.56504e-08
4.56889e-07
3.50764e-07
-9.8729e-08
-3.40295e-07
3.61488e-07
-8.94153e-08
3.68832e-07
-7.87371e-08
3.67362e-07
-6.2596e-08
3.66961e-07
-5.33234e-08
3.70936e-07
-4.42148e-08
3.78886e-07
-3.79057e-08
3.92319e-07
-2.83676e-08
3.92283e-07
7.39782e-09
4.6644e-08
3.71289e-07
2.21383e-07
-9.53218e-08
-2.2479e-07
2.13676e-07
-8.17086e-08
1.99279e-07
-6.4341e-08
1.88028e-07
-5.13442e-08
1.94534e-07
-5.98301e-08
2.09911e-07
-5.95915e-08
2.15368e-07
-4.33634e-08
2.11098e-07
-2.4097e-08
1.92371e-07
2.6125e-08
7.80752e-08
1.60939e-07
6.45758e-08
-7.57389e-08
-8.41587e-08
5.09779e-08
-6.81108e-08
4.5313e-08
-5.86763e-08
4.86394e-08
-5.46706e-08
4.46082e-08
-5.5799e-08
2.23882e-08
-3.73716e-08
-1.35586e-08
-7.41653e-09
-6.08849e-08
2.32292e-08
-9.55539e-08
6.07939e-08
9.61627e-08
-1.13641e-07
-2.34838e-08
-6.84313e-08
1.61762e-08
-3.67563e-08
-5.48384e-08
-4.82586e-08
-4.7174e-08
-7.19855e-08
-3.09437e-08
-1.14203e-07
-1.35813e-08
-1.58227e-07
6.65205e-09
-1.94045e-07
2.84012e-08
-2.22915e-07
5.20999e-08
-2.42264e-07
8.01427e-08
1.01841e-07
-2.47943e-07
-9.84272e-08
-6.78149e-08
9.78108e-08
-1.17546e-07
-3.5719e-08
-1.46319e-07
-1.84018e-08
-1.80492e-07
3.22927e-09
-2.03402e-07
9.32965e-09
-2.17366e-07
2.06158e-08
-2.30041e-07
4.1076e-08
-2.40247e-07
6.23056e-08
-2.44293e-07
8.41886e-08
9.29932e-08
-2.35445e-07
-1.41797e-07
-6.4555e-08
1.38537e-07
-1.58776e-07
-1.87392e-08
-1.76449e-07
-7.28923e-10
-1.93919e-07
2.06993e-08
-2.09575e-07
2.49856e-08
-2.18496e-07
2.95371e-08
-2.08766e-07
3.13453e-08
-1.89982e-07
4.3522e-08
-1.70117e-07
6.43235e-08
6.43162e-08
-1.4144e-07
-1.52102e-07
-7.4564e-08
1.62111e-07
-1.47561e-07
-2.32803e-08
-1.44566e-07
-3.72339e-09
-1.44088e-07
2.02211e-08
-1.42053e-07
2.2951e-08
-1.3486e-07
2.23436e-08
-1.19619e-07
1.61049e-08
-1.01768e-07
2.56713e-08
-7.94036e-08
4.19589e-08
4.28401e-08
-5.79274e-08
-1.66654e-07
-5.92285e-08
1.51319e-07
-1.60207e-07
-2.97267e-08
-1.43894e-07
-2.00369e-08
-1.19425e-07
-4.24762e-09
-1.00598e-07
4.12439e-09
-8.72759e-08
9.02126e-09
-8.57265e-08
1.45555e-08
-8.60992e-08
2.6044e-08
-7.98598e-08
3.57197e-08
4.595e-08
-8.29697e-08
-2.63599e-07
-5.28634e-08
2.57234e-07
-2.55978e-07
-3.73471e-08
-2.43948e-07
-3.20671e-08
-2.20615e-07
-2.75808e-08
-1.96872e-07
-1.96188e-08
-1.80988e-07
-6.8622e-09
-1.74922e-07
8.48943e-09
-1.73382e-07
2.45042e-08
-1.78944e-07
4.12816e-08
6.2118e-08
-1.95112e-07
-3.09017e-07
-5.13519e-08
3.07506e-07
-3.02784e-07
-4.35804e-08
-2.9405e-07
-4.0801e-08
-2.83208e-07
-3.84232e-08
-2.70481e-07
-3.2345e-08
-2.55745e-07
-2.15988e-08
-2.42497e-07
-4.7582e-09
-2.37208e-07
1.92152e-08
-2.40684e-07
4.47575e-08
6.96302e-08
-2.48196e-07
-3.14791e-07
-4.80999e-08
3.11539e-07
-3.14617e-07
-4.37544e-08
-3.12749e-07
-4.26686e-08
-3.12778e-07
-3.83937e-08
-3.09946e-07
-3.5177e-08
-3.01361e-07
-3.01837e-08
-2.85379e-07
-2.07403e-08
-2.67463e-07
1.29934e-09
-2.5659e-07
3.38841e-08
6.59032e-08
-2.52863e-07
-2.75049e-07
-5.06242e-08
2.77574e-07
-2.69943e-07
-4.8861e-08
-2.69796e-07
-4.28148e-08
-2.69544e-07
-3.8646e-08
-2.69991e-07
-3.47301e-08
-2.77126e-07
-2.30492e-08
-2.78847e-07
-1.90187e-08
-2.75892e-07
-1.65594e-09
-2.60335e-07
1.8327e-08
4.19568e-08
-2.36388e-07
-2.30987e-07
-5.66063e-08
2.36969e-07
-2.264e-07
-5.34479e-08
-2.20969e-07
-4.82458e-08
-2.16168e-07
-4.34468e-08
-2.12432e-07
-3.84662e-08
-1.92706e-07
-4.27757e-08
-1.92916e-07
-1.88082e-08
-1.94395e-07
-1.77624e-10
-1.82257e-07
6.18936e-09
1.12368e-08
-1.51537e-07
-2.22028e-07
-6.42457e-08
2.29667e-07
-2.15705e-07
-5.97711e-08
-2.07197e-07
-5.67535e-08
-1.97183e-07
-5.34605e-08
-1.86393e-07
-4.92562e-08
-1.85021e-07
-4.41477e-08
-1.7333e-07
-3.04994e-08
-1.4821e-07
-2.52975e-08
-1.17529e-07
-2.44924e-08
-1.77195e-09
-1.0452e-07
-2.06239e-07
-6.81512e-08
2.10144e-07
-2.00867e-07
-6.51426e-08
-1.95246e-07
-6.23752e-08
-1.90946e-07
-5.776e-08
-1.86583e-07
-5.36193e-08
-1.80175e-07
-5.05557e-08
-1.65693e-07
-4.49815e-08
-1.5031e-07
-4.06806e-08
-1.39861e-07
-3.49417e-08
-1.99884e-08
-1.21644e-07
-1.89275e-07
-7.90527e-08
2.00177e-07
-1.79543e-07
-7.48752e-08
-1.72401e-07
-6.9517e-08
-1.67735e-07
-6.24254e-08
-1.64633e-07
-5.67214e-08
-1.61646e-07
-5.35427e-08
-1.56157e-07
-5.04708e-08
-1.51188e-07
-4.56494e-08
-1.4606e-07
-4.00698e-08
-3.13021e-08
-1.34747e-07
-1.70985e-07
-9.48256e-08
1.86758e-07
-1.60653e-07
-8.52075e-08
-1.50121e-07
-8.00482e-08
-1.41616e-07
-7.09312e-08
-1.30357e-07
-6.79796e-08
-1.22873e-07
-6.10269e-08
-1.15094e-07
-5.825e-08
-1.06341e-07
-5.44019e-08
-9.7365e-08
-4.90462e-08
-3.73908e-08
-9.12762e-08
-1.36425e-07
-1.11992e-07
1.53591e-07
-1.28507e-07
-9.31249e-08
-1.20749e-07
-8.7806e-08
-1.0867e-07
-8.30107e-08
-9.97396e-08
-7.69097e-08
-9.22955e-08
-6.8471e-08
-8.54853e-08
-6.50601e-08
-7.87028e-08
-6.11844e-08
-7.23274e-08
-5.54215e-08
-4.24715e-08
-6.72467e-08
-5.78076e-08
-1.27921e-07
7.37365e-08
-5.17423e-08
-9.91899e-08
-6.03658e-08
-7.91824e-08
-6.51467e-08
-7.82297e-08
-6.4133e-08
-7.79234e-08
-6.22362e-08
-7.03677e-08
-6.13004e-08
-6.59959e-08
-5.70869e-08
-6.53978e-08
-5.42225e-08
-5.82858e-08
-4.25096e-08
-5.41844e-08
-1.45597e-08
-1.51441e-07
3.80795e-08
-6.86121e-09
-1.06888e-07
4.30518e-09
-9.03487e-08
5.85246e-09
-7.97769e-08
-4.36729e-09
-6.77036e-08
-1.69025e-08
-5.78324e-08
-2.40695e-08
-5.88288e-08
-2.3517e-08
-6.59503e-08
-2.23074e-08
-5.94954e-08
-4.22422e-08
-2.25748e-08
-2.55636e-08
-1.80291e-07
5.44136e-08
3.26444e-09
-1.35716e-07
2.66589e-08
-1.13743e-07
3.30172e-08
-8.6135e-08
3.46534e-08
-6.93397e-08
3.33831e-08
-5.6562e-08
2.84187e-08
-5.38643e-08
2.11166e-08
-5.86481e-08
1.76483e-08
-5.6027e-08
-4.27592e-08
1.81653e-08
-1.74817e-08
-1.93252e-07
3.0443e-08
7.28253e-09
-1.6048e-07
2.96216e-08
-1.36082e-07
5.07084e-08
-1.07222e-07
6.25397e-08
-8.11709e-08
6.23763e-08
-5.63985e-08
5.92408e-08
-5.07287e-08
5.16249e-08
-5.10322e-08
4.12708e-08
-4.56728e-08
-3.43367e-08
3.28485e-08
5.39823e-09
-1.99426e-07
7.76186e-10
2.64862e-08
-1.81568e-07
3.5451e-08
-1.45047e-07
4.14613e-08
-1.13232e-07
5.07306e-08
-9.04402e-08
6.09134e-08
-6.65811e-08
6.25214e-08
-5.23367e-08
5.73886e-08
-4.58993e-08
4.73221e-08
-3.56062e-08
-2.40661e-08
3.70516e-08
1.73937e-09
-1.93889e-07
-7.27671e-09
2.90215e-09
-1.82731e-07
8.42328e-09
-1.50568e-07
1.17183e-08
-1.16527e-07
1.55331e-08
-9.42549e-08
2.52756e-08
-7.63235e-08
3.16036e-08
-5.86645e-08
2.95685e-08
-4.38642e-08
2.29851e-08
-2.90227e-08
-1.95002e-08
1.84191e-08
-1.94183e-08
-1.91045e-07
1.65745e-08
-2.14149e-08
-1.80734e-07
-3.99599e-08
-1.32023e-07
-5.85039e-08
-9.79828e-08
-6.03452e-08
-9.24136e-08
-5.16307e-08
-8.50381e-08
-4.08154e-08
-6.94798e-08
-3.29197e-08
-5.17601e-08
-2.50701e-08
-3.68724e-08
-2.60391e-08
-1.85313e-08
-5.81391e-08
-1.86559e-07
5.36529e-08
-7.0672e-08
-1.68201e-07
-9.74632e-08
-1.05232e-07
-1.14415e-07
-8.10308e-08
-1.16357e-07
-9.04719e-08
-1.08435e-07
-9.29608e-08
-9.20669e-08
-8.58477e-08
-7.32684e-08
-7.05587e-08
-5.86541e-08
-5.14867e-08
-3.55764e-08
-4.91168e-08
-9.32273e-08
-1.7112e-07
7.77882e-08
-1.09448e-07
-1.5198e-07
-1.15103e-07
-9.95771e-08
-1.15832e-07
-8.03015e-08
-1.23022e-07
-8.32826e-08
-1.22682e-07
-9.33009e-08
-1.11843e-07
-9.66859e-08
-1.06717e-07
-7.56848e-08
-1.12944e-07
-4.52599e-08
-2.81847e-08
-1.20335e-07
-1.12904e-07
-1.45237e-07
8.70223e-08
-1.24684e-07
-1.40201e-07
-1.22679e-07
-1.01582e-07
-1.24833e-07
-7.81468e-08
-1.36285e-07
-7.18306e-08
-1.58405e-07
-7.11814e-08
-1.79957e-07
-7.51335e-08
-2.02719e-07
-5.29222e-08
-2.16462e-07
-3.15173e-08
-2.46738e-08
-2.19973e-07
-1.31735e-07
-1.19669e-07
1.06167e-07
-1.47493e-07
-1.24444e-07
-1.43212e-07
-1.05863e-07
-1.61479e-07
-5.98794e-08
-1.88979e-07
-4.43306e-08
-2.23078e-07
-3.70828e-08
-2.63127e-07
-3.50844e-08
-2.83323e-07
-3.27261e-08
-2.81836e-07
-3.3004e-08
-3.52614e-08
-2.71249e-07
-8.98383e-08
-9.61404e-08
6.63102e-08
-1.14854e-07
-9.94289e-08
-1.434e-07
-7.73165e-08
-1.72699e-07
-3.05801e-08
-2.09035e-07
-7.99499e-09
-2.3575e-07
-1.03675e-08
-2.5384e-07
-1.69943e-08
-2.58944e-07
-2.7623e-08
-2.59308e-07
-3.26398e-08
-4.12929e-08
-2.53276e-07
-1.13054e-07
-8.89108e-08
1.05824e-07
-1.32381e-07
-8.01017e-08
-1.62996e-07
-4.67017e-08
-1.80706e-07
-1.28694e-08
-2.01015e-07
1.23135e-08
-2.26901e-07
1.55191e-08
-2.30149e-07
-1.37464e-08
-2.2006e-07
-3.77115e-08
-2.10478e-07
-4.22222e-08
-4.74096e-08
-2.04361e-07
-1.17946e-07
-6.1431e-08
9.04664e-08
-1.65315e-07
-3.27329e-08
-2.06802e-07
-5.21553e-09
-2.23093e-07
3.42234e-09
-2.21625e-07
1.08453e-08
-2.11265e-07
5.15846e-09
-1.91073e-07
-3.39372e-08
-1.73788e-07
-5.49972e-08
-1.64671e-07
-5.13386e-08
-5.63968e-08
-1.55684e-07
-3.47608e-07
3.92902e-08
2.46887e-07
-4.0854e-07
2.81989e-08
-4.06681e-07
-7.07416e-09
-3.73322e-07
-2.99375e-08
-3.17706e-07
-4.47704e-08
-2.33166e-07
-7.93813e-08
-1.66812e-07
-1.00292e-07
-1.24698e-07
-9.71111e-08
-9.73874e-08
-7.86495e-08
-7.6691e-08
-7.70934e-08
-4.56789e-07
4.92817e-08
4.46797e-07
-4.43087e-07
1.44964e-08
-3.97201e-07
-5.29605e-08
-3.28207e-07
-9.89308e-08
-2.48551e-07
-1.24426e-07
-1.88027e-07
-1.39906e-07
-1.54454e-07
-1.33864e-07
-1.27232e-07
-1.24333e-07
-9.71786e-08
-1.08703e-07
-9.66248e-08
-7.72449e-08
-4.71151e-07
1.14e-08
5.09033e-07
-4.05131e-07
-5.1525e-08
-3.36795e-07
-1.21296e-07
-2.73418e-07
-1.62309e-07
-2.25107e-07
-1.72738e-07
-1.97688e-07
-1.67324e-07
-1.84602e-07
-1.4695e-07
-1.89392e-07
-1.19543e-07
-2.02789e-07
-9.53063e-08
-8.28297e-08
-2.16584e-07
-4.37748e-07
5.89381e-09
4.43254e-07
-4.00353e-07
-8.8918e-08
-3.52439e-07
-1.69211e-07
-3.25071e-07
-1.89676e-07
-3.13669e-07
-1.8414e-07
-3.31264e-07
-1.49729e-07
-3.86857e-07
-9.13565e-08
-4.60084e-07
-4.6316e-08
-5.08317e-07
-4.7073e-08
-7.71285e-08
-5.14018e-07
-3.52887e-07
2.01761e-08
3.38605e-07
-3.45585e-07
-9.62182e-08
-3.5801e-07
-1.56786e-07
-3.85507e-07
-1.6218e-07
-4.41107e-07
-1.2854e-07
-5.38327e-07
-5.25088e-08
-6.29614e-07
-6.92948e-11
-6.7071e-07
-5.21913e-09
-6.5864e-07
-5.91424e-08
-9.13759e-08
-6.44392e-07
-3.10784e-07
2.03287e-08
3.10632e-07
-3.225e-07
-8.45003e-08
-3.64712e-07
-1.14575e-07
-4.20531e-07
-1.06361e-07
-4.89162e-07
-5.99083e-08
-5.62894e-07
2.12236e-08
-6.17054e-07
5.40917e-08
-6.35987e-07
1.37149e-08
-6.38077e-07
-5.70525e-08
-8.30213e-08
-6.46432e-07
-2.63721e-07
-7.48447e-09
2.91534e-07
-2.90316e-07
-5.79058e-08
-3.40926e-07
-6.39645e-08
-3.99844e-07
-4.74418e-08
-4.5033e-07
-9.42192e-09
-4.88774e-07
5.96671e-08
-5.52561e-07
1.17879e-07
-6.03435e-07
6.45889e-08
-6.19883e-07
-4.06045e-08
-6.79593e-08
-6.34945e-07
-2.59651e-07
-3.16634e-08
2.8383e-07
-2.65637e-07
-5.19198e-08
-2.82753e-07
-4.68481e-08
-3.08336e-07
-2.18584e-08
-3.40618e-07
2.28604e-08
-3.76716e-07
9.57655e-08
-4.48437e-07
1.896e-07
-5.62724e-07
1.78876e-07
-6.16364e-07
1.30342e-08
-5.84636e-08
-6.2586e-07
-2.26365e-07
-3.91696e-08
2.33872e-07
-2.1304e-07
-6.52445e-08
-1.98318e-07
-6.1569e-08
-1.98581e-07
-2.15951e-08
-2.25529e-07
4.98078e-08
-2.70814e-07
1.41051e-07
-2.88067e-07
2.06853e-07
-3.06234e-07
1.97043e-07
-3.85911e-07
9.27111e-08
2.91639e-09
-4.47291e-07
-2.69296e-07
-5.91974e-08
2.89324e-07
-2.30797e-07
-1.03744e-07
-1.90745e-07
-1.0162e-07
-1.79426e-07
-3.29142e-08
-2.12705e-07
8.30878e-08
-2.37939e-07
1.66283e-07
-2.26467e-07
1.9538e-07
-2.12465e-07
1.8304e-07
-2.31409e-07
1.11655e-07
4.65248e-08
-2.75017e-07
-2.36077e-07
-6.25721e-08
2.39452e-07
-2.37315e-07
-1.02506e-07
-2.31973e-07
-1.06962e-07
-2.66938e-07
2.05063e-09
-2.87649e-07
1.038e-07
-2.49564e-07
1.28197e-07
-1.95848e-07
1.41664e-07
-1.78569e-07
1.65761e-07
-1.52889e-07
8.59751e-08
4.87428e-08
-1.55108e-07
-1.70345e-07
-7.15291e-08
1.79302e-07
-2.07424e-07
-6.54255e-08
-2.58853e-07
-5.55334e-08
-2.59536e-07
2.73365e-09
-3.24652e-07
1.68915e-07
-3.83496e-07
1.87041e-07
-3.42282e-07
1.00451e-07
-2.2624e-07
4.97197e-08
-1.38123e-07
-2.14247e-09
-1.19881e-09
-8.81818e-08
-1.76995e-07
-9.14946e-08
1.9696e-07
-1.9559e-07
-4.68302e-08
-1.87765e-07
-6.33584e-08
-1.04931e-07
-8.01001e-08
-6.66544e-08
1.30639e-07
-1.2115e-07
2.41537e-07
-1.54829e-07
1.34129e-07
-1.29121e-07
2.40122e-08
-5.67349e-08
-7.45283e-08
-7.72943e-08
1.93601e-08
-1.79233e-07
-4.74318e-08
1.3517e-07
-2.05329e-07
-2.07339e-08
-2.17083e-07
-5.1604e-08
-1.75214e-07
-1.21968e-07
-3.38257e-08
-1.07497e-08
9.27102e-08
1.15001e-07
1.88907e-07
3.79324e-08
2.13789e-07
-8.70081e-10
2.24327e-07
-8.50662e-08
-1.27235e-07
2.74268e-07
-3.65869e-08
2.68998e-08
-3.77445e-08
-8.44916e-08
2.71709e-08
-1.23114e-07
-1.29818e-08
-1.76467e-07
-6.86148e-08
-1.06688e-07
-8.05267e-08
7.55679e-08
-6.72535e-08
2.68013e-07
-1.54511e-07
3.94482e-07
-1.27339e-07
4.38525e-07
-1.2911e-07
-1.58618e-07
4.69909e-07
2.09585e-07
3.84438e-08
-2.21129e-07
2.30584e-07
6.17337e-09
2.54623e-07
-3.70211e-08
2.77593e-07
-9.15844e-08
3.26157e-07
-1.29091e-07
4.16201e-07
-1.57297e-07
4.38224e-07
-1.76534e-07
5.01994e-07
-1.91109e-07
5.67788e-07
-1.94905e-07
-2.19825e-07
6.28994e-07
4.93595e-07
3.32536e-08
-4.88405e-07
5.01218e-07
-1.44809e-09
5.02391e-07
-3.81925e-08
5.11697e-07
-1.00889e-07
5.43541e-07
-1.60934e-07
5.86181e-07
-1.99937e-07
6.14931e-07
-2.05284e-07
6.50627e-07
-2.26805e-07
7.00825e-07
-2.45103e-07
-2.70245e-07
7.51244e-07
4.9437e-07
-1.71294e-08
-4.43987e-07
5.22807e-07
-2.98847e-08
5.53983e-07
-6.93689e-08
5.68849e-07
-1.15755e-07
5.93623e-07
-1.85708e-07
6.26805e-07
-2.3312e-07
6.7894e-07
-2.5742e-07
7.22284e-07
-2.7015e-07
7.60332e-07
-2.8315e-07
-2.89145e-07
7.79232e-07
3.21437e-07
-9.47467e-08
-2.4382e-07
4.06428e-07
-1.14874e-07
4.8589e-07
-1.48832e-07
5.62448e-07
-1.92312e-07
6.09232e-07
-2.32493e-07
6.39506e-07
-2.63394e-07
6.68365e-07
-2.86279e-07
6.97485e-07
-2.9927e-07
7.18075e-07
-3.03739e-07
-3.04011e-07
7.32942e-07
4.40466e-07
-1.35192e-07
-4.00022e-07
4.8782e-07
-1.62229e-07
5.34384e-07
-1.95395e-07
5.72613e-07
-2.3054e-07
6.01216e-07
-2.61096e-07
6.23495e-07
-2.85674e-07
6.38568e-07
-3.01352e-07
6.47428e-07
-3.08129e-07
6.51317e-07
-3.07629e-07
-3.06483e-07
6.53789e-07
4.60661e-07
-1.52892e-07
-4.42961e-07
4.81526e-07
-1.83095e-07
5.04798e-07
-2.18667e-07
5.25903e-07
-2.51645e-07
5.43271e-07
-2.78464e-07
5.56386e-07
-2.98789e-07
5.64901e-07
-3.09866e-07
5.69943e-07
-3.13171e-07
5.80285e-07
-3.17971e-07
-3.26235e-07
6.00038e-07
4.68913e-07
-1.45089e-07
-4.76716e-07
4.68664e-07
-1.82847e-07
4.77163e-07
-2.27165e-07
4.85895e-07
-2.60378e-07
4.91328e-07
-2.83896e-07
4.93983e-07
-3.01443e-07
4.98556e-07
-3.14439e-07
5.11098e-07
-3.25713e-07
5.45018e-07
-3.51892e-07
-4.05387e-07
6.24169e-07
4.57709e-07
-1.15103e-07
-4.87696e-07
4.46452e-07
-1.71591e-07
4.48099e-07
-2.28813e-07
4.48061e-07
-2.60338e-07
4.41913e-07
-2.77748e-07
4.32115e-07
-2.91646e-07
4.36894e-07
-3.19219e-07
4.85058e-07
-3.73878e-07
5.91292e-07
-4.58126e-07
-5.36445e-07
7.2235e-07
4.20947e-07
-9.64854e-08
-4.39565e-07
4.18165e-07
-1.6881e-07
4.1134e-07
-2.21989e-07
3.88042e-07
-2.37039e-07
3.42856e-07
-2.32562e-07
3.09055e-07
-2.57845e-07
3.76093e-07
-3.86257e-07
5.42375e-07
-5.40159e-07
7.07284e-07
-6.23035e-07
-6.58358e-07
8.29197e-07
3.64045e-07
-1.16601e-07
-3.4393e-07
3.60273e-07
-1.65039e-07
3.27632e-07
-1.89347e-07
2.67693e-07
-1.771e-07
2.11843e-07
-1.76711e-07
2.62102e-07
-3.08105e-07
4.58483e-07
-5.82638e-07
6.37694e-07
-7.19371e-07
7.43751e-07
-7.29092e-07
-6.86714e-07
7.72107e-07
2.70107e-07
-1.09706e-07
-2.77003e-07
2.37182e-07
-1.32114e-07
2.02033e-07
-1.54196e-07
1.59727e-07
-1.34793e-07
1.36452e-07
-1.53436e-07
3.23007e-07
-4.9466e-07
5.05679e-07
-7.6531e-07
5.77885e-07
-7.91577e-07
5.89201e-07
-7.40407e-07
-6.27279e-07
5.29767e-07
1.90852e-07
-6.73284e-08
-2.3323e-07
1.81386e-07
-1.22649e-07
1.77952e-07
-1.50761e-07
1.51035e-07
-1.07877e-07
1.83983e-07
-1.86383e-07
3.77421e-07
-6.88099e-07
4.507e-07
-8.38591e-07
4.7421e-07
-8.15085e-07
4.11352e-07
-6.7755e-07
-5.78924e-07
3.62996e-07
1.73901e-07
-1.43617e-08
-2.26867e-07
1.55892e-07
-1.04641e-07
1.461e-07
-1.40969e-07
1.33379e-07
-9.51546e-08
2.30365e-07
-2.8337e-07
3.54905e-07
-8.12639e-07
3.99516e-07
-8.83203e-07
4.06436e-07
-8.22005e-07
3.37597e-07
-6.0871e-07
-5.40507e-07
2.99181e-07
2.38033e-07
1.43716e-08
-2.66767e-07
1.96706e-07
-6.33126e-08
1.47408e-07
-9.16711e-08
1.56404e-07
-1.04149e-07
3.07441e-07
-4.34407e-07
3.80978e-07
-8.86176e-07
3.93179e-07
-8.95403e-07
3.64222e-07
-7.93048e-07
3.32507e-07
-5.76995e-07
-5.09204e-07
3.01205e-07
2.58215e-07
4.52129e-08
-2.89056e-07
1.89349e-07
5.55487e-09
1.62101e-07
-6.44229e-08
1.92839e-07
-1.34886e-07
3.46983e-07
-5.88552e-07
3.92757e-07
-9.31951e-07
4.18137e-07
-9.20784e-07
3.67151e-07
-7.42062e-07
2.86785e-07
-4.96631e-07
-4.46211e-07
2.23792e-07
2.17146e-07
8.40932e-08
-2.56026e-07
1.7434e-07
4.83606e-08
1.79049e-07
-6.91314e-08
1.93884e-07
-1.49721e-07
3.07735e-07
-7.02402e-07
3.18689e-07
-9.42905e-07
3.08421e-07
-9.10516e-07
1.77249e-07
-6.1089e-07
1.52652e-07
-4.72034e-07
-4.39599e-07
1.46039e-07
1.04827e-07
1.07218e-07
-1.27952e-07
1.0997e-07
4.322e-08
1.5012e-07
-1.09281e-07
1.74353e-07
-1.73955e-07
2.27818e-07
-7.55868e-07
2.29517e-07
-9.44604e-07
1.65506e-07
-8.46506e-07
3.74416e-08
-4.82826e-07
-3.81925e-09
-4.30773e-07
-3.90746e-07
-5.26723e-08
1.58267e-07
8.92624e-08
-1.40311e-07
1.71366e-07
3.01199e-08
1.66521e-07
-1.04437e-07
1.53382e-07
-1.60815e-07
2.00272e-07
-8.02757e-07
1.9793e-07
-9.42262e-07
9.66011e-08
-7.45177e-07
-5.59883e-09
-3.80626e-07
-7.93006e-08
-3.5707e-07
-3.5392e-07
-1.16126e-07
2.17582e-07
8.12612e-08
-2.09581e-07
1.96812e-07
5.08869e-08
1.13586e-07
-2.12114e-08
1.0884e-07
-1.56068e-07
1.69605e-07
-8.63523e-07
1.47668e-07
-9.20326e-07
2.03131e-08
-6.17821e-07
-4.45797e-08
-3.15733e-07
-7.56255e-08
-3.26025e-07
-3.30161e-07
-9.93861e-08
1.766e-07
9.97377e-08
-1.95077e-07
1.10356e-07
1.17131e-07
2.89365e-08
6.02085e-08
1.23973e-07
-2.51105e-07
1.46651e-07
-8.862e-07
1.3478e-07
-9.08454e-07
-6.61716e-10
-4.82379e-07
-2.78644e-08
-2.8853e-07
-4.05057e-08
-3.13384e-07
-3.22412e-07
-4.82545e-08
1.2549e-07
1.27169e-07
-1.52922e-07
1.02123e-07
1.40498e-07
-2.80223e-09
1.65134e-07
1.06478e-07
-3.60386e-07
1.07219e-07
-8.8694e-07
9.14652e-08
-8.92699e-07
1.09528e-08
-4.01867e-07
-3.09131e-08
-2.46664e-07
-4.74598e-08
-2.96837e-07
-2.69126e-07
-1.00747e-07
-1.35439e-07
1.40493e-07
1.22115e-07
-1.56012e-07
1.61071e-07
-1.27353e-07
1.36474e-07
5.23715e-08
-5.40109e-07
1.83981e-08
-8.52967e-07
-2.61593e-08
-8.48141e-07
-1.7307e-07
-2.54956e-07
-2.25548e-07
-1.94184e-07
-3.13475e-07
-2.0891e-07
-2.25391e-07
-3.57209e-07
-2.5737e-07
1.17753e-07
2.8011e-07
-2.5753e-07
1.61228e-07
-1.08619e-07
-1.24373e-08
-5.19374e-08
-5.96791e-07
-3.32288e-08
-8.71676e-07
-3.28933e-08
-8.48477e-07
-5.18241e-08
-2.36025e-07
-1.91874e-07
-5.41337e-08
-3.00121e-07
-1.00663e-07
-9.97074e-08
-4.25804e-07
-9.23805e-08
8.92469e-08
1.20886e-07
-7.06231e-08
1.3947e-07
-8.8672e-08
5.61097e-09
-2.58304e-08
-6.59633e-07
-2.39002e-08
-8.73607e-07
-3.42634e-08
-8.38114e-07
-1.4213e-08
-2.56074e-07
-1.37513e-07
6.9167e-08
-2.87032e-07
4.8856e-08
-5.46156e-09
-3.81277e-07
5.4393e-08
-2.86017e-08
6.34556e-08
1.45287e-07
4.85759e-08
4.29479e-08
1.0795e-07
1.65495e-08
-6.33234e-07
7.70946e-09
-8.64768e-07
3.1785e-08
-8.6219e-07
2.53977e-07
-4.78266e-07
1.52774e-07
1.70371e-07
-1.30301e-08
2.1466e-07
1.41976e-07
-1.60467e-07
-3.26052e-08
-6.41601e-08
6.81634e-08
-4.43244e-08
6.02946e-08
-1.26605e-07
1.90229e-07
-6.0282e-08
-6.99557e-07
-1.84379e-08
-9.06612e-07
-3.55716e-09
-8.7707e-07
9.4226e-08
-5.76048e-07
1.49546e-07
1.15052e-07
1.57846e-07
2.06361e-07
2.09711e-07
9.01103e-08
-3.91806e-08
-4.90792e-08
2.40999e-08
-3.98942e-08
6.10082e-08
-9.51341e-08
2.45472e-07
5.83463e-08
-8.53039e-07
2.88995e-08
-8.77165e-07
2.44946e-08
-8.72665e-07
3.88664e-08
-5.9042e-07
2.49514e-07
-9.55959e-08
2.75651e-07
1.80224e-07
2.32081e-07
2.53281e-07
-2.86044e-07
4.61996e-08
1.90763e-07
-2.29196e-07
4.15816e-09
-7.87317e-08
9.50082e-08
-7.49986e-09
-9.2427e-07
-8.10166e-09
-8.76564e-07
5.43749e-09
-8.86204e-07
3.71012e-08
-6.22083e-07
6.77415e-08
-1.26236e-07
1.40932e-07
1.07034e-07
1.5026e-07
2.22753e-07
-5.84665e-07
-3.93014e-08
6.70192e-07
-4.5468e-07
-1.25863e-07
1.53987e-09
-3.61212e-07
-5.50268e-09
-9.17227e-07
-3.5767e-08
-8.463e-07
-7.0007e-08
-8.51963e-07
-4.09743e-08
-6.51115e-07
-1.59663e-07
-7.5451e-09
-6.61996e-08
1.35714e-08
3.43352e-08
4.9726e-08
-3.91021e-07
-6.11346e-08
4.12847e-07
-2.40621e-07
-2.7626e-07
5.90769e-08
-6.60913e-07
-6.70733e-09
-8.5144e-07
-2.60469e-08
-8.2696e-07
-5.54443e-08
-8.22566e-07
8.0175e-09
-7.14575e-07
-1.35961e-08
1.40695e-08
1.14809e-07
-1.14833e-07
2.10251e-08
1.2812e-07
-9.76218e-11
-7.99867e-08
1.89656e-08
-1.77168e-08
-2.58588e-07
-1.35544e-08
-6.65097e-07
-2.20085e-08
-8.42997e-07
-2.01939e-08
-8.28774e-07
-1.84932e-08
-8.24266e-07
1.14471e-07
-8.47539e-07
1.40464e-07
-1.19234e-08
2.92533e-07
-2.66903e-07
2.2789e-08
2.90777e-07
9.63173e-08
-1.14569e-07
-6.1736e-08
8.83891e-08
-2.50583e-07
4.55071e-08
-6.22183e-07
1.60396e-08
-8.13509e-07
-1.06259e-08
-8.02109e-07
-3.56945e-08
-7.99198e-07
-3.5391e-08
-8.47842e-07
2.00852e-07
-2.48168e-07
4.86663e-08
-1.14739e-07
3.10545e-08
4.03753e-08
9.35253e-08
-2.16314e-07
8.22399e-09
9.57093e-08
-2.52802e-07
3.42462e-08
-5.60759e-07
1.42054e-08
-7.93477e-07
-1.40546e-08
-7.73849e-07
-4.27671e-08
-7.70485e-07
-9.97178e-08
-7.9089e-07
1.76838e-07
-5.24709e-07
1.49616e-07
-8.75066e-08
1.11948e-07
6.87802e-08
3.99972e-08
-2.88003e-07
3.17016e-08
4.31834e-08
-2.55946e-07
3.22206e-08
-5.49783e-07
6.69068e-09
-7.67933e-07
-1.32599e-08
-7.53898e-07
-3.29449e-08
-7.508e-07
-6.05497e-08
-7.63279e-07
-4.08519e-08
-5.4445e-07
-1.60004e-07
3.16091e-08
2.04088e-07
-2.52173e-07
-3.21372e-08
-3.03072e-07
4.72073e-08
1.29008e-08
-3.01007e-07
6.42308e-08
-6.0112e-07
3.72077e-08
-7.40912e-07
4.37068e-09
-7.21061e-07
-2.7537e-08
-7.18892e-07
-5.3841e-08
-7.36975e-07
-8.78483e-08
-5.10437e-07
-1.47294e-07
9.10866e-08
2.7492e-07
-2.18127e-07
2.1487e-08
-3.29063e-07
4.50443e-09
5.32524e-08
-3.32768e-07
6.38785e-08
-6.11727e-07
3.9788e-08
-7.16816e-07
2.07242e-08
-7.01997e-07
4.10098e-09
-7.02269e-07
-1.97518e-08
-7.13128e-07
-4.21466e-08
-4.88056e-07
-9.98364e-08
1.48776e-07
3.14393e-07
-1.39315e-07
6.18489e-08
-3.31186e-07
-5.97291e-08
9.00586e-08
-3.61013e-07
6.96928e-08
-5.91402e-07
4.37753e-08
-6.90912e-07
1.10786e-08
-6.69301e-07
-2.76595e-08
-6.63531e-07
-5.20647e-08
-6.88725e-07
-4.33911e-08
-4.96724e-07
-5.45026e-08
1.59891e-07
2.69889e-07
-9.97666e-09
8.80353e-08
-2.99173e-07
-1.20047e-07
8.68406e-08
-3.59756e-07
4.14538e-08
-5.45991e-07
1.40894e-08
-6.63545e-07
-1.23207e-09
-6.5398e-07
-1.99622e-08
-6.44801e-07
-5.20985e-08
-6.56587e-07
-4.63079e-08
-5.02521e-07
-1.79199e-08
1.31502e-07
1.88056e-07
6.39232e-08
1.1e-07
-2.60348e-07
-1.48834e-07
1.00067e-07
-3.49885e-07
7.74138e-08
-5.23348e-07
4.52127e-08
-6.31344e-07
-3.80728e-09
-6.04959e-07
-3.02602e-08
-6.18348e-07
-5.87218e-08
-6.2812e-07
-6.20001e-08
-4.99243e-07
2.23544e-08
4.71418e-08
1.53501e-07
5.68958e-08
1.02861e-07
-2.08532e-07
-1.54678e-07
6.05419e-08
-3.07612e-07
5.54119e-08
-5.18248e-07
1.90579e-08
-5.94995e-07
2.95906e-10
-5.86197e-07
-3.84999e-08
-5.79552e-07
-6.8687e-08
-5.97931e-07
-6.90151e-08
-4.98913e-07
2.47395e-08
-4.66074e-08
1.11864e-07
6.63773e-08
1.03864e-07
-1.52318e-07
-1.60091e-07
5.84616e-08
-2.62162e-07
7.80759e-08
-5.37878e-07
4.70644e-08
-5.63984e-07
2.51052e-08
-5.64238e-07
-1.12009e-08
-5.43246e-07
-5.19021e-08
-5.5723e-07
-4.21556e-08
-5.08664e-07
3.85996e-08
-1.27361e-07
6.60979e-08
8.43676e-08
1.29649e-07
-1.03236e-07
-1.78739e-07
1.0998e-07
-2.42445e-07
1.02044e-07
-5.29939e-07
7.0527e-08
-5.32467e-07
2.75381e-08
-5.21249e-07
1.52139e-08
-5.30922e-07
-2.03731e-08
-5.21643e-07
2.15088e-08
-5.50544e-07
3.15633e-08
-1.37408e-07
6.75395e-08
3.01307e-08
1.33901e-07
-6.65404e-08
-1.70601e-07
1.29068e-07
-2.37625e-07
8.4557e-08
-4.85436e-07
4.08391e-08
-4.88749e-07
3.20903e-09
-4.83619e-07
-3.39627e-08
-4.9375e-07
-6.17369e-08
-4.93868e-07
-1.28e-07
-4.84278e-07
-9.51823e-08
-1.7022e-07
3.91173e-08
-6.67497e-08
1.4018e-07
-4.31145e-08
-1.63594e-07
1.1294e-07
-2.10378e-07
6.71162e-08
-4.39615e-07
2.651e-08
-4.48143e-07
-4.4931e-09
-4.52616e-07
-4.01085e-08
-4.58135e-07
-8.45643e-08
-4.49413e-07
-1.26637e-07
-4.42204e-07
-1.36401e-07
-1.60456e-07
3.20976e-08
-1.29379e-07
1.21498e-07
-5.29182e-08
-1.117e-07
1.39872e-07
-2.28766e-07
8.63242e-08
-3.86068e-07
3.80686e-08
-3.99887e-07
-4.38195e-09
-4.10166e-07
-4.99508e-08
-4.12566e-07
-9.0297e-08
-4.09066e-07
-1.4532e-07
-3.87181e-07
-1.24168e-07
-1.81608e-07
2.84842e-08
-1.20557e-07
5.34404e-08
-6.99922e-08
-3.63717e-08
1.15667e-07
-2.91007e-07
8.18947e-08
-3.52295e-07
5.00065e-08
-3.67999e-07
8.67412e-09
-3.68833e-07
-4.1686e-08
-3.62206e-07
-9.99641e-08
-3.50788e-07
-1.48827e-07
-3.38319e-07
-7.97711e-08
-2.50665e-07
-1.01906e-08
-4.10985e-08
1.41318e-07
-9.80397e-08
-1.13261e-07
1.31208e-07
-2.80862e-07
8.29428e-08
-3.04029e-07
2.67198e-08
-3.11776e-07
-2.51003e-08
-3.17013e-07