/*--------------------------------*- C++ -*----------------------------------*\
  =========                 |
  \\      /  F ield         | OpenFOAM: The Open Source CFD Toolbox
   \\    /   O peration     | Website:  https://openfoam.org
    \\  /    A nd           | Version:  8
     \\/     M anipulation  |
\*---------------------------------------------------------------------------*/
FoamFile
{
    version     2.0;
    format      ascii;
    class       volScalarField;
    location    "6.4";
    object      alpha.water;
}
// * * * * * * * * * * * * * * * * * * * * * * * * * * * * * * * * * * * * * //

dimensions      [0 0 0 0 0 0 0];

internalField   nonuniform List<scalar> 
9150
(
1
1
1
1
1
1
1
1
1
1
1
1
1
1
1
1
1
1
1
1
1
1
1
1
1
1
1
1
1
1
1
1
1
1
1
1
1
1
1
1
1
1
1
1
1
1
1
1
1
1
1
1
1
1
1
1
1
1
1
1
1
1
1
1
1
1
1
1
1
1
1
1
1
1
1
1
1
1
1
1
1
1
1
1
1
1
1
1
1
1
1
1
1
1
1
1
1
1
1
1
1
1
1
1
1
1
1
1
1
1
1
1
1
1
1
1
1
1
1
1
1
1
1
1
1
1
1
1
1
1
1
1
1
1
1
1
1
1
1
1
1
1
1
1
1
1
1
1
1
1
0.99404
0.984859
0.98483
0.985104
0.995648
0.995665
0.988991
0.986117
0.986114
0.986116
0.995536
0.985294
0.984801
0.984799
0.985072
0.995582
0.995884
0.995837
0.995787
0.987305
0.992718
0.984816
0.984799
0.984801
0.993367
0.99594
0.995911
0.995864
0.995837
0.992396
0.995725
0.991747
0.991024
0.995364
0.995942
0.995943
0.990468
0.989808
0.991678
0.994779
0.995845
0.995919
0.995974
0.99595
0.995943
0.995943
0.995943
0.995927
0.984885
0.970112
0.994593
0.995974
0.995981
0.99548
0.995693
0.995943
0.995939
0.995935
0.9943
0.969672
0.988045
0.995948
0.996015
0.995478
0.995237
0.995217
0.995927
0.995931
0.995922
0.992653
0.988038
0.993228
0.996062
0.996077
0.995483
0.99484
0.994841
0.995623
0.995879
0.995831
0.98822
0.995963
0.996077
0.99608
0.996081
0.995828
0.996074
0.99605
0.966644
0.966583
0.995943
0.996073
0.996078
0.996081
0.996083
0.996083
0.996084
0.995957
0.899252
0.875737
0.99608
0.996025
0.995922
0.995941
0.996084
0.996084
0.996084
0.969344
0.875737
0.875221
0.996081
0.996083
0.996083
0.996085
0.996084
0.996084
0.996084
0.99468
0.883061
0.87481
0.996083
0.996084
0.996084
0.996084
0.982671
0.989126
0.996084
0.996211
0.944927
0.874919
0.995963
0.996083
0.994832
0.978433
0.977542
0.977626
0.986016
0.996559
0.996572
0.931076
0.962559
0.995994
0.987201
0.977543
0.977548
0.98406
0.996479
0.996596
0.996597
0.994302
0.967241
0.996397
0.99659
0.992246
0.993296
0.996575
0.996596
0.996597
0.996596
0.996596
0.991558
0.99664
0.996649
0.996649
0.996648
0.996631
0.996516
0.98571
0.97721
0.979234
0.996635
0.996649
0.996649
0.996649
0.996649
0.986438
0.967927
0.967685
0.967519
0.967274
0.996664
0.996653
0.996649
0.996649
0.996649
0.969738
0.967699
0.968962
0.971201
0.969417
0.996671
0.995798
0.99601
0.996649
0.995024
0.988682
0.987099
0.994227
0.995807
0.995256
0.996673
0.995635
0.995631
0.99664
0.996635
0.996623
0.996609
0.996607
0.996605
0.99658
0.996674
0.996656
0.995714
0.996635
0.996623
0.99662
0.996616
0.99661
0.996607
0.996354
0.996675
0.996674
0.996672
0.992235
0.990783
0.990344
0.99661
0.996609
0.996609
0.993633
0.996676
0.996675
0.996668
0.986578
0.97529
0.975038
0.979195
0.991047
0.996586
0.995883
0.924985
0.996668
0.99657
0.995887
0.98185
0.975056
0.974994
0.974975
0.983131
0.996487
0.864551
0.863695
0.891659
0.962436
0.982936
0.983036
0.976766
0.974975
0.975568
0.996015
0.873851
0.863035
0.863028
0.863191
0.887435
0.954905
0.983261
0.983188
0.989181
0.996098
0.987442
0.966684
0.941065
0.86402
0.864882
0.865077
0.918716
0.994707
0.996498
0.996504
0.996632
0.99663
0.99662
0.978313
0.925756
0.865887
0.86704
0.940098
0.996481
0.996503
0.996633
0.996633
0.996633
0.996627
0.996611
0.965404
0.867631
0.923894
0.996391
0.996503
0.996633
0.996633
0.996633
0.996633
0.996632
0.996623
0.969699
0.96412
0.993635
0.996502
0.996633
0.996633
0.996633
0.996633
0.996632
0.996632
0.996622
0.9966
0.996566
0.996514
0.989167
0.982035
0.994497
0.996632
0.996632
0.996632
0.996631
0.99662
0.996599
0.969475
0.9422
0.900798
0.900741
0.939711
0.950249
0.980029
0.980647
0.951705
0.899861
0.844847
0.991942
0.990076
0.932678
0.890116
0.882584
0.859003
0.849059
0.845686
0.844414
0.844357
0.991665
0.991939
0.991086
0.984438
0.976484
0.943086
0.891934
0.879803
0.844374
0.844374
0.892591
0.945657
0.990939
0.99076
0.990734
0.990623
0.988018
0.985334
0.963383
0.876223
0.91076
0.97329
0.985686
0.950724
0.863509
0.926666
0.987748
0.987413
0.987413
0.976863
0.977852
0.979157
0.97982
0.867267
0.854711
0.854837
0.941703
0.979816
0.862455
0.954734
0.978374
0.978374
0.978544
0.854756
0.854654
0.854711
0.893495
0.878976
0.780598
0.907843
0.978246
0.978374
0.935423
0.854683
0.854683
0.854792
0.904281
0.845758
0.780518
0.855111
0.962754
0.97419
0.964225
0.920757
0.918802
0.941919
0.865417
0.777411
0.778925
0.876615
0.526315
0.792885
0.960766
0.958556
0.955765
0.953948
0.871214
0.777411
0.777411
0.958237
0.477503
0.467517
0.522518
0.918043
0.945825
0.95026
0.934642
0.789852
0.94377
0.99423
0.469342
0.46091
0.46091
0.46091
0.462581
0.566872
0.946023
0.989529
0.992514
0.993263
0.888828
0.716946
0.46091
0.462854
0.482662
0.49045
0.503116
0.719603
0.853643
0.641662
0.874041
0.761107
0.82067
0.828821
0.830788
0.808085
0.558647
0.577704
0.716007
0.885242
0.770187
0.769417
0.770077
0.785142
0.829693
0.828551
0.824949
0.819969
0.882493
0.892711
0.938119
0.88799
0.815274
0.782051
0.764623
0.771345
0.792191
0.815525
0.708861
0.62575
0.971726
0.971718
0.970516
0.968138
0.960951
0.935951
0.915688
0.899469
0.884171
0.61921
0.971718
0.971306
0.968928
0.90293
0.764735
0.598533
0.609511
0.748969
0.843707
0.840856
0.971306
0.869779
0.823158
0.796497
0.47095
0.33247
0.329409
0.341033
0.509207
0.750345
0.960333
0.707772
0.67011
0.718565
0.446809
0.32757
0.328041
0.329632
0.329756
0.329615
0.933977
0.670316
0.670373
0.70958
0.463659
0.328126
0.329483
0.329706
0.329614
0.329519
0.932991
0.673831
0.669795
0.694234
0.339495
0.329596
0.32972
0.329614
0.329453
0.329336
0.934063
0.705134
0.680149
0.647147
0.324911
0.329144
0.329693
0.329405
0.329268
0.328328
0.910698
0.718577
0.832761
0.633529
0.330397
0.31953
0.329099
0.329718
0.329611
0.329222
0.765308
0.667634
0.837897
0.800255
0.420205
0.330471
0.32745
0.331149
0.517359
0.934881
0.610644
0.656858
0.837309
0.837907
0.823613
0.476766
0.33657
0.68797
0.992373
0.992638
0.607279
0.678138
0.838149
0.828709
0.672393
0.58164
0.500106
0.809124
0.992649
0.992728
0.60324
0.776094
0.844833
0.654267
0.56629
0.729304
0.78874
0.441134
0.610123
0.989147
0.620198
0.847812
0.857477
0.596051
0.56629
0.57514
0.851386
0.431777
0.424505
0.510178
0.610411
0.860648
0.87002
0.691151
0.56629
0.624531
0.927808
0.528393
0.4245
0.422422
0.577752
0.734788
0.882888
0.855549
0.571877
0.918056
0.994597
0.911907
0.485357
0.423181
0.565898
0.566572
0.898146
0.903491
0.905812
0.909262
0.994779
0.994832
0.957042
0.654981
0.628392
0.518327
0.507011
0.899848
0.903427
0.894781
0.994831
0.994987
0.995218
0.985296
0.980182
0.691181
0.244775
0.809627
0.90006
0.894797
0.952029
0.995069
0.995297
0.995249
0.980182
0.980182
0.233373
0.599347
0.899567
0.89959
0.834828
0.993775
0.995302
0.995299
0.980182
0.954936
0.220545
0.605857
0.899567
0.899319
0.834828
0.955722
0.995299
0.995301
0.980019
0.558721
0.195642
0.669951
0.899392
0.898416
0.887559
0.919962
0.968797
0.986569
0.523645
0.179478
0.179169
0.475484
0.898416
0.852562
0.957037
0.958194
0.963748
0.973745
0.229313
0.177551
0.174486
0.252231
0.895375
0.839847
0.471829
0.939362
0.983757
0.985049
0.179735
0.180103
0.17249
0.171659
0.884629
0.870333
0.181412
0.331675
0.856215
0.984583
0.222014
0.227685
0.185514
0.171693
0.875299
0.853976
0.180771
0.129178
0.475892
0.89144
0.218208
0.228293
0.199967
0.164192
0.874355
0.873577
0.178686
0.127012
0.132533
0.680812
0.000166331
0.0809833
0.192901
0.153574
0.887784
0.882864
0.171979
0.126749
0.127012
0.285677
4.34457e-05
0.00150708
0.082629
0.145018
0.902543
0.889581
0.170646
0.12679
0.126757
0.127169
4.34456e-05
4.3446e-05
4.34457e-05
0.171905
0.92749
0.905682
0.187073
0.158698
0.15872
0.131301
4.34551e-05
4.34456e-05
4.3446e-05
0.194387
0.934878
0.924264
0.20125
0.190463
0.160334
0.134247
4.34746e-05
4.3457e-05
4.34542e-05
0.212338
0.940297
0.938208
0.210558
0.0813824
0.00680533
1.54861e-05
4.34432e-05
4.34849e-05
4.3503e-05
0.230888
0.945193
0.946196
0.220929
4.407e-06
8.19437e-06
1.37684e-05
4.34774e-05
0.000153517
4.3706e-05
0.2565
0.953791
0.954463
0.25737
4.21808e-06
2.97615e-05
4.5041e-05
0.000222769
0.000220943
4.45999e-05
0.277203
0.959273
0.961142
0.282186
3.60506e-06
3.69434e-05
3.50489e-05
0.000206142
0.000123445
4.6718e-05
0.305733
0.965679
0.967124
0.309707
2.20133e-06
0.000104405
6.64441e-05
4.88152e-05
4.83958e-05
4.81447e-05
0.337336
0.97233
0.972674
0.341673
1.06262e-06
0.000104772
0.000316037
0.000134232
5.16287e-05
4.83958e-05
0.37641
0.977741
0.977733
0.377368
5.62616e-07
3.94724e-05
0.000206738
0.000199835
0.000109307
4.87757e-05
0.431803
0.983211
0.98325
0.422734
3.10829e-07
2.7887e-07
2.55716e-07
0.000202764
0.000121169
4.97225e-05
0.475124
0.987588
0.987974
0.483841
3.68229e-07
3.33117e-07
3.87675e-07
0.000204859
0.00013174
5.2105e-05
0.548916
0.990906
0.990889
0.548934
5.01205e-07
3.8205e-07
6.21388e-06
0.000204467
6.37984e-05
3.39492e-05
0.609599
0.993563
0.99338
0.609696
4.72847e-07
2.907e-07
1.16487e-05
4.39327e-05
1.27286e-06
1.27286e-06
0.685204
0.995397
0.995476
0.683722
2.907e-07
2.2737e-07
6.24393e-06
3.69452e-06
1.26932e-06
1.27286e-06
0.760402
0.996934
0.996911
0.761049
2.2737e-07
2.06328e-07
5.30555e-07
8.83075e-06
1.27286e-06
0.0319681
0.826636
0.998234
0.998273
0.826264
0.0314882
1.89498e-10
2.05481e-12
5.99386e-06
7.43441e-07
0.111986
0.892467
0.999046
0.999059
0.892642
0.112153
3.88202e-09
1.7178e-13
8.52586e-09
1.69907e-08
0.219019
0.946806
0.999623
0.999633
0.94684
0.219275
8.15296e-08
3.54908e-17
3.05707e-11
1.22095e-07
0.408291
0.986399
0.999856
0.999855
0.986873
0.409341
1.63834e-06
1.75636e-17
7.3769e-14
7.27638e-06
0.661336
0.999885
0.999945
0.999949
0.999885
0.66085
2.96943e-05
-2.60208e-12
-1.13582e-12
0.0769075
0.875242
0.999947
0.999992
0.999997
0.99995
0.882871
0.113706
-3.95654e-09
-7.33178e-10
0.545152
0.99824
0.99999
1
1
0.999995
0.999779
0.615756
-3.93932e-08
0.308162
0.965694
1
1
1
1
1
1
0.975495
0.348676
0.98853
0.990557
0.988559
0.988535
0.992126
0.995076
0.995075
0.991981
0.990996
0.991799
0.995459
0.995461
0.995462
0.995297
0.995293
0.995294
0.995455
0.995458
0.995458
0.995457
0.995457
0.995393
0.992048
0.880682
0.835068
0.835068
0.835068
0.835087
0.857725
0.857302
0.850557
0.852289
0.978629
0.99351
0.993492
0.967339
0.928876
0.937404
0.956991
0.953219
0.986667
0.988649
0.992223
0.988525
0.988558
0.99307
0.99507
0.991983
0.995077
0.995237
0.995009
0.995009
0.995464
0.995469
0.995295
0.995467
0.995467
0.995463
0.989088
0.868692
0.836097
0.83548
0.835318
0.835085
0.835068
0.835068
0.835161
0.855859
0.880718
0.852006
0.852543
0.968472
0.993511
0.993528
0.989838
0.973602
0.928825
0.885126
0.884793
0.884782
0.986667
0.993979
0.995456
0.991956
0.988545
0.991977
0.995114
0.995057
0.989502
0.995253
0.995332
0.995009
0.995179
0.995471
0.99547
0.995469
0.995468
0.995464
0.995327
0.976265
0.972067
0.913004
0.835415
0.835137
0.835085
0.90299
0.991905
0.990758
0.988097
0.983456
0.981435
0.990537
0.993528
0.991113
0.986106
0.990865
0.995269
0.995269
0.953676
0.903113
0.995447
0.995456
0.995453
0.994384
0.988579
0.99259
0.995157
0.994598
0.985882
0.995424
0.995444
0.995009
0.995458
0.99547
0.995471
0.99547
0.995468
0.97742
0.958415
0.982048
0.982055
0.982022
0.973899
0.974696
0.987295
0.99509
0.992094
0.990082
0.988149
0.988202
0.977685
0.986646
0.992203
0.994527
0.995225
0.995269
0.995269
0.995269
0.995269
0.995269
0.973422
0.994827
0.995456
0.995443
0.988747
0.993345
0.995211
0.991487
0.985839
0.991685
0.995461
0.995466
0.99547
0.99547
0.99547
0.995472
0.983344
0.932006
0.887329
0.898566
0.901086
0.886854
0.923858
0.989553
0.99509
0.995123
0.992728
0.989487
0.98954
0.98908
0.977923
0.950931
0.945984
0.964171
0.99018
0.995269
0.995269
0.995269
0.995269
0.995269
0.969526
0.969445
0.986483
0.995435
0.993321
0.991389
0.995279
0.991713
0.985765
0.985717
0.994364
0.995469
0.99547
0.99547
0.99547
0.995471
0.99547
0.898828
0.887075
0.886905
0.886853
0.88685
0.886852
0.886853
0.985809
0.995157
0.995158
0.995157
0.994983
0.989005
0.988189
0.988567
0.946573
0.939912
0.943221
0.992261
0.995269
0.995269
0.995269
0.991124
0.969484
0.969445
0.969445
0.982456
0.992747
0.991603
0.995466
0.995502
0.986833
0.985701
0.985665
0.992655
0.995471
0.995471
0.995471
0.995471
0.995472
0.961274
0.886893
0.886853
0.88685
0.88685
0.88685
0.906132
0.990113
0.995147
0.995159
0.995161
0.99516
0.99158
0.987408
0.988635
0.995143
0.96294
0.943491
0.971073
0.995258
0.995269
0.995267
0.989896
0.99577
0.971022
0.969477
0.96951
0.984893
0.990088
0.994788
0.995542
0.995581
0.988195
0.985618
0.985462
0.987221
0.995454
0.995472
0.995473
0.995472
0.995472
0.972719
0.949693
0.886853
0.886852
0.93218
0.99476
0.995096
0.995117
0.995147
0.995157
0.995161
0.99516
0.987491
0.993095
0.995187
0.98259
0.944207
0.958749
0.99005
0.990505
0.994189
0.989896
0.99492
0.994195
0.971413
0.969544
0.971265
0.988397
0.9909
0.995581
0.995589
0.995597
0.993097
0.985334
0.985292
0.985191
0.992882
0.995473
0.989737
0.994475
0.994373
0.993815
0.987441
0.988207
0.976975
0.984323
0.995026
0.995096
0.974637
0.980972
0.995159
0.995185
0.995187
0.995187
0.995187
0.995187
0.946774
0.963603
0.979489
0.978406
0.991068
0.992291
0.896809
0.985217
0.983959
0.969845
0.970181
0.985194
0.990734
0.995328
0.995597
0.9956
0.995603
0.995561
0.9895
0.98506
0.984878
0.984725
0.984622
0.988913
0.994054
0.993805
0.984165
0.983983
0.985633
0.994634
0.994795
0.992068
0.941805
0.948833
0.987017
0.995159
0.995054
0.995187
0.995187
0.995187
0.975577
0.985765
0.978387
0.978387
0.991581
0.995471
0.87481
0.874826
0.958289
0.980367
0.987344
0.995488
0.995637
0.994556
0.995317
0.995603
0.995603
0.995604
0.995606
0.995575
0.98513
0.984614
0.984622
0.988593
0.994191
0.984004
0.983983
0.983992
0.993204
0.99424
0.990044
0.975849
0.941221
0.939233
0.938746
0.926533
0.940804
0.95326
0.966752
0.953628
0.98577
0.985768
0.97905
0.980973
0.995471
0.995471
0.87481
0.87481
0.922598
0.994924
0.995629
0.995651
0.995654
0.995638
0.99535
0.995369
0.995446
0.995606
0.995607
0.995609
0.995607
0.985014
0.984615
0.99214
0.995648
0.988437
0.992846
0.994572
0.987772
0.954366
0.983309
0.993332
0.960943
0.949361
0.944832
0.886986
0.88691
0.886834
0.886872
0.886755
0.905637
0.944205
0.979653
0.986526
0.993195
0.995471
0.87481
0.874826
0.973385
0.995586
0.995649
0.995654
0.995655
0.995656
0.995658
0.995408
0.995419
0.995427
0.995548
0.995609
0.995609
0.993995
0.993481
0.995652
0.995653
0.995652
0.995653
0.99563
0.956095
0.954359
0.973543
0.994293
0.995109
0.995195
0.995341
0.976666
0.886944
0.886884
0.887805
0.886755
0.886751
0.886867
0.925804
0.990422
0.991282
0.995471
0.892515
0.965744
0.994716
0.992921
0.990382
0.995656
0.995656
0.995657
0.995658
0.995659
0.995654
0.995428
0.995431
0.995435
0.995592
0.995658
0.995658
0.995655
0.995652
0.995653
0.995653
0.993117
0.982942
0.992155
0.964679
0.947492
0.947687
0.979537
0.995475
0.995496
0.995506
0.988419
0.983881
0.895173
0.886867
0.90627
0.989981
0.992886
0.989231
0.994237
0.993324
0.995395
0.994897
0.978019
0.967437
0.981002
0.995747
0.995658
0.995659
0.995659
0.995659
0.995659
0.995436
0.995458
0.995659
0.995659
0.995659
0.995271
0.995561
0.995653
0.995653
0.995525
0.995701
0.995704
0.993631
0.994548
0.995672
0.949654
0.907203
0.98327
0.995553
0.995555
0.995558
0.990267
0.979447
0.98643
0.995379
0.995656
0.992597
0.995555
0.996539
0.99634
0.974599
0.967231
0.967398
0.98035
0.995841
0.995487
0.995659
0.995659
0.99566
0.995659
0.995644
0.995659
0.995659
0.995659
0.995659
0.985968
0.970656
0.97676
0.99542
0.995701
0.995703
0.995704
0.995705
0.995705
0.995704
0.929409
0.840417
0.855752
0.969853
0.995558
0.995592
0.993774
0.994991
0.995657
0.995657
0.995657
0.995657
0.995657
0.977422
0.968332
0.967069
0.967197
0.973317
0.994333
0.995931
0.989921
0.985048
0.993374
0.99566
0.99566
0.995659
0.995659
0.995659
0.995659
0.988645
0.970656
0.970589
0.970516
0.970515
0.988628
0.995702
0.995705
0.995706
0.995705
0.973067
0.844099
0.840138
0.840135
0.864693
0.9874
0.99564
0.995655
0.995657
0.995657
0.995657
0.995657
0.995657
0.995657
0.967096
0.967069
0.967096
0.978017
0.994978
0.995933
0.995933
0.985673
0.984885
0.984876
0.995401
0.995658
0.995659
0.995659
0.994746
0.995659
0.995659
0.975051
0.970516
0.970514
0.970515
0.982093
0.995685
0.995706
0.995707
0.968627
0.84453
0.840138
0.840126
0.840138
0.909654
0.995454
0.995655
0.995657
0.995657
0.995657
0.995657
0.995657
0.995657
0.995657
0.96972
0.974695
0.987158
0.995728
0.995933
0.995934
0.995933
0.987335
0.984875
0.984885
0.993376
0.995655
0.995658
0.99118
0.987719
0.994314
0.995692
0.995699
0.985414
0.970516
0.979373
0.995589
0.995705
0.995707
0.995707
0.935357
0.840189
0.840126
0.840138
0.912514
0.995342
0.995655
0.995657
0.995657
0.995657
0.995657
0.995657
0.995657
0.995657
0.991077
0.994535
0.994591
0.995865
0.995934
0.995934
0.995933
0.993
0.992749
0.992801
0.99275
0.974238
0.885002
0.8556
0.910068
0.993227
0.995692
0.9957
0.995702
0.995703
0.994008
0.995397
0.995707
0.995707
0.995708
0.995708
0.995709
0.870092
0.840221
0.938341
0.995327
0.995591
0.995596
0.988934
0.87086
0.798698
0.896027
0.946812
0.951993
0.942933
0.941623
0.996537
0.996319
0.99542
0.995934
0.995934
0.984561
0.990145
0.993619
0.993574
0.909642
0.854467
0.854445
0.854696
0.869357
0.985647
0.995702
0.995702
0.995703
0.995704
0.995705
0.995707
0.995707
0.995707
0.995708
0.995708
0.995709
0.979469
0.977818
0.994281
0.995632
0.995617
0.995591
0.919447
0.793094
0.793627
0.794268
0.880719
0.949946
0.965106
0.968415
0.993787
0.993815
0.994222
0.995934
0.982174
0.980173
0.992273
0.993648
0.947849
0.854467
0.854445
0.854467
0.91591
0.9852
0.995694
0.9957
0.995704
0.995704
0.995704
0.995704
0.995705
0.995692
0.995681
0.995681
0.995702
0.995706
0.995706
0.995695
0.995683
0.995641
0.995625
0.995617
0.809504
0.793071
0.793094
0.832572
0.956533
0.968483
0.968483
0.968483
0.99362
0.994505
0.995685
0.982121
0.979397
0.981078
0.993658
0.993653
0.933973
0.855734
0.868916
0.956083
0.995163
0.995693
0.995694
0.995694
0.994058
0.995675
0.995704
0.995704
0.995704
0.995704
0.995681
0.995681
0.995681
0.995703
0.995706
0.995697
0.995686
0.927968
0.896807
0.838707
0.793071
0.79308
0.813358
0.953246
0.968337
0.96835
0.953967
0.965254
0.995123
0.996503
0.996502
0.988592
0.983396
0.993115
0.993675
0.993658
0.892459
0.860461
0.966491
0.995681
0.995692
0.995692
0.995693
0.995693
0.98873
0.845946
0.962685
0.995704
0.995704
0.995704
0.995692
0.995702
0.995703
0.995704
0.995703
0.983343
0.888636
0.829831
0.826241
0.822839
0.819802
0.853862
0.954241
0.966532
0.945577
0.927841
0.920259
0.965033
0.996503
0.996504
0.996503
0.993178
0.993176
0.993684
0.993673
0.908639
0.851987
0.851933
0.974732
0.99569
0.995692
0.995692
0.995692
0.995693
0.889219
0.814678
0.8214
0.948331
0.96199
0.994422
0.995702
0.995702
0.995703
0.995703
0.975615
0.936079
0.909194
0.919717
0.931398
0.950222
0.963968
0.966321
0.966532
0.966565
0.964232
0.927931
0.977396
0.977761
0.996504
0.996504
0.989197
0.978985
0.984417
0.993694
0.939537
0.851987
0.851929
0.851926
0.882375
0.982245
0.99569
0.995692
0.995692
0.995692
0.97244
0.836014
0.806424
0.805928
0.818838
0.954314
0.995692
0.995644
0.995703
0.984898
0.95567
0.922763
0.930704
0.946469
0.95129
0.950154
0.874421
0.949152
0.966551
0.966551
0.966566
0.955069
0.97776
0.977762
0.996504
0.996504
0.98382
0.980231
0.993693
0.993691
0.949141
0.851929
0.851925
0.851926
0.851925
0.876248
0.985158
0.99569
0.995692
0.995689
0.971228
0.955364
0.833386
0.805928
0.80721
0.976123
0.985396
0.930786
0.935748
0.974461
0.951761
0.92122
0.755315
0.647326
0.647538
0.562715
0.470072
0.523652
0.649904
0.692239
0.618797
0.656434
0.949345
0.97776
0.996504
0.996504
0.993049
0.989268
0.993691
0.993694
0.99368
0.886719
0.851926
0.851925
0.851926
0.877253
0.990001
0.99568
0.995679
0.995686
0.968895
0.974795
0.964192
0.820836
0.871332
0.988251
0.987862
0.938836
0.850624
0.756693
0.736177
0.734226
0.733686
0.730665
0.573627
0.470067
0.470067
0.470067
0.471715
0.477167
0.482919
0.484937
0.883974
0.977696
0.996504
0.996504
0.984597
0.987978
0.993679
0.991154
0.993237
0.985214
0.920833
0.882458
0.91192
0.974349
0.991234
0.965964
0.963467
0.964398
0.976077
0.979217
0.97914
0.9365
0.933275
0.988398
0.988492
0.94543
0.776553
0.759257
0.868633
0.988681
0.965901
0.983005
0.897479
0.693455
0.630332
0.571132
0.49957
0.532795
0.652378
0.86575
0.939138
0.894961
0.996504
0.996504
0.96717
0.986787
0.989924
0.98994
0.993587
0.993949
0.992956
0.99067
0.989709
0.968962
0.968585
0.971549
0.978904
0.975802
0.979217
0.979201
0.979216
0.947261
0.899064
0.988492
0.989023
0.957664
0.841919
0.916324
0.989178
0.989182
0.989178
0.989115
0.988989
0.986063
0.978119
0.959867
0.924827
0.921936
0.931858
0.931483
0.895928
0.726738
0.996503
0.990329
0.967128
0.989148
0.989598
0.993051
0.994031
0.994031
0.982313
0.974643
0.974652
0.9918
0.991511
0.991499
0.991442
0.961957
0.820248
0.891961
0.978918
0.924435
0.813074
0.989023
0.989129
0.987735
0.986058
0.989179
0.989182
0.989182
0.989182
0.989178
0.98791
0.979482
0.981436
0.981442
0.981004
0.92267
0.75246
0.733654
0.734521
0.747719
0.996502
0.905055
0.985236
0.990131
0.993937
0.994025
0.994031
0.986603
0.982076
0.987974
0.994895
0.995166
0.994269
0.983086
0.941103
0.78618
0.76273
0.765754
0.961797
0.904468
0.80851
0.908751
0.989133
0.989173
0.989178
0.989181
0.989181
0.989182
0.989178
0.986971
0.839019
0.765498
0.819503
0.894168
0.806411
0.720293
0.720838
0.72894
0.810722
0.810951
0.889142
0.893435
0.993989
0.993987
0.993976
0.991673
0.98177
0.978906
0.992619
0.994439
0.994791
0.995176
0.995241
0.995308
0.958438
0.76273
0.762682
0.76273
0.835944
0.922791
0.808189
0.809175
0.960101
0.989172
0.989174
0.989178
0.989181
0.989167
0.883725
0.699232
0.695303
0.772093
0.723225
0.628991
0.625525
0.796163
0.796772
0.802446
0.807427
0.781237
0.844946
0.919736
0.993989
0.993991
0.993987
0.967948
0.922774
0.994204
0.994287
0.994383
0.994032
0.991644
0.991671
0.995479
0.995772
0.902661
0.76273
0.762693
0.830874
0.959923
0.808161
0.808189
0.884049
0.989173
0.989172
0.989167
0.91542
0.537211
0.417527
0.440124
0.766133
0.769068
0.766273
0.646855
0.506905
0.703101
0.672983
0.590286
0.46393
0.402079
0.844374
0.922859
0.993989
0.993987
0.975136
0.903949
0.921921
0.994131
0.994208
0.994287
0.993945
0.981516
0.977333
0.993591
0.995894
0.994644
0.906119
0.832939
0.936768
0.965295
0.808189
0.808149
0.892554
0.989164
0.989014
0.814611
0.416902
0.413668
0.415598
0.417528
0.421483
0.47294
0.407887
0.403028
0.402098
0.402069
0.402054
0.402079
0.402079
0.402079
0.844359
0.866187
0.988984
0.993517
0.93153
0.903187
0.937632
0.99406
0.994131
0.993922
0.984247
0.977098
0.977127
0.986129
0.9959
0.995894
0.995664
0.985148
0.974104
0.980507
0.857967
0.809328
0.963594
0.988982
0.964821
0.539048
0.413261
0.413356
0.413668
0.476142
0.625676
0.612243
0.782451
0.658257
0.414999
0.402096
0.40208
0.402079
0.402079
0.402079
0.844374
0.855567
0.98469
0.981102
0.899193
0.902801
0.985617
0.994009
0.98231
0.931068
0.965349
0.995985
0.995985
0.995984
0.995977
0.989241
0.986228
0.970976
0.91129
0.980156
0.974857
0.905316
0.987979
0.988404
0.974559
0.578387
0.413345
0.413251
0.413356
0.655905
0.95014
0.961624
0.961625
0.961624
0.772786
0.454661
0.402153
0.40209
0.40208
0.402079
0.844635
0.924091
0.984575
0.946853
0.898979
0.906773
0.982015
0.929989
0.921321
0.921366
0.961085
0.995985
0.995985
0.995982
0.995952
0.994622
0.990803
0.9766
0.904804
0.910133
0.985554
0.987979
0.988079
0.988155
0.988079
0.920641
0.624092
0.428803
0.417435
0.804183
0.961503
0.961625
0.961624
0.961598
0.961568
0.856668
0.583062
0.401742
0.40209
0.402092
0.970318
0.991255
0.968523
0.898979
0.898979
0.898979
0.906917
0.983438
0.992742
0.995986
0.995986
0.995986
0.995982
0.995825
0.965161
0.936854
0.960119
0.976491
0.941235
0.782832
0.912882
0.987988
0.988112
0.988112
0.988155
0.988034
0.978725
0.958022
0.626141
0.462807
0.731968
0.949235
0.961598
0.961568
0.961543
0.96154
0.957168
0.681304
0.403567
0.402357
0.993717
0.993166
0.955939
0.899045
0.898979
0.899045
0.946045
0.99598
0.995986
0.995986
0.995986
0.995983
0.995953
0.992794
0.900969
0.873205
0.873176
0.904068
0.940033
0.777919
0.678508
0.707141
0.808604
0.800922
0.780463
0.900384
0.976453
0.973347
0.715094
0.450107
0.448089
0.481868
0.879007
0.961513
0.961523
0.961428
0.961323
0.950356
0.760796
0.526282
0.993881
0.993906
0.976967
0.930111
0.921295
0.958116
0.98709
0.995984
0.995985
0.995986
0.995983
0.995953
0.995874
0.995754
0.959534
0.882593
0.875534
0.909149
0.853282
0.774828
0.665066
0.613602
0.607394
0.602177
0.59592
0.588048
0.705117
0.64274
0.449193
0.448035
0.447785
0.447749
0.447748
0.704567
0.960501
0.961325
0.885328
0.900696
0.900808
0.81588
0.994032
0.994173
0.993028
0.992781
0.992847
0.995041
0.995427
0.995922
0.995984
0.995983
0.99595
0.995874
0.995708
0.995282
0.995042
0.99513
0.99561
0.953812
0.902578
0.889051
0.90232
0.900464
0.808161
0.671105
0.673031
0.58911
0.45424
0.449227
0.44802
0.44777
0.447749
0.447748
0.447748
0.447748
0.798592
0.915591
0.764175
0.764175
0.902028
0.797266
0.99423
0.994447
0.994655
0.994846
0.995059
0.99518
0.995366
0.995417
0.931877
0.747933
0.765266
0.835101
0.964572
0.995042
0.99513
0.99561
0.995969
0.995976
0.995981
0.995986
0.987257
0.994674
0.994559
0.979001
0.975196
0.948492
0.923514
0.778688
0.491599
0.612335
0.522401
0.447749
0.447748
0.605834
0.932561
0.917282
0.769793
0.853808
0.921664
0.797422
0.994447
0.994655
0.994846
0.995014
0.995113
0.99517
0.995191
0.995284
0.995173
0.63122
0.38024
0.379758
0.486734
0.81475
0.928724
0.963044
0.98143
0.995981
0.995986
0.995986
0.995986
0.995986
0.995986
0.995985
0.992721
0.986493
0.985992
0.94661
0.828227
0.828634
0.823289
0.765362
0.809735
0.940214
0.946875
0.895309
0.800101
0.921664
0.92167
0.773355
0.99423
0.901316
0.672677
0.572173
0.629862
0.657965
0.808245
0.987946
0.899258
0.423594
0.379758
0.379471
0.379463
0.456272
0.802429
0.857211
0.90848
0.993499
0.995982
0.995986
0.995986
0.995986
0.995985
0.99598
0.995931
0.865583
0.80141
0.800302
0.800182
0.800331
0.84951
0.944746
0.946922
0.946922
0.946922
0.682094
0.771076
0.921671
0.921664
0.649206
0.471171
0.413049
0.411696
0.411696
0.411696
0.414114
0.418031
0.459218
0.404597
0.379887
0.379497
0.379458
0.379471
0.425942
0.742065
0.813727
0.893122
0.993123
0.995956
0.995982
0.995983
0.995982
0.995949
0.995931
0.994979
0.983297
0.90676
0.902502
0.93474
0.935369
0.842956
0.764593
0.783096
0.778034
0.654096
0.634151
0.733628
0.917023
0.834769
0.629479
0.811793
0.761965
0.710072
0.599873
0.537313
0.535782
0.59963
0.583798
0.38906
0.379593
0.3795
0.379497
0.446554
0.879495
0.922417
0.854604
0.939158
0.995563
0.995805
0.995957
0.995921
0.995866
0.923559
0.870928
0.840066
0.793821
0.887823
0.935321
0.935369
0.93534
0.830666
0.760459
0.756374
0.634814
0.626578
0.633983
0.754874
0.750541
0.481821
0.645209
0.896624
0.899479
0.900118
0.901497
0.875665
0.843215
0.852769
0.862243
0.863758
0.846107
0.445037
0.455079
0.819021
0.991879
0.994164
0.995232
0.99542
0.995422
0.995552
0.995652
0.902972
0.797263
0.640879
0.641728
0.693809
0.721632
0.700986
0.700986
0.74289
0.827998
0.825182
0.82196
0.819248
0.714933
0.623484
0.637653
0.754308
0.437269
0.431354
0.644937
0.689008
0.74943
0.839232
0.910595
0.911705
0.898368
0.849516
0.851031
0.858824
0.974255
0.966601
0.779027
0.754788
0.754176
0.754788
0.898559
0.994724
0.99542
0.93917
0.771522
0.526265
0.523675
0.738266
0.980267
0.980257
0.98024
0.94884
0.762604
0.70931
0.728415
0.82196
0.820542
0.768977
0.623484
0.618152
0.613941
0.54316
0.4296
0.429582
0.537957
0.394098
0.385187
0.384473
0.554825
0.877338
0.955808
0.964681
0.970283
0.989137
0.990767
0.990769
0.830688
0.7562
0.785254
0.87592
0.876174
0.76272
0.884848
0.767252
0.548193
0.719655
0.980316
0.98032
0.980317
0.980267
0.979925
0.974156
0.909937
0.680138
0.662004
0.681424
0.676862
0.637335
0.638319
0.75876
0.602711
0.4296
0.429582
0.4296
0.637672
0.834524
0.600059
0.374514
0.370842
0.371047
0.711419
0.989381
0.990711
0.990767
0.99077
0.990769
0.977704
0.927658
0.613829
0.619929
0.712803
0.955193
0.953953
0.720591
0.539446
0.832302
0.980321
0.980317
0.980267
0.979925
0.88454
0.66199
0.66199
0.661968
0.66199
0.662002
0.664752
0.858484
0.916592
0.915878
0.816329
0.491057
0.4296
0.61919
0.908903
0.835656
0.817096
0.549411
0.371047
0.370663
0.396125
0.884093
0.99054
0.990711
0.990767
0.99077
0.761908
0.604646
0.607544
0.708811
0.955381
0.955381
0.912814
0.521255
0.522578
0.880686
0.980321
0.980312
0.98022
0.979108
0.803175
0.663002
0.661968
0.66199
0.662004
0.771449
0.915705
0.917163
0.917079
0.916676
0.915878
0.840021
0.744882
0.911048
0.911048
0.36336
0.774178
0.771832
0.455971
0.3695
0.373242
0.738158
0.986489
0.960346
0.659814
0.521205
0.523129
0.582545
0.943035
0.955456
0.953489
0.871129
0.492611
0.482075
0.508013
0.92014
0.980316
0.98032
0.980312
0.98022
0.968178
0.959548
0.889005
0.671782
0.664881
0.667903
0.881482
0.917079
0.917153
0.917079
0.825027
0.775689
0.764918
0.811925
0.802717
0.3296
0.48259
0.5074
0.359354
0.368478
0.491706
0.908769
0.930699
0.479985
0.421118
0.43027
0.567676
0.967756
0.967447
0.967139
0.752733
0.477561
0.478358
0.47992
0.481981
0.733046
0.980317
0.980312
0.980257
0.974121
0.950826
0.949625
0.965403
0.979439
0.941269
0.8617
0.837835
0.866533
0.91436
0.91384
0.85686
0.804201
0.779835
0.772343
0.810129
0.328511
0.329008
0.333775
0.347276
0.6087
0.77092
0.7782
0.413769
0.412722
0.416222
0.448106
0.91516
0.967756
0.967756
0.87243
0.473707
0.476277
0.47753
0.478263
0.629316
0.979489
0.980301
0.980257
0.979935
0.97941
0.979138
0.977617
0.974178
0.982563
0.983
0.98298
0.982164
0.97944
0.974364
0.975866
0.976733
0.96333
0.89068
0.780195
0.81744
0.327758
0.327757
0.504791
0.756343
0.74141
0.574171
0.409058
0.409718
0.410781
0.412721
0.740128
0.966654
0.967756
0.960531
0.605932
0.472679
0.473877
0.476293
0.710603
0.972951
0.975824
0.958387
0.913706
0.957896
0.977851
0.916324
0.918818
0.979598
0.983
0.983198
0.983463
0.983519
0.983519