/*--------------------------------*- C++ -*----------------------------------*\
  =========                 |
  \\      /  F ield         | OpenFOAM: The Open Source CFD Toolbox
   \\    /   O peration     | Website:  https://openfoam.org
    \\  /    A nd           | Version:  8
     \\/     M anipulation  |
\*---------------------------------------------------------------------------*/
FoamFile
{
    version     2.0;
    format      ascii;
    class       surfaceScalarField;
    location    "6.4";
    object      alphaPhi0.water;
}
// * * * * * * * * * * * * * * * * * * * * * * * * * * * * * * * * * * * * * //

dimensions      [0 3 -1 0 0 0 0];

internalField   nonuniform List<scalar> 
18095
(
1.99862e-08
-1.7204e-07
1.52053e-07
2.32311e-08
-1.97471e-07
1.94227e-07
2.04716e-08
-2.0626e-07
2.09019e-07
1.25893e-08
-2.11671e-07
2.19553e-07
1.29422e-09
-2.13354e-07
2.24649e-07
-1.08218e-08
-2.1298e-07
2.25096e-07
-2.01393e-08
-2.10413e-07
2.19731e-07
-2.32358e-08
-2.06103e-07
2.09199e-07
-1.99732e-08
-1.97607e-07
1.94345e-07
-1.72102e-07
1.52129e-07
1.55524e-08
-1.87592e-07
1.61642e-08
-1.98083e-07
1.17048e-08
-2.018e-07
5.24158e-09
-2.05207e-07
-1.45371e-09
-2.06658e-07
-6.98436e-09
-2.0745e-07
-1.20763e-08
-2.05321e-07
-1.61081e-08
-2.02071e-07
-1.55436e-08
-1.98172e-07
-1.87645e-07
6.80409e-09
-1.94396e-07
8.447e-09
-1.99726e-07
7.53869e-09
-2.00892e-07
4.83292e-09
-2.02502e-07
9.69242e-10
-2.02795e-07
-3.70584e-09
-2.02774e-07
-7.20641e-09
-2.01821e-07
-8.38281e-09
-2.00894e-07
-6.79262e-09
-1.99762e-07
-1.94438e-07
4.52906e-09
-1.98925e-07
4.72828e-09
-1.99925e-07
3.68621e-09
-1.9985e-07
1.55695e-09
-2.00372e-07
-4.59924e-10
-2.00778e-07
-2.27348e-09
-2.00961e-07
-3.75431e-09
-2.0034e-07
-4.71378e-09
-1.99935e-07
-4.49779e-09
-1.99978e-07
-1.98936e-07
1.07487e-09
1.14953e-09
1.29981e-09
9.27496e-10
1.49616e-10
-8.11294e-10
-1.15123e-09
-1.08609e-09
-1.06417e-09
-2.85746e-08
-1.95871e-07
2.24445e-07
-3.11239e-08
-1.99095e-07
2.01645e-07
-2.59748e-08
-2.00781e-07
1.95632e-07
-1.57285e-08
-2.0111e-07
1.90864e-07
-1.50195e-09
-2.01971e-07
1.87745e-07
1.3146e-08
-2.02105e-07
1.87457e-07
2.52104e-08
-2.02159e-07
1.90095e-07
3.11023e-08
-2.01545e-07
1.95654e-07
2.87401e-08
-1.99334e-07
2.01696e-07
-1.96029e-07
2.24769e-07
-9.52111e-09
-1.8635e-07
-1.54126e-08
-1.93204e-07
-1.29114e-08
-2.03282e-07
-6.25008e-09
-2.07771e-07
-2.10147e-10
-2.08011e-07
6.11268e-09
-2.08428e-07
1.30727e-08
-2.09119e-07
1.5415e-08
-2.03888e-07
9.51979e-09
-1.93439e-07
-1.86509e-07
-9.91011e-09
-1.76439e-07
-7.88287e-09
-1.95231e-07
-6.21717e-09
-2.04948e-07
-3.27967e-09
-2.10709e-07
1.96737e-09
-2.13258e-07
6.54517e-09
-2.13006e-07
7.27247e-09
-2.09847e-07
8.08676e-09
-2.04702e-07
9.97056e-09
-1.95322e-07
-1.76539e-07
-6.44431e-09
-1.69995e-07
-8.35005e-09
-1.93325e-07
-8.0193e-09
-2.05279e-07
-3.52033e-09
-2.15208e-07
-1.81868e-10
-2.16596e-07
2.99443e-09
-2.16182e-07
7.48741e-09
-2.1434e-07
8.04853e-09
-2.05263e-07
6.32946e-09
-1.93603e-07
-1.70209e-07
-1.79417e-08
-1.70405e-08
-1.33001e-08
-8.95483e-09
-9.02406e-10
8.01174e-09
1.3403e-08
1.7339e-08
1.80805e-08
3.5014e-08
-1.56889e-07
1.21875e-07
3.97e-08
-1.97358e-07
1.92672e-07
3.0396e-08
-2.0919e-07
2.18494e-07
1.42853e-08
-2.14614e-07
2.30724e-07
-3.6567e-09
-2.17128e-07
2.3507e-07
-1.86885e-08
-2.17412e-07
2.32444e-07
-2.88207e-08
-2.16021e-07
2.26153e-07
-3.52071e-08
-2.11562e-07
2.17949e-07
-2.8826e-08
-1.99842e-07
1.93461e-07
-1.59985e-07
1.31159e-07
1.75351e-08
-1.74424e-07
2.09653e-08
-2.00788e-07
1.89613e-08
-2.07186e-07
1.35882e-08
-2.0924e-07
4.8108e-09
-2.08351e-07
-4.82714e-09
-2.07774e-07
-1.27814e-08
-2.08067e-07
-1.70903e-08
-2.07254e-07
-1.51349e-08
-2.01797e-07
-1.7512e-07
8.36087e-09
-1.82785e-07
8.87824e-09
-2.01306e-07
7.71059e-09
-2.06018e-07
2.58973e-09
-2.0412e-07
-1.2734e-09
-2.04488e-07
-4.37344e-09
-2.04674e-07
-7.46332e-09
-2.04977e-07
-8.39027e-09
-2.06327e-07
-8.25878e-09
-2.01929e-07
-1.83379e-07
7.6819e-09
-1.90466e-07
5.85362e-09
-1.99477e-07
6.86274e-09
-2.07027e-07
2.57196e-09
-1.99829e-07
1.22817e-09
-2.03144e-07
-2.32888e-10
-2.03213e-07
-5.65382e-09
-1.99556e-07
-4.88968e-09
-2.07091e-07
-7.25784e-09
-1.99561e-07
-1.90637e-07
3.39787e-08
3.61462e-08
2.47507e-08
1.57854e-08
3.85875e-10
-1.53695e-08
-2.48305e-08
-3.62676e-08
-3.41321e-08
2.3891e-07
2.30698e-08
-2.64145e-07
2.17604e-07
2.12308e-08
2.00408e-07
1.71574e-08
1.88181e-07
1.40766e-08
1.77626e-07
1.0584e-08
1.69111e-07
8.61763e-09
1.56498e-07
1.10842e-08
1.45251e-07
1.12416e-08
1.30765e-07
1.44817e-08
1.83347e-08
1.12426e-07
2.67325e-07
4.76319e-08
-2.93018e-07
2.45359e-07
4.17016e-08
2.25813e-07
3.66912e-08
2.07685e-07
3.21892e-08
1.93184e-07
2.71227e-08
1.78515e-07
2.35831e-08
1.64606e-07
2.48426e-08
1.51039e-07
2.46362e-08
1.40662e-07
2.47027e-08
2.73991e-08
1.31157e-07
2.49242e-07
6.96978e-08
-2.73846e-07
2.34244e-07
5.66857e-08
2.18358e-07
5.25573e-08
1.99724e-07
5.08102e-08
1.82524e-07
4.67407e-08
1.59998e-07
4.61126e-08
1.38999e-07
4.5772e-08
1.24152e-07
3.93237e-08
1.133e-07
3.53843e-08
3.34373e-08
1.06575e-07
2.39485e-07
8.39856e-08
-2.53828e-07
2.2394e-07
7.19677e-08
2.10236e-07
6.78845e-08
1.96074e-07
6.56413e-08
1.7858e-07
6.42365e-08
1.5927e-07
6.54249e-08
1.41718e-07
6.24265e-08
1.26994e-07
5.37069e-08
1.12658e-07
5.01087e-08
4.62738e-08
9.96441e-08
2.32658e-07
9.13625e-08
-2.39997e-07
2.20383e-07
8.42558e-08
2.06488e-07
8.17616e-08
1.92482e-07
7.96459e-08
1.77697e-07
7.90235e-08
1.64602e-07
7.85223e-08
1.54737e-07
7.22931e-08
1.47291e-07
6.11129e-08
1.35834e-07
5.84596e-08
5.80755e-08
1.23883e-07
2.10035e-07
9.85676e-08
-2.16452e-07
2.01241e-07
9.30324e-08
1.92199e-07
9.07823e-08
1.82762e-07
8.8998e-08
1.73118e-07
8.86685e-08
1.63282e-07
8.836e-08
1.52922e-07
8.26475e-08
1.44098e-07
6.99199e-08
1.35498e-07
6.4714e-08
6.17165e-08
1.31633e-07
1.94095e-07
1.0191e-07
-1.96388e-07
1.90654e-07
9.65562e-08
1.87587e-07
9.38284e-08
1.82739e-07
9.37237e-08
1.75306e-07
9.62011e-08
1.65059e-07
9.86613e-08
1.51816e-07
9.58527e-08
1.3477e-07
8.69201e-08
1.24596e-07
7.47831e-08
6.51255e-08
1.19652e-07
1.88171e-07
1.01667e-07
-1.87946e-07
1.90623e-07
9.5485e-08
1.92489e-07
9.19466e-08
1.95501e-07
9.07022e-08
1.99429e-07
9.22151e-08
1.97527e-07
1.00453e-07
1.86998e-07
1.06274e-07
1.63257e-07
1.10767e-07
1.38476e-07
9.94054e-08
7.92496e-08
1.24239e-07
1.89019e-07
1.00701e-07
-1.86037e-07
1.93223e-07
9.14672e-08
2.01174e-07
8.3985e-08
2.12087e-07
7.97836e-08
2.27111e-07
7.71864e-08
2.47727e-07
7.99361e-08
2.62647e-07
9.13464e-08
2.56503e-07
1.16877e-07
2.13284e-07
1.24709e-07
1.16243e-07
1.72709e-07
1.8791e-07
9.76866e-08
-1.84604e-07
1.94514e-07
8.48466e-08
2.04563e-07
7.39214e-08
2.17764e-07
6.65777e-08
2.32246e-07
6.27016e-08
2.47851e-07
6.43308e-08
2.62585e-07
7.66095e-08
2.58576e-07
1.07315e-07
2.3831e-07
1.18531e-07
1.20747e-07
2.33041e-07
1.91914e-07
9.15229e-08
-1.8575e-07
1.99929e-07
7.6773e-08
2.08036e-07
6.57861e-08
2.1527e-07
5.93677e-08
2.20877e-07
5.70941e-08
2.27428e-07
5.77792e-08
2.40166e-07
6.38707e-08
2.26721e-07
9.13031e-08
2.31611e-07
1.12876e-07
1.1727e-07
2.34541e-07
2.05378e-07
8.29551e-08
-1.9681e-07
2.16009e-07
6.61427e-08
2.23794e-07
5.80006e-08
2.27181e-07
5.59819e-08
2.26218e-07
5.80568e-08
2.2391e-07
6.00866e-08
2.2185e-07
6.59299e-08
2.14765e-07
8.61878e-08
2.16486e-07
1.01365e-07
1.04496e-07
2.28963e-07
2.1704e-07
7.16109e-08
-2.05696e-07
2.28777e-07
5.44064e-08
2.36511e-07
5.02674e-08
2.40734e-07
5.17592e-08
2.37762e-07
5.80578e-08
2.37236e-07
6.16038e-08
2.33256e-07
6.99099e-08
2.32053e-07
8.74219e-08
2.15976e-07
9.72766e-08
9.10151e-08
2.29139e-07
2.04829e-07
6.94806e-08
-2.02582e-07
2.09828e-07
4.94082e-08
2.11725e-07
4.51338e-08
2.17696e-07
4.43195e-08
2.27318e-07
4.83081e-08
2.34695e-07
5.40299e-08
2.40527e-07
6.67995e-08
2.46364e-07
8.16077e-08
2.50229e-07
9.34026e-08
1.00204e-07
2.20766e-07
1.9044e-07
7.04689e-08
-1.81513e-07
1.82913e-07
5.71679e-08
1.80536e-07
4.36142e-08
1.8609e-07
3.86361e-08
1.93689e-07
4.05921e-08
2.06999e-07
4.55685e-08
2.18088e-07
5.5996e-08
2.27727e-07
7.19747e-08
2.33518e-07
8.76173e-08
9.96113e-08
2.34319e-07
1.59227e-07
6.86118e-08
-1.44889e-07
1.63428e-07
5.31183e-08
1.63332e-07
4.30742e-08
1.63359e-07
3.8937e-08
1.66356e-07
3.89605e-08
1.69425e-07
4.26279e-08
1.72314e-07
5.31489e-08
1.71925e-07
7.23695e-08
1.7202e-07
8.75292e-08
9.80143e-08
1.73624e-07
1.35371e-07
6.84117e-08
-1.30972e-07
1.36188e-07
5.22998e-08
1.34436e-07
4.48259e-08
1.3083e-07
4.25404e-08
1.27191e-07
4.25933e-08
1.23241e-07
4.65654e-08
1.14718e-07
6.01014e-08
1.03162e-07
8.04667e-08
9.52135e-08
9.39744e-08
1.04752e-07
8.65092e-08
1.04501e-07
6.78852e-08
-1.03968e-07
1.01952e-07
5.48499e-08
9.78725e-08
4.89059e-08
9.1729e-08
4.86832e-08
8.28046e-08
5.1514e-08
7.04241e-08
5.51004e-08
6.05548e-08
6.9377e-08
4.8463e-08
9.23214e-08
3.72127e-08
1.05023e-07
1.10087e-07
3.1698e-08
7.12807e-08
6.80039e-08
-7.14019e-08
6.82136e-08
5.79163e-08
6.26174e-08
5.45023e-08
5.59023e-08
5.53982e-08
4.5577e-08
6.18383e-08
3.12649e-08
6.84182e-08
1.98981e-08
8.05976e-08
1.19585e-08
1.01756e-07
8.62406e-09
1.10494e-07
1.11222e-07
9.39203e-09
4.54835e-08
6.9487e-08
-4.69707e-08
4.32696e-08
6.00968e-08
3.77736e-08
5.99026e-08
2.93799e-08
6.37908e-08
1.90418e-08
7.19236e-08
5.24568e-09
8.36782e-08
-6.86644e-09
9.52192e-08
-9.00026e-09
1.04863e-07
-6.33341e-09
1.08446e-07
1.09611e-07
-3.90931e-09
2.54827e-08
6.95143e-08
-2.55149e-08
2.30735e-08
6.25055e-08
1.7814e-08
6.51401e-08
7.38019e-09
7.42191e-08
-1.20601e-10
7.94169e-08
-9.31777e-09
9.2868e-08
-1.78727e-08
1.03772e-07
-1.94862e-08
1.06478e-07
-1.76936e-08
1.06655e-07
1.08022e-07
-1.60941e-08
-6.09991e-09
6.62456e-08
9.36354e-09
-4.7825e-09
6.12272e-08
-4.18691e-09
6.46006e-08
-1.39923e-08
8.39284e-08
-2.61357e-08
9.1553e-08
-3.70424e-08
1.0377e-07
-4.05543e-08
1.07278e-07
-3.68575e-08
1.02779e-07
-3.17088e-08
1.01508e-07
1.0429e-07
-2.81002e-08
-6.36748e-08
6.16541e-08
6.82613e-08
-5.55483e-08
5.30956e-08
-4.60151e-08
5.50627e-08
-4.43605e-08
8.18593e-08
-5.41005e-08
1.00267e-07
-6.10663e-08
1.08601e-07
-6.09684e-08
1.07178e-07
-5.69114e-08
9.8723e-08
-5.22272e-08
9.68256e-08
9.67594e-08
-4.4752e-08
-1.27883e-07
6.80229e-08
1.21509e-07
-1.20736e-07
4.59442e-08
-1.08249e-07
4.25731e-08
-8.98435e-08
6.41954e-08
-7.9865e-08
9.00589e-08
-6.94324e-08
9.79667e-08
-6.37982e-08
9.92999e-08
-6.3192e-08
9.53105e-08
-6.09802e-08
9.43028e-08
8.69905e-08
-5.12108e-08
-1.23327e-07
7.28923e-08
1.00893e-07
-1.27811e-07
4.97421e-08
-1.28534e-07
4.32864e-08
-1.12027e-07
4.75137e-08
-9.06102e-08
7.00612e-08
-7.49942e-08
8.21573e-08
-6.17145e-08
8.58868e-08
-5.14973e-08
8.50081e-08
-4.50465e-08
8.48146e-08
7.3208e-08
-3.12621e-08
-4.17081e-08
7.0532e-08
4.20452e-08
-4.9476e-08
5.48193e-08
-6.76777e-08
5.152e-08
-8.31678e-08
5.1635e-08
-7.58454e-08
6.31519e-08
-5.92299e-08
6.59484e-08
-4.68452e-08
7.32286e-08
-3.52101e-08
7.32876e-08
-1.72493e-08
6.72742e-08
5.73206e-08
-1.65074e-09
3.10002e-08
6.75916e-08
-2.32273e-08
2.53294e-08
5.98834e-08
2.15803e-08
5.46642e-08
8.27178e-09
6.42324e-08
4.82878e-11
6.53719e-08
-5.65957e-09
6.8735e-08
-1.80344e-09
7.02782e-08
5.72823e-09
6.66084e-08
1.37374e-08
6.02455e-08
5.2541e-08
1.84908e-08
8.38277e-08
4.49277e-08
-5.87462e-08
8.603e-08
6.1767e-08
7.25852e-08
7.35436e-08
5.92649e-08
7.66918e-08
6.33912e-08
6.01703e-08
6.45516e-08
6.63282e-08
6.76784e-08
6.86094e-08
6.2765e-08
7.2015e-08
5.39312e-08
6.90789e-08
6.3626e-08
4.28463e-08
9.62317e-08
3.07418e-08
-8.20456e-08
1.07886e-07
5.01133e-08
1.12308e-07
6.91223e-08
1.07544e-07
8.30841e-08
8.96586e-08
8.29196e-08
8.88393e-08
6.58609e-08
9.50923e-08
6.11329e-08
9.91278e-08
7.43088e-08
8.57791e-08
8.24291e-08
7.92526e-08
7.01524e-08
9.89813e-08
2.88458e-08
-9.70853e-08
1.0478e-07
4.43147e-08
1.11087e-07
6.28151e-08
1.15068e-07
7.91034e-08
1.15975e-07
8.20155e-08
1.02537e-07
8.10509e-08
9.20133e-08
7.05183e-08
9.74074e-08
7.92134e-08
8.63163e-08
9.37149e-08
9.03934e-08
7.51755e-08
1.03227e-07
2.67968e-08
-1.01178e-07
1.06103e-07
4.1439e-08
1.09786e-07
5.91319e-08
1.15482e-07
7.34074e-08
1.16287e-07
8.1211e-08
1.13541e-07
8.37977e-08
9.8276e-08
9.06231e-08
8.45489e-08
9.9493e-08
7.90966e-08
1.00134e-07
1.00338e-07
6.91518e-08
7.78377e-08
-9.02327e-09
-4.20176e-08
9.66871e-08
2.25896e-08
9.26619e-08
6.31571e-08
9.53158e-08
7.07538e-08
9.84489e-08
7.8078e-08
9.58028e-08
8.64436e-08
8.80923e-08
9.83341e-08
7.97527e-08
1.07837e-07
6.66084e-08
1.13245e-07
1.32726e-07
3.41806e-08
2.87575e-08
-3.44685e-08
-2.11269e-09
3.82423e-08
1.27746e-08
2.58283e-08
7.24411e-08
1.67738e-08
7.98083e-08
1.66094e-08
7.82423e-08
2.38005e-08
7.92525e-08
2.95774e-08
9.25574e-08
2.08033e-08
1.16613e-07
-2.96789e-09
1.37022e-07
1.58755e-07
-4.53092e-08
-5.53514e-08
-1.27706e-08
3.78532e-08
-5.12612e-08
7.21796e-09
-1.7177e-08
3.64263e-08
-4.28229e-09
5.45309e-08
-3.74101e-09
6.57897e-08
-1.35525e-08
7.9621e-08
-2.7523e-08
9.69354e-08
-4.45319e-08
1.20209e-07
-6.09602e-08
1.374e-07
1.62737e-07
-6.60736e-08
-2.15285e-08
3.31717e-09
5.49242e-09
-2.03703e-08
6.77711e-09
-7.9884e-09
2.65677e-08
-9.52409e-10
5.42977e-08
-7.6307e-09
7.84601e-08
-1.86402e-08
9.1269e-08
-2.44122e-08
1.00901e-07
-2.75925e-08
1.23073e-07
-4.30414e-08
1.52725e-07
1.68158e-07
-4.85768e-08
6.88429e-08
4.46038e-08
-1.09987e-07
2.69457e-08
4.87575e-08
-5.48336e-09
5.96329e-08
-1.74198e-08
6.8952e-08
-2.07798e-08
8.58105e-08
-2.67732e-08
1.05701e-07
-2.12272e-08
1.05756e-07
-5.09218e-09
1.17804e-07
6.16731e-09
1.41343e-07
1.63379e-07
1.08247e-08
1.92995e-07
6.19954e-08
-2.11839e-07
1.71372e-07
8.31554e-08
1.13779e-07
1.1786e-07
4.85873e-08
1.34781e-07
6.65375e-10
1.34369e-07
-1.47719e-08
1.218e-07
-1.43458e-08
1.07273e-07
7.61907e-09
9.8628e-08
4.06489e-08
1.21049e-07
1.67938e-07
5.08178e-08
2.73962e-07
4.63729e-08
-2.36731e-07
2.80934e-07
8.52826e-08
2.44582e-07
1.411e-07
1.64637e-07
1.78389e-07
1.05976e-07
1.82689e-07
4.47386e-08
1.69778e-07
2.17143e-08
1.31243e-07
2.90527e-08
9.18103e-08
4.19932e-08
1.08629e-07
1.85159e-07
3.24882e-08
1.91516e-07
2.01795e-08
-1.64158e-07
1.96713e-07
7.7636e-08
1.81089e-07
1.44627e-07
1.46697e-07
1.96133e-07
1.24727e-07
2.04461e-07
1.04558e-07
1.8973e-07
7.40904e-08
1.53616e-07
2.86558e-08
1.28805e-07
-1.88411e-08
1.33622e-07
1.98707e-07
-4.39114e-08
3.14163e-09
-1.0564e-08
2.68179e-08
2.32313e-08
5.7567e-08
3.42044e-08
1.32176e-07
4.57679e-08
1.8423e-07
5.59902e-08
1.94069e-07
5.15273e-08
1.93994e-07
1.85807e-08
1.71551e-07
-1.45312e-08
1.43486e-07
-5.43809e-08
1.62778e-07
2.23285e-07
-1.01131e-07
-2.99867e-07
-4.80114e-08
3.36815e-07
-2.65069e-07
2.27898e-08
-1.90937e-07
8.15285e-08
-1.26814e-07
1.19913e-07
-6.98024e-08
1.3687e-07
-4.46834e-08
1.68668e-07
-3.71217e-08
1.86905e-07
-4.93567e-08
1.65579e-07
-1.09415e-07
2.12393e-07
2.62636e-07
-1.70404e-07
-5.6232e-07
-7.97636e-08
6.01196e-07
-5.12551e-07
-3.42931e-08
-4.30423e-07
8.3067e-09
-3.3241e-07
4.76286e-08
-2.87929e-07
1.01676e-07
-2.46061e-07
1.37143e-07
-1.67072e-07
1.43577e-07
-1.73538e-07
1.67305e-07
-2.03416e-07
2.34805e-07
2.84246e-07
-2.51791e-07
-3.86527e-07
-7.99066e-08
5.44686e-07
-5.81183e-07
-4.83531e-08
-5.29251e-07
-6.49786e-08
-4.26651e-07
-5.63083e-08
-3.50611e-07
1.95495e-08
-3.06565e-07
9.2746e-08
-2.37472e-07
1.36165e-07
-2.47131e-07
1.72224e-07
-2.58517e-07
2.4145e-07
2.80905e-07
-2.82811e-07
-4.27026e-07
-1.19585e-07
4.58423e-07
-3.76685e-07
-1.05615e-07
-4.42715e-07
-9.32022e-08
-4.73661e-07
-8.27208e-08
-4.12245e-07
-4.29319e-08
-3.74112e-07
6.08178e-08
-3.51063e-07
1.33562e-07
-3.10802e-07
1.76526e-07
-3.20378e-07
2.31621e-07
2.35782e-07
-2.76161e-07
-4.89275e-07
-2.18572e-07
6.52306e-07
-4.25644e-07
-1.78681e-07
-4.06258e-07
-1.22023e-07
-3.81036e-07
-1.17378e-07
-3.57685e-07
-7.95503e-08
-4.66354e-07
-1.76589e-08
-5.36045e-07
4.904e-08
-4.6226e-07
1.04709e-07
-3.49029e-07
1.17817e-07
1.46875e-07
-2.60802e-07
-7.34273e-07
-2.76691e-07
8.27906e-07
-5.23287e-07
-2.01977e-07
-4.66114e-07
-1.82239e-07
-4.21058e-07
-1.75259e-07
-3.80136e-07
-1.49876e-07
-3.2887e-07
-9.43891e-08
-2.69653e-07
-5.25241e-08
-3.25976e-07
-1.99176e-08
-2.94164e-07
5.4949e-10
2.11313e-08
-1.56464e-07
-6.60096e-07
-2.83309e-07
6.90905e-07
-5.82177e-07
-2.04781e-07
-5.54545e-07
-1.85328e-07
-5.38271e-07
-1.71779e-07
-5.01994e-07
-1.70535e-07
-4.09459e-07
-1.41432e-07
-2.91545e-07
-1.01959e-07
-1.81608e-07
-1.06351e-07
-1.80142e-07
-8.65123e-08
-6.28099e-08
-1.23188e-07
-3.34182e-07
-3.33792e-07
3.57136e-07
-2.98156e-07
-2.70059e-07
-2.9441e-07
-2.16255e-07
-3.00515e-07
-1.60293e-07
-2.82035e-07
-1.69942e-07
-2.61626e-07
-1.50268e-07
-1.88306e-07
-1.44483e-07
-1.28213e-07
-1.43045e-07
-9.06961e-08
-1.12993e-07
-1.03776e-07
-4.27885e-08
-2.31889e-07
-4.37006e-07
2.96168e-07
-1.49675e-07
-4.06639e-07
-6.92454e-08
-3.51882e-07
-1.609e-08
-2.90253e-07
3.4244e-08
-2.97468e-07
1.12117e-07
-3.26548e-07
1.47159e-07
-3.05638e-07
1.65073e-07
-2.46383e-07
1.61435e-07
-1.82365e-07
-8.17947e-08
2.22702e-07
-2.11292e-07
-4.9314e-07
2.68251e-07
-1.28511e-07
-4.88586e-07
-7.92748e-09
-4.71069e-07
1.02503e-07
-3.98231e-07
2.02932e-07
-3.964e-07
3.00243e-07
-3.9852e-07
4.08653e-07
-3.95834e-07
5.2424e-07
-3.52467e-07
5.18906e-07
-3.08233e-07
-1.95314e-07
3.19536e-07
-9.20029e-08
-5.41818e-07
1.41515e-07
-8.96495e-09
-5.7095e-07
1.4123e-07
-6.19535e-07
2.63587e-07
-5.60896e-07
2.92701e-07
-3.73019e-07
3.60965e-07
-2.36038e-07
4.53489e-07
-1.7183e-07
5.53933e-07
-2.49937e-07
5.73164e-07
-3.14286e-07
-2.4209e-07
6.17959e-07
1.28255e-07
-5.81903e-07
-8.74968e-08
1.9134e-07
-5.8372e-07
2.944e-07
-6.6358e-07
3.36769e-07
-6.29263e-07
2.78161e-07
-3.68476e-07
2.87459e-07
-2.22609e-07
2.87166e-07
-1.63577e-07
4.29849e-07
-1.42996e-07
6.04282e-07
-1.18753e-07
-7.64611e-08
5.35492e-07
1.84019e-07
-6.1624e-07
-1.6871e-07
2.14462e-07
-6.10054e-07
2.29024e-07
-6.90586e-07
2.66456e-07
-6.71565e-07
2.2148e-07
-3.94498e-07
2.46308e-07
-2.34089e-07
2.68052e-07
-1.78355e-07
2.67389e-07
-1.4198e-07
2.48104e-07
-9.9389e-08
-3.47611e-08
2.0698e-07
1.97449e-07
-6.71457e-07
-2.00388e-07
2.31779e-07
-6.58544e-07
1.87081e-07
-6.58099e-07
1.94434e-07
-6.59482e-07
1.38174e-07
-3.1431e-07
1.44101e-07
-2.33019e-07
1.58117e-07
-1.91385e-07
1.62113e-07
-1.45765e-07
1.56534e-07
-9.33107e-08
-4.07784e-08
1.63225e-07
1.68237e-07
-7.2484e-07
-1.74692e-07
1.69397e-07
-6.81842e-07
1.09676e-07
-6.11554e-07
6.20413e-08
-5.54945e-07
2.42129e-08
-2.46323e-07
5.51902e-09
-2.13705e-07
-2.05188e-08
-1.65109e-07
-4.43077e-08
-1.2151e-07
-7.56314e-08
-6.11859e-08
-9.89957e-09
-1.06199e-07
8.32132e-08
-7.66049e-07
-7.22458e-08
3.87637e-08
-6.79628e-07
-1.80356e-08
-5.96833e-07
-6.64331e-08
-4.19073e-07
-1.00676e-07
-1.96312e-07
-1.53762e-07
-1.58445e-07
-2.0688e-07
-1.11678e-07
-2.55091e-07
-7.21551e-08
-3.11328e-07
-3.13857e-09
2.83461e-08
-3.43938e-07
-3.69907e-08
-7.10242e-07
1.71579e-08
-1.21999e-07
-6.32601e-07
-2.06671e-07
-6.19625e-07
-1.65206e-07
-3.82306e-07
-2.13947e-07
-1.4712e-07
-2.41166e-07
-9.84721e-08
-2.70676e-07
-7.98531e-08
-3.07118e-07
-3.57604e-08
-3.26106e-07
1.726e-08
5.05902e-08
-3.45789e-07
-8.93531e-08
-5.32138e-07
7.60859e-08
-1.76054e-07
-5.36029e-07
-2.55312e-07
-5.4585e-07
-3.47513e-07
-3.10567e-07
-2.67027e-07
-1.79152e-07
-2.66425e-07
-9.88561e-08
-2.71993e-07
-6.51991e-08
-2.84902e-07
-2.29988e-08
-6.08761e-07
4.58558e-08
9.95194e-08
-8.22411e-07
-1.18165e-07
-4.29122e-07
9.57642e-08
-2.06772e-07
-4.48009e-07
-2.63129e-07
-4.83008e-07
-3.73142e-07
-2.0607e-07
-4.48959e-07
-1.04948e-07
-3.17608e-07
-5.93775e-08
-3.47151e-07
-4.10936e-08
-6.95117e-07
1.60558e-10
-7.56307e-07
6.3011e-08
8.0747e-08
-7.38015e-07
-1.08668e-07
-4.17841e-07
7.70693e-08
-1.80812e-07
-4.26856e-07
-2.33478e-07
-4.2274e-07
-3.35688e-07
-1.25685e-07
-4.00896e-07
-4.1148e-08
-2.65004e-07
-3.16503e-08
-2.66047e-07
-1.78807e-08
-6.28084e-07
2.46886e-08
-6.28055e-07
6.24667e-08
6.37797e-08
-6.11364e-07
-1.32236e-07
-4.12844e-07
1.13522e-07
-1.59096e-07
-5.26122e-07
-1.83577e-07
-3.90441e-07
-1.76296e-07
-7.98703e-08
-2.23302e-07
-3.85918e-09
-3.35136e-07
-9.01197e-10
-2.7753e-07
4.32592e-09
-2.19482e-07
3.56237e-08
-4.36515e-07
5.63174e-08
6.72402e-08
-5.31789e-07
-3.12563e-07
-4.12556e-07
2.27653e-07
-3.07482e-07
-5.36154e-07
-2.82137e-07
-4.03882e-07
-1.90205e-07
-8.69994e-08
-1.9035e-07
-1.34323e-08
-2.20268e-07
1.89807e-08
-2.26343e-07
5.19412e-08
-1.90575e-07
3.24211e-08
-1.82339e-07
4.27066e-08
5.57354e-08
-2.98949e-07
-4.45215e-07
-3.88426e-07
3.6084e-07
-4.60613e-07
-5.18862e-07
-3.71403e-07
-4.94068e-07
-2.08625e-07
-1.96487e-07
-1.85855e-07
-4.59191e-08
-2.3349e-07
1.91956e-08
-2.57022e-07
7.55481e-08
-1.42207e-07
4.97957e-08
-1.36614e-07
3.27398e-08
4.85525e-08
-1.32516e-07
-4.72013e-07
-3.39724e-07
4.15245e-07
-5.94498e-07
-4.74693e-07
-5.10048e-07
-5.79333e-07
-2.65869e-07
-4.23383e-07
-2.07206e-07
-1.10281e-07
-2.71906e-07
1.17424e-08
-2.54283e-07
5.83372e-08
-1.92038e-07
6.40815e-08
-1.07866e-07
4.53607e-08
4.63862e-08
-1.09304e-07
-4.30884e-07
-2.39285e-07
3.25519e-07
-5.56231e-07
-3.56507e-07
-6.00013e-07
-5.38004e-07
-3.94442e-07
-6.42536e-07
-1.54954e-07
-3.66912e-07
-1.6873e-07
1.69624e-09
-1.80842e-07
7.08794e-08
-1.9938e-07
8.28257e-08
-2.08335e-07
9.30399e-08
1.02956e-07
-1.124e-07
-2.16688e-07
-1.50849e-07
1.1694e-07
-3.02311e-07
-2.61121e-07
-5.09313e-07
-3.1364e-07
-4.44131e-07
-7.09405e-07
-1.57957e-07
-6.64818e-07
4.79757e-09
-1.80401e-07
-4.07755e-08
1.16692e-07
-9.83124e-08
1.40513e-07
-1.49399e-07
1.44116e-07
1.4498e-07
-1.76744e-07
4.36708e-08
-7.01178e-08
-1.24391e-07
-8.99876e-08
-1.66013e-07
-2.0138e-07
-1.94027e-07
-2.47646e-07
-5.96917e-07
-1.11533e-07
-8.01865e-07
1.29234e-07
-4.25381e-07
7.5803e-08
1.5515e-07
-1.16534e-08
2.27472e-07
-8.31439e-08
2.15587e-07
1.93122e-07
-1.31235e-07
1.67153e-07
-6.44373e-08
-1.72822e-07
9.84969e-08
-9.73455e-08
-2.1097e-08
-8.74599e-08
-8.37951e-08
-5.63261e-07
-3.58664e-08
-8.49334e-07
4.74179e-08
-5.08114e-07
-2.10849e-09
1.9127e-07
-6.59571e-08
2.89486e-07
-1.1807e-07
2.6771e-07
2.2525e-07
-1.50185e-07
5.19905e-08
-3.73706e-09
-1.1268e-07
-1.59027e-08
-2.85522e-09
-2.40087e-08
-8.49775e-08
-7.24527e-08
-5.85139e-07
-6.17977e-08
-8.59518e-07
-5.68414e-08
-5.12653e-07
-1.021e-07
2.23122e-07
-1.06537e-07
2.71951e-07
-1.18027e-07
2.79213e-07
2.40758e-07
-1.33524e-07
-1.35982e-07
1.09187e-07
2.35597e-08
-9.25638e-08
4.28649e-08
-9.21731e-08
-8.02014e-08
-2.05701e-07
-5.54366e-07
-1.89382e-07
-8.75215e-07
-1.14462e-07
-5.86856e-07
-8.37633e-08
2.00314e-07
-6.96652e-08
2.48735e-07
-5.21538e-08
2.47564e-07
2.27357e-07
-4.43345e-08
-9.50139e-08
6.79883e-08
1.62461e-07
-8.65062e-08
3.64408e-08
-8.50521e-08
-7.71682e-08
-2.49416e-07
-3.5888e-07
-2.2869e-07
-8.95224e-07
-1.16611e-07
-7.07069e-07
-3.19805e-08
1.16679e-07
-1.68413e-08
2.35174e-07
-5.08367e-11
2.26864e-07
2.0911e-07
1.79344e-08
-2.10845e-08
5.38627e-08
5.64804e-08
-1.89546e-08
3.71284e-08
-3.77368e-08
-5.29215e-08
-2.05328e-07
-1.67887e-07
-1.87455e-07
-9.12291e-07
-1.26542e-07
-7.64532e-07
5.29213e-08
-5.24448e-08
8.96539e-08
1.97427e-07
7.2082e-08
2.43718e-07
1.97193e-07
8.34825e-08
-5.69109e-09
3.88102e-08
2.10303e-08
1.2084e-08
1.83968e-08
-2.92477e-10
-3.31786e-08
3.39894e-10
-1.61638e-07
-3.31586e-08
-8.67417e-07
4.13119e-08
-8.39247e-07
1.00992e-07
-1.05906e-07
1.95869e-07
8.99345e-08
1.86507e-07
2.27842e-07
2.56254e-07
1.26755e-07
-1.11926e-08
2.02634e-09
6.21335e-08
2.5706e-08
-1.12348e-08
9.39529e-09
-2.0522e-08
9.13813e-10
-1.4896e-07
-2.16838e-08
-8.44258e-07
-1.76256e-08
-8.36497e-07
1.75448e-08
-1.36446e-07
5.56257e-08
5.21347e-08
1.1019e-07
9.57439e-08
2.61175e-07
4.6118e-08
-9.06159e-09
-5.54311e-09
1.95679e-08
7.2209e-09
-2.04272e-08
-3.32397e-10
-1.74204e-08
-2.69664e-08
-1.35754e-07
-3.36759e-08
-8.51356e-07
-2.49352e-08
-8.40029e-07
1.06715e-08
-1.52774e-07
3.29337e-08
2.98542e-08
3.94978e-08
8.20369e-08
2.00714e-07
-2.09333e-09
-7.33862e-09
-3.07277e-10
2.25548e-09
-1.43769e-08
-7.78794e-09
-8.05557e-10
-2.76033e-08
-1.19775e-09
-1.36197e-07
-1.46291e-09
-8.60632e-07
-2.57278e-09
-8.43414e-07
3.49226e-09
-1.5467e-07
1.90585e-08
1.40889e-08
3.17925e-08
6.92846e-08
1.02047e-07
9.20699e-08
-3.28202e-10
-9.34704e-12
3.03587e-11
-1.46548e-09
-1.42607e-11
1.13175e-08
-1.31442e-11
2.51294e-08
-1.46835e-07
1.45392e-08
-8.51488e-07
1.34901e-10
-8.39825e-07
-1.61578e-09
-1.58001e-07
8.56371e-09
3.72162e-09
2.50055e-08
5.26746e-08
4.92768e-08
7.75348e-08
-1.06295e-11
-7.27986e-12
8.62358e-12
-1.20857e-11
-1.28129e-11
4.20386e-13
-2.56576e-11
1.42472e-08
-1.70878e-07
-2.94954e-10
-8.38625e-07
-1.37331e-08
-8.3053e-07
-1.28911e-08
-1.69105e-07
2.05841e-10
-3.61252e-09
2.8069e-08
3.03286e-08
1.44224e-08
6.3606e-08
-1.85714e-12
-3.17428e-12
-2.15585e-12
-3.63372e-12
-1.09789e-11
1.88153e-12
-3.11812e-11
1.10366e-08
-1.84137e-07
-5.83208e-10
-8.27085e-07
-1.32432e-08
-8.20501e-07
-9.06015e-09
-1.79932e-07
-1.60778e-08
2.29466e-09
4.6435e-09
6.84245e-09
-9.75787e-10
1.68228e-08
9.42892e-12
1.67816e-12
-1.42491e-11
3.66695e-12
-5.11377e-12
2.35791e-12
-2.98072e-11
7.4241e-09
-1.92007e-07
-4.37511e-09
-8.15428e-07
-1.16997e-08
-8.12986e-07
0
-1.93753e-07
0
-1.96516e-12
1.74227e-09
0
-4.80332e-12
7.70432e-10
7.69898e-12
4.73169e-12
-1.0581e-11
6.29729e-12
-3.63898e-12
4.6161e-12
-2.797e-11
9.21715e-09
-2.07462e-07
-1.09233e-08
-7.99158e-07
-2.33517e-08
-7.95865e-07
-7.92841e-13
-2.07631e-07
0
-2.83686e-12
5.97911e-12
-7.59484e-12
-6.54512e-12
6.76214e-12
4.81176e-12
7.73517e-12
-7.54483e-12
7.33673e-12
6.05493e-12
8.74473e-12
-2.90623e-11
-1.43452e-09
-2.20156e-07
-2.21668e-08
-7.83375e-07
-3.14828e-08
-7.80901e-07
-1.62141e-12
-2.22606e-07
-1.81888e-12
-2.83638e-12
-6.33566e-13
-2.3056e-12
0
5.56011e-13
1.15563e-11
2.37973e-11
-1.11782e-11
1.95539e-11
1.18748e-11
2.03046e-11
-2.83625e-11
7.72725e-09
-2.33478e-07
-1.1614e-08
-7.65621e-07
-2.60103e-08
-7.63626e-07
-3.81619e-12
-2.37352e-07
-3.7637e-12
-2.70025e-12
-4.40519e-13
-1.21857e-11
-9.04434e-12
-8.2381e-13
-7.25865e-12
9.78198e-12
8.48668e-12
5.65557e-12
3.12633e-13
8.25463e-12
-2.9099e-11
1.59022e-08
-2.50069e-07
-3.60487e-09
-7.46411e-07
-2.10227e-08
-7.45529e-07
-9.55671e-12
-2.53488e-07
-9.55508e-12
-1.98322e-12
-1.9721e-13
-2.15647e-11
-2.81341e-11
-3.37093e-12
-7.08228e-13
5.85812e-12
3.78327e-12
3.05254e-12
-3.08469e-12
4.58439e-12
-2.93827e-11
1.9779e-08
-2.66926e-07
2.81425e-09
-7.28831e-07
-1.60465e-08
-7.2745e-07
-6.51624e-12
-2.69151e-07
-7.03015e-12
-8.2274e-13
-6.21799e-12
-1.52331e-11
-5.49426e-11
-1.08296e-11
1.99655e-12
1.41313e-11
-3.39709e-14
7.46162e-12
-6.46963e-12
8.43405e-12
-2.99917e-11
3.32584e-08
-2.94735e-07
8.24595e-09
-7.03499e-07
-1.19298e-08
-7.08023e-07
-2.44243e-12
-2.88313e-07
-2.46079e-12
-4.89125e-13
-3.63477e-12
-2.68748e-13
-2.31582e-13
-8.85567e-13
8.10995e-12
1.26467e-11
0
9.8181e-12
-6.16562e-12
9.87093e-12
-3.02699e-11
4.67622e-09
-3.12094e-07
-1.38974e-08
-6.87652e-07
-3.65242e-08
-6.83671e-07
-1.62141e-12
-3.15435e-07
-2.47873e-14
-1.88057e-12
-2.19404e-15
-1.88143e-13
-1.84213e-13
4.84143e-16
1.6917e-11
1.38792e-11
-1.06586e-11
1.46425e-11
-5.01713e-12
1.9611e-11
-3.53167e-11
1.88371e-08
-3.44383e-07
-8.72202e-09
-6.60921e-07
-3.59628e-08
-6.56622e-07
-8.90544e-12
-3.45356e-07
-1.95399e-13
-1.03708e-11
-4.96649e-14
-1.40658e-13
-2.54597e-13
-3.12082e-14
1.66687e-11
1.00935e-11
-5.01009e-12
1.61745e-11
5.46653e-13
5.47035e-11
-7.33058e-11
2.50722e-08
-3.70276e-07
7.02319e-10
-6.36388e-07
-2.13952e-08
-6.34665e-07
-5.49834e-11
-3.70448e-07
-5.80256e-13
-6.47117e-11
-4.39335e-13
-1.54989e-13
-2.0767e-12
-4.94847e-13
1.15297e-11
1.09935e-11
-4.07715e-12
1.40266e-11
-1.36743e-14
3.60297e-10
-4.18733e-10
2.8545e-08
-3.9662e-07
-2.26404e-10
-6.07868e-07
-2.515e-08
-6.09526e-07
-3.71316e-10
-3.95804e-07
-1.28386e-12
-4.34713e-10
-1.31253e-12
-9.42023e-14
-2.4987e-12
-1.14527e-12
-9.59416e-15
0
9.70424e-12
1.01646e-13
-1.3681e-13
2.40108e-09
-2.81973e-09
2.54062e-08
-4.21982e-07
-2.91428e-09
-5.79631e-07
-3.10487e-08
-5.81274e-07
-2.39892e-09
-4.22706e-07
-4.77465e-13
-2.83313e-09
-4.87781e-13
-6.54607e-14
-5.9549e-13
-7.2732e-13
0
-2.62097e-13
4.25039e-13
1.13516e-13
-2.62529e-13
1.0856e-08
-1.36756e-08
2.74516e-08
-4.38159e-07
7.36257e-10
-5.52836e-07
-2.68404e-08
-5.53788e-07
-1.07402e-08
-4.37443e-07
-1.41456e-14
-1.35733e-08
-1.77089e-14
-4.42524e-14
-9.35777e-16
-2.56052e-13
6.15247e-13
-2.2693e-13
-4.1092e-13
8.45454e-13
-5.04631e-13
2.15885e-08
-3.50992e-08
3.32353e-08
-4.49429e-07
1.05113e-10
-5.19704e-07
-3.35008e-08
-5.20177e-07
-2.12464e-08
-4.49791e-07
-1.07057e-12
-3.47257e-08
-3.19292e-16
-1.11454e-12
-1.25608e-15
-3.82141e-19
9.21676e-13
-1.59526e-14
-1.69625e-12
6.36549e-12
-5.94919e-12
3.30751e-08
-6.75176e-08
3.11361e-08
-4.47079e-07
7.98125e-10
-4.8935e-07
-3.01584e-08
-4.89229e-07
-3.29498e-08
-4.4668e-07
-1.40431e-11
-6.7104e-08
-2.33397e-14
-1.51348e-11
-2.45945e-14
-1.25854e-18
3.20149e-15
-4.74199e-15
-1.60725e-14
9.70239e-11
-1.02973e-10
5.0601e-08
-1.16875e-07
4.0323e-08
-4.36272e-07
9.5144e-10
-4.4998e-07
-3.95626e-08
-4.48715e-07
-5.08737e-08
-4.35212e-07
-1.90389e-10
-1.1728e-07
-4.81014e-13
-2.0505e-10
-5.05609e-13
-7.83747e-24
7.80394e-13
-7.84891e-13
-2.67616e-16
1.66765e-09
-1.76982e-09
7.54173e-08
-1.89625e-07
3.99754e-08
-4.00811e-07
-2.13408e-10
-4.09787e-07
-3.90214e-08
-4.09912e-07
-7.37249e-08
-4.00421e-07
-2.53712e-09
-1.88827e-07
-9.18109e-12
-2.73309e-09
-9.6867e-12
-1.11237e-22
4.09137e-11
-4.16986e-11
-6.79567e-19
1.60698e-08
-1.77981e-08
8.82205e-08
-2.58346e-07
4.45384e-08
-3.57125e-07
-3.11316e-10
-3.64934e-07
-4.50102e-08
-3.65216e-07
-8.72246e-08
-3.58212e-07
-1.95437e-08
-2.59824e-07
-1.4543e-10
-2.21323e-08
-1.55116e-10
-1.75084e-23
1.46073e-09
-1.50243e-09
-1.02736e-20
5.77812e-08
-6.99137e-08
9.44521e-08
-2.91555e-07
4.88257e-08
-3.11495e-07
-1.89788e-09
-3.1421e-07
-5.15716e-08
-3.15543e-07
-9.59119e-08
-3.13875e-07
-6.76161e-08
-2.9115e-07
-2.68968e-09
-9.04794e-08
-2.8448e-09
-2.44597e-25
3.01499e-08
-3.16524e-08
-4.13097e-23
1.50931e-07
-1.87402e-07
1.1381e-07
-2.5433e-07
6.14836e-08
-2.59169e-07
8.09689e-09
-2.60824e-07
-4.38003e-08
-2.63645e-07
-9.49912e-08
-2.62684e-07
-1.34491e-07
-2.51651e-07
-3.49492e-08
-1.91472e-07
-3.77939e-08
-4.528e-32
9.1193e-08
-4.03348e-27
9.66624e-08
6.08262e-08
3.23819e-08
6.6288e-09