/*--------------------------------*- C++ -*----------------------------------*\
  =========                 |
  \\      /  F ield         | OpenFOAM: The Open Source CFD Toolbox
   \\    /   O peration     | Website:  https://openfoam.org
    \\  /    A nd           | Version:  8
     \\/     M anipulation  |
\*---------------------------------------------------------------------------*/
FoamFile
{
    version     2.0;
    format      ascii;
    class       volScalarField;
    location    "0.5";
    object      p;
}
// * * * * * * * * * * * * * * * * * * * * * * * * * * * * * * * * * * * * * //

dimensions      [1 -1 -2 0 0 0 0];

internalField   nonuniform List<scalar> 
9150
(
-204.619
-205.6
-206.196
-206.686
-206.926
-206.927
-206.69
-206.204
-205.605
-204.622
-224.653
-225.17
-225.575
-225.911
-226.078
-226.077
-225.912
-225.58
-225.172
-224.655
-244.543
-244.831
-245.077
-245.298
-245.417
-245.412
-245.297
-245.08
-244.833
-244.545
-264.282
-264.46
-264.628
-264.785
-264.867
-264.871
-264.788
-264.63
-264.462
-264.284
-283.9
-284.087
-284.223
-284.351
-284.412
-284.42
-284.349
-284.221
-284.088
-283.901
-118.311
-119.361
-119.286
-118.748
-118.619
-118.619
-118.752
-119.292
-119.372
-118.325
-134.039
-134.746
-135.02
-135.095
-135.012
-135.017
-135.107
-135.042
-134.772
-134.059
-150.607
-151.347
-151.681
-152.017
-152.08
-152.083
-152.026
-151.685
-151.362
-150.623
-167.517
-168.604
-169.032
-169.668
-169.834
-169.838
-169.682
-169.041
-168.616
-167.528
-184.376
-186.475
-187.226
-187.962
-188.208
-188.21
-187.959
-187.226
-186.477
-184.376
-24.808
-26.3815
-28.3535
-29.4446
-29.9985
-29.9602
-29.367
-28.3426
-26.5426
-25.3231
-45.3688
-45.5174
-46.4289
-46.784
-47.2398
-47.278
-46.9083
-46.5872
-45.6888
-45.5863
-65.1556
-65.1259
-66.0606
-65.7239
-66.1376
-66.1599
-65.7172
-66.0953
-65.203
-65.2534
-87.9381
-85.3128
-86.3205
-84.7892
-85.0295
-85.0545
-84.7991
-86.3752
-85.3482
-87.9911
-114.691
-104.442
-104.171
-102.515
-102.238
-102.259
-102.52
-104.211
-104.469
-114.709
59.9803
84.6614
185.883
393.814
606.143
540.491
313.888
160.623
90.7374
70.2517
-28.5606
-7.1164
15.6027
42.9426
159.14
106.158
32.6026
7.31725
-7.90737
-28.9733
8.31018
19.6599
32.831
33.4101
68.1227
58.8876
41.6321
36.3328
25.1515
11.6224
19.3944
44.2059
78.7092
103.792
106.367
128.359
85.0675
54.7195
24.5886
10.6305
3.43162
31.0106
75.4465
92.6497
76.7921
73.6934
31.544
17.2856
-0.934551
0.903312
2.37508
12.7967
24.342
32.9815
32.2805
22.5772
3.66939
2.66205
0.170787
0.456758
2.13233
4.35064
6.50989
13.2242
12.2874
25.0041
3.74566
-0.0165595
0.155727
0.166996
1.78359
2.05249
2.96484
8.60483
10.1879
35.4577
11.6774
1.04368
0.0398551
0.0573755
1.72935
2.64054
-0.569342
0.530884
4.18545
38.6042
15.7224
3.62245
0.563257
0.197699
1.54171
1.47546
1.49948
0.441709
3.2735
33.9081
0.944831
0.44282
-0.22607
-0.54812
1.19446
1.46888
1.55745
1.22678
3.36691
33.2269
-1.14566
-1.2278
-1.18794
-0.92697
1.36076
1.41556
1.55045
1.68198
4.86494
32.969
-1.10413
-1.00778
-0.947758
-0.85339
1.29573
1.27579
1.29586
1.20287
35.1416
2.27479
-0.477559
-0.640601
-0.638812
-0.600741
1.17967
1.19488
1.24855
1.44436
4.3779
33.2995
-0.69587
-0.554995
-0.511635
-0.477564
1.01426
1.00986
0.97571
0.838813
36.3724
1.56285
-0.246017
-0.427757
-0.453507
-0.453866
0.873713
0.889725
0.905741
0.977169
2.13261
35.8507
-0.695742
-0.572374
-0.531089
-0.511036
0.734627
0.756172
0.775696
0.800249
17.1991
20.8812
-0.678514
-0.598669
-0.566349
-0.556246
0.593491
0.612311
0.620186
0.595678
22.0295
15.9658
-0.522115
-0.53821
-0.557649
-0.583725
0.45885
0.476978
0.488495
0.46162
18.7563
18.2611
-0.50491
-0.537358
-0.582955
-0.626473
0.33289
0.34621
0.363748
0.355604
18.1524
17.3486
-0.594159
-0.612343
-0.658587
-0.696401
0.202802
0.210923
0.214044
0.187512
24.1523
10.1692
-0.680987
-0.70867
-0.746124
-0.780933
0.0831578
0.0889162
0.0936327
0.0841091
17.828
16.6603
-0.819167
-0.826751
-0.850305
-0.874123
-0.020031
-0.0201992
-0.0163933
-0.0212465
19.0776
18.769
-0.920143
-0.924251
-0.943432
-0.962001
-0.10364
-0.0985496
-0.0936454
-0.0930674
20.4134
20.5491
-1.00632
-1.00629
-1.01785
-1.03406
-0.167743
-0.155769
-0.150678
-0.152737
20.5494
21.387
-1.06491
-1.061
-1.0688
-1.0841
-0.224831
-0.213499
-0.211118
-0.217392
21.626
20.3261
-1.09359
-1.09328
-1.1002
-1.11305
-0.283502
-0.274546
-0.270801
-0.278024
22.4146
19.6044
-1.1144
-1.11629
-1.12126
-1.13013
-0.339688
-0.332295
-0.326335
-0.33344
21.3651
21.2139
-1.12496
-1.12427
-1.13229
-1.14065
-0.390138
-0.38353
-0.377542
-0.385211
22.1646
21.5231
-1.12801
-1.12644
-1.13964
-1.14987
-0.435073
-0.427398
-0.420236
-0.420402
22.9119
21.8495
-1.13599
-1.14604
-1.16132
-1.17036
-0.478018
-0.468088
-0.458563
-0.448822
21.3324
23.7946
-1.17556
-1.21232
-1.21176
-1.20901
-0.525067
-0.511463
-0.486558
-0.339518
0.245173
44.3894
-1.42216
-1.31766
-1.27039
-1.24944
-0.590937
-0.597902
-0.613816
-0.676106
44.308
-0.298898
-1.20019
-1.23753
-1.2418
-1.24675
-0.636305
-0.652102
-0.697301
-0.858334
43.6572
0.58879
-1.05075
-1.19454
-1.23315
-1.24948
-0.64136
-0.629561
-0.61648
-0.55039
1.21076
42.7165
-1.38613
-1.30238
-1.28525
-1.27968
-0.661039
-0.641244
-0.587341
-0.442618
2.39945
41.9323
-1.48955
-1.34793
-1.30997
-1.29648
-0.709972
-0.707766
-0.717562
-0.83263
42.1125
1.49887
-1.16998
-1.27032
-1.28565
-1.28877
-0.752163
-0.737872
-0.689639
-0.514034
2.42586
41.6605
-1.53432
-1.35165
-1.3146
-1.29823
-0.831123
-0.84761
-0.854543
-0.928726
42.9596
0.537307
-1.21912
-1.25645
-1.26378
-1.27004
-0.888333
-0.920709
-0.973735
-1.08154
43.9011
0.301156
-1.0577
-1.18795
-1.23119
-1.24903
-0.902402
-0.927348
-0.966516
-1.05754
37.6618
6.58279
-1.11639
-1.19941
-1.23081
-1.24627
-0.88832
-0.890858
-0.88007
-0.830675
-0.668327
44.8254
-1.32789
-1.27877
-1.26561
-1.26199
-0.887544
-0.892605
-0.894985
-0.903315
23.0087
21.2586
-1.25397
-1.25804
-1.26084
-1.26019
-0.8832
-0.885279
-0.883557
-0.887923
23.3927
22.0577
-1.25525
-1.25464
-1.25578
-1.25604
-0.883286
-0.884333
-0.883281
-0.882765
22.5812
23.9135
-1.24783
-1.24733
-1.24988
-1.25126
-0.889044
-0.890906
-0.891675
-0.892023
23.2809
23.479
-1.24596
-1.24627
-1.24857
-1.24943
-0.896953
-0.899668
-0.901776
-0.905563
24.8691
22.1508
-1.24129
-1.24382
-1.24665
-1.24778
-0.905385
-0.907925
-0.909701
-0.912786
24.2433
23.3558
-1.24125
-1.24233
-1.24476
-1.24611
-0.91523
-0.917684
-0.919332
-0.922081
24.5416
23.7682
-1.23978
-1.24056
-1.24298
-1.24444
-0.92662
-0.929112
-0.931251
-0.935785
25.317
23.3907
-1.2374
-1.23843
-1.24116
-1.24309
-0.939381
-0.941858
-0.944236
-0.949715
25.6975
23.4879
-1.23613
-1.2375
-1.24034
-1.24255
-0.953328
-0.955763
-0.958401
-0.964846
25.6764
23.7554
-1.23976
-1.23915
-1.24146
-1.24358
-0.968235
-0.970416
-0.973051
-0.977079
25.6625
24.3315
-1.243
-1.24253
-1.24416
-1.24611
-0.984512
-0.986504
-0.9881
-0.989486
25.7657
24.4478
-1.24385
-1.2457
-1.24803
-1.24996
-1.00197
-1.00416
-1.00502
-1.00563
26.1941
24.1875
-1.24234
-1.24947
-1.25295
-1.25502
-1.02008
-1.02233
-1.02378
-1.03016
26.2478
24.1714
-1.25181
-1.25593
-1.25941
-1.26159
-1.0383
-1.04042
-1.04139
-1.04668
26.1194
24.5901
-1.2607
-1.26452
-1.2677
-1.26958
-1.05705
-1.05894
-1.06
-1.06523
25.9232
24.8142
-1.27412
-1.27473
-1.27708
-1.27874
-1.07614
-1.07802
-1.07848
-1.08342
26.1439
24.9386
-1.2812
-1.28426
-1.28725
-1.28883
-1.09556
-1.09733
-1.0985
-1.10556
26.2452
24.8168
-1.29433
-1.2961
-1.29857
-1.30011
-1.11485
-1.11649
-1.11667
-1.12108
26.2534
25.1732
-1.30541
-1.30813
-1.31104
-1.31235
-1.13442
-1.13586
-1.13666
-1.14231
26.048
25.3039
-1.3228
-1.32256
-1.3244
-1.32554
-1.15389
-1.15525
-1.15509
-1.15902
26.1952
25.5152
-1.33395
-1.33572
-1.33829
-1.33927
-1.17366
-1.1748
-1.17542
-1.18071
26.0873
25.5078
-1.3524
-1.35148
-1.35294
-1.35377
-1.19326
-1.19431
-1.19388
-1.19731
26.1918
25.7507
-1.36511
-1.36573
-1.36793
-1.36861
-1.21329
-1.21416
-1.2146
-1.21924
26.0518
25.7406
-1.38418
-1.38248
-1.38352
-1.38405
-1.23326
-1.23402
-1.2334
-1.23662
26.161
25.929
-1.39773
-1.39738
-1.39923
-1.39967
-1.25356
-1.2542
-1.25454
-1.25872
26.0299
25.8907
-1.4171
-1.41478
-1.41542
-1.41572
-1.27385
-1.27437
-1.27367
-1.27671
26.1118
26.0149
-1.4311
-1.43002
-1.43154
-1.4318
-1.29446
-1.29491
-1.29522
-1.29927
25.9624
25.9657
-1.45072
-1.44778
-1.44807
-1.44821
-1.3151
-1.31539
-1.3146
-1.31732
25.976
26.0637
-1.46536
-1.46328
-1.46445
-1.46458
-1.33608
-1.33638
-1.33666
-1.34084
25.847
25.952
-1.48478
-1.48107
-1.48111
-1.48115
-1.3571
-1.35723
-1.35646
-1.35967
25.87
25.9476
-1.4994
-1.49665
-1.49754
-1.49764
-1.3784
-1.3786
-1.37887
-1.38381
25.723
25.7903
-1.51814
-1.51429
-1.51426
-1.51432
-1.39973
-1.39977
-1.39919
-1.40341
25.692
25.7188
-1.53433
-1.53031
-1.53076
-1.53094
-1.42131
-1.42141
-1.42168
-1.42738
25.5033
25.5048
-1.55285
-1.54773
-1.54765
-1.54775
-1.44287
-1.44282
-1.44261
-1.44893
25.3548
25.3586
-1.56994
-1.56398
-1.56432
-1.56453
-1.46464
-1.46464
-1.46494
-1.47273
25.0574
25.0872
-1.58902
-1.58159
-1.58139
-1.58152
-1.48637
-1.48625
-1.48614
-1.49511
24.7632
24.8009
-1.60699
-1.59813
-1.59824
-1.59844
-1.50834
-1.50827
-1.50868
-1.51929
24.3548
24.3826
-1.62612
-1.61581
-1.61542
-1.61555
-1.53024
-1.53007
-1.53023
-1.54247
23.8734
23.9011
-1.64461
-1.63248
-1.63231
-1.63253
-1.55234
-1.55224
-1.55291
-1.56667
23.2959
23.3129
-1.66362
-1.65012
-1.64947
-1.64964
-1.57429
-1.57406
-1.57459
-1.59061
22.5971
22.5792
-1.68266
-1.66678
-1.66627
-1.66658
-1.59638
-1.59619
-1.59718
-1.61625
21.823
21.7977
-1.70323
-1.68439
-1.68343
-1.68368
-1.61826
-1.61783
-1.61869
-1.64416
20.7755
20.8261
-1.72669
-1.70116
-1.70021
-1.70061
-1.64034
-1.63992
-1.64119
-1.67479
19.6801
19.835
-1.75263
-1.71882
-1.71733
-1.71766
-1.66238
-1.6618
-1.66324
-1.70963
18.2964
18.3202
-1.78191
-1.73539
-1.73387
-1.73445
-1.68458
-1.68414
-1.68642
-1.74183
16.8977
16.7431
-1.80765
-1.75287
-1.75073
-1.7513
-1.70646
-1.70581
-1.70819
-1.76936
14.7147
14.7522
-1.83091
-1.76981
-1.76734
-1.76802
-1.72845
-1.72802
-1.73167
-1.79045
12.7187
12.624
-1.8461
-1.78798
-1.7843
-1.78477
-1.75007
-1.75082
-1.7544
-1.84818
10.0568
9.70566
-1.89865
-1.80498
-1.80168
-1.8012
-1.77261
-1.77339
-1.76792
-2.06921
7.45774
7.40048
-2.12062
-1.81388
-1.81936
-1.81879
-1.79616
-1.79447
-1.80965
-2.18974
4.75933
4.78823
-2.23706
-1.85103
-1.83566
-1.83715
-1.81851
-1.81777
-1.88667
-1.99638
2.92625
2.85845
-2.02219
-1.9245
-1.85396
-1.85435
-1.84033
-1.84147
-2.00367
-1.62732
1.21084
1.11215
-1.57073
-2.037
-1.8725
-1.87091
-1.86279
-1.86528
-2.2958
-1.16241
0.342498
0.411193
-1.29913
-2.30599
-1.8926
-1.88829
-1.88392
-1.87376
-3.30955
-1.56573
-0.697445
-0.649803
-1.50815
-3.32155
-1.88962
-1.9032
-1.9064
-2.44965
-4.50758
-2.50282
-1.36702
-1.4532
-2.74213
-4.69171
-2.47858
-1.92171
-1.92289
-4.02627
-5.63068
-5.75766
-5.76559
-5.73575
-5.67359
-5.52142
-4.00759
-1.93215
-2.73153
-9.38329
-12.6263
-14.6507
-15.5562
-15.6281
-14.8204
-12.8371
-9.5933
-2.75772
47.8949
32.6615
34.3246
44.4489
40.6876
34.3575
36.7697
41.6341
43.4287
45.6614
48.6294
50.1312
52.1591
57.6895
60.5681
59.5352
69.4348
80.6652
88.313
85.4573
71.125
51.2971
37.6102
31.6638
33.0326
32.4943
29.1834
26.7807
21.0358
16.8692
17.4117
22.8976
29.6895
28.2484
25.9071
23.7936
44.5978
91.8017
140.031
176.664
-54.6103
-56.1891
-46.4973
-39.5055
-40.6674
-49.0647
-53.9894
-52.7373
-46.8891
-41.3224
-36.831
-32.7706
-28.4422
-22.8294
-16.5931
-9.79402
3.24823
8.83234
1.32266
-2.14004
-3.9743
-4.14452
-4.92249
-2.07088
5.07047
7.64192
5.0396
3.04298
3.32161
1.06523
-0.861931
2.56512
11.9745
7.81481
1.09884
1.13853
5.44797
22.6235
65.6471
106.621
3.06054
3.499
2.03271
6.07412
10.3354
-2.52993
1.13753
4.15438
6.65172
6.17841
6.69393
4.86284
4.24593
4.85331
8.68584
3.89228
8.75883
23.6408
20.3804
6.74049
0.322573
-0.183766
-0.5258
-0.401098
-0.427559
-0.397504
-0.394974
-0.407117
-0.393062
-0.329793
-0.259361
-0.264105
-0.260996
-0.199009
-0.205588
0.128799
1.11787
2.16241
7.33374
32.529
2.90996
-0.150105
1.28794
-0.276756
5.92547
10.4936
7.22549
6.1557
9.63669
4.94184
-0.022213
-1.00011
-0.185983
1.09791
5.04507
9.20571
15.8663
4.64494
-1.3287
-0.32266
-0.526301
-0.511472
-0.525808
-0.53442
-0.523332
-0.498343
-0.477743
-0.45784
-0.429813
-0.390847
-0.343061
-0.318727
-0.281014
-0.235912
-0.175954
-0.104398
-0.0721934
0.163079
-0.622193
10.1494
0.761979
0.582658
0.390519
0.133329
-0.00885692
-0.0902585
-0.0518707
-0.00295658
-0.0979837
-0.116265
-0.0929728
-0.0379248
-0.0451972
-0.0667533
-0.143972
0.453263
0.150445
-0.372715
-0.561384
-0.529492
-0.528229
-0.542076
-0.553829
-0.567073
-0.571029
-0.566334
-0.555733
-0.541056
-0.520408
-0.495873
-0.450879
-0.411732
-0.370141
-0.314663
-0.252827
-0.197362
-0.159671
-0.142452
-0.0645051
7.74454
0.338844
0.160714
-0.0110141
-0.184127
-0.248933
-0.204729
-0.12532
-0.077663
-0.0884877
-0.0975378
-0.0920984
-0.128419
-0.194552
-0.27551
-0.33255
-0.358782
-0.413696
-0.473748
-0.532914
-0.571583
-0.593934
-0.614989
-0.635294
-0.651684
-0.661546
-0.665236
-0.656657
-0.645698
-0.634775
-0.616702
-0.590122
-0.562224
-0.522872
-0.47748
-0.429017
-0.382317
-0.338572
-0.35141
0.827946
5.84288
0.0536401
-0.131153
-0.284353
-0.368954
-0.358383
-0.291835
-0.22284
-0.183345
-0.183549
-0.212979
-0.243152
-0.280623
-0.323891
-0.366395
-0.410748
-0.456746
-0.504398
-0.541915
-0.585168
-0.623715
-0.65462
-0.683342
-0.711395
-0.738987
-0.759372
-0.769321
-0.775157
-0.779723
-0.781206
-0.786268
-0.777014
-0.746626
-0.707999
-0.669894
-0.629311
-0.595321
-0.568935
-0.573393
0.83871
5.98034
-0.0895348
-0.298607
-0.428527
-0.468019
-0.458812
-0.37603
-0.315491
-0.308071
-0.337963
-0.386714
-0.410572
-0.428194
-0.46627
-0.478145
-0.514641
-0.550076
-0.587848
-0.624682
-0.664064
-0.703496
-0.742361
-0.781106
-0.815525
-0.850603
-0.882651
-0.911024
-0.932409
-0.959336
-0.979082
-0.970316
-0.941225
-0.904833
-0.869327
-0.83591
-0.80328
-0.775532
-0.763127
-0.775483
-0.317869
8.91216
-0.23531
-0.537828
-0.693454
-0.655253
-0.414586
-0.283501
-0.244157
-0.269596
-0.334723
-0.48283
-0.560813
-0.587768
-0.606511
-0.598159
-0.618137
-0.646821
-0.685023
-0.725202
-0.767255
-0.801015
-0.832758
-0.876955
-0.926018
-0.970332
-1.01624
-1.06638
-1.1012
-1.11481
-1.11106
-1.09206
-1.05742
-1.02096
-0.990613
-0.963939
-0.93931
-0.917407
-0.911758
-0.921511
-1.02964
11.0441
-0.497711
-0.484596
-0.384681
-0.103147
0.11641
0.244127
0.228503
-0.10478
-0.0791869
1.85073
-0.318994
-0.781712
-0.732451
-0.718111
-0.731036
-0.760874
-0.795974
-0.830759
-0.859528
-0.882326
-0.914592
-0.956945
-1.01397
-1.07373
-1.12772
-1.15382
-1.17037
-1.17225
-1.16209
-1.14163
-1.1154
-1.09167
-1.07272
-1.05845
-1.04729
-1.03705
-1.01886
-1.01242
-1.02863
11.4874
-0.635503
-0.0960696
0.502253
0.719195
0.917142
0.940578
0.79014
0.912249
9.21222
13.3281
1.68372
-0.866616
-0.83759
-0.844419
-0.856289
-0.878331
-0.904628
-0.930362
-0.952238
-0.970848
-1.00541
-1.06527
-1.11808
-1.14514
-1.16367
-1.17678
-1.18175
-1.18055
-1.17452
-1.16544
-1.15644
-1.15182
-1.15025
-1.15403
-1.15605
-1.16403
-1.10005
-1.05661
-1.06398
11.7616
-0.656185
-0.274344
0.373705
0.744117
0.890135
0.909587
1.05484
4.35402
6.27779
5.35146
2.00102
-1.04416
-0.93287
-0.926008
-0.939387
-0.964767
-0.993333
-1.02124
-1.04194
-1.04924
-1.07958
-1.14027
-1.16555
-1.17464
-1.18218
-1.18774
-1.18955
-1.1896
-1.18951
-1.19198
-1.20028
-1.21771
-1.24593
-1.27684
-1.2679
-1.22524
-1.14956
-1.09466
-1.21154
12.7293
-0.485924
-0.28912
-0.0392927
0.140061
0.207526
0.241213
0.546114
3.0582
3.15404
-1.44185
-0.674006
-0.887581
-0.914439
-0.950525
-0.992543
-1.03316
-1.06984
-1.09631
-1.11188
-1.11102
-1.12872
-1.17971
-1.18434
-1.18641
-1.1882
-1.18911
-1.19086
-1.19452
-1.2008
-1.21126
-1.22801
-1.25289
-1.28233
-1.29175
-1.27656
-1.22722
-1.15333
-1.07648
-1.58082
7.9752
-0.424507
-0.349973
-0.258672
-0.194914
-0.180281
-0.161638
-0.120148
0.72613
5.9844
-3.27684
-0.961338
-0.921059
-0.939319
-0.984496
-1.03961
-1.08771
-1.12294
-1.1446
-1.15848
-1.16922
-1.18837
-1.19395
-1.18553
-1.18215
-1.18083
-1.18156
-1.18561
-1.19229
-1.20111
-1.21088
-1.22241
-1.23638
-1.249
-1.25015
-1.2313
-1.2172
-1.16812
-1.08031
1.63738
1.85331
-0.441954
-0.421085
-0.390783
-0.363974
-0.351333
-0.346075
-0.263627
0.651541
6.16504
-2.73335
-0.967462
-0.955688
-0.964128
-1.00034
-1.04868
-1.09038
-1.12212
-1.14229
-1.15867
-1.17396
-1.18042
-1.17677
-1.1704
-1.16765
-1.16733
-1.17151
-1.18016
-1.19011
-1.19801
-1.20283
-1.20368
-1.20062
-1.19407
-1.18246
-1.16749
-1.18625
-1.19301
-1.41982
4.33067
5.60995
-0.502435
-0.49922
-0.497096
-0.494491
-0.49355
-0.50657
-0.315412
0.893814
2.34861
-1.22661
-0.835951
-0.921467
-0.941233
-0.966863
-1.00435
-1.0432
-1.08438
-1.11519
-1.13249
-1.15065
-1.15925
-1.16002
-1.15943
-1.15672
-1.15789
-1.1697
-1.18938
-1.2082
-1.21788
-1.21556
-1.20138
-1.1792
-1.14962
-1.11864
-1.09825
-1.0931
-0.776821
1.75385
8.89046
10.9457
-0.55939
-0.572786
-0.592277
-0.615455
-0.636928
-0.654179
-0.590221
-0.135514
1.61955
-0.790303
-0.920253
-0.89944
-0.909597
-0.91887
-0.95141
-0.994033
-1.04137
-1.08725
-1.12678
-1.14939
-1.15165
-1.15443
-1.15254
-1.15054
-1.15839
-1.18203
-1.21499
-1.24552
-1.25673
-1.24057
-1.20856
-1.16924
-1.12541
-1.07452
-1.03624
-1.03168
-0.182803
4.17236
10.5027
14.346
-0.609952
-0.640255
-0.671339
-0.702556
-0.724143
-0.741481
-0.819932
-1.42079
0.50529
7.059
-1.55798
-0.917351
-0.880096
-0.892875
-0.910933
-0.957521
-1.03201
-1.14167
-1.24779
-1.25443
-1.21296
-1.18535
-1.17168
-1.16595
-1.16291
-1.16011
-1.17476
-1.21486
-1.2488
-1.2439
-1.20267
-1.14832
-1.07732
-0.995608
-0.903504
-0.786413
-0.105609
4.67678
18.1578
21.9054
-0.666692
-0.706896
-0.740975
-0.768951
-0.782328
-0.787867
-0.797413
-1.10602
-1.80491
3.65472
-1.82897
-0.666901
-0.807387
-0.861109
-0.892661
-0.928208
-1.10051
-1.41071
-1.72847
-1.54796
-1.36332
-1.08068
-1.02264
-1.08793
-1.08822
-1.05539
-1.0486
-1.05954
-1.08227
-1.0904
-1.06512
-0.997842
-0.905847
-0.789216
-0.527573
0.348546
2.07943
15.4205
36.8937
38.4171
-0.738183
-0.779863
-0.814604
-0.839822
-0.849971
-0.846911
-0.849037
-0.997392
-2.20606
5.37193
-0.360779
-1.55256
-0.658133
-0.276234
-0.701106
-1.44723
-2.67628
1.65412
3.72748
-3.93288
-4.77349
-2.30677
-1.21079
-1.48806
-1.25935
-0.800502
-0.895334
-0.973114
-0.964791
-0.813331
-0.599294
-0.496015
-0.418275
-0.215878
0.361619
2.80743
10.6129
30.0095
57.2845
58.8104
-0.822743
-0.862152
-0.897012
-0.923015
-0.936132
-0.935502
-0.935339
-0.987288
-1.19967
-0.020265
-1.76006
-4.84617
-2.91576
0.65004
-6.25134
-2.08095
-0.570248
-0.634836
-0.411259
-2.39355
-2.00412
-1.2093
-1.08016
1.42523
0.811157
-2.19341
-3.61784
-2.59334
-1.50339
-0.534312
0.259068
-0.082745
-0.307596
1.01974
1.20163
6.32296
34.5924
59.6465
73.3127
74.0936
-0.912863
-0.950066
-0.98772
-1.02159
-1.05037
-1.07149
-1.09163
-1.10592
-1.18024
-0.516102
-0.0248458
1.66602
2.93416
-0.438515
0.648697
-0.726869
-2.06497
-2.02959
-0.784743
0.507337
2.70958
6.9064
8.85588
10.4113
9.77138
9.27505
10.6645
9.43258
-0.303311
-0.269583
4.00308
4.12717
-4.76595
-2.51725
18.0978
34.9274
51.1141
62.1948
67.6935
69.1629
-0.996298
-1.03317
-1.07398
-1.11671
-1.16021
-1.20304
-1.23731
-1.2586
-1.29494
-1.42542
-0.601455
2.08854
4.58617
3.87329
1.88925
-0.698829
-3.4075
-4.10631
-3.36565
-5.51966
-10.4518
-3.76774
1.07552
5.74059
6.72156
3.40166
-3.45027
2.92348
9.65118
13.5117
18.0266
26.6315
34.6902
40.2673
43.8472
45.5215
50.2184
53.4786
52.809
52.1662
-1.0616
-1.09895
-1.14019
-1.18726
-1.23997
-1.30071
-1.36903
-1.42895
-1.48535
-1.55176
-1.63578
-1.31267
-0.0815636
4.11243
5.09184
4.13072
2.78557
0.232643
-1.40179
-0.49566
-0.295673
-2.16333
-4.09359
6.2719
8.38914
-4.80103
6.1113
6.89009
7.5278
12.6381
0.135069
2.13702
15.2755
17.2641
9.4325
22.126
31.6883
43.4327
44.2586
36.8158
-1.10773
-1.13981
-1.17565
-1.2203
-1.27164
-1.33556
-1.40668
-1.47848
-1.53239
-1.53893
-1.48279
-1.38064
-1.33685
-1.30865
-1.25413
-1.19405
-1.14525
-1.09196
-1.10834
-1.11216
-1.13497
-1.07044
0.386164
16.9418
18.652
0.0281151
2.09171
2.41649
0.802564
0.0811766
1.44514
2.37997
2.59438
2.36607
3.42413
4.72198
9.88984
19.588
27.1207
28.2939
-1.13116
-1.15605
-1.18505
-1.21636
-1.25042
-1.28784
-1.3235
-1.35235
-1.36764
-1.37327
-1.35566
-1.31791
-1.28078
-1.22887
-1.18538
-1.165
-1.16992
-1.18251
-1.17642
-1.1927
-1.23865
-1.28402
-1.41304
-1.5901
-1.94539
-1.23356
1.2991
-0.960456
-0.0475669
-0.321923
-0.446241
0.33028
0.867824
1.2742
1.43323
1.76007
4.32898
10.0288
17.3369
20.6089
-1.14211
-1.15867
-1.17655
-1.19316
-1.2073
-1.21718
-1.22017
-1.21845
-1.2147
-1.21283
-1.2139
-1.18322
-1.16853
-1.15959
-1.14656
-1.14586
-1.16164
-1.17931
-1.19728
-1.22254
-1.24452
-1.26231
-1.4009
-1.42602
-1.26628
-0.737643
-0.810751
-0.855037
-0.803481
-0.77924
-0.701921
-0.498752
0.0975905
0.379875
0.557573
0.455157
1.21794
5.24367
11.6177
15.2919
-1.14894
-1.15804
-1.16706
-1.1728
-1.17499
-1.17134
-1.1622
-1.14988
-1.13908
-1.1365
-1.1185
-1.13172
-1.14639
-1.14816
-1.15299
-1.16705
-1.18641
-1.20474
-1.22151
-1.23064
-1.22375
-1.03137
-0.735884
-0.710244
-0.687826
-0.686964
-0.611233
-0.563309
-0.65964
-0.814426
-0.947671
-0.878398
-0.467463
-0.0940571
0.091165
0.0233575
0.224035
2.80097
6.35556
8.1801
-1.15855
-1.16455
-1.16757
-1.16928
-1.16683
-1.15935
-1.14731
-1.13209
-1.11938
-1.11398
-1.10517
-1.14988
-1.16101
-1.17519
-1.19145
-1.20908
-1.22858
-1.25183
-1.27757
-1.30776
-1.37504
-1.27541
-1.09248
-1.16786
-1.13428
-0.95887
-0.83365
-0.749991
-0.712816
-0.768884
-0.866352
-0.957152
-0.860909
-0.497196
-0.408383
-0.427353
-0.317092
1.33327
2.77943
3.56589
-1.17817
-1.18318
-1.18523
-1.1861
-1.18371
-1.17892
-1.17167
-1.16322
-1.1576
-1.14485
-1.16896
-1.18669
-1.20345
-1.2217
-1.24123
-1.26008
-1.28243
-1.30493
-1.32091
-1.33646
-1.36472
-1.40672
-1.42919
-1.37977
-1.26664
-1.10467
-0.939176
-0.832772
-0.781766
-0.793955
-0.843443
-0.922461
-0.941153
-0.916573
-0.935936
-0.90359
-1.01204
-0.699736
0.3291
1.25403
-1.20944
-1.21161
-1.2133
-1.21549
-1.21737
-1.21919
-1.22051
-1.22177
-1.22296
-1.20771
-1.24193
-1.25728
-1.27547
-1.29595
-1.31894
-1.34202
-1.36316
-1.38249
-1.40013
-1.41721
-1.43179
-1.43823
-1.45171
-1.44797
-1.39268
-1.19288
-1.01187
-0.982704
-0.940222
-0.953604
-0.991131
-0.996778
-1.12458
-1.13322
-1.13098
-1.16637
-1.23101
-1.18098
-1.16934
-1.31253
-1.24117
-1.24096
-1.24416
-1.24979
-1.25768
-1.26708
-1.2787
-1.29199
-1.30545
-1.31458
-1.32873
-1.34566
-1.36432
-1.38535
-1.4074
-1.42722
-1.44497
-1.46481
-1.48656
-1.50687
-1.52476
-1.54156
-1.55713
-1.56094
-1.52395
-1.35076
-1.16765
-1.09699
-1.06144
-1.03766
-1.054
-1.12203
-1.15587
-1.17522
-1.15761
-1.15785
-1.20065
-1.19546
-1.18652
-1.21265
-1.25215
-1.25935
-1.26863
-1.27996
-1.29401
-1.31073
-1.33151
-1.35696
-1.38369
-1.40575
-1.42534
-1.44114
-1.45655
-1.47293
-1.48957
-1.50622
-1.52137
-1.53949
-1.55871
-1.57276
-1.58128
-1.58807
-1.59708
-1.60111
-1.58782
-1.51522
-1.34025
-1.32531
-1.33648
-1.28887
-1.23331
-1.2333
-1.22383
-1.18742
-1.14036
-1.13728
-1.16111
-1.17947
-1.19392
-1.18688
-1.26201
-1.27376
-1.28687
-1.30205
-1.31942
-1.3406
-1.3668
-1.39927
-1.43655
-1.47153
-1.49866
-1.5201
-1.53534
-1.54475
-1.55472
-1.56502
-1.57707
-1.59557
-1.61604
-1.63441
-1.64662
-1.64536
-1.6349
-1.62089
-1.60073
-1.57385
-1.32364
-1.41604
-1.40182
-1.38669
-1.35318
-1.30429
-1.2675
-1.23502
-1.19073
-1.17005
-1.16984
-1.16624
-1.20182
-1.18891
-1.28158
-1.28892
-1.3001
-1.31467
-1.33226
-1.35391
-1.3809
-1.41349
-1.45192
-1.49244
-1.5279
-1.55555
-1.57484
-1.58855
-1.59268
-1.58287
-1.60445
-1.63187
-1.64482
-1.65607
-1.66351
-1.64156
-1.65049
-1.62345
-1.58918
-1.55459
-1.51302
-1.47322
-1.43777
-1.40504
-1.37426
-1.3461
-1.32211
-1.29953
-1.25778
-1.2281
-1.22936
-1.22959
-1.24418
-1.22813
-1.29304
-1.29683
-1.30541
-1.31767
-1.33327
-1.35256
-1.37653
-1.40559
-1.43924
-1.47635
-1.51353
-1.54621
-1.5718
-1.59026
-1.60358
-1.61076
-1.60308
-1.62711
-1.65433
-1.66089
-1.66553
-1.66152
-1.66268
-1.62786
-1.58628
-1.54237
-1.50997
-1.48582
-1.45742
-1.43169
-1.40445
-1.37982
-1.35893
-1.34398
-1.30601
-1.2739
-1.28233
-1.27763
-1.28767
-1.27864
-1.2911
-1.29557
-1.30279
-1.31285
-1.32581
-1.34179
-1.36132
-1.38495
-1.41263
-1.44394
-1.47735
-1.51051
-1.54093
-1.56689
-1.58801
-1.6059
-1.62838
-1.64822
-1.66063
-1.67697
-1.69456
-1.69313
-1.66051
-1.61839
-1.57301
-1.53104
-1.50073
-1.48222
-1.46366
-1.43438
-1.42439
-1.40358
-1.38645
-1.37424
-1.30146
-1.3213
-1.32064
-1.31552
-1.31663
-1.31202
-1.292
-1.2921
-1.29634
-1.30373
-1.31385
-1.32653
-1.34192
-1.36039
-1.38216
-1.40719
-1.43515
-1.46462
-1.49461
-1.52299
-1.54935
-1.57314
-1.59455
-1.61524
-1.63352
-1.64423
-1.62844
-1.61695
-1.60734
-1.57028
-1.53184
-1.49837
-1.47682
-1.4672
-1.45942
-1.43863
-1.42442
-1.41271
-1.39745
-1.38273
-1.3544
-1.35313
-1.34033
-1.3323
-1.32972
-1.32722
-1.27546
-1.27992
-1.28493
-1.29135
-1.29944
-1.30932
-1.32116
-1.33519
-1.35163
-1.37042
-1.39169
-1.41449
-1.43861
-1.46222
-1.48403
-1.50304
-1.51894
-1.53244
-1.54265
-1.54705
-1.54567
-1.5401
-1.52421
-1.50045
-1.4757
-1.45441
-1.44112
-1.43737
-1.43575
-1.42464
-1.41156
-1.41089
-1.39442
-1.37789
-1.36633
-1.35558
-1.34548
-1.33833
-1.33454
-1.33224
-1.26072
-1.26797
-1.27339
-1.27872
-1.28477
-1.29194
-1.30044
-1.31039
-1.32185
-1.33473
-1.34908
-1.36437
-1.38037
-1.39594
-1.41063
-1.4239
-1.43449
-1.4431
-1.44998
-1.45334
-1.45369
-1.45066
-1.4417
-1.4293
-1.41713
-1.40595
-1.39911
-1.39993
-1.40264
-1.40072
-1.38331
-1.39303
-1.38136
-1.3674
-1.3554
-1.34931
-1.34205
-1.33618
-1.3318
-1.32895
-1.25624
-1.26181
-1.26531
-1.26842
-1.27196
-1.27635
-1.2817
-1.28798
-1.29516
-1.30317
-1.31181
-1.32102
-1.33042
-1.33972
-1.34859
-1.35634
-1.3628
-1.3683
-1.37248
-1.37467
-1.3745
-1.37198
-1.36758
-1.36279
-1.35854
-1.35537
-1.35367
-1.35629
-1.36144
-1.36311
-1.36374
-1.36547
-1.35677
-1.34891
-1.33742
-1.3325
-1.33193
-1.32438
-1.3197
-1.31811
-1.26133
-1.26103
-1.26081
-1.26108
-1.26211
-1.26402
-1.26675
-1.27021
-1.27429
-1.27892
-1.28389
-1.28915
-1.29445
-1.29966
-1.30465
-1.30912
-1.31331
-1.31585
-1.31634
-1.31566
-1.31355
-1.31147
-1.30976
-1.30823
-1.30799
-1.30918
-1.31123
-1.31523
-1.32024
-1.32348
-1.32313
-1.32321
-1.31952
-1.32078
-1.2549
-1.29568
-1.31058
-1.30644
-1.3037
-1.30246
-1.25958
-1.25822
-1.25663
-1.25542
-1.25489
-1.25515
-1.25617
-1.25788
-1.26016
-1.26294
-1.26605
-1.26932
-1.27266
-1.27579
-1.27834
-1.28023
-1.2813
-1.2808
-1.27929
-1.27711
-1.27415
-1.27147
-1.26899
-1.2667
-1.26521
-1.2656
-1.26721
-1.27367
-1.2843
-1.28694
-1.26595
-1.27925
-1.26465
-1.29706
-1.24614
-1.28005
-1.28916
-1.29037
-1.2902
-1.28945
-1.25572
-1.25446
-1.25275
-1.2511
-1.2499
-1.24934
-1.24945
-1.25023
-1.25154
-1.25331
-1.25536
-1.25749
-1.25959
-1.26135
-1.26252
-1.26304
-1.26267
-1.26115
-1.25878
-1.25547
-1.25125
-1.24638
-1.24131
-1.23709
-1.23393
-1.23049
-1.2268
-1.22706
-1.23926
-1.18602
-1.0828
-1.23378
-1.19368
-1.25642
-1.23406
-1.27836
-1.27895
-1.2796
-1.28
-1.28014
-1.25185
-1.25102
-1.24956
-1.24795
-1.24661
-1.24575
-1.24547
-1.24577
-1.24654
-1.24772
-1.24914
-1.25066
-1.25216
-1.25338
-1.25422
-1.25455
-1.25408
-1.25266
-1.25031
-1.24679
-1.242
-1.23622
-1.22937
-1.2208
-1.21144
-1.21485
-1.21096
-1.2298
-1.21407
-1.1629
-1.12994
-1.17431
-1.13833
-1.22024
-1.21239
-1.27338
-1.26956
-1.26977
-1.27058
-1.27134
-1.24992
-1.24889
-1.24747
-1.24594
-1.24463
-1.24373
-1.24332
-1.24343
-1.24398
-1.24492
-1.24613
-1.24753
-1.24898
-1.25031
-1.25146
-1.25229
-1.25256
-1.25214
-1.25099
-1.24892
-1.24592
-1.24204
-1.23818
-1.23804
-1.22698
-1.23309
-1.16439
-1.17793
-1.19366
-1.17991
-1.18274
-1.18545
-1.19354
-1.21229
-1.23185
-1.25718
-1.26055
-1.26227
-1.264
-1.26479
-1.24829
-1.24732
-1.2461
-1.2448
-1.24366
-1.24288
-1.24253
-1.24265
-1.24321
-1.24417
-1.24545
-1.24698
-1.24868
-1.25044
-1.25223
-1.25394
-1.25545
-1.2568
-1.25813
-1.2595
-1.26144
-1.26481
-1.27204
-1.28514
-1.29044
-1.25373
-1.26799
-1.23334
-1.27273
-1.26583
-1.25173
-1.24267
-1.25561
-1.20401
-1.25869
-1.25831
-1.2595
-1.26028
-1.26071
-1.26054
-1.2469
-1.24603
-1.24524
-1.24428
-1.24345
-1.2429
-1.24274
-1.24301
-1.24369
-1.24476
-1.24619
-1.24792
-1.24993
-1.25219
-1.25471
-1.25749
-1.26058
-1.2642
-1.26828
-1.2734
-1.28079
-1.291
-1.30643
-1.32885
-1.30925
-1.33312
-1.34205
-1.33763
-1.32906
-1.3185
-1.30615
-1.29482
-1.29765
-1.22001
-1.26708
-1.26258
-1.26013
-1.25688
-1.25442
-1.253
-1.24534
-1.24531
-1.24487
-1.24429
-1.2438
-1.24357
-1.24365
-1.24411
-1.24493
-1.24611
-1.24765
-1.24953
-1.25176
-1.25437
-1.2574
-1.26092
-1.2651
-1.27003
-1.27602
-1.2835
-1.29347
-1.30624
-1.32377
-1.34879
-1.3716
-1.3973
-1.39819
-1.3847
-1.35981
-1.35118
-1.34395
-1.33089
-1.32251
-1.23709
-1.26463
-1.2563
-1.25211
-1.24743
-1.24407
-1.24235
-1.24439
-1.24492
-1.24496
-1.24481
-1.24471
-1.24479
-1.24511
-1.24572
-1.24664
-1.24788
-1.24945
-1.25134
-1.25359
-1.25621
-1.25926
-1.26282
-1.26702
-1.27211
-1.2785
-1.28634
-1.29575
-1.30797
-1.32485
-1.34961
-1.37937
-1.4098
-1.40601
-1.39978
-1.40056
-1.38614
-1.36391
-1.3356
-1.31207
-1.29575
-1.22094
-1.25412
-1.24322
-1.23703
-1.233
-1.23116
-1.24425
-1.24528
-1.24582
-1.24608
-1.24632
-1.24665
-1.24715
-1.24786
-1.24881
-1.25001
-1.25148
-1.25322
-1.25524
-1.25755
-1.2602
-1.26323
-1.2667
-1.27083
-1.27571
-1.28159
-1.28867
-1.29736
-1.30961
-1.32987
-1.35447
-1.38022
-1.40187
-1.39528
-1.37056
-1.34972
-1.32951
-1.30542
-1.28446
-1.27362
-1.17421
-1.22812
-1.22685
-1.22282
-1.21988
-1.21844
-1.24546
-1.2468
-1.24768
-1.24823
-1.24873
-1.24925
-1.24987
-1.25061
-1.25152
-1.25259
-1.25385
-1.25529
-1.25691
-1.25871
-1.26068
-1.26285
-1.26522
-1.26785
-1.2708
-1.27415
-1.27803
-1.28274
-1.28735
-1.29468
-1.30234
-1.30693
-1.30912
-1.30745
-1.30093
-1.29088
-1.27925
-1.2644
-1.25191
-1.24759
-1.17154
-1.19944
-1.21106
-1.20863
-1.20766
-1.20719
-1.24807
-1.24958
-1.25069
-1.2514
-1.25206
-1.2527
-1.25337
-1.25409
-1.2549
-1.25579
-1.25678
-1.25785
-1.25899
-1.2602
-1.26146
-1.26273
-1.26404
-1.26529
-1.26661
-1.26766
-1.2687
-1.26954
-1.26914
-1.26846
-1.26737
-1.2659
-1.26434
-1.26233
-1.2581
-1.24989
-1.24005
-1.23229
-1.22802
-1.2285
-1.16618
-1.18354
-1.20031
-1.20005
-1.19988
-1.19977
-1.25198
-1.25363
-1.25492
-1.25561
-1.25642
-1.25713
-1.2578
-1.25846