/*--------------------------------*- C++ -*----------------------------------*\
  =========                 |
  \\      /  F ield         | OpenFOAM: The Open Source CFD Toolbox
   \\    /   O peration     | Website:  https://openfoam.org
    \\  /    A nd           | Version:  8
     \\/     M anipulation  |
\*---------------------------------------------------------------------------*/
FoamFile
{
    version     2.0;
    format      ascii;
    class       volScalarField;
    location    "0.5";
    object      p_rgh;
}
// * * * * * * * * * * * * * * * * * * * * * * * * * * * * * * * * * * * * * //

dimensions      [1 -1 -2 0 0 0 0];

internalField   nonuniform List<scalar> 
9150
(
1963.39
1962.41
1961.81
1961.32
1961.08
1961.08
1961.32
1961.81
1962.41
1963.39
1962.98
1962.46
1962.05
1961.72
1961.55
1961.55
1961.72
1962.05
1962.46
1962.97
1962.71
1962.42
1962.17
1961.95
1961.83
1961.84
1961.95
1962.17
1962.42
1962.7
1962.59
1962.41
1962.24
1962.09
1962
1962
1962.08
1962.24
1962.41
1962.59
1962.59
1962.4
1962.27
1962.14
1962.08
1962.07
1962.14
1962.27
1962.4
1962.59
1951.9
1950.85
1950.92
1951.46
1951.59
1951.59
1951.45
1950.92
1950.84
1951.88
1955.74
1955.04
1954.76
1954.69
1954.77
1954.76
1954.67
1954.74
1955.01
1955.72
1958.76
1958.02
1957.69
1957.35
1957.29
1957.29
1957.34
1957.68
1958.01
1958.75
1961.45
1960.36
1959.93
1959.29
1959.13
1959.12
1959.28
1959.92
1960.35
1961.43
1964.19
1962.09
1961.34
1960.6
1960.35
1960.35
1960.6
1961.34
1962.08
1964.19
1947
1945.43
1943.46
1942.37
1941.81
1941.85
1942.44
1943.47
1945.27
1946.49
1946.06
1945.91
1945
1944.65
1944.19
1944.15
1944.52
1944.84
1945.74
1945.84
1945.89
1945.92
1944.99
1945.33
1944.91
1944.89
1945.33
1944.95
1945.85
1945.8
1942.73
1945.36
1944.35
1945.88
1945.64
1945.62
1945.87
1944.29
1945.32
1942.68
1935.6
1945.85
1946.12
1947.78
1948.05
1948.03
1947.77
1946.08
1945.82
1935.58
64.5876
89.2989
190.56
399.181
611.518
545.859
319.141
165.334
95.4069
74.9211
-27.6389
-6.15786
16.6471
49.5788
175.291
122.285
36.5478
8.67224
-6.54615
-27.5821
10.8831
23.3455
35.6095
41.5735
95.0786
83.5032
46.015
38.8116
28.3715
21.5257
37.0526
61.8209
91.9747
119.443
144.112
166.081
101.063
66.7772
41.2217
27.2231
7.677
53.3075
90.96
109.086
125.333
122.236
53.5771
34.3102
6.07481
1.00233
7.3737
38.4952
41.6358
51.8479
91.61
81.9051
29.3774
18.9621
3.48945
0.577727
2.64938
26.8433
26.9873
28.6767
82.4022
95.1004
31.7436
9.59227
0.298691
0.309955
1.94824
12.8713
26.1678
15.8145
91.0682
116.257
34.4392
13.4137
0.555247
0.222333
2.0382
10.0736
9.45102
5.31839
95.2157
129.839
25.2367
8.28708
3.01785
1.37831
2.90038
2.34807
1.96021
3.44542
104.794
135.52
5.78418
0.681553
0.295392
0.374523
2.30658
1.7005
1.78184
4.20663
115.376
145.445
2.60328
-1.01878
-0.977915
-0.709508
1.65462
1.64609
1.77729
5.42676
127.491
155.817
2.97624
-0.780445
-0.720055
-0.622271
1.54831
1.52328
1.54171
5.35098
168.509
135.607
3.27354
-0.393524
-0.391674
-0.347207
1.44958
1.46134
1.51407
4.16092
148.417
177.27
2.97122
-0.28843
-0.240244
-0.20094
1.30247
1.30236
1.2609
3.65673
191.087
155.699
1.38426
-0.141757
-0.155034
-0.156496
1.18362
1.20414
1.21057
1.87264
167.157
200.922
0.784444
-0.266777
-0.212078
-0.195907
1.06383
1.09091
1.10007
1.40582
192.679
196.59
-0.152279
-0.273501
-0.226699
-0.227285
0.939422
0.967402
0.964124
1.0561
207.467
200.906
-0.178716
-0.193592
-0.197529
-0.239349
0.822393
0.852398
0.852077
0.824593
210.673
210.289
-0.141934
-0.17292
-0.202128
-0.263064
0.715625
0.741888
0.746445
0.738198
214.847
214.077
-0.211567
-0.22914
-0.257205
-0.313712
0.605128
0.621938
0.616258
0.589726
227.989
213.853
-0.278775
-0.306458
-0.324291
-0.369644
0.511732
0.51154
0.515467
0.505943
234.388
233.083
-0.397335
-0.404919
-0.41598
-0.425993
0.436977
0.422081
0.425061
0.420208
263.61
263.793
-0.478691
-0.4828
-0.496023
-0.492879
0.373679
0.362956
0.367433
0.368007
293.74
294.495
-0.545246
-0.545223
-0.555948
-0.543777
0.329616
0.324925
0.330016
0.327957
314.01
315.303
-0.584216
-0.580313
-0.588108
-0.572674
0.283639
0.286816
0.289196
0.282922
330.44
329.085
-0.593282
-0.592964
-0.599889
-0.594998
0.236446
0.245388
0.249133
0.24191
346.019
342.881
-0.59447
-0.596361
-0.601326
-0.609577
0.199866
0.20726
0.21322
0.206115
361.81
361.837
-0.585409
-0.584716
-0.592736
-0.601099
0.169037
0.175645
0.181633
0.173964
383.164
382.551
-0.568838
-0.567273
-0.580466
-0.5907
0.143723
0.151396
0.158559
0.158402
404.752
403.604
-0.557163
-0.567246
-0.582526
-0.591569
0.120404
0.130426
0.139961
0.240706
419.705
422.471
-0.519074
-0.613503
-0.613348
-0.610598
0.0930073
0.10671
0.131899
0.809435
411.997
456.515
1.15623
-0.699272
-0.652311
-0.6314
0.0468162
0.0398547
0.0239482
4.37932
469.524
423.882
1.45887
-0.599801
-0.604061
-0.60908
0.0210673
0.00527109
-0.0399141
5.44109
481.956
437.552
3.14687
-0.537218
-0.575829
-0.592177
0.035633
0.0477192
0.0605433
3.7054
451.497
495.063
5.16062
-0.625408
-0.608257
-0.602746
0.0356479
0.0558168
0.109306
5.64568
466.688
507.545
6.43148
-0.650921
-0.612714
-0.599878
0.00640971
0.00863473
-0.00124168
8.71383
521.132
479.434
6.37966
-0.553531
-0.568696
-0.572261
-0.0162849
-0.00199221
0.0462414
8.79068
494.449
533.374
8.76482
-0.615645
-0.578554
-0.562091
-0.0754964
-0.0921009
-0.0990984
10.3059
548.562
504.233
5.17436
-0.501075
-0.508223
-0.514425
-0.113027
-0.145551
-0.198743
5.92641
562.636
515.359
1.86928
-0.412961
-0.456124
-0.473598
-0.107468
-0.132653
-0.171904
0.79666
568.049
535.34
-0.277409
-0.404797
-0.436136
-0.451204
-0.0738242
-0.0765649
-0.0658386
0.214066
538.155
586.314
-0.513657
-0.464542
-0.451326
-0.447302
-0.0535968
-0.058688
-0.0611336
-0.0694647
579.204
576.601
-0.0131763
-0.424184
-0.426924
-0.425962
-0.0296187
-0.0317312
-0.0300858
-0.0344522
604.29
602.507
-0.401776
-0.401172
-0.402235
-0.402448
-0.0100896
-0.0111605
-0.0101895
-0.00967429
627.331
629.203
-0.374739
-0.374235
-0.376727
-0.378065
0.00368711
0.00183541
0.00103484
0.000686638
646.585
646.889
-0.353245
-0.353559
-0.355829
-0.356585
0.0153985
0.0126639
0.0105529
0.00676712
666.986
663.692
-0.328957
-0.331492
-0.334305
-0.335395
0.0265895
0.0240289
0.0222475
0.0191638
687.274
686.206
-0.309296
-0.310381
-0.312799
-0.314128
0.0363651
0.0338914
0.0322371
0.0294886
710.482
709.576
-0.288206
-0.288991
-0.291387
-0.292801
0.0445899
0.0420835
0.0399394
0.0354051
731.281
728.946
-0.266206
-0.267244
-0.269955
-0.271834
0.0514383
0.0489651
0.0465739
0.0410949
753.153
750.518
-0.245321
-0.246688
-0.249511
-0.251689
0.0571073
0.0546854
0.0520291
0.045584
771.738
769.419
-0.229327
-0.228723
-0.231019
-0.233135
0.0618183
0.0596535
0.0569994
0.0529712
794.567
792.977
-0.212948
-0.212483
-0.214109
-0.216057
0.0651597
0.0631852
0.0615704
0.060184
813.675
812.142
-0.194179
-0.196028
-0.198358
-0.200286
0.0673187
0.0651435
0.0642664
4.8914
835.132
832.888
4.53696
-0.18018
-0.183659
-0.185733
0.0688273
0.0665891
0.0651299
6.80976
854.06
851.667
6.46019
-0.167021
-0.170498
-0.172683
0.0702282
0.068109
0.0671387
11.2709
877.072
875.304
10.9581
-0.155994
-0.159164
-0.161051
0.0711036
0.069207
0.0681496
13.643
896.472
895.171
13.3677
-0.146578
-0.148924
-0.15059
0.0716345
0.06976
0.0692946
19.2773
921.543
920.112
19.0006
-0.136486
-0.139474
-0.141055
0.0718349
0.0700687
0.0688864
22.2631
941.95
940.236
21.9551
-0.128714
-0.131166
-0.132721
0.0721664
0.0705304
0.07034
29.1308
967.951
966.662
28.8517
-0.121115
-0.124016
-0.125333
0.0722073
0.0707792
0.0699692
32.6872
988.44
987.549
32.44
-0.115927
-0.117762
-0.118896
0.0723596
0.0710138
0.0711644
40.9809
1015.85
1015.03
40.7372
-0.109472
-0.112028
-0.112998
0.0722143
0.0710845
0.070448
45.3488
1037.07
1036.37
45.1128
-0.105611
-0.107069
-0.107877
0.072242
0.0711951
0.0716098
55.2659
1065.67
1065.14
55.0465
-0.100237
-0.102433
-0.103098
0.0718308
0.0709598
0.0705107
60.6931
1087.63
1087.27
60.4883
-0.0973706
-0.098405
-0.0989406
0.0714844
0.0707162
0.0713275
72.5271
1117.39
1117.13
72.3324
-0.0926466
-0.0944985
-0.094936
0.0708085
0.0701543
0.0698102
79.1687
1140.02
1139.88
78.9893
-0.0904339
-0.0910693
-0.0913735
0.0701269
0.0696038
0.0703033
93.1404
1170.67
1170.58
92.9704
-0.0860462
-0.0875729
-0.0878303
0.0691271
0.0686769
0.0683739
101.177
1193.83
1193.87
101.026
-0.08419
-0.0844826
-0.0846162
0.0681057
0.0678155
0.0686068
117.542
1225.26
1225.41
117.42
-0.080067
-0.0812402
-0.0813681
0.0667519
0.0664484
0.0661714
127.326
1249.22
1249.39
127.209
-0.0782412
-0.0782777
-0.078321
0.0653487
0.065216
0.065991
146.648
1281.73
1281.87
146.534
-0.0741951
-0.075085
-0.0751921
0.063667
0.0634706
0.0632001
158.769
1306.76
1306.89
158.65
-0.0722187
-0.0721919
-0.0722482
0.0619647
0.0619239
0.0624988
181.875
1340.29
1340.37
181.758
-0.0686226
-0.0690686
-0.0692453
0.0599966
0.0598996
0.0596296
197.247
1366.42
1366.46
197.118
-0.0664207
-0.0663383
-0.0664404
0.0580616
0.0581057
0.0583212
225.482
1400.52
1400.56
225.371
-0.0630547
-0.0633934
-0.0635969
0.0559094
0.0559102
0.0556149
245.604
1427.42
1427.49
245.51
-0.0610427
-0.0608432
-0.0609684
0.0537972
0.053919
0.0540278
281.062
1461.65
1461.72
280.996
-0.0579608
-0.0580748
-0.0582747
0.0514545
0.051523
0.0511111
308
1489.04
1489.08
307.942
-0.0560153
-0.055629
-0.0557622
0.0491719
0.0493376
0.0491752
353.069
1522.93
1522.96
353.04
-0.0530679
-0.0529015
-0.0531163
0.0466931
0.046794
0.046125
388.854
1550.42
1550.42
388.831
-0.051088
-0.0504386
-0.0506101
0.0443567
0.0445868
0.0440583
445.782
1583.4
1583.34
445.753
-0.0481309
-0.0476228
-0.0479255
0.041892
0.0420774
0.0410867
492.088
1610.58
1610.52
492.049
-0.0461221
-0.0451592
-0.0454123
0.0396271
0.0400557
0.0392005
563.167
1641.77
1641.8
563.185
-0.0432668
-0.0423179
-0.042722
0.0371716
0.0375865
0.0363228
623.432
1667.94
1668.09
623.53
-0.0413135
-0.0398233
-0.0401484
0.0347496
0.0353292
0.0338924
715.181
1695.39
1695.39
715.19
-0.0382585
-0.03674
-0.0373156
0.0321708
0.0326146
0.0303294
797.773
1718.43
1718.24
797.653
-0.0361192
-0.033977
-0.0345516
0.0299085
0.0305569
0.0281798
920.717
1740.42
1740.42
920.749
-0.033443
-0.0309739
-0.0316527
0.0275397
0.0279691
0.024319
1032.66
1761.41
1761.25
1032.63
-0.0319854
-0.0283073
-0.0287804
0.0255362
0.0247924
0.0212128
1192.2
1780.27
1779.87
1192.01
-0.0293678
-0.0260745
-0.0255866
0.0226235
0.0218429
0.0273147
1333.51
1799.43
1799.33
1333.49
-0.0186545
-0.0241318
-0.0235568
0.0186884
0.0203765
48.5063
1489.55
1817.54
1817.53
1489.58
49.2187
-0.0208117
-0.0222964
0.0159556
0.0167045
188.629
1614.65
1836.52
1836.43
1614.66
190.409
-0.0194946
-0.0198824
0.0137613
0.0126206
399.027
1751.15
1854.95
1854.81
1751.1
403.088
-0.0184052
-0.0168218
0.0109206
0.00844188
736.579
1841.43
1873.96
1874.04
1841.6
746.345
-0.0188586
-0.014575
0.00941473
0.0214816
1234.27
1891.7
1892.6
1892.64
1891.76
1248.84
0.00693013
-0.00987307
0.00654808
181.953
1669.84
1910.42
1911.58
1911.5
1910.18
1660.66
186.51
-0.00875771
0.00968109
1123.83
1926.75
1926.81
1926.8
1926.83
1926.89
1926.89
1139.19
0.000422259
678.31
1889.3
1939.56
1937.54
1936.63
1936.56
1937.37
1939.35
1889.9
688.691
51.1357
34.1576
37.5907
47.7624
43.5625
37.5525
40.5915
45.485
47.2895
49.527
52.4976
53.9998
56.0277
61.5582
64.4367
61.9152
71.1661
85.4267
93.5385
90.7061
76.3662
56.5306
42.1632
35.221
36.575
36.0444
32.7333
31.4667
26.1289
21.9715
22.5157
28.0015
34.7934
33.349
30.8838
27.2963
47.2071
94.7381
145.045
181.693
-53.2646
-55.1552
-45.4631
-38.4667
-39.6257
-48.0178
-52.9117
-51.6399
-45.7935
-40.2284
-35.7296
-31.6651
-27.253
-21.1166
-14.8769
-8.13865
4.91626
22.0491
17.0692
13.6065
11.7723
10.1562
5.91802
9.05007
17.6893
20.2336
17.1414
13.3771
12.9358
8.14746
4.69338
10.7127
23.7735
17.731
5.60536
2.01983
6.73548
26.3931
78.3391
121.791
14.5533
15.0095
13.4898
15.9228
13.3326
8.19045
15.0874
18.1166
20.3018
17.5764
17.4462
15.344
14.7199
13.5506
14.6711
13.1183
30.3339
49.8086
46.5679
32.3711
10.2657
1.68638
0.364641
-0.351568
-0.113934
-0.196234
-0.345722
-0.35788
-0.343827
-0.277956
-0.208648
-0.18681
-0.211525
-0.149864
-0.156486
0.17793
1.18646
3.47909
22.1321
57.9012
16.1044
1.50393
1.76665
5.22116
20.4844
28.9425
26.4708
25.6579
28.61
18.9939
7.26137
5.27475
7.47239
12.5406
22.8501
34.0784
45.9245
29.6894
6.86739
-0.20876
-0.455891
-0.441824
-0.456465
-0.465214
-0.454289
-0.429389
-0.408811
-0.388911
-0.360884
-0.321918
-0.274027
-0.248757
-0.211633
-0.167168
-0.107211
-0.035681
0.000358757
0.262886
19.3062
45.7227
0.861306
0.734615
0.753009
0.268448
0.0867029
0.00318325
0.0420668
0.283059
-0.00326367
-0.0230413
-0.00077178
0.0540223
0.108141
0.213281
0.390885
4.22024
3.76082
0.311809
-0.471227
-0.439258
-0.438337
-0.452416
-0.464399
-0.475888
-0.470986
-0.471687
-0.467079
-0.452428
-0.431785
-0.407243
-0.330341
-0.301125
-0.280868
-0.226274
-0.164473
-0.109033
-0.0710233
-0.0488883
29.9635
53.49
0.459855
0.281952
0.110335
-0.0624709
-0.131307
-0.0909055
-0.0111132
0.0371496
0.0274058
0.0151524
0.0202814
-0.0161568
-0.0823633
-0.163321
-0.220361
-0.247393
-0.303314
-0.363556
-0.422791
-0.461503
-0.483967
-0.50526
-0.522096
-0.528356
-0.538655
-0.544776
-0.547265
-0.537274
-0.519152
-0.463029
-0.435617
-0.411496
-0.410733
-0.36948
-0.321074
-0.274398
-0.230613
-0.242488
45.8581
61.7551
0.196604
0.0118591
-0.141194
-0.222307
-0.218285
-0.157484
-0.0883213
-0.0479461
-0.0431766
-0.07276
-0.106288
-0.144973
-0.191237
-0.234158
-0.260877
-0.290097
-0.341271
-0.404264
-0.453256
-0.490203
-0.520607
-0.541772
-0.565066
-0.592836
-0.620076
-0.637878
-0.645145
-0.625321
-0.598058
-0.603467
-0.594516
-0.588942
-0.579334
-0.542231
-0.501767
-0.467787
-0.441394
-0.445655
51.3571
72.0584
0.0754198
-0.13362
-0.243895
-0.245611
-0.303792
-0.22101
-0.160471
-0.148472
-0.159959
-0.208589
-0.230309
-0.226089
-0.296001
-0.32625
-0.323785
-0.357642
-0.395414
-0.432248
-0.471711
-0.512266
-0.55443
-0.607898
-0.648364
-0.685005
-0.718561
-0.724762
-0.716427
-0.745999
-0.767594
-0.758991
-0.770107
-0.756027
-0.721848
-0.688697
-0.656125
-0.62838
-0.615973
-0.628288
38.9166
85.156
0.30136
-0.230191
-0.460489
-0.389167
-0.227948
-0.107812
-0.0670175
-0.0439471
0.0219882
-0.10191
-0.286391
-0.358297
-0.416305
-0.426268
-0.42115
-0.429288
-0.466931
-0.508653
-0.562846
-0.622572
-0.652918
-0.683392
-0.722169
-0.693329
-0.741669
-0.795084
-0.855485
-0.9308
-0.936801
-0.917451
-0.889927
-0.854163
-0.823832
-0.797164
-0.772537
-0.750635
-0.744986
-0.75473
14.4685
94.2864
0.383466
0.377842
0.48527
0.447456
0.324772
0.442108
0.554055
1.50274
17.2893
29.5777
5.23628
-0.595086
-0.54589
-0.530091
-0.535887
-0.566272
-0.602079
-0.642417
-0.672919
-0.695636
-0.689153
-0.601766
-0.660704
-0.724264
-0.862259
-0.967165
-0.983971
-0.985842
-0.975679
-0.955211
-0.928997
-0.905271
-0.886324
-0.872062
-0.860893
-0.850657
-0.832472
-0.826028
2.95033
97.3938
-0.18884
0.865456
1.46378
1.2334
1.16485
1.21003
3.44586
38.1179
102.029
112.978
52.637
-0.660417
-0.631391
-0.638219
-0.650089
-0.672131
-0.698428
-0.724163
-0.746037
-0.747948
-0.610627
-0.670518
-0.742079
-0.931249
-0.957654
-0.970766
-0.975734
-0.97453
-0.968499
-0.959419
-0.950425
-0.945806
-0.944235
-0.948016
-0.950038
-0.958017
-0.894037
-0.850594
1.53086
107.836
-0.421091
0.184952
0.865534
1.02305
1.1685
1.27892
20.0244
107.256
116.306
115.465
91.6668
-0.818319
-0.707033
-0.700171
-0.713549
-0.738929
-0.767496
-0.795401
-0.814828
-0.697272
-0.647195
-0.722012
-0.939638
-0.949005
-0.956548
-0.962044
-0.963805
-0.963905
-0.963859
-0.96633
-0.974566
-0.992031
-1.02029
-1.05121
-1.04227
-0.999609
-0.92393
-0.869027
4.372
128.029
-0.234709
-0.0399116
0.213175
0.408329
0.491261
0.767198
33.7833
122.343
122.9
111.175
21.7387
-0.604806
-0.668963
-0.705049
-0.747068
-0.787689
-0.824368
-0.850829
-0.858999
-0.698332
-0.659286
-0.907909
-0.939088
-0.941153
-0.942848
-0.943732
-0.94548
-0.949141
-0.955432
-0.965885
-0.982637
-1.00752
-1.03708
-1.0465
-1.0313
-0.981969
-0.908079
-0.830262
51.8231
138.886
-0.155511
-0.0842094
0.00937143
0.0779675
0.112573
0.340672
27.3423
124.48
135.18
66.923
-0.696201
-0.655938
-0.674204
-0.719381
-0.774492
-0.822593
-0.857819
-0.879407
-0.886693
-0.862713
-0.884391
-0.929074
-0.920661
-0.917272
-0.915925
-0.916552
-0.920599
-0.927281
-0.936122
-0.94594
-0.957427
-0.971445
-0.984121
-0.985273
-0.966403
-0.951806
-0.900951
4.12043
140.42
143.307
-0.157297
-0.13619
-0.105123
-0.0759189
-0.0412987
0.178502
30.2661
135.722
146.833
72.3494
-0.682553
-0.670912
-0.679369
-0.715569
-0.763913
-0.805612
-0.837258
-0.856539
-0.873123
-0.88938
-0.895904
-0.892273
-0.885905
-0.883156
-0.882821
-0.887006
-0.895663
-0.905613
-0.913511
-0.918339
-0.919188
-0.916125
-0.909565
-0.897923
-0.882472
-0.892162
3.38594
79.5231
156.263
157.55
-0.19823
-0.194923
-0.192497
-0.187462
-0.162336
0.0700235
39.2824
151.263
154.318
124.547
-0.530087
-0.61691
-0.636784
-0.662365
-0.699782
-0.738634
-0.77913
-0.809132
-0.827126
-0.846355
-0.855047
-0.855883
-0.855307
-0.852598
-0.853763
-0.865576
-0.885254
-0.904087
-0.913771
-0.911446
-0.897268
-0.875092
-0.84549
-0.814285
-0.790781
-0.739253
39.3027
164.051
171.308
173.357
-0.235581
-0.248955
-0.268117
-0.286473
-0.274149
-0.15366
15.8481
139.819
163.959
159.784
28.4214
-0.573844
-0.585134
-0.591381
-0.620012
-0.666058
-0.7111
-0.755684
-0.798937
-0.823402
-0.826528
-0.829947
-0.828433
-0.826571
-0.834482
-0.858192
-0.891216
-0.921777
-0.932997
-0.916838
-0.884832
-0.845511
-0.801668
-0.750646
-0.699379
-0.281338
77.9592
174.28
173.626
174.916
-0.266525
-0.296821
-0.327557
-0.354133
-0.346203
-0.319701
0.261046
74.6475
174.279
187.096
80.4968
-0.556545
-0.53318
-0.534423
-0.424354
-0.475536
-0.565041
-0.663114
-0.829118
-0.875839
-0.845512
-0.82846
-0.821253
-0.818103
-0.816187
-0.814888
-0.830742
-0.871262
-0.905392
-0.900545
-0.859318
-0.804962
-0.733944
-0.652121
-0.557932
-0.19167
71.4978
173.619
197.768
191.86
-0.303642
-0.343844
-0.377687
-0.402879
-0.400638
-0.387605
-0.159274
25.7956
177.818
197.61
144.538
-0.0854579
-0.417737
-0.449985
0.0462598
2.00058
4.43012
9.62347
11.513
4.99038
-0.72882
-0.517303
-0.548367
-0.654815
-0.674403
-0.665496
-0.67448
-0.691797
-0.717398
-0.727037
-0.702147
-0.634843
-0.542648
-0.423478
-0.146372
0.869234
28.0828
154.577
258.288
250.403
-0.355509
-0.397189
-0.431852
-0.455749
-0.460987
-0.449523
-0.347134
3.01843
119.925
212.792
210.04
71.4532
-0.0320582
0.451255
2.7658
35.1825
111.406
183.597
208.757
144.71
79.0643
41.3147
20.1712
16.3924
13.0563
4.36847
-0.40415
-0.516548
-0.542342
-0.417318
-0.214035
-0.11282
-0.0327675
0.187948
0.914928
4.03843
50.8753
247.65
290.899
292.42
-0.420445
-0.459853
-0.49471
-0.520423
-0.532602
-0.52153
-0.466294
0.0619069
51.9901
221.17
221.611
217.866
54.5097
27.2354
130.361
237.372
238.882
238.828
239.041
236.988
237.208
237.825
203.556
200.505
211.511
151.688
65.074
25.5479
11.7767
2.95076
4.76919
0.358242
0.136296
1.60143
35.9054
177.131
275.505
305.241
318.923
319.704
-0.490941
-0.528141
-0.565796
-0.599653
-0.628138
-0.63672
-0.642606
-0.49045
1.56354
116.857
237.83
242.006
247.249
245.455
251.252
250.161
249.081
249.104
250.273
251.382
253.399
258.204
260.182
261.726
261.092
260.581
261.828
259.983
212.387
123.603
220.033
258.067
241.96
204.263
223.053
291.956
308.656
319.786
325.285
326.754
-0.549273
-0.591622
-0.632432
-0.675156
-0.718644
-0.755894
-0.77728
-0.800917
-0.838778
-0.86957
100.429
231.33
256.358
261.416
263.918
261.564
259.151
256.354
228.684
181.979
168.387
229.899
264.062
268.757
269.716
266.247
239.402
247.856
275.29
279.255
283.865
292.726
300.811
307.662
312.757
314.831
319.72
323.051
322.381
321.739
-0.571316
-0.637269
-0.679015
-0.726068
-0.778786
-0.836985
-0.902994
-0.955622
-1.02394
-1.09065
-1.17427
-0.846762
62.5408
137.09
150.691
144.637
121.03
65.5235
23.0631
0.412006
1.30517
32.3001
232.81
280.911
282.707
210.761
29.5712
38.7201
231.28
290.082
136.45
113.837
272.897
273.331
144.999
138.966
223.121
254.951
231.576
221.05
-0.595565
-0.635741
-0.693416
-0.727534
-0.767882
-0.850379
-0.925316
-0.996054
-1.05126
-1.05822
-1.00207
-0.899498
-0.856135
-0.82794
-0.773418
-0.71334
-0.664529
-0.611195
-0.627363
-0.630219
-0.64784
-0.552916
71.2813
263.605
279.529
62.7079
11.4304
11.0854
6.09258
31.6892
56.1578
12.2954
4.36044
4.12902
5.60572
30.6277
60.8568
87.7778
96.395
73.4162
-0.597658
-0.621999
-0.653005
-0.681929
-0.717498
-0.779143
-0.82289
-0.85199
-0.867287
-0.872952
-0.854852
-0.671552
-0.703601
-0.728541
-0.685047
-0.664662
-0.66959
-0.682168
-0.676031
-0.6921
-0.735586
-0.776095
-0.874991
-0.886173
3.16846
22.3282
27.693
15.568
0.553526
0.454418
1.03747
2.09487
2.72875
3.10911
3.26814
3.62737
6.40697
17.6162
35.7854
36.381
-0.587404
-0.603416
-0.62097
-0.637561
-0.652469
-0.691719
-0.700078
-0.698511
-0.694756
-0.692891
-0.51103
-0.350735
-0.351898
-0.639634
-0.626604
-0.625909
-0.641677
-0.659297
-0.676893
-0.695933
-0.667634
0.00215719
2.69318
9.30436
7.41797
-0.175527
-0.248756
-0.309834
-0.24249
-0.140911
0.189976
2.36837
3.84953
2.53657
2.4981
2.44444
6.86234
37.7111
36.2144
34.3479
-0.591716
-0.581497
-0.590493
-0.59626
-0.616199
-0.630411
-0.622581
-0.610317
-0.599517
-0.55683
-0.241075
-0.278432
-0.585942
-0.608586
-0.613409
-0.627468
-0.646729
-0.663785
-0.675226
-0.669246
-0.293104
8.34885
11.6297
11.6832
11.5417
0.578954
-0.0498833
-0.00158885
-0.0952192
-0.243627
0.632158
3.01905
3.42999
3.80339
3.0795
2.35419
11.1414
52.318
55.6982
57.6284
-0.598809
-0.580951
-0.570062
-0.57986
-0.60492
-0.599916
-0.588127
-0.572911
-0.559359
-0.338783
-0.197277
-0.590673
-0.601807
-0.615992
-0.632187
-0.648276
-0.66179
-0.676271
-0.70186
-0.739632
-0.199607
2.94845
3.0419
-0.526024
-0.50408
-0.262522
-0.251503
-0.16831
-0.130027
-0.183296
-0.267795
0.703591
3.17827
3.53026
3.60027
2.59623
10.6644
52.3532
54.12
54.7018
-0.599375
-0.602285
-0.593049
-0.602617
-0.604685
-0.600098
-0.592884
-0.584428
-0.53835
-0.34059
-0.433153
-0.607792
-0.624624
-0.642796
-0.645985
-0.652463
-0.674818
-0.712404
-0.741929
-0.757475
-0.785702
-0.827545
-0.849331
-0.793756
-0.62403
-0.432481
-0.26221
-0.219522
-0.175631
-0.173357
-0.197971
-0.036292
3.0981
3.22226
3.00481
2.38857
5.07473
16.1114
44.624
51.0648
-0.611021
-0.613142
-0.614644
-0.616927
-0.618925
-0.620773
-0.622102
-0.623358
-0.578384
-0.376191
-0.623726
-0.658752
-0.676986
-0.697189
-0.717978
-0.74034
-0.763499
-0.7838
-0.801534
-0.818601
-0.833071
-0.838641
-0.848344
-0.831163
-0.0559742
1.79714
2.45939
1.56189
1.17611
1.57428
1.28843
1.8968
0.336028
-0.303788
-0.265735
-0.146854
-0.152548
-0.55813
-0.556513
1.69584
-0.62313
-0.622914
-0.626089
-0.631733
-0.63964
-0.649053
-0.660671
-0.673934
-0.651397
-0.64466
-0.682912
-0.693905
-0.734922
-0.767035
-0.789096
-0.808007
-0.82558
-0.846582
-0.868338
-0.888645
-0.906523
-0.923157
-0.937849
-0.931607
0.381148
2.64985
2.83293
2.90363
2.9266
2.92546
2.85733
1.92427
-0.481675
-0.553588
-0.534367
-0.517674
-0.557382
-0.562544
-0.557772
-0.583809
-0.614492
-0.621694
-0.630977
-0.642304
-0.656353
-0.673078
-0.693856
-0.719307
-0.738908
-0.767377
-0.775308
-0.764324
-0.779742
-0.828434
-0.851571
-0.868173
-0.882366
-0.900393
-0.920378
-0.93491
-0.94343
-0.950204
-0.959013
-0.962225
-0.806777
1.56002
2.78737
2.59824
2.24689
1.53022
0.555159
-0.594239
-0.58448
-0.54772
-0.498994
-0.47832
-0.467122
-0.431826
-0.503158
-0.539796
-0.604728
-0.616486
-0.629594
-0.644774
-0.662147
-0.683333
-0.709531
-0.741996
-0.779284
-0.814164
-0.840712
-0.840622
-0.843203
-0.831663
-0.841523
-0.888438
-0.918659
-0.937172
-0.957652
-0.972144
-0.983715
-0.986894
-0.976388
-0.962609
-0.943134
-0.743472
2.01821
-0.572211
-0.743055
-0.727992
-0.694459
-0.645595
-0.608775
-0.54631
-0.197442
-0.0592855
0.265818
0.352709
-0.229012
-0.524169
-0.604688
-0.612033
-0.623214
-0.637778
-0.655365
-0.677018
-0.704006
-0.736599
-0.775034
-0.815538
-0.850994
-0.878149
-0.891593
-0.887898
-0.857705
-0.568943
-0.625966
-0.878261
-0.966673
-0.977852
-0.959207
-0.541227
-0.936446
-0.946146
-0.912103
-0.873041
-0.835994
-0.796126
-0.759954
-0.726609
-0.695884
-0.667704
-0.643642
-0.533665
0.332471
0.362368
0.359841
0.354649
-0.159688
-0.549366
-0.596521
-0.600316
-0.608895
-0.621158
-0.636764
-0.656053
-0.680024
-0.709075
-0.742734
-0.77984
-0.817018
-0.849679
-0.875239
-0.893654
-0.906942
-0.650739
-0.346698
-0.3619
-0.627597
-0.6069
-0.311322
-0.190626
-0.606959
-0.924127
-0.889657
-0.845809
-0.813423
-0.78585
-0.733406
-0.716705
-0.706307
-0.681692
-0.660705
-0.561198
0.332225
0.361363
0.347836
0.189422
-0.440963
-0.582038
-0.574973
-0.579442
-0.586663
-0.596722
-0.609681
-0.625662
-0.645194
-0.668815
-0.696499
-0.727806
-0.761223
-0.794376
-0.824793
-0.850755
-0.871866
-0.883041
-0.78399
-0.327414
-0.155354
-0.167016
-0.183256
-0.180795
-0.367815
-0.886034
-0.856827
-0.81487
-0.784582
-0.765006
-0.64817
-0.490263
-0.637215
-0.685686
-0.667242
-0.63321
0.377416
-0.0212979
-0.385481
-0.593433
-0.597705
-0.595871
-0.55622
-0.556347
-0.560594
-0.567984
-0.578103
-0.590782
-0.606172
-0.62464
-0.646409
-0.67144
-0.699396
-0.728871
-0.758862
-0.787239
-0.813595
-0.837375
-0.858511
-0.801812
-0.680936
-0.697036
-0.19057
-0.229264
-0.750621
-0.834373
-0.796013
-0.762604
-0.741054
-0.731434
-0.6502
-0.463769
-0.448925
-0.661695
-0.65665
-0.643331
-0.327641
-0.617338
-0.604569
-0.596541
-0.593967
-0.591449
-0.520041
-0.524549
-0.529564
-0.535978
-0.544069
-0.553953
-0.56579
-0.579821
-0.596261
-0.615053
-0.636319
-0.659121
-0.683245
-0.70685
-0.728664
-0.747666
-0.763544
-0.776845
-0.786894
-0.790953
-0.776343
-0.784519
-0.76871
-0.744969
-0.720221
-0.699002
-0.685739
-0.681984
-0.679518
-0.442937
-0.410053
-0.587942
-0.633237
-0.619678
-0.609301
-0.599936
-0.590044
-0.582958
-0.57916
-0.576866
-0.485673
-0.492975
-0.498395
-0.503731
-0.509778
-0.51695
-0.525451
-0.5354
-0.546862
-0.55974
-0.574087
-0.589384
-0.605381
-0.620948
-0.635639
-0.648909
-0.659499
-0.668102
-0.674975
-0.678288
-0.678646
-0.675432
-0.666467
-0.654249
-0.64214
-0.630965
-0.624092
-0.624929
-0.627617
-0.591949
-0.355789
-0.536525
-0.60072
-0.589497
-0.576785
-0.572165
-0.562806
-0.561142
-0.556807
-0.553956
-0.461429
-0.4672
-0.470702
-0.473809
-0.477353
-0.481743
-0.487087
-0.493372
-0.500549
-0.508562
-0.517199
-0.526413
-0.535807
-0.545109
-0.553983
-0.561728
-0.568185
-0.573689
-0.577865
-0.580055
-0.579888
-0.577356
-0.57296
-0.568173
-0.563923
-0.56076
-0.558722
-0.560103
-0.566318
-0.567901
-0.486583
-0.510419
-0.554605
-0.550584
-0.373427
-0.390591
-0.528443
-0.529649
-0.525088
-0.523484
-0.446624
-0.446776
-0.446584
-0.446847
-0.44788
-0.44979
-0.45252
-0.455976
-0.460055
-0.464687
-0.469657
-0.474921
-0.48022
-0.485433
-0.490418
-0.494888
-0.499079
-0.501624
-0.502106
-0.501426
-0.499324
-0.497245
-0.495526
-0.494002
-0.493761
-0.494948
-0.496647
-0.490522
-0.496787
-0.508282
-0.471808
-0.412203
-0.492039
-0.459762
0.692662
0.167188
-0.487756
-0.492093
-0.48947
-0.488218
-0.425241
-0.424179
-0.422784
-0.421566
-0.421038
-0.4213
-0.42232
-0.424033
-0.42631
-0.429089
-0.432197
-0.435472
-0.438811
-0.441936
-0.44449
-0.446383
-0.447447
-0.446951
-0.44544
-0.443264
-0.440302
-0.437622
-0.435144
-0.43285
-0.431362
-0.431745
-0.433357
-0.431468
-0.441807
-0.191965
0.307071
-0.150849
-0.415366
0.0357693
0.789727
0.407441
-0.448128
-0.456509
-0.456344
-0.455588
-0.401756
-0.400489
-0.399206
-0.397631
-0.396435
-0.395869
-0.395984
-0.396764
-0.398071
-0.399839
-0.401891
-0.404017
-0.406124
-0.407881
-0.40905
-0.409575
-0.409203
-0.407678
-0.405314
-0.402
-0.39778
-0.392912
-0.387843
-0.383623
-0.38046
-0.377023
-0.373327
-0.365486
-0.371195
2.92688
3.41764
0.0523958
-0.316412
0.637771
0.849711
0.150201
-0.425309
-0.426131
-0.426534
-0.426655
-0.37825
-0.377421
-0.376321
-0.374862
-0.373519
-0.372663
-0.37238
-0.372679
-0.373452
-0.374628
-0.376053
-0.377574
-0.379067
-0.38029
-0.381126
-0.381461
-0.380995
-0.379574
-0.377219
-0.373704
-0.368915
-0.363131
-0.356283
-0.347706
-0.33835
-0.341756
0.224897
0.849048
3.99097
4.04213
4.07509
0.266439
-0.225274
0.907991
0.91928
-0.230074
-0.396454
-0.396684
-0.397487
-0.398242
-0.356932
-0.355806
-0.35465
-0.353231
-0.351919
-0.351021
-0.350614
-0.350715
-0.351268
-0.352207
-0.353425
-0.354819
-0.356267
-0.357605
-0.358754
-0.359581
-0.359853
-0.35943
-0.35828
-0.356208
-0.353212
-0.349329
-0.345473
-0.338217
0.272595
-0.0958278
4.01749
4.05038
4.08149
4.1098
1.53105
-0.292694
-0.0423582
0.964045
0.839238
-0.330317
-0.367832
-0.369562
-0.371288
-0.372079
-0.335855
-0.334957
-0.333743
-0.332465
-0.331332
-0.330548
-0.330202
-0.330321
-0.330885
-0.331836
-0.333119
-0.334653
-0.336349
-0.338114
-0.339904
-0.341611
-0.343116
-0.344472
-0.345802
-0.347167
-0.349107
-0.352482
-0.359709
-0.372805
0.694744
1.45739
2.08771
3.1179
2.21775
-0.353445
-0.33935
-0.330293
0.259248
1.02015
0.153872
-0.345736
-0.347113
-0.347937
-0.348377
-0.348207
-0.314909
-0.314055
-0.313283
-0.31233
-0.311496
-0.310953
-0.310794
-0.311059
-0.311745
-0.312812
-0.314239
-0.315971
-0.317978
-0.320242
-0.322759
-0.325545
-0.328634
-0.332254
-0.336327
-0.341452
-0.348835
-0.35905
-0.374476
-0.396902
0.429694
-0.0447051
-0.393334
-0.401512
-0.396727
-0.386369
-0.374068
-0.362827
-0.0879505
1.05199
0.149173
-0.323306
-0.327332
-0.324869
-0.32247
-0.321052
-0.293743
-0.293711
-0.293301
-0.292717
-0.292235
-0.291996
-0.292084
-0.292536
-0.293359
-0.294539
-0.296079
-0.297959
-0.30019
-0.3028
-0.305827
-0.309348
-0.313527
-0.318461
-0.324451
-0.331929
-0.341905
-0.354671
-0.3722
-0.397217
-0.251354
0.424398
0.494434
0.424846
-0.0876226
-0.38733
-0.391236
-0.379282
-0.370913
1.02939
0.437579
-0.269776
-0.297373
-0.29571
-0.292497
-0.290783
-0.273158
-0.273718
-0.273766
-0.27362
-0.273523
-0.273596
-0.273919
-0.274532
-0.275455
-0.276691
-0.278256
-0.280149
-0.282396
-0.285016
-0.28807
-0.291628
-0.29583
-0.300915
-0.307307
-0.315151
-0.324564
-0.336782
-0.353662
-0.378421
-0.408178
0.0265485
0.528068
0.527631
0.133832
-0.369545
-0.390837
-0.364369
-0.340867
0.0418807
1.08297
-0.0367242
-0.263987
-0.265515
-0.261807
-0.259974
-0.253363
-0.254459
-0.255009
-0.255267
-0.255506
-0.255837
-0.256338
-0.257051
-0.258003
-0.259204
-0.260672
-0.262405
-0.264427
-0.266739
-0.269385
-0.272416
-0.275889
-0.280021
-0.284904
-0.290784
-0.29786
-0.306553
-0.318802
-0.339057
-0.36366
-0.37022
-0.303005
-0.222169