/*--------------------------------*- C++ -*----------------------------------*\
  =========                 |
  \\      /  F ield         | OpenFOAM: The Open Source CFD Toolbox
   \\    /   O peration     | Website:  https://openfoam.org
    \\  /    A nd           | Version:  8
     \\/     M anipulation  |
\*---------------------------------------------------------------------------*/
FoamFile
{
    version     2.0;
    format      ascii;
    class       volScalarField;
    location    "3.5";
    object      alpha.water;
}
// * * * * * * * * * * * * * * * * * * * * * * * * * * * * * * * * * * * * * //

dimensions      [0 0 0 0 0 0 0];

internalField   nonuniform List<scalar> 
9150
(
1
1
1
1
1
1
1
1
1
1
1
1
1
1
1
1
1
1
1
1
1
1
1
1
1
1
1
1
1
1
1
1
1
1
1
1
1
1
1
1
1
1
1
1
1
1
1
1
1
1
1
1
1
1
1
1
1
1
1
1
1
1
1
1
1
1
1
1
1
1
1
1
1
1
1
1
1
1
1
1
1
1
1
1
1
1
1
1
1
1
1
1
1
1
1
1
1
1
1
1
1
1
1
1
1
1
1
1
1
1
1
1
1
1
1
1
1
1
1
1
1
1
1
1
1
1
1
1
1
1
1
1
1
1
1
1
1
1
1
1
1
1
1
1
1
1
1
1
1
1
0.974814
0.974711
0.974881
0.974895
0.972658
0.968878
0.968878
0.96932
0.974568
0.974568
0.974894
0.974885
0.974895
0.974895
0.974895
0.974873
0.974843
0.973663
0.967044
0.967038
0.974896
0.974895
0.974889
0.974895
0.974881
0.974853
0.974848
0.974848
0.974843
0.967407
0.974897
0.974889
0.974795
0.967555
0.962367
0.966634
0.973343
0.974843
0.974818
0.974255
0.974626
0.933096
0.713331
0.517398
0.472566
0.481261
0.541922
0.705716
0.919256
0.974474
0.959999
0.719789
0.245339
0.228764
0.228642
0.228642
0.228603
0.228642
0.302105
0.490218
0.911626
0.729671
0.327898
0.230451
0.228764
0.228597
0.228642
0.229201
0.230097
0.231862
0.628755
0.800281
0.841141
0.579832
0.231783
0.229294
0.229201
0.230097
0.235039
0.246117
0.11052
0.648203
0.865074
0.904494
0.800835
0.32004
0.242199
0.515547
0.742552
0.739062
0.0534212
0.0602018
0.556718
0.931341
0.949236
0.959724
0.894387
0.947236
0.962622
0.962417
0.0531826
0.053158
0.0550174
0.422672
0.954849
0.962864
0.96284
0.962856
0.96284
0.962622
0.0531237
0.0530454
0.0531631
0.0551402
0.424038
0.962778
0.962865
0.96284
0.962748
0.962097
0.0532261
0.0530443
0.0530454
0.0532744
0.165396
0.848163
0.962778
0.962748
0.962574
0.960643
0.0530431
0.0530431
0.0530453
0.0532686
0.314661
0.785775
0.961921
0.962574
0.962038
0.961671
0.0530422
0.0530437
0.0530972
0.108147
0.574624
0.793503
0.858713
0.961628
0.961679
0.960964
0.0530324
0.0530937
0.0889142
0.494242
0.638024
0.464849
0.524621
0.849955
0.960533
0.959566
0.250947
0.334592
0.551274
0.89064
0.720686
0.437083
0.436647
0.502667
0.734764
0.753239
0.929397
0.934772
0.953362
0.971385
0.845579
0.465367
0.434463
0.434463
0.434463
0.488079
0.971405
0.971405
0.971405
0.971403
0.971385
0.880761
0.469753
0.434463
0.444509
0.668795
0.971405
0.971405
0.971403
0.971385
0.97135
0.970872
0.830675
0.573676
0.806595
0.937196
0.971404
0.971403
0.97136
0.963244
0.954237
0.970624
0.938197
0.947787
0.947174
0.943519
0.971396
0.971372
0.946444
0.848829
0.842792
0.881597
0.951214
0.949077
0.926586
0.830824
0.970962
0.943061
0.845025
0.84386
0.842792
0.847098
0.954109
0.930191
0.855698
0.888682
0.7777
0.844675
0.898993
0.899784
0.951184
0.881808
0.955673
0.919196
0.855698
0.964643
0.697436
0.832141
0.893365
0.97052
0.973801
0.961028
0.955928
0.976258
0.945517
0.982535
0.758602
0.396134
0.43849
0.791003
0.975327
0.980728
0.982342
0.982544
0.982549
0.982543
0.829134
0.374651
0.373027
0.590597
0.973522
0.98241
0.982545
0.982554
0.982549
0.982549
0.549661
0.379927
0.37809
0.843287
0.981695
0.982489
0.98256
0.98255
0.982558
0.982542
0.38913
0.390007
0.853781
0.982392
0.982548
0.98257
0.98256
0.982551
0.982551
0.982443
0.497232
0.959108
0.982565
0.982559
0.98257
0.98257
0.98257
0.98256
0.982537
0.925275
0.98177
0.982532
0.982555
0.982563
0.982567
0.98257
0.982567
0.982507
0.976698
0.578516
0.98242
0.982469
0.982525
0.982555
0.982563
0.982567
0.982491
0.981646
0.811881
0.461496
0.98235
0.982421
0.982472
0.98252
0.9825
0.982516
0.945687
0.860555
0.746077
0.556609
0.982133
0.982371
0.982251
0.981773
0.981734
0.981465
0.733997
0.716952
0.773718
0.783271
0.949488
0.978276
0.912248
0.799958
0.870874
0.903393
0.719152
0.716621
0.790685
0.785378
0.890545
0.626317
0.397244
0.518905
0.68879
0.85643
0.782403
0.793965
0.795324
0.781343
0.471959
0.207781
0.237984
0.779139
0.793767
0.84084
0.82894
0.783203
0.791948
0.87243
0.204031
0.20441
0.275945
0.794217
0.81864
0.820112
0.770018
0.566728
0.81635
0.87261
0.204031
0.203156
0.202424
0.418164
0.813012
0.81864
0.713955
0.516277
0.791213
0.795779
0.204798
0.202424
0.189355
0.202328
0.788439
0.810269
0.696385
0.188609
0.170247
0.170387
0.726353
0.371067
0.209636
0.149097
0.494625
0.703304
0.661421
0.170247
0.170234
0.170237
0.913363
0.886968
0.539871
0.125211
0.356352
0.417788
0.666879
0.299272
0.170237
0.170235
0.360263
0.209409
0.314319
0.118153
0.450555
0.428388
0.663808
0.680222
0.572862
0.25522
0.000215351
0.000354872
0.036006
0.00337974
0.590666
0.571889
0.298588
0.563372
0.468178
0.502259
7.38164e-05
0.0107329
0.0198657
9.26114e-05
0.644201
0.676526
0.0101288
0.0253057
0.00562642
0.0150651
2.86477e-05
5.05137e-05
5.09159e-05
6.915e-05
0.705584
0.702749
0.000715858
0.000999741
0.00579485
0.00248891
2.8463e-05
2.80283e-05
2.88498e-05
0.000103377
0.743825
0.742166
0.000883521
0.00177851
0.000885706
8.81486e-05
2.91972e-05
2.78811e-05
2.80283e-05
0.000994737
0.752969
0.751892
0.00129173
0.00338377
0.00208065
0.000558098
3.11746e-05
2.76249e-05
2.95608e-05
0.0144383
0.756804
0.755971
0.0124596
0.00321535
0.00177815
0.000941036
3.2231e-05
2.73108e-05
2.76711e-05
0.0420223
0.757378
0.757979
0.0420173
0.000795384
0.000367747
0.000197595
2.58495e-05
2.61077e-05
2.66999e-05
0.0667204
0.758146
0.759758
0.0717321
2.0622e-05
2.36823e-05
2.51295e-05
2.5067e-05
2.5479e-05
3.07842e-05
0.0843645
0.760938
0.760145
0.0809877
1.91628e-05
3.05202e-05
3.46425e-05
4.14599e-05
0.00029003
3.57025e-05
0.0910219
0.760938
0.758933
0.0858403
1.6034e-05
5.27726e-05
6.01774e-05
8.17797e-05
0.00077596
3.58539e-05
0.0830247
0.759459
0.760214
0.0892817
9.9976e-06
1.20772e-05
4.62732e-05
0.000237654
0.000776076
3.57647e-05
0.0686501
0.756576
0.760214
0.0719392
7.12934e-06
8.6053e-06
2.78297e-05
0.000737627
0.000745823
4.07414e-05
0.0449451
0.756001
0.755768
0.0430437
7.01444e-06
8.71568e-06
1.50318e-05
0.000826179
0.00075001
3.54909e-05
0.0213423
0.746863
0.748133
0.0219365
6.93305e-06
7.72539e-06
2.89962e-05
0.000826179
0.000758369
2.53535e-05
0.0083439
0.72485
0.727068
0.00915765
6.75872e-06
7.77172e-06
1.16962e-05
0.000826179
0.000650577
1.83987e-05
0.00306597
0.708079
0.709541
0.00266154
5.98819e-06
5.61804e-05
9.5307e-06
0.000825216
0.000421757
1.57957e-05
0.00133373
0.699941
0.70216
0.000328388
5.28661e-06
5.6947e-05
1.18558e-05
0.000252717
0.000149118
1.54792e-05
0.00110784
0.69699
0.700668
0.000160067
5.05544e-06
3.20541e-05
1.45585e-05
1.6664e-05
1.63568e-05
1.52832e-05
0.00250144
0.711315
0.708832
4.97212e-06
4.85622e-06
2.3242e-05
1.63994e-05
1.6379e-05
1.52832e-05
1.50447e-05
0.0046821
0.74181
0.740455
0.00370392
4.76466e-06
3.7361e-05
1.64906e-05
2.41442e-05
5.16352e-05
1.46275e-05
0.0127641
0.783417
0.781714
0.0145328
4.71385e-06
4.00477e-05
6.42556e-05
0.000214133
0.000489174
1.32964e-05
0.0338434
0.822363
0.823479
0.0353414
4.58886e-06
3.56986e-05
0.000335053
0.000558983
0.000559132
1.2227e-05
0.0637108
0.854248
0.854132
0.0632767
4.40404e-06
8.16737e-05
0.00119345
0.000559351
0.000478535
1.2227e-05
0.0917836
0.871935
0.871119
0.0912702
4.23184e-06
6.3973e-05
0.00108574
0.000504723
0.00022567
1.22093e-05
0.111032
0.87749
0.876521
0.110246
4.11917e-06
5.93475e-05
0.000323523
0.000198715
0.000204786
1.23385e-05
0.12027
0.877728
0.875313
0.116941
3.98921e-06
6.6612e-05
0.000236928
0.00017675
0.000429661
1.3527e-05
0.120393
0.876566
0.874504
0.11855
3.74865e-06
5.90058e-05
0.000810426
0.000190024
0.000555834
1.69324e-05
0.107595
0.872167
0.873128
0.110486
3.62898e-06
1.99448e-05
0.000935764
0.000145486
0.000566969
1.6493e-05
0.0986594
0.87228
0.870165
0.0954715
3.62002e-06
3.80959e-06
0.000481816
0.000607006
0.000601735
1.27975e-05
0.0931471
0.871011
0.869372
0.092733
3.6199e-06
3.62002e-06
1.91016e-05
0.000475709
0.000338511
1.27975e-05
0.0915529
0.868669
0.871204
0.0935469
3.61998e-06
3.61985e-06
3.62314e-06
2.57421e-05
1.39279e-05
1.27812e-05
0.0985496
0.878573
0.877424
0.0981525
3.6199e-06
3.62007e-06
5.36893e-06
1.1722e-05
0.000147127
1.28229e-05
0.119124
0.895547
0.894689
0.118818
3.61998e-06
3.62028e-06
3.81459e-06
1.02901e-05
0.000298374
1.35491e-05
0.146624
0.91187
0.911664
0.147063
3.62028e-06
3.62175e-06
3.62239e-06
1.03193e-05
0.00029905
1.5e-05
0.174093
0.925525
0.9255
0.17479
3.62232e-06
4.80164e-06
3.62934e-06
0.000336299
0.000296545
1.67496e-05
0.195739
0.935249
0.935142
0.196407
3.63793e-06
2.19528e-05
3.64204e-06
0.000586027
0.000332101
1.96327e-05
0.21383
0.942608
0.942062
0.213333
3.71944e-06
2.30197e-05
3.66583e-06
0.000461256
0.000112842
2.20721e-05
0.22914
0.948448
0.947375
0.227337
3.84717e-06
2.30198e-05
3.68989e-06
2.5493e-06
4.7428e-05
2.26297e-05
0.244315
0.953604
0.952749
0.241834
3.98999e-06
2.41218e-05
1.7363e-05
2.52835e-06
0.000144232
2.27865e-05
0.261857
0.958793
0.959909
0.264012
4.18675e-06
2.35172e-05
3.93052e-05
2.52765e-06
0.000200225
2.3758e-05
0.289081
0.965706
0.967703
0.295894
4.39945e-06
1.35637e-05
3.92587e-05
2.52764e-06
0.000211577
2.60078e-05
0.330956
0.974157
0.974606
0.333475
4.52002e-06
2.34864e-05
1.01525e-05
2.52765e-06
0.000211651
2.86569e-05
0.377016
0.980957
0.981131
0.378663
4.67108e-06
4.76657e-05
4.50335e-06
1.60775e-05
0.000267073
3.12312e-05
0.424441
0.986001
0.986252
0.427583
5.07334e-06
5.92989e-05
0.000106594
0.000105314
0.000270495
3.41659e-05
0.476293
0.989671
0.989974
0.4795
5.72419e-06
6.16513e-05
0.000136247
0.000214769
0.00026966
3.73024e-05
0.532044
0.99251
0.992549
0.534076
3.9102e-06
2.92766e-05
0.000136333
0.000214536
9.62949e-05
2.35705e-05
0.597191
0.994793
0.994534
0.596346
7.83574e-07
5.34864e-07
4.91689e-05
2.71541e-05
2.34917e-06
3.09758e-06
0.670656
0.996416
0.996296
0.669043
5.34864e-07
5.00641e-07
7.31523e-06
2.34827e-06
2.3516e-06
2.35167e-06
0.751707
0.997616
0.997665
0.751877
5.01793e-07
5.00087e-07
4.98295e-07
2.33263e-06
2.34827e-06
0.0284704
0.823194
0.998658
0.998615
0.823259
0.0273598
4.96969e-07
4.96767e-07
4.06034e-06
2.3516e-06
0.107713
0.887796
0.999387
0.999215
0.887526
0.108627
4.96895e-07
4.9691e-07
7.38716e-05
2.57504e-06
0.208651
0.943145
0.999665
0.999803
0.943767
0.217555
5.28421e-07
4.96847e-07
3.60234e-05
7.75423e-06
0.371982
0.980476
0.999913
0.999925
0.988194
0.421396
6.96659e-07
5.28421e-07
3.23636e-05
2.25071e-05
0.63309
0.999931
0.999962
0.999977
0.999945
0.6644
2.18331e-06
5.63259e-07
1.82751e-05
0.06671
0.854877
0.999969
0.999998
0.999998
0.999977
0.886759
0.101637
1.48302e-07
2.38311e-06
0.556484
0.999396
0.999997
1
1
0.999998
0.999586
0.573721
1.90604e-09
0.313243
0.963533
1
1
1
1
1
1
0.964793
0.322637
0.974568
0.974568
0.974568
0.974568
0.974567
0.974566
0.974565
0.972633
0.961623
0.961608
0.967677
0.971114
0.965076
0.964969
0.967485
0.969756
0.969793
0.968564
0.968564
0.968564
0.968564
0.968564
0.968567
0.969668
0.97013
0.970121
0.970116
0.970033
0.969685
0.922185
0.876911
0.95469
0.967781
0.967786
0.967786
0.967786
0.967784
0.967717
0.967519
0.967365
0.967162
0.974325
0.974568
0.96849
0.973078
0.974565
0.974565
0.974565
0.974551
0.963059
0.963578
0.971102
0.971114
0.971088
0.970252
0.953477
0.970138
0.970129
0.968565
0.969622
0.970137
0.970133
0.970127
0.970131
0.970131
0.950084
0.87671
0.876619
0.876619
0.876649
0.875562
0.874536
0.918276
0.96617
0.967786
0.967784
0.952661
0.933342
0.942585
0.967154
0.966906
0.974341
0.974556
0.948009
0.932264
0.949166
0.974564
0.974564
0.974564
0.974562
0.969381
0.969097
0.971109
0.971108
0.95847
0.9525
0.970139
0.970139
0.97014
0.97014
0.97014
0.970138
0.970126
0.963943
0.880832
0.878866
0.876875
0.946816
0.961983
0.962006
0.961571
0.869416
0.835703
0.835555
0.835861
0.8859
0.82135
0.82135
0.82135
0.874469
0.97447
0.974546
0.974546
0.973311
0.974378
0.970625
0.931869
0.95128
0.974562
0.974561
0.97456
0.97386
0.962348
0.97091
0.963173
0.95238
0.95453
0.970139
0.97014
0.97014
0.97014
0.97014
0.970138
0.970121
0.969949
0.96392
0.947194
0.961796
0.962017
0.961831
0.961235
0.960322
0.958748
0.866237
0.824463
0.82149
0.82135
0.82135
0.857984
0.856321
0.974541
0.974545
0.974546
0.974545
0.974542
0.974539
0.974511
0.898237
0.69548
0.913781
0.974538
0.974488
0.950432
0.950287
0.968097
0.968413
0.968619
0.95808
0.962531
0.97014
0.954449
0.947514
0.970109
0.970094
0.967644
0.912427
0.901222
0.919278
0.897743
0.872087
0.872803
0.900578
0.908949
0.939077
0.93898
0.938231
0.830752
0.89284
0.931994
0.930761
0.80019
0.974541
0.974545
0.974542
0.97454
0.97454
0.974539
0.699234
0.477032
0.540901
0.901946
0.974377
0.954248
0.941421
0.960938
0.968826
0.969138
0.969482
0.970066
0.958394
0.955353
0.897343
0.867556
0.869316
0.799988
0.737668
0.737584
0.737584
0.737584
0.737589
0.738442
0.741177
0.743706
0.820684
0.93911
0.937246
0.808316
0.92122
0.932015
0.931994
0.438182
0.807931
0.935893
0.967393
0.97454
0.974539
0.746605
0.476877
0.47647
0.477032
0.674777
0.972049
0.973918
0.973571
0.966215
0.882215
0.911863
0.970066
0.970222
0.970596
0.970988
0.970791
0.969438
0.790334
0.737672
0.73759
0.737585
0.737584
0.737585
0.809082
0.928299
0.875907
0.754767
0.763539
0.882656
0.82905
0.565637
0.721649
0.931994
0.901441
0.260698
0.385218
0.615131
0.714854
0.95854
0.95575
0.534915
0.476487
0.476641
0.492175
0.89541
0.973918
0.973956
0.973958
0.973957
0.883403
0.843026
0.840308
0.894163
0.970648
0.971243
0.971305
0.971537
0.971747
0.912794
0.738162
0.73759
0.737585
0.73759
0.910597
0.97381
0.973955
0.973972
0.973866
0.822145
0.444619
0.443652
0.575297
0.923259
0.891244
0.52759
0.38315
0.399361
0.561325
0.938213
0.95439
0.758789
0.605501
0.61767
0.866498
0.973858
0.973956
0.973958
0.973958
0.973958
0.973957
0.895944
0.836693
0.834615
0.831641
0.855895
0.966802
0.971814
0.971857
0.972597
0.973293
0.838524
0.737642
0.785688
0.966945
0.973956
0.974042
0.974053
0.973972
0.7978
0.443652
0.443564
0.563175
0.914386
0.891198
0.961385
0.836317
0.544175
0.551178
0.806234
0.938242
0.95311
0.957668
0.961825
0.973789
0.97388
0.973891
0.973956
0.821862
0.833093
0.900803
0.953423
0.956829
0.864492
0.830037
0.828789
0.827382
0.843312
0.961942
0.973293
0.973447
0.970722
0.914481
0.92885
0.973464
0.974042
0.97408
0.974094
0.974053
0.588519
0.443564
0.443549
0.709426
0.913392
0.891769
0.961518
0.957031
0.886245
0.630919
0.625589
0.62856
0.744011
0.69301
0.732747
0.826641
0.923727
0.883542
0.60209
0.424396
0.424188
0.425934
0.683034
0.969949
0.972895
0.905141
0.827382
0.82696
0.82662
0.826519
0.908111
0.973775
0.97401
0.974091
0.973931
0.973225
0.974069
0.974095
0.974105
0.939525
0.479715
0.443545
0.44355
0.77417
0.913417
0.961387
0.881422
0.854695
0.941824
0.950369
0.768442
0.706467
0.637043
0.607467
0.491555
0.486042
0.430379
0.426881
0.424396
0.424189
0.424396
0.424396
0.746451
0.973666
0.973729
0.973763
0.862979
0.82662
0.826519
0.826502
0.846338
0.971344
0.974091
0.974116
0.974091
0.973355
0.973831
0.97411
0.974105
0.958002
0.504925
0.443523
0.44355
0.824296
0.949087
0.97248
0.84378
0.823209
0.847737
0.955451
0.964715
0.965044
0.965043
0.965053
0.932102
0.903866
0.80591
0.630755
0.619976
0.777355
0.966958
0.973437
0.973705
0.973627
0.973779
0.973848
0.906307
0.826592
0.826497
0.826519
0.93209
0.97404
0.974116
0.97412
0.973907
0.973462
0.973876
0.974119
0.97411
0.76757
0.44366
0.443491
0.461715
0.919091
0.97248
0.972482
0.952541
0.822708
0.818828
0.818828
0.913507
0.9649
0.965071
0.965043
0.938021
0.923932
0.916068
0.904626
0.960305
0.973675
0.973688
0.973689
0.973743
0.97378
0.97385
0.973908
0.966457
0.863655
0.854984
0.933197
0.97404
0.974116
0.97412
0.97412
0.974121
0.974121
0.97412
0.974119
0.655262
0.443563
0.443491
0.44349
0.594238
0.961987
0.972482
0.972482
0.959428
0.958668
0.824715
0.819353
0.819951
0.877258
0.9649
0.959151
0.669817
0.555593
0.721216
0.902193
0.973663
0.973668
0.973675
0.973599
0.97369
0.97385
0.973908
0.973967
0.974012
0.971464
0.972704
0.967378
0.966674
0.968922
0.974119
0.974121
0.974121
0.974121
0.839921
0.505316
0.443565
0.443493
0.443491
0.443491
0.845654
0.972446
0.972482
0.972482
0.958683
0.958381
0.957514
0.842237
0.819879
0.822281
0.943593
0.934437
0.618354
0.554183
0.638799
0.891036
0.944377
0.973663
0.973667
0.973474
0.973475
0.973672
0.973967
0.974012
0.974054
0.974088
0.974099
0.968442
0.96873
0.974116
0.974119
0.974119
0.97351
0.729878
0.444486
0.443599
0.443562
0.443565
0.472625
0.851166
0.971827
0.970912
0.971461
0.972482
0.908065
0.958127
0.957282
0.954342
0.903888
0.862035
0.866984
0.903658
0.791167
0.552775
0.552775
0.866452
0.913048
0.927683
0.966122
0.973493
0.973493
0.970898
0.956252
0.966705
0.974088
0.974099
0.974108
0.974114
0.974116
0.974118
0.974119
0.974119
0.970824
0.697406
0.512655
0.662579
0.630416
0.742951
0.924098
0.971974
0.97184
0.929496
0.961239
0.972471
0.825548
0.957282
0.954297
0.896576
0.868199
0.860849
0.806911
0.809057
0.897269
0.759732
0.552774
0.786252
0.812043
0.868479
0.964804
0.973491
0.973494
0.973491
0.949384
0.947824
0.947661
0.97372
0.974114
0.974116
0.974117
0.974118
0.974118
0.974118
0.969293
0.916768
0.933155
0.972004
0.96938
0.972298
0.972219
0.972134
0.97195
0.931425
0.961233
0.940048
0.849578
0.932414
0.649735
0.366618
0.394055
0.559026
0.704828
0.841865
0.920923
0.924212
0.840583
0.662782
0.611878
0.6125
0.72205
0.963595
0.972641
0.973479
0.973456
0.955184
0.946184
0.946184
0.966968
0.974114
0.955388
0.974117
0.974117
0.974117
0.974114
0.974054
0.973946
0.973857
0.97383
0.97376
0.957161
0.880473
0.854043
0.863659
0.896309
0.737795
0.929648
0.641651
0.224748
0.22308
0.22289
0.222872
0.323007
0.659364
0.855554
0.943594
0.965298
0.967575
0.967681
0.87527
0.543183
0.536895
0.537281
0.602982
0.958945
0.965152
0.953824
0.953164
0.9739
0.9733
0.95073
0.960163
0.965268
0.952978
0.974054
0.974043
0.973989
0.97389
0.969809
0.898082
0.847016
0.846783
0.873661
0.794534
0.727681
0.686653
0.904106
0.490336
0.224282
0.223027
0.222872
0.222853
0.222858
0.239012
0.658484
0.845852
0.828764
0.892642
0.972702
0.972959
0.972976
0.972985
0.818668
0.473562
0.464435
0.845517
0.973587
0.9739
0.973914
0.973918
0.973892
0.837798
0.729244
0.709767
0.758005
0.891553
0.973892
0.973838
0.8852
0.85418
0.895615
0.958792
0.932167
0.636613
0.519694
0.673938
0.818045
0.809512
0.281946
0.223593
0.222957
0.222862
0.222852
0.222857
0.328003
0.742493
0.793602
0.793492
0.87862
0.97283
0.972986
0.972993
0.972995
0.591672
0.44737
0.452841
0.767239
0.973813
0.973918
0.973918
0.973918
0.777055
0.709584
0.709202
0.709162
0.709226
0.899634
0.959684
0.853576
0.853576
0.958475
0.960665
0.890424
0.477814
0.473976
0.473231
0.980812
0.98232
0.618593
0.22615
0.223381
0.222926
0.222857
0.222852
0.222857
0.64736
0.787637
0.795582
0.866619
0.972907
0.972991
0.972995
0.972993
0.972995
0.739839
0.329934
0.311108
0.682827
0.971466
0.973918
0.973912
0.899068
0.709202
0.709162
0.709124
0.709162
0.872869
0.925754
0.853576
0.880047
0.961723
0.961724
0.870227
0.485581
0.473257
0.725246
0.982389
0.982342
0.86399
0.265467
0.225851
0.223381
0.222926
0.222857
0.22297
0.680885
0.799632
0.803152
0.905764
0.972987
0.973014
0.972994
0.972995
0.972994
0.972994
0.535636
0.295478
0.294857
0.642988
0.919396
0.973838
0.971484
0.762863
0.709124
0.709124
0.728176
0.946617
0.917625
0.879771
0.954723
0.961724
0.961723
0.939584
0.908516
0.541588
0.805609
0.982461
0.982391
0.950428
0.554625
0.391575
0.22973
0.223546
0.22297
0.355521
0.751169
0.794051
0.830026
0.966189
0.972995
0.972994
0.972994
0.972994
0.972997
0.9681
0.504116
0.291896
0.291693
0.293922
0.519649
0.89603
0.972319
0.955843
0.724517
0.709124
0.925093
0.961106
0.961106
0.961106
0.959537
0.914985
0.917452
0.969509
0.96887
0.846178
0.805104
0.982532
0.982461
0.975305
0.904926
0.911364
0.637503
0.436579
0.412941
0.647508
0.739216
0.772252
0.939771
0.972994
0.972994
0.972994
0.972994
0.972994
0.97224
0.655082
0.30047
0.291523
0.291508
0.291608
0.292822
0.778254
0.972697
0.973274
0.918471
0.909513
0.958967
0.939593
0.894203
0.944565
0.900419
0.900419
0.90147
0.970893
0.969509
0.763706
0.810845
0.982499
0.982168
0.979964
0.970943
0.968072
0.968037
0.968787
0.939862
0.829059
0.880015
0.972981
0.972984
0.97299
0.972994
0.972994
0.972994
0.972994
0.953718
0.466327
0.291523
0.291492
0.291492
0.291499
0.292492
0.836916
0.973321
0.973294
0.973273
0.972258
0.930757
0.891573
0.891573
0.894374
0.958724
0.942624
0.972505
0.972282
0.758878
0.351421
0.833181
0.982064
0.978985
0.873732
0.672648
0.936257
0.968787
0.968833
0.968849
0.968833
0.965634
0.972979
0.972981
0.972992
0.972991
0.972994
0.972993
0.972989
0.967091
0.549317
0.291492
0.291492
0.291492
0.291492
0.587913
0.959657
0.973345
0.97332
0.973294
0.930079
0.892145
0.891859
0.904904
0.97267
0.972609
0.972536
0.972517
0.859708
0.317573
0.317585
0.841484
0.947698
0.770274
0.495318
0.454927
0.633612
0.961805
0.968849
0.968864
0.958289
0.943415
0.972969
0.972949
0.962847
0.941756
0.972991
0.972989
0.972979
0.972824
0.908455
0.545944
0.405405
0.355138
0.39858
0.926225
0.973347
0.973353
0.973345
0.965969
0.892291
0.892244
0.892145
0.962401
0.972808
0.972674
0.972609
0.972525
0.796515
0.317484
0.494698
0.841484
0.590225
0.456054
0.454927
0.454802
0.454791
0.847025
0.968829
0.968879
0.943257
0.926447
0.970932
0.92886
0.618534
0.533361
0.923561
0.972979
0.972976
0.972964
0.972784
0.966529
0.926952
0.885401
0.846826
0.925101
0.973355
0.973356
0.973353
0.973302
0.951764
0.942239
0.966647
0.973052
0.97295
0.972799
0.972573
0.972502
0.972305
0.547045
0.75319
0.796476
0.4563
0.454978
0.454808
0.454791
0.45479
0.779026
0.968879
0.968903
0.948102
0.926447
0.943008
0.67879
0.330493
0.330591
0.447199
0.702431
0.694124
0.621219
0.686342
0.798463
0.89866
0.968605
0.972832
0.929066
0.973356
0.973356
0.973356
0.97335
0.973253
0.973244
0.973251
0.973244
0.972942
0.971044
0.914071
0.94067
0.934602
0.827454
0.785082
0.542958
0.455791
0.454907
0.454797
0.45479
0.454791
0.74258
0.968625
0.968926
0.957748
0.947454
0.91663
0.506657
0.330296
0.3303
0.330386
0.334767
0.334014
0.329928
0.331002
0.347849
0.497629
0.929163
0.973238
0.973354
0.973355
0.973356
0.97335
0.951798
0.922213
0.973148
0.973244
0.946137
0.86533
0.637234
0.423829
0.285349
0.568325
0.823599
0.544197
0.542944
0.45654
0.455049
0.454816
0.454797
0.454791
0.697246
0.951172
0.968922
0.968927
0.968866
0.91093
0.478957
0.330297
0.330291
0.3303
0.330377
0.329929
0.329039
0.328289
0.329198
0.362153
0.939831
0.973174
0.973303
0.973354
0.972842
0.93854
0.920168
0.925381
0.973159
0.964839
0.899048
0.463778
0.238951
0.238922
0.239013
0.286744
0.665599
0.522461
0.767546
0.525965
0.45654
0.487571
0.565418
0.455977
0.698936
0.968922
0.968927
0.968922
0.968826
0.930887
0.64506
0.330297
0.3303
0.330292
0.330548
0.330441
0.328292
0.327814
0.328285
0.426359
0.966779
0.973109
0.973174
0.9704
0.917122
0.917122
0.950093
0.973062
0.97311
0.971754
0.887743
0.33839
0.238935
0.238948
0.238961
0.238999
0.293258
0.696891
0.78146
0.566034
0.668791
0.862655
0.751233
0.461596
0.541083
0.885432
0.968922
0.956155
0.819155
0.818779
0.884764
0.576045
0.3303
0.330329
0.331785
0.331857
0.328264
0.327612
0.327814
0.331498
0.689914
0.915645
0.906686
0.898805
0.945176
0.953092
0.973062
0.973062
0.973062
0.973022
0.959246
0.507305
0.238951
0.238954
0.238985
0.238964
0.238999
0.617475
0.78146
0.785504
0.868723
0.866952
0.714225
0.465746
0.737639
0.946819
0.903399
0.777891
0.778604
0.781121
0.943565
0.962345
0.790375
0.347911
0.328236
0.327627
0.327612
0.327567
0.327612
0.327929
0.329707
0.429089
0.756664
0.967881
0.971998
0.972099
0.972149
0.973062
0.973052
0.973012
0.972083
0.676548
0.379736
0.414899
0.564308
0.43923
0.239738
0.353386
0.756407
0.87261
0.871228
0.710782
0.62314
0.658458
0.968927
0.921687
0.777891
0.777759
0.777891
0.860973
0.96506
0.964267
0.961631
0.956321
0.822923
0.438607
0.327573
0.327573
0.327573
0.327626
0.328008
0.380895
0.795552
0.971998
0.972063
0.972076
0.97146
0.972066
0.973007
0.972954
0.96637
0.878346
0.883695
0.92308
0.870926
0.695795
0.545244
0.374901
0.40449
0.72774
0.613735
0.616156
0.663747
0.969663
0.969666
0.963987
0.803252
0.777766
0.777765
0.813348
0.966255
0.965781
0.960429
0.960454
0.960275
0.931961
0.705655
0.482043
0.382458
0.402505
0.507477
0.716096
0.937474
0.972063
0.972081
0.972082
0.972082
0.972081
0.970174
0.970567
0.92409
0.909472
0.968041
0.968849
0.968899
0.969328
0.897466
0.577045
0.433571
0.663671
0.613735
0.613594
0.820861
0.969677
0.969677
0.969676
0.968865
0.920581
0.88751
0.933726
0.968937
0.85521
0.709558
0.797971
0.959417
0.959094
0.94954
0.889902
0.845819
0.842425
0.894776
0.927773
0.970583
0.971234
0.970625
0.969321
0.972084
0.972085
0.972085
0.972085
0.867554
0.656185
0.754476
0.929623
0.969328
0.969328
0.969328
0.965409
0.943978
0.348314
0.820904
0.921552
0.969678
0.969677
0.96968
0.969677
0.969676
0.969632
0.969459
0.969259
0.969196
0.968845
0.918878
0.507783
0.37252
0.394544
0.856639
0.894113
0.886735
0.920741
0.929357
0.914751
0.91025
0.910152
0.910213
0.948233
0.972033
0.972084
0.972085
0.972077
0.863516
0.648462
0.647119
0.676929
0.94225
0.969328
0.969306
0.952514
0.958693
0.17029
0.240066
0.698427
0.937807
0.966845
0.969677
0.969676
0.960299
0.941685
0.907628
0.934551
0.903904
0.964617
0.825003
0.344152
0.307098
0.307098
0.307098
0.308349
0.618106
0.903341
0.965008
0.96519
0.961651
0.95504
0.96089
0.965241
0.97193
0.972036
0.972074
0.874369
0.6506
0.647119
0.645796
0.646911
0.87124
0.969188
0.938863
0.864418
0.942015
0.170237
0.170993
0.184486
0.386634
0.666781
0.746391
0.730377
0.705028
0.786654
0.853408
0.743088
0.75703
0.907628
0.925207
0.831243
0.47895
0.393424
0.407841
0.598262
0.773928
0.805293
0.938911
0.972061
0.972068
0.972068
0.972068
0.972068
0.958442
0.951954
0.970566
0.972036
0.774241
0.643951
0.644866
0.645704
0.870857
0.968119
0.914989
0.864418
0.925965
0.252672
0.432272
0.429298
0.459988
0.463883
0.44424
0.455547
0.514412
0.542475
0.541055
0.561187
0.508209
0.542801
0.634877
0.729301
0.66979
0.69902
0.582556
0.582711
0.766192
0.971818
0.971926
0.972001
0.972061
0.972068
0.972068
0.972068
0.972046
0.972032
0.972038
0.972038
0.836315
0.641146
0.643153
0.64501
0.828329
0.966734
0.963371
0.895651
0.904346
0.473298
0.408621
0.41418
0.279509
0.0733878
0.0308791
0.0200158
0.00611764
0.00476304
6.58035e-05
6.06045e-05
6.45621e-05
0.0108209
0.143724
0.578175
0.861662
0.90666
0.911231
0.953027
0.963586
0.968285
0.971818
0.971926
0.972001
0.972016
0.972027
0.972043
0.972022
0.972031
0.972038
0.95587
0.785831
0.637221
0.657858
0.840335
0.923318
0.923423
0.924349
0.923931
0.814116
0.053649
0.134602
0.107356
0.00825449
0.000139429
0.000113416
0.000568406
0.00311712
0.00201405
9.34701e-05
5.67175e-05
5.46748e-05
0.000162623
0.00347884
0.0797177
0.173815
0.185437
0.22299
0.391064
0.553072
0.669739
0.74556
0.774341
0.801148
0.806184
0.80577
0.824379
0.828623
0.827814
0.819655
0.755799
0.684731
0.636272
0.634402
0.528564
0.366416
0.458704
0.624809
0.742753
0.794196
8.36645e-05
6.71849e-05
6.02048e-05
5.89401e-05
0.000143533
0.000111249
5.739e-05
0.000139235
0.000303175
0.000163616
5.20291e-05
5.05271e-05
0.00043142
0.00137218
0.00372253
0.00149748
0.000153199
0.000160666
0.00016594
0.000197606
0.00546561
0.0414038
0.0644359
0.0908982
0.119165
0.14856
0.187851
0.232901
0.255118
0.24383
0.177201
0.154504
0.110832
0.00936188
7.35826e-05
0.000700784
0.0251114
0.115808
0.219838
0.302518
7.11804e-05
6.66703e-05
6.10799e-05
5.80988e-05
6.37675e-05
5.73033e-05
5.72936e-05
5.73901e-05
5.74394e-05
7.52357e-05
5.06782e-05
4.87049e-05
6.4997e-05
0.000121011
0.000697774
0.00088696
0.000150257
0.000883637
0.000891657
0.000402683
3.11393e-05
3.03274e-05
3.2033e-05
4.49711e-05
7.48885e-05
8.20514e-05
8.20514e-05
8.20359e-05
0.000390711
0.00290931
0.000924521
3.98218e-05
3.68756e-05
3.96986e-05
5.97112e-05
8.61125e-05
0.000363854
0.000247056
0.000210284
0.000208544
0.000180023
0.000162699
0.000115558
5.71732e-05
5.71732e-05
5.71599e-05
5.72207e-05
5.72936e-05
5.73736e-05
5.74394e-05
8.06178e-05
4.74e-05
4.20055e-05
3.72335e-05
3.53424e-05
3.72519e-05
4.5862e-05
9.02483e-05
7.89246e-05
3.76136e-05
3.02221e-05
3.01989e-05
0.000770639
0.00222046
0.00222372
0.00192168
0.000102455
0.00149572
0.00178372
0.00288124
0.00217199
8.94312e-05
3.35632e-05
3.83956e-05
0.00027836
0.000437169
0.000445572
0.000237357
0.000206743
0.000206701
0.000242628
0.000250401
0.000250775
7.75817e-05
5.71728e-05
5.72207e-05
5.72936e-05
9.59991e-05
0.000194912
0.000153256
9.42839e-05
7.67978e-05
3.88021e-05
3.53446e-05
3.37631e-05
3.26731e-05
3.18542e-05
3.0874e-05
3.03567e-05
3.02221e-05
3.01989e-05
3.01954e-05
3.01989e-05
0.00168277
0.00223971
0.00223018
0.00126825
0.000142754
0.000112061
0.000122643
0.000153865
6.29174e-05
3.33156e-05
3.34859e-05
0.000270774
0.000467726
0.000470699
0.0002403
0.000204868
0.000205493
2.77661e-05
2.56637e-05
2.71487e-05
0.000193997
0.000290526
0.000787756
0.000880644
0.00151921
0.00189925
0.00188245
0.000974783
0.000265468
0.000661537
0.00119425
0.000639412
5.50637e-05
3.37499e-05
3.18542e-05
0.000340419
0.0011199
0.00028404
2.90217e-05
3.01989e-05
0.000633779
0.00217691
0.000985165
0.00023701
3.51987e-05
0.000113424
0.000513421
0.000365896
3.38707e-05
3.3295e-05
3.33022e-05
3.93727e-05
0.000192781
0.000442935
0.000400281
0.000204923
0.000205764
2.51295e-05
2.51295e-05
0.000459895
0.0012676
0.00191244
0.00190988
0.00190853
0.00190843
0.001905
0.00189924
0.00188226
0.00185685
0.00183902
0.00182761
0.00182479
0.00181607
0.00180051
0.00178477
0.00176812
0.00148314
0.000126433
2.3148e-05
0.000286326
0.00134452
0.00100231
0.000100656
3.8701e-05
3.10581e-05
3.20075e-05
0.0002554
0.00098984
0.000146532
3.32504e-05
3.31843e-05
3.29851e-05
3.29375e-05
3.29145e-05
3.29136e-05
0.000206353
0.000246162
2.51295e-05
0.00044439
0.00191271
0.00191253
0.00191257
0.00191244
0.00190988
0.0019051
0.00177099
0.00110519
0.00049855
0.000819547
0.00120687
0.000673351
9.03174e-05
0.000133896
0.000136548
0.000304025
0.000957489
0.000652303
4.84994e-05
1.77332e-05
1.72498e-05
0.00102942
0.00072746
6.23375e-05
3.02069e-05
3.02003e-05
3.06797e-05