/*--------------------------------*- C++ -*----------------------------------*\
  =========                 |
  \\      /  F ield         | OpenFOAM: The Open Source CFD Toolbox
   \\    /   O peration     | Website:  https://openfoam.org
    \\  /    A nd           | Version:  8
     \\/     M anipulation  |
\*---------------------------------------------------------------------------*/
FoamFile
{
    version     2.0;
    format      ascii;
    class       volScalarField;
    location    "2.9";
    object      alpha.water;
}
// * * * * * * * * * * * * * * * * * * * * * * * * * * * * * * * * * * * * * //

dimensions      [0 0 0 0 0 0 0];

internalField   nonuniform List<scalar> 
9150
(
1
1
1
1
1
1
1
1
1
1
1
1
1
1
1
1
1
1
1
1
1
1
1
1
1
1
1
1
1
1
1
1
1
1
1
1
1
1
1
1
1
1
1
1
1
1
1
1
1
1
1
1
1
1
1
1
1
1
1
1
1
1
1
1
1
1
1
1
1
1
1
1
1
1
1
1
1
1
1
1
1
1
1
1
1
1
1
1
1
1
1
1
1
1
1
1
1
1
1
1
1
1
1
1
1
1
1
1
1
1
1
1
1
1
1
1
1
1
1
1
1
1
1
1
1
1
1
1
1
1
1
1
1
1
1
1
1
1
1
1
1
1
1
1
1
1
1
1
1
1
0.473025
0.472445
0.473806
0.812928
0.954866
0.954866
0.954866
0.954866
0.954864
0.955018
0.472447
0.516085
0.938306
0.954866
0.954866
0.954866
0.954866
0.954948
0.955021
0.955117
0.474814
0.810269
0.954849
0.954865
0.954866
0.954861
0.954837
0.954859
0.954643
0.95168
0.558237
0.954458
0.954615
0.954849
0.954832
0.913593
0.839962
0.853083
0.93103
0.932778
0.680595
0.95312
0.95451
0.9392
0.419948
0.0836041
0.0765155
0.240783
0.487548
0.737107
0.66559
0.925045
0.953616
0.926425
0.316681
0.0761962
0.0761612
0.0761608
0.0762008
0.0768758
0.63506
0.899582
0.95272
0.844258
0.16824
0.0761612
0.0761606
0.076161
0.0762643
0.0766094
0.624893
0.79575
0.927077
0.559984
0.0772222
0.0761963
0.12242
0.139031
0.139415
0.128706
0.624986
0.725556
0.734191
0.201556
0.076381
0.0763164
0.0762008
0.0809724
0.139864
0.139947
0.735805
0.906218
0.900747
0.54073
0.078498
0.0762008
0.0761173
0.0761451
0.0760522
0.0760188
0.943662
0.944552
0.945903
0.938168
0.865942
0.789361
0.561734
0.12603
0.0764714
0.0761727
0.928221
0.916023
0.945815
0.954973
0.956527
0.957256
0.95609
0.900019
0.785196
0.772858
0.661587
0.661204
0.81143
0.95616
0.957234
0.957363
0.957552
0.958261
0.953592
0.903536
0.80608
0.65954
0.65954
0.65954
0.6611
0.777334
0.958023
0.959239
0.959377
0.959394
0.961969
0.876144
0.661706
0.6611
0.764894
0.957659
0.959293
0.959377
0.959394
0.959396
0.962091
0.962126
0.910474
0.91199
0.958124
0.959293
0.959376
0.959393
0.959396
0.959396
0.961963
0.962056
0.961939
0.863985
0.82168
0.929771
0.959295
0.959378
0.959393
0.959396
0.961927
0.961939
0.961933
0.835631
0.793742
0.793409
0.799446
0.935943
0.959309
0.959382
0.961931
0.961935
0.961935
0.898267
0.793607
0.792965
0.792912
0.792941
0.87017
0.959099
0.961898
0.961931
0.96191
0.899796
0.793933
0.793091
0.792965
0.792931
0.806463
0.954183
0.961783
0.961873
0.961834
0.946034
0.807637
0.793933
0.793091
0.817988
0.955156
0.959127
0.955473
0.961262
0.961354
0.839406
0.79736
0.908551
0.957379
0.958659
0.958837
0.958925
0.457455
0.489483
0.486117
0.4446
0.371501
0.43451
0.702297
0.938041
0.954605
0.940861
0.0287254
0.0287058
0.02867
0.028637
0.0286606
0.0286632
0.101335
0.361251
0.407397
0.237958
0.0284395
0.0285445
0.0286595
0.0286717
0.0286543
0.0285858
0.0285226
0.0285226
0.0286638
0.0338467
0.0282121
0.0282957
0.0286977
0.0286958
0.0286358
0.0286732
0.0286047
0.0285727
0.0457404
0.0642895
0.0286693
0.0284198
0.0285397
0.0286829
0.0285647
0.0286227
0.0287032
0.0559867
0.0685699
0.0685699
0.428381
0.0287844
0.028602
0.0285565
0.0285598
0.0285647
0.028646
0.0285529
0.0291664
0.048366
0.877792
0.217844
0.0288361
0.0286193
0.0285646
0.0286261
0.0287039
0.0287979
0.0287617
0.0386227
0.95443
0.83955
0.184551
0.0288635
0.0286261
0.0287202
0.0288178
0.0290107
0.0312022
0.287614
0.954857
0.955249
0.839919
0.18045
0.0289198
0.0288179
0.0291413
0.0311437
0.276419
0.886748
0.955249
0.955546
0.955526
0.835142
0.168965
0.0291969
0.0312911
0.0406958
0.540711
0.947768
0.955546
0.955681
0.955818
0.955527
0.837352
0.162327
0.035538
0.0399262
0.337379
0.935948
0.955157
0.95582
0.955816
0.955954
0.955343
0.816208
0.181286
0.0800436
0.711153
0.955012
0.906343
0.955572
0.955952
0.956079
0.956197
0.953528
0.605318
0.282899
0.834856
0.956408
0.419338
0.953142
0.956079
0.956369
0.956785
0.956904
0.84506
0.677671
0.892621
0.957038
0.0868285
0.649557
0.95431
0.956785
0.956904
0.957
0.957015
0.957059
0.957011
0.957086
0.00540799
0.0796605
0.669717
0.954283
0.956881
0.957102
0.957106
0.957105
0.957101
0.957092
0.00336677
0.00438266
0.0425188
0.546169
0.866708
0.927265
0.957105
0.957106
0.957103
0.957101
0.00328004
0.00336936
0.00438419
0.14051
0.534096
0.602905
0.759224
0.950217
0.956673
0.796545
0.00325516
0.00328004
0.00350492
0.203156
0.569656
0.510701
0.511789
0.781272
0.955552
0.826852
0.00428976
0.00345626
0.00362403
0.357742
0.779457
0.720034
0.674748
0.71979
0.9507
0.9445
0.00532957
0.00380776
0.00372989
0.39527
0.779643
0.7779
0.253855
0.452846
0.743748
0.710707
0.00793571
0.00356394
0.00297013
0.35738
0.779862
0.760806
0.137922
0.0847182
0.103298
0.131815
0.000686838
0.000198115
0.000471622
0.226758
0.779862
0.779862
0.420884
0.0848453
0.0847167
0.340529
0.000135556
0.000136527
0.000147197
0.109432
0.779862
0.779862
0.502216
0.369844
0.171826
0.101763
0.000131742
0.000134365
0.000146584
0.0717903
0.779862
0.756858
0.102596
0.168195
0.278892
0.278791
0.000131618
0.00060518
0.000281649
0.0502643
0.779524
0.768945
0.0616581
0.173232
0.277699
0.204047
0.00153789
0.00115897
2.67319e-05
0.0200691
0.767488
0.766247
0.0251417
0.0964004
0.0828633
0.0108287
0.00187282
0.000782185
2.45174e-05
0.00315864
0.719494
0.725621
0.00228076
5.28614e-05
5.6763e-06
5.04089e-06
0.000732331
6.7669e-05
2.45174e-05
0.000155209
0.669779
0.66922
3.99643e-06
4.04094e-06
4.04069e-06
4.55187e-06
0.000238201
0.000118961
2.52289e-05
2.53624e-05
0.637978
0.638326
4.05826e-06
4.00135e-06
4.35158e-05
7.07355e-06
0.000154818
0.000197645
3.76703e-05
2.77434e-05
0.631506
0.628051
3.83711e-06
5.23802e-06
4.7748e-05
1.24405e-05
7.49365e-05
7.75292e-05
2.93789e-05
2.93598e-05
0.650135
0.653382
2.12447e-06
1.94979e-06
3.17395e-05
5.99917e-05
2.51306e-05
2.65613e-05
2.92257e-05
2.94841e-05
0.71691
0.718375
1.94979e-06
1.93982e-06
8.3906e-06
8.74569e-05
2.49266e-05
0.000164834
4.46736e-05
0.000583591
0.772357
0.77406
0.000512296
1.92101e-06
2.31667e-05
0.000119649
2.48309e-05
0.000278946
2.43285e-05
0.0168117
0.796982
0.797766
0.0169252
1.70084e-06
2.34372e-05
0.000145853
2.49886e-05
0.000279316
5.54059e-06
0.0404283
0.803038
0.802573
0.0412153
1.49008e-06
3.62649e-06
0.000102039
2.5043e-05
0.000255628
5.39194e-06
0.0529764
0.803277
0.801825
0.0529169
1.4889e-06
1.4889e-06
1.47095e-06
2.518e-05
0.000532399
5.39208e-06
0.0557122
0.803277
0.801788
0.0553076
1.48953e-06
1.67554e-06
1.42853e-06
0.000842055
0.000555992
5.39187e-06
0.0519761
0.801598
0.801628
0.0526704
1.49543e-06
6.04343e-05
7.78123e-06
0.000302084
0.000176683
5.39208e-06
0.0424602
0.79699
0.797704
0.0442456
1.50686e-06
9.89376e-05
3.4873e-05
2.92593e-05
1.6059e-05
5.33274e-06
0.0356828
0.794149
0.792073
0.0370336
1.56381e-06
9.91172e-05
5.06918e-05
3.55697e-05
0.000233864
4.73027e-06
0.0335817
0.794239
0.791399
0.0344515
1.78251e-06
8.62012e-05
4.35113e-05
9.70756e-05
0.000256894
3.13154e-06
0.034065
0.805518
0.806
0.0348509
2.12244e-06
3.00897e-05
7.92003e-05
0.000289511
0.000250638
2.06553e-06
0.043083
0.825557
0.827604
0.0435541
2.38983e-06
4.94556e-05
0.000162496
0.000101642
2.06553e-06
2.05485e-06
0.0584995
0.845428
0.8448
0.0582425
2.70769e-06
0.000115619
0.000163215
2.16247e-06
2.14716e-06
2.04548e-06
0.0702656
0.856721
0.857768
0.0717052
3.35983e-06
0.000153355
0.000163248
2.15216e-06
2.04548e-06
2.03312e-06
0.0779843
0.863108
0.863516
0.0784727
4.12299e-06
0.000152543
0.000163248
2.35544e-06
2.03312e-06
2.02575e-06
0.0826818
0.866997
0.867056
0.0827492
3.5618e-06
0.000108069
0.000163248
3.26873e-06
2.17593e-06
2.00055e-06
0.0870188
0.870858
0.870803
0.0869749
3.09744e-06
7.81868e-05
0.000163233
2.90816e-06
1.53943e-05
1.90015e-06
0.0931725
0.876311
0.876534
0.0933465
2.67543e-06
6.47781e-05
0.000162955
2.91675e-06
2.94602e-05
1.78268e-06
0.103213
0.884791
0.885149
0.10342
2.28319e-06
6.29022e-05
5.54643e-05
2.89173e-06
2.79269e-05
1.67799e-06
0.118017
0.895981
0.896357
0.117996
1.72798e-06
9.39541e-05
3.83396e-05
2.89172e-06
5.01331e-05
1.48439e-06
0.133915
0.906309
0.90682
0.133628
1.06942e-06
9.47811e-05
0.000112797
2.89172e-06
7.38652e-05
1.24397e-06
0.148527
0.914745
0.915413
0.14812
6.30229e-07
8.64661e-05
0.000114169
2.89172e-06
7.40638e-05
9.47554e-07
0.160584
0.921198
0.921957
0.160039
3.77859e-07
5.58251e-05
0.000114169
3.15054e-05
7.40189e-05
6.15772e-07
0.169658
0.926094
0.926834
0.169097
2.47552e-07
2.77581e-05
0.000114169
0.000228331
4.57517e-05
4.16634e-07
0.177144
0.930434
0.93103
0.176676
2.1533e-07
6.72078e-06
8.38947e-05
0.00022838
1.65125e-05
3.41036e-07
0.18606
0.93557
0.936003
0.185759
2.1259e-07
7.7291e-07
7.80566e-07
0.000123492
7.39324e-06
3.08456e-07
0.201998
0.942954
0.943483
0.20204
2.07227e-07
1.03904e-06
1.55096e-06
9.65282e-06
7.01157e-06
2.77098e-07
0.232088
0.953311
0.954005
0.232367
2.00665e-07
1.42349e-06
1.60089e-06
1.38745e-05
7.42078e-06
2.22029e-07
0.272396
0.963806
0.96491
0.273379
1.97679e-07
9.08941e-07
1.59825e-06
1.76742e-05
8.39001e-06
1.76624e-07
0.313702
0.972618
0.973688
0.315396
1.97716e-07
2.55458e-07
1.44089e-06
1.57401e-05
1.28181e-06
1.68366e-07
0.348755
0.979149
0.979603
0.349849
1.97692e-07
1.97716e-07
1.53546e-06
3.10361e-06
5.96996e-07
1.65553e-07
0.378095
0.984027
0.983854
0.378624
1.97716e-07
2.00582e-07
6.65623e-06
1.12427e-06
2.69772e-07
1.30822e-07
0.4134
0.988585
0.987972
0.414156
2.00582e-07
2.39419e-07
2.7272e-05
2.06085e-07
9.25003e-08
9.44536e-08
0.475236
0.993669
0.99225
0.476397
2.26507e-07
1.03196e-06
1.13026e-05
1.01523e-06
8.72398e-08
9.48695e-08
0.547693
0.996918
0.995162
0.547627
4.52391e-07
3.87883e-06
7.70564e-06
1.57165e-06
8.22489e-08
8.72398e-08
0.581024
0.997656
0.998203
0.604082
2.61222e-06
4.88416e-06
4.79463e-05
5.17069e-07
8.05716e-08
8.22489e-08
0.550274
0.997832
0.998229
0.708084
5.00876e-06
5.10214e-06
4.78922e-05
8.83772e-08
7.95856e-08
8.07328e-08
0.74257
0.998679
0.998383
0.711635
0.00408809
5.37193e-06
1.69791e-05
7.3488e-08
7.60426e-08
0.0794585
0.880979
0.999222
0.998674
0.686819
5.65925e-06
5.51663e-06
1.09938e-05
7.23456e-08
7.3488e-08
0.179687
0.928722
0.9998
0.999209
0.829778
0.0170022
5.65925e-06
5.26728e-05
7.16468e-08
7.23456e-08
0.313561
0.973993
0.999842
0.999805
0.893544
0.130941
4.3909e-06
7.68625e-05
7.04807e-08
7.20667e-08
0.480681
0.992055
0.999975
0.999896
0.976447
0.325772
2.23248e-06
2.10586e-06
7.28219e-09
5.84225e-07
0.745456
0.999975
0.999978
0.999985
0.99969
0.58156
3.5921e-06
4.52991e-10
1.49746e-10
0.161923
0.898182
0.999982
1
0.999997
0.999985
0.862035
0.0581646
4.4832e-10
-1.23938e-11
0.632101
0.999943
1
1
1
0.999997
0.997054
0.537998
2.64536e-10
0.336075
0.962835
1
1
1
1
1
1
0.973866
0.344068
0.954819
0.945089
0.898963
0.862543
0.840034
0.824793
0.787741
0.748355
0.689037
0.707965
0.746076
0.745474
0.583777
0.729601
0.919485
0.919559
0.869346
0.824487
0.824487
0.937374
0.946613
0.946356
0.839383
0.579182
0.940656
0.941481
0.941677
0.942311
0.942515
0.942826
0.943177
0.943589
0.943589
0.943587
0.943558
0.935665
0.924023
0.937085
0.948122
0.948122
0.86866
0.482881
0.285636
0.255632
0.220396
0.178287
0.155522
0.155512
0.155512
0.155512
0.209388
0.555454
0.573334
0.788862
0.919559
0.91958
0.9198
0.912748
0.924581
0.94681
0.946819
0.946613
0.746216
0.518306
0.501925
0.629576
0.930371
0.899204
0.930176
0.939857
0.744963
0.543586
0.495839
0.622916
0.7109
0.714208
0.719386
0.634178
0.94805
0.948122
0.647606
0.208439
0.15892
0.158005
0.157955
0.157492
0.156738
0.155522
0.155491
0.155719
0.200447
0.698679
0.844733
0.872357
0.888709
0.9198
0.919891
0.920832
0.922959
0.859834
0.782478
0.941757
0.939192
0.79049
0.498731
0.477785
0.477676
0.47745
0.67586
0.905595
0.464406
0.438251
0.438251
0.438251
0.439184
0.442477
0.462336
0.46551
0.716447
0.89685
0.918083
0.892234
0.417445
0.200689
0.158005
0.192745
0.39616
0.335461
0.155719
0.187095
0.717493
0.926531
0.926523
0.92633
0.925568
0.796441
0.705248
0.705835
0.749564
0.712328
0.714005
0.813333
0.936383
0.954197
0.915409
0.755827
0.489332
0.47745
0.47745
0.820701
0.95191
0.690182
0.501759
0.649875
0.80548
0.817535
0.725852
0.765583
0.525934
0.405746
0.87683
0.935196
0.938964
0.944136
0.672493
0.422412
0.390271
0.465285
0.386895
0.448316
0.862136
0.92653
0.926538
0.926523
0.92633
0.841062
0.705272
0.705261
0.705281
0.711436
0.87348
0.880558
0.954197
0.954197
0.954197
0.954066
0.883272
0.76181
0.674339
0.824151
0.952534
0.956929
0.956929
0.956929
0.956929
0.956929
0.956929
0.821863
0.332201
0.323709
0.212566
0.811678
0.944136
0.945411
0.94823
0.949553
0.548591
0.31122
0.303172
0.470339
0.926143
0.926538
0.926523
0.92633
0.926046
0.926064
0.921863
0.923749
0.927994
0.928019
0.927402
0.870351
0.901896
0.930194
0.953951
0.953935
0.929153
0.941835
0.951635
0.951635
0.945366
0.956924
0.956929
0.956929
0.956929
0.956929
0.956928
0.59133
0.32374
0.323641
0.0771812
0.0784
0.447599
0.911015
0.951823
0.953047
0.95427
0.766671
0.296062
0.226304
0.383727
0.581902
0.598109
0.823746
0.893154
0.92629
0.927844
0.927934
0.928021
0.927858
0.894597
0.790877
0.788139
0.786033
0.779808
0.780476
0.740728
0.731731
0.731055
0.729243
0.729234
0.879417
0.95691
0.956929
0.956929
0.956929
0.956929
0.727819
0.323773
0.327617
0.0784104
0.0780607
0.0767388
0.225563
0.798247
0.95427
0.955525
0.95678
0.798205
0.186562
0.0765227
0.0706057
0.05979
0.0483756
0.0853887
0.482824
0.755508
0.888751
0.826188
0.832208
0.965889
0.966726
0.966793
0.966752
0.918866
0.732931
0.732293
0.731979
0.729347
0.729231
0.729234
0.802527
0.88299
0.956909
0.956929
0.956929
0.956929
0.930585
0.586804
0.777742
0.139046
0.109275
0.0766858
0.0767392
0.0833983
0.700585
0.95678
0.958404
0.960184
0.8389
0.201538
0.0486229
0.0483756
0.0483287
0.0483243
0.0483222
0.0483252
0.0559791
0.318833
0.637267
0.748161
0.926109
0.966963
0.966793
0.966751
0.920625
0.830287
0.897769
0.88169
0.879482
0.782623
0.66529
0.677018
0.850016
0.951286
0.956929
0.956929
0.956929
0.956927
0.956917
0.0758502
0.0758502
0.0762409
0.0769879
0.0773993
0.0774549
0.494411
0.93646
0.960338
0.96248
0.959
0.410151
0.052273
0.0483296
0.0483205
0.0483215
0.0483224
0.0483467
0.0486727
0.0610927
0.251868
0.715758
0.967059
0.966963
0.966781
0.960429
0.883788
0.897769
0.895544
0.786718
0.66529
0.665284
0.665278
0.666665
0.908261
0.956925
0.956929
0.956927
0.956917
0.95688
0.0825414
0.117746
0.125731
0.147623
0.0900649
0.0775471
0.0785044
0.221618
0.929231
0.96401
0.966216
0.96671
0.916585
0.290322
0.0483215
0.0483204
0.0483215
0.0483622
0.0791248
0.289245
0.555642
0.636016
0.967219
0.967125
0.966631
0.718624
0.294409
0.483578
0.67478
0.665011
0.705535
0.674126
0.665309
0.665302
0.902105
0.956812
0.956915
0.956872
0.927399
0.785376
0.842245
0.916775
0.90076
0.67339
0.180448
0.0785044
0.080132
0.0821377
0.0850556
0.467396
0.96671
0.96701
0.967265
0.967536
0.914309
0.727703
0.504173
0.512389
0.69746
0.856558
0.967598
0.967591
0.967564
0.967143
0.951524
0.417875
0.0920139
0.0904561
0.128374
0.125506
0.461675
0.686912
0.78032
0.953069
0.956307
0.956244
0.912741
0.774356
0.600699
0.550515
0.940857
0.958267
0.958725
0.958924
0.958973
0.669918
0.105694
0.0850556
0.0881382
0.089546
0.179471
0.861608
0.967536
0.967548
0.967562
0.96758
0.967512
0.967593
0.967606
0.967618
0.967636
0.967598
0.945916
0.961687
0.938693
0.434183
0.0904561
0.0888706
0.0888706
0.0888706
0.0889757
0.187381
0.713245
0.954768
0.956307
0.948641
0.657666
0.558935
0.557882
0.55754
0.959374
0.931381
0.950565
0.958973
0.959093
0.959118
0.95415
0.471222
0.089546
0.0965644
0.10389
0.119088
0.67616
0.96755
0.967579
0.967586
0.967592
0.967606
0.967617
0.967646
0.967679
0.963214
0.910521
0.910521
0.938869
0.927407
0.575477
0.184612
0.0888706
0.0889757
0.0891167
0.0892513
0.184142
0.693345
0.897815
0.943907
0.727184
0.601663
0.761324
0.901042
0.937201
0.905565
0.905565
0.916284
0.959042
0.959252
0.959282
0.959288
0.875562
0.272559
0.106103
0.103805
0.103154
0.314713
0.841053
0.967587
0.967586
0.967587
0.9676
0.967681
0.967687
0.967687
0.955593
0.910881
0.913656
0.912064
0.948551
0.943605
0.379959
0.106422
0.0892513
0.0897013
0.0911841
0.100352
0.548161
0.928689
0.964432
0.964432
0.964432
0.964432
0.959396
0.942002
0.905767
0.952448
0.959245
0.959283
0.959288
0.959288
0.959289
0.889148
0.309778
0.0860513
0.0776526
0.0758713
0.135355
0.206315
0.531371
0.946391
0.967594
0.967766
0.967689
0.967689
0.96769
0.96769
0.96769
0.948824
0.949257
0.967716
0.967759
0.940247
0.365089
0.200506
0.35021
0.421292
0.492309
0.898561
0.964427
0.964432
0.964432
0.964432
0.959396
0.959396
0.959396
0.959396
0.959357
0.959299
0.959289
0.959289
0.959289
0.766498
0.194692
0.0771302
0.0744694
0.0735276
0.0740394
0.0744942
0.0744479
0.11524
0.620804
0.968594
0.968294
0.96754
0.967689
0.9677
0.96769
0.967691
0.967716
0.967759
0.967779
0.967289
0.940511
0.895102
0.912928
0.885481
0.803747
0.834808
0.953964
0.964431
0.964432
0.963322
0.959394
0.959396
0.959396
0.95508
0.943015
0.958507
0.959285
0.959288
0.959289
0.498643
0.0797579
0.0745351
0.0733441
0.0737641
0.0741123
0.0740659
0.0740244
0.0740231
0.197534
0.831799
0.966826
0.967493
0.967723
0.96844
0.9677
0.967711
0.967756
0.967779
0.967779
0.967779
0.940655
0.96906
0.970464
0.942437
0.708168
0.694178
0.806457
0.96441
0.964427
0.957083
0.959363
0.959393
0.959396
0.928718
0.885645
0.885753
0.956106
0.959269
0.959278
0.893863
0.240101
0.0738328
0.073846
0.0741135
0.0740671
0.0740181
0.0739873
0.0739847
0.136437
0.763164
0.964555
0.967105
0.967498
0.967679
0.967995
0.967668
0.967514
0.967756
0.967779
0.967774
0.942887
0.965299
0.97087
0.970918
0.904795
0.693554
0.74133
0.957672
0.964391
0.957076
0.959276
0.95938
0.959393
0.95938
0.915063
0.870945
0.871147
0.882748
0.9566
0.95686
0.956606
0.501401
0.0738185
0.073913
0.0740181
0.0739873
0.073966
0.0739873
0.253497
0.868756
0.964324
0.966463
0.967015
0.967489
0.948071
0.87216
0.471434
0.506772
0.863651
0.967765
0.952249
0.970698
0.970918
0.970931
0.970919
0.737199
0.752154
0.95358
0.964411
0.959546
0.959259
0.959312
0.95938
0.959357
0.957638
0.95455
0.949939
0.792594
0.751091
0.917855
0.951596
0.94882
0.882039
0.306776
0.0740979
0.0739968
0.073966
0.175747
0.762346
0.960016
0.963382
0.964764
0.966425
0.90981
0.314263
0.0338732
0.0312644
0.0316737
0.415768
0.945071
0.96369
0.950778
0.947931
0.970918
0.970932
0.813951
0.753834
0.920485
0.964591
0.964599
0.959127
0.959259
0.951843
0.867148
0.696575
0.605241
0.599398
0.614742
0.748446
0.946744
0.948821
0.94882
0.94882
0.946861
0.490139
0.0756312
0.0741958
0.400821
0.931236
0.958703
0.96105
0.963375
0.900996
0.308443
0.0306613
0.0305308
0.0305257
0.0305727
0.165384
0.848774
0.969351
0.958932
0.943962
0.968477
0.97107
0.907276
0.75183
0.937567
0.964599
0.964601
0.91133
0.755839
0.407849
0.0349975
0.0312114
0.0303469
0.0300724
0.0302495
0.145246
0.736744
0.947732
0.94882
0.948273
0.947726
0.449481
0.102907
0.159001
0.701436
0.952165
0.95824
0.958701
0.621605
0.0513148
0.0306619
0.030531
0.0305269
0.030531
0.0305304
0.327367
0.920342
0.971509
0.946665
0.943974
0.963688
0.971205
0.966701
0.732383
0.931491
0.964601
0.964602
0.0333597
0.0319529
0.0319529
0.0318841
0.0368834
0.0300724
0.0299672
0.0300724
0.0302538
0.151607
0.766958
0.94723
0.947726
0.824055
0.489388
0.572995
0.862113
0.940282
0.943235
0.649996
0.102877
0.0794561
0.0741722
0.211058
0.194251
0.140598
0.2214
0.448928
0.833414
0.969062
0.97188
0.953084
0.950313
0.971381
0.971158
0.906788
0.721408
0.90788
0.964602
0.964602
0.0326113
0.0321436
0.031886
0.0506618
0.107222
0.0334672
0.0296365
0.0835299
0.140347
0.135883
0.202991
0.347148
0.337407
0.180273
0.368562
0.591516
0.425198
0.237964
0.233724
0.132111
0.115631
0.40949
0.882946
0.928059
0.887888
0.851909
0.897542
0.960445
0.971676
0.971881
0.971889
0.97188
0.97185
0.971396
0.950261
0.732783
0.721215
0.886276
0.964595
0.964602
0.0686441
0.0686441
0.0320692
0.10056
0.107222
0.0523369
0.0294114
0.0364285
0.082686
0.0408674
0.02955
0.0297544
0.030102
0.0306048
0.061664
0.0754359
0.0491645
0.061102
0.0715277
0.173439
0.764787
0.973863
0.973946
0.97386
0.973724
0.972314
0.971009
0.97165
0.971881
0.971889
0.971883
0.971889
0.971886
0.961885
0.804972
0.721215
0.721375
0.921904
0.964587
0.964595
0.0678377
0.0419891
0.0988305
0.12607
0.0833206
0.0294112
0.0294112
0.0294114
0.0294127
0.029419
0.0294454
0.0295497
0.0295309
0.0299972
0.0306001
0.031605
0.0360325
0.0950157
0.596424
0.91829
0.973918
0.973963
0.973992
0.973946
0.97386
0.972953
0.953401
0.960337
0.96373
0.971881
0.971632
0.971886
0.971885
0.970651
0.869789
0.84746
0.901571
0.964471
0.964587
0.964588
0.0755201
0.0304096
0.0302993
0.0299163
0.0294111
0.0294112
0.0294111
0.0294112
0.0294118
0.029414
0.029423
0.0294579
0.0295118
0.0297123
0.0314388
0.124625
0.663012
0.93549
0.973998
0.973992
0.973919
0.973974
0.974116
0.973992
0.97381
0.89276
0.73514
0.769374
0.945551
0.954338
0.874788
0.747575
0.758375
0.733692
0.659912
0.796618
0.944361
0.964583
0.964588
0.964588
0.0757333
0.0996782
0.12631
0.134473
0.0899949
0.0659917
0.0799122
0.0854285
0.029414
0.029423
0.0294582
0.0295919
0.0354423
0.390979
0.70744
0.904081
0.973659
0.974006
0.974006
0.974001
0.973962
0.974038
0.974178
0.966456
0.642224
0.472847
0.471315
0.46945
0.468408
0.45709
0.428375
0.421642
0.413575
0.408169
0.40822
0.445382
0.64387
0.934054
0.964588
0.964588
0.82231
0.947945
0.884948
0.771851
0.738487
0.747206
0.557035
0.212623
0.108286
0.273818
0.621197
0.784869
0.880063
0.944131
0.938663
0.888501
0.973962
0.974007
0.974008
0.974006
0.973905
0.973975
0.974143
0.97413
0.973416
0.966573
0.928406
0.611094
0.435818
0.435542
0.446286
0.516112
0.434439
0.408169
0.408152
0.40822
0.409227
0.708494
0.941789
0.910837
0.947954
0.947972
0.947945
0.946942
0.942247
0.743221
0.595864
0.803346
0.920884
0.949275
0.973885
0.973963
0.974018
0.974034
0.97391
0.959696
0.963045
0.974013
0.974011
0.974011
0.973975
0.97407
0.974101
0.939656
0.653057
0.527355
0.784605
0.93086
0.931578
0.931745
0.936075
0.945837
0.853424
0.573792
0.442707
0.492564
0.681363
0.812972
0.913789
0.906538
0.947954
0.947945
0.888666
0.753732
0.751404
0.747376
0.855433
0.973874
0.974059
0.974175
0.974092
0.974034
0.974038
0.974039
0.97404
0.974039
0.974011
0.974015
0.974015
0.974059
0.974013
0.973676
0.956809
0.614759
0.317696
0.323235
0.341949
0.463076
0.900745
0.970942
0.970945
0.970936
0.970913
0.963078
0.956494
0.956408
0.956259
0.956013
0.955929
0.9559
0.949941
0.935289
0.752344
0.753151
0.753693
0.77236
0.971302
0.974045
0.974165
0.974175
0.974167
0.97401
0.974004
0.97404
0.974041
0.97404
0.974039
0.97403
0.974065
0.974142
0.946594
0.78088
0.491154
0.278285
0.279543
0.413861
0.513398
0.46427
0.828805
0.970945
0.970948
0.970945
0.970936
0.970913
0.970842
0.959044
0.937291
0.935657
0.917155
0.914624
0.953392
0.830588
0.75207
0.752344
0.753183
0.845265
0.973883
0.973898
0.974045
0.974165
0.972243
0.972055
0.97208
0.973921
0.97404
0.974041
0.97404
0.974037
0.973996
0.973532
0.661599
0.276811
0.27673
0.276811
0.287036
0.764367
0.951956
0.95345
0.961479
0.970024
0.970947
0.970948
0.970937
0.970857
0.970294
0.811763
0.631913
0.631913
0.716168
0.729445
0.955329
0.790468
0.752036
0.75207
0.752671
0.843133
0.973885
0.973883
0.9739
0.974023
0.972407
0.972055
0.972055
0.973297
0.97404
0.97404
0.974037
0.974029
0.974
0.974019
0.891337
0.339439
0.276713
0.27673
0.277349
0.61678
0.911196
0.924433
0.930086
0.967665
0.923507
0.862739
0.970799
0.885609
0.776906
0.811419
0.71814
0.628714
0.612994
0.609271
0.956776
0.856909
0.75207
0.752017
0.75209
0.752959
0.913921
0.973884
0.973878
0.973879
0.973876
0.973871
0.973845
0.973764
0.971174
0.974036
0.971619
0.967362
0.973287
0.972783
0.955379
0.442929
0.276713
0.276709
0.27695
0.543213
0.892582
0.923268
0.809478
0.828819
0.75624
0.507748
0.507284
0.493136
0.177762
0.561616
0.918894
0.918894
0.918894
0.800336
0.957073
0.957064
0.943304
0.858905
0.752955
0.753196
0.79699
0.973878
0.973878
0.973876
0.973873
0.97385
0.973769
0.973583
0.95202
0.87756
0.821304
0.857897
0.878384
0.867329
0.562743
0.276713
0.276709
0.276713
0.312073
0.85775
0.923018
0.923018
0.917324
0.916062
0.913993
0.883087
0.518224
0.0833391
0.0156668
0.0101083
0.533335
0.918894
0.918477
0.916322
0.957085
0.957069
0.956985
0.956674
0.953403
0.930147
0.926998
0.951057
0.961103
0.95341
0.929465
0.87513
0.758035
0.618671
0.432271
0.295872
0.305994
0.339475
0.297405
0.323001
0.292556
0.276725
0.276713
0.276725
0.609656
0.921484
0.922777
0.923018
0.921545
0.912334
0.912676
0.904837
0.57443
0.0405893
0.00883706
0.00933498
0.0968266
0.677104
0.882698
0.912124
0.957076
0.944751
0.851006
0.773456
0.700817
0.610746
0.517515
0.457634
0.37396
0.306836
0.240795
0.168126
0.0736043
0.0244342
0.0211398
0.111539
0.276655
0.332518
0.243505
0.243375
0.243804
0.294277
0.299826
0.450242
0.856031
0.912118
0.912357
0.896539
0.789355
0.455845
0.387
0.439098
0.248659
0.0172165
0.00779432
0.00779432
0.00972053
0.0705611
0.241124
0.359748
0.626132
0.199663
0.0784085
0.0532782
0.0379602
0.0354282
0.0271384
0.00987779
0.000398504
0.00031264
0.000305472
0.00030379
0.000305376
0.000306395
0.000308828
0.00030977
0.00110465
0.120631
0.24596
0.262698
0.278309
0.271257
0.407769
0.526357
0.506147
0.437159
0.346732
0.244861
0.0741572
0.0107763
0.00877816
0.0369301
0.024824
0.00802008
0.00791636
0.00812135
0.00098949
2.36666e-05
2.53624e-05
2.56118e-05
0.255329
0.0326328
0.0323292
0.0303871
0.028941
0.0294649
0.0160146
0.018764
0.017813
0.00359208
0.000309669
0.000301284
0.000303337
0.000310537
0.000309527
0.000309872
0.000309877
0.00031488
0.0270071
0.101824
0.117673
0.111878
0.112421
0.0977935
0.00411548
0.00397823
0.00398282
0.00395625
0.00397626
0.0231832
0.00632745
0.00648549
0.00901793
0.0138206
0.0133505
0.012866
0.00169024
2.03607e-05
2.33911e-05
2.53624e-05
0.597967
0.0715122
0.0360106
0.124293
0.116863
0.053209
0.00630896
0.00380473
0.00440834
0.00241061
0.00032663
0.000300933
0.000308399
0.000309731
0.000309786
0.000309767
0.000309797
0.000309832
0.000309797
0.000310268
0.000312754
0.000313234
0.000334859
0.000892267
0.00440875
0.00404374
0.0039625
0.00658802
0.00948595
0.00697601
0.00618187
0.00625048
0.0137439
0.0138345
0.0114423
0.000393748
1.53099e-05
1.92424e-05
2.05058e-05
2.39196e-05
0.356799
0.128338
0.374442
0.416684
0.376102
0.0964357
0.00353291
0.00240755
0.000801233
0.000592833
0.000392608
0.000373576
0.000309154
0.0003094
0.000309731
0.000309709
0.000309767
0.000309797
0.000309792
0.00030988
0.000311498
0.000317912
0.0193328
0.0560363
0.0549602
0.0115931
0.00728979
0.0122924
0.0092694
0.000930413
0.0110365
0.0138716
0.0138628
0.0117674
0.00722038
0.000632384
1.12139e-05
3.85329e-05
7.35975e-05
6.60933e-05
0.356282
0.420457
0.420662
0.419708
0.411365
0.239363
0.0380548
0.0502767
0.0179429
0.0111514
0.00842618
0.000312605
0.000309968
0.000309589
0.000309591
0.000309731
0.000309731
0.000309864
0.000309792
0.00686908
0.000344759
0.0387687
0.0582029
0.056731
0.0565948
0.0373547
0.00946273
0.0126746
0.00606957
0.000296362
0.010841
0.0136366
0.00611965
0.0016483
6.86935e-06
6.83846e-06
1.09805e-05
7.39585e-05
0.000172709
0.00017234
0.401911
0.407004
0.311948
0.162163
0.0590995
0.0288494
0.0633082
0.0647531
0.0653231
0.0399125
0.0344146
0.01335
0.00068671
0.00587362
0.000946678
0.00449582
0.00508263
0.000311418
0.0486856
0.0668386
0.0668468
0.0667988
0.0594922
0.0141459
0.00156867
0.00744407
0.0132224
0.0130644
0.00673039
3.8013e-05
0.00215714
0.00162275
6.89303e-06
6.87034e-06
6.83846e-06
6.82242e-06
6.83846e-06
4.48511e-05
0.000135191
0.000172751
0.0100959
0.000169118
6.7269e-05
5.94163e-05
5.15658e-05
5.94372e-05
6.51543e-05
6.71731e-05
0.000520348
0.00851802
0.0267891
0.0400716
0.0410793
0.0410764
0.0388708
0.0372957
0.0404906
0.0522107
0.0540713
0.0557588
0.0295673
0.000680886
1.8465e-05
0.000134415
0.000203788
0.00771703
0.0132224
0.0132224
0.0037598
1.52784e-05
1.43612e-05
7.61811e-06
7.52319e-06
6.89303e-06
7.4576e-06
6.82242e-06
6.82242e-06
6.8673e-06
9.6583e-06
0.00013317
0.17135
0.00912848
0.000167691
6.44252e-05
4.28403e-05
0.000272312
0.00045801
6.51529e-05
5.82907e-05
5.8466e-05
6.27265e-05
7.13484e-05
0.00719991
0.0101891
0.0126887
0.0183778
0.0127382
0.00149512
3.59175e-06
3.59175e-06
3.67186e-06
4.00588e-06
4.22145e-06
2.58699e-05
0.00247159
0.0134646
0.0133293
0.011284
1.52785e-05
1.27737e-05
1.23971e-05
1.09017e-05
1.24928e-05
1.11965e-05
9.79523e-06
6.82242e-06
6.83729e-06
1.54105e-05
2.07493e-05
5.21696e-05
0.0908025
0.0155817
1.34725e-05
9.50959e-06
8.02952e-06
4.31207e-05
4.71956e-05
5.4873e-05
5.61677e-05
0.000198802
0.000676161
0.000118584
6.33968e-06
4.68024e-06
3.84644e-06
3.62482e-06
3.59472e-06
3.59175e-06
3.59152e-06
3.59175e-06
3.5916e-06
3.67166e-06
6.97139e-06
0.00015886
0.00901546
0.0135189
0.0134646
0.00609047
1.29494e-05
1.27486e-05
1.27737e-05
1.72027e-05
0.000124931
0.000167652
6.88647e-06
6.83729e-06
6.88647e-06
2.83893e-05
0.000436936
0.000482311
9.25651e-06
7.70429e-06
7.68685e-06
8.99654e-06
7.45481e-06
0.000115987
0.00116787
0.000405284
0.000371888
0.000840942
0.000827143
0.000129636
1.76527e-05
3.35693e-05
4.1752e-05
1.21143e-05
3.59612e-06
3.59228e-06
3.59175e-06
3.59161e-06
3.62301e-06
4.47036e-06
2.41593e-05
0.00357106
0.0136012
0.0135725
0.0132685
0.0011873
1.27486e-05
1.27486e-05
1.27486e-05
2.38022e-05
0.000480165
0.000622929
8.25531e-06
6.88647e-06
7.22608e-06
1.77226e-05
0.000776047
0.000775857
5.58833e-06
6.91021e-06
7.45525e-06
7.43876e-06
7.43876e-06
0.00209414
0.00175072
0.000332391
0.000845562
0.000846458
0.000265461
7.4261e-05
0.000198166
0.00043023
0.000305553
4.09631e-06
3.60494e-06
3.59612e-06
4.10112e-06
5.33651e-06
4.47055e-06
6.30956e-06
4.80242e-05
0.00721917
0.0136219
0.0136138
0.0133893
0.0012927
1.29234e-05
1.27486e-05
1.29234e-05
0.000238499
0.000630622
0.000630622
9.62337e-05
8.56566e-06
7.33283e-06
7.37786e-06
0.000720515
0.000776054
5.04089e-06
6.30928e-06
6.86887e-06
7.43876e-06
0.00171339
0.0029698
0.00128709
0.00033522
0.000846339
0.000497844
0.000104344
0.000191943
0.000438795