/*--------------------------------*- C++ -*----------------------------------*\
  =========                 |
  \\      /  F ield         | OpenFOAM: The Open Source CFD Toolbox
   \\    /   O peration     | Website:  https://openfoam.org
    \\  /    A nd           | Version:  8
     \\/     M anipulation  |
\*---------------------------------------------------------------------------*/
FoamFile
{
    version     2.0;
    format      ascii;
    class       volScalarField;
    location    "2.9";
    object      p_rgh;
}
// * * * * * * * * * * * * * * * * * * * * * * * * * * * * * * * * * * * * * //

dimensions      [1 -1 -2 0 0 0 0];

internalField   nonuniform List<scalar> 
9150
(
1962.77
1961.76
1961.18
1960.7
1960.45
1960.44
1960.68
1961.16
1961.76
1962.77
1962.35
1961.82
1961.41
1961.08
1960.91
1960.92
1961.08
1961.41
1961.82
1962.35
1962.08
1961.78
1961.54
1961.32
1961.2
1961.21
1961.31
1961.53
1961.78
1962.07
1961.96
1961.77
1961.61
1961.45
1961.37
1961.36
1961.45
1961.6
1961.77
1961.95
1961.96
1961.77
1961.63
1961.5
1961.44
1961.43
1961.51
1961.63
1961.77
1961.96
1951.25
1950.23
1950.34
1950.83
1950.97
1950.98
1950.83
1950.35
1950.24
1951.25
1955.06
1954.37
1954.13
1954.06
1954.16
1954.17
1954.08
1954.14
1954.37
1955.07
1958.14
1957.4
1957.08
1956.75
1956.68
1956.67
1956.71
1957.08
1957.37
1958.11
1960.85
1959.74
1959.33
1958.67
1958.51
1958.5
1958.65
1959.31
1959.71
1960.82
1963.58
1961.44
1960.7
1959.96
1959.72
1959.72
1959.98
1960.72
1961.45
1963.59
1946.55
1945.04
1943.37
1942.26
1941.61
1941.46
1941.81
1942.71
1944.66
1945.54
1945.48
1945.27
1944.26
1943.97
1943.54
1943.53
1943.96
1944.3
1945.25
1945.32
1945.24
1945.31
1944.25
1944.65
1944.14
1944.16
1944.62
1944.25
1945.24
1945.17
1942.04
1944.72
1943.61
1945.23
1944.93
1944.95
1945.21
1943.59
1944.69
1942.02
1934.95
1945.24
1945.42
1947.14
1947.41
1947.43
1947.13
1945.43
1945.23
1934.97
625.854
624.042
621.588
616.734
615.793
615.032
614.86
613.454
608.507
597.984
620.152
615.467
623.445
615.606
610.021
607.612
605.866
602.348
592.62
574.132
617.581
609.005
609.957
601.501
593.836
589.116
582.276
574.516
565.596
552.64
594.518
599.794
584.395
569.89
549.323
521.547
501.993
504.602
517.79
524.407
576.258
578.662
557.269
535.43
474.184
443.362
437.311
445.171
466.056
488.901
562.909
571.799
558.398
536.164
457.442
430.152
427.783
427.123
428.232
429.642
563.024
578.98
574.39
537.236
443.807
431.331
429.577
429.175
429.412
429.347
563.005
569.454
583.302
505.348
432.883
432.433
435.342
437.902
437.544
434.708
563.137
561.618
545.667
454.532
433.244
431.474
427.56
424.925
434.714
434.428
592.298
613.06
591.331
514.856
435.465
431.493
428.347
426.862
427.288
427.395
657.313
649.335
636.783
620.909
594.652
574.184
528.011
440.201
429.663
428.94
673.56
666.443
665.85
659.499
649.81
641.837
632.457
609.859
578.042
577.575
624.162
617.031
645.396
675.104
666.699
660.415
654.802
649.904
644.502
630.376
659.527
617.765
610.717
602.644
595.866
614.976
654.303
648.315
642.183
636.274
699.105
666.834
604.139
597.903
614
658.903
650.995
643.94
637.571
631.574
690.032
680.873
657.646
649.108
656.205
649.351
641.9
635.594
629.372
622.728
680.831
671.681
662.607
621.725
602.359
626.415
629.172
623.193
617.576
611.914
670.99
661.653
651.971
599.34
577.962
569.716
563.959
603.195
604.823
599.437
656.908
646.599
636.568
604.474
559.007
552.089
545.286
539.119
561.782
589.195
636.473
626.052
616.633
583.951
535.867
529.875
524.817
520.001
521.564
573.877
605.661
596.337
588.908
576.186
512.962
504.402
502.312
510.059
562.811
561.491
558.244
558.897
553.268
495.496
474.804
520.097
544.462
547.894
548.819
546.152
298.248
321.106
319.317
298.502
265.184
291.702
414.693
527.05
539.624
531.431
109.757
110.546
110.868
111.229
111.855
111.652
143.434
267.697
292.506
208.793
110.449
110.809
111.066
111.099
111.033
110.588
110.018
109.652
109.39
112.019
111.001
111.271
111.287
110.765
110.237
109.977
109.756
109.446
116.961
125.882
111.712
111.625
111.644
111.478
110.978
110.511
109.918
123.26
128.547
127.337
327.271
112.806
112.706
112.512
112.258
112.018
111.744
111.321
111.324
120.834
588.572
219.435
114.396
114.189
113.905
113.647
113.469
113.433
113.344
118.58
662.2
586.215
205.442
115.696
115.518
115.271
114.925
114.78
116.276
265.68
693.3
686.575
605.069
208.103
117.249
116.928
116.826
117.501
265.142
634.784
709.419
704.709
695.967
618.709
205.894
119.268
120.747
126.011
436.059
689.668
699.469
695.924
688.313
697.488
628.922
200.488
126.72
128.214
313.75
694.257
680.849
673.132
667.384
685.432
703.721
624.389
218.511
160.849
540.93
706.735
646.434
657.821
647.962
668.893
698.525
716.728
498.622
306.899
639.659
726.879
322.996
661.086
655.328
682.476
717.505
735.918
668.733
563.599
697.881
742.319
80.7101
472.856
712.849
758.235
784.793
790.553
788.872
783.566
773.111
761.343
16.7874
70.6014
520.058
801.276
868.676
876.602
847.997
823.88
800.962
781.121
6.88783
7.63306
40.4055
444.154
778.52
885.199
854.045
837.861
812.435
786.819
1.5932
1.96373
5.04859
118.616
475.822
556.952
651.937
805.869
801.804
651.958
-0.467696
-0.0930401
0.519201
158.904
459.561
413.164
421.908
636.711
789.555
672.335
0.260174
0.134015
0.695588
289.272
633.89
575.944
531.401
579.122
791.949
786.527
3.29107
2.34664
3.03447
329.451
668.409
657.018
235.317
391.468
644.665
627.877
7.40879
3.9206
3.59811
305.933
694.536
680.538
150.353
106.367
121.728
151.852
1.28381
0.852417
0.996793
198.448
698.142
731.187
397.537
108.589
106.298
308.367
0.677036
0.671311
0.59963
98.19
708.773
741.211
489.81
349.145
161.798
88.0411
0.707353
0.743588
0.723703
66.1073
722.452
731.493
115.017
158.925
264.845
260.773
0.704553
1.15852
0.852924
47.4272
741.985
750.233
64.337
156.742
265.555
190.943
2.03815
1.64221
0.616636
19.652
754.687
754.996
22.7901
87.8793
79.2462
9.87007
2.34037
1.28808
0.610147
3.58783
722.329
730.393
1.91368
0.291804
-0.0374318
-0.166709
1.19871
0.559653
0.528532
0.641857
686.775
685.393
0.0430297
0.141708
0.0290428
-0.063211
0.666004
0.555641
0.46943
0.474796
666.17
666.451
0.0464801
0.0496172
0.0382849
-0.0381921
0.55181
0.604699
0.447116
0.427008
677.204
662.359
0.0720636
0.0557767
0.0786473
0.0294509
0.461106
0.473392
0.428894
0.43764
703.637
708.503
0.0851656
0.0779813
0.0988034
0.120008
0.377649
0.389202
0.388303
0.401578
790.995
792.974
0.114888
0.114061
0.115325
0.192199
0.332213
0.482635
0.354873
0.947031
867.214
870.063
0.703245
0.147012
0.16476
0.259334
0.287532
0.555436
0.277969
18.8602
909.602
911.986
18.8997
0.169319
0.190412
0.317013
0.24039
0.50243
0.20617
45.7672
931.214
932.544
46.6217
0.189541
0.185674
0.284326
0.201161
0.41827
0.0985452
60.6727
967.581
926.499
61.036
0.233419
0.186018
0.162896
0.19069
0.746324
0.100923
64.9077
981.046
944.043
64.7951
0.175891
0.132667
0.110822
1.14637
0.790954
0.18063
61.8275
974.477
979.307
62.4759
0.0374129
0.108545
0.0411426
0.497396
0.356054
0.164255
51.3789
981.402
993.616
53.2467
-0.044166
0.0811286
0.00437765
0.170042
0.155924
0.129594
43.8191
1002.86
992.982
45.3047
-0.0724901
0.0423355
-0.024149
0.1832
0.418971
0.127681
41.892
1018.36
1007.77
42.7902
-0.10438
-0.00868587
-0.0699775
0.282198
0.481001
0.164903
43.2256
1044.45
1046.41
43.9063
-0.138432
-0.106817
-0.0515033
0.548999
0.497889
0.200725
55.5096
1085.93
1091.15
55.7459
-0.153848
-0.0966641
0.0461468
0.304541
0.18356
0.187851
76.4271
1130.28
1128.15
75.7634
-0.1533
-0.0171254
0.0423717
0.171766
0.176998
0.182373
93.1611
1158.59
1165.16
94.6937
-0.159713
0.0310122
0.0440644
0.169256
0.172178
0.176608
104.891
1184.82
1188.64
105.195
-0.151535
0.0405899
0.0556052
0.169207
0.169937
0.171246
112.801
1208.38
1208.81
112.581
-0.134454
0.00190485
0.0732485
0.178604
0.178114
0.178542
120.414
1231.08
1230.42
120.06
-0.117988
-0.0194431
0.0923886
0.184725
0.204536
0.188676
130.754
1255.01
1256.18
130.698
-0.107067
-0.0236853
0.111337
0.184035
0.223879
0.187913
146.846
1284.19
1285.59
146.85
-0.0979682
-0.0144535
-0.0255987
0.178101
0.216107
0.181229
170.193
1317.85
1318.79
169.893
-0.085643
0.0443961
-0.036235
0.168891
0.239211
0.169943
195.716
1350.48
1351.49
195.057
-0.0693037
0.0610063
0.0868968
0.157705
0.263569
0.156299
219.955
1380.44
1381.93
219.13
-0.0645358
0.0567943
0.0979733
0.147496
0.255422
0.144415
240.933
1407.82
1409.49
239.905
-0.0652934
0.0144185
0.101436
0.183847
0.24941
0.140271
257.859
1433.13
1434.77
256.8
-0.0640093
-0.0230102
0.103791
0.490333
0.209137
0.141672
272.693
1457.85
1459.08
271.762
-0.0656388
-0.0550587
0.0590896
0.482557
0.165048
0.13944
290.036
1483.85
1484.81
289.356
-0.07067
-0.0694643
-0.0704606
0.310946
0.137266
0.125896
318.8
1513.11
1514.89
318.666
-0.073297
-0.0711819
-0.0702194
0.120683
0.119088
0.11051
370.819
1547.37
1549.71
371.074
-0.075074
-0.0717075
-0.0704341
0.120928
0.11373
0.104938
440.578
1581.54
1585.88
441.974
-0.0777094
-0.0734857
-0.07044
0.12572
0.113253
0.102892
513.552
1613.14
1618.97
516.127
-0.0787079
-0.0738025
-0.0694008
0.119618
0.0982125
0.0974204
577.74
1642.48
1646.35
579.37
-0.0737352
-0.0696718
-0.0656893
0.0934359
0.0905789
0.0892406
633.657
1669.75
1670.28
634.387
-0.0649452
-0.0626206
-0.0517346
0.0851962
0.0848218
0.083495
700.852
1695.81
1694.45
701.991
-0.05811
-0.0555776
-0.0116213
0.0794541
0.0811391
0.0804692
815.122
1722.66
1718.6
816.926
-0.0538327
-0.049803
-0.034283
0.0762862
0.0782811
0.0780243
950.445
1746.72
1741.4
949.846
-0.0501296
-0.0441159
-0.037571
0.0692122
0.0675209
0.0680061
1019.21
1759.4
1768.63
1059.68
-0.0540876
-0.0395903
0.0379043
0.0561715
0.0515788
0.0525468
975.166
1775.8
1784.52
1256.5
-0.0270553
-0.0261558
0.0465713
0.0485587
0.0522073
0.0475343
1331
1799.93
1797.82
1276.2
7.30272
-0.0174572
0.0014421
0.0409544
0.0447532
144.074
1597.54
1818.1
1814.42
1244.09
-0.00604473
-0.0111182
-0.00259537
0.0336113
0.0335532
329.274
1701.95
1836.34
1833.2
1519.67
31.136
-0.00239425
0.0797757
0.0290529
0.0272111
580.641
1804.57
1854.52
1853.34
1654.81
242.388
-0.00614853
0.122458
0.0253103
0.0199738
899.191
1857.35
1873.41
1873.04
1828.36
609.492
-0.0199162
-0.0203811
0.0204425
0.0430263
1408.6
1892.05
1892.39
1892.04
1890.64
1098.6
-0.0136447
-0.0230811
0.00469827
308.685
1713.91
1909.72
1910.8
1911.31
1910.67
1644.96
110.785
-0.0176848
0.0157965
1218.31
1927.43
1927.32
1926.79
1926.72
1926.59
1920.74
1036.41
-0.0112741
654.494
1869.64
1938.89
1937.29
1936.74
1936.85
1937.73
1939.69
1891.73
670.299
580.924
558.635
539.342
529.15
524.331
521.155
516.524
510.281
504.977
506.582
517.086
530.335
550.203
559.452
574.592
581.459
579.858
582.761
583.726
583.724
585.169
585.476
582.851
591.184
575.131
577.356
580.543
585.722
592.392
598.344
598.223
595.921
594.403
594.118
595.966
597.601
597.398
604.797
617.596
623.782
543.882
516.042
503.784
500.825
498.773
495.508
490.92
485.378
481.625
482.977
488.476
495.425
521.175
548.793
567.046
573.751
575.744
578.424
582.543
586.761
588.883
589.935
582.269
576.612
571.031
564.663
578.086
581.065
588.168
589.016
577.568
578.757
579.827
580.833
585.496
586.817
583.297
584.082
596.666
604.991
522.382
501.247
497.145
496.594
495.68
494.448
491.551
487.353
484.664
484.942
489.29
512.68
534.726
549.056
559.992
569.532
574.161
577.99
582.284
580.584
582.421
587.797
590.124
580.19
570.113
569.13
568.106
569.404
577.382
604.449
572.263
576.918
581.363
584.892
586.084
586.305
584.645
581.434
589.87
607.879
526.503
528.346
502.687
494.626
493.914
493.913
508.902
496.687
489.38
490.101
528.485
551.508
561.172
565.972
570.642
567.846
568.51
570.882
575.194
576.582
578.195
583.539
595.972
599.43
593.92
581.623
567.417
568.587
571.189
591.122
609.236
582.715
580.891
587.781
599.857
601.215
596.457
600.388
577.508
575.006
509.075
530.233
545.747
551.434
526.965
512.221
514.684
517.43
504.575
510.092
551.009
561.834
567.975
572.531
576.164
572.57
569.032
572.518
576.262
578.53
590.741
591.717
599.673
600.523
601.005
601.567
593.308
581.911
580.39
588.361
603.635
605.637
607.814
612.295
616.264
619.293
622.481
608.865
565.323
565.964
443.992
515.633
544.126
551.52
561.64
570.431
525.496
500.292
496.952
503.965
561.115
563.882
567.373
569.535
572.121
576.334
580.466
585.202
591.33
597.409
599.249
593.188
594.356
597.892
603.574
606.73
603.085
604.463
607.157
606.321
606.115
610.273
613.268
616.875
620.583
623.701
627.259
588.555
563.388
564.477
429.025
430.176
478.355
545.183
562.935
569.223
572.227
546.645
482.842
475.053
482.994
510.597
510.565
538.427
551.62
564.992
573.787
578.118
583.073
589.387
588.346
579.979
584.217
586.908
591.573
593.099
587.041
584.999
583.968
584.3
585.482
604.624
619.422
623.363
626.303
628.698
631.124
605.465
563.279
563.482
427.763
429.52
431.312
455.511
545.497
573.774
579.075
580.017
554.596
459.76
445.28
442.43
439.457
436.766
440.622
498.229
544.234
566.285
558.275
562.022
584.145
594.014
602.034
610.95
609.294
587.189
587.097
584.877
582.652
583.315
584.886
597.721
614.864
629.101
631.146
632.92
634.045
631.591
592.361
615.946
435.386
434.053
433.474
438.296
443.373
548.912
593.564
594.939
591.048
564.371
459.359
436.507
434.641
433.705
432.683
432.044
431.749
432.356
470.761
524.564
546.553
579.821
597.54
606.51
613.304
609.154
592.804
605.704
603.839
604.835
588.739
578.404
584.11
613.101
632.885
636.912
639.431
641.764
643.883
645.998
428.122
431.053
435.669
440.651
444.78
447
525.17
606.219
610.013
605.305
599.412
496.219
433.439
432.776
432.586
431.71
431.103
430.835
431.332
433.962
462.452
543.878
598.612
604.277
608.183
608.685
593.487
603.732
611.009
589.76
568.834
575.201
581.886
584.352
629.132
643.16
646.46
648.789
650.657
652.161
430.463
439.451
445.44
456.021
447.605
447.779
445.699
469.573
613.481
615.058
614.421
614.046
603.704
475.478
430.411
429.941
429.669
429.363
434.554
473.276
522.129
538.465
605.911
609.741
609.768
558.276
484.402
520.341
566.079
566.798
581.147
581.422
586.239
591.289
639.231
654.936
657.132
658.257
651.551
623.448
599.008
622.362
622.523
571.793
461.195
437.788
436.073
431.969
424.917
502.353
607.91
608.875
608.614
610.566
605.889
566.633
516.94
517.648
554.681
586.87
611.819
613.198
617.163
622.628
623.098
507.17
445.571
446.226
454.562
455.213
529.705
586.274
614.722
664.521
669.65
670.047
660.398
631.115
595.275
588.024
636.468
638.95
637.457
635.683
633.214
558.51
416.851
405.855
399.997
391.032
402.581
558.264
575.826
575.027
577.111
579.493
584.012
586.493
591.848
597.127
603.005
610.275
613.321
625.787
628.984
517.368
445.177
447.33
448.097
448.416
448.985
473.803
605.334
672.519
677.979
679.462
613.05
594.153
595.235
595.142
631.743
621.599
623.6
623.016
619.699
614.96
603.45
472.803
366.435
357.7
345.672
333.983
470.48
542.833
543.197
547.717
553.419
560.503
567.69
576.413
587.069
598.947
599.281
611.426
630.349
641.119
563.388
469.866
448.251
449.409
450.169
451.442
476.802
612.829
669.784
687.764
631.436
609.106
645.486
687.705
619.286
606.166
600.816
597.272
603.939
598.229
591.203
585.939
550.336
358.84
300.645
288.754
280.147
331.588
475.164
515.071
521.372
531.865
546.552
561.748
577.637
594.544
606.489
606.233
620.893
640.231
671.868
683.988
528.714
456.121
452.009
453.326
456.374
460.122
578.571
688.44
704.631
707.036
709.964
712.447
615.7
603.679
588.521
593.401
588.917
581.659
573.287
563.8
552.266
516.45
327.21
254.591
252.874
249.057
263.733
283.342
379.6
516.707
540.857
556.641
571.767
587.377
606.334
625.359
644.18
660.232
680.896
700.459
711.145
704.787
528.022
482.652
523.87
547.827
571.75
692.189
718.12
721.616
724.404
725.538
605.76
598.856
591.516
584.153
576.981
569.819
562.022
553.208
541.716
467.402
276.535
243.104
248.014
249.135
247.561
247.549
248.445
262.137
423.809
551.334
570.25
588.977
609.89
631.514
653.944
675.181
696.658
716.396
722.329
719.506
710.346
697.185
708.418
702.679
678.173
689.86
733.092
739.415
741.338
742.311
593.804
587.859
581.584
574.104
564.957
564.996
559.914
552.893
544.689
383.399
245.111
248.428
251.579
252.868
253.127
252.617
252.076
251.795
293.011
511.283
571.565
590.458
612.344
637.869
664.441
691.373
709.189
722.558
731.875
743.626
744.147
753.206
756.147
747.974
667.581
668.444
704.681
760.249
761.411
759.515
584.103
578.5
572.883
557.349
541.497
538.495
561.036
561.08
560.355
537.069
308.776
253.76
255.216
255.922
256.216
255.807
254.616
253.815
275.355
496.649
577.322
595.271
615.037
634.885
656.154
680.496
710.838
718.744
736.172
750.512
747.417
768.341
782.764
781.981
755.163
691.429
704.248
780.853
782.624
779.457
571.998
566.972
560.879
558.797
541.591
525.425
529.417
537.836
567.778
575.346
582.44
415.458
257.656
257.687
256.702
256.564
256.619
255.958
322.895
549.716
589.931
603.088
618.701
631.467
629.629
600.95
458.219
482.38
642.722
718.243
743.987
776.21
790.797
798.416
800.16
717.351
722.72
793.586
797.892
795.923
557.588
549.709
540.709
537.999
541.147
547.423
554.314
497.231
483.241
554.87
584.097
594.899
577.286
350.182
257.684
258.021
257.989
298.489
534.088
614.491
622.621
627.377
631.206
613.08
382.327
274.28
274.702
282.464
439.462
680.811
731.091
756.774
777.477
800.867
807.407
748.45
729.878
790.089
809.014
809.498
541.795
533.911
520.014
473.153
398.517
359.44
357.233
370.263
439.145
542.057
562.927
581.933
600.354
615.879
430.806
260.394
261.276
386.304
624.455
642.233
656.693
665.539
643.125
384.403
267.633
267.708
269.112
271.65
330.822
635.884
727.488
752.609
768.743
796.675
808.563
787.465
732.111
804.465
816.936
817.186
513.701
439.453
281.533
118.103
114.402
113.124
113.667
115.724
165.022
429.881
545.973
565.516
579.993
598.232
391.768
266.031
291.157
532.235
666.241
673.041
675.261
518.931
284.8
277.937
273.385
270.258
270.54
271.917
401.197
685.563
739.618
750.995
771.583
796.449
810.004
812.65
726.94
804.733
820.546
820.61
115.696
115.51
115.365
114.947
114.444
108.173
107.969
109.503
110.951
165.886
456.136
554.463
571.583
525.579
388.522
441.787
591.696
650.321
667.396
545.305
313.589
310.059
302.563
356.038
343.667
319.712
355.397
459.047
644.381
730.43
753.993
763.983
779.281
802.049
810.026
785.132
715.786
792.628
819.686
820.221
112.206
113.7
112.757
121.272
151.292
111.034
109.955
134.239
164.507
156.177
184.637
259.164
259.528
191.928
284.64
413.916
335.124
266.366
296.473
287.777
298.432
440.424
676.088
699.707
674.68
652.889
678.058
717.531
736.501
752.496
768.312
782.349
794.507
804.504
800.626
705.42
705.893
779.344
818.963
820.891
129.587
130.474
113.356
146.834
150.607
118.991
108.201
110.87
135.387
110.295
103.555
104.568
108.104
111.574
128.616
145.2
150.168
171.296
191.44
257.22
577.278
697.833
706.697
713.548
718.74
723.947
732.243
744.741
757.89
770.722
782.387
792.76
801.711
803.958
729.092
697.125
699.641
798.542
822.22
825.395
126.794
115.352
143.623
162.42
140.385
111.904
110.514
108.972
107.258
106.08
106.24
107.656
109.711
112.293
115.414
120.417
130.715
170.403
439.323
625.063
676.898
693.92
706.568
716.913
726.012
734.874
735.05
751.718
767.805
783.747
791.747
799.314
806.91
814.162
762.009
755.145
788.334
825.029
828.16
831.658
135.718
109.978
109.559
109.428
110.015
110.465
110.551
110.233
110.269
110.137
110.502
111.332
111.754
111.751
114.201
166.161
461.963
630.519
667.395
680.39
691.641
703.618
715.735
726.338
735.659
702.429
632.675
661.295
768.334
782.342
742.759
681.506
694.312
688.703
653.46
731.131
817.061
831.655
835.213
837.9
139.381
151.489
164.618
168.937
144.072
130.329
137.623
141.411
110.603
110.65
110.485
110.827
114.806
309.177
487.391
610.168
659.707
669.452
678.743
689.13
700.956
713.261
726.004
734.984
567.2
488.227
499.453
508.899
515.27
515.01
506.105
510.332
513.531
516.914
522.449
546.081
657.558
823.06
845.334
846.777
578.445
654.215
610.411
540.284
521.083
529.344
412.934
214.765
156.308
247.873
449.12
540.209
594.439
636.413
638.43
617.727
672.953
680.318
688.35
697.726
707.934
718.786
729.85
742.757
759.076
774.114
767.944
587.637
498.412
504.178
517.104
565.508
526.014
519.614
527.6
534.551
539.155
709.823
846.288
829.628
671.117
667.095
663.387
660.382
655.166
530.747
447.836
561.767
629.801
649.842
666.386
666.924
668.082
670.284
672.768
669.61
677.769
690.19
696.698
703.832
710.287
716.697
728.958
723.211
567.38
506.017
663.243
767.447
781.767
795.086
811.566
828.944
781.533
623.043
556.943
590.243
702.874
783.033
846.217
844.474
686.777
678.88
637.543
552.382
549.158
543.961
608.013
680.179
678.742
678.804
678.886
678.897
680.146
682.14
684.079
687.247
691.051
696.365
703.659
713.218
721.499
730.583
733.459
535.24
363.638
378.583
397.337
475.847
757.085
819.116
835.292
847.942
858.442
863.12
866.618
875.047
881.988
885.398
887.661
888.729
700.749
683.578
562.629
559.494
556.894
566.267
692.229
691.953
690.58
689.998
690
690.279
691.464
693.468
695.385
697.632
701.428
706.879
715.447
725.78
718.675
620.513
446.55
320.554
328.349
419.491
495.578
477.501
711.735
822.997
842.88
857.125
868.253
877.875
891.468
890.847
876.575
876.326
865.643
862.332
708.799
621.523
568.567
565.706
563.155
621.273
703.821
701.423
700.129
699.517
698.194
698.386
699.255
701.973
703.45
704.152
705.382
709.677
718.421
730.226
538.58
298.318
302.569
307.671
319.88
648.538
796.911
812.952
835.455
858.897
876.397
888.371
896.331
905.922
909.603
797.711
685.999
687.369
740.262
748.871
720.359
603.916
575.148
571.033
567.21
625.419
711.8
709.588
708.965
709.157
708.102
707.926
708.637
710.868
712.455
712.326
712.689
716.334
724.841
738.81
697.998
331.69
291.902
295.474
300.45
542.052
771.993
812.109
843.711
895.09
885.759
850.328
888.338
761.125
663.708
707.536
677.417
642.28
645.102
647.996
734.612
657.442
580.321
575.104
570.685
568.1
676.502
717.079
717.537
718.31
719.222
720.074
720.887
720.88
718.79
719.281
717.872
719.989
732.771
744.35
746.103
390.246
276.788
279.005
284.037
479.513
748.406
801.642
747.635
787.699
758.68
591.071
523.4
372.624
116.008
378.478
704.042
763.417
792.746
723.944
749.821
739.33
721.357
654.148
575.058
572.286
599.294
726.883
725.549
724.719
724.055
723.402
721.654
717.365
696.24
636.322
603.576
641.472
664.431
665.423
451.593
250.45
254.757
257.425
287.004
686.191
753.964
771.63
785.321
799.707
796.058
741.261
410.206
66.8427
11.3185
9.54053
401.304
719.654
746.165
757.32
764.126
750.987
742.002
736.307
729.814
707.46
701.559
716.731
721.517
714.156
695.931
655.195
566.295
458.184
316.994
218.371
230.258
260.155
233.372
257.127
240.233
234.381
238.171
240.46
489.353
728.25
735.228
738.615
739.097
730.835
721.788
692.907
420.402
25.5732
5.96758
7.49346
73.0618
514.49
686.635
717.033
764.344
737.77
656.952
596.053
541.503
471.42
398.156
349.731
284.687
234.243
184.881
129.359
57.0127
19.5994
16.9173
83.9395
211.278
260.106
193.928
197.447
200.804
240.775
244.808
359.276
674.427
719.26
714.707
695.888
604.583
344.469
287.762
324.438
175.564
5.64453
4.11126
5.37205
6.11334
53.98
185.782
279.021
495.906
161.5
65.5751
42.6994
29.78
27.6699
20.6968
7.31914
0.704276
1.11406
1.10322
0.936058
0.797466
0.693253
0.695531
0.799668
1.54397
93.5748
193.124
209.185
222.406
217.34
324.151
419.508
396.542
341.338
271.649
189.333
54.785
4.52886
2.82403
23.3023
12.6193
1.64484
4.56836
6.00248
0.475188
-0.209957
-0.185589
-0.246969
206.689
32.0232
31.2127
27.4133
23.3174
22.3592
11.7543
13.9119
13.612
2.996
0.618728
0.645527
0.692862
0.767813
0.843541
0.904397
0.940774
0.809863
22.0562
83.2396
96.3694
90.6725
89.1501
74.9257
1.79418
2.02653
1.79822
1.18372
1.13185
16.8951
2.59169
2.36558
4.19623
8.4649
9.72732
10.0984
1.06483
-0.244119
-0.242634
-0.252753
496.32
74.9084
43.1928
106.508
96.1759
42.9941
4.42778
2.31621
2.90311
1.6745
0.328385
0.496969
0.63569
0.720021
0.748171
0.7899
0.835028
0.847449
0.860251
0.890165
0.905006
0.905264
0.874492
1.15385
3.51058
3.12146
2.83144
4.28354
5.89014
3.97955
3.50553
3.64569
9.78179
10.0578
8.47933
-0.173352
-0.36935
-0.336863
-0.30319
-0.287947
329.788
145.382
329.873
367.605
324.173
80.7948
2.76407
1.79277
0.526473
0.444796
0.424422
0.546279
0.604031
0.69437
0.771669
0.842739
0.891227
0.897437
0.899146
0.929938
0.94159
1.0311
16.0838
47.2499
47.9368
10.9766
6.7958
10.4586
7.24908
0.598355
8.37685
10.9728
11.2228
9.47768
5.64409
0.154266
-0.332425
-0.308365
-0.277904
-0.278802
344.446
391.558
381.975
374.646
361.851
206.272
31.6852
41.8425
14.7739
9.48986
7.53089
0.641104
0.702879
0.758354
0.820767
0.886495
0.916565
0.902336
0.872642
6.39261
0.720485
32.9866
49.9251
49.1519
49.1169
33.5243
9.39874
11.4273
5.0779
0.334471
8.96806
11.5116
4.85503
1.11126
-0.323604
-0.336177
-0.340387
-0.2997
-0.228482
-0.232121
358.759
361.602
277.319
143.056
51.9791
25.5058
56.3596
59.8577
59.4345
35.6845
30.543
11.7998
0.996976
5.53021
1.36369
4.50883
5.04218
0.976081
43.4287
60.0104
60.0216
58.8826
51.8287
11.8739
1.15913
6.01024
11.5617
11.2809
5.35698
-0.300556
1.448
1.00182
-0.426435
-0.41384
-0.397831
-0.38576
-0.389892
-0.367528
-0.303276
-0.27161
8.87183
0.409131
0.253408
0.226553
0.207249
0.21113
0.160216
0.0918169
0.517811
7.55474
23.9532
36.7041
38.5053
38.1925
35.7725
34.2012
37.2876
48.4693
49.8918
50.6484
26.3291
0.339407
-0.278314
-0.0978142
-0.0141964
6.31232
11.3372
11.2617
2.74616
-0.556829
-0.537695
-0.527401
-0.507733
-0.489585
-0.474754
-0.463143
-0.455473
-0.456775
-0.455815
-0.346946
153.499
8.09898
0.209934
0.109661
0.0895847
0.286215
0.388382
-0.0145631
0.0354576
0.055178
0.0893338
0.106501
6.58367
9.23881
11.5316
16.807
11.3756
1.11058
-0.298466
-0.310726
-0.325547
-0.318497
-0.323511
-0.292375
1.90429
11.8662
11.6399
9.61876
-0.66293
-0.659974
-0.666498
-0.663858
-0.643009
-0.610818
-0.582033
-0.5604
-0.538124
-0.516277
-0.498699
-0.463036
84.727
14.5264
0.0155934
-0.00287147
-0.0100776
0.0448949
0.0629863
0.0739554
0.0700458
0.170966
0.571577
0.00545033
-0.143878
-0.187603
-0.230735
-0.275236
-0.299917
-0.305971
-0.309131
-0.3101
-0.32202
-0.335947
-0.332147
-0.196032
8.01262
12.2471
11.929
4.93658
-0.735615
-0.747348
-0.772894
-0.792342
-0.680327
-0.592306
-0.700681
-0.660508
-0.620955
-0.573209
-0.16015
-0.102707
-0.277802
-0.123601
-0.0694446
-0.0697445
-0.0570452
0.098409
1.20132
0.47175
0.428373
0.834549
0.746509
0.0245745
-0.115024
-0.147485
-0.190103
-0.2594
-0.296084
-0.313912
-0.319798
-0.316599
-0.312364
-0.311684
-0.293931
3.07186
12.5897
12.3892
11.8476
0.328189
-0.803743
-0.820384
-0.845981
-0.863421
-0.423925
-0.235513
-0.785089
-0.72733
-0.66916
-0.618238
0.143756
0.164392
-0.194892
-0.214469
-0.189792
-0.14287
-0.0980838
2.03956
1.82032
0.435238
0.902571
0.84615
0.211126
-0.0113982
0.0558528
0.240545
0.061674
-0.272438
-0.295391
-0.308981
-0.314761
-0.311516
-0.305594
-0.297309
-0.254763
6.71926
12.879
12.7028
12.2221
0.422574
-0.833893
-0.843709
-0.861927
-0.669197
-0.283025
-0.247233
-0.708277
-0.725767
-0.664896
-0.621905
0.102936
0.182756
-0.134823
-0.183532
-0.204143
-0.201343
1.51843
2.97659
1.33268
0.415699
0.891561
0.485077
0.0714414
0.108877
0.303778
0.254351
0.0215256
-0.275327
-0.298273
-0.312134
-0.315566
-0.282573
-0.259565
-0.239998
-0.198066
5.31393
13.2002
13.09
12.9025
4.44821
-0.844884
-0.538709
-0.262045
-0.248431
-0.224653
-0.325095
-0.675808
-0.67101
-0.617209
-0.580709
0.00660862
0.226943
-0.0556216
0.157083
1.22919
2.93532
3.48189
3.05388
0.188083
0.560297
0.85624
0.432708
0.0507114
0.18003
0.308922
0.0972959
-0.236555
-0.269715
-0.294387
-0.307787
-0.289393
-0.250049
-0.23694
-0.234031
-0.163489
1.14009
9.66208
13.5711
13.4763
7.37149
-0.406118
-0.468543
-0.697878
-0.610184
-0.454266
-0.660506
-0.631263
-0.5875
-0.549811
-0.484203
0.197173
0.289708
0.0779572
2.45905
3.60734
3.62711
3.62801
2.39553
0.144239
0.620052
0.814743
0.746033
0.0252937
0.0457975
0.167774
-0.188784
-0.224549
-0.257964
-0.281757
-0.291825
-0.277188
-0.232071
-0.249691
-0.25077
-0.195913
-0.0800803
0.694823
5.91808
8.04491
3.19128
-0.0989735
-0.519036
-0.586241
-0.581679
-0.569147
-0.551322
-0.529365
-0.500303
-0.478464
-0.292753
0.337191
0.35534
0.128244
1.19921
3.6595
3.72032
3.69879
0.386384
0.11023
0.805067
0.803221
0.712461
0.0316947
0.0208571
-0.090871
-0.169522
-0.206065
-0.234426
-0.255811
-0.265111
-0.261682
-0.25086
-0.234956
-0.216351
-0.201633
-0.19979
-0.208688
-0.21542
-0.231711
-0.267443
-0.323916
-0.406395
-0.425794
-0.433002
-0.437358
-0.439647
-0.343938
-0.329727
-0.416366
-0.264735
0.391421
0.228242
0.317607
1.9312
3.25909
1.4715
1.55338
0.0862874
0.041494
0.614024
0.820564
0.748449
0.0420707
0.030168
0.0912596
-0.0424797
-0.123508
0.14489
-0.0567478
-0.241626
-0.234938
-0.222045
-0.202876
-0.180817
-0.161663
-0.15259
-0.155867
-0.162787
-0.183212
-0.222828
-0.258221
-0.288055
-0.300626
-0.327605
-0.346305
-0.347326
0.348008
0.0605954
-0.360712
-0.362137
0.21796
-0.119601
0.316668
2.25306
2.52227
2.34133
0.406876
0.128919
0.071241
0.0377604
0.561288
0.745454
0.310616
0.0131304
-0.000364976
0.0737767
0.175603
0.437394
0.432109
0.447386
-0.00663495
-0.215279
-0.168825
-0.136731
-0.129869
-0.114684
-0.111576
-0.120861
-0.144274
-0.157166
-0.134348
-0.12474
-0.176235
-0.269755
-0.290255
0.196703
0.425322
0.180375
-0.309329
-0.316766
-0.275694
-0.15692
0.331958
0.560353
0.701801
2.16956
2.21669
1.27416
0.102421
0.0637226
0.0207792
0.1685
0.301601
0.173991
-0.0589437
-0.115241
-0.24948
-0.296403
-0.142249
0.422004
0.495714
0.52964
0.566339
0.613822
0.400161
0.0230797
0.00764134
0.0947601
0.0780895
0.062112
0.110805
0.0927682
-0.0922417
-0.241913
-0.253153
0.460502
0.476635
0.138847
-0.26697
-0.27109
-0.273407
-0.249461
0.369309
0.319141
0.307785
0.498471
0.749124
1.34708
1.33841
1.13442
0.0821446
0.041092
0.00430044
-0.0568731
-0.177933
-0.281489
-0.332225
-0.358886
-0.369157
-0.360678
-0.340052
-0.313192
-0.0530947
0.565379
0.788831
0.811972
0.593176
0.0783542
-0.0401085
-0.0180432
0.120145
0.114066
0.0304464
-0.212515
-0.228336
0.181154
0.525981
0.211112
-0.225421
-0.229526
-0.232262
-0.223687
0.270158
0.347227
0.335231
0.227553
0.147545
0.265016
0.31247
0.464556
0.483564
0.426105
0.088738
-0.13153
-0.200395
-0.21443
-0.228134
-0.353377
-0.389518
-0.383642
-0.358344
-0.328279
-0.29934
-0.269942
-0.209016
0.532411
0.943223
0.959565
0.235333
-0.148285
-0.174423
0.0408702
-0.0952507
-0.204717
-0.209707
-0.188789
0.570762
0.25934
-0.187914
-0.194696
-0.194833
-0.16029
0.0922705
0.156199
0.28841
0.259501
0.0978813
0.0799733
0.066091
0.0343237
0.0808555
0.658837
0.594783
0.498925
0.207919