/*--------------------------------*- C++ -*----------------------------------*\
  =========                 |
  \\      /  F ield         | OpenFOAM: The Open Source CFD Toolbox
   \\    /   O peration     | Website:  https://openfoam.org
    \\  /    A nd           | Version:  8
     \\/     M anipulation  |
\*---------------------------------------------------------------------------*/
FoamFile
{
    version     2.0;
    format      ascii;
    class       surfaceScalarField;
    location    "2.9";
    object      phi;
}
// * * * * * * * * * * * * * * * * * * * * * * * * * * * * * * * * * * * * * //

dimensions      [0 3 -1 0 0 0 0];

internalField   nonuniform List<scalar> 
18095
(
1.95591e-08
-1.71978e-07
1.52419e-07
2.30587e-08
-1.98126e-07
1.94626e-07
1.944e-08
-2.05808e-07
2.09427e-07
1.05438e-08
-2.10975e-07
2.19871e-07
1.59847e-10
-2.13626e-07
2.2401e-07
-1.10702e-08
-2.13032e-07
2.24262e-07
-2.02055e-08
-2.10335e-07
2.1947e-07
-2.31442e-08
-2.05958e-07
2.08896e-07
-1.95512e-08
-1.98192e-07
1.94599e-07
-1.71971e-07
1.5242e-07
1.55135e-08
-1.87491e-07
1.57327e-08
-1.98345e-07
1.19641e-08
-2.0204e-07
5.84461e-09
-2.04855e-07
-1.05415e-09
-2.06727e-07
-7.0024e-09
-2.07083e-07
-1.20269e-08
-2.0531e-07
-1.57225e-08
-2.02262e-07
-1.55386e-08
-1.98376e-07
-1.87509e-07
6.85125e-09
-1.94343e-07
8.30355e-09
-1.99797e-07
7.29979e-09
-2.01036e-07
4.63608e-09
-2.02192e-07
6.36124e-10
-2.02727e-07
-3.52216e-09
-2.02925e-07
-6.95176e-09
-2.01881e-07
-8.29803e-09
-2.00916e-07
-6.85359e-09
-1.9982e-07
-1.94363e-07
4.56558e-09
-1.98908e-07
4.69372e-09
-1.99925e-07
3.57869e-09
-1.99921e-07
1.82124e-09
-2.00434e-07
-1.81401e-10
-2.00725e-07
-2.30103e-09
-2.00806e-07
-3.82169e-09
-2.0036e-07
-4.69935e-09
-2.00038e-07
-4.55299e-09
-1.99967e-07
-1.98916e-07
1.09191e-09
1.16651e-09
1.24556e-09
8.11354e-10
8.6637e-11
-7.18908e-10
-1.07884e-09
-1.11718e-09
-1.08398e-09
-2.64092e-08
-1.97047e-07
2.23456e-07
-2.88995e-08
-1.98842e-07
2.01332e-07
-2.39537e-08
-2.0169e-07
1.96744e-07
-1.26803e-08
-2.01307e-07
1.90034e-07
8.75775e-10
-2.0202e-07
1.88464e-07
1.40603e-08
-2.01547e-07
1.88363e-07
2.42292e-08
-2.00814e-07
1.90645e-07
2.86796e-08
-2.01238e-07
1.96788e-07
2.61105e-08
-1.98623e-07
2.01192e-07
-1.96872e-07
2.22983e-07
-9.90315e-09
-1.87143e-07
-1.53566e-08
-1.93388e-07
-1.45692e-08
-2.02477e-07
-7.54503e-09
-2.08332e-07
-8.17088e-10
-2.08748e-07
6.03534e-09
-2.084e-07
1.37136e-08
-2.08493e-07
1.52287e-08
-2.02753e-07
9.87395e-09
-1.93268e-07
-1.86998e-07
-1.09493e-08
-1.76194e-07
-8.87441e-09
-1.95463e-07
-6.03e-09
-2.05322e-07
-3.57572e-09
-2.10786e-07
7.3235e-10
-2.13056e-07
4.95915e-09
-2.12627e-07
6.21071e-09
-2.09744e-07
8.44112e-09
-2.04983e-07
1.06475e-08
-1.95474e-07
-1.76351e-07
-6.95666e-09
-1.69237e-07
-9.40018e-09
-1.9302e-07
-9.70808e-09
-2.05014e-07
-5.86481e-09
-2.14629e-07
-2.33346e-09
-2.16587e-07
1.98853e-09
-2.16949e-07
7.78646e-09
-2.15542e-07
8.61679e-09
-2.05814e-07
6.71911e-09
-1.93577e-07
-1.69631e-07
-1.68188e-08
-1.52121e-08
-1.07991e-08
-5.55713e-09
1.86567e-09
9.17873e-09
1.31067e-08
1.61894e-08
1.72118e-08
3.24873e-08
-1.57223e-07
1.24735e-07
3.4409e-08
-1.98735e-07
1.96813e-07
2.51696e-08
-2.11004e-07
2.20243e-07
8.88091e-09
-2.1543e-07
2.31719e-07
-8.27895e-09
-2.17309e-07
2.34469e-07
-2.43996e-08
-2.16956e-07
2.33077e-07
-3.52599e-08
-2.16179e-07
2.27039e-07
-3.92148e-08
-2.10467e-07
2.14422e-07
-2.9505e-08
-1.99071e-07
1.89361e-07
-1.57627e-07
1.28122e-07
1.71581e-08
-1.74381e-07
2.03772e-08
-2.01954e-07
1.68594e-08
-2.07486e-07
9.69348e-09
-2.08264e-07
7.16854e-10
-2.08332e-07
-8.01302e-09
-2.08226e-07
-1.50118e-08
-2.0918e-07
-1.83753e-08
-2.07104e-07
-1.61607e-08
-2.01285e-07
-1.73788e-07
1.03387e-08
-1.84719e-07
9.51853e-09
-2.01134e-07
7.69189e-09
-2.05659e-07
4.14351e-09
-2.04716e-07
5.67199e-10
-2.04756e-07
-3.24071e-09
-2.04418e-07
-8.14518e-09
-2.04276e-07
-9.87929e-09
-2.0537e-07
-1.02057e-08
-2.00959e-07
-1.83993e-07
7.4792e-09
-1.92199e-07
5.97809e-09
-1.99633e-07
6.07881e-09
-2.0576e-07
8.04938e-10
-1.99442e-07
-1.00955e-09
-2.02942e-07
-2.69462e-09
-2.02733e-07
-6.89724e-09
-2.00073e-07
-6.47736e-09
-2.0579e-07
-7.88405e-09
-1.99552e-07
-1.91877e-07
3.12572e-08
3.29564e-08
2.39406e-08
1.45328e-08
5.511e-11
-1.43153e-08
-2.37431e-08
-3.2745e-08
-3.11053e-08
-5.20535e-07
1.2505e-07
3.95485e-07
-6.24482e-07
1.03947e-07
-6.79714e-07
5.52315e-08
-6.74952e-07
-4.76129e-09
-6.37695e-07
-3.72573e-08
-5.7785e-07
-5.98453e-08
-4.98105e-07
-7.97443e-08
-3.92162e-07
-1.05943e-07
-2.58617e-07
-1.33545e-07
-1.48382e-07
-1.10236e-07
-5.143e-07
1.92345e-07
4.47005e-07
-5.83442e-07
1.73089e-07
-6.21195e-07
9.29843e-08
-6.57781e-07
3.18249e-08
-7.03074e-07
8.03527e-09
-7.12638e-07
-5.0281e-08
-6.65034e-07
-1.27349e-07
-5.84326e-07
-1.86651e-07
-4.81179e-07
-2.36691e-07
-2.634e-07
-3.66161e-07
-5.7857e-07
2.92134e-07
4.78782e-07
-6.62801e-07
2.5732e-07
-7.30924e-07
1.61107e-07
-8.10313e-07
1.11214e-07
-8.77307e-07
7.50292e-08
-8.99814e-07
-2.77741e-08
-9.12659e-07
-1.14503e-07
-9.10754e-07
-1.88556e-07
-8.92535e-07
-2.5491e-07
-2.89209e-07
-8.66727e-07
-5.15728e-07
3.76606e-07
4.31256e-07
-5.65491e-07
3.07083e-07
-6.29162e-07
2.24778e-07
-7.15902e-07
1.97954e-07
-8.11317e-07
1.70444e-07
-9.43713e-07
1.04622e-07
-1.06987e-06
1.16564e-08
-1.06467e-06
-1.93764e-07
-1.03451e-06
-2.85061e-07
-3.15393e-07
-1.00833e-06
-3.67613e-07
4.43471e-07
3.00747e-07
-3.94621e-07
3.34092e-07
-4.24361e-07
2.54518e-07
-4.68459e-07
2.42052e-07
-5.67183e-07
2.69168e-07
-7.73924e-07
3.11363e-07
-8.97957e-07
1.35689e-07
-9.28709e-07
-1.63011e-07
-9.59342e-07
-2.54428e-07
-2.63731e-07
-1.011e-06
-1.14539e-07
4.67942e-07
9.00681e-08
-1.16523e-07
3.36075e-07
-1.26785e-07
2.64781e-07
-1.58038e-07
2.73304e-07
-1.97552e-07
3.08682e-07
-2.63622e-07
3.77433e-07
-3.19483e-07
1.9155e-07
-4.05349e-07
-7.71457e-08
-5.21793e-07
-1.37983e-07
-1.57372e-07
-6.28152e-07
2.10177e-08
5.20629e-07
-7.37043e-08
-2.20807e-08
3.79174e-07
-5.15092e-08
2.9421e-07
-6.37833e-08
2.85578e-07
-7.53056e-08
3.20204e-07
-3.48952e-08
3.37022e-07
-8.53816e-08
2.42036e-07
-1.91188e-07
2.86603e-08
-2.7834e-07
-5.08297e-08
-8.85781e-08
-3.47134e-07
1.26388e-07
5.22954e-07
-1.28713e-07
7.60366e-08
4.29525e-07
1.94818e-08
3.50765e-07
-9.81324e-09
3.14873e-07
-2.91665e-08
3.39558e-07
-4.84748e-08
3.5633e-07
-7.73754e-08
2.70937e-07
-1.39464e-07
9.07488e-08
-2.13963e-07
2.36694e-08
-3.59854e-08
-2.66556e-07
2.28261e-07
4.68606e-07
-1.73913e-07
1.94651e-07
4.63135e-07
1.84147e-07
3.61268e-07
1.81577e-07
3.17443e-07
2.04547e-07
3.16588e-07
2.48885e-07
3.11991e-07
2.62842e-07
2.5698e-07
2.12059e-07
1.41532e-07
1.2866e-07
1.07068e-07
3.64635e-08
5.62108e-08
3.608e-07
3.84655e-07
-2.7685e-07
4.34009e-07
3.89927e-07
4.50682e-07
3.44595e-07
5.00905e-07
2.6722e-07
6.34514e-07
1.82978e-07
7.50554e-07
1.95951e-07
7.60729e-07
2.46805e-07
7.11309e-07
1.90953e-07
7.2165e-07
9.6727e-08
3.78175e-08
7.20296e-07
4.13081e-07
2.73926e-07
-3.02352e-07
5.28976e-07
2.74031e-07
6.35064e-07
2.38507e-07
7.35823e-07
1.6646e-07
7.76053e-07
1.42749e-07
8.19612e-07
1.52391e-07
9.1912e-07
1.47297e-07
1.00045e-06
1.09627e-07
1.07872e-06
1.8455e-08
-5.57863e-09
1.12211e-06
3.53906e-07
2.0015e-07
-2.8013e-07
4.61188e-07
1.6675e-07
5.87383e-07
1.12312e-07
6.93016e-07
6.08278e-08
7.83098e-07
5.26665e-08
8.74886e-07
6.06037e-08
9.53807e-07
6.83752e-08
1.00574e-06
5.76966e-08
1.00401e-06
2.01792e-08
-2.5228e-08
1.02366e-06
4.65685e-07
8.81305e-08
-3.53665e-07
5.54165e-07
7.82696e-08
6.16649e-07
4.98277e-08
6.49415e-07
2.80621e-08
6.87712e-07
1.43695e-08
7.51567e-07
-3.25146e-09
8.24386e-07
-4.44366e-09
8.9283e-07
-1.07474e-08
9.46644e-07
-3.36343e-08
-5.36062e-08
9.75022e-07
4.72337e-07
-7.8807e-09
-3.76326e-07
5.63093e-07
-1.24869e-08
6.29951e-07
-1.703e-08
6.71284e-07
-1.3271e-08
7.04316e-07
-1.86619e-08
7.35498e-07
-3.4434e-08
7.75176e-07
-4.41211e-08
8.13803e-07
-4.93749e-08
8.34922e-07
-5.4753e-08
-5.94902e-08
8.40806e-07
5.147e-07
-8.23243e-08
-4.40256e-07
5.88669e-07
-8.64563e-08
6.52054e-07
-8.04146e-08
6.86e-07
-4.72169e-08
7.05164e-07
-3.78265e-08
7.18223e-07
-4.74928e-08
7.29877e-07
-5.57751e-08
7.41844e-07
-6.1342e-08
7.56314e-07
-6.92225e-08
-7.81908e-08
7.75015e-07
5.13725e-07
-1.25685e-07
-4.70365e-07
5.43054e-07
-1.15785e-07
5.5331e-07
-9.06703e-08
5.69671e-07
-6.35779e-08
5.90534e-07
-5.86896e-08
6.1205e-07
-6.90088e-08
6.35709e-07
-7.94338e-08
6.6428e-07
-8.99136e-08
6.96894e-07
-1.01836e-07
-1.10861e-07
7.29564e-07
4.83241e-07
-1.50994e-07
-4.57932e-07
5.05336e-07
-1.3788e-07
5.23028e-07
-1.08362e-07
5.33038e-07
-7.35885e-08
5.40683e-07
-6.63344e-08
5.49394e-07
-7.77189e-08
5.61107e-07
-9.11472e-08
5.75076e-07
-1.03883e-07
5.88564e-07
-1.15324e-07
-1.23699e-07
6.01403e-07
5.40234e-07
-1.69786e-07
-5.21442e-07
5.56331e-07
-1.53977e-07
5.75366e-07
-1.27396e-07
5.96681e-07
-9.49037e-08
6.06987e-07
-7.66403e-08
6.01485e-07
-7.22162e-08
5.88689e-07
-7.83513e-08
5.76019e-07
-9.12134e-08
5.71121e-07
-1.10426e-07
-1.21471e-07
5.68893e-07
6.53777e-07
-1.99694e-07
-6.23869e-07
6.77655e-07
-1.77856e-07
6.98614e-07
-1.48355e-07
7.19287e-07
-1.15577e-07
7.31134e-07
-8.84864e-08
7.30749e-07
-7.18315e-08
7.13703e-07
-6.1305e-08
6.82825e-07
-6.03361e-08
6.50675e-07
-7.8276e-08
-9.12846e-08
6.20489e-07
7.0617e-07
-2.44035e-07
-6.61829e-07
7.49012e-07
-2.20698e-07
7.86789e-07
-1.86132e-07
8.15562e-07
-1.44349e-07
8.41006e-07
-1.1393e-07
8.56715e-07
-8.75406e-08
8.52623e-07
-5.72125e-08
8.36947e-07
-4.46607e-08
8.05499e-07
-4.68282e-08
-4.20394e-08
7.56254e-07
6.78451e-07
-2.71624e-07
-6.50862e-07
7.09767e-07
-2.52014e-07
7.47121e-07
-2.23486e-07
7.84046e-07
-1.81274e-07
8.15435e-07
-1.45319e-07
8.45427e-07
-1.17533e-07
8.59754e-07
-7.15392e-08
8.52177e-07
-3.70837e-08
8.28121e-07
-2.27719e-08
-9.28448e-09
7.95366e-07
5.60679e-07
-2.52597e-07
-5.79705e-07
5.8431e-07
-2.75645e-07
6.32659e-07
-2.71835e-07
6.55589e-07
-2.04204e-07
6.7518e-07
-1.64911e-07
7.27835e-07
-1.70188e-07
7.83494e-07
-1.27198e-07
8.12121e-07
-6.57106e-08
8.22979e-07
-3.36304e-08
-1.7445e-08
8.3114e-07
2.57346e-07
-1.76736e-07
-3.33207e-07
3.13138e-07
-3.31437e-07
3.97905e-07
-3.56603e-07
4.69743e-07
-2.76042e-07
4.78536e-07
-1.73703e-07
5.20705e-07
-2.12358e-07
5.93427e-07
-1.9992e-07
6.62867e-07
-1.3515e-07
7.45071e-07
-1.15835e-07
-6.46331e-08
7.92259e-07
-1.82937e-07
-2.31202e-07
2.37402e-07
-1.63766e-07
-3.50608e-07
-1.38761e-07
-3.81608e-07
-2.01615e-08
-3.94643e-07
1.92874e-07
-3.86738e-07
3.18763e-07
-3.38246e-07
4.22372e-07
-3.03528e-07
5.53366e-07
-2.66144e-07
6.73881e-07
-2.3635e-07
-9.31464e-08
7.02395e-07
-3.60554e-07
-4.13493e-07
5.42845e-07
-2.76976e-07
-4.34182e-07
-2.08965e-07
-4.49619e-07
-1.38539e-07
-4.65068e-07
-1.04214e-07
-4.21065e-07
-1.24797e-07
-3.17664e-07
-1.51113e-07
-2.77211e-07
-1.45874e-07
-2.71384e-07
-1.1669e-07
-2.65534e-07
-1.5368e-07
-5.61563e-08
-6.56148e-07
-4.59983e-07
7.02637e-07
-6.11952e-07
-4.78376e-07
-5.37319e-07
-5.24253e-07
-4.77766e-07
-5.24622e-07
-4.37444e-07
-4.61386e-07
-3.74497e-07
-3.80612e-07
-3.06321e-07
-3.45388e-07
-2.29929e-07
-3.47775e-07
-1.66986e-07
-3.28477e-07
-1.94027e-07
-1.26637e-07
-7.34754e-07
-4.54205e-07
7.28976e-07
-7.406e-07
-4.72529e-07
-7.27986e-07
-5.36865e-07
-7.16623e-07
-5.35986e-07
-6.93113e-07
-4.84896e-07
-6.26431e-07
-4.47292e-07
-5.28833e-07
-4.42986e-07
-4.65336e-07
-4.11272e-07
-4.51203e-07
-3.4261e-07
-2.10434e-07
-4.34796e-07
-7.49437e-07
-4.17689e-07
7.12921e-07
-7.92314e-07
-4.29652e-07
-8.75614e-07
-4.53565e-07
-9.28888e-07
-4.82712e-07
-9.74631e-07
-4.39153e-07
-1.01453e-06
-4.07389e-07
-1.05902e-06
-3.98499e-07
-1.10972e-06
-3.6057e-07
-1.18603e-06
-2.66305e-07
-1.42168e-07
-1.25429e-06
-6.69222e-07
-4.31028e-07
6.82561e-07
-7.1632e-07
-3.82553e-07
-7.7993e-07
-3.89955e-07
-8.7671e-07
-3.85932e-07
-9.24477e-07
-3.91386e-07
-9.53211e-07
-3.78656e-07
-9.80285e-07
-3.71425e-07
-1.00261e-06
-3.38244e-07
-1.011e-06
-2.57917e-07
-1.25899e-07
-1.02727e-06
-5.68725e-07
-5.39319e-07
6.77017e-07
-5.6282e-07
-3.88459e-07
-5.96463e-07
-3.56311e-07
-6.11234e-07
-3.71161e-07
-6.4353e-07
-3.59089e-07
-6.61036e-07
-3.6115e-07
-6.99261e-07
-3.332e-07
-7.72137e-07
-2.65369e-07
-8.85014e-07
-1.45038e-07
-6.41569e-08
-9.46756e-07
-5.09744e-07
-8.06405e-07
7.7683e-07
-4.57014e-07
-4.4119e-07
-4.88112e-07
-3.25212e-07
-5.56245e-07
-3.03029e-07
-5.91543e-07
-3.23791e-07
-6.56372e-07
-2.96322e-07
-7.03614e-07
-2.85957e-07
-8.15089e-07
-1.53894e-07
-9.25383e-07
-3.47427e-08
7.12573e-09
-9.96666e-07
-5.79781e-07
-1.07047e-06
8.43843e-07
-3.86525e-07
-6.34446e-07
-4.24027e-07
-2.87711e-07
-4.98072e-07
-2.28984e-07
-5.99686e-07
-2.22177e-07
-7.12328e-07
-1.8368e-07
-7.70037e-07
-2.28249e-07
-8.27749e-07
-9.61804e-08
-9.02326e-07
3.98344e-08
4.07869e-08
-9.35987e-07
-6.82102e-07
-1.18226e-06
7.93898e-07
-4.29057e-07
-8.8749e-07
-3.9424e-07
-3.22529e-07
-4.72582e-07
-1.50641e-07
-5.56421e-07
-1.38338e-07
-6.0234e-07
-1.37761e-07
-6.72203e-07
-1.58385e-07
-6.8191e-07
-8.6474e-08
-7.52522e-07
1.10445e-07
1.07016e-07
-8.18751e-07
-7.24943e-07
-1.23132e-06
7.73998e-07
-5.5931e-07
-1.05312e-06
-4.22397e-07
-4.59442e-07
-4.68152e-07
-1.04886e-07
-5.47936e-07
-5.85536e-08
-6.23674e-07
-6.20232e-08
-7.22108e-07
-5.99514e-08
-7.95846e-07
-1.27345e-08
-8.05337e-07
1.19937e-07
1.33054e-07
-8.31376e-07
-7.63453e-07
-1.2521e-06
7.84232e-07
-6.88577e-07
-1.128e-06
-5.3478e-07
-6.13239e-07
-5.29699e-07
-1.09968e-07
-5.61397e-07
-2.68557e-08
-6.08418e-07
-1.50025e-08
-6.63439e-07
-4.93032e-09
-7.42746e-07
6.6572e-08
-7.71641e-07
1.48832e-07
1.64902e-07
-8.03488e-07
-9.44391e-07
-1.16378e-06
8.56074e-07
-9.09575e-07
-1.16281e-06
-7.40584e-07
-7.8223e-07
-6.46423e-07
-2.04128e-07
-6.29399e-07
-4.38808e-08
-6.39404e-07
-4.9972e-09
-6.71807e-07
2.74724e-08
-7.20236e-07
1.15001e-07
-7.31254e-07
1.5985e-07
1.76328e-07
-7.4268e-07
-1.28607e-06
-1.11277e-06
1.23506e-06
-1.241e-06
-1.20789e-06
-1.00697e-06
-1.01626e-06
-6.94129e-07
-5.16969e-07
-5.92686e-07
-1.45324e-07
-5.74719e-07
-2.29641e-08
-5.78512e-07
3.12651e-08
-5.72695e-07
1.09184e-07
-5.69131e-07
1.56286e-07
1.75199e-07
-5.68003e-07
-1.40971e-06
-7.71583e-07
1.06853e-06
-1.45225e-06
-1.16535e-06
-1.26944e-06
-1.19907e-06
-7.9546e-07
-9.90951e-07
-3.90225e-07
-5.50559e-07
-3.03122e-07
-1.10068e-07
-3.95394e-07
1.23537e-07
-4.05152e-07
1.18941e-07
-4.18905e-07
1.7004e-07
1.87113e-07
-4.30819e-07
-1.31773e-06
-3.74505e-07
9.20657e-07
-1.46356e-06
-1.01952e-06
-1.33282e-06
-1.32981e-06
-9.67552e-07
-1.35622e-06
-4.14851e-07
-1.10326e-06
-1.21481e-09
-5.23704e-07
-1.2794e-07
2.50263e-07
-2.42179e-07
2.3318e-07
-3.02247e-07
2.30108e-07
2.58505e-07
-3.73639e-07
-6.71433e-07
-3.00508e-07
5.97438e-07
-7.13023e-07
-9.77931e-07
-7.145e-07
-1.32833e-06
-6.15221e-07
-1.4555e-06
-3.4892e-07
-1.36956e-06
8.98877e-08
-9.62512e-07
1.85144e-07
1.55006e-07
6.26392e-08
3.55686e-07
-4.58911e-08
3.38638e-07
3.60109e-07
-1.47495e-07
-4.10085e-07
-1.90273e-07
2.99849e-07
-3.3371e-07
-1.05431e-06
-2.53275e-07
-1.40877e-06
-2.17446e-07
-1.49133e-06
-1.48375e-07
-1.43863e-06
-2.71508e-08
-1.08374e-06
2.38615e-07
-1.1076e-07
2.31045e-07
3.63256e-07
1.67487e-07
4.02195e-07
3.82518e-07
1.45078e-07
-3.19408e-09
5.74632e-08
-2.44543e-07
-2.28583e-07
-8.2892e-07
-1.65075e-07
-1.47227e-06
-1.45089e-07
-1.51132e-06
-1.38359e-07
-1.44536e-06
-1.13303e-07
-1.10879e-06
4.22209e-08
-2.66284e-07
2.22748e-07
1.82729e-07
3.12008e-07
3.12936e-07
3.22353e-07
3.72173e-07
4.94296e-07
1.79225e-07
-6.1606e-07
-1.25467e-08
-3.22086e-07
-1.41792e-07
-1.34303e-06
-1.77925e-07
-1.47518e-06
-1.89894e-07
-1.43339e-06
-1.41979e-07
-1.15671e-06
-1.57782e-07
-2.50481e-07
6.48563e-08
-3.99092e-08
2.06718e-07
1.71074e-07
2.34115e-07
2.94956e-07
4.40528e-07
1.28026e-07
-3.89331e-07
1.73663e-08
1.01079e-07
-1.72588e-07
-1.15307e-06
-2.15713e-07
-1.43206e-06
-2.3325e-07
-1.41586e-06
-1.71786e-07
-1.21817e-06
-2.70032e-07
-1.52235e-07
-2.56704e-07
-5.32378e-08
-2.27189e-07
1.41558e-07
1.8218e-07
-1.75253e-07
-7.69002e-08
2.89102e-07
-8.41753e-08
-1.85752e-07
2.09916e-07
-2.83711e-07
-1.05512e-06
-2.79446e-07
-1.43632e-06
-2.63178e-07
-1.43212e-06
-1.67353e-07
-1.314e-06
-2.07126e-07
-1.12462e-07
-3.61594e-07
1.0123e-07
-4.55156e-07
2.35121e-07
8.36097e-08
-3.56586e-07
1.93579e-07
3.30293e-07
-2.34769e-07
1.78511e-07
2.25001e-07
-1.3959e-07
-7.37015e-07
-1.54205e-07
-1.4217e-06
-1.43639e-07
-1.44269e-06
-5.11851e-08
-1.40645e-06
2.56033e-07
-4.19679e-07
2.48843e-07
1.08419e-07
3.2332e-07
1.60644e-07
5.27308e-08
3.54199e-07
2.07919e-07
3.55977e-07
-2.33603e-07
2.30469e-07
2.02435e-07
-6.41682e-08
-4.42384e-07
-8.10223e-08
-1.40485e-06
-9.03012e-08
-1.43341e-06
-7.89026e-08
-1.41785e-06
4.25231e-07
-9.23813e-07
3.69142e-07
1.6451e-07
4.74997e-07
5.47896e-08
-1.18574e-09
5.28913e-07
1.18585e-07
4.07565e-07
-1.70168e-07
8.34657e-08
2.37565e-07
-1.50352e-08
-3.43872e-07
-2.50704e-08
-1.39481e-06
-3.27788e-08
-1.4257e-06
-2.94807e-08
-1.42115e-06
2.56079e-07
-1.20937e-06
1.12255e-07
3.08334e-07
1.06466e-07
6.05782e-08
-4.30458e-08
1.48326e-07
1.76782e-07
3.90013e-07
-1.59231e-07
7.79895e-08
3.36349e-07
3.25692e-08
-2.98453e-07
8.46007e-09
-1.37071e-06
1.60494e-09
-1.41885e-06
2.03019e-10
-1.41975e-06
2.56146e-07
-1.46531e-06
2.73014e-07
2.91465e-07
4.11331e-07
-7.77373e-08
-2.21649e-07
5.89937e-07
1.0896e-07
3.66873e-07
-8.58209e-08
4.58999e-08
3.99409e-07
6.85897e-08
-3.21143e-07
1.77242e-08
-1.31984e-06
-1.75815e-09
-1.39936e-06
-1.85244e-08
-1.40298e-06
-2.21516e-08
-1.46169e-06
5.80494e-07
-3.11181e-07
8.06195e-07
-3.03432e-07
-4.75774e-07
1.06032e-06
-1.17505e-07
3.75257e-07
1.09124e-07
-5.18183e-09
2.87077e-07
5.87364e-08
-3.85049e-07
1.81279e-08
-1.27922e-06
-1.09749e-09
-1.38014e-06
-2.31773e-08
-1.3809e-06
-1.46793e-07
-1.33807e-06
3.81331e-07
-8.39305e-07
6.10263e-07
-5.3237e-07
-3.81383e-07
5.15878e-07
-1.09766e-07
3.34457e-07
1.50566e-07
2.19557e-08
1.55354e-07
5.13108e-08
-4.14406e-07
2.42411e-08
-1.25216e-06
1.18453e-09
-1.35708e-06
-2.10739e-08
-1.35864e-06
-3.30652e-08
-1.32608e-06
4.81702e-08
-9.20536e-07
7.42873e-08
-5.58485e-07
-3.32221e-07
2.51274e-08
-1.07116e-08
2.78069e-07
6.71041e-08
5.17118e-08
9.29434e-08
5.29352e-08
-4.15627e-07
2.70864e-08
-1.22631e-06
2.24053e-09
-1.33223e-06
-2.4519e-08
-1.33188e-06
-3.85573e-08
-1.31204e-06
-5.69797e-08
-9.02115e-07
-9.02106e-08
-5.25251e-07
-3.01492e-07
-1.20939e-07
-1.83644e-08
2.43854e-07
5.25806e-08
3.6737e-08
3.78402e-08
3.01052e-08
-4.08998e-07
2.47837e-08
-1.22099e-06
1.30853e-09
-1.30876e-06
-2.25935e-08
-1.30798e-06
-4.62857e-08
-1.28834e-06
-9.27102e-08
-8.55687e-07
-9.50553e-08
-5.22904e-07
-3.15577e-07
-8.09691e-08
-7.70292e-08
1.75903e-07
1.44983e-07
2.20773e-09
-4.14036e-08
2.02392e-09
-4.08813e-07
1.86868e-08
-1.23766e-06
-6.70253e-10
-1.2894e-06
-1.97754e-08
-1.28888e-06
-3.02219e-08
-1.27789e-06
-7.4736e-08
-8.11174e-07
-1.08442e-07
-4.89195e-07
-3.0899e-07
-1.15029e-07
-2.01186e-08
1.0705e-07
8.89753e-08
-8.08993e-09
-5.34349e-08
-7.30856e-09
-4.09596e-07
1.51183e-08
-1.26009e-06
-5.55405e-10
-1.27373e-06
-1.68103e-08
-1.27263e-06
-1.56409e-08
-1.27906e-06
-4.05995e-08
-7.86215e-07
-8.2902e-08
-4.46888e-07
-2.91142e-07
-1.00752e-07
-9.46414e-09
7.14192e-08
4.50962e-08
-7.21828e-10
-6.21832e-08
7.59594e-09
-4.17908e-07
1.27267e-08
-1.26522e-06
-4.67142e-10
-1.26054e-06
-1.25673e-08
-1.26052e-06
-1.92586e-08
-1.27237e-06
-2.39109e-08
-7.81563e-07
-5.77121e-08
-4.13087e-07
-2.47658e-07
-1.01196e-07
3.3875e-08
8.88406e-08
-5.12945e-08
1.04438e-09
-2.9365e-08
1.26664e-08
-4.29529e-07
5.39534e-09
-1.25795e-06
-9.82903e-10
-1.25416e-06
-1.4318e-08
-1.24719e-06
-2.66387e-08
-1.26005e-06
-8.72157e-09
-7.99481e-07
-5.74024e-09
-4.16067e-07
-2.5155e-07
-1.84725e-09
1.03291e-07
1.4151e-07
-1.55968e-07
1.74346e-08
5.6498e-08
4.86278e-08
-4.60721e-07
3.66413e-08
-1.24596e-06
2.28934e-08
-1.24041e-06
1.77621e-08
-1.24206e-06
7.30351e-09
-1.24959e-06
3.69112e-08
-8.2909e-07
7.98278e-08
-4.58982e-07
-2.79978e-07
1.08256e-07
1.16254e-07
2.1098e-07
-1.85724e-07
8.20367e-09
1.64551e-07
4.47571e-08
-4.97277e-07
2.86926e-08
-1.22989e-06
1.85354e-08
-1.23025e-06
8.70344e-09
-1.23223e-06
-3.37911e-09
-1.2375e-06
2.45247e-08
-8.56994e-07
8.02813e-08
-5.14741e-07
-3.43696e-07
1.43998e-07
2.87469e-08
2.16227e-07
-3.39931e-08
-1.84692e-08
2.11769e-07
2.10442e-08
-5.36789e-07
8.10131e-09
-1.21695e-06
-3.26426e-09
-1.21889e-06
-1.52913e-08
-1.2202e-06
-2.90138e-08
-1.22378e-06
-4.11236e-10
-8.85598e-07
4.53584e-08
-5.60511e-07
-4.14469e-07
1.16133e-07
-1.63576e-07
1.82763e-07
1.97038e-07
-4.45424e-08
9.27331e-08
2.15556e-08
-6.02884e-07
8.34394e-09
-1.20374e-06
-4.97885e-09
-1.20556e-06
-2.20983e-08
-1.20308e-06
-3.56084e-08
-1.21027e-06
-9.77897e-09
-9.11428e-07
2.57366e-08
-5.96028e-07
-4.73449e-07
8.47164e-08
-1.19852e-07
1.32411e-07
1.70202e-07
3.42079e-08
-6.13213e-08
4.16841e-08
-6.10359e-07
2.8812e-08
-1.19087e-06
8.09838e-09
-1.18485e-06
-8.27012e-09
-1.18671e-06
-2.20866e-08
-1.19645e-06
-1.6543e-08
-9.16971e-07
6.07642e-09
-6.18652e-07
-5.20575e-07
5.32002e-08
1.33518e-08
9.2028e-08
2.70354e-08
3.40509e-08
-8.2018e-08
3.39254e-08
-6.10233e-07
2.09971e-08
-1.17794e-06
1.71877e-09
-1.16557e-06
-1.90534e-08
-1.16594e-06
-3.12149e-08
-1.18429e-06
-2.55664e-08
-9.22619e-07
-1.30787e-08
-6.31139e-07
-5.47473e-07
1.38189e-08
8.2135e-08
6.24064e-08
-5.2513e-08
4.69907e-08
-4.68763e-08
3.38834e-08
-5.97129e-07
1.88253e-08
-1.16288e-06
-3.54824e-10
-1.14639e-06
-2.07714e-08
-1.14552e-06
-3.57144e-08
-1.16935e-06
-3.71565e-08
-9.2118e-07
-2.91674e-08
-6.3913e-07
-5.54939e-07
-2.17008e-08
5.9004e-08
-3.66069e-08
4.00089e-08
4.92403e-08
-3.71099e-08
3.97735e-08
-5.87662e-07
2.13295e-08
-1.14444e-06
1.01255e-09
-1.12608e-06
-1.75706e-08
-1.12694e-06
-3.61616e-08
-1.15076e-06
-4.78942e-08
-9.09449e-07
-5.57589e-08
-6.31269e-07
-5.47152e-07
-6.35465e-08
-7.04637e-08
-4.53786e-08
7.92357e-08
-6.75671e-09
-1.00816e-07
3.53255e-08
-6.29744e-07
1.64071e-08
-1.12552e-06
-2.51177e-10
-1.10942e-06
-1.85942e-08
-1.1086e-06
-3.86107e-08
-1.13074e-06
-5.20247e-08
-8.96035e-07
-7.47707e-08
-6.08523e-07
-5.29403e-07
-9.252e-08
-2.99645e-08
-3.93753e-08
2.39598e-08
1.5156e-08
-1.45943e-07
3.13615e-08
-6.4595e-07
1.41745e-08
-1.10834e-06
-3.72637e-10
-1.09487e-06
-1.52151e-08
-1.09375e-06
-3.31476e-08
-1.11281e-06
-4.52349e-08
-8.83952e-07
-7.62357e-08
-5.77522e-07
-5.05282e-07
-1.00354e-07
2.80589e-08
-4.98877e-08
-1.75489e-08
3.0176e-08
-1.48063e-07
3.16503e-08
-6.47427e-07
1.67261e-08
-1.09341e-06
1.009e-09
-1.07915e-06
-1.47775e-08
-1.07797e-06
-3.04356e-08
-1.09715e-06
-4.58412e-08
-8.68548e-07
-8.226e-08
-5.41105e-07
-4.79117e-07
-1.08426e-07
5.52323e-08
-3.94432e-08
-6.56772e-08
3.85973e-08
-1.31428e-07
3.41423e-08
-6.42973e-07
1.79908e-08
-1.07726e-06
7.3342e-10
-1.0619e-06
-1.58635e-08
-1.06137e-06
-3.28209e-08
-1.0802e-06
-5.19761e-08
-8.49391e-07
-8.7817e-08
-5.05265e-07
-4.50282e-07
-1.16653e-07
1.13002e-07
2.07804e-08
-1.73226e-07
5.38891e-08
-7.23262e-08
3.58785e-08
-6.24964e-07
1.86529e-08
-1.06004e-06
7.31127e-10
-1.04397e-06
-1.75569e-08
-1.04308e-06
-3.55371e-08
-1.06222e-06
-5.62986e-08
-8.28629e-07
-8.39946e-08
-4.77567e-07
-4.19207e-07
-1.15071e-07
1.12735e-07
8.51032e-08
-1.77061e-07
4.96245e-08
-9.2275e-09
3.54139e-08
-6.10756e-07
1.76896e-08
-1.04231e-06
-1.00632e-09
-1.02528e-06
-1.99461e-08
-1.02414e-06
-3.81633e-08
-1.044e-06
-5.9572e-08
-8.07221e-07
-8.71571e-08
-4.49981e-07
-3.86142e-07
-1.20223e-07
8.38442e-08
1.43308e-07
-1.42052e-07
3.78101e-08
3.68069e-08
3.79818e-08
-6.10927e-07
2.01999e-08
-1.02453e-06
1.56831e-10
-1.00523e-06
-1.9758e-08
-1.00423e-06
-3.84992e-08
-1.02526e-06
-5.73883e-08
-7.88331e-07
-8.85816e-08
-4.18787e-07
-3.44344e-07
-1.3038e-07
6.84759e-08
1.9558e-07
-1.20749e-07
3.32712e-08
7.20152e-08
3.78785e-08
-6.15534e-07
1.96326e-08
-1.00628e-06
7.49248e-10
-9.86351e-07
-1.88937e-08
-9.84585e-07
-3.78013e-08
-1.00635e-06
-4.78639e-08
-7.78267e-07
-9.16338e-08
-3.75018e-07
-2.85436e-07
-1.5054e-07
5.19922e-08
2.37149e-07
-9.35595e-08
3.06891e-08
9.33193e-08
3.70226e-08
-6.21869e-07
1.87018e-08
-9.87963e-07
-2.35354e-10
-9.67414e-07
-1.85964e-08
-9.66224e-07
-3.84326e-08
-9.86513e-07
-6.70964e-08
-7.49603e-07
-1.28682e-07
-3.13433e-07
-2.44641e-07
-1.69475e-07
3.95941e-08
2.6208e-07
-6.45243e-08
3.23046e-08
1.00609e-07
3.77611e-08
-6.27325e-07
1.8385e-08
-9.68588e-07
-5.47239e-11
-9.48974e-07
-1.85653e-08
-9.47713e-07
-3.87298e-08
-9.66349e-07
-5.15671e-08
-7.36765e-07
-1.01438e-07
-2.63563e-07
-1.97588e-07
-1.4849e-07
3.59267e-08
2.79864e-07
-5.37121e-08
3.33378e-08
1.03197e-07
3.81494e-08
-6.32136e-07
1.89834e-08
-9.49422e-07
2.57896e-10
-9.30249e-07
-1.88201e-08
-9.28635e-07
-3.87115e-08
-9.46457e-07
-4.45094e-08
-7.30968e-07
-7.01318e-08
-2.37939e-07
-1.69887e-07
-9.78314e-08
4.32076e-08
2.89501e-07
-5.2845e-08
4.34939e-08
1.02905e-07
3.90765e-08
-6.27718e-07
1.99829e-08
-9.30327e-07
4.32624e-10
-9.10698e-07
-1.97047e-08
-9.08498e-07
-3.97004e-08
-9.26461e-07
-5.02494e-08
-7.20419e-07
-7.18452e-08
-2.16342e-07
-1.42123e-07
-9.96086e-08
3.1977e-08
2.77083e-07
-1.95593e-08
4.58536e-08
8.902e-08
4.06648e-08
-6.22531e-07
2.13406e-08
-9.11003e-07
3.24792e-11
-8.8939e-07
-2.10646e-08
-8.87401e-07
-4.11892e-08
-9.06337e-07
-5.33502e-08
-7.08258e-07
-7.19734e-08
-1.97719e-07
-1.18653e-07
-9.54437e-08
2.16406e-08
2.27714e-07
2.77284e-08
5.04195e-08
6.02399e-08
4.26837e-08
-6.14794e-07
2.23278e-08
-8.90648e-07
-4.66906e-10
-8.66595e-07
-2.25767e-08
-8.65291e-07
-4.25233e-08
-8.8639e-07
-4.39438e-08
-7.06837e-07
-3.79527e-08
-2.03711e-07
-9.71563e-08
-5.94518e-08
-1.27832e-08
1.78467e-07
6.203e-08
3.93478e-08
8.11131e-09
4.50163e-08
-6.20463e-07
2.39419e-08
-8.69574e-07
-6.73498e-10
-8.4198e-07
-2.4459e-08
-8.41505e-07
-4.57225e-08
-8.65127e-07
-5.36943e-08
-6.98866e-07
-5.08376e-08
-2.06569e-07
-9.56355e-08
-5.23601e-08
1.05264e-08
1.30856e-07
3.70841e-08
4.08316e-08
-2.21926e-08
4.71634e-08
-6.26798e-07
2.40114e-08
-8.46422e-07
6.3448e-10
-8.18603e-07
-2.41826e-08
-8.16688e-07
-4.69636e-08
-8.42346e-07
-5.53888e-08
-6.90441e-07
-5.09751e-08
-2.10985e-07
-1.04762e-07
-4.18508e-08
4.91447e-08
1.08849e-07
-2.71374e-08
5.46064e-08
-2.765e-08
4.81015e-08
-6.20295e-07
2.2562e-08
-8.20883e-07
-6.77762e-10
-7.95363e-07
-2.47134e-08
-7.92653e-07
-4.94369e-08
-8.17623e-07
-5.95683e-08
-6.80311e-07
-5.93927e-08
-2.11163e-07
-1.15687e-07
-4.84697e-08
6.6099e-08
1.03035e-07
-6.02865e-08
6.23859e-08
-2.39355e-08
5.06105e-08
-6.08519e-07
2.37458e-08
-7.94019e-07
-1.40261e-09
-7.70215e-07
-2.3002e-08
-7.71053e-07
-4.94307e-08
-7.91194e-07
-6.21536e-08
-6.67589e-07
-6.54535e-08
-2.07865e-07
-1.21434e-07
-5.97088e-08
6.89022e-08
9.805e-08
-6.39178e-08
6.6368e-08
-2.1408e-08
5.18348e-08
-5.93985e-07
2.51963e-08
-7.67381e-07
-1.05642e-09
-7.43962e-07
-2.33726e-08
-7.48737e-07
-4.9875e-08
-7.64691e-07
-6.66322e-08
-6.50834e-07
-7.24707e-08
-2.02029e-07
-1.22639e-07
-7.12664e-08
7.19607e-08
9.20672e-08
-6.59775e-08
6.9438e-08
-1.88935e-08
5.29781e-08
-5.77526e-07
2.64671e-08
-7.40871e-07
2.14542e-09
-7.19641e-07
-2.49561e-08
-7.21636e-07
-5.15979e-08
-7.38049e-07
-7.12292e-08
-6.31203e-07
-7.6328e-08
-1.96932e-07
-1.20928e-07
-7.80392e-08
7.82933e-08
8.86915e-08
-7.49182e-08
7.42674e-08
-1.48737e-08
5.71164e-08
-5.60376e-07
2.85022e-08
-7.12256e-07
4.34922e-09
-6.95488e-07
-2.8691e-08
-6.88595e-07
-5.75102e-08
-7.0923e-07
-7.69124e-08
-6.11802e-07
-7.91598e-08
-1.94684e-07
-1.19618e-07
-8.04703e-08
7.8919e-08
8.87741e-08
-7.90042e-08
7.69651e-08
-1.29244e-08
5.95931e-08
-5.43008e-07
2.94783e-08
-6.8214e-07
5.80726e-09
-6.71817e-07
-2.41443e-08
-6.58644e-07
-5.46718e-08
-6.78703e-07
-6.59796e-08
-6.00494e-07
-6.02528e-08
-2.00411e-07
-1.22136e-07
-5.77359e-08
6.57869e-08
9.19475e-08
-6.89621e-08
6.5641e-08
-1.27725e-08
4.80864e-08
-5.25453e-07
2.40083e-08
-6.58062e-07
-1.03158e-08
-6.37493e-07
-1.72733e-08
-6.51686e-07
-3.80268e-08
-6.5795e-07
-6.53402e-08
-5.7318e-07
-5.30595e-08
-2.12692e-07
-1.35879e-07
-3.9317e-08
2.96402e-08
1.03576e-07
-4.12679e-08
3.41233e-08
-1.72438e-08
9.47079e-09
-5.00794e-07
-2.31535e-08
-6.25436e-07
-3.89585e-08
-6.21687e-07
-7.49492e-08
-6.15696e-07
-9.94908e-08
-6.33408e-07
-1.02656e-07
-5.70014e-07
-7.40073e-08
-2.41342e-07
-1.57866e-07
-5.20212e-08
3.71577e-08
1.04256e-07
-3.7835e-08
9.10086e-08
-7.10876e-08
9.84227e-08
-5.08206e-07
7.08579e-08
-5.97871e-07
5.51473e-08
-6.05977e-07
1.84256e-08
-5.78974e-07
-1.99469e-08
-5.95036e-07
-2.55118e-08
-5.6445e-07
-4.48019e-08
-2.22053e-07
-1.52001e-07
-5.06672e-08
2.77939e-08
1.03182e-07
-2.67142e-08
1.02693e-07
-1.45979e-07
1.45401e-07
-5.50916e-07
1.21706e-07
-5.74176e-07
6.95381e-08
-5.53809e-07
5.26796e-08
-5.62115e-07
9.86643e-09
-5.52223e-07
-3.44685e-08
-5.20116e-07
-7.0679e-08
-1.85843e-07
-1.25307e-07
-9.73738e-08
4.51626e-08
1.01948e-07
-4.39277e-08
1.04452e-07
-2.05267e-07
8.04986e-08
-5.2696e-07
3.31778e-08
-5.26855e-07
5.59009e-09
-5.26221e-07
-2.74486e-08
-5.29077e-07
-5.60022e-08
-5.23669e-07
-7.3809e-08
-5.02309e-07
-7.6977e-08
-1.82676e-07
-1.02536e-07
-9.97485e-08
9.35191e-08
9.18842e-08
-8.34569e-08
1.22979e-07
-2.34749e-07
8.16738e-08
-4.85657e-07
5.32289e-08
-4.9841e-07
1.73284e-08
-4.9032e-07
-2.18288e-08
-4.8992e-07
-6.03086e-08
-4.8519e-07
-6.44836e-08
-4.98134e-07
-8.46283e-08
-1.62531e-07
-5.42327e-08
-1.32932e-07
1.10255e-07
7.0719e-08
-8.90905e-08
1.08966e-07
-2.33455e-07
5.99093e-08
-4.36602e-07
8.3977e-09
-4.46899e-07
-3.00644e-08
-4.51858e-07
-6.62799e-08
-4.53704e-07
-1.03587e-07
-4.47883e-07
-1.64217e-07
-4.37504e-07
-1.49764e-07
-1.76985e-07
-3.07942e-08
-1.73203e-07
1.39276e-07
1.90422e-08
-8.76006e-08
1.40102e-07
-2.34273e-07
9.50635e-08
-3.9156e-07
5.74246e-08
-4.0926e-07
1.43471e-08
-4.08781e-07
-3.48609e-08
-4.04496e-07
-8.64744e-08
-3.96269e-07
-1.43381e-07
-3.80598e-07
-8.83991e-08
-2.31967e-07
-7.0748e-08
-4.84469e-08
1.86086e-08
-3.53392e-08
3.57728e-08
1.12448e-07
-3.28125e-07
6.70643e-08
-3.46176e-07
8.37451e-09
-3.5057e-07
-3.73069e-08
-3.63099e-07
-7.48441e-08
-3.66959e-07
-1.08856e-07
-3.62258e-07
-1.49967e-07
-3.39487e-07
-9.74886e-08
-2.84445e-07
-1.27632e-07
-4.06052e-08
2.00531e-07
-9.03633e-08
-1.45504e-07
1.49009e-07
-2.76609e-07
1.04006e-07
-3.01173e-07
6.7639e-08
-3.14203e-07
2.00859e-08
-3.15546e-07
-3.36196e-08