/*--------------------------------*- C++ -*----------------------------------*\
  =========                 |
  \\      /  F ield         | OpenFOAM: The Open Source CFD Toolbox
   \\    /   O peration     | Website:  https://openfoam.org
    \\  /    A nd           | Version:  8
     \\/     M anipulation  |
\*---------------------------------------------------------------------------*/
FoamFile
{
    version     2.0;
    format      ascii;
    class       surfaceScalarField;
    location    "4.5";
    object      phi;
}
// * * * * * * * * * * * * * * * * * * * * * * * * * * * * * * * * * * * * * //

dimensions      [0 3 -1 0 0 0 0];

internalField   nonuniform List<scalar> 
18095
(
1.97233e-08
-1.71999e-07
1.52276e-07
2.31687e-08
-1.97992e-07
1.94547e-07
1.95517e-08
-2.0561e-07
2.09227e-07
9.71716e-09
-2.10139e-07
2.19974e-07
-1.91581e-09
-2.13298e-07
2.24931e-07
-1.26437e-08
-2.13572e-07
2.243e-07
-2.04775e-08
-2.11349e-07
2.19183e-07
-2.32425e-08
-2.06231e-07
2.08996e-07
-1.97305e-08
-1.97892e-07
1.9438e-07
-1.71917e-07
1.52186e-07
1.55466e-08
-1.87546e-07
1.58484e-08
-1.98294e-07
1.24359e-08
-2.02198e-07
7.4137e-09
-2.05117e-07
1.02382e-09
-2.06908e-07
-5.70282e-09
-2.06846e-07
-1.16805e-08
-2.05371e-07
-1.59177e-08
-2.01994e-07
-1.55899e-08
-1.9822e-07
-1.87506e-07
6.8334e-09
-1.94379e-07
8.32152e-09
-1.99782e-07
7.08503e-09
-2.00961e-07
4.03928e-09
-2.02071e-07
-1.68593e-10
-2.02701e-07
-4.32268e-09
-2.02692e-07
-7.40676e-09
-2.02287e-07
-8.41522e-09
-2.00986e-07
-6.85216e-09
-1.99783e-07
-1.94359e-07
4.54407e-09
-1.98923e-07
4.72067e-09
-1.99959e-07
3.68805e-09
-1.99929e-07
1.99351e-09
-2.00377e-07
3.13506e-11
-2.00738e-07
-1.85206e-09
-2.00808e-07
-3.63872e-09
-2.005e-07
-4.71612e-09
-1.99908e-07
-4.55827e-09
-1.99941e-07
-1.98917e-07
1.07675e-09
1.11825e-09
1.18971e-09
8.12914e-10
7.44572e-11
-7.33644e-10
-1.23398e-09
-1.1421e-09
-1.08312e-09
-2.68559e-08
-1.96286e-07
2.23141e-07
-2.95149e-08
-1.98659e-07
2.01318e-07
-2.50473e-08
-2.00626e-07
1.96158e-07
-1.49105e-08
-2.00766e-07
1.90629e-07
-1.32777e-09
-2.01802e-07
1.88219e-07
1.25512e-08
-2.01977e-07
1.88098e-07
2.43471e-08
-2.01844e-07
1.90048e-07
2.98552e-08
-2.01918e-07
1.9641e-07
2.75526e-08
-1.99236e-07
2.01538e-07
-1.96887e-07
2.2444e-07
-9.65203e-09
-1.86634e-07
-1.51958e-08
-1.93115e-07
-1.29334e-08
-2.02889e-07
-5.28062e-09
-2.08418e-07
1.30897e-09
-2.08392e-07
7.89799e-09
-2.08566e-07
1.44655e-08
-2.08411e-07
1.54748e-08
-2.02927e-07
9.80663e-09
-1.93567e-07
-1.87081e-07
-1.05834e-08
-1.7605e-07
-8.55786e-09
-1.9514e-07
-6.56269e-09
-2.04884e-07
-4.52427e-09
-2.10457e-07
7.90496e-11
-2.12995e-07
4.39819e-09
-2.12886e-07
6.0702e-09
-2.10083e-07
8.41143e-09
-2.05268e-07
1.06343e-08
-1.9579e-07
-1.76447e-07
-6.42874e-09
-1.69621e-07
-8.20185e-09
-1.93367e-07
-7.96281e-09
-2.05123e-07
-3.87268e-09
-2.14547e-07
-4.52177e-10
-2.16416e-07
3.49812e-09
-2.16836e-07
8.90496e-09
-2.1549e-07
9.32802e-09
-2.05691e-07
6.88184e-09
-1.93344e-07
-1.69565e-07
-1.73455e-08
-1.61662e-08
-1.20618e-08
-6.6349e-09
1.88082e-09
9.34508e-09
1.30376e-08
1.63424e-08
1.73787e-08
3.89421e-08
-1.53884e-07
1.14942e-07
4.49743e-08
-1.95737e-07
1.89705e-07
3.85624e-08
-2.08798e-07
2.1521e-07
2.86887e-08
-2.14824e-07
2.24698e-07
1.35478e-08
-2.17023e-07
2.32164e-07
-3.18347e-09
-2.17991e-07
2.34722e-07
-1.94327e-08
-2.1651e-07
2.32759e-07
-2.89204e-08
-2.11898e-07
2.21386e-07
-2.53972e-08
-2.01293e-07
1.9777e-07
-1.6204e-07
1.36643e-07
1.84063e-08
-1.72291e-07
2.16899e-08
-1.99021e-07
1.80606e-08
-2.05169e-07
1.15322e-08
-2.08296e-07
2.13991e-09
-2.07631e-07
-6.89595e-09
-2.08955e-07
-1.32931e-08
-2.10113e-07
-1.64386e-08
-2.08753e-07
-1.41487e-08
-2.03583e-07
-1.76189e-07
1.06091e-08
-1.829e-07
1.1349e-08
-1.99761e-07
1.08296e-08
-2.04649e-07
8.53105e-09
-2.05997e-07
5.25342e-09
-2.04353e-07
9.30251e-10
-2.04632e-07
-4.98772e-09
-2.04195e-07
-7.43915e-09
-2.06301e-07
-9.05551e-09
-2.01967e-07
-1.85244e-07
7.8297e-09
-1.90729e-07
7.14383e-09
-1.99075e-07
7.96735e-09
-2.05473e-07
2.28239e-09
-2.00312e-07
4.05052e-10
-2.02476e-07
-8.72325e-10
-2.03355e-07
-5.4071e-09
-1.9966e-07
-4.82976e-09
-2.06879e-07
-6.82575e-09
-1.99971e-07
-1.9207e-07
3.24121e-08
3.46546e-08
2.53403e-08
1.56568e-08
1.4001e-09
-1.38561e-08
-2.34684e-08
-3.39374e-08
-3.23702e-08
6.38366e-08
1.25483e-08
-7.63849e-08
6.36089e-08
2.27447e-10
7.59387e-08
-1.23297e-08
7.77136e-08
-1.77498e-09
6.85183e-08
9.19542e-09
4.98402e-08
1.86779e-08
1.65604e-08
3.32799e-08
-1.30816e-08
2.9642e-08
-3.37508e-08
2.06691e-08
3.60556e-08
-6.98063e-08
1.21232e-07
6.00046e-08
-1.68688e-07
1.06363e-07
1.50963e-08
9.56324e-08
-1.59887e-09
8.93191e-08
4.53852e-09
8.42426e-08
1.42719e-08
7.30996e-08
2.98207e-08
4.85734e-08
5.78062e-08
6.06561e-09
7.21498e-08
-3.62893e-08
6.30241e-08
8.21187e-08
-8.23523e-08
2.30538e-07
1.00098e-07
-2.70631e-07
1.82812e-07
6.28224e-08
1.61297e-07
1.99161e-08
1.53653e-07
1.21831e-08
1.48167e-07
1.97578e-08
1.35709e-07
4.22784e-08
1.17461e-07
7.60537e-08
8.76829e-08
1.01928e-07
3.87305e-08
1.11976e-07
1.25366e-07
-4.51661e-09
2.62529e-07
1.1109e-07
-2.73522e-07
2.34988e-07
9.03639e-08
2.1592e-07
3.89833e-08
2.02777e-07
2.53269e-08
1.93743e-07
2.87907e-08
1.80245e-07
5.57762e-08
1.58056e-07
9.82427e-08
1.21211e-07
1.38773e-07
7.56144e-08
1.57573e-07
1.6859e-07
3.23898e-08
2.78504e-07
1.08637e-07
-2.76051e-07
2.77916e-07
9.09513e-08
2.64777e-07
5.21227e-08
2.42669e-07
4.74347e-08
2.05378e-07
6.60813e-08
1.72092e-07
8.90622e-08
1.3709e-07
1.33245e-07
9.82121e-08
1.7765e-07
6.84488e-08
1.87336e-07
1.98762e-07
3.82772e-08
2.92563e-07
1.02363e-07
-2.86289e-07
2.96404e-07
8.71106e-08
2.77743e-07
7.07836e-08
2.40105e-07
8.50725e-08
1.80085e-07
1.26101e-07
1.30656e-07
1.38491e-07
8.93432e-08
1.74558e-07
6.89964e-08
1.97997e-07
6.05323e-08
1.958e-07
2.01235e-07
5.80583e-08
2.80827e-07
9.59037e-08
-2.74368e-07
2.80631e-07
8.73061e-08
2.62549e-07
8.88662e-08
1.93686e-07
1.53935e-07
1.24493e-07
1.95294e-07
7.96e-08
1.83384e-07
5.74569e-08
1.96701e-07
5.29415e-08
2.02512e-07
5.40784e-08
1.94664e-07
1.96586e-07
5.87274e-08
2.19347e-07
9.28778e-08
-2.16321e-07
2.07804e-07
9.88496e-08
1.73708e-07
1.22962e-07
1.20782e-07
2.0686e-07
8.03176e-08
2.35759e-07
4.76906e-08
2.16011e-07
3.90451e-08
2.05347e-07
4.25933e-08
1.98964e-07
4.90983e-08
1.88159e-07
1.8527e-07
6.0415e-08
1.47502e-07
8.70031e-08
-1.41628e-07
1.33044e-07
1.13308e-07
9.90898e-08
1.56917e-07
8.04719e-08
2.25479e-07
6.97496e-08
2.46481e-07
4.95595e-08
2.36201e-07
3.85465e-08
2.1636e-07
4.52813e-08
1.9223e-07
5.88488e-08
1.74591e-07
1.66728e-07
7.7391e-08
7.1787e-08
9.36275e-08
-7.84115e-08
5.32129e-08
1.31882e-07
3.29625e-08
1.77167e-07
4.06924e-08
2.17749e-07
5.84641e-08
2.28709e-07
6.49432e-08
2.29722e-07
6.70858e-08
2.14217e-07
8.34577e-08
1.75858e-07
1.03075e-07
1.54974e-07
1.47544e-07
1.22259e-07
4.09731e-09
1.07354e-07
-1.78238e-08
-3.47869e-09
1.39458e-07
1.62052e-09
1.72068e-07
2.70362e-08
1.92333e-07
6.67239e-08
1.89022e-07
9.66722e-08
1.99774e-07
1.19249e-07
1.91641e-07
1.3629e-07
1.58816e-07
1.48751e-07
1.42513e-07
1.38022e-07
1.58273e-07
-1.17462e-08
1.20842e-07
-1.74124e-09
-1.41884e-08
1.419e-07
-2.43989e-09
1.6032e-07
2.00341e-08
1.69859e-07
5.09888e-08
1.58067e-07
9.06872e-08
1.60075e-07
1.29211e-07
1.53116e-07
1.45573e-07
1.42454e-07
1.53861e-07
1.34226e-07
1.32507e-07
1.59377e-07
-4.19898e-08
1.43082e-07
1.97496e-08
-6.35429e-08
1.63453e-07
-5.77863e-08
1.54563e-07
-2.47127e-08
1.36785e-07
1.41133e-08
1.19241e-07
5.59543e-08
1.18234e-07
8.39317e-08
1.25139e-07
9.48845e-08
1.31502e-07
1.04736e-07
1.24375e-07
1.20763e-07
1.16479e-07
-8.72445e-08
1.37497e-07
9.28288e-08
-7.42916e-08
1.50501e-07
-5.96787e-08
1.3995e-07
-2.94224e-08
1.06529e-07
-6.63018e-09
9.64491e-08
1.21872e-08
9.94171e-08
1.68254e-08
1.20501e-07
7.38536e-09
1.40942e-07
7.14303e-09
1.24617e-07
1.0422e-07
2.36863e-08
-1.12878e-07
1.0912e-07
1.41255e-07
-9.59043e-08
1.33527e-07
-7.65904e-08
1.20636e-07
-6.77759e-08
9.77146e-08
-5.67617e-08
8.5435e-08
-3.88547e-08
8.15101e-08
-2.35968e-08
1.05243e-07
-3.0687e-08
1.48032e-07
-4.55341e-08
1.39464e-07
9.95029e-08
-4.08173e-08
-1.35077e-07
9.62819e-08
1.47915e-07
-1.08515e-07
1.06966e-07
-9.30893e-08
1.0521e-07
-1.16379e-07
1.21004e-07
-1.38907e-07
1.07964e-07
-1.50664e-07
9.32669e-08
-1.41338e-07
9.5917e-08
-1.08089e-07
1.14783e-07
-7.41072e-08
1.05483e-07
8.32089e-08
-5.78133e-08
-9.85305e-08
7.6204e-08
1.18608e-07
-8.18206e-08
9.02561e-08
-8.34279e-08
1.06817e-07
-9.61337e-08
1.3371e-07
-1.20544e-07
1.32374e-07
-1.40309e-07
1.13032e-07
-1.31964e-07
8.75719e-08
-1.07309e-07
9.01279e-08
-9.65918e-08
9.47653e-08
5.89068e-08
-7.22897e-08
-3.26923e-08
1.06396e-07
2.50004e-09
-4.9143e-08
1.06707e-07
-4.82131e-08
1.05888e-07
-2.45874e-08
1.10085e-07
-1.49416e-08
1.22729e-07
-2.38936e-08
1.21984e-07
-3.45473e-08
9.82256e-08
-2.1084e-08
7.66646e-08
-1.59775e-09
7.52788e-08
4.5994e-08
1.13148e-08
6.6246e-08
1.16371e-07
-7.62213e-08
4.8569e-08
1.24384e-07
3.08816e-08
1.23575e-07
3.43518e-08
1.06614e-07
4.83946e-08
1.08686e-07
6.79994e-08
1.02379e-07
1.0516e-07
6.10654e-08
1.3691e-07
4.49136e-08
1.51463e-07
6.07261e-08
4.68119e-08
1.50645e-07
1.15314e-07
9.23419e-08
-9.12842e-08
1.24397e-07
1.15301e-07
1.49003e-07
9.89696e-08
1.6259e-07
9.30267e-08
1.78124e-07
9.31521e-08
2.16378e-07
6.41258e-08
2.75554e-07
1.88869e-09
3.40441e-07
-1.99729e-08
4.06354e-07
-5.18724e-09
1.84256e-08
4.3474e-07
2.61872e-07
4.91758e-08
-2.18706e-07
3.12698e-07
6.44752e-08
3.40291e-07
7.13766e-08
3.67131e-07
6.61871e-08
4.13983e-07
4.62995e-08
4.84378e-07
-6.26885e-09
5.53913e-07
-6.76465e-08
6.26011e-07
-9.20708e-08
7.12838e-07
-9.20136e-08
-6.68933e-08
7.98157e-07
3.07628e-07
2.04348e-08
-2.78887e-07
3.41705e-07
3.03974e-08
3.79959e-07
3.31232e-08
4.25137e-07
2.10087e-08
4.85263e-07
-1.38263e-08
5.4601e-07
-6.70161e-08
5.8235e-07
-1.03986e-07
6.07005e-07
-1.16726e-07
6.29344e-07
-1.14352e-07
-9.28669e-08
6.55317e-07
3.83016e-07
-1.62189e-08
-3.46362e-07
4.40216e-07
-2.68023e-08
5.03727e-07
-3.0388e-08
5.58114e-07
-3.33782e-08
6.14349e-07
-7.00616e-08
6.59042e-07
-1.11708e-07
6.75566e-07
-1.20511e-07
6.78892e-07
-1.20052e-07
6.78197e-07
-1.13656e-07
-6.28098e-08
6.4814e-07
4.8666e-07
-6.67884e-08
-4.36091e-07
5.51876e-07
-9.20181e-08
6.24337e-07
-1.02849e-07
6.91188e-07
-1.00229e-07
7.32475e-07
-1.11348e-07
7.39419e-07
-1.18652e-07
7.27039e-07
-1.08131e-07
6.99487e-07
-9.24992e-08
6.43394e-07
-5.75639e-08
-3.15032e-09
5.83735e-07
4.15638e-07
-5.32872e-08
-4.29139e-07
4.21085e-07
-9.74657e-08
4.28919e-07
-1.10683e-07
4.45697e-07
-1.17007e-07
4.44687e-07
-1.10338e-07
4.42752e-07
-1.16717e-07
4.46617e-07
-1.11996e-07
4.20213e-07
-6.60953e-08
4.03112e-07
-4.04628e-08
4.15353e-08
3.58427e-07
2.40411e-07
-2.86967e-08
-2.65001e-07
2.32595e-07
-8.96494e-08
2.45379e-07
-1.23466e-07
2.43886e-07
-1.15514e-07
2.35029e-07
-1.01481e-07
2.10358e-07
-9.20452e-08
1.50695e-07
-5.23339e-08
9.99977e-08
-1.53978e-08
6.44031e-08
-4.86814e-09
1.33646e-07
-2.77077e-08
1.25438e-07
-2.595e-08
-1.28184e-07
7.08611e-08
-3.50727e-08
-7.13292e-09
-4.54725e-08
-7.8348e-08
-4.42993e-08
-1.47866e-07
-3.19637e-08
-2.09141e-07
-3.07699e-08
-2.70177e-07
8.70242e-09
-2.87536e-07
1.96238e-09
-3.17932e-07
2.55272e-08
6.97771e-08
-2.54062e-07
-1.38441e-07
1.43442e-09
1.11057e-07
-2.04358e-07
3.08441e-08
-2.43387e-07
-6.44328e-09
-2.72277e-07
-1.54101e-08
-3.04182e-07
-5.78543e-11
-3.39987e-07
5.03465e-09
-3.54965e-07
2.36806e-08
-3.72158e-07
1.91552e-08
-3.74691e-07
2.80607e-08
3.62689e-08
-3.41183e-07
-2.78039e-07
6.13377e-08
2.18136e-07
-3.31283e-07
8.40876e-08
-3.38451e-07
7.24769e-10
-3.25872e-07
-2.79891e-08
-3.08396e-07
-1.75336e-08
-3.28391e-07
2.50293e-08
-3.44223e-07
3.95133e-08
-3.57579e-07
3.25106e-08
-3.54423e-07
2.49052e-08
2.28609e-08
-3.41015e-07
-2.73523e-07
1.09034e-07
2.25827e-07
-3.37064e-07
1.47629e-07
-3.71714e-07
3.5375e-08
-3.65867e-07
-3.38364e-08
-3.4939e-07
-3.40097e-08
-3.21102e-07
-3.25968e-09
-2.81717e-07
1.2881e-10
-2.63439e-07
1.42324e-08
-2.79937e-07
4.14026e-08
3.7903e-08
-2.94979e-07
-6.26593e-08
1.98861e-07
-2.71674e-08
-1.50026e-07
2.34996e-07
-2.68641e-07
1.53991e-07
-3.61668e-07
5.91901e-08
-4.5625e-07
6.05721e-08
-4.72398e-07
1.28884e-08
-3.8683e-07
-8.54395e-08
-3.07618e-07
-6.49797e-08
-2.59509e-07
-6.70638e-09
2.58234e-08
-2.47429e-07
4.13811e-07
1.41577e-07
-3.56528e-07
3.95814e-07
2.52993e-07
2.55035e-07
2.94769e-07
6.74521e-08
2.46773e-07
-1.21522e-07
2.49546e-07
-2.93642e-07
1.85008e-07
-3.88641e-07
9.55906e-09
-3.76552e-07
-7.70688e-08
-3.12015e-07
-7.12427e-08
-4.01225e-08
-2.4607e-07
2.49408e-07
6.36004e-08
-1.71431e-07
3.13495e-07
1.88906e-07
3.00392e-07
3.07873e-07
1.49244e-07
3.97921e-07
1.64617e-08
3.82329e-07
-7.72731e-08
2.78743e-07
-1.82928e-07
1.15214e-07
-3.21793e-07
6.17954e-08
-3.69781e-07
-2.32547e-08
-8.0832e-08
-3.29071e-07
-1.47304e-08
1.84583e-08
5.98727e-08
2.59226e-08
1.48253e-07
2.03477e-08
3.13447e-07
-2.59575e-08
4.44226e-07
-7.17327e-09
3.63545e-07
1.30286e-07
1.41284e-07
1.64963e-07
8.0536e-08
-5.7608e-08
2.84366e-07
-3.38094e-07
2.57231e-07
-6.34164e-08
-3.55509e-07
-6.34288e-07
-3.69869e-08
6.89734e-07
-5.93436e-07
1.07402e-07
-4.06834e-07
1.26845e-07
-1.15404e-07
1.52795e-07
8.50928e-08
1.63047e-07
1.39344e-07
8.70319e-08
2.48165e-08
1.95063e-07
-8.29212e-08
3.92104e-07
-1.02227e-07
2.76537e-07
-2.76565e-08
-1.37987e-07
-7.48642e-07
-1.3901e-07
8.50665e-07
-5.58735e-07
-8.25062e-08
-3.82498e-07
-4.93924e-08
-2.24435e-07
-5.26685e-09
-1.44091e-07
8.27026e-08
-2.28325e-07
1.71266e-07
-3.13799e-07
2.80537e-07
-2.7047e-07
3.48775e-07
-3.13583e-08
3.74258e-08
-1.15897e-07
5.68825e-08
-6.6791e-07
-1.89425e-07
7.18326e-07
-5.70214e-07
-1.80204e-07
-4.86344e-07
-1.33263e-07
-4.80447e-07
-1.11631e-08
-4.26979e-07
2.92344e-08
-3.35925e-07
8.02113e-08
-2.61286e-07
2.05899e-07
-9.82798e-08
1.85769e-07
8.54241e-08
-1.46277e-07
-1.65969e-07
1.35496e-07
-5.66768e-07
-2.19827e-07
5.97169e-07
-5.07588e-07
-2.39384e-07
-4.76671e-07
-1.6418e-07
-4.25685e-07
-6.21492e-08
-3.32329e-07
-6.41219e-08
-1.40219e-07
-1.11899e-07
4.53802e-08
2.02993e-08
2.47286e-07
-1.61369e-08
2.29419e-07
-1.28409e-07
-1.32297e-07
1.95747e-07
-4.7277e-07
-2.88133e-07
5.41076e-07
-4.53679e-07
-2.58476e-07
-3.78926e-07
-2.38933e-07
-2.72942e-07
-1.68133e-07
-1.8563e-07
-1.51434e-07
-1.31221e-07
-1.66308e-07
6.31689e-10
-1.11553e-07
1.18213e-07
-1.33718e-07
1.34848e-07
-1.45044e-07
-1.36463e-07
1.39014e-07
-5.11298e-07
-3.38663e-07
5.61828e-07
-4.47377e-07
-3.22397e-07
-4.04285e-07
-2.82024e-07
-3.48207e-07
-2.24211e-07
-2.8916e-07
-2.10481e-07
-2.59534e-07
-1.95935e-07
-1.54079e-07
-2.17008e-07
-5.35652e-08
-2.34231e-07
1.33765e-08
-2.11986e-07
-1.96253e-07
7.31661e-08
-4.74942e-07
-4.04933e-07
5.41212e-07
-4.15326e-07
-3.82012e-07
-3.83328e-07
-3.14022e-07
-3.55512e-07
-2.52027e-07
-3.32987e-07
-2.33006e-07
-2.67431e-07
-2.61491e-07
-1.94248e-07
-2.90191e-07
-1.41269e-07
-2.8721e-07
-1.02446e-07
-2.50808e-07
-2.27243e-07
-7.14558e-08
-3.9049e-07
-4.95478e-07
4.81036e-07
-3.42445e-07
-4.30058e-07
-2.96498e-07
-3.59969e-07
-2.5799e-07
-2.90535e-07
-2.16741e-07
-2.74256e-07
-2.00015e-07
-2.78216e-07
-2.01316e-07
-2.8889e-07
-1.93893e-07
-2.94634e-07
-1.83697e-07
-2.61004e-07
-2.29075e-07
-1.81865e-07
-3.86632e-07
-7.09828e-07
6.00983e-07
-2.74616e-07
-5.42073e-07
-2.38421e-07
-3.96164e-07
-1.93443e-07
-3.35513e-07
-1.63586e-07
-3.04113e-07
-1.55936e-07
-2.85866e-07
-1.75447e-07
-2.69379e-07
-2.17373e-07
-2.52708e-07
-2.34066e-07
-2.44311e-07
-2.11324e-07
-2.51817e-07
-5.78226e-07
-9.70017e-07
8.38415e-07
-3.111e-07
-8.092e-07
-1.81727e-07
-5.25536e-07
-1.61643e-07
-3.55597e-07
-1.66357e-07
-2.99399e-07
-1.78591e-07
-2.73632e-07
-2.01213e-07
-2.46758e-07
-2.2072e-07
-2.33201e-07
-2.51781e-07
-2.13251e-07
-1.77494e-07
-2.85611e-07
-7.62262e-07
-1.10056e-06
8.92807e-07
-5.08304e-07
-1.06316e-06
-2.50833e-07
-7.83008e-07
-1.9575e-07
-4.1068e-07
-2.19391e-07
-2.75759e-07
-2.59417e-07
-2.33605e-07
-2.79042e-07
-2.27133e-07
-2.77466e-07
-2.34777e-07
-2.74481e-07
-2.16235e-07
-1.69304e-07
-2.82671e-07
-7.79654e-07
-1.11679e-06
7.95884e-07
-6.91383e-07
-1.15143e-06
-4.36447e-07
-1.03794e-06
-2.89228e-07
-5.57898e-07
-3.11929e-07
-2.53058e-07
-3.69558e-07
-1.75976e-07
-3.67197e-07
-2.29494e-07
-3.41898e-07
-2.60076e-07
-3.06495e-07
-2.51638e-07
-2.00725e-07
-2.75075e-07
-7.42395e-07
-9.53043e-07
5.78647e-07
-7.29924e-07
-1.1639e-06
-6.20494e-07
-1.14737e-06
-3.79824e-07
-7.98569e-07
-3.6701e-07
-2.65873e-07
-3.82984e-07
-1.60002e-07
-3.79625e-07
-2.32853e-07
-3.59569e-07
-2.80132e-07
-3.3369e-07
-2.77517e-07
-2.47272e-07
-2.87143e-07
-7.27429e-07
-3.77057e-07
1.51443e-07
-7.77505e-07
-1.11382e-06
-7.4782e-07
-1.17706e-06
-5.05801e-07
-1.04059e-06
-2.8125e-07
-4.90423e-07
-2.68535e-07
-1.72716e-07
-3.20265e-07
-1.81123e-07
-3.42057e-07
-2.5834e-07
-3.41469e-07
-2.78106e-07
-2.64788e-07
-3.23953e-07
-3.01109e-07
2.94107e-07
-3.70055e-07
-7.8384e-07
-6.31093e-07
-7.06459e-07
-1.25444e-06
-5.77665e-07
-1.16938e-06
-2.7037e-07
-7.97719e-07
-1.85176e-07
-2.5791e-07
-2.15972e-07
-1.50327e-07
-2.90733e-07
-1.83579e-07
-3.31886e-07
-2.36953e-07
-2.5317e-07
-3.43504e-07
-7.30567e-07
9.25366e-07
9.931e-08
-7.8751e-07
-5.74151e-07
-7.4736e-07
-1.29459e-06
-6.36494e-07
-1.28025e-06
-3.58481e-07
-1.07573e-06
-1.53929e-07
-4.62463e-07
-1.54563e-07
-1.49692e-07
-2.22213e-07
-1.15928e-07
-3.07981e-07
-1.51185e-07
-2.14904e-07
-3.46247e-07
-7.43308e-07
8.69631e-07
7.99035e-07
-5.63566e-07
-7.53896e-07
-5.70166e-07
-1.28799e-06
-5.06772e-07
-1.34364e-06
-3.71534e-07
-1.21097e-06
-9.69113e-08
-7.37085e-07
-9.14807e-08
-1.55123e-07
-9.93913e-08
-1.08018e-07
-1.59981e-07
-9.05951e-08
-1.25716e-07
-2.49169e-07
-6.06681e-07
6.65765e-07
8.10544e-07
-5.31438e-07
-8.29139e-07
-5.19809e-07
-1.29962e-06
-4.95407e-07
-1.36805e-06
-3.84958e-07
-1.32142e-06
-1.10524e-07
-1.01152e-06
-1.02067e-07
-1.6358e-07
-7.62339e-08
-1.3385e-07
-7.56972e-08
-9.11316e-08
-1.01592e-07
-9.98217e-08
1.2804e-08
2.8786e-07
3.651e-07
-2.22164e-07
-5.9417e-07
-2.74179e-07
-1.24759e-06
-2.83684e-07
-1.35854e-06
-2.57131e-07
-1.34797e-06
-9.27399e-08
-1.17591e-06
-1.24017e-07
-1.32303e-07
-1.16705e-07
-1.41163e-07
-8.53279e-08
-1.22508e-07
-8.71821e-08
-9.97375e-08
2.63683e-07
5.73895e-08
-3.3208e-08
3.56709e-08
-3.66163e-07
-1.42336e-07
-1.06959e-06
-1.46974e-07
-1.3539e-06
-1.50669e-07
-1.34428e-06
-8.24005e-08
-1.24418e-06
-1.52994e-07
-6.17093e-08
-1.78604e-07
-1.15553e-07
-1.57905e-07
-1.43207e-07
-1.29516e-07
-1.15572e-07
3.91397e-07
-5.93087e-08
-2.74695e-07
2.82926e-07
-2.5768e-07
-4.38388e-08
-7.42827e-07
-6.35373e-08
-1.3342e-06
-8.08496e-08
-1.32696e-06
-1.16657e-08
-1.31336e-06
-2.53475e-08
-4.80276e-08
-1.12035e-07
-2.88655e-08
-1.25831e-07
-1.29411e-07
-1.22083e-07
-1.33264e-07
2.65235e-07
-5.27058e-08
-2.71837e-07
1.83479e-07
-1.75912e-07
-4.35657e-08
-5.15786e-07
-1.01826e-07
-1.27593e-06
-8.84409e-08
-1.34035e-06
-9.17389e-08
-1.31006e-06
1.87907e-07
-3.27674e-07
1.62025e-07
-2.98453e-09
2.03408e-07
-1.70794e-07
-1.18304e-07
1.99629e-07
2.03625e-07
-7.05298e-09
-2.49278e-07
1.48839e-07
-1.21104e-07
1.03232e-07
-4.70193e-07
4.74596e-08
-1.22017e-06
-1.58779e-08
-1.27701e-06
-6.4141e-08
-1.2618e-06
7.39998e-07
-1.13181e-06
1.04306e-06
-3.06047e-07
1.03755e-06
-1.65285e-07
-1.21807e-07
1.04105e-06
7.89101e-08
1.04134e-08
-9.63764e-08
4.10012e-08
-8.31735e-08
2.8484e-08
-4.57672e-07
2.88178e-08
-1.2205e-06
-1.68019e-09
-1.24651e-06
-7.2709e-09
-1.25621e-06
7.69179e-08
-1.216e-06
1.68566e-07
-3.97696e-07
2.2032e-07
-2.17038e-07
-2.37569e-07
3.36078e-07
4.76805e-08
5.08702e-08
-8.8141e-08
1.80173e-08
-5.35338e-08
1.40472e-08
-4.53709e-07
1.95977e-08
-1.22606e-06
1.18243e-09
-1.2281e-06
-2.14997e-08
-1.23353e-06
-2.51731e-08
-1.21232e-06
-4.68873e-09
-4.18186e-07
-3.40343e-08
-1.8769e-07
-2.87485e-07
1.58818e-08
5.23854e-08
1.00824e-07
-1.02342e-07
9.56372e-09
-1.0722e-08
1.74053e-08
-4.61542e-07
1.69854e-08
-1.22564e-06
-1.21837e-09
-1.20989e-06
-2.47968e-08
-1.20996e-06
-4.0442e-09
-1.23307e-06
1.01507e-07
-5.23738e-07
7.57547e-08
-1.61936e-07
-2.85276e-07
7.35437e-08
5.44079e-08
1.73475e-07
-1.27064e-07
2.7384e-09
4.09249e-08
1.91846e-08
-4.77999e-07
9.92855e-09
-1.21638e-06
-4.71089e-09
-1.19525e-06
-1.93001e-08
-1.19537e-06
-3.9088e-08
-1.21329e-06
9.26146e-08
-6.55441e-07
2.40802e-07
-3.10121e-07
-2.24021e-07
1.79549e-07
7.77547e-09
2.8723e-07
-1.21532e-07
-1.10302e-08
5.97368e-08
4.28832e-08
-5.31904e-07
2.20145e-08
-1.19551e-06
7.02449e-09
-1.18026e-06
-6.95615e-09
-1.18138e-06
-1.99123e-08
-1.20033e-06
1.56351e-08
-6.90986e-07
1.29797e-07
-4.24277e-07
-2.36933e-07
1.42714e-07
-7.71778e-08
3.23259e-07
4.11402e-08
-6.27629e-08
4.53142e-08
3.18822e-08
-6.26556e-07
1.87121e-08
-1.18235e-06
1.18552e-08
-1.17341e-06
6.02265e-10
-1.17013e-06
-1.59497e-08
-1.18378e-06
8.4383e-09
-7.15374e-07
-1.97501e-08
-3.96091e-07
-2.59642e-07
2.95922e-09
-9.07307e-08
2.68369e-07
1.45619e-07
-4.52416e-08
-1.57422e-10
4.5047e-08
-7.16835e-07
3.18743e-08
-1.16917e-06
2.10231e-08
-1.16256e-06
1.7207e-08
-1.16632e-06
1.98589e-09
-1.16856e-06
-5.82166e-09
-7.07562e-07
-8.74497e-08
-3.14456e-07
-3.12956e-07
-3.41328e-08
-1.1532e-07
1.8782e-07
1.95869e-07
-4.91276e-09
-1.10585e-07
2.48771e-08
-7.46635e-07
1.33308e-08
-1.15763e-06
5.78862e-09
-1.15501e-06
-2.05479e-09
-1.15847e-06
-1.28528e-08
-1.15776e-06
5.53932e-09
-7.25957e-07
-8.73131e-08
-2.21604e-07
-3.47833e-07
-5.24353e-08
-3.86504e-08
8.39735e-08
1.42501e-07
1.22001e-08
-1.61416e-07
1.22181e-08
-7.46645e-07
-3.22288e-09
-1.14219e-06
-1.03647e-08
-1.14787e-06
-2.85111e-08
-1.14033e-06
-4.2586e-08
-1.14368e-06
1.18984e-09
-7.69729e-07
1.29837e-09
-2.21712e-07
-3.2219e-07
-2.43438e-08
6.46503e-08
8.62185e-09
1.06992e-08
5.68179e-08
-1.53602e-07
5.54773e-08
-7.45315e-07
4.00577e-08
-1.12676e-06
1.80311e-08
-1.12585e-06
6.32696e-09
-1.12862e-06
-1.13742e-08
-1.12598e-06
-9.25128e-09
-7.7185e-07
5.64619e-08
-2.87427e-07
-2.63003e-07
-2.72543e-09
9.48502e-08
-7.89657e-08
-7.26089e-09
9.03662e-08
-1.4912e-07
4.65851e-08
-7.01535e-07
2.70075e-08
-1.10718e-06
1.03532e-08
-1.10919e-06
-9.49041e-09
-1.10878e-06
-2.85965e-08
-1.10688e-06
-6.74208e-08
-7.33025e-07
-4.61558e-08
-3.08698e-07
-2.27936e-07
-8.12242e-08
-1.00568e-07
-1.3683e-07
1.58434e-07
2.60134e-08
-2.75699e-07
4.77312e-08
-7.23256e-07
3.17988e-08
-1.09125e-06
1.01353e-08
-1.08753e-06
-1.17028e-08
-1.08694e-06
-2.78366e-08
-1.09074e-06
-6.86151e-08
-6.92246e-07
-1.00316e-07
-2.76998e-07
-1.93323e-07
-1.34931e-07
-7.5638e-08
-2.19974e-07
1.58784e-07
3.03192e-08
-3.81652e-07
4.5326e-08
-7.38264e-07
3.5517e-08
-1.08144e-06
1.39611e-08
-1.06597e-06
-8.4974e-09
-1.06448e-06
-1.9057e-08
-1.08018e-06
-4.60636e-08
-6.65241e-07
-9.2253e-08
-2.30815e-07
-1.60183e-07
-1.25397e-07
2.03222e-08
-2.67062e-07
2.67667e-08
4.32359e-08
-4.04569e-07
4.44629e-08
-7.39493e-07
3.33033e-08
-1.07028e-06
7.221e-09
-1.03989e-06
-1.48185e-08
-1.04244e-06
-2.70654e-08
-1.06794e-06
-3.80697e-08
-6.54237e-07
-6.32503e-08
-2.05639e-07
-1.38339e-07
-8.51009e-08
3.88576e-08
-2.97948e-07
-7.97508e-09
3.52983e-08
-4.01015e-07
3.31107e-08
-7.37304e-07
1.63076e-08
-1.05348e-06
-3.4475e-09
-1.02014e-06
-2.77529e-08
-1.01814e-06
-4.40275e-08
-1.05166e-06
-4.12179e-08
-6.57048e-07
-4.83745e-08
-1.98482e-07
-1.38244e-07
-4.84727e-08
3.41695e-08
-3.20302e-07
-1.18167e-08
3.03447e-08
-3.97202e-07
4.03062e-08
-7.4727e-07
1.91464e-08
-1.03232e-06
-1.92705e-09
-9.99062e-07
-2.35769e-08
-9.96487e-07
-4.47008e-08
-1.03054e-06
-3.25493e-08
-6.69202e-07
-3.53813e-08
-1.95649e-07
-1.41141e-07
-3.24867e-08
4.9599e-08
-3.15765e-07
-5.41378e-08
3.76547e-08
-3.85256e-07
4.63438e-08
-7.55957e-07
2.28973e-08
-1.00888e-06
2.55363e-09
-9.78718e-07
-1.4281e-08
-9.79652e-07
-3.73858e-08
-1.00743e-06
-2.80948e-08
-6.78494e-07
-3.96269e-08
-1.84115e-07
-1.37505e-07
-4.32658e-08
6.5453e-08
-2.7119e-07
-1.10031e-07
4.58596e-08
-3.65661e-07
3.31855e-08
-7.43285e-07
1.18952e-08
-9.87584e-07
-2.55396e-09
-9.64269e-07
-2.01299e-08
-9.62076e-07
-4.0766e-08
-9.86798e-07
-3.78443e-08
-6.81416e-07
-7.27383e-08
-1.49218e-07
-1.04886e-07
-1.05355e-07
8.88103e-08
-2.24976e-07
-1.35023e-07
4.98348e-08
-3.26678e-07
3.7736e-08
-7.31183e-07
1.83468e-08
-9.68196e-07
1.51394e-09
-9.47436e-07
-1.47552e-08
-9.45807e-07
-3.39931e-08
-9.6756e-07
-4.28833e-08
-6.72527e-07
-9.17975e-08
-1.00302e-07
-4.98465e-08
-1.46835e-07
1.27069e-07
-1.62344e-07
-1.89698e-07
6.87279e-08
-2.68327e-07
4.17048e-08
-7.04153e-07
2.12597e-08
-9.47749e-07
1.95033e-09
-9.28127e-07
-1.64158e-08
-9.27441e-07
-3.68019e-08
-9.47174e-07
-4.57274e-08
-6.63602e-07
-7.20085e-08
-7.40232e-08
-1.05734e-08
-1.1128e-07
1.53475e-07
-8.02311e-08
-2.35586e-07
8.28775e-08
-1.97735e-07
4.35066e-08
-6.64787e-07
2.24715e-08
-9.26714e-07
2.59572e-09
-9.08251e-07
-1.61431e-08
-9.08702e-07
-3.66738e-08
-9.26643e-07
-5.79817e-08
-6.42292e-07
-6.81443e-08
-6.38638e-08
2.10534e-08
-9.97727e-08
1.95495e-07
7.83244e-09
-2.83557e-07
1.06778e-07
-1.09019e-07
4.23437e-08
-6.0035e-07
2.16719e-08
-9.06044e-07
-1.14205e-09
-8.85437e-07
-2.34675e-08
-8.86376e-07
-4.27928e-08
-9.07318e-07
-6.4012e-08
-6.21073e-07
-4.94348e-08
-7.84394e-08
3.31085e-08
-6.14909e-08
1.60987e-07
9.84474e-08
-2.51604e-07
7.48845e-08
-2.29242e-08
4.27631e-08
-5.6823e-07
2.17627e-08
-8.85043e-07
-6.99999e-10
-8.62975e-07
-2.36511e-08
-8.63425e-07
-4.44076e-08
-8.86562e-07
-8.40155e-08
-5.81465e-07
-9.60654e-08
-6.6391e-08
4.03331e-08
-1.03288e-07
1.16383e-07
1.76112e-07
-1.9405e-07
5.77787e-08
3.56797e-08
4.88829e-08
-5.59336e-07
2.70929e-08
-8.63253e-07
1.84581e-09
-8.37728e-07
-2.12186e-08
-8.40361e-07
-4.32213e-08
-8.64559e-07
-7.91754e-08
-5.4551e-07
-1.4851e-07
2.94319e-09
1.49998e-08
-1.23175e-07
9.40041e-08
2.17895e-07
-1.35786e-07
4.57016e-08
8.39872e-08
4.41477e-08
-5.5778e-07
2.05894e-08
-8.39697e-07
-1.29508e-09
-8.15843e-07
-2.54947e-08
-8.16161e-07
-4.92919e-08
-8.40762e-07
-5.65506e-08
-5.38252e-07
-1.54469e-07
1.00864e-07
2.58111e-08
-1.65281e-07
1.10443e-07
2.33252e-07
-1.25799e-07
5.52899e-08
1.39145e-07
4.21565e-08
-5.44639e-07
1.72511e-08
-8.14787e-07
-7.06729e-09
-7.91525e-07
-3.1724e-08
-7.91505e-07
-5.6823e-08
-8.15663e-07
-4.3273e-08
-5.51801e-07
-1.15333e-07
1.72926e-07
7.02099e-08
-1.59728e-07
8.6052e-08
2.4835e-07
-1.0115e-07
4.67005e-08
1.78484e-07
3.99898e-08
-5.37942e-07
1.39479e-08
-7.88751e-07
-8.99003e-09
-7.68587e-07
-3.20559e-08
-7.68439e-07
-5.82265e-08
-7.89492e-07
-3.23303e-08
-5.77694e-07
3.44759e-08
1.06119e-07
1.52255e-07
-4.7566e-08
5.29148e-08
2.5914e-07
-6.37038e-08
4.59972e-08
1.85414e-07
4.86451e-08
-5.4058e-07
2.21504e-08
-7.62252e-07
-3.70047e-09
-7.42736e-07
-2.81161e-08
-7.44023e-07
-5.51999e-08
-7.62408e-07
-4.53401e-08
-5.87552e-07
4.11988e-08
1.95823e-08
1.72826e-07
2.06269e-08
6.98904e-08
2.55173e-07
-6.59266e-08
5.87296e-08
1.96558e-07
5.21526e-08
-5.34018e-07
2.49209e-08
-7.35026e-07
2.3541e-09
-7.20169e-07
-2.36129e-08
-7.18056e-07
-5.10318e-08
-7.34989e-07
-6.99568e-08
-5.68628e-07
-5.36677e-08
3.29667e-09
1.03196e-07
1.59644e-08
6.59532e-08
2.31971e-07
-4.2752e-08
5.68714e-08
2.05657e-07
5.44201e-08
-5.31551e-07
2.86676e-08
-7.09269e-07
-4.02303e-10
-6.91099e-07
-2.61592e-08
-6.92299e-07
-5.19483e-08
-7.092e-07
-6.78021e-08
-5.52774e-07
-8.18863e-08
1.73801e-08
3.11804e-08
-9.86935e-09
3.28423e-08
1.9842e-07
7.0823e-10
4.98522e-08
1.8863e-07
4.65224e-08
-5.28236e-07
1.86759e-08
-6.81425e-07
-1.16688e-08
-6.60755e-07
-2.49715e-08
-6.78996e-07
-4.96587e-08
-6.84512e-07
-5.77006e-08
-5.44732e-07
1.7628e-08
-5.79474e-08
-1.97374e-08
6.85442e-08
-3.56588e-08
1.96947e-07
3.71355e-08
3.97602e-08
1.1323e-07
3.59162e-08
-5.24388e-07
1.30092e-08
-6.58517e-07
8.52887e-09
-6.56274e-07
-3.31921e-08
-6.37276e-07
-5.44629e-08
-6.63241e-07
-5.59675e-08
-5.43229e-07
7.47774e-08
-1.88694e-07
-9.50551e-08
1.50094e-07
1.92661e-08
1.6537e-07
1.23083e-08
1.01329e-07
3.11633e-08
1.13208e-07
-5.36275e-07
8.59087e-08
-6.3122e-07
4.48636e-08
-6.15229e-07
3.21707e-08
-6.24583e-07
-3.81028e-09
-6.27261e-07
-3.65994e-08
-5.10438e-07
-8.25509e-09
-2.1704e-07
-1.34152e-07
3.08436e-08
-2.30948e-08
1.71966e-07
1.64989e-08
1.33901e-08
-5.30853e-09
2.44547e-08
-5.47335e-07
-1.21039e-08
-5.94661e-07
-4.59355e-08
-5.81398e-07
-6.56685e-08
-6.0485e-07
-9.72575e-08
-5.95672e-07
-1.03256e-07
-5.04439e-07
-5.8461e-08
-2.61833e-07
-1.48951e-07
-4.36603e-08
2.9753e-08
1.58065e-07
-1.58543e-08
2.9767e-08
-5.33383e-09
-3.90756e-09
-5.13663e-07
-4.30754e-08
-5.55493e-07
-6.13696e-08
-5.63103e-07
-1.13666e-07
-5.52554e-07
-1.37141e-07
-5.72197e-07
-9.66369e-08
-5.44944e-07
-6.29744e-08
-2.95496e-07
-1.4357e-07
-6.83515e-08
5.8841e-08
1.42264e-07
-4.30385e-08
8.84446e-08
-3.49379e-08
6.29612e-08
-4.88181e-07
3.19197e-08
-5.24452e-07
-8.42424e-10
-5.30341e-07
-2.87324e-08
-5.24664e-07
-7.52574e-08
-5.25672e-07
-9.92701e-08
-5.20931e-07
-9.30521e-08
-3.01712e-07
-1.24763e-07
-1.11859e-07
1.84966e-08
1.4694e-07
-2.31736e-08
5.24638e-08
-6.89053e-08
6.14035e-08
-4.97122e-07
2.5626e-08
-4.88674e-07
-1.21363e-08
-4.92579e-07
-4.81121e-08
-4.88688e-07
-8.12857e-08
-4.92498e-07
-1.18572e-07
-4.83644e-07
-1.18996e-07
-3.01287e-07
-1.21984e-07
-1.21777e-07
1.02893e-07
1.19567e-07
-7.55216e-08
1.70835e-07
-1.36846e-07
1.11563e-07
-4.37845e-07
7.03632e-08
-4.47474e-07
3.24975e-08
-4.54713e-07
-1.41984e-09
-4.5477e-07
-4.40446e-08
-4.49873e-07
-8.97712e-08
-4.37918e-07
-1.09786e-07
-2.81272e-07
-1.24145e-07
-1.07624e-07
9.64823e-08
9.63892e-08
-7.33059e-08
1.40816e-07
-1.8119e-07
8.85257e-08
-3.85558e-07
4.3434e-08
-4.02382e-07
-8.34676e-11
-4.11196e-07
-4.52825e-08
-4.09571e-07
-9.22794e-08
-4.02876e-07
-1.45045e-07
-3.85153e-07
-1.35739e-07
-2.90578e-07
-1.56468e-07
-1.03414e-07
1.06516e-07
2.24342e-08
-3.25559e-08
1.46429e-07
-2.21093e-07
9.94693e-08
-3.38599e-07
4.99015e-08
-3.52815e-07
6.83801e-10
-3.61978e-07
-4.34254e-08
-3.65462e-07
-8.32747e-08
-3.63027e-07
-1.189e-07
-3.49528e-07
-5.95194e-08
-3.49958e-07
-1.52785e-07
-6.32031e-08
9.11439e-08
-5.0367e-08
-1.83436e-08
1.67045e-07
-2.96989e-07
1.26247e-07
-2.97801e-07
8.85906e-08
-3.15158e-07
4.31998e-08
-3.16587e-07
-6.96749e-09
-3.15295e-07
-6.31697e-08
-3.06825e-07
-1.18083e-07
-2.94615e-07
-1.89753e-07
-2.78287e-07
-1.66173e-07
-1.76365e-07