/*--------------------------------*- C++ -*----------------------------------*\
  =========                 |
  \\      /  F ield         | OpenFOAM: The Open Source CFD Toolbox
   \\    /   O peration     | Website:  https://openfoam.org
    \\  /    A nd           | Version:  8
     \\/     M anipulation  |
\*---------------------------------------------------------------------------*/
FoamFile
{
    version     2.0;
    format      ascii;
    class       surfaceScalarField;
    location    "0.9";
    object      alphaPhi0.water;
}
// * * * * * * * * * * * * * * * * * * * * * * * * * * * * * * * * * * * * * //

dimensions      [0 3 -1 0 0 0 0];

internalField   nonuniform List<scalar> 
18095
(
1.93174e-08
-1.72116e-07
1.52798e-07
2.29472e-08
-1.98485e-07
1.94855e-07
1.86499e-08
-2.05195e-07
2.09492e-07
9.30023e-09
-2.10276e-07
2.19625e-07
2.34849e-11
-2.13865e-07
2.23142e-07
-9.11484e-09
-2.13909e-07
2.23047e-07
-1.84487e-08
-2.10379e-07
2.19713e-07
-2.29193e-08
-2.05187e-07
2.09658e-07
-1.93057e-08
-1.98459e-07
1.94845e-07
-1.72129e-07
1.52824e-07
1.54033e-08
-1.87519e-07
1.54517e-08
-1.98533e-07
1.27531e-08
-2.02496e-07
7.47824e-09
-2.05001e-07
2.97745e-12
-2.0639e-07
-7.41409e-09
-2.06492e-07
-1.26402e-08
-2.05153e-07
-1.54342e-08
-2.02393e-07
-1.53813e-08
-1.98512e-07
-1.87511e-07
6.82979e-09
-1.94349e-07
8.16723e-09
-1.99871e-07
6.65316e-09
-2.00982e-07
3.58844e-09
-2.01936e-07
1.53654e-10
-2.02955e-07
-3.30496e-09
-2.03033e-07
-6.59325e-09
-2.01865e-07
-8.20435e-09
-2.00782e-07
-6.82963e-09
-1.99887e-07
-1.9434e-07
4.55712e-09
-1.98906e-07
4.59511e-09
-1.99909e-07
3.78878e-09
-2.00176e-07
2.29246e-09
-2.0044e-07
7.72107e-12
-2.0067e-07
-2.39201e-09
-2.00633e-07
-3.9513e-09
-2.00306e-07
-4.61954e-09
-2.00114e-07
-4.56627e-09
-1.9994e-07
-1.98907e-07
1.09397e-09
1.1854e-09
1.00935e-09
5.69654e-10
-1.0043e-10
-7.33874e-10
-1.03938e-09
-1.15351e-09
-1.09346e-09
-2.4888e-08
-1.97208e-07
2.22096e-07
-2.73195e-08
-1.98753e-07
2.01184e-07
-2.23455e-08
-2.02133e-07
1.97159e-07
-1.16905e-08
-2.00691e-07
1.90036e-07
1.07396e-09
-2.01342e-07
1.88577e-07
1.34079e-08
-2.01309e-07
1.88975e-07
2.30142e-08
-2.00152e-07
1.90546e-07
2.75671e-08
-2.0196e-07
1.97407e-07
2.51291e-08
-1.98969e-07
2.01407e-07
-1.97483e-07
2.22612e-07
-1.02151e-08
-1.86993e-07
-1.59536e-08
-1.93014e-07
-1.59188e-08
-2.02168e-07
-8.26073e-09
-2.08349e-07
-5.38745e-10
-2.09064e-07
7.23393e-09
-2.09082e-07
1.55471e-08
-2.08465e-07
1.5996e-08
-2.02409e-07
1.02899e-08
-1.93263e-07
-1.87193e-07
-1.07828e-08
-1.7621e-07
-8.32223e-09
-1.95475e-07
-5.19566e-09
-2.05295e-07
-3.69552e-09
-2.09849e-07
-2.70364e-10
-2.12489e-07
3.47884e-09
-2.12831e-07
5.59158e-09
-2.10578e-07
8.70886e-09
-2.05526e-07
1.09576e-08
-1.95512e-07
-1.76236e-07
-7.46165e-09
-1.68748e-07
-1.01275e-08
-1.92809e-07
-9.59912e-09
-2.05823e-07
-3.84797e-09
-2.156e-07
9.42566e-10
-2.17279e-07
5.37017e-09
-2.17259e-07
1.01211e-08
-2.15329e-07
1.02772e-08
-2.05682e-07
7.52838e-09
-1.92763e-07
-1.68707e-07
-1.59501e-08
-1.39041e-08
-1.02348e-08
-6.20988e-09
-3.47703e-10
5.44066e-09
9.82472e-09
1.38008e-08
1.58834e-08
3.36265e-08
-1.55476e-07
1.2185e-07
4.06406e-08
-1.97492e-07
1.90477e-07
3.54143e-08
-2.10058e-07
2.15284e-07
2.51036e-08
-2.16557e-07
2.26867e-07
9.52359e-09
-2.17988e-07
2.33568e-07
-7.55536e-09
-2.18303e-07
2.35382e-07
-2.35287e-08
-2.16453e-07
2.32426e-07
-3.26254e-08
-2.11069e-07
2.20166e-07
-3.06767e-08
-1.99022e-07
1.97073e-07
-1.57582e-07
1.26905e-07
1.69572e-08
-1.72434e-07
1.94737e-08
-2.00008e-07
1.55052e-08
-2.06089e-07
7.88969e-09
-2.08941e-07
-1.0763e-09
-2.09022e-07
-9.82104e-09
-2.09559e-07
-1.61473e-08
-2.10127e-07
-1.93186e-08
-2.07898e-07
-1.64736e-08
-2.01867e-07
-1.74056e-07
1.14366e-08
-1.8387e-07
1.15067e-08
-2.00078e-07
1.04018e-08
-2.04985e-07
6.64731e-09
-2.05187e-07
2.58299e-09
-2.04957e-07
-1.8442e-09
-2.05131e-07
-7.1854e-09
-2.04786e-07
-9.49637e-09
-2.05587e-07
-1.05923e-08
-2.00771e-07
-1.84648e-07
7.91253e-09
-1.91783e-07
7.1511e-09
-1.99317e-07
7.15293e-09
-2.04986e-07
1.99974e-09
-2.00033e-07
-2.78655e-10
-2.02679e-07
-2.5357e-09
-2.02874e-07
-6.87002e-09
-2.00451e-07
-6.7127e-09
-2.05744e-07
-7.72506e-09
-1.99759e-07
-1.92373e-07
3.03131e-08
3.21807e-08
2.43538e-08
1.43563e-08
2.54606e-10
-1.36443e-08
-2.35498e-08
-3.18871e-08
-3.02389e-08
-4.11541e-07
-1.25381e-08
4.58603e-07
-2.84802e-07
-6.89598e-08
-5.39061e-08
-2.47666e-07
2.4237e-07
-2.94113e-07
3.78446e-07
-1.70931e-07
4.05171e-07
-6.05799e-08
4.23684e-07
-4.84647e-08
3.26932e-07
-2.5908e-08
3.33312e-07
-9.93069e-09
2.34559e-09
8.42514e-07
-4.46254e-07
-2.30556e-08
3.40984e-07
-5.80635e-07
-2.00789e-07
-5.68328e-07
-5.56062e-07
-2.2749e-07
-6.43017e-07
4.99854e-09
-6.06688e-07
6.61229e-08
-1.92196e-07
1.21085e-07
-1.08853e-07
1.43684e-07
-5.20576e-08
1.39022e-07
-7.59429e-09
1.86032e-08
1.20788e-07
-1.92175e-07
-1.81323e-09
2.21504e-08
-3.30587e-07
-2.68987e-08
-4.77755e-07
-2.01572e-07
-4.94727e-07
-6.25614e-07
-2.86372e-07
-8.10082e-07
-3.69503e-08
-6.32437e-07
2.98689e-08
-4.38242e-07
-7.90004e-09
-1.97155e-08
-6.12371e-08
6.4645e-08
9.87723e-08
-1.23231e-07
-2.27228e-09
3.92405e-11
2.76307e-10
-2.79029e-08
-1.49655e-09
-5.63686e-08
-2.84666e-09
-2.13687e-07
-6.55893e-08
-1.89122e-07
-7.47878e-07
1.49494e-08
-8.69067e-07
1.64801e-07
-5.8924e-07
8.59621e-08
-5.49172e-08
4.12362e-08
1.7393e-07
1.62143e-07
-1.58561e-08
4.27246e-09
5.67219e-10
-5.19696e-09
2.23173e-09
3.16225e-10
4.85567e-10
-1.30745e-09
2.51466e-08
-9.04861e-08
1.52802e-07
-7.09906e-07
2.23522e-07
-9.34417e-07
2.94354e-07
-6.55604e-07
4.48893e-07
-2.06996e-07
2.56412e-07
1.31236e-07
1.65732e-07
2.3375e-07
4.7054e-09
8.18922e-10
-6.41432e-09
3.4252e-09
1.36796e-09
5.44828e-09
-3.55264e-09
1.91126e-07
-3.92761e-07
4.01801e-07
-1.05078e-06
4.3382e-07
-9.37908e-07
2.70217e-07
-3.43725e-07
2.6537e-07
-1.9748e-07
2.12192e-07
1.30913e-07
1.71987e-07
1.97209e-07
-1.97883e-09
1.72519e-09
-3.33122e-10
-2.22365e-09
7.71549e-10
4.11121e-08
-4.75968e-08
2.54672e-07
-9.20515e-07
3.19172e-07
-1.11197e-06
1.6928e-07
-5.54355e-07
1.45358e-08
-2.40573e-07
-3.81839e-08
-1.3358e-07
-9.27712e-09
1.03586e-07
1.56697e-07
4.79963e-08
-3.39118e-09
3.61909e-09
1.52476e-09
-3.12848e-09
-8.93474e-10
-6.74406e-09
-1.14705e-07
-1.89817e-08
-1.01301e-06
-3.11058e-08
-1.09993e-06
-1.44046e-07
-4.23454e-07
-3.11333e-07
-1.55658e-07
-3.62971e-07
-8.04748e-08
-3.09242e-07
5.1174e-08
5.7155e-08
-2.0812e-07
-1.54811e-09
3.47687e-09
2.29694e-09
-6.75201e-10
-1.66023e-09
-4.42309e-08
-1.11239e-07
-9.51916e-08
-1.01565e-06
-1.29931e-07
-1.06524e-06
-1.95018e-07
-4.38947e-07
-3.33339e-07
-7.02258e-08
-3.64072e-07
-4.83688e-08
-3.09373e-07
-1.94371e-09
-1.37073e-08
-8.12343e-08
-7.80051e-10
2.49972e-09
2.34591e-09
0
-3.39354e-09
-4.45321e-08
-7.70916e-08
-1.26415e-07
-9.65251e-07
-1.23519e-07
-1.06785e-06
-7.85195e-08
-5.13973e-07
-1.58729e-07
-1.62639e-09
-2.56022e-07
-8.83189e-10
-1.06306e-07
-1.63914e-08
-3.1487e-08
-2.70777e-08
0
1.8114e-09
3.74363e-10
0
-1.19361e-09
-3.4204e-08
-4.96007e-08
-1.22015e-07
-8.9384e-07
-1.03114e-07
-1.08636e-06
-2.20812e-08
-6.00386e-07
-4.57513e-09
-1.93861e-08
-4.86253e-09
-8.49503e-10
-1.14561e-08
-2.8344e-09
-2.16192e-09
-3.51663e-08
0
3.76134e-10
5.8754e-10
-9.1565e-10
-6.83952e-10
-2.33267e-08
-2.93266e-08
-1.23153e-07
-8.03221e-07
-1.07908e-07
-1.10122e-06
-4.61103e-08
-6.61792e-07
-1.14091e-08
-6.52971e-08
8.09028e-10
-1.33213e-08
1.06102e-08
-1.41889e-08
-2.3079e-09
8.17431e-09
0
1.60917e-11
7.93202e-11
-4.11598e-10
-5.62349e-10
-1.61969e-08
-1.29615e-08
-1.7176e-07
-6.38572e-07
-1.41716e-07
-1.13087e-06
-5.41085e-08
-7.4899e-07
-5.54748e-08
-6.35291e-08
-3.07217e-08
-3.95514e-08
1.77558e-09
-3.87163e-08
-2.15777e-08
2.44538e-08
-2.54055e-11
-4.7944e-11
0
0
-7.41e-10
-2.15284e-09
-1.02507e-08
-1.6627e-07
-4.33954e-07
-1.55985e-07
-1.14072e-06
-6.54833e-08
-8.39087e-07
-7.45112e-08
-5.40689e-08
-1.51364e-08
-6.49584e-08
1.08105e-08
-3.53362e-08
-1.90576e-08
2.49039e-08
-2.94079e-11
-8.41072e-11
2.75734e-12
0
-1.12441e-09
-4.13723e-09
-6.0502e-09
-1.39737e-07
-2.62357e-07
-1.35948e-07
-1.1438e-06
-3.76068e-08
-9.36995e-07
-2.82235e-08
-5.00869e-08
-3.50478e-08
-8.04059e-08
-3.52353e-08
-9.79991e-08
-7.13113e-08
-2.22818e-08
4.10276e-10
-1.04328e-11
-1.52814e-10
1.33953e-10
-6.02052e-10
-2.71702e-09
-2.16533e-09
-8.68283e-08
-1.51337e-07
-1.24937e-07
-1.10369e-06
-4.32265e-08
-1.01799e-06
-3.6644e-08
-5.46681e-08
-6.63213e-08
-4.26309e-08
-1.36181e-07
-9.76976e-08
-9.14797e-08
-1.1596e-07
4.78392e-11
5.87402e-14
-5.64876e-11
4.12275e-10
-3.77117e-12
-1.09246e-09
-3.45472e-10
-5.07825e-08
-8.31461e-08
-9.73764e-08
-1.03302e-06
-3.06165e-08
-1.08275e-06
-8.13442e-09
-4.49606e-08
-2.40784e-08
-2.67111e-08
-5.20534e-08
-6.96692e-08
-9.84377e-08
-4.5042e-08
3.84376e-12
7.42709e-13
-4.55153e-12
4.26103e-12
-4.21597e-12
-1.0814e-10
-2.17911e-10
-3.21278e-08
-4.02742e-08
-5.59822e-08
-9.67539e-07
-4.19851e-08
-1.07908e-06
-1.5246e-08
-8.59615e-08
1.76532e-08
-7.38721e-08
1.32707e-08
-6.49709e-08
-8.28571e-08
-2.25652e-09
3.04117e-12
1.70748e-12
-4.03608e-12
3.27979e-11
1.41184e-12
0
-7.04259e-11
-1.56163e-08
-1.97363e-08
-1.28572e-08
-9.41379e-07
-1.60054e-08
-7.67316e-07
-9.64208e-09
-1.16766e-07
-2.04267e-08
-1.00144e-07
-1.15846e-08
-7.37044e-08
-8.03236e-08
-1.40396e-08
2.58651e-12
2.02591e-12
-2.91269e-12
2.1672e-11
2.42035e-12
9.36497e-11
-4.34561e-12
-7.46688e-10
-1.73694e-08
-3.2391e-09
-9.2757e-07
-1.01273e-09
-7.90063e-07
-8.48256e-09
-1.09263e-07
-2.03176e-08
-8.82409e-08
-2.6876e-08
-6.70425e-08
-7.65328e-08
-3.05583e-08
1.01355e-12
1.31076e-12
-3.06403e-13
6.13898e-12
9.36882e-13
7.07378e-12
-4.92513e-12
4.4825e-09
-2.33081e-08
-1.87643e-09
-9.12115e-07
-7.63958e-09
-8.06691e-07
-2.73992e-08
-8.86501e-08
-3.53468e-08
-8.02614e-08
-3.51484e-08
-3.65848e-08
-3.64625e-08
1.02844e-09
5.09579e-13
2.93298e-13
5.00135e-13
1.5572e-12
-1.18797e-13
5.76555e-11
-6.10349e-11
-2.51478e-08
-3.17196e-10
-7.1965e-09
-9.21124e-07
-6.658e-09
-9.06815e-07
-3.57948e-09
-6.14893e-12
-2.46839e-08
-6.05273e-09
-2.51546e-09
-1.02917e-08
-6.23959e-09
3.16842e-09
4.03408e-12
-5.07288e-13
-9.3102e-13
4.66921e-12
-7.65425e-13
7.57888e-11
-1.90311e-10
4.21291e-11
-3.00649e-10
-9.82912e-09
-9.04432e-07
-5.81361e-12
-9.16935e-07
0
-2.1791e-11
5.98454e-09
-7.26681e-12
7.00701e-09
-9.5984e-11
-9.84749e-11
1.37944e-10
8.86085e-13
-3.08933e-13
-3.65234e-12
5.00234e-13
-6.06626e-12
4.43996e-12
-1.3524e-10
4.15905e-12
-3.18147e-10
3.48061e-10
-9.18946e-07
-2.05912e-11
-9.30072e-07
1.63596e-11
-6.48682e-11
2.41319e-11
-2.35733e-11
3.49888e-11
-1.15363e-10
-2.97661e-10
2.25739e-10
2.65566e-12
6.65055e-13
-4.88131e-12
2.21315e-12
1.97438e-12
1.98915e-11
-1.41441e-10
7.38653e-11
-3.89213e-10
3.50483e-09
-9.91524e-07
-1.24565e-10
-9.96722e-07
0
-2.02373e-10
3.61643e-11
-6.99182e-11
2.88276e-10
-5.0657e-10
-4.4022e-10
1.40286e-10
1.0462e-11
2.56692e-12
-1.18909e-11
1.6287e-11
1.38883e-11
1.03836e-11
-8.76417e-11
3.07086e-10
-7.08274e-10
-1.05905e-09
-1.03301e-06
-5.43869e-10
-1.03535e-06
-9.53544e-12
-7.95325e-10
-1.24613e-10
-4.03341e-12
-2.18435e-10
-4.58733e-10
-5.31085e-10
-1.142e-10
9.89223e-12
6.25074e-12
-6.88995e-12
1.06599e-11
2.42851e-12
0
-3.17434e-11
9.71141e-10
-1.94143e-09
2.33846e-09
-1.03001e-06
-1.46953e-09
-1.03271e-06
3.40007e-13
-4.5974e-09
2.29775e-13
-1.38489e-11
-7.03059e-12
-1.02934e-10
-4.25465e-10
-9.92817e-11
6.58939e-12
9.78351e-12
-2.69338e-12
7.61762e-12
7.74424e-12
1.78609e-11
-1.51016e-11
9.58788e-09
-4.32323e-09
1.91289e-08
-1.02454e-06
1.64277e-08
-1.02832e-06
1.20359e-11
-4.9844e-09
0
-6.81958e-12
-5.90481e-11
-8.10997e-13
-1.045e-10
-3.09236e-10
4.68986e-12
1.14441e-11
0
7.96082e-12
2.42319e-11
5.2418e-11
-1.542e-11
6.10915e-09
-4.43291e-09
1.72965e-08
-1.01924e-06
6.21761e-09
-1.02467e-06
7.66201e-12
-4.8081e-09
1.08108e-12
-3.42935e-12
2.77634e-12
-5.05511e-12
-8.81513e-13
1.58075e-10
2.36873e-12
6.96471e-12
4.62546e-13
2.03168e-11
2.09935e-11
1.23205e-10
-5.58848e-11
6.34858e-09
-3.76427e-09
1.17486e-08
-1.01509e-06
6.88953e-09
-1.02023e-06
2.95801e-12
-6.43579e-10
0
-3.52316e-12
4.9348e-12
-1.94367e-11
3.21866e-13
2.32338e-12
0
8.94422e-13
4.97738e-12
2.00353e-11
4.45174e-12
1.38994e-10
-7.66245e-11
-7.41155e-09
-8.79935e-10
-1.67173e-08
-1.01403e-06
-4.50125e-09
-1.01242e-06
-1.53035e-12
-1.76713e-10
-4.54327e-12
-3.87237e-12
1.55694e-12
-2.50006e-11
6.17492e-14
4.09017e-13
0
1.98746e-13
3.1625e-13
8.8722e-13
7.20575e-14
4.75646e-11
-5.19897e-11
1.7409e-10
-9.51744e-10
-2.33053e-09
-1.00772e-06
-8.05181e-10
-1.01105e-06
-3.07702e-12
-3.31171e-10
-4.81237e-12
-3.88169e-12
9.04634e-13
-3.02565e-11
-5.5485e-12
5.10684e-12
-8.81154e-14
7.93593e-14
9.57185e-14
-3.41895e-12
-1.25935e-16
7.93924e-12
-7.21655e-11
5.74917e-10
-1.52824e-09
3.93449e-09
-1.00508e-06
-8.87153e-10
-1.00834e-06
-3.21408e-12
-1.21644e-09
-2.89039e-12
-3.30834e-12
0
-3.15954e-11
-5.44831e-12
1.3177e-12
-4.90297e-13
2.75477e-13
2.10241e-13
-4.69353e-11
-5.50547e-12
0
-3.81401e-10
7.47876e-10
-3.64215e-09
-3.09881e-09
-9.98631e-07
-3.5653e-09
-1.00035e-06
-3.22242e-12
-6.39857e-09
0
-1.25727e-12
4.01088e-12
-3.44296e-11
-1.08637e-11
2.53255e-12
-7.32203e-12
4.96222e-12
2.26094e-12
-4.40568e-11
-1.0507e-10
0
-7.60406e-10
-6.03369e-09
-7.02384e-09
-8.30093e-09
-9.93983e-07
-3.518e-09
-9.93767e-07
-7.05848e-12
-7.07199e-09
0
-9.23354e-13
8.07464e-12
-4.09708e-11
-1.9832e-11
1.56015e-11
-2.26007e-10
-3.72944e-10
1.01941e-10
0
-6.11896e-10
1.16103e-12
-5.97008e-10
-2.20795e-09
-4.59561e-09
-5.26282e-09
-9.86119e-07
-1.86823e-09
-9.84048e-07
-2.57622e-12
-7.18082e-09
-1.40578e-12
-4.67246e-12
-1.89621e-12
-2.08126e-11
-1.89546e-11
0
-8.82525e-11
-1.01052e-09
7.35168e-10
1.88979e-10
-8.80992e-10
2.0906e-10
-4.8721e-10
1.58153e-08
-1.83934e-09
3.30399e-08
-9.72036e-07
2.58846e-08
-9.80936e-07
4.27929e-12
-8.91672e-10
0
-4.25414e-13
1.04419e-13
-3.22529e-13
-1.48672e-11
3.12783e-12
-6.04324e-11
-1.27143e-09
3.30105e-10
4.13412e-11
-1.34464e-09
6.92334e-11
-4.19568e-10
1.04045e-09
-2.8316e-09
3.73966e-09
-9.66177e-07
-3.49743e-09
-9.62282e-07
-2.08547e-14
-1.91452e-09
-1.58411e-14
-4.62676e-13
-7.13028e-14
-2.99315e-13
-1.22507e-12
2.81044e-13
2.59656e-11
-1.23586e-09
-5.03528e-11
3.73854e-11
-1.24996e-09
9.38664e-11
-4.16848e-10
9.85196e-09
-1.56079e-09
1.42679e-08
-9.55577e-07
8.70311e-09
-9.59161e-07
-3.34133e-13
-1.03965e-12
-3.32226e-14
-7.96048e-13
-1.32474e-14
-3.72889e-13
-1.82269e-12
-7.00848e-14
-2.44264e-10
-5.20948e-11
-3.43242e-11
-2.02167e-10
-2.93152e-10
1.22195e-10
-1.23661e-09
-4.32473e-09
-1.60882e-10
-1.106e-08
-9.58388e-07
-1.43221e-13
-9.55804e-07
-8.61212e-14
-1.27339e-12
-2.53462e-14
-9.29129e-13
-4.83016e-13
0
-3.40448e-12
-3.20863e-14
-4.37203e-11
-1.15618e-11
3.53887e-12
-2.98419e-10
-2.93693e-10
3.45272e-11
-1.83584e-09
3.19621e-11
-1.59239e-10
-1.26266e-09
-9.55793e-07
-1.13799e-12
-9.57858e-07
-3.02284e-13
-1.69445e-12
-9.76868e-13
-1.26907e-11
-1.09999e-12
-4.24566e-11
-4.25457e-12
-3.85492e-15
-6.28373e-12
-1.2169e-11
3.96142e-12
-1.21346e-11
-1.14488e-09
3.1054e-11
-1.87005e-09
2.88304e-11
-1.60047e-10
5.14744e-10
-9.61832e-07
-2.73987e-12
-9.61999e-07
-9.7233e-13
-1.85155e-12
-4.56488e-12
-2.15969e-11
-1.45008e-12
-6.12251e-11
-2.41906e-12
-1.07079e-13
1.28817e-11
-4.07204e-12
1.31116e-12
1.28287e-10
-1.65714e-09
6.81168e-11
-1.79533e-09
5.88583e-11
-1.53127e-10
-1.85591e-09
-9.73979e-07
-1.9963e-12
-9.7456e-07
-1.01299e-12
-1.71565e-12
-5.03136e-12
-1.90553e-11
-1.8277e-13
-6.40085e-11
-2.39005e-12
-8.56632e-14
2.49216e-12
-7.34927e-12
6.88133e-13
6.86065e-11
-1.22837e-09
2.99526e-11
-1.73976e-09
2.47636e-11
-1.51411e-10
-1.06923e-09
-9.84112e-07
-3.7098e-13
-9.84558e-07
-5.77553e-13
-1.6386e-12
-3.72182e-12
-9.79138e-12
-1.34801e-13
-6.55303e-11
-4.3795e-12
-1.80732e-14
-6.03084e-14
-8.37321e-12
9.37623e-13
-4.62867e-11
-3.77712e-10
0
-1.01217e-09
1.96878e-12
-1.56987e-10
-6.7333e-11
-9.8926e-07
-6.32613e-14
-9.89693e-07
-2.31392e-13
-1.61137e-12
-2.67737e-12
-4.16191e-12
-3.79483e-13
-6.5763e-11
-5.51909e-12
0
-9.60388e-12
-6.64489e-12
8.10703e-13
-2.4583e-11
-3.24896e-10
0
-5.70364e-10
1.52468e-11
-1.75686e-10
-1.18156e-09
-9.93366e-07
-2.44064e-14
-9.9365e-07
-1.2522e-13
-1.65146e-12
-1.58015e-12
-1.10149e-12
-1.56917e-12
-4.19024e-11
-6.23835e-12
0
3.58033e-12
-1.12756e-11
-2.05205e-13
9.79896e-11
-1.64667e-09
8.61247e-11
-1.65387e-09
1.05602e-10
-1.99222e-10
-4.42201e-10
-9.99452e-07
-6.40908e-13
-9.99579e-07
-5.0861e-14
-2.38438e-12
-2.78565e-14
-7.42088e-13
-2.0942e-13
-3.92903e-12
-5.12403e-12
4.47314e-14
3.27557e-11
-4.09086e-11
-4.81145e-12
4.59315e-10
-2.12019e-09
2.46459e-10
-1.75511e-09
2.39894e-10
-2.01248e-10
-8.67183e-10
-1.00654e-06
-4.79713e-12
-1.00705e-06
-3.13233e-14
-7.29501e-12
-4.99147e-14
-8.68326e-13
1.07262e-14
-7.42537e-12
-3.35762e-12
8.08448e-14
1.62382e-10
-1.80481e-10
-2.72097e-11
2.79292e-10
-2.23342e-09
1.41029e-10
-1.38362e-09
1.47864e-10
-2.20393e-10
-4.3326e-10
-1.01465e-06
-2.89186e-11
-1.01488e-06
-1.02626e-13
-3.62811e-11
-2.7624e-13
-8.7281e-13
3.154e-13
-3.74411e-11
-4.22166e-12
0
2.93349e-10
-7.42011e-10
-8.76656e-11
7.46196e-11
-1.96835e-09
2.4123e-11
-7.4885e-10
2.04405e-10
-4.08836e-10
-5.05369e-10
-1.02065e-06
-1.78812e-10
-1.02172e-06
-4.86343e-13
-2.1716e-10
-9.06866e-13
-3.35925e-13
1.32422e-12
-3.90547e-11
-1.48268e-11
0
3.24213e-12
-1.80781e-09
-1.27096e-10
-6.99054e-11
-1.89518e-09
0
-5.2898e-10
3.51207e-10
-7.70625e-10
-3.79346e-10
-1.02002e-06
-1.609e-10
-1.0204e-06
-5.7103e-15
-5.83682e-10
0
-7.6566e-13
1.9734e-12
-4.03302e-11
-1.94166e-11
2.92199e-13
-1.02661e-10
-1.818e-09
-1.1538e-11
-5.80508e-11
-1.93468e-09
1.25808e-11
-6.04894e-10
4.6061e-09
-6.05411e-09
-1.44558e-09
-1.01047e-06
-5.09983e-09
-1.01127e-06
-2.26264e-12
-5.68352e-09
8.45228e-14
-3.54023e-12
1.56841e-12
-2.36205e-11
-1.16161e-11
4.4589e-13
4.74032e-10
-1.8199e-09
-4.21903e-10
4.22085e-12
-1.44568e-09
0
-6.77965e-10
1.44604e-09
-8.96648e-09
4.59229e-09
-1.00263e-06
-1.04446e-11
-1.00191e-06
0
-1.50635e-08
0
-1.71768e-11
5.5503e-13
0
0
3.60069e-13
6.47297e-10
-1.75218e-09
-7.01797e-10
6.64901e-10
-1.29012e-09
4.59337e-10
-3.27781e-10
1.97876e-08
-2.01166e-08
4.01384e-08
-9.84217e-07
1.77591e-08
-9.94122e-07
2.84989e-11
-1.51682e-08
0
-1.76674e-12
1.18017e-12
-7.37275e-11
-1.6625e-11
2.88644e-13
4.62027e-10
-1.62557e-09
-5.75422e-10
1.29415e-10
-9.92388e-10
0
-8.76565e-13
-2.54526e-08
-1.5601e-08
-2.17339e-08
-9.8508e-07
-1.24018e-08
-9.79781e-07
-8.6218e-12
-1.33597e-08
-1.40559e-11
-1.95315e-12
-3.86559e-12
-2.28293e-10
-1.90345e-10
1.50718e-12
3.08991e-10
-1.41076e-09
-5.10584e-10
0
-3.27483e-10
4.77416e-12
-7.684e-12
7.12709e-09
-1.60282e-08
2.44659e-09
-9.71405e-07
-2.03654e-09
-9.7077e-07
-1.8564e-11
-1.32296e-08
-1.97788e-11
-8.0695e-13
-2.27459e-11
-2.25165e-10
-2.19355e-10
6.39414e-12
-5.42108e-11
-9.89441e-10
-3.36789e-10
0
-2.95458e-11
-7.68387e-12
-1.38402e-16
-1.20764e-08
-9.75326e-09
-2.48855e-08
-9.66828e-07
-1.21791e-08
-9.6065e-07
-5.61014e-12
-1.03051e-08
-6.07303e-12
-3.44057e-13
-7.82634e-12
-8.07888e-11
-2.50967e-10
2.39156e-11
-1.88436e-10
-2.07725e-12
1.16127e-10
0
-4.02534e-11
1.74845e-17
-1.65385e-16
5.06555e-09
-1.09543e-08
-2.74375e-09
-9.51832e-07
-5.60216e-09
-9.50664e-07
-2.15596e-14
-1.12687e-08
0
-3.65618e-13
1.31086e-11
-2.49868e-13
-2.87111e-10
4.96886e-11
-2.13543e-12
-3.2673e-14
8.50247e-14
0
-1.90289e-14
2.18236e-17
-1.98609e-16
4.12552e-09
-1.14471e-08
2.14009e-09
-9.42701e-07
-2.2558e-09
-9.43111e-07
-8.28957e-15
-1.16189e-08
1.38209e-14
-3.87734e-13
4.44979e-14
-2.80547e-13
-1.37178e-10
5.83527e-11
3.68178e-16
-3.08717e-14
-2.19917e-15
1.05001e-16
-1.87637e-14
2.25877e-16
-3.25636e-16
6.02692e-09
-1.7215e-08
2.93051e-10
-9.36787e-07
-5.96113e-09
-9.3679e-07
-1.34216e-14
-1.70458e-08
1.35064e-14
-4.14664e-13
5.40796e-14
-3.21119e-13
-2.9781e-11
6.25281e-11
6.21886e-15
-2.17622e-13
0
1.67173e-15
-8.9111e-15
1.54309e-15
-1.87087e-16
3.0832e-09
-2.45987e-08
-8.0992e-10
-9.44296e-07
-3.63867e-09
-9.44459e-07
-1.15835e-14
-2.46588e-08
1.19088e-14
-4.38155e-13
9.02279e-14
-3.99441e-13
-2.99509e-11
3.52903e-11
0
-1.97285e-13
0
1.15e-15
-2.0375e-15
1.03753e-15
-7.29663e-17
6.75398e-09
-3.96207e-08
-4.18169e-10
-9.56553e-07
-7.34981e-09
-9.56276e-07
-1.83428e-14
-4.00699e-08
6.97732e-16
-4.57199e-13
4.38899e-13
-8.37634e-13
-8.65435e-11
1.65296e-11
2.1593e-15
-1.10777e-14
0
2.00596e-16
-7.71527e-17
1.72107e-16
-5.2746e-17
3.30631e-09
-5.39485e-08
-2.47033e-10
-9.72436e-07
-3.22477e-09
-9.72605e-07
-3.46764e-14
-5.42858e-08
-1.76495e-14
-4.74217e-13
2.23474e-14
-1.41757e-12
-1.42078e-10
2.29315e-12
0
-4.52177e-17
-1.11157e-14
8.22199e-18
-1.16195e-16
2.32216e-18
-5.51146e-17
7.62845e-09
-7.50568e-08
-9.67561e-11
-9.80392e-07
-7.88997e-09
-9.80136e-07
-1.01288e-13
-7.52676e-08
-8.69491e-14
-4.8826e-13
0
-1.15426e-12
-1.4652e-10
-2.16043e-11
8.49423e-18
-1.16103e-16
-7.08759e-17
2.5896e-17
-3.25916e-16
2.57702e-17
-6.32574e-17
2.8391e-09
-9.03958e-08
-4.24395e-10
-9.82945e-07
-3.01995e-09
-9.83035e-07
-1.44028e-13
-9.02229e-08
-1.03462e-13
-5.20776e-13
-1.51348e-13
-1.04085e-12
-8.52488e-11
-2.92587e-11
2.81363e-17
-2.55013e-16
-2.24926e-17
9.88905e-17
-9.03668e-16
1.10334e-16
-8.32533e-17
8.05828e-09
-1.0741e-07
-9.41768e-10
-9.72329e-07
-8.01391e-09
-9.72848e-07
-3.27439e-13
-1.05048e-07
-1.09638e-13
-6.51254e-13
0
-1.43275e-12
-7.15864e-11
-2.90502e-11
6.5629e-16
0
-1.54127e-16
1.14872e-16
-1.80497e-15
1.98052e-16
-1.73048e-16
-6.47739e-09
-1.05884e-07
-9.94947e-09
-9.64268e-07
-8.65995e-09
-9.64848e-07
-1.04616e-12
-1.10244e-07
-2.16321e-13
-7.53132e-13
0
-2.23768e-12
-9.2896e-11
-4.41285e-11
4.05444e-15
-1.05374e-14
-7.25214e-15
3.50745e-16
-5.09526e-16
8.58522e-16
-6.6622e-16
9.33475e-09
-1.08583e-07
1.22924e-09
-9.49492e-07
-3.24892e-09
-9.50179e-07
-1.2331e-12
-1.09299e-07
-4.45893e-13
-8.32079e-13
0
-3.16471e-12
-1.20375e-10
-7.92156e-11
4.18073e-16
-8.11093e-15
-9.14362e-14
7.81199e-16
-1.33071e-15
4.64899e-15
-4.51192e-15
7.94815e-09
-1.02556e-07
5.8838e-09
-9.38255e-07
-2.3921e-11
-9.38158e-07
-1.15431e-12
-1.02202e-07
-8.72683e-13
-1.23347e-12
-5.78682e-12
-6.52847e-12
-1.60118e-10
-9.56023e-11
0
-1.90932e-13
0
1.97398e-14
-1.7837e-13
3.63017e-14
-2.13832e-14
7.28846e-09
-9.71537e-08
-1.26211e-09
-9.19767e-07
-1.0532e-08
-9.18602e-07
-3.74822e-12
-9.69533e-08
-3.28264e-12
-2.58099e-12
-2.05049e-11
-3.0409e-11
-2.30256e-10
-9.43111e-11
0
-2.36116e-11
-2.85367e-11
1.33437e-13
-7.20606e-13
1.71758e-13
-6.22281e-14
8.38032e-09
-8.54085e-08
4.73131e-09
-9.00679e-07
-2.65816e-09
-9.0128e-07
-1.27663e-11
-8.56795e-08
-1.19207e-11
-4.72382e-12
-7.97204e-11
-8.64945e-11
-1.99801e-10
-1.1016e-10
2.43746e-12
-3.54788e-12
-1.35039e-10
6.39615e-13
-3.13132e-14
5.7829e-13
-8.63206e-16
1.05151e-08
-8.06305e-08
1.13422e-09
-8.78019e-07
-9.48237e-09
-8.78173e-07
-2.75931e-11
-8.10159e-08
-2.84444e-11
-5.66316e-12
-8.46696e-11
-1.1083e-10
-1.7206e-10
-1.124e-10
3.97313e-14
2.56009e-15
-2.15985e-11
9.26093e-15
-8.03198e-16
8.41828e-15
-1.00485e-17
5.73984e-09
-7.44117e-08
-1.76918e-09
-8.60365e-07
-7.71073e-09
-8.6097e-07
-2.93987e-11
-7.52455e-08
-3.25013e-11
-3.57486e-12
-7.65803e-11
-9.69823e-11
-1.47079e-10
-1.01546e-10
8.8295e-16
0
0
1.06053e-16
-1.57957e-17
9.64418e-17
-3.32343e-19
9.29321e-09
-7.47238e-08
-3.6155e-09
-8.41758e-07
-1.29592e-08
-8.42641e-07
-2.28721e-11
-7.60508e-08
-2.3998e-11
-2.10029e-12
-3.94331e-11
-8.61582e-11
-1.3023e-10
-5.6143e-11
1.63043e-17
0
0
1.25507e-18
-6.41937e-19
1.14216e-18
-2.22822e-19
6.66421e-09
-8.65337e-08
-3.11838e-09
-8.41432e-07
-1.00745e-08
-8.40325e-07
-1.59417e-11
-8.65085e-08
-1.68315e-11
-1.02715e-12
-4.9204e-11
-6.03022e-11
-1.05008e-10
-7.40865e-11
4.2779e-20
1.12464e-19
-2.74717e-17
1.89222e-19
-7.44887e-19
1.7482e-19
-2.13728e-19
1.32992e-08
-1.1849e-07
7.14692e-10
-8.4133e-07
-1.18802e-08
-8.42287e-07
-6.42547e-12
-1.18446e-07
-6.88483e-12
-5.91257e-13
-3.48074e-11
-3.19915e-11
-8.51233e-11
-5.34308e-11
2.15689e-19
7.18477e-20
-2.57542e-18
1.63154e-19
-6.37751e-19
1.49927e-19
-2.06272e-19
8.42461e-09
-1.48199e-07
6.69548e-11
-8.45365e-07
-8.67291e-09
-8.45703e-07
-3.14712e-12
-1.48142e-07
-3.41342e-12
-3.7298e-13
-2.8491e-11
-6.74927e-12
-4.2717e-11
-6.89447e-11
2.59403e-19
6.25632e-20
-3.25297e-19
1.91914e-19
-4.80506e-19
1.77199e-19
-1.97603e-19
1.42808e-08
-1.79355e-07
-1.56647e-10
-8.3938e-07
-1.42798e-08
-8.39907e-07
-1.35724e-12
-1.79263e-07
-1.48883e-12
-2.71342e-13
-5.82975e-12
-1.62222e-12
-1.99874e-11
-1.11952e-11
2.31107e-19
6.788e-20
-1.23375e-19
1.55064e-19
-3.38662e-19
1.39129e-19
-1.89537e-19
7.34937e-09
-1.95872e-07
2.31616e-11
-8.35678e-07
-7.40617e-09
-8.36031e-07
-7.33394e-13
-1.95778e-07
-7.71756e-13
-2.45156e-13
-4.2019e-12
-4.39578e-13
-2.19714e-12
-3.77692e-11
2.3054e-19
6.35818e-20
-1.23292e-19
1.36737e-19
-2.16476e-19
1.19567e-19
-1.81217e-19
1.60957e-08
-2.14497e-07
-2.34735e-10
-8.20199e-07
-1.64152e-08
-8.2049e-07
-1.01405e-12
-2.14436e-07
-1.08986e-12
-1.73871e-13
-2.16492e-12
1.53703e-13
8.46278e-12
-5.07024e-11
1.87256e-19
5.15116e-20
-1.19775e-19
8.17305e-20
-1.13002e-19
6.42162e-20
-1.72517e-19
8.69233e-09
-2.192e-07
-8.44857e-11
-8.10106e-07
-8.81715e-09
-8.1032e-07
-8.83584e-13
-2.19221e-07
-9.23351e-13
-1.37538e-13
0
2.70643e-13
5.95945e-12
-1.50152e-11
1.40918e-19
3.09973e-20
-1.11586e-19
5.31034e-20
-3.58044e-20
2.04656e-19
-3.33179e-19
1.92027e-08
-2.29647e-07
3.06682e-10
-7.88678e-07
-1.90886e-08
-7.88364e-07
-1.12702e-12
-2.29772e-07
-1.21772e-12
-5.14078e-14
0
-2.16154e-14
7.17636e-12
-6.88278e-13
7.58054e-20
1.54478e-20
-7.53408e-20
3.13765e-20
-4.96264e-22
2.70836e-18
-3.01492e-18
1.15348e-08
-2.30688e-07
2.15761e-10
-7.74908e-07
-1.13882e-08
-7.74259e-07
-4.62414e-13
-2.30847e-07
-4.98744e-13
-1.75635e-14
-5.41086e-13
-1.59512e-13
5.05055e-12
2.61493e-13
3.29042e-20
5.00766e-21
-3.79625e-20
3.24096e-20
-9.41932e-23
3.14213e-17
-3.4404e-17
2.33115e-08
-2.43737e-07
3.49094e-10
-7.49795e-07
-2.31914e-08
-7.48512e-07
-1.8966e-13
-2.43955e-07
-2.07136e-13
-3.53876e-16
-9.47349e-13
-8.19001e-15
1.84638e-12
4.24497e-13
7.92367e-21
8.40664e-22
-1.10944e-20
7.84815e-21
-2.404e-23
3.65313e-16
-3.9971e-16
1.42419e-08
-2.52976e-07
-1.45385e-10
-7.34735e-07
-1.46785e-08
-7.33212e-07
-1.46125e-15
-2.53405e-07
-1.50491e-15
-4.83756e-16
-2.2551e-14
-1.94914e-16
0
-1.50899e-13
1.19101e-21
6.15623e-23
-1.64711e-21
1.18014e-21
-1.29734e-23
4.36671e-15
-4.76642e-15
2.77846e-08
-2.8157e-07
-3.2144e-10
-7.06844e-07
-2.85259e-08
-7.05148e-07
-4.96383e-15
-2.82307e-07
-4.38275e-17
-5.44441e-15
-2.42994e-16
-1.63675e-19
0
-1.51613e-15
1.13015e-22
4.5071e-24
-9.73026e-23
1.12201e-22
-1.15885e-23
5.29726e-14
-5.7739e-14
1.64411e-08
-3.03062e-07
-1.17671e-10
-6.90823e-07
-1.68825e-08
-6.88933e-07
-6.23175e-14
-3.04015e-07
-2.31778e-18
-6.77598e-14
-2.3761e-18
-1.03418e-19
3.70908e-19
-7.29688e-18
1.63445e-23
1.6163e-24
-5.06019e-24
1.55369e-23
-1.01495e-23
6.6137e-13
-7.19109e-13
3.22817e-08
-3.42915e-07
-3.13811e-10
-6.58714e-07
-3.2446e-08
-6.57337e-07
-8.01189e-13
-3.43919e-07
-2.94308e-18
-8.68946e-13
-3.07194e-18
-8.11398e-20
6.02767e-19
-2.28193e-18
1.99107e-24
3.69792e-26
-4.55913e-25
1.44427e-21
-1.45245e-21
8.41206e-12
-9.13117e-12
1.76892e-08
-3.67989e-07
-3.49422e-09
-6.37632e-07
-1.78346e-08
-6.4319e-07
-1.05081e-11
-3.69124e-07
-2.14522e-18
-1.1377e-11
-2.25963e-18
-8.01079e-20
5.34861e-19
-2.03884e-18
2.333e-25
-9.66182e-28
-2.39523e-25
1.0277e-19
-1.04222e-19
1.09543e-10
-1.18674e-10
2.64363e-08
-4.00227e-07
-3.96784e-09
-6.07082e-07
-4.02681e-08
-6.0706e-07
-1.42297e-10
-4.15305e-07
-1.42027e-19
-1.53674e-10
-1.26524e-19
-2.0875e-19
2.34469e-21
-3.50471e-19
2.30365e-25
-2.71629e-26
-2.46286e-25
6.0165e-18
-6.12072e-18
1.38878e-09
-1.50746e-09
3.83198e-08
-4.37265e-07
2.21843e-08
-5.91052e-07
1.25259e-09
-5.86359e-07
-1.5874e-09
-4.12129e-07
-2.83265e-17
-1.74107e-09
-2.31497e-20
-2.85037e-17
1.41019e-22
-2.91324e-21
3.50477e-24
2.35508e-26
-1.62566e-24
1.35265e-16
-1.41386e-16
1.26171e-08
-1.41787e-08
2.24718e-08
-4.52264e-07
-1.69405e-08
-5.51639e-07
-3.68776e-08
-5.66524e-07
-1.28465e-08
-4.25231e-07
-1.55682e-15
-1.45875e-08
-2.25532e-22
-1.58532e-15
1.48495e-24
-8.60483e-23
8.6642e-24
3.46085e-26
-8.57569e-24
1.18696e-14
-1.2011e-14
5.02627e-09
-2.04715e-08
-2.44181e-08
-4.21712e-07
-4.79567e-08
-5.28104e-07
-9.30309e-08
-5.21456e-07
-4.13662e-08
-4.75988e-07
-6.66746e-14
-5.39077e-08
-3.96044e-24
-6.82599e-14
2.11469e-26
-2.50271e-24
1.37071e-23
1.45138e-26
-1.39021e-23
4.73058e-13
-4.85069e-13
2.77652e-08
-4.43557e-08
4.28447e-08
-4.315e-07
9.20489e-09
-4.94471e-07
-2.21216e-08
-4.90135e-07
-3.83847e-08
-4.59628e-07
-2.25654e-12
-9.245e-08
-5.55692e-26
-2.3248e-12
1.78822e-27
-4.03254e-26
8.88519e-26
6.94855e-29
-3.05757e-25
1.70119e-11
-1.7497e-11
3.71996e-08
-8.02853e-08
2.49629e-08
-4.17569e-07
-1.77325e-08
-4.51782e-07
-5.69477e-08
-4.50918e-07
-6.95802e-08
-4.47485e-07
-6.56756e-11
-1.62986e-07
-1.33675e-26
-6.80004e-11
3.11238e-28
-1.52723e-26
3.1067e-14
-3.1067e-14
-1.00181e-25
5.9293e-10
-6.10396e-10
9.17076e-08
-1.75653e-07
7.58693e-08
-4.02348e-07
3.21312e-08
-4.08043e-07
-9.99347e-09
-4.08789e-07
-5.57979e-08
-4.01462e-07
-1.73461e-09
-2.11734e-07
-4.84606e-14
-1.80256e-09
-4.84606e-14
-1.15028e-25
6.51569e-12
-6.54676e-12
-1.03751e-26
1.16528e-08
-1.22567e-08
7.66759e-08
-2.41151e-07
3.03655e-08
-3.56036e-07
-1.06301e-08
-3.67045e-07
-5.35244e-08
-3.65897e-07
-9.8706e-08
-3.56276e-07
-2.38881e-08
-2.79043e-07
-1.07025e-11
-2.56801e-08
-1.0751e-11
1.29242e-26
7.03476e-10
-7.10022e-10
-3.69627e-26
5.58871e-08
-6.60997e-08
1.08045e-07
-2.87923e-07
5.99123e-08
-3.07902e-07
3.46183e-09
-3.10595e-07
-4.73698e-08
-3.15065e-07
-8.92236e-08
-3.14424e-07
-7.51261e-08
-2.96779e-07
-9.96144e-10
-1.00307e-07
-1.00689e-09
-1.09662e-26
2.87814e-08
-2.94914e-08
-9.09926e-26
1.44404e-07
-1.84109e-07
1.0806e-07
-2.52043e-07
6.65127e-08
-2.66355e-07
2.38646e-08
-2.67946e-07
-2.50674e-08
-2.66133e-07
-7.99377e-08
-2.59554e-07
-1.29906e-07
-2.46808e-07
-3.08085e-08
-1.94973e-07
-3.18154e-08
-7.24124e-26
9.08589e-08
-1.64478e-25
9.70568e-08
6.02982e-08
2.08109e-08
-1.35678e-08
-4.43187e-08
-7.14462e-08
-9.80885e-08
-9.58565e-08
-6.63076e-26
8.51174e-07
3.05343e-08
8.46133e-07
4.32195e-08
7.98749e-07