/*--------------------------------*- C++ -*----------------------------------*\
  =========                 |
  \\      /  F ield         | OpenFOAM: The Open Source CFD Toolbox
   \\    /   O peration     | Website:  https://openfoam.org
    \\  /    A nd           | Version:  8
     \\/     M anipulation  |
\*---------------------------------------------------------------------------*/
FoamFile
{
    version     2.0;
    format      ascii;
    class       volScalarField;
    location    "0.9";
    object      alpha.water;
}
// * * * * * * * * * * * * * * * * * * * * * * * * * * * * * * * * * * * * * //

dimensions      [0 0 0 0 0 0 0];

internalField   nonuniform List<scalar> 
9150
(
1
1
1
1
1
1
1
1
1
1
1
1
1
1
1
1
1
1
1
1
1
1
1
1
1
1
1
1
1
1
1
1
1
1
1
1
1
1
1
1
1
1
1
1
1
1
1
1
1
1
1
1
1
1
1
1
1
1
1
1
1
1
1
1
1
1
1
1
1
1
1
1
1
1
1
1
1
1
1
1
1
1
1
1
1
1
1
1
1
1
1
1
1
1
1
1
1
1
1
1
1
1
1
1
1
1
1
1
1
1
1
1
1
1
1
1
1
1
1
1
1
1
1
1
1
1
1
1
1
1
1
1
1
1
1
1
1
1
1
1
1
1
1
1
1
1
1
1
1
1
0.579721
0.527276
0.539649
0.554506
0.505746
0.500928
0.489965
0.238039
0.152233
0.395977
0.153657
0.241592
0.554506
0.575071
0.340634
0.175603
0.152834
0.152233
0.15197
0.15197
0.143073
0.368851
0.496909
0.591774
0.605517
0.484219
0.293648
0.152834
0.400741
0.580651
0.00262392
0.00260586
0.00260268
0.19726
0.611353
0.633551
0.634678
0.263757
0.557316
0.594764
0.00265293
0.00260144
0.00260268
0.00260268
0.395166
0.633715
0.636323
0.636366
0.537991
0.392202
0.0106209
0.00260586
0.00260057
0.0377039
0.443322
0.626295
0.614829
0.63726
0.610328
0.383887
0.00313352
0.00287859
0.00281289
0.411939
0.648345
0.516275
0.304755
0.637306
0.643138
0.579798
0.00302929
0.00313302
0.0474673
0.578408
0.650573
0.394617
0.297936
0.643249
0.643363
0.643138
0.00288804
0.00302929
0.0694282
0.575132
0.653333
0.489858
0.271607
0.643283
0.643138
0.470599
0.00266784
0.00374855
0.050159
0.535162
0.654331
0.589829
0.121724
0.44877
0.417993
0.0465119
0.00387571
0.00685613
0.0305534
0.501687
0.654507
0.638425
0.116772
0.116772
0.121704
0.122717
0.00348755
0.00102634
0.0180485
0.450793
0.654526
0.654536
0.404635
0.116772
0.117176
0.117806
0.000606346
0.000652611
0.00781895
0.382009
0.654542
0.65453
0.654537
0.435805
0.198543
0.167291
0.000325108
0.0015586
0.00231028
0.273787
0.654512
0.654533
0.654512
0.592645
0.3549
0.448589
0.00180724
0.00328162
0.0031256
0.172645
0.654238
0.654512
0.619293
0.397912
0.416576
0.441695
0.00172386
0.00381898
0.00157529
0.101125
0.653353
0.654238
0.653348
0.440341
0.645123
0.661735
1.15784e-05
0.000746846
0.000466951
0.0575905
0.582452
0.653348
0.582365
0.634814
0.661735
0.661735
1.13643e-05
1.14313e-05
3.63486e-05
0.0310714
0.546768
0.646043
0.38614
0.38614
0.538394
0.661735
1.13549e-05
4.94435e-05
0.000270764
0.0164042
0.52882
0.464236
0.470525
0.479039
0.661666
0.661704
1.12976e-05
5.26828e-05
8.74859e-05
0.0103845
0.524855
0.444378
0.661468
0.661571
0.661672
0.661666
1.12966e-05
3.31395e-05
1.24531e-05
0.00970388
0.525458
0.444118
0.660948
0.661469
0.62909
0.497204
1.12976e-05
1.12965e-05
1.13607e-05
0.0127923
0.525472
0.51216
0.259883
0.37606
0.0900779
0.0387786
4.54405e-05
1.13607e-05
0.000358212
0.000194576
0.521239
0.546179
2.38968e-05
0.00531027
0.0108788
0.000915108
2.91087e-05
2.95698e-05
0.000884004
0.0001947
0.548882
0.547827
2.28915e-05
2.37057e-05
2.39125e-05
2.99649e-05
2.91083e-05
0.000382342
0.000683338
0.000194595
0.570684
0.573991
2.43565e-05
2.43573e-05
0.000467798
0.00214912
2.91623e-05
0.000380359
0.00023635
0.000199318
0.61223
0.613748
3.47029e-05
0.000118572
0.0024365
0.00244277
3.07613e-05
0.000141682
0.000216122
0.000252801
0.623
0.623623
0.000387513
8.74755e-06
0.00104664
0.00244277
3.19355e-05
3.45733e-05
0.000148459
0.000281283
0.622328
0.623623
0.00300138
7.3696e-06
0.000130262
0.00240741
3.68446e-05
7.65383e-05
0.000114042
0.00234966
0.622109
0.623623
0.00294858
5.98253e-06
6.35304e-06
0.000418581
4.41308e-05
0.000144016
0.000197089
0.00240648
0.621806
0.623351
0.00236773
5.96202e-06
3.51342e-05
1.06958e-05
2.95969e-05
4.83332e-05
0.000510908
0.00167022
0.624831
0.622434
5.98253e-06
6.00692e-06
0.000109501
1.06958e-05
1.71784e-06
1.88032e-06
0.000587568
0.000591832
0.625083
0.627496
6.04117e-06
6.09815e-06
0.000109576
1.06958e-05
1.1849e-06
1.79326e-06
0.000567816
0.000581992
0.628699
0.629962
5.74528e-06
5.41595e-06
0.000104742
7.44977e-05
1.16853e-06
3.33384e-05
0.00170818
0.000834711
0.631975
0.631865
0.00077974
4.055e-06
0.000109394
5.48135e-05
1.39558e-06
0.000758924
0.00259137
0.00335211
0.631865
0.631911
0.00420084
1.41493e-06
0.000109461
8.48482e-05
0.00145352
0.00242294
0.0021152
0.0043951
0.631505
0.631629
0.0042709
1.03957e-06
9.85691e-05
0.000111453
0.00306561
0.00306653
0.00104544
0.00175825
0.627234
0.631275
0.00415703
6.35684e-07
2.09867e-05
0.00010895
0.00306656
0.00253333
0.00103084
0.00105842
0.628567
0.62868
0.000305186
6.35684e-07
6.35684e-07
1.86278e-05
0.00306439
0.00301182
0.00101433
0.000782605
0.62934
0.625402
0.00100351
6.35684e-07
6.40512e-07
1.01168e-06
0.00188464
0.00135862
0.0010229
0.000605479
0.63359
0.632081
6.99198e-07
6.58909e-07
7.36971e-07
1.48018e-05
8.39481e-06
0.000120608
0.00236337
0.000118879
0.638681
0.640265
7.124e-07
6.49235e-06
2.67352e-05
2.16188e-05
8.73065e-06
0.00122414
0.00236337
0.000116663
0.645553
0.646109
7.95748e-07
2.71715e-05
0.000154423
1.50338e-05
2.96592e-05
0.00225646
0.00236415
0.000113642
0.660983
0.659586
1.03853e-06
3.43272e-05
0.00015445
1.01401e-05
7.69022e-06
0.00220177
0.00236187
0.000112743
0.673343
0.674372
1.19266e-06
2.16439e-05
0.00015445
1.09137e-05
8.54331e-06
0.000803976
0.00186135
0.000112833
0.685667
0.685255
1.18879e-06
9.76607e-06
0.00015445
1.99466e-05
1.13705e-05
0.00039553
0.000415459
0.000112697
0.692926
0.692492
1.18879e-06
3.93087e-06
0.00014717
2.18405e-05
8.46914e-06
0.00225636
0.00154974
0.000113679
0.704814
0.704761
1.13637e-06
1.30173e-06
9.52899e-06
2.23282e-05
8.87518e-06
0.00364632
0.00255295
0.0001207
0.713395
0.71311
1.08395e-06
1.08395e-06
1.79395e-06
1.77438e-05
1.12216e-05
0.00373736
0.00247352
0.000137565
0.728701
0.728683
1.15927e-06
1.19261e-06
6.27781e-05
1.06298e-05
0.000161239
0.00377258
0.00170071
0.00015242
0.735918
0.735993
1.18708e-06
1.15462e-06
8.15725e-05
2.62655e-05
0.00238806
0.00380164
0.00105959
0.000169154
0.74731
0.747352
3.07639e-05
4.56286e-07
8.16171e-05
5.18272e-05
0.00383002
0.00381227
0.00089421
0.000350971
0.747663
0.747973
7.32682e-07
4.56143e-07
7.4317e-05
5.16813e-05
0.00385261
0.00384688
0.00100393
0.00586772
0.751955
0.752928
0.00685248
2.41131e-06
1.37717e-05
1.45401e-05
0.00390996
0.00331839
0.00111014
0.00741662
0.74607
0.752828
0.0110192
2.3768e-06
3.70444e-05
1.09958e-05
0.00390996
0.00323467
0.000326581
0.0152688
0.75191
0.749889
0.0108157
1.75111e-06
0.000357169
0.000261729
0.00390996
0.00295261
7.59394e-07
0.0116878
0.751469
0.749258
0.00981872
7.22147e-07
0.00043188
0.000431902
0.00390314
0.00145216
1.98916e-10
0.0119952
0.754112
0.751144
0.0092087
4.14191e-07
0.000339545
0.0004319
0.000717154
0.000623391
1.98916e-10
0.00725009
0.754369
0.755314
0.00770424
4.14191e-07
3.24687e-05
0.000431665
7.83725e-09
2.70521e-06
1.97788e-10
0.00871289
0.757726
0.757659
0.00898643
4.14191e-07
4.14191e-07
0.00031002
1.09218e-09
2.15557e-10
1.98916e-10
0.00908876
0.759822
0.760245
0.00915576
4.14191e-07
4.14196e-07
7.42177e-05
2.70843e-07
2.42689e-08
1.60846e-10
0.0174478
0.777629
0.777803
0.0172779
4.14196e-07
4.14232e-07
2.53984e-05
1.02201e-06
1.19284e-08
7.8573e-11
0.0246793
0.79473
0.795139
0.0247597
4.14232e-07
4.14483e-07
6.59895e-05
1.01967e-06
7.8573e-11
6.60469e-11
0.0398874
0.821302
0.821784
0.0400814
4.14483e-07
8.91697e-07
0.000148714
1.66445e-10
7.83344e-11
6.60469e-11
0.0532471
0.839388
0.839677
0.0532125
4.16156e-07
8.19787e-07
0.000186063
2.57321e-10
6.70958e-10
6.60469e-11
0.0719446
0.85559
0.85579
0.0717592
4.23194e-07
4.3891e-07
0.000145596
2.57321e-10
1.91451e-09
6.7137e-11
0.0844759
0.86064
0.860747
0.0839691
4.3569e-07
6.29658e-07
9.25961e-05
1.40164e-08
4.58452e-09
7.31178e-11
0.0946018
0.863322
0.863305
0.0945898
4.61983e-07
1.32293e-06
9.60594e-05
9.03425e-08
7.02701e-09
9.0097e-11
0.094
0.860418
0.863172
0.098001
5.47054e-07
1.80994e-06
0.000198092
2.3371e-07
6.58381e-10
1.5899e-10
0.0972288
0.862243
0.863021
0.0971346
6.69352e-07
3.98778e-06
0.000277465
2.87454e-07
2.60021e-07
5.28605e-10
0.0901353
0.859344
0.859202
0.0897973
7.81923e-07
2.37966e-05
0.000381013
7.51018e-05
9.32208e-07
3.33644e-09
0.0860783
0.856468
0.856226
0.0864251
1.08286e-06
0.000112158
0.000436209
0.000434584
2.97148e-07
6.29918e-10
0.0772683
0.851566
0.85066
0.0776764
2.14608e-06
0.000229583
0.00043621
5.90027e-05
6.29918e-10
7.51886e-12
0.0747033
0.850384
0.849492
0.0751181
4.28391e-06
0.000269925
0.000436209
3.48393e-07
7.51886e-12
4.02016e-13
0.0710582
0.84856
0.848414
0.0717728
2.60658e-06
0.000254693
0.000436191
6.21921e-10
4.02016e-13
3.14744e-13
0.0796556
0.865081
0.865739
0.0810374
1.36597e-06
0.000255611
0.000436012
2.50402e-11
4.1544e-12
2.99732e-13
0.103095
0.886389
0.885385
0.10221
8.03822e-07
0.000181291
0.000434104
1.33263e-11
5.12781e-12
2.8578e-13
0.143378
0.911754
0.912022
0.143523
5.30941e-07
0.000109533
0.000431067
6.63205e-12
4.18291e-12
2.73244e-13
0.176595
0.929236
0.929215
0.176617
4.2093e-07
3.33295e-05
0.000293117
4.90003e-12
3.20059e-12
2.63266e-13
0.209652
0.94406
0.943929
0.209722
3.38714e-07
2.35873e-05
0.000306846
4.07971e-12
2.29443e-12
2.549e-13
0.230272
0.951181
0.951007
0.2303
2.50202e-07
2.23933e-05
0.000269907
3.16818e-12
1.42556e-12
2.51415e-13
0.252545
0.958456
0.958163
0.2528
1.51238e-07
2.73991e-05
0.000115679
2.12019e-12
7.08815e-13
2.24265e-13
0.263379
0.961208
0.96081
0.263797
5.53253e-08
2.43346e-05
8.17945e-05
1.16094e-12
1.90726e-13
1.01082e-13
0.28245
0.966575
0.96601
0.28303
1.44712e-08
1.07495e-05
9.29993e-05
4.94227e-13
1.30787e-15
3.88073e-15
0.29324
0.968958
0.968233
0.293914
5.77049e-10
3.16777e-06
9.01747e-05
1.26963e-13
2.32381e-16
8.91548e-16
0.326895
0.976648
0.975863
0.327555
3.64981e-10
6.6028e-09
6.00448e-06
1.6965e-14
1.40153e-16
2.32381e-16
0.355666
0.981096
0.980327
0.356391
7.74258e-11
1.45774e-11
2.43484e-09
1.4539e-15
1.33445e-16
1.40153e-16
0.417562
0.988867
0.98816
0.418293
1.7755e-12
1.49381e-12
2.02231e-11
1.67759e-16
1.31805e-16
1.34025e-16
0.469391
0.992547
0.991871
0.469924
1.47068e-12
1.3294e-12
2.72434e-11
3.94795e-18
4.11137e-18
1.09729e-16
0.551043
0.995834
0.995421
0.551342
1.22094e-12
1.11331e-12
2.56197e-11
3.94795e-18
3.94785e-18
7.50451e-15
0.613134
0.997194
0.997326
0.613807
1.11533e-12
1.07366e-12
2.33169e-12
3.94765e-18
3.94648e-18
4.39301e-13
0.696207
0.998628
0.997387
0.696693
2.08692e-12
4.10971e-15
1.16821e-15
3.69504e-18
3.69693e-18
7.99268e-06
0.774622
0.999239
0.99862
0.725499
1.14282e-10
-2.97844e-17
3.60837e-19
1.98343e-18
-1.11488e-16
0.0378008
0.810789
0.999324
0.999447
0.822811
0.0461024
-2.96656e-16
6.90883e-20
5.03537e-19
1.14587e-18
0.0563438
0.813974
0.999466
0.999647
0.928168
0.170994
-8.73374e-18
6.54789e-20
5.062e-19
5.11862e-19
0.161569
0.919471
0.999645
0.999952
0.96352
0.294492
-3.35197e-20
6.39164e-20
3.25397e-20
2.25534e-09
0.320831
0.961583
0.999964
0.999961
0.996526
0.511748
3.53109e-09
7.47475e-21
2.35455e-20
5.13669e-07
0.636895
0.99997
0.999979
0.999992
0.999965
0.687585
8.13976e-07
-1.86529e-19
-5.58774e-16
0.0547468
0.841351
0.999988
0.999999
1
0.999992
0.907605
0.169292
-2.6485e-14
-1.84632e-12
0.540249
0.998112
0.999999
1
1
1
0.999961
0.644028
-1.52294e-11
0.328703
0.967269
1
1
1
1
1
1
0.969294
0.357592
0.585754
0.585888
0.394359
0.635946
0.648302
0.648471
0.648471
0.648471
0.648243
0.647325
0.564483
0.466674
0.468959
0.588719
0.641306
0.643065
0.643499
0.643603
0.643622
0.643622
0.643622
0.643437
0.642934
0.642275
0.642163
0.641905
0.641682
0.623844
0.23434
0.190449
0.18925
0.18914
0.189324
0.585338
0.664936
0.661743
0.643464
0.641264
0.641251
0.64125
0.15197
0.306824
0.378937
0.554108
0.648226
0.648321
0.648471
0.545818
0.578424
0.502484
0.500002
0.569153
0.4912
0.356083
0.47679
0.632313
0.643065
0.62276
0.256916
0.190938
0.19106
0.299264
0.624439
0.64217
0.641909
0.641682
0.641763
0.310565
0.190449
0.18925
0.189148
0.18925
0.334116
0.664908
0.666586
0.663502
0.641326
0.641255
0.64125
0.64125
0.561719
0.370029
0.372263
0.534256
0.648206
0.631313
0.304373
0.247616
0.581703
0.583511
0.583041
0.583514
0.583508
0.178482
0.000601942
0.000602774
0.0269876
0.0383995
0.0576847
0.360775
0.367228
0.366646
0.139176
0.0254657
0.0381064
0.0626124
0.200351
0.457202
0.514006
0.298238
0.320326
0.600761
0.667352
0.666637
0.66669
0.666701
0.643012
0.641255
0.64125
0.64125
0.594765
0.591921
0.506173
0.642163
0.647748
0.624962
0.190417
0.155536
0.294279
0.576487
0.583515
0.583508
0.491196
0.000601942
0.000601942
0.00060172
0.000602774
0.0145519
0.0242233
0.0054802
0.00168266
0.000600891
0.00848996
0.0240026
0.0350246
0.0278704
0.0235763
0.28104
0.648666
0.664143
0.6676
0.667412
0.666672
0.66669
0.666703
0.666705
0.661421
0.641329
0.652123
0.661521
0.38576
0.567441
0.646933
0.64736
0.647367
0.64736
0.47481
0.0525846
0.00160632
0.153691
0.582757
0.582656
0.527926
0.0639463
0.000601706
0.000602774
0.000659996
0.000725993
0.000716458
0.000613516
0.000600775
0.000605455
0.0106488
0.03631
0.0374454
0.0372055
0.0233133
0.0116856
0.140101
0.620685
0.668148
0.666585
0.666686
0.666703
0.666705
0.666706
0.666705
0.666295
0.666334
0.666204
0.383887
0.443052
0.642007
0.63346
0.598625
0.518185
0.257002
0.00905833
0.000385097
0.0195847
0.476587
0.581258
0.580737
0.288581
0.000606845
0.00221832
0.00849405
0.00827913
0.00303691
0.000702296
0.000613516
0.000602061
0.000679002
0.000645432
0.000649954
0.00181174
0.0018105
0.000674428
0.000830956
0.05137
0.526254
0.666866
0.666592
0.666692
0.666705
0.666705
0.666705
0.666649
0.66635
0.666334
0.575493
0.573758
0.279873
0.0495725
0.0689687
0.0742772
0.048828
0.00137966
0.000258034
0.000385097
0.167609
0.580737
0.579349
0.434589
0.000663704
0.00547511
0.0139355
0.0139355
0.012558
0.00345381
0.00382846
0.0044738
0.00558607
0.0024307
0.000561187
0.000560546
0.000561187
0.000603914
0.000674428
0.000831012
0.0487743
0.352957
0.608295
0.555471
0.544659
0.581641
0.655471
0.584468
0.576813
0.665637
0.488687
0.127994
0.000146021
0.000269508
0.00209156
0.00191366
0.00076455
0.00027223
0.000258034
0.000258034
0.0683853
0.578094
0.576134
0.510021
0.000731255
0.000468821
0.0103094
0.0129623
0.00642393
0.00683901
0.0104277
0.0104707
0.0104705
0.0102211
0.00113345
0.000560546
0.000560546
0.00207685
0.0063692
0.0101392
0.0108891
0.0350302
0.0663897
0.0841308
0.124329
0.176278
0.258612
0.406534
0.585372
0.665351
0.0408297
0.0231961
0.000144692
0.000139139
0.000316091
0.000320905
0.000212285
0.000144986
0.00151882
0.00172196
0.00950792
0.326003
0.57434
0.54395
0.0411264
4.70669e-05
0.000185052
1.74704e-05
1.74003e-05
1.74e-05
0.00259333
0.00521785
0.00663582
0.0101134
0.00801102
0.000560546
0.00056604
0.00243333
0.00414097
0.00413886
0.00479208
0.223707
0.505797
0.483053
0.179317
0.184056
0.417051
0.634489
0.664539
0.664944
0.0240572
0.000144947
0.000139623
0.000133439
0.000136109
0.000135098
0.00011866
0.000136006
0.00185122
0.00275911
0.00209214
0.148801
0.57637
0.577235
0.145386
2.13274e-05
1.74704e-05
1.74003e-05
1.73989e-05
1.74e-05
1.73996e-05
1.74061e-05
1.74523e-05
0.00363615
0.00858919
0.00129759
0.000614706
0.00065771
0.0011451
0.0356418
0.447588
0.653711
0.653792
0.6529
0.555662
0.358509
0.656451
0.663165
0.664076
0.664539
0.0967398
0.0453511
0.000134044
0.000134056
0.00012714
0.000115024
0.000107121
0.000189009
0.00241361
0.00275465
0.000927939
0.049635
0.554274
0.592247
0.426794
3.68062e-05
1.96442e-05
1.74291e-05
1.74003e-05
1.73989e-05
1.74006e-05
1.74467e-05
1.74563e-05
1.75723e-05
0.00453212
0.00349407
0.00065771
0.000712109
0.00425363
0.334604
0.653997
0.654114
0.654103
0.653898
0.652901
0.600625
0.450162
0.663264
0.663709
0.664076
0.218222
0.346779
0.0404158
0.000127122
0.000115024
0.000106985
0.000106067
0.00128549
0.00253112
0.00170925
0.000784477
0.00291107
0.282073
0.593326
0.575922
0.0401407
2.23417e-05
1.7613e-05
1.74181e-05
1.74006e-05
1.74183e-05
1.80088e-05
1.75723e-05
1.75837e-05
7.41674e-05
0.00360241
0.000744091
0.000775611
0.025666
0.483917
0.654125
0.654129
0.654129
0.65411
0.653898
0.573969
0.440346
0.490056
0.657798
0.631049
0.279109
0.466751
0.318973
0.0997562
0.000106985
0.000106255
0.000106255
0.00115311
0.00253112
0.00139998
0.000395732
0.000477493
0.135168
0.598328
0.602251
0.403448
7.70996e-05
1.84967e-05
1.75434e-05
1.74176e-05
2.65488e-05
0.000174043
9.12135e-05
1.77453e-05
2.11313e-05
0.00360036
0.00110311
0.000884596
0.0085182
0.348286
0.654129
0.654129
0.654131
0.65413
0.65411
0.653838
0.488391
0.409069
0.404067
0.402779
0.466751
0.46678
0.406301
0.306206
0.100374
0.000106984
0.000106255
0.000289055
0.00216125
0.00117963
0.00038696
0.000395718
0.0174472
0.354556
0.608909
0.611185
0.10993
2.87998e-05
1.84065e-05
1.75215e-05
8.49403e-05
0.000578821
0.000522325
4.01289e-05
2.24651e-05
0.00124018
0.00120368
0.000822536
0.00334743
0.0866446
0.306132
0.573935
0.65413
0.65413
0.65413
0.654109
0.653759
0.49125
0.402648
0.402617
0.312175
0.31059
0.203785
0.154169
0.131885
0.00336711
0.000275142
0.000308585
0.000841844
0.000943006
0.000386705
0.00038696
0.000395718
0.0614358
0.581775
0.618888
0.52771
0.00152455
2.24748e-05
1.83888e-05
0.000135932
0.000578821
0.000586303
6.30524e-05
2.27742e-05
9.06204e-05
0.00115431
0.000631836
0.00314726
0.00106511
0.00940835
0.105526
0.292053
0.505806
0.654109
0.654115
0.653989
0.649201
0.402617
0.402617
0.661475
0.580624
0.145246
0.000271687
0.00774539
0.00131788
0.000308224
0.000307927
0.000308585
0.000345789
0.00038309
0.000384816
0.000417581
0.00296471
0.186118
0.626117
0.630026
0.317487
3.45453e-05
2.26685e-05
7.371e-05
0.000568625
0.000593785
0.000285479
2.39196e-05
3.18829e-05
0.000374814
0.000318305
0.00066574
0.000146195
0.000829619
0.0010668
0.00253099
0.0469047
0.258586
0.622508
0.653539
0.653583
0.531298
0.402617
0.661735
0.661731
0.162498
0.000250066
0.000271687
0.00030985
0.000308224
0.000308585
0.000718013
0.000435003
0.000384816
0.000445619
0.00475634
0.0197806
0.0609709
0.396193
0.630026
0.606864
0.0313032
3.4844e-05
7.8507e-05
0.000312282
0.000594019
0.000592954
6.84925e-05
3.44542e-05
3.70176e-05
0.000102155
4.08216e-05
1.82292e-05
4.34495e-05
6.77787e-05
6.25973e-05
3.15056e-05
0.000823577
0.143912
0.586278
0.653306
0.653609
0.573923
0.661731
0.661713
0.317954
0.000248261
0.000250073
0.000280932
0.00147773
0.0178337
0.029487
0.0118332
0.0407548
0.0432866
0.0651296
0.0903524
0.0635324
0.0992701
0.628577
0.651076
0.37487
0.000110454
0.00010464
0.000153978
0.000521634
0.000608256
0.000604618
0.000425059
0.000648213
0.000503865
6.55068e-05
1.66454e-05
1.63848e-05
1.61048e-05
1.58759e-05
1.65192e-05
3.14954e-05
0.00014861
0.161466
0.640804
0.653747
0.65374
0.661713
0.661297
0.338263
0.000250073
0.000250073
0.000255873
0.0064985
0.0752555
0.0822493
0.084265
0.0904741
0.0904741
0.0904741
0.0904594
0.0804365
0.0767154
0.492101
0.652293
0.591307
0.0243277
0.00015238
0.000214852
0.000343757
0.000449519
0.000675146
0.000683679
0.000687159
0.000685762
0.000249724
1.6399e-05
1.59499e-05
1.5726e-05
1.57126e-05
1.57734e-05
1.64136e-05
2.88024e-05
0.00509857
0.385788
0.653743
0.653787
0.632635
0.462672
0.0513222
0.0378314
0.000504623
0.000475548
0.0162549
0.060607
0.0651017
0.0685795
0.0774538
0.0814501
0.079825
0.0773462
0.0576242
0.0921247
0.525205
0.652735
0.653035
0.37894
0.00231481
0.000500538
0.000406373
0.000361863
0.000331532
0.000343878
0.000685861
0.000686982
0.000402144
1.62862e-05
1.5732e-05
1.57133e-05
1.56999e-05
1.56798e-05
1.56748e-05
2.05008e-05
0.000203759
0.0880096
0.595231
0.653772
0.13899
0.0635841
1.38384e-05
0.00795145
0.000650007
0.000927335
0.010819
3.28601e-05
3.28601e-05
3.43532e-05
3.07126e-05
2.96338e-05
3.89978e-05
4.97609e-05
0.0118165
0.132315
0.619427
0.653035
0.653483
0.653931
0.457278
0.11607
0.0049616
0.000644118
0.000276549
0.0001441
0.000198733
0.000332833
0.000229368
2.29231e-05
1.58255e-05
1.56998e-05
1.56842e-05
1.56819e-05
1.56776e-05
1.56737e-05
2.90118e-05
0.000452371
0.191412
0.525998
1.84874e-05
1.38384e-05
1.38384e-05
5.0107e-05
0.000760235
0.000585394
0.00718761
3.28679e-05
3.29714e-05
3.07126e-05
2.95433e-05
2.98569e-05
2.96445e-05
3.89978e-05
0.000331517
0.0700936
0.473738
0.653444
0.65393
0.654046
0.654411
0.65466
0.373547
0.136707
0.0028473
4.53149e-05
3.48562e-05
1.97248e-05
1.89216e-05
1.98875e-05
1.57395e-05
1.56916e-05
1.56828e-05
1.56818e-05
1.56819e-05
1.56819e-05
1.68257e-05
2.1998e-05
1.64251e-05
0.0316768
5.58027e-05
6.63155e-05
2.83162e-05
1.80541e-05
0.000219045
0.000249738
0.000758518
0.00136334
0.000625747
0.000191054
6.91188e-05
2.98569e-05
3.12727e-05
3.6568e-05
0.000185327
0.00588961
0.0941143
0.494755
0.653561
0.654411
0.65466
0.654663
0.654666
0.654405
0.32933
0.0457551
1.83739e-05
1.63006e-05
1.59461e-05
1.56969e-05
1.56826e-05
1.56826e-05
1.56823e-05
1.56819e-05
1.56817e-05
1.56819e-05
1.569e-05
1.59064e-05
1.61361e-05
1.62507e-05
0.000462707
0.000560777
0.000559322
5.54614e-05
5.32676e-06
8.91328e-05
2.243e-05
0.000753765
0.000743132
0.000713974
0.000294012
6.95443e-05
3.65092e-05
0.000194137
0.000763778
0.000166201
1.9288e-05
0.000251315
0.350423
0.609305
0.654414
0.654666
0.654666
0.654666
0.654405
0.436735
7.06048e-05
1.80177e-05
1.56964e-05
1.56809e-05
1.56572e-05
1.56817e-05
1.56817e-05
1.56822e-05
1.56819e-05
1.56822e-05
1.56828e-05
1.5696e-05
1.58641e-05
1.5904e-05
0.000804987
8.63668e-06
4.53628e-05
1.73917e-05
2.534e-06
2.47055e-05
6.88147e-06
7.02686e-06
0.000325943
0.000379078
0.000119087
0.000247388
0.000113741
5.6653e-05
7.59043e-05
4.63742e-06
4.7569e-06
8.87118e-06
8.08656e-05
0.0544228
0.482427
0.654322
0.654666
0.654591
0.654516
0.653822
0.241332
7.06001e-05
0.00623339
1.56676e-05
1.56572e-05
0.060879
0.128474
0.165512
0.187072
0.14917
0.100994
0.0610235
0.0482539
0.0452034
0.00116209
2.4323e-06
2.32847e-06
2.33338e-06
2.33992e-06
2.52443e-06
2.58585e-06
2.8138e-06
3.9463e-06
1.81091e-05
2.71956e-05
0.000249413
0.000162572
1.66998e-05
4.63742e-06
4.61632e-06
4.6134e-06
4.69999e-06
6.80923e-06
4.95303e-05
0.000909383
0.389973
0.654159
0.654516
0.653838
0.653073
0.496068
0.0188459
0.0804857
0.43786
0.547011
0.589135
0.610941
0.618669
0.621662
0.615369
0.595254
0.565975
0.555565
0.563567
0.00235774
3.25986e-06
2.32855e-06
2.32857e-06
2.32982e-06
2.34085e-06
2.36658e-06
2.41004e-06
2.81426e-06
3.94639e-06
0.00156297
0.000758694
5.37203e-05
4.73711e-06
4.61632e-06
4.6134e-06
4.6134e-06
4.6134e-06
4.69378e-06
6.80821e-06
4.72547e-05
0.000578868
0.200965
0.650982
0.653073
0.651491
0.595917
0.117524
0.079467
0.187864
0.608956
0.622789
0.623362
0.62381
0.624054
0.624048
0.6239
0.622973
0.621176
0.619231
0.00240257
0.00104846
2.32856e-06
2.32855e-06
2.32867e-06
2.32992e-06
2.34409e-06
2.3698e-06
0.000340603
0.00683618
0.00372308
0.00022117
2.15007e-05
4.65369e-06
4.63647e-06
6.23943e-06
1.03872e-05
1.03657e-05
5.07647e-06
5.35788e-06
8.00533e-06
4.8162e-05
0.000484941
0.148877
0.603272
0.647772
0.644311
0.544638
0.11017
0.115998
0.129035
0.171213
0.354931
0.55704
0.624048
0.624051
0.624048
0.620778
0.417896
0.324828
0.00230474
0.00213617
2.32855e-06
2.32856e-06
2.32936e-06
2.34306e-06
2.36917e-06
0.000434211
0.00639239
0.00735782
0.00433986
6.31763e-05
8.32111e-06
4.71084e-06
4.80261e-06
1.04124e-05
1.04124e-05
1.03867e-05
4.6829e-06
4.80512e-06
5.86819e-06
1.12595e-05
6.04623e-05
0.000284013
0.0667279
0.518155
0.639846
0.63593
0.635321
0.60434
0.15801
0.0921183
0.0919974
0.107213
0.167775
0.247045
0.286789
0.166461
0.0517997
0.0453803
0.000800734
0.00213037
0.00132056
0.00406351
0.00303348
0.0030769
0.00471584
0.00714961
0.00736689
0.00735227
0.00311895
2.71741e-05
4.77363e-06
4.75431e-06
6.86542e-06
7.54452e-06
5.45541e-06
3.69078e-06
4.04751e-06
5.9267e-06
6.95905e-06
9.97687e-06
3.26143e-05
0.000110962
0.00028992
0.000509542
0.174315
0.549544
0.634352
0.636462
0.636771
0.636771
0.636771
0.579715
0.221632
0.077818
0.0469465
0.0454217
0.0453803
0.0453803
3.00757e-05
0.00144531
0.00140792
0.00590852
0.00657186
0.00682273
0.00736289
0.00736689
0.00736289
0.00464194
0.000468737
5.29617e-06
5.02601e-06
1.33286e-05
5.65838e-06
2.54303e-06
2.62955e-06
2.87659e-06
6.92302e-06
6.21182e-06
8.1988e-06
0.000113833
0.000773413
0.000832557
0.000635384
0.000494019
0.000477089
0.000460755
0.00737546
0.321955
0.573586
0.636591
0.617678
0.617669
0.618872
0.587778
0.479124
0.405477
0.311798
0.319943
0.000504597
0.00136378
0.00113266
0.00230096
0.00166368
0.00139526
0.00247667
0.00371086
0.0024286
0.000222905
7.72978e-06
6.80278e-06
1.47981e-05
2.06091e-05
9.60121e-06
2.54533e-06
2.4032e-06
8.93239e-06
7.13077e-06
1.84109e-05
2.05331e-05
0.000237517
0.000832557
0.00083354
0.000801985
0.00048084
0.000467679
0.00045357
0.000456303
0.000360465
0.000254307
0.000215003
0.0757122
0.382984
0.623205
0.633774
0.633815
0.632837
0.630617
0.627763
0.00135357
0.00135427
3.42809e-05
1.81864e-05
1.76279e-05
7.58989e-05
0.000980718
0.000980831
2.57862e-05
1.11158e-05
8.85176e-06
1.13857e-05
2.06574e-05
2.06726e-05
2.05229e-05
4.74305e-06
1.6943e-06
2.18994e-05
0.000243802
0.000317559
0.000286539
9.83772e-05
9.90735e-05
0.000305296
0.000792269
0.00113003
0.00113861
0.00114512
0.000446429
0.000405147
0.000219321
0.000199049
0.000148065
5.24756e-05
8.83709e-06
0.102787
0.233302
0.308624
0.324191
0.328488
0.000851379
0.00109987
1.76977e-05
1.66958e-05
1.66914e-05
2.58876e-05
0.00115182
0.00163308
5.21858e-05
1.01449e-05
1.01449e-05
1.01535e-05
2.06713e-05
2.06713e-05
2.06725e-05
1.16407e-05
1.66617e-06
1.29776e-05
0.000147613
0.000319339
0.000352922
0.000324959
3.88252e-05
3.92436e-06
3.8872e-06
4.00246e-05
0.000708175
0.00161345
0.00210756
0.00210756
0.00204986
0.00124004
0.000866213
4.85498e-05
6.5858e-06
6.37354e-06
6.23634e-06
5.99353e-06
0.000286865
0.0016007
9.65387e-05
0.00130196
0.000453958
1.66919e-05
1.66958e-05
1.66919e-05
0.000547442
0.00161474
0.00159093
0.000797703
1.01448e-05
1.01803e-05
1.06995e-05
2.01153e-05
1.76201e-05
6.35703e-06
1.51742e-06
4.17599e-06
1.27108e-05
4.19601e-05
6.59305e-05
1.46288e-06
1.45167e-06
3.83292e-06
8.04719e-06
2.72794e-06
2.33321e-06
2.38835e-06
0.000347314
0.00165509
0.00225027
0.00225123
0.00225064
0.00194939
0.000257508
1.79231e-05
9.58781e-06
5.87587e-06
5.53755e-06
0.00011468
4.37565e-05
0.00129924
0.00130196
0.000946673
7.36768e-05
1.69862e-05
1.79881e-05
0.000459072
0.00156594
0.00154682
0.00131569
9.74692e-05
4.29069e-06
3.16435e-06
2.44969e-06
1.51626e-06
1.4872e-06
1.4635e-06
1.45414e-06
1.4429e-06
3.89192e-06
2.483e-06
1.43187e-06
1.28671e-05
2.29564e-05
2.26572e-05
1.18677e-05
2.35082e-06
2.07071e-06
2.07187e-06
0.00135787
0.00225039
0.00225147
0.00225056
0.00160886
7.47844e-05
3.50476e-05
1.35023e-05
5.50606e-06
1.00587e-05
4.70915e-05
0.000404389
0.000869613
0.00110667
0.00110667
0.000572988
2.92467e-05
3.95133e-05
0.000107592
0.00124209
0.00146497
0.00146497
0.00038757
3.46815e-06
1.76075e-06
1.48268e-06
1.46307e-06
1.45419e-06
1.43925e-06
1.43206e-06
1.43099e-06
1.43083e-06
1.43149e-06
3.29429e-06
2.24787e-05
2.3617e-05
2.36039e-05
9.12254e-06
2.0824e-06
2.06947e-06
2.0824e-06
0.00190017
0.00225039
0.00224997
0.00110782
4.41282e-05
2.93715e-05
1.42709e-05
5.47434e-06
5.47434e-06
8.39035e-05
5.20988e-05
4.30778e-05
0.000315607
0.00090495
0.000902504
0.000791021
0.000117379
8.75382e-05
8.75382e-05
0.000843051
0.00144479
0.0014246
0.000430335
1.00488e-05
7.74229e-06
1.5505e-06
1.43923e-06
1.43206e-06
1.43099e-06
1.43083e-06
1.43083e-06
1.43077e-06
1.44238e-06
1.45526e-06
2.02872e-05
2.13123e-05
4.85967e-06
2.18614e-06
2.0824e-06
2.18174e-06
0.000484219
0.00208593
0.000664412
0.00019651
0.000105395
3.11267e-05
1.41028e-05
5.47438e-06
5.47432e-06
3.3283e-05
5.28508e-05
3.41174e-05
2.93105e-05
3.9803e-05
0.000631458
0.000786601
0.000783091
0.000392173
9.65186e-05
0.000105499
0.000649274
0.00139503
0.000679736
2.52248e-05
8.40639e-06
1.53528e-06
1.44476e-06
1.43272e-06
1.43104e-06
1.43083e-06
1.43077e-06
1.51763e-06
1.53124e-06
1.6228e-06
2.1998e-06
6.96151e-06
1.33127e-05
8.08863e-06
6.27476e-06
7.7518e-05
5.11183e-06
5.31436e-07
0.000135716
0.000421492
0.000201264
2.78711e-05
1.30761e-05
5.47451e-06
5.47438e-06
1.73628e-09
8.38984e-06
2.25655e-05
2.92265e-05
1.82118e-05
2.79022e-05
0.00060451
0.000777101
0.000774172
0.000750875
0.000387337
0.000246947
0.000319161
0.000269041
5.08833e-05
2.43061e-06
1.50186e-06
1.4466e-06
1.43504e-06
1.43272e-06
0.000468483
0.000855778
0.000349198
1.21622e-05
1.96729e-06
2.00082e-06
1.02886e-05
1.3421e-05
1.3421e-05
1.02122e-05
1.90644e-06
5.01618e-07
5.15293e-07
0.000322479
0.000421492
0.000340736
3.27113e-05
1.38174e-05
5.4746e-06
5.47451e-06
1.40845e-09
1.25365e-09
1.96072e-07
5.06384e-06
1.02736e-05
3.32257e-06
4.81771e-05
0.000423356
0.000772373
0.000770574
0.000770574
0.000740955
0.000356055
3.50057e-05
1.86027e-05
4.98656e-06
1.52174e-05
0.000205585
0.000753995
0.00085173
0.00085595
0.000856275
0.000856118
0.000697389
3.55592e-05
1.81102e-07
4.47867e-06
7.87703e-06
3.11388e-06
4.15836e-07
4.68059e-07
4.90465e-07
4.99009e-07
4.39212e-05
0.000415734
0.000419338
0.000171065
1.05127e-05
5.50602e-06
1.12476e-05
1.25365e-09
1.25365e-09
2.18712e-09
2.92999e-08
2.56639e-08
7.56741e-08
6.79946e-08
8.6147e-06
0.000161832
0.000336275
0.00071781
0.000741566
0.000741566
0.000435604
5.37736e-05
4.65489e-05
7.83747e-06
0.000584817
0.000853157
0.00085441
0.000854092
0.000591784
4.92699e-05
6.15185e-07
1.30886e-07
2.86445e-08
3.54589e-08
4.28594e-08
4.34469e-08
4.06652e-07
4.74572e-07
4.76117e-07
4.85793e-07
4.99009e-07
0.000115552
0.000419338
0.000370317
3.09708e-05
5.57105e-06
5.01195e-05
7.8922e-07
1.48885e-09
1.21273e-09
6.61762e-10
6.60685e-10
3.6497e-08
6.35505e-08
3.91751e-09
7.56931e-08
4.00876e-07
4.77957e-05
0.000210321
0.000349182
0.000273758
6.55731e-05
2.06825e-05
6.31983e-06
5.96716e-05
0.000116575
0.000109357
7.26654e-05
2.27011e-05
2.79712e-06
1.56775e-08
1.78558e-09
2.58671e-08
4.19445e-08
4.51008e-08
4.34456e-08
4.35973e-08
7.01415e-06
5.36515e-05
2.37881e-05
5.80319e-07
1.48978e-06
0.000310187
0.000380333
0.000141225
5.86592e-06
9.59985e-05
9.25269e-07
4.40179e-08