/*--------------------------------*- C++ -*----------------------------------*\
  =========                 |
  \\      /  F ield         | OpenFOAM: The Open Source CFD Toolbox
   \\    /   O peration     | Website:  https://openfoam.org
    \\  /    A nd           | Version:  8
     \\/     M anipulation  |
\*---------------------------------------------------------------------------*/
FoamFile
{
    version     2.0;
    format      ascii;
    class       surfaceScalarField;
    location    "0.9";
    object      phi;
}
// * * * * * * * * * * * * * * * * * * * * * * * * * * * * * * * * * * * * * //

dimensions      [0 3 -1 0 0 0 0];

internalField   nonuniform List<scalar> 
18095
(
1.93165e-08
-1.72116e-07
1.528e-07
2.29461e-08
-1.98485e-07
1.94856e-07
1.86518e-08
-2.05195e-07
2.09489e-07
9.30288e-09
-2.10275e-07
2.19624e-07
2.64693e-11
-2.13865e-07
2.23142e-07
-9.11172e-09
-2.13911e-07
2.23049e-07
-1.84472e-08
-2.10378e-07
2.19714e-07
-2.29178e-08
-2.05185e-07
2.09655e-07
-1.93046e-08
-1.98459e-07
1.94846e-07
-1.7213e-07
1.52825e-07
1.54029e-08
-1.87519e-07
1.54508e-08
-1.98533e-07
1.27548e-08
-2.02499e-07
7.48193e-09
-2.05002e-07
4.52348e-12
-2.06388e-07
-7.41625e-09
-2.0649e-07
-1.26431e-08
-2.05152e-07
-1.54337e-08
-2.02394e-07
-1.53809e-08
-1.98512e-07
-1.87511e-07
6.82974e-09
-1.94349e-07
8.16694e-09
-1.9987e-07
6.64893e-09
-2.00981e-07
3.58388e-09
-2.01937e-07
1.52659e-10
-2.02957e-07
-3.30288e-09
-2.03035e-07
-6.59105e-09
-2.01863e-07
-8.20404e-09
-2.00781e-07
-6.82953e-09
-1.99887e-07
-1.9434e-07
4.55716e-09
-1.98906e-07
4.59562e-09
-1.99909e-07
3.79042e-09
-2.00176e-07
2.29297e-09
-2.00439e-07
5.50597e-12
-2.00669e-07
-2.39648e-09
-2.00633e-07
-3.95371e-09
-2.00306e-07
-4.61952e-09
-2.00115e-07
-4.56626e-09
-1.9994e-07
-1.98906e-07
1.09401e-09
1.18521e-09
1.0095e-09
5.70077e-10
-9.92234e-11
-7.31863e-10
-1.03806e-09
-1.15348e-09
-1.09353e-09
-2.48814e-08
-1.97212e-07
2.22094e-07
-2.73195e-08
-1.98749e-07
2.01187e-07
-2.23564e-08
-2.02129e-07
1.97166e-07
-1.17009e-08
-2.00695e-07
1.9004e-07
1.06881e-09
-2.01347e-07
1.88577e-07
1.34045e-08
-2.0131e-07
1.88974e-07
2.30142e-08
-2.0015e-07
1.9054e-07
2.75647e-08
-2.01957e-07
1.97406e-07
2.51213e-08
-1.98965e-07
2.01408e-07
-1.97486e-07
2.22607e-07
-1.02176e-08
-1.86995e-07
-1.59534e-08
-1.93013e-07
-1.59176e-08
-2.02165e-07
-8.27134e-09
-2.08341e-07
-5.53994e-10
-2.09064e-07
7.22198e-09
-2.09086e-07
1.55442e-08
-2.08472e-07
1.59976e-08
-2.0241e-07
1.02928e-08
-1.9326e-07
-1.87193e-07
-1.07843e-08
-1.7621e-07
-8.32337e-09
-1.95474e-07
-5.19136e-09
-2.05297e-07
-3.68198e-09
-2.09851e-07
-2.55863e-10
-2.1249e-07
3.49085e-09
-2.12833e-07
5.5969e-09
-2.10578e-07
8.71195e-09
-2.05525e-07
1.09597e-08
-1.95508e-07
-1.76234e-07
-7.45906e-09
-1.68751e-07
-1.01218e-08
-1.92811e-07
-9.59384e-09
-2.05825e-07
-3.84189e-09
-2.15603e-07
9.43128e-10
-2.17275e-07
5.36084e-09
-2.1725e-07
1.01091e-08
-2.15326e-07
1.02664e-08
-2.05683e-07
7.52344e-09
-1.92765e-07
-1.6871e-07
-1.59516e-08
-1.39073e-08
-1.02431e-08
-6.22219e-09
-3.55868e-10
5.44302e-09
9.83082e-09
1.38036e-08
1.5885e-08
3.36207e-08
-1.55481e-07
1.2186e-07
4.06109e-08
-1.97499e-07
1.90509e-07
3.5373e-08
-2.10062e-07
2.153e-07
2.50793e-08
-2.16555e-07
2.26849e-07
9.51317e-09
-2.1799e-07
2.33556e-07
-7.56885e-09
-2.18303e-07
2.35386e-07
-2.35255e-08
-2.16453e-07
2.3241e-07
-3.26327e-08
-2.11066e-07
2.20173e-07
-3.06814e-08
-1.99017e-07
1.97066e-07
-1.57574e-07
1.26893e-07
1.69523e-08
-1.72433e-07
1.94651e-08
-2.00012e-07
1.54953e-08
-2.06092e-07
7.88142e-09
-2.08941e-07
-1.08251e-09
-2.09026e-07
-9.82598e-09
-2.0956e-07
-1.61516e-08
-2.10127e-07
-1.9321e-08
-2.07896e-07
-1.64744e-08
-2.01863e-07
-1.74049e-07
1.1438e-08
-1.83871e-07
1.15071e-08
-2.00081e-07
1.04009e-08
-2.04986e-07
6.64859e-09
-2.05189e-07
2.57938e-09
-2.04957e-07
-1.8524e-09
-2.05128e-07
-7.19394e-09
-2.04786e-07
-9.50455e-09
-2.05586e-07
-1.05964e-08
-2.00772e-07
-1.84645e-07
7.92049e-09
-1.91792e-07
7.15611e-09
-1.99316e-07
7.15089e-09
-2.0498e-07
1.98537e-09
-2.00024e-07
-2.95399e-10
-2.02676e-07
-2.5485e-09
-2.02875e-07
-6.87755e-09
-2.00457e-07
-6.72414e-09
-2.05739e-07
-7.73633e-09
-1.99759e-07
-1.92382e-07
3.0302e-08
3.21727e-08
2.43585e-08
1.43746e-08
2.7586e-10
-1.36252e-08
-2.3542e-08
-3.18747e-08
-3.02259e-08
-7.99568e-07
-3.39291e-08
8.33498e-07
-5.74748e-07
-2.2482e-07
-1.0857e-07
-4.66179e-07
4.43925e-07
-5.52495e-07
9.30984e-07
-4.87058e-07
1.14346e-06
-2.12476e-07
1.35466e-06
-2.11198e-07
1.51762e-06
-1.62963e-07
1.58695e-06
-6.93328e-08
4.32116e-09
1.58263e-06
-1.98811e-06
-9.40431e-08
2.04823e-06
-1.65133e-06
-5.61607e-07
-1.13855e-06
-9.78952e-07
-5.70038e-07
-1.12101e-06
6.0574e-08
-1.11767e-06
5.22248e-07
-6.7415e-07
8.15639e-07
-5.0459e-07
9.93248e-07
-3.40572e-07
9.51178e-07
-2.72621e-08
1.21876e-07
8.33624e-07
-1.83562e-06
-2.33044e-07
1.97462e-06
-1.39988e-06
-9.97342e-07
-1.14175e-06
-1.23708e-06
-8.10004e-07
-1.45276e-06
-5.14556e-07
-1.41312e-06
-7.23849e-08
-1.11632e-06
1.70289e-07
-7.47263e-07
-5.61352e-10
-1.69722e-07
-1.40012e-07
1.12189e-07
1.76328e-07
-1.94464e-07
-2.37049e-07
9.59001e-08
-9.18947e-08
-6.95444e-07
-5.38944e-07
-8.80461e-07
-1.05207e-06
-5.7371e-07
-1.75951e-06
-2.97044e-07
-1.68978e-06
4.28213e-08
-1.45619e-06
2.72532e-07
-9.76973e-07
2.17902e-07
-1.15093e-07
8.97638e-08
2.40327e-07
2.81871e-07
-1.57792e-08
1.56831e-06
1.44248e-07
-1.61666e-06
9.01674e-07
1.277e-07
2.73888e-07
-4.24281e-07
2.66103e-07
-1.75173e-06
3.28562e-07
-1.75224e-06
3.76991e-07
-1.50462e-06
4.70118e-07
-1.0701e-06
7.03217e-07
-3.48192e-07
7.17079e-07
2.26466e-07
4.27412e-07
5.71538e-07
7.67104e-07
9.8383e-08
-7.2124e-07
5.22667e-07
3.72138e-07
6.50082e-07
-5.51698e-07
6.90973e-07
-1.79262e-06
6.52216e-07
-1.71348e-06
5.82241e-07
-1.43464e-06
4.35625e-07
-9.23483e-07
3.98889e-07
-3.11456e-07
4.15441e-07
2.09914e-07
3.75986e-07
4.66867e-07
-5.39293e-07
6.18167e-07
1.95085e-08
-3.80302e-07
2.13152e-07
4.55162e-07
-1.38716e-06
4.89757e-07
-1.82721e-06
5.19047e-07
-1.74277e-06
3.06037e-07
-1.22163e-06
-6.43313e-09
-6.11013e-07
-1.13974e-07
-2.03915e-07
-5.70912e-08
1.53031e-07
2.4744e-07
7.14546e-08
-8.07969e-07
1.10348e-06
3.22657e-07
-3.51184e-07
-2.43633e-07
-4.17576e-08
-1.69659e-06
-4.92365e-08
-1.81974e-06
-1.00111e-07
-1.6919e-06
-3.28606e-07
-9.93137e-07
-5.14801e-07
-4.24817e-07
-5.95919e-07
-1.22797e-07
-5.12298e-07
6.94097e-08
8.58099e-08
-3.50667e-07
-4.13928e-07
1.05256e-06
4.6484e-07
-2.34729e-07
-4.22828e-07
-1.69513e-07
-1.7618e-06
-1.76119e-07
-1.81313e-06
-2.37386e-07
-1.63063e-06
-3.83919e-07
-8.46604e-07
-5.9365e-07
-2.15086e-07
-6.20787e-07
-9.56601e-08
-5.34548e-07
-1.68293e-08
-1.18701e-07
-3.30038e-07
-3.10388e-07
8.1468e-07
5.48274e-07
-2.22635e-07
-5.10583e-07
-2.03335e-07
-1.7811e-06
-2.05417e-07
-1.81105e-06
-2.08247e-07
-1.6278e-06
-2.07664e-07
-8.47187e-07
-4.18317e-07
-4.43264e-09
-5.06199e-07
-7.77797e-09
-4.49733e-07
-7.32958e-08
-2.26021e-07
-3.42413e-07
-3.07081e-07
5.98263e-07
5.23496e-07
-1.42585e-07
-6.75076e-07
-1.88536e-07
-1.73515e-06
-1.90159e-07
-1.80942e-06
-1.59914e-07
-1.65805e-06
-8.01824e-08
-9.26918e-07
-2.44981e-08
-6.01174e-08
-2.68285e-08
-5.44733e-09
-7.22657e-08
-2.78584e-08
-5.48754e-08
-2.43411e-07
-1.46518e-07
3.52171e-07
3.92609e-07
-1.3454e-07
-6.87055e-07
-1.92293e-07
-1.6774e-06
-1.93835e-07
-1.80788e-06
-1.70735e-07
-1.68115e-06
-8.67537e-08
-1.0109e-06
-3.52689e-08
-1.11602e-07
1.72941e-08
-5.80106e-08
8.35663e-08
-9.41303e-08
-2.7421e-08
5.61121e-08
-2.54466e-08
1.04304e-07
2.73315e-07
-2.16243e-07
-4.96257e-07
-2.67797e-07
-1.62584e-06
-2.69994e-07
-1.80568e-06
-2.22327e-07
-1.72881e-06
-8.22874e-08
-1.15094e-06
-9.12744e-08
-1.02615e-07
-6.88452e-08
-8.04399e-08
2.25188e-08
-1.85494e-07
-9.04872e-08
8.55856e-08
-9.02103e-08
-3.1754e-08
2.26269e-07
-2.20404e-07
-3.66065e-07
-2.65875e-07
-1.58037e-06
-2.63568e-07
-1.80799e-06
-2.39438e-07
-1.75295e-06
-9.53962e-08
-1.29498e-06
-1.08333e-07
-8.96789e-08
-1.93674e-08
-1.69405e-07
3.37968e-08
-2.38658e-07
-1.03029e-07
4.63382e-08
-5.4301e-08
-4.66921e-08
6.92388e-08
-1.36134e-07
-2.84233e-07
-2.33637e-07
-1.48287e-06
-2.35473e-07
-1.80615e-06
-2.09062e-07
-1.77936e-06
-5.92303e-08
-1.44481e-06
-6.94891e-08
-7.942e-08
-5.4953e-08
-1.83941e-07
-7.40034e-08
-2.19608e-07
-1.09601e-07
-6.74307e-08
1.02412e-07
-4.02291e-08
-1.08875e-07
3.2502e-08
-2.14324e-07
-1.99695e-07
-1.25067e-06
-2.03776e-07
-1.80207e-06
-1.89692e-07
-1.79344e-06
-6.40885e-08
-1.57042e-06
-6.07918e-08
-8.27167e-08
-1.43978e-07
-1.00754e-07
-2.03388e-07
-1.60198e-07
-1.41335e-07
-1.71654e-07
2.91112e-07
1.14802e-09
-3.32489e-07
2.15574e-07
-1.38786e-07
-1.47068e-07
-8.8803e-07
-1.61204e-07
-1.78794e-06
-1.59103e-07
-1.79554e-06
-5.10075e-08
-1.67851e-06
-1.39775e-08
-1.19747e-07
-4.17193e-08
-7.30125e-08
-7.51579e-08
-1.2676e-07
-1.51195e-07
-6.52981e-08
2.64024e-07
6.12514e-08
-3.24127e-07
1.90507e-07
-6.5261e-08
-9.60867e-08
-6.01437e-07
-1.12259e-07
-1.77177e-06
-1.24798e-07
-1.783e-06
-1.03392e-07
-1.69992e-06
-3.80047e-08
-1.85134e-07
4.52246e-08
-1.56242e-07
2.01141e-08
-1.01649e-07
-1.27689e-07
-3.39129e-09
2.18863e-07
1.46169e-07
-3.0378e-07
1.31174e-07
2.24346e-08
-2.07986e-08
-4.49462e-07
-4.32066e-08
-1.74936e-06
-4.84902e-08
-1.77772e-06
-2.32155e-08
-1.72519e-06
-2.7394e-08
-1.80956e-07
-3.18423e-08
-1.51794e-07
-1.84325e-08
-1.15059e-07
-1.23904e-07
-2.22178e-08
1.82278e-07
1.75303e-07
-2.11409e-07
1.44859e-07
5.98553e-08
1.94191e-08
-3.2402e-07
4.3089e-10
-1.73037e-06
-1.44321e-08
-1.76286e-06
-1.57342e-09
-1.73805e-06
-1.42926e-08
-1.68236e-07
-3.02307e-08
-1.35856e-07
-3.97476e-08
-1.05542e-07
-1.20956e-07
-4.2696e-08
8.18442e-08
1.13431e-07
-1.99695e-08
1.02326e-07
3.93745e-08
2.2391e-08
-2.44083e-07
2.00982e-08
-1.72807e-06
-1.02028e-08
-1.73255e-06
-1.3613e-08
-1.73464e-06
-4.72429e-08
-1.34607e-07
-5.15901e-08
-1.31509e-07
-4.51138e-08
-1.12018e-07
-1.75161e-07
9.09163e-09
3.86789e-08
2.58119e-08
4.89416e-08
8.80142e-08
-9.95825e-09
3.70899e-08
-1.93156e-07
-6.46125e-08
-1.62637e-06
-2.99103e-08
-1.76726e-06
-1.79112e-08
-1.74664e-06
-9.77265e-09
-1.42745e-07
-1.04981e-07
-3.62999e-08
-2.5951e-08
-1.91049e-07
-2.90955e-07
8.98431e-08
6.73463e-08
-1.76347e-08
-2.38999e-08
8.88082e-08
-3.14142e-08
1.12463e-07
-2.1681e-07
2.8754e-08
-1.54266e-06
-3.11873e-08
-1.70732e-06
-7.67393e-08
-1.70109e-06
6.53106e-07
-8.72591e-07
7.12195e-07
-9.53892e-08
7.40527e-07
-2.19381e-07
-2.18661e-07
6.68232e-07
2.70795e-08
-1.36382e-08
-3.10747e-08
1.74965e-08
-2.18245e-08
7.55452e-09
-2.06866e-07
2.74353e-08
-1.56254e-06
7.54319e-09
-1.68742e-06
3.25587e-09
-1.6968e-06
6.2914e-07
-1.49847e-06
1.01481e-06
-4.81056e-07
1.02898e-06
-2.33551e-07
-2.36872e-07
1.0472e-06
2.07667e-08
1.62481e-08
-5.06517e-08
1.96834e-10
-1.25756e-09
1.65384e-08
-2.23208e-07
1.49974e-08
-1.561e-06
6.29309e-09
-1.67872e-06
-8.41318e-09
-1.68209e-06
8.02942e-08
-1.58718e-06
1.26186e-07
-5.26948e-07
1.47874e-07
-2.5524e-07
-2.00215e-07
1.11216e-07
9.12643e-08
7.71528e-08
-1.52168e-07
3.53678e-08
5.46431e-08
1.97626e-08
-2.07601e-07
1.03873e-08
-1.55162e-06
-1.45626e-10
-1.66819e-06
-9.48048e-09
-1.67276e-06
-2.85546e-08
-1.5681e-06
-1.00846e-07
-4.54652e-07
-1.03111e-07
-2.52974e-07
-2.18284e-07
-8.5042e-08
9.15621e-08
1.71752e-07
-1.8616e-07
2.76473e-08
1.18555e-07
-1.94204e-09
-1.78014e-07
1.43496e-08
-1.56792e-06
2.26139e-09
-1.6561e-06
-9.60468e-09
-1.66089e-06
1.60513e-08
-1.59376e-06
3.31177e-08
-4.71718e-07
-1.66027e-09
-2.18199e-07
-1.72896e-07
-4.70483e-08
9.67713e-08
2.3684e-07
-1.61859e-07
3.53778e-08
1.79949e-07
-1.04471e-08
-1.32188e-07
-7.77739e-09
-1.57059e-06
-1.56651e-08
-1.64821e-06
-2.40167e-08
-1.65254e-06
4.95241e-09
-1.62273e-06
4.26307e-08
-5.09395e-07
-7.54908e-08
-1.0008e-07
-7.79286e-08
-1.70458e-07
3.49465e-08
2.8065e-07
-7.87581e-08
9.95974e-09
2.04934e-07
-9.19344e-09
-1.13036e-07
-1.61872e-08
-1.5636e-06
-2.25116e-08
-1.64189e-06
-3.05689e-08
-1.64448e-06
-3.44176e-08
-1.61888e-06
4.65069e-08
-5.9032e-07
1.06331e-07
-1.59903e-07
-3.65216e-08
6.4925e-08
-4.8684e-09
2.65289e-07
2.02293e-08
2.64386e-08
1.73629e-07
2.47601e-08
-1.11356e-07
-1.43769e-08
-1.52446e-06
-1.93604e-08
-1.6369e-06
-3.18181e-08
-1.63203e-06
-3.60888e-08
-1.61461e-06
-8.96009e-09
-6.17449e-07
5.93891e-08
-2.28252e-07
1.57842e-08
7.0842e-09
-1.37993e-08
1.94066e-07
8.50222e-08
5.72654e-08
1.02561e-07
8.51817e-08
-1.39273e-07
3.18226e-08
-1.4711e-06
1.50329e-08
-1.62011e-06
9.21177e-09
-1.62621e-06
-4.00591e-08
-1.56534e-06
-2.79311e-08
-6.29575e-07
5.5584e-09
-2.61742e-07
-3.50506e-09
2.48474e-08
-4.17355e-08
1.18738e-07
1.17063e-07
1.94499e-08
4.13804e-08
3.9292e-08
-1.59112e-07
-1.42075e-10
-1.43166e-06
-9.93379e-09
-1.61032e-06
-2.64943e-08
-1.60965e-06
-4.25698e-08
-1.54926e-06
-3.00381e-08
-6.42107e-07
2.01234e-09
-2.93792e-07
-8.19719e-08
8.04785e-08
-6.22581e-08
6.97508e-08
1.11247e-07
-2.21417e-08
1.26178e-09
-1.74027e-11
-1.81238e-07
1.99383e-08
-1.45162e-06
2.25376e-09
-1.59264e-06
-1.01865e-08
-1.59721e-06
-2.03695e-08
-1.53908e-06
-2.58669e-08
-6.36611e-07
-2.27235e-08
-2.96935e-07
-1.07649e-07
2.95268e-09
-1.03675e-07
3.99382e-08
1.33489e-07
-5.88993e-08
-4.35141e-08
-3.09935e-08
-2.09146e-07
1.36307e-08
-1.49624e-06
-2.2934e-09
-1.57671e-06
-1.02988e-08
-1.5892e-06
-6.47619e-09
-1.5429e-06
-4.33773e-10
-6.42654e-07
1.85003e-08
-3.1587e-07
-1.32333e-07
4.31843e-08
-1.75061e-07
1.20279e-08
2.0297e-07
-1.13094e-07
-1.05475e-07
-3.76863e-08
-2.84553e-07
-4.39065e-08
-1.49002e-06
-4.07637e-08
-1.57986e-06
-6.00633e-08
-1.5699e-06
-4.117e-08
-1.5618e-06
-1.96846e-09
-6.81856e-07
3.077e-08
-3.48609e-07
-1.84851e-07
8.32871e-08
-2.14435e-07
-1.28333e-07
3.54795e-07
-6.92335e-08
-2.50677e-07
2.56932e-08
-3.7948e-07
1.66547e-08
-1.48099e-06
4.09674e-09
-1.5673e-06
-7.90648e-10
-1.56501e-06
-7.60641e-09
-1.55498e-06
-1.07148e-08
-6.78748e-07
-2.16731e-08
-3.37651e-07
-1.81488e-07
-2.50373e-08
-2.26163e-08
-3.35564e-07
2.29847e-07
7.65106e-08
-3.49804e-07
6.81523e-08
-3.71121e-07
1.95624e-08
-1.4324e-06
5.05086e-09
-1.55279e-06
-6.15532e-09
-1.55381e-06
-2.65594e-08
-1.53458e-06
-1.76218e-08
-6.87686e-07
-9.32633e-09
-3.45948e-07
-2.00171e-07
9.35749e-09
-2.34879e-08
-4.15787e-07
1.03711e-07
2.15145e-08
-3.94808e-07
5.36398e-08
-4.03245e-07
3.47299e-08
-1.41349e-06
2.17867e-08
-1.53984e-06
3.28796e-09
-1.53531e-06
-1.66575e-08
-1.51463e-06
-1.87769e-08
-6.85568e-07
-3.34362e-09
-3.61382e-07
-2.15927e-07
1.24108e-08
3.69554e-09
-4.05209e-07
-1.42734e-08
1.29121e-08
-4.04024e-07
6.97348e-08
-4.60068e-07
6.63913e-08
-1.41015e-06
4.17671e-08
-1.51522e-06
3.84681e-08
-1.53201e-06
-5.3672e-09
-1.4708e-06
-2.31644e-08
-6.67771e-07
-1.72306e-08
-3.67316e-07
-2.23577e-07
-9.58009e-09
-1.17653e-07
-2.60061e-07
-2.74952e-08
-1.10578e-07
-4.11102e-07
6.70729e-08
-6.3772e-07
-2.50634e-09
-1.34057e-06
-7.03045e-09
-1.5107e-06
-3.12561e-08
-1.50778e-06
-5.36941e-08
-1.44836e-06
-5.39637e-08
-6.675e-07
-4.35343e-08
-3.77744e-07
-2.32479e-07
-3.46322e-08
-2.53921e-07
-2.29652e-07
2.23511e-07
-1.29511e-07
-5.35515e-07
1.33239e-08
-7.80556e-07
1.04058e-08
-1.33765e-06
-2.07603e-09
-1.49822e-06
-1.24802e-08
-1.49738e-06
-4.40828e-08
-1.41676e-06
-4.71333e-08
-6.64448e-07
-3.61019e-08
-3.88775e-07
-2.33426e-07
-3.51551e-08
-1.40766e-07
-3.78872e-07
2.89986e-07
3.40251e-09
-6.79683e-07
1.1062e-08
-7.88216e-07
1.92802e-08
-1.34587e-06
1.20556e-09
-1.48014e-06
-1.35187e-08
-1.48265e-06
-3.45025e-08
-1.39577e-06
-3.79081e-08
-6.61042e-07
-2.40644e-08
-4.02619e-07
-2.34236e-07
-2.32549e-08
1.83492e-08
-5.10979e-07
1.13758e-07
5.46084e-08
-7.15939e-07
2.29814e-08
-7.56589e-07
1.12139e-08
-1.3341e-06
4.37261e-10
-1.46937e-06
-1.27448e-08
-1.46947e-06
-2.71286e-08
-1.38139e-06
-3.03761e-08
-6.57794e-07
-1.5516e-08
-4.1748e-07
-2.39304e-07
-1.04484e-08
6.89073e-09
-6.05397e-07
8.75285e-08
2.41747e-08
-7.33223e-07
9.18247e-09
-7.41598e-07
1.54985e-08
-1.34042e-06
-8.05231e-10
-1.45306e-06
-1.6814e-08
-1.45346e-06
-2.52951e-08
-1.37291e-06
-2.24772e-08
-6.60612e-07
-1.14193e-08
-4.28538e-07
-2.49314e-07
-1.40907e-09
-3.08197e-08
-6.83007e-07
1.0843e-07
-4.46448e-08
-7.19397e-07
-1.81215e-08
-7.68121e-07
1.15573e-08
-1.3701e-06
1.84964e-09
-1.44335e-06
-6.83131e-09
-1.44478e-06
-2.13765e-08
-1.35836e-06
-1.6896e-08
-6.6509e-07
-1.28591e-08
-4.32573e-07
-2.64465e-07
2.29318e-09
-3.61871e-08
-7.51837e-07
1.05017e-07
-6.13887e-08
-6.94193e-07
5.61825e-09
-8.35129e-07
1.85675e-08
-1.38305e-06
4.57978e-10
-1.42524e-06
-1.83296e-08
-1.426e-06
-2.73708e-08
-1.34932e-06
-1.89308e-08
-6.73529e-07
-1.28737e-08
-4.3863e-07
-2.8016e-07
2.8215e-09
1.123e-07
-8.45086e-07
-1.90484e-08
7.05227e-08
-6.52412e-07
4.99644e-08
-8.1457e-07
7.60178e-09
-1.34068e-06
7.50614e-10
-1.41839e-06
-6.37072e-09
-1.41887e-06
-1.88833e-08
-1.33681e-06
-4.71203e-09
-6.87699e-07
-7.70077e-09
-4.3564e-07
-2.90825e-07
2.96547e-09
2.01284e-07
-9.03802e-07
-1.42568e-07
2.06583e-07
-6.57708e-07
7.97858e-08
-6.87772e-07
2.18959e-08
-1.28279e-06
5.25133e-10
-1.39702e-06
-2.01489e-08
-1.3982e-06
-2.79404e-08
-1.32902e-06
-9.56852e-09
-7.06071e-07
1.95834e-09
-4.47166e-07
-2.99536e-07
1.06701e-08
1.98584e-07
-8.71274e-07
-2.31111e-07
1.62842e-07
-6.21963e-07
4.36383e-08
-5.68569e-07
4.81613e-09
-1.24397e-06
8.68544e-10
-1.39308e-06
-4.09865e-09
-1.39323e-06
-2.12433e-08
-1.31187e-06
-7.35182e-09
-7.19963e-07
9.88956e-09
-4.64408e-07
-3.17355e-07
2.77091e-08
1.26679e-07
-7.27729e-07
-2.70224e-07
5.28853e-08
-5.48166e-07
1.24147e-08
-5.281e-07
2.3729e-08
-1.25529e-06
5.79879e-10
-1.36993e-06
-2.21382e-08
-1.37051e-06
-2.93307e-08
-1.30468e-06
-1.01937e-08
-7.39099e-07
1.68404e-08
-4.91442e-07
-3.42865e-07
4.23495e-08
-7.67319e-09
-5.91787e-07
-1.28268e-07
-5.10355e-08
-5.04803e-07
-6.82723e-09
-5.72308e-07
3.46272e-09
-1.26558e-06
9.31773e-10
-1.3674e-06
-1.60231e-09
-1.36798e-06
-9.25888e-09
-1.29702e-06
1.14782e-08
-7.59835e-07
2.8534e-08
-5.08498e-07
-3.6564e-07
5.13095e-08
-4.2075e-08
-5.36233e-07
-1.34787e-08
-5.21407e-08
-4.94738e-07
1.00295e-08
-6.34479e-07
2.55762e-08
-1.28112e-06
-8.72506e-10
-1.34095e-06
-2.25562e-08
-1.3463e-06
-1.44024e-08
-1.30518e-06
7.08599e-10
-7.74947e-07
2.62475e-08
-5.34038e-07
-3.85868e-07
4.64741e-08
8.23278e-08
-4.68714e-07
-1.49847e-07
-7.25957e-09
-4.05153e-07
-5.70379e-08
-5.84702e-07
-2.31611e-08
-1.315e-06
-2.10656e-08
-1.34304e-06
-3.16831e-08
-1.33568e-06
-2.12846e-08
-1.31557e-06
-3.9465e-09
-7.92285e-07
2.82411e-08
-5.66227e-07
-4.02525e-07
4.48978e-08
1.72367e-07
-4.45554e-07
-1.95527e-07
1.20389e-07
-3.53175e-07
3.53477e-08
-4.99661e-07
2.25676e-08
-1.30222e-06
-1.35059e-09
-1.31912e-06
-1.80431e-08
-1.31899e-06
-2.34989e-08
-1.31012e-06
-1.17607e-08
-8.04024e-07
1.88457e-08
-5.96834e-07
-4.24496e-07
4.08154e-08
1.21607e-07
-4.15209e-07
-1.51952e-07
3.45404e-08
-2.6611e-07
3.15253e-08
-4.96648e-07
1.92614e-08
-1.28996e-06
1.40001e-08
-1.31386e-06
4.08656e-09
-1.30907e-06
-7.39341e-09
-1.29864e-06
-8.85381e-09
-8.02565e-07
-9.53488e-09
-5.96155e-07
-4.59683e-07
2.56518e-08
9.17685e-08
-3.65781e-07
-1.41197e-07
-4.6355e-08
-1.27987e-07
5.70184e-08
-6.00023e-07
5.62906e-08
-1.28923e-06
3.19465e-08
-1.28952e-06
1.93953e-08
-1.29652e-06
5.31983e-09
-1.28456e-06
-8.55621e-09
-7.88689e-07
-3.99154e-08
-5.64798e-07
-5.26147e-07
2.65473e-08
-2.53249e-09
-2.81263e-07
-8.19863e-08
-9.94131e-08
-3.11064e-08
2.48852e-08
-7.24322e-07
1.55159e-08
-1.27986e-06
4.74682e-09
-1.27875e-06
-1.0721e-08
-1.28105e-06
-2.32599e-08
-1.27202e-06
6.90471e-09
-8.18854e-07
-1.22905e-09
-5.56664e-07
-5.9611e-07
6.8733e-08
-2.26569e-07
-2.5005e-07
1.95355e-07
-9.04418e-08
-1.67235e-07
2.17788e-08
-8.36543e-07
8.70181e-09
-1.26678e-06
-9.40409e-09
-1.26064e-06
-3.375e-08
-1.25671e-06
-4.31779e-08
-1.2626e-06
2.04629e-08
-8.82496e-07
6.60595e-08
-6.02262e-07
-6.55019e-07
1.24968e-07
-2.36246e-07
-2.85114e-07
2.7131e-07
2.73389e-09
-4.06215e-07
2.7634e-08
-8.61444e-07
1.59916e-08
-1.25514e-06
1.34641e-09
-1.246e-06
-9.20161e-09
-1.24616e-06
-1.98515e-08
-1.25195e-06
3.63875e-08
-9.38737e-07
1.13859e-07
-6.79734e-07
-7.05029e-07
1.63869e-07
3.33232e-08
-2.68357e-07
-5.008e-08
5.49081e-08
-4.27799e-07
3.48789e-08
-8.41416e-07
2.32125e-08
-1.24348e-06
6.80629e-12
-1.22279e-06
-2.3782e-08
-1.22237e-06
-3.25695e-08
-1.24316e-06
3.45345e-08
-1.00584e-06
1.22976e-07
-7.68176e-07
-7.48359e-07
1.66306e-07
9.84824e-08
-2.23704e-07
-1.43136e-07
5.84804e-08
-3.87796e-07
2.89553e-08
-8.11888e-07
1.19788e-08
-1.2265e-06
-3.36408e-10
-1.21048e-06
-1.23379e-08
-1.21037e-06
-2.53011e-08
-1.2302e-06
2.97706e-08
-1.06091e-06
1.02826e-07
-8.41231e-07
-7.79651e-07
1.34118e-07
7.53574e-08
-1.79307e-07
-1.19755e-07
4.55695e-08
-3.58015e-07
3.60699e-08
-8.0239e-07
2.34461e-08
-1.21388e-06
-7.64303e-11
-1.18695e-06
-2.46046e-08
-1.18584e-06
-3.55098e-08
-1.21929e-06
1.06171e-09
-1.09748e-06
5.39847e-08
-8.94153e-07
-8.17214e-07
9.15479e-08
4.01738e-08
-1.65389e-07
-5.40923e-08
2.93317e-08
-3.47174e-07
2.75157e-08
-8.00575e-07
1.02211e-08
-1.19658e-06
-7.7049e-12
-1.17673e-06
-9.43614e-09
-1.17641e-06
-2.67232e-08
-1.202e-06
-1.63174e-08
-1.10789e-06
-2.07554e-09
-9.08396e-07
-8.32166e-07
1.28766e-08
2.73745e-08
-1.76409e-07
-1.63544e-08
2.60234e-08
-3.4582e-07
3.55583e-08
-8.10109e-07
2.19122e-08
-1.18294e-06
3.20287e-10
-1.15513e-06
-2.17253e-08
-1.15437e-06
-3.6358e-08
-1.18737e-06
-4.00003e-08
-1.10425e-06
-5.19682e-08
-8.96427e-07
-8.28417e-07
-5.57166e-08
3.60483e-08
-1.84016e-07
-2.84424e-08
2.4854e-08
-3.34624e-07
2.78973e-08
-8.1315e-07
7.63949e-09
-1.16268e-06
5.40174e-11
-1.14755e-06
-7.12889e-09
-1.14719e-06
-2.79932e-08
-1.16651e-06
-4.90033e-08
-1.08324e-06
-7.53629e-08
-8.70067e-07
-8.09965e-07
-9.38139e-08
5.17519e-08
-1.77359e-07
-5.84083e-08
3.42516e-08
-3.17123e-07
3.80382e-08
-8.16935e-07
2.08765e-08
-1.14552e-06
2.45292e-10
-1.12692e-06
-1.77564e-08
-1.12918e-06
-3.59131e-08
-1.14835e-06
-5.57361e-08
-1.06341e-06
-8.42672e-08
-8.41535e-07
-7.75356e-07
-1.18876e-07
4.75546e-08
-1.6478e-07
-6.01324e-08
2.4775e-08
-2.94345e-07
1.57747e-08
-8.07935e-07
-2.42193e-09
-1.12732e-06
-9.53004e-09
-1.11981e-06
-1.70459e-08
-1.12167e-06
-3.67115e-08
-1.12868e-06
-6.84199e-08
-1.03171e-06
-1.1585e-07
-7.94104e-07
-7.15245e-07
-1.7596e-07
6.26697e-08
-1.45542e-07
-8.19067e-08
3.14048e-08
-2.63081e-07
8.47761e-09
-7.85008e-07
-4.81429e-09
-1.11403e-06
-1.98903e-08
-1.10473e-06
-4.21499e-08
-1.09941e-06
-5.61856e-08
-1.11465e-06
-8.96528e-08
-9.98238e-07
-1.41486e-07
-7.42269e-07
-6.6238e-07
-1.94351e-07
7.88722e-08
-1.21579e-07
-1.02836e-07
4.82845e-08
-2.32491e-07
2.90192e-08
-7.65743e-07
1.29751e-08
-1.09798e-06
-4.49483e-11
-1.09171e-06
-6.22203e-09
-1.09323e-06
-2.31825e-08
-1.09769e-06
-8.74635e-08
-9.33956e-07
-1.57752e-07
-6.71979e-07
-5.92545e-07
-2.27587e-07
8.89664e-08
-1.01664e-07
-1.08881e-07
6.07532e-08
-2.04272e-07
3.87193e-08
-7.4371e-07
2.11653e-08
-1.08043e-06
8.81603e-10
-1.07143e-06
-2.16341e-08
-1.07072e-06
-3.88749e-08
-1.08045e-06
-1.01791e-07
-8.71039e-07
-1.65185e-07
-6.08584e-07
-5.29834e-07
-2.27896e-07
1.00625e-07
-5.80848e-08
-1.44204e-07
6.08121e-08
-1.64452e-07
3.77872e-08
-7.20683e-07
1.94323e-08
-1.06207e-06
4.98923e-09
-1.05699e-06
-7.73326e-09
-1.05799e-06
-2.58664e-08
-1.06231e-06
-1.09028e-07
-7.87877e-07
-1.85877e-07
-5.31734e-07
-4.59737e-07
-2.55974e-07
1.37711e-07
-2.2891e-08
-1.72904e-07
7.77967e-08
-1.04535e-07
4.3626e-08
-6.86509e-07
2.8395e-08
-1.04684e-06
2.99293e-09
-1.03158e-06
-2.24475e-08
-1.03255e-06
-3.80013e-08
-1.04676e-06
-1.19264e-07
-7.06614e-07
-1.94192e-07
-4.56807e-07
-3.95847e-07
-2.58081e-07
3.00241e-08
2.73277e-08
-8.02413e-08
3.54229e-08
-1.09936e-07
3.64976e-08
-6.87583e-07
2.13455e-08
-1.03169e-06
2.73612e-09
-1.01297e-06
-1.41707e-08
-1.01565e-06
-3.05287e-08
-1.0304e-06
-1.01961e-07
-6.35181e-07
-1.78981e-07
-3.79786e-07
-3.38228e-07
-2.366e-07
1.77203e-08
3.34298e-08
-2.38202e-08
3.9506e-08
-1.3172e-07
4.10324e-08
-6.8911e-07
2.31824e-08
-1.01384e-06
-4.63046e-09
-9.85162e-07
-3.46377e-08
-9.85638e-07
-5.23601e-08
-1.01268e-06
-8.22801e-08
-6.0526e-07
-1.42712e-07
-3.19355e-07
-2.98099e-07
-1.8284e-07
2.71509e-08
2.05851e-08
-1.43057e-08
3.77129e-08
-1.42278e-07
3.66168e-08
-6.88012e-07
1.58357e-08
-9.93058e-07
-3.8759e-09
-9.6545e-07
-2.52495e-08
-9.64265e-07
-4.54628e-08
-9.92466e-07
-5.79558e-08
-5.92768e-07
-1.32027e-07
-2.45284e-07
-2.4142e-07
-1.88706e-07
3.85472e-08
1.08055e-08
-2.87683e-08
3.95014e-08
-1.43235e-07
4.95007e-08
-6.98012e-07
3.11229e-08
-9.7468e-07
1.8729e-09
-9.362e-07
-2.49209e-08
-9.37471e-07
-4.30532e-08
-9.74334e-07
-3.51119e-08
-6.00709e-07
-9.51484e-08
-1.85247e-07
-1.83863e-07
-1.52705e-07
3.95135e-08
1.04357e-08
-3.91441e-08
3.12606e-08
-1.34984e-07
3.67517e-08
-7.03503e-07
1.58608e-08
-9.53789e-07
7.58632e-11
-9.20416e-07
-1.66962e-08
-9.20699e-07
-3.76524e-08
-9.53378e-07
-2.96509e-08
-6.0871e-07
-9.3984e-08
-1.20914e-07
-1.25097e-07
-1.52751e-07
4.50419e-08
1.35427e-08
-4.81492e-08
3.93658e-08
-1.29307e-07
4.53644e-08
-7.09501e-07
2.49758e-08
-9.33401e-07
-1.8994e-11
-8.95421e-07
-2.46815e-08
-8.96036e-07
-4.5554e-08
-9.32505e-07
-4.04929e-08
-6.13771e-07
-1.0305e-07
-5.83568e-08
-5.97803e-08
-1.68368e-07
4.78929e-08
1.71199e-08
-5.147e-08
4.07558e-08
-1.22168e-07
3.70099e-08
-7.05755e-07
1.20118e-08
-9.08403e-07
2.02937e-10
-8.83612e-07
-1.17411e-08
-8.84092e-07
-3.62834e-08
-9.07963e-07
-3.01854e-08
-6.19869e-07
-6.90055e-08
-1.95376e-08
-7.15096e-09
-1.21635e-07
5.72981e-08
1.88317e-08
-5.90092e-08
5.26864e-08
-1.17554e-07
4.65753e-08
-6.99643e-07
2.51511e-08
-8.86979e-07
4.08104e-11
-8.58502e-07
-2.50131e-08
-8.59038e-07
-4.6799e-08
-8.86177e-07
-4.41271e-08
-6.22542e-07
-6.93736e-08
5.70796e-09
4.24043e-08
-1.18929e-07
5.97328e-08
2.05865e-08
-6.14868e-08
5.24781e-08
-1.10296e-07
3.69769e-08
-6.84141e-07
1.31086e-08
-8.6311e-07
1.20357e-10
-8.45513e-07
-1.29053e-08
-8.46013e-07
-3.68935e-08
-8.62189e-07
-3.30724e-08
-6.26364e-07
-3.66669e-08
9.30198e-09
8.18525e-08
-7.61155e-08
6.68936e-08
2.05287e-08
-6.68348e-08
6.29526e-08
-1.0635e-07
4.94048e-08
-6.70592e-07
2.79021e-08
-8.41607e-07
4.05696e-10
-8.18017e-07
-2.7577e-08
-8.1803e-07
-4.91763e-08
-8.4059e-07
-4.91889e-08
-6.26351e-07
-3.74733e-08
-2.41366e-09
8.84508e-08
-4.40722e-08
6.5522e-08
2.15311e-08
-6.65227e-08
5.80991e-08
-9.89237e-08
4.02521e-08
-6.52744e-07
1.62856e-08
-8.17641e-07
3.01335e-10
-8.02033e-07
-1.59363e-08
-8.01792e-07
-3.99986e-08
-8.16527e-07
-4.55531e-08
-6.20796e-07
-2.0973e-08
-2.69938e-08
6.57518e-08
1.72569e-09
7.04615e-08
2.08798e-08
-6.98088e-08
6.72581e-08
-9.57195e-08
5.42835e-08
-6.39769e-07
3.21304e-08
-7.95488e-07
5.12599e-10
-7.70415e-07
-3.16119e-08
-7.69668e-07
-5.3535e-08
-7.94604e-07
-5.94227e-08
-6.14909e-07
-3.32555e-08
-5.31609e-08
2.98761e-08
2.62048e-09
6.72881e-08
2.12571e-08
-6.76653e-08
6.08362e-08
-8.92666e-08
4.44578e-08
-6.23391e-07
1.87212e-08
-7.69751e-07
3.50206e-11
-7.51729e-07
-1.88234e-08
-7.5081e-07
-4.39222e-08
-7.69505e-07
-5.13807e-08
-6.07451e-07
-2.74709e-08
-7.70703e-08
1.1531e-08
-9.12515e-09
7.23242e-08
1.95307e-08
-7.05974e-08
7.11193e-08
-8.80567e-08
5.96461e-08
-6.11917e-07
3.46335e-08
-7.44738e-07
-2.02983e-10
-7.16892e-07
-3.52191e-08
-7.15793e-07
-5.95248e-08
-7.452e-07
-6.95184e-08
-5.97457e-07
-6.83569e-08
-7.82307e-08
9.0504e-09
-6.58754e-08
6.83169e-08
1.81986e-08
-6.69836e-08
6.5199e-08
-8.49363e-08
4.83044e-08
-5.95023e-07
1.89339e-08
-7.15367e-07
-4.50359e-11
-6.97913e-07
-1.9298e-08
-6.9654e-07
-4.79859e-08
-7.16512e-07
-6.56268e-08
-5.79815e-07
-7.50342e-08
-6.88222e-08
1.68905e-08
-8.28731e-08
7.19932e-08
1.37798e-08
-6.75729e-08
7.75204e-08
-9.04623e-08
6.35362e-08
-5.81038e-07
3.53266e-08
-6.87158e-07
-2.0053e-10
-6.62386e-07
-3.52805e-08
-6.6146e-07
-6.32454e-08
-6.88547e-07
-7.7761e-08
-5.65299e-07
-7.88329e-08
-6.77493e-08
2.15333e-08
-8.34747e-08
6.20834e-08
1.01091e-08
-5.84124e-08
6.76099e-08
-9.59884e-08
4.98434e-08
-5.63271e-07
1.86323e-08
-6.55947e-07
-3.51104e-09
-6.40243e-07
-1.90939e-08
-6.45878e-07
-4.98151e-08
-6.57826e-07
-7.07598e-08
-5.44353e-07
-6.5367e-08
-7.31412e-08
2.10529e-08
-6.4886e-08
5.88725e-08
1.24314e-09
-5.00067e-08
7.98777e-08
-1.16995e-07
5.63622e-08
-5.39755e-07
2.67961e-08
-6.26381e-07
-4.20629e-09
-6.0924e-07
-4.12643e-08
-6.0882e-07
-6.99687e-08
-6.29121e-07
-8.50836e-08
-5.29238e-07
-5.71887e-08
-1.01035e-07
9.71982e-09
-4.5855e-08
4.22925e-08
-5.53021e-09
-3.55194e-08
7.75771e-08
-1.52282e-07
7.12387e-08
-5.33417e-07
4.04351e-08
-5.95577e-07
2.30688e-08
-5.91874e-07
2.28113e-09
-5.88032e-07
-3.07267e-08
-5.96114e-07
-3.70399e-08
-5.22924e-07
-1.106e-08
-1.27014e-07
1.62622e-08
-1.76012e-08
5.77837e-09
8.41638e-09
-1.97251e-08
1.33009e-08
-1.59806e-07
5.33001e-08
-5.73416e-07
2.23573e-08
-5.64634e-07
-1.74865e-08
-5.5203e-07
-3.78689e-08
-5.67649e-07
-7.16758e-08
-5.62307e-07
-4.24064e-08
-5.52193e-07
-3.45755e-09
-1.65962e-07
4.24777e-08
-2.96714e-08
5.81429e-08
1.2528e-08
-6.22548e-08
7.10699e-08
-1.72732e-07
1.55625e-08
-5.17908e-07
-2.50998e-08
-5.23972e-07
-4.82895e-08
-5.28841e-07
-9.41442e-08
-5.21795e-07
-1.21009e-07
-5.35442e-07
-1.34614e-07
-5.38588e-07
-9.01717e-08
-2.10403e-07
3.10111e-08
-7.87037e-08
8.35585e-08
1.3331e-08
-8.43613e-08
1.05084e-07
-1.94256e-07
7.67413e-08
-4.89566e-07
4.33112e-08
-4.90542e-07
9.25045e-09
-4.9478e-07
-2.22462e-08
-4.90298e-07
-6.84319e-08
-4.89256e-07
-1.24785e-07
-4.82235e-07
-8.95729e-08
-2.45615e-07
2.43671e-08
-8.29278e-08
1.16981e-07
1.70826e-09
-1.05358e-07
1.21239e-07
-1.98515e-07
6.81916e-08
-4.3652e-07
2.52554e-08
-4.47605e-07
-1.75819e-08
-4.51943e-07
-5.69488e-08
-4.50931e-07
-9.4416e-08
-4.51789e-07
-1.3956e-07
-4.37092e-07
-1.35758e-07
-2.49415e-07
3.39822e-09
-1.14789e-07
1.48281e-07
-2.86972e-08
-1.17875e-07
1.68448e-07
-2.18677e-07
1.19591e-07
-3.87662e-07
7.60371e-08
-4.04052e-07
3.23495e-08
-4.08255e-07
-9.69657e-09
-4.08885e-07
-5.88953e-08
-4.0259e-07
-1.06844e-07
-3.89143e-07
-1.11921e-07
-2.44339e-07
-3.05819e-08
-7.79397e-08
6.27076e-08
-5.8681e-08
-3.27251e-08
1.23432e-07
-2.79407e-07
7.72894e-08
-3.41519e-07
2.98427e-08
-3.56605e-07
-1.14766e-08
-3.66936e-07
-5.44369e-08
-3.65925e-07
-1.00179e-07
-3.56848e-07
-1.43053e-07
-3.46269e-07
-7.26065e-08
-3.14784e-07
-7.50063e-08
-2.81817e-08
1.55651e-07
-8.95259e-08