/*--------------------------------*- C++ -*----------------------------------*\
  =========                 |
  \\      /  F ield         | OpenFOAM: The Open Source CFD Toolbox
   \\    /   O peration     | Website:  https://openfoam.org
    \\  /    A nd           | Version:  8
     \\/     M anipulation  |
\*---------------------------------------------------------------------------*/
FoamFile
{
    version     2.0;
    format      ascii;
    class       volScalarField;
    location    "2.35";
    object      p_rgh;
}
// * * * * * * * * * * * * * * * * * * * * * * * * * * * * * * * * * * * * * //

dimensions      [1 -1 -2 0 0 0 0];

internalField   nonuniform List<scalar> 
9150
(
2576.78
2549.8
2524.28
2507.09
2498.8
2498.81
2507.14
2524.34
2549.86
2576.84
2567.54
2548.01
2532.35
2520.56
2514.58
2514.59
2520.59
2532.39
2548.07
2567.6
2557.9
2544.36
2535.8
2528.06
2523.95
2523.96
2528.08
2535.83
2544.4
2557.94
2552.8
2542.82
2537.33
2531.99
2529.02
2529.03
2532.01
2537.36
2542.86
2552.85
2551.13
2542.27
2537.65
2533.49
2531.06
2531.06
2533.51
2537.68
2542.3
2551.17
2111.13
2107.23
2132.58
2147.04
2153.88
2154.08
2147.63
2133.45
2108.45
2112.8
2301.41
2277.25
2271.96
2270.86
2271.09
2271.2
2271.17
2272.44
2277.88
2302.04
2425.75
2394.32
2378.41
2368.6
2364.01
2364.07
2368.78
2378.68
2394.63
2426.02
2526.01
2483.78
2455.95
2438.65
2430.2
2430.23
2438.76
2456.09
2483.94
2526.14
2596.05
2543.52
2504.91
2482.9
2472.79
2472.81
2482.97
2505
2543.61
2596.11
1922.76
1957.55
1946.88
1957.31
1953.04
1954.89
1957.54
1951.57
1961.49
1941.83
1952.62
1969.45
1949.82
1959.05
1955.33
1956.7
1959.51
1956.31
1975.26
1964.93
1929.35
1961.18
1929.99
1937.98
1941.66
1942.1
1939.06
1935.47
1965.68
1937.83
1770.41
1896.75
1914.38
1933.26
1950.01
1950.37
1935.06
1918.04
1899.44
1777.46
1647.67
1885.77
1982.65
2013.04
2028.99
2029.32
2014.14
1984.36
1887.75
1652.74
1772.71
1772.9
1773.08
1773.25
1773.41
1773.55
1773.69
1773.81
1773.93
1774.04
1771.94
1772.12
1772.29
1772.45
1772.62
1772.77
1772.93
1773.08
1773.23
1773.38
1771.27
1771.42
1771.58
1771.74
1771.91
1772.07
1772.25
1772.42
1772.59
1772.77
1770.85
1770.99
1771.14
1771.29
1771.45
1771.62
1771.79
1771.98
1772.16
1772.35
1770.6
1770.73
1770.86
1771.01
1771.16
1771.33
1771.5
1771.68
1771.87
1772.07
1770.47
1770.58
1770.71
1770.84
1770.99
1771.15
1771.31
1771.49
1771.67
1771.87
1770.42
1770.52
1770.64
1770.77
1770.9
1771.05
1771.21
1771.37
1771.54
1771.72
1770.43
1770.53
1770.64
1770.76
1770.89
1771.02
1771.16
1771.31
1771.47
1771.63
1770.51
1770.61
1770.71
1770.82
1770.93
1771.05
1771.18
1771.31
1771.44
1771.57
1770.64
1770.74
1770.84
1770.94
1771.04
1771.14
1771.25
1771.35
1771.46
1771.56
1770.83
1770.93
1771.02
1771.12
1771.21
1771.3
1771.39
1771.47
1771.54
1771.61
1771.07
1771.18
1771.28
1771.38
1771.47
1771.55
1771.62
1771.68
1771.72
1771.75
1771.38
1771.5
1771.62
1771.72
1771.81
1771.9
1771.97
1772.01
1772.04
1772.03
1771.76
1771.9
1772.03
1772.16
1772.27
1772.37
1772.45
1772.51
1772.54
1772.53
1772.2
1772.37
1772.54
1772.69
1772.83
1772.96
1773.08
1773.17
1773.24
1773.28
1772.71
1772.92
1773.12
1773.31
1773.5
1773.68
1773.85
1774.01
1774.16
1774.29
1773.27
1773.51
1773.75
1773.99
1774.23
1774.46
1774.7
1774.93
1775.16
1775.39
1773.86
1774.14
1774.42
1774.71
1775
1775.3
1775.6
1775.92
1776.25
1776.59
1774.45
1774.76
1775.08
1775.42
1775.77
1776.12
1776.49
1776.87
1777.26
1777.67
1775
1775.35
1775.72
1776.1
1776.51
1776.92
1777.35
1777.78
1778.23
1778.69
1775.45
1775.85
1776.28
1776.73
1777.2
1777.68
1778.17
1778.67
1779.17
1779.68
1775.75
1776.23
1776.75
1777.29
1777.84
1778.41
1778.97
1779.53
1780.09
1780.64
1775.82
1776.41
1777.08
1777.75
1778.43
1779.1
1779.76
1780.39
1781.02
1781.62
1775.5
1776.33
1777.24
1778.14
1779
1779.81
1780.57
1781.3
1781.99
1782.64
1774.54
1775.99
1777.4
1778.59
1779.66
1780.63
1781.51
1782.33
1783.07
1783.76
1743.64
1752.54
1777.92
1779.52
1780.66
1781.73
1782.71
1783.57
1784.35
1785.05
1480.76
1600.63
1780.15
1781.59
1782.54
1783.49
1784.38
1785.17
1785.89
1786.54
1414.94
1442.43
1742.98
1784.42
1785.15
1785.82
1786.48
1787.11
1787.7
1788.24
1402.55
1433.73
1739.87
1786.79
1787.5
1788.06
1788.59
1789.09
1789.57
1790.02
1392.95
1627
1789.46
1789.7
1790.16
1790.53
1790.87
1791.2
1791.54
1791.87
1596.81
1793.75
1792.69
1792.7
1792.84
1792.96
1793.1
1793.28
1793.49
1793.71
1797.06
1795.63
1795.33
1795.22
1795.14
1795.11
1795.13
1795.21
1795.32
1795.45
1799.2
1798.36
1797.86
1797.47
1797.19
1797.03
1796.95
1796.93
1796.98
1797.05
1800.35
1799.73
1799.24
1798.88
1798.62
1798.41
1798.3
1798.37
1798.41
1798.46
1800.66
1800.29
1800
1799.77
1799.12
1798.55
1799.33
1799.53
1799.58
1799.65
1800.72
1800.55
1800.4
1799.47
1798.77
1799.06
1800.31
1800.41
1800.5
1800.61
1800.62
1800.43
1799.18
1798.98
1799.08
1800.62
1800.88
1801.01
1801.16
1801.33
1799.53
1798.67
1798.79
1799.28
1800.8
1800.95
1801.13
1801.33
1801.55
1801.79
1798.11
1798.25
1799.36
1800.4
1800.6
1800.82
1801.08
1801.35
1801.64
1801.95
1797.35
1798.95
1799.59
1799.83
1800
1800.36
1800.72
1801.04
1801.39
1801.76
1797.51
1798.19
1798.35
1798.2
1799.14
1799.61
1799.97
1800.34
1800.75
1801.17
1796.62
1796.36
1794.51
1796.6
1798.01
1798.37
1798.77
1799.18
1799.63
1800.1
1774.29
1760.88
1794.38
1795.74
1796.15
1796.59
1797.02
1797.45
1797.93
1798.49
1712.85
1752.67
1793.38
1793.57
1793.98
1794.12
1794.28
1794.87
1795.74
1796.27
1704.3
1778.77
1791
1791.19
1791.42
1789.14
1788.49
1790.8
1792.96
1793.47
1752.4
1788.06
1787.84
1788.1
1788.53
1788.7
1785.12
1784.66
1789.36
1789.67
1784.18
1783.54
1783.48
1773.3
1764.18
1773.51
1782.16
1781.55
1750.44
1667.31
1779.09
1778.86
1681.45
1604.07
1636.13
1776.63
1781.77
1716.51
1659.05
1660.1
1775.67
1699.93
1593.76
1594.16
1594.76
1626.13
1761.67
1750.96
1672.32
1655.26
1772.22
1770.78
1679.88
1587.81
1589.54
1590.23
1591.09
1656.31
1772.49
1772.85
1686.04
1765.07
1764.97
1756.14
1729.53
1695.84
1636.59
1643.83
1758.51
1776.57
959.778
1420.08
1754.4
1774.2
1775.69
1775.69
1770.4
1763.04
1765.61
1773.42
794.675
830.629
1320
1779.64
1778.67
1777.9
1776.8
1775.48
1774
1772.33
793.663
793.402
1124.06
1756.89
1786.95
1783.13
1780.07
1777.24
1774.59
1772.05
815.229
1042.51
1477
1772.11
1792.09
1786.89
1782.57
1778.7
1775.13
1771.79
1441.65
1695.33
1792.42
1794.41
1791.82
1787.27
1783.02
1778.97
1775.06
1771.22
1801.86
1800.34
1797.44
1794.13
1790.51
1786.77
1782.95
1779.07
1775.1
1771.01
1799.53
1798.09
1795.84
1792.97
1790.11
1786.88
1783.44
1779.82
1775.99
1771.92
1799.17
1797.56
1795.44
1792.68
1789.43
1787.3
1784.72
1781.55
1778.16
1774.61
1798.85
1797.64
1795.76
1793.69
1790.64
1786.7
1784.06
1779.53
1776.5
1775.49
1799.91
1797.85
1796.67
1794.9
1792.75
1789.2
1784.04
1781.95
1779.77
1779.83
1801.39
1799.53
1777.35
1741.51
1766.11
1789.55
1789.7
1786.34
1785.64
1786.56
1803.44
1802.28
1747.19
1740.44
1738.76
1773
1793.07
1791.5
1789.93
1789.61
1805.96
1804.91
1759.73
1742.49
1740.93
1770.75
1796.17
1794.31
1792.08
1647.26
1808.19
1808.06
1798.72
1745.31
1752.63
1793.46
1797.86
1794.65
1630.83
996.582
1811.34
1811.74
1811.2
1799.65
1803.15
1802.4
1780.99
1460.11
829.978
591.336
1816.28
1816.86
1816.6
1815.43
1813.66
1697.43
1191.98
676.969
570.874
574.593
1823.22
1823.67
1823.18
1822.21
1591.98
923.283
573.863
558.022
560.37
563.506
1831.32
1831.75
1830.57
1501.25
745.754
549.002
551.125
553.243
554.853
562.963
1840.01
1839.55
1466.11
665.713
542.659
544.305
546.28
549.042
556.166
757.873
1850.15
1492.94
639.058
536.04
537.309
538.532
540.942
560.232
933.981
1413.07
1559.24
651.142
534.294
533.828
533.377
534.304
547.477
1139.9
1775.03
1827.88
688.167
532.787
530.374
526.661
525.146
577.759
1134.5
1819.36
1875.76
1864.21
520.913
518.063
667.297
728.819
840.67
1322.77
1794.62
1863.17
1857.99
1843.8
569.39
758.659
958.404
1021.55
1443.28
1819.43
1863.56
1857.17
1843.19
1824.15
992.984
984.498
820.189
1135.4
1790.62
1880.9
1867.55
1848.75
1826.93
1801.54
1158
675.896
713.921
1601.53
1890.18
1878.4
1856.68
1832.53
1805.42
1774.59
617.19
663.728
1364.96
1874.61
1879.41
1861.74
1839.13
1812.51
1781.64
1746.62
399.048
672.476
1807.77
1892.26
1872.47
1849.37
1823.56
1793.93
1760.3
1723.11
356.438
1443.32
1886.18
1872.2
1853.4
1831.46
1805.55
1775.37
1741.29
1704.1
382.349
1639.82
1869.61
1856.29
1837.85
1816.36
1791.07
1761.82
1728.96
1693.48
631.378
1745.44
1850.2
1838.28
1822.57
1803.69
1781.25
1755.53
1727.29
1698.43
727.301
1778.15
1835.07
1825.26
1812.25
1796.29
1777.26
1755.75
1732.77
1710.57
824.985
1802.96
1828.4
1817.9
1806.35
1793.21
1777.99
1761.17
1743.81
1728.35
914.47
1796.3
1813.2
1807.82
1800.8
1792.28
1781.8
1769.98
1758.1
1749.26
963.836
1789.34
1804.04
1804.14
1801.25
1796.47
1789.68
1781.71
1774.18
1770.48
1094.97
1811.06
1814.9
1813.22
1810.1
1805.92
1800.5
1794.74
1790.23
1735.7
1317.94
1837.74
1831.52
1826.1
1820.8
1815.27
1809.38
1804.08
1800.94
1635.43
1512.23
1854.37
1844.24
1836.31
1828.93
1821.41
1813.72
1806.42
1800.45
1514.03
1642.05
1861.45
1851.15
1842.51
1834.18
1825.37
1816.03
1805.75
1794.13
1350.38
1696.91
1861.74
1853.65
1846.12
1838.39
1829.88
1820.73
1810.35
1798.82
1224.59
1705.11
1859.98
1855.53
1850.24
1844.14
1836.87
1828.61
1819.05
1808.69
1146.68
1698.67
1861.72
1860.36
1857.13
1852.93
1847.43
1840.74
1832.97
1823.21
1094.37
1712.31
1874.06
1871.04
1867.66
1864.4
1860.17
1855.38
1851.99
1845.96
1097.42
1707.58
1884.17
1882.75
1879.47
1876.67
1872.81
1868.72
1866.17
1857.97
1159.4
1711.35
1897.99
1895.17
1890.95
1888.6
1885.42
1882.44
1880.36
1872.45
1215.35
1700.35
1900.88
1902.85
1900.44
1899.63
1898.26
1896.93
1894.94
1888.59
1352.57
1695.33
1908.01
1911.92
1911.85
1911.78
1912.14
1912.73
1911.13
1909.22
1501.09
1772.18
1924.84
1925.37
1926.17
1925.07
1926.43
1928.68
1927.76
1933.08
1681.26
1844.58
1952.59
1941.09
1943.08
1939.57
1941.17
1943.83
1941.29
1952.91
1843.3
1774.15
1774.25
1774.36
1774.46
1774.56
1774.66
1774.76
1774.87
1774.98
1775.1
1775.22
1775.34
1775.46
1775.58
1775.71
1775.82
1775.94
1776.05
1776.14
1776.23
1776.3
1776.36
1776.39
1776.41
1776.4
1776.37
1776.32
1776.24
1776.14
1776.03
1775.91
1775.79
1775.69
1775.63
1775.6
1775.62
1775.67
1775.74
1775.79
1776.02
1773.53
1773.69
1773.85
1774
1774.16
1774.31
1774.47
1774.62
1774.77
1774.92
1775.06
1775.2
1775.34
1775.46
1775.58
1775.7
1775.8
1775.88
1775.96
1776.02
1776.06
1776.08
1776.09
1776.08
1776.05
1776
1775.93
1775.85
1775.76
1775.67
1775.58
1775.51
1775.47
1775.47
1775.52
1775.6
1775.7
1775.81
1775.92
1776.15
1772.96
1773.16
1773.36
1773.56
1773.76
1773.96
1774.15
1774.34
1774.52
1774.7
1774.87
1775.03
1775.17
1775.31
1775.43
1775.54
1775.63
1775.71
1775.77
1775.82
1775.85
1775.86
1775.85
1775.83
1775.79
1775.74
1775.68
1775.62
1775.55
1775.48
1775.43
1775.4
1775.39
1775.4
1775.45
1775.51
1775.57
1775.65
1775.81
1776.05
1772.56
1772.78
1773
1773.23
1773.45
1773.67
1773.89
1774.1
1774.3
1774.5
1774.68
1774.86
1775.02
1775.16
1775.3
1775.41
1775.51
1775.6
1775.67
1775.72
1775.76
1775.78
1775.78
1775.77
1775.75
1775.71
1775.67
1775.62
1775.56
1775.51
1775.46
1775.42
1775.38
1775.35
1775.33
1775.32
1775.33
1775.4
1775.57
1775.86
1772.28
1772.5
1772.73
1772.97
1773.2
1773.43
1773.66
1773.89
1774.11
1774.32
1774.52
1774.71
1774.88
1775.05
1775.2
1775.33
1775.45
1775.55
1775.64
1775.72
1775.77
1775.82
1775.85
1775.86
1775.86
1775.86
1775.84
1775.81
1775.77
1775.72
1775.66
1775.59
1775.51
1775.41
1775.29
1775.16
1775.07
1775.09
1775.26
1775.61
1772.07
1772.29
1772.52
1772.75
1772.99
1773.22
1773.46
1773.69
1773.92
1774.14
1774.36
1774.57
1774.76
1774.95
1775.12
1775.28
1775.43
1775.56
1775.68
1775.79
1775.88
1775.95
1776.02
1776.07
1776.11
1776.13
1776.15
1776.15
1776.13
1776.1
1776.05
1775.96
1775.83
1775.65
1775.41
1775.1
1774.77
1774.61
1774.77
1775.42
1771.92
1772.13
1772.34
1772.56
1772.79
1773.02
1773.25
1773.49
1773.72
1773.96
1774.19
1774.42
1774.65
1774.86
1775.07
1775.26
1775.44
1775.61
1775.77
1775.91
1776.04
1776.16
1776.27
1776.37
1776.45
1776.53
1776.59
1776.63
1776.66
1776.67
1776.64
1776.56
1776.42
1776.19
1775.83
1775.24
1772.3
1764.32
1761.17
1769.54
1771.8
1771.99
1772.18
1772.38
1772.59
1772.8
1773.02
1773.25
1773.49
1773.74
1774
1774.26
1774.51
1774.76
1775.01
1775.25
1775.47
1775.69
1775.89
1776.08
1776.26
1776.43
1776.59
1776.74
1776.88
1777.01
1777.13
1777.24
1777.35
1777.44
1777.51
1777.56
1777.57
1777.54
1777.44
1776.99
1761.09
1751.81
1751.17
1750.35
1771.72
1771.87
1772.02
1772.18
1772.35
1772.53
1772.72
1772.94
1773.19
1773.45
1773.74
1774.04
1774.34
1774.64
1774.94
1775.23
1775.51
1775.77
1776.03
1776.27
1776.5
1776.73
1776.94
1777.14
1777.34
1777.53
1777.71
1777.9
1778.08
1778.27
1778.46
1778.65
1778.85
1779.06
1779.29
1779.51
1771.15
1750.99
1750.63
1749.93
1771.67
1771.77
1771.86
1771.96
1772.06
1772.18
1772.32
1772.5
1772.73
1773.03
1773.37
1773.74
1774.11
1774.48
1774.84
1775.19
1775.54
1775.87
1776.18
1776.48
1776.76
1777.04
1777.3
1777.55
1777.8
1778.05
1778.29
1778.53
1778.78
1779.04
1779.31
1779.6
1779.91
1780.27
1780.66
1781.1
1781.59
1776.52
1757.67
1751.12
1771.66
1771.7
1771.72
1771.72
1771.69
1771.64
1771.71
1771.81
1772.06
1772.43
1772.87
1773.32
1773.79
1774.25
1774.7
1775.15
1775.57
1775.96
1776.34
1776.69
1777.03
1777.35
1777.66
1777.96
1778.25
1778.53
1778.81
1779.09
1779.37
1779.66
1779.95
1780.26
1780.58
1780.91
1781.24
1781.56
1781.8
1781.81
1780.99
1779
1771.75
1771.7
1771.62
1771.5
1771.3
1770.37
1769.74
1770.59
1771.01
1771.53
1772.13
1772.66
1773.22
1773.91
1774.56
1775.1
1775.61
1776.08
1776.51
1776.93
1777.31
1777.68
1778.02
1778.36
1778.67
1778.98
1779.28
1779.58
1779.87
1780.16
1780.44
1780.72
1780.99
1781.25
1781.47
1781.63
1781.68
1781.5
1781
1780.35
1771.99
1771.87
1771.69
1771.42
1771.07
1769.11
1757.97
1758.68
1769.37
1770.2
1770.6
1771.46
1772.47
1773.73
1774.45
1775.1
1775.7
1776.24
1776.74
1777.19
1777.62
1778.02
1778.39
1778.74
1779.08
1779.4
1779.71
1780.01
1780.29
1780.56
1780.82
1781.06
1781.27
1781.45
1781.57
1781.62
1781.54
1781.26
1780.75
1780.17
1772.47
1772.34
1772.11
1771.76
1771.3
1770.6
1745.69
1723.39
1762.59
1768.21
1768.73
1771.36
1772.59
1773.58
1774.46
1775.22
1775.9
1776.5
1777.04
1777.53
1777.98
1778.39
1778.78
1779.14
1779.49
1779.81
1780.12
1780.4
1780.67
1780.92
1781.15
1781.35
1781.51
1781.62
1781.67
1781.64
1781.49
1781.17
1780.68
1780.17
1773.28
1773.21
1773.05
1772.78
1772.43
1772
1736.66
1643.83
1703.89
1766.53
1767.56
1770.61
1772.61
1773.8
1774.77
1775.59
1776.3
1776.92
1777.47
1777.94
1778.36
1778.81
1779.21
1779.57
1779.91
1780.23
1780.52
1780.8
1781.05
1781.27
1781.47
1781.63
1781.75
1781.82
1781.82
1781.75
1781.56
1781.23
1780.77
1780.31
1774.41
1774.51
1774.59
1774.64
1774.74
1774.85
1754.33
1595.91
1557.46
1745.33
1769.36
1771.5
1773.46
1774.62
1775.54
1776.32
1776.98
1777.55
1778.06
1778.47
1778.86
1779.25
1779.67
1780.05
1780.37
1780.67
1780.95
1781.2
1781.43
1781.64
1781.81
1781.95
1782.04
1782.08
1782.05
1781.95
1781.76
1781.44
1781.01
1780.6
1775.62
1775.86
1776.1
1776.35
1776.66
1776.96
1770.7
1609.17
1523.09
1538.49
1749.06
1776.15
1776.3
1776.68
1777.12
1777.55
1778.04
1778.46
1778.85
1779.21
1779.49
1779.83
1780.16
1780.57
1780.87
1781.15
1781.41
1781.64
1781.86
1782.05
1782.21
1782.32
1782.39
1782.41
1782.37
1782.26
1782.07
1781.77
1781.37
1781.01
1776.97
1777.41
1777.92
1778.55
1779.4
1780.56
1781.66
1717.94
1521.81
1501.54
1520.8
1697.69
1777.87
1778.01
1778.35
1778.7
1779.03
1779.37
1779.69
1779.98
1780.27
1780.52
1780.79
1781.14
1781.42
1781.68
1781.92
1782.14
1782.34
1782.52
1782.66
1782.77
1782.83
1782.83
1782.79
1782.68
1782.5
1782.22
1781.86
1781.54
1778.12
1778.63
1779.19
1779.82
1780.54
1781.39
1782.45
1783.92
1739.78
1531
1484.51
1480.74
1671.25
1780.85
1780.32
1780.27
1780.31
1780.41
1780.58
1780.77
1780.99
1781.22
1781.45
1781.74
1782.01
1782.26
1782.49
1782.7
1782.89
1783.06
1783.2
1783.3
1783.35
1783.36
1783.31
1783.21
1783.04
1782.78
1782.45
1782.16
1779.19
1779.73
1780.3
1780.89
1781.52
1782.15
1782.79
1783.48
1784.3
1766.66
1559.39
1469.86
1465.84
1667.04
1782.06
1781.75
1781.61
1781.4
1781.41
1781.52
1781.69
1781.74
1781.24
1781.67
1782.45
1782.89
1783.12
1783.3
1783.48
1783.69
1783.83
1783.93
1783.98
1783.99
1783.95
1783.86
1783.69
1783.45
1783.15
1782.89
1780.21
1780.78
1781.36
1781.94
1782.53
1783.11
1783.67
1784.18
1784.6
1784.66
1767.32
1549.45
1459.19
1454.96
1597.31
1767.15
1782.83
1782.25
1782.04
1782.14
1782.34
1782.45
1781.48
1781.73
1781.95
1782.89
1783.48
1783.97
1784.16
1784.41
1784.56
1784.66
1784.73
1784.74
1784.71
1784.62
1784.47
1784.24
1783.95
1783.7
1781.22
1781.82
1782.41
1783
1783.59
1784.17
1784.75
1785.34
1785.92
1786.5
1787.11
1787.75
1643.25
1461.31
1463.58
1510.27
1648.68
1781.5
1781.79
1782.29
1782.73
1783.11
1783.02
1782.39
1782.63
1782.89
1783.14
1784.12
1784.94
1785.24
1785.39
1785.51
1785.59
1785.62
1785.6
1785.51
1785.36
1785.13
1784.85
1784.6
1782.23
1782.85
1783.46
1784.04
1784.61
1785.17
1785.7
1786.22
1786.71
1787.14
1787.43
1787.87
1789.98
1777.2
1564.15
1485.08
1478.72
1587.06
1770.01
1782.92
1783.56
1783.92
1784.26
1784.49
1784.46
1783.78
1783.94
1784.2
1785.25
1786.17
1786.35
1786.49
1786.59
1786.63
1786.62
1786.54
1786.38
1786.15
1785.85
1785.58
1783.29
1783.94
1784.55
1785.13
1785.7
1786.24
1786.76
1787.27
1787.76
1788.24
1788.7
1789.21
1789.85
1790.42
1790.4
1662.74
1466.15
1466.82
1523.98
1738.45
1783.67
1784.54
1785.03
1785.32
1785.55
1785.87
1785.45
1785.16
1785.85
1787.2
1787.42
1787.59
1787.72
1787.78
1787.78
1787.7
1787.54
1787.28
1786.93
1786.6
1784.44
1785.09
1785.7
1786.27
1786.82
1787.33
1787.82
1788.29
1788.74
1789.17
1789.6
1790.02
1790.41
1790.64
1790.78
1791.86
1726.38
1480.13
1478.01
1482.91
1690.22
1785.93
1786.41
1786.08
1786.01
1786.87
1787.11
1786.49
1787.7
1788.33
1788.6
1788.82
1788.99
1789.08
1789.09
1789.02
1788.84
1788.54
1788.06
1787.02
1785.72
1786.35
1786.94
1787.48
1787.99
1788.47
1788.92
1789.34
1789.74
1790.12
1790.48
1790.83
1791.14
1791.37
1791.52
1791.74
1792.32
1769.25
1509.08
1468.64
1469.94
1683.96
1787.67
1787.84
1783.67
1785.62
1787.99
1788.84
1789.2
1789.55
1789.9
1790.18
1790.39
1790.51
1790.55
1790.47
1790.27
1789.93
1789.23
1787.95
1787.16
1787.75
1788.28
1788.78
1789.24
1789.67
1790.06
1790.44
1790.79
1791.12
1791.43
1791.72
1791.98
1792.22
1792.43
1792.61
1792.75
1792.83
1773.04
1494.59
1452.76
1468.49
1729.01
1791.16
1783.39
1735.24
1778.1
1790.02
1790.43
1790.85
1791.26
1791.62
1791.9
1792.07
1792.13
1792.06
1791.84
1791.44
1790.53
1789.22
1788.77
1789.27
1789.73
1790.15
1790.55
1790.92
1791.26
1791.58
1791.88
1792.16
1792.43
1792.68
1792.92
1793.17
1793.43
1793.73
1794.1
1794.58
1795.39
1719.77
1443.72
1442.6
1563.76
1787.23
1775.25
1720.12
1732.45
1790.76
1791.34
1792.01
1792.62
1793.12
1793.5
1793.74
1793.84
1793.77
1793.53
1793.06
1792.02
1790.59
1790.45
1790.85
1791.23
1791.58
1791.91
1792.21
1792.5
1792.76
1793
1793.22
1793.43
1793.62
1793.78
1793.92
1794.02
1794.07
1794.04
1793.83
1793.4
1792.22
1612.62
1433.22
1436.78
1730.01
1783.58
1738.77
1694.63
1790.97
1792.19
1793.19
1794.03
1794.71
1795.21
1795.53
1795.67
1795.61
1795.33
1794.79
1793.77
1792.11
1792.19
1792.49
1792.78
1793.05
1793.31
1793.55
1793.78
1793.98
1794.18
1794.36
1794.53
1794.69
1794.84
1794.98
1795.13
1795.29
1795.47
1795.69
1795.99
1796.55
1768.38
1471.91
1414.39
1533.24
1754.94
1743.79
1664.59
1781.18
1792.76
1794.31
1795.47
1796.37
1797.02
1797.43
1797.61
1797.55
1797.23
1796.61
1795.67
1794.68
1793.92
1794.13
1794.33
1794.53
1794.73
1794.91
1795.08
1795.24
1795.39
1795.54
1795.67
1795.79
1795.89
1795.99
1796.07
1796.12
1796.15
1796.12
1795.96
1795.65
1794.89
1598.9
1405.2
1439.96
1733.12
1732.65
1658.32
1712.49
1795.02
1796.41
1797.51
1798.41
1799.07
1799.49
1799.67
1799.58
1799.21
1798.51
1797.52
1796.55
1795.58
1795.71
1795.85
1795.99
1796.14
1796.27
1796.41
1796.53
1796.66
1796.77
1796.89
1797
1797.1
1797.21
1797.33
1797.48
1797.65
1797.87
1798.12
1798.39
1798.95
1710.85
1407.16
1380.76
1717.64
1722.51
1650.65
1671.11
1796.16
1798.01
1799.36
1800.37
1801.11
1801.56
1801.74
1801.63
1801.22
1800.45
1799.17
1797.46
1797.13
1797.21
1797.3
1797.41
1797.52
1797.63
1797.74
1797.85
1797.95
1798.05
1798.15
1798.25
1798.34
1798.44
1798.56
1798.72
1798.95
1799.29
1799.76
1800.45
1801.85
1768.82
1427.23
1310.5
1686.56
1715.32
1646.84
1663.96
1778.16
1800.08
1801.48
1802.51
1803.23
1803.68
1803.83
1803.68
1803.23
1802.42
1800.92
1798.78
1798.52
1798.58
1798.66
1798.75
1798.85
1798.96
1799.07
1799.17
1799.28
1799.38
1799.47
1799.55
1799.62
1799.69
1799.77
1799.86
1800.02
1800.25
1800.58
1801.03
1801.91
1754.94
1368.3
1262.82
1478.84
1641.3
1641.11
1700.51
1788.33
1802.63
1803.9
1804.78
1805.42
1805.81
1805.91
1805.72
1805.22
1804.4
1802.97
1800.78
1799.72
1799.8
1799.9
1800.01
1800.13
1800.25
1800.39
1800.52
1800.64
1800.76
1800.85
1800.93
1800.98
1801
1801
1801
1801.03
1801.1
1801.22
1801.4
1801.95
1727.54
1314.54
1239.45
1441.61
1694.23
1696.34
1637.22
1649.78
1802.53
1805.8
1806.83
1807.48
1807.89
1807.98
1807.76
1807.24
1806.43
1805.3
1803.32
1800.73
1800.85
1800.99
1801.15
1801.32
1801.5
1801.68
1801.87
1802.04
1802.2
1802.33
1802.42
1802.46
1802.44
1802.37
1802.26
1802.12
1802.01
1801.92
1801.88
1802.08
1682.22
1265.22
1209.92
1513.71
1713.7
1710.03
1636.11
1716.58
1804.98
1807.54
1808.91
1809.7
1810.1
1810.19
1809.94
1809.42
1808.66
1807.69
1804.97
1801.51
1801.7
1801.91
1802.14
1802.39
1802.66
1802.93
1803.21
1803.47
1803.72
1803.92
1804.06
1804.13
1804.1
1803.96
1803.72
1803.41
1803.09
1802.85
1802.56
1801.36
1607.98
1199.59
1172.64
1520.5
1725.64
1731.85
1794.25
1810.82
1811.41
1812.25
1812.76
1813.02
1813.09
1812.94
1812.55
1811.99
1811.28
1810.43
1806.76
1802.04
1802.32
1802.62
1802.95
1803.31
1803.69
1804.09
1804.5
1804.91
1805.29
1805.63
1805.91
1806.08
1806.12
1806
1805.68
1805.26
1804.91
1804.62
1802.97
1766.43
1336.11
1126.68
1131.78
1456.33
1713.19
1679.96
1642.75
1791.67
1817.85
1817.51
1817.13
1816.84
1816.55
1816.15
1815.63
1815.04
1814.36
1813.57
1809.94
1802.28
1802.65
1803.06
1803.5
1803.99
1804.52
1805.08
1805.67
1806.28
1806.88
1807.46
1807.98
1808.4
1808.7
1808.82
1808.41
1806.62
1796.72
1765.6
1538
1180.85
1112.2
1114.38
1114.77
1166.19
1250.23
1270.84
1444.22
1761.65
1824.31
1822.94
1821.81
1821.06
1820.44
1819.83
1819.21
1818.58
1817.89
1816.76
1813.39
1802.17
1802.64
1803.15
1803.72
1804.35
1805.04
1805.79
1806.59
1807.45
1808.33
1809.22
1810.08
1810.84
1811.44
1811.56
1808.42
1717.69
1294.04
1107.8
1107.62
1109.68
1110.37
1112.59
1115.12
1116.9
1120.17
1180.03
1479.15
1776.05
1828.22
1826.98
1825.9
1825.1
1824.41
1823.77
1823.13
1822.45
1821.72
1819.32
1816.98
1801.66
1802.21
1802.83
1803.51
1804.28
1805.14
1806.09
1807.14
1808.31
1809.59
1811.01
1812.58
1814.3
1816.28
1818.29
1797.68
1359.27
1105.31
1104.69
1104.66
1105.86
1106.87
1108.53
1110.06
1137.76
1356.87
1699.61
1832.05
1831.23
1830.75
1830.18
1829.56
1828.97
1828.4
1827.81
1827.19
1826.5
1825.71
1822.32
1820.6
1800.65
1801.28
1801.98
1802.76
1803.64
1804.63
1805.75
1807
1808.42
1810.03
1811.88
1814
1816.44
1819.37
1823.06
1827.17
1649.82
1179.64
1101.18
1101.65
1102.13
1102.01
1115.33
1320.55
1658.73
1832.22
1835.85
1834.62
1834.38
1834.12
1833.73
1833.3
1832.85
1832.38
1831.86
1831.25
1830.54
1829.69
1826.79
1824.18
1799.08
1799.77
1800.53
1801.37
1802.32
1803.41
1804.64
1806.01
1807.58
1809.39
1811.5
1813.95
1816.81
1820.2
1824.28
1829.48
1836.78
1835
1455.76
1113.1
1092.32
1180.58
1656.59
1850.8
1843.61
1840.18
1838.91
1838.27
1837.82
1837.47
1837.15
1836.84
1836.54
1836.18
1835.72
1835.16
1834.45
1833.54
1832.15
1828.2
1796.91
1797.64
1798.42
1799.28
1800.28
1801.44
1802.69
1804.03
1805.63
1807.49
1809.64
1812.09
1814.81
1817.82
1821.14
1824.84
1828.92
1833.28
1836.66
1716.14
1437.22
1470.48
1819.97
1838.35
1839.57
1839.32
1839.57
1839.69
1839.76
1839.84
1839.87
1839.86
1839.8
1839.61
1839.3
1838.82
1838.14
1837.19
1836.03
1834.81
1794.15
1794.87
1795.41
1796.02
1796.86
1798.64
1800.13
1800.32
1798.3
1798.54
1805.34
1809.39
1812.06
1814.72
1817.75
1821.13
1824.65
1828.19
1830.82
1791.68
1528.18
1466.83
1607.26
1734.75
1742.21
1800.19
1839.76
1840.72
1841.2
1841.68
1842.12
1842.43
1842.64
1842.69
1842.56
1842.23
1841.62
1840.68
1839.45
1838.28
1790.13
1790.99
1792.38
1773.2
1751.27
1783.18
1797.39
1797.65
1764.15
1746.32
1772.02
1806.14
1807.77
1807.29
1793.39
1793.77
1812.2
1821.31
1824.31
1826.11
1804.08
1697.38
1619.41
1622.24
1625.02
1626.28
1775.29
1804.67
1826.75
1840.99
1844.11
1844.71
1845.17
1845.48
1845.59
1845.44
1844.97
1844.09
1842.84
1841.65
1697.03
1788.35
1780.31
1740.18
1741.35
1741.8
1746.32
1782.85
1744.74
1740.85
1742.74
1744.82
1772.9
1790.48
1754.74
1758.07
1761.05
1781.61
1804.47
1808.71
1818.21
1823.54
1829.4
1708.09
1626.4
1628.62
1636.09
1640.93
1702.71
1753.39
1814.57
1835.59
1845.24
1848.02
1848.54
1848.64
1848.33
1847.56
1846.35
1845.22
1660.71
1661.58
1669.22
1774.3
1785.86
1742.49
1739.65
1741.04
1774.19
1746.68
1737.71
1740.06
1743.5
1766.4
1771.81
1752.86
1756.4
1760.12
1764.42
1780.16
1813.91
1818.15
1827.6
1836.37
1839.71
1763.26
1688.3
1664.55
1669.84
1676.88
1700.24
1723.72
1760.21
1820.52
1849.71
1852.01
1851.96
1851.32
1850.21
1849.19
1656.11
1658.03
1756.67
1783.27
1783.17
1761.71
1756.42
1786.41
1788.13
1769.73
1735.16
1785.15
1795.37
1798.22
1800.72
1765.77
1752.39
1797.84
1811.49
1801.38
1796.24
1800.32
1807.21
1833.31
1837.18
1841.27
1844.32
1828.71
1801.54
1782.72
1703.98
1695.51
1695.62
1699.3
1774.88
1847.51
1856.07
1855.63
1854.65
1853.8
1768.3
1774.76
1778.82
1778.93
1779.04
1779.27
1779.83
1780.66
1781.69
1782.87
1784.39
1786.24
1788.49
1791.15
1794.16
1797.44
1801.01
1805.01
1809.3
1812.82
1807.99
1814.7
1824.79
1825.13
1831.29
1839.89
1843.61
1847.1
1850.44
1853.54
1842.17
1745.86
1695.11
1695.53
1695.97
1750.64
1856.11
1860.69
1859.92
1859.29
1776.12
1775.49
1774.92
1774.49
1774.21
1774.12
1774.24
1774.6
1775.19
1776.05
1777.24
1778.82
1780.86
1783.4
1786.44
1789.95
1793.92
1798.31
1803.03
1807.98
1813.12
1818.42
1823.8
1828.72
1834.28
1838.25
1843.6
1847.77
1851.49
1855.13
1858.31
1860.99
1809.32
1706.6
1697.38
1697.01
1771.18
1866.12
1866.13
1865.83
1773.05
1772.04
1771.07
1770.18
1769.44
1768.86
1768.47
1768.29
1768.35
1768.69
1769.42
1770.6
1772.33
1774.73
1777.84
1781.61
1785.98
1790.86
1796.17
1801.85
1807.84
1814.1
1820.5
1826.84
1832.96
1838.62
1844.09
1848.89
1853.23
1857.26
1861.1
1864.29
1867.11
1854.12
1727.94
1699.04
1699.7
1846.45
1873.13
1873.47
1770.89
1769.22
1767.61
1766.15
1764.79
1763.6
1762.6
1761.79
1761.23
1760.95
1761.01
1761.34
1762.13
1764.01
1767.16
1771.34
1776.22
1781.73
1787.76
1794.32
1801.47
1809.16
1817.16
1824.99
1832.35
1839.14
1845.34
1850.98
1856.04
1860.48
1864.74
1868.43
1871.69
1874.56
1870.21
1729.27
1705.87
1777.86
1878.8
1882.6
1769.29
1766.75
1764.31
1762.23
1760.22
1758.36
1756.78
1755.48
1753.99
1751.5
1748.57
1744.51
1727.56
1707.01
1695.87
1696.25
1714.09
1739.28
1762.88
1780.75
1793.73
1803.52
1813.96
1824.15
1833.18
1841.1
1848.08
1854.34
1859.94
1864.97
1869.45
1873.48
1877.02
1880.12
1882.76
1870.38
1712.64
1730.83
1877.69
1893.63
1768.27
1764.7
1761.57
1758.35
1755.49
1752.97
1751.19
1748.65
1740.62
1673.63
1520.88
1318.4
1126.84
1035.6
1001.59
997.116
1038.1
1107.97
1198.41
1301.46
1420.48
1572.65
1754.27
1819.76
1836.51
1845.99
1853.34
1859.79
1865.6
1870.88
1875.69
1880.09
1884.14
1887.89
1891.41
1894.93
1793.86
1743.56
1866.87
1905.8
1767.17
1762.86
1742.87
1710.91
1706.88
1745.2
1743.82
1686.66
1373.61
934.064
711.245
685.515
697.579
707.091
717.028
729.263
744.384
762.357
782.767
809.38
906.117
1072.03
1410.96
1795.93
1847.7
1856.26
1862.22
1867.88
1873.3
1878.44
1883.3
1887.87
1892.2
1896.31
1900.26
1904.18
1905.58
1755.58
1866.31
1921.23
1766.47
1761.28
1751.81
1624.04
1528.55
1533.03
1486.5
938.486
645.382
644.065
654.083
661.622
678.674
726.065
784.689
842.829
899.384
946.773
1023.3
1209.59
1240.08
1157.65
1274.74
1757.01
1862.93
1867.69
1872.06
1876.93
1881.98
1887.01
1891.94
1896.72
1901.39
1905.96
1910.49
1915.1
1920.07
1830.79
1876.86
1936.95
1767.3
1761.85
1755.17
1724.25
1700.5
1348
715.324
608.184
610.78
616.771
651.176
866.801
1190.26
1408.49
1531.26
1619.54
1680.66
1702.93
1734.09
1824.62
1841.31
1761.91
1727.03
1781.8
1867.39
1874.06
1879.29
1884.74
1890.23
1895.63
1900.93
1906.13
1911.27
1916.43
1921.72
1927.31
1933.59
1912.33
1893.41
1950.57
1770.6
1765.98
1760.68
1754.29
1728.62
1044.39
596.466
596.301
598.072
636.395
980.414
1517.05
1781.21
1779.24
1780.57
1786.27
1794.45
1804.32
1815.55
1826.57
1836.14
1845.48
1855.7
1865.22
1871.64
1879.01
1886
1892.29
1898.39
1904.3
1910.06
1915.73
1921.39
1927.15
1933.19
1939.74
1947.3
1928.22
1910.16
1964.42
1775.25
1771.82
1768.1
1763.78
1483.8
634.318
590.171
590.802
590.973
601.446
1233
1784.37
1789.91
1786.78
1788
1792.24
1799.13
1808.13
1818.52
1829.39
1839.94
1850.09
1859.96
1869.3
1877.81
1885.61
1892.92
1899.85
1906.47
1912.82
1918.99
1925.08
1931.21
1937.54
1944.26
1951.68
1960.44
1940.42
1926.69
1977.97
1780.54
1778.67
1777.18
1560.61
882.456
588.08
588.082
588.419
588.371
588.643
930.685
1683.93
1792.06
1793.28
1790.93
1791.98
1797.39
1803.95
1816.8
1830.61
1842.45
1853.72
1864.38
1874.31
1883.48
1891.93
1899.79
1907.14
1914.08
1920.73
1927.18
1933.59
1940.1
1946.92
1954.27
1962.53
1972.43
1964.55
1942.41
1990.95
1785.37
1738.81
1527.03
974.767
638.758
591.331
586.856
586.991
586.942
587.01
777.444
1516.51
1783.14
1791.2
1715.64
1681.37
1712.81
1760.93
1812.46
1830.35
1844.55
1857.24
1868.84
1879.42
1889.07
1897.89
1906.01
1913.53
1920.6
1927.35
1933.93
1940.5
1947.27
1954.46
1962.36
1971.38
1982.36
1985.93
1956.31
2003.95
1693.76
1257.57
882.464
738.108
663.589
607.933
587.244
587.592
638.779
828.097
1342.22
1629.53
1672.48
1449.6
1008.83
958.626
1260.18
1715.69
1805.46
1830.48
1847.56
1861.41
1873.49
1884.27
1893.97
1902.76
1910.79
1918.19
1925.13
1931.77
1938.27
1944.84
1951.72
1959.15
1967.47
1977.14
1989.1
1999.57
1967.12
2015.05
1163.73
766.48
709.773
705.982
652.418
605.808
585.823
587.891
631.508
1130.34
1510.31
1561.26
1135.36
793.235
802.642
814.551
906.437
1519.48
1807.59
1836.11
1853.23
1866.45
1877.8
1887.87
1896.95
1905.21
1912.77
1919.77
1926.36
1932.69
1938.93
1945.42
1952.3
1959.86
1968.5
1978.74
1991.59
2008.63
1973.31
2021.96
700.211
701.913
770.36
868.398
977.391
1035.44
912.042
634.486