/*--------------------------------*- C++ -*----------------------------------*\
  =========                 |
  \\      /  F ield         | OpenFOAM: The Open Source CFD Toolbox
   \\    /   O peration     | Website:  https://openfoam.org
    \\  /    A nd           | Version:  8
     \\/     M anipulation  |
\*---------------------------------------------------------------------------*/
FoamFile
{
    version     2.0;
    format      ascii;
    class       volVectorField;
    location    "2.35";
    object      U;
}
// * * * * * * * * * * * * * * * * * * * * * * * * * * * * * * * * * * * * * //

dimensions      [0 1 -1 0 0 0 0];

internalField   nonuniform List<vector> 
9150
(
(0.0536666 -0.429008 0)
(0.087857 -0.622406 0)
(0.0731422 -0.631522 0)
(0.0485905 -0.64378 0)
(0.0169793 -0.654479 0)
(-0.0171171 -0.65446 0)
(-0.0487032 -0.643731 0)
(-0.0732219 -0.631473 0)
(-0.0879003 -0.622354 0)
(-0.0536812 -0.428916 0)
(0.040601 -0.522777 0)
(0.0572737 -0.625734 0)
(0.0420964 -0.613244 0)
(0.0293582 -0.622482 0)
(0.0104514 -0.628887 0)
(-0.0105435 -0.628878 0)
(-0.0294362 -0.622456 0)
(-0.0421561 -0.613216 0)
(-0.0573153 -0.625717 0)
(-0.0406188 -0.522715 0)
(0.0251177 -0.557977 0)
(0.0324032 -0.613876 0)
(0.0230173 -0.604489 0)
(0.0172318 -0.61 0)
(0.00621998 -0.613205 0)
(-0.00627825 -0.613201 0)
(-0.017282 -0.609989 0)
(-0.0230557 -0.604476 0)
(-0.0324342 -0.613873 0)
(-0.0251336 -0.557944 0)
(0.015265 -0.584715 0)
(0.0174003 -0.607504 0)
(0.0117311 -0.601144 0)
(0.00885269 -0.603283 0)
(0.00322705 -0.604404 0)
(-0.00325918 -0.604403 0)
(-0.00888084 -0.603279 0)
(-0.0117527 -0.601139 0)
(-0.0174192 -0.607505 0)
(-0.0152751 -0.584702 0)
(0.0062265 -0.597154 0)
(0.00553025 -0.60141 0)
(0.00358609 -0.600041 0)
(0.00267162 -0.600347 0)
(0.000987634 -0.600484 0)
(-0.000997815 -0.600484 0)
(-0.00268057 -0.600347 0)
(-0.003593 -0.60004 0)
(-0.00553659 -0.601411 0)
(-0.00623005 -0.597152 0)
(0.469152 -1.16223 1.65202e-24)
(0.282608 -1.08675 0)
(0.162627 -1.06985 0)
(0.0914064 -1.058 0)
(0.0296061 -1.05315 0)
(-0.0311265 -1.05293 0)
(-0.0927595 -1.05735 0)
(-0.163744 -1.06886 0)
(-0.283379 -1.08544 0)
(-0.468825 -1.16039 -1.63086e-24)
(0.334122 -0.84464 4.57781e-25)
(0.287339 -0.937224 0)
(0.188142 -0.937172 0)
(0.107797 -0.936984 0)
(0.0353102 -0.939212 0)
(-0.0361676 -0.939057 0)
(-0.108536 -0.936558 0)
(-0.188699 -0.936577 0)
(-0.287534 -0.936481 0)
(-0.333892 -0.8437 -4.53618e-25)
(0.278735 -0.702451 7.37176e-26)
(0.259078 -0.804951 0)
(0.178119 -0.817708 0)
(0.104365 -0.828486 0)
(0.0345882 -0.836523 0)
(-0.0351047 -0.836432 0)
(-0.104799 -0.828236 0)
(-0.178409 -0.817362 0)
(-0.259162 -0.804566 0)
(-0.278643 -0.702031 -7.25667e-26)
(0.199389 -0.554225 2.92321e-25)
(0.216529 -0.709615 0)
(0.154319 -0.725998 0)
(0.0912135 -0.742111 0)
(0.0303836 -0.753978 0)
(-0.030704 -0.753922 0)
(-0.0914774 -0.74196 0)
(-0.154491 -0.725809 0)
(-0.216575 -0.709418 0)
(-0.199348 -0.553985 -2.92528e-25)
(0.118187 -0.445583 -4.68047e-25)
(0.156066 -0.64444 -6.6875e-25)
(0.116707 -0.66387 -2.27103e-25)
(0.0708427 -0.681274 -1.48582e-25)
(0.0238647 -0.694246 -8.43962e-27)
(-0.0240726 -0.694212 -8.6456e-27)
(-0.0710123 -0.681187 -1.49099e-25)
(-0.116819 -0.663771 -2.27301e-25)
(-0.156106 -0.644339 -6.68802e-25)
(-0.118183 -0.445445 -4.67902e-25)
(0.0251381 -0.925812 0)
(-0.0367544 -1.34754 0)
(0.0207749 -1.27567 0)
(-0.00858082 -1.23103 0)
(-0.00180498 -1.22965 0)
(-0.00763778 -1.22818 0)
(-0.00737531 -1.23196 0)
(-0.0309359 -1.28199 0)
(0.0143932 -1.33655 0)
(-0.0396014 -0.86696 0)
(0.0500682 -0.914847 0)
(-0.0236212 -1.33763 0)
(0.0211967 -1.27374 0)
(-0.00276178 -1.22768 0)
(-0.00298683 -1.22613 0)
(-0.00455366 -1.2249 0)
(-0.00937345 -1.22777 0)
(-0.0290591 -1.2746 0)
(0.0101223 -1.33529 0)
(-0.0587616 -0.879257 0)
(0.077874 -0.950421 0)
(-0.0251612 -1.35044 0)
(0.0147671 -1.27753 0)
(0.00368247 -1.23353 0)
(-0.00289242 -1.22837 0)
(-0.00305212 -1.22774 0)
(-0.0114389 -1.2329 0)
(-0.0191108 -1.276 0)
(0.0157357 -1.34728 0)
(-0.0828036 -0.929532 0)
(0.145311 -1.08263 0)
(0.0019318 -1.36781 0)
(0.0133394 -1.27278 0)
(0.0201923 -1.22728 0)
(0.00393302 -1.2154 0)
(-0.00841944 -1.21506 0)
(-0.0243491 -1.22611 0)
(-0.015979 -1.27111 0)
(-0.00823854 -1.36633 0)
(-0.147594 -1.07158 0)
(0.299631 -1.21955 0)
(0.127389 -1.32292 0)
(0.0677822 -1.21119 0)
(0.0551748 -1.16957 0)
(0.0188575 -1.15685 0)
(-0.0214961 -1.15652 0)
(-0.0573729 -1.16845 0)
(-0.0699291 -1.20974 0)
(-0.130426 -1.32145 0)
(-0.299939 -1.2148 0)
(-0.0431986 -0.00322908 0)
(-0.0408485 -0.00328305 0)
(-0.0384619 -0.00330913 0)
(-0.0360626 -0.00330525 0)
(-0.0336731 -0.0032716 0)
(-0.0313156 -0.00320857 0)
(-0.0290116 -0.00311766 0)
(-0.0267814 -0.00300051 0)
(-0.0246437 -0.00285964 0)
(-0.0226159 -0.00269922 0)
(-0.0421311 -0.00668382 0)
(-0.0403119 -0.00683178 0)
(-0.038453 -0.0069123 0)
(-0.036573 -0.00692539 0)
(-0.0346908 -0.00687225 0)
(-0.0328252 -0.00675474 0)
(-0.0309938 -0.00657586 0)
(-0.0292137 -0.0063393 0)
(-0.0275004 -0.00604972 0)
(-0.0258674 -0.00571284 0)
(-0.0405905 -0.00979375 0)
(-0.0391171 -0.0100369 0)
(-0.0376032 -0.0101788 0)
(-0.0360647 -0.0102196 0)
(-0.0345179 -0.0101609 0)
(-0.0329784 -0.0100057 0)
(-0.0314618 -0.00975843 0)
(-0.0299823 -0.00942472 0)
(-0.0285536 -0.00901178 0)
(-0.0271873 -0.00852824 0)
(-0.0391089 -0.0124071 0)
(-0.0378881 -0.0127467 0)
(-0.0366259 -0.0129553 0)
(-0.0353366 -0.0130326 0)
(-0.0340345 -0.0129807 0)
(-0.032734 -0.012803 0)
(-0.0314489 -0.0125052 0)
(-0.0301924 -0.0120945 0)
(-0.028977 -0.0115802 0)
(-0.027814 -0.0109738 0)
(-0.0377168 -0.0145804 0)
(-0.0366895 -0.015017 0)
(-0.0356193 -0.0152957 0)
(-0.0345193 -0.0154158 0)
(-0.0334033 -0.0153792 0)
(-0.0322846 -0.0151897 0)
(-0.0311766 -0.0148537 0)
(-0.0300922 -0.0143797 0)
(-0.0290436 -0.0137786 0)
(-0.0280424 -0.0130643 0)
(-0.0364321 -0.0164122 0)
(-0.0355533 -0.0169487 0)
(-0.0346293 -0.0173019 0)
(-0.0336728 -0.0174705 0)
(-0.032697 -0.0174559 0)
(-0.0317151 -0.0172621 0)
(-0.0307406 -0.0168955 0)
(-0.0297866 -0.0163654 0)
(-0.028866 -0.0156841 0)
(-0.0279912 -0.0148672 0)
(-0.0352727 -0.0179839 0)
(-0.0345063 -0.0186252 0)
(-0.0336914 -0.0190588 0)
(-0.0328403 -0.0192823 0)
(-0.0319661 -0.0192965 0)
(-0.0310822 -0.0191045 0)
(-0.0302025 -0.0187127 0)
(-0.0293409 -0.0181305 0)
(-0.0285116 -0.0173706 0)
(-0.0277285 -0.01645 0)
(-0.0342591 -0.019359 0)
(-0.0335758 -0.0201128 0)
(-0.0328391 -0.0206351 0)
(-0.0320613 -0.0209222 0)
(-0.0312551 -0.0209733 0)
(-0.0304344 -0.0207907 0)
(-0.0296136 -0.0203794 0)
(-0.0288077 -0.0197483 0)
(-0.0280326 -0.0189097 0)
(-0.0273043 -0.0178809 0)
(-0.0334153 -0.020589 0)
(-0.0327916 -0.0214661 0)
(-0.0321081 -0.0220887 0)
(-0.0313766 -0.0224511 0)
(-0.0306096 -0.022551 0)
(-0.029821 -0.0223885 0)
(-0.0290256 -0.021967 0)
(-0.0282395 -0.0212931 0)
(-0.02748 -0.0203779 0)
(-0.0267658 -0.0192373 0)
(-0.0327675 -0.0217139 0)
(-0.0321861 -0.022728 0)
(-0.0315371 -0.0234656 0)
(-0.0308314 -0.0239195 0)
(-0.0300807 -0.0240849 0)
(-0.0292982 -0.0239594 0)
(-0.0284985 -0.0235433 0)
(-0.027698 -0.0228401 0)
(-0.0269152 -0.0218574 0)
(-0.0261711 -0.0206078 0)
(-0.0323413 -0.0227612 0)
(-0.031792 -0.0239276 0)
(-0.0311667 -0.0247983 0)
(-0.0304745 -0.0253641 0)
(-0.0297254 -0.0256176 0)
(-0.0289311 -0.0255534 0)
(-0.0281049 -0.025168 0)
(-0.0272621 -0.0244602 0)
(-0.0264212 -0.0234321 0)
(-0.0256036 -0.0220905 0)
(-0.0321565 -0.0237437 0)
(-0.0316377 -0.0250777 0)
(-0.0310348 -0.0261008 0)
(-0.0303543 -0.026802 0)
(-0.0296039 -0.0271715 0)
(-0.0287925 -0.0272006 0)
(-0.0279306 -0.0268816 0)
(-0.027031 -0.0262079 0)
(-0.0261096 -0.0251747 0)
(-0.0251861 -0.0237802 0)
(-0.0322209 -0.024657 0)
(-0.0317404 -0.0261715 0)
(-0.0311691 -0.0273651 0)
(-0.0305109 -0.0282254 0)
(-0.0297703 -0.0287408 0)
(-0.0289527 -0.0288998 0)
(-0.028065 -0.0286907 0)
(-0.0271158 -0.0281019 0)
(-0.0261164 -0.0271214 0)
(-0.0250817 -0.0257378 0)
(-0.032523 -0.0254786 0)
(-0.0320974 -0.0271815 0)
(-0.0315771 -0.0285593 0)
(-0.0309633 -0.0295987 0)
(-0.0302572 -0.0302868 0)
(-0.029461 -0.03061 0)
(-0.0285778 -0.0305539 0)
(-0.0276118 -0.030103 0)
(-0.0265691 -0.0292398 0)
(-0.0254581 -0.0279449 0)
(-0.0330287 -0.0261701 0)
(-0.0326812 -0.0280635 0)
(-0.0322379 -0.029633 0)
(-0.0316973 -0.0308646 0)
(-0.0310583 -0.0317443 0)
(-0.0303208 -0.0322575 0)
(-0.029485 -0.0323878 0)
(-0.028552 -0.0321175 0)
(-0.0275242 -0.0314258 0)
(-0.0264048 -0.0302888 0)
(-0.0336847 -0.0266814 0)
(-0.0334415 -0.0287633 0)
(-0.0331023 -0.0305266 0)
(-0.0326639 -0.0319564 0)
(-0.0321238 -0.0330376 0)
(-0.0314803 -0.0337538 0)
(-0.0307323 -0.0340873 0)
(-0.0298797 -0.0340184 0)
(-0.028923 -0.0335242 0)
(-0.0278635 -0.0325782 0)
(-0.0344291 -0.0269598 0)
(-0.0343148 -0.0292293 0)
(-0.0341026 -0.0311888 0)
(-0.033788 -0.0328222 0)
(-0.0333672 -0.0341127 0)
(-0.0328374 -0.0350424 0)
(-0.0321965 -0.0355922 0)
(-0.0314429 -0.0357413 0)
(-0.0305754 -0.0354664 0)
(-0.0295924 -0.0347414 0)
(-0.0352106 -0.0269548 0)
(-0.0352467 -0.0294167 0)
(-0.0351798 -0.0315798 0)
(-0.0350042 -0.0334262 0)
(-0.0347154 -0.0349372 0)
(-0.0343104 -0.0360929 0)
(-0.0337868 -0.0368726 0)
(-0.0331435 -0.0372544 0)
(-0.0323798 -0.0372148 0)
(-0.0314957 -0.0367294 0)
(-0.0359996 -0.0266242 0)
(-0.0362009 -0.0292921 0)
(-0.0362892 -0.0316747 0)
(-0.0362575 -0.0337519 0)
(-0.0361001 -0.0355021 0)
(-0.0358136 -0.0369028 0)
(-0.0353954 -0.0379307 0)
(-0.0348443 -0.0385623 0)
(-0.0341594 -0.0387734 0)
(-0.0333401 -0.0385396 0)
(-0.0367963 -0.0259411 0)
(-0.0371713 -0.0288379 0)
(-0.0374187 -0.0314668 0)
(-0.037529 -0.0338042 0)
(-0.0374954 -0.0358249 0)
(-0.0373141 -0.0375026 0)
(-0.0369832 -0.0388111 0)
(-0.0365022 -0.0397254 0)
(-0.035871 -0.0402214 0)
(-0.0350895 -0.0402768 0)
(-0.0376234 -0.0248952 0)
(-0.0381763 -0.0280486 0)
(-0.0385824 -0.03096 0)
(-0.0388276 -0.0335989 0)
(-0.0389034 -0.0359325 0)
(-0.0388072 -0.0379282 0)
(-0.0385398 -0.0395555 0)
(-0.0381037 -0.040787 0)
(-0.0375025 -0.0415989 0)
(-0.0367392 -0.0419711 0)
(-0.038497 -0.0234769 0)
(-0.039241 -0.0269202 0)
(-0.039808 -0.0301649 0)
(-0.040177 -0.0331631 0)
(-0.0403401 -0.0358664 0)
(-0.0402996 -0.0382309 0)
(-0.0400625 -0.0402189 0)
(-0.0396386 -0.0418 0)
(-0.0390375 -0.0429501 0)
(-0.0382689 -0.0436515 0)
(-0.0394181 -0.0216387 0)
(-0.0403907 -0.0254273 0)
(-0.0411287 -0.0290903 0)
(-0.0416039 -0.032537 0)
(-0.0418185 -0.0356893 0)
(-0.0417887 -0.0384854 0)
(-0.0415352 -0.0408792 0)
(-0.0410791 -0.0428378 0)
(-0.0404397 -0.0443386 0)
(-0.0396338 -0.045368 0)
(-0.0403628 -0.0192494 0)
(-0.0416438 -0.0235068 0)
(-0.0425688 -0.0277553 0)
(-0.0431124 -0.0317946 0)
(-0.0433172 -0.035503 0)
(-0.0432325 -0.0388015 0)
(-0.0429025 -0.041641 0)
(-0.0423641 -0.0439924 0)
(-0.041647 -0.045841 0)
(-0.0407749 -0.0471819 0)
(-0.0412549 -0.0159427 0)
(-0.0429941 -0.0209646 0)
(-0.0441184 -0.0261835 0)
(-0.0446246 -0.03106 0)
(-0.0447149 -0.0354574 0)
(-0.0444933 -0.0393187 0)
(-0.0440289 -0.0426184 0)
(-0.0433708 -0.0453495 0)
(-0.0425561 -0.0475166 0)
(-0.0416104 -0.0491315 0)
(-0.0419035 -0.0111879 0)
(-0.0445688 -0.0175568 0)
(-0.045822 -0.02462 0)
(-0.0459383 -0.0306076 0)
(-0.045734 -0.0357733 0)
(-0.0453053 -0.0401845 0)
(-0.0446899 -0.0438921 0)
(-0.0439256 -0.0469386 0)
(-0.0430432 -0.0493605 0)
(-0.0420626 -0.0511905 0)
(-0.0428743 -0.00311412 0)
(-0.0460087 -0.0143178 0)
(-0.0466507 -0.0240543 0)
(-0.0463211 -0.0308707 0)
(-0.0458622 -0.0365893 0)
(-0.0453076 -0.0413851 0)
(-0.0446445 -0.0453711 0)
(-0.0438833 -0.0486329 0)
(-0.0430387 -0.0512334 0)
(-0.0421202 -0.053221 0)
(-0.0478106 0.0027586 0)
(-0.0466032 -0.0127819 0)
(-0.0461182 -0.0246547 0)
(-0.0456581 -0.0317658 0)
(-0.0451384 -0.0376269 0)
(-0.0445989 -0.042584 0)
(-0.0440246 -0.0467266 0)
(-0.043394 -0.0501341 0)
(-0.0427049 -0.0528722 0)
(-0.0419551 -0.0549933 0)
(-0.0488316 -0.000121038 0)
(-0.0467912 -0.0155817 0)
(-0.0452812 -0.0262894 0)
(-0.0447987 -0.0330304 0)
(-0.0442929 -0.0387346 0)
(-0.0438183 -0.043655 0)
(-0.0433719 -0.0478238 0)
(-0.0429208 -0.0512959 0)
(-0.0424433 -0.054124 0)
(-0.0419229 -0.0563541 0)
(-0.0467134 -0.00687459 0)
(-0.0446242 -0.0191229 0)
(-0.0436417 -0.0275245 0)
(-0.0434091 -0.0339549 0)
(-0.0431943 -0.0395406 0)
(-0.0430014 -0.0443683 0)
(-0.0428417 -0.048494 0)
(-0.0426909 -0.0519749 0)
(-0.0425211 -0.0548564 0)
(-0.0423101 -0.0571776 0)
(-0.0437722 -0.0122706 0)
(-0.0425444 -0.0208732 0)
(-0.0422428 -0.0279988 0)
(-0.0423172 -0.0342136 0)
(-0.0424628 -0.0396348 0)
(-0.0426583 -0.0443544 0)
(-0.0428883 -0.0484392 0)
(-0.0431212 -0.0519367 0)
(-0.0433266 -0.0548848 0)
(-0.0434803 -0.057316 0)
(-0.0419984 -0.0141978 0)
(-0.0416402 -0.0213761 0)
(-0.04184 -0.0279142 0)
(-0.0422439 -0.0337464 0)
(-0.0427689 -0.038931 0)
(-0.0433764 -0.0435267 0)
(-0.0440188 -0.0475734 0)
(-0.0446565 -0.0511021 0)
(-0.045256 -0.0541392 0)
(-0.0457911 -0.0567076 0)
(-0.0414885 -0.0143157 0)
(-0.0419517 -0.0208747 0)
(-0.0426539 -0.0268819 0)
(-0.0435153 -0.0323587 0)
(-0.0444923 -0.0373361 0)
(-0.0455317 -0.0418334 0)
(-0.0465892 -0.0458679 0)
(-0.0476268 -0.0494554 0)
(-0.0486124 -0.0526102 0)
(-0.0495206 -0.055346 0)
(-0.0438164 -0.0135077 0)
(-0.0445708 -0.0193881 0)
(-0.0455863 -0.0249346 0)
(-0.0467865 -0.0301196 0)
(-0.0481057 -0.0349262 0)
(-0.0494904 -0.0393509 0)
(-0.0508941 -0.0433964 0)
(-0.052276 -0.0470627 0)
(-0.0536042 -0.050354 0)
(-0.0548518 -0.0532771 0)
(-0.0480916 -0.0120339 0)
(-0.0491456 -0.0173249 0)
(-0.0504443 -0.0224353 0)
(-0.0519249 -0.0273107 0)
(-0.0535311 -0.0319203 0)
(-0.055211 -0.0362556 0)
(-0.0569143 -0.0403014 0)
(-0.0586013 -0.0440343 0)
(-0.0602413 -0.0474558 0)
(-0.0618036 -0.0505663 0)
(-0.0537177 -0.00985954 0)
(-0.0551457 -0.0146524 0)
(-0.0567777 -0.0193612 0)
(-0.0585702 -0.0239364 0)
(-0.0604762 -0.028352 0)
(-0.0624506 -0.0325893 0)
(-0.0644517 -0.0366154 0)
(-0.0664454 -0.0404017 0)
(-0.0683947 -0.043945 0)
(-0.0702676 -0.0472383 0)
(-0.0603419 -0.00680361 0)
(-0.0622118 -0.0112002 0)
(-0.0642428 -0.0155808 0)
(-0.0664 -0.0199105 0)
(-0.068648 -0.0241609 0)
(-0.0709513 -0.0283051 0)
(-0.0732768 -0.0323071 0)
(-0.0755917 -0.0361472 0)
(-0.0778598 -0.0398105 0)
(-0.0800516 -0.0432846 0)
(-0.0677034 -0.00274438 0)
(-0.0700695 -0.00684699 0)
(-0.0725508 -0.010986 0)
(-0.0751212 -0.0151297 0)
(-0.0777553 -0.0192526 0)
(-0.0804254 -0.0233278 0)
(-0.0831059 -0.0273295 0)
(-0.0857635 -0.0312338 0)
(-0.0883678 -0.0350225 0)
(-0.0908925 -0.0386792 0)
(-0.0755895 0.00237569 0)
(-0.0784728 -0.00151104 0)
(-0.0814383 -0.00547962 0)
(-0.0844604 -0.00949804 0)
(-0.0875165 -0.0135459 0)
(-0.0905859 -0.0175977 0)
(-0.0936417 -0.02163 0)
(-0.0966579 -0.0256207 0)
(-0.0996096 -0.0295493 0)
(-0.102474 -0.0333967 0)
(-0.0838226 0.00858103 0)
(-0.0872347 0.00484544 0)
(-0.0906937 0.000987987 0)
(-0.0941793 -0.00297139 0)
(-0.09767 -0.00699911 0)
(-0.101142 -0.0110786 0)
(-0.104574 -0.0151848 0)
(-0.107946 -0.0192949 0)
(-0.111238 -0.0233866 0)
(-0.114432 -0.0274387 0)
(-0.0921823 0.0158726 0)
(-0.0961136 0.0122361 0)
(-0.100067 0.00842057 0)
(-0.104016 0.004457 0)
(-0.107925 0.000376671 0)
(-0.111778 -0.00379087 0)
(-0.115561 -0.00802165 0)
(-0.119261 -0.0122914 0)
(-0.122861 -0.0165761 0)
(-0.126349 -0.0208528 0)
(-0.100382 0.0242095 0)
(-0.104845 0.0206544 0)
(-0.109305 0.0168043 0)
(-0.113664 0.0127441 0)
(-0.117939 0.00852742 0)
(-0.122126 0.00419936 0)
(-0.126212 -0.000216468 0)
(-0.130186 -0.00469441 0)
(-0.134038 -0.00921033 0)
(-0.137759 -0.0137408 0)
(-0.108197 0.033778 0)
(-0.113314 0.0301395 0)
(-0.118181 0.0259378 0)
(-0.122792 0.0216967 0)
(-0.127345 0.0172824 0)
(-0.131782 0.0127367 0)
(-0.136091 0.00808619 0)
(-0.140262 0.00335421 0)
(-0.144288 -0.0014355 0)
(-0.148161 -0.0062581 0)
(-0.115401 0.044254 0)
(-0.120717 0.040215 0)
(-0.125725 0.0357096 0)
(-0.130684 0.0312005 0)
(-0.135532 0.0265184 0)
(-0.140186 0.0216946 0)
(-0.144659 0.0167537 0)
(-0.148957 0.0117062 0)
(-0.153077 0.00658687 0)
(-0.157017 0.00141933 0)
(-0.120813 0.0553132 0)
(-0.126414 0.0509225 0)
(-0.131828 0.0462459 0)
(-0.137175 0.0413531 0)
(-0.142251 0.0362423 0)
(-0.147022 0.0309824 0)
(-0.151518 0.0256193 0)
(-0.15579 0.0201823 0)
(-0.159882 0.0147024 0)
(-0.163799 0.00914919 0)
(-0.12523 0.0669169 0)
(-0.130991 0.0623797 0)
(-0.136677 0.0573945 0)
(-0.142181 0.0519822 0)
(-0.147299 0.0461633 0)
(-0.151965 0.0401956 0)
(-0.156224 0.0342457 0)
(-0.160233 0.0283955 0)
(-0.164109 0.0225558 0)
(-0.167908 0.0167124 0)
(-0.128275 0.0789653 0)
(-0.134069 0.0739988 0)
(-0.139716 0.0685583 0)
(-0.145233 0.0626869 0)
(-0.150401 0.0558663 0)
(-0.15482 0.0486815 0)
(-0.158516 0.041919 0)
(-0.161978 0.0359161 0)
(-0.165368 0.0300622 0)
(-0.168829 0.0241626 0)
(-0.130667 0.0909357 0)
(-0.135963 0.0853668 0)
(-0.140985 0.0797439 0)
(-0.146069 0.073492 0)
(-0.150899 0.0652242 0)
(-0.154987 0.0565313 0)
(-0.158446 0.0489141 0)
(-0.161468 0.042426 0)
(-0.164244 0.0362918 0)
(-0.166808 0.0300648 0)
(-0.13349 0.101533 0)
(-0.137609 0.0951177 0)
(-0.141469 0.0888004 0)
(-0.144764 0.0817091 0)
(-0.147565 0.0730724 0)
(-0.150344 0.0635892 0)
(-0.153051 0.0549352 0)
(-0.155341 0.0474153 0)
(-0.157276 0.0408384 0)
(-0.159013 0.0341708 0)
(-0.131732 0.108582 0)
(-0.134451 0.101437 0)
(-0.136735 0.0942608 0)
(-0.138485 0.085982 0)
(-0.139801 0.0769804 0)
(-0.140877 0.0675366 0)
(-0.141858 0.0587073 0)
(-0.142918 0.0505341 0)
(-0.143907 0.0434216 0)
(-0.144734 0.0364755 0)
(-0.119734 0.11342 0)
(-0.122385 0.105135 0)
(-0.123838 0.0964837 0)
(-0.124376 0.0871942 0)
(-0.124557 0.0778272 0)
(-0.124698 0.0682861 0)
(-0.124934 0.0595104 0)
(-0.125185 0.0516227 0)
(-0.125472 0.0444527 0)
(-0.125793 0.0374576 0)
(-0.0975661 0.121193 0)
(-0.0997023 0.109163 0)
(-0.100583 0.0977269 0)
(-0.100887 0.0869425 0)
(-0.100777 0.0771253 0)
(-0.100566 0.0679275 0)
(-0.100576 0.0594309 0)
(-0.100872 0.0517803 0)
(-0.101368 0.0448005 0)
(-0.101929 0.0381872 0)
(-0.0560098 0.137593 0)
(-0.0659575 0.114336 0)
(-0.0676185 0.100527 0)
(-0.0683349 0.0878107 0)
(-0.0692713 0.0772317 0)
(-0.0702723 0.0682472 0)
(-0.0713087 0.0602903 0)
(-0.0724036 0.0530787 0)
(-0.0735875 0.0463648 0)
(-0.0748425 0.0399935 0)
(-0.0219253 0.165135 0)
(-0.0273882 0.126111 0)
(-0.0310627 0.106503 0)
(-0.0334122 0.0923988 0)
(-0.0358306 0.0813927 0)
(-0.0387065 0.0721151 0)
(-0.0412859 0.0639753 0)
(-0.0435813 0.0566162 0)
(-0.0456819 0.0498148 0)
(-0.0476653 0.0434266 0)
(-0.0070167 0.142712 0)
(-0.0062948 0.126601 0)
(-0.00737044 0.111907 0)
(-0.00934375 0.0992726 0)
(-0.0119388 0.0883382 0)
(-0.0148106 0.0785521 0)
(-0.0174366 0.0697466 0)
(-0.0197873 0.0617615 0)
(-0.0219132 0.0544823 0)
(-0.0238971 0.0478253 0)
(-0.012141 0.128172 0)
(-0.00601065 0.121976 0)
(-0.00270144 0.112715 0)
(-0.00143575 0.102352 0)
(-0.00141723 0.0921458 0)
(-0.00193729 0.0825274 0)
(-0.00272728 0.0735927 0)
(-0.00364588 0.0653793 0)
(-0.00462102 0.0579046 0)
(-0.00563575 0.0511924 0)
(-0.0169867 0.114205 0)
(-0.00979062 0.110883 0)
(-0.00415798 0.104861 0)
(-0.000118155 0.0973931 0)
(0.00264401 0.0893597 0)
(0.00445506 0.0812049 0)
(0.00559301 0.0732084 0)
(0.00627054 0.0655705 0)
(0.00664991 0.0584554 0)
(0.00684592 0.0520181 0)
(-0.0142282 0.0994661 0)
(-0.00793756 0.0975825 0)
(-0.00240423 0.0939761 0)
(0.00214918 0.0890434 0)
(0.0057092 0.0831861 0)
(0.0084009 0.0767522 0)
(0.0103854 0.0700414 0)
(0.0118258 0.063308 0)
(0.0128775 0.0567785 0)
(0.0136897 0.0506756 0)
(-0.0081578 0.0875114 0)
(-0.00303977 0.0866065 0)
(0.00157398 0.0844332 0)
(0.00551643 0.0811192 0)
(0.00872943 0.0768643 0)
(0.0112301 0.0718791 0)
(0.0130804 0.0663958 0)
(0.0143716 0.0606363 0)
(0.0152093 0.0548091 0)
(0.0157241 0.0491293 0)
(-0.00138943 0.0781825 0)
(0.00267988 0.0779877 0)
(0.00630031 0.0768361 0)
(0.00935865 0.0747419 0)
(0.0118133 0.0717677 0)
(0.0136565 0.0680575 0)
(0.0148915 0.0637678 0)
(0.0155553 0.0590509 0)
(0.0157201 0.0540636 0)
(0.0154928 0.0489829 0)
(0.005177 0.0706755 0)
(0.00842106 0.0712397 0)
(0.0112072 0.0711055 0)
(0.0134397 0.0701631 0)
(0.0151224 0.0682791 0)
(0.016261 0.0657214 0)
(0.0168287 0.0625943 0)
(0.0168186 0.0589634 0)
(0.016256 0.0549263 0)
(0.015212 0.0505502 0)
(0.0109926 0.0645652 0)
(0.0136441 0.0658806 0)
(0.0158734 0.0667586 0)
(0.0176176 0.0669664 0)
(0.0188004 0.0661306 0)
(0.0194382 0.0646491 0)
(0.0195243 0.0626753 0)
(0.0189977 0.0602186 0)
(0.0178237 0.0572692 0)
(0.0160186 0.0537413 0)
(0.0155691 0.0594834 0)
(0.0177709 0.0614341 0)
(0.0196826 0.0631281 0)
(0.0212748 0.0642474 0)
(0.0223708 0.0645406 0)
(0.0228501 0.0642155 0)
(0.0227175 0.0634494 0)
(0.0219159 0.0623112 0)
(0.0203036 0.0607033 0)
(0.0177938 0.0584516 0)
(0.0186004 0.0551475 0)
(0.0205088 0.0575968 0)
(0.022222 0.0598385 0)
(0.023658 0.0616694 0)
(0.0246777 0.0631017 0)
(0.0251633 0.0640543 0)
(0.0250764 0.0646356 0)
(0.0243282 0.065117 0)
(0.0226632 0.06544 0)
(0.0197073 0.0655537 0)
(0.019437 0.0514011 0)
(0.0210067 0.0541866 0)
(0.0224162 0.0567708 0)
(0.0236396 0.0591168 0)
(0.0245345 0.0613592 0)
(0.0250526 0.0630549 0)
(0.0252562 0.064443 0)
(0.025117 0.0659465 0)
(0.0248021 0.0676432 0)
(0.0248233 0.0700011 0)
(0.0175181 0.0486273 0)
(0.0185048 0.0517298 0)
(0.0192798 0.0547214 0)
(0.0197481 0.0576571 0)
(0.0198492 0.0605542 0)
(0.0194603 0.0630364 0)
(0.0184965 0.0654095 0)
(0.0173359 0.0679436 0)
(0.0160715 0.0701895 0)
(0.0156142 0.0685669 0)
(0.0134016 0.0471527 0)
(0.0138661 0.0506204 0)
(0.0141678 0.0541405 0)
(0.0142486 0.0578278 0)
(0.0140096 0.0616643 0)
(0.0133935 0.0655831 0)
(0.0126479 0.0693751 0)
(0.0122522 0.0721756 0)
(0.0186076 0.0661695 0)
(0.0582059 0.00759005 0)
(0.00784209 0.0465652 0)
(0.00807167 0.0501626 0)
(0.00831084 0.0539317 0)
(0.00851813 0.0580258 0)
(0.00878978 0.0622938 0)
(0.00970675 0.0659776 0)
(0.0143642 0.066837 0)
(0.0480022 0.0410214 0)
(0.10746 -0.0349262 0)
(0.196188 -0.153753 0)
(0.000847649 0.0463358 0)
(0.00099421 0.0497168 0)
(0.0012928 0.0534531 0)
(0.00177265 0.0574024 0)
(0.00310316 0.0600494 0)
(0.0122793 0.0520599 0)
(0.0584046 -0.00803622 0)
(0.124782 -0.101398 0)
(0.207981 -0.217806 0)
(0.324873 -0.337834 0)
(-0.00795092 0.0463902 0)
(-0.00783258 0.0494567 0)
(-0.0073789 0.0529456 0)
(-0.00599572 0.0548003 0)
(0.00736346 0.03731 0)
(0.0548007 -0.0392768 0)
(0.122605 -0.149628 0)
(0.205851 -0.285005 0)
(0.309269 -0.420436 0)
(0.369166 -0.449455 0)
(-0.0188684 0.0468394 0)
(-0.0184891 0.0490607 0)
(-0.016679 0.0490584 0)
(0.00334183 0.0211057 0)
(0.0593712 -0.0629674 0)
(0.13174 -0.180724 0)
(0.222 -0.329458 0)
(0.324727 -0.481501 0)
(0.371703 -0.519811 0)
(0.400917 -0.525603 0)
(-0.032278 0.048174 0)
(-0.0310363 0.0456856 0)
(-0.00822908 0.00872242 0)
(0.0597059 -0.0835829 0)
(0.139031 -0.202778 0)
(0.224819 -0.357083 0)
(0.329121 -0.522171 0)
(0.369297 -0.565045 0)
(0.398011 -0.580069 0)
(0.430638 -0.59091 0)
(-0.0470831 0.0514016 0)
(-0.0296891 0.0138515 0)
(0.0329881 -0.130577 0)
(0.110656 -0.270272 0)
(0.19844 -0.423442 0)
(0.292925 -0.561324 0)
(0.34047 -0.611682 0)
(0.374637 -0.633147 0)
(0.41114 -0.64959 0)
(0.453463 -0.668291 0)
(-0.0432463 0.0229874 0)
(0.0389284 -0.153444 0)
(0.104578 -0.302486 0)
(0.167832 -0.432488 0)
(0.238298 -0.561917 0)
(0.292739 -0.642701 0)
(0.334941 -0.686286 0)
(0.37759 -0.714703 0)
(0.424978 -0.739658 0)
(0.47432 -0.762665 0)
(0.0237502 -0.144728 0)
(0.0788189 -0.279297 0)
(0.12901 -0.400806 0)
(0.189758 -0.539125 0)
(0.251472 -0.659447 0)
(0.302113 -0.732962 0)
(0.348976 -0.779814 0)
(0.397539 -0.814264 0)
(0.447284 -0.841504 0)
(0.496473 -0.863105 0)
(0.0286801 -0.232555 0)
(0.0634753 -0.340418 0)
(0.12851 -0.503994 0)
(0.210541 -0.681076 0)
(0.272489 -0.778094 0)
(0.321965 -0.83617 0)
(0.370092 -0.878903 0)
(0.416894 -0.912148 0)
(0.46269 -0.937608 0)
(0.507027 -0.955427 0)
(0.013606 -0.259623 0)
(0.0512552 -0.433267 0)
(0.163589 -0.708914 0)
(0.235698 -0.829268 0)
(0.283192 -0.88775 0)
(0.3285 -0.931408 0)
(0.37222 -0.968887 0)
(0.41419 -0.999833 0)
(0.45485 -1.02258 0)
(0.493333 -1.03534 0)
(0.0153079 -0.312383 0)
(0.0981386 -0.679395 0)
(0.182063 -0.858649 0)
(0.232757 -0.929603 0)
(0.27222 -0.973167 0)
(0.311081 -1.01252 0)
(0.349106 -1.04848 0)
(0.386203 -1.07769 0)
(0.421493 -1.09653 0)
(0.45318 -1.10162 0)
(0.0167057 -0.339681 0)
(0.147937 -0.85332 0)
(0.190784 -0.953959 0)
(0.217518 -0.998435 0)
(0.2475 -1.03997 0)
(0.278792 -1.08113 0)
(0.310664 -1.11758 0)
(0.341682 -1.14422 0)
(0.369739 -1.15636 0)
(0.392499 -1.14997 0)
(0.0581995 -0.856921 0)
(0.126147 -0.954307 0)
(0.156056 -1.00411 0)
(0.181013 -1.04901 0)
(0.208033 -1.09612 0)
(0.236014 -1.14044 0)
(0.263498 -1.17586 0)
(0.288423 -1.19683 0)
(0.308738 -1.19901 0)
(0.322282 -1.17872 0)
(0.0968251 -0.877748 0)
(0.111887 -0.992222 0)
(0.126571 -1.0459 0)
(0.147909 -1.09688 0)
(0.171428 -1.14732 0)
(0.194906 -1.19135 0)
(0.21669 -1.22218 0)
(0.234851 -1.23462 0)
(0.247763 -1.2256 0)
(0.254069 -1.19281 0)
(0.0597438 -0.930833 0)
(0.0830296 -1.02702 0)
(0.0980529 -1.08362 0)
(0.117392 -1.13851 0)
(0.13763 -1.19032 0)
(0.156893 -1.23191 0)
(0.173453 -1.25614 0)
(0.185659 -1.25895 0)
(0.192462 -1.23931 0)
(0.193747 -1.19664 0)
(0.0528456 -0.970571 0)
(0.0663137 -1.05912 0)
(0.079516 -1.11734 0)
(0.0957723 -1.17389 0)
(0.11185 -1.22512 0)
(0.126536 -1.26281 0)
(0.138334 -1.27966 0)
(0.145866 -1.27324 0)
(0.14875 -1.24506 0)
(0.14825 -1.19592 0)
(0.0598631 -0.995605 0)
(0.059495 -1.07872 0)
(0.0683164 -1.14056 0)
(0.080394 -1.20009 0)
(0.0924688 -1.2512 0)
(0.103264 -1.28519 0)
(0.111381 -1.29502 0)
(0.115578 -1.2805 0)
(0.11585 -1.24621 0)
(0.1146 -1.19497 0)
(0.0468437 -1.00017 0)
(0.047843 -1.093 0)
(0.0569416 -1.16175 0)
(0.0686469 -1.22304 0)
(0.0789489 -1.2724 0)
(0.0872915 -1.30208 0)
(0.092994 -1.30499 0)
(0.0951674 -1.28311 0)
(0.0939091 -1.24347 0)
(0.0923898 -1.19072 0)
(0.0456354 -0.99841 0)
(0.0508233 -1.11178 0)
(0.0581381 -1.18302 0)
(0.0669063 -1.24174 0)
(0.073969 -1.28773 0)
(0.0792746 -1.31358 0)
(0.0827055 -1.31089 0)
(0.0836402 -1.28316 0)
(0.0821503 -1.2389 0)
(0.0813991 -1.18329 0)
(0.062416 -1.01037 0)
(0.0656145 -1.12485 0)
(0.0677521 -1.19406 0)
(0.0705728 -1.25037 0)
(0.0732852 -1.29486 0)
(0.0753896 -1.31928 0)
(0.0768265 -1.31355 0)
(0.0772669 -1.28238 0)
(0.0766648 -1.23491 0)
(0.0773329 -1.17548 0)
(0.0610014 -1.02023 0)
(0.0668074 -1.1269 0)
(0.0678326 -1.19586 0)
(0.0685759 -1.25246 0)
(0.0698771 -1.29727 0)
(0.0705914 -1.32186 0)
(0.0713761 -1.31552 0)
(0.0726207 -1.28345 0)
(0.0739757 -1.23448 0)
(0.0763967 -1.17087 0)
(0.0432945 -1.03453 0)
(0.0532238 -1.13058 0)
(0.0571655 -1.19923 0)
(0.059672 -1.25589 0)
(0.0619806 -1.29988 0)
(0.0624263 -1.32399 0)
(0.0633803 -1.31902 0)
(0.0662288 -1.28861 0)
(0.0699646 -1.24077 0)
(0.0747227 -1.17401 0)
(0.0241888 -1.05399 0)
(0.0355429 -1.14127 0)
(0.0427111 -1.20838 0)
(0.0476461 -1.26332 0)
(0.0510338 -1.30366 0)
(0.0507242 -1.32534 0)
(0.0512716 -1.32322 0)
(0.0544538 -1.29599 0)
(0.0583511 -1.25169 0)
(0.0637379 -1.18456 0)
(0.0102866 -1.07756 0)
(0.0205363 -1.15759 0)
(0.0294306 -1.22201 0)
(0.0357315 -1.27336 0)
(0.0392312 -1.30697 0)
(0.0373619 -1.32429 0)
(0.0368172 -1.32621 0)
(0.0387448 -1.30204 0)
(0.0406281 -1.26137 0)
(0.0450664 -1.19551 0)
(0.00273259 -1.09925 0)
(0.0114577 -1.17551 0)
(0.0201513 -1.23665 0)
(0.0260914 -1.2829 0)
(0.028488 -1.30747 0)
(0.0245597 -1.3198 0)
(0.0229019 -1.32678 0)
(0.0234363 -1.30528 0)
(0.0237781 -1.26749 0)
(0.0270947 -1.20515 0)
(0.000477928 -1.11626 0)
(0.00750917 -1.19129 0)
(0.014848 -1.24895 0)
(0.0188283 -1.28901 0)
(0.0194484 -1.30384 0)
(0.0132678 -1.3119 0)
(0.0105938 -1.32403 0)
(0.00965128 -1.30536 0)
(0.00896821 -1.26879 0)
(0.00920248 -1.21674 0)
(-0.00133958 -1.13336 0)
(0.00459318 -1.20474 0)
(0.0109757 -1.2584 0)
(0.0128125 -1.29104 0)
(0.0122333 -1.29694 0)
(0.00420336 -1.30209 0)
(0.00122533 -1.31804 0)
(-0.00166481 -1.30327 0)
(-0.00388476 -1.2612 0)
(-0.010222 -1.22029 0)
(-0.0017977 -1.15074 0)
(0.00172138 -1.21519 0)
(0.0079215 -1.26532 0)
(0.00760458 -1.28925 0)
(0.0066223 -1.28834 0)
(-0.00273146 -1.29205 0)
(-0.0038912 -1.31011 0)
(-0.00759786 -1.3045 0)
(-0.00671534 -1.24982 0)
(-0.0136315 -1.2068 0)
(0.00192601 -1.16781 0)
(0.000242181 -1.22084 0)
(0.00564387 -1.27057 0)
(0.00241931 -1.28445 0)
(0.00177094 -1.27921 0)
(-0.0088934 -1.28197 0)
(-0.00845216 -1.29985 0)
(-0.0163847 -1.30949 0)
(-0.0127382 -1.24102 0)
(-0.0192208 -1.18309 0)
(-0.00337715 -1.17329 0)
(-0.00606672 -1.22489 0)
(0.00303915 -1.27688 0)
(-0.00266158 -1.27799 0)
(-0.00146469 -1.27019 0)
(-0.0131259 -1.27154 0)
(-0.0110246 -1.28696 0)
(-0.0248638 -1.31335 0)
(-0.0154068 -1.23692 0)
(-0.0204156 -1.13659 0)
(-0.00325901 -1.16101 0)
(-0.0058798 -1.23073 0)
(0.00734474 -1.28268 0)
(-0.00489793 -1.26904 0)
(-0.00181018 -1.26064 0)
(-0.0145371 -1.26053 0)
(-0.0117342 -1.27243 0)
(-0.0321618 -1.31253 0)
(-0.0135844 -1.24671 0)
(-0.0205445 -1.07212 0)
(-0.00443131 -1.11711 0)
(-0.00936378 -1.24162 0)
(0.0145088 -1.28421 0)
(-0.00601614 -1.25673 0)
(-0.000849485 -1.2501 0)
(-0.0134066 -1.24909 0)
(-0.010402 -1.25741 0)
(-0.0359636 -1.30504 0)
(-0.00651696 -1.27157 0)
(-0.0236217 -0.9924 0)
(0.00821316 -1.04687 0)
(-0.0183572 -1.27455 0)
(0.0205124 -1.28118 0)
(-0.00772348 -1.24265 0)
(-0.000537 -1.23914 0)
(-0.0106808 -1.23778 0)
(-0.00795088 -1.24336 0)
(-0.0345321 -1.29351 0)
(0.0049765 -1.30602 0)
(-0.0314787 -0.913742 0)
(-0.0206009 -0.00250858 0)
(-0.0186433 -0.00228125 0)
(-0.0168745 -0.00203761 0)
(-0.0153016 -0.00178686 0)
(-0.0139261 -0.00153631 0)
(-0.0127446 -0.00129248 0)
(-0.011748 -0.00106206 0)
(-0.0109224 -0.000850824 0)
(-0.0102492 -0.000664565 0)
(-0.0097059 -0.000507564 0)
(-0.00926664 -0.000384201 0)
(-0.00890297 -0.000297187 0)
(-0.00858473 -0.00024821 0)
(-0.00828103 -0.00023837 0)
(-0.00796073 -0.000267721 0)
(-0.00759265 -0.000335467 0)
(-0.00714724 -0.00044035 0)
(-0.00659692 -0.000580114 0)
(-0.00591613 -0.000752013 0)
(-0.00508226 -0.000952338 0)
(-0.00407631 -0.00117661 0)
(-0.0028839 -0.00141915 0)
(-0.00149701 -0.00167276 0)
(8.97629e-05 -0.00192769 0)
(0.00186957 -0.002174 0)
(0.00382252 -0.0023963 0)
(0.00592057 -0.0025762 0)
(0.00811756 -0.00269013 0)
(0.0103467 -0.00270919 0)
(0.0125171 -0.00259794 0)
(0.014509 -0.00231222 0)
(0.0161713 -0.00180039 0)
(0.0173256 -0.000998355 0)
(0.0177997 0.000138402 0)
(0.0172551 0.00154871 0)
(0.0155697 0.0031918 0)