/*--------------------------------*- C++ -*----------------------------------*\
  =========                 |
  \\      /  F ield         | OpenFOAM: The Open Source CFD Toolbox
   \\    /   O peration     | Website:  https://openfoam.org
    \\  /    A nd           | Version:  8
     \\/     M anipulation  |
\*---------------------------------------------------------------------------*/
FoamFile
{
    version     2.0;
    format      ascii;
    class       surfaceScalarField;
    location    "8.35";
    object      alphaPhi0.water;
}
// * * * * * * * * * * * * * * * * * * * * * * * * * * * * * * * * * * * * * //

dimensions      [0 3 -1 0 0 0 0];

internalField   nonuniform List<scalar> 
18095
(
2.00406e-08
-1.72157e-07
1.52117e-07
2.31514e-08
-1.97299e-07
1.94188e-07
2.00786e-08
-2.06219e-07
2.09292e-07
1.18901e-08
-2.1135e-07
2.19539e-07
3.86362e-10
-2.13405e-07
2.24908e-07
-1.1427e-08
-2.13214e-07
2.25028e-07
-2.03377e-08
-2.10613e-07
2.19523e-07
-2.32459e-08
-2.06233e-07
2.09141e-07
-2.00626e-08
-1.9737e-07
1.94187e-07
-1.72139e-07
1.52077e-07
1.5505e-08
-1.87662e-07
1.62557e-08
-1.9805e-07
1.18842e-08
-2.01848e-07
5.89489e-09
-2.05361e-07
-7.06983e-10
-2.06803e-07
-6.64813e-09
-2.07273e-07
-1.20334e-08
-2.05227e-07
-1.62529e-08
-2.02013e-07
-1.5529e-08
-1.98094e-07
-1.87668e-07
6.7768e-09
-1.94439e-07
8.42143e-09
-1.99694e-07
7.43633e-09
-2.00863e-07
4.54547e-09
-2.0247e-07
5.30012e-10
-2.02787e-07
-4.0213e-09
-2.02722e-07
-7.30612e-09
-2.01943e-07
-8.4106e-09
-2.00909e-07
-6.77919e-09
-1.99725e-07
-1.94448e-07
4.49824e-09
-1.98937e-07
4.74504e-09
-1.99941e-07
3.69889e-09
-1.99817e-07
1.58257e-09
-2.00354e-07
-4.378e-10
-2.00767e-07
-2.18804e-09
-2.00972e-07
-3.69014e-09
-2.00441e-07
-4.73303e-09
-1.99866e-07
-4.48958e-09
-1.99969e-07
-1.98937e-07
1.06272e-09
1.12146e-09
1.30473e-09
9.51013e-10
1.83989e-10
-7.87631e-10
-1.22812e-09
-1.09408e-09
-1.06289e-09
-2.93355e-08
-1.95746e-07
2.25081e-07
-3.19156e-08
-1.99219e-07
2.01799e-07
-2.65058e-08
-2.00813e-07
1.95403e-07
-1.61427e-08
-2.01227e-07
1.90863e-07
-1.52671e-09
-2.0208e-07
1.87464e-07
1.35007e-08
-2.02316e-07
1.87288e-07
2.51632e-08
-2.02344e-07
1.90682e-07
3.13012e-08
-2.01424e-07
1.95286e-07
2.90168e-08
-1.99291e-07
2.01575e-07
-1.95539e-07
2.24556e-07
-9.24136e-09
-1.86504e-07
-1.46071e-08
-1.93853e-07
-1.09368e-08
-2.04484e-07
-3.48488e-09
-2.08678e-07
2.13717e-09
-2.07702e-07
7.25223e-09
-2.07431e-07
1.2747e-08
-2.07839e-07
1.50902e-08
-2.03767e-07
9.27534e-09
-1.93476e-07
-1.86264e-07
-9.62876e-09
-1.76876e-07
-8.29116e-09
-1.95191e-07
-8.09491e-09
-2.0468e-07
-6.10628e-09
-2.10667e-07
-1.42089e-10
-2.13667e-07
5.44829e-09
-2.13021e-07
6.89158e-09
-2.09282e-07
7.70224e-09
-2.04578e-07
9.42797e-09
-1.95202e-07
-1.76836e-07
-6.37844e-09
-1.70497e-07
-8.08096e-09
-1.93489e-07
-7.74701e-09
-2.05014e-07
-4.47064e-09
-2.13943e-07
-2.10906e-09
-2.16028e-07
1.36554e-09
-2.16496e-07
7.04463e-09
-2.14962e-07
7.71024e-09
-2.05244e-07
6.20495e-09
-1.93697e-07
-1.70631e-07
-1.83806e-08
-1.76808e-08
-1.34025e-08
-7.80717e-09
1.07311e-09
9.605e-09
1.41668e-08
1.80641e-08
1.85542e-08
2.92919e-08
-1.60454e-07
1.31162e-07
3.32519e-08
-1.99676e-07
1.95716e-07
2.37943e-08
-2.10533e-07
2.19991e-07
7.77656e-09
-2.15179e-07
2.31197e-07
-1.0615e-08
-2.16909e-07
2.353e-07
-2.75179e-08
-2.16655e-07
2.33557e-07
-3.92179e-08
-2.15349e-07
2.27049e-07
-4.41517e-08
-2.10029e-07
2.14963e-07
-3.72866e-08
-1.9798e-07
1.91115e-07
-1.57237e-07
1.1995e-07
1.53079e-08
-1.75761e-07
1.81628e-08
-2.02531e-07
1.59372e-08
-2.08307e-07
9.80992e-09
-2.09052e-07
6.27459e-10
-2.07726e-07
-8.48618e-09
-2.07541e-07
-1.60111e-08
-2.07824e-07
-1.93772e-08
-2.06663e-07
-1.713e-08
-2.00227e-07
-1.74367e-07
7.13691e-09
-1.82898e-07
7.27949e-09
-2.02674e-07
5.933e-09
-2.06961e-07
1.73229e-09
-2.04851e-07
-1.01892e-09
-2.04975e-07
-4.04817e-09
-2.04512e-07
-8.28361e-09
-2.03589e-07
-9.02188e-09
-2.05925e-07
-7.62654e-09
-2.01622e-07
-1.81993e-07
7.63409e-09
-1.90532e-07
4.52174e-09
-1.99561e-07
5.30759e-09
-2.07747e-07
-3.1481e-10
-1.99229e-07
-2.29184e-09
-2.02998e-07
-3.7315e-09
-2.03072e-07
-6.96603e-09
-2.00354e-07
-5.49191e-09
-2.07399e-07
-8.02505e-09
-1.99089e-07
-1.90018e-07
3.45489e-08
3.6787e-08
2.44436e-08
1.60781e-08
5.44577e-10
-1.52392e-08
-2.49114e-08
-3.70241e-08
-3.45377e-08
-3.13132e-09
-2.39882e-09
5.53221e-09
1.95063e-09
-5.06973e-09
2.17267e-09
-2.22384e-10
-1.00963e-10
2.27331e-09
-6.61277e-09
6.50266e-09
-9.36611e-09
2.74854e-09
-1.2706e-08
3.33511e-09
-1.23392e-08
-3.6751e-10
-1.00176e-08
-2.33281e-09
7.40822e-10
-1.07367e-08
1.36397e-09
7.11212e-09
-1.08725e-08
-7.32884e-09
3.65036e-09
-1.14546e-08
3.90305e-09
-1.46448e-08
5.46322e-09
-1.67451e-08
8.60261e-09
-1.7632e-08
3.57298e-09
-1.76905e-08
3.26179e-09
-2.00872e-08
2.02843e-09
-2.35186e-08
1.0986e-09
8.30103e-09
-3.10713e-08
2.87648e-08
1.88223e-08
-4.03895e-08
1.78641e-08
1.44675e-08
1.1581e-08
1.01687e-08
3.34963e-09
1.38177e-08
-3.1813e-09
1.52062e-08
-5.13819e-09
5.52813e-09
-6.07858e-09
4.20042e-09
-1.38243e-08
9.68228e-09
-2.59566e-08
1.32308e-08
2.39104e-08
-4.15661e-08
3.30298e-08
2.69308e-08
-4.10533e-08
2.46688e-08
2.28343e-08
1.55397e-08
1.92827e-08
9.33834e-09
2.00838e-08
3.3432e-09
2.12209e-08
-5.96484e-09
1.48943e-08
-1.44771e-08
1.27108e-08
-2.13678e-08
1.65305e-08
-3.28444e-08
2.47074e-08
3.70349e-08
-4.5969e-08
2.87156e-08
3.21597e-08
-3.3944e-08
2.04209e-08
3.11298e-08
1.26911e-08
2.70665e-08
7.93268e-09
2.48989e-08
3.76365e-09
2.53906e-08
-2.73073e-09
2.13737e-08
-1.29798e-08
2.30059e-08
-2.06227e-08
2.41733e-08
-2.83047e-08
3.23893e-08
4.34041e-08
-3.46739e-08
3.2522e-08
3.73892e-08
-3.77506e-08
2.68349e-08
3.68175e-08
1.98883e-08
3.40399e-08
1.58743e-08
2.89191e-08
1.53324e-08
2.59331e-08
8.98268e-09
2.76917e-08
1.77685e-09
3.01875e-08
-8.55214e-09
3.45022e-08
-1.56396e-08
3.94767e-08
4.54977e-08
-1.77333e-08
3.57839e-08
4.11578e-08
-3.95519e-08
2.88187e-08
4.35909e-08
2.03634e-08
4.24948e-08
1.34015e-08
3.5881e-08
8.91438e-09
3.04207e-08
4.27697e-09
3.22975e-08
-4.52839e-10
3.48743e-08
-4.6924e-09
3.87417e-08
-9.19167e-09
4.39759e-08
4.64408e-08
-1.01261e-08
3.43728e-08
4.54692e-08
-3.86838e-08
2.73654e-08
5.05048e-08
2.15405e-08
4.82731e-08
1.59991e-08
4.14226e-08
1.0403e-08
3.60168e-08
6.21798e-09
3.65019e-08
3.94807e-09
3.71296e-08
9.38833e-10
4.16801e-08
-6.67773e-09
5.15924e-08
5.43449e-08
-1.45818e-08
2.57473e-08
5.16729e-08
-3.21766e-08
2.20926e-08
5.41428e-08
2.24933e-08
4.79631e-08
2.35449e-08
4.0371e-08
2.18641e-08
3.7697e-08
2.02034e-08
3.82073e-08
1.61968e-08
4.11216e-08
9.08274e-09
4.88348e-08
-1.10763e-09
6.17825e-08
6.88015e-08
-1.55646e-08
1.83083e-08
5.397e-08
-2.06221e-08
2.27508e-08
4.96832e-08
2.92841e-08
4.16155e-08
3.33837e-08
3.62712e-08
3.44415e-08
3.66383e-08
3.25496e-08
4.00993e-08
2.65303e-08
4.72471e-08
1.80636e-08
5.74248e-08
1.02611e-08
6.95847e-08
8.16828e-08
-2.61555e-09
1.37966e-08
4.67548e-08
-6.60265e-09
2.57174e-08
3.80572e-08
3.47993e-08
3.25357e-08
3.83247e-08
3.2745e-08
3.7755e-08
3.72081e-08
3.40603e-08
4.37933e-08
2.94182e-08
5.18886e-08
2.45604e-08
6.22825e-08
2.09709e-08
7.31737e-08
8.59763e-08
1.6677e-08
1.61913e-08
3.69197e-08
-6.12981e-09
2.64565e-08
2.77897e-08
3.20228e-08
2.69678e-08
3.46743e-08
3.0093e-08
3.39749e-08
3.79067e-08
3.0657e-08
4.71109e-08
2.66423e-08
5.59032e-08
2.33717e-08
6.55528e-08
2.13293e-08
7.52158e-08
8.53141e-08
2.19911e-08
2.60272e-08
2.99152e-08
-1.9024e-08
3.09651e-08
2.28502e-08
3.43177e-08
2.3615e-08
3.56812e-08
2.87286e-08
3.35778e-08
4.00096e-08
2.95226e-08
5.11658e-08
2.54948e-08
5.99306e-08
2.3161e-08
6.78862e-08
2.17571e-08
7.66194e-08
8.42866e-08
2.27842e-08
3.79407e-08
2.35267e-08
-3.15522e-08
3.92067e-08
2.15839e-08
3.80157e-08
2.48058e-08
3.58779e-08
3.08655e-08
3.24143e-08
4.34707e-08
2.69492e-08
5.66308e-08
2.20807e-08
6.47989e-08
2.32489e-08
6.67176e-08
2.66206e-08
7.32474e-08
7.93076e-08
3.15993e-08
3.30849e-08
2.24037e-08
-3.19616e-08
2.77982e-08
2.68706e-08
2.18874e-08
3.01056e-08
1.88731e-08
3.32479e-08
2.09958e-08
4.06833e-08
2.58147e-08
5.10456e-08
3.16797e-08
5.76151e-08
3.9468e-08
5.82593e-08
5.23287e-08
6.00591e-08
6.00261e-08
7.1184e-08
1.96067e-08
2.07623e-08
-1.86165e-08
2.43907e-08
2.20349e-08
2.7787e-08
2.64773e-08
3.31276e-08
2.76743e-08
3.89089e-08
3.46691e-08
4.20417e-08
4.76798e-08
5.0746e-08
4.929e-08
6.15292e-08
4.70475e-08
7.12119e-08
5.00404e-08
5.29382e-08
7.60643e-08
3.18163e-08
9.73388e-09
-2.05869e-08
3.35212e-08
2.04668e-08
3.29095e-08
2.72156e-08
3.04471e-08
3.07988e-08
2.91597e-08
3.65784e-08
3.37713e-08
4.37002e-08
3.4481e-08
4.92044e-08
2.92183e-08
5.13278e-08
2.71473e-08
5.12993e-08
4.73035e-08
3.24225e-08
-2.5903e-08
1.63398e-08
1.9325e-08
-3.40547e-08
2.859e-08
-4.24961e-08
3.56507e-08
-5.01974e-08
3.85496e-08
-5.7606e-08
4.41787e-08
-6.06894e-08
4.74614e-08
-6.259e-08
5.09207e-08
-6.38164e-08
5.23612e-08
-6.18938e-08
4.91752e-08
4.47741e-08
-5.87964e-08
-1.38369e-07
3.19054e-08
1.22804e-07
-1.41142e-07
3.13637e-08
-1.384e-07
3.2909e-08
-1.36113e-07
3.6488e-08
-1.30937e-07
4.22372e-08
-1.28175e-07
4.45151e-08
-1.2212e-07
4.4681e-08
-1.16733e-07
4.64725e-08
-1.11558e-07
4.27761e-08
3.76912e-08
-1.04462e-07
-1.59173e-07
4.06571e-08
1.50422e-07
-1.59041e-07
3.12314e-08
-1.57389e-07
3.12576e-08
-1.56527e-07
3.56347e-08
-1.49876e-07
4.13371e-08
-1.4829e-07
4.28044e-08
-1.44266e-07
4.04729e-08
-1.41075e-07
3.96985e-08
-1.33325e-07
3.50257e-08
3.1572e-08
-1.27206e-07
-1.30913e-07
6.64463e-08
9.56141e-08
-1.46538e-07
4.68569e-08
-1.51627e-07
3.63467e-08
-1.53725e-07
3.77368e-08
-1.51466e-07
4.09227e-08
-1.46557e-07
4.08358e-08
-1.42716e-07
3.63765e-08
-1.37132e-07
3.1228e-08
-1.28627e-07
2.65206e-08
2.5481e-08
-1.22536e-07
-6.20093e-08
9.11746e-08
3.81228e-08
-1.08278e-07
8.28477e-08
-1.28576e-07
5.66481e-08
-1.32483e-07
4.16485e-08
-1.32623e-07
4.10706e-08
-1.28941e-07
4.05562e-08
-1.28414e-07
3.55026e-08
-1.26462e-07
2.72666e-08
-1.20525e-07
2.05833e-08
1.99449e-08
-1.14989e-07
-1.31843e-08
9.37984e-08
1.10563e-08
-4.02363e-08
1.09946e-07
-8.61232e-08
9.28088e-08
-1.08249e-07
6.37811e-08
-1.16515e-07
4.93376e-08
-1.22846e-07
4.73809e-08
-1.30253e-07
4.3299e-08
-1.33847e-07
3.06184e-08
-1.33118e-07
1.98551e-08
1.71647e-08
-1.30339e-07
-3.7989e-09
9.5122e-08
8.59148e-09
-6.42192e-09
1.12296e-07
-3.72665e-08
1.22671e-07
-8.65258e-08
1.08062e-07
-1.09577e-07
7.23882e-08
-1.24234e-07
6.20385e-08
-1.35714e-07
5.47789e-08
-1.47703e-07
4.26079e-08
-1.58803e-07
3.09545e-08
2.59411e-08
-1.67582e-07
-1.43349e-08
9.59909e-08
1.35308e-08
-2.89039e-09
1.08633e-07
-8.03354e-09
1.27125e-07
-5.79292e-08
1.53282e-07
-1.0415e-07
1.18609e-07
-1.24686e-07
8.25747e-08
-1.33306e-07
6.33988e-08
-1.42261e-07
5.15632e-08
-1.55511e-07
4.42048e-08
4.20605e-08
-1.71627e-07
-2.0787e-08
7.94219e-08
3.73589e-08
-1.80021e-09
9.05238e-08
1.28489e-08
1.19803e-07
-2.44081e-08
1.73868e-07
-7.89377e-08
1.73138e-07
-1.03415e-07
1.07052e-07
-1.10325e-07
7.03097e-08
-1.16757e-07
5.79954e-08
-1.28812e-07
5.62599e-08
5.61685e-08
-1.4292e-07
-1.83449e-08
5.71276e-08
4.06417e-08
-3.35034e-09
7.55321e-08
2.19948e-09
1.15212e-07
-4.61158e-09
1.81367e-07
-3.64327e-08
1.84034e-07
-5.97291e-08
1.22362e-07
-7.93401e-08
8.9921e-08
-1.00325e-07
7.89803e-08
-1.12936e-07
6.88725e-08
5.80273e-08
-1.14943e-07
-3.17429e-08
4.54552e-08
4.34175e-08
-2.56796e-08
6.94694e-08
-3.85589e-08
1.22454e-07
-3.35634e-08
1.76367e-07
-3.10552e-08
1.81464e-07
-4.40134e-08
1.2835e-07
-6.33708e-08
9.91887e-08
-8.43568e-08
8.7201e-08
-9.35091e-08
7.17771e-08
4.47968e-08
-8.05947e-08
-6.75614e-08
4.98854e-08
6.31321e-08
-6.93026e-08
7.2015e-08
-7.05006e-08
1.23646e-07
-5.32521e-08
1.59114e-07
-3.76281e-08
1.65832e-07
-3.66113e-08
1.27309e-07
-4.05853e-08
1.03136e-07
-4.43653e-08
9.07722e-08
-4.44574e-08
6.69201e-08
3.93867e-08
-4.05798e-08
-9.81348e-08
6.18416e-08
8.61864e-08
-9.5773e-08
8.12799e-08
-8.92897e-08
1.17159e-07
-6.753e-08
1.37348e-07
-3.49003e-08
1.33198e-07
-1.94106e-08
1.11811e-07
-1.8152e-08
1.01853e-07
-1.53142e-08
9.16852e-08
-1.36114e-08
6.75482e-08
3.70621e-08
-1.15059e-08
-9.97637e-08
7.78185e-08
8.38806e-08
-1.11225e-07
9.53582e-08
-8.78925e-08
1.16931e-07
-6.41118e-08
1.13564e-07
-3.60019e-08
1.05083e-07
-2.24321e-08
9.82387e-08
-1.30716e-08
1.00535e-07
-6.39842e-09
9.0429e-08
-3.43962e-09
6.52254e-08
3.72233e-08
-3.59637e-09
-6.90218e-08
9.33676e-08
4.99664e-08
-7.71692e-08
1.00844e-07
-6.84739e-08
1.11379e-07
-4.76938e-08
1.09332e-07
-3.29982e-08
1.04102e-07
-2.38997e-08
9.92175e-08
-1.25933e-08
9.20395e-08
-4.25596e-09
8.20946e-08
-4.10664e-09
6.50763e-08
4.20732e-08
-8.95629e-09
1.72061e-09
8.82206e-08
4.53749e-09
3.5794e-09
9.85835e-08
1.03635e-08
1.04107e-07
6.66265e-09
1.12773e-07
-1.00336e-09
1.12438e-07
1.2573e-09
9.70854e-08
2.01217e-09
9.12877e-08
1.1499e-09
8.29573e-08
-2.90918e-09
6.91356e-08
5.16919e-08
-1.25277e-08
1.951e-08
7.76052e-08
-8.5825e-09
3.77495e-08
8.02804e-08
5.18457e-08
9.03864e-08
6.92051e-08
9.38729e-08
6.38089e-08
1.16219e-07
3.63388e-08
1.22754e-07
1.8648e-08
1.08979e-07
9.56123e-09
9.20442e-08
5.14276e-10
7.81827e-08
6.23374e-08
-1.01311e-08
3.79903e-08
8.16101e-08
-4.26716e-08
4.35612e-08
7.49833e-08
6.31077e-08
7.12294e-08
8.11228e-08
7.63203e-08
1.03401e-07
9.26346e-08
1.01231e-07
1.2433e-07
7.04956e-08
1.38427e-07
3.83699e-08
1.24248e-07
1.3886e-08
1.02667e-07
7.58546e-08
3.69067e-10
1.13367e-07
9.40801e-08
-1.26481e-07
9.99289e-08
8.80929e-08
9.36825e-08
7.79386e-08
9.95345e-08
7.10025e-08
1.16128e-07
7.65658e-08
1.40184e-07
9.967e-08
1.47993e-07
1.29064e-07
1.19765e-07
1.5366e-07
7.32842e-08
1.49148e-07
1.19871e-07
2.92682e-08
1.75705e-07
9.75578e-08
-1.79736e-07
1.67466e-07
9.57689e-08
1.57844e-07
8.70159e-08
1.58959e-07
7.59993e-08
1.59144e-07
7.67708e-08
1.74788e-07
8.41317e-08
1.96945e-07
1.08257e-07
1.86236e-07
1.56941e-07
1.41088e-07
1.76223e-07
1.73631e-07
8.69029e-08
1.98002e-07
9.40023e-08
-1.95008e-07
1.99457e-07
9.37529e-08
2.00539e-07
8.58576e-08
2.10947e-07
7.97767e-08
2.07095e-07
8.06297e-08
2.03931e-07
8.72956e-08
2.10771e-07
1.01412e-07
2.17331e-07
1.36339e-07
1.99453e-07
1.8998e-07
2.01698e-07
1.6716e-07
2.01637e-07
8.80332e-08
-1.9738e-07
2.16848e-07
8.47431e-08
2.2326e-07
8.65681e-08
2.15053e-07
8.7983e-08
2.02147e-07
9.35347e-08
1.91039e-07
9.84004e-08
1.88198e-07
1.0425e-07
2.01556e-07
1.22982e-07
2.14854e-07
1.66649e-07
2.00764e-07
2.11941e-07
2.13466e-07
7.81394e-08
-2.03565e-07
1.91939e-07
1.00571e-07
1.69387e-07
1.09216e-07
1.40695e-07
1.1651e-07
1.23365e-07
1.10374e-07
1.22929e-07
9.86057e-08
1.34455e-07
9.27255e-08
1.60634e-07
9.68059e-08
2.03638e-07
1.23632e-07
1.68825e-07
2.31196e-07
1.68582e-07
8.30672e-08
-1.88091e-07
1.39879e-07
1.21662e-07
1.09426e-07
1.3923e-07
8.37094e-08
1.40779e-07
8.05504e-08
1.13196e-07
1.03668e-07
7.54898e-08
1.34192e-07
6.22032e-08
1.65915e-07
6.50858e-08
2.04125e-07
8.54239e-08
1.30734e-07
2.4321e-07
9.51789e-08
9.44944e-08
-1.11538e-07
8.88869e-08
1.27935e-07
9.20768e-08
1.36029e-07
9.55966e-08
1.35412e-07
1.03641e-07
1.03164e-07
1.38173e-07
4.09583e-08
1.71192e-07
2.9186e-08
1.90486e-07
4.57947e-08
2.04961e-07
7.09505e-08
1.14023e-07
2.21673e-07
5.59898e-08
8.98374e-08
-5.13439e-08
7.31476e-08
1.10768e-07
9.45713e-08
1.14596e-07
1.26171e-07
1.03798e-07
1.64259e-07
6.76808e-08
1.88165e-07
2.32381e-08
1.94903e-07
2.24485e-08
1.8536e-07
4.95049e-08
1.62151e-07
8.13267e-08
1.21237e-07
1.45859e-07
4.8416e-08
6.98983e-08
-2.84863e-08
8.34731e-08
7.57017e-08
1.24845e-07
7.32147e-08
1.72e-07
5.66336e-08
2.05973e-07
4.54825e-08
1.95786e-07
4.23886e-08
1.59716e-07
4.85542e-08
1.09853e-07
8.35869e-08
6.26219e-08
1.07897e-07
1.40829e-07
2.29865e-08
2.97991e-08
3.55499e-08
8.27653e-09
7.70628e-08
3.50866e-08
1.23218e-07
3.69214e-08
1.54716e-07
3.50181e-08
1.59206e-07
4.56201e-08
1.49193e-07
5.2421e-08
1.01055e-07
8.01379e-08
5.32292e-08
1.16046e-07
3.28496e-08
1.45271e-07
1.72471e-07
-7.66752e-09
-2.36781e-08
-5.80253e-09
6.5916e-08
1.05891e-08
1.97042e-09
3.8068e-08
1.05462e-08
5.39366e-08
1.93623e-08
6.22335e-08
3.73202e-08
5.17077e-08
6.29594e-08
2.32128e-08
1.04037e-07
-1.27416e-09
1.41475e-07
-2.56267e-08
1.68852e-07
1.87183e-07
-4.10431e-08
-8.86878e-08
-3.45609e-08
1.17451e-07
-6.23279e-08
-2.43852e-08
-4.7e-08
-4.77792e-09
-4.98323e-08
2.21997e-08
-6.7203e-08
5.46971e-08
-1.04058e-07
9.98109e-08
-1.42371e-07
1.38488e-07
-1.48054e-07
1.44783e-07
-1.4602e-07
1.70213e-07
1.73338e-07
-1.32861e-07
-1.25504e-07
-4.85275e-08
1.39475e-07
-1.07451e-07
-4.24346e-08
-9.60553e-08
-1.61695e-08
-1.0192e-07
2.80691e-08
-1.30547e-07
7.90595e-08
-1.4815e-07
1.09965e-07
-1.50574e-07
1.3603e-07
-1.53334e-07
1.43334e-07
-1.41153e-07
1.67432e-07
1.96154e-07
-1.36064e-07
-1.34653e-07
-3.83249e-08
1.24613e-07
-1.38617e-07
-3.84666e-08
-1.33511e-07
-2.12729e-08
-1.02648e-07
4.37647e-09
-8.98317e-08
6.78567e-08
-1.02709e-07
1.223e-07
-1.12861e-07
1.45613e-07
-1.3162e-07
1.57398e-07
-1.62082e-07
1.91912e-07
1.84973e-07
-1.4906e-07
-6.65175e-08
-3.76128e-08
6.31664e-08
-8.26415e-08
-2.47376e-08
-9.42884e-08
-8.97491e-09
-7.86099e-08
-6.60554e-09
-3.05818e-08
4.17533e-08
-1.49251e-08
1.06075e-07
-1.97292e-08
1.49849e-07
-3.47301e-08
1.7183e-07
-6.21013e-08
1.81174e-07
1.90662e-07
-6.75554e-08
-2.15344e-09
-1.79791e-08
-1.48687e-08
-1.00547e-08
-1.76034e-08
-7.73953e-09
-1.20585e-08
-2.18358e-08
6.45309e-09
-6.90659e-09
3.46818e-08
4.05516e-08
8.21278e-08
8.43519e-08
1.0548e-07
1.25099e-07
1.30793e-07
1.42197e-07
1.6389e-07
1.54979e-07
1.54263e-07
1.29265e-07
-3.77592e-09
-1.06942e-07
1.12077e-07
-4.05313e-10
1.00973e-07
-9.4114e-10
9.37312e-08
1.34011e-08
9.0901e-08
3.65816e-08
1.09466e-07
6.46474e-08
1.25743e-07
9.89463e-08
1.46683e-07
1.32356e-07
1.79466e-07
1.29679e-07
1.08888e-07
2.24261e-07
1.60384e-07
-1.91175e-09
-1.62221e-07
1.61536e-07
-1.55562e-09
1.59385e-07
1.20915e-09
1.63084e-07
9.70103e-09
1.75273e-07
2.43926e-08
1.92437e-07
4.74884e-08
2.23187e-07
6.81863e-08
2.61743e-07
9.66634e-08
2.82238e-07
1.15164e-07
1.11849e-07
2.64904e-07
1.46223e-07
-2.2727e-09
-1.45863e-07
1.51975e-07
-7.30744e-09
1.62715e-07
-9.53132e-09
1.78384e-07
-5.96892e-09
2.02248e-07
5.28185e-10
2.36871e-07
1.28652e-08
2.79463e-07
2.56023e-08
3.30735e-07
4.53922e-08
3.77941e-07
6.79641e-08
8.74597e-08
3.82917e-07
1.50085e-07
-9.79248e-09
-1.42566e-07
1.63185e-07
-2.0407e-08
1.77069e-07
-2.3416e-08
1.9275e-07
-2.16509e-08
2.14138e-07
-2.08602e-08
2.46412e-07
-1.94085e-08
2.86303e-07
-1.42884e-08
3.2756e-07
4.13528e-09
3.66261e-07
2.92645e-08
5.44877e-08
3.99237e-07
1.55722e-07
-2.58437e-08
-1.39671e-07
1.76759e-07
-4.14442e-08
1.93452e-07
-4.07006e-08
2.08394e-07
-3.54306e-08
2.29195e-07
-4.01199e-08
2.55375e-07
-4.5588e-08
2.84863e-07
-4.3776e-08
3.12443e-07
-2.3517e-08
3.35498e-07
6.12476e-09
3.02941e-08
3.58927e-07
1.60724e-07
-3.44431e-08
-1.52125e-07
1.76196e-07
-5.69169e-08
1.90659e-07
-5.90373e-08
2.07899e-07
-5.40975e-08
2.2779e-07
-5.48693e-08
2.43194e-07
-5.79164e-08
2.55645e-07
-5.62185e-08
2.66921e-07
-3.4824e-08
2.59561e-07
-1.05004e-08
4.81389e-09
2.80935e-07
1.87951e-07
-3.29377e-08
-1.89458e-07
1.98054e-07
-6.70215e-08
2.1042e-07
-7.89604e-08
2.33176e-07
-7.86832e-08
2.48032e-07
-7.08186e-08
2.57366e-07
-6.14885e-08
2.53534e-07
-5.01173e-08
2.4086e-07
-3.30413e-08
2.4308e-07
-2.57771e-08
-2.18139e-08
2.69198e-07
2.75232e-07
-2.66575e-08
-2.81516e-07
2.73933e-07
-6.57258e-08
2.76978e-07
-8.20462e-08
2.83247e-07
-8.50056e-08
2.84734e-07
-8.19438e-08
2.90282e-07
-6.7763e-08
2.86693e-07
-4.74528e-08
2.89101e-07
-3.06202e-08
2.86506e-07
-2.06851e-08
-1.10681e-08
2.69513e-07
3.79196e-07
-1.33002e-08
-3.63647e-07
3.64297e-07
-5.07892e-08
3.49941e-07
-6.77162e-08
3.37915e-07
-7.31811e-08
3.27407e-07
-7.15588e-08
3.13383e-07
-6.26989e-08
3.10376e-07
-4.51724e-08
3.0481e-07
-2.55199e-08
3.01239e-07
-9.35905e-09
7.34187e-10
2.8959e-07
4.60848e-07
-5.82067e-09
-3.74826e-07
4.74439e-07
-1.94597e-08
4.4388e-07
-3.64348e-08
4.14612e-07
-4.40408e-08
3.86866e-07
-4.37552e-08
3.64611e-07
-4.03597e-08
3.47175e-07
-3.8705e-08
3.5319e-07
-3.18923e-08
3.61017e-07
-1.75094e-08
-1.06225e-09
3.71907e-07
4.67807e-07
-2.52367e-08
-4.4896e-07
4.64756e-07
-1.45692e-08
5.73472e-07
-3.61071e-09
5.36444e-07
-2.09536e-09
4.83742e-07
4.60341e-09
4.44991e-07
1.52019e-09
4.26296e-07
-1.56224e-08
4.2615e-07
-3.04202e-08
4.42598e-07
-3.29001e-08
-2.44479e-08
4.59887e-07
5.50288e-07
-4.48438e-08
-5.30785e-07
4.76658e-07
-2.49811e-08
4.82012e-07
-1.0191e-08
4.77456e-07
1.70223e-09
4.73259e-07
8.4101e-09
4.65217e-07
9.42671e-09
5.53651e-07
-6.57139e-10
6.08799e-07
-1.55348e-08
6.01782e-07
-2.75423e-08
-3.19533e-08
6.06843e-07
4.7479e-07
-5.29451e-08
-5.41624e-07
4.94782e-07
-4.6274e-08
5.18967e-07
-3.50028e-08
5.40387e-07
-1.99703e-08
5.62761e-07
-1.40993e-08
5.82253e-07
-1.01661e-08
5.92888e-07
-1.13896e-08
6.007e-07
-2.34454e-08
7.4706e-07
-3.56299e-08
-3.69584e-08
8.29736e-07
5.1258e-07
-7.06423e-08
-4.96359e-07
5.31667e-07
-6.68203e-08
5.72193e-07
-5.44501e-08
5.50787e-07
-4.29083e-08
5.85732e-07
-4.92962e-08
6.14542e-07
-3.91127e-08
6.47174e-07
-4.41196e-08
7.75443e-07
-5.23228e-08
8.91857e-07
-5.89467e-08
-5.0428e-08
9.11033e-07
4.46928e-07
-1.04259e-07
-4.1563e-07
5.27139e-07
-1.01186e-07
5.78954e-07
-9.97597e-08
6.3814e-07
-9.43838e-08
6.76156e-07
-7.35358e-08
7.39316e-07
-6.25746e-08
7.91499e-07
-6.43026e-08
8.17061e-07
-7.34171e-08
8.32676e-07
-8.22695e-08
-5.92109e-08
8.39444e-07
3.10237e-07
-1.23332e-07
-2.91603e-07
3.22311e-07
-1.12975e-07
3.26194e-07
-9.67123e-08
3.23478e-07
-8.53466e-08
3.25831e-07
-9.1843e-08
3.3768e-07
-8.15046e-08
3.5429e-07
-8.48624e-08
4.62271e-07
-8.06372e-08
5.01997e-07
-9.07099e-08
-8.34266e-08
4.81931e-07
2.83431e-10
-1.10131e-07
8.53446e-09
2.10946e-08
-1.13519e-07
4.45065e-08
-1.38348e-07
9.50651e-08
-1.5413e-07
1.22074e-07
-1.39658e-07
1.62918e-07
-1.42016e-07
2.08638e-07
-1.37664e-07
2.80944e-07
-1.31787e-07
3.31351e-07
-1.13558e-07
-9.4757e-08
3.08376e-07
-1.58776e-07
-1.42249e-07
1.90189e-07
-1.35507e-07
-1.90443e-07
-1.34625e-07
-2.01318e-07
-1.24919e-07
-2.15215e-07
-9.82744e-08
-2.05423e-07
-7.52082e-08
-1.87029e-07
-6.31089e-08
-1.66433e-07
-6.0405e-08
-1.51386e-07
-4.76953e-08
-1.4456e-07
-1.14718e-07
-3.75348e-08
-4.78086e-07
-1.97116e-07
4.10767e-07
-4.58652e-07
-2.09878e-07
-4.40893e-07
-2.19077e-07
-4.3275e-07
-2.2336e-07
-4.16259e-07
-2.21931e-07
-3.96487e-07
-2.06847e-07
-3.79723e-07
-1.83233e-07
-3.6795e-07
-1.63154e-07
-3.71134e-07
-1.41181e-07
-1.18714e-07
-3.56981e-07
-5.88334e-07
-2.16357e-07
6.07575e-07
-5.70974e-07
-2.27238e-07
-5.5555e-07
-2.34502e-07
-5.41698e-07
-2.37213e-07
-5.28327e-07
-2.35308e-07
-5.13901e-07
-2.21318e-07
-4.99109e-07
-1.9812e-07
-4.86377e-07
-1.75832e-07
-4.71481e-07
-1.55501e-07
-1.30611e-07
-4.32375e-07
-6.31846e-07
-2.08953e-07
6.24398e-07
-6.26829e-07
-2.32264e-07
-6.15822e-07
-2.4552e-07
-6.06696e-07
-2.46351e-07
-6.00106e-07
-2.41924e-07
-5.97161e-07
-2.24217e-07
-5.99318e-07
-1.96242e-07
-6.0498e-07
-1.70032e-07
-5.93285e-07
-1.45675e-07
-1.23596e-07
-5.99593e-07
-6.48834e-07
-1.80889e-07
6.15725e-07
-6.57069e-07
-2.24137e-07
-6.51364e-07
-2.51253e-07
-6.43722e-07
-2.5401e-07
-6.39943e-07
-2.4569e-07
-6.4254e-07
-2.21474e-07
-6.50732e-07
-1.87943e-07
-6.67634e-07
-1.53545e-07
-6.91689e-07
-1.21592e-07
-9.60967e-08
-7.19158e-07
-6.01334e-07
-6.63082e-08
2.95597e-07
-6.79538e-07
-1.98459e-07
-6.65755e-07
-2.65049e-07
-6.53322e-07
-2.66477e-07
-6.48562e-07
-2.50456e-07
-6.51765e-07
-2.18135e-07
-6.59538e-07
-1.80081e-07
-6.72927e-07
-1.40698e-07
-6.93542e-07
-1.0091e-07
-6.87937e-08
-7.21078e-07
-2.77796e-07
-4.82348e-08
1.3555e-07
-6.39629e-07
-2.03212e-07
-6.30239e-07
-2.74462e-07
-6.21261e-07
-2.75438e-07
-6.17947e-07
-2.53792e-07
-6.20174e-07
-2.15862e-07
-6.25739e-07
-1.74352e-07
-6.33371e-07
-1.33483e-07
-6.4646e-07
-8.80593e-08
-4.40276e-08
-6.71659e-07
-2.48441e-07
-1.52251e-07
9.34224e-08
-5.46708e-07
-2.35936e-07
-5.63166e-07
-2.5788e-07
-5.77788e-07
-2.60831e-07
-5.82821e-07
-2.48764e-07
-5.81568e-07
-2.17088e-07
-5.8515e-07
-1.70725e-07
-5.88641e-07
-1.30112e-07
-5.88252e-07
-8.88281e-08
-3.42196e-08
-5.98204e-07
-4.92232e-07
-2.16443e-07
3.3241e-07
-5.07866e-07
-2.27595e-07
-5.3111e-07
-2.34984e-07
-5.50753e-07
-2.41106e-07
-5.62937e-07
-2.36567e-07
-5.58447e-07
-2.21578e-07
-5.47755e-07
-1.81418e-07
-5.48479e-07
-1.29347e-07
-5.48916e-07
-8.8479e-08
-3.42266e-08
-5.48362e-07
-5.13841e-07
-2.31446e-07
5.28651e-07
-5.09545e-07
-2.29492e-07
-4.96844e-07
-2.42889e-07
-4.81464e-07
-2.56765e-07
-4.77333e-07
-2.40666e-07
-4.77259e-07
-2.21645e-07
-4.73996e-07
-1.84656e-07
-4.76082e-07
-1.27264e-07
-4.84171e-07
-8.02108e-08
-2.93064e-08
-4.88515e-07
-4.44723e-07
-2.31224e-07
4.90278e-07
-4.40023e-07
-2.3477e-07
-4.39054e-07
-2.44346e-07
-4.3255e-07
-2.68973e-07
-3.79581e-07
-2.92481e-07
-3.52751e-07
-2.46574e-07
-3.46902e-07
-1.89481e-07
-3.47256e-07
-1.26782e-07
-3.43475e-07
-8.34572e-08
-2.95225e-08
-3.42421e-07
-3.08492e-07
-1.83441e-07
2.59311e-07
-3.44538e-07
-1.99211e-07
-3.72751e-07
-2.16793e-07
-3.80143e-07
-2.62412e-07
-3.21752e-07
-3.14722e-07
-2.46021e-07
-3.13752e-07
-1.93951e-07
-2.53085e-07
-1.83488e-07
-1.37736e-07
-1.74889e-07
-9.09583e-08
-3.27279e-08
-1.69456e-07
-4.37931e-08
-1.61445e-07
2.19827e-08
-7.62577e-08
-1.76243e-07
-1.19703e-07
-1.78644e-07
-1.73033e-07
-2.09913e-07
-1.8185e-07
-3.06736e-07
-1.35076e-07
-3.61298e-07
-6.55807e-08
-3.41863e-07
4.63665e-08
-2.54858e-07
9.08472e-08
-1.41345e-07
1.93162e-08
4.20118e-08
9.03096e-09
-1.54076e-07
-1.62207e-08
6.80636e-09
-1.73844e-07
1.89473e-08
-1.85486e-07
5.39713e-08
-2.35981e-07
1.33689e-07
-3.87233e-07
2.00941e-07
-4.32903e-07
2.49593e-07
-3.9271e-07
2.8063e-07
-2.90012e-07
2.97172e-07
-1.60941e-07
3.35876e-08
2.88767e-07
2.13538e-08
-1.50019e-07
-2.59076e-08
1.90787e-08
-1.71367e-07
6.10337e-08
-1.94764e-07
2.09389e-07
-3.71946e-07
3.11952e-07
-5.28496e-07
3.89623e-07
-5.12728e-07
4.16971e-07
-4.21417e-07
3.822e-07
-2.5013e-07
3.20952e-07
-6.5144e-08
4.38076e-08
3.41474e-07
-1.0012e-08
-1.37213e-07
1.50767e-10
-2.69868e-09
-1.41622e-07
7.45466e-08
-2.81357e-07
2.25684e-07
-5.56787e-07
3.17817e-07
-6.20874e-07
3.65978e-07
-5.57102e-07
2.79749e-07
-3.1482e-07
2.61858e-07
-1.72058e-07
2.43593e-07
-4.69389e-08
6.29952e-08
2.6385e-07
-6.80165e-08
-9.10639e-08
5.30687e-08
-6.34153e-08
-1.21917e-07
-3.94609e-09
-3.52023e-07
4.17856e-08
-6.02763e-07
6.60816e-08
-6.45497e-07
7.75492e-08
-5.4523e-07
5.41689e-08
-2.91414e-07
5.2974e-08
-1.70923e-07
6.03417e-08
-5.43669e-08
5.59082e-08
6.73683e-08
-6.90361e-08
-5.37637e-08
5.12643e-08
-7.47364e-08
-1.18876e-07
-7.41356e-08
-3.55286e-07
-8.2569e-08
-5.94552e-07
-8.60194e-08
-6.42543e-07
-6.09243e-08
-5.72636e-07
-8.89037e-08
-2.63677e-07
-1.18536e-07
-1.41442e-07
-1.25281e-07
-4.76819e-08
7.42631e-08
-1.4379e-07
-2.95329e-08
-5.41922e-08
2.96461e-08
-5.73114e-08
-9.3757e-08
-1.0245e-07
-3.08061e-07
-1.39469e-07
-5.5235e-07
-1.46889e-07
-6.35673e-07
-1.30777e-07
-5.91827e-07
-1.25673e-07
-2.69188e-07
-1.64287e-07
-1.03071e-07
-1.69228e-07
-4.28946e-08
8.81888e-08
-1.88349e-07
3.11853e-08
-8.88914e-08
-1.16558e-08
-6.58511e-09
-5.8646e-08
-1.09517e-07
-2.08416e-07
-1.52765e-07
-5.06544e-07
-1.62619e-07
-6.26516e-07
-1.5557e-07
-5.98625e-07
-7.82421e-08
-3.43813e-07
-1.41185e-07
-4.0534e-08
-2.02249e-07
-1.64959e-08
5.66608e-08
-1.61107e-07
2.83547e-08
-1.17609e-07
2.51437e-10
3.14966e-08
-9.67022e-08
-2.88184e-08
-1.7489e-07
-7.25361e-08
-4.58564e-07
-1.03507e-07
-5.965e-07
-1.27028e-07
-5.74805e-07
-6.87887e-08
-3.99492e-07
-9.12676e-08
-1.91822e-08
-1.11914e-07
2.5527e-09
2.22257e-08
-7.91828e-08
3.18393e-08
-1.28033e-07
-2.14247e-08
6.56653e-08
-1.30453e-07
-8.58352e-10
-1.29088e-07
-3.17971e-08
-4.14589e-07
-5.42745e-08
-5.75343e-07
-6.30121e-08
-5.65411e-07
-2.6192e-08
-4.3615e-07
-2.02107e-08
-2.4691e-08
-3.85948e-08
2.56433e-08
8.55971e-09
-2.0547e-08
1.63826e-09
-1.17098e-07
1.7373e-08
1.61861e-08
-1.44087e-07
-3.21102e-09
-1.05914e-07
-8.8919e-09
-3.99746e-07
-1.63359e-08
-5.69688e-07
-2.21003e-08
-5.58934e-07
-3.42074e-08
-4.15899e-07
-4.98233e-08
-6.58213e-09
-2.23473e-08
6.51652e-10
-2.40035e-08
1.03517e-08
1.01186e-08
-5.42089e-08
7.14907e-09
-7.88678e-11
-7.39318e-08
-3.05651e-09
-5.27949e-08
2.73701e-08
-4.2197e-07
8.23733e-09
-5.51789e-07
-3.16996e-09
-5.47264e-07
1.58647e-08
-4.25807e-07
2.1603e-08
-8.52415e-09
2.12444e-08
2.92068e-09
-3.17221e-08
3.01241e-08
-1.17248e-08
-3.25041e-10
7.57055e-10
-1.20544e-08
-2.1624e-08
1.52287e-09
-4.16256e-08
1.46189e-08
-4.28671e-07
7.14068e-09
-5.4415e-07
-9.34136e-10
-5.38847e-07
9.25486e-09
-4.28347e-07
3.9549e-08
-3.40793e-08
4.6099e-08
8.34642e-09
-1.74843e-08
3.61321e-08
4.66025e-11
-1.61096e-11
-3.59551e-10
-1.54152e-09
7.79995e-10
2.12963e-08
-6.7662e-08
5.21925e-08
-4.46172e-07
-1.69353e-09
-4.90269e-07
-3.52855e-08
-5.05325e-07
-2.47623e-08
-4.38678e-07
4.84119e-09
-5.98905e-08
1.21114e-08
4.05824e-09
0
-2.50351e-11
3.88216e-11
7.63821e-12
-6.72187e-11
3.92628e-09
5.3633e-10
3.82225e-08
-1.05447e-07
1.98084e-08
-4.32549e-07
-5.72131e-09
-4.64846e-07
-4.84155e-08
-4.62568e-07
-4.53816e-08
-4.39583e-07
-3.46339e-09
-9.35918e-08
-4.42507e-11
6.71869e-10
7.76273e-12
-2.3018e-11
8.29991e-11
3.20432e-10
-2.94916e-11
2.38002e-09
-1.36742e-09
9.41089e-08
-2.09852e-07
6.75772e-08
-4.09281e-07
1.38907e-08
-4.11161e-07
-3.95873e-08
-4.09089e-07
-7.89868e-08
-3.97618e-07
-1.33353e-09
-1.57824e-07
1.50706e-14
-6.44067e-10
1.84661e-12
4.46818e-12
0
4.34164e-10
3.26126e-11
2.28274e-08
-2.36934e-08
7.63619e-08
-2.67232e-07
1.65199e-08
-3.49437e-07
-3.13078e-08
-3.63328e-07
-7.08681e-08
-3.69535e-07
-1.02921e-07
-3.65465e-07
-1.43031e-08
-2.42569e-07
9.82019e-14
-1.4949e-08
-2.28412e-12
4.35465e-13
4.42529e-10
3.79438e-12
0
6.85684e-08
-9.10495e-08
9.59286e-08
-2.92263e-07
6.25821e-08
-3.16084e-07
1.50946e-08
-3.15841e-07
-4.22223e-08
-3.12217e-07
-9.6434e-08
-3.11259e-07
-4.99467e-08
-2.92948e-07
-1.25327e-09
-6.50232e-08
-1.25548e-09
-7.26142e-14
3.73053e-08
-3.7279e-08
0
1.37722e-07
-1.92904e-07
9.89541e-08
-2.53496e-07
3.87781e-08
-2.55908e-07
-1.53667e-08
-2.61696e-07
-6.06799e-08
-2.66904e-07
-1.08486e-07
-2.63453e-07
-1.45912e-07
-2.55493e-07
-2.84302e-08
-1.8236e-07
-2.96857e-08
-8.41096e-16
9.31657e-08
1.4229e-33
9.54557e-08
6.19501e-08
3.72396e-08