/*--------------------------------*- C++ -*----------------------------------*\
  =========                 |
  \\      /  F ield         | OpenFOAM: The Open Source CFD Toolbox
   \\    /   O peration     | Website:  https://openfoam.org
    \\  /    A nd           | Version:  8
     \\/     M anipulation  |
\*---------------------------------------------------------------------------*/
FoamFile
{
    version     2.0;
    format      ascii;
    class       surfaceScalarField;
    location    "8.35";
    object      phi;
}
// * * * * * * * * * * * * * * * * * * * * * * * * * * * * * * * * * * * * * //

dimensions      [0 3 -1 0 0 0 0];

internalField   nonuniform List<scalar> 
18095
(
2.00395e-08
-1.72157e-07
1.52117e-07
2.31503e-08
-1.97301e-07
1.9419e-07
2.00746e-08
-2.06217e-07
2.09293e-07
1.18703e-08
-2.11345e-07
2.19549e-07
3.53369e-10
-2.13403e-07
2.24921e-07
-1.14529e-08
-2.13213e-07
2.25019e-07
-2.03459e-08
-2.1062e-07
2.19513e-07
-2.32472e-08
-2.06236e-07
2.09137e-07
-2.00621e-08
-1.97371e-07
1.94185e-07
-1.72138e-07
1.52076e-07
1.55055e-08
-1.87662e-07
1.62552e-08
-1.9805e-07
1.18861e-08
-2.01848e-07
5.89996e-09
-2.05359e-07
-7.00926e-10
-2.06803e-07
-6.64148e-09
-2.07272e-07
-1.20288e-08
-2.05232e-07
-1.62534e-08
-2.02012e-07
-1.55302e-08
-1.98094e-07
-1.87668e-07
6.777e-09
-1.94439e-07
8.42113e-09
-1.99695e-07
7.4357e-09
-2.00863e-07
4.54581e-09
-2.02469e-07
5.2944e-10
-2.02786e-07
-4.02121e-09
-2.02722e-07
-7.30803e-09
-2.01946e-07
-8.41123e-09
-2.00908e-07
-6.77962e-09
-1.99725e-07
-1.94447e-07
4.4982e-09
-1.98937e-07
4.74498e-09
-1.99941e-07
3.69919e-09
-1.99817e-07
1.58389e-09
-2.00353e-07
-4.35945e-10
-2.00766e-07
-2.18622e-09
-2.00972e-07
-3.69068e-09
-2.00441e-07
-4.73322e-09
-1.99866e-07
-4.48974e-09
-1.99969e-07
-1.98937e-07
1.06265e-09
1.12117e-09
1.30436e-09
9.50964e-10
1.84567e-10
-7.87006e-10
-1.22821e-09
-1.09409e-09
-1.06288e-09
-2.93332e-08
-1.95748e-07
2.25081e-07
-3.19078e-08
-1.99223e-07
2.01798e-07
-2.64822e-08
-2.00826e-07
1.95401e-07
-1.61045e-08
-2.01236e-07
1.90859e-07
-1.49115e-09
-2.02076e-07
1.87463e-07
1.35237e-08
-2.02305e-07
1.8729e-07
2.51662e-08
-2.02331e-07
1.90688e-07
3.12967e-08
-2.01422e-07
1.95291e-07
2.90126e-08
-1.99292e-07
2.01576e-07
-1.9554e-07
2.24552e-07
-9.24184e-09
-1.86506e-07
-1.4608e-08
-1.93857e-07
-1.09411e-08
-2.04493e-07
-3.46773e-09
-2.0871e-07
2.17375e-09
-2.07718e-07
7.29189e-09
-2.07423e-07
1.27599e-08
-2.07799e-07
1.50952e-08
-2.03757e-07
9.27535e-09
-1.93473e-07
-1.86264e-07
-9.63438e-09
-1.76872e-07
-8.30988e-09
-1.95182e-07
-8.13741e-09
-2.04666e-07
-6.2003e-09
-2.10647e-07
-2.51421e-10
-2.13667e-07
5.36126e-09
-2.13036e-07
6.86148e-09
-2.09299e-07
7.69054e-09
-2.04586e-07
9.42461e-09
-1.95207e-07
-1.7684e-07
-6.37478e-09
-1.70497e-07
-8.06341e-09
-1.93493e-07
-7.71214e-09
-2.05017e-07
-4.43292e-09
-2.13926e-07
-2.08503e-09
-2.16015e-07
1.38303e-09
-2.16504e-07
7.06387e-09
-2.1498e-07
7.72319e-09
-2.05245e-07
6.21194e-09
-1.93696e-07
-1.70628e-07
-1.83799e-08
-1.76829e-08
-1.34072e-08
-7.78408e-09
1.12195e-09
9.63756e-09
1.41704e-08
1.80623e-08
1.85522e-08
2.932e-08
-1.60451e-07
1.31131e-07
3.32748e-08
-1.9967e-07
1.95715e-07
2.38552e-08
-2.1051e-07
2.1993e-07
7.7987e-09
-2.15178e-07
2.31234e-07
-1.05914e-08
-2.16954e-07
2.35345e-07
-2.74403e-08
-2.16672e-07
2.33521e-07
-3.9149e-08
-2.15347e-07
2.27056e-07
-4.40864e-08
-2.10031e-07
2.14969e-07
-3.7246e-08
-1.97969e-07
1.91129e-07
-1.57217e-07
1.19971e-07
1.53064e-08
-1.75757e-07
1.81682e-08
-2.02532e-07
1.59704e-08
-2.08312e-07
9.9131e-09
-2.0912e-07
7.23301e-10
-2.07765e-07
-8.40712e-09
-2.07542e-07
-1.59782e-08
-2.07776e-07
-1.93752e-08
-2.06634e-07
-1.71366e-08
-2.00208e-07
-1.74353e-07
7.146e-09
-1.82903e-07
7.28102e-09
-2.02667e-07
5.9234e-09
-2.06955e-07
1.64198e-09
-2.04839e-07
-1.15306e-09
-2.0497e-07
-4.17475e-09
-2.0452e-07
-8.33526e-09
-2.03615e-07
-9.04929e-09
-2.0592e-07
-7.64139e-09
-2.01616e-07
-1.81995e-07
7.63226e-09
-1.90535e-07
4.52614e-09
-1.9956e-07
5.31396e-09
-2.07743e-07
-2.99611e-10
-1.99226e-07
-2.27168e-09
-2.02998e-07
-3.72159e-09
-2.0307e-07
-6.9697e-09
-2.00367e-07
-5.49273e-09
-2.07397e-07
-8.02283e-09
-1.99085e-07
-1.90018e-07
3.45462e-08
3.67833e-08
2.44412e-08
1.60743e-08
5.39711e-10
-1.52405e-08
-2.49195e-08
-3.70256e-08
-3.45346e-08
-3.05386e-09
-2.4052e-09
5.45905e-09
2.03381e-09
-5.08794e-09
2.23328e-09
-1.99601e-10
-7.91918e-11
2.31232e-09
-6.61021e-09
6.53088e-09
-9.36805e-09
2.75773e-09
-1.26971e-08
3.32898e-09
-1.23134e-08
-3.8376e-10
-9.98596e-09
-2.32749e-09
7.64508e-10
-1.07505e-08
1.31849e-09
7.17087e-09
-1.08947e-08
-7.4542e-09
3.68419e-09
-1.16074e-08
3.95329e-09
-1.47983e-08
5.50304e-09
-1.6956e-08
8.68832e-09
-1.78183e-08
3.61985e-09
-1.77484e-08
3.259e-09
-2.01526e-08
2.02035e-09
-2.35941e-08
1.11404e-09
8.34551e-09
-3.11751e-08
2.8855e-08
1.89333e-08
-4.06176e-08
1.79752e-08
1.45632e-08
1.16856e-08
1.02426e-08
3.34396e-09
1.38445e-08
-3.26016e-09
1.52922e-08
-5.23438e-09
5.59392e-09
-6.21546e-09
4.23997e-09
-1.39581e-08
9.76295e-09
-2.61293e-08
1.32852e-08
2.39614e-08
-4.17452e-08
3.3243e-08
2.70596e-08
-4.13695e-08
2.48629e-08
2.29425e-08
1.56454e-08
1.94598e-08
9.27897e-09
2.02108e-08
3.24423e-09
2.13268e-08
-6.14045e-09
1.49785e-08
-1.47163e-08
1.28157e-08
-2.15665e-08
1.66131e-08
-3.30929e-08
2.48116e-08
3.71696e-08
-4.63012e-08
2.87161e-08
3.22743e-08
-3.39311e-08
2.04203e-08
3.12379e-08
1.26724e-08
2.72076e-08
7.85244e-09
2.50307e-08
3.63948e-09
2.55398e-08
-2.91368e-09
2.15317e-08
-1.32211e-08
2.31231e-08
-2.08526e-08
2.42447e-08
-2.85697e-08
3.25287e-08
4.36627e-08
-3.50627e-08
3.24043e-08
3.74859e-08
-3.76161e-08
2.67532e-08
3.68892e-08
1.98448e-08
3.41162e-08
1.58508e-08
2.9025e-08
1.53215e-08
2.60693e-08
8.95753e-09
2.78959e-08
1.72063e-09
3.03602e-08
-8.64611e-09
3.46116e-08
-1.57568e-08
3.96396e-08
4.58372e-08
-1.79312e-08
3.56825e-08
4.12388e-08
-3.94353e-08
2.87817e-08
4.3791e-08
2.03493e-08
4.2549e-08
1.34103e-08
3.59644e-08
8.98741e-09
3.04925e-08
4.36712e-09
3.25165e-08
-3.80307e-10
3.51079e-08
-4.6278e-09
3.88594e-08
-9.04079e-09
4.40528e-08
4.6672e-08
-9.87542e-09
3.44479e-08
4.54787e-08
-3.86874e-08
2.74667e-08
5.07734e-08
2.15421e-08
4.84741e-08
1.59513e-08
4.15555e-08
1.03484e-08
3.60958e-08
6.18807e-09
3.66771e-08
3.94716e-09
3.73491e-08
1.03815e-09
4.17686e-08
-6.38471e-09
5.14759e-08
5.42251e-08
-1.39377e-08
2.59204e-08
5.183e-08
-3.22712e-08
2.21988e-08
5.44959e-08
2.24128e-08
4.82603e-08
2.34147e-08
4.05538e-08
2.16964e-08
3.78143e-08
2.00949e-08
3.82787e-08
1.62239e-08
4.12202e-08
9.17482e-09
4.88177e-08
-1.01481e-09
6.16655e-08
6.85353e-08
-1.5325e-08
1.85331e-08
5.42816e-08
-2.09844e-08
2.28323e-08
5.01969e-08
2.91689e-08
4.19237e-08
3.32708e-08
3.64519e-08
3.43654e-08
3.67196e-08
3.25305e-08
4.01136e-08
2.65561e-08
4.71946e-08
1.80413e-08
5.73325e-08
1.01569e-08
6.95499e-08
8.15751e-08
-2.88295e-09
1.38728e-08
4.72342e-08
-6.82547e-09
2.56567e-08
3.84128e-08
3.48114e-08
3.2769e-08
3.84031e-08
3.28601e-08
3.78844e-08
3.72383e-08
3.42213e-08
4.37766e-08
2.95535e-08
5.18623e-08
2.46128e-08
6.22731e-08
2.09446e-08
7.32181e-08
8.60687e-08
1.64509e-08
1.60991e-08
3.72342e-08
-6.0992e-09
2.65049e-08
2.8007e-08
3.21693e-08
2.71047e-08
3.48767e-08
3.01527e-08
3.42095e-08
3.79055e-08
3.08967e-08
4.70894e-08
2.68752e-08
5.58838e-08
2.35742e-08
6.55741e-08
2.15167e-08
7.52755e-08
8.5464e-08
2.21213e-08
2.60413e-08
3.01199e-08
-1.8927e-08
3.10776e-08
2.29711e-08
3.44879e-08
2.36946e-08
3.58966e-08
2.87442e-08
3.38291e-08
3.99731e-08
2.97908e-08
5.11277e-08
2.57377e-08
5.9937e-08
2.33628e-08
6.79489e-08
2.19449e-08
7.66933e-08
8.44446e-08
2.29643e-08
3.82018e-08
2.36747e-08
-3.17564e-08
3.95268e-08
2.1647e-08
3.83829e-08
2.48388e-08
3.62315e-08
3.08958e-08
3.27216e-08
4.34831e-08
2.71865e-08
5.66628e-08
2.22325e-08
6.48911e-08
2.3294e-08
6.68872e-08
2.65816e-08
7.34057e-08
7.95915e-08
3.14346e-08
3.36245e-08
2.24893e-08
-3.24388e-08
2.83272e-08
2.69453e-08
2.26782e-08
3.0488e-08
1.97586e-08
3.38155e-08
2.16681e-08
4.15737e-08
2.60342e-08
5.22967e-08
3.13981e-08
5.95272e-08
3.89507e-08
5.93346e-08
5.16277e-08
6.07286e-08
6.0784e-08
7.04352e-08
2.09265e-08
2.12115e-08
-1.96484e-08
2.54197e-08
2.24523e-08
2.86959e-08
2.7212e-08
3.39623e-08
2.85492e-08
3.98556e-08
3.56806e-08
4.31058e-08
4.90465e-08
5.10171e-08
5.1616e-08
6.16347e-08
4.8717e-08
7.1569e-08
5.07942e-08
5.42715e-08
7.80814e-08
3.2449e-08
1.00498e-08
-2.12871e-08
3.41213e-08
2.07798e-08
3.39813e-08
2.7352e-08
3.13607e-08
3.11698e-08
3.01883e-08
3.68531e-08
3.48966e-08
4.43382e-08
3.62297e-08
5.02829e-08
3.20861e-08
5.28606e-08
2.97528e-08
5.31275e-08
4.87389e-08
3.52853e-08
-2.52132e-08
1.63593e-08
1.89036e-08
-3.29955e-08
2.85619e-08
-4.12428e-08
3.55994e-08
-4.86051e-08
3.85323e-08
-5.61208e-08
4.4369e-08
-6.04606e-08
4.86781e-08
-6.30705e-08
5.28928e-08
-6.45369e-08
5.43269e-08
-6.20622e-08
5.06528e-08
4.50797e-08
-5.84033e-08
-1.3807e-07
3.14168e-08
1.23013e-07
-1.40548e-07
3.10403e-08
-1.37699e-07
3.27499e-08
-1.35752e-07
3.65861e-08
-1.34719e-07
4.33361e-08
-1.31985e-07
4.59434e-08
-1.25406e-07
4.63142e-08
-1.18709e-07
4.76299e-08
-1.10768e-07
4.27112e-08
3.75913e-08
-1.03279e-07
-1.59075e-07
3.95639e-08
1.50928e-07
-1.58873e-07
3.08397e-08
-1.57176e-07
3.1053e-08
-1.56275e-07
3.56847e-08
-1.54631e-07
4.16923e-08
-1.52862e-07
4.41743e-08
-1.48142e-07
4.1594e-08
-1.40472e-07
3.99594e-08
-1.32604e-07
3.48431e-08
3.15136e-08
-1.26527e-07
-1.32358e-07
6.93502e-08
1.02572e-07
-1.47071e-07
4.5553e-08
-1.52034e-07
3.60165e-08
-1.54018e-07
3.76683e-08
-1.53184e-07
4.0858e-08
-1.50412e-07
4.1402e-08
-1.4578e-07
3.69625e-08
-1.36854e-07
3.10327e-08
-1.28361e-07
2.635e-08
2.55004e-08
-1.22348e-07
-6.93906e-08
9.8696e-08
4.00451e-08
-1.1035e-07
8.6512e-08
-1.29483e-07
5.51496e-08
-1.33033e-07
4.1218e-08
-1.32996e-07
4.08203e-08
-1.31961e-07
4.03668e-08
-1.30561e-07
3.55628e-08
-1.26155e-07
2.66258e-08
-1.20166e-07
2.03618e-08
1.99567e-08
-1.14623e-07
-1.46501e-08
1.01769e-07
1.15773e-08
-4.63706e-08
1.18232e-07
-8.8193e-08
9.69716e-08
-1.09044e-07
6.20683e-08
-1.1693e-07
4.87067e-08
-1.23497e-07
4.69335e-08
-1.30526e-07
4.25909e-08
-1.33543e-07
2.96432e-08
-1.32574e-07
1.93926e-08
1.70585e-08
-1.29676e-07
-4.02349e-09
9.65301e-08
9.2618e-09
-7.4136e-09
1.21621e-07
-4.14858e-08
1.31044e-07
-8.77259e-08
1.08308e-07
-1.10037e-07
7.10174e-08
-1.24479e-07
6.13752e-08
-1.36043e-07
5.41551e-08
-1.48149e-07
4.17482e-08
-1.5905e-07
3.02936e-08
2.56121e-08
-1.67603e-07
-1.49838e-08
9.71014e-08
1.44121e-08
-4.28327e-09
1.1092e-07
-1.07336e-08
1.37494e-07
-6.04856e-08
1.5806e-07
-1.05315e-07
1.15846e-07
-1.25241e-07
8.1301e-08
-1.33995e-07
6.29093e-08
-1.43441e-07
5.11944e-08
-1.56991e-07
4.38427e-08
4.18204e-08
-1.73199e-07
-2.02178e-08
8.05144e-08
3.68046e-08
-9.75743e-10
9.16772e-08
1.30122e-08
1.23506e-07
-2.60824e-08
1.97154e-07
-8.10127e-08
1.70776e-07
-1.04972e-07
1.05261e-07
-1.11658e-07
6.95947e-08
-1.18181e-07
5.77167e-08
-1.30477e-07
5.61391e-08
5.62627e-08
-1.44919e-07
-1.68812e-08
5.79315e-08
3.9464e-08
-1.73229e-09
7.65275e-08
4.60713e-09
1.17166e-07
-5.29359e-09
2.07055e-07
-3.979e-08
2.05272e-07
-6.15551e-08
1.27025e-07
-8.08637e-08
8.8903e-08
-1.0166e-07
7.85132e-08
-1.14868e-07
6.93472e-08
5.9326e-08
-1.17932e-07
-2.9529e-08
4.58151e-08
4.16453e-08
-2.38085e-08
7.08055e-08
-4.06726e-08
1.34029e-07
-3.47643e-08
2.01146e-07
-3.52574e-08
2.05765e-07
-5.23626e-08
1.4413e-07
-7.41658e-08
1.10706e-07
-9.20273e-08
9.63746e-08
-9.83622e-08
7.5682e-08
4.51065e-08
-8.41429e-08
-6.5341e-08
4.9869e-08
6.12868e-08
-7.03745e-08
7.58374e-08
-7.77655e-08
1.4142e-07
-5.87766e-08
1.82157e-07
-4.2322e-08
1.8931e-07
-4.21494e-08
1.43958e-07
-4.73944e-08
1.15951e-07
-5.24493e-08
1.01429e-07
-4.81559e-08
7.13885e-08
3.89391e-08
-4.19884e-08
-9.77378e-08
6.18875e-08
8.57188e-08
-1.07187e-07
8.52855e-08
-1.0002e-07
1.34253e-07
-7.51759e-08
1.57313e-07
-3.8739e-08
1.52873e-07
-2.2185e-08
1.27404e-07
-2.10069e-08
1.14773e-07
-1.79666e-08
9.83892e-08
-1.44258e-08
6.78479e-08
3.6552e-08
-1.20386e-08
-1.01382e-07
7.78612e-08
8.54084e-08
-1.126e-07
9.65032e-08
-9.99424e-08
1.21595e-07
-7.24545e-08
1.29825e-07
-3.92706e-08
1.19689e-07
-2.35052e-08
1.11638e-07
-1.35759e-08
1.04844e-07
-5.9404e-09
9.07539e-08
-3.10511e-09
6.50127e-08
3.68119e-08
-3.365e-09
-7.26785e-08
9.65159e-08
5.40238e-08
-7.94166e-08
1.03242e-07
-7.05809e-08
1.12759e-07
-5.08131e-08
1.10057e-07
-3.63741e-08
1.05251e-07
-2.48727e-08
1.00137e-07
-1.24762e-08
9.24474e-08
-3.93462e-09
8.22123e-08
-3.80981e-09
6.48878e-08
4.16535e-08
-8.65156e-09
-9.54218e-10
9.08752e-08
6.5951e-09
7.92057e-10
1.01496e-07
7.4751e-09
1.06076e-07
4.32604e-09
1.13207e-07
-2.47362e-09
1.1205e-07
6.00406e-10
9.70631e-08
1.76961e-09
9.12781e-08
1.13708e-09
8.28446e-08
-2.85427e-09
6.88789e-08
5.12904e-08
-1.24915e-08
1.83073e-08
7.9745e-08
-7.17706e-09
3.70328e-08
8.27701e-08
5.08615e-08
9.22477e-08
6.87257e-08
9.53426e-08
6.22977e-08
1.18478e-07
3.54063e-08
1.23954e-07
1.80441e-08
1.0864e-07
9.32355e-09
9.15651e-08
3.74926e-10
7.78274e-08
6.1991e-08
-1.03257e-08
3.59125e-08
8.4647e-08
-4.08146e-08
4.15229e-08
7.71595e-08
6.15996e-08
7.21711e-08
7.99061e-08
7.7036e-08
1.04223e-07
9.41616e-08
1.01473e-07
1.26704e-07
6.96041e-08
1.40509e-07
3.74385e-08
1.23731e-07
1.34445e-08
1.01822e-07
7.5397e-08
3.88465e-11
1.17118e-07
1.00835e-07
-1.33306e-07
1.00483e-07
9.37944e-08
9.25425e-08
8.01113e-08
9.81424e-08
7.14361e-08
1.15662e-07
7.66419e-08
1.41284e-07
1.01082e-07
1.49903e-07
1.3189e-07
1.19113e-07
1.54522e-07
7.24427e-08
1.48492e-07
1.18989e-07
2.88514e-08
1.86255e-07
1.0389e-07
-1.8931e-07
1.77539e-07
1.0251e-07
1.63719e-07
9.3932e-08
1.57178e-07
7.7977e-08
1.56681e-07
7.71396e-08
1.73576e-07
8.41873e-08
1.9786e-07
1.07607e-07
1.96328e-07
1.56054e-07
1.4671e-07
1.9811e-07
1.79372e-07
8.63276e-08
2.10373e-07
9.88617e-08
-2.05345e-07
2.12384e-07
1.00499e-07
2.13276e-07
9.30399e-08
2.10391e-07
8.08618e-08
2.0679e-07
8.07415e-08
2.04108e-07
8.68687e-08
2.11098e-07
1.00617e-07
2.31179e-07
1.35973e-07
2.23589e-07
2.05701e-07
2.24261e-07
1.787e-07
2.08369e-07
9.05394e-08
-2.00047e-07
2.18893e-07
8.99754e-08
2.2357e-07
8.8363e-08
2.16816e-07
8.76158e-08
2.0466e-07
9.28975e-08
1.93748e-07
9.77804e-08
1.90608e-07
1.03757e-07
2.04524e-07
1.22057e-07
2.34794e-07
1.75431e-07
2.23656e-07
2.35398e-07
2.16418e-07
7.86154e-08
-2.04494e-07
1.9912e-07
1.07273e-07
1.74131e-07
1.13352e-07
1.45692e-07
1.16055e-07
1.27663e-07
1.10927e-07
1.26027e-07
9.94157e-08
1.36088e-07
9.36947e-08
1.60839e-07
9.73058e-08
2.12118e-07
1.24151e-07
1.80793e-07
2.54981e-07
1.85978e-07
8.63024e-08
-1.93665e-07
1.576e-07
1.3565e-07
1.16082e-07
1.5487e-07
8.6327e-08
1.4581e-07
8.15752e-08
1.15678e-07
1.03181e-07
7.78102e-08
1.33068e-07
6.38066e-08
1.64632e-07
6.57422e-08
2.03541e-07
8.52416e-08
1.3005e-07
2.54284e-07
1.11986e-07
1.05133e-07
-1.30817e-07
1.03297e-07
1.44338e-07
1.03609e-07
1.54558e-07
9.87867e-08
1.50631e-07
1.02802e-07
1.11663e-07
1.36239e-07
4.43734e-08
1.69732e-07
3.03142e-08
1.90408e-07
4.50664e-08
2.05819e-07
6.98305e-08
1.11103e-07
2.24765e-07
6.5699e-08
1.00779e-07
-6.13455e-08
8.42287e-08
1.25807e-07
1.07605e-07
1.31182e-07
1.39221e-07
1.19015e-07
1.69741e-07
8.11441e-08
1.89071e-07
2.50439e-08
1.97098e-07
2.22877e-08
1.92039e-07
5.01253e-08
1.74485e-07
8.73844e-08
1.23074e-07
1.62515e-07
5.6005e-08
7.89283e-08
-3.41544e-08
9.52428e-08
8.65686e-08
1.41894e-07
8.45319e-08
1.95235e-07
6.56739e-08
2.25943e-07
5.04361e-08
2.08259e-07
4.27288e-08
1.82475e-07
4.80715e-08
1.34383e-07
9.8217e-08
7.19472e-08
1.49821e-07
1.65133e-07
2.98878e-08
3.46252e-08
3.69146e-08
7.38809e-09
8.45516e-08
3.66425e-08
1.3053e-07
3.85535e-08
1.60851e-07
3.53535e-08
1.65712e-07
4.55748e-08
1.56617e-07
5.18247e-08
1.24109e-07
8.05794e-08
8.7038e-08
1.35288e-07
4.56352e-08
1.91224e-07
2.18838e-07
-8.06924e-09
-2.06726e-08
-6.12737e-09
6.37146e-08
1.44344e-08
1.5364e-09
4.28174e-08
1.01705e-08
5.94329e-08
1.8738e-08
6.84442e-08
3.65637e-08
5.82741e-08
6.1995e-08
3.1711e-08
1.07143e-07
2.51735e-09
1.64483e-07
-2.85901e-08
2.22332e-07
2.41962e-07
-5.17142e-08
-8.61536e-08
-3.56059e-08
1.15632e-07
-5.91919e-08
-2.54257e-08
-4.33663e-08
-5.65525e-09
-4.58598e-08
2.12315e-08
-6.30265e-08
5.37306e-08
-1.02415e-07
1.01384e-07
-1.5546e-07
1.60188e-07
-1.88289e-07
1.97311e-07
-1.87756e-07
2.21799e-07
2.26458e-07
-1.72252e-07
-1.24206e-07
-4.99595e-08
1.3856e-07
-1.05856e-07
-4.37763e-08
-9.44444e-08
-1.70667e-08
-1.00964e-07
2.77511e-08
-1.31913e-07
8.46805e-08
-1.71916e-07
1.41386e-07
-2.0233e-07
1.90602e-07
-2.14427e-07
2.09407e-07
-1.99389e-07
2.06761e-07
2.10658e-07
-1.83589e-07
-1.35126e-07
-4.10129e-08
1.26179e-07
-1.38615e-07
-4.02869e-08
-1.32989e-07
-2.26923e-08
-1.0915e-07
3.91215e-09
-1.14411e-07
8.99418e-08
-1.45993e-07
1.72968e-07
-1.62271e-07
2.0688e-07
-1.72848e-07
2.19985e-07
-1.71232e-07
2.05146e-07
1.90198e-07
-1.50771e-07
-7.16989e-08
-3.93028e-08
6.9989e-08
-8.44574e-08
-2.75266e-08
-9.61491e-08
-1.1e-08
-8.38694e-08
-8.36704e-09
-4.40431e-08
5.01161e-08
-2.41459e-08
1.53072e-07
-3.26529e-08
2.15388e-07
-4.99336e-08
2.37266e-07
-6.67222e-08
2.21935e-07
1.93584e-07
-7.01075e-08
-2.8407e-09
-2.00359e-08
-1.64256e-08
-1.22357e-08
-1.81302e-08
-1.0182e-08
-1.30536e-08
-2.46958e-08
6.14708e-09
-8.50421e-09
3.39252e-08
5.30483e-08
9.15198e-08
1.2009e-07
1.48347e-07
1.72451e-07
1.84907e-07
1.80372e-07
2.14013e-07
2.09479e-07
1.64477e-07
1.28386e-07
-3.60022e-09
-1.44821e-07
1.10619e-07
-3.61873e-10
9.86283e-08
-1.06212e-09
9.17268e-08
1.3049e-08
8.95146e-08
3.61379e-08
1.16445e-07
6.45902e-08
1.64915e-07
9.98773e-08
2.08474e-07
1.41348e-07
2.53222e-07
1.69265e-07
1.52677e-07
3.10025e-07
1.59178e-07
-1.18078e-09
-1.61597e-07
1.59786e-07
-9.69018e-10
1.572e-07
1.52408e-09
1.60414e-07
9.83495e-09
1.72271e-07
2.42805e-08
1.89513e-07
4.73483e-08
2.21318e-07
6.80716e-08
2.65381e-07
9.72849e-08
3.15059e-07
1.19586e-07
1.15669e-07
3.52067e-07
1.4506e-07
-1.21816e-09
-1.45022e-07
1.50484e-07
-6.39241e-09
1.60763e-07
-8.75489e-09
1.75957e-07
-5.35927e-09
1.99207e-07
1.03011e-09
2.3333e-07
1.32245e-08
2.75679e-07
2.57223e-08
3.27754e-07
4.52087e-08
3.79617e-07
6.77238e-08
8.69105e-08
4.08375e-07
1.48899e-07
-8.13366e-09
-1.41984e-07
1.61691e-07
-1.91853e-08
1.75406e-07
-2.24705e-08
1.90715e-07
-2.06683e-08
2.11577e-07
-1.98318e-08
2.43367e-07
-1.85645e-08
2.83205e-07
-1.41158e-08
3.25546e-07
2.86804e-09
3.65181e-07
2.80891e-08
5.31339e-08
3.98957e-07
1.54503e-07
-2.33381e-08
-1.39299e-07
1.75339e-07
-4.00205e-08
1.93303e-07
-4.0435e-08
2.07867e-07
-3.52326e-08
2.27378e-07
-3.93434e-08
2.53461e-07
-4.46469e-08
2.83041e-07
-4.36957e-08
3.11568e-07
-2.56581e-08
3.35428e-07
4.22891e-09
2.91176e-08
3.59443e-07
1.5998e-07
-3.06173e-08
-1.527e-07
1.74699e-07
-5.47379e-08
1.93201e-07
-5.89359e-08
2.12984e-07
-5.50152e-08
2.29297e-07
-5.56568e-08
2.43028e-07
-5.83777e-08
2.55875e-07
-5.65432e-08
2.67577e-07
-3.73608e-08
2.84342e-07
-1.2537e-08
3.91424e-09
3.09546e-07
1.88068e-07
-2.66506e-08
-1.92033e-07
1.96832e-07
-6.3505e-08
2.15284e-07
-7.7388e-08
2.38477e-07
-7.82077e-08
2.55539e-07
-7.2719e-08
2.61198e-07
-6.40361e-08
2.57376e-07
-5.27218e-08
2.54424e-07
-3.44091e-08
2.67393e-07
-2.55068e-08
-2.31864e-08
2.94495e-07
2.76018e-07
-1.86689e-08
-2.83999e-07
2.73814e-07
-6.13016e-08
2.76593e-07
-8.0168e-08
2.82802e-07
-8.44167e-08
2.922e-07
-8.2117e-08
2.98865e-07
-7.07012e-08
2.96385e-07
-5.02414e-08
2.94401e-07
-3.24258e-08
2.90422e-07
-2.15266e-08
-1.22681e-08
2.79504e-07
3.81751e-07
-6.42758e-09
-3.93993e-07
3.6674e-07
-4.62894e-08
3.52102e-07
-6.553e-08
3.40076e-07
-7.23903e-08
3.29546e-07
-7.15864e-08
3.22435e-07
-6.35902e-08
3.1945e-07
-4.72566e-08
3.14523e-07
-2.74988e-08
3.03426e-07
-1.04291e-08
2.5803e-11
2.91132e-07
5.03807e-07
-2.31579e-09
-5.07919e-07
4.81198e-07
-2.3682e-08
4.50808e-07
-3.51402e-08
4.21266e-07
-4.28486e-08
3.93125e-07
-4.34456e-08
3.6911e-07
-3.95752e-08
3.58688e-07
-3.68344e-08
3.62035e-07
-3.08457e-08
3.69893e-07
-1.82868e-08
-2.78349e-09
3.72703e-07
6.32197e-07
-3.07641e-08
-6.03747e-07
6.26227e-07
-1.77127e-08
5.96451e-07
-5.36473e-09
5.56394e-07
-2.79226e-09
5.07455e-07
5.49342e-09
4.6207e-07
5.80985e-09
4.3441e-07
-9.17535e-09
4.31079e-07
-2.75152e-08
4.43616e-07
-3.08228e-08
-2.38303e-08
4.64663e-07
6.32711e-07
-5.85735e-08
-6.04901e-07
6.53043e-07
-3.80435e-08
6.64465e-07
-1.67876e-08
6.61042e-07
6.30971e-10
6.54352e-07
1.21827e-08
6.44064e-07
1.60975e-08
6.28663e-07
6.2254e-09
6.12922e-07
-1.17749e-08
6.10196e-07
-2.80983e-08
-3.03825e-08
6.16748e-07
6.49404e-07
-7.1446e-08
-6.36531e-07
6.77057e-07
-6.56982e-08
7.1146e-07
-5.11914e-08
7.40537e-07
-2.84458e-08
7.71745e-07
-1.90255e-08
8.00007e-07
-1.21656e-08
8.16427e-07
-1.01941e-08
8.2664e-07
-2.19865e-08
8.33877e-07
-3.53336e-08
-3.48683e-08
8.38365e-07
6.95401e-07
-9.79262e-08
-6.6892e-07
7.1933e-07
-8.96286e-08
7.38156e-07
-7.00161e-08
7.55677e-07
-4.59675e-08
8.00263e-07
-6.36111e-08
8.31866e-07
-4.37711e-08
8.65413e-07
-4.37415e-08
8.94664e-07
-5.12385e-08
9.17754e-07
-5.84245e-08
-5.15262e-08
9.34411e-07
5.70178e-07
-1.14695e-07
-5.53409e-07
5.95177e-07
-1.14628e-07
6.34404e-07
-1.09243e-07
6.91465e-07
-1.03027e-07
7.15984e-07
-8.81292e-08
7.54312e-07
-8.20988e-08
7.949e-07
-8.43289e-08
8.32395e-07
-8.87326e-08
8.59018e-07
-8.50482e-08
-6.62324e-08
8.73725e-07
3.20615e-07
-1.39274e-07
-2.96035e-07
3.42733e-07
-1.36747e-07
3.69651e-07
-1.36162e-07
3.83111e-07
-1.16488e-07
4.28368e-07
-1.33388e-07
4.60207e-07
-1.13939e-07
4.8943e-07
-1.13551e-07
5.04781e-07
-1.04084e-07
5.18347e-07
-9.86121e-08
-8.7906e-08
5.40021e-07
-4.20024e-09
-1.48906e-07
1.38326e-08
2.33643e-08
-1.64305e-07
6.01312e-08
-1.72928e-07
1.27867e-07
-1.84225e-07
1.63203e-07
-1.68725e-07
2.11392e-07
-1.6213e-07
2.52805e-07
-1.54964e-07
2.9775e-07
-1.49032e-07
3.35191e-07
-1.36054e-07
-1.11823e-07
3.59109e-07
-2.41245e-07
-1.69206e-07
2.61545e-07
-2.12322e-07
-1.93227e-07
-1.79863e-07
-2.05387e-07
-1.46293e-07
-2.17796e-07
-1.08587e-07
-2.0643e-07
-8.31414e-08
-1.87575e-07
-7.02149e-08
-1.67889e-07
-6.52527e-08
-1.53992e-07
-5.32024e-08
-1.48104e-07
-1.22526e-07
-4.24981e-08
-4.79415e-07
-2.01638e-07
5.11848e-07
-4.59054e-07
-2.13589e-07
-4.4186e-07
-2.22583e-07
-4.33112e-07
-2.26545e-07
-4.15236e-07
-2.24308e-07
-3.94535e-07
-2.08276e-07
-3.77461e-07
-1.84964e-07
-3.65799e-07
-1.65654e-07
-3.68835e-07
-1.45066e-07
-1.27516e-07
-3.63849e-07
-5.89808e-07
-2.20204e-07
6.08375e-07
-5.71104e-07
-2.32291e-07
-5.54535e-07
-2.39152e-07
-5.3947e-07
-2.4161e-07
-5.25139e-07
-2.3864e-07
-5.10345e-07
-2.23071e-07
-4.95689e-07
-1.99621e-07
-4.82885e-07
-1.78459e-07
-4.67674e-07
-1.60276e-07
-1.41696e-07
-4.53497e-07
-6.36499e-07
-2.14804e-07
6.31099e-07
-6.27809e-07
-2.40983e-07
-6.15937e-07
-2.51024e-07
-6.06456e-07
-2.51092e-07
-6.00169e-07
-2.44925e-07
-5.98463e-07
-2.24776e-07
-6.01578e-07
-1.96503e-07
-6.09034e-07
-1.71002e-07
-6.21895e-07
-1.47415e-07
-1.25757e-07
-6.37833e-07
-6.5875e-07
-1.9812e-07
6.42066e-07
-6.59413e-07
-2.40318e-07
-6.5255e-07
-2.57887e-07
-6.4448e-07
-2.59165e-07
-6.41641e-07
-2.47765e-07
-6.45469e-07
-2.2095e-07
-6.55071e-07
-1.86902e-07
-6.72978e-07
-1.53095e-07
-6.98003e-07
-1.22392e-07
-9.86009e-08
-7.25157e-07
-6.9523e-07
-1.9865e-07
6.95757e-07
-6.80477e-07
-2.55067e-07
-6.66035e-07
-2.72329e-07
-6.5405e-07
-2.71148e-07
-6.50677e-07
-2.51137e-07
-6.54807e-07
-2.16819e-07
-6.63408e-07
-1.78301e-07
-6.7758e-07
-1.38922e-07
-6.99643e-07
-1.00329e-07
-7.09673e-08
-7.27276e-07
-6.46955e-07
-2.07037e-07
6.55341e-07
-6.39423e-07
-2.62595e-07
-6.31417e-07
-2.80336e-07
-6.23845e-07
-2.7872e-07
-6.21387e-07
-2.53595e-07
-6.23843e-07
-2.14362e-07
-6.29295e-07
-1.7285e-07
-6.36739e-07
-1.31478e-07
-6.51088e-07
-8.5981e-08
-4.46955e-08
-6.77361e-07
-5.37704e-07
-2.21933e-07
5.52599e-07
-5.53069e-07
-2.47228e-07
-5.69615e-07
-2.63791e-07
-5.84223e-07
-2.64112e-07
-5.87848e-07
-2.49971e-07
-5.85572e-07
-2.16638e-07
-5.88658e-07
-1.69765e-07
-5.91088e-07
-1.29046e-07
-5.90583e-07
-8.64834e-08
-3.26351e-08
-6.02643e-07
-5.14229e-07
-2.46677e-07
5.38974e-07
-5.21202e-07
-2.40254e-07
-5.40638e-07
-2.44354e-07
-5.58043e-07
-2.46705e-07
-5.67567e-07
-2.40447e-07
-5.61177e-07
-2.23027e-07
-5.50492e-07
-1.8045e-07
-5.51023e-07
-1.28516e-07
-5.50113e-07
-8.73938e-08
-3.21156e-08
-5.50633e-07
-5.57592e-07
-2.59182e-07
5.70097e-07
-5.33971e-07
-2.63873e-07
-5.07552e-07
-2.70773e-07
-4.88218e-07
-2.66038e-07
-4.82351e-07
-2.46314e-07
-4.80422e-07
-2.24955e-07
-4.76169e-07
-1.84702e-07
-4.77965e-07
-1.2672e-07
-4.84979e-07
-8.03796e-08
-2.87807e-08
-4.88313e-07
-5.02451e-07
-2.5622e-07
4.9949e-07
-5.00188e-07
-2.66136e-07
-4.90755e-07
-2.80206e-07
-4.51598e-07
-3.05195e-07
-3.93514e-07
-3.04398e-07
-3.60976e-07
-2.57494e-07
-3.50793e-07
-1.94884e-07
-3.47602e-07
-1.29911e-07
-3.41746e-07
-8.62376e-08
-3.09655e-08
-3.39561e-07
-3.24217e-07
-1.82911e-07
2.50909e-07
-3.8219e-07
-2.08161e-07
-4.23302e-07
-2.39092e-07
-4.27309e-07
-3.01189e-07
-3.73606e-07
-3.58101e-07
-2.87119e-07
-3.43982e-07
-2.10038e-07
-2.71965e-07
-1.85236e-07
-1.54713e-07
-1.69094e-07
-1.0238e-07
-3.37204e-08
-1.66341e-07
-4.32862e-08
-1.62203e-07
2.2578e-08
-7.3927e-08
-1.77521e-07
-1.28631e-07
-1.84389e-07
-1.8626e-07
-2.4356e-07
-1.90085e-07
-3.54275e-07
-1.44501e-07
-3.89565e-07
-5.71895e-08
-3.59277e-07
6.03067e-08
-2.72208e-07
1.05377e-07
-1.47451e-07
1.79022e-08
5.37537e-08
5.04406e-09
-1.54791e-07
-1.24551e-08
2.48574e-09
-1.74963e-07
1.71843e-08
-1.99087e-07
6.65445e-08
-2.92921e-07
1.54826e-07
-4.42557e-07
2.21632e-07
-4.56371e-07
2.7566e-07
-4.13308e-07
3.11385e-07
-3.07935e-07
3.26236e-07
-1.62302e-07
3.71322e-08
3.07006e-07
1.62808e-08
-1.49416e-07
-2.16552e-08
1.39625e-08
-1.72645e-07
7.68563e-08
-2.61981e-07
2.21122e-07
-4.37187e-07
3.28617e-07
-5.50052e-07
4.03168e-07
-5.30922e-07
4.46968e-07
-4.57108e-07
4.43318e-07
-3.04285e-07
3.72285e-07
-9.12684e-08
6.14749e-08
3.47942e-07
-1.5988e-08
-1.37698e-07
4.26984e-09
-9.45342e-09
-1.79178e-07
9.29821e-08
-3.64416e-07
2.31293e-07
-5.75496e-07
3.1709e-07
-6.3585e-07
3.96177e-07
-6.10011e-07
4.05308e-07
-4.66238e-07
3.70539e-07
-2.69516e-07
3.51673e-07
-7.24022e-08
9.79394e-08
3.15209e-07
-8.52349e-08
-1.08164e-07
5.57017e-08
-9.57029e-08
-1.68709e-07
-6.53339e-09
-4.53585e-07
3.32051e-08
-6.15234e-07
5.46558e-08
-6.57301e-07
8.23311e-08
-6.37686e-07
6.94747e-08
-4.53382e-07
6.96035e-08
-2.69645e-07
8.53046e-08
-8.81051e-08
8.51594e-08
9.80813e-08
-9.35089e-08
-7.00147e-08
5.53594e-08
-9.57502e-08
-1.6647e-07
-8.33534e-08
-4.65982e-07
-8.76595e-08
-6.10929e-07
-9.22336e-08
-6.52726e-07
-9.70273e-08
-6.32892e-07
-1.41571e-07
-4.08837e-07
-1.85138e-07
-2.26077e-07
-1.94098e-07
-7.91453e-08
1.09424e-07
-2.18364e-07
-3.56905e-08
-6.4368e-08
3.00425e-08
-7.26914e-08
-1.29467e-07
-1.22642e-07
-4.16031e-07
-1.43641e-07
-5.89929e-07
-1.515e-07
-6.44866e-07
-1.74571e-07
-6.0982e-07
-1.94276e-07
-3.89133e-07
-2.54629e-07
-1.65725e-07
-2.71636e-07
-6.21389e-08
1.12918e-07
-2.75128e-07
3.81094e-08
-9.25189e-08
-9.95781e-09
-7.36321e-09
-8.39928e-08
-1.33601e-07
-2.89793e-07
-1.55229e-07
-5.68301e-07
-1.65453e-07
-6.34642e-07
-1.67181e-07
-6.08092e-07
-1.16995e-07
-4.39319e-07
-2.14913e-07
-6.78071e-08
-2.49915e-07
-2.71375e-08
6.7599e-08
-2.04596e-07
2.86847e-08
-1.23568e-07
2.36466e-09
5.02869e-08
-1.05597e-07
-3.86656e-08
-2.00839e-07
-6.71492e-08
-5.39817e-07
-1.00956e-07
-6.00834e-07
-1.28201e-07
-5.80848e-07
-9.95673e-08
-4.67953e-07
-1.44926e-07
-2.24485e-08
-1.7544e-07
3.37672e-09
2.98449e-08
-1.37687e-07
2.59535e-08
-1.34401e-07
-1.51209e-08
5.89565e-08
-1.38604e-07
-5.82205e-09
-1.36061e-07
-3.89971e-08
-5.06642e-07
-5.89669e-08
-5.80865e-07
-7.10035e-08
-5.68811e-07
-2.73695e-08
-5.11586e-07
-2.38318e-08
-2.59851e-08
-5.1508e-08
3.10536e-08
9.06529e-09
-3.07296e-08
-1.17647e-09
-1.54195e-07
2.09692e-08
1.17823e-08
-1.51562e-07
-8.97828e-09
-1.153e-07
-1.37596e-08
-5.01861e-07
-2.06272e-08
-5.73998e-07
-2.8942e-08
-5.60496e-07
-3.77091e-08
-5.02819e-07
-5.46146e-08
-9.07943e-09
-2.45458e-08
9.84534e-10
-2.47207e-08
9.24043e-09
1.29987e-08
-1.94978e-07
2.77854e-08
-7.68218e-09
-1.30882e-07
-1.06016e-08
-1.12383e-07
2.30346e-08
-5.35497e-07
3.65369e-09
-5.54616e-07
-7.77058e-09
-5.49071e-07
2.07864e-08
-5.31377e-07
2.61978e-08
-1.44909e-08
2.26591e-08
4.52377e-09
-4.02296e-08
3.81683e-08
-7.59375e-08
-2.61901e-07
1.42872e-07
-1.40434e-07
-6.63881e-08
2.88716e-09
-2.55705e-07
1.28667e-08
-5.45475e-07
5.18803e-09
-5.46937e-07
-3.33423e-09
-5.40549e-07
2.06912e-08
-5.55402e-07
1.78062e-07
-1.71861e-07
9.55244e-08
8.70625e-08
-8.20958e-08
1.3739e-07
2.1527e-08
-1.21211e-07
-1.62242e-07
-5.0933e-08
6.0546e-09
9.96484e-08
-4.06287e-07
5.93315e-08
-5.05157e-07
3.05661e-09
-4.90662e-07
-3.22486e-08
-5.05243e-07
-8.42139e-08
-5.03436e-07
1.7031e-07
-4.26385e-07
1.23075e-07
1.34298e-07
1.69042e-07
-1.2806e-07
4.92091e-08
5.75675e-08
-2.28081e-07
4.21676e-08
1.30694e-08
7.50311e-08
-4.39154e-07
2.28072e-08
-4.52933e-07
-3.60344e-09
-4.64251e-07
-4.53792e-08
-4.63468e-07
-8.66446e-08
-4.6217e-07
-5.08398e-08
-4.6219e-07
-5.67803e-09
8.91371e-08
2.0828e-07
-4.49935e-08
3.33542e-08
2.2373e-07
-1.99491e-07
1.49104e-07
-1.02607e-07
1.08311e-07
-3.98362e-07
6.71247e-08
-4.11747e-07
1.35028e-08
-4.10629e-07
-4.07945e-08
-4.0917e-07
-1.00235e-07
-4.0273e-07
-1.74982e-07
-3.87439e-07
-3.03825e-10
-8.54885e-08
8.63718e-08
1.21704e-07
-4.1558e-08
1.96171e-07
6.91051e-08
1.38348e-07
-2.82501e-07
7.72172e-08
-3.37231e-07
1.60357e-08
-3.50565e-07
-3.10321e-08
-3.63561e-07
-7.08145e-08
-3.69388e-07
-1.0666e-07
-3.66885e-07
-1.55647e-07
-3.38452e-07
1.22505e-09
-2.42388e-07
-5.39277e-08
1.41503e-07
1.35058e-07
1.94863e-09
5.91816e-08
1.35243e-07
-2.82663e-07
9.76693e-08
-2.99658e-07
6.3499e-08
-3.16395e-07
1.59555e-08
-3.16017e-07
-4.12214e-08
-3.12211e-07
-9.69873e-08
-3.11119e-07
-1.31155e-07
-3.04284e-07
-9.13765e-08
-2.82163e-07
-9.60198e-08
-4.92633e-08
2.05066e-07
-2.36675e-07
3.35672e-08
1.44435e-07
-2.22031e-07
9.89854e-08
-2.54208e-07
3.85432e-08
-2.55953e-07
-1.58166e-08
-2.61658e-07
-6.11944e-08
-2.66833e-07
-1.08901e-07
-2.63412e-07
-1.5705e-07
-2.56135e-07
-2.18988e-07
-2.20224e-07
-1.90947e-07
-1.24055e-07
1.22172e-07
-2.27716e-07
9.58556e-08