/*--------------------------------*- C++ -*----------------------------------*\
  =========                 |
  \\      /  F ield         | OpenFOAM: The Open Source CFD Toolbox
   \\    /   O peration     | Website:  https://openfoam.org
    \\  /    A nd           | Version:  8
     \\/     M anipulation  |
\*---------------------------------------------------------------------------*/
FoamFile
{
    version     2.0;
    format      ascii;
    class       volScalarField;
    location    "5.6";
    object      p;
}
// * * * * * * * * * * * * * * * * * * * * * * * * * * * * * * * * * * * * * //

dimensions      [1 -1 -2 0 0 0 0];

internalField   nonuniform List<scalar> 
9150
(
-204.487
-205.502
-206.12
-206.591
-206.827
-206.82
-206.579
-206.108
-205.502
-204.489
-224.54
-225.06
-225.479
-225.805
-225.974
-225.978
-225.803
-225.478
-225.061
-224.54
-244.433
-244.719
-244.973
-245.192
-245.302
-245.307
-245.19
-244.969
-244.718
-244.433
-264.172
-264.349
-264.517
-264.675
-264.762
-264.754
-264.672
-264.516
-264.349
-264.172
-283.793
-283.975
-284.111
-284.238
-284.305
-284.299
-284.241
-284.112
-283.976
-283.793
-118.422
-119.278
-119.045
-118.634
-118.452
-118.442
-118.611
-119.015
-119.29
-118.439
-133.999
-134.718
-134.898
-134.947
-134.845
-134.83
-134.925
-134.859
-134.68
-133.971
-150.473
-151.224
-151.516
-151.895
-151.941
-151.929
-151.854
-151.497
-151.197
-150.452
-167.331
-168.469
-168.908
-169.55
-169.719
-169.717
-169.559
-168.916
-168.473
-167.337
-184.312
-186.395
-187.14
-187.849
-188.119
-188.122
-187.865
-187.152
-186.401
-184.319
-24.4525
-26.0841
-28.0674
-29.1162
-29.7467
-29.9308
-29.4829
-28.4476
-26.4906
-25.1752
-45.0488
-45.3261
-46.3709
-46.742
-47.2092
-47.2324
-46.7882
-46.5259
-45.5933
-45.4
-65.1629
-65.0463
-66.0688
-65.6607
-66.197
-66.2581
-65.8401
-66.2616
-65.2176
-65.3519
-88.0298
-85.2183
-86.2415
-84.7266
-84.9243
-84.9384
-84.7361
-86.3178
-85.3011
-88.1361
-113.887
-104.193
-103.763
-102.312
-101.964
-101.997
-102.395
-103.864
-104.284
-114.012
1110.61
1110.52
1110.86
1110.95
1110.91
1111.11
1111.42
1111.47
1111.59
1111.52
1090.97
1090.84
1090.4
1090.64
1090.71
1091.22
1091.67
1092.23
1092.18
1091.99
1073.03
1073.78
1071.89
1072.3
1072.31
1072.46
1072.35
1072.11
1071.98
1072.12
1058.04
1058.26
1057.82
1055.35
1053.94
1054.27
1053.17
1053.43
1053.18
1053.05
1039.8
1040.2
1041.94
1042.36
1038.16
1035.41
1034.62
1034.39
1034.15
1034
1019.19
1018.74
1018.55
1017.22
1016.69
1016.05
1014.9
1014.6
1014.42
1014.31
999.61
998.686
998.801
997.948
997.498
996.568
996.145
995.706
995.415
995.004
979.606
979.55
978.882
978.052
977.505
977.035
976.442
976.317
976.168
976.009
959.718
959.292
958.958
958.758
958.473
958.138
957.901
957.605
957.301
957.046
939.819
939.179
938.748
938.566
938.558
938.525
938.441
938.348
938.296
938.267
923.065
920.207
920.982
921.13
921.159
920.264
919.427
919.46
919.467
919.728
901.939
900.91
901.593
902.092
902.277
900.573
900.372
900.289
901.201
901.638
882.243
881.654
881.484
882.553
881.896
882.324
882.026
882.412
881.782
882.732
865.044
864.549
864.069
863.696
863.158
862.508
861.908
861.555
861.417
861.414
847.811
847.086
845.791
844.682
843.722
842.771
841.945
841.294
840.708
840.509
832.169
829.873
826.211
823.061
821.855
820.953
820.183
819.482
818.895
818.639
812.867
810.876
806.951
801.825
799.547
798.485
797.639
796.721
795.87
795.203
786.382
784.72
779.752
776.328
773.081
770.953
770.199
769.958
769.892
769.484
754.463
750.231
745.162
741.543
740.547
742.837
742.87
742.122
741.986
742.012
717.012
709.994
706.655
707.858
711.441
717.006
717.475
719.296
719.648
717.712
704.195
698.672
690.172
688.065
689.935
695.287
698.616
699.025
697.934
692.818
707.229
699.027
691.77
689.373
690.219
692.03
693.309
692.72
688.539
685.207
718.41
715.039
708.145
701.113
696.186
691.952
688.318
684.242
680.785
678.465
717.303
712.319
704.773
696.558
689.399
683.722
678.75
674.254
671.301
671.664
709.81
704.421
696.271
684.494
672.164
664.179
659.854
654.485
653.546
656.032
697.106
687.117
678.059
667.592
657.182
649.401
645.085
655.761
649.691
640.287
665.586
671.374
656.9
649.108
643.29
639.802
640.151
641.409
637.885
617.646
639.857
641.779
639.102
627.585
623.681
624.372
624.76
623.057
618.665
598.464
610.871
612.426
611.808
609.366
605.554
600.039
602.775
598.005
606.538
578.734
579.452
582.095
583.569
584.672
582.477
576.039
579.538
571.538
591.733
549.919
548.884
551.956
553.666
552.231
550.428
546.314
545.334
537.729
531.854
521.226
521.759
521.45
520.828
518.305
514.144
505.742
494.307
481.058
464.815
461.53
493.582
490.875
488.35
483.908
476.291
464.838
449.861
433.872
423.276
424.131
463.782
464.869
466.878
463.883
452.249
437.409
417.97
405.791
407.82
416.78
422.833
426.175
435.237
439.929
434.138
423.458
408.167
407.05
414.192
421.258
384.346
391.303
416.788
417.12
411.757
420.562
415.369
415.166
423.696
426.961
371.575
382.316
395.907
403.382
401.183
405.733
419.377
419.008
425.714
431.444
362.697
372.96
383.207
394.802
402.653
402.515
406.023
418.711
426.048
428.296
351.743
362.919
375.548
389.5
399.138
404.075
405.272
404.751
416.647
421.62
357.912
367.433
379.494
389.339
396.763
402.416
406.25
404.747
402.593
406.182
376.021
383.468
390.459
396.812
400.086
400.768
400.394
403.236
399.778
399.752
374.66
380.937
396.508
400.602
402.512
402.051
401.404
399.935
398.301
400.769
365.041
375.408
384.791
391.446
394.349
395.565
396.234
396.702
396.89
396.839
352.18
359.772
366.809
372.806
377.561
381.162
382.828
381.246
379.916
379.523
330.025
337.065
343.662
349.471
355.257
360.341
362.583
360.843
362.395
367.017
301.922
310.425
317.176
324.148
333.075
341.615
347.133
350.932
361.185
366.797
272.671
283.537
294.779
303.638
313.61
324.669
336.236
348.903
360.101
364.101
264.069
266.346
276.93
284.209
297.207
305.169
316.49
332.864
355.099
360.441
242.343
251.046
259.094
265.589
273.415
284.965
295.916
305.238
325.593
324.032
221.678
226.435
230.991
235.611
240.921
251.848
259.028
264.182
267.99
263.992
195.681
205.422
213.825
221.888
218.557
211.49
204.975
194.652
193.248
192.296
170.077
179.467
185.399
194.175
191.306
178.127
153.046
131.974
118.499
116.353
148.614
155.123
164.382
172.411
163.487
139.432
113.556
103.903
92.5017
79.5442
129.191
127.815
145.396
145.377
142.099
127.445
116.363
111.397
104.029
92.2721
116.488
116.194
124.67
122.217
104.209
110.513
119.336
126.99
127.291
125.192
104.01
104.23
98.2779
100.061
98.2841
93.0038
116.151
145.702
160.485
164.043
94.7052
95.5994
94.2678
90.3679
85.2129
84.4291
100.434
151.13
179.677
193.423
87.709
91.6899
95.2191
98.1661
100.589
114.126
103.363
128.321
165.022
177.202
79.932
88.7794
99.1349
106.814
114.622
128.142
123.71
119.937
117.078
135.817
81.9459
84.6182
99.9245
114.767
128.892
118.622
88.4527
72.9813
66.9609
76.1438
79.1019
75.8978
82.7869
97.0538
112.494
74.5215
36.2239
26.7675
23.7396
30.3815
74.7455
70.3902
71.3451
70.1219
68.3669
48.0512
25.5082
21.6841
16.3203
20.1558
66.22
63.7793
66.9853
63.4428
66.1372
44.4436
31.9063
34.4105
31.5238
35.5796
49.7418
47.9477
48.0961
54.6919
50.711
36.2796
26.4045
32.672
25.697
26.8809
31.2264
33.4137
45.2167
55.0059
56.1542
26.2432
12.8469
13.4308
10.6038
7.90141
28.832
31.7265
32.9831
39.0053
43.9224
41.4984
2.63069
-2.27387
1.86566
0.953735
15.2729
16.0541
13.9436
12.2552
36.9168
34.6212
13.8465
-5.57647
3.51584
-0.101961
6.65122
6.88445
6.6105
4.78079
26.9967
29.1094
2.17283
-3.64508
-1.73104
-1.29039
1.11948
0.164452
0.827592
0.518321
24.0318
24.7287
-2.27409
-2.71046
-1.56619
-1.39788
-1.73299
-1.37005
-3.96646
-3.04986
23.0219
24.0391
-2.24715
-1.3697
-1.37543
-1.39776
-1.18255
-1.18624
-1.90004
-2.34015
23.0402
24.6345
-1.89866
-1.32484
-1.3996
-1.42173
-1.21141
-1.19339
-1.13234
-1.07277
22.3999
27.269
-1.60889
-1.43853
-1.46476
-1.46242
-1.23924
-1.23141
-0.826129
0.127653
21.2868
30.269
-1.50409
-1.48601
-1.48481
-1.48137
-1.25638
-1.24765
-1.20708
-0.207481
20.1086
31.1465
-1.52318
-1.50339
-1.50397
-1.49519
-1.2708
-1.26168
-1.22991
-1.3072
19.9898
30.5859
-1.54477
-1.51814
-1.51909
-1.51172
-1.31212
-1.31405
-1.29403
-1.56276
23.6707
26.4288
-1.54475
-1.52228
-1.52853
-1.52567
-1.36159
-1.37466
-1.38075
-1.47583
30.0467
18.3732
-1.4938
-1.51183
-1.53294
-1.53627
-1.39794
-1.40859
-1.42495
-1.46478
26.8355
21.9682
-1.52738
-1.53093
-1.55298
-1.55634
-1.41105
-1.40997
-1.42126
-1.72808
19.5471
29.2353
-1.58411
-1.5604
-1.57046
-1.57652
-1.41405
-1.41094
-1.40432
-1.43044
21.2291
26.6453
-1.60108
-1.58133
-1.58543
-1.59594
-1.38435
-1.45682
-1.38327
-0.810676
23.3175
23.6728
-1.61395
-1.60367
-1.60646
-1.61571
-1.23838
-1.27221
-1.10226
-1.21068
23.5462
24.104
-1.64777
-1.61861
-1.62025
-1.63176
-1.36586
-1.03223
-1.11798
-1.62134
27.0834
18.2572
-1.64096
-1.62514
-1.62735
-1.64186
-1.55027
-1.44652
-1.3276
-1.48775
25.2948
18.1754
-1.65992
-1.64567
-1.64978
-1.65506
-1.61553
-1.63885
-1.5118
-1.55181
23.2936
18.0696
-1.67724
-1.6616
-1.67717
-1.67905
-1.60435
-1.58438
-1.60113
-1.64296
19.9606
19.0895
-1.71104
-1.67544
-1.69845
-1.69936
-1.62192
-1.60514
-1.58715
-1.62144
13.2664
22.6528
-1.78226
-1.72979
-1.72244
-1.72904
-1.64306
-1.64641
-1.60614
-1.64009
14.1479
20.6893
-1.80895
-1.75686
-1.74815
-1.75007
-1.68032
-1.67139
-1.66225
-1.71182
17.6756
11.5886
-1.79845
-1.75901
-1.7595
-1.76448
-1.71559
-1.70781
-1.71856
-1.7701
14.7876
10.025
-1.8182
-1.77587
-1.77599
-1.78321
-1.74545
-1.74367
-1.75058
-1.83498
9.31304
10.0046
-1.90327
-1.80704
-1.80209
-1.80314
-1.7696
-1.76975
-1.76071
-2.01765
7.15367
7.02677
-2.04216
-1.81471
-1.82611
-1.82219
-1.78742
-1.77784
-1.78063
-2.13877
4.83353
4.72541
-2.13395
-1.85189
-1.84191
-1.84186
-1.81104
-1.79915
-1.8648
-1.85914
2.44662
2.82761
-1.96873
-1.92573
-1.85811
-1.85853
-1.82973
-1.82836
-1.98842
-1.91942
1.5619
1.02881
-1.53485
-2.03514
-1.87614
-1.87514
-1.85191
-1.85353
-2.10769
-0.902136
-0.00499316
0.0257144
-1.59529
-2.38194
-1.89578
-1.89281
-1.87042
-1.8584
-3.23823
-1.2427
-0.292063
-0.592859
-1.98496
-3.38253
-1.89895
-1.90613
-1.89178
-2.24516
-5.06011
-3.16772
-1.77703
-1.30639
-1.74295
-3.90049
-2.45729
-1.91934
-1.91976
-3.80252
-5.28863
-5.55115
-5.65215
-5.74241
-5.89801
-5.85858
-4.2096
-1.93827
-2.70902
-9.40164
-12.8485
-14.8869
-15.7537
-15.6624
-14.7789
-12.8733
-9.6504
-2.75163
1111.2
1111.12
1111.08
1111
1110.89
1110.7
1110.41
1110.02
1109.7
1109.01
1108.1
1106.87
1105.56
1104.4
1103.69
1102.25
1100.29
1098.74
1096.08
1093.29
1093.02
1092.16
1091.55
1091.29
1091.64
1092.49
1093.5
1094.44
1095.39
1096.25
1096.99
1098.35
1099.21
1100.22
1101.24
1101.96
1103.69
1104.25
1104.81
1104.89
1091.86
1091.71
1091.52
1091.49
1091.45
1091.33
1091.13
1090.76
1090.38
1089.6
1088.65
1087.27
1085.69
1083.75
1081.61
1079.94
1079.3
1077.9
1076.05
1072.58
1072.05
1071.03
1070.25
1069.5
1069.8
1070.75
1072.23
1073.41
1074.4
1075.44
1076.34
1077.36
1079.68
1081.23
1081.47
1083.25
1084.31
1085.2
1085.76
1086.13
1072.41
1072.54
1072.5
1072.41
1072.2
1072.14
1071.76
1071.35
1070.83
1069.9
1068.81
1067.61
1066.32
1067.1
1066.54
1063.67
1059.01
1058.61
1055.83
1054.4
1049.79
1050.51
1049.64
1049.07
1048.42
1048.6
1049.65
1050.95
1052.07
1053.17
1054.39
1055.79
1057.43
1059.17
1061.12
1062.98
1064.43
1065.5
1066.1
1066.37
1053.48
1053.66
1053.6
1053.43
1053.12
1052.87
1052.28
1051.79
1050.81
1049.97
1048.63
1047.64
1046.54
1046.06
1047.25
1045.59
1043.15
1039.8
1039.29
1034.28
1032.22
1031.2
1030.72
1029.65
1026.32
1025.19
1026.2
1027.94
1029.12
1030.3
1031.6
1033.27
1035.25
1037.47
1039.93
1042.19
1044.08
1045.53
1046.34
1046.86
1034.06
1034.16
1034.13
1033.93
1033.66
1033.27
1032.74
1031.91
1030.88
1029.61
1028.42
1027.44
1026.62
1026.19
1025.95
1024.92
1023.02
1020.67
1018.84
1017.31
1015.46
1014.24
1013.45
1011.82
1009.45
1007.43
1005.4
1006.58
1007.38
1007.63
1008.25
1009.89
1012.11
1014.81
1017.65
1020.3
1022.8
1024.94
1027.02
1028.63
1014.2
1014.17
1014.11
1013.9
1013.81
1013.43
1012.83
1012.08
1010.97
1009.64
1008.32
1007.21
1006.23
1005.65
1005.47
1005.29
1004.52
1003.48
1001.91
1001.08
999.777
998.477
996.99
995.043
992.52
990.166
986.945
986.762
985.862
983.847
985.773
985.563
986.899
990.274
993.838
997.152
1000.28
1003.12
1005.8
1008.24
994.703
994.509
994.278
994.269
993.972
993.757
993.177
992.473
991.426
990.028
988.551
987.27
986.167
985.443
985.241
985.259
985.315
985.257
984.901
984.623
983.715
982.333
980.131
977.639
974.937
971.103
966.152
965.027
961.777
959.386
958.598
958.313
959.916
963.383
968.456
973.406
977.754
981.825
985.101
986.831
975.787
975.692
975.186
975.014
974.771
974.523
974.089
973.447
972.486
971.243
969.771
968.213
966.727
965.532
964.932
965.147
965.863
966.576
966.866
966.354
968.313
967.422
962.553
959.483
954.533
949.507
945.628
939.885
937.389
934.218
932.151
932.315
935.199
940.187
947.15
955.852
961.995
966.943
970.589
972.973
956.776
956.334
955.789
956.025
956.058
956.068
955.759
955.188
954.403
953.376
951.993
950.115
948.041
945.972
944.486
945.111
946.506
947.854
948.981
949.683
949.348
947.663
945.156
940.755
936.175
929.227
923.307
917.459
913.306
911.46
911.035
912.487
919.607
924.902
934.985
943.817
952.617
959.902
962.686
966.19
938.226
937.954
938.684
939.093
938.945
938.12
938.101
937.585
937.072
936.268
935.023
932.704
930
927.204
922.441
922.005
923.794
925.481
926.881
928.637
929.217
928.828
925.577
921.038
915.593
910.223
904.914
900.536
897.599
897.786
899.585
901.982
907.9
917.417
927.503
936.463
944.337
954.424
957.457
960.769
920.295
920.86
921.689
921.697
921.356
920.646
920.883
921.199
920.934
919.877
918.869
917.144
912.732
907.982
903.023
899.791
899.587
899.999
899.609
901.313
902.994
901.951
898.951
896.573
895.147
892.731
889.89
886.728
885.738
885.64
887.843
892.313
899.817
909.208
918.085
927.196
934.435
943.848
946.876
950.127
902.187
903.052
904.592
903.635
902.563
902.227
902.215
902.777
903.468
903.545
904.03
902.621
900.61
896.936
891.082
892.514
892.049
887.984
883.768
876.384
869.217
865.827
866.714
870.026
874.853
875.265
873.187
870.787
869.823
869.879
872.29
878.861
888.292
897.15
903.509
910.933
916.3
922.986
925.073
928.325
883.284
883.498
883.389
883.621
883.43
883.632
884.552
885.815
886.963
887.571
889.278
889.903
886.601
881.641
884.682
883.831
879.507
875.489
870.431
864.598
860.622
859.158
865.311
870.509
871.464
876.982
883.477
881.421
877.375
876.205
879.36
884.422
880.373
878.803
885.919
888.673
893.123
896.692
898.714
902.061
861.444
861.699
861.85
861.429
863.055
864.409
867.033
869.345
871.115
877.7
878.619
877.898
882.948
884.912
876.994
869.435
873.438
859.552
857.575
855.188
853.644
856.667
849.454
851.393
855.939
857.625
855.624
852.144
849.72
848.673
850.503
851.48
851.217
855.071
859.693
863.99
869.007
872.186
874.935
876.529
840.514
840.281
839.743
841.705
843.056
845.866
849.319
855.56
860.365
861.902
865.673
871.015
864.502
858.329
856.107
855.582
852.726
845.669
841.226
839.202
838.362
837.679
838.641
840.178
840.714
839.965
838.256
836.423
835.069
833.863
835.885
834.748
834.826
834.93
838.497
843.641
847.504
850.793
853.545
858.354
818.743
819.396
820.66
825.29
828.491
832.356
835.263
838.596
841.979
845.695
850.879
846.961
843.322
839.486
836.337
833.925
828.735
824.056
822.597
821.06
819.185
818.896
823.031
824.844
824.271
822.351
819.36
815.793
812.796
812.902
814.296
816.369
816.873
819.716
822.288
825.997
830.532
833.499
836.409
840.53
794.811
795.027
795.857
798.068
800.891
804.304
810.612
816.659
822.974
824.214
826.181
820.528
818.377
815.508
812.447
812.386
811.113
808.376
810.1
803.837
803.621
803.708
805.257
806.371
805.406
804.769
802.804
800.959
803.15
804.406
805.901
807.123
808.538
811.09
814.056
816.177
814.823
818.074
820.691
822.239
768.88
768.346
768.372
769.464
772.767
778.435
786.422
791.027
793.77
795.636
794.762
794.268
793.437
792.65
791.855
791.157
793.339
789.84
789.416
785.492
785.344
786.297
787.577
788.756
787.785
787.657
787.472
788.775
791.038
793.441
796.234
798.568
800.867
802.671
804.244
804.959
800.534
802.062
803.963
803.853
740.94
738.916
736.605
734.573
736.854
744.714
752.141
756.818
758.409
760.888
761.848
763.051
764.015
764.96
765.605
766.451
771.415
770.157
771.691
767.091
768.485
768.756
770.056
770.576
768.821
769.166
770.574
772.811
773.93
782.529
781.037
785.481
787.755
788.324
788.278
787.686
786.16
785.868
786.585
786.174
712.584
708.189
704.086
699.235
707.989
708.827
723.921
726.558
719.718
729.09
719.435
727.148
732.748
736.633
739.033
740.521
740.754
742.622
741.77
742.61
743.17
742.584
748.895
746.611
745.677
748.758
751.374
753.831
759.708
764.293
763.67
764.675
767.648
769.389
769.742
769.385
768.277
767.597
766.925
766.665
687.412
690.72
691.936
692.519
693.942
693.629
701.068
700.244
701.357
706.309
706.571
703.485
709.823
712.739
714.321
715.975
716.77
716.626
716.725
717.361
717.083
718.202
719.046
721.172
724.044
727.003
730.21
733.31
736.811
739.778
742.109
745.802
749.297
751.74
756.576
760.822
760.402
760.723
758.17
758.732
690.717
689.862
689.731
690.417
691.189
692.203
693.791
694.154
691.092
687.67
685.829
690.363
694.094
693.342
694.566
695.789
695.927
695.968
696.532
697.343
700.419
697.856
696.925
699.148
702.39
706.247
709.966
712.951
715.493
717.824
720.441
724.014
727.169
729.768
731.889
733.618
734.657
734.156
734.691
741.184
683.521
689.408
690.106
691.4
692.756
693.169
692.025
685.863
679.186
675.196
676.682
675.702
678.258
677.455
679.264
679.479
679.793
682.581
682.583
682.795
682.996
682.734
679.644
681.431
683.917
686.436
689.068
691.727
693.833
695.466
696.951
699.329
702.741
706.386
709.441
711.589
712.694
713.651
714.58
714.812
673.422
675.919
679.29
683.044
684.319
683.604
680.173
674.742
668.871
664.646
662.661
661.373
661.048
661.335
661.446
661.491
662.63
667.149
667.111
666.076
663.989
664.364
664.326
664.597
665.768
667.517
670.51
672.432
673.293
675.019
675.253
674.755
678.754
682.721
686.32
689.044
690.936
692.453
693.042
693.485
659.282
659.521
658.736
658.48
658.676
657.639
654.719
650.77
646.208
643.091
642.498
642.612
642.657
642.291
642.81
643.212
643.601
644.422
644.678
644.868
645.521
644.349
643.721
643.594
649.819
652.671
651.255
655.273
654.408
660.421
659.559
654.865
658.461
662.35
665.295
666.939
668.275
669.432
669.869
672.236
639.599
637.371
634.519
632.21
629.972
626.866
622.232
616.588
614.208
616.548
618.273
618.615
619.253
619.015
620.841
619.901
621.609
623.31
623.864
624.217
623.213
622.991
625.337
629.035
630.985
629.423
632.871
635.439
635.072
637.434
640.506
639.883
640
643.207
645.33
645.602
646.038
647.022
647.346
648.303
616.064
612.15
608.022
604.56
600.848
595.13
587.402
584.78
594.925
593.344
592.666
594.103
594.719
595.394
595.582
594.853
594.93
597.462
599.221
599.658
604.958
605.164
605.035
605.646
605.303
609.402
612.425
614.389
616.653
617.646
615.717
624.884
622.977
624.801
628.807
625.446
624.415
625.278
625.384
628.876
594.296
588.214
583.081
578.16
573.611
569.052
564.718
567.968
570.789
572.819
572.387
570.589
571.652
572.968
573.098
572.784
573.625
576.223
581.216
583.349
587.367
588.054
588.307
588.044
589.551
591.871
592.434
595.161
598.538
598.914
598.267
602.998
605.453
603.529
606.49
606.615
608.58
609.364
609.57
609.768
569.678
560.204
553.005
548.04
544.295
541.111
541.395
544.122
551.243
557.032
558.117
559.354
560.782
562.577
565.014
567.618
568.578
565.488
567.546
575.432
571.18
574.073
574.897
573.685
574.856
578.238
575.579
583.209
585.551
580.276
588.072
588.709
590.441
590.825
590.868
591.983
592.956
593.533
593.669
592.858
534.609
524.485
515.248
512.551
507.368
510.955
512.328
514.982
526.608
533.964
536.798
538.387
538.818
540.508
543.103
545.317
547.127
548.564
551.696
554.674
556.253
559.471
566.586
554.246
559.197
559.429
560.586
562.486
561.472
563.779
567.347
571.175
574.694
575.387
575.85
576.498
576.832
577.107
577.44
577.35
476.116
474.852
466.91
462.363
469.712
468.23
475.751
481.313
489.073
506.137
513.379
513.326
513.524
517.95
524.829
526.948
528.944
530.52
533.238
535.647
536.455
540.227
560.226
539.042
539.816
539.12
541.503
540.583
537.958
540.747
544.588
550.07
554.502
557.819
560.308
560.942
561.035
561.206
561.278
561.586
440.673
433.332
430.455
426.473
429.837
431.104
436.865
442.109
457.08
473.958
485.88
493.898
498.466
500.092
502.254
507.518
510.934
512.889
514.564
516.687
517.886
517.311
526.078
513.65
517.461
519.22
522.015
522.214
520.675
521.457
521.908
530.324
534.326
538.287
542.322
544.289
544.929
544.854
544.618
544.84
423.394
418.667
418.322
419.873
418.272
413.518
415.579
428.428
443.076
457.203
468.172
476.321
480.979
488.785
489.633
491.476
496.143
495.759
494.826
493.526
497.39
497.285
492.536
495.61
498.491
500.847
503.752
507.297
508.698
509.405
508.585
509.588
514.572
519.641
523.947
527.399
527.801
527.187
527.007
527.127
421.761
421.088
420.937
421.718
422.687
423.958
422.839
426.656
437.14
448.07
456.907
463.784
467.686
479.381
475.174
478.856
485.24
479.368
479.943
480.639
480.985
476.529
475.501
477.856
479.806
481.748
483.827
485.763
490.076
490.498
490.178
493.635
496.456
499.312
503.203
507.004
509.044
509.721
509.263
509.823
425.69
427.436
426.978
426.963
427.614
428.573
428.07
428.946
436.635
442.886
448.373
453.11
458.1
462.521
466.604
464.397
466.403
467.215
467.841
466.997
464.652
461.309
459.787
461.429
462.261
463.53
465.045
466.739
469.089
471.105
473.703
476.201
479.547
482.483
484.879
488.129
490.24
492.44
492.78
493.405
429.607
431.722
432.272
431.76
431.381
431.39
429.985
429.775
434.378
437.902
440.755
443.435
452.031
453.497
456.811
454.593
456.034
455.681
455.182
453.564
451.146
447.944
445.956
445.494
444.999
445.182
446.118
447.856
450.108
452.667
455.405
458.223
461.806
464.779
467.434
470.141
472.636
474.807
477.472
478.525
433.244
433.971
434.152
433.84
432.812
432.108
427.8
430.27
429.968
430.197
431.998
433.857
445.403
443.789
446.751
444.612
445.804
444.485
442.87
440.678
437.186
433.047
430.149
427.745
425.578
424.182
423.879
425.261
427.613
431.099
435.149
439.31
443.281
446.856
450.179
453.002
455.06
456.87
460.712
465.501
430.361
434.129
435.8
434.398
431.364
425.347
426.937
425.194
420.834
417.811
422.89
426.07
436.566
433.738
435.365
430.24
431.468
434.197
430.325
425.457
420.344
416.673
412.338
408.641
406.699
407.433
407.308
405.389
405.226
408.524
414.592
420.81
426.192
430.65
434.371
436.97
438.312
439.639
440.891
441.797
421.852
422.46
423.105
419.147
416.156
423.176
419.714
418.535
420.953
416.758
413.505
418.153
421.758
424.069
421.711
417.796
414.809
412.568
410.395
407.2
403.77
398.247
395.252
397.602
398.28
398.65
399.538
400.586
401.361
398.32
401.298
407.516
412.813
416.95
420.027
421.887
423.007
423.924
425.24
425.788
408.596
412.431
417.088
419.032
416.373
413.364
413.336
412.522
411.404
410.714
408.088
409.047
410.249
408.81
405.334
400.66
399.586
397.882
395.742
393.304
390.673
387.124
389.904
391.632
392.86
394.607
395.693
396.182
396.758
395.111
394.281
398.347
401.922
404.775
406.538
407.628
412.695
409.228
410.621
411.367
402.398
408.801
411.24
410.998
413.775
413.895
410.903
407.988
405.305
403.473
397.532
401.841
397.602
393.086
399.907
390.678
384.338
384.011
383.52
383.154
382.713
382.064
384.303
387.986
389.072
390.562
391.609
392.068
392.506
390.747
389.763
391.648
393.39
395.127
396.654
400.72
400.313
397.331
397.981
398.743
402.668
405.382
405.787
405.138
403.897
404.845
404.498
401.869
396.575
390.962
388.096
387.79
383.461
380.391
382.451
381.259
376.213
375.619
375.916
375.929
376.096
377.023
378.984
382.625
385.322
387.433
387.673
387.275
385.964
383.457
384.482
384.577
385.144
386.53
387.407
388.136
386.438
385.726
385.887
386.655
396.716
396.836
395.635
392.718
389.154
385.728
382.95
379.315
375.613
375.286
373.269
368.695
369.107
369.83
369.908
370.148
367.286
366.992
367.455
368.021
369.334
371.239
371.262
371.467
374.235
382.492
380.197
374.78
374.807
374.804
374.054
373.587
374.368
374.636
374.761
374.93
373.908
373.602
373.635
373.907
380.569
381.163
379.709
377.252
374.966
372.716
369.503
365.445
361.785
359.104
356.207
353.844
357.367
355.828
355.667
358.119
354.974
354.05
354.447
354.909
355.693
354.694
353.816
354.618
356.452
357.049
358.619
360.239
361.079
361.541
360.971
360.928
361.987
361.641
361.472
361.537
361.309
361.131
360.621
360.476
369.55
371.039
369.227
366.594
364.133
361.009
357.626
353.97
350.238
347.016
344.231
341.526
340.628
340.468
334.184
339.463
336.754
334.054
334.416
332.949
331.698
330.359
328.57
329.266
334.19
338.048
341.251
344.024
346.465
347.591
345.574
348.545
348.799
348.12
348.386
348.502
348.149
347.977
347.149
347.216
370.176
370.138
368.332
365.199
359.313
351.791
348.985
344.256
338.817
334.367
330.795
327.246
322.978
321.728
318.891
316.78
314.795
313.598
315.908
313.433
315.731
323.005
320.192
312.068
311.395
315.445
324.397
328.1
329.868
330.886
334.193
332.021
334.147
334.716
334.721
334.812
334.615
333.717
333.688
333.352
363.646
361.855
356.791
352.133
349.128
345.806
341.275
335.743
326.081
321.08
315.615
309.988
307.901
306.702
304.962
303.064
301.52
298.669
297.585
297.005
296.984
300.469
307.986
308.639
308.578
309.929
325.032
319.568
322.126
323.292
320.584
321.307
321.205
320.915
321.039
321.308
321.051
319.615
320.4
320.075
349.543
343.368
339.425
334.941
328.949
322.552
316.382
311.984
306.425
300.574
300.801
299.25
296.245
293.113
289.907
286.817
284.953
283.938
283.106
284.958
289.164
293.839
298.526
301.135
307.837
306.656
320.568
309.304
312.282
312.254
310.201
309.63
308.323
306.099
306.501
306.213
305.506
305.284
305.887
305.364
323.928
318.315
311.537
304.741
298.909
292.466
287.894
284.497
281.299
277.809
276.909
281.153
276.912
275.753
274.869
273.378
272.854
273.293
273.501
272.852
277.181
281.723
285.426
287.967
305.978
297.353
314.473
299.997
301.454
301.766
298.959
299.404
296.781
293.925
294.237
295.192
293.366
290.835
290.138
289.897
263.243
262.247
261.663
263.987
265.766
259.731
255.488
251.67
251.594
253.009
252.324
252.849
254.369
255.714
256.462
255.46
260.711
261.497
256.672
257.501
262.032
266.108
269.992
275.771
292.437
281.606
288.29
287.894
286.637
288.499
287.698
282.537
277.487
277.103
276.219
275.361
275.512
274.907
273.827
273.109
193.883
195.177
196.049
199.925
201.722
206.52
207.065
209.992
219.217
223.379
225.484
226.406
227.618
229.246
229.414
229.185
229.806
230.821
232.421
235.294
240.612
245.473
247.058
263.113
264.532
267.048
264.861
266.783
262.285
263.111
259.649
252.824
254.204
247.965
249.375
249.621
250.064
250.033
250.373
250.713
116.47
110.909
110.975
117.255
128.51
142.4
158.152
178.486
188.778
189.499
195.462
199.672
199.934
201.697
201.94
201.508
202.329
202.611
204.822
209.785
217.217
221.043
227.505
244.217
231.269
239.886
233.544
239.773
234.346
230.991
228.221
218.772
221.13
205.95
205.268
209.21
215.154
221.412
225.43
227.862
63.9847
44.7693
40.4116
50.78
67.0338
90.3762
119.252
146.804
164.88
173.637
173.032
174.32
174.774
173.395
174.434
171.644
170.987
170.025
172.065
180.654
187.15
193.817
204.164
206.183
209.288
216.379
208.652
213.296
210.81
205.217
202.507
194.301
189.177
183.72
187.71
191.061
193.026
202.165
208.196
210.188
75.7393
65.9002
58.4897
63.1036
78.2447
98.9554
123.092
141.548
153.342
157.089
155.684
153.464
150.62
148.039
145.767
142.659
139.834
140.784
146.016
157.532
167.364
173.944
180.117
182.563
185.587
197.976
191.537
194.957
193.725
190.575
189.874
187.899
186.195
184.866
180.937
203.823
193.038
195.19
200.333
201.622
119.892
119.205
117.473
118.687
124.7
132.337
139.476
144.776
147.472
145.981
140.465
135.324
131.207
129.369
128.132
125.487
126.797
134.789
140.646
146.773
153.194
158.89
163.227
168.525
172.352
175.269
180.662
181.717
182.163
183.397
184.422
183.983
183.011
181.913
179.995
202.515
191.201
190.934
194.309
195.6
160.859
154.076
147.07
142.987
140.734
140.281
138.863
135.817
128.59
121.33
117.254
115.492
114.537
115.362
116.545
118.86
127.563
133.704
138.194
142.943
147.814
152.64
155.57
155.923
160.193
163.948
165.441
168.512
171.245
173.602
175.256
176.13
173.631
177.344
179.935
183.425
182.602
183.985
188.067
189.805
185.233
172.837
161.122
150.526
140.927
133.414
126.273
117.396
112.762
114.385
112.384
106.386
104.681
106.2
109.303
113.786
122.461
132.504
137.17
141.406
145.414
148.819
151.655
146.212
148.496
151.804
153.694
156.173
158.203
161.195
164.265
175.104
175.823
176.132
177.066
178.003
177.38
177.828
180.72
182.29
159.709
156.461
149.94
142.083
133.686
125.682
117.59
109.421
110.859
108.191
106.331
104.899
103.204
104.075
107.127
110.961
115.797
120.268
126.592
134.155
136.697
135.844
137.724
138.176
141.666
142.305
141.222
140.87
141.996
145.542
149.654
154.828
162.73
171.008
170.465
168.776
169.61
170.449
171.922
173.017
121.444
124.41
126.473
124.463
119.207
114.487
109.233
103.732
102.363
102.731
101.462
100.204
99.4296
99.4664
103.721
107.943
111.407
113.978
112.932
115.445
117.622
121.951
127.577
129.347
128.464
130.715
129.264
129.531
130.933
133.435
138.558
145.277
150.883
154.563
168.113
162.266
159.57
158.976
159.237
160.227
72.2485
81.4193
95.148
100.914
100.234
99.9073
98.6834
96.5975
94.2473
97.2516
98.2798
97.2925
97.2721
97.9008
96.9171
97.1209
96.8487
98.1399
101.591
104.699
106.391
108.151
107.818
109.793
112.443
114.364
116.302
117.424
119.718
123.835
127.287
132.97
137.729
144.151
154.435
147.115
144.784
141.469
139.445
140.118
44.0142
61.7446
74.1513
81.8231
82.1503
83.9626
85.9357
87.4513
88.8258
90.7024
91.2289
90.9737
94.457
95.2804
96.6284
98.1447
99.2948
98.6167
90.9052
94.5191
96.3062
92.1789
91.0889
88.6766
86.5508
93.3166
98.6352
101.803
104.866
108.88
114.591
121.06
126.773
132.446
136.827
136.056
129.984
122.935
120.419
122.507
35.3792
50.2955
58.2347
63.8523
66.039
69.1549
71.2959
74.3614
76.4323
79.0367
80.5637
81.0019
81.6976
83.0543
84.1247
85.6651
87.768
91.1622
93.7228
87.6495
85.0077
86.0595
86.3569
82.0596
79.0345
76.2661
80.7575
84.8308
88.4635
92.8092
97.7559
103.995
110.106
115.977
120.27
117.818
101.838
95.1058
94.228
96.4566
42.068
46.2667
48.7267
51.1092
53.4963
55.7389
57.663
59.6237
61.9946
63.7191
63.7311
64.8558
66.1996
68.1466
70.3848
72.4161
73.5205
73.3007
74.3139
76.8553
78.7777
82.9142
81.4618
78.3965
71.0909
66.6067