/*--------------------------------*- C++ -*----------------------------------*\
  =========                 |
  \\      /  F ield         | OpenFOAM: The Open Source CFD Toolbox
   \\    /   O peration     | Website:  https://openfoam.org
    \\  /    A nd           | Version:  8
     \\/     M anipulation  |
\*---------------------------------------------------------------------------*/
FoamFile
{
    version     2.0;
    format      ascii;
    class       surfaceScalarField;
    location    "9.35";
    object      alphaPhi0.water;
}
// * * * * * * * * * * * * * * * * * * * * * * * * * * * * * * * * * * * * * //

dimensions      [0 3 -1 0 0 0 0];

internalField   nonuniform List<scalar> 
18095
(
1.96398e-08
-1.71803e-07
1.52164e-07
2.33732e-08
-1.98001e-07
1.94268e-07
2.06956e-08
-2.05901e-07
2.0858e-07
1.29623e-08
-2.11415e-07
2.19149e-07
2.55586e-09
-2.13818e-07
2.24225e-07
-8.40182e-09
-2.13631e-07
2.24589e-07
-1.82274e-08
-2.10199e-07
2.20025e-07
-2.3102e-08
-2.05086e-07
2.09961e-07
-1.96522e-08
-1.98094e-07
1.94645e-07
-1.72054e-07
1.52402e-07
1.56442e-08
-1.87447e-07
1.59042e-08
-1.98261e-07
1.1942e-08
-2.01939e-07
5.4482e-09
-2.04922e-07
-1.70037e-09
-2.06669e-07
-8.27166e-09
-2.07059e-07
-1.3128e-08
-2.05343e-07
-1.57586e-08
-2.02455e-07
-1.5505e-08
-1.98348e-07
-1.87559e-07
6.87454e-09
-1.94321e-07
8.38739e-09
-1.99774e-07
7.47762e-09
-2.01029e-07
4.68532e-09
-2.02129e-07
7.16524e-10
-2.027e-07
-3.35468e-09
-2.02988e-07
-6.64427e-09
-2.02053e-07
-8.24557e-09
-2.00854e-07
-6.82614e-09
-1.99767e-07
-1.94385e-07
4.58155e-09
-1.98903e-07
4.74658e-09
-1.99939e-07
3.65544e-09
-1.99938e-07
1.99933e-09
-2.00473e-07
1.57201e-10
-2.00858e-07
-2.05666e-09
-2.00774e-07
-3.84685e-09
-2.00263e-07
-4.74171e-09
-1.99959e-07
-4.54378e-09
-1.99965e-07
-1.98929e-07
1.09672e-09
1.15756e-09
1.21964e-09
7.4676e-10
-1.1131e-10
-8.84985e-10
-1.14769e-09
-1.10633e-09
-1.07115e-09
-2.68467e-08
-1.96688e-07
2.23535e-07
-2.93379e-08
-1.98624e-07
2.01115e-07
-2.53003e-08
-2.00389e-07
1.96351e-07
-1.4861e-08
-2.00855e-07
1.90416e-07
-1.68078e-09
-2.01999e-07
1.88819e-07
1.26937e-08
-2.02082e-07
1.87707e-07
2.37956e-08
-2.01371e-07
1.90269e-07
2.88617e-08
-2.01878e-07
1.96811e-07
2.59296e-08
-1.99259e-07
2.02191e-07
-1.96867e-07
2.22797e-07
-9.86823e-09
-1.8682e-07
-1.52822e-08
-1.9321e-07
-1.28842e-08
-2.02787e-07
-5.78998e-09
-2.0795e-07
-4.42363e-10
-2.07346e-07
6.21173e-09
-2.08736e-07
1.41896e-08
-2.09348e-07
1.54571e-08
-2.03145e-07
9.80371e-09
-1.93606e-07
-1.87064e-07
-1.08435e-08
-1.75977e-07
-9.08417e-09
-1.94969e-07
-7.13878e-09
-2.04732e-07
-4.77705e-09
-2.10311e-07
1.46417e-09
-2.13587e-07
5.27464e-09
-2.12546e-07
6.48641e-09
-2.1056e-07
8.86017e-09
-2.05519e-07
1.08422e-08
-1.95588e-07
-1.76221e-07
-6.36641e-09
-1.6961e-07
-7.68614e-09
-1.93649e-07
-6.74645e-09
-2.05671e-07
-1.45056e-09
-2.15607e-07
1.98624e-09
-2.17024e-07
7.01888e-09
-2.17578e-07
1.11109e-08
-2.14652e-07
1.00488e-08
-2.04457e-07
7.20086e-09
-1.9274e-07
-1.6902e-07
-1.74462e-08
-1.68274e-08
-1.39185e-08
-1.03759e-08
-3.17461e-09
3.83599e-09
9.20923e-09
1.47128e-08
1.66182e-08
4.3292e-08
-1.53339e-07
1.10047e-07
4.69053e-08
-1.95762e-07
1.92149e-07
4.11909e-08
-2.10771e-07
2.16485e-07
2.83732e-08
-2.15024e-07
2.27841e-07
1.18872e-08
-2.18163e-07
2.34649e-07
-6.07344e-09
-2.18684e-07
2.36644e-07
-2.57701e-08
-2.17025e-07
2.36721e-07
-4.21187e-08
-2.12659e-07
2.29007e-07
-4.39074e-08
-1.99805e-07
2.01593e-07
-1.5878e-07
1.14873e-07
1.9281e-08
-1.7262e-07
2.37404e-08
-2.00222e-07
2.0014e-08
-2.07044e-07
1.30176e-08
-2.08028e-07
3.45002e-09
-2.08596e-07
-5.81617e-09
-2.09418e-07
-1.27983e-08
-2.10043e-07
-1.75324e-08
-2.07926e-07
-1.62779e-08
-2.0106e-07
-1.75057e-07
1.10104e-08
-1.8363e-07
1.10363e-08
-2.00248e-07
9.65292e-09
-2.05661e-07
5.42268e-09
-2.03797e-07
2.15937e-09
-2.05332e-07
-2.33142e-09
-2.04928e-07
-7.37931e-09
-2.04995e-07
-9.10865e-09
-2.06196e-07
-8.90715e-09
-2.01261e-07
-1.83964e-07
7.82403e-09
-1.91454e-07
6.83433e-09
-1.99258e-07
7.46663e-09
-2.06293e-07
3.41433e-09
-1.99745e-07
1.03883e-09
-2.02957e-07
-1.34491e-09
-2.02544e-07
-5.74975e-09
-2.0059e-07
-5.15593e-09
-2.0679e-07
-6.0367e-09
-2.00381e-07
-1.9e-07
3.20804e-08
3.39375e-08
2.39953e-08
1.46657e-08
5.27549e-10
-1.43087e-08
-2.46297e-08
-3.46078e-08
-3.27969e-08
-9.19859e-09
6.8463e-09
2.3556e-09
-1.33649e-08
4.15749e-09
-1.5632e-08
2.26671e-09
-1.41693e-08
-1.45473e-09
-9.66802e-09
-4.50132e-09
-1.93648e-09
-7.73065e-09
8.58506e-09
-1.05207e-08
2.00149e-08
-1.1429e-08
2.75171e-08
-7.50216e-09
-1.23996e-09
2.87604e-08
8.9537e-09
1.63552e-08
-1.84241e-08
1.76458e-09
1.13525e-08
-3.10225e-09
7.12555e-09
-2.7095e-09
-1.84862e-09
-2.26591e-09
-4.94406e-09
-2.56628e-09
-7.41649e-09
-8.67836e-10
-1.2144e-08
4.55227e-09
-1.68476e-08
1.31124e-08
-1.61382e-08
-1.03408e-08
2.22009e-08
3.87863e-08
1.63424e-08
-3.88112e-08
4.10113e-08
9.14447e-09
4.36612e-08
4.65977e-09
4.53174e-08
-3.50593e-09
4.62237e-08
-5.85345e-09
4.47203e-08
-6.13149e-09
4.09517e-08
-8.37791e-09
3.66835e-08
-1.22365e-08
3.59366e-08
-1.53798e-08
-1.5184e-08
4.06746e-08
7.02906e-08
1.06257e-08
-6.47701e-08
7.91974e-08
2.54833e-10
8.73576e-08
-2.94392e-09
8.80174e-08
-3.7956e-09
8.66942e-08
-5.28765e-09
8.83981e-08
-7.84076e-09
9.01688e-08
-1.01504e-08
9.10944e-08
-1.31638e-08
9.07877e-08
-1.50748e-08
-1.56717e-08
9.17642e-08
9.47514e-08
8.07517e-09
-9.22298e-08
9.51519e-08
-1.63076e-10
9.57209e-08
-3.46596e-09
9.61853e-08
-4.21208e-09
9.61677e-08
-5.26972e-09
9.76675e-08
-9.33979e-09
1.00486e-07
-1.36511e-08
1.04132e-07
-1.6813e-08
1.07025e-07
-1.74878e-08
-1.62262e-08
1.07664e-07
9.35756e-08
8.10511e-09
-9.36117e-08
9.17002e-08
1.7131e-09
9.02879e-08
-2.05291e-09
8.99487e-08
-3.87202e-09
9.17476e-08
-7.06831e-09
9.59636e-08
-1.3594e-08
1.00748e-07
-1.844e-08
1.03826e-07
-1.98975e-08
1.03911e-07
-1.83159e-08
-1.35411e-08
1.01141e-07
8.57885e-08
9.03486e-09
-8.67728e-08
8.24808e-08
5.01545e-09
7.86603e-08
1.76327e-09
7.73638e-08
-2.48912e-09
7.57736e-08
-5.50412e-09
7.41448e-08
-1.19671e-08
7.28059e-08
-1.71039e-08
6.87382e-08
-1.6202e-08
6.30944e-08
-1.291e-08
-1.03965e-08
5.99302e-08
7.3116e-08
1.03603e-08
-7.44957e-08
7.29205e-08
5.20552e-09
7.20763e-08
2.62147e-09
6.88103e-08
8.1589e-10
6.5957e-08
-2.81841e-09
6.06664e-08
-6.68789e-09
5.20716e-08
-8.56883e-09
4.50277e-08
-9.36567e-09
4.14276e-08
-9.32939e-09
-3.37822e-09
3.43887e-08
5.97362e-08
1.57532e-08
-6.51295e-08
5.51632e-08
9.77657e-09
5.13715e-08
6.3039e-09
4.78581e-08
4.21348e-09
4.4886e-08
1.27562e-10
3.91697e-08
-9.85182e-10
2.50349e-08
5.31099e-09
6.21833e-09
9.49491e-09
1.94934e-09
-5.10805e-09
-4.715e-09
3.26109e-09
3.22464e-08
2.09674e-08
-3.75418e-08
2.45861e-08
1.73897e-08
1.72151e-08
1.36523e-08
1.10715e-08
1.03882e-08
1.68711e-09
9.45296e-09
-1.27887e-08
1.34414e-08
-2.83005e-08
2.09853e-08
-4.04882e-08
2.13851e-08
-3.92237e-08
-7.06398e-09
-1.37994e-08
-3.01377e-08
-2.03576e-08
2.09349e-08
2.03568e-08
-2.19751e-08
1.90409e-08
-2.64257e-08
1.81152e-08
-3.28438e-08
1.68184e-08
-4.21154e-08
1.9361e-08
-5.09151e-08
2.22398e-08
-5.23874e-08
2.24517e-08
-4.6608e-08
1.52726e-08
-4.88957e-08
-5.73919e-09
-3.43697e-09
-5.92566e-08
-5.49211e-08
1.68074e-08
5.90518e-08
-5.67509e-08
2.08746e-08
-6.40019e-08
2.53716e-08
-7.10749e-08
2.52653e-08
-7.60768e-08
2.43617e-08
-7.71334e-08
2.32952e-08
-7.61976e-08
2.15145e-08
-7.63922e-08
1.48724e-08
-9.23262e-08
8.43457e-09
1.81193e-08
-1.1114e-07
-6.64985e-08
1.23852e-08
7.09226e-08
-6.74379e-08
2.1816e-08
-7.41321e-08
3.24242e-08
-8.27034e-08
3.55423e-08
-9.17254e-08
3.33824e-08
-9.62186e-08
2.77873e-08
-1.00083e-07
2.5377e-08
-1.07683e-07
2.06126e-08
-1.22137e-07
2.31082e-08
2.83331e-08
-1.28629e-07
-6.34666e-08
1.55935e-08
6.02602e-08
-6.70006e-08
2.53518e-08
-7.1907e-08
3.79879e-08
-7.8776e-08
4.42045e-08
-8.80462e-08
4.26515e-08
-9.73875e-08
3.71273e-08
-1.09193e-07
3.71806e-08
-1.22085e-07
3.10661e-08
-1.30845e-07
3.18603e-08
3.36546e-08
-1.30606e-07
-4.99781e-08
2.08486e-08
4.47067e-08
-5.50923e-08
3.04676e-08
-5.86803e-08
4.17651e-08
-6.13047e-08
4.90836e-08
-6.82728e-08
4.96184e-08
-7.67985e-08
4.56514e-08
-8.65268e-08
4.57812e-08
-9.93943e-08
4.35507e-08
-1.09505e-07
4.19605e-08
4.1283e-08
-1.17127e-07
-3.76136e-08
2.25385e-08
3.59177e-08
-3.89802e-08
3.18359e-08
-4.01867e-08
4.2973e-08
-4.32972e-08
5.28445e-08
-4.8569e-08
5.69553e-08
-5.78333e-08
5.49037e-08
-6.28363e-08
4.94819e-08
-6.87766e-08
4.94802e-08
-7.52263e-08
4.83992e-08
4.34059e-08
-7.73603e-08
-2.97166e-08
2.21093e-08
3.01396e-08
-2.63255e-08
2.8407e-08
-2.12075e-08
3.78562e-08
-1.64774e-08
4.81156e-08
-1.4892e-08
5.58692e-08
-1.83604e-08
5.98028e-08
-2.49061e-08
5.57508e-08
-3.03534e-08
5.43817e-08
-3.64552e-08
5.44898e-08
4.87831e-08
-4.18438e-08
-2.50198e-08
2.28917e-08
2.42371e-08
-2.1462e-08
2.48761e-08
-1.5568e-08
3.19402e-08
-8.70861e-09
4.12171e-08
-1.26748e-09
4.84037e-08
3.36016e-09
5.51985e-08
2.21982e-09
5.76218e-08
-1.45707e-10
5.7139e-08
-3.68398e-09
5.79673e-08
5.55599e-08
-1.04899e-08
-2.63962e-08
2.32925e-08
2.59953e-08
-2.25369e-08
2.10561e-08
-1.71979e-08
2.65593e-08
-9.92907e-09
3.39062e-08
-2.53911e-09
4.09876e-08
3.295e-09
4.92549e-08
4.51479e-09
5.64083e-08
3.83245e-09
5.78221e-08
1.12107e-09
6.07567e-08
5.92655e-08
-2.58857e-09
-1.14365e-08
1.98114e-08
1.47083e-08
-9.41439e-09
1.90351e-08
-7.80634e-09
2.49641e-08
-7.19863e-09
3.3343e-08
-8.41682e-09
4.21912e-08
-8.38989e-09
4.92134e-08
-6.97074e-09
5.49316e-08
-6.83597e-09
5.76876e-08
-7.43076e-09
6.13518e-08
5.94163e-08
-7.58564e-09
-1.03878e-09
2.06384e-08
-3.22992e-10
-1.86517e-08
3.66486e-08
-3.4488e-08
4.08009e-08
-4.50089e-08
4.38644e-08
-5.28893e-08
5.01386e-08
-5.70764e-08
5.35026e-08
-5.38595e-08
5.16487e-08
-4.80056e-08
5.18338e-08
-3.9869e-08
5.32155e-08
4.95541e-08
-3.00154e-08
-8.62607e-08
3.91201e-08
7.09566e-08
-1.16014e-07
5.56585e-08
-1.31363e-07
5.61502e-08
-1.37802e-07
5.03038e-08
-1.34032e-07
4.63692e-08
-1.20931e-07
4.04015e-08
-1.01765e-07
3.24828e-08
-8.17137e-08
3.17829e-08
-6.59775e-08
3.74795e-08
3.7081e-08
-5.35044e-08
-2.00363e-07
4.86793e-08
1.90768e-07
-1.95538e-07
5.07924e-08
-2.00713e-07
4.88813e-08
-2.03491e-07
4.68678e-08
-1.98056e-07
4.09346e-08
-1.89798e-07
3.21439e-08
-1.83584e-07
2.62947e-08
-1.65309e-07
1.86613e-08
-1.48159e-07
1.94239e-08
1.48046e-08
-1.26785e-07
-2.40311e-07
4.7076e-08
2.41874e-07
-2.36753e-07
4.71982e-08
-2.31756e-07
4.38442e-08
-2.25807e-07
4.08159e-08
-2.20037e-07
3.49899e-08
-2.11629e-07
2.32866e-08
-1.95539e-07
9.81398e-09
-1.84793e-07
7.54771e-09
-1.70296e-07
-9.66045e-10
-1.48669e-08
-1.48484e-07
-2.32062e-07
5.08771e-08
2.35165e-07
-2.20688e-07
4.78734e-08
-2.19255e-07
4.39517e-08
-2.26153e-07
4.09981e-08
-2.2305e-07
3.17429e-08
-2.16662e-07
1.7389e-08
-2.09876e-07
3.07196e-09
-1.96194e-07
-6.6915e-09
-1.74544e-07
-2.29226e-08
-4.24898e-08
-1.46842e-07
-2.04348e-07
5.11734e-08
2.04145e-07
-2.03149e-07
4.79345e-08
-2.03493e-07
4.54374e-08
-2.015e-07
3.89053e-08
-1.92819e-07
2.30022e-08
-1.85742e-07
1.03139e-08
-1.77765e-07
-4.90349e-09
-1.62274e-07
-2.21811e-08
-1.45012e-07
-4.01735e-08
-5.86795e-08
-1.27818e-07
-1.54331e-07
4.63767e-08
1.59128e-07
-1.47065e-07
4.06706e-08
-1.36493e-07
3.48749e-08
-1.25807e-07
2.82268e-08
-1.05311e-07
2.51202e-09
-8.29069e-08
-1.21892e-08
-6.5155e-08
-2.26183e-08
-5.29102e-08
-3.41345e-08
-4.42502e-08
-4.63012e-08
-5.53798e-08
-4.32106e-08
-4.85699e-08
2.97868e-08
6.51602e-08
-2.68479e-08
1.90495e-08
-2.84645e-09
1.07181e-08
2.55885e-08
-3.63588e-10
5.00813e-08
-2.17505e-08
6.93974e-08
-3.16733e-08
8.12589e-08
-3.5039e-08
7.98356e-08
-3.66673e-08
7.00623e-08
-3.81021e-08
-4.43397e-08
5.90211e-08
6.08993e-08
8.0763e-09
-3.91884e-08
8.88371e-08
-8.88784e-09
1.20986e-07
-2.14914e-08
1.51889e-07
-3.13266e-08
1.6827e-07
-3.79818e-08
1.76167e-07
-3.9571e-08
1.78728e-07
-3.76001e-08
1.72421e-07
-3.03606e-08
1.49427e-07
-2.48615e-08
-2.77123e-08
1.32794e-07
1.08635e-07
-6.68566e-09
-9.38726e-08
1.24297e-07
-2.45491e-08
1.39499e-07
-3.66934e-08
1.50097e-07
-4.19244e-08
1.54389e-07
-4.22736e-08
1.57348e-07
-4.253e-08
1.60471e-07
-4.07225e-08
1.53536e-07
-3.20432e-08
1.47644e-07
-1.8974e-08
-1.34625e-08
1.33393e-07
1.14592e-07
-7.62155e-09
-1.13656e-07
1.13819e-07
-2.37756e-08
1.11553e-07
-3.44273e-08
1.09904e-07
-4.02745e-08
1.09179e-07
-4.1549e-08
1.11926e-07
-4.52768e-08
1.11081e-07
-5.05959e-08
1.22767e-07
-4.38678e-08
1.20636e-07
-1.68633e-08
-5.08236e-09
1.12238e-07
1.17742e-07
-1.48604e-09
-1.23877e-07
1.09036e-07
-1.52078e-08
1.00604e-07
-2.57233e-08
9.74132e-08
-3.65217e-08
9.81395e-08
-4.22749e-08
9.74955e-08
-4.54672e-08
9.10628e-08
-4.56651e-08
8.48159e-08
-3.87394e-08
9.00662e-08
-2.211e-08
-1.50147e-08
9.77735e-08
1.23976e-07
-7.17647e-10
-1.24747e-07
1.20546e-07
-1.17786e-08
1.16008e-07
-2.11864e-08
1.086e-07
-2.91148e-08
1.0296e-07
-3.56149e-08
9.59773e-08
-3.84837e-08
8.90473e-08
-3.87349e-08
8.59495e-08
-3.56413e-08
9.5086e-08
-3.12462e-08
-2.97739e-08
1.09845e-07
1.32867e-07
-5.92358e-09
-1.28563e-07
1.33526e-07
-1.26714e-08
1.32284e-07
-1.99459e-08
1.28796e-07
-2.56279e-08
1.25396e-07
-3.13664e-08
1.20964e-07
-3.40513e-08
1.16103e-07
-3.38735e-08
1.12907e-07
-3.24453e-08
1.13413e-07
-3.17524e-08
-3.23826e-08
1.16022e-07
1.33953e-07
-1.59128e-08
-1.23997e-07
1.35527e-07
-1.42789e-08
1.32592e-07
-1.69492e-08
1.29907e-07
-2.28809e-08
1.28267e-07
-2.97266e-08
1.27463e-07
-3.32471e-08
1.26527e-07
-3.29369e-08
1.25164e-07
-3.10827e-08
1.2431e-07
-3.08982e-08
-3.16245e-08
1.23553e-07
8.22611e-08
-2.41777e-08
-7.41997e-08
8.50746e-08
-1.66e-08
9.0636e-08
-2.19347e-08
9.90551e-08
-3.12997e-08
1.08827e-07
-3.94984e-08
1.187e-07
-4.31195e-08
1.26962e-07
-4.11987e-08
1.29824e-07
-3.40033e-08
1.30616e-07
-3.1429e-08
-3.51386e-08
1.34104e-07
4.23325e-08
-3.91433e-08
-2.73556e-08
5.75352e-08
-3.17927e-08
7.6628e-08
-3.97739e-08
9.43031e-08
-4.89745e-08
1.08889e-07
-5.40837e-08
1.21044e-07
-5.52745e-08
1.31214e-07
-5.1368e-08
1.3941e-07
-4.28299e-08
1.43957e-07
-3.62957e-08
-3.66187e-08
1.46426e-07
6.95128e-08
-4.70436e-08
-6.06629e-08
8.79165e-08
-4.84896e-08
1.06856e-07
-5.79961e-08
1.20681e-07
-6.27986e-08
1.29524e-07
-6.29259e-08
1.34993e-07
-6.07437e-08
1.41456e-07
-5.92164e-08
1.5286e-07
-5.45537e-08
1.59277e-07
-4.30217e-08
-3.5143e-08
1.58627e-07
1.03394e-07
-4.3095e-08
-1.08392e-07
1.08746e-07
-5.38403e-08
1.21233e-07
-6.66083e-08
1.30753e-07
-7.23114e-08
1.39404e-07
-7.15755e-08
1.4744e-07
-6.87796e-08
1.53591e-07
-6.53671e-08
1.55488e-07
-5.77121e-08
1.57365e-07
-4.44543e-08
-3.47032e-08
1.56926e-07
1.05457e-07
-4.44737e-08
-1.04171e-07
1.12682e-07
-6.11045e-08
1.19689e-07
-7.3478e-08
1.26989e-07
-7.91094e-08
1.3571e-07
-8.02957e-08
1.45203e-07
-7.82724e-08
1.52461e-07
-7.26243e-08
1.57192e-07
-6.2443e-08
1.60408e-07
-4.767e-08
-3.5703e-08
1.61409e-07
6.37331e-08
-5.00703e-08
-5.91055e-08
6.92513e-08
-6.74106e-08
7.36916e-08
-7.82377e-08
8.07655e-08
-8.61221e-08
9.16058e-08
-9.10752e-08
1.06072e-07
-9.27385e-08
1.21814e-07
-8.83659e-08
1.34894e-07
-7.5522e-08
1.4509e-07
-5.78657e-08
-4.02964e-08
1.49684e-07
-2.07847e-09
-5.07288e-08
2.73748e-09
-4.4818e-09
-6.50068e-08
-7.55158e-09
-7.51674e-08
-7.41689e-09
-8.64266e-08
2.17417e-09
-1.00717e-07
1.8012e-08
-1.08615e-07
3.7393e-08
-1.07747e-07
5.59958e-08
-9.41243e-08
6.74239e-08
-6.93488e-08
-4.58074e-08
7.30273e-08
-6.75578e-08
-4.8309e-08
6.51385e-08
-7.01249e-08
-6.24391e-08
-7.22185e-08
-7.30734e-08
-7.04574e-08
-8.81854e-08
-5.87201e-08
-1.12493e-07
-4.20171e-08
-1.25316e-07
-2.42613e-08
-1.25502e-07
-1.13012e-08
-1.07084e-07
-8.55135e-09
-7.2095e-08
-4.52679e-08
-8.38685e-09
-1.00909e-07
-4.69204e-08
9.95201e-08
-9.93613e-08
-6.3986e-08
-9.88771e-08
-7.35553e-08
-9.55669e-08
-9.14913e-08
-8.32983e-08
-1.24759e-07
-6.64928e-08
-1.4212e-07
-5.08434e-08
-1.41073e-07
-5.33482e-08
-1.0248e-07
-6.66711e-08
-5.61277e-08
-4.26123e-08
-6.98865e-08
-1.10468e-07
-3.73932e-08
1.02077e-07
-1.05493e-07
-6.82106e-08
-1.04931e-07
-7.35434e-08
-1.07005e-07
-8.93813e-08
-1.06732e-07
-1.25028e-07
-1.01693e-07
-1.47156e-07
-9.34064e-08
-1.48417e-07
-9.47592e-08
-9.2645e-08
-1.09777e-07
-3.87454e-08
-4.14295e-08
-1.15369e-07
1.14993e-08
-1.6724e-08
-2.94853e-08
-1.21579e-08
-4.08356e-08
-4.33113e-08
-3.49781e-08
-7.97776e-08
-4.67426e-08
-1.14717e-07
-8.69319e-08
-1.26166e-07
-1.35154e-07
-1.27061e-07
-1.4453e-07
-1.14648e-07
-9.81604e-08
-1.09989e-07
-4.57961e-08
-3.78616e-08
-1.16077e-07
1.0095e-07
-1.14667e-08
-1.08851e-07
8.44932e-08
-2.47978e-08
7.57081e-08
-2.65373e-08
4.06351e-08
-1.20142e-08
-1.99519e-08
-2.01278e-08
-9.04328e-08
-5.7404e-08
-1.26429e-07
-1.06037e-07
-1.16794e-07
-1.05336e-07
-9.08732e-08
-7.40671e-08
-6.40991e-08
-6.69863e-08
8.62875e-08
-2.9668e-08
-6.80886e-08
9.94184e-08
-3.79313e-08
9.44084e-08
-3.66641e-08
1.00513e-07
-2.06108e-08
7.38006e-08
6.5588e-09
1.17601e-08
4.607e-09
-6.30622e-08
-2.72592e-08
-1.03749e-07
-6.56583e-08
-8.63638e-08
-9.10219e-08
-8.57424e-08
-6.43293e-08
5.59087e-08
-2.90064e-08
-5.65312e-08
5.73804e-08
-3.94129e-08
6.07735e-08
-4.00733e-08
7.1339e-08
-3.11861e-08
6.35749e-08
6.14055e-09
5.36359e-08
1.45396e-08
1.97256e-08
6.64556e-09
-2.17403e-08
-2.18284e-08
-4.79615e-08
-6.43311e-08
-8.43925e-08
-4.88317e-08
6.35369e-08
-6.00742e-09
-8.54892e-08
4.91321e-08
-2.47729e-08
3.98556e-08
-3.08263e-08
3.18133e-08
-2.316e-08
2.03601e-08
1.40765e-08
2.71564e-08
7.73763e-09
2.86728e-08
5.12361e-09
1.59831e-08
-7.07034e-09
-2.19477e-09
-4.57277e-08
-6.0803e-08
-2.53046e-08
4.98548e-08
1.95998e-08
-7.54948e-08
3.13758e-08
-5.41609e-09
1.52222e-08
-1.47199e-08
-1.42068e-09
-6.43301e-09
-9.91967e-09
2.31489e-08
-2.0181e-09
-1.70936e-10
5.17802e-09
-2.07808e-09
-6.35325e-09
4.17512e-09
-3.90396e-08
-1.38879e-08
-1.67624e-08
-8.05707e-08
-2.97487e-10
2.72869e-08
-6.79901e-09
-4.20276e-09
-1.4936e-09
-1.06449e-08
-8.33064e-09
-2.05151e-08
3.38811e-09
-2.28826e-08
2.88538e-08
-2.53613e-08
4.36718e-09
-3.71359e-08
5.91975e-09
-4.48856e-08
1.24572e-08
-7.04176e-08
1.22692e-08
3.18314e-08
-1.10834e-07
-3.49639e-08
4.69729e-08
1.47383e-08
-3.68054e-08
3.12702e-10
-3.70802e-08
-8.08847e-09
-4.10113e-08
7.28595e-09
-4.06718e-08
2.97923e-08
-5.92584e-08
2.56774e-08
-9.62732e-08
4.1204e-08
-1.24691e-07
4.15016e-08
-1.51777e-07
4.9949e-08
7.98271e-08
-1.99883e-07
1.8768e-08
7.3982e-08
-4.86917e-08
-5.088e-09
2.4136e-08
-2.80988e-08
1.48891e-08
-5.1547e-08
3.06977e-08
-7.9059e-08
5.80264e-08
-1.25607e-07
7.10511e-08
-1.56976e-07
7.33361e-08
-1.66765e-07
6.62475e-08
-1.95033e-07
7.82608e-08
1.05823e-07
-2.21028e-07
1.03808e-07
8.18857e-08
-1.14174e-07
5.7217e-08
7.17539e-08
-1.09848e-08
8.13506e-08
-6.54738e-08
8.53125e-08
-1.15785e-07
1.06759e-07
-1.59489e-07
1.15186e-07
-1.85556e-07
9.99051e-08
-1.90202e-07
8.75513e-08
-2.1517e-07
1.0322e-07
1.1613e-07
-2.25433e-07
2.75489e-08
8.8656e-08
-3.4559e-08
-1.60169e-08
1.09696e-07
-7.98756e-08
1.40223e-07
-1.36546e-07
1.42227e-07
-1.80707e-07
1.50242e-07
-2.10401e-07
1.4525e-07
-2.2711e-07
1.22903e-07
-2.27244e-07
1.09177e-07
-2.35292e-07
1.11259e-07
1.12886e-07
-2.32057e-07
-2.02038e-07
1.04395e-07
1.80949e-07
-2.43426e-07
1.42646e-07
-2.57549e-07
1.55316e-07
-2.74561e-07
1.59237e-07
-2.84888e-07
1.60568e-07
-2.88753e-07
1.49145e-07
-2.85826e-07
1.26291e-07
-2.59269e-07
1.13334e-07
-2.54408e-07
1.06389e-07
1.01635e-07
-2.43166e-07
-3.56165e-07
1.19453e-07
3.42775e-07
-3.52915e-07
1.39386e-07
-3.49126e-07
1.51523e-07
-3.44026e-07
1.54135e-07
-3.3444e-07
1.50981e-07
-3.24311e-07
1.39014e-07
-3.18283e-07
1.20293e-07
-3.01708e-07
1.08603e-07
-2.56515e-07
9.98133e-08
8.17489e-08
-2.36643e-07
-4.32955e-07
1.0802e-07
4.44382e-07
-4.13924e-07
1.20356e-07
-3.93163e-07
1.30755e-07
-3.72203e-07
1.33173e-07
-3.50668e-07
1.29446e-07
-3.31879e-07
1.19745e-07
-3.16256e-07
1.04398e-07
-2.93051e-07
8.63564e-08
-2.57331e-07
7.12907e-08
5.87568e-08
-2.23216e-07
-4.54043e-07
1.02225e-07
4.59837e-07
-4.36407e-07
1.02722e-07
-4.08444e-07
1.02795e-07
-3.76571e-07
1.01884e-07
-3.46411e-07
9.92798e-08
-3.20425e-07
9.36852e-08
-2.99817e-07
8.37e-08
-2.81743e-07
6.79304e-08
-2.61808e-07
5.07209e-08
3.64543e-08
-2.39504e-07
-4.88473e-07
1.01428e-07
4.89267e-07
-4.70781e-07
8.50297e-08
-4.41575e-07
7.35921e-08
-4.07717e-07
6.93047e-08
-3.77243e-07
6.87949e-08
-3.52411e-07
6.8814e-08
-3.34789e-07
6.60041e-08
-3.25789e-07
5.8128e-08
-3.2225e-07
4.71813e-08
3.47386e-08
-3.20534e-07
-5.6254e-07
8.9281e-08
5.45273e-07
-5.43958e-07
6.6449e-08
-5.21413e-07
5.10465e-08
-5.00227e-07
4.81189e-08
-4.80888e-07
5.00365e-08
-4.63689e-07
5.22962e-08
-4.51018e-07
5.26494e-08
-4.38685e-07
4.57951e-08
-4.23226e-07
3.17234e-08
1.3429e-08
-4.01916e-07
-4.68948e-07
3.98477e-08
4.38325e-07
-5.27053e-07
3.84959e-08
-5.16126e-07
4.01198e-08
-5.0506e-07
3.70515e-08
-4.91134e-07
3.61114e-08
-4.74501e-07
3.5663e-08
-4.62536e-07
4.06836e-08
-4.53025e-07
3.62848e-08
-4.39393e-07
1.80916e-08
-7.56329e-09
-4.18399e-07
-4.08757e-07
2.23748e-10
4.45776e-07
-3.76587e-07
3.54386e-09
-3.50731e-07
1.04909e-08
-4.39788e-07
9.8268e-09
-4.37678e-07
1.5542e-08
-4.11963e-07
9.94966e-09
-3.96394e-07
2.51148e-08
-3.96098e-07
3.59885e-08
-3.9083e-07
1.2823e-08
-1.6224e-08
-3.82168e-07
-5.21404e-07
-5.05463e-08
5.74262e-07
-3.92727e-07
-4.85526e-08
-3.47762e-07
-3.81499e-08
-3.11565e-07
-2.93634e-08
-2.88457e-07
-1.05621e-08
-2.74178e-07
-7.38958e-09
-2.52883e-07
7.50635e-10
-2.24866e-07
4.35626e-09
-2.90268e-07
-2.82006e-09
-1.12012e-08
-2.95278e-07
-5.21329e-07
-7.61901e-08
5.49232e-07
-4.75351e-07
-9.2272e-08
-4.1353e-07
-9.73876e-08
-3.068e-07
-8.46176e-08
-2.52633e-07
-6.13276e-08
-2.08173e-07
-5.4884e-08
-1.85872e-07
-2.49411e-08
-1.53448e-07
-2.63803e-08
-1.61286e-07
-7.70971e-09
-2.06808e-08
-1.60383e-07
-4.06102e-07
-4.08352e-08
3.49571e-07
-4.45509e-07
-6.46596e-08
-4.32833e-07
-1.05273e-07
-3.62812e-07
-1.51126e-07
-2.77229e-07
-1.43786e-07
-1.97757e-07
-1.26367e-07
-1.27563e-07
-9.11847e-08
-7.55072e-08
-7.74557e-08
-7.88263e-08
-2.18496e-08
-2.30006e-09
-9.80927e-08
-1.46389e-07
-5.71126e-08
1.55236e-07
-1.50031e-07
-6.12415e-08
-2.004e-07
-7.46187e-08
-2.36619e-07
-1.41866e-07
-2.27303e-07
-1.55704e-07
-1.82962e-07
-1.70644e-07
-1.17955e-07
-1.55915e-07
-8.05613e-08
-1.29738e-07
-2.83392e-08
-7.87013e-08
-2.75896e-08
-6.18944e-09
-5.93444e-08
-6.58187e-08
4.64428e-08
-6.70241e-08
-7.59561e-08
-7.60908e-08
-1.14053e-07
-4.47393e-08
-2.07368e-07
-2.61368e-08
-2.0845e-07
-1.80662e-08
-1.81863e-07
3.42071e-09
-1.77034e-07
2.97952e-08
-1.56342e-07
7.09665e-08
-1.20099e-07
-4.17631e-08
7.72846e-08
1.3319e-07
-1.14661e-07
-6.53363e-08
1.6725e-07
-1.12289e-07
1.81824e-07
-1.28614e-07
1.36864e-07
-1.84251e-07
1.30131e-07
-2.20009e-07
1.45198e-07
-2.16746e-07
1.64232e-07
-1.9838e-07
1.69157e-07
-1.61449e-07
1.57451e-07
-1.08631e-07
-1.50743e-08
1.24831e-07
1.95775e-07
-1.35521e-07
-1.74891e-07
2.30126e-07
-1.46629e-07
2.56007e-07
-1.54485e-07
2.56246e-07
-1.84481e-07
2.50419e-07
-2.14171e-07
2.46749e-07
-2.13068e-07
2.47986e-07
-1.99607e-07
2.41837e-07
-1.55305e-07
1.68868e-07
-4.9403e-08
5.03749e-08
9.82735e-08
2.44703e-07
-1.3883e-07
-2.41323e-07
2.50498e-07
-1.52401e-07
2.681e-07
-1.72075e-07
2.83179e-07
-1.99551e-07
2.86258e-07
-2.17241e-07
2.89739e-07
-2.16539e-07
2.78779e-07
-1.88653e-07
1.77361e-07
-6.16558e-08
4.05573e-08
5.65803e-08
1.4258e-07
-4.89198e-08
2.56978e-07
-1.32426e-07
-2.63273e-07
2.51213e-07
-1.45174e-07
2.6339e-07
-1.80459e-07
2.78005e-07
-2.14149e-07
2.77634e-07
-2.16857e-07
2.47189e-07
-1.86075e-07
1.11262e-07
-7.28526e-08
4.25845e-08
7.00841e-09
-1.19989e-08
1.09279e-07
1.86999e-07
-7.35136e-08
1.97755e-07
-1.28266e-07
-2.0319e-07
1.99019e-07
-1.4772e-07
2.1215e-07
-1.91499e-07
2.06251e-07
-2.08137e-07
1.52961e-07
-1.59442e-07
6.35205e-08
-8.62972e-08
6.9059e-09
-1.62407e-08
-1.55975e-08
2.95093e-08
2.39074e-08
6.97838e-08
1.16985e-07
3.64184e-08
1.08242e-07
-1.32114e-07
-1.05716e-07
1.17792e-07
-1.5859e-07
1.03462e-07
-1.77706e-07
7.76438e-08
-1.82123e-07
1.18595e-08
-9.54242e-08
-2.06138e-08
-3.80152e-08
-4.34096e-08
6.55256e-09
-5.47406e-08
4.08377e-08
-2.60507e-09
1.76458e-08
7.00426e-08
4.43474e-08
2.17083e-08
-1.46443e-07
-1.00221e-08
2.49888e-08
-1.62929e-07
1.45556e-08
-1.67315e-07
-5.42275e-09
-1.6286e-07
-3.52425e-08
-8.20779e-08
-8.85699e-08
1.53234e-08
-9.93611e-08
3.10933e-08
-6.85268e-08
2.37501e-08
-3.47808e-08
-2.33998e-09
3.80359e-08
1.22445e-08
-1.46107e-08
-1.47047e-07
1.98407e-08
-6.53308e-09
-1.70866e-07
-1.64373e-09
-1.72255e-07
-4.79557e-09
-1.60806e-07
1.06038e-08
-1.12956e-07
1.80672e-08
-4.57266e-09
4.59628e-08
-7.00172e-09
9.41174e-08
-2.50109e-08
1.00009e-07
-8.4726e-09
2.28121e-08
1.43595e-07
-1.55951e-08
-1.25029e-07
9.66651e-09
-8.63486e-09
-1.69085e-07
1.3494e-09
-1.82316e-07
7.21286e-09
-1.67231e-07
3.00301e-08
-1.35774e-07
9.81814e-08
-8.48007e-08
1.0363e-07
-7.29959e-08
1.27186e-07
-7.11009e-08
1.31166e-07
-1.30489e-08
2.16409e-08
2.03658e-07
8.6835e-08
-1.24281e-07
-8.77397e-08
9.77569e-08
-1.64116e-07
9.68289e-08
-1.8166e-07
1.06133e-07
-1.76535e-07
1.28382e-07
-1.58024e-07
1.79221e-07
-1.3564e-07
2.16092e-07
-1.09867e-07
2.20896e-07
-7.59044e-08
2.33001e-07
-2.91182e-08
-3.79924e-09
2.54642e-07
1.80048e-07
-1.5264e-07
-1.5149e-07
2.01816e-07
-1.84811e-07
2.13013e-07
-1.92852e-07
2.24691e-07
-1.88214e-07
2.46027e-07
-1.79361e-07
2.786e-07
-1.68214e-07
3.13478e-07
-1.44745e-07
3.45083e-07
-1.0751e-07
3.6636e-07
-5.59155e-08
3.09453e-09
3.28599e-07
2.29093e-07
-1.83277e-07
-1.90939e-07
2.49845e-07
-2.05558e-07
2.74288e-07
-2.17268e-07
3.03374e-07
-2.17297e-07
3.35004e-07
-2.10992e-07
3.61886e-07
-1.95096e-07
3.9117e-07
-1.7403e-07
4.32806e-07
-1.49145e-07
4.73514e-07
-9.66234e-08
-9.86742e-09
3.8219e-07
2.84749e-07
-2.0516e-07
-2.5142e-07
3.18933e-07
-2.28878e-07
3.4995e-07
-2.47625e-07
3.80365e-07
-2.47674e-07
4.06854e-07
-2.37479e-07
4.19714e-07
-2.07956e-07
4.21265e-07
-1.75582e-07
4.22288e-07
-1.50167e-07
4.38631e-07
-1.12967e-07
-4.10877e-08
4.69852e-07
3.66661e-07
-2.35647e-07
-3.371e-07
4.08645e-07
-2.55759e-07
4.31328e-07
-2.65876e-07
4.43046e-07
-2.59374e-07
4.4804e-07
-2.42439e-07
4.40974e-07
-2.00885e-07
4.16016e-07
-1.50618e-07
3.80657e-07
-1.14806e-07
3.4913e-07
-8.1439e-08
-4.02415e-08
3.48241e-07
4.0081e-07
-2.77591e-07
-3.60283e-07
4.3067e-07
-2.86118e-07
4.47235e-07
-2.82217e-07
4.56747e-07
-2.68662e-07
4.5163e-07
-2.37333e-07
4.03048e-07
-1.44201e-07
3.32784e-07
-6.92295e-08
2.85482e-07
-6.22241e-08
2.60859e-07
-5.68041e-08
-4.5064e-08
2.65664e-07
3.69567e-07
-2.98285e-07
-3.48842e-07
3.84736e-07
-3.01237e-07
4.00548e-07
-2.9797e-07
4.04769e-07
-2.72658e-07
2.99617e-07
-1.43118e-07
1.83092e-07
-2.93596e-08
1.6213e-07
-9.37387e-10
1.69156e-07
-2.72451e-08
1.76452e-07
-6.30646e-08
-6.08869e-08
1.92295e-07
2.68143e-07
-2.87179e-07
-2.79157e-07
2.5667e-07
-2.89722e-07
2.40492e-07
-2.81743e-07
1.46327e-07
-1.95833e-07
7.61627e-08
-8.48117e-08
6.5033e-08
-1.83362e-08
7.39525e-08
-9.96709e-09
1.13748e-07
-2.72153e-08
1.3897e-07
-4.47662e-08
-4.26065e-08
1.45945e-07
1.50301e-07
-2.59356e-07
-1.77942e-07
1.19006e-07
-2.55793e-07
8.66173e-08
-2.49313e-07
3.29868e-08
-1.84038e-07
1.51226e-08
-6.7085e-08
3.50437e-08
-3.83675e-08
5.25392e-08
-2.75673e-08
5.74708e-08
-3.22582e-08
6.53938e-08
-5.28077e-08
-6.47695e-08
8.74292e-08
6.48521e-08
-1.62959e-07
-1.02562e-07
3.36224e-08
-2.01087e-07
7.21323e-10
-2.17652e-07
-1.866e-08
-1.75919e-07
-9.89044e-09
-1.04895e-07
9.00004e-09
-6.08662e-08
1.73261e-08
-3.60035e-08
2.49401e-08
-3.99907e-08
3.60612e-08
-6.40564e-08
-6.263e-08
3.37821e-08
-5.48943e-08
-1.29817e-07
3.40125e-08
-7.64236e-08
-2.04502e-07
-7.85731e-08
-2.20722e-07
-6.85234e-08
-1.85507e-07
-4.22156e-08
-1.49572e-07
-1.27507e-08
-1.26474e-07
1.20826e-08
-9.52388e-08
3.3079e-08
-1.0569e-07
5.87083e-08
-1.42548e-07
-1.21655e-07
8.0135e-08
-1.28947e-07
-2.28051e-07
1.35629e-07
-1.28074e-07
-2.48432e-07
-1.11035e-07
-2.37299e-07
-9.4692e-08
-2.01726e-07
-6.71299e-08
-1.77119e-07
-2.94574e-08
-1.64142e-07
2.89535e-08
-1.53648e-07
7.84787e-08
-1.55214e-07
9.20832e-08
-1.5615e-07
-1.43603e-07
1.14033e-07
-2.1092e-07
-2.85695e-07
2.50952e-07
-1.75733e-07
-2.83596e-07
-1.61696e-07
-2.42592e-07
-1.61332e-07
-1.80836e-07
-1.50282e-07
-1.82542e-07
-1.25577e-07
-1.88831e-07
-8.5517e-08
-1.93704e-07
-4.03934e-08
-2.00336e-07
-3.38148e-09
-1.93161e-07
-1.62952e-07
1.59696e-08
-2.82662e-07
-3.02946e-07
2.98137e-07
-2.56099e-07
-3.11821e-07
-1.99867e-07
-2.65682e-07
-1.82339e-07
-2.00847e-07
-1.63244e-07
-1.85044e-07
-1.4901e-07
-1.94727e-07
-1.16713e-07
-2.21236e-07
-8.10018e-08
-2.36041e-07
-5.32095e-08
-2.20949e-07
-1.73389e-07
-4.2771e-08
-3.44138e-07
-2.90915e-07
3.30167e-07
-3.28096e-07
-3.28204e-07
-2.59366e-07
-3.26948e-07
-1.94067e-07
-2.7171e-07
-1.36551e-07
-2.47575e-07
-1.04789e-07
-2.31597e-07
-8.14495e-08
-2.33074e-07
-6.26867e-08
-2.50374e-07
-6.31054e-08
-2.20504e-07
-1.53158e-07
-8.33395e-08
-3.1175e-07
-1.57322e-07
2.23417e-07
-3.36164e-07
-3.03499e-07
-2.82981e-07
-3.79877e-07
-2.15125e-07
-3.60375e-07
-1.45848e-07
-3.37773e-07
-8.87776e-08
-2.96346e-07
-6.48697e-08
-2.62855e-07
-5.71061e-08
-2.35105e-07
-1.01148e-07
-1.52718e-07
-8.9991e-08
-1.61412e-07
-3.23865e-08
-5.71249e-08
-7.67375e-08
-1.78797e-07
-9.19238e-08
-1.80167e-07
-3.78534e-07
-1.50268e-07
-3.90287e-07
-1.21143e-07
-3.66895e-07
-9.38343e-08
-3.44311e-07
-6.27086e-08
-3.12445e-07
-4.384e-08
-2.73144e-07
-5.55026e-08
-1.47277e-07
-3.74e-08
-1.02891e-07
1.18161e-07
7.16809e-08
-2.90763e-07
1.11839e-08
9.9534e-09
-2.18748e-08
-3.13186e-07
-3.73929e-08
-3.74766e-07
-4.73483e-08
-3.56939e-07
-4.12347e-08
-3.50424e-07
-1.68386e-08
-3.3684e-07
9.23568e-09
-3.07839e-07
4.43784e-08
-2.01976e-07
-4.74121e-08
5.16126e-08
-3.68441e-09
4.53877e-08
-1.80079e-08
9.95543e-09
-5.35709e-09
2.83308e-08
-3.08552e-07
8.10076e-09
-3.54434e-07
6.62652e-09
-3.5546e-07
-1.98147e-09
-3.41815e-07
1.773e-09
-3.40567e-07
4.09092e-09
-3.06354e-07
5.86574e-09
-1.98854e-07
-5.78766e-08
7.55185e-09
0
2.21535e-08
-2.73673e-09
7.20013e-08
-6.11981e-08
9.4644e-08
-3.05719e-07
6.24813e-08
-3.22261e-07
2.80534e-08
-3.21031e-07
6.64394e-09
-3.20405e-07
-1.37907e-08
-3.20106e-07
-2.50659e-08
-2.89542e-07
-6.59481e-08
-1.11188e-07
-3.50216e-09
-1.12041e-07
1.83892e-08
4.63095e-09
0
1.48576e-07
-1.99683e-07
1.0809e-07
-2.65557e-07