/*--------------------------------*- C++ -*----------------------------------*\
  =========                 |
  \\      /  F ield         | OpenFOAM: The Open Source CFD Toolbox
   \\    /   O peration     | Website:  https://openfoam.org
    \\  /    A nd           | Version:  8
     \\/     M anipulation  |
\*---------------------------------------------------------------------------*/
FoamFile
{
    version     2.0;
    format      ascii;
    class       surfaceScalarField;
    location    "9.35";
    object      phi;
}
// * * * * * * * * * * * * * * * * * * * * * * * * * * * * * * * * * * * * * //

dimensions      [0 3 -1 0 0 0 0];

internalField   nonuniform List<scalar> 
18095
(
1.96415e-08
-1.71801e-07
1.5216e-07
2.33742e-08
-1.97998e-07
1.94265e-07
2.0699e-08
-2.05901e-07
2.08576e-07
1.29681e-08
-2.11415e-07
2.19146e-07
2.55988e-09
-2.13815e-07
2.24224e-07
-8.40191e-09
-2.13632e-07
2.24593e-07
-1.82256e-08
-2.10203e-07
2.20026e-07
-2.31e-08
-2.05082e-07
2.09957e-07
-1.96529e-08
-1.98094e-07
1.94647e-07
-1.72056e-07
1.52403e-07
1.56446e-08
-1.87445e-07
1.59051e-08
-1.98258e-07
1.19408e-08
-2.01937e-07
5.44367e-09
-2.04918e-07
-1.70552e-09
-2.06667e-07
-8.27636e-09
-2.07061e-07
-1.31339e-08
-2.05345e-07
-1.5757e-08
-2.02459e-07
-1.5504e-08
-1.98347e-07
-1.87559e-07
6.87516e-09
-1.9432e-07
8.38921e-09
-1.99773e-07
7.48037e-09
-2.01028e-07
4.69663e-09
-2.02135e-07
7.3139e-10
-2.02701e-07
-3.33996e-09
-2.02989e-07
-6.63649e-09
-2.02049e-07
-8.24502e-09
-2.00851e-07
-6.82559e-09
-1.99767e-07
-1.94385e-07
4.58229e-09
-1.98903e-07
4.74807e-09
-1.99939e-07
3.65689e-09
-1.99937e-07
1.99556e-09
-2.00474e-07
1.50356e-10
-2.00856e-07
-2.06498e-09
-2.00774e-07
-3.8511e-09
-2.00263e-07
-4.74184e-09
-1.9996e-07
-4.54334e-09
-1.99966e-07
-1.98929e-07
1.09693e-09
1.15849e-09
1.22166e-09
7.48174e-10
-1.08214e-10
-8.82199e-10
-1.145e-09
-1.10541e-09
-1.07112e-09
-2.6821e-08
-1.96662e-07
2.23483e-07
-2.93059e-08
-1.98602e-07
2.01085e-07
-2.52337e-08
-2.00378e-07
1.96305e-07
-1.47981e-08
-2.00831e-07
1.90395e-07
-1.64038e-09
-2.01974e-07
1.88816e-07
1.27283e-08
-2.02093e-07
1.87724e-07
2.38539e-08
-2.014e-07
1.90274e-07
2.89055e-08
-2.01892e-07
1.9684e-07
2.59656e-08
-1.9928e-07
2.0222e-07
-1.96888e-07
2.22854e-07
-9.85588e-09
-1.86806e-07
-1.52571e-08
-1.932e-07
-1.28497e-08
-2.02786e-07
-5.73441e-09
-2.07947e-07
-3.66048e-10
-2.07342e-07
6.26322e-09
-2.08722e-07
1.42203e-08
-2.09357e-07
1.54882e-08
-2.03159e-07
9.82069e-09
-1.93612e-07
-1.87068e-07
-1.08357e-08
-1.75971e-07
-9.06434e-09
-1.94971e-07
-7.11974e-09
-2.0473e-07
-4.74747e-09
-2.10319e-07
1.51312e-09
-2.13603e-07
5.34336e-09
-2.12552e-07
6.53198e-09
-2.10545e-07
8.88117e-09
-2.05509e-07
1.08511e-08
-1.95583e-07
-1.76217e-07
-6.36497e-09
-1.69606e-07
-7.69581e-09
-1.9364e-07
-6.76375e-09
-2.05662e-07
-1.48416e-09
-2.15598e-07
1.93466e-09
-2.17022e-07
6.96317e-09
-2.1758e-07
1.10723e-08
-2.14654e-07
1.00281e-08
-2.04464e-07
7.19036e-09
-1.92745e-07
-1.69026e-07
-1.74461e-08
-1.68214e-08
-1.39071e-08
-1.03588e-08
-3.15701e-09
3.85556e-09
9.22686e-09
1.472e-08
1.66226e-08
4.37939e-08
-1.52977e-07
1.09183e-07
4.74762e-08
-1.95472e-07
1.9179e-07
4.18022e-08
-2.10606e-07
2.1628e-07
2.90723e-08
-2.14933e-07
2.27664e-07
1.25794e-08
-2.1809e-07
2.34583e-07
-5.25314e-09
-2.187e-07
2.36532e-07
-2.48053e-08
-2.17109e-07
2.36662e-07
-4.1019e-08
-2.12793e-07
2.29007e-07
-4.29115e-08
-1.99935e-07
2.01827e-07
-1.59379e-07
1.16468e-07
1.94474e-08
-1.72425e-07
2.40256e-08
-2.00051e-07
2.03227e-08
-2.06903e-07
1.33381e-08
-2.07948e-07
3.80447e-09
-2.08557e-07
-5.47418e-09
-2.09423e-07
-1.24907e-08
-2.10094e-07
-1.72722e-08
-2.08013e-07
-1.59598e-08
-2.01248e-07
-1.75338e-07
1.11001e-08
-1.83525e-07
1.11955e-08
-2.00145e-07
9.87071e-09
-2.05577e-07
5.69406e-09
-2.03771e-07
2.43488e-09
-2.05297e-07
-2.06219e-09
-2.04925e-07
-7.1344e-09
-2.05022e-07
-8.86661e-09
-2.0628e-07
-8.72791e-09
-2.01386e-07
-1.84066e-07
7.87398e-09
-1.914e-07
6.93536e-09
-1.99208e-07
7.58143e-09
-2.06224e-07
3.55782e-09
-1.99749e-07
1.20191e-09
-2.02942e-07
-1.16285e-09
-2.0256e-07
-5.60804e-09
-2.00576e-07
-5.02302e-09
-2.06865e-07
-5.98734e-09
-2.00422e-07
-1.90054e-07
3.20845e-08
3.39624e-08
2.40438e-08
1.46912e-08
5.65949e-10
-1.42704e-08
-2.45726e-08
-3.45971e-08
-3.27998e-08
-9.18822e-09
6.87266e-09
2.31556e-09
-1.33659e-08
4.17665e-09
-1.56669e-08
2.30048e-09
-1.42344e-08
-1.43298e-09
-9.75491e-09
-4.48011e-09
-2.05672e-09
-7.69878e-09
8.43116e-09
-1.04885e-08
1.98543e-08
-1.14238e-08
2.73853e-08
-7.53151e-09
-1.26517e-09
2.86501e-08
8.99043e-09
1.64709e-08
-1.85893e-08
1.77707e-09
1.1389e-08
-3.12221e-09
7.19947e-09
-2.74403e-09
-1.81132e-09
-2.29207e-09
-4.93211e-09
-2.61314e-09
-7.37763e-09
-9.76846e-10
-1.21246e-08
4.40338e-09
-1.68037e-08
1.30096e-08
-1.61374e-08
-1.03894e-08
2.21341e-08
3.91083e-08
1.66615e-08
-3.92993e-08
4.11904e-08
9.30537e-09
4.36779e-08
4.71132e-09
4.53329e-08
-3.46699e-09
4.62941e-08
-5.89406e-09
4.50573e-08
-6.14142e-09
4.13043e-08
-8.37218e-09
3.67466e-08
-1.22465e-08
3.60565e-08
-1.54477e-08
-1.52073e-08
4.0874e-08
7.08696e-08
1.08366e-08
-6.5045e-08
7.98777e-08
2.97116e-10
8.75473e-08
-2.9582e-09
8.79204e-08
-3.84003e-09
8.73013e-08
-5.27483e-09
8.89935e-08
-7.83342e-09
9.0797e-08
-1.01756e-08
9.17563e-08
-1.32056e-08
9.14324e-08
-1.51236e-08
-1.56457e-08
9.1871e-08
9.48145e-08
8.18819e-09
-9.21662e-08
9.52459e-08
-1.34599e-10
9.57813e-08
-3.4937e-09
9.61987e-08
-4.25752e-09
9.6214e-08
-5.29025e-09
9.76802e-08
-9.29981e-09
1.01146e-07
-1.36415e-08
1.04723e-07
-1.67832e-08
1.07099e-07
-1.74998e-08
-1.62742e-08
1.07728e-07
9.36276e-08
8.17314e-09
-9.36125e-08
9.17573e-08
1.73609e-09
9.03367e-08
-2.0728e-09
8.99774e-08
-3.89808e-09
9.17359e-08
-7.04858e-09
9.59707e-08
-1.35346e-08
1.00765e-07
-1.84353e-08
1.03893e-07
-1.99112e-08
1.04886e-07
-1.84931e-08
-1.36973e-08
1.02309e-07
8.59351e-08
9.04695e-09
-8.68088e-08
8.26688e-08
5.00303e-09
7.88486e-08
1.74767e-09
7.74393e-08
-2.48863e-09
7.58857e-08
-5.49494e-09
7.42832e-08
-1.1932e-08
7.29433e-08
-1.70955e-08
6.92921e-08
-1.62601e-08
6.38719e-08
-1.30732e-08
-1.05034e-08
6.06779e-08
7.324e-08
1.03511e-08
-7.4544e-08
7.30735e-08
5.17066e-09
7.22467e-08
2.57487e-09
6.89889e-08
7.69516e-10
6.6325e-08
-2.83076e-09
6.11043e-08
-6.7112e-09
5.25866e-08
-8.57771e-09
4.56902e-08
-9.3637e-09
4.20576e-08
-9.44056e-09
-3.39281e-09
3.49468e-08
5.98916e-08
1.56857e-08
-6.52258e-08
5.53499e-08
9.71402e-09
5.16856e-08
6.23966e-09
4.82988e-08
4.15681e-09
4.53947e-08
7.3682e-11
3.97521e-08
-1.06831e-09
2.57478e-08
5.42678e-09
6.53771e-09
9.84663e-09
2.32034e-09
-5.22302e-09
-4.73338e-09
3.66107e-09
3.2532e-08
2.08534e-08
-3.76991e-08
2.49009e-08
1.73472e-08
1.75151e-08
1.36261e-08
1.13063e-08
1.03663e-08
1.93944e-09
9.44109e-09
-1.26598e-08
1.35315e-08
-2.87603e-08
2.15277e-08
-4.09815e-08
2.20683e-08
-3.88589e-08
-7.3452e-09
-1.38395e-08
-2.97524e-08
-2.01284e-08
2.08901e-08
2.00923e-08
-2.17607e-08
1.89816e-08
-2.6153e-08
1.80191e-08
-3.25795e-08
1.67936e-08
-4.28149e-08
1.96772e-08
-5.22285e-08
2.29458e-08
-5.38498e-08
2.31497e-08
-4.72893e-08
1.55085e-08
-4.86123e-08
-6.02155e-09
-3.26994e-09
-5.91813e-08
-5.48139e-08
1.68001e-08
5.89048e-08
-5.66946e-08
2.08638e-08
-6.39612e-08
2.52863e-08
-7.29314e-08
2.57645e-08
-7.8299e-08
2.50455e-08
-7.9311e-08
2.39585e-08
-7.82217e-08
2.20611e-08
-7.76704e-08
1.49579e-08
-9.20294e-08
8.338e-09
1.89775e-08
-1.14276e-07
-6.65095e-08
1.24005e-08
7.09096e-08
-6.75223e-08
2.18773e-08
-7.46944e-08
3.24589e-08
-8.54233e-08
3.64939e-08
-9.46324e-08
3.42552e-08
-9.91743e-08
2.8501e-08
-1.03071e-07
2.59581e-08
-1.08859e-07
2.07472e-08
-1.23697e-07
2.31762e-08
2.92456e-08
-1.33964e-07
-6.36448e-08
1.55936e-08
6.04519e-08
-6.71748e-08
2.54073e-08
-7.28446e-08
3.81289e-08
-8.1515e-08
4.51646e-08
-9.10655e-08
4.3806e-08
-1.00694e-07
3.81298e-08
-1.12608e-07
3.7872e-08
-1.22818e-07
3.09584e-08
-1.31512e-07
3.18704e-08
3.37769e-08
-1.36044e-07
-5.02122e-08
2.08871e-08
4.49187e-08
-5.53219e-08
3.05169e-08
-5.90281e-08
4.18354e-08
-6.33987e-08
4.95355e-08
-7.06402e-08
5.10478e-08
-7.9164e-08
4.66537e-08
-8.74948e-08
4.6203e-08
-1.00001e-07
4.34643e-08
-1.10017e-07
4.18864e-08
4.12762e-08
-1.17516e-07
-3.7771e-08
2.26028e-08
3.60552e-08
-3.91847e-08
3.19309e-08
-4.04394e-08
4.30903e-08
-4.38222e-08
5.29184e-08
-5.02234e-08
5.7449e-08
-5.96106e-08
5.60408e-08
-6.33289e-08
4.99211e-08
-6.93182e-08
4.94533e-08
-7.57594e-08
4.83271e-08
4.3375e-08
-7.78587e-08
-2.9812e-08
2.21842e-08
3.02306e-08
-2.64369e-08
2.85566e-08
-2.13467e-08
3.80002e-08
-1.66803e-08
4.82519e-08
-1.52399e-08
5.60084e-08
-1.90426e-08
5.98433e-08
-2.55435e-08
5.64217e-08
-3.08179e-08
5.47271e-08
-3.69445e-08
5.44531e-08
4.86992e-08
-4.22692e-08
-2.50673e-08
2.29805e-08
2.42712e-08
-2.15259e-08
2.5016e-08
-1.56326e-08
3.21069e-08
-8.77826e-09
4.13974e-08
-1.35753e-09
4.85874e-08
3.21093e-09
5.52745e-08
1.99081e-09
5.76415e-08
-4.23032e-10
5.71406e-08
-3.98001e-09
5.80097e-08
5.55135e-08
-1.07947e-08
-2.64409e-08
2.34269e-08
2.59948e-08
-2.26422e-08
2.12171e-08
-1.72999e-08
2.67642e-08
-1.00219e-08
3.41189e-08
-2.61765e-09
4.11827e-08
3.20817e-09
4.94481e-08
4.40381e-09
5.64453e-08
3.69431e-09
5.78496e-08
9.78195e-10
6.07255e-08
5.92364e-08
-2.74507e-09
-1.15712e-08
2.01936e-08
1.48044e-08
-9.6151e-09
1.92598e-08
-7.9864e-09
2.5135e-08
-7.36398e-09
3.3496e-08
-8.52636e-09
4.23447e-08
-8.41644e-09
4.93379e-08
-6.99307e-09
5.50217e-08
-6.86984e-09
5.77263e-08
-7.48828e-09
6.13439e-08
5.94181e-08
-7.66994e-09
-1.2242e-09
2.198e-08
-5.62585e-10
-1.8815e-08
3.68482e-08
-3.44558e-08
4.07751e-08
-4.48507e-08
4.389e-08
-5.2649e-08
5.01423e-08
-5.68044e-08
5.34926e-08
-5.34992e-08
5.1716e-08
-4.77512e-08
5.19778e-08
-3.9746e-08
5.33384e-08
4.96612e-08
-2.99893e-08
-9.36365e-08
4.25141e-08
7.31016e-08
-1.15844e-07
5.90537e-08
-1.31109e-07
5.60399e-08
-1.37369e-07
5.01496e-08
-1.33546e-07
4.63189e-08
-1.20399e-07
4.03454e-08
-1.01248e-07
3.25648e-08
-8.13671e-08
3.20966e-08
-6.58581e-08
3.78294e-08
3.72721e-08
-5.34687e-08
-2.14376e-07
5.25226e-08
2.04366e-07
-2.09992e-07
5.46679e-08
-2.05819e-07
5.18665e-08
-2.03302e-07
4.76316e-08
-1.98005e-07
4.10211e-08
-1.89957e-07
3.22965e-08
-1.84184e-07
2.67911e-08
-1.72176e-07
2.00882e-08
-1.55072e-07
2.0725e-08
1.55597e-08
-1.3336e-07
-2.57545e-07
5.08713e-08
2.59195e-07
-2.53629e-07
5.0752e-08
-2.48726e-07
4.69636e-08
-2.44691e-07
4.35965e-08
-2.40372e-07
3.67023e-08
-2.31961e-07
2.38851e-08
-2.15627e-07
1.04574e-08
-2.03619e-07
8.07989e-09
-1.82026e-07
-8.6807e-10
-1.47213e-08
-1.51745e-07
-2.35617e-07
5.11871e-08
2.35301e-07
-2.33971e-07
4.91048e-08
-2.32729e-07
4.57216e-08
-2.30301e-07
4.11684e-08
-2.25423e-07
3.18237e-08
-2.18871e-07
1.73321e-08
-2.11602e-07
3.18855e-09
-1.96929e-07
-6.59405e-09
-1.74795e-07
-2.30026e-08
-4.25441e-08
-1.46973e-07
-2.04763e-07
5.14844e-08
2.04465e-07
-2.03893e-07
4.82357e-08
-2.0385e-07
4.56794e-08
-2.01695e-07
3.90137e-08
-1.92894e-07
2.30229e-08
-1.85831e-07
1.02691e-08
-1.77651e-07
-4.99191e-09
-1.6194e-07
-2.23045e-08
-1.44692e-07
-4.02508e-08
-5.92003e-08
-1.28036e-07
-1.54703e-07
4.65551e-08
1.59632e-07
-1.47289e-07
4.08217e-08
-1.36558e-07
3.49473e-08
-1.2571e-07
2.81654e-08
-1.05076e-07
2.38895e-09
-8.24296e-08
-1.23779e-08
-6.4465e-08
-2.29569e-08
-5.20399e-08
-3.47299e-08
-4.38598e-08
-4.84312e-08
-5.90493e-08
-4.40109e-08
-4.92214e-08
2.98044e-08
6.59721e-08
-2.74204e-08
1.90201e-08
-3.10309e-09
1.06298e-08
2.57727e-08
-7.10413e-10
5.03447e-08
-2.2183e-08
7.00802e-08
-3.21133e-08
8.26546e-08
-3.55311e-08
8.50646e-08
-3.71397e-08
7.65185e-08
-3.98847e-08
-4.71581e-08
6.46277e-08
5.99364e-08
7.98136e-09
-3.81138e-08
8.7989e-08
-9.03498e-09
1.20336e-07
-2.17183e-08
1.51285e-07
-3.16602e-08
1.67561e-07
-3.84588e-08
1.75561e-07
-4.01139e-08
1.7828e-07
-3.82507e-08
1.73073e-07
-3.1932e-08
1.60166e-07
-2.69784e-08
-2.98229e-08
1.42831e-07
1.08041e-07
-6.76169e-09
-9.32984e-08
1.23675e-07
-2.46709e-08
1.38888e-07
-3.69316e-08
1.49522e-07
-4.22934e-08
1.53805e-07
-4.27426e-08
1.56739e-07
-4.30476e-08
1.6104e-07
-4.25508e-08
1.63904e-07
-3.47956e-08
1.58258e-07
-2.1332e-08
-1.46431e-08
1.43078e-07
1.14551e-07
-7.65806e-09
-1.13655e-07
1.13753e-07
-2.3874e-08
1.11421e-07
-3.46e-08
1.09703e-07
-4.05764e-08
1.0891e-07
-4.19495e-08
1.11556e-07
-4.56933e-08
1.21267e-07
-5.22624e-08
1.33025e-07
-4.65536e-08
1.296e-07
-1.79071e-08
-5.41552e-09
1.20373e-07
1.18112e-07
-1.53612e-09
-1.24234e-07
1.0965e-07
-1.54108e-08
1.01056e-07
-2.60059e-08
9.74904e-08
-3.70099e-08
9.81726e-08
-4.26315e-08
9.82568e-08
-4.57774e-08
9.2011e-08
-4.60165e-08
8.47479e-08
-3.92903e-08
8.95099e-08
-2.26689e-08
-1.53514e-08
9.94458e-08
1.25496e-07
-7.88251e-10
-1.26244e-07
1.22014e-07
-1.19274e-08
1.17464e-07
-2.14561e-08
1.09945e-07
-2.949e-08
1.03197e-07
-3.58832e-08
9.61254e-08
-3.87062e-08
8.90938e-08
-3.89852e-08
8.57536e-08
-3.59507e-08
9.4594e-08
-3.15097e-08
-2.99681e-08
1.0921e-07
1.3429e-07
-6.02024e-09
-1.29057e-07
1.35085e-07
-1.27206e-08
1.33702e-07
-2.00729e-08
1.29985e-07
-2.57728e-08
1.2563e-07
-3.15281e-08
1.21178e-07
-3.4255e-08
1.16281e-07
-3.40882e-08
1.12977e-07
-3.26473e-08
1.13358e-07
-3.1892e-08
-3.2438e-08
1.15827e-07
1.34188e-07
-1.61186e-08
-1.24089e-07
1.35864e-07
-1.43966e-08
1.32871e-07
-1.70795e-08
1.30059e-07
-2.29615e-08
1.28387e-07
-2.98568e-08
1.27597e-07
-3.34654e-08
1.267e-07
-3.31914e-08
1.25346e-07
-3.12932e-08
1.24526e-07
-3.10726e-08
-3.17357e-08
1.23823e-07
8.27296e-08
-2.46372e-08
-7.42107e-08
8.53909e-08
-1.70585e-08
9.04618e-08
-2.21509e-08
9.89088e-08
-3.1409e-08
1.08716e-07
-3.96647e-08
1.18644e-07
-4.3393e-08
1.27037e-07
-4.1585e-08
1.30195e-07
-3.44513e-08
1.31008e-07
-3.18868e-08
-3.53182e-08
1.3459e-07
4.3049e-08
-4.02239e-08
-2.74627e-08
5.85221e-08
-3.25329e-08
7.64197e-08
-4.00488e-08
9.421e-08
-4.91994e-08
1.08874e-07
-5.43286e-08
1.21052e-07
-5.55706e-08
1.3144e-07
-5.1973e-08
1.40703e-07
-4.37141e-08
1.45812e-07
-3.69956e-08
-3.69229e-08
1.47416e-07
7.03199e-08
-4.88096e-08
-6.17347e-08
8.81346e-08
-5.03484e-08
1.06845e-07
-5.87597e-08
1.20787e-07
-6.31414e-08
1.29734e-07
-6.32751e-08
1.35226e-07
-6.10621e-08
1.42774e-07
-5.95208e-08
1.5451e-07
-5.54503e-08
1.61138e-07
-4.36232e-08
-3.53314e-08
1.59547e-07
1.05389e-07
-4.56366e-08
-1.08563e-07
1.11436e-07
-5.63943e-08
1.21209e-07
-6.85326e-08
1.30891e-07
-7.28229e-08
1.39598e-07
-7.19816e-08
1.47679e-07
-6.91427e-08
1.5385e-07
-6.56912e-08
1.56465e-07
-5.80646e-08
1.5767e-07
-4.48275e-08
-3.48842e-08
1.57224e-07
1.09007e-07
-4.61238e-08
-1.0852e-07
1.14806e-07
-6.21932e-08
1.20249e-07
-7.39755e-08
1.27022e-07
-7.95959e-08
1.35757e-07
-8.07171e-08
1.45284e-07
-7.86693e-08
1.52617e-07
-7.30242e-08
1.57374e-07
-6.28217e-08
1.60499e-07
-4.79518e-08
-3.58245e-08
1.61439e-07
6.40131e-08
-5.00705e-08
-6.00662e-08
6.92467e-08
-6.74272e-08
7.3567e-08
-7.82957e-08
8.04278e-08
-8.64567e-08
9.1167e-08
-9.14564e-08
1.0566e-07
-9.31624e-08
1.21438e-07
-8.88025e-08
1.34556e-07
-7.59408e-08
1.4477e-07
-5.81653e-08
-4.04809e-08
1.49426e-07
-2.12893e-09
-5.05457e-08
2.60397e-09
-4.72133e-09
-6.48353e-08
-7.93918e-09
-7.5078e-08
-7.85143e-09
-8.65447e-08
1.83187e-09
-1.0114e-07
1.7722e-08
-1.09053e-07
3.70955e-08
-1.08177e-07
5.55973e-08
-9.44429e-08
6.68854e-08
-6.94534e-08
-4.60528e-08
7.24574e-08
-6.76577e-08
-4.80263e-08
6.51384e-08
-7.02324e-08
-6.22592e-08
-7.23121e-08
-7.29982e-08
-7.04535e-08
-8.84035e-08
-5.84893e-08
-1.13105e-07
-4.17058e-08
-1.25837e-07
-2.39714e-08
-1.25912e-07
-1.14291e-08
-1.06986e-07
-9.10763e-09
-7.17757e-08
-4.60583e-08
-9.10283e-09
-1.00901e-07
-4.66263e-08
9.95016e-08
-9.93405e-08
-6.38184e-08
-9.88825e-08
-7.34562e-08
-9.55074e-08
-9.17787e-08
-8.30808e-08
-1.25531e-07
-6.62741e-08
-1.42644e-07
-5.07837e-08
-1.41402e-07
-5.44912e-08
-1.03279e-07
-6.8813e-08
-5.74544e-08
-4.28856e-08
-7.19862e-08
-1.11009e-07
-3.9228e-08
1.03612e-07
-1.0556e-07
-6.92677e-08
-1.05028e-07
-7.39885e-08
-1.07241e-07
-8.95664e-08
-1.07123e-07
-1.25649e-07
-1.02267e-07
-1.47499e-07
-9.47972e-08
-1.48873e-07
-1.00903e-07
-9.7174e-08
-1.16417e-07
-4.19409e-08
-4.32309e-08
-1.16072e-07
1.30423e-08
-1.85436e-08
-3.37268e-08
-1.28798e-08
-4.33443e-08
-4.74223e-08
-3.94453e-08
-8.35856e-08
-5.3403e-08
-1.1576e-07
-9.34754e-08
-1.26567e-07
-1.36693e-07
-1.31147e-07
-1.44293e-07
-1.24801e-07
-1.0352e-07
-1.16869e-07
-4.98722e-08
-4.1687e-08
-1.18413e-07
1.17049e-07
-1.18989e-08
-1.23694e-07
9.88243e-08
-2.51205e-08
8.79009e-08
-2.85222e-08
4.8354e-08
-1.38567e-08
-2.24734e-08
-2.26486e-08
-9.36591e-08
-6.55075e-08
-1.26027e-07
-1.11925e-07
-1.23582e-07
-1.05966e-07
-9.82814e-08
-7.51733e-08
-6.76502e-08
-7.23183e-08
8.64567e-08
-2.98439e-08
-6.85116e-08
9.95504e-08
-3.82155e-08
1.081e-07
-3.7072e-08
1.15318e-07
-2.10736e-08
8.52821e-08
7.38695e-09
1.39548e-08
5.82012e-09
-6.74074e-08
-3.05618e-08
-1.04776e-07
-6.85974e-08
-8.81616e-08
-9.17883e-08
-8.66952e-08
-6.91177e-08
5.59546e-08
-2.91416e-08
-5.66578e-08
5.73516e-08
-3.96139e-08
6.06917e-08
-4.04112e-08
7.13043e-08
-3.16854e-08
7.22684e-08
6.42345e-09
6.11117e-08
1.69773e-08
2.25607e-08
7.98954e-09
-2.19425e-08
-2.4094e-08
-4.76031e-08
-6.6128e-08
-8.53136e-08
-4.89847e-08
6.38938e-08
-5.80725e-09
-8.72284e-08
4.91115e-08
-2.48296e-08
3.96683e-08
-3.09677e-08
3.13732e-08
-2.33902e-08
2.25052e-08
1.52912e-08
3.05895e-08
8.89245e-09
3.26088e-08
5.96973e-09
1.66413e-08
-8.12733e-09
-2.35849e-09
-4.71294e-08
-6.15542e-08
-2.61195e-08
5.1042e-08
2.04815e-08
-7.73291e-08
3.13269e-08
-5.11357e-09
1.494e-08
-1.45808e-08
-2.14004e-09
-6.30958e-09
-1.22419e-08
2.53936e-08
-2.93561e-09
-4.13825e-10
5.39892e-09
-2.36515e-09
-7.20291e-09
4.47397e-09
-4.02624e-08
-1.40701e-08
-1.66111e-08
-8.52057e-08
-9.75222e-10
2.79821e-08
-6.52471e-09
-5.03097e-09
-1.05997e-09
-1.15111e-08
-8.10099e-09
-2.1573e-08
3.75198e-09
-2.51668e-08
2.89868e-08
-2.99902e-08
4.40859e-09
-3.87182e-08
6.36192e-09
-4.68235e-08
1.25791e-08
-7.37558e-08
1.28621e-08
3.47999e-08
-1.25168e-07
-3.62888e-08
4.82857e-08
1.59849e-08
-3.81332e-08
7.84822e-10
-3.84941e-08
-7.74009e-09
-4.23397e-08
7.59809e-09
-4.32253e-08
2.98731e-08
-6.44372e-08
2.56207e-08
-9.95779e-08
4.15028e-08
-1.29207e-07
4.22094e-08
-1.70391e-07
5.40471e-08
9.10927e-08
-2.26683e-07
1.57784e-08
8.02668e-08
-4.77591e-08
-8.38348e-09
2.49461e-08
-3.09926e-08
1.48676e-08
-5.402e-08
3.0624e-08
-8.20142e-08
5.78664e-08
-1.27461e-07
7.10663e-08
-1.58949e-07
7.29895e-08
-1.85862e-07
6.91215e-08
-2.21586e-07
8.97692e-08
1.20153e-07
-2.50648e-07
1.08244e-07
1.04677e-07
-1.32655e-07
5.43535e-08
7.88401e-08
-1.35326e-08
8.27547e-08
-6.88748e-08
8.59682e-08
-1.17779e-07
1.06773e-07
-1.60814e-07
1.14102e-07
-1.87345e-07
9.95206e-08
-2.15625e-07
9.74025e-08
-2.43524e-07
1.1767e-07
1.31559e-07
-2.54931e-07
3.4423e-08
1.15584e-07
-4.53296e-08
-1.94681e-08
1.32729e-07
-8.20785e-08
1.45363e-07
-1.38064e-07
1.41951e-07
-1.8134e-07
1.50048e-07
-2.11351e-07
1.44112e-07
-2.34956e-07
1.23125e-07
-2.57045e-07
1.19489e-07
-2.65564e-07
1.26189e-07
1.2783e-07
-2.61834e-07
-2.33645e-07
1.21019e-07
2.2821e-07
-2.46896e-07
1.45982e-07
-2.57717e-07
1.56186e-07
-2.75141e-07
1.59377e-07
-2.85403e-07
1.60311e-07
-2.89334e-07
1.48043e-07
-2.92379e-07
1.26171e-07
-2.9313e-07
1.20244e-07
-2.87362e-07
1.20419e-07
1.14612e-07
-2.74146e-07
-3.58694e-07
1.21675e-07
3.58036e-07
-3.53699e-07
1.40985e-07
-3.49858e-07
1.52343e-07
-3.44867e-07
1.54386e-07
-3.35385e-07
1.50829e-07
-3.25618e-07
1.38278e-07
-3.19031e-07
1.19583e-07
-3.07287e-07
1.085e-07
-2.89632e-07
1.02766e-07
9.14516e-08
-2.66473e-07
-4.33567e-07
1.09418e-07
4.45824e-07
-4.14223e-07
1.21643e-07
-3.93605e-07
1.31723e-07
-3.72817e-07
1.33598e-07
-3.51484e-07
1.29495e-07
-3.32537e-07
1.19331e-07
-3.16688e-07
1.03736e-07
-2.93652e-07
8.54612e-08
-2.61554e-07
7.06675e-08
5.8231e-08
-2.28332e-07
-4.55682e-07
1.02549e-07
4.62549e-07
-4.37004e-07
1.0297e-07
-4.0846e-07
1.03178e-07
-3.77202e-07
1.02338e-07
-3.47369e-07
9.96641e-08
-3.21688e-07
9.36483e-08
-3.0116e-07
8.32082e-08
-2.82631e-07
6.69345e-08
-2.61735e-07
4.97721e-08
3.56481e-08
-2.39151e-07
-4.90385e-07
1.00123e-07
4.92812e-07
-4.7093e-07
8.35166e-08
-4.40876e-07
7.3125e-08
-4.08016e-07
6.94765e-08
-3.7761e-07
6.92572e-08
-3.53039e-07
6.90776e-08
-3.35617e-07
6.57832e-08
-3.26038e-07
5.73545e-08
-3.22394e-07
4.61258e-08
3.36316e-08
-3.20379e-07
-5.64763e-07
9.18753e-08
5.73012e-07
-5.44868e-07
6.36177e-08
-5.21797e-07
5.00526e-08
-5.0026e-07
4.79411e-08
-4.81017e-07
5.00133e-08
-4.64175e-07
5.22372e-08
-4.50622e-07
5.22315e-08
-4.38073e-07
4.48066e-08
-4.22179e-07
3.02334e-08
1.19805e-08
-4.00527e-07
-5.52179e-07
4.97509e-08
5.94301e-07
-5.28802e-07
4.02389e-08
-5.17658e-07
3.89063e-08
-5.06496e-07
3.67763e-08
-4.91788e-07
3.53049e-08
-4.74787e-07
3.52334e-08
-4.62819e-07
4.02621e-08
-4.53217e-07
3.52031e-08
-4.38815e-07
1.58313e-08
-9.27392e-09
-4.17562e-07
-5.43337e-07
2.11745e-09
5.9097e-07
-5.07897e-07
4.79907e-09
-4.83062e-07
1.40742e-08
-4.57777e-07
1.14902e-08
-4.37362e-07
1.4892e-08
-4.11382e-07
9.25334e-09
-3.97147e-07
2.60275e-08
-3.96936e-07
3.49928e-08
-3.91601e-07
1.04961e-08
-1.80804e-08
-3.82795e-07
-5.63972e-07
-5.24531e-08
6.18546e-07
-5.08121e-07
-5.10583e-08
-4.54968e-07
-3.90782e-08
-4.1138e-07
-3.20991e-08
-3.82924e-07
-1.35639e-08
-3.63162e-07
-1.0508e-08
-3.38472e-07
1.33851e-09
-3.08934e-07
5.45666e-09
-2.93177e-07
-5.26114e-09
-1.42176e-08
-2.97039e-07
-5.52255e-07
-8.49475e-08
5.84751e-07
-5.0495e-07
-9.83642e-08
-4.42386e-07
-1.01643e-07
-3.8429e-07
-9.01946e-08
-3.30544e-07
-6.73108e-08
-2.771e-07
-6.39524e-08
-2.40876e-07
-3.48864e-08
-2.00083e-07
-3.53368e-08
-1.96373e-07
-8.97102e-09
-2.13033e-08
-1.89287e-07
-4.74424e-07
-5.17708e-08
4.41247e-07
-4.91972e-07
-8.08157e-08
-4.62722e-07
-1.30893e-07
-3.82431e-07
-1.70485e-07
-2.93976e-07
-1.55765e-07
-2.20688e-07
-1.3724e-07
-1.59972e-07
-9.56024e-08
-1.00294e-07
-9.5015e-08
-8.1787e-08
-2.7478e-08
-3.05592e-09
-1.00035e-07
-3.12966e-07
-7.42101e-08
3.35404e-07
-3.08049e-07
-8.57352e-08
-3.0526e-07
-1.33682e-07
-2.92987e-07
-1.82758e-07
-2.47509e-07
-2.01244e-07
-1.8523e-07
-1.99518e-07
-1.21814e-07
-1.59017e-07
-8.53302e-08
-1.31499e-07
-3.26396e-08
-8.01691e-08
-2.98446e-08
-5.8518e-09
-7.1894e-08
-1.03007e-07
1.00689e-07
-7.47516e-08
-8.28785e-08
-9.13567e-08
-1.17077e-07
-5.69263e-08
-2.17188e-07
-2.97656e-08
-2.28405e-07
-1.82041e-08
-2.11079e-07
5.63353e-09
-1.82854e-07
3.22343e-08
-1.581e-07
7.37226e-08
-1.21658e-07
-4.3671e-08
8.7549e-08
1.41699e-07
-1.22627e-07
-1.22079e-07
1.73754e-07
-1.14936e-07
1.86481e-07
-1.29804e-07
1.52842e-07
-1.8355e-07
1.44379e-07
-2.19941e-07
1.50848e-07
-2.17548e-07
1.67598e-07
-1.99605e-07
1.71793e-07
-1.62296e-07
1.61801e-07
-1.11667e-07
-1.74494e-08
1.3558e-07
1.97941e-07
-1.3691e-07
-1.83658e-07
2.31614e-07
-1.48609e-07
2.57638e-07
-1.55828e-07
2.58869e-07
-1.8478e-07
2.53547e-07
-2.14617e-07
2.49908e-07
-2.13909e-07
2.5125e-07
-2.00948e-07
2.48509e-07
-1.59556e-07
1.89995e-07
-5.31527e-08
5.41286e-08
1.18416e-07
2.47928e-07
-1.39497e-07
-2.45341e-07
2.5289e-07
-1.53571e-07
2.69871e-07
-1.72809e-07
2.85608e-07
-2.00517e-07
2.89227e-07
-2.18237e-07
2.93663e-07
-2.18346e-07
2.93613e-07
-2.009e-07
2.37536e-07
-1.0348e-07
5.13935e-08
1.32987e-07
1.56197e-07
-5.06791e-08
2.60399e-07
-1.33952e-07
-2.65944e-07
2.5554e-07
-1.48711e-07
2.6565e-07
-1.82919e-07
2.80296e-07
-2.15165e-07
2.81511e-07
-2.19452e-07
2.68702e-07
-2.05536e-07
2.00905e-07
-1.33102e-07
8.14973e-08
1.59287e-08
-1.87315e-08
2.33215e-07
2.16565e-07
-7.90983e-08
2.00352e-07
-1.32231e-07
-2.02073e-07
2.03739e-07
-1.52101e-07
2.14188e-07
-1.9337e-07
2.08295e-07
-2.09272e-07
1.75724e-07
-1.86883e-07
1.11355e-07
-1.41168e-07
1.3682e-08
-3.54332e-08
-3.44075e-08
6.40136e-08
4.80642e-08
1.5074e-07
2.17847e-07
4.67809e-08
1.09134e-07
-1.35499e-07
-1.05867e-07
1.1781e-07
-1.60778e-07
1.03064e-07
-1.78622e-07
7.96031e-08
-1.8581e-07
2.6684e-08
-1.33962e-07
-4.39929e-08
-7.0491e-08
-9.2384e-08
1.29578e-08
-1.14916e-07
8.65466e-08
-7.89456e-10
3.6616e-08
1.32107e-07
8.49522e-08
1.99788e-08
-1.46965e-07
-8.51378e-09
2.34251e-08
-1.64224e-07
1.35308e-08
-1.68728e-07
-6.30574e-09
-1.65974e-07
-4.36963e-08
-9.65742e-08
-1.32163e-07
1.79721e-08
-1.53017e-07
3.38097e-08
-9.20873e-08
2.56157e-08
-5.11748e-08
-4.29731e-09
5.18912e-08
2.90399e-08
-1.583e-08
-1.52047e-07
2.09131e-08
-7.91533e-09
-1.72138e-07
-3.14089e-09
-1.73502e-07
-6.3683e-09
-1.62746e-07
1.17874e-08
-1.1473e-07
3.62062e-08
-6.4463e-09
8.08189e-08
-1.08017e-08
1.49908e-07
-4.34729e-08
1.61951e-07
-1.63389e-08
2.89783e-08
1.84862e-07
-1.73572e-08
-1.46071e-07
1.13801e-08
-9.37377e-09
-1.80126e-07
5.14816e-10
-1.83391e-07
6.37605e-09
-1.68607e-07
2.92026e-08
-1.37556e-07
1.09327e-07
-8.65709e-08
1.7294e-07
-7.44146e-08
2.02117e-07
-7.26501e-08
2.03409e-07
-1.76322e-08
2.31436e-08
2.09241e-07
1.03903e-07
-1.4486e-07
-1.05114e-07
9.94851e-08
-1.75704e-07
9.83196e-08
-1.82226e-07
1.07076e-07
-1.77364e-07
1.28979e-07
-1.59458e-07
1.80042e-07
-1.37634e-07
2.17895e-07
-1.12268e-07
2.2406e-07
-7.88163e-08
2.38756e-07
-3.23278e-08
-5.23195e-09
2.67131e-07
1.92365e-07
-1.62297e-07
-1.74925e-07
2.02959e-07
-1.863e-07
2.14346e-07
-1.93614e-07
2.26098e-07
-1.89116e-07
2.47243e-07
-1.80603e-07
2.79469e-07
-1.69859e-07
3.14283e-07
-1.47082e-07
3.46237e-07
-1.10771e-07
3.74574e-07
-6.06648e-08
-2.18082e-09
3.71524e-07
2.30195e-07
-1.89383e-07
-2.03112e-07
2.50854e-07
-2.06959e-07
2.75319e-07
-2.18078e-07
3.04645e-07
-2.18443e-07
3.36535e-07
-2.12494e-07
3.63347e-07
-1.9667e-07
3.91477e-07
-1.75212e-07
4.31829e-07
-1.51123e-07
4.73547e-07
-1.02383e-07
-1.7082e-08
4.88449e-07
2.9143e-07
-2.15769e-07
-2.65046e-07
3.21541e-07
-2.37068e-07
3.52485e-07
-2.49023e-07
3.82648e-07
-2.48605e-07
4.08907e-07
-2.38754e-07
4.22078e-07
-2.09842e-07
4.2349e-07
-1.76625e-07
4.23676e-07
-1.51308e-07
4.37504e-07
-1.16211e-07
-4.6848e-08
4.6727e-07
3.87847e-07
-2.47978e-07
-3.55637e-07
4.15279e-07
-2.64502e-07
4.33257e-07
-2.67003e-07
4.44966e-07
-2.60313e-07
4.50185e-07
-2.43972e-07
4.43797e-07
-2.03454e-07
4.18704e-07
-1.51531e-07
3.82851e-07
-1.15456e-07
3.4994e-07
-8.32997e-08
-4.30557e-08
3.46147e-07
4.08368e-07
-2.81632e-07
-3.74715e-07
4.315e-07
-2.87634e-07
4.48087e-07
-2.8359e-07
4.58414e-07
-2.70641e-07
4.55818e-07
-2.41374e-07
4.15402e-07
-1.63039e-07
3.39042e-07
-7.51704e-08
2.84801e-07
-6.12144e-08
2.58994e-07
-5.74919e-08
-4.63423e-08
2.6228e-07
3.68568e-07
-2.99215e-07
-3.50986e-07
3.83199e-07
-3.02265e-07
3.98641e-07
-2.99032e-07
4.101e-07
-2.821e-07
3.7671e-07
-2.07985e-07
2.67059e-07
-5.33896e-08
1.91844e-07
4.28147e-11
1.65556e-07
-3.49263e-08
1.73105e-07
-6.5041e-08
-6.23465e-08
1.8911e-07
2.66303e-07
-2.8753e-07
-2.77988e-07
2.54417e-07
-2.90375e-07
2.38038e-07
-2.82652e-07
1.93924e-07
-2.37986e-07
1.29878e-07
-1.4394e-07
1.10535e-07
-3.40475e-08
1.27707e-07
-1.71303e-08
1.40462e-07
-4.76798e-08
1.50563e-07
-7.51442e-08
-7.33516e-08
1.61568e-07
1.48436e-07
-2.58829e-07
-1.77135e-07
1.17101e-07
-2.59039e-07
8.72247e-08
-2.52777e-07
4.91212e-08
-1.99881e-07
2.31599e-08
-1.17979e-07
5.82076e-08
-6.9092e-08
9.04136e-08
-4.93344e-08
1.00165e-07
-5.74307e-08
1.13296e-07
-8.8277e-08
-1.08057e-07
1.48003e-07
6.40973e-08
-2.12679e-07
-1.10247e-07
2.96959e-08
-2.2464e-07
-3.36494e-09
-2.19717e-07
-2.46932e-08
-1.78553e-07
-1.62254e-08
-1.26448e-07
1.46406e-08
-9.99571e-08
2.86798e-08
-6.33736e-08
4.19782e-08
-7.073e-08
6.23564e-08
-1.08655e-07
-1.04983e-07
5.92847e-08
-8.21256e-08
-1.94172e-07
6.3618e-08
-8.41429e-08
-2.22622e-07
-8.07575e-08
-2.23104e-07
-7.17452e-08
-1.87566e-07
-4.57523e-08
-1.5244e-07
-1.6276e-08
-1.29434e-07
1.81978e-08
-9.78483e-08
5.50482e-08
-1.07581e-07
9.04111e-08
-1.44017e-07
-1.23708e-07
1.09136e-07
-1.60436e-07
-2.43225e-07
2.0949e-07
-1.29727e-07
-2.53329e-07
-1.13139e-07
-2.39689e-07
-9.74014e-08
-2.03304e-07
-7.02147e-08
-1.79625e-07
-3.26221e-08
-1.67025e-07
2.62738e-08
-1.56743e-07
7.67855e-08
-1.58094e-07
9.13278e-08
-1.58559e-07
-1.45386e-07
1.13006e-07
-2.12769e-07
-2.91253e-07
2.60797e-07
-1.77686e-07
-2.88411e-07
-1.66631e-07
-2.50744e-07
-1.66676e-07
-2.03262e-07
-1.53923e-07
-1.92378e-07
-1.28328e-07
-1.92622e-07
-8.76476e-08
-1.97424e-07
-4.20956e-08
-2.03647e-07
-4.83773e-09
-1.95818e-07
-1.64696e-07
1.44729e-08
-2.87683e-07
-3.06844e-07
3.03274e-07
-2.59999e-07
-3.16093e-07
-2.26856e-07
-2.83884e-07
-2.02827e-07
-2.27291e-07
-1.83762e-07
-2.11443e-07
-1.53114e-07
-2.23268e-07
-1.16041e-07
-2.34497e-07
-8.01268e-08
-2.39558e-07
-5.32161e-08
-2.22729e-07
-1.74354e-07
-4.35583e-08
-3.47451e-07
-2.96304e-07
3.36911e-07
-3.34131e-07
-3.29423e-07
-2.85201e-07
-3.32814e-07
-2.18704e-07
-2.9379e-07
-1.53763e-07
-2.76385e-07
-1.12946e-07
-2.64087e-07
-8.53575e-08
-2.62085e-07
-6.25076e-08
-2.62408e-07
-6.40854e-08
-2.21151e-07
-1.52817e-07
-8.56229e-08
-3.2647e-07
-2.25501e-07
2.55664e-07
-3.38217e-07
-3.17677e-07
-2.88541e-07
-3.8249e-07
-2.19458e-07
-3.6287e-07
-1.54318e-07
-3.41526e-07
-1.00187e-07
-3.18216e-07
-7.50064e-08
-2.87265e-07
-6.69048e-08
-2.70508e-07
-1.06053e-07
-1.82002e-07
-9.24039e-08
-1.66464e-07
-3.36992e-08
-6.955e-08
-1.22251e-07
-1.90525e-07
-1.60853e-07
-1.75191e-07
-3.97822e-07
-1.46833e-07
-3.91229e-07
-1.20639e-07
-3.6772e-07
-9.32862e-08
-3.45568e-07
-6.59299e-08
-3.14622e-07
-5.31505e-08
-2.8329e-07
-6.23195e-08
-1.72835e-07
-4.54144e-08
-1.0931e-07
2.59377e-07
1.34898e-07
-4.63826e-07
2.4912e-08
7.36136e-08
-1.95357e-08
-3.53374e-07
-3.52e-08
-3.75565e-07
-4.51275e-08
-3.57793e-07
-3.93829e-08
-3.51314e-07
-1.60177e-08
-3.37986e-07
1.01932e-08
-3.09499e-07
5.49842e-08
-2.17625e-07
-5.63172e-08
6.58875e-08
-7.49068e-08
3.70477e-07
-1.60661e-07
2.08416e-08
-2.21284e-08
2.99123e-08
-3.62446e-07
9.27175e-09
-3.54924e-07
7.54184e-09
-3.56063e-07
-1.45032e-09
-3.42323e-07
1.91694e-09
-3.41355e-07
3.75841e-09
-3.11341e-07
4.91733e-09
-2.18784e-07
-6.05456e-08
9.14561e-09
-4.11523e-08
4.90945e-07
-7.93179e-08
1.47416e-07
-2.10698e-07
9.64662e-08
-3.11495e-07
6.37317e-08
-3.2219e-07
2.84977e-08
-3.20828e-07
6.51632e-09
-3.2034e-07
-1.49318e-08
-3.19906e-07
-3.03825e-08
-2.9589e-07
-8.3017e-08
-1.6615e-07
-5.34877e-09
-1.38216e-07
1.38734e-07
9.34331e-08
2.58765e-07
1.53927e-07
-2.2589e-07
1.0808e-07
-2.65648e-07