/*--------------------------------*- C++ -*----------------------------------*\
  =========                 |
  \\      /  F ield         | OpenFOAM: The Open Source CFD Toolbox
   \\    /   O peration     | Website:  https://openfoam.org
    \\  /    A nd           | Version:  8
     \\/     M anipulation  |
\*---------------------------------------------------------------------------*/
FoamFile
{
    version     2.0;
    format      ascii;
    class       volScalarField;
    location    "3.2";
    object      p_rgh;
}
// * * * * * * * * * * * * * * * * * * * * * * * * * * * * * * * * * * * * * //

dimensions      [1 -1 -2 0 0 0 0];

internalField   nonuniform List<scalar> 
9150
(
1963.17
1962.17
1961.55
1961.07
1960.83
1960.84
1961.08
1961.55
1962.16
1963.17
1962.74
1962.22
1961.81
1961.48
1961.32
1961.3
1961.47
1961.8
1962.22
1962.74
1962.47
1962.18
1961.93
1961.71
1961.6
1961.6
1961.71
1961.93
1962.18
1962.46
1962.35
1962.17
1962.01
1961.85
1961.76
1961.77
1961.85
1962
1962.17
1962.35
1962.35
1962.17
1962.03
1961.91
1961.83
1961.84
1961.9
1962.03
1962.16
1962.35
1951.45
1950.59
1950.84
1951.25
1951.41
1951.4
1951.23
1950.8
1950.54
1951.39
1955.46
1954.74
1954.54
1954.48
1954.57
1954.57
1954.47
1954.52
1954.72
1955.43
1958.54
1957.79
1957.49
1957.12
1957.07
1957.07
1957.13
1957.48
1957.79
1958.54
1961.27
1960.14
1959.69
1959.05
1958.89
1958.89
1959.06
1959.69
1960.14
1961.26
1963.89
1961.82
1961.07
1960.36
1960.09
1960.09
1960.35
1961.06
1961.81
1963.88
1947.14
1945.42
1943.3
1942.25
1941.76
1941.81
1942.36
1943.32
1944.99
1945.75
1946.14
1945.88
1944.86
1944.42
1943.92
1943.87
1944.22
1944.48
1945.37
1945.49
1945.65
1945.73
1944.7
1945.02
1944.56
1944.44
1944.92
1944.48
1945.46
1945.32
1942.36
1945.14
1944.11
1945.64
1945.43
1945.38
1945.59
1943.97
1945
1942.19
1936.04
1945.77
1946.18
1947.64
1947.98
1947.94
1947.57
1946.06
1945.65
1935.91
618.689
619.345
620.915
623.103
623.027
628.174
629.742
635.384
639.136
637.386
616.828
617.609
617.626
618.267
620.486
622.407
624.809
632.655
632.808
631.224
615.18
613.602
615.313
616.535
619.563
624.865
627.037
629.443
631.025
627.155
611.961
612.024
612.669
615.429
618.112
619.46
620.932
622.998
626.106
628.851
610.107
610.896
612.137
613.577
614.973
616.233
617.144
615.469
620.674
627.038
610.371
611.708
612.995
614.325
615.921
617.127
610.11
608.258
610.011
628.481
611.253
612.836
613.803
615.45
618.05
619.537
601.662
604.178
606.653
615.205
609.877
607.957
602.782
583.955
578.408
594.156
597.177
599.139
604.233
608.345
568.843
573.923
551.196
525.966
527.049
542.6
576.087
591.393
606.3
612.143
526.995
512.105
509.79
508.397
507.203
507.818
526.46
569.831
592.647
579.576
506.572
502.084
496.761
494.56
494.016
520.589
550.213
567.013
588.302
574.827
511.656
506.388
500.799
520.816
554.786
576.556
568.875
557.54
566.76
586.541
580.13
571.467
588.715
584.203
575.313
569.193
534.316
498.872
496.767
537.449
609.703
601.579
591.799
579.056
566.848
556.934
529.011
474.323
468.755
466.33
602.699
591.255
579.191
566.796
552.392
541.504
534.75
529.692
509.96
435.968
562.301
550.664
537.408
524.173
508.86
484.915
456.866
447.496
459.204
449.351
482.642
425.099
370.87
334.062
301.699
254.353
218.423
225.88
264.145
241.863
234.588
203.259
201.196
200.017
199.614
199.659
199.73
199.576
198.46
196.708
199.693
199.051
198.808
198.508
198.08
197.982
198.179
198.551
198.834
199.314
198.828
198.518
198.311
198.239
198.273
198.406
198.667
199.001
199.347
199.683
198.322
198.153
198.124
198.259
198.345
198.33
198.398
198.607
199.093
227.457
197.884
197.941
198.094
198.246
198.292
198.189
197.973
198.258
234.248
449.264
198.349
198.284
198.46
198.603
198.638
198.414
198.233
203.111
416.757
579.42
225.887
199.089
198.867
198.956
198.926
198.861
198.694
307.9
577.601
591.296
545.158
348.339
221.417
198.458
198.26
198.011
231.796
529.175
610.371
604.698
651.501
655.916
533.096
322.627
202.904
202.018
406.132
625.121
622.249
594.518
661.088
665.016
666.701
651.983
410.521
257.813
524.612
626.321
628.968
584.251
673.167
678.642
680.072
678.423
634.382
387.6
479.762
639.97
638.42
641.688
686.238
697.292
698.758
699.188
688.99
395.296
277.814
576.349
650
655.574
688.568
702.39
710.454
708.122
706.795
499.878
237.699
218.791
428.099
559.599
510.249
696.088
705.615
708.009
712.866
684.721
310.242
201.413
201.798
201.881
293.883
625.727
704.94
712.815
719.422
726.321
449.921
199.946
200.209
200.529
289.631
354.969
727.865
732.232
736.065
743.546
494.162
200.963
201.022
201.205
305.559
312.775
705.75
760.688
760.857
763.992
529.674
205.287
204.291
208.792
356.622
309.058
448.635
789.337
787.996
785.963
603.653
243.617
236.883
555.754
551.654
335.125
355.391
819.849
818.371
809.243
689.899
350.084
527.631
804.859
744.475
356.457
327.754
537.53
839.561
834.269
768.145
450.131
574.508
828.425
741.608
329.322
313.703
344.636
799.442
875.084
857.603
570.682
494.439
628.007
727.734
275.26
273.901
279.968
642.084
899.907
886.659
852.255
576.529
554.07
818.833
317.86
222.516
234.59
620.409
859.133
894.358
888
877.164
849.68
669.844
499.326
192.765
255.055
708.924
642.11
402.843
781.259
876.489
867.433
95.5381
523.353
246.783
219.826
705.823
719.12
215.579
206.131
450.299
774.946
37.2793
186.075
211.219
176.875
694.491
697.26
165.715
154.047
196.828
660.993
39.0451
40.7299
61.9307
169.042
676.039
709.903
160.726
139.284
475.018
608.521
118.635
157.82
105.507
135.785
674.749
727.579
147.206
166.169
160.93
43.6197
117.355
165.474
169.739
190.345
684.413
735.549
152.106
70.6559
2.54695
2.60733
23.4524
113.75
119.696
148.213
730.985
727.383
89.1481
8.04852
2.67206
2.69009
30.2863
74.9458
31.9744
22.8644
742.405
750.829
20.7199
4.62329
2.45891
2.44706
16.1345
1.30692
5.57198
3.34782
731.615
713.234
7.97264
5.4583
2.42298
2.04384
0.505651
0.347606
1.79484
0.138804
660.296
662
2.7604
6.84254
4.9241
2.29349
0.0720636
0.110246
0.169964
0.180364
607.783
603.196
0.560373
1.34719
1.55
2.45655
0.0605768
0.0750026
0.0984598
0.106447
589.462
592.4
0.445904
0.450239
0.38484
0.486295
0.0196443
0.0360052
0.0521873
0.0608741
606.626
608.535
0.39366
0.377704
0.386981
0.335312
-0.00282714
0.0097404
0.0378899
0.0359028
705.921
701.951
0.564216
0.617688
1.9096
0.367499
-0.00693979
0.0805126
0.0470659
0.613094
824.757
824.261
0.55905
0.553706
2.50513
1.62302
0.0033339
0.315872
0.0526707
16.7181
906.753
909.08
17.2248
0.362967
2.44266
2.67397
0.0219677
0.340866
0.0644405
61.5044
955.472
952.964
61.5371
0.253324
0.228844
1.26145
0.0943532
0.372327
0.093277
100.583
975.599
982.164
102.419
0.142558
0.129612
0.116132
0.501464
0.402476
0.145429
121.846
987.131
1003.65
122.3
0.064104
0.0788004
0.0846876
0.736447
0.403
0.102652
130.771
1028.38
991.834
120.705
0.0868358
0.124821
0.188081
0.794441
0.42501
0.142296
100.182
1027.69
1026.11
106.152
0.0649193
0.16611
0.632341
0.848739
0.44538
0.153927
61.3081
1011.76
1018.91
61.6338
0.0663114
0.188435
0.664198
0.963953
0.527344
0.170831
24.9838
963.982
964.043
25.9503
0.0608079
0.0818522
0.381803
1.03159
0.606242
0.191451
6.79653
927.006
925.897
5.76119
0.053559
0.0578533
0.0525903
1.08821
0.670179
0.212475
0.23651
916.094
917.894
0.0776013
0.0717661
0.0708085
0.0667845
1.11357
0.660025
0.214342
1.12911
928.58
919.979
0.118863
0.109366
0.0963771
0.0861525
1.12539
0.613364
0.222671
4.2862
978.378
970.987
0.728635
0.124983
0.108828
0.104469
1.14424
0.687088
0.258502
33.9464
1073.22
1077.42
35.1525
0.104741
0.10287
0.111224
1.1617
0.529753
0.265374
90.0834
1175.78
1174.24
89.8788
0.0889991
0.211274
0.098587
1.05178
0.25676
0.241828
157.183
1238.21
1238.38
157.21
0.0600544
0.232502
0.0960059
0.619497
0.19074
0.202002
208.325
1264.52
1276.13
211.417
0.0199866
0.202062
0.160503
0.525543
0.190404
0.165181
229.626
1271.79
1304.3
236.32
-0.0211136
0.179674
0.288799
0.439966
0.197115
0.103834
234.757
1291.18
1318.96
237.175
-0.0137025
0.113917
0.298815
0.223279
0.218482
0.0312795
212.548
1318.56
1318.39
212.772
0.0366027
0.124248
0.32265
0.210577
0.297808
-0.0202297
189.064
1339.14
1315.87
183.079
0.0972304
0.207142
0.315434
0.496698
0.355643
-0.0117543
175.747
1358.28
1322.99
171.328
0.126719
0.327892
0.114189
0.888702
0.717714
0.100223
168.146
1349.04
1372.6
175.634
0.0606722
0.301366
0.253043
0.909313
0.518152
0.102242
203.726
1409.92
1400.07
198.781
0.0725762
0.299875
0.342401
0.840096
0.183249
0.0960409
269.03
1453.69
1454.01
268.435
0.053046
0.16411
0.332468
0.901245
0.419963
0.0697372
326.54
1490.63
1495.19
328.666
0.0282792
0.0722715
0.234862
0.919341
0.523719
0.068749
368.068
1522.31
1525.87
368.924
0.0104725
0.0169213
0.0144697
0.791827
0.373152
0.0749263
405.381
1549.41
1556.45
408.032
0.000731654
0.00609864
0.00917875
0.129785
0.121277
0.0577117
450.159
1578
1585.81
453.794
-0.00217389
0.00352593
0.00647038
0.0303335
0.0429516
0.0370855
501.675
1607.77
1613.11
504.822
-0.000237471
0.00462442
0.00668192
0.0189401
0.0448232
0.0190893
570.079
1639.82
1639.36
569.854
0.010658
0.0259222
0.143019
0.0122966
0.0430163
0.00872361
645.74
1667.88
1665.79
644.478
0.024922
0.188729
0.419538
0.0103363
0.0315147
0.0049416
731.261
1693.72
1690.48
728.883
0.0332486
0.290969
0.424471
0.014007
0.012996
0.00864271
820.971
1716.41
1713.83
818.543
0.0304432
0.237349
0.423976
0.0238535
0.0190044
0.0172406
923.276
1735.99
1738.22
922.843
0.0117723
0.0387409
0.384056
0.0410495
0.0226829
0.0231982
1036.65
1755.84
1761.04
1039.01
-0.0156828
-0.00694854
-0.00597681
0.0295303
0.0219346
0.0213295
1176.77
1777.93
1779.58
1177.22
-0.0177934
-0.0123242
-0.0107378
0.011837
0.013199
0.0158703
1335.5
1798.71
1797.38
1333.9
-0.000516668
-0.0110967
-0.00824372
0.000668127
0.00142905
44.3422
1490.91
1816.19
1817.57
1491.11
43.1534
-0.00520081
0.0436117
-0.00479635
-0.00731134
212.938
1626.31
1835.59
1835.94
1626.9
186.219
-0.00035481
0.0905409
0.00136325
-0.00184997
467.926
1771.35
1854.75
1853.89
1731.12
346.745
-6.13211e-05
0.0147502
0.0079949
0.00751416
817.269
1857.18
1873.81
1873.42
1821.27
671.577
-0.00931146
-0.00473973
0.0119831
0.0107486
1179.65
1891.04
1892.52
1892.8
1892.25
1272.37
0.0307622
-0.00192656
0.00830706
136.5
1645.45
1910.19
1911.3
1911.34
1910.33
1679.55
172.812
-0.00142879
-0.00197383
1073.23
1925.63
1926.73
1926.78
1926.79
1926.6
1925.4
1095.99
-0.00490182
616.932
1877.89
1939.65
1937.65
1936.57
1936.3
1937.04
1938.98
1883.72
666.275
635.919
633.866
633.377
637.447
638.327
639.349
639.403
639.124
640.35
641.868
643.368
644.768
646.316
647.481
647.505
646.466
644.592
640.974
636.63
632.64
629.215
626.302
623.718
621.035
618.427
616.411
615.838
618.89
625.041
630.846
628.874
623.163
624.677
630.039
638.479
647.958
654.106
662.012
657.129
656.93
631.335
630.036
629.943
630.841
635.456
641.348
638.975
638.967
638.185
640.317
641.707
643.096
644.493
645.733
646.369
646.906
645.304
640.487
635
630.625
626.477
623.099
620.098
616.189
611.325
606.385
603.471
606.479
606.138
602.032
603.818
601.489
609.917
619.628
628.328
638.173
646.823
651.397
649.676
647.05
627.731
628.303
629.098
630.799
633.639
633.064
633.953
634.311
634.781
640.35
641.155
641.758
642.381
642.973
643.354
643.619
642.334
636.717
630.306
626.574
624.315
621.435
618.473
614.536
610.174
604.763
595.674
577.548
580.72
581.717
583.549
593.77
595.009
596.84
602.937
613.41
623.659
630.972
634.503
636.534
626.786
630.853
637.045
635.238
642.7
639.207
639.564
638.285
643.125
642.008
641.044
640.874
640.376
639.566
638.513
637.523
635.831
629.018
626.255
625.303
623.053
619.782
618.051
615.632
607.691
586.035
575.672
570.541
564.827
565.929
578.799
575.925
571.149
557.023
550.908
564.84
591.51
608.437
616.958
620.688
632.491
635.026
637.086
638.74
640.416
639.931
634.794
639.624
642.945
642.575
642.032
640.262
635.382
636.973
636.638
634.448
630.736
618.568
615.155
627.593
620.857
616.239
624.064
618.815
594.03
576.746
572.598
564.617
553.586
562.674
575.718
572.822
541.657
526.768
527.158
530.607
580.051
603.877
605.304
609.819
628.173
624.764
629.985
636.975
639.546
641.284
636.264
632.549
632.046
641.731
644.577
636.438
631.086
628.908
642.142
635.806
616.578
612.111
606.003
628.36
621.507
618.448
623.682
621.462
611.752
576.069
568.064
561.664
552.521
552.907
562.974
534.248
539.854
541.159
530.809
532.567
568.926
599.822
605.661
602.03
614.797
620.28
621.91
636.373
641.371
643.987
646.068
632.571
630.549
628.846
637.915
648.872
634.883
632.08
650.611
629.985
615.57
612.446
608.969
632.844
621.678
614.414
612.706
624.961
623.324
614.211
582.27
567.257
565.489
570.056
572.945
578.88
584.35
591.12
587.863
546.105
584.516
599.518
604.314
599.754
613.889
618.056
626.256
640.914
644.166
647.388
650.294
652.991
654.072
634.338
634.849
639.558
640.36
638.418
654.856
638.218
617.77
614.457
612.99
635.392
631.679
613.116
610.793
612.114
612.825
610.723
607.35
605.44
603.11
600.169
593.391
589.495
591.52
595.544
597.023
575.908
590.258
603.781
580.5
601.301
617.553
633.437
640.509
644.276
646.998
647.209
650.057
655.306
657.801
660.17
654.733
643.658
644.301
641.6
649.332
648.202
631.927
614.308
620.923
629.461
625.658
622.559
618.921
613.767
614.361
606.776
606.894
607.669
596.437
589.682
584.985
581.576
580.641
607.97
611.097
586.624
602.196
603.365
559.238
613.007
586.353
604.379
612.061
615.903
616.912
609.254
620.967
641.369
656.042
661.486
663.336
664.541
655.93
640.423
639.584
644.533
644.213
627.615
629.665
624.039
619.092
614.453
605.921
604.097
607.617
605.955
606.898
613.977
616.134
606.079
591.756
591.41
592.01
604.742
627.24
629.183
629.587
582.219
560.438
609.532
575.13
574.991
583.729
591.898
597.378
600.966
608.982
620.299
617.459
630.397
658.529
659.198
657.605
640.591
628.558
621.842
638.85
636.379
628.806
622.162
616.304
612.1
608.747
606.916
598.048
578.953
580.15
600.684
605.366
610.289
605.42
593.724
615.134
628.673
634.989
641.154
639.403
557.034
555.241
617.699
601.192
617.601
621.248
595.572
591.55
596.97
625.882
644.466
612.337
610.488
608.761
624.686
650.706
650.609
645.18
608.943
579.269
582.411
621.153
623.323
620.51
617.965
615.538
614.098
613.24
602.43
538.077
534.352
594.096
616.505
618.658
617.95
614.005
587.32
578.377
596.155
603.522
554.776
558.756
644.03
582.613
599.117
615.363
629.899
631.792
598.337
603.404
631.365
637.356
627.252
599.223
599.573
631.993
648.596
643.381
580.93
568.478
565.128
577.506
625.965
626.182
625.309
625.076
625.258
626.125
624.145
534.562
529.723
544.446
625.099
630.534
620.56
497.271
438.967
443.514
457.201
498.392
558.266
630.798
648.959
496.298
574.704
590.999
604.83
616.922
624.254
595.953
579.476
578.516
621.005
637.975
636.811
635.5
635.589
587.756
560.547
558.342
556.198
565.546
626.957
629.086
628.88
629.244
630.696
633.234
606.661
527.033
529.176
532.16
614.538
648.611
614.234
451.87
435.705
435.813
436.474
485.19
552.366
638.785
652.702
397.488
404.572
497.076
566.397
578.792
585.725
592.482
575.493
549.122
549.812
601.434
623.889
623.705
623.782
609.323
548.155
547.103
545.735
545.256
609.367
629.071
631.023
632.093
633.992
621.197
530.934
526.672
529.683
533.485
626.058
660.334
651.766
461.875
435.686
436.379
435.03
463.641
575.124
646.614
665.721
360.084
238.464
261.532
408.832
528.167
543.628
554.823
561.461
570.749
524.446
526.316
586.171
608.667
611.208
614.407
601.752
534.369
534.474
536.222
540.573
620.693
633.32
636.464
639.331
595.99
523.12
526.199
528.571
558.866
656.304
666.315
670.543
625.99
444.757
438.281
443.254
537.82
582.967
643.379
675.792
200.538
205.327
211.364
221.698
370.171
512.353
520.722
520.02
519.919
448.612
404.463
528.942
585.782
594.618
602.132
608.933
592.477
523.937
527.664
532.238
547.711
628.153
638.632
642.941
642.338
554.502
528.379
559.642
653.771
663.684
667.478
671.669
668.955
511.357
517.589
587.841
532.739
511.357
601.988
679.067
196.523
203.418
208.121
208.075
233.555
402.921
507.569
430.674
326.513
306.303
327.364
474.762
574.875
584.204
592.639
598.122
604.537
552.106
518.427
524.628
530.445
582.287
638.434
644.682
648.551
641.526
633.559
652.734
658.518
660.236
615.586
650.065
668.405
665.273
684.759
656.993
487.748
470.731
522.706
678.179
200.483
204.802
243.836
276.214
274.492
275.66
276.511
278.554
286.778
305.086
375.148
542.657
573.149
578.27
583.857
588.959
595.27
556.154
508.869
515.017
521.496
587.664
637.264
647.081
652.572
655.506
657.449
658.823
653.542
597.556
597.84
602.254
648.413
680.998
686.222
690.566
521.358
470.006
499.873
674.551
209.426
335.165
440.588
469.732
421.116
407.407
425.401
452.683
471.602
510.381
565.531
569.525
566.656
568.028
572.266
578.691
586.134
564.478
502.649
510.642
572.675
620.817
633.807
647.401
655.861
658.35
657.838
634.934
584.655
587.383
592.376
597.163
621.687
680.411
686.977
693.567
645.143
468.984
471.822
677.327
356.163
478.445
560.407
567.969
569.203
570.274
570.569
567.955
564.489
560.776
555.698
550.186
553.932
559.476
565.78
572.732
580.259
584.779
574.798
589.097
592.219
587.665
566.585
628.055
651.876
655.242
628.207
575.96
578.718
582.938
587.905
592.718
649.878
680.139
687.647
696.012
679.8
465.139
483.178
713.78
533.041
508.006
457.902
453.341
439.489
431.046
493.213
560.375
561.371
558.654
555.67
555.764
558.317
564.745
570.734
576.621
581.213
583.868
585.316
583.14
549.971
415.378
375.992
476.387
598.363
649.76
590.051
568.538
573.192
577.72
591.163
654.406
672.206
677.376
684.443
693.471
586.498
449.257
507.213
730.105
579.59
513.703
385.737
383.137
379.182
376.188
371.906
543.769
566.787
564.955
563.817
567.881
571.858
576.135
580.385
584.163
585.207
578.112
489.832
413.938
350.498
334.433
346.817
356.121
542.366
643.711
587.399
563.743
567.229
625.578
661.979
664.256
666.041
668.299
674.05
598.432
399.643
420.662
656.354
715.276
586.048
578.717
460.199
383.45
379.623
388.802
415.087
547.385
573.831
574.948
578.46
582.187
585.818
589.368
592.925
596.826
558.234
354.819
321.625
324.821
330.58
338.953
346.3
367.336
566.7
642.795
588.431
582.301
638.287
645.01
645.73
626.969
666.252
590.872
449.79
359.131
367.755
443.676
662.409
701.152
585.896
567.916
558.626
555.451
549.579
582.945
579.019
557.035
548.402
568.99
581.224
585.816
599.42
603.475
559.943
471.294
334.348
332.586
334.665
338.915
344.751
350.436
353.354
533.377
636.853
633.56
608.567
640.715
638.523
523.015
375.187
341.481
377.446
339.231
338.835
346.89
351.456
565.871
655.681
699.002
540.151
535.035
608.069
623.669
619.794
617.686
606.777
484.213
480.821
481.903
507.662
596.344
613.646
622.244
589.38
468.683
368.57
342.518
345.865
349.136
365.805
417.969
562.241
657.076
658.145
645.419
646.887
645.415
422.151
294.421
297.621
306.571
318.369
330.177
341.517
347.324
457.845
596.619
637.926
701.548
551.37
548.824
626.803
640.411
637.334
634.385
593.088
495.193
496.324
519.288
639.158
641.768
644.123
646.017
639.017
616.677
613.268
578.833
548.672
565.246
602.925
639.943
661.6
660.62
661.502
664.076
626.876
366.576
277.29
281.9
285.743
291.984
420.417
511.323
572.539
617.55
670.304
673.956
651.731
707.825
586.729
566.539
644.242
654.392
650.325
646.254
540.307
504.636
505.219
506.469
588.698
656.433
658.044
658.405
657.925
657.179
656.833
657.534
658.78
659.77
660.838
661.695
660.465
658.878
659.483
575.9
318.831
258.31
261.754
264.643
270.255
548.217
673.558
677.014
678.715
679.621
581.942
674.428
723.509
722.655
659.736
625.553
623.97
666.706
662.151
660.313
650.891
533.113
512.305
514.275
534.071
653.5
662.359
659.719
656.903
655.151
654.459
655.816
658.468
660.904
662.566
661.809
657.728
653.907
404.088
249.628
246.017
249.436
251.237
250.681
385.764
654.362
666.284
658.628
548.806
554.845
563.95
707.037
717.884
718.051
668.224
675.353
638.936
661.641
676.217
674.132
672.836
672.879
615.413
526.927
666.379
665.854
663.296
657.982
652.876
648.329
649.453
654.218
659.525
664.261
666.289
665.952
628.355
320.772
236.468
239.507
242.909
245.943
248.018
326.459
587.591
659.602
664.805
670.943
564.037
547.956
677.462
699.791
704.206
711.22
446.906
688.919
691.676
669.525
682.943
688.983
675.77
626.394
546.688
546.621
667.58
674.285
669.256
663.168
657.983
655.097
656.778
661.332
666.762
674.013
678.751
661.466
344.69
234.376
237.61
242.805
245.73
289.559
477.348
633.853
676.285
671.836
612.478
531.121
579.967
568.927
652.256
689.399
696.872
699.008
205.92
575.886
718.659
594.358
482.405
535.096
456.773
384.799
376.993
373.913
496.94
684.81
633.547
560.942
667.382
671.197
672.167
626.425
504.99
547.107
672.318
480.119
241.203
239.118
260.053
507.652
584.072
657.423
679.786
680.537
677.452
564.292
488.873
490.594
587.758
615.433
637.216
608.448
705.792
707.896
209.299
537.592
741.257
582.836
396.043
392.545
388.973
385.133
380.893
377.144
380.935
602.646
474.854
442.936
455.568
665.688
672.998
365.519
259.834
264.814
319.156
258.935
246.266
275.936
524.58
535.651
537.51
403.798
492.484
570.061
628.833
489.065
489.659
539.457
554.911
569.06
609.996
591.421
707.447
714.208
448.914
720.065
748.364
726.09
469.664
400.024
395.27
390.729
385.447
455.745
598.639
516.698
450.05
447.041
448.011
600.716
473.275
258.339
259.727
258.107
255.936
254.59
252.829
251.79
430.714
488.728
312.677
311.172
323.043
463.959
538.696
497.648
496.318
629.897
600.388
579.896
584.393
600.277
715.596
727.634
774.647
769.201
764.355
760.541
714.888
480.284
408.62
434.682
600.529
727.233
734.602
572.772
460.852
458.736
468.424
446.181
354.114
343.122
358.439
292.013
258.187
259.164
258.599
259.919
263.187
276.145
292.536
307.905
387.41
487.661
489.186
514.08
563.458
673.658
673.68
634.921
605.917
659.69
740.835
743.546
799.509
792.63
786.584
781.381
776.726
771.868
766.891
763.274
739.018
718.663
749.402
745.38
738.932
551.729
457.832
456.106
492.113
725.103
744.037
640.58
449.885
364.832
356.039
391.507
420.912
434.357
503.471
511.618
513.507
498.292
498.145
513.577
682.656
701.826
642.765
644.028
645.707
751.174
756.468
756.228
820.972
812.864
804.803
798.903
794.252
790.319
786.982
781.928
775.4
770.623
765.666
759.499
754.521
664.384
469.475
489.899
740.125
762.383
765.627
767.235
756.639
736.19
733.589
747.288
745.513
728.393
732.871
678.151
509.973
507.779
506.691
634.63
722.368
739.318
748.526
767.745
766.716
765.623
764.202
763.472
825.072
816.865
821.144
815.065
810.252
807.886
785.997
723.785
789.604
786.216
781.327
776.052
771.014
752.336
570.032
548.065
767.579
769.266
772.739
776.673
779.686
781.497
781.33
780.914
783.833
788.669
742.428
662.104
644.994
722.13
752.808
768.205
772.144
780.138
775.876
772.697
770.501
768.781
767.723
767.29
546.951
573.594
811.553
750.651
723.344
822.062
819.943
698.091
584.712
796.074
795.101
793.263
790.669
786.693
637.144
553.428
632.421
786.387
787.35
789.426
791.204
792.735
785.13
784.576
788.742
794.837
786.426
777.422
785.986
781.705
777.664
775.466
775.382
776.045
774.002
771.325
769.549
768.661
767.94
767.776
683.754
616.41
613.425
610.881
608.365
658.037
819.51
764.277
494.374
449.899
619.191
807.022
806.727
808.479
752.103
577.617
582.063
643.669
801.659
801.891
801.589
801.334
796.204
789.495
798.266
795.314
791.687
788.221
784.143
770.658
708.454
675.406
675.835
689.343
717.814
711.37
713.684
723.943
737.96
743.771
853.785
845.498
840.376
834.451
622.375
461.081
460.333
506.844
527.551
442.301
389.796
603.443
821.039
825.816
822.892
816.597
707.925
630.726
678.681
807.661
811.597
809.586
807.459
804.306
800.449
795.522
790.753
787.741
782.64
647.11
484.101
426.745
324.516
211.906
214.973
182.605
170.79
194.982
229.812
247.254
739.633
757.552
685.474
826.037
724.926
555.851
532.83
396.681
149.511
128.545
397.743
800.129
831.819
828.596
822.186
818.773
819.126
802.994
726.652
746.926
820.367
818.127
814.832
811.33
791.679
770.526
743.091
670.111
518.973
388.025
356.711
299.81
208.034
103.025
7.826
2.01525
1.56386
1.48074
1.45802
1.40238
731.478
585.05
441.057
521.401
689.735
690.992
679.309
658.877
233.435
39.4409
84.5708
315.748
801.336
836.41
745.429
476.842
419.206
507.739
526.221
490.021
499.114
520.135
511.693
432.14
393.221
388.446
363.311
301.849
199.264
105.592
7.14463
0.687188
0.650266
3.76166
23.1224
23.2318
4.21621
1.3422
1.3714
1.42588
691.299
693.723
474.807
257.192
490.224
442.996
323.693
348.302
78.6592
12.9032
24.017
267.3
494.801
508.511
240.308
126.776
125.776
127.305
129.346
135.86
145.244
169.235
146.841
139.902
90.8998
93.1418
85.2212
54.3918
25.6594
12.5662
3.70842
0.641355
0.613316
0.584944
1.16164
1.46603
1.1066
1.29647
2.0371
2.06925
33.6633
44.9148
178.881
208.007
56.0764
4.27536
4.63075
75.5138
10.901
3.4304
15.2815
80.8719
122.362
114.062
73.2146
124.817
136.343
138.965
141.357
133.897
97.3165
53.4856
27.0708
2.92279
2.95193
14.2657
0.722638
0.716354
0.699585
0.669775
0.646993
0.654437
0.608137
0.573085
0.524428
0.527583
0.550154
1.20863
1.69652
1.8956
3.51572
8.49868
4.10891
3.70759
3.59415
3.64529
4.68262
35.0903
2.95203
2.25963
4.84264
1.77824
4.38961
18.4752
36.3871
41.8914
42.718
89.2851
128.975
81.1735
37.1366
19.5794
7.67811
3.38452
2.20287
1.53224
1.38327
0.77294
0.727361
0.661994
0.636003
0.638237
0.577832
0.569182
0.568774
0.573368
0.578013
0.580339
0.594722
1.01652
4.47043
15.6689
9.15537
3.75485
3.66916
3.61822
3.63561
3.44181
3.33169
2.59749
1.9486
2.19844
2.44153
2.64728
2.87364
3.44779
6.22085
6.47444
7.63701
8.89363
21.0758
27.4829
28.7598
27.7789
9.52059
0.704703
0.703979
0.622517
0.607378
0.580494
0.556444
0.600027
0.604227
0.555286
0.550139
0.553024
0.560051
0.573639
0.574449
0.577692
3.16213
19.7825
22.1683
3.70082
4.14329
5.03641
4.00882
4.20616
4.25609
3.77476
3.21717
3.25818
5.65289
9.84259
6.64203
20.9446
24.0819
24.0448
23.8515
9.16947
0.282689
0.392655
0.87272
1.06278
1.19751
0.487645
0.388545
0.5602
0.601001
0.607222
0.609267
0.522751
0.532163
0.540715
0.53016
0.539558
0.550816
0.65803
0.581312
0.576613
2.66007
22.1359
22.1377
22.4307
22.9211
23.2419
9.59769
9.50354
5.08873
4.84594
4.6104
25.5369
28.4084
28.2133
27.8483
27.3505
25.9845
14.2083
0.137158
0.0779827
0.107473
0.224178
0.957814
0.346399
0.25322
0.288381
0.322019
0.457123
0.488974
0.432375
0.434501
0.451628
0.758347
1.09513
0.778659
0.541751
0.552646
0.632957
1.21516
0.737214
1.3119
5.2193
7.8618
7.79368
14.8717
9.8619
19.04
19.959
20.8177
20.9099
19.9032
14.8642
18.7729
18.0517
6.26986
0.192129
0.0317338
0.0217306
0.0275065
0.032021
0.0500999
0.188422
0.886684
0.361733
0.244946
0.277091
0.308444
0.336846
0.362872
0.386562
0.408219
0.427916
1.22745
1.70356
1.70455
0.742282
0.569183
0.677717
1.49834
0.933718
1.45631
0.195352
0.13917
0.978858
0.32399
0.384593
0.430568
0.471507
0.852379
1.27512
0.697817
0.242758
0.216407
0.189107
0.177601
0.147746
0.0984219
0.0644491
0.0451299
0.0453633
0.0614765
0.184553
0.818021
0.502763
0.242143
0.273623
0.30263
0.326019
0.347108
0.369032
0.404786
1.51429
1.67781
1.69459
1.2153
0.553098
0.564264
0.874667
1.47731
0.983059
0.550339
0.294024
0.258146
0.254016
0.51118
1.05314
1.12809
0.741925
0.311903
0.292424
0.28353
0.276861
0.265476
0.234787
0.208367
0.185187
0.154978
0.134591
0.122845
0.119332
0.125179
0.192992
0.58568
0.466526
0.250356
0.282215
0.306965
0.323147
0.539403
1.60003
1.65236
1.66408
1.67968
0.897049
0.511077
0.527279
1.11658
1.15182
1.45445
1.35895
0.348499
0.34903
0.340751
0.324161
0.313172
0.415494
1.18848
1.20778
1.18031
0.387741
0.27474
0.269965
0.260057
0.244309
0.36604
0.804904
0.636238
0.259183
0.180214
0.181581
0.186053
0.197102
0.223302
0.255668
0.260401
0.411958
1.21268
1.61382
1.64084
1.64353
1.65108
0.979118
0.506745
0.471577
0.484944
0.790395
1.42955
1.43893
1.42839
1.03672
1.03029
1.14105
1.0334
0.435808
1.41466
2.71678
1.6968
0.244134
0.226205
0.242613
0.263008
0.252899
0.242915
0.353551
1.90362
2.38655
2.37761
1.75251
0.7805
0.233799
0.225947
0.228381
0.234049
0.236184
0.434757
0.890669
0.914708
0.41727
0.37095
0.604726
0.55447
0.387263
0.414659
0.442529
0.672038
1.39817
1.41357
1.18771
0.647401
0.561746
2.7018
2.72773
2.70267
2.68796
2.67921
2.68191
1.51108
0.195923
0.19693
0.20151
0.204752
0.245531
0.351313
1.57481
2.39093
2.39218
2.39621
2.40688
2.41451
1.5585
0.411784
0.228994
0.233893
0.24083
0.305579
0.28772
0.273668
0.284719
0.29543
0.387464
0.417041
0.380319
0.403964
0.549619
1.01016
0.784819
0.559777
0.450027
0.442932
0.446811
2.69832
2.41463
1.44458
1.80865
2.36187
1.23951
0.28796
0.163299
0.174733
0.181571
0.183932
0.179809
0.663055
2.17195
2.34923
2.36108
2.40097
2.42355
2.44597
2.43965
1.92726
0.306361
0.221575
0.23551
0.242089
0.24985
0.257001
0.410367
0.423227
0.429718
0.363522
0.384982
0.409856
0.865152
1.17319
1.4098
1.98719
1.26146
0.432139
0.43687
1.06054
0.127026
0.126536
0.111107
0.129537
0.167685
0.141563
0.15572
0.167175
0.17661
0.179585
0.176115
0.276215
0.184024
0.154505
0.367652
0.750022
1.19911
1.78809
1.42029
0.753337
0.270006
0.214732
0.212507
0.219258
0.25004
0.435766
0.438455
0.381833
0.332982
0.348415
0.369651
0.447667
2.60064
3.79348
3.79636
3.79525
3.78196
1.85272
0.823047
0.113667
0.121471
0.121907
0.252299
0.345237
0.148862
0.155868
0.158245
0.167902
0.314514
0.533399
0.508118
0.360887
0.198351
0.162412
0.1669
0.17888
0.189434
0.18858
0.727686
0.214457
0.258053
0.181731
0.190839
0.197409
0.309566
0.427627
0.339585
0.324509
0.301381
1.30138
3.67467
3.69316
3.70094
3.71663
3.72927
3.73145
3.71845
3.7177
3.60865
0.0892563
0.0974296
0.102166
0.331438
0.58945
0.595995
0.444398
0.492643
0.682634
2.08602
2.30153
2.29531
2.28861
2.14195
0.354991
0.170173
0.188109
0.19977
0.493453
0.762172
0.164353
0.164938
0.165698
0.16477
0.365063
0.585553
0.371229
0.31529
1.07922
3.62798
3.65311
3.63592
3.62588
2.86905
1.16648
2.02504
2.84178
3.26045
3.63703
3.60341
0.279097
0.14819
0.0840897
0.0829782
0.0846155
0.194664
0.517984
0.830977
2.26255
2.27202
2.27706
2.26974
2.25861
2.25492
1.17426
0.141128
0.156783
0.172728
0.452317
0.747171
0.155341
0.148152
0.138589
0.127622
0.298818
0.476792
1.41058
3.53124
3.57876
3.56656
3.58256
0.897155
0.0360475
0.0375356
0.0416116
0.0413425
0.0422821
0.0506404
0.636143
1.826
0.674988
0.583429
0.147205
0.072519
0.0700118
0.0656307
0.059914
0.0516007
0.91239
2.10407
2.25993
2.265
2.05349
0.670793
0.14394
0.10676
0.120557
0.163809
0.403642
0.702463
0.12209
0.114772
0.10135
0.0841555
0.201855
1.48255
3.32101
3.42142
1.80663
-0.000346901
0.233944
0.012657
-0.000962065
0.00934563
0.0165763
0.0199733
0.0218925
0.0209544
0.0167248
0.0126471
0.671893
0.674598
0.568653
0.0996663
0.0565533