/*--------------------------------*- C++ -*----------------------------------*\
  =========                 |
  \\      /  F ield         | OpenFOAM: The Open Source CFD Toolbox
   \\    /   O peration     | Website:  https://openfoam.org
    \\  /    A nd           | Version:  8
     \\/     M anipulation  |
\*---------------------------------------------------------------------------*/
FoamFile
{
    version     2.0;
    format      ascii;
    class       volVectorField;
    location    "3.2";
    object      U;
}
// * * * * * * * * * * * * * * * * * * * * * * * * * * * * * * * * * * * * * //

dimensions      [0 1 -1 0 0 0 0];

internalField   nonuniform List<vector> 
9150
(
(0.0049375 -0.0781977 0)
(0.0130745 -0.0974431 0)
(0.0108971 -0.104341 0)
(0.00865614 -0.107865 0)
(0.00241338 -0.109204 0)
(-0.00205139 -0.109421 0)
(-0.00846007 -0.108017 0)
(-0.0108777 -0.104325 0)
(-0.0130434 -0.0974834 0)
(-0.00494574 -0.0782209 0)
(0.00593764 -0.092049 0)
(0.0085725 -0.100515 0)
(0.0073629 -0.102239 0)
(0.00437543 -0.104492 0)
(0.00211891 -0.105349 0)
(-0.00193157 -0.105468 0)
(-0.00435703 -0.104334 0)
(-0.007369 -0.102199 0)
(-0.008552 -0.100497 0)
(-0.00592563 -0.0920457 0)
(0.00176193 -0.095485 0)
(0.00457213 -0.0989984 0)
(0.00371264 -0.101029 0)
(0.0033345 -0.10176 0)
(0.000625662 -0.102517 0)
(-0.00109932 -0.10232 0)
(-0.00325255 -0.101665 0)
(-0.00370332 -0.100982 0)
(-0.00457728 -0.0989751 0)
(-0.00175567 -0.0954751 0)
(0.00174887 -0.0984325 0)
(0.00246681 -0.100406 0)
(0.00213768 -0.100357 0)
(0.0014053 -0.100609 0)
(0.000836734 -0.100865 0)
(-0.000374874 -0.100915 0)
(-0.00127723 -0.100833 0)
(-0.00216148 -0.100255 0)
(-0.00247581 -0.100389 0)
(-0.00175351 -0.0984296 0)
(0.000186889 -0.0994908 0)
(0.000724657 -0.0995757 0)
(0.000457991 -0.0999737 0)
(0.000498926 -0.100057 0)
(0.000111481 -0.100123 0)
(-0.000303722 -0.100103 0)
(-0.000699181 -0.0998577 0)
(-0.000502822 -0.0999529 0)
(-0.000727066 -0.09957 0)
(-0.000188397 -0.0994927 0)
(0.0760726 -0.194806 2.05484e-26)
(0.0494722 -0.184951 0)
(0.0307256 -0.17605 0)
(0.0155407 -0.173778 0)
(0.00391379 -0.175732 0)
(-0.00516729 -0.176216 0)
(-0.0160711 -0.175731 0)
(-0.0308806 -0.176783 0)
(-0.0494287 -0.185156 0)
(-0.0760892 -0.194937 -2.08368e-26)
(0.0585057 -0.14647 5.23511e-27)
(0.0483632 -0.146558 0)
(0.0283758 -0.156426 0)
(0.0210684 -0.156529 0)
(0.00543724 -0.155594 0)
(-0.00377279 -0.156127 0)
(-0.0201571 -0.157262 0)
(-0.0282045 -0.15652 0)
(-0.0484238 -0.14659 0)
(-0.0584806 -0.146508 -5.52471e-27)
(0.047684 -0.121528 2.58246e-27)
(0.042278 -0.13139 0)
(0.0298122 -0.134001 0)
(0.0178928 -0.138226 0)
(0.00617868 -0.140371 0)
(-0.00603712 -0.140177 0)
(-0.0178258 -0.137037 0)
(-0.0296217 -0.133723 0)
(-0.0422357 -0.13136 0)
(-0.0476613 -0.12152 -2.68404e-27)
(0.0373322 -0.0994788 4.16081e-27)
(0.0391938 -0.110319 0)
(0.0224797 -0.120295 0)
(0.0173517 -0.124966 0)
(0.00438534 -0.125231 0)
(-0.00429249 -0.125325 0)
(-0.0173887 -0.125366 0)
(-0.0223768 -0.120209 0)
(-0.0391407 -0.110281 0)
(-0.0373137 -0.0994562 -4.15099e-27)
(0.024819 -0.0815092 -1.30581e-26)
(0.028037 -0.101147 -1.5427e-26)
(0.0200523 -0.108264 -3.82816e-27)
(0.010998 -0.113879 -3.45711e-27)
(0.00431867 -0.116842 -1.50563e-28)
(-0.00489543 -0.116684 -1.39604e-28)
(-0.0113014 -0.113732 -3.38765e-27)
(-0.0201937 -0.108286 -3.83653e-27)
(-0.0281068 -0.101124 -1.54268e-26)
(-0.0248265 -0.0815077 -1.3055e-26)
(0.0190732 -0.145607 0)
(0.0140924 -0.203764 0)
(0.0248156 -0.214784 0)
(0.0134981 -0.222151 0)
(0.0114463 -0.225907 0)
(-0.00320553 -0.226784 0)
(-0.00488013 -0.225188 0)
(-0.020237 -0.217537 0)
(-0.010548 -0.205505 0)
(-0.0172978 -0.143624 0)
(0.0164398 -0.165304 0)
(0.00184288 -0.198848 0)
(0.0151917 -0.209272 0)
(0.00215253 -0.214269 0)
(0.00603023 -0.214392 0)
(-0.00536867 -0.214325 0)
(-0.00228787 -0.212933 0)
(-0.0149521 -0.208714 0)
(-0.00143683 -0.199804 0)
(-0.0160096 -0.167492 0)
(0.0149262 -0.17159 0)
(-0.00376368 -0.203082 0)
(0.0113706 -0.208299 0)
(-0.0010952 -0.209759 0)
(0.00359462 -0.210172 0)
(-0.00387159 -0.209999 0)
(0.0016383 -0.209703 0)
(-0.0105202 -0.208562 0)
(0.00410974 -0.203759 0)
(-0.0146352 -0.172442 0)
(0.0179575 -0.194084 0)
(-0.00673497 -0.204046 0)
(0.010049 -0.210254 0)
(-0.000337555 -0.206282 0)
(0.00231619 -0.207014 0)
(-0.00084557 -0.207208 0)
(0.00120582 -0.206377 0)
(-0.00949941 -0.210256 0)
(0.00696014 -0.204292 0)
(-0.0175949 -0.194163 0)
(0.0348455 -0.217339 0)
(0.00907679 -0.204083 0)
(0.0163355 -0.203326 0)
(0.0110398 -0.19716 0)
(0.00131424 -0.193086 0)
(-0.00262416 -0.192614 0)
(-0.0118519 -0.195234 0)
(-0.0164693 -0.203394 0)
(-0.00914499 -0.204111 0)
(-0.0349794 -0.217623 0)
(-0.155393 0.0140104 0)
(-0.160056 -0.00343654 0)
(-0.159737 -0.010392 0)
(-0.152067 -0.0128952 0)
(-0.149223 -0.0103694 0)
(-0.148248 -0.0174843 0)
(-0.135851 -0.0478532 0)
(-0.0969816 -0.0878012 0)
(-0.0613453 -0.0886796 0)
(-0.0193344 -0.0881181 0)
(-0.118366 0.0259597 0)
(-0.116923 0.010781 0)
(-0.116009 0.00519694 0)
(-0.110699 -0.0101207 0)
(-0.0996292 -0.0144128 0)
(-0.0867184 -0.0192564 0)
(-0.0723203 -0.0304657 0)
(-0.0613671 -0.0676795 0)
(-0.0488782 -0.0904657 0)
(-0.0321668 -0.102813 0)
(-0.11905 0.0255554 0)
(-0.121108 -0.000681814 0)
(-0.117609 -0.0255153 0)
(-0.106274 -0.0423088 0)
(-0.10113 -0.0474966 0)
(-0.0961152 -0.0610891 0)
(-0.0871083 -0.0841987 0)
(-0.0767851 -0.108261 0)
(-0.0574437 -0.131873 0)
(-0.0425876 -0.15034 0)
(-0.10304 0.0378656 0)
(-0.0994716 0.0114787 0)
(-0.101119 -0.0269826 0)
(-0.0997068 -0.0417884 0)
(-0.0954693 -0.0482233 0)
(-0.0887787 -0.0626677 0)
(-0.0791081 -0.0940575 0)
(-0.0690839 -0.139236 0)
(-0.0552929 -0.179264 0)
(-0.0312807 -0.187607 0)
(-0.0815857 0.029114 0)
(-0.0719445 0.000703013 0)
(-0.0611757 -0.0299602 0)
(-0.0513139 -0.054204 0)
(-0.0410383 -0.0751049 0)
(-0.0272519 -0.0956661 0)
(-0.0158747 -0.107794 0)
(-0.0224871 -0.138196 0)
(-0.0302014 -0.200392 0)
(-0.0280478 -0.219346 0)
(-0.0613555 0.01816 0)
(-0.0482357 -0.0225375 0)
(-0.0347032 -0.055208 0)
(-0.024385 -0.0702537 0)
(-0.0135138 -0.0916922 0)
(0.00457343 -0.112766 0)
(0.0200014 -0.103898 0)
(0.0203517 -0.100841 0)
(0.0199938 -0.165063 0)
(0.0027222 -0.213844 0)
(-0.0584765 -0.00575762 0)
(-0.0531104 -0.0458365 0)
(-0.0557427 -0.0743152 0)
(-0.0502163 -0.0852676 0)
(-0.0472692 -0.115323 0)
(-0.0320195 -0.145994 0)
(-0.0109293 -0.127945 0)
(0.0196069 -0.117486 0)
(0.0309519 -0.146249 0)
(0.0225366 -0.181726 0)
(-0.10509 -0.0036087 0)
(-0.123703 -0.0284738 0)
(-0.126839 -0.0709239 0)
(-0.120551 -0.0830979 0)
(-0.132348 -0.140861 0)
(-0.1342 -0.204585 0)
(-0.107293 -0.221964 0)
(-0.0702974 -0.195631 0)
(-0.0393737 -0.179236 0)
(-0.0201972 -0.168215 0)
(-0.14574 0.0623307 0)
(-0.164136 -0.0395426 0)
(-0.165973 -0.0866566 0)
(-0.168955 -0.0904787 0)
(-0.164777 -0.124904 0)
(-0.165248 -0.220499 0)
(-0.162824 -0.249742 0)
(-0.15034 -0.258635 0)
(-0.123779 -0.252027 0)
(-0.0866356 -0.238691 0)
(-0.135606 0.0339432 0)
(-0.131331 0.027276 0)
(-0.147866 -0.0296791 0)
(-0.14271 -0.0917776 0)
(-0.131845 -0.137454 0)
(-0.132854 -0.207113 0)
(-0.132565 -0.251249 0)
(-0.126216 -0.281256 0)
(-0.111721 -0.297925 0)
(-0.0880585 -0.310089 0)
(-0.0935456 -0.00991109 0)
(-0.0790973 -0.0185551 0)
(-0.0374427 -0.0822756 0)
(-0.00718083 -0.12704 0)
(0.0291934 -0.172518 0)
(0.0459959 -0.206756 0)
(0.0500271 -0.242974 0)
(0.0502591 -0.284554 0)
(0.0359554 -0.313808 0)
(0.0389302 -0.34075 0)
(0.0392153 -0.0869202 0)
(0.0896126 -0.0515604 0)
(0.119844 -0.0870642 0)
(0.162552 -0.16935 0)
(0.167654 -0.188366 0)
(0.175342 -0.219441 0)
(0.195641 -0.238125 0)
(0.208185 -0.266743 0)
(0.207216 -0.289636 0)
(0.209217 -0.323072 0)
(0.0977333 -0.235815 0)
(0.139437 -0.210818 0)
(0.184527 -0.219632 0)
(0.228492 -0.257078 0)
(0.25573 -0.273404 0)
(0.268775 -0.28558 0)
(0.294617 -0.282495 0)
(0.311702 -0.278564 0)
(0.313108 -0.303403 0)
(0.318746 -0.36123 0)
(0.239979 -0.276933 0)
(0.288496 -0.291465 0)
(0.341845 -0.295242 0)
(0.391069 -0.287334 0)
(0.430357 -0.297753 0)
(0.460834 -0.306242 0)
(0.497672 -0.312876 0)
(0.521003 -0.305794 0)
(0.553004 -0.308645 0)
(0.593229 -0.339535 0)
(0.366012 -0.392189 0)
(0.44151 -0.385299 0)
(0.488718 -0.38202 0)
(0.529177 -0.369959 0)
(0.57531 -0.363191 0)
(0.605 -0.363965 0)
(0.628158 -0.376616 0)
(0.652713 -0.39849 0)
(0.693747 -0.427432 0)
(0.734209 -0.414439 0)
(0.47993 -0.561464 0)
(0.526022 -0.540796 0)
(0.556296 -0.51214 0)
(0.583948 -0.484095 0)
(0.614597 -0.467836 0)
(0.64409 -0.455008 0)
(0.6556 -0.453102 0)
(0.666436 -0.488858 0)
(0.702037 -0.525411 0)
(0.739934 -0.509794 0)
(0.551274 -0.654198 0)
(0.569945 -0.601956 0)
(0.581503 -0.555596 0)
(0.600792 -0.531477 0)
(0.628366 -0.506401 0)
(0.657582 -0.474177 0)
(0.664478 -0.445932 0)
(0.671207 -0.500518 0)
(0.662261 -0.567719 0)
(0.623587 -0.560182 0)
(0.541143 -0.656738 0)
(0.522551 -0.582382 0)
(0.520723 -0.532136 0)
(0.504302 -0.5341 0)
(0.466708 -0.528365 0)
(0.437007 -0.471812 0)
(0.382993 -0.413018 0)
(0.33713 -0.445445 0)
(0.174052 -0.445351 0)
(0.093359 -0.242177 0)
(0.165617 -0.582968 0)
(0.145316 -0.508105 0)
(0.112677 -0.467667 0)
(0.0572045 -0.422888 0)
(-0.00239699 -0.359921 0)
(-0.0569382 -0.313043 0)
(-0.136252 -0.253347 0)
(-0.135449 -0.171285 0)
(-0.210545 -0.15816 0)
(-0.243864 -0.16456 0)
(-0.0983045 -0.489128 0)
(-0.111269 -0.447092 0)
(-0.133701 -0.378117 0)
(-0.15817 -0.327842 0)
(-0.193083 -0.261222 0)
(-0.209363 -0.21916 0)
(-0.243321 -0.216225 0)
(-0.252975 -0.217191 0)
(-0.255626 -0.198775 0)
(-0.233226 -0.216464 0)
(-0.174293 -0.494002 0)
(-0.189314 -0.416587 0)
(-0.202868 -0.35152 0)
(-0.207886 -0.298059 0)
(-0.225495 -0.245573 0)
(-0.229359 -0.213577 0)
(-0.238857 -0.2013 0)
(-0.235805 -0.207183 0)
(-0.184753 -0.274794 0)
(-0.116884 -0.369105 0)
(-0.228889 -0.473671 0)
(-0.236935 -0.412649 0)
(-0.231334 -0.354456 0)
(-0.231432 -0.304923 0)
(-0.226055 -0.24087 0)
(-0.216085 -0.21731 0)
(-0.209303 -0.222335 0)
(-0.163664 -0.307136 0)
(-0.0929626 -0.410149 0)
(-0.0920703 -0.397648 0)
(-0.257537 -0.49832 0)
(-0.247097 -0.415483 0)
(-0.231353 -0.351601 0)
(-0.221083 -0.310001 0)
(-0.191816 -0.271815 0)
(-0.158501 -0.266546 0)
(-0.117367 -0.294718 0)
(-0.064764 -0.401802 0)
(-0.0671557 -0.426825 0)
(-0.0709803 -0.411262 0)
(-0.271218 -0.551095 0)
(-0.244386 -0.475401 0)
(-0.21163 -0.383029 0)
(-0.183151 -0.357837 0)
(-0.13752 -0.371507 0)
(-0.0808171 -0.357744 0)
(-0.0498684 -0.310876 0)
(-0.0570929 -0.406394 0)
(-0.073379 -0.419669 0)
(-0.0758626 -0.41263 0)
(-0.270202 -0.579868 0)
(-0.24997 -0.556181 0)
(-0.203361 -0.497482 0)
(-0.178455 -0.453266 0)
(-0.130249 -0.518478 0)
(-0.0788137 -0.511505 0)
(-0.0561 -0.295601 0)
(-0.096739 -0.361568 0)
(-0.125447 -0.377218 0)
(-0.143966 -0.374249 0)
(-0.260886 -0.603526 0)
(-0.243314 -0.587556 0)
(-0.21555 -0.564003 0)
(-0.185681 -0.545832 0)
(-0.165173 -0.565254 0)
(-0.148296 -0.585908 0)
(-0.132358 -0.306571 0)
(-0.145598 -0.308751 0)
(-0.18196 -0.315957 0)
(-0.202983 -0.31691 0)
(-0.244939 -0.652286 0)
(-0.220797 -0.625064 0)
(-0.206197 -0.603752 0)
(-0.184677 -0.576901 0)
(-0.177414 -0.544738 0)
(-0.215341 -0.481964 0)
(-0.204481 -0.320815 0)
(-0.190639 -0.295388 0)
(-0.199433 -0.294717 0)
(-0.209284 -0.287818 0)
(-0.256672 -0.740576 0)
(-0.201827 -0.671159 0)
(-0.178862 -0.630957 0)
(-0.180261 -0.590145 0)
(-0.170564 -0.541307 0)
(-0.182965 -0.418419 0)
(-0.222154 -0.331573 0)
(-0.215626 -0.311616 0)
(-0.19617 -0.295456 0)
(-0.190404 -0.279526 0)
(-0.296632 -0.92428 0)
(-0.207732 -0.746628 0)
(-0.158937 -0.645557 0)
(-0.155247 -0.585229 0)
(-0.172807 -0.534212 0)
(-0.16613 -0.385976 0)
(-0.172746 -0.28688 0)
(-0.216853 -0.331391 0)
(-0.204704 -0.339119 0)
(-0.164977 -0.321682 0)
(-0.322024 -1.10371 0)
(-0.24139 -0.952763 0)
(-0.140783 -0.714337 0)
(-0.105444 -0.578741 0)
(-0.109645 -0.530859 0)
(-0.104198 -0.483212 0)
(-0.0217233 -0.251023 0)
(-0.0418505 -0.25532 0)
(-0.171391 -0.357255 0)
(-0.159051 -0.366098 0)
(-0.319378 -1.17043 0)
(-0.272796 -1.1601 0)
(-0.186156 -0.943908 0)
(-0.0973858 -0.611553 0)
(-0.0969305 -0.524991 0)
(-0.118518 -0.513777 0)
(-0.107376 -0.440177 0)
(0.0199472 -0.0482392 0)
(-0.0408659 -0.225271 0)
(-0.100621 -0.341968 0)
(-0.280947 -1.19504 0)
(-0.267737 -1.22669 0)
(-0.230642 -1.13731 0)
(-0.138097 -0.721853 0)
(-0.107741 -0.506871 0)
(-0.138497 -0.479942 0)
(-0.153814 -0.477609 0)
(-0.127428 -0.243437 0)
(-0.0372923 -0.1574 0)
(-0.0603694 -0.247789 0)
(-0.224283 -1.12014 0)
(-0.251123 -1.24592 0)
(-0.233103 -1.19221 0)
(-0.198534 -0.89515 0)
(-0.135169 -0.499924 0)
(-0.152882 -0.452614 0)
(-0.171031 -0.452915 0)
(-0.189453 -0.364278 0)
(-0.118999 -0.262927 0)
(-0.10302 -0.224535 0)
(-0.0498432 -0.77953 0)
(-0.203043 -1.20627 0)
(-0.228487 -1.20462 0)
(-0.211479 -0.973404 0)
(-0.161663 -0.515879 0)
(-0.168805 -0.422271 0)
(-0.198682 -0.414133 0)
(-0.199582 -0.427879 0)
(-0.183791 -0.335199 0)
(-0.147184 -0.233085 0)
(0.0242945 -0.365808 0)
(-0.199392 -1.06664 0)
(-0.22862 -1.19029 0)
(-0.219317 -1.02258 0)
(-0.171335 -0.553234 0)
(-0.162527 -0.38792 0)
(-0.192578 -0.373097 0)
(-0.210914 -0.433573 0)
(-0.227502 -0.333345 0)
(-0.230129 -0.215857 0)
(0.115583 -0.102454 0)
(-0.041312 -0.671445 0)
(-0.180504 -1.11593 0)
(-0.218048 -1.04001 0)
(-0.166354 -0.648173 0)
(-0.139106 -0.363444 0)
(-0.167416 -0.327028 0)
(-0.209731 -0.34913 0)
(-0.262032 -0.224307 0)
(-0.265884 -0.199083 0)
(0.0992029 -0.0267718 0)
(-0.0090693 -0.303601 0)
(-0.219829 -0.931306 0)
(-0.255347 -0.99034 0)
(-0.216347 -0.740935 0)
(-0.13963 -0.353347 0)
(-0.165385 -0.269917 0)
(-0.213096 -0.245512 0)
(-0.245548 -0.192643 0)
(-0.25675 -0.171014 0)
(0.0504895 0.0782495 0)
(-0.0982548 -0.153563 0)
(-0.263894 -0.769596 0)
(-0.32845 -0.919046 0)
(-0.270136 -0.872732 0)
(-0.119086 -0.405565 0)
(-0.127265 -0.231271 0)
(-0.155964 -0.199961 0)
(-0.142326 -0.159031 0)
(-0.177348 -0.142032 0)
(0.0219085 0.206508 0)
(-0.0691589 0.232415 0)
(-0.289911 -0.587613 0)
(-0.39753 -0.922314 0)
(-0.313803 -1.04783 0)
(-0.122858 -0.746139 0)
(-0.0811867 -0.1997 0)
(-0.120967 -0.162084 0)
(-0.118276 -0.125195 0)
(-0.111668 -0.129367 0)
(0.0212604 0.178986 0)
(0.0858531 0.427913 0)
(-0.135912 -0.0954971 0)
(-0.36802 -0.911633 0)
(-0.233075 -1.24947 0)
(-0.156283 -1.16221 0)
(-0.0709332 -0.178165 0)
(-0.0598083 -0.132472 0)
(-0.0884326 -0.134011 0)
(-0.0963738 -0.134776 0)
(-0.0608648 0.00247706 0)
(0.0665101 0.38151 0)
(0.075831 0.395527 0)
(-0.123746 -0.722852 0)
(-0.0771695 -1.3107 0)
(-0.0843755 -1.33976 0)
(0.00410415 -0.317694 0)
(0.16018 -0.0241608 0)
(0.0507015 -0.0469131 0)
(0.00416008 -0.101173 0)
(-0.0483626 -0.152057 0)
(0.0533978 0.232499 0)
(0.119244 0.36792 0)
(-0.0392999 -0.295627 0)
(-0.00397284 -1.33016 0)
(-0.0248488 -1.38522 0)
(0.0615048 -1.07707 0)
(0.335058 -0.0727327 0)
(0.28084 0.0838958 0)
(0.187191 0.0765499 0)
(-0.0265537 -0.0686108 0)
(-0.0561276 0.0535439 0)
(0.0213591 0.375631 0)
(-0.0659258 -0.303997 0)
(0.0150889 -1.40141 0)
(-0.0248956 -1.42866 0)
(0.0550979 -1.26938 0)
(0.154897 -0.286232 0)
(0.168411 0.193457 0)
(0.145084 0.14795 0)
(-0.191867 -0.0240024 0)
(-0.19017 0.0992534 0)
(-0.0221912 0.224202 0)
(-0.0439497 -0.369509 0)
(0.0155706 -1.42216 0)
(-0.0239358 -1.44073 0)
(0.0487611 -1.35765 0)
(-0.0833778 0.0580033 0)
(-0.0512841 0.110054 0)
(0.0336447 0.0828755 0)
(-0.0300572 -0.102105 0)
(-0.00207601 0.0810216 0)
(0.00807287 0.0597905 0)
(-0.0497985 -0.217868 0)
(0.0165242 -1.4354 0)
(-0.0242449 -1.43965 0)
(0.00662775 -1.39147 0)
(-0.0246465 0.153674 0)
(-0.0910832 -0.164509 0)
(0.0161518 -0.230188 0)
(-0.0649657 -0.183822 0)
(-0.0504234 -0.0104055 0)
(-0.142251 0.194473 0)
(-0.0661557 -0.344582 0)
(0.0374499 -1.44148 0)
(0.0133158 -1.43534 0)
(0.0240391 -1.42663 0)
(0.0145908 0.300912 0)
(0.061663 0.0489401 0)
(-0.0834004 -0.190536 0)
(-0.0992775 -0.0693898 0)
(-0.166127 0.131637 0)
(-0.334543 0.361936 0)
(0.0146619 -1.15065 0)
(0.0388064 -1.44197 0)
(0.0274369 -1.45173 0)
(0.0602732 -1.42124 0)
(0.0136655 0.114148 0)
(0.0438547 0.01896 0)
(-0.0994479 0.00799882 0)
(-0.10036 0.0415598 0)
(-0.194068 0.301443 0)
(-0.228826 0.444962 0)
(0.00677048 -1.43703 0)
(0.00257997 -1.44128 0)
(-0.00229308 -1.45551 0)
(-0.0195142 -1.3428 0)
(-0.0346066 0.15531 0)
(-0.0799544 0.266809 0)
(-0.297848 0.307187 0)
(-0.184764 0.260547 0)
(-0.133169 0.191458 0)
(0.0250944 0.289138 0)
(0.0296173 -1.4522 0)
(0.0107343 -1.43537 0)
(-0.00628723 -1.42725 0)
(-0.00881789 -1.32411 0)
(-0.0151035 0.240514 0)
(-0.0281148 0.463436 0)
(-0.0599418 0.520092 0)
(-0.381915 0.0451786 0)
(-0.309129 0.0177769 0)
(0.0782456 -0.224108 0)
(0.0393286 -1.30664 0)
(0.0071767 -1.41222 0)
(-0.00678492 -1.41556 0)
(-0.0124135 -1.31708 0)
(-0.00734801 0.261293 0)
(0.0749746 0.468463 0)
(0.107188 0.567564 0)
(-0.313462 -0.309241 0)
(-0.188168 -0.437603 0)
(0.00515789 -0.751146 0)
(0.00546339 -1.29061 0)
(0.00508521 -1.38946 0)
(-0.0121696 -1.39283 0)
(-0.0378136 -1.24594 0)
(-0.0131861 -0.00726623 0)
(0.229279 0.341309 0)
(0.284563 0.415976 0)
(-0.11389 -0.355455 0)
(-0.0354734 -0.469413 0)
(0.00742383 -0.746212 0)
(0.0122479 -1.24607 0)
(0.00892845 -1.36267 0)
(-0.00821452 -1.35946 0)
(-0.0154101 -1.27291 0)
(0.0133019 -0.558223 0)
(0.214818 -0.0684196 0)
(0.322573 0.083454 0)
(-0.0686683 -0.531082 0)
(-0.020108 -0.613186 0)
(0.00675359 -0.804859 0)
(0.00920429 -1.2532 0)
(0.0081422 -1.33124 0)
(-0.0104804 -1.33205 0)
(-0.00673404 -1.27848 0)
(0.00932697 -0.575825 0)
(0.000212089 -0.209647 0)
(0.0884876 0.0576678 0)
(-0.0198986 -0.57458 0)
(-0.00599126 -0.645809 0)
(0.00556036 -0.81705 0)
(0.00511951 -1.28652 0)
(0.00886514 -1.30489 0)
(-0.00783877 -1.30557 0)
(-0.0050659 -1.2694 0)
(-0.0485921 -0.471739 0)
(-0.0934028 -0.118372 0)
(-0.136604 -0.0769511 0)
(0.00603124 -0.593587 0)
(0.00712652 -0.65469 0)
(0.00206191 -0.812464 0)
(0.00186647 -1.29931 0)
(0.00578969 -1.28455 0)
(-0.0110296 -1.28359 0)
(-0.00914219 -1.28435 0)
(-0.0155747 -0.414626 0)
(-0.017768 -0.0798011 0)
(-0.0366139 -0.0415048 0)
(0.0434741 -0.567923 0)
(0.0262213 -0.628254 0)
(0.00842855 -0.791048 0)
(0.00299082 -1.29615 0)
(0.00793472 -1.26905 0)
(-0.00640579 -1.26846 0)
(-0.00270083 -1.28985 0)
(0.0107359 -0.443165 0)
(0.00637318 -0.0744971 0)
(0.0204512 -0.117645 0)
(0.0445154 -0.522532 0)
(0.0128915 -0.577348 0)
(0.0139458 -0.801918 0)
(-0.000325217 -1.28026 0)
(0.00672963 -1.25828 0)
(-0.00654982 -1.25818 0)
(0.000308628 -1.28133 0)
(0.00639888 -0.682096 0)
(0.145862 -0.0666395 0)
(0.135146 -0.144554 0)
(0.0482647 -0.459754 0)
(-0.00306865 -0.538606 0)
(0.00893686 -0.821884 0)
(-0.00299483 -1.26295 0)
(0.00509113 -1.25318 0)
(-0.00562943 -1.25326 0)
(0.00199177 -1.2659 0)
(-0.00741784 -0.774984 0)
(0.101962 -0.292196 0)
(0.170345 -0.15947 0)
(0.0734761 -0.390989 0)
(0.0221694 -0.468664 0)
(0.0100612 -0.80608 0)
(-0.000843215 -1.24975 0)
(0.00714825 -1.25318 0)
(-0.00221786 -1.25019 0)
(0.00456251 -1.25317 0)
(-0.0144331 -0.874351 0)
(0.0303459 -0.38336 0)
(0.0569109 -0.222856 0)
(0.113104 -0.336311 0)
(0.0653599 -0.384062 0)
(0.0396245 -0.792234 0)
(0.0128747 -1.24016 0)
(0.0138534 -1.24992 0)
(0.00455501 -1.25119 0)
(0.0183401 -1.24201 0)
(0.00453063 -0.881176 0)
(0.0150432 -0.402209 0)
(-0.00827119 -0.226096 0)
(0.0948534 -0.279097 0)
(0.0447187 -0.321731 0)
(0.0323393 -0.72112 0)
(-0.00367502 -1.22418 0)
(0.00519784 -1.24633 0)
(-0.00655376 -1.24995 0)
(-0.00386321 -1.22751 0)
(-0.0260009 -0.858681 0)
(-0.0359593 -0.369318 0)
(-0.0532874 -0.257227 0)
(0.08118 -0.221576 0)
(0.0463266 -0.274092 0)
(0.0305494 -0.673663 0)
(0.00179846 -1.20777 0)
(0.00411676 -1.24025 0)
(-0.00752557 -1.23858 0)
(-0.00745954 -1.21148 0)
(-0.03462 -0.80638 0)
(-0.0417401 -0.321406 0)
(-0.0592799 -0.280128 0)
(0.102997 -0.175458 0)
(0.0738324 -0.233355 0)
(0.0506334 -0.565787 0)
(0.0126058 -1.19036 0)
(0.00999326 -1.22449 0)
(-0.00739966 -1.22371 0)
(-0.00787266 -1.19472 0)
(-0.0365619 -0.78967 0)
(-0.0250895 -0.31948 0)
(-0.0258464 -0.305144 0)
(0.0844767 -0.14691 0)
(0.0570148 -0.201705 0)
(0.0434448 -0.503399 0)
(0.014863 -1.16104 0)
(0.00789189 -1.19894 0)
(-0.0109101 -1.19979 0)
(-0.0178119 -1.17166 0)
(-0.0373014 -0.782439 0)
(-0.0130546 -0.373266 0)
(0.00171432 -0.311561 0)
(0.105814 -0.128456 0)
(0.0757851 -0.141878 0)
(0.0354085 -0.418693 0)
(0.0139747 -1.12499 0)
(0.00779536 -1.17101 0)
(-0.0117639 -1.17146 0)
(-0.022721 -1.15393 0)
(-0.0335229 -0.748108 0)
(-0.0407814 -0.415956 0)
(-0.0213709 -0.33782 0)
(0.066649 -0.0820404 0)
(0.0195734 -0.0948211 0)
(0.00229105 -0.405091 0)
(0.00922774 -1.12845 0)
(0.00615205 -1.14201 0)
(-0.0142165 -1.14065 0)
(-0.0259671 -1.14078 0)
(-0.0316309 -0.698599 0)
(-0.0482266 -0.415115 0)
(-0.0489387 -0.336891 0)
(0.0828029 -0.00471422 0)
(0.0319104 -0.0262185 0)
(0.00381527 -0.369927 0)
(0.0173554 -1.13525 0)
(0.00975366 -1.11264 0)
(-0.0099289 -1.109 0)
(-0.0112149 -1.13795 0)
(-0.0172618 -0.678466 0)
(-0.036239 -0.372104 0)
(-0.0582303 -0.286591 0)
(0.0890048 0.0566205 0)
(0.0182798 0.0587745 0)
(0.00995643 -0.377935 0)
(0.0131834 -1.12342 0)
(0.00943955 -1.08569 0)
(-0.00881285 -1.08378 0)
(-0.0117786 -1.12704 0)
(-0.0191851 -0.679572 0)
(-0.0154147 -0.335853 0)
(-0.039288 -0.237385 0)
(0.0603569 0.138112 0)
(-0.0151274 0.170518 0)
(0.00989864 -0.432463 0)
(0.00867908 -1.1061 0)
(0.00743219 -1.06396 0)
(-0.006919 -1.06306 0)
(-0.00886909 -1.10882 0)
(-0.0140647 -0.706913 0)
(0.00316428 -0.324399 0)
(-0.0161095 -0.197656 0)
(-0.00437991 0.245125 0)
(-0.0487722 0.213355 0)
(0.011079 -0.515708 0)
(0.00504109 -1.08619 0)
(0.00480719 -1.04746 0)
(-0.00694387 -1.04815 0)
(-0.00741225 -1.08748 0)
(-0.015754 -0.750105 0)
(0.00798319 -0.303613 0)
(-0.021477 -0.157001 0)
(-0.0522038 0.321225 0)
(-0.0610031 0.189818 0)
(0.00438635 -0.602947 0)
(-0.00284568 -1.06477 0)
(-0.00143855 -1.0368 0)
(-0.00932224 -1.0379 0)
(-0.0112689 -1.06462 0)
(-0.0262889 -0.778594 0)
(0.00011797 -0.290968 0)
(-0.0177218 -0.138531 0)
(-0.0520354 0.336023 0)
(-0.0480854 0.126857 0)
(-0.0048244 -0.660124 0)
(-0.00932458 -1.04411 0)
(-0.0065255 -1.03122 0)
(-0.0132261 -1.0303 0)
(-0.0171606 -1.0439 0)
(-0.0467984 -0.794101 0)
(-0.0237552 -0.281272 0)
(-0.0240621 -0.144484 0)
(-0.0387411 0.32569 0)
(-0.017262 0.0718385 0)
(0.015679 -0.679027 0)
(0.0014392 -1.02543 0)
(0.000834089 -1.02457 0)
(-0.00633877 -1.01912 0)
(-0.0101739 -1.02479 0)
(-0.0336013 -0.796951 0)
(-0.0204699 -0.294446 0)
(-0.0206224 -0.181122 0)
(-0.0131399 0.299047 0)
(0.0145468 0.025067 0)
(0.0311288 -0.672556 0)
(0.0119682 -1.00851 0)
(0.00700228 -1.01127 0)
(-0.00317992 -1.00659 0)
(-0.00690442 -1.00816 0)
(-0.0198321 -0.781027 0)
(-0.0197962 -0.311312 0)
(-0.0171587 -0.191071 0)
(0.0287662 0.281819 0)
(0.0378665 -0.0255121 0)
(0.0389223 -0.664097 0)
(0.0186915 -0.997485 0)
(0.0114047 -0.990882 0)
(-0.00144415 -0.989899 0)
(-0.00252249 -0.998412 0)
(-0.0119994 -0.739133 0)
(-0.0366534 -0.292406 0)
(-0.0549346 -0.160665 0)
(0.0582583 0.266634 0)
(0.0691433 0.0231241 0)
(0.0413168 -0.59669 0)
(0.0205977 -0.982001 0)
(0.0133166 -0.967439 0)
(-0.00228956 -0.969629 0)
(-0.00428584 -0.984327 0)
(-0.0119162 -0.709565 0)
(-0.0281513 -0.248618 0)
(-0.0441749 -0.111719 0)
(0.0642516 0.225923 0)
(0.0505555 0.0555847 0)
(0.027255 -0.562836 0)
(0.0146108 -0.968858 0)
(0.00872075 -0.94091 0)
(-0.00882388 -0.94428 0)
(-0.0140115 -0.967579 0)
(-0.0310027 -0.689259 0)
(-0.0340759 -0.23345 0)
(-0.0305423 -0.0980765 0)
(0.0203872 0.159455 0)
(0.0255299 0.0800067 0)
(0.0225822 -0.557722 0)
(0.011175 -0.944283 0)
(0.00541216 -0.915321 0)
(-0.0117363 -0.914277 0)
(-0.0199796 -0.946254 0)
(-0.0321408 -0.679292 0)
(-0.0364876 -0.229773 0)
(-0.027667 -0.135764 0)
(-0.0287274 0.0997798 0)
(0.0116558 0.0554461 0)
(0.023146 -0.577135 0)
(0.014952 -0.921589 0)
(0.0087119 -0.892273 0)
(-0.00786151 -0.89128 0)
(-0.0131205 -0.922378 0)
(-0.0221571 -0.693002 0)
(-0.0179182 -0.240064 0)
(-0.00609763 -0.172939 0)
(-0.00799402 0.0771485 0)
(-0.00227912 -0.0187777 0)
(0.0161952 -0.602119 0)
(0.0136075 -0.900482 0)
(0.00705615 -0.871468 0)
(-0.00658146 -0.869828 0)
(-0.014155 -0.900641 0)
(-0.0225864 -0.694678 0)
(-0.0247852 -0.232461 0)
(-0.0341475 -0.169386 0)
(0.0771344 0.128814 0)
(0.0443222 0.037902 0)
(0.0221313 -0.586425 0)
(0.0157132 -0.878577 0)
(0.00789425 -0.853113 0)
(-0.00633058 -0.852914 0)
(-0.0143118 -0.878801 0)
(-0.0239219 -0.695813 0)
(-0.0228468 -0.215101 0)
(-0.0412153 -0.133486 0)
(0.0940367 0.175827 0)
(0.0343792 0.105736 0)
(0.0229875 -0.588088 0)
(0.0157548 -0.854263 0)
(0.0066797 -0.830689 0)
(-0.00751711 -0.828971 0)
(-0.0162163 -0.853834 0)
(-0.0265661 -0.68337 0)
(-0.0368858 -0.199843 0)
(-0.042272 -0.106641 0)
(0.0576977 0.25027 0)
(0.0134661 0.166199 0)
(0.0235942 -0.589786 0)
(0.0156625 -0.83207 0)
(0.00729497 -0.80937 0)
(-0.00699194 -0.806957 0)
(-0.0153684 -0.831284 0)
(-0.0238582 -0.669102 0)
(-0.0382525 -0.184094 0)
(-0.0370357 -0.0961181 0)
(0.0336429 0.326418 0)
(0.0239271 0.184215 0)
(0.0299847 -0.589463 0)
(0.0197429 -0.809743 0)
(0.0102555 -0.786345 0)
(-0.00525342 -0.783945 0)
(-0.015602 -0.808497 0)
(-0.0232233 -0.65853 0)
(-0.0371646 -0.179771 0)
(-0.033428 -0.0861828 0)
(0.0180342 0.341106 0)
(0.0278705 0.17306 0)
(0.0321783 -0.592559 0)
(0.0198519 -0.784496 0)
(0.010195 -0.760473 0)
(-0.00473034 -0.758979 0)
(-0.0141796 -0.782854 0)
(-0.0227509 -0.638274 0)
(-0.0414617 -0.181826 0)
(-0.0341448 -0.0808522 0)
(0.0139559 0.332891 0)
(0.0341764 0.153699 0)
(0.0299078 -0.586295 0)
(0.0200498 -0.758849 0)
(0.00840307 -0.736038 0)
(-0.00684151 -0.735909 0)
(-0.0175909 -0.757469 0)
(-0.0259501 -0.596279 0)
(-0.0640474 -0.147087 0)
(-0.0622136 -0.0766568 0)
(0.0173099 0.306695 0)
(0.0436296 0.135128 0)
(0.0283979 -0.575323 0)
(0.0195509 -0.731221 0)
(0.0071675 -0.710068 0)
(-0.00678642 -0.7101 0)
(-0.0184854 -0.730825 0)
(-0.0244835 -0.571167 0)
(-0.0580848 -0.109077 0)
(-0.0650412 -0.074297 0)
(0.0302761 0.272338 0)
(0.0493172 0.128768 0)
(0.0284677 -0.554259 0)
(0.0214485 -0.702477 0)
(0.00695113 -0.683871 0)
(-0.00842842 -0.685762 0)
(-0.0211702 -0.703015 0)
(-0.0264089 -0.551338 0)
(-0.0506571 -0.0656794 0)
(-0.0596119 -0.0565079 0)
(0.0323283 0.254129 0)
(0.046129 0.128472 0)
(0.0258624 -0.534777 0)
(0.0207831 -0.67325 0)
(0.00498331 -0.656963 0)
(-0.00898121 -0.658948 0)
(-0.0239021 -0.674536 0)
(-0.0331492 -0.534573 0)
(-0.0409402 -0.0428347 0)
(-0.02939 -0.0282215 0)
(0.0211472 0.243054 0)
(0.0343601 0.125802 0)
(0.0302662 -0.513757 0)
(0.0236665 -0.644281 0)
(0.0074861 -0.631208 0)
(-0.00815748 -0.631926 0)
(-0.0237504 -0.645078 0)
(-0.0393323 -0.523915 0)
(-0.0214421 -0.0987439 0)
(0.0254899 -0.00727664 0)
(-0.0117394 0.246144 0)
(0.0105431 0.0943207 0)
(0.0413612 -0.506998 0)
(0.0264888 -0.613492 0)
(0.00922087 -0.600887 0)
(-0.00602953 -0.601373 0)
(-0.0232722 -0.613464 0)
(-0.0425351 -0.509936 0)
(-0.0118169 -0.190636 0)
(0.00407045 -0.0544375 0)
(-0.0353035 0.213382 0)
(-0.0153954 -0.0120218 0)
(0.0486009 -0.536689 0)
(0.0272019 -0.582095 0)
(0.00883494 -0.572233 0)
(-0.00761571 -0.572466 0)
(-0.0250785 -0.58084 0)
(-0.0488927 -0.529631 0)
(0.0108739 -0.218777 0)
(-0.0204263 -0.0790983 0)
(-0.0216073 0.196884 0)
(0.0118735 -0.0852113 0)
(0.0486425 -0.542012 0)
(0.0259897 -0.546912 0)
(0.00521299 -0.540071 0)
(-0.0087114 -0.538985 0)
(-0.0264527 -0.545213 0)
(-0.050555 -0.536229 0)
(-0.0224845 -0.221952 0)
(-0.0336538 -0.0715159 0)
(0.0219987 0.180643 0)
(0.0598015 -0.167678 0)
(0.0675946 -0.488937 0)
(0.0323061 -0.50694 0)
(0.0144686 -0.508162 0)
(-0.00245089 -0.50569 0)
(-0.0219862 -0.506606 0)
(-0.046482 -0.498809 0)
(-0.0542704 -0.225573 0)
(-0.0618806 -0.0827678 0)
(0.0568451 0.150823 0)
(0.0603768 -0.20529 0)
(0.0634035 -0.445192 0)
(0.0341927 -0.465527 0)
(0.0157225 -0.471244 0)
(-0.000587283 -0.47217 0)
(-0.0217309 -0.468668 0)
(-0.0490967 -0.458844 0)
(-0.0587472 -0.219016 0)
(-0.0682938 -0.0913758 0)
(0.0473973 0.116695 0)
(0.0606192 -0.189909 0)
(0.0601593 -0.404683 0)
(0.0198709 -0.421765 0)
(0.00163866 -0.42956 0)
(-0.0224958 -0.432226 0)
(-0.0446589 -0.425652 0)
(-0.0686956 -0.397594 0)
(-0.072749 -0.206015 0)
(-0.0564354 -0.103671 0)
(-0.00375741 0.0668449 0)
(0.0755277 -0.25726 0)
(0.0644304 -0.366075 0)
(0.0425537 -0.381654 0)
(0.0230965 -0.382643 0)
(-0.0033121 -0.383624 0)
(-0.0255223 -0.37904 0)
(-0.0632997 -0.356497 0)
(-0.0662035 -0.271594 0)
(-0.00108469 -0.119358 0)
(0.0679173 -0.0343531 0)
(0.0717945 -0.280875 0)
(0.0704457 -0.317305 0)
(0.0351324 -0.334094 0)
(0.0122486 -0.334586 0)
(-0.0140013 -0.332626 0)
(-0.0363202 -0.32436 0)
(-0.0675117 -0.311108 0)
(-0.0726918 -0.283752 0)
(-0.088438 -0.14847 0)
(0.101142 -0.165365 0)
(0.0757088 -0.221956 0)
(0.0693834 -0.261985 0)
(0.0396287 -0.282896 0)
(0.0179243 -0.285552 0)
(-0.015237 -0.283619 0)
(-0.0395887 -0.27908 0)
(-0.0700884 -0.259639 0)
(-0.0747901 -0.22233 0)
(-0.099806 -0.215075 0)
(0.0595324 -0.117862 0)
(0.0499768 -0.194354 0)
(0.0422886 -0.234614 0)
(0.0163123 -0.24499 0)
(0.00424136 -0.248375 0)
(-0.0152124 -0.246391 0)
(-0.023178 -0.244447 0)
(-0.042941 -0.234613 0)
(-0.05023 -0.191314 0)
(-0.0529961 -0.141214 0)
(0.0293732 -0.0799898 0)
(0.0699884 -0.0314224 0)
(0.0842559 -0.00606797 0)
(0.0825987 0.0057739 0)
(0.076482 0.0074392 0)
(0.0691013 0.00653165 0)
(0.06157 0.00848529 0)
(0.0565101 0.00296766 0)
(0.0639817 -0.0164091 0)
(0.0835276 -0.0277595 0)
(0.102812 -0.0142951 0)
(0.106284 0.0179162 0)
(0.082196 0.0322278 0)
(0.0474869 0.0284742 0)
(0.0202711 0.0182093 0)
(-0.00621555 0.0245005 0)
(-0.0287676 0.0326379 0)
(-0.0701746 0.0369469 0)
(-0.0889713 0.0191012 0)
(-0.0916471 0.00312785 0)
(-0.0896365 -0.00364601 0)
(-0.0770359 -0.0126233 0)
(-0.0616231 -0.0153586 0)
(-0.0447196 -0.0191644 0)
(-0.0205854 -0.0267828 0)
(-0.00298838 -0.0198852 0)
(0.00393328 -0.00202746 0)
(-0.00914004 0.00846609 0)
(-0.0491692 0.0123955 0)
(-0.122348 0.031536 0)
(-0.239094 0.0412487 0)
(-0.294644 0.0298991 0)
(-0.318278 0.0324234 0)
(-0.329406 -0.0153668 0)
(-0.286682 -0.0665711 0)
(-0.231995 -0.0950331 0)
(-0.166911 -0.0908269 0)
(-0.0974972 -0.0854438 0)
(-0.0462374 -0.0573255 0)
(-0.0150664 -0.0629122 0)
(-0.0121343 -0.11179 0)
(0.0166067 -0.0566967 0)
(0.0434764 -0.0162342 0)
(0.0551234 0.00134501 0)
(0.0521291 0.0137106 0)
(0.0583725 0.0100264 0)
(0.0705499 0.0229387 0)
(0.0799609 7.99471e-05 0)
(0.0899854 -0.0413872 0)