/*--------------------------------*- C++ -*----------------------------------*\
  =========                 |
  \\      /  F ield         | OpenFOAM: The Open Source CFD Toolbox
   \\    /   O peration     | Website:  https://openfoam.org
    \\  /    A nd           | Version:  8
     \\/     M anipulation  |
\*---------------------------------------------------------------------------*/
FoamFile
{
    version     2.0;
    format      ascii;
    class       volScalarField;
    location    "0.55";
    object      alpha.water;
}
// * * * * * * * * * * * * * * * * * * * * * * * * * * * * * * * * * * * * * //

dimensions      [0 0 0 0 0 0 0];

internalField   nonuniform List<scalar> 
9150
(
1
1
1
1
1
1
1
1
1
1
1
1
1
1
1
1
1
1
1
1
1
1
1
1
1
1
1
1
1
1
1
1
1
1
1
1
1
1
1
1
1
1
1
1
1
1
1
1
1
1
1
1
1
1
1
1
1
1
1
1
1
1
1
1
1
1
1
1
1
1
1
1
1
1
1
1
1
1
1
1
1
1
1
1
1
1
1
1
1
1
1
1
1
1
1
1
1
1
1
1
1
1
1
1
1
1
1
1
1
1
1
1
1
1
1
1
1
1
1
1
1
1
1
1
1
1
1
1
1
1
1
1
1
1
1
1
1
1
1
1
1
1
1
1
1
1
1
1
1
1
0.509051
0.488576
0.448147
0.496996
0.523449
0.524034
0.524034
0.495936
0.493004
0.487905
0.199772
0.11283
0.0714561
0.0955042
0.179939
0.524034
0.351253
0.123955
0.119415
0.117943
0.329953
0.317068
0.0575851
0.0576304
0.0575757
0.423974
0.235653
0.239652
0.272113
0.271179
0.322331
0.0866332
0.0577559
0.0576304
0.136375
0.566874
0.235005
0.159689
0.0853477
0.0455804
0.197048
0.0581324
0.0579517
0.0579365
0.478779
0.569943
0.197125
0.14413
0.121723
0.0561748
0.516189
0.188001
0.0581324
0.216294
0.579551
0.572411
0.200584
0.237904
0.371703
0.428399
0.584907
0.49976
0.0614927
0.566278
0.579562
0.579571
0.46302
0.579405
0.579341
0.579311
0.584908
0.584882
0.279482
0.579558
0.579574
0.579571
0.579571
0.579561
0.579404
0.579224
0.584867
0.583953
0.425709
0.579421
0.579569
0.579572
0.579569
0.579413
0.579097
0.578967
0.489521
0.553802
0.511543
0.577012
0.579526
0.579569
0.579526
0.460259
0.341067
0.39983
0.0290713
0.278539
0.30371
0.227498
0.570096
0.579526
0.434812
0.117183
0.0350723
0.0160911
0.000153283
0.0178631
0.100494
0.0925436
0.521805
0.579373
0.386695
0.0610272
0.00130005
0.000209925
5.42994e-05
0.000169714
0.000866595
0.0995628
0.574389
0.575614
0.126706
0.00923196
0.000712378
5.19701e-05
4.17007e-05
4.7247e-05
5.77105e-05
0.0483388
0.56922
0.568376
0.0265031
1.81036e-05
0.000535542
3.80578e-05
4.08173e-05
4.13112e-05
4.22188e-05
0.0316047
0.557915
0.564437
0.0209326
1.32465e-05
5.4843e-05
1.57834e-05
4.07597e-05
4.08018e-05
4.09412e-05
0.0347941
0.551287
0.565433
0.0221226
1.31556e-05
1.30468e-05
1.28126e-05
4.0757e-05
4.07597e-05
4.08019e-05
0.0320115
0.546263
0.565449
0.0179948
1.31394e-05
1.30672e-05
1.30522e-05
4.07572e-05
4.0757e-05
0.00137581
0.0246262
0.543118
0.557933
0.0136626
1.31836e-05
1.31547e-05
1.30843e-05
4.07572e-05
4.07604e-05
0.00739796
0.00933226
0.546711
0.547811
0.00745127
1.40068e-05
1.32422e-05
1.43884e-05
0.00155599
0.0199288
0.0110699
0.00019012
0.567747
0.557062
1.42779e-05
1.39782e-05
1.40501e-05
0.000394438
0.0045975
0.0295589
0.01681
0.000194735
0.58043
0.578142
1.3979e-05
1.41806e-05
1.87058e-05
0.000466033
0.0108582
0.0296159
0.0252442
0.000398671
0.580809
0.58072
1.73427e-05
0.000954419
3.67279e-05
0.000405541
0.0194522
0.0296159
0.0200083
0.00176862
0.580787
0.579221
5.30238e-05
0.00204929
4.61923e-05
0.000222127
0.0230721
0.0296159
0.00700197
0.000464033
0.580112
0.582271
0.00166268
0.00207599
5.66194e-05
0.00107455
0.0218997
0.0245981
0.00835877
0.000248935
0.585295
0.585673
0.000335418
0.00194839
0.00395133
0.0064613
0.0145695
0.00756825
0.00870894
9.9492e-08
0.592202
0.591686
3.72207e-07
0.00193795
0.0075916
0.00733726
0.0033251
3.56755e-05
0.00234077
4.97932e-08
0.598864
0.599245
3.72207e-07
0.00366526
0.00762695
0.0048211
7.76333e-06
5.54109e-08
-1.46259e-09
6.12577e-12
0.6029
0.603216
3.59773e-07
0.00731852
0.00762695
0.000992765
8.52789e-08
-2.26011e-10
-4.68543e-12
6.12533e-12
0.605162
0.60517
3.48565e-07
0.00759381
0.00762695
2.84441e-05
3.55448e-07
4.84261e-07
7.86846e-12
6.12167e-12
0.607731
0.607375
3.48565e-07
0.00754648
0.00758633
2.1945e-06
1.16966e-06
1.22176e-06
5.54871e-08
9.44508e-12
0.6131
0.612923
3.47859e-07
0.00752887
0.00570462
0.000538022
1.11202e-06
9.60677e-07
3.15938e-08
3.52934e-11
0.620119
0.620071
3.67203e-07
0.00301898
0.00083197
0.00132938
5.27739e-06
4.09574e-07
5.1646e-10
1.9098e-10
0.626963
0.626821
1.80793e-07
2.10094e-06
1.03074e-05
0.000578923
1.60221e-05
4.46652e-08
4.6101e-10
3.06147e-10
0.632913
0.63277
7.34138e-10
1.80397e-07
6.8251e-07
3.9463e-06
3.38118e-06
3.01235e-08
3.06147e-10
2.95963e-10
0.638295
0.638195
3.65062e-10
3.58311e-10
1.55246e-08
1.7931e-07
1.72304e-08
1.63291e-08
3.30102e-10
2.90011e-10
0.643088
0.64303
3.65062e-10
3.65062e-10
3.28434e-10
4.64798e-09
1.35905e-07
3.51021e-09
3.01879e-10
2.84345e-10
0.647488
0.647492
3.65062e-10
3.65062e-10
6.21454e-09
6.22118e-09
2.42817e-07
3.11458e-10
3.15812e-10
2.78854e-10
0.65207
0.652158
3.65062e-10
3.65062e-10
1.23722e-09
5.48899e-09
3.52203e-07
3.03872e-10
3.01563e-10
2.73487e-10
0.656778
0.657002
3.65062e-10
3.65062e-10
3.65107e-10
9.57556e-08
2.40633e-07
4.76978e-10
2.80997e-10
2.68316e-10
0.661677
0.661963
3.65062e-10
3.65064e-10
3.65467e-10
1.66374e-07
1.07143e-07
1.9228e-08
2.93199e-10
2.63178e-10
0.666656
0.666965
3.65064e-10
3.65072e-10
4.23751e-09
1.71178e-07
1.45912e-07
2.88998e-08
4.31595e-10
2.58641e-10
0.671535
0.671929
3.65072e-10
3.65121e-10
2.46719e-08
1.67581e-07
1.8028e-07
3.45167e-08
3.66188e-10
2.53329e-10
0.677259
0.677681
3.65121e-10
6.90745e-10
5.09576e-08
1.8353e-07
1.8028e-07
2.35376e-08
2.79671e-10
2.49926e-10
0.682807
0.683304
3.65426e-10
5.51861e-10
7.86503e-08
2.11261e-07
1.05434e-07
9.95743e-09
2.32946e-10
2.41523e-10
0.689509
0.689943
3.67309e-10
4.10245e-10
9.09103e-08
2.19168e-07
7.72196e-08
5.27085e-09
1.80038e-10
2.06454e-10
0.695055
0.695476
3.76321e-10
4.41072e-10
8.32181e-08
2.20062e-07
3.46052e-08
3.28522e-09
1.51153e-10
1.66809e-10
0.702355
0.702703
4.20946e-10
3.82592e-10
3.04773e-08
2.19168e-07
6.60051e-09
1.92036e-09
1.38403e-10
1.4663e-10
0.707377
0.707716
3.55672e-10
2.64218e-10
8.95764e-09
1.51012e-07
1.58558e-09
1.29945e-09
1.31965e-10
1.36454e-10
0.715845
0.716133
2.64218e-10
2.18548e-10
3.76539e-09
9.4852e-08
1.67327e-09
1.10965e-09
1.26189e-10
1.30276e-10
0.720789
0.721057
2.18548e-10
1.80711e-10
4.16676e-09
4.9335e-08
1.34462e-09
1.07884e-09
1.22674e-10
1.25946e-10
0.730521
0.730733
1.80711e-10
1.41519e-10
5.66199e-09
2.49071e-08
1.13294e-09
1.4873e-09
1.17444e-10
1.21664e-10
0.735352
0.735529
1.41519e-10
1.11548e-10
6.14039e-09
2.55657e-08
1.05995e-09
2.81236e-09
1.11634e-10
1.16487e-10
0.746179
0.746299
1.11548e-10
9.79496e-11
3.64756e-09
2.16988e-08
1.07888e-09
3.97483e-09
1.05319e-10
4.81717e-05
0.750767
0.75081
9.06384e-05
8.85058e-11
3.11207e-09
1.33061e-08
1.30419e-09
4.33291e-09
9.86962e-11
0.00587855
0.759204
0.75929
0.0059307
7.93645e-11
3.30725e-09
4.53687e-09
1.6426e-09
4.33102e-09
9.18651e-11
0.00784296
0.763536
0.763647
0.00790237
7.04888e-11
3.54013e-09
1.188e-09
1.92961e-09
4.3153e-09
8.49159e-11
0.01245
0.772374
0.772447
0.0125043
6.13521e-11
4.02473e-09
6.93859e-10
1.99235e-09
4.17116e-09
7.81326e-11
0.0147294
0.776832
0.776888
0.0147851
5.2139e-11
4.36242e-09
6.93859e-10
1.86435e-09
4.16471e-09
7.10745e-11
0.0196148
0.785317
0.785361
0.0196659
4.27153e-11
4.60254e-09
8.72406e-10
1.69843e-09
4.16035e-09
6.36409e-11
0.0218207
0.789186
0.789228
0.0218733
3.27249e-11
4.63054e-09
3.29892e-09
1.53011e-09
4.28634e-09
5.57582e-11
0.0269402
0.79726
0.797291
0.0269725
2.41878e-11
4.52498e-09
5.40028e-09
1.42876e-09
4.29522e-09
4.73902e-11
0.0291121
0.800542
0.800569
0.0291403
1.76736e-11
3.111e-09
5.68093e-09
1.42871e-09
4.40139e-09
3.8636e-11
0.0344485
0.808183
0.808212
0.0344763
1.31286e-11
2.32808e-09
5.683e-09
3.31507e-09
4.42332e-09
2.90229e-11
0.0367746
0.811266
0.811305
0.0368093
1.01583e-11
1.4483e-09
5.683e-09
5.33576e-09
4.33675e-09
2.05285e-11
0.0429383
0.819502
0.819551
0.0429764
8.93345e-12
6.49153e-10
3.49632e-09
5.3358e-09
3.00357e-09
1.39273e-11
0.0458211
0.823013
0.823088
0.0458738
8.21143e-12
3.11427e-10
4.68549e-10
5.33457e-09
2.24992e-09
9.2997e-12
0.0535361
0.832766
0.832833
0.0535891
7.49174e-12
3.0574e-10
5.13148e-10
5.04164e-09
1.36645e-09
6.31667e-12
0.0576099
0.837432
0.837464
0.0576377
6.78844e-12
2.85837e-10
5.21343e-10
3.1101e-09
5.72353e-10
5.14005e-12
0.0673203
0.848593
0.848556
0.0672954
6.13169e-12
2.48365e-10
4.37087e-10
4.73088e-10
2.01811e-10
4.55564e-12
0.072859
0.854203
0.854104
0.0727795
5.47185e-12
2.30054e-10
3.29483e-10
1.78848e-10
1.61983e-10
4.03215e-12
0.0846383
0.866055
0.865921
0.0845117
4.81923e-12
2.21474e-10
2.54533e-10
1.85291e-10
1.62584e-10
3.51795e-12
0.0915529
0.872011
0.871872
0.0914109
4.18394e-12
2.14673e-10
2.48672e-10
1.95783e-10
1.43637e-10
3.0868e-12
0.104992
0.88372
0.883591
0.104839
3.68073e-12
1.80908e-10
2.60743e-10
1.95783e-10
1.14853e-10
2.73527e-12
0.112829
0.889484
0.889372
0.112681
3.30157e-12
1.30148e-10
2.50831e-10
1.77994e-10
8.10385e-11
2.49951e-12
0.127562
0.900651
0.90055
0.127409
3.0766e-12
8.10503e-11
1.88809e-10
1.09251e-10
5.08127e-11
2.33915e-12
0.135884
0.905912
0.905822
0.135732
2.93129e-12
4.72383e-11
9.20692e-11
6.64829e-11
3.2835e-11
2.23788e-12
0.152394
0.916701
0.916604
0.15223
2.83294e-12
3.27915e-11
5.54124e-11
4.09784e-11
2.183e-11
2.16758e-12
0.16183
0.921707
0.921608
0.161654
2.7572e-12
2.43009e-11
3.90279e-11
2.44216e-11
1.39791e-11
2.12632e-12
0.181926
0.932595
0.932481
0.181732
2.70656e-12
1.71986e-11
2.70753e-11
1.40107e-11
8.97204e-12
2.09892e-12
0.194591
0.937925
0.93781
0.194396
2.67e-12
1.1759e-11
1.76855e-11
8.0495e-12
6.3051e-12
2.08241e-12
0.22074
0.948971
0.948861
0.220558
2.6486e-12
8.21548e-12
1.17978e-11
3.39521e-12
5.34428e-12
2.06374e-12
0.238876
0.954625
0.954524
0.238711
2.62932e-12
6.34304e-12
5.55107e-12
5.96913e-12
5.70839e-12
2.05148e-12
0.272836
0.965044
0.964961
0.272708
2.61786e-12
6.32453e-12
7.32949e-12
7.08334e-12
3.8665e-12
1.86093e-12
0.297315
0.970325
0.97025
0.297214
2.42693e-12
3.87225e-12
7.29927e-12
7.08334e-12
1.62986e-12
1.07874e-12
0.33977
0.979029
0.978972
0.339732
1.87084e-12
2.19278e-12
6.83452e-12
5.09369e-12
4.6212e-13
4.80703e-13
0.370691
0.983218
0.983172
0.370715
1.50481e-12
1.48833e-12
6.04949e-12
2.18762e-12
4.46855e-13
4.54491e-13
0.423161
0.98939
0.989342
0.423194
1.47305e-12
1.45773e-12
6.05167e-12
5.8316e-13
4.43089e-13
4.45352e-13
0.462703
0.992249
0.992203
0.462786
1.45115e-12
1.44467e-12
3.31327e-12
4.40851e-13
4.40882e-13
4.4292e-13
0.529604
0.995704
0.995661
0.529664
1.44473e-12
1.44511e-12
1.48776e-12
6.96235e-13
4.4292e-13
4.46881e-13
0.582804
0.997168
0.997136
0.582816
1.44511e-12
1.44461e-12
1.49514e-12
1.4183e-12
3.36989e-13
5.43688e-13
0.66992
0.997855
0.997833
0.669926
1.49612e-12
1.32375e-12
1.4601e-12
2.2073e-13
2.20729e-13
9.43226e-12
0.736623
0.99879
0.998775
0.736631
8.35715e-12
5.42266e-13
5.37722e-13
2.20729e-13
2.22515e-13
0.0264935
0.819557
0.999186
0.999194
0.819606
0.0275104
5.31872e-13
5.26518e-13
2.20387e-13
2.23971e-13
0.10011
0.876463
0.999728
0.999664
0.876253
0.101794
5.2807e-13
5.25501e-13
3.93681e-15
3.43715e-12
0.213079
0.944252
0.999822
0.999907
0.944272
0.219149
2.08551e-12
4.06785e-15
2.74932e-15
1.88954e-09
0.374134
0.976635
0.999982
0.999981
0.985689
0.410488
1.70222e-09
2.71086e-15
2.06571e-15
3.57496e-07
0.659866
0.999986
0.999992
0.999993
0.999986
0.65867
3.68417e-07
1.87405e-15
5.99149e-16
0.0982934
0.868271
0.999996
1
1
0.999995
0.874057
0.111608
2.91704e-16
-1.29643e-12
0.592905
0.999969
1
1
1
1
0.999972
0.612259
-1.29907e-12
0.361196
0.973681
1
1
1
1
1
1
0.97693
0.373619
0.347827
0.209403
0.468302
0.47466
0.462307
0.332752
0.325428
0.546457
0.556094
0.556699
0.556813
0.557157
0.556956
0.557014
0.557106
0.557162
0.557162
0.557162
0.556689
0.554558
0.554753
0.554753
0.547483
0.546282
0.543619
0.48575
0.251905
0.247479
0.246822
0.247062
0.260523
0.519741
0.523159
0.52389
0.524005
0.524043
0.524064
0.524065
0.524065
0.524065
0.107157
0.107532
0.364135
0.479811
0.479811
0.457483
0.165762
0.119004
0.201435
0.357072
0.47461
0.510015
0.553687
0.556956
0.557074
0.557106
0.557162
0.557151
0.303526
0.0159816
0.012344
0.0182855
0.0190005
0.1336
0.529134
0.530047
0.330077
0.51308
0.517449
0.518737
0.522159
0.522433
0.522213
0.40378
0.288989
0.288688
0.287932
0.507518
0.524065
0.524065
0.1733
0.202818
0.448087
0.475752
0.479811
0.292355
0.0707197
0.0669219
0.0644213
0.0629592
0.053414
0.0541139
0.0970493
0.409038
0.296644
0.0507029
0.00109938
0.000950155
8.26424e-05
0.000134163
0.000194999
0.0611818
0.319261
0.515004
0.526347
0.523964
0.311585
0.0758581
0.42451
0.520828
0.521356
0.516884
0.227543
0.180223
0.406575
0.49977
0.520388
0.523446
0.523506
0.366184
0.045567
0.0476246
0.0527346
0.0598388
0.0687843
0.14538
0.146466
0.127131
0.189162
0.187151
0.182435
0.143847
0.00961811
1.00877e-05
6.25188e-06
0.00022148
0.000593854
0.000417173
4.88462e-05
5.071e-05
0.000140509
8.36048e-06
2.36553e-05
0.122684
0.319739
0.122768
0.00150532
8.75796e-05
0.186621
0.496937
0.389227
0.177723
0.0250118
0.0438971
0.109739
0.233814
0.523149
0.523309
0.473007
0.216129
0.100657
0.205011
0.283895
0.309497
0.468347
0.458189
0.450754
0.373492
0.202291
0.0137578
0.000651478
5.03531e-07
5.19375e-07
1.41917e-06
9.1425e-07
1.09322e-06
7.7467e-06
4.30391e-05
2.66458e-05
3.79505e-06
2.62206e-06
5.94016e-06
0.000310846
0.00577282
0.0145295
0.00933692
0.00101457
2.29208e-05
0.0226362
0.0556556
0.0262011
0.00492181
0.0012907
9.78536e-05
0.000137019
0.000348859
0.354798
0.523149
0.281073
0.216129
0.572261
0.57917
0.578828
0.578471
0.478459
0.251962
0.00084312
2.70307e-07
1.11806e-07
1.29417e-07
2.29295e-07
4.71383e-07
5.28813e-07
5.49296e-07
6.06647e-07
6.59288e-07
9.54758e-07
1.75268e-05
7.03955e-06
2.62206e-06
2.05357e-06
0.00118154
0.00372718
0.00339628
0.00107578
0.00019321
0.000119731
2.1095e-05
2.33955e-05
4.53566e-05
0.000127632
8.46501e-05
4.09686e-05
2.50636e-05
3.14338e-05
0.000137023
0.17681
0.493704
0.155558
0.324553
0.579203
0.579209
0.579169
0.410952
0.0317302
4.17774e-06
2.70307e-07
1.11806e-07
9.43024e-08
1.13036e-07
2.96675e-07
5.27224e-07
7.79234e-07
7.70718e-07
6.6652e-07
6.84647e-07
1.26435e-05
3.61875e-05
3.61151e-05
6.8729e-06
1.65609e-06
0.000712478
0.00386391
0.0038675
0.00027103
2.10514e-05
1.82148e-05
1.78189e-05
6.63096e-06
5.49876e-06
1.94364e-05
7.41836e-05
3.63822e-05
2.21512e-05
2.45934e-05
3.14339e-05
0.0648581
0.100565
0.142093
0.535418
0.579202
0.579171
0.578969
0.410015
0.182314
1.90279e-05
2.80123e-07
9.42997e-08
8.23238e-08
4.29343e-07
7.8688e-07
7.8688e-07
7.8688e-07
7.21847e-07
6.84647e-07
6.44165e-06
3.61492e-05
3.61883e-05
3.61879e-05
9.83311e-06
1.40547e-06
1.63872e-06
0.00316829
0.00433601
0.00439778
0.00289121
0.000136906
6.77268e-06
5.49927e-06
4.87073e-06
8.04738e-06
7.72649e-05
2.47655e-05
2.20313e-05
2.21512e-05
2.45934e-05
0.00276493
0.0470561
0.203373
0.536482
0.579171
0.57898
0.578805
0.578557
0.459421
0.00821355
3.02322e-06
7.82877e-08
5.11448e-08
4.58698e-08
5.87908e-07
7.8688e-07
7.86651e-07
7.87107e-07
8.61656e-07
2.01393e-06
9.00194e-06
1.70268e-05
1.22014e-05
2.07802e-06
1.37758e-06
1.3881e-06
0.000716438
0.00439778
0.00439778
0.00439778
0.00310448
8.43988e-05
4.87071e-06
4.5325e-06
1.89013e-05
3.8814e-05
2.16651e-05
2.15022e-05
2.67798e-05
0.00327284
0.115072
0.375642
0.508016
0.536482
0.578754
0.578817
0.578557
0.57889
0.57773
0.323912
4.9911e-05
3.17583e-07
2.49601e-08
2.38778e-08
1.93126e-08
1.18419e-07
5.89775e-07
1.14173e-06
2.0062e-06
3.79877e-06
5.46775e-06
3.19067e-06
1.74598e-06
1.37761e-06
1.3826e-06
1.37759e-06
1.3881e-06
0.000693848
0.00439778
0.00438745
0.00191382
3.78456e-05
4.53251e-06
4.4804e-06
1.85555e-05
1.5669e-05
1.64964e-05
2.09625e-05
0.000143382
0.114497
0.491501
0.537888
0.538184
0.535187
0.303447
0.572264
0.579039
0.577679
0.577183
0.567165
0.136013
5.22036e-06
4.36242e-08
1.92431e-08
1.9034e-08
1.87735e-08
1.87222e-08
1.4967e-07
1.83142e-06
5.30482e-06
6.79317e-06
2.44276e-05
2.46653e-05
2.45827e-05
2.36439e-05
1.2996e-05
3.12545e-06
3.72746e-06
0.000748911
0.000831926
0.000147871
1.32806e-05
4.4804e-06
4.49661e-06
1.48269e-05
1.50215e-05
1.67643e-05
5.14697e-05
0.000868893
0.127749
0.537888
0.538322
0.538354
0.526784
0.000202364
0.10833
0.475653
0.577159
0.575177
0.57344
0.455194
0.00652312
4.55827e-07
1.92905e-08
1.87731e-08
1.87222e-08
1.87195e-08
1.87193e-08
1.87193e-08
1.87193e-08
1.87193e-08
1.87381e-08
1.23577e-06
1.12459e-05
2.61484e-05
1.86289e-05
3.46784e-06
3.46784e-06
2.16296e-05
1.23566e-05
1.21613e-05
1.2199e-05
2.78539e-05
0.000236992
1.50215e-05
1.52649e-05
1.78415e-05
6.23578e-05
0.0013294
0.0543329
0.389382
0.538353
0.538381
0.526779
1.9673e-05
0.000195941
0.0441372
0.462391
0.573407
0.569638
0.565905
0.267742
8.03468e-06
6.98167e-08
1.92015e-08
1.87682e-08
1.87222e-08
1.87195e-08
1.87191e-08
1.87193e-08
1.87213e-08
1.87627e-08
2.00382e-08
2.39973e-06
1.1502e-05
4.81752e-06
4.34589e-06
4.3511e-05
3.50546e-05
1.21376e-05
1.16408e-05
3.93751e-05
0.000477787
0.000547281
2.5294e-05
1.54565e-05
1.66851e-05
4.55525e-05
0.000727077
0.0113703
0.103845
0.471577
0.538404
0.533736
1.32574e-05
1.28006e-05
0.000203922
0.0729692
0.507525
0.565889
0.563729
0.51612
0.0505821
8.21892e-07
3.18807e-08
1.93846e-08
1.87656e-08
1.87295e-08
1.87207e-08
1.87213e-08
1.87305e-08
1.8751e-08
1.90567e-08
2.24275e-08
7.32359e-08
2.17647e-06
5.54516e-05
8.5228e-05
8.44556e-05
2.99195e-05
1.00208e-05
0.000153829
0.000553124
0.000551876
0.000217067
1.57286e-05
1.60101e-05
2.51467e-05
0.000189389
0.00312312
0.0419058
0.437198
0.538406
0.538404
1.28018e-05
1.27931e-05
1.26933e-05
0.000308535
0.145772
0.563729
0.5586
0.554697
0.330086
1.52773e-05
2.09189e-07
2.78249e-08
1.94356e-08
1.88353e-08
1.87278e-08
1.87303e-08
1.87508e-08
1.88456e-08
1.9557e-08
2.85701e-08
1.30374e-07
1.83412e-05
8.52177e-05
8.5207e-05
8.52208e-05
2.65225e-05
6.74947e-06
0.00017961
0.000553124
0.000553205
0.000436678
1.56839e-05
1.62909e-05
1.68486e-05
2.20559e-05
4.76497e-05
0.0697294
0.532108
0.538407
0.538406
1.27932e-05
1.27914e-05
1.27932e-05
1.82481e-05
0.00261375
0.296047
0.554697
0.549835
0.539603
0.123827
3.11709e-06
1.6157e-07
2.77261e-08
2.0053e-08
1.9276e-08
1.86445e-08
1.88431e-08
1.94683e-08
2.02212e-08
2.60027e-08
8.83892e-08
6.60683e-06
2.93926e-05
3.9724e-05
2.02413e-05
2.75691e-06
3.55393e-06
0.000116999
0.000553164
0.000553124
0.0005269
1.49199e-05
1.57257e-05
1.79498e-05
4.39461e-05
0.0178683
0.334591
0.538425
0.538415
0.537846
2.33704e-05
1.40521e-05
1.33418e-05
1.38962e-05
6.07032e-05
0.0427006
0.444554
0.545309
0.542608
0.431414
6.41334e-05
2.20317e-06
1.51048e-07
5.27835e-08
2.14534e-08
1.54188e-08
1.93519e-08
2.02041e-08
2.6017e-08
9.661e-08
1.1153e-07
1.08645e-07
1.22773e-07
5.552e-08
8.99367e-08
4.65992e-07
6.86798e-07
5.03964e-05
0.000508434
0.000552574
0.000510603
1.44168e-05
1.49199e-05
2.56554e-05
0.000211875
0.18227
0.538425
0.538437
0.538423
0.537339
0.000132457
0.000785569
0.000924322
0.000150335
0.000142393
0.000306723
0.0930698
0.496449
0.535753
0.530708
0.236555
4.34699e-05
2.22491e-06
4.83441e-07
1.19822e-07
9.48024e-08
-1.33458e-08
2.27787e-08
2.9706e-08
2.83946e-08
2.55214e-08
2.55095e-08
2.55095e-08
2.56584e-08
2.87635e-08
6.67787e-08
4.31022e-07
9.50851e-05
0.000547155
0.000551495
0.000382803
1.41087e-05
1.44168e-05
3.87466e-05
0.000805342
0.214349
0.538437
0.538437
0.538437
0.538412
0.00210469
0.0064842
0.00617895
0.000768955
2.42186e-05
8.22157e-05
0.000306204
0.0961219
0.483914
0.52078
0.497336
0.0917739
4.3376e-05
8.39622e-06
2.44375e-06
1.08746e-06
4.63239e-07
-8.69487e-08
7.192e-08
4.09234e-08
2.80764e-08
2.55095e-08
2.55886e-08
2.87624e-08
6.86892e-08
3.52202e-07
1.70715e-05
0.000405135
0.000544989
0.000547155
0.000310174
1.39554e-05
1.41087e-05
5.54458e-05
0.00157149
0.0918441
0.470335
0.538437
0.538437
0.538437
0.0055066
0.006485
0.0064842
0.00140691
6.25433e-06
1.29228e-05
4.12544e-05
0.000108885
0.0649914
0.428742
0.493734
0.459341
0.0756572
0.004936
4.41237e-05
4.14302e-05
1.54021e-05
2.71529e-06
1.95784e-06
7.28138e-07
2.2305e-07
4.50584e-08
4.13985e-08
6.74988e-08
3.54882e-07
1.29284e-05
0.00037709
0.000542503
0.000544208
0.000542503
0.000176566
1.39532e-05
1.39554e-05
2.41244e-05
0.000674141
0.0100546
0.133785
0.474527
0.538437
0.532453
0.00571557
0.00648675
0.00648495
0.00145903
5.70738e-06
6.10719e-06
1.01817e-05
1.34233e-05
5.56413e-05
0.00189052
0.256657
0.435439
0.426862
0.340291
0.0706415
0.0542729
0.0180034
3.41558e-05
3.07116e-05
1.24933e-05
5.09422e-06
6.8778e-07
3.83805e-07
4.90866e-06
4.35082e-06
3.58433e-05
0.000304974
0.000539545
0.000429574
2.77763e-05
1.39554e-05
1.39554e-05
1.39554e-05
1.50957e-05
0.000566858
0.000947873
0.000452063
0.0356349
0.397594
0.166891
0.00559735
0.00648769
0.00648675
0.00313702
5.65002e-06
5.68676e-06
5.86617e-06
7.94173e-06
1.34233e-05
6.61326e-05
0.000588673
0.0705448
0.334951
0.349649
0.349649
0.349649
0.253122
0.0777818
0.105187
0.0481852
0.00696056
1.85675e-05
6.68082e-05
0.000250204
4.3725e-05
8.8976e-05
0.000170248
4.32746e-05
2.51188e-05
2.31494e-05
1.74563e-05
1.39554e-05
4.83774e-05
8.49892e-05
6.26673e-05
7.21304e-05
9.99354e-05
0.0039055
0.0243767
0.010999
0.00565671
0.00648769
0.00648769
0.00536965
5.65648e-06
5.64823e-06
5.68676e-06
5.93448e-06
7.06774e-06
0.00103525
0.0014113
0.00034767
6.79869e-06
0.00998538
0.189952
0.308543
0.324416
0.32869
0.329489
0.329377
0.29668
0.0448281
0.0714978
0.0902894
0.0712238
0.0348155
0.0146502
0.0169855
0.0699256
0.271007
0.375619
0.319942
0.2559
0.266647
0.22385
0.128439
0.0642818
0.0287023
0.0239338
0.0110597
0.00466458
0.00648769
0.00648088
0.00640551
0.000798767
5.68676e-06
5.8643e-06
0.000133473
0.00172124
0.00204616
0.00203829
0.000783856
6.39053e-06
6.32487e-06
6.28684e-06
3.96377e-06
2.11422e-06
0.00095091
0.133801
0.286774
0.366423
0.404444
0.430681
0.433928
0.458307
0.540979
0.540979
0.540979
0.528469
0.531684
0.531684
0.531687
0.531596
0.530939
0.530363
0.530363
0.529519
0.477789
0.453516
0.424507
0.000956119
0.0051626
0.00646116
0.00359129
3.03839e-06
4.87692e-06
6.77603e-06
0.000497833
0.00204616
0.00204616
0.00204616
0.00164311
6.32487e-06
6.05805e-06
5.54961e-06
2.11422e-06
1.75782e-06
2.75002e-07
2.87277e-07
4.3195e-07
1.26079e-06
5.08036e-06
0.0522932
0.241089
0.354503
0.432773
0.519756
0.538288
0.524463
0.505299
0.330442
0.257213
0.212095
0.183831
0.186837
0.162102
0.169328
0.187144
0.198976
0.196297
0.000329979
0.000867846
0.0018058
0.000490332
2.34968e-06
3.03838e-06
5.8047e-06
0.000392865
0.00204493
0.00204616
0.00102606
1.25485e-05
8.82107e-06
4.18235e-05
0.000231064
0.000213709
7.71428e-06
2.59839e-07
2.42178e-07
2.71117e-07
4.3195e-07
1.26121e-06
5.07957e-06
1.44616e-05
2.48234e-05
3.10976e-05
4.13991e-05
0.0050371
0.00443044
0.00283081
1.24237e-05
1.37949e-05
0.00081753
0.000923186
0.000107375
0.000106484
0.000105344
0.000105238
0.000105236
0.000105236
0.000105288
3.16614e-05
4.8571e-05
2.34968e-06
2.22552e-06
2.34965e-06
4.8654e-06
0.000350408
0.00192357
0.000924231
4.65205e-05
8.98702e-05
0.000299446
0.000297556
0.000295144
0.000174019
2.52705e-07
2.27113e-07
2.0641e-07
1.82795e-07
1.49095e-06
0.000163986
0.000312655
0.000321414
9.36478e-05
6.0471e-05
3.88397e-05
1.79626e-05
1.43878e-05
1.24237e-05
1.11973e-05
3.56705e-05
0.000118377
0.000138376
0.000177122
0.000179929
0.000404586
0.000157647
0.000105243
0.000105236
2.37267e-05
2.29572e-06
2.03735e-05
1.12735e-05
2.18913e-06
2.22552e-06
1.04374e-05
0.000329362
0.000458942
5.29098e-05
3.75391e-05
0.000297492
0.000299446
0.000299446
0.000162334
2.52705e-07
2.38383e-07
2.19133e-07
1.97142e-07
8.70494e-08
1.80358e-08
1.43263e-08
0.00011697
0.000333386
0.000346992
0.000348756
0.000348738
0.000348738
0.000117582
3.75835e-05
1.00341e-06
4.22348e-08
9.98155e-09
9.53185e-09
9.54786e-09
9.53181e-09
0.000141228
0.000566956
0.000567247
0.000223656
2.12254e-06
1.95019e-06
2.64983e-06
1.06495e-05
2.03523e-06
2.18913e-06
4.80031e-05
0.000135536
1.25857e-05
2.02224e-05
2.38929e-05
5.92437e-05
8.1653e-05
3.62851e-05
1.11154e-05
1.93638e-06
2.36615e-07
1.91154e-07
1.12522e-07
1.80358e-08
1.50572e-08
3.19556e-09
3.36047e-09
5.19448e-09
3.19581e-06
0.0001808
0.000347003
0.000340731
0.00033123
0.000305366
1.70261e-06
1.65406e-07
2.1153e-08
9.64206e-09
9.53181e-09
9.63138e-09
1.06071e-08
2.50078e-08
0.000473983
0.000223974
1.93177e-06
1.9007e-06
1.83268e-06
1.83759e-06
1.84733e-06
6.68986e-06
2.67104e-05
3.94911e-06
6.59394e-06
4.89359e-05
8.49774e-05
4.31141e-05
2.05421e-05
2.0222e-05
2.01537e-05
8.02922e-05
0.00012618
4.08875e-05
1.22993e-07
2.34916e-08
3.19556e-09
3.19556e-09
3.19515e-09
3.36047e-09
4.10694e-09
3.95456e-09
1.15083e-08
4.19782e-05
0.000282948
0.000302415
0.00012078
2.43801e-05
2.11895e-07
1.14717e-08
9.59261e-09
1.0647e-08
3.00421e-07
5.49852e-05
0.000497107
0.000325908
0.000706388
8.46853e-06
1.82225e-06
1.80566e-06
1.80836e-06
2.72429e-06
1.91398e-06
1.94094e-06
2.90743e-06
3.55289e-05
0.000460635
0.000542358
0.00047841
2.71686e-05
5.2658e-05
0.000623796
0.000801051
0.000631244
6.93448e-05
8.24424e-05
3.20405e-09
3.19403e-09
3.20405e-09
3.38426e-09
3.95452e-09
3.55496e-09
3.95408e-09
1.1518e-08
1.14032e-07
3.6071e-06
0.000486887
0.00159883
0.000291223
1.87527e-08
1.14536e-08
2.48149e-08
3.05056e-07
4.48405e-05
0.000435923
0.000466002
0.00137606
0.00128214
0.000576457
1.80836e-06
1.80748e-06
1.80836e-06
1.83383e-06
1.85729e-06
1.93862e-06
9.86137e-06
0.000130743
0.000546726
0.00078843
0.000793938
0.000796755
0.000799224
0.000803206
0.000803206
0.000803206
0.000701852
1.03208e-06
3.20405e-09
6.92567e-09
2.24333e-08
1.78952e-08
3.55502e-09
3.55502e-09
5.9436e-09
3.93362e-08
4.93329e-07
0.000154729
0.00248875
0.00289948
1.31421e-07
2.50297e-08
1.48832e-07
8.10674e-07
2.39181e-07
0.000163452
0.000465863
0.00139781
0.00139781
0.00139781
0.00114126
0.000212451
1.83383e-06
1.84869e-06
1.85265e-06
1.85729e-06
3.20313e-06
4.46714e-06
7.24541e-05
0.000179523
0.00010521
3.70341e-06
1.26601e-05
0.0005027
0.000803206
0.00079873
0.000790629
0.000533941
3.47436e-09
3.82566e-08
2.86914e-07
1.82713e-07
3.4217e-09
3.73151e-09
7.51418e-08
9.5989e-07
1.53642e-06
7.04972e-05
0.00240538
0.00342231
0.00106457
1.32997e-07
6.4812e-07
2.39063e-07
1.71297e-07
1.37315e-09
6.74241e-05
0.000290261
0.0010102
0.00139077
0.00138373
0.00138373
0.000515823
1.85215e-06
1.85722e-06
1.90435e-06
2.9163e-06
4.12958e-06
1.76694e-05
3.74182e-06
4.78e-07
4.53487e-07
4.53282e-07
4.58044e-07
2.86963e-06
0.000387298
0.000780956
0.000444001
5.19627e-09
8.09625e-08
3.20015e-07
2.7495e-07
2.76176e-09
3.69177e-09
1.14625e-07
4.44147e-06
6.91205e-05
0.00115621
0.0034332
0.00343165
0.00282105
1.0866e-06
9.4648e-05
0.000190944
1.37315e-09
1.35221e-09
1.35221e-09
1.56694e-06
3.46252e-05
0.000164064
0.00131901
0.00136573
0.00134773
0.000374481
2.42037e-06
1.94638e-06
3.08079e-06
1.76955e-05
2.61558e-05
1.57262e-05
4.53487e-07
4.53034e-07
4.53021e-07
4.53059e-07
4.54942e-07
4.19218e-06
0.00011862
0.00012802
1.11059e-08
7.061e-08
3.12571e-07
1.25353e-07
2.01979e-09
2.71988e-09
3.0527e-08
4.55761e-06
0.000627253
0.00338967
0.0034332
0.00343398
0.00343165
0.000127977
0.000901258
0.00111869
1.76051e-09
1.35221e-09
1.35221e-09
7.44232e-08
4.91448e-07
1.87244e-06
4.08812e-05
0.00107586
0.00131426
0.00127501
0.000133222
2.97509e-06
3.24293e-06
1.56198e-05
2.82954e-05
2.83857e-05
1.45033e-06
4.53021e-07
4.53017e-07
4.53018e-07
4.53059e-07
6.26715e-07
6.47015e-07
8.20756e-07
4.27607e-06
3.16751e-07
5.79407e-09
4.38899e-09
1.80442e-09
2.00996e-09
1.75684e-08
8.18459e-07
0.00131246
0.00343286
0.00343394
0.00343248
0.00210742
0.00035614
0.00121968
0.00122823
0.000304318
1.35221e-09
1.35221e-09
8.07994e-09
7.42527e-08
2.45766e-07
1.30082e-06
1.0054e-05
0.00111917
0.00123855
0.00120217
6.39033e-05
3.86579e-06
6.49564e-06
1.58923e-05
1.7961e-05
5.26196e-06
8.96802e-07
4.53018e-07
4.53017e-07
4.53018e-07
4.53082e-07
3.04127e-06
5.19319e-05
3.19095e-05
2.40411e-06
3.5237e-09
1.80442e-09
1.80442e-09
1.31486e-09
7.43245e-09
3.64679e-07
0.00139932
0.00343203
0.00343248
0.00288843
0.000127249
8.44765e-05
0.00122823
0.00122823
0.00111156
1.35221e-09
1.35221e-09
9.87546e-09
9.98633e-08
1.24809e-07
2.81471e-07
1.30254e-06
2.62057e-05
0.00120393
0.00122128
0.00104486
2.58549e-05
7.70672e-06
8.9175e-06
1.00926e-05
1.22753e-05
1.21166e-05
4.04262e-06
4.53018e-07
4.53082e-07
4.53163e-07
4.5318e-07
3.33252e-05
4.64349e-05
1.26778e-05
1.76103e-08
4.64243e-08
1.75782e-09
8.42152e-10
2.69052e-09
2.06445e-07
0.000856099
0.00327876
0.00289302
0.000346845
1.86394e-07
2.74784e-06
0.00049409
0.00122823
0.00122764
1.35222e-09
1.35221e-09
1.20359e-07
5.81888e-07
3.53462e-07
4.11999e-07
5.10529e-07
1.61262e-06
0.000311002
0.00122128
0.00123568
0.000600153
1.30859e-05
1.00922e-05
1.03615e-05
1.09957e-05
2.28219e-05
2.25251e-05
4.05096e-06
4.53386e-07
4.5318e-07
4.53182e-07
4.6189e-05
7.26074e-05
4.20435e-05
8.53409e-06
2.22843e-07
7.83787e-09
8.35261e-10
8.55816e-10
1.43577e-06
0.000174625
0.000195101
9.11328e-05
1.8407e-07
1.82594e-07
1.86394e-07
1.38723e-05
0.00122802
0.00121835
2.50558e-05
1.35223e-09
1.25927e-07
2.23649e-06
6.70628e-06
2.41111e-06
9.90668e-07
1.37153e-06
3.15717e-06
0.000284256
0.00117551
0.00190069
0.00185849
0.00112491
0.000187183
1.1236e-05
1.89309e-05
2.88773e-05
2.10814e-05
2.0725e-06
4.54423e-07
4.53265e-07
4.44186e-05
7.33287e-05
7.32808e-05
3.66908e-05
2.93078e-07
1.05185e-08
6.66526e-10
4.14219e-09
1.14339e-06
1.94702e-07
1.8175e-07
1.83284e-07
1.81749e-07
1.85972e-07
2.57726e-07
1.93359e-05
0.000810994
0.00121244
0.000117478
1.35276e-09
1.34905e-07
7.19068e-06
1.73717e-05
1.51646e-05
2.05814e-06
1.95806e-06
2.4886e-06
7.42581e-06
0.000101251
0.0018499
0.00273003
0.00285551
0.00289829
0.00190279
0.000248657
4.68509e-05
3.94136e-05
1.55482e-05
4.97342e-07
4.55888e-07
2.11149e-05
7.32808e-05
7.33287e-05
4.65639e-05
3.99758e-07
1.73686e-09
2.88898e-10
2.84167e-10
3.93434e-06
7.93289e-07
1.85117e-07
1.81907e-07
1.85117e-07
2.23035e-07
5.84355e-07
1.86565e-06
0.000197763
0.00120639
0.000356042
1.36349e-09
1.43752e-07
1.17438e-05
1.74551e-05
1.74358e-05
6.02864e-06
2.51938e-06
2.62933e-06
3.5074e-06
8.86347e-06
0.0006408
0.00285321
0.00290917
0.00294412
0.00294255
0.00191279
0.000123097
7.26989e-05
5.20617e-05